/*--------------------------------*- C++ -*----------------------------------*\
| =========                 |                                                 |
| \\      /  F ield         | OpenFOAM: The Open Source CFD Toolbox           |
|  \\    /   O peration     | Version:  2.4.0                                 |
|   \\  /    A nd           | Web:      www.OpenFOAM.org                      |
|    \\/     M anipulation  |                                                 |
\*---------------------------------------------------------------------------*/
FoamFile
{
    version     2.0;
    format      ascii;
    class       volScalarField;
    location    "8";
    object      p;
}
// * * * * * * * * * * * * * * * * * * * * * * * * * * * * * * * * * * * * * //

dimensions      [0 2 -2 0 0 0 0];

internalField   nonuniform List<scalar> 
4400
(
-0.096481
-0.0974316
-0.0990051
-0.0999203
-0.10087
-0.102105
-0.102281
-0.104504
-0.10405
-0.106065
-0.106515
-0.103223
-0.110601
-0.0967994
-0.103119
-0.103493
-0.0783406
-0.102843
-0.0869699
-0.0747002
-0.0964795
-0.0974122
-0.0990228
-0.0999196
-0.100866
-0.102128
-0.102244
-0.104542
-0.104032
-0.106073
-0.106635
-0.103037
-0.110802
-0.0967315
-0.103145
-0.104034
-0.0776532
-0.103851
-0.0876323
-0.0728017
-0.0964782
-0.0973885
-0.0990559
-0.099915
-0.100862
-0.102159
-0.102197
-0.104599
-0.103993
-0.106092
-0.106818
-0.102826
-0.111137
-0.0966512
-0.102973
-0.105337
-0.077529
-0.104698
-0.0884797
-0.0709336
-0.0964809
-0.0973649
-0.0990858
-0.0998983
-0.100863
-0.10219
-0.102161
-0.104635
-0.103956
-0.106061
-0.107089
-0.102599
-0.111468
-0.0967351
-0.102426
-0.107256
-0.0777221
-0.105006
-0.0910049
-0.0693636
-0.0964905
-0.0973419
-0.0991163
-0.099876
-0.100854
-0.102216
-0.102154
-0.10462
-0.103956
-0.105911
-0.107394
-0.102349
-0.111394
-0.0971801
-0.101518
-0.108743
-0.0781728
-0.103435
-0.0937773
-0.0686824
-0.0965118
-0.0973227
-0.0991362
-0.0998563
-0.100827
-0.102231
-0.102197
-0.104535
-0.104009
-0.105645
-0.107635
-0.102191
-0.110858
-0.09807
-0.100229
-0.109289
-0.07907
-0.100055
-0.0959221
-0.068188
-0.0965455
-0.0973131
-0.0991333
-0.0998516
-0.100784
-0.102226
-0.102293
-0.104387
-0.10411
-0.105341
-0.107761
-0.102241
-0.109931
-0.0992322
-0.0988788
-0.108949
-0.0806925
-0.0972102
-0.097096
-0.0690283
-0.096589
-0.0973224
-0.0990957
-0.0998667
-0.100727
-0.102196
-0.102432
-0.104197
-0.104245
-0.105072
-0.107741
-0.10252
-0.108726
-0.100479
-0.097837
-0.107791
-0.0828599
-0.0942605
-0.0972606
-0.0705648
-0.0966376
-0.0973571
-0.0990233
-0.0998918
-0.100676
-0.102139
-0.102594
-0.103991
-0.104393
-0.104883
-0.107562
-0.102989
-0.107389
-0.101658
-0.097226
-0.105954
-0.0853143
-0.0915381
-0.0964182
-0.0725634
-0.0966816
-0.0974201
-0.0989266
-0.0999352
-0.10064
-0.10206
-0.102751
-0.103791
-0.104534
-0.104795
-0.107247
-0.103587
-0.105996
-0.102621
-0.0970481
-0.103689
-0.0878595
-0.0892987
-0.0947282
-0.0747362
-0.0967162
-0.0975057
-0.0988138
-0.0999504
-0.100625
-0.101971
-0.102879
-0.10362
-0.104657
-0.104803
-0.106849
-0.10425
-0.104915
-0.103273
-0.0972379
-0.101289
-0.0902669
-0.0876538
-0.0924225
-0.0769177
-0.0967399
-0.0976015
-0.0986937
-0.0999489
-0.10063
-0.101885
-0.102959
-0.103498
-0.104751
-0.104889
-0.106435
-0.104897
-0.104089
-0.10361
-0.0976735
-0.0990225
-0.0921912
-0.0865685
-0.0898258
-0.0789452
-0.0967526
-0.0976976
-0.0986157
-0.0999313
-0.100651
-0.101805
-0.102989
-0.103432
-0.104815
-0.105026
-0.106061
-0.105458
-0.103534
-0.103694
-0.098233
-0.0970852
-0.0936468
-0.0859389
-0.0872884
-0.0806319
-0.0967574
-0.0977852
-0.0985677
-0.0999004
-0.100677
-0.101735
-0.102974
-0.103418
-0.104853
-0.105183
-0.105764
-0.105887
-0.103221
-0.103617
-0.0987978
-0.0955915
-0.0946115
-0.0856228
-0.0850883
-0.0818674
-0.096757
-0.0978568
-0.0985502
-0.0998614
-0.100697
-0.101677
-0.102944
-0.103444
-0.104867
-0.105334
-0.105557
-0.106169
-0.103099
-0.103461
-0.0992734
-0.0945694
-0.0951265
-0.085473
-0.0833986
-0.0826174
-0.0967544
-0.0979093
-0.0985575
-0.0998208
-0.100708
-0.101634
-0.102907
-0.103491
-0.104863
-0.105457
-0.105436
-0.106317
-0.103098
-0.103285
-0.0995982
-0.0939647
-0.0952578
-0.0853525
-0.0822692
-0.0829428
-0.0967537
-0.0979435
-0.0985776
-0.0997823
-0.100708
-0.101607
-0.102872
-0.103539
-0.104849
-0.105536
-0.105379
-0.106354
-0.103148
-0.103119
-0.0997471
-0.0936758
-0.0950533
-0.0851782
-0.0816257
-0.0829527
-0.0967588
-0.097959
-0.0985982
-0.0997532
-0.100702
-0.101597
-0.102845
-0.103579
-0.104834
-0.10557
-0.105362
-0.10629
-0.103194
-0.102964
-0.0997336
-0.09359
-0.09478
-0.0849747
-0.0813228
-0.0827694
-0.0967704
-0.0979578
-0.0986104
-0.0997345
-0.100696
-0.101601
-0.102825
-0.103603
-0.104816
-0.105563
-0.105362
-0.106195
-0.103217
-0.102855
-0.0996238
-0.0936163
-0.094544
-0.0848318
-0.0812535
-0.0825126
-0.0967907
-0.0979445
-0.0986138
-0.0997274
-0.10069
-0.101612
-0.102816
-0.103616
-0.104807
-0.105529
-0.105363
-0.106077
-0.103211
-0.102797
-0.0994819
-0.0936955
-0.0943583
-0.0847529
-0.0813866
-0.0821681
-0.0771457
-0.0801659
-0.0937552
-0.145045
-0.176495
-0.147156
-0.0790889
-0.0153057
0.02344
0.0420602
0.0499327
0.0529426
0.0540272
0.054328
0.0542468
0.0539732
0.0536042
0.0531843
0.0527352
0.0522691
0.0517925
0.0513086
0.0508191
0.050325
0.0498268
0.0493247
0.0488189
0.0483093
0.0477962
0.0472793
0.0467589
0.0462347
0.0457069
0.0451753
0.04464
0.044101
0.0435581
0.0430114
0.0424609
0.0419066
0.0413483
0.0407861
0.04022
0.0396499
0.0390758
0.0384976
0.0379154
0.0373291
0.0367387
0.0361441
0.0355454
0.0349424
0.0343352
0.0337238
0.0331081
0.032488
0.0318636
0.0312347
0.0306015
0.0299638
0.0293217
0.028675
0.0280238
0.027368
0.0267075
0.0260425
0.0253728
0.0246984
0.0240192
0.0233352
0.0226465
0.0219529
0.0212544
0.0205511
0.0198427
0.0191295
0.0184112
0.0176878
0.0169594
0.0162258
0.0154871
0.0147432
0.0139941
0.0132397
0.0124801
0.0117151
0.0109446
0.0101689
0.00938746
0.008601
0.00780833
0.0070109
0.00620716
0.00539804
0.0045838
0.00376236
0.00293706
0.00210467
0.00126627
0.000423211
-0.0858476
-0.0841903
-0.089712
-0.134816
-0.166088
-0.139496
-0.0758526
-0.0154013
0.0219778
0.0405635
0.0487865
0.0521237
0.0534646
0.0539544
0.0540025
0.053815
0.0535029
0.05312
0.0526948
0.0522438
0.0517768
0.0512989
0.0508132
0.0503214
0.0498246
0.0493234
0.0488181
0.0483089
0.0477959
0.0472792
0.0467588
0.0462347
0.0457069
0.0451753
0.04464
0.044101
0.0435581
0.0430114
0.0424609
0.0419066
0.0413483
0.0407861
0.04022
0.0396499
0.0390758
0.0384976
0.0379154
0.0373291
0.0367387
0.0361441
0.0355454
0.0349424
0.0343352
0.0337238
0.0331081
0.032488
0.0318636
0.0312347
0.0306015
0.0299638
0.0293217
0.028675
0.0280238
0.027368
0.0267075
0.0260425
0.0253728
0.0246984
0.0240192
0.0233352
0.0226465
0.0219529
0.0212544
0.0205511
0.0198427
0.0191295
0.0184111
0.0176878
0.0169594
0.0162258
0.0154871
0.0147432
0.0139941
0.0132397
0.0124801
0.0117151
0.0109446
0.0101689
0.00938746
0.008601
0.00780833
0.0070109
0.00620716
0.00539804
0.0045838
0.00376235
0.00293706
0.00210467
0.00126627
0.000423211
-0.0900574
-0.0879325
-0.086447
-0.126685
-0.155939
-0.131818
-0.0726528
-0.0155966
0.0204755
0.0390566
0.0476383
0.0513095
0.0529092
0.0535873
0.0537629
0.0536599
0.0534036
0.053057
0.052655
0.0522189
0.0517613
0.0512893
0.0508073
0.0503179
0.0498225
0.0493221
0.0488173
0.0483084
0.0477956
0.047279
0.0467587
0.0462346
0.0457068
0.0451753
0.04464
0.0441009
0.0435581
0.0430114
0.0424609
0.0419066
0.0413483
0.0407861
0.04022
0.0396499
0.0390758
0.0384976
0.0379154
0.0373291
0.0367387
0.0361441
0.0355454
0.0349424
0.0343352
0.0337238
0.0331081
0.032488
0.0318636
0.0312347
0.0306015
0.0299638
0.0293217
0.028675
0.0280238
0.027368
0.0267075
0.0260425
0.0253728
0.0246984
0.0240192
0.0233352
0.0226465
0.0219529
0.0212544
0.0205511
0.0198427
0.0191295
0.0184111
0.0176878
0.0169594
0.0162258
0.0154871
0.0147432
0.0139941
0.0132397
0.0124801
0.0117151
0.0109446
0.0101689
0.00938746
0.008601
0.00780833
0.0070109
0.00620716
0.00539804
0.0045838
0.00376236
0.00293706
0.00210467
0.00126627
0.00042321
-0.0921759
-0.0913555
-0.084064
-0.118351
-0.146107
-0.124445
-0.0695506
-0.0158895
0.0188805
0.0375289
0.0464954
0.0505038
0.052363
0.0532285
0.0535296
0.0535092
0.053307
0.0529956
0.0526163
0.0521947
0.0517462
0.05128
0.0508016
0.0503144
0.0498204
0.0493209
0.0488166
0.048308
0.0477954
0.0472789
0.0467586
0.0462346
0.0457068
0.0451753
0.04464
0.0441009
0.0435581
0.0430114
0.0424609
0.0419066
0.0413483
0.0407861
0.04022
0.0396499
0.0390758
0.0384976
0.0379154
0.0373291
0.0367387
0.0361441
0.0355454
0.0349424
0.0343352
0.0337238
0.0331081
0.032488
0.0318636
0.0312347
0.0306015
0.0299638
0.0293217
0.028675
0.0280238
0.027368
0.0267075
0.0260425
0.0253728
0.0246983
0.0240192
0.0233352
0.0226465
0.0219529
0.0212544
0.0205511
0.0198427
0.0191295
0.0184111
0.0176878
0.0169594
0.0162258
0.0154871
0.0147432
0.0139941
0.0132397
0.0124801
0.0117151
0.0109446
0.0101689
0.00938746
0.008601
0.00780833
0.0070109
0.00620716
0.00539804
0.00458381
0.00376236
0.00293706
0.00210467
0.00126627
0.00042321
-0.0921872
-0.093648
-0.0821056
-0.111901
-0.136959
-0.11755
-0.066726
-0.0163058
0.0171905
0.0359518
0.0453531
0.0497125
0.0518305
0.0528804
0.053304
0.0533637
0.0532139
0.0529364
0.0525789
0.0521712
0.0517316
0.051271
0.0507961
0.050311
0.0498183
0.0493196
0.0488159
0.0483076
0.0477951
0.0472788
0.0467585
0.0462345
0.0457068
0.0451753
0.04464
0.0441009
0.0435581
0.0430114
0.0424609
0.0419066
0.0413483
0.0407861
0.04022
0.0396499
0.0390758
0.0384976
0.0379154
0.0373291
0.0367387
0.0361441
0.0355454
0.0349424
0.0343352
0.0337238
0.0331081
0.032488
0.0318636
0.0312347
0.0306015
0.0299638
0.0293217
0.028675
0.0280238
0.027368
0.0267075
0.0260425
0.0253728
0.0246983
0.0240192
0.0233352
0.0226465
0.0219529
0.0212544
0.0205511
0.0198427
0.0191295
0.0184111
0.0176878
0.0169594
0.0162258
0.0154871
0.0147432
0.0139941
0.0132397
0.0124801
0.0117151
0.0109446
0.0101689
0.00938746
0.008601
0.00780833
0.0070109
0.00620716
0.00539804
0.00458381
0.00376236
0.00293706
0.00210467
0.00126628
0.000423209
-0.091416
-0.0952683
-0.0804024
-0.104721
-0.128166
-0.111023
-0.0643207
-0.017006
0.015427
0.0343432
0.0442034
0.048934
0.051315
0.0525459
0.0530879
0.0532246
0.0531248
0.0528798
0.0525431
0.0521488
0.0517176
0.0512623
0.0507908
0.0503078
0.0498164
0.0493185
0.0488152
0.0483072
0.0477949
0.0472786
0.0467585
0.0462345
0.0457067
0.0451752
0.04464
0.0441009
0.0435581
0.0430114
0.0424609
0.0419066
0.0413483
0.0407861
0.04022
0.0396499
0.0390758
0.0384976
0.0379154
0.0373291
0.0367387
0.0361441
0.0355454
0.0349424
0.0343352
0.0337238
0.0331081
0.032488
0.0318636
0.0312347
0.0306015
0.0299638
0.0293217
0.028675
0.0280238
0.027368
0.0267075
0.0260425
0.0253728
0.0246983
0.0240192
0.0233352
0.0226465
0.0219529
0.0212544
0.0205511
0.0198427
0.0191295
0.0184111
0.0176878
0.0169594
0.0162258
0.0154871
0.0147432
0.0139941
0.0132397
0.0124801
0.0117151
0.0109446
0.0101689
0.00938746
0.008601
0.00780833
0.0070109
0.00620716
0.00539804
0.00458381
0.00376236
0.00293706
0.00210468
0.00126628
0.000423208
-0.0896186
-0.0956741
-0.0790264
-0.098044
-0.11975
-0.104786
-0.06229
-0.0181498
0.0134772
0.0327167
0.0430644
0.0481717
0.0508169
0.0522263
0.0528827
0.0530929
0.0530406
0.0528262
0.0525092
0.0521275
0.0517044
0.0512541
0.0507857
0.0503047
0.0498145
0.0493174
0.0488145
0.0483068
0.0477947
0.0472785
0.0467584
0.0462344
0.0457067
0.0451752
0.04464
0.0441009
0.0435581
0.0430114
0.0424609
0.0419066
0.0413483
0.0407861
0.04022
0.0396499
0.0390758
0.0384976
0.0379154
0.0373291
0.0367387
0.0361441
0.0355454
0.0349424
0.0343352
0.0337238
0.0331081
0.032488
0.0318636
0.0312347
0.0306015
0.0299638
0.0293217
0.028675
0.0280238
0.027368
0.0267075
0.0260425
0.0253728
0.0246983
0.0240192
0.0233352
0.0226465
0.0219529
0.0212544
0.0205511
0.0198427
0.0191295
0.0184111
0.0176878
0.0169594
0.0162258
0.0154871
0.0147432
0.0139941
0.0132397
0.0124801
0.0117151
0.0109446
0.0101689
0.00938746
0.008601
0.00780833
0.0070109
0.00620717
0.00539804
0.00458381
0.00376236
0.00293706
0.00210468
0.00126628
0.000423206
-0.0872609
-0.0950523
-0.0780513
-0.0921412
-0.111608
-0.0987794
-0.0606251
-0.0196754
0.0112651
0.0310104
0.0419363
0.0474413
0.050345
0.0519242
0.0526892
0.0529693
0.0529617
0.0527759
0.0524775
0.0521075
0.0516919
0.0512464
0.050781
0.0503018
0.0498128
0.0493163
0.0488139
0.0483064
0.0477945
0.0472784
0.0467583
0.0462344
0.0457067
0.0451752
0.04464
0.0441009
0.0435581
0.0430114
0.0424609
0.0419066
0.0413483
0.0407861
0.04022
0.0396499
0.0390758
0.0384976
0.0379154
0.0373291
0.0367387
0.0361441
0.0355454
0.0349424
0.0343352
0.0337238
0.0331081
0.032488
0.0318636
0.0312347
0.0306015
0.0299638
0.0293217
0.028675
0.0280238
0.027368
0.0267075
0.0260425
0.0253728
0.0246983
0.0240192
0.0233352
0.0226465
0.0219529
0.0212544
0.0205511
0.0198427
0.0191294
0.0184111
0.0176878
0.0169594
0.0162258
0.0154871
0.0147432
0.0139941
0.0132397
0.0124801
0.0117151
0.0109446
0.0101689
0.00938746
0.008601
0.00780833
0.0070109
0.00620717
0.00539804
0.00458381
0.00376236
0.00293705
0.00210468
0.00126628
0.000423205
-0.0845348
-0.0933687
-0.0774232
-0.0869691
-0.103616
-0.0928999
-0.0594676
-0.021584
0.00889667
0.0292315
0.0407846
0.0467305
0.0499034
0.0516454
0.0525107
0.0528553
0.0528888
0.0527295
0.0524481
0.0520891
0.0516804
0.0512393
0.0507766
0.0502992
0.0498112
0.0493154
0.0488133
0.0483061
0.0477943
0.0472783
0.0467583
0.0462344
0.0457067
0.0451752
0.04464
0.0441009
0.0435581
0.0430114
0.0424609
0.0419066
0.0413483
0.0407861
0.04022
0.0396499
0.0390758
0.0384976
0.0379154
0.0373291
0.0367387
0.0361441
0.0355454
0.0349424
0.0343352
0.0337238
0.0331081
0.032488
0.0318636
0.0312347
0.0306015
0.0299638
0.0293217
0.028675
0.0280238
0.027368
0.0267075
0.0260425
0.0253728
0.0246983
0.0240192
0.0233352
0.0226465
0.0219529
0.0212544
0.0205511
0.0198427
0.0191294
0.0184111
0.0176878
0.0169594
0.0162258
0.0154871
0.0147432
0.0139941
0.0132397
0.0124801
0.0117151
0.0109446
0.0101689
0.00938746
0.008601
0.00780833
0.0070109
0.00620717
0.00539804
0.00458381
0.00376236
0.00293705
0.00210468
0.00126628
0.000423203
-0.0812379
-0.0908826
-0.0771157
-0.0824191
-0.0957101
-0.0871334
-0.058848
-0.0240542
0.00636953
0.0274924
0.0396633
0.0460406
0.0494846
0.0513869
0.052347
0.0527514
0.0528225
0.0526872
0.0524213
0.0520722
0.0516699
0.0512328
0.0507727
0.0502968
0.0498097
0.0493145
0.0488128
0.0483058
0.0477941
0.0472782
0.0467582
0.0462343
0.0457067
0.0451752
0.0446399
0.0441009
0.0435581
0.0430114
0.0424609
0.0419066
0.0413483
0.0407861
0.04022
0.0396499
0.0390758
0.0384976
0.0379154
0.0373291
0.0367387
0.0361441
0.0355454
0.0349424
0.0343352
0.0337238
0.0331081
0.032488
0.0318636
0.0312347
0.0306015
0.0299638
0.0293217
0.028675
0.0280238
0.027368
0.0267075
0.0260425
0.0253728
0.0246983
0.0240192
0.0233352
0.0226465
0.0219529
0.0212544
0.0205511
0.0198427
0.0191294
0.0184111
0.0176878
0.0169594
0.0162258
0.0154871
0.0147432
0.0139941
0.0132397
0.0124801
0.0117151
0.0109446
0.0101689
0.00938746
0.008601
0.00780833
0.0070109
0.00620717
0.00539804
0.00458381
0.00376236
0.00293705
0.00210469
0.00126628
0.0004232
-0.0790002
-0.087858
-0.0769319
-0.0783741
-0.0879799
-0.0816344
-0.0587293
-0.0270921
0.00355267
0.0257462
0.0386196
0.0454178
0.0491085
0.0511546
0.0521994
0.0526582
0.0527631
0.0526493
0.0523972
0.0520571
0.0516604
0.051227
0.0507691
0.0502946
0.0498085
0.0493137
0.0488124
0.0483055
0.0477939
0.0472781
0.0467582
0.0462343
0.0457067
0.0451752
0.0446399
0.0441009
0.0435581
0.0430114
0.0424609
0.0419066
0.0413483
0.0407861
0.04022
0.0396499
0.0390758
0.0384976
0.0379154
0.0373291
0.0367387
0.0361441
0.0355454
0.0349424
0.0343352
0.0337238
0.0331081
0.032488
0.0318636
0.0312347
0.0306015
0.0299638
0.0293217
0.028675
0.0280238
0.027368
0.0267075
0.0260425
0.0253728
0.0246983
0.0240192
0.0233352
0.0226465
0.0219529
0.0212544
0.0205511
0.0198427
0.0191294
0.0184111
0.0176878
0.0169594
0.0162258
0.0154871
0.0147432
0.0139941
0.0132397
0.0124801
0.0117151
0.0109446
0.0101689
0.00938746
0.008601
0.00780833
0.0070109
0.00620717
0.00539804
0.00458381
0.00376236
0.00293705
0.00210469
0.00126628
0.000423198
-0.0771926
-0.0845495
-0.0766878
-0.0748307
-0.0805601
-0.0764959
-0.0591546
-0.0306047
0.000549768
0.0239772
0.0376118
0.0448546
0.0487823
0.0509558
0.0520719
0.0525775
0.0527114
0.0526162
0.0523762
0.0520438
0.0516522
0.0512219
0.050766
0.0502927
0.0498073
0.0493131
0.048812
0.0483053
0.0477938
0.047278
0.0467581
0.0462343
0.0457066
0.0451752
0.0446399
0.0441009
0.0435581
0.0430114
0.0424609
0.0419066
0.0413483
0.0407861
0.04022
0.0396499
0.0390758
0.0384976
0.0379154
0.0373291
0.0367387
0.0361441
0.0355454
0.0349424
0.0343352
0.0337238
0.0331081
0.032488
0.0318636
0.0312347
0.0306015
0.0299638
0.0293217
0.028675
0.0280238
0.027368
0.0267075
0.0260425
0.0253728
0.0246983
0.0240192
0.0233352
0.0226465
0.0219529
0.0212544
0.0205511
0.0198427
0.0191294
0.0184111
0.0176878
0.0169594
0.0162258
0.0154871
0.0147432
0.0139941
0.0132397
0.0124801
0.0117151
0.0109446
0.0101689
0.00938746
0.008601
0.00780834
0.0070109
0.00620717
0.00539804
0.00458381
0.00376236
0.00293705
0.0021047
0.00126628
0.000423194
-0.0757828
-0.0812504
-0.0763225
-0.0717437
-0.073526
-0.0717493
-0.0600628
-0.0345482
-0.00255146
0.0222735
0.0366861
0.0443547
0.0484997
0.0507609
0.0519629
0.052509
0.0526675
0.0525881
0.0523583
0.0520325
0.0516451
0.0512175
0.0507633
0.0502911
0.0498064
0.0493125
0.0488116
0.0483051
0.0477937
0.0472779
0.0467581
0.0462343
0.0457066
0.0451752
0.0446399
0.0441009
0.0435581
0.0430114
0.0424609
0.0419066
0.0413483
0.0407861
0.04022
0.0396499
0.0390758
0.0384976
0.0379154
0.0373291
0.0367387
0.0361441
0.0355454
0.0349424
0.0343352
0.0337238
0.0331081
0.032488
0.0318636
0.0312347
0.0306015
0.0299638
0.0293217
0.028675
0.0280238
0.027368
0.0267075
0.0260425
0.0253728
0.0246983
0.0240192
0.0233352
0.0226465
0.0219529
0.0212544
0.0205511
0.0198427
0.0191294
0.0184111
0.0176878
0.0169594
0.0162258
0.0154871
0.0147432
0.0139941
0.0132397
0.0124801
0.0117151
0.0109446
0.0101689
0.00938746
0.008601
0.00780834
0.0070109
0.00620717
0.00539804
0.00458381
0.00376236
0.00293705
0.0021047
0.00126628
0.000423191
-0.074677
-0.078209
-0.07584
-0.0689746
-0.0668861
-0.0673765
-0.0613493
-0.0387004
-0.00562118
0.0207114
0.0358893
0.0439461
0.0482767
0.0506276
0.0518764
0.0524539
0.0526321
0.0525651
0.0523436
0.0520233
0.0516394
0.051214
0.0507612
0.0502898
0.0498056
0.0493121
0.0488114
0.048305
0.0477936
0.0472779
0.0467581
0.0462343
0.0457066
0.0451752
0.0446399
0.0441009
0.0435581
0.0430114
0.0424609
0.0419066
0.0413483
0.0407861
0.04022
0.0396499
0.0390758
0.0384976
0.0379154
0.0373291
0.0367387
0.0361441
0.0355454
0.0349424
0.0343352
0.0337238
0.0331081
0.032488
0.0318636
0.0312347
0.0306015
0.0299638
0.0293217
0.028675
0.0280238
0.027368
0.0267075
0.0260425
0.0253728
0.0246983
0.0240192
0.0233352
0.0226465
0.0219529
0.0212544
0.0205511
0.0198427
0.0191294
0.0184111
0.0176878
0.0169594
0.0162258
0.0154871
0.0147432
0.0139941
0.0132397
0.0124801
0.0117151
0.0109446
0.0101689
0.00938746
0.008601
0.00780834
0.0070109
0.00620717
0.00539803
0.00458382
0.00376236
0.00293704
0.00210471
0.00126628
0.000423186
-0.0737447
-0.0756181
-0.0752449
-0.0664012
-0.0607726
-0.0632213
-0.0627413
-0.0427039
-0.00842138
0.0193677
0.035248
0.0436356
0.0481128
0.0505295
0.0518122
0.0524128
0.0526052
0.0525476
0.0523323
0.0520162
0.0516349
0.0512112
0.0507595
0.0502889
0.049805
0.0493117
0.0488112
0.0483049
0.0477936
0.0472779
0.046758
0.0462343
0.0457066
0.0451752
0.0446399
0.0441009
0.0435581
0.0430114
0.0424609
0.0419066
0.0413483
0.0407861
0.04022
0.0396499
0.0390758
0.0384976
0.0379154
0.0373291
0.0367387
0.0361441
0.0355454
0.0349424
0.0343352
0.0337238
0.0331081
0.032488
0.0318636
0.0312347
0.0306015
0.0299638
0.0293217
0.028675
0.0280238
0.027368
0.0267075
0.0260425
0.0253728
0.0246983
0.0240192
0.0233352
0.0226465
0.0219529
0.0212544
0.0205511
0.0198427
0.0191294
0.0184111
0.0176878
0.0169594
0.0162258
0.0154871
0.0147432
0.0139941
0.0132397
0.0124801
0.0117151
0.0109446
0.0101689
0.00938746
0.00860099
0.00780834
0.00701089
0.00620717
0.00539803
0.00458382
0.00376236
0.00293704
0.00210471
0.00126628
0.000423181
-0.0728534
-0.0735621
-0.0745929
-0.0639335
-0.0553965
-0.0592815
-0.0637919
-0.0459641
-0.010617
0.0183047
0.0347754
0.0434286
0.0480102
0.0504679
0.0517707
0.0523857
0.0525871
0.0525355
0.0523245
0.0520112
0.0516318
0.0512094
0.0507584
0.0502882
0.0498047
0.0493115
0.0488111
0.0483048
0.0477936
0.0472779
0.046758
0.0462343
0.0457066
0.0451752
0.0446399
0.0441009
0.0435581
0.0430114
0.0424609
0.0419066
0.0413483
0.0407861
0.04022
0.0396499
0.0390758
0.0384976
0.0379154
0.0373291
0.0367387
0.0361441
0.0355454
0.0349424
0.0343352
0.0337238
0.0331081
0.032488
0.0318636
0.0312347
0.0306015
0.0299638
0.0293217
0.028675
0.0280238
0.027368
0.0267075
0.0260425
0.0253728
0.0246983
0.0240192
0.0233352
0.0226465
0.0219529
0.0212544
0.0205511
0.0198427
0.0191294
0.0184111
0.0176878
0.0169594
0.0162258
0.0154871
0.0147432
0.0139941
0.0132397
0.0124801
0.0117151
0.0109446
0.0101689
0.00938746
0.00860099
0.00780834
0.00701089
0.00620717
0.00539803
0.00458382
0.00376236
0.00293704
0.00210472
0.00126628
0.000423176
-0.0719907
-0.0719998
-0.0739549
-0.0616113
-0.0510375
-0.0558541
-0.0640674
-0.0478749
-0.0119761
0.017574
0.0344708
0.0433155
0.0479608
0.0504381
0.0517491
0.0523709
0.0525769
0.0525285
0.0523199
0.0520083
0.05163
0.0512083
0.0507578
0.0502879
0.0498045
0.0493114
0.0488111
0.0483048
0.0477935
0.0472779
0.046758
0.0462343
0.0457066
0.0451752
0.0446399
0.0441009
0.0435581
0.0430114
0.0424609
0.0419066
0.0413483
0.0407861
0.04022
0.0396499
0.0390758
0.0384976
0.0379154
0.0373291
0.0367387
0.0361441
0.0355454
0.0349424
0.0343352
0.0337238
0.0331081
0.032488
0.0318636
0.0312347
0.0306015
0.0299638
0.0293217
0.028675
0.0280238
0.027368
0.0267076
0.0260425
0.0253728
0.0246983
0.0240192
0.0233352
0.0226465
0.0219529
0.0212544
0.0205511
0.0198427
0.0191294
0.0184111
0.0176878
0.0169594
0.0162258
0.0154871
0.0147432
0.0139941
0.0132397
0.0124801
0.0117151
0.0109446
0.0101689
0.00938746
0.00860099
0.00780834
0.00701089
0.00620717
0.00539803
0.00458382
0.00376236
0.00293703
0.00210473
0.00126628
0.00042317
-0.0713015
-0.0708811
-0.0733606
-0.0596234
-0.0481302
-0.053468
-0.0635604
-0.0480873
-0.0124609
0.0171639
0.0342921
0.0432602
0.0479421
0.0504274
0.0517402
0.0523646
0.0525723
0.0525252
0.0523177
0.0520069
0.0516292
0.0512078
0.0507575
0.0502877
0.0498044
0.0493114
0.0488111
0.0483048
0.0477936
0.0472779
0.046758
0.0462343
0.0457066
0.0451752
0.0446399
0.0441009
0.0435581
0.0430114
0.0424609
0.0419066
0.0413483
0.0407861
0.04022
0.0396499
0.0390758
0.0384976
0.0379154
0.0373291
0.0367387
0.0361441
0.0355454
0.0349424
0.0343352
0.0337238
0.0331081
0.032488
0.0318636
0.0312347
0.0306015
0.0299638
0.0293217
0.028675
0.0280238
0.027368
0.0267076
0.0260425
0.0253728
0.0246983
0.0240192
0.0233352
0.0226465
0.0219529
0.0212544
0.0205511
0.0198427
0.0191294
0.0184111
0.0176878
0.0169594
0.0162258
0.0154871
0.0147432
0.0139941
0.0132397
0.0124801
0.0117151
0.0109446
0.0101689
0.00938746
0.00860099
0.00780834
0.00701089
0.00620717
0.00539803
0.00458382
0.00376236
0.00293703
0.00210474
0.00126628
0.000423164
-0.0709913
-0.0702895
-0.0727906
-0.0587285
-0.0469986
-0.052376
-0.062722
-0.0473272
-0.0123219
0.0169771
0.0341696
0.0432169
0.0479269
0.0504202
0.0517351
0.0523611
0.05257
0.0525237
0.0523167
0.0520063
0.0516289
0.0512077
0.0507575
0.0502877
0.0498044
0.0493114
0.0488111
0.0483048
0.0477936
0.0472779
0.046758
0.0462343
0.0457066
0.0451752
0.0446399
0.0441009
0.0435581
0.0430114
0.0424609
0.0419066
0.0413483
0.0407861
0.04022
0.0396499
0.0390758
0.0384976
0.0379154
0.0373291
0.0367387
0.0361441
0.0355454
0.0349424
0.0343352
0.0337238
0.0331081
0.032488
0.0318636
0.0312347
0.0306015
0.0299638
0.0293217
0.028675
0.0280238
0.027368
0.0267076
0.0260425
0.0253728
0.0246983
0.0240192
0.0233352
0.0226465
0.0219529
0.0212544
0.0205511
0.0198427
0.0191294
0.0184111
0.0176878
0.0169594
0.0162258
0.0154871
0.0147432
0.0139941
0.0132397
0.0124801
0.0117151
0.0109446
0.0101689
0.00938746
0.00860099
0.00780834
0.00701089
0.00620717
0.00539803
0.00458382
0.00376236
0.00293703
0.00210474
0.00126628
0.000423159
-0.0709898
-0.0703067
-0.0724414
-0.0588295
-0.0478098
-0.0524455
-0.0621464
-0.0464511
-0.0120783
0.016947
0.0341061
0.0431931
0.0479203
0.0504191
0.051735
0.0523614
0.0525704
0.052524
0.052317
0.0520065
0.0516291
0.0512078
0.0507576
0.0502878
0.0498045
0.0493115
0.0488111
0.0483048
0.0477936
0.0472779
0.0467581
0.0462343
0.0457066
0.0451752
0.0446399
0.0441009
0.0435581
0.0430114
0.0424609
0.0419066
0.0413483
0.0407861
0.04022
0.0396499
0.0390758
0.0384976
0.0379154
0.0373291
0.0367387
0.0361441
0.0355454
0.0349424
0.0343352
0.0337238
0.0331081
0.032488
0.0318636
0.0312347
0.0306015
0.0299638
0.0293217
0.028675
0.0280238
0.027368
0.0267076
0.0260425
0.0253728
0.0246983
0.0240192
0.0233352
0.0226465
0.0219529
0.0212544
0.0205511
0.0198427
0.0191294
0.0184111
0.0176878
0.0169594
0.0162258
0.0154871
0.0147432
0.0139941
0.0132397
0.0124801
0.0117151
0.0109446
0.0101689
0.00938747
0.00860099
0.00780834
0.00701089
0.00620717
0.00539804
0.00458381
0.00376236
0.00293703
0.00210473
0.00126629
0.000423158
-0.0832606
-0.0959106
-0.123138
-0.147334
-0.14131
-0.0879044
-0.0244591
0.0245898
0.0518733
0.0628433
0.0653273
0.0640769
0.0617488
0.0594892
0.0576002
0.0561107
0.0549463
0.0540176
0.0532489
0.052584
0.0519844
0.051425
0.0508893
0.0503671
0.0498518
0.0493395
0.0488275
0.0483144
0.047799
0.047281
0.0467598
0.0462352
0.0457071
0.0451755
0.0446401
0.044101
0.0435581
0.0430114
0.0424609
0.0419066
0.0413483
0.0407861
0.04022
0.0396499
0.0390757
0.0384976
0.0379154
0.0373291
0.0367387
0.0361441
0.0355454
0.0349424
0.0343353
0.0337238
0.0331081
0.032488
0.0318636
0.0312347
0.0306015
0.0299638
0.0293217
0.028675
0.0280238
0.027368
0.0267075
0.0260425
0.0253728
0.0246983
0.0240192
0.0233352
0.0226465
0.0219529
0.0212544
0.0205511
0.0198427
0.0191295
0.0184112
0.0176878
0.0169594
0.0162258
0.0154871
0.0147432
0.0139941
0.0132397
0.0124801
0.0117151
0.0109446
0.0101689
0.00938746
0.00860099
0.00780835
0.0070109
0.00620717
0.00539804
0.00458381
0.00376236
0.00293703
0.00210474
0.00126629
0.000423159
-0.0831992
-0.095338
-0.1242
-0.149487
-0.143812
-0.0897017
-0.0254306
0.0243065
0.0516769
0.0627976
0.0652952
0.0640526
0.0617458
0.0594809
0.0575966
0.0561093
0.0549458
0.0540176
0.053249
0.0525841
0.0519846
0.0514251
0.0508894
0.0503672
0.0498519
0.0493395
0.0488275
0.0483144
0.0477991
0.047281
0.0467598
0.0462352
0.0457071
0.0451755
0.0446401
0.044101
0.0435581
0.0430114
0.0424609
0.0419066
0.0413483
0.0407861
0.04022
0.0396499
0.0390757
0.0384976
0.0379154
0.0373291
0.0367387
0.0361441
0.0355454
0.0349424
0.0343353
0.0337238
0.0331081
0.032488
0.0318636
0.0312347
0.0306015
0.0299638
0.0293217
0.028675
0.0280238
0.027368
0.0267075
0.0260425
0.0253728
0.0246983
0.0240192
0.0233352
0.0226465
0.0219529
0.0212544
0.0205511
0.0198427
0.0191295
0.0184112
0.0176878
0.0169594
0.0162258
0.0154871
0.0147432
0.0139941
0.0132397
0.0124801
0.0117151
0.0109446
0.0101689
0.00938746
0.00860099
0.00780835
0.0070109
0.00620717
0.00539803
0.00458381
0.00376236
0.00293703
0.00210474
0.00126629
0.00042316
-0.0822098
-0.0947789
-0.127329
-0.15419
-0.148591
-0.0933923
-0.0272764
0.0235876
0.051372
0.0626612
0.0651901
0.0639659
0.0616813
0.0594399
0.0575719
0.0560953
0.0549382
0.0540135
0.0532469
0.052583
0.051984
0.0514248
0.0508893
0.0503671
0.0498519
0.0493395
0.0488275
0.0483144
0.0477991
0.047281
0.0467598
0.0462352
0.0457071
0.0451755
0.0446401
0.044101
0.0435581
0.0430114
0.0424609
0.0419066
0.0413483
0.0407861
0.04022
0.0396499
0.0390757
0.0384976
0.0379154
0.0373291
0.0367387
0.0361441
0.0355454
0.0349424
0.0343353
0.0337238
0.0331081
0.032488
0.0318636
0.0312347
0.0306015
0.0299638
0.0293217
0.028675
0.0280238
0.027368
0.0267075
0.0260425
0.0253728
0.0246983
0.0240192
0.0233352
0.0226465
0.0219529
0.0212544
0.0205511
0.0198427
0.0191295
0.0184112
0.0176878
0.0169594
0.0162258
0.0154871
0.0147432
0.0139941
0.0132397
0.0124801
0.0117151
0.0109446
0.0101689
0.00938746
0.00860099
0.00780835
0.0070109
0.00620717
0.00539803
0.00458382
0.00376235
0.00293703
0.00210474
0.00126628
0.000423164
-0.080096
-0.0941883
-0.131871
-0.160986
-0.155351
-0.0989938
-0.0300931
0.0223268
0.0508558
0.0623736
0.0649746
0.0637965
0.0615591
0.0593604
0.0575234
0.0560674
0.0549226
0.0540051
0.0532424
0.0525806
0.0519828
0.0514242
0.050889
0.050367
0.0498518
0.0493395
0.0488275
0.0483144
0.0477991
0.047281
0.0467598
0.0462352
0.0457071
0.0451755
0.0446401
0.044101
0.0435581
0.0430114
0.0424609
0.0419066
0.0413483
0.0407861
0.04022
0.0396499
0.0390758
0.0384976
0.0379154
0.0373291
0.0367387
0.0361441
0.0355454
0.0349424
0.0343353
0.0337238
0.0331081
0.032488
0.0318636
0.0312347
0.0306015
0.0299638
0.0293217
0.028675
0.0280238
0.027368
0.0267075
0.0260425
0.0253728
0.0246983
0.0240192
0.0233352
0.0226465
0.0219529
0.0212544
0.0205511
0.0198427
0.0191295
0.0184112
0.0176878
0.0169594
0.0162258
0.0154871
0.0147432
0.0139941
0.0132397
0.0124801
0.0117151
0.0109446
0.0101689
0.00938746
0.008601
0.00780835
0.0070109
0.00620717
0.00539803
0.00458382
0.00376235
0.00293704
0.00210473
0.00126628
0.00042317
-0.0785872
-0.0937354
-0.137018
-0.16936
-0.163974
-0.106434
-0.0339472
0.020543
0.0501028
0.0619365
0.0646532
0.0635517
0.0613837
0.0592443
0.0574506
0.0560238
0.0548973
0.0539907
0.0532343
0.0525762
0.0519803
0.0514229
0.0508882
0.0503666
0.0498516
0.0493394
0.0488275
0.0483144
0.0477991
0.047281
0.0467598
0.0462352
0.0457071
0.0451755
0.0446401
0.044101
0.0435581
0.0430114
0.0424609
0.0419066
0.0413483
0.0407861
0.04022
0.0396499
0.0390758
0.0384976
0.0379154
0.0373291
0.0367387
0.0361441
0.0355454
0.0349424
0.0343353
0.0337238
0.0331081
0.032488
0.0318636
0.0312347
0.0306015
0.0299638
0.0293217
0.028675
0.0280238
0.027368
0.0267075
0.0260425
0.0253728
0.0246983
0.0240192
0.0233352
0.0226465
0.0219529
0.0212544
0.0205511
0.0198427
0.0191295
0.0184112
0.0176878
0.0169594
0.0162258
0.0154871