/*--------------------------------*- C++ -*----------------------------------*\
| =========                 |                                                 |
| \\      /  F ield         | OpenFOAM: The Open Source CFD Toolbox           |
|  \\    /   O peration     | Version:  2.4.0                                 |
|   \\  /    A nd           | Web:      www.OpenFOAM.org                      |
|    \\/     M anipulation  |                                                 |
\*---------------------------------------------------------------------------*/
FoamFile
{
    version     2.0;
    format      ascii;
    class       volScalarField;
    location    "1.58";
    object      pMean;
}
// * * * * * * * * * * * * * * * * * * * * * * * * * * * * * * * * * * * * * //

dimensions      [0 2 -2 0 0 0 0];

internalField   nonuniform List<scalar> 
8800
(
87.1805
74.7296
67.3264
63.7601
61.8701
60.4311
59.2227
58.066
57.0359
55.9948
55.044
54.0459
53.1416
52.1863
51.3474
50.4608
49.703
48.9041
48.2131
47.4202
84.0692
74.3752
67.4947
63.8739
61.9301
60.4564
59.2303
58.0663
57.0338
55.9924
55.0411
54.0437
53.139
52.1846
51.3455
50.4588
49.7046
48.8985
48.2148
47.378
82.104
74.4515
68.096
64.2496
62.0976
60.5358
59.2769
58.0991
57.0581
56.0094
55.0513
54.0484
53.1404
52.1827
51.3443
50.4522
49.7084
48.8883
48.2686
47.4155
80.5688
74.5137
68.6816
64.6731
62.2813
60.624
59.3395
58.1559
57.1065
56.0484
55.0786
54.066
53.1512
52.1868
51.3468
50.4467
49.7102
48.8893
48.3559
47.5964
79.3203
74.4876
69.1559
65.0786
62.4496
60.692
59.3886
58.214
57.162
56.1003
55.1134
54.0934
53.1635
52.1974
51.345
50.4479
49.6997
48.9047
48.3493
47.8397
78.3355
74.3907
69.5195
65.4245
62.5995
60.7351
59.4166
58.259
57.2116
56.1501
55.1477
54.1205
53.1739
52.2067
51.3395
50.4472
49.6826
48.9172
48.3926
48.1876
77.579
74.274
69.7861
65.7039
62.7341
60.761
59.4249
58.2905
57.2504
56.1918
55.1757
54.1435
53.18
52.2131
51.3308
50.4444
49.6625
48.9228
48.4669
48.5524
77.0255
74.1732
69.9668
65.9161
62.8516
60.7801
59.4176
58.3144
57.2772
56.2258
55.1946
54.1641
53.1808
52.221
51.3186
50.4474
49.6409
48.9256
48.433
48.8704
76.665
74.103
70.0807
66.0606
62.936
60.7935
59.4086
58.3304
57.2974
56.2507
55.2092
54.1793
53.1841
52.2279
51.3149
50.4513
49.6325
48.9429
48.5012
49.1657
76.4853
74.0718
70.139
66.1379
62.9811
60.8035
59.4043
58.3415
57.3106
56.2677
55.2193
54.191
53.1894
52.2366
51.3185
50.4603
49.6415
48.9679
48.5653
49.2849
76.4781
74.0831
70.1402
66.1432
62.9807
60.8074
59.402
58.3458
57.3106
56.2727
55.22
54.1971
53.1917
52.2452
51.3237
50.4729
49.6523
48.9929
48.6034
49.3763
76.6465
74.1324
70.0842
66.072
62.9358
60.8024
59.4038
58.3402
57.2987
56.263
55.2124
54.1955
53.1926
52.2512
51.332
50.4858
49.6684
49.0111
48.6268
49.4059
76.997
74.2153
69.9691
65.9297
62.8495
60.7934
59.409
58.3293
57.2779
56.2444
55.1985
54.1901
53.193
52.259
51.3453
50.5047
49.692
49.0327
48.6311
49.3727
77.5427
74.3219
69.787
65.7174
62.7265
60.776
59.4122
58.3081
57.2474
56.2147
55.177
54.1776
53.1911
52.2652
51.3607
50.5275
49.7232
49.0608
48.6198
49.26
78.296
74.4385
69.5219
65.4355
62.5877
60.7471
59.4047
58.2748
57.2072
56.1738
55.1486
54.1575
53.1864
52.2671
51.3769
50.5513
49.7635
49.0989
48.6193
49.0624
79.2776
74.5366
69.1593
65.0888
62.435
60.7021
59.3784
58.2295
57.1581
56.1247
55.1159
54.1324
53.18
52.265
51.393
50.5733
49.8109
49.1485
48.6486
48.8006
80.524
74.5639
68.687
64.6856
62.2655
60.6343
59.3308
58.173
57.1032
56.0746
55.0831
54.1078
53.1728
52.2606
51.4067
50.5899
49.8574
49.1963
48.708
48.5256
82.0583
74.5007
68.1044
64.2642
62.082
60.5461
59.2691
58.1168
57.0561
56.0361
55.0587
54.091
53.1678
52.2586
51.4168
50.6026
49.8907
49.233
48.767
48.383
84.0221
74.4219
67.5051
63.8903
61.9151
60.4664
59.2227
58.0844
57.0326
56.0194
55.0497
54.0871
53.1684
52.2619
51.4235
50.6124
49.9063
49.2545
48.7639
48.3064
87.1323
74.7743
67.3365
63.7769
61.8559
60.4411
59.2153
58.0843
57.0347
56.0223
55.0525
54.0898
53.1711
52.2643
51.4266
50.6158
49.9099
49.2602
48.7653
48.4263
47.4823
47.3974
47.1755
46.935
46.7385
46.5913
46.4909
46.4238
46.3791
46.35
46.3316
46.314
46.2947
46.269
46.2359
46.1924
46.1399
46.0743
45.9996
45.9134
45.8222
45.7308
45.6456
45.5673
45.5011
45.448
45.4086
45.3756
45.3438
45.3042
45.2546
45.1948
45.1312
45.0689
45.0116
44.9559
44.8995
44.8319
44.7526
44.6568
44.5529
44.4405
44.3358
44.2434
44.1758
44.1293
44.1073
44.0999
44.105
44.1111
44.1125
44.0957
44.0592
43.9923
43.9021
43.7804
43.6405
43.478
43.3062
43.116
42.9162
42.6998
42.4797
42.2559
42.0475
41.8639
41.7218
41.6304
41.5974
41.612
41.6734
41.763
41.8793
42.0006
42.1305
42.2462
42.3555
42.4351
42.4952
42.5191
42.5202
42.4902
42.4469
42.3801
42.3149
42.2441
42.1871
42.1437
42.1203
42.1197
42.1444
42.1952
42.2722
42.367
42.4799
42.601
42.7363
42.8742
43.021
43.1629
43.3049
43.4316
43.5527
43.643
43.7285
43.7858
43.8421
43.8792
43.9237
43.9503
43.9801
43.9921
44.0039
43.9968
43.9913
43.9756
43.9694
43.9594
43.9638
43.9666
43.9843
43.9993
44.032
44.0579
44.1057
44.138
44.1998
44.2444
44.324
44.4003
44.5105
44.6236
44.7595
44.8951
45.0452
45.1915
45.3488
45.4957
45.6482
45.7878
45.9353
46.0765
46.2282
46.377
46.5375
46.6942
46.8635
47.0343
47.2135
47.3935
47.5774
47.7586
47.9443
48.1202
48.2971
48.468
48.6481
48.8144
48.998
49.17
49.3649
49.5313
49.7265
49.882
50.0626
50.196
50.3617
50.4721
50.6159
50.6942
50.8353
50.8843
51.0356
51.0797
51.2565
51.3079
51.5231
51.5853
51.8395
51.9371
52.2246
52.3695
52.7014
52.9141
53.2872
53.5708
53.979
54.2995
54.7358
55.0544
55.4793
55.7247
56.0187
55.9987
55.8935
55.1424
53.926
50.6673
46.4893
25.9927
47.257
47.2278
47.1556
46.9967
46.8101
46.6444
46.5282
46.4575
46.4226
46.4056
46.3982
46.3879
46.3732
46.3489
46.3171
46.2739
46.2222
46.159
46.0886
46.0091
45.9262
45.8427
45.7657
45.6948
45.6353
45.585
45.5462
45.5127
45.4828
45.4482
45.4077
45.3581
45.3046
45.248
45.1935
45.1365
45.078
45.0095
44.9328
44.8419
44.7443
44.6404
44.5423
44.4536
44.3844
44.333
44.3028
44.2862
44.2812
44.276
44.2684
44.2449
44.2065
44.1412
44.056
43.9417
43.8093
43.6539
43.4873
43.3039
43.1116
42.9065
42.6981
42.4894
42.2937
42.1203
41.9832
41.8883
41.8449
41.8447
41.8884
41.96
42.0583
42.1648
42.2781
42.3819
42.4759
42.5461
42.5947
42.6123
42.6082
42.5769
42.5331
42.4737
42.413
42.3525
42.3002
42.2632
42.2417
42.2409
42.2632
42.3105
42.382
42.4702
42.5759
42.6905
42.8174
42.947
43.0835
43.2162
43.3485
43.4678
43.5779
43.6612
43.7376
43.7917
43.841
43.8734
43.9062
43.9247
43.9406
43.9422
43.9386
43.9203
43.8978
43.8718
43.8494
43.8294
43.8179
43.8058
43.8083
43.8081
43.8284
43.8439
43.8831
43.9113
43.9649
44.0078
44.0768
44.1448
44.2408
44.3405
44.463
44.5851
44.7225
44.8526
44.9948
45.1253
45.2611
45.3838
45.5141
45.6374
45.7692
45.897
46.0394
46.1722
46.3256
46.4741
46.6396
46.8012
46.9732
47.1397
47.32
47.4827
47.6603
47.8212
48.0077
48.167
48.3594
48.5287
48.7283
48.889
49.0865
49.233
49.4121
49.5364
49.6963
49.788
49.9252
49.9767
50.1085
50.1291
50.2682
50.2817
50.4499
50.4705
50.6733
50.7123
50.9471
51.0261
51.2859
51.4119
51.7013
51.8881
52.2151
52.4405
52.8054
53.0274
53.3993
53.5739
53.8715
53.8885
53.9665
53.5458
53.0647
51.4524
49.7301
43.9736
38.0908
19.2095
47.2319
47.2417
47.2628
47.1572
46.9528
46.7299
46.5611
46.4638
46.4318
46.4328
46.4467
46.4531
46.4491
46.4287
46.3972
46.3518
46.2986
46.2351
46.1669
46.0921
46.0169
45.9414
45.8728
45.8095
45.7566
45.7105
45.6743
45.642
45.6143
45.5832
45.5496
45.5079
45.4628
45.4116
45.3602
45.3033
45.2442
45.1762
45.1025
45.0181
44.929
44.8353
44.7457
44.6633
44.5956
44.5419
44.5054
44.4799
44.4648
44.4491
44.4318
44.4007
44.3575
44.2917
44.208
44.0995
43.9728
43.825
43.6641
43.4888
43.3049
43.1126
42.9186
42.7269
42.5475
42.3875
42.259
42.1655
42.115
42.1033
42.1309
42.1866
42.2673
42.359
42.457
42.5479
42.6275
42.6866
42.7238
42.7353
42.7255
42.6956
42.6519
42.5995
42.5428
42.4894
42.4421
42.4082
42.3867
42.3833
42.401
42.4424
42.5051
42.5861
42.6834
42.7926
42.9111
43.0343
43.1618
43.2865
43.409
43.5217
43.6221
43.7017
43.7727
43.8262
43.871
43.9013
43.9264
43.9402
43.946
43.9414
43.9252
43.8983
43.8634
43.8285
43.7952
43.7636
43.7403
43.7143
43.7068
43.6935
43.7059
43.7139
43.7479
43.7764
43.8243
43.8683
43.9293
43.9933
44.0771
44.1654
44.2746
44.3838
44.5073
44.622
44.7465
44.8609
44.9787
45.084
45.1972
45.3039
45.4197
45.5322
45.6596
45.7766
45.9175
46.0479
46.201
46.3401
46.4968
46.6432
46.8125
46.958
47.1351
47.2866
47.4753
47.6336
47.8347
48.0088
48.2114
48.371
48.5703
48.7069
48.8852
48.9943
49.1486
49.2138
49.3452
49.3722
49.4939
49.4894
49.6243
49.6083
49.7739
49.7686
49.9504
49.9746
50.1716
50.2382
50.4499
50.5554
50.8006
50.9373
51.2289
51.371
51.689
51.7979
52.0843
52.0904
52.2691
51.9963
51.9183
50.9511
50.3548
47.584
45.6949
38.5718
31.47
18.628
47.1277
47.1488
47.2945
47.2247
46.9972
46.7327
46.534
46.4316
46.4167
46.4469
46.4928
46.5259
46.5396
46.5273
46.4963
46.4473
46.3894
46.3224
46.2538
46.1816
46.1123
46.0443
45.984
45.9287
45.883
45.8424
45.8103
45.7805
45.7551
45.7271
45.698
45.662
45.6225
45.5758
45.5266
45.4711
45.4128
45.347
45.2775
45.2006
45.1211
45.0379
44.9584
44.883
44.8185
44.7634
44.7217
44.6876
44.6619
44.6354
44.6079
44.5696
44.5211
44.4547
44.3721
44.2688
44.1485
44.0098
43.858
43.694
43.5227
43.3456
43.1686
42.9952
42.8335
42.6885
42.5697
42.4799
42.4252
42.4036
42.4168
42.4564
42.5197
42.5951
42.6768
42.7528
42.8183
42.8661
42.8934
42.8998
42.8865
42.8577
42.8153
42.7675
42.7156
42.667
42.6233
42.5887
42.5638
42.5544
42.5647
42.5977
42.6513
42.7238
42.8137
42.916
43.0276
43.1434
43.264
43.3815
43.4963
43.6024
43.696
43.7721
43.8403
43.8943
43.9375
43.9683
43.9904
44.0027
44.0037
43.9937
43.9686
43.9334
43.8913
43.8477
43.8094
43.7687
43.7392
43.7041
43.689
43.666
43.6728
43.6753
43.707
43.7341
43.7803
43.8222
43.8823
43.944
44.0235
44.105
44.2018
44.2997
44.4081
44.5085
44.616
44.7136
44.8132
44.9009
44.9987
45.0898
45.1945
45.2969
45.4143
45.5251
45.6571
45.7734
45.9129
46.0284
46.1689
46.2891
46.4453
46.5686
46.7421
46.8872
47.0781
47.2383
47.4503
47.6228
47.8326
47.9863
48.1942
48.3088
48.4971
48.5775
48.7361
48.7662
48.8971
48.8958
49.0138
48.9849
49.1249
49.0937
49.2433
49.2315
49.3722
49.3914
49.5369
49.5865
49.7521
49.8247
50.0304
50.104
50.35
50.4009
50.6614
50.6233
50.8721
50.6154
50.7829
50.068
50.0196
48.3235
47.7214
44.0829
41.625
34.9358
27.3829
18.7984
48.0059
47.8868
47.5354
47.1523
46.8041
46.5299
46.3765
46.3332
46.371
46.4474
46.5342
46.6007
46.6368
46.636
46.6073
46.555
46.4912
46.419
46.3475
46.276
46.2108
46.1497
46.0974
46.0508
46.013
45.9794
45.9524
45.9268
45.9044
45.8795
45.8537
45.822
45.7869
45.7448
45.6994
45.6476
45.5927
45.5316
45.4676
45.3984
45.3279
45.2547
45.1837
45.1145
45.0525
44.9962
44.9488
44.9066
44.8706
44.8347
44.798
44.7538
44.7008
44.6343
44.5538
44.4569
44.3451
44.2182
44.0794
43.9304
43.7753
43.6158
43.4573
43.3024
43.1585
43.0286
42.9204
42.8357
42.7797
42.751
42.7516
42.7764
42.8223
42.8805
42.9442
43.0043
43.0552
43.0921
43.1114
43.1137
43.0988
43.0702
43.0303
42.9847
42.9354
42.8872
42.8423
42.8022
42.7698
42.7503
42.7512
42.7731
42.8176
42.8811
42.9647
43.0608
43.167
43.2784
43.3941
43.5072
43.618
43.72
43.8103
43.8851
43.9523
44.0073
44.0499
44.0831
44.1032
44.1147
44.1122
44.0968
44.0654
44.0226
43.977
43.9287
43.8895
43.8456
43.8125
43.7745
43.754
43.7304
43.7339
43.7376
43.7659
43.7926
43.8365
43.8776
43.9413
44.0006
44.0826
44.1582
44.2487
44.3342
44.4308
44.5162
44.6114
44.6897
44.7772
44.8473
44.9346
45.0101
45.1101
45.2046
45.3208
45.4289
45.5553
45.6588
45.788
45.878
46.0059
46.0964
46.2378
46.3394
46.5064
46.6402
46.8379
46.9903
47.2168
47.3773
47.6002
47.7445
47.9632
48.0545
48.255
48.3002
48.4636
48.4595
48.5889
48.5583
48.6746
48.6336
48.7708
48.7463
48.8733
48.8611
48.9719
48.9698
49.0803
49.0897
49.2303
49.2433
49.4293
49.4111
49.6393
49.5408
49.7986
49.523
49.7906
49.1891
49.3683
48.2059
48.0808
45.9289
44.919
41.2838
38.0492
32.7462
25.6457
19.2999
48.6901
48.5071
47.7952
47.1139
46.5995
46.2891
46.1828
46.2173
46.3297
46.4683
46.6015
46.7001
46.7542
46.7612
46.7322
46.6756
46.6046
46.5262
46.45
46.3779
46.3149
46.2594
46.214
46.1755
46.1452
46.119
46.0977
46.0773
46.0582
46.0368
46.014
45.9861
45.9548
45.9176
45.8766
45.8301
45.7803
45.7255
45.6681
45.607
45.5445
45.4798
45.4159
45.3525
45.2928
45.2363
45.185
45.1371
45.0928
45.049
45.0041
44.9542
44.8972
44.8304
44.7525
44.6622
44.5598
44.4456
44.3212
44.1882
44.05
43.9091
43.7695
43.6339
43.5076
43.3931
43.2962
43.2183
43.1636
43.1312
43.1234
43.1375
43.1691
43.2116
43.2583
43.3032
43.3404
43.3666
43.3786
43.3767
43.3594
43.3296
43.289
43.2415
43.1899
43.1375
43.0872
43.0384
42.9953
42.9621
42.9521
42.9632
42.9987
43.0547
43.1335
43.2248
43.3261
43.4355
43.5488
43.6612
43.7719
43.8758
43.9673
44.0447
44.1136
44.1697
44.2128
44.247
44.2662
44.2748
44.2682
44.2457
44.2087
44.1592
44.1132
44.065
44.0273
43.9858
43.9518
43.9165
43.8963
43.8807
43.8861
43.8974
43.924
43.9537
43.9944
44.0409
44.1063
44.1727
44.2579
44.3313
44.4196
44.4919
44.5792
44.6491
44.7342
44.7965
44.8761
44.933
45.0119
45.0777
45.1774
45.2663
45.389
45.496
45.6196
45.7147
45.8325
45.8988
46.0092
46.0746
46.1964
46.2745
46.4375
46.5514
46.7547
46.8951
47.1331
47.2791
47.5207
47.6471
47.8864
47.9486
48.1633
48.1755
48.343
48.2973
48.4333
48.3698
48.4964
48.4469
48.5886
48.5612
48.693
48.6544
48.7663
48.7166
48.8185
48.7548
48.8958
48.8197
48.9952
48.8634
49.07
48.8207
49.0401
48.5817
48.75
47.9376
47.9123
46.5545
46.0792
43.9263
42.4202
39.2942
35.7873
31.786
25.6738
20.4092
49.329
49.0671
47.9972
47.0075
46.3205
45.9833
45.9482
46.0885
46.2976
46.5095
46.6896
46.8159
46.8816
46.8903
46.8557
46.7909
46.7107
46.6254
46.5443
46.4714
46.4099
46.3592
46.3198
46.2889
46.2656
46.2468
46.2312
46.2163
46.2011
46.1833
46.163
46.1384
46.11
46.077
46.0402
45.9991
45.9548
45.9068
45.8561
45.8025
45.7471
45.69
45.6324
45.5744
45.5175
45.462
45.4088
45.3576
45.308
45.2587
45.208
45.1539
45.0944
45.0282
44.9535
44.8701
44.7771
44.6751
44.5646
44.4476
44.3263
44.2033
44.0815
43.964
43.8538
43.7539
43.6677
43.5977
43.5465
43.5155
43.505
43.5133
43.5358
43.5661
43.5984
43.6291
43.6539
43.6711
43.6764
43.669
43.6477
43.6143
43.5692
43.5153
43.4572
43.398
43.3397
43.2803
43.2249
43.1778
43.1552
43.1572
43.1862
43.2387
43.315
43.4041
43.5041
43.6142
43.7274
43.8438
43.958
44.0673
44.1639
44.2489
44.319
44.376
44.4203
44.4533
44.4704
44.4741
44.464
44.4353
44.3946
44.3409
44.2941
44.248
44.2128
44.1776
44.1462
44.1197
44.1085
44.1085
44.124
44.1483
44.18
44.2151
44.2565
44.3082
44.3759
44.4525
44.5389
44.6192
44.7019
44.7703
44.8475
44.9094
44.9847
45.0408
45.1128
45.1648
45.2389
45.3049
45.4031
45.493
45.6156
45.7262
45.8479
45.9386
46.0426
46.0916
46.1764
46.2256
46.3217
46.3746
46.5315
46.6276
46.8213
46.9617
47.2047
47.3376
47.6041
47.7157
47.966
48.0124
48.2264
48.2246
48.3861
48.3192
48.4438
48.37
48.4947
48.4584
48.5935
48.5738
48.6971
48.6533
48.7495
48.6686
48.7359
48.6267
48.7158
48.5842
48.6762
48.4742
48.5792
48.2429
48.3376
47.7725
47.754
46.8539
46.6004
45.2021
44.464
42.4698
40.7672
38.2638
34.9181
31.8016
26.7411
22.0692
50.3844
49.9505
48.2551
46.8316
45.9535
45.6066
45.6673
45.9411
46.2684
46.5617
46.7869
46.9352
47.0068
47.0122
46.9678
46.8924
46.8024
46.711
46.6266
46.5541
46.495
46.4495
46.4157
46.3918
46.3748
46.3626
46.3523
46.3423
46.3305
46.3162
46.2983
46.2766
46.2507
46.2212
46.1877
46.1511
46.1111
46.0685
46.0229
45.9753
45.9254
45.8741
45.8211
45.7677
45.7137
45.6603
45.607
45.5547
45.5023
45.4501
45.3963
45.3407
45.2811
45.2174
45.1475
45.0717
44.9883
44.8986
44.8019
44.7004
44.5946
44.4879
44.3817
44.2798
44.1837
44.0971
44.0217
43.9609
43.9154
43.8883
43.8775
43.8828
43.8983
43.9192
43.9396
43.959
43.9735
43.9833
43.9829
43.9701
43.9433
43.904
43.8517
43.7895
43.7234
43.6554
43.5894
43.5203
43.4533
43.3957
43.3632
43.3596
43.3851
43.4377
43.5116
43.6004
43.701
43.8133
43.9307
44.0539
44.1767
44.2963
44.4005
44.4932
44.5644
44.6247
44.669
44.6981
44.7109
44.7084
44.6944
44.6634
44.6198
44.5652
44.5171
44.4766
44.4466
44.4207
44.3982
44.3877
44.3932
44.4147
44.4467
44.4889
44.5308
44.5747
44.6219
44.6808
44.7543
44.8373
44.926
45.0098
45.0877
45.1603
45.2313
45.293
45.362
45.4192
45.4867
45.5411
45.6127
45.6829
45.7805
45.8744
46.0012
46.1111
46.2355
46.3208
46.4205
46.4477
46.5087
46.5486
46.6203
46.6575
46.8048
46.8797
47.0652
47.1945
47.4443
47.5685
47.8455
47.9621
48.216
48.2611
48.4699
48.4745
48.6232
48.5445
48.6452
48.5776
48.6851
48.6718
48.8006
48.7956
48.9074
48.8647
48.951
48.8338
48.8631
48.7143
48.7384
48.542
48.5426
48.2645
48.2765
47.8443
47.8561
47.173
47.043
46.0725
45.6949
44.3391
43.4996
41.755
40.0299
38.0498
35.0265
32.3788
28.1932
23.9699
50.8354
50.3635
48.4428
46.7999
45.791
45.4099
45.5099
45.8623
46.268
46.6234
46.8877
47.0557
47.1311
47.1302
47.0736
46.9865
46.8871
46.7906
46.7042
46.6331
46.5771
46.5366
46.5084
46.4908
46.4795
46.4728
46.4669
46.4608
46.452
46.4404
46.4245
46.4051
46.3812
46.3542
46.3233
46.2901
46.2532
46.2144
46.1725
46.129
46.0828
46.0355
45.986
45.936
45.8845
45.833
45.7803
45.728
45.6745
45.6215
45.567
45.512
45.454
45.3942
45.3298
45.2619
45.1881
45.11
45.0258
44.9384
44.8471
44.7556
44.6639
44.5765
44.494
44.4207
44.3568
44.306
44.2675
44.2448
44.2351
44.2382
44.2473
44.2602
44.2709
44.2807
44.2873
44.2917
44.2862
44.2694
44.2384
44.194
44.1342
44.063
43.9865
43.9097
43.8354
43.7567
43.6839
43.6193
43.5823
43.5772
43.6039
43.6573
43.7303
43.8176
43.9208
44.0373
44.1636
44.2958
44.4312
44.5656
44.6825
44.7825
44.858
44.9203
44.9616
44.9835
44.9884
44.9797
44.963
44.93
44.8862
44.8351
44.7904
44.7585
44.7381
44.7246
44.7185
44.7282
44.7567
44.8033
44.8568
44.9206
44.9769
45.034
45.0911
45.1572
45.2376
45.324
45.4162
45.501
45.578
45.6565
45.7253
45.7891
45.8572
45.9131
45.982
46.0391
46.112
46.1914
46.2938
46.3943
46.5304
46.6381
46.778
46.8525
46.9679
46.9549
47.0121
47.0319
47.082
47.1132
47.2535
47.3
47.4923
47.6031
47.865
47.9818
48.2725
48.381
48.6486
48.6711
48.9034
48.905
49.0671
48.9423
49.0309
48.983
49.0858
49.0911
49.2102
49.2263
49.3308
49.293
49.3762
49.1987
49.2104
49.0136
48.993
48.7121
48.6637
48.2841
48.2178
47.744
47.6774
46.9854
46.7953
45.7689
45.3392
44.055
43.1755
41.6969
40.0049
38.3675
35.6939
33.2669
29.7285
25.9254
51.0666
50.628
48.6421
46.899
45.8047
45.367
45.4567
45.8401
46.2911
46.6874
46.9798
47.1625
47.2403
47.2335
47.1667
47.0698
46.963
46.863
46.7761
46.707
46.6548
46.6194
46.5965
46.5845
46.5781
46.5757
46.5732
46.5699
46.5632
46.5535
46.5391
46.5214
46.4992
46.4743
46.4455
46.4145
46.3802
46.3441
46.3051
46.2646
46.2212
46.177
46.1301
46.0827
46.033
45.9832
45.9317
45.8805
45.8278
45.7757
45.7222
45.6692
45.6144
45.5593
45.5014
45.4417
45.3774
45.3101
45.2377
45.1631
45.0852
45.0074
44.9293
44.8557
44.7864
44.7257
44.6736
44.6332
44.6024
44.5855
44.5784
44.5797
44.5835
44.5902
44.5946
44.5972
44.5975
44.5977
44.5897
44.5713
44.5377
44.4888
44.4232
44.3452
44.2595
44.1716
44.0887
44.0016
43.9259
43.8577
43.8215
43.8165
43.8488
43.9046
43.9794
44.0663
44.1754
44.2981
44.4333
44.5751
44.7269
44.8781
45.011
45.1179
45.197
45.2569
45.2926
45.3059
45.3033
45.2896
45.2715
45.2377
45.1974
45.1527
45.1169
45.0978
45.0923
45.097
45.1132
45.1475
45.2037
45.2768
45.3578
45.4444
45.52
45.5934
45.6626
45.7349
45.8189
45.9049
45.9992
46.082
46.1641
46.2451
46.318
46.3839
46.4564
46.5097
46.5869
46.6469
46.7278
46.8165
46.9311
47.0395
47.1955
47.2973
47.4679
47.5259
47.6676
47.5925
47.6779
47.6534
47.7158
47.7293
47.8676
47.8832
48.0994
48.1899
48.4768
48.5638
48.9031
48.9713
49.2947
49.2384
49.5408
49.5179
49.7376
49.5115
49.6279
49.5674
49.6962
49.7128
49.8513
49.8626
49.976
49.9242
50.019
49.7517
49.7838
49.5375
49.49
49.1064
49.0104
48.5494
48.474
48
47.9176
47.1329
46.9401
45.8474
45.4053
44.212
43.2997
42.0483
40.4462
38.9815
36.6222
34.3152
31.2259
27.8173
51.2078
50.7871
48.7798
46.9914
45.8571
45.3884
45.4713
45.8685
46.342
46.7584
47.064
47.2525
47.3286
47.3152
47.2407
47.1379
47.0282
46.9281
46.8433
46.7779
46.7303
46.6999
46.6821
46.6744
46.6716
46.672
46.6714
46.6695
46.6639
46.6552
46.6418
46.6254
46.6046
46.5814
46.5543
46.5253
46.4932
46.4594
46.4226
46.3844
46.3434
46.3014
46.2568
46.2115
46.1641
46.1163
46.0667
46.0173
45.9667
45.9169
45.8662
45.8164
45.7656
45.7155
45.6642
45.6126
45.5579
45.5013
45.441
45.3793
45.3146
45.2501
45.186
45.1262
45.0695
45.0205
44.9802
44.9503
44.9279
44.9164
44.9117
44.9117
44.9122
44.9148
44.9146
44.9132
44.9109
44.9092
44.9008
44.8832
44.8496
44.7982
44.7285
44.6441
44.5516
44.4546
44.3648
44.2722
44.1971
44.1284
44.1001
44.0959
44.1364
44.195
44.2743
44.3616
44.4806
44.6093
44.7543
44.9029
45.0724
45.2378
45.3851
45.4956
45.5756
45.6278
45.6558
45.6602
45.6544
45.6396
45.6226
45.5911
45.5608
45.5243
45.5052
45.5003
45.5183
45.5424
45.5899
45.6514
45.7411
45.8394
45.9516
46.057
46.1599
46.2483
46.3352
46.4126
46.5
46.5787
46.6749
46.7489
46.8393
46.9161
47.0005
47.0677
47.1488
47.2054
47.2945
47.3607
47.4581
47.5562
47.6917
47.8033
47.9855
48.0788
48.2887
48.3236
48.4896
48.3408
48.4911
48.411
48.5213
48.4892
48.6578
48.6492
48.9002
48.9554
49.28
49.3212
49.7142
49.7421
50.1155
50.0015
50.4072
50.327
50.6022
50.2739
50.4785
50.348
50.5517
50.5214
50.7157
50.7034
50.8384
50.7844
50.8863
50.5029
50.5433
50.2712
50.1428
49.7324
49.5951
49.1683
49.1124
48.5299
48.4096
47.5203
47.4057
46.2487
45.7854
44.693
43.7551
42.6549
41.2001
39.7741
37.6437
35.4376
32.6634
29.6006
51.2604
50.8365
48.8266
47.0437
45.9207
45.4659
45.563
45.9689
46.4442
46.8561
47.1539
47.3325
47.3981
47.3756
47.2959
47.1916
47.084
46.9878
46.9083
46.8484
46.8064
46.7809
46.7672
46.7624
46.7616
46.7629
46.7631
46.7614
46.7562
46.7479
46.7354
46.7199
46.7005
46.6787
46.6535
46.6262
46.5961
46.5642
46.5297
46.4938
46.4551
46.415
46.3726
46.3292
46.284
46.2383
46.1914
46.1448
46.0977
46.0513
46.0045
45.9587
45.913
45.8686
45.824
45.78
45.7347
45.6889
45.6409
45.5918
45.5406
45.4896
45.4402
45.3942
45.3512
45.3146
45.2864
45.2665
45.2515
45.2439
45.2413
45.2412
45.2399
45.2381
45.2332
45.2288
45.2259
45.2254
45.2206
45.2071
45.177
45.1278
45.0575
44.9696
44.8716
44.7681
44.6731
44.5796
44.5074
44.4448
44.4292
44.4271
44.4774
44.537
44.6217
44.707
44.8371
44.9709
45.1263
45.28
45.4682
45.6436
45.8042
45.9147
45.9922
46.0273
46.0504
46.0428
46.0401
46.0264
46.0168
45.9916
45.9774
45.9542
45.9614
45.9738
46.0233
46.0696
46.1556
46.2432
46.3702
46.4934
46.6406
46.764
46.8923
46.9937
47.1023
47.1841
47.2789
47.3545
47.4456
47.5131
47.6091
47.6819
47.7755
47.8501
47.9371
48.0067
48.1074
48.1835
48.2943
48.4033
48.5573
48.6837
48.8772
48.9743
49.2038
49.2435
49.3702
49.1957
49.4402
49.2751
49.4608
49.3698
49.5905
49.5599
49.8523
49.8988
50.2395
50.2505
50.7025
50.6899
51.0812
50.9742
51.4321
51.3342
51.6028
51.22
51.4762
51.3057
51.6057
51.5526
51.791
51.737
51.9019
51.8613
51.864
51.462
51.4957
51.1173
50.9931
50.6086
50.4352
49.9758
49.8341
49.2287
49.1121
48.2381
47.9834
46.9127
46.4202
45.4242
44.5108
43.4375
42.1151
40.6627
38.705
36.6014
34.0612
31.2844
51.2078
50.774
48.7952
47.0746
46.0157
45.6211
45.7531
46.1576
46.6083
46.9868
47.2527
47.4032
47.448
47.4139
47.3319
47.2312
47.131
47.0433
46.9726
46.9205
46.8851
46.8643
46.8536
46.85
46.8497
46.8504
46.85
46.8477
46.8423
46.834
46.8221
46.8075
46.7895
46.7691
46.7459
46.7205
46.6928
46.6632
46.6313
46.5976
46.5613
46.5234
46.4834
46.4422
46.3999
46.3573
46.3142
46.2716
46.2289
46.1866
46.1448
46.104
46.0643
46.0264
45.9894
45.9535
45.9174
45.8815
45.8455
45.8095
45.772
45.7345
45.6993
45.6674
45.6387
45.6162
45.6007
45.5903
45.5829
45.5802
45.5801
45.5792
45.5757
45.5698
45.562
45.5569
45.5548
45.5561
45.5565
45.549
45.5249
45.4815
45.4155
45.3279
45.2275
45.1234
45.0267
44.9351
44.8646
44.8122
44.8089
44.8142
44.8725
44.9313
45.0171
45.1041
45.2489
45.3862
45.55
45.7091
45.9163
46.0968
46.2694
46.3744
46.4473
46.464
46.4803
46.464
46.4729
46.4597
46.463
46.4464
46.4543
46.4518
46.4916
46.5271
46.6132
46.6891
46.8169
46.9337
47.0995
47.2444
47.4207
47.5586
47.713
47.8254
47.9565
48.0454
48.151
48.2221
48.3135
48.3784
48.4783
48.5564
48.6607
48.7446
48.8396
48.9227
49.0272
49.115
49.2423
49.3619
49.5253
49.6739
49.8694
49.9976
50.206
50.2852
50.3376
50.1961
50.4597
50.2427
50.4903
50.3982
50.6835
50.6369
50.9438
51.0098
51.3147
51.3377
51.793
51.8275
52.2378
52.176
52.5937
52.5331
52.7034
52.3301
52.6387
52.4029
52.8121
52.7331
53.0055
52.9523
53.1093
53.0286
53.0122
52.6068
52.5945
52.1228
52.0459
51.6021
51.3613
50.9931
50.7532
50.3294
49.8995
49.1461
48.7362
47.7897
47.2707
46.333
45.4786
44.3553
43.1335
41.6125
39.8044
37.79
35.436
32.8914
51.0016
50.5628
48.6874
47.1106
46.1774
45.8818
46.0503
46.4293
46.8236
47.1397
47.3505
47.4567
47.4735
47.428
47.3478
47.2565
47.1691
47.0944
47.0356
46.993
46.9645
46.9475
46.9384
46.9344
46.9326
46.9315
46.9293
46.9256
46.9193
46.9107
46.8992
46.8852
46.8685
46.8496
46.8286
46.8057
46.7807
46.7539
46.7251
46.6942
46.6609
46.6257
46.5884
46.5502
46.512
46.4743
46.4362
46.3982
46.3604
46.3235
46.2873
46.2525
46.2195
46.1889
46.1601
46.1332
46.1078
46.0844
46.0617
46.0379
46.0132
45.99
45.9695
45.9518
45.9383
45.9299
45.9262
45.925
45.9255
45.9288
45.9324
45.9332
45.929
45.9196
45.9081
45.9018
45.9017
45.907
45.9132
45.9133
45.8987
45.8645
45.8057
45.7239
45.6252
45.5249
45.4273
45.34
45.2733
45.2354
45.2376
45.2474
45.3088
45.3685
45.4551
45.5598
45.7215
45.867
46.0377
46.2073
46.4224
46.5997
46.775
46.8755
46.9456
46.9502
46.9642
46.9471
46.9664
46.9596
46.9797
46.9748
47.0062
47.0281
47.1004
47.1659
47.2906
47.4007
47.5683
47.7184
47.9165
48.0841
48.2823
48.4343
48.6081
48.7312
48.8805
48.9827
49.0995
49.1734
49.2693
49.3401
49.449
49.5344
49.6531
49.7501
49.8543
49.9503
50.0471
50.1469
50.2771
50.4152
50.584
50.7703
50.9508
51.1193
51.2993
51.4062
51.4119
51.396
51.5581
51.3448
51.6331
51.5699
51.8651
51.8643
52.1503
52.27
52.4828
52.569
52.9585
53.0877
53.4987
53.5528
53.8642
53.8241
53.9564
53.6327
53.909
53.7567
54.1179
54.0159
54.2981
54.2864
54.4166
54.3141
54.1896
53.7924
53.7954
53.271
53.1278
52.7224
52.4327
52.2256
51.7679
51.5433
50.8354
50.3503
49.6358
48.8536
48.2609
47.4124
46.5996
45.3981
44.2318
42.618
40.9359
38.9805
36.7849
34.4209
50.5359
50.1216
48.5116
47.2064
46.4727
46.2836
46.4567
46.7696
47.0716
47.2985
47.4356
47.4894
47.4778
47.4244
47.3507
47.2733
47.2023
47.1432
47.0971
47.0637
47.0407
47.0258
47.0164
47.0103
47.0059
47.002
46.9975
46.9919
46.9847
46.9756
46.9644
46.9512
46.9359
46.9187
46.8999
46.8795
46.8576
46.8341
46.8089
46.7814
46.7516
46.7202
46.6874
46.6538
46.6201
46.5877
46.5564
46.5254
46.494
46.4627
46.4323
46.4045
46.3799
46.3579
46.3381
46.3215
46.3078
46.2966
46.2874
46.2786
46.2693
46.2602
46.2533
46.2498
46.25
46.2535
46.2601
46.2682
46.2771
46.2865
46.2938
46.2958
46.291
46.2795
46.265
46.2562
46.2573
46.2672
46.2805
46.2896
46.2865
46.2645
46.2163
46.1434
46.0525
45.9614
45.8651
45.7883
45.7261
45.6994
45.7035
45.7233
45.7856
45.8447
45.9368
46.0719
46.248
46.405
46.5785
46.7666
46.9754
47.1491
47.3172
47.4163
47.4826
47.4932
47.5037
47.497
47.5254
47.5359
47.5736
47.5909
47.6425
47.6921
47.7924
47.8984
48.0528
48.2043
48.3971
48.5838
48.7962
48.9875
49.1973
49.3691
49.5559
49.6963
49.8563
49.9738
50.1066
50.1882
50.299
50.3854
50.5026
50.6058
50.7314
50.838
50.9495
51.0486
51.1385
51.2519
51.3842
51.5434
51.7286
51.9558
52.1225
52.3334
52.4659
52.5818
52.6151
52.6818
52.717
52.6798
52.8826
52.8926
53.1799
53.1986
53.4372
53.5943
53.7728
53.9426
54.1881
54.4943
54.8569
54.9662
55.1612
55.149
55.2424
55.0593
55.2983
55.2662
55.4734
55.459
55.6228
55.6689
55.6854
55.5627
55.4124
55.1431
55.0322
54.5463
54.3396
54.0183
53.6344
53.5264
52.9534
52.7966
51.8423
51.6361
50.6822
50.0933
49.3671
48.6644
47.7674
46.544
45.3978
43.7017
42.0972
40.1718
38.1194
35.887
49.7756
49.4546
48.321
47.4145
46.9216
46.8098
46.9311
47.1293
47.3087
47.4322
47.4938
47.5007
47.4679
47.4125
47.3488
47.2869
47.2323
47.1873
47.1519
47.1251
47.1051
47.0902
47.0791
47.0703
47.0629
47.0563
47.0497
47.0428
47.0349
47.0257
47.0149
47.0023
46.9882
46.9727
46.9559
46.9384
46.9202
46.9009
46.8795
46.8561
46.8308
46.8038
46.7759
46.7485
46.7214
46.6953
46.6706
46.6476
46.6248
46.6012
46.5781
46.5589
46.5444
46.5331
46.5241
46.5183
46.5163
46.5176
46.5202
46.5225
46.5258
46.5311
46.5386
46.5485
46.5607
46.5742
46.5888
46.6038
46.6191
46.6336
46.6438
46.6473
46.6426
46.6301
46.6145
46.6053
46.6083
46.6215
46.6386
46.6534
46.6589
46.6493
46.6158
46.5573
46.4791
46.4024
46.3099
46.2533
46.2018
46.187
46.1916
46.2291
46.2871
46.3579
46.4658
46.6223
46.7983
46.9698
47.1524
47.3593
47.5547
47.7293
47.8803
47.9856
48.0488
48.0787
48.0895
48.1073
48.1404
48.1818
48.2328
48.286
48.3522
48.4393
48.5574
48.7071
48.8817
49.072
49.2756
49.4908
49.701
49.9175
50.1239
50.3155
50.5037
50.6728
50.8391
50.992
51.1296
51.2427
51.356
51.4713
51.5896
51.7191
51.8411
51.9707
52.0783
52.1903
52.2813
52.4148
52.5462
52.734
52.9259
53.172
53.3425
53.6072
53.6712
53.8377
53.8344
53.9579
53.9808
54.0923
54.1868
54.3192
54.4727
54.5541
54.763
54.9521
55.0658
55.3753
55.5371
55.9893
56.1287
56.322
56.41
56.4921
56.5665
56.6021
56.6955
56.735
56.7987
56.9218
56.9362
57.0303
56.9412
56.8684
56.5888
56.5472
56.1875
55.9511
55.5735
55.3688
54.9322
54.9023
54.0953
53.9167
52.9457
52.8604
51.7428
51.4437
50.4955
49.9171
48.8454
47.7366
46.5371
44.8176
43.2455
41.3541
39.4141
37.2649
48.9415
48.7749
48.2229
47.7526
47.4722
47.3691
47.3796
47.4355
47.4903
47.5218
47.523
47.4973
47.4533
47.4008
47.3477
47.299
47.2568
47.2217
47.1928
47.1694
47.1501
47.1342
47.121
47.1099
47.1003
47.0919
47.0839
47.076
47.0676
47.0584
47.0478
47.0358
47.0227
47.0093
46.9953
46.9804
46.9649
46.9493
46.9328
46.9139
46.8931
46.8719
46.8508
46.8294
46.8089
46.7911
46.7758
46.7615
46.7473
46.7329
46.7206
46.7123
46.708
46.7067
46.7086
46.7141
46.7227
46.7337
46.7466
46.7605
46.774
46.7877
46.8033
46.8215
46.8412
46.8612
46.8811
46.9006
46.9195
46.9357
46.9468
46.9529
46.9525
46.9442
46.9318
46.9243
46.9283
46.9423
46.9622
46.9811
46.9932
46.9935
46.9731
46.9306
46.8712
46.8195
46.7453
46.7115
46.6702
46.6732
46.6866
46.748
46.8025
46.8967
47.0066
47.1718