/*--------------------------------*- C++ -*----------------------------------*\
| =========                 |                                                 |
| \\      /  F ield         | OpenFOAM: The Open Source CFD Toolbox           |
|  \\    /   O peration     | Version:  2.4.0                                 |
|   \\  /    A nd           | Web:      www.OpenFOAM.org                      |
|    \\/     M anipulation  |                                                 |
\*---------------------------------------------------------------------------*/
FoamFile
{
    version     2.0;
    format      ascii;
    class       volVectorField;
    location    "1.58";
    object      UMean;
}
// * * * * * * * * * * * * * * * * * * * * * * * * * * * * * * * * * * * * * //

dimensions      [0 1 -1 0 0 0 0];

internalField   nonuniform List<vector> 
8800
(
(8.0934 0.387253 0)
(5.45636 0.242639 0)
(3.92562 0.0429597 0)
(3.15979 -0.0151774 0)
(2.81989 -0.0184659 0)
(2.59876 -0.0108178 0)
(2.51034 -0.00593441 0)
(2.38053 -0.0019093 0)
(2.35215 -0.00185999 0)
(2.25075 -8.75748e-05 0)
(2.25585 -0.00112916 0)
(2.16697 0.000563547 0)
(2.18828 -0.000658982 0)
(2.09983 0.00109988 0)
(2.12704 -0.000348164 0)
(2.03559 0.00152066 0)
(2.06534 -0.000511416 0)
(1.96655 0.000925665 0)
(2.03385 0.00785177 0)
(1.72618 -0.0638655 0)
(10.0896 0.836387 0)
(9.64934 0.866815 0)
(8.89833 0.505719 0)
(8.06359 0.261885 0)
(7.53265 0.137031 0)
(6.97885 0.0822275 0)
(6.75251 0.0525258 0)
(6.36613 0.0408253 0)
(6.2989 0.027939 0)
(5.98865 0.0249172 0)
(6.01712 0.0165909 0)
(5.74216 0.0186562 0)
(5.82564 0.0127997 0)
(5.55857 0.0175526 0)
(5.67165 0.0125116 0)
(5.39806 0.0172758 0)
(5.53315 0.0157223 0)
(5.23243 0.00890463 0)
(5.43595 0.0304639 0)
(5.00798 -0.0435621 0)
(10.0878 0.629943 0)
(10.6239 0.862061 0)
(10.9195 0.599414 0)
(10.6367 0.373446 0)
(10.524 0.254062 0)
(10.0172 0.196491 0)
(9.92278 0.150436 0)
(9.41664 0.12276 0)
(9.42223 0.0905539 0)
(8.94989 0.0767544 0)
(9.05717 0.0548639 0)
(8.61078 0.0533569 0)
(8.79481 0.0387454 0)
(8.35207 0.0441337 0)
(8.58902 0.0336883 0)
(8.13136 0.0400789 0)
(8.41065 0.0368472 0)
(7.91716 0.0312658 0)
(8.25767 0.0416544 0)
(7.71291 -0.046675 0)
(10.0736 0.456662 0)
(10.4852 0.703714 0)
(11.2652 0.543644 0)
(11.2704 0.352616 0)
(11.6675 0.259736 0)
(11.3413 0.227993 0)
(11.6171 0.196609 0)
(11.1698 0.176237 0)
(11.441 0.142583 0)
(10.9391 0.126592 0)
(11.2458 0.0987553 0)
(10.714 0.094295 0)
(11.0652 0.0740292 0)
(10.5052 0.0781236 0)
(10.8987 0.0624312 0)
(10.3061 0.0711551 0)
(10.7387 0.0590421 0)
(10.1064 0.0680064 0)
(10.5726 0.0464612 0)
(9.91211 0.0331786 0)
(10.1967 0.346486 0)
(10.2524 0.566091 0)
(11.2046 0.4579 0)
(11.1485 0.295649 0)
(11.8181 0.205708 0)
(11.5133 0.194875 0)
(12.0493 0.173567 0)
(11.6562 0.171893 0)
(12.1608 0.138662 0)
(11.7218 0.135877 0)
(12.2193 0.101844 0)
(11.7457 0.110796 0)
(12.2422 0.0795728 0)
(11.7359 0.10085 0)
(12.2321 0.0676706 0)
(11.6945 0.100914 0)
(12.1885 0.0605663 0)
(11.6208 0.108277 0)
(12.1023 0.0409827 0)
(11.5047 0.0939634 0)
(10.2254 0.249456 0)
(10.1704 0.456175 0)
(11.0474 0.371377 0)
(11.0499 0.250478 0)
(11.668 0.155417 0)
(11.4821 0.155143 0)
(11.9377 0.135477 0)
(11.7034 0.146024 0)
(12.1134 0.111416 0)
(11.8779 0.117903 0)
(12.2654 0.0813883 0)
(12.0306 0.0975238 0)
(12.3964 0.0644355 0)
(12.159 0.0914318 0)
(12.5009 0.0580158 0)
(12.2595 0.0945119 0)
(12.5737 0.0569346 0)
(12.3248 0.103735 0)
(12.5971 0.0473117 0)
(12.3101 0.0599758 0)
(10.0951 0.168413 0)
(10.24 0.359278 0)
(10.8117 0.279908 0)
(11.0699 0.212051 0)
(11.4374 0.108262 0)
(11.5184 0.124003 0)
(11.7162 0.0937878 0)
(11.7377 0.125248 0)
(11.8923 0.0753133 0)
(11.9174 0.103929 0)
(12.0559 0.04954 0)
(12.0856 0.0885803 0)
(12.2083 0.0339724 0)
(12.238 0.0863289 0)
(12.344 0.0275088 0)
(12.3712 0.0930799 0)
(12.4593 0.0248474 0)
(12.4774 0.106398 0)
(12.5291 0.0176722 0)
(12.4836 0.0930089 0)
(9.97677 0.103359 0)
(10.3002 0.263761 0)
(10.6385 0.190291 0)
(11.0778 0.165042 0)
(11.2724 0.0672062 0)
(11.5338 0.0937781 0)
(11.5636 0.0568294 0)
(11.7444 0.100259 0)
(11.7373 0.0442125 0)
(11.9166 0.0846869 0)
(11.9024 0.0246846 0)
(12.0809 0.0736825 0)
(12.0584 0.0125843 0)
(12.2311 0.072513 0)
(12.1993 0.00739435 0)
(12.3636 0.0781535 0)
(12.3222 0.00480032 0)
(12.4716 0.0886498 0)
(12.4039 -0.00209576 0)
(12.4578 0.077957 0)
(9.90121 0.0548941 0)
(10.3378 0.162361 0)
(10.5251 0.109911 0)
(11.0804 0.104673 0)
(11.1634 0.0351191 0)
(11.5416 0.0597992 0)
(11.4631 0.0290757 0)
(11.7472 0.0657119 0)
(11.6342 0.0220865 0)
(11.9149 0.055583 0)
(11.8001 0.00968487 0)
(12.0782 0.048421 0)
(11.9577 0.00237508 0)
(12.2286 0.0468368 0)
(12.1002 -0.000989212 0)
(12.3622 0.04862 0)
(12.225 -0.00306127 0)
(12.4716 0.0506272 0)
(12.3028 -0.0136941 0)
(12.4395 0.0116142 0)
(9.88805 0.00834147 0)
(10.3334 0.0672426 0)
(10.4909 0.0255437 0)
(11.0598 0.047867 0)
(11.1333 -8.55941e-05 0)
(11.5246 0.0332099 0)
(11.4403 -0.00258543 0)
(11.7285 0.0366611 0)
(11.6122 -0.00547753 0)
(11.8949 0.033348 0)
(11.78 -0.0107929 0)
(12.0593 0.0310264 0)
(11.9397 -0.0145717 0)
(12.2115 0.0301597 0)
(12.0841 -0.0179585 0)
(12.3477 0.0292023 0)
(12.2103 -0.0223996 0)
(12.4594 0.0250629 0)
(12.2856 -0.0351392 0)
(12.4259 -0.00442961 0)
(9.91011 -0.0309917 0)
(10.3121 -0.0339475 0)
(10.5134 -0.0552315 0)
(11.0428 -0.0173961 0)
(11.1584 -0.0309683 0)
(11.5107 -0.00179326 0)
(11.4678 -0.0298715 0)
(11.7178 -0.00219628 0)
(11.6413 -0.0288314 0)
(11.8877 0.00158671 0)
(11.8108 -0.0264646 0)
(12.0552 0.0040216 0)
(11.9722 -0.0270851 0)
(12.2111 0.00330065 0)
(12.1182 -0.0308246 0)
(12.3514 -0.000648573 0)
(12.2462 -0.0378814 0)
(12.4676 -0.00889849 0)
(12.3226 -0.0503906 0)
(12.4361 -0.0280545 0)
(9.94519 -0.0753332 0)
(10.2927 -0.133603 0)
(10.5708 -0.137258 0)
(11.0409 -0.0789324 0)
(11.2161 -0.062659 0)
(11.5061 -0.033185 0)
(11.5223 -0.0578401 0)
(11.7162 -0.0365731 0)
(11.6985 -0.0524825 0)
(11.8894 -0.025938 0)
(11.8693 -0.0427075 0)
(12.0587 -0.0187126 0)
(12.0318 -0.0399794 0)
(12.2163 -0.0190129 0)
(12.1792 -0.0439338 0)
(12.358 -0.0258366 0)
(12.3091 -0.0536213 0)
(12.4756 -0.0386274 0)
(12.3881 -0.0660869 0)
(12.4447 -0.0478308 0)
(9.97407 -0.123283 0)
(10.2925 -0.237702 0)
(10.6431 -0.216915 0)
(11.0678 -0.141134 0)
(11.2858 -0.0937544 0)
(11.523 -0.0681146 0)
(11.584 -0.0852925 0)
(11.7346 -0.0721169 0)
(11.7632 -0.0752372 0)
(11.9094 -0.05521 0)
(11.9344 -0.0591985 0)
(12.0782 -0.0433112 0)
(12.0966 -0.0531423 0)
(12.2345 -0.0425841 0)
(12.244 -0.0575656 0)
(12.3747 -0.0516688 0)
(12.3743 -0.0711088 0)
(12.4906 -0.0693892 0)
(12.4558 -0.0877589 0)
(12.4614 -0.0681173 0)
(10.0114 -0.18265 0)
(10.3008 -0.342275 0)
(10.746 -0.29887 0)
(11.1164 -0.196701 0)
(11.3834 -0.12756 0)
(11.5587 -0.106883 0)
(11.6697 -0.114008 0)
(11.7741 -0.10774 0)
(11.8516 -0.097708 0)
(11.9522 -0.0854196 0)
(12.0214 -0.0755224 0)
(12.1208 -0.0696722 0)
(12.1805 -0.0657202 0)
(12.2751 -0.0679668 0)
(12.3234 -0.0693042 0)
(12.4116 -0.0785832 0)
(12.4468 -0.085613 0)
(12.5216 -0.101963 0)
(12.5215 -0.108929 0)
(12.4928 -0.0996789 0)
(10.0541 -0.257869 0)
(10.3176 -0.447025 0)
(10.8903 -0.382377 0)
(11.1813 -0.24285 0)
(11.5202 -0.166299 0)
(11.6059 -0.146483 0)
(11.7946 -0.145844 0)
(11.8219 -0.139335 0)
(11.9728 -0.122442 0)
(11.9935 -0.112104 0)
(12.1268 -0.0943525 0)
(12.1446 -0.0935751 0)
(12.2596 -0.0805135 0)
(12.2719 -0.0909364 0)
(12.3649 -0.0809557 0)
(12.37 -0.101929 0)
(12.4358 -0.0961326 0)
(12.4277 -0.130229 0)
(12.4422 -0.125037 0)
(12.345 -0.139477 0)
(10.0494 -0.351608 0)
(10.3935 -0.559708 0)
(11.0447 -0.464502 0)
(11.2976 -0.289868 0)
(11.6533 -0.213226 0)
(11.6644 -0.187989 0)
(11.8767 -0.181274 0)
(11.8106 -0.166229 0)
(11.9783 -0.147629 0)
(11.8801 -0.130747 0)
(12.0254 -0.112712 0)
(11.9076 -0.107084 0)
(12.0337 -0.093477 0)
(11.8998 -0.100331 0)
(12.0026 -0.0879864 0)
(11.8555 -0.107947 0)
(11.9248 -0.0971106 0)
(11.7631 -0.136868 0)
(11.7661 -0.125493 0)
(11.541 -0.16261 0)
(10.0028 -0.459806 0)
(10.5604 -0.70019 0)
(11.1667 -0.54639 0)
(11.3678 -0.350246 0)
(11.5562 -0.263949 0)
(11.4487 -0.225016 0)
(11.4923 -0.201038 0)
(11.2853 -0.173821 0)
(11.3016 -0.147779 0)
(11.0606 -0.124736 0)
(11.0901 -0.104664 0)
(10.8388 -0.0945015 0)
(10.8888 -0.0808565 0)
(10.6295 -0.0832944 0)
(10.6918 -0.0711984 0)
(10.4215 -0.0877676 0)
(10.4784 -0.0747072 0)
(10.1898 -0.11591 0)
(10.1953 -0.0959309 0)
(9.85973 -0.16081 0)
(10.059 -0.633035 0)
(10.6553 -0.858928 0)
(10.8654 -0.600838 0)
(10.6909 -0.371993 0)
(10.4572 -0.256964 0)
(10.0825 -0.194693 0)
(9.84217 -0.153559 0)
(9.4889 -0.120696 0)
(9.32947 -0.0943595 0)
(9.02514 -0.0747864 0)
(8.95267 -0.0594465 0)
(8.68434 -0.0523885 0)
(8.67555 -0.0444839 0)
(8.41768 -0.046071 0)
(8.44572 -0.0413043 0)
(8.17817 -0.0504192 0)
(8.21672 -0.0485085 0)
(7.91982 -0.0698676 0)
(7.92195 -0.0711838 0)
(7.57478 -0.0897978 0)
(10.0806 -0.838009 0)
(9.65656 -0.864895 0)
(8.87414 -0.506186 0)
(8.08985 -0.261128 0)
(7.49873 -0.138701 0)
(7.01267 -0.0814332 0)
(6.70707 -0.0539995 0)
(6.40466 -0.0397782 0)
(6.24545 -0.0297731 0)
(6.02772 -0.0239513 0)
(5.95694 -0.018798 0)
(5.77678 -0.018223 0)
(5.7569 -0.015559 0)
(5.58221 -0.0185655 0)
(5.58692 -0.0164812 0)
(5.39864 -0.0229336 0)
(5.40762 -0.0221077 0)
(5.18511 -0.0327858 0)
(5.17368 -0.0385024 0)
(4.87807 -0.0198854 0)
(8.09142 -0.387679 0)
(5.45469 -0.242051 0)
(3.92078 -0.0432518 0)
(3.1683 0.0152762 0)
(2.81056 0.0180124 0)
(2.60815 0.0111545 0)
(2.49572 0.00559461 0)
(2.39137 0.00229919 0)
(2.33475 0.00144292 0)
(2.26136 0.000448074 0)
(2.2355 0.000671716 0)
(2.17497 -0.00023676 0)
(2.16386 0.000160154 0)
(2.10117 -0.00107542 0)
(2.09411 -0.000342317 0)
(2.02138 -0.00224923 0)
(2.00904 -0.00113395 0)
(1.91758 -0.00383194 0)
(1.87954 -0.00429686 0)
(1.72752 0.0113164 0)
(2.28017 -0.111169 0)
(2.31983 -0.0225497 0)
(2.56788 -0.00689541 0)
(2.62186 -0.0124126 0)
(2.86476 -0.0320425 0)
(2.88467 -0.0366955 0)
(3.10333 -0.0458118 0)
(3.08789 -0.040002 0)
(3.28131 -0.0463318 0)
(3.24078 -0.0434939 0)
(3.42507 -0.0519365 0)
(3.36918 -0.049959 0)
(3.55509 -0.060216 0)
(3.4926 -0.0584857 0)
(3.68306 -0.068693 0)
(3.617 -0.0665456 0)
(3.81529 -0.0767407 0)
(3.74757 -0.0743272 0)
(3.95861 -0.0846344 0)
(3.89038 -0.0807423 0)
(4.10914 -0.0935807 0)
(4.03493 -0.0930753 0)
(4.25696 -0.109111 0)
(4.17412 -0.110458 0)
(4.39754 -0.128958 0)
(4.30513 -0.131712 0)
(4.52904 -0.150513 0)
(4.42783 -0.15062 0)
(4.65366 -0.166502 0)
(4.54975 -0.163555 0)
(4.78115 -0.179547 0)
(4.68111 -0.177477 0)
(4.91946 -0.195953 0)
(4.82148 -0.194796 0)
(5.06215 -0.213622 0)
(4.95997 -0.210929 0)
(5.20349 -0.22871 0)
(5.09472 -0.223702 0)
(5.3455 -0.241093 0)
(5.22903 -0.236546 0)
(5.49075 -0.256058 0)
(5.36354 -0.254921 0)
(5.63565 -0.279662 0)
(5.49496 -0.282397 0)
(5.77148 -0.310467 0)
(5.61559 -0.313009 0)
(5.8934 -0.34163 0)
(5.72805 -0.339713 0)
(6.0076 -0.366908 0)
(5.83895 -0.360177 0)
(6.12269 -0.3854 0)
(5.95082 -0.374354 0)
(6.24501 -0.397742 0)
(6.0666 -0.384078 0)
(6.37749 -0.407889 0)
(6.1884 -0.394005 0)
(6.52032 -0.419741 0)
(6.31666 -0.406033 0)
(6.66798 -0.433099 0)
(6.44775 -0.419891 0)
(6.81627 -0.450583 0)
(6.58573 -0.439685 0)
(6.96818 -0.476978 0)
(6.7366 -0.47082 0)
(7.12239 -0.516757 0)
(6.89294 -0.514636 0)
(7.26956 -0.565331 0)
(7.03578 -0.564302 0)
(7.40051 -0.613813 0)
(7.15691 -0.609952 0)
(7.51753 -0.65909 0)
(7.26245 -0.649513 0)
(7.6238 -0.69519 0)
(7.356 -0.679771 0)
(7.73084 -0.723563 0)
(7.45223 -0.702832 0)
(7.84635 -0.745093 0)
(7.56503 -0.720012 0)
(7.97818 -0.764944 0)
(7.69714 -0.736196 0)
(8.1279 -0.783539 0)
(7.84306 -0.751959 0)
(8.28847 -0.79833 0)
(7.99483 -0.767361 0)
(8.44985 -0.815703 0)
(8.15291 -0.785901 0)
(8.59966 -0.841206 0)
(8.31237 -0.813105 0)
(8.73479 -0.873389 0)
(8.45955 -0.846308 0)
(8.85505 -0.906637 0)
(8.58849 -0.877315 0)
(8.95799 -0.935778 0)
(8.69447 -0.905133 0)
(9.0456 -0.963128 0)
(8.7848 -0.928862 0)
(9.12258 -0.986889 0)
(8.86164 -0.94921 0)
(9.19212 -1.0059 0)
(8.93859 -0.965823 0)
(9.26821 -1.02633 0)
(9.02057 -0.985126 0)
(9.35538 -1.05123 0)
(9.10513 -1.00436 0)
(9.4412 -1.06765 0)
(9.17965 -1.00923 0)
(9.50854 -1.07546 0)
(9.23302 -1.01027 0)
(9.54881 -1.07815 0)
(9.26397 -1.00412 0)
(9.56758 -1.07352 0)
(9.27435 -0.996486 0)
(9.5632 -1.06415 0)
(9.26195 -0.980645 0)
(9.5428 -1.04874 0)
(9.24988 -0.958146 0)
(9.52714 -1.02314 0)
(9.25061 -0.928579 0)
(9.51639 -0.993442 0)
(9.25224 -0.8974 0)
(9.5059 -0.96112 0)
(9.25609 -0.863861 0)
(9.50093 -0.930887 0)
(9.25943 -0.830061 0)
(9.49681 -0.901024 0)
(9.25155 -0.799389 0)
(9.49363 -0.867501 0)
(9.23826 -0.76101 0)
(9.48861 -0.820554 0)
(9.23097 -0.710597 0)
(9.47874 -0.762316 0)
(9.23136 -0.650807 0)
(9.46123 -0.700572 0)
(9.23032 -0.591163 0)
(9.43964 -0.642691 0)
(9.22519 -0.533944 0)
(9.41664 -0.579658 0)
(9.21654 -0.467249 0)
(9.39937 -0.509241 0)
(9.21404 -0.400857 0)
(9.38439 -0.445695 0)
(9.21046 -0.34137 0)
(9.35986 -0.38037 0)
(9.20143 -0.281968 0)
(9.329 -0.31921 0)
(9.18519 -0.225067 0)
(9.28124 -0.247314 0)
(9.15534 -0.155435 0)
(9.22438 -0.173787 0)
(9.12277 -0.0827378 0)
(9.16141 -0.100939 0)
(9.07879 -0.00270977 0)
(9.10196 -0.0114227 0)
(9.03061 0.0882423 0)
(9.04846 0.0761058 0)
(8.98916 0.183024 0)
(9.00213 0.174167 0)
(8.93437 0.279562 0)
(8.9621 0.268726 0)
(8.88475 0.381867 0)
(8.92632 0.350954 0)
(8.82748 0.473219 0)
(8.8971 0.432078 0)
(8.75929 0.557522 0)
(8.85619 0.511835 0)
(8.67797 0.645054 0)
(8.81806 0.591255 0)
(8.59479 0.731973 0)
(8.77217 0.672437 0)
(8.50776 0.830168 0)
(8.70781 0.745121 0)
(8.39657 0.925786 0)
(8.64594 0.831065 0)
(8.24582 1.03681 0)
(8.57496 0.918613 0)
(8.09454 1.17508 0)
(8.49384 1.01786 0)
(7.93714 1.31638 0)
(8.42351 1.12122 0)
(7.80206 1.47425 0)
(8.34547 1.24657 0)
(7.67957 1.64354 0)
(8.26213 1.3959 0)
(7.55672 1.81818 0)
(8.14557 1.55851 0)
(7.43063 2.00118 0)
(7.97971 1.74947 0)
(7.2845 2.20283 0)
(7.78414 1.98526 0)
(7.09851 2.43367 0)
(7.56311 2.26718 0)
(6.84889 2.71752 0)
(7.28563 2.62976 0)
(6.53721 3.12687 0)
(6.88091 3.10621 0)
(6.16377 3.80779 0)
(6.36759 3.84249 0)
(5.47602 4.95523 0)
(6.4537 5.49211 0)
(4.11552 8.47342 0)
(5.34704 -0.0747406 0)
(5.25224 -0.0395927 0)
(5.39076 -0.0431633 0)
(5.31962 -0.0595273 0)
(5.51887 -0.0887931 0)
(5.46301 -0.0976817 0)
(5.66831 -0.107307 0)
(5.5863 -0.0984466 0)
(5.7759 -0.0999953 0)
(5.66673 -0.0915851 0)
(5.85373 -0.0985066 0)
(5.73245 -0.0951013 0)
(5.92981 -0.106462 0)
(5.80476 -0.104702 0)
(6.0154 -0.116805 0)
(5.88706 -0.11456 0)
(6.10986 -0.126744 0)
(5.97678 -0.123639 0)
(6.21011 -0.136379 0)
(6.0719 -0.132965 0)
(6.31406 -0.146999 0)
(6.16911 -0.145203 0)
(6.41725 -0.161523 0)
(6.26341 -0.160926 0)
(6.51666 -0.179169 0)
(6.35383 -0.179178 0)
(6.61246 -0.197893 0)
(6.44157 -0.196525 0)
(6.70577 -0.214733 0)
(6.52836 -0.211916 0)
(6.80009 -0.230544 0)
(6.6179 -0.227655 0)
(6.89874 -0.248015 0)
(6.71047 -0.245283 0)
(6.99948 -0.265965 0)
(6.80168 -0.261328 0)
(7.09853 -0.280891 0)
(6.89019 -0.274133 0)
(7.19551 -0.293667 0)
(6.97767 -0.286809 0)
(7.29183 -0.309081 0)
(7.06702 -0.303705 0)
(7.38796 -0.330436 0)
(7.15758 -0.327072 0)
(7.48241 -0.357352 0)
(7.24571 -0.353561 0)
(7.57274 -0.384648 0)
(7.32843 -0.378906 0)
(7.6594 -0.409168 0)
(7.40583 -0.400491 0)
(7.74602 -0.428749 0)
(7.47935 -0.416423 0)
(7.83358 -0.443523 0)
(7.55145 -0.428429 0)
(7.92292 -0.455858 0)
(7.62539 -0.43937 0)
(8.01498 -0.46879 0)
(7.7054 -0.452675 0)
(8.11086 -0.485204 0)
(7.79369 -0.470139 0)
(8.2112 -0.506948 0)
(7.89055 -0.493738 0)
(8.31549 -0.536293 0)
(7.99448 -0.525938 0)
(8.42108 -0.574532 0)
(8.10152 -0.566095 0)
(8.52407 -0.617474 0)
(8.20386 -0.609521 0)
(8.62327 -0.662656 0)
(8.29955 -0.653724 0)
(8.71838 -0.704587 0)
(8.3866 -0.689694 0)
(8.80974 -0.738514 0)
(8.46957 -0.718297 0)
(8.89968 -0.768111 0)
(8.55515 -0.742032 0)
(8.99091 -0.793564 0)
(8.64679 -0.763467 0)
(9.08684 -0.816999 0)
(8.7438 -0.784942 0)
(9.19124 -0.839224 0)
(8.84638 -0.803351 0)
(9.29979 -0.858728 0)
(8.9559 -0.81968 0)
(9.40483 -0.8763 0)
(9.06908 -0.837611 0)
(9.50498 -0.899131 0)
(9.18145 -0.861436 0)
(9.59581 -0.926175 0)
(9.28348 -0.889298 0)
(9.67664 -0.953049 0)
(9.37079 -0.91234 0)
(9.74219 -0.975405 0)
(9.43825 -0.93311 0)
(9.79155 -0.99627 0)
(9.48893 -0.951262 0)
(9.83058 -1.01445 0)
(9.52868 -0.967216 0)
(9.866 -1.03268 0)
(9.56876 -0.987366 0)
(9.90925 -1.05892 0)
(9.61366 -1.01034 0)
(9.95559 -1.08536 0)
(9.65145 -1.02607 0)
(9.99189 -1.09414 0)
(9.67763 -1.02401 0)
(10.0088 -1.09198 0)
(9.68681 -1.01533 0)
(10.0045 -1.08765 0)
(9.67796 -1.00422 0)
(9.9845 -1.07639 0)
(9.64979 -0.983254 0)
(9.94265 -1.05707 0)
(9.6073 -0.961903 0)
(9.89486 -1.04057 0)
(9.5724 -0.943055 0)
(9.85272 -1.02142 0)
(9.54409 -0.917367 0)
(9.81928 -0.992765 0)
(9.51581 -0.887554 0)
(9.79179 -0.961702 0)
(9.48916 -0.855071 0)
(9.7681 -0.931346 0)
(9.46294 -0.818205 0)
(9.74418 -0.897699 0)
(9.42951 -0.782137 0)
(9.71536 -0.863695 0)
(9.39378 -0.744688 0)
(9.68187 -0.817954 0)
(9.36259 -0.69545 0)
(9.64703 -0.763351 0)
(9.33542 -0.637377 0)
(9.61341 -0.699445 0)
(9.30901 -0.577236 0)
(9.57935 -0.638125 0)
(9.27273 -0.517682 0)
(9.54329 -0.575862 0)
(9.2418 -0.457692 0)
(9.51572 -0.510048 0)
(9.22402 -0.395223 0)
(9.49181 -0.446349 0)
(9.20587 -0.331417 0)
(9.46136 -0.380892 0)
(9.17908 -0.26471 0)
(9.42674 -0.313885 0)
(9.13672 -0.197885 0)
(9.37959 -0.23718 0)
(9.09257 -0.127634 0)
(9.32917 -0.16377 0)
(9.06006 -0.0541862 0)
(9.27173 -0.0840798 0)
(9.01888 0.0257278 0)
(9.2092 -0.00236955 0)
(8.97809 0.113329 0)
(9.15861 0.0837988 0)
(8.93228 0.2087 0)
(9.11788 0.177956 0)
(8.88089 0.308695 0)
(9.09125 0.266442 0)
(8.83633 0.414815 0)
(9.07183 0.34614 0)
(8.78381 0.510579 0)
(9.05601 0.428953 0)
(8.73588 0.60148 0)
(9.03369 0.504461 0)
(8.69112 0.691431 0)
(9.00496 0.573871 0)
(8.64148 0.78986 0)
(8.95412 0.648157 0)
(8.57898 0.903077 0)
(8.91061 0.723953 0)
(8.47677 1.01408 0)
(8.86306 0.816256 0)
(8.35554 1.14109 0)
(8.79657 0.902643 0)
(8.21939 1.27369 0)
(8.75009 0.995091 0)
(8.08332 1.41315 0)
(8.71514 1.09296 0)
(7.95454 1.56689 0)
(8.68441 1.2255 0)
(7.84586 1.73511 0)
(8.63144 1.3849 0)
(7.75273 1.91331 0)
(8.54415 1.55914 0)
(7.65233 2.09568 0)
(8.44094 1.76294 0)
(7.51814 2.30092 0)
(8.31801 2.00188 0)
(7.37205 2.56741 0)
(8.15267 2.28992 0)
(7.22781 2.9179 0)
(7.91814 2.64212 0)
(7.06456 3.40891 0)
(7.6518 3.13219 0)
(6.77173 4.10896 0)
(7.64584 3.94382 0)
(6.10565 5.36902 0)
(8.56246 4.79895 0)
(6.56355 8.95221 0)
(8.03817 -0.0866173 0)
(7.89553 -0.0653269 0)
(8.04754 -0.0785681 0)
(7.92342 -0.0908451 0)
(8.13299 -0.115869 0)
(8.02572 -0.11847 0)
(8.24134 -0.126845 0)
(8.10429 -0.114904 0)
(8.30315 -0.117374 0)
(8.13735 -0.106462 0)
(8.33583 -0.115318 0)
(8.16009 -0.110887 0)
(8.372 -0.125905 0)
(8.19398 -0.124487 0)
(8.42129 -0.141305 0)
(8.24074 -0.139153 0)
(8.48079 -0.155361 0)
(8.29502 -0.151355 0)
(8.5442 -0.167056 0)
(8.35132 -0.162205 0)
(8.60777 -0.178803 0)
(8.40735 -0.174647 0)
(8.67023 -0.192994 0)
(8.46189 -0.189692 0)
(8.73104 -0.209601 0)
(8.51491 -0.206633 0)
(8.79058 -0.227267 0)
(8.56651 -0.223597 0)
(8.84878 -0.24429 0)
(8.61551 -0.239635 0)
(8.90495 -0.260812 0)
(8.66172 -0.255985 0)
(8.95944 -0.278362 0)
(8.70514 -0.273328 0)
(9.01161 -0.296267 0)
(8.74565 -0.289571 0)
(9.06121 -0.312086 0)
(8.78553 -0.303064 0)
(9.10982 -0.326072 0)
(8.82773 -0.315838 0)
(9.15936 -0.341366 0)
(8.87456 -0.332044 0)
(9.21179 -0.361514 0)
(8.92516 -0.35377 0)
(9.26616 -0.386257 0)
(8.97561 -0.378956 0)
(9.31966 -0.412213 0)
(9.02154 -0.403254 0)
(9.36994 -0.435726 0)
(9.06072 -0.423815 0)
(9.41707 -0.45497 0)
(9.09523 -0.439466 0)
(9.46232 -0.469811 0)
(9.12761 -0.451483 0)
(9.50641 -0.483056 0)
(9.16211 -0.463367 0)
(9.5512 -0.498315 0)
(9.20369 -0.479038 0)
(9.59981 -0.518428 0)
(9.2539 -0.499734 0)
(9.65206 -0.542558 0)
(9.30959 -0.524895 0)
(9.70623 -0.571228 0)
(9.36616 -0.556087 0)
(9.76066 -0.606206 0)
(9.41987 -0.593386 0)
(9.81452 -0.647547 0)
(9.47238 -0.636231 0)
(9.87064 -0.693654 0)
(9.52426 -0.680413 0)
(9.92386 -0.736432 0)
(9.57262 -0.717162 0)
(9.97561 -0.770166 0)
(9.61947 -0.746506 0)
(10.0265 -0.799618 0)
(9.66633 -0.771433 0)
(10.0754 -0.825381 0)
(9.71457 -0.793516 0)
(10.1246 -0.850459 0)
(9.76776 -0.816987 0)
(10.1771 -0.874814 0)
(9.82634 -0.837105 0)
(10.2329 -0.895722 0)
(9.8907 -0.852154 0)
(10.288 -0.912023 0)
(9.95803 -0.868513 0)
(10.3407 -0.93059 0)
(10.0192 -0.88797 0)
(10.3866 -0.953808 0)
(10.0709 -0.91166 0)
(10.4222 -0.975507 0)
(10.1089 -0.928964 0)
(10.4415 -0.992858 0)
(10.1304 -0.943422 0)
(10.446 -1.00762 0)
(10.1384 -0.956119 0)
(10.4361 -1.02196 0)
(10.1379 -0.970729 0)
(10.4298 -1.0434 0)
(10.1416 -0.993561 0)
(10.4272 -1.07219 0)
(10.1432 -1.01656 0)
(10.4158 -1.09619 0)
(10.1301 -1.02678 0)
(10.3915 -1.09876 0)
(10.1074 -1.01953 0)
(10.3568 -1.09098 0)
(10.0766 -1.00481 0)
(10.3121 -1.07806 0)
(10.0305 -0.983578 0)
(10.2484 -1.0572 0)
(9.96789 -0.954461 0)
(10.1729 -1.03384 0)
(9.91052 -0.934592 0)
(10.1045 -1.01993 0)
(9.85512 -0.916543 0)
(10.0314 -1.0024 0)
(9.79283 -0.891994 0)
(9.96538 -0.979113 0)
(9.7359 -0.862699 0)
(9.91155 -0.951688 0)
(9.68642 -0.82956 0)
(9.86312 -0.920748 0)
(9.63926 -0.792957 0)
(9.81525 -0.885035 0)
(9.59131 -0.754928 0)
(9.76116 -0.849994 0)
(9.53607 -0.716568 0)
(9.69706 -0.805953 0)
(9.47878 -0.665775 0)
(9.63373 -0.750677 0)
(9.41768 -0.606258 0)
(9.58339 -0.690594 0)
(9.36196 -0.546612 0)
(9.53606 -0.626143 0)
(9.30231 -0.485565 0)
(9.48763 -0.568759 0)
(9.25528 -0.432717 0)
(9.44548 -0.508357 0)
(9.21574 -0.372152 0)
(9.40853 -0.44724 0)
(9.18219 -0.303311 0)
(9.35974 -0.377473 0)
(9.14234 -0.232044 0)
(9.31457 -0.306825 0)
(9.09499 -0.158633 0)
(9.27022 -0.228258 0)
(9.0468 -0.0851103 0)
(9.22809 -0.157857 0)
(9.0064 -0.0108749 0)
(9.17937 -0.0819374 0)
(8.98303 0.074573 0)
(9.12922 -0.00889197 0)
(8.9484 0.158203 0)
(9.08994 0.07593 0)
(8.8993 0.259361 0)
(9.05383 0.161185 0)
(8.85412 0.359926 0)
(9.02434 0.245701 0)
(8.80934 0.462408 0)
(9.00569 0.332455 0)
(8.76804 0.556002 0)
(8.99602 0.409247 0)
(8.74391 0.645944 0)
(8.9854 0.480604 0)
(8.71998 0.741089 0)
(8.96223 0.552952 0)
(8.68676 0.849509 0)
(8.94086 0.635225 0)
(8.62303 0.964361 0)
(8.93552 0.715608 0)
(8.52684 1.08961 0)
(8.92169 0.810116 0)
(8.40994 1.22975 0)
(8.92111 0.904279 0)
(8.27279 1.36077 0)
(8.9316 0.987073 0)
(8.14991 1.49467 0)
(8.9304 1.08232 0)
(8.03819 1.63965 0)
(8.91234 1.20382 0)
(7.9578 1.81183 0)
(8.8733 1.35719 0)
(7.88401 2.00259 0)
(8.82568 1.53364 0)
(7.79517 2.20883 0)
(8.76205 1.72982 0)
(7.71419 2.45276 0)
(8.65344 1.94852 0)
(7.65513 2.73898 0)
(8.52337 2.22318 0)
(7.59484 3.10794 0)
(8.43459 2.589 0)
(7.46146 3.59191 0)
(8.54451 3.09348 0)
(7.14341 4.34426 0)
(9.08474 3.61271 0)
(6.84682 5.91322 0)
(9.81758 3.69338 0)
(8.22464 8.22708 0)
(10.2919 -0.101234 0)
(10.1249 -0.142769 0)
(10.2923 -0.179196 0)
(10.1401 -0.174416 0)
(10.3556 -0.177731 0)
(10.2154 -0.155097 0)
(10.4318 -0.152013 0)
(10.2617 -0.12971 0)
(10.4627 -0.13256 0)
(10.2677 -0.117155 0)
(10.4691 -0.128883 0)
(10.2661 -0.121025 0)
(10.4792 -0.140006 0)
(10.2747 -0.135887 0)
(10.5012 -0.157351 0)
(10.2947 -0.152584 0)
(10.5318 -0.173296 0)
(10.3204 -0.16618 0)
(10.5652 -0.185827 0)
(10.3473 -0.177173 0)
(10.5987 -0.197161 0)
(10.3738 -0.188517 0)
(10.6311 -0.210088 0)
(10.3988 -0.202115 0)
(10.6616 -0.225389 0)
(10.422 -0.21773 0)
(10.6898 -0.242003 0)
(10.4427 -0.233709 0)
(10.7151 -0.258333 0)
(10.4602 -0.248994 0)
(10.7368 -0.273966 0)
(10.4739 -0.263871 0)
(10.7547 -0.289593 0)
(10.4838 -0.27903 0)
(10.7688 -0.305591 0)
(10.4906 -0.293986 0)
(10.7803 -0.321 0)
(10.4965 -0.30836 0)
(10.7918 -0.336322 0)
(10.5041 -0.323288 0)
(10.8056 -0.353383 0)
(10.5149 -0.341436 0)
(10.8226 -0.374616 0)
(10.5276 -0.364001 0)
(10.8407 -0.399728 0)
(10.5396 -0.388926 0)
(10.8571 -0.425492 0)
(10.5483 -0.412342 0)
(10.8701 -0.448097 0)
(10.5536 -0.431121 0)
(10.8798 -0.465739 0)
(10.557 -0.445061 0)
(10.8874 -0.479032 0)
(10.561 -0.455829 0)
(10.8951 -0.491301 0)
(10.5692 -0.467892 0)
(10.9051 -0.507071 0)
(10.5822 -0.484585 0)
(10.9176 -0.527609 0)
(10.5968 -0.505643 0)
(10.9294 -0.551943 0)
(10.6101 -0.530947 0)
(10.9393 -0.580688 0)
(10.6211 -0.561377 0)
(10.9465 -0.61455 0)
(10.629 -0.598389 0)
(10.9539 -0.657069 0)
(10.6365 -0.64399 0)
(10.9623 -0.703748 0)
(10.6412 -0.687751 0)
(10.9677 -0.74614 0)
(10.6401 -0.724655 0)
(10.9693 -0.7798 0)
(10.639 -0.754559 0)
(10.9691 -0.808478 0)
(10.636 -0.779831 0)
(10.9669 -0.833766 0)
(10.6375 -0.803684 0)
(10.97 -0.861239 0)
(10.65 -0.828957 0)
(10.9784 -0.886143 0)
(10.6693 -0.850666 0)
(10.9891 -0.906146 0)
(10.6894 -0.865655 0)
(11.0008 -0.922924 0)
(10.7086 -0.880408 0)
(11.0095 -0.938629 0)
(10.722 -0.899269 0)
(11.0143 -0.960051 0)
(10.729 -0.917835 0)
(11.0068 -0.976254 0)
(10.7205 -0.927694 0)
(10.9823 -0.987017 0)
(10.6977 -0.935551 0)
(10.9453 -0.996538 0)
(10.664 -0.942135 0)
(10.8968 -1.01005 0)
(10.6283 -0.960282 0)
(10.8532 -1.03598 0)
(10.592 -0.982863 0)
(10.8053 -1.06105 0)
(10.547 -1.00087 0)
(10.7454 -1.08023 0)
(10.4923 -1.00726 0)
(10.6806 -1.08162 0)
(10.4323 -0.999443 0)
(10.6105 -1.07223 0)
(10.3656 -0.979494 0)
(10.5293 -1.0518 0)
(10.2849 -0.950369 0)
(10.4281 -1.02159 0)
(10.1931 -0.919891 0)
(10.3314 -1.00433 0)
(10.1169 -0.905225 0)
(10.2377 -0.989106 0)
(10.0306 -0.881679 0)
(10.1348 -0.967481 0)
(9.93425 -0.855487 0)
(10.0304 -0.949523 0)
(9.84568 -0.828034 0)
(9.94239 -0.928222 0)
(9.76829 -0.798697 0)
(9.87053 -0.897994 0)
(9.696 -0.767501 0)
(9.80473 -0.863756 0)
(9.62681 -0.731777 0)
(9.73105 -0.824697 0)
(9.55044 -0.686086 0)
(9.64656 -0.77581 0)
(9.46842 -0.633732 0)
(9.5615 -0.721661 0)
(9.38631 -0.577652 0)
(9.48774 -0.666932 0)
(9.31166 -0.518068 0)
(9.42043 -0.604377 0)
(9.23802 -0.459232 0)
(9.36043 -0.550979 0)
(9.16979 -0.408937 0)
(9.30038 -0.495748 0)
(9.11014 -0.349461 0)
(9.24987 -0.435561 0)
(9.04969 -0.274439 0)
(9.19567 -0.36252 0)
(8.99293 -0.201664 0)
(9.15358 -0.296892 0)
(8.9423 -0.125192 0)
(9.11393 -0.222112 0)
(8.89308 -0.0524961 0)
(9.08336 -0.156788 0)
(8.85151 0.0198883 0)
(9.05524 -0.0923441 0)
(8.8197 0.104253 0)
(9.04331 -0.0132513 0)
(8.76694 0.192468 0)
(9.02699 0.0737056 0)
(8.72195 0.298785 0)
(8.99524 0.157927 0)
(8.6821 0.406571 0)
(8.96776 0.244487 0)
(8.63177 0.49451 0)
(8.95651 0.317337 0)
(8.60419 0.586567 0)
(8.96627 0.381312 0)
(8.56807 0.67376 0)
(8.99734 0.454995 0)
(8.52191 0.774113 0)
(9.01352 0.529436 0)
(8.46782 0.888098 0)
(9.04143 0.612431 0)
(8.40702 1.01476 0)
(9.06273 0.691193 0)
(8.33382 1.15555 0)
(9.0881 0.779451 0)
(8.24123 1.29538 0)
(9.12232 0.86303 0)
(8.16483 1.42323 0)
(9.12882 0.950283 0)
(8.1095 1.55643 0)
(9.10588 1.05137 0)
(8.06844 1.70693 0)
(9.06742 1.16777 0)
(8.03763 1.89234 0)
(9.03669 1.31157 0)
(8.01245 2.09458 0)
(9.01582 1.47702 0)
(7.99452 2.31671 0)
(8.9804 1.65843 0)
(7.98413 2.56689 0)
(8.96449 1.88716 0)
(7.93919 2.86578 0)
(9.00324 2.15758 0)
(7.84949 3.24995 0)
(9.17498 2.48038 0)
(7.67736 3.79083 0)
(9.56953 2.78335 0)
(7.51294 4.71579 0)
(10.1702 2.90786 0)
(7.83594 6.15033 0)
(10.4268 3.12557 0)
(9.22482 7.21586 0)
(11.7845 -0.0872246 0)
(11.6512 -0.163683 0)
(11.8379 -0.221799 0)
(11.728 -0.21099 0)
(11.9175 -0.207703 0)
(11.7893 -0.167956 0)
(11.9634 -0.160633 0)
(11.8054 -0.129715 0)
(11.9662 -0.136741 0)
(11.7903 -0.117845 0)
(11.9514 -0.136085 0)
(11.7705 -0.124879 0)
(11.941 -0.149606 0)
(11.7611 -0.14122 0)
(11.9428 -0.167774 0)
(11.7631 -0.15845 0)
(11.9535 -0.184175 0)
(11.7709 -0.172431 0)
(11.9674 -0.197011 0)
(11.7797 -0.183529 0)
(11.9807 -0.208234 0)
(11.7867 -0.194445 0)
(11.9914 -0.220537 0)
(11.7905 -0.207153 0)
(11.9983 -0.234858 0)
(11.7907 -0.221589 0)
(12.0016 -0.25037 0)
(11.7876 -0.236353 0)
(12.002 -0.265643 0)
(11.7825 -0.250335 0)
(12.0001 -0.279862 0)
(11.7759 -0.263322 0)
(11.9961 -0.293524 0)
(11.7683 -0.276149 0)
(11.9904 -0.30732 0)
(11.7601 -0.289325 0)
(11.9834 -0.321645 0)
(11.7516 -0.303462 0)
(11.9761 -0.337272 0)
(11.7432 -0.319565 0)
(11.9695 -0.355483 0)
(11.7345 -0.338983 0)
(11.9631 -0.377413 0)
(11.7246 -0.361734 0)
(11.9556 -0.402158 0)
(11.7123 -0.385988 0)
(11.9452 -0.426919 0)
(11.697 -0.408495 0)
(11.9311 -0.44857 0)
(11.679 -0.426601 0)
(11.9129 -0.465462 0)
(11.6597 -0.440065 0)
(11.8927 -0.478906 0)
(11.6426 -0.451884 0)
(11.8741 -0.492576 0)
(11.6299 -0.465522 0)
(11.858 -0.508567 0)
(11.6183 -0.481937 0)
(11.8414 -0.527212 0)
(11.6034 -0.501874 0)
(11.8232 -0.550016 0)
(11.5839 -0.526133 0)
(11.8027 -0.576859 0)
(11.5589 -0.554261 0)
(11.7801 -0.609172 0)
(11.5318 -0.590384 0)
(11.7572 -0.650779 0)
(11.5015 -0.633717 0)
(11.727 -0.695215 0)
(11.4639 -0.674977 0)
(11.6894 -0.734874 0)
(11.4204 -0.710277 0)
(11.6473 -0.768814 0)
(11.3781 -0.740217 0)
(11.6026 -0.797291 0)
(11.3361 -0.766652 0)
(11.5589 -0.825607 0)
(11.3034 -0.7958 0)
(11.5272 -0.857343 0)
(11.2818 -0.82418 0)
(11.5014 -0.8837 0)
(11.2633 -0.846708 0)
(11.476 -0.902222 0)
(11.244 -0.862725 0)
(11.4527 -0.918669 0)
(11.2197 -0.876626 0)
(11.4285 -0.93464 0)
(11.1938 -0.894741 0)
(11.3994 -0.953684 0)
(11.1614 -0.90576 0)
(11.3568 -0.961718 0)
(11.1127 -0.908876 0)
(11.3029 -0.968841 0)
(11.0547 -0.912182 0)
(11.239 -0.975869 0)
(10.9932 -0.917167 0)
(11.1706 -0.992011 0)
(10.9332 -0.934897 0)
(11.095 -1.01579 0)
(10.8653 -0.954935 0)
(11.0136 -1.03621 0)
(10.7914 -0.968506 0)
(10.9274 -1.05134 0)
(10.7121 -0.97306 0)
(10.8353 -1.04954 0)
(10.6232 -0.963333 0)
(10.7322 -1.03655 0)
(10.5247 -0.93874 0)
(10.6141 -1.01041 0)
(10.4127 -0.902025 0)
(10.4826 -0.976602 0)
(10.3079 -0.877992 0)
(10.3662 -0.966328 0)
(10.2014 -0.859759 0)
(10.2396 -0.944229 0)
(10.0835 -0.828203 0)
(10.1066 -0.918635 0)
(9.95756 -0.799506 0)
(9.97695 -0.904156 0)
(9.83843 -0.778645 0)
(9.86298 -0.890208 0)
(9.72819 -0.756839 0)
(9.76931 -0.865161 0)
(9.62838 -0.729027 0)
(9.68134 -0.832613 0)
(9.53337 -0.690894 0)
(9.58449 -0.791474 0)
(9.43623 -0.641389 0)
(9.48518 -0.741314 0)
(9.33472 -0.58709 0)
(9.38655 -0.689125 0)
(9.23872 -0.53669 0)
(9.29078 -0.635622 0)
(9.14994 -0.478197 0)
(9.2043 -0.578918 0)
(9.0704 -0.421187 0)
(9.12997 -0.524915 0)
(8.98243 -0.368266 0)
(9.0559 -0.474837 0)
(8.8994 -0.309156 0)
(8.99121 -0.414313 0)
(8.81666 -0.236361 0)
(8.93868 -0.348728 0)
(8.75543 -0.170354 0)