/*--------------------------------*- C++ -*----------------------------------*\
| =========                 |                                                 |
| \\      /  F ield         | OpenFOAM: The Open Source CFD Toolbox           |
|  \\    /   O peration     | Version:  2.4.0                                 |
|   \\  /    A nd           | Web:      www.OpenFOAM.org                      |
|    \\/     M anipulation  |                                                 |
\*---------------------------------------------------------------------------*/
FoamFile
{
    version     2.0;
    format      ascii;
    class       volSymmTensorField;
    location    "1.58";
    object      UPrime2Mean;
}
// * * * * * * * * * * * * * * * * * * * * * * * * * * * * * * * * * * * * * //

dimensions      [0 2 -2 0 0 0 0];

internalField   nonuniform List<symmTensor> 
8800
(
(0.00109654 5.7973e-05 0 0.000122321 0 0)
(0.0204308 -0.000793188 0 4.6276e-05 0 0)
(0.0401034 -7.37724e-05 0 1.2694e-05 0 0)
(0.0507222 0.000102907 0 7.06328e-06 0 0)
(0.0574428 6.89783e-05 0 5.96118e-06 0 0)
(0.0646212 2.54355e-05 0 7.62895e-06 0 0)
(0.0680275 -9.41938e-06 0 8.89879e-06 0 0)
(0.071716 -6.04021e-05 0 1.15469e-05 0 0)
(0.0745104 -7.7749e-05 0 1.22454e-05 0 0)
(0.0761206 -0.000113291 0 1.51601e-05 0 0)
(0.0791504 -0.000123925 0 1.5229e-05 0 0)
(0.0797325 -0.000163788 0 1.88972e-05 0 0)
(0.0830377 -0.000182504 0 1.83085e-05 0 0)
(0.0836652 -0.000216535 0 2.26496e-05 0 0)
(0.0879661 -0.000299202 0 2.17658e-05 0 0)
(0.089007 -0.000228849 0 2.768e-05 0 0)
(0.0990673 -0.000850115 0 3.04847e-05 0 0)
(0.0974754 0.000972001 0 7.96564e-05 0 0)
(0.159077 -0.0107238 0 0.00111775 0 0)
(0.167606 0.0190531 0 0.00377367 0 0)
(0.00658573 0.00168828 0 0.000745285 0 0)
(0.00183912 -0.000776525 0 0.000990767 0 0)
(0.012824 -0.00128987 0 0.000431232 0 0)
(0.0204471 -0.00155601 0 0.000186775 0 0)
(0.0303891 -0.00140809 0 0.000118238 0 0)
(0.0453236 -0.00134096 0 0.00010116 0 0)
(0.0574938 -0.00166925 0 0.000117496 0 0)
(0.0681549 -0.00117932 0 9.0951e-05 0 0)
(0.0860378 -0.0017599 0 0.00011922 0 0)
(0.086542 -0.00133091 0 0.00010156 0 0)
(0.112048 -0.00193489 0 0.000134022 0 0)
(0.103122 -0.00170403 0 0.000128137 0 0)
(0.135441 -0.00246149 0 0.000174315 0 0)
(0.119419 -0.00219738 0 0.000170955 0 0)
(0.159771 -0.00336355 0 0.000250344 0 0)
(0.135803 -0.00340271 0 0.000283421 0 0)
(0.192938 -0.00376537 0 0.000391445 0 0)
(0.161762 -0.00814736 0 0.00100192 0 0)
(0.27255 -0.00445971 0 0.000793606 0 0)
(0.265444 -0.0354776 0 0.0132897 0 0)
(0.0162971 0.000673675 0 0.000506312 0 0)
(0.0158701 0.000101228 0 0.00119734 0 0)
(0.0412874 -8.00322e-05 0 0.000789088 0 0)
(0.0445894 -0.00126714 0 0.000460264 0 0)
(0.0630436 -0.00123879 0 0.000377317 0 0)
(0.0732639 -0.00190861 0 0.000360537 0 0)
(0.0955412 -0.00373117 0 0.000430212 0 0)
(0.101149 -0.00236997 0 0.000304809 0 0)
(0.141755 -0.00528637 0 0.000409114 0 0)
(0.129038 -0.00344546 0 0.000283466 0 0)
(0.193442 -0.00648537 0 0.000421073 0 0)
(0.156877 -0.00477269 0 0.000335998 0 0)
(0.246376 -0.00858074 0 0.000582669 0 0)
(0.181676 -0.00606255 0 0.000485075 0 0)
(0.303932 -0.0122561 0 0.000984825 0 0)
(0.197827 -0.00734743 0 0.000835692 0 0)
(0.37332 -0.0167707 0 0.00173743 0 0)
(0.213219 -0.0093278 0 0.00203661 0 0)
(0.473218 -0.0227901 0 0.00400115 0 0)
(0.264368 -0.0297008 0 0.0161036 0 0)
(0.0789405 -0.0004667 0 0.000412866 0 0)
(0.0916013 -0.000237684 0 0.000984734 0 0)
(0.142989 -0.00132861 0 0.000820826 0 0)
(0.148417 -0.00260036 0 0.000581061 0 0)
(0.184571 -0.00169129 0 0.000595713 0 0)
(0.190767 -0.00313916 0 0.000629885 0 0)
(0.232179 -0.00588441 0 0.000840151 0 0)
(0.226595 -0.00310611 0 0.000636412 0 0)
(0.292112 -0.00987 0 0.000967848 0 0)
(0.259155 -0.00540363 0 0.000642466 0 0)
(0.360136 -0.0131253 0 0.0010609 0 0)
(0.290224 -0.00850977 0 0.000777671 0 0)
(0.433296 -0.0177925 0 0.00147666 0 0)
(0.317712 -0.0113996 0 0.00109191 0 0)
(0.514341 -0.0253706 0 0.00244177 0 0)
(0.332506 -0.0139211 0 0.00175013 0 0)
(0.609728 -0.0343477 0 0.00391986 0 0)
(0.330261 -0.0168106 0 0.00408475 0 0)
(0.735968 -0.0425276 0 0.00672969 0 0)
(0.319479 -0.0302833 0 0.0225067 0 0)
(0.307164 -0.00164084 0 0.000686736 0 0)
(0.303939 -0.00017169 0 0.00130869 0 0)
(0.340518 -0.00476422 0 0.00158165 0 0)
(0.327857 -0.00490621 0 0.00118328 0 0)
(0.355779 -0.00502811 0 0.00129945 0 0)
(0.346304 -0.00681458 0 0.00119606 0 0)
(0.381767 -0.00997358 0 0.0018417 0 0)
(0.363805 -0.00614921 0 0.00135402 0 0)
(0.419593 -0.0153316 0 0.00231718 0 0)
(0.382062 -0.0085459 0 0.00156324 0 0)
(0.461421 -0.0197735 0 0.00270189 0 0)
(0.401614 -0.0125907 0 0.00186361 0 0)
(0.504128 -0.0257625 0 0.00355014 0 0)
(0.422174 -0.0164756 0 0.00237833 0 0)
(0.54878 -0.0353998 0 0.005164 0 0)
(0.438493 -0.0204764 0 0.00322553 0 0)
(0.599983 -0.0475563 0 0.00750302 0 0)
(0.443517 -0.0253858 0 0.00588567 0 0)
(0.669437 -0.0602629 0 0.0116801 0 0)
(0.423919 -0.0327066 0 0.0266071 0 0)
(0.387155 -0.00636957 0 0.00226912 0 0)
(0.332607 -0.00140574 0 0.00308189 0 0)
(0.324885 -0.00860462 0 0.00390167 0 0)
(0.279405 -0.00677695 0 0.00252727 0 0)
(0.289305 -0.00943813 0 0.00345093 0 0)
(0.266183 -0.00890011 0 0.00282649 0 0)
(0.272491 -0.0124349 0 0.00407786 0 0)
(0.255513 -0.0082969 0 0.00296166 0 0)
(0.267629 -0.0158079 0 0.00487737 0 0)
(0.253079 -0.0104537 0 0.00328284 0 0)
(0.265984 -0.0190433 0 0.00551006 0 0)
(0.256291 -0.0139923 0 0.00391148 0 0)
(0.264625 -0.0226224 0 0.00670433 0 0)
(0.266335 -0.0174239 0 0.00471405 0 0)
(0.260866 -0.0280667 0 0.00902604 0 0)
(0.282762 -0.021596 0 0.00586638 0 0)
(0.253699 -0.0344737 0 0.0126303 0 0)
(0.30572 -0.0272162 0 0.00883909 0 0)
(0.245993 -0.0396776 0 0.020552 0 0)
(0.333328 -0.0359656 0 0.025126 0 0)
(0.182669 -0.010158 0 0.00423346 0 0)
(0.162737 -0.00874441 0 0.006258 0 0)
(0.152019 -0.00803765 0 0.00609795 0 0)
(0.141112 -0.0115504 0 0.00518877 0 0)
(0.137824 -0.0103324 0 0.00630971 0 0)
(0.139796 -0.0106597 0 0.0056283 0 0)
(0.13486 -0.0110694 0 0.00633307 0 0)
(0.137253 -0.0107487 0 0.00575031 0 0)
(0.137811 -0.0117862 0 0.00699793 0 0)
(0.14012 -0.0117258 0 0.00620555 0 0)
(0.138218 -0.0135253 0 0.00783866 0 0)
(0.147866 -0.0129343 0 0.00703152 0 0)
(0.142172 -0.0142037 0 0.00924434 0 0)
(0.159082 -0.0145855 0 0.00829744 0 0)
(0.144721 -0.0144112 0 0.0117017 0 0)
(0.175265 -0.0165963 0 0.0100734 0 0)
(0.146441 -0.0128952 0 0.0156957 0 0)
(0.199162 -0.0187572 0 0.0145761 0 0)
(0.149226 -0.00578617 0 0.0248037 0 0)
(0.234003 -0.0182685 0 0.0370225 0 0)
(0.162113 -0.0120386 0 0.00523552 0 0)
(0.197629 -0.019284 0 0.0104691 0 0)
(0.158317 -0.00882454 0 0.00821404 0 0)
(0.200364 -0.0144516 0 0.00712127 0 0)
(0.173565 -0.0120557 0 0.00827159 0 0)
(0.197442 -0.0118237 0 0.00819704 0 0)
(0.193921 -0.0101188 0 0.00759122 0 0)
(0.202033 -0.011987 0 0.00831203 0 0)
(0.208526 -0.00947639 0 0.00849107 0 0)
(0.207708 -0.0113591 0 0.00858266 0 0)
(0.222192 -0.00914093 0 0.00918356 0 0)
(0.214654 -0.0107805 0 0.00978386 0 0)
(0.240734 -0.00714411 0 0.0104885 0 0)
(0.225708 -0.0106974 0 0.0112287 0 0)
(0.254577 -0.00381736 0 0.0128091 0 0)
(0.240225 -0.0100845 0 0.0133975 0 0)
(0.273149 0.00206675 0 0.01641 0 0)
(0.259962 -0.00821324 0 0.0193471 0 0)
(0.291683 0.0145967 0 0.0253651 0 0)
(0.287596 -0.00095737 0 0.043286 0 0)
(0.276099 -0.00874964 0 0.00500584 0 0)
(0.308839 -0.0185013 0 0.013353 0 0)
(0.266387 -0.00588707 0 0.00932088 0 0)
(0.274573 -0.00923769 0 0.00827178 0 0)
(0.302588 -0.00703311 0 0.00821558 0 0)
(0.260918 -0.00701145 0 0.00917871 0 0)
(0.338583 -0.00456295 0 0.00767372 0 0)
(0.25937 -0.00679812 0 0.0092693 0 0)
(0.357134 -0.00220984 0 0.00821717 0 0)
(0.263751 -0.00664676 0 0.00988388 0 0)
(0.368962 -2.82075e-05 0 0.00882557 0 0)
(0.273835 -0.00531736 0 0.0108614 0 0)
(0.384572 0.0029908 0 0.0101125 0 0)
(0.28749 -0.00456308 0 0.0124248 0 0)
(0.402658 0.00737359 0 0.0115955 0 0)
(0.304692 -0.00283973 0 0.0145882 0 0)
(0.420034 0.0144144 0 0.0143455 0 0)
(0.329538 0.000633539 0 0.0201407 0 0)
(0.438673 0.0276633 0 0.0213131 0 0)
(0.374976 0.00675647 0 0.0371502 0 0)
(0.308806 -0.00424764 0 0.00364966 0 0)
(0.343081 -0.00859432 0 0.0101944 0 0)
(0.331281 -0.00089405 0 0.00610606 0 0)
(0.284727 -0.00177333 0 0.00626749 0 0)
(0.355999 -0.000799527 0 0.00559267 0 0)
(0.274942 -0.00101076 0 0.00674537 0 0)
(0.368027 0.00141061 0 0.00521334 0 0)
(0.275065 -0.000673416 0 0.0069909 0 0)
(0.36792 0.00379194 0 0.00560659 0 0)
(0.280181 -0.000408747 0 0.00731384 0 0)
(0.37509 0.00499642 0 0.00612212 0 0)
(0.296616 0.000930167 0 0.00786146 0 0)
(0.383856 0.00788878 0 0.00684583 0 0)
(0.315672 0.00185363 0 0.00886695 0 0)
(0.393959 0.0116008 0 0.00756318 0 0)
(0.341289 0.004476 0 0.0101874 0 0)
(0.407635 0.017351 0 0.00884788 0 0)
(0.381905 0.00970867 0 0.0134503 0 0)
(0.427156 0.0276743 0 0.0129015 0 0)
(0.463686 0.0161787 0 0.0242858 0 0)
(0.209186 -0.00155781 0 0.00271758 0 0)
(0.239864 -0.00152586 0 0.0063111 0 0)
(0.227639 0.00209447 0 0.0042987 0 0)
(0.203101 0.00333375 0 0.00398085 0 0)
(0.23686 0.00205019 0 0.00476697 0 0)
(0.205444 0.00307164 0 0.00482686 0 0)
(0.238083 0.00355352 0 0.00462762 0 0)
(0.20942 0.0043008 0 0.00510592 0 0)
(0.237956 0.00507645 0 0.00483269 0 0)
(0.21892 0.00521974 0 0.00535111 0 0)
(0.237466 0.00636952 0 0.00518563 0 0)
(0.238175 0.00653385 0 0.00561117 0 0)
(0.242914 0.00858322 0 0.00555357 0 0)
(0.254349 0.00837584 0 0.0061285 0 0)
(0.24939 0.0111392 0 0.00596574 0 0)
(0.278057 0.0119705 0 0.00682677 0 0)
(0.256092 0.0147283 0 0.00674102 0 0)
(0.31625 0.0185327 0 0.00842799 0 0)
(0.261666 0.0214972 0 0.00933302 0 0)
(0.387737 0.0274056 0 0.0151776 0 0)
(0.0909119 -0.000382589 0 0.00240638 0 0)
(0.102304 0.000665204 0 0.00521837 0 0)
(0.0919419 0.00142179 0 0.00404873 0 0)
(0.0966236 0.00275956 0 0.00396409 0 0)
(0.0978309 0.00151898 0 0.00436548 0 0)
(0.102044 0.00248794 0 0.00463255 0 0)
(0.102034 0.00167901 0 0.00444018 0 0)
(0.107728 0.00388571 0 0.00490835 0 0)
(0.103042 0.00251892 0 0.00443424 0 0)
(0.118356 0.00476026 0 0.00496015 0 0)
(0.102227 0.00336079 0 0.00457733 0 0)
(0.131771 0.00569375 0 0.00507299 0 0)
(0.106256 0.00429882 0 0.00470736 0 0)
(0.145021 0.00693737 0 0.00527773 0 0)
(0.11009 0.00495445 0 0.00474018 0 0)
(0.162824 0.00937782 0 0.00549433 0 0)
(0.11197 0.00608492 0 0.00497989 0 0)
(0.189547 0.0135382 0 0.00634369 0 0)
(0.113356 0.00952834 0 0.00639066 0 0)
(0.238739 0.0193526 0 0.0105114 0 0)
(0.0301761 -0.000137899 0 0.00197058 0 0)
(0.032981 0.000224356 0 0.00431102 0 0)
(0.0299629 -0.000364041 0 0.00353331 0 0)
(0.0390583 0.000731179 0 0.00326065 0 0)
(0.0359991 0.000261077 0 0.00331651 0 0)
(0.0409749 0.000922234 0 0.00349398 0 0)
(0.0393606 8.43198e-05 0 0.00348809 0 0)
(0.0459821 0.00160445 0 0.0038549 0 0)
(0.0408699 0.000213562 0 0.00341546 0 0)
(0.0525345 0.00225513 0 0.00367051 0 0)
(0.0414088 0.000942595 0 0.00335596 0 0)
(0.0580037 0.0026767 0 0.0036878 0 0)
(0.0439153 0.00128594 0 0.00346385 0 0)
(0.0647781 0.00314751 0 0.00359052 0 0)
(0.0472841 0.00147762 0 0.00323662 0 0)
(0.0727836 0.00434042 0 0.00341761 0 0)
(0.050389 0.00225243 0 0.0031654 0 0)
(0.0848241 0.00653955 0 0.00369492 0 0)
(0.0560562 0.00490441 0 0.00396959 0 0)
(0.108012 0.0106323 0 0.00613644 0 0)
(0.0091628 -0.000260809 0 0.00142863 0 0)
(0.00665672 -0.000659658 0 0.00323596 0 0)
(0.00787382 -0.00143564 0 0.00288313 0 0)
(0.011693 -0.000606458 0 0.00224123 0 0)
(0.011778 -0.000248166 0 0.00231693 0 0)
(0.0132594 -0.000301129 0 0.0022424 0 0)
(0.0148733 -0.000345182 0 0.00239466 0 0)
(0.0163101 -0.000322523 0 0.00256673 0 0)
(0.0178518 -0.000697228 0 0.00232502 0 0)
(0.0202476 -8.68145e-06 0 0.00229294 0 0)
(0.0193982 -0.000162885 0 0.00215343 0 0)
(0.0228168 0.000165164 0 0.00221271 0 0)
(0.0215665 -0.000157391 0 0.00221928 0 0)
(0.0267247 3.47354e-06 0 0.00211903 0 0)
(0.0249222 -6.75285e-05 0 0.00195971 0 0)
(0.0314544 0.000531349 0 0.00185033 0 0)
(0.0292938 0.000669105 0 0.00175984 0 0)
(0.039436 0.00205347 0 0.00197213 0 0)
(0.0382289 0.00319797 0 0.0022656 0 0)
(0.0550558 0.00690025 0 0.0038099 0 0)
(0.00767463 -0.000390126 0 0.00105963 0 0)
(0.00329536 -0.000912168 0 0.00254408 0 0)
(0.0046197 -0.00156199 0 0.00235094 0 0)
(0.00615908 -0.00103722 0 0.0017018 0 0)
(0.00792332 -0.00052053 0 0.00177854 0 0)
(0.00776638 -0.00050312 0 0.00170435 0 0)
(0.00959305 -0.000611787 0 0.00193983 0 0)
(0.00993746 -0.000999394 0 0.00207239 0 0)
(0.0125399 -0.00104043 0 0.00191885 0 0)
(0.0127994 -0.000724987 0 0.00180339 0 0)
(0.0147598 -0.00052176 0 0.00166622 0 0)
(0.014821 -0.000469215 0 0.00164447 0 0)
(0.0168463 -0.000467127 0 0.00162879 0 0)
(0.0175306 -0.00069558 0 0.00151218 0 0)
(0.0198986 -0.000488951 0 0.00136258 0 0)
(0.0209038 -0.000386672 0 0.00121142 0 0)
(0.0239045 0.000203838 0 0.00108016 0 0)
(0.0269016 0.000872126 0 0.00110426 0 0)
(0.0320444 0.00250434 0 0.0012751 0 0)
(0.0398731 0.0050786 0 0.00209334 0 0)
(0.00938675 -0.000378662 0 0.000631396 0 0)
(0.00527043 -0.000263715 0 0.00167654 0 0)
(0.00542008 -0.000931865 0 0.00161123 0 0)
(0.00655741 -0.000703366 0 0.00119473 0 0)
(0.00864397 -0.000366577 0 0.00134729 0 0)
(0.00804952 -0.000160757 0 0.00122098 0 0)
(0.0103318 -0.000323665 0 0.0013487 0 0)
(0.00942817 -0.000378948 0 0.00145279 0 0)
(0.0114734 -0.000530402 0 0.00138206 0 0)
(0.00995928 -0.000153827 0 0.00128551 0 0)
(0.0119019 -0.000146563 0 0.00114492 0 0)
(0.0100189 8.47768e-05 0 0.00107365 0 0)
(0.0116597 4.39257e-06 0 0.00101696 0 0)
(0.00965948 -7.7891e-06 0 0.000940499 0 0)
(0.0112992 -2.17831e-05 0 0.000825499 0 0)
(0.0095695 2.89106e-05 0 0.000745317 0 0)
(0.0115748 0.000360216 0 0.000612962 0 0)
(0.0112937 0.000674831 0 0.000617769 0 0)
(0.0150143 0.00177834 0 0.000694543 0 0)
(0.0189767 0.00298953 0 0.00115057 0 0)
(0.00813106 -0.000602846 0 0.000393192 0 0)
(0.00428886 -3.20062e-06 0 0.00115381 0 0)
(0.00467843 -0.000339861 0 0.000985412 0 0)
(0.00628129 -0.000298986 0 0.000672295 0 0)
(0.00777445 -0.000105555 0 0.000804556 0 0)
(0.00680237 7.78255e-05 0 0.00076415 0 0)
(0.00763419 0.000150372 0 0.000795355 0 0)
(0.00602794 0.000472569 0 0.000806457 0 0)
(0.00580998 0.000477033 0 0.000734962 0 0)
(0.00473032 0.000816531 0 0.000660068 0 0)
(0.00428327 0.00071548 0 0.000579857 0 0)
(0.00418718 0.000951393 0 0.000535113 0 0)
(0.0034058 0.000779491 0 0.000497492 0 0)
(0.0042136 0.0009158 0 0.000462353 0 0)
(0.00336321 0.000612109 0 0.000398668 0 0)
(0.00497731 0.000776605 0 0.000374982 0 0)
(0.00440847 0.000437612 0 0.000312478 0 0)
(0.00663131 0.000789232 0 0.000317169 0 0)
(0.00733804 0.000716443 0 0.00042479 0 0)
(0.0106794 0.00151537 0 0.000588 0 0)
(0.00652035 -0.00120891 0 0.000462059 0 0)
(0.00204395 -0.000355342 0 0.00117257 0 0)
(0.00221771 -4.99303e-05 0 0.000764411 0 0)
(0.00301329 0.000145454 0 0.000447809 0 0)
(0.00313524 0.00056327 0 0.000427499 0 0)
(0.00328557 0.000891349 0 0.000382557 0 0)
(0.00512377 0.00108504 0 0.000361667 0 0)
(0.00805531 0.00128142 0 0.000338918 0 0)
(0.0100655 0.00119671 0 0.000292537 0 0)
(0.0148867 0.00123103 0 0.00025503 0 0)
(0.0158407 0.00105045 0 0.000222068 0 0)
(0.0219056 0.00108147 0 0.000206294 0 0)
(0.0212875 0.000884813 0 0.000198159 0 0)
(0.0282663 0.00093724 0 0.00018436 0 0)
(0.0263161 0.000570158 0 0.000163976 0 0)
(0.0334075 0.000716739 0 0.000155371 0 0)
(0.0306713 4.28591e-05 0 0.000138116 0 0)
(0.0359249 0.000524593 0 0.000146743 0 0)
(0.0338954 -0.00042658 0 0.000201345 0 0)
(0.0352251 0.000964371 0 0.000376953 0 0)
(0.00575712 -0.00180169 0 0.000730187 0 0)
(0.000990985 0.000695321 0 0.000976583 0 0)
(0.00541118 0.00138138 0 0.000415057 0 0)
(0.0107509 0.00121243 0 0.000173008 0 0)
(0.0168802 0.00118654 0 0.000120152 0 0)
(0.0247057 0.00107013 0 9.62356e-05 0 0)
(0.0321658 0.000898362 0 8.78361e-05 0 0)
(0.0401339 0.000768287 0 8.19159e-05 0 0)
(0.0449849 0.000617924 0 7.63662e-05 0 0)
(0.0519796 0.000549957 0 7.27283e-05 0 0)
(0.0542162 0.000450019 0 6.97967e-05 0 0)
(0.0608624 0.000446159 0 6.7134e-05 0 0)
(0.0610267 0.000352822 0 6.67266e-05 0 0)
(0.06779 0.000375073 0 6.12248e-05 0 0)
(0.0662048 0.000180731 0 5.61725e-05 0 0)
(0.0724937 0.000223509 0 5.06471e-05 0 0)
(0.069272 -0.000187942 0 4.78457e-05 0 0)
(0.0725047 7.53767e-05 0 4.74983e-05 0 0)
(0.0698679 -0.000743454 0 6.94783e-05 0 0)
(0.0649087 0.000386439 0 0.000207587 0 0)
(0.00106756 -6.29934e-05 0 0.000121364 0 0)
(0.0204212 0.000794225 0 4.48597e-05 0 0)
(0.0398447 7.32638e-05 0 1.14345e-05 0 0)
(0.0496176 -0.000121211 0 5.29097e-06 0 0)
(0.0568841 -8.91028e-05 0 4.53212e-06 0 0)
(0.0624557 -6.86378e-05 0 4.96553e-06 0 0)
(0.066026 -4.52648e-05 0 6.00285e-06 0 0)
(0.0690673 -2.0075e-05 0 6.43741e-06 0 0)
(0.0707571 -1.09808e-05 0 7.11339e-06 0 0)
(0.0729315 4.25704e-07 0 7.18329e-06 0 0)
(0.0736542 -3.91766e-06 0 7.30897e-06 0 0)
(0.0754701 6.37272e-06 0 6.93624e-06 0 0)
(0.0755891 -7.06444e-06 0 6.74145e-06 0 0)
(0.0772746 2.53508e-06 0 5.97388e-06 0 0)
(0.0767253 -3.15464e-05 0 5.48478e-06 0 0)
(0.0779159 -2.81077e-05 0 4.5699e-06 0 0)
(0.076183 -9.31323e-05 0 4.1598e-06 0 0)
(0.0756993 -7.67712e-05 0 3.66054e-06 0 0)
(0.0734966 -0.000274589 0 4.63373e-06 0 0)
(0.0664915 0.000369528 0 2.65382e-05 0 0)
(0.316077 -0.152383 0 0.0948494 0 0)
(0.343669 -0.180593 0 0.133343 0 0)
(0.349723 -0.171786 0 0.158808 0 0)
(0.369718 -0.151928 0 0.177271 0 0)
(0.376356 -0.12783 0 0.188096 0 0)
(0.443719 -0.113801 0 0.195698 0 0)
(0.476279 -0.107685 0 0.202757 0 0)
(0.580809 -0.119875 0 0.213473 0 0)
(0.631039 -0.134733 0 0.225972 0 0)
(0.737624 -0.157576 0 0.239138 0 0)
(0.775155 -0.172661 0 0.25321 0 0)
(0.871829 -0.1931 0 0.27098 0 0)
(0.899161 -0.202109 0 0.289533 0 0)
(0.997148 -0.221145 0 0.306589 0 0)
(1.02748 -0.231861 0 0.318159 0 0)
(1.13346 -0.259099 0 0.327956 0 0)
(1.16343 -0.280435 0 0.340293 0 0)
(1.27843 -0.320232 0 0.359127 0 0)
(1.30709 -0.345236 0 0.384922 0 0)
(1.45013 -0.387847 0 0.417765 0 0)
(1.50447 -0.409668 0 0.446075 0 0)
(1.68433 -0.460189 0 0.477038 0 0)
(1.74935 -0.489769 0 0.507478 0 0)
(1.94503 -0.551562 0 0.542136 0 0)
(2.01444 -0.581489 0 0.57599 0 0)
(2.21691 -0.650672 0 0.616479 0 0)
(2.29874 -0.677293 0 0.655759 0 0)
(2.50467 -0.76075 0 0.700543 0 0)
(2.60984 -0.791712 0 0.745317 0 0)
(2.81671 -0.890999 0 0.799534 0 0)
(2.94736 -0.928612 0 0.855717 0 0)
(3.16709 -1.03949 0 0.918427 0 0)
(3.31689 -1.0827 0 0.979177 0 0)
(3.5653 -1.20816 0 1.04643 0 0)
(3.71498 -1.25833 0 1.10928 0 0)
(3.98737 -1.39915 0 1.17882 0 0)
(4.10315 -1.44351 0 1.23819 0 0)
(4.38274 -1.59086 0 1.30528 0 0)
(4.44914 -1.61841 0 1.36043 0 0)
(4.7253 -1.76597 0 1.4257 0 0)
(4.73749 -1.76273 0 1.47959 0 0)
(4.99591 -1.90488 0 1.54174 0 0)
(4.9625 -1.87131 0 1.59135 0 0)
(5.21628 -2.00832 0 1.65309 0 0)
(5.15924 -1.96078 0 1.7028 0 0)
(5.4311 -2.09877 0 1.76776 0 0)
(5.37103 -2.04684 0 1.81709 0 0)
(5.68243 -2.18559 0 1.89085 0 0)
(5.62649 -2.14038 0 1.94426 0 0)
(5.99369 -2.27906 0 2.0281 0 0)
(5.92121 -2.24286 0 2.08923 0 0)
(6.34807 -2.38515 0 2.18393 0 0)
(6.21198 -2.33949 0 2.25227 0 0)
(6.68038 -2.4859 0 2.35099 0 0)
(6.43965 -2.40313 0 2.40924 0 0)
(6.92446 -2.55063 0 2.49654 0 0)
(6.57028 -2.41794 0 2.52894 0 0)
(7.07528 -2.57221 0 2.59589 0 0)
(6.62266 -2.40969 0 2.61072 0 0)
(7.18416 -2.5828 0 2.66835 0 0)
(6.63051 -2.41839 0 2.68639 0 0)
(7.28302 -2.61437 0 2.75417 0 0)
(6.59975 -2.44559 0 2.78586 0 0)
(7.33326 -2.64906 0 2.86662 0 0)
(6.50925 -2.44676 0 2.89514 0 0)
(7.30015 -2.6276 0 2.96819 0 0)
(6.37587 -2.38054 0 2.95632 0 0)
(7.24115 -2.51479 0 2.98576 0 0)
(6.25705 -2.26129 0 2.94998 0 0)
(7.26597 -2.40657 0 2.98791 0 0)
(6.21786 -2.16705 0 2.97957 0 0)
(7.39798 -2.34793 0 3.02294 0 0)
(6.24991 -2.09499 0 3.01238 0 0)
(7.61787 -2.34297 0 3.05849 0 0)
(6.33705 -2.0645 0 3.07227 0 0)
(7.86233 -2.38779 0 3.15584 0 0)
(6.47419 -2.06875 0 3.19675 0 0)
(8.06783 -2.44372 0 3.32379 0 0)
(6.60182 -2.09308 0 3.37769 0 0)
(8.2197 -2.47217 0 3.53118 0 0)
(6.64821 -2.1061 0 3.57741 0 0)
(8.33223 -2.4801 0 3.71674 0 0)
(6.6334 -2.10768 0 3.74014 0 0)
(8.42001 -2.49577 0 3.86752 0 0)
(6.61604 -2.10423 0 3.87139 0 0)
(8.43528 -2.49445 0 4.00184 0 0)
(6.64878 -2.0949 0 4.0143 0 0)
(8.45184 -2.48638 0 4.18529 0 0)
(6.73765 -2.10858 0 4.22607 0 0)
(8.56299 -2.50017 0 4.42492 0 0)
(6.88197 -2.16309 0 4.48181 0 0)
(8.75467 -2.58857 0 4.67811 0 0)
(7.10757 -2.26541 0 4.74227 0 0)
(9.01387 -2.71905 0 4.9613 0 0)
(7.36537 -2.37436 0 5.03959 0 0)
(9.24833 -2.84742 0 5.29633 0 0)
(7.60557 -2.46216 0 5.38987 0 0)
(9.42008 -2.93748 0 5.68393 0 0)
(7.76723 -2.50715 0 5.78169 0 0)
(9.42663 -2.95014 0 6.10729 0 0)
(7.78423 -2.48305 0 6.24288 0 0)
(9.36876 -2.94205 0 6.61436 0 0)
(7.66893 -2.44117 0 6.77234 0 0)
(9.28222 -2.91556 0 7.15635 0 0)
(7.47787 -2.37959 0 7.21746 0 0)
(9.16342 -2.87726 0 7.54323 0 0)
(7.28631 -2.25504 0 7.52405 0 0)
(9.01343 -2.7476 0 7.76152 0 0)
(7.15983 -2.06984 0 7.66849 0 0)
(8.87159 -2.5863 0 7.9075 0 0)
(7.106 -1.92561 0 7.79288 0 0)
(8.74968 -2.46251 0 8.02054 0 0)
(7.12509 -1.80314 0 7.88181 0 0)
(8.67339 -2.34241 0 8.12545 0 0)
(7.19239 -1.64883 0 7.99447 0 0)
(8.57648 -2.17607 0 8.25561 0 0)
(7.24779 -1.51272 0 8.1828 0 0)
(8.46043 -2.02024 0 8.49087 0 0)
(7.331 -1.4304 0 8.48032 0 0)
(8.42862 -1.90885 0 8.83543 0 0)
(7.4749 -1.39953 0 8.89521 0 0)
(8.42631 -1.83772 0 9.2538 0 0)
(7.55814 -1.35267 0 9.35137 0 0)
(8.37391 -1.76978 0 9.6989 0 0)
(7.5489 -1.31313 0 9.7646 0 0)
(8.29479 -1.70367 0 10.0609 0 0)
(7.44593 -1.2553 0 10.128 0 0)
(8.18341 -1.64892 0 10.3963 0 0)
(7.37299 -1.24212 0 10.4639 0 0)
(8.03067 -1.64112 0 10.6707 0 0)
(7.39312 -1.32864 0 10.8104 0 0)
(7.91349 -1.66492 0 11.0345 0 0)
(7.49542 -1.4415 0 11.1877 0 0)
(7.86467 -1.65541 0 11.3651 0 0)
(7.60748 -1.52361 0 11.5161 0 0)
(7.85934 -1.61927 0 11.6708 0 0)
(7.72464 -1.54127 0 11.8262 0 0)
(7.92247 -1.56693 0 12.0355 0 0)
(7.81525 -1.52643 0 12.2545 0 0)
(7.98813 -1.51117 0 12.4594 0 0)
(7.84971 -1.49808 0 12.7072 0 0)
(7.96773 -1.43022 0 12.8294 0 0)
(7.89565 -1.44791 0 13.0698 0 0)
(7.90162 -1.3137 0 13.2184 0 0)
(7.83305 -1.33217 0 13.4546 0 0)
(7.75709 -1.1599 0 13.5204 0 0)
(7.73783 -1.1408 0 13.6069 0 0)
(7.63712 -1.01196 0 13.6382 0 0)
(7.65791 -0.904658 0 13.7596 0 0)
(7.52144 -0.845073 0 13.7937 0 0)
(7.54874 -0.692362 0 13.8278 0 0)
(7.39341 -0.656282 0 13.7896 0 0)
(7.39308 -0.463799 0 13.8274 0 0)
(7.28849 -0.456148 0 13.7982 0 0)
(7.27582 -0.286817 0 13.8679 0 0)
(7.19375 -0.304259 0 13.8205 0 0)
(7.22217 -0.16082 0 13.9138 0 0)
(7.18073 -0.150626 0 13.8478 0 0)
(7.19152 -0.0621021 0 13.9439 0 0)
(7.06692 -0.0818827 0 13.8945 0 0)
(7.07575 -0.0103121 0 14.0279 0 0)
(6.90775 -0.0345622 0 14.0316 0 0)
(6.89387 -0.00482514 0 14.1111 0 0)
(6.7658 -0.0380918 0 14.0902 0 0)
(6.81736 -0.0175152 0 14.085 0 0)
(6.67625 -0.116372 0 14.0224 0 0)
(6.75753 -0.0685383 0 14.0068 0 0)
(6.57948 -0.300943 0 13.9296 0 0)
(6.66195 -0.16313 0 13.875 0 0)
(6.5392 -0.494981 0 13.6981 0 0)
(6.54089 -0.368563 0 13.5278 0 0)
(6.58735 -0.716908 0 13.4117 0 0)
(6.36666 -0.526819 0 13.0015 0 0)
(6.69519 -0.97952 0 12.7749 0 0)
(6.3023 -0.577029 0 12.3272 0 0)
(6.7081 -1.06614 0 12.0613 0 0)
(6.35775 -0.595031 0 11.6813 0 0)
(6.76196 -1.08204 0 11.2505 0 0)
(6.41515 -0.652004 0 11.0708 0 0)
(6.78564 -0.969145 0 10.5181 0 0)
(6.43333 -0.746949 0 10.5372 0 0)
(6.68572 -0.846389 0 9.74647 0 0)
(6.29715 -0.868238 0 10.105 0 0)
(6.47603 -0.691773 0 8.98244 0 0)
(6.13136 -0.967187 0 9.71767 0 0)
(6.19973 -0.43922 0 8.32596 0 0)
(5.94037 -1.03793 0 9.44441 0 0)
(5.83559 -0.148587 0 7.86315 0 0)
(5.62218 -1.00248 0 9.39997 0 0)
(5.46844 0.277693 0 7.69368 0 0)
(5.1881 -0.85192 0 9.64005 0 0)
(5.10171 0.813073 0 7.81947 0 0)
(4.71274 -0.558863 0 10.4229 0 0)
(4.53516 1.4292 0 8.44507 0 0)
(4.31961 -0.0676035 0 11.9401 0 0)
(3.92826 2.36363 0 10.0159 0 0)
(3.82628 0.311566 0 14.2496 0 0)
(3.08769 3.58662 0 12.9529 0 0)
(3.47801 2.27679 0 19.5557 0 0)
(1.14382 0.643746 0 21.4689 0 0)
(0.296183 -0.12602 0 0.106974 0 0)
(0.262379 -0.134241 0 0.139313 0 0)
(0.280985 -0.119983 0 0.14677 0 0)
(0.246452 -0.1102 0 0.150815 0 0)
(0.268964 -0.0963935 0 0.15057 0 0)
(0.265187 -0.0973367 0 0.14982 0 0)
(0.30479 -0.101038 0 0.152975 0 0)
(0.319222 -0.117832 0 0.162012 0 0)
(0.370459 -0.129151 0 0.172332 0 0)
(0.383084 -0.147609 0 0.183381 0 0)
(0.432463 -0.156691 0 0.19506 0 0)
(0.439307 -0.174925 0 0.210172 0 0)
(0.489963 -0.182535 0 0.225414 0 0)
(0.505393 -0.202306 0 0.24121 0 0)
(0.565638 -0.210842 0 0.254829 0 0)
(0.601341 -0.238592 0 0.26976 0 0)
(0.6751 -0.255751 0 0.285865 0 0)
(0.733699 -0.298375 0 0.306661 0 0)
(0.814634 -0.321641 0 0.328667 0 0)
(0.886435 -0.371061 0 0.355645 0 0)
(0.966721 -0.391845 0 0.38175 0 0)
(1.05379 -0.445077 0 0.411653 0 0)
(1.1367 -0.46448 0 0.440566 0 0)
(1.24317 -0.526306 0 0.474466 0 0)
(1.32908 -0.54436 0 0.507361 0 0)
(1.45753 -0.616114 0 0.54809 0 0)
(1.55411 -0.634182 0 0.5876 0 0)
(1.70929 -0.719145 0 0.635248 0 0)
(1.82309 -0.744238 0 0.680198 0 0)
(2.00191 -0.846005 0 0.735163 0 0)
(2.1244 -0.879779 0 0.786382 0 0)
(2.32062 -0.995963 0 0.847583 0 0)
(2.43137 -1.03074 0 0.902493 0 0)
(2.64117 -1.15759 0 0.967474 0 0)
(2.71825 -1.18424 0 1.02367 0 0)
(2.93993 -1.31966 0 1.08954 0 0)
(2.96027 -1.3257 0 1.14463 0 0)
(3.19023 -1.46572 0 1.20741 0 0)
(3.14563 -1.44469 0 1.25975 0 0)
(3.38771 -1.59043 0 1.31963 0 0)
(3.29075 -1.54112 0 1.36803 0 0)
(3.54722 -1.68936 0 1.42826 0 0)
(3.42167 -1.623 0 1.47335 0 0)
(3.70236 -1.77381 0 1.53902 0 0)
(3.57055 -1.70261 0 1.58422 0 0)
(3.88122 -1.85896 0 1.66154 0 0)
(3.75474 -1.79178 0 1.71141 0 0)
(4.09861 -1.95308 0 1.79727 0 0)
(3.96318 -1.88577 0 1.85082 0 0)
(4.34304 -2.04986 0 1.94049 0 0)
(4.16347 -1.96599 0 1.99574 0 0)
(4.58561 -2.13602 0 2.08627 0 0)
(4.32851 -2.01429 0 2.13706 0 0)
(4.79174 -2.19151 0 2.22157 0 0)
(4.4436 -2.01823 0 2.26181 0 0)
(4.94559 -2.21071 0 2.33476 0 0)
(4.52117 -1.99116 0 2.35942 0 0)
(5.06381 -2.20719 0 2.42544 0 0)
(4.59427 -1.97229 0 2.44255 0 0)
(5.181 -2.2121 0 2.52126 0 0)
(4.67552 -1.99325 0 2.54148 0 0)
(5.30908 -2.23496 0 2.63115 0 0)
(4.74424 -2.03345 0 2.64958 0 0)
(5.4213 -2.2408 0 2.73119 0 0)
(4.76046 -2.03185 0 2.73398 0 0)
(5.48915 -2.19164 0 2.78328 0 0)
(4.71761 -1.95526 0 2.75872 0 0)
(5.54884 -2.10913 0 2.79247 0 0)
(4.69042 -1.863 0 2.77574 0 0)
(5.6578 -2.06072 0 2.83565 0 0)
(4.72467 -1.79795 0 2.82797 0 0)
(5.8382 -2.04107 0 2.90288 0 0)
(4.82761 -1.75094 0 2.89451 0 0)
(6.07125 -2.06102 0 2.97878 0 0)
(4.98609 -1.73691 0 2.98701 0 0)
(6.3101 -2.11701 0 3.10299 0 0)
(5.17251 -1.75435 0 3.13622 0 0)
(6.50786 -2.16402 0 3.28364 0 0)
(5.31938 -1.75886 0 3.32136 0 0)
(6.63855 -2.1689 0 3.48164 0 0)
(5.3778 -1.74879 0 3.51211 0 0)
(6.74066 -2.17121 0 3.66006 0 0)
(5.42651 -1.75637 0 3.67791 0 0)
(6.82779 -2.1863 0 3.80729 0 0)
(5.51537 -1.79512 0 3.79962 0 0)
(6.92513 -2.19599 0 3.94509 0 0)
(5.64444 -1.84819 0 3.96105 0 0)
(7.06749 -2.21457 0 4.143 0 0)
(5.83212 -1.89911 0 4.19089 0 0)
(7.28588 -2.25751 0 4.40032 0 0)
(6.05298 -1.9748 0 4.45653 0 0)
(7.55953 -2.36943 0 4.66509 0 0)
(6.30222 -2.06506 0 4.73502 0 0)
(7.85764 -2.49305 0 4.96857 0 0)
(6.57057 -2.15173 0 5.04023 0 0)
(8.1311 -2.6227 0 5.30455 0 0)
(6.83099 -2.21241 0 5.38376 0 0)
(8.34541 -2.69406 0 5.6716 0 0)
(7.03141 -2.23135 0 5.76038 0 0)
(8.45938 -2.71456 0 6.10952 0 0)
(7.10407 -2.19551 0 6.2321 0 0)
(8.46353 -2.70017 0 6.63351 0 0)
(7.01722 -2.10942 0 6.74975 0 0)
(8.37881 -2.62173 0 7.12867 0 0)
(6.80809 -1.993 0 7.1258 0 0)
(8.20131 -2.50608 0 7.4569 0 0)
(6.5841 -1.81612 0 7.39164 0 0)
(8.03393 -2.33109 0 7.67326 0 0)
(6.4585 -1.62958 0 7.56277 0 0)
(7.97317 -2.1627 0 7.83505 0 0)
(6.4445 -1.46618 0 7.70881 0 0)
(8.00198 -2.00442 0 7.96584 0 0)
(6.5758 -1.32083 0 7.81301 0 0)
(8.08217 -1.84816 0 8.08353 0 0)
(6.7635 -1.21891 0 7.9541 0 0)
(8.12556 -1.74819 0 8.21878 0 0)
(7.00114 -1.18198 0 8.15388 0 0)
(8.20549 -1.68117 0 8.46624 0 0)
(7.24142 -1.16825 0 8.49403 0 0)
(8.33197 -1.6385 0 8.8596 0 0)
(7.415 -1.16906 0 8.92713 0 0)
(8.40787 -1.59367 0 9.30743 0 0)
(7.45043 -1.12248 0 9.38602 0 0)
(8.39655 -1.53553 0 9.75699 0 0)
(7.4021 -1.04483 0 9.83293 0 0)
(8.36124 -1.48144 0 10.135 0 0)
(7.38648 -1.0056 0 10.2014 0 0)
(8.32489 -1.46918 0 10.4567 0 0)
(7.45607 -1.08868 0 10.5634 0 0)
(8.29495 -1.52903 0 10.7654 0 0)
(7.54645 -1.28813 0 10.9042 0 0)
(8.26561 -1.60067 0 11.1042 0 0)
(7.6589 -1.45024 0 11.2659 0 0)
(8.26649 -1.62251 0 11.4595 0 0)
(7.81086 -1.55111 0 11.6329 0 0)
(8.40838 -1.62724 0 11.7612 0 0)
(8.02335 -1.60829 0 11.9331 0 0)
(8.56153 -1.60891 0 12.1203 0 0)
(8.16331 -1.63193 0 12.3776 0 0)
(8.62561 -1.54176 0 12.576 0 0)
(8.18518 -1.55707 0 12.8692 0 0)
(8.56858 -1.43884 0 12.9796 0 0)
(8.12482 -1.45623 0 13.2451 0 0)
(8.41145 -1.26693 0 13.3786 0 0)
(7.92999 -1.27063 0 13.665 0 0)
(8.23558 -1.04071 0 13.6767 0 0)
(7.73729 -1.08542 0 13.8455 0 0)
(8.07013 -0.854155 0 13.8453 0 0)
(7.51599 -0.884687 0 13.9811 0 0)
(7.81609 -0.665283 0 13.9916 0 0)
(7.38079 -0.602603 0 14.0563 0 0)
(7.60855 -0.499092 0 13.9458 0 0)
(7.31302 -0.397561 0 14.011 0 0)
(7.52685 -0.3451 0 14.0429 0 0)
(7.28098 -0.264274 0 14.0819 0 0)
(7.49206 -0.268433 0 14.0398 0 0)
(7.29565 -0.12135 0 14.1302 0 0)
(7.45883 -0.142566 0 14.1383 0 0)
(7.27054 -0.0249427 0 14.1594 0 0)
(7.3021 -0.0734233 0 14.2474 0 0)
(7.19548 0.0707671 0 14.2745 0 0)
(7.12811 -0.0535535 0 14.3225 0 0)
(7.05891 0.0802895 0 14.3981 0 0)
(6.98221 -0.0327996 0 14.3833 0 0)
(6.91065 0.0677533 0 14.4248 0 0)
(6.82838 -0.117298 0 14.3572 0 0)
(6.79277 0.0326428 0 14.4147 0 0)
(6.71598 -0.218596 0 14.349 0 0)
(6.71217 -0.0529289 0 14.2095 0 0)
(6.64877 -0.384777 0 14.1877 0 0)
(6.55809 -0.124106 0 13.9784 0 0)
(6.58779 -0.626973 0 13.8329 0 0)
(6.43974 -0.190845 0 13.4642 0 0)
(6.43747 -0.852704 0 13.1794 0 0)
(6.48834 -0.310419 0 12.689 0 0)
(6.3295 -1.02916 0 12.3029 0 0)
(6.60701 -0.443841 0 12.0321 0 0)
(6.31569 -1.12539 0 11.5265 0 0)
(6.66297 -0.688786 0 11.4182 0 0)
(6.36051 -1.08183 0 10.6993 0 0)
(6.64088 -0.907367 0 11.0159 0 0)
(6.32908 -0.978141 0 9.92147 0 0)
(6.53654 -1.18372 0 10.6577 0 0)
(6.12513 -0.792709 0 9.13609 0 0)
(6.35852 -1.47984 0 10.2881 0 0)
(5.91317 -0.51671 0 8.36752 0 0)
(6.07937 -1.64452 0 10.0579 0 0)
(5.80055 -0.211448 0 7.74939 0 0)
(5.65651 -1.69434 0 10.0059 0 0)