/*--------------------------------*- C++ -*----------------------------------*\
| =========                 |                                                 |
| \\      /  F ield         | OpenFOAM: The Open Source CFD Toolbox           |
|  \\    /   O peration     | Version:  2.4.0                                 |
|   \\  /    A nd           | Web:      www.OpenFOAM.org                      |
|    \\/     M anipulation  |                                                 |
\*---------------------------------------------------------------------------*/
FoamFile
{
    version     2.0;
    format      ascii;
    class       surfaceScalarField;
    location    "12";
    object      phi;
}
// * * * * * * * * * * * * * * * * * * * * * * * * * * * * * * * * * * * * * //

dimensions      [0 3 -1 0 0 0 0];

internalField   nonuniform List<scalar> 
8640
(
0.000492682
-5.18179e-06
0.00053014
-3.74586e-05
0.000468843
6.12972e-05
0.000512316
-4.34731e-05
0.000484852
2.74641e-05
0.000478822
6.03034e-06
0.000535574
-5.67518e-05
0.000454523
8.10504e-05
0.000516435
-6.19116e-05
0.000500179
1.62558e-05
0.00044859
5.15885e-05
0.000525144
-7.65535e-05
0.000469783
5.53614e-05
0.000455002
1.47807e-05
0.000503589
-4.85872e-05
0.000465236
3.83533e-05
0.000412918
5.23176e-05
0.000497487
-8.4569e-05
0.000463363
3.41241e-05
0.00014583
0.000317534
0.00139619
-1.38675e-05
0.00141861
-5.98818e-05
0.00136242
0.000117485
0.00140961
-9.06584e-05
0.00138108
5.59887e-05
0.00137626
1.08548e-05
0.0014382
-0.000118693
0.00132284
0.000196406
0.0014185
-0.000157567
0.00136759
6.71655e-05
0.00131125
0.000107922
0.00145633
-0.000221629
0.00129762
0.000214072
0.00137088
-5.84765e-05
0.00141324
-9.095e-05
0.00129741
0.000154186
0.00136709
-1.73635e-05
0.00139762
-0.000115099
0.00135463
7.71129e-05
0.000161155
0.0013393
0.00219946
-2.58234e-05
0.00220213
-6.25548e-05
0.00217379
0.000145824
0.00219565
-0.000112521
0.00218981
6.18347e-05
0.00217137
2.92961e-05
0.00222672
-0.000174048
0.00214088
0.000282242
0.00219326
-0.000209941
0.00221159
4.88368e-05
0.00209943
0.000220075
0.0022617
-0.0003839
0.00214075
0.000335026
0.00214487
-6.25919e-05
0.0022499
-0.00019598
0.00211457
0.000289512
0.00218664
-8.9434e-05
0.0022226
-0.000151055
0.00213442
0.000165285
8.37878e-05
0.00221179
0.00291003
-4.83542e-05
0.0028802
-3.27209e-05
0.00288396
0.000142061
0.00289
-0.000118559
0.0028769
7.49306e-05
0.00290111
5.08934e-06
0.00289371
-0.000166648
0.00289073
0.000285224
0.00290173
-0.00022094
0.00291208
3.84804e-05
0.00286191
0.000270244
0.00294083
-0.000462816
0.00287681
0.000399044
0.00287761
-6.3386e-05
0.002966
-0.000284375
0.00284153
0.000413989
0.002904
-0.000151905
0.00295467
-0.000201723
0.00282088
0.000299069
9.06616e-06
0.0028956
0.00352865
-8.95077e-05
0.00346507
3.08637e-05
0.00347901
0.000128118
0.00350271
-0.000142261
0.00344128
0.000136366
0.00354086
-9.44955e-05
0.00346962
-9.54082e-05
0.00349668
0.000258163
0.00353783
-0.000262083
0.0034694
0.000106909
0.0035064
0.000233245
0.00353909
-0.000495509
0.0034672
0.000470938
0.00350463
-0.000100825
0.00356318
-0.000342924
0.00344793
0.00052924
0.00350517
-0.000209145
0.0035644
-0.000260955
0.0034041
0.000459376
-4.84815e-05
0.00346164
0.00404569
-0.000147697
0.00396826
0.000108295
0.00396058
0.000135795
0.00403107
-0.000212753
0.00390101
0.000266434
0.00406217
-0.000255663
0.00396062
6.13993e-06
0.0039634
0.000255391
0.00407371
-0.000372394
0.00392342
0.000257193
0.00401787
0.000138801
0.0040432
-0.000520843
0.00393532
0.000578819
0.00401621
-0.000181714
0.00405041
-0.000377129
0.00393712
0.000642538
0.00399333
-0.000265358
0.00405784
-0.000325469
0.00388908
0.000628141
-8.09723e-05
0.00392157
0.00444653
-0.000206726
0.00438866
0.000166167
0.00434033
0.000184124
0.00445927
-0.000331699
0.00427904
0.000446667
0.004456
-0.000432619
0.00436708
9.50568e-05
0.00432168
0.000300787
0.00449113
-0.00054184
0.00429432
0.000454
0.00440592
2.72062e-05
0.00444105
-0.000555977
0.00430769
0.000712184
0.00441354
-0.000287572
0.00442664
-0.00039022
0.00432708
0.000742089
0.00437825
-0.000316523
0.00443249
-0.00037971
0.00428735
0.000773278
-8.52282e-05
0.00429161
0.00473154
-0.000250762
0.00470935
0.000188356
0.00463176
0.000261713
0.00476864
-0.000468576
0.00458385
0.000631457
0.00473694
-0.000585714
0.00467886
0.000153133
0.00460133
0.000378327
0.00478785
-0.000728366
0.00458551
0.000656336
0.00469434
-8.16238e-05
0.00472813
-0.000589765
0.00459636
0.000843955
0.00471118
-0.000402394
0.00469547
-0.000374504
0.00462704
0.000810514
0.00467259
-0.000362072
0.00469524
-0.000402362
0.00460029
0.000868234
-6.81786e-05
0.00458324
0.00491093
-0.000274197
0.00491736
0.000181927
0.00483742
0.00034166
0.00495619
-0.000587352
0.00480673
0.000780924
0.00491871
-0.000697702
0.00488617
0.000185679
0.00480773
0.000456766
0.00496923
-0.00088987
0.00479162
0.000833947
0.00489273
-0.000182725
0.00490556
-0.0006026
0.00480192
0.000947598
0.0049118
-0.000512278
0.00486405
-0.000326752
0.00483656
0.000838
0.00487469
-0.0004002
0.00485586
-0.000383534
0.00482242
0.000901673
-3.76691e-05
0.00479191
0.00499127
-0.000277963
0.0050121
0.000161088
0.00495373
0.00040003
0.00502788
-0.000661498
0.00493847
0.000870337
0.00500248
-0.000761711
0.00498504
0.000203114
0.00493419
0.000507614
0.00503689
-0.000992562
0.00490826
0.000962577
0.00499791
-0.000272381
0.00497485
-0.000579535
0.00492272
0.000999724
0.00501027
-0.000599828
0.0049355
-0.000251978
0.0049542
0.000819294
0.00497568
-0.000421677
0.00492366
-0.000331515
0.00494627
0.000879068
-1.13634e-06
0.00490973
0.00497409
-0.000264551
0.0049985
0.000136677
0.00497681
0.000421725
0.00499049
-0.000675178
0.00497488
0.000885939
0.00498525
-0.000772081
0.00497795
0.000210422
0.00497291
0.000512646
0.00499221
-0.00101186
0.00493507
0.00101972
0.00500388
-0.000341199
0.00494145
-0.000517103
0.00495741
0.000983764
0.00500204
-0.000644456
0.0049138
-0.00016374
0.00497872
0.000754376
0.0049715
-0.000414454
0.00490354
-0.000263557
0.0049671
0.000815511
3.47808e-05
0.00493118
0.00485884
-0.000235894
0.00488308
0.000112435
0.00490159
0.000403217
0.0048513
-0.000624883
0.00491399
0.000823241
0.00486489
-0.000722976
0.00487022
0.000205088
0.00491389
0.000468981
0.00484022
-0.000938193
0.00487405
0.000985898
0.00490568
-0.000372833
0.00481228
-0.000423705
0.00490039
0.00089566
0.00488589
-0.000629962
0.00480472
-8.25694e-05
0.00490663
0.000652467
0.00486396
-0.000371786
0.0047983
-0.000197895
0.00488566
0.000728155
6.46954e-05
0.00485574
0.00464554
-0.000193935
0.00467196
8.60128e-05
0.00472125
0.000353931
0.00462118
-0.000524817
0.00475014
0.000694287
0.00464319
-0.000616026
0.00466696
0.000181315
0.0047466
0.000389345
0.00459407
-0.000785667
0.00471994
0.000860032
0.00469835
-0.000351249
0.00459545
-0.000320805
0.00474369
0.000747419
0.00466514
-0.000551406
0.00460989
-2.73201e-05
0.0047322
0.000530159
0.00465843
-0.000298016
0.00460734
-0.000146805
0.00470524
0.000630253
8.55775e-05
0.00468436
0.00433602
-0.000142451
0.00436982
5.22127e-05
0.00443096
0.000292784
0.00430746
-0.000401316
0.00447704
0.000524715
0.00432419
-0.00046318
0.00437341
0.000132098
0.00446324
0.00029951
0.00426542
-0.000587849
0.00446482
0.000660635
0.00438458
-0.000271008
0.00429583
-0.000232059
0.00448244
0.000560817
0.00434371
-0.000412679
0.00433282
-1.64303e-05
0.0044534
0.000409579
0.00436122
-0.000205834
0.00433064
-0.000116223
0.00443015
0.000530737
9.95631e-05
0.00441617
0.00393424
-8.9194e-05
0.00397616
1.02979e-05
0.00402932
0.000239618
0.00391321
-0.000285198
0.00408832
0.0003496
0.0039141
-0.000288964
0.00399269
5.35134e-05
0.00405831
0.000233891
0.00386689
-0.00039643
0.004101
0.000426527
0.00396827
-0.00013828
0.0039241
-0.000187889
0.00410564
0.00037927
0.00393595
-0.000242987
0.00397418
-5.46541e-05
0.00406829
0.00031546
0.00397885
-0.000116393
0.00396445
-0.000101815
0.00406276
0.000432419
0.000113757
0.00404857
0.00344318
-4.48774e-05
0.00348358
-3.01032e-05
0.00352057
0.00020263
0.00343401
-0.000198638
0.0035773
0.000206316
0.0034223
-0.000133966
0.0035137
-3.78898e-05
0.00353821
0.000209383
0.00340213
-0.000260349
0.00360942
0.000219242
0.00346399
7.14758e-06
0.00347303
-0.000196929
0.00360046
0.000251839
0.00345298
-9.55088e-05
0.00351499
-0.00011666
0.00357504
0.000255405
0.00350373
-4.50836e-05
0.00349821
-9.62934e-05
0.00359568
0.000334949
0.000133906
0.00357553
0.00285929
-1.6663e-05
0.00288216
-5.29747e-05
0.00291378
0.000171003
0.00285641
-0.000141261
0.00294924
0.000113487
0.00284935
-3.40773e-05
0.00291343
-0.000101969
0.00292245
0.000200359
0.00284861
-0.000186508
0.00297699
9.08643e-05
0.00288238
0.000101749
0.0029036
-0.000218144
0.0029693
0.000186135
0.00288409
-1.02958e-05
0.00292635
-0.000158923
0.00296736
0.000214398
0.00291945
2.82517e-06
0.0029261
-0.00010294
0.00300983
0.000251212
0.000142586
0.00300115
0.00217344
-2.60076e-06
0.00217086
-5.03988e-05
0.0022149
0.000126967
0.0021684
-9.47626e-05
0.00222325
5.86322e-05
0.00218019
8.98335e-06
0.00218688
-0.000108653
0.00222473
0.000162511
0.00217151
-0.000133292
0.00222796
3.44132e-05
0.00221494
0.000114774
0.00218736
-0.000190565
0.00223496
0.00013853
0.00221174
1.29289e-05
0.00220027
-0.000147455
0.00224563
0.000169034
0.00223836
1.00965e-05
0.00223456
-9.91349e-05
0.0023028
0.000182964
0.000100408
0.00234498
0.00138117
3.72951e-06
0.0013591
-2.83316e-05
0.00142261
6.34589e-05
0.00137205
-4.41984e-05
0.00141057
2.01051e-05
0.00140204
1.75175e-05
0.00135846
-6.50711e-05
0.00143818
8.27849e-05
0.00136748
-6.25925e-05
0.00139711
4.78882e-06
0.00144204
6.98451e-05
0.00134975
-9.82757e-05
0.00142468
6.36002e-05
0.00142298
1.46225e-05
0.00135596
-8.04303e-05
0.00144458
8.04105e-05
0.00144933
5.34477e-06
0.00140709
-5.6889e-05
0.00150996
8.00893e-05
4.05143e-05
0.00156986
0.00049123
0.000462898
0.000526357
0.000482158
0.000502264
0.000519781
0.00045471
0.000537495
0.000474902
0.000479691
0.000549536
0.000451261
0.000514861
0.000529483
0.000449053
0.000529464
0.000534808
0.000477919
0.000558009
0.000598523
0.000622249
-0.000327925
2.321e-05
0.00114994
0.00102071
-0.00154841
0.0018198
0.00299127
-0.00366113
0.00252591
0.000999401
-0.00170551
0.00275819
-0.000432918
0.000200637
0.00301623
-0.00139356
0.00113552
0.00348347
-0.00474663
0.00427938
0.00379085
-0.00787126
0.00756388
0.00378841
-0.00851042
0.00851286
0.00357771
-0.00680046
0.00701116
0.003267
-0.00407112
0.00438183
0.00292035
-0.00198378
0.00233043
0.00260016
-0.00107513
0.00139532
0.00234068
-0.000798773
0.00105825
0.0021487
-0.000645518
0.0008375
0.00201754
-0.000477744
0.00060891
0.00193395
-0.000315324
0.000398907
0.0018836
-0.00019006
0.000240414
0.00185454
-0.00010933
0.000138391
0.00183829
-6.2569e-05
7.88182e-05
0.00182943
-3.62427e-05
4.50982e-05
0.00182473
-2.0986e-05
2.56921e-05
0.00182229
-1.17674e-05
1.42005e-05
0.00182107
-6.12417e-06
7.34346e-06
0.00182048
-2.77047e-06
3.36089e-06
0.00182021
-9.10809e-07
1.18682e-06
0.00182008
1.19899e-08
1.12458e-07
0.00182003
3.89339e-07
-3.35689e-07
0.00182001
4.78047e-07
-4.55684e-07
0.00182
4.35945e-07
-4.27124e-07
0.00182
3.48959e-07
-3.45911e-07
0.00182
2.58761e-07
-2.57798e-07
0.00181999
1.82696e-07
-1.82306e-07
0.00181999
1.23923e-07
-1.23956e-07
0.00181999
8.1611e-08
-8.17821e-08
0.00181999
5.26359e-08
-5.26508e-08
0.00182
3.32399e-08
-3.32631e-08
0.00182
2.07129e-08
-2.08341e-08
0.00182
1.27012e-08
-1.27867e-08
0.00182
7.45891e-09
-7.40248e-09
0.00182
4.43874e-09
-4.47035e-09
0.00182
2.47219e-09
-2.66266e-09
0.00182
1.3843e-09
-1.38809e-09
0.00182
1.13253e-09
-9.96568e-10
0.00182
-5.01672e-11
1.23568e-11
0.00182
2.00201e-10
-3.05399e-10
0.00182
-9.85592e-11
1.08533e-10
0.00182
-2.96255e-12
1.14076e-10
0.00182
3.98818e-10
-3.46521e-10
0.00182
-1.95208e-10
7.51486e-11
0.00182
8.36988e-11
-1.53046e-10
0.00182
9.25791e-11
-5.99843e-11
0.00182
2.59999e-11
-8.11305e-11
0.00182
7.28542e-11
-1.38319e-10
0.00182
1.0502e-10
-6.11135e-11
0.00182
1.10781e-10
-1.73134e-11
0.00182
-1.6756e-10
2.07161e-10
0.00182
5.7044e-11
-1.37089e-10
0.00182
7.76912e-11
-1.84812e-10
0.00182
-1.00192e-10
9.50016e-11
0.00182
2.29608e-10
-1.48887e-10
0.00182
5.70497e-11
-5.88136e-11
0.00182
-2.68159e-10
1.76711e-10
0.00182
1.42505e-10
-1.59944e-10
0.00182
9.28582e-11
1.05257e-11
0.00182
-1.8734e-10
3.00042e-10
0.00182
1.57004e-10
-1.2502e-10
0.00182
8.47129e-11
-1.47109e-10
0.00182
-1.50094e-10
8.83167e-11
0.00182
-1.07129e-10
1.55831e-10
0.00182
2.95811e-10
-1.65364e-10
0.00182
-1.73671e-10
2.52165e-10
0.00182
-1.20092e-10
5.44836e-11
0.00182
1.23801e-10
-3.02433e-10
0.00182
-1.56271e-10
1.41313e-11
0.00182
-1.56499e-10
2.09741e-10
0.00182
1.37388e-10
1.80475e-11
0.00182
6.86763e-11
9.36727e-12
0.00182
-1.26902e-10
2.79345e-11
0.00182
-3.25826e-10
1.45243e-10
0.00182
1.32006e-10
-3.08387e-10
0.00182
4.84899e-11
3.60631e-11
0.00182
-4.46384e-11
1.30856e-10
0.00182
7.14382e-11
3.09122e-10
0.00182
-8.21058e-11
-5.94365e-11
0.00181999
6.1943e-10
-2.06637e-10
0.00182
-7.9109e-10
9.76613e-11
0.00181999
5.28902e-10
8.3524e-11
0.00182
-9.94669e-10
9.99157e-11
0.00182
7.84975e-10
-7.66566e-11
0.00182
-1.66402e-10
-1.90983e-10
0.00182
-4.65342e-10
7.96937e-11
0.00181999
1.0954e-09
1.29853e-10
0.00182
-1.872e-09
-5.84479e-11
0.00181999
2.39357e-09
-1.51948e-10
0.00182
-8.46776e-10
-1.9807e-10
0.00182
-2.70495e-10
-9.2166e-11
0.00181999
1.52437e-09
-2.16094e-10
0.00182
-1.13809e-09
-1.3118e-10
-8.68036e-10
1.71402e-11
0.00124416
-0.000232783
0.00139923
0.000865649
0.0019915
0.002399
0.00256636
0.000424536
0.00285224
-0.000718796
0.00331393
-0.00185525
0.0038479
-0.00528059
0.00409306
-0.00811642
0.00400127
-0.00841863
0.00371724
-0.00651643
0.00336546
-0.00371933
0.00300139
-0.00161971
0.00266742
-0.000741154
0.00239137
-0.000522722
0.00218303
-0.000437175
0.00203876
-0.000333477
0.0019462
-0.000222763
0.00189037
-0.000134235
0.00185823
-7.71841e-05
0.0018403
-4.46466e-05
0.00183055
-2.64857e-05
0.00182535
-1.57864e-05
0.00182264
-9.05752e-06
0.00182126
-4.74698e-06
0.00182058
-2.09031e-06
0.00182025
-5.85229e-07
0.0018201
1.62716e-07
0.00182004
4.56168e-07
0.00182001
5.06426e-07
0.00182
4.46954e-07
0.00181999
3.52465e-07
0.00181999
2.59465e-07
0.00181999
1.82796e-07
0.00181999
1.23464e-07
0.00181999
8.10473e-08
0.00181999
5.22808e-08
0.00181999
3.29886e-08
0.00181999
2.05353e-08
0.00182
1.25474e-08
0.00182
7.41934e-09
0.00182
4.29493e-09
0.00182
2.17056e-09
0.00182
1.44029e-09
0.00182
1.30233e-09
0.00182
-7.49034e-12
0.00182
1.62994e-10
0.00182
-3.90065e-11
0.00182
4.21521e-11
0.00182
3.88093e-10
0.00182
-3.9817e-10
0.00182
-7.08518e-11
0.00182
1.81708e-10
0.00182
-5.21071e-11
0.00182
1.26394e-10
0.00182
2.00566e-10
0.00182
1.274e-10
0.00182
-1.10294e-10
0.00182
-1.3026e-10
0.00182
-1.27434e-10
0.00182
-1.277e-10
0.00182
2.19949e-10
0.00182
2.44074e-11
0.00182
-2.73867e-10
0.00182
1.43813e-10
0.00182
2.60551e-10
0.00182
7.41725e-11
0.00182
2.53955e-10
0.00182
1.34873e-10
0.00182
-1.64005e-10
0.00182
9.33864e-11
0.00182
2.82797e-10
0.00182
4.38656e-11
0.00182
-1.11257e-10
0.00182
-1.18923e-10
0.00182
-1.96208e-10
0.00182
-7.88036e-11
0.00182
2.38701e-10
0.00182
1.32442e-10
0.00182
-2.66856e-10
0.00182
-3.43371e-10
0.00182
-1.82625e-10
0.00182
2.23795e-10
0.00182
-4.06611e-11
0.00182
5.32963e-10
0.00182
-2.86856e-10
0.00181999
9.70011e-10
0.00182
-1.37819e-09
0.00181999
1.10786e-09
0.00182
-1.87143e-09
0.00182
1.55247e-09
0.00182
-6.65786e-10
0.00182
-7.83672e-10
0.00181999
2.38968e-09
0.00182
-3.82884e-09
0.00181999
4.66928e-09
0.00182
-1.97276e-09
0.00182
-6.5766e-10
0.00181999
2.84212e-09
0.00182
-2.36444e-09
-1.69367e-09
0.00206309
-8.40862e-05
0.00207205
0.000856688
0.00253307
0.00193799
0.00291583
4.17723e-05
0.00322416
-0.00102712
0.00375271
-0.0023838
0.00421497
-0.00574285
0.0043481
-0.00824955
0.00416063
-0.00823116
0.00381002
-0.00616582
0.00342658
-0.00333589
0.00305374
-0.00124687
0.00271364
-0.000401051
0.00242823
-0.000237318
0.00220913
-0.000218076
0.00205534
-0.000179682
0.00195586
-0.000123282
0.00189572
-7.40961e-05
0.00186113
-4.26003e-05
0.0018419
-2.54094e-05
0.00183144
-1.60241e-05
0.00182585
-1.01999e-05
0.00182292
-6.12769e-06
0.00182141
-3.24216e-06
0.00182066
-1.33615e-06
0.00182029
-2.17689e-07
0.00182012
3.36001e-07
0.00182004
5.34348e-07
0.00182001
5.39766e-07
0.00182
4.59864e-07
0.00181999
3.56416e-07
0.00181999
2.59951e-07
0.00181999
1.82217e-07
0.00181999
1.22528e-07
0.00181999
8.01558e-08
0.00181999
5.17225e-08
0.00181999
3.25595e-08
0.00181999
2.02191e-08
0.00181999
1.2285e-08
0.00182
7.32044e-09
0.00182
4.22763e-09
0.00182
2.00066e-09
0.00182
1.44157e-09
0.00182
1.33361e-09
0.00182
-2.09151e-11
0.00182
7.62225e-11
0.00182
5.04996e-12
0.00182
8.98811e-11
0.00182
4.14528e-10
0.00182
-4.47083e-10
0.00182
-1.74065e-10
0.00182
2.49727e-10
0.00182
-1.11287e-10
0.00182
5.57983e-11
0.00182
2.90038e-10
0.00182
1.29533e-10
0.00182
-7.76607e-11
0.00182
-1.44037e-10
0.00182
-2.45422e-10
0.00182
-9.6453e-11
0.00182
2.70401e-10
0.00182
-1.11099e-11
0.00182
-2.77703e-10
0.00182
1.24168e-10
0.00182
2.87761e-10
0.00182
1.91673e-10
0.00182
2.59086e-10
0.00182
6.621e-11
0.00182
-1.52221e-10
0.00182
1.19086e-10
0.00182
3.14986e-10
0.00182
1.2846e-10
0.00182
-1.2586e-10
0.00182
-2.892e-10
0.00182
-2.88729e-10
0.00182
6.52363e-12
0.00182
3.11423e-10
0.00182
1.37129e-10
0.00182
-3.04061e-10
0.00182
-4.07216e-10
0.00182
-3.34442e-10
0.00182
2.63196e-10
0.00182
7.40646e-12
0.00182
8.77187e-10
0.00182
-5.01834e-10
0.00182
1.34764e-09
0.00182
-2.03175e-09
0.00181999
1.82866e-09
0.00182
-2.74445e-09
0.00182
2.24566e-09
0.00182
-1.08921e-09
0.00182
-1.12993e-09
0.00181999
3.6713e-09
0.00182
-5.7738e-09
0.00181999
6.9138e-09
0.00182
-3.18577e-09
0.00182
-1.06691e-09
0.00181999
4.20569e-09
0.00182
-3.54921e-09
-2.48059e-09
0.00280443
7.08544e-06
0.00281198
0.000849137
0.00322467
0.0015253
0.0035252
-0.000258758
0.00380074
-0.00130266
0.00422212
-0.00280518
0.00452666
-0.00604739
0.0045354
-0.00825828
0.0042594
-0.00795516
0.00385185
-0.00575827
0.00344774
-0.00293178
0.00307706
-0.000876192
0.00273871
-6.27041e-05
0.00245041
5.09748e-05
0.0022259
6.43931e-06
0.00206643
-2.02161e-05
0.00196247
-1.93153e-05
0.00189942
-1.10508e-05
0.00186317
-6.35202e-06
0.00184303
-5.27033e-06
0.00183209
-5.07609e-06
0.00182623
-4.34164e-06
0.00182314
-3.03871e-06
0.00182154
-1.6413e-06
0.00182073
-5.24228e-07
0.00182032
1.8358e-07
0.00182013
5.27627e-07
0.00182004
6.21926e-07
0.00182001
5.77253e-07
0.00181999
4.74194e-07
0.00181999
3.60571e-07
0.00181999
2.60077e-07
0.00181999
1.81065e-07
0.00181999
1.21114e-07
0.00181999
7.89209e-08
0.00181999
5.08773e-08
0.00181999
3.1926e-08
0.00181999
1.97899e-08
0.00181999
1.19432e-08
0.00182
7.13874e-09
0.00182
4.14732e-09
0.00182
1.87685e-09
0.00182
1.42393e-09
0.00182
1.30681e-09
0.00182
-2.56941e-11
0.00182
4.20205e-11
0.00182
5.19709e-11
0.00182
9.51628e-11
0.00182
4.16495e-10
0.00182
-4.62443e-10
0.00182
-2.55712e-10
0.00182
3.03073e-10
0.00182
-1.59298e-10
0.00182
1.03842e-12
0.00182
3.64066e-10
0.00182
1.09177e-10
0.00182
-5.91564e-11
0.00182
-1.30302e-10
0.00182
-3.21463e-10
0.00182
-7.60681e-11
0.00182
2.93262e-10
0.00182
-3.64646e-11
0.00182
-2.54403e-10
0.00182
1.12834e-10
0.00182
2.84326e-10
0.00182
2.62856e-10
0.00182
2.57265e-10
0.00182
2.17534e-11
0.00182
-1.2508e-10
0.00182
1.31457e-10
0.00182
3.13e-10
0.00182
1.82715e-10
0.00182
-1.27721e-10
0.00182
-3.9781e-10
0.00182
-3.40294e-10
0.00182
6.77321e-11
0.00182
3.40902e-10
0.00182
1.2249e-10
0.00182
-3.21638e-10
0.00182
-4.10603e-10
0.00182
-4.30181e-10
0.00182
3.01151e-10
0.00182
-1.01048e-11
0.00182
1.15297e-09
0.00182
-7.55867e-10
0.00182
1.73889e-09
0.00182
-2.66167e-09
0.00181999
2.59525e-09
0.00182
-3.6167e-09
0.00182
2.97943e-09
0.00182
-1.53864e-09
0.00182
-1.44372e-09
0.00181999
4.94601e-09
0.00182
-7.7657e-09
0.00181999
9.1804e-09
0.00182
-4.51548e-09
0.00182
-1.46607e-09
0.00181999
5.62811e-09
0.00182
-4.7123e-09
-3.24323e-09
0.00345265
1.60814e-05
0.00344545
0.000856334
0.00379765
0.0011731
0.00408287
-0.000543982
0.00431741
-0.00153721
0.00460014
-0.0030879
0.00475609
-0.00620334
0.0046509
-0.0081531
0.00429714
-0.0076014
0.0038432
-0.00530433
0.00342777
-0.00251635
0.00306846
-0.00051688
0.00274096
0.000264793
0.00245702
0.000334922
0.00223263
0.000230823
0.00207149
0.000140926
0.00196567
8.65051e-05
0.0019013
5.33242e-05
0.00186426
3.06858e-05
0.00184368
1.53082e-05
0.00183248
6.11983e-06
0.00182648
1.66576e-06
0.00182329
1.46209e-07
0.00182163
2.30336e-08
0.00182077
3.28789e-07
0.00182035
6.09913e-07
0.00182014
7.33422e-07
0.00182005
7.16795e-07
0.00182001
6.17883e-07
0.00181999
4.89467e-07
0.00181999
3.64696e-07
0.00181999
2.59748e-07
0.00181999
1.7931e-07
0.00181999
1.19205e-07
0.00181999
7.73398e-08
0.00181999
4.97519e-08
0.00181999
3.10957e-08
0.00181999
1.92317e-08
0.00181999
1.15265e-08
0.00182
6.88595e-09
0.00182
4.04716e-09
0.00182
1.78823e-09
0.00182
1.38208e-09
0.00182
1.24597e-09
0.00182
-2.37363e-11
0.00182
5.30196e-11
0.00182
9.68087e-11
0.00182
6.98394e-11
0.00182
3.95156e-10
0.00182
-4.59835e-10
0.00182
-3.10557e-10
0.00182
3.33008e-10
0.00182
-1.84986e-10
0.00182
-3.01517e-11
0.00182
4.11373e-10
0.00182
7.88786e-11
0.00182
-5.78582e-11
0.00182
-1.01762e-10
0.00182
-3.47516e-10
0.00182
-6.94833e-11
0.00182
2.91279e-10
0.00182
-4.78413e-11
0.00182
-2.22712e-10
0.00182
1.09201e-10
0.00182
2.67111e-10
0.00182
2.89594e-10
0.00182
2.51942e-10
0.00182
4.28851e-12
0.00182
-9.9739e-11
0.00182
1.31871e-10
0.00182
2.94715e-10
0.00182
2.04522e-10
0.00182
-1.23221e-10
0.00182
-4.42217e-10
0.00182
-3.57461e-10
0.00182
9.84615e-11
0.00182
3.39271e-10
0.00182
9.7934e-11
0.00182
-3.3314e-10
0.00182
-3.74841e-10
0.00182
-4.69775e-10
0.00182
3.47952e-10
0.00182
-8.59904e-11
0.00182
1.36695e-09
0.00182
-1.03658e-09
0.00182
2.1495e-09
0.00182
-3.28366e-09
0.00181999
3.39852e-09
0.00182
-4.50286e-09
0.00182
3.76915e-09
0.00182
-2.0211e-09
0.00182
-1.71255e-09
0.00181999
6.2064e-09
0.00182
-9.81957e-09
0.00181999
1.15071e-08
0.00182
-5.97001e-09
0.00182
-1.83287e-09
0.00181999
7.12315e-09
0.00182
-5.88306e-09
-3.99447e-09
0.00399217
-5.45228e-05
0.00397179
0.000876721
0.00424398
0.000900902
0.00450681
-0.000806804
0.00469445
-0.00172485
0.00486883
-0.00326228
0.00490364
-0.00623815
0.00469481
-0.00794427
0.00427506
-0.00718164
0.00378843
-0.0048177
0.00336963
-0.00209755
0.00302554
-0.00017279
0.00271528
0.000575045
0.00244396
0.000606245
0.00222693
0.000447858
0.0020693
0.000298555
0.00196491
0.000190897
0.0019011
0.000117132
0.00186429
6.74945e-05
0.0018438
3.58019e-05
0.00183262
1.7299e-05
0.00182659
7.69148e-06
0.00182338
3.3612e-06
0.00182168
1.7176e-06
0.0018208
1.20608e-06
0.00182036
1.0526e-06
0.00182015
9.49103e-07
0.00182005
8.16745e-07
0.00182
6.60588e-07
0.00181999
5.0517e-07
0.00181998
3.68533e-07
0.00181998
2.58848e-07
0.00181999
1.76925e-07
0.00181999
1.16797e-07
0.00181999
7.54076e-08
0.00181999
4.83523e-08
0.00181999
3.00722e-08
0.00181999
1.85372e-08
0.00181999
1.10369e-08
0.00181999
6.57794e-09
0.00182
3.92256e-09
0.00182
1.71321e-09
0.00182
1.31624e-09
0.00182
1.16942e-09
0.00182
-1.27178e-11
0.00182
9.42101e-11
0.00182
1.35879e-10
0.00182
2.49939e-11
0.00182
3.54698e-10
0.00182
-4.49686e-10
0.00182
-3.42478e-10
0.00182
3.43995e-10
0.00182
-1.92531e-10
0.00182
-4.2064e-11
0.00182
4.34891e-10
0.00182
4.81672e-11
0.00182
-6.71692e-11
0.00182
-6.89908e-11
0.00182
-3.37706e-10
0.00182
-7.30361e-11
0.00182
2.73198e-10
0.00182
-4.74182e-11
0.00182
-1.91116e-10
0.00182
1.09284e-10
0.00182
2.45599e-10
0.00182
2.86175e-10
0.00182
2.43889e-10
0.00182
4.26552e-12
0.00182
-8.02225e-11
0.00182
1.25602e-10
0.00182
2.71686e-10
0.00182
2.0343e-10
0.00182
-1.17905e-10
0.00182
-4.42894e-10
0.00182
-3.51047e-10
0.00182
1.07568e-10
0.00182
3.20222e-10
0.00182
7.11082e-11
0.00182
-3.43605e-10
0.00182
-3.18798e-10
0.00182
-4.71564e-10
0.00182
4.04006e-10
0.00182
-2.0082e-10
0.00182
1.54091e-09
0.00182
-1.33603e-09
0.00182
2.57752e-09
0.00182
-3.91033e-09
0.00181999
4.23588e-09
0.00182
-5.41593e-09
0.00181999
4.62192e-09
0.00182
-2.55057e-09
0.00182
-1.92615e-09
0.00181999
7.44982e-09
0.00182
-1.1945e-08
0.00181999
1.39292e-08
0.00182
-7.56496e-09
0.00182
-2.14766e-09
0.00181999
8.69808e-09
0.00182
-7.08937e-09
-4.74014e-09
0.00440481
-0.00016772
0.00439516
0.000886363
0.00459982
0.000696248
0.0048203
-0.00102729
0.00495681
-0.00186136
0.00504816
-0.00335363
0.00497476
-0.00616475
0.00466981
-0.00763933
0.0041964
-0.00670824
0.00369237
-0.00431367
0.00328019
-0.00168537
0.00295323
0.000154168
0.00266143
0.000866849
0.00240799
0.000859679
0.00220581
0.000650039
0.00205811
0.00044626
0.00195934
0.000289658
0.00189847
0.00017801
0.00186312
0.000102841
0.00184333
5.55937e-05
0.00183247
2.81623e-05
0.00182657
1.35897e-05
0.00182339
6.53657e-06
0.0018217
3.40794e-06
0.00182082
2.09022e-06
0.00182037
1.50307e-06
0.00182015
1.17025e-06
0.00182004
9.19542e-07
0.00182
7.0426e-07
0.00181998
5.20769e-07
0.00181998
3.71812e-07
0.00181998
2.57255e-07
0.00181998
1.73879e-07
0.00181999
1.13883e-07
0.00181999
7.31179e-08
0.00181999
4.668e-08
0.00181999
2.88574e-08
0.00181999
1.77082e-08
0.00181999
1.04779e-08
0.00181999
6.22668e-09
0.00181999
3.76865e-09
0.00182
1.63328e-09
0.00182
1.23089e-09
0.00182
1.0886e-09
0.00182
9.01246e-12
0.00182
1.49498e-10
0.00182
1.65605e-10
0.00182
-3.05269e-11
0.00182
3.01329e-10
0.00182
-4.3699e-10
0.00182
-3.57551e-10
0.00182
3.43391e-10
0.00182
-1.87576e-10
0.00182
-4.18468e-11
0.00182
4.40929e-10
0.00182
2.02286e-11
0.00182
-7.92549e-11
0.00182
-3.78257e-11
0.00182
-3.09848e-10
0.00182
-8.07539e-11
0.00182
2.47474e-10
0.00182
-3.97106e-11
0.00182
-1.62136e-10
0.00182
1.09156e-10
0.00182
2.24043e-10
0.00182
2.68077e-10
0.00182
2.33007e-10
0.00182
1.14478e-11
0.00182
-6.58444e-11
0.00182
1.16782e-10
0.00182
2.49106e-10
0.00182
1.89932e-10
0.00182
-1.14996e-10
0.00182
-4.20737e-10
0.00182
-3.29765e-10
0.00182
1.061e-10
0.00182
2.92805e-10
0.00182
4.55658e-11
0.00182
-3.52986e-10
0.00182
-2.54242e-10
0.00182
-4.55228e-10
0.00182
4.6623e-10
0.00182
-3.36152e-10
0.00182
1.69532e-09
0.00182
-1.65076e-09
0.00182
3.01973e-09
0.00182
-4.54959e-09
0.00181999
5.10877e-09
0.00182
-6.36736e-09
0.00181999
5.54279e-09
0.00182
-3.14268e-09
0.00182
-2.07382e-09
0.00181999
8.67426e-09
0.00182
-1.41492e-08
0.00181999
1.64795e-08
0.00182
-9.32264e-09
0.00182
-2.39337e-09
0.00181999
1.03593e-08
0.00182
-8.35448e-09
-5.48201e-09
0.00469584
-0.000280328
0.00471345
0.000868753
0.0048696
0.000540099
0.00503384
-0.00119152
0.00512282
-0.00195033
0.00514392
-0.00337473
0.00496559
-0.00598642
0.00457457
-0.00724831
0.00406322
-0.00619689
0.00355596
-0.0038064
0.00316081
-0.00129022
0.002862
0.000452981
0.00259697
0.00113188
0.00236324
0.0010934
0.00217649
0.000836793
0.0020405
0.000582245
0.00194964
0.000380522
0.00189349
0.000234161
0.00186072
0.000135609
0.00184224
7.40702e-05
0.00183201
3.83961e-05
0.00182639
1.92051e-05
0.00182333
9.59612e-06
0.00182168
5.05705e-06
0.00182081
2.96308e-06
0.00182036
1.95232e-06
0.00182014
1.39233e-06
0.00182004
1.02288e-06
0.00181999
7.47746e-07
0.00181998
5.357e-07
0.00181998
3.74245e-07
0.00181998
2.54841e-07
0.00181998
1.70134e-07
0.00181999
1.10452e-07
0.00181999
7.0463e-08
0.00181999
4.47328e-08
0.00181999
2.74529e-08
0.00181999
1.67522e-08
0.00181999
9.85496e-09
0.00181999
5.83858e-09
0.00181999
3.58097e-09
0.00181999
1.53795e-09
0.00181999
1.13172e-09
0.00181999
1.00886e-09
0.00181999
4.01357e-11
0.00181999
2.05817e-10
0.00181999
1.82419e-10
0.00181999
-9.01554e-11
0.00181999
2.41807e-10
0.00181999
-4.22453e-10
0.00181999
-3.60245e-10
0.00181999
3.36673e-10
0.00181999
-1.74713e-10
0.00181999
-3.46261e-11
0.00181999
4.33968e-10
0.00181999
-4.63397e-12
0.00181999
-8.87268e-11
0.00181999
-1.07154e-11
0.00181999
-2.76215e-10
0.00181999
-8.83139e-11
0.00181999
2.199e-10
0.00181999
-2.86428e-11
0.00181999
-1.36213e-10
0.00181999
1.06813e-10
0.00181999
2.03724e-10
0.00181999
2.45206e-10
0.00181999
2.19527e-10
0.00181999
1.91126e-11
0.00181999
-5.51285e-11
0.00181999
1.07913e-10
0.00181999
2.28533e-10
0.00181999
1.70492e-10
0.00181999
-1.15546e-10
0.00181999
-3.88654e-10
0.00181999
-2.98675e-10
0.00181999
1.01289e-10
0.00181999
2.60861e-10
0.00181999
2.25386e-11
0.00181999
-3.58888e-10
0.00181999
-1.87135e-10
0.00181999
-4.34604e-10
0.00181999
5.32039e-10
0.00181999
-4.79968e-10
0.00181999
1.84273e-09
0.00181999
-1.98028e-09
0.00181999
3.47535e-09
0.00181999
-5.20562e-09
0.00181999
6.01969e-09
0.00182
-7.36797e-09
0.00181999
6.53892e-09
0.00181999
-3.8118e-09
0.00181999
-2.1445e-09
0.00181999
9.87577e-09
0.00182
-1.64395e-08
0.00181999
1.91887e-08
0.00182
-1.12693e-08
0.00182
-2.55391e-09
0.00181999
1.21142e-08
0.00181999
-9.69713e-09
-6.21983e-09
0.0048768
-0.000365215
0.00492566
0.00081989
0.00504652
0.000419245
0.00514746
-0.00129246
0.00519316
-0.00199603
0.00515024
-0.00333181
0.004875
-0.00571118
0.00441574
-0.00678904
0.00388398
-0.00566513
0.00338636
-0.00330878
0.00300724
-0.000911108
0.002729
0.000731223
0.00249288
0.001368
0.00228922
0.00129707
0.00212849
0.000997528
0.00201207
0.000698662
0.0019341
0.000458494
0.00188554
0.000282722
0.00185686
0.000164282
0.00184046
9.04766e-05
0.00183122
4.7636e-05
0.00182606
2.43651e-05
0.0018232
1.24578e-05
0.00182163
6.62546e-06
0.00182078
3.80534e-06
0.00182035
2.39079e-06
0.00182013
1.61045e-06
0.00182003
1.12428e-06
0.00181998
7.89801e-07
0.00181997
5.4934e-07
0.00181997
3.7552e-07
0.00181997
2.51464e-07
0.00181998
1.65642e-07
0.00181998
1.06488e-07
0.00181998
6.74314e-08
0.00181999
4.25058e-08
0.00181999
2.58618e-08
0.00181999
1.56793e-08
0.00181999
9.17368e-09
0.00181999
5.41567e-09
0.00181999
3.35609e-09
0.00181999
1.42381e-09
0.00181999
1.02426e-09
0.00181999
9.31122e-10
0.00181999
7.63064e-11
0.00181999
2.53591e-10
0.00181999
1.83472e-10
0.00181999
-1.48758e-10
0.00181999
1.82725e-10
0.00181999
-4.04745e-10
0.00181999
-3.52445e-10
0.00181999
3.26315e-10
0.00181999
-1.5718e-10
0.00181999
-2.32976e-11
0.00181999
4.1637e-10
0.00181999
-2.70664e-11
0.00181999
-9.28291e-11
0.00181999
1.16989e-11
0.00181999
-2.4324e-10
0.00181999
-9.3097e-11
0.00181999
1.93597e-10
0.00181999
-1.69961e-11
0.00181999
-1.13199e-10
0.00181999
1.01979e-10
0.00181999
1.84661e-10
0.00181999
2.21976e-10
0.00181999
2.03733e-10
0.00181999