/*--------------------------------*- C++ -*----------------------------------*\
| =========                 |                                                 |
| \\      /  F ield         | OpenFOAM: The Open Source CFD Toolbox           |
|  \\    /   O peration     | Version:  2.4.0                                 |
|   \\  /    A nd           | Web:      www.OpenFOAM.org                      |
|    \\/     M anipulation  |                                                 |
\*---------------------------------------------------------------------------*/
FoamFile
{
    version     2.0;
    format      ascii;
    class       volScalarField;
    location    "0.83";
    object      nuSgs;
}
// * * * * * * * * * * * * * * * * * * * * * * * * * * * * * * * * * * * * * //

dimensions      [0 2 -1 0 0 0 0];

internalField   nonuniform List<scalar> 
8800
(
0.00133923
0.00150597
0.00139386
0.00122716
0.00112332
0.00104748
0.00100022
0.000956711
0.000930295
0.000899325
0.000885345
0.000862404
0.000853425
0.00083496
0.000827697
0.000811879
0.000802728
0.000787103
0.000777005
0.000754652
0.000556817
0.000980533
0.00108414
0.00108071
0.00106464
0.00103042
0.00100523
0.000973432
0.000953994
0.000925625
0.000913533
0.000890102
0.000881491
0.00086364
0.000857409
0.000842742
0.000837257
0.000824382
0.000815566
0.000809399
0.000136506
0.000401564
0.000588194
0.000655074
0.000708558
0.000734038
0.000754213
0.00075759
0.000761525
0.000758272
0.000756224
0.000748894
0.000746717
0.000739162
0.000736926
0.000729949
0.000729162
0.000722944
0.000720505
0.000714164
2.72036e-05
0.000124177
0.000239521
0.000305676
0.000357433
0.000393864
0.00043115
0.000451161
0.000476352
0.000492436
0.000507012
0.000515633
0.00052933
0.000535206
0.000543265
0.000548255
0.000558127
0.00056133
0.00056748
0.000569693
5.22194e-06
3.31424e-05
6.96796e-05
0.000114362
0.000135969
0.000162946
0.000191224
0.000212259
0.000229442
0.000254551
0.000264412
0.000281428
0.000291731
0.000309074
0.000316273
0.000331551
0.000339879
0.000357265
0.000363631
0.000379492
2.36318e-06
8.28758e-06
1.8021e-05
3.33827e-05
4.03716e-05
5.20423e-05
6.124e-05
7.61663e-05
8.4068e-05
0.000100609
0.000107142
0.000119577
0.000125545
0.000138129
0.000143541
0.000155455
0.000161556
0.000176533
0.000181966
0.000193318
2.17992e-06
3.08356e-06
5.16229e-06
9.22313e-06
1.08657e-05
1.35966e-05
1.60401e-05
2.07188e-05
2.35208e-05
2.98079e-05
3.24666e-05
3.7775e-05
4.0433e-05
4.61633e-05
4.8918e-05
5.41768e-05
5.77814e-05
6.66127e-05
6.87432e-05
7.07708e-05
2.15397e-06
2.59642e-06
3.12399e-06
4.1785e-06
4.70849e-06
5.11209e-06
5.42086e-06
6.01477e-06
6.46948e-06
7.94382e-06
8.70484e-06
1.01607e-05
1.07442e-05
1.21724e-05
1.29123e-05
1.38999e-05
1.57314e-05
1.81911e-05
1.84521e-05
1.9589e-05
2.14488e-06
2.56009e-06
3.10617e-06
3.51226e-06
3.66266e-06
3.97236e-06
4.21599e-06
4.28127e-06
4.27195e-06
4.32214e-06
4.35927e-06
4.4301e-06
4.60244e-06
4.99151e-06
5.14348e-06
5.18542e-06
5.24712e-06
5.45849e-06
5.63042e-06
5.82243e-06
2.13178e-06
2.48454e-06
3.05613e-06
3.47359e-06
3.58478e-06
3.67695e-06
3.81719e-06
3.95629e-06
3.97844e-06
4.01906e-06
4.0562e-06
4.04982e-06
4.01631e-06
4.02069e-06
4.08393e-06
4.18615e-06
4.19932e-06
4.23898e-06
4.26781e-06
4.33271e-06
2.13312e-06
2.58899e-06
2.87379e-06
3.37254e-06
3.78306e-06
3.84995e-06
3.84486e-06
3.83683e-06
3.83193e-06
3.91545e-06
4.00866e-06
4.01529e-06
4.02232e-06
4.08969e-06
4.18175e-06
4.18757e-06
4.17293e-06
4.18068e-06
4.20412e-06
4.34419e-06
2.14132e-06
2.4759e-06
2.97762e-06
3.81906e-06
3.89761e-06
3.8811e-06
3.89762e-06
4.07237e-06
4.29963e-06
4.45681e-06
4.48593e-06
4.54739e-06
4.59606e-06
4.743e-06
4.86419e-06
5.18514e-06
5.43241e-06
5.84685e-06
6.21255e-06
7.24703e-06
2.15861e-06
2.56916e-06
3.35894e-06
3.97791e-06
4.33516e-06
5.13187e-06
5.50948e-06
6.44627e-06
6.91449e-06
7.79572e-06
8.40812e-06
9.74624e-06
1.04206e-05
1.2181e-05
1.31798e-05
1.54056e-05
1.68343e-05
1.91902e-05
2.07203e-05
2.50553e-05
2.18495e-06
3.10671e-06
5.11969e-06
8.33801e-06
1.05009e-05
1.43397e-05
1.65804e-05
2.16961e-05
2.42168e-05
2.89681e-05
3.18061e-05
3.75303e-05
4.01986e-05
4.6625e-05
4.98486e-05
5.66888e-05
6.04545e-05
6.81927e-05
7.23145e-05
8.31968e-05
2.34997e-06
8.24683e-06
1.80417e-05
2.98676e-05
4.02773e-05
5.46757e-05
6.19543e-05
7.76548e-05
8.5147e-05
9.88282e-05
0.000105892
0.000119771
0.000125608
0.000138932
0.000145163
0.000158525
0.000165101
0.000179726
0.000187064
0.000206662
5.21596e-06
3.295e-05
7.16394e-05
0.000105093
0.000140601
0.000169264
0.000185169
0.000216135
0.000230589
0.000251264
0.000263776
0.000283639
0.000291642
0.000309809
0.000317877
0.00033556
0.000343403
0.000361633
0.000370076
0.00039189
2.72573e-05
0.000124008
0.000239287
0.000302293
0.000361961
0.000394117
0.000427483
0.000455506
0.000475466
0.000490396
0.000506739
0.000519196
0.000526155
0.000538206
0.000543306
0.000553484
0.000557449
0.000567393
0.000571532
0.000581177
0.000136679
0.000401168
0.000588076
0.000654133
0.000711225
0.000731948
0.000755075
0.000757732
0.000761541
0.000757423
0.000756306
0.000749541
0.000747025
0.00073946
0.000737617
0.000731297
0.000729676
0.000725319
0.000723529
0.000718971
0.000557427
0.000980077
0.00108423
0.00108075
0.00106491
0.00102932
0.00100731
0.000970999
0.000955557
0.000924858
0.000913485
0.000888852
0.00088199
0.000861993
0.000857286
0.000840411
0.000836294
0.000820179
0.000814627
0.000800287
0.00133945
0.00150567
0.001394
0.00122717
0.00112335
0.00104672
0.00100177
0.000954403
0.00093171
0.000897962
0.000885931
0.000859513
0.000853778
0.000831299
0.000827046
0.000804497
0.00079972
0.000774445
0.000765125
0.000733335
0.000344224
0.0002898
0.000256397
0.000237531
0.000226863
0.000220431
0.000215476
0.000211616
0.000208045
0.000204735
0.000201675
0.000198719
0.000195807
0.00019373
0.000191708
0.000190251
0.000188844
0.000187847
0.000186519
0.000185731
0.00018428
0.000183015
0.000180897
0.000178286
0.000174589
0.000170932
0.000167604
0.000165395
0.000163808
0.000162914
0.000162383
0.000161755
0.000161
0.000159552
0.000157536
0.000153996
0.000149314
0.000143308
0.000137055
0.000131554
0.000126769
0.000123969
0.000122376
0.00012256
0.000123524
0.000125809
0.000128269
0.000132212
0.000135076
0.000138158
0.000140578
0.000142369
0.0001428
0.000143393
0.000143237
0.000142162
0.000141365
0.000140381
0.000138189
0.000136955
0.000135577
0.000133744
0.000133521
0.000133849
0.000134654
0.00013627
0.000138882
0.000141041
0.000143904
0.000145896
0.000147745
0.000149485
0.000150054
0.000151224
0.000151741
0.000151579
0.000150778
0.000150549
0.000149949
0.000149502
0.000148241
0.000147467
0.000145748
0.000144518
0.000141238
0.000139791
0.000137073
0.000135105
0.000133559
0.000133372
0.00013315
0.0001334
0.000133405
0.000133403
0.00013325
0.000132556
0.000131588
0.000129989
0.000127172
0.000123871
0.000119265
0.000113353
0.000105786
9.76837e-05
8.77064e-05
7.65805e-05
6.27877e-05
5.07121e-05
4.07142e-05
3.23471e-05
2.61532e-05
2.15722e-05
1.89122e-05
1.78661e-05
1.80535e-05
1.89098e-05
2.16686e-05
2.75766e-05
3.87643e-05
5.24318e-05
7.25399e-05
8.90675e-05
0.000105004
0.000115075
0.000120595
0.000121784
0.000121425
0.000120635
0.000119039
0.000116939
0.000115642
0.000113249
0.000110338
0.000106099
0.000101127
9.34941e-05
8.57381e-05
7.95446e-05
7.40738e-05
6.58725e-05
6.17277e-05
6.13559e-05
6.16821e-05
6.24241e-05
6.40406e-05
6.4227e-05
6.32594e-05
6.04882e-05
5.34434e-05
4.8911e-05
4.67109e-05
4.62893e-05
4.67342e-05
4.85632e-05
4.8903e-05
4.83361e-05
4.84476e-05
4.8188e-05
4.8215e-05
4.78043e-05
4.70453e-05
4.47212e-05
4.23007e-05
4.08307e-05
3.8334e-05
3.66672e-05
3.49669e-05
3.49386e-05
3.44518e-05
3.23723e-05
3.09703e-05
3.11945e-05
3.07108e-05
3.04914e-05
3.0095e-05
3.01421e-05
3.04239e-05
3.30585e-05
4.08847e-05
5.04503e-05
5.45095e-05
5.48675e-05
5.43359e-05
5.21755e-05
4.92696e-05
4.85678e-05
4.72324e-05
4.86703e-05
4.79364e-05
4.84726e-05
4.82785e-05
4.92079e-05
5.04213e-05
5.5031e-05
5.94786e-05
6.41469e-05
7.45265e-05
7.65508e-05
9.85105e-05
0.000159814
0.000407622
0.000369091
0.000336676
0.00031144
0.000292307
0.000277832
0.000267124
0.000258268
0.000251098
0.000244699
0.000238846
0.000234089
0.000229138
0.000225581
0.000221643
0.000219146
0.000216123
0.000214145
0.000211937
0.000210341
0.000208484
0.000207287
0.000205436
0.000204377
0.000202138
0.000200711
0.000198576
0.000196963
0.00019545
0.000194011
0.000193157
0.000192289
0.00019133
0.000190462
0.00018935
0.000187979
0.000186371
0.000184265
0.000181901
0.000179735
0.000176594
0.000174688
0.000172813
0.000170812
0.000169695
0.000168996
0.00016848
0.0001685
0.000168663
0.000169111
0.000169294
0.000169996
0.000170093
0.000170115
0.00017008
0.000169674
0.000169174
0.000168376
0.000167449
0.000166435
0.000164877
0.000164174
0.00016284
0.000161979
0.0001613
0.000160341
0.000160194
0.000159855
0.00015944
0.000159339
0.00015905
0.000158419
0.000157426
0.000156316
0.000155223
0.000152752
0.000150874
0.000148642
0.000145557
0.000142536
0.000137835
0.000134022
0.000131018
0.00012594
0.000121339
0.000118277
0.000114579
0.000111157
0.000108933
0.000105575
0.000101683
0.000100074
9.885e-05
9.57972e-05
9.39886e-05
9.12377e-05
8.76671e-05
8.49774e-05
8.11607e-05
7.60649e-05
7.0045e-05
6.367e-05
5.70883e-05
5.03803e-05
4.38494e-05
3.7535e-05
3.17496e-05
2.65752e-05
2.26274e-05
1.92805e-05
1.7252e-05
1.60471e-05
1.62018e-05
1.67868e-05
1.85368e-05
2.30138e-05
3.22418e-05
4.55858e-05
6.66596e-05
9.01805e-05
0.000112187
0.000125269
0.000130044
0.000130402
0.000129298
0.00012706
0.000124821
0.000123217
0.000120557
0.000119071
0.000118135
0.000116762
0.000115656
0.000113664
0.000109745
0.00010538
9.88474e-05
9.18185e-05
8.712e-05
8.07162e-05
7.8595e-05
7.46918e-05
7.1056e-05
6.80475e-05
6.72366e-05
6.60244e-05
6.16501e-05
5.6908e-05
5.2379e-05
5.10934e-05
5.09109e-05
5.12061e-05
5.25195e-05
5.68024e-05
5.77495e-05
5.79087e-05
5.84335e-05
5.94621e-05
5.93156e-05
5.90056e-05
5.78089e-05
5.61681e-05
5.24504e-05
5.1542e-05
4.91195e-05
4.79305e-05
4.49649e-05
4.33547e-05
4.22524e-05
3.74683e-05
3.32213e-05
3.1956e-05
3.24882e-05
3.49281e-05
3.46889e-05
3.33936e-05
3.33172e-05
3.46131e-05
4.24221e-05
4.99834e-05
5.50957e-05
5.50542e-05
5.4549e-05
5.37227e-05
4.98649e-05
4.83213e-05
4.75232e-05
4.78937e-05
4.91951e-05
4.84904e-05
4.88299e-05
4.84633e-05
5.0045e-05
5.11618e-05
5.79796e-05
6.08321e-05
7.95308e-05
8.29416e-05
9.68637e-05
0.000125324
0.000369817
0.000347241
0.000326415
0.00030802
0.000292888
0.000279485
0.00026951
0.000260178
0.000253154
0.000246831
0.000240689
0.000236104
0.000230113
0.000226492
0.000221362
0.000218183
0.000214935
0.000211703
0.000209833
0.000206976
0.000205486
0.000203357
0.000201478
0.000200424
0.000198188
0.000197228
0.000195467
0.000194205
0.000193057
0.000191524
0.000191042
0.000189924
0.000189427
0.000188833
0.000188139
0.000187763
0.000186685
0.000185968
0.000184924
0.000183514
0.000182717
0.000180782
0.000179704
0.000178395
0.000176667
0.000175971
0.000174671
0.00017368
0.000173256
0.000172874
0.00017218
0.000172113
0.000172027
0.00017164
0.000171525
0.000171331
0.000170857
0.000170401
0.000170069
0.000169351
0.000168062
0.000167484
0.000166155
0.000164506
0.000163743
0.000161787
0.000160249
0.000159237
0.000157215
0.000155262
0.000153421
0.000151071
0.000148628
0.000144667
0.0001416
0.000137453
0.000133077
0.000126994
0.000122453
0.000115715
0.000109657
0.000102325
9.6217e-05
9.11822e-05
8.45512e-05
7.92652e-05
7.51365e-05
7.00056e-05
6.66887e-05
6.33074e-05
5.98645e-05
5.83058e-05
5.67496e-05
5.43318e-05
5.28105e-05
5.10846e-05
4.88015e-05
4.67143e-05
4.39285e-05
4.0729e-05
3.72161e-05
3.35738e-05
3.01968e-05
2.66683e-05
2.3553e-05
2.08562e-05
1.85366e-05
1.64787e-05
1.51698e-05
1.42733e-05
1.43617e-05
1.47709e-05
1.59131e-05
1.88666e-05
2.53446e-05
3.69459e-05
5.65526e-05
7.83405e-05
0.000112018
0.000130578
0.000137371
0.000137522
0.000135775
0.00013322
0.000128962
0.000124273
0.000120622
0.000116993
0.000114129
0.000114022
0.000114372
0.000115498
0.000116089
0.000116062
0.000115178
0.000113414
0.000106674
0.000101141
9.71441e-05
9.03448e-05
8.58314e-05
8.29949e-05
8.09206e-05
7.67441e-05
7.44622e-05
6.81139e-05
6.14516e-05
5.75358e-05
5.65858e-05
5.65218e-05
5.71998e-05
5.88571e-05
6.36997e-05
6.80065e-05
6.85034e-05
7.02585e-05
7.11871e-05
7.14342e-05
7.06344e-05
6.98124e-05
6.72147e-05
6.57528e-05
6.21687e-05
6.04946e-05
5.81259e-05
5.50257e-05
5.39759e-05
5.23257e-05
5.01664e-05
4.58055e-05
3.9782e-05
3.49929e-05
3.45964e-05
3.53086e-05
3.83588e-05
4.14273e-05
4.07308e-05
4.0347e-05
4.37946e-05
4.99183e-05
5.40559e-05
5.42483e-05
5.4079e-05
5.30712e-05
5.03694e-05
4.8357e-05
4.80506e-05
4.7867e-05
4.90034e-05
4.84417e-05
4.97988e-05
4.88124e-05
5.11963e-05
5.13687e-05
5.76366e-05
5.97487e-05
7.53522e-05
8.26578e-05
9.005e-05
0.00010785
0.000300998
0.000288132
0.000275454
0.000263729
0.00025417
0.000242974
0.00023536
0.000227375
0.000220843
0.000217245
0.000211587
0.000209235
0.000204873
0.000200898
0.00019761
0.000192215
0.000189965
0.000185961
0.000183325
0.000181675
0.000178933
0.000177916
0.000175996
0.000174288
0.000173212
0.000171049
0.000169842
0.000168705
0.000166894
0.000166122
0.000165418
0.000164269
0.000164026
0.000163509
0.000163166
0.000163143
0.000162916
0.000162731
0.000162463
0.000161817
0.000161249
0.00015991
0.000158893
0.000157172
0.000156088
0.000154253
0.000152926
0.000152172
0.000150373
0.000149856
0.000149107
0.000148041
0.000147974
0.000147354
0.00014689
0.00014681
0.000146217
0.000146011
0.000145741
0.000145016
0.000144412
0.000143699
0.000141914
0.000140876
0.000138898
0.000137166
0.000134586
0.00013185
0.000129924
0.000125886
0.000122658
0.000119282
0.000114357
0.000109885
0.00010415
9.81771e-05
9.20775e-05
8.42742e-05
7.73922e-05
7.08084e-05
6.42786e-05
5.85415e-05
5.36138e-05
4.97207e-05
4.53949e-05
4.26508e-05
4.06229e-05
3.79518e-05
3.65042e-05
3.47436e-05
3.27683e-05
3.14102e-05
3.01173e-05
2.86732e-05
2.74328e-05
2.63805e-05
2.50477e-05
2.38783e-05
2.22593e-05
2.08717e-05
1.92749e-05
1.7627e-05
1.63151e-05
1.49494e-05
1.39301e-05
1.31311e-05
1.25893e-05
1.22666e-05
1.24296e-05
1.28724e-05
1.38512e-05
1.59778e-05
2.0439e-05
2.86633e-05
4.2634e-05
6.51004e-05
9.61929e-05
0.000130322
0.000142979
0.000144294
0.000142857
0.000139454
0.000131635
0.000124561
0.00011765
0.000113702
0.000110838
0.000108846
0.000106206
0.000105013
0.000105132
0.000105948
0.00011028
0.000113729
0.000114072
0.000113736
0.000112337
0.000106429
0.000103788
0.00010053
9.62404e-05
9.14346e-05
8.66437e-05
8.21104e-05
7.82073e-05
6.82001e-05
6.5128e-05
6.30086e-05
6.36795e-05
6.46654e-05
6.8545e-05
7.39926e-05
7.97308e-05
8.18759e-05
8.18746e-05
8.13293e-05
8.08547e-05
7.99044e-05
7.74721e-05
7.49641e-05
7.21505e-05
6.93971e-05
6.72641e-05
6.51575e-05
6.41394e-05
6.14011e-05
5.83857e-05
5.72857e-05
5.58534e-05
5.01952e-05
4.37612e-05
4.14748e-05
4.03177e-05
3.87237e-05
4.01355e-05
4.31804e-05
4.33481e-05
4.36204e-05
4.47278e-05
4.99556e-05
5.32648e-05
5.50222e-05
5.48464e-05
5.33985e-05
5.23353e-05
4.95683e-05
4.97031e-05
4.85982e-05
4.92102e-05
4.86559e-05
5.04771e-05
4.96956e-05
5.1737e-05
5.17211e-05
5.61188e-05
5.81869e-05
6.47124e-05
7.95261e-05
8.31033e-05
9.29234e-05
0.000203405
0.000199208
0.000191584
0.000187111
0.000182155
0.000174447
0.000169524
0.000162632
0.000157825
0.000154979
0.000152229
0.000151516
0.000150553
0.00014955
0.000148502
0.000144755
0.000142442
0.000138965
0.000135705
0.000134274
0.000131973
0.000131079
0.000130326
0.000129304
0.000128929
0.000127894
0.000126704
0.000125859
0.000123933
0.000123067
0.000122247
0.000121356
0.000121159
0.000120927
0.000120496
0.000120412
0.000119883
0.000119348
0.000119095
0.000118433
0.000118036
0.000117558
0.000116336
0.000115625
0.000114393
0.000112521
0.000111601
0.000109527
0.000108108
0.000107023
0.000106232
0.000104842
0.000104594
0.00010419
0.000103148
0.00010292
0.000102121
0.000101173
0.000100795
9.99122e-05
9.92065e-05
9.83888e-05
9.68031e-05
9.57814e-05
9.33801e-05
9.14295e-05
8.86249e-05
8.46934e-05
8.23577e-05
7.82424e-05
7.4426e-05
7.13469e-05
6.70482e-05
6.31706e-05
5.92153e-05
5.51106e-05
5.10466e-05
4.67548e-05
4.26567e-05
3.86671e-05
3.48003e-05
3.13614e-05
2.82516e-05
2.58557e-05
2.36437e-05
2.20914e-05
2.11589e-05
2.01242e-05
1.93989e-05
1.86338e-05
1.77307e-05
1.68738e-05
1.60116e-05
1.53058e-05
1.46097e-05
1.40257e-05
1.33007e-05
1.28511e-05
1.19804e-05
1.14905e-05
1.08704e-05
1.03579e-05
9.88989e-06
9.86156e-06
9.92956e-06
1.01281e-05
1.05808e-05
1.10697e-05
1.19971e-05
1.38395e-05
1.73076e-05
2.32475e-05
3.28844e-05
4.84952e-05
7.38863e-05
0.000114366
0.000142225
0.000150642
0.000150031
0.000146745
0.000139582
0.000126528
0.000120205
0.000116591
0.000113684
0.000111795
0.000109607
0.000108281
0.000105693
0.000103741
0.000103712
0.00010392
0.000104574
0.000108177
0.000111977
0.000112772
0.000112419
0.000110327
0.000107612
0.000102761
0.00010123
9.96338e-05
9.61361e-05
8.86805e-05
7.97314e-05
7.182e-05
7.12386e-05
7.13492e-05
7.48448e-05
7.87681e-05
8.82615e-05
9.15824e-05
9.46657e-05
9.437e-05
9.34514e-05
9.17001e-05
8.99864e-05
8.64012e-05
8.38388e-05
8.03875e-05
7.89526e-05
7.59315e-05
7.47519e-05
7.23236e-05
6.98164e-05
6.85998e-05
6.56283e-05
6.12425e-05
5.98175e-05
5.64803e-05
4.81688e-05
4.5233e-05
4.51029e-05
4.8615e-05
4.82182e-05
4.58959e-05
4.40837e-05
4.40607e-05
4.50959e-05
5.06557e-05
5.41977e-05
5.60819e-05
5.59918e-05
5.49518e-05
5.46467e-05
5.26654e-05
5.2056e-05
5.00395e-05
5.01897e-05
4.97691e-05
5.04951e-05
4.98023e-05
5.05457e-05
5.11267e-05
5.29039e-05
5.95567e-05
6.60801e-05
7.53605e-05
7.8134e-05
8.1721e-05
0.000104916
0.000104631
0.000103603
0.000102974
0.000101831
9.81263e-05
9.58709e-05
9.07516e-05
8.76833e-05
8.51051e-05
8.39835e-05
8.40957e-05
8.44888e-05
8.54175e-05
8.58845e-05
8.58952e-05
8.54184e-05
8.37308e-05
8.07802e-05
7.93446e-05
7.77172e-05
7.65957e-05
7.642e-05
7.6041e-05
7.61762e-05
7.62209e-05
7.61225e-05
7.61398e-05
7.55113e-05
7.49116e-05
7.40529e-05
7.31813e-05
7.30886e-05
7.30429e-05
7.30811e-05
7.32891e-05
7.33103e-05
7.31201e-05
7.28428e-05
7.21763e-05
7.14934e-05
7.11271e-05
7.02104e-05
6.96335e-05
6.88349e-05
6.73916e-05
6.67641e-05
6.55452e-05
6.39951e-05
6.32469e-05
6.22244e-05
6.11447e-05
6.07952e-05
6.02254e-05
5.95001e-05
5.92461e-05
5.87317e-05
5.78606e-05
5.73971e-05
5.62767e-05
5.54698e-05
5.47428e-05
5.33603e-05
5.25641e-05
5.10928e-05
4.98489e-05
4.82272e-05
4.59449e-05
4.42379e-05
4.18077e-05
3.92876e-05
3.72511e-05
3.47517e-05
3.25066e-05
3.06366e-05
2.85215e-05
2.65399e-05
2.45447e-05
2.22716e-05
2.01638e-05
1.80908e-05
1.61837e-05
1.45126e-05
1.31911e-05
1.21614e-05
1.13612e-05
1.10143e-05
1.0636e-05
1.03806e-05
1.00961e-05
9.75295e-06
9.28871e-06
8.94723e-06
8.58953e-06
8.30719e-06
8.0216e-06
7.8109e-06
7.66422e-06
7.50251e-06
7.47817e-06
7.55012e-06
7.7781e-06
8.02539e-06
8.41906e-06
8.99903e-06
9.7267e-06
1.06885e-05
1.25252e-05
1.59552e-05
2.0682e-05
2.74704e-05
3.79793e-05
5.44861e-05
8.20859e-05
0.000128167
0.000152289
0.000157034
0.000155302
0.000149761
0.000134655
0.000124732
0.00011964
0.000118009
0.000115944
0.000114481
0.000114113
0.000113254
0.000112271
0.000109472
0.000107029
0.000105708
0.000105633
0.000105718
0.000105834
0.00010831
0.000111125
0.000111591
0.000111458
0.000109345
0.000107402
0.00010712
0.000104261
9.93755e-05
9.11225e-05
8.36985e-05
8.23967e-05
8.27745e-05
8.5196e-05
9.30406e-05
0.000100144
0.000104877
0.000108105
0.00010605
0.000103756
9.905e-05
9.72578e-05
9.22376e-05
8.86017e-05
8.61218e-05
8.39074e-05
8.23861e-05
7.97454e-05
7.71191e-05
7.62432e-05
7.3427e-05
7.11921e-05
6.9819e-05
6.76973e-05
6.33827e-05
6.08634e-05
5.72983e-05
5.06664e-05
4.93558e-05
5.00132e-05
5.18139e-05
5.08661e-05
4.74916e-05
4.64019e-05
4.65252e-05
5.13477e-05
5.57507e-05
5.74598e-05
5.83752e-05
5.78603e-05
5.64946e-05
5.38972e-05
5.22466e-05
5.06601e-05
5.06038e-05
5.06002e-05
5.04401e-05
5.00966e-05
5.01431e-05
5.1025e-05
5.24247e-05
5.9107e-05
7.11067e-05
7.57551e-05
7.86878e-05
7.93358e-05
4.02239e-05
4.3466e-05
4.4572e-05
4.48952e-05
4.45587e-05
4.29756e-05
4.14037e-05
3.83741e-05
3.64647e-05
3.51449e-05
3.47346e-05
3.47783e-05
3.57022e-05
3.75323e-05
3.89608e-05
3.96414e-05
3.97256e-05
3.95383e-05
3.78205e-05
3.65214e-05
3.53781e-05
3.45971e-05
3.46163e-05
3.45336e-05
3.48014e-05
3.54172e-05
3.57212e-05
3.64106e-05
3.63249e-05
3.62948e-05
3.61067e-05
3.56422e-05
3.56618e-05
3.56556e-05
3.57758e-05
3.61217e-05
3.64278e-05
3.65263e-05
3.6515e-05
3.64493e-05
3.61622e-05
3.59792e-05
3.55896e-05
3.52176e-05
3.49663e-05
3.42339e-05
3.38204e-05
3.32567e-05
3.23774e-05
3.20338e-05
3.13019e-05
3.07743e-05
3.06091e-05
3.02259e-05
2.9991e-05
2.9869e-05
2.95433e-05
2.92753e-05
2.87098e-05
2.80653e-05
2.74665e-05
2.69346e-05
2.62263e-05
2.56738e-05
2.51671e-05
2.45155e-05
2.36824e-05
2.25387e-05
2.14363e-05
2.01709e-05
1.87994e-05
1.76576e-05
1.64309e-05
1.5355e-05
1.45468e-05
1.36183e-05
1.27335e-05
1.18299e-05
1.07971e-05
9.83538e-06
8.93894e-06
8.16639e-06
7.52305e-06
7.07387e-06
6.71556e-06
6.51037e-06
6.47702e-06
6.49667e-06
6.53921e-06
6.55036e-06
6.50713e-06
6.46886e-06
6.38649e-06
6.31941e-06
6.31897e-06
6.32819e-06
6.36403e-06
6.49717e-06
6.66244e-06
6.91871e-06
7.45912e-06
7.90941e-06
8.82922e-06
9.68289e-06
1.09864e-05
1.32612e-05
1.57909e-05
1.9889e-05
2.63834e-05
3.32579e-05
4.38257e-05
6.08321e-05
8.93023e-05
0.000139856
0.000161401
0.00016275
0.000159629
0.000148396
0.000130736
0.000122323
0.000120076
0.000118611
0.000118702
0.000118571
0.000118822
0.000118767
0.000118205
0.000117652
0.000115877
0.000114439
0.000110557
0.000109244
0.000107542
0.000106859
0.000106904
0.000108466
0.000110868
0.000111333
0.000110218
0.000109529
0.000108986
0.000107953
0.000105362
9.94566e-05
9.19181e-05
9.16723e-05
9.33844e-05
0.000103589
0.000110299
0.000120182
0.000119579
0.000116908
0.000108838
0.000105624
9.81247e-05
9.60588e-05
8.99541e-05
8.84942e-05
8.45504e-05
8.40321e-05
8.20963e-05
8.07244e-05
7.85758e-05
7.58883e-05
7.55463e-05
7.2788e-05
7.12323e-05
6.93239e-05
6.63708e-05
6.32526e-05
6.12322e-05
6.0501e-05
5.75201e-05
5.3973e-05
5.34725e-05
5.2196e-05
4.97531e-05
4.82068e-05
4.84078e-05
5.31914e-05
5.82619e-05
5.9792e-05
5.99206e-05
5.86191e-05
5.7304e-05
5.43461e-05
5.28642e-05
5.19241e-05
5.18165e-05
5.19782e-05
5.11249e-05
5.16213e-05
5.09418e-05
5.19053e-05
5.32145e-05
5.75344e-05
7.33587e-05
7.78168e-05
8.14355e-05
8.15545e-05
1.15375e-05
1.35556e-05
1.42458e-05
1.4494e-05
1.42583e-05
1.31533e-05
1.22036e-05
1.14803e-05
1.12799e-05
1.13452e-05
1.15268e-05
1.17204e-05
1.20126e-05
1.25456e-05
1.31293e-05
1.33642e-05
1.32879e-05
1.28984e-05
1.21101e-05
1.15871e-05
1.1279e-05
1.10934e-05
1.11491e-05
1.12207e-05
1.15153e-05
1.20105e-05
1.21307e-05
1.26334e-05
1.25901e-05
1.25992e-05
1.25913e-05
1.23322e-05
1.23764e-05
1.2348e-05
1.24021e-05
1.27629e-05
1.30324e-05
1.34842e-05
1.361e-05
1.3633e-05
1.36234e-05
1.3578e-05
1.35069e-05
1.34229e-05
1.32294e-05
1.30501e-05
1.28712e-05
1.26185e-05
1.23326e-05
1.21581e-05
1.19726e-05
1.18903e-05
1.18693e-05
1.18325e-05
1.1829e-05
1.18209e-05
1.17807e-05
1.16557e-05
1.13712e-05
1.11921e-05
1.09503e-05
1.07647e-05
1.05305e-05
1.03259e-05
1.0137e-05
9.94515e-06
9.5539e-06
9.11283e-06
8.61791e-06
8.11536e-06
7.6347e-06
7.18882e-06
6.77931e-06
6.39893e-06
6.15359e-06
5.93095e-06
5.77397e-06
5.61759e-06
5.48116e-06
5.47926e-06
5.44902e-06
5.42772e-06
5.44117e-06
5.47492e-06
5.55284e-06
5.67327e-06
5.90337e-06
6.12304e-06
6.26089e-06
6.38636e-06
6.45059e-06
6.52936e-06
6.61864e-06
6.75378e-06
7.10279e-06
7.37414e-06
7.72432e-06
8.53717e-06
9.0671e-06
1.01247e-05
1.0983e-05
1.23489e-05
1.40709e-05
1.56063e-05
1.85302e-05
2.19534e-05
2.57248e-05
3.28075e-05
4.06994e-05
5.08946e-05
6.7459e-05
9.61387e-05
0.000149426
0.000169087
0.000169172
0.000163901
0.000144757
0.000128495
0.000121312
0.000118723
0.000118695
0.000118931
0.000119749
0.000119576
0.000120118
0.000119737
0.000119241
0.000118655
0.000117387
0.000116731
0.000114627
0.000112005
0.000108267
0.000107614
0.000106985
0.000108105
0.000109409
0.000111484
0.000112594
0.000113431
0.000113349
0.000113372
0.000107304
0.000101705
9.77836e-05
0.000101753
0.00010867
0.000124924
0.00013243
0.000130312
0.000124906
0.00011171
0.000104654
9.80977e-05
9.08074e-05
8.91874e-05
8.43517e-05
8.46446e-05
8.24608e-05
8.28838e-05
8.26523e-05
8.07918e-05
8.02785e-05
7.71438e-05
7.54096e-05
7.4587e-05
7.44086e-05
7.25068e-05
6.92187e-05
6.612e-05
6.31605e-05
6.26797e-05
6.31865e-05
6.19055e-05
5.82375e-05
5.51214e-05
5.19219e-05
5.11674e-05
5.13075e-05
5.53172e-05
5.95761e-05
6.06514e-05
6.07094e-05
5.94199e-05
5.84416e-05
5.56523e-05
5.55885e-05
5.53629e-05
5.55568e-05
5.57137e-05
5.41736e-05
5.51354e-05
5.30927e-05
5.2984e-05
5.34512e-05
5.54661e-05
6.96124e-05
7.93605e-05
8.37928e-05
8.43183e-05
3.33311e-06
3.74699e-06
3.86657e-06
3.81516e-06
3.75131e-06
3.8621e-06
4.18676e-06
4.32732e-06
4.32739e-06
4.0716e-06
3.90941e-06
3.91772e-06
4.08749e-06
4.18327e-06
4.19928e-06
4.03651e-06
3.89374e-06
3.86257e-06
3.96305e-06
4.0615e-06
4.11527e-06
4.0359e-06
3.91291e-06
3.74113e-06
3.70283e-06
3.71425e-06
3.68847e-06
3.75513e-06
3.72322e-06
3.72662e-06
3.72985e-06
3.66317e-06
3.67273e-06
3.6926e-06
3.73611e-06
3.94161e-06
4.04051e-06
4.27486e-06
4.4196e-06
4.4553e-06
4.47489e-06
4.45836e-06
4.42953e-06
4.38999e-06
4.27858e-06
4.21679e-06
4.12421e-06
4.03572e-06
3.97891e-06
3.92733e-06
3.90904e-06
3.9094e-06
3.91269e-06
3.92587e-06
3.92916e-06
3.93092e-06
3.93592e-06
3.93486e-06
3.9258e-06
3.92721e-06
3.91713e-06
3.90329e-06
3.89983e-06
3.87736e-06
3.85317e-06
3.84376e-06
3.82201e-06
3.80867e-06
3.80732e-06
3.79508e-06
3.79866e-06
3.81269e-06
3.86382e-06
3.91648e-06
4.04955e-06
4.18691e-06
4.46176e-06
4.75112e-06
4.92701e-06
5.33311e-06
5.67632e-06
6.09745e-06
6.7143e-06
7.2489e-06
7.9886e-06
8.55946e-06
9.05479e-06
9.5146e-06
9.72442e-06
9.9511e-06
1.018e-05
1.04348e-05
1.07714e-05
1.12987e-05
1.21855e-05
1.27362e-05
1.3676e-05
1.49034e-05
1.57432e-05
1.74939e-05
1.86884e-05
2.0821e-05
2.30019e-05
2.5559e-05
3.0481e-05
3.44195e-05
4.08288e-05
5.0243e-05
6.03363e-05
7.64537e-05
0.00010409
0.000157898
0.000176686
0.000175591
0.000165134
0.000141098
0.000127362
0.000120442
0.000117281
0.000116156
0.000115645
0.000117033
0.000118664
0.000119421
0.000120682
0.000119803
0.000119874
0.000118144
0.00011716
0.000116945
0.000115792
0.000113479
0.000109571
0.000108257
0.000107819
0.000108863
0.000109708
0.00011253
0.000113515
0.000114841
0.000114924
0.000114191
0.000106561
0.000105301
0.000107436
0.000115748
0.000134126
0.000144702
0.000140578
0.000131467
0.000111106
9.8223e-05
9.42464e-05
8.69425e-05
8.52668e-05
8.48997e-05
8.3688e-05
8.24307e-05
8.26847e-05
8.09771e-05
8.3151e-05
8.16973e-05
8.64254e-05
8.11269e-05
8.11535e-05
8.00159e-05
9.20548e-05
8.37197e-05
7.40185e-05
6.8203e-05
6.47094e-05
6.52087e-05
6.5819e-05
6.60634e-05
6.41311e-05
5.95733e-05
5.45655e-05
5.27524e-05
5.28151e-05
5.58834e-05
6.0197e-05
6.12723e-05
6.20598e-05
6.16993e-05
6.09941e-05
5.84522e-05
5.88375e-05
5.87002e-05
5.91325e-05
6.29246e-05
6.13161e-05
6.20467e-05
5.93033e-05
5.55024e-05
5.49942e-05
5.57076e-05
6.08264e-05
7.5893e-05
8.30161e-05
8.4461e-05
2.38022e-06
2.41404e-06
2.48024e-06
2.55735e-06
2.6654e-06
2.68878e-06
2.6092e-06
2.56923e-06
2.64509e-06
2.81711e-06
2.90708e-06
2.90959e-06
2.77181e-06
2.70353e-06
2.7386e-06
2.98074e-06
3.13087e-06
3.15586e-06
3.08203e-06
2.93802e-06
2.86532e-06
2.84837e-06
2.87163e-06
2.87039e-06
2.86493e-06
2.79301e-06
2.71879e-06
2.6785e-06
2.66467e-06
2.6554e-06
2.65779e-06
2.65788e-06
2.6449e-06
2.63932e-06
2.62252e-06
2.61752e-06
2.61807e-06
2.63485e-06
2.65811e-06
2.67358e-06
2.6734e-06
2.67554e-06
2.67063e-06
2.66686e-06
2.66414e-06
2.66063e-06
2.66246e-06
2.66795e-06
2.67053e-06
2.67645e-06
2.68124e-06
2.68507e-06
2.68841e-06
2.69329e-06
2.70329e-06
2.7178e-06
2.73625e-06
2.76222e-06
2.81414e-06
2.86014e-06
2.91138e-06
2.97613e-06
3.04934e-06
3.11382e-06
3.21437e-06
3.2872e-06
3.45381e-06
3.58852e-06
3.79216e-06
4.10248e-06
4.29479e-06
4.66281e-06
5.21532e-06
5.52894e-06
6.1694e-06
6.80732e-06
7.36846e-06
8.34692e-06
8.8996e-06
9.82772e-06
1.10059e-05
1.18091e-05
1.31039e-05
1.40152e-05
1.51517e-05
1.60252e-05
1.66742e-05
1.74473e-05
1.78686e-05
1.8129e-05
1.86729e-05
1.899e-05
1.95621e-05
2.01771e-05
2.14168e-05
2.22556e-05
2.34828e-05
2.51144e-05
2.63078e-05
2.87574e-05
3.04965e-05
3.36727e-05
3.67288e-05
4.08403e-05
4.73951e-05
5.28284e-05
6.35166e-05
7.40371e-05
8.93293e-05
0.000114865
0.000166102
0.000183535
0.00018146
0.000164039
0.000141752
0.000128781
0.000120418
0.000113173
0.000108714
0.000107152
0.000108135
0.000112668
0.000116209
0.000118239
0.000120533
0.000120236
0.0001205
0.000118124
0.000117567
0.000116931
0.000116094
0.00011263
0.000110603
0.000110291
0.000109847
0.000110088
0.000110967
0.000112638
0.000113662
0.000116374
0.000115291
0.000112298
0.000107972
0.000110405
0.000118793
0.00013715
0.000153316
0.000150253
0.000135382
0.000111278
9.63069e-05
9.13807e-05
8.41503e-05
8.02605e-05
8.21001e-05
8.02329e-05
8.12881e-05
7.89435e-05
8.03011e-05
7.94428e-05
8.22293e-05
8.27896e-05
0.000121001
0.000103088
0.000102997
9.71477e-05
0.000226815
0.000178638
0.000109497
7.91415e-05
6.93403e-05
6.88054e-05
6.75215e-05
6.76862e-05
6.61595e-05
6.12033e-05
5.60252e-05
5.36794e-05
5.37782e-05
5.58361e-05
6.1263e-05
6.30359e-05
6.45543e-05
6.45066e-05
6.41836e-05
6.17882e-05
6.19961e-05
6.19496e-05
6.26351e-05
6.77427e-05
6.73641e-05
6.80021e-05
6.74447e-05
6.17362e-05
5.82435e-05
5.75855e-05
5.86457e-05
6.45333e-05
7.65489e-05
8.22702e-05
2.39982e-06
2.41024e-06
2.44321e-06
2.46253e-06
2.47883e-06
2.59527e-06
2.67925e-06
2.71598e-06
2.71202e-06
2.68316e-06
2.69511e-06
2.84704e-06
2.99232e-06
3.00763e-06
2.9582e-06
2.87769e-06
2.86104e-06
2.97435e-06
3.13718e-06
3.22061e-06
3.22768e-06
3.14512e-06
3.03746e-06
2.93939e-06
2.90116e-06
2.87755e-06
2.87381e-06
2.86908e-06
2.86473e-06
2.86808e-06
2.86744e-06
2.88018e-06
2.91958e-06
2.92538e-06
2.94526e-06
2.9436e-06
2.93703e-06
2.9285e-06
2.85685e-06
2.8348e-06
2.79846e-06
2.79495e-06
2.80157e-06
2.8213e-06
2.88429e-06
3.02087e-06
3.12599e-06
3.29486e-06
3.37651e-06
3.43985e-06
3.49748e-06