/*--------------------------------*- C++ -*----------------------------------*\
| =========                 |                                                 |
| \\      /  F ield         | OpenFOAM: The Open Source CFD Toolbox           |
|  \\    /   O peration     | Version:  2.4.0                                 |
|   \\  /    A nd           | Web:      www.OpenFOAM.org                      |
|    \\/     M anipulation  |                                                 |
\*---------------------------------------------------------------------------*/
FoamFile
{
    version     2.0;
    format      ascii;
    class       volScalarField;
    location    "0.83";
    object      p;
}
// * * * * * * * * * * * * * * * * * * * * * * * * * * * * * * * * * * * * * //

dimensions      [0 2 -2 0 0 0 0];

internalField   nonuniform List<scalar> 
8800
(
86.5826
74.2269
66.8324
63.3003
61.4105
60.0194
58.8034
57.6993
56.7137
55.7004
54.7549
53.868
52.9535
52.0363
51.2288
50.426
49.6567
48.9745
48.1595
47.8008
83.4691
73.873
67.0024
63.4146
61.4697
60.0451
58.8107
57.6986
56.7135
55.6983
54.7499
53.8675
52.9523
52.0325
51.227
50.4248
49.6561
48.9765
48.1537
47.6914
81.5029
73.9499
67.6054
63.7903
61.6372
60.1241
58.8564
57.7308
56.7385
55.7151
54.7595
53.874
52.9541
52.0288
51.2255
50.4173
49.6545
48.9757
48.2056
47.6952
79.9657
74.0113
68.1955
64.2154
61.8206
60.2088
58.9179
57.788
56.7867
55.7539
54.7889
53.8914
52.9639
52.0336
51.2254
50.41
49.6435
48.969
48.2864
47.8988
78.7156
73.9838
68.6741
64.6242
61.9912
60.2748
58.9655
57.845
56.8382
55.8065
54.8299
53.9178
52.976
52.0484
51.221
50.4058
49.6176
48.9614
48.2111
48.1966
77.7301
73.8866
69.0442
64.975
62.1436
60.3159
58.9946
57.8916
56.8838
55.8585
54.8716
53.9403
52.9887
52.0633
51.2167
50.3993
49.5957
48.9479
48.2674
48.716
76.9728
73.7737
69.3127
65.2573
62.2858
60.3436
59.0036
57.9237
56.9195
55.9018
54.91
53.961
53.0013
52.0727
51.2134
50.3882
49.5847
48.9507
48.3984
49.0342
76.4224
73.6737
69.4963
65.4723
62.4102
60.36
59.0028
57.9459
56.9467
55.9363
54.9387
53.9741
53.0114
52.0814
51.2093
50.383
49.5867
48.9666
48.5116
49.259
76.0654
73.5987
69.611
65.6161
62.4998
60.3706
58.999
57.9586
56.9638
55.9599
54.9609
53.9838
53.0178
52.0876
51.2097
50.3829
49.5937
48.9856
48.6124
49.4035
75.8903
73.5583
69.6668
65.6899
62.5445
60.3736
58.9989
57.9639
56.9704
55.9757
54.9741
53.9857
53.0222
52.0957
51.2122
50.3877
49.6124
49.0039
48.68
49.5119
75.8919
73.5578
69.6664
65.6904
62.5445
60.3734
59.0005
57.9638
56.9683
55.978
54.9778
53.984
53.0261
52.1037
51.2187
50.3978
49.6277
49.0223
48.7366
49.579
76.0651
73.6
69.6104
65.6187
62.4998
60.3654
59.0064
57.9601
56.9539
55.9711
54.9721
53.9755
53.0276
52.1134
51.2273
50.4113
49.6503
49.0387
48.7583
49.6033
76.4241
73.6741
69.4941
65.4755
62.4111
60.3536
59.0141
57.9487
56.9299
55.9528
54.9583
53.9627
53.0268
52.1235
51.2382
50.4314
49.6747
49.0613
48.7543
49.5644
76.9735
73.7736
69.3106
65.2629
62.2856
60.333
59.0196
57.9296
56.8956
55.9256
54.9372
53.9423
53.0234
52.1326
51.251
50.4553
49.7078
49.0886
48.7363
49.4609
77.7321
73.886
69.0401
64.9809
62.1446
60.3038
59.0157
57.897
56.8516
55.8894
54.9081
53.9156
53.0187
52.1381
51.2636
50.4824
49.7482
49.1273
48.7259
49.2739
78.7164
73.9816
68.6726
64.6332
61.9905
60.2572
58.9919
57.8546
56.7974
55.8439
54.8775
53.8821
53.0098
52.1415
51.2767
50.505
49.7965
49.1752
48.7488
49.0209
79.966
74.0105
68.1939
64.2257
61.8198
60.1888
58.9488
57.801
56.7367
55.7961
54.8461
53.8512
53.0008
52.1412
51.2884
50.5222
49.8435
49.2224
48.8031
48.7366
81.5033
73.9478
67.6053
63.8019
61.6361
60.1018
58.8884
57.7464
56.6878
55.7572
54.8218
53.8331
52.9937
52.1403
51.2991
50.535
49.8767
49.2588
48.8612
48.584
83.4699
73.8712
67.0014
63.4252
61.4695
60.0237
58.8416
57.7148
56.6652
55.739
54.8112
53.8306
52.9931
52.1427
51.3071
50.5448
49.892
49.2806
48.8573
48.4976
86.5843
74.2247
66.8317
63.3111
61.4098
59.9995
58.8334
57.7132
56.6696
55.741
54.8114
53.8358
52.996
52.1433
51.3115
50.5487
49.8951
49.2872
48.8598
48.6192
48.3562
48.3636
48.1441
47.8973
47.7089
47.6547
47.6895
47.7689
47.8781
47.9586
48.0202
48.0204
48.0013
47.9835
47.9662
47.9793
48.0025
48.0408
48.0939
48.1265
48.1183
48.0442
47.8748
47.6292
47.3312
47.045
46.8696
46.792
46.814
46.9299
47.0215
47.0791
47.0027
46.7439
46.3514
45.7725
45.0549
44.2706
43.4583
42.7395
42.1975
41.892
41.8772
42.1248
42.5766
43.2429
44.0151
44.7722
45.4904
46.066
46.4257
46.6449
46.6374
46.3663
46.0372
45.5533
44.8979
44.2724
43.5331
42.6965
41.9844
41.3162
40.75
40.3929
40.195
40.1525
40.2412
40.3635
40.3727
40.313
40.1262
39.6962
39.2929
38.8859
38.4125
38.1586
38.105
38.2367
38.6827
39.4161
40.5057
41.8592
43.2221
44.6133
45.9957
47.3091
48.3995
49.1689
49.7415
49.9057
49.8115
49.5398
48.8316
48.0987
47.3501
46.2461
45.306
44.4615
43.3691
42.5169
42.0053
41.3822
40.8872
40.8053
40.7578
40.5987
40.8722
41.2838
41.6278
42.0012
42.2237
42.3489
42.2917
41.3684
40.3819
39.7744
37.8498
35.1136
33.3554
31.0268
27.4206
24.1555
21.1462
17.7339
14.5356
11.8511
9.585
8.0299
7.35968
7.54303
8.72388
10.8575
13.1654
16.6782
21.4088
26.7538
32.5832
38.8384
45.1715
50.6415
55.5623
59.3872
62.0351
64.0769
65.3035
65.6524
65.4311
65.1207
64.4848
63.4574
62.2414
61.2321
60.0736
58.9419
58.0565
57.3425
56.6174
56.3658
56.4158
56.586
56.9292
57.674
58.6029
59.5042
60.4978
61.6297
62.8571
64.0056
65.147
66.27
67.2816
68.228
69.2605
70.3691
71.2826
72.0915
72.7427
73.2727
74.0053
74.5181
74.744
74.7547
74.7597
74.5334
74.2062
73.7728
73.1896
72.5282
71.6399
70.5321
68.9977
67.2973
65.1591
63.0425
60.1892
57.6955
54.6514
50.0577
44.1641
25.8973
48.2414
48.3188
48.1363
47.9014
47.6439
47.5433
47.5483
47.6396
47.8053
47.9164
48.0278
48.0509
48.0345
48.0154
47.9701
47.9778
47.9853
48.007
48.0507
48.0614
48.0392
47.968
47.8108
47.6077
47.3672
47.1086
46.9507
46.849
46.8271
46.9025
46.9285
46.9508
46.8716
46.6035
46.2441
45.7104
45.0467
44.3569
43.6237
42.9746
42.503
42.1938
42.1714
42.3801
42.7354
43.3296
43.9974
44.6584
45.3441
45.8726
46.2161
46.4558
46.4691
46.2174
45.933
45.4937
44.849
44.2782
43.629
42.8235
42.1779
41.5832
41.0203
40.6622
40.4481
40.3146
40.3073
40.39
40.3383
40.259
40.1346
39.7423
39.3963
39.0613
38.6829
38.5628
38.5679
38.7533
39.2449
39.9718
41.069
42.3256
43.5435
44.794
46.0359
47.1944
48.1395
48.8581
49.3754
49.5042
49.5308
49.449
48.8178
48.145
47.6753
46.8433
45.9978
45.3787
44.6052
43.8807
43.5541
43.334
42.9874
42.8611
43.0971
43.2466
43.4228
43.8728
44.3717
44.5586
44.4518
44.3999
44.1961
43.0209
41.4022
40.3161
38.4429
35.1635
32.3673
29.627
25.6205
21.4263
17.6215
13.7325
9.92275
6.68445
4.23243
2.43895
1.47483
1.60139
2.78735
4.81823
7.67945
11.5574
16.4722
22.3448
28.9642
36.2138
43.5354
49.8935
55.5189
59.7409
62.6906
64.6737
65.8492
66.2339
65.9251
65.4347
64.5993
63.3454
61.8954
60.5503
59.0608
57.5725
56.5328
55.5901
54.7367
54.4794
54.5506
54.557
55.0864
56.0616
57.0641
58.2025
59.4772
60.7142
61.9801
63.2762
64.4808
65.5403
66.7166
67.9687
69.1305
70.0763
71.0845
71.9594
72.7397
73.4243
74.0735
74.3337
74.5382
74.6912
74.4435
74.2206
73.9021
73.482
72.6897
72.0649
70.9696
69.8894
68.0612
66.3739
64.0624
61.7171
58.8807
55.7932
52.4762
46.0635
39.0642
21.9091
48.2753
48.4135
48.3362
48.1187
47.6998
47.496
47.4214
47.4888
47.7161
47.849
48.0317
48.0712
48.0626
48.0511
47.9657
47.9722
47.9522
47.9534
47.9864
47.9755
47.9386
47.8786
47.7348
47.5659
47.3954
47.1481
47.0312
46.8998
46.815
46.8793
46.7992
46.8147
46.7215
46.4273
46.1479
45.6343
45.0551
44.477
43.8138
43.2762
42.8584
42.5818
42.5348
42.6901
42.9716
43.4545
44.0357
44.5846
45.1836
45.6926
45.9648
46.2174
46.2893
46.0162
45.8118
45.4253
44.7669
44.3058
43.6966
42.9747
42.4239
41.8412
41.3562
40.9897
40.7369
40.5858
40.4544
40.5351
40.4442
40.2694
40.2898
39.9435
39.5818
39.4317
39.1513
39.0731
39.1458
39.426
39.989
40.6365
41.6509
42.7884
43.8459
44.9825
46.023
47.0646
47.9214
48.4624
49.0032
49.2919
49.2341
49.2127
48.8909
48.3425
48.0035
47.4983
46.7909
46.3155
46.0053
45.5209
45.1807
45.228
45.1893
45.0837
45.4471
45.9015
46.0408
46.3361
46.8951
47.0338
46.7104
46.4824
46.1046
44.8515
42.8682
41.1345
39.0382
35.6383
31.967
28.4003
24.0878
19.3556
14.8396
10.4759
6.26211
2.59915
-0.245355
-2.36223
-3.44169
-3.29231
-2.04818
0.117182
3.16629
7.14789
11.9654
17.9561
24.9443
33.046
41.4797
48.9101
55.1988
59.9599
63.2585
65.3107
66.5542
66.8448
66.5387
65.9079
64.7557
63.2006
61.4872
59.716
57.8593
56.0528
54.8629
53.6015
52.7629
52.3654
52.3924
52.4952
53.0586
54.3116
55.552
56.673
58.2501
59.8426
61.1232
62.3901
63.8183
65.0558
65.977
67.1858
68.7324
70.0308
71.1042
71.9227
72.7016
73.3521
73.7481
74.2161
74.4412
74.456
74.2261
74.1172
73.6767
73.1278
72.3511
71.6324
70.5154
69.1929
67.4814
65.4941
63.2779
60.2679
57.6908
53.9658
50.5459
43.8768
36.2718
23.3043
48.5203
48.5139
48.305
48.0738
47.5374
47.2745
47.2108
47.2996
47.6231
47.7668
48.0146
48.0765
48.064
48.0852
47.954
47.9586
47.9209
47.8759
47.9151
47.8717
47.827
47.8083
47.6452
47.5204
47.393
47.1586
47.0763
46.9292
46.8168
46.8392
46.6945
46.6732
46.5661
46.2676
46.0247
45.5883
45.0845
44.6155
44.0641
43.6031
43.2721
42.9959
42.9446
43.0841
43.2357
43.6519
44.1317
44.5426
45.0767
45.5061
45.734
45.9733
46.059
45.8281
45.6615
45.3465
44.7564
44.3312
43.7977
43.1843
42.6813
42.1329
41.7736
41.3699
41.0564
40.9985
40.7386
40.7433
40.7434
40.4601
40.5179
40.3165
39.9598
39.9313
39.7467
39.711
39.8774
40.1735
40.7766
41.3299
42.188
43.3009
44.1334
45.1286
46.136
46.9404
47.702
48.2024
48.68
49.0633
48.9833
49.0117
49.0547
48.6189
48.2886
48.19
47.7479
47.3352
47.3326
47.1082
46.8071
47.067
47.3289
47.2623
47.6607
48.2727
48.4878
48.7164
49.2437
49.4808
49.0517
48.6216
48.1462
46.9354
44.7839
42.4373
39.8545
36.2861
32.1105
27.7808
23.1428
18.0013
12.881
7.98026
3.3019
-0.792079
-4.10979
-6.54527
-7.68132
-7.4664
-5.98189
-3.56372
-0.332781
3.46352
8.01941
14.0842
21.3695
30.0048
39.1595
47.605
54.7442
60.1265
63.7408
66.0238
67.3348
67.6239
67.3316
66.4567
64.9978
63.1202
60.9859
58.739
56.5325
54.3883
52.8528
51.4305
50.5097
50.0465
49.848
50.1935
51.0556
52.2884
53.8681
55.397
56.8678
58.5495
60.345
61.7085
62.8143
64.1413
65.5061
66.9214
68.2093
69.4614
70.8156
72.012
72.7766
73.4495
73.8172
74.3121
74.3961
74.3689
74.2218
73.9553
73.5393
72.9183
72.2418
71.2636
70.2419
68.615
67.1437
64.5508
62.4274
59.0652
56.4803
53.1479
49.341
42.9852
35.0222
25.3268
50.0491
49.7051
48.4071
47.6247
46.9302
46.7735
46.7823
47.0237
47.4771
47.6422
47.971
48.0458
48.056
48.115
47.9485
47.9475
47.8652
47.8077
47.8195
47.7545
47.7076
47.6534
47.5461
47.4363
47.3552
47.1594
47.0665
46.9443
46.7984
46.7804
46.6108
46.5214
46.4257
46.1464
45.9162
45.5719
45.1485
44.7708
44.3349
43.9457
43.7302
43.4404
43.3764
43.5129
43.5515
43.908
44.2673
44.5375
45.0452
45.318
45.5325
45.7819
45.7698
45.6811
45.5196
45.225
44.8025
44.3686
43.9284
43.4298
42.9596
42.5086
42.183
41.8115
41.5079
41.4364
41.1753
41.1016
41.1331
40.8499
40.8728
40.8021
40.4741
40.5205
40.4475
40.3789
40.6709
40.9517
41.4221
42.0495
42.7767
43.6832
44.4625
45.3588
46.2212
46.8215
47.5431
48.051
48.3943
48.8523
48.9486
48.9435
49.1635
49.0012
48.7006
48.8331
48.6983
48.3118
48.4536
48.6007
48.4103
48.7063
49.2261
49.2588
49.6194
50.4212
50.7963
51.0157
51.4853
51.8133
51.5585
51.1469
50.5293
49.1817
46.9519
44.1942
41.0736
37.2272
32.7973
27.9051
22.7438
17.0958
11.3608
5.85092
0.554181
-4.09385
-7.89565
-10.559
-11.8533
-11.4761
-9.54769
-6.79916
-3.27585
0.580958
5.00475
10.9791
18.4303
27.261
36.9915
46.2247
54.114
60.1752
64.2071
66.7865
68.139
68.4689
68.1828
67.0648
65.3449
62.9968
60.3341
57.6829
54.9853
52.529
50.4931
49.1482
47.9762
47.4063
47.2883
47.7268
48.8653
50.4208
52.0278
54.0037
56.0318
57.7091
59.3065
60.9375
62.2194
63.0549
64.3808
66.0853
67.7957
69.6071
70.9533
72.0513
72.8207
73.6358
74.0307
74.253
74.4333
74.3566
74.2866
73.9151
73.4745
72.8573
72.2285
71.041
70.1278
68.2858
66.7569
64.0444
61.8293
58.7226
55.5687
52.5661
48.5084
42.6104
35.0835
27.3466
51.0104
50.4542
48.5504
47.3205
46.5172
46.3609
46.4297
46.7876
47.3077
47.5512
47.9101
47.9998
48.0412
48.1058
47.9583
47.9196
47.8435
47.7595
47.723
47.6563
47.5809
47.5571
47.4407
47.3398
47.3297
47.1041
47.0509
46.9363
46.7612
46.752
46.5185
46.4392
46.3259
46.0471
45.8684
45.5434
45.2577
44.9302
44.592
44.3219
44.0691
43.9412
43.8065
43.8606
43.9594
44.1289
44.4311
44.6417
44.9868
45.2174
45.3953
45.5929
45.5533
45.5553
45.4036
45.1276
44.8735
44.4517
44.0671
43.7032
43.2782
42.8732
42.593
42.3135
41.9957
41.8812
41.7183
41.5516
41.5568
41.3826
41.295
41.3075
41.1084
41.0893
41.1255
41.1239
41.3581
41.6359
42.0786
42.6656
43.2574
44.0394
44.7964
45.5246
46.2285
46.7969
47.4587
47.9276
48.2651
48.7667
48.9615
49.0082
49.3244
49.3952
49.2216
49.4133
49.4823
49.3296
49.5916
49.8763
49.8915
50.2167
50.8103
51.1378
51.5638
52.3084
52.8542
53.2346
53.7818
54.3218
54.3089
53.8285
53.0977
51.666
49.2588
46.2173
42.7955
38.6655
33.805
28.4908
22.7955
16.5574
10.0861
3.75141
-2.2518
-7.46333
-11.7506
-14.6638
-15.9908
-15.4035
-12.9277
-9.64348
-5.9182
-1.81666
2.80463
8.67917
16.0462
25.1068
35.2751
45.0182
53.588
60.1236
64.5959
67.4704
69.0005
69.4496
69.083
67.7162
65.6134
62.7698
59.4923
56.5249
53.1853
50.4875
48.1193
46.6356
45.251
44.4986
44.6781
45.3681
46.5912
48.4032
50.5812
52.6871
54.8561
57.1445
58.9729
60.0581
60.8832
61.9836
63.5998
65.3942
67.3255
69.3333
70.748
72.0697
72.9913
73.618
74.147
74.3232
74.676
74.4649
74.4052
73.9852
73.53
72.8732
72.2425
70.9415
70.0436
68.3003
66.6755
64.0626
61.3065
58.5437
55.0314
52.0139
48.111
42.985
36.4426
29.5593
51.4925
50.9525
48.8619
47.3125
46.3124
46.081
46.1608
46.5793
47.1578
47.4501
47.8574
47.9442
48.0114
48.1136
47.944
47.9147
47.8022
47.7197
47.6542
47.554
47.5012
47.4526
47.3438
47.2498
47.2542
47.0603
47.0076
46.9148
46.7478
46.7157
46.4593
46.3774
46.2715
45.978
45.8612
45.5648
45.3549
45.1082
44.7983
44.6435
44.3835
44.313
44.2132
44.1586
44.3238
44.3721
44.5787
44.7797
44.9443
45.1954
45.3088
45.4177
45.482
45.4124
45.3065
45.1622
44.8755
44.5646
44.297
43.9202
43.5852
43.286
42.9706
42.7756
42.5057
42.3122
42.2478
42.0431
41.9851
41.9221
41.7738
41.796
41.7093
41.6588
41.7427
41.7772
41.9579
42.2665
42.6398
43.1253
43.6939
44.3623
45.0021
45.6551
46.2898
46.8062
47.4417
47.9155
48.2053
48.7427
49.0476
49.1598
49.5543
49.7745
49.7028
50.0075
50.3134
50.2537
50.6085
51.0525
51.1696
51.6441
52.3778
52.767
53.2644
54.1514
54.9023
55.5115
56.2099
56.776
56.9685
56.6871
55.8238
54.1724
51.6669
48.4517
44.6418
40.3347
35.2683
29.4915
23.1687
16.3356
9.20462
2.15415
-4.42068
-10.1726
-14.847
-18.1972
-19.5618
-18.7226
-15.9391
-12.0116
-7.96116
-3.71416
1.10442
7.06878
14.4899
23.8083
34.0857
44.1708
53.0857
60.0433
64.9959
68.1689
69.8924
70.3664
69.8985
68.2745
65.7302
62.3173
58.7132
54.9769
51.3875
48.1551
45.6924
43.763
42.2067
41.6179
41.85
42.8179
44.1503
46.0831
48.8471
51.6164
53.9247
56.6366
59.0038
59.7505
59.6338
60.5101
62.2223
64.7817
67.1489
69.1299
70.7691
72.1899
73.3258
73.8726
74.5903
74.7515
74.9172
74.5857
74.5001
74.0587
73.6501
72.9158
72.28
71.0287
70.0567
68.592
66.6429
64.1758
61.0784
58.1818
54.8803
51.9784
48.4164
44.2157
38.2386
31.6392
51.7212
51.297
49.1619
47.3761
46.2624
45.9412
45.9837
46.3941
46.9838
47.3434
47.7918
47.8973
48.006
48.1149
47.9335
47.9168
47.7764
47.6857
47.5972
47.4574
47.4309
47.3337
47.2703
47.1679
47.1606
47.0337
46.8852
46.8813
46.6813
46.6484
46.4621
46.3178
46.2598
45.9678
45.8555
45.6374
45.4277
45.2694
44.9875
44.8826
44.6979
44.5891
44.5445
44.4566
44.5872
44.616
44.7128
44.9033
44.9762
45.189
45.278
45.3198
45.4312
45.3266
45.2717
45.1958
44.8997
44.7202
44.4947
44.1306
43.9208
43.6467
43.3382
43.2158
42.9691
42.7587
42.7263
42.5237
42.4436
42.4199
42.2516
42.2892
42.2514
42.1709
42.297
42.3487
42.4798
42.7945
43.1059
43.5314
44.0595
44.6278
45.2016
45.7697
46.3711
46.8901
47.4405
47.8994
48.2427
48.7619
49.1829
49.3819
49.7243
50.1251
50.2955
50.6007
50.9904
51.1488
51.5414
52.1111
52.4597
52.9327
53.6847
54.3281
54.9603
55.9322
56.945
57.6753
58.4416
59.3036
59.6935
59.384
58.47
56.7208
54.0419
50.716
46.7325
42.0756
36.7756
30.757
24.0296
16.6788
8.99415
1.31979
-5.63947
-11.7126
-16.6382
-20.0835
-21.6416
-20.7338
-17.7973
-13.7645
-9.45435
-4.93639
0.031982
6.13826
13.7571
23.2706
33.559
43.8177
52.8232
59.9748
65.1551
68.5042
70.3861
70.8115
70.4759
68.6384
65.654
61.664
57.6509
53.2646
49.4915
45.9113
43.1921
41.0985
39.3804
39.0749
39.0845
40.5154
41.9
44.2593
47.3743
50.272
53.2393
56.9491
59.9025
58.4263
57.2915
58.5728
61.0374
64.251
66.9186
69.0148
71.0797
72.4743
73.7659
74.332
74.9801
75.1293
75.2572
74.8833
74.6649
74.2081
73.7967
72.9849
72.3212
71.2265
69.9942
68.9086
66.5981
64.2488
61.4794
58.1124
55.0671
52.3574
48.7911
45.3779
39.6767
33.4391
51.8769
51.5309
49.3321
47.4507
46.2778
45.8923
45.9157
46.2979
46.8888
47.2618
47.7169
47.8568
47.9872
48.1204
47.918
47.9054
47.722
47.6165
47.5499
47.3691
47.3862
47.2535
47.1967
47.1206
47.0585
47.0165
46.8259
46.8402
46.6958
46.5799
46.4887
46.2893
46.2511
46.0073
45.8485
45.7359
45.4934
45.4059
45.1744
45.0456
44.9821
44.8069
44.7917
44.7568
44.7651
44.8359
44.8735
44.9869
45.0814
45.1958
45.2732
45.3171
45.3793
45.3233
45.2851
45.208
45.0104
44.8449
44.6608
44.4051
44.1874
43.9666
43.7415
43.5789
43.3935
43.224
43.1265
43.0047
42.91
42.8434
42.7527
42.7568
42.7064
42.6892
42.7999
42.8207
42.9914
43.2758
43.4973
43.9159
44.408
44.8429
45.3686
45.9186
46.4617
46.9525
47.4291
47.9085
48.3638
48.8344
49.2267
49.5809
50.0381
50.4718
50.7789
51.1787
51.6156
51.9753
52.4897
53.0773
53.5409
54.166
54.9882
55.7409
56.575
57.5857
58.6688
59.7415
60.6897
61.584
62.2058
62.0496
60.968
59.0302
56.2195
52.6987
48.6631
43.9466
38.4595
32.1343
25.0856
17.3912
9.34372
1.31174
-6.15173
-12.4115
-17.3535
-20.7549
-22.1554
-21.2983
-18.4925
-14.5895
-10.2924
-5.59561
-0.380448
5.9395
13.8685
23.5473
33.7095
43.7412
52.4619
59.4245
64.7033
68.3033
70.5338
71.576
70.8236
68.6462
65.1265
60.8682
56.3497
51.8013
47.7646
43.9969
41.148
38.8142
37.3096
36.8803
36.7561
38.6455
40.3743
43.1643
46.5192
48.236
52.2991
58.1062
63.077
55.3718
53.8976
56.2082
59.7985
63.5395
66.8751
69.1953
71.5313
72.7772
74.1726
74.9069
75.4932
75.6817
75.7626
75.4042
75.0337
74.5353
73.9751
73.0801
72.343
71.3889
69.8138
69.1477
66.849
64.5267
62.3245
58.3612
55.5445
52.8049
48.6652
45.9164
41.1014
35.5424
51.9277
51.6246
49.4363
47.5244
46.3467
45.8578
45.8503
46.205
46.815
47.2188
47.6722
47.8621
47.957
48.1041
47.8819
47.8674
47.6911
47.5452
47.5263
47.2751
47.3229
47.1875
47.0992
47.1092
46.9544
47.001
46.8098
46.7625
46.7343
46.5086
46.4897
46.3133
46.2123
46.0746
45.8676
45.804
45.5986
45.4965
45.3432
45.1951
45.1874
45.0117
44.9911
45.0011
44.9202
45.0266
45.0401
45.0609
45.2086
45.2416
45.289
45.378
45.3546
45.3575
45.3403
45.2216
45.1381
44.9941
44.805
44.6735
44.4543
44.2468
44.1373
43.922
43.7646
43.6894
43.5142
43.4324
43.3906
43.2526
43.2215
43.2279
43.141
43.174
43.2671
43.2663
43.449
43.7028
43.8596
44.28
44.7061
45.007
45.5603
46.0764
46.4658
46.9871
47.4956
47.9534
48.4106
48.858
49.3493
49.8418
50.3032
50.7685
51.243
51.7573
52.2688
52.7294
53.2859
53.9847
54.6187
55.2671
56.1495
57.0855
57.97
59.0396
60.2737
61.4614
62.6324
63.7564
64.4337
64.2092
62.9646
60.786
57.8959
54.4135
50.3543
45.6019
40.0479
33.6457
26.505
18.6965
10.3401
2.07215
-5.62367
-12.1114
-17.0609
-20.3661
-21.6007
-20.7285
-18.2081
-14.5746
-10.3278
-5.52772
-0.0446529
6.61739
14.7455
24.3887
34.216
43.689
51.9499
58.619
63.8648
67.631
70.0593
71.1383
70.5328
68.103
64.3117
59.8418
55.2199
50.526
46.4036
42.4215
39.7153
36.9358
35.7615
35.1208
35.2158
37.4858
38.7588
43.2917
46.272
45.5571
51.038
59.0038
67.7993
49.3189
49.8922
53.8246
58.6448
63.0807
66.9643
69.3819
72.0324
73.4268
74.8863
75.7703
76.2677
76.4231
76.3449
76.0198
75.5162
74.9746
74.3104
73.3601
72.4481
71.5601
69.8324
69.3339
67.1102
64.6817
62.9988
58.5551
55.7853
53.3319
48.9693
46.4413
42.4923
37.6293
51.889
51.5974
49.467
47.6023
46.397
45.877
45.8796
46.2278
46.8195
47.2173
47.6369
47.8491
47.9142
48.0675
47.8434
47.8034
47.6497
47.4724
47.4955
47.2182
47.2694
47.1596
47.0198
47.0949
46.8701
46.9582
46.8096
46.6871
46.7739
46.4677
46.4739
46.3807
46.1583
46.1579
45.9065
45.8396
45.7458
45.5362
45.5238
45.3492
45.304
45.2632
45.1135
45.1857
45.1468
45.1207
45.2206
45.1829
45.2795
45.3593
45.3146
45.4354
45.4181
45.3657
45.434
45.2976
45.2217
45.1919
44.956
44.8843
44.7603
44.5033
44.475
44.3034
44.0995
44.1122
43.9359
43.8136
43.8538
43.6856
43.6371
43.699
43.5773
43.6088
43.7158
43.7036
43.8582
44.0911
44.2409
44.5634
44.9306
45.218
45.6918
46.1323
46.4907
47.0309
47.5335
47.9165
48.4406
48.9897
49.471
50.0187
50.5574
51.1134
51.7005
52.2676
52.8351
53.4228
54.1262
54.841
55.4965
56.2947
57.1923
58.1666
59.1668
60.2275
61.5196
62.8195
64.1164
65.3344
65.9894
65.5833
64.132
61.9421
59.125
55.6633
51.6114
46.92
41.4491
35.1732
28.1559
20.5118
12.2704
3.90162
-3.82926
-10.402
-15.4456
-18.7705
-20.0749
-19.619
-17.172
-13.7241
-9.43972
-4.47554
1.29474
8.23741
16.4557
25.8398
35.174
43.9383
51.4722
57.6479
62.6119
66.3425
68.9156
70.1229
69.5189
67.0069
63.0863
58.7551
54.2103
49.4904
45.3169
41.6092
38.7823
35.837
34.9761
33.9341
34.1833
37.2374
37.06
44.4972
45.1675
43.112
49.8335
55.525
60.0317
42.9875
47.695
51.4542
57.2561
62.5719
67.0179
69.8553
72.8094
74.5139
75.9909
76.8163
77.2389
77.3462
77.1397
76.8107
76.1929
75.6023
74.7657
73.817
72.7277
71.7878
69.9764
69.2031
67.0354
64.5222
63.13
58.7417
56.1198
54.0573
49.6656
47.0974
43.8116
39.456
51.8069
51.4987
49.3861
47.5603
46.4094
45.8954
45.9569
46.3133
46.8856
47.2724
47.6341
47.8552
47.8733
48.0138
47.8062
47.7276
47.6227
47.4031
47.4396
47.1785
47.1877
47.1432
46.9616
47.0702
46.8413
46.8961
46.8214
46.6015
46.774
46.4624
46.436
46.4425
46.1282
46.2154
45.9723
45.87
45.8912
45.5901
45.6566
45.5145
45.3976
45.4716
45.2332
45.3534
45.3439
45.1939
45.4111
45.3015
45.3387
45.5238
45.3457
45.4939
45.5504
45.3667
45.5451
45.4284
45.2818
45.3921
45.1439
45.06
45.0641
44.7817
44.7629
44.6886
44.4435
44.4856
44.3697
44.2072
44.2749
44.1374
44.0539
44.1267
44.0253
44.028
44.1358
44.1281
44.2524
44.4553
44.5578
44.8105
45.1438
45.38
45.7578
46.1814
46.5384
47.0136
47.4928
47.9324
48.4865
49.0325
49.5672
50.197
50.8178
51.438
52.0721
52.7169
53.4256
54.078
54.7798
55.6267
56.3097
57.0888
58.0409
58.9444
60.0215
61.0663
62.2572
63.6423
64.9098
66.0907
66.5839
66.0099
64.61
62.4853
59.6541
56.2812
52.4097
47.8661
42.5526
36.539
29.892
22.5572
14.6898
6.61341
-0.979165
-7.48731
-12.5157
-15.8515
-17.3279
-17.1299
-15.024
-11.7769
-7.48532
-2.3534
3.68743
10.8051
18.9455
27.7939
36.3755
44.2014
50.8654
56.4046
60.9319
64.4613
66.9872
68.1512
67.6151
65.1936
61.6093
57.6452
53.1461
48.6216
44.6972
41.2955
38.3385
35.8001
34.8845
33.5472
34.3302
36.6613
35.5423
43.5728
43.1262
42.8423
48.9247
50.1545
52.3843
39.4523
45.9939
47.8739
55.9884
62.3087
67.304
70.8041
73.9432
75.8504
77.2872
77.9965
78.3099
78.568
78.3178
77.933
77.1533
76.3744
75.2667
74.3282
72.9001
71.8162
69.9174
68.9102
66.9627
64.2675
63.0572
59.3689
56.6604
54.559
50.3774
47.8608
45.0293
41.0601
51.6501
51.3127
49.2694
47.5052
46.4448
46.0142
46.1261
46.502
47.0117
47.3564
47.6416
47.8424
47.8368
47.9201
47.7473
47.6277
47.5662
47.352
47.3721
47.1705
47.1222
47.1296
46.9284
47.0216
46.8297
46.8285
46.8306
46.5839
46.7369
46.4921
46.3984
46.4831
46.1517
46.2258
46.0643
45.8903
45.9888
45.6986
45.7258
45.687
45.5012
45.597
45.4274
45.4567
45.5056
45.3479
45.5021
45.457
45.436
45.6065
45.458
45.5647
45.642
45.4641
45.6309
45.5558
45.4094
45.5406
45.3571
45.2562
45.3141
45.0846
45.0411
45.0377
44.8153
44.8302
44.7877
44.615
44.6579
44.5885
44.4811
44.5341
44.4822
44.4488
44.5246
44.5478
44.6096
44.7472
44.8692
45.0591
45.3024
45.5335
45.837
46.1872
46.5259
46.9664
47.456
47.9268
48.4715
49.056
49.6867
50.3344
51.0037
51.7141
52.4262
53.1496
53.8522
54.5972
55.3857
56.2114
56.8931
57.5911
58.6812
59.5229
60.3247
61.4805
62.4748
63.6937
65.0838
65.9141
66.2283
65.7667
64.3477
62.22
59.5671
56.4064
52.7321
48.4409
43.4121
37.7777
31.5923
24.7628
17.3824
9.79225
2.59928
-3.63027
-8.51556
-11.8483
-13.456
-13.3838
-11.5754
-8.52119
-4.30961
0.853231
6.98196
14.0641
21.843
29.8935
37.5095
44.3186
50.0997
54.9212
58.8928
62.0107
64.1988
65.1997
64.7148
62.6678
59.7293
56.2497
52.1874
48.0953
44.5614
41.3177
38.5216
36.2932
35.2039
34.3096
35.2425
37.3184
35.8617
43.755
41.8057
43.0207
47.2569
49.8983
49.5917
37.554
44.0189
42.8367
55.7911
62.4125
68.1022
72.3434
75.5053
77.4572
78.609
79.5579
79.8255
79.9725
79.6637
79.1097
78.1179
77.1014
75.6969
74.6892
72.955
71.9677
69.856
68.5341
67.1684
64.2564
62.9405
60.0884
57.0656
54.8644
51.113
48.5469
46.0775
42.5443
51.3384
50.967
49.0678
47.4614
46.5421
46.2116
46.3724
46.7478
47.1769
47.4818
47.6744
47.8225
47.8049
47.8092
47.6851
47.5328
47.4814
47.3113
47.2766
47.1609
47.0789
47.0919
46.9488
46.9725
46.8662
46.8055
46.8001
46.6128
46.6684
46.5184
46.4039
46.459
46.2181
46.2222
46.1387
45.9667
46.0305
45.8301
45.7988
45.8103
45.6312
45.6896
45.6079
45.5566
45.6382
45.5183
45.5795
45.6114
45.5524
45.6635
45.6177
45.6308
45.7159
45.6361
45.6779
45.6963
45.6009
45.6341
45.5853
45.4849
45.4998
45.403
45.3298
45.3233
45.2109
45.174
45.1465
45.0546
45.0357
44.9885
44.9307
44.9252
44.8864
44.8714
44.8973
44.9072
44.9489
45.0384
45.1348
45.275
45.4561
45.6534
45.8969
46.1902
46.5363
46.9318
47.3725
47.8801
48.4506
49.0518
49.7406
50.4436
51.1722
51.954
52.6603
53.4322
54.1741
54.952
55.8153
56.5059
57.273
57.9803
58.7775
59.7641
60.3732
61.141
62.3225
63.2592
64.3526
65.2485
65.2176
64.6483
63.3925
61.4285
58.8879
55.962
52.6302
48.6736
44.034
38.8377
33.1728
27.0225
20.3339
13.3644
6.68348
0.84364
-3.79415
-7.02856
-8.63477
-8.49181
-7.00181
-4.1494
-0.0766055
4.96082
10.9119
17.6546
24.8258
31.9929
38.633
44.4811
49.407
53.4664
56.7253
59.1486
60.6786
61.3181
60.8951
59.298
57.1822
54.5352
51.3254
48.0201
44.9616
42.0517
39.3932
37.3547
36.0698
35.4384
36.5035
38.5051
37.3343
45.4964
43.1494
44.6499
47.6807
48.6561
45.9061
40.9342
42.9098
40.5036
57.2638
61.7926
69.41
74.4787
77.4318
79.622
80.4108
81.2853
81.554
81.3153
80.9842
80.2501
79.1088
78.0129
76.3595
75.1217
73.1792
72.1807
70.0186
68.0784
67.2986
64.373
62.654
60.5018
57.3944
55.1211
51.7644
49.1348
46.8903
43.7609
50.799
50.4164
48.8202
47.4933
46.774
46.5568
46.7193
47.0677
47.3662
47.613
47.7188
47.7706
47.7606
47.6722
47.5942
47.4559
47.3768
47.2983
47.1984
47.1549
47.0784
47.0306
46.9802
46.9173
46.8801
46.801
46.7367
46.6575
46.6064
46.5313
46.4425
46.4087
46.3046
46.2305
46.1689
46.0771
46.0349
45.9551
45.9035
45.8665
45.7938
45.7768
45.7306
45.7075
45.7169
45.6741
45.6854
45.705
45.6943
45.7337
45.7382
45.7429
45.7912
45.7747
45.779
45.8085
45.7675
45.7647
45.7678
45.7065
45.698
45.6775
45.609
45.5963
45.5569
45.4978
45.4874
45.4381
45.389
45.3655
45.318
45.2795
45.2545
45.2314
45.2177
45.2231
45.2448
45.2935
45.3663
45.4638
45.5799
45.7376
45.9565
46.2079
46.5214
46.9023
47.3452
47.8589
48.4259
49.051
49.7605
50.4984
51.2632
52.0505
52.8073
53.6014
54.3661
55.171
55.9922
56.5895
57.3366
58.1596
58.6788
59.3978
60.2204
60.7905
61.5028
62.661
63.6343
64.1756
64.1082
63.2043
61.8086
59.933
57.681
55.0292
51.9698
48.4872
44.5011
39.9435
34.8625
29.3257
23.3246
17.0606
10.9831
5.56888
1.16827
-1.92369
-3.43114
-3.28361
-1.91925
0.699443
4.50097
9.27451
14.9059
21.1621
27.6341
33.9678
39.7533
44.7629
48.9228
52.2411
54.6955
56.2179
56.8667
56.8243
56.2456
55.217
54.1057
52.7468
50.8355
48.5497
46.1782
43.5316
41.0129
39.1675
38.0521
37.6559
38.5248
39.8092
39.5967
46.7071
45.6065
48.7649
48.56
49.3587
49.1299
44.4337
43.6472
43.6972
60.4799
60.3404
71.426
77.0189
79.4894
81.9247
82.2215
82.986
83.4054
82.6656
82.4517
81.6641
80.2568
79.1696
77.3144
75.7307
73.7786
72.2951
70.378
68.153
67.1604
64.4528
62.5636
60.8207
57.5931
55.1929
52.3646
49.7624
47.4138
44.6368
49.9887
49.6546
48.5491
47.6354
47.1524
47.0313
47.1602
47.4067
47.5599
47.7092
47.7449
47.7214
47.7075
47.5726
47.5052
47.3956
47.2861
47.2616
47.1438
47.1244
47.0709
46.9906
46.9909
46.8888
46.8608
46.8008
46.6956
46.68
46.5799
46.5247
46.4725
46.3589
46.3497
46.2576
46.1857
46.1663
46.0636
46.0394
45.9977
45.9212
45.9208
45.8561
45.8333
45.8383
45.7839
45.8044
45.7906
45.7814
45.8195
45.8007
45.8304
45.8566
45.8513
45.8913
45.8909
45.8911
45.9199
45.8952
45.9008
45.9029
45.8733
45.88
45.8518
45.829
45.8218
45.7799
45.7576
45.7346
45.6872
45.653
45.6203
45.5752
45.5421
45.5093
45.4776
45.4688
45.4674
45.4854
45.5367
45.6089
45.7026
45.8422
46.027
46.2421
46.5339
46.9021
47.328
47.8389
48.4143
49.0594
49.7795
50.5192
51.295
52.0812
52.8409
53.6133
54.4006
55.235
55.9521
56.4986
57.2408
58.0723
58.635
59.2326
59.9209
60.4998
61.2371
62.1823
62.815
62.9086
62.4092
61.3596
59.9653
57.9928
55.849
53.5881
51.1072
48.2576
44.9182
40.9959
36.5483
31.5946
26.1723
20.5227
15.0052
10.0097
5.86641
2.92362
1.44124
1.46567
2.68503
5.14109
8.75546
13.2855
18.5478
24.2891
30.123
35.7552
40.8637
45.2586
48.8366
51.5119
53.1938
53.8031
53.4236
52.4954
51.5827
51.0769
51.1351
51.3909
50.9332
49.7152
48.0843
45.9945
43.7329
41.8902
40.9456
40.6751
41.0024
41.6091
42.6777
47.2639
46.1236
51.6855
48.3308
58.3561
57.2811
49.1581
48.8569
50.7524
61.9771
61.0918
74.4386
79.5548
81.462
84.1919
84.1649
84.9698
85.3353
84.3731
83.9678
83.2415
81.4613
80.3126
78.5106
76.4647
74.4809
72.4589
70.9356
68.5726
66.95
64.7027
62.5295
60.798
57.8854
55.3395
52.7824
50.3844
47.9107
45.3336
49.1232
48.935
48.4018
47.9257
47.6555
47.5689
47.595
47.6888
47.7197
47.7651
47.7427
47.6697
47.6278
47.4959
47.4328
47.3461
47.2465
47.2299
47.1286
47.1078
47.0637
46.9777
46.977
46.8748
46.8328
46.7861
46.6807
46.6739
46.5744
46.5225
46.4892
46.3714
46.3709
46.2873
46.2143
46.2139
46.1088
46.095
46.0635
45.9835
45.9912
45.9321
45.9109
45.9103
45.8602
45.883
45.8659
45.8562
45.8889
45.8702
45.9017
45.9235
45.914
45.9633
45.9622
45.967
46.0097
45.9898
46.0072
46.029
46.0076
46.0244
46.0189
45.9974
46.0013
45.9745
45.9488
45.9358
45.8919
45.8509
45.823
45.7739
45.7285
45.6974
45.6603
45.637