/*--------------------------------*- C++ -*----------------------------------*\
| =========                 |                                                 |
| \\      /  F ield         | OpenFOAM: The Open Source CFD Toolbox           |
|  \\    /   O peration     | Version:  2.4.0                                 |
|   \\  /    A nd           | Web:      www.OpenFOAM.org                      |
|    \\/     M anipulation  |                                                 |
\*---------------------------------------------------------------------------*/
FoamFile
{
    version     2.0;
    format      ascii;
    class       volVectorField;
    location    "0.83";
    object      U_0;
}
// * * * * * * * * * * * * * * * * * * * * * * * * * * * * * * * * * * * * * //

dimensions      [0 1 -1 0 0 0 0];

internalField   nonuniform List<vector> 
8800
(
(8.09187 0.387972 0)
(5.44962 0.242514 0)
(3.91147 0.0428918 0)
(3.15641 -0.0154351 0)
(2.80152 -0.0182712 0)
(2.59887 -0.011121 0)
(2.48341 -0.00533472 0)
(2.37989 -0.00253247 0)
(2.32124 -0.00197496 0)
(2.24807 0.000293542 0)
(2.21694 -0.00109178 0)
(2.16626 -0.00048151 0)
(2.14659 0.000341452 0)
(2.09739 0.000713326 0)
(2.07831 -0.000254351 0)
(2.03514 0.00148531 0)
(2.00465 0.000714573 0)
(1.95919 0.000390041 0)
(1.92194 0.010689 0)
(1.76146 -0.0680662 0)
(10.0853 0.838468 0)
(9.65728 0.867786 0)
(8.87243 0.507108 0)
(8.08123 0.26172 0)
(7.4943 0.1376 0)
(7.00838 0.0820926 0)
(6.69455 0.0549929 0)
(6.40094 0.0400823 0)
(6.22942 0.0288367 0)
(6.01722 0.0271364 0)
(5.93262 0.0169442 0)
(5.77625 0.0165921 0)
(5.72283 0.0162034 0)
(5.59445 0.0175739 0)
(5.55262 0.0123269 0)
(5.43891 0.0196783 0)
(5.38518 0.0186898 0)
(5.27047 0.0163346 0)
(5.20602 0.0361763 0)
(5.07362 -0.0611837 0)
(10.0644 0.631878 0)
(10.6584 0.863031 0)
(10.8699 0.601361 0)
(10.6886 0.373542 0)
(10.4574 0.255032 0)
(10.0902 0.197253 0)
(9.83276 0.154478 0)
(9.49942 0.121408 0)
(9.31963 0.0933359 0)
(9.02572 0.0811355 0)
(8.93397 0.0555601 0)
(8.69771 0.0517713 0)
(8.64029 0.0450028 0)
(8.44515 0.0443923 0)
(8.41101 0.0343401 0)
(8.23039 0.043649 0)
(8.19734 0.0439122 0)
(8.01096 0.0429927 0)
(7.95462 0.0653758 0)
(7.81521 -0.0783357 0)
(10.0048 0.45731 0)
(10.5669 0.70557 0)
(11.1719 0.547501 0)
(11.3738 0.352744 0)
(11.5513 0.258016 0)
(11.4685 0.22819 0)
(11.4846 0.202675 0)
(11.304 0.174112 0)
(11.3041 0.147672 0)
(11.0711 0.133509 0)
(11.087 0.0984629 0)
(10.8591 0.0936258 0)
(10.8733 0.0829455 0)
(10.6575 0.0798493 0)
(10.6819 0.0627042 0)
(10.4606 0.0792351 0)
(10.4984 0.0655408 0)
(10.244 0.0887886 0)
(10.2432 0.0835503 0)
(10.0743 0.0428747 0)
(10.0506 0.346633 0)
(10.3939 0.565719 0)
(11.0521 0.460834 0)
(11.3126 0.298669 0)
(11.6454 0.206676 0)
(11.6798 0.193154 0)
(11.8857 0.180273 0)
(11.8143 0.164451 0)
(11.9972 0.144718 0)
(11.8894 0.145301 0)
(12.0456 0.103057 0)
(11.9162 0.110791 0)
(12.0504 0.092043 0)
(11.9169 0.101235 0)
(12.0213 0.0704831 0)
(11.8626 0.103597 0)
(11.9953 0.0769071 0)
(11.776 0.124241 0)
(11.798 0.0797804 0)
(11.7704 0.104154 0)
(10.076 0.254105 0)
(10.3144 0.454303 0)
(10.8819 0.375393 0)
(11.1991 0.251886 0)
(11.5185 0.156688 0)
(11.6013 0.148517 0)
(11.8179 0.151691 0)
(11.8152 0.13643 0)
(11.9877 0.118815 0)
(12.0043 0.12331 0)
(12.1525 0.0841052 0)
(12.1435 0.0923786 0)
(12.2841 0.0837577 0)
(12.3026 0.0878568 0)
(12.3836 0.0728524 0)
(12.3622 0.0852299 0)
(12.5106 0.0819336 0)
(12.4345 0.114861 0)
(12.41 0.0878846 0)
(12.5263 -0.0405388 0)
(10.035 0.1711 0)
(10.2739 0.359595 0)
(10.753 0.281692 0)
(11.1254 0.211473 0)
(11.3893 0.126054 0)
(11.55 0.10773 0)
(11.7031 0.108763 0)
(11.7578 0.109711 0)
(11.8664 0.0866727 0)
(11.9618 0.102629 0)
(12.0506 0.0651843 0)
(12.1004 0.0757777 0)
(12.2065 0.0536125 0)
(12.2894 0.0701325 0)
(12.3199 0.0585589 0)
(12.415 0.0602426 0)
(12.4836 0.0633403 0)
(12.5016 0.109092 0)
(12.5727 0.0385477 0)
(12.6705 -0.108177 0)
(9.99803 0.11869 0)
(10.2657 0.253584 0)
(10.6762 0.194993 0)
(11.0189 0.157152 0)
(11.3091 0.0825609 0)
(11.5272 0.0707134 0)
(11.621 0.0892116 0)
(11.7033 0.0794665 0)
(11.7851 0.0574621 0)
(11.8892 0.0694863 0)
(11.9775 0.0454693 0)
(12.038 0.051059 0)
(12.1346 0.0415224 0)
(12.2269 0.0561703 0)
(12.3131 0.0408177 0)
(12.335 0.0380153 0)
(12.3531 0.0502102 0)
(12.4982 0.054378 0)
(12.5702 -0.00036694 0)
(12.3917 -0.0551789 0)
(9.99633 0.0620919 0)
(10.2482 0.151826 0)
(10.6218 0.120014 0)
(10.9895 0.101776 0)
(11.2855 0.0471587 0)
(11.4369 0.0352925 0)
(11.5605 0.0574349 0)
(11.6872 0.0473809 0)
(11.7521 0.0332577 0)
(11.8524 0.044929 0)
(11.9187 0.0318449 0)
(11.9825 0.0315881 0)
(12.0795 0.0122877 0)
(12.1867 0.0205064 0)
(12.2559 0.0340632 0)
(12.2613 0.0355038 0)
(12.3797 0.0129191 0)
(12.4405 0.0164393 0)
(12.4174 0.0237303 0)
(12.3275 -0.0334106 0)
(10.0074 0.0245191 0)
(10.2153 0.0518131 0)
(10.6067 0.0318215 0)
(10.96 0.0310849 0)
(11.2459 0.0196459 0)
(11.4346 0.0166642 0)
(11.5523 0.0213277 0)
(11.65 0.00767293 0)
(11.748 0.00806438 0)
(11.8003 0.0168359 0)
(11.8916 0.0129901 0)
(12.0197 0.00815034 0)
(12.0756 -0.00155341 0)
(12.134 0.00843564 0)
(12.1841 0.0226498 0)
(12.3043 -0.00399105 0)
(12.3663 -0.00592486 0)
(12.38 0.00523723 0)
(12.3828 -0.0198605 0)
(12.3961 -0.0627748 0)
(9.97932 -0.022006 0)
(10.2436 -0.0473819 0)
(10.613 -0.0477056 0)
(10.9452 -0.020244 0)
(11.2529 -0.0173259 0)
(11.4442 -0.0246713 0)
(11.5514 -0.00468167 0)
(11.6605 -0.0234034 0)
(11.7322 -0.0161934 0)
(11.8011 -0.00348924 0)
(11.917 -0.0197819 0)
(11.9942 -0.0151749 0)
(12.0459 -0.0111645 0)
(12.1246 -0.00975733 0)
(12.2171 -0.00831352 0)
(12.3069 -0.0239719 0)
(12.346 -0.020465 0)
(12.3878 -0.0190367 0)
(12.4025 -0.0280267 0)
(12.3781 -0.0714907 0)
(10.0001 -0.0611889 0)
(10.2549 -0.15285 0)
(10.6088 -0.126518 0)
(10.984 -0.0902557 0)
(11.2813 -0.0535329 0)
(11.451 -0.0415098 0)
(11.5694 -0.0387049 0)
(11.6727 -0.0604525 0)
(11.7497 -0.0398176 0)
(11.8429 -0.0389135 0)
(11.9256 -0.0357505 0)
(12.0178 -0.0247514 0)
(12.0767 -0.030258 0)
(12.1517 -0.035375 0)
(12.2425 -0.0252799 0)
(12.2967 -0.0462897 0)
(12.3602 -0.0390036 0)
(12.4233 -0.0447344 0)
(12.4482 -0.068858 0)
(12.3579 -0.0574444 0)
(10.0057 -0.117141 0)
(10.2558 -0.249571 0)
(10.6806 -0.206043 0)
(11.0406 -0.149712 0)
(11.3119 -0.0814746 0)
(11.4957 -0.0821079 0)
(11.6145 -0.0688185 0)
(11.7116 -0.0899391 0)
(11.8047 -0.0679611 0)
(11.8844 -0.060433 0)
(11.9545 -0.0583848 0)
(12.0704 -0.0557312 0)
(12.1326 -0.0395523 0)
(12.1773 -0.0538617 0)
(12.2995 -0.0436063 0)
(12.3366 -0.0658359 0)
(12.392 -0.0664946 0)
(12.5072 -0.0723868 0)
(12.4798 -0.0713051 0)
(12.4142 -0.0785305 0)
(10.02 -0.171415 0)
(10.2974 -0.356087 0)
(10.767 -0.296108 0)
(11.0925 -0.199734 0)
(11.3976 -0.121261 0)
(11.5585 -0.111232 0)
(11.6849 -0.100059 0)
(11.7715 -0.126904 0)
(11.8849 -0.0912167 0)
(11.9389 -0.0880432 0)
(12.0396 -0.0795638 0)
(12.1187 -0.0731657 0)
(12.1975 -0.0515271 0)
(12.2544 -0.081185 0)
(12.3626 -0.0614411 0)
(12.4139 -0.0828655 0)
(12.4667 -0.0891787 0)
(12.5248 -0.104187 0)
(12.5565 -0.0987988 0)
(12.4936 -0.0945576 0)
(10.0653 -0.252802 0)
(10.3185 -0.460064 0)
(10.9 -0.373566 0)
(11.1625 -0.242436 0)
(11.5381 -0.16311 0)
(11.6108 -0.152723 0)
(11.8102 -0.136519 0)
(11.832 -0.155395 0)
(11.9971 -0.11697 0)
(11.9867 -0.111619 0)
(12.1422 -0.0998415 0)
(12.1475 -0.0992704 0)
(12.2812 -0.0702406 0)
(12.2742 -0.10131 0)
(12.3917 -0.0780442 0)
(12.3861 -0.106312 0)
(12.4584 -0.0974467 0)
(12.4287 -0.130528 0)
(12.4662 -0.11506 0)
(12.373 -0.137678 0)
(10.0663 -0.347222 0)
(10.3897 -0.56761 0)
(11.0487 -0.462239 0)
(11.2861 -0.290543 0)
(11.6814 -0.215033 0)
(11.6628 -0.18906 0)
(11.8999 -0.173736 0)
(11.8134 -0.181422 0)
(11.9952 -0.143544 0)
(11.8792 -0.129024 0)
(12.0404 -0.121012 0)
(11.91 -0.111192 0)
(12.0568 -0.0845009 0)
(11.8976 -0.109313 0)
(12.0224 -0.0878692 0)
(11.8629 -0.109597 0)
(11.9325 -0.0981296 0)
(11.7622 -0.13727 0)
(11.7819 -0.121996 0)
(11.5529 -0.157561 0)
(10.0171 -0.458142 0)
(10.553 -0.706913 0)
(11.1745 -0.543895 0)
(11.3665 -0.350761 0)
(11.5747 -0.26532 0)
(11.4401 -0.225066 0)
(11.5173 -0.198232 0)
(11.2767 -0.184243 0)
(11.3139 -0.145038 0)
(11.0615 -0.123909 0)
(11.0944 -0.110916 0)
(10.8307 -0.0982471 0)
(10.9005 -0.075143 0)
(10.6143 -0.0891068 0)
(10.6957 -0.0717637 0)
(10.4112 -0.0891131 0)
(10.4704 -0.0749507 0)
(10.1769 -0.116967 0)
(10.1919 -0.0914834 0)
(9.84773 -0.154369 0)
(10.0685 -0.632184 0)
(10.6515 -0.863061 0)
(10.8725 -0.601079 0)
(10.688 -0.373023 0)
(10.4636 -0.257572 0)
(10.0741 -0.19537 0)
(9.85778 -0.151976 0)
(9.47129 -0.127049 0)
(9.3332 -0.0940288 0)
(9.01576 -0.0736917 0)
(8.94281 -0.0632783 0)
(8.66491 -0.0554855 0)
(8.66991 -0.0398741 0)
(8.39124 -0.0491921 0)
(8.43334 -0.0424343 0)
(8.15405 -0.0505603 0)
(8.19476 -0.0485251 0)
(7.89555 -0.0704941 0)
(7.90075 -0.0673568 0)
(7.55611 -0.0839353 0)
(10.0866 -0.838528 0)
(9.65438 -0.868027 0)
(8.87392 -0.506614 0)
(8.08175 -0.26119 0)
(7.49511 -0.13894 0)
(7.00088 -0.0820375 0)
(6.70854 -0.0527873 0)
(6.38334 -0.043011 0)
(6.23744 -0.030092 0)
(6.00928 -0.0223235 0)
(5.93955 -0.0206186 0)
(5.75052 -0.0201783 0)
(5.73945 -0.0124223 0)
(5.55375 -0.0199629 0)
(5.56589 -0.0173183 0)
(5.36951 -0.0226569 0)
(5.38074 -0.0220846 0)
(5.15753 -0.0329862 0)
(5.14718 -0.0357281 0)
(4.86218 -0.0161235 0)
(8.09196 -0.387952 0)
(5.44897 -0.242501 0)
(3.91158 -0.0429456 0)
(3.15717 0.0155872 0)
(2.80157 0.0180074 0)
(2.59565 0.0109939 0)
(2.48795 0.00625283 0)
(2.37561 0.00158727 0)
(2.32066 0.00143543 0)
(2.24459 0.00133916 0)
(2.22121 0.000270966 0)
(2.154 -0.000745144 0)
(2.14686 0.00120619 0)
(2.08302 -0.00142409 0)
(2.07678 -0.000540607 0)
(2.00075 -0.00207387 0)
(1.99043 -0.00114566 0)
(1.89855 -0.00375585 0)
(1.8629 -0.00336796 0)
(1.72055 0.0116586 0)
(2.20944 -0.123323 0)
(2.31222 -0.0178058 0)
(2.45339 0.00206303 0)
(2.56374 -0.0170419 0)
(2.68131 -0.0469872 0)
(2.77443 -0.0640201 0)
(2.86436 -0.0611113 0)
(2.93508 -0.0530712 0)
(2.99087 -0.0360359 0)
(3.04438 -0.0255189 0)
(3.08711 -0.00988291 0)
(3.1235 -0.00556784 0)
(3.17626 -0.0102961 0)
(3.20741 -0.0105598 0)
(3.25723 -0.0163036 0)
(3.27963 -0.018259 0)
(3.32369 -0.0187638 0)
(3.33733 -0.0184409 0)
(3.37911 -0.0131857 0)
(3.38684 0.000845992 0)
(3.42752 0.0186734 0)
(3.43558 0.044936 0)
(3.48668 0.0656869 0)
(3.514 0.0795474 0)
(3.58601 0.0759446 0)
(3.63076 0.0567531 0)
(3.69643 0.0277444 0)
(3.7152 0.0108996 0)
(3.74537 -0.0102391 0)
(3.74152 -0.00756245 0)
(3.73923 0.00748465 0)
(3.7393 0.0355082 0)
(3.73616 0.0789049 0)
(3.77272 0.118856 0)
(3.79882 0.163731 0)
(3.86484 0.200222 0)
(3.94414 0.219636 0)
(4.03414 0.216895 0)
(4.15742 0.195458 0)
(4.26411 0.147987 0)
(4.37333 0.0845281 0)
(4.4516 0.0058685 0)
(4.50768 -0.0811752 0)
(4.52182 -0.150321 0)
(4.52814 -0.217612 0)
(4.50205 -0.262075 0)
(4.46526 -0.269242 0)
(4.4222 -0.264054 0)
(4.38921 -0.236673 0)
(4.35566 -0.18673 0)
(4.35247 -0.150769 0)
(4.3574 -0.106156 0)
(4.38683 -0.0433017 0)
(4.44922 -0.00982015 0)
(4.5239 0.0175744 0)
(4.59545 0.0769093 0)
(4.70816 0.0969703 0)
(4.793 0.101892 0)
(4.90055 0.142416 0)
(5.0452 0.12899 0)
(5.15931 0.0823865 0)
(5.26252 0.0792917 0)
(5.41215 0.019753 0)
(5.4922 -0.0582158 0)
(5.58513 -0.0869826 0)
(5.69274 -0.133257 0)
(5.74428 -0.189756 0)
(5.84607 -0.176177 0)
(5.97129 -0.176422 0)
(6.07776 -0.225817 0)
(6.24772 -0.213014 0)
(6.48203 -0.256708 0)
(6.62851 -0.334671 0)
(6.88606 -0.379096 0)
(7.11777 -0.468886 0)
(7.31542 -0.574793 0)
(7.53359 -0.675236 0)
(7.72123 -0.833178 0)
(7.9153 -0.920538 0)
(8.09297 -1.00905 0)
(8.19216 -1.1411 0)
(8.32605 -1.18358 0)
(8.47464 -1.23931 0)
(8.5262 -1.27743 0)
(8.67559 -1.23942 0)
(8.75724 -1.24101 0)
(8.82567 -1.14254 0)
(8.97424 -1.06081 0)
(9.06106 -0.986503 0)
(9.16646 -0.925666 0)
(9.39557 -0.829628 0)
(9.48484 -0.753481 0)
(9.68856 -0.725947 0)
(9.85071 -0.737454 0)
(10.0147 -0.723063 0)
(10.2125 -0.828505 0)
(10.4562 -0.869338 0)
(10.5516 -0.97132 0)
(10.8585 -1.13724 0)
(11.0245 -1.32511 0)
(11.2872 -1.52349 0)
(11.5042 -1.77247 0)
(11.7624 -2.02819 0)
(11.9416 -2.29184 0)
(12.2003 -2.55758 0)
(12.428 -2.93937 0)
(12.6597 -3.24761 0)
(12.7387 -3.56995 0)
(12.9485 -3.86903 0)
(12.7884 -4.21461 0)
(12.9697 -4.45753 0)
(12.6758 -4.73957 0)
(12.8069 -4.94062 0)
(12.518 -5.1547 0)
(12.7646 -5.27411 0)
(12.4315 -5.33188 0)
(12.814 -5.40495 0)
(12.9314 -5.56616 0)
(13.2553 -5.53814 0)
(13.5096 -5.54197 0)
(13.906 -5.52727 0)
(14.1528 -5.29749 0)
(14.2678 -5.00883 0)
(14.5203 -4.64765 0)
(14.5606 -4.28721 0)
(14.6849 -3.73705 0)
(14.6962 -3.15306 0)
(14.7658 -2.59183 0)
(14.6489 -1.92427 0)
(14.7166 -1.30596 0)
(14.5821 -0.700335 0)
(14.5163 -0.0166295 0)
(14.4025 0.545496 0)
(14.2132 1.14257 0)
(13.8681 1.68138 0)
(13.4574 2.10377 0)
(12.8789 2.35371 0)
(12.2197 2.55095 0)
(11.3795 2.22731 0)
(10.7855 2.15096 0)
(10.147 1.80226 0)
(9.595 1.32585 0)
(9.14436 0.991268 0)
(8.70328 0.759859 0)
(8.5006 0.381803 0)
(8.03743 0.00241382 0)
(7.79792 -0.0228281 0)
(7.78972 -0.0230393 0)
(7.59808 -0.462265 0)
(7.61586 -0.615031 0)
(7.88877 -0.44199 0)
(8.09118 -0.410266 0)
(8.29255 -0.835127 0)
(8.6469 -0.589351 0)
(8.8417 -0.197313 0)
(8.96989 0.0529747 0)
(9.13686 0.133327 0)
(9.2536 0.435458 0)
(9.35162 0.665906 0)
(9.10651 0.902524 0)
(9.48049 1.46528 0)
(8.91392 1.5641 0)
(9.35078 1.96723 0)
(8.66703 1.89366 0)
(9.16653 2.2204 0)
(8.66895 2.34983 0)
(8.73691 2.43839 0)
(8.60081 2.34977 0)
(8.04267 2.43945 0)
(8.1551 2.89448 0)
(7.87713 3.2608 0)
(7.97191 3.07759 0)
(7.22994 2.45464 0)
(7.54367 2.56123 0)
(6.69224 2.71716 0)
(7.22104 2.84973 0)
(6.5823 2.60122 0)
(6.78931 2.79076 0)
(6.67658 2.62653 0)
(6.03174 2.67017 0)
(6.50872 2.80785 0)
(5.30621 2.55886 0)
(6.08218 2.51361 0)
(4.99403 2.44716 0)
(5.53532 2.98684 0)
(5.28146 3.15648 0)
(5.26383 3.2199 0)
(5.40295 3.2665 0)
(4.52702 3.34947 0)
(5.0717 3.66762 0)
(4.41366 3.86636 0)
(5.01933 3.9465 0)
(4.29454 4.06823 0)
(5.08019 4.13541 0)
(4.18867 4.03466 0)
(5.21074 3.75475 0)
(4.36784 3.9109 0)
(4.57854 4.34879 0)
(4.82886 5.53207 0)
(3.09369 7.94564 0)
(5.22339 -0.080112 0)
(5.24701 -0.0135955 0)
(5.2556 -0.0108245 0)
(5.27558 -0.0379048 0)
(5.34723 -0.0764642 0)
(5.41063 -0.103267 0)
(5.48176 -0.0954461 0)
(5.52605 -0.0934334 0)
(5.56293 -0.0697524 0)
(5.58906 -0.0579336 0)
(5.61074 -0.0466509 0)
(5.62812 -0.0340044 0)
(5.65063 -0.0385287 0)
(5.66558 -0.0330074 0)
(5.69288 -0.0399729 0)
(5.70132 -0.0403956 0)
(5.73018 -0.0380459 0)
(5.73333 -0.037758 0)
(5.75898 -0.0303493 0)
(5.76076 -0.0167445 0)
(5.78252 -0.00209095 0)
(5.78826 0.0159812 0)
(5.81031 0.0340629 0)
(5.8241 0.0410896 0)
(5.85036 0.0458957 0)
(5.87551 0.0336835 0)
(5.89812 0.0118858 0)
(5.90959 0.0108542 0)
(5.92093 -0.0125949 0)
(5.91282 -0.00263709 0)
(5.91274 0.0140305 0)
(5.90141 0.0238856 0)
(5.8961 0.0741693 0)
(5.904 0.0950789 0)
(5.91499 0.127278 0)
(5.94156 0.161657 0)
(5.97827 0.161673 0)
(6.02569 0.16758 0)
(6.08247 0.142734 0)
(6.14357 0.101908 0)
(6.20019 0.0493517 0)
(6.25168 -0.0222956 0)
(6.28786 -0.0884229 0)
(6.3066 -0.15009 0)
(6.33154 -0.204099 0)
(6.32556 -0.248492 0)
(6.31407 -0.260689 0)
(6.31416 -0.2541 0)
(6.30137 -0.254448 0)
(6.28693 -0.210935 0)
(6.30756 -0.165428 0)
(6.315 -0.151698 0)
(6.31345 -0.0755322 0)
(6.40394 -0.0461652 0)
(6.42794 -0.0440017 0)
(6.46522 0.0295266 0)
(6.60317 0.0235061 0)
(6.63431 0.0230397 0)
(6.70359 0.0671933 0)
(6.86145 0.0223781 0)
(6.92552 0.0141055 0)
(7.00972 -0.0103777 0)
(7.16599 -0.0818813 0)
(7.24395 -0.101512 0)
(7.32904 -0.17767 0)
(7.46829 -0.222838 0)
(7.56563 -0.242692 0)
(7.6428 -0.302781 0)
(7.82835 -0.301157 0)
(7.94142 -0.345905 0)
(8.07492 -0.38687 0)
(8.35792 -0.393578 0)
(8.47059 -0.502995 0)
(8.70541 -0.557197 0)
(8.9695 -0.606881 0)
(9.11926 -0.757012 0)
(9.30845 -0.83701 0)
(9.54841 -0.940255 0)
(9.65648 -1.07408 0)
(9.84669 -1.13738 0)
(9.91417 -1.25388 0)
(10.006 -1.35051 0)
(10.1459 -1.32131 0)
(10.1957 -1.34968 0)
(10.2459 -1.36682 0)
(10.3816 -1.28574 0)
(10.3735 -1.21071 0)
(10.5099 -1.17299 0)
(10.5523 -1.03771 0)
(10.6829 -0.982946 0)
(10.7756 -0.966195 0)
(10.8206 -0.858698 0)
(11.0091 -0.831282 0)
(11.1483 -0.883119 0)
(11.2489 -0.857959 0)
(11.3864 -0.9536 0)
(11.5729 -1.03584 0)
(11.6702 -1.12826 0)
(11.8863 -1.26675 0)
(12.0586 -1.49357 0)
(12.2091 -1.69552 0)
(12.3178 -1.89552 0)
(12.5067 -2.16713 0)
(12.6284 -2.43768 0)
(12.7581 -2.67127 0)
(12.7992 -3.01358 0)
(12.8684 -3.31722 0)
(12.747 -3.60996 0)
(12.7283 -3.892 0)
(12.507 -4.23198 0)
(12.5439 -4.44648 0)
(12.2406 -4.70461 0)
(12.2818 -4.90089 0)
(12.0747 -5.13015 0)
(12.4669 -5.32767 0)
(12.2567 -5.4868 0)
(12.7946 -5.66066 0)
(12.957 -5.8638 0)
(13.368 -5.88947 0)
(13.3808 -5.84892 0)
(13.6829 -5.708 0)
(13.698 -5.47369 0)
(13.7194 -5.13712 0)
(13.7009 -4.72733 0)
(13.6326 -4.21819 0)
(13.5845 -3.63893 0)
(13.4967 -3.10205 0)
(13.4866 -2.52156 0)
(13.4126 -1.88117 0)
(13.4688 -1.24351 0)
(13.317 -0.605374 0)
(13.3364 0.0430438 0)
(13.3064 0.654889 0)
(13.2569 1.23969 0)
(13.1257 1.82628 0)
(12.9096 2.36305 0)
(12.403 2.75069 0)
(11.9174 3.07464 0)
(11.001 2.88038 0)
(10.4196 2.71881 0)
(9.5182 2.31406 0)
(8.99753 1.81238 0)
(8.3927 1.34028 0)
(8.03886 1.01837 0)
(7.83741 0.598893 0)
(7.51205 0.320957 0)
(7.32737 0.0825083 0)
(7.34235 -0.102492 0)
(7.5067 -0.436136 0)
(7.44361 -0.801211 0)
(7.97062 -0.602895 0)
(8.02574 -0.712573 0)
(8.5373 -0.983123 0)
(8.48027 -0.848847 0)
(9.02828 -0.315047 0)
(8.70513 -0.107582 0)
(9.44609 0.109885 0)
(8.93526 0.2346 0)
(9.63584 0.773088 0)
(9.01898 0.798023 0)
(9.58929 1.48873 0)
(9.03904 1.7036 0)
(9.29842 1.92778 0)
(8.95014 2.03443 0)
(8.91064 2.36033 0)
(8.97807 2.49343 0)
(8.35341 2.39187 0)
(8.76516 2.67443 0)
(8.0054 2.64675 0)
(8.28372 2.88278 0)
(7.59263 3.19402 0)
(7.83903 3.47117 0)
(7.53933 2.95427 0)
(7.06595 2.75081 0)
(6.83016 2.26426 0)
(6.31144 2.41891 0)
(6.76634 2.90348 0)
(5.71956 3.03369 0)
(6.46954 3.30287 0)
(5.27351 2.94939 0)
(5.75559 2.93687 0)
(5.48748 2.39021 0)
(5.47594 2.39965 0)
(5.65473 2.60553 0)
(4.85985 2.73198 0)
(5.91776 3.02353 0)
(5.29886 3.09103 0)
(5.85495 3.38471 0)
(5.01315 3.60509 0)
(5.28113 3.63344 0)
(4.8882 3.92285 0)
(5.35204 3.94174 0)
(4.98928 3.99557 0)
(5.36545 3.93654 0)
(5.46738 3.92174 0)
(5.48438 3.70079 0)
(6.19789 4.04355 0)
(4.95628 5.00928 0)
(6.5467 5.03272 0)
(5.18099 8.30005 0)
(7.84742 -0.122207 0)
(7.87022 -0.0417504 0)
(7.89624 -0.040782 0)
(7.89919 -0.0628066 0)
(7.96273 -0.0918749 0)
(7.977 -0.122619 0)
(8.02751 -0.102054 0)
(8.05369 -0.111579 0)
(8.07439 -0.0839911 0)
(8.10607 -0.06861 0)
(8.10316 -0.0610209 0)
(8.12688 -0.0347738 0)
(8.11976 -0.046747 0)
(8.12763 -0.0346995 0)
(8.13535 -0.0416787 0)
(8.1327 -0.0485278 0)
(8.15262 -0.0383172 0)
(8.1474 -0.0443135 0)
(8.16642 -0.0344918 0)
(8.16408 -0.0205028 0)
(8.17233 -0.0136502 0)
(8.17543 0.00684714 0)
(8.1803 0.0202392 0)
(8.19243 0.0235505 0)
(8.19344 0.0357416 0)
(8.21443 0.0246212 0)
(8.21528 0.0155915 0)
(8.21861 0.0161741 0)
(8.22714 -0.000938427 0)
(8.20468 0.0100089 0)
(8.2112 0.0226272 0)
(8.19729 0.0338587 0)
(8.18164 0.0651485 0)
(8.19272 0.0929162 0)
(8.18601 0.107593 0)
(8.19739 0.133843 0)
(8.22338 0.139391 0)
(8.24112 0.119248 0)
(8.27506 0.119546 0)
(8.31982 0.065775 0)
(8.34175 0.019251 0)
(8.37878 -0.0194079 0)
(8.41117 -0.1127 0)
(8.41036 -0.13697 0)
(8.43807 -0.197938 0)
(8.43548 -0.245713 0)
(8.423 -0.228866 0)
(8.43728 -0.278181 0)
(8.42496 -0.241726 0)
(8.41574 -0.210791 0)
(8.42938 -0.213312 0)
(8.45303 -0.142644 0)
(8.42392 -0.119816 0)
(8.51232 -0.0975268 0)
(8.53215 -0.052075 0)
(8.53674 -0.0475314 0)
(8.67777 -0.0288427 0)
(8.67558 -0.0227809 0)
(8.75362 -0.0314385 0)
(8.87035 -0.0312395 0)
(8.90248 -0.0688268 0)
(9.02692 -0.0990124 0)
(9.10488 -0.142181 0)
(9.19234 -0.195694 0)
(9.30717 -0.243352 0)
(9.36813 -0.300605 0)
(9.52896 -0.342359 0)
(9.58361 -0.390294 0)
(9.71502 -0.422364 0)
(9.90865 -0.462005 0)
(9.9507 -0.521204 0)
(10.1834 -0.56334 0)
(10.3765 -0.615077 0)
(10.4644 -0.71563 0)
(10.7128 -0.80547 0)
(10.8523 -0.863374 0)
(10.9859 -0.987547 0)
(11.1495 -1.10383 0)
(11.2296 -1.17444 0)
(11.3383 -1.27548 0)
(11.4175 -1.34951 0)
(11.4387 -1.39039 0)
(11.5248 -1.41105 0)
(11.5231 -1.37215 0)
(11.5917 -1.39976 0)
(11.6044 -1.32586 0)
(11.5726 -1.2552 0)
(11.6832 -1.20929 0)
(11.6506 -1.1055 0)
(11.7025 -1.08227 0)
(11.7821 -1.03738 0)
(11.8248 -0.923067 0)
(11.9116 -0.925274 0)
(12.0432 -0.973497 0)
(12.0743 -0.956745 0)
(12.2197 -1.01103 0)
(12.2793 -1.13006 0)
(12.4451 -1.18905 0)
(12.4399 -1.37859 0)
(12.6064 -1.57095 0)
(12.6565 -1.77607 0)
(12.6916 -1.95947 0)
(12.7438 -2.20678 0)
(12.7639 -2.49303 0)
(12.7471 -2.72315 0)
(12.6101 -3.03374 0)
(12.5778 -3.30371 0)
(12.4045 -3.60266 0)
(12.2851 -3.83132 0)
(12.0497 -4.14035 0)
(12.0534 -4.35882 0)
(11.878 -4.67037 0)
(11.9618 -4.90981 0)
(11.9975 -5.1684 0)
(12.3468 -5.49333 0)
(12.3346 -5.72873 0)
(12.7094 -5.87716 0)
(12.7188 -6.02211 0)
(12.9956 -6.09525 0)
(12.7218 -5.93315 0)
(12.8525 -5.67674 0)
(12.5155 -5.42199 0)
(12.4347 -4.9322 0)
(12.2144 -4.49679 0)
(12.1822 -4.01616 0)
(12.133 -3.52766 0)
(12.1341 -2.98492 0)
(12.1234 -2.3621 0)
(12.1289 -1.75861 0)
(12.0273 -1.11809 0)
(11.9024 -0.528568 0)
(11.8565 0.0650478 0)
(11.8034 0.683983 0)
(11.8086 1.23624 0)
(11.81 1.91846 0)
(11.7279 2.54785 0)
(11.5144 3.10177 0)
(11.1571 3.55445 0)
(10.3312 3.47376 0)
(9.75757 3.31963 0)
(8.94444 2.93617 0)
(8.50879 2.31958 0)
(7.83121 1.76718 0)
(7.54454 1.30384 0)
(7.23683 0.762397 0)
(7.05572 0.469948 0)
(7.03252 0.124393 0)
(6.94884 -0.239204 0)
(7.43255 -0.56522 0)
(7.4066 -1.02055 0)
(7.91697 -0.887399 0)
(8.07905 -0.967589 0)
(8.52351 -1.06197 0)
(8.52429 -1.02981 0)
(8.88442 -0.369074 0)
(8.77947 -0.27757 0)
(9.33846 0.0374414 0)
(9.1191 0.123315 0)
(9.41011 0.670881 0)
(9.30578 0.969795 0)
(9.2827 1.30677 0)
(9.33457 1.77555 0)
(8.98572 1.96522 0)
(9.46366 2.0545 0)
(8.60006 2.20759 0)
(9.28 2.82542 0)
(8.4128 2.54913 0)
(8.71287 2.59581 0)
(8.10122 2.85956 0)
(8.07087 3.26561 0)
(7.84589 3.25077 0)
(7.54997 3.08958 0)
(7.74901 3.22562 0)
(7.01878 3.35044 0)
(7.47407 3.29 0)
(6.22716 2.74173 0)
(6.39578 2.91149 0)
(5.79163 2.73524 0)
(5.81569 3.13271 0)
(6.10024 3.18028 0)
(5.10111 2.8274 0)
(6.36028 2.73915 0)
(4.98491 2.68836 0)
(5.92097 2.9159 0)
(5.02506 2.82618 0)
(5.72865 2.98537 0)
(5.69122 3.28483 0)
(5.52012 3.60751 0)
(5.71064 3.64727 0)
(5.33716 3.85364 0)
(5.73283 3.73945 0)
(5.28553 3.93603 0)
(6.06346 3.85441 0)
(5.16841 4.04789 0)
(6.90949 3.43287 0)
(5.91753 3.84375 0)
(7.69471 3.57638 0)
(6.05831 5.50444 0)
(7.42535 4.45194 0)
(6.95231 7.4393 0)
(10.0346 -0.194598 0)
(10.0605 -0.190747 0)
(10.1357 -0.206296 0)
(10.0998 -0.14738 0)
(10.2071 -0.122122 0)
(10.1867 -0.150906 0)
(10.2265 -0.0983056 0)
(10.2316 -0.147649 0)
(10.212 -0.105487 0)
(10.2706 -0.100989 0)
(10.225 -0.0905451 0)
(10.2834 -0.0372323 0)
(10.2462 -0.0621703 0)
(10.2558 -0.0210356 0)
(10.2553 -0.0454397 0)
(10.2286 -0.0473615 0)
(10.2546 -0.0377088 0)
(10.2261 -0.0548597 0)
(10.2589 -0.0331336 0)
(10.2356 -0.0285899 0)
(10.2625 -0.00998768 0)
(10.2479 -0.00660586 0)
(10.2512 0.0205758 0)
(10.274 0.00721645 0)
(10.2312 0.0256455 0)
(10.2893 0.0297778 0)
(10.2486 0.00117141 0)
(10.262 0.0491584 0)
(10.2814 -0.00524713 0)
(10.2259 0.0285918 0)
(10.2806 0.0448308 0)
(10.2239 0.00436422 0)
(10.238 0.099005 0)
(10.2456 0.0576892 0)
(10.2251 0.0967867 0)
(10.2612 0.14085 0)
(10.2563 0.0823522 0)
(10.2851 0.133998 0)
(10.3041 0.0734875 0)
(10.326 0.0434268 0)
(10.3533 0.0225144 0)
(10.3624 -0.0633984 0)
(10.3974 -0.0824092 0)
(10.3763 -0.147204 0)
(10.4152 -0.188472 0)
(10.3952 -0.216669 0)
(10.3807 -0.249622 0)
(10.4113 -0.24052 0)
(10.3567 -0.260091 0)
(10.397 -0.225191 0)
(10.3625 -0.194651 0)
(10.3973 -0.20724 0)
(10.3873 -0.117154 0)
(10.4148 -0.125135 0)
(10.4672 -0.121022 0)
(10.4644 -0.045494 0)
(10.5481 -0.094369 0)
(10.5948 -0.0845468 0)
(10.6358 -0.0565965 0)
(10.7265 -0.11608 0)
(10.7666 -0.125659 0)
(10.8781 -0.149112 0)
(10.9127 -0.216115 0)
(10.9957 -0.250341 0)
(11.1292 -0.308501 0)
(11.1136 -0.35318 0)
(11.2846 -0.426185 0)
(11.3485 -0.465231 0)
(11.3856 -0.497679 0)
(11.594 -0.585381 0)
(11.616 -0.613321 0)
(11.7428 -0.662396 0)
(11.9237 -0.761086 0)
(11.9594 -0.807675 0)
(12.1324 -0.900779 0)
(12.1877 -0.99123 0)
(12.2987 -1.06035 0)
(12.3564 -1.18599 0)
(12.363 -1.23109 0)
(12.4206 -1.31264 0)
(12.4558 -1.37486 0)
(12.3515 -1.40382 0)
(12.4358 -1.40424 0)
(12.375 -1.37433 0)
(12.3507 -1.40614 0)
(12.3252 -1.30941 0)
(12.2797 -1.23678 0)
(12.2856 -1.23008 0)
(12.2402 -1.11608 0)
(12.2218 -1.06705 0)
(12.2531 -1.05574 0)
(12.265 -0.986114 0)
(12.2685 -0.960674 0)
(12.3627 -1.02623 0)
(12.3779 -1.02218 0)
(12.4217 -1.04647 0)
(12.4308 -1.2007 0)
(12.5448 -1.28932 0)
(12.4646 -1.42776 0)
(12.5672 -1.61189 0)
(12.5402 -1.80139 0)
(12.5332 -1.99278 0)
(12.4491 -2.2415 0)
(12.4569 -2.48402 0)
(12.3362 -2.71273 0)
(12.2028 -2.94296 0)
(12.1151 -3.20074 0)
(11.9659 -3.49577 0)
(11.8226 -3.72491 0)
(11.6777 -4.03596 0)
(11.7621 -4.33587 0)
(11.7684 -4.65533 0)
(11.7834 -4.96641 0)
(11.862 -5.28316 0)
(12.0738 -5.61284 0)
(12.1076 -5.89388 0)
(12.1813 -6.05074 0)
(12.0649 -6.06147 0)
(12.0356 -5.98694 0)
(11.494 -5.7319 0)
(11.4525 -5.37368 0)
(10.9316 -5.05467 0)
(11.0513 -4.64142 0)
(10.856 -4.36803 0)
(11.0088 -3.86234 0)
(11.0084 -3.43265 0)
(11.0947 -2.88043 0)
(11.1337 -2.30918 0)
(11.0807 -1.66994 0)
(10.8814 -0.947982 0)
(10.6933 -0.392123 0)
(10.4233 0.17649 0)
(10.3198 0.73357 0)
(10.2622 1.20714 0)
(10.3616 1.98168 0)
(10.2954 2.6421 0)
(10.1996 3.26281 0)
(9.99509 3.86319 0)
(9.4879 3.98976 0)
(8.88806 3.82599 0)
(8.12999 3.38197 0)
(7.76917 2.71692 0)
(7.08927 2.18367 0)
(7.04912 1.56878 0)
(6.58419 0.945352 0)
(6.65712 0.665873 0)
(6.57598 0.0480081 0)
(6.91949 -0.393005 0)
(7.1701 -0.83063 0)
(7.42553 -1.15907 0)
(7.63568 -1.20219 0)
(8.09027 -1.17913 0)
(8.30824 -1.32347 0)
(8.65454 -1.15734 0)
(8.56869 -0.59719 0)
(9.14008 -0.318955 0)
(8.94978 -0.292034 0)
(9.47481 0.26132 0)
(8.96042 0.506678 0)
(9.46218 1.1277 0)
(8.70858 1.37415 0)
(9.51638 1.83991 0)
(8.37432 1.93059 0)
(9.4073 2.34199 0)
(8.57196 2.21291 0)
(8.8428 2.65993 0)
(8.57865 2.94319 0)
(8.30902 2.95853 0)
(8.32248 2.92975 0)
(7.6171 3.4693 0)
(7.943 3.93315 0)
(7.04408 3.48092 0)
(7.21646 3.14692 0)
(6.6735 2.77765 0)
(7.00648 3.2138 0)
(6.74716 3.47002 0)
(5.94555 3.63748 0)
(6.48757 3.51498 0)
(5.02843 3.38073 0)
(6.14155 3.29805 0)
(4.96623 2.72044 0)
(5.61763 2.56415 0)
(5.20795 2.48846 0)
(5.21744 2.71758 0)
(5.7032 2.64127 0)
(5.1021 2.77506 0)
(5.86788 2.98416 0)
(5.14053 3.72128 0)
(6.22828 3.5192 0)
(5.27042 3.95282 0)
(6.71294 3.58788 0)
(5.2266 4.17082 0)
(7.18303 3.49584 0)
(5.37684 4.1886 0)
(7.80268 2.74741 0)
(6.30153 3.87538 0)
(8.10445 3.13969 0)
(7.04976 5.30383 0)
(8.12123 4.41522 0)
(8.20586 6.55279 0)
(11.6227 -0.142581 0)
(11.5494 -0.19093 0)
(11.7598 -0.258955 0)
(11.6622 -0.200533 0)
(11.802 -0.153268 0)
(11.7457 -0.189058 0)
(11.7512 -0.11304 0)
(11.8136 -0.161074 0)
(11.6957 -0.127063 0)
(11.8633 -0.0975526 0)
(11.7385 -0.111758 0)
(11.8464 -0.0276733 0)
(11.8268 -0.0558658 0)
(11.7652 -0.0214549 0)
(11.8622 -0.0169067 0)
(11.7122 -0.0609594 0)
(11.8121 -0.0164699 0)
(11.7301 -0.0607936 0)
(11.7436 -0.0461215 0)
(11.7777 -0.0179201 0)
(11.7254 -0.0384612 0)
(11.8041 0.00413206 0)
(11.7492 0.00713361 0)
(11.8055 0.00840447 0)
(11.7704 0.038102 0)
(11.7847 0.0179759 0)
(11.7883 0.0229698 0)
(11.7478 0.0386693 0)
(11.8052 0.009333 0)
(11.7307 0.0341535 0)
(11.797 0.0433482 0)
(11.7699 0.0333527 0)
(11.7473 0.0743329 0)
(11.8141 0.0776382 0)
(11.7401 0.0730853 0)
(11.8052 0.111338 0)
(11.8 0.0865047 0)
(11.8014 0.0743045 0)
(11.8663 0.0836076 0)
(11.8506 0.0177496 0)
(11.8924 0.00168126 0)
(11.9007 -0.0296726 0)
(11.919 -0.118141 0)
(11.8938 -0.115538 0)
(11.9258 -0.176938 0)
(11.8974 -0.223651 0)
(11.873 -0.214328 0)
(11.9178 -0.246424 0)
(11.8379 -0.250065 0)
(11.8778 -0.224513 0)
(11.8694 -0.203918 0)
(11.8401 -0.218985 0)
(11.8795 -0.141565 0)
(11.874 -0.144352 0)
(11.9071 -0.160506 0)
(11.9196 -0.0799437 0)
(11.9789 -0.126719 0)
(12.0239 -0.132792 0)
(12.043 -0.102 0)
(12.1471 -0.160162 0)
(12.1587 -0.170878 0)
(12.2479 -0.207558 0)
(12.2884 -0.260282 0)
(12.3434 -0.286205 0)
(12.4287 -0.369353 0)
(12.4335 -0.399537 0)
(12.5266 -0.462348 0)
(12.5861 -0.536765 0)
(12.5837 -0.551455 0)
(12.7316 -0.642506 0)
(12.7352 -0.696207 0)
(12.7927 -0.730079 0)
(12.9196 -0.821833 0)
(12.904 -0.883411 0)
(12.9773 -0.953775 0)
(13.0192 -1.0298 0)
(12.986 -1.09697 0)
(13.0052 -1.19598 0)
(12.9356 -1.22134 0)
(12.9245 -1.29104 0)
(12.8348 -1.36248 0)
(12.7606 -1.34745 0)
(12.7139 -1.37149 0)
(12.6387 -1.35686 0)
(12.5377 -1.33009 0)
(12.5143 -1.26213 0)
(12.4493 -1.19578 0)
(12.3417 -1.14747 0)
(12.3743 -1.07829 0)
(12.2517 -1.03933 0)
(12.2662 -1.00349 0)
(12.2531 -1.01999 0)
(12.2258 -0.967034 0)
(12.2346 -1.00846 0)
(12.2809 -1.05849 0)
(12.2273 -1.09434 0)
(12.2172 -1.1914 0)
(12.3017 -1.29214 0)
(12.2162 -1.44433 0)
(12.1709 -1.59279 0)
(12.2135 -1.81708 0)
(12.1276 -2.01814 0)
(12.0106 -2.18031 0)
(12.0452 -2.43111 0)
(11.9041 -2.66049 0)
(11.7417 -2.87614 0)
(11.6734 -3.14839 0)
(11.6175 -3.40733 0)
(11.5319 -3.6905 0)
(11.5514 -3.97757 0)
(11.5295 -4.32164 0)
(11.5221 -4.6864 0)
(11.4968 -5.05066 0)
(11.5429 -5.37987 0)
(11.5786 -5.70209 0)
(11.4905 -5.91319 0)
(11.2986 -5.88248 0)
(10.8965 -5.78435 0)
(10.5082 -5.57327 0)
(9.98645 -5.30904 0)
(9.93505 -5.05858 0)
(9.56965 -4.90658 0)
(9.98425 -4.6384 0)
(9.7475 -4.37617 0)
(10.1768 -3.95911 0)
(10.1633 -3.57638 0)
(10.3496 -2.96154 0)
(10.3846 -2.32773 0)
(10.2273 -1.56584 0)
(10.0678 -0.787329 0)
(9.65582 -0.191393 0)
(9.28761 0.360956 0)
(9.02976 0.8269 0)
(8.78121 1.33686 0)
(8.87758 1.93165 0)
(8.84519 2.65791 0)
(8.68364 3.38097 0)
(8.63749 4.03902 0)
(8.16492 4.35385 0)
(7.87254 4.3466 0)
(7.29382 3.86676 0)
(6.9158 3.205 0)
(6.31583 2.42469 0)
(6.48006 1.71566 0)
(5.72849 0.995471 0)
(6.43539 0.587544 0)
(6.03582 -0.263087 0)
(6.79004 -0.591568 0)
(6.57082 -1.10778 0)
(7.34434 -1.33618 0)
(7.18558 -1.48865 0)
(8.12665 -1.44847 0)
(7.86122 -1.58766 0)
(8.5992 -1.16634 0)
(8.20533 -0.84893 0)
(8.98701 -0.385447 0)
(8.63457 -0.408294 0)
(9.19091 0.291533 0)
(8.54637 0.71158 0)
(9.24732 1.19022 0)