/*--------------------------------*- C++ -*----------------------------------*\
| =========                 |                                                 |
| \\      /  F ield         | OpenFOAM: The Open Source CFD Toolbox           |
|  \\    /   O peration     | Version:  2.4.0                                 |
|   \\  /    A nd           | Web:      www.OpenFOAM.org                      |
|    \\/     M anipulation  |                                                 |
\*---------------------------------------------------------------------------*/
FoamFile
{
    version     2.0;
    format      ascii;
    class       volScalarField;
    location    "0.15";
    object      k;
}
// * * * * * * * * * * * * * * * * * * * * * * * * * * * * * * * * * * * * * //

dimensions      [0 2 -2 0 0 0 0];

internalField   nonuniform List<scalar> 
8800
(
8.12032
10.2654
8.79111
6.82593
5.70418
4.97547
4.52822
4.14912
3.91028
3.68775
3.53628
3.39983
3.30245
3.21096
3.13558
3.06827
3.03856
2.9602
2.99181
3.01241
1.40494
4.35187
5.31721
5.28918
5.13114
4.81177
4.57116
4.29505
4.10661
3.90372
3.75335
3.61105
3.50981
3.39854
3.33162
3.23859
3.2106
3.1136
3.1168
3.11089
0.0844444
0.733558
1.5594
1.94296
2.27848
2.43916
2.56784
2.61101
2.61846
2.60156
2.58533
2.53987
2.51745
2.46486
2.45005
2.39597
2.38697
2.3423
2.3241
2.29637
0.00335087
0.0700808
0.256943
0.415894
0.589232
0.703968
0.829348
0.935796
1.02948
1.07972
1.17043
1.20169
1.25918
1.28182
1.33107
1.3437
1.36892
1.39505
1.39325
1.39535
0.000123609
0.00495519
0.0239088
0.0481328
0.0899136
0.12814
0.155484
0.208308
0.248676
0.275404
0.321787
0.358131
0.378845
0.422629
0.445478
0.486538
0.501693
0.548694
0.555559
0.579356
2.47281e-05
0.000309137
0.00151728
0.00368945
0.0074836
0.0133132
0.0172147
0.0264665
0.034279
0.0412473
0.0525766
0.0642941
0.0697826
0.0824025
0.0900699
0.104942
0.109942
0.126288
0.1304
0.135933
2.18077e-05
4.51162e-05
0.000118729
0.000310322
0.00048835
0.000914663
0.00122314
0.00202574
0.0028141
0.00339039
0.00486273
0.00640137
0.00708157
0.0083897
0.0104856
0.0124705
0.0130568
0.0155952
0.0168512
0.0170386
2.1429e-05
3.30351e-05
4.77975e-05
7.73741e-05
9.46198e-05
0.000118327
0.000138446
0.000182147
0.000242398
0.00026564
0.000347213
0.000441733
0.000485949
0.000556385
0.000721608
0.000815322
0.000835887
0.000926864
0.00107899
0.00114894
2.07039e-05
2.77373e-05
5.05337e-05
5.89131e-05
6.61148e-05
6.92212e-05
7.81818e-05
8.60008e-05
9.1543e-05
9.21708e-05
9.4114e-05
9.95735e-05
0.000101372
0.000108779
0.000114467
0.000114784
0.000114776
0.000118745
0.00012546
0.000145297
2.06984e-05
2.78995e-05
3.74087e-05
6.1709e-05
6.69341e-05
6.69741e-05
6.64203e-05
6.8624e-05
7.35622e-05
7.46672e-05
7.42066e-05
7.44402e-05
7.53343e-05
7.91167e-05
8.19591e-05
8.23405e-05
8.11823e-05
8.12453e-05
8.1705e-05
8.41644e-05
2.06344e-05
2.69026e-05
3.93698e-05
5.65079e-05
6.1515e-05
6.65226e-05
6.77069e-05
6.80532e-05
6.7843e-05
6.85295e-05
7.36957e-05
7.91984e-05
7.85744e-05
7.7607e-05
7.78213e-05
7.81568e-05
7.90713e-05
8.3709e-05
8.84529e-05
9.95205e-05
2.07803e-05
2.94604e-05
3.87836e-05
5.59622e-05
7.27784e-05
7.73272e-05
7.67426e-05
7.54503e-05
7.62958e-05
8.34866e-05
9.1157e-05
9.78611e-05
0.000100422
0.000107164
0.000122046
0.000133148
0.000154262
0.000206962
0.000270257
0.000413284
2.10353e-05
2.90799e-05
4.54811e-05
8.73865e-05
0.000103344
0.000111726
0.000124029
0.000159679
0.000195083
0.000291694
0.000337873
0.000473146
0.000566184
0.000764408
0.000896306
0.00118805
0.00149751
0.00228946
0.00309159
0.00473674
2.16915e-05
4.35764e-05
0.000131189
0.000422726
0.000551908
0.000840527
0.00114703
0.00191972
0.00250361
0.00403325
0.00480471
0.00673266
0.00791488
0.0104243
0.0119024
0.0156296
0.0184156
0.0252405
0.0310644
0.045374
2.48999e-05
0.000309632
0.00166478
0.00548187
0.00752847
0.0121679
0.016609
0.0262846
0.0322332
0.0459794
0.0521433
0.0661783
0.0736593
0.0897195
0.0980662
0.118998
0.13199
0.162798
0.185806
0.254347
0.000122975
0.00495632
0.0246748
0.0602284
0.0814017
0.122319
0.161272
0.206469
0.237143
0.294094
0.317166
0.365547
0.39004
0.440186
0.464222
0.524184
0.556229
0.630342
0.681234
0.819577
0.00335201
0.0694737
0.264764
0.421168
0.577952
0.701946
0.839518
0.924516
1.02189
1.10582
1.15824
1.22093
1.26818
1.3162
1.34571
1.40939
1.43984
1.50957
1.55521
1.66162
0.0843152
0.726503
1.5738
1.93784
2.27829
2.42998
2.58362
2.59473
2.62709
2.60128
2.59147
2.54437
2.53109
2.48272
2.47244
2.43602
2.43355
2.41118
2.41234
2.39533
1.40231
4.35389
5.3224
5.28528
5.13206
4.79496
4.58883
4.27336
4.13323
3.86428
3.77803
3.57453
3.51387
3.35898
3.3157
3.17364
3.13614
2.9919
2.92748
2.78002
8.11664
10.2684
8.79462
6.81211
5.71677
4.95623
4.53642
4.12692
3.92727
3.63781
3.54657
3.33126
3.27667
3.09517
3.04572
2.85005
2.77876
2.53823
2.39571
2.08371
1.90162
1.1529
0.798184
0.617406
0.519716
0.49144
0.500697
0.543389
0.641149
0.696817
0.696702
0.673472
0.624596
0.572594
0.521114
0.482201
0.442714
0.382295
0.326555
0.308208
0.317915
0.422775
0.499483
0.488644
0.379725
0.247449
0.162951
0.118393
0.107447
0.111793
0.130079
0.148915
0.150497
0.146955
0.132698
0.107032
0.0864117
0.0731091
0.0648283
0.0589942
0.0562236
0.0557715
0.0560856
0.0592035
0.0675535
0.0963894
0.143252
0.165269
0.165613
0.158732
0.127685
0.0800086
0.0598862
0.0549335
0.0562162
0.0583553
0.0664128
0.0715547
0.0794055
0.0879522
0.0868884
0.102638
0.266714
0.423686
0.439723
0.414368
0.353998
0.285738
0.22416
0.166233
0.125826
0.103101
0.0865245
0.080873
0.0818389
0.0856981
0.0872062
0.0857813
0.0798989
0.0766271
0.0765568
0.0773532
0.0769875
0.0756959
0.0743477
0.0725006
0.0677918
0.04962
0.0316533
0.0272821
0.0297449
0.0567505
0.122421
0.160838
0.243706
0.35352
0.349172
0.288844
0.251412
0.295375
0.319731
0.413352
0.398589
0.283605
0.174912
0.127454
0.12148
0.135254
0.142077
0.131366
0.116501
0.0999531
0.0913365
0.0861509
0.085278
0.0823021
0.0797197
0.075181
0.0703226
0.0686156
0.0688586
0.0692791
0.0695477
0.0702435
0.0716869
0.0722381
0.0727139
0.0761216
0.0783575
0.0778038
0.075931
0.0731884
0.0695318
0.0601752
0.0467469
0.0361917
0.0304897
0.0275664
0.0275294
0.0288205
0.031544
0.0328514
0.0335017
0.0355071
0.0376735
0.0420807
0.0471589
0.0592107
0.077898
0.089806
0.0913145
0.0904103
0.0863211
0.0715853
0.0549181
0.0462883
0.0414104
0.0374333
0.0337673
0.0310338
0.0302957
0.0303092
0.0308241
0.0323814
0.0361651
0.0478205
0.0657084
0.0755874
0.0810546
0.0910539
0.120525
0.163587
0.190326
0.197794
0.195073
0.181265
0.143097
0.106555
0.0808279
0.0632891
0.0504098
0.0414399
0.0353192
0.0331058
0.0320332
0.0330777
0.0348878
0.0362481
0.0361194
0.0354302
0.0326148
0.0304109
0.0303664
0.0315056
0.0354606
0.0448974
0.0629741
0.131293
0.303764
1.80675
2.67066
2.19839
1.82353
1.56168
1.36432
1.22907
1.12785
1.03605
0.947441
0.861824
0.774093
0.688848
0.617721
0.539445
0.446705
0.357638
0.280359
0.231989
0.21814
0.220192
0.227349
0.240774
0.281649
0.427179
0.480223
0.443781
0.290784
0.197607
0.151137
0.13849
0.142053
0.149085
0.149674
0.147304
0.140656
0.125445
0.106456
0.0879483
0.0736741
0.0639265
0.0607003
0.0604462
0.0614465
0.0672672
0.0854953
0.140545
0.170476
0.172129
0.166361
0.139267
0.0827142
0.0571026
0.0506068
0.0505829
0.0544105
0.0583199
0.0673276
0.0816313
0.0823106
0.0873985
0.088304
0.0929008
0.156369
0.37774
0.43062
0.419355
0.356688
0.277143
0.212971
0.161317
0.12608
0.10635
0.093148
0.0921862
0.0952108
0.097645
0.0971314
0.0911402
0.0870293
0.0863023
0.085657
0.0836762
0.080402
0.0780852
0.0757961
0.0712278
0.0568398
0.0349512
0.0260532
0.0255209
0.0314865
0.0798091
0.137409
0.185596
0.313088
0.375584
0.340985
0.237587
0.248645
0.289937
0.315274
0.391487
0.380872
0.269393
0.163903
0.118856
0.114109
0.125212
0.136987
0.134305
0.114215
0.0953121
0.0873375
0.0816657
0.0798536
0.0785464
0.0785112
0.0782634
0.0749446
0.0706796
0.0700675
0.0698516
0.0699785
0.0709092
0.0722512
0.0732981
0.0734678
0.0764578
0.0792812
0.0785019
0.0754476
0.073124
0.0692627
0.0602701
0.0467541
0.0356903
0.0290441
0.0255117
0.0246659
0.0252278
0.0280908
0.0298781
0.0311354
0.0323143
0.0357458
0.0390855
0.0432296
0.0485132
0.0626246
0.0806186
0.088303
0.0887732
0.0873409
0.0832335
0.0690212
0.0572048
0.0508549
0.0449321
0.0397208
0.0355946
0.034646
0.0346115
0.0353469
0.0376603
0.043814
0.0616406
0.0775685
0.0840342
0.0904582
0.105896
0.152576
0.195825
0.208057
0.207815
0.198806
0.16804
0.127129
0.0935389
0.073484
0.0587372
0.0478626
0.0389502
0.0339166
0.0325418
0.0325107
0.0352653
0.0410163
0.043177
0.0456699
0.0440395
0.0391797
0.0337452
0.030749
0.0307691
0.0327286
0.0393971
0.0569683
0.0965195
0.265401
0.944513
2.0834
1.8568
1.65659
1.49338
1.34342
1.21566
1.10435
0.991957
0.885064
0.776034
0.668777
0.5575
0.455606
0.348751
0.262264
0.202069
0.144598
0.0996497
0.07899
0.077894
0.0822156
0.109025
0.14237
0.186479
0.324836
0.432335
0.439591
0.393003
0.261243
0.203645
0.182427
0.168764
0.162459
0.15254
0.14498
0.135134
0.11776
0.0999075
0.0830489
0.0726615
0.0710438
0.0715253
0.0758032
0.0906604
0.143795
0.178711
0.180566
0.174976
0.146717
0.0853581
0.0562548
0.0472185
0.0471363
0.0490162
0.055917
0.0639486
0.074449
0.0898765
0.0917723
0.0911962
0.0910256
0.0882704
0.103574
0.248639
0.391443
0.405739
0.369695
0.285305
0.217646
0.165301
0.130767
0.115818
0.108621
0.106619
0.107637
0.108432
0.10448
0.0995036
0.0983126
0.0964494
0.0915069
0.0860565
0.0821526
0.0795396
0.0743433
0.0599265
0.0366286
0.0258067
0.0229246
0.024204
0.0363535
0.102867
0.151498
0.214277
0.3504
0.37959
0.286092
0.214171
0.234121
0.246031
0.282389
0.396049
0.402423
0.275154
0.16087
0.112366
0.10695
0.115478
0.130998
0.132247
0.111368
0.0887142
0.0783973
0.0750258
0.0739585
0.075109
0.0773285
0.0799425
0.0784836
0.0758169
0.0738448
0.071263
0.0710573
0.0722226
0.0734708
0.074238
0.0746423
0.0771779
0.0798027
0.0792053
0.0756624
0.0740695
0.0704775
0.0610021
0.0460499
0.0345313
0.026998
0.0232625
0.0223037
0.0225814
0.0261318
0.0280498
0.0295854
0.0302032
0.0326765
0.0365792
0.0419579
0.0451468
0.0511647
0.065272
0.0780032
0.0830825
0.0839501
0.082944
0.0788807
0.0673847
0.0597012
0.0525714
0.0470855
0.0418674
0.0407598
0.0405781
0.04194
0.045165
0.0580257
0.0768806
0.08872
0.0931588
0.1019
0.13377
0.19384
0.219418
0.221041
0.213328
0.187316
0.14612
0.108057
0.0814831
0.0641655
0.0529631
0.0429438
0.0368945
0.0343978
0.0349386
0.0421774
0.0492612
0.0536629
0.0535905
0.0536811
0.0549939
0.0533345
0.0484792
0.0382067
0.0327536
0.0339274
0.0368366
0.0538802
0.0778721
0.190288
0.513575
1.3011
1.18906
1.07073
0.988765
0.90356
0.813225
0.730843
0.638261
0.542425
0.451275
0.357533
0.268394
0.189585
0.135807
0.0977489
0.0721312
0.0527755
0.0387654
0.0321603
0.0310387
0.0321666
0.0371938
0.0449903
0.0596488
0.0893412
0.194419
0.325525
0.380802
0.385452
0.357653
0.271858
0.22274
0.198224
0.172503
0.161554
0.151472
0.131067
0.112592
0.0961753
0.089395
0.0898923
0.0943623
0.108709
0.16083
0.190394
0.192195
0.183784
0.150609
0.0833589
0.054732
0.0450772
0.0446231
0.0471243
0.0564157
0.0702667
0.084636
0.0973788
0.100454
0.10008
0.096062
0.0928876
0.0886405
0.0896847
0.123227
0.275362
0.36488
0.356195
0.309781
0.240168
0.183773
0.150075
0.138553
0.132879
0.12712
0.125504
0.122284
0.116609
0.112541
0.106457
0.100824
0.0935168
0.0869805
0.0835058
0.0767863
0.0590818
0.0360461
0.025307
0.0215407
0.0214696
0.0244679
0.0468859
0.123015
0.167905
0.243336
0.363669
0.35351
0.214088
0.19411
0.195095
0.184137
0.225979
0.413763
0.468527
0.308452
0.160662
0.108616
0.0979992
0.105508
0.125361
0.133007
0.114139
0.0880284
0.0776438
0.0757502
0.0731525
0.0747558
0.0760979
0.0783534
0.0779763
0.0771499
0.0785039
0.0754194
0.0742401
0.0759544
0.076282
0.0767789
0.0773859
0.0787514
0.081604
0.0817234
0.077934
0.0769543
0.0723624
0.060495
0.044692
0.0328685
0.0250612
0.0211625
0.0201881
0.0202439
0.0236113
0.0261582
0.0281071
0.0286101
0.0297492
0.0335378
0.0385386
0.0408677
0.0437886
0.0542638
0.0685776
0.0761471
0.079799
0.0806042
0.0798723
0.0760837
0.0674325
0.0615018
0.0545364
0.0491326
0.0481835
0.0481894
0.0503206
0.0553684
0.0776785
0.0901613
0.0980256
0.101832
0.117207
0.176357
0.226967
0.236766
0.229004
0.204636
0.155804
0.118937
0.0897916
0.0690691
0.0551109
0.0450433
0.0390914
0.0365389
0.0365285
0.0429875
0.0512639
0.0553449
0.0565017
0.0556141
0.0539085
0.0539822
0.0540295
0.0531436
0.0501259
0.04141
0.0387149
0.0395708
0.0635605
0.0738258
0.131492
0.305503
0.549558
0.511788
0.454922
0.418108
0.378332
0.334214
0.289359
0.238142
0.190448
0.149327
0.112403
0.0816974
0.0596725
0.0437797
0.0322992
0.0249529
0.0188903
0.0139544
0.0115776
0.0112697
0.011531
0.012443
0.0146623
0.0191367
0.026019
0.044108
0.0824235
0.196569
0.296688
0.346635
0.355269
0.33936
0.275279
0.217343
0.200219
0.180779
0.155361
0.136385
0.126132
0.125518
0.130842
0.149564
0.196866
0.209003
0.206821
0.193342
0.143092
0.0775034
0.0509895
0.0438282
0.0435556
0.0490955
0.0664081
0.089459
0.116123
0.12978
0.131816
0.128675
0.120386
0.107566
0.0965729
0.0877919
0.0819883
0.0873779
0.128788
0.264213
0.31609
0.302802
0.263263
0.221029
0.188956
0.171554
0.161589
0.1495
0.143043
0.135117
0.126237
0.119477
0.109438
0.101756
0.0942978
0.0861255
0.0769501
0.0534362
0.0330232
0.0237892
0.0203367
0.019771
0.0207359
0.0260479
0.0621833
0.141963
0.179766
0.255264
0.353882
0.292161
0.179379
0.170341
0.147487
0.139184
0.176298
0.406993
0.544001
0.355252
0.161964
0.106731
0.09509
0.0989549
0.114822
0.134028
0.125971
0.0942843
0.0792747
0.074643
0.0710944
0.0719562
0.072927
0.0731092
0.0759063
0.0766456
0.0791641
0.0784183
0.0779025
0.083143
0.0830744
0.0822543
0.0841167
0.0841315
0.0839459
0.0834934
0.0784764
0.0772578
0.0727004
0.0582751
0.0438321
0.0312887
0.0239177
0.0194586
0.0181121
0.0179869
0.0202334
0.0238514
0.0257017
0.0266763
0.0276046
0.0307825
0.033719
0.0359892
0.0390415
0.0494305
0.0619895
0.0723908
0.0773269
0.0795154
0.0794178
0.0788463
0.0749725
0.0704254
0.0612131
0.0583198
0.0575654
0.0585474
0.062173
0.0742949
0.0968254
0.100155
0.105408
0.111217
0.148677
0.220876
0.246908
0.244313
0.221291
0.165938
0.12365
0.0941589
0.073224
0.0580409
0.0485114
0.0414875
0.0392017
0.0396063
0.0435178
0.0496631
0.0537947
0.0540711
0.0539333
0.0514199
0.049614
0.0491579
0.0509821
0.0507678
0.0505134
0.0452718
0.0513261
0.0483066
0.106761
0.0869623
0.0997754
0.186499
0.131096
0.124338
0.111023
0.103989
0.0926955
0.0820681
0.0703893
0.0567819
0.045397
0.0353669
0.0265266
0.0197934
0.0151132
0.0110369
0.00866218
0.00706801
0.00525459
0.00421671
0.00378205
0.00369625
0.00376494
0.0040531
0.00463529
0.00580128
0.00758212
0.0116183
0.0201177
0.040287
0.0875386
0.194742
0.280069
0.318279
0.324874
0.317117
0.28908
0.242823
0.20946
0.195187
0.194022
0.199635
0.225116
0.235007
0.233568
0.222687
0.196715
0.118191
0.0647677
0.0455534
0.041961
0.0443842
0.0559964
0.0905605
0.13036
0.170814
0.194508
0.193567
0.187636
0.169188
0.147796
0.131744
0.108505
0.0925163
0.0752195
0.0719886
0.0814098
0.131713
0.223011
0.264988
0.255714
0.233636
0.204725
0.189635
0.176809
0.160303
0.152907
0.140771
0.129002
0.122245
0.10926
0.0981067
0.0881537
0.0659192
0.0435763
0.0291488
0.0216412
0.0189967
0.0185242
0.0189306
0.0211047
0.0293625
0.0819379
0.154815
0.185735
0.260147
0.305823
0.239809
0.169944
0.142349
0.133838
0.131895
0.157007
0.382215
0.598881
0.389931
0.161657
0.105839
0.093795
0.0944755
0.0996593
0.128571
0.138908
0.109759
0.0782871
0.0673418
0.0672686
0.0679472
0.0726932
0.0726731
0.0765229
0.0768644
0.0777602
0.0800025
0.0797134
0.0837393
0.0860114
0.0846373
0.0878431
0.0877346
0.0832916
0.0823376
0.0767065
0.0752298
0.0719277
0.0566003
0.0431654
0.0296118
0.0229373
0.0183959
0.0171783
0.0171243
0.0186899
0.0224558
0.0245283
0.0264936
0.0273512
0.0295601
0.0308535
0.0325394
0.0354519
0.045582
0.0541035
0.0650022
0.0716096
0.0767062
0.0780985
0.0791732
0.0782495
0.0777916
0.0720228
0.070651
0.0700874
0.0726332
0.0775783
0.0973876
0.105148
0.105931
0.108954
0.12222
0.195932
0.245139
0.254198
0.24025
0.176205
0.122404
0.0907648
0.0741613
0.061223
0.0513528
0.0439014
0.0414827
0.0433554
0.050568
0.0599811
0.059383
0.0591201
0.0567896
0.0563309
0.0534029
0.0518188
0.0488965
0.0491275
0.0513527
0.0564808
0.0554848
0.0898157
0.0708169
0.105647
0.104386
0.104221
0.140796
0.0166389
0.0160243
0.0147649
0.0140799
0.0126115
0.0113306
0.00950726
0.00791241
0.00650782
0.00515232
0.00406431
0.00325657
0.00270447
0.00195832
0.00163491
0.00145748
0.00121654
0.00119843
0.00120767
0.00123849
0.00127
0.00140539
0.00161693
0.00197701
0.00240981
0.00332867
0.00525353
0.00918769
0.0199666
0.0406585
0.0834364
0.177731
0.250366
0.287512
0.294299
0.293199
0.284678
0.2754
0.273633
0.271216
0.266733
0.253948
0.227151
0.159193
0.0851838
0.0497949
0.0396681
0.0398513
0.0475842
0.0730762
0.12949
0.210397
0.268591
0.295693
0.295324
0.278594
0.25682
0.225216
0.192691
0.16325
0.122265
0.0960217
0.0750209
0.0616514
0.0622613
0.074097
0.109896
0.163304
0.211227
0.212316
0.200941
0.189731
0.176542
0.161088
0.152662
0.137653
0.12391
0.110526
0.0929205
0.0722179
0.0498101
0.0342284
0.0252373
0.0200399
0.0177002
0.0175023
0.0178277
0.0187888
0.0220786
0.033603
0.100723
0.165307
0.188831
0.247038
0.266331
0.21354
0.160353
0.131963
0.134145
0.134318
0.151852
0.361459
0.660538
0.436614
0.169419
0.106463
0.093544
0.0925713
0.0932822
0.109361
0.143738
0.134383
0.0829226
0.0651383
0.0668329
0.0668692
0.0736091
0.0734444
0.076919
0.0780597
0.0778502
0.0850299
0.0839488
0.0845188
0.0914546
0.0885925
0.0901535
0.0906842
0.0809294
0.078055
0.0756766
0.0731735
0.071039
0.0526065
0.040193
0.0274278
0.0222146
0.0182305
0.0173153
0.017328
0.0189464
0.0223771
0.0248768
0.0265652
0.0274716
0.0287066
0.0295674
0.0307385
0.0352718
0.0432274
0.0494339
0.0599728
0.0659137
0.0718345
0.0761937
0.0793538
0.079422
0.0802292
0.0791923
0.0798212
0.0811278
0.0892333
0.0957059
0.108306
0.107725
0.108871
0.114662
0.154285
0.23849
0.255869
0.248337
0.197061
0.119093
0.0898138
0.0749403
0.0660817
0.0585418
0.0526055
0.0483927
0.0463319
0.0567486
0.0610619
0.0691069
0.065442
0.0633491
0.0595951
0.0588186
0.0558096
0.0594702
0.0576005
0.0737024
0.0678884
0.0983573
0.0764775
0.104218
0.0892506
0.0929459
0.111728
0.10885
0.122077
0.00113876
0.00111475
0.00108461
0.00102261
0.000959366
0.000855223
0.000755362
0.000715862
0.000612652
0.000560919
0.000517365
0.000465557
0.000418866
0.000386695
0.000391131
0.000380697
0.000401125
0.000544031
0.000606043
0.000642249
0.00065836
0.000684
0.000703581
0.000750449
0.000828126
0.0010673
0.00146446
0.00222387
0.00404818
0.0078759
0.0165464
0.0327314
0.0707995
0.14418
0.202011
0.235055
0.247927
0.248563
0.245788
0.236095
0.214125
0.158752
0.0916023
0.0519022
0.0341342
0.0330517
0.0371002
0.0549448
0.104832
0.205685
0.319158
0.400185
0.414138
0.409892
0.395761
0.362242
0.339611
0.291748
0.239622
0.190112
0.133249
0.0999573
0.0765535
0.0597085
0.0519145
0.0533487
0.0618509
0.0797903
0.121576
0.144796
0.155492
0.155489
0.149989
0.13926
0.124161
0.103463
0.0896184
0.070112
0.0506119
0.0374422
0.0282992
0.0222886
0.0190142
0.01724
0.0168176
0.0170598
0.0177582
0.019424
0.024658
0.0424317
0.11803
0.170966
0.187298
0.224558
0.231925
0.189168
0.147134
0.133518
0.144462
0.142415
0.154325
0.360703
0.727381
0.52611
0.196555
0.113014
0.0954199
0.0921925
0.0922216
0.0969704
0.126165
0.13832
0.0867147
0.0642834
0.0679625
0.0670166
0.0720444
0.0725196
0.0754344
0.0844838
0.0826461
0.0896283
0.0920823
0.0878117
0.0954244
0.0979006
0.0923642
0.091447
0.0795927
0.0742114
0.0755267
0.0707926
0.0651153
0.0409262
0.0313042
0.0230414
0.0202629
0.0182294
0.0182682
0.019094
0.0208117
0.0233763
0.0260266
0.0271979
0.0279739
0.0286219
0.0286939
0.0294567
0.0340608
0.0405924
0.0467079
0.0594564
0.0641852
0.0711651
0.0753295
0.0798939
0.0808777
0.0836552
0.0852726
0.0907593
0.0945674
0.103365
0.1052
0.110451
0.108073
0.110722
0.124204
0.210619
0.254567
0.252312
0.210652
0.127767
0.0911461
0.0763414
0.0699559
0.0627383
0.0611307
0.0573001
0.0589893
0.0573969
0.0669061
0.073599
0.0775755
0.0765923
0.080068
0.0802513
0.0870425
0.0816018
0.0936381
0.0797282
0.128097
0.103227
0.163626
0.121635
0.120191
0.102479
0.10276
0.124857
0.118634
0.122463
0.000144381
0.000145712
0.000149809
0.000150473
0.0001535
0.000154987
0.000161969
0.00016364
0.000165402
0.000177787
0.000182831
0.000194491
0.000204506
0.000230774
0.000272108
0.000298231
0.000396653
0.000489536
0.000512331
0.000550579
0.000557301
0.000546967
0.000548586
0.000532962
0.000524938
0.000546752
0.000586196
0.000695011
0.000981775
0.00162767
0.00307779
0.00596454
0.0126403
0.0235981
0.0544807
0.0944333
0.112268
0.113259
0.109
0.0939472
0.0652539
0.0419661
0.0264506
0.0241928
0.0260785
0.035973
0.0720326
0.149685
0.324661
0.443036
0.492317
0.489202
0.469283
0.447282
0.412788
0.380525
0.364531
0.329206
0.270571
0.20409
0.141474
0.106137
0.0806723
0.0620541
0.0501216
0.0441271
0.0449974
0.0486527
0.0643957
0.0755322
0.0861487
0.0884666
0.0863155
0.081381
0.0711845
0.0591526
0.0489383
0.0382191
0.0296041
0.0245122
0.0209416
0.0185401
0.0174477
0.0167343
0.0167459
0.0175723
0.0192269
0.0222738
0.0298072
0.0593124
0.139909
0.17316
0.173936
0.18481
0.19603
0.176969
0.143312
0.146776
0.149285
0.153471
0.168882
0.366229
0.778478
0.615247
0.230241
0.122891
0.0997802
0.0935815
0.095063
0.097611
0.114338
0.133141
0.0930991
0.0664414
0.0679856
0.0678158
0.066353
0.0708902
0.072645
0.0899682
0.088109
0.0892046
0.0947605
0.0913055
0.0951411
0.104161
0.0921807
0.0878569
0.0759012
0.0693463
0.0725737
0.0621482
0.0456015
0.02917
0.0216899
0.0187409
0.0180202
0.0184145
0.0194955
0.0219705
0.0232576
0.0268438
0.0286399
0.0300371
0.0298413
0.0293997
0.0287637
0.0298314
0.0322239
0.0391459
0.0437742
0.0569217
0.0625151
0.0734007
0.0767526
0.083892
0.0862045
0.0924736
0.0946576
0.101063
0.102462
0.10685
0.107203
0.107706
0.105449
0.112793
0.158616
0.246467
0.25281
0.227353
0.140726
0.093982
0.0809269
0.0728122
0.0700444
0.0656175
0.0653997
0.0642975
0.0647622
0.067496
0.0767771
0.0761436
0.0787179
0.078003
0.0884715
0.0849633
0.107009
0.0921194
0.148278
0.131611
0.177922
0.154537
0.195567
0.166871
0.176391
0.146745
0.122226
0.130791
0.129942
0.129384
8.71131e-05
9.18475e-05
9.84558e-05
0.000113301
0.000122836
0.000126983
0.000137825
0.000143648
0.000162419
0.000172838
0.000190488
0.000232022
0.000278833
0.000399146
0.000511647
0.000648524
0.00078392
0.000810665
0.000806209
0.000813578
0.00079977
0.000738488
0.000662356
0.000543874
0.000499404
0.000475065
0.000459077
0.000464951
0.000497876
0.000585634
0.000800156
0.00124659
0.00266997
0.00454233
0.0089279
0.0208493
0.0267651
0.0271367
0.0261095
0.0222532
0.0155053
0.0145238
0.0158415
0.0209414
0.0393299
0.0967663
0.239561
0.451112
0.539951
0.552889
0.541436
0.510761
0.472989
0.446768
0.405837
0.374006
0.358964
0.329722
0.285674
0.221682
0.163041
0.12607
0.0924747
0.0692002
0.0520063
0.0435186
0.0377514
0.0372497
0.0398598
0.0440069
0.0485985
0.0487734
0.0470652
0.0445059
0.0401781
0.0344739
0.0295785
0.0258544
0.0224518
0.0204801
0.0190944
0.0177675
0.0173178
0.0174096
0.0182629
0.0215368
0.0246768
0.0301534
0.0410521
0.088044
0.157658
0.172146
0.161103
0.160768
0.170463
0.162748
0.146235
0.149378
0.151912
0.165706
0.190063
0.346662
0.815169
0.720718
0.286361
0.143394
0.110529
0.101327
0.102106
0.101955
0.10872
0.123094
0.102367
0.0701172
0.066027
0.0670268
0.0659558
0.0723281
0.073998
0.0890813
0.0891485
0.0841908
0.0934444
0.0936652
0.0905537
0.101089
0.0855152
0.0685457
0.0654063
0.0583994
0.058685
0.0483532
0.0326136
0.0228634
0.0182002
0.0175813
0.017442
0.0182841
0.0193934
0.0224671
0.0239276
0.0287289
0.0305539
0.031726
0.0304599
0.0298907
0.0292886
0.0305428
0.0321833
0.0368576
0.0409567
0.0526222
0.0600213
0.0725092
0.0760703
0.0835071
0.0864105
0.0937006
0.0958391
0.101841
0.102296
0.105314
0.10342
0.100822
0.101765
0.126824
0.209898
0.25556
0.234604
0.164901
0.0990331
0.0830485
0.0777359
0.0754598
0.0770602
0.0775276
0.0780589
0.0769078
0.0810204
0.07746
0.0858079
0.0794315
0.0846174
0.0791693
0.105192
0.0959239
0.1282
0.113398
0.120556
0.130938
0.130495
0.144993
0.178603
0.196238
0.265154
0.24699
0.2
0.159308
0.14519
0.137855
0.000116609
0.000127303
0.000144738
0.000172113
0.000219924
0.000257393
0.000310631
0.000393518
0.000472913
0.000572207
0.000764564
0.000925299
0.00123541
0.00159331
0.00185855
0.00208982
0.00242605
0.00258025
0.00257533
0.0025166
0.00229644
0.00194276
0.0015438
0.00119644
0.000948129
0.000754845
0.000621837
0.0005214
0.000478576
0.000473755
0.000485295
0.000525183
0.00064039
0.000921331
0.00137268
0.00305315
0.00469104
0.00521946
0.00549535
0.00617596
0.00756414
0.010999
0.020986
0.049487
0.130147
0.347465
0.545185
0.606709
0.600983
0.576942
0.518125
0.44736
0.400575
0.373626
0.360319
0.355658
0.346472
0.321901
0.292936
0.233824
0.189486
0.147345
0.108576
0.0821795
0.0582927
0.0453012
0.0377809
0.0349495
0.0339574
0.0329688
0.0329004
0.0324015
0.0314512
0.0305051
0.0285753
0.0256608
0.0238945
0.0226862
0.0210376
0.0195473
0.0189493
0.0189711
0.0192978
0.0205358
0.0252275
0.0328809
0.0390787
0.0474409
0.0611738
0.118302
0.173989
0.180021
0.160396
0.144406
0.142813
0.138074
0.141281
0.144639
0.15206
0.167424
0.200115
0.307296
0.820502
0.883122
0.382684
0.173429
0.122849
0.109609
0.104318
0.101525
0.106885
0.110444
0.101818
0.0743894
0.0649518
0.0642164
0.0669157
0.077593
0.0810074
0.0844875
0.0878292
0.07439
0.0853927
0.0976421
0.0860118
0.0849923
0.0667314
0.048995
0.0512201
0.0480224
0.0452443
0.039754
0.0269239
0.0216032
0.0182028
0.0176689
0.0174826
0.0183829
0.0194901
0.0220734
0.0235655
0.0283709
0.0296131
0.0296656
0.0286753
0.028792
0.0297451
0.031117
0.0322898
0.0360493
0.0405222
0.0480517
0.0579872
0.0655358
0.0726613
0.0796196
0.08245
0.0885694
0.091735
0.0950564
0.0955193
0.0966743
0.0916586
0.0924664
0.102424
0.178828
0.234313
0.241096
0.181803
0.117806
0.078774
0.0828943
0.0775639
0.0788616
0.0796223
0.0814277
0.0833141
0.0852078
0.0900914
0.0873581
0.0893261
0.0857291
0.0840612
0.0840854
0.0826101
0.0886797
0.0904608
0.108511
0.103051
0.120579
0.117186
0.130795
0.142253
0.185871
0.368022
0.412411
0.419805
0.33005
0.246625
0.175614
0.000601966
0.000759086
0.000942218
0.00119737
0.00156969
0.00179123
0.00224014
0.00261194
0.00301596
0.00371213
0.00428609
0.00510111
0.00619372
0.00709881
0.00803184
0.00905887
0.00959978
0.00959322
0.00936161
0.00888506
0.00804107
0.00660735
0.00515098
0.00403728
0.00313447
0.00241683
0.00182402
0.00137183
0.00102764
0.000781201
0.000644959
0.000611092
0.000616456
0.000651387
0.000744005
0.000996724
0.00147257
0.00208266
0.0032746
0.00582092
0.0119761
0.0278644
0.0712499
0.178408
0.466949
0.639191
0.662449
0.6436
0.585287
0.473667
0.415067
0.374089
0.336274
0.31124
0.307972
0.315601
0.318068
0.312519
0.287326
0.242234
0.208845
0.16309
0.123718
0.0897775
0.0651032
0.0492593
0.0396076
0.0359074
0.0324164
0.0306117
0.0302098
0.0291012
0.0276189
0.0266346
0.0250684
0.0239243
0.0233341
0.0220657
0.021104
0.0210956
0.0215917
0.0230983
0.0258341
0.0315017
0.047832
0.060505
0.0701677
0.080715
0.0902906
0.134008
0.184366
0.18549
0.154484
0.135799
0.129689
0.126464
0.131526
0.134266
0.14195
0.160386
0.219902
0.306271
0.815903
1.0739
0.530579
0.225432
0.141081
0.117992
0.110658
0.108102
0.109929
0.108732
0.101405
0.081806
0.0661124
0.0624453
0.0655728
0.0753908
0.078521
0.0705823
0.0786767
0.0725162
0.0720419
0.0968629
0.0796361
0.0551551
0.0510589
0.0387621
0.039517
0.0405727
0.0370353
0.0346839
0.0256816
0.0221122
0.0196938
0.0188341
0.0186414
0.0194397
0.0204567
0.0213458
0.0225505
0.0248492
0.0252035
0.0251362
0.0253097
0.0261206
0.0278248
0.0287722
0.0300513
0.0324795
0.0407908
0.0493306
0.0574439
0.0608891
0.068775
0.0720854
0.077052
0.0796691
0.0842655
0.0855879
0.0867703
0.0823828
0.0817204
0.0887713
0.142408
0.226767
0.238356
0.21611
0.124835
0.0896607
0.0691699
0.0742912
0.0740989
0.0848349
0.0829493
0.0830915
0.0812645
0.0816207
0.0869973
0.0882077
0.0869823
0.0833843
0.0822476
0.0829192
0.0823121
0.0925454
0.0954039
0.100492
0.0985956
0.113947
0.114104
0.123376
0.139705
0.180268
0.338411
0.443635
0.752976
0.751207
0.706356
0.448073
0.00699116
0.00813646
0.00950287
0.0109846
0.0123603
0.0135378
0.0151375
0.0164488
0.0180534
0.020443
0.0225174
0.0252422
0.0284945
0.0309651
0.033387
0.0344984
0.0343776
0.0336825
0.0320142
0.029679
0.0264232
0.0227279
0.0189786
0.0150597
0.011971
0.00951895
0.00739362
0.00579131
0.00444086
0.00335404
0.0026031
0.00201051
0.0017339
0.00176685
0.001981
0.00248498
0.00360675
0.00618019
0.0116707
0.02306
0.0477393
0.108703
0.258277
0.577285
0.711498
0.71425
0.678234
0.5576
0.471064
0.424609
0.393486
0.363068
0.331102
0.305539
0.29391
0.292012
0.294869
0.296963
0.280425
0.243428
0.209041
0.165243
0.126076
0.0933988
0.0702211
0.0534669
0.0445826
0.0386415
0.033726
0.0320397
0.0308444
0.0284594
0.0270684
0.0265721
0.0256585
0.0249731
0.0248554
0.0249287
0.0253963
0.026677
0.0302656
0.0351126
0.0446885
0.069091
0.102795
0.117609
0.123412
0.128514
0.132357
0.166143
0.213379
0.207136
0.153038
0.128603
0.124082
0.121746
0.119741
0.120713
0.128049
0.149812
0.230619
0.309885
0.792274
1.24787
0.780951
0.325625
0.180227
0.136844
0.124525
0.120158
0.115397
0.106587
0.101022
0.0839713
0.0688877
0.0599952
0.0573288
0.0594043
0.0609642
0.0543408
0.0599601
0.069916
0.0544068
0.0728198
0.0595152
0.0363233
0.0393297
0.0358162
0.0323885
0.0360808
0.033037
0.0303793
0.0255796
0.0242552
0.0238927
0.0233929
0.0228386
0.0229292
0.0223632
0.0219694
0.0223702
0.0237633
0.0247871
0.0250227
0.0246403
0.024303
0.0243842
0.024828
0.0260662
0.0310458
0.0427332
0.0501621
0.0543057
0.0592115
0.0618973
0.0653189
0.0706971
0.074543
0.0754922
0.0751734
0.0706282
0.0701318
0.0759771
0.114386
0.224171
0.244511
0.229735
0.153556
0.0946605
0.0697939
0.0603441
0.0676642
0.0729589
0.0869447
0.0832498
0.0886937
0.0864361
0.0904794
0.0893105
0.0931185
0.102523
0.10177
0.100657
0.0893614
0.0995108
0.0972389
0.106997
0.105347
0.121365
0.114891
0.131909
0.135579
0.141297
0.183888
0.24944
0.388919
0.474134
0.686906
0.896046
0.883478
0.0553558
0.0591225
0.0624697
0.0658249
0.0688009
0.0717855
0.0751515
0.0799547
0.0831428
0.0894888
0.0945337
0.0984759
0.104344
0.107563