/*--------------------------------*- C++ -*----------------------------------*\
| =========                 |                                                 |
| \\      /  F ield         | OpenFOAM: The Open Source CFD Toolbox           |
|  \\    /   O peration     | Version:  2.4.0                                 |
|   \\  /    A nd           | Web:      www.OpenFOAM.org                      |
|    \\/     M anipulation  |                                                 |
\*---------------------------------------------------------------------------*/
FoamFile
{
    version     2.0;
    format      ascii;
    class       volScalarField;
    location    "0.15";
    object      p;
}
// * * * * * * * * * * * * * * * * * * * * * * * * * * * * * * * * * * * * * //

dimensions      [0 2 -2 0 0 0 0];

internalField   nonuniform List<scalar> 
8800
(
110.117
97.7635
90.3616
86.8519
84.9399
83.5385
82.3567
81.2433
80.1818
79.2459
78.2886
77.3003
76.4162
75.508
74.6094
73.7159
72.975
72.1831
71.454
71.1644
107.004
97.4095
90.531
86.9665
85
83.5627
82.365
81.2451
80.1779
79.2438
78.2887
77.2952
76.4147
75.5071
74.6081
73.7102
72.9758
72.1734
71.435
70.7145
105.038
97.4862
91.1351
87.3427
85.1668
83.6417
82.4116
81.2778
80.2016
79.2632
78.3014
77.3002
76.4196
75.5071
74.6098
73.7016
72.9765
72.1531
71.356
70.3703
103.5
97.5468
91.7261
87.767
85.3513
83.7298
82.4726
81.3336
80.2536
79.3036
78.3312
77.3232
76.4389
75.515
74.6218
73.7039
72.9691
72.1396
71.4121
70.3095
102.251
97.5186
92.2053
88.1727
85.5228
83.8006
82.5164
81.3882
80.317
79.3559
78.3701
77.3624
76.4616
75.5324
74.635
73.7303
72.9444
72.1209
71.1691
70.4971
101.264
97.424
92.5758
88.52
85.6769
83.8474
82.5423
81.4319
80.3764
79.4022
78.411
77.4051
76.486
75.5487
74.6517
73.759
72.9278
72.126
71.2326
70.9789
100.506
97.3103
92.8482
88.7988
85.8212
83.876
82.5498
81.4617
80.4268
79.4434
78.4482
77.4429
76.5063
75.5659
74.6683
73.7904
72.9298
72.1592
71.3323
71.2632
99.9548
97.2111
93.0356
89.0114
85.9458
83.8955
82.5459
81.4837
80.4644
79.4748
78.4773
77.4769
76.5212
75.5821
74.6853
73.822
72.9538
72.2082
71.4556
71.543
99.5955
97.1367
93.1517
89.1535
86.0374
83.9078
82.5402
81.4936
80.4946
79.4987
78.4992
77.5001
76.5404
75.5956
74.7132
73.8359
72.996
72.2644
71.5948
71.8245
99.4234
97.0927
93.2102
89.2245
86.0852
83.9129
82.5374
81.4995
80.5114
79.5134
78.5113
77.5206
76.5516
75.617
74.7344
73.8799
73.0392
72.3405
71.7231
72.083
99.4216
97.0947
93.2114
89.2228
86.0866
83.9151
82.5369
81.5003
80.5162
79.5175
78.5157
77.5336
76.5639
75.6344
74.7684
73.9226
73.095
72.4201
71.8471
72.3204
99.598
97.1353
93.1573
89.1483
86.0438
83.9104
82.5398
81.4985
80.5097
79.5085
78.5121
77.5422
76.5771
75.6501
74.8076
73.9697
73.1598
72.5039
71.9577
72.528
99.9555
97.2116
93.0419
89.0032
85.9569
83.902
82.5423
81.4897
80.4942
79.4902
78.4978
77.5453
76.5858
75.6728
74.8488
74.0241
73.2302
72.606
72.0616
72.6094
100.506
97.3131
92.8578
88.789
85.8305
83.8854
82.5433
81.4723
80.4698
79.4598
78.4775
77.5429
76.593
75.6909
74.892
74.0823
73.3135
72.718
72.1744
72.6581
101.264
97.4274
92.5873
88.5047
85.6909
83.8587
82.5339
81.442
80.4377
79.4202
78.4487
77.5337
76.5952
75.7067
74.9383
74.1417
73.4061
72.8427
72.3088
72.6426
102.249
97.526
92.2167
88.1541
85.5387
83.8168
82.5047
81.3991
80.3974
79.3706
78.4134
77.5219
76.5973
75.7164
74.9811
74.1983
73.5019
72.9759
72.4689
72.5733
103.499
97.5551
91.7375
87.7434
85.3697
83.7547
82.4558
81.3431
80.3495
79.3219
78.3788
77.5064
76.5973
75.7236
75.0149
74.2433
73.5878
73.0843
72.629
72.5029
105.036
97.4933
91.1487
87.3179
85.1873
83.6706
82.3937
81.2871
80.3056
79.2852
78.3539
77.4937
76.5987
75.7312
75.0351
74.2742
73.6436
73.1552
72.739
72.4604
107.002
97.4161
90.546
86.9422
85.0199
83.5926
82.3486
81.2554
80.2819
79.2699
78.346
77.4896
76.6019
75.7402
75.044
74.29
73.6694
73.1848
72.7609
72.4545
110.115
97.7698
90.3759
86.8288
84.9609
83.566
82.3422
81.2561
80.2818
79.273
78.3511
77.49
76.6044
75.7459
75.0447
74.2925
73.6752
73.1851
72.7625
72.5586
69.9227
68.2118
65.965
63.4383
60.7462
58.1499
55.6655
53.3551
51.7469
51.359
52.7738
55.8672
60.1586
65.4732
71.4365
77.1531
82.1226
86.5345
90.3472
93.1186
94.6062
94.9983
94.2641
92.7975
91.3841
89.5391
86.9873
84.4507
81.6494
78.1765
74.1068
69.203
63.7619
58.4914
52.8301
47.7217
43.4483
38.4174
34.5739
31.6075
28.0697
26.7264
26.0661
25.2589
26.3386
27.7143
30.278
34.4638
39.4973
46.617
54.5762
63.3973
72.2129
80.0299
87.1113
93.1253
97.888
101.873
104.827
106.905
108.252
109.028
109.191
108.467
106.929
104.651
101.774
98.4238
94.3171
90.0915
86.1865
81.8808
78.009
75.172
72.3699
69.8918
69.0713
68.7998
68.7209
69.8663
71.4164
72.9581
75.3177
78.3782
81.4384
84.4824
87.4319
90.0271
92.1809
93.9835
95.4741
96.5072
97.1207
97.0071
96.1361
94.7817
92.9134
90.6056
88.012
85.3267
82.4691
80.1087
75.3893
67.5448
58.0736
49.4017
42.5215
38.0895
35.2248
32.5119
29.9528
28.1185
27.3827
27.3243
28.0204
29.9083
33.5694
38.4217
43.8388
50.097
56.9391
63.2308
68.9027
74.4262
79.3787
83.5725
87.233
90.3383
92.8295
94.6633
95.9486
96.9286
97.5232
97.7057
97.7845
97.6544
97.5501
97.2459
96.8392
96.2586
95.5503
94.7069
93.733
92.7101
91.3555
89.8903
88.0482
86.0448
83.5176
80.6329
77.1172
73.2179
69.2363
65.2397
61.2903
58.1621
56.342
55.1135
54.2313
54.0555
54.9352
56.469
58.2406
60.785
64.4433
68.6752
72.7666
76.7604
80.0776
82.8469
85.499
87.3192
88.4369
89.4513
90.1972
90.9849
91.8257
92.5488
93.3135
93.8783
94.3814
95.0019
95.5274
96.1414
96.7146
97.2215
97.5004
97.7288
97.7434
97.6316
97.3244
96.8585
96.2947
95.4738
94.1143
91.5385
86.7001
79.0944
66.4188
23.441
69.225
67.8855
65.9118
63.5282
60.9251
58.4949
56.2324
54.3891
53.1691
53.0413
54.5382
57.5782
61.6242
66.4641
71.9308
77.253
81.7937
85.6396
89.0543
91.8866
93.4508
93.7328
93.0853
91.9068
90.7422
89.1934
86.7183
84.1882
81.6456
78.6207
75.2028
70.9874
66.3965
61.9367
56.6439
51.7658
47.8756
43.1607
39.3906
36.5755
33.1865
31.5063
30.6765
29.7669
30.4868
31.6281
33.8619
37.4561
42.0316
48.8025
55.8101
63.6331
71.8278
78.8922
85.6514
91.5508
96.645
100.789
103.821
106.226
107.884
108.957
109.583
109.36
108.49
106.527
103.502
99.8567
95.3369
90.8482
87.1151
82.8516
78.8715
76.2819
73.8029
71.5686
70.9457
70.8843
70.8255
72.0059
73.731
75.3437
77.735
80.8348
83.7862
86.529
89.1798
91.5387
93.5373
95.2084
96.6051
97.5729
98.0663
97.8518
96.8426
95.2407
92.8719
89.9908
86.886
83.8522
80.8323
77.017
72.4527
65.2021
56.3861
47.8967
41.092
36.5534
33.9704
31.7138
29.4347
27.8368
27.0859
26.9405
27.6394
29.5477
32.9856
37.4645
42.7725
49.1769
56.1175
62.5393
68.3921
74.2045
79.4795
83.8033
87.5697
90.8531
93.4493
95.3231
96.6688
97.6508
98.2679
98.3178
98.2568
98.0791
97.8541
97.5641
97.1027
96.6016
95.8743
95.1282
94.1826
93.2861
92.0575
90.7504
89.1329
87.2356
84.9107
82.4889
79.3773
75.8051
72.3666
68.8021
65.2062
62.2366
60.1958
58.9138
58.104
57.8655
58.6653
60.2186
61.9496
64.3431
67.7554
71.6926
75.1831
78.5087
81.2824
83.4117
85.3154
86.6078
87.237
87.6872
88.4331
89.2532
90.0751
90.8138
91.536
92.0976
92.7107
93.4468
94.0109
94.5889
95.158
95.4867
95.6475
95.593
95.4635
95.1922
94.558
93.735
92.6341
91.2512
89.0032
85.2975
79.4503
68.3758
54.8098
12.9052
68.7553
67.6748
66.0165
63.874
61.4712
59.2352
57.326
55.8793
55.1694
55.401
56.9129
59.7659
63.5415
67.934
72.746
77.2868
81.1721
84.6808
87.7123
90.0537
91.4966
92.0192
91.7785
90.7639
89.7158
88.5683
86.2447
83.6029
81.2344
78.6706
75.839
72.3398
68.6236
64.7572
60.1206
56.0361
52.692
48.4792
44.7348
41.9775
38.8032
36.7344
35.6669
34.7237
34.9707
35.6359
37.5555
40.8301
44.7597
50.5811
56.5383
63.0945
70.3497
76.7597
83.4482
89.0956
94.1033
98.5409
101.872
104.703
106.598
107.91
108.739
108.755
108.497
106.953
104.06
100.635
96.0612
91.5396
88.0397
84.1833
80.3058
78.0344
75.8935
73.7873
73.1973
73.3563
73.3729
74.4787
76.3511
78.1698
80.4859
83.3082
86.0524
88.4404
90.7435
92.9669
94.8927
96.4199
97.6795
98.6255
98.9257
98.5573
97.4372
95.345
92.3168
88.8418
85.4088
82.1541
78.8942
74.7036
69.9736
62.9824
54.4953
46.5023
40.2392
35.6865
33.2758
31.3932
29.3771
27.9305
27.1444
27.0522
27.8921
29.938
33.185
37.3933
42.571
48.9379
55.732
62.1613
68.2289
74.2697
79.7155
84.1147
87.9986
91.4185
94.0753
96.0586
97.5121
98.4822
99.0746
99.049
98.8121
98.5615
98.2234
97.932
97.4677
97.0268
96.3816
95.717
94.8721
94.0146
92.8317
91.622
90.1348
88.3522
86.3358
84.2029
81.4667
78.3501
75.4019
72.4012
69.3036
66.5078
64.5976
63.2761
62.4138
62.2676
63.014
64.3944
66.2807
68.7182
71.6962
74.7758
77.7426
80.4133
82.6315
84.311
85.3538
86.1056
86.3465
86.4097
87.0302
87.833
88.6167
89.3695
90.014
90.5259
91.3236
92.0376
92.6777
93.171
93.645
93.7643
93.7781
93.5252
93.0569
92.702
91.8691
90.713
89.2686
87.2105
84.3891
79.4589
73.8069
59.1874
45.6976
15.7386
68.3072
67.3316
66.1207
64.2258
62.0479
60.1636
58.6737
57.7114
57.507
58.0942
59.5974
62.2307
65.6669
69.394
73.358
77.283
80.6685
83.6714
86.2843
88.3075
89.5351
89.9802
90.0778
89.468
88.4482
87.3611
85.3349
83.1657
81.0518
78.5527
76.0221
73.3511
70.3898
67.1372
63.6241
60.3273
57.2954
53.7518
50.1801
47.4049
44.5124
42.2853
40.9278
39.7606
39.5661
40.034
41.457
43.956
47.1254
51.756
56.4848
61.9515
68.162
73.6842
79.8847
85.4251
90.5474
95.2653
98.8088
102.073
104.351
105.996
107
107.09
107.24
106.107
103.537
100.848
96.792
92.5027
89.4601
86.0687
82.3691
80.2431
78.3479
76.4105
76.0633
76.2782
76.3729
77.3933
79.3673
81.2329
83.2091
85.5908
87.964
90.1634
92.2189
94.1909
96.0315
97.5504
98.7151
99.553
99.7357
99.113
97.7193
95.073
91.4344
87.5123
84.0706
80.7199
77.5944
73.7668
69.0122
62.0814
53.6901
46.1701
39.9171
35.3114
33.0016
31.5106
30.0585
28.8327
28.0105
27.9482
28.8706
30.9589
34.0177
38.0509
43.1006
49.3032
55.8308
62.1978
68.49
74.6661
80.1981
84.688
88.6275
92.1494
94.8503
96.8851
98.4111
99.3675
99.9166
99.8417
99.4314
99.0604
98.6809
98.3524
97.9612
97.5772
97.0646
96.408
95.6247
94.7039
93.581
92.4425
91.076
89.4349
87.6958
85.798
83.3989
80.8022
78.4421
75.8839
73.2263
70.8957
69.2731
68.0108
67.2384
67.1173
67.952
69.1938
70.9065
73.1477
75.918
78.4205
80.5472
82.54
84.2801
85.324
85.9198
86.0929
85.8016
85.6787
86.1206
86.779
87.4766
88.2412
88.7314
89.374
90.1869
90.9006
91.3988
91.8178
92.0623
92.0162
91.7197
91.3092
90.6596
89.955
89.0663
87.6766
86.1916
83.4962
80.4444
73.6485
69.7437
53.2337
38.6989
18.6447
70
68.7504
66.6439
64.4749
62.5268
61.0804
60.0644
59.6379
59.8588
60.7224
62.2365
64.5406
67.4824
70.6295
73.9485
77.3058
80.2673
82.7905
84.8926
86.5997
87.7484
88.2394
88.4814
87.9979
87.1593
86.4381
84.7615
82.7247
80.7659
78.5991
76.5976
74.4152
71.9234
69.4203
66.7312
63.868
61.3916
58.6927
55.5656
52.8448
50.0987
47.7836
46.163
44.8813
44.4013
44.391
45.1637
46.9271
49.0498
52.059
55.4421
59.6757
64.7107
69.5874
75.2695
80.4763
85.5732
90.6726
94.7584
98.581
101.21
103.188
104.526
104.892
105.373
104.586
102.509
100.665
97.4669
93.5731
90.9665
88.0225
84.6368
82.6736
81.2037
79.5808
79.1573
79.5745
79.8622
80.6858
82.3853
84.1342
85.6678
87.5449
89.5989
91.5641
93.456
95.3713
97.1102
98.5092
99.5853
100.241
100.254
99.4671
97.7726
94.529
90.5176
86.5372
83.2428
80.1636
77.3517
73.8665
69.018
62.1737
53.8017
46.6162
40.224
35.5289
33.1132
31.9251
31.1449
30.2265
29.4561
29.3454
30.269
32.2709
35.1515
39.1403
44.153
50.1662
56.4596
62.7065
69.2118
75.3337
80.7768
85.4512
89.3859
92.8545
95.578
97.5899
99.2434
100.244
100.735
100.604
100.068
99.5623
99.1774
98.8238
98.5391
98.1997
97.7328
97.0746
96.3458
95.437
94.3947
93.338
92.0686
90.5917
89.0503
87.3084
85.2754
83.231
81.2826
79.0484
76.8997
75.1081
73.8885
72.7953
72.1249
72.2236
73.0794
74.1192
75.6612
77.6024
79.8988
82.0805
83.7018
85.121
86.3397
86.6732
86.8041
86.4616
85.9134
85.4808
85.812
86.1539
86.769
87.3136
87.7361
88.4918
89.2174
89.9088
90.2328
90.3844
90.3762
89.9959
89.5367
88.8609
88.0502
87.0704
86.0747
84.423
83.2658
79.386
78.2225
68.3204
64.7443
49.9011
33.8921
19.7105
71.17
69.8745
67.2762
64.9204
63.1169
61.9963
61.4866
61.4868
61.9804
63.0871
64.5559
66.4523
68.8927
71.6022
74.4946
77.199
79.5496
81.772
83.7669
85.3563
86.3382
86.7741
87.0616
86.7925
86.1722
85.4322
84.0356
82.674
81.0636
78.9242
77.2633
75.4839
73.4532
71.6211
69.408
66.9532
64.9511
62.7464
60.2597
57.467
54.9333
52.8298
51.2977
49.9482
49.2395
48.9094
48.7967
49.2226
50.1229
51.7208
53.7694
56.5661
60.1811
64.1815
69.105
73.9538
79.2603
84.8078
89.5687
94.1654
97.4392
99.9253
101.817
102.609
103.391
103.119
101.728
100.595
98.2058
94.8891
92.697
90.3472
87.5262
85.8526
84.7217
83.2616
82.7206
83.0883
83.4071
83.9885
85.1846
86.5204
87.7681
89.2436
90.9707
92.7713
94.5243
96.3199
98.0536
99.3901
100.328
100.774
100.452
99.433
97.5422
93.9641
89.8174
86.2278
83.1742
80.7539
77.9747
74.6723
69.6345
62.6639
54.3114
47.1025
40.7277
36.0033
33.4299
32.476
32.4151
31.9548
31.2635
30.9619
32.0339
33.9651
36.8111
40.7852
45.7302
51.4563
57.5355
63.6576
70.2007
76.184
81.4569
86.275
90.1522
93.4193
96.1927
98.1952
100.007
101.107
101.501
101.322
100.705
100.074
99.6874
99.3396
99.1243
98.8466
98.403
97.8256
97.1371
96.2958
95.318
94.3545
93.0944
91.7515
90.3521
88.79
87.0162
85.3265
83.6611
81.8266
80.1955
78.9312
78.0044
77.2525
76.9839
77.1118
77.8912
78.9019
80.3339
81.9203
83.6429
85.3279
86.644
87.7111
88.3857
88.4437
88.1145
87.2444
86.5711
85.7682
85.9293
85.8832
86.3954
86.601
87.1456
87.7163
88.522
88.7718
89.1061
88.8758
88.4858
87.9796
87.2748
86.4691
85.6352
84.2153
83.5483
80.3605
81.6489
74.5358
74.8449
64.16
57.8376
47.2722
32.4353
21.3915
71.8786
70.7507
68.0799
65.6813
63.963
63.0373
62.8349
63.1207
63.7818
64.9382
66.2729
67.9069
70.1062
72.3605
74.5508
76.765
79.112
81.2668
82.7932
84.0889
85.0404
85.5618
85.9532
85.7604
85.2867
84.7442
83.7046
82.7097
81.2955
79.5517
78.4046
76.6927
74.747
73.4063
71.6192
69.5197
67.7541
65.7681
63.3644
61.5423
59.695
57.9976
56.5839
55.376
54.2717
53.0814
51.9616
51.1246
50.5742
50.6707
51.3631
52.6384
54.6999
57.6802
61.6177
66.0127
71.7304
77.9313
83.6543
89.1529
93.1304
96.4036
99.0963
100.361
101.497
101.962
101.334
100.718
99.2214
96.852
95.0612
93.2695
91.0334
89.4335
88.3849
87.0739
86.3025
86.5077
86.6697
86.8519
87.554
88.4807
89.5106
90.7139
92.0946
93.6864
95.4138
97.129
98.7607
100.033
100.846
101.124
100.537
99.232
97.0801
93.5585
89.5968
86.5397
83.9909
81.9912
79.2202
75.7763
70.8798
64.0418
55.8396
48.2085
41.7306
37.0099
34.2141
33.3016
33.8285
34.0149
33.5445
33.3499
34.5301
36.3419
39.1765
43.0201
47.7722
53.1208
59.101
65.1691
71.4171
77.3059
82.4172
87.1527
91.0213
93.9659
96.7564
98.8666
100.731
101.9
102.215
102.026
101.374
100.68
100.246
99.9519
99.807
99.6256
99.1819
98.6937
98.0183
97.2325
96.272
95.3103
94.0626
92.8388
91.5608
90.0934
88.4761
87.1034
85.738
84.337
83.1446
82.2362
81.5707
81.2257
81.1097
81.3742
82.2275
83.2107
84.4813
85.7619
87.0011
88.2516
89.3605
90.1784
90.2746
90.0019
89.3413
88.3226
87.392
86.3095
86.2556
85.8568
86.1817
86.1078
86.6866
87.0005
87.7029
87.5971
87.7343
87.1473
86.6407
85.794
85.3968
83.6537
84.131
80.6786
82.8434
76.0745
79.3394
70.5913
68.1447
60.3448
51.5917
45.4367
33.9602
24.55
72.4799
71.505
68.8515
66.4903
64.8218
64.0102
64.0437
64.4477
65.2209
66.3628
67.5541
69.0358
70.864
72.6702
74.6918
76.8111
78.756
80.4549
81.744
83.0522
84.0542
84.5332
84.9641
84.8454
84.5707
84.3113
83.4371
82.6115
81.6238
80.3441
79.408
78.0056
76.4712
75.2709
73.8164
72.2457
70.774
69.2185
67.6329
66.1754
64.8651
63.5812
62.1949
60.6402
58.88
56.8485
54.7237
52.7187
50.7767
49.3061
48.3483
47.9444
48.5892
50.5467
53.4901
57.518
63.3974
70.3585
77.2341
83.7431
88.7197
93.0208
96.4014
98.2526
100.023
101.212
101.161
101.041
100.456
98.9259
97.4282
96.0663
94.2155
92.6239
91.6203
90.543
89.6178
89.4078
89.2269
89.1884
89.6203
90.2146
90.9143
91.825
93.0564
94.4963
96.0023
97.639
99.2781
100.459
101.052
101.127
100.415
98.9973
96.7861
93.3576
89.7983
87.2085
85.2671
83.1638
80.679
77.4303
73.2258
66.4963
57.9068
49.8876
43.3767
38.6939
35.6957
34.7172
35.5472
36.3201
36.3161
36.7054
37.6222
39.2691
42.0089
45.7017
50.259
55.3665
61.2098
67.0798
72.8418
78.7888
83.8222
88.0993
91.8791
94.5562
97.2925
99.53
101.368
102.564
102.817
102.615
101.992
101.352
100.928
100.721
100.605
100.439
100.017
99.5859
98.9252
98.1569
97.2049
96.1274
94.9247
93.8204
92.6428
91.2196
89.7957
88.7397
87.69
86.6047
85.6508
84.9621
84.6215
84.563
84.59
85.0625
85.972
86.844
87.9118
89.0396
89.9802
90.8968
91.7018
92.2132
92.0442
91.4867
90.3655
89.3283
88.1395
86.9298
86.5306
85.8222
85.9489
85.6899
86.0308
86.1157
86.7184
86.0703
86.2815
84.8144
85.216
82.9922
83.9377
80.4531
82.0021
77.0548
79.0772
72.1254
72.423
66.0794
61.6998
57.8524
50.5547
46.8383
37.8334
28.7042
72.9061
72.0748
69.5705
67.2335
65.6606
64.9577
65.042
65.5538
66.3177
67.3845
68.5813
69.8949
71.3947
73.0843
74.8974
76.5741
78.2004
79.7711
81.0152
82.212
83.1207
83.5459
84.0123
84.1383
83.9865
83.7962
83.2328
82.6967
82.0542
81.0767
80.2478
79.3948
78.3304
77.2263
76.2426
75.3395
74.2116
72.9802
71.8809
71.0336
70.136
68.8447
67.3115
65.4918
63.1295
60.4306
57.479
54.1868
50.7752
47.8646
45.4686
43.5633
42.8249
43.4373
45.3689
49.3682
55.2616
62.8177
70.9139
78.5167
84.6897
89.9724
94.0006
96.6892
99.0956
100.691
101.106
101.464
101.467
100.464
99.3085
98.2861
96.7247
95.2744
94.2631
93.1262
92.3284
91.8364
91.3818
91.2208
91.4321
91.7072
92.1125
92.7578
93.7439
95.0023
96.3224
97.8474
99.5249
100.705
101.129
100.905
100.018
98.6179
96.5722
93.3113
90.1808
87.9609
86.4053
84.5066
82.4144
79.8374
76.2038
69.8994
60.6779
52.5861
45.93
41.0801
37.879
36.768
37.5885
38.7715
39.3582
39.9962
40.8132
42.4777
45.1245
48.8254
53.2571
58.2137
63.6056
69.1373
74.6564
80.3679
85.3186
89.094
92.6997
95.2077
97.8149
100.131
101.847
103.01
103.256
103.073
102.568
102.062
101.703
101.537
101.414
101.216
100.83
100.364
99.7781
98.9962
98.0239
96.9252
95.8392
94.7295
93.5483
92.2464
91.0915
90.2312
89.3362
88.4611
87.7631
87.2802
87.1683
87.258
87.4528
88.0823
88.9861
89.7737
90.6948
91.6902
92.4524
93.1286
93.8022
94.0512
93.4984
92.76
91.412
90.2249
88.8335
87.5682
86.8535
85.8524
85.7924
85.0847
85.4974
85.2293
85.476
84.5529
84.1011
82.3802
81.9286
80.1698
79.7228
76.9207
77.8987
73.3893
71.4621
66.7611
63.2227
61.0794
59.1421
57.9089
53.6443
50.3656
42.5218
33.3416
73.3155
72.5449
70.16
67.9567
66.4395
65.8114
65.9193
66.4445
67.238
68.289
69.3821
70.4681
71.8788
73.4052
74.8527
76.286
77.7384
79.19
80.3353
81.3216
82.1967
82.799
83.2571
83.4971
83.4958
83.4252
83.2257
82.8545
82.4121
81.801
81.1801
80.697
80.0064
79.2401
78.6663
78.0397
77.2757
76.619
76.0847
75.4453
74.6327
73.5185
71.9503
70.0176
67.4974
64.0821
60.1703
55.8971
51.2626
46.8851
43.234
40.2698
38.4002
37.7405
38.6663
41.8004
47.8742
55.8925
64.9798
73.724
81.2246
87.4327
92.2015
95.6507
98.4594
100.345
101.273
101.994
102.274
101.654
100.857
99.9993
98.7488
97.5736
96.5051
95.3468
94.4928
93.9405
93.416
93.0377
92.9336
92.9794
93.1879
93.5159
94.0598
95.0661
96.393
97.9127
99.5796
100.761
101.002
100.526
99.4409
98.0166
96.1919
93.3573
90.645
88.7309
87.2368
85.8298
84.2984
82.3334
79.1319
73.381
64.5167
56.2272
49.2994
44.1228
40.7256
39.4594
40.0065
41.215
42.2425
43.2055
44.2031
45.8402
48.4592
52.2497
56.5481
61.3087
66.268
71.376
76.8382
81.7367
86.7543
90.2557
93.5265
95.9811
98.422
100.756
102.278
103.364
103.642
103.5
103.124
102.772
102.487
102.311
102.162
101.921
101.543
101.1
100.567
99.6989
98.7703
97.812
96.7083
95.5009
94.3808
93.2501
92.2243
91.472
90.7677
90.035
89.4595
89.2213
89.2553
89.3521
89.7238
90.4375
91.2906
92.0445
92.8704
93.7301
94.4609
94.9275
95.4252
95.531
94.779
93.7895
92.2713
91.0852
89.4832
88.257
87.1786
86.0696
85.7173
84.9187
84.7776
84.576
83.843
83.1385
81.5974
80.2934
79.5232
77.3946
76.3834
73.4627
73.1182
69.7863
66.8902
64.3565
61.8904
61.6436
60.573
60.3371
57.234
53.4017
46.402
37.4792
73.6412
72.9446
70.6779
68.5594
67.1504
66.5975
66.7284
67.2748
68.0382
68.9593
70.0145
71.023
72.2519
73.4963
74.6388
76.0233
77.3424
78.6112
79.5983
80.5172
81.4975
82.026
82.5299
83.0247
83.1332
83.1592
83.2276
83.0936
82.8597
82.4667
82.1303
81.9286
81.5407
81.0157
80.5782
80.4783
80.2836
79.8754
79.5683
79.2902
78.7845
77.8883
76.4584
74.5002
71.7316
67.7889
63.0684
57.8005
52.1395
46.7881
42.2225
38.4837
35.7334
34.2
34.3447
36.84
42.258
50.3169
60.0986
69.8576
78.3897
85.4523
91.0017
95.0868
98.2492
100.437
101.775
102.707
103.104
102.804
102.27
101.523
100.515
99.4858
98.4249
97.318
96.3914
95.723
95.1072
94.6086
94.2835
94.0153
93.9178
93.9874
94.1775
94.8472
96.0715
97.6635
99.312
100.405
100.58
100.02
98.9606
97.5012
95.8499
93.5161
91.0683
89.3463
87.8356
86.6796
85.9264
84.7447
82.4627
77.5426
69.2131
60.5202
53.1887
47.6745
44.1251
42.5998
42.8075
43.9841
45.3276
46.5268
47.689
49.433
52.0937
55.7443
59.7788
64.1978
68.8704
73.7567
78.9369
83.2336
88.1627
91.4969
94.3372
96.8852
99.1385
101.402
102.807
103.749
104.07
103.965
103.7
103.447
103.202
103.027
102.881
102.579
102.19
101.786
101.175
100.294
99.4554
98.5001
97.2994
96.2006
95.2191
94.1437
93.2193
92.5691
91.9054
91.2959
90.9117
90.7987
90.8238
91.0593
91.5527
92.2109
92.9566
93.7737
94.5361
95.2086
95.9619
96.4144
96.6254
96.43
95.689
94.5953
93.0408
91.8638
90.0239
88.9102
87.4082
86.3401
85.5665
84.8141
84.2599
83.752
82.6796
81.3475
80.0633
78.2549
77.1463
74.6778
73.4646
71.0271
71.2657
69.0905
66.096
66.9272
65.9782
66.8855
65.072
62.8804
59.7546
55.9258
49.5647
40.6876
73.8894
73.2182
71.0701
69.0973
67.8227
67.3431
67.4989
68.0138
68.744
69.6384
70.5219
71.3845
72.3902
73.4425
74.5303
75.7584
76.8268
77.8858
78.9415
79.8489
80.7411
81.4282
81.9965
82.5224
82.8101
83.0631
83.2573
83.3016
83.2899
83.1489
83.0585
83.0623
82.9105
82.5874
82.5869
82.813
82.856
82.7531
82.7286
82.7526
82.6313
82.161
80.8814
78.7471
75.8253
71.5501
65.9277
59.7039
53.2848
47.2036
41.9005
37.635
34.4245
32.3843
32.0538
33.9957
38.8237
46.8613
56.9476
67.1919
76.4865
84.38
90.4951
95.1165
98.5597
100.935
102.525
103.569
104.066
104.032
103.606
102.898
102.059
101.122
100.066
98.9959
98.077
97.2575
96.4941
95.9012
95.4605
94.9674
94.4723
94.1617
94.0293
94.238
95.2013
96.8126
98.5965
99.7903
100.106
99.6081
98.5725
97.1468
95.6241
93.7362
91.583
89.9074
88.4818
87.5495
87.563
87.5603
86.4108
82.6388
75.05
66.0277
58.1157
52.1047
48.1684
46.161
45.9362
46.8494
48.3498
49.8808
51.3025
53.0857
55.7227
59.1709
62.94
66.9474
71.2913
75.7536
80.9461
85.1822
89.4634
92.6889
95.1644
97.6947
99.8909
102.008
103.424
104.177
104.485
104.432
104.276
104.07
103.856
103.726
103.542
103.151
102.763
102.349
101.634
100.772
99.9428
98.9527
97.8444
96.8638
95.8987
94.9164
94.088
93.4402
92.8631
92.4324
92.1313
92.0199
92.0864
92.3353
92.8625
93.5356
94.2096
95.026
95.8409
96.443
96.9558
97.339
97.3633
96.9789
96.1888
95.0729
93.6532
92.322
90.5984
89.4992
87.4752
86.6918
85.1246
84.5698
83.6863
83.3489
82.0419
79.9492
78.9113
76.6602
75.6155
73.7052
72.5471
72.0388
71.3461
71.3819
69.1772
70.6537
69.6431
70.1601
66.5405
63.57
60.9147
57.5304
51.8093
43.0471
74.1119
73.5334
71.4726
69.6205
68.4922
68.0808
68.2352
68.7977
69.4085
70.1188
70.9222
71.6315
72.4714
73.3942
74.2866
75.2243
76.2621
77.3189
78.2581
79.1512
80.0425
80.8416
81.4425
82.0771
82.6657
82.9795
83.2945
83.6132
83.7687
83.8582
83.9493
84.0875
84.2269
84.3047
84.4969
84.7825
85.0436
85.3017
85.6257
86.0447
86.1836
85.9251
85.1718
83.1369
79.6946
74.9448
68.6972
61.5817
54.401
47.7527
42.0366
37.2579
33.6501
31.4463
30.959
32.6688
37.381
45.4446
55.4847
65.9653
75.8427
84.1633
90.6636
95.6335
99.2187
101.785
103.514
104.572
105.122
105.19
104.789
104.117
103.368
102.463
101.462
100.472
99.5299
98.6154
97.8063
97.1219
96.4782
95.7809
95.073
94.2148
93.4116
93.1894
93.9212
95.3817
97.1414
98.838
99.597
99.1689
98.1129
96.8146
95.559
94.0303
92.0487
90.3303
89.2546
88.6953
89.4903
90.7697
90.5228
87.8249
81.0246
72.1232
63.7057
57.1245
52.5768
50.1102
49.5237
50.153
51.3192
52.8739
54.6183
56.6525
59.185
62.3243
65.8535
69.6419
73.6733
77.9485
82.8459
86.8748
90.5391
93.8833
96.0246
98.5015
100.779
102.634
103.961
104.559
104.814
104.844
104.761
104.611
104.475
104.364
104.064
103.645
103.289
102.817
102.032
101.199
100.36
99.3443
98.3266
97.4074
96.4358
95.5203
94.8129
94.2381
93.7128
93.3392
93.0965
93.0209
93.1198
93.4186
93.9055
94.5243
95.1596
95.9383
96.8117
97.4913
97.727
97.7769
97.6227
97.1581
96.4034
95.3325
94.0392
92.6991
91.1241
89.796
87.788
86.9964
84.8386
84.9021
82.975
83.2772
81.1961
79.8004
78.8972
76.0368
75.0944
74.3907
72.9645
74.6749
75.0891
73.1556
71.0964
73.1728
71.2421
70.8908
66.4332
63.4082
60.5899
57.5724
52.4012
44.1914
74.15
73.5971
71.6851
70.1318
69.1772
68.8663
69.0736
69.4803
70.0142
70.6263
71.2239
71.7854
72.4713
73.1968
73.9069
74.7849
75.6909
76.5939
77.5385
78.4589
79.3549
80.2344
81.0414
81.7832
82.4381
82.9701
83.4511
83.927
84.3117
84.5256
84.7911
85.1687
85.5309
85.8326
86.076
86.5512
87.1208
87.6136
88.2562
88.9415
89.4674
89.5104
88.8598
86.9479
83.181
77.8319
71.1856
63.6038
55.9389
48.7489
42.5095
37.5231
33.7217
31.3389
30.8592
32.7661
37.6637
45.702
55.6422
66.2344
76.2661
84.7069
91.4666
96.5977
100.274
102.861
104.571
105.628
106.177
106.184
105.748
105.197
104.531
103.587
102.652
101.65
100.774
99.9137
99.0369
98.2416
97.5417
96.6348
95.5188
94.1706
92.6437
91.7528
92.1297
93.706
95.7892
97.7537
98.7606
98.4925
97.5977
96.5236
95.5668
94.347
92.5463
91.0709
90.3999
90.1103
91.4413
93.8403
94.4607
92.6027
86.8666
78.3568
69.7614
62.6716
57.5447
54.6232
53.4719
53.4711
54.4446
56.0305
57.7184
59.7186
62.3154
65.2816
68.5983
72.1852
76.1509
80.2651
84.5413
88.2544
91.4403
95.0518
97.0072
99.5446
101.734
103.285
104.356
104.873
105.074
105.173
105.154
105.074
104.973
104.835
104.511
104.117
103.738
103.186
102.403
101.568
100.714
99.6986
98.6826
97.8191
96.9619
96.1001
95.4206
94.8971
94.4097
94.0353
93.8485
93.8216
93.9201
94.1682
94.6568
95.2637
95.9042
96.6897
97.589
98.2035
98.3138
98.0355
97.6139
97.0559
96.3208
95.3244
94.1972
92.9856
91.5752
90.1177
88.2771
87.1043
84.9927
84.96
82.739
84.0478
79.4655
80.3679
78.6276
75.4686
75.2681
74.8064
74.5348
80.8594
78.0274
71.3884
70.5678
72.3648
71.2159
70.7146
66.4897
62.9135
59.4268
56.1166
50.6095
43.7664
73.9145
73.4668
71.9008
70.6199
69.8778
69.6692
69.8393
70.1834
70.6128
71.0345
71.4282
71.9172
72.4205
72.9261
73.5638
74.2749
75.028
75.9155
76.8964
77.7485
78.7437
79.7585
80.5986
81.4393
82.3002
83.0136
83.6433
84.2722
84.8076
85.2218
85.6843
86.2176
86.6822
87.1416
87.6478
88.2057
88.9231
89.6651
90.4509
91.4036
92.1333
92.2698
91.5951
89.5874
85.7987
80.3179
73.5884
65.9509
58.0066
50.5697
44.0392
38.7164
34.8216
32.5254
32.0666
34.4181
39.5754
47.5657
57.3611
67.7904
77.6184
86.0163
92.7784
97.833
101.466
104.004
105.657
106.642
107.138
107.118
106.655
106.083
105.47
104.612
103.36
102.45
101.687
100.997
100.168
99.2715
98.5157
97.658
96.1474
94.0473
91.8407
90.3217
90.4084
91.8641
94.4155
96.7586
97.8368
97.672
96.96
96.1649
95.5876
94.804
93.4616
92.4355
91.9148
91.6935
93.1796
96.259
97.6559
96.4783
91.9847
84.4206
76.1513
68.7525
63.2287
59.7232
57.7473
57.0463
57.7013
59.0898
60.5441
62.5615
65.1387
67.8367
71.1626
74.5963
78.4853
82.3397
86.1087
89.5304
92.5819
95.9229
98.1048
100.624
102.527
103.921
104.744
105.21
105.411
105.513
105.507
105.438
105.338
105.176
104.868
104.511
104.103
103.491
102.735
101.877
100.939
100.003
99.1199
98.213
97.3722
96.6282
95.9292
95.3261
94.902
94.6156
94.4921
94.4683
94.5309
94.649
95.0658
95.7639
96.5583
97.4009
98.2322
98.6652
98.5215
98.0976
97.5553
96.8906
96.0922
95.1829
94.1777
93.0558
91.8009
90.3394
88.7105
87.3724
85.3656
84.8806
82.7825
83.2338
79.1498
81.8265
74.7867
77.665
76.4418
75.3224
76.0521
83.985
78.2074
69.5249
73.6882
71.2719
71.6425
71.5909
67.4645
63.5357
59.6643
54.7734
49.5574
42.5586
73.4762
73.1229
71.9882
71.1219
70.6248
70.5004
70.625
70.83
71.0841
71.3465
71.6108
71.9526
72.3137
72.6749
73.2318
73.8211
74.459
75.3641
76.2262
77.1822
78.2838
79.3159
80.2257
81.2156
82.2493
83.0672
83.8491
84.6472
85.2781
85.8952
86.5022
87.0881
87.7181
88.3337
88.9813
89.6595
90.2881
91.1025
92.063
92.8905
93.566
93.8231
93.0585
90.9754
87.4519
82.3718
75.7696
68.2747
60.4863
53.0163
46.4363
41.001
37.0407
34.9185
35.0659
37.4817
42.7491
50.5971
60.1036
70.1698
79.5958
87.743
94.2894
99.2019
102.698
105.117
106.704
107.617
107.988
107.875
107.495
106.972
106.219
105.34
104.4
103.386
102.337
101.567
101.044
100.292
99.407
98.5104
96.9238
94.2834
91.2963
89.0005
88.4694
90.2009
93.3135
96.0929
97.1864
96.9583
96.3256
95.8083
95.6322
95.2788
94.3311
93.638
93.2873
93.3436
94.8625
97.6577
99.2992
98.4905
94.9821
89.0771
81.9342
74.9238
69.1506
65.0082
62.3356
61.0389
61.1306
62.0306
63.3315
65.3194
67.6006
70.1531
73.4522
76.5668
80.4332
84.1523
87.6506
90.7597
93.8093
96.7435
99.1142
101.472
103.196
104.506
105.245
105.681
105.868
105.901
105.85
105.746
105.621
105.466
105.21
104.873
104.409
103.74
102.96
102.153
101.24
100.284
99.4465
98.6102
97.7522
96.9948
96.3134
95.6976
95.2981
95.0447
94.9494
95.0295
95.0748
95.1298
95.4406
96.0479
96.8833
97.9196
98.656
98.8296
98.4772
97.9406
97.3487
96.6798
95.9198
95.0566
94.0725
92.9857
91.7524
90.3886
88.9716
87.5577
85.9118
85.0458
83.0634
83.1148
79.93
80.5623
75.1872
80.3003
76.9575
74.3525
73.9005
75.7329
76.5769
73.3253
74.8879
71.2947
71.033
71.0171
66.8875
63.7975
59.7253
54.0928
48.9438
41.3649
72.8688
72.6533
72.0914
71.6483
71.3589
71.2473
71.2645
71.3149
71.44
71.5893
71.7166
71.951
72.22
72.5164
73.0007
73.5198
74.1324
74.9969
75.8767
76.8204
77.9418
79.0281
80.0308
81.1237
82.225
83.1592
84.0483
84.9344
85.7175
86.424
87.0774
87.7475
88.4538
89.1776
89.7906
90.4736
91.2838
91.844
92.5064
93.4586
93.8854
93.8426
93.2664
91.5835
88.3084
83.5623
77.5347
70.5616
63.0845
55.7901
49.2545
43.8632
40.0007
38.0986
38.4984
41.2585
46.6145
54.236
63.3099
72.8333
81.789
89.5552
95.8056
100.486
103.834
106.146
107.591
108.381
108.679
108.561
108.098
107.489
106.856
105.864
104.776
103.966
103.12
102.126
101.339
100.793
100.223
99.2854
97.551
94.718
91.2393
88.3715
87.1752
89.2239
92.8637
95.948
97.0071
96.6262
95.8255
95.2601
95.4783
95.4541