/*--------------------------------*- C++ -*----------------------------------*\
| =========                 |                                                 |
| \\      /  F ield         | OpenFOAM: The Open Source CFD Toolbox           |
|  \\    /   O peration     | Version:  2.4.0                                 |
|   \\  /    A nd           | Web:      www.OpenFOAM.org                      |
|    \\/     M anipulation  |                                                 |
\*---------------------------------------------------------------------------*/
FoamFile
{
    version     2.0;
    format      ascii;
    class       volScalarField;
    location    "0.15";
    object      pMean;
}
// * * * * * * * * * * * * * * * * * * * * * * * * * * * * * * * * * * * * * //

dimensions      [0 2 -2 0 0 0 0];

internalField   nonuniform List<scalar> 
8800
(
113.382
100.643
92.9088
89.0877
86.8917
85.1843
83.649
82.198
80.8163
79.4689
78.1495
76.8413
75.5547
74.283
73.0332
71.8085
70.5851
69.3668
68.0953
66.273
110.309
100.291
93.0733
89.199
86.9504
85.2091
83.6561
82.198
80.8141
79.4663
78.1471
76.839
75.5532
74.2808
73.0342
71.8047
70.5938
69.3697
68.1115
66.6686
108.367
100.361
93.6609
89.5651
87.1148
85.287
83.7016
82.2292
80.8365
79.4817
78.1562
76.8436
75.5554
74.2802
73.0349
71.8001
70.6013
69.3758
68.2488
66.9666
106.849
100.416
94.2336
89.9762
87.2948
85.3737
83.7642
82.2847
80.8835
79.5179
78.1817
76.8602
75.5664
74.2862
73.0397
71.802
70.604
69.4017
68.3379
67.3656
105.615
100.384
94.6992
90.3694
87.4601
85.4404
83.8148
82.3421
80.9398
79.5657
78.2169
76.8851
75.5826
74.2975
73.0462
71.8097
70.6069
69.4317
68.3852
67.853
104.643
100.285
95.0584
90.7064
87.6084
85.4846
83.846
82.3884
80.9912
79.6135
78.2525
76.912
75.5978
74.3104
73.0522
71.8205
70.6174
69.4773
68.5061
68.3662
103.896
100.169
95.3225
90.9791
87.7427
85.5128
83.86
82.4225
81.0337
79.6542
78.2843
76.9349
75.612
74.3208
73.0598
71.8324
70.6406
69.5394
68.67
68.7732
103.355
100.065
95.5043
91.185
87.8617
85.5308
83.863
82.4454
81.0661
79.6857
78.3095
76.9528
75.6239
74.3297
73.0704
71.8497
70.6765
69.6113
68.8336
69.0937
103.003
99.9884
95.6176
91.3241
87.9452
85.5423
83.861
82.4594
81.0884
79.7084
78.3273
76.9658
75.6333
74.339
73.083
71.872
70.7184
69.6862
68.9827
69.3437
102.832
99.9462
95.6727
91.3941
87.9882
85.5478
83.8596
82.4662
81.1009
79.7207
78.3381
76.974
75.642
74.3498
73.1002
71.8992
70.7643
69.7599
69.1114
69.5374
102.832
99.9463
95.6725
91.3944
87.9881
85.5483
83.8594
82.4672
81.1017
79.7228
78.3406
76.9786
75.6489
74.3622
73.1199
71.9309
70.8111
69.8323
69.2139
69.684
103.004
99.9878
95.6175
91.3246
87.946
85.5428
83.8616
82.4617
81.0919
79.7142
78.3357
76.9791
75.6548
74.3759
73.1428
71.9655
70.8604
69.9003
69.2936
69.781
103.356
100.064
95.5041
91.186
87.8629
85.5317
83.864
82.4489
81.0717
79.6957
78.3235
76.975
75.6592
74.3903
73.168
72.004
70.9125
69.967
69.3504
69.8203
103.898
100.167
95.3226
90.9802
87.7444
85.5138
83.8621
82.4271
81.0416
79.6676
78.304
76.966
75.6611
74.4046
73.194
72.0461
70.9687
70.0376
69.3905
69.7892
104.646
100.282
95.0593
90.7071
87.6109
85.4852
83.8501
82.3936
81.0019
79.6295
78.2787
76.9511
75.6613
74.4151
73.2204
72.0877
71.0317
70.113
69.4408
69.6775
105.618
100.382
94.7002
90.3703
87.4631
85.4414
83.82
82.3484
80.9529
79.5841
78.249
76.9324
75.6595
74.4216
73.2454
72.1258
71.0985
70.1928
69.5121
69.5052
106.852
100.414
94.2348
89.9771
87.2983
85.3754
83.7701
82.2923
80.8988
79.5382
78.2194
76.9138
75.6564
74.4253
73.2665
72.1563
71.1599
70.2648
69.5983
69.3101
108.37
100.359
93.6623
89.5658
87.1189
85.2892
83.7082
82.2377
80.8537
79.5037
78.1979
76.9016
75.6545
74.4294
73.2816
72.1792
71.2033
70.3187
69.6684
69.1942
110.312
100.289
93.0747
89.1995
86.9547
85.2117
83.663
82.2071
80.832
79.4893
78.1905
76.8998
75.6567
74.4353
73.291
72.1941
71.2248
70.3496
69.6867
69.1339
113.386
100.641
92.9102
89.0882
86.8963
85.1868
83.656
82.2072
80.8342
79.4923
78.1934
76.9026
75.6596
74.4384
73.2948
72.1991
71.2302
70.359
69.6934
69.2407
65.6222
65.541
65.1966
64.6493
63.9702
63.2104
62.4075
61.6203
60.9052
60.2936
59.7803
59.3497
58.9907
58.6946
58.4524
58.2466
58.0524
57.8574
57.6659
57.4801
57.3249
57.2228
57.1906
57.235
57.3428
57.4931
57.6744
57.8727
58.0767
58.2863
58.5012
58.7271
58.9666
59.225
59.5059
59.8197
60.1683
60.5603
60.995
61.4579
61.9477
62.4573
62.9794
63.5125
64.0558
64.5962
65.1326
65.6496
66.1408
66.5941
66.9997
67.3533
67.6495
67.8916
68.0855
68.2361
68.354
68.4455
68.5172
68.5758
68.6262
68.6739
68.7203
68.773
68.8386
68.9274
69.0414
69.1889
69.3712
69.5824
69.8137
70.0648
70.3341
70.6167
70.9011
71.1928
71.4823
71.7618
72.0356
72.2955
72.5406
72.7699
72.9892
73.1832
73.3613
73.5165
73.6537
73.7784
73.8931
73.998
74.0938
74.1924
74.3032
74.4243
74.5607
74.7069
74.8562
74.9911
75.1177
75.2335
75.3218
75.4001
75.4198
75.3698
75.3227
75.3048
75.3222
75.3805
75.4787
75.6093
75.784
75.9951
76.2382
76.5119
76.8107
77.1287
77.4519
77.771
78.0758
78.3614
78.6157
78.8382
79.026
79.1805
79.3018
79.389
79.4506
79.4811
79.488
79.4678
79.4324
79.376
79.3098
79.2237
79.1421
79.0493
78.9655
78.8783
78.79
78.7061
78.6134
78.536
78.4469
78.3814
78.3058
78.2563
78.2025
78.1741
78.1494
78.1529
78.1671
78.2141
78.2757
78.3665
78.4716
78.5978
78.7349
78.8794
79.0312
79.1844
79.3391
79.485
79.6286
79.7521
79.8731
79.9559
80.0397
80.0806
80.1276
80.1334
80.1564
80.1314
80.1412
80.0985
80.104
80.0486
80.0494
79.977
79.9703
79.8733
79.8529
79.7264
79.6744
79.5092
79.3962
79.1758
78.9681
78.6536
78.3188
77.8565
77.3323
76.6286
75.7866
74.6134
73.151
71.0903
68.2098
63.2129
57.4445
31.7326
65.9732
65.756
65.5013
65.0192
64.3718
63.6524
62.9242
62.2316
61.6018
61.0481
60.5713
60.1625
59.8138
59.5221
59.2781
59.0661
58.8725
58.6908
58.5207
58.3651
58.2354
58.1514
58.1251
58.1632
58.2576
58.3915
58.5541
58.7384
58.9337
59.1377
59.3478
59.5658
59.7961
60.0391
60.2972
60.5809
60.8909
61.2371
61.6227
62.0363
62.4731
62.931
63.4004
63.8806
64.3687
64.8557
65.3386
65.8047
66.247
66.6533
67.014
67.3282
67.5892
67.8033
67.9746
68.1089
68.2104
68.2851
68.3389
68.3786
68.4088
68.4357
68.462
68.4923
68.5305
68.589
68.667
68.773
68.9095
69.08
69.2713
69.4786
69.7061
69.9452
70.1829
70.4301
70.6706
70.9076
71.1385
71.362
71.5729
71.7741
71.9656
72.1376
72.3011
72.4467
72.5859
72.7195
72.8467
72.965
73.0843
73.2146
73.3696
73.5363
73.7282
73.9281
74.1322
74.3193
74.5055
74.6787
74.8276
74.9567
75.0089
74.9832
74.9699
74.979
75.0292
75.121
75.2583
75.4259
75.6429
75.8915
76.179
76.4932
76.8345
77.1861
77.5457
77.8974
78.2413
78.5614
78.851
79.102
79.3177
79.4941
79.6364
79.7399
79.8149
79.8535
79.8679
79.8462
79.8142
79.7499
79.6836
79.5817
79.4931
79.3793
79.2835
79.1757
79.078
78.9756
78.8774
78.7777
78.6862
78.5929
78.5147
78.433
78.3751
78.3124
78.2865
78.2594
78.2741
78.2865
78.3437
78.3933
78.4901
78.5725
78.7008
78.8003
78.943
79.0459
79.1895
79.2818
79.4089
79.4787
79.58
79.6106
79.6744
79.6641
79.6936
79.6547
79.6588
79.5991
79.5888
79.5216
79.5041
79.4293
79.3993
79.3105
79.2668
79.1556
79.0939
78.9502
78.8519
78.6619
78.4975
78.2328
77.977
77.579
77.1913
76.5874
75.9515
75.0287
73.9522
72.4448
70.5786
67.635
64.7973
56.2742
49.7096
25.8249
66.3468
66.1059
65.8081
65.322
64.6879
64.0081
63.3527
62.7525
62.2093
61.7206
61.2872
60.9057
60.5746
60.2897
60.045
59.8305
59.6429
59.4768
59.3291
59.2021
59.1029
59.0439
59.0328
59.0727
59.1622
59.2888
59.4434
59.6211
59.8144
60.0163
60.2251
60.4396
60.6634
60.8949
61.1385
61.4006
61.6808
61.9871
62.3265
62.6919
63.077
63.4827
63.8985
64.3257
64.7566
65.1872
65.6087
66.0126
66.39
66.734
67.0361
67.2987
67.5164
67.6952
67.8374
67.9458
68.0263
68.0826
68.1196
68.1433
68.1559
68.1675
68.1794
68.1981
68.2231
68.2623
68.3218
68.4012
68.5039
68.6374
68.7899
68.9551
69.1384
69.3297
69.5237
69.7238
69.9223
70.1227
70.3176
70.5111
70.6942
70.8716
71.0352
71.1937
71.3465
71.4854
71.6279
71.7691
71.9038
72.0347
72.1778
72.3449
72.5391
72.7514
72.9933
73.2442
73.4954
73.7329
73.9728
74.1952
74.3956
74.5609
74.6445
74.6449
74.6708
74.7066
74.7911
74.9159
75.0961
75.3108
75.5803
75.8799
76.2238
76.5886
76.9797
77.372
77.7737
78.1613
78.5451
78.8974
79.2238
79.5022
79.7485
79.9439
80.1119
80.2296
80.3227
80.3655
80.3943
80.3698
80.3492
80.2742
80.2079
80.0917
79.9941
79.8584
79.7469
79.6103
79.4978
79.3703
79.2652
79.1428
79.0444
78.9264
78.838
78.7345
78.6663
78.5883
78.5525
78.5115
78.5141
78.5102
78.5489
78.5779
78.6485
78.7066
78.8034
78.8764
78.983
79.0555
79.1573
79.2154
79.2972
79.3307
79.3814
79.3795
79.3946
79.3548
79.3418
79.2726
79.2426
79.1534
79.1171
79.0171
78.9812
78.8663
78.822
78.6837
78.6274
78.4591
78.3798
78.1734
78.0538
77.7949
77.6073
77.2712
76.9703
76.5009
76.013
75.3133
74.4976
73.3734
72.1786
69.9457
68.6847
63.5151
61.8892
51.0233
42.6988
26.5809
67.0689
66.7555
66.1351
65.4129
64.7219
64.1197
63.6071
63.1639
62.7628
62.3865
62.0315
61.6992
61.3934
61.1171
60.8724
60.6584
60.4753
60.3214
60.194
60.0926
60.021
59.9862
59.9936
60.0439
60.1373
60.2653
60.4204
60.5978
60.7885
60.9871
61.1924
61.4017
61.6145
61.8307
62.0553
62.2908
62.5403
62.8078
63.1014
63.4164
63.7497
64.0972
64.4533
64.8133
65.174
65.5291
65.8739
66.1999
66.5012
66.772
67.0099
67.2184
67.3935
67.5388
67.6558
67.7443
67.8109
67.8557
67.886
67.9054
67.9176
67.9293
67.9401
67.9583
67.9787
68.0083
68.0527
68.1107
68.1828
68.2788
68.3929
68.5142
68.652
68.7995
68.954
69.1129
69.2802
69.4503
69.619
69.7863
69.9452
70.0998
70.2436
70.3937
70.5373
70.6736
70.8195
70.9634
71.1044
71.2488
71.4177
71.6191
71.8545
72.1075
72.3963
72.6829
72.9804
73.2568
73.5531
73.8148
74.0648
74.2578
74.3717
74.3815
74.4323
74.4835
74.6007
74.7537
74.9837
75.2457
75.5779
75.9323
76.3437
76.765
77.2208
77.6606
78.1177
78.5431
78.9746
79.3543
79.7229
80.0213
80.3046
80.512
80.7092
80.8327
80.9503
80.9937
81.0436
81.0157
81.0091
80.9267
80.8616
80.7334
80.6268
80.4677
80.3422
80.1704
80.0424
79.8785
79.7629
79.6087
79.5039
79.3599
79.2687
79.1442
79.0774
78.9834
78.9521
78.893
78.896
78.8675
78.9024
78.8985
78.9592
78.9762
79.0561
79.08
79.165
79.1816
79.2588
79.2527
79.3086
79.2734
79.3002
79.2282
79.224
79.1189
79.0939
78.959
78.9252
78.7708
78.7361
78.5719
78.5373
78.3568
78.3065
78.1049
78.0257
77.8038
77.684
77.431
77.2563
76.9537
76.7057
76.3078
75.9686
75.3551
74.9483
73.8516
73.4455
71.3006
71.1575
67.0447
66.9279
59.9822
57.3408
47.7882
37.7476
27.4491
68.4099
67.8876
66.5367
65.3649
64.5418
64.0299
63.7142
63.4832
63.2671
63.0369
62.7865
62.5222
62.2542
61.9961
61.759
61.5506
61.3744
61.2323
61.1221
61.044
60.9978
60.9872
61.0138
61.0775
61.1775
61.3079
61.4609
61.6332
61.8165
62.0074
62.2027
62.4001
62.5983
62.7984
63.0017
63.2112
63.4287
63.6559
63.8988
64.1563
64.4249
64.7022
64.9832
65.2629
65.5386
65.8045
66.0595
66.2992
66.5225
66.7273
66.9124
67.078
67.2208
67.3435
67.4448
67.5255
67.5914
67.6419
67.682
67.7128
67.7375
67.7594
67.7771
67.7962
67.8159
67.8366
67.8685
67.9095
67.9553
68.0198
68.0976
68.1816
68.2803
68.3933
68.5153
68.6449
68.7867
68.9325
69.0756
69.2173
69.3564
69.4895
69.6218
69.763
69.899
70.0329
70.181
70.3248
70.4689
70.6244
70.818
71.0422
71.3118
71.5992
71.9253
72.2424
72.5779
72.9042
73.2508
73.554
73.8553
74.0711
74.2076
74.2218
74.2825
74.3397
74.4745
74.6572
74.9272
75.2364
75.6286
76.0398
76.5212
77.0053
77.5345
78.0354
78.5596
79.0328
79.5169
79.9248
80.3336
80.6518
80.9699
81.1923
81.4144
81.5436
81.6814
81.7291
81.7981
81.77
81.774
81.6838
81.622
81.4776
81.3738
81.1857
81.0594
80.8413
80.7112
80.4931
80.3758
80.1704
80.0735
79.8883
79.82
79.6595
79.6228
79.4909
79.4916
79.3891
79.4233
79.3415
79.4021
79.3341
79.4142
79.3551
79.4447
79.3829
79.4731
79.3978
79.4764
79.3734
79.4318
79.2949
79.3273
79.1532
79.1614
78.9569
78.9493
78.7201
78.7069
78.4609
78.4502
78.1948
78.1838
77.9044
77.8795
77.5666
77.5229
77.1617
77.1068
76.6531
76.6043
75.9897
75.9939
75.0835
75.2177
73.7804
74.1301
71.9001
72.3433
69.0518
69.1534
64.5918
63.0622
57.3385
52.1727
45.6345
35.9102
28.6386
69.4182
68.8163
67.0207
65.4977
64.4991
63.9878
63.7979
63.7446
63.7077
63.6318
63.5017
63.3229
63.1107
62.8852
62.6658
62.467
62.2997
62.1686
62.0741
62.0148
61.9899
61.9996
62.0431
62.118
62.2227
62.3512
62.4986
62.6604
62.8298
63.0055
63.185
63.3647
63.5452
63.7252
63.9034
64.0835
64.2653
64.4502
64.6409
64.8383
65.0391
65.2419
65.441
65.6351
65.8215
65.9994
66.1684
66.3292
66.482
66.6275
66.7654
66.895
67.0138
67.1231
67.222
67.3112
67.3933
67.4654
67.527
67.5775
67.6169
67.6502
67.6744
67.6974
67.7212
67.7414
67.7687
67.7986
67.8273
67.8663
67.9167
67.9755
68.0467
68.1354
68.2352
68.3449
68.4658
68.5908
68.7105
68.8316
68.9467
69.0621
69.1836
69.3123
69.4365
69.5672
69.7132
69.8565
70.0094
70.1701
70.3852
70.6286
70.9193
71.2322
71.5859
71.9327
72.2945
72.6718
73.0617
73.4082
73.7463
73.9911
74.1384
74.1522
74.2071
74.2551
74.405
74.6126
74.9195
75.2781
75.7311
76.1966
76.747
77.2939
77.9007
78.468
79.0669
79.5971
80.1353
80.5773
81.0229
81.3662
81.7143
81.953
82.197
82.3285
82.4834
82.5331
82.6185
82.5889
82.6005
82.4923
82.4377
82.2777
82.1852
81.9755
81.8554
81.5987
81.4668
81.1956
81.0706
80.8133
80.7198
80.4907
80.4422
80.2442
80.2417
80.068
80.1044
79.9447
80.0139
79.8626
79.9572
79.8031
79.9169
79.7526
79.8765
79.6913
79.8206
79.6061
79.7339
79.4782
79.5992
79.2937
79.4067
79.0504
79.1605
78.7564
78.8733
78.4274
78.561
78.0785
78.2358
77.7175
77.8957
77.3186
77.5135
76.8621
77.0832
76.3297
76.5927
75.6891
76.0062
74.8862
75.2671
73.8358
74.2417
72.3796
72.63
70.3135
69.9633
67.2349
65.725
62.501
59.2651
55.3428
49.4915
45.0478
36.8715
30.5066
70.1117
69.5129
67.5051
65.7566
64.6072
64.0473
63.9173
63.9912
64.1019
64.1654
64.1546
64.0696
63.923
63.737
63.5388
63.3508
63.1901
63.0651
62.9804
62.9361
62.9288
62.9563
63.0149
63.1002
63.2095
63.3368
63.4779
63.6288
63.7838
63.9424
64.1007
64.2567
64.4136
64.5678
64.7172
64.865
65.0107
65.1532
65.2936
65.4318
65.5658
65.6937
65.8138
65.9251
66.0278
66.124
66.217
66.3093
66.4027
66.4977
66.5952
66.6953
66.7988
66.9058
67.0152
67.126
67.235
67.334
67.4207
67.4915
67.5471
67.5927
67.6267
67.6571
67.6863
67.7089
67.731
67.7531
67.7735
67.7993
67.8368
67.8816
67.9396
68.0125
68.0974
68.1922
68.299
68.4098
68.5185
68.6242
68.7246
68.8318
68.9438
69.0554
69.1693
69.2925
69.4319
69.5671
69.7244
69.8886
70.1159
70.3822
70.6929
71.0265
71.4038
71.7766
72.1689
72.5883
73.0051
73.4008
73.7604
74.0111
74.1489
74.1727
74.1947
74.2224
74.3804
74.6028
74.9523
75.3667
75.8929
76.4266
77.0432
77.6526
78.3264
78.9571
79.6213
80.2144
80.8063
81.2905
81.7738
82.1468
82.5199
82.7754
83.0358
83.1715
83.3374
83.3907
83.48
83.4486
83.4525
83.3294
83.2717
83.1029
83.0138
82.7997
82.68
82.4106
82.2636
81.9595
81.8069
81.5128
81.4006
81.1464
81.0924
80.8712
80.8678
80.6719
80.7085
80.5189
80.5834
80.3902
80.4747
80.2679
80.3667
80.1378
80.2451
79.9837
80.0951
79.7969
79.9082
79.5644
79.6726
79.2763
79.3838
78.9303
79.0443
78.5339
78.6625
78.1055
78.2566
77.6569
77.8281
77.1877
77.3683
76.6647
76.848
76.0703
76.2532
75.3875
75.5678
74.5874
74.7417
73.6267
73.6992
72.4258
72.278
70.8187
70.223
68.5224
67.263
65.1875
63.1464
60.6645
57.3052
54.5912
49.5378
45.882
39.1812
33.0636
70.5626
70.0037
67.9354
66.085
64.8541
64.2446
64.1287
64.2756
64.4875
64.6551
64.7395
64.7347
64.6484
64.504
64.3315
64.1586
64.0067
63.89
63.8155
63.784
63.7905
63.8321
63.9028
63.9965
64.1101
64.2364
64.3713
64.5123
64.6539
64.7954
64.9339
65.0677
65.1994
65.3259
65.4457
65.5588
65.6651
65.7632
65.8517
65.9304
65.9985
66.0546
66.0999
66.1353
66.1643
66.1904
66.2183
66.2516
66.2932
66.3466
66.4142
66.4981
66.5994
66.7164
66.8453
66.9837
67.1232
67.2516
67.3652
67.4592
67.533
67.5918
67.6356
67.6721
67.704
67.7296
67.7525
67.7766
67.7983
67.8229
67.8543
67.8933
67.9421
68.0075
68.0869
68.178
68.2798
68.3879
68.4931
68.589
68.684
68.7856
68.8863
68.9808
69.0858
69.197
69.3417
69.4679
69.6279
69.7986
70.029
70.3102
70.6377
71.0006
71.3886
71.7823
72.2013
72.6433
73.0888
73.5132
73.8932
74.1571
74.2756
74.2859
74.2556
74.2799
74.4336
74.6581
75.0398
75.5061
76.0992
76.7108
77.401
78.0806
78.8106
79.5049
80.2278
80.8865
81.531
82.0637
82.5832
82.9899
83.3828
83.6544
83.9183
84.0609
84.2271
84.2864
84.3686
84.3294
84.3162
84.18
84.113
83.9402
83.8509
83.6332
83.5173
83.2395
83.0832
82.7599
82.5789
82.2622
82.1214
81.852
81.7745
81.5479
81.5199
81.3157
81.3242
81.1224
81.1546
80.9401
80.9829
80.7457
80.795
80.5307
80.5832
80.2825
80.3345
79.9964
80.0419
79.6609
79.698
79.272
79.3027
78.8269
78.8602
78.3315
78.3755
77.8002
77.86
77.2429
77.3088
76.6485
76.7089
75.9861
76.0259
75.2367
75.2233
74.3851
74.2915
73.3909
73.1999
72.2281
71.9014
70.8377
70.3011
69.1074
68.2583
66.7639
65.4851
63.7234
61.8063
59.9001
56.9055
54.7345
50.4464
46.8526
41.2327
35.4757
70.8815
70.3627
68.3016
66.4175
65.1484
64.5038
64.3855
64.5733
64.8544
65.1003
65.26
65.3235
65.295
65.1942
65.0512
64.8981
64.7607
64.6548
64.5893
64.5665
64.5824
64.633
64.7116
64.8107
64.9258
65.0505
65.1803
65.3121
65.4413
65.5669
65.6874
65.8006
65.9064
66.0048
66.0939
66.1713
66.2354
66.2861
66.3222
66.3427
66.3467
66.3356
66.3121
66.2801
66.2437
66.2077
66.1773
66.1579
66.1563
66.1782
66.2268
66.304
66.4109
66.5444
66.6997
66.8711
67.0454
67.2106
67.3581
67.4799
67.5766
67.6521
67.708
67.7525
67.7916
67.8236
67.8539
67.8862
67.916
67.945
67.9779
68.0162
68.0657
68.1328
68.2144
68.3084
68.4113
68.5193
68.6229
68.714
68.8046
68.8963
68.9888
69.0724
69.1618
69.2671
69.4241
69.5451
69.7292
69.8957
70.1408
70.4281
70.7824
71.1645
71.5677
71.9559
72.3897
72.8361
73.3036
73.7321
74.1257
74.4186
74.538
74.5152
74.4566
74.4872
74.6299
74.8672
75.2672
75.7583
76.4044
77.0693
77.8273
78.5688
79.3569
80.1088
80.8922
81.6132
82.3133
82.8944
83.453
83.8894
84.303
84.5803
84.8429
84.9863
85.1489
85.2053
85.2759
85.2167
85.1884
85.0303
84.9602
84.7758
84.6893
84.4628
84.3577
84.0595
83.9123
83.5641
83.375
83.0472
82.8876
82.6052
82.4958
82.2548
82.1998
81.9779
81.9565
81.7249
81.7275
81.4719
81.4831
81.1959
81.2094
80.8912
80.9032
80.5498
80.5547
80.1675
80.1574
79.7318
79.7073
79.2425
79.2063
78.7012
78.6562
78.1159
78.0566
77.4908
77.4176
76.83
76.7353
76.125
75.9953
75.3418
75.169
74.4625
74.2164
73.5053
73.1325
72.4251
71.9481
71.2086
70.639
69.8411
69.1488
68.2623
67.4036
66.1849
64.9268
63.5544
61.6453
60.1301
57.3738
55.2151
51.4171
47.7288
42.8562
37.6001
71.1178
70.631
68.5998
66.7215
65.4515
64.805
64.6991
64.9214
65.2526
65.5527
65.7645
65.8762
65.8904
65.8232
65.7062
65.5726
65.4505
65.3568
65.3009
65.2864
65.3102
65.3674
65.4513
65.5541
65.6697
65.7923
65.9165
66.0388
66.1564
66.2669
66.3694
66.4615
66.5421
66.6116
66.6679
66.7076
66.73
66.7337
66.7175
66.6813
66.6258
66.5537
66.4682
66.3744
66.2769
66.1839
66.1039
66.0429
66.0082
66.0077
66.0444
66.1216
66.2404
66.3966
66.5855
66.797
67.0158
67.2248
67.4104
67.565
67.6873
67.7804
67.8501
67.9067
67.9557
67.9975
68.0397
68.0837
68.1265
68.1678
68.2125
68.2621
68.322
68.3957
68.4843
68.5832
68.6901
68.8012
68.905
68.993
69.079
69.1632
69.2513
69.3207
69.405
69.5056
69.6816
69.7992
70.0166
70.1789
70.4481
70.7332
71.1367
71.5353
71.9538
72.3149
72.7594
73.195
73.6548
74.0612
74.4684
74.7808
74.9219
74.887
74.8155
74.8333
74.9722
75.2244
75.6387
76.1501
76.8344
77.5356
78.3434
79.1396
79.9838
80.7949
81.6271
82.4029
83.1513
83.7763
84.3722
84.8336
85.2629
85.5472
85.801
85.9462
86.0961
86.1408
86.1971
86.105
86.0716
85.8768
85.82
85.605
85.5365
85.2721
85.1873
84.8514
84.7377
84.354
84.1926
83.833
83.6862
83.3812
83.2639
82.99
82.9153
82.6515
82.614
82.334
82.3222
82.0106
82.0075
81.6621
81.6545
81.2828
81.2649
80.8652
80.8308
80.4035
80.3446
79.8859
79.8063
79.3127
79.2196
78.6833
78.5784
78.0097
77.8741
77.304
77.1348
76.5711
76.3648
75.7988
75.5465
74.9435
74.6677
74.0104
73.6838
73.0282
72.5804
71.9911
71.4239
70.8633
70.2311
69.6639
68.9684
68.3603
67.4925
66.4985
65.1307
63.9757
61.9763
60.5607
57.9217
55.6071
52.1644
48.4918
44.1459
39.4494
71.2938
70.828
68.8297
66.9869
65.7501
65.1348
65.059
65.3122
65.6741
66.0041
66.2442
66.3827
66.4227
66.3806
66.2884
66.1785
66.077
66.0018
65.9612
65.9591
65.9923
66.0563
66.1451
66.2497
66.3636
66.4819
66.5985
66.7096
66.8133
66.9074
66.9908
67.0606
67.1158
67.1557
67.1786
67.1812
67.1612
67.1188
67.0542
66.9667
66.8581
66.7308
66.5899
66.4411
66.2914
66.1501
66.0269
65.9309
65.8731
65.8611
65.8974
65.983
66.1179
66.2998
66.5237
66.7772
67.0408
67.2948
67.523
67.7161
67.8687
67.985
68.0751
68.1487
68.2113
68.2695
68.3279
68.3869
68.4433
68.4991
68.5588
68.6251
68.7012
68.7897
68.8896
68.9959
69.1088
69.2257
69.3345
69.4249
69.5089
69.5901
69.6783
69.7382
69.8279
69.9241
70.1268
70.2586
70.5097
70.6556
70.9867
71.2605
71.7275
72.1332
72.5608
72.8651
73.3353
73.7419
74.1863
74.5364
74.973
75.2953
75.4707
75.4388
75.3736
75.3538
75.5045
75.7421
76.1647
76.6863
77.3954
78.1023
78.9728
79.7929
80.7106
81.5523
82.4588
83.2505
84.06
84.7014
85.3484
85.8071
86.2739
86.542
86.8159
86.9311
87.092
87.0836
87.1462
86.9888
86.974
86.7058
86.6999
86.4225
86.4026
86.0753
86.018
85.6165
85.5511
85.1252
85.0413
84.6452
84.5528
84.176
84.1005
83.7542
83.7078
83.3679
83.3429
82.9909
82.9847
82.6076
82.6071
82.2007
82.1891
81.7596
81.7281
81.28
81.2233
80.7562
80.6723
80.1799
80.0744
79.5529
79.4298
78.876
78.7307
78.1539
77.9806
77.3993
77.1938
76.6281
76.377
75.8282
75.5375
74.9719
74.6762
74.0755
73.7498
73.1546
72.7193
72.2045
71.648
71.2259
70.573
70.2032
69.4549
69.0595
68.0364
67.0768
65.5798
64.3909
62.398
60.874
58.3551
55.863
52.6863
49.1874
45.2553
41.0632
71.4061
70.9542
68.9953
67.2146
66.0429
65.4907
65.4657
65.7504
66.1282
66.4674
66.7165
66.8662
66.9203
66.8974
66.828
66.7428
66.6658
66.6129
66.5911
66.6031
66.6463
66.7158
66.8056
66.9083
67.0171
67.1272
67.233
67.3318
67.4206
67.4977
67.5612
67.6084
67.6372
67.647
67.6359
67.6008
67.5407
67.4569
67.3502
67.2206
67.0675
66.8934
66.7048
66.5087
66.3135
66.1309
65.9736
65.8555
65.7875
65.7745
65.8181
65.9196
66.0773
66.2877
66.5416
66.8287
67.1322
67.4329
67.7072
67.9391
68.126
68.2735
68.3911
68.4884
68.573
68.652
68.7289
68.8015
68.8686
68.9352
69.0075
69.0879
69.1778
69.2798
69.3883
69.5001
69.6158
69.7424
69.8643
69.9712
70.0661
70.1589
70.2555
70.324
70.4254
70.5392
70.7639
70.926
71.196
71.3507
71.7598
72.0054
72.5376
72.9164
73.3443
73.5666
74.0698
74.4263
74.8626
75.1411
75.6374
75.9527
76.1947
76.1704
76.1343
76.0547
76.2291
76.4153
76.8662
77.3652
78.084
78.7791
79.7076
80.5126
81.5227
82.3546
83.3576
84.1257
85.0256
85.6456
86.3714
86.8003
87.3255
87.5523
87.8729
87.9316
88.1173
88.0383
88.0944
87.8813
87.8647
87.5448
87.5787
87.2381
87.247
86.8773
86.8124
86.4012
86.3545
85.9045
85.8853
85.4712
85.4463
85.0355
84.9933
84.5803
84.5512
84.15
84.1335
83.7207
83.7155
83.2786
83.2708
82.811
82.7861
82.3153
82.2658
81.7941
81.7125
81.2418
81.123
80.6472
80.4954
80.0034
79.8239
79.3168
79.1017
78.5981
78.3405
77.8577
77.5543
77.1043
76.7493
76.3388
75.9434
75.5388
75.1424
74.6982
74.3023
73.8427
73.3528
72.9345
72.3254
71.9854
71.2542
70.9743
70.0819
69.7678
68.5487
67.4732
65.9488
64.5934
62.7011
60.9943
58.5853
56.0566
53.1002
49.8415
46.2593
42.4725
71.4376
70.9925
69.0958
67.4159
66.346
65.8899
65.9311
66.2403
66.615
66.9415
67.1789
67.3213
67.3763
67.365
67.3165
67.2578
67.2091
67.1819
67.1821
67.2105
67.2648
67.3399
67.4301
67.5294
67.6314
67.7318
67.8267
67.912
67.9854
68.0447
68.0873
68.1105
68.1124
68.0915
68.0473
67.9786
67.8853
67.7678
67.6261
67.4596
67.2682
67.0554
66.8272
66.5924
66.3633
66.1534
65.9793
65.8548
65.7868
65.7819
65.8434
65.9685
66.1542
66.396
66.6846
67.007
67.3467
67.6841
67.9975
68.2703
68.4917
68.6653
68.8058
68.9268
69.0383
69.1436
69.2419
69.3307
69.4126
69.4938
69.5813
69.6749
69.7776
69.8871
70.0008
70.117
70.2362
70.3658
70.4993
70.6229
70.7329
70.8448
70.9583
71.0486
71.1693
71.3337
71.5891
71.7919
72.064
72.2802
72.7337
72.9663
73.5244
73.845
74.2256
74.3794
74.9162
75.1991
75.635
75.8711
76.4528
76.736
77.0763
77.0463
77.0573
76.9202
77.1172
77.2352
77.7288
78.1641
78.9126
79.576
80.5365
81.3154
82.3993
83.1989
84.2923
85.0273
86.0196
86.6101
87.4224
87.8079
88.402
88.5657
88.9493
88.9274
89.1569
88.9778
89.0461
88.756
88.7298
88.3665
88.4192
88.0475
88.0794
87.6841
87.6041
87.2111
87.1369
86.7241
86.7456
86.3162
86.3294
85.9116
85.883
85.4597
85.4098
84.9873
84.9381
84.5062
84.4538
84.0086
83.9451
83.4996
83.4151
82.983
82.8652
82.4574
82.2897
81.904
81.684
81.311
81.0483
80.6735
80.371
79.9963
79.6464
79.2933
78.8923
78.5754
78.1329
77.8637
77.3775
77.1593
76.6324
76.4343
75.8769
75.6526
75.0626
74.7663
74.1145
73.7869
73.0721
72.7303
71.9227
71.5955
70.5893
70.2312
68.8247
67.6576
66.2485
64.6422
62.8853
61.0352
58.7307
56.2793
53.498
50.4625
47.1772
43.7122
71.335
70.9013
69.1293
67.6166
66.6964
66.3649
66.47
66.7836
67.1295
67.419
67.6243
67.7443
67.7921
67.7904
67.7648
67.7363
67.7189
67.7208
67.7452
67.7912
67.856
67.935
68.023
68.1154
68.2075
68.2954
68.3758
68.4449
68.4994
68.537
68.5556
68.5522
68.525
68.4743
68.4013
68.3058
68.1858
68.0426
67.8761
67.6834
67.465
67.2251
66.9683
66.7085
66.4659
66.2534
66.0795
65.9571
65.9001
65.9153
66.0001
66.1516
66.369
66.6467
66.9717
67.3298
67.7074
68.0844
68.4376
68.7451
68.9935
69.1875
69.3473
69.4906
69.6271
69.7571
69.8784
69.9895
70.093
70.1974
70.3075
70.4213
70.5346
70.6478
70.7643
70.8872
71.0151
71.1508
71.292
71.4272
71.5528
71.6866
71.8129
71.9295
72.0664
72.2908
72.5521
72.8066
73.0882
73.411
73.8638
74.0932
74.6286
74.8792
75.1692
75.3471
75.8856
76.097
76.4972
76.7457
77.3748
77.6373
78.0666
78.0481
78.1004
77.9146
78.1141
78.1682
78.674
79.0402
79.8048
80.4292
81.4005
82.1703
83.2818
84.068
85.2103
85.9297
86.9844
87.568
88.425
88.7921
89.4179
89.5358
89.9512
89.8696
90.1028
89.8667
89.918
89.6074
89.5461
89.1826
89.2141
88.8373
88.8671
88.4998
88.3848
88.0631
87.9131
87.5546
87.5445
87.1616
87.1793
86.7938
86.7457
86.356
86.2511
85.8646
85.7288
85.3422
85.1833
84.8166
84.6238
84.2971
84.0709
83.7824
83.5118
83.2544
82.933
82.692
82.3298
82.0925
81.6982
81.4569
81.0259
80.786
80.3127
80.0925
79.5756
79.3865
78.8327
78.6828
78.1077
77.9952
77.3905
77.2866
76.6473
76.5042
75.8064
75.5924
74.784
74.5014
73.64
73.2731
72.37
71.9197
70.8272
70.4524
69.0603
67.7476
66.4091
64.6689
63.0323
61.1027
58.9194
56.5429
53.8948
51.0517
48.0096
44.7975
70.9963
70.6042
69.0934
67.8519
67.1421
66.9417
67.0847
67.3673
67.6527
67.8807
68.0366
68.1255
68.1639
68.1729
68.1714
68.173
68.1862
68.215
68.2595
68.318
68.388
68.4651
68.5458
68.6269
68.705
68.7767
68.8393
68.8896
68.924
68.9396
68.9344
68.9062
68.8541
68.779
68.6828
68.5665
68.4294
68.2709
68.0914
67.8862
67.6552
67.407
67.1501
66.8931
66.6524
66.4504
66.3015
66.2086
66.1792
66.2205
66.3333
66.5191
66.776
67.0913
67.4481
67.8378
68.2502
68.6657
69.0552
69.3898
69.6598
69.8763
70.0603
70.231
70.3948
70.5456
70.6838
70.8142
70.942
71.0714
71.2052
71.3354
71.4577
71.571
71.6855
71.8157
71.9545
72.0939
72.2409
72.3867
72.5338
72.6933
72.8442
72.9942
73.1553
73.4277
73.6487
73.9617
74.24
74.6393
75.0486
75.3156
75.7815
75.9255
76.1263
76.4278
76.9226
77.0775
77.3976
77.7791
78.3599
78.6275
79.0613
79.0852
79.1502
79.029
79.1564
79.2121
79.6545
79.9868
80.705
81.3012
82.2335
83.0348
84.0832
84.9424
86.0211
86.8404
87.8372
88.5086
89.2981
89.7295
90.2987
90.4269
90.795
90.7166
90.8995
90.6369
90.6913
90.3455
90.2956
89.9757
89.9266
89.6419
89.5948
89.285
89.1644
88.9058
88.6878
88.4407
88.3008
87.9348
87.9465
87.5763
87.5177
87.1658
87.0161
86.6842
86.4574
86.1602
85.865
85.632
85.2853
85.0978
84.7279
84.5597
84.1658
84.0061
83.5861
83.431
82.9837
82.8272
82.3528
82.1899
81.6859
81.5218
80.9841
80.8299
80.2564
80.1222
79.5089
79.3985
78.7743
78.6725
78.0415
77.9303
77.2716
77.1003
76.3834
76.1169
75.2854
74.9359
74.0063
73.5727
72.5742
72.0805
71.0297
70.5375
68.9901
67.7047
66.6366
64.8792
63.2582
61.3005
59.2085
56.8634
54.3205
51.6332
48.7854
45.7775
70.3924
70.0885
69.0199
68.1643
67.7042
67.6074
67.7328
67.936
68.13
68.2805
68.3817
68.4417
68.4747
68.4959
68.5167
68.5436
68.5807
68.628
68.6839
68.7471
68.8147
68.8841
68.9536
69.0212
69.0839
69.1393
69.1857
69.2196
69.2377
69.2361
69.2113
69.163
69.0924
68.9999
68.8872
68.759
68.6198
68.4649
68.2867
68.0854
67.867
67.6331
67.3959
67.1712
66.9674
66.7967
66.6794
66.6314
66.6545
66.74
66.8917
67.1253
67.4331
67.791
68.185
68.6071
69.047
69.4815
69.8832
70.2308
70.5227
70.7713
70.9892
71.1866
71.3683
71.5353
71.6913
71.8382
71.9834
72.1331
72.2817
72.4181
72.5401
72.6554
72.7766
72.9122
73.0499
73.1848
73.3285
73.4803
73.6434
73.8239
74.0037
74.189
74.372
74.6878
74.8371
75.2271
75.4714
75.878
76.2061
76.5781
76.8695
76.9691
77.1446
77.5056
77.854
78.0504
78.3638
78.8823
79.3166
79.6404
79.9929
80.1296
80.1991
80.2147
80.2284
80.3614
80.6267
80.9954
81.5445
82.2004
83.0001
83.8854
84.8091
85.809
86.7556
87.728
88.5917
89.4032
90.0279
90.6047
91.0046
91.2326
91.4408
91.471
91.4827
91.3518
91.2571
91.0705
90.9039
90.7452
90.5472
90.4243
90.2002
90.0571
89.8219
89.6712
89.3904
89.262
88.9475
88.7777
88.5775
88.3158
88.1687
87.8691
87.6595
87.3851
87.0743
86.8624
86.4692
86.3136
85.8891
85.7612
85.3241
85.2057
84.7502
84.637
84.1627
84.0519
83.5584
83.4415
82.9241
82.7975
82.2569
82.1261
81.5638
81.4234
80.8374
80.6903
80.0705
79.9316
79.2955
79.1584
78.5188
78.338
77.6952
77.4332
76.7504
76.3892
75.5941
75.1333
74.26
73.743
72.7449
72.1466
71.05
70.2967
69.0002
67.9625
66.7617
65.1338
63.4822
61.5666
59.5358
57.226
54.79
52.2284
49.5261
46.672
69.7014
69.5391
69.0028
68.5594
68.3156
68.2531
68.3032
68.3979
68.4944
68.5729
68.6297
68.6699
68.7019
68.7339
68.7706
68.8139
68.8643
68.9199
68.9786
69.0393
69.1
69.1596
69.2176
69.2729
69.3234
69.3666
69.4002
69.421
69.4263
69.4124
69.3748
69.3128
69.2313
69.1359
69.0265
68.899
68.7599
68.6151
68.4608
68.2838
68.0902
67.9001
67.7163
67.5347
67.3736
67.2651
67.2188
67.2346
67.3139
67.4552
67.6706
67.9667
68.3271
68.7303
69.166
69.6236
70.0863
70.5304
70.937
71.2917
71.5903
71.8417
72.0647
72.2707
72.4577
72.6234
72.779
72.9344
73.0908
73.2451
73.3923
73.5326
73.6688
73.8001
73.9326
74.0719
74.2056
74.3352
74.4723
74.6231
74.7981
74.9906
75.1834
75.3927
75.593
75.9544
76.0754
76.5111
76.696
77.1045
77.3221