/*--------------------------------*- C++ -*----------------------------------*\
| =========                 |                                                 |
| \\      /  F ield         | OpenFOAM: The Open Source CFD Toolbox           |
|  \\    /   O peration     | Version:  2.4.0                                 |
|   \\  /    A nd           | Web:      www.OpenFOAM.org                      |
|    \\/     M anipulation  |                                                 |
\*---------------------------------------------------------------------------*/
FoamFile
{
    version     2.0;
    format      ascii;
    class       surfaceScalarField;
    location    "84";
    object      phi;
}
// * * * * * * * * * * * * * * * * * * * * * * * * * * * * * * * * * * * * * //

dimensions      [0 3 -1 0 0 0 0];

internalField   nonuniform List<scalar> 
8640
(
0.000577829
-9.03295e-05
0.000523007
5.48226e-05
0.000355188
0.000167819
0.000497807
-0.000142619
0.000527905
-3.00985e-05
0.000497012
3.08929e-05
0.000543058
-4.6046e-05
0.000435678
0.00010738
0.00047291
-3.72316e-05
0.00053297
-6.006e-05
0.000478726
5.42437e-05
0.000512249
-3.3523e-05
0.000503381
8.86853e-06
0.000492533
1.08478e-05
0.000490414
2.11856e-06
0.00055712
-6.67061e-05
0.000481804
7.5316e-05
0.000527555
-4.57505e-05
0.00020184
0.000325715
-0.000415103
0.000616943
0.00148124
-0.000184068
0.00139282
0.000143244
0.00123278
0.000327861
0.00142671
-0.000336556
0.00142146
-2.48459e-05
0.0014157
3.66579e-05
0.00143342
-6.37669e-05
0.00133309
0.000207709
0.0013923
-9.64428e-05
0.0014441
-0.000111864
0.00138068
0.000117668
0.00142721
-8.00568e-05
0.00139615
3.99268e-05
0.00140611
8.88972e-07
0.00139552
1.27075e-05
0.00147077
-0.000141954
0.00134521
0.000200875
0.00145191
-0.000152446
0.00139599
0.000381631
-0.000449254
0.00143014
0.00225544
-0.000252008
0.00218126
0.000217424
0.00208463
0.000424488
0.00225229
-0.000504215
0.00223462
-7.17608e-06
0.00225895
1.23307e-05
0.0022321
-3.69187e-05
0.002173
0.000266809
0.00221909
-0.000142529
0.00225752
-0.000150301
0.00221649
0.000158699
0.00224793
-0.000111489
0.00222941
5.84423e-05
0.00222351
6.79089e-06
0.00224723
-1.10184e-05
0.00227263
-0.000167351
0.00223086
0.000242648
0.00228741
-0.000209
0.0024145
0.000254539
-0.000379242
0.00234449
0.00293195
-0.000296461
0.00281268
0.000336692
0.00283217
0.000405001
0.00297568
-0.000647723
0.00294392
2.45869e-05
0.00303147
-7.5225e-05
0.00295071
4.38393e-05
0.00290455
0.000312973
0.00295679
-0.000194768
0.00294389
-0.000137404
0.00295885
0.000143737
0.00296981
-0.000122447
0.00298197
4.62854e-05
0.00294233
4.64251e-05
0.00301786
-8.65454e-05
0.00298755
-0.000137036
0.00298276
0.000247433
0.0030492
-0.000275435
0.00314994
0.000153792
-0.000248704
0.00301941
0.00356928
-0.000378237
0.00332108
0.000584885
0.003394
0.000332089
0.00355359
-0.000807317
0.00348149
9.66868e-05
0.00366491
-0.000258642
0.00358259
0.000126153
0.00350812
0.000387448
0.00359391
-0.000280559
0.00351157
-5.5067e-05
0.00354607
0.000109242
0.00354814
-0.000124516
0.00358655
7.87466e-06
0.00352458
0.000108396
0.00362721
-0.000189175
0.00359517
-0.000104998
0.00356062
0.000281984
0.00365076
-0.000365578
0.00373362
7.09352e-05
-7.4989e-05
0.0035599
0.00413218
-0.000522912
0.0038
0.000917062
0.0038296
0.000302484
0.00401221
-0.000989925
0.00387851
0.000230392
0.0041048
-0.000484938
0.00407425
0.000156706
0.00397659
0.000485109
0.00410239
-0.000406357
0.00398744
5.98781e-05
0.00400696
8.97194e-05
0.00399396
-0.000111512
0.00403581
-3.39755e-05
0.00396583
0.000178376
0.00406101
-0.000284352
0.00406068
-0.000104667
0.0040008
0.000341856
0.00410696
-0.000471734
0.00416418
1.37124e-05
7.78942e-05
0.0040113
0.00455824
-0.000693647
0.00423176
0.00124353
0.00421375
0.000320501
0.00439751
-0.00117369
0.00422412
0.000403775
0.00442521
-0.000686022
0.00443274
0.000149175
0.00432591
0.000591934
0.00447076
-0.000551199
0.00436178
0.000168855
0.0043739
7.76013e-05
0.00435478
-9.23993e-05
0.00438139
-6.0583e-05
0.00431441
0.000245361
0.00437982
-0.00034976
0.00440197
-0.000126825
0.00433021
0.000413615
0.00444651
-0.000588028
0.00446516
-4.94417e-06
0.000168722
0.00437434
0.00484154
-0.000847687
0.0045743
0.00151077
0.00453715
0.00035766
0.00469095
-0.00132749
0.00452741
0.000567313
0.00467363
-0.000832235
0.00469192
0.00013088
0.00458832
0.000695534
0.00471917
-0.000682051
0.00463072
0.000257309
0.00464099
6.73292e-05
0.00462922
-8.06272e-05
0.00463897
-7.03332e-05
0.00458983
0.000294495
0.00462158
-0.000381509
0.00465243
-0.000157674
0.00457696
0.000489083
0.00468802
-0.000699087
0.0046708
1.22763e-05
0.0002001
0.00463942
0.00499633
-0.00095652
0.00481268
0.00169442
0.00477869
0.000391655
0.00487057
-0.00141938
0.00476226
0.000675626
0.00484463
-0.000914604
0.00486143
0.000114076
0.00477619
0.000780771
0.00486686
-0.000772721
0.00480431
0.000319862
0.00481003
6.16082e-05
0.00480798
-7.85719e-05
0.00480294
-6.52987e-05
0.00478135
0.000316085
0.0047856
-0.000385755
0.00481611
-0.000188186
0.0047531
0.000552096
0.0048375
-0.00078349
0.00480193
4.7849e-05
0.000191045
0.00481098
0.00503385
-0.00100287
0.00494902
0.00177925
0.00492853
0.00041215
0.00493766
-0.00142851
0.00491444
0.000698854
0.00492795
-0.000928118
0.00494054
0.000101486
0.0048874
0.000833912
0.00492264
-0.000807963
0.00488982
0.000352687
0.00488939
6.20308e-05
0.00489359
-8.27684e-05
0.00487621
-4.79209e-05
0.00488248
0.000309817
0.00486775
-0.00037102
0.0048881
-0.000208537
0.00485735
0.000582844
0.00489593
-0.000822074
0.00486332
8.04603e-05
0.000160785
0.00489358
0.00496138
-0.00097675
0.00498489
0.00175574
0.00498164
0.0004154
0.0049146
-0.00136147
0.00497275
0.0006407
0.0049204
-0.000875773
0.00492515
9.67417e-05
0.00491762
0.000841436
0.00488847
-0.000778805
0.00489116
0.000349988
0.00488312
7.00776e-05
0.00489135
-9.10032e-05
0.00486474
-2.13076e-05
0.00489555
0.000279007
0.00486721
-0.00034268
0.00487117
-0.0002125
0.0048841
0.000569922
0.00486569
-0.000803671
0.00485149
9.46607e-05
0.000123836
0.00488844
0.00478977
-0.000879024
0.00491795
0.00162756
0.00494
0.000393354
0.00480891
-0.00123039
0.00493002
0.000519587
0.0048194
-0.000765148
0.00481563
0.000100514
0.00485565
0.000801415
0.00476851
-0.000691669
0.00480517
0.000313329
0.00479475
8.04964e-05
0.00480219
-9.84386e-05
0.0047749
5.98344e-06
0.00482301
0.000230899
0.00478385
-0.000303526
0.00477086
-0.000199507
0.0048257
0.000515085
0.00475025
-0.000728224
0.00476101
8.3896e-05
8.8984e-05
0.00479586
0.00453322
-0.000724747
0.00475794
0.00140285
0.00479469
0.000356605
0.0046187
-0.0010544
0.00478027
0.000358019
0.00461992
-0.000604805
0.00461349
0.000106949
0.00468777
0.000727129
0.0045638
-0.000567695
0.00462833
0.000248795
0.00462556
8.32684e-05
0.0046276
-0.000100472
0.00460951
2.4069e-05
0.00466485
0.000175556
0.00461451
-0.000253187
0.0045899
-0.000174896
0.00467284
0.00043215
0.00455329
-0.000608672
0.00458757
4.96098e-05
5.96235e-05
0.00461693
0.00420812
-0.000545367
0.00451342
0.00109755
0.00453702
0.000333004
0.00434571
-0.000863086
0.0045142
0.000189523
0.00431697
-0.000407567
0.00431723
0.000106683
0.00441066
0.000633705
0.00427826
-0.000435298
0.00436917
0.000157879
0.00437804
7.43992e-05
0.00437213
-9.45603e-05
0.00436584
3.03624e-05
0.00441613
0.000125264
0.00435231
-0.000189366
0.00432702
-0.000149609
0.00441882
0.000340357
0.00427731
-0.000467167
0.00433343
-6.51344e-06
4.2716e-05
0.00435034
0.00383288
-0.000390749
0.00417916
0.000751278
0.0041572
0.000354957
0.00398613
-0.000692018
0.0041205
5.51529e-05
0.00391185
-0.000198911
0.00393843
8.0105e-05
0.00404147
0.000530657
0.00393005
-0.000323869
0.00403939
4.85313e-05
0.00404728
6.65108e-05
0.00402752
-7.47988e-05
0.00402928
2.86071e-05
0.00406128
9.32552e-05
0.00399168
-0.000119762
0.00398021
-0.000138142
0.00406193
0.000258643
0.00392704
-0.000332276
0.00399484
-7.43168e-05
4.85925e-05
0.00398896
0.00340161
-0.000304857
0.00370328
0.000449608
0.00364535
0.00041289
0.00352067
-0.000567342
0.00358759
-1.1764e-05
0.00342529
-3.66179e-05
0.00349342
1.19833e-05
0.00359371
0.000430367
0.0035108
-0.000240966
0.00360411
-4.47716e-05
0.00359009
8.05231e-05
0.00356166
-4.63657e-05
0.00357056
1.97081e-05
0.00358352
8.0296e-05
0.00353217
-6.84149e-05
0.00353391
-0.000139882
0.00359238
0.000200177
0.00348535
-0.000225247
0.00353556
-0.000124525
7.23969e-05
0.00351175
0.00284842
-0.000265777
0.00302996
0.000268068
0.00302187
0.000420978
0.00292169
-0.000467165
0.00293231
-2.23808e-05
0.00286545
3.02458e-05
0.00292994
-5.25122e-05
0.00301904
0.000341264
0.00295094
-0.000172861
0.00299063
-8.44596e-05
0.00297143
9.97238e-05
0.00295914
-3.40824e-05
0.00297192
6.9316e-06
0.00298017
7.20413e-05
0.00295639
-4.4625e-05
0.00294491
-0.000128403
0.00298736
0.000157728
0.00290923
-0.000147122
0.00291874
-0.000134038
8.78953e-05
0.00290324
0.00212366
-0.000201932
0.00223681
0.000154916
0.00233087
0.000326913
0.00218721
-0.000323499
0.00218522
-2.03913e-05
0.00217859
3.68698e-05
0.0021933
-6.72133e-05
0.00229696
0.000237602
0.00222941
-0.000105309
0.00222501
-8.00624e-05
0.00223578
8.8948e-05
0.00223372
-3.20142e-05
0.00224002
6.2487e-07
0.00225649
5.5574e-05
0.00224146
-2.95982e-05
0.00220713
-9.40692e-05
0.00225518
0.000109673
0.00219257
-8.45052e-05
0.00216696
-0.000108432
8.02994e-05
0.00217456
0.00128585
-0.000100284
0.00138654
5.42277e-05
0.0015395
0.000173953
0.00135341
-0.00013741
0.00135549
-2.24758e-05
0.00136669
2.5675e-05
0.00134617
-4.66886e-05
0.00147208
0.000111688
0.00140256
-3.57885e-05
0.00137477
-5.22778e-05
0.001414
4.97253e-05
0.00140138
-1.93934e-05
0.0014051
-3.095e-06
0.0014303
3.03697e-05
0.00141241
-1.17044e-05
0.00136758
-4.92413e-05
0.00142487
5.23768e-05
0.0013694
-2.90309e-05
0.0013213
-6.03282e-05
4.93764e-05
0.00135222
0.000387216
0.000441444
0.000615397
0.000477987
0.000455511
0.000481186
0.000434498
0.000546186
0.000510397
0.00045812
0.000507845
0.000488452
0.000485357
0.000515726
0.000504022
0.000454781
0.000507157
0.000478126
0.000417798
0.000467175
0.000751156
-0.000380592
0.000246379
0.000806514
0.0004323
-0.000487658
0.00143124
-0.00051694
-0.000107786
0.00131783
-0.000261959
0.000375366
0.00137001
-0.000421255
0.000369082
0.00140718
-0.000113607
7.64363e-05
0.00156174
-0.00064791
0.000493351
0.00157496
-0.000232595
0.000219372
0.00156804
0.000265474
-0.000258553
0.00201662
-0.000632162
0.000183584
0.00216841
0.000723422
-0.000875214
0.00228423
-0.00131056
0.00119475
0.00271746
-0.00227859
0.00184536
0.00281629
-0.000999891
0.000901055
0.00292197
0.000320169
-0.000425847
0.00349106
-0.00300687
0.00243777
0.00361413
-0.00503407
0.00491101
0.00332171
-0.00228732
0.00257975
0.00356721
-0.00276407
0.00251857
0.00373448
-0.00708217
0.0069149
0.00352555
-0.0102184
0.0104273
0.00317231
-0.00994783
0.0103011
0.003445
-0.00287585
0.00260316
0.00421577
0.00339817
-0.00416894
0.0044578
0.00507561
-0.00531764
0.00434693
0.00523376
-0.00512289
0.00411463
-0.000595066
0.000827371
0.00333125
-0.005212
0.00599539
0.00247175
-0.00475121
0.0056107
0.00216313
-0.00575182
0.00606045
0.00222089
-0.00857559
0.00851783
0.00244125
-0.0053567
0.00513634
0.00254442
0.00019908
-0.000302251
0.00260984
0.00285491
-0.00292033
0.00279448
0.00640679
-0.00659144
0.00300495
0.00897114
-0.00918161
0.00314539
0.00712662
-0.00726706
0.00328429
0.0037152
-0.00385409
0.00341948
0.000631669
-0.000766861
0.00343723
-0.00176837
0.00175062
0.00340792
-0.000377694
0.000407003
0.00314959
0.004042
-0.00378367
0.00272724
0.00582511
-0.00540276
0.00242807
0.0050573
-0.00475813
0.00230507
0.00573656
-0.00561356
0.00242204
0.00287054
-0.00298751
0.0024879
-0.000532625
0.000466764
0.00260203
-0.00162681
0.00151268
0.00286497
-0.00531373
0.00505078
0.00289961
-0.00839895
0.00836431
0.00267441
-0.00850955
0.00873475
0.00247302
-0.00707192
0.00727331
0.00234927
-0.00507111
0.00519486
0.00233824
-0.00220992
0.00222095
0.00245638
0.00144784
-0.00156598
0.00258643
0.00376559
-0.00389564
0.00262705
0.00480096
-0.00484158
0.00261798
0.00564519
-0.00563612
0.00261014
0.0057501
-0.00574226
0.00257432
0.00486548
-0.00482967
0.00259402
0.00214299
-0.00216269
0.0026371
-0.00233377
0.00229069
0.00260374
-0.00562718
0.00566054
0.00252987
-0.006016
0.00608988
0.00244507
-0.00454427
0.00462907
0.00242314
-0.00196589
0.00198781
0.00248966
0.0016417
-0.00170821
0.00254151
0.00435318
-0.00440503
0.00253466
0.00446437
-0.00445752
0.00253765
0.00219047
-0.00219347
0.00255877
-0.000839275
0.000818154
0.00254314
-0.00273086
0.00274649
0.00253634
-0.00234537
0.00235217
0.00258225
-4.19334e-05
-3.97419e-06
0.00261768
0.00218932
-0.00222475
0.00259943
0.00294434
-0.00292609
0.00257314
0.0022437
-0.00221741
0.00257658
0.000763024
-0.000766458
0.00259398
-0.000609126
0.00059172
0.0025987
-0.00124965
0.00124494
0.00258356
-0.00117843
0.00119357
0.0025545
-0.00078114
0.000810204
0.00251962
-0.000386206
0.000421085
0.00248488
-0.00012317
0.000157904
0.00245305
8.04447e-06
2.37879e-05
0.002424
4.94279e-05
-2.03766e-05
0.00239593
4.33849e-05
-1.53172e-05
0.0023669
2.10356e-05
8.0024e-06
0.00233587
2.45323e-07
3.07843e-05
0.00230319
-1.27528e-05
4.54275e-05
0.00227034
-1.88933e-05
5.17412e-05
0.00223929
-2.11416e-05
5.21909e-05
0.00221179
-2.1893e-05
4.94007e-05
0.00218894
-2.16998e-05
4.45424e-05
0.00217102
-2.10456e-05
3.89717e-05
0.00215778
-1.89498e-05
3.21879e-05
0.00214832
-1.69327e-05
2.6396e-05
0.00214212
-1.30425e-05
1.92376e-05
0.00213777
-1.12128e-05
1.55623e-05
-6.67102e-06
8.83997e-06
0.00169798
-0.00064843
0.00161006
0.000520223
0.00189447
-0.000801349
0.00192517
-0.000292664
0.00199615
-0.000492231
0.00205584
-0.000173301
0.00210618
-0.000698244
0.00226072
-0.000387137
0.00216737
0.000358822
0.00244005
-0.000904846
0.00280967
0.000353802
0.00282271
-0.0013236
0.00322572
-0.0026816
0.00344134
-0.00121551
0.00346092
0.000300589
0.00383607
-0.00338202
0.00383518
-0.00503318
0.00355485
-0.00200699
0.00376709
-0.00297632
0.00377262
-0.00708769
0.00342937
-0.00987512
0.00304907
-0.00956753
0.00333649
-0.00316326
0.00412131
0.00261334
0.00437398
0.00482293
0.00433409
0.00527366
0.00406574
-0.000326712
0.00319288
-0.00433915
0.00227425
-0.00383259
0.001984
-0.00546158
0.00205511
-0.0086467
0.0022231
-0.00552469
0.00233106
9.11257e-05
0.00240373
0.00278224
0.00258566
0.00622486
0.00283539
0.00872142
0.00301469
0.00694731
0.00322165
0.00350824
0.00344183
0.000411489
0.00346232
-0.00178886
0.00342247
-0.000337846
0.00319152
0.00427296
0.00283353
0.0061831
0.00255357
0.00533726
0.0024314
0.00585874
0.00254714
0.0027548
0.00260244
-0.000587925
0.00273508
-0.00175945
0.00296558
-0.00554423
0.00291809
-0.00835146
0.00261299
-0.00820445
0.00236618
-0.00682511
0.00221815
-0.00492308
0.00218446
-0.00217623
0.00230479
0.00132751
0.00246179
0.00360859
0.00254062
0.00472213
0.00258039
0.00560542
0.00261255
0.00571795
0.00260067
0.00487736
0.00263831
0.00210535
0.0026743
-0.00236975
0.00260135
-0.00555424
0.00248563
-0.00590028
0.00237456
-0.00443321
0.00233505
-0.00192638
0.00240489
0.00157185
0.00248108
0.00427699
0.00250317
0.00444228
0.00252714
0.00216651
0.00254995
-0.000862088
0.00252236
-0.00270327
0.00250006
-0.00232307
0.00254108
-8.29606e-05
0.00259006
0.00214034
0.00259603
0.00293837
0.00259124
0.00224848
0.00260373
0.000750533
0.00261777
-0.000623158
0.00261376
-0.00124565
0.00259034
-0.00115501
0.00255564
-0.000746433
0.00251773
-0.000348296
0.00248174
-8.71888e-05
0.00244962
4.01686e-05
0.00242068
7.83673e-05
0.00239284
7.12225e-05
0.00236406
4.98233e-05
0.00233331
3.0988e-05
0.00230101
1.95485e-05
0.00226863
1.34848e-05
0.0022381
9.39131e-06
0.00221107
5.13871e-06
0.00218859
7.81278e-07
0.00217087
-3.32189e-06
0.00215769
-5.77558e-06
0.00214817
-7.40896e-06
0.00214187
-6.74345e-06
0.00213737
-6.71403e-06
-4.38698e-06
0.00255768
-0.000861619
0.00248798
0.000589922
0.00262063
-0.000933999
0.00267943
-0.000351458
0.00269279
-0.000505599
0.00284449
-0.000324997
0.0027389
-0.000592652
0.00292495
-0.000573192
0.00288516
0.000398618
0.0029786
-0.000998293
0.00343725
-0.000104844
0.00336657
-0.00125292
0.00366332
-0.00297836
0.00396096
-0.00151314
0.00393976
0.000321787
0.0041028
-0.00354506
0.00402291
-0.0049533
0.00377951
-0.00176359
0.00391149
-0.00310829
0.00375042
-0.00692663
0.00328275
-0.00940745
0.00291699
-0.00920177
0.00322285
-0.00346912
0.00396892
0.00186727
0.00422845
0.00456341
0.00426375
0.00523836
0.0039596
-2.25582e-05
0.00301194
-0.00339149
0.00205753
-0.00287817
0.00179672
-0.00520077
0.00187627
-0.00872625
0.00199563
-0.00564405
0.00211481
-2.80482e-05
0.00219087
0.00270618
0.00236608
0.00604965
0.00264281
0.00844469
0.00285254
0.00673757
0.00314226
0.00321852
0.00343892
0.000114826
0.00345043
-0.00180037
0.0034009
-0.00028832
0.00320375
0.00447012
0.00291753
0.00646931
0.00266281
0.00559198
0.00254972
0.00597182
0.00266691
0.00263761
0.00271441
-0.00063543
0.00286212
-0.00190716
0.003049
-0.0057311
0.00291462
-0.00821709
0.00253322
-0.00782305
0.00224612
-0.00653801
0.0020785
-0.00475546
0.00202398
-0.00212171
0.00214366
0.00120783
0.00232361
0.00342864
0.00243813
0.00460761
0.00252598
0.00551757
0.00259751
0.00564641
0.00261083
0.00486404
0.00266782
0.00204836
0.00269539
-0.00239733
0.00258245
-0.00544129
0.00242553
-0.00574336
0.00229051
-0.00429819
0.00223605
-0.00187192
0.00230832
0.00149958
0.00240599
0.00417932
0.00245671
0.00439156
0.00250223
0.00212099
0.00252624
-0.000886094
0.0024862
-0.00266323
0.00244904
-0.00228592
0.00248473
-0.000118649
0.00254575
0.00207932
0.00257501
0.00290911
0.00259159
0.00223191
0.00261295
0.000729172
0.00262363
-0.000633837
0.00261162
-0.00123364
0.0025809
-0.0011243
0.00254143
-0.000706962
0.00250121
-0.00030807
0.00246459
-5.05731e-05
0.00243272
7.20469e-05
0.00240435
0.000106736
0.00237716
9.8405e-05
0.00234911
7.7877e-05
0.00231931
6.07887e-05
0.00228828
5.05762e-05
0.00225752
4.42461e-05
0.00222883
3.80863e-05
0.00220365
3.03171e-05
0.00218284
2.15885e-05
0.00216648
1.30425e-05
0.0021543
6.39534e-06
0.00214546
1.43865e-06
0.00213957
-8.54048e-07
0.00213531
-2.45604e-06
-2.19383e-06
0.00322925
-0.00107146
0.00318055
0.000638623
0.00321514
-0.000968586
0.00332558
-0.0004619
0.00325444
-0.000434464
0.00349111
-0.000561662
0.00332943
-0.000430968
0.00347233
-0.000716097
0.0035274
0.000343545
0.00351021
-0.0009811
0.00398175
-0.000576381
0.00386146
-0.00113263
0.00402728
-0.00314418
0.00434098
-0.00182684
0.00431091
0.000351854
0.00430643
-0.00354058
0.00416318
-0.00481005
0.00395231
-0.00155272
0.00398162
-0.0031376
0.00366207
-0.00660708
0.00309435
-0.00883972
0.00276263
-0.00887006
0.00307742
-0.00378391
0.00374673
0.00119795
0.00402148
0.00428867
0.00413429
0.00512554
0.00379698
0.000314752
0.00279263
-0.00238714
0.00183224
-0.00191778
0.00159767
-0.00496619
0.00166629
-0.00879487
0.00175539
-0.00573316
0.00189697
-0.000169627
0.00196883
0.00263432
0.00213759
0.00588088
0.00242847
0.00815382
0.00266278
0.00650326
0.00304475
0.00283656
0.00339663
-0.000237061
0.00338952
-0.00179326
0.00333429
-0.000233091
0.00318217
0.00462224
0.002977
0.00667449
0.00275432
0.00581466
0.00265966
0.00606649
0.00277989
0.00251737
0.00282043
-0.00067597
0.00297878
-0.00206551
0.00311285
-0.00586517
0.00288869
-0.00799292
0.00243584
-0.00737021
0.00211396
-0.00621613
0.00193144
-0.00457294
0.00185873
-0.002049
0.00197552
0.00109104
0.00217403
0.00323014
0.00232106
0.00446057
0.00245565
0.00538299
0.00256536
0.0055367
0.00260564
0.00482377
0.00268296
0.00197103
0.00270051
-0.00241488
0.00254721
-0.00528799
0.00235026
-0.00554641
0.00219382
-0.00414175
0.00212718
-0.00180528
0.0022011
0.00142566
0.00231743
0.00406299
0.00239634
0.00431266
0.00246365
0.00205368
0.00248804
-0.000910481
0.00243489
-0.00261007
0.00238335
-0.00223438
0.00241367
-0.000148971
0.0024853
0.00200769
0.00253689
0.00285753
0.00257443
0.00219437
0.00260428
0.000699325
0.00261179
-0.000641343
0.00259276
-0.00121462
0.00255585
-0.00108738
0.00251243
-0.000663548
0.00247049
-0.000266127
0.00243371
-1.37974e-05
0.00240249
0.000103268
0.00237507
0.000134161
0.00234893
0.000124543
0.00232211
0.000104697
0.00229396
8.8942e-05
0.00226516
7.93738e-05
0.00223719
7.22134e-05
0.00221164
6.36395e-05
0.00218963
5.23267e-05
0.00217171
3.95081e-05
0.00215775
2.70001e-05
0.00214742
1.67247e-05
0.0021399
8.96062e-06
0.00213487
4.17216e-06
0.0021312
1.21736e-06
-2.75145e-07
0.00371997
-0.00123153
0.00373197
0.000626624
0.00370242
-0.000939041
0.00384818
-0.000607652
0.003725
-0.000311287
0.00395908
-0.000795741
0.00380595
-0.000277839
0.00388839
-0.000798534
0.00402692
0.000205016
0.00395358
-0.000907763
0.00436968
-0.000992487
0.00424515
-0.0010081
0.00430434
-0.00320337
0.00458509
-0.00210759
0.0045644
0.000372547
0.00444583
-0.00342201
0.00423589
-0.0046001
0.00404757
-0.0013644
0.00397848
-0.00306851
0.0035143
-0.00614291
0.00287317
-0.0081986
0.00257638
-0.00857327
0.00288263
-0.00409016
0.00345674
0.000623845
0.00375521
0.0039902
0.00394621
0.00493454
0.00357999
0.000680971
0.00254018
-0.00134732
0.00160759
-0.000985196
0.00138526
-0.00474386
0.00141424
-0.00882386
0.00149476
-0.00581367
0.00166655
-0.000341417
0.00173087
0.00256999
0.00190299
0.00570876
0.00219603
0.00786079
0.00245348
0.00624581
0.00292767
0.00236237
0.00330358
-0.000612976
0.0032727
-0.00176237
0.00321905
-0.000179438
0.00312188
0.00471942
0.00300545
0.00679091
0.00282262
0.00599749
0.00275851
0.0061306
0.00288293
0.00239295
0.00291636
-0.000709398
0.00308121
-0.00223036
0.00315505
-0.00593901
0.00283993
-0.0076778
0.00232196
-0.00685223
0.00197104
-0.00586521
0.00177818
-0.00438008
0.0016908
-0.00196162
0.00180304
0.000978795
0.0020153
0.00301787
0.00219109
0.00428479
0.00237046
0.00520361
0.00251677
0.0053904
0.00258563
0.00475491
0.00268454
0.00187212
0.00268979
-0.00242013
0.002496
-0.00509421
0.00226068
-0.00531109
0.00208543
-0.0039665
0.00200948
-0.00172933
0.00208433
0.00135081
0.00221664
0.00393068
0.00232339
0.0042059
0.00241242
0.00196465
0.00243581
-0.000933868
0.00236878
-0.00254305
0.00230347
-0.00216906
0.00232829
-0.000173794
0.00240932
0.00192666
0.00248235
0.00278449
0.00254026
0.00213646
0.00257796
0.000661626
0.00258281
-0.000646189
0.002558
-0.00118982
0.00251592
-0.00104529
0.0024692
-0.000616826
0.00242596
-0.000222888
0.00238935
2.28068e-05
0.00235911
0.000133515
0.00233296
0.000160312
0.00230827
0.000149229
0.00228326
0.000129704
0.00225758
0.000114627
0.00223207
0.000104884
0.00220811
9.61692e-05
0.00218696
8.4791e-05
0.00216931
6.99779e-05
0.00215531
5.35031e-05
0.00214461
3.76992e-05
0.00213678
2.45563e-05
0.00213108
1.46608e-05
0.00212726
7.9945e-06
0.00212443
4.04863e-06
1.23075e-06
0.00410224
-0.00132248
0.00415628
0.000572587
0.00409538
-0.00087814
0.00423003
-0.000742307
0.00410294
-0.000184195
0.0042924
-0.000985203
0.00418081
-0.000166241
0.00419756
-0.000815291
0.00438007
2.25068e-05
0.00429364
-0.00082133
0.00461092
-0.00130977
0.00452519
-0.000922373
0.00450537
-0.00318354
0.00471244
-0.00231466
0.00471411
0.000370875
0.00451922
-0.00322712
0.00423341
-0.00431429
0.00406498
-0.00119597
0.00391173
-0.00291526
0.00331656
-0.00554774
0.00262239
-0.00750443
0.00234975
-0.00830062
0.00263025
-0.00437067
0.00311409
0.000140007
0.00344158
0.0036627
0.00369882
0.0046773
0.00331304
0.00106675
0.00226324
-0.000297515
0.00138624
-0.000108196
0.00115786
-0.00451548
0.00112094
-0.00878695
0.0012065
-0.00589923
0.00140716
-0.000542077
0.00146939
0.00250777
0.0016625
0.00551565
0.00194848
0.00757481
0.00223423
0.00596005
0.00278705
0.00180955
0.00315351
-0.000979438
0.00310053
-0.00170939
0.00305532
-0.000134221
0.00302257
0.00475216
0.00300173
0.00681176
0.00286675
0.00613247
0.00284513
0.00615221
0.0029731
0.00226498
0.00299914
-0.000735442
0.00316674
-0.00239795
0.0031739
-0.00594617
0.00276819
-0.00727208
0.00219279
-0.00627684
0.00181855
-0.00549097
0.00161963
-0.00418116
0.00152236
-0.00186435
0.00162906
0.0008721
0.00184974
0.00279719
0.00204996
0.00408457
0.00227168
0.00498189
0.00245232
0.00520976
0.0025518
0.00465542
0.00267319
0.00175074
0.00266337
-0.00241031
0.00242928
-0.00486011
0.00215774
-0.00503955
0.00196629
-0.00377505
0.00188385
-0.00164689
0.00195897
0.00127569
0.00210484
0.0037848
0.00223936
0.00407139
0.00234957
0.00185443
0.00237008
-0.000954373
0.00228835
-0.00246132
0.0022098
-0.00209051
0.00222921
-0.000193206
0.00231851
0.00183736
0.00241226
0.00269073
0.00248961
0.00205912
0.00253456
0.000616672
0.00253763
-0.000649262
0.00250835
-0.00116054
0.00246182
-0.00099876
0.00241211
-0.000567118
0.0023678
-0.000178577
0.00233163
5.89805e-05
0.00230264
0.000162503
0.00227813
0.000184821
0.00225542
0.000171944
0.00223298
0.000152145
0.00221076
0.000136841
0.00218972
0.000125923
0.00217101
0.000114881
0.00215541
0.000100394
0.00214309
8.22999e-05
0.00213377
6.28147e-05
0.0021269
4.45769e-05
0.00212196
2.94927e-05
0.00211836
1.82575e-05
0.00211593
1.04271e-05
0.00211408
5.89933e-06
2.24833e-06
0.00440092
-0.00134906
0.00447017
0.000503329
0.00440802
-0.000815989
0.00449947
-0.000833756
0.00439797
-8.26924e-05
0.00452508
-0.00111231
0.00446324
-0.000104408
0.00442235
-0.000774396
0.00461212
-0.000167265
0.00453978
-0.000748993
0.00473708
-0.00150706
0.00471379
-0.000899081
0.00463339
-0.00310315
0.00474376
-0.00242502
0.00477785
0.000336779
0.00452774
-0.002977
0.00416675
-0.0039533
0.00402218
-0.00105141
0.00379108
-0.00268416
0.00308214
-0.0048388
0.00234526
-0.00676755
0.00207925
-0.00803461
0.00232147
-0.00461289
0.00273633
-0.000274846
0.00309831
0.00330072
0.0033991
0.00437651
0.00300017
0.00146567
0.00196945
0.000733207
0.00117129
0.000689962
0.000921581
-0.00426577
0.000802299
-0.00866766
0.00089299
-0.00598992
0.00110691
-0.000755995
0.00118606
0.00242862
0.00141714
0.00528457
0.0016911
0.00730086
0.00201507
0.00563608
0.00261489
0.00120972
0.00294498
-0.00130952
0.0028802
-0.00164462
0.00284799
-0.000102009
0.00288251
0.00471764
0.00296032
0.00673394
0.00288147
0.00621132
0.0029153
0.00611838
0.00304609
0.0021342
0.00306637
-0.000755721
0.00323321
-0.0025648
0.00316762
-0.00588058
0.00267333
-0.00677779
0.00204999
-0.00565349
0.00165789
-0.00509887
0.00145669
-0.00397996
0.00135547
-0.00176314
0.00145634
0.00077123
0.00167944
0.0025741
0.00189952
0.00386449
0.00216077
0.00472064
0.0023728
0.00499774
0.00250525
0.00452296
0.00264958
0.00160641
0.00262149
-0.00238222
0.00234768
-0.00458631
0.00204252
-0.00473439
0.00183727
-0.00356979
0.00175094
-0.00156056
0.00182567
0.00120096
0.00198328
0.00362719
0.00214586
0.00390881
0.00227608
0.00172421
0.00229141
-0.000969702
0.0021942
-0.00236411
0.00210295
-0.00199925
0.0021169
-0.000207165
0.00221369
0.00174057
0.00232759
0.00257683
0.00242316
0.00196355
0.0024749
0.00056493
0.00247755
-0.000651915
0.00244475
-0.00112774
0.00239388
-0.000947888
0.00234113
-0.00051437
0.00229586
-0.000133306
0.0022604
9.44407e-05
0.00223308
0.000189822
0.00221077
0.000207138
0.00219079
0.000191919
0.00217194
0.000170992
0.00215443
0.000154353
0.00213914
0.000141212
0.00212683
0.000127196
0.00211767
0.000109545
0.0021113
8.86754e-05
0.00210704
6.7078e-05
0.00210416
4.74483e-05
0.0021022
3.1457e-05
0.00210073
1.97249e-05
0.0020997
1.14646e-05
0.00209883
6.76722e-06
2.77358e-06
0.00461749
-0.00132712
0.00468672
0.0004341
0.00463945
-0.000768712
0.00467893
-0.000873244
0.00461397
-1.773e-05
0.00467554
-0.00117388
0.00465682
-8.56872e-05
0.00457262
-0.000690202
0.00474601
-0.000340647
0.0047002
-0.000703191
0.00478005
-0.00158691
0.00482179
-0.000940816
0.00468956
-0.00297093
0.0046955
-0.00243096
0.0047671
0.000265178
0.00447377
-0.00268367
0.00405267
-0.00353221
0.00393322
-0.000931957
0.00361951
-0.00237045
0.00281736
-0.00403665
0.00204281
-0.005993
0.00176981
-0.00776161
0.00197213
-0.00481521
0.00233477
-0.000637486
0.0027319
0.0029036
0.00304978
0.00405863
0.00264595
0.0018695
0.00166942
0.00170974
0.000966327
0.00139306
0.000682541
-0.00398198
0.000477219
-0.00846234
0.000570671
-0.00608337
0.000775955
-0.000961279
0.000893694
0.00231088
0.00116549
0.00501277
0.00142904
0.0070373
0.00179929
0.00526583
0.00239996
0.000609056
0.00268315
-0.0015927
0.00262244
-0.00158391
0.00260607
-8.56348e-05
0.00270694
0.00461677
0.00288261
0.00655827
0.00286692
0.00622701
0.00296669
0.00601861
0.00309894
0.00200195
0.00311723
-0.000774015
0.00327908
-0.00272665
0.00313438
-0.00573589
0.00255543
-0.00619884
0.00189549
-0.00499355
0.00149039
-0.00469378
0.00128955
-0.00377913
0.00119155
-0.00166513
0.00128692
0.000675854
0.0015059
0.00235512
0.00174161
0.00362878
0.0020392
0.00442305
0.00227909
0.00475785
0.00244713
0.00435492
0.0026144
0.00143914
0.00256439
-0.00233221
0.00225201
-0.00427393
0.00191623
-0.00439861
0.00169909
-0.00335265
0.0016109
-0.00147237
0.00168466
0.0011272
0.00185325
0.00345861
0.00204461
0.00371744
0.00219286
0.00157596
0.00220041
-0.000977252
0.00208706
-0.00225076
0.00198336
-0.00189555
0.00199169
-0.000215495
0.0020958
0.00163647
0.00222941
0.00244322
0.00234162
0.00185134
0.00240034
0.000506214
0.00240401
-0.000655585
0.00236769
-0.00109142
0.00231174
-0.000891936
0.0022556
-0.000458233
0.00220957
-8.727e-05
0.00217535
0.000128659
0.00215041
0.000214756
0.0021312
0.00022635
0.00211512
0.000207999
0.00210124
0.000184876
0.00208985
0.000165746
0.00208155
0.000149512
0.00207652
0.000132228
0.00207429
0.000111773
0.00207397
8.89972e-05
0.00207461
6.64299e-05
0.00207549
4.65677e-05
0.00207623
3.07207e-05
0.00207666
1.93005e-05
0.00207684
1.12803e-05
0.00207683
6.78092e-06
2.87005e-06
0.00475083
-0.00126697
0.0048152
0.000369738
0.00478209
-0.000735604
0.00477583
-0.000866984
0.00474665
1.1449e-05
0.00474844
-0.00117567
0.00476133
-9.85747e-05
0.0046518
-0.000580669
0.00479722
-0.000486063
0.00477637
-0.000682345
0.00475957
-0.00157011
0.00484971
-0.00103096
0.00467042
-0.00279164
0.00458243
-0.00234297
0.00468722
0.000160379
0.00435689
-0.00235333
0.00389674
-0.00307206
0.00379735
-0.000832564
0.00339744
-0.00197055
0.00252676
-0.00316596
0.00172488
-0.00519112
0.00143652
-0.00747325
0.00160092
-0.00497961
0.00191905
-0.000955614
0.00233702
0.00248562
0.00264819
0.00374746
0.00225705
0.00226064
0.0013731
0.00259369
0.000780468
0.00198569
0.000455869
-0.00365738
0.000161357
-0.00816783
0.000265536
-0.00618755
0.000444767
-0.00114051
0.00061848
0.00213717
0.000909959