/*--------------------------------*- C++ -*----------------------------------*\
| =========                 |                                                 |
| \\      /  F ield         | OpenFOAM: The Open Source CFD Toolbox           |
|  \\    /   O peration     | Version:  2.4.0                                 |
|   \\  /    A nd           | Web:      www.OpenFOAM.org                      |
|    \\/     M anipulation  |                                                 |
\*---------------------------------------------------------------------------*/
FoamFile
{
    version     2.0;
    format      ascii;
    class       volScalarField;
    location    "67";
    object      p;
}
// * * * * * * * * * * * * * * * * * * * * * * * * * * * * * * * * * * * * * //

dimensions      [0 2 -2 0 0 0 0];

internalField   nonuniform List<scalar> 
4400
(
-0.115379
-0.107703
-0.102893
-0.121913
-0.11881
-0.107169
-0.116856
-0.113614
-0.114255
-0.122875
-0.115459
-0.118232
-0.123154
-0.117646
-0.122013
-0.12517
-0.122651
-0.126284
-0.128428
-0.124616
-0.115491
-0.107796
-0.102159
-0.12211
-0.119311
-0.106781
-0.116937
-0.113744
-0.113948
-0.123176
-0.115459
-0.118072
-0.123644
-0.117518
-0.121941
-0.125417
-0.122529
-0.126281
-0.12876
-0.124825
-0.11567
-0.107848
-0.101632
-0.122545
-0.119841
-0.106258
-0.117207
-0.113835
-0.113617
-0.123617
-0.115345
-0.117925
-0.123987
-0.117285
-0.121923
-0.125602
-0.122397
-0.126325
-0.129249
-0.12502
-0.115803
-0.107855
-0.101281
-0.122946
-0.120163
-0.105874
-0.11755
-0.113812
-0.113384
-0.123993
-0.115161
-0.117861
-0.124266
-0.117038
-0.121994
-0.125663
-0.1223
-0.126356
-0.129529
-0.125234
-0.115786
-0.107912
-0.101353
-0.123133
-0.120234
-0.105842
-0.117879
-0.113719
-0.113358
-0.124069
-0.114987
-0.117911
-0.124398
-0.116878
-0.122147
-0.125555
-0.122212
-0.126414
-0.129396
-0.125722
-0.115541
-0.10819
-0.102045
-0.122987
-0.12017
-0.106328
-0.118115
-0.11372
-0.11362
-0.123974
-0.114964
-0.118084
-0.124354
-0.116921
-0.122329
-0.125368
-0.12215
-0.126516
-0.128911
-0.126444
-0.114994
-0.108828
-0.103518
-0.122342
-0.11997
-0.107459
-0.118134
-0.113974
-0.11421
-0.123536
-0.115233
-0.118359
-0.124054
-0.117278
-0.122457
-0.125138
-0.122188
-0.126586
-0.128242
-0.127184
-0.114096
-0.1098
-0.105814
-0.121019
-0.119535
-0.109271
-0.11796
-0.114518
-0.115124
-0.122654
-0.115855
-0.118704
-0.123421
-0.118003
-0.122476
-0.124822
-0.122403
-0.126674
-0.127583
-0.127771
-0.112859
-0.110973
-0.108801
-0.118951
-0.118735
-0.11165
-0.117336
-0.115288
-0.11627
-0.121276
-0.116792
-0.119066
-0.122433
-0.119078
-0.122375
-0.124352
-0.122825
-0.126484
-0.127038
-0.12819
-0.111357
-0.112156
-0.112219
-0.116247
-0.117445
-0.114329
-0.116181
-0.116146
-0.117476
-0.119444
-0.11792
-0.119386
-0.121143
-0.120381
-0.122167
-0.123676
-0.123426
-0.125809
-0.126607
-0.128474
-0.109731
-0.113179
-0.115691
-0.113167
-0.11566
-0.116963
-0.114741
-0.11693
-0.118533
-0.11733
-0.119067
-0.119619
-0.119684
-0.121724
-0.121898
-0.12281
-0.124117
-0.124896
-0.126241
-0.128637
-0.108162
-0.113939
-0.118796
-0.110063
-0.11355
-0.11923
-0.11335
-0.117528
-0.119271
-0.115188
-0.120054
-0.119755
-0.118248
-0.122913
-0.121632
-0.121851
-0.124771
-0.124004
-0.125882
-0.128697
-0.10683
-0.114409
-0.121195
-0.107324
-0.11139
-0.120922
-0.112362
-0.1179
-0.119637
-0.113293
-0.120757
-0.119824
-0.117015
-0.123818
-0.121431
-0.120927
-0.12528
-0.12325
-0.125507
-0.128678
-0.105857
-0.114623
-0.122734
-0.105256
-0.109463
-0.121992
-0.111929
-0.118065
-0.1197
-0.111858
-0.121138
-0.11987
-0.116099
-0.124391
-0.121341
-0.120147
-0.125599
-0.12269
-0.125128
-0.128604
-0.105281
-0.114669
-0.123482
-0.103997
-0.107996
-0.122527
-0.111951
-0.118079
-0.119596
-0.11097
-0.121237
-0.119935
-0.115533
-0.124657
-0.121368
-0.119583
-0.125726
-0.122344
-0.12478
-0.128493
-0.105039
-0.114646
-0.123662
-0.103476
-0.107101
-0.122691
-0.112262
-0.118018
-0.119445
-0.110587
-0.12114
-0.120033
-0.115303
-0.124676
-0.121469
-0.119265
-0.125686
-0.122183
-0.124503
-0.128348
-0.105019
-0.114624
-0.123486
-0.103451
-0.106767
-0.122496
-0.112655
-0.117946
-0.119265
-0.110624
-0.120935
-0.120095
-0.115357
-0.12452
-0.121556
-0.119181
-0.125516
-0.122159
-0.124332
-0.128155
-0.105126
-0.114615
-0.122998
-0.10364
-0.106884
-0.121999
-0.112964
-0.117896
-0.118995
-0.11093
-0.120697
-0.120027
-0.115612
-0.124261
-0.121563
-0.119289
-0.125272
-0.122209
-0.124275
-0.12793
-0.105276
-0.114635
-0.122379
-0.103827
-0.107259
-0.121391
-0.113132
-0.117905
-0.118659
-0.111327
-0.1205
-0.119844
-0.115947
-0.123999
-0.121489
-0.119502
-0.125027
-0.122274
-0.124315
-0.127719
-0.105382
-0.114702
-0.121657
-0.103862
-0.107672
-0.120988
-0.113139
-0.117975
-0.118352
-0.111619
-0.120442
-0.119648
-0.116353
-0.123859
-0.121382
-0.119768
-0.124872
-0.122298
-0.124402
-0.127579
-0.145219
-0.134638
-0.129144
-0.14677
-0.127692
-0.145939
-0.128477
-0.124911
-0.131703
-0.0989209
-0.108517
-0.14438
-0.171613
-0.198595
-0.184896
-0.0866382
-0.0863069
-0.149674
-0.152523
-0.133103
-0.132156
-0.139982
-0.143678
-0.13493
-0.0939145
-0.032884
0.011922
-0.0223353
-0.112803
-0.160242
-0.180868
-0.1876
-0.149993
-0.0892846
-0.0696124
-0.086984
-0.0951549
-0.0785453
-0.0499238
-0.0259228
-0.0071109
0.000675573
-0.0229271
-0.0497642
-0.0470247
-0.0186097
0.00201858
-0.000327055
-0.0180991
-0.0405204
-0.053404
-0.0415072
-0.0191288
-0.00870936
-0.00883719
-0.00750013
-0.00252
-0.000219059
-0.00177465
-0.00286313
-0.0031588
-0.00929321
-0.0173419
-0.0174661
-0.0099482
-0.00281431
0.0004874
0.000971166
0.000554165
0.000716863
0.00166182
0.00283034
0.00389882
0.00483983
0.00562552
0.00619509
0.00652982
0.0066589
0.00663179
0.00649645
0.00629061
0.00604052
0.00576317
0.00546898
0.0051642
0.00485249
0.00453594
0.00421575
0.00389256
0.00356671
0.00323837
0.00290762
0.00257449
0.00223899
0.00190111
0.00156084
0.00121817
0.000873076
0.000525557
0.000175594
-0.144793
-0.134655
-0.129227
-0.147924
-0.127674
-0.146063
-0.129146
-0.123064
-0.132333
-0.0987999
-0.108651
-0.143978
-0.166934
-0.191572
-0.182558
-0.0958604
-0.0886887
-0.14222
-0.147299
-0.129551
-0.128654
-0.141012
-0.149849
-0.141676
-0.0995344
-0.0353377
0.0127948
-0.0247192
-0.11809
-0.167111
-0.190143
-0.197806
-0.155515
-0.0878522
-0.0624762
-0.0777168
-0.0863671
-0.0720136
-0.0457106
-0.0229022
-0.00503799
0.000764714
-0.0257434
-0.054439
-0.0506868
-0.0205296
0.00144841
0.00114024
-0.0148815
-0.0359118
-0.0483299
-0.0379632
-0.0187233
-0.0112595
-0.0123903
-0.0101149
-0.0032024
0.00123354
0.00095039
-0.000506258
-0.00252224
-0.0107895
-0.0199545
-0.0194744
-0.0104953
-0.00220418
0.00154453
0.00198468
0.00129379
0.00109067
0.00170962
0.00268652
0.00370729
0.00468722
0.00553435
0.00615206
0.0065141
0.00665515
0.00663189
0.00649714
0.00629097
0.00604052
0.00576297
0.00546872
0.00516397
0.00485232
0.00453582
0.00421568
0.00389251
0.00356669
0.00323835
0.00290762
0.00257448
0.00223899
0.00190111
0.00156083
0.00121817
0.000873069
0.000525563
0.000175593
-0.143604
-0.135363
-0.129419
-0.147804
-0.128035
-0.144854
-0.129808
-0.121503
-0.13259
-0.0994142
-0.109379
-0.14319
-0.161405
-0.183347
-0.178565
-0.105008
-0.0923745
-0.134905
-0.140824
-0.125657
-0.125428
-0.141753
-0.155814
-0.148928
-0.105775
-0.0387174
0.0127037
-0.0274477
-0.122248
-0.173065
-0.19827
-0.206597
-0.159618
-0.0853208
-0.0544539
-0.0674576
-0.0765792
-0.0647659
-0.0411983
-0.0196608
-0.00255549
0.00133949
-0.0278741
-0.0582866
-0.0537554
-0.0220955
0.00124246
0.00300611
-0.0114382
-0.0310987
-0.043034
-0.0342019
-0.0180995
-0.0135761
-0.0156743
-0.0125235
-0.00377778
0.00272582
0.00364769
0.00183138
-0.00183592
-0.01211
-0.0223264
-0.0213106
-0.0109762
-0.00157773
0.00263013
0.00303697
0.0020601
0.00147223
0.00175323
0.00253667
0.00351266
0.0045341
0.00544386
0.00611005
0.00649938
0.00665226
0.00663268
0.00649834
0.00629169
0.00604076
0.00576292
0.00546857
0.0051638
0.00485218
0.00453572
0.00421562
0.00389247
0.00356667
0.00323834
0.00290761
0.00257448
0.00223898
0.0019011
0.00156083
0.00121817
0.000873069
0.000525562
0.000175593
-0.141066
-0.136423
-0.129576
-0.146091
-0.128897
-0.14283
-0.130257
-0.120648
-0.1324
-0.100736
-0.110212
-0.141829
-0.155466
-0.174478
-0.173299
-0.113447
-0.0970506
-0.128141
-0.133423
-0.121367
-0.122429
-0.142147
-0.161245
-0.156239
-0.112471
-0.0428887
0.01129
-0.0304809
-0.1253
-0.178056
-0.205091
-0.213793
-0.162299
-0.0817865
-0.0457194
-0.0563731
-0.0659549
-0.0569097
-0.0364579
-0.0162732
0.000273267
0.0023813
-0.0292819
-0.061246
-0.056176
-0.0232712
0.00142952
0.00521863
-0.00782828
-0.0261364
-0.0376107
-0.0302925
-0.0172775
-0.0156314
-0.018651
-0.0146983
-0.00423274
0.00422791
0.00625865
0.00410516
-0.00111405
-0.0132381
-0.024424
-0.0229444
-0.011378
-0.000940451
0.00372817
0.00410889
0.00283652
0.00185207
0.00179058
0.00238351
0.00331906
0.00438388
0.00535528
0.00606995
0.006486
0.00665033
0.00663418
0.00650005
0.00629277
0.00604124
0.00576304
0.00546851
0.00516369
0.00485207
0.00453564
0.00421556
0.00389244
0.00356665
0.00323833
0.00290761
0.00257447
0.00223898
0.0019011
0.00156083
0.00121817
0.000873069
0.000525562
0.000175593
-0.138681
-0.13702
-0.129901
-0.143374
-0.130024
-0.140652
-0.130316
-0.120286
-0.131606
-0.102667
-0.110744
-0.139506
-0.149476
-0.16557
-0.167248
-0.120867
-0.102406
-0.122166
-0.125507
-0.116725
-0.119591
-0.142128
-0.165825
-0.163071
-0.118723
-0.0476136
0.00832013
-0.0338704
-0.127411
-0.182082
-0.210552
-0.219324
-0.163619
-0.0773752
-0.0364659
-0.0446735
-0.0546981
-0.0485846
-0.0315693
-0.0128133
0.00337641
0.00386326
-0.0299567
-0.063288
-0.0579214
-0.0240256
0.00202754
0.0077113
-0.00410836
-0.0210843
-0.0321513
-0.0263013
-0.0162801
-0.0174031
-0.0212918
-0.0166167
-0.00455807
0.00570978
0.0087283
0.00627405
-0.000369046
-0.0141646
-0.0262216
-0.0243515
-0.0116889
-0.000297497
0.00482205
0.00517999
0.00360585
0.00222092
0.00182005
0.00223011
0.00313079
0.00424005
0.00527217
0.00603267
0.0064743
0.00664948
0.00663641
0.00650228
0.00629422
0.00604197
0.00576331
0.00546856
0.00516364
0.004852
0.00453558
0.00421552
0.00389241
0.00356663
0.00323832
0.0029076
0.00257447
0.00223898
0.0019011
0.00156083
0.00121817
0.00087307
0.000525561
0.000175593
-0.1364
-0.136759
-0.130476
-0.140247
-0.13099
-0.138641
-0.12998
-0.12023
-0.130189
-0.104981
-0.110858
-0.13606
-0.143683
-0.157098
-0.160811
-0.127119
-0.108163
-0.11713
-0.117529
-0.111859
-0.11686
-0.141647
-0.1693
-0.168904
-0.124211
-0.052616
0.00373934
-0.0376413
-0.128762
-0.185151
-0.214654
-0.223233
-0.163678
-0.0722187
-0.0268885
-0.0325969
-0.043047
-0.0399589
-0.0266178
-0.00935548
0.00667578
0.00574982
-0.0299196
-0.0644215
-0.0589905
-0.0243345
0.00304103
0.0104057
-0.000333989
-0.0159982
-0.0267447
-0.0222923
-0.0151327
-0.0188744
-0.0235761
-0.018261
-0.00474768
0.00714103
0.0110072
0.00830128
0.00038808
-0.0148855
-0.0277036
-0.0255129
-0.0118993
0.000346223
0.00589524
0.00622918
0.00435104
0.00257025
0.00184067
0.00207982
0.00295213
0.0041058
0.00519561
0.00599909
0.00646461
0.00664979
0.00663939
0.00650502
0.006296
0.00604292
0.00576373
0.00546869
0.00516365
0.00485197
0.00453554
0.00421549
0.00389239
0.00356662
0.00323831
0.00290759
0.00257447
0.00223898
0.0019011
0.00156083
0.00121817
0.00087307
0.000525561
0.000175593
-0.134446
-0.135786
-0.131142
-0.137254
-0.131516
-0.136749
-0.129396
-0.120393
-0.128224
-0.107406
-0.110623
-0.131571
-0.138151
-0.149322
-0.154312
-0.132123
-0.114019
-0.113131
-0.109958
-0.106981
-0.114224
-0.140683
-0.1715
-0.173328
-0.128517
-0.0576357
-0.00243837
-0.0415916
-0.129483
-0.187241
-0.217373
-0.225648
-0.162613
-0.0664564
-0.0171755
-0.0203951
-0.0312594
-0.0312263
-0.0216939
-0.00597396
0.0100832
0.00799336
-0.0292061
-0.0647008
-0.0594082
-0.0241831
0.00445955
0.0132141
0.00344481
-0.0109362
-0.0214759
-0.0183265
-0.0138618
-0.0200327
-0.0254907
-0.0196194
-0.00479669
0.00849171
0.0130547
0.0101548
0.00114617
-0.0154004
-0.0288639
-0.0264182
-0.0120024
0.000986198
0.00693159
0.00723545
0.00505594
0.00289269
0.0018522
0.00193602
0.002787
0.00398373
0.00512711
0.00596994
0.00645716
0.00665129
0.00664306
0.0065082
0.00629809
0.00604408
0.00576428
0.00546891
0.00516371
0.00485197
0.00453552
0.00421547
0.00389238
0.00356661
0.0032383
0.00290759
0.00257447
0.00223897
0.0019011
0.00156083
0.00121817
0.00087307
0.00052556
0.000175593
-0.132848
-0.134492
-0.131648
-0.134765
-0.131654
-0.134868
-0.128707
-0.120692
-0.125841
-0.109658
-0.110166
-0.126291
-0.132873
-0.142392
-0.148027
-0.135816
-0.11961
-0.11021
-0.103248
-0.102373
-0.11173
-0.139282
-0.172382
-0.176084
-0.131359
-0.0624386
-0.00994774
-0.0454062
-0.129603
-0.188281
-0.21915
-0.22671
-0.160562
-0.0602185
-0.00749999
-0.0083241
-0.0195954
-0.0225956
-0.0168885
-0.00273829
0.0134962
0.0105329
-0.0278737
-0.0642167
-0.0592267
-0.0235674
0.00625095
0.0160495
0.00718517
-0.00596785
-0.0164199
-0.0144635
-0.012495
-0.0208705
-0.0270279
-0.0206831
-0.00470561
0.00973496
0.0148423
0.0118109
0.00189499
-0.0157134
-0.0297051
-0.0270651
-0.0119949
0.00161828
0.00791547
0.00817861
0.00570631
0.00318254
0.00185515
0.00180193
0.00263857
0.00387633
0.00506783
0.00594566
0.00645204
0.0066539
0.00664733
0.00651174
0.0063004
0.00604538
0.00576492
0.00546919
0.00516381
0.00485199
0.00453552
0.00421545
0.00389237
0.0035666
0.0032383
0.00290758
0.00257446
0.00223897
0.0019011
0.00156083
0.00121816
0.00087307
0.00052556
0.000175593
-0.131531
-0.13321
-0.131785
-0.132852
-0.13158
-0.132911
-0.128017
-0.121063
-0.123225
-0.111499
-0.109591
-0.120594
-0.127828
-0.136383
-0.142217
-0.138224
-0.124537
-0.108336
-0.0977807
-0.098337
-0.109474
-0.137569
-0.172028
-0.177278
-0.132593
-0.0668088
-0.0185047
-0.0489539
-0.128959
-0.188123
-0.219821
-0.226531
-0.157654
-0.0536262
0.00198197
0.00337669
-0.0083048
-0.0142745
-0.0122905
0.000292686
0.0168039
0.0132896
-0.02601
-0.0630881
-0.0585194
-0.0224985
0.00836071
0.0188294
0.0108487
-0.00117248
-0.0116373
-0.0107626
-0.011063
-0.0213866
-0.0281827
-0.0214458
-0.00447981
0.0108479
0.0163533
0.0132545
0.00262495
-0.0158321
-0.0302387
-0.027459
-0.0118768
0.00223834
0.00883192
0.00904008
0.00629064
0.00343617
0.0018508
0.00168032
0.00250907
0.0037848
0.00501841
0.00592639
0.00644912
0.00665743
0.006652
0.00651547
0.00630281
0.00604673
0.00576561
0.00546949
0.00516393
0.00485202
0.00453552
0.00421545
0.00389236
0.00356659
0.0032383
0.00290758
0.00257446
0.00223897
0.0019011
0.00156082
0.00121816
0.00087307
0.00052556
0.000175593
-0.130371
-0.132128
-0.131478
-0.131427
-0.131417
-0.130901
-0.127385
-0.12146
-0.120598
-0.112794
-0.108962
-0.11488
-0.123002
-0.13132
-0.137122
-0.139529
-0.128532
-0.107419
-0.0938032
-0.0951544
-0.107584
-0.135698
-0.170596
-0.17651
-0.132179
-0.0705907
-0.0277294
-0.0522523
-0.127201
-0.18661
-0.219406
-0.225171
-0.153986
-0.0467881
0.0111281
0.0144957
0.00238122
-0.00644592
-0.00798226
0.00307568
0.0199059
0.0161606
-0.0237249
-0.0614618
-0.0573717
-0.0210057
0.0107101
0.0214852
0.0143977
0.00336345
-0.00717725
-0.00728508
-0.00960192
-0.0215897
-0.0289539
-0.0219053
-0.00412628
0.011813
0.0175822
0.0144759
0.00332599
-0.0157676
-0.0304839
-0.0276135
-0.0116517
0.00284175
0.00966692
0.00980401
0.0068006
0.00365208
0.00184109
0.0015734
0.00239969
0.00370952
0.0049788
0.00591185
0.00644808
0.00666156
0.00665678
0.00651917
0.00630517
0.00604805
0.00576627
0.00546979
0.00516405
0.00485206
0.00453553
0.00421545
0.00389236
0.00356659
0.00323829
0.00290758
0.00257446
0.00223897
0.00190109
0.00156082
0.00121816
0.00087307
0.00052556
0.000175593
-0.129267
-0.131309
-0.130833
-0.13031
-0.131213
-0.128916
-0.126813
-0.12185
-0.118151
-0.113543
-0.108267
-0.109491
-0.118398
-0.127156
-0.132911
-0.13999
-0.131523
-0.107334
-0.0913986
-0.0930267
-0.106175
-0.133799
-0.168283
-0.174146
-0.130197
-0.0736355
-0.0370483
-0.0553317
-0.124089
-0.183646
-0.217952
-0.222614
-0.149619
-0.039812
0.0198075
0.0248539
0.0122684
0.000743087
-0.00403752
0.00557501
0.0227331
0.0190307
-0.0211402
-0.0594853
-0.0558738
-0.0191378
0.0131969
0.023969
0.0178006
0.00754897
-0.0030844
-0.00409409
-0.00815593
-0.0215007
-0.0293473
-0.0220635
-0.00365684
0.0126186
0.0185341
0.0154724
0.00398812
-0.0155365
-0.0304676
-0.0275488
-0.0113266
0.00342299
0.0104075
0.010458
0.0072317
0.00383104
0.00182855
0.0014829
0.0023107
0.00364993
0.00494828
0.0059014
0.00644838
0.00666585
0.00666134
0.00652259
0.0063073
0.00604922
0.00576684
0.00547005
0.00516415
0.00485209
0.00453554
0.00421545
0.00389236
0.00356659
0.00323829
0.00290758
0.00257446
0.00223897
0.00190109
0.00156082
0.00121816
0.00087307
0.000525559
0.000175593
-0.128195
-0.130713
-0.129986
-0.129375
-0.130992
-0.127047
-0.126283
-0.122218
-0.116016
-0.113811
-0.107722
-0.104739
-0.114087
-0.123756
-0.12962
-0.139826
-0.133534
-0.107916
-0.09049
-0.0920052
-0.105305
-0.131977
-0.165316
-0.170398
-0.126827
-0.075791
-0.0458952
-0.0580604
-0.119752
-0.179329
-0.215584
-0.218861
-0.144594
-0.0328291
0.0279003
0.0343
0.0212098
0.00718522
-0.000515737
0.00775407
0.0252417
0.0218222
-0.0183799
-0.0572834
-0.0541014
-0.0169637
0.015702
0.0262581
0.0210292
0.0112896
0.000604976
-0.00125054
-0.00677725
-0.0211552
-0.0293811
-0.0219326
-0.00309337
0.0132596
0.0192246
0.0162487
0.0046013
-0.0151607
-0.030224
-0.0272903
-0.0109124
0.00397508
0.0110417
0.0109944
0.00758374
0.00397601
0.00181635
0.00141003
0.00224183
0.00360472
0.00492563
0.00589412
0.00644933
0.00666976
0.00666526
0.00652544
0.00630903
0.00605014
0.00576727
0.00547022
0.00516421
0.00485211
0.00453554
0.00421544
0.00389235
0.00356659
0.00323829
0.00290758
0.00257446
0.00223897
0.00190109
0.00156082
0.00121816
0.00087307
0.000525559
0.000175593
-0.127206
-0.130241
-0.129117
-0.128568
-0.130765
-0.125395
-0.125764
-0.122576
-0.114306
-0.113681
-0.107307
-0.10091
-0.11023
-0.120969
-0.127149
-0.13916
-0.134603
-0.108921
-0.0908338
-0.0919754
-0.104953
-0.130365
-0.161949
-0.165387
-0.122384
-0.0768341
-0.0537882
-0.0602298
-0.114559
-0.173794
-0.212339
-0.214049
-0.138882
-0.0260173
0.0352824
0.0427248
0.0291142
0.0128116
0.00254058
0.00957377
0.027379
0.0245126
-0.0155316
-0.0549394
-0.0520957
-0.0145678
0.0180958
0.0283532
0.0240462
0.0145088
0.00385844
0.00119056
-0.00552292
-0.0206083
-0.0290943
-0.021544
-0.00246887
0.0137396
0.0196795
0.0168169
0.00515416
-0.0146658
-0.0297925
-0.0268683
-0.0104236
0.00448863
0.0115592
0.0114113
0.0078606
0.00409164
0.00180809
0.00135566
0.0021914
0.00357217
0.0049093
0.00588886
0.00645011
0.00667272
0.00666819
0.00652751
0.00631024
0.00605074
0.00576753
0.00547031
0.00516423
0.00485211
0.00453553
0.00421544
0.00389235
0.00356658
0.00323829
0.00290758
0.00257446
0.00223897
0.00190109
0.00156082
0.00121816
0.00087307
0.000525559
0.000175593
-0.126376
-0.129812
-0.128374
-0.127882
-0.13052
-0.124083
-0.125234
-0.122876
-0.113107
-0.113274
-0.106988
-0.0982109
-0.107056
-0.118693
-0.125344
-0.138094
-0.134765
-0.110101
-0.0920481
-0.0926887
-0.105024
-0.129081
-0.158309
-0.159604
-0.11698
-0.0767041
-0.0602027
-0.0617445
-0.108834
-0.167272
-0.208186
-0.208344
-0.132452
-0.0195918
0.0418495
0.0500621
0.0359375
0.017588
0.00510657
0.0110004
0.029068
0.0270321
-0.0125852
-0.0524781
-0.0498508
-0.0120456
0.0202513
0.0302655
0.0268072
0.0171573
0.00663529
0.00318527
-0.00444686
-0.0199368
-0.028555
-0.0209549
-0.00182592
0.0140718
0.0199342
0.0171958
0.00563421
-0.014084
-0.0292181
-0.0263157
-0.0098798
0.00495103
0.0119526
0.0117132
0.00806907
0.00418367
0.00180754
0.00132039
0.00215801
0.0035502
0.00489757
0.00588442
0.00644993
0.00667424
0.00666983
0.00652868
0.00631088
0.00605102
0.00576761
0.00547032
0.00516421
0.00485208
0.00453551
0.00421543
0.00389234
0.00356658
0.00323829
0.00290757
0.00257446
0.00223896
0.00190109
0.00156082
0.00121816
0.00087307
0.000525559
0.000175593
-0.12577
-0.129391
-0.12782
-0.127334
-0.130235
-0.123187
-0.124711
-0.123048
-0.112431
-0.112748
-0.106743
-0.0966915
-0.104768
-0.1169
-0.124065
-0.136783
-0.134133
-0.110869
-0.0937061
-0.0938318
-0.105402
-0.128052
-0.154647
-0.153484
-0.110933
-0.0754659
-0.0647643
-0.0626215
-0.10259
-0.160086
-0.203104
-0.201864
-0.12544
-0.0137906
0.0474863
0.0563016
0.0416867
0.0215152
0.00717741
0.0120111
0.0302331
0.0291668
-0.00949643
-0.0498376
-0.0473426
-0.00951472
0.0220546
0.0319977
0.0292427
0.0192325
0.00889312
0.00471034
-0.00359067
-0.019229
-0.0278618
-0.0202511
-0.00121286
0.0142782
0.0200321
0.0174101
0.00602849
-0.0134543
-0.0285529
-0.0256713
-0.00930871
0.00534556
0.0122197
0.011911
0.00821759
0.00425805
0.00181796
0.00130426
0.00213979
0.00353664
0.00488882
0.00587977
0.0064482
0.00667404
0.00667012
0.00652893
0.00631098
0.00605101
0.00576756
0.00547025
0.00516415
0.00485205
0.00453549
0.00421541
0.00389234
0.00356658
0.00323829
0.00290757
0.00257445
0.00223896
0.00190109
0.00156082
0.00121816
0.00087307
0.000525559
0.000175593
-0.125414
-0.128988
-0.127448
-0.126952
-0.129894
-0.122701
-0.124249
-0.123037
-0.112195
-0.112258
-0.106584
-0.0962129
-0.103436
-0.115586
-0.123185
-0.13543
-0.132967
-0.111316
-0.0952651
-0.0951074
-0.105947
-0.12724
-0.151213
-0.147554
-0.104645
-0.0733129
-0.0673192
-0.0629048
-0.0959253
-0.152615
-0.197227
-0.194832
-0.118217
-0.00861702
0.0521366
0.0614632
0.046398
0.024617
0.00877793
0.0126103
0.0308454
0.0306582
-0.00645796
-0.0469196
-0.0445444
-0.00711881
0.0234542
0.0335368
0.0312366
0.0207938
0.0106017
0.00577136
-0.00297376
-0.0185652
-0.02713
-0.0195353
-0.000674822
0.0143871
0.0200211
0.0174894
0.0063245
-0.012824
-0.0278592
-0.0249889
-0.00875258
0.00565185
0.0123682
0.0120182
0.00831454
0.00431959
0.00184066
0.0013058
0.00213436
0.00352949
0.00488179
0.00587431
0.00644475
0.00667218
0.00666917
0.00652842
0.00631066
0.00605078
0.00576739
0.00547014
0.00516408
0.004852
0.00453546
0.0042154
0.00389233
0.00356657
0.00323828
0.00290757
0.00257445
0.00223896
0.00190109
0.00156082
0.00121816
0.00087307
0.000525559
0.000175593
-0.125283
-0.128634
-0.127228
-0.126745
-0.12951
-0.122544
-0.123905
-0.122843
-0.112279
-0.111912
-0.106482
-0.0964948
-0.102948
-0.11472
-0.1226
-0.134237
-0.13159
-0.11156
-0.0965731
-0.0963003
-0.106518
-0.126637
-0.148218
-0.142308
-0.0986501
-0.0706715
-0.0680684
-0.0627501
-0.0895668
-0.145316
-0.191008
-0.18806
-0.111475
-0.00420404
0.0557452
0.0656007
0.0501059
0.0269551
0.00995819
0.0128582
0.0309779
0.031392
-0.00403923
-0.0437679
-0.0415751
-0.0051971
0.0245128
0.034857
0.0326621
0.0219091
0.0117527
0.00640604
-0.00259033
-0.0179988
-0.0264582
-0.0188958
-0.000240943
0.0144306
0.01995
0.0174674
0.00651204
-0.0122462
-0.0272125
-0.0243465
-0.00826854
0.00585414
0.012418
0.0120525
0.00836777
0.00437053
0.00187353
0.00132145
0.00213878
0.00352702
0.00487585
0.00586808
0.00643994
0.00666907
0.00666735
0.00652739
0.00631007
0.00605043
0.00576718
0.00547001
0.005164
0.00485195
0.00453543
0.00421538
0.00389232
0.00356657
0.00323828
0.00290757
0.00257445
0.00223896
0.00190109
0.00156082
0.00121816
0.00087307
0.000525558
0.000175593
-0.125322
-0.128367
-0.127127
-0.126695
-0.12913
-0.122609
-0.123708
-0.122536
-0.112553
-0.111738
-0.106379
-0.0971665
-0.103033
-0.11423
-0.122248
-0.13332
-0.130259
-0.111538
-0.0976235
-0.0972617
-0.107027
-0.126237
-0.145846
-0.138107
-0.0935304
-0.0681983
-0.0675213
-0.0625202
-0.0845319
-0.138881
-0.185091
-0.182386
-0.105969
-0.000838896
0.0583883
0.068845
0.052756
0.0286359
0.0107889
0.0128743
0.0307758
0.0314936
-0.00238138
-0.0412213
-0.0392275
-0.00373806
0.0253263
0.0358918
0.0335024
0.0226126
0.0123858
0.00668828
-0.00241629
-0.0175592
-0.0259075
-0.0183824
8.04744e-05
0.0144371
0.0198595
0.0173825
0.00658647
-0.0117769
-0.0266919
-0.023823
-0.0079054
0.00595626
0.0123968
0.0120327
0.008386
0.00440961
0.00191026
0.00134521
0.00214933
0.00352788
0.00487113
0.0058619
0.00643471
0.00666549
0.00666519
0.00652617
0.00630939
0.00605005
0.00576696
0.00546988
0.00516392
0.00485191
0.00453541
0.00421537
0.00389231
0.00356656
0.00323828
0.00290757
0.00257445
0.00223896
0.00190109
0.00156082
0.00121816
0.00087307
0.000525558
0.000175594
-0.125441
-0.128209
-0.127084
-0.126756
-0.128823
-0.122743
-0.123652
-0.122224
-0.112862
-0.111706
-0.106255
-0.0979403
-0.103349
-0.114026
-0.122066
-0.132747
-0.129374
-0.111451
-0.098286
-0.0979247
-0.107415
-0.126049
-0.14429
-0.135436
-0.090118
-0.0665664
-0.0667856
-0.0623515
-0.0819552
-0.134443
-0.18024
-0.177875
-0.102032
0.00147243
0.06024
0.0711088
0.054315
0.0296665
0.0113344
0.012866
0.0305115
0.0311967
-0.00150482
-0.0395823
-0.0376284
-0.00275546
0.0259073
0.0365095
0.0338585
0.022921
0.0126216
0.00673351
-0.00241451
-0.017282
-0.0255188
-0.0180146
0.000296983
0.0144308
0.0197767
0.0172743
0.00655127
-0.011476
-0.0263592
-0.0234668
-0.00767477
0.00599212
0.012341
0.0119904
0.00837885
0.00443132
0.00194008
0.00136844
0.00216171
0.00353123
0.00486873
0.00585751
0.00643065
0.00666259
0.00666339
0.00652515
0.00630884
0.00604975
0.00576679
0.00546978
0.00516387
0.00485187
0.00453539
0.00421536
0.0038923
0.00356656
0.00323828
0.00290757
0.00257445
0.00223896
0.00190109
0.00156082
0.00121816
0.00087307
0.000525558
0.000175594
-0.125582
-0.128166
-0.127064
-0.126876
-0.128669
-0.122815
-0.123705
-0.122043
-0.112969
-0.111757
-0.106146
-0.0982215
-0.103676
-0.114022
-0.12205
-0.132502
-0.128867
-0.111338
-0.0985679
-0.0983229
-0.107677
-0.126093
-0.143657
-0.134431
-0.0885878
-0.0659306
-0.0663917
-0.062481
-0.0823125
-0.132933
-0.17786
-0.175273
-0.0997554
0.00282389
0.0612753
0.0722543
0.0548905
0.0299451
0.0115317
0.0130783
0.0304276
0.0305297
-0.00141704
-0.0389491
-0.0367277
-0.00219632
0.0262479
0.0367257
0.0337608
0.0228485
0.0125774
0.00662072
-0.00256718
-0.0172497
-0.0253148
-0.0177561
0.000431245
0.0144593
0.0197458
0.0171339
0.00638465
-0.0114472
-0.026227
-0.0231886
-0.00757379
0.0060349
0.0123112
0.0119529
0.00834983
0.00442633
0.00194963
0.00138047
0.00217363
0.00353779
0.00487111
0.00585763
0.00642995
0.00666185
0.00666287
0.00652483
0.00630866
0.00604965
0.00576674
0.00546975
0.00516385
0.00485186
0.00453538
0.00421535
0.0038923
0.00356656
0.00323828
0.00290757
0.00257445
0.00223896
0.00190109
0.00156082
0.00121816
0.00087307
0.000525558
0.000175594
-0.136696
-0.135897
-0.135445
-0.135735
-0.132485
-0.134641
-0.130125
-0.13208
-0.129013
-0.12924
-0.13478
-0.141146
-0.147341
-0.148303
-0.141039
-0.120201
-0.131858
-0.152128
-0.162965
-0.160884
-0.129773
-0.118929
-0.120648
-0.0938302
-0.0301266
0.0109225
0.0285755
0.0366881
0.0194647
-0.00210466
-0.00932922
-0.0159516
-0.0262586
-0.0351453
-0.0618781
-0.0941461
-0.103839
-0.0872989
-0.0559501
-0.0192972
0.0207963
0.055999
0.0586985
0.0387994
0.019903
0.0154573
0.020122
0.0126799
-0.0129723
-0.0497554
-0.0605726
-0.0345661
0.0109136
0.0357963
0.0368091
0.0283057
0.0140295
-0.00450779
-0.0178874
-0.0150634
0.00271925
0.0152111
0.0154635
0.00780108
-0.000977565
-0.00585066
-0.00632549
-0.00512894
-0.00339714
-0.00105411
0.00160509
0.00386358
0.00531963
0.00607902
0.00644202
0.00662501
0.00671397
0.00672318
0.00665144
0.00650505
0.0062986
0.00604905
0.00577108
0.00547537
0.00516885
0.0048556
0.00453789
0.00421689
0.0038932
0.00356704
0.00323855
0.00290771
0.00257454
0.00223901
0.00190111
0.00156083
0.00121815
0.000873069
0.000525547
0.000175593
-0.136726
-0.135911
-0.135401
-0.135763
-0.132533
-0.134664
-0.130197
-0.132057
-0.128969
-0.129225
-0.134798
-0.14109
-0.147422
-0.148872
-0.141473
-0.120117
-0.131367
-0.152516
-0.163819
-0.16183
-0.130874
-0.118445
-0.121017
-0.0956652
-0.0314588
0.0104368
0.0278482
0.0356664
0.0190657
-0.0024146
-0.00907507
-0.0156735
-0.0262346
-0.0349557
-0.0618884
-0.0946948
-0.104693
-0.0879025
-0.0563678
-0.0198602
0.0199496
0.0554587
0.0588128
0.0388409
0.0197955
0.0152827
0.0201615
0.0130496
-0.0129391
-0.0500978
-0.0613394
-0.035366
0.0104043
0.03571
0.0368419
0.0284292
0.0141679
-0.00451956
-0.0180755
-0.0153358
0.00259038
0.0152592
0.0155513
0.00787289
-0.000979035
-0.0058854
-0.00634919
-0.00514009
-0.00341189
-0.00107173
0.00159404
0.00386104
0.00532042
0.00607976
0.00644198
0.00662469
0.00671378
0.00672322
0.00665161
0.00650525
0.00629877
0.00604917
0.00577115
0.00547542
0.00516887
0.00485561
0.00453789
0.00421689
0.0038932
0.00356705
0.00323855
0.00290771
0.00257454
0.00223901
0.00190111
0.00156083
0.00121815
0.000873069
0.000525547
0.000175593
-0.136776
-0.135938
-0.135407
-0.135819
-0.132572
-0.134703
-0.130297
-0.132101
-0.128895
-0.129057
-0.134919
-0.141363
-0.147791
-0.149999
-0.14203
-0.119088
-0.132416
-0.154722
-0.165616
-0.163141
-0.132415
-0.117854
-0.121631
-0.0984273
-0.0339608
0.00933365
0.0264577
0.0335944
0.017008
-0.00442103
-0.00998206
-0.0155961
-0.0260524
-0.0345511
-0.0626154
-0.0964215
-0.106461
-0.088948
-0.0570762
-0.0209526
0.0181872
0.0537268
0.0585235
0.0382925
0.0194407
0.0151646
0.0203435
0.0132421
-0.0136162
-0.0513069
-0.0629338
-0.0369436
0.00935801
0.0354557
0.0368022
0.0283871
0.0140676
-0.0047834
-0.018488
-0.0157898
0.00235433
0.0153549
0.0156486
0.00787508
-0.00106914
-0.0059809
-0.0063948
-0.00515299
-0.00342889
-0.0010892
0.00158847
0.00386603
0.00532703
0.00608362
0.00644347
0.00662544
0.00671466
0.00672428
0.00665265
0.00650609
0.00629937
0.00604954
0.00577138
0.00547554
0.00516894
0.00485564
0.00453791
0.0042169
0.0038932
0.00356705
0.00323855
0.00290771
0.00257454
0.00223901
0.00190111
0.00156083
0.00121815
0.000873069
0.000525548
0.000175594
-0.13685
-0.135987
-0.135441
-0.135904
-0.132599
-0.134784
-0.130412
-0.132162
-0.128704
-0.128717
-0.135055
-0.141796
-0.148492
-0.151717
-0.142683
-0.116983
-0.134676
-0.158486
-0.167813
-0.163563
-0.133887
-0.117537
-0.122234
-0.101478
-0.0373594
0.00750004
0.0243781
0.0306745
0.0131297
-0.00798023
-0.012265
-0.0160041
-0.0258729
-0.0340149
-0.0639707
-0.0990435
-0.10889
-0.0904208
-0.0579956
-0.022192
0.0158232
0.050632
0.0577345
0.037159
0.0188149
0.0150637
0.0206294
0.0132997
-0.0149276
-0.0531643
-0.0651257
-0.0392062
0.00772936
0.034872
0.0366249
0.0281716
0.0137397
-0.00525548
-0.0190724
-0.0164398
0.00190851
0.0153901
0.0156948
0.0077938
-0.00123251
-0.00611334
-0.00644735
-0.00516493
-0.00344895
-0.00111049
0.00158174
0.0038711
0.00533324
0.00608665
0.00644444
0.00662627
0.00671601
0.00672594