/*--------------------------------*- C++ -*----------------------------------*\
| =========                 |                                                 |
| \\      /  F ield         | OpenFOAM: The Open Source CFD Toolbox           |
|  \\    /   O peration     | Version:  2.4.0                                 |
|   \\  /    A nd           | Web:      www.OpenFOAM.org                      |
|    \\/     M anipulation  |                                                 |
\*---------------------------------------------------------------------------*/
FoamFile
{
    version     2.0;
    format      ascii;
    class       volScalarField;
    location    "0.05";
    object      nuSgs;
}
// * * * * * * * * * * * * * * * * * * * * * * * * * * * * * * * * * * * * * //

dimensions      [0 2 -1 0 0 0 0];

internalField   nonuniform List<scalar> 
8800
(
0.00133802
0.00150693
0.00139281
0.00122823
0.00112231
0.00104871
0.000998582
0.000958726
0.000929589
0.000899632
0.000884892
0.000864715
0.000854235
0.000837384
0.000833076
0.000816342
0.000812667
0.000796322
0.000798231
0.00077251
0.000555002
0.000982059
0.00108317
0.00108051
0.00106428
0.0010309
0.00100432
0.000975233
0.000953076
0.000926323
0.000913133
0.000890374
0.000881098
0.000863769
0.000858898
0.000843243
0.000840065
0.000826982
0.000822527
0.0008135
0.000136125
0.000402914
0.000588939
0.00065472
0.000705907
0.000734156
0.000754159
0.000756703
0.000762132
0.000760124
0.000756691
0.000747806
0.000745851
0.000737464
0.000735167
0.000728851
0.000727697
0.000721449
0.00071812
0.000710032
2.71051e-05
0.000124459
0.000244223
0.000306104
0.000351823
0.000392688
0.000432015
0.000447517
0.000476082
0.000497289
0.000507134
0.000515435
0.000529892
0.000533466
0.000537535
0.000547686
0.000552334
0.0005582
0.000560142
0.000558689
5.17233e-06
3.32004e-05
7.922e-05
0.000114121
0.000131012
0.000158853
0.000194761
0.000207602
0.000228357
0.000257972
0.000267717
0.000280055
0.000296674
0.000306156
0.000311305
0.000326929
0.000334643
0.000350973
0.000356454
0.000362091
2.36644e-06
8.31686e-06
2.23506e-05
3.51214e-05
3.95064e-05
4.72384e-05
6.47993e-05
7.23127e-05
8.22377e-05
0.000103741
0.000110962
0.00011941
0.000131542
0.000137377
0.00014057
0.000150779
0.000156335
0.000167819
0.000174539
0.000180095
2.19388e-06
3.09736e-06
6.52357e-06
1.05098e-05
1.11798e-05
1.2421e-05
1.64324e-05
1.86651e-05
2.22933e-05
3.13364e-05
3.49549e-05
3.89758e-05
4.57041e-05
4.72034e-05
4.80401e-05
5.15457e-05
5.36864e-05
5.79173e-05
6.28124e-05
6.72676e-05
2.15905e-06
2.53446e-06
3.30935e-06
4.81791e-06
5.05327e-06
5.07027e-06
5.2363e-06
5.40417e-06
5.99859e-06
8.35344e-06
9.45228e-06
1.11154e-05
1.3185e-05
1.32169e-05
1.30554e-05
1.33617e-05
1.34103e-05
1.38256e-05
1.55016e-05
1.85095e-05
2.14189e-06
2.49905e-06
2.88911e-06
3.72385e-06
4.148e-06
4.18435e-06
4.16041e-06
4.01634e-06
3.98962e-06
4.12873e-06
4.38944e-06
4.88126e-06
5.25332e-06
5.25142e-06
5.10759e-06
4.98337e-06
4.88812e-06
4.88887e-06
5.01733e-06
5.67846e-06
2.1346e-06
2.53102e-06
2.84052e-06
3.35742e-06
3.83506e-06
3.97732e-06
3.99693e-06
3.95183e-06
3.82543e-06
3.80838e-06
3.83504e-06
4.00221e-06
4.21437e-06
4.27965e-06
4.27421e-06
4.21122e-06
4.14058e-06
4.12489e-06
4.13399e-06
4.27516e-06
2.13585e-06
2.56969e-06
2.9007e-06
3.26466e-06
3.7139e-06
3.91361e-06
4.0018e-06
4.01411e-06
3.95102e-06
3.8622e-06
3.85456e-06
3.90163e-06
4.07699e-06
4.22293e-06
4.25506e-06
4.24286e-06
4.23172e-06
4.24749e-06
4.30103e-06
4.48943e-06
2.14562e-06
2.62827e-06
3.02306e-06
3.24646e-06
3.82898e-06
4.12843e-06
4.31177e-06
4.44157e-06
4.37768e-06
4.26817e-06
4.2976e-06
4.35914e-06
4.47859e-06
5.0049e-06
5.44738e-06
5.66989e-06
5.96709e-06
6.68217e-06
7.42954e-06
8.74166e-06
2.16248e-06
2.6673e-06
3.10829e-06
3.59021e-06
5.14703e-06
5.66484e-06
6.16229e-06
7.47388e-06
7.40188e-06
7.52078e-06
8.6896e-06
9.6497e-06
1.04349e-05
1.32094e-05
1.52334e-05
1.68831e-05
1.84595e-05
2.22072e-05
2.48884e-05
2.98105e-05
2.19469e-06
3.11614e-06
4.81522e-06
7.4115e-06
1.38033e-05
1.55801e-05
1.80277e-05
2.44809e-05
2.54328e-05
2.70858e-05
3.3417e-05
3.7728e-05
4.03093e-05
4.84593e-05
5.33333e-05
5.94307e-05
6.36428e-05
7.32577e-05
7.89921e-05
9.14586e-05
2.35837e-06
8.31054e-06
1.67524e-05
2.81127e-05
4.88491e-05
5.45182e-05
6.28959e-05
8.23011e-05
8.68546e-05
9.33046e-05
0.000110464
0.000120015
0.000125049
0.000140517
0.000148976
0.000161608
0.000169056
0.000186414
0.000195623
0.000218921
5.2468e-06
3.31571e-05
6.54213e-05
0.000104889
0.000151991
0.000164886
0.000185744
0.000221845
0.00023042
0.000243137
0.000270588
0.000282722
0.000289835
0.000311294
0.000322085
0.000338192
0.000347249
0.000368735
0.000378818
0.0004033
2.73805e-05
0.000124529
0.000223869
0.000307498
0.000371051
0.000390001
0.000426115
0.000460995
0.000470847
0.000486667
0.000511437
0.000518394
0.000524787
0.000540734
0.00054689
0.000554898
0.000560028
0.000572733
0.000577572
0.000589419
0.000137092
0.000403289
0.000581975
0.00065848
0.000712749
0.00072784
0.000756415
0.000759793
0.000759553
0.000757063
0.000756962
0.000749787
0.000746969
0.000740563
0.000738886
0.00073237
0.000730779
0.000728149
0.000725762
0.000722787
0.000559024
0.000978486
0.001084
0.00108166
0.00106372
0.00103191
0.00100583
0.000969738
0.000956209
0.0009257
0.000911662
0.000890167
0.000882624
0.00086066
0.000856245
0.000840275
0.000834728
0.000816438
0.000810166
0.000793112
0.00134021
0.00150418
0.00139483
0.00122795
0.00112056
0.00105036
0.000999681
0.000953307
0.000932417
0.000898374
0.000883759
0.000859729
0.000853462
0.000829492
0.000823494
0.000799901
0.00079277
0.000760308
0.00074716
0.000703959
0.000355133
0.000307689
0.000280387
0.000263969
0.00025468
0.000248263
0.000244303
0.000241658
0.000238838
0.000236369
0.000232628
0.000227956
0.000222647
0.000212438
0.000192026
0.000169176
0.000149228
0.00013461
0.000124919
0.000118176
0.000113317
0.000109604
0.000107453
0.000106496
0.000105651
0.000103594
0.000100952
0.000100885
0.000101746
0.000103961
0.0001093
0.000116056
0.000127036
0.000131405
0.000130873
0.000128906
0.000124986
0.000117831
0.000104224
8.07905e-05
5.8561e-05
4.24755e-05
3.17849e-05
2.54308e-05
2.22299e-05
2.17488e-05
2.21516e-05
2.3647e-05
2.74323e-05
3.45894e-05
4.51556e-05
5.43684e-05
5.89143e-05
6.44599e-05
7.02035e-05
7.1697e-05
7.13468e-05
7.00686e-05
6.64631e-05
6.33454e-05
6.20422e-05
6.05999e-05
5.81419e-05
5.6803e-05
5.59194e-05
5.38828e-05
5.19087e-05
5.07388e-05
4.93086e-05
4.57562e-05
4.18065e-05
3.8286e-05
3.50102e-05
3.19738e-05
2.94764e-05
2.77302e-05
2.66703e-05
2.59085e-05
2.50589e-05
2.40349e-05
2.2943e-05
2.19086e-05
2.10369e-05
2.03975e-05
1.99863e-05
1.97633e-05
1.96816e-05
1.96771e-05
1.97205e-05
1.97526e-05
1.97494e-05
1.97271e-05
1.96721e-05
1.95597e-05
1.93039e-05
1.83706e-05
1.63412e-05
1.4196e-05
1.20907e-05
1.01516e-05
8.40328e-06
6.89057e-06
5.59174e-06
4.51055e-06
3.60721e-06
2.88386e-06
2.28155e-06
1.84704e-06
1.45247e-06
1.27147e-06
1.03525e-06
1.04663e-06
1.07451e-06
1.23163e-06
1.4116e-06
1.83869e-06
2.1821e-06
2.88624e-06
3.29723e-06
4.17953e-06
4.46695e-06
5.17095e-06
5.29234e-06
5.57861e-06
5.64016e-06
5.72589e-06
5.82167e-06
5.86693e-06
5.93207e-06
6.04238e-06
6.10192e-06
6.13804e-06
6.24573e-06
6.30529e-06
6.37789e-06
6.41335e-06
6.50419e-06
6.55996e-06
6.66012e-06
6.73034e-06
6.88884e-06
6.96751e-06
7.14078e-06
7.19214e-06
7.31388e-06
7.37951e-06
7.55322e-06
7.65484e-06
7.87885e-06
7.99579e-06
8.27039e-06
8.3566e-06
8.63412e-06
8.75603e-06
9.04566e-06
9.23087e-06
9.68631e-06
9.77814e-06
1.01196e-05
1.03069e-05
1.0953e-05
1.10749e-05
1.1691e-05
1.18323e-05
1.24494e-05
1.25678e-05
1.33675e-05
1.34224e-05
1.39434e-05
1.39199e-05
1.45523e-05
1.42423e-05
1.43741e-05
1.39854e-05
1.41365e-05
1.35211e-05
1.31664e-05
1.18999e-05
1.13636e-05
1.0299e-05
9.97486e-06
9.24732e-06
9.00186e-06
8.81347e-06
8.39353e-06
8.33952e-06
7.94393e-06
8.09404e-06
7.92947e-06
8.35493e-06
9.08353e-06
9.28148e-06
9.5518e-06
1.01211e-05
1.12687e-05
1.35412e-05
1.81313e-05
2.66999e-05
6.95907e-05
0.000231003
0.000409192
0.000369939
0.000338997
0.000315144
0.000296352
0.000281936
0.000269657
0.000259889
0.000251943
0.000245231
0.000240743
0.000237802
0.000235896
0.00023508
0.00023324
0.000229239
0.000222738
0.00021274
0.000200711
0.000187431
0.000175335
0.000162017
0.000150517
0.000144866
0.00013846
0.000134646
0.000134742
0.000136264
0.000139055
0.00014545
0.000146434
0.000145429
0.000143103
0.000138111
0.000132389
0.000123584
0.00010787
8.48316e-05
6.211e-05
4.53803e-05
3.36973e-05
2.58642e-05
2.1694e-05
2.02668e-05
2.04704e-05
2.15872e-05
2.51038e-05
3.14302e-05
4.17052e-05
5.6884e-05
7.01955e-05
8.05483e-05
8.81015e-05
9.35833e-05
9.52102e-05
9.46368e-05
9.28347e-05
8.87045e-05
8.30072e-05
7.87559e-05
7.54927e-05
7.1817e-05
6.84781e-05
6.63945e-05
6.50677e-05
6.25447e-05
5.77556e-05
5.41316e-05
5.04771e-05
4.60502e-05
4.18714e-05
3.82582e-05
3.49331e-05
3.19235e-05
2.95874e-05
2.81869e-05
2.75459e-05
2.70597e-05
2.60977e-05
2.47349e-05
2.32911e-05
2.20126e-05
2.10168e-05
2.03837e-05
2.01041e-05
2.0045e-05
2.00467e-05
2.00475e-05
2.00492e-05
2.006e-05
2.00644e-05
2.00395e-05
1.99236e-05
1.96156e-05
1.86441e-05
1.70114e-05
1.51421e-05
1.32384e-05
1.13411e-05
9.60387e-06
8.00077e-06
6.61924e-06
5.40178e-06
4.38973e-06
3.5276e-06
2.83449e-06
2.25595e-06
1.81077e-06
1.45986e-06
1.17483e-06
1.04305e-06
8.71138e-07
9.03565e-07
9.30105e-07
1.10418e-06
1.21848e-06
1.53201e-06
1.63657e-06
1.92833e-06
1.95262e-06
2.06178e-06
2.13594e-06
2.18942e-06
2.3499e-06
2.4134e-06
2.50411e-06
2.62505e-06
2.72351e-06
2.82944e-06
3.10132e-06
3.18858e-06
3.43043e-06
3.4788e-06
3.66938e-06
3.73931e-06
3.97999e-06
4.07538e-06
4.35002e-06
4.41958e-06
4.62197e-06
4.67841e-06
4.88285e-06
4.9406e-06
5.17272e-06
5.22086e-06
5.44242e-06
5.49077e-06
5.61649e-06
5.79324e-06
5.95401e-06
6.02071e-06
6.3701e-06
6.39102e-06
6.44127e-06
6.66731e-06
6.88572e-06
6.91698e-06
7.12976e-06
7.52385e-06
7.49818e-06
7.74506e-06
8.05285e-06
8.35162e-06
8.49957e-06
9.15181e-06
9.38657e-06
9.78789e-06
1.01422e-05
1.11996e-05
1.1479e-05
1.18907e-05
1.27257e-05
1.34379e-05
1.43934e-05
1.47682e-05
1.5781e-05
1.58365e-05
1.68065e-05
1.68966e-05
1.73281e-05
1.6551e-05
1.61002e-05
1.43562e-05
1.35475e-05
1.18973e-05
1.1363e-05
1.04459e-05
9.74431e-06
9.87224e-06
9.42704e-06
1.00562e-05
1.02683e-05
1.07521e-05
1.33016e-05
1.27639e-05
1.37887e-05
1.89715e-05
2.62694e-05
6.88074e-05
0.000156759
0.000366103
0.000341536
0.000320316
0.00030274
0.00028798
0.000275201
0.000263819
0.000254047
0.000245639
0.000238525
0.000232292
0.000227378
0.000223405
0.000220215
0.000218294
0.000216941
0.000215456
0.000213663
0.000211422
0.000207942
0.0002044
0.000200243
0.000196082
0.000191126
0.000186624
0.000183277
0.000178586
0.000173451
0.00016676
0.000162197
0.000155093
0.000147605
0.000137711
0.000122188
0.00010459
7.96115e-05
5.98248e-05
4.47299e-05
3.3831e-05
2.5925e-05
2.12859e-05
1.88854e-05
1.89058e-05
1.95825e-05
2.20564e-05
2.74812e-05
3.81339e-05
5.05042e-05
7.12409e-05
8.9229e-05
0.000105527
0.00011605
0.00012383
0.00012544
0.00012456
0.000122336
0.00011756
0.000111914
0.000103803
9.4274e-05
8.7792e-05
8.17256e-05
7.6328e-05
7.32339e-05
7.17068e-05
6.89712e-05
6.50293e-05
6.04617e-05
5.4018e-05
4.75813e-05
4.22876e-05
3.82797e-05
3.49712e-05
3.21753e-05
3.0015e-05
2.85967e-05
2.78854e-05
2.75223e-05
2.69457e-05
2.55503e-05
2.38806e-05
2.23781e-05
2.12755e-05
2.06702e-05
2.0504e-05
2.05523e-05
2.07594e-05
2.08026e-05
2.07371e-05
2.03134e-05
1.97483e-05
1.92839e-05
1.86777e-05
1.77671e-05
1.64866e-05
1.50392e-05
1.34139e-05
1.17959e-05
1.0164e-05
8.68479e-06
7.29541e-06
6.09822e-06
5.03782e-06
4.13976e-06
3.40193e-06
2.77559e-06
2.31371e-06
1.90301e-06
1.69407e-06
1.41409e-06
1.42796e-06
1.3412e-06
1.55275e-06
1.49723e-06
1.79496e-06
1.82323e-06
1.84874e-06
2.28078e-06
2.17149e-06
2.90977e-06
2.85067e-06
3.80774e-06
3.86871e-06
4.67989e-06
4.74571e-06
5.60874e-06
5.55244e-06
6.30057e-06
6.19571e-06
6.92125e-06
6.88833e-06
7.70044e-06
7.69171e-06
8.56512e-06
8.46764e-06
9.24847e-06
9.14935e-06
1.001e-05
9.89881e-06
1.09249e-05
1.07518e-05
1.16382e-05
1.15067e-05
1.23614e-05
1.22263e-05
1.32121e-05
1.30378e-05
1.39207e-05
1.36551e-05
1.46917e-05
1.43185e-05
1.50799e-05
1.5015e-05
1.56076e-05
1.52228e-05
1.62085e-05
1.57398e-05
1.58887e-05
1.57782e-05
1.65126e-05
1.54982e-05
1.56812e-05
1.56517e-05
1.55202e-05
1.45419e-05
1.47572e-05
1.46447e-05
1.40895e-05
1.35842e-05
1.36019e-05
1.34972e-05
1.32775e-05
1.32639e-05
1.34415e-05
1.36136e-05
1.41054e-05
1.43967e-05
1.50769e-05
1.62987e-05
1.69088e-05
1.81606e-05
1.8448e-05
1.9834e-05
1.95514e-05
1.95635e-05
1.84167e-05
1.54914e-05
1.37845e-05
1.25436e-05
1.23327e-05
1.17636e-05
1.21199e-05
1.18388e-05
1.27732e-05
1.63019e-05
1.60515e-05
3.4893e-05
3.09993e-05
5.79121e-05
0.000109106
0.000294333
0.000280362
0.000266301
0.000253572
0.000242161
0.000232567
0.000223297
0.000214455
0.00020719
0.000200848
0.000195722
0.000191701
0.000187567
0.000184322
0.000182651
0.000180977
0.00017985
0.000179806
0.000180015
0.00017998
0.000179132
0.000177542
0.000176036
0.00017241
0.000168676
0.000163281
0.000159483
0.000152157
0.000143649
0.00013199
0.000119557
0.000103079
8.38329e-05
6.70635e-05
5.26959e-05
4.08035e-05
3.1568e-05
2.45226e-05
2.01285e-05
1.73927e-05
1.70359e-05
1.7485e-05
1.91476e-05
2.34137e-05
3.13614e-05
4.38427e-05
6.34538e-05
8.50319e-05
0.000115215
0.000132791
0.000143248
0.000144333
0.000142911
0.0001401
0.000136479
0.000133248
0.000129756
0.000125813
0.000122521
0.000114211
0.000102884
9.44694e-05
8.46791e-05
7.73266e-05
7.54708e-05
7.40919e-05
7.04001e-05
6.47322e-05
5.91016e-05
5.17751e-05
4.45173e-05
3.93131e-05
3.56732e-05
3.29603e-05
3.08929e-05
2.95572e-05
2.8844e-05
2.82687e-05
2.73121e-05
2.58864e-05
2.42712e-05
2.2776e-05
2.15933e-05
2.08283e-05
2.05085e-05
2.04796e-05
2.06853e-05
2.09829e-05
2.10334e-05
2.09503e-05
2.04754e-05
1.92759e-05
1.80184e-05
1.67467e-05
1.53936e-05
1.40088e-05
1.25332e-05
1.11024e-05
9.64652e-06
8.32807e-06
7.05657e-06
5.95278e-06
4.97886e-06
4.10904e-06
3.49617e-06
2.82949e-06
2.59689e-06
2.15602e-06
2.15201e-06
2.08685e-06
2.32823e-06
2.36374e-06
2.91906e-06
2.96618e-06
3.69727e-06
3.7554e-06
4.473e-06
4.68377e-06
5.52858e-06
5.83665e-06
6.80581e-06
6.99336e-06
7.75662e-06
7.77725e-06
8.09534e-06
8.14667e-06
8.45809e-06
8.47488e-06
9.00469e-06
9.0886e-06
9.71063e-06
9.74194e-06
1.01171e-05
1.0165e-05
1.06286e-05
1.06116e-05
1.13143e-05
1.13805e-05
1.20661e-05
1.20455e-05
1.27475e-05
1.27197e-05
1.36113e-05
1.35828e-05
1.45167e-05
1.44553e-05
1.53718e-05
1.52963e-05
1.6301e-05
1.62773e-05
1.77299e-05
1.75508e-05
1.88358e-05
1.87049e-05
2.00664e-05
1.99203e-05
2.18475e-05
2.14943e-05
2.30396e-05
2.28834e-05
2.49359e-05
2.46028e-05
2.68342e-05
2.61116e-05
2.78498e-05
2.74492e-05
2.99316e-05
2.85547e-05
2.99503e-05
2.92979e-05
3.12704e-05
2.93417e-05
2.97336e-05
2.87638e-05
2.9229e-05
2.74459e-05
2.58408e-05
2.41618e-05
2.31406e-05
2.08216e-05
1.97036e-05
1.96807e-05
2.02211e-05
2.14521e-05
2.20827e-05
2.44165e-05
2.38245e-05
2.41261e-05
2.17335e-05
1.8109e-05
1.69937e-05
1.43734e-05
2.22889e-05
1.97e-05
4.3743e-05
3.42224e-05
6.48404e-05
5.26519e-05
5.60499e-05
8.24747e-05
0.000192934
0.000185485
0.00017801
0.000170433
0.000161883
0.000155293
0.000150178
0.000144286
0.000138443
0.000133028
0.000129312
0.000127829
0.000126147
0.000124584
0.000123565
0.00012257
0.000122232
0.0001222
0.000122506
0.000123373
0.000123252
0.000122764
0.000121684
0.000119532
0.000114442
0.000108237
0.000101507
9.31667e-05
8.31791e-05
7.29339e-05
6.28333e-05
5.26465e-05
4.30317e-05
3.47209e-05
2.76882e-05
2.19158e-05
1.80598e-05
1.56204e-05
1.51293e-05
1.54291e-05
1.65907e-05
1.97861e-05
2.6027e-05
3.60735e-05
5.1281e-05
7.39616e-05
0.000104146
0.000138511
0.000156104
0.000157422
0.000155379
0.000151023
0.000145372
0.000141242
0.000137641
0.000133789
0.000131737
0.000129785
0.00012566
0.000121233
0.00011537
0.000106868
9.546e-05
8.50909e-05
7.93906e-05
7.72667e-05
7.30189e-05
6.64448e-05
5.96865e-05
5.35113e-05
4.78973e-05
4.27751e-05
3.88266e-05
3.56599e-05
3.29419e-05
3.08861e-05
2.96148e-05
2.86713e-05
2.75638e-05
2.61529e-05
2.45719e-05
2.30461e-05
2.17991e-05
2.09864e-05
2.06034e-05
2.04965e-05
2.04947e-05
2.04975e-05
2.04931e-05
2.04825e-05
2.04311e-05
2.02732e-05
1.99308e-05
1.89531e-05
1.72554e-05
1.54765e-05
1.38138e-05
1.21445e-05
1.06554e-05
9.14042e-06
7.8847e-06
6.56289e-06
5.6168e-06
4.51856e-06
3.94223e-06
3.06744e-06
2.87307e-06
2.32326e-06
2.26343e-06
2.09233e-06
2.12816e-06
2.07338e-06
2.11476e-06
2.15332e-06
2.71024e-06
2.83874e-06
4.0439e-06
4.02538e-06
4.75078e-06
4.71286e-06
4.76218e-06
5.31488e-06
5.3901e-06
6.07577e-06
6.19542e-06
6.4333e-06
6.84061e-06
6.84381e-06
6.88183e-06
7.3298e-06
7.45131e-06
8.03564e-06
8.09125e-06
8.32583e-06
8.64918e-06
8.76497e-06
8.81835e-06
9.27706e-06
9.44309e-06
9.82933e-06
9.93887e-06
1.01869e-05
1.02972e-05
1.07687e-05
1.08597e-05
1.11545e-05
1.1282e-05
1.16821e-05
1.17442e-05
1.20356e-05
1.22092e-05
1.2644e-05
1.26578e-05
1.31615e-05
1.3348e-05
1.35542e-05
1.40217e-05
1.4801e-05
1.47089e-05
1.49992e-05
1.65046e-05
1.67134e-05
1.67529e-05
1.79432e-05
1.92173e-05
1.95141e-05
1.99053e-05
2.19061e-05
2.27006e-05
2.42837e-05
2.46172e-05
2.68391e-05
2.73349e-05
3.00695e-05
3.0209e-05
3.22408e-05
3.183e-05
3.34105e-05
3.29686e-05
3.28773e-05
3.10118e-05
2.90411e-05
2.8716e-05
2.7138e-05
2.72974e-05
2.70126e-05
3.00009e-05
3.05637e-05
3.84743e-05
3.4332e-05
4.65299e-05
3.713e-05
5.55612e-05
4.13355e-05
5.59251e-05
4.54909e-05
5.11001e-05
5.48609e-05
5.61568e-05
6.78223e-05
9.69271e-05
9.413e-05
9.13749e-05
8.86191e-05
8.48004e-05
8.1346e-05
7.83683e-05
7.61412e-05
7.40093e-05
7.09314e-05
6.80372e-05
6.684e-05
6.64488e-05
6.61733e-05
6.62696e-05
6.61648e-05
6.55826e-05
6.50372e-05
6.49731e-05
6.5323e-05
6.52432e-05
6.49097e-05
6.42736e-05
6.3089e-05
6.03883e-05
5.62151e-05
5.17314e-05
4.65254e-05
4.08646e-05
3.55681e-05
3.05116e-05
2.57271e-05
2.11884e-05
1.75614e-05
1.48677e-05
1.30503e-05
1.30448e-05
1.34439e-05
1.45343e-05
1.70467e-05
2.21151e-05
3.03111e-05
4.16829e-05
5.84445e-05
8.47948e-05
0.000123795
0.000160342
0.00017062
0.000168653
0.000162849
0.000155869
0.00014674
0.000139265
0.000133852
0.000130626
0.000130205
0.000130239
0.000129246
0.000125705
0.00012329
0.00012083
0.000114023
0.000104779
9.44195e-05
8.5215e-05
7.94348e-05
7.44268e-05
6.82294e-05
6.09424e-05
5.43962e-05
4.95646e-05
4.61629e-05
4.25828e-05
3.8608e-05
3.49913e-05
3.2294e-05
3.04748e-05
2.91501e-05
2.79768e-05
2.6791e-05
2.54883e-05
2.41399e-05
2.29543e-05
2.20886e-05
2.1561e-05
2.12827e-05
2.10804e-05
2.07982e-05
2.04048e-05
2.00489e-05
1.98595e-05
1.97922e-05
1.9766e-05
1.97096e-05
1.95711e-05
1.91729e-05
1.79365e-05
1.59369e-05
1.4079e-05
1.19962e-05
1.03026e-05
8.47296e-06
7.17237e-06
5.72246e-06
4.96355e-06
3.8494e-06
3.59246e-06
2.90854e-06
2.76595e-06
2.43428e-06
2.48641e-06
2.42313e-06
3.18827e-06
3.31545e-06
4.65471e-06
4.89329e-06
5.60732e-06
5.59201e-06
5.72079e-06
5.77285e-06
5.90812e-06
5.94936e-06
6.00497e-06
6.24541e-06
6.77638e-06
7.00869e-06
7.67136e-06
7.65161e-06
7.69528e-06
7.96947e-06
8.03675e-06
8.24467e-06
8.89145e-06
9.15889e-06
1.00617e-05
9.99449e-06
1.00328e-05
1.0167e-05
1.05607e-05
1.08506e-05
1.18156e-05
1.16816e-05
1.1868e-05
1.20109e-05
1.24837e-05
1.25728e-05
1.34374e-05
1.33876e-05
1.36777e-05
1.37785e-05
1.44741e-05
1.44635e-05
1.51146e-05
1.50744e-05
1.54965e-05
1.55549e-05
1.6493e-05
1.64443e-05
1.69551e-05
1.69562e-05
1.79419e-05
1.79906e-05
1.89809e-05
1.89796e-05
2.00647e-05
2.01735e-05
2.20698e-05
2.21543e-05
2.41863e-05
2.43385e-05
2.82383e-05
2.78352e-05
3.2461e-05
3.25835e-05
4.1302e-05
3.98681e-05
5.12174e-05
4.9723e-05
6.83562e-05
6.26077e-05
8.61736e-05
7.7813e-05
0.000110845
9.605e-05
0.000130636
0.000110228
0.000143225
0.000120654
0.000143741
0.000117427
0.000125926
0.000102186
0.000104642
8.43932e-05
8.25954e-05
6.39175e-05
6.10472e-05
5.97119e-05
5.86862e-05
6.2697e-05
3.65901e-05
3.60573e-05
3.54389e-05
3.47043e-05
3.37208e-05
3.28919e-05
3.16046e-05
3.07263e-05
3.03758e-05
2.96649e-05
2.83476e-05
2.72782e-05
2.67847e-05
2.67271e-05
2.7021e-05
2.77253e-05
2.78462e-05
2.73328e-05
2.67821e-05
2.66221e-05
2.63642e-05
2.61922e-05
2.61082e-05
2.58229e-05
2.50529e-05
2.33615e-05
2.13813e-05
1.90089e-05
1.65732e-05
1.468e-05
1.29449e-05
1.14979e-05
1.02311e-05
1.01577e-05
1.04444e-05
1.11315e-05
1.25976e-05
1.54422e-05
1.97503e-05
2.64812e-05
3.66982e-05
4.81664e-05
6.54735e-05
9.35851e-05
0.00014125
0.000175761
0.000182182
0.00017866
0.000169642
0.000153586
0.000139471
0.000131914
0.000127867
0.000124401
0.000121863
0.000121552
0.000122563
0.000124098
0.000124033
0.00012324
0.000120834
0.000116622
0.000111691
0.000100895
8.86261e-05
8.12923e-05
7.66509e-05
7.02322e-05
6.25776e-05
5.67144e-05
5.32878e-05
4.96455e-05
4.51707e-05
4.05212e-05
3.64352e-05
3.34947e-05
3.17276e-05
3.09301e-05
3.05572e-05
2.97065e-05
2.80966e-05
2.61902e-05
2.43815e-05
2.3009e-05
2.20843e-05
2.14043e-05
2.08304e-05
2.03797e-05
2.01224e-05
2.0035e-05
2.0001e-05
1.99682e-05
1.989e-05
1.97779e-05
1.95986e-05
1.92135e-05
1.8092e-05
1.63488e-05
1.45658e-05
1.25851e-05
1.07956e-05
9.03958e-06
7.54084e-06
6.27031e-06
5.19269e-06
4.38759e-06
3.73104e-06
3.192e-06
2.87677e-06
2.67053e-06
2.92273e-06
3.11562e-06
3.96537e-06
4.00082e-06
3.94396e-06
4.24664e-06
4.08938e-06
4.31819e-06
4.66939e-06
4.88539e-06
4.93288e-06
5.34449e-06
5.4766e-06
5.71019e-06
6.00428e-06
6.63483e-06
6.52654e-06
6.70771e-06
6.87212e-06
7.27525e-06
7.38004e-06
7.68e-06
8.63247e-06
9.10511e-06
9.09891e-06
9.56413e-06
9.6782e-06
9.95217e-06
1.04297e-05
1.08336e-05
1.17013e-05
1.18254e-05
1.18421e-05
1.21045e-05
1.28903e-05
1.32149e-05
1.39741e-05
1.41141e-05
1.41607e-05
1.44943e-05
1.56166e-05
1.56006e-05
1.58227e-05
1.63584e-05
1.6842e-05
1.70335e-05
1.78838e-05
1.81142e-05
1.86065e-05
1.88987e-05
1.97114e-05
2.0102e-05
2.09802e-05
2.13498e-05
2.21674e-05
2.27143e-05
2.41206e-05
2.45839e-05
2.57601e-05
2.64309e-05
2.82615e-05
2.90068e-05
3.10421e-05
3.21623e-05
3.48673e-05
3.60743e-05
3.93409e-05
4.1524e-05
4.57176e-05
4.88934e-05
5.46393e-05
6.03465e-05
6.4771e-05
7.35681e-05
7.85686e-05
8.95251e-05
9.3495e-05
0.000104432
0.000105999
0.000111974
0.000111166
0.000109123
0.000107484
0.000101065
0.000100197
9.01771e-05
8.63811e-05
7.75585e-05
6.81989e-05
6.65415e-05
1.02757e-05
1.0257e-05
1.02167e-05
1.01093e-05
9.9762e-06
9.8899e-06
9.56521e-06
9.25319e-06
9.18843e-06
9.17214e-06
8.92241e-06
8.37803e-06
8.03748e-06
7.95526e-06
8.09808e-06
8.46252e-06
8.56349e-06
8.37887e-06
8.05641e-06
7.88823e-06
7.74768e-06
7.75634e-06
7.98731e-06
8.00443e-06
7.89986e-06
7.56905e-06
7.38772e-06
6.92362e-06
6.59001e-06
6.62197e-06
6.83824e-06
7.24989e-06
7.94507e-06
9.25826e-06
1.10552e-05
1.41651e-05
1.9511e-05
2.57834e-05
3.29389e-05
4.44811e-05
5.66273e-05
7.30092e-05
0.000101395
0.00015322
0.000189783
0.000193345
0.00018795
0.000172782
0.000146847
0.000134454
0.000129869
0.000127848
0.000125939
0.000123177
0.000120962
0.000120181
0.000119817
0.000120059
0.000121614
0.000121858
0.000120182
0.000117879
0.000113983
0.000103639
9.25031e-05
8.61852e-05
8.10293e-05
7.35259e-05
6.55132e-05
5.97448e-05
5.55069e-05
5.08209e-05
4.57175e-05
4.11956e-05
3.79713e-05
3.61124e-05
3.54749e-05
3.49106e-05
3.289e-05
3.01094e-05
2.77344e-05
2.59625e-05
2.45382e-05
2.32715e-05
2.21815e-05
2.13573e-05
2.08398e-05
2.05772e-05
2.04567e-05
2.04074e-05
2.03984e-05
2.04172e-05
2.05103e-05
2.05851e-05
2.0571e-05
2.04335e-05
1.96484e-05
1.7702e-05
1.55438e-05
1.33606e-05
1.12074e-05
9.329e-06
7.53587e-06
6.26835e-06
4.88899e-06
4.22875e-06
3.19605e-06
2.95875e-06
2.51341e-06
2.61214e-06
2.91932e-06
3.16934e-06
3.01204e-06
3.35207e-06
3.1e-06
3.41121e-06
3.45999e-06
3.60539e-06
3.53226e-06
3.78047e-06
4.28199e-06
4.78099e-06
5.45563e-06
5.51198e-06
5.53986e-06
6.19963e-06
6.14323e-06
6.27638e-06
6.48992e-06
6.89716e-06
7.74874e-06
7.80211e-06
7.96257e-06
8.55458e-06
8.35397e-06
8.56634e-06
8.74883e-06
9.32321e-06
9.61409e-06
1.03624e-05
1.01419e-05
1.05604e-05
1.06263e-05
1.11697e-05
1.15512e-05
1.2571e-05
1.23123e-05
1.28389e-05
1.29009e-05
1.36695e-05
1.41706e-05
1.50703e-05
1.4968e-05
1.54221e-05
1.57142e-05
1.65435e-05
1.75376e-05
1.77418e-05
1.76895e-05
1.81902e-05
1.95152e-05
1.96829e-05
2.01776e-05
2.06632e-05
2.17695e-05
2.21154e-05
2.36478e-05
2.40346e-05
2.5702e-05
2.59761e-05
2.86388e-05
2.88912e-05
3.20291e-05
3.20349e-05
3.62398e-05
3.64276e-05
4.20548e-05
4.17453e-05
4.82313e-05
4.84516e-05
5.7138e-05
5.80027e-05
6.5753e-05
6.78822e-05
7.49425e-05
8.1085e-05
8.6306e-05
9.54945e-05
9.7863e-05
0.000103572
0.000106043
0.000106675
0.000106737
0.000104452
0.000103656
0.000101726
9.81436e-05
9.42334e-05
8.97474e-05
7.86082e-05
3.21013e-06
3.23494e-06
3.25271e-06
3.27446e-06
3.29513e-06
3.29637e-06
3.30695e-06
3.26137e-06
3.18347e-06
3.16178e-06
3.18489e-06
3.19538e-06
3.13472e-06
3.08213e-06
3.08469e-06
3.12352e-06
3.11794e-06
3.07035e-06
3.07304e-06
3.15971e-06
3.23092e-06
3.28863e-06
3.43594e-06
3.61123e-06
3.73716e-06
3.87665e-06
4.35104e-06
4.81402e-06
5.49227e-06
6.24594e-06
7.14838e-06
8.62951e-06
1.13993e-05
1.51371e-05
1.88882e-05
2.52973e-05
3.42651e-05
4.13032e-05
5.31801e-05
6.76349e-05
8.27878e-05
0.000109003
0.000162336
0.00020282
0.000204413
0.00019722
0.000173667
0.000146696
0.000133553
0.00012884
0.000128197
0.000127873
0.00012724
0.000125573
0.000123815
0.000122629
0.000120519
0.000119078
0.000118915
0.00011898
0.000118798
0.000117781
0.000114844
0.000106967
9.83456e-05
9.09754e-05
8.38068e-05
7.59277e-05
6.81287e-05
6.14845e-05
5.57446e-05
5.02809e-05
4.54302e-05
4.24717e-05
4.15432e-05
4.10311e-05
3.91003e-05
3.57326e-05
3.24477e-05
2.95644e-05
2.76469e-05
2.6759e-05
2.60528e-05
2.50946e-05
2.40494e-05
2.31063e-05
2.23377e-05
2.18742e-05
2.17824e-05
2.19398e-05
2.22546e-05
2.22862e-05
2.21028e-05
2.10849e-05
1.97414e-05
1.84475e-05
1.68945e-05
1.51899e-05
1.32269e-05
1.14351e-05
9.50316e-06
8.03085e-06
6.48292e-06
5.42205e-06
4.35023e-06
3.61307e-06
2.92313e-06
2.45511e-06
2.18279e-06
2.27298e-06
2.18916e-06
2.66665e-06
2.2408e-06
2.54774e-06
2.57267e-06
2.79223e-06
2.84826e-06
3.03153e-06
2.98e-06
3.22333e-06
3.47149e-06
4.28926e-06
4.10447e-06
4.53085e-06
4.37306e-06
4.95048e-06
4.8476e-06
5.12785e-06
5.50649e-06
6.43738e-06
6.21486e-06
6.85285e-06
6.53962e-06
7.22433e-06
7.12842e-06
7.60558e-06
7.96166e-06
8.77121e-06
8.30491e-06
9.09433e-06
8.77118e-06
9.27597e-06
9.52687e-06
1.02671e-05
9.82002e-06
1.07924e-05
1.04058e-05
1.09953e-05
1.11457e-05
1.20214e-05
1.147e-05
1.27511e-05
1.2298e-05
1.31085e-05
1.30736e-05
1.43604e-05
1.35877e-05
1.48928e-05
1.45434e-05
1.5917e-05
1.5594e-05
1.69901e-05
1.62701e-05
1.77459e-05
1.75164e-05
1.91222e-05
1.83331e-05
2.02964e-05
1.96277e-05
2.20285e-05
2.1082e-05
2.40531e-05
2.28976e-05
2.65487e-05
2.52655e-05
3.00406e-05
2.8352e-05
3.36268e-05
3.15936e-05
3.90189e-05
3.67809e-05
4.50998e-05
4.1891e-05
5.10579e-05
4.83809e-05
5.97858e-05
5.69069e-05
7.08541e-05
6.83818e-05
8.19006e-05
8.12442e-05
9.28123e-05
9.34755e-05
9.93487e-05
0.000100861
0.000102007
0.000101794
0.000100532
9.93134e-05
9.428e-05
2.38258e-06
2.40446e-06
2.44212e-06
2.49971e-06
2.52248e-06
2.53236e-06
2.54111e-06
2.55522e-06
2.56156e-06
2.56299e-06
2.58736e-06
2.63102e-06
2.65139e-06
2.6558e-06
2.69278e-06
2.74524e-06
2.72974e-06
2.72489e-06
2.74257e-06
2.97921e-06
3.18404e-06
3.37094e-06
3.61401e-06
3.86497e-06
4.16776e-06
4.60232e-06
5.69836e-06
7.63588e-06
9.52782e-06
1.13217e-05
1.33239e-05
1.67592e-05
2.31028e-05
2.77829e-05
3.30448e-05
4.46453e-05
5.39915e-05
6.35007e-05
8.14883e-05
9.59908e-05
0.000119078
0.000168365
0.000214138
0.000216183
0.000206657
0.000174693
0.000149121
0.000134583
0.000128101
0.000127091
0.000127401
0.000128024
0.000127776
0.000126987
0.000126128
0.000123632
0.000120172
0.000117851
0.000117087
0.000117122
0.000117372
0.000117222
0.00011542
0.00010997
0.000100861
9.25494e-05
8.57483e-05
7.83293e-05
6.9896e-05
6.19028e-05
5.4959e-05
4.94302e-05
4.64263e-05
4.60672e-05
4.55456e-05
4.30783e-05
4.04382e-05
3.7197e-05
3.35083e-05
3.06856e-05
2.93508e-05
2.83627e-05
2.69929e-05
2.58867e-05
2.55715e-05
2.56397e-05
2.61827e-05
2.6621e-05
2.66736e-05
2.6603e-05
2.6356e-05
2.54289e-05
2.37154e-05
2.206e-05
2.04672e-05
1.91278e-05
1.7655e-05
1.64907e-05
1.48792e-05
1.36173e-05
1.17994e-05
1.02962e-05
8.63803e-06
7.01404e-06
5.92992e-06
4.40899e-06
3.8449e-06
2.72815e-06
2.4074e-06
2.08037e-06
1.71015e-06
1.93592e-06
1.5531e-06
1.76825e-06
1.74712e-06
1.98292e-06
2.06135e-06
2.36095e-06
2.23644e-06
2.448e-06
2.52544e-06
3.40239e-06
3.0869e-06
3.60386e-06
3.53379e-06
4.09268e-06
4.01993e-06
4.31597e-06
4.19758e-06
5.05445e-06
4.58773e-06
5.26835e-06
4.93901e-06
5.52297e-06
5.31694e-06
6.00583e-06
5.87531e-06
6.718e-06
6.10103e-06
6.91741e-06
6.61404e-06
7.3863e-06
7.37354e-06
8.13018e-06
7.53048e-06
8.45875e-06
8.15358e-06
8.92987e-06
8.86743e-06
9.70979e-06
9.12579e-06
1.00378e-05
9.92009e-06
1.06442e-05
1.03708e-05
1.14782e-05
1.09525e-05
1.18048e-05
1.17445e-05
1.29925e-05
1.22668e-05
1.34524e-05
1.3028e-05
1.44752e-05
1.37879e-05
1.52286e-05
1.45216e-05
1.62212e-05
1.54151e-05
1.72232e-05
1.63113e-05
1.84678e-05
1.74556e-05
2.00868e-05
1.884e-05
2.21168e-05
2.06474e-05
2.45871e-05
2.27921e-05
2.82715e-05
2.62797e-05
3.21257e-05
2.96616e-05
3.68525e-05
3.48729e-05
4.40442e-05
4.21646e-05
5.21895e-05
5.07979e-05
6.21431e-05
6.23418e-05
7.27078e-05
7.48382e-05
8.52811e-05
8.95195e-05
9.70929e-05
9.98229e-05
9.98216e-05
9.95857e-05
9.80862e-05
2.54118e-06
2.63852e-06
2.70597e-06
2.70388e-06
2.72105e-06
2.82905e-06
2.96091e-06
3.07981e-06
3.12732e-06
3.13339e-06
3.12978e-06
3.2318e-06
3.57876e-06
3.72032e-06
3.81358e-06
4.08297e-06
4.1802e-06
4.26426e-06
4.47458e-06
5.11928e-06
5.56554e-06
6.35705e-06
7.34106e-06
8.21504e-06
9.12151e-06
1.02402e-05
1.24992e-05
1.65451e-05
1.9997e-05
2.30042e-05
2.62591e-05
3.35145e-05
4.19691e-05
4.76063e-05
5.62824e-05
7.13103e-05
8.10651e-05
9.7318e-05
0.00011499
0.000133177
0.000172404
0.000222621
0.000227177
0.00021519
0.000179696
0.000155017
0.00013903
0.000128926
0.000124551
0.00012363
0.000123802
0.000124049
0.000124185
0.00012437