/*--------------------------------*- C++ -*----------------------------------*\
| =========                 |                                                 |
| \\      /  F ield         | OpenFOAM: The Open Source CFD Toolbox           |
|  \\    /   O peration     | Version:  2.4.0                                 |
|   \\  /    A nd           | Web:      www.OpenFOAM.org                      |
|    \\/     M anipulation  |                                                 |
\*---------------------------------------------------------------------------*/
FoamFile
{
    version     2.0;
    format      ascii;
    class       volScalarField;
    location    "0.05";
    object      pMean;
}
// * * * * * * * * * * * * * * * * * * * * * * * * * * * * * * * * * * * * * //

dimensions      [0 2 -2 0 0 0 0];

internalField   nonuniform List<scalar> 
8800
(
169.612
156.099
147.688
143.285
140.485
138.157
135.951
133.812
131.698
129.618
127.546
125.491
123.437
121.418
119.38
117.362
115.258
113.063
110.631
106.391
166.618
155.75
147.841
143.391
140.542
138.181
135.958
133.811
131.696
129.615
127.544
125.489
123.437
121.415
119.387
117.355
115.283
113.084
110.687
107.766
164.724
155.806
148.397
143.737
140.701
138.258
136.001
133.84
131.714
129.626
127.549
125.492
123.439
121.416
119.392
117.355
115.306
113.127
110.99
108.574
163.244
155.849
148.937
144.122
140.872
138.345
136.066
133.894
131.757
129.655
127.568
125.502
123.448
121.422
119.402
117.372
115.328
113.229
111.163
109.339
162.041
155.809
149.377
144.485
141.028
138.413
136.124
133.954
131.813
129.694
127.597
125.516
123.465
121.431
119.42
117.392
115.372
113.335
111.423
110.166
161.093
155.706
149.716
144.797
141.166
138.458
136.163
134.004
131.865
129.736
127.624
125.534
123.478
121.446
119.435
117.426
115.429
113.468
111.715
110.827
160.368
155.586
149.967
145.049
141.288
138.486
136.188
134.041
131.91
129.772
127.647
125.549
123.49
121.46
119.453
117.465
115.498
113.615
112.003
111.396
159.843
155.479
150.142
145.24
141.392
138.504
136.2
134.068
131.944
129.801
127.666
125.561
123.501
121.474
119.478
117.51
115.583
113.762
112.281
111.857
159.502
155.399
150.251
145.368
141.466
138.516
136.205
134.085
131.968
129.822
127.679
125.571
123.511
121.49
119.503
117.559
115.668
113.907
112.529
112.23
159.336
155.355
150.304
145.433
141.504
138.521
136.207
134.094
131.981
129.834
127.687
125.579
123.521
121.507
119.534
117.611
115.754
114.046
112.745
112.536
159.337
155.354
150.305
145.433
141.504
138.522
136.207
134.094
131.982
129.837
127.691
125.585
123.532
121.525
119.567
117.665
115.838
114.174
112.93
112.78
159.506
155.396
150.253
145.368
141.466
138.517
136.206
134.087
131.973
129.831
127.689
125.589
123.542
121.545
119.601
117.72
115.92
114.292
113.083
112.964
159.847
155.474
150.145
145.24
141.392
138.506
136.202
134.07
131.953
129.816
127.683
125.591
123.552
121.566
119.635
117.774
116
114.403
113.205
113.087
160.374
155.579
149.971
145.049
141.288
138.487
136.19
134.043
131.922
129.792
127.671
125.591
123.562
121.585
119.67
117.828
116.077
114.507
113.301
113.136
161.101
155.698
149.72
144.796
141.167
138.459
136.167
134.005
131.882
129.759
127.654
125.588
123.571
121.602
119.702
117.879
116.155
114.606
113.39
113.107
162.049
155.801
149.381
144.484
141.031
138.415
136.129
133.955
131.833
129.721
127.634
125.582
123.579
121.615
119.733
117.925
116.232
114.701
113.483
113.006
163.253
155.841
148.941
144.12
140.876
138.348
136.072
133.896
131.781
129.683
127.613
125.575
123.584
121.626
119.759
117.964
116.301
114.784
113.575
112.87
164.733
155.798
148.401
143.736
140.705
138.262
136.008
133.842
131.741
129.657
127.599
125.572
123.587
121.637
119.778
117.994
116.351
114.85
113.646
112.755
166.628
155.743
147.845
143.389
140.546
138.186
135.965
133.814
131.723
129.647
127.596
125.574
123.592
121.646
119.789
118.013
116.378
114.89
113.683
112.685
169.621
156.093
147.691
143.283
140.49
138.162
135.959
133.816
131.726
129.65
127.599
125.577
123.595
121.65
119.794
118.02
116.385
114.905
113.696
112.779
104.377
104.415
104.325
104.094
103.836
103.577
103.251
102.839
102.329
101.72
100.993
100.129
99.1365
98.0611
96.9799
95.9618
95.0517
94.2867
93.7024
93.3258
93.1699
93.2362
93.5204
94.013
94.7006
95.5708
96.611
97.8041
99.1314
100.568
102.085
103.652
105.236
106.813
108.355
109.838
111.242
112.545
113.735
114.805
115.751
116.582
117.306
117.942
118.511
119.026
119.5
119.952
120.388
120.813
121.241
121.675
122.113
122.556
122.999
123.432
123.847
124.235
124.586
124.89
125.139
125.328
125.46
125.539
125.57
125.562
125.523
125.459
125.376
125.279
125.171
125.054
124.928
124.796
124.658
124.514
124.365
124.212
124.056
123.898
123.737
123.575
123.411
123.246
123.079
122.911
122.743
122.574
122.405
122.236
122.066
121.896
121.725
121.554
121.383
121.212
121.041
120.869
120.697
120.525
120.354
120.181
120.01
119.838
119.669
119.497
119.329
119.158
118.993
118.823
118.659
118.491
118.328
118.159
117.996
117.826
117.661
117.491
117.325
117.156
116.989
116.821
116.654
116.487
116.319
116.153
115.985
115.819
115.65
115.485
115.317
115.152
114.983
114.819
114.65
114.487
114.317
114.154
113.984
113.822
113.65
113.489
113.317
113.156
112.983
112.822
112.648
112.489
112.313
112.154
111.977
111.817
111.639
111.48
111.299
111.14
110.957
110.797
110.611
110.45
110.261
110.098
109.905
109.738
109.542
109.369
109.169
108.988
108.783
108.592
108.381
108.176
107.958
107.736
107.507
107.263
107.02
106.75
106.49
106.181
105.901
105.54
105.232
104.813
104.447
103.976
103.498
102.953
102.319
101.638
100.738
99.7668
98.4196
96.8082
94.6639
91.8681
87.8818
81.5238
73.9561
43.5869
106.025
105.584
105.471
105.229
104.92
104.615
104.303
103.935
103.465
102.873
102.149
101.295
100.332
99.3124
98.2952
97.3337
96.4725
95.7507
95.2033
94.8529
94.7074
94.765
95.0231
95.4764
96.1117
96.9166
97.8817
98.9911
100.223
101.557
102.969
104.43
105.906
107.369
108.793
110.154
111.43
112.604
113.663
114.604
115.432
116.158
116.794
117.357
117.867
118.335
118.771
119.192
119.607
120.02
120.448
120.895
121.359
121.84
122.334
122.826
123.302
123.751
124.165
124.532
124.839
125.079
125.254
125.369
125.429
125.443
125.421
125.372
125.301
125.214
125.115
125.004
124.885
124.758
124.624
124.484
124.338
124.189
124.036
123.88
123.721
123.561
123.398
123.234
123.069
122.902
122.735
122.567
122.399
122.23
122.06
121.891
121.721
121.55
121.379
121.208
121.037
120.865
120.694
120.521
120.35
120.177
120.006
119.833
119.663
119.49
119.323
119.151
118.988
118.816
118.656
118.485
118.326
118.154
117.995
117.822
117.662
117.487
117.325
117.151
116.989
116.815
116.654
116.48
116.319
116.145
115.984
115.81
115.649
115.475
115.314
115.141
114.98
114.807
114.646
114.473
114.311
114.138
113.976
113.803
113.641
113.467
113.305
113.131
112.968
112.794
112.631
112.456
112.291
112.116
111.95
111.773
111.607
111.428
111.261
111.08
110.912
110.727
110.557
110.368
110.195
110.001
109.827
109.625
109.447
109.237
109.055
108.834
108.646
108.412
108.215
107.968
107.756
107.494
107.261
106.983
106.718
106.422
106.116
105.792
105.437
105.076
104.654
104.242
103.716
103.241
102.593
101.999
101.233
100.394
99.3876
98.1328
96.6489
94.6479
92.1091
88.5674
84.6091
74.4198
66.7901
38.2467
107.317
106.831
106.451
106.111
105.796
105.51
105.219
104.877
104.428
103.85
103.145
102.325
101.422
100.479
99.5391
98.6505
97.8616
97.2086
96.7174
96.4057
96.2821
96.3452
96.5927
97.0213
97.6215
98.3809
99.2852
100.321
101.47
102.708
104.013
105.358
106.708
108.035
109.312
110.516
111.632
112.648
113.56
114.367
115.077
115.699
116.248
116.733
117.172
117.575
117.952
118.323
118.699
119.092
119.515
119.974
120.468
120.995
121.545
122.102
122.652
123.181
123.677
124.121
124.499
124.803
125.033
125.191
125.286
125.326
125.325
125.291
125.233
125.155
125.064
124.96
124.847
124.724
124.594
124.458
124.316
124.169
124.018
123.864
123.707
123.548
123.387
123.224
123.06
122.894
122.728
122.561
122.393
122.224
122.055
121.886
121.716
121.546
121.375
121.204
121.033
120.861
120.69
120.517
120.346
120.172
120.002
119.827
119.658
119.483
119.317
119.142
118.98
118.806
118.649
118.475
118.32
118.144
117.99
117.812
117.656
117.476
117.319
117.139
116.982
116.803
116.648
116.468
116.314
116.133
115.978
115.798
115.642
115.462
115.308
115.127
114.974
114.793
114.639
114.457
114.302
114.121
113.966
113.786
113.629
113.448
113.29
113.109
112.951
112.77
112.61
112.428
112.265
112.085
111.919
111.738
111.57
111.387
111.216
111.032
110.857
110.671
110.492
110.303
110.117
109.926
109.734
109.536
109.336
109.133
108.923
108.711
108.487
108.267
108.026
107.793
107.53
107.284
106.992
106.726
106.4
106.104
105.739
105.398
104.992
104.582
104.123
103.62
103.083
102.457
101.823
101.005
100.207
99.1388
97.9573
96.4941
94.7438
92.3023
90.2177
84.3548
82.4663
68.9227
60.035
40.576
109.075
108.506
107.487
106.695
106.231
105.976
105.78
105.538
105.185
104.697
104.08
103.356
102.558
101.721
100.886
100.098
99.3986
98.8213
98.3884
98.1154
98.0128
98.0824
98.3225
98.7293
99.2937
100.003
100.844
101.8
102.852
103.978
105.152
106.348
107.538
108.697
109.801
110.834
111.786
112.648
113.418
114.099
114.696
115.217
115.67
116.062
116.406
116.719
117.017
117.322
117.651
118.02
118.443
118.92
119.453
120.037
120.657
121.295
121.934
122.557
123.144
123.674
124.13
124.505
124.796
125.005
125.14
125.212
125.234
125.216
125.171
125.104
125.02
124.923
124.815
124.696
124.569
124.435
124.296
124.151
124.002
123.85
123.694
123.537
123.377
123.215
123.052
122.887
122.722
122.555
122.387
122.219
122.051
121.882
121.712
121.542
121.372
121.201
121.03
120.858
120.686
120.513
120.342
120.168
119.997
119.821
119.652
119.474
119.308
119.13
118.971
118.792
118.639
118.459
118.31
118.127
117.979
117.792
117.642
117.453
117.302
117.113
116.963
116.773
116.628
116.436
116.295
116.1
115.96
115.763
115.622
115.426
115.286
115.09
114.953
114.755
114.618
114.417
114.28
114.08
113.942
113.743
113.605
113.403
113.264
113.062
112.922
112.72
112.578
112.376
112.231
112.029
111.881
111.678
111.528
111.322
111.168
110.962
110.803
110.593
110.428
110.217
110.044
109.827
109.649
109.424
109.236
109.005
108.806
108.561
108.351
108.093
107.866
107.587
107.341
107.04
106.768
106.432
106.129
105.751
105.408
104.969
104.573
104.056
103.587
102.975
102.402
101.676
100.97
100.073
99.2073
97.9292
96.8416
94.5204
93.8806
89.0612
89.3726
80.2285
78.1333
65.6399
54.1381
42.0944
110.451
109.78
108.291
107.132
106.479
106.218
106.133
106.035
105.825
105.472
104.984
104.381
103.698
102.975
102.253
101.574
100.974
100.479
100.111
99.8861
99.8148
99.8975
100.132
100.515
101.037
101.685
102.445
103.301
104.234
105.222
106.244
107.276
108.297
109.286
110.224
111.096
111.894
112.615
113.256
113.816
114.298
114.704
115.04
115.314
115.544
115.753
115.96
116.194
116.474
116.822
117.25
117.757
118.344
118.999
119.702
120.434
121.172
121.896
122.582
123.206
123.749
124.2
124.557
124.819
124.996
125.101
125.148
125.151
125.12
125.063
124.986
124.894
124.789
124.673
124.549
124.417
124.279
124.136
123.989
123.838
123.683
123.527
123.368
123.207
123.044
122.88
122.715
122.549
122.382
122.214
122.046
121.877
121.708
121.538
121.368
121.197
121.026
120.854
120.683
120.51
120.339
120.164
119.992
119.815
119.645
119.465
119.299
119.118
118.959
118.778
118.626
118.444
118.296
118.111
117.961
117.772
117.621
117.428
117.278
117.083
116.937
116.74
116.599
116.4
116.264
116.061
115.929
115.721
115.59
115.38
115.252
115.041
114.919
114.703
114.585
114.362
114.246
114.021
113.908
113.68
113.572
113.337
113.231
112.991
112.889
112.645
112.547
112.296
112.199
111.943
111.848
111.587
111.493
111.224
111.13
110.855
110.76
110.478
110.38
110.09
109.987
109.689
109.581
109.272
109.155
108.834
108.708
108.371
108.232
107.877
107.724
107.343
107.169
106.758
106.559
106.106
105.872
105.371
105.09
104.517
104.172
103.493
103.074
102.224
101.752
100.608
100.213
98.4736
98.4663
95.6218
96.2514
91.6445
92.6806
86.1661
85.487
77.259
71.358
63.2209
51.7059
43.6135
111.534
110.878
109.14
107.716
106.854
106.488
106.415
106.412
106.338
106.134
105.791
105.325
104.769
104.167
103.562
102.99
102.484
102.072
101.772
101.599
101.558
101.65
101.874
102.226
102.696
103.272
103.942
104.69
105.498
106.348
107.223
108.101
108.964
109.796
110.582
111.311
111.973
112.564
113.079
113.513
113.867
114.141
114.344
114.487
114.595
114.695
114.813
114.979
115.218
115.553
115.993
116.539
117.189
117.926
118.723
119.558
120.401
121.226
122.015
122.739
123.374
123.909
124.333
124.648
124.868
125.006
125.078
125.098
125.079
125.031
124.961
124.872
124.769
124.655
124.532
124.401
124.265
124.123
123.977
123.827
123.674
123.518
123.36
123.2
123.038
122.874
122.71
122.544
122.377
122.21
122.042
121.873
121.704
121.534
121.364
121.194
121.023
120.851
120.68
120.507
120.335
120.16
119.988
119.81
119.639
119.457
119.29
119.106
118.946
118.762
118.611
118.426
118.275
118.086
117.93
117.736
117.579
117.383
117.229
117.033
116.885
116.687
116.545
116.341
116.204
115.994
115.86
115.647
115.517
115.301
115.176
114.955
114.838
114.609
114.497
114.261
114.154
113.912
113.812
113.563
113.471
113.211
113.124
112.855
112.778
112.499
112.431
112.138
112.078
111.772
111.724
111.403
111.364
111.025
110.997
110.641
110.626
110.248
110.243
109.84
109.847
109.417
109.435
108.975
109.002
108.51
108.547
108.014
108.061
107.483
107.539
106.901
106.966
106.26
106.333
105.533
105.615
104.703
104.801
103.725
103.852
102.544
102.73
101.081
101.385
99.2098
99.6957
96.7529
97.3584
93.6376
93.9026
89.6106
88.3186
83.8066
79.6692
74.5816
67.432
62.4711
52.7263
45.7955
112.343
111.716
109.843
108.227
107.197
106.733
106.661
106.74
106.796
106.738
106.544
106.219
105.79
105.296
104.784
104.296
103.867
103.525
103.283
103.152
103.136
103.236
103.449
103.771
104.191
104.699
105.284
105.931
106.624
107.346
108.085
108.823
109.546
110.241
110.895
111.495
112.032
112.496
112.882
113.183
113.398
113.532
113.594
113.603
113.587
113.58
113.616
113.725
113.935
114.269
114.733
115.33
116.053
116.88
117.779
118.718
119.661
120.584
121.47
122.291
123.019
123.636
124.128
124.495
124.756
124.925
125.019
125.053
125.045
125.004
124.939
124.854
124.754
124.641
124.52
124.391
124.255
124.114
123.969
123.819
123.666
123.511
123.353
123.193
123.031
122.868
122.704
122.539
122.373
122.206
122.038
121.87
121.701
121.531
121.361
121.191
121.02
120.848
120.677
120.504
120.333
120.157
119.985
119.806
119.635
119.452
119.282
119.096
118.932
118.747
118.588
118.402
118.24
118.048
117.878
117.682
117.513
117.318
117.156
116.961
116.808
116.611
116.464
116.259
116.111
115.898
115.753
115.539
115.402
115.186
115.054
114.833
114.702
114.471
114.346
114.11
113.992
113.752
113.638
113.388
113.281
113.019
112.921
112.65
112.56
112.277
112.196
111.896
111.826
111.512
111.454
111.121
111.076
110.719
110.688
110.31
110.295
109.885
109.886
109.443
109.463
108.983
109.022
108.496
108.557
107.981
108.065
107.428
107.534
106.831
106.961
106.174
106.324
105.446
105.619
104.622
104.813
103.673
103.884
102.561
102.773
101.221
101.421
99.5743
99.7228
97.5138
97.4595
94.9024
94.3154
91.5832
89.9535
87.1326
84.2143
81.0171
76.5712
73.4453
67.4131
63.6675
55.7552
48.8339
112.904
112.321
110.428
108.745
107.646
107.122
107.034
107.153
107.287
107.33
107.244
107.028
106.699
106.295
105.865
105.452
105.094
104.814
104.624
104.533
104.543
104.652
104.855
105.148
105.523
105.969
106.474
107.028
107.617
108.227
108.847
109.464
110.066
110.64
111.173
111.653
112.067
112.406
112.66
112.825
112.901
112.894
112.818
112.696
112.565
112.462
112.426
112.49
112.684
113.029
113.534
114.195
115.002
115.925
116.928
117.967
119.003
120.018
120.994
121.903
122.715
123.407
123.96
124.376
124.673
124.869
124.979
125.025
125.023
124.987
124.925
124.841
124.742
124.629
124.508
124.379
124.244
124.104
123.958
123.809
123.657
123.503
123.346
123.186
123.026
122.863
122.699
122.534
122.369
122.202
122.035
121.867
121.698
121.529
121.359
121.188
121.018
120.846
120.675
120.502
120.33
120.155
119.983
119.804
119.631
119.449
119.275
119.089
118.916
118.728
118.557
118.367
118.191
117.998
117.817
117.625
117.448
117.257
117.087
116.895
116.732
116.538
116.379
116.175
116.015
115.803
115.646
115.434
115.285
115.072
114.926
114.705
114.556
114.326
114.184
113.952
113.82
113.58
113.448
113.196
113.067
112.809
112.69
112.423
112.308
112.025
111.915
111.622
111.522
111.215
111.121
110.795
110.709
110.367
110.291
109.925
109.858
109.466
109.409
108.987
108.944
108.485
108.453
107.953
107.936
107.387
107.383
106.775
106.785
106.108
106.131
105.371
105.402
104.544
104.58
103.602
103.627
102.505
102.494
101.202
101.112
99.6271
99.39
97.7028
97.2195
95.3357
94.4573
92.4174
90.9692
88.8457
86.8
84.6103
81.9697
79.6961
76.0536
73.7944
68.8002
65.0026
58.3526
51.6872
113.334
112.792
110.927
109.231
108.095
107.522
107.407
107.541
107.727
107.846
107.851
107.734
107.503
107.193
106.846
106.507
106.214
105.989
105.844
105.786
105.814
105.926
106.118
106.383
106.714
107.101
107.536
108.008
108.506
109.019
109.537
110.047
110.54
111.003
111.423
111.787
112.083
112.299
112.427
112.464
112.41
112.273
112.068
111.828
111.591
111.4
111.299
111.327
111.516
111.886
112.441
113.175
114.069
115.09
116.191
117.322
118.448
119.548
120.604
121.588
122.471
123.225
123.829
124.285
124.612
124.829
124.954
125.009
125.014
124.981
124.921
124.839
124.74
124.627
124.505
124.375
124.24
124.099
123.954
123.805
123.653
123.499
123.342
123.183
123.022
122.86
122.696
122.531
122.366
122.2
122.032
121.864
121.696
121.527
121.357
121.186
121.016
120.844
120.673
120.5
120.328
120.154
119.981
119.804
119.63
119.448
119.271
119.083
118.901
118.708
118.521
118.327
118.138
117.949
117.762
117.576
117.394
117.207
117.028
116.837
116.663
116.466
116.295
116.093
115.922
115.716
115.546
115.338
115.172
114.961
114.797
114.579
114.413
114.188
114.029
113.801
113.648
113.412
113.256
113.007
112.855
112.603
112.459
112.196
112.051
111.771
111.631
111.344
111.212
110.91
110.775
110.455
110.328
109.994
109.87
109.513
109.389
109.011
108.893
108.49
108.372
107.937
107.821
107.352
107.235
106.724
106.602
106.044
105.915
105.3
105.154
104.473
104.302
103.544
103.333
102.486
102.205
101.255
100.875
99.8063
99.2769
98.0878
97.3504
96.0375
95.0478
93.6134
92.3286
90.8255
89.24
87.6326
85.7476
84.1786
81.898
80.2563
76.9906
74.6958
70.163
65.9939
60.2345
54.0683
113.675
113.165
111.34
109.658
108.52
107.94
107.829
107.989
108.221
108.398
108.47
108.425
108.269
108.031
107.75
107.471
107.23
107.049
106.94
106.906
106.949
107.064
107.245
107.487
107.781
108.12
108.495
108.898
109.318
109.745
110.17
110.584
110.977
111.336
111.649
111.902
112.085
112.186
112.199
112.118
111.944
111.685
111.363
111.016
110.689
110.431
110.29
110.304
110.505
110.912
111.528
112.338
113.318
114.427
115.616
116.834
118.04
119.212
120.333
121.376
122.311
123.108
123.747
124.231
124.58
124.81
124.942
125.001
125.008
124.978
124.92
124.839
124.74
124.628
124.505
124.375
124.239
124.097
123.952
123.802
123.65
123.496
123.339
123.18
123.02
122.857
122.693
122.529
122.363
122.196
122.029
121.862
121.693
121.524
121.354
121.184
121.013
120.842
120.671
120.498
120.326
120.152
119.979
119.803
119.628
119.448
119.268
119.081
118.89
118.693
118.493
118.295
118.098
117.91
117.721
117.539
117.355
117.171
116.986
116.795
116.609
116.411
116.225
116.027
115.843
115.648
115.462
115.263
115.075
114.871
114.682
114.475
114.287
114.077
113.892
113.676
113.491
113.269
113.079
112.852
112.664
112.431
112.246
112.002
111.812
111.559
111.371
111.11
110.924
110.649
110.455
110.167
109.978
109.676
109.481
109.158
108.957
108.62
108.418
108.054
107.841
107.455
107.234
106.817
106.581
106.131
105.875
105.386
105.106
104.572
104.253
103.67
103.306
102.664
102.232
101.529
101.011
100.231
99.6026
98.7468
97.9817
97.0545
96.1285
95.1195
94.0313
92.9453
91.6652
90.5785
89.0974
88.0684
86.2796
85.1912
82.7751
81.2201
77.8917
75.228
71.0227
66.6721
61.5218
55.9821
113.934
113.451
111.669
110.028
108.923
108.368
108.279
108.461
108.72
108.93
109.041
109.043
108.941
108.761
108.542
108.322
108.135
108.001
107.928
107.923
107.982
108.103
108.278
108.502
108.766
109.062
109.383
109.72
110.067
110.415
110.754
111.077
111.374
111.633
111.843
111.991
112.067
112.063
111.97
111.785
111.508
111.149
110.736
110.31
109.926
109.634
109.477
109.497
109.726
110.18
110.854
111.732
112.783
113.966
115.229
116.516
117.786
119.017
120.188
121.273
122.242
123.064
123.722
124.223
124.581
124.816
124.95
125.009
125.015
124.984
124.925
124.843
124.743
124.63
124.507
124.376
124.24
124.099
123.953
123.803
123.65
123.495
123.338
123.179
123.018
122.855
122.692
122.527
122.362
122.196
122.029
121.861
121.692
121.523
121.353
121.183
121.012
120.841
120.669
120.497
120.325
120.152
119.978
119.803
119.628
119.449
119.268
119.082
118.887
118.689
118.482
118.283
118.082
117.894
117.706
117.523
117.34
117.155
116.97
116.778
116.585
116.384
116.187
115.989
115.798
115.606
115.416
115.218
115.021
114.816
114.615
114.41
114.212
114.008
113.809
113.596
113.392
113.174
112.968
112.752
112.543
112.319
112.106
111.873
111.658
111.42
111.2
110.955
110.73
110.475
110.242
109.978
109.739
109.464
109.215
108.924
108.665
108.363
108.093
107.77
107.481
107.141
106.839
106.474
106.143
105.754
105.4
104.98
104.588
104.136
103.704
103.212
102.727
102.194
101.648
101.063
100.446
99.8063
99.1026
98.4162
97.61
96.8864
95.9621
95.2298
94.177
93.4694
92.2337
91.5545
90.0373
89.2792
87.2884
86.1599
83.5289
81.6852
78.3983
75.3683
71.4447
67.2134
62.5264
57.5721
114.127
113.661
111.928
110.349
109.303
108.8
108.75
108.959
109.236
109.466
109.603
109.639
109.58
109.451
109.287
109.124
108.989
108.898
108.86
108.878
108.951
109.072
109.238
109.441
109.672
109.925
110.194
110.47
110.748
111.02
111.278
111.514
111.717
111.878
111.987
112.034
112.012
111.915
111.737
111.474
111.125
110.702
110.236
109.774
109.367
109.067
108.919
108.964
109.232
109.732
110.46
111.395
112.505
113.743
115.053
116.385
117.701
118.971
120.172
121.279
122.26
123.087
123.747
124.248
124.605
124.837
124.969
125.025
125.028
124.994
124.931
124.846
124.743
124.628
124.505
124.374
124.237
124.096
123.95
123.801
123.648
123.493
123.336
123.176
123.016
122.854
122.69
122.526
122.36
122.194
122.027
121.859
121.691
121.522
121.352
121.182
121.012
120.84
120.669
120.496
120.324
120.151
119.977
119.803
119.626
119.451
119.268
119.086
118.891
118.7
118.492
118.297
118.093
117.904
117.714
117.531
117.346
117.162
116.975
116.786
116.589
116.392
116.189
115.994
115.798
115.608
115.414
115.22
115.018
114.817
114.608
114.407
114.203
114.004
113.797
113.589
113.374
113.162
112.946
112.737
112.519
112.301
112.074
111.85
111.621
111.396
111.16
110.923
110.678
110.438
110.187
109.937
109.675
109.413
109.141
108.872
108.585
108.3
108.001
107.705
107.385
107.07
106.733
106.403
106.037
105.685
105.295
104.924
104.493
104.097
103.629
103.211
102.688
102.247
101.667
101.206
100.553
100.083
99.349
98.8833
98.0435
97.5939
96.619
96.1917
95.0432
94.6154
93.2235
92.6938
90.9611
90.1352
87.949
86.5522
83.8687
81.6443
78.5236
75.3347
71.6556
67.6934
63.404
58.9173
114.242
113.787
112.116
110.628
109.67
109.248
109.255
109.488
109.771
110.003
110.146
110.196
110.163
110.073
109.956
109.843
109.755
109.706
109.701
109.742
109.827
109.951
110.107
110.29
110.492
110.706
110.927
111.147
111.36
111.558
111.735
111.883
111.993
112.059
112.073
112.032
111.93
111.763
111.523
111.208
110.819
110.37
109.893
109.432
109.038
108.765
108.655
108.743
109.055
109.601
110.374
111.352
112.501
113.77
115.107
116.462
117.799
119.086
120.295
121.4
122.37
123.181
123.825
124.312
124.657
124.881
125.005
125.055
125.054
125.016
124.95
124.862
124.757
124.639
124.512
124.379
124.241
124.098
123.951
123.802
123.649
123.493
123.336
123.177
123.016
122.853
122.69
122.525
122.359
122.193
122.026
121.858
121.689
121.52
121.351
121.181
121.01
120.839
120.668
120.496
120.323
120.151
119.976
119.803
119.626
119.453
119.27
119.094
118.902
118.721
118.518
118.332
118.127
117.941
117.745
117.564
117.375
117.194
117.004
116.821
116.623
116.437
116.231
116.044
115.84
115.656
115.456
115.271
115.065
114.876
114.662
114.471
114.258
114.069
113.854
113.661
113.438
113.239
113.013
112.816
112.589
112.389
112.151
111.946
111.702
111.496
111.248
111.034
110.772
110.555
110.286
110.066
109.784
109.553
109.257
109.024
108.714
108.471
108.141
107.892
107.544
107.286
106.911
106.645
106.244
105.971
105.535
105.256
104.782
104.497
103.974
103.69
103.111
102.829
102.182
101.912
101.183
100.926
100.102
99.858
98.9127
98.664
97.5701
97.2778
95.9973
95.5809
94.0538
93.3784
91.5343
90.4245
88.207
86.469
83.917
81.4402
78.4826
75.3307
71.862
68.1615
64.2072
60.0778
114.241
113.801
112.234
110.885
110.055
109.739
109.804
110.05
110.319
110.532
110.663
110.713
110.697
110.64
110.569
110.507
110.468
110.46
110.488
110.55
110.645
110.766
110.91
111.07
111.239
111.411
111.58
111.739
111.88
112.001
112.091
112.149
112.167
112.144
112.078
111.967
111.809
111.599
111.336
111.006
110.617
110.183
109.733
109.315
108.98
108.769
108.717
108.859
109.22
109.806
110.608
111.606
112.763
114.034
115.372
116.728
118.062
119.339
120.53
121.607
122.542
123.317
123.93
124.391
124.717
124.925
125.039
125.083
125.079
125.038
124.969
124.879
124.772
124.652
124.522
124.386
124.246
124.102
123.954
123.803
123.649
123.494
123.336
123.176
123.015
122.853
122.689
122.524
122.359
122.193
122.025
121.858
121.689
121.52
121.35
121.18
121.009
120.839
120.667
120.495
120.322
120.15
119.975
119.804
119.626
119.455
119.272
119.103
118.914
118.746
118.548
118.377
118.173
117.997
117.793
117.618
117.42
117.248
117.05
116.88
116.678
116.51
116.301
116.129
115.917
115.745
115.534
115.364
115.152
114.984
114.763
114.593
114.365
114.196
113.967
113.8
113.565
113.396
113.154
112.982
112.736
112.567
112.314
112.145
111.88
111.71
111.437
111.268
110.983
110.811
110.513
110.342
110.03
109.859
109.529
109.356
109.009
108.837
108.467
108.294
107.902
107.732
107.309
107.14
106.685
106.522
106.027
105.868
105.329
105.179
104.587
104.444
103.791
103.658
102.933
102.805
101.997
101.862
100.955
100.79
99.7613
99.5258
98.3513
97.9818
96.6273
96.0379
94.4557
93.5175
91.6869
90.2717
88.1891
86.2098
83.8023
81.2658
78.4359
75.3941
72.1098
68.6268
64.9345
61.0712
114.053
113.648
112.283
111.152
110.497
110.298
110.405
110.636
110.864
111.036
111.139
111.179
111.177
111.152
111.125
111.108
111.111
111.136
111.186
111.259
111.352
111.461
111.583
111.711
111.84
111.963
112.073
112.167
112.236
112.28
112.294
112.277
112.228
112.138
112.019
111.866
111.677
111.454
111.197
110.89
110.526
110.14
109.764
109.431
109.184
109.061
109.094
109.309
109.722
110.337
111.152
112.148
113.292
114.541
115.851
117.175
118.475
119.712
120.855
121.878
122.758
123.484
124.056
124.484
124.783
124.97
125.072
125.109
125.1
125.056
124.985
124.893
124.784
124.663
124.532
124.394
124.252
124.106
123.958
123.806
123.652
123.495
123.337
123.177
123.016
122.853
122.689
122.524
122.358
122.192
122.025
121.857
121.688
121.519
121.35
121.18
121.009
120.839
120.667
120.495
120.322
120.151
119.975
119.805
119.626
119.458
119.275
119.111
118.924
118.766
118.574
118.418
118.216
118.055
117.846
117.682
117.474
117.313
117.107
116.95
116.743
116.592
116.382
116.231
116.011
115.857
115.634
115.483
115.26
115.115
114.887
114.743
114.504
114.358
114.113
113.972
113.726
113.59
113.334
113.195
112.93
112.794
112.524
112.393
112.113
111.981
111.687
111.559
111.255
111.132
110.811
110.688
110.351
110.235
109.88
109.767
109.389
109.281
108.88
108.778
108.351
108.254
107.796
107.706
107.215
107.13
106.598
106.519
105.943
105.867
105.239
105.161
104.475
104.388
103.633
103.522
102.691
102.531
101.608
101.364
100.333
99.957
98.7916
98.2176
96.8941
96.0414
94.5436
93.3349
91.6383
90.0084
88.045
85.9752
83.661
81.1621
78.442
75.5225
72.3948
69.0818
65.5879
61.9347
113.631
113.296
112.284
111.472
111.031
110.93
111.032
111.203
111.361
111.476
111.543
111.574
111.585
111.588
111.595
111.613
111.644
111.688
111.746
111.817
111.898
111.986
112.078
112.171
112.257
112.332
112.391
112.429
112.444
112.434
112.396
112.329
112.238
112.116
111.966
111.803
111.623
111.416
111.168
110.887
110.589
110.282
110.002
109.786
109.658
109.638
109.752
110.027
110.479
111.113
111.923
112.894
113.999
115.203
116.461
117.727
118.963
120.132
121.208
122.165
122.985
123.658
124.186
124.578
124.847
125.013
125.101
125.131
125.117
125.071
124.998
124.904
124.794
124.672
124.54
124.402
124.259
124.112
123.963
123.81
123.656
123.499
123.34
123.18
123.018
122.855
122.691
122.525
122.359
122.193
122.025
121.857
121.689
121.519
121.35
121.18
121.009
120.838
120.666
120.495
120.322
120.151
119.975
119.806
119.627
119.46
119.278
119.118
118.932
118.78
118.591
118.446
118.248
118.101
117.892
117.742
117.528
117.38
117.164
117.022
116.807
116.673
116.456
116.326
116.099
115.967
115.734
115.603
115.368
115.245
115.007
114.889
114.641
114.524
114.265
114.151
113.89
113.784
113.516
113.412
113.131
113.028
112.741
112.645
112.349
112.257
111.945
111.855
111.532
111.449
111.113
111.033
110.677
110.601
110.231
110.161
109.768
109.699
109.285
109.221
108.783
108.721
108.254
108.192
107.697
107.633
107.1
107.03
106.459
106.376
105.759
105.652
104.987
104.843
104.116
103.912
103.117
102.827
101.947
101.538
100.566
99.9876
98.9072
98.1113
96.9014
95.8396
94.4639
93.0919
91.4852
89.7751
87.8697
85.8031
83.5484
81.1137
78.4896
75.6799
72.6841
69.5117
66.1746
62.6873
113.103
112.882
112.301
111.836
111.591
111.534
111.585
111.669
111.747
111.804
111.841
111.865
111.886
111.908
111.937
111.973
112.016
112.065
112.119
112.179
112.241
112.307
112.372
112.435
112.489
112.528
112.548
112.547
112.529
112.491
112.427
112.336
112.225
112.109
111.976
111.807
111.626
111.447
111.253
111.016
110.767
110.56
110.41
110.318
110.301
110.38
110.572
110.895
111.365
111.994
112.779
113.708
114.756
115.891
117.073
118.262
119.421
120.519
121.528
122.424
123.188
123.814
124.3
124.657
124.9
125.049
125.125
125.148
125.13
125.08
125.006
124.911
124.8
124.677
124.545
124.407
124.263
124.116
123.966
123.813
123.658
123.5
123.341
123.18
123.018
122.855
122.691
122.525
122.359