/*--------------------------------*- C++ -*----------------------------------*\
| =========                 |                                                 |
| \\      /  F ield         | OpenFOAM: The Open Source CFD Toolbox           |
|  \\    /   O peration     | Version:  2.4.0                                 |
|   \\  /    A nd           | Web:      www.OpenFOAM.org                      |
|    \\/     M anipulation  |                                                 |
\*---------------------------------------------------------------------------*/
FoamFile
{
    version     2.0;
    format      ascii;
    class       volScalarField;
    location    "0.05";
    object      pPrime2Mean;
}
// * * * * * * * * * * * * * * * * * * * * * * * * * * * * * * * * * * * * * //

dimensions      [0 4 -4 0 0 0 0];

internalField   nonuniform List<scalar> 
8800
(
1.29213e+07
1.25952e+07
1.22453e+07
1.18983e+07
1.15561e+07
1.12189e+07
1.08866e+07
1.05594e+07
1.02371e+07
9.91976e+06
9.60736e+06
9.29983e+06
8.99711e+06
8.69901e+06
8.40525e+06
8.11527e+06
7.82799e+06
7.54116e+06
7.24966e+06
6.93732e+06
1.29217e+07
1.25952e+07
1.22452e+07
1.18983e+07
1.15561e+07
1.12189e+07
1.08866e+07
1.05594e+07
1.02371e+07
9.91976e+06
9.60736e+06
9.29985e+06
8.99713e+06
8.69905e+06
8.40533e+06
8.11543e+06
7.82829e+06
7.54181e+06
7.25126e+06
6.94245e+06
1.2922e+07
1.25952e+07
1.22452e+07
1.18983e+07
1.15561e+07
1.12189e+07
1.08866e+07
1.05594e+07
1.02371e+07
9.91977e+06
9.60738e+06
9.29987e+06
8.99718e+06
8.69914e+06
8.40549e+06
8.11573e+06
7.8289e+06
7.54307e+06
7.25417e+06
6.95266e+06
1.29222e+07
1.25952e+07
1.22451e+07
1.18982e+07
1.15561e+07
1.12189e+07
1.08866e+07
1.05594e+07
1.02371e+07
9.91978e+06
9.60739e+06
9.29991e+06
8.99724e+06
8.69927e+06
8.40573e+06
8.11618e+06
7.82976e+06
7.54485e+06
7.25826e+06
6.96457e+06
1.29224e+07
1.25952e+07
1.2245e+07
1.18982e+07
1.1556e+07
1.12188e+07
1.08866e+07
1.05594e+07
1.02371e+07
9.91978e+06
9.60742e+06
9.29996e+06
8.99733e+06
8.69943e+06
8.40603e+06
8.11675e+06
7.83086e+06
7.54708e+06
7.26316e+06
6.9769e+06
1.29225e+07
1.25952e+07
1.2245e+07
1.18981e+07
1.1556e+07
1.12188e+07
1.08866e+07
1.05594e+07
1.02371e+07
9.9198e+06
9.60744e+06
9.30001e+06
8.99744e+06
8.69962e+06
8.40639e+06
8.11742e+06
7.83216e+06
7.54964e+06
7.26854e+06
6.98897e+06
1.29226e+07
1.25952e+07
1.22449e+07
1.18981e+07
1.1556e+07
1.12188e+07
1.08866e+07
1.05594e+07
1.02371e+07
9.91981e+06
9.60748e+06
9.30007e+06
8.99755e+06
8.69984e+06
8.4068e+06
8.11818e+06
7.8336e+06
7.55243e+06
7.27416e+06
7.00044e+06
1.29227e+07
1.25953e+07
1.22449e+07
1.1898e+07
1.1556e+07
1.12188e+07
1.08866e+07
1.05594e+07
1.02371e+07
9.91983e+06
9.60752e+06
9.30015e+06
8.99769e+06
8.70008e+06
8.40724e+06
8.11901e+06
7.83514e+06
7.55537e+06
7.27983e+06
7.01115e+06
1.29227e+07
1.25953e+07
1.22449e+07
1.1898e+07
1.1556e+07
1.12188e+07
1.08866e+07
1.05594e+07
1.02371e+07
9.91985e+06
9.60756e+06
9.30022e+06
8.99783e+06
8.70034e+06
8.40771e+06
8.11988e+06
7.83675e+06
7.55836e+06
7.28538e+06
7.021e+06
1.29228e+07
1.25953e+07
1.22449e+07
1.1898e+07
1.1556e+07
1.12188e+07
1.08866e+07
1.05594e+07
1.02371e+07
9.91987e+06
9.6076e+06
9.3003e+06
8.99797e+06
8.70061e+06
8.4082e+06
8.12076e+06
7.83838e+06
7.56133e+06
7.29071e+06
7.02997e+06
1.29228e+07
1.25953e+07
1.22449e+07
1.1898e+07
1.1556e+07
1.12188e+07
1.08866e+07
1.05594e+07
1.02371e+07
9.91989e+06
9.60764e+06
9.30038e+06
8.99812e+06
8.70087e+06
8.40869e+06
8.12165e+06
7.83998e+06
7.5642e+06
7.29572e+06
7.03806e+06
1.29227e+07
1.25953e+07
1.22449e+07
1.1898e+07
1.1556e+07
1.12189e+07
1.08866e+07
1.05594e+07
1.02372e+07
9.91992e+06
9.60769e+06
9.30046e+06
8.99826e+06
8.70114e+06
8.40916e+06
8.12251e+06
7.84152e+06
7.56692e+06
7.30034e+06
7.04528e+06
1.29227e+07
1.25953e+07
1.22449e+07
1.18981e+07
1.1556e+07
1.12189e+07
1.08866e+07
1.05594e+07
1.02372e+07
9.91994e+06
9.60773e+06
9.30054e+06
8.9984e+06
8.70139e+06
8.40962e+06
8.12333e+06
7.84298e+06
7.56945e+06
7.30454e+06
7.05164e+06
1.29226e+07
1.25952e+07
1.22449e+07
1.18981e+07
1.1556e+07
1.12189e+07
1.08866e+07
1.05594e+07
1.02372e+07
9.91997e+06
9.60777e+06
9.30061e+06
8.99853e+06
8.70162e+06
8.41004e+06
8.12408e+06
7.84431e+06
7.57173e+06
7.30826e+06
7.05716e+06
1.29225e+07
1.25952e+07
1.2245e+07
1.18981e+07
1.1556e+07
1.12189e+07
1.08866e+07
1.05594e+07
1.02372e+07
9.91999e+06
9.60781e+06
9.30068e+06
8.99865e+06
8.70183e+06
8.41042e+06
8.12476e+06
7.84549e+06
7.57374e+06
7.31149e+06
7.06187e+06
1.29224e+07
1.25952e+07
1.2245e+07
1.18982e+07
1.15561e+07
1.12189e+07
1.08867e+07
1.05594e+07
1.02372e+07
9.92002e+06
9.60784e+06
9.30073e+06
8.99875e+06
8.70202e+06
8.41075e+06
8.12535e+06
7.84651e+06
7.57545e+06
7.3142e+06
7.06577e+06
1.29222e+07
1.25952e+07
1.22451e+07
1.18982e+07
1.15561e+07
1.12189e+07
1.08867e+07
1.05595e+07
1.02372e+07
9.92004e+06
9.60787e+06
9.30078e+06
8.99884e+06
8.70217e+06
8.41102e+06
8.12583e+06
7.84735e+06
7.57684e+06
7.31638e+06
7.06888e+06
1.2922e+07
1.25952e+07
1.22452e+07
1.18983e+07
1.15561e+07
1.12189e+07
1.08867e+07
1.05595e+07
1.02372e+07
9.92005e+06
9.60789e+06
9.30082e+06
8.9989e+06
8.70229e+06
8.41123e+06
8.1262e+06
7.84799e+06
7.5779e+06
7.31802e+06
7.0712e+06
1.29217e+07
1.25952e+07
1.22453e+07
1.18983e+07
1.15561e+07
1.12189e+07
1.08867e+07
1.05595e+07
1.02373e+07
9.92006e+06
9.60791e+06
9.30084e+06
8.99895e+06
8.70237e+06
8.41138e+06
8.12646e+06
7.84842e+06
7.57861e+06
7.31912e+06
7.07274e+06
1.29213e+07
1.25952e+07
1.22453e+07
1.18983e+07
1.15561e+07
1.12189e+07
1.08867e+07
1.05595e+07
1.02373e+07
9.92006e+06
9.60791e+06
9.30085e+06
8.99897e+06
8.70241e+06
8.41145e+06
8.12658e+06
7.84864e+06
7.57897e+06
7.31967e+06
7.0735e+06
6.65416e+06
6.57783e+06
6.51959e+06
6.46925e+06
6.42259e+06
6.37816e+06
6.33531e+06
6.29364e+06
6.25288e+06
6.21285e+06
6.17343e+06
6.1345e+06
6.09601e+06
6.05789e+06
6.02009e+06
5.98256e+06
5.94528e+06
5.9082e+06
5.87131e+06
5.83459e+06
5.79802e+06
5.7616e+06
5.72531e+06
5.68914e+06
5.6531e+06
5.61718e+06
5.58137e+06
5.54568e+06
5.5101e+06
5.47463e+06
5.43927e+06
5.40403e+06
5.36891e+06
5.33391e+06
5.29903e+06
5.26428e+06
5.22967e+06
5.19519e+06
5.16084e+06
5.12663e+06
5.09255e+06
5.05861e+06
5.02481e+06
4.99112e+06
4.95757e+06
4.92414e+06
4.89082e+06
4.85763e+06
4.82455e+06
4.79159e+06
4.75874e+06
4.726e+06
4.69337e+06
4.66085e+06
4.62845e+06
4.59616e+06
4.56399e+06
4.53194e+06
4.5e+06
4.46818e+06
4.43649e+06
4.40491e+06
4.37346e+06
4.34213e+06
4.31091e+06
4.27981e+06
4.24883e+06
4.21796e+06
4.18721e+06
4.15657e+06
4.12605e+06
4.09564e+06
4.06534e+06
4.03516e+06
4.00509e+06
3.97513e+06
3.94528e+06
3.91555e+06
3.88593e+06
3.85642e+06
3.82703e+06
3.79775e+06
3.76858e+06
3.73952e+06
3.71058e+06
3.68175e+06
3.65303e+06
3.62443e+06
3.59593e+06
3.56755e+06
3.53929e+06
3.51113e+06
3.48309e+06
3.45516e+06
3.42734e+06
3.39963e+06
3.37204e+06
3.34456e+06
3.31719e+06
3.28993e+06
3.26279e+06
3.23576e+06
3.20884e+06
3.18203e+06
3.15534e+06
3.12876e+06
3.10229e+06
3.07593e+06
3.04969e+06
3.02355e+06
2.99753e+06
2.97163e+06
2.94583e+06
2.92015e+06
2.89458e+06
2.86912e+06
2.84378e+06
2.81854e+06
2.79342e+06
2.76842e+06
2.74352e+06
2.71874e+06
2.69407e+06
2.66951e+06
2.64506e+06
2.62073e+06
2.59651e+06
2.5724e+06
2.5484e+06
2.52452e+06
2.50074e+06
2.47708e+06
2.45354e+06
2.4301e+06
2.40678e+06
2.38357e+06
2.36047e+06
2.33748e+06
2.31461e+06
2.29185e+06
2.2692e+06
2.24666e+06
2.22423e+06
2.20192e+06
2.17972e+06
2.15763e+06
2.13565e+06
2.11379e+06
2.09203e+06
2.07039e+06
2.04886e+06
2.02744e+06
2.00614e+06
1.98494e+06
1.96385e+06
1.94288e+06
1.92202e+06
1.90127e+06
1.88063e+06
1.8601e+06
1.83968e+06
1.81937e+06
1.79917e+06
1.77908e+06
1.7591e+06
1.73923e+06
1.71947e+06
1.69981e+06
1.68027e+06
1.66083e+06
1.64149e+06
1.62226e+06
1.60314e+06
1.58412e+06
1.5652e+06
1.54639e+06
1.52767e+06
1.50905e+06
1.49052e+06
1.47208e+06
1.45373e+06
1.43547e+06
1.41729e+06
1.39918e+06
1.38114e+06
1.36315e+06
1.34521e+06
1.32731e+06
1.30943e+06
1.29154e+06
1.27364e+06
1.25566e+06
1.2376e+06
1.21936e+06
1.20087e+06
1.18199e+06
1.1625e+06
1.14203e+06
1.11945e+06
1.09312e+06
6.70831e+06
6.62704e+06
6.56075e+06
6.50366e+06
6.45201e+06
6.40371e+06
6.35773e+06
6.31346e+06
6.27049e+06
6.22856e+06
6.18748e+06
6.14711e+06
6.10734e+06
6.06808e+06
6.02926e+06
5.99082e+06
5.95271e+06
5.9149e+06
5.87735e+06
5.84004e+06
5.80293e+06
5.76603e+06
5.7293e+06
5.69275e+06
5.65636e+06
5.62012e+06
5.58403e+06
5.54808e+06
5.51227e+06
5.47659e+06
5.44105e+06
5.40565e+06
5.37038e+06
5.33525e+06
5.30025e+06
5.26541e+06
5.2307e+06
5.19614e+06
5.16172e+06
5.12745e+06
5.09332e+06
5.05932e+06
5.02547e+06
4.99174e+06
4.95815e+06
4.92467e+06
4.89133e+06
4.8581e+06
4.82499e+06
4.792e+06
4.75912e+06
4.72635e+06
4.6937e+06
4.66116e+06
4.62873e+06
4.59641e+06
4.56421e+06
4.53213e+06
4.50018e+06
4.46834e+06
4.43662e+06
4.40503e+06
4.37357e+06
4.34222e+06
4.31099e+06
4.27989e+06
4.2489e+06
4.21802e+06
4.18727e+06
4.15662e+06
4.12609e+06
4.09568e+06
4.06538e+06
4.03519e+06
4.00511e+06
3.97515e+06
3.94531e+06
3.91557e+06
3.88595e+06
3.85644e+06
3.82705e+06
3.79776e+06
3.76859e+06
3.73954e+06
3.71059e+06
3.68176e+06
3.65304e+06
3.62443e+06
3.59594e+06
3.56756e+06
3.53929e+06
3.51113e+06
3.48309e+06
3.45516e+06
3.42734e+06
3.39963e+06
3.37204e+06
3.34456e+06
3.31719e+06
3.28993e+06
3.26279e+06
3.23576e+06
3.20884e+06
3.18203e+06
3.15534e+06
3.12876e+06
3.10229e+06
3.07593e+06
3.04968e+06
3.02355e+06
2.99753e+06
2.97162e+06
2.94583e+06
2.92014e+06
2.89457e+06
2.86912e+06
2.84377e+06
2.81854e+06
2.79341e+06
2.76841e+06
2.74351e+06
2.71872e+06
2.69405e+06
2.66949e+06
2.64504e+06
2.62071e+06
2.59648e+06
2.57237e+06
2.54837e+06
2.52449e+06
2.50071e+06
2.47705e+06
2.4535e+06
2.43006e+06
2.40673e+06
2.38352e+06
2.36041e+06
2.33742e+06
2.31454e+06
2.29178e+06
2.26912e+06
2.24657e+06
2.22414e+06
2.20182e+06
2.17961e+06
2.15751e+06
2.13552e+06
2.11364e+06
2.09187e+06
2.07022e+06
2.04867e+06
2.02723e+06
2.0059e+06
1.98469e+06
1.96358e+06
1.94258e+06
1.92169e+06
1.90091e+06
1.88024e+06
1.85967e+06
1.83921e+06
1.81886e+06
1.79861e+06
1.77847e+06
1.75843e+06
1.7385e+06
1.71867e+06
1.69894e+06
1.67931e+06
1.65979e+06
1.64036e+06
1.62102e+06
1.60178e+06
1.58264e+06
1.56358e+06
1.54462e+06
1.52573e+06
1.50693e+06
1.48821e+06
1.46956e+06
1.45098e+06
1.43245e+06
1.41399e+06
1.39556e+06
1.37718e+06
1.35881e+06
1.34046e+06
1.32209e+06
1.30369e+06
1.28522e+06
1.26665e+06
1.24793e+06
1.229e+06
1.20976e+06
1.19008e+06
1.16975e+06
1.14844e+06
1.12572e+06
1.1002e+06
1.07e+06
6.74587e+06
6.66527e+06
6.59592e+06
6.5348e+06
6.47942e+06
6.42792e+06
6.3792e+06
6.33257e+06
6.28756e+06
6.24385e+06
6.2012e+06
6.15945e+06
6.11844e+06
6.07808e+06
6.03827e+06
5.99894e+06
5.96003e+06
5.9215e+06
5.8833e+06
5.8454e+06
5.80777e+06
5.77039e+06
5.73323e+06
5.69629e+06
5.65955e+06
5.623e+06
5.58663e+06
5.55043e+06
5.51439e+06
5.47851e+06
5.44279e+06
5.40722e+06
5.37181e+06
5.33656e+06
5.30145e+06
5.26651e+06
5.23172e+06
5.19708e+06
5.1626e+06
5.12827e+06
5.09408e+06
5.06003e+06
5.02613e+06
4.99236e+06
4.95873e+06
4.92522e+06
4.89184e+06
4.85859e+06
4.82545e+06
4.79243e+06
4.75953e+06
4.72674e+06
4.69405e+06
4.66148e+06
4.62902e+06
4.59668e+06
4.56445e+06
4.53235e+06
4.50036e+06
4.4685e+06
4.43677e+06
4.40516e+06
4.37367e+06
4.34231e+06
4.31108e+06
4.27996e+06
4.24896e+06
4.21808e+06
4.18732e+06
4.15667e+06
4.12614e+06
4.09572e+06
4.06541e+06
4.03522e+06
4.00514e+06
3.97518e+06
3.94533e+06
3.91559e+06
3.88597e+06
3.85646e+06
3.82706e+06
3.79778e+06
3.76861e+06
3.73955e+06
3.7106e+06
3.68177e+06
3.65305e+06
3.62444e+06
3.59595e+06
3.56756e+06
3.5393e+06
3.51114e+06
3.48309e+06
3.45516e+06
3.42734e+06
3.39964e+06
3.37204e+06
3.34456e+06
3.31719e+06
3.28993e+06
3.26279e+06
3.23576e+06
3.20884e+06
3.18203e+06
3.15534e+06
3.12875e+06
3.10228e+06
3.07593e+06
3.04968e+06
3.02355e+06
2.99753e+06
2.97162e+06
2.94582e+06
2.92014e+06
2.89457e+06
2.86911e+06
2.84376e+06
2.81853e+06
2.7934e+06
2.76839e+06
2.7435e+06
2.71871e+06
2.69404e+06
2.66948e+06
2.64503e+06
2.62069e+06
2.59646e+06
2.57235e+06
2.54835e+06
2.52446e+06
2.50068e+06
2.47702e+06
2.45346e+06
2.43002e+06
2.40669e+06
2.38347e+06
2.36036e+06
2.33736e+06
2.31448e+06
2.2917e+06
2.26904e+06
2.24649e+06
2.22405e+06
2.20172e+06
2.17949e+06
2.15739e+06
2.13538e+06
2.11349e+06
2.09171e+06
2.07004e+06
2.04848e+06
2.02702e+06
2.00568e+06
1.98444e+06
1.96331e+06
1.94228e+06
1.92137e+06
1.90055e+06
1.87985e+06
1.85924e+06
1.83875e+06
1.81835e+06
1.79806e+06
1.77786e+06
1.75777e+06
1.73778e+06
1.71788e+06
1.69808e+06
1.67837e+06
1.65876e+06
1.63923e+06
1.6198e+06
1.60044e+06
1.58117e+06
1.56199e+06
1.54287e+06
1.52383e+06
1.50485e+06
1.48593e+06
1.46707e+06
1.44826e+06
1.42948e+06
1.41074e+06
1.39202e+06
1.3733e+06
1.35457e+06
1.3358e+06
1.31699e+06
1.29809e+06
1.27908e+06
1.2599e+06
1.24049e+06
1.22078e+06
1.20065e+06
1.17992e+06
1.1585e+06
1.13574e+06
1.11167e+06
1.08483e+06
1.05419e+06
6.77439e+06
6.69593e+06
6.62579e+06
6.56247e+06
6.5045e+06
6.45048e+06
6.39946e+06
6.35076e+06
6.30391e+06
6.25856e+06
6.21445e+06
6.17139e+06
6.12921e+06
6.08779e+06
6.04703e+06
6.00684e+06
5.96716e+06
5.92793e+06
5.8891e+06
5.85063e+06
5.81248e+06
5.77464e+06
5.73706e+06
5.69975e+06
5.66267e+06
5.62581e+06
5.58916e+06
5.55271e+06
5.51645e+06
5.48038e+06
5.44448e+06
5.40876e+06
5.37322e+06
5.33784e+06
5.30264e+06
5.2676e+06
5.23273e+06
5.19802e+06
5.16347e+06
5.12908e+06
5.09483e+06
5.06074e+06
5.02679e+06
4.99298e+06
4.95931e+06
4.92577e+06
4.89237e+06
4.85909e+06
4.82593e+06
4.79289e+06
4.75996e+06
4.72714e+06
4.69443e+06
4.66183e+06
4.62934e+06
4.59697e+06
4.56471e+06
4.53257e+06
4.50056e+06
4.46867e+06
4.43691e+06
4.40528e+06
4.37378e+06
4.34241e+06
4.31116e+06
4.28003e+06
4.24903e+06
4.21814e+06
4.18737e+06
4.15672e+06
4.12618e+06
4.09575e+06
4.06544e+06
4.03525e+06
4.00517e+06
3.9752e+06
3.94535e+06
3.91561e+06
3.88599e+06
3.85647e+06
3.82708e+06
3.79779e+06
3.76862e+06
3.73956e+06
3.71061e+06
3.68178e+06
3.65306e+06
3.62445e+06
3.59595e+06
3.56757e+06
3.5393e+06
3.51114e+06
3.4831e+06
3.45517e+06
3.42735e+06
3.39964e+06
3.37204e+06
3.34456e+06
3.31719e+06
3.28993e+06
3.26279e+06
3.23576e+06
3.20884e+06
3.18203e+06
3.15533e+06
3.12875e+06
3.10228e+06
3.07592e+06
3.04968e+06
3.02354e+06
2.99752e+06
2.97161e+06
2.94582e+06
2.92013e+06
2.89456e+06
2.8691e+06
2.84375e+06
2.81852e+06
2.79339e+06
2.76838e+06
2.74348e+06
2.7187e+06
2.69402e+06
2.66946e+06
2.64501e+06
2.62067e+06
2.59644e+06
2.57233e+06
2.54832e+06
2.52443e+06
2.50065e+06
2.47698e+06
2.45342e+06
2.42998e+06
2.40664e+06
2.38342e+06
2.36031e+06
2.33731e+06
2.31441e+06
2.29164e+06
2.26896e+06
2.24641e+06
2.22395e+06
2.20162e+06
2.17939e+06
2.15727e+06
2.13525e+06
2.11335e+06
2.09156e+06
2.06987e+06
2.04829e+06
2.02682e+06
2.00545e+06
1.98419e+06
1.96304e+06
1.94199e+06
1.92105e+06
1.90021e+06
1.87946e+06
1.85883e+06
1.83829e+06
1.81785e+06
1.79751e+06
1.77727e+06
1.75712e+06
1.73707e+06
1.71711e+06
1.69723e+06
1.67745e+06
1.65775e+06
1.63813e+06
1.61859e+06
1.59913e+06
1.57974e+06
1.56042e+06
1.54116e+06
1.52196e+06
1.50281e+06
1.4837e+06
1.46464e+06
1.4456e+06
1.42659e+06
1.40758e+06
1.38856e+06
1.36952e+06
1.35044e+06
1.3313e+06
1.31206e+06
1.2927e+06
1.27318e+06
1.25342e+06
1.23342e+06
1.21296e+06
1.19217e+06
1.17048e+06
1.14831e+06
1.12461e+06
1.09969e+06
1.07256e+06
1.04258e+06
6.79749e+06
6.72117e+06
6.65118e+06
6.58676e+06
6.5271e+06
6.4712e+06
6.41832e+06
6.36787e+06
6.3194e+06
6.27258e+06
6.22713e+06
6.18285e+06
6.13957e+06
6.09716e+06
6.05549e+06
6.01449e+06
5.97407e+06
5.93416e+06
5.89472e+06
5.8557e+06
5.81706e+06
5.77876e+06
5.74078e+06
5.7031e+06
5.66568e+06
5.62853e+06
5.59161e+06
5.55493e+06
5.51846e+06
5.4822e+06
5.44614e+06
5.41027e+06
5.3746e+06
5.33911e+06
5.30381e+06
5.26868e+06
5.23373e+06
5.19894e+06
5.16432e+06
5.12987e+06
5.09557e+06
5.06143e+06
5.02744e+06
4.9936e+06
4.9599e+06
4.92634e+06
4.89291e+06
4.85961e+06
4.82643e+06
4.79336e+06
4.76041e+06
4.72756e+06
4.69482e+06
4.66219e+06
4.62967e+06
4.59726e+06
4.56497e+06
4.5328e+06
4.50075e+06
4.46884e+06
4.43706e+06
4.40541e+06
4.37389e+06
4.3425e+06
4.31124e+06
4.2801e+06
4.24909e+06
4.2182e+06
4.18742e+06
4.15676e+06
4.12622e+06
4.09579e+06
4.06548e+06
4.03528e+06
4.0052e+06
3.97523e+06
3.94537e+06
3.91563e+06
3.886e+06
3.85649e+06
3.82709e+06
3.7978e+06
3.76863e+06
3.73957e+06
3.71062e+06
3.68179e+06
3.65306e+06
3.62446e+06
3.59596e+06
3.56758e+06
3.5393e+06
3.51115e+06
3.4831e+06
3.45517e+06
3.42735e+06
3.39964e+06
3.37204e+06
3.34456e+06
3.31719e+06
3.28993e+06
3.26279e+06
3.23576e+06
3.20884e+06
3.18203e+06
3.15533e+06
3.12875e+06
3.10228e+06
3.07592e+06
3.04967e+06
3.02354e+06
2.99752e+06
2.97161e+06
2.94581e+06
2.92013e+06
2.89455e+06
2.8691e+06
2.84375e+06
2.81851e+06
2.79339e+06
2.76838e+06
2.74347e+06
2.71869e+06
2.69401e+06
2.66945e+06
2.64499e+06
2.62065e+06
2.59642e+06
2.57231e+06
2.5483e+06
2.52441e+06
2.50062e+06
2.47695e+06
2.45339e+06
2.42994e+06
2.4066e+06
2.38338e+06
2.36026e+06
2.33725e+06
2.31435e+06
2.29157e+06
2.26889e+06
2.24633e+06
2.22387e+06
2.20152e+06
2.17928e+06
2.15715e+06
2.13512e+06
2.11321e+06
2.0914e+06
2.06971e+06
2.04811e+06
2.02662e+06
2.00523e+06
1.98396e+06
1.96278e+06
1.94171e+06
1.92073e+06
1.89987e+06
1.87909e+06
1.85842e+06
1.83784e+06
1.81737e+06
1.79698e+06
1.77669e+06
1.75649e+06
1.73638e+06
1.71635e+06
1.69641e+06
1.67654e+06
1.65677e+06
1.63705e+06
1.61742e+06
1.59784e+06
1.57834e+06
1.55889e+06
1.53949e+06
1.52013e+06
1.50083e+06
1.48154e+06
1.46228e+06
1.44302e+06
1.42378e+06
1.40451e+06
1.38523e+06
1.36587e+06
1.34648e+06
1.32696e+06
1.30736e+06
1.28753e+06
1.26761e+06
1.24725e+06
1.2268e+06
1.20566e+06
1.18431e+06
1.162e+06
1.13912e+06
1.11499e+06
1.08951e+06
1.06245e+06
1.03329e+06
6.81692e+06
6.74243e+06
6.67294e+06
6.60804e+06
6.5473e+06
6.49004e+06
6.4357e+06
6.38379e+06
6.33394e+06
6.28581e+06
6.23915e+06
6.19376e+06
6.14947e+06
6.10612e+06
6.06361e+06
6.02184e+06
5.98071e+06
5.94017e+06
5.90015e+06
5.8606e+06
5.82148e+06
5.78275e+06
5.74438e+06
5.70634e+06
5.66862e+06
5.63118e+06
5.59401e+06
5.55709e+06
5.52042e+06
5.48398e+06
5.44776e+06
5.41176e+06
5.37596e+06
5.34036e+06
5.30495e+06
5.26973e+06
5.2347e+06
5.19984e+06
5.16516e+06
5.13064e+06
5.0963e+06
5.06211e+06
5.02809e+06
4.99421e+06
4.96049e+06
4.92691e+06
4.89346e+06
4.86014e+06
4.82694e+06
4.79385e+06
4.76087e+06
4.728e+06
4.69523e+06
4.66256e+06
4.63e+06
4.59756e+06
4.56523e+06
4.53303e+06
4.50095e+06
4.46901e+06
4.4372e+06
4.40553e+06
4.37399e+06
4.34259e+06
4.31132e+06
4.28017e+06
4.24915e+06
4.21825e+06
4.18747e+06
4.1568e+06
4.12626e+06
4.09582e+06
4.06551e+06
4.03531e+06
4.00522e+06
3.97525e+06
3.94539e+06
3.91565e+06
3.88602e+06
3.85651e+06
3.8271e+06
3.79782e+06
3.76864e+06
3.73958e+06
3.71063e+06
3.68179e+06
3.65307e+06
3.62446e+06
3.59597e+06
3.56758e+06
3.53931e+06
3.51115e+06
3.4831e+06
3.45517e+06
3.42735e+06
3.39964e+06
3.37205e+06
3.34456e+06
3.31719e+06
3.28993e+06
3.26279e+06
3.23576e+06
3.20884e+06
3.18203e+06
3.15533e+06
3.12875e+06
3.10228e+06
3.07592e+06
3.04967e+06
3.02354e+06
2.99752e+06
2.97161e+06
2.94581e+06
2.92012e+06
2.89455e+06
2.86909e+06
2.84374e+06
2.81851e+06
2.79338e+06
2.76837e+06
2.74347e+06
2.71868e+06
2.694e+06
2.66943e+06
2.64498e+06
2.62064e+06
2.59641e+06
2.57229e+06
2.54828e+06
2.52438e+06
2.5006e+06
2.47692e+06
2.45336e+06
2.42991e+06
2.40656e+06
2.38334e+06
2.36021e+06
2.3372e+06
2.3143e+06
2.29151e+06
2.26882e+06
2.24625e+06
2.22378e+06
2.20143e+06
2.17918e+06
2.15705e+06
2.13501e+06
2.11309e+06
2.09126e+06
2.06955e+06
2.04793e+06
2.02644e+06
2.00503e+06
1.98374e+06
1.96253e+06
1.94144e+06
1.92043e+06
1.89955e+06
1.87873e+06
1.85804e+06
1.83741e+06
1.81691e+06
1.79647e+06
1.77614e+06
1.75587e+06
1.73572e+06
1.71561e+06
1.69562e+06
1.67567e+06
1.65582e+06
1.63601e+06
1.6163e+06
1.5966e+06
1.577e+06
1.55741e+06
1.5379e+06
1.51837e+06
1.49893e+06
1.47944e+06
1.46002e+06
1.44053e+06
1.4211e+06
1.40155e+06
1.38204e+06
1.36236e+06
1.34271e+06
1.3228e+06
1.3029e+06
1.28264e+06
1.26233e+06
1.24154e+06
1.22059e+06
1.19905e+06
1.17709e+06
1.15441e+06
1.13094e+06
1.10651e+06
1.08077e+06
1.05389e+06
1.02549e+06
6.83363e+06
6.76065e+06
6.69174e+06
6.62669e+06
6.56528e+06
6.50704e+06
6.45157e+06
6.39848e+06
6.34744e+06
6.29818e+06
6.25045e+06
6.20406e+06
6.15884e+06
6.11464e+06
6.07135e+06
6.02885e+06
5.98707e+06
5.94593e+06
5.90536e+06
5.86531e+06
5.82573e+06
5.7866e+06
5.74785e+06
5.70948e+06
5.67145e+06
5.63374e+06
5.59633e+06
5.5592e+06
5.52233e+06
5.48572e+06
5.44934e+06
5.4132e+06
5.37727e+06
5.34156e+06
5.30606e+06
5.27075e+06
5.23564e+06
5.20071e+06
5.16596e+06
5.1314e+06
5.09701e+06
5.06278e+06
5.02873e+06
4.99483e+06
4.96108e+06
4.92747e+06
4.894e+06
4.86066e+06
4.82744e+06
4.79433e+06
4.76133e+06
4.72843e+06
4.69562e+06
4.66292e+06
4.63033e+06
4.59785e+06
4.56549e+06
4.53326e+06
4.50115e+06
4.46918e+06
4.43734e+06
4.40565e+06
4.37409e+06
4.34268e+06
4.31139e+06
4.28024e+06
4.24921e+06
4.2183e+06
4.18751e+06
4.15684e+06
4.12629e+06
4.09586e+06
4.06554e+06
4.03533e+06
4.00525e+06
3.97527e+06
3.94541e+06
3.91567e+06
3.88604e+06
3.85652e+06
3.82712e+06
3.79783e+06
3.76865e+06
3.73959e+06
3.71064e+06
3.6818e+06
3.65308e+06
3.62447e+06
3.59597e+06
3.56759e+06
3.53931e+06
3.51115e+06
3.48311e+06
3.45517e+06
3.42735e+06
3.39964e+06
3.37205e+06
3.34456e+06
3.31719e+06
3.28994e+06
3.26279e+06
3.23576e+06
3.20883e+06
3.18203e+06
3.15533e+06
3.12875e+06
3.10228e+06
3.07592e+06
3.04967e+06
3.02354e+06
2.99751e+06
2.9716e+06
2.94581e+06
2.92012e+06
2.89455e+06
2.86909e+06
2.84374e+06
2.8185e+06
2.79337e+06
2.76836e+06
2.74346e+06
2.71867e+06
2.69399e+06
2.66943e+06
2.64497e+06
2.62063e+06
2.59639e+06
2.57227e+06
2.54826e+06
2.52437e+06
2.50057e+06
2.4769e+06
2.45333e+06
2.42988e+06
2.40653e+06
2.3833e+06
2.36017e+06
2.33716e+06
2.31425e+06
2.29146e+06
2.26876e+06
2.24619e+06
2.22371e+06
2.20135e+06
2.17909e+06
2.15695e+06
2.1349e+06
2.11297e+06
2.09113e+06
2.06941e+06
2.04778e+06
2.02626e+06
2.00484e+06
1.98353e+06
1.9623e+06
1.94119e+06
1.92016e+06
1.89924e+06
1.8784e+06
1.85768e+06
1.83702e+06
1.81647e+06
1.79599e+06
1.77562e+06
1.7553e+06
1.7351e+06
1.71493e+06
1.69488e+06
1.67485e+06
1.65493e+06
1.63503e+06
1.61523e+06
1.59543e+06
1.57573e+06
1.55601e+06
1.53638e+06
1.51671e+06
1.49713e+06
1.47747e+06
1.45788e+06
1.43819e+06
1.41856e+06
1.39878e+06
1.37903e+06
1.35909e+06
1.33915e+06
1.31895e+06
1.2987e+06
1.27813e+06
1.2574e+06
1.2363e+06
1.21487e+06
1.19298e+06
1.17054e+06
1.1475e+06
1.12362e+06
1.09896e+06
1.07318e+06
1.04651e+06
1.01876e+06
6.84821e+06
6.77643e+06
6.70809e+06
6.64306e+06
6.58123e+06
6.5223e+06
6.46596e+06
6.41191e+06
6.35989e+06
6.30965e+06
6.26098e+06
6.2137e+06
6.16765e+06
6.12267e+06
6.07866e+06
6.0355e+06
5.9931e+06
5.9514e+06
5.91032e+06
5.8698e+06
5.8298e+06
5.79027e+06
5.75118e+06
5.71249e+06
5.67417e+06
5.6362e+06
5.59856e+06
5.56122e+06
5.52417e+06
5.48738e+06
5.45086e+06
5.41458e+06
5.37854e+06
5.34272e+06
5.30712e+06
5.27173e+06
5.23654e+06
5.20154e+06
5.16674e+06
5.13213e+06
5.09769e+06
5.06344e+06
5.02935e+06
4.99542e+06
4.96165e+06
4.92803e+06
4.89454e+06
4.86118e+06
4.82793e+06
4.7948e+06
4.76177e+06
4.72884e+06
4.696e+06
4.66327e+06
4.63064e+06
4.59812e+06
4.56573e+06
4.53347e+06
4.50133e+06
4.46933e+06
4.43747e+06
4.40576e+06
4.37419e+06
4.34276e+06
4.31146e+06
4.2803e+06
4.24926e+06
4.21835e+06
4.18755e+06
4.15688e+06
4.12633e+06
4.09589e+06
4.06557e+06
4.03536e+06
4.00527e+06
3.97529e+06
3.94543e+06
3.91569e+06
3.88605e+06
3.85653e+06
3.82713e+06
3.79784e+06
3.76866e+06
3.7396e+06
3.71065e+06
3.68181e+06
3.65309e+06
3.62447e+06
3.59598e+06
3.56759e+06
3.53932e+06
3.51116e+06
3.48311e+06
3.45518e+06
3.42735e+06
3.39965e+06
3.37205e+06
3.34457e+06
3.31719e+06
3.28994e+06
3.26279e+06
3.23576e+06
3.20883e+06
3.18203e+06
3.15533e+06
3.12875e+06
3.10227e+06
3.07592e+06
3.04967e+06
3.02353e+06
2.99751e+06
2.9716e+06
2.9458e+06
2.92012e+06
2.89454e+06
2.86908e+06
2.84373e+06
2.8185e+06
2.79337e+06
2.76836e+06
2.74345e+06
2.71866e+06
2.69398e+06
2.66942e+06
2.64496e+06
2.62062e+06
2.59638e+06
2.57226e+06
2.54825e+06
2.52435e+06
2.50056e+06
2.47688e+06
2.45331e+06
2.42985e+06
2.4065e+06
2.38327e+06
2.36013e+06
2.33712e+06
2.3142e+06
2.29141e+06
2.26871e+06
2.24613e+06
2.22365e+06
2.20128e+06
2.17901e+06
2.15686e+06
2.1348e+06
2.11286e+06
2.09101e+06
2.06928e+06
2.04763e+06
2.0261e+06
2.00466e+06
1.98333e+06
1.96209e+06
1.94096e+06
1.9199e+06
1.89896e+06
1.87809e+06
1.85734e+06
1.83665e+06
1.81606e+06
1.79554e+06
1.77513e+06
1.75476e+06
1.73451e+06
1.71429e+06
1.69417e+06
1.67408e+06
1.65409e+06
1.63411e+06
1.61422e+06
1.59433e+06
1.57453e+06
1.5547e+06
1.53495e+06
1.51516e+06
1.49542e+06
1.47562e+06
1.45586e+06
1.436e+06
1.41616e+06
1.39619e+06
1.37621e+06
1.35605e+06
1.33582e+06
1.31538e+06
1.29481e+06
1.27396e+06
1.25287e+06
1.23144e+06
1.20962e+06
1.18737e+06
1.16457e+06
1.14121e+06
1.11709e+06
1.09228e+06
1.06658e+06
1.04014e+06
1.0129e+06
6.86101e+06
6.79019e+06
6.72236e+06
6.65744e+06
6.59536e+06
6.53593e+06
6.47892e+06
6.4241e+06
6.37126e+06
6.3202e+06
6.27072e+06
6.22265e+06
6.17584e+06
6.13017e+06
6.0855e+06
6.04173e+06
5.99877e+06
5.95655e+06
5.91499e+06
5.87404e+06
5.83364e+06
5.79375e+06
5.75433e+06
5.71535e+06
5.67676e+06
5.63855e+06
5.60068e+06
5.56314e+06
5.52591e+06
5.48897e+06
5.45231e+06
5.4159e+06
5.37974e+06
5.34382e+06
5.30813e+06
5.27266e+06
5.2374e+06
5.20234e+06
5.16749e+06
5.13283e+06
5.09835e+06
5.06406e+06
5.02994e+06
4.99599e+06
4.9622e+06
4.92855e+06
4.89505e+06
4.86166e+06
4.8284e+06
4.79524e+06
4.76218e+06
4.72922e+06
4.69635e+06
4.66358e+06
4.63092e+06
4.59837e+06
4.56595e+06
4.53366e+06
4.5015e+06
4.46947e+06
4.43759e+06
4.40586e+06
4.37427e+06
4.34283e+06
4.31152e+06
4.28035e+06
4.24931e+06
4.21839e+06
4.18759e+06
4.15692e+06
4.12636e+06
4.09592e+06
4.06559e+06
4.03538e+06
4.00529e+06
3.97531e+06
3.94545e+06
3.9157e+06
3.88607e+06
3.85655e+06
3.82714e+06
3.79785e+06
3.76867e+06
3.73961e+06
3.71066e+06
3.68182e+06
3.65309e+06
3.62448e+06
3.59598e+06
3.5676e+06
3.53932e+06
3.51116e+06
3.48311e+06
3.45518e+06
3.42736e+06
3.39965e+06
3.37205e+06
3.34457e+06
3.31719e+06
3.28994e+06
3.26279e+06
3.23576e+06
3.20883e+06
3.18202e+06
3.15533e+06
3.12874e+06
3.10227e+06
3.07591e+06
3.04967e+06
3.02353e+06
2.99751e+06
2.9716e+06
2.9458e+06
2.92012e+06
2.89454e+06
2.86908e+06
2.84373e+06
2.81849e+06
2.79337e+06
2.76835e+06
2.74345e+06
2.71866e+06
2.69398e+06
2.66941e+06
2.64495e+06
2.6206e+06
2.59637e+06
2.57225e+06
2.54823e+06
2.52433e+06
2.50054e+06
2.47686e+06
2.45329e+06
2.42983e+06
2.40647e+06
2.38323e+06
2.3601e+06
2.33708e+06
2.31416e+06
2.29136e+06
2.26866e+06
2.24607e+06
2.22358e+06
2.20121e+06
2.17893e+06
2.15677e+06
2.13471e+06
2.11276e+06
2.0909e+06
2.06915e+06
2.0475e+06
2.02595e+06
2.0045e+06
1.98315e+06
1.96189e+06
1.94074e+06
1.91966e+06
1.8987e+06
1.8778e+06
1.85702e+06
1.8363e+06
1.81568e+06
1.79512e+06
1.77467e+06
1.75426e+06
1.73395e+06
1.71369e+06
1.69351e+06
1.67336e+06
1.6533e+06
1.63325e+06
1.61328e+06
1.59331e+06
1.5734e+06
1.55348e+06
1.53361e+06
1.5137e+06
1.49382e+06
1.47389e+06
1.45396e+06
1.43396e+06
1.41392e+06
1.39377e+06
1.37356e+06
1.3532e+06
1.33271e+06
1.31203e+06
1.29115e+06
1.27003e+06
1.24862e+06
1.22689e+06
1.20475e+06
1.1822e+06
1.15912e+06
1.13554e+06
1.11128e+06
1.08643e+06
1.06084e+06
1.03462e+06
1.00779e+06
6.87227e+06
6.80222e+06
6.73485e+06
6.67006e+06
6.60784e+06
6.54805e+06
6.49052e+06
6.43508e+06
6.38157e+06
6.3298e+06
6.27962e+06
6.23087e+06
6.1834e+06
6.1371e+06
6.09184e+06
6.04752e+06
6.00405e+06
5.96136e+06
5.91936e+06
5.87801e+06
5.83724e+06
5.79702e+06
5.75729e+06
5.71803e+06
5.67919e+06
5.64075e+06
5.60268e+06
5.56495e+06
5.52756e+06
5.49047e+06
5.45367e+06
5.41714e+06
5.38088e+06
5.34486e+06
5.30908e+06
5.27354e+06
5.23821e+06
5.2031e+06
5.16819e+06
5.13349e+06
5.09898e+06
5.06465e+06
5.03051e+06
4.99653e+06
4.96272e+06
4.92905e+06
4.89552e+06
4.86211e+06
4.82882e+06
4.79564e+06
4.76255e+06
4.72956e+06
4.69666e+06
4.66385e+06
4.63116e+06
4.59858e+06
4.56613e+06
4.53382e+06
4.50163e+06
4.46959e+06
4.43769e+06
4.40595e+06
4.37435e+06
4.34289e+06
4.31158e+06
4.2804e+06
4.24935e+06
4.21843e+06
4.18763e+06
4.15695e+06
4.12639e+06
4.09594e+06
4.06562e+06
4.03541e+06
4.00531e+06
3.97533e+06
3.94547e+06
3.91572e+06
3.88608e+06
3.85656e+06
3.82715e+06
3.79786e+06
3.76868e+06
3.73962e+06
3.71066e+06
3.68182e+06
3.6531e+06
3.62449e+06
3.59599e+06
3.5676e+06
3.53933e+06
3.51116e+06
3.48312e+06
3.45518e+06
3.42736e+06
3.39965e+06
3.37205e+06
3.34457e+06
3.3172e+06
3.28994e+06
3.26279e+06
3.23575e+06
3.20883e+06
3.18202e+06
3.15533e+06
3.12874e+06
3.10227e+06
3.07591e+06
3.04966e+06
3.02353e+06
2.99751e+06
2.9716e+06
2.9458e+06
2.92011e+06
2.89454e+06
2.86908e+06
2.84373e+06
2.81849e+06
2.79336e+06
2.76834e+06
2.74344e+06
2.71865e+06
2.69397e+06
2.6694e+06
2.64494e+06
2.62059e+06
2.59636e+06
2.57223e+06
2.54822e+06
2.52431e+06
2.50052e+06
2.47684e+06
2.45326e+06
2.4298e+06
2.40645e+06
2.3832e+06
2.36007e+06
2.33704e+06
2.31412e+06
2.29131e+06
2.26861e+06
2.24601e+06
2.22352e+06
2.20114e+06
2.17886e+06
2.15669e+06
2.13462e+06
2.11266e+06
2.09079e+06
2.06903e+06
2.04737e+06
2.02581e+06
2.00434e+06
1.98298e+06
1.9617e+06
1.94053e+06
1.91944e+06
1.89844e+06
1.87753e+06
1.85671e+06
1.83597e+06
1.81532e+06
1.79473e+06
1.77423e+06
1.75379e+06
1.73343e+06
1.71312e+06
1.69288e+06
1.67269e+06
1.65255e+06
1.63244e+06
1.61239e+06
1.59235e+06
1.57234e+06
1.55233e+06
1.53234e+06
1.51233e+06
1.49232e+06
1.47227e+06
1.45218e+06
1.43203e+06
1.41181e+06
1.39149e+06
1.37106e+06
1.3505e+06
1.32977e+06
1.30886e+06
1.28773e+06
1.26635e+06
1.24466e+06
1.22267e+06
1.20027e+06
1.17751e+06
1.15423e+06
1.1305e+06
1.10617e+06
1.08131e+06
1.05583e+06
1.02982e+06
1.00331e+06
6.88216e+06
6.81274e+06
6.74575e+06
6.68111e+06
6.61881e+06
6.55875e+06
6.50083e+06
6.44489e+06
6.39083e+06
6.33847e+06
6.28769e+06
6.23835e+06
6.19031e+06
6.14345e+06
6.09766e+06
6.05285e+06
6.00892e+06
5.96579e+06
5.9234e+06
5.88168e+06
5.84058e+06
5.80004e+06
5.76003e+06
5.72051e+06
5.68144e+06
5.64279e+06
5.60453e+06
5.56664e+06
5.52909e+06
5.49186e+06
5.45493e+06
5.4183e+06
5.38193e+06
5.34583e+06
5.30998e+06
5.27436e+06
5.23897e+06
5.20381e+06
5.16886e+06
5.13411e+06
5.09956e+06
5.06521e+06
5.03103e+06
4.99703e+06
4.96318e+06
4.92949e+06
4.89593e+06
4.8625e+06