/*--------------------------------*- C++ -*----------------------------------*\
| =========                 |                                                 |
| \\      /  F ield         | OpenFOAM: The Open Source CFD Toolbox           |
|  \\    /   O peration     | Version:  2.4.0                                 |
|   \\  /    A nd           | Web:      www.OpenFOAM.org                      |
|    \\/     M anipulation  |                                                 |
\*---------------------------------------------------------------------------*/
FoamFile
{
    version     2.0;
    format      ascii;
    class       volScalarField;
    location    "1.06";
    object      p;
}
// * * * * * * * * * * * * * * * * * * * * * * * * * * * * * * * * * * * * * //

dimensions      [0 2 -2 0 0 0 0];

internalField   nonuniform List<scalar> 
4400
(
-23.3977
-24.7742
-25.1574
-24.4276
-25.1729
-24.6372
-25.1141
-25.1831
-24.8229
-25.6343
-25.1039
-25.2807
-26.364
-25.1333
-26.1646
-26.2434
-25.7162
-26.073
-25.3299
-27.7966
-23.4419
-24.8724
-25.3096
-24.4517
-25.2
-24.6165
-25.0963
-25.1594
-24.8057
-25.6883
-25.1309
-25.2797
-26.3945
-25.1397
-26.128
-26.2556
-25.7505
-26.1229
-25.319
-27.1147
-23.4992
-24.9903
-25.3621
-24.5086
-25.2698
-24.6322
-25.0616
-25.2629
-24.856
-25.6083
-25.2752
-25.2778
-26.3347
-25.167
-26.0758
-26.2766
-25.7711
-26.1057
-25.4244
-27.0157
-23.5887
-24.8995
-25.317
-24.5846
-25.2485
-24.6427
-25.0506
-25.3105
-24.849
-25.6411
-25.2805
-25.2316
-26.2948
-25.2489
-26.0149
-26.287
-25.7728
-26.2535
-25.6045
-26.7163
-23.644
-24.7931
-25.2862
-24.6065
-25.2296
-24.6951
-25.0011
-25.3353
-24.8642
-25.571
-25.3562
-25.2903
-26.2795
-25.3681
-26.0633
-26.3304
-25.9
-26.508
-25.8254
-26.7041
-23.7001
-24.6941
-25.2598
-24.6186
-25.192
-24.7374
-24.971
-25.3683
-24.8655
-25.5734
-25.4009
-25.2843
-26.2563
-25.4885
-26.0612
-26.3803
-26.0572
-26.7684
-26.0203
-26.7336
-23.7544
-24.6263
-25.2336
-24.5901
-25.1423
-24.8369
-24.9244
-25.39
-24.9398
-25.5551
-25.4394
-25.2941
-26.1152
-25.5817
-26.0093
-26.4253
-26.2311
-26.8684
-26.1228
-26.85
-23.8004
-24.5728
-25.2073
-24.5679
-25.0964
-24.6956
-24.8851
-25.4048
-24.926
-25.5238
-25.4713
-25.2755
-26.0789
-25.6494
-25.9195
-26.4474
-26.2973
-26.7993
-26.2004
-26.9482
-23.8522
-24.5322
-25.2054
-24.5574
-25.0324
-24.7903
-24.8575
-25.4028
-24.9545
-25.4915
-25.4915
-25.3125
-26.0426
-25.673
-25.8363
-26.4643
-26.2262
-26.6302
-26.292
-26.984
-23.8932
-24.4921
-25.219
-24.5486
-24.9753
-24.8351
-24.8197
-25.4126
-24.9612
-25.4535
-25.5268
-25.2652
-25.9925
-25.7031
-25.7753
-26.4632
-26.1311
-26.4821
-26.4135
-26.9836
-23.9356
-24.4521
-25.2315
-24.5524
-24.9111
-24.8884
-24.7907
-25.4112
-24.9813
-25.418
-25.5551
-25.3226
-25.9525
-25.7297
-25.7396
-26.458
-26.0672
-26.3692
-26.5341
-26.9919
-23.9709
-24.3994
-25.242
-24.5543
-24.8533
-24.9375
-24.7584
-25.4102
-24.9956
-25.374
-25.5826
-25.277
-25.908
-25.7684
-25.718
-26.4246
-26.0555
-26.3134
-26.6341
-27.0054
-24.0027
-24.3519
-25.2457
-24.5595
-24.7995
-24.9777
-24.7363
-25.4108
-25.0056
-25.3339
-25.6053
-25.2827
-25.8758
-25.8006
-25.7015
-26.4015
-26.0491
-26.2764
-26.7567
-27.0188
-24.03
-24.2982
-25.2546
-24.5699
-24.7437
-25.0207
-24.7129
-25.4076
-25.0312
-25.2958
-25.6291
-25.2922
-25.8448
-25.8281
-25.6939
-26.3704
-26.0576
-26.2724
-26.8397
-27.0266
-24.0485
-24.2519
-25.2562
-24.5769
-24.6991
-25.0513
-24.6913
-25.408
-25.045
-25.2569
-25.6534
-25.2959
-25.8191
-25.8492
-25.691
-26.3557
-26.0638
-26.2766
-26.9366
-27.0307
-24.0621
-24.2012
-25.2599
-24.5896
-24.6513
-25.0839
-24.6723
-25.4006
-25.0676
-25.2212
-25.6735
-25.3038
-25.7985
-25.8708
-25.691
-26.333
-26.0823
-26.3036
-26.9901
-27.0443
-24.0638
-24.1612
-25.2588
-24.5978
-24.6147
-25.1059
-24.6581
-25.395
-25.0905
-25.1833
-25.6879
-25.3163
-25.7704
-25.8777
-25.7083
-26.3184
-26.0696
-26.3407
-27.0584
-27.0093
-24.0569
-24.1211
-25.2597
-24.6063
-24.5819
-25.1256
-24.6436
-25.3897
-25.1099
-25.1869
-25.7043
-25.3221
-25.7594
-25.892
-25.709
-26.3065
-26.0856
-26.3713
-27.0921
-27.0097
-24.041
-24.0872
-25.2538
-24.6149
-24.5534
-25.1414
-24.6288
-25.3758
-25.1514
-25.1545
-25.7097
-25.3474
-25.7293
-25.893
-25.7457
-26.2891
-26.0529
-26.4492
-27.1288
-26.9279
-24.0051
-24.0645
-25.2425
-24.6141
-24.5379
-25.1405
-24.6209
-25.3619
-25.1271
-25.1468
-25.7101
-25.346
-25.753
-25.8982
-25.7434
-26.2835
-26.0569
-26.4459
-27.1321
-26.9479
-21.0392
-15.9238
-34.0451
-57.8047
-62.3089
-56.5834
-49.6903
-46.2751
-36.2377
-21.42
-10.5899
-5.03457
-2.02935
-0.291237
0.636202
1.10402
1.37219
1.56898
1.72524
1.84068
1.91888
1.9669
1.98992
1.99362
1.98525
1.97063
1.95295
1.93374
1.91374
1.8933
1.87257
1.85163
1.83051
1.80923
1.7878
1.76621
1.74447
1.72257
1.70052
1.67832
1.65596
1.63344
1.61077
1.58793
1.56494
1.54179
1.51847
1.49499
1.47134
1.44753
1.42355
1.3994
1.37508
1.35059
1.32593
1.3011
1.27609
1.25091
1.22555
1.20001
1.17429
1.14839
1.12232
1.09605
1.0696
1.04297
1.01615
0.989141
0.961942
0.934551
0.906968
0.879191
0.851218
0.823049
0.794682
0.766115
0.737346
0.708376
0.6792
0.64982
0.620232
0.590437
0.560432
0.530218
0.49979
0.469152
0.438299
0.407229
0.375945
0.344435
0.312713
0.280759
0.248585
0.216189
0.183552
0.150704
0.117614
0.0842887
0.050745
0.0169556
-21.5209
-17.8457
-34.2849
-57.1604
-61.1903
-54.5571
-48.3996
-44.6181
-35.0132
-21.2786
-11.0704
-5.57597
-2.53446
-0.635837
0.428826
0.966597
1.27692
1.50645
1.68645
1.81541
1.9023
1.95688
1.98429
1.99045
1.98341
1.96958
1.95236
1.93343
1.91359
1.89323
1.87254
1.85163
1.83052
1.80924
1.7878
1.76621
1.74447
1.72257
1.70052
1.67832
1.65596
1.63344
1.61077
1.58794
1.56494
1.54179
1.51847
1.49499
1.47134
1.44753
1.42355
1.3994
1.37508
1.35059
1.32593
1.3011
1.27609
1.25091
1.22555
1.20001
1.17429
1.14839
1.12232
1.09605
1.0696
1.04297
1.01615
0.989141
0.961942
0.934551
0.906967
0.879191
0.851218
0.823049
0.794682
0.766114
0.737347
0.708375
0.679201
0.649819
0.620233
0.590437
0.560432
0.530217
0.49979
0.469152
0.438298
0.407229
0.375945
0.344435
0.312713
0.280759
0.248586
0.216188
0.183553
0.150703
0.117614
0.084289
0.0507447
0.0169557
-22.4024
-19.1842
-35.0567
-55.6563
-59.4856
-52.6184
-47.2148
-43.0076
-33.7489
-21.259
-11.678
-6.22813
-3.0596
-1.02582
0.184176
0.822054
1.18866
1.45131
1.65199
1.79235
1.88682
1.94747
1.97918
1.98779
1.98198
1.96879
1.95193
1.93319
1.91347
1.89317
1.87252
1.85162
1.83052
1.80925
1.78781
1.76622
1.74448
1.72258
1.70053
1.67832
1.65596
1.63344
1.61077
1.58794
1.56494
1.54179
1.51847
1.49499
1.47134
1.44753
1.42355
1.3994
1.37508
1.35059
1.32593
1.3011
1.27609
1.25091
1.22555
1.20001
1.17429
1.14839
1.12232
1.09605
1.0696
1.04297
1.01615
0.989141
0.961942
0.934551
0.906968
0.879191
0.851218
0.823049
0.794682
0.766114
0.737347
0.708375
0.679201
0.649819
0.620233
0.590437
0.560432
0.530218
0.49979
0.469152
0.438298
0.407229
0.375945
0.344435
0.312713
0.280759
0.248586
0.216189
0.183553
0.150703
0.117614
0.084289
0.0507448
0.0169557
-23.4666
-20.8746
-35.3804
-53.4234
-57.2394
-50.9047
-45.9336
-41.5388
-32.4515
-21.0324
-12.1809
-6.87472
-3.5778
-1.3873
-0.0651797
0.660815
1.09244
1.39535
1.61269
1.76319
1.86762
1.9359
1.9726
1.98405
1.97986
1.96763
1.95131
1.93288
1.91332
1.89311
1.8725
1.85162
1.83053
1.80925
1.78782
1.76623
1.74448
1.72258
1.70053
1.67832
1.65596
1.63344
1.61077
1.58794
1.56494
1.54179
1.51847
1.49499
1.47134
1.44753
1.42355
1.3994
1.37508
1.35059
1.32593
1.3011
1.27609
1.25091
1.22555
1.20001
1.17429
1.14839
1.12232
1.09605
1.0696
1.04297
1.01615
0.989141
0.961942
0.934551
0.906968
0.879191
0.851218
0.823049
0.794682
0.766114
0.737347
0.708375
0.679201
0.649819
0.620233
0.590437
0.560432
0.530218
0.49979
0.469152
0.438299
0.407229
0.375945
0.344435
0.312713
0.280759
0.248586
0.216189
0.183553
0.150703
0.117614
0.0842891
0.0507449
0.0169558
-24.3139
-22.3868
-35.0245
-50.8758
-54.6132
-49.1257
-44.4007
-40.0518
-31.3156
-20.6721
-12.485
-7.37762
-4.06489
-1.74175
-0.292875
0.509286
0.992606
1.33953
1.5992
1.76261
1.86615
1.93453
1.97207
1.98383
1.97963
1.9674
1.95112
1.93275
1.91324
1.89307
1.87249
1.85162
1.83053
1.80926
1.78783
1.76623
1.74449
1.72258
1.70053
1.67832
1.65596
1.63345
1.61077
1.58794
1.56494
1.54179
1.51847
1.49499
1.47134
1.44753
1.42355
1.3994
1.37508
1.35059
1.32593
1.3011
1.27609
1.25091
1.22555
1.20001
1.17429
1.14839
1.12232
1.09605
1.0696
1.04297
1.01615
0.989141
0.961942
0.934551
0.906968
0.879191
0.851218
0.823049
0.794682
0.766114
0.737346
0.708375
0.679201
0.649819
0.620233
0.590437
0.560432
0.530218
0.49979
0.469153
0.438299
0.407229
0.375945
0.344435
0.312713
0.280759
0.248586
0.216189
0.183553
0.150703
0.117614
0.0842892
0.0507449
0.0169558
-25.1354
-23.5726
-34.4689
-48.3333
-51.8145
-47.3717
-42.9953
-38.5073
-30.2498
-20.5536
-12.8136
-7.791
-4.39975
-2.04358
-0.522258
0.371029
0.926618
1.29026
1.53063
1.70313
1.83135
1.91631
1.96287
1.97912
1.97719
1.96616
1.95051
1.93246
1.91311
1.89302
1.87248
1.85162
1.83054
1.80927
1.78783
1.76624
1.74449
1.72259
1.70053
1.67833
1.65596
1.63345
1.61077
1.58794
1.56494
1.54179
1.51847
1.49499
1.47134
1.44753
1.42355
1.3994
1.37508
1.35059
1.32593
1.3011
1.27609
1.25091
1.22555
1.20001
1.17429
1.14839
1.12232
1.09605
1.0696
1.04297
1.01615
0.989141
0.961942
0.934551
0.906968
0.879191
0.851218
0.823049
0.794682
0.766114
0.737346
0.708375
0.679201
0.649819
0.620233
0.590437
0.560432
0.530218
0.499791
0.469153
0.438299
0.407229
0.375945
0.344435
0.312713
0.280759
0.248586
0.216189
0.183553
0.150703
0.117614
0.0842893
0.050745
0.0169558
-25.8514
-24.664
-33.8039
-45.8581
-49.0862
-45.666
-41.5807
-37.098
-29.1899
-20.5104
-13.2959
-8.30966
-4.71335
-2.2166
-0.678299
0.20606
0.802106
1.24429
1.57006
1.75152
1.85422
1.92571
1.96718
1.98098
1.97779
1.96627
1.95047
1.9324
1.91308
1.89301
1.87248
1.85163
1.83055
1.80928
1.78784
1.76625
1.74449
1.72259
1.70054
1.67833
1.65597
1.63345
1.61077
1.58794
1.56494
1.54179
1.51847
1.49499
1.47134
1.44753
1.42355
1.3994
1.37508
1.35059
1.32593
1.3011
1.27609
1.25091
1.22555
1.20001
1.17429
1.14839
1.12232
1.09605
1.0696
1.04297
1.01615
0.989141
0.961942
0.934551
0.906968
0.879191
0.851218
0.823049
0.794681
0.766114
0.737346
0.708375
0.679201
0.649819
0.620232
0.590437
0.560432
0.530218
0.499791
0.469153
0.438299
0.407229
0.375945
0.344435
0.312713
0.280759
0.248586
0.216189
0.183553
0.150704
0.117614
0.0842894
0.050745
0.0169557
-26.3662
-25.5698
-32.9445
-43.4925
-46.6761
-44.1075
-40.1893
-35.7978
-28.3176
-20.3512
-13.8534
-8.89202
-5.17378
-2.47498
-0.791832
0.145161
0.742362
1.18986
1.46157
1.64861
1.80237
1.90299
1.95797
1.97725
1.97614
1.96551
1.9501
1.93222
1.913
1.89298
1.87247
1.85164
1.83056
1.80929
1.78785
1.76625
1.7445
1.7226
1.70054
1.67833
1.65597
1.63345
1.61077
1.58794
1.56494
1.54179
1.51847
1.49499
1.47134
1.44753
1.42355
1.3994
1.37508
1.35059
1.32593
1.3011
1.27609
1.25091
1.22555
1.20001
1.17429
1.14839
1.12232
1.09605
1.0696
1.04297
1.01615
0.989141
0.961942
0.934551
0.906968
0.879191
0.851218
0.823049
0.794681
0.766114
0.737346
0.708375
0.6792
0.649819
0.620232
0.590437
0.560432
0.530218
0.499791
0.469153
0.438299
0.407229
0.375945
0.344435
0.312713
0.280759
0.248586
0.216189
0.183553
0.150704
0.117615
0.0842894
0.050745
0.0169557
-26.6743
-26.3576
-32.2135
-41.4279
-44.6052
-42.7097
-39.0161
-34.5574
-27.587
-20.3191
-14.333
-9.46774
-5.58952
-2.73966
-1.00134
-0.00467076
0.674467
1.19212
1.54524
1.73673
1.83624
1.91487
1.96243
1.97828
1.97611
1.96526
1.94992
1.93215
1.91298
1.89299
1.87249
1.85165
1.83057
1.8093
1.78786
1.76626
1.74451
1.7226
1.70054
1.67833
1.65597
1.63345
1.61077
1.58794
1.56494
1.54179
1.51847
1.49499
1.47134
1.44753
1.42355
1.3994
1.37508
1.35059
1.32593
1.3011
1.27609
1.25091
1.22555
1.20001
1.17429
1.14839
1.12232
1.09605
1.0696
1.04297
1.01615
0.989141
0.961942
0.934551
0.906968
0.879191
0.851218
0.823049
0.794681
0.766114
0.737346
0.708375
0.6792
0.649819
0.620232
0.590437
0.560432
0.530218
0.499791
0.469153
0.438299
0.407229
0.375945
0.344435
0.312713
0.280759
0.248585
0.216189
0.183553
0.150704
0.117615
0.0842895
0.050745
0.0169557
-26.9658
-27.0577
-31.7665
-39.8008
-42.9258
-41.3822
-37.952
-33.5931
-26.8294
-20.3888
-14.8402
-10.0269
-6.04964
-2.97912
-1.06378
-0.0918151
0.602682
1.11458
1.41824
1.59987
1.78468
1.89818
1.95943
1.97881
1.97736
1.9659
1.95007
1.93217
1.91298
1.89299
1.8725
1.85166
1.83059
1.80931
1.78787
1.76627
1.74451
1.7226
1.70054
1.67833
1.65597
1.63345
1.61077
1.58794
1.56494
1.54179
1.51847
1.49499
1.47134
1.44753
1.42355
1.3994
1.37508
1.35059
1.32593
1.3011
1.27609
1.25091
1.22555
1.20001
1.17429
1.14839
1.12232
1.09605
1.0696
1.04297
1.01615
0.989141
0.961942
0.934551
0.906968
0.879191
0.851218
0.823049
0.794681
0.766114
0.737346
0.708375
0.6792
0.649819
0.620232
0.590437
0.560432
0.530218
0.499791
0.469153
0.438299
0.407229
0.375946
0.344435
0.312713
0.280759
0.248585
0.216189
0.183553
0.150704
0.117615
0.0842896
0.050745
0.0169557
-27.2111
-27.6592
-31.5674
-38.489
-41.5314
-40.1611
-36.7869
-32.7041
-26.2055
-20.3571
-15.4611
-10.6162
-6.46842
-3.29103
-1.36642
-0.194955
0.596876
1.16256
1.51359
1.71112
1.81358
1.90104
1.95972
1.97533
1.97446
1.96442
1.9496
1.93207
1.91298
1.89301
1.87252
1.85169
1.8306
1.80933
1.78788
1.76627
1.74452
1.72261
1.70055
1.67834
1.65597
1.63345
1.61077
1.58794
1.56494
1.54179
1.51847
1.49499
1.47134
1.44753
1.42355
1.3994
1.37508
1.35059
1.32593
1.3011
1.27609
1.25091
1.22555
1.20001
1.17429
1.14839
1.12232
1.09605
1.0696
1.04297
1.01615
0.989141
0.961942
0.934551
0.906968
0.879191
0.851218
0.823049
0.794681
0.766114
0.737346
0.708375
0.6792
0.649819
0.620232
0.590437
0.560432
0.530218
0.499791
0.469153
0.438299
0.407229
0.375946
0.344435
0.312713
0.280759
0.248585
0.216189
0.183553
0.150704
0.117615
0.0842896
0.050745
0.0169557
-27.444
-28.1582
-31.3914
-37.427
-40.3026
-39.0531
-35.7311
-31.5718
-25.4808
-20.4262
-16.0503
-11.2527
-6.85659
-3.50931
-1.46748
-0.262928
0.546306
1.07089
1.40529
1.59712
1.7757
1.89649
1.96414
1.98431
1.97972
1.96689
1.95035
1.93226
1.91305
1.89305
1.87255
1.85171
1.83062
1.80934
1.78789
1.76628
1.74452
1.72261
1.70055
1.67834
1.65597
1.63345
1.61077
1.58794
1.56494
1.54179
1.51847
1.49499
1.47134
1.44753
1.42355
1.3994
1.37508
1.35059
1.32593
1.3011
1.27609
1.25091
1.22555
1.20001
1.17429
1.14839
1.12232
1.09605
1.0696
1.04297
1.01615
0.989141
0.961942
0.934551
0.906968
0.879191
0.851218
0.823049
0.794681
0.766114
0.737346
0.708375
0.6792
0.649819
0.620232
0.590437
0.560432
0.530218
0.499791
0.469153
0.438299
0.407229
0.375946
0.344435
0.312713
0.280759
0.248585
0.216189
0.183553
0.150704
0.117615
0.0842897
0.0507449
0.0169557
-27.6247
-28.575
-31.2557
-36.4932
-39.2405
-38.0524
-34.7745
-30.6248
-24.7149
-20.6116
-16.657
-11.862
-7.25244
-3.70118
-1.55696
-0.329189
0.509717
1.08052
1.46687
1.6921
1.79527
1.89386
1.95764
1.97678
1.9736
1.96397
1.94949
1.93215
1.91307
1.89309
1.87258
1.85174
1.83064
1.80935
1.7879
1.76629
1.74453
1.72261
1.70055
1.67834
1.65597
1.63345
1.61077
1.58794
1.56494
1.54179
1.51847
1.49499
1.47134
1.44753
1.42355
1.3994
1.37508
1.35059
1.32593
1.3011
1.27609
1.25091
1.22555
1.20001
1.17429
1.14839
1.12232
1.09605
1.0696
1.04297
1.01615
0.989141
0.961942
0.934551
0.906968
0.879191
0.851218
0.823049
0.794681
0.766114
0.737346
0.708375
0.6792
0.649819
0.620232
0.590437
0.560432
0.530218
0.499791
0.469153
0.438299
0.407229
0.375946
0.344435
0.312713
0.280759
0.248585
0.216189
0.183553
0.150704
0.117615
0.0842898
0.0507449
0.0169557
-27.7971
-28.921
-31.1486
-35.7223
-38.3508
-37.1432
-33.8638
-29.7363
-24.1438
-20.8522
-17.3908
-12.4291
-7.59992
-3.90221
-1.66071
-0.353018
0.502235
1.0664
1.41103
1.58946
1.7594
1.89944
1.97356
1.99038
1.9821
1.9677
1.95107
1.93256
1.9132
1.89316
1.87263
1.85176
1.83066
1.80937
1.78791
1.7663
1.74453
1.72262
1.70055
1.67834
1.65597
1.63345
1.61077
1.58794
1.56494
1.54179
1.51847
1.49499
1.47134
1.44753
1.42355
1.3994
1.37508
1.35059
1.32593
1.3011
1.27609
1.25091
1.22555
1.20001
1.17429
1.14839
1.12232
1.09605
1.0696
1.04297
1.01615
0.989141
0.961942
0.934551
0.906968
0.879191
0.851218
0.823049
0.794681
0.766114
0.737346
0.708375
0.6792
0.649819
0.620232
0.590437
0.560432
0.530218
0.499791
0.469153
0.4383
0.407229
0.375946
0.344435
0.312713
0.280759
0.248585
0.216189
0.183553
0.150704
0.117615
0.0842898
0.0507448
0.0169557
-27.9396
-29.208
-31.0844
-35.3043
-37.6532
-36.3191
-33.025
-28.7722
-23.5039
-21.1908
-18.2327
-13.0289
-8.03685
-4.02463
-1.71081
-0.428787
0.455037
1.05587
1.45021
1.68041
1.77142
1.88502
1.9514
1.97313
1.97385
1.9644
1.94991
1.93237
1.91325
1.89322
1.87268
1.8518
1.83069
1.80939
1.78792
1.7663
1.74454
1.72262
1.70056
1.67834
1.65598
1.63345
1.61078
1.58794
1.56494
1.54179
1.51847
1.49499
1.47134
1.44753
1.42355
1.3994
1.37508
1.35059
1.32593
1.3011
1.27609
1.25091
1.22555
1.20001
1.17429
1.14839
1.12232
1.09605
1.0696
1.04297
1.01615
0.989141
0.961942
0.934551
0.906968
0.879191
0.851218
0.823049
0.794681
0.766114
0.737346
0.708375
0.6792
0.649819
0.620232
0.590437
0.560432
0.530218
0.499791
0.469153
0.4383
0.407229
0.375946
0.344435
0.312713
0.280759
0.248585
0.216189
0.183553
0.150703
0.117615
0.0842899
0.0507447
0.0169556
-28.0724
-29.4265
-31.024
-34.7676
-37.0948
-35.6437
-32.188
-27.7759
-22.8375
-21.637
-19.1533
-13.6439
-8.44059
-4.22013
-1.76175
-0.385777
0.493176
1.06185
1.41945
1.62707
1.77699
1.90261
1.97141
1.98909
1.98262
1.96854
1.95161
1.93305
1.91348
1.89332
1.87273
1.85184
1.83071
1.8094
1.78793
1.76631
1.74454
1.72262
1.70056
1.67834
1.65598
1.63345
1.61078
1.58794
1.56494
1.54179
1.51847
1.49499
1.47134
1.44753
1.42355
1.3994
1.37508
1.35059
1.32593
1.3011
1.27609
1.25091
1.22555
1.20001
1.17429
1.14839
1.12232
1.09605
1.0696
1.04297
1.01615
0.989141
0.961942
0.934551
0.906968
0.879191
0.851218
0.823049
0.794681
0.766114
0.737346
0.708375
0.6792
0.649819
0.620232
0.590437
0.560432
0.530219
0.499791
0.469153
0.4383
0.407229
0.375946
0.344435
0.312713
0.280759
0.248585
0.216189
0.183553
0.150703
0.117615
0.0842899
0.0507446
0.0169556
-28.1756
-29.6306
-30.9252
-34.3796
-36.6223
-35.0471
-31.4837
-26.6201
-22.1352
-22.2545
-20.0131
-14.2411
-8.75456
-4.27189
-1.75675
-0.433986
0.453378
1.06231
1.45833
1.65784
1.78266
1.88886
1.95353
1.97589
1.97568
1.96556
1.95061
1.93283
1.91351
1.8934
1.87279
1.85188
1.83074
1.80942
1.78795
1.76632
1.74455
1.72263
1.70056
1.67835
1.65598
1.63345
1.61078
1.58794
1.56494
1.54179
1.51847
1.49499
1.47134
1.44753
1.42355
1.3994
1.37508
1.35059
1.32593
1.3011
1.27609
1.25091
1.22555
1.20001
1.17429
1.14839
1.12232
1.09605
1.0696
1.04297
1.01615
0.989141
0.961942
0.934551
0.906968
0.879191
0.851218
0.823049
0.794681
0.766114
0.737346
0.708375
0.6792
0.649819
0.620232
0.590437
0.560432
0.530219
0.499791
0.469153
0.4383
0.407229
0.375946
0.344435
0.312713
0.280759
0.248585
0.216189
0.183553
0.150703
0.117615
0.08429
0.0507446
0.0169556
-28.2946
-29.776
-30.7967
-34.1208
-36.3229
-34.5168
-30.8112
-25.4249
-21.2004
-22.8841
-20.7643
-14.4871
-8.99181
-4.38846
-1.76025
-0.359075
0.495343
1.07038
1.43134
1.657
1.79528
1.90979
1.97336
1.99017
1.98401
1.96972
1.9524
1.93352
1.91378
1.89352
1.87286
1.85192
1.83076
1.80944
1.78796
1.76633
1.74455
1.72263
1.70056
1.67835
1.65598
1.63345
1.61078
1.58794
1.56494
1.54179
1.51847
1.49499
1.47134
1.44753
1.42355
1.3994
1.37508
1.35059
1.32593
1.3011
1.27609
1.25091
1.22555
1.20001
1.17429
1.14839
1.12232
1.09605
1.0696
1.04297
1.01615
0.989141
0.961942
0.934551
0.906968
0.879191
0.851218
0.823049
0.794681
0.766114
0.737346
0.708375
0.6792
0.649819
0.620232
0.590437
0.560432
0.530219
0.499791
0.469153
0.4383
0.407229
0.375946
0.344435
0.312713
0.280759
0.248585
0.216189
0.183553
0.150703
0.117615
0.08429
0.0507445
0.0169556
-28.4076
-29.9153
-30.652
-33.9059
-36.1335
-34.1938
-30.2117
-24.1839
-20.1065
-23.2362
-21.3028
-14.6643
-9.02649
-4.3544
-1.74855
-0.37939
0.500564
1.0889
1.46241
1.66781
1.79699
1.90018
1.96133
1.98115
1.97888
1.9674
1.95164
1.93344
1.91389
1.89362
1.87294
1.85197
1.8308
1.80946
1.78797
1.76634
1.74456
1.72264
1.70057
1.67835
1.65598
1.63346
1.61078
1.58794
1.56494
1.54179
1.51847
1.49499
1.47134
1.44753
1.42355
1.3994
1.37508
1.35059
1.32593
1.3011
1.27609
1.25091
1.22555
1.20001
1.17429
1.14839
1.12232
1.09605
1.0696
1.04297
1.01615
0.989141
0.961942
0.934551
0.906968
0.879191
0.851218
0.823049
0.794681
0.766114
0.737346
0.708375
0.6792
0.649819
0.620232
0.590437
0.560432
0.530219
0.499791
0.469153
0.4383
0.407229
0.375946
0.344435
0.312713
0.280759
0.248585
0.21619
0.183553
0.150703
0.117616
0.08429
0.0507443
0.0169556
-28.4226
-29.9523
-30.5673
-33.785
-36.0238
-34.0273
-29.848
-23.4305
-19.0808
-23.0059
-21.2842
-14.66
-9.06024
-4.3488
-1.73464
-0.340353
0.51344
1.08809
1.45579
1.66981
1.80557
1.91286
1.97389
1.99081
1.98491
1.97057
1.95307
1.93402
1.91413
1.89373
1.87299
1.852
1.83082
1.80947
1.78798
1.76634
1.74456
1.72264
1.70057
1.67835
1.65598
1.63346
1.61078
1.58794
1.56494
1.54179
1.51847
1.49499
1.47134
1.44753
1.42355
1.3994
1.37508
1.35059
1.32593
1.3011
1.27609
1.25091
1.22555
1.20001
1.17429
1.14839
1.12232
1.09605
1.0696
1.04297
1.01615
0.989141
0.961942
0.934551
0.906968
0.879191
0.851218
0.823049
0.794681
0.766114
0.737346
0.708375
0.6792
0.649819
0.620232
0.590437
0.560432
0.530219
0.499791
0.469153
0.4383
0.407229
0.375946
0.344435
0.312713
0.280759
0.248585
0.21619
0.183553
0.150703
0.117616
0.0842901
0.0507443
0.0169556
-18.6044
-21.4541
-30.5103
-47.8554
-61.0642
-62.4796
-52.6683
-43.4021
-28.1911
-9.64856
0.23403
4.91799
6.35374
5.33792
4.37739
3.5456
2.9719
2.62912
2.42652
2.30016
2.21334
2.14762
2.09471
2.05148
2.01601
1.98622
1.96047
1.93709
1.91502
1.89361
1.87248
1.85139
1.83026
1.80901
1.78762
1.76607
1.74437
1.7225
1.70047
1.67828
1.65594
1.63343
1.61076
1.58793
1.56494
1.54178
1.51847
1.49499
1.47134
1.44753
1.42355
1.3994
1.37508
1.35059
1.32593
1.3011
1.27609
1.25091
1.22555
1.20001
1.17429
1.14839
1.12232
1.09605
1.0696
1.04297
1.01615
0.989141
0.961942
0.934551
0.906968
0.87919
0.851218
0.823048
0.794681
0.766114
0.737345
0.708375
0.679199
0.64982
0.620232
0.590438
0.560432
0.530219
0.499791
0.469153
0.4383
0.407229
0.375946
0.344435
0.312713
0.28076
0.248584
0.21619
0.183552
0.150704
0.117616
0.08429
0.0507445
0.0169555
-18.1429
-21.8256
-31.0258
-48.3096
-61.8401
-62.8561
-53.0387
-43.7036
-28.6657
-9.86309
0.18409
4.83264
6.30348
5.31061
4.35438
3.52844
2.96001
2.62138
2.42169
2.29713
2.21145
2.14639
2.09401
2.05115
2.01589
1.98622
1.96052
1.93715
1.91508
1.89366
1.87251
1.85142
1.83028
1.80902
1.78763
1.76608
1.74437
1.7225
1.70047
1.67829
1.65594
1.63343
1.61076
1.58793
1.56494
1.54178
1.51847
1.49499
1.47134
1.44753
1.42355
1.3994
1.37508
1.35059
1.32593
1.3011
1.27609
1.25091
1.22555
1.20001
1.17429
1.14839
1.12232
1.09605
1.0696
1.04297
1.01615
0.989141
0.961942
0.934551
0.906968
0.87919
0.851218
0.823048
0.794681
0.766114
0.737345
0.708375
0.679199
0.64982
0.620232
0.590438
0.560432
0.530219
0.499791
0.469153
0.4383
0.407229
0.375946
0.344435
0.312713
0.28076
0.248584
0.21619
0.183552
0.150704
0.117616
0.0842899
0.0507445
0.0169555
-18.211
-21.7025
-31.6021
-49.0795
-62.8439
-63.9466
-53.4343
-44.2371
-29.5279
-10.3617
0.0369659
4.68122
6.20067
5.25535
4.30821
3.49341
2.93483
2.6039
2.40991
2.28942
2.20674
2.14385
2.09303
2.05109
2.01618
1.98671
1.96091
1.93744
1.91528
1.89379
1.8726
1.85148
1.83032
1.80905
1.78764
1.76609
1.74438
1.72251
1.70048
1.67829
1.65594
1.63343
1.61076
1.58793
1.56494
1.54178
1.51847
1.49499
1.47134
1.44753
1.42355
1.3994
1.37508
1.35059
1.32593
1.3011
1.27609
1.25091
1.22555
1.20001
1.17429
1.14839
1.12232
1.09605
1.0696
1.04297
1.01615
0.989141
0.961942
0.934551
0.906968
0.87919
0.851218
0.823048
0.794681
0.766114
0.737345
0.708375
0.679199
0.64982
0.620232
0.590438
0.560432
0.530219
0.499791
0.469153
0.4383
0.407229
0.375946
0.344435
0.312713
0.28076
0.248584
0.21619
0.183552
0.150704
0.117615
0.0842899
0.0507446
0.0169555
-18.4729
-22.0519
-32.3096
-50.2509
-64.3903
-64.9116
-54.1155
-44.9075
-30.7253
-11.0922
-0.247916
4.38301
6.04283
5.16889
4.23944
3.4416
2.89756
2.57807
2.39276
2.2785
2.20011
2.14011
2.09113
2.05022
2.01584
1.98661
1.96093
1.9375
1.91535
1.89385
1.87264
1.85151
1.83033
1.80906
1.78765
1.76609
1.74438
1.72251
1.70048
1.67829
1.65594
1.63343
1.61076
1.58793
1.56494
1.54178
1.51847
1.49499
1.47134
1.44753
1.42355
1.3994
1.37508
1.35059
1.32593
1.3011
1.27609
1.25091
1.22555
1.20001
1.17429
1.14839
1.12232
1.09605
1.0696
1.04297
1.01615
0.989141
0.961942
0.934551
0.906968
0.87919
0.851218
0.823048
0.794681
0.766114
0.737345
0.708375
0.679199
0.64982
0.620232
0.590438
0.560432
0.530219
0.499791
0.469153
0.4383
0.407229
0.375946
0.344435
0.312713
0.280759
0.248584
0.21619
0.183552
0.150704
0.117615
0.0842899
0.0507447
0.0169555
-18.8367
-22.3911
-33.6747
-51.6447
-66.2981
-67.0684
-54.7765
-45.7946
-31.9909
-11.9828
-0.714419
3.95017
5.80853
5.04168
4.14663
3.37392
2.84906
2.54425
2.37002
2.26376
2.19094
2.13472
2.0882
2.0488
2.01527
1.98646
1.96096
1.93759
1.91544
1.89392
1.8727
1.85155
1.83036
1.80908
1.78766
1.7661
1.74439
1.72251
1.70048
1.67829
1.65594
1.63343
1.61076
1.58793
1.56494
1.54178
1.51847
1.49499
1.47134
1.44753
1.42355
1.3994
1.37508
1.35059
1.32593
1.3011
1.27609
1.25091
1.22555
1.20001
1.17429
1.14839
1.12232
1.09605
1.0696
1.04297
1.01615
0.989141
0.961942
0.934551
0.906968
0.87919
0.851218
0.823048
0.794681
0.766114
0.737345
0.708375
0.679199
0.64982
0.620232
0.590438
0.560432
0.530219
0.499791
0.469153
0.4383
0.407229
0.375946
0.344435
0.312713
0.280759
0.248584
0.21619
0.183552
0.150704
0.117615
0.0842898
0.0507448
0.0169556
-19.1989
-22.7857
-35.1872
-53.5041
-68.154
-68.4148
-55.4875
-46.7964
-33.2605
-12.9832
-1.27307
3.42661
5.49081
4.87044
4.02726
3.29086
2.79083
2.50353
2.34246
2.24586
2.17979
2.12814
2.0846
2.047
2.01447
1.98615
1.96087
1.93759
1.91547
1.89396
1.87273
1.85158
1.83038
1.80909
1.78767
1.76611
1.74439
1.72252
1.70048
1.67829
1.65594
1.63343
1.61076
1.58793
1.56494
1.54178
1.51847
1.49499
1.47134
1.44753
1.42355
1.3994
1.37508
1.35059
1.32593
1.3011
1.27609
1.25091
1.22555
1.20001
1.17429
1.14839
1.12232
1.09605
1.0696
1.04297
1.01615
0.989141
0.961942
0.934551
0.906968
0.87919
0.851218
0.823048
0.794681
0.766114
0.737345
0.708375
0.679199
0.64982
0.620232
0.590438
0.560432
0.530219
0.499791
0.469153
0.4383
0.407229
0.375946
0.344435
0.312713
0.280759
0.248584
0.21619
0.183552
0.150704
0.117615
0.0842898
0.0507449
0.0169556
-19.3656
-23.1834
-36.5619
-55.3299
-70.119
-69.9909
-56.138
-47.8017
-34.6097
-13.9656
-1.88604
2.85721
5.0767
4.65757
3.8828
3.19303
2.72409
2.45703
2.31068
2.22503
2.16671
2.12034
2.08022
2.04471
2.01335
1.98565
1.96068
1.93754
1.91548
1.89399
1.87276
1.8516
1.8304
1.80911
1.78769
1.76612
1.7444
1.72252
1.70049
1.67829
1.65594
1.63343
1.61076
1.58793
1.56494
1.54178
1.51847
1.49499
1.47134
1.44753
1.42355
1.3994
1.37508
1.35059
1.32593
1.3011
1.27609
1.25091
1.22555
1.20001
1.17429
1.14839
1.12232
1.09605
1.0696
1.04297
1.01615
0.989141
0.961942
0.934551
0.906968
0.87919
0.851218
0.823048
0.794681
0.766114
0.737345
0.708375
0.679199
0.64982
0.620232
0.590438
0.560432
0.530219
0.499791
0.469153
0.4383
0.407229
0.375946
0.344435
0.312713
0.280759
0.248584
0.21619
0.183552
0.150704
0.117615
0.0842897
0.050745
0.0169556
-19.6089
-23.398
-37.6629
-56.8126
-71.7787
-71.0919
-56.5274
-48.8254
-35.8662
-14.844
-2.56947
2.27502
4.57666
4.39526
3.71632
3.08195
2.65009
2.40605
2.27562
2.20184
2.15205
2.11152
2.07521
2.04203
2.012
1.98501
1.96041
1.93744
1.91546
1.894
1.87278
1.85162
1.83042
1.80912
1.7877
1.76612
1.7444
1.72252
1.70049
1.67829
1.65594
1.63343
1.61076
1.58793
1.56494
1.54178
1.51847
1.49499
1.47134
1.44753
1.42355
1.3994
1.37508
1.35059
1.32593
1.3011
1.27609
1.25091
1.22555
1.20001
1.17429
1.14839
1.12232
1.09605
1.0696
1.04297
1.01615
0.989141
0.961942
0.934551
0.906968
0.87919
0.851218
0.823049
0.794681
0.766114
0.737346
0.708375
0.679199
0.64982
0.620232
0.590438
0.560432
0.530219
0.499791
0.469153
0.4383
0.407229
0.375946
0.344435
0.312713
0.280759
0.248584
0.21619
0.183552
0.150704
0.117615
0.0842897
0.0507451
0.0169556
-19.9208
-23.677
-38.4023
-58.1466
-72.973
-71.8997
-56.7807
-49.8578
-37.1111
-15.8206
-3.3276
1.65617
4.0323
4.08174
3.52857
2.95969
2.56958
2.35135
2.23796
2.17668
2.13601
2.10178
2.06961
2.03898
2.01043
1.98424
1.96006
1.9373
1.91541
1.894
1.87279
1.85164
1.83044
1.80914
1.78771
1.76613
1.74441
1.72253
1.70049
1.6783
1.65594
1.63343
1.61076
1.58793
1.56494
1.54178
1.51847
1.49499
1.47134
1.44753
1.42355
1.3994
1.37508
1.35059
1.32593
1.3011
1.27609
1.25091
1.22555
1.20001
1.17429
1.14839
1.12232
1.09605
1.0696
1.04297
1.01615
0.989141
0.961942
0.934551
0.906968
0.87919
0.851218
0.823049
0.794681
0.766114
0.737346
0.708375
0.679199
0.64982
0.620232
0.590438
0.560432
0.530219
0.499791
0.469153
0.4383
0.407229
0.375946
0.344435
0.312713
0.280759
0.248584
0.21619
0.183552
0.150704
0.117615
0.0842896
0.0507452
0.0169556
-20.025
-24.1473
-39.0995
-59.374
-74.0882
-72.4109
-56.8322
-50.8694
-38.2528
-16.9017
-4.15449
0.970877
3.44502
3.72751
3.31967
2.82864
2.48357
2.29347
2.19836
2.15012
2.11892
2.09132
2.06355
2.03564
2.00867
1.98335
1.95963
1.93711
1.91534
1.89398
1.8728
1.85165
1.83045
1.80915
1.78771
1.76614
1.74441
1.72253
1.70049
1.6783
1.65594
1.63343
1.61076
1.58793
1.56494
1.54178
1.51847
1.49499
1.47134
1.44753
1.42355
1.3994
1.37508
1.35059
1.32593
1.3011
1.27609
1.25091
1.22555
1.20001
1.17429
1.14839
1.12232
1.09605
1.0696
1.04297
1.01615
0.989141
0.961942
0.934551
0.906968
0.87919
0.851218
0.823049
0.794681
0.766114
0.737346
0.708375
0.679199
0.64982
0.620232
0.590438
0.560432
0.530219
0.499791
0.469153
0.4383
0.407229
0.375946
0.344435
0.312713
0.280759
0.248584
0.21619
0.183552
0.150704
0.117615
0.0842895
0.0507452
0.0169556
-20.0526
-24.3522
-39.8127
-60.4718
-74.8031
-72.4866
-56.7117
-51.7028
-39.2388
-17.9583
-5.05797
0.237812
2.81527
3.3391
3.08996
2.68992
2.39337
2.23275
2.15709
2.12246
2.10102
2.08028
2.05709
2.03204
2.00674
1.98235
1.95915
1.93689
1.91525
1.89395
1.8728
1.85166
1.83046
1.80916
1.78772
1.76615
1.74442
1.72253
1.7005
1.6783
1.65595
1.63343
1.61076
1.58793
1.56494
1.54178
1.51847