/*--------------------------------*- C++ -*----------------------------------*\
| =========                 |                                                 |
| \\      /  F ield         | OpenFOAM: The Open Source CFD Toolbox           |
|  \\    /   O peration     | Version:  2.4.0                                 |
|   \\  /    A nd           | Web:      www.OpenFOAM.org                      |
|    \\/     M anipulation  |                                                 |
\*---------------------------------------------------------------------------*/
FoamFile
{
    version     2.0;
    format      ascii;
    class       volScalarField;
    location    "53";
    object      p;
}
// * * * * * * * * * * * * * * * * * * * * * * * * * * * * * * * * * * * * * //

dimensions      [0 2 -2 0 0 0 0];

internalField   nonuniform List<scalar> 
4400
(
-0.112893
-0.102856
-0.0977265
-0.117803
-0.111987
-0.103627
-0.114829
-0.108003
-0.10876
-0.117193
-0.111607
-0.114279
-0.118677
-0.116138
-0.117224
-0.121611
-0.11895
-0.121906
-0.127511
-0.122352
-0.113028
-0.102958
-0.0969068
-0.118054
-0.11239
-0.103183
-0.115035
-0.108136
-0.108437
-0.117479
-0.111575
-0.114153
-0.119034
-0.116076
-0.117127
-0.121761
-0.118896
-0.121816
-0.127739
-0.122204
-0.113243
-0.103007
-0.0963376
-0.118595
-0.112799
-0.102616
-0.115458
-0.108211
-0.108118
-0.117893
-0.111437
-0.114045
-0.119271
-0.11596
-0.117017
-0.12196
-0.118747
-0.121748
-0.127936
-0.121855
-0.113391
-0.102989
-0.0959836
-0.119117
-0.11299
-0.102172
-0.115896
-0.108179
-0.107936
-0.118246
-0.111244
-0.114012
-0.119426
-0.115827
-0.116943
-0.12212
-0.118552
-0.121693
-0.128006
-0.12132
-0.113338
-0.103015
-0.0961378
-0.119412
-0.112949
-0.102068
-0.11621
-0.108106
-0.108014
-0.118213
-0.11107
-0.114078
-0.119408
-0.115736
-0.116907
-0.122198
-0.118374
-0.12162
-0.127944
-0.120707
-0.112977
-0.103336
-0.0970559
-0.119337
-0.112845
-0.102467
-0.116311
-0.108168
-0.108419
-0.118147
-0.111029
-0.114248
-0.119184
-0.115749
-0.116913
-0.12213
-0.118312
-0.121486
-0.127764
-0.120208
-0.112218
-0.10417
-0.0988971
-0.118697
-0.112769
-0.103485
-0.116107
-0.108521
-0.109157
-0.117813
-0.111231
-0.114495
-0.118738
-0.11592
-0.116955
-0.121847
-0.118454
-0.121284
-0.12738
-0.119982
-0.111005
-0.105514
-0.101657
-0.11727
-0.112664
-0.105147
-0.115406
-0.109204
-0.110192
-0.117123
-0.111726
-0.114779
-0.118055
-0.116253
-0.117038
-0.121302
-0.118825
-0.121038
-0.126687
-0.120115
-0.109353
-0.107189
-0.105138
-0.114983
-0.112403
-0.107319
-0.114095
-0.110164
-0.11143
-0.116021
-0.112493
-0.115063
-0.117156
-0.116708
-0.117163
-0.120513
-0.119376
-0.120777
-0.12562
-0.120598
-0.10736
-0.108905
-0.109004
-0.111979
-0.111812
-0.109717
-0.11225
-0.111258
-0.112713
-0.11453
-0.113446
-0.115312
-0.116106
-0.117214
-0.117325
-0.119564
-0.120009
-0.120524
-0.124203
-0.121337
-0.105214
-0.11038
-0.1128
-0.108581
-0.110796
-0.111993
-0.11012
-0.112304
-0.113855
-0.112778
-0.114444
-0.115496
-0.115009
-0.117688
-0.117513
-0.118569
-0.120611
-0.120296
-0.122555
-0.122181
-0.103165
-0.111438
-0.116026
-0.105224
-0.109448
-0.11383
-0.10801
-0.113154
-0.114718
-0.110994
-0.115328
-0.115604
-0.11398
-0.118058
-0.11771
-0.117647
-0.121083
-0.120107
-0.120859
-0.122959
-0.101451
-0.112039
-0.118358
-0.10233
-0.10796
-0.115085
-0.106276
-0.113736
-0.115263
-0.109421
-0.11598
-0.115659
-0.113118
-0.118277
-0.117899
-0.116891
-0.121372
-0.119962
-0.119307
-0.123541
-0.100227
-0.112264
-0.119734
-0.10018
-0.106536
-0.115801
-0.105149
-0.114043
-0.115549
-0.108239
-0.116353
-0.115698
-0.112477
-0.118335
-0.118074
-0.116346
-0.121477
-0.119868
-0.118045
-0.123859
-0.0995177
-0.112275
-0.120319
-0.0988719
-0.105371
-0.116121
-0.104649
-0.114126
-0.115674
-0.107528
-0.116469
-0.11574
-0.11207
-0.118265
-0.118229
-0.116012
-0.12143
-0.119821
-0.117149
-0.123913
-0.0992159
-0.112205
-0.120412
-0.0983343
-0.104584
-0.116192
-0.104655
-0.114071
-0.115718
-0.107265
-0.116403
-0.115789
-0.111886
-0.118119
-0.118349
-0.115867
-0.121281
-0.119796
-0.116629
-0.123756
-0.0991785
-0.112118
-0.120227
-0.0983465
-0.104209
-0.116045
-0.104945
-0.113961
-0.115664
-0.107363
-0.116239
-0.115801
-0.1119
-0.117941
-0.118399
-0.115882
-0.121079
-0.119759
-0.116445
-0.12347
-0.0992966
-0.112025
-0.119729
-0.0986057
-0.10419
-0.115587
-0.105324
-0.113852
-0.115441
-0.10768
-0.116043
-0.115716
-0.112069
-0.117762
-0.118361
-0.116014
-0.120868
-0.11969
-0.116518
-0.123145
-0.0994773
-0.111957
-0.119062
-0.0988674
-0.104412
-0.114963
-0.10565
-0.113801
-0.115101
-0.108059
-0.115879
-0.115548
-0.112309
-0.117615
-0.118267
-0.1162
-0.120695
-0.119599
-0.116727
-0.12287
-0.0996141
-0.111975
-0.118225
-0.0989454
-0.104706
-0.114537
-0.105805
-0.113847
-0.114762
-0.108334
-0.115831
-0.115377
-0.112619
-0.117543
-0.118174
-0.116441
-0.120609
-0.119515
-0.117041
-0.122743
-0.128642
-0.128752
-0.126528
-0.129643
-0.118967
-0.112153
-0.10861
-0.120077
-0.173542
-0.165947
-0.123887
-0.135136
-0.153188
-0.182426
-0.188687
-0.156055
-0.131232
-0.120986
-0.102163
-0.10683
-0.171291
-0.197203
-0.153388
-0.121991
-0.12586
-0.138467
-0.147341
-0.128456
-0.0969379
-0.0597331
-0.0145449
-0.00974354
-0.057
-0.101011
-0.108029
-0.0658967
-0.0232363
-0.0109352
-0.0322636
-0.068881
-0.0818349
-0.0492841
-0.0160088
-0.00763052
-0.00756551
-0.00552083
-0.00657787
-0.00951304
-0.0146597
-0.0191535
-0.0161848
-0.0127799
-0.0201
-0.0267582
-0.0197274
-0.00622779
0.00210719
0.0046639
0.00594654
0.00762687
0.00926028
0.0104134
0.0110807
0.0113957
0.0114756
0.011403
0.011234
0.011006
0.0107423
0.0104575
0.01016
0.00985445
0.00954375
0.0092292
0.00891168
0.00859151
0.00826889
0.00794394
0.00761664
0.00728707
0.0069552
0.00662101
0.00628453
0.00594569
0.00560452
0.00526095
0.00491497
0.00456657
0.00421571
0.00386238
0.00350658
0.00314829
0.0027875
0.00242419
0.00205834
0.00168991
0.00131891
0.000945281
0.000569025
0.000190119
-0.128737
-0.129033
-0.125668
-0.130038
-0.118734
-0.111396
-0.108983
-0.118422
-0.170825
-0.168581
-0.126154
-0.131906
-0.151267
-0.178271
-0.181229
-0.149311
-0.122311
-0.110448
-0.096634
-0.10714
-0.179904
-0.20889
-0.162205
-0.125948
-0.11895
-0.125305
-0.139424
-0.126705
-0.0948613
-0.0544729
-0.00757872
-0.00619782
-0.060872
-0.109784
-0.117032
-0.071581
-0.0252953
-0.00941919
-0.027794
-0.0621467
-0.0753936
-0.0458728
-0.0169879
-0.0129063
-0.0129851
-0.00778264
-0.00590406
-0.00783122
-0.01228
-0.0162687
-0.0141408
-0.0131623
-0.0233079
-0.0308529
-0.0223299
-0.00685722
0.00281189
0.00572381
0.00678929
0.0081077
0.00945465
0.0104493
0.0110559
0.0113604
0.0114474
0.0113846
0.0112232
0.011
0.0107392
0.0104559
0.0101592
0.00985405
0.00954355
0.00922909
0.00891163
0.00859147
0.00826887
0.00794393
0.00761664
0.00728707
0.0069552
0.00662101
0.00628454
0.00594569
0.00560452
0.00526095
0.00491497
0.00456657
0.0042157
0.00386238
0.00350658
0.00314829
0.0027875
0.00242419
0.00205834
0.00168991
0.0013189
0.000945283
0.000569023
0.000190119
-0.128806
-0.129101
-0.124644
-0.130066
-0.118512
-0.111015
-0.109911
-0.117344
-0.166961
-0.170001
-0.128831
-0.129277
-0.148853
-0.173334
-0.173424
-0.142222
-0.113234
-0.0995477
-0.0903218
-0.106469
-0.18594
-0.217385
-0.169529
-0.129157
-0.111835
-0.112658
-0.131736
-0.125236
-0.0933198
-0.0498783
-0.00124025
-0.002865
-0.0643527
-0.117821
-0.125178
-0.07647
-0.0265271
-0.00718743
-0.0227667
-0.054841
-0.0683789
-0.0418725
-0.0175279
-0.0180496
-0.0183657
-0.00984134
-0.00508057
-0.00602476
-0.0097053
-0.0132122
-0.0119587
-0.0133685
-0.0261722
-0.03478
-0.0247193
-0.00738994
0.00357995
0.00683829
0.00766753
0.00860228
0.00965063
0.0104837
0.0110299
0.0113248
0.0114196
0.0113667
0.0112128
0.0109944
0.0107363
0.0104545
0.0101584
0.0098537
0.00954338
0.00922901
0.00891158
0.00859145
0.00826886
0.00794392
0.00761664
0.00728707
0.0069552
0.00662101
0.00628454
0.00594569
0.00560452
0.00526095
0.00491497
0.00456658
0.0042157
0.00386238
0.00350658
0.00314829
0.00278751
0.00242419
0.00205834
0.00168991
0.0013189
0.000945284
0.000569022
0.000190119
-0.128783
-0.128926
-0.123589
-0.129766
-0.118288
-0.111059
-0.111253
-0.116648
-0.161729
-0.169439
-0.131663
-0.127614
-0.146166
-0.167773
-0.165429
-0.135005
-0.104438
-0.0889383
-0.083576
-0.104933
-0.189818
-0.223353
-0.175439
-0.1315
-0.105039
-0.101268
-0.124583
-0.123929
-0.0923088
-0.0460911
0.00428714
7.51007e-05
-0.0674047
-0.125023
-0.132344
-0.0804369
-0.0268734
-0.00428651
-0.0172559
-0.0470857
-0.0609218
-0.0373916
-0.0176061
-0.0228868
-0.0235355
-0.0116386
-0.00414408
-0.00411617
-0.00697489
-0.0100365
-0.00967806
-0.0133941
-0.0286431
-0.0381429
-0.026842
-0.00781076
0.00439323
0.00797999
0.00856082
0.00909996
0.00984443
0.0105161
0.0110035
0.0112897
0.0113925
0.0113495
0.0112031
0.0109893
0.0107337
0.0104532
0.0101578
0.00985342
0.00954324
0.00922894
0.00891155
0.00859143
0.00826885
0.00794392
0.00761664
0.00728707
0.00695521
0.00662102
0.00628454
0.00594569
0.00560452
0.00526096
0.00491497
0.00456658
0.0042157
0.00386238
0.00350658
0.0031483
0.00278751
0.00242419
0.00205834
0.00168992
0.0013189
0.000945283
0.000569022
0.000190119
-0.128657
-0.128601
-0.122563
-0.129232
-0.118111
-0.111426
-0.112717
-0.115976
-0.15554
-0.166877
-0.134248
-0.127084
-0.143493
-0.161846
-0.157428
-0.127908
-0.0963499
-0.0791572
-0.0768997
-0.102495
-0.191949
-0.22722
-0.180005
-0.133069
-0.0990749
-0.0916943
-0.1182
-0.122664
-0.0917198
-0.043145
0.00883041
0.0024551
-0.0699985
-0.131298
-0.138422
-0.0833675
-0.0263037
-0.000787459
-0.0113398
-0.0390234
-0.0531787
-0.0325634
-0.0172162
-0.027239
-0.0283099
-0.0131311
-0.00313282
-0.00213297
-0.00414934
-0.00680834
-0.00734375
-0.0132409
-0.0306883
-0.0409205
-0.0286537
-0.00810814
0.00523158
0.00912029
0.00944776
0.00958989
0.0100327
0.0105467
0.0109775
0.0112558
0.0113666
0.0113333
0.011194
0.0109846
0.0107314
0.0104521
0.0101573
0.00985319
0.00954313
0.00922889
0.00891152
0.00859142
0.00826884
0.00794391
0.00761663
0.00728708
0.00695521
0.00662102
0.00628455
0.0059457
0.00560452
0.00526096
0.00491498
0.00456658
0.00421571
0.00386238
0.00350658
0.0031483
0.00278751
0.0024242
0.00205834
0.00168992
0.0013189
0.000945283
0.000569022
0.000190119
-0.128326
-0.12821
-0.121698
-0.128468
-0.117997
-0.112022
-0.113976
-0.115254
-0.149069
-0.162586
-0.136216
-0.127587
-0.141106
-0.155857
-0.149612
-0.121136
-0.0892804
-0.070695
-0.0707918
-0.0992725
-0.19228
-0.228874
-0.183067
-0.13395
-0.0943736
-0.084223
-0.112753
-0.121479
-0.0914007
-0.0410034
0.0122483
0.00413669
-0.0720928
-0.136566
-0.143319
-0.0851747
-0.0248175
0.00322798
-0.00509952
-0.030806
-0.0453158
-0.0275244
-0.0163676
-0.0309364
-0.0325063
-0.0142917
-0.0020838
-0.000107692
-0.00130273
-0.00360281
-0.00500328
-0.0129184
-0.0322936
-0.0431751
-0.0301202
-0.00827499
0.00607364
0.01023
0.0103074
0.0100623
0.0102128
0.0105756
0.0109527
0.0112237
0.0113423
0.0113183
0.0111858
0.0109804
0.0107295
0.0104513
0.010157
0.00985302
0.00954306
0.00922885
0.0089115
0.0085914
0.00826883
0.00794391
0.00761663
0.00728708
0.00695521
0.00662102
0.00628455
0.0059457
0.00560453
0.00526096
0.00491498
0.00456658
0.00421571
0.00386238
0.00350658
0.0031483
0.00278751
0.0024242
0.00205834
0.00168992
0.0013189
0.000945282
0.000569022
0.000190119
-0.127723
-0.127745
-0.12111
-0.127435
-0.117962
-0.112721
-0.114808
-0.114617
-0.142696
-0.156946
-0.137313
-0.128887
-0.139228
-0.150109
-0.142167
-0.114902
-0.0834651
-0.0639803
-0.0656226
-0.0958142
-0.190472
-0.228158
-0.184518
-0.134367
-0.0912166
-0.0788724
-0.108315
-0.120105
-0.0911742
-0.0395785
0.0144632
0.00505701
-0.0736257
-0.140735
-0.146962
-0.0858018
-0.0224528
0.00767483
0.00138786
-0.0225925
-0.0374877
-0.0223914
-0.0150767
-0.0338334
-0.0359615
-0.0151104
-0.00103062
0.00192373
0.00149906
-0.000496894
-0.00270502
-0.0124404
-0.033461
-0.0448998
-0.0312207
-0.00830897
0.0068977
0.0112813
0.0111207
0.0105086
0.0103825
0.0106033
0.01093
0.0111942
0.01132
0.0113047
0.0111785
0.0109769
0.0107279
0.0104506
0.0101567
0.00985291
0.00954301
0.00922884
0.00891149
0.0085914
0.00826883
0.00794391
0.00761663
0.00728708
0.00695522
0.00662103
0.00628455
0.0059457
0.00560453
0.00526096
0.00491498
0.00456658
0.00421571
0.00386239
0.00350659
0.0031483
0.00278751
0.0024242
0.00205834
0.00168992
0.0013189
0.000945282
0.000569022
0.000190118
-0.126811
-0.127132
-0.120865
-0.126115
-0.117989
-0.113442
-0.115112
-0.11412
-0.136645
-0.150398
-0.137464
-0.130696
-0.137978
-0.144862
-0.135301
-0.109442
-0.0790461
-0.0592466
-0.0616638
-0.0927269
-0.186806
-0.225188
-0.18469
-0.134823
-0.0897068
-0.0755547
-0.104917
-0.118522
-0.0908546
-0.0387352
0.0154561
0.0052624
-0.0745098
-0.143693
-0.149298
-0.0852323
-0.0192786
0.0124661
0.00803559
-0.0145272
-0.0298309
-0.0172598
-0.013371
-0.0358259
-0.03855
-0.0155941
-5.35559e-07
0.00392025
0.00435881
0.00243759
-0.000495884
-0.0118255
-0.0342043
-0.0460969
-0.0319478
-0.00821282
0.00768288
0.0122498
0.0118712
0.0109218
0.0105405
0.0106303
0.0109103
0.0111676
0.0113
0.0112926
0.0111722
0.0109739
0.0107266
0.0104501
0.0101565
0.00985287
0.00954301
0.00922883
0.00891149
0.00859139
0.00826882
0.0079439
0.00761663
0.00728708
0.00695522
0.00662103
0.00628455
0.0059457
0.00560453
0.00526096
0.00491498
0.00456658
0.00421571
0.00386239
0.00350659
0.0031483
0.00278751
0.0024242
0.00205834
0.00168992
0.0013189
0.000945281
0.000569022
0.000190118
-0.125695
-0.126305
-0.12096
-0.124535
-0.118031
-0.114147
-0.114869
-0.11372
-0.131066
-0.143391
-0.136722
-0.132701
-0.137362
-0.140307
-0.129232
-0.10495
-0.0760588
-0.0564957
-0.0591132
-0.0902519
-0.182153
-0.220592
-0.184011
-0.135645
-0.0897184
-0.0741358
-0.102512
-0.116746
-0.0902694
-0.038294
0.0152511
0.00487838
-0.0746577
-0.145329
-0.150305
-0.0834948
-0.0153979
0.0175197
0.0147425
-0.00672971
-0.022472
-0.0122169
-0.011308
-0.036875
-0.0402005
-0.0157672
0.000986658
0.00583372
0.00681628
0.00513287
0.00157947
-0.0110984
-0.0345476
-0.0467792
-0.0323083
-0.00799481
0.00841
0.0131153
0.0125456
0.0112966
0.0106858
0.010657
0.0108938
0.0111444
0.0112823
0.0112821
0.0111668
0.0109715
0.0107257
0.0104498
0.0101565
0.00985288
0.00954302
0.00922885
0.0089115
0.0085914
0.00826882
0.0079439
0.00761663
0.00728709
0.00695522
0.00662103
0.00628455
0.0059457
0.00560453
0.00526096
0.00491498
0.00456658
0.00421571
0.00386239
0.00350659
0.0031483
0.00278751
0.0024242
0.00205834
0.00168992
0.0013189
0.000945281
0.000569021
0.000190118
-0.124482
-0.125222
-0.121327
-0.122792
-0.118015
-0.114798
-0.114164
-0.113346
-0.126042
-0.136357
-0.135251
-0.134641
-0.137287
-0.136551
-0.124167
-0.101554
-0.074443
-0.0555529
-0.0580532
-0.0884047
-0.177139
-0.215043
-0.182837
-0.136753
-0.0908937
-0.0743264
-0.100947
-0.114779
-0.0892691
-0.0380349
0.0139281
0.00403662
-0.0740165
-0.145568
-0.14998
-0.0806598
-0.0109451
0.0227519
0.0214099
0.00068781
-0.0155252
-0.00735536
-0.00898865
-0.0370207
-0.0409144
-0.0156702
0.00191955
0.00762099
0.00896901
0.00753353
0.00347889
-0.0102863
-0.034526
-0.04698
-0.032323
-0.00766854
0.0090625
0.0138628
0.0131349
0.0116294
0.0108179
0.0106834
0.0108807
0.0111244
0.011267
0.0112729
0.0111622
0.0109696
0.010725
0.0104497
0.0101565
0.00985293
0.00954306
0.00922887
0.00891151
0.0085914
0.00826882
0.0079439
0.00761664
0.00728709
0.00695522
0.00662103
0.00628456
0.00594571
0.00560453
0.00526096
0.00491498
0.00456658
0.00421571
0.00386239
0.00350659
0.0031483
0.00278751
0.0024242
0.00205834
0.00168992
0.0013189
0.000945281
0.000569021
0.000190118
-0.123285
-0.123906
-0.121839
-0.121029
-0.117873
-0.115342
-0.113149
-0.11291
-0.121644
-0.129686
-0.133283
-0.136328
-0.137594
-0.133616
-0.120257
-0.0992856
-0.0740379
-0.0561111
-0.0584561
-0.0873352
-0.171626
-0.208733
-0.181435
-0.137874
-0.0927856
-0.0756938
-0.100138
-0.112621
-0.0877329
-0.0377272
0.0116396
0.0028464
-0.0725033
-0.144417
-0.148338
-0.0768429
-0.00608074
0.02806
0.0279307
0.00762149
-0.00908338
-0.00277639
-0.00655185
-0.0363826
-0.0407804
-0.0153527
0.00279292
0.00923528
0.010787
0.0095992
0.00516544
-0.0094223
-0.0341822
-0.0467486
-0.0320261
-0.00725252
0.00962721
0.0144839
0.0136342
0.0119187
0.0109364
0.0107092
0.0108705
0.0111072
0.0112536
0.011265
0.0111584
0.0109681
0.0107246
0.0104496
0.0101566
0.009853
0.00954311
0.0092289
0.00891152
0.00859141
0.00826882
0.0079439
0.00761664
0.00728709
0.00695523
0.00662104
0.00628456
0.00594571
0.00560453
0.00526097
0.00491498
0.00456658
0.00421571
0.00386239
0.00350659
0.0031483
0.00278751
0.0024242
0.00205834
0.00168992
0.0013189
0.00094528
0.000569021
0.000190118
-0.122207
-0.122452
-0.122347
-0.119402
-0.117597
-0.11575
-0.111993
-0.112343
-0.117932
-0.123699
-0.131051
-0.137621
-0.13808
-0.131466
-0.117538
-0.0980742
-0.074583
-0.0578005
-0.0601591
-0.0872708
-0.165339
-0.201592
-0.179778
-0.138738
-0.0950222
-0.0777922
-0.0996108
-0.110266
-0.0855783
-0.037162
0.00861523
0.00143506
-0.0699954
-0.141943
-0.145383
-0.0722077
-0.000976781
0.0333351
0.0341801
0.0139867
-0.0032084
0.00142398
-0.0041709
-0.0351653
-0.0399741
-0.0148675
0.00360263
0.0106282
0.0122547
0.0113061
0.00660914
-0.00854557
-0.0335664
-0.0461426
-0.0314626
-0.00676986
0.0100951
0.0149763
0.014043
0.0121645
0.0110409
0.0107336
0.0108625
0.0110925
0.0112419
0.0112581
0.011155
0.0109667
0.0107242
0.0104496
0.0101566
0.00985307
0.00954316
0.00922893
0.00891154
0.00859141
0.00826883
0.00794391
0.00761664
0.00728709
0.00695523
0.00662104
0.00628456
0.00594571
0.00560453
0.00526097
0.00491498
0.00456658
0.00421571
0.00386239
0.00350659
0.0031483
0.00278751
0.0024242
0.00205834
0.00168992
0.0013189
0.00094528
0.000569021
0.000190118
-0.121331
-0.121015
-0.1227
-0.118051
-0.11723
-0.116021
-0.110868
-0.11163
-0.114939
-0.118653
-0.128753
-0.138384
-0.138519
-0.130029
-0.115929
-0.0977202
-0.0757347
-0.0602283
-0.0628118
-0.0881027
-0.158447
-0.193823
-0.177382
-0.139215
-0.0973541
-0.0802595
-0.0992944
-0.107714
-0.0827828
-0.0361663
0.0051563
-3.34546e-05
-0.06654
-0.138179
-0.141115
-0.0669551
0.0041779
0.0384637
0.0400329
0.0197054
0.00206604
0.00518473
-0.00201856
-0.0336432
-0.038738
-0.0142667
0.0043447
0.0117585
0.0133764
0.0126448
0.0077863
-0.00769741
-0.0327389
-0.0452336
-0.0306899
-0.00624765
0.0104623
0.0153442
0.0143645
0.0123682
0.0111312
0.0107557
0.0108558
0.0110795
0.0112314
0.0112518
0.0111519
0.0109655
0.0107238
0.0104495
0.0101567
0.00985311
0.0095432
0.00922896
0.00891155
0.00859142
0.00826883
0.00794391
0.00761664
0.00728709
0.00695523
0.00662104
0.00628456
0.00594571
0.00560453
0.00526097
0.00491498
0.00456658
0.00421571
0.00386239
0.00350659
0.0031483
0.00278751
0.0024242
0.00205834
0.00168992
0.0013189
0.00094528
0.000569021
0.000190118
-0.1207
-0.119759
-0.122846
-0.11706
-0.116819
-0.116184
-0.10994
-0.110838
-0.112649
-0.114738
-0.126572
-0.138526
-0.138721
-0.129233
-0.115225
-0.097901
-0.0772094
-0.0628942
-0.0659836
-0.0896008
-0.151208
-0.18551
-0.174077
-0.139158
-0.0996341
-0.0828373
-0.0990359
-0.104972
-0.079372
-0.0346297
0.00159868
-0.0013225
-0.0624541
-0.133068
-0.135495
-0.0613089
0.00918875
0.0433269
0.045385
0.0246948
0.00671178
0.00848864
-0.000180207
-0.0320843
-0.0373269
-0.0135938
0.00501237
0.0125974
0.0141772
0.0136214
0.00868095
-0.00691731
-0.0317668
-0.044114
-0.0297791
-0.00571582
0.010731
0.0155972
0.0146055
0.0125322
0.0112069
0.0107746
0.01085
0.011068
0.011222
0.011246
0.0111489
0.0109641
0.0107233
0.0104494
0.0101566
0.00985313
0.00954322
0.00922897
0.00891156
0.00859143
0.00826883
0.00794391
0.00761664
0.0072871
0.00695523
0.00662104
0.00628456
0.00594571
0.00560453
0.00526097
0.00491498
0.00456658
0.00421571
0.00386239
0.00350659
0.0031483
0.00278751
0.0024242
0.00205834
0.00168992
0.00131891
0.00094528
0.000569021
0.000190117
-0.120306
-0.118802
-0.122794
-0.116435
-0.116413
-0.116248
-0.109324
-0.110081
-0.111014
-0.112045
-0.124681
-0.138089
-0.138622
-0.128923
-0.115079
-0.0982477
-0.0783732
-0.0654119
-0.0692573
-0.0913677
-0.14402
-0.176973
-0.169941
-0.138551
-0.101653
-0.0853569
-0.0987339
-0.102045
-0.0754327
-0.0325483
-0.00164262
-0.00234321
-0.0578475
-0.126655
-0.12871
-0.0553736
0.0138351
0.0478125
0.0501413
0.0288678
0.0106778
0.0113027
0.00138217
-0.0305991
-0.0358984
-0.0128735
0.00558432
0.0131401
0.0146948
0.0142598
0.00928957
-0.00624294
-0.0307206
-0.0428852
-0.0288066
-0.00520385
0.0109078
0.0157488
0.0147754
0.0126596
0.0112684
0.0107905
0.0108452
0.0110581
0.0112136
0.0112406
0.011146
0.0109627
0.0107226
0.0104491
0.0101566
0.00985311
0.00954322
0.00922898
0.00891156
0.00859143
0.00826883
0.00794391
0.00761664
0.0072871
0.00695523
0.00662104
0.00628456
0.00594571
0.00560453
0.00526097
0.00491498
0.00456658
0.00421571
0.00386239
0.00350659
0.0031483
0.00278751
0.0024242
0.00205834
0.00168992
0.00131891
0.00094528
0.000569021
0.000190117
-0.120098
-0.118189
-0.122578
-0.116122
-0.116073
-0.116206
-0.109038
-0.109484
-0.109983
-0.110508
-0.123217
-0.137265
-0.138278
-0.128829
-0.115111
-0.0984455
-0.0791807
-0.067521
-0.07283
-0.0930055
-0.137468
-0.168628
-0.165216
-0.137523
-0.103273
-0.0877033
-0.0982508
-0.098902
-0.0710753
-0.0300238
-0.00414221
-0.00309352
-0.0529208
-0.119395
-0.121136
-0.0494205
0.017902
0.0518001
0.0542016
0.0321643
0.0138928
0.0135178
0.00267905
-0.0291501
-0.0344532
-0.0121039
0.00601694
0.013421
0.0149746
0.0146028
0.00962614
-0.00570651
-0.0296758
-0.041648
-0.027847
-0.00473953
0.0110022
0.0158161
0.0148842
0.0127536
0.0113169
0.0108042
0.0108419
0.0110501
0.0112063
0.0112357
0.0111431
0.0109612
0.0107219
0.0104488
0.0101564
0.00985306
0.0095432
0.00922897
0.00891156
0.00859143
0.00826883
0.00794391
0.00761664
0.0072871
0.00695524
0.00662105
0.00628456
0.00594571
0.00560454
0.00526097
0.00491498
0.00456658
0.00421571
0.00386239
0.00350659
0.0031483
0.00278751
0.0024242
0.00205834
0.00168992
0.00131891
0.000945279
0.000569021
0.000190117
-0.120001
-0.117902
-0.122255
-0.116037
-0.11585
-0.11607
-0.109029
-0.109136
-0.109466
-0.109896
-0.122246
-0.136312
-0.137747
-0.128685
-0.115067
-0.0984009
-0.0796062
-0.0690283
-0.0748438
-0.0941812
-0.132099
-0.161061
-0.160394
-0.136216
-0.104488
-0.089677
-0.0976668
-0.0956109
-0.0665884
-0.02713
-0.00564891
-0.00357901
-0.0481136
-0.112315
-0.113868
-0.043897
0.0211097
0.0551898
0.057437
0.0345911
0.0162944
0.0150129
0.00360893
-0.0277663
-0.0329824
-0.0113282
0.00626464
0.0135018
0.0150732
0.0147133
0.0097283
-0.0053316
-0.0287134
-0.040504
-0.0269761
-0.00435397
0.0110253
0.0158171
0.0149412
0.0128179
0.0113545
0.010817
0.010841
0.0110443
0.0112005
0.0112313
0.0111404
0.0109597
0.0107211
0.0104484
0.0101563
0.00985299
0.00954317
0.00922896
0.00891156
0.00859142
0.00826883
0.00794391
0.00761664
0.0072871
0.00695524
0.00662105
0.00628456
0.00594571
0.00560454
0.00526097
0.00491498
0.00456658
0.00421571
0.00386239
0.00350659
0.0031483
0.00278751
0.0024242
0.00205834
0.00168992
0.00131891
0.000945279
0.000569021
0.000190117
-0.119942
-0.117883
-0.121898
-0.116094
-0.115768
-0.11587
-0.109222
-0.109041
-0.109302
-0.109898
-0.121724
-0.135453
-0.137115
-0.128398
-0.114865
-0.098195
-0.0797372
-0.0699344
-0.0759883
-0.0948986
-0.128263
-0.155097
-0.156174
-0.134655
-0.105317
-0.0911624
-0.0969893
-0.0923967
-0.0624567
-0.0243007
-0.00614301
-0.00401823
-0.0437805
-0.106274
-0.107923
-0.0395553
0.0236092
0.0579296
0.0596796
0.0362324
0.017872
0.0157933
0.0040851
-0.0266255
-0.0316889
-0.010693
0.00632564
0.0134529
0.0149457
0.0146717
0.00966281
-0.00513376
-0.0280071
-0.0394192
-0.0262835
-0.00407897
0.0109918
0.0157697
0.0149559
0.0128566
0.0113828
0.0108294
0.0108426
0.011041
0.0111962
0.0112279
0.0111381
0.0109583
0.0107204
0.0104481
0.0101561
0.0098529
0.00954313
0.00922894
0.00891155
0.00859142
0.00826883
0.00794391
0.00761664
0.0072871
0.00695524
0.00662105
0.00628456
0.00594571
0.00560454
0.00526097
0.00491498
0.00456658
0.00421571
0.00386239
0.00350659
0.0031483
0.00278751
0.0024242
0.00205834
0.00168992
0.00131891
0.000945279
0.000569021
0.000190117
-0.119881
-0.118028
-0.12159
-0.116258
-0.115802
-0.115665
-0.109482
-0.10911
-0.109286
-0.11017
-0.121531
-0.134889
-0.136523
-0.128071
-0.114619
-0.0979655
-0.0796962
-0.0703603
-0.0764764
-0.0952371
-0.126258
-0.151576
-0.153373
-0.133459
-0.105801
-0.0921358
-0.0964419
-0.0901222
-0.059566
-0.0222506
-0.00605201
-0.00420055
-0.0410315
-0.101916
-0.103458
-0.0365623
0.0254039
0.059821
0.0608688
0.0371415
0.0186572
0.0160101
0.0041312
-0.0259037
-0.0308099
-0.0103042
0.00627059
0.0133571
0.0149081
0.0145484
0.00951148
-0.00512036
-0.0275635
-0.0386477
-0.0257448
-0.00393466
0.0109315
0.0156999
0.0149429
0.0128747
0.0114017
0.0108402
0.0108473
0.0110398
0.0111937
0.0112256
0.0111365
0.0109573
0.0107198
0.0104478
0.0101559
0.00985284
0.0095431
0.00922893
0.00891154
0.00859142
0.00826883
0.00794391
0.00761664
0.0072871
0.00695524
0.00662105
0.00628456
0.00594571
0.00560454
0.00526097
0.00491498
0.00456658
0.00421571
0.00386239
0.00350659
0.0031483
0.00278751
0.0024242
0.00205834
0.00168992
0.0013189
0.000945279
0.000569021
0.000190117
-0.119815
-0.118239
-0.121426
-0.116277
-0.1159
-0.115534
-0.109604
-0.109243
-0.109323
-0.110543
-0.12153
-0.134742
-0.136217
-0.127799
-0.114358
-0.0977938
-0.0795297
-0.0704378
-0.0765977
-0.0955219
-0.126049
-0.15075
-0.152404
-0.132904
-0.106032
-0.0926103
-0.0962727
-0.0891084
-0.0581695
-0.0212414
-0.00586585
-0.00485189
-0.0404132
-0.100027
-0.101071
-0.0349301
0.0263884
0.0607176
0.061211
0.0372993
0.0187479
0.0157722
0.00380388
-0.0256562
-0.0303157
-0.0101136
0.00624384
0.0133079
0.0149032
0.0145077
0.00929632
-0.00532111
-0.0274631
-0.0382748
-0.0254073
-0.00383473
0.0109139
0.0156605
0.0149255
0.0128758
0.0114086
0.0108454
0.0108496
0.0110404
0.0111932
0.0112249
0.0111359
0.010957
0.0107196
0.0104477
0.0101559
0.00985281
0.00954309
0.00922892
0.00891154
0.00859141
0.00826883
0.0079439
0.00761664
0.0072871
0.00695524
0.00662105
0.00628456
0.00594571
0.00560454
0.00526097
0.00491498
0.00456658
0.00421571
0.00386239
0.00350659
0.0031483
0.00278751
0.0024242
0.00205834
0.00168992
0.0013189
0.000945279
0.000569021
0.000190117
-0.125568
-0.125965
-0.127014
-0.125706
-0.124717
-0.125383
-0.128772
-0.135177
-0.142531
-0.142555
-0.140356
-0.145894
-0.162464
-0.191212
-0.198045
-0.175549
-0.155892
-0.13028
-0.0740881
0.0145921
0.0621205
0.0530145
0.0201134
-0.0245763
-0.0880061
-0.147343
-0.167099
-0.156331
-0.134781
-0.101911
-0.0549957
-0.00675302
0.0298656
0.033778
0.0212216
0.0181706
0.0247421
0.0169726
-0.0126383
-0.059644
-0.0632752
-0.0210882
0.0144641
0.0290037
0.0278162
0.0172234
0.0018956
-0.0132454
-0.0270442
-0.0317214
-0.0167388
0.00943398
0.0213275
0.0180458
0.010005
0.00348475
0.000322846
3.91908e-05
0.00194031
0.00496702
0.00791461
0.0100442
0.0112312
0.0117123
0.0117733
0.0116213
0.0113739
0.0110881
0.0107878
0.0104817
0.0101724
0.00986075
0.00954688
0.00923076
0.00891248
0.00859194
0.00826913
0.00794408
0.00761671
0.00728712
0.00695524
0.00662107
0.00628458
0.00594573
0.00560453
0.00526095
0.00491496
0.00456656
0.0042157
0.00386238
0.0035066
0.00314831
0.00278753
0.00242421
0.00205834
0.00168992
0.0013189
0.000945264
0.000569011
0.000190111
-0.125652
-0.126007
-0.127013
-0.125673
-0.124707
-0.125384
-0.128818
-0.135246
-0.142627
-0.142628
-0.140201
-0.145172
-0.162085
-0.191693
-0.200051
-0.176662
-0.156079
-0.131044
-0.076139
0.0122864
0.0608428
0.0526415
0.0202614
-0.0242533
-0.0887874
-0.148865
-0.168414
-0.156716
-0.135089
-0.102653
-0.0557376
-0.00745893
0.0296321
0.0342703
0.0211934
0.0179869
0.0248331
0.0174615
-0.0127443
-0.0603945
-0.0644914
-0.0218336
0.0143109
0.0290396
0.0279075
0.0173635
0.00198143
-0.0132558
-0.0271268
-0.032038
-0.0171715
0.00929172
0.0213939
0.0181663
0.0100312
0.00346898
0.000299162
1.31161e-05
0.00191119
0.00495038
0.00791107
0.0100464
0.0112344
0.0117146
0.0117746
0.0116218
0.0113741
0.0110882
0.0107879
0.0104817
0.0101724
0.00986076
0.00954689
0.00923076
0.00891248
0.00859194
0.00826913
0.00794408
0.00761671
0.00728712
0.00695524
0.00662107
0.00628458
0.00594573
0.00560453
0.00526095
0.00491496
0.00456656
0.0042157
0.00386238
0.0035066
0.00314831
0.00278753
0.00242421
0.00205834
0.00168992
0.0013189
0.000945264
0.000569011
0.000190111
-0.125746
-0.126103
-0.127093
-0.125675
-0.124645
-0.12532
-0.128808
-0.135363
-0.142893
-0.142752
-0.140017
-0.145322
-0.161938
-0.193423
-0.204464
-0.179405
-0.156604
-0.133529
-0.0807445
0.00777029
0.0586933
0.0525213
0.0201227
-0.0253309
-0.0915873
-0.152667
-0.171081
-0.157438
-0.135583
-0.103866
-0.0570831
-0.00894746
0.0286242
0.0341558
0.020914
0.0179112
0.0251503
0.0177324
-0.0137193
-0.0624843
-0.06695
-0.0231969
0.0140935
0.0291833
0.0281104
0.0174636
0.00185107
-0.0135375
-0.0274309
-0.0326691
-0.0178316
0.00896225
0.0215004
0.0182142
0.00997067
0.00338551
0.00023796
-3.46658e-05
0.00187792
0.00493971
0.00791868
0.0100592
0.0112448
0.0117209
0.0117777
0.0116231
0.0113746
0.0110884
0.0107879
0.0104817
0.0101724
0.00986076
0.00954689
0.00923077
0.00891248
0.00859194
0.00826913
0.00794408
0.00761671
0.00728712
0.00695524
0.00662107
0.00628458
0.00594573
0.00560453
0.00526095
0.00491496
0.00456656
0.0042157
0.00386238
0.0035066
0.00314831
0.00278753
0.00242421
0.00205834
0.00168992
0.0013189
0.000945264
0.000569011
0.000190111
-0.125853
-0.126254
-0.127217
-0.125709
-0.124526
-0.125192
-0.128712
-0.135463
-0.143335
-0.14299
-0.139955
-0.146638
-0.162101
-0.195829
-0.209708
-0.182432
-0.157049
-0.136905
-0.0870948
0.00202474
0.0560403
0.0531272
0.0203319
-0.0274487
-0.0961173
-0.158238
-0.174763
-0.158315
-0.136215
-0.10544
-0.058558
-0.0110468
0.0264775
0.0336285
0.0202741
0.017802
0.0256695
0.0178404
-0.0154677
-0.0656632
-0.0704894
-0.0251365
0.0137619
0.0294017
0.028409
0.017535
0.00153316
-0.014034
-0.0278785
-0.0336466
-0.0187345
0.00840049
0.0215283
0.0181837
0.00981959
0.00325575
0.000164866
-8.70185e-05
0.00184338
0.00493208
0.00793097
0.0100756
0.0112569
0.0117275
0.0117806
0.0116242
0.0113749
0.0110885
0.0107879
0.0104817
0.0101725
0.00986077
0.0095469
0.00923077
0.00891248
0.00859194
0.00826913
0.00794408
0.00761671
0.00728712
0.00695524
0.00662107
0.00628458
0.00594573
0.00560453
0.00526095
0.00491496
0.00456656
0.0042157
0.00386238
0.0035066
0.00314831
0.00278753