/*--------------------------------*- C++ -*----------------------------------*\
| =========                 |                                                 |
| \\      /  F ield         | OpenFOAM: The Open Source CFD Toolbox           |
|  \\    /   O peration     | Version:  2.4.0                                 |
|   \\  /    A nd           | Web:      www.OpenFOAM.org                      |
|    \\/     M anipulation  |                                                 |
\*---------------------------------------------------------------------------*/
FoamFile
{
    version     2.0;
    format      ascii;
    class       volScalarField;
    location    "1.24";
    object      p;
}
// * * * * * * * * * * * * * * * * * * * * * * * * * * * * * * * * * * * * * //

dimensions      [0 2 -2 0 0 0 0];

internalField   nonuniform List<scalar> 
4400
(
-21.1355
-20.6507
-20.5841
-21.2781
-21.112
-21.2706
-21.6492
-21.2163
-22.1247
-21.8955
-21.6264
-22.148
-21.8053
-21.9577
-22.3666
-22.393
-22.0048
-21.359
-22.7574
-15.8741
-21.1822
-20.6613
-20.5559
-21.3229
-21.1458
-21.2887
-21.6525
-21.2086
-22.0905
-21.9137
-21.6339
-22.1651
-21.7863
-22.0052
-22.4028
-22.3798
-22.0698
-21.5897
-22.9212
-16.741
-21.1838
-20.7117
-20.5779
-21.2962
-21.2151
-21.2918
-21.6297
-21.2458
-22.0573
-21.8995
-21.6441
-22.2106
-21.8023
-22.0525
-22.3928
-22.3581
-22.2725
-21.7064
-23.3643
-17.7219
-21.1915
-20.7587
-20.5901
-21.3191
-21.2439
-21.2685
-21.6704
-21.2767
-21.9968
-21.9678
-21.6817
-22.3364
-21.875
-22.0712
-22.3318
-22.2452
-22.3377
-21.8075
-23.3929
-18.8546
-21.186
-20.7889
-20.5953
-21.2928
-21.2713
-21.2556
-21.6663
-21.3294
-21.9971
-21.9845
-21.7779
-22.5288
-21.9996
-22.128
-22.3946
-22.2708
-22.4419
-21.8151
-23.387
-20.1237
-21.1859
-20.8211
-20.5968
-21.3169
-21.2828
-21.2408
-21.6812
-21.3643
-21.9582
-22.0286
-21.859
-22.6535
-22.0576
-22.1705
-22.5171
-22.2957
-22.462
-21.9693
-23.3278
-21.1975
-21.1754
-20.8562
-20.6099
-21.3142
-21.3259
-21.2412
-21.6932
-21.3793
-21.9017
-21.9297
-21.9095
-22.657
-22.0544
-22.2242
-22.6119
-22.313
-22.5841
-22.2155
-23.26
-22.1467
-21.1666
-20.8811
-20.5869
-21.3143
-21.3403
-21.2243
-21.6914
-21.3885
-21.8305
-21.9813
-21.9025
-22.5716
-22.0412
-22.2385
-22.6391
-22.3367
-22.6553
-22.4756
-23.2894
-22.9187
-21.1559
-20.9009
-20.5594
-21.2959
-21.3752
-21.222
-21.6804
-21.386
-21.7842
-22.0222
-21.8101
-22.4513
-22.0443
-22.1963
-22.6178
-22.3516
-22.6648
-22.6665
-23.3678
-23.4431
-21.138
-20.9324
-20.522
-21.2877
-21.4112
-21.2004
-21.6616
-21.3995
-21.7425
-22.043
-21.7165
-22.3517
-22.0673
-22.1383
-22.6001
-22.3753
-22.6395
-22.8226
-23.4649
-23.7924
-21.1133
-20.959
-20.4955
-21.2727
-21.445
-21.1874
-21.6437
-21.4109
-21.7075
-22.056
-21.6449
-22.2753
-22.0917
-22.0782
-22.5868
-22.4049
-22.6226
-22.944
-23.5808
-24.0899
-21.0809
-20.9856
-20.4728
-21.2553
-21.477
-21.1739
-21.6259
-21.4256
-21.6684
-22.0564
-21.608
-22.2258
-22.1104
-22.0337
-22.5936
-22.4233
-22.6199
-23.0867
-23.6854
-24.3368
-21.0497
-21.0091
-20.45
-21.238
-21.4973
-21.1607
-21.6155
-21.4387
-21.6345
-22.0558
-21.5767
-22.1835
-22.1397
-21.9883
-22.6013
-22.4483
-22.6225
-23.2247
-23.796
-24.556
-21.0098
-21.0337
-20.4398
-21.2181
-21.5442
-21.1536
-21.604
-21.4518
-21.6035
-22.0514
-21.5589
-22.1501
-22.1551
-21.962
-22.6231
-22.4557
-22.6472
-23.377
-23.8825
-24.7228
-20.973
-21.0546
-20.4272
-21.2006
-21.5669
-21.1443
-21.5976
-21.4653
-21.5968
-22.0507
-21.5478
-22.1202
-22.179
-21.9262
-22.6483
-22.4768
-22.6417
-23.5259
-23.9723
-24.8526
-20.9288
-21.0716
-20.4239
-21.1813
-21.5878
-21.1374
-21.5894
-21.4765
-21.564
-22.0456
-21.5465
-22.0946
-22.1891
-21.9537
-22.6641
-22.4783
-22.6756
-23.6441
-24.0224
-24.953
-20.8887
-21.0846
-20.4208
-21.164
-21.6042
-21.1353
-21.5841
-21.4867
-21.547
-22.0436
-21.5458
-22.0817
-22.2004
-21.9272
-22.7031
-22.4839
-22.6285
-23.7949
-24.0842
-24.9751
-20.8451
-21.0946
-20.4221
-21.1493
-21.6193
-21.131
-21.5808
-21.4956
-21.529
-22.0388
-21.5557
-22.0671
-22.2096
-21.9291
-22.7095
-22.4858
-22.6446
-23.8556
-24.1225
-25.0358
-20.7973
-21.1
-20.4312
-21.136
-21.632
-21.1328
-21.5761
-21.5039
-21.521
-22.0332
-21.5599
-22.0701
-22.1992
-21.922
-22.7757
-22.4703
-22.6367
-24.0106
-24.122
-25.0428
-20.7443
-21.0913
-20.4244
-21.1277
-21.6336
-21.1302
-21.5731
-21.5091
-21.5114
-22.0295
-21.5692
-22.0591
-22.1988
-21.924
-22.7643
-22.4769
-22.6359
-23.9868
-24.1161
-25.0434
-20.5861
-25.9296
-36.4133
-54.5142
-54.9576
-55.3376
-55.46
-51.8304
-42.1813
-30.5841
-20.3907
-12.1902
-6.40658
-2.94959
-0.924137
0.235685
0.901193
1.2493
1.4292
1.54181
1.62578
1.69206
1.7493
1.79482
1.82408
1.83715
1.83657
1.82668
1.8116
1.79396
1.77505
1.75552
1.73563
1.7155
1.6952
1.67474
1.65412
1.63336
1.61246
1.59141
1.57021
1.54886
1.52736
1.50571
1.48391
1.46195
1.43984
1.41758
1.39516
1.37258
1.34984
1.32694
1.30389
1.28067
1.25728
1.23373
1.21002
1.18614
1.16209
1.13788
1.11349
1.08893
1.0642
1.0393
1.01422
0.988964
0.963532
0.93792
0.912129
0.886157
0.860003
0.833665
0.807142
0.780433
0.753536
0.726449
0.699172
0.671704
0.644042
0.616187
0.588135
0.559887
0.531439
0.502792
0.473943
0.44489
0.415637
0.386171
0.356508
0.326627
0.296543
0.266248
0.23573
0.205014
0.174067
0.142908
0.111538
0.0799331
0.0481153
0.0160776
-21.8282
-26.7786
-36.5289
-53.9246
-53.7307
-53.4697
-53.8617
-50.2582
-40.9593
-30.1446
-20.6343
-12.7037
-6.89136
-3.35627
-1.23765
0.0109093
0.746234
1.15511
1.38041
1.51503
1.60447
1.67808
1.74185
1.79058
1.8217
1.8362
1.83642
1.82681
1.81181
1.79415
1.77522
1.75565
1.73573
1.71558
1.69525
1.67477
1.65415
1.63338
1.61247
1.59141
1.57021
1.54886
1.52736
1.50571
1.48391
1.46195
1.43984
1.41758
1.39516
1.37258
1.34984
1.32694
1.30389
1.28067
1.25728
1.23374
1.21002
1.18614
1.16209
1.13788
1.11349
1.08893
1.0642
1.0393
1.01422
0.988965
0.963532
0.937921
0.912129
0.886157
0.860003
0.833665
0.807142
0.780433
0.753535
0.726449
0.699172
0.671704
0.644042
0.616187
0.588135
0.559887
0.531439
0.502793
0.473943
0.44489
0.415637
0.386171
0.356508
0.326627
0.296543
0.266247
0.235731
0.205014
0.174068
0.142908
0.111538
0.0799328
0.0481156
0.0160775
-22.736
-28.0344
-36.4835
-52.0282
-52.2954
-51.6972
-52.0901
-48.5123
-39.6289
-29.6514
-20.9093
-13.2472
-7.38799
-3.76104
-1.50837
-0.173861
0.607351
1.06096
1.31706
1.48074
1.59677
1.68404
1.74711
1.79259
1.82235
1.83687
1.83719
1.82748
1.81231
1.79451
1.77547
1.75582
1.73584
1.71566
1.69531
1.67481
1.65417
1.6334
1.61248
1.59142
1.57021
1.54886
1.52736
1.50571
1.48391
1.46195
1.43984
1.41758
1.39516
1.37258
1.34984
1.32694
1.30389
1.28067
1.25728
1.23374
1.21002
1.18614
1.16209
1.13788
1.11349
1.08893
1.0642
1.0393
1.01422
0.988965
0.963532
0.937921
0.912129
0.886157
0.860003
0.833665
0.807142
0.780433
0.753535
0.726449
0.699172
0.671704
0.644042
0.616187
0.588135
0.559887
0.531439
0.502792
0.473943
0.44489
0.415637
0.386171
0.356508
0.326627
0.296543
0.266247
0.235731
0.205014
0.174068
0.142908
0.111538
0.0799328
0.0481156
0.0160775
-23.3153
-29.2662
-36.3632
-49.578
-50.8401
-50.1323
-50.3336
-46.6175
-38.196
-29.1226
-21.2532
-13.9083
-7.92671
-4.15992
-1.80871
-0.354187
0.487104
0.975733
1.27117
1.45585
1.56758
1.65307
1.72499
1.78056
1.81645
1.83441
1.83638
1.8273
1.81236
1.79464
1.77561
1.75594
1.73594
1.71573
1.69536
1.67485
1.6542
1.63341
1.61249
1.59143
1.57022
1.54887
1.52736
1.50571
1.48391
1.46195
1.43984
1.41758
1.39516
1.37258
1.34984
1.32694
1.30389
1.28067
1.25728
1.23374
1.21002
1.18614
1.16209
1.13788
1.11349
1.08893
1.0642
1.0393
1.01422
0.988965
0.963532
0.937921
0.912129
0.886157
0.860003
0.833665
0.807142
0.780433
0.753535
0.726449
0.699172
0.671704
0.644042
0.616187
0.588135
0.559887
0.531439
0.502792
0.473943
0.44489
0.415637
0.386171
0.356508
0.326627
0.296543
0.266247
0.235731
0.205014
0.174068
0.142908
0.111538
0.0799329
0.0481156
0.0160775
-23.6212
-30.06
-36.3503
-47.49
-49.5206
-48.7189
-48.634
-44.7287
-36.8507
-28.5801
-21.5025
-14.4843
-8.52225
-4.53201
-2.07072
-0.522634
0.380209
0.903268
1.21811
1.42538
1.56744
1.67875
1.75005
1.79476
1.82346
1.8384
1.83886
1.82879
1.81323
1.79516
1.77593
1.75614
1.73607
1.71581
1.69541
1.67488
1.65422
1.63343
1.6125
1.59143
1.57022
1.54887
1.52737
1.50571
1.48391
1.46195
1.43984
1.41758
1.39516
1.37258
1.34984
1.32694
1.30389
1.28067
1.25728
1.23374
1.21002
1.18614
1.16209
1.13788
1.11349
1.08893
1.0642
1.0393
1.01422
0.988965
0.963532
0.937921
0.91213
0.886157
0.860003
0.833665
0.807142
0.780433
0.753535
0.726449
0.699172
0.671704
0.644042
0.616187
0.588135
0.559887
0.531439
0.502792
0.473943
0.44489
0.415637
0.386171
0.356508
0.326627
0.296543
0.266247
0.235731
0.205014
0.174068
0.142908
0.111538
0.079933
0.0481156
0.0160775
-23.8735
-30.4987
-36.3483
-45.7792
-48.1892
-47.3499
-46.9382
-43.0615
-35.6481
-28.1518
-21.8131
-14.9667
-9.04141
-4.95663
-2.33688
-0.674509
0.28437
0.838213
1.1819
1.40591
1.55704
1.63425
1.70953
1.7714
1.81246
1.83406
1.83742
1.8284
1.81322
1.79527
1.77607
1.75626
1.73616
1.71588
1.69547
1.67492
1.65425
1.63345
1.61251
1.59144
1.57023
1.54887
1.52737
1.50571
1.48391
1.46195
1.43984
1.41758
1.39516
1.37258
1.34984
1.32694
1.30389
1.28067
1.25728
1.23374
1.21002
1.18614
1.16209
1.13788
1.11349
1.08893
1.0642
1.0393
1.01422
0.988965
0.963532
0.937921
0.91213
0.886157
0.860003
0.833665
0.807142
0.780433
0.753535
0.726449
0.699172
0.671704
0.644042
0.616187
0.588135
0.559887
0.531439
0.502792
0.473943
0.44489
0.415637
0.386171
0.356508
0.326627
0.296543
0.266247
0.235731
0.205014
0.174068
0.142908
0.111538
0.0799331
0.0481156
0.0160775
-24.3136
-30.7013
-36.1602
-44.3226
-46.7437
-45.9491
-45.2562
-41.5581
-34.5141
-27.777
-22.1824
-15.6392
-9.57013
-5.344
-2.60355
-0.820969
0.202454
0.782599
1.13455
1.38157
1.54802
1.66916
1.75546
1.79905
1.82587
1.84096
1.84119
1.83038
1.81426
1.79584
1.7764
1.75646
1.73629
1.71597
1.69552
1.67496
1.65427
1.63346
1.61252
1.59145
1.57023
1.54887
1.52737
1.50572
1.48391
1.46195
1.43984
1.41758
1.39516
1.37258
1.34984
1.32694
1.30389
1.28067
1.25728
1.23374
1.21002
1.18614
1.16209
1.13788
1.11349
1.08893
1.0642
1.0393
1.01422
0.988965
0.963532
0.937921
0.91213
0.886158
0.860003
0.833665
0.807142
0.780433
0.753535
0.726449
0.699172
0.671704
0.644042
0.616187
0.588135
0.559887
0.531439
0.502792
0.473943
0.44489
0.415637
0.386171
0.356508
0.326627
0.296543
0.266247
0.235731
0.205013
0.174068
0.142908
0.111538
0.0799332
0.0481156
0.0160775
-24.8431
-30.7425
-35.7315
-42.5927
-45.2425
-44.5889
-43.6304
-40.1383
-33.5069
-27.4689
-22.5883
-16.3322
-10.1972
-5.74789
-2.83512
-0.984882
0.109114
0.74804
1.12094
1.36503
1.54125
1.65606
1.70962
1.77097
1.8126
1.83637
1.84023
1.83044
1.81453
1.79611
1.77661
1.75661
1.7364
1.71604
1.69557
1.67499
1.6543
1.63348
1.61253
1.59146
1.57024
1.54888
1.52737
1.50572
1.48391
1.46195
1.43984
1.41758
1.39516
1.37258
1.34984
1.32694
1.30389
1.28067
1.25728
1.23374
1.21002
1.18614
1.16209
1.13788
1.11349
1.08893
1.0642
1.0393
1.01422
0.988965
0.963532
0.937921
0.91213
0.886158
0.860003
0.833665
0.807142
0.780433
0.753535
0.726449
0.699172
0.671704
0.644042
0.616187
0.588135
0.559887
0.531439
0.502792
0.473943
0.44489
0.415637
0.386171
0.356508
0.326627
0.296543
0.266247
0.235731
0.205013
0.174068
0.142908
0.111538
0.0799333
0.0481156
0.0160775
-25.3225
-30.4202
-35.0969
-41.0323
-43.7855
-43.244
-42.1899
-38.8042
-32.5615
-27.2662
-23.0433
-17.0502
-10.8146
-6.22158
-3.08506
-1.0727
0.0374312
0.676216
1.07895
1.34741
1.53925
1.66947
1.75142
1.79744
1.82471
1.8426
1.84341
1.83194
1.81524
1.79649
1.77687
1.75679
1.73652
1.71612
1.69563
1.67503
1.65432
1.63349
1.61254
1.59146
1.57024
1.54888
1.52737
1.50572
1.48391
1.46196
1.43984
1.41758
1.39516
1.37258
1.34984
1.32694
1.30389
1.28067
1.25728
1.23374
1.21002
1.18614
1.16209
1.13788
1.11349
1.08893
1.0642
1.0393
1.01422
0.988965
0.963532
0.937921
0.91213
0.886158
0.860003
0.833665
0.807142
0.780433
0.753535
0.726449
0.699172
0.671704
0.644042
0.616187
0.588135
0.559887
0.531439
0.502792
0.473943
0.44489
0.415637
0.386171
0.356508
0.326627
0.296543
0.266247
0.235731
0.205013
0.174068
0.142908
0.111538
0.0799334
0.0481156
0.0160774
-25.7472
-30.3201
-34.3749
-39.8425
-42.4182
-41.9638
-40.8613
-37.5617
-31.5764
-27.2775
-23.5947
-17.7457
-11.3673
-6.60291
-3.32502
-1.23061
-0.0508013
0.658401
1.0597
1.33505
1.53532
1.65196
1.72666
1.77092
1.81553
1.84167
1.84459
1.83353
1.81639
1.79714
1.77722
1.75698
1.73664
1.7162
1.69568
1.67506
1.65434
1.63351
1.61255
1.59147
1.57025
1.54888
1.52737
1.50572
1.48391
1.46196
1.43985
1.41758
1.39516
1.37258
1.34984
1.32694
1.30389
1.28067
1.25728
1.23374
1.21002
1.18614
1.16209
1.13788
1.11349
1.08893
1.0642
1.0393
1.01422
0.988965
0.963532
0.937921
0.91213
0.886158
0.860003
0.833665
0.807142
0.780433
0.753535
0.726449
0.699172
0.671704
0.644042
0.616187
0.588135
0.559887
0.531439
0.502792
0.473943
0.44489
0.415637
0.386171
0.356508
0.326627
0.296543
0.266247
0.235731
0.205013
0.174068
0.142908
0.111538
0.0799335
0.0481156
0.0160774
-26.1056
-30.2663
-33.766
-38.491
-41.1912
-40.8079
-39.5168
-36.4415
-30.7004
-27.3111
-24.3575
-18.4802
-11.9581
-6.95562
-3.50924
-1.29234
-0.110752
0.562479
1.01539
1.32992
1.54104
1.67786
1.74931
1.7996
1.82117
1.8448
1.84575
1.83342
1.81617
1.79715
1.77736
1.75712
1.73674
1.71627
1.69573
1.67509
1.65436
1.63352
1.61256
1.59147
1.57025
1.54889
1.52738
1.50572
1.48391
1.46196
1.43985
1.41758
1.39516
1.37258
1.34984
1.32694
1.30389
1.28067
1.25728
1.23374
1.21002
1.18614
1.16209
1.13788
1.11349
1.08893
1.0642
1.0393
1.01422
0.988965
0.963532
0.937921
0.91213
0.886158
0.860003
0.833665
0.807142
0.780433
0.753535
0.726449
0.699172
0.671704
0.644042
0.616187
0.588135
0.559887
0.531439
0.502792
0.473943
0.44489
0.415637
0.386171
0.356508
0.326627
0.296543
0.266248
0.235731
0.205013
0.174068
0.142908
0.111538
0.0799336
0.0481155
0.0160774
-26.4495
-30.2087
-33.3049
-37.7493
-40.1403
-39.6989
-38.2692
-35.284
-29.8607
-27.3841
-25.2231
-19.3272
-12.5768
-7.30751
-3.65793
-1.32658
-0.12321
0.564241
1.03626
1.34401
1.54498
1.66151
1.7183
1.7601
1.81988
1.848
1.85064
1.83729
1.81844
1.79826
1.77786
1.75735
1.73687
1.71635
1.69578
1.67513
1.65438
1.63354
1.61257
1.59148
1.57025
1.54889
1.52738
1.50572
1.48391
1.46196
1.43985
1.41758
1.39516
1.37258
1.34984
1.32694
1.30389
1.28067
1.25728
1.23374
1.21002
1.18614
1.16209
1.13788
1.11349
1.08893
1.0642
1.0393
1.01422
0.988965
0.963532
0.937921
0.91213
0.886158
0.860003
0.833665
0.807142
0.780433
0.753535
0.726449
0.699172
0.671704
0.644042
0.616187
0.588135
0.559887
0.531439
0.502792
0.473943
0.44489
0.415637
0.386171
0.356508
0.326627
0.296543
0.266248
0.235731
0.205013
0.174068
0.142908
0.111538
0.0799337
0.0481155
0.0160773
-26.752
-30.1565
-32.9621
-37.0948
-39.2265
-38.6614
-37.0508
-33.9714
-28.9182
-27.6805
-26.0521
-20.2238
-13.2388
-7.68569
-3.81936
-1.34199
-0.139477
0.521754
1.00165
1.33799
1.54845
1.68393
1.75228
1.78159
1.82035
1.84692
1.84809
1.8349
1.81709
1.79779
1.77783
1.75744
1.73697
1.71642
1.69582
1.67516
1.6544
1.63355
1.61258
1.59149
1.57026
1.54889
1.52738
1.50572
1.48391
1.46196
1.43985
1.41758
1.39516
1.37258
1.34984
1.32694
1.30389
1.28067
1.25728
1.23374
1.21002
1.18614
1.16209
1.13788
1.11349
1.08893
1.0642
1.0393
1.01422
0.988965
0.963532
0.937921
0.91213
0.886158
0.860003
0.833665
0.807142
0.780433
0.753535
0.726449
0.699172
0.671704
0.644042
0.616187
0.588135
0.559887
0.531439
0.502792
0.473943
0.44489
0.415637
0.386171
0.356508
0.326627
0.296543
0.266248
0.235731
0.205013
0.174068
0.142908
0.111538
0.0799338
0.0481155
0.0160773
-27.0445
-30.1167
-32.7072
-36.527
-38.4405
-37.7271
-35.9392
-32.6196
-27.9045
-28.1941
-27.1188
-21.159
-13.9426
-8.09214
-3.941
-1.3542
-0.145134
0.530724
1.0227
1.34596
1.55354
1.67495
1.72092
1.76159
1.82008
1.85606
1.85787
1.84133
1.82053
1.7994
1.77863
1.75771
1.7371
1.7165
1.69587
1.67519
1.65442
1.63356
1.61259
1.59149
1.57026
1.54889
1.52738
1.50572
1.48392
1.46196
1.43985
1.41758
1.39516
1.37258
1.34984
1.32694
1.30389
1.28067
1.25728
1.23374
1.21002
1.18614
1.16209
1.13788
1.11349
1.08893
1.0642
1.0393
1.01422
0.988965
0.963532
0.937921
0.91213
0.886158
0.860003
0.833665
0.807142
0.780433
0.753535
0.726449
0.699172
0.671704
0.644042
0.616187
0.588135
0.559887
0.531439
0.502792
0.473943
0.44489
0.415637
0.386172
0.356508
0.326627
0.296543
0.266248
0.235731
0.205013
0.174068
0.142908
0.111538
0.0799339
0.0481154
0.0160772
-27.3024
-30.094
-32.5479
-36.1081
-37.8456
-36.8825
-34.9311
-31.3369
-27.0401
-28.8496
-28.3632
-22.1584
-14.5686
-8.4385
-4.10468
-1.33287
-0.0961733
0.540628
1.00092
1.34016
1.55489
1.69046
1.76677
1.78549
1.82096
1.84534
1.84772
1.83537
1.81769
1.79828
1.77799
1.75774
1.73718
1.71656
1.69591
1.67521
1.65444
1.63357
1.6126
1.5915
1.57026
1.54889
1.52738
1.50572
1.48392
1.46196
1.43985
1.41758
1.39516
1.37258
1.34984
1.32694
1.30389
1.28067
1.25728
1.23374
1.21002
1.18614
1.16209
1.13788
1.11349
1.08893
1.0642
1.0393
1.01422
0.988965
0.963532
0.937921
0.91213
0.886158
0.860003
0.833665
0.807142
0.780433
0.753535
0.726449
0.699172
0.671704
0.644042
0.616187
0.588135
0.559887
0.531439
0.502792
0.473943
0.44489
0.415637
0.386172
0.356508
0.326628
0.296542
0.266248
0.235731
0.205013
0.174068
0.142908
0.111538
0.0799341
0.0481154
0.0160772
-27.5087
-30.0802
-32.4043
-35.6899
-37.3878
-36.1472
-33.9238
-29.8083
-26.1691
-29.6896
-29.6573
-23.1714
-15.2483
-8.67948
-4.20504
-1.30327
-0.10458
0.549024
1.03594
1.36301
1.564
1.68092
1.73766
1.7873
1.82923
1.85827
1.85902
1.84292
1.82196
1.80043
1.7791
1.75813
1.73732
1.71663
1.69595
1.67524
1.65446
1.63358
1.6126
1.5915
1.57027
1.5489
1.52738
1.50572
1.48392
1.46196
1.43985
1.41758
1.39516
1.37258
1.34984
1.32694
1.30389
1.28067
1.25728
1.23374
1.21002
1.18614
1.16209
1.13788
1.11349
1.08893
1.0642
1.0393
1.01422
0.988965
0.963532
0.937921
0.91213
0.886158
0.860003
0.833665
0.807142
0.780433
0.753535
0.726449
0.699172
0.671704
0.644042
0.616187
0.588135
0.559887
0.531439
0.502792
0.473943
0.44489
0.415637
0.386172
0.356508
0.326628
0.296542
0.266248
0.235731
0.205013
0.174068
0.142908
0.111538
0.0799342
0.0481153
0.0160771
-27.7685
-30.0814
-32.2545
-35.3354
-37.0179
-35.5002
-33.0158
-27.9225
-25.1092
-30.5625
-30.9105
-24.0023
-15.7232
-8.87141
-4.29582
-1.222
-0.0246559
0.583345
1.02998
1.36605
1.57747
1.71058
1.77002
1.79595
1.82634
1.84853
1.84993
1.83702
1.81883
1.79899
1.77852
1.75801
1.73735
1.71668
1.69599
1.67526
1.65447
1.63359
1.61261
1.5915
1.57027
1.5489
1.52738
1.50572
1.48392
1.46196
1.43985
1.41758
1.39516
1.37258
1.34984
1.32694
1.30389
1.28067
1.25728
1.23374
1.21002
1.18614
1.16209
1.13788
1.11349
1.08893
1.0642
1.0393
1.01422
0.988965
0.963532
0.937921
0.91213
0.886158
0.860003
0.833665
0.807142
0.780433
0.753535
0.726449
0.699172
0.671704
0.644042
0.616187
0.588135
0.559887
0.531439
0.502792
0.473943
0.44489
0.415637
0.386171
0.356508
0.326628
0.296542
0.266248
0.23573
0.205013
0.174069
0.142908
0.111538
0.0799343
0.0481153
0.0160771
-27.8335
-30.0763
-32.0902
-35.1371
-36.7839
-34.9497
-32.1981
-25.9239
-23.708
-31.2325
-31.7651
-24.6682
-16.0469
-8.86961
-4.30451
-1.17414
0.00514496
0.611866
1.06056
1.38307
1.58265
1.69484
1.7625
1.80061
1.83819
1.86191
1.86099
1.84457
1.82324
1.8013
1.77965
1.75847
1.73753
1.71676
1.69603
1.67529
1.65449
1.6336
1.61261
1.59151
1.57027
1.5489
1.52738
1.50572
1.48392
1.46196
1.43985
1.41758
1.39516
1.37258
1.34984
1.32694
1.30389
1.28067
1.25728
1.23374
1.21002
1.18614
1.16209
1.13788
1.11349
1.08893
1.0642
1.0393
1.01422
0.988965
0.963532
0.937921
0.91213
0.886158
0.860003
0.833665
0.807142
0.780433
0.753535
0.726449
0.699172
0.671704
0.644042
0.616187
0.588135
0.559887
0.531439
0.502792
0.473943
0.44489
0.415637
0.386171
0.356508
0.326628
0.296542
0.266248
0.23573
0.205013
0.174069
0.142908
0.111538
0.0799345
0.0481152
0.016077
-28.0665
-30.0874
-31.9173
-34.9605
-36.6964
-34.637
-31.4036
-24.09
-21.8904
-31.6947
-31.7763
-24.8231
-16.1666
-8.84085
-4.28207
-1.10415
0.0466453
0.638749
1.0668
1.38946
1.59745
1.71997
1.77361
1.80529
1.8347
1.85439
1.85385
1.83955
1.82034
1.79987
1.77906
1.7583
1.73753
1.7168
1.69606
1.67531
1.6545
1.63361
1.61262
1.59151
1.57027
1.5489
1.52738
1.50573
1.48392
1.46196
1.43985
1.41758
1.39516
1.37258
1.34984
1.32694
1.30389
1.28067
1.25728
1.23374
1.21002
1.18614
1.16209
1.13788
1.11349
1.08893
1.0642
1.0393
1.01422
0.988965
0.963532
0.937921
0.91213
0.886158
0.860003
0.833665
0.807142
0.780433
0.753535
0.726449
0.699172
0.671704
0.644042
0.616187
0.588135
0.559887
0.531439
0.502792
0.473943
0.44489
0.415637
0.386171
0.356508
0.326628
0.296542
0.266248
0.23573
0.205013
0.174069
0.142907
0.111538
0.0799346
0.0481151
0.016077
-28.0999
-30.0808
-31.8101
-34.8495
-36.6325
-34.499
-30.7254
-23.0279
-20.0445
-31.1495
-31.7354
-24.6837
-16.0964
-8.8001
-4.25784
-1.08502
0.0545931
0.652296
1.07832
1.39576
1.59667
1.71255
1.77438
1.80912
1.84221
1.86311
1.86154
1.84509
1.8237
1.80165
1.77991
1.75866
1.73767
1.71685
1.69609
1.67532
1.65451
1.63362
1.61262
1.59151
1.57027
1.5489
1.52739
1.50573
1.48392
1.46196
1.43985
1.41758
1.39516
1.37258
1.34984
1.32694
1.30389
1.28067
1.25728
1.23374
1.21002
1.18614
1.16209
1.13788
1.11349
1.08893
1.0642
1.0393
1.01422
0.988965
0.963532
0.937921
0.91213
0.886158
0.860003
0.833665
0.807142
0.780433
0.753535
0.726449
0.699172
0.671704
0.644042
0.616187
0.588135
0.559887
0.531439
0.502792
0.473943
0.44489
0.415637
0.386171
0.356508
0.326628
0.296542
0.266248
0.23573
0.205013
0.174069
0.142907
0.111538
0.0799347
0.0481151
0.0160769
-21.715
-24.8606
-31.7698
-49.4505
-60.1462
-60.5168
-58.585
-52.6221
-35.5648
-23.8473
-11.25
-0.859287
2.77534
4.45577
4.48535
3.84158
3.16476
2.6331
2.28879
2.08418
1.97439
1.9235
1.90192
1.88977
1.87721
1.86211
1.84521
1.8275
1.80943
1.79106
1.77237
1.75335
1.734
1.71433
1.69437
1.67417
1.65374
1.63311
1.61229
1.59129
1.57013
1.54881
1.52733
1.50569
1.48389
1.46194
1.43984
1.41758
1.39516
1.37258
1.34984
1.32694
1.30389
1.28067
1.25728
1.23373
1.21002
1.18614
1.16209
1.13788
1.11349
1.08893
1.0642
1.0393
1.01422
0.988964
0.963532
0.937921
0.91213
0.886158
0.860003
0.833665
0.807142
0.780433
0.753535
0.726449
0.699172
0.671704
0.644042
0.616187
0.588135
0.559887
0.531439
0.502792
0.473943
0.44489
0.415637
0.386172
0.356508
0.326628
0.296542
0.266248
0.23573
0.205014
0.174068
0.142908
0.111538
0.0799351
0.0481148
0.016077
-21.6441
-25.3235
-32.5261
-50.3372
-60.6632
-60.8978
-58.7029
-52.8465
-35.9236
-23.9942
-11.5075
-1.01132
2.72248
4.41785
4.4593
3.8254
3.15301
2.62466
2.28305
2.08042
1.97195
1.92186
1.9009
1.88916
1.87691
1.86199
1.84521
1.82757
1.80952
1.79115
1.77244
1.7534
1.73403
1.71435
1.69438
1.67418
1.65374
1.63311
1.61229
1.5913
1.57013
1.54881
1.52733
1.50569
1.48389
1.46194
1.43984
1.41758
1.39516
1.37258
1.34984
1.32694
1.30389
1.28067
1.25728
1.23373
1.21002
1.18614
1.16209
1.13788
1.11349
1.08893
1.0642
1.0393
1.01422
0.988964
0.963532
0.937921
0.91213
0.886158
0.860003
0.833665
0.807142
0.780433
0.753535
0.726449
0.699172
0.671704
0.644042
0.616187
0.588135
0.559887
0.531439
0.502792
0.473943
0.44489
0.415637
0.386172
0.356508
0.326628
0.296542
0.266249
0.23573
0.205014
0.174068
0.142908
0.111538
0.079935
0.0481148
0.0160771
-20.8943
-24.8872
-33.8827
-51.5609
-61.657
-61.5968
-59.0456
-53.298
-36.6651
-24.2683
-11.9159
-1.28134
2.58249
4.32452
4.40303
3.79145
3.1292
2.60701
2.26996
2.07069
1.96469
1.91671
1.8978
1.88771
1.8767
1.86245
1.84588
1.82818
1.80999
1.79147
1.77266
1.75354
1.73412
1.7144
1.69442
1.6742
1.65376
1.63312
1.6123
1.5913
1.57014
1.54881
1.52733
1.50569
1.48389
1.46194
1.43984
1.41758
1.39516
1.37258
1.34984
1.32694
1.30389
1.28067
1.25728
1.23373
1.21002
1.18614
1.16209
1.13788
1.11349
1.08893
1.0642
1.0393
1.01422
0.988964
0.963532
0.937921
0.91213
0.886158
0.860003
0.833665
0.807142
0.780433
0.753535
0.726449
0.699172
0.671704
0.644042
0.616187
0.588135
0.559887
0.531439
0.502792
0.473943
0.44489
0.415637
0.386172
0.356508
0.326628
0.296542
0.266248
0.23573
0.205014
0.174068
0.142908
0.111538
0.0799349
0.0481149
0.0160771
-21.1226
-24.9118
-35.1302
-53.0727
-62.8584
-62.4532
-59.3679
-53.8706
-37.5158
-24.7238
-12.4808
-1.66921
2.36275
4.17204
4.30555
3.73494
3.09243
2.58128
2.25131
2.05702
1.9547
1.90973
1.89338
1.88532
1.87566
1.86214
1.8459
1.82833
1.81015
1.79161
1.77276
1.75361
1.73417
1.71444
1.69445
1.67422
1.65377
1.63313
1.6123
1.5913
1.57014
1.54881
1.52733
1.50569
1.4839
1.46194
1.43984
1.41758
1.39516
1.37258
1.34984
1.32694
1.30389
1.28067
1.25728
1.23373
1.21002
1.18614
1.16209
1.13788
1.11349
1.08893
1.0642
1.0393
1.01422
0.988964
0.963532
0.937921
0.91213
0.886158
0.860003
0.833665
0.807142
0.780433
0.753535
0.726449
0.699172
0.671704
0.644042
0.616187
0.588135
0.559887
0.531439
0.502792
0.473943
0.44489
0.415637
0.386172
0.356508
0.326628
0.296542
0.266248
0.23573
0.205014
0.174068
0.142908
0.111538
0.0799348
0.048115
0.0160772
-21.3165
-25.4978
-36.3574
-54.5215
-64.0935
-63.4336
-59.8362
-54.4084
-38.4987
-25.3695
-13.195
-2.18188
2.09829
3.97256
4.16567
3.65074
3.03975
2.54668
2.22726
2.03948
1.94157
1.9002
1.88702
1.88157
1.87377
1.86142
1.8458
1.82849
1.81038
1.79182
1.77292
1.75373
1.73425
1.71449
1.69448
1.67424
1.65379
1.63314
1.61231
1.59131
1.57014
1.54881
1.52733
1.50569
1.4839
1.46194
1.43984
1.41758
1.39516
1.37258
1.34984
1.32694
1.30389
1.28067
1.25728
1.23373
1.21002
1.18614
1.16209
1.13788
1.11349
1.08893
1.0642
1.0393
1.01422
0.988964
0.963532
0.937921
0.91213
0.886158
0.860003
0.833665
0.807142
0.780433
0.753535
0.726449
0.699172
0.671704
0.644042
0.616187
0.588135
0.559887
0.531439
0.502792
0.473943
0.44489
0.415637
0.386172
0.356508
0.326628
0.296542
0.266248
0.23573
0.205014
0.174068
0.142908
0.111538
0.0799346
0.048115
0.0160772
-21.8434
-26.1781
-37.5768
-55.9875
-65.4092
-64.4714
-60.3464
-54.9865
-39.5177
-26.1053
-13.9904
-2.81658
1.76328
3.71886
3.98395
3.5391
2.97039
2.50252
2.19831
2.01919
1.92643
1.88904
1.87945
1.87704
1.87145
1.86046
1.84556
1.82856
1.81053
1.79197
1.77305
1.75382
1.73432
1.71454
1.69452
1.67426
1.6538
1.63315
1.61231
1.59131
1.57014
1.54882
1.52733
1.50569
1.4839
1.46194
1.43984
1.41758
1.39516
1.37258
1.34984
1.32694
1.30389
1.28067
1.25728
1.23373
1.21002
1.18614
1.16209
1.13788
1.11349
1.08893
1.0642
1.0393
1.01422
0.988964
0.963532
0.937921
0.91213
0.886158
0.860003
0.833665
0.807142
0.780433
0.753535
0.726449
0.699172
0.671704
0.644042
0.616187
0.588135
0.559887
0.531439
0.502792
0.473943
0.44489
0.415637
0.386172
0.356508
0.326628
0.296542
0.266248
0.23573
0.205014
0.174068
0.142908
0.111538
0.0799345
0.0481151
0.0160773
-22.5889
-26.8734
-38.8402
-57.2631
-66.6345
-65.462
-60.9252
-55.5192
-40.4464
-26.8138
-14.7535
-3.54137
1.32749
3.42184
3.76186
3.3977
2.88465
2.44916
2.16465
1.99671
1.90986
1.87663
1.87082
1.87172
1.86857
1.85913
1.84509
1.82849
1.81063
1.7921
1.77317
1.75393
1.73439
1.71459
1.69455
1.67429
1.65382
1.63316
1.61232
1.59132
1.57015
1.54882
1.52733
1.50569
1.4839
1.46195
1.43984
1.41758
1.39516
1.37258
1.34984
1.32694
1.30389
1.28067
1.25728
1.23373
1.21002
1.18614
1.16209
1.13788
1.11349
1.08893
1.0642
1.0393
1.01422
0.988964
0.963532
0.937921
0.91213
0.886158
0.860003
0.833665
0.807142
0.780433
0.753535
0.726449
0.699172
0.671704
0.644042
0.616187
0.588135
0.559887
0.531439
0.502792
0.473943
0.44489
0.415637
0.386172
0.356508
0.326628
0.296542
0.266248
0.23573
0.205014
0.174068
0.142909
0.111538
0.0799344
0.0481151
0.0160773
-23.3072
-27.4923
-39.9115
-58.3603
-67.8067
-66.3128
-61.4393
-56.0438
-41.3567
-27.4078
-15.4782
-4.29195
0.812959
3.08648
3.5122
3.22943
2.78225
2.38718
2.12641
1.97233
1.8925
1.86356
1.86156
1.86587
1.86532
1.85757
1.84449
1.82837
1.8107
1.79223
1.7733
1.75403
1.73447
1.71465
1.69459
1.67431
1.65383
1.63317
1.61233
1.59132
1.57015
1.54882
1.52733
1.50569
1.4839
1.46195
1.43984
1.41758
1.39516
1.37258
1.34984
1.32694
1.30389
1.28067
1.25728
1.23373
1.21002
1.18614
1.16209
1.13788
1.11349
1.08893
1.0642
1.0393
1.01422
0.988964
0.963532
0.937921
0.91213
0.886158
0.860003
0.833665
0.807142
0.780433
0.753535
0.726449
0.699172
0.671704
0.644042
0.616187
0.588135
0.559887
0.531439
0.502792
0.473943
0.44489
0.415637
0.386172
0.356508
0.326628
0.296542
0.266248
0.23573
0.205014
0.174068
0.142909
0.111538
0.0799343
0.0481152
0.0160774
-23.8822
-28.1348
-40.8184
-59.5199
-68.5906
-66.9785
-61.9374
-56.6133
-42.2237
-28.0445
-16.1271
-5.0344
0.270851
2.69229
3.24119
3.04101
2.66472
2.31737
2.08392
1.94595
1.87438
1.85006
1.85187
1.85963
1.86176
1.85581
1.84377
1.82818
1.81074
1.79234
1.77342
1.75413
1.73455
1.71471
1.69463
1.67434
1.65385
1.63318
1.61234
1.59133
1.57015
1.54882
1.52734
1.50569
1.4839
1.46195
1.43984
1.41758
1.39516
1.37258
1.34984
1.32694
1.30389
1.28067
1.25728
1.23373
1.21002
1.18614
1.16209
1.13788
1.11349
1.08893
1.0642
1.0393
1.01422
0.988964
0.963532
0.937921
0.91213
0.886158
0.860003
0.833665
0.807142
0.780433
0.753535
0.726449
0.699172
0.671704
0.644042
0.616187
0.588135
0.559887
0.531439
0.502792
0.473943
0.44489
0.415637
0.386172
0.356508
0.326628
0.296542
0.266248
0.23573
0.205014
0.174067
0.142909
0.111538
0.0799342
0.0481152
0.0160774
-24.2623
-28.743
-41.6308
-60.326
-69.1296
-67.4874
-62.3411
-57.1631
-42.9402
-28.5908
-16.6664
-5.79591
-0.27565
2.25225
2.94975
2.83813
2.53501
2.24063
2.03778
1.91751
1.85541
1.83628
1.84201
1.85321
1.85804
1.85393
1.84298
1.82795
1.81075
1.79245
1.77353
1.75423
1.73462
1.71476
1.69467
1.67437
1.65387
1.63319
1.61234
1.59133
1.57016
1.54882
1.52734
1.50569
1.4839
1.46195
1.43984
1.41758
1.39516
1.37258
1.34984
1.32694
1.30389
1.28067
1.25728
1.23373
1.21002
1.18614
1.16209
1.13788
1.11349
1.08893
1.0642
1.0393
1.01422
0.988964
0.963532
0.937921
0.91213
0.886158
0.860003
0.833665
0.807142
0.780433
0.753535
0.726449
0.699172
0.671704
0.644042
0.616187
0.588135
0.559887
0.531439
0.502792
0.473943
0.44489
0.415637
0.386172
0.356508
0.326628
0.296542
0.266248
0.23573
0.205014
0.174067
0.142909
0.111538
0.0799341
0.0481152
0.0160775
-24.4482
-29.0526
-42.0136
-60.8469
-69.5472
-67.6872
-62.6417
-57.7103
-43.5036
-29.0456
-17.1338
-6.54923
-0.831644
1.78655
2.63428
2.62549
2.39632
2.15788
1.98848
1.88711
1.83537
1.82211
1.83203
1.84671
1.85424
1.85197
1.84213