/*--------------------------------*- C++ -*----------------------------------*\
| =========                 |                                                 |
| \\      /  F ield         | OpenFOAM: The Open Source CFD Toolbox           |
|  \\    /   O peration     | Version:  2.4.0                                 |
|   \\  /    A nd           | Web:      www.OpenFOAM.org                      |
|    \\/     M anipulation  |                                                 |
\*---------------------------------------------------------------------------*/
FoamFile
{
    version     2.0;
    format      ascii;
    class       volScalarField;
    location    "0.9";
    object      p;
}
// * * * * * * * * * * * * * * * * * * * * * * * * * * * * * * * * * * * * * //

dimensions      [0 2 -2 0 0 0 0];

internalField   nonuniform List<scalar> 
8800
(
54.6912
42.3377
34.936
31.4038
29.5231
28.127
26.9071
25.8151
24.8102
23.8068
22.8764
21.9513
21.0454
20.1631
19.3144
18.5001
17.7491
17.0444
16.3837
15.8427
51.5781
41.9844
35.1055
31.517
29.5825
28.1529
26.914
25.8151
24.8098
23.8037
22.8733
21.95
21.0424
20.1614
19.3124
18.497
17.7504
17.0388
16.3809
15.7841
49.6119
42.0604
35.7086
31.8943
29.7506
28.2311
26.9595
25.8477
24.8345
23.8204
22.8839
21.9558
21.0438
20.1595
19.3112
18.4879
17.7529
17.0279
16.4552
15.8538
48.0753
42.1228
36.2969
32.3173
29.9341
28.3169
27.0216
25.9047
24.8833
23.8596
22.9128
21.9742
21.0554
20.1639
19.3123
18.4802
17.7468
17.02
16.5467
16.1324
46.825
42.093
36.7752
32.7306
30.1045
28.3803
27.07
25.961
24.9363
23.9116
22.9514
22.0037
21.0693
20.1762
19.3117
18.4803
17.7253
17.0153
16.4785
16.4764
45.8399
41.9981
37.1433
33.0779
30.2583
28.4244
27.0979
26.006
24.9866
23.9621
22.989
22.0335
21.085
20.1844
19.3105
18.4795
17.7079
17.0169
16.5072
16.9915
45.0839
41.8831
37.4132
33.3645
30.3976
28.4508
27.1089
26.0364
25.0251
24.0045
23.0245
22.0588
21.099
20.193
19.3121
18.4742
17.703
17.029
16.6236
17.2994
44.5333
41.784
37.5958
33.577
30.5259
28.4699
27.1054
26.058
25.0566
24.0366
23.0511
22.0789
21.1103
20.1946
19.315
18.4752
17.7072
17.0565
16.7138
17.5311
44.1755
41.7055
37.7135
33.7242
30.6114
28.4797
27.1028
26.0683
25.076
24.0598
23.0705
22.0927
21.1168
20.2007
19.3177
18.4817
17.7166
17.0913
16.7898
17.6844
43.9999
41.6663
37.7714
33.7954
30.6568
28.4855
27.099
26.0738
25.0885
24.0718
23.0805
22.1015
21.123
20.2022
19.3278
18.4903
17.7363
17.1126
16.8524
17.7791
43.9995
41.6648
37.7737
33.7982
30.6554
28.484
27.1014
26.0735
25.0874
24.0754
23.0831
22.1055
21.1254
20.2086
19.3358
18.5068
17.7489
17.1448
16.8883
17.8128
44.1734
41.7088
37.7193
33.7227
30.611
28.4799
27.104
26.0687
25.0791
24.0645
23.0743
22.1047
21.128
20.2138
19.3507
18.5248
17.77
17.1689
16.9001
17.801
44.5308
41.7832
37.6042
33.5804
30.5222
28.4677
27.1099
26.0584
25.058
24.0433
23.0596
22.0981
21.1262
20.2209
19.3702
18.546
17.7949
17.1907
16.8948
17.7321
45.0803
41.8867
37.4211
33.3637
30.3973
28.4505
27.1115
26.0379
25.0303
24.0135
23.0334
22.0864
21.1232
20.2272
19.3868
18.5772
17.8234
17.2232
16.869
17.588
45.8384
41.9997
37.1494
33.0804
30.2594
28.4204
27.1047
26.009
24.9898
23.9716
23.0047
22.0667
21.1153
20.2281
19.4117
18.6049
17.8629
17.2659
16.861
17.372
46.8218
42.0988
36.7831
32.727
30.1057
28.3782
27.0767
25.9644
24.9435
23.9229
22.968
22.044
21.1075
20.2262
19.4298
18.6333
17.909
17.3169
16.8868
17.0835
48.0717
42.1272
36.303
32.3182
29.9386
28.3129
27.0277
25.9119
24.889
23.8705
22.9337
22.0206
21.0986
20.2204
19.4472
18.6552
17.9531
17.3652
16.9414
16.7941
49.6077
42.0651
35.7177
31.8926
29.7539
28.2275
26.9662
25.8558
24.8416
23.8327
22.908
22.003
21.0937
20.2197
19.4579
18.67
17.9866
17.4011
16.9966
16.6424
51.5744
41.9876
35.1138
31.5157
29.587
28.1496
26.9204
25.824
24.8176
23.8162
22.8985
21.9977
21.0947
20.2243
19.4636
18.6804
18.0031
17.4215
16.9906
16.5651
54.6876
42.3409
34.9444
31.4023
29.5275
28.1236
26.9137
25.8236
24.8182
23.8197
22.902
21.9986
21.0977
20.2282
19.4657
18.6835
18.0079
17.4265
16.9898
16.6824
15.9754
16.0203
16.0058
15.964
15.9423
15.9527
15.9874
16.0252
16.0516
16.0637
16.0603
16.0475
16.0234
15.9858
15.9369
15.8612
15.7535
15.6025
15.3985
15.1612
14.9156
14.691
14.5299
14.4186
14.3412
14.3491
14.4617
14.6247
14.8039
14.9794
15.126
15.2293
15.2825
15.2982
15.2687
15.2134
15.1306
15.0305
14.928
14.8394
14.7744
14.7292
14.7013
14.6693
14.6411
14.6051
14.5757
14.5273
14.4528
14.3426
14.1823
13.9745
13.7588
13.5458
13.3824
13.2813
13.2024
13.0958
12.9324
12.7467
12.6521
12.6093
12.6422
12.6997
12.8084
13.0268
13.3613
13.8816
14.5383
15.3895
16.3424
17.4201
18.5133
19.6173
20.572
21.3548
21.7388
21.78
21.1683
20.1217
18.3872
16.2563
14.0497
11.2811
8.96877
6.54899
4.42429
2.78322
0.986706
0.147568
-0.910283
-1.64075
-1.54713
-2.05953
-1.84031
-1.41254
-1.61414
-1.13597
-0.717614
-0.768484
-0.354389
0.185114
0.299815
0.90576
1.47524
2.06443
2.67998
3.54542
4.40197
4.88886
5.89193
6.80812
7.71229
8.24164
9.2789
10.061
10.807
11.5285
12.2709
13.0894
13.4204
14.23
14.6722
15.2061
15.8076
15.9778
16.644
16.7365
17.2359
17.2466
17.2856
17.5418
17.032
16.9819
16.488
15.7219
15.1537
14.1645
13.2633
12.2347
11.1895
10.5416
9.61952
9.11452
8.81817
8.61383
8.80349
9.38262
10.3137
11.438
12.9603
14.7275
16.5457
18.4327
20.3285
22.0671
23.9065
25.4619
26.8189
28.252
29.3913
30.3169
31.1135
31.7974
32.2949
32.5112
32.5851
32.3404
31.6936
30.6936
29.454
27.9761
26.1184
23.9898
21.6584
19.0318
16.6838
14.05
11.3923
8.85229
6.2621
4.08229
1.91975
0.55232
-1.09123
-2.11201
-3.32988
-4.27052
-4.83655
-5.33669
-5.41395
-5.1829
-4.167
-2.64075
-0.216253
2.85047
6.68625
11.474
16.4249
20.2536
15.8087
15.8593
15.9328
15.9561
15.9343
15.9097
15.9168
15.9475
15.9897
16.0258
16.0388
16.0348
16.0082
15.9605
15.9023
15.815
15.7032
15.5569
15.3683
15.1572
14.9335
14.7286
14.5776
14.48
14.4224
14.4171
14.4911
14.6385
14.8075
14.9627
15.0913
15.1908
15.2429
15.2676
15.2416
15.1895
15.116
15.0224
14.933
14.8437
14.7761
14.7247
14.6895
14.6563
14.623
14.5766
14.5297
14.4684
14.3901
14.2886
14.1497
13.973
13.7721
13.5605
13.3806
13.2414
13.1403
13.0535
12.9576
12.8329
12.7662
12.7436
12.7925
12.9105
13.0477
13.2858
13.6405
14.149
14.827
15.6208
16.5549
17.5504
18.5506
19.5642
20.3621
21.0681
21.2397
21.2662
20.5957
19.5572
18.0041
15.9159
14.0046
11.3898
9.18331
7.03545
4.87864
3.42646
1.63745
0.700098
-0.142045
-1.13262
-0.982524
-1.30008
-1.52791
-1.00331
-0.992886
-0.889437
-0.36247
-0.133137
-0.023436
0.590426
0.916683
1.35401
1.91549
2.59091
3.21601
3.90426
4.71918
5.44379
6.23948
6.90474
7.85899
8.43378
9.23926
9.90486
10.6893
11.2283
11.9893
12.6567
13.0327
13.7929
14.1385
14.784
15.157
15.5978
16.0709
16.1516
16.7857
16.5953
16.7608
16.8218
16.265
16.2162
15.3689
14.6317
13.7891
12.6061
11.5494
10.1745
9.10012
8.14002
7.14006
6.54954
6.25022
6.35793
6.70375
7.50598
8.80344
10.2584
12.2121
14.481
16.5485
18.9119
20.9973
22.8951
24.8759
26.4269
27.8132
29.1841
30.1917
30.8952
31.6601
32.166
32.4989
32.3364
32.2968
31.4277
30.3491
28.9138
27.3191
25.5339
23.5854
21.3032
19.0469
16.8327
14.556
12.0505
9.51353
7.30274
5.02427
3.24762
1.60631
0.15365
-1.19625
-2.04941
-2.86566
-3.39169
-3.95322
-4.27302
-4.18232
-3.73628
-2.59816
-1.06318
1.25086
3.93377
7.30497
11.1334
15.0889
18.2816
15.7151
15.8347
16.0269
16.0733
15.9892
15.8747
15.8186
15.83
15.8897
15.9604
16.0018
16.0155
15.9925
15.9369
15.8703
15.7677
15.6491
15.5092
15.3355
15.1554
14.9604
14.7793
14.6463
14.5493
14.5064
14.5063
14.5535
14.6669
14.8086
14.9443
15.0546
15.144
15.1878
15.2197
15.1965
15.1531
15.0911
15.0027
14.9286
14.8412
14.775
14.7208
14.6768
14.6391
14.6003
14.5456
14.4957
14.4146
14.3402
14.2332
14.1152
13.9615
13.7891
13.5998
13.4098
13.2705
13.1409
13.074
13.0111
12.9371
12.9135
12.9098
12.986
13.1173
13.3153
13.5608
13.9418
14.4131
15.0589
15.8133
16.6486
17.5685
18.4196
19.3298
19.9249
20.5463
20.6315
20.5425
19.9312
18.8769
17.5387
15.5744
13.8281
11.5079
9.38134
7.4735
5.37472
4.04731
2.40026
1.30564
0.734819
-0.231507
-0.39211
-0.454051
-0.761166
-0.490483
-0.232318
-0.165119
0.14719
0.583659
0.739989
1.14748
1.62571
2.12204
2.55559
3.23602
3.80731
4.54391
5.13838
5.93491
6.55897
7.20447
7.94487
8.58794
9.17534
9.80969
10.5954
10.9528
11.6292
12.3387
12.6412
13.3643
13.702
14.3073
14.706
15.1742
15.5836
15.7377
16.289
16.0854
16.3835
16.1722
15.6821
15.4512
14.4436
13.5272
12.3984
10.9373
9.7371
7.8901
6.76619
5.50193
4.26183
3.67945
3.3495
3.69991
4.31788
5.33333
6.98823
8.83969
11.2511
13.9271
16.4368
19.1452
21.439
23.545
25.6063
27.1125
28.5943
29.7226
30.8072
31.2993
32.0119
32.3342
32.8606
32.3759
32.2435
30.5038
28.8754
26.8149
24.8044
22.5217
20.3779
18.243
16.1029
14.1193
12.0673
10.0415
7.52565
5.44403
3.45447
1.98302
0.622396
-0.216466
-1.08947
-1.73603
-2.31272
-2.9867
-3.08341
-3.18401
-2.8262
-2.23536
-1.15003
0.411724
2.36783
4.80114
7.62469
10.887
14.14
16.7153
15.8494
15.9273
16.0214
15.9258
15.7429
15.6038
15.5792
15.6422
15.7551
15.8779
15.9531
15.9907
15.9787
15.9157
15.8441
15.7287
15.6064
15.4705
15.3091
15.1526
14.9903
14.8321
14.7196
14.6303
14.5911
14.5976
14.6285
14.7093
14.8158
14.9227
15.0143
15.0942
15.122
15.1576
15.1355
15.1048
15.0568
14.973
14.9134
14.829
14.7727
14.7127
14.6693
14.6205
14.5862
14.5179
14.4661
14.3785
14.2963
14.2033
14.0782
13.9647
13.7994
13.6583
13.468
13.3399
13.2037
13.1261
13.1008
13.0466
13.082
13.0998
13.2073
13.3497
13.5807
13.8507
14.2191
14.673
15.2168
15.9245
16.6311
17.4367
18.1498
18.8857
19.3945
19.8174
19.9148
19.7199
19.1544
18.2052
17.0115
15.2825
13.6778
11.6806
9.70484
8.00215
6.10679
4.77422
3.42309
2.26904
1.68085
0.96026
0.529427
0.528296
0.326919
0.380596
0.682302
0.822484
1.0375
1.41662
1.74105
2.0376
2.49724
2.97787
3.37935
3.98352
4.54326
5.20981
5.64802
6.35304
6.91375
7.52685
8.03204
8.71327
9.17962
9.6326
10.4639
10.695
11.3796
11.8724
12.3328
12.8322
13.3294
13.8566
14.1821
14.851
15.0776
15.3337
15.948
15.6204
16.0966
15.6573
15.3683
14.7813
13.5357
12.6309
10.9573
9.21345
7.65205
5.50759
4.03887
2.45906
1.15078
0.357638
-0.0200566
0.504259
1.38342
2.78359
4.62386
7.05387
10.1173
13.0361
16.0865
19.0145
21.7315
24.025
26.1378
27.6484
29.0895
29.9983
31.0352
31.5722
32.0917
32.2783
33.1042
32.2132
31.8349
29.5157
27.1434
24.5011
22.004
19.3995
16.8522
14.8115
12.9312
11.2307
9.21285
7.32241
5.15816
3.38892
1.72449
0.512096
-0.485958
-1.08594
-1.34436
-1.47412
-1.69665
-1.86247
-2.07238
-2.08356
-1.47897
-1.04182
0.250255
1.49759
3.24481
5.25301
7.68331
10.7005
13.3458
15.5778
17.3651
17.1156
16.2052
15.5039
15.1242
15.0188
15.1335
15.3462
15.5697
15.767
15.8901
15.9562
15.9691
15.909
15.8272
15.705
15.5778
15.4424
15.2861
15.1479
15.0149
14.8828
14.7811
14.7098
14.6707
14.6726
14.6923
14.7521
14.8313
14.9074
14.9811
15.0499
15.0639
15.0886
15.0686
15.0455
15.0139
14.9388
14.8911
14.8143
14.7668
14.7052
14.6551
14.6064
14.5701
14.5032
14.4427
14.3602
14.2709
14.1936
14.0543
13.97
13.82
13.7027
13.5537
13.4146
13.3129
13.218
13.2169
13.1839
13.2409
13.3025
13.4269
13.5963
13.8192
14.123
14.453
14.8767
15.3275
15.9178
16.5239
17.1676
17.7676
18.3369
18.7878
19.0581
19.1254
18.9045
18.3649
17.5431
16.503
15.0241
13.5966
11.914
10.178
8.66454
7.04938
5.71932
4.62287
3.53547
2.80128
2.29551
1.8225
1.72706
1.62293
1.62188
1.79612
2.02189
2.20174
2.45918
2.81945
3.13038
3.45272
3.87725
4.31033
4.79014
5.22784
5.78312
6.27282
6.75861
7.23183
7.73034
8.20285
8.77614
9.15587
9.49494
10.2033
10.5548
11.0197
11.4362
11.9597
12.3523
12.8193
13.4265
13.6913
14.3449
14.6774
15.0298
15.5147
15.424
15.9479
15.2757
15.1867
14.3357
12.8848
11.724
9.50345
7.7221
5.28146
2.94024
1.18776
-0.92244
-2.17036
-3.23488
-3.59282
-3.10393
-2.1966
-0.439535
1.81652
4.69662
8.29178
11.9254
15.5934
18.721
21.6976
24.0942
26.3978
28.0481
29.4526
30.4855
30.9986
31.7902
32.1888
31.5996
32.2992
31.2472
30.107
27.633
24.4891
21.689
18.6952
16.1301
13.2451
11.2066
9.59878
8.39159
6.52814
4.41336
2.31359
0.715677
-0.574769
-1.30545
-1.69155
-1.8256
-1.57692
-1.50891
-1.12716
-0.867986
-0.712039
-0.388416
0.0196828
0.483957
1.37873
2.4506
4.02901
5.80378
7.88508
10.5314
12.9474
14.8866
18.4359
18.0076
16.452
15.2567
14.6329
14.4861
14.684
15.0341
15.3659
15.6529
15.834
15.9227
15.9719
15.9179
15.8173
15.703
15.5647
15.4339
15.2848
15.1449
15.0397
14.9291
14.8236
14.7806
14.7483
14.7331
14.7544
14.7957
14.8477
14.903
14.9483
15.0042
15.0227
15.0207
15.0126
14.9902
14.9668
14.9017
14.8614
14.794
14.7585
14.7022
14.6415
14.606
14.5577
14.5056
14.4224
14.3532
14.2686
14.1803
14.0648
13.973
13.8491
13.748
13.6297
13.4952
13.4273
13.3373
13.3387
13.3501
13.3883
13.5033
13.6409
13.8103
14.0334
14.3278
14.6278
14.9935
15.3933
15.8417
16.3663
16.8716
17.333
17.7903
18.1434
18.3426
18.3441
18.1338
17.6473
16.957
16.0665
14.8481
13.6028
12.2168
10.7596
9.4008
8.09395
6.83914
5.88685
4.91968
4.14458
3.69724
3.30884
3.09637
3.01844
3.00065
3.08077
3.27807
3.44184
3.61832
3.90429
4.19351
4.43913
4.81509
5.18707
5.53582
5.85595
6.34969
6.77701
7.1216
7.53741
7.97081
8.29785
8.76625
9.18039
9.44903
9.93777
10.3149
10.5984
11.1002
11.4523
11.9259
12.2776
12.9106
13.229
13.9123
14.2794
14.7962
15.3504
15.3195
15.8985
15.3175
15.1913
13.9514
12.7296
11.0151
8.25588
6.22193
3.17295
0.540666
-1.83268
-4.26905
-5.43865
-6.90097
-7.27457
-6.95325
-5.79788
-4.09564
-1.70602
1.82989
6.00016
10.2216
14.4845
18.3255
21.7025
24.2574
26.7341
28.3103
29.5631
30.7979
30.9611
31.356
31.5465
29.7955
29.3078
28.8733
27.3478
25.2712
21.588
18.6817
15.4812
12.9819
10.1071
8.0946
6.64233
5.53836
3.8005
1.754
-0.49023
-2.23572
-3.22751
-3.60651
-3.53328
-2.96724
-1.82806
-0.884861
-0.247318
0.261759
0.84516
1.27704
2.0079
2.26187
3.09841
4.22567
5.31797
7.07121
8.69776
10.8128
13.0666
14.7096
19.049
18.6072
16.7497
15.2369
14.3934
14.1377
14.3399
14.7643
15.1795
15.5443
15.7786
15.8957
15.9872
15.9429
15.829
15.7236
15.5716
15.4396
15.2942
15.1429
15.0615
14.9571
14.8554
14.8317
14.8081
14.7753
14.7994
14.8307
14.8623
14.9079
14.9278
14.9716
14.9921
14.9707
14.9603
14.9488
14.9186
14.8694
14.8269
14.7726
14.7472
14.6931
14.626
14.6006
14.5565
14.5008
14.4155
14.3516
14.2742
14.1755
14.0851
13.9786
13.8792
13.7975
13.6919
13.5857
13.5326
13.4628
13.4652
13.5004
13.5219
13.6704
13.8169
13.9746
14.2061
14.4738
14.7424
15.0543
15.4081
15.7426
16.1849
16.5911
16.9267
17.3133
17.592
17.7059
17.6968
17.4904
17.0536
16.5079
15.7323
14.7499
13.6797
12.5814
11.334
10.1623
9.09547
7.9733
7.06067
6.24179
5.54414
5.07397
4.73751
4.48259
4.38735
4.34136
4.35638
4.49692
4.64154
4.76135
4.94289
5.2014
5.39383
5.65383
5.94116
6.24542
6.54721
6.83679
7.16577
7.49106
7.89394
8.18504
8.40129
8.7749
9.19776
9.40313
9.66374
10.0382
10.1902
10.7058
10.9624
11.4224
11.7211
12.4409
12.7347
13.4775
14.0013
14.573
15.2359
15.477
15.9524
15.5329
15.5289
13.9992
12.8102
10.5709
7.76658
4.88761
1.32369
-1.34257
-4.43312
-7.13275
-8.62253
-10.2032
-10.5215
-10.4633
-9.54798
-7.9038
-5.15064
-1.5415
3.28941
8.32913
13.213
17.7075
21.4841
24.3287
26.804
28.2154
29.7862
31.1784
30.7883
29.4141
28.0782
27.5049
26.7599
26.6696
25.0715
22.9403
19.1899
16.2695
13.4617
11.0585
8.22643
6.20736
4.74834
3.40239
1.45768
-0.886002
-3.52604
-5.40802
-5.99941
-6.09107
-5.44845
-4.06773
-2.43655
-0.735954
0.785562
2.12972
2.95617
3.54308
4.34056
4.72026
5.73509
6.46326
7.32709
8.94836
10.1808
11.888
13.77
15.023
19.3965
18.9822
17.0217
15.3385
14.3346
13.954
14.1006
14.5392
15.0137
15.4334
15.7173
15.869
15.9896
15.9621
15.8391
15.7309
15.5763
15.4387
15.296
15.1552
15.078
14.9817
14.8857
14.8669
14.8465
14.8067
14.8268
14.8557
14.8705
14.9098
14.9176
14.939
14.969
14.9318
14.9213
14.9157
14.881
14.8438
14.7895
14.7548
14.7294
14.6788
14.6112
14.5929
14.5566
14.4938
14.4134
14.3517
14.2844
14.1759
14.1079
13.9973
13.9066
13.846
13.7459
13.659
13.6246
13.5732
13.5813
13.6312
13.6516
13.8075
13.9637
14.0947
14.327
14.5641
14.7918
15.078
15.3719
15.6528
16.0112
16.3422
16.5982
16.8943
17.1276
17.1809
17.17
16.9818
16.6186
16.1743
15.5302
14.707
13.8469
12.9303
11.8641
10.8809
9.96234
9.01268
8.13978
7.46795
6.86028
6.38701
6.06806
5.81631
5.68814
5.60323
5.58274
5.63953
5.75345
5.80579
5.91484
6.13582
6.27305
6.41566
6.665
6.93396
7.14746
7.36585
7.637
7.89936
8.14328
8.39345
8.65851
8.8747
9.10514
9.27552
9.46378
9.76061
9.8613
10.1919
10.4477
10.9071
11.1403
11.8457
12.2746
13.0083
13.6074
14.4373
15.1175
15.6251
16.1234
16.0544
15.8627
14.4757
13.1858
10.4091
7.63257
3.93726
0.171779
-3.00464
-6.63085
-9.13472
-11.1258
-12.9392
-13.3521
-13.2529
-12.4471
-11.1172
-8.45535
-4.805
0.449056
5.97904
11.9872
17.0292
21.091
24.1409
26.5613
28.3273
30.0037
30.2294
29.5369
27.4693
25.6514
26.492
26.1981
25.6569
23.7611
20.6001
16.6144
13.9917
11.9693
10.1238
7.76702
5.76267
4.11919
2.52665
0.129726
-3.07273
-6.49496
-8.77564
-9.3977
-9.13819
-7.51367
-5.06576
-2.61951
-0.216193
1.81576
3.534
5.03071
6.33199
7.28155
7.83997
8.74989
9.37614
10.0815
11.2748
12.2839
13.5523
14.974
15.988
19.6067
19.1937
17.2144
15.45
14.3361
13.8746
13.9564
14.3803
14.8915
15.3437
15.664
15.854
15.9766
15.9735
15.8543
15.7282
15.5909
15.4372
15.2957
15.1699
15.0777
14.9917
14.9086
14.8867
14.8783
14.8413
14.8487
14.8785
14.8728
14.9122
14.9155
14.917
14.9524
14.909
14.8913
14.8845
14.8502
14.8119
14.7612
14.7326
14.7163
14.6609
14.6016
14.5812
14.5493
14.4871
14.4096
14.3604
14.2926
14.1878
14.1234
14.0294
13.9258
13.8951
13.801
13.7225
13.7206
13.6699
13.6888
13.7378
13.7589
13.9042
14.0697
14.1765
14.4024
14.6312
14.8076
15.0814
15.3351
15.5488
15.8535
16.1284
16.3061
16.557
16.7338
16.7611
16.763
16.5987
16.2986
15.9357
15.4139
14.7127
14.0347
13.2504
12.3475
11.4985
10.7021
9.91542
9.16423
8.60023
8.05497
7.60974
7.29747
7.0618
6.8757
6.78286
6.73898
6.71335
6.79114
6.82194
6.86792
7.00927
7.1408
7.24731
7.38605
7.56653
7.73749
7.91447
8.11996
8.27855
8.41755
8.62895
8.79979
8.9515
9.06852
9.1659
9.27697
9.47907
9.53818
9.67124
9.96801
10.3586
10.5704
11.1858
11.7691
12.5742
13.1775
14.189
15.0284
15.7952
16.2525
16.6794
16.3702
15.1421
13.4698
10.6901
7.61232
3.19818
-0.639881
-4.5344
-8.49015
-11.1011
-13.5699
-15.1535
-15.5466
-15.6207
-14.9087
-13.4585
-10.8393
-7.37613
-1.89269
4.18492
10.4174
15.8662
20.8851
24.1778
26.8345
28.2256
29.0922
28.5861
28.1959
27.0424
25.7158
26.5459
26.6177
25.5479
23.1987
19.1789
14.862
12.0569
10.676
9.56678
7.90293
5.96847
4.17197
2.37333
-0.518666
-4.84367
-9.09046
-11.8807
-12.9232
-12.386
-9.9007
-6.56477
-3.05751
0.488829
3.50108
5.61642
7.49754
9.14576
10.1871
11.0174
11.9221
12.4828
13.107
14.0418
14.725
15.5178
16.5369
17.3177
19.7222
19.311
17.3285
15.5311
14.3506
13.8454
13.8948
14.2981
14.8248
15.2917
15.6296
15.842
15.9581
15.9692
15.8608
15.7211
15.5926
15.4344
15.2933
15.1842
15.0861
15.0124
14.938
14.9029
14.9053
14.8642
14.8648
14.8899
14.8771
14.9119
14.9146
14.8982
14.9344
14.8934
14.8633
14.8709
14.8283
14.7925
14.7413
14.7122
14.6982
14.6394
14.5897
14.5667
14.5435
14.4761
14.4095
14.3704
14.2965
14.1998
14.149
14.0559
13.96
13.9414
13.848
13.7879
13.7908
13.7572
13.7776
13.8352
13.8552
13.9826
14.1541
14.2315
14.4428
14.6581
14.7908
15.0574
15.2811
15.4354
15.7164
15.9383
16.0619
16.2792
16.4155
16.4308
16.4383
16.316
16.0556
15.7867
15.3442
14.773
14.2181
13.5593
12.7915
12.0776
11.4407
10.7392
10.1433
9.62331
9.14215
8.72374
8.425
8.17431
7.98033
7.89692
7.80227
7.77104
7.81265
7.82711
7.80557
7.89506
7.99145
8.04935
8.14183
8.26978
8.36705
8.42227
8.55623
8.6879
8.77372
8.80065
8.87124
9.00478
9.1047
9.09643
9.04772
9.17936
9.20638
9.246
9.46853
9.81742
10.0523
10.5477
11.2487
12.1001
12.8157
13.7606
14.8503
15.9597
16.3944
16.8946
16.8116
15.9755
13.7513
10.9742
7.16915
2.5833
-1.82201
-6.37455
-10.4172
-13.4986
-16.2177
-17.8218
-18.2389
-17.8671
-16.8134
-15.228
-12.6335
-9.3892
-3.67065
2.68031
9.2104
15.5768
20.4819
23.4921
26.2791
27.6279
28.7171
28.7304
28.5533
27.8079
26.123
25.9822
26.451
25.6424
22.9469
18.6599
14.5923
11.5956
10.1248
9.21227
7.89919
5.99864
4.06727
1.80388
-1.68264
-6.65298
-11.3788
-15.0718
-16.6581
-15.3569
-12.0455
-7.99669
-3.26956
1.0877
4.64579
7.55818
10.2711
12.2163
13.2664
14.3972
15.2616
15.5037
15.9667
16.5955
16.9724
17.5138
18.1566
18.5987
19.7765
19.362
17.377
15.5777
14.3774
13.8626
13.9125
14.2948
14.82
15.2857
15.6182
15.8403
15.9419
15.9487
15.8541
15.7027
15.5803
15.4292
15.2852
15.1913
15.0954
15.0236
14.9578
14.9222
14.9215
14.8972
14.8861
14.8981
14.8948
14.9086
14.9087
14.893
14.9127
14.8793
14.8417
14.8433
14.8165
14.7671
14.7149
14.704
14.6816
14.6222
14.5852
14.555
14.5295
14.4686
14.4007
14.3772
14.3017
14.2112
14.1732
14.0865
13.9995
13.9778
13.9085
13.8442
13.8546
13.8344
13.8486
13.9142
13.9256
14.0397
14.2053
14.2735
14.4563
14.6627
14.7641
15.0131
15.2232
15.3158
15.5872
15.7689
15.8527
16.0554
16.1608
16.1715
16.1929
16.0941
15.8925
15.6852
15.329
14.8547
14.4063
13.8839
13.2258
12.669
12.1199
11.5272
11.0103
10.5565
10.1322
9.74074
9.48056
9.24287
9.06698
8.96491
8.86636
8.82051
8.78943
8.76773
8.73972
8.75592
8.79499
8.80697
8.86453
8.94879
8.9986
8.97665
8.98308
9.0417
9.07387
9.05426
9.04011
9.09178
9.12139
9.04037
8.95271
8.96081
8.87526
8.84125
9.04017
9.31093
9.58712
10.0739
10.6378
11.5398
12.5206
13.4564
14.3838
15.7319
16.6968
17.074
16.8728
15.9654
13.9537
11.0709
6.47243
1.96047
-3.44073
-8.10399
-12.3953
-15.8195
-18.4852
-20.1509
-20.4669
-19.8077
-18.5752
-16.6529
-13.9292
-10.3809
-4.53608
1.88796
8.26959
15.1258
19.5783
23.2939
26.4754
28.5353
29.6269
30.3004
29.6405
28.1343
26.5133
25.9837
26.4594
25.8446
23.4939
19.3185
15.0233
12.2268
10.602
9.30441
8.14069
6.3528
4.15295
1.09156
-3.19336
-8.7942
-14.3052
-18.3674
-19.9487
-18.2457
-14.5246
-9.20992
-3.15195
1.89525
6.17339
9.8127
12.8489
14.841
16.3105
17.7554
18.1995
18.4013
19.0117
19.2887
19.2965
19.6377
20.0822
20.2582
19.7521
19.337
17.3576
15.5839
14.4122
13.926
14.0046
14.3748
14.8782
15.3218
15.6276
15.8363
15.9164
15.9066
15.8266
15.6724
15.5607
15.4238
15.2741
15.2027
15.1115
15.0355
14.9897
14.9462
14.9373
14.9273
14.8994
14.8979
14.9064
14.8997
14.8981
14.8932
14.8876
14.872
14.8251
14.8155
14.817
14.749
14.6933
14.7018
14.6632
14.6008
14.5772
14.5353
14.5183
14.465
14.3927
14.3907
14.311
14.2222
14.1944
14.1132
14.0315
14.0111
13.9628
13.9008
13.9128
13.9049
13.9148
13.9738
13.9857
14.0744
14.2345
14.2984
14.4451
14.6477
14.7268
14.9477
15.1486
15.214
15.446
15.6284
15.6714
15.8537
15.9775
15.9569
16.0065
15.9424
15.7792
15.626
15.3558
14.9735
14.6259
14.2096
13.6798
13.2112
12.7691
12.2622
11.7994
11.443
11.0599
10.7351
10.4914
10.2928
10.0972
9.96669
9.89466
9.78245
9.73458
9.7154
9.66694
9.64156
9.63148
9.59792
9.54266
9.54211
9.56411
9.51275
9.42984
9.36633
9.30757
9.25081
9.23272
9.24286
9.1672
9.03443
8.92551
8.84495
8.67483
8.5892
8.75105
8.90665
9.18663
9.74782
10.2541
10.841
11.9138
13.2103
14.2722
15.2859
16.1649
16.7403
16.6706
15.8631
13.8486
10.5977
5.82184
1.06127
-4.85275
-9.14244
-14.0378
-17.3075
-20.1925
-21.6967
-21.9096
-21.1566
-19.6048
-17.3484
-14.4996
-10.3646
-4.58269
1.66326
8.28002
15.4143
19.7076
23.7443
27.8285
29.8551
30.1956
31.3541
30.8475
28.5264
27.0631
26.5473
27.1164
25.9938
24.4664
21.3811
16.8056
13.6552
11.4758
9.89803
8.89751
7.09619
4.55234
0.916906
-4.18062
-10.703
-17.0235
-21.1873
-22.2228
-20.492
-16.4544
-9.84356
-3.00738
2.54609
7.70304
12.2614
15.6423
17.7902
19.5827
21.04
21.333
21.5729
22.0087
22.044
21.9303
22.0231
22.0747
21.9848
19.6293
19.2122
17.263
15.5598
14.4652
14.0535
14.1751
14.539
14.9951
15.397
15.6592
15.8352
15.8873
15.8587
15.7827
15.6358
15.5303
15.4054
15.265
15.2052
15.1255
15.0511
15.0148
14.9706
14.9525
14.9485
14.925
14.9065
14.9197
14.9045
14.89
14.888
14.8683
14.8552
14.8122
14.7902
14.8033
14.7365
14.6744
14.6902
14.6497
14.5924
14.5702
14.5308
14.5102
14.4559
14.3881
14.3819
14.3157
14.2318
14.2144
14.1483
14.0715
14.0546
14.0061
13.9529
13.957
13.954
13.9682
14.0196
14.0391
14.1101
14.2484
14.3072
14.4229
14.6007
14.6792
14.8594
15.0582
15.1163
15.3139
15.4907
15.5208
15.6908
15.8125
15.8077
15.8552
15.8404
15.7162
15.6079
15.4198
15.1208
14.8606
14.5389
14.1102
13.7324
13.3805
12.9548
12.5815
12.279
11.9678
11.6775
11.4578
11.2556
11.0791
10.9665
10.8684
10.7607
10.6851
10.6141
10.5093
10.4445
10.4053
10.3194
10.2105
10.1352
10.0564
9.94294
9.84018
9.72165
9.56328
9.38599
9.3305
9.36388
9.29215
9.12589
8.9598
8.78509
8.60392
8.58586
8.68568
8.71322
8.91194
9.49003
10.1051
10.7497
11.5999
12.6429
13.7431
14.793
15.6414
16.1529
16.0613
15.2537
13.3062
10.0317
5.30466
0.161043
-5.5306
-9.80614
-14.9315
-17.7317
-21.583
-22.6083
-22.8968
-22.0171
-20.2382
-17.6443
-14.3254
-9.86994
-3.72333
2.46086
9.88458
16.3013
20.6721
24.3289
29.5949
30.488
30.2198
32.3051
32.6007
30.0015
28.7499
28.1439
28.0701
26.4612
25.206
22.7639
18.8924
15.9468
12.8906
10.5569
9.5631
7.80409
5.095
1.14303
-4.49622
-11.692
-18.4063
-22.7599
-23.9319
-22.2925
-17.0355
-9.76093
-2.80078
3.87944
9.8793
14.7181
18.0433
20.6425
23.0748
24.2679
24.3797
24.9671
25.1348
24.6529
24.4114
24.352
24.0342
23.6434
19.387
18.9623
17.1068
15.5347
14.5785
14.2702
14.4376
14.7856
15.1754
15.5044
15.7101
15.8249
15.8428
15.7955
15.7116
15.5891
15.487
15.3802
15.2662
15.2059
15.1412
15.0788
15.0405
15.0035
14.9762
14.9667
14.945
14.913
14.9161
14.9011
14.8781
14.8787
14.8551
14.8389
14.8053
14.7741
14.7839
14.7262
14.6727
14.6755
14.6393
14.5872
14.5547
14.5239
14.4956
14.4488
14.3976
14.3796
14.326
14.2533
14.2234
14.1691
14.1053
14.0808
14.0449
14.009
14.0015
14.0025
14.013
14.0445
14.0701
14.1316
14.2347
14.3026
14.4067
14.5415
14.6368
14.7852
14.9429
15.0279
15.182
15.3355
15.4077
15.5414
15.6642
15.6964
15.7488
15.7684
15.6955
15.6329
15.5061
15.3004
15.103
14.8583
14.5381
14.2423
13.955
13.6259
13.3231
13.0574
12.8124
12.5597
12.3478
12.1858
12.0283
11.8924
11.7766
11.6643
11.532
11.3979
11.273
11.1402
11.0094
10.8914
10.7836
10.686
10.5308
10.2961
10.0951
9.93903
9.75651
9.55709
9.42888
9.41014
9.37749
9.27348
9.11151
8.8671
8.64754
8.65736
8.79688
8.85745
9.01433
9.43991
10.0225
10.6856
11.5174
12.4407
13.358
14.1801
14.8052
15.1427
15.0974
14.3797
12.6355
9.50958
5.02073
-0.0961825
-5.49668
-9.99258
-14.6938
-17.41
-21.9262
-22.3634
-23.8352
-22.1255
-20.3847
-17.3066
-13.5992
-8.7104
-1.76056
4.35683
12.154
17.987
22.6215
25.8876
30.8568
31.2006
31.0165
33.988
33.9621
33.0064
33.3852
31.5232
29.59
26.8708
24.9557
22.3698
19.9551
17.3656
14.0736
11.8509
10.7266
8.65269
5.57188
1.63783
-4.17331
-11.7093
-18.3063
-22.7937
-24.3784
-22.0397
-16.3436
-9.51544
-1.8224
5.51007
11.9237
17.0889
20.569
23.7141
26.0799
27.0743
27.4647
27.8321
27.5823
27.1402
26.8243
26.355
25.7646
25.273
18.8669
18.4679
16.8739
15.5743
14.83
14.6333
14.8037
15.0966
15.3892
15.6178
15.7478
15.8
15.7838
15.7238
15.6409
15.5403
15.4494
15.3582
15.273
15.2099
15.1556
15.1027
15.059
15.0253
14.9937
14.9769
14.9567
14.9251
14.922
14.9036
14.8779
14.8724
14.8407
14.8222
14.7948
14.7666
14.7628
14.7151
14.6747
14.6584
14.6208
14.5845
14.5457
14.5218
14.4915
14.4418
14.4104
14.3713
14.3236
14.2748
14.228
14.1876
14.1425
14.104
14.0797
14.0528
14.0368
14.0382
14.0509
14.0684
14.0977
14.1555
14.2165
14.288
14.3783
14.4694
14.5762
14.7075
14.8246
14.945
15.077
15.2002
15.3176
15.4334
15.5378
15.6191
15.6817
15.7116
15.7101
15.6764
15.6034
15.4729
15.336
15.153
14.9359
14.7097
14.4702
14.2295
13.9821
13.7586
13.5455
13.3326
13.1405
12.9871
12.8256
12.6731
12.5369
12.372
12.2029
12.0319
11.8683
11.7011
11.5004
11.2881
11.1081
10.9831
10.8371
10.5976
10.3429
10.1248
9.90365
9.6921
9.54244
9.46727
9.42026
9.3529
9.24206
9.06021
8.87316
8.84719
8.94784
9.06889
9.29856
9.68408
10.1934
10.8073
11.5143
12.2462
12.9246
13.4956
13.8992
14.0897
14.0033
13.417
11.9424
9.17594
5.06967
0.144361
-4.9253
-9.25349
-13.7849
-16.47
-20.9507
-21.1447
-24.1255
-21.1637
-20.0661
-16.0038
-11.9113
-6.52179
0.799312
7.07345
14.269
19.9518
24.3192
27.5642
31.3809
32.6615
32.483
34.5881
34.2913
34.9761
34.9486
33.9263
32.4248
28.7921
24.2778
21.046
20.4824
18.5436
14.806
12.3073
11.6761
9.72781
6.40153
2.27871
-3.42278
-10.6097
-17.2075
-22.015
-23.1533
-20.6136
-15.6086
-8.38502
-0.00161137
7.39039
13.9854
18.7981
22.6803
26.3074
28.5135
29.4472
30.1082
30.378
29.669
29.1201
28.8081
28.0588
27.2766
26.6934
18.0666
17.7591
16.6421
15.7398
15.2455
15.1287
15.2431
15.4269
15.5956
15.7115
15.766
15.769
15.7219
15.6575
15.5766
15.4923
15.4161
15.337
15.2745
15.2171
15.1664
15.1264
15.0801
15.0467
15.0169
14.9883
14.9651
14.9354
14.9201
14.8982
14.8728
14.8599
14.8303
14.8084
14.7878
14.7602
14.7432
14.7049
14.6756
14.6483
14.6096
14.5843
14.5433
14.5155
14.4835
14.4375
14.4135
14.3681
14.326
14.2916
14.2396
14.2059
14.1682
14.1301
14.1046
14.0831
14.067
14.0604
14.0723
14.0837
14.111
14.1625
14.2087
14.274
14.3572
14.4248
14.5309
14.6432
14.7339
14.8688
14.9892
15.0962
15.2377
15.3453
15.444
15.5635
15.6339
15.6869
15.7315
15.7307
15.6976
15.6432
15.5358
15.408
15.2583
15.0826
14.8937
14.7007
14.5002
14.2904
14.0999
13.9061
13.7199
13.5583
13.3971
13.2373
13.0697
12.8805
12.6662
12.442
12.2293
12.0187
11.7887
11.5421
11.3247
11.1572
10.979
10.7486
10.4955
10.2536
10.0172
9.8084
9.67302
9.57765
9.49295
9.41868
9.32238
9.18692
9.07348
9.08883
9.18851
9.34248
9.58842
9.95259
10.4161
10.9563
11.5311
12.0725
12.5249
12.8636
13.0684
13.1155
13.0071
12.57
11.4541
9.2095
5.55413
0.978949
-3.76939
-8.1326
-12.2611
-15.1834
-18.7834
-19.7766
-21.5442
-19.2807
-18.4076
-13.717
-9.42835
-3.6789
3.5571
9.91188
16.5696
22.1498
25.8384
29.2214
32.5636
34.4188
33.5515
34.2158
34.4032
35.105
35.5874
35.2303
34.9339
31.4386
25.376
21.5031
20.6636
18.9377
15.8105
13.2929
12.3368
10.3213
7.20344
2.81869
-2.6672
-8.83904
-15.1376
-20.4016
-20.6195
-18.7515
-13.6506
-6.00814
1.71015
9.08481
15.6209
20.465
24.7767
28.1412
30.2446
31.4931
32.1099
31.8975
31.2765
30.8937
30.3642
29.4812
28.6665
27.8785
17.207
17.0506
16.5132
16.0459
15.7675
15.6608
15.6621
15.7085
15.7521
15.7717
15.766
15.7298
15.6688
15.605
15.531
15.4606
15.3961
15.3291
15.2788
15.2254
15.1763
15.1391
15.0932
15.0587
15.0279
14.9943
14.9699
14.9421
14.9199
14.8981
14.8719
14.8516
14.8226
14.8001
14.7794
14.7531
14.7311
14.6984
14.6714
14.6384
14.6022
14.5786
14.539
14.5103
14.4805