/*--------------------------------*- C++ -*----------------------------------*\
| =========                 |                                                 |
| \\      /  F ield         | OpenFOAM: The Open Source CFD Toolbox           |
|  \\    /   O peration     | Version:  2.4.0                                 |
|   \\  /    A nd           | Web:      www.OpenFOAM.org                      |
|    \\/     M anipulation  |                                                 |
\*---------------------------------------------------------------------------*/
FoamFile
{
    version     2.0;
    format      ascii;
    class       volScalarField;
    location    "0.31";
    object      p;
}
// * * * * * * * * * * * * * * * * * * * * * * * * * * * * * * * * * * * * * //

dimensions      [0 2 -2 0 0 0 0];

internalField   nonuniform List<scalar> 
8800
(
75.0802
62.7116
55.3213
51.7902
49.9033
48.5062
47.2969
46.1912
45.1992
44.1851
43.271
42.3616
41.419
40.5745
39.7561
38.9018
38.2231
37.5546
36.9021
36.4272
71.9666
62.3575
55.491
51.9045
49.9625
48.5318
47.3043
46.1908
45.1988
44.1818
43.2669
42.3623
41.414
40.5725
39.7564
38.8954
38.224
37.5523
36.9023
36.2252
69.9998
62.4344
56.0947
52.2809
50.1296
48.61
47.3503
46.2229
45.2238
44.1982
43.2772
42.3692
41.4124
40.571
39.7554
38.8824
38.2225
37.5364
36.9227
36.1276
68.4627
62.4955
56.684
52.7068
50.3137
48.6947
47.412
46.2793
45.2719
44.2369
43.3059
42.3872
41.4211
40.5753
39.753
38.8688
38.207
37.5082
36.9458
36.2425
67.2123
62.4689
57.1625
53.1157
50.483
48.7598
47.4598
46.3362
45.3246
44.2911
43.3424
42.4127
41.435
40.5861
39.7438
38.8615
38.169
37.4708
36.8118
36.5221
66.2268
62.3726
57.5308
53.467
50.6357
48.8022
47.4879
46.3812
45.3715
44.3436
43.3797
42.4375
41.4517
40.5918
39.7333
38.8538
38.1272
37.4325
36.7884
37.0069
65.4689
62.2616
57.7983
53.7497
50.7757
48.8307
47.4975
46.4129
45.409
44.3885
43.4113
42.4572
41.4686
40.5944
39.7223
38.8407
38.1007
37.4139
36.86
37.3403
64.9164
62.163
57.981
53.9652
50.8988
48.8487
47.495
46.4355
45.4375
44.4215
43.4372
42.4734
41.4794
40.5921
39.7154
38.8325
38.083
37.4152
36.9313
37.589
64.5579
62.0898
58.0952
54.1106
50.988
48.8582
47.4906
46.4476
45.4574
44.4452
43.4553
42.4823
41.4875
40.591
39.7083
38.8278
38.0804
37.4253
36.9882
37.7443
64.3817
62.0488
58.1518
54.1862
51.0315
48.8621
47.4898
46.4534
45.4656
44.458
43.4663
42.4859
41.4913
40.5908
39.7074
38.83
38.0809
37.4385
37.0376
37.8253
64.3801
62.0493
58.1509
54.1874
51.0317
48.8613
47.491
46.4545
45.4641
44.4599
43.4675
42.4844
41.4934
40.5938
39.7089
38.8349
38.0885
37.4476
37.0698
37.8602
64.5533
62.0901
58.096
54.1162
50.9868
48.8538
47.4977
46.4496
45.4506
44.4507
43.4614
42.4767
41.4919
40.5992
39.715
38.8451
38.0995
37.4643
37.0857
37.8345
64.9098
62.1649
57.9798
53.9723
50.8998
48.841
47.5043
46.4392
45.4276
44.431
43.4459
42.4638
41.4896
40.605
39.7239
38.8604
38.1172
37.4839
37.0822
37.7723
65.4597
62.2646
57.7961
53.759
50.7734
48.8204
47.5107
46.4201
45.3931
44.4016
43.4237
42.4449
41.4815
40.6116
39.7367
38.88
38.1436
37.5122
37.0604
37.6537
66.2179
62.3761
57.5265
53.476
50.6341
48.7902
47.5051
46.3889
45.3496
44.3622
43.3947
42.4192
41.4725
40.6157
39.7488
38.901
38.1804
37.5524
37.0532
37.4773
67.2022
62.4719
57.1596
53.1282
50.4798
48.7424
47.4823
46.3481
45.2943
44.3135
43.3639
42.3886
41.4589
40.6152
39.7642
38.9199
38.2238
37.6048
37.0801
37.2236
68.4522
62.4988
56.6808
52.7218
50.3106
48.6737
47.437
46.2956
45.2347
44.263
43.3319
42.3596
41.4468
40.6122
39.7767
38.9344
38.2679
37.6532
37.138
36.9607
69.9893
62.4363
56.0929
52.298
50.1272
48.5853
47.3762
46.2424
45.1851
44.2232
43.3072
42.3408
41.4399
40.6094
39.7854
38.948
38.2994
37.6885
37.1982
36.8247
71.9567
62.3589
55.4886
51.9211
49.9609
48.5074
47.3291
46.2106
45.1616
44.2057
43.2966
42.3363
41.4411
40.611
39.7905
38.9602
38.3142
37.7074
37.196
36.7534
75.0714
62.7126
55.3192
51.8068
49.9009
48.4834
47.321
46.2089
45.1651
44.2088
43.2976
42.3388
41.4458
40.6122
39.792
38.966
38.3178
37.7106
37.1978
36.877
36.6115
35.8801
34.3644
33.2435
32.8397
33.1322
33.8529
34.7049
35.5088
36.1455
36.5282
36.6778
36.6474
36.4906
36.3154
36.1869
36.1203
36.0798
36.0269
35.9493
35.8277
35.666
35.4982
35.3835
35.3579
35.4626
35.7257
36.1377
36.6899
37.3829
38.2265
39.1489
40.0176
40.7763
41.2765
41.3314
40.8246
39.7105
38.0357
35.9044
33.3281
30.4436
27.7648
25.5424
23.6687
22.1786
21.1321
20.3154
19.6534
19.3735
19.1972
19.0661
19.3379
19.6265
19.9923
20.6949
21.4188
22.2518
23.1733
24.0589
24.9183
25.7951
26.6285
27.2808
27.8027
28.0165
28.3329
28.8826
29.0323
29.2763
29.8688
30.3393
31.0434
32.1091
33.1144
34.2967
35.6541
36.9399
38.2516
39.2978
40.1216
40.7736
41.052
41.0585
40.6223
39.8662
38.8647
37.5008
36.0627
34.699
33.4348
32.4112
31.6716
31.2746
31.2166
31.5407
32.3389
33.3681
34.6284
36.2404
37.9697
39.6995
41.5493
43.3662
44.8497
46.1709
47.3754
48.3187
49.0763
49.7939
50.3968
50.9095
51.497
52.0799
52.67
53.1747
53.3477
53.2582
52.7149
51.2393
48.6349
44.9462
40.1986
34.6697
28.6318
22.4718
16.1947
10.3028
4.70433
-0.201264
-3.85999
-6.96801
-9.01483
-9.92582
-10.4255
-10.2826
-9.52074
-8.40922
-6.35124
-3.41243
0.472143
5.68375
11.5742
17.9699
24.388
29.8387
34.8224
39.1674
42.4773
45.1979
47.8175
50.2178
52.1451
53.8657
55.3203
56.6094
57.8052
58.5054
59.0585
59.5348
59.6658
59.416
58.812
58.0492
57.0587
55.6742
53.9582
52.1249
50.2786
48.1894
45.9504
43.9288
42.2169
40.2408
38.6011
37.6284
37.3953
37.1777
37.3201
37.8434
39.2435
39.988
41.7272
42.9684
45.0941
46.0133
47.3166
47.7239
49.3369
49.9629
51.0873
52.4087
53.441
54.2151
54.9807
55.2743
55.7631
52.9618
51.7338
34.7074
35.9933
35.6219
34.665
33.6662
33.1903
33.2983
33.8662
34.6266
35.3905
36.0061
36.3926
36.5661
36.5692
36.4602
36.3181
36.1966
36.1232
36.0841
36.0326
35.9559
35.8498
35.7116
35.5707
35.4858
35.4781
35.5865
35.8719
36.2885
36.8466
37.5375
38.3093
39.1516
39.9172
40.565
40.9517
40.9098
40.4183
39.3065
37.6933
35.8113
33.5049
30.7915
28.2673
26.1799
24.3124
22.8084
21.784
20.9597
20.3215
20.0346
19.8791
19.757
19.9393
20.2279
20.626
21.2544
21.9033
22.7152
23.6194
24.4039
25.1469
26.0664
26.8937
27.3248
27.9142
28.392
28.5914
29.0947
29.3754
29.5223
30.1032
30.6561
31.2161
32.0943
32.9251
33.8641
34.8975
35.7935
36.764
37.5996
38.2306
38.7368
38.8944
38.7711
38.4199
37.7437
36.9528
36.0501
34.9761
34.062
33.3145
32.6921
32.3259
32.4012
32.6858
33.3089
34.4144
35.7362
37.1153
38.8059
40.679
42.3556
44.0979
45.7282
46.99
48.0941
49.0891
49.9288
50.5649
51.0673
51.4196
51.7522
52.2512
52.8517
53.4901
54.1924
54.601
54.68
54.2786
52.8486
50.1466
46.057
40.9064
34.6611
28.1281
21.3835
14.6589
8.25083
2.05327
-3.15677
-7.17894
-10.3688
-12.1437
-12.7833
-13.0308
-12.2769
-11.0953
-9.90077
-7.94326
-5.26332
-1.6884
3.21943
9.13725
15.7584
22.3374
28.2819
33.6959
38.3812
42.0276
44.9656
47.6761
50.1953
52.2214
53.8309
55.3044
56.7682
57.9433
58.7279
59.3639
59.5792
59.6658
59.7479
59.1079
58.1991
57.1582
55.6364
54.0581
52.4806
50.6657
48.7178
46.8464
44.9153
43.1276
41.2251
39.9765
38.8302
38.2323
37.6771
38.2673
38.446
39.7123
39.6278
41.5078
41.8067
44.4309
45.2211
46.766
46.8625
48.3845
48.6278
50.2444
50.8253
52.8829
52.4347
54.4687
52.8599
53.8298
48.7309
43.7856
30.2281
35.8149
35.6498
35.118
34.3514
33.7247
33.5544
33.8889
34.5015
35.2167
35.8357
36.2323
36.4441
36.4804
36.4037
36.2936
36.1842
36.1166
36.082
36.0387
35.9774
35.8911
35.7792
35.6736
35.6121
35.634
35.741
36.0173
36.4348
36.9473
37.6183
38.3119
39.036
39.7055
40.201
40.4469
40.3271
39.846
38.7999
37.2604
35.5452
33.5218
31.0535
28.6837
26.7551
25.0171
23.557
22.5444
21.7998
21.2125
20.9189
20.7316
20.6126
20.8298
21.1139
21.4116
22.0523
22.7465
23.3781
24.1663
25.0446
25.712
26.4031
27.2696
27.728
28.2119
28.7919
28.9893
29.3717
29.7344
29.8756
30.3875
30.8878
31.3318
31.9733
32.5549
33.2807
34.0986
34.73
35.4617
36.135
36.4857
36.7717
36.8821
36.656
36.3604
35.8304
35.191
34.6234
33.9494
33.3514
32.9945
32.8051
32.7881
33.2195
33.8807
34.8086
36.1693
37.671
39.2892
41.0846
42.9391
44.6118
46.2365
47.7072
48.8843
49.9535
50.8438
51.548
51.994
52.2169
52.389
52.4659
52.8002
53.4587
54.1526
54.9872
55.6454
55.8785
55.4863
54.0223
51.1982
46.8743
41.1815
34.5686
27.7826
20.6563
13.668
6.72977
0.152824
-5.32911
-9.87895
-13.3364
-15.1832
-15.7484
-15.5965
-14.2644
-12.4931
-10.9756
-8.80292
-6.30072
-3.10055
1.5055
7.28631
13.8798
20.7258
27.0933
32.7948
37.791
41.6591
44.8593
47.7281
50.2416
52.4566
54.1742
55.6962
57.063
58.2161
59.0976
59.5628
59.8267
60.1474
60.1308
59.4035
58.5977
57.4807
56.0543
54.6518
52.9567
51.2474
49.5893
47.8153
45.666
44.1855
42.5821
41.3533
39.6586
39.372
38.4547
38.8447
38.5421
40.1128
39.6743
41.7022
41.2023
43.7192
43.8542
45.2697
45.1701
46.5956
46.4308
47.7588
47.915
49.4295
48.8755
50.209
48.4818
47.4201
43.691
36.3954
28.142
35.8123
35.693
35.2839
34.6451
34.0168
33.7214
33.9217
34.4068
35.0549
35.6618
36.0748
36.309
36.3836
36.3468
36.2781
36.1956
36.1305
36.0976
36.0579
35.9988
35.9381
35.8598
35.7746
35.7526
35.7965
35.905
36.1694
36.5406
37.0079
37.6185
38.1976
38.8226
39.3517
39.6985
39.8639
39.6546
39.1649
38.2348
36.8299
35.2723
33.51
31.4105
29.2708
27.5031
25.9763
24.576
23.629
22.9455
22.3366
22.0135
21.9028
21.8084
21.9197
22.239
22.5969
23.0913
23.7133
24.3754
25.0264
25.8002
26.4812
27.0223
27.7886
28.2965
28.6598
29.2346
29.481
29.6925
30.0854
30.2935
30.6153
30.9847
31.2841
31.7521
32.2032
32.7521
33.3284
33.7201
34.2358
34.6873
34.7758
34.9305
34.9971
34.7312
34.5504
34.1703
33.6077
33.2769
32.9175
32.5401
32.5293
32.7363
33.0222
33.7929
34.8012
35.9521
37.5469
39.2926
41.0619
42.9125
44.793
46.4813
48.1216
49.5954
50.7774
51.8775
52.6548
53.1614
53.3397
53.212
53.1067
53.0003
53.1641
53.7252
54.419
55.2869
56.0858
56.4252
56.0336
54.4909
51.5054
46.9686
40.9063
34.1202
27.0649
20.0724
12.7699
5.30856
-1.26036
-7.11646
-11.9146
-15.4535
-17.4729
-18.1464
-17.7826
-16.0978
-13.9586
-11.7898
-9.28217
-6.64611
-3.74475
0.546031
6.21183
12.5139
19.3367
26.0081
31.9858
37.1526
41.3358
44.778
47.7734
50.3439
52.6629
54.517
56.0713
57.553
58.7188
59.6042
60.1353
60.5051
60.6818
60.5364
60.2131
59.484
58.4301
57.045
55.3921
53.661
52.1202
50.2618
48.5522
46.5523
45.3459
43.5303
42.4096
40.6539
40.7336
39.2213
39.6758
38.9614
40.4712
40.1715
41.257
41.0605
41.874
42.755
42.5671
43.3567
43.2129
43.564
43.7952
44.1676
43.8149
43.9554
43.3578
42.5762
40.728
38.1272
31.9746
26.1124
37.3319
36.9309
35.5882
34.5092
33.8219
33.5595
33.8068
34.2866
34.9024
35.4786
35.9296
36.2208
36.3148
36.3015
36.2517
36.1807
36.1163
36.0772
36.0454
36.016
35.976
35.9482
35.9002
35.8812
35.9513
36.0593
36.2908
36.6019
37
37.5241
37.988
38.5042
38.9061
39.1205
39.2437
38.9994
38.502
37.6756
36.4668
35.0905
33.5114
31.857
30.0529
28.3584
27.1073
25.9096
24.8946
24.2901
23.7593
23.3652
23.3221
23.2782
23.3138
23.6437
23.9969
24.3589
24.9073
25.5653
26.0559
26.6517
27.3785
27.8352
28.3106
28.907
29.2745
29.6163
29.9271
30.0949
30.399
30.6201
30.7552
30.9898
31.2133
31.5446
31.8838
32.2026
32.538
32.711
32.9342
33.2311
33.2047
33.252
33.2393
32.8995
32.7412
32.4906
32.0403
31.8209
31.7705
31.6275
31.8974
32.4502
33.0574
34.1185
35.3902
36.8706
38.624
40.5515
42.5056
44.4982
46.4645
48.25
49.9794
51.5586
52.8354
53.9104
54.5151
54.7392
54.5389
54.0073
53.5537
53.2325
53.2469
53.6983
54.2897
54.9941
55.6133
55.8914
55.292
53.5285
50.4172
45.9396
40.2187
33.1139
26.2947
19.3988
11.7334
4.25578
-2.50777
-8.69708
-13.5919
-17.1665
-19.1713
-19.8054
-19.2996
-17.4155
-15.0046
-12.3895
-9.44639
-6.68179
-3.74316
0.533027
5.78505
11.7916
18.4927
25.384
31.5209
36.7008
41.2351
44.8309
47.8668
50.5723
52.9355
54.9492
56.4871
58.0516
59.234
60.1315
60.7395
61.0517
61.3105
61.4099
61.2543
60.5262
59.5822
58.1026
56.5166
54.7523
53.0433
51.0895
49.757
47.773
46.3176
44.4073
43.7345
41.9001
41.7105
40.3403
40.4403
39.894
39.9974
40.4851
39.9407
40.7565
40.2199
41.3132
40.6063
41.22
40.8785
41.5426
41.9094
41.8591
41.3283
41.357
40.613
39.8902
37.5881
35.6388
30.8834
25.247
38.376
37.7895
35.9046
34.5096
33.6878
33.3995
33.6809
34.2254
34.8281
35.332
35.7813
36.1133
36.2379
36.2561
36.2461
36.2239
36.159
36.1081
36.0663
36.03
35.9973
35.9837
35.9672
35.9577
36.0507
36.1828
36.3991
36.6509
36.9636
37.4135
37.7528
38.1381
38.4667
38.559
38.6556
38.4061
37.8931
37.2262
36.1869
34.9853
33.6849
32.3303
30.8502
29.3688
28.2784
27.2984
26.3067
25.7021
25.3364
24.929
24.8303
24.8955
24.9287
25.1257
25.4237
25.7812
26.2218
26.6899
27.1571
27.6505
28.2036
28.6349
28.9724
29.5208
29.8386
29.9803
30.3692
30.5119
30.6351
30.8358
30.852
31.0078
31.2207
31.3302
31.4665
31.6085
31.7077
31.7346
31.7461
31.8019
31.6474
31.5266
31.4081
31.0196
30.7916
30.6077
30.2845
30.2476
30.4272
30.5544
31.0997
31.9471
32.8794
34.2062
35.7862
37.5107
39.4982
41.629
43.7535
45.9207
48.0337
50.0155
51.9327
53.621
54.917
55.8639
56.2679
56.2284
55.6965
54.7044
53.7415
53.0959
52.9647
53.265
53.6219
53.9894
54.1955
53.7793
52.6161
50.5519
47.5885
43.4382
38.0984
31.8623
25.5428
18.7389
11.2131
3.84314
-3.20818
-9.34779
-14.4218
-18.2256
-20.2851
-20.9952
-20.3407
-18.2881
-15.6499
-12.6528
-9.35015
-6.29587
-3.13707
1.12423
6.07235
11.8489
18.5816
25.3714
31.527
36.8359
41.503
45.2642
48.418
51.2351
53.5096
55.6089
57.3211
58.8992
60.1019
60.8993
61.5169
61.8838
62.2318
62.2645
62.1034
61.5401
60.7221
59.561
58.0316
56.0758
54.5749
52.6391
51.1212
48.9635
47.6016
45.6765
44.801
43.1069
42.7659
41.6128
40.5826
40.4303
39.4731
40.5679
39.5092
40.0974
39.8822
40.7379
40.8521
41.188
41.5833
41.8117
41.713
42.0635
41.5739
41.8287
40.4013
40.1603
37.8062
35.4206
30.9899
25.5882
38.9992
38.3874
36.3217
34.7205
33.7196
33.3252
33.5887
34.1662
34.764
35.2383
35.6795
36.0714
36.2292
36.2444
36.2651
36.2576
36.1911
36.1339
36.0615
36.0299
36.0122
35.997
36.0273
36.0273
36.1272
36.2801
36.4414
36.6498
36.8941
37.2631
37.536
37.7929
38.0628
38.1095
38.1351
37.8983
37.428
36.9005
36.0076
34.994
33.9859
32.8077
31.5984
30.4534
29.3621
28.5489
27.7488
27.0742
26.8257
26.5303
26.2964
26.4302
26.5102
26.5472
26.8212
27.1595
27.4576
27.7922
28.267
28.6256
28.9574
29.4776
29.6908
30.0267
30.426
30.4472
30.7214
30.9002
30.8843
31.0228
31.027
31.0398
31.1428
31.1291
31.0456
31.014
30.8977
30.7575
30.6049
30.3405
30.0112
29.7176
29.4156
29.0046
28.7726
28.6414
28.4505
28.5865
28.9038
29.2972
30.1357
31.2298
32.4984
34.114
35.9541
37.9511
40.1651
42.519
44.8393
47.2662
49.597
51.7189
53.7672
55.5354
56.8736
57.7561
58.0403
57.7022
56.731
55.2561
53.7331
52.556
52.1867
52.4515
52.4014
52.054
51.3597
49.9945
47.9998
45.5466
42.6775
39.2285
34.9645
29.8167
24.239
18.0218
10.8992
3.61142
-3.14652
-9.22857
-14.5195
-18.2868
-20.5387
-21.4113
-20.7122
-18.6267
-15.8645
-12.5448
-8.96586
-5.57636
-2.11879
2.19273
7.06112
12.5624
19.1734
25.962
32.0828
37.3412
42.0369
45.9313
49.0674
51.9719
54.395
56.5721
58.3293
59.7848
61.0524
61.8505
62.5209
62.8476
63.0085
62.9764
62.8795
62.4812
61.844
60.969
59.4474
57.6706
56.3905
54.2212
52.6136
50.5899
49.1867
46.9038
45.9235
44.4394
43.526
42.5718
41.0888
41.2515
40.3687
41.2378
40.1101
40.9189
41.1459
41.8808
41.8368
42.4302
42.4716
42.8132
42.1551
42.7144
42.0264
41.7536
40.1998
39.4742
37.3035
34.5452
30.547
25.875
39.3683
38.7847
36.6893
34.9488
33.8403
33.3648
33.5459
34.1266
34.7286
35.1954
35.6345
36.0267
36.2143
36.239
36.2581
36.274
36.2172
36.1503
36.0706
36.0375
36.0465
36.0216
36.0574
36.0713
36.1585
36.3353
36.4569
36.6357
36.8365
37.1161
37.3545
37.5082
37.7281
37.7747
37.724
37.5334
37.1319
36.6945
35.9602
35.0994
34.3233
33.2825
32.2842
31.3896
30.3485
29.6803
29.0947
28.3937
28.2123
28.0507
27.7298
27.8103
27.9238
27.9169
28.105
28.3572
28.6693
28.9212
29.2169
29.5799
29.8154
30.208
30.4093
30.5996
30.9664
31.0108
31.1166
31.2625
31.198
31.2296
31.2386
31.1191
31.0677
30.913
30.6267
30.4396
30.1686
29.7716
29.3615
28.8433
28.3377
27.8631
27.3631
26.9572
26.6955
26.576
26.5092
26.7226
27.1891
27.8475
28.9292
30.3038
31.9145
33.8101
35.9358
38.2337
40.6602
43.1684
45.8036
48.4306
50.8926
53.2212
55.4343
57.2419
58.6068
59.5857
59.8114
59.1759
57.6201
55.5182
53.4723
51.9233
51.1695
50.8621
50.4903
49.3809
47.4462
44.8883
41.7455
38.8213
36.2224
33.6909
30.7543
27.1797
22.8444
17.2985
10.8639
4.09153
-2.45025
-8.58152
-13.7804
-17.482
-19.9934
-20.8799
-20.0429
-18.2802
-15.4728
-12.0058
-8.19403
-4.59494
-0.797564
3.61519
8.49949
13.8854
20.2792
26.6946
32.7516
38.2271
42.8274
46.9046
50.1619
53.0084
55.5162
57.5554
59.4421
60.9413
62.2095
62.9762
63.605
63.8675
63.9968
64.0588
63.8864
63.6035
62.9744
62.178
60.9685
59.4347
58.0108
55.8333
54.3868
52.3171
50.8804
48.6514
47.4337
45.7217
44.2926
44.0125
42.4772
42.7007
42.0064
42.7085
41.6808
42.2824
42.3577
43.1698
42.8974
43.207
42.7892
43.2598
42.6551
42.4608
41.6202
41.0497
39.6647
37.9879
36.028
33.3895
29.8464
25.8229
39.6363
39.094
36.9845
35.1696
34.0039
33.462
33.5416
34.0917
34.7056
35.1832
35.6106
35.9922
36.225
36.2604
36.2572
36.2917
36.2441
36.1616
36.0684
36.0248
36.0593
36.0415
36.0709
36.1019
36.1815
36.3512
36.4615
36.6201
36.7964
37.0192
37.2173
37.3014
37.4758
37.5308
37.4394
37.3257
36.9821
36.5775
36.0141
35.2409
34.593
33.7853
32.903
32.2239
31.3791
30.7255
30.301
29.6977
29.4307
29.3617
29.0665
29.046
29.2346
29.2296
29.3069
29.5361
29.8505
29.982
30.1807
30.5435
30.6644
30.9377
31.1565
31.2436
31.4964
31.6283
31.5824
31.6385
31.6073
31.4674
31.4492
31.2458
31.0171
30.703
30.313
29.9504
29.4272
28.8075
28.0978
27.4088
26.703
26.0362
25.3894
24.8558
24.5339
24.317
24.3915
24.6966
25.2542
26.2229
27.4995
29.1394
31.1225
33.3328
35.6704
38.219
40.9995
43.6902
46.469
49.288
51.952
54.4898
56.7349
58.729
60.3316
61.3692
61.3513
60.3828
58.3947
55.6556
53.2057
51.2599
50.1653
49.5007
48.3802
46.2802
42.9618
38.7398
34.6684
31.366
28.9996
27.5292
26.304
24.6077
21.543
17.236
11.8119
5.49652
-0.78548
-6.6557
-11.8135
-15.9204
-18.5163
-19.3925
-18.952
-17.4818
-14.4635
-11.0699
-6.98056
-3.42609
0.845556
5.32999
10.1155
15.5937
21.8773
28.0915
33.6313
39.0706
43.6577
47.7935
51.2896
54.2409
56.8682
58.902
60.8719
62.2695
63.4159
64.1787
64.7538
65.1071
65.2785
65.2951
64.9467
64.663
63.9176
63.1163
62.1982
60.8404
59.3722
57.6089
56.2665
54.0871
52.6321
50.4524
48.8594
47.513
46.0139
45.7667
44.0482
44.3613
43.9254
44.2128
43.0171
43.0898
43.4628
44.1403
43.729
43.2677
42.9817
43.1669
42.4879
41.5812
40.8021
39.9895
38.5633
36.5182
34.7189
32.3639
29.0429
25.4353
39.816
39.3188
37.1815
35.3506
34.1674
33.5829
33.5935
34.0973
34.7458
35.2274
35.6213
35.9995
36.2413
36.2795
36.2482
36.267
36.2329
36.1513
36.0531
36.0184
36.0746
36.0562
36.0829
36.1263
36.2004
36.378
36.4583
36.5683
36.7251
36.8933
37.0829
37.1328
37.2704
37.356
37.2291
37.1548
36.8607
36.4675
36.1039
35.4177
34.8596
34.3298
33.456
32.9281
32.3694
31.6212
31.3301
30.9645
30.5471
30.5281
30.3887
30.2643
30.4493
30.505
30.5453
30.693
30.9145
31.0425
31.1355
31.4054
31.5608
31.7253
31.8872
32.0004
32.1182
32.1859
32.1021
32.0773
32.0783
31.8094
31.6584
31.3524
31.0237
30.6757
30.1169
29.5476
28.7507
27.9487
27.0072
26.1018
25.2091
24.2517
23.5035
22.7668
22.336
22.1227
22.1566
22.6438
23.2464
24.3704
25.9894
27.7901
30.0553
32.6054
35.2064
37.9607
40.9241
44.0041
47.0205
49.9568
52.7927
55.391
57.8385
60.0419
61.6661
62.7372
62.6631
61.1957
58.9662
55.8772
52.9387
50.951
49.5572
48.3332
46.425
43.2043
38.5394
32.9013
27.8552
24.3311
22.7163
22.6631
23.0287
22.8657
21.2552
18.167
13.522
7.90842
2.03282
-3.62756
-9.01543
-13.2707
-15.9331
-17.1118
-17.0942
-15.5909
-12.928
-9.60639
-5.42174
-2.17483
2.71677
7.2252
12.0607
17.5792
23.3882
29.4874
35.0026
40.2284
44.714
48.8035
52.4264
55.2402
57.9487
60.1485
62.1595
63.6872
64.7404
65.5405
66.0689
66.4276
66.499
66.4482
66.0224
65.649
64.9789
64.1494
63.3175
62.1852
60.7626
59.32
57.866
55.7149
54.2473
52.2868
50.5416
49.519
47.8542
47.3796
45.9508
45.9145
45.2384
45.2654
44.0543
43.7604
44.3009
44.3563
43.9399
42.9064
42.8695
42.5346
41.8533
40.9848
39.7274
38.8159
37.4735
35.278
33.4742
31.0013
27.8299
24.6687
39.936
39.4506
37.2876
35.4701
34.2983
33.7204
33.724
34.1793
34.8423
35.2915
35.6318
36.0244
36.2406
36.2845
36.2484
36.2252
36.2477
36.1545
36.0272
36.0345
36.0486
36.0519
36.1003
36.0982
36.2073
36.3848
36.4309
36.569
36.6755
36.7919
37.0069
36.9745
37.0799
37.2125
37.0409
37.029
36.8022
36.4231
36.2216
35.6272
35.1427
34.82
34.0313
33.5966
33.2652
32.5477
32.3037
32.1119
31.6864
31.6865
31.6763
31.4901
31.5938
31.6856
31.6484
31.7323
31.9383
32.0707
32.1228
32.3177
32.4737
32.5298
32.6584
32.7491
32.7502
32.7587
32.6941
32.573
32.4928
32.2535
31.9386
31.611
31.1849
30.6995
30.0382
29.2738
28.3335
27.3013
26.2231
25.0235
23.9265
22.7737
21.8013
21.0154
20.3182
20.1325
20.1114
20.5307
21.4299
22.5199
24.2855
26.4275
28.8302
31.6188
34.5791
37.5702
40.6053
43.8817
47.219
50.3495
53.211
55.9399
58.5613
60.7937
62.4759
63.4018
63.3226
61.7127
59.094
56.2489
53.3237
51.2042
49.4468
47.7797
44.9969
40.7327
34.7624
28.0957
22.7582
19.7091
19.2081
20.4007
22.11
23.1623
22.7852
20.5798
16.6554
11.4276
5.81563
0.204567
-5.26994
-9.67926
-12.5043
-14.1661
-14.5583
-13.0911
-10.8303
-7.62229
-3.80553
-0.198488
4.68375
9.11887
13.9234
19.8632
25.0649
30.8427
36.5908
40.999
46.1867
49.8635
53.7072
56.5131
59.2281
61.5069
63.4834
65.1353
66.065
66.9735
67.4331
67.6374
67.7245
67.7312
67.1752
66.7545
66.3432
65.4356
64.5216
63.4727
62
60.8168
59.2024
57.2203
55.6763
54.1873
52.333
51.1223
49.5534
48.6909
47.5262
47.0137
46.3195
45.9161
44.802
44.4476
44.5871
44.2017
43.8647
42.5262
42.6502
42.0325
41.0791
40.458
38.6927
37.8529
36.3485
33.903
32.2633
29.8079
26.7709
23.9308
39.9655
39.5225
37.3324
35.5549
34.4406
33.8777
33.9063
34.3078
34.9683
35.4069
35.6678
36.0595
36.2403
36.2784
36.2446
36.1614
36.2235
36.1216
35.9789
36.0445
36.0354
36.064
36.1392
36.0941
36.2232
36.3871
36.3953
36.5459
36.6133
36.6875
36.9396
36.8753
36.9244
37.1235
36.9221
36.9116
36.8579
36.4522
36.3294
35.9588
35.3988
35.223
34.6956
34.169
34.0342
33.5786
33.2089
33.1751
32.9007
32.7294
32.7666
32.6484
32.6527
32.7627
32.7786
32.8353
32.9854
33.1037
33.1624
33.2382
33.3455
33.371
33.4117
33.4359
33.3894
33.4043
33.2921
33.1079
32.8987
32.6807
32.3346
31.9628
31.4996
30.7881
30.1156
29.1974
28.2002
27.0275
25.7147
24.4482
23.0355
21.8459
20.6565
19.625
18.9356
18.425
18.4479
18.8081
19.6671
21.0302
22.7268
25.0555
27.7236
30.5732
33.7331
36.968
40.2487
43.506
46.9011
50.2911
53.2729
56.0967
58.7384
60.8632
62.5436
63.389
63.0162
61.5739
59.15
56.5614
54.3029
52.1258
50.0392
47.6353
44.1774
39.1031
32.2618
24.9271
19.9211
17.6141
18.1348
20.5167
23.3587
25.3766
25.9656
24.3683
20.8464
15.9488
10.4253
4.60855
-0.827381
-5.2729
-8.26638
-10.2515
-10.9153
-9.99331
-8.20485
-5.05878
-1.75387
1.97118
6.88098
11.1833
15.9311
21.7044
26.9252
32.3507
38.8423
41.202
47.6698
50.9371
54.7583
57.718
60.4863
62.8276
64.6609
66.3881
67.2198
68.1437
68.5584
68.7636
68.9473
68.8473
68.2736
67.9325
67.623
66.6439
65.6124
64.519
63.201
62.1632
60.2741
58.5793
56.9165
55.8766
53.9078
52.3982
51.0615
49.8504
48.9759
47.8148
47.254
46.4691
45.3732
45.0213
44.3877
44.2836
43.6781
42.3583
42.5205
41.3051
40.6589
39.8624
37.9026
37.2998
35.3672
32.9225
31.2895
28.5414
25.7916
23.2068
39.8848
39.492
37.2988
35.5778
34.5868
34.0721
34.1622
34.5302
35.1367
35.5816
35.7366
36.0847
36.2389
36.225
36.2199
36.1021
36.1784
36.1234
35.9428
36.0418
36.0355
36.0331
36.1616
36.0934
36.2064
36.3937
36.3573
36.5219
36.5845
36.5914
36.8769
36.8012
36.7989
37.0589
36.8408
36.85
36.9061
36.495
36.4632
36.2462
35.7115
35.6775
35.3263
34.8022
34.8001
34.4791
34.0744
34.1148
33.9378
33.7269
33.8053
33.7798
33.7499
33.8567
33.9184
33.9327
34.0276
34.1098
34.1234
34.1275
34.1855
34.2037
34.1441
34.1558
34.0772
33.9757
33.815
33.6136
33.393
33.0759
32.7294
32.2998
31.8148
31.1124
30.3519
29.4041
28.2691
27.025
25.5908
24.2209
22.7483
21.3855
20.086
18.873
18.0457
17.4112
17.2944
17.6349
18.3572
19.7909
21.5831
23.8779
26.7248
29.7456
32.8734
36.1726
39.6868
43.2101
46.5903
49.688
52.7765
55.8512
58.3728
60.3681
61.9487
62.5484
61.9771
60.5243
58.7362
56.7194
54.7229
52.7758
50.6394
47.8834
43.8733
38.2498
31.1431
23.9883
19.0805
17.2274
18.4989
21.7649
25.5681
28.4166
29.772
28.8741
25.848
21.0437
15.3399
9.6617
4.29763
-0.166638
-3.4163
-5.752
-6.91507
-6.62412
-5.00832
-2.08849
0.576373
4.3732
9.13496
13.0501
18.015
23.7593
28.6346
33.7843
40.5597
41.773
49.5656
51.8364
56.1175
59.1762
61.7974
64.1294
65.8753
67.5373
68.3596
69.2923
69.7604
69.9773
70.0281
69.7735
69.3486
69.0598
68.6335
67.6277
66.6596
65.682
64.4455
63.074
61.1349
59.8552
58.0844
57.0835
55.0485
53.4372
52.2621
50.8984
50.1736
48.542
48.0032
46.8651
45.8796
45.7504
44.4822
44.7349
43.4349
42.4987
42.5798
40.7336
40.826
39.433
37.5302
37.0526
34.2753
32.3398
30.5545
27.1926
24.7739
22.2235
39.6428
39.2524
37.2028
35.6142
34.7575
34.383
34.5097
34.8413
35.3515
35.7286
35.8351
36.0829
36.2062
36.1839
36.1681
36.0696
36.1213
36.0864
35.9437
36.0208
36.0256
36.0313
36.1441
36.1138
36.2112
36.3607
36.3542
36.4766
36.5259
36.5457
36.762
36.7419
36.7457
36.9482
36.8735
36.8483
36.8964
36.6734
36.6033
36.4897
36.1541
36.0522
35.8506
35.5066
35.4288
35.2668
34.9885
34.9669
34.9188
34.778
34.8314
34.8591
34.8416
34.9073
34.9438
34.9463
34.9901
35.0117
34.9952
34.9985
34.9683
34.9275
34.8379
34.7725
34.666
34.4805
34.2798
34.0227
33.7843
33.4726
33.0894
32.6448
32.1222
31.4891
30.6999
29.7284
28.553
27.229
25.7839
24.299
22.7914
21.3481
19.9242
18.6506
17.6571
16.9225
16.711
16.9234
17.6265
19.0177
20.8061
23.1596
26.0264
29.0804
32.2409
35.5246
38.9677
42.5357
46.1227
49.3456
52.2229
55.1345
57.653
59.5116
60.805
61.2575
60.7701
59.6362
58.1517
56.5504
54.9529
53.249
51.1899
48.3503
44.1743
38.439
31.4541
24.6063
19.9264
18.2672
19.6697
23.1503
27.5566
31.4651
33.4977
33.3861
30.8523
26.5503
20.9879
15.2694
9.85105
5.19417
1.78136
-0.756354
-2.4146
-2.362
-0.740379
1.04949
3.17379
7.13696
11.4298
15.0114
20.3809
25.8315
30.1752
35.691
41.3089
41.7062
51.2303
52.8689
57.4435
60.6543
63.1918
65.5705
67.3117
68.7967
69.6977
70.5241
70.935
71.0436
71.0175
70.7733
70.3591
70.0897
69.5624
68.5469
67.6081
66.6865
65.3367
63.6596
61.9241
60.7458
58.8632
57.7945
55.926
54.27
53.1055
51.7339
50.9136
49.1638
48.6023
47.3974
46.6346
46.3868
44.8849
45.0316
43.346
42.9031
42.511
40.5448
41.011
38.925
37.5226
36.9027
33.4041
31.9648
29.6567
25.9299
23.7135
20.8467
39.12
38.7354
37.0418
35.7238
35.0418
34.814
34.9458
35.2413
35.6022
35.853
35.9553
36.0815
36.1621
36.1471
36.0937
36.0413
36.0477
36.0138
35.9588
35.9892
36.0149
36.0527
36.1113
36.1379
36.2158
36.3084
36.3564
36.4249
36.4701
36.5268
36.6488
36.6873
36.7241
36.8502
36.8644
36.8687
36.9081
36.8273
36.7596
36.7162
36.5456
36.4303
36.3491
36.1654
36.0591
36.0061
35.8706
35.8083
35.8208
35.758
35.7474
35.7807
35.775
35.7941
35.825
35.8455
35.8366
35.8187
35.7759
35.6924
35.6015
35.4998
35.3652
35.216
35.0557
34.851
34.6081
34.3477
34.0781
33.7582
33.3715
32.9372
32.4348
31.8022
31.0226
30.0444
28.8641
27.5277
26.067
24.5669
23.0313
21.5329
20.0545
18.7278
17.6583
16.8668
16.5333
16.6883
17.3716
18.6764
20.4886
22.8634
25.6731
28.7131
31.9029
35.2334
38.6754
42.1661
45.6015
48.7478
51.6701
54.5176
56.8935
58.6634
59.8085
60.1133
59.6394
58.7284
57.6009
56.364
55.0645
53.5916
51.6865
48.921
44.8623
39.406
32.9295
26.6427
22.1847
20.4854
21.7477
25.2965
29.6255
34.052
36.4433
36.8997
35.3779
32.0349
26.9182
21.276
15.6289
10.6518
7.14331
4.54411
2.66659
2.39771
3.17756
4.01104
5.92512
9.63982
13.2456
16.9741
22.7701
27.6016
31.3176
37.8901
41.7167
43.2826
52.4904
54.0462
59.3512
61.9063
64.5738
66.8981
68.5174
69.8686
70.8766
71.5808
71.9507
71.9904
71.8937
71.713
71.3863
70.9784
70.2908
69.4396
68.5189
67.393
65.8273
64.1766
62.6767
61.385
59.5153
58.2552
56.5356
54.9096
53.703
52.3836
51.3288
49.749
49.1007
47.9522
47.1547
46.4337
45.3397
45.1365
43.5297
43.1646
42.0916
40.7476
40.9104
38.6962
37.9135
36.5517
33.1664
31.7993
28.4003
24.816
22.578
19.3723
38.3164
38.0154
36.8762
35.9748
35.4994
35.3912
35.4452
35.6333
35.8326
35.952
36.0321
36.0679
36.0932
36.0933
36.0381
36.0209
36.0035
35.9658
35.9708
35.97
36.0006
36.0638
36.09
36.1524
36.225
36.2663
36.3376
36.3759
36.4062
36.4992
36.5638
36.6316
36.735
36.7988
36.8815
36.9369
36.9395
36.9608
36.9437
36.9
36.8699
36.8042
36.7544
36.7064
36.6314
36.6047
36.5697
36.5196
36.53
36.526
36.5124
36.5398
36.5446
36.5341
36.5235
36.4883
36.4317
36.3631
36.2733
36.1533
36.0197
35.8666
35.6949
35.5263
35.331
35.0901
34.816
34.5278
34.2488
33.9297
33.5497
33.121
32.6241
32.0106
31.2374
30.2775
29.1163
27.7954
26.3656
24.8834
23.3791
21.9019
20.3459
19.0533
17.9524
17.1419
16.771
16.8701
17.5244
18.7937
20.613
22.956
25.6897
28.7046
31.8856
35.19
38.6029
42.0774
45.4508
48.5433
51.434
54.2105
56.5402
58.1937
59.0573
59.1304
58.6675
57.9459
57.0978
56.1457
55.0772
53.7926
52.0603
49.4892
45.7354
40.8491
35.1414
29.5169
25.4853
23.7582
24.6958
27.9959
31.9944
35.8149
38.3662
39.0645
38.5563
36.4464
32.1946
26.6577
20.982
16.0293
12.5203
9.94624
7.81772
6.63874
6.35985
6.92188
9.0015
12.0557
15.0028
19.2697
25.0833
28.7135
32.4122
39.9746
42.4714
45.0032
53.6814
55.9915
60.7845
62.6674
66.3816
67.8073
69.6775
71.0136
72.0419
72.5881
72.8472
72.8691
72.8017
72.5904
72.1925
71.6949
71.1143
70.2856
69.1933
67.859
66.2396
64.7655
63.265
61.7861
60.0069
58.6
56.983
55.3993
54.1792
52.8049
51.5443
50.1567
49.2295
48.2543
47.5205
46.672
45.7135
44.9605
43.8297
43.1827
41.9432
41.1322
40.5277
38.9874
38.3051
36.1785
33.4905
31.4877
27.5617
24.4633
21.3718
17.7851
37.4402
37.2933
36.7814
36.3305
36.0469
35.944
35.9135
35.9557
36.0121
36.0373
36.0794
36.0619
36.0427
36.0402
35.9884
35.9817
35.9669
35.9472
35.9827
35.9753
35.9989
36.0572
36.0697
36.1441
36.2135
36.2415
36.3214
36.3491
36.3821
36.4766
36.5148
36.6067
36.7295
36.7792
36.8911
36.9711
36.9806
37.0551
37.0681
37.0545
37.1034
37.0819
37.0693
37.0967
37.0604
37.0523
37.0643
37.0339
37.0337
37.0387
37.0246
37.023
37.0174
36.9943
36.9539
36.8974
36.8096
36.69
36.5579
36.4058
36.2342
36.056
35.8659
35.6679
35.4509
35.1964
34.9182
34.6357
34.3414
34.0026
33.6074
33.1743
32.6821
32.0787