/*--------------------------------*- C++ -*----------------------------------*\
| =========                 |                                                 |
| \\      /  F ield         | OpenFOAM: The Open Source CFD Toolbox           |
|  \\    /   O peration     | Version:  2.4.0                                 |
|   \\  /    A nd           | Web:      www.OpenFOAM.org                      |
|    \\/     M anipulation  |                                                 |
\*---------------------------------------------------------------------------*/
FoamFile
{
    version     2.0;
    format      ascii;
    class       surfaceScalarField;
    location    "0.31";
    object      phi;
}
// * * * * * * * * * * * * * * * * * * * * * * * * * * * * * * * * * * * * * //

dimensions      [0 3 -1 0 0 0 0];

internalField   nonuniform List<scalar> 
17320
(
1.76366e-05
7.36344e-06
1.16164e-05
6.02017e-06
8.68246e-06
2.93393e-06
7.35421e-06
1.32824e-06
6.72061e-06
6.33598e-07
6.3425e-06
3.78111e-07
6.07699e-06
2.65511e-07
5.86664e-06
2.10349e-07
5.71805e-06
1.4859e-07
5.56777e-06
1.5028e-07
5.48858e-06
7.91904e-08
5.386e-06
1.02587e-07
5.29746e-06
8.85367e-08
5.22296e-06
7.45036e-08
5.13911e-06
8.38451e-08
5.02164e-06
1.17472e-07
4.94801e-06
7.36264e-08
4.83878e-06
1.09236e-07
4.58833e-06
2.5045e-07
-2.28256e-07
4.81658e-06
2.54558e-05
6.90763e-06
2.32479e-05
8.2281e-06
2.09878e-05
5.19403e-06
1.9317e-05
2.99902e-06
1.80805e-05
1.87013e-06
1.71104e-05
1.34815e-06
1.63652e-05
1.01072e-06
1.57725e-05
8.03033e-07
1.53161e-05
6.0504e-07
1.49212e-05
5.45172e-07
1.46475e-05
3.52916e-07
1.43635e-05
3.86578e-07
1.41458e-05
3.06208e-07
1.39301e-05
2.90202e-07
1.37325e-05
2.81456e-07
1.34942e-05
3.55776e-07
1.33047e-05
2.63079e-07
1.303e-05
3.83934e-07
1.27692e-05
5.11273e-07
2.79562e-08
1.2513e-05
2.66108e-05
5.2968e-06
2.71604e-05
7.67854e-06
2.67803e-05
5.57411e-06
2.62474e-05
3.53191e-06
2.56111e-05
2.50647e-06
2.48707e-05
2.08849e-06
2.41583e-05
1.72321e-06
2.35041e-05
1.45719e-06
2.29385e-05
1.17062e-06
2.24331e-05
1.05055e-06
2.20536e-05
7.32414e-07
2.1658e-05
7.82173e-07
2.13643e-05
5.99989e-07
2.1062e-05
5.92475e-07
2.0797e-05
5.46443e-07
2.04941e-05
6.58687e-07
2.02606e-05
4.96534e-07
1.98487e-05
7.95854e-07
1.96727e-05
6.87321e-07
6.98809e-07
1.90018e-05
2.63106e-05
3.98619e-06
2.75416e-05
6.44754e-06
2.8087e-05
5.02877e-06
2.84494e-05
3.16952e-06
2.86574e-05
2.29838e-06
2.86238e-05
2.1221e-06
2.84721e-05
1.87498e-06
2.82336e-05
1.69569e-06
2.79727e-05
1.43148e-06
2.76745e-05
1.34874e-06
2.74563e-05
9.50573e-07
2.71448e-05
1.0937e-06
2.69294e-05
8.15434e-07
2.66705e-05
8.51389e-07
2.64289e-05
7.88021e-07
2.61537e-05
9.33861e-07
2.59643e-05
6.85914e-07
2.55005e-05
1.25963e-06
2.51556e-05
1.0323e-06
1.61998e-06
2.42344e-05
2.60411e-05
2.94511e-06
2.72368e-05
5.25178e-06
2.80481e-05
4.21747e-06
2.84915e-05
2.72615e-06
2.89873e-05
1.80257e-06
2.93376e-05
1.77185e-06
2.95775e-05
1.63504e-06
2.97355e-05
1.53768e-06
2.98535e-05
1.31351e-06
2.98808e-05
1.32139e-06
2.99799e-05
8.51547e-07
2.99493e-05
1.12428e-06
2.99581e-05
8.06622e-07
2.99437e-05
8.65822e-07
2.98747e-05
8.57027e-07
2.97802e-05
1.02829e-06
2.97191e-05
7.47061e-07
2.96327e-05
1.34599e-06
2.96582e-05
1.00685e-06
1.28969e-06
2.99885e-05
2.58435e-05
2.10161e-06
2.69372e-05
4.15813e-06
2.78181e-05
3.33649e-06
2.82389e-05
2.30534e-06
2.87224e-05
1.31914e-06
2.91327e-05
1.36147e-06
2.94265e-05
1.34133e-06
2.97057e-05
1.25839e-06
2.99893e-05
1.02995e-06
3.01495e-05
1.16119e-06
3.03939e-05
6.07133e-07
3.05612e-05
9.57023e-07
3.06882e-05
6.79624e-07
3.08659e-05
6.88081e-07
3.09982e-05
7.24746e-07
3.10791e-05
9.4741e-07
3.11546e-05
6.71566e-07
3.14663e-05
1.03425e-06
3.16025e-05
8.70622e-07
9.51061e-07
3.19412e-05
2.56847e-05
1.4169e-06
2.67524e-05
3.09048e-06
2.76126e-05
2.47622e-06
2.80153e-05
1.90263e-06
2.84589e-05
8.75575e-07
2.89088e-05
9.11606e-07
2.92e-05
1.05011e-06
2.94592e-05
9.99143e-07
2.97418e-05
7.47396e-07
2.99963e-05
9.06647e-07
3.02194e-05
3.84035e-07
3.04125e-05
7.63984e-07
3.05618e-05
5.30286e-07
3.08179e-05
4.32005e-07
3.10237e-05
5.18947e-07
3.11409e-05
8.30236e-07
3.12799e-05
5.32536e-07
3.17038e-05
6.10291e-07
3.19773e-05
5.97117e-07
6.67599e-07
3.22608e-05
2.55522e-05
8.64711e-07
2.6617e-05
2.02568e-06
2.74555e-05
1.63775e-06
2.79503e-05
1.40783e-06
2.82803e-05
5.45501e-07
2.86957e-05
4.96198e-07
2.90629e-05
6.82904e-07
2.93172e-05
7.4489e-07
2.95202e-05
5.44352e-07
2.98699e-05
5.56955e-07
3.00422e-05
2.11792e-07
3.02302e-05
5.75922e-07
3.04388e-05
3.21752e-07
3.06557e-05
2.15036e-07
3.07957e-05
3.78978e-07
3.10816e-05
5.44289e-07
3.12185e-05
3.95636e-07
3.1501e-05
3.27794e-07
3.18101e-05
2.88045e-07
2.73122e-07
3.22046e-05
2.54458e-05
4.18926e-07
2.64771e-05
9.94386e-07
2.73426e-05
7.72245e-07
2.79501e-05
8.00305e-07
2.82517e-05
2.43887e-07
2.85435e-05
2.04403e-07
2.88861e-05
3.40286e-07
2.92405e-05
3.90548e-07
2.94675e-05
3.17325e-07
2.97396e-05
2.84846e-07
2.98877e-05
6.3695e-08
3.01706e-05
2.9301e-07
3.04047e-05
8.76633e-08
3.04695e-05
1.50228e-07
3.06592e-05
1.8928e-07
3.10084e-05
1.95109e-07
3.11251e-05
2.7895e-07
3.12875e-05
1.65336e-07
3.1643e-05
-6.73845e-08
-9.69151e-08
3.2013e-05
2.54081e-05
1.08493e-08
2.64647e-05
-6.22721e-08
2.72583e-05
-2.13244e-08
2.78909e-05
1.67659e-07
2.82443e-05
-1.09454e-07
2.85074e-05
-5.8689e-08
2.87743e-05
7.33197e-08
2.9178e-05
-1.31151e-08
2.94443e-05
5.10283e-08
2.96876e-05
4.15251e-08
2.98584e-05
-1.07098e-07
3.01437e-05
7.71479e-09
3.03358e-05
-1.0445e-07
3.04252e-05
6.0838e-08
3.0582e-05
3.24907e-08
3.08954e-05
-1.18285e-07
3.11389e-05
3.54331e-08
3.12988e-05
5.43008e-09
3.15155e-05
-2.84089e-07
-3.59347e-07
3.1778e-05
2.54369e-05
-4.2606e-07
2.64337e-05
-1.05904e-06
2.72667e-05
-8.54311e-07
2.79273e-05
-4.9294e-07
2.81962e-05
-3.78422e-07
2.84854e-05
-3.47856e-07
2.88303e-05
-2.7157e-07
2.91642e-05
-3.47023e-07
2.94051e-05
-1.89828e-07
2.97359e-05
-2.89363e-07
2.99105e-05
-2.8162e-07
3.01027e-05
-1.84484e-07
3.02466e-05
-2.48375e-07
3.0443e-05
-1.35547e-07
3.06238e-05
-1.48366e-07
3.08797e-05
-3.74115e-07
3.11505e-05
-2.35368e-07
3.13686e-05
-2.12748e-07
3.14908e-05
-4.0628e-07
-6.02322e-07
3.17338e-05
2.54648e-05
-8.90909e-07
2.64391e-05
-2.0333e-06
2.73053e-05
-1.7205e-06
2.7967e-05
-1.15466e-06
2.82617e-05
-6.73131e-07
2.85554e-05
-6.41513e-07
2.88614e-05
-5.77612e-07
2.9195e-05
-6.80575e-07
2.95027e-05
-4.9753e-07
2.97649e-05
-5.51558e-07
2.99091e-05
-4.25813e-07
3.01713e-05
-4.46689e-07
3.03117e-05
-3.88768e-07
3.05088e-05
-3.32687e-07
3.07251e-05
-3.64707e-07
3.09028e-05
-5.51745e-07
3.11209e-05
-4.53457e-07
3.14396e-05
-5.31536e-07
3.16842e-05
-6.50816e-07
-7.01991e-07
3.17839e-05
2.55209e-05
-1.41177e-06
2.65892e-05
-3.10159e-06
2.74604e-05
-2.5917e-06
2.80183e-05
-1.71255e-06
2.8339e-05
-9.93908e-07
2.8676e-05
-9.78454e-07
2.89631e-05
-8.64763e-07
2.93152e-05
-1.03268e-06
2.96003e-05
-7.82614e-07
2.98522e-05
-8.03468e-07
3.00461e-05
-6.19717e-07
3.02815e-05
-6.82028e-07
3.0384e-05
-4.9132e-07
3.06276e-05
-5.76307e-07
3.08353e-05
-5.72331e-07
3.10146e-05
-7.31049e-07
3.11888e-05
-6.27711e-07
3.15279e-05
-8.7062e-07
3.17972e-05
-9.20154e-07
-8.39821e-07
3.19351e-05
2.5685e-05
-2.0968e-06
2.67572e-05
-4.1738e-06
2.75882e-05
-3.42262e-06
2.80491e-05
-2.1735e-06
2.8473e-05
-1.41778e-06
2.88345e-05
-1.34e-06
2.91654e-05
-1.19567e-06
2.95049e-05
-1.37215e-06
2.97767e-05
-1.05439e-06
3.00134e-05
-1.04022e-06
3.02075e-05
-8.13756e-07
3.04255e-05
-9.00111e-07
3.05735e-05
-6.39302e-07
3.07826e-05
-7.85392e-07
3.09533e-05
-7.43044e-07
3.11913e-05
-9.69024e-07
3.13472e-05
-7.83575e-07
3.16435e-05
-1.16694e-06
3.18699e-05
-1.14661e-06
-1.12407e-06
3.21542e-05
2.58478e-05
-2.94456e-06
2.6966e-05
-5.29201e-06
2.779e-05
-4.24667e-06
2.8223e-05
-2.60651e-06
2.87095e-05
-1.90424e-06
2.91066e-05
-1.73709e-06
2.94605e-05
-1.5496e-06
2.97344e-05
-1.64609e-06
2.99967e-05
-1.31663e-06
3.01702e-05
-1.21375e-06
3.03662e-05
-1.00971e-06
3.05392e-05
-1.07317e-06
3.06976e-05
-7.97711e-07
3.08452e-05
-9.32921e-07
3.09726e-05
-8.70477e-07
3.10937e-05
-1.09012e-06
3.11907e-05
-8.80577e-07
3.13973e-05
-1.37351e-06
3.15101e-05
-1.2594e-06
-1.39745e-06
3.17834e-05
2.60496e-05
-3.99417e-06
2.72272e-05
-6.46963e-06
2.80054e-05
-5.02484e-06
2.8502e-05
-3.10306e-06
2.8988e-05
-2.39028e-06
2.9328e-05
-2.07709e-06
2.95999e-05
-1.8215e-06
2.97303e-05
-1.77648e-06
2.98548e-05
-1.44114e-06
2.98937e-05
-1.25267e-06
2.99558e-05
-1.07183e-06
2.99428e-05
-1.06014e-06
2.99573e-05
-8.12177e-07
2.99114e-05
-8.87031e-07
2.98675e-05
-8.26552e-07
2.97688e-05
-9.91419e-07
2.96888e-05
-8.00623e-07
2.96099e-05
-1.29456e-06
2.9508e-05
-1.15756e-06
-1.47201e-06
2.95826e-05
2.63121e-05
-5.30624e-06
2.7528e-05
-7.68559e-06
2.8067e-05
-5.56382e-06
2.84645e-05
-3.50054e-06
2.86393e-05
-2.56511e-06
2.86233e-05
-2.06109e-06
2.84879e-05
-1.68606e-06
2.82201e-05
-1.50869e-06
2.79664e-05
-1.1875e-06
2.76894e-05
-9.75656e-07
2.74286e-05
-8.1104e-07
2.71429e-05
-7.74382e-07
2.69182e-05
-5.87544e-07
2.66506e-05
-6.19439e-07
2.64075e-05
-5.83425e-07
2.6118e-05
-7.01909e-07
2.58833e-05
-5.65867e-07
2.55336e-05
-9.44928e-07
2.52751e-05
-8.99074e-07
-1.30673e-06
2.51099e-05
2.66076e-05
-6.91384e-06
2.71508e-05
-8.22882e-06
2.6776e-05
-5.18901e-06
2.62586e-05
-2.98314e-06
2.55935e-05
-1.90001e-06
2.48724e-05
-1.33999e-06
2.41693e-05
-9.8293e-07
2.34922e-05
-8.31623e-07
2.29293e-05
-6.24594e-07
2.24464e-05
-4.92765e-07
2.20316e-05
-3.96197e-07
2.16519e-05
-3.94747e-07
2.13525e-05
-2.88092e-07
2.10442e-05
-3.11163e-07
2.07653e-05
-3.04524e-07
2.04483e-05
-3.84876e-07
2.01876e-05
-3.05188e-07
1.97582e-05
-5.15533e-07
1.93716e-05
-5.12481e-07
-4.59791e-07
1.85247e-05
2.54523e-05
-7.36611e-06
2.32429e-05
-6.01943e-06
2.09867e-05
-2.93283e-06
1.93249e-05
-1.32129e-06
1.80691e-05
-6.44248e-07
1.71092e-05
-3.80098e-07
1.63751e-05
-2.48853e-07
1.57654e-05
-2.21864e-07
1.5303e-05
-1.62215e-07
1.49341e-05
-1.23916e-07
1.46328e-05
-9.4906e-08
1.43518e-05
-1.13686e-07
1.41376e-05
-7.38735e-08
1.39131e-05
-8.6727e-08
1.37003e-05
-9.1721e-08
1.3446e-05
-1.30572e-07
1.32321e-05
-9.12607e-08
1.28904e-05
-1.73803e-07
1.26038e-05
-2.2595e-07
-6.96695e-08
1.22137e-05
1.76339e-05
1.16145e-05
8.68163e-06
7.36034e-06
6.71609e-06
6.33599e-06
6.08714e-06
5.86528e-06
5.70306e-06
5.57915e-06
5.48424e-06
5.37055e-06
5.29668e-06
5.20995e-06
5.11823e-06
4.98766e-06
4.8964e-06
4.7226e-06
4.49665e-06
4.42698e-06
5.47937e-06
1.99879e-07
-8.62666e-07
6.50001e-06
7.58818e-07
-1.77946e-06
7.33247e-06
5.31447e-07
-1.36391e-06
7.84808e-06
7.35232e-08
-5.89128e-07
8.04353e-06
-3.43533e-07
1.48083e-07
8.09564e-06
-6.00675e-07
5.48558e-07
8.05293e-06
-6.81285e-07
7.24e-07
7.97322e-06
-6.48069e-07
7.2778e-07
7.92436e-06
-5.74727e-07
6.23583e-07
7.95907e-06
-4.59844e-07
4.25135e-07
8.06395e-06
-3.41944e-07
2.37068e-07
8.21881e-06
-2.50082e-07
9.52137e-08
8.42429e-06
-1.71088e-07
-3.43883e-08
8.61855e-06
-1.52556e-07
-4.17091e-08
8.78807e-06
-1.73296e-07
3.7774e-09
8.94039e-06
-1.98387e-07
4.60706e-08
9.09333e-06
-2.08688e-07
5.57454e-08
9.24049e-06
-1.98943e-07
5.17843e-08
9.39822e-06
-1.76855e-07
1.91301e-08
9.56398e-06
-1.53439e-07
-1.23245e-08
9.72385e-06
-1.44432e-07
-1.5439e-08
9.86988e-06
-1.5463e-07
8.60561e-09
1.00077e-05
-2.21317e-07
8.34823e-08
1.01217e-05
-3.03506e-07
1.89555e-07
1.02054e-05
-4.00734e-07
3.16962e-07
1.02754e-05
-5.06989e-07
4.36987e-07
1.03002e-05
-6.10082e-07
5.85363e-07
1.02939e-05
-6.8878e-07
6.95023e-07
1.02145e-05
-7.66485e-07
8.45878e-07
1.00724e-05
-8.51793e-07
9.93955e-07
9.87933e-06
-8.53724e-07
1.04675e-06
9.63549e-06
-7.88567e-07
1.0324e-06
9.41046e-06
-6.65602e-07
8.90639e-07
9.20231e-06
-4.07185e-07
6.15334e-07
9.05046e-06
-5.40782e-08
2.05923e-07
9.09596e-06
3.38888e-07
-3.84386e-07
9.45088e-06
8.16778e-07
-1.17169e-06
9.98986e-06
1.36549e-06
-1.90447e-06
1.07779e-05
1.70538e-06
-2.49341e-06
1.18604e-05
1.94681e-06
-3.02931e-06
1.30295e-05
2.35954e-06
-3.52871e-06
1.4088e-05
2.46329e-06
-3.52176e-06
1.4954e-05
2.01534e-06
-2.8813e-06
1.56347e-05
1.63478e-06
-2.31554e-06
1.61386e-05
1.32341e-06
-1.82729e-06
1.65118e-05
7.82118e-07
-1.15533e-06
1.6845e-05
2.16656e-07
-5.49861e-07
1.71349e-05
-8.72093e-08
-2.02642e-07
1.7321e-05
-5.39636e-07
3.53516e-07
1.7438e-05
-1.01609e-06
8.99083e-07
1.75588e-05
-1.30112e-06
1.18031e-06
1.77357e-05
-1.79947e-06
1.62263e-06
1.78506e-05
-2.18319e-06
2.06823e-06
1.79869e-05
-2.49618e-06
2.35992e-06
1.82308e-05
-2.95304e-06
2.70909e-06
1.84939e-05
-3.27444e-06
3.01138e-06
1.88397e-05
-3.64964e-06
3.30381e-06
1.93736e-05
-3.94852e-06
3.41468e-06
1.99535e-05
-4.26065e-06
3.68074e-06
2.0608e-05
-4.6226e-06
3.96804e-06
2.1418e-05
-4.85904e-06
4.04904e-06
2.22549e-05
-5.16852e-06
4.3317e-06
2.31336e-05
-5.43012e-06
4.55141e-06
2.40994e-05
-5.73231e-06
4.76645e-06
2.50539e-05
-6.00486e-06
5.05037e-06
2.59816e-05
-6.23121e-06
5.30349e-06
2.68412e-05
-6.61426e-06
5.75466e-06
2.76421e-05
-6.73659e-06
5.93575e-06
2.84054e-05
-7.10701e-06
6.34369e-06
2.90446e-05
-7.317e-06
6.67784e-06
2.96227e-05
-7.41618e-06
6.83802e-06
3.00434e-05
-7.64282e-06
7.22214e-06
3.03682e-05
-7.61978e-06
7.29494e-06
3.05827e-05
-7.64325e-06
7.42881e-06
3.06578e-05
-7.52722e-06
7.45209e-06
3.06515e-05
-7.26717e-06
7.27351e-06
3.06224e-05
-6.95516e-06
6.98418e-06
3.05278e-05
-6.46914e-06
6.56379e-06
3.04468e-05
-5.90073e-06
5.98173e-06
3.03511e-05
-5.22129e-06
5.31692e-06
3.03461e-05
-4.58153e-06
4.58656e-06
3.03278e-05
-3.69654e-06
3.71483e-06
3.04007e-05
-2.95937e-06
2.8865e-06
3.05119e-05
-2.14044e-06
2.02927e-06
3.06737e-05
-1.31291e-06
1.15104e-06
3.08998e-05
-6.66636e-07
4.40533e-07
3.11738e-05
9.23151e-09
-2.83232e-07
3.14384e-05
4.68919e-07
-7.33459e-07
3.16892e-05
8.15126e-07
-1.0659e-06
3.19496e-05
8.95136e-07
-1.15555e-06
3.21356e-05
8.88035e-07
-1.07409e-06
3.22468e-05
6.81777e-07
-7.92924e-07
3.23672e-05
3.24097e-07
-4.44482e-07
3.23487e-05
-1.63253e-07
1.81755e-07
3.22634e-05
-8.88925e-07
9.74161e-07
3.21234e-05
-1.62617e-06
1.76623e-06
3.18595e-05
-2.50496e-06
2.76883e-06
3.15154e-05
-3.36103e-06
3.70518e-06
3.11012e-05
-4.37337e-06
4.78754e-06
3.06054e-05
-5.31231e-06
5.80806e-06
3.00012e-05
-6.31028e-06
6.91452e-06
2.92376e-05
-7.20567e-06
7.96926e-06
2.84137e-05
-8.10672e-06
8.93064e-06
2.74877e-05
-8.99447e-06
9.9205e-06
2.64881e-05
-9.66586e-06
1.06655e-05
2.55714e-05
-1.05074e-05
1.14241e-05
2.48306e-05
-1.11864e-05
1.19272e-05
2.43105e-05
-1.19383e-05
1.24584e-05
2.41127e-05
-1.27384e-05
1.29362e-05
2.39766e-05
-1.35052e-05
1.36413e-05
2.39518e-05
-1.42149e-05
1.42398e-05
2.39084e-05
-1.4784e-05
1.48274e-05
2.36463e-05
-1.50265e-05
1.52886e-05
2.30141e-05
-1.49353e-05
1.55675e-05
2.19809e-05
-1.43783e-05
1.54115e-05
2.05776e-05
-1.35939e-05
1.49972e-05
1.87604e-05
-1.26365e-05
1.44537e-05
1.65834e-05
-1.14881e-05
1.36651e-05
1.41667e-05
-1.03173e-05
1.2734e-05
1.22511e-05
-1.01231e-05
1.20387e-05
1.14124e-05
-1.10512e-05
1.18899e-05
1.17371e-05
-1.26041e-05
1.22794e-05
1.26823e-05
-1.40078e-05
1.30626e-05
1.38743e-05
-1.478e-05
1.3588e-05
1.50372e-05
-1.48575e-05
1.36945e-05
1.61323e-05
-1.46147e-05
1.35197e-05
1.71552e-05
-1.36066e-05
1.25837e-05
1.82359e-05
-1.25141e-05
1.14335e-05
1.91768e-05
-1.09852e-05
1.00443e-05
1.98716e-05
-8.90873e-06
8.21393e-06
2.03139e-05
-6.76802e-06
6.32571e-06
2.04688e-05
-4.66915e-06
4.51427e-06
2.04402e-05
-2.42481e-06
2.45337e-06
2.00342e-05
-9.34983e-07
1.34104e-06
1.96093e-05
7.41588e-07
-3.16769e-07
1.93919e-05
2.0173e-06
-1.79989e-06
1.94976e-05
2.86839e-06
-2.97409e-06
2.01288e-05
4.68212e-06
-5.31325e-06
2.09122e-05
6.81578e-06
-7.59924e-06
2.19942e-05
8.9023e-06
-9.98426e-06
2.29539e-05
1.20122e-05
-1.29719e-05
2.3331e-05
1.46399e-05
-1.50169e-05
2.37008e-05
1.65115e-05
-1.68813e-05
2.34316e-05
1.82898e-05
-1.80207e-05
2.25857e-05
1.83758e-05
-1.75299e-05
2.15875e-05
1.79287e-05
-1.69304e-05
2.06251e-05
1.73858e-05
-1.64234e-05
1.99643e-05
1.6142e-05
-1.54812e-05
1.91472e-05
1.49445e-05
-1.41274e-05
1.87721e-05
1.41509e-05
-1.37758e-05
1.84798e-05
1.42455e-05
-1.39532e-05
1.81059e-05
1.38959e-05
-1.3522e-05
1.78678e-05
1.33395e-05
-1.31014e-05
1.76332e-05
1.32765e-05
-1.30419e-05
1.76705e-05
1.33998e-05
-1.34371e-05
1.76195e-05
1.37499e-05
-1.3699e-05
1.75869e-05
1.33276e-05
-1.3295e-05
1.77796e-05
1.2829e-05
-1.30217e-05
1.8029e-05
1.33688e-05
-1.36182e-05
1.8366e-05
1.41101e-05
-1.44471e-05
1.86105e-05
1.50957e-05
-1.53402e-05
1.86764e-05
1.58625e-05
-1.59284e-05
1.79306e-05
1.58138e-05
-1.50679e-05
1.65297e-05
1.45611e-05
-1.31603e-05
1.55495e-05
1.29827e-05
-1.20024e-05
1.51593e-05
1.231e-05
-1.19198e-05
1.54373e-05
1.19048e-05
-1.21828e-05
1.60816e-05
1.20043e-05
-1.26487e-05
1.67171e-05
1.14759e-05
-1.21113e-05
1.70766e-05
1.12303e-05
-1.15897e-05
1.74639e-05
1.02508e-05
-1.06382e-05
1.76539e-05
9.77592e-06
-9.96594e-06
1.78399e-05
8.7752e-06
-8.9612e-06
1.80018e-05
7.92414e-06
-8.086e-06
1.82183e-05
6.47593e-06
-6.69245e-06
1.74492e-05
6.10085e-06
-5.33179e-06
1.74949e-05
3.90667e-06
-3.95235e-06
1.73748e-05
3.58856e-06
-3.4684e-06
1.76526e-05
1.63994e-06
-1.91783e-06
1.68534e-05
2.22949e-06
-1.43023e-06
1.59784e-05
4.43279e-07
4.31674e-07
1.44546e-05
7.65885e-07
7.57945e-07
1.45641e-05
-2.48179e-06
2.37225e-06
1.37637e-05
-3.80953e-07
1.18143e-06
1.49279e-05
-3.30716e-06
2.14289e-06
1.3679e-05
3.59935e-07
8.8895e-07
1.41447e-05
-2.43892e-06
1.97325e-06
1.26663e-05
2.91437e-08
1.44932e-06
1.3941e-05
-3.21031e-06
1.93558e-06
1.29915e-05
4.5512e-07
4.94411e-07
1.39513e-05
-2.65672e-06
1.6969e-06
1.34123e-05
3.85027e-07
1.53903e-07
1.43132e-05
-1.18197e-06
2.81132e-07
1.33247e-05
2.14675e-06
-1.15828e-06
1.29145e-05
6.72418e-07
-2.62258e-07
1.19345e-05
4.00402e-06
-3.02402e-06
1.22329e-05
3.061e-06
-3.35932e-06
1.18019e-05
9.17322e-06
-8.74225e-06
1.46189e-05
8.71191e-06
-1.15289e-05
2.13408e-05
-2.08915e-05
1.41696e-05
1.26595e-05
5.34191e-08
1.31592e-05
2.59043e-07
1.34881e-05
2.02553e-07
1.36958e-05
-1.34103e-07
1.38341e-05
-4.81905e-07
1.3942e-05
-7.08552e-07
1.401e-05
-7.49223e-07
1.40423e-05
-6.80408e-07
1.4078e-05
-6.10412e-07
1.41333e-05
-5.1513e-07
1.42118e-05
-4.20463e-07
1.43151e-05
-3.53356e-07
1.4444e-05
-3.00073e-07
1.45684e-05
-2.7688e-07
1.46821e-05
-2.87011e-07
1.47867e-05
-3.02988e-07
1.49017e-05
-3.23739e-07
1.5019e-05
-3.16254e-07
1.51408e-05
-2.98614e-07
1.52689e-05
-2.81535e-07
1.53886e-05
-2.64099e-07
1.55053e-05
-2.71342e-07
1.55961e-05
-3.12175e-07
1.56767e-05
-3.84089e-07
1.57352e-05
-4.592e-07
1.57839e-05
-5.55743e-07
1.58105e-05
-6.36618e-07
1.58108e-05
-6.89073e-07
1.57761e-05
-7.31856e-07
1.56711e-05
-7.46783e-07
1.553e-05
-7.12615e-07
1.53726e-05
-6.31168e-07
1.51518e-05
-4.4483e-07
1.49904e-05
-2.45691e-07
1.48589e-05
7.7377e-08
1.47522e-05
4.4558e-07
1.47761e-05
7.92885e-07
1.49739e-05
1.1677e-06
1.52223e-05
1.45694e-06
1.55631e-05
1.60599e-06
1.61455e-05
1.77718e-06
1.68574e-05
1.75139e-06
1.73651e-05
1.50767e-06
1.78043e-05
1.19555e-06
1.83265e-05
8.01239e-07
1.87019e-05
4.06653e-07
1.89514e-05
-3.27967e-08
1.92762e-05
-4.11991e-07
1.96286e-05
-8.92053e-07
1.99117e-05
-1.29915e-06
2.0223e-05
-1.61241e-06
2.06328e-05
-2.20929e-06
2.1023e-05
-2.57347e-06
2.14583e-05
-2.93143e-06
2.19773e-05
-3.47207e-06
2.25395e-05
-3.83665e-06
2.31122e-05
-4.22226e-06
2.37762e-05
-4.61259e-06
2.44772e-05
-4.96159e-06
2.51693e-05
-5.31468e-06
2.59244e-05
-5.61417e-06
2.66772e-05
-5.92131e-06
2.74406e-05
-6.19356e-06
2.81991e-05
-6.49083e-06
2.88938e-05
-6.69948e-06
2.95514e-05
-6.8889e-06
3.01564e-05
-7.21917e-06
3.07321e-05
-7.31233e-06
3.11313e-05
-7.50619e-06
3.14783e-05
-7.66405e-06
3.17617e-05
-7.69957e-06
3.18777e-05
-7.75876e-06
3.19489e-05
-7.69105e-06
3.19309e-05
-7.62521e-06
3.17907e-05
-7.38705e-06
3.16675e-05
-7.14397e-06
3.14786e-05
-6.7662e-06
3.12911e-05
-6.28167e-06
3.10954e-05
-5.70503e-06
3.09062e-05
-5.03207e-06
3.07723e-05
-4.44769e-06
3.07064e-05
-3.63062e-06
3.07478e-05
-3.00077e-06
3.08609e-05
-2.25359e-06
3.10133e-05
-1.46524e-06
3.12287e-05
-8.82035e-07
3.14656e-05
-2.27679e-07
3.1679e-05
2.55544e-07
3.19334e-05
5.60738e-07
3.21199e-05
7.08554e-07
3.22432e-05
7.64798e-07
3.23518e-05
5.73107e-07
3.23629e-05
3.13018e-07
3.23041e-05
-1.04463e-07
3.20999e-05
-6.84681e-07
3.1842e-05
-1.36825e-06
3.14215e-05
-2.08447e-06
3.09545e-05
-2.89408e-06
3.03953e-05
-3.8141e-06
2.97275e-05
-4.6445e-06
2.89223e-05
-5.50514e-06
2.80588e-05
-6.34219e-06
2.71176e-05
-7.1655e-06
2.6153e-05
-8.02984e-06
2.53131e-05
-8.82599e-06
2.466e-05
-9.85426e-06
2.4218e-05
-1.07444e-05
2.39332e-05
-1.16535e-05
2.38456e-05
-1.26508e-05
2.37244e-05
-1.3384e-05
2.35832e-05
-1.40738e-05
2.32002e-05
-1.44009e-05
2.24772e-05
-1.43036e-05
2.12753e-05
-1.37334e-05
1.96323e-05
-1.27353e-05
1.75599e-05
-1.15216e-05
1.49281e-05
-1.00047e-05
1.19003e-05
-8.46032e-06
9.36232e-06
-7.77925e-06
8.2017e-06
-8.96248e-06
8.31698e-06
-1.11665e-05
9.22887e-06
-1.3516e-05
1.02082e-05
-1.49871e-05
1.12026e-05
-1.57744e-05
1.21176e-05
-1.57725e-05
1.30196e-05
-1.55167e-05
1.41953e-05
-1.47823e-05
1.5329e-05
-1.36478e-05
1.63251e-05
-1.19814e-05
1.71794e-05
-9.76296e-06
1.80157e-05
-7.60435e-06
1.84736e-05
-5.12706e-06
1.87931e-05
-2.74434e-06
1.8493e-05
-6.34867e-07
1.80354e-05
1.19924e-06
1.74754e-05
2.57728e-06
1.70915e-05
3.25227e-06
1.73251e-05
4.44855e-06
1.81248e-05
6.01608e-06
1.89984e-05
8.0287e-06
2.01716e-05
1.08389e-05
2.09251e-05
1.38864e-05
2.12663e-05
1.61703e-05
2.14406e-05
1.81156e-05
2.11173e-05
1.86991e-05
2.04482e-05
1.85977e-05
1.9448e-05
1.8386e-05
1.86962e-05
1.68938e-05
1.82032e-05
1.54375e-05
1.77305e-05
1.46235e-05
1.74069e-05
1.45691e-05
1.70225e-05
1.42803e-05
1.70763e-05
1.32858e-05
1.71828e-05
1.317e-05
1.70558e-05
1.35268e-05
1.70104e-05
1.37953e-05
1.68056e-05
1.35324e-05
1.68348e-05
1.27998e-05
1.72148e-05
1.29888e-05
1.78574e-05
1.34676e-05
1.85111e-05
1.44419e-05
1.88404e-05
1.55332e-05
1.87014e-05
1.59528e-05
1.78596e-05
1.54029e-05
1.68995e-05
1.39427e-05
1.62346e-05
1.29749e-05
1.61714e-05
1.1968e-05
1.66092e-05
1.15665e-05
1.7164e-05
1.09211e-05
1.75978e-05
1.07964e-05
1.8142e-05
9.70665e-06
1.8657e-05
9.2609e-06
1.94389e-05
7.99333e-06
1.94163e-05
7.94671e-06
1.96687e-05
6.22358e-06
1.90633e-05
6.7062e-06
1.93021e-05
3.66787e-06
1.83152e-05
4.57552e-06
1.88736e-05
1.08156e-06
1.84165e-05
2.68654e-06
1.9546e-05
-6.86229e-07
1.79221e-05
2.38978e-06
1.80329e-05
-2.59252e-06
1.63363e-05
1.31564e-06
1.80526e-05
-5.02352e-06
1.69968e-05
1.41581e-06
1.88838e-05
-4.32596e-06
1.71722e-05
1.74078e-06
1.81657e-05
-4.20387e-06
1.68614e-05
1.75948e-06
1.83599e-05
-4.15525e-06
1.66853e-05
2.05964e-06
1.81306e-05
-2.62725e-06
1.68945e-05
3.38284e-06
1.8191e-05
-6.241e-07
1.56042e-05
6.59082e-06
1.73519e-05
1.31324e-06
1.47267e-05
1.17985e-05
2.01836e-05
3.25492e-06
1.96756e-05
2.18488e-05
1.91558e-05
-1.00584e-07
1.9571e-05
-1.56151e-07
1.99437e-05
-1.70094e-07
2.01742e-05
-3.64616e-07
2.02319e-05
-5.39655e-07
2.02266e-05
-7.03255e-07
2.02426e-05
-7.65224e-07
2.02938e-05
-7.31584e-07
2.03694e-05
-6.85986e-07
2.04136e-05
-5.59374e-07
2.04543e-05
-4.6112e-07
2.04909e-05
-3.90021e-07
2.05274e-05
-3.36555e-07
2.05888e-05
-3.38281e-07
2.06577e-05
-3.55894e-07
2.07357e-05
-3.8095e-07
2.08336e-05
-4.21621e-07
2.09323e-05
-4.1501e-07
2.1023e-05
-3.89354e-07
2.11212e-05
-3.79723e-07
2.11942e-05
-3.37056e-07
2.12697e-05
-3.46825e-07
2.1324e-05
-3.66501e-07
2.13559e-05
-4.15959e-07
2.13861e-05
-4.89408e-07
2.13826e-05
-5.52296e-07
2.13896e-05
-6.43571e-07
2.13601e-05
-6.59572e-07
2.13113e-05
-6.83046e-07
2.12316e-05
-6.6715e-07
2.10939e-05
-5.7483e-07
2.0964e-05
-5.01306e-07
2.08082e-05
-2.89087e-07
2.06677e-05
-1.05143e-07
2.0571e-05
1.74097e-07
2.05202e-05
4.96322e-07
2.05207e-05
7.92451e-07
2.06102e-05
1.07821e-06
2.07622e-05
1.30487e-06
2.09637e-05
1.40448e-06
2.1234e-05
1.50689e-06
2.15779e-05
1.40753e-06
2.19456e-05
1.13998e-06
2.22446e-05
8.96556e-07
2.25453e-05
5.00555e-07
2.28557e-05
9.62344e-08
2.31772e-05
-3.54322e-07
2.34903e-05
-7.25036e-07
2.38217e-05
-1.22352e-06
2.41894e-05
-1.66687e-06
2.46136e-05
-2.03656e-06
2.50208e-05
-2.61649e-06
2.54637e-05
-3.01641e-06
2.59924e-05
-3.46011e-06
2.64988e-05
-3.97849e-06
2.70252e-05
-4.36297e-06
2.75724e-05
-4.76954e-06
2.81526e-05
-5.19273e-06
2.87199e-05
-5.52897e-06
2.92585e-05
-5.85324e-06
2.9793e-05
-6.14867e-06
3.03516e-05
-6.47994e-06
3.08544e-05
-6.69635e-06
3.12424e-05
-6.87879e-06
3.16927e-05
-7.14982e-06
3.20663e-05
-7.26246e-06
3.22538e-05
-7.40669e-06
3.25208e-05
-7.57934e-06
3.26119e-05
-7.5973e-06
3.26403e-05
-7.69244e-06
3.26608e-05
-7.72008e-06
3.25288e-05
-7.62672e-06
3.2403e-05
-7.56526e-06
3.22092e-05
-7.43141e-06
3.19754e-05
-7.15325e-06
3.17445e-05
-6.9131e-06
3.14375e-05
-6.45918e-06
3.11734e-05
-6.01753e-06
3.09143e-05
-5.44592e-06
3.07188e-05
-4.83657e-06
3.0579e-05
-4.30795e-06
3.05109e-05
-3.56244e-06
3.05299e-05
-3.01987e-06
3.05875e-05
-2.31115e-06
3.07412e-05
-1.61897e-06
3.08808e-05
-1.02159e-06
3.10984e-05
-4.4525e-07
3.12474e-05
1.06487e-07
3.14257e-05
3.82514e-07
3.1543e-05
5.91248e-07
3.16165e-05
6.91293e-07
3.16354e-05
5.5415e-07
3.15603e-05
3.88096e-07
3.1422e-05
3.39147e-08
3.11544e-05
-4.17078e-07
3.07438e-05
-9.57665e-07
3.029e-05
-1.63074e-06
2.97518e-05
-2.35588e-06
2.90576e-05
-3.11984e-06
2.83351e-05
-3.92199e-06
2.75213e-05
-4.69133e-06
2.67096e-05
-5.53052e-06
2.59005e-05
-6.35644e-06
2.5189e-05
-7.31828e-06
2.46365e-05
-8.27356e-06
2.42339e-05
-9.45164e-06
2.39466e-05
-1.04571e-05
2.37457e-05
-1.14526e-05
2.35171e-05
-1.24221e-05
2.31833e-05
-1.30503e-05
2.27871e-05
-1.36775e-05
2.20209e-05
-1.36347e-05
2.07065e-05
-1.29891e-05
1.88626e-05
-1.18895e-05
1.65903e-05
-1.0463e-05
1.37691e-05
-8.70037e-06
1.04959e-05
-6.73145e-06
7.34211e-06
-5.30656e-06
5.60932e-06
-6.04646e-06
5.15687e-06
-8.51003e-06
5.45684e-06
-1.14664e-05
5.89278e-06
-1.3952e-05
6.57496e-06
-1.56693e-05
7.43272e-06
-1.66321e-05
8.30917e-06
-1.66489e-05
9.4614e-06
-1.6669e-05
1.07407e-05
-1.60616e-05
1.1887e-05
-1.47941e-05
1.2978e-05
-1.30723e-05
1.4081e-05
-1.0866e-05
1.50454e-05
-8.56879e-06
1.58315e-05
-5.91317e-06
1.63487e-05
-3.26148e-06
1.65376e-05
-8.23779e-07
1.63847e-05
1.35213e-06
1.58938e-05
3.06816e-06
1.52757e-05
3.87038e-06
1.49269e-05
4.7974e-06
1.52608e-05
5.68209e-06
1.60838e-05
7.20575e-06
1.71112e-05
9.81147e-06
1.81662e-05
1.28314e-05
1.9049e-05
1.52876e-05
1.9337e-05
1.78276e-05
1.91594e-05
1.88767e-05
1.90523e-05
1.87049e-05
1.85237e-05
1.89145e-05
1.7521e-05
1.78966e-05
1.70132e-05
1.59452e-05
1.66192e-05
1.50176e-05
1.63772e-05
1.48111e-05
1.60031e-05
1.46545e-05
1.54489e-05
1.384e-05
1.55285e-05
1.30904e-05
1.57801e-05
1.32752e-05
1.61061e-05
1.34692e-05
1.60156e-05
1.3623e-05
1.60141e-05
1.28012e-05
1.65405e-05
1.24625e-05
1.72235e-05
1.27845e-05
1.82342e-05
1.34313e-05
1.90855e-05
1.46818e-05
1.98086e-05
1.52298e-05
1.96827e-05
1.55288e-05
1.9043e-05
1.45824e-05
1.83645e-05
1.36535e-05
1.78128e-05
1.25196e-05
1.76867e-05
1.16927e-05
1.80447e-05
1.05631e-05
1.83587e-05
1.04825e-05
1.87001e-05
9.3652e-06
1.89122e-05
9.04881e-06
1.97107e-05
7.19478e-06
1.97286e-05
7.92883e-06
2.06386e-05
5.31357e-06
2.03448e-05
7.00003e-06
2.07135e-05
3.29921e-06
1.94329e-05
5.85613e-06
2.02737e-05
2.40726e-07
1.95745e-05
3.38576e-06
2.11849e-05
-2.29662e-06
2.05966e-05
2.97808e-06
2.13911e-05
-3.38702e-06
1.9877e-05
2.82965e-06
2.12897e-05
-6.43622e-06
2.02856e-05
2.41999e-06
2.27657e-05
-6.80614e-06
2.14992e-05
3.00734e-06
2.36585e-05
-6.36316e-06
2.14831e-05
3.93486e-06
2.3845e-05
-6.51722e-06
2.17745e-05
4.13014e-06
2.47636e-05
-5.61627e-06
2.19221e-05
6.22432e-06
2.54006e-05
-4.10259e-06
2.2861e-05
9.13036e-06
2.51859e-05
-1.01167e-06
2.30472e-05
1.39372e-05
2.26264e-05
3.67581e-06
1.62514e-05
2.60506e-05
2.45524e-05
-4.18599e-07
2.51402e-05
-7.43943e-07
2.56339e-05
-6.63789e-07
2.58428e-05
-5.73549e-07
2.58283e-05
-5.25128e-07
2.57332e-05
-6.08115e-07
2.56433e-05
-6.75409e-07
2.56136e-05
-7.01873e-07
2.56677e-05
-7.40073e-07
2.57292e-05
-6.20894e-07
2.57894e-05
-5.21248e-07
2.58363e-05
-4.36957e-07
2.58399e-05
-3.4013e-07
2.58415e-05
-3.39918e-07
2.5832e-05
-3.46364e-07
2.58422e-05
-3.91177e-07
2.5887e-05
-4.66397e-07
2.59599e-05
-4.8794e-07
2.60571e-05
-4.86492e-07
2.61495e-05
-4.72198e-07
2.62338e-05
-4.2135e-07
2.62795e-05
-3.92488e-07
2.63089e-05
-3.95942e-07
2.6285e-05
-3.92056e-07
2.62596e-05
-4.63959e-07
2.6201e-05
-4.93691e-07
2.61469e-05
-5.89498e-07
2.61096e-05
-6.22238e-07
2.60469e-05
-6.20383e-07
2.59926e-05
-6.12814e-07
2.59218e-05
-5.04033e-07
2.58186e-05
-3.98154e-07
2.57273e-05
-1.9772e-07
2.56231e-05
-1.03646e-09
2.55264e-05
2.70867e-07
2.55139e-05
5.08831e-07
2.55325e-05
7.73822e-07
2.56129e-05
9.97771e-07
2.5776e-05
1.14185e-06
2.59685e-05
1.21198e-06
2.62358e-05
1.23956e-06
2.65014e-05
1.14189e-06
2.67681e-05
8.73284e-07
2.70578e-05
6.0684e-07
2.72902e-05
2.68141e-07
2.75439e-05
-1.57393e-07
2.78295e-05
-6.39983e-07
2.80973e-05
-9.92828e-07
2.83895e-05
-1.51566e-06
2.86941e-05
-1.97154e-06
2.90485e-05
-2.39091e-06
2.93647e-05
-2.93272e-06
2.97377e-05
-3.38941e-06
3.01179e-05
-3.84032e-06
3.04611e-05
-4.32165e-06
3.08329e-05
-4.73478e-06
3.11958e-05
-5.1325e-06
3.15283e-05
-5.52518e-06
3.18333e-05
-5.83396e-06
3.21525e-05
-6.17243e-06
3.24121e-05
-6.40827e-06
3.26203e-05
-6.68812e-06
3.28312e-05
-6.90728e-06
3.29262e-05
-6.97382e-06
3.30169e-05
-7.24051e-06
3.30132e-05
-7.25878e-06
3.29307e-05
-7.32414e-06
3.28601e-05
-7.5087e-06
3.27005e-05
-7.43775e-06
3.25238e-05
-7.51576e-06
3.23487e-05
-7.54498e-06
3.21305e-05
-7.40847e-06
3.1953e-05
-7.38775e-06
3.17109e-05
-7.18939e-06
3.14862e-05
-6.92851e-06
3.1239e-05
-6.6659e-06
3.10089e-05
-6.22911e-06
3.0797e-05
-5.80564e-06
3.06588e-05
-5.3077e-06
3.05846e-05
-4.76232e-06
3.04801e-05
-4.20348e-06
3.04957e-05
-3.57806e-06
3.04787e-05
-3.00286e-06
3.05048e-05
-2.33727e-06
3.0616e-05
-1.73011e-06
3.07081e-05
-1.11375e-06
3.08179e-05
-5.55028e-07
3.0952e-05
-2.76131e-08
3.10102e-05
3.24301e-07
3.10132e-05
5.88217e-07
3.10113e-05
6.93253e-07
3.08942e-05
6.71254e-07
3.07123e-05
5.69998e-07
3.049e-05
2.56195e-07
3.01185e-05
-4.5599e-08
2.96871e-05
-5.26264e-07
2.91761e-05
-1.1197e-06
2.85948e-05
-1.77462e-06
2.79653e-05
-2.49034e-06
2.72739e-05
-3.23056e-06
2.66137e-05
-4.03119e-06
2.59558e-05
-4.87256e-06
2.5349e-05
-5.74964e-06
2.4811e-05
-6.78031e-06
2.44107e-05