/*--------------------------------*- C++ -*----------------------------------*\
| =========                 |                                                 |
| \\      /  F ield         | OpenFOAM: The Open Source CFD Toolbox           |
|  \\    /   O peration     | Version:  2.4.0                                 |
|   \\  /    A nd           | Web:      www.OpenFOAM.org                      |
|    \\/     M anipulation  |                                                 |
\*---------------------------------------------------------------------------*/
FoamFile
{
    version     2.0;
    format      ascii;
    class       volScalarField;
    location    "0.31";
    object      pMean;
}
// * * * * * * * * * * * * * * * * * * * * * * * * * * * * * * * * * * * * * //

dimensions      [0 2 -2 0 0 0 0];

internalField   nonuniform List<scalar> 
8800
(
99.841
87.2935
79.738
76.0659
74.0303
72.4793
71.1194
69.8458
68.6555
67.4961
66.3791
65.2648
64.1866
63.1173
62.0923
61.0928
60.1373
59.2199
58.3119
57.2427
96.7467
86.9403
79.9052
76.1787
74.0893
72.5043
71.1267
69.846
68.6535
67.4936
66.3765
65.2625
64.1844
63.1152
62.0912
61.0896
60.1407
59.2194
58.3194
57.3208
94.7919
87.0136
80.5013
76.5501
74.2551
72.5823
71.1725
69.8777
68.6767
67.51
66.3861
65.2672
64.1857
63.1133
62.089
61.0821
60.1407
59.2115
58.3937
57.4057
93.264
87.072
81.0826
76.9685
74.4369
72.6686
71.2346
69.9332
68.7244
67.5476
66.4125
65.2843
64.1955
63.1173
62.0886
61.0756
60.1298
59.2034
58.44
57.6389
92.0216
87.0428
81.5549
77.3699
74.6041
72.7349
71.2831
69.9899
68.7799
67.5977
66.4475
65.311
64.2086
63.1267
62.086
61.0727
60.1074
59.1892
58.3829
57.9929
91.0422
86.9453
81.919
77.7136
74.7548
72.7792
71.3117
70.0351
68.83
67.6467
66.4832
65.3385
64.2215
63.1354
62.0825
61.0679
60.0876
59.1809
58.4117
58.4375
90.2898
86.8314
82.1855
77.9918
74.8918
72.8079
71.3223
70.0682
68.8711
67.6878
66.515
65.3616
64.2334
63.1405
62.0802
61.0608
60.0798
59.1898
58.5081
58.7662
89.7426
86.7305
82.3681
78.2019
75.0141
72.8268
71.3213
70.0903
68.9022
67.7194
66.5399
65.379
64.2425
63.1434
62.0794
61.0586
60.0838
59.2148
58.608
59.0114
89.3876
86.6551
82.4822
78.3437
75.1002
72.8384
71.3175
70.1031
68.9236
67.7416
66.5575
65.3907
64.249
63.1459
62.0808
61.0619
60.0963
59.2464
58.6983
59.1939
89.214
86.614
82.5379
78.4151
75.144
72.8441
71.315
70.1088
68.9351
67.7533
66.5672
65.3971
64.2537
63.1497
62.0863
61.071
60.1146
59.2803
58.7733
59.3265
89.2135
86.6146
82.5378
78.4153
75.1439
72.8444
71.3149
70.1092
68.9354
67.7542
66.5683
65.3991
64.2567
63.155
62.0949
61.0851
60.1359
59.3152
58.8277
59.4154
89.3869
86.6561
82.4823
78.3442
75.1004
72.8388
71.3176
70.1038
68.9251
67.7441
66.5611
65.3963
64.2583
63.1617
62.1069
61.1034
60.1609
59.3491
58.8633
59.4604
89.7413
86.7322
82.368
78.2027
75.0147
72.8276
71.3216
70.0916
68.9046
67.7239
66.546
65.3885
64.2578
63.1693
62.1219
61.1267
60.1909
59.3844
58.8792
59.4519
90.2877
86.8339
82.1851
77.9928
74.8922
72.8093
71.3223
70.0704
68.8744
67.694
66.5233
65.3752
64.2546
63.1767
62.1383
61.155
60.2273
59.4265
58.8806
59.3721
91.0401
86.948
81.9188
77.7143
74.7552
72.7806
71.3129
70.0376
68.8345
67.6541
66.4944
65.3557
64.2492
63.1806
62.1556
61.1845
60.2724
59.4774
58.8944
59.2108
92.0187
87.0462
81.5551
77.3707
74.6043
72.7365
71.285
69.9928
68.7853
67.6063
66.461
65.3318
64.2422
63.1808
62.1726
61.2116
60.3239
59.5369
58.9366
58.9876
93.2605
87.0758
81.0831
76.9698
74.4369
72.6705
71.2366
69.937
68.7304
67.5576
66.428
65.3085
64.2346
63.1787
62.1872
61.2329
60.3737
59.5929
59.0043
58.7457
94.7884
87.0169
80.5026
76.5514
74.2552
72.5842
71.1751
69.8818
68.6838
67.5205
66.4037
65.2928
64.2297
63.1787
62.1982
61.249
60.4096
59.6356
59.0669
58.615
96.7433
86.943
79.9069
76.1801
74.0896
72.5062
71.1295
69.8504
68.6609
67.5046
66.3948
65.2894
64.2304
63.1827
62.2055
61.2606
60.427
59.6605
59.0714
58.5426
99.838
87.2959
79.7397
76.0674
74.0307
72.481
71.1222
69.8502
68.6629
67.5074
66.3976
65.292
64.2331
63.1853
62.2088
61.2646
60.4311
59.6676
59.0751
58.6585
56.7974
56.3827
55.6608
54.894
54.2087
53.6195
53.136
52.7451
52.4246
52.1821
52.0019
51.8634
51.75
51.6547
51.5638
51.4737
51.3701
51.2411
51.0877
50.9131
50.7397
50.6124
50.5436
50.5296
50.5586
50.6064
50.6457
50.6469
50.5803
50.4235
50.1791
49.8739
49.5515
49.2641
49.0436
48.9069
48.8512
48.859
48.9159
49.0221
49.1749
49.368
49.5986
49.8621
50.1571
50.478
50.8201
51.1755
51.5362
51.8906
52.2247
52.5267
52.7877
53.0061
53.1867
53.3391
53.4797
53.6227
53.7736
53.9333
54.0983
54.2649
54.4266
54.5806
54.7246
54.8614
54.9927
55.1246
55.2635
55.4101
55.5614
55.7168
55.8747
56.0355
56.1935
56.3446
56.4814
56.5962
56.6869
56.7508
56.7997
56.8414
56.892
56.9558
57.0459
57.159
57.2955
57.4518
57.6217
57.8015
57.9956
58.2172
58.4695
58.7475
59.0474
59.3626
59.6876
60.0117
60.3352
60.6522
60.952
61.2343
61.4723
61.6533
61.8006
61.9257
62.0364
62.1393
62.2437
62.3463
62.454
62.5625
62.6651
62.7523
62.8141
62.8541
62.869
62.8654
62.8434
62.803
62.7534
62.697
62.6361
62.5769
62.5194
62.4703
62.4381
62.425
62.4437
62.4929
62.5801
62.6985
62.8464
63.0168
63.2112
63.4252
63.6553
63.8962
64.1373
64.3844
64.6216
64.8585
65.0788
65.2969
65.5009
65.7057
65.8967
66.0878
66.264
66.4328
66.5787
66.7045
66.8059
66.886
66.9525
66.9948
67.0375
67.0452
67.0604
67.0354
67.0149
66.9525
66.8899
66.796
66.701
66.5721
66.4572
66.3043
66.1901
66.0311
65.9556
65.828
65.8069
65.7241
65.7874
65.7572
65.9172
65.9592
66.1981
66.3146
66.6029
66.7615
67.0591
67.2321
67.498
67.6536
67.8521
67.9457
68.0516
68.015
67.9712
67.7183
67.3811
66.6719
65.7192
64.1023
61.7754
57.3582
52.059
28.6115
56.7342
56.4098
55.8784
55.1797
54.4834
53.8915
53.4257
53.0714
52.7973
52.5841
52.4181
52.2846
52.1733
52.0785
51.9896
51.8993
51.7981
51.6813
51.5488
51.4046
51.2617
51.1509
51.0871
51.0693
51.0856
51.1147
51.1323
51.1159
51.0458
50.9079
50.7009
50.4428
50.1651
49.9072
49.6978
49.5546
49.4813
49.4736
49.5198
49.6122
49.7463
49.9201
50.1313
50.3756
50.6492
50.9474
51.264
51.5911
51.9203
52.2407
52.5416
52.8148
53.054
53.2575
53.4276
53.5717
53.6987
53.8203
53.942
54.0677
54.1959
54.3243
54.4477
54.5641
54.6711
54.7714
54.8641
54.9547
55.0478
55.1485
55.2556
55.3684
55.4894
55.6182
55.7461
55.8698
55.9739
56.0551
56.1067
56.1316
56.1405
56.145
56.1596
56.1917
56.2522
56.3364
56.4477
56.579
56.7238
56.8791
57.0576
57.2707
57.5211
57.8011
58.1112
58.4438
58.7938
59.1466
59.5061
59.8616
60.2038
60.5261
60.7969
61.0072
61.1889
61.3489
61.4977
61.6411
61.7869
61.9315
62.0844
62.2339
62.3755
62.4885
62.5727
62.6235
62.6444
62.64
62.6148
62.5702
62.5174
62.455
62.3913
62.3257
62.265
62.213
62.1803
62.1672
62.1887
62.2386
62.3322
62.4559
62.615
62.7912
62.9997
63.2214
63.4693
63.7259
63.9934
64.2607
64.5302
64.7891
65.0394
65.2729
65.4958
65.7029
65.9022
66.0837
66.2613
66.4156
66.5627
66.6717
66.776
66.8388
66.9125
66.9353
66.989
66.9787
67.0025
66.9582
66.9413
66.8615
66.8003
66.6849
66.5932
66.4371
66.3279
66.1392
66.0272
65.8219
65.7367
65.5446
65.5103
65.3538
65.3828
65.2809
65.3761
65.3559
65.5206
65.5814
65.7982
65.9106
66.1445
66.2758
66.4886
66.59
66.7475
66.754
66.8117
66.6414
66.4844
66.0142
65.4685
64.4096
63.1039
60.6317
58.12
50.7967
44.4166
22.5908
56.8137
56.5577
56.1609
55.532
54.8082
54.1682
53.6868
53.3553
53.1264
52.9558
52.8159
52.6939
52.5856
52.4882
52.3968
52.3041
52.2055
52.0982
51.982
51.8615
51.7462
51.6534
51.5954
51.5723
51.576
51.5902
51.5959
51.5748
51.5119
51.3971
51.2296
51.02
50.7911
50.571
50.3845
50.248
50.1688
50.1487
50.1832
50.2644
50.3856
50.5449
50.7386
50.9646
51.2167
51.4908
51.7781
52.0719
52.3628
52.6433
52.9047
53.1414
53.349
53.5261
53.6739
53.7973
53.9017
53.9963
54.0865
54.1762
54.2654
54.3545
54.4403
54.5213
54.5964
54.6662
54.731
54.792
54.8506
54.9142
54.9861
55.0657
55.1573
55.2586
55.3633
55.4609
55.5355
55.5844
55.5982
55.5865
55.5582
55.5299
55.5106
55.5136
55.5439
55.5988
55.6827
55.7851
55.8987
56.025
56.1827
56.3827
56.6264
56.9085
57.2321
57.589
57.9686
58.3574
58.7575
59.153
59.5391
59.9019
60.2123
60.4618
60.6921
60.8976
61.0934
61.2823
61.4772
61.6738
61.8809
62.0804
62.2648
62.4087
62.517
62.5814
62.6114
62.6067
62.5789
62.5311
62.4771
62.4069
62.3394
62.2626
62.1995
62.1421
62.1095
62.0956
62.1206
62.1713
62.2738
62.4003
62.5726
62.7587
62.9866
63.2204
63.4874
63.7541
64.0418
64.3224
64.6158
64.8974
65.1764
65.4286
65.6727
65.8871
66.0921
66.2717
66.4436
66.5846
66.72
66.8132
66.9146
66.9693
67.0451
67.0609
67.1113
67.0913
67.1056
67.0502
67.0211
66.9314
66.8637
66.7274
66.6292
66.4473
66.3338
66.1118
65.994
65.75
65.6449
65.3908
65.3275
65.1033
65.0823
64.922
64.953
64.8657
64.9639
64.9493
65.098
65.1296
65.3062
65.3524
65.519
65.5342
65.644
65.5557
65.5369
65.2381
64.9614
64.2385
63.5911
61.8964
60.8366
56.7788
54.8028
45.6545
37.8865
23.0489
57.103
56.8247
56.3341
55.6333
54.894
54.2806
53.8549
53.5964
53.445
53.3418
53.2505
53.1563
53.058
52.9584
52.8591
52.76
52.6604
52.5599
52.4586
52.3586
52.2657
52.1893
52.1381
52.1131
52.1082
52.1121
52.1111
52.0907
52.0397
51.95
51.8207
51.6581
51.4766
51.2955
51.1351
51.0108
50.9334
50.9063
50.9303
51
51.1098
51.254
51.4296
51.6315
51.8545
52.0933
52.3415
52.591
52.8347
53.0665
53.281
53.4743
53.644
53.7879
53.907
54.0038
54.0832
54.1504
54.2112
54.2687
54.3247
54.3797
54.4329
54.4837
54.5314
54.5772
54.6197
54.6586
54.6934
54.73
54.7756
54.8312
54.9014
54.9819
55.0655
55.1359
55.183
55.2
55.1825
55.1402
55.0817
55.0242
54.9735
54.9468
54.9452
54.9691
55.0194
55.0825
55.1543
55.2449
55.3803
55.5676
55.8094
56.0986
56.4439
56.8265
57.2425
57.6681
58.1159
58.5527
58.9871
59.3895
59.746
60.0353
60.3169
60.5703
60.8194
61.059
61.3132
61.5669
61.8374
62.0896
62.3221
62.4993
62.6368
62.7156
62.7604
62.7577
62.7368
62.6858
62.6302
62.5453
62.47
62.3764
62.3105
62.2427
62.2107
62.1921
62.223
62.2741
62.3876
62.521
62.7082
62.9101
63.1609
63.4142
63.7034
63.9819
64.2869
64.5753
64.8872
65.1805
65.4855
65.7528
66.023
66.245
66.465
66.637
66.8111
66.9254
67.056
67.1218
67.2289
67.2672
67.3531
67.3565
67.4069
67.3667
67.3767
67.2932
67.2592
67.1343
67.0733
66.8903
66.8097
66.5768
66.4804
66.2056
66.0917
65.7919
65.6708
65.3586
65.2536
64.9733
64.8963
64.6777
64.6468
64.492
64.5179
64.4284
64.5004
64.4518
64.5513
64.5134
64.6133
64.5273
64.5991
64.3446
64.3667
63.7332
63.6768
62.2528
62.1048
59.1866
58.6188
53.3092
50.6772
42.299
33.4644
23.804
58.5066
57.9704
56.632
55.4569
54.6226
54.1223
53.8736
53.7765
53.7493
53.7374
53.7099
53.6552
53.5749
53.478
53.3738
53.2693
53.1681
53.0724
52.9824
52.8996
52.8262
52.7667
52.7253
52.7028
52.6948
52.6939
52.6899
52.6725
52.6333
52.5666
52.4704
52.3485
52.2097
52.0677
51.9374
51.8324
51.7623
51.7324
51.7453
51.799
51.8892
52.0099
52.1564
52.3236
52.5063
52.6984
52.8957
53.0925
53.2842
53.4662
53.6341
53.7841
53.9145
54.0241
54.1127
54.1827
54.2377
54.2814
54.3176
54.3497
54.3788
54.4059
54.4327
54.4589
54.4849
54.5104
54.5354
54.5596
54.5815
54.6052
54.6376
54.6836
54.7423
54.8078
54.8688
54.9121
54.9318
54.9212
54.8804
54.8163
54.7359
54.6515
54.5726
54.513
54.4754
54.4594
54.4655
54.4802
54.5048
54.5569
54.6685
54.8423
55.0879
55.3921
55.7668
56.1813
56.6353
57.1077
57.6023
58.0849
58.5697
59.0125
59.4157
59.7485
60.0835
60.3861
60.6888
60.9845
61.296
61.6086
61.9413
62.2472
62.5296
62.7415
62.9107
63.0104
63.0767
63.0847
63.0762
63.0212
62.9639
62.8664
62.7854
62.6763
62.6041
62.5242
62.4907
62.4667
62.5036
62.554
62.6805
62.821
63.026
63.2414
63.5178
63.7882
64.107
64.3932
64.7234
65.0098
65.3473
65.6357
65.9689
66.2425
66.549
66.7695
67.0217
67.1707
67.3594
67.4292
67.5675
67.5905
67.7196
67.7193
67.8272
67.7958
67.8597
67.777
67.7946
67.6614
67.6419
67.4547
67.4134
67.1615
67.113
66.8168
66.7421
66.4094
66.2973
65.9434
65.806
65.44
65.3042
64.9585
64.848
64.5441
64.4814
64.2205
64.2138
63.9947
64.0473
63.837
63.9507
63.6866
63.8763
63.4493
63.7348
62.9771
63.3601
62.0469
62.3534
60.2221
60.0988
56.7502
55.4056
50.5161
46.3855
40.1789
31.6248
24.6754
59.4897
58.8518
57.0098
55.4634
54.4659
53.987
53.8668
53.924
54.032
54.1239
54.1706
54.164
54.1106
54.0243
53.9205
53.8118
53.7071
53.6121
53.5291
53.4585
53.4005
53.3563
53.3264
53.3104
53.3047
53.3033
53.2995
53.286
53.257
53.2082
53.1384
53.0496
52.9467
52.8394
52.7377
52.6518
52.59
52.5582
52.559
52.5931
52.6572
52.7472
52.8573
52.9837
53.1209
53.2644
53.4106
53.5558
53.6959
53.8282
53.9496
54.0569
54.1484
54.2236
54.283
54.3283
54.3614
54.3853
54.4012
54.412
54.4194
54.4266
54.4346
54.4444
54.4559
54.469
54.4843
54.5012
54.5201
54.5428
54.5778
54.6283
54.6861
54.7409
54.7826
54.8036
54.7994
54.767
54.7083
54.628
54.528
54.419
54.3089
54.2098
54.1282
54.0683
54.0293
53.9991
53.9787
53.9864
54.0755
54.2407
54.4898
54.815
55.2242
55.6775
56.1685
56.6899
57.2311
57.762
58.2929
58.7843
59.2337
59.6151
60
60.3472
60.7038
61.0519
61.4187
61.7901
62.1846
62.5414
62.8681
63.1097
63.3112
63.4351
63.5268
63.549
63.5541
63.5025
63.4527
63.3539
63.2749
63.1558
63.0813
62.9873
62.9496
62.9181
62.9613
63.0101
63.1492
63.2874
63.5127
63.7385
64.0436
64.3329
64.684
64.9806
65.3373
65.6252
65.9815
66.2666
66.6234
66.8923
67.2393
67.4516
67.739
67.8592
68.0552
68.0764
68.2176
68.1886
68.3349
68.2824
68.4131
68.3265
68.4157
68.266
68.3131
68.0968
68.1176
67.8358
67.8416
67.4966
67.4957
67.1092
67.0777
66.6544
66.5878
66.14
66.0496
65.5731
65.4837
64.9967
64.9334
64.4517
64.4425
63.9719
64.034
63.5721
63.7179
63.2334
63.4525
62.8801
63.186
62.437
62.7955
61.7565
62.034
60.5926
60.4475
58.4351
57.4651
54.5711
52.2837
48.4414
43.7218
39.3589
32.0196
26.1282
60.1345
59.5069
57.4387
55.6568
54.5039
53.9726
53.9024
54.0648
54.2865
54.4764
54.5997
54.6482
54.6287
54.5582
54.4569
54.3436
54.2333
54.1355
54.0547
53.9917
53.9455
53.9146
53.8972
53.8908
53.8917
53.895
53.8956
53.8886
53.8697
53.8357
53.7852
53.72
53.6433
53.5611
53.481
53.4103
53.3561
53.3226
53.3125
53.3269
53.3642
53.4215
53.495
53.5804
53.6736
53.7713
53.8702
53.9684
54.0622
54.1487
54.2264
54.2932
54.3482
54.3921
54.4257
54.4492
54.4641
54.4714
54.4725
54.4687
54.4633
54.4583
54.4542
54.4537
54.4561
54.4616
54.4712
54.4858
54.5094
54.5445
54.5941
54.6565
54.7228
54.7734
54.8017
54.8042
54.7833
54.7393
54.6691
54.5725
54.4538
54.3211
54.1787
54.0358
53.9107
53.8103
53.7318
53.6567
53.5919
53.556
53.6176
53.7776
54.0409
54.3972
54.8463
55.3412
55.8772
56.4479
57.0311
57.6153
58.1903
58.7267
59.2185
59.6564
60.0733
60.455
60.8566
61.2487
61.67
62.0989
62.5549
62.9654
63.3303
63.5995
63.8257
63.9647
64.0777
64.1221
64.1432
64.1113
64.0773
63.9908
63.9215
63.804
63.7303
63.627
63.5846
63.5476
63.5928
63.6435
63.7869
63.9268
64.1647
64.4028
64.7319
65.0429
65.4223
65.7417
66.1219
66.4193
66.7841
67.073
67.4427
67.722
68.0869
68.3017
68.5991
68.6984
68.8733
68.8573
68.989
68.9172
69.0514
68.9515
69.067
68.9386
69.018
68.8215
68.8726
68.601
68.6288
68.2856
68.2909
67.8991
67.8858
67.4614
67.4142
66.9582
66.8823
66.3973
66.3
65.7728
65.6623
65.1059
64.9986
64.4343
64.3542
63.7988
63.7675
63.213
63.2413
62.67
62.7311
62.1052
62.1778
61.4254
61.4431
60.5104
60.3118
59.0767
58.4692
56.5996
55.3406
52.7768
50.2716
47.4663
43.1398
39.7491
33.6962
28.2418
60.5397
59.9595
57.8247
55.9272
54.6779
54.08
54.0084
54.2263
54.5273
54.7947
54.9831
55.0821
55.0968
55.0447
54.9498
54.836
54.7225
54.6223
54.5424
54.4845
54.4473
54.4279
54.4224
54.4268
54.4369
54.448
54.4558
54.4565
54.4471
54.4253
54.3902
54.3427
54.2852
54.2214
54.157
54.0971
54.0472
54.0104
53.989
53.9842
53.9958
54.022
54.0609
54.1086
54.1625
54.22
54.2777
54.3342
54.3867
54.433
54.4728
54.5055
54.5308
54.5498
54.5631
54.5706
54.5729
54.5703
54.5634
54.5529
54.5399
54.5258
54.5128
54.5042
54.5004
54.5039
54.516
54.5383
54.5737
54.6265
54.693
54.7702
54.8442
54.8947
54.9146
54.9068
54.8758
54.8284
54.7558
54.6488
54.5126
54.3533
54.174
53.9859
53.8202
53.6768
53.5678
53.454
53.3507
53.2838
53.3256
53.489
53.7749
54.1707
54.6549
55.1909
55.7733
56.389
57.0225
57.657
58.2836
58.8718
59.3991
59.8752
60.3075
60.7255
61.1578
61.5828
62.0471
62.5257
63.0349
63.4981
63.8994
64.1929
64.4292
64.5887
64.7215
64.7931
64.8425
64.8452
64.8395
64.7845
64.7303
64.626
64.5543
64.4501
64.403
64.3651
64.4122
64.4626
64.6087
64.7528
64.9932
65.2482
65.5957
65.9209
66.3271
66.6653
67.068
67.3751
67.7447
68.0379
68.4169
68.7054
69.0861
69.3093
69.6019
69.68
69.8242
69.7658
69.8787
69.7864
69.8848
69.762
69.8265
69.656
69.6984
69.469
69.4893
69.1924
69.1891
68.8235
68.7914
68.4002
68.3397
67.91
67.8078
67.3531
67.2263
66.7397
66.584
66.0516
65.8675
65.2972
65.0936
64.498
64.2958
63.7032
63.5101
62.9293
62.759
62.1732
62.001
61.3802
61.1854
60.4695
60.1964
59.3611
58.9353
57.7659
57.0509
55.2315
53.9334
51.807
49.4139
47.3307
43.622
40.5703
35.5373
30.4436
60.8079
60.2735
58.142
56.2009
54.9022
54.2568
54.1693
54.4135
54.7664
55.0908
55.3303
55.4724
55.5194
55.4873
55.402
55.2912
55.1778
55.0775
54.9988
54.9449
54.9144
54.9036
54.908
54.9222
54.9414
54.9609
54.9767
54.9857
54.9852
54.9737
54.9503
54.916
54.8723
54.8218
54.7684
54.7157
54.6668
54.625
54.592
54.5697
54.5579
54.5561
54.5633
54.5775
54.5964
54.6177
54.6386
54.6577
54.6741
54.6868
54.6965
54.703
54.7066
54.7082
54.7082
54.7067
54.7026
54.6953
54.6847
54.671
54.6555
54.6388
54.6233
54.6131
54.6119
54.6224
54.6464
54.6841
54.7361
54.8059
54.8899
54.9787
55.0551
55.1044
55.1185
55.1026
55.0702
55.0254
54.9525
54.8411
54.6955
54.5149
54.3016
54.0685
53.8532
53.6668
53.5249
53.3727
53.2581
53.1744
53.2201
53.4027
53.7291
54.1645
54.6838
55.2463
55.8719
56.5316
57.2213
57.9016
58.5794
59.2231
59.7907
60.2896
60.7398
61.1873
61.634
62.0859
62.5779
63.0881
63.6396
64.1328
64.5634
64.8757
65.1224
65.2981
65.4551
65.5568
65.6435
65.6908
65.7345
65.7261
65.7026
65.6302
65.5631
65.46
65.4186
65.3749
65.4223
65.4662
65.6169
65.7558
66.0057
66.2769
66.6359
66.9689
67.3985
67.7346
68.1639
68.4704
68.8451
69.1477
69.5308
69.8223
70.2098
70.4393
70.7342
70.761
70.9061
70.7904
70.8759
70.7583
70.8259
70.6679
70.7045
70.4757
70.4914
70.2165
70.2158
69.868
69.8374
69.4329
69.3752
68.96
68.8733
68.4324
68.2847
67.8212
67.638
67.1595
66.9279
66.4132
66.1287
65.5737
65.2513
64.6675
64.325
63.733
63.3846
62.8221
62.4627
61.9083
61.5392
60.9638
60.5763
59.9495
59.5067
58.8312
58.2839
57.3018
56.4589
54.7608
53.3862
51.6639
49.4452
47.7027
44.519
41.499
37.1851
32.5255
60.9914
60.4913
58.3855
56.4433
55.1348
54.4764
54.3874
54.6509
55.0373
55.3978
55.6701
55.8397
55.9082
55.8901
55.8127
55.7058
55.5951
55.4977
55.4226
55.3734
55.349
55.3459
55.3589
55.3821
55.41
55.4375
55.4609
55.4776
55.4851
55.4822
55.4683
55.4438
55.4101
55.3687
55.3221
55.2729
55.2233
55.1759
55.1321
55.0935
55.0611
55.0343
55.0134
54.9973
54.9839
54.9729
54.963
54.9522
54.9403
54.9273
54.9132
54.9
54.8887
54.88
54.8743
54.8703
54.8659
54.8584
54.8478
54.8358
54.822
54.8075
54.7954
54.7921
54.8004
54.8234
54.8656
54.9244
54.9976
55.0898
55.1925
55.2869
55.3593
55.4046
55.4172
55.3953
55.3593
55.3183
55.2526
55.1473
54.9988
54.799
54.5592
54.2926
54.0346
53.7968
53.6213
53.4376
53.3262
53.2446
53.3192
53.5307
53.9189
54.3991
54.958
55.5439
56.2164
56.9151
57.6426
58.3545
59.0839
59.7784
60.3921
60.912
61.3756
61.8372
62.2935
62.7609
63.268
63.7943
64.3708
64.8768
65.3244
65.6503
65.9105
66.1044
66.2802
66.4203
66.553
66.655
66.756
66.8068
66.8407
66.812
66.7569
66.6706
66.6373
66.5782
66.624
66.6581
66.8077
66.9339
67.2009
67.4734
67.8492
68.1766
68.625
68.934
69.3953
69.6849
70.0726
70.3604
70.7687
71.0337
71.4496
71.6457
71.9785
71.911
72.0685
71.88
71.9741
71.8217
71.8898
71.6613
71.7033
71.4008
71.4302
71.0615
71.0948
70.6388
70.6437
70.1515
70.1254
69.6465
69.5619
69.0869
68.9157
68.4205
68.1954
67.6998
67.4182
66.9041
66.5659
66.0158
65.6256
65.0376
64.631
64.014
63.6025
63.0128
62.5856
62.0207
61.5849
61.011
60.5454
59.9815
59.4684
58.9179
58.3133
57.4472
56.4135
54.8874
53.4115
51.9871
49.9383
48.2638
45.405
42.384
38.5745
34.4033
61.113
60.6343
58.5578
56.6443
55.3611
54.7251
54.6562
54.9388
55.3426
55.718
56.0023
56.1819
56.2585
56.2476
56.1769
56.0777
55.9751
55.8862
55.8197
55.7786
55.7623
55.7673
55.7883
55.8192
55.8545
55.8887
55.9184
55.9409
55.9544
55.9581
55.951
55.9335
55.9068
55.8712
55.8286
55.7807
55.7289
55.6756
55.622
55.5691
55.5189
55.4709
55.4259
55.3842
55.3444
55.3068
55.2709
55.2353
55.2015
55.1702
55.1404
55.1141
55.0924
55.0768
55.0684
55.0661
55.0656
55.064
55.0613
55.058
55.0528
55.048
55.0496
55.0614
55.0829
55.1212
55.1855
55.2696
55.3651
55.4745
55.5873
55.6811
55.748
55.7891
55.797
55.7747
55.7432
55.7088
55.6545
55.5642
55.4222
55.2139
54.9552
54.6563
54.3666
54.0882
53.8873
53.6889
53.5967
53.5315
53.6714
53.9165
54.3777
54.9025
55.5094
56.1129
56.8395
57.5641
58.3244
59.0504
59.8339
60.5666
61.223
61.7583
62.2346
62.6844
63.1495
63.6123
64.1278
64.6589
65.2304
65.725
66.1877
66.5132
66.799
66.9961
67.2125
67.3735
67.571
67.7267
67.9114
68.0264
68.135
68.1435
68.1389
68.0629
68.0505
67.9796
68.0257
68.0312
68.1837
68.2834
68.572
68.8207
69.221
69.5256
69.9887
70.2552
70.7446
70.9954
71.416
71.6816
72.1199
72.3117
72.805
72.8881
73.3049
73.0854
73.337
72.9858
73.1669
72.9339
73.0805
72.7429
72.8491
72.4345
72.5434
72.0393
72.1461
71.5157
71.5994
70.978
71.0351
70.4687
70.4497
69.8988
69.743
69.1934
68.9715
68.4263
68.1416
67.5851
67.251
66.675
66.2743
65.681
65.2504
64.6302
64.1968
63.5802
63.1403
62.5405
62.0995
61.5153
61.0142
60.5003
59.9394
59.4557
58.7338
57.8423
56.6529
55.2512
53.7875
52.4882
50.6054
48.8132
46.1464
43.2055
39.7768
36.0615
61.1736
60.7044
58.6604
56.8035
55.5802
55.0024
54.9779
55.2827
55.69
56.0597
56.3368
56.5105
56.5837
56.5739
56.5095
56.4207
56.3309
56.2548
56.2006
56.1707
56.1637
56.1766
56.2039
56.2402
56.28
56.3183
56.3519
56.3787
56.3967
56.4052
56.4033
56.3908
56.3686
56.3365
56.2956
56.2476
56.1931
56.1345
56.0733
56.01
55.946
55.8813
55.817
55.7542
55.6928
55.6336
55.5776
55.525
55.4768
55.433
55.3929
55.3583
55.3316
55.3143
55.3053
55.305
55.3108
55.3207
55.3325
55.3443
55.3549
55.3678
55.3912
55.4251
55.4686
55.5291
55.6179
55.7237
55.8327
55.9476
56.0612
56.1523
56.2113
56.2376
56.2297
56.2049
56.1824
56.1659
56.1376
56.0744
55.9519
55.7566
55.496
55.1815
54.8661
54.5611
54.3423
54.1512
54.09
54.0748
54.3044
54.5895
55.1292
55.6853
56.3342
56.9332
57.7099
58.4461
59.2391
59.9685
60.8159
61.5745
62.285
62.8329
63.3246
63.7361
64.2066
64.6363
65.1537
65.6591
66.2132
66.6747
67.1454
67.4538
67.7787
67.9686
68.2428
68.4144
68.7039
68.9033
69.1922
69.3622
69.5651
69.6065
69.6684
69.6076
69.629
69.5436
69.5928
69.5812
69.7188
69.7932
70.0958
70.3108
70.7162
71.0022
71.4371
71.6947
72.1786
72.3923
72.8373
73.0797
73.5415
73.6767
74.2048
74.1689
74.6182
74.2947
74.538
74.1224
74.4561
74.0466
74.3475
73.8276
74.0321
73.5094
73.6862
73.1035
73.2191
72.5317
72.6528
71.9565
72.0636
71.423
71.4601
70.8422
70.7046
70.1422
69.9019
69.3584
69.0441
68.4959
68.1358
67.5794
67.1374
66.5982
66.1147
65.5466
65.0668
64.4724
63.9817
63.3847
62.8859
62.2981
61.7347
61.2236
60.579
60.1117
59.2544
58.2851
56.9628
55.6559
54.322
52.9409
51.1767
49.2807
46.7631
43.979
40.8675
37.5365
61.1516
60.6835
58.6943
56.9336
55.8093
55.3261
55.3647
55.6868
56.0792
56.4213
56.6711
56.8218
56.8796
56.8655
56.8074
56.732
56.659
56.6003
56.5622
56.5459
56.5498
56.5708
56.6039
56.644
56.6869
56.7278
56.7642
56.794
56.8152
56.8273
56.8289
56.8196
56.8002
56.77
56.73
56.682
56.6263
56.5648
56.4985
56.4272
56.3524
56.2749
56.1953
56.1169
56.0406
55.9673
55.9
55.8384
55.7811
55.7293
55.6843
55.6464
55.6188
55.604
55.6007
55.6073
55.6219
55.6436
55.6729
55.7069
55.7397
55.774
55.8212
55.8804
55.9513
56.0426
56.1576
56.2803
56.4008
56.5207
56.6303
56.7081
56.7487
56.7527
56.7297
56.7044
56.6905
56.6902
56.6928
56.6651
56.5756
56.411
56.1708
55.861
55.5351
55.231
55.0131
54.8489
54.8211
54.8874
55.2057
55.5525
56.1592
56.7294
57.3899
57.9872
58.8108
59.5349
60.3527
61.0924
62.01
62.7776
63.553
64.1037
64.614
64.9863
65.4551
65.8344
66.3496
66.7914
67.3252
67.7449
68.215
68.5049
68.867
69.0507
69.3833
69.5726
69.9556
70.1991
70.5988
70.81
71.1053
71.1722
71.3169
71.2608
71.3292
71.2252
71.2889
71.2399
71.372
71.4153
71.7135
71.9009
72.3094
72.5687
72.9689
73.2309
73.6559
73.867
74.3056
74.5242
74.9605
75.0824
75.572
75.4761
75.834
75.5343
75.7325
75.2618
75.6508
75.1713
75.5219
74.9035
75.1963
74.6046
74.7917
74.2275
74.2473
73.6216
73.715
73.0502
73.1512
72.555
72.5438
71.9223
71.7591
71.2117
70.9261
70.4269
70.0516
69.5544
69.1263
68.6347
68.1239
67.6747
67.0986
66.6425
66.042
65.5189
64.9263
64.3524
63.7429
63.1662
62.5039
61.9724
61.2283
60.7333
59.6744
58.6466
57.3799
56.1138
54.8997
53.3665
51.6639
49.7165
47.323
44.7237
41.8885
38.8603
60.9926
60.5296
58.6608
57.0674
56.0936
55.7354
55.8348
56.1526
56.5037
56.7946
56.9973
57.1104
57.1456
57.1262
57.0769
57.019
56.967
56.9292
56.9096
56.9085
56.9234
56.9515
56.9885
57.0304
57.0738
57.1151
57.1521
57.1826
57.2048
57.2178
57.2203
57.2118
57.1927
57.1631
57.1243
57.0776
57.0228
56.961
56.8933
56.8187
56.7378
56.6521
56.5619
56.4731
56.3906
56.3144
56.2427
56.175
56.1129
56.0586
56.0119
55.9744
55.9506
55.9422
55.9474
55.9662
55.999
56.0458
56.1021
56.1566
56.2098
56.2711
56.3465
56.4334
56.5368
56.6587
56.7947
56.9301
57.0597
57.1836
57.2888
57.357
57.381
57.359
57.3129
57.2806
57.2753
57.2985
57.3343
57.3492
57.31
57.1943
56.9881
56.7046
56.3899
56.1171
55.9097
55.7911
55.8083
55.9779
56.3537
56.7516
57.3926
57.9703
58.6206
59.2611
60.1109
60.8217
61.6487
62.4254
63.3877
64.1595
64.9876
65.5501
66.0827
66.4232
66.8747
67.1907
67.674
68.0421
68.5467
68.9205
69.3824
69.6679
70.0538
70.2534
70.6365
70.8623
71.3223
71.6141
72.0893
72.3417
72.7043
72.8014
73.0095
72.9638
73.0614
72.9542
73.019
72.951
73.067
73.0927
73.3668
73.5241
73.9193
74.1633
74.5406
74.8162
75.1576
75.3733
75.7472
75.9731
76.3332
76.4984
76.8002
76.6974
76.9865
76.7218
76.8658
76.5738
76.8056
76.3799
76.5411
76.0682
76.2462
75.7612
75.8093
75.3626
75.1735
74.7087
74.7353
74.2273
74.2518
73.7496
73.6732
73.1036
72.8583
72.344
71.9945
71.5224
71.0794
70.6156
70.101
69.6626
69.095
68.702
68.082
67.6755
66.9819
66.5377
65.8032
65.2752
64.5174
63.9701
63.1297
62.638
61.736
61.2558
60.0326
59.035
57.8193
56.6093
55.4628
53.8473
52.1565
50.1662
47.8727
45.4578
42.8399
40.0212
60.5867
60.1597
58.5611
57.2489
56.4906
56.2625
56.3922
56.6674
56.9444
57.16
57.2991
57.3667
57.379
57.3569
57.3195
57.2812
57.2513
57.2344
57.2322
57.2436
57.2666
57.2984
57.3359
57.3765
57.4175
57.4566
57.4916
57.5206
57.542
57.5541
57.556
57.5472
57.5283
57.4997
57.4626
57.4181
57.3663
57.3077
57.2425
57.1684
57.086
56.9987
56.9091
56.8195
56.7342
56.6585
56.5931
56.5328
56.4741
56.4189
56.3723
56.3413
56.3296
56.3342
56.3533
56.3914
56.448
56.5206
56.6067
56.6972
56.7867
56.8771
56.9782
57.0936
57.2246
57.3667
57.5166
57.6643
57.8039
57.9306
58.0304
58.0862
58.0913
58.047
57.9778
57.9305
57.9319
57.9804
58.0541
58.1174
58.1379
58.0893
57.944
57.7134
57.4416
57.2231
57.0354
56.9915
57.0498
57.2927
57.6891
58.1428
58.7778
59.3301
59.9664
60.6932
61.5417
62.249
63.0589
63.9154
64.8716
65.6635
66.5041
67.0903
67.6263
67.986
68.3742
68.6515
69.0669
69.3814
69.8329
70.1723
70.606
70.9118
71.2873
71.5541
71.9469
72.2701
72.7461
73.1244
73.6041
73.9239
74.3011
74.4425
74.6701
74.6613
74.7548
74.651
74.719
74.6266
74.7418
74.7683
74.9849
75.1574
75.4955
75.7367
76.0918
76.3659
76.6404
76.8701
77.1384
77.336
77.6321
77.8302
77.9267
77.8278
78.0433
77.8034
77.9986
77.8821
77.8923
77.6711
77.5272
77.3177
77.2557
76.9353
76.7571
76.4028
76.0682
75.7405
75.6956
75.4329
75.3173
74.8737
74.8014
74.2492
73.9236
73.4008
73.0069
72.5529
72.0338
71.6054
71.0189
70.6289
70.0001
69.6258
68.9748
68.5671
67.8466
67.4016
66.5884
66.0847
65.1769
64.6452
63.6716
63.2019
62.174
61.7189
60.2104
59.4043
58.396
57.2395
56.0515
54.414
52.6969
50.694
48.5017
46.2183
43.7399
41.0774
59.9
59.5684
58.4368
57.5255
57.0214
56.8926
56.9948
57.1775
57.3493
57.4744
57.5469
57.5742
57.5702
57.5498
57.5256
57.5059
57.4949
57.4944
57.5043
57.5231
57.5492
57.5807
57.6158
57.6528
57.6899
57.7255
57.7578
57.785
57.8053
57.8166
57.8173
57.8077
57.7888
57.7611
57.7257
57.6854
57.6417
57.5918
57.5326
57.4641
57.3878
57.3045
57.2201
57.1402
57.0655
56.998
56.9419
56.8967
56.856
56.8136
56.7773
56.7634
56.7762
56.8074
56.8527
56.9165
57.0017
57.1052
57.2172
57.3289
57.4458
57.5722
57.708
57.8537
58.0078
58.1639
58.3198
58.471
58.6146
58.7424
58.8352
58.8805
58.8712
58.8118
58.7286
58.6716
58.6794
58.7473
58.8482
58.9512
59.0271
59.047
58.9736
58.813
58.6083
58.4691
58.3071
58.363
58.461
58.7494
59.129
59.6433
60.2158
60.7769
61.4231
62.1901
62.9754
63.72
64.5494
65.4866
66.3801
67.2044
68.007
68.6415
69.1625
69.5627
69.8645
70.1482
70.4491
70.7559
71.1077
71.4661
71.8366
72.198
72.5385
72.9084
73.2798
73.7213
74.1712
74.651
75.0766
75.4849
75.7999
76.0091
76.1896
76.2548
76.2929
76.27
76.2602
76.236
76.2729
76.361
76.4823
76.7136
76.9428
77.2415
77.5124
77.8005
78.0029
78.2549
78.4009
78.6182
78.7791
78.9634
78.9294
78.9911
78.9826
78.9223
79.0287
79.0073
78.8674
78.8104
78.5172
78.438
78.1965
77.9512
77.6444
77.4691
76.9195
76.875
76.6366
76.5791
76.2381
75.9955
75.7318
75.2869
74.9067
74.3479
73.9333
73.4636
72.8821
72.4761
71.878
71.5069
70.8318
70.4486
69.7876
69.3433
68.6088
68.1173
67.2982
66.7694
65.7764
65.2785
64.2195
63.6869
62.4704
61.9753
60.51
60.0385
58.9531
57.915
56.6496
55.04
53.2894
51.3088
49.192
46.9869
44.6027
42.0682
59.1294
58.9503
58.3861
57.9085
57.6263
57.5244
57.5372
57.5967
57.6584
57.7018
57.7211
57.7202
57.7076
57.6916
57.6786
57.6723
57.6737
57.6827
57.6983
57.7192
57.7445
57.7733
57.8048
57.8382
57.872
57.9046
57.9343
57.9591
57.9777
57.9879
57.9876
57.9767
57.958
57.9347
57.907
57.8722
57.8335
57.7929
57.7472
57.6899
57.6229
57.5551
57.4892
57.4235
57.3637
57.3206
57.2926
57.2723
57.2548
57.2394
57.237
57.2577
57.3007
57.3608
57.4394
57.5375
57.652
57.7796
57.9179
58.0603
58.2
58.3395
58.487
58.6449
58.8071
58.9667
59.1231
59.2735
59.4133
59.5297
59.6099
59.6523
59.652
59.6054
59.5297
59.4765
59.4883
59.5626
59.681
59.8099
59.9231
59.9953
59.9862
59.9006
59.7811
59.7578
59.6679
59.8066
59.9187
60.2526
60.6117
61.1651
61.6302
62.2337
62.838
63.6217
64.3385
65.2057
66.0214
66.9816