/*--------------------------------*- C++ -*----------------------------------*\
| =========                 |                                                 |
| \\      /  F ield         | OpenFOAM: The Open Source CFD Toolbox           |
|  \\    /   O peration     | Version:  2.4.0                                 |
|   \\  /    A nd           | Web:      www.OpenFOAM.org                      |
|    \\/     M anipulation  |                                                 |
\*---------------------------------------------------------------------------*/
FoamFile
{
    version     2.0;
    format      ascii;
    class       volScalarField;
    location    "0.7";
    object      p;
}
// * * * * * * * * * * * * * * * * * * * * * * * * * * * * * * * * * * * * * //

dimensions      [0 2 -2 0 0 0 0];

internalField   nonuniform List<scalar> 
4400
(
-20.8668
-21.0184
-21.2299
-21.2576
-21.5306
-21.5451
-22.2796
-21.5389
-22.0689
-22.2188
-21.2574
-23.8532
-21.2821
-22.7751
-23.5456
-20.9475
-24.715
-23.4403
-20.9391
-24.3754
-20.9345
-21.0365
-21.2514
-21.2997
-21.5676
-21.558
-22.3283
-21.4898
-21.9879
-22.5514
-21.594
-24.032
-21.3856
-22.8393
-23.928
-21.1741
-24.6131
-23.4918
-21.131
-24.308
-21.0081
-21.0972
-21.3765
-21.4246
-21.704
-21.6104
-22.1781
-21.5896
-22.2954
-23.1092
-22.012
-24.1335
-21.3483
-22.9054
-24.2403
-21.3442
-24.3736
-23.7613
-21.3922
-24.3681
-21.096
-21.1737
-21.5084
-21.537
-21.7307
-21.5615
-22.0814
-21.8717
-22.6621
-23.2115
-21.8213
-23.5486
-21.599
-22.6509
-24.2209
-21.5431
-24.1028
-23.9591
-21.6456
-24.1184
-21.1668
-21.1996
-21.5775
-21.5161
-21.6765
-21.5764
-22.0596
-22.1763
-22.6109
-23.0173
-21.6345
-23.4018
-21.7968
-22.4821
-24.1572
-21.7036
-23.9029
-24.2446
-21.953
-24.2005
-21.2143
-21.1892
-21.565
-21.4661
-21.6294
-21.5669
-22.1285
-22.2873
-22.378
-22.8441
-21.6128
-23.242
-21.9939
-22.3311
-23.9388
-21.8178
-23.683
-24.2602
-22.2146
-24.0975
-21.245
-21.1634
-21.5263
-21.4234
-21.6058
-21.6372
-22.0721
-22.3226
-22.1371
-22.721
-21.675
-23.1152
-22.1644
-22.179
-23.7895
-21.9511
-23.4749
-24.2305
-22.3606
-24.0439
-21.2679
-21.1355
-21.4808
-21.3952
-21.597
-21.6721
-22.0044
-22.2856
-21.9871
-22.6779
-21.7292
-23.0301
-22.2784
-22.1315
-23.6966
-22.0534
-23.347
-24.1977
-22.4864
-24.0295
-21.2837
-21.1126
-21.4359
-21.3777
-21.5835
-21.703
-21.9358
-22.2462
-21.8887
-22.6433
-21.8202
-22.8929
-22.4199
-22.1205
-23.6244
-22.2029
-23.2148
-24.1754
-22.6128
-23.9868
-21.2929
-21.0917
-21.3972
-21.3705
-21.5678
-21.7308
-21.8665
-22.219
-21.8106
-22.6116
-21.8862
-22.7875
-22.5257
-22.1477
-23.5845
-22.3296
-23.1209
-24.1786
-22.7481
-23.9803
-21.2974
-21.0814
-21.363
-21.3703
-21.5516
-21.7476
-21.8054
-22.1923
-21.7497
-22.5618
-21.9642
-22.6565
-22.618
-22.1726
-23.5173
-22.4726
-23.034
-24.1776
-22.9019
-23.9698
-21.2976
-21.0707
-21.335
-21.3777
-21.5295
-21.7648
-21.7503
-22.1636
-21.7056
-22.5113
-22.0271
-22.5566
-22.7021
-22.1678
-23.4557
-22.6031
-22.9516
-24.1833
-23.0507
-23.9533
-21.2908
-21.0686
-21.3091
-21.3865
-21.5096
-21.7761
-21.698
-22.1402
-21.6721
-22.4515
-22.1029
-22.4471
-22.7611
-22.1877
-23.3866
-22.7244
-22.8996
-24.1874
-23.187
-23.9291
-21.2823
-21.0647
-21.2872
-21.4001
-21.4851
-21.7865
-21.654
-22.1136
-21.6503
-22.3993
-22.1633
-22.3481
-22.8222
-22.1887
-23.3154
-22.8586
-22.8276
-24.1679
-23.3351
-23.9081
-21.2663
-21.0664
-21.2684
-21.4127
-21.4639
-21.7936
-21.6099
-22.0923
-21.6375
-22.3423
-22.2355
-22.2539
-22.8606
-22.2023
-23.2468
-22.9649
-22.7897
-24.1602
-23.4483
-23.8796
-21.2492
-21.0653
-21.2525
-21.4272
-21.4394
-21.8001
-21.5728
-22.0699
-21.6292
-22.2949
-22.2864
-22.1673
-22.9004
-22.2011
-23.1735
-23.0848
-22.7332
-24.1299
-23.5837
-23.858
-21.225
-21.0673
-21.2408
-21.4394
-21.4216
-21.8047
-21.5389
-22.0517
-21.6269
-22.2485
-22.3479
-22.0941
-22.9205
-22.2106
-23.1079
-23.1523
-22.7026
-24.1149
-23.6773
-23.835
-21.1991
-21.0647
-21.2321
-21.449
-21.4029
-21.8083
-21.5127
-22.0379
-21.6217
-22.2136
-22.3851
-22.0287
-22.9437
-22.2044
-23.0478
-23.2402
-22.6589
-24.0819
-23.7893
-23.8161
-21.1694
-21.0677
-21.2288
-21.459
-21.3908
-21.8149
-21.4922
-22.0288
-21.6209
-22.1774
-22.4299
-21.9816
-22.9517
-22.2022
-22.9865
-23.3021
-22.6282
-24.0487
-23.8676
-23.7973
-21.1199
-21.0595
-21.2269
-21.4612
-21.3849
-21.8155
-21.4861
-22.0222
-21.6166
-22.1608
-22.4355
-21.9598
-22.9547
-22.1967
-22.9488
-23.3272
-22.6204
-24.0077
-23.9273
-23.8024
-23.7318
-19.5597
-25.253
-56.4591
-68.498
-52.8553
-31.2783
-16.4031
-8.8656
-4.77633
-1.98375
-0.138427
0.993355
1.6572
2.02199
2.20935
2.29502
2.3263
2.33073
2.32255
2.308
2.28999
2.27007
2.24908
2.22743
2.20533
2.18292
2.16025
2.13736
2.11428
2.09102
2.06759
2.04398
2.0202
1.99626
1.97214
1.94785
1.92339
1.89877
1.87396
1.84899
1.82384
1.79851
1.77301
1.74732
1.72146
1.69542
1.66919
1.64278
1.61618
1.5894
1.56243
1.53527
1.50792
1.48038
1.45265
1.42472
1.39659
1.36827
1.33975
1.31103
1.28211
1.25298
1.22365
1.19411
1.16437
1.13442
1.10426
1.07389
1.0433
1.0125
0.98149
0.950258
0.918808
0.887136
0.855243
0.823127
0.790785
0.758217
0.725421
0.692395
0.659138
0.625648
0.591924
0.557963
0.523766
0.489327
0.45465
0.419726
0.38456
0.349145
0.313479
0.277569
0.241391
0.204972
0.168286
0.131333
0.094142
0.0566656
0.0189273
-24.926
-21.1449
-25.2946
-53.8579
-65.115
-49.5709
-30.0368
-16.4825
-9.07869
-4.88614
-2.21385
-0.402607
0.781817
1.50123
1.91214
2.13586
2.24677
2.29446
2.30962
2.30868
2.29895
2.28412
2.26628
2.24664
2.22587
2.20434
2.18228
2.15984
2.13711
2.11412
2.09092
2.06753
2.04394
2.02018
1.99624
1.97213
1.94785
1.92339
1.89876
1.87396
1.84899
1.82384
1.79851
1.77301
1.74732
1.72146
1.69542
1.66919
1.64278
1.61618
1.5894
1.56243
1.53527
1.50792
1.48038
1.45265
1.42472
1.39659
1.36827
1.33975
1.31103
1.2821
1.25298
1.22365
1.19411
1.16437
1.13442
1.10426
1.07389
1.0433
1.01251
0.981489
0.950259
0.918807
0.887136
0.855244
0.823126
0.790785
0.758217
0.72542
0.692395
0.659138
0.625648
0.591924
0.557963
0.523766
0.489327
0.45465
0.419727
0.384559
0.349146
0.313479
0.277568
0.241391
0.204973
0.168286
0.131334
0.0941422
0.0566649
0.0189276
-25.0734
-21.9957
-26.1606
-51.1884
-61.6032
-46.7873
-28.6473
-16.2065
-9.37562
-5.22492
-2.48933
-0.65541
0.578748
1.3535
1.80944
2.06536
2.19932
2.26299
2.28888
2.29511
2.2901
2.27836
2.26256
2.24424
2.22433
2.20335
2.18165
2.15945
2.13686
2.11397
2.09082
2.06746
2.0439
2.02015
1.99623
1.97212
1.94784
1.92339
1.89876
1.87396
1.84899
1.82384
1.79851
1.77301
1.74732
1.72146
1.69542
1.66919
1.64278
1.61618
1.5894
1.56243
1.53527
1.50792
1.48038
1.45265
1.42472
1.39659
1.36827
1.33975
1.31103
1.2821
1.25298
1.22365
1.19411
1.16437
1.13442
1.10426
1.07389
1.0433
1.01251
0.981489
0.950259
0.918807
0.887136
0.855244
0.823126
0.790785
0.758217
0.725421
0.692395
0.659138
0.625648
0.591924
0.557963
0.523766
0.489327
0.45465
0.419726
0.384559
0.349146
0.313479
0.277568
0.241391
0.204972
0.168285
0.131334
0.094142
0.0566648
0.0189275
-25.5458
-22.8625
-26.9046
-48.324
-57.7116
-43.8712
-27.7415
-16.0941
-9.40855
-5.44553
-2.77596
-0.920667
0.359985
1.19499
1.70571
1.99905
2.15486
2.23256
2.2684
2.28164
2.28134
2.27268
2.25889
2.24189
2.22281
2.20238
2.18104
2.15905
2.13661
2.11381
2.09073
2.0674
2.04386
2.02013
1.99621
1.97211
1.94784
1.92338
1.89876
1.87396
1.84899
1.82384
1.79851
1.77301
1.74732
1.72146
1.69542
1.66919
1.64278
1.61618
1.5894
1.56243
1.53527
1.50792
1.48038
1.45265
1.42472
1.39659
1.36827
1.33975
1.31103
1.2821
1.25298
1.22365
1.19411
1.16437
1.13442
1.10426
1.07389
1.0433
1.01251
0.981489
0.950259
0.918808
0.887136
0.855244
0.823126
0.790785
0.758217
0.725421
0.692395
0.659138
0.625648
0.591924
0.557963
0.523766
0.489327
0.45465
0.419726
0.38456
0.349145
0.313479
0.277568
0.241391
0.204972
0.168285
0.131333
0.0941418
0.0566647
0.0189275
-25.9014
-23.521
-27.5364
-45.3883
-53.4047
-40.6772
-26.2947
-16.1754
-9.77966
-5.65474
-2.95897
-1.11173
0.187946
1.05528
1.60312
1.93239
2.11294
2.20496
2.24973
2.26913
2.27306
2.26725
2.25535
2.2396
2.22134
2.20144
2.18044
2.15867
2.13637
2.11366
2.09063
2.06734
2.04383
2.02011
1.9962
1.9721
1.94783
1.92338
1.89876
1.87396
1.84899
1.82384
1.79851
1.77301
1.74732
1.72146
1.69542
1.66919
1.64278
1.61618
1.5894
1.56243
1.53527
1.50792
1.48038
1.45265
1.42472
1.39659
1.36827
1.33975
1.31103
1.2821
1.25298
1.22365
1.19411
1.16437
1.13442
1.10426
1.07389
1.0433
1.01251
0.98149
0.950259
0.918808
0.887136
0.855244
0.823127
0.790785
0.758217
0.725421
0.692395
0.659138
0.625648
0.591924
0.557963
0.523766
0.489327
0.45465
0.419726
0.38456
0.349145
0.313479
0.277568
0.24139
0.204972
0.168285
0.131333
0.0941416
0.0566647
0.0189274
-25.9537
-24.1307
-27.4616
-42.1463
-49.0016
-38.2407
-25.0192
-15.6134
-9.79805
-5.98349
-3.31681
-1.39986
-0.0116341
0.919671
1.50954
1.86466
2.06596
2.1739
2.22962
2.25627
2.26479
2.26191
2.25191
2.23738
2.21992
2.20053
2.17986
2.1583
2.13613
2.11351
2.09054
2.06728
2.04379
2.02008
1.99618
1.97209
1.94782
1.92338
1.89876
1.87396
1.84898
1.82384
1.79851
1.77301
1.74732
1.72146
1.69542
1.66919
1.64278
1.61618
1.5894
1.56243
1.53527
1.50792
1.48038
1.45265
1.42472
1.39659
1.36827
1.33975
1.31103
1.2821
1.25298
1.22365
1.19411
1.16437
1.13442
1.10426
1.07389
1.0433
1.01251
0.98149
0.950259
0.918808
0.887136
0.855244
0.823127
0.790785
0.758217
0.725421
0.692395
0.659138
0.625648
0.591924
0.557964
0.523766
0.489327
0.45465
0.419726
0.38456
0.349145
0.313479
0.277567
0.24139
0.204972
0.168285
0.131333
0.0941415
0.0566646
0.0189274
-25.9494
-24.1826
-26.7197
-39.1542
-44.8249
-36.0243
-24.5141
-15.3833
-9.31975
-5.86999
-3.44697
-1.56568
-0.173384
0.785163
1.43126
1.82254
2.03799
2.15241
2.21347
2.24499
2.2572
2.2569
2.24864
2.23526
2.21856
2.19966
2.1793
2.15795
2.13591
2.11337
2.09045
2.06723
2.04376
2.02006
1.99617
1.97209
1.94782
1.92337
1.89875
1.87396
1.84898
1.82384
1.79851
1.77301
1.74732
1.72146
1.69542
1.66919
1.64278
1.61618
1.5894
1.56243
1.53527
1.50792
1.48038
1.45265
1.42472
1.39659
1.36827
1.33975
1.31103
1.2821
1.25298
1.22365
1.19411
1.16437
1.13442
1.10426
1.07389
1.0433
1.01251
0.98149
0.950259
0.918808
0.887137
0.855244
0.823127
0.790786
0.758217
0.725421
0.692395
0.659138
0.625649
0.591925
0.557964
0.523767
0.489327
0.45465
0.419726
0.38456
0.349145
0.313479
0.277567
0.24139
0.204971
0.168285
0.131333
0.0941413
0.0566646
0.0189273
-25.7882
-24.6104
-26.1296
-36.7445
-41.5317
-33.6496
-23.611
-15.4852
-9.62575
-6.07457
-3.68871
-1.76213
-0.309126
0.66294
1.31889
1.74226
1.98823
2.12268
2.19514
2.23345
2.24978
2.25208
2.24551
2.23324
2.21725
2.19882
2.17877
2.15761
2.1357
2.11323
2.09036
2.06718
2.04372
2.02004
1.99616
1.97208
1.94781
1.92337
1.89875
1.87396
1.84898
1.82383
1.79851
1.77301
1.74732
1.72146
1.69542
1.66919
1.64278
1.61618
1.5894
1.56243
1.53527
1.50792
1.48038
1.45265
1.42472
1.39659
1.36827
1.33975
1.31103
1.2821
1.25298
1.22365
1.19411
1.16437
1.13442
1.10426
1.07389
1.0433
1.01251
0.98149
0.950259
0.918808
0.887137
0.855244
0.823127
0.790786
0.758217
0.725421
0.692396
0.659138
0.625649
0.591925
0.557964
0.523767
0.489328
0.45465
0.419726
0.38456
0.349145
0.313479
0.277567
0.24139
0.204971
0.168285
0.131332
0.0941411
0.0566646
0.0189273
-25.7298
-24.7697
-25.69
-34.737
-38.7463
-32.0778
-22.9281
-15.1433
-9.7482
-6.33712
-3.95224
-2.00386
-0.477382
0.595324
1.29882
1.72506
1.96776
2.10292
2.17999
2.22311
2.24295
2.24761
2.2426
2.23136
2.21604
2.19804
2.17827
2.15729
2.13549
2.11311
2.09028
2.06713
2.04369
2.02002
1.99614
1.97207
1.94781
1.92337
1.89875
1.87395
1.84898
1.82383
1.79851
1.77301
1.74732
1.72146
1.69542
1.66919
1.64278
1.61618
1.5894
1.56243
1.53527
1.50792
1.48038
1.45265
1.42472
1.39659
1.36827
1.33975
1.31103
1.28211
1.25298
1.22365
1.19411
1.16437
1.13442
1.10426
1.07389
1.0433
1.01251
0.98149
0.950259
0.918808
0.887137
0.855244
0.823127
0.790786
0.758218
0.725421
0.692396
0.659139
0.625649
0.591925
0.557964
0.523767
0.489328
0.45465
0.419726
0.38456
0.349145
0.313478
0.277567
0.24139
0.204971
0.168285
0.131332
0.094141
0.0566645
0.0189273
-25.6834
-24.9103
-25.5413
-33.1413
-36.383
-30.6186
-22.3124
-14.922
-9.54195
-6.43929
-4.13264
-2.15708
-0.632159
0.409098
1.17136
1.66089
1.93433
2.0829
2.16596
2.21364
2.23659
2.24339
2.23984
2.22958
2.21489
2.19731
2.1778
2.157
2.13531
2.11299
2.09021
2.06708
2.04366
2.02001
1.99613
1.97206
1.94781
1.92337
1.89875
1.87395
1.84898
1.82383
1.79851
1.77301
1.74732
1.72146
1.69542
1.66919
1.64278
1.61618
1.5894
1.56243
1.53527
1.50792
1.48038
1.45265
1.42472
1.39659
1.36827
1.33975
1.31103
1.28211
1.25298
1.22365
1.19411
1.16437
1.13442
1.10426
1.07389
1.0433
1.01251
0.98149
0.950259
0.918808
0.887137
0.855244
0.823127
0.790786
0.758218
0.725421
0.692396
0.659139
0.625649
0.591925
0.557964
0.523767
0.489328
0.45465
0.419726
0.38456
0.349145
0.313478
0.277567
0.241389
0.204971
0.168284
0.131332
0.0941408
0.0566645
0.0189273
-25.6583
-25.0969
-25.4264
-31.8151
-34.5574
-29.3903
-21.6041
-14.8423
-9.77206
-6.64628
-4.39478
-2.37522
-0.759028
0.406205
1.15469
1.62094
1.88777
2.05477
2.1505
2.20442
2.23075
2.23961
2.23737
2.22797
2.21385
2.19664
2.17737
2.15672
2.13513
2.11288
2.09014
2.06704
2.04364
2.01999
1.99612
1.97206
1.9478
1.92336
1.89875
1.87395
1.84898
1.82383
1.79851
1.77301
1.74732
1.72146
1.69542
1.66919
1.64278
1.61618
1.5894
1.56243
1.53527
1.50792
1.48038
1.45265
1.42472
1.39659
1.36827
1.33975
1.31103
1.28211
1.25298
1.22365
1.19411
1.16437
1.13442
1.10426
1.07389
1.0433
1.01251
0.98149
0.950259
0.918808
0.887137
0.855244
0.823127
0.790786
0.758218
0.725421
0.692396
0.659139
0.625649
0.591925
0.557964
0.523767
0.489328
0.45465
0.419726
0.38456
0.349145
0.313478
0.277567
0.241389
0.204971
0.168284
0.131332
0.0941407
0.0566645
0.0189273
-25.6596
-25.2018
-25.3929
-30.6302
-32.7265
-28.2398
-21.2085
-14.5886
-9.76163
-6.80279
-4.49957
-2.49036
-0.93597
0.211169
1.07845
1.63133
1.91464
2.05611
2.14139
2.197
2.22551
2.23608
2.23507
2.22648
2.21289
2.19602
2.17698
2.15647
2.13498
2.11278
2.09008
2.067
2.04361
2.01997
1.99611
1.97205
1.9478
1.92336
1.89875
1.87395
1.84898
1.82383
1.79851
1.77301
1.74732
1.72146
1.69542
1.66919
1.64278
1.61618
1.5894
1.56243
1.53527
1.50792
1.48038
1.45265
1.42472
1.39659
1.36827
1.33975
1.31103
1.28211
1.25298
1.22365
1.19411
1.16437
1.13442
1.10426
1.07389
1.0433
1.01251
0.98149
0.950259
0.918808
0.887137
0.855244
0.823127
0.790786
0.758218
0.725421
0.692396
0.659139
0.625649
0.591925
0.557964
0.523767
0.489328
0.45465
0.419726
0.38456
0.349145
0.313478
0.277567
0.241389
0.204971
0.168284
0.131332
0.0941406
0.0566644
0.0189273
-25.6662
-25.3132
-25.374
-29.7084
-31.3661
-27.1213
-20.678
-14.4328
-9.75682
-7.03169
-4.87172
-2.66774
-0.909018
0.174939
0.990793
1.50801
1.81284
2.01244
2.12648
2.1895
2.22086
2.23307
2.23309
2.22519
2.21205
2.19548
2.17663
2.15625
2.13483
2.11269
2.09002
2.06696
2.04359
2.01996
1.99611
1.97205
1.9478
1.92336
1.89875
1.87395
1.84898
1.82383
1.79851
1.77301
1.74732
1.72146
1.69542
1.66919
1.64278
1.61618
1.5894
1.56243
1.53527
1.50792
1.48038
1.45265
1.42472
1.39659
1.36827
1.33975
1.31103
1.28211
1.25298
1.22365
1.19411
1.16437
1.13442
1.10426
1.07389
1.0433
1.01251
0.98149
0.950259
0.918808
0.887137
0.855244
0.823127
0.790786
0.758218
0.725421
0.692396
0.659139
0.625649
0.591925
0.557964
0.523767
0.489328
0.45465
0.419726
0.38456
0.349145
0.313478
0.277567
0.241389
0.20497
0.168284
0.131332
0.0941404
0.0566644
0.0189273
-25.6365
-25.3857
-25.3882
-28.9529
-30.1646
-26.4274
-20.3514
-14.2828
-9.78032
-7.16577
-5.01611
-2.87543
-1.16833
0.10881
1.07593
1.59376
1.86863
2.03095
2.12194
2.18406
2.2169
2.23037
2.23131
2.22404
2.2113
2.195
2.17633
2.15606
2.13471
2.11261
2.08998
2.06693
2.04357
2.01995
1.9961
1.97204
1.94779
1.92336
1.89874
1.87395
1.84898
1.82383
1.79851
1.77301
1.74732
1.72146
1.69542
1.66919
1.64278
1.61618
1.5894
1.56243
1.53527
1.50792
1.48038
1.45265
1.42472
1.39659
1.36827
1.33975
1.31103
1.28211
1.25298
1.22365
1.19411
1.16437
1.13442
1.10426
1.07389
1.0433
1.01251
0.98149
0.950259
0.918808
0.887137
0.855244
0.823127
0.790786
0.758218
0.725422
0.692396
0.659139
0.625649
0.591925
0.557964
0.523767
0.489328
0.45465
0.419726
0.38456
0.349145
0.313478
0.277567
0.241389
0.20497
0.168284
0.131332
0.0941403
0.0566644
0.0189273
-25.63
-25.4469
-25.3494
-28.3076
-29.1568
-25.6443
-19.9944
-14.1283
-9.79786
-7.37382
-5.23801
-2.96776
-1.18574
0.030438
0.867816
1.45619
1.7923
1.98745
2.1069
2.17846
2.21345
2.22814
2.22984
2.22309
2.21068
2.1946
2.17607
2.15589
2.13461
2.11255
2.08993
2.06691
2.04356
2.01994
1.99609
1.97204
1.94779
1.92336
1.89874
1.87395
1.84898
1.82383
1.79851
1.77301
1.74732
1.72146
1.69542
1.66919
1.64278
1.61618
1.5894
1.56243
1.53527
1.50792
1.48038
1.45265
1.42472
1.39659
1.36827
1.33975
1.31103
1.28211
1.25298
1.22365
1.19411
1.16437
1.13442
1.10426
1.07389
1.0433
1.01251
0.98149
0.950259
0.918808
0.887137
0.855244
0.823127
0.790786
0.758218
0.725422
0.692396
0.659139
0.625649
0.591925
0.557964
0.523767
0.489328
0.45465
0.419726
0.38456
0.349145
0.313478
0.277567
0.241389
0.20497
0.168284
0.131332
0.0941402
0.0566644
0.0189273
-25.5786
-25.5299
-25.3569
-27.7363
-28.3027
-25.0487
-19.7018
-13.9471
-9.81229
-7.54382
-5.45474
-3.16833
-1.2521
0.0511355
0.982016
1.52522
1.83071
2.00107
2.1141
2.17548
2.2109
2.22635
2.22864
2.22231
2.21017
2.19427
2.17586
2.15576
2.13452
2.11249
2.0899
2.06689
2.04354
2.01993
1.99609
1.97204
1.94779
1.92336
1.89874
1.87395
1.84898
1.82383
1.79851
1.77301
1.74732
1.72146
1.69542
1.66919
1.64278
1.61618
1.5894
1.56243
1.53527
1.50792
1.48038
1.45265
1.42472
1.39659
1.36827
1.33975
1.31103
1.28211
1.25298
1.22365
1.19411
1.16437
1.13442
1.10426
1.07389
1.0433
1.01251
0.98149
0.950259
0.918808
0.887137
0.855244
0.823127
0.790786
0.758218
0.725422
0.692396
0.659139
0.625649
0.591925
0.557964
0.523767
0.489328
0.45465
0.419726
0.38456
0.349145
0.313478
0.277567
0.241389
0.20497
0.168284
0.131332
0.0941401
0.0566644
0.0189273
-25.5542
-25.5056
-25.3494
-27.3206
-27.5971
-24.5759
-19.5008
-13.7803
-9.77852
-7.78279
-5.70972
-3.26377
-1.3111
-0.0286745
0.840528
1.42369
1.77228
1.97809
2.10412
2.172
2.20881
2.22498
2.22774
2.22174
2.20978
2.19402
2.17571
2.15566
2.13446
2.11245
2.08988
2.06687
2.04353
2.01993
1.99608
1.97203
1.94779
1.92336
1.89874
1.87395
1.84898
1.82383
1.79851
1.77301
1.74732
1.72146
1.69542
1.66919
1.64278
1.61618
1.5894
1.56243
1.53527
1.50792
1.48038
1.45265
1.42472
1.39659
1.36827
1.33975
1.31103
1.28211
1.25298
1.22365
1.19411
1.16437
1.13442
1.10426
1.07389
1.0433
1.01251
0.981491
0.950259
0.918808
0.887137
0.855244
0.823127
0.790786
0.758218
0.725422
0.692396
0.659139
0.625649
0.591925
0.557964
0.523767
0.489328
0.45465
0.419726
0.38456
0.349145
0.313478
0.277567
0.241389
0.20497
0.168284
0.131332
0.09414
0.0566644
0.0189273
-25.5014
-25.6638
-25.3527
-26.8954
-27.0318
-24.2232
-19.2839
-13.6126
-9.79487
-7.90073
-5.86962
-3.44843
-1.40028
-0.01732
0.92248
1.48828
1.80574
1.98874
2.10468
2.171
2.20765
2.2241
2.22711
2.22115
2.20947
2.19382
2.17555
2.15558
2.13441
2.11243
2.08986
2.06686
2.04353
2.01992
1.99608
1.97203
1.94779
1.92335
1.89874
1.87395
1.84898
1.82383
1.79851
1.77301
1.74732
1.72146
1.69542
1.66919
1.64278
1.61618
1.5894
1.56243
1.53527
1.50792
1.48038
1.45265
1.42472
1.39659
1.36827
1.33975
1.31103
1.28211
1.25298
1.22365
1.19411
1.16437
1.13442
1.10426
1.07389
1.0433
1.01251
0.981491
0.950259
0.918808
0.887137
0.855244
0.823127
0.790786
0.758218
0.725422
0.692396
0.659139
0.625649
0.591925
0.557964
0.523767
0.489328
0.45465
0.419726
0.38456
0.349145
0.313478
0.277567
0.241389
0.20497
0.168284
0.131332
0.0941399
0.0566645
0.0189273
-25.4588
-25.7049
-25.3698
-26.599
-26.5537
-23.9729
-19.1803
-13.3518
-9.73734
-8.20288
-6.07659
-3.44533
-1.39579
-0.0431239
0.851904
1.43001
1.77525
1.97752
2.10091
2.1698
2.20697
2.22368
2.22683
2.22097
2.20935
2.19374
2.17551
2.15555
2.13439
2.11241
2.08985
2.06685
2.04352
2.01992
1.99608
1.97203
1.94779
1.92335
1.89874
1.87395
1.84898
1.82383
1.79851
1.77301
1.74732
1.72146
1.69542
1.66919
1.64278
1.61618
1.5894
1.56243
1.53527
1.50792
1.48038
1.45265
1.42472
1.39659
1.36827
1.33975
1.31103
1.28211
1.25298
1.22365
1.19411
1.16437
1.13442
1.10426
1.07389
1.0433
1.01251
0.981491
0.950259
0.918808
0.887137
0.855244
0.823127
0.790786
0.758218
0.725422
0.692396
0.659139
0.625649
0.591925
0.557964
0.523767
0.489328
0.45465
0.419726
0.38456
0.349145
0.313478
0.277567
0.241389
0.20497
0.168284
0.131332
0.0941398
0.0566645
0.0189274
-25.3958
-25.7252
-25.3836
-26.4058
-26.3096
-23.8387
-19.0532
-13.2658
-9.68436
-8.13226
-6.0852
-3.54655
-1.43592
-0.0351345
0.892417
1.46572
1.7948
1.98516
2.10287
2.17016
2.20691
2.22353
2.2267
2.22088
2.20928
2.1937
2.17548
2.15553
2.13438
2.11241
2.08985
2.06685
2.04352
2.01992
1.99608
1.97203
1.94779
1.92335
1.89874
1.87395
1.84898
1.82383
1.79851
1.77301
1.74732
1.72146
1.69542
1.66919
1.64278
1.61618
1.5894
1.56243
1.53527
1.50792
1.48038
1.45265
1.42472
1.39659
1.36827
1.33975
1.31103
1.28211
1.25298
1.22365
1.19411
1.16437
1.13442
1.10426
1.07389
1.0433
1.01251
0.981491
0.950259
0.918808
0.887137
0.855244
0.823127
0.790786
0.758218
0.725422
0.692396
0.659139
0.625649
0.591925
0.557964
0.523767
0.489328
0.45465
0.419726
0.38456
0.349145
0.313478
0.277567
0.241389
0.20497
0.168284
0.131332
0.0941397
0.0566646
0.0189274
-22.2124
-24.1322
-30.7325
-47.5548
-53.8471
-44.5161
-25.4791
-9.20053
1.15136
5.26919
6.30077
5.93315
5.17323
4.42289
3.81001
3.35657
3.03211
2.80043
2.63539
2.51775
2.43269
2.36955
2.32076
2.28133
2.24791
2.21832
2.19114
2.16544
2.14063
2.11634
2.09231
2.06839
2.04448
2.02051
1.99645
1.97226
1.94793
1.92344
1.89879
1.87398
1.849
1.82384
1.79852
1.77301
1.74733
1.72146
1.69542
1.66919
1.64278
1.61618
1.5894
1.56243
1.53527
1.50792
1.48038
1.45265
1.42472
1.39659
1.36827
1.33975
1.31103
1.28211
1.25298
1.22365
1.19411
1.16437
1.13442
1.10426
1.07389
1.0433
1.0125
0.981491
0.950259
0.918809
0.887137
0.855244
0.823128
0.790786
0.758218
0.725422
0.692396
0.659139
0.625649
0.591925
0.557964
0.523767
0.489328
0.45465
0.419726
0.38456
0.349144
0.313478
0.277567
0.241388
0.20497
0.168284
0.131331
0.0941396
0.0566648
0.0189272
-21.6342
-24.2793
-30.9749
-47.8764
-54.6632
-45.0395
-25.7712
-9.35671
1.02471
5.18494
6.23904
5.89038
5.14491
4.40447
3.79805
3.34869
3.0269
2.79707
2.63335
2.51652
2.43197
2.36911
2.32051
2.28118
2.24782
2.21827
2.19111
2.16542
2.14062
2.11633
2.09231
2.06839
2.04448
2.02051
1.99645
1.97226
1.94793
1.92344
1.89879
1.87398
1.849
1.82384
1.79852
1.77301
1.74733
1.72146
1.69542
1.66919
1.64278
1.61618
1.5894
1.56243
1.53527
1.50792
1.48038
1.45265
1.42472
1.39659
1.36827
1.33975
1.31103
1.28211
1.25298
1.22365
1.19411
1.16437
1.13442
1.10426
1.07389
1.0433
1.0125
0.981491
0.950259
0.918809
0.887137
0.855244
0.823128
0.790786
0.758218
0.725422
0.692396
0.659139
0.625649
0.591925
0.557964
0.523767
0.489328
0.45465
0.419726
0.38456
0.349144
0.313478
0.277567
0.241388
0.20497
0.168284
0.131331
0.0941397
0.0566648
0.0189272
-22.6562
-24.3299
-30.7135
-49.0511
-56.061
-46.2021
-26.317
-9.67024
0.774395
4.99636
6.11751
5.80345
5.08704
4.36679
3.77374
3.33295
3.01679
2.79074
2.62948
2.51422
2.43066
2.36833
2.32005
2.2809
2.24766
2.21817
2.19105
2.16539
2.1406
2.11632
2.0923
2.06838
2.04448
2.02051
1.99645
1.97226
1.94793
1.92344
1.89879
1.87398
1.849
1.82384
1.79852
1.77301
1.74733
1.72146
1.69542
1.66919
1.64278
1.61618
1.5894
1.56243
1.53527
1.50792
1.48038
1.45265
1.42472
1.39659
1.36827
1.33975
1.31103
1.28211
1.25298
1.22365
1.19411
1.16437
1.13442
1.10426
1.07389
1.0433
1.0125
0.981491
0.950259
0.918808
0.887137
0.855244
0.823128
0.790786
0.758218
0.725422
0.692396
0.659139
0.625649
0.591925
0.557964
0.523767
0.489328
0.45465
0.419726
0.38456
0.349144
0.313478
0.277567
0.241388
0.20497
0.168284
0.131331
0.0941398
0.0566647
0.0189271
-21.6166
-26.1532
-31.4129
-50.5724
-58.1948
-47.9435
-27.1711
-10.1463
0.398391
4.72645
5.9291
5.67211
4.99969
4.31026
3.73785
3.31016
3.00234
2.78164
2.6238
2.51072
2.4285
2.367
2.31922
2.28039
2.24734
2.21797
2.19092
2.16531
2.14055
2.11629
2.09228
2.06837
2.04447
2.02051
1.99644
1.97226
1.94792
1.92344
1.89879
1.87398
1.849
1.82384
1.79852
1.77301
1.74733
1.72146
1.69542
1.66919
1.64278
1.61618
1.5894
1.56243
1.53527
1.50792
1.48038
1.45265
1.42472
1.39659
1.36827
1.33975
1.31103
1.28211
1.25298
1.22365
1.19411
1.16437
1.13442
1.10426
1.07389
1.0433
1.0125
0.981491
0.950259
0.918808
0.887137
0.855244
0.823128
0.790786
0.758218
0.725422
0.692396
0.659139
0.625649
0.591925
0.557964
0.523767
0.489328
0.45465
0.419726
0.38456
0.349144
0.313478
0.277567
0.241388
0.20497
0.168284
0.131331
0.0941398
0.0566647
0.0189271
-21.5885
-25.3936
-32.0709
-52.1191
-61.1519
-49.9896
-28.211
-10.7925
-0.0611118
4.35644
5.67362
5.49692
4.88356
4.23522
3.69021
3.27992
2.98317
2.76954
2.61622
2.506
2.42557
2.36518
2.31809
2.27969
2.2469
2.2177
2.19075
2.1652
2.14049
2.11625
2.09226
2.06836
2.04446
2.0205
1.99644
1.97225
1.94792
1.92344
1.89879
1.87398
1.849
1.82384
1.79851
1.77301
1.74733
1.72146
1.69542
1.66919
1.64278
1.61618
1.5894
1.56243
1.53527
1.50792
1.48038
1.45265
1.42472
1.39659
1.36827
1.33975
1.31103
1.28211
1.25298
1.22365
1.19411
1.16437
1.13442
1.10426
1.07389
1.0433
1.0125
0.981491
0.950259
0.918808
0.887137
0.855244
0.823128
0.790786
0.758218
0.725422
0.692396
0.659139
0.625649
0.591925
0.557964
0.523767
0.489328
0.45465
0.419726
0.38456
0.349144
0.313478
0.277567
0.241388
0.20497
0.168284
0.131331
0.0941399
0.0566647
0.0189271
-22.1436
-25.7769
-32.5314
-54.4582
-64.2583
-52.4368
-29.2676
-11.4532
-0.608089
3.89804
5.35153
5.27826
4.73944
4.14249
3.63154
3.24281
2.9597
2.75473
2.6069
2.50016
2.42192
2.3629
2.31667
2.2788
2.24634
2.21735
2.19053
2.16506
2.1404
2.11619
2.09222
2.06834
2.04445
2.02049
1.99644
1.97225
1.94792
1.92344
1.89879
1.87398
1.849
1.82384
1.79851
1.77301
1.74733
1.72146
1.69542
1.66919
1.64278
1.61618
1.5894
1.56243
1.53527
1.50792
1.48038
1.45265
1.42472
1.39659
1.36827
1.33975
1.31103
1.28211
1.25298
1.22365
1.19411
1.16437
1.13442
1.10426
1.07389
1.0433
1.0125
0.981491
0.950259
0.918808
0.887137
0.855244
0.823128
0.790786
0.758218
0.725422
0.692396
0.659139
0.625649
0.591925
0.557964
0.523767
0.489328
0.45465
0.419726
0.38456
0.349144
0.313478
0.277567
0.241388
0.20497
0.168284
0.131331
0.09414
0.0566647
0.0189271
-22.5621
-26.0872
-32.9394
-56.934
-67.5065
-54.8267
-30.2617
-12.0798
-1.20519
3.36992
4.96497
5.01723
4.56832
4.03274
3.56219
3.19899
2.93199
2.73724
2.59587
2.49321
2.41755
2.36017
2.31495
2.27772
2.24566
2.21692
2.19026
2.16489
2.14029
2.11613
2.09218
2.06831
2.04443
2.02048
1.99643
1.97225
1.94792
1.92344
1.89879
1.87398
1.849
1.82384
1.79851
1.77301
1.74733
1.72146
1.69542
1.66919
1.64278
1.61618
1.5894
1.56243
1.53527
1.50792
1.48038
1.45265
1.42472
1.39659
1.36827
1.33975
1.31103
1.28211
1.25298
1.22365
1.19411
1.16437
1.13442
1.10426
1.07389
1.0433
1.0125
0.981491
0.950258
0.918808
0.887137
0.855244
0.823128
0.790786
0.758218
0.725422
0.692396
0.659139
0.625649
0.591925
0.557964
0.523767
0.489328
0.45465
0.419726
0.38456
0.349144
0.313478
0.277567
0.241388
0.20497
0.168284
0.131331
0.0941401
0.0566647
0.018927
-23.0799
-26.2671
-33.6481
-59.1491
-70.7101
-57.2448
-31.1013
-12.6386
-1.84629
2.78863
4.52012
4.71564
4.3717
3.90722
3.48302
3.14899
2.90036
2.71724
2.58324
2.48523
2.41252
2.35699
2.31295
2.27645
2.24487
2.21642
2.18995
2.16469
2.14017
2.11605
2.09213
2.06828
2.04441
2.02047
1.99642
1.97224
1.94792
1.92343
1.89879
1.87398
1.849
1.82384
1.79851
1.77301
1.74732
1.72146
1.69542
1.66919
1.64278
1.61618
1.5894
1.56243
1.53527
1.50792
1.48038
1.45265
1.42472
1.39659
1.36827
1.33975
1.31103
1.28211
1.25298
1.22365
1.19411
1.16437
1.13442
1.10426
1.07389
1.0433
1.0125
0.981491
0.950258
0.918808
0.887137
0.855244
0.823128
0.790786
0.758218
0.725422
0.692396
0.659139
0.625649
0.591925
0.557964
0.523767
0.489328
0.45465
0.419726
0.38456
0.349144
0.313478
0.277567
0.241388
0.20497
0.168285
0.131331
0.0941402
0.0566648
0.018927
-23.4629
-26.321
-34.356
-61.5056
-73.7054
-59.2113
-31.7874
-13.1679
-2.52568
2.16066
4.02445
4.37676
4.15123
3.76705
3.39475
3.09325
2.86506
2.6949
2.56909
2.47627
2.40685
2.35341
2.31068
2.27502
2.24396
2.21584
2.18958
2.16447
2.14002
2.11596
2.09207
2.06825
2.04439
2.02046
1.99641
1.97224
1.94791
1.92343
1.89879
1.87398
1.849
1.82384
1.79851
1.77301
1.74732
1.72146
1.69542
1.66919
1.64278
1.61618
1.5894
1.56243
1.53527
1.50792
1.48038
1.45265
1.42472
1.39659
1.36827
1.33975
1.31103
1.28211
1.25298
1.22365
1.19411
1.16437
1.13442
1.10426
1.07389
1.0433
1.0125
0.981491
0.950258
0.918808
0.887137
0.855244
0.823128
0.790786
0.758218
0.725422
0.692396
0.659139
0.625649
0.591925
0.557964
0.523766
0.489328
0.45465
0.419726
0.38456
0.349144
0.313478
0.277567
0.241388
0.20497
0.168285
0.131331
0.0941403
0.0566648
0.018927
-23.5944
-26.2819
-34.8589
-63.5247
-76.2071
-60.8444
-32.4229
-13.6784
-3.24028
1.48566
3.48342
4.00465
3.90939
3.61377
3.29839
3.0324
2.82646
2.67041
2.55355
2.4664
2.40059
2.34944
2.30816
2.27343
2.24295
2.21521
2.18918
2.16421
2.13986
2.11586
2.09201
2.06821
2.04437
2.02044
1.9964
1.97223
1.94791
1.92343
1.89879
1.87398
1.849
1.82384
1.79851
1.77301
1.74732
1.72146
1.69542
1.66919
1.64278
1.61618
1.5894
1.56243
1.53527
1.50792
1.48038
1.45265
1.42472
1.39659
1.36827
1.33975
1.31103
1.28211
1.25298
1.22365
1.19411
1.16437
1.13442
1.10426
1.07389
1.0433
1.0125
0.981491
0.950258
0.918808
0.887137
0.855244
0.823128
0.790786
0.758218
0.725422
0.692396
0.659139
0.625649
0.591925
0.557964
0.523766
0.489328
0.45465
0.419726
0.38456
0.349144
0.313478
0.277568
0.241388
0.204971
0.168285
0.131331
0.0941404
0.0566649
0.018927
-23.8068
-26.4087
-35.2867
-64.8395
-78.2547
-62.2403
-33.1392
-14.2371
-4.02758
0.767697
2.9068
3.60409
3.64888
3.44891
3.19486
2.96702
2.78492
2.64399
2.53673
2.4557
2.39378
2.34511
2.30542
2.27168
2.24184
2.21451
2.18874
2.16393
2.13969
2.11575
2.09194
2.06816
2.04434
2.02043
1.99639
1.97222
1.94791
1.92343
1.89879
1.87398
1.849
1.82384
1.79851
1.77301
1.74732
1.72146
1.69542
1.66919
1.64278
1.61618
1.5894
1.56243
1.53527
1.50792
1.48038
1.45265
1.42472
1.39659
1.36827
1.33975
1.31103
1.28211
1.25298
1.22365
1.19411
1.16437
1.13442