/*--------------------------------*- C++ -*----------------------------------*\
| =========                 |                                                 |
| \\      /  F ield         | OpenFOAM: The Open Source CFD Toolbox           |
|  \\    /   O peration     | Version:  2.4.0                                 |
|   \\  /    A nd           | Web:      www.OpenFOAM.org                      |
|    \\/     M anipulation  |                                                 |
\*---------------------------------------------------------------------------*/
FoamFile
{
    version     2.0;
    format      ascii;
    class       surfaceScalarField;
    location    "1.82";
    object      phi;
}
// * * * * * * * * * * * * * * * * * * * * * * * * * * * * * * * * * * * * * //

dimensions      [0 3 -1 0 0 0 0];

internalField   nonuniform List<scalar> 
17320
(
1.76391e-05
7.36092e-06
1.16188e-05
6.02023e-06
8.68194e-06
2.93691e-06
7.35541e-06
1.32653e-06
6.71808e-06
6.37329e-07
6.34584e-06
3.72243e-07
6.07231e-06
2.73532e-07
5.87489e-06
1.97413e-07
5.70443e-06
1.70458e-07
5.57871e-06
1.25728e-07
5.48313e-06
9.55771e-08
5.38662e-06
9.6506e-08
5.2907e-06
9.59193e-08
5.23815e-06
5.25558e-08
5.11418e-06
1.23967e-07
5.07277e-06
4.14063e-08
4.94505e-06
1.27725e-07
4.96437e-06
-1.93217e-08
4.70431e-06
2.6006e-07
-5.92783e-07
5.29709e-06
2.54644e-05
6.89656e-06
2.32485e-05
8.23608e-06
2.09917e-05
5.19373e-06
1.93185e-05
2.99975e-06
1.80773e-05
1.87846e-06
1.71138e-05
1.3358e-06
1.63624e-05
1.02488e-06
1.57775e-05
7.82326e-07
1.53036e-05
6.44351e-07
1.49344e-05
4.94955e-07
1.46354e-05
3.9453e-07
1.43704e-05
3.61565e-07
1.41334e-05
3.32897e-07
1.39515e-05
2.34505e-07
1.36947e-05
3.80714e-07
1.35624e-05
1.73755e-07
1.32889e-05
4.0117e-07
1.32527e-05
1.68631e-08
1.30755e-05
4.37298e-07
-6.05982e-07
1.30887e-05
2.66248e-05
5.27178e-06
2.71526e-05
7.70823e-06
2.67848e-05
5.56153e-06
2.62503e-05
3.53425e-06
2.561e-05
2.51878e-06
2.48729e-05
2.07297e-06
2.41601e-05
1.73761e-06
2.35059e-05
1.4366e-06
2.29276e-05
1.22256e-06
2.24495e-05
9.73145e-07
2.20351e-05
8.08834e-07
2.167e-05
7.26699e-07
2.13487e-05
6.54225e-07
2.10829e-05
5.00253e-07
2.07574e-05
7.06208e-07
2.05505e-05
3.80688e-07
2.02376e-05
7.14091e-07
2.00844e-05
1.7009e-07
2.00242e-05
4.97507e-07
-9.12063e-07
2.03302e-05
2.63317e-05
3.94012e-06
2.75329e-05
6.507e-06
2.8087e-05
5.00743e-06
2.8455e-05
3.16621e-06
2.86578e-05
2.31597e-06
2.8627e-05
2.10382e-06
2.84767e-05
1.88787e-06
2.82405e-05
1.6728e-06
2.79565e-05
1.50659e-06
2.76988e-05
1.2308e-06
2.74315e-05
1.07621e-06
2.71596e-05
9.98606e-07
2.69162e-05
8.97598e-07
2.66783e-05
7.38182e-07
2.64136e-05
9.70884e-07
2.61645e-05
6.29787e-07
2.59296e-05
9.49001e-07
2.56617e-05
4.37997e-07
2.54714e-05
6.87807e-07
-3.58006e-07
2.49173e-05
2.60443e-05
2.89585e-06
2.72469e-05
5.30438e-06
2.80432e-05
4.21109e-06
2.85002e-05
2.70925e-06
2.89853e-05
1.83085e-06
2.93357e-05
1.75338e-06
2.95883e-05
1.63535e-06
2.97467e-05
1.51438e-06
2.98392e-05
1.41403e-06
2.9908e-05
1.16204e-06
2.99592e-05
1.02497e-06
2.99515e-05
1.00639e-06
2.99658e-05
8.83254e-07
2.99088e-05
7.95229e-07
2.99149e-05
9.647e-07
2.97501e-05
7.94639e-07
2.96678e-05
1.03125e-06
2.94633e-05
6.42485e-07
2.93369e-05
8.14297e-07
5.36013e-07
2.84428e-05
2.58215e-05
2.07431e-06
2.69589e-05
4.16704e-06
2.78154e-05
3.35461e-06
2.82282e-05
2.29642e-06
2.8718e-05
1.341e-06
2.91017e-05
1.36976e-06
2.94736e-05
1.26344e-06
2.96976e-05
1.29035e-06
3.00096e-05
1.10203e-06
3.01481e-05
1.02357e-06
3.04122e-05
7.60865e-07
3.05082e-05
9.10336e-07
3.0746e-05
6.45452e-07
3.07782e-05
7.63101e-07
3.10974e-05
6.4548e-07
3.09876e-05
9.0437e-07
3.11533e-05
8.65615e-07
3.0994e-05
8.01816e-07
3.10201e-05
7.88191e-07
1.53234e-06
3.00237e-05
2.56773e-05
1.39702e-06
2.67256e-05
3.11869e-06
2.76216e-05
2.45868e-06
2.80427e-05
1.87531e-06
2.84473e-05
9.36377e-07
2.88354e-05
9.81623e-07
2.92499e-05
8.49002e-07
2.94306e-05
1.10965e-06
2.98558e-05
6.76815e-07
2.99402e-05
9.39152e-07
3.02606e-05
4.40513e-07
3.0364e-05
8.06939e-07
3.06404e-05
3.69047e-07
3.06976e-05
7.05921e-07
3.11054e-05
2.37632e-07
3.09685e-05
1.04126e-06
3.13911e-05
4.43041e-07
3.1207e-05
9.85916e-07
3.09059e-05
1.08927e-06
2.3491e-06
3.00892e-05
2.5569e-05
8.28044e-07
2.65723e-05
2.11538e-06
2.74436e-05
1.58734e-06
2.79875e-05
1.33142e-06
2.83183e-05
6.05556e-07
2.87084e-05
5.91597e-07
2.89908e-05
5.66605e-07
2.92638e-05
8.36632e-07
2.96434e-05
2.97223e-07
2.98297e-05
7.52853e-07
3.00745e-05
1.95677e-07
3.02861e-05
5.95344e-07
3.03683e-05
2.8683e-07
3.06793e-05
3.94895e-07
3.07477e-05
1.69224e-07
3.09371e-05
8.51927e-07
3.11711e-05
2.09059e-07
3.14615e-05
6.95448e-07
3.17901e-05
7.60744e-07
1.13729e-06
3.30019e-05
2.54543e-05
3.73744e-07
2.65003e-05
1.06941e-06
2.73236e-05
7.64036e-07
2.79322e-05
7.2281e-07
2.82692e-05
2.68577e-07
2.85572e-05
3.0358e-07
2.88624e-05
2.61346e-07
2.92266e-05
4.72514e-07
2.94679e-05
5.59121e-08
2.97458e-05
4.7495e-07
2.99409e-05
5.17033e-10
3.01327e-05
4.03558e-07
3.03063e-05
1.1321e-07
3.05495e-05
1.51777e-07
3.05943e-05
1.24368e-07
3.09817e-05
4.64587e-07
3.1041e-05
1.49743e-07
3.13694e-05
3.66987e-07
3.17161e-05
4.14025e-07
6.55238e-07
3.21982e-05
2.54269e-05
-5.32004e-08
2.64572e-05
3.91074e-08
2.72376e-05
-1.62761e-08
2.78979e-05
6.24596e-08
2.82222e-05
-5.57057e-08
2.85086e-05
1.72214e-08
2.88413e-05
-7.13783e-08
2.91506e-05
1.63224e-07
2.93789e-05
-1.72472e-07
2.97393e-05
1.14579e-07
2.98753e-05
-1.35511e-07
3.01111e-05
1.67827e-07
3.02972e-05
-7.28836e-08
3.04099e-05
3.90417e-08
3.06718e-05
-1.37503e-07
3.09004e-05
2.35932e-07
3.10013e-05
4.89112e-08
3.13432e-05
2.50904e-08
3.16428e-05
1.14431e-07
4.42319e-07
3.18557e-05
2.54272e-05
-4.80424e-07
2.64245e-05
-9.58184e-07
2.72495e-05
-8.4126e-07
2.78932e-05
-5.81253e-07
2.82015e-05
-3.63963e-07
2.85132e-05
-2.94558e-07
2.88482e-05
-4.06339e-07
2.91782e-05
-1.66744e-07
2.93592e-05
-3.53472e-07
2.97362e-05
-2.62417e-07
2.98237e-05
-2.23048e-07
3.01554e-05
-1.63899e-07
3.02271e-05
-1.4457e-07
3.04452e-05
-1.79024e-07
3.06352e-05
-3.27509e-07
3.08464e-05
2.47378e-08
3.1071e-05
-1.75677e-07
3.13833e-05
-2.87255e-07
3.16109e-05
-1.13145e-07
1.30381e-07
3.19228e-05
2.54505e-05
-9.30884e-07
2.64682e-05
-1.97597e-06
2.73277e-05
-1.70069e-06
2.79554e-05
-1.20902e-06
2.82493e-05
-6.57796e-07
2.85498e-05
-5.95112e-07
2.88742e-05
-7.30684e-07
2.92255e-05
-5.18041e-07
2.94743e-05
-6.02292e-07
2.97628e-05
-5.50975e-07
2.9887e-05
-3.47163e-07
3.01598e-05
-4.36739e-07
3.03369e-05
-3.21636e-07
3.05393e-05
-3.81437e-07
3.06392e-05
-4.2743e-07
3.09347e-05
-2.70794e-07
3.11546e-05
-3.95575e-07
3.13731e-05
-5.05685e-07
3.1723e-05
-4.63065e-07
-1.16752e-07
3.19701e-05
2.55404e-05
-1.47128e-06
2.65893e-05
-3.02486e-06
2.74262e-05
-2.53764e-06
2.80144e-05
-1.79717e-06
2.83342e-05
-9.77605e-07
2.86957e-05
-9.56579e-07
2.89682e-05
-1.00323e-06
2.9326e-05
-8.75793e-07
2.95793e-05
-8.55661e-07
2.98463e-05
-8.17944e-07
3.0022e-05
-5.22859e-07
3.02634e-05
-6.78175e-07
3.04326e-05
-4.90807e-07
3.06486e-05
-5.97382e-07
3.07579e-05
-5.36729e-07
3.10495e-05
-5.62465e-07
3.12408e-05
-5.86824e-07
3.15211e-05
-7.86019e-07
3.17428e-05
-6.84807e-07
-3.07986e-07
3.19341e-05
2.56713e-05
-2.14253e-06
2.6732e-05
-4.08561e-06
2.75955e-05
-3.40116e-06
2.80766e-05
-2.27826e-06
2.84735e-05
-1.37445e-06
2.88529e-05
-1.33599e-06
2.91647e-05
-1.31505e-06
2.95035e-05
-1.21457e-06
2.97513e-05
-1.10351e-06
3.00009e-05
-1.06752e-06
3.02135e-05
-7.35451e-07
3.04342e-05
-8.9885e-07
3.0573e-05
-6.29676e-07
3.08029e-05
-8.27283e-07
3.09209e-05
-6.54661e-07
3.11726e-05
-8.14184e-07
3.13835e-05
-7.97741e-07
3.16609e-05
-1.06347e-06
3.18557e-05
-8.796e-07
-7.29656e-07
3.22774e-05
2.58349e-05
-2.97742e-06
2.69528e-05
-5.20348e-06
2.78174e-05
-4.26579e-06
2.82394e-05
-2.70025e-06
2.86965e-05
-1.83162e-06
2.91031e-05
-1.74249e-06
2.94373e-05
-1.64928e-06
2.97214e-05
-1.49865e-06
2.9978e-05
-1.36019e-06
3.0181e-05
-1.27047e-06
3.03887e-05
-9.43121e-07
3.05383e-05
-1.04847e-06
3.07005e-05
-7.91843e-07
3.08513e-05
-9.78089e-07
3.09537e-05
-7.57133e-07
3.11127e-05
-9.73127e-07
3.12192e-05
-9.0429e-07
3.14157e-05
-1.25993e-06
3.15718e-05
-1.03575e-06
-1.12726e-06
3.19694e-05
2.60307e-05
-4.00808e-06
2.72434e-05
-6.41623e-06
2.80394e-05
-5.06176e-06
2.84924e-05
-3.15328e-06
2.89733e-05
-2.31251e-06
2.93282e-05
-2.09744e-06
2.95796e-05
-1.90067e-06
2.97356e-05
-1.65464e-06
2.98534e-05
-1.47796e-06
2.98981e-05
-1.31515e-06
2.99598e-05
-1.00486e-06
2.99388e-05
-1.02741e-06
2.99662e-05
-8.19299e-07
2.99082e-05
-9.20109e-07
2.98769e-05
-7.2574e-07
2.98089e-05
-9.052e-07
2.97226e-05
-8.17922e-07
2.96586e-05
-1.19595e-06
2.96048e-05
-9.82006e-07
-1.27367e-06
2.97512e-05
2.63051e-05
-5.31316e-06
2.75485e-05
-7.65961e-06
2.8073e-05
-5.58632e-06
2.84434e-05
-3.52364e-06
2.86455e-05
-2.51459e-06
2.86249e-05
-2.07689e-06
2.84674e-05
-1.74319e-06
2.82373e-05
-1.42447e-06
2.79648e-05
-1.20546e-06
2.7679e-05
-1.02938e-06
2.7434e-05
-7.59836e-07
2.7152e-05
-7.45407e-07
2.69274e-05
-5.94726e-07
2.66508e-05
-6.43493e-07
2.64372e-05
-5.12185e-07
2.61673e-05
-6.35313e-07
2.59257e-05
-5.76319e-07
2.56079e-05
-8.78155e-07
2.54014e-05
-7.75481e-07
-1.17724e-06
2.5305e-05
2.66043e-05
-6.9175e-06
2.71622e-05
-8.21744e-06
2.67731e-05
-5.19727e-06
2.62465e-05
-2.99704e-06
2.56053e-05
-1.87339e-06
2.48712e-05
-1.34279e-06
2.41516e-05
-1.02357e-06
2.35089e-05
-7.81788e-07
2.29296e-05
-6.26178e-07
2.2434e-05
-5.33779e-07
2.20391e-05
-3.64928e-07
2.16658e-05
-3.72052e-07
2.13635e-05
-2.92453e-07
2.10504e-05
-3.30448e-07
2.08001e-05
-2.6182e-07
2.05021e-05
-3.37318e-07
2.02411e-05
-3.15309e-07
1.98434e-05
-4.80522e-07
1.95052e-05
-4.37279e-07
-3.69506e-07
1.86975e-05
2.545e-05
-7.36754e-06
2.32486e-05
-6.01597e-06
2.09849e-05
-2.93358e-06
1.93166e-05
-1.32879e-06
1.80776e-05
-6.34337e-07
1.7111e-05
-3.76216e-07
1.63591e-05
-2.71626e-07
1.57779e-05
-2.00589e-07
1.53083e-05
-1.56664e-07
1.49216e-05
-1.47059e-07
1.46389e-05
-8.22204e-08
1.43678e-05
-1.00946e-07
1.41506e-05
-7.52744e-08
1.39192e-05
-9.90156e-08
1.37318e-05
-7.44554e-08
1.35009e-05
-1.0637e-07
1.32848e-05
-9.9227e-08
1.29681e-05
-1.6385e-07
1.27285e-05
-1.97617e-07
-2.55192e-08
1.23845e-05
1.76325e-05
1.16165e-05
8.6829e-06
7.35412e-06
6.71978e-06
6.34357e-06
6.07194e-06
5.87135e-06
5.71469e-06
5.56763e-06
5.48541e-06
5.38446e-06
5.30919e-06
5.21017e-06
5.13572e-06
5.02935e-06
4.93012e-06
4.76627e-06
4.56865e-06
4.54313e-06
5.53561e-06
-3.11538e-07
7.30209e-08
5.80374e-06
7.36757e-08
-3.41808e-07
6.07997e-06
3.33306e-07
-6.09528e-07
6.48597e-06
4.23536e-07
-8.29535e-07
7.00932e-06
4.15499e-07
-9.38855e-07
7.55298e-06
3.41645e-07
-8.85307e-07
8.05828e-06
2.40943e-07
-7.4624e-07
8.47047e-06
1.26988e-07
-5.39182e-07
8.76253e-06
4.20374e-09
-2.96255e-07
8.88941e-06
-9.04364e-08
-3.64482e-08
8.93282e-06
-1.76977e-07
1.33569e-07
8.91267e-06
-2.24084e-07
2.44236e-07
8.87469e-06
-2.4471e-07
2.82685e-07
8.86045e-06
-2.28935e-07
2.43181e-07
8.89959e-06
-1.87254e-07
1.48114e-07
9.01492e-06
-1.27301e-07
1.19718e-08
9.19819e-06
-8.92723e-08
-9.40021e-08
9.41522e-06
-8.00908e-08
-1.36939e-07
9.65962e-06
-1.28772e-07
-1.15625e-07
9.87767e-06
-2.081e-07
-9.95188e-09
1.00309e-05
-3.11045e-07
1.57791e-07
1.01282e-05
-4.54179e-07
3.56948e-07
1.01658e-05
-5.57081e-07
5.19462e-07
1.01863e-05
-6.34507e-07
6.1401e-07
1.02067e-05
-6.45249e-07
6.24833e-07
1.02593e-05
-5.96411e-07
5.43754e-07
1.03486e-05
-5.48777e-07
4.59529e-07
1.0447e-05
-4.74592e-07
3.76231e-07
1.05528e-05
-4.16945e-07
3.11122e-07
1.06517e-05
-3.44559e-07
2.45608e-07
1.07451e-05
-3.05331e-07
2.11958e-07
1.08533e-05
-2.6386e-07
1.55673e-07
1.09845e-05
-1.95843e-07
6.462e-08
1.1138e-05
-1.22272e-07
-3.12564e-08
1.12936e-05
-3.67775e-08
-1.18787e-07
1.14662e-05
1.76087e-08
-1.90252e-07
1.16396e-05
3.96338e-08
-2.12949e-07
1.18186e-05
7.5977e-08
-2.55025e-07
1.2003e-05
5.4962e-08
-2.39324e-07
1.21745e-05
5.93345e-08
-2.30839e-07
1.23332e-05
3.75974e-08
-1.9634e-07
1.24862e-05
1.59542e-08
-1.68897e-07
1.26476e-05
-1.64985e-10
-1.61313e-07
1.2825e-05
1.44066e-08
-1.91762e-07
1.30144e-05
1.76615e-09
-1.91203e-07
1.32339e-05
1.79771e-08
-2.37434e-07
1.34646e-05
5.21623e-08
-2.82856e-07
1.37087e-05
1.30626e-08
-2.57222e-07
1.39643e-05
6.18844e-08
-3.17472e-07
1.42494e-05
1.16555e-07
-4.01616e-07
1.46171e-05
1.04455e-07
-4.72214e-07
1.49811e-05
1.69949e-07
-5.33876e-07
1.54245e-05
1.19242e-07
-5.62684e-07
1.58671e-05
9.145e-08
-5.3407e-07
1.63195e-05
1.39665e-08
-4.66298e-07
1.67332e-05
-2.14539e-07
-1.99228e-07
1.70908e-05
-3.58918e-07
1.3628e-09
1.74746e-05
-5.84644e-07
2.00865e-07
1.78409e-05
-9.54924e-07
5.88564e-07
1.8077e-05
-1.00599e-06
7.69892e-07
1.84021e-05
-1.33986e-06
1.01478e-06
1.87681e-05
-1.75631e-06
1.39034e-06
1.90206e-05
-1.66224e-06
1.40971e-06
1.92929e-05
-2.08536e-06
1.81306e-06
1.9682e-05
-2.48908e-06
2.09999e-06
1.99689e-05
-2.33542e-06
2.04852e-06
2.02311e-05
-2.64575e-06
2.38351e-06
2.05966e-05
-3.08113e-06
2.71567e-06
2.0945e-05
-3.0568e-06
2.7084e-06
2.12722e-05
-3.0727e-06
2.74548e-06
2.17024e-05
-3.50483e-06
3.07462e-06
2.20121e-05
-3.69888e-06
3.38917e-06
2.24092e-05
-3.71927e-06
3.32224e-06
2.29358e-05
-3.93108e-06
3.40446e-06
2.3412e-05
-4.18685e-06
3.71064e-06
2.37907e-05
-4.32849e-06
3.94982e-06
2.43547e-05
-4.43538e-06
3.87133e-06
2.49818e-05
-4.6157e-06
3.98859e-06
2.54216e-05
-4.75622e-06
4.31649e-06
2.59334e-05
-4.89324e-06
4.38138e-06
2.68294e-05
-5.25258e-06
4.35661e-06
2.75999e-05
-5.47229e-06
4.70181e-06
2.80514e-05
-5.71419e-06
5.26267e-06
2.84824e-05
-6.20589e-06
5.77487e-06
2.90371e-05
-6.5802e-06
6.02551e-06
2.9544e-05
-7.26241e-06
6.75554e-06
2.97355e-05
-7.67415e-06
7.48261e-06
2.94207e-05
-7.78263e-06
8.09744e-06
2.88739e-05
-7.77334e-06
8.32016e-06
2.8404e-05
-7.31698e-06
7.78682e-06
2.79656e-05
-6.65508e-06
7.0935e-06
2.74641e-05
-5.74175e-06
6.24323e-06
2.69976e-05
-4.72732e-06
5.19388e-06
2.66147e-05
-3.93135e-06
4.31423e-06
2.64237e-05
-3.18105e-06
3.37207e-06
2.64113e-05
-2.66272e-06
2.67511e-06
2.6503e-05
-2.32396e-06
2.23225e-06
2.66076e-05
-2.17484e-06
2.07026e-06
2.67319e-05
-2.30974e-06
2.18537e-06
2.68652e-05
-2.64156e-06
2.50834e-06
2.70449e-05
-3.24673e-06
3.06702e-06
2.72123e-05
-4.01457e-06
3.84709e-06
2.74174e-05
-4.93389e-06
4.72881e-06
2.75136e-05
-5.91121e-06
5.81502e-06
2.75475e-05
-6.99194e-06
6.95809e-06
2.75613e-05
-8.21815e-06
8.20431e-06
2.75923e-05
-9.35551e-06
9.3245e-06
2.76448e-05
-1.05964e-05
1.05439e-05
2.77772e-05
-1.18186e-05
1.16861e-05
2.79007e-05
-1.29407e-05
1.28173e-05
2.80135e-05
-1.39183e-05
1.38055e-05
2.83996e-05
-1.51155e-05
1.47294e-05
2.89557e-05
-1.61193e-05
1.55632e-05
2.96992e-05
-1.69077e-05
1.61642e-05
3.05198e-05
-1.75435e-05
1.67229e-05
3.15089e-05
-1.79621e-05
1.6973e-05
3.21705e-05
-1.76566e-05
1.6995e-05
3.26129e-05
-1.6979e-05
1.65367e-05
3.27318e-05
-1.59107e-05
1.57917e-05
3.2571e-05
-1.45364e-05
1.46972e-05
3.22227e-05
-1.27485e-05
1.30968e-05
3.1643e-05
-1.09266e-05
1.15063e-05
3.09935e-05
-9.11363e-06
9.76305e-06
3.01603e-05
-7.13711e-06
7.97031e-06
2.93194e-05
-5.41771e-06
6.25864e-06
2.85662e-05
-3.97449e-06
4.72768e-06
2.7833e-05
-2.49139e-06
3.22463e-06
2.72485e-05
-1.40268e-06
1.98714e-06
2.69557e-05
-3.64144e-07
6.56927e-07
2.63879e-05
1.66604e-06
-1.09819e-06
2.56622e-05
3.34969e-06
-2.62401e-06
2.47849e-05
4.8504e-06
-3.97309e-06
2.37964e-05
5.50686e-06
-4.51839e-06
2.24994e-05
5.47983e-06
-4.18283e-06
2.17763e-05
4.67189e-06
-3.9488e-06
2.1182e-05
3.18541e-06
-2.59104e-06
2.06887e-05
1.90253e-06
-1.40923e-06
2.03362e-05
1.5397e-06
-1.18729e-06
2.02608e-05
5.46829e-07
-4.7137e-07
2.0548e-05
-1.38297e-07
-1.48931e-07
2.08019e-05
-4.29075e-08
-2.10959e-07
2.12715e-05
-4.94194e-07
2.45628e-08
2.19042e-05
-2.92743e-07
-3.3997e-07
2.24116e-05
1.81797e-07
-6.8922e-07
2.29977e-05
3.44947e-07
-9.31016e-07
2.35428e-05
1.33827e-06
-1.88334e-06
2.37793e-05
2.3845e-06
-2.62103e-06
2.40769e-05
3.24279e-06
-3.54034e-06
2.42107e-05
4.71394e-06
-4.84777e-06
2.4073e-05
5.79318e-06
-5.6555e-06
2.385e-05
6.79333e-06
-6.57028e-06
2.35661e-05
8.11621e-06
-7.83232e-06
2.28757e-05
9.07197e-06
-8.3816e-06
2.21323e-05
9.59507e-06
-8.85169e-06
2.15528e-05
1.04677e-05
-9.88816e-06
2.06087e-05
1.13591e-05
-1.04151e-05
2.01028e-05
1.13453e-05
-1.08394e-05
1.96644e-05
1.20877e-05
-1.16494e-05
1.86911e-05
1.19284e-05
-1.09551e-05
1.82955e-05
1.05559e-05
-1.01603e-05
1.76416e-05
1.06578e-05
-1.00039e-05
1.75558e-05
1.03511e-05
-1.02653e-05
1.68916e-05
1.05604e-05
-9.89622e-06
1.59395e-05
9.25307e-06
-8.30094e-06
1.61249e-05
9.07933e-06
-9.26472e-06
1.60956e-05
1.06801e-05
-1.06508e-05
1.63529e-05
1.19461e-05
-1.22034e-05
1.5541e-05
1.32159e-05
-1.2404e-05
1.50557e-05
1.18463e-05
-1.1361e-05
1.48383e-05
1.12565e-05
-1.10391e-05
1.41669e-05
1.06698e-05
-9.99844e-06
1.44722e-05
9.65042e-06
-9.95571e-06
1.35252e-05
1.00835e-05
-9.13647e-06
1.41429e-05
8.97909e-06
-9.59683e-06
1.43763e-05
1.0065e-05
-1.02984e-05
1.47494e-05
1.00465e-05
-1.04196e-05
1.62335e-05
1.0583e-05
-1.20671e-05
1.56069e-05
1.23506e-05
-1.1724e-05
1.70302e-05
1.16066e-05
-1.30299e-05
1.67909e-05
1.49998e-05
-1.47605e-05
1.61704e-05
1.45665e-05
-1.39459e-05
1.63142e-05
1.76117e-05
-1.77555e-05
1.65254e-05
1.60247e-05
-1.6236e-05
1.54407e-05
1.85641e-05
-1.74794e-05
1.64724e-05
1.27041e-05
-1.37358e-05
1.60522e-05
1.55673e-05
-1.51471e-05
1.59562e-05
9.52379e-06
-9.42778e-06
1.58449e-05
1.11511e-05
-1.10398e-05
1.59496e-05
4.94374e-06
-5.04848e-06
1.5468e-05
5.27238e-06
-4.79081e-06
1.42897e-05
1.38113e-07
1.0402e-06
1.37071e-05
3.09457e-07
2.73109e-07
1.2202e-05
-5.85121e-06
7.35638e-06
1.08728e-05
-4.37589e-06
5.70508e-06
9.38683e-06
-7.10207e-06
8.58801e-06
7.12199e-06
-8.72915e-07
3.13775e-06
6.20593e-06
-5.14246e-06
6.05852e-06
4.16475e-06
1.4123e-07
1.89995e-06
4.89553e-06
-4.76429e-06
4.03352e-06
2.30329e-06
-4.3781e-06
6.97034e-06
1.29691e-05
-1.91957e-07
1.29737e-05
6.90681e-08
1.30228e-05
2.84203e-07
1.3107e-05
3.39321e-07
1.32479e-05
2.74626e-07
1.34559e-05
1.33654e-07
1.36913e-05
5.54869e-09
1.38875e-05
-6.9224e-08
1.40407e-05
-1.48952e-07
1.41334e-05
-1.83216e-07
1.41816e-05
-2.25137e-07
1.42037e-05
-2.46201e-07
1.42218e-05
-2.62791e-07
1.42604e-05
-2.67494e-07
1.43378e-05
-2.64701e-07
1.44564e-05
-2.45911e-07
1.46109e-05
-2.43728e-07
1.47915e-05
-2.60665e-07
1.49647e-05
-3.01983e-07
1.5149e-05
-3.92464e-07
1.52862e-05
-4.48224e-07
1.53898e-05
-5.57778e-07
1.54616e-05
-6.28849e-07
1.5499e-05
-6.71949e-07
1.55657e-05
-7.11916e-07
1.56254e-05
-6.5613e-07
1.57169e-05
-6.4029e-07
1.58027e-05
-5.60386e-07
1.58868e-05
-5.0103e-07
1.60055e-05
-4.63254e-07
1.60889e-05
-3.88711e-07
1.62006e-05
-3.75551e-07
1.63091e-05
-3.04362e-07
1.64457e-05
-2.58944e-07
1.66005e-05
-1.91566e-07
1.67433e-05
-1.25138e-07
1.69061e-05
-1.23206e-07
1.70638e-05
-8.16772e-08
1.72209e-05
-1.02139e-07
1.73952e-05
-1.14945e-07
1.75474e-05
-1.14612e-07
1.77169e-05
-1.53557e-07
1.78917e-05
-1.74996e-07
1.80752e-05
-1.69086e-07
1.8293e-05
-2.16077e-07
1.85061e-05
-1.9507e-07
1.87427e-05
-1.8448e-07
1.89928e-05
-2.37023e-07
1.92333e-05
-1.78597e-07
1.9524e-05
-1.74135e-07
1.9822e-05
-1.93596e-07
2.0147e-05
-1.54996e-07
2.05218e-05
-2.55532e-07
2.08828e-05
-2.69623e-07
2.12505e-05
-3.53687e-07
2.16377e-05
-6.01707e-07
2.19718e-05
-6.93051e-07
2.22781e-05
-8.90947e-07
2.2614e-05
-1.29087e-06
2.29117e-05
-1.30365e-06
2.31818e-05
-1.60993e-06
2.34703e-05
-2.04488e-06
2.3767e-05
-1.95886e-06
2.40045e-05
-2.3229e-06
2.42247e-05
-2.70929e-06
2.45702e-05
-2.6809e-06
2.48755e-05
-2.95106e-06
2.5041e-05
-3.24665e-06
2.53769e-05
-3.39268e-06
2.58326e-05
-3.52845e-06
2.61277e-05
-3.79991e-06
2.63989e-05
-3.97004e-06
2.68766e-05
-4.19699e-06
2.7292e-05
-4.34654e-06
2.76619e-05
-4.55668e-06
2.81601e-05
-4.82675e-06
2.86347e-05
-4.90993e-06
2.90777e-05
-5.05874e-06
2.96188e-05
-5.29728e-06
3.01598e-05
-5.43426e-06
3.06938e-05
-5.7866e-06
3.11032e-05
-5.88164e-06
3.14212e-05
-6.03222e-06
3.18519e-05
-6.63659e-06
3.22026e-05
-6.93091e-06
3.1983e-05
-7.04281e-06
3.15297e-05
-7.22082e-06
3.1056e-05
-7.30893e-06
3.04409e-05
-7.15831e-06
2.9574e-05
-6.45007e-06
2.84435e-05
-5.52456e-06
2.75059e-05
-4.80412e-06
2.68807e-05
-4.10218e-06
2.64668e-05
-3.51744e-06
2.62374e-05
-2.95158e-06
2.60832e-05
-2.50861e-06
2.60152e-05
-2.25595e-06
2.60323e-05
-2.19193e-06
2.60383e-05
-2.31576e-06
2.60767e-05
-2.67987e-06
2.60865e-05
-3.25657e-06
2.61191e-05
-4.04716e-06
2.61046e-05
-4.91937e-06
2.61091e-05
-5.91578e-06
2.61465e-05
-7.02928e-06
2.61443e-05
-8.21599e-06
2.61993e-05
-9.41044e-06
2.62087e-05
-1.06058e-05
2.63992e-05
-1.20091e-05
2.6617e-05
-1.31585e-05
2.71456e-05
-1.44469e-05
2.78859e-05
-1.58558e-05
2.87213e-05
-1.69548e-05
2.96242e-05
-1.78106e-05
3.03021e-05
-1.82214e-05
3.07054e-05
-1.83654e-05
3.06764e-05
-1.76277e-05
3.05818e-05
-1.68844e-05
3.03182e-05
-1.56471e-05
2.98971e-05
-1.41154e-05
2.94078e-05
-1.22591e-05
2.87503e-05
-1.02691e-05
2.79418e-05
-8.30521e-06
2.70949e-05
-6.29019e-06
2.6038e-05
-4.3608e-06
2.49739e-05
-2.91036e-06
2.41179e-05
-1.63538e-06
2.34691e-05
-7.53937e-07
2.30739e-05
3.10987e-08
2.28178e-05
1.92214e-06
2.24664e-05
3.70111e-06
2.16135e-05
5.70325e-06
2.0707e-05
6.4134e-06
2.00293e-05
6.15753e-06
1.96532e-05
5.04799e-06
1.92274e-05
3.61119e-06
1.88472e-05
2.28273e-06
1.89452e-05
1.44174e-06
1.92566e-05
2.35403e-07
1.97266e-05
-6.08343e-07
2.03932e-05
-7.09489e-07
2.10843e-05
-1.18527e-06
2.20269e-05
-1.23533e-06
2.27971e-05
-5.88374e-07
2.34852e-05
-3.43222e-07
2.40776e-05
7.4584e-07
2.44481e-05
2.01407e-06
2.47431e-05
2.94778e-06
2.49353e-05
4.52176e-06
2.48149e-05
5.91352e-06
2.46379e-05
6.97032e-06
2.4193e-05
8.56117e-06
2.36005e-05
9.66447e-06
2.26524e-05
1.05432e-05
2.18523e-05
1.12678e-05
2.11488e-05
1.20626e-05
2.01831e-05
1.2311e-05
1.96485e-05
1.26224e-05
1.87591e-05
1.28178e-05
1.82669e-05
1.10481e-05
1.77423e-05
1.11824e-05
1.69102e-05
1.11832e-05
1.67507e-05
1.07198e-05
1.57481e-05
1.02557e-05
1.55683e-05
9.25909e-06
1.53301e-05
1.09184e-05
1.55948e-05
1.16814e-05
1.61731e-05
1.26376e-05
1.53506e-05
1.26688e-05
1.55559e-05
1.10512e-05
1.45148e-05
1.1711e-05
1.42643e-05
9.90087e-06
1.43469e-05
1.00009e-05
1.38495e-05
9.47654e-06
1.5085e-05
8.82944e-06
1.45957e-05
1.05358e-05
1.60562e-05
9.12251e-06
1.64925e-05
1.19143e-05
1.72191e-05
1.088e-05
1.75034e-05
1.47154e-05
1.79736e-05
1.40963e-05
1.70962e-05
1.84891e-05
1.86705e-05
1.44504e-05
1.80279e-05
1.92067e-05
1.7973e-05
1.27591e-05
1.77823e-05
1.57579e-05
1.74091e-05
9.89699e-06
1.73888e-05
1.11714e-05
1.67385e-05
5.59405e-06
1.63243e-05
5.68658e-06
1.55253e-05
9.37191e-07
1.53556e-05
4.79146e-07
1.4332e-05
-4.82764e-06
1.32637e-05
-3.30758e-06
1.20475e-05
-5.88588e-06
1.1273e-05
-9.84284e-08
9.37118e-06
-3.24062e-06
9.21142e-06
3.00988e-07
6.92545e-06
-2.47832e-06
6.0895e-07
8.61978e-06
2.00793e-05
5.89787e-08
1.97665e-05
3.81824e-07
1.95972e-05
4.5357e-07
1.96074e-05
3.29115e-07
1.97072e-05
1.7485e-07
1.98259e-05
1.48848e-08
1.99661e-05
-1.34642e-07
2.00983e-05
-2.01404e-07
2.02043e-05
-2.54953e-07
2.02758e-05
-2.547e-07
2.0294e-05
-2.43377e-07
2.03004e-05
-2.52534e-07
2.02879e-05
-2.50348e-07
2.02971e-05
-2.76699e-07
2.03412e-05
-3.08756e-07
2.04088e-05
-3.13497e-07
2.05243e-05
-3.59255e-07
2.06472e-05
-3.8355e-07
2.07767e-05
-4.31548e-07
2.09004e-05
-5.16171e-07
2.10094e-05
-5.57133e-07
2.10913e-05
-6.39746e-07
2.11558e-05
-6.93285e-07
2.11921e-05
-7.0828e-07
2.12401e-05
-7.59941e-07
2.12924e-05
-7.08429e-07
2.13416e-05
-6.8953e-07
2.14263e-05
-6.45073e-07
2.14752e-05
-5.4993e-07
2.15648e-05
-5.52776e-07
2.16379e-05
-4.61822e-07
2.17029e-05
-4.40572e-07
2.18024e-05
-4.03837e-07
2.18847e-05
-3.41286e-07
2.2014e-05
-3.20909e-07
2.21447e-05
-2.55806e-07
2.22579e-05
-2.36408e-07
2.24176e-05
-2.41345e-07
2.25302e-05
-2.14732e-07
2.26829e-05
-2.67683e-07
2.28213e-05
-2.52979e-07
2.29514e-05
-2.83687e-07
2.31279e-05
-3.51486e-07
2.32551e-05
-2.96261e-07
2.34453e-05
-4.06299e-07
2.36353e-05
-3.85036e-07
2.37946e-05
-3.43775e-07
2.40381e-05
-4.80574e-07
2.42249e-05
-3.65372e-07
2.4457e-05
-4.06218e-07
2.47379e-05
-4.74483e-07
2.4991e-05
-4.08133e-07
2.52657e-05
-5.30221e-07
2.55917e-05
-5.9569e-07
2.58913e-05
-6.53196e-07
2.61639e-05
-8.74349e-07
2.64664e-05
-9.95528e-07
2.67464e-05
-1.17097e-06
2.69543e-05
-1.49873e-06
2.72305e-05
-1.57984e-06
2.75018e-05
-1.88128e-06
2.76522e-05
-2.1953e-06
2.79169e-05
-2.22355e-06
2.81995e-05
-2.60549e-06
2.83452e-05
-2.85496e-06
2.86058e-05
-2.9415e-06
2.88791e-05
-3.22434e-06
2.91072e-05
-3.47473e-06
2.9387e-05
-3.67252e-06
2.96701e-05
-3.81154e-06
2.99163e-05
-4.04608e-06
3.02403e-05
-4.2941e-06
3.05948e-05
-4.55145e-06
3.08574e-05
-4.60914e-06
3.11621e-05
-4.86138e-06
3.16071e-05
-5.27178e-06
3.19146e-05
-5.21739e-06
3.21813e-05
-5.3255e-06
3.26475e-05
-5.76351e-06
3.30243e-05
-5.81096e-06
3.31208e-05
-5.88311e-06
3.33629e-05
-6.1238e-06
3.37283e-05
-6.3976e-06
3.36977e-05
-6.60598e-06
3.327e-05
-6.50317e-06
3.2789e-05
-6.56182e-06
3.24187e-05
-6.85055e-06
3.16566e-05
-6.54686e-06
3.0464e-05
-5.96571e-06
2.93255e-05
-5.31155e-06
2.83193e-05
-4.51834e-06
2.75325e-05
-4.0173e-06
2.68694e-05
-3.43916e-06
2.6269e-05
-2.91699e-06
2.58247e-05
-2.50725e-06
2.54728e-05
-2.15676e-06
2.52152e-05
-1.99837e-06
2.50424e-05
-2.01907e-06
2.49877e-05
-2.26109e-06
2.49666e-05
-2.65877e-06
2.49424e-05
-3.23235e-06
2.49644e-05
-4.06922e-06
2.49858e-05
-4.94075e-06
2.50213e-05
-5.95126e-06
2.5024e-05
-7.03201e-06
2.50144e-05
-8.20635e-06
2.51204e-05
-9.5165e-06
2.53862e-05
-1.08716e-05
2.5743e-05
-1.23658e-05
2.62714e-05
-1.3687e-05
2.69346e-05
-1.51101e-05
2.76061e-05
-1.65273e-05
2.81797e-05
-1.75283e-05
2.84782e-05
-1.81092e-05
2.84069e-05
-1.81501e-05
2.80723e-05
-1.80308e-05
2.77349e-05
-1.72903e-05
2.75681e-05
-1.67176e-05
2.74004e-05
-1.54794e-05
2.71028e-05
-1.38178e-05
2.67024e-05
-1.18587e-05
2.6248e-05
-9.81469e-06
2.55423e-05
-7.59949e-06
2.47194e-05
-5.46727e-06
2.35158e-05
-3.1573e-06
2.21861e-05
-1.5806e-06
2.10022e-05
-4.51513e-07
2.0185e-05
6.32375e-08
1.95291e-05
6.87041e-07
1.94409e-05
2.01034e-06
1.89666e-05
4.17537e-06
1.83706e-05
6.29931e-06
1.76137e-05
7.17024e-06
1.71183e-05
6.65301e-06
1.67169e-05
5.44931e-06
1.65279e-05
3.80026e-06
1.67553e-05
2.05535e-06
1.73303e-05
8.66722e-07
1.80853e-05
-5.19654e-07
1.89912e-05
-1.51417e-06
2.01346e-05
-1.85294e-06
2.12125e-05
-2.26313e-06
2.22966e-05
-2.31944e-06
2.31302e-05
-1.42197e-06
2.37268e-05
-9.39891e-07
2.43446e-05
1.28093e-07
2.47252e-05
1.63348e-06
2.50672e-05
2.6058e-06
2.52264e-05
4.36251e-06
2.52417e-05
5.89825e-06
2.51207e-05
7.09127e-06
2.47721e-05
8.90984e-06
2.41804e-05
1.02561e-05
2.34901e-05
1.12335e-05
2.2375e-05
1.23829e-05
2.16311e-05
1.28064e-05
2.0673e-05
1.32691e-05
2.00729e-05
1.32225e-05
1.90978e-05
1.37929e-05
1.79534e-05
1.21925e-05
1.7825e-05
1.13108e-05
1.67798e-05
1.22284e-05
1.65896e-05
1.09101e-05
1.6006e-05
1.08393e-05
1.55077e-05
9.75739e-06
1.60117e-05
1.04144e-05
1.49574e-05
1.27356e-05
1.54774e-05
1.21176e-05
1.49554e-05
1.31908e-05
1.49703e-05
1.10363e-05
1.56176e-05
1.10637e-05
1.44129e-05
1.11056e-05
1.50488e-05
9.36495e-06
1.37507e-05
1.07746e-05
1.47972e-05
7.78302e-06
1.48515e-05
1.04815e-05
1.59736e-05
8.00045e-06
1.65776e-05
1.13103e-05
1.75463e-05
9.9113e-06
1.73201e-05
1.49416e-05
1.89234e-05
1.2493e-05
1.85715e-05
1.8841e-05
1.90429e-05
1.3979e-05
1.92469e-05
1.90026e-05
1.87333e-05
1.32727e-05
1.91925e-05
1.52987e-05
1.87936e-05
1.02959e-05
1.89107e-05
1.10544e-05
1.79569e-05
6.54781e-06
1.78017e-05
5.8418e-06
1.72313e-05
1.50764e-06
1.72015e-05
5.08912e-07
1.59639e-05
-3.59e-06
1.43282e-05
-1.67195e-06
1.25072e-05
-4.06488e-06
1.29325e-05
-5.23697e-07
1.17383e-05
-2.0464e-06
1.17352e-05
3.04051e-07
1.02217e-05
-9.64832e-07
-4.99425e-08
1.08806e-05
2.49412e-05
3.51208e-08
2.50742e-05
2.48745e-07
2.52128e-05
3.1501e-07
2.53544e-05
1.87518e-07
2.54497e-05
7.95387e-08
2.55643e-05
-9.96549e-08
2.55967e-05
-1.67043e-07
2.56195e-05
-2.24281e-07
2.56314e-05
-2.66785e-07
2.56256e-05
-2.48959e-07
2.56339e-05
-2.51704e-07
2.56339e-05
-2.52501e-07
2.56374e-05
-2.5383e-07
2.56444e-05
-2.83709e-07
2.56759e-05
-3.40279e-07
2.57067e-05
-3.44253e-07
2.57898e-05
-4.42385e-07
2.58527e-05
-4.46448e-07
2.59486e-05
-5.27407e-07
2.60283e-05
-5.95852e-07
2.60806e-05
-6.09471e-07
2.61603e-05
-7.19472e-07
2.61663e-05
-6.99255e-07
2.62185e-05
-7.60482e-07
2.62271e-05
-7.68555e-07
2.62488e-05
-7.30129e-07
2.63e-05
-7.40765e-07
2.63188e-05
-6.63812e-07
2.63909e-05
-6.22057e-07
2.64197e-05
-5.8158e-07
2.64882e-05
-5.30289e-07
2.65315e-05
-4.83857e-07
2.65818e-05
-4.54123e-07
2.66638e-05
-4.23372e-07
2.67109e-05
-3.68015e-07
2.68285e-05
-3.73328e-07
2.68936e-05
-3.01553e-07
2.6994e-05
-3.41782e-07
2.71092e-05
-3.29877e-07
2.71829e-05
-3.41398e-07
2.73295e-05
-3.99548e-07
2.74252e-05
-3.7942e-07
2.75535e-05
-4.79786e-07
2.76987e-05
-4.41481e-07
2.78125e-05
-5.20036e-07
2.79735e-05
-5.46095e-07
2.81103e-05
-4.80576e-07
2.82622e-05
-6.324e-07
2.84154e-05
-5.18629e-07
2.85763e-05
-5.67141e-07
2.87551e-05
-6.53285e-07
2.89298e-05
-5.82767e-07
2.9132e-05
-7.32422e-07
2.9325e-05
-7.88743e-07
2.95383e-05
-8.6646e-07
2.97657e-05
-1.10172e-06
2.99321e-05
-1.16192e-06
3.01544e-05
-1.39328e-06
3.03357e-05
-1.68004e-06
3.04788e-05
-1.72294e-06
3.06822e-05
-2.08474e-06
3.08145e-05
-2.32759e-06
3.09779e-05
-2.38693e-06
3.1136e-05
-2.76366e-06
3.12612e-05
-2.98011e-06
3.14314e-05
-3.11173e-06
3.15848e-05
-3.37775e-06
3.17654e-05
-3.6553e-06
3.191e-05
-3.81707e-06
3.20575e-05
-3.95909e-06
3.2312e-05
-4.30061e-06
3.2514e-05
-4.49605e-06
3.25684e-05
-4.60586e-06
3.28283e-05
-4.86903e-06
3.30854e-05
-5.11845e-06
3.3141e-05
-5.32739e-06
3.33271e-05
-5.4035e-06
3.36292e-05
-5.62763e-06
3.37503e-05
-5.88458e-06
3.37544e-05
-5.8151e-06
3.38892e-05
-6.01787e-06
3.41458e-05
-6.38044e-06
3.38966e-05
-6.14838e-06
3.3402e-05
-6.11134e-06
3.3253e-05
-6.35414e-06
3.29001e-05
-6.209e-06
3.2014e-05
-5.96442e-06
3.08855e-05
-5.41835e-06
2.97887e-05
-4.86896e-06
2.88388e-05
-4.36165e-06
2.80363e-05
-3.71579e-06
2.72478e-05
-3.22883e-06
2.66119e-05
-2.80326e-06
2.60462e-05
-2.35127e-06
2.54988e-05
-1.95989e-06
2.50807e-05
-1.73858e-06
2.47577e-05
-1.67535e-06
2.45213e-05
-1.78275e-06
2.43767e-05
-2.11641e-06
2.42934e-05
-2.57555e-06
2.42626e-05
-3.20151e-06
2.41981e-05
-4.00468e-06
2.41494e-05