/*--------------------------------*- C++ -*----------------------------------*\
| =========                 |                                                 |
| \\      /  F ield         | OpenFOAM: The Open Source CFD Toolbox           |
|  \\    /   O peration     | Version:  2.4.0                                 |
|   \\  /    A nd           | Web:      www.OpenFOAM.org                      |
|    \\/     M anipulation  |                                                 |
\*---------------------------------------------------------------------------*/
FoamFile
{
    version     2.0;
    format      ascii;
    class       volScalarField;
    location    "1.82";
    object      pMean;
}
// * * * * * * * * * * * * * * * * * * * * * * * * * * * * * * * * * * * * * //

dimensions      [0 2 -2 0 0 0 0];

internalField   nonuniform List<scalar> 
8800
(
86.9036
74.4649
67.0614
63.5014
61.6099
60.1776
58.9693
57.8207
56.7911
55.7599
54.809
53.822
52.9162
51.9732
51.1311
50.2582
49.4943
48.7082
48.0062
47.225
83.7924
74.1105
67.2299
63.6153
61.6699
60.2028
58.9768
57.8211
56.789
55.7575
54.8061
53.8198
52.9137
51.9715
51.1293
50.2563
49.4962
48.7022
48.007
47.1825
81.8274
74.1863
67.8317
63.9909
61.8376
60.282
59.0234
57.8538
56.8134
55.7745
54.8165
53.8244
52.9152
51.9695
51.1285
50.2501
49.5012
48.6934
48.0567
47.2132
80.292
74.2477
68.4183
64.4144
62.0215
60.3696
59.0861
57.9102
56.8621
55.8132
54.8443
53.8416
52.9265
51.9731
51.1319
50.2446
49.5067
48.6979
48.1505
47.3737
79.0432
74.221
68.8938
64.8201
62.1902
60.4369
59.1355
57.9676
56.918
55.8648
54.8798
53.8684
52.9398
51.9826
51.1318
50.2452
49.5012
48.7193
48.1616
47.5884
78.0578
74.1241
69.259
65.166
62.3408
60.4793
59.1641
58.0119
56.9684
55.9143
54.9153
53.8949
52.9514
51.9909
51.128
50.2436
49.4878
48.7344
48.2138
47.9001
77.3014
74.0074
69.5267
65.4455
62.4763
60.5048
59.1731
58.043
57.0079
55.9559
54.9443
53.9177
52.9585
51.9971
51.1201
50.2405
49.4677
48.7373
48.2871
48.275
76.7477
73.9073
69.7072
65.6582
62.5942
60.5247
59.1655
58.0672
57.0347
55.9901
54.9633
53.9389
52.9591
52.0053
51.1071
50.2432
49.4424
48.7316
48.2237
48.616
76.3873
73.837
69.8206
65.8031
62.6793
60.5383
59.1562
58.0834
57.0548
56.0148
54.9782
53.9542
52.9628
52.0116
51.1031
50.2447
49.4302
48.7427
48.2916
48.9404
76.208
73.8049
69.8781
65.8802
62.7246
60.5481
59.1514
58.094
57.0678
56.031
54.9882
53.965
52.968
52.019
51.1057
50.2509
49.4369
48.7628
48.3549
49.0549
76.2011
73.8154
69.8786
65.8853
62.7241
60.5519
59.1487
58.098
57.0678
56.0356
54.9888
53.9705
52.97
52.0267
51.11
50.2615
49.4453
48.785
48.3912
49.1504
76.3703
73.8639
69.8225
65.8138
62.6795
60.5468
59.1511
58.0922
57.0562
56.0255
54.9812
53.9685
52.9709
52.032
51.1177
50.273
49.46
48.8009
48.4147
49.1835
76.7213
73.9461
69.7073
65.6712
62.5931
60.5377
59.1564
58.0809
57.0352
56.0065
54.9669
53.9625
52.9708
52.0391
51.1301
50.2908
49.4819
48.8212
48.4184
49.1524
77.2677
74.0519
69.525
65.4585
62.4697
60.5201
59.1598
58.0596
57.0046
55.9765
54.945
53.9496
52.9682
52.0449
51.1447
50.3128
49.5118
48.8485
48.4065
49.0416
78.0214
74.168
69.2596
65.1763
62.3308
60.4912
59.1526
58.0263
56.9644
55.9355
54.9163
53.929
52.9629
52.0463
51.1601
50.3362
49.551
48.8861
48.4057
48.8458
79.0034
74.2659
68.8964
64.829
62.1779
60.4462
59.1266
57.9811
56.9152
55.8863
54.8831
53.9036
52.9559
52.0439
51.1755
50.3578
49.5976
48.9354
48.4349
48.5852
80.2502
74.2931
68.4235
64.4252
62.0083
60.3787
59.0791
57.9248
56.8602
55.836
54.8499
53.8787
52.9482
52.0393
51.1888
50.3742
49.6436
48.983
48.4944
48.3105
81.7848
74.2299
67.8403
64.0034
61.8247
60.2907
59.0175
57.8686
56.813
55.7972
54.8252
53.8617
52.943
52.0372
51.1986
50.3866
49.6766
49.0196
48.5536
48.1683
83.7491
74.1511
67.2405
63.6292
61.6579
60.2112
58.9712
57.8363
56.7894
55.7805
54.816
53.8576
52.9435
52.0404
51.2051
50.3964
49.692
49.041
48.5504
48.0919
86.8598
74.5036
67.0717
63.5157
61.5986
60.1858
58.9638
57.8362
56.7914
55.7834
54.8188
53.8603
52.9461
52.0428
51.2083
50.3997
49.6956
49.0467
48.5517
48.2121
47.2987
47.2309
47.021
46.7784
46.5652
46.3924
46.2638
46.1733
46.1158
46.0869
46.0812
46.0857
46.0931
46.0952
46.0884
46.0684
46.0342
45.9805
45.9086
45.8144
45.7038
45.5829
45.4616
45.3452
45.2433
45.1605
45.0999
45.0567
45.0262
44.9994
44.97
44.9328
44.8879
44.8343
44.7725
44.6993
44.6148
44.5134
44.3979
44.2656
44.1235
43.9712
43.8242
43.6878
43.5745
43.4835
43.4213
43.3826
43.3672
43.3648
43.3685
43.3638
43.347
43.3084
43.2527
43.1695
43.0688
42.9466
42.8146
42.6652
42.5054
42.3289
42.1463
41.9575
41.7789
41.6185
41.4917
41.4076
41.3751
41.3867
41.444
41.5316
41.6481
41.7738
41.9113
42.0397
42.1646
42.2659
42.3517
42.4068
42.4415
42.4488
42.4446
42.4196
42.3951
42.3646
42.3446
42.335
42.3414
42.3664
42.4124
42.4802
42.5692
42.6725
42.7904
42.9151
43.052
43.1899
43.3338
43.4716
43.6078
43.7298
43.8466
43.9368
44.0226
44.0833
44.1416
44.1811
44.2241
44.2484
44.2727
44.2799
44.2856
44.2736
44.2618
44.2387
44.2204
44.1953
44.1795
44.1618
44.1601
44.1621
44.1874
44.2142
44.2668
44.3118
44.3883
44.4538
44.5536
44.6536
44.7853
44.9215
45.0791
45.2369
45.4099
45.58
45.7624
45.9376
46.1177
46.2886
46.4671
46.6419
46.8254
47.0062
47.1935
47.3742
47.5602
47.7426
47.9261
48.1037
48.2779
48.443
48.6051
48.7549
48.9026
49.0428
49.1902
49.3243
49.4708
49.6049
49.7595
49.8847
50.0382
50.1528
50.2953
50.3966
50.5292
50.6142
50.7335
50.7908
50.9099
50.9429
51.0789
51.1075
51.2756
51.3123
51.5224
51.5722
51.8296
51.912
52.2095
52.3423
52.6837
52.8915
53.2714
53.5536
53.9658
54.2874
54.7222
55.0442
55.4607
55.7027
55.9829
55.9504
55.8244
55.0518
53.81
50.5283
46.3277
25.8545
47.0641
47.0373
46.9731
46.8201
46.6281
46.4457
46.306
46.213
46.1631
46.1429
46.1445
46.1532
46.1629
46.1647
46.1575
46.1358
46.1006
46.0477
45.9791
45.8923
45.7924
45.6832
45.5742
45.4694
45.3776
45.3007
45.2425
45.1992
45.169
45.1433
45.1181
45.0858
45.0465
44.9969
44.9389
44.868
44.7863
44.6887
44.5792
44.4544
44.3216
44.1819
44.0464
43.9197
43.8119
43.7236
43.6602
43.6176
43.5951
43.5829
43.5778
43.5662
43.5467
43.5078
43.4545
43.377
43.2832
43.1679
43.0411
42.898
42.7455
42.5797
42.4081
42.2336
42.0675
41.9183
41.7985
41.7145
41.6757
41.6764
41.7188
41.7899
41.8888
41.9992
42.1193
42.234
42.3415
42.4289
42.4985
42.5415
42.5654
42.5652
42.5533
42.527
42.4985
42.4684
42.4439
42.431
42.4303
42.4467
42.4821
42.538
42.614
42.7046
42.8109
42.926
43.0518
43.1785
43.3093
43.4348
43.5586
43.6703
43.7738
43.8541
43.9275
43.9806
44.0281
44.0594
44.0894
44.1053
44.1176
44.1167
44.1102
44.0894
44.0626
44.03
43.9972
43.9635
43.9352
43.908
43.8983
43.8934
43.9135
43.9361
43.9844
44.0285
44.0994
44.1648
44.2561
44.3499
44.4701
44.5955
44.7423
44.8892
45.0524
45.2105
45.3815
45.5457
45.7136
45.8732
46.0408
46.2036
46.3742
46.5418
46.7184
46.8831
47.0607
47.2291
47.4067
47.5743
47.7428
47.8997
48.0631
48.2068
48.3604
48.4976
48.6555
48.7856
48.9406
49.0701
49.2259
49.3403
49.4902
49.5927
49.7292
49.8167
49.9406
50.0007
50.1121
50.1345
50.2431
50.236
50.3606
50.3456
50.505
50.4996
50.7006
50.7153
50.9556
51.0156
51.2807
51.3971
51.691
51.874
52.2051
52.4321
52.7983
53.0277
53.397
53.5764
53.8686
53.8808
53.9465
53.514
53.0131
51.3854
49.6301
43.883
37.9775
19.1016
47.0468
47.0483
47.0564
46.9554
46.7592
46.5346
46.3498
46.2304
46.1794
46.1725
46.191
46.213
46.2308
46.2348
46.2262
46.2006
46.1619
46.1068
46.0396
45.9582
45.8683
45.771
45.675
45.5822
45.5006
45.4304
45.3763
45.3342
45.3044
45.2788
45.2556
45.2262
45.1912
45.1454
45.0913
45.0238
44.946
44.8536
44.7513
44.6367
44.5161
44.3905
44.2685
44.1538
44.0542
43.9707
43.9076
43.8615
43.8327
43.8121
43.798
43.7789
43.7544
43.7141
43.661
43.5877
43.4988
43.3907
43.2696
43.1342
42.9895
42.8356
42.6778
42.5194
42.3692
42.2335
42.1235
42.0432
42.0004
41.9928
42.022
42.0788
42.161
42.2558
42.3587
42.4573
42.5471
42.6191
42.672
42.7026
42.7143
42.708
42.6888
42.6608
42.6277
42.5958
42.5674
42.5492
42.5404
42.5463
42.5692
42.6119
42.6736
42.7527
42.8481
42.9553
43.0702
43.1875
43.3064
43.4207
43.5315
43.6328
43.723
43.7945
43.8578
43.906
43.9464
43.9744
43.9977
44.0107
44.0162
44.0122
43.9967
43.9693
43.9319
43.8913
43.849
43.806
43.7702
43.7364
43.726
43.7183
43.7389
43.7605
43.8086
43.856
43.923
43.9899
44.0743
44.1653
44.2751
44.3915
44.5277
44.6646
44.8171
44.9635
45.1207
45.2731
45.4279
45.5759
45.7326
45.8846
46.0454
46.204
46.372
46.5281
46.7005
46.8589
47.0308
47.1841
47.3444
47.4894
47.6503
47.7878
47.9486
48.0845
48.2504
48.3803
48.5443
48.6753
48.8288
48.9377
49.082
49.1703
49.3017
49.3667
49.4837
49.5103
49.6157
49.6024
49.7026
49.657
49.7769
49.7222
49.876
49.8373
50.013
50.0104
50.2038
50.2522
50.4624
50.556
50.8012
50.9346
51.2259
51.3718
51.6914
51.807
52.0998
52.1069
52.2869
52.0081
51.9182
50.9434
50.3168
47.559
45.6237
38.521
31.4309
18.572
46.8635
46.8918
47.0799
47.0514
46.8449
46.5739
46.3484
46.2138
46.1723
46.189
46.2355
46.2813
46.3146
46.3247
46.3148
46.2837
46.2383
46.1783
46.11
46.0319
45.95
45.8639
45.7808
45.7009
45.6308
45.5692
45.5207
45.4811
45.4518
45.4258
45.4028
45.3748
45.3423
45.2996
45.2487
45.1853
45.1126
45.0273
44.9339
44.831
44.724
44.6135
44.5064
44.4041
44.314
44.2355
44.1736
44.1242
44.089
44.0603
44.0376
44.0118
43.9822
43.9407
43.8879
43.8187
43.735
43.6349
43.5221
43.397
43.2637
43.1233
42.9807
42.8391
42.7053
42.5841
42.4845
42.4092
42.3644
42.3492
42.3659
42.4076
42.4719
42.5488
42.6326
42.7124
42.7834
42.8391
42.8767
42.8962
42.8979
42.8852
42.8596
42.828
42.7914
42.7563
42.7239
42.6979
42.6788
42.6718
42.6812
42.7106
42.7601
42.829
42.9156
43.014
43.1196
43.2264
43.3348
43.4378
43.5362
43.6253
43.7025
43.7637
43.8192
43.8647
43.9033
43.9327
43.9553
43.9695
43.9741
43.9687
43.9479
43.9154
43.8736
43.8259
43.7801
43.7312
43.6948
43.6619
43.6546
43.6481
43.672
43.6962
43.7481
43.7976
43.8645
43.9299
44.0136
44.102
44.2079
44.3183
44.4443
44.5726
44.714
44.8499
44.9944
45.1337
45.2751
45.4107
45.5578
45.6998
45.8553
46.0094
46.173
46.329
46.4988
46.6498
46.8143
46.9511
47.1024
47.2326
47.3907
47.5188
47.6865
47.8236
47.9973
48.1307
48.305
48.4304
48.5831
48.6815
48.8281
48.8879
49.0255
49.0526
49.1734
49.1575
49.2646
49.2103
49.3078
49.2271
49.3453
49.2699
49.4001
49.3537
49.4792
49.4716
49.6048
49.6325
49.7896
49.8452
50.0436
50.1106
50.3543
50.4029
50.6724
50.6363
50.8964
50.6465
50.8106
50.1031
50.0306
48.3458
47.7035
44.0853
41.6183
34.9192
27.3934
18.7875
47.5881
47.5159
47.3224
47.0454
46.7309
46.4328
46.2286
46.1346
46.1342
46.1908
46.2749
46.352
46.4057
46.4252
46.4156
46.3792
46.3264
46.26
46.1884
46.1117
46.036
45.9602
45.8897
45.8231
45.7653
45.714
45.6727
45.6375
45.6099
45.5844
45.5613
45.5343
45.5037
45.4645
45.4181
45.3609
45.2955
45.2197
45.1371
45.047
44.954
44.8582
44.7647
44.6742
44.5923
44.5186
44.457
44.4049
44.3638
44.3287
44.2987
44.2676
44.2334
44.191
44.139
44.0743
43.9973
43.9069
43.8051
43.6926
43.573
43.4477
43.3211
43.1958
43.078
42.9706
42.8811
42.8112
42.7659
42.7444
42.7493
42.7758
42.8214
42.8784
42.9407
43.0002
43.0521
43.0919
43.1161
43.1253
43.1191
43.1001
43.0701
43.0339
42.9934
42.9521
42.912
42.8744
42.8417
42.8195
42.8153
42.8316
42.8715
42.9316
43.0118
43.1034
43.2017
43.3015
43.4011
43.4943
43.5816
43.6584
43.7239
43.7771
43.8277
43.8724
43.9112
43.9448
43.9688
43.9861
43.9918
43.9854
43.9629
43.9273
43.8845
43.8347
43.791
43.7435
43.7125
43.6877
43.6863
43.6886
43.7179
43.7509
43.8058
43.8592
43.9275
43.9941
44.0812
44.1665
44.2743
44.3786
44.4997
44.6176
44.7504
44.8747
45.0115
45.1358
45.2692
45.3922
45.5325
45.6648
45.8206
45.972
46.1391
46.2982
46.468
46.6109
46.7705
46.889
47.0346
47.1481
47.3032
47.4226
47.5945
47.7294
47.9133
48.0418
48.2301
48.3386
48.4981
48.5758
48.7291
48.7574
48.9069
48.888
49.016
48.9556
49.0642
48.9712
49.0589
48.9643
49.0673
48.9994
49.0953
49.0476
49.134
49.1033
49.1929
49.177
49.2983
49.292
49.4596
49.4294
49.6477
49.5479
49.8051
49.5464
49.8096
49.2361
49.3997
48.2606
48.1088
45.9646
44.9448
41.2968
38.0958
32.7587
25.6704
19.3135
48.1885
48.0743
47.5807
47.0445
46.5775
46.2375
46.0674
46.0386
46.1038
46.217
46.3438
46.4498
46.5186
46.5433
46.5311
46.4885
46.4274
46.3542
46.2781
46.2018
46.1302
46.063
46.0033
45.9492
45.9031
45.8626
45.8292
45.7997
45.775
45.7513
45.7286
45.7031
45.6744
45.6391
45.5978
45.5479
45.4909
45.4257
45.3547
45.2778
45.1981
45.1158
45.0346
44.955
44.8809
44.8124
44.752
44.6988
44.6533
44.613
44.5764
44.54
44.5014
44.4574
44.4061
44.3457
44.2753
44.1944
44.1039
44.0045
43.8989
43.789
43.6784
43.5695
43.4673
43.3736
43.2942
43.2304
43.1858
43.1603
43.1557
43.1697
43.1985
43.2365
43.2779
43.318
43.3518
43.3764
43.3887
43.3889
43.3756
43.3507
43.3154
43.2725
43.2243
43.1733
43.1221
43.0703
43.0222
42.9831
42.9664
42.9719
43.0035
43.0578
43.1347
43.2223
43.3154
43.4105
43.5031
43.5887
43.6667
43.7351
43.7928
43.8427
43.8918
43.9372
43.9786
44.0174
44.0455
44.0656
44.073
44.0653
44.0421
44.0032
43.9623
43.9158
43.8778
43.8405
43.82
43.8086
43.8181
43.8364
43.8755
43.9224
43.9826
44.044
44.1143
44.1887
44.2784
44.3694
44.4792
44.581
44.6997
44.8071
44.9323
45.0446
45.1748
45.2871
45.4168
45.5311
45.6665
45.7933
45.9525
46.103
46.2808
46.4432
46.6157
46.7535
46.9048
47.0084
47.1451
47.2455
47.3943
47.5
47.6791
47.8013
47.9985
48.1121
48.3123
48.3972
48.5761
48.6229
48.795
48.7836
48.9477
48.8867
49.0194
48.914
49.0212
48.8927
48.9727
48.8732
48.9672
48.9004
48.9893
48.9174
48.9928
48.9166
48.9853
48.898
49.0054
48.9075
49.0534
48.9057
49.0854
48.8411
49.046
48.6139
48.774
47.9969
47.9653
46.6229
46.1377
43.9673
42.4684
39.3106
35.8328
31.8046
25.6918
20.4316
48.8319
48.6223
47.7505
46.9013
46.27
45.9198
45.8358
45.9211
46.0858
46.2711
46.441
46.5695
46.6449
46.6669
46.6462
46.5936
46.5224
46.4421
46.3617
46.2857
46.2177
46.1581
46.1076
46.0646
46.0291
45.9987
45.9731
45.9502
45.9293
45.9084
45.887
45.8631
45.8362
45.8045
45.7678
45.7248
45.6761
45.6211
45.5611
45.4964
45.4287
45.3589
45.2888
45.2194
45.1527
45.0896
45.0314
44.9785
44.9306
44.8869
44.8458
44.8055
44.7638
44.7189
44.6689
44.6127
44.5488
44.477
44.3973
44.3106
44.2188
44.1239
44.0284
43.9349
43.8464
43.7653
43.6947
43.637
43.5944
43.5679
43.558
43.5631
43.5793
43.6015
43.6252
43.6475
43.6653
43.6771
43.6793
43.6709
43.6504
43.6191
43.5765
43.5239
43.4655
43.4037
43.3402
43.2737
43.2101
43.1555
43.126
43.1236
43.1513
43.2055
43.2829
43.3698
43.4608
43.5528
43.6389
43.7193
43.7902
43.8534
43.9086
43.9619
44.0116
44.0598
44.1065
44.1501
44.1824
44.2044
44.215
44.2068
44.1836
44.1428
44.1037
44.0635
44.0348
44.0145
44.0085
44.0167
44.0448
44.0858
44.1421
44.2076
44.2795
44.3517
44.4276
44.5094
44.6038
44.7038
44.8141
44.9208
45.0344
45.139
45.2562
45.3629
45.4857
45.5945
45.7193
45.8327
45.966
46.0957
46.2578
46.4113
46.5959
46.7656
46.9386
47.0758
47.214
47.3069
47.4308
47.5225
47.6621
47.7479
47.9344
48.0409
48.2409
48.3527
48.5572
48.6168
48.8163
48.8403
49.025
48.9885
49.1474
49.0652
49.1854
49.0644
49.1445
49.002
49.0672
48.9818
49.0627
49.0019
49.0755
48.9982
49.0499
48.9432
48.9696
48.8335
48.8868
48.7205
48.7778
48.5502
48.62
48.2852
48.3638
47.8236
47.805
46.9344
46.6832
45.2847
44.5474
42.5238
40.8257
38.2906
34.9554
31.8256
26.7551
22.0927
50.0742
49.6369
48.0005
46.6428
45.8056
45.4712
45.5188
45.7663
46.0668
46.3398
46.5533
46.6981
46.7732
46.7867
46.7525
46.687
46.6047
46.518
46.435
46.3607
46.2971
46.2449
46.2029
46.1697
46.1433
46.122
46.1035
46.0867
46.0699
46.0524
46.0328
46.011
45.9859
45.9573
45.9244
45.8872
45.8451
45.7986
45.7475
45.6928
45.6349
45.5752
45.5141
45.4533
45.3934
45.3359
45.281
45.2298
45.1815
45.1366
45.0935
45.0518
45.0093
44.9656
44.9183
44.8672
44.8102
44.7476
44.6785
44.6042
44.525
44.4436
44.3609
44.2805
44.2035
44.1333
44.071
44.0198
43.9801
43.9544
43.9408
43.9393
43.9451
43.9545
43.9631
43.9708
43.9749
43.9761
43.9696
43.9536
43.9259
43.887
43.8354
43.7734
43.7055
43.633
43.5591
43.4804
43.4035
43.3376
43.299
43.2937
43.322
43.3805
43.4593
43.547
43.6366
43.7256
43.8077
43.8842
43.9523
44.0167
44.0754
44.136
44.1896
44.2449
44.2976
44.3446
44.3793
44.4021
44.414
44.4079
44.3852
44.3471
44.3104
44.2796
44.2648
44.2652
44.2793
44.3136
44.3673
44.4374
44.5167
44.6046
44.6917
44.7775
44.8648
44.9569
45.0595
45.1658
45.2777
45.3867
45.4958
45.6041
45.7174
45.8236
45.9439
46.0541
46.1745
46.2938
46.4239
46.5615
46.7299
46.8863
47.0817
47.2598
47.4313
47.5627
47.7013
47.7749
47.8914
47.9738
48.1059
48.1802
48.3655
48.4593
48.6491
48.7565
48.9655
49.0076
49.216
49.2301
49.4208
49.3744
49.5235
49.4458
49.5417
49.4137
49.4605
49.3107
49.356
49.2894
49.3663
49.3162
49.3747
49.2946
49.3291
49.1843
49.1691
48.9875
48.9775
48.732
48.6912
48.3748
48.3429
47.916
47.9049
47.2583
47.1257
46.1822
45.8043
44.4326
43.5909
41.8176
40.0947
38.0936
35.0658
32.4138
28.215
23.998
50.5774
50.0879
48.1783
46.5657
45.5866
45.2302
45.3395
45.685
46.0759
46.4161
46.669
46.8306
46.9046
46.9067
46.8559
46.7754
46.682
46.5896
46.5051
46.4333
46.3746
46.3295
46.2954
46.271
46.2526
46.2388
46.2265
46.215
46.202
46.1875
46.17
46.1502
46.1268
46.1009
46.0711
46.0384
46.0014
45.9612
45.9169
45.8699
45.8195
45.7677
45.7139
45.6602
45.6062
45.5537
45.5022
45.4534
45.4061
45.3617
45.3187
45.2776
45.2362
45.195
45.1514
45.1059
45.0558
45.0019
44.9424
44.8793
44.8116
44.7423
44.6714
44.6027
44.5366
44.477
44.4234
44.3792
44.3432
44.3186
44.3026
44.2954
44.2912
44.2886
44.2834
44.2774
44.2696
44.262
44.2482
44.2267
44.194
44.1499
44.0916
44.0218
43.9445
43.8631
43.78
43.6906
43.6068
43.534
43.4926
43.4887
43.5225
43.5864
43.6683
43.7559
43.8454
43.9324
44.0134
44.088
44.1591
44.2321
44.3024
44.3731
44.4357
44.5001
44.5583
44.6057
44.6395
44.6618
44.6758
44.6719
44.6525
44.621
44.5931
44.578
44.5813
44.6034
44.643
44.7064
44.7908
44.8933
44.9995
45.1134
45.2192
45.3227
45.4247
45.5279
45.6403
45.7499
45.8647
45.9741
46.0814
46.1953
46.307
46.4157
46.5375
46.6462
46.768
46.8918
47.0207
47.1693
47.349
47.5112
47.7167
47.9083
48.09
48.1977
48.3629
48.3984
48.5253
48.592
48.7084
48.7855
48.9635
49.0368
49.2333
49.3213
49.5463
49.548
49.7897
49.7854
49.9894
49.9123
50.082
49.9943
50.1051
49.9289
49.9673
49.8097
49.8604
49.8039
49.8762
49.8362
49.8874
49.8052
49.8282
49.6186
49.5865
49.3524
49.2823
48.9472
48.846
48.4197
48.311
47.8467
47.7556
47.1017
46.9116
45.9015
45.4683
44.1556
43.2693
41.7655
40.0787
38.4246
35.7325
33.3041
29.7558
25.9547
50.8252
50.3763
48.3901
46.6618
45.5861
45.1684
45.2712
45.6556
46.0994
46.4855
46.769
46.9449
47.0191
47.0119
46.9476
46.8547
46.7522
46.6555
46.5705
46.5018
46.4483
46.4101
46.3834
46.3666
46.3551
46.3475
46.3402
46.3328
46.3228
46.311
46.2955
46.2777
46.2563
46.2328
46.2059
46.1767
46.1438
46.1087
46.0698
46.0289
45.9849
45.9395
45.8918
45.8439
45.7949
45.747
45.6992
45.6535
45.6085
45.5662
45.5248
45.4858
45.447
45.4094
45.3705
45.331
45.2879
45.242
45.1913
45.1381
45.0808
45.0223
44.9622
44.9044
44.8487
44.7988
44.754
44.717
44.6858
44.6633
44.6459
44.6324
44.6178
44.6035
44.5866
44.5688
44.551
44.5367
44.5188
44.4949
44.4603
44.4138
44.3529
44.2796
44.1962
44.1058
44.0144
43.9161
43.8284
43.7521
43.7124
43.7116
43.7548
43.8262
43.9142
44.0032
44.0959
44.182
44.2632
44.338
44.4173
44.5032
44.5903
44.6742
44.7494
44.8211
44.883
44.9305
44.9648
44.9882
45.004
45.002
44.9899
44.9699
44.9573
44.9633
44.9907
45.0393
45.1077
45.2018
45.3189
45.4539
45.5916
45.7318
45.8603
45.9844
46.1025
46.2158
46.3343
46.4454
46.5625
46.6704
46.7819
46.8994
47.0139
47.1253
47.2519
47.3593
47.4883
47.6148
47.7498
47.9059
48.1033
48.273
48.4905
48.6913
48.8986
48.9725
49.182
49.1607
49.3133
49.3503
49.4726
49.536
49.7141
49.752
49.977
50.0283
50.2952
50.2277
50.5398
50.4805
50.748
50.5868
50.8357
50.7168
50.8876
50.6117
50.6778
50.4779
50.5769
50.5142
50.6157
50.5551
50.6163
50.5057
50.5365
50.2353
50.2204
49.9391
49.808
49.3567
49.2108
48.6947
48.598
48.1267
48.0232
47.2828
47.0925
46.0026
45.5519
44.3172
43.4042
42.1278
40.5269
39.0449
36.6603
34.3515
31.2576
27.8474
50.979
50.5525
48.5418
46.7584
45.6336
45.1775
45.2717
45.6732
46.1447
46.5558
46.8558
47.039
47.1112
47.0958
47.0217
46.9208
46.8139
46.7163
46.6334
46.5688
46.521
46.4893
46.4694
46.4587
46.4527
46.4496
46.4458
46.4412
46.4335
46.4235
46.41
46.3941
46.3748
46.3536
46.3293
46.3034
46.2743
46.2433
46.2091
46.1732
46.1343
46.0942
46.0519
46.0092
45.9651
45.9217
45.878
45.8358
45.7944
45.7552
45.717
45.6811
45.6457
45.6121
45.5783
45.5447
45.5087
45.4708
45.4292
45.3857
45.3386
45.2905
45.2414
45.1943
45.1484
45.1072
45.0711
45.0415
45.015
44.9938
44.9739
44.9532
44.9289
44.9042
44.8766
44.8495
44.8251
44.8062
44.787
44.7653
44.7341
44.6899
44.6307
44.5572
44.472
44.3755
44.2777
44.1731
44.0845
44.0072
43.9754
43.9777
44.0313
44.1094
44.2045
44.2948
44.3945
44.4827
44.5679
44.6442
44.7371
44.8378
44.9437
45.04
45.1265
45.2021
45.2663
45.3143
45.3529
45.3801
45.4004
45.4044
45.4066
45.4012
45.4132
45.4435
45.5038
45.5796
45.6829
45.8082
45.961
46.1245
46.2959
46.4568
46.6145
46.756
46.8928
47.0141
47.1378
47.2451
47.3647
47.4676
47.5885
47.7041
47.829
47.9427
48.0755
48.1863
48.3241
48.4539
48.6045
48.7668
48.9861
49.1611
49.3939
49.5915
49.8307
49.8797
50.1225
50.0429
50.2415
50.2272
50.3901
50.4067
50.613
50.6135
50.8763
50.8783
51.1705
51.0487
51.4365
51.3194
51.6371
51.4271
51.7837
51.6091
51.8547
51.4716
51.6072
51.3317
51.5256
51.4012
51.5639
51.4611
51.5499
51.4144
51.4541
51.036
51.0284
50.699
50.4697
49.9963
49.8189
49.3071
49.2569
48.6786
48.5476
47.7162
47.5805
46.4194
45.9389
44.7899
43.8671
42.7388
41.2748
39.833
37.6823
35.4759
32.6994
29.6308
51.0367
50.6092
48.5957
46.8136
45.6951
45.2479
45.3537
45.7647
46.2413
46.6514
46.9462
47.1211
47.1832
47.1582
47.0778
46.974
46.868
46.7736
46.6958
46.6371
46.5958
46.5701
46.5557
46.5494
46.5469
46.5464
46.5448
46.5418
46.5357
46.5273
46.5155
46.5015
46.4846
46.4659
46.4445
46.4215
46.3959
46.3687
46.3389
46.3074
46.2734
46.2379
46.2004
46.1621
46.1227
46.0836
46.0445
46.0066
45.9697
45.9347
45.9006
45.8686
45.8377
45.8087
45.78
45.752
45.7229
45.6931
45.6608
45.6268
45.59
45.5524
45.5147
45.4785
45.4432
45.4116
45.3847
45.3615
45.3385
45.3166
45.293
45.2651
45.2314
45.1948
45.1561
45.1209
45.0923
45.0734
45.0592
45.0451
45.0224
44.9874
44.9363
44.8676
44.783
44.6833
44.5812
44.4754
44.3891
44.3182
44.2991
44.3047
44.3685
44.4479
44.5466
44.6338
44.7419
44.8338
44.9281
45.0116
45.1263
45.2443
45.372
45.4782
45.572
45.6412
45.7087
45.753
45.801
45.8345
45.8655
45.8794
45.9024
45.9187
45.9652
46.0239
46.1237
46.2281
46.372
46.5266
46.7164
46.9057
47.1128
47.2938
47.4774
47.6318
47.7893
47.9162
48.0476
48.154
48.2715
48.3721
48.4999
48.6132
48.748
48.8693
49.0068
49.1268
49.2739
49.4095
49.5734
49.7424
49.9745
50.1663
50.4035
50.5955
50.8597
50.9241
51.1172
51.0146
51.2938
51.19
51.4209
51.3697
51.6263
51.6059
51.887
51.884
52.1468
52.0051
52.4533
52.3068
52.6386
52.4441
52.8655
52.6638
52.9333
52.489
52.664
52.3371
52.6568
52.4884
52.6972
52.5455
52.6595
52.5201
52.4697
52.0282
51.9956
51.5453
51.3347
50.8865
50.6716
50.148
50.0258
49.4089
49.2803
48.4652
48.1701
47.0843
46.5691
45.5077
44.6242
43.5173
42.1819
40.7148
38.7499
36.6487
34.1023
31.3126
50.9871
50.5509
48.5691
46.8478
45.7908
45.4008
45.5388
45.9478
46.4009
46.7795
47.0442
47.1922
47.2343
47.1979
47.1148
47.0141
46.9148
46.8284
46.7592
46.7085
46.6743
46.6541
46.6438
46.6401
46.6393
46.6396
46.6388
46.6365
46.6316
46.6245
46.6146
46.6026
46.5882
46.5721
46.5538
46.5341
46.5123
46.4889
46.4634
46.4362
46.4066
46.3755
46.3425
46.3088
46.2742
46.24
46.2062
46.1736
46.1418
46.1115
46.0825
46.0553
46.0295
46.0059
45.9833
45.9615
45.9393
45.9169
45.8938
45.8697
45.8435
45.8162
45.7898
45.7648
45.7409
45.7202
45.7025
45.6852
45.6654
45.6432
45.6153
45.5788
45.5348
45.4876
45.4406
45.4011
45.3717
45.355
45.3484
45.345
45.3355
45.3156
45.2786
45.2191
45.1381
45.0408
44.9393
44.8369
44.7546
44.6951
44.6889
44.7029
44.7739
44.849
44.9438
45.0294
45.1491
45.2459
45.3526
45.4507
45.5953
45.732
45.8828
45.9945
46.0921
46.1513
46.2174
46.259
46.3213
46.3582
46.4036
46.4312
46.4825
46.5279
46.6149
46.7063
46.8483
46.9866
47.1737
47.3573
47.5834
47.7942
48.0295
48.2262
48.4349
48.6007
48.7788
48.9125
49.054
49.1585
49.2799
49.382
49.5151
49.6339
49.78
49.9088
50.0522
50.1833
50.334
50.4755
50.6544
50.8304
51.066
51.2779
51.5133
51.7199
51.9681
52.0859
52.1819
52.098
52.3968
52.2229
52.5257
52.4577
52.7725
52.7371
52.997
53.0177
53.2297
53.1126
53.5434
53.41
53.8046
53.6769
54.0586
53.9287
54.0959
53.6493
53.8804
53.485
53.9169
53.7059
53.9521
53.7922
53.8932
53.715
53.6353
53.1884
53.091
52.5569
52.3781
51.8986
51.6354
51.2222
50.9828
50.5227
50.0968
49.3907
48.9107
47.9577
47.4135
46.414
45.5903
44.4313
43.2023
41.6673
39.8635
37.8514
35.4824
32.9179
50.7838
50.3432
48.4648
46.8866
45.9541
45.6612
45.8336
46.2162
46.6128
46.9297
47.1402
47.245
47.2601
47.2129
47.1317
47.0402
46.9534
46.8798
46.8224
46.7813
46.7543
46.7387
46.7307
46.7276
46.7267
46.7264
46.7252
46.7229
46.7185
46.7124
46.7042
46.6943
46.6825
46.6692
46.6543
46.6382
46.6205
46.6012
46.5802
46.5574
46.5324
46.5057
46.4772
46.4481
46.4192
46.3912
46.3634
46.3362
46.31
46.2853
46.2617
46.2399
46.22
46.2025
46.1864
46.1716
46.1578
46.1451
46.1322
46.1176
46.1011
46.0848
46.07
46.0565
46.0446
46.0346
46.0253
46.0139
45.9976
45.9751
45.9435
45.9019
45.8514
45.7955
45.7413
45.6986
45.672
45.6632
45.668
45.6789
45.6871
45.6859
45.6655
45.6183
45.5439
45.4545
45.3562
45.2616
45.1882
45.1468
45.1495
45.1679
45.2394
45.3113
45.4013
45.498
45.6313
45.7398
45.8644
45.9884
46.1587
46.3098
46.4767
46.5937
46.6936
46.7442
46.81
46.8527
46.9255
46.9701
47.034
47.0788
47.1602
47.2374
47.3634
47.4899
47.6726
47.8465
48.073
48.2876
48.5442
48.777
49.032
49.2425
49.4683
49.6444
49.8381
49.9847
50.1361
50.245
50.3736
50.4831
50.6266
50.7537
50.9149
51.0544
51.2064
51.347
51.4905
51.6407
51.8207
52.0116
52.2452
52.4852
52.7044
52.9352
53.1573
53.3011
53.3168
53.3439
53.5473
53.3583
53.7173
53.6637
54.0004
53.9729
54.2107
54.2837
54.3902
54.3937
54.6923
54.63
55.0666
55.0693
55.3661
55.2731
55.3713
54.9873
55.1928
54.9217
55.2555
55.0227
55.2707
55.1463
55.2128
55.0144
54.8242
54.3758
54.2587
53.7008
53.4771
53.0737
52.7477
52.4945
52.0277
51.7558
51.0399
50.5702
49.7865
49.0245
48.3962
47.5051
46.7143
45.4788
44.3183
42.6906
41.014
39.0522
36.8335
34.4475
50.3199
49.904
48.2908
46.9841
46.2507
46.0636
46.2393
46.5546
46.8584
47.0862
47.2234
47.2766
47.2641
47.2098
47.1355
47.0581
46.9877
46.9295
46.8849
46.8532
46.8321
46.819
46.8114
46.8072
46.8047
46.8028
46.8007
46.7979
46.794
46.7889
46.7824
46.7745
46.7653
46.755
46.7435
46.731
46.7174
46.7025
46.6861
46.6678
46.6474
46.6255
46.6026
46.579
46.5556
46.5335
46.5129
46.4929
46.4731
46.4538
46.4357
46.4201
46.4073
46.3968
46.3879
46.3813
46.3765
46.3733
46.3709
46.3679
46.3635
46.3583
46.3541
46.3517
46.3508
46.3501
46.3482
46.3422
46.3298
46.309
46.2763
46.231
46.1763
46.1158
46.0576
46.0154
45.9963
45.9996
46.0194
46.0475
46.0746
46.0918
46.0865
46.0516
45.9886
45.912
45.8207
45.7434
45.6824
45.6588
45.6695
45.6995
45.7682
45.8318
45.9201
46.0403
46.1897
46.3186
46.4627
46.6235
46.8085
46.9733
47.1463
47.2686
47.3671
47.4228
47.4853
47.5362
47.617
47.6787
47.7632
47.8365
47.946
48.0556
48.2119
48.3756
48.5853
48.7964
49.0469
49.2955
49.5681
49.8236
50.0894
50.3184
50.5542
50.7442
50.9459
51.1055
51.2692
51.3864
51.5316
51.6552
51.8081
51.953
52.1209
52.2688
52.4265
52.569
52.7078
52.8687
53.0501
53.258
53.4978
53.7658
53.9684
54.2303
54.3963
54.5224
54.5521
54.6601
54.7178
54.7199
54.9955
54.9976
55.3219
55.2941
55.4943
55.6032
55.6681
55.7813
55.9014
56.0681
56.4466
56.49
56.6822
56.6153
56.6628
56.44
56.6064
56.4913
56.6295
56.4961
56.6087
56.5338
56.4897
56.2813
56.0531
55.7074
55.4714
55.0001
54.7139
54.3963
53.9696
53.8223
53.2217
53.0226
52.0391
51.8156
50.7966
50.2529
49.4823
48.7706
47.8931
46.6394
45.5076
43.8007
42.1962
40.252
38.1727
35.9204
49.5601
49.2378
48.1021
47.1944
46.7015
46.5909
46.7137
46.9134
47.0939
47.2181
47.28
47.2868
47.2538
47.1981
47.1344
47.0728
47.0189
46.9751
46.9413
46.9164
46.8986
46.8861
46.8773
46.8712
46.8667
46.8632
46.8601
46.857
46.8537
46.8496
46.8446
46.8386
46.8316
46.8239
46.8153
46.8063
46.797
46.7867
46.7748
46.761
46.7456
46.7286
46.711
46.6938
46.6771
46.6612
46.6471
46.6346
46.6226
46.6102
46.5986
46.5903
46.5861
46.5843
46.584
46.586
46.5906
46.5971
46.6037
46.6091
46.6145
46.6214
46.6292
46.6374
46.6453
46.6518
46.6558
46.6543
46.6455
46.6272
46.5961
46.5528
46.4987
46.4383
46.3837
46.3495
46.3428
46.3602
46.3933
46.4346
46.4757
46.5063
46.5138
46.4924
46.446
46.3899
46.311
46.2619
46.2216
46.2189
46.2346
46.2774
46.338
46.4076
46.5065
46.6457
46.8036
46.9612
47.1325
47.3282
47.5165
47.6943
47.8609
47.9924
48.0896
48.162
48.2229
48.2924
48.3751
48.4644
48.5657
48.6785
48.8107
48.9602
49.1348
49.3351
49.5594
49.8013
50.0603
50.3341
50.6065
50.8848
51.1485
51.3947
51.6302
51.8432
52.0482
52.237
52.4034
52.551
52.7015
52.8501
53.0059
53.1734
53.3355
53.5046
53.6579
53.8135
53.955
54.1328
54.3146
54.5463
54.7846
55.0604
55.2581
55.5643
55.6517
55.8051
55.782
55.951
55.99
56.1821
56.3069
56.4301
56.6079
56.6445
56.8265
56.9551
56.9536
57.1996
57.2416
57.6253
57.7466
57.8637
57.941
57.9672
57.9916
57.9801
58.0105
57.9757
57.9561
57.9745
57.9122
57.8952
57.7351
57.5795
57.2243
57.0836
56.6342
56.3941
55.9697
55.752
55.2611
55.1912
54.3586
54.1545
53.1149
53.0099
51.8328
51.5855
50.5985
50.0318
48.9786
47.8462
46.661
44.9353
43.3474
41.4331
39.4697
37.3038
48.7259
48.5585
48.0056
47.5348
47.2543
47.1514
47.1624
47.2189
47.2744
47.3064
47.3081
47.2826
47.2388
47.1866
47.1338
47.0858
47.0446
47.0109
46.9839
46.9626
46.9458
46.9326
46.9223
46.9144
46.9083
46.9037
46.9
46.8969
46.8939
46.8907
46.8867
46.882
46.8767
46.8715
46.8662
46.8601
46.8538
46.8474
46.8402
46.831
46.82
46.8088
46.7975
46.7861
46.7754
46.7673
46.7615
46.7568
46.7523
46.7479
46.7455
46.7465
46.7507
46.7572
46.7658
46.7768
46.7897
46.8041
46.8194
46.8342
46.8476
46.8607
46.875
46.8905
46.9049
46.9158
46.9225
46.9243
46.9194
46.9048
46.8791
46.8438
46.7998
46.7517
46.71
46.6891
46.6958
46.7251
46.7681
46.8156
46.8614
46.8997
46.919
46.9152
46.89
46.8651
46.8152
46.7993
46.7788
46.7973
46.8223
46.8852