/*--------------------------------*- C++ -*----------------------------------*\
| =========                 |                                                 |
| \\      /  F ield         | OpenFOAM: The Open Source CFD Toolbox           |
|  \\    /   O peration     | Version:  2.4.0                                 |
|   \\  /    A nd           | Web:      www.OpenFOAM.org                      |
|    \\/     M anipulation  |                                                 |
\*---------------------------------------------------------------------------*/
FoamFile
{
    version     2.0;
    format      ascii;
    class       volVectorField;
    location    "1.82";
    object      U;
}
// * * * * * * * * * * * * * * * * * * * * * * * * * * * * * * * * * * * * * //

dimensions      [0 1 -1 0 0 0 0];

internalField   nonuniform List<vector> 
8800
(
(8.09284 0.387889 0)
(5.45204 0.242637 0)
(3.90858 0.043114 0)
(3.1615 -0.0156149 0)
(2.79375 -0.0182509 0)
(2.60895 -0.0112967 0)
(2.47141 -0.00508588 0)
(2.39435 -0.00306306 0)
(2.30291 -0.000741124 0)
(2.26585 -0.000963045 0)
(2.19864 -0.000865896 0)
(2.18571 8.94526e-05 0)
(2.1204 0.000552741 0)
(2.12226 -0.00102475 0)
(2.05098 0.00210182 0)
(2.05758 -0.000991592 0)
(1.98502 0.00111247 0)
(1.98467 -0.00112181 0)
(1.98486 0.0109344 0)
(1.69925 -0.0718742 0)
(10.0812 0.837882 0)
(9.66909 0.868264 0)
(8.85727 0.507103 0)
(8.10474 0.26172 0)
(7.46709 0.138249 0)
(7.04026 0.0814292 0)
(6.65852 0.0556816 0)
(6.44366 0.0389459 0)
(6.17528 0.0317249 0)
(6.07653 0.0235943 0)
(5.87115 0.0182145 0)
(5.83623 0.0180008 0)
(5.65517 0.0173759 0)
(5.66415 0.0115624 0)
(5.47437 0.0221449 0)
(5.50473 0.00915856 0)
(5.32497 0.0237774 0)
(5.3242 -0.00376329 0)
(5.2735 0.0365267 0)
(5.08492 -0.045471 0)
(10.0454 0.629701 0)
(10.6875 0.864735 0)
(10.8331 0.600906 0)
(10.7364 0.374078 0)
(10.408 0.255483 0)
(10.1479 0.196223 0)
(9.76866 0.155081 0)
(9.57643 0.120929 0)
(9.226 0.0974454 0)
(9.12673 0.0749886 0)
(8.83294 0.0589548 0)
(8.79353 0.052862 0)
(8.53815 0.0468327 0)
(8.55273 0.034997 0)
(8.29128 0.0516787 0)
(8.33556 0.0260956 0)
(8.0919 0.0547044 0)
(8.10408 0.00635456 0)
(7.98137 0.0428936 0)
(7.88892 -0.0778835 0)
(9.95038 0.454076 0)
(10.6342 0.709576 0)
(11.0951 0.5442 0)
(11.4567 0.35328 0)
(11.473 0.260025 0)
(11.5609 0.228341 0)
(11.3878 0.20214 0)
(11.4188 0.174019 0)
(11.1766 0.152712 0)
(11.1996 0.123046 0)
(10.9619 0.106684 0)
(10.9769 0.0934093 0)
(10.7524 0.0871462 0)
(10.7836 0.0642998 0)
(10.5465 0.0926762 0)
(10.589 0.0482358 0)
(10.3501 0.0932302 0)
(10.3664 0.0278854 0)
(10.2475 0.0677564 0)
(10.1415 -0.0974144 0)
(9.93563 0.340509 0)
(10.515 0.575286 0)
(10.9418 0.457335 0)
(11.4085 0.297901 0)
(11.5492 0.204512 0)
(11.7891 0.195305 0)
(11.7753 0.179293 0)
(11.9378 0.166869 0)
(11.8783 0.154608 0)
(12.0027 0.1289 0)
(11.9298 0.111901 0)
(12.0219 0.110305 0)
(11.951 0.0942318 0)
(12.0081 0.0857181 0)
(11.9245 0.102631 0)
(11.9851 0.0802814 0)
(11.8427 0.101484 0)
(11.8466 0.0675328 0)
(11.8685 0.0735511 0)
(11.7634 0.016367 0)
(9.96956 0.246674 0)
(10.3873 0.460241 0)
(10.8369 0.375943 0)
(11.2322 0.249262 0)
(11.4773 0.15901 0)
(11.6637 0.149571 0)
(11.7633 0.150388 0)
(11.8766 0.133257 0)
(11.935 0.13295 0)
(12.0575 0.106545 0)
(12.0889 0.0976744 0)
(12.1952 0.0906109 0)
(12.2521 0.0871058 0)
(12.2969 0.0695763 0)
(12.368 0.0949597 0)
(12.4474 0.0753005 0)
(12.4001 0.109282 0)
(12.441 0.0666263 0)
(12.5591 0.0998656 0)
(12.4762 0.0734702 0)
(9.997 0.176758 0)
(10.3131 0.352205 0)
(10.7373 0.289109 0)
(11.1301 0.209052 0)
(11.3851 0.114131 0)
(11.5297 0.116557 0)
(11.715 0.105261 0)
(11.7679 0.118922 0)
(11.8543 0.0922851 0)
(11.9898 0.0971021 0)
(12.0072 0.0587784 0)
(12.1339 0.0893525 0)
(12.2152 0.0443912 0)
(12.2306 0.0808306 0)
(12.3883 0.0364471 0)
(12.4186 0.103334 0)
(12.4201 0.0643925 0)
(12.5753 0.0894416 0)
(12.5767 0.0790224 0)
(12.5019 0.263558 0)
(9.99825 0.103845 0)
(10.2839 0.265568 0)
(10.6499 0.189201 0)
(11.0583 0.169845 0)
(11.2896 0.0781408 0)
(11.5088 0.0848592 0)
(11.6359 0.0576435 0)
(11.6832 0.1084 0)
(11.7873 0.0378216 0)
(11.934 0.0952045 0)
(11.9091 0.0256079 0)
(12.1165 0.0769881 0)
(12.0899 0.0257588 0)
(12.198 0.0657282 0)
(12.3224 0.00657662 0)
(12.2837 0.111417 0)
(12.4257 0.0176028 0)
(12.5287 0.0946723 0)
(12.4292 0.0975454 0)
(12.5551 0.223594 0)
(9.99218 0.0650999 0)
(10.2397 0.150615 0)
(10.6409 0.121587 0)
(10.9643 0.0998326 0)
(11.2957 0.0469705 0)
(11.4463 0.0336799 0)
(11.5761 0.0530188 0)
(11.663 0.058006 0)
(11.7628 0.0233974 0)
(11.8368 0.053599 0)
(11.9233 0.0142514 0)
(12.0168 0.0411031 0)
(12.0514 0.0326806 0)
(12.2147 0.0113622 0)
(12.1916 0.0290626 0)
(12.3203 0.0544604 0)
(12.3911 0.0227572 0)
(12.3864 0.0473094 0)
(12.4405 0.0766769 0)
(12.5256 0.0394834 0)
(9.98644 0.0119348 0)
(10.2454 0.0581225 0)
(10.6031 0.0297494 0)
(10.9313 0.044659 0)
(11.2856 0.00849607 0)
(11.4084 0.0249227 0)
(11.5738 -0.000162884 0)
(11.6584 0.0343102 0)
(11.7038 -0.0113351 0)
(11.8154 0.0399955 0)
(11.9406 -0.0139667 0)
(11.9341 0.037047 0)
(12.1231 -0.00939865 0)
(12.114 0.0165128 0)
(12.1967 -0.0028802 0)
(12.3352 0.035324 0)
(12.3231 0.00904769 0)
(12.3788 0.0276492 0)
(12.4445 0.0165621 0)
(12.3993 0.0624088 0)
(10.011 -0.0234673 0)
(10.2248 -0.0494257 0)
(10.5933 -0.0335571 0)
(10.9551 -0.031121 0)
(11.2507 -0.0205498 0)
(11.4333 -0.0209546 0)
(11.5462 -0.0150892 0)
(11.6981 -0.000633252 0)
(11.6728 -0.0236459 0)
(11.8437 -0.0156714 0)
(11.9027 -0.0144865 0)
(11.9553 -0.00246255 0)
(12.1312 -0.00651651 0)
(12.07 -0.007894 0)
(12.2583 -0.0254997 0)
(12.2658 0.0138355 0)
(12.3367 0.000612236 0)
(12.4254 -0.0214785 0)
(12.4207 0.00215779 0)
(12.3899 0.0368328 0)
(10.0118 -0.0728326 0)
(10.2234 -0.139754 0)
(10.6241 -0.130083 0)
(10.9912 -0.0887023 0)
(11.2796 -0.0505018 0)
(11.4516 -0.0396705 0)
(11.5572 -0.0629706 0)
(11.6997 -0.0341228 0)
(11.7177 -0.0467875 0)
(11.8825 -0.0386985 0)
(11.8936 -0.0288816 0)
(11.9971 -0.0310829 0)
(12.0992 -0.0210769 0)
(12.1742 -0.0289025 0)
(12.2379 -0.0387736 0)
(12.2656 -0.00947186 0)
(12.4126 -0.0340284 0)
(12.4046 -0.036928 0)
(12.4385 -0.0238072 0)
(12.4584 -0.0102704 0)
(10.0043 -0.117436 0)
(10.2644 -0.247442 0)
(10.6703 -0.204768 0)
(11.0358 -0.154347 0)
(11.3117 -0.0845906 0)
(11.5082 -0.076963 0)
(11.6111 -0.0817867 0)
(11.7086 -0.0671826 0)
(11.79 -0.0749126 0)
(11.8977 -0.0702704 0)
(11.9502 -0.0418737 0)
(12.0562 -0.0547855 0)
(12.1239 -0.0437004 0)
(12.2324 -0.0462176 0)
(12.2652 -0.0462445 0)
(12.3463 -0.0432432 0)
(12.4257 -0.0469518 0)
(12.4679 -0.0657147 0)
(12.4986 -0.0678809 0)
(12.4227 -0.0106588 0)
(10.0275 -0.179707 0)
(10.2883 -0.348389 0)
(10.7515 -0.291565 0)
(11.1118 -0.206557 0)
(11.3995 -0.118708 0)
(11.5517 -0.112121 0)
(11.6827 -0.11386 0)
(11.7704 -0.106214 0)
(11.8729 -0.096574 0)
(11.9482 -0.0934745 0)
(12.0364 -0.0634382 0)
(12.1257 -0.0809303 0)
(12.1996 -0.0553917 0)
(12.2678 -0.0708503 0)
(12.3557 -0.0601632 0)
(12.3935 -0.0674472 0)
(12.4868 -0.0714138 0)
(12.5477 -0.0931617 0)
(12.544 -0.0771416 0)
(12.4948 -0.0479483 0)
(10.0663 -0.25493 0)
(10.3086 -0.451194 0)
(10.8995 -0.377641 0)
(11.1845 -0.252959 0)
(11.5261 -0.158293 0)
(11.6045 -0.151268 0)
(11.8091 -0.144191 0)
(11.8254 -0.135587 0)
(11.9882 -0.124266 0)
(12.0014 -0.12116 0)
(12.1481 -0.0858417 0)
(12.1502 -0.10112 0)
(12.2761 -0.0714734 0)
(12.2814 -0.0947367 0)
(12.3927 -0.0701059 0)
(12.3755 -0.0920254 0)
(12.4778 -0.0868817 0)
(12.4573 -0.119622 0)
(12.4815 -0.103977 0)
(12.3974 -0.104834 0)
(10.0636 -0.350175 0)
(10.3823 -0.562857 0)
(11.0639 -0.465028 0)
(11.2916 -0.294878 0)
(11.6616 -0.20504 0)
(11.666 -0.192303 0)
(11.8899 -0.182787 0)
(11.8178 -0.164431 0)
(11.9947 -0.150881 0)
(11.8859 -0.137968 0)
(12.0484 -0.105668 0)
(11.9036 -0.111767 0)
(12.055 -0.0884844 0)
(11.9076 -0.102519 0)
(12.0229 -0.0797793 0)
(11.874 -0.10025 0)
(11.9591 -0.0904686 0)
(11.796 -0.126837 0)
(11.8115 -0.105553 0)
(11.6111 -0.135742 0)
(10.014 -0.458805 0)
(10.5538 -0.703397 0)
(11.1831 -0.547561 0)
(11.3553 -0.352481 0)
(11.5698 -0.259755 0)
(11.4494 -0.228904 0)
(11.5018 -0.202619 0)
(11.2915 -0.172253 0)
(11.3114 -0.150701 0)
(11.056 -0.130905 0)
(11.1049 -0.0993679 0)
(10.8267 -0.097442 0)
(10.9051 -0.0777739 0)
(10.6242 -0.0842721 0)
(10.7052 -0.0648687 0)
(10.434 -0.0820209 0)
(10.5011 -0.0687199 0)
(10.216 -0.10836 0)
(10.2405 -0.0824118 0)
(9.92759 -0.143526 0)
(10.0662 -0.632916 0)
(10.6527 -0.862312 0)
(10.8748 -0.601973 0)
(10.6796 -0.37334 0)
(10.4681 -0.254885 0)
(10.0771 -0.196676 0)
(9.84446 -0.155402 0)
(9.48727 -0.120313 0)
(9.32794 -0.0960216 0)
(9.01049 -0.0789949 0)
(8.95344 -0.0555559 0)
(8.66403 -0.0538495 0)
(8.67778 -0.0426465 0)
(8.40106 -0.045889 0)
(8.4487 -0.0373973 0)
(8.17938 -0.045958 0)
(8.2286 -0.04438 0)
(7.93916 -0.0648503 0)
(7.95837 -0.0620427 0)
(7.63275 -0.0750866 0)
(10.0854 -0.838839 0)
(9.65457 -0.86736 0)
(8.87417 -0.506889 0)
(8.0771 -0.261792 0)
(7.49943 -0.137731 0)
(7.00129 -0.0821871 0)
(6.70087 -0.055404 0)
(6.39355 -0.0392203 0)
(6.23451 -0.0300784 0)
(6.0068 -0.0264451 0)
(5.94559 -0.0162688 0)
(5.7537 -0.0186058 0)
(5.74816 -0.0145106 0)
(5.56199 -0.0182267 0)
(5.58149 -0.0145079 0)
(5.39336 -0.0202079 0)
(5.41311 -0.0201083 0)
(5.19751 -0.030457 0)
(5.20019 -0.0337665 0)
(4.92658 -0.0111229 0)
(8.09145 -0.388041 0)
(5.44856 -0.242453 0)
(3.91193 -0.0429027 0)
(3.15572 0.0153473 0)
(2.8026 0.0183369 0)
(2.59687 0.0111576 0)
(2.48506 0.00520452 0)
(2.3776 0.00278743 0)
(2.32284 0.00161636 0)
(2.24406 -0.000215878 0)
(2.22119 0.00154405 0)
(2.15908 -0.000336556 0)
(2.15316 0.000412293 0)
(2.08732 -0.00107735 0)
(2.08624 -6.41141e-05 0)
(2.01598 -0.00173252 0)
(2.0105 -0.00101726 0)
(1.92254 -0.00373546 0)
(1.89133 -0.00364687 0)
(1.75313 0.0107018 0)
(2.27373 -0.1743 0)
(2.28184 0.0290789 0)
(2.343 0.119362 0)
(2.46004 0.153907 0)
(2.6625 0.155836 0)
(2.87486 0.138872 0)
(3.10571 0.109562 0)
(3.28717 0.0725999 0)
(3.45923 0.0305047 0)
(3.55099 -0.00406443 0)
(3.61784 -0.0354863 0)
(3.60314 -0.0536317 0)
(3.59997 -0.0617684 0)
(3.56671 -0.0496966 0)
(3.56797 -0.0280578 0)
(3.56751 -0.00495287 0)
(3.61187 0.0118308 0)
(3.6781 0.0142999 0)
(3.78607 -0.00562634 0)
(3.87461 -0.0348723 0)
(3.96515 -0.0804969 0)
(4.02348 -0.131689 0)
(4.08038 -0.175729 0)
(4.0967 -0.202199 0)
(4.12067 -0.206993 0)
(4.11044 -0.191087 0)
(4.1394 -0.169322 0)
(4.14524 -0.14113 0)
(4.20458 -0.113596 0)
(4.2234 -0.0995076 0)
(4.29243 -0.0882062 0)
(4.319 -0.0805408 0)
(4.38822 -0.0570381 0)
(4.40802 -0.0216601 0)
(4.47723 0.00153114 0)
(4.52593 0.0338773 0)
(4.61344 0.0365086 0)
(4.68386 0.0528249 0)
(4.77262 0.0515686 0)
(4.83902 0.0475963 0)
(4.91498 0.0526981 0)
(4.98839 0.0386779 0)
(5.03745 0.0400614 0)
(5.10888 0.0528756 0)
(5.18925 0.0361292 0)
(5.23537 0.0584541 0)
(5.31771 0.058682 0)
(5.45233 0.033953 0)
(5.51083 0.0732458 0)
(5.62137 0.069167 0)
(5.77672 0.0734775 0)
(5.92126 0.128843 0)
(6.05769 0.097942 0)
(6.26664 0.0811703 0)
(6.44237 0.0967756 0)
(6.5757 0.000741717 0)
(6.76069 -0.0732151 0)
(6.89809 -0.132401 0)
(7.06247 -0.253472 0)
(7.17916 -0.318244 0)
(7.28922 -0.422887 0)
(7.43476 -0.53467 0)
(7.53989 -0.54448 0)
(7.69012 -0.682523 0)
(7.74963 -0.782156 0)
(7.94607 -0.750555 0)
(8.03161 -0.870621 0)
(8.12877 -0.989235 0)
(8.32617 -0.96077 0)
(8.40503 -0.986283 0)
(8.57219 -1.14073 0)
(8.81589 -1.1888 0)
(8.81497 -1.1704 0)
(9.11611 -1.27305 0)
(9.35739 -1.35686 0)
(9.42256 -1.35745 0)
(9.59572 -1.39895 0)
(9.94819 -1.47162 0)
(10.09 -1.53949 0)
(10.2355 -1.59761 0)
(10.575 -1.60053 0)
(10.9083 -1.64109 0)
(11.187 -1.83555 0)
(11.2873 -2.02234 0)
(11.4835 -2.10438 0)
(11.7372 -2.3903 0)
(11.9317 -2.57392 0)
(11.8541 -2.63164 0)
(11.6387 -2.67009 0)
(11.408 -2.60513 0)
(11.2442 -2.41064 0)
(11.0622 -2.07834 0)
(10.8697 -1.67632 0)
(10.6722 -1.3844 0)
(10.543 -1.09584 0)
(10.5638 -0.911285 0)
(10.5801 -0.759235 0)
(10.6468 -0.683656 0)
(10.6312 -0.731212 0)
(10.7848 -0.839839 0)
(10.7456 -1.05352 0)
(10.9451 -1.28987 0)
(10.8887 -1.60635 0)
(11.0909 -1.91832 0)
(10.9714 -2.30846 0)
(11.0903 -2.70554 0)
(11.0049 -3.09565 0)
(11.0861 -3.48502 0)
(11.0687 -3.83404 0)
(11.1113 -4.28243 0)
(11.1894 -4.62779 0)
(11.246 -5.01267 0)
(11.4581 -5.30195 0)
(11.6079 -5.52202 0)
(12.0704 -5.73996 0)
(12.3215 -5.92529 0)
(12.8383 -5.93682 0)
(12.8281 -5.75158 0)
(13.161 -5.4516 0)
(13.0937 -5.03621 0)
(13.0046 -4.43408 0)
(12.7834 -3.86563 0)
(12.6345 -3.31537 0)
(12.2983 -2.64126 0)
(11.9207 -2.05219 0)
(11.6236 -1.54492 0)
(11.306 -1.03254 0)
(10.9731 -0.629211 0)
(10.8875 -0.22262 0)
(10.8034 0.419346 0)
(10.4167 1.04792 0)
(10.1444 1.42935 0)
(9.72261 1.58912 0)
(9.18552 1.53076 0)
(8.74421 1.4432 0)
(8.51641 0.99539 0)
(8.29822 0.564124 0)
(8.18405 0.5097 0)
(7.97312 0.195266 0)
(8.0976 0.0327952 0)
(8.27853 0.0431707 0)
(8.29854 -0.0820479 0)
(8.62584 0.0452452 0)
(8.89136 0.176262 0)
(9.01293 0.241675 0)
(9.39205 0.57008 0)
(9.48248 0.834002 0)
(9.60832 1.14863 0)
(9.72839 1.61821 0)
(9.792 1.87264 0)
(9.58144 2.25021 0)
(9.58291 2.6367 0)
(9.38007 2.89753 0)
(8.99723 3.05495 0)
(8.7485 3.39709 0)
(8.52742 3.60332 0)
(7.9843 3.70066 0)
(8.08122 4.0282 0)
(7.64657 3.74133 0)
(7.33356 3.39687 0)
(7.28156 3.43506 0)
(6.85623 3.41451 0)
(7.14733 3.52531 0)
(6.35604 2.91646 0)
(6.39729 3.05607 0)
(6.53654 3.51971 0)
(6.38146 4.1392 0)
(6.7199 4.27552 0)
(5.73907 3.808 0)
(6.24338 3.72666 0)
(5.6707 3.26327 0)
(5.66177 3.26936 0)
(5.89978 3.19382 0)
(5.00091 3.05053 0)
(6.22574 3.48919 0)
(5.39869 3.40806 0)
(6.32046 3.84539 0)
(6.6902 4.02445 0)
(5.93457 4.09173 0)
(7.35234 4.92653 0)
(6.5736 4.89684 0)
(5.69956 5.63107 0)
(8.13592 5.5639 0)
(4.23666 5.98516 0)
(8.55558 4.4907 0)
(4.6308 5.02811 0)
(7.9936 3.25534 0)
(4.90837 3.72535 0)
(7.62174 1.58516 0)
(5.36698 1.83427 0)
(7.04737 -0.133804 0)
(4.55656 0.196112 0)
(6.5685 -2.36209 0)
(3.43714 -1.47886 0)
(5.21011 -2.70599 0)
(2.04677 -0.69946 0)
(3.67961 -2.40725 0)
(1.25349 -0.248376 0)
(2.14131 -2.52891 0)
(2.18113 1.43819 0)
(5.27084 -0.0744966 0)
(5.25476 -0.000513435 0)
(5.22093 0.0679289 0)
(5.18813 0.0998235 0)
(5.21773 0.0986852 0)
(5.29223 0.069032 0)
(5.39828 0.035603 0)
(5.49962 0.0041015 0)
(5.58735 -0.0260022 0)
(5.65719 -0.0492304 0)
(5.69707 -0.0724422 0)
(5.71768 -0.0868297 0)
(5.72102 -0.0923805 0)
(5.72456 -0.0921449 0)
(5.73081 -0.0881238 0)
(5.74787 -0.0733208 0)
(5.78914 -0.0712178 0)
(5.83658 -0.0660103 0)
(5.92414 -0.0814453 0)
(5.98597 -0.107828 0)
(6.07884 -0.132743 0)
(6.11922 -0.175019 0)
(6.18609 -0.193539 0)
(6.21048 -0.223118 0)
(6.2469 -0.225377 0)
(6.25889 -0.215498 0)
(6.28716 -0.206363 0)
(6.30363 -0.171703 0)
(6.34459 -0.166655 0)
(6.36975 -0.135549 0)
(6.42103 -0.125732 0)
(6.45396 -0.107226 0)
(6.51305 -0.0810429 0)
(6.54908 -0.069191 0)
(6.60079 -0.0283297 0)
(6.65405 -0.0227323 0)
(6.7219 -0.00975885 0)
(6.77681 0.00217005 0)
(6.87499 -0.0167601 0)
(6.91747 -0.00506797 0)
(7.00234 -0.0268125 0)
(7.07592 -0.0277662 0)
(7.1324 -0.0367776 0)
(7.1951 -0.0443362 0)
(7.3139 -0.0338325 0)
(7.32512 -0.0461631 0)
(7.45055 -0.0269617 0)
(7.55222 -0.0263732 0)
(7.61522 -0.0342889 0)
(7.75068 0.00171611 0)
(7.85911 -0.00105781 0)
(7.98085 -0.0163495 0)
(8.12812 -0.0209158 0)
(8.27554 -0.0189882 0)
(8.44266 -0.0824936 0)
(8.54052 -0.1451 0)
(8.71928 -0.159109 0)
(8.84657 -0.257944 0)
(8.97635 -0.386551 0)
(9.07037 -0.363919 0)
(9.25727 -0.499993 0)
(9.32132 -0.643527 0)
(9.39002 -0.576777 0)
(9.62601 -0.739531 0)
(9.61751 -0.88288 0)
(9.69038 -0.836422 0)
(9.96569 -0.936336 0)
(9.96175 -1.05235 0)
(10.0132 -1.10375 0)
(10.2768 -1.12105 0)
(10.4056 -1.20692 0)
(10.5077 -1.2984 0)
(10.6319 -1.34242 0)
(10.8654 -1.3825 0)
(11.0545 -1.48099 0)
(11.2013 -1.51919 0)
(11.318 -1.5488 0)
(11.6037 -1.66731 0)
(11.7411 -1.67649 0)
(11.9449 -1.63389 0)
(12.2285 -1.82475 0)
(12.3679 -1.91928 0)
(12.4804 -1.95595 0)
(12.6492 -2.14339 0)
(12.8471 -2.24898 0)
(12.901 -2.35218 0)
(12.6938 -2.48036 0)
(12.4935 -2.59545 0)
(12.2989 -2.58246 0)
(12.0267 -2.28787 0)
(11.5774 -2.01523 0)
(11.1239 -1.74949 0)
(10.8501 -1.50055 0)
(10.6166 -1.28212 0)
(10.5245 -1.05419 0)
(10.4357 -0.880279 0)
(10.455 -0.798609 0)
(10.3997 -0.752354 0)
(10.4444 -0.77337 0)
(10.423 -0.884522 0)
(10.4837 -1.06982 0)
(10.4396 -1.33448 0)
(10.5229 -1.63192 0)
(10.4377 -1.95924 0)
(10.4678 -2.316 0)
(10.4585 -2.74478 0)
(10.4855 -3.10453 0)
(10.501 -3.52507 0)
(10.4709 -4.07375 0)
(10.5975 -4.45749 0)
(10.6771 -4.82515 0)
(11.0403 -5.24307 0)
(11.2721 -5.59305 0)
(11.585 -5.89033 0)
(12.0254 -6.08853 0)
(12.1284 -6.20131 0)
(12.3859 -6.01034 0)
(12.0649 -5.74267 0)
(12.313 -5.30494 0)
(12.0026 -4.80607 0)
(11.9692 -4.1892 0)
(11.6111 -3.4939 0)
(11.467 -2.83602 0)
(11.0545 -2.16566 0)
(10.73 -1.58725 0)
(10.2284 -1.13777 0)
(9.80797 -0.656052 0)
(9.52252 -0.312428 0)
(9.28885 -0.0338164 0)
(9.31122 0.627866 0)
(9.08561 1.14957 0)
(8.95393 1.73458 0)
(8.3822 2.00507 0)
(8.06467 2.06004 0)
(7.88904 1.67196 0)
(7.67903 1.17247 0)
(7.53812 0.752851 0)
(7.4675 0.553215 0)
(7.54779 0.183517 0)
(7.7278 -0.102027 0)
(7.97831 -0.0493155 0)
(8.22728 -0.253119 0)
(8.5659 -0.219128 0)
(8.99837 -0.0529247 0)
(9.22438 -0.000533026 0)
(9.54171 0.329381 0)
(9.79832 0.746663 0)
(9.8148 0.994473 0)
(10.0548 1.48994 0)
(10.0475 1.93922 0)
(9.95591 2.24469 0)
(9.83102 2.72665 0)
(9.66408 3.11087 0)
(9.337 3.31473 0)
(8.83854 3.55197 0)
(8.69426 3.93917 0)
(8.27689 3.88688 0)
(7.87147 4.12325 0)
(7.76298 4.20039 0)
(7.27412 3.61294 0)
(7.3219 3.66142 0)
(6.84606 3.47487 0)
(6.71585 3.55272 0)
(6.57688 3.20011 0)
(6.09777 3.06151 0)
(6.32897 3.59946 0)
(6.00575 3.86549 0)
(6.4661 4.50971 0)
(6.44921 4.04674 0)
(5.92955 3.91702 0)
(6.4155 3.84582 0)
(5.33828 3.26195 0)
(5.99398 3.40871 0)
(5.57603 2.95516 0)
(5.56614 3.21278 0)
(6.4105 3.30583 0)
(5.51758 3.35982 0)
(6.96196 4.01558 0)
(6.73844 3.79524 0)
(6.38123 4.91724 0)
(8.43102 4.81286 0)
(5.06499 6.30085 0)
(9.27332 4.88536 0)
(5.31461 6.5376 0)
(9.00444 4.10718 0)
(5.56991 5.3074 0)
(8.38095 3.0469 0)
(5.67955 3.6176 0)
(8.13594 1.79864 0)
(5.4051 1.65936 0)
(7.65467 0.202337 0)
(4.95659 -0.014898 0)
(7.50249 -1.56474 0)
(4.14661 -1.49122 0)
(6.2931 -2.09456 0)
(3.47923 0.120783 0)
(5.12879 -1.1155 0)
(2.84913 0.385762 0)
(3.93754 -0.780009 0)
(2.20389 0.389722 0)
(7.9569 -0.00886507 0)
(7.94661 0.0692279 0)
(7.899 0.118634 0)
(7.85242 0.0991558 0)
(7.82081 0.0627887 0)
(7.85758 0.0114482 0)
(7.90413 -0.0312417 0)
(7.99696 -0.0465522 0)
(8.0538 -0.0694171 0)
(8.12033 -0.0689035 0)
(8.14809 -0.0813801 0)
(8.15871 -0.0834031 0)
(8.15562 -0.0908737 0)
(8.13741 -0.0985063 0)
(8.14577 -0.100145 0)
(8.1318 -0.104498 0)
(8.1809 -0.10171 0)
(8.18188 -0.117074 0)
(8.27106 -0.120114 0)
(8.29066 -0.15478 0)
(8.37538 -0.169589 0)
(8.41278 -0.196547 0)
(8.44242 -0.228662 0)
(8.50639 -0.219866 0)
(8.48352 -0.254501 0)
(8.55147 -0.22364 0)
(8.5289 -0.225375 0)
(8.56495 -0.210938 0)
(8.59419 -0.172042 0)
(8.58607 -0.186305 0)
(8.66483 -0.136489 0)
(8.64447 -0.145678 0)
(8.71349 -0.120966 0)
(8.74941 -0.0966685 0)
(8.7497 -0.103812 0)
(8.85568 -0.0583595 0)
(8.84723 -0.0728453 0)
(8.93245 -0.0585022 0)
(9.00486 -0.0506946 0)
(9.02714 -0.0767387 0)
(9.12787 -0.0545594 0)
(9.15986 -0.0828219 0)
(9.2343 -0.0894484 0)
(9.28016 -0.0746805 0)
(9.35805 -0.120212 0)
(9.41293 -0.0909124 0)
(9.4682 -0.0977522 0)
(9.58122 -0.128529 0)
(9.6202 -0.0818525 0)
(9.74522 -0.11137 0)
(9.80982 -0.115924 0)
(9.93252 -0.0905118 0)
(10.0656 -0.143465 0)
(10.1353 -0.153375 0)
(10.3218 -0.162939 0)
(10.4041 -0.252004 0)
(10.488 -0.291639 0)
(10.6601 -0.323868 0)
(10.7439 -0.466289 0)
(10.7695 -0.493326 0)
(11.0021 -0.559936 0)
(11.0371 -0.70878 0)
(11.0185 -0.712351 0)
(11.3079 -0.811246 0)
(11.2996 -0.926303 0)
(11.3149 -0.933295 0)
(11.5608 -1.02991 0)
(11.5838 -1.12458 0)
(11.65 -1.1515 0)
(11.8621 -1.21305 0)
(11.9115 -1.3211 0)
(12.0162 -1.35749 0)
(12.2035 -1.45541 0)
(12.3053 -1.49035 0)
(12.4333 -1.52829 0)
(12.6204 -1.67688 0)
(12.6625 -1.71521 0)
(12.8475 -1.68829 0)
(12.9948 -1.77829 0)
(13.1366 -1.86593 0)
(13.2483 -1.96643 0)
(13.2614 -1.99464 0)
(13.4088 -2.02557 0)
(13.5618 -2.1699 0)
(13.4056 -2.24872 0)
(13.1617 -2.31897 0)
(13.0511 -2.38011 0)
(12.8791 -2.27383 0)
(12.4068 -2.14698 0)
(11.922 -1.98986 0)
(11.5086 -1.6566 0)
(11.1133 -1.44485 0)
(10.9084 -1.22222 0)
(10.5816 -1.03471 0)
(10.4049 -0.916473 0)
(10.2431 -0.800914 0)
(10.1815 -0.709991 0)
(10.0365 -0.722638 0)
(10.0366 -0.777249 0)
(10.0126 -0.883249 0)
(9.99462 -1.0937 0)
(9.99519 -1.36631 0)
(10.0395 -1.65332 0)
(10.0287 -1.98563 0)
(10.0067 -2.35844 0)
(10.0082 -2.75152 0)
(10.0006 -3.23752 0)
(10.0936 -3.68115 0)
(10.1956 -4.10771 0)
(10.3968 -4.45911 0)
(10.6133 -4.89186 0)
(10.9107 -5.3701 0)
(11.1355 -5.7544 0)
(11.2833 -6.03787 0)
(11.3735 -6.14429 0)
(11.2346 -6.11928 0)
(11.1877 -5.77788 0)
(10.8717 -5.50901 0)
(11.1254 -5.0548 0)
(10.8412 -4.4732 0)
(10.9001 -3.82967 0)
(10.5442 -3.17522 0)
(10.5686 -2.50323 0)
(10.0303 -1.85587 0)
(9.87074 -1.19984 0)
(9.10351 -0.719787 0)
(8.6779 -0.370763 0)
(8.19103 -0.14119 0)
(7.92116 0.0538139 0)
(7.87056 0.593005 0)
(7.81029 1.24004 0)
(7.55425 2.08511 0)
(7.16729 2.33441 0)
(6.8638 2.13081 0)
(6.70434 1.73364 0)
(6.529 1.22601 0)
(6.55134 0.761804 0)
(6.72674 0.389515 0)
(7.01273 -0.0337362 0)
(7.32522 -0.313498 0)
(7.76234 -0.439754 0)
(8.2135 -0.563507 0)
(8.67001 -0.651005 0)
(9.11426 -0.361059 0)
(9.31183 -0.25537 0)
(9.69036 0.136348 0)
(9.87059 0.54262 0)
(9.98495 0.876588 0)
(10.1371 1.41822 0)
(10.2041 1.88415 0)
(10.1254 2.27 0)
(10.0754 2.85498 0)
(9.89567 3.22425 0)
(9.61187 3.63 0)
(9.22549 3.88161 0)
(8.80246 4.08106 0)
(8.5201 4.24222 0)
(8.03965 4.20967 0)
(7.98572 4.38054 0)
(7.25078 3.76686 0)
(7.1369 3.82348 0)
(7.03052 3.93411 0)
(6.44359 3.58753 0)
(6.80505 3.66688 0)
(5.91965 3.03048 0)
(6.52908 3.68246 0)
(6.30299 3.92375 0)
(5.79534 4.10271 0)
(6.45357 4.35845 0)
(5.61 3.48189 0)
(6.34997 3.86595 0)
(6.09383 3.40351 0)
(5.58994 3.35591 0)
(6.19347 3.41011 0)
(5.17178 2.84679 0)
(6.21733 3.60716 0)
(6.23329 2.88569 0)
(5.88674 3.92254 0)
(8.12221 3.49211 0)
(5.11927 5.13443 0)
(9.45376 4.35759 0)
(5.16261 6.23401 0)
(9.64412 4.86654 0)
(5.75108 6.28574 0)
(9.29047 4.43068 0)
(5.95684 5.0843 0)
(9.11312 3.46025 0)
(6.1458 3.80273 0)
(8.74096 1.82071 0)
(5.8843 1.99629 0)
(8.1763 0.38513 0)
(5.94171 0.312241 0)
(7.91857 -1.49117 0)
(4.94845 -0.690406 0)
(6.38167 -1.68618 0)
(3.71831 -0.16056 0)
(6.24871 -0.853288 0)
(3.58778 -0.162476 0)
(5.29739 -0.63195 0)
(3.37135 -0.00400187 0)
(10.2048 0.0186734 0)
(10.2209 0.130952 0)
(10.1212 0.163851 0)
(10.1254 0.137128 0)
(10.0821 0.0680979 0)
(10.1509 0.00214673 0)
(10.1653 -0.0472958 0)
(10.2206 -0.080053 0)
(10.2504 -0.0901087 0)
(10.2656 -0.0991143 0)
(10.3014 -0.0812327 0)
(10.2805 -0.0891109 0)
(10.3029 -0.0793586 0)
(10.2659 -0.0857636 0)
(10.2902 -0.104336 0)
(10.2566 -0.0985379 0)
(10.2965 -0.132129 0)
(10.2911 -0.130449 0)
(10.3276 -0.158694 0)
(10.3825 -0.177292 0)
(10.3758 -0.191425 0)
(10.4755 -0.220348 0)
(10.4319 -0.226298 0)
(10.5149 -0.244531 0)
(10.4932 -0.243096 0)
(10.5088 -0.246645 0)
(10.5444 -0.230218 0)
(10.5087 -0.226438 0)
(10.5744 -0.198739 0)
(10.5439 -0.186701 0)
(10.5888 -0.178193 0)
(10.615 -0.146611 0)
(10.5967 -0.150508 0)
(10.69 -0.130289 0)
(10.6356 -0.113385 0)
(10.731 -0.117147 0)
(10.7341 -0.0864543 0)
(10.7547 -0.103319 0)
(10.8477 -0.089318 0)
(10.8402 -0.101402 0)
(10.9192 -0.109626 0)
(10.9646 -0.105725 0)
(11.0023 -0.143432 0)
(11.0576 -0.119396 0)
(11.1127 -0.155991 0)
(11.1633 -0.161877 0)
(11.1886 -0.133983 0)
(11.3043 -0.194671 0)
(11.2906 -0.152506 0)
(11.4029 -0.167811 0)
(11.4553 -0.200181 0)
(11.4942 -0.172674 0)
(11.6343 -0.216421 0)
(11.675 -0.235906 0)
(11.757 -0.263205 0)
(11.8853 -0.331532 0)
(11.9145 -0.357674 0)
(12.0017 -0.434381 0)
(12.1143 -0.525034 0)
(12.1183 -0.540421 0)
(12.2568 -0.65604 0)
(12.2972 -0.748697 0)
(12.3037 -0.756966 0)
(12.4905 -0.877644 0)
(12.4394 -0.958043 0)
(12.5134 -1.0147 0)
(12.6477 -1.07882 0)
(12.6505 -1.16166 0)
(12.7245 -1.26399 0)
(12.8245 -1.28885 0)
(12.8646 -1.35312 0)
(12.9947 -1.47649 0)
(13.0534 -1.52968 0)
(13.068 -1.5143 0)
(13.2315 -1.65938 0)
(13.314 -1.80987 0)
(13.2623 -1.69886 0)
(13.3981 -1.76821 0)
(13.5543 -1.98624 0)
(13.4766 -1.96226 0)
(13.4569 -1.94829 0)
(13.658 -2.04023 0)
(13.6797 -2.11373 0)
(13.3931 -2.17654 0)
(13.2746 -2.15854 0)
(13.3064 -2.09265 0)
(13.0194 -2.11638 0)
(12.5821 -2.01457 0)
(12.0827 -1.79082 0)
(11.7245 -1.53247 0)
(11.3535 -1.33201 0)
(11.0617 -1.20855 0)
(10.7412 -1.05971 0)
(10.5607 -0.896404 0)
(10.2674 -0.730014 0)
(10.1328 -0.617305 0)
(9.97297 -0.619849 0)
(9.8793 -0.635803 0)
(9.79756 -0.74474 0)
(9.76284 -0.922976 0)
(9.71822 -1.10135 0)
(9.70358 -1.39667 0)
(9.71857 -1.68727 0)
(9.66367 -2.0424 0)
(9.62424 -2.43979 0)
(9.69018 -2.85729 0)
(9.76186 -3.24429 0)
(9.84446 -3.66048 0)
(9.98712 -4.15033 0)
(10.0675 -4.6336 0)
(10.2761 -5.1556 0)
(10.3701 -5.6777 0)
(10.4647 -6.02096 0)
(10.294 -6.14044 0)
(10.1275 -6.03326 0)
(9.92817 -5.89859 0)
(9.87998 -5.68041 0)
(9.88754 -5.52012 0)
(10.154 -5.11511 0)
(10.074 -4.58528 0)
(10.1581 -3.94522 0)
(9.83896 -3.28671 0)
(9.98628 -2.50311 0)
(9.36941 -1.72172 0)
(9.23937 -0.816471 0)
(8.15563 -0.236709 0)
(7.80387 0.115255 0)
(6.87465 0.201475 0)
(6.81794 0.407837 0)
(6.42027 0.75457 0)
(6.28962 1.53908 0)
(5.80163 2.09948 0)
(5.63002 2.37739 0)
(5.48187 2.25091 0)
(5.42811 1.84052 0)
(5.63544 1.29515 0)
(5.80815 0.616435 0)
(6.13932 0.197336 0)
(6.66942 -0.330047 0)
(7.13052 -0.708515 0)
(7.71181 -0.840287 0)
(8.19668 -1.00038 0)
(8.63268 -0.94455 0)
(8.89848 -0.651807 0)
(9.22921 -0.410883 0)
(9.38116 -0.065962 0)
(9.71829 0.486184 0)
(9.64502 0.785058 0)
(9.85252 1.38326 0)
(9.91054 1.92382 0)
(9.79028 2.30047 0)
(9.91339 2.92916 0)
(9.72751 3.44634 0)
(9.50678 3.70832 0)
(9.40809 4.29135 0)
(8.68362 4.35177 0)
(8.60807 4.56924 0)
(7.92509 4.585 0)
(7.77388 4.77207 0)
(7.45967 4.29915 0)
(6.55171 3.69262 0)
(7.14293 4.28749 0)
(6.00532 3.67572 0)
(6.24429 3.60366 0)
(6.25384 3.5103 0)
(5.05453 3.36107 0)
(6.50092 4.37862 0)
(5.41606 3.95346 0)
(6.15765 4.29248 0)
(6.36838 4.01772 0)
(5.03845 3.60856 0)
(6.6843 3.92298 0)
(5.12025 3.01553 0)
(6.33478 3.56536 0)
(6.30113 2.47123 0)
(5.33564 3.35594 0)
(7.98967 2.49906 0)
(4.79942 3.84888 0)
(9.3418 3.06725 0)
(4.90745 5.06327 0)
(9.86669 4.12239 0)
(5.5432 6.32764 0)
(9.64447 4.51572 0)
(6.34746 6.25263 0)
(9.70179 4.41841 0)
(6.73567 5.16355 0)
(9.65976 3.45769 0)
(7.02405 3.6078 0)
(9.58804 2.52515 0)
(6.9686 2.00328 0)
(8.89429 0.650374 0)
(7.0719 0.0702477 0)
(8.32701 -0.946672 0)
(6.03929 -0.391538 0)
(7.15169 -1.11597 0)
(5.17537 -0.208057 0)
(6.45888 -0.53603 0)
(5.16955 0.333805 0)
(5.77722 -0.103918 0)
(5.00579 -0.0927921 0)
(11.7301 0.0134965 0)
(11.7543 0.0463533 0)
(11.6491 0.0659174 0)
(11.6443 0.0110706 0)
(11.6509 -0.00346818 0)
(11.7427 -0.0605588 0)
(11.8047 -0.0675652 0)
(11.8749 -0.0814653 0)
(11.9252 -0.099519 0)
(11.9399 -0.0765417 0)
(11.9689 -0.0880154 0)
(11.9323 -0.0787561 0)
(11.9388 -0.0866383 0)
(11.8752 -0.0991729 0)
(11.8818 -0.119425 0)
(11.8209 -0.12708 0)
(11.8284 -0.163989 0)
(11.811 -0.165534 0)
(11.7996 -0.196946 0)
(11.8616 -0.217901 0)
(11.8182 -0.212538 0)
(11.9181 -0.26024 0)
(11.8781 -0.233331 0)
(11.9291 -0.267089 0)
(11.9522 -0.261826 0)
(11.9134 -0.240421 0)
(11.994 -0.265396 0)
(11.9316 -0.215892 0)
(11.9867 -0.226586 0)
(11.9799 -0.202276 0)
(11.9674 -0.184233 0)
(12.0244 -0.183369 0)
(11.9688 -0.155383 0)
(12.0392 -0.161715 0)
(12.0018 -0.135536 0)
(12.0388 -0.141318 0)
(12.058 -0.120212 0)
(12.0439 -0.127261 0)
(12.1188 -0.132533 0)
(12.0983 -0.123116 0)
(12.1641 -0.157201 0)
(12.1827 -0.141672 0)
(12.2116 -0.177993 0)
(12.2586 -0.173942 0)
(12.2785 -0.188595 0)
(12.3292 -0.209633 0)
(12.3411 -0.183581 0)
(12.4085 -0.232471 0)
(12.4205 -0.20201 0)
(12.4736 -0.210722 0)
(12.5152 -0.248124 0)
(12.5515 -0.214098 0)
(12.6211 -0.262204 0)
(12.6488 -0.289633 0)
(12.715 -0.303927 0)
(12.7688 -0.388005 0)
(12.7635 -0.408225 0)
(12.8477 -0.486769 0)
(12.8762 -0.568867 0)
(12.8334 -0.578966 0)
(12.969 -0.725267 0)
(12.9371 -0.769198 0)
(12.8898 -0.791595 0)
(13.0572 -0.950648 0)
(12.9699 -0.989405 0)
(12.9836 -1.0143 0)
(13.1022 -1.14591 0)
(13.1081 -1.23094 0)
(13.0893 -1.23852 0)
(13.207 -1.32302 0)
(13.2766 -1.46482 0)
(13.2563 -1.45587 0)
(13.2605 -1.50412 0)
(13.4158 -1.68898 0)
(13.3713 -1.68063 0)
(13.2898 -1.70731 0)
(13.4639 -1.85125 0)
(13.4095 -1.89648 0)
(13.3017 -1.95506 0)
(13.4116 -1.96377 0)
(13.501 -1.9853 0)
(13.3665 -2.13737 0)
(13.2193 -2.06597 0)
(13.2915 -2.00283 0)
(13.2803 -2.03255 0)
(12.9148 -1.9601 0)
(12.6494 -1.85901 0)
(12.3341 -1.63002 0)
(12.073 -1.45671 0)
(11.818 -1.32909 0)
(11.4738 -1.07812 0)
(11.137 -0.89054 0)
(10.8203 -0.762526 0)
(10.5436 -0.64614 0)
(10.3173 -0.57837 0)
(10.1757 -0.554756 0)
(10.0692 -0.527807 0)
(9.95716 -0.583082 0)
(9.85447 -0.697644 0)
(9.77899 -0.832703 0)
(9.68283 -1.07105 0)
(9.63214 -1.3209 0)
(9.57167 -1.65303 0)
(9.57659 -2.00041 0)
(9.49816 -2.35517 0)
(9.5368 -2.75814 0)
(9.51951 -3.22805 0)
(9.50618 -3.7396 0)
(9.58161 -4.24503 0)
(9.64201 -4.80822 0)
(9.77539 -5.2989 0)
(9.65886 -5.62776 0)
(9.4886 -5.70974 0)
(9.14034 -5.69611 0)
(8.95336 -5.70738 0)
(8.95957 -5.80432 0)
(8.9817 -5.85582 0)
(9.1862 -5.74372 0)
(9.30177 -5.37331 0)
(9.17599 -4.69623 0)
(9.09912 -3.90093 0)
(8.76903 -3.19895 0)
(8.75132 -2.30963 0)
(8.04797 -1.4199 0)
(7.98441 -0.375467 0)
(7.05828 0.19468 0)
(6.64973 0.681403 0)
(5.79505 0.613586 0)
(5.70134 0.666786 0)
(5.03463 1.02403 0)
(4.66974 1.89604 0)
(4.49828 2.46375 0)
(3.90838 2.65962 0)
(4.39749 2.37148 0)
(4.02868 1.68486 0)
(4.81139 1.0673 0)
(4.87267 0.288179 0)
(5.69865 -0.287095 0)
(6.31136 -0.864496 0)
(6.89746 -1.22944 0)
(7.38172 -1.30823 0)
(7.85149 -1.29069 0)
(8.08411 -1.18789 0)
(8.46008 -0.80355 0)
(8.64987 -0.588181 0)
(8.92061 -0.112227 0)
(9.1743 0.321615 0)
(9.08608 0.823631 0)
(9.35373 1.32441 0)
(9.33645 1.94807 0)
(9.22001 2.36808 0)
(9.29564 2.95288 0)
(9.30613 3.62584 0)
(8.93552 3.86303 0)
(9.08194 4.47639 0)
(8.85159 4.68845 0)
(8.2241 4.75321 0)
(8.42135 4.80808 0)
(7.53562 4.6558 0)
(8.05707 4.90764 0)
(6.88387 4.01608 0)
(6.78085 4.24839 0)
(7.07967 4.38244 0)