/*--------------------------------*- C++ -*----------------------------------*\
| =========                 |                                                 |
| \\      /  F ield         | OpenFOAM: The Open Source CFD Toolbox           |
|  \\    /   O peration     | Version:  2.4.0                                 |
|   \\  /    A nd           | Web:      www.OpenFOAM.org                      |
|    \\/     M anipulation  |                                                 |
\*---------------------------------------------------------------------------*/
FoamFile
{
    version     2.0;
    format      ascii;
    class       volVectorField;
    location    "1.82";
    object      UMean;
}
// * * * * * * * * * * * * * * * * * * * * * * * * * * * * * * * * * * * * * //

dimensions      [0 1 -1 0 0 0 0];

internalField   nonuniform List<vector> 
8800
(
(8.09332 0.387338 0)
(5.45575 0.24264 0)
(3.9234 0.0429761 0)
(3.15997 -0.0152316 0)
(2.81654 -0.0184459 0)
(2.59994 -0.010859 0)
(2.50546 -0.00586381 0)
(2.38206 -0.0020066 0)
(2.346 -0.00175628 0)
(2.2526 -0.000222684 0)
(2.24854 -0.00100453 0)
(2.16934 0.000403093 0)
(2.17997 -0.000500955 0)
(2.10271 0.000899195 0)
(2.11783 -0.000152808 0)
(2.03897 0.00122184 0)
(2.0562 -0.000332453 0)
(1.97124 0.00048281 0)
(2.0286 0.00824954 0)
(1.73178 -0.064473 0)
(10.0885 0.836593 0)
(9.65183 0.866995 0)
(8.89303 0.505891 0)
(8.06882 0.26188 0)
(7.52429 0.137169 0)
(6.98649 0.082178 0)
(6.74087 0.052825 0)
(6.37536 0.040719 0)
(6.28386 0.0283148 0)
(5.99931 0.0246955 0)
(5.99862 0.0170249 0)
(5.75438 0.0182704 0)
(5.80408 0.0133844 0)
(5.57206 0.016987 0)
(5.64751 0.0132956 0)
(5.41223 0.0162969 0)
(5.50828 0.0163943 0)
(5.24772 0.00685889 0)
(5.41696 0.030487 0)
(5.02662 -0.0423498 0)
(10.0823 0.629937 0)
(10.6321 0.862411 0)
(10.9084 0.599598 0)
(10.6494 0.373529 0)
(10.5092 0.254215 0)
(10.0335 0.196523 0)
(9.90383 0.150899 0)
(9.4359 0.122743 0)
(9.39852 0.0912178 0)
(8.9716 0.0765195 0)
(9.02862 0.0556787 0)
(8.63473 0.0528059 0)
(8.76182 0.0398549 0)
(8.3778 0.0432219 0)
(8.55219 0.0352411 0)
(8.15785 0.0384428 0)
(8.37178 0.0384179 0)
(7.94445 0.0272889 0)
(8.22428 0.0411642 0)
(7.74528 -0.0511688 0)
(10.0576 0.456362 0)
(10.5043 0.704418 0)
(11.2434 0.543723 0)
(11.2943 0.352752 0)
(11.6427 0.259777 0)
(11.3687 0.228066 0)
(11.5889 0.197117 0)
(11.2001 0.176239 0)
(11.4088 0.143526 0)
(10.9718 0.126321 0)
(11.2094 0.100013 0)
(10.7485 0.093539 0)
(11.0247 0.0758495 0)
(10.541 0.0767217 0)
(10.8545 0.0651521 0)
(10.3422 0.0685396 0)
(10.6918 0.0625858 0)
(10.1421 0.0615297 0)
(10.5293 0.0477577 0)
(9.95511 0.0168214 0)
(10.1634 0.34579 0)
(10.2858 0.567244 0)
(11.1703 0.457786 0)
(11.1823 0.295908 0)
(11.784 0.205669 0)
(11.5478 0.194907 0)
(12.0148 0.17415 0)
(11.6914 0.171714 0)
(12.1253 0.139911 0)
(11.7574 0.135361 0)
(12.1826 0.103537 0)
(11.7815 0.109716 0)
(12.2044 0.0819502 0)
(11.7716 0.0991033 0)
(12.1932 0.0710351 0)
(11.7292 0.0981325 0)
(12.149 0.0648357 0)
(11.6536 0.102626 0)
(12.065 0.0429453 0)
(11.5447 0.079731 0)
(10.1916 0.249184 0)
(10.2005 0.45672 0)
(11.0182 0.371904 0)
(11.0753 0.250177 0)
(11.6421 0.156146 0)
(11.5062 0.154495 0)
(11.9139 0.136833 0)
(11.7261 0.145103 0)
(12.0912 0.113478 0)
(11.8996 0.116664 0)
(12.2444 0.0838701 0)
(12.0515 0.0957572 0)
(12.3768 0.0674712 0)
(12.1794 0.08917 0)
(12.4828 0.0618391 0)
(12.2792 0.0916751 0)
(12.5569 0.0615398 0)
(12.3435 0.100042 0)
(12.5824 0.0523066 0)
(12.3387 0.0540215 0)
(10.0809 0.169196 0)
(10.251 0.358717 0)
(10.8014 0.281014 0)
(11.0772 0.2115 0)
(11.4302 0.1093 0)
(11.5251 0.123292 0)
(11.7108 0.0949489 0)
(11.7435 0.124673 0)
(11.8884 0.0767097 0)
(11.9227 0.103398 0)
(12.0532 0.051051 0)
(12.0908 0.087911 0)
(12.207 0.0354806 0)
(12.2435 0.085676 0)
(12.3442 0.029203 0)
(12.3771 0.0927267 0)
(12.4608 0.026954 0)
(12.4838 0.107533 0)
(12.5325 0.0234909 0)
(12.5 0.104225 0)
(9.97817 0.103601 0)
(10.2978 0.263638 0)
(10.6409 0.190724 0)
(11.0742 0.165448 0)
(11.2769 0.0674785 0)
(11.5305 0.0939301 0)
(11.5695 0.0569373 0)
(11.7411 0.100714 0)
(11.7442 0.0443031 0)
(11.9133 0.0852521 0)
(11.9102 0.0249605 0)
(12.078 0.0741502 0)
(12.0672 0.0128405 0)
(12.2289 0.0729352 0)
(12.2092 0.00792153 0)
(12.3622 0.0789525 0)
(12.3332 0.00639712 0)
(12.4716 0.0917904 0)
(12.4182 0.00455468 0)
(12.4652 0.0904266 0)
(9.9133 0.0562682 0)
(10.3262 0.160685 0)
(10.5371 0.111514 0)
(11.0689 0.103557 0)
(11.1768 0.0366016 0)
(11.5311 0.0582944 0)
(11.4778 0.0304762 0)
(11.7373 0.0643561 0)
(11.6496 0.0235793 0)
(11.9053 0.0541352 0)
(11.8161 0.0115058 0)
(12.0691 0.0467858 0)
(11.9746 0.00441304 0)
(12.2204 0.0449128 0)
(12.1178 0.00162284 0)
(12.3548 0.0468503 0)
(12.2436 0.00113364 0)
(12.4653 0.0505223 0)
(12.3239 -0.00600375 0)
(12.4373 0.0114549 0)
(9.9026 0.00874047 0)
(10.3199 0.0664087 0)
(10.5048 0.026046 0)
(11.0471 0.0474965 0)
(11.148 0.00025515 0)
(11.5132 0.0326084 0)
(11.4558 -0.00235111 0)
(11.7178 0.0361947 0)
(11.6281 -0.00517629 0)
(11.8848 0.0327745 0)
(11.7961 -0.0102874 0)
(12.0495 0.0303703 0)
(11.9564 -0.0138388 0)
(12.2023 0.0294259 0)
(12.1014 -0.0167372 0)
(12.339 0.0288021 0)
(12.2283 -0.0199023 0)
(12.4516 0.0258534 0)
(12.3056 -0.0305205 0)
(12.4213 -0.00319164 0)
(9.92188 -0.0298552 0)
(10.3012 -0.035563 0)
(10.5244 -0.0538126 0)
(11.0323 -0.0186517 0)
(11.1697 -0.0295309 0)
(11.501 -0.0031368 0)
(11.4796 -0.0284747 0)
(11.7085 -0.00362838 0)
(11.6532 -0.0273387 0)
(11.8785 9.42792e-05 0)
(11.8226 -0.0247709 0)
(12.0461 0.00250696 0)
(11.9844 -0.0251659 0)
(12.2021 0.00184826 0)
(12.1308 -0.0285115 0)
(12.3424 -0.00169889 0)
(12.2594 -0.0346726 0)
(12.4588 -0.00885913 0)
(12.3372 -0.0457423 0)
(12.4289 -0.0275431 0)
(9.95244 -0.0748498 0)
(10.2859 -0.134584 0)
(10.5774 -0.136458 0)
(11.0338 -0.0797497 0)
(11.2229 -0.0617844 0)
(11.4995 -0.034074 0)
(11.5296 -0.0569937 0)
(11.7098 -0.0377226 0)
(11.7058 -0.0515379 0)
(11.8827 -0.0271309 0)
(11.8764 -0.0416183 0)
(12.0518 -0.0198707 0)
(12.039 -0.0386792 0)
(12.2092 -0.020041 0)
(12.1866 -0.0423296 0)
(12.3509 -0.0264552 0)
(12.3169 -0.0513843 0)
(12.4685 -0.0383028 0)
(12.3968 -0.0628401 0)
(12.4388 -0.0474654 0)
(9.97787 -0.122515 0)
(10.289 -0.238916 0)
(10.6465 -0.215903 0)
(11.0639 -0.142226 0)
(11.2896 -0.0927103 0)
(11.5196 -0.0691016 0)
(11.5883 -0.0843007 0)
(11.7312 -0.0733225 0)
(11.7676 -0.0742336 0)
(11.9059 -0.056428 0)
(11.9387 -0.0581397 0)
(12.0745 -0.0443976 0)
(12.101 -0.0518962 0)
(12.2309 -0.0433866 0)
(12.2486 -0.0561043 0)
(12.3713 -0.0520398 0)
(12.3793 -0.0691832 0)
(12.4876 -0.0689072 0)
(12.4617 -0.0853055 0)
(12.4598 -0.0673653 0)
(10.0133 -0.18213 0)
(10.2995 -0.343258 0)
(10.7476 -0.298094 0)
(11.1147 -0.197586 0)
(11.3855 -0.126676 0)
(11.5576 -0.107627 0)
(11.6724 -0.113169 0)
(11.7732 -0.108739 0)
(11.8545 -0.0969266 0)
(11.9513 -0.0864424 0)
(12.0243 -0.0747355 0)
(12.1198 -0.0705091 0)
(12.1836 -0.0647538 0)
(12.2744 -0.0684763 0)
(12.3269 -0.068162 0)
(12.4113 -0.0786566 0)
(12.4509 -0.0841645 0)
(12.522 -0.10136 0)
(12.5268 -0.10717 0)
(12.4948 -0.0988398 0)
(10.0556 -0.257441 0)
(10.3168 -0.447843 0)
(10.8915 -0.381879 0)
(11.1804 -0.243508 0)
(11.5219 -0.165576 0)
(11.6058 -0.147064 0)
(11.7968 -0.145219 0)
(11.8221 -0.140167 0)
(11.9752 -0.121937 0)
(11.9938 -0.112986 0)
(12.1294 -0.0938175 0)
(12.1451 -0.094243 0)
(12.2624 -0.0797918 0)
(12.2728 -0.0912934 0)
(12.3681 -0.0800761 0)
(12.3716 -0.101911 0)
(12.4396 -0.0950211 0)
(12.4302 -0.129673 0)
(12.4473 -0.123735 0)
(12.3491 -0.138835 0)
(10.0513 -0.351394 0)
(10.3925 -0.560303 0)
(11.0463 -0.46437 0)
(11.2966 -0.290269 0)
(11.6553 -0.212746 0)
(11.6641 -0.188401 0)
(11.8792 -0.180955 0)
(11.8107 -0.166896 0)
(11.9809 -0.147463 0)
(11.8803 -0.131451 0)
(12.0279 -0.112462 0)
(11.908 -0.10758 0)
(12.0361 -0.0930239 0)
(11.9007 -0.100563 0)
(12.0051 -0.0873808 0)
(11.857 -0.107877 0)
(11.9278 -0.0963191 0)
(11.7658 -0.136397 0)
(11.7703 -0.124583 0)
(11.5453 -0.162167 0)
(10.0044 -0.459698 0)
(10.5595 -0.700691 0)
(11.1682 -0.546441 0)
(11.3668 -0.350469 0)
(11.5582 -0.263659 0)
(11.4481 -0.225321 0)
(11.4945 -0.200943 0)
(11.2848 -0.174349 0)
(11.3035 -0.147788 0)
(11.0599 -0.125249 0)
(11.0915 -0.104545 0)
(10.838 -0.09483 0)
(10.8898 -0.0805455 0)
(10.6289 -0.0834288 0)
(10.6928 -0.0707423 0)
(10.4216 -0.0877091 0)
(10.4799 -0.0740941 0)
(10.1911 -0.115603 0)
(10.1979 -0.095226 0)
(9.86283 -0.160714 0)
(10.06 -0.633031 0)
(10.6549 -0.859388 0)
(10.8664 -0.600942 0)
(10.6899 -0.372139 0)
(10.4583 -0.256828 0)
(10.0815 -0.194916 0)
(9.8433 -0.153571 0)
(9.48753 -0.12106 0)
(9.32993 -0.0944085 0)
(9.02309 -0.0750932 0)
(8.95235 -0.0593648 0)
(8.68195 -0.0525483 0)
(8.67482 -0.0442667 0)
(8.41555 -0.0461004 0)
(8.44506 -0.0410063 0)
(8.17681 -0.0503299 0)
(8.2166 -0.0481237 0)
(7.91976 -0.069629 0)
(7.92294 -0.0707865 0)
(7.57643 -0.0896359 0)
(10.0813 -0.838124 0)
(9.65624 -0.865227 0)
(8.87405 -0.50627 0)
(8.0884 -0.261193 0)
(7.49856 -0.13863 0)
(7.01108 -0.0815398 0)
(6.70673 -0.0540109 0)
(6.40249 -0.039948 0)
(6.24436 -0.029781 0)
(6.02486 -0.0240684 0)
(5.95522 -0.0187273 0)
(5.77365 -0.0182646 0)
(5.75501 -0.0154233 0)
(5.57941 -0.0185544 0)
(5.58528 -0.0163196 0)
(5.39659 -0.0228836 0)
(5.40656 -0.0219196 0)
(5.18426 -0.0326715 0)
(5.17362 -0.0383214 0)
(4.8787 -0.0196608 0)
(8.09142 -0.387727 0)
(5.45386 -0.242101 0)
(3.91958 -0.0432083 0)
(3.16672 0.0152966 0)
(2.80945 0.0180405 0)
(2.60657 0.0111391 0)
(2.49449 0.00560985 0)
(2.3894 0.00228567 0)
(2.33311 0.00146971 0)
(2.25906 0.000441018 0)
(2.23362 0.000704209 0)
(2.17265 -0.000237479 0)
(2.16207 0.000193454 0)
(2.09913 -0.00107725 0)
(2.09259 -0.000314817 0)
(2.01981 -0.00225739 0)
(2.00795 -0.00110975 0)
(1.9167 -0.00382961 0)
(1.87901 -0.00426466 0)
(1.72742 0.0112496 0)
(2.27701 -0.1145 0)
(2.32476 -0.0211451 0)
(2.55442 0.000883193 0)
(2.61669 -0.000582525 0)
(2.84407 -0.0176939 0)
(2.8786 -0.0236682 0)
(3.08555 -0.0345072 0)
(3.08774 -0.0328781 0)
(3.26888 -0.0417475 0)
(3.24365 -0.0423265 0)
(3.41117 -0.0518556 0)
(3.36776 -0.0515134 0)
(3.53382 -0.0610786 0)
(3.48356 -0.0599547 0)
(3.65394 -0.0689512 0)
(3.60158 -0.066615 0)
(3.78028 -0.0741646 0)
(3.72813 -0.0699236 0)
(3.91981 -0.0762788 0)
(3.86991 -0.0702647 0)
(4.07282 -0.0791102 0)
(4.02265 -0.0772172 0)
(4.23291 -0.0908985 0)
(4.17746 -0.0930207 0)
(4.38933 -0.111471 0)
(4.32422 -0.117058 0)
(4.5339 -0.137743 0)
(4.45789 -0.142175 0)
(4.66554 -0.16021 0)
(4.58398 -0.160646 0)
(4.79368 -0.176487 0)
(4.71464 -0.175004 0)
(4.93154 -0.190162 0)
(4.85633 -0.187263 0)
(5.0787 -0.201951 0)
(5.00397 -0.198228 0)
(5.23282 -0.213471 0)
(5.15558 -0.209712 0)
(5.39295 -0.22658 0)
(5.31051 -0.224498 0)
(5.55818 -0.244081 0)
(5.46776 -0.246331 0)
(5.72589 -0.272116 0)
(5.62501 -0.279411 0)
(5.88782 -0.309946 0)
(5.77448 -0.319347 0)
(6.03887 -0.352754 0)
(5.91691 -0.360163 0)
(6.18129 -0.393313 0)
(6.05471 -0.396535 0)
(6.32114 -0.427268 0)
(6.1908 -0.425477 0)
(6.46568 -0.453384 0)
(6.33006 -0.448602 0)
(6.6197 -0.47577 0)
(6.47464 -0.46931 0)
(6.78278 -0.4973 0)
(6.62597 -0.490917 0)
(6.95176 -0.519902 0)
(6.78106 -0.513705 0)
(7.12222 -0.545845 0)
(6.94302 -0.541837 0)
(7.29629 -0.579769 0)
(7.11628 -0.580077 0)
(7.47171 -0.625765 0)
(7.29277 -0.630279 0)
(7.63873 -0.681034 0)
(7.45452 -0.687497 0)
(7.78821 -0.738307 0)
(7.59325 -0.743125 0)
(7.92105 -0.794081 0)
(7.7141 -0.793956 0)
(8.04089 -0.841475 0)
(7.82189 -0.835674 0)
(8.1602 -0.880815 0)
(7.93172 -0.869671 0)
(8.28685 -0.912802 0)
(8.05578 -0.897405 0)
(8.42598 -0.942642 0)
(8.19256 -0.923547 0)
(8.57502 -0.970145 0)
(8.33516 -0.947747 0)
(8.7259 -0.992276 0)
(8.47392 -0.968489 0)
(8.86835 -1.01293 0)
(8.60939 -0.988155 0)
(8.99218 -1.03649 0)
(8.7391 -1.01138 0)
(9.09821 -1.06181 0)
(8.85217 -1.03402 0)
(9.18645 -1.08269 0)
(8.94842 -1.0537 0)
(9.26113 -1.10137 0)
(9.02511 -1.06995 0)
(9.32114 -1.11514 0)
(9.0857 -1.07786 0)
(9.37007 -1.12143 0)
(9.13277 -1.08036 0)
(9.41074 -1.1219 0)
(9.17858 -1.07759 0)
(9.45508 -1.12142 0)
(9.22612 -1.07375 0)
(9.50355 -1.11819 0)
(9.26846 -1.06146 0)
(9.5454 -1.10343 0)
(9.3036 -1.03932 0)
(9.57582 -1.08621 0)
(9.32215 -1.01744 0)
(9.58266 -1.06642 0)
(9.32152 -0.98855 0)
(9.57129 -1.03616 0)
(9.30279 -0.953176 0)
(9.54014 -0.999003 0)
(9.268 -0.912766 0)
(9.49802 -0.960088 0)
(9.23248 -0.868011 0)
(9.45771 -0.913184 0)
(9.20813 -0.817947 0)
(9.42307 -0.863776 0)
(9.18558 -0.768365 0)
(9.39252 -0.815348 0)
(9.16985 -0.720138 0)
(9.37333 -0.772361 0)
(9.15915 -0.674996 0)
(9.35721 -0.730919 0)
(9.13955 -0.634593 0)
(9.34308 -0.689122 0)
(9.1194 -0.59034 0)
(9.33115 -0.638869 0)
(9.10906 -0.534951 0)
(9.31921 -0.577424 0)
(9.10896 -0.472432 0)
(9.3053 -0.514268 0)
(9.10652 -0.412946 0)
(9.28758 -0.457929 0)
(9.09731 -0.359199 0)
(9.26484 -0.400067 0)
(9.08592 -0.295243 0)
(9.24296 -0.335001 0)
(9.08032 -0.233321 0)
(9.22303 -0.275693 0)
(9.07349 -0.178756 0)
(9.19747 -0.215412 0)
(9.06727 -0.122447 0)
(9.17272 -0.161276 0)
(9.06198 -0.0717953 0)
(9.13738 -0.0978257 0)
(9.04251 -0.0134842 0)
(9.09599 -0.0354702 0)
(9.01522 0.047076 0)
(9.04203 0.0254637 0)
(8.97321 0.114035 0)
(8.97957 0.0995384 0)
(8.92372 0.18922 0)
(8.92376 0.169452 0)
(8.87901 0.264906 0)
(8.87306 0.25125 0)
(8.82089 0.346936 0)
(8.82533 0.327789 0)
(8.76916 0.430675 0)
(8.7839 0.392744 0)
(8.70389 0.508167 0)
(8.74791 0.459815 0)
(8.62741 0.580522 0)
(8.70731 0.531757 0)
(8.54769 0.661075 0)
(8.6665 0.602346 0)
(8.47291 0.740631 0)
(8.62476 0.678767 0)
(8.38963 0.834227 0)
(8.57353 0.748308 0)
(8.28931 0.926316 0)
(8.52595 0.830992 0)
(8.15415 1.03653 0)
(8.46979 0.91788 0)
(8.01924 1.1791 0)
(8.40467 1.01948 0)
(7.87855 1.32932 0)
(8.35504 1.13091 0)
(7.7429 1.48936 0)
(8.30251 1.26002 0)
(7.61525 1.65971 0)
(8.22977 1.40371 0)
(7.49668 1.83487 0)
(8.11699 1.56429 0)
(7.37621 2.01743 0)
(7.95447 1.75352 0)
(7.23494 2.21698 0)
(7.75892 1.98314 0)
(7.05969 2.44737 0)
(7.53175 2.25982 0)
(6.81773 2.72509 0)
(7.24785 2.61584 0)
(6.50888 3.1284 0)
(6.85119 3.09634 0)
(6.13404 3.80255 0)
(6.35055 3.84088 0)
(5.45151 4.95046 0)
(6.43136 5.47792 0)
(4.11158 8.47248 0)
(5.34222 -0.0755303 0)
(5.26334 -0.0405232 0)
(5.38328 -0.0382706 0)
(5.32165 -0.0495976 0)
(5.49813 -0.0752488 0)
(5.45654 -0.085391 0)
(5.6437 -0.0968748 0)
(5.58195 -0.0921042 0)
(5.75518 -0.0958037 0)
(5.66732 -0.0903485 0)
(5.83497 -0.0977144 0)
(5.73356 -0.0957144 0)
(5.90831 -0.106179 0)
(5.80298 -0.10498 0)
(5.98968 -0.115473 0)
(5.88239 -0.113107 0)
(6.0808 -0.122765 0)
(5.97054 -0.11872 0)
(6.17935 -0.128054 0)
(6.06598 -0.123353 0)
(6.28414 -0.134224 0)
(6.16687 -0.132091 0)
(6.39248 -0.146679 0)
(6.2693 -0.147499 0)
(6.50037 -0.165587 0)
(6.36948 -0.168427 0)
(6.60461 -0.187968 0)
(6.46563 -0.190112 0)
(6.70421 -0.209099 0)
(6.55812 -0.209283 0)
(6.80215 -0.227322 0)
(6.65153 -0.225828 0)
(6.90429 -0.243849 0)
(6.75004 -0.241258 0)
(7.01237 -0.259069 0)
(6.85272 -0.255181 0)
(7.12486 -0.273048 0)
(6.95873 -0.268702 0)
(7.2404 -0.287926 0)
(7.06762 -0.284623 0)
(7.3583 -0.307148 0)
(7.18045 -0.306263 0)
(7.47806 -0.334081 0)
(7.29626 -0.33642 0)
(7.59802 -0.368878 0)
(7.41089 -0.372552 0)
(7.71464 -0.407533 0)
(7.52055 -0.410799 0)
(7.82679 -0.445784 0)
(7.62321 -0.446695 0)
(7.93576 -0.479695 0)
(7.71953 -0.476787 0)
(8.04321 -0.507828 0)
(7.81313 -0.501675 0)
(8.15159 -0.532193 0)
(7.90809 -0.523864 0)
(8.26223 -0.555279 0)
(8.00833 -0.546939 0)
(8.37662 -0.580935 0)
(8.11631 -0.573372 0)
(8.49511 -0.610837 0)
(8.23151 -0.604661 0)
(8.61625 -0.646991 0)
(8.35189 -0.643457 0)
(8.73728 -0.691242 0)
(8.47333 -0.689621 0)
(8.85382 -0.740331 0)
(8.58809 -0.739697 0)
(8.96424 -0.79269 0)
(8.69407 -0.791818 0)
(9.06808 -0.843422 0)
(8.78981 -0.837803 0)
(9.16629 -0.887759 0)
(8.88002 -0.87759 0)
(9.26155 -0.928101 0)
(8.97053 -0.912389 0)
(9.35562 -0.9636 0)
(9.06344 -0.943313 0)
(9.45029 -0.995156 0)
(9.15648 -0.972147 0)
(9.54637 -1.0231 0)
(9.24747 -0.994734 0)
(9.63825 -1.04475 0)
(9.33604 -1.01214 0)
(9.7183 -1.06176 0)
(9.41932 -1.02779 0)
(9.78755 -1.08031 0)
(9.4977 -1.04577 0)
(9.8442 -1.09839 0)
(9.56288 -1.06293 0)
(9.89215 -1.11587 0)
(9.61809 -1.07814 0)
(9.92877 -1.12952 0)
(9.65591 -1.08791 0)
(9.95021 -1.13642 0)
(9.67818 -1.08987 0)
(9.9631 -1.13709 0)
(9.69028 -1.08761 0)
(9.97152 -1.13547 0)
(9.7007 -1.0861 0)
(9.98248 -1.13706 0)
(9.70756 -1.0811 0)
(9.9867 -1.13106 0)
(9.70382 -1.06567 0)
(9.98527 -1.11338 0)
(9.69727 -1.04131 0)
(9.97215 -1.0892 0)
(9.67806 -1.01114 0)
(9.94064 -1.06232 0)
(9.64068 -0.976881 0)
(9.893 -1.02645 0)
(9.58787 -0.931386 0)
(9.83191 -0.983752 0)
(9.5286 -0.887227 0)
(9.76668 -0.943401 0)
(9.47487 -0.844952 0)
(9.70534 -0.901304 0)
(9.42593 -0.798531 0)
(9.65174 -0.854248 0)
(9.37962 -0.752336 0)
(9.60906 -0.809422 0)
(9.34089 -0.707253 0)
(9.57448 -0.767173 0)
(9.30243 -0.659576 0)
(9.53972 -0.723066 0)
(9.26065 -0.615389 0)
(9.50475 -0.682927 0)
(9.22226 -0.573577 0)
(9.46807 -0.634906 0)
(9.19105 -0.521337 0)
(9.43552 -0.578428 0)
(9.16659 -0.46182 0)
(9.40793 -0.513531 0)
(9.14327 -0.401255 0)
(9.38093 -0.453234 0)
(9.11011 -0.343063 0)
(9.34626 -0.394883 0)
(9.08062 -0.285522 0)
(9.31591 -0.334121 0)
(9.06424 -0.226727 0)
(9.29019 -0.274346 0)
(9.0468 -0.169887 0)
(9.26003 -0.216604 0)
(9.02623 -0.11033 0)
(9.2317 -0.159992 0)
(8.99574 -0.0537079 0)
(9.20155 -0.0919996 0)
(8.96472 0.00569759 0)
(9.16657 -0.0286381 0)
(8.94291 0.0701868 0)
(9.11775 0.0415417 0)
(8.90617 0.140131 0)
(9.05988 0.112652 0)
(8.86248 0.214426 0)
(9.00936 0.182 0)
(8.82014 0.291883 0)
(8.95995 0.260872 0)
(8.77246 0.376011 0)
(8.92642 0.328575 0)
(8.72829 0.465224 0)
(8.90536 0.389868 0)
(8.66642 0.546893 0)
(8.8899 0.457755 0)
(8.61057 0.623486 0)
(8.86508 0.522759 0)
(8.56716 0.705189 0)
(8.84346 0.587064 0)
(8.51828 0.796906 0)
(8.80448 0.658167 0)
(8.45763 0.902854 0)
(8.77534 0.723953 0)
(8.37038 1.01128 0)
(8.74388 0.807989 0)
(8.26204 1.14011 0)
(8.69893 0.889737 0)
(8.13493 1.27571 0)
(8.6779 0.983239 0)
(8.00175 1.41926 0)
(8.67453 1.09045 0)
(7.87836 1.5809 0)
(8.65728 1.22627 0)
(7.78353 1.75525 0)
(8.60604 1.38462 0)
(7.69574 1.93266 0)
(8.51807 1.55827 0)
(7.5991 2.11665 0)
(8.41218 1.76243 0)
(7.47046 2.32061 0)
(8.28103 1.99862 0)
(7.32778 2.57848 0)
(8.11399 2.28647 0)
(7.18177 2.92029 0)
(7.88282 2.63707 0)
(7.01115 3.40176 0)
(7.62326 3.12848 0)
(6.72588 4.10743 0)
(7.60939 3.93134 0)
(6.0809 5.37338 0)
(8.51532 4.79657 0)
(6.53084 8.93953 0)
(8.03279 -0.0805172 0)
(7.90831 -0.0544367 0)
(8.03813 -0.0632722 0)
(7.92821 -0.0755876 0)
(8.11042 -0.101476 0)
(8.02112 -0.108276 0)
(8.21443 -0.119081 0)
(8.10236 -0.111024 0)
(8.28086 -0.114559 0)
(8.14141 -0.106024 0)
(8.31654 -0.114455 0)
(8.166 -0.111328 0)
(8.3514 -0.125011 0)
(8.19865 -0.124318 0)
(8.39801 -0.139238 0)
(8.24409 -0.137364 0)
(8.4557 -0.151048 0)
(8.29843 -0.146813 0)
(8.51907 -0.159404 0)
(8.35663 -0.154187 0)
(8.58463 -0.167785 0)
(8.41672 -0.163983 0)
(8.65142 -0.180421 0)
(8.47761 -0.178911 0)
(8.7184 -0.198286 0)
(8.53805 -0.198356 0)
(8.78433 -0.219281 0)
(8.59673 -0.219231 0)
(8.84818 -0.240191 0)
(8.65215 -0.23885 0)
(8.90951 -0.259304 0)
(8.70488 -0.256706 0)
(8.97006 -0.277168 0)
(8.75688 -0.273652 0)
(9.03116 -0.294336 0)
(8.80961 -0.289683 0)
(9.09369 -0.310817 0)
(8.86547 -0.305237 0)
(9.15877 -0.32794 0)
(8.92621 -0.322442 0)
(9.22711 -0.348409 0)
(8.9931 -0.344664 0)
(9.29961 -0.375099 0)
(9.06454 -0.373968 0)
(9.37478 -0.408318 0)
(9.13652 -0.408834 0)
(9.44921 -0.445091 0)
(9.20384 -0.445186 0)
(9.51965 -0.481311 0)
(9.26354 -0.478964 0)
(9.58501 -0.513735 0)
(9.31645 -0.50785 0)
(9.64604 -0.54138 0)
(9.36543 -0.532315 0)
(9.7046 -0.56613 0)
(9.41537 -0.555163 0)
(9.76326 -0.591266 0)
(9.47092 -0.580069 0)
(9.82468 -0.61979 0)
(9.53336 -0.608962 0)
(9.88849 -0.651569 0)
(9.59946 -0.641516 0)
(9.95254 -0.686992 0)
(9.66482 -0.679044 0)
(10.0154 -0.727824 0)
(9.72645 -0.721892 0)
(10.0765 -0.77433 0)
(9.78575 -0.770018 0)
(10.1383 -0.825829 0)
(9.84321 -0.820492 0)
(10.1961 -0.875816 0)
(9.896 -0.865909 0)
(10.2507 -0.919219 0)
(9.94494 -0.905816 0)
(10.3011 -0.959203 0)
(9.98991 -0.941466 0)
(10.3456 -0.994644 0)
(10.0314 -0.971941 0)
(10.3857 -1.02549 0)
(10.0725 -0.999285 0)
(10.4222 -1.05131 0)
(10.1106 -1.01932 0)
(10.4547 -1.07076 0)
(10.1478 -1.03276 0)
(10.4802 -1.08391 0)
(10.1823 -1.04502 0)
(10.5007 -1.09729 0)
(10.2086 -1.05736 0)
(10.5125 -1.11157 0)
(10.2278 -1.07309 0)
(10.5197 -1.12682 0)
(10.2381 -1.08357 0)
(10.5132 -1.13495 0)
(10.2325 -1.08621 0)
(10.4914 -1.13521 0)
(10.2128 -1.08325 0)
(10.4545 -1.13292 0)
(10.1821 -1.08007 0)
(10.4179 -1.13368 0)
(10.1517 -1.07932 0)
(10.3788 -1.13378 0)
(10.1126 -1.07048 0)
(10.3308 -1.12598 0)
(10.0684 -1.05476 0)
(10.2823 -1.10698 0)
(10.0223 -1.02775 0)
(10.2257 -1.07834 0)
(9.96833 -0.990879 0)
(10.1582 -1.04134 0)
(9.89694 -0.946305 0)
(10.0706 -0.998238 0)
(9.81316 -0.897006 0)
(9.97804 -0.953896 0)
(9.73579 -0.854046 0)
(9.89392 -0.915787 0)
(9.66403 -0.811856 0)
(9.80798 -0.874413 0)
(9.58924 -0.766539 0)
(9.73015 -0.833738 0)
(9.52358 -0.723399 0)
(9.66992 -0.793995 0)
(9.46813 -0.6787 0)
(9.61469 -0.750359 0)
(9.41193 -0.631499 0)
(9.55953 -0.705817 0)
(9.35973 -0.587031 0)
(9.50308 -0.667097 0)
(9.30533 -0.545719 0)
(9.44187 -0.62222 0)
(9.25198 -0.494554 0)
(9.38463 -0.567091 0)
(9.19809 -0.435217 0)
(9.34363 -0.506674 0)
(9.14979 -0.375114 0)
(9.30572 -0.442684 0)
(9.09895 -0.313155 0)
(9.26138 -0.38566 0)
(9.05827 -0.26232 0)
(9.22087 -0.330159 0)
(9.02517 -0.204978 0)
(9.18474 -0.273845 0)
(8.99733 -0.14372 0)
(9.13949 -0.212613 0)
(8.96294 -0.083588 0)
(9.1044 -0.154772 0)
(8.92616 -0.0237985 0)
(9.07464 -0.0873222 0)
(8.89596 0.0404352 0)
(9.045 -0.0267636 0)
(8.86791 0.105856 0)
(9.00654 0.042294 0)
(8.84898 0.183277 0)
(8.96429 0.106575 0)
(8.82057 0.256112 0)
(8.92213 0.175936 0)
(8.77763 0.340398 0)
(8.88363 0.246888 0)
(8.73406 0.423579 0)
(8.86009 0.310668 0)
(8.68761 0.512294 0)
(8.84568 0.381527 0)
(8.64071 0.592891 0)
(8.839 0.443157 0)
(8.61568 0.669625 0)
(8.82705 0.500871 0)
(8.58792 0.749193 0)
(8.8123 0.561164 0)
(8.55689 0.853724 0)
(8.79938 0.634468 0)
(8.50156 0.961019 0)
(8.81492 0.702913 0)
(8.41153 1.08283 0)
(8.82625 0.788507 0)
(8.29778 1.22575 0)
(8.85122 0.879777 0)
(8.1669 1.36561 0)
(8.8838 0.965107 0)
(8.05258 1.50774 0)
(8.89623 1.06343 0)
(7.95893 1.66253 0)
(8.8816 1.1896 0)
(7.88791 1.83629 0)
(8.84919 1.34972 0)
(7.8196 2.02708 0)
(8.79999 1.52835 0)
(7.73665 2.22987 0)
(8.7349 1.72906 0)
(7.66014 2.46931 0)
(8.62768 1.95107 0)
(7.59551 2.74921 0)
(8.4998 2.22315 0)
(7.5309 3.11131 0)
(8.41121 2.58305 0)
(7.40081 3.58986 0)
(8.50465 3.07767 0)
(7.10118 4.3422 0)
(9.0273 3.60765 0)
(6.80728 5.89353 0)
(9.76813 3.70867 0)
(8.17047 8.21964 0)
(10.2932 -0.089628 0)
(10.1436 -0.11624 0)
(10.2791 -0.147221 0)
(10.1412 -0.148035 0)
(10.3281 -0.157658 0)
(10.2107 -0.143447 0)
(10.4048 -0.143964 0)
(10.263 -0.126138 0)
(10.4418 -0.129276 0)
(10.2753 -0.116249 0)
(10.4511 -0.126863 0)
(10.2753 -0.120682 0)
(10.4602 -0.137917 0)
(10.2832 -0.135103 0)
(10.4805 -0.154317 0)
(10.3028 -0.150501 0)
(10.5105 -0.168481 0)
(10.3296 -0.162 0)
(10.5451 -0.178568 0)
(10.3595 -0.170531 0)
(10.5814 -0.187532 0)
(10.3905 -0.180087 0)
(10.6182 -0.199462 0)
(10.4215 -0.193851 0)
(10.6543 -0.216029 0)
(10.4513 -0.211865 0)
(10.6883 -0.235792 0)
(10.4786 -0.231583 0)
(10.7193 -0.255864 0)
(10.5026 -0.250467 0)
(10.7469 -0.274402 0)
(10.5233 -0.267549 0)
(10.7715 -0.291416 0)
(10.5418 -0.28365 0)
(10.7946 -0.30806 0)
(10.5595 -0.299652 0)
(10.8176 -0.325082 0)
(10.5787 -0.31664 0)
(10.8426 -0.344009 0)
(10.6012 -0.336307 0)
(10.8711 -0.366526 0)
(10.6274 -0.360829 0)
(10.9029 -0.394759 0)
(10.6558 -0.391256 0)
(10.9359 -0.428407 0)
(10.6833 -0.425792 0)
(10.9667 -0.464524 0)
(10.7068 -0.460597 0)
(10.9932 -0.499071 0)
(10.7256 -0.491918 0)
(11.0148 -0.529175 0)
(10.7407 -0.518379 0)
(11.0324 -0.55456 0)
(10.7541 -0.541067 0)
(11.0481 -0.577964 0)
(10.7695 -0.563681 0)
(11.0646 -0.603205 0)
(10.7881 -0.589173 0)
(11.0824 -0.631637 0)
(10.8072 -0.617742 0)
(11.0985 -0.662906 0)
(10.8239 -0.649728 0)
(11.1116 -0.697821 0)
(10.8372 -0.686099 0)
(11.1213 -0.737284 0)
(10.847 -0.728494 0)
(11.1305 -0.784799 0)
(10.8562 -0.779201 0)
(11.1407 -0.837043 0)
(10.863 -0.829529 0)
(11.148 -0.886776 0)
(10.8639 -0.874893 0)
(11.1502 -0.929529 0)
(10.8621 -0.914209 0)
(11.147 -0.967192 0)
(10.8538 -0.947985 0)
(11.1366 -0.999751 0)
(10.8431 -0.977312 0)
(11.1236 -1.02973 0)
(10.8351 -1.00298 0)
(11.1091 -1.05337 0)
(10.8276 -1.02286 0)
(11.0928 -1.0709 0)
(10.8183 -1.0346 0)
(11.0753 -1.0832 0)
(10.8078 -1.04472 0)
(11.0539 -1.09293 0)
(10.7903 -1.05594 0)
(11.0307 -1.10743 0)
(10.772 -1.06922 0)
(10.9996 -1.11771 0)
(10.7392 -1.07149 0)
(10.9506 -1.11761 0)
(10.6893 -1.06608 0)
(10.8859 -1.11198 0)
(10.6252 -1.05724 0)
(10.806 -1.10846 0)
(10.555 -1.05625 0)
(10.7278 -1.11159 0)
(10.4803 -1.0525 0)
(10.6415 -1.106 0)
(10.4004 -1.04192 0)
(10.5576 -1.10103 0)
(10.3259 -1.02869 0)
(10.4769 -1.08224 0)
(10.2472 -0.999554 0)
(10.3863 -1.04989 0)
(10.1569 -0.955971 0)
(10.2819 -1.00507 0)
(10.0528 -0.904702 0)
(10.1607 -0.954848 0)
(9.94047 -0.855372 0)
(10.0442 -0.916578 0)
(9.84355 -0.818561 0)
(9.93748 -0.87853 0)
(9.74459 -0.773099 0)
(9.82927 -0.836359 0)
(9.64503 -0.729139 0)
(9.72571 -0.802864 0)
(9.55898 -0.689329 0)
(9.6395 -0.768611 0)
(9.4819 -0.646909 0)
(9.5654 -0.724727 0)
(9.4089 -0.603755 0)
(9.4973 -0.68236 0)
(9.33999 -0.56323 0)
(9.42468 -0.641893 0)
(9.26826 -0.517901 0)
(9.34861 -0.593572 0)
(9.19331 -0.467154 0)
(9.2744 -0.540491 0)
(9.12152 -0.412372 0)
(9.21338 -0.486296 0)
(9.05886 -0.35182 0)
(9.15936 -0.424397 0)
(8.99698 -0.29191 0)
(9.1071 -0.369607 0)
(8.94207 -0.24271 0)
(9.05266 -0.318638 0)
(8.8929 -0.184608 0)
(9.0078 -0.265094 0)
(8.84107 -0.11819 0)
(8.96163 -0.198644 0)
(8.79146 -0.0608083 0)
(8.92911 -0.147383 0)
(8.75544 0.00280205 0)
(8.89689 -0.0859624 0)
(8.72495 0.0645929 0)
(8.8791 -0.0273143 0)
(8.69406 0.130101 0)
(8.85965 0.0322239 0)
(8.67256 0.209308 0)
(8.85175 0.103303 0)
(8.63335 0.287707 0)
(8.83895 0.176393 0)
(8.5907 0.379173 0)
(8.81326 0.243668 0)
(8.55546 0.466252 0)
(8.79613 0.3103 0)
(8.50838 0.538849 0)
(8.78838 0.367201 0)
(8.48638 0.61769 0)
(8.79434 0.415485 0)
(8.45565 0.694891 0)
(8.83031 0.476318 0)
(8.40956 0.784206 0)
(8.85447 0.533447 0)
(8.35406 0.898239 0)
(8.89583 0.603251 0)
(8.29606 1.01166 0)
(8.94565 0.670256 0)
(8.22066 1.15113 0)
(8.99165 0.747893 0)
(8.12877 1.29201 0)
(9.0425 0.824094 0)
(8.06005 1.42628 0)
(9.06602 0.912752 0)
(8.01668 1.57093 0)
(9.05414 1.02118 0)
(7.98019 1.73051 0)
(9.03162 1.1506 0)
(7.94868 1.91548 0)
(9.00927 1.30017 0)
(7.92989 2.11769 0)
(8.99361 1.47186 0)
(7.91539 2.33622 0)
(8.962 1.65589 0)
(7.90646 2.58369 0)
(8.94654 1.88347 0)
(7.86647 2.87791 0)
(8.97676 2.15278 0)
(7.78357 3.2548 0)
(9.12997 2.47403 0)
(7.62568 3.78865 0)
(9.5019 2.78318 0)
(7.46483 4.69672 0)
(10.1014 2.92978 0)
(7.77521 6.13337 0)
(10.3681 3.12686 0)
(9.17084 7.21461 0)
(11.798 -0.0758195 0)
(11.6775 -0.140338 0)
(11.8285 -0.193276 0)
(11.7273 -0.188471 0)
(11.8925 -0.190348 0)
(11.7865 -0.159105 0)
(11.944 -0.154393 0)
(11.812 -0.128244 0)
(11.9549 -0.13464 0)
(11.8034 -0.118549 0)
(11.943 -0.134952 0)
(11.785 -0.12601 0)
(11.9319 -0.1484 0)
(11.7749 -0.141954 0)
(11.9324 -0.165708 0)
(11.7767 -0.158022 0)
(11.9429 -0.180569 0)
(11.7857 -0.170305 0)
(11.9581 -0.191481 0)
(11.7972 -0.179558 0)
(11.9741 -0.200977 0)
(11.8083 -0.189226 0)
(11.9888 -0.212626 0)
(11.8173 -0.202229 0)
(12.0007 -0.228123 0)
(11.8233 -0.218853 0)
(12.0092 -0.246495 0)
(11.826 -0.23709 0)
(12.0146 -0.265336 0)
(11.8263 -0.254663 0)
(12.0176 -0.282718 0)
(11.8252 -0.270419 0)
(12.0189 -0.298557 0)
(11.8238 -0.285155 0)
(12.0195 -0.314002 0)
(11.8229 -0.300237 0)
(12.0203 -0.330567 0)
(11.823 -0.317365 0)
(12.0222 -0.349884 0)
(11.8242 -0.338089 0)
(12.0251 -0.373464 0)
(11.8254 -0.36368 0)
(12.028 -0.402165 0)
(11.8252 -0.394086 0)
(12.0293 -0.435173 0)
(11.8218 -0.427479 0)
(12.0269 -0.469744 0)
(11.8143 -0.46067 0)
(12.0196 -0.502568 0)
(11.8026 -0.490526 0)
(12.0068 -0.531235 0)
(11.7879 -0.515866 0)
(11.9904 -0.55607 0)
(11.7733 -0.538788 0)
(11.9737 -0.580104 0)
(11.7608 -0.562318 0)
(11.9575 -0.605198 0)
(11.748 -0.587368 0)
(11.9401 -0.631792 0)
(11.7318 -0.61483 0)
(11.9206 -0.661543 0)
(11.7109 -0.645704 0)
(11.8989 -0.694648 0)
(11.6853 -0.680058 0)
(11.8754 -0.7328 0)
(11.6581 -0.721845 0)
(11.8521 -0.779759 0)
(11.6287 -0.770749 0)
(11.823 -0.830057 0)
(11.5932 -0.818721 0)
(11.787 -0.876896 0)
(11.5512 -0.861758 0)
(11.7448 -0.918489 0)
(11.5067 -0.899197 0)
(11.6956 -0.953533 0)
(11.4566 -0.931002 0)
(11.6404 -0.985193 0)
(11.4067 -0.961323 0)
(11.5874 -1.01597 0)
(11.3603 -0.988118 0)
(11.5366 -1.04048 0)
(11.3149 -1.00833 0)
(11.4848 -1.05558 0)
(11.2683 -1.02019 0)
(11.4357 -1.0677 0)
(11.2179 -1.02906 0)
(11.3846 -1.07735 0)
(11.1675 -1.04136 0)
(11.3328 -1.09179 0)
(11.1126 -1.04771 0)
(11.2665 -1.09296 0)
(11.0383 -1.04141 0)
(11.1839 -1.08706 0)
(10.9493 -1.03031 0)
(11.0871 -1.07807 0)
(10.8527 -1.01862 0)
(10.9827 -1.07506 0)
(10.7554 -1.01515 0)
(10.8699 -1.07347 0)
(10.6476 -1.00722 0)
(10.7555 -1.06829 0)
(10.5496 -1.00206 0)
(10.6517 -1.06635 0)
(10.4508 -0.988416 0)
(10.5407 -1.04263 0)
(10.3394 -0.954287 0)
(10.4142 -1.00456 0)
(10.215 -0.906404 0)
(10.2741 -0.956016 0)
(10.0821 -0.848935 0)
(10.1257 -0.901781 0)
(9.95593 -0.805226 0)
(9.99155 -0.871287 0)
(9.83464 -0.768522 0)
(9.85681 -0.830757 0)
(9.71141 -0.719775 0)
(9.72727 -0.788096 0)
(9.58988 -0.67664 0)
(9.60785 -0.758692 0)
(9.48063 -0.642548 0)
(9.50119 -0.730747 0)
(9.37799 -0.606662 0)
(9.41166 -0.692613 0)
(9.28649 -0.567158 0)
(9.32789 -0.652919 0)
(9.19818 -0.525179 0)
(9.23874 -0.61087 0)
(9.11023 -0.476514 0)
(9.14939 -0.561943 0)
(9.02108 -0.425315 0)
(9.06462 -0.512322 0)
(8.93813 -0.375861 0)
(8.98495 -0.461001 0)
(8.86559 -0.316831 0)
(8.91436 -0.40359 0)
(8.80156 -0.258269 0)
(8.85309 -0.348701 0)
(8.73259 -0.206086 0)
(8.7891 -0.30128 0)
(8.66405 -0.14875 0)
(8.73641 -0.245629 0)
(8.58968 -0.0852046 0)
(8.6945 -0.185299 0)
(8.54072 -0.0340916 0)
(8.65305 -0.142113 0)
(8.50491 0.0355334 0)
(8.62118 -0.0897486 0)
(8.47277 0.0912038 0)