/*--------------------------------*- C++ -*----------------------------------*\
| =========                 |                                                 |
| \\      /  F ield         | OpenFOAM: The Open Source CFD Toolbox           |
|  \\    /   O peration     | Version:  2.4.0                                 |
|   \\  /    A nd           | Web:      www.OpenFOAM.org                      |
|    \\/     M anipulation  |                                                 |
\*---------------------------------------------------------------------------*/
FoamFile
{
    version     2.0;
    format      ascii;
    class       volSymmTensorField;
    location    "1.82";
    object      UPrime2Mean;
}
// * * * * * * * * * * * * * * * * * * * * * * * * * * * * * * * * * * * * * //

dimensions      [0 2 -2 0 0 0 0];

internalField   nonuniform List<symmTensor> 
8800
(
(0.000952001 5.028e-05 0 0.000106239 0 0)
(0.0177392 -0.000688603 0 4.01747e-05 0 0)
(0.0348475 -6.43018e-05 0 1.10249e-05 0 0)
(0.0440339 8.92429e-05 0 6.15844e-06 0 0)
(0.049942 5.94049e-05 0 5.19142e-06 0 0)
(0.0561091 2.171e-05 0 6.65674e-06 0 0)
(0.0592136 -1.05029e-05 0 7.79116e-06 0 0)
(0.0622746 -5.34729e-05 0 1.01293e-05 0 0)
(0.0649336 -7.17324e-05 0 1.07498e-05 0 0)
(0.0661059 -0.000100044 0 1.33323e-05 0 0)
(0.069065 -0.000113606 0 1.33748e-05 0 0)
(0.0692561 -0.000144732 0 1.66267e-05 0 0)
(0.0725433 -0.0001671 0 1.6107e-05 0 0)
(0.0726896 -0.000191883 0 1.99737e-05 0 0)
(0.0769255 -0.000271632 0 1.91859e-05 0 0)
(0.0773543 -0.000205605 0 2.46626e-05 0 0)
(0.0865646 -0.00074906 0 2.67207e-05 0 0)
(0.0847966 0.000829106 0 7.05545e-05 0 0)
(0.138375 -0.00932446 0 0.00097151 0 0)
(0.145818 0.016517 0 0.00328078 0 0)
(0.00572527 0.00146416 0 0.000647289 0 0)
(0.0016383 -0.000671246 0 0.000860356 0 0)
(0.0113188 -0.00112593 0 0.000374613 0 0)
(0.0179322 -0.00135125 0 0.000162235 0 0)
(0.0268436 -0.00123039 0 0.000102903 0 0)
(0.039733 -0.00116719 0 8.80332e-05 0 0)
(0.0508069 -0.00147274 0 0.00010286 0 0)
(0.059731 -0.00103097 0 7.93764e-05 0 0)
(0.0761829 -0.00156563 0 0.000104818 0 0)
(0.0758819 -0.00117162 0 8.89217e-05 0 0)
(0.0995297 -0.00173309 0 0.000118031 0 0)
(0.0905118 -0.00151106 0 0.000112687 0 0)
(0.120644 -0.00222025 0 0.000154013 0 0)
(0.104881 -0.00195905 0 0.000150999 0 0)
(0.142543 -0.00304519 0 0.000221789 0 0)
(0.119244 -0.00304897 0 0.000253143 0 0)
(0.171593 -0.00338132 0 0.000343371 0 0)
(0.142048 -0.00729305 0 0.000900506 0 0)
(0.23919 -0.00388401 0 0.000691108 0 0)
(0.232961 -0.0307143 0 0.0115796 0 0)
(0.0143463 0.000584941 0 0.000439585 0 0)
(0.0142172 0.000106334 0 0.00104043 0 0)
(0.0366606 -8.34878e-05 0 0.000685552 0 0)
(0.0397833 -0.00109394 0 0.000399978 0 0)
(0.0561743 -0.00109144 0 0.000328124 0 0)
(0.0653671 -0.00165497 0 0.00031355 0 0)
(0.0853149 -0.00329884 0 0.000375645 0 0)
(0.0902605 -0.00206181 0 0.000265559 0 0)
(0.126771 -0.00469496 0 0.000359042 0 0)
(0.115135 -0.00302692 0 0.000247444 0 0)
(0.173308 -0.0057852 0 0.000370892 0 0)
(0.139982 -0.00423266 0 0.000294741 0 0)
(0.221058 -0.00769163 0 0.000514885 0 0)
(0.162097 -0.00542086 0 0.000427772 0 0)
(0.272795 -0.0110181 0 0.000871758 0 0)
(0.176402 -0.00667227 0 0.000745464 0 0)
(0.334069 -0.0149665 0 0.00152614 0 0)
(0.19012 -0.00884101 0 0.00188052 0 0)
(0.418334 -0.0197082 0 0.00348356 0 0)
(0.236798 -0.0268802 0 0.0141832 0 0)
(0.0702077 -0.000373796 0 0.000359196 0 0)
(0.0819418 -0.000118025 0 0.000858801 0 0)
(0.127261 -0.00116501 0 0.000713616 0 0)
(0.132618 -0.00223634 0 0.000505616 0 0)
(0.164297 -0.00147603 0 0.000518535 0 0)
(0.170546 -0.00271456 0 0.000548755 0 0)
(0.206809 -0.0052058 0 0.000733274 0 0)
(0.202774 -0.00269959 0 0.000554806 0 0)
(0.260444 -0.00877193 0 0.000848351 0 0)
(0.232013 -0.00475334 0 0.000560533 0 0)
(0.321406 -0.0117001 0 0.000933573 0 0)
(0.259828 -0.00756423 0 0.000681004 0 0)
(0.386968 -0.0159349 0 0.00130555 0 0)
(0.284309 -0.0102328 0 0.000962978 0 0)
(0.459391 -0.0228201 0 0.00217029 0 0)
(0.297269 -0.0127165 0 0.00156821 0 0)
(0.543809 -0.0309202 0 0.00348958 0 0)
(0.29521 -0.0161489 0 0.00383635 0 0)
(0.651454 -0.0373418 0 0.00587658 0 0)
(0.289952 -0.0310713 0 0.0214036 0 0)
(0.27394 -0.00127187 0 0.000600214 0 0)
(0.271222 0.000106825 0 0.00114768 0 0)
(0.303363 -0.00410467 0 0.00137722 0 0)
(0.292137 -0.00419637 0 0.00103153 0 0)
(0.316529 -0.00435534 0 0.00113163 0 0)
(0.308489 -0.00591005 0 0.00104233 0 0)
(0.339287 -0.00879044 0 0.00160608 0 0)
(0.323974 -0.00537858 0 0.00118132 0 0)
(0.372574 -0.0136024 0 0.00202717 0 0)
(0.340032 -0.0075428 0 0.00136377 0 0)
(0.409463 -0.0175784 0 0.00236899 0 0)
(0.357119 -0.0111886 0 0.00163036 0 0)
(0.447097 -0.0229603 0 0.00312327 0 0)
(0.374909 -0.0147175 0 0.00208976 0 0)
(0.486362 -0.0315945 0 0.00456124 0 0)
(0.388658 -0.0184193 0 0.0028591 0 0)
(0.531238 -0.0424047 0 0.00664095 0 0)
(0.392225 -0.0232845 0 0.00534505 0 0)
(0.590543 -0.0528496 0 0.0102019 0 0)
(0.379029 -0.0322796 0 0.0245384 0 0)
(0.343661 -0.00546584 0 0.00197252 0 0)
(0.294746 -0.00110149 0 0.00268432 0 0)
(0.287715 -0.00755585 0 0.00339784 0 0)
(0.246857 -0.00592297 0 0.0022004 0 0)
(0.255604 -0.00831297 0 0.00300338 0 0)
(0.234929 -0.00782373 0 0.00246342 0 0)
(0.240333 -0.0109984 0 0.00356217 0 0)
(0.225245 -0.00733142 0 0.00258623 0 0)
(0.235627 -0.0140209 0 0.00427028 0 0)
(0.222814 -0.00924989 0 0.00286893 0 0)
(0.233834 -0.0168722 0 0.004834 0 0)
(0.2254 -0.0123876 0 0.00342618 0 0)
(0.232288 -0.0200287 0 0.00588985 0 0)
(0.233976 -0.0154292 0 0.00413484 0 0)
(0.228658 -0.0248209 0 0.00794205 0 0)
(0.248084 -0.0191183 0 0.00515753 0 0)
(0.222158 -0.0304423 0 0.0111254 0 0)
(0.267768 -0.0240944 0 0.00779224 0 0)
(0.215099 -0.0349696 0 0.0180853 0 0)
(0.295144 -0.0325013 0 0.0222147 0 0)
(0.159934 -0.00889007 0 0.00368258 0 0)
(0.142142 -0.00762529 0 0.00544429 0 0)
(0.132746 -0.00704302 0 0.00531186 0 0)
(0.122928 -0.0100498 0 0.00451286 0 0)
(0.120056 -0.00901931 0 0.00549196 0 0)
(0.121709 -0.00928286 0 0.00490045 0 0)
(0.117315 -0.00964681 0 0.00551868 0 0)
(0.119435 -0.00935396 0 0.00500453 0 0)
(0.119792 -0.010271 0 0.00609815 0 0)
(0.121871 -0.0102003 0 0.00540103 0 0)
(0.120084 -0.0117709 0 0.00683315 0 0)
(0.128589 -0.0112557 0 0.00612155 0 0)
(0.123478 -0.0123499 0 0.00805401 0 0)
(0.138345 -0.0126939 0 0.0072205 0 0)
(0.125689 -0.0125185 0 0.0101927 0 0)
(0.15243 -0.0144329 0 0.00876755 0 0)
(0.127202 -0.0111882 0 0.0136814 0 0)
(0.173248 -0.0162654 0 0.012711 0 0)
(0.12974 -0.00494476 0 0.0218258 0 0)
(0.20523 -0.0148068 0 0.0331898 0 0)
(0.140775 -0.0104503 0 0.00455049 0 0)
(0.171671 -0.016742 0 0.00910395 0 0)
(0.137547 -0.00765543 0 0.00715048 0 0)
(0.174088 -0.0125614 0 0.00619783 0 0)
(0.150867 -0.0104687 0 0.00719611 0 0)
(0.17153 -0.010275 0 0.00713573 0 0)
(0.168631 -0.00878331 0 0.00661036 0 0)
(0.17552 -0.0104258 0 0.00723482 0 0)
(0.181404 -0.0082379 0 0.00738821 0 0)
(0.180451 -0.00988464 0 0.00747238 0 0)
(0.193351 -0.00792889 0 0.00799214 0 0)
(0.186469 -0.00937919 0 0.00851256 0 0)
(0.20957 -0.00620252 0 0.00912064 0 0)
(0.196058 -0.00930787 0 0.00976735 0 0)
(0.221742 -0.00329716 0 0.0111395 0 0)
(0.208665 -0.0087822 0 0.0116605 0 0)
(0.238047 0.00188741 0 0.0142874 0 0)
(0.225816 -0.007156 0 0.0169128 0 0)
(0.254759 0.013243 0 0.0223802 0 0)
(0.250508 -0.00035423 0 0.0388187 0 0)
(0.24067 -0.00748854 0 0.00436337 0 0)
(0.269054 -0.0159395 0 0.011626 0 0)
(0.232249 -0.00499104 0 0.00812641 0 0)
(0.239291 -0.00793775 0 0.00720273 0 0)
(0.263922 -0.00597869 0 0.00716123 0 0)
(0.227316 -0.00598988 0 0.00800096 0 0)
(0.295427 -0.00383419 0 0.00669003 0 0)
(0.225907 -0.00581922 0 0.00807073 0 0)
(0.311701 -0.00177534 0 0.00716288 0 0)
(0.229661 -0.00568969 0 0.00861356 0 0)
(0.322085 0.000161001 0 0.00770289 0 0)
(0.238348 -0.00452627 0 0.00946289 0 0)
(0.335826 0.0028109 0 0.00882234 0 0)
(0.250128 -0.00386992 0 0.0108273 0 0)
(0.351716 0.00669366 0 0.0101337 0 0)
(0.264993 -0.00239255 0 0.0127092 0 0)
(0.367054 0.0130133 0 0.0126053 0 0)
(0.286492 0.000531593 0 0.017527 0 0)
(0.38398 0.0250534 0 0.0189874 0 0)
(0.326076 0.0057601 0 0.0324305 0 0)
(0.269503 -0.00365503 0 0.00317417 0 0)
(0.299105 -0.0074034 0 0.00886829 0 0)
(0.288953 -0.000746446 0 0.00531792 0 0)
(0.248299 -0.00151645 0 0.00545343 0 0)
(0.310539 -0.000668872 0 0.00486978 0 0)
(0.23962 -0.000848289 0 0.0058782 0 0)
(0.321168 0.00123089 0 0.00454627 0 0)
(0.239616 -0.000564343 0 0.00608608 0 0)
(0.321167 0.00331081 0 0.00488338 0 0)
(0.244024 -0.000334667 0 0.00636987 0 0)
(0.327465 0.00437396 0 0.00533326 0 0)
(0.258251 0.000836676 0 0.00684048 0 0)
(0.335203 0.00691662 0 0.00595789 0 0)
(0.274728 0.00163789 0 0.00771496 0 0)
(0.344115 0.0101941 0 0.0065912 0 0)
(0.296922 0.00389057 0 0.00886477 0 0)
(0.356179 0.015341 0 0.00774597 0 0)
(0.332146 0.00836494 0 0.0117206 0 0)
(0.373717 0.0246002 0 0.0114064 0 0)
(0.403158 0.0139202 0 0.0212359 0 0)
(0.182534 -0.0012672 0 0.0023707 0 0)
(0.209073 -0.00121786 0 0.00550464 0 0)
(0.19849 0.00191027 0 0.00375463 0 0)
(0.177122 0.00297516 0 0.00347318 0 0)
(0.206541 0.00188149 0 0.00415969 0 0)
(0.179052 0.00274262 0 0.00421338 0 0)
(0.207705 0.00318518 0 0.00404177 0 0)
(0.182443 0.00381671 0 0.00445659 0 0)
(0.207582 0.00452266 0 0.00422245 0 0)
(0.190691 0.00461819 0 0.00467544 0 0)
(0.207164 0.00565807 0 0.00453557 0 0)
(0.207384 0.00576154 0 0.00489948 0 0)
(0.211923 0.00760649 0 0.00485652 0 0)
(0.221432 0.00735972 0 0.00534542 0 0)
(0.217649 0.00985987 0 0.00522738 0 0)
(0.242033 0.0104496 0 0.00595191 0 0)
(0.223569 0.0130616 0 0.00594281 0 0)
(0.275181 0.0160889 0 0.00735477 0 0)
(0.228741 0.0191088 0 0.00830356 0 0)
(0.337331 0.0237512 0 0.0133079 0 0)
(0.0792842 -0.000309536 0 0.00209262 0 0)
(0.089151 0.000619247 0 0.00454252 0 0)
(0.0801373 0.00126559 0 0.00352603 0 0)
(0.0842448 0.00243093 0 0.00345125 0 0)
(0.085271 0.00135527 0 0.00380121 0 0)
(0.0889097 0.0021952 0 0.00403641 0 0)
(0.0889677 0.00149607 0 0.00387038 0 0)
(0.0938359 0.0034235 0 0.00428017 0 0)
(0.0898444 0.00223583 0 0.00386499 0 0)
(0.103095 0.00419001 0 0.00432596 0 0)
(0.0891265 0.00297102 0 0.00399304 0 0)
(0.114751 0.00499543 0 0.00442399 0 0)
(0.0926277 0.00379144 0 0.00410733 0 0)
(0.126276 0.00606713 0 0.00459796 0 0)
(0.095991 0.0043745 0 0.00414088 0 0)
(0.141758 0.00816703 0 0.00478351 0 0)
(0.0976785 0.00539689 0 0.0043713 0 0)
(0.16497 0.0117437 0 0.00553709 0 0)
(0.0990199 0.00846885 0 0.0056733 0 0)
(0.20771 0.0167857 0 0.00926193 0 0)
(0.0262989 -0.00010154 0 0.00171601 0 0)
(0.0287306 0.000218813 0 0.00375621 0 0)
(0.0261138 -0.000299031 0 0.00307834 0 0)
(0.0340378 0.000658095 0 0.00284164 0 0)
(0.0313746 0.000247586 0 0.00289027 0 0)
(0.035683 0.000815437 0 0.00304581 0 0)
(0.0343315 9.20384e-05 0 0.00304159 0 0)
(0.0400333 0.00141095 0 0.00336224 0 0)
(0.0356445 0.000207488 0 0.00297712 0 0)
(0.0457258 0.00197971 0 0.0032021 0 0)
(0.0361113 0.00084051 0 0.00292745 0 0)
(0.0504925 0.00234067 0 0.00321648 0 0)
(0.0383001 0.00114204 0 0.00302467 0 0)
(0.0563716 0.00274195 0 0.00312856 0 0)
(0.041232 0.00131748 0 0.00283256 0 0)
(0.0633059 0.00376816 0 0.00297832 0 0)
(0.0439493 0.00201102 0 0.00278774 0 0)
(0.0737529 0.00566455 0 0.00323408 0 0)
(0.0489745 0.00435271 0 0.00353759 0 0)
(0.0939592 0.00921475 0 0.00544544 0 0)
(0.00797895 -0.000221773 0 0.00124394 0 0)
(0.00579962 -0.000569573 0 0.0028214 0 0)
(0.00686555 -0.00124604 0 0.00251333 0 0)
(0.0101845 -0.00052113 0 0.00195447 0 0)
(0.0102635 -0.0002051 0 0.00201949 0 0)
(0.0115301 -0.00025912 0 0.00195589 0 0)
(0.0129734 -0.000291175 0 0.00209109 0 0)
(0.0141822 -0.000280116 0 0.00224158 0 0)
(0.0155675 -0.000594378 0 0.00202732 0 0)
(0.0175976 -3.21021e-06 0 0.00200187 0 0)
(0.0169096 -0.000129045 0 0.00187865 0 0)
(0.0198297 0.000144592 0 0.00193083 0 0)
(0.0188052 -0.00012079 0 0.00193721 0 0)
(0.0232232 2.37106e-06 0 0.0018454 0 0)
(0.0217382 -3.49142e-05 0 0.00171414 0 0)
(0.0273271 0.000459363 0 0.0016129 0 0)
(0.0255626 0.000619178 0 0.0015514 0 0)
(0.0342591 0.00178718 0 0.00173512 0 0)
(0.0334095 0.00284581 0 0.00202611 0 0)
(0.0479171 0.00601995 0 0.00340224 0 0)
(0.00667995 -0.000335457 0 0.000922409 0 0)
(0.00287183 -0.000792204 0 0.00221701 0 0)
(0.00403209 -0.00135956 0 0.00204754 0 0)
(0.0053647 -0.000902358 0 0.00148374 0 0)
(0.00690463 -0.000445652 0 0.00155032 0 0)
(0.00674622 -0.000437251 0 0.00148582 0 0)
(0.00836579 -0.000525514 0 0.00169203 0 0)
(0.00863579 -0.000873522 0 0.00180909 0 0)
(0.0109346 -0.000898301 0 0.00167221 0 0)
(0.0111198 -0.000632269 0 0.00157471 0 0)
(0.0128615 -0.000444305 0 0.00145204 0 0)
(0.0128739 -0.00041042 0 0.00143398 0 0)
(0.0146798 -0.000393843 0 0.00142061 0 0)
(0.015231 -0.000606832 0 0.00131662 0 0)
(0.0173468 -0.000406727 0 0.00119121 0 0)
(0.0181719 -0.000333598 0 0.00105621 0 0)
(0.0208582 0.000207905 0 0.000953133 0 0)
(0.0234136 0.000777111 0 0.000975832 0 0)
(0.0280209 0.00223832 0 0.00114711 0 0)
(0.034803 0.00447939 0 0.00188903 0 0)
(0.00817609 -0.000326375 0 0.000549278 0 0)
(0.00459331 -0.000226954 0 0.00146057 0 0)
(0.00473472 -0.000812407 0 0.00140282 0 0)
(0.00570808 -0.000612521 0 0.00104168 0 0)
(0.00753597 -0.000313418 0 0.00117449 0 0)
(0.00699067 -0.000138569 0 0.00106519 0 0)
(0.00901281 -0.000276108 0 0.00117651 0 0)
(0.00818723 -0.000330718 0 0.00126922 0 0)
(0.0100063 -0.000458558 0 0.00120459 0 0)
(0.00864858 -0.000134351 0 0.00112321 0 0)
(0.0103736 -0.000122046 0 0.000997874 0 0)
(0.00870074 7.33413e-05 0 0.000936785 0 0)
(0.010161 1.1867e-05 0 0.000886886 0 0)
(0.00839234 -7.09145e-06 0 0.000819285 0 0)
(0.00985528 -7.11028e-06 0 0.000721642 0 0)
(0.00832946 2.93045e-05 0 0.000650546 0 0)
(0.0101235 0.000336177 0 0.000541755 0 0)
(0.00987953 0.000610977 0 0.000548903 0 0)
(0.0132199 0.00160525 0 0.000629198 0 0)
(0.0167476 0.00268802 0 0.00104723 0 0)
(0.00707749 -0.000522171 0 0.000341613 0 0)
(0.00373615 -5.63241e-08 0 0.00100407 0 0)
(0.0040844 -0.000296257 0 0.000856794 0 0)
(0.00546421 -0.000258513 0 0.000585529 0 0)
(0.00677686 -8.74317e-05 0 0.000700882 0 0)
(0.00591089 7.01864e-05 0 0.000666149 0 0)
(0.00666416 0.000133789 0 0.000692928 0 0)
(0.00523804 0.000413713 0 0.000704393 0 0)
(0.00507231 0.000415808 0 0.000640395 0 0)
(0.00411281 0.000713113 0 0.000576807 0 0)
(0.00373483 0.000624133 0 0.000505211 0 0)
(0.00364222 0.0008294 0 0.000466696 0 0)
(0.00296734 0.000680559 0 0.000433794 0 0)
(0.00366254 0.000796989 0 0.0004027 0 0)
(0.00293508 0.000537397 0 0.000348915 0 0)
(0.0043305 0.000678086 0 0.000327497 0 0)
(0.00387426 0.000396213 0 0.000277341 0 0)
(0.00581931 0.000705263 0 0.000282324 0 0)
(0.00655518 0.000676495 0 0.000385433 0 0)
(0.00957653 0.00139203 0 0.000536102 0 0)
(0.0056684 -0.00104936 0 0.000401168 0 0)
(0.0017785 -0.000306903 0 0.00101951 0 0)
(0.00193485 -4.35832e-05 0 0.000663966 0 0)
(0.0026261 0.000127978 0 0.000389276 0 0)
(0.00273333 0.000490986 0 0.000371758 0 0)
(0.00286217 0.000776583 0 0.000333128 0 0)
(0.00446014 0.000943416 0 0.000314824 0 0)
(0.00700886 0.00111729 0 0.000296009 0 0)
(0.00874251 0.00104019 0 0.000254892 0 0)
(0.0129537 0.00107408 0 0.000222878 0 0)
(0.0137551 0.000912886 0 0.000193613 0 0)
(0.0190565 0.00094231 0 0.000179957 0 0)
(0.0184875 0.000768144 0 0.000172963 0 0)
(0.0245716 0.000815086 0 0.000160655 0 0)
(0.0228592 0.000495887 0 0.000143657 0 0)
(0.0290278 0.000624684 0 0.000135934 0 0)
(0.0266685 4.49156e-05 0 0.000122611 0 0)
(0.0312572 0.000469545 0 0.000130856 0 0)
(0.0296005 -0.000335854 0 0.000182193 0 0)
(0.0309158 0.000900874 0 0.000341148 0 0)
(0.00500095 -0.00156458 0 0.000633988 0 0)
(0.000861806 0.000604405 0 0.000848555 0 0)
(0.00469868 0.00119944 0 0.000360431 0 0)
(0.0093481 0.00105347 0 0.000150327 0 0)
(0.0146558 0.00103043 0 0.000104497 0 0)
(0.0214659 0.000930667 0 8.38371e-05 0 0)
(0.0279264 0.00078051 0 7.65313e-05 0 0)
(0.0348739 0.000669966 0 7.16242e-05 0 0)
(0.0390617 0.000536979 0 6.66356e-05 0 0)
(0.0451798 0.000480038 0 6.35642e-05 0 0)
(0.0470872 0.000390207 0 6.09416e-05 0 0)
(0.0529017 0.000388455 0 5.85771e-05 0 0)
(0.0530049 0.000304965 0 5.83016e-05 0 0)
(0.0589049 0.000325837 0 5.33795e-05 0 0)
(0.057501 0.000156197 0 4.91941e-05 0 0)
(0.0629752 0.000195081 0 4.43134e-05 0 0)
(0.0601812 -0.000160545 0 4.22885e-05 0 0)
(0.0630141 7.20247e-05 0 4.2197e-05 0 0)
(0.060802 -0.000629266 0 6.24401e-05 0 0)
(0.0566498 0.000370127 0 0.000184793 0 0)
(0.000926793 -5.46857e-05 0 0.000105375 0 0)
(0.017733 0.000689778 0 3.8962e-05 0 0)
(0.0346001 6.3277e-05 0 9.94184e-06 0 0)
(0.0430912 -0.00010541 0 4.60289e-06 0 0)
(0.0493912 -7.75174e-05 0 3.95348e-06 0 0)
(0.0542364 -5.93757e-05 0 4.33499e-06 0 0)
(0.0573293 -3.937e-05 0 5.24401e-06 0 0)
(0.0599854 -1.72103e-05 0 5.62677e-06 0 0)
(0.0614444 -9.79339e-06 0 6.21917e-06 0 0)
(0.0633492 4.96099e-07 0 6.27473e-06 0 0)
(0.063965 -3.78999e-06 0 6.38661e-06 0 0)
(0.0655538 5.5502e-06 0 6.05172e-06 0 0)
(0.0656432 -6.51041e-06 0 5.88448e-06 0 0)
(0.0671131 2.2537e-06 0 5.20481e-06 0 0)
(0.066626 -2.75652e-05 0 4.78295e-06 0 0)
(0.0676636 -2.4155e-05 0 3.98375e-06 0 0)
(0.0661587 -8.06979e-05 0 3.63346e-06 0 0)
(0.0657489 -6.60163e-05 0 3.20291e-06 0 0)
(0.0638627 -0.000237317 0 4.06519e-06 0 0)
(0.0578232 0.000321279 0 2.30972e-05 0 0)
(0.275023 -0.132526 0 0.0826207 0 0)
(0.299142 -0.157056 0 0.116002 0 0)
(0.305516 -0.150145 0 0.138559 0 0)
(0.321717 -0.132403 0 0.15519 0 0)
(0.33056 -0.112753 0 0.165058 0 0)
(0.387567 -0.0989841 0 0.171383 0 0)
(0.419141 -0.0946267 0 0.177219 0 0)
(0.508918 -0.104278 0 0.186071 0 0)
(0.554316 -0.117945 0 0.196884 0 0)
(0.64595 -0.137573 0 0.208365 0 0)
(0.680047 -0.150679 0 0.220656 0 0)
(0.762965 -0.168172 0 0.236086 0 0)
(0.790682 -0.175778 0 0.252205 0 0)
(0.874671 -0.192278 0 0.267081 0 0)
(0.908229 -0.201796 0 0.277275 0 0)
(0.999083 -0.226005 0 0.28603 0 0)
(1.03523 -0.24625 0 0.297287 0 0)
(1.13334 -0.2826 0 0.314768 0 0)
(1.16969 -0.308241 0 0.339351 0 0)
(1.28888 -0.346755 0 0.370905 0 0)
(1.34169 -0.369109 0 0.399967 0 0)
(1.48889 -0.409907 0 0.431252 0 0)
(1.54867 -0.434409 0 0.461699 0 0)
(1.71947 -0.481538 0 0.493576 0 0)
(1.78772 -0.506578 0 0.523687 0 0)
(1.9758 -0.563542 0 0.558387 0 0)
(2.05576 -0.589928 0 0.592456 0 0)
(2.2515 -0.664934 0 0.632107 0 0)
(2.34681 -0.698499 0 0.673473 0 0)
(2.54056 -0.790058 0 0.724775 0 0)
(2.65294 -0.827671 0 0.779777 0 0)
(2.85523 -0.925835 0 0.840627 0 0)
(2.98477 -0.96392 0 0.899929 0 0)
(3.2187 -1.07129 0 0.964063 0 0)
(3.35517 -1.11513 0 1.02407 0 0)
(3.6199 -1.23626 0 1.08927 0 0)
(3.72982 -1.27824 0 1.14587 0 0)
(4.01015 -1.4087 0 1.20885 0 0)
(4.07551 -1.44051 0 1.26283 0 0)
(4.36187 -1.57528 0 1.32753 0 0)
(4.37606 -1.58393 0 1.38467 0 0)
(4.65858 -1.71632 0 1.44913 0 0)
(4.62728 -1.69796 0 1.50336 0 0)
(4.92177 -1.82745 0 1.56848 0 0)
(4.86566 -1.79759 0 1.6229 0 0)
(5.19749 -1.93312 0 1.68871 0 0)
(5.1336 -1.90039 0 1.73952 0 0)
(5.51886 -2.04601 0 1.81221 0 0)
(5.45071 -2.02277 0 1.86627 0 0)
(5.90031 -2.17935 0 1.94915 0 0)
(5.80721 -2.16571 0 2.01136 0 0)
(6.32065 -2.33432 0 2.10839 0 0)
(6.16029 -2.31169 0 2.18129 0 0)
(6.72054 -2.48709 0 2.2863 0 0)
(6.45277 -2.42817 0 2.35598 0 0)
(7.04505 -2.6092 0 2.45943 0 0)
(6.66422 -2.50264 0 2.51111 0 0)
(7.29067 -2.69033 0 2.5994 0 0)
(6.80435 -2.55202 0 2.63763 0 0)
(7.49882 -2.75944 0 2.71991 0 0)
(6.90169 -2.61455 0 2.75934 0 0)
(7.69186 -2.84437 0 2.84699 0 0)
(6.95989 -2.68858 0 2.89296 0 0)
(7.8293 -2.92318 0 2.98741 0 0)
(6.95777 -2.73021 0 3.02586 0 0)
(7.88123 -2.94429 0 3.11038 0 0)
(6.91114 -2.70706 0 3.11048 0 0)
(7.90352 -2.87949 0 3.15448 0 0)
(6.86875 -2.6319 0 3.13097 0 0)
(7.99366 -2.81554 0 3.18283 0 0)
(6.89051 -2.5741 0 3.18158 0 0)
(8.17561 -2.79367 0 3.24193 0 0)
(6.97851 -2.54043 0 3.24459 0 0)
(8.44689 -2.83014 0 3.31924 0 0)
(7.11928 -2.55778 0 3.35613 0 0)
(8.74066 -2.92678 0 3.47971 0 0)
(7.29686 -2.61873 0 3.55824 0 0)
(8.98028 -3.03505 0 3.73733 0 0)
(7.44098 -2.68222 0 3.832 0 0)
(9.14252 -3.09533 0 4.03732 0 0)
(7.48437 -2.7097 0 4.1268 0 0)
(9.2315 -3.10722 0 4.31433 0 0)
(7.43582 -2.694 0 4.36882 0 0)
(9.25685 -3.0948 0 4.53198 0 0)
(7.34861 -2.64546 0 4.55945 0 0)
(9.16923 -3.03029 0 4.71547 0 0)
(7.27529 -2.55007 0 4.73695 0 0)
(9.04257 -2.92007 0 4.92464 0 0)
(7.23056 -2.45035 0 4.96008 0 0)
(8.97867 -2.79607 0 5.14592 0 0)
(7.23047 -2.36791 0 5.19171 0 0)
(8.99091 -2.74572 0 5.40532 0 0)
(7.30998 -2.34856 0 5.48718 0 0)
(9.08124 -2.74675 0 5.72588 0 0)
(7.43651 -2.33496 0 5.8097 0 0)
(9.17208 -2.74028 0 6.0666 0 0)
(7.57126 -2.30867 0 6.15863 0 0)
(9.23864 -2.71272 0 6.45413 0 0)
(7.66618 -2.26325 0 6.55377 0 0)
(9.18812 -2.64529 0 6.87917 0 0)
(7.65322 -2.18205 0 7.01892 0 0)
(9.09417 -2.57299 0 7.38085 0 0)
(7.52698 -2.07969 0 7.51822 0 0)
(8.98425 -2.47423 0 7.86524 0 0)
(7.34242 -1.96529 0 7.93869 0 0)
(8.83285 -2.39317 0 8.27453 0 0)
(7.12953 -1.83325 0 8.31271 0 0)
(8.64134 -2.25565 0 8.57581 0 0)
(6.97074 -1.65596 0 8.55334 0 0)
(8.46589 -2.08929 0 8.81848 0 0)
(6.91027 -1.50886 0 8.78302 0 0)
(8.36252 -1.95687 0 9.03103 0 0)
(6.96133 -1.39699 0 8.9735 0 0)
(8.30234 -1.84087 0 9.2282 0 0)
(7.03026 -1.26625 0 9.17074 0 0)
(8.23143 -1.7002 0 9.42842 0 0)
(7.11031 -1.16162 0 9.41793 0 0)
(8.14734 -1.57866 0 9.7149 0 0)
(7.20996 -1.10377 0 9.76449 0 0)
(8.12493 -1.49212 0 10.0918 0 0)
(7.32104 -1.09164 0 10.1954 0 0)
(8.08973 -1.45499 0 10.5138 0 0)
(7.3468 -1.09385 0 10.647 0 0)
(7.9987 -1.43921 0 10.9458 0 0)
(7.31833 -1.09829 0 11.0437 0 0)
(7.9127 -1.40885 0 11.2905 0 0)
(7.2335 -1.07286 0 11.3962 0 0)
(7.80961 -1.37163 0 11.6331 0 0)
(7.17543 -1.07473 0 11.7337 0 0)
(7.66637 -1.36223 0 11.9305 0 0)
(7.18496 -1.15145 0 12.0802 0 0)
(7.54607 -1.38117 0 12.3047 0 0)
(7.24074 -1.24227 0 12.4758 0 0)
(7.50283 -1.37082 0 12.646 0 0)
(7.30747 -1.30182 0 12.792 0 0)
(7.50353 -1.34432 0 12.9436 0 0)
(7.39574 -1.28879 0 13.0576 0 0)
(7.53595 -1.29427 0 13.2536 0 0)
(7.47224 -1.23097 0 13.439 0 0)
(7.56784 -1.21099 0 13.6063 0 0)
(7.51359 -1.17575 0 13.8001 0 0)
(7.55051 -1.09963 0 13.9051 0 0)
(7.55534 -1.08869 0 14.0997 0 0)
(7.47137 -0.958673 0 14.2512 0 0)
(7.44969 -0.954016 0 14.5112 0 0)
(7.28393 -0.77639 0 14.631 0 0)
(7.29595 -0.757657 0 14.7611 0 0)
(7.11663 -0.625812 0 14.8333 0 0)
(7.1466 -0.525633 0 14.9983 0 0)
(6.96859 -0.487514 0 15.0257 0 0)
(6.98974 -0.341178 0 15.075 0 0)
(6.82063 -0.338479 0 14.9952 0 0)
(6.83425 -0.170257 0 15.0204 0 0)
(6.69663 -0.196966 0 14.9267 0 0)
(6.70855 -0.0167381 0 15.0147 0 0)
(6.5814 -0.10548 0 14.9129 0 0)
(6.64044 0.0656178 0 14.9964 0 0)
(6.54339 -0.0275391 0 14.8257 0 0)
(6.60182 0.0824502 0 14.9317 0 0)
(6.42979 -0.0336675 0 14.7852 0 0)
(6.48471 0.0335651 0 14.8807 0 0)
(6.31199 -0.0695224 0 14.7755 0 0)
(6.36075 -0.00465605 0 14.7867 0 0)
(6.23672 -0.132103 0 14.6857 0 0)
(6.32203 -0.0619613 0 14.637 0 0)
(6.19973 -0.223814 0 14.5146 0 0)
(6.31177 -0.167846 0 14.4737 0 0)
(6.12572 -0.418259 0 14.3654 0 0)
(6.25796 -0.277352 0 14.2449 0 0)
(6.11969 -0.608029 0 14.0751 0 0)
(6.15148 -0.466298 0 13.9072 0 0)
(6.17272 -0.842024 0 13.7595 0 0)
(6.00126 -0.629522 0 13.4095 0 0)
(6.29108 -1.09775 0 13.1242 0 0)
(5.94799 -0.683553 0 12.7584 0 0)
(6.31711 -1.1748 0 12.4516 0 0)
(5.99121 -0.709083 0 12.1145 0 0)
(6.36237 -1.16382 0 11.7055 0 0)
(6.00611 -0.752356 0 11.5117 0 0)
(6.41425 -1.08835 0 10.9453 0 0)
(6.00112 -0.806358 0 10.9275 0 0)
(6.38366 -0.983547 0 10.1098 0 0)
(5.88347 -0.932545 0 10.3953 0 0)
(6.20129 -0.79332 0 9.29238 0 0)
(5.72071 -1.0256 0 9.9759 0 0)
(5.90406 -0.516168 0 8.59217 0 0)
(5.51702 -1.08022 0 9.69812 0 0)
(5.52636 -0.211476 0 8.10003 0 0)
(5.21447 -1.02564 0 9.65821 0 0)
(5.16485 0.242743 0 7.93858 0 0)
(4.81898 -0.860368 0 9.93358 0 0)
(4.80704 0.791742 0 8.04206 0 0)
(4.39549 -0.548632 0 10.7101 0 0)
(4.2933 1.43198 0 8.65208 0 0)
(4.03392 -0.0377532 0 12.234 0 0)
(3.73424 2.36992 0 10.2078 0 0)
(3.56588 0.338093 0 14.6013 0 0)
(2.95162 3.59706 0 13.1598 0 0)
(3.30231 2.30041 0 19.976 0 0)
(1.06242 0.569477 0 21.736 0 0)
(0.257886 -0.109569 0 0.0929711 0 0)
(0.229455 -0.116884 0 0.121107 0 0)
(0.245447 -0.104781 0 0.127821 0 0)
(0.215242 -0.0959243 0 0.131903 0 0)
(0.237717 -0.0858614 0 0.132261 0 0)
(0.232118 -0.0853179 0 0.131366 0 0)
(0.270698 -0.0897751 0 0.133827 0 0)
(0.279965 -0.103022 0 0.141287 0 0)
(0.32785 -0.113455 0 0.150227 0 0)
(0.336672 -0.129083 0 0.159849 0 0)
(0.382653 -0.137205 0 0.170082 0 0)
(0.387235 -0.153019 0 0.183233 0 0)
(0.435463 -0.159814 0 0.19649 0 0)
(0.447489 -0.177195 0 0.210281 0 0)
(0.506183 -0.185311 0 0.222291 0 0)
(0.535722 -0.210025 0 0.235581 0 0)
(0.608448 -0.226898 0 0.250254 0 0)
(0.657925 -0.265148 0 0.269391 0 0)
(0.738252 -0.289214 0 0.290437 0 0)
(0.798661 -0.333464 0 0.316281 0 0)
(0.877377 -0.356155 0 0.342107 0 0)
(0.949596 -0.401788 0 0.370713 0 0)
(1.02715 -0.421603 0 0.398157 0 0)
(1.11738 -0.472357 0 0.428537 0 0)
(1.1958 -0.489865 0 0.457653 0 0)
(1.31053 -0.549787 0 0.492764 0 0)
(1.39787 -0.568039 0 0.527309 0 0)
(1.5417 -0.641936 0 0.569266 0 0)
(1.64373 -0.667209 0 0.610233 0 0)
(1.81255 -0.757787 0 0.660963 0 0)
(1.92188 -0.790552 0 0.709545 0 0)
(2.10925 -0.89383 0 0.767256 0 0)
(2.20825 -0.926904 0 0.819767 0 0)
(2.41189 -1.03914 0 0.880671 0 0)
(2.48175 -1.0662 0 0.933771 0 0)
(2.70297 -1.18678 0 0.995006 0 0)
(2.721 -1.19819 0 1.04748 0 0)
(2.95903 -1.32507 0 1.10698 0 0)
(2.91494 -1.31545 0 1.1589 0 0)
(3.177 -1.45049 0 1.21843 0 0)
(3.07958 -1.41704 0 1.2702 0 0)
(3.36855 -1.55721 0 1.33384 0 0)
(3.23768 -1.50805 0 1.38456 0 0)
(3.56568 -1.65297 0 1.45328 0 0)
(3.42176 -1.59819 0 1.50343 0 0)
(3.79575 -1.75297 0 1.5818 0 0)
(3.64855 -1.7015 0 1.63429 0 0)
(4.07134 -1.86766 0 1.71895 0 0)
(3.90679 -1.81654 0 1.77376 0 0)
(4.3801 -1.99437 0 1.86309 0 0)
(4.16439 -1.92915 0 1.92051 0 0)
(4.69253 -2.12118 0 2.01382 0 0)
(4.39367 -2.02182 0 2.07106 0 0)
(4.97427 -2.22754 0 2.16449 0 0)
(4.57705 -2.07922 0 2.21657 0 0)
(5.20955 -2.30375 0 2.30549 0 0)
(4.72646 -2.11082 0 2.34852 0 0)
(5.41084 -2.3595 0 2.43488 0 0)
(4.8691 -2.14631 0 2.47059 0 0)
(5.60441 -2.41717 0 2.56802 0 0)
(5.00862 -2.21019 0 2.60467 0 0)
(5.79249 -2.483 0 2.71017 0 0)
(5.12352 -2.28358 0 2.74203 0 0)
(5.94873 -2.52403 0 2.83774 0 0)
(5.17609 -2.30853 0 2.85251 0 0)
(6.0473 -2.50532 0 2.91895 0 0)
(5.16645 -2.25883 0 2.90748 0 0)
(6.12973 -2.44822 0 2.95773 0 0)
(5.16547 -2.18811 0 2.94906 0 0)
(6.25816 -2.4186 0 3.02058 0 0)
(5.22465 -2.14417 0 3.01994 0 0)
(6.46164 -2.42625 0 3.1091 0 0)
(5.35981 -2.13205 0 3.11438 0 0)
(6.72458 -2.48732 0 3.22494 0 0)
(5.55222 -2.1655 0 3.25742 0 0)
(6.99015 -2.59081 0 3.4128 0 0)
(5.75625 -2.22992 0 3.48279 0 0)
(7.19253 -2.67912 0 3.68391 0 0)
(5.89471 -2.26178 0 3.76137 0 0)
(7.29862 -2.69779 0 3.9719 0 0)
(5.92364 -2.24861 0 4.03918 0 0)
(7.34439 -2.67617 0 4.23014 0 0)
(5.91202 -2.20719 0 4.27179 0 0)
(7.34096 -2.62714 0 4.43694 0 0)
(5.91064 -2.16362 0 4.44734 0 0)
(7.31369 -2.54277 0 4.61588 0 0)
(5.92476 -2.10998 0 4.64139 0 0)
(7.30528 -2.44816 0 4.83391 0 0)
(5.98625 -2.03636 0 4.866 0 0)
(7.37133 -2.35951 0 5.0755 0 0)
(6.09136 -1.99826 0 5.1453 0 0)
(7.50794 -2.3603 0 5.38523 0 0)
(6.24792 -1.99342 0 5.47095 0 0)
(7.69964 -2.37806 0 5.71693 0 0)
(6.45186 -1.9832 0 5.78375 0 0)
(7.8965 -2.40248 0 6.04605 0 0)
(6.66722 -1.96118 0 6.12867 0 0)
(8.06199 -2.38231 0 6.42433 0 0)
(6.8471 -1.91319 0 6.52321 0 0)
(8.14808 -2.33254 0 6.87362 0 0)
(6.92633 -1.8233 0 6.9966 0 0)
(8.15749 -2.24404 0 7.36441 0 0)
(6.89816 -1.68416 0 7.46081 0 0)
(8.11217 -2.11041 0 7.82144 0 0)
(6.74485 -1.54438 0 7.86865 0 0)
(7.95225 -1.97925 0 8.22468 0 0)
(6.54746 -1.37134 0 8.2353 0 0)
(7.78524 -1.80437 0 8.54411 0 0)
(6.43616 -1.203 0 8.50719 0 0)
(7.74764 -1.66001 0 8.79113 0 0)
(6.4869 -1.08124 0 8.73851 0 0)
(7.83849 -1.53186 0 9.01266 0 0)
(6.65504 -0.96646 0 8.94929 0 0)
(7.94062 -1.3872 0 9.23025 0 0)
(6.86613 -0.87814 0 9.1826 0 0)
(8.01365 -1.29413 0 9.44861 0 0)
(7.1144 -0.851704 0 9.45495 0 0)
(8.11149 -1.24546 0 9.74683 0 0)
(7.35322 -0.84233 0 9.83418 0 0)
(8.21034 -1.21314 0 10.1681 0 0)
(7.46878 -0.863761 0 10.2866 0 0)
(8.20878 -1.21596 0 10.6262 0 0)
(7.43968 -0.890335 0 10.7397 0 0)
(8.15508 -1.23111 0 11.0488 0 0)
(7.37128 -0.88589 0 11.1609 0 0)
(8.09899 -1.23109 0 11.411 0 0)
(7.33642 -0.899463 0 11.5164 0 0)
(8.04104 -1.24802 0 11.7412 0 0)
(7.38868 -0.997062 0 11.8598 0 0)
(7.99392 -1.31543 0 12.05 0 0)
(7.44495 -1.17625 0 12.2067 0 0)
(7.93896 -1.38386 0 12.3983 0 0)
(7.50076 -1.3058 0 12.588 0 0)
(7.91278 -1.39866 0 12.7672 0 0)
(7.57246 -1.36892 0 12.9487 0 0)
(8.00485 -1.38895 0 13.0637 0 0)
(7.73154 -1.38802 0 13.1873 0 0)
(8.10251 -1.34858 0 13.3537 0 0)
(7.8483 -1.37152 0 13.5785 0 0)
(8.12668 -1.26606 0 13.735 0 0)
(7.86289 -1.28479 0 13.979 0 0)
(8.07521 -1.13928 0 14.0628 0 0)
(7.79872 -1.16735 0 14.2666 0 0)
(7.91691 -0.942634 0 14.4166 0 0)
(7.58887 -0.962628 0 14.7093 0 0)
(7.69225 -0.70737 0 14.7607 0 0)
(7.33761 -0.746701 0 14.9932 0 0)
(7.4734 -0.515311 0 15.0119 0 0)
(7.05488 -0.537087 0 15.1967 0 0)
(7.20384 -0.322342 0 15.2059 0 0)
(6.88903 -0.263642 0 15.2873 0 0)
(6.99082 -0.160061 0 15.1496 0 0)
(6.80043 -0.0715826 0 15.2115 0 0)
(6.89647 -0.0578379 0 15.1767 0 0)
(6.73926 0.0410255 0 15.242 0 0)
(6.83308 -0.00397559 0 15.1279 0 0)
(6.75802 0.12527 0 15.2089 0 0)
(6.78516 0.0653783 0 15.1368 0 0)
(6.72081 0.143574 0 15.164 0 0)
(6.62494 0.0314752 0 15.147 0 0)
(6.65058 0.162323 0 15.1186 0 0)
(6.49412 -0.0529387 0 15.0433 0 0)
(6.54871 0.112361 0 15.0493 0 0)
(6.41364 -0.116574 0 14.9213 0 0)
(6.46375 0.0243877 0 14.9151 0 0)
(6.30709 -0.216298 0 14.8169 0 0)
(6.38033 -0.0538165 0 14.8843 0 0)
(6.23054 -0.361547 0 14.7577 0 0)
(6.31959 -0.155522 0 14.5903 0 0)
(6.19938 -0.536503 0 14.5579 0 0)
(6.1711 -0.26288 0 14.3398 0 0)
(6.15215 -0.800521 0 14.2084 0 0)
(6.08346 -0.356746 0 13.8325 0 0)
(6.04677 -1.03494 0 13.5543 0 0)
(6.13241 -0.476674 0 13.0696 0 0)
(5.97737 -1.19262 0 12.6822 0 0)
(6.22257 -0.595306 0 12.4223 0 0)
(6.0141 -1.28584 0 11.9059 0 0)
(6.26166 -0.796715 0 11.8522 0 0)
(6.09563 -1.2508 0 11.0905 0 0)
(6.24509 -1.02046 0 11.3934 0 0)
(6.04739 -1.10824 0 10.2869 0 0)
(6.13105 -1.29683 0 10.9624 0 0)
(5.82667 -0.913593 0 9.41091 0 0)
(5.9534 -1.55403 0 10.5505 0 0)
(5.61241 -0.612164 0 8.62297 0 0)