/*--------------------------------*- C++ -*----------------------------------*\
| =========                 |                                                 |
| \\      /  F ield         | OpenFOAM: The Open Source CFD Toolbox           |
|  \\    /   O peration     | Version:  2.4.0                                 |
|   \\  /    A nd           | Web:      www.OpenFOAM.org                      |
|    \\/     M anipulation  |                                                 |
\*---------------------------------------------------------------------------*/
FoamFile
{
    version     2.0;
    format      ascii;
    class       volScalarField;
    location    "1.2";
    object      p;
}
// * * * * * * * * * * * * * * * * * * * * * * * * * * * * * * * * * * * * * //

dimensions      [0 2 -2 0 0 0 0];

internalField   nonuniform List<scalar> 
8800
(
106.007
93.6529
86.2492
82.7211
80.8218
79.453
78.2143
77.1216
76.1493
75.1168
74.1784
73.3061
72.3534
71.5092
70.6255
69.8582
69.1068
68.344
67.5626
66.8266
102.896
93.2984
86.4191
82.835
80.8813
79.4789
78.2216
77.1198
76.1507
75.1137
74.173
73.307
72.3499
71.5076
70.625
69.8543
69.1138
68.3358
67.562
66.7466
100.933
93.3711
87.0235
83.2105
81.051
79.5569
78.2668
77.1518
76.1772
75.1288
74.1834
73.3138
72.3502
71.5059
70.6257
69.8495
69.1285
68.3378
67.5742
66.7215
99.3969
93.4285
87.6167
83.6319
81.2363
79.6401
78.3311
77.2077
76.2262
75.1656
74.2154
73.3276
72.363
71.5071
70.6345
69.8441
69.156
68.3647
67.7194
66.7517
98.1455
93.3973
88.1001
84.0422
81.4092
79.6988
78.3832
77.2645
76.2781
75.2169
74.2605
73.347
72.3807
71.5105
70.6457
69.8381
69.1789
68.4193
67.8554
66.8084
97.156
93.3008
88.476
84.3871
81.5647
79.7359
78.4197
77.3057
76.3276
75.2679
74.3048
73.3647
72.4005
71.5129
70.6562
69.8269
69.1826
68.453
67.9688
66.9453
96.3999
93.1823
88.7511
84.6703
81.7064
79.7544
78.4358
77.3353
76.3643
75.314
74.342
73.3848
72.4108
71.514
70.6618
69.8122
69.1546
68.4407
68.0463
67.464
95.8444
93.0869
88.9282
84.8857
81.828
79.778
78.4277
77.3637
76.3876
75.3525
74.3621
73.4057
72.408
71.5257
70.6453
69.8152
69.0992
68.3813
67.8027
67.9604
95.4855
93.0153
89.0372
85.0356
81.9165
79.7906
78.4189
77.3832
76.4009
75.3776
74.3812
73.4191
72.4115
71.5267
70.6444
69.7899
69.0563
68.3569
67.8645
68.5171
95.3092
92.9777
89.0886
85.1116
81.9644
79.7975
78.4128
77.389
76.4101
75.3895
74.3923
73.4225
72.4161
71.5263
70.6417
69.7719
69.0394
68.3512
67.9105
68.5453
95.3052
92.9812
89.0833
85.118
81.9635
79.7987
78.408
77.3924
76.4052
75.3924
74.3941
73.4225
72.4171
71.5247
70.6444
69.7648
69.0273
68.3615
67.9237
68.6412
95.4794
93.0235
89.0274
85.043
81.9204
79.7935
78.4154
77.3849
76.3924
75.3826
74.3879
73.4145
72.4165
71.5269
70.649
69.7646
69.0247
68.3633
67.9409
68.6365
95.8338
93.1004
88.9105
84.9
81.8325
79.7806
78.4239
77.3736
76.3666
75.3605
74.375
73.4029
72.4115
71.5288
70.6585
69.7723
69.0276
68.38
67.9319
68.5732
96.3847
93.2006
88.7273
84.6853
81.7068
79.7625
78.4293
77.3513
76.3326
75.3304
74.3521
73.3825
72.4046
71.5318
70.6687
69.7863
69.0424
68.4068
67.9086
68.4479
97.1418
93.3122
88.459
84.4026
81.567
79.7305
78.4257
77.3199
76.2881
75.2895
74.3235
73.3583
72.3924
71.5301
70.6836
69.8027
69.0646
68.4474
67.893
68.2574
98.1267
93.408
88.0925
84.0528
81.4116
79.6856
78.404
77.2751
76.2348
75.2408
74.2906
73.3272
72.378
71.5283
70.6987
69.8155
69.1007
68.4982
67.9122
67.9972
99.3765
93.4342
87.6145
83.6465
81.2423
79.6171
78.3584
77.222
76.1762
75.1888
74.2573
73.2987
72.3654
71.5216
70.7101
69.8288
69.1376
68.5437
67.9673
67.7315
100.914
93.3712
87.0271
83.222
81.0578
79.5294
78.2992
77.1672
76.1264
75.1494
74.2315
73.2788
72.3584
71.5182
70.7174
69.8407
69.1668
68.5764
68.0249
67.5979
102.881
93.2931
86.4234
82.8457
80.8915
79.4508
78.2526
77.1354
76.1025
75.1321
74.2208
73.2734
72.3598
71.5203
70.7202
69.8526
69.1823
68.5919
68.021
67.5294
105.996
93.6466
86.2538
82.7315
80.8318
79.426
78.2449
77.1345
76.1048
75.1353
74.2226
73.275
72.3644
71.5223
70.7204
69.8582
69.1878
68.5926
68.0226
67.6566
67.0044
66.9789
66.8313
66.6963
66.6438
66.6269
66.6487
66.68
66.7159
66.769
66.8028
66.8277
66.8228
66.7738
66.7012
66.6097
66.508
66.4101
66.3206
66.2536
66.1979
66.1602
66.1521
66.1668
66.2109
66.2714
66.3352
66.3824
66.3842
66.3195
66.1869
65.9719
65.6902
65.3685
65.0069
64.6373
64.2879
63.9784
63.7514
63.6296
63.6134
63.6975
63.8581
64.055
64.2566
64.429
64.527
64.5492
64.4736
64.2898
64.0065
63.6204
63.149
62.562
61.9578
61.4307
61.0321
60.9583
61.2134
61.8487
62.9245
64.398
66.2766
68.4894
70.7884
72.998
75.0558
76.8345
78.2388
79.0351
79.1336
78.6003
77.4222
75.7426
73.3851
70.4732
67.2286
63.5484
59.854
56.3378
52.8931
49.7835
47.0024
44.35
42.0155
40.1447
38.7381
37.8991
37.8524
38.7594
40.2345
41.8158
44.3154
47.1133
49.0453
51.3099
53.9473
55.7211
56.9129
58.7239
60.2555
60.6736
61.2299
62.1155
62.4173
61.961
61.691
61.4013
60.3631
59.1136
58.2853
57.0187
55.4685
54.585
53.94
53.2834
53.2476
54.0741
55.2876
56.9047
59.3634
62.2443
65.4047
68.7105
71.8807
74.7326
77.2473
79.101
80.3305
81.0729
81.0381
80.2192
78.7403
76.9279
75.0385
72.8266
70.6833
68.7785
67.0278
65.6279
64.8417
64.1381
63.8351
64.2242
64.9976
66.008
67.697
69.6824
71.5992
74.17
76.8927
79.418
81.9004
84.2654
86.3406
88.0113
89.7697
91.1043
92.1258
93.2609
94.0644
94.8221
95.5182
95.7789
96.058
96.6931
96.7918
96.5032
96.4898
95.7447
94.8664
94.0293
92.5937
90.1444
86.9004
82.8661
79.0123
75.7247
72.2616
68.4784
66.4111
65.2893
63.167
62.1316
62.304
62.0546
61.8638
62.8794
63.7652
64.1459
65.2105
66.3457
66.7877
66.609
65.4773
62.5195
56.4771
47.5332
33.1261
-6.06924
66.6912
66.7307
66.7365
66.7371
66.7104
66.6425
66.6254
66.6273
66.6421
66.7092
66.7548
66.8033
66.8195
66.7756
66.7278
66.6324
66.5251
66.4227
66.3218
66.2528
66.1906
66.1466
66.1356
66.1432
66.1811
66.2372
66.2925
66.3355
66.3336
66.2634
66.1354
65.9285
65.6598
65.3638
65.0273
64.6901
64.3774
64.0943
63.8813
63.759
63.7091
63.7539
63.8691
64.0134
64.1748
64.3169
64.3994
64.4018
64.3374
64.1596
63.8893
63.5495
63.1245
62.625
62.1317
61.7364
61.4327
61.438
61.7747
62.3961
63.5044
65.0618
66.8677
68.8888
70.9888
73.0578
75.1032
76.7484
77.9382
78.5537
78.5452
78.1376
76.9477
75.3222
73.1315
70.2408
67.2534
63.9247
60.3657
57.0984
53.963
50.9445
48.383
46.0504
43.8139
42.0482
40.8826
40.1542
40.018
40.6725
42.0314
43.5639
45.5252
48.1349
50.2217
52.043
54.3831
56.3574
57.4135
58.7247
60.1003
60.7546
61.2142
61.5351
61.8116
61.4581
60.6754
60.2953
59.3594
57.6462
56.3433
55.089
53.2764
52.0014
51.1132
50.2975
50.2527
50.898
51.9021
53.4589
55.8607
58.6511
61.6878
65.0418
68.3098
71.1198
73.6656
75.718
77.2
78.2452
78.8383
78.6808
78.0217
76.9779
75.7996
74.3644
72.8557
71.5289
70.2634
69.0576
68.2704
67.7952
67.6417
67.9568
68.6289
69.6751
70.95
72.6552
74.4381
76.5205
78.7888
80.8521
82.7012
84.6593
86.4476
87.7659
89.2413
90.7213
91.6383
92.4463
93.4666
94.2575
94.9271
95.4162
95.6356
96.2459
96.3137
96.2015
96.283
95.8831
95.1962
94.1507
92.1706
89.1944
85.4801
81.1933
77.0104
73.2005
69.4316
65.6606
63.5174
61.9075
59.6205
58.3501
58.0332
57.0792
56.5715
57.2336
57.5485
57.7348
58.6713
59.2816
59.2385
58.6796
57.0489
53.1136
45.0374
33.366
18.1112
-19.5132
66.7681
66.8201
66.7878
66.7948
66.8108
66.725
66.6548
66.5793
66.5392
66.6098
66.6621
66.7453
66.7935
66.7628
66.7327
66.6424
66.5373
66.4355
66.3268
66.2581
66.1885
66.1404
66.128
66.1245
66.1557
66.1982
66.2399
66.2669
66.255
66.179
66.054
65.8714
65.6187
65.3648
65.0585
64.7534
64.4844
64.2166
64.0282
63.907
63.8344
63.8452
63.9237
64.0182
64.1272
64.2483
64.2973
64.288
64.2391
64.079
63.8346
63.5483
63.2084
62.7831
62.4146
62.1654
61.9357
62.0291
62.4291
63.0752
64.1609
65.6376
67.2829
69.0901
71.0898
72.9934
74.8237
76.2123
77.198
77.8235
77.6931
77.3174
76.2398
74.5583
72.6483
69.9665
67.0791
64.1823
60.8888
57.6701
54.9413
52.2352
49.5686
47.5645
45.7014
43.9981
42.9789
42.4095
42.3113
42.84
44.088
45.6847
47.346
49.5376
51.6274
53.3717
55.1628
56.8779
58.1106
59.0031
60.2135
60.9441
61.0155
61.1895
61.4669
60.9779
59.9825
59.3228
58.1411
56.202
54.5392
52.962
50.8425
49.101
47.8933
46.9451
46.555
46.9651
47.8982
49.4745
51.73
54.3142
57.4895
61.0163
64.4347
67.5438
70.2689
72.5217
74.4763
76.0134
76.9619
77.4332
77.5375
77.2818
76.7491
75.9662
74.9874
74.0865
73.1724
72.3265
71.7107
71.4368
71.4601
71.7227
72.2113
73.1543
74.2688
75.6061
77.2209
78.8597
80.4778
82.0734
83.486
84.7878
86.3437
87.5999
88.6919
90.0753
91.0113
91.7711
92.7593
93.5234
94.3647
94.999
95.2597
95.8438
95.8832
95.9945
96.2155
96.0952
95.5057
94.3765
91.9508
88.381
84.2034
79.8615
75.5251
71.2898
67.0477
63.3545
61.0791
58.9888
56.3692
54.6093
53.8174
52.1379
51.341
51.624
51.3749
51.3302
52.0731
52.4233
52.1016
51.3319
49.0269
44.5294
36.144
22.7632
8.64013
-18.0988
66.0713
66.2491
66.7784
67.1138
67.1832
66.9594
66.7346
66.5249
66.4099
66.4994
66.5535
66.6535
66.7446
66.7511
66.7614
66.6652
66.5663
66.4697
66.3469
66.2739
66.1923
66.1397
66.119
66.0989
66.1228
66.149
66.1776
66.1914
66.1747
66.0959
65.9741
65.8171
65.5783
65.3622
65.0967
64.8278
64.6234
64.3761
64.2003
64.0901
63.9952
63.975
64.0198
64.0661
64.1258
64.2218
64.2464
64.2226
64.197
64.059
63.8514
63.6282
63.3762
63.0373
62.7753
62.6729
62.5131
62.6894
63.149
63.7658
64.8026
66.0975
67.5942
69.1949
70.9857
72.6832
74.1726
75.4275
76.2784
76.8156
76.6593
76.2077
75.3152
73.7241
72.0042
69.7163
66.9935
64.3108
61.4941
58.5486
55.8847
53.5626
51.0941
49.213
47.7659
46.3728
45.3929
44.9027
45.0161
45.6406
46.546
48.1231
49.6807
51.3392
53.2631
54.7044
56.2258
57.6514
58.7989
59.6176
60.3092
60.9895
61.2113
61.1632
61.1269
60.7021
59.5415
58.3525
57.0464
54.9596
52.6388
50.4938
48.0713
45.9059
44.1707
42.8946
42.2721
42.3176
43.181
44.6743
46.6962
49.3547
52.5757
56.3851
60.1661
63.6292
66.9009
69.6952
71.9892
74.1197
75.6396
76.623
77.2817
77.7188
77.7969
77.6095
77.1962
76.601
76.1035
75.7925
75.3878
75.1783
75.241
75.3848
75.8394
76.5674
77.4796
78.6028
79.7471
80.8162
81.9589
83.094
84.1694
85.0579
86.1104
87.2136
88.2724
89.4222
90.1745
91.0339
92.078
92.8404
93.6142
94.334
94.8675
95.5332
95.5825
95.8327
96.3798
96.2489
95.6891
94.3626
91.6005
87.6085
82.9819
78.3893
73.9787
69.6976
65.3192
61.5412
58.8687
56.3144
53.1799
50.8969
49.3175
47.4864
46.2069
45.9851
45.6755
45.5852
46.022
46.2061
45.715
44.5595
42.3735
37.8359
29.8103
16.3105
4.26992
-13.6421
65.8115
66.2135
67.1
67.5261
67.5681
67.1975
66.7797
66.4451
66.2604
66.331
66.4211
66.5333
66.6471
66.7315
66.7755
66.6747
66.5817
66.4913
66.3693
66.2698
66.1847
66.1478
66.1099
66.0847
66.0981
66.1107
66.124
66.1003
66.0746
65.9843
65.865
65.7454
65.5304
65.3632
65.15
64.9144
64.7554
64.5332
64.3777
64.2846
64.1708
64.1363
64.1588
64.1684
64.1847
64.2504
64.2555
64.1999
64.2017
64.0826
63.9194
63.7861
63.5946
63.3757
63.2107
63.1968
63.1345
63.351
63.8441
64.391
65.3518
66.4907
67.7659
69.204
70.6955
72.1599
73.4085
74.4789
75.2598
75.6146
75.5322
75.0637
74.2304
72.9194
71.3698
69.3982
67.0988
64.6543
62.198
59.7347
57.2308
55.2159
53.4557
51.4256
50.0787
49.129
48.2763
47.8936
48.0909
48.6732
49.4441
50.6687
52.1174
53.3877
54.8326
56.2172
57.4148
58.4658
59.4856
60.2306
60.6854
61.3369
61.4956
61.2418
61.0957
60.5641
59.334
57.8351
56.0493
53.626
50.7306
47.9218
45.1113
42.3192
40.0416
38.3629
37.4449
37.1597
37.7118
39.0905
41.0606
43.8351
47.3312
51.2088
55.3421
59.4489
63.2179
66.7606
69.8249
72.4962
74.5388
76.1374
77.4684
78.3073
78.8739
79.3645
79.5143
79.2996
79.2795
79.2798
78.8966
78.7467
78.8981
78.8041
79.253
79.9145
80.4147
81.1973
81.9427
82.4484
83.1194
83.9408
84.6871
85.3695
86.0748
86.7775
87.5996
88.6198
89.4192
90.2258
91.164
92.1254
92.962
93.7018
94.4058
95.0889
95.2171
95.6713
96.5232
96.2688
95.7643
94.2945
91.3767
87.1513
82.045
77.0242
72.5347
68.0674
63.9708
60.1393
57.0309
53.9867
50.0156
47.1683
45.0087
42.9964
41.5508
41.3066
40.7554
40.1653
40.3451
40.6618
40.3704
39.1279
37.5115
32.8634
25.8038
13.539
3.92619
-9.2081
65.8435
66.3233
67.3536
67.7358
67.6928
67.3041
66.7399
66.3473
66.1649
66.2309
66.407
66.4829
66.5897
66.741
66.7576
66.6838
66.5926
66.511
66.4219
66.2657
66.1953
66.1767
66.0945
66.0718
66.0527
66.0533
66.0715
66.0027
66.0022
65.925
65.8005
65.7233
65.5159
65.3758
65.1991
64.9897
64.8647
64.6777
64.5447
64.4705
64.3608
64.3151
64.3204
64.2937
64.2929
64.3174
64.3044
64.2665
64.2474
64.1607
64.0731
63.9592
63.8309
63.7355
63.6318
63.6726
63.7332
63.9653
64.4321
64.9641
65.7942
66.7692
67.863
69.1155
70.3284
71.5618
72.6572
73.4794
74.1429
74.5168
74.4093
73.9861
73.2732
72.1753
70.8123
69.1639
67.2968
65.2245
63.0767
61.0577
58.9874
57.1685
55.609
53.9682
52.7802
51.9876
51.4099
51.1299
51.1825
51.6762
52.3203
53.2454
54.3615
55.3476
56.5517
57.5991
58.5395
59.4311
60.1752
60.9832
61.3798
61.6911
61.9415
61.8186
61.4268
60.7253
59.5057
57.568
55.2796
52.4374
49.0188
45.4562
41.897
38.5992
35.7718
33.6476
32.3805
31.8171
32.2545
33.4528
35.4184
38.2205
41.7302
45.7894
50.2497
54.8905
59.4908
63.6595
67.5789
71.0925
73.7266
75.8831
77.8398
79.1336
80.2124
81.194
81.6346
81.7828
82.1623
82.3385
82.007
81.9824
82.1622
82.0665
82.3295
82.6964
82.8799
83.2872
83.7538
84.0413
84.2177
84.6284
85.0476
85.4691
85.9699
86.3888
86.8876
87.6362
88.4371
89.2957
90.1813
91.239
92.2678
93.0432
93.8942
94.6525
94.9071
95.4844
96.2414
96.1582
95.6915
94.2402
91.4218
87.1984
81.6128
76.3931
71.6628
66.9396
62.8648
58.9434
55.7277
51.8452
47.4911
43.81
41.431
39.2599
38.0828
37.7215
37.067
36.116
35.9767
36.1611
35.7651
34.8507
33.5092
29.2089
24.7027
14.4126
4.97448
-6.10617
66.4505
66.7055
67.335
67.3024
67.0962
66.9149
66.4925
66.2306
66.1348
66.2403
66.4839
66.4833
66.5835
66.7743
66.725
66.6867
66.5949
66.5046
66.4469
66.2373
66.198
66.1887
66.0686
66.0562
65.9992
66.014
66.0413
65.9319
65.9539
65.8666
65.7388
65.6934
65.4942
65.3901
65.2593
65.0654
64.9754
64.8091
64.6941
64.6356
64.5187
64.4688
64.4629
64.4306
64.4069
64.4252
64.3941
64.3606
64.3463
64.2611
64.233
64.1537
64.0583
64.0505
64.0192
64.0928
64.2207
64.4751
64.9078
65.3781
66.1232
66.9781
67.878
68.9766
69.9871
71.0154
71.9444
72.6313
73.2327
73.5012
73.4409
73.1491
72.4279
71.5479
70.5187
69.0454
67.5327
65.9387
64.051
62.3912
60.7428
59.107
57.7402
56.431
55.4985
54.8481
54.3305
54.1327
54.1059
54.4163
54.9887
55.5694
56.3961
57.2521
58.0672
58.8721
59.6873
60.4979
61.0819
61.7326
62.1188
62.4106
62.7749
62.5646
62.0966
61.3954
59.9544
57.7629
55.0664
51.684
47.5483
43.3292
39.1011
35.1061
31.8197
29.2196
27.5717
26.8268
27.1044
28.2673
30.0633
32.8618
36.2898
40.3466
45.2156
50.3515
55.5571
60.6158
65.4143
69.633
73.1196
75.9933
78.289
80.0692
81.6369
82.8949
83.5237
83.9337
84.4993
84.7515
84.6449
84.8073
84.8379
84.7727
84.9072
84.973
84.9157
85.131
85.3403
85.4473
85.3669
85.3781
85.454
85.4535
85.627
85.8311
86.072
86.5658
87.2436
88.1302
89.034
90.1551
91.4043
92.3053
93.2944
94.2985
94.6709
95.336
95.9519
95.9583
95.4946
94.1694
91.3712
87.1033
81.4204
76.3546
71.2421
66.5343
62.3819
58.1541
54.6666
50.0927
45.6076
41.5161
38.9114
36.9365
36.0919
35.8076
34.9151
33.2012
32.8441
33.0278
32.7124
32.2068
31.6203
27.6785
25.6591
17.3243
6.41261
-2.45674
68.8332
68.5521
67.5759
66.4695
65.8993
65.9557
65.8784
65.9137
66.0721
66.3137
66.5908
66.5542
66.6341
66.8057
66.6914
66.648
66.5757
66.4878
66.4331
66.2092
66.1868
66.1897
66.0583
66.0471
65.9664
65.9773
66.0062
65.8687
65.8914
65.8182
65.7137
65.6894
65.5125
65.4139
65.3163
65.1528
65.0514
64.9228
64.8313
64.7584
64.6731
64.612
64.5851
64.578
64.5221
64.521
64.5091
64.461
64.4524
64.3952
64.3871
64.3522
64.2943
64.3497
64.3431
64.4353
64.6204
64.8338
65.2479
65.7049
66.336
67.093
67.8733
68.8186
69.6814
70.5511
71.3838
71.9428
72.4727
72.7447
72.6218
72.431
71.9054
71.0675
70.2927
69.1276
67.8184
66.5796
65.0365
63.6339
62.3166
60.8666
59.7526
58.8097
57.9456
57.4698
57.0091
56.7266
56.779
56.8934
57.2864
57.7205
58.2877
58.9754
59.5085
60.2692
60.9593
61.5396
62.1122
62.5169
62.9983
63.3415
63.5088
63.5859
63.225
62.4386
60.921
58.531
55.4359
51.4118
46.7608
41.8807
37.0075
32.5685
28.6659
25.6341
23.7141
22.7048
22.8299
23.9185
25.6624
28.2142
31.415
35.4576
40.4574
46.0242
51.7836
57.6412
63.3734
68.3875
72.5123
76.134
79.005
81.1168
82.8602
84.3255
85.2759
85.9153
86.5105
86.8053
86.8234
86.9419
86.9597
86.9169
86.9289
86.8454
86.7715
86.7637
86.7164
86.708
86.5682
86.2518
85.9257
85.5683
85.2691
85.003
84.9144
85.2762
85.8977
86.6972
87.75
89.0451
90.3229
91.2952
92.3645
93.2948
94.081
95.1807
95.8118
95.6133
94.9796
93.6125
90.9356
86.6951
81.3468
76.2372
70.9368
66.4278
62.0457
58.1095
54.1923
49.1282
44.2559
40.234
37.4715
35.6098
35.2174
34.824
33.6227
31.3826
30.583
30.9188
30.9965
30.6542
31.7926
28.0257
27.1578
21.0365
11.1298
4.57674
69.7285
69.2565
67.6457
66.0611
65.2677
65.3743
65.5405
65.766
66.0885
66.4264
66.6894
66.6831
66.7293
66.8404
66.7162
66.6025
66.5496
66.4898
66.3868
66.1948
66.1642
66.1656
66.0714
66.0152
65.9421
65.9598
65.9698
65.8725
65.8527
65.8179
65.7322
65.6595
65.5416
65.4467
65.3449
65.2522
65.1106
65.0155
64.9748
64.8494
64.8185
64.7418
64.6808
64.7207
64.6215
64.6157
64.6395
64.5627
64.5935
64.5474
64.5207
64.5558
64.4856
64.5551
64.6289
64.7049
64.9195
65.1503
65.5084
65.948
66.5075
67.1823
67.8447
68.6214
69.4415
70.149
70.8573
71.4347
71.8083
72.0595
72.0138
71.8652
71.4499
70.7825
70.1797
69.2792
68.1609
67.1767
65.9986
64.6841
63.6772
62.6167
61.5759
60.9088
60.2248
59.6993
59.3742
59.0874
59.1063
59.13
59.3143
59.8028
60.0727
60.5791
61.1844
61.5895
62.1639
62.5672
63.0398
63.5675
63.8341
64.2233
64.5373
64.7406
64.6125
63.7643
62.3233
59.8311
56.2412
51.7513
46.5149
41.0005
35.5214
30.624
26.3892
22.9842
20.8571
19.6894
19.7319
20.7931
22.4494
24.724
27.6481
31.5435
36.4833
42.1255
48.3631
54.9763
61.465
67.329
72.2213
76.3705
79.6648
82.2626
84.3549
85.861
86.923
87.6926
88.308
88.6985
88.8103
88.765
88.7461
88.7977
88.7474
88.4987
88.3587
88.3813
88.1636
87.7976
87.5605
87.1796
86.4198
85.643
85.1
84.2977
83.5736
83.7123
84.4224
85.0618
86.1453
87.6535
89.0522
90.3636
91.5788
92.2955
93.3489
94.7024
95.219
94.9763
94.1274
92.6072
90.1673
86.4343
81.552
76.3297
70.8865
66.3859
62.0319
58.3151
54.1443
49.0261
44.0034
39.838
36.9829
35.2552
35.184
34.7383
33.7135
29.5049
29.6575
29.9277
30.5169
29.7003
32.4084
29.7945
29.1698
25.5159
19.2641
14.2718
70.1032
69.7239
67.9233
66.1579
65.1713
65.1171
65.3358
65.6212
66.0425
66.4863
66.7244
66.759
66.8023
66.8639
66.7454
66.555
66.5007
66.4792
66.3423
66.1755
66.1374
66.1356
66.0896
65.9959
65.9186
65.9614
65.9518
65.8688
65.8233
65.7882
65.7381
65.6342
65.5526
65.4833
65.3805
65.325
65.178
65.0988
65.086
64.9417
64.9247
64.8624
64.7821
64.8507
64.7444
64.7203
64.7683
64.6765
64.7034
64.671
64.6656
64.717
64.6698
64.7692
64.8488
64.9331
65.171
65.3883
65.7188
66.1475
66.6087
67.1864
67.7902
68.4826
69.1739
69.8008
70.4378
70.8859
71.268
71.4922
71.4694
71.4253
71.1481
70.5979
70.1295
69.4891
68.5603
67.7292
66.8498
65.7949
64.9186
64.1887
63.3975
62.7227
62.2325
61.747
61.4471
61.3016
61.1491
61.2031
61.3677
61.6324
61.9481
62.1974
62.6198
62.9319
63.2132
63.6339
63.9445
64.356
64.6758
65.0516
65.6181
65.9532
66.0538
65.4754
63.9574
61.4213
57.4993
52.4066
46.4961
40.3209
34.3264
28.8306
24.2052
20.6916
18.4402
17.3534
17.5066
18.6267
20.2111
22.3405
25.1405
28.8499
33.4991
39.1288
45.6878
52.7507
59.9757
66.5088
72.1169
76.9988
80.7507
83.577
85.845
87.5274
88.6977
89.4559
89.9904
90.4097
90.6262
90.5604
90.4878
90.4194
90.3209
90.2171
89.9636
89.821
89.6294
89.1408
88.4784
87.778
86.9067
85.7493
84.7171
83.5636
82.3856
82.0472
82.5624
83.3735
84.7605
86.409
87.7256
89.1708
90.5448
91.4952
92.7626
94.0834
94.5467
94.2017
93.1988
91.6346
89.4051
86.1655
81.8182
76.8564
71.4211
66.8812
62.4892
58.875
54.6251
49.5478
44.5628
40.7051
37.6173
35.8997
35.313
35.3065
36.4134
26.0087
31.6479
28.084
31.2911
30.2506
33.51
32.6595
32.2828
31.9202
29.2741
25.2611
70.408
70.0346
68.1207
66.2683
65.1766
64.9866
65.1822
65.4908
65.9932
66.4907
66.7133
66.785
66.8431
66.8789
66.7637
66.534
66.459
66.4566
66.3204
66.1572
66.0964
66.1104
66.1029
65.9926
65.9048
65.9532
65.9445
65.8494
65.795
65.7814
65.7487
65.6395
65.5745
65.5199
65.4269
65.3748
65.2361
65.1794
65.1775
65.0408
65.0271
64.9686
64.8958
64.958
64.8457
64.8248
64.8801
64.7929
64.8267
64.8072
64.8017
64.8727
64.8338
64.9479
65.0548
65.1365
65.3711
65.5621
65.8794
66.2634
66.6501
67.2208
67.7252
68.2982
68.967
69.4593
70.0029
70.4749
70.7643
71.0421
71.1134
71.0722
70.9546
70.5584
70.1296
69.6868
69.0048
68.3122
67.6697
66.8935
66.1788
65.5861
64.9649
64.415
63.9589
63.6221
63.4397
63.2504
63.1606
63.2531
63.3159
63.4277
63.6705
63.8346
63.9935
64.2323
64.3843
64.5384
64.6986
64.948
65.3403
65.7571
66.3954
67.0823
67.396
67.0113
65.6464
62.9753
58.6787
53.0273
46.5454
39.7732
33.2251
27.3221
22.3538
18.5519
16.1899
15.2748
15.572
16.7891
18.6117
20.8932
23.6709
27.1537
31.582
37.2082
43.876
51.3168
59.0429
66.1143
72.5028
77.8836
81.9909
85.1878
87.5359
89.232
90.5339
91.3281
91.7586
92.0983
92.2419
92.1147
92.084
91.9757
91.7332
91.6292
91.4602
91.2817
90.9721
90.4758
89.7118
88.5
87.1507
85.8062
84.2489
82.4884
81.0075
80.4905
80.7783
81.737
83.3779
85.1659
86.5661
87.9963
89.2286
90.435
92.11
93.4217
93.6935
93.2945
92.1914
90.6983
88.6736
85.7561
82.0336
77.3779
72.309
67.9141
63.6561
60.0593
55.6855
50.895
46.1518
42.5829
39.5997
38.2032
35.9817
36.4602
33.4847
21.8772
36.8013
23.8933
33.7035
31.5028
34.018
35.583
37.8848
41.102
40.5286
36.3543
70.5719
70.189
68.1413
66.3241
65.2327
64.9546
65.1462
65.455
66.0229
66.5208
66.7003
66.8308
66.8629
66.8658
66.7688
66.5013
66.4191
66.4188
66.3074
66.1666
66.0615
66.0899
66.1118
65.9831
65.898
65.9382
65.9501
65.8579
65.7763
65.7969
65.7526
65.6392
65.5934
65.5296
65.4801
65.4183
65.2865
65.2715
65.2475
65.1386
65.1216
65.055
65.0174
65.049
64.9493
64.9413
64.9714
64.9226
64.941
64.9215
64.96
65.001
64.9857
65.1176
65.1907
65.2926
65.5333
65.6983
65.9999
66.3461
66.682
67.1906
67.6268
68.1302
68.7258
69.1569
69.6606
70.1131
70.3787
70.6927
70.8129
70.7978
70.7865
70.5216
70.197
69.935
69.4792
68.9319
68.4856
67.9389
67.3304
66.8643
66.4089
65.9664
65.6634
65.4508
65.2556
65.1437
65.105
65.0611
65.0819
65.1707
65.2707
65.344
65.3729
65.427
65.4372
65.3554
65.3613
65.4414
65.6273
66.0813
66.8753
67.7067
68.2293
68.1018
66.7922
64.0121
59.5711
53.5917
46.6705
39.5698
32.785
26.6408
21.4736
17.5267
15.0016
13.9693
14.3018
15.6879
17.6656
20.0373
22.8509
26.2896
30.6856
36.2398
42.9583
50.7437
58.731
66.2956
73.2733
79.0343
83.4406
86.8722
89.4177
91.237
92.4511
93.0753
93.4882
93.8095
93.7732
93.5384
93.4966
93.3085
93.0862
92.9723
92.6887
92.4813
92.2801
91.8077
90.9512
89.5159
87.648
85.8571
83.8263
81.3546
79.5213
78.9365
78.9533
80.1339
82.315
84.2835
85.7374
86.946
87.8796
89.2931
91.3701
92.5394
92.6596
92.2056
91.1695
89.7896
87.9723
85.4888
82.4787
78.2749
73.7939
69.3979
65.1327
61.7174
57.428
52.9742
48.5998
44.9609
42.066
40.3696
33.7743
39.5996
27.3346
21.2257
37.6907
18.1053
36.4618
31.3804
34.6849
40.4094
46.4751
51.2436
51.2345
46.4428
70.5934
70.1891
68.0927
66.3569
65.3433
65.0374
65.2455
65.5494
66.1074
66.5729
66.7076
66.8506
66.8468
66.8206
66.7476
66.4792
66.3867
66.3782
66.2933
66.1848
66.0525
66.0873
66.1204
65.9904
65.9109
65.915
65.9449
65.8622
65.7515
65.7988
65.7531
65.6438
65.6248
65.5517
65.5302
65.4757
65.3386
65.3519
65.3133
65.2168
65.2108
65.137
65.1223
65.1449
65.0542
65.0605
65.0788
65.0362
65.0599
65.0381
65.072
65.1315
65.1263
65.2478
65.3349
65.4306
65.646
65.8
66.074
66.3938
66.6779
67.1439
67.5315
67.9428
68.5094
68.8765
69.3194
69.787
70.0279
70.3577
70.5604
70.5813
70.6671
70.586
70.3488
70.2115
69.9707
69.5563
69.2397
68.8942
68.4478
68.0951
67.816
67.5151
67.3024
67.1195
66.9615
66.9119
66.8302
66.7866
66.8184
66.8245
66.7709
66.6823
66.5975
66.4346
66.2122
65.9855
65.8323
65.6879
65.7
66.1205
66.8476
67.8345
68.4237
68.2553
67.0688
64.429
59.9791
53.8952
46.8153
39.5991
32.8387
26.7646
21.6173
17.6624
15.0801
13.9271
14.1592
15.4378
17.3707
19.7612
22.6259
26.1139
30.5377
36.1144
43.0332
50.9915
59.1179
67.091
74.4621
80.506
85.1618
88.7246
91.2521
93.0331
94.2756
94.8853
95.1563
95.3202
95.2055
94.933
94.8045
94.5446
94.2952
94.2157
93.9829
93.6539
93.3906
92.9845
92.1004
90.6361
88.4827
86.025
83.7602
81.0161
78.5056
77.4646
77.5258
78.9673
81.3623
83.4888
85.1037
86.151
87.1317
88.832
90.8283
91.6092
91.5035
90.952
90.0599
88.9218
87.4749
85.5135
83.1011
79.8552
75.8151
71.5059
66.5348
63.4622
59.4077
55.2801
51.1395
47.4076
44.4639
41.7506
34.7728
42.0333
27.2914
26.5361
34.2225
15.5072
36.4469
29.9122
39.1576
48.4271
55.6186
60.4736
60.8108
56.243
70.4132
70.006
67.9862
66.3958
65.4988
65.2426
65.4668
65.7737
66.2503
66.6386
66.7435
66.8298
66.8023
66.7547
66.6892
66.4643
66.3642
66.3448
66.2787
66.1916
66.0619
66.0789
66.107
65.9994
65.9274
65.9063
65.9254
65.8614
65.7531
65.7926
65.7581
65.6646
65.6465
65.5777
65.5584
65.5074
65.3996
65.4101
65.379
65.3073
65.2919
65.2379
65.2184
65.2244
65.1649
65.1532
65.1771
65.1506
65.1615
65.1746
65.1837
65.2514
65.2696
65.3363
65.4673
65.5409
65.713
65.9133
66.1047
66.3963
66.6846
67.0343
67.4025
67.7889
68.2516
68.6132
69.0439
69.4652
69.732
70.0853
70.3259
70.4396
70.6111
70.6385
70.5652
70.5301
70.4191
70.2007
69.9754
69.8039
69.5537
69.2884
69.1122
68.9344
68.752
68.6264
68.5545
68.4739
68.4073
68.3778
68.3065
68.1783
68.047
67.8258
67.5218
67.1842
66.8146
66.4037
66.0451
65.8298
65.6261
65.8944
66.5968
67.2252
67.738
67.6797
66.4911
63.8838
59.6229
53.8017
47.0062
39.9865
33.3325
27.3881
22.3903
18.504
15.9098
14.6789
14.7514
15.8462
17.6467
20.0204
22.9368
26.5369
31.0934
36.8539
43.9462
51.97
60.3134
68.5199
75.9947
82.1445
86.9364
90.5375
93.0547
94.7768
95.8498
96.3483
96.6618
96.7681
96.4554
96.1569
95.9682
95.6037
95.3201
95.2432
95.112
94.8496
94.6251
94.1589
92.9605
91.3312
89.3411
86.6142
83.8301
81.1939
78.9103
77.7031
77.4591
78.8421
81.0559
83.1906
84.6939
85.606
86.8503
88.7736
90.345
90.6961
90.2827
89.501
88.7405
88.0293
87.0597
85.6119
83.6931
81.1978
77.7797
73.4166
68.5901
65.2111
61.1712
57.2228
53.2824
49.4004
46.5708
43.0444
38.0149
42.1625
30.2619
37.2225
32.2133
22.9158
41.372
29.5764
47.3706
56.387
64.0026
69.429
70.0351
66.1486
69.9508
69.5302
67.7995
66.4769
65.7676
65.6092
65.8087
66.0984
66.4426
66.7063
66.7899
66.7985
66.7384
66.6687
66.5755
66.4198
66.3372
66.3125
66.2801
66.2069
66.1104
66.1014
66.0921
66.0078
65.9362
65.9002
65.8936
65.8442
65.7704
65.7796
65.7535
65.689
65.6595
65.6152
65.5875
65.5401
65.4758
65.4609
65.4344
65.3854
65.357
65.3335
65.3064
65.3049
65.2773
65.245
65.2795
65.2505
65.2472
65.3003
65.2712
65.3514
65.407
65.4111
65.5812
65.6412
65.7496
65.9956
66.1183
66.3784
66.6838
66.9261
67.2875
67.6479
68.0009
68.3794
68.7834
69.1656
69.489
69.8575
70.1451
70.35
70.5943
70.733
70.787
70.8511
70.858
70.7825
70.6977
70.6388
70.499
70.3438
70.2684
70.1404
70.0161
69.9415
69.8374
69.7336
69.6516
69.5178
69.3649
69.1918
68.9435
68.62
68.1989
67.702
67.127
66.6073
66.1226
65.7656
65.6088
65.6662
66.0829
66.5191
66.5237
65.9161
64.6402
62.2454
58.5173
53.4557
47.4141
40.9877
34.7111
28.9715
24.0557
20.177
17.5011
16.0957
15.9199
16.7822
18.4434
20.7898
23.7851
27.5559
32.3302
38.3672
45.5595
53.6864
62.1461
70.3079
77.7171
83.8773
88.665
92.2288
94.6856
96.3449
97.3284
97.7273
97.8711
97.8182
97.5073
97.2017
96.901
96.4616
96.1456
95.9999
95.8724
95.7441
95.6279
95.2337
93.9414
91.9301
89.656
87.1244
84.4282
81.7909
79.7506
78.8243
79.0202
79.7698
81.4439
83.2817
84.4831
85.408
87.0651
89.0669
90.2089
90.1922
89.4371
88.2856
87.5027
87.1834
86.7855
85.6343
84.0563
82.0249
79.0921
75.1639
70.5351
66.7748
62.3226
58.5643
55.1399
51.4476
48.3797
44.9433
41.2796
42.0214
35.7416
38.8345
30.6355
35.1933
43.7735
36.8515
56.4627
64.0732
72.4813
77.8143
78.4864
75.4811
69.1391
68.8204
67.6167
66.696
66.2052
66.0993
66.2251
66.4356
66.6279
66.7502
66.7877
66.7372
66.6713
66.5938
66.4954
66.4014
66.3326
66.3021
66.2667
66.2091
66.1473
66.1101
66.0779
66.0054
65.9458
65.9055
65.8653
65.8358
65.792
65.7707
65.7536
65.7055
65.6743
65.6431
65.6037
65.5725
65.5355
65.5086
65.4882
65.4517
65.4235
65.4067
65.3768
65.3708
65.3579
65.3343
65.3609
65.3366
65.3393
65.3889
65.355
65.4383
65.4951
65.493
65.6629
65.7094
65.8013
66.0361
66.1259
66.3581
66.6461
66.8415
67.1831
67.5173
67.8209
68.1967
68.5839
68.9503
69.3067
69.6942
70.0109
70.3007
70.6078
70.8139
70.9844
71.1335
71.2164
71.2693
71.2784
71.2636
71.2317
71.1635
71.1081
71.029
70.9305
70.8468
70.7306
70.5942
70.4455
70.2593
70.0391
69.7714
69.4305
69.025
68.5484
68.0222
67.382
66.7277
66.2161
65.8004
65.591
65.6051
65.6388
65.4616
64.8334
63.6524
61.9947
59.618
56.6257
52.797
48.0646
42.6712
37.0472
31.6159
26.7477
22.7513
19.8491
18.1614
17.6676
18.2546
19.7389
22.0459
25.1584
29.1793
34.2409
40.4577
47.77
55.9187
64.2769
72.3183
79.5729
85.6048
90.2953
93.7316
96.0927
97.665
98.5228
98.8735
98.9551
98.7233
98.2692
97.8872
97.5806
97.1255
96.7776
96.5644
96.365
96.28
96.2435
95.9142
94.7731
92.7762
90.1555
87.3805
84.8679
82.5218
80.7298
79.8663
79.8354
80.5458
82.0914
83.732
84.813
86.0799
87.9756
89.6661
90.3009
90.0044
89.1504
87.7738
86.8106
86.9039
87.014
86.0592
84.5152
82.4369
79.6721
76.4187
71.4214
68.3252
63.5068
59.7837
56.5468
53.2642
50.0903
47.1042
44.3684
43.2384
38.7698
37.503
33.7382
41.1871
46.5163
53.1271
65.7736
72.8099
80.1846
84.8727
85.2676
82.9125
68.2774
68.1111
67.5247
67.0262
66.7268
66.6409
66.6518
66.7269
66.7889
66.7939
66.7691
66.6839
66.6005
66.5222
66.4344
66.3834
66.3417
66.3024
66.265
66.2187
66.1674
66.1134
66.0613
66.0018
65.9522
65.9038
65.8517
65.8314
65.802
65.7699
65.7558
65.7213
65.6906
65.6604
65.6184
65.5942
65.5706
65.5413
65.5265
65.5019
65.4793
65.4669
65.4366
65.4277
65.4176
65.3941
65.4106
65.3948
65.4018
65.446
65.4309
65.4987
65.555
65.5648
65.6978
65.7554
65.8444
66.0431
66.145
66.3569
66.6131
66.8064
67.1177
67.421
67.7121
68.0816
68.4508
68.816
69.1988
69.5842
69.9377
70.2808
70.6121
70.8773
71.114
71.3205
71.4673
71.5886
71.6573
71.69
71.7059
71.6721
71.6199
71.5512
71.4419
71.3286
71.1901
71.008
70.8135
70.58
70.3014