/*--------------------------------*- C++ -*----------------------------------*\
| =========                 |                                                 |
| \\      /  F ield         | OpenFOAM: The Open Source CFD Toolbox           |
|  \\    /   O peration     | Version:  2.4.0                                 |
|   \\  /    A nd           | Web:      www.OpenFOAM.org                      |
|    \\/     M anipulation  |                                                 |
\*---------------------------------------------------------------------------*/
FoamFile
{
    version     2.0;
    format      ascii;
    class       volSymmTensorField;
    location    "1.2";
    object      UPrime2Mean;
}
// * * * * * * * * * * * * * * * * * * * * * * * * * * * * * * * * * * * * * //

dimensions      [0 2 -2 0 0 0 0];

internalField   nonuniform List<symmTensor> 
8800
(
(0.00141739 8.12484e-05 0 0.00015996 0 0)
(0.02681 -0.00104437 0 5.93536e-05 0 0)
(0.0525422 -9.20997e-05 0 1.41867e-05 0 0)
(0.0662362 0.000151236 0 5.93802e-06 0 0)
(0.0751068 0.000109243 0 4.5167e-06 0 0)
(0.0840029 6.07448e-05 0 5.22255e-06 0 0)
(0.0882531 2.48101e-05 0 6.11545e-06 0 0)
(0.0931693 -3.56997e-05 0 7.86301e-06 0 0)
(0.0958677 -4.75567e-05 0 8.53325e-06 0 0)
(0.0987764 -9.1927e-05 0 1.04028e-05 0 0)
(0.101096 -9.01665e-05 0 1.0786e-05 0 0)
(0.103183 -0.000141938 0 1.30077e-05 0 0)
(0.105411 -0.00014114 0 1.30614e-05 0 0)
(0.107992 -0.000194546 0 1.52655e-05 0 0)
(0.111008 -0.000263534 0 1.57774e-05 0 0)
(0.1149 -0.000195639 0 1.82323e-05 0 0)
(0.124767 -0.000969913 0 2.65368e-05 0 0)
(0.126135 0.00140848 0 7.91639e-05 0 0)
(0.2016 -0.0141509 0 0.00145574 0 0)
(0.212833 0.0240983 0 0.00474283 0 0)
(0.00810961 0.00229947 0 0.000966097 0 0)
(0.00164772 -0.000953627 0 0.00127396 0 0)
(0.0127606 -0.00166114 0 0.000530233 0 0)
(0.0218571 -0.00181697 0 0.000209559 0 0)
(0.0324313 -0.00165117 0 0.000122369 0 0)
(0.049266 -0.00155244 0 9.90041e-05 0 0)
(0.0618455 -0.00169792 0 0.000104335 0 0)
(0.0758281 -0.00128889 0 7.83771e-05 0 0)
(0.0911753 -0.00163586 0 9.45264e-05 0 0)
(0.0971232 -0.00131387 0 7.97613e-05 0 0)
(0.116429 -0.00170521 0 0.000100467 0 0)
(0.115695 -0.00159769 0 9.82485e-05 0 0)
(0.138321 -0.00207795 0 0.000128681 0 0)
(0.134362 -0.0020775 0 0.000130749 0 0)
(0.161208 -0.00275503 0 0.000184529 0 0)
(0.155133 -0.00354091 0 0.00022431 0 0)
(0.196006 -0.0028647 0 0.000301461 0 0)
(0.188877 -0.00989865 0 0.000956015 0 0)
(0.288482 -0.00504063 0 0.000727331 0 0)
(0.314795 -0.0483424 0 0.0167029 0 0)
(0.0160209 0.00124658 0 0.00059863 0 0)
(0.0129777 0.000351996 0 0.00144076 0 0)
(0.0340105 0.000244675 0 0.000912626 0 0)
(0.036703 -0.000878824 0 0.000508837 0 0)
(0.0516396 -0.00101396 0 0.000402705 0 0)
(0.0600212 -0.00175306 0 0.000389011 0 0)
(0.0784378 -0.00316054 0 0.000420923 0 0)
(0.085034 -0.00235443 0 0.000304979 0 0)
(0.117788 -0.00453536 0 0.000363793 0 0)
(0.111342 -0.00317949 0 0.000252995 0 0)
(0.161587 -0.00547157 0 0.000339059 0 0)
(0.137853 -0.00417302 0 0.000285497 0 0)
(0.206139 -0.00699973 0 0.000450897 0 0)
(0.162661 -0.00519105 0 0.000404208 0 0)
(0.255668 -0.00978906 0 0.000750642 0 0)
(0.182129 -0.0063397 0 0.000673453 0 0)
(0.319898 -0.0137865 0 0.00134195 0 0)
(0.204836 -0.00875044 0 0.00154266 0 0)
(0.421251 -0.0230225 0 0.00396921 0 0)
(0.27204 -0.036519 0 0.0189511 0 0)
(0.0668211 0.000110359 0 0.000415862 0 0)
(0.0737325 -0.000148675 0 0.00108945 0 0)
(0.118053 -0.00064735 0 0.000873897 0 0)
(0.12074 -0.00171757 0 0.000562552 0 0)
(0.153833 -0.00114785 0 0.000533191 0 0)
(0.154357 -0.00225978 0 0.000602681 0 0)
(0.192715 -0.00430218 0 0.000744283 0 0)
(0.182073 -0.0025227 0 0.000600102 0 0)
(0.240823 -0.0078053 0 0.000807468 0 0)
(0.206835 -0.00449808 0 0.000552533 0 0)
(0.295376 -0.0105149 0 0.0007912 0 0)
(0.230692 -0.00700574 0 0.000630609 0 0)
(0.35413 -0.0139221 0 0.00102921 0 0)
(0.252975 -0.00923491 0 0.000865114 0 0)
(0.419653 -0.0193715 0 0.0016589 0 0)
(0.267476 -0.0109048 0 0.00135298 0 0)
(0.498547 -0.0260736 0 0.00265257 0 0)
(0.271898 -0.0127749 0 0.00307159 0 0)
(0.608888 -0.0352566 0 0.005982 0 0)
(0.274582 -0.0260466 0 0.020977 0 0)
(0.259658 -0.00114881 0 0.000417204 0 0)
(0.243429 -0.0011517 0 0.000935562 0 0)
(0.286891 -0.0044977 0 0.0010037 0 0)
(0.261124 -0.00482281 0 0.000769405 0 0)
(0.300987 -0.0047838 0 0.00075271 0 0)
(0.275694 -0.0061994 0 0.00083652 0 0)
(0.324662 -0.00835524 0 0.00113158 0 0)
(0.289312 -0.00567637 0 0.000918775 0 0)
(0.356819 -0.0130123 0 0.00143564 0 0)
(0.303595 -0.00771617 0 0.00101249 0 0)
(0.392207 -0.0166781 0 0.00155967 0 0)
(0.319071 -0.0109759 0 0.00118367 0 0)
(0.427905 -0.0212521 0 0.00199106 0 0)
(0.33582 -0.0139262 0 0.00151449 0 0)
(0.464603 -0.0283836 0 0.00296342 0 0)
(0.349635 -0.0164693 0 0.00214803 0 0)
(0.506598 -0.0370026 0 0.0045272 0 0)
(0.355244 -0.0186834 0 0.00445383 0 0)
(0.564183 -0.0464727 0 0.00917462 0 0)
(0.341712 -0.0207257 0 0.0266294 0 0)
(0.317138 -0.00642996 0 0.00132776 0 0)
(0.257917 -0.00378798 0 0.00186234 0 0)
(0.257716 -0.0101434 0 0.00232389 0 0)
(0.212478 -0.00679408 0 0.00158324 0 0)
(0.229519 -0.00970848 0 0.00202168 0 0)
(0.203346 -0.00865727 0 0.00177977 0 0)
(0.216475 -0.0113038 0 0.00244833 0 0)
(0.197613 -0.00822969 0 0.00184378 0 0)
(0.210949 -0.0140283 0 0.00298651 0 0)
(0.198998 -0.00996723 0 0.00203242 0 0)
(0.20912 -0.0162985 0 0.00336736 0 0)
(0.20633 -0.0128457 0 0.00237825 0 0)
(0.207312 -0.0187749 0 0.00401162 0 0)
(0.21893 -0.015592 0 0.00288945 0 0)
(0.204388 -0.0222144 0 0.0054683 0 0)
(0.236501 -0.018573 0 0.00369411 0 0)
(0.199329 -0.0255778 0 0.00800219 0 0)
(0.258633 -0.0216837 0 0.00628946 0 0)
(0.193516 -0.0264003 0 0.0156073 0 0)
(0.279263 -0.0231758 0 0.0243911 0 0)
(0.135448 -0.00852638 0 0.00279814 0 0)
(0.114055 -0.00836192 0 0.00394129 0 0)
(0.103883 -0.00872259 0 0.00379178 0 0)
(0.0982772 -0.00917244 0 0.00325628 0 0)
(0.09827 -0.00855336 0 0.00385875 0 0)
(0.101726 -0.00933256 0 0.00362541 0 0)
(0.0960674 -0.00843431 0 0.00405337 0 0)
(0.105154 -0.00915954 0 0.00371067 0 0)
(0.0959128 -0.00858601 0 0.00452176 0 0)
(0.113273 -0.00986776 0 0.00399664 0 0)
(0.0954805 -0.00886372 0 0.00503712 0 0)
(0.123519 -0.0109393 0 0.00452826 0 0)
(0.098207 -0.00865473 0 0.00583446 0 0)
(0.135122 -0.0120185 0 0.00531848 0 0)
(0.102478 -0.00718934 0 0.00744299 0 0)
(0.14979 -0.0131816 0 0.00658352 0 0)
(0.106442 -0.00353757 0 0.0103441 0 0)
(0.170317 -0.0137391 0 0.0104925 0 0)
(0.111521 0.00624579 0 0.0185869 0 0)
(0.195818 -0.0112798 0 0.0323673 0 0)
(0.138691 -0.00848945 0 0.00366935 0 0)
(0.163301 -0.0141106 0 0.00717714 0 0)
(0.132448 -0.0069432 0 0.00538207 0 0)
(0.165118 -0.0111168 0 0.00489175 0 0)
(0.155475 -0.00797993 0 0.00543485 0 0)
(0.167711 -0.00922561 0 0.00562466 0 0)
(0.169953 -0.00616736 0 0.00523584 0 0)
(0.175091 -0.00898234 0 0.0057278 0 0)
(0.179991 -0.00461932 0 0.00576253 0 0)
(0.18424 -0.00833156 0 0.00606548 0 0)
(0.191853 -0.00327256 0 0.00631524 0 0)
(0.191397 -0.00731039 0 0.00672982 0 0)
(0.20954 -0.00079588 0 0.00707908 0 0)
(0.200388 -0.00662509 0 0.00780198 0 0)
(0.225104 0.00378723 0 0.00856126 0 0)
(0.21277 -0.00520163 0 0.00929102 0 0)
(0.243158 0.0109379 0 0.0110976 0 0)
(0.228607 -0.00192311 0 0.0141316 0 0)
(0.263176 0.0252266 0 0.0186879 0 0)
(0.247986 0.00716642 0 0.035516 0 0)
(0.251046 -0.00465635 0 0.00367322 0 0)
(0.271664 -0.0098161 0 0.00939689 0 0)
(0.241862 -0.00200556 0 0.0059325 0 0)
(0.244037 -0.00525113 0 0.00565295 0 0)
(0.268442 -0.00268889 0 0.00588226 0 0)
(0.232959 -0.0031535 0 0.0062908 0 0)
(0.295801 -0.000324502 0 0.00540073 0 0)
(0.229718 -0.00230187 0 0.00645393 0 0)
(0.310492 0.00277733 0 0.0057967 0 0)
(0.232076 -0.00129516 0 0.00692992 0 0)
(0.323303 0.00537463 0 0.00630596 0 0)
(0.238288 0.000966152 0 0.00742731 0 0)
(0.336474 0.00904948 0 0.0070591 0 0)
(0.248044 0.00295385 0 0.00846403 0 0)
(0.350204 0.0143629 0 0.00799273 0 0)
(0.260915 0.00645507 0 0.00975606 0 0)
(0.362676 0.022251 0 0.00962226 0 0)
(0.277772 0.0129095 0 0.0138045 0 0)
(0.375839 0.0368329 0 0.0155102 0 0)
(0.306166 0.0269499 0 0.0282303 0 0)
(0.277502 0.000126756 0 0.00303454 0 0)
(0.291159 0.000352003 0 0.00824107 0 0)
(0.273823 0.00219766 0 0.0050269 0 0)
(0.247626 0.00264347 0 0.00519921 0 0)
(0.289389 0.00303977 0 0.00492674 0 0)
(0.235629 0.00343628 0 0.00568373 0 0)
(0.299403 0.00490921 0 0.00460526 0 0)
(0.233081 0.00496981 0 0.0058736 0 0)
(0.298564 0.00790341 0 0.00480777 0 0)
(0.236613 0.00606234 0 0.00627326 0 0)
(0.301088 0.00987688 0 0.00529777 0 0)
(0.24685 0.00848532 0 0.00655174 0 0)
(0.305471 0.0129679 0 0.00571499 0 0)
(0.260809 0.0108817 0 0.00728372 0 0)
(0.307915 0.0173352 0 0.00615816 0 0)
(0.279482 0.0149944 0 0.00820717 0 0)
(0.31017 0.0234606 0 0.0071068 0 0)
(0.305041 0.023103 0 0.0109554 0 0)
(0.310621 0.0347138 0 0.0112851 0 0)
(0.353585 0.0383974 0 0.02138 0 0)
(0.176315 0.00238022 0 0.00247727 0 0)
(0.187372 0.00503561 0 0.00611959 0 0)
(0.162852 0.00451759 0 0.00401384 0 0)
(0.171042 0.00672975 0 0.00381471 0 0)
(0.169076 0.00572119 0 0.00410092 0 0)
(0.16719 0.00692869 0 0.00458872 0 0)
(0.17239 0.00662771 0 0.00391027 0 0)
(0.172526 0.00896227 0 0.00468859 0 0)
(0.168537 0.00861236 0 0.00396574 0 0)
(0.181136 0.0106726 0 0.0049172 0 0)
(0.168438 0.00994455 0 0.00427885 0 0)
(0.195012 0.0126412 0 0.00506158 0 0)
(0.170873 0.0121348 0 0.00445577 0 0)
(0.210416 0.0152732 0 0.00542658 0 0)
(0.172389 0.0147378 0 0.00464779 0 0)
(0.230258 0.0192269 0 0.00591226 0 0)
(0.175209 0.0180428 0 0.00518335 0 0)
(0.260339 0.0264285 0 0.00742763 0 0)
(0.176763 0.0248496 0 0.00787597 0 0)
(0.316865 0.0393029 0 0.0140842 0 0)
(0.070386 0.00228168 0 0.00212451 0 0)
(0.0746046 0.00453133 0 0.00473301 0 0)
(0.0604772 0.00364818 0 0.00332332 0 0)
(0.0785573 0.00597542 0 0.00311017 0 0)
(0.0631184 0.00432221 0 0.00339868 0 0)
(0.0824646 0.0060913 0 0.00368167 0 0)
(0.0664793 0.00421902 0 0.00331858 0 0)
(0.0899165 0.00763355 0 0.0038172 0 0)
(0.0663369 0.00501813 0 0.00324241 0 0)
(0.0996269 0.00901112 0 0.00381575 0 0)
(0.0661801 0.00548715 0 0.00338285 0 0)
(0.111805 0.0100185 0 0.00378426 0 0)
(0.0686497 0.00620004 0 0.00341429 0 0)
(0.125249 0.0114097 0 0.0038398 0 0)
(0.0706676 0.00670307 0 0.00337836 0 0)
(0.141958 0.0133894 0 0.00391266 0 0)
(0.0723601 0.00777372 0 0.00354573 0 0)
(0.166501 0.0171726 0 0.0045116 0 0)
(0.0762553 0.0120112 0 0.00505288 0 0)
(0.209677 0.0238363 0 0.00864059 0 0)
(0.0212438 0.000662937 0 0.00171145 0 0)
(0.0197216 0.00144696 0 0.00359245 0 0)
(0.0157521 0.000918014 0 0.00279517 0 0)
(0.0250201 0.00264255 0 0.00244495 0 0)
(0.0186847 0.00132394 0 0.00264608 0 0)
(0.0294328 0.00260762 0 0.00267301 0 0)
(0.0210521 0.000928265 0 0.00263568 0 0)
(0.0354791 0.00308746 0 0.00284742 0 0)
(0.0213209 0.00107619 0 0.00249762 0 0)
(0.0417132 0.00363344 0 0.00273781 0 0)
(0.0222545 0.00111844 0 0.00253102 0 0)
(0.0482531 0.00369558 0 0.00265622 0 0)
(0.0249481 0.00118468 0 0.00254285 0 0)
(0.0554087 0.00387954 0 0.00249654 0 0)
(0.0280861 0.00137747 0 0.00229727 0 0)
(0.0635609 0.00449298 0 0.00235504 0 0)
(0.032754 0.00236297 0 0.00229036 0 0)
(0.0754088 0.00664993 0 0.00261034 0 0)
(0.0429219 0.00652175 0 0.00330411 0 0)
(0.0982732 0.0122446 0 0.00565912 0 0)
(0.00835069 -0.000537621 0 0.00133348 0 0)
(0.00358642 -0.00104649 0 0.00288572 0 0)
(0.00423639 -0.00133285 0 0.00245311 0 0)
(0.00661707 -0.000202009 0 0.00180974 0 0)
(0.00665544 -0.000419645 0 0.0019829 0 0)
(0.00981437 -0.000502492 0 0.0019632 0 0)
(0.0101739 -0.000854657 0 0.00206691 0 0)
(0.0133681 -0.000589985 0 0.00210375 0 0)
(0.0124115 -0.000884322 0 0.0018786 0 0)
(0.0166407 -0.000246938 0 0.00193038 0 0)
(0.0149643 -0.000784988 0 0.00184645 0 0)
(0.020229 -0.000263408 0 0.00181309 0 0)
(0.0185229 -0.000731498 0 0.00179206 0 0)
(0.0246392 -0.000313099 0 0.00165127 0 0)
(0.0229089 -0.000409643 0 0.00150333 0 0)
(0.0300289 0.000265093 0 0.00140118 0 0)
(0.0291762 0.000684102 0 0.00136673 0 0)
(0.0390501 0.00222752 0 0.00154326 0 0)
(0.0416524 0.0044759 0 0.00202838 0 0)
(0.0581035 0.00878566 0 0.00381671 0 0)
(0.00873063 -0.000665422 0 0.000977587 0 0)
(0.00264043 -0.0011695 0 0.00229289 0 0)
(0.00371789 -0.00154177 0 0.0020304 0 0)
(0.00475651 -0.000983382 0 0.00139638 0 0)
(0.00713761 -0.000697719 0 0.00150791 0 0)
(0.0076124 -0.000960455 0 0.00149893 0 0)
(0.0102882 -0.00112833 0 0.0016609 0 0)
(0.0105998 -0.00144208 0 0.00171142 0 0)
(0.0133629 -0.00128469 0 0.00155755 0 0)
(0.0134775 -0.00102521 0 0.00149272 0 0)
(0.0162837 -0.000948937 0 0.00138202 0 0)
(0.0163951 -0.000880973 0 0.0013264 0 0)
(0.0195801 -0.000852699 0 0.00128795 0 0)
(0.0200189 -0.00100827 0 0.0011672 0 0)
(0.0233357 -0.000616185 0 0.001022 0 0)
(0.024268 -0.000535798 0 0.000906768 0 0)
(0.0284526 0.000374932 0 0.000832309 0 0)
(0.0315815 0.00104457 0 0.000891514 0 0)
(0.0389926 0.00341521 0 0.00122598 0 0)
(0.0482705 0.00633672 0 0.00226859 0 0)
(0.0101023 -0.000597902 0 0.000597244 0 0)
(0.00389966 -0.000310241 0 0.0015809 0 0)
(0.00418985 -0.000877848 0 0.00145345 0 0)
(0.00551297 -0.000671968 0 0.000987824 0 0)
(0.00877571 -0.000584409 0 0.00115057 0 0)
(0.00860386 -0.000609788 0 0.00109449 0 0)
(0.0116782 -0.0008473 0 0.00118488 0 0)
(0.0105569 -0.000864735 0 0.00124001 0 0)
(0.0131807 -0.000939016 0 0.00115763 0 0)
(0.0114089 -0.000519745 0 0.00107051 0 0)
(0.0139289 -0.000574251 0 0.000948729 0 0)
(0.0116486 -0.000309829 0 0.000874584 0 0)
(0.0140787 -0.000377799 0 0.000797934 0 0)
(0.0115083 -0.00033467 0 0.000744964 0 0)
(0.0137795 -0.000219376 0 0.000622873 0 0)
(0.011616 -0.000138161 0 0.000577108 0 0)
(0.0142737 0.000416702 0 0.000475618 0 0)
(0.0137909 0.000747644 0 0.000530429 0 0)
(0.0187167 0.0022514 0 0.000717118 0 0)
(0.0234797 0.00365261 0 0.00128111 0 0)
(0.00915532 -0.000910141 0 0.000429457 0 0)
(0.00339113 -0.000198252 0 0.00127784 0 0)
(0.00399382 -0.00055457 0 0.00105529 0 0)
(0.0058226 -0.000520677 0 0.000651697 0 0)
(0.0081568 -0.000471741 0 0.000742442 0 0)
(0.00700371 -0.000341142 0 0.000743999 0 0)
(0.00779258 -0.000303609 0 0.000769904 0 0)
(0.00584004 0.000105158 0 0.000751735 0 0)
(0.00564622 0.000144846 0 0.000664354 0 0)
(0.00445119 0.000593278 0 0.00057039 0 0)
(0.00401682 0.000481053 0 0.0004895 0 0)
(0.00401144 0.000797676 0 0.000444704 0 0)
(0.00332831 0.000606186 0 0.000391895 0 0)
(0.00456631 0.000844242 0 0.000370747 0 0)
(0.00370408 0.000532555 0 0.000301636 0 0)
(0.00602608 0.000807829 0 0.00029929 0 0)
(0.00542203 0.000445714 0 0.000254525 0 0)
(0.00840039 0.000918327 0 0.000286403 0 0)
(0.00933003 0.000849299 0 0.000469604 0 0)
(0.0135334 0.00185527 0 0.000649364 0 0)
(0.00804852 -0.0016479 0 0.00057856 0 0)
(0.00180959 -0.000602273 0 0.00145761 0 0)
(0.00195353 -0.000197114 0 0.000929969 0 0)
(0.00255937 5.76478e-05 0 0.00051369 0 0)
(0.00272805 0.000479694 0 0.000451293 0 0)
(0.00305625 0.000906792 0 0.000410123 0 0)
(0.00500122 0.00113716 0 0.000378661 0 0)
(0.00910264 0.00137814 0 0.000331706 0 0)
(0.0117015 0.00127112 0 0.000269785 0 0)
(0.0182576 0.00133328 0 0.000217526 0 0)
(0.0196109 0.00111481 0 0.000181134 0 0)
(0.0277359 0.00118067 0 0.000164932 0 0)
(0.0271087 0.00093015 0 0.000151159 0 0)
(0.0365068 0.00104804 0 0.000142741 0 0)
(0.0340863 0.00059846 0 0.000121807 0 0)
(0.0436106 0.000836185 0 0.00012185 0 0)
(0.0401284 -1.21139e-05 0 0.000114117 0 0)
(0.0471328 0.000635206 0 0.000136591 0 0)
(0.0444524 -0.000606709 0 0.000222808 0 0)
(0.0460907 0.00119005 0 0.000425891 0 0)
(0.00746603 -0.0023839 0 0.00095597 0 0)
(0.00103559 0.00088168 0 0.00126683 0 0)
(0.00683685 0.00177569 0 0.000527585 0 0)
(0.0136478 0.0015561 0 0.000207186 0 0)
(0.0216008 0.00146525 0 0.000128288 0 0)
(0.0320443 0.00132391 0 9.91932e-05 0 0)
(0.0415239 0.00109398 0 8.59682e-05 0 0)
(0.0522044 0.000919083 0 7.36493e-05 0 0)
(0.0585062 0.000717682 0 6.37744e-05 0 0)
(0.0678424 0.000640064 0 5.67109e-05 0 0)
(0.0707685 0.000510495 0 5.31284e-05 0 0)
(0.0796201 0.000520604 0 5.09464e-05 0 0)
(0.0798432 0.000392835 0 4.98461e-05 0 0)
(0.0888843 0.000443587 0 4.5673e-05 0 0)
(0.0868102 0.000194088 0 4.15795e-05 0 0)
(0.0952001 0.000267388 0 3.86859e-05 0 0)
(0.0910143 -0.000264165 0 3.98628e-05 0 0)
(0.0953214 8.41556e-05 0 4.39484e-05 0 0)
(0.091829 -0.00099283 0 7.71096e-05 0 0)
(0.0852123 0.000470192 0 0.000244434 0 0)
(0.00139827 -8.43855e-05 0 0.00015943 0 0)
(0.0268222 0.00104515 0 5.83183e-05 0 0)
(0.0523884 9.42699e-05 0 1.37792e-05 0 0)
(0.0652401 -0.00016339 0 5.49309e-06 0 0)
(0.0747381 -0.000125051 0 3.86934e-06 0 0)
(0.0821155 -9.65078e-05 0 4.07713e-06 0 0)
(0.0867442 -6.75848e-05 0 4.7515e-06 0 0)
(0.0907987 -3.39174e-05 0 4.92499e-06 0 0)
(0.0929911 -2.35584e-05 0 5.37327e-06 0 0)
(0.0958788 -5.6262e-06 0 5.33569e-06 0 0)
(0.0968105 -1.21606e-05 0 5.50604e-06 0 0)
(0.0992286 3.39475e-06 0 5.18553e-06 0 0)
(0.0993638 -1.52774e-05 0 5.00109e-06 0 0)
(0.101617 -1.80174e-07 0 4.3376e-06 0 0)
(0.100883 -4.46001e-05 0 4.00525e-06 0 0)
(0.102482 -3.82768e-05 0 3.36898e-06 0 0)
(0.100216 -0.00012352 0 3.27304e-06 0 0)
(0.0995891 -0.000102163 0 3.25293e-06 0 0)
(0.0966768 -0.000361508 0 5.19271e-06 0 0)
(0.0874248 0.000479913 0 3.3476e-05 0 0)
(0.403236 -0.198952 0 0.123511 0 0)
(0.447715 -0.236258 0 0.174228 0 0)
(0.453059 -0.225968 0 0.208014 0 0)
(0.476973 -0.198376 0 0.231692 0 0)
(0.48247 -0.166166 0 0.24535 0 0)
(0.561682 -0.146057 0 0.254974 0 0)
(0.603912 -0.139411 0 0.264303 0 0)
(0.737301 -0.154744 0 0.278144 0 0)
(0.803105 -0.17542 0 0.294399 0 0)
(0.943707 -0.204513 0 0.311089 0 0)
(0.98766 -0.22421 0 0.329007 0 0)
(1.11649 -0.25053 0 0.351498 0 0)
(1.1424 -0.261477 0 0.374973 0 0)
(1.27245 -0.285778 0 0.396254 0 0)
(1.2996 -0.299104 0 0.410251 0 0)
(1.44052 -0.333473 0 0.421519 0 0)
(1.46297 -0.360757 0 0.436017 0 0)
(1.61757 -0.41102 0 0.458462 0 0)
(1.63134 -0.443038 0 0.48997 0 0)
(1.8236 -0.496691 0 0.530018 0 0)
(1.86381 -0.524369 0 0.563526 0 0)
(2.10417 -0.58663 0 0.599474 0 0)
(2.14998 -0.624796 0 0.633973 0 0)
(2.411 -0.698584 0 0.672488 0 0)
(2.45023 -0.737303 0 0.708834 0 0)
(2.7232 -0.815359 0 0.751432 0 0)
(2.76154 -0.848923 0 0.790955 0 0)
(3.04957 -0.94004 0 0.834716 0 0)
(3.09771 -0.97795 0 0.876339 0 0)
(3.40362 -1.08663 0 0.927814 0 0)
(3.46485 -1.13061 0 0.979388 0 0)
(3.80343 -1.25431 0 1.03804 0 0)
(3.87508 -1.30158 0 1.09363 0 0)
(4.26146 -1.44572 0 1.15599 0 0)
(4.32772 -1.49908 0 1.214 0 0)
(4.74933 -1.66351 0 1.27939 0 0)
(4.77456 -1.71236 0 1.3349 0 0)
(5.20294 -1.88199 0 1.3973 0 0)
(5.16657 -1.91426 0 1.44942 0 0)
(5.58221 -2.08045 0 1.51008 0 0)
(5.48461 -2.08136 0 1.56061 0 0)
(5.86618 -2.23211 0 1.62002 0 0)
(5.71572 -2.20305 0 1.66675 0 0)
(6.08498 -2.34243 0 1.72662 0 0)
(5.90198 -2.2979 0 1.77204 0 0)
(6.29739 -2.43841 0 1.83444 0 0)
(6.09675 -2.38628 0 1.88102 0 0)
(6.54752 -2.53901 0 1.95136 0 0)
(6.33635 -2.48727 0 2.00194 0 0)
(6.85032 -2.65362 0 2.08641 0 0)
(6.61411 -2.60894 0 2.14652 0 0)
(7.1837 -2.78244 0 2.25005 0 0)
(6.87051 -2.72739 0 2.32423 0 0)
(7.47427 -2.89629 0 2.43776 0 0)
(7.03624 -2.79345 0 2.50608 0 0)
(7.64944 -2.94985 0 2.61217 0 0)
(7.08314 -2.78469 0 2.65396 0 0)
(7.71055 -2.93479 0 2.73633 0 0)
(7.04157 -2.73133 0 2.75605 0 0)
(7.73069 -2.89944 0 2.82436 0 0)
(6.97163 -2.69276 0 2.84638 0 0)
(7.74861 -2.89407 0 2.92364 0 0)
(6.87512 -2.68139 0 2.96093 0 0)
(7.70209 -2.89906 0 3.05721 0 0)
(6.69936 -2.64464 0 3.08935 0 0)
(7.53704 -2.82427 0 3.17256 0 0)
(6.45057 -2.51391 0 3.15189 0 0)
(7.35 -2.61693 0 3.17152 0 0)
(6.22251 -2.30919 0 3.11948 0 0)
(7.29484 -2.411 0 3.14564 0 0)
(6.10738 -2.13213 0 3.13029 0 0)
(7.39537 -2.27136 0 3.16466 0 0)
(6.10163 -1.97784 0 3.1451 0 0)
(7.6288 -2.20027 0 3.18675 0 0)
(6.19395 -1.87854 0 3.20118 0 0)
(7.9151 -2.19629 0 3.29318 0 0)
(6.38169 -1.83059 0 3.34483 0 0)
(8.17974 -2.22481 0 3.4933 0 0)
(6.58319 -1.82806 0 3.56022 0 0)
(8.40329 -2.24345 0 3.74521 0 0)
(6.68215 -1.82945 0 3.79955 0 0)
(8.57724 -2.25101 0 3.9652 0 0)
(6.68495 -1.82479 0 3.9869 0 0)
(8.70677 -2.27097 0 4.1284 0 0)
(6.67112 -1.81238 0 4.11489 0 0)
(8.72617 -2.26602 0 4.25078 0 0)
(6.72212 -1.78896 0 4.23569 0 0)
(8.72336 -2.23379 0 4.41671 0 0)
(6.84939 -1.7824 0 4.435 0 0)
(8.83168 -2.20076 0 4.64816 0 0)
(7.05509 -1.80963 0 4.67932 0 0)
(9.05843 -2.24877 0 4.8796 0 0)
(7.38412 -1.90286 0 4.91656 0 0)
(9.41229 -2.36757 0 5.1324 0 0)
(7.78868 -2.03227 0 5.18657 0 0)
(9.76073 -2.52717 0 5.44439 0 0)
(8.19458 -2.18406 0 5.53274 0 0)
(10.024 -2.67409 0 5.84899 0 0)
(8.48317 -2.31766 0 5.98373 0 0)
(10.0413 -2.76298 0 6.35441 0 0)
(8.54383 -2.37484 0 6.52854 0 0)
(9.9179 -2.79159 0 6.92184 0 0)
(8.40309 -2.38598 0 7.12643 0 0)
(9.73799 -2.80347 0 7.54823 0 0)
(8.17774 -2.38606 0 7.64469 0 0)
(9.55451 -2.8137 0 8.00914 0 0)
(7.95189 -2.30867 0 8.01346 0 0)
(9.42155 -2.73444 0 8.27193 0 0)
(7.78825 -2.15535 0 8.21361 0 0)
(9.29632 -2.62888 0 8.49346 0 0)
(7.67418 -2.02204 0 8.38668 0 0)
(9.12289 -2.49807 0 8.61177 0 0)
(7.65244 -1.87349 0 8.45449 0 0)
(8.95658 -2.32034 0 8.68391 0 0)
(7.68463 -1.67907 0 8.55855 0 0)
(8.74895 -2.08591 0 8.80564 0 0)
(7.67457 -1.50207 0 8.76624 0 0)
(8.52274 -1.87436 0 9.06976 0 0)
(7.68793 -1.37111 0 9.10599 0 0)
(8.39761 -1.70681 0 9.44711 0 0)
(7.7652 -1.28352 0 9.56075 0 0)
(8.30599 -1.56638 0 9.89143 0 0)
(7.75967 -1.14596 0 10.0376 0 0)
(8.16096 -1.41087 0 10.3199 0 0)
(7.66958 -1.02253 0 10.4254 0 0)
(7.99542 -1.27431 0 10.653 0 0)
(7.47979 -0.894294 0 10.7471 0 0)
(7.82038 -1.14289 0 10.9466 0 0)
(7.3689 -0.805729 0 11.0108 0 0)
(7.70331 -1.05287 0 11.1348 0 0)
(7.43155 -0.818371 0 11.2559 0 0)
(7.70103 -1.01039 0 11.3833 0 0)
(7.59682 -0.879794 0 11.5294 0 0)
(7.73608 -0.963245 0 11.6247 0 0)
(7.71512 -0.93597 0 11.7861 0 0)
(7.7628 -0.897524 0 11.8732 0 0)
(7.83391 -0.913657 0 12.0278 0 0)
(7.84015 -0.787942 0 12.1591 0 0)
(7.91462 -0.830076 0 12.3731 0 0)
(7.88035 -0.655618 0 12.5317 0 0)
(7.90278 -0.724712 0 12.7826 0 0)
(7.79149 -0.489509 0 12.8961 0 0)
(7.86247 -0.574772 0 13.1611 0 0)
(7.6454 -0.318262 0 13.3233 0 0)
(7.66901 -0.352682 0 13.6627 0 0)
(7.41336 -0.120422 0 13.7432 0 0)
(7.45982 -0.0946905 0 13.9245 0 0)
(7.23854 0.0258399 0 13.9787 0 0)
(7.30097 0.146147 0 14.1796 0 0)
(7.07839 0.138344 0 14.2089 0 0)
(7.1354 0.315798 0 14.3234 0 0)
(6.91998 0.226608 0 14.2875 0 0)
(6.97049 0.467006 0 14.3788 0 0)
(6.81079 0.344983 0 14.3202 0 0)
(6.83896 0.574529 0 14.3935 0 0)
(6.73731 0.4164 0 14.3038 0 0)
(6.75876 0.633658 0 14.3917 0 0)
(6.74894 0.496605 0 14.3142 0 0)
(6.7278 0.637512 0 14.3752 0 0)
(6.67787 0.485738 0 14.3267 0 0)
(6.62607 0.59862 0 14.4541 0 0)
(6.58318 0.390762 0 14.4722 0 0)
(6.49437 0.496256 0 14.5167 0 0)
(6.51581 0.236962 0 14.5135 0 0)
(6.46567 0.353397 0 14.4364 0 0)
(6.50812 0.0328437 0 14.4009 0 0)
(6.46993 0.181422 0 14.3339 0 0)
(6.48831 -0.246716 0 14.2564 0 0)
(6.42197 -0.015973 0 14.1451 0 0)
(6.48976 -0.470211 0 13.8983 0 0)
(6.29903 -0.355653 0 13.7298 0 0)
(6.49061 -0.725906 0 13.5005 0 0)
(6.0958 -0.631197 0 13.0424 0 0)
(6.53636 -1.06318 0 12.7019 0 0)
(6.007 -0.744039 0 12.2119 0 0)
(6.56179 -1.2108 0 11.8915 0 0)
(6.07344 -0.775139 0 11.4381 0 0)
(6.60101 -1.26287 0 11.0614 0 0)
(6.19993 -0.810014 0 10.8457 0 0)
(6.59822 -1.15223 0 10.3522 0 0)
(6.35386 -0.878625 0 10.3662 0 0)
(6.43902 -1.02584 0 9.60659 0 0)
(6.30524 -1.00059 0 9.9505 0 0)
(6.25111 -0.844321 0 8.891 0 0)
(6.16083 -1.11269 0 9.53524 0 0)
(6.0454 -0.531751 0 8.22556 0 0)
(5.96887 -1.16791 0 9.24222 0 0)
(5.74443 -0.196351 0 7.74722 0 0)
(5.63639 -1.08767 0 9.20969 0 0)
(5.36426 0.218325 0 7.58218 0 0)
(5.15783 -0.900147 0 9.51459 0 0)
(4.91129 0.694567 0 7.72932 0 0)
(4.59232 -0.68808 0 10.2274 0 0)
(4.21677 1.21946 0 8.31855 0 0)
(4.11666 -0.265408 0 11.6991 0 0)
(3.5872 2.17596 0 9.99369 0 0)
(3.69991 0.197687 0 14.0724 0 0)
(2.85011 3.43679 0 13.0431 0 0)
(3.48576 2.32024 0 19.7331 0 0)
(1.1058 0.672698 0 22.1147 0 0)
(0.362966 -0.164298 0 0.139644 0 0)
(0.336843 -0.17465 0 0.181975 0 0)
(0.346503 -0.158348 0 0.19228 0 0)
(0.317154 -0.143947 0 0.197334 0 0)
(0.33245 -0.126058 0 0.196551 0 0)
(0.336917 -0.125074 0 0.195266 0 0)
(0.373099 -0.130796 0 0.199494 0 0)
(0.404742 -0.151829 0 0.211088 0 0)
(0.454862 -0.167356 0 0.224489 0 0)
(0.488013 -0.190516 0 0.238462 0 0)
(0.530752 -0.202011 0 0.253314 0 0)
(0.558766 -0.225024 0 0.272387 0 0)
(0.5987 -0.233885 0 0.291639 0 0)
(0.639313 -0.258729 0 0.311393 0 0)
(0.688517 -0.268877 0 0.328273 0 0)
(0.756776 -0.303382 0 0.346444 0 0)
(0.819974 -0.324999 0 0.366192 0 0)
(0.919895 -0.37815 0 0.391504 0 0)
(0.987618 -0.407592 0 0.418253 0 0)
(1.106 -0.468543 0 0.450955 0 0)
(1.16711 -0.494482 0 0.482114 0 0)
(1.30556 -0.558441 0 0.517474 0 0)
(1.36351 -0.582309 0 0.550903 0 0)
(1.52685 -0.654529 0 0.589803 0 0)
(1.58023 -0.675759 0 0.626448 0 0)
(1.77209 -0.756876 0 0.671504 0 0)
(1.82897 -0.776036 0 0.713935 0 0)
(2.0574 -0.870358 0 0.764356 0 0)
(2.12622 -0.895697 0 0.810353 0 0)
(2.38886 -1.00938 0 0.866253 0 0)
(2.46217 -1.04318 0 0.916747 0 0)
(2.7486 -1.17424 0 0.977007 0 0)
(2.80799 -1.20907 0 1.02966 0 0)
(3.10741 -1.35171 0 1.09232 0 0)
(3.13342 -1.38023 0 1.14532 0 0)
(3.43725 -1.52879 0 1.20825 0 0)
(3.40686 -1.54049 0 1.26007 0 0)
(3.70704 -1.6865 0 1.31919 0 0)
(3.60925 -1.67482 0 1.36724 0 0)
(3.91144 -1.81785 0 1.42313 0 0)
(3.75754 -1.78163 0 1.46626 0 0)
(4.07581 -1.92178 0 1.52092 0 0)
(3.88575 -1.86629 0 1.56113 0 0)
(4.2413 -2.01223 0 1.62102 0 0)
(4.03527 -1.94699 0 1.66229 0 0)
(4.43785 -2.10842 0 1.73492 0 0)
(4.22512 -2.04026 0 1.78105 0 0)
(4.67202 -2.21839 0 1.86687 0 0)
(4.44194 -2.14486 0 1.91746 0 0)
(4.92547 -2.3328 0 2.01205 0 0)
(4.64333 -2.24083 0 2.06596 0 0)
(5.16233 -2.43308 0 2.16373 0 0)
(4.78538 -2.29905 0 2.21822 0 0)
(5.33804 -2.49277 0 2.31253 0 0)
(4.84696 -2.29693 0 2.35938 0 0)
(5.43398 -2.49582 0 2.44384 0 0)
(4.85147 -2.24366 0 2.47776 0 0)
(5.48463 -2.46088 0 2.55739 0 0)
(4.85365 -2.18481 0 2.5838 0 0)
(5.53952 -2.42989 0 2.67999 0 0)
(4.88717 -2.16943 0 2.71006 0 0)
(5.61732 -2.42071 0 2.81809 0 0)
(4.92694 -2.17963 0 2.84335 0 0)
(5.68334 -2.38899 0 2.93859 0 0)
(4.90874 -2.13997 0 2.94224 0 0)
(5.6918 -2.28063 0 2.99194 0 0)
(4.81132 -2 0 2.95653 0 0)
(5.6902 -2.11887 0 2.98192 0 0)
(4.73403 -1.83819 0 2.95506 0 0)
(5.76636 -1.99898 0 3.01098 0 0)
(4.74269 -1.71135 0 2.99547 0 0)
(5.95736 -1.92309 0 3.0693 0 0)
(4.85446 -1.61103 0 3.05453 0 0)
(6.23469 -1.90465 0 3.14025 0 0)
(5.05802 -1.55893 0 3.15175 0 0)
(6.53782 -1.94136 0 3.27948 0 0)
(5.31291 -1.55108 0 3.32723 0 0)
(6.80073 -1.97422 0 3.49695 0 0)
(5.52701 -1.53202 0 3.54932 0 0)
(6.98625 -1.96217 0 3.73734 0 0)
(5.63778 -1.50352 0 3.77548 0 0)
(7.13958 -1.95807 0 3.94621 0 0)
(5.74577 -1.50793 0 3.96266 0 0)
(7.26965 -1.97777 0 4.1031 0 0)
(5.9067 -1.55369 0 4.0766 0 0)
(7.39378 -1.98742 0 4.23036 0 0)
(6.11484 -1.61706 0 4.22193 0 0)
(7.56051 -1.99747 0 4.40923 0 0)
(6.39025 -1.67193 0 4.43495 0 0)
(7.8249 -2.02197 0 4.64791 0 0)
(6.70253 -1.75022 0 4.68155 0 0)
(8.17203 -2.12664 0 4.88139 0 0)
(7.05229 -1.85547 0 4.93507 0 0)
(8.56712 -2.25931 0 5.16235 0 0)
(7.42523 -1.97572 0 5.22731 0 0)
(8.93432 -2.42245 0 5.48488 0 0)
(7.80473 -2.1082 0 5.58473 0 0)
(9.22971 -2.56042 0 5.89776 0 0)
(8.09332 -2.21232 0 6.0263 0 0)
(9.33142 -2.62793 0 6.39254 0 0)
(8.19839 -2.23429 0 6.54302 0 0)
(9.23578 -2.63409 0 6.95678 0 0)
(8.05362 -2.18833 0 7.12357 0 0)
(9.03948 -2.58881 0 7.52883 0 0)
(7.73491 -2.12227 0 7.57711 0 0)
(8.80716 -2.52901 0 7.92771 0 0)
(7.3892 -1.97009 0 7.91288 0 0)
(8.61464 -2.39884 0 8.2082 0 0)
(7.14934 -1.78003 0 8.14265 0 0)
(8.50053 -2.22724 0 8.41327 0 0)
(7.03399 -1.58745 0 8.29792 0 0)
(8.43501 -2.01477 0 8.52455 0 0)
(7.06819 -1.39797 0 8.38276 0 0)
(8.42313 -1.78271 0 8.62503 0 0)
(7.15858 -1.24243 0 8.53689 0 0)
(8.39337 -1.63205 0 8.78339 0 0)
(7.32623 -1.15557 0 8.77904 0 0)
(8.40383 -1.51989 0 9.06818 0 0)
(7.53477 -1.08324 0 9.15872 0 0)
(8.47704 -1.42556 0 9.48741 0 0)
(7.66631 -1.01921 0 9.63368 0 0)
(8.50475 -1.31555 0 9.95961 0 0)
(7.63399 -0.883826 0 10.1188 0 0)
(8.41333 -1.17493 0 10.425 0 0)
(7.49954 -0.698358 0 10.5532 0 0)
(8.27171 -1.03617 0 10.7867 0 0)
(7.38858 -0.560387 0 10.8756 0 0)
(8.14019 -0.945546 0 11.0619 0 0)
(7.38389 -0.575872 0 11.1719 0 0)
(8.08946 -0.926451 0 11.2969 0 0)
(7.49864 -0.724137 0 11.434 0 0)
(8.12243 -0.91392 0 11.5416 0 0)
(7.69567 -0.839524 0 11.687 0 0)
(8.17343 -0.8666 0 11.7935 0 0)
(7.8688 -0.909375 0 11.963 0 0)
(8.33345 -0.824905 0 12.0082 0 0)
(8.08621 -0.9255 0 12.1738 0 0)
(8.50594 -0.754123 0 12.2701 0 0)
(8.23114 -0.881072 0 12.5351 0 0)
(8.57795 -0.628601 0 12.6575 0 0)
(8.23258 -0.743017 0 12.9769 0 0)
(8.51392 -0.469058 0 13.0415 0 0)
(8.12959 -0.588387 0 13.3533 0 0)
(8.33498 -0.264311 0 13.4899 0 0)
(7.85042 -0.346559 0 13.8685 0 0)
(8.11543 -0.0225552 0 13.9118 0 0)
(7.572 -0.127408 0 14.166 0 0)
(7.90808 0.155549 0 14.1999 0 0)
(7.2746 0.0718544 0 14.4289 0 0)
(7.63856 0.277845 0 14.4456 0 0)
(7.08056 0.284692 0 14.5914 0 0)
(7.41218 0.33523 0 14.4693 0 0)
(6.93367 0.405494 0 14.5835 0 0)
(7.3324 0.40594 0 14.5811 0 0)
(6.85771 0.501663 0 14.6114 0 0)
(7.30992 0.358001 0 14.4905 0 0)
(6.83881 0.582169 0 14.6099 0 0)
(7.2932 0.391743 0 14.5689 0 0)
(6.7723 0.571806 0 14.6236 0 0)
(7.14545 0.382041 0 14.7041 0 0)
(6.67457 0.571019 0 14.7498 0 0)
(7.00227 0.279827 0 14.7633 0 0)
(6.59025 0.504905 0 14.8244 0 0)
(6.92865 0.180368 0 14.7794 0 0)
(6.4838 0.377312 0 14.7765 0 0)
(6.86605 -0.0158525 0 14.6981 0 0)
(6.38412 0.248343 0 14.7447 0 0)
(6.8388 -0.177216 0 14.6351 0 0)
(6.35975 0.113722 0 14.4569 0 0)
(6.79238 -0.349488 0 14.3762 0 0)
(6.2496 -0.0368721 0 14.1596 0 0)
(6.65605 -0.597106 0 13.9434 0 0)
(6.14187 -0.183179 0 13.5068 0 0)
(6.4055 -0.886305 0 13.1256 0 0)
(6.20715 -0.374398 0 12.5783 0 0)
(6.1551 -1.14587 0 12.1114 0 0)
(6.38913 -0.565265 0 11.8035 0 0)
(6.00866 -1.2998 0 11.3057 0 0)
(6.53218 -0.832848 0 11.1747 0 0)
(5.95699 -1.29041 0 10.5321 0 0)
(6.58159 -1.05743 0 10.8105 0 0)
(5.92606 -1.16481 0 9.84382 0 0)
(6.47576 -1.38471 0 10.4599 0 0)
(5.77462 -0.947693 0 9.05156 0 0)
(6.28882 -1.67932 0 10.0882 0 0)
(5.6254 -0.634202 0 8.25715 0 0)
(6.04807 -1.79517 0 9.85433 0 0)
(5.57583 -0.310926 0 7.63816 0 0)
(5.66765 -1.78336 0 9.84527 0 0)