/*--------------------------------*- C++ -*----------------------------------*\
| =========                 |                                                 |
| \\      /  F ield         | OpenFOAM: The Open Source CFD Toolbox           |
|  \\    /   O peration     | Version:  2.4.0                                 |
|   \\  /    A nd           | Web:      www.OpenFOAM.org                      |
|    \\/     M anipulation  |                                                 |
\*---------------------------------------------------------------------------*/
FoamFile
{
    version     2.0;
    format      ascii;
    class       volScalarField;
    location    "44";
    object      p;
}
// * * * * * * * * * * * * * * * * * * * * * * * * * * * * * * * * * * * * * //

dimensions      [0 2 -2 0 0 0 0];

internalField   nonuniform List<scalar> 
4400
(
-0.109108
-0.105123
-0.108336
-0.113447
-0.113627
-0.115046
-0.109581
-0.109544
-0.119729
-0.118847
-0.113587
-0.120901
-0.118806
-0.114636
-0.126598
-0.122431
-0.120287
-0.129005
-0.122559
-0.13104
-0.109283
-0.105048
-0.10823
-0.113566
-0.113586
-0.115273
-0.109573
-0.109219
-0.119906
-0.119064
-0.113328
-0.121001
-0.118981
-0.114278
-0.126777
-0.122636
-0.119858
-0.129358
-0.122469
-0.130464
-0.1094
-0.104932
-0.108165
-0.113708
-0.113488
-0.115473
-0.109525
-0.108888
-0.120195
-0.119263
-0.112983
-0.121211
-0.119147
-0.113842
-0.127114
-0.122816
-0.119407
-0.129812
-0.122182
-0.129559
-0.109475
-0.104854
-0.108186
-0.113786
-0.113324
-0.115666
-0.109502
-0.108682
-0.120445
-0.119308
-0.112695
-0.121452
-0.119222
-0.113512
-0.127403
-0.12284
-0.119014
-0.130094
-0.121868
-0.128421
-0.109469
-0.104873
-0.108317
-0.113711
-0.113078
-0.115795
-0.109591
-0.108724
-0.120546
-0.119157
-0.112566
-0.121645
-0.119226
-0.113441
-0.127501
-0.122696
-0.118835
-0.130104
-0.121582
-0.127295
-0.109367
-0.105053
-0.108544
-0.11353
-0.112792
-0.115791
-0.109876
-0.109076
-0.120415
-0.118867
-0.112693
-0.121702
-0.119253
-0.113736
-0.127321
-0.122496
-0.118938
-0.129791
-0.121438
-0.126319
-0.109163
-0.105454
-0.108835
-0.113227
-0.112488
-0.115561
-0.110411
-0.109776
-0.119965
-0.118505
-0.113165
-0.121493
-0.119381
-0.114495
-0.126742
-0.122346
-0.119341
-0.129092
-0.121508
-0.125525
-0.108849
-0.106115
-0.109146
-0.112785
-0.112204
-0.11504
-0.111171
-0.110841
-0.11914
-0.118069
-0.11403
-0.120921
-0.119605
-0.115751
-0.125654
-0.122258
-0.120015
-0.127963
-0.121803
-0.124892
-0.108435
-0.107019
-0.109447
-0.112193
-0.111955
-0.11424
-0.11209
-0.11223
-0.117951
-0.117541
-0.115261
-0.119967
-0.119856
-0.117439
-0.124041
-0.122192
-0.120875
-0.126422
-0.122283
-0.124388
-0.107949
-0.108094
-0.109714
-0.111462
-0.111725
-0.113242
-0.113085
-0.113845
-0.116469
-0.116906
-0.116752
-0.118698
-0.12003
-0.119373
-0.122022
-0.122078
-0.121787
-0.124571
-0.12285
-0.123983
-0.107438
-0.109231
-0.109948
-0.110636
-0.111478
-0.11217
-0.114069
-0.115534
-0.114829
-0.116167
-0.118326
-0.117269
-0.120046
-0.121285
-0.119806
-0.12186
-0.122593
-0.122592
-0.123387
-0.123647
-0.106953
-0.110309
-0.110163
-0.109787
-0.111174
-0.11116
-0.11497
-0.117124
-0.113214
-0.115368
-0.119768
-0.115894
-0.119891
-0.122907
-0.117668
-0.121519
-0.12319
-0.120706
-0.123789
-0.123361
-0.106541
-0.111227
-0.110376
-0.108989
-0.110798
-0.110335
-0.115731
-0.11846
-0.111816
-0.114568
-0.120888
-0.114778
-0.119625
-0.124076
-0.115891
-0.121078
-0.123558
-0.119112
-0.12399
-0.123125
-0.10623
-0.111917
-0.110594
-0.108302
-0.110379
-0.109773
-0.116307
-0.11944
-0.110782
-0.113836
-0.121588
-0.114055
-0.119332
-0.124768
-0.114665
-0.120583
-0.12374
-0.117937
-0.12398
-0.122941
-0.106033
-0.11236
-0.110805
-0.10777
-0.109979
-0.109488
-0.116682
-0.120031
-0.110162
-0.113245
-0.121893
-0.113749
-0.119082
-0.125068
-0.113987
-0.120091
-0.123788
-0.117218
-0.123801
-0.122804
-0.105947
-0.112586
-0.110981
-0.107422
-0.109658
-0.109428
-0.116877
-0.120268
-0.109906
-0.112852
-0.121901
-0.113781
-0.118912
-0.125091
-0.113754
-0.119665
-0.123743
-0.116907
-0.123529
-0.122695
-0.105955
-0.11264
-0.111078
-0.107278
-0.109423
-0.109509
-0.116937
-0.120222
-0.109917
-0.112684
-0.121746
-0.114001
-0.118835
-0.124901
-0.113831
-0.119367
-0.123603
-0.116904
-0.123237
-0.122568
-0.106041
-0.112571
-0.111056
-0.107296
-0.109274
-0.109664
-0.116904
-0.119958
-0.110089
-0.112719
-0.121379
-0.114264
-0.118849
-0.124528
-0.11407
-0.119223
-0.123344
-0.117192
-0.122991
-0.12239
-0.106167
-0.112443
-0.110938
-0.107409
-0.109189
-0.109834
-0.116841
-0.119586
-0.110311
-0.112896
-0.12096
-0.114473
-0.118934
-0.124086
-0.114339
-0.119221
-0.123027
-0.117452
-0.122834
-0.122181
-0.106356
-0.112357
-0.110798
-0.10752
-0.10916
-0.109988
-0.116819
-0.119225
-0.110445
-0.1131
-0.120667
-0.114559
-0.119052
-0.12351
-0.114486
-0.119311
-0.122604
-0.117637
-0.122808
-0.122006
-0.126331
-0.120683
-0.123877
-0.128895
-0.129926
-0.132332
-0.142029
-0.134008
-0.144846
-0.168725
-0.154251
-0.120527
-0.132535
-0.174018
-0.131403
-0.0571657
-0.0941278
-0.154464
-0.147939
-0.130717
-0.124178
-0.0849357
-0.0189639
0.0197405
-0.00723836
-0.0899869
-0.185321
-0.233726
-0.199509
-0.112929
-0.0472399
-0.0375041
-0.0580986
-0.0696049
-0.0579159
-0.0402475
-0.0250025
-0.0100333
-0.00216141
-0.00706305
-0.012377
-0.0167943
-0.0303625
-0.0378805
-0.030028
-0.0211619
-0.018626
-0.0128456
-0.00302379
0.00503939
0.00978436
0.0124684
0.0139959
0.0147857
0.0151151
0.0151717
0.0150687
0.0148737
0.0146267
0.0143507
0.0140581
0.0137558
0.0134473
0.0131344
0.0128185
0.0124996
0.0121784
0.0118546
0.0115286
0.0112001
0.0108695
0.0105365
0.0102011
0.00986349
0.0095234
0.00918107
0.00883619
0.00848896
0.00813934
0.00778724
0.00743274
0.00707559
0.00671597
0.00635383
0.0059891
0.00562187
0.005252
0.00487958
0.00450462
0.00412703
0.00374685
0.00336396
0.00297837
0.00259009
0.00219913
0.00180545
0.00140905
0.00100988
0.000607896
0.000203102
-0.127008
-0.120138
-0.123439
-0.128821
-0.130492
-0.132924
-0.141748
-0.134804
-0.144593
-0.164345
-0.15123
-0.120033
-0.127217
-0.164988
-0.134184
-0.0767553
-0.111016
-0.15911
-0.145387
-0.123528
-0.11492
-0.0791754
-0.0161176
0.0223262
-0.00549957
-0.092825
-0.193868
-0.243717
-0.206278
-0.114873
-0.0439063
-0.0290235
-0.0470366
-0.0615653
-0.0571733
-0.0453057
-0.0302239
-0.0125559
-0.00250803
-0.00619786
-0.01104
-0.0152042
-0.0279128
-0.0351734
-0.0294235
-0.0240892
-0.0232406
-0.0163124
-0.00455404
0.00472741
0.00990867
0.0126615
0.0141472
0.0148823
0.0151706
0.0152013
0.0150833
0.0148803
0.0146293
0.0143514
0.014058
0.0137555
0.013447
0.0131342
0.0128183
0.0124995
0.0121783
0.0118545
0.0115285
0.0112001
0.0108695
0.0105365
0.0102011
0.00986349
0.0095234
0.00918107
0.00883619
0.00848896
0.00813934
0.00778724
0.00743274
0.00707559
0.00671598
0.00635382
0.0059891
0.00562187
0.005252
0.00487958
0.00450462
0.00412703
0.00374684
0.00336397
0.00297837
0.00259009
0.00219913
0.00180546
0.00140905
0.00100988
0.000607905
0.000203098
-0.127745
-0.119838
-0.123079
-0.128428
-0.131212
-0.133291
-0.140272
-0.135298
-0.144257
-0.158951
-0.147593
-0.120164
-0.121966
-0.153764
-0.13383
-0.0965667
-0.129552
-0.163964
-0.14253
-0.11687
-0.106601
-0.0741879
-0.013904
0.0242775
-0.00398441
-0.0946982
-0.200895
-0.252224
-0.21153
-0.115551
-0.0397317
-0.019895
-0.0355223
-0.0532904
-0.0563616
-0.0505274
-0.0355856
-0.0151016
-0.00273222
-0.00502426
-0.0095075
-0.013517
-0.0251763
-0.0322111
-0.0285949
-0.0269695
-0.0278774
-0.0197904
-0.00609381
0.00442643
0.0100537
0.0128706
0.0143074
0.0149833
0.0152282
0.015232
0.0150986
0.0148873
0.0146321
0.0143522
0.0140581
0.0137552
0.0134467
0.013134
0.0128182
0.0124994
0.0121783
0.0118545
0.0115285
0.0112001
0.0108695
0.0105365
0.0102011
0.00986349
0.0095234
0.00918107
0.00883619
0.00848896
0.00813934
0.00778724
0.00743273
0.00707559
0.00671598
0.00635382
0.0059891
0.00562187
0.005252
0.00487958
0.00450463
0.00412704
0.00374684
0.00336397
0.00297837
0.0025901
0.00219913
0.00180546
0.00140904
0.00100987
0.000607903
0.000203097
-0.128346
-0.119818
-0.122835
-0.127538
-0.131568
-0.133791
-0.138082
-0.135099
-0.143699
-0.153396
-0.143539
-0.120114
-0.116768
-0.141409
-0.130699
-0.115169
-0.148461
-0.168577
-0.13956
-0.111176
-0.0997566
-0.070341
-0.0125743
0.0252801
-0.00290125
-0.0956769
-0.206293
-0.259137
-0.215159
-0.114954
-0.0348225
-0.0102733
-0.0238611
-0.0449846
-0.0554534
-0.0557001
-0.0408817
-0.0175795
-0.00279069
-0.00352811
-0.00778965
-0.0117367
-0.0221754
-0.0290392
-0.0275383
-0.0296812
-0.0323691
-0.0231774
-0.00760948
0.00413886
0.0102151
0.0130919
0.0144742
0.0150877
0.0152877
0.0152637
0.0151145
0.0148947
0.0146352
0.0143532
0.0140582
0.0137551
0.0134465
0.0131338
0.012818
0.0124993
0.0121782
0.0118545
0.0115285
0.0112001
0.0108695
0.0105365
0.0102011
0.00986349
0.0095234
0.00918107
0.00883619
0.00848897
0.00813935
0.00778724
0.00743273
0.00707559
0.00671597
0.00635382
0.0059891
0.00562187
0.00525201
0.00487959
0.00450463
0.00412704
0.00374684
0.00336397
0.00297837
0.0025901
0.00219914
0.00180547
0.00140905
0.00100987
0.0006079
0.000203096
-0.128658
-0.119948
-0.122726
-0.126333
-0.131233
-0.134266
-0.135725
-0.134236
-0.142808
-0.148129
-0.139398
-0.119485
-0.111798
-0.128997
-0.12538
-0.13125
-0.16637
-0.172523
-0.136721
-0.106761
-0.0947062
-0.0678393
-0.0122985
0.0250543
-0.0025107
-0.0958258
-0.210023
-0.264362
-0.217082
-0.113088
-0.0292969
-0.000338679
-0.0124249
-0.0368661
-0.0544152
-0.060577
-0.0459107
-0.0198949
-0.00263692
-0.00172435
-0.00590556
-0.00985611
-0.0189649
-0.0257011
-0.0262598
-0.0321058
-0.0365488
-0.0263668
-0.0090632
0.00386779
0.0103873
0.013321
0.0146452
0.0151942
0.0153484
0.0152962
0.0151309
0.0149024
0.0146384
0.0143544
0.0140584
0.0137549
0.0134463
0.0131336
0.0128179
0.0124992
0.0121781
0.0118544
0.0115285
0.0112001
0.0108695
0.0105365
0.0102011
0.0098635
0.00952341
0.00918107
0.0088362
0.00848897
0.00813935
0.00778724
0.00743272
0.00707558
0.00671597
0.00635382
0.00598909
0.00562187
0.00525201
0.0048796
0.00450464
0.00412704
0.00374684
0.00336397
0.00297838
0.00259011
0.00219915
0.00180547
0.00140905
0.00100987
0.000607896
0.000203095
-0.128581
-0.120148
-0.122651
-0.125076
-0.130247
-0.134408
-0.133548
-0.13293
-0.141474
-0.143321
-0.135461
-0.118165
-0.106836
-0.117242
-0.11869
-0.143921
-0.181901
-0.175483
-0.134287
-0.103715
-0.0915306
-0.0667109
-0.0131309
0.023431
-0.00310725
-0.0951424
-0.212074
-0.267778
-0.21725
-0.110006
-0.0232804
0.00970544
-0.00160802
-0.02914
-0.053247
-0.0649097
-0.0504685
-0.0219455
-0.00222188
0.000336737
-0.00388323
-0.00785741
-0.0156128
-0.0222335
-0.0247754
-0.0341349
-0.0402636
-0.0292572
-0.0104159
0.00361685
0.0105646
0.0135529
0.0148178
0.0153017
0.0154097
0.0153292
0.0151477
0.0149104
0.0146419
0.0143557
0.0140588
0.0137549
0.0134461
0.0131334
0.0128178
0.0124991
0.0121781
0.0118544
0.0115285
0.0112001
0.0108695
0.0105365
0.0102011
0.0098635
0.00952341
0.00918107
0.0088362
0.00848898
0.00813935
0.00778724
0.00743272
0.00707558
0.00671597
0.00635382
0.00598909
0.00562187
0.00525201
0.0048796
0.00450464
0.00412704
0.00374684
0.00336397
0.00297838
0.00259012
0.00219915
0.00180547
0.00140905
0.00100986
0.000607893
0.000203095
-0.128069
-0.120364
-0.122506
-0.123943
-0.12882
-0.133931
-0.131697
-0.131468
-0.139651
-0.138973
-0.131922
-0.116268
-0.101665
-0.106455
-0.11146
-0.152828
-0.193882
-0.17733
-0.132516
-0.102189
-0.0901523
-0.0668462
-0.015012
0.0203704
-0.0048653
-0.0935747
-0.212404
-0.269171
-0.215639
-0.105788
-0.016898
0.0196377
0.00824131
-0.0219865
-0.0519572
-0.0684879
-0.0543692
-0.0236276
-0.00149906
0.00256935
-0.00176069
-0.00571834
-0.0122059
-0.0186745
-0.0231078
-0.035684
-0.0433855
-0.0317614
-0.0116307
0.00338972
0.0107408
0.0137825
0.0149892
0.0154089
0.0154713
0.0153625
0.0151647
0.0149186
0.0146455
0.0143571
0.0140591
0.0137549
0.013446
0.0131333
0.0128176
0.0124991
0.012178
0.0118544
0.0115285
0.0112001
0.0108695
0.0105365
0.0102011
0.0098635
0.00952341
0.00918107
0.0088362
0.00848898
0.00813936
0.00778724
0.00743272
0.00707558
0.00671597
0.00635382
0.00598909
0.00562187
0.00525202
0.00487961
0.00450465
0.00412705
0.00374684
0.00336397
0.00297839
0.00259012
0.00219915
0.00180547
0.00140905
0.00100986
0.000607889
0.000203094
-0.127137
-0.120595
-0.122203
-0.122971
-0.127196
-0.132704
-0.130142
-0.13011
-0.137392
-0.135078
-0.128911
-0.113998
-0.0963005
-0.0966448
-0.104378
-0.158227
-0.201928
-0.178193
-0.131577
-0.102056
-0.0903555
-0.0680033
-0.0177348
0.015964
-0.00769166
-0.0911022
-0.210812
-0.268181
-0.212283
-0.100543
-0.010258
0.0291985
0.016893
-0.01555
-0.050556
-0.0711624
-0.0574735
-0.0248453
-0.000434164
0.00486246
0.000415019
-0.003422
-0.00883686
-0.0150784
-0.0212913
-0.0367007
-0.0458241
-0.0338109
-0.0126745
0.00319002
0.0109099
0.0140043
0.0151566
0.0155146
0.0155325
0.0153957
0.0151818
0.0149269
0.0146492
0.0143585
0.0140596
0.0137549
0.0134458
0.0131332
0.0128175
0.012499
0.012178
0.0118543
0.0115285
0.0112001
0.0108695
0.0105365
0.0102011
0.00986351
0.00952341
0.00918107
0.0088362
0.00848899
0.00813936
0.00778723
0.00743272
0.00707558
0.00671597
0.00635382
0.00598909
0.00562187
0.00525202
0.00487961
0.00450465
0.00412705
0.00374684
0.00336397
0.00297839
0.00259013
0.00219916
0.00180547
0.00140905
0.00100986
0.000607886
0.000203093
-0.125833
-0.120838
-0.121704
-0.12212
-0.125585
-0.130773
-0.128794
-0.129031
-0.134846
-0.131617
-0.126465
-0.111532
-0.0909949
-0.0878003
-0.0979628
-0.160778
-0.206299
-0.178369
-0.131515
-0.103184
-0.0917766
-0.0709199
-0.0210202
0.0104121
-0.0112455
-0.0877071
-0.206957
-0.264391
-0.207273
-0.0944136
-0.00343545
0.0380608
0.0242814
-0.00992734
-0.0490476
-0.0728629
-0.0596927
-0.0255194
0.00098125
0.00709978
0.00259395
-0.000974927
-0.00558963
-0.0115174
-0.0193791
-0.0371751
-0.0475342
-0.0353623
-0.0135214
0.00302083
0.0110665
0.0142136
0.0153172
0.0156173
0.0155924
0.0154285
0.0151988
0.0149351
0.014653
0.01436
0.01406
0.0137549
0.0134458
0.0131331
0.0128175
0.0124989
0.012178
0.0118543
0.0115284
0.0112001
0.0108695
0.0105365
0.0102011
0.00986351
0.00952341
0.00918107
0.0088362
0.00848899
0.00813936
0.00778723
0.00743271
0.00707557
0.00671597
0.00635382
0.00598909
0.00562187
0.00525202
0.00487962
0.00450465
0.00412705
0.00374684
0.00336397
0.00297839
0.00259013
0.00219916
0.00180547
0.00140905
0.00100986
0.000607883
0.000203093
-0.124262
-0.121062
-0.121032
-0.121325
-0.12413
-0.128328
-0.127549
-0.128282
-0.132206
-0.12858
-0.124532
-0.109046
-0.0861518
-0.080056
-0.0924063
-0.161312
-0.207792
-0.178127
-0.132227
-0.105411
-0.0939295
-0.0729526
-0.0244907
0.0041244
-0.0150843
-0.0834279
-0.20082
-0.257669
-0.20076
-0.0875591
0.00351279
0.0458187
0.0304647
-0.00516013
-0.0474193
-0.0735878
-0.0609943
-0.0255988
0.0027146
0.00918699
0.00473074
0.00156986
-0.00252322
-0.00807568
-0.017436
-0.0371446
-0.0485211
-0.036401
-0.0141555
0.00288407
0.0112056
0.0144057
0.0154681
0.0157154
0.0156502
0.0154602
0.0152152
0.0149431
0.0146566
0.0143615
0.0140605
0.013755
0.0134457
0.013133
0.0128174
0.0124989
0.0121779
0.0118543
0.0115284
0.0112001
0.0108695
0.0105365
0.0102011
0.00986351
0.00952341
0.00918107
0.0088362
0.00848899
0.00813936
0.00778723
0.00743271
0.00707557
0.00671597
0.00635382
0.00598909
0.00562187
0.00525203
0.00487962
0.00450465
0.00412705
0.00374684
0.00336397
0.00297839
0.00259014
0.00219917
0.00180548
0.00140905
0.00100986
0.000607881
0.000203092
-0.122582
-0.121222
-0.12025
-0.120541
-0.12288
-0.125624
-0.126323
-0.127803
-0.129687
-0.125975
-0.123015
-0.106777
-0.0821472
-0.0736758
-0.0877303
-0.160633
-0.207376
-0.177743
-0.133473
-0.107456
-0.0963959
-0.0746393
-0.0277049
-0.00241588
-0.0191721
-0.0781145
-0.192731
-0.24842
-0.192933
-0.0802145
0.010461
0.0520143
0.0355046
-0.00124182
-0.0456642
-0.0733968
-0.0613977
-0.02507
0.00468014
0.0110761
0.0067901
0.00410682
0.000332455
-0.00484367
-0.0155302
-0.0366805
-0.0488379
-0.0369436
-0.014573
0.00277991
0.0113234
0.0145764
0.0156066
0.0158071
0.0157047
0.0154902
0.0152306
0.0149506
0.0146599
0.0143628
0.0140609
0.013755
0.0134456
0.0131329
0.0128173
0.0124988
0.0121779
0.0118543
0.0115284
0.0112001
0.0108695
0.0105365
0.0102011
0.00986351
0.00952341
0.00918107
0.00883621
0.008489
0.00813937
0.00778723
0.00743271
0.00707557
0.00671596
0.00635382
0.00598909
0.00562187
0.00525203
0.00487962
0.00450466
0.00412705
0.00374684
0.00336397
0.0029784
0.00259014
0.00219917
0.00180548
0.00140905
0.00100985
0.000607878
0.000203092
-0.120965
-0.121269
-0.119443
-0.119751
-0.121813
-0.122947
-0.125077
-0.12747
-0.127498
-0.12381
-0.121803
-0.105001
-0.0792678
-0.0689115
-0.0839856
-0.159094
-0.205723
-0.177417
-0.134982
-0.109743
-0.09881
-0.0755409
-0.0301848
-0.00868982
-0.0230223
-0.0722506
-0.183285
-0.237413
-0.183976
-0.0726528
0.0171498
0.056318
0.0394007
0.00186987
-0.0437925
-0.072409
-0.0609559
-0.0239622
0.00673833
0.0127713
0.00876162
0.00649291
0.00295603
-0.00191421
-0.0137307
-0.0358779
-0.0485762
-0.0370364
-0.0147839
0.00270636
0.0114167
0.0147225
0.0157299
0.0158904
0.0157545
0.0155175
0.0152445
0.0149572
0.0146628
0.0143639
0.0140612
0.013755
0.0134455
0.0131328
0.0128172
0.0124988
0.0121779
0.0118543
0.0115284
0.0112001
0.0108695
0.0105365
0.0102011
0.00986352
0.00952341
0.00918107
0.00883621
0.008489
0.00813937
0.00778723
0.00743271
0.00707557
0.00671596
0.00635382
0.00598909
0.00562187
0.00525203
0.00487963
0.00450466
0.00412705
0.00374685
0.00336397
0.0029784
0.00259015
0.00219917
0.00180548
0.00140905
0.00100985
0.000607876
0.000203092
-0.119557
-0.121172
-0.118709
-0.11897
-0.120879
-0.12056
-0.123826
-0.127165
-0.125779
-0.122092
-0.1208
-0.1039
-0.0776826
-0.0658959
-0.0813076
-0.15667
-0.202842
-0.176891
-0.136456
-0.112016
-0.100636
-0.0753161
-0.0315181
-0.0142267
-0.0262285
-0.0659933
-0.172997
-0.225387
-0.174193
-0.0652111
0.0232685
0.0588199
0.0421112
0.00423257
-0.0418492
-0.0708
-0.059764
-0.0223449
0.00870723
0.0143096
0.0106518
0.00858823
0.00531646
0.00062472
-0.0121052
-0.034848
-0.0478565
-0.0367516
-0.014811
0.00265898
0.0114833
0.0148411
0.0158356
0.0159633
0.0157982
0.0155412
0.0152563
0.0149626
0.014665
0.0143647
0.0140614
0.013755
0.0134454
0.0131327
0.0128172
0.0124987
0.0121779
0.0118543
0.0115284
0.0112001
0.0108695
0.0105365
0.0102011
0.00986352
0.00952342
0.00918107
0.00883621
0.008489
0.00813937
0.00778723
0.00743271
0.00707557
0.00671596
0.00635382
0.00598909
0.00562187
0.00525204
0.00487963
0.00450466
0.00412705
0.00374685
0.00336398
0.0029784
0.00259015
0.00219918
0.00180548
0.00140905
0.00100985
0.000607874
0.000203091
-0.118445
-0.120933
-0.118128
-0.11824
-0.120054
-0.118651
-0.122644
-0.126818
-0.124546
-0.12083
-0.119963
-0.103436
-0.0773296
-0.0646123
-0.0797749
-0.15346
-0.198494
-0.175637
-0.137608
-0.114032
-0.101633
-0.0738133
-0.0314776
-0.0186112
-0.0283825
-0.0594019
-0.161828
-0.212749
-0.164183
-0.0576346
0.0283985
0.0600205
0.0436542
0.00590494
-0.0399552
-0.0687933
-0.0579586
-0.0203172
0.0103975
0.0157201
0.0124406
0.0102851
0.0073601
0.00269777
-0.0107149
-0.0337082
-0.0468178
-0.0361817
-0.0146893
0.00263056
0.0115214
0.0149302
0.0159212
0.0160236
0.0158342
0.0155603
0.0152655
0.0149666
0.0146665
0.0143651
0.0140614
0.0137549
0.0134453
0.0131326
0.0128171
0.0124987
0.0121778
0.0118543
0.0115284
0.0112001
0.0108694
0.0105365
0.0102011
0.00986352
0.00952342
0.00918107
0.00883621
0.008489
0.00813937
0.00778723
0.00743271
0.00707557
0.00671596
0.00635382
0.00598909
0.00562187
0.00525204
0.00487963
0.00450466
0.00412705
0.00374685
0.00336398
0.0029784
0.00259015
0.00219918
0.00180548
0.00140905
0.00100985
0.000607873
0.000203091
-0.117664
-0.120595
-0.117731
-0.117613
-0.119347
-0.117301
-0.121622
-0.126404
-0.123715
-0.119995
-0.119321
-0.103471
-0.0779555
-0.0648356
-0.0793302
-0.149768
-0.192885
-0.173662
-0.138325
-0.115622
-0.101647
-0.0710689
-0.0300975
-0.0215503
-0.0294909
-0.0526455
-0.149511
-0.199461
-0.153642
-0.0501979
0.0320682
0.0603828
0.044167
0.00696383
-0.0382357
-0.0666002
-0.055765
-0.0180004
0.011693
0.0169934
0.0140436
0.0115743
0.00900281
0.00425035
-0.00960697
-0.0325694
-0.0456056
-0.0354342
-0.0144649
0.00261097
0.01153
0.0149887
0.0159848
0.0160697
0.0158615
0.0155744
0.0152719
0.0149692
0.0146673
0.0143652
0.0140613
0.0137547
0.0134452
0.0131326
0.0128171
0.0124987
0.0121778
0.0118542
0.0115284
0.0112001
0.0108694
0.0105365
0.0102011
0.00986352
0.00952342
0.00918107
0.00883621
0.00848901
0.00813937
0.00778723
0.00743271
0.00707557
0.00671596
0.00635382
0.00598909
0.00562187
0.00525204
0.00487963
0.00450466
0.00412705
0.00374685
0.00336398
0.0029784
0.00259016
0.00219918
0.00180548
0.00140905
0.00100985
0.000607872
0.000203091
-0.11721
-0.120218
-0.1175
-0.117145
-0.118788
-0.116495
-0.120838
-0.125927
-0.123173
-0.119533
-0.118834
-0.103687
-0.0795939
-0.0661742
-0.079753
-0.14623
-0.186524
-0.170822
-0.138945
-0.116768
-0.100556
-0.067219
-0.0276075
-0.0229481
-0.0296066
-0.0464129
-0.136511
-0.185781
-0.142934
-0.0435267
0.0343449
0.0600514
0.043873
0.00754342
-0.0366753
-0.0642353
-0.0533923
-0.0155983
0.0126494
0.0181043
0.0153261
0.0125047
0.0101663
0.00526501
-0.00880607
-0.0315236
-0.0443619
-0.0346271
-0.0141936
0.00258803
0.0115093
0.0150165
0.0160251
0.0161005
0.0158798
0.0155835
0.0152758
0.0149705
0.0146676
0.0143651
0.0140611
0.0137546
0.0134451
0.0131325
0.012817
0.0124987
0.0121778
0.0118542
0.0115284
0.0112001
0.0108694
0.0105365
0.0102011
0.00986352
0.00952342
0.00918107
0.00883621
0.00848901
0.00813937
0.00778723
0.0074327
0.00707557
0.00671596
0.00635382
0.00598909
0.00562187
0.00525204
0.00487963
0.00450466
0.00412706
0.00374685
0.00336398
0.00297841
0.00259016
0.00219918
0.00180548
0.00140905
0.00100985
0.000607871
0.000203091
-0.117047
-0.119867
-0.117401
-0.116868
-0.118386
-0.116153
-0.120331
-0.125416
-0.122834
-0.119363
-0.118363
-0.103708
-0.0806977
-0.06809
-0.0804015
-0.143222
-0.180289
-0.167879
-0.139302
-0.117492
-0.0984816
-0.0625698
-0.0245274
-0.0229838
-0.028972
-0.0413817
-0.124152
-0.173131
-0.133089
-0.0382865
0.035513
0.0591829
0.04303
0.00778518
-0.0352198
-0.0617786
-0.0510384
-0.013463
0.0134076
0.0190105
0.0162032
0.0131165
0.010828
0.00578048
-0.00830947
-0.030634
-0.0432121
-0.0338732
-0.0139329
0.00255116
0.0114607
0.0150146
0.0160427
0.0161169
0.0158899
0.0155886
0.0152779
0.0149712
0.0146677
0.014365
0.014061
0.0137545
0.013445
0.0131324
0.012817
0.0124986
0.0121778
0.0118542
0.0115284
0.0112001
0.0108694
0.0105365
0.0102011
0.00986352
0.00952342
0.00918107
0.00883621
0.00848901
0.00813937
0.00778723
0.0074327
0.00707557
0.00671596
0.00635382
0.00598909
0.00562187
0.00525204
0.00487964
0.00450466
0.00412706
0.00374685
0.00336398
0.00297841
0.00259016
0.00219918
0.00180548
0.00140905
0.00100985
0.00060787
0.000203091
-0.11711
-0.119596
-0.117389
-0.116777
-0.118131
-0.116137
-0.120089
-0.124949
-0.122629
-0.119342
-0.117872
-0.103391
-0.081443
-0.0699139
-0.0813914
-0.140681
-0.175008
-0.165248
-0.13946
-0.117672
-0.0957866
-0.0576614
-0.0217364
-0.0221282
-0.0280311
-0.038056
-0.114111
-0.163022
-0.124782
-0.0346593
0.036018
0.0581343
0.0419645
0.00778633
-0.0340073
-0.0595607
-0.0490258
-0.0118581
0.0140019
0.0196359
0.0166877
0.0134108
0.0110464
0.00589826
-0.00808856
-0.0299469
-0.0422458
-0.0332498
-0.0137247
0.00249811
0.0113902
0.0149882
0.0160414
0.0161217
0.015894
0.0155908
0.0152788
0.0149714
0.0146676
0.0143649
0.0140609
0.0137544
0.013445
0.0131324
0.012817
0.0124986
0.0121778
0.0118542
0.0115284
0.0112001
0.0108694
0.0105365
0.0102011
0.00986352
0.00952342
0.00918107
0.00883621
0.00848901
0.00813937
0.00778723
0.0074327
0.00707557
0.00671596
0.00635382
0.00598909
0.00562187
0.00525204
0.00487964
0.00450466
0.00412706
0.00374685
0.00336398
0.00297841
0.00259016
0.00219918
0.00180548
0.00140905
0.00100985
0.00060787
0.000203091
-0.117296
-0.119433
-0.117404
-0.116819
-0.117993
-0.116277
-0.12006
-0.124617
-0.122502
-0.119346
-0.117442
-0.102974
-0.0817551
-0.0710431
-0.0823767
-0.139145
-0.1714
-0.163354
-0.13948
-0.117509
-0.093721
-0.0541022
-0.0199075
-0.0213039
-0.0273182
-0.0367224
-0.107809
-0.155865
-0.118326
-0.0322624
0.0363487
0.0572668
0.0411223
0.00766164
-0.0332194
-0.0580161
-0.0475742
-0.0108304
0.0143748
0.0199158
0.0168856
0.0134619
0.0110095
0.00578837
-0.00809429
-0.0295473
-0.0415352
-0.0327527
-0.0135946
0.00244561
0.011317
0.0149516
0.0160301
0.01612
0.0158945
0.0155914
0.0152792
0.0149715
0.0146676
0.0143648
0.0140608
0.0137543
0.0134449
0.0131324
0.012817
0.0124986
0.0121778
0.0118542
0.0115284
0.0112
0.0108694
0.0105365
0.0102011
0.00986352
0.00952342
0.00918107
0.00883621
0.00848901
0.00813937
0.00778723
0.0074327
0.00707557
0.00671596
0.00635382
0.00598909
0.00562187
0.00525204
0.00487964
0.00450466
0.00412706
0.00374685
0.00336398
0.00297841
0.00259016
0.00219919
0.00180548
0.00140904
0.00100985
0.00060787
0.000203091
-0.117597
-0.119388
-0.117421
-0.116948
-0.117958
-0.11647
-0.120174
-0.12449
-0.122439
-0.119332
-0.117159
-0.102645
-0.0816854
-0.0715172
-0.0837126
-0.138475
-0.16984
-0.162422
-0.139513
-0.117551
-0.09291
-0.0524773
-0.0191853
-0.02095
-0.027512
-0.0379632
-0.105447
-0.152323
-0.114697
-0.0307298
0.0368042
0.0567904
0.0406642
0.0074285
-0.0329209
-0.0572512
-0.0467133
-0.0103876
0.0145344
0.0199252
0.0168171
0.0133736
0.0109027
0.00554819
-0.00830135
-0.0294588
-0.0411956
-0.0324239
-0.0134957
0.0024418
0.0112854
0.0149337
0.0160241
0.0161188
0.0158946
0.0155915
0.0152792
0.0149715
0.0146676
0.0143648
0.0140608
0.0137543
0.0134449
0.0131324
0.012817
0.0124986
0.0121778
0.0118542
0.0115284
0.0112
0.0108695
0.0105365
0.0102011
0.00986352
0.00952342
0.00918107
0.00883621
0.00848901
0.00813937
0.00778723
0.0074327
0.00707557
0.00671596
0.00635382
0.00598909
0.00562187
0.00525204
0.00487964
0.00450466
0.00412706
0.00374685
0.00336398
0.00297841
0.00259016
0.00219919
0.00180548
0.00140904
0.00100985
0.00060787
0.000203091
-0.124901
-0.126434
-0.129498
-0.129826
-0.129742
-0.13057
-0.13341
-0.136428
-0.142242
-0.147572
-0.150476
-0.159462
-0.159084
-0.0866042
-0.0568503
-0.0803957
-0.0843795
-0.121714
-0.151114
-0.164317
-0.141717
-0.0767094
-0.00595398
0.0474719
0.0602782
0.0472703
0.0199232
-0.0106052
-0.0217468
-0.00966082
-0.0144231
-0.0487228
-0.0825098
-0.0831306
-0.0527197
-0.0234399
-0.00671025
-0.00047261
-0.00149713
-0.00778672
-0.0163793
-0.0257999
-0.0351873
-0.0347788
-0.0190798
-0.000884709
0.00870828
0.0106743
0.00994444
0.00960435
0.0103383
0.0116461
0.0129682
0.0139857
0.0146139
0.014903
0.0149462
0.0148307
0.0146207
0.0143584
0.0140686
0.0137648
0.0134538
0.0131388
0.0128211
0.0125011
0.0121791
0.011855
0.0115288
0.0112002
0.0108696
0.0105365
0.0102011
0.00986351
0.0095234
0.00918105
0.0088362
0.00848899
0.00813934
0.0077872
0.00743267
0.00707555
0.00671597
0.00635385
0.00598912
0.00562189
0.00525205
0.00487963
0.00450465
0.00412703
0.00374683
0.00336396
0.00297839
0.00259015
0.00219918
0.00180547
0.00140905
0.00100987
0.000607884
0.000203093
-0.124999
-0.126497
-0.129497
-0.12977
-0.129733
-0.130594
-0.133466
-0.136406
-0.142166
-0.14746
-0.150427
-0.159945
-0.161156
-0.0909208
-0.0603219
-0.0816554
-0.0840581
-0.122824
-0.152332
-0.165557
-0.143906
-0.0782774
-0.00736293
0.0461055
0.0589493
0.0459848
0.0192952
-0.0110404
-0.0218108
-0.00947064
-0.0135899
-0.0487298
-0.0833492
-0.0843427
-0.0531998
-0.0234911
-0.006696
-0.000402251
-0.00140067
-0.00767037
-0.016283
-0.0257731
-0.0353036
-0.0350765
-0.0193361
-0.000911482
0.00874503
0.0106998
0.00993921
0.00958843
0.0103232
0.0116421
0.0129688
0.0139879
0.0146161
0.0149047
0.0149473
0.0148313
0.014621
0.0143586
0.0140687
0.0137649
0.0134538
0.0131388
0.0128211
0.0125011
0.0121791
0.011855
0.0115288
0.0112002
0.0108696
0.0105365
0.0102011
0.00986351
0.0095234
0.00918105
0.0088362
0.00848899
0.00813934
0.00778719
0.00743267
0.00707555
0.00671597
0.00635385
0.00598912
0.00562189
0.00525205
0.00487963
0.00450465
0.00412703
0.00374683
0.00336396
0.00297839
0.00259015
0.00219918
0.00180547
0.00140905
0.00100987
0.000607884
0.000203093
-0.125098
-0.126651
-0.129617
-0.129831
-0.1297
-0.130555
-0.133441
-0.136272
-0.142188
-0.147934
-0.151041
-0.161303
-0.166839
-0.101
-0.0667795
-0.0841422
-0.0869934
-0.126784
-0.155035
-0.167706
-0.14724
-0.081094
-0.00999252
0.0434589
0.0565814
0.0428572
0.0169227
-0.0134623
-0.0225352
-0.00902486
-0.0128942
-0.0493253
-0.0852822
-0.0862689
-0.0539794
-0.023525
-0.00649756
-0.000195466
-0.00121143
-0.00757306
-0.0162857
-0.0258388
-0.0356079
-0.0356483
-0.0196461
-0.00103457
0.00882611
0.0107313
0.00991115
0.00955324
0.0103081
0.0116424
0.0129765
0.0139969
0.0146235
0.0149098
0.0149504
0.014833
0.0146219
0.014359
0.0140689
0.0137649
0.0134539
0.0131387
0.0128211
0.0125011
0.0121791
0.011855
0.0115288
0.0112002
0.0108696
0.0105365
0.0102011
0.00986351
0.0095234
0.00918105
0.0088362
0.00848899
0.00813934
0.00778719
0.00743267
0.00707556
0.00671597
0.00635385
0.00598912
0.00562189
0.00525205
0.00487963
0.00450465
0.00412703
0.00374683
0.00336396
0.00297839
0.00259015
0.00219918
0.00180547
0.00140905
0.00100987
0.000607884
0.000203093
-0.125205
-0.126901
-0.129811
-0.130008
-0.12963
-0.130457
-0.133323
-0.135965
-0.142229
-0.14897
-0.152264
-0.163162
-0.175102
-0.115664
-0.074742
-0.0847549
-0.0921395
-0.132558
-0.158109
-0.169979
-0.151086
-0.0843106
-0.0134581
0.0394464
0.0533268
0.0381307
0.0128938
-0.0177905
-0.0243978
-0.00902554
-0.0124954
-0.0505315
-0.088061
-0.0889491
-0.0550099
-0.0235307
-0.00616553
0.000135916
-0.000931656
-0.00747477
-0.0163574
-0.0259679
-0.0360587
-0.036491
-0.020142
-0.00120771
0.00889199
0.0107281
0.00984231
0.009498
0.0102889
0.0116469
0.0129903
0.0140111
0.0146343
0.0149167
0.0149545
0.0148352
0.0146229
0.0143595
0.0140691
0.013765
0.0134539
0.0131387
0.012821
0.012501
0.0121791
0.011855
0.0115288
0.0112002
0.0108696
0.0105365
0.0102011
0.00986352
0.0095234
0.00918106
0.0088362
0.00848899
0.00813934
0.00778719
0.00743267
0.00707556
0.00671597
0.00635385
0.00598912
0.00562189
0.00525205
0.00487963
0.00450465
0.00412703
0.00374683
0.00336396
0.00297839
0.00259015
0.00219918
0.00180547
0.00140905
0.00100987
0.000607885
0.000203093
-0.125303
-0.127181
-0.130053
-0.130292
-0.129554
-0.130311