/*--------------------------------*- C++ -*----------------------------------*\
| =========                 |                                                 |
| \\      /  F ield         | OpenFOAM: The Open Source CFD Toolbox           |
|  \\    /   O peration     | Version:  2.4.0                                 |
|   \\  /    A nd           | Web:      www.OpenFOAM.org                      |
|    \\/     M anipulation  |                                                 |
\*---------------------------------------------------------------------------*/
FoamFile
{
    version     2.0;
    format      ascii;
    class       volScalarField;
    location    "1.21";
    object      k;
}
// * * * * * * * * * * * * * * * * * * * * * * * * * * * * * * * * * * * * * //

dimensions      [0 2 -2 0 0 0 0];

internalField   nonuniform List<scalar> 
8800
(
8.1165
10.2732
8.78793
6.83791
5.68229
5.00792
4.487
4.18443
3.87179
3.7128
3.4956
3.41549
3.24775
3.20227
3.05442
3.02128
2.8948
2.85771
2.80338
2.64756
1.39388
4.36053
5.31282
5.29492
5.10941
4.85593
4.52419
4.3393
4.06983
3.93189
3.72452
3.63722
3.47277
3.41754
3.28774
3.24607
3.14201
3.09974
3.01099
2.99694
0.0835031
0.744723
1.54239
1.9683
2.24663
2.46663
2.54915
2.62254
2.61358
2.60798
2.58157
2.55639
2.51407
2.48322
2.45081
2.42108
2.38998
2.36147
2.31219
2.29288
0.00329121
0.0712207
0.238705
0.443156
0.574012
0.708565
0.832577
0.933538
1.02512
1.08879
1.16909
1.20515
1.27086
1.29392
1.34583
1.36274
1.40538
1.4107
1.42651
1.41945
0.000119939
0.00508393
0.0206138
0.0558938
0.0922379
0.116212
0.168652
0.198647
0.248623
0.276887
0.326204
0.349202
0.398341
0.420164
0.46748
0.488778
0.537517
0.556663
0.593148
0.613127
2.57796e-05
0.000323079
0.00137815
0.00441565
0.00884838
0.0117055
0.0191166
0.0242121
0.0341566
0.0422185
0.0523847
0.0608159
0.0756126
0.0834999
0.0956775
0.107061
0.120825
0.137506
0.145938
0.164542
2.22005e-05
4.47446e-05
0.000111851
0.000347494
0.000660695
0.000849683
0.00137504
0.0019489
0.00244274
0.00375572
0.00456632
0.00630199
0.00733387
0.00971494
0.010949
0.0136905
0.0152994
0.0195824
0.0214635
0.0277146
2.09562e-05
3.28297e-05
4.64605e-05
8.16949e-05
0.000102933
0.000117163
0.000152037
0.00019114
0.000201953
0.000280707
0.000324329
0.000454321
0.000512669
0.000728792
0.000795205
0.00103415
0.00113401
0.00163162
0.00184273
0.00298901
2.05713e-05
3.28831e-05
4.25548e-05
5.67425e-05
6.72093e-05
7.66932e-05
7.70396e-05
7.82409e-05
7.94921e-05
8.84721e-05
9.06831e-05
9.7422e-05
0.000101002
0.000115803
0.000118497
0.000128468
0.000133685
0.000163105
0.000170303
0.00024276
2.05045e-05
3.25817e-05
4.32054e-05
4.85711e-05
5.67975e-05
6.64148e-05
7.3749e-05
7.36024e-05
7.14825e-05
7.29985e-05
7.43308e-05
7.4352e-05
7.5215e-05
7.95631e-05
8.01421e-05
7.96862e-05
7.93013e-05
8.06927e-05
8.29127e-05
8.85329e-05
2.06034e-05
3.11989e-05
3.80683e-05
5.53399e-05
5.69413e-05
6.04946e-05
6.96571e-05
7.51687e-05
7.56857e-05
7.74477e-05
7.69342e-05
7.42996e-05
7.33195e-05
7.60287e-05
8.01639e-05
8.30848e-05
8.33316e-05
8.39603e-05
8.42421e-05
8.61398e-05
2.08126e-05
3.04384e-05
3.83439e-05
4.95506e-05
6.96443e-05
8.21975e-05
8.36039e-05
8.41791e-05
8.43088e-05
8.63333e-05
8.84158e-05
9.06386e-05
9.99596e-05
0.000113369
0.000115489
0.000118482
0.00012303
0.000139286
0.000168428
0.000197889
2.10587e-05
3.05745e-05
4.43988e-05
7.63196e-05
0.000101735
0.000119837
0.000131936
0.000176981
0.000208503
0.000287803
0.000336146
0.000433562
0.000502453
0.000675973
0.000752398
0.000955049
0.00112224
0.00154928
0.00186433
0.0024518
2.16558e-05
4.3509e-05
0.000121906
0.000337962
0.000493905
0.000859632
0.00116417
0.0020662
0.0026248
0.00398583
0.00478249
0.00638598
0.00736158
0.00970533
0.0107837
0.0137031
0.0156452
0.0202604
0.0229035
0.0291925
2.48877e-05
0.000306615
0.00153778
0.00444595
0.00697474
0.0127844
0.0169184
0.0273776
0.0329272
0.0453177
0.0516753
0.0642849
0.0711123
0.0869551
0.0935539
0.110642
0.12053
0.143797
0.155527
0.18718
0.000123234
0.00491588
0.0241427
0.0528789
0.0839182
0.128071
0.155413
0.213189
0.239025
0.290268
0.316601
0.359675
0.383255
0.434953
0.45395
0.502719
0.528009
0.588039
0.61389
0.682302
0.00336459
0.0695484
0.264356
0.41223
0.586417
0.70382
0.829831
0.937306
1.01862
1.09941
1.16287
1.20777
1.25761
1.31043
1.32986
1.37794
1.40061
1.45272
1.47057
1.51752
0.0845949
0.727729
1.57082
1.9324
2.28549
2.4282
2.58053
2.5969
2.62637
2.59957
2.58842
2.53804
2.52415
2.47499
2.45955
2.41738
2.40884
2.38045
2.36807
2.34093
1.40626
4.3506
5.32045
5.28521
5.1324
4.79495
4.59369
4.26909
4.13521
3.86805
3.7766
3.58095
3.52091
3.3647
3.33269
3.20252
3.174
3.05866
3.02161
2.9229
8.12022
10.265
8.79277
6.81684
5.71435
4.95677
4.54356
4.12461
3.93202
3.64635
3.55461
3.35299
3.30358
3.13412
3.11068
2.94872
2.9174
2.74316
2.68739
2.47719
1.83538
1.31436
1.02704
0.859604
0.756861
0.696468
0.655173
0.629179
0.607553
0.591907
0.576564
0.561977
0.547599
0.532652
0.519268
0.505817
0.493689
0.482614
0.474194
0.466564
0.460268
0.455002
0.450467
0.446737
0.442661
0.439365
0.433992
0.429681
0.421673
0.416658
0.407501
0.402086
0.392564
0.38819
0.379939
0.377538
0.372647
0.372316
0.371542
0.372779
0.372788
0.373257
0.372363
0.37111
0.366767
0.363761
0.355319
0.350717
0.339442
0.333376
0.319466
0.311646
0.295392
0.28496
0.270755
0.25969
0.250195
0.241723
0.238401
0.238943
0.243282
0.250751
0.266489
0.282433
0.305216
0.313917
0.325652
0.328281
0.329752
0.328647
0.324871
0.32239
0.318382
0.321873
0.322472
0.330868
0.334612
0.349336
0.386753
0.442589
0.450753
0.441079
0.416063
0.353074
0.270235
0.209494
0.170362
0.141263
0.122923
0.108884
0.0991072
0.0894802
0.0828081
0.077359
0.0745177
0.074139
0.0749486
0.0772957
0.0823033
0.0937606
0.111181
0.132875
0.144699
0.147055
0.145591
0.141933
0.131983
0.114671
0.0778633
0.043359
0.0243973
0.0146937
0.0102835
0.00861881
0.00835775
0.00855839
0.00973474
0.0134801
0.0239979
0.0418256
0.0789666
0.120895
0.150661
0.179809
0.193243
0.191218
0.183299
0.165407
0.142091
0.115368
0.0930887
0.0694609
0.0536593
0.0367815
0.0252786
0.0194422
0.0176382
0.0178574
0.0204559
0.0309204
0.0618649
0.138514
0.241748
0.271749
0.262969
0.241335
0.202708
0.167211
0.134723
0.10508
0.0916109
0.0803972
0.0774752
0.0785112
0.0817505
0.0887593
0.100224
0.103587
0.103809
0.101957
0.0972538
0.0908466
0.0826594
0.0667427
0.0523794
0.0475034
0.046354
0.0444822
0.0362098
0.033521
0.0295566
0.025773
0.0242746
0.0246855
0.0271923
0.0265131
0.0262044
0.0268764
0.0267305
0.0252883
0.0235077
0.0224862
0.022235
0.0231704
0.0272207
0.0382233
0.0450408
0.0471996
0.053834
0.0740686
0.0890504
0.0947741
0.0983352
0.102181
0.1107
0.120486
0.14727
0.168289
0.341944
1.06847
2.55735
2.10552
1.76065
1.51577
1.33199
1.19519
1.09211
1.01317
0.951495
0.901185
0.859768
0.824789
0.794758
0.768298
0.743604
0.722741
0.703164
0.686297
0.66894
0.656808
0.642685
0.633046
0.619996
0.613305
0.602864
0.597444
0.587862
0.583692
0.575229
0.570649
0.560541
0.555308
0.544294
0.53916
0.528446
0.524213
0.515699
0.512616
0.506512
0.504096
0.500068
0.498641
0.494883
0.493901
0.489679
0.488338
0.483379
0.481027
0.474966
0.471621
0.464859
0.459295
0.453255
0.442887
0.437721
0.42584
0.420354
0.408329
0.403829
0.395209
0.391795
0.384657
0.380934
0.373048
0.368911
0.35969
0.354196
0.3458
0.331534
0.322813
0.300281
0.288161
0.265481
0.244113
0.232353
0.233216
0.244266
0.253343
0.26574
0.277581
0.301216
0.346563
0.368655
0.366468
0.356869
0.333923
0.299082
0.251388
0.215315
0.178971
0.155381
0.136056
0.121765
0.115303
0.115228
0.11711
0.123932
0.132323
0.145859
0.158451
0.160936
0.159709
0.156872
0.151181
0.138675
0.119421
0.0863634
0.0495731
0.0282269
0.0165334
0.0108636
0.00835523
0.00764146
0.00775558
0.00833068
0.0104706
0.0163996
0.0304032
0.0649698
0.117904
0.20435
0.262852
0.309315
0.312265
0.305601
0.291207
0.273401
0.254091
0.227891
0.19603
0.159074
0.1201
0.0847471
0.060225
0.0436609
0.0293707
0.021351
0.0185707
0.0184934
0.020429
0.0292896
0.0550616
0.11076
0.200097
0.235008
0.23192
0.216202
0.195837
0.175373
0.152648
0.139335
0.129135
0.123038
0.120258
0.12012
0.118691
0.116784
0.111669
0.107938
0.101193
0.0944037
0.0807921
0.0654765
0.0529214
0.0462386
0.0445432
0.0432406
0.0390071
0.0303778
0.028201
0.0258552
0.0245738
0.0235332
0.0246443
0.0267015
0.0257821
0.0249164
0.0258438
0.0265177
0.025877
0.0232161
0.0215727
0.02095
0.0215494
0.025971
0.0327895
0.0364481
0.0385337
0.0470248
0.0686843
0.0967335
0.104072
0.111654
0.108098
0.116798
0.112863
0.161465
0.169759
0.315017
0.654348
2.08038
1.8547
1.64086
1.46633
1.32601
1.21134
1.11952
1.04265
0.979903
0.927215
0.880708
0.841738
0.806832
0.778471
0.750561
0.728417
0.70535
0.687672
0.667447
0.652121
0.636187
0.623723
0.610854
0.601186
0.5899
0.584237
0.572771
0.567979
0.559699
0.555823
0.548107
0.544822
0.538227
0.534706
0.528257
0.523269
0.517144
0.512306
0.506297
0.500809
0.496209
0.491919
0.48625
0.484258
0.479721
0.476999
0.474111
0.472686
0.469121
0.466424
0.465301
0.459888
0.458714
0.453144
0.450874
0.446253
0.439077
0.435118
0.426445
0.418344
0.407581
0.397678
0.383308
0.373807
0.352651
0.340824
0.315541
0.300032
0.267158
0.245997
0.218803
0.191393
0.164755
0.147911
0.134625
0.125401
0.124937
0.126785
0.131667
0.143714
0.156248
0.174806
0.193314
0.23536
0.277123
0.292495
0.291579
0.288036
0.278342
0.269157
0.257065
0.246519
0.23532
0.225047
0.213459
0.205049
0.199654
0.191685
0.185494
0.180058
0.168731
0.157843
0.140204
0.113782
0.0805048
0.048162
0.028215
0.0168568
0.0108013
0.00792927
0.00674276
0.00677987
0.00712121
0.00833359
0.0118375
0.0203873
0.0402006
0.0852822
0.180969
0.308885
0.401132
0.400542
0.385856
0.356715
0.330318
0.309466
0.288488
0.273232
0.260311
0.243107
0.218352
0.1866
0.144293
0.10076
0.0676118
0.0479208
0.0310956
0.0225192
0.0191837
0.0188296
0.0204374
0.0276094
0.0466396
0.0872932
0.154718
0.196869
0.20026
0.194108
0.180527
0.168808
0.156002
0.149076
0.13954
0.135472
0.129175
0.124101
0.118669
0.111071
0.103201
0.0932997
0.0779412
0.0603908
0.0519945
0.0461688
0.043708
0.0425659
0.0397403
0.0307519
0.0258382
0.0249124
0.0248762
0.0241216
0.0237342
0.0256309
0.0277865
0.0271135
0.0253795
0.0259158
0.0264517
0.0260742
0.0238199
0.0210119
0.0203009
0.0213836
0.0250225
0.0300332
0.0317513
0.0332228
0.0480029
0.0695309
0.117498
0.124346
0.155984
0.139369
0.190785
0.150177
0.226504
0.192423
0.235087
0.410082
1.33485
1.24301
1.14958
1.06145
0.980705
0.915219
0.855619
0.806254
0.764153
0.723713
0.691237
0.660276
0.631273
0.610742
0.587926
0.570223
0.553911
0.537177
0.522781
0.506071
0.493288
0.479582
0.467785
0.458285
0.446868
0.44032
0.432324
0.423189
0.418112
0.412438
0.405422
0.401863
0.399086
0.394783
0.392902
0.389887
0.38831
0.383814
0.382006
0.37754
0.372085
0.369304
0.36198
0.35685
0.35428
0.347506
0.346068
0.342612
0.342366
0.341086
0.341492
0.34065
0.340375
0.339498
0.338123
0.334165
0.331147
0.32426
0.319412
0.308059
0.298505
0.286843
0.271699
0.252548
0.235828
0.215037
0.190052
0.166635
0.141694
0.11616
0.0953718
0.0769201
0.0627395
0.0528109
0.0452629
0.0391335
0.037871
0.0384173
0.0402245
0.047016
0.0530223
0.0647889
0.0782392
0.0909118
0.108776
0.133409
0.164073
0.193493
0.210414
0.222151
0.22496
0.224982
0.223753
0.220448
0.212457
0.205701
0.193791
0.179972
0.165806
0.140492
0.115686
0.087315
0.0571447
0.0367079
0.0231265
0.0146777
0.00948294
0.00704527
0.00571289
0.0055696
0.00580848
0.00653705
0.00881029
0.0144268
0.0263326
0.0521251
0.112981
0.253822
0.44068
0.496823
0.477303
0.433175
0.385876
0.339625
0.307058
0.281082
0.26499
0.257307
0.25154
0.24318
0.232446
0.218115
0.194277
0.155301
0.106875
0.0753493
0.050169
0.0322564
0.0227582
0.0194998
0.0188948
0.020152
0.0255605
0.0394614
0.0688274
0.112388
0.150007
0.169859
0.168726
0.164435
0.154629
0.149045
0.139138
0.134789
0.125795
0.120437
0.10915
0.101179
0.0854033
0.0699208
0.0565884
0.0493171
0.0461525
0.043512
0.0420736
0.0391841
0.0305902
0.0255487
0.0238606
0.0240464
0.0248762
0.0244184
0.0245825
0.0271852
0.0291182
0.028192
0.0267062
0.0276839
0.02825
0.0280592
0.0250335
0.0216257
0.02087
0.0222151
0.027603
0.0298605
0.0352403
0.0353821
0.0516059
0.0889916
0.141611
0.148821
0.198233
0.194088
0.307183
0.262488
0.321018
0.274194
0.239111
0.290278
0.593545
0.571054
0.54227
0.520647
0.48615
0.466194
0.442555
0.420758
0.407583
0.387185
0.373841
0.359958
0.343156
0.333578
0.321969
0.312311
0.304765
0.297519
0.29099
0.281829
0.277217
0.267115
0.261002
0.254382
0.246859
0.241606
0.237864
0.231418
0.228628
0.225101
0.221456
0.21722
0.215011
0.210581
0.20786
0.205765
0.20372
0.201457
0.200676
0.199271
0.197432
0.196267
0.194729
0.189737
0.188133
0.18401
0.182009
0.177521
0.175478
0.173825
0.171483
0.170552
0.168343
0.167442
0.165397
0.162508
0.160356
0.155369
0.150286
0.144738
0.136481
0.12791
0.118429
0.107072
0.0953439
0.0830284
0.0704844
0.0597231
0.0497444
0.0406735
0.0338779
0.0273008
0.022186
0.0182415
0.015446
0.0130901
0.0116315
0.0113777
0.0115897
0.01246
0.0143912
0.0180007
0.0246018
0.0294705
0.0348315
0.042427
0.0508502
0.0611969
0.0748284
0.0865262
0.0982717
0.10702
0.108905
0.108072
0.105153
0.0979454
0.0871057
0.0728943
0.0579731
0.0437802
0.0320089
0.0225316
0.0156349
0.0108968
0.00754238
0.00562845
0.00454384
0.00438546
0.004558
0.00509727
0.00653433
0.0100966
0.0192348
0.0357627
0.0659073
0.137058
0.323104
0.545586
0.586266
0.552499
0.476996
0.38977
0.3084
0.256492
0.221503
0.201191
0.192561
0.193306
0.198995
0.213025
0.217522
0.215106
0.206669
0.191061
0.15526
0.108356
0.0752581
0.0510479
0.0318943
0.022785
0.0193432
0.0191814
0.0200051
0.0238665
0.0334204
0.0547855
0.0788407
0.106513
0.122515
0.133669
0.133265
0.131162
0.124583
0.119055
0.106225
0.0979659
0.0829722
0.0717586
0.0587177
0.0539605
0.0475461
0.0454182
0.043841
0.0418307
0.0371319
0.0299832
0.0254873
0.0240646
0.0236946
0.0250518
0.026472
0.027106
0.0287423
0.0336984
0.0348503
0.0331214
0.0322227
0.0333595
0.0333653
0.0316705
0.0266359
0.0236286
0.023526
0.0247191
0.0332886
0.0327658
0.0365071
0.0359154
0.0821953
0.103549
0.169379
0.165467
0.179018
0.192835
0.217791
0.245988
0.290617
0.323503
0.303324
0.309172
0.162427
0.159666
0.153129
0.149892
0.14222
0.138204
0.134552
0.129939
0.128232
0.124363
0.121422
0.118199
0.113072
0.110351
0.106337
0.104587
0.101856
0.100367
0.099525
0.0967617
0.0954336
0.0936841
0.0903756
0.0889097
0.0866539
0.0846756
0.0838579
0.0824129
0.0807392
0.0798576
0.0792691
0.0772237
0.0763534
0.0753222
0.0728596
0.0720276
0.0704323
0.0691585
0.0685182
0.0680458
0.0671813
0.0670081
0.066881
0.0662212
0.0658193
0.0648713
0.0643487
0.062663
0.0611416
0.0601683
0.0578936
0.0570252
0.0552471
0.0540246
0.0528418
0.0505619
0.0493135
0.0473474
0.0446888
0.0426911
0.0393809
0.0363533
0.03309
0.0295965
0.0261746
0.022968
0.0199262
0.0173665
0.0149041
0.0126488
0.0106599
0.00873714
0.00716153
0.00587925
0.00497384
0.00424494
0.0036194
0.00336493
0.0033612
0.0034791
0.00381037
0.00457923
0.00677204
0.00847694
0.0101563
0.0128293
0.014439
0.0170162
0.0203722
0.0237433
0.0273516
0.0309819
0.0323795
0.032271
0.0314636
0.0295643
0.0259751
0.0216706
0.0172057
0.0130068
0.00970578
0.00717507
0.00541209
0.00419798
0.00344717
0.00334029
0.00346629
0.00386703
0.00502425
0.00780907
0.013363
0.0248934
0.0504465
0.0821822
0.152591
0.362532
0.641985
0.682261
0.635118
0.514115
0.373251
0.27271
0.218815
0.191383
0.1742
0.167603
0.16348
0.161145
0.161312
0.164203
0.177958
0.198077
0.199266
0.195015
0.182541
0.149797
0.10538
0.0728602
0.0489143
0.0312692
0.0221277
0.0198223
0.0192514
0.0200787
0.0226873
0.0295858
0.0412188
0.0576988
0.0698607
0.0808055
0.085965
0.0859086
0.0835287
0.0798186
0.0716841
0.0647105
0.0576204
0.0541964
0.0492694
0.0480463
0.0446011
0.0440525
0.0421354
0.0368711
0.029449
0.0258051
0.0241614
0.0242234
0.0254212
0.0299245
0.0331542
0.0349815
0.0402416
0.0474822
0.0483113
0.0446474
0.0419342
0.0412072
0.0407102
0.0366698
0.0330683
0.0323176
0.0328461
0.0325326
0.0385517
0.0361474
0.0499751
0.0501657
0.123316
0.13389
0.151861
0.155118
0.155248
0.173891
0.191504
0.22865
0.261534
0.310298
0.371292
0.391865
0.0275949
0.0271324
0.0257937
0.0252935
0.024227
0.0238667
0.0236524
0.0234483
0.0234398
0.0232723
0.0230544
0.0227131
0.0220365
0.0216103
0.021023
0.0208583
0.0205734
0.0205074
0.0205042
0.0203551
0.0202551
0.0199768
0.0195062
0.0192068
0.0186227
0.0184086
0.018221
0.0181377
0.0180927
0.0181034
0.0181321
0.018046
0.0180325
0.0179017
0.0172559
0.0170029
0.0164153
0.0160259
0.0158576
0.0156685
0.0156499
0.0157688
0.0158869
0.0159812
0.0159845
0.0159861
0.0159697
0.0156288
0.0153851
0.0148108
0.0142303
0.013898
0.01331
0.0129682
0.0126759
0.0122592
0.011834
0.0112994
0.0105523
0.00974916
0.00882799
0.00783193
0.00700821
0.00631997
0.00561406
0.00508621
0.00464146
0.00419565
0.003788
0.0032969
0.00278659
0.00233719
0.00191439
0.00161813
0.00140724
0.00125007
0.00113814
0.00109476
0.00109462
0.00110611
0.00116257
0.00128074
0.00176096
0.00243584
0.00286539
0.00364277
0.00411981
0.00476359
0.00536662
0.00592134
0.00664636
0.00812083
0.0092535
0.00950304
0.00937734
0.00895954
0.00785408
0.00638884
0.00516578
0.0040509
0.00334178
0.00288104
0.00253629
0.00255551
0.0026629
0.00300492
0.0038765
0.00592044
0.0112183
0.0202997
0.0344816
0.0689375
0.105675
0.166378
0.350264
0.7195
0.780124
0.728302
0.570027
0.389251
0.279947
0.217337
0.185151
0.167579
0.158612
0.157498
0.157473
0.157923
0.155892
0.153456
0.155082
0.162379
0.182756
0.188565
0.185427
0.174009
0.140058
0.100017
0.0696717
0.0458852
0.0291808
0.0223233
0.0198435
0.0198516
0.0205147
0.0224336
0.0274476
0.0338386
0.0424782
0.0477418
0.0540528
0.0573886
0.0574116
0.0565731
0.054788
0.0507719
0.0494483
0.0474662
0.0463803
0.0455472
0.0430309
0.0412396
0.0352387
0.0289226
0.0258461
0.0246542
0.0250737
0.0274776
0.0353255
0.0427792
0.0479627
0.0538879
0.06281
0.0642182
0.0637298
0.0566839
0.0535666
0.0548997
0.0544438
0.0504971
0.0448343
0.0377978
0.0391755
0.03948
0.0576339
0.0449714
0.0457025
0.0559533
0.112754
0.145161
0.149341
0.145957
0.145678
0.149334
0.157095
0.211415
0.237627
0.306957
0.323702
0.417007
0.00316362
0.00313902
0.00303098
0.00294828
0.00282817
0.00277557
0.00276818
0.00277004
0.00277995
0.00277758
0.0027685
0.00274821
0.00269188
0.00266506
0.00261973
0.00261311
0.00260548
0.00260825
0.00261595
0.00260688
0.00259429
0.00252258
0.00245323
0.00239794
0.00236253
0.00236204
0.0023754
0.00245396
0.00254907
0.00262365
0.00268367
0.00269534
0.00268869
0.00259785
0.00246972
0.00238757
0.00228596
0.00223131
0.00218914
0.00216843
0.00218626
0.00227639
0.00237936
0.00247508
0.00250994
0.00254239
0.00255335
0.00251415
0.00245559
0.00234192
0.00226126
0.00220657
0.00215857
0.00212861
0.00210656
0.00207558
0.00195309
0.00180297
0.00163556
0.00143271
0.00125352
0.00109932
0.000999064
0.000947686
0.000893348
0.000865857
0.000835094
0.00078675
0.000737879
0.000669472
0.000608779
0.000556844
0.00051191
0.000487124
0.000476669
0.000476548
0.000483878
0.000505276
0.000515159
0.000531911
0.000562892
0.000576419
0.0006301
0.000748109
0.000817727
0.000939635
0.00109727
0.0013249
0.00152791
0.00158993
0.0016378
0.00202449
0.00242776
0.00248688
0.00246417
0.00236785
0.00207865
0.00195135
0.00181986
0.00182013
0.00187011
0.00193657
0.00210175
0.00246324
0.00334552
0.00546851
0.00902813
0.016126
0.0323341
0.0504405
0.0896837
0.148666
0.201525
0.315489
0.732724
0.86228
0.816872
0.671478
0.484106
0.3342
0.240672
0.19159
0.167977
0.154643
0.15124
0.151336
0.152944
0.157949
0.158197
0.155834
0.151613
0.152422
0.157933
0.176745
0.180864
0.177755
0.164914
0.126414
0.0919997
0.0646376
0.0435616
0.0286893
0.0225564
0.0204508
0.0206295
0.0214048
0.0232456
0.0272949
0.0314556
0.0341229
0.0379865
0.0409881
0.0422525
0.043117
0.0442225
0.0440533
0.0441137
0.0435365
0.0428784
0.0411495
0.0383676
0.0323838
0.0277716
0.0258924
0.0250583
0.0256661
0.0293759
0.041578
0.0556685
0.0675615
0.075298
0.0817019
0.0834274
0.0826026
0.0802109
0.0722993
0.0689646
0.0701584
0.0680702
0.0579981
0.0488356
0.0410466
0.0457914
0.0448443
0.0564723
0.0573113
0.0581111
0.063289
0.125283
0.138569
0.158605
0.149149
0.163831
0.169126
0.18661
0.226975
0.241355
0.275472
0.273452
0.29833
0.000252216
0.000264612
0.000269859
0.00026896
0.000266673
0.000261755
0.000260515
0.00026051
0.000261372
0.000262778
0.000265028
0.000265351
0.000264989
0.000263466
0.000259419
0.00025853
0.000257823
0.000257934
0.000258496
0.00025732
0.000256358
0.000254072
0.000253095
0.000254869
0.000256363
0.000261226
0.000265013
0.000270058
0.000275616
0.000278345
0.000280519
0.000279384
0.000271687
0.000259655
0.000248663
0.000242361
0.000237074
0.000234349
0.000233915
0.000235867
0.000246034
0.00025897
0.000268155
0.000276413
0.000279106
0.000280625
0.000280728
0.000273627
0.000268131
0.000259348
0.000254513
0.000253515
0.000251927
0.000252499
0.000252466
0.000250906
0.000240707
0.000225869
0.000213181
0.000200835
0.000192501
0.000189177
0.000189048
0.000190872
0.000201105
0.000208519
0.00021872
0.000232326
0.00024239
0.000275882
0.000303339
0.000322274
0.000354496
0.000364064
0.000386048
0.000399569
0.000421281
0.000462743
0.000480642
0.000483769
0.000481175
0.000462911
0.00044065
0.000435588
0.000436948
0.000447015
0.000486915
0.000521471
0.000578121
0.000627445
0.000758706
0.000861406
0.000898877
0.000938619
0.000971587
0.00101716
0.00109912
0.00123145
0.00138598
0.00153864
0.00178177
0.00221877
0.00339337
0.00533154
0.0093336
0.0161677
0.025928
0.0496614
0.0764629
0.119106
0.209212
0.262762
0.340385
0.670862
0.921348
0.882278
0.770717
0.639932
0.460355
0.310839
0.222696
0.179323
0.158926
0.149129
0.147089
0.146463
0.14699
0.151521
0.157653
0.158008
0.15386
0.152094
0.153319
0.161788
0.174045
0.175464
0.171274
0.153432
0.11261
0.0813969
0.0600997
0.041401
0.0293685
0.023352
0.0217424
0.0219229
0.0226477
0.0243891
0.0272931
0.0302283
0.0322807
0.0344446
0.0346759
0.0357887
0.0367915
0.0375766
0.0374931
0.037225
0.0361088
0.0336293
0.0301499
0.0267672
0.0254845
0.0254771
0.0264814
0.0316499
0.0480992
0.0738417
0.0885464
0.0945537
0.0959466
0.0951322
0.0926335
0.0895554
0.083411
0.0792576
0.0761888
0.0757056
0.0703464
0.0583233
0.0528029
0.0484009
0.0604191
0.054908
0.0554682
0.0570946
0.0841267
0.0810538
0.113913
0.138367
0.136965
0.14919
0.159928
0.188838
0.190122
0.206262
0.219023
0.27034
0.272512
0.267868
8.85238e-05
8.94204e-05
9.2853e-05
9.50735e-05
9.57977e-05
9.58361e-05
9.60317e-05
9.68641e-05
9.71465e-05
9.72842e-05
9.70903e-05
9.68083e-05
9.63785e-05
9.62477e-05
9.61454e-05
9.59896e-05
9.59062e-05
9.60093e-05
9.79493e-05
0.000100046
0.0001023
0.000103106
0.000103073
0.000101753
0.000100441
9.99788e-05
0.000100503
0.000102633
0.000104055
0.000104708
0.000104647
0.000103519
0.000102779
0.000102638
0.00010309
0.000103989
0.000104597
0.000104648
0.000104568
0.000103569
0.000102806
0.000102747
0.000102422
0.000102492
0.000102598
0.00010236
0.000102566
0.000102787
0.000103167
0.000105318
0.000106579
0.000109201
0.000111057
0.000113679
0.00011624
0.000118485
0.0001215
0.000124767
0.000129474
0.000134247
0.00014129
0.000148231
0.000162586
0.000182787
0.000206543
0.00026446
0.000307669
0.000357817
0.000439529
0.000544135
0.000652398
0.000698549
0.000776111
0.000849445
0.000899094
0.000988856
0.00107341
0.00116295
0.00117165
0.00115569
0.00112441
0.00106711
0.000900463
0.000742999
0.000639495
0.000592564
0.000587475
0.000610679
0.000661249
0.000701966
0.000731691
0.000758733
0.000799996
0.00085448
0.000996458
0.00113318
0.00129535
0.00152409
0.00187665
0.00247124
0.0040827
0.00596431
0.0106096
0.016721
0.0273852
0.0435926
0.0746468
0.123081
0.176
0.2981
0.360136
0.398848
0.54464
0.920253
0.919848
0.804988
0.754771
0.644236
0.459689
0.304739
0.216736
0.174245
0.156116
0.147666
0.145879
0.146132
0.148401
0.153076
0.155663
0.156059
0.155286
0.154012
0.155122
0.158488
0.167036
0.173243
0.172254
0.164117
0.137766
0.103075
0.0727809
0.0561017
0.0393368
0.0290836
0.0249304
0.0235238
0.0235394
0.0240967
0.0258257
0.0270218
0.029782
0.0313029
0.0315662
0.0326683
0.0335597
0.0335463
0.0332687
0.032627
0.0296668
0.0281012
0.026366
0.0252483
0.0254936
0.0273394
0.0342407
0.0571125
0.0905952
0.104588
0.105385
0.104902
0.103206
0.0985913
0.0945355
0.0873105
0.0822182
0.0784343
0.0765335
0.0755731
0.0671679
0.0602241
0.0583279
0.0560966
0.0627372
0.0588354
0.0590088
0.0581729
0.0700898
0.100281
0.132284
0.148582
0.148584
0.160523
0.15718
0.162478
0.168236
0.195212
0.219048
0.228833
0.274997
0.273199
8.61983e-05
8.68941e-05
8.99049e-05
9.25761e-05
9.36296e-05
9.41679e-05
9.48865e-05
9.57775e-05
9.73887e-05
9.90473e-05
0.000100874
0.000103251
0.000104649
0.000106135
0.000106905
0.000106837
0.000106812
0.000106349
0.000105324
0.00010496
0.000104593
0.000105713
0.000109726
0.000114127
0.000120247
0.000123171
0.000124508
0.000125064
0.000124612
0.000124138
0.0001245
0.00012618
0.000127306
0.000132642
0.000135015
0.000137866
0.000144338
0.000145475
0.000147858
0.00014878
0.00014667
0.000145841
0.000143104
0.000140979
0.000141348
0.000141079
0.000143929
0.000160483
0.000174174
0.000210781
0.000229865
0.000247771
0.000265576
0.000273501
0.000283358
0.00029849
0.000310091
0.000335431
0.000357046
0.000403873
0.000460479
0.000507387
0.000652908
0.000771476
0.000990712
0.00128089
0.00149667
0.00171678
0.00211538
0.00242571
0.00267135
0.00289147
0.00312043
0.00324011
0.00345438
0.00380424
0.00397809
0.00397805
0.00392108
0.0037921
0.0034792
0.00312358
0.00269339
0.00230992
0.00203991
0.00183896
0.00170068
0.00162731
0.00162811
0.00165364
0.00173592
0.00179391
0.00189231
0.00204363
0.00220737
0.00254404
0.00305774
0.00402959
0.00600015
0.00820324
0.0137606
0.0198389
0.0308849
0.049704
0.0709034
0.122597
0.184933
0.291179
0.391038
0.430235
0.439388
0.483137
0.751254
0.899305
0.807986
0.77038
0.781882
0.725537
0.528406
0.327381
0.219934
0.173936
0.15588
0.147367
0.145217
0.14646
0.150088
0.154078
0.162822
0.164838
0.16398
0.159927
0.159917
0.160787
0.168181
0.173521
0.172342
0.168008
0.152361
0.11917
0.0933457
0.071872
0.0553683
0.04229
0.0328103
0.0274817
0.0258517
0.0255104
0.0261674
0.0268927
0.0292871
0.0295212
0.0296808
0.0301784
0.0306128
0.0302709
0.029883
0.0289025
0.0269187
0.0261845
0.0261704
0.0269395
0.0298032
0.0380248
0.0644474
0.103063
0.116105
0.115303
0.110283
0.10776
0.10248
0.0969263
0.0900149
0.08241
0.0782851
0.0754685
0.0749379
0.0738042
0.0650405
0.0656125
0.0642119
0.0661376
0.0658853
0.0607503
0.0629658
0.06054
0.0738617
0.160722
0.187987
0.178658
0.180746
0.181927
0.177347
0.171713
0.165241
0.168865
0.177136
0.222027
0.240576
0.25201
0.000201832
0.000204324
0.000213127
0.00022094
0.000233936
0.000241066
0.000252352
0.000261739
0.000268206
0.000285924
0.000303649
0.000336399
0.000356787
0.000374765
0.000388434
0.00038804
0.000389499
0.000389024
0.000388679
0.000400623
0.000410311
0.000434549
0.000468327
0.000485113
0.000533206
0.000548829
0.000575176
0.000594084
0.000601442
0.000626667
0.000644178
0.000677789
0.000718547
0.000770911
0.0008109
0.000830822
0.000854772
0.000850118
0.00084724
0.000843074
0.000805683
0.000806788
0.000799835
0.000793681
0.000818356
0.000846377
0.000903597
0.00110255
0.00120186
0.00143184
0.00155719
0.0016484
0.00176482
0.00181199
0.00187229
0.00196405
0.00202357
0.00215805
0.0022693
0.00249432
0.00277766
0.00299228
0.00369712
0.00425825
0.00517492
0.00622641
0.00695116
0.00786812
0.00894346
0.00967887
0.0102552
0.0108401
0.0112313
0.0114728
0.0120414
0.0124923
0.0124857
0.0123735
0.01205
0.0114952
0.010589
0.0095895
0.00855497
0.00743854
0.00670456
0.00604368
0.00554272
0.00536057
0.00526684
0.00524916
0.00529214
0.00540815
0.00564109
0.00614939
0.00695093
0.00829811
0.0110539
0.013784
0.0203647
0.0276605
0.0406992
0.0582778
0.0849726
0.129886
0.189027
0.307731
0.416286
0.474533
0.480556
0.463976
0.464205
0.553885
0.811866
0.798847
0.707956
0.75568
0.828464
0.885193
0.711202
0.426039
0.261054
0.189858
0.162972
0.150301
0.145322
0.146133
0.149146
0.156267
0.165074
0.168433
0.170831
0.172589
0.171264
0.170742
0.173269
0.174121
0.173202
0.17177
0.16473
0.13834
0.10688
0.0852777
0.0687148
0.0506566
0.0438846
0.0375372
0.0317158
0.0292293
0.0286355
0.0287659
0.0297344
0.0296923
0.0292818
0.0285983
0.0286175
0.0285099
0.0279783
0.0276561
0.0279825
0.0289378
0.0313627
0.0357873
0.0444387
0.0670657
0.106809
0.124728
0.124042
0.117137
0.107054
0.0997891
0.0902705
0.0871303
0.0848535
0.0824425
0.0758097
0.0743535
0.0734974
0.0722002
0.0656606
0.066671
0.0655473
0.0658394
0.067783
0.0624201
0.0667971
0.0669657
0.0944376
0.20927
0.203703
0.197514
0.1805
0.183429
0.182747
0.182099
0.171233
0.164894
0.177999
0.197238
0.200605
0.211314
0.0025741
0.00264676
0.00277021
0.00285748
0.00291009
0.00292804
0.00295587
0.00301898
0.00307739
0.00321918
0.00340973
0.00371644
0.00395342
0.00410369
0.00425048
0.00427249
0.00429452
0.00428825
0.00428701
0.00434911
0.0044007
0.00458807
0.00479177
0.00493766
0.00529468
0.00540663
0.00562336
0.00581408
0.00588446
0.00610102
0.00616224
0.00625745
0.00633234
0.00638782
0.00649875
0.00651271
0.00656814
0.00656927
0.00657521
0.0066161
0.006588
0.00664084
0.00672744
0.00679626
0.00712773
0.00728422
0.00747094
0.00802317
0.00828428
0.00896898
0.0094257
0.00975182
0.0102439
0.0104538
0.0107416
0.0111043
0.0113278
0.0118439
0.0123329
0.0130058
0.0141153
0.0148867
0.0171845
0.0189354
0.02136
0.0240048
0.0258167
0.0283538
0.030416
0.0318581
0.0336052
0.0346556
0.0353072
0.0363952
0.0366247
0.0365049
0.0359165
0.0348258
0.0334598
0.0310004
0.0290042
0.0261872
0.0237862
0.0212924
0.0196048
0.0178673
0.0167855
0.0161402
0.0154836
0.0154828
0.015646
0.0163117
0.0174413
0.0192099
0.0236583
0.0273413
0.0358647
0.0445775
0.0614679
0.0809044
0.108897
0.16291
0.211579
0.314143
0.43822
0.505933
0.524811
0.517091
0.464785
0.42175
0.443401
0.596091
0.732391
0.656735
0.647612
0.716671
0.813098
0.99384
0.993972
0.6065
0.3385
0.222697
0.180969
0.165396
0.15622
0.151072
0.148732
0.155399
0.161799
0.169823
0.177684
0.181221
0.179755
0.179309
0.177641
0.177453
0.176751
0.176061
0.171826
0.147444
0.127591
0.104813
0.0851319
0.0706249
0.0606474
0.049287
0.0428394
0.040556
0.0366285
0.0348502
0.0337183
0.0323849
0.0305899
0.0295995
0.0294612
0.0294654
0.0299075
0.0311428
0.0349298