/*--------------------------------*- C++ -*----------------------------------*\
| =========                 |                                                 |
| \\      /  F ield         | OpenFOAM: The Open Source CFD Toolbox           |
|  \\    /   O peration     | Version:  2.4.0                                 |
|   \\  /    A nd           | Web:      www.OpenFOAM.org                      |
|    \\/     M anipulation  |                                                 |
\*---------------------------------------------------------------------------*/
FoamFile
{
    version     2.0;
    format      ascii;
    class       surfaceScalarField;
    location    "1.21";
    object      phi_0;
}
// * * * * * * * * * * * * * * * * * * * * * * * * * * * * * * * * * * * * * //

dimensions      [0 3 -1 0 0 0 0];

internalField   nonuniform List<scalar> 
17320
(
1.764e-05
7.35998e-06
1.16136e-05
6.02647e-06
8.68436e-06
2.92919e-06
7.35839e-06
1.32597e-06
6.71004e-06
6.48359e-07
6.35359e-06
3.56442e-07
6.0764e-06
2.77195e-07
5.85918e-06
2.17221e-07
5.71814e-06
1.41038e-07
5.58277e-06
1.35366e-07
5.47168e-06
1.1109e-07
5.3956e-06
7.60838e-08
5.29767e-06
9.79255e-08
5.23487e-06
6.28025e-08
5.12913e-06
1.05745e-07
5.07366e-06
5.54696e-08
4.97461e-06
9.90444e-08
4.99193e-06
-1.73215e-08
4.78693e-06
2.0501e-07
-4.1134e-07
5.19827e-06
2.54633e-05
6.89671e-06
2.3241e-05
8.24878e-06
2.09982e-05
5.17195e-06
1.93164e-05
3.00774e-06
1.80716e-05
1.89321e-06
1.71251e-05
1.3029e-06
1.63591e-05
1.04325e-06
1.57668e-05
8.09473e-07
1.53199e-05
5.87922e-07
1.49334e-05
5.21927e-07
1.46273e-05
4.17099e-07
1.43817e-05
3.21708e-07
1.41391e-05
3.4053e-07
1.39501e-05
2.51787e-07
1.37145e-05
3.41369e-07
1.35643e-05
2.05662e-07
1.33325e-05
3.30877e-07
1.32789e-05
3.62568e-08
1.3123e-05
3.60908e-07
-5.08698e-07
1.32204e-05
2.66199e-05
5.2768e-06
2.71438e-05
7.72494e-06
2.67988e-05
5.51693e-06
2.62422e-05
3.56436e-06
2.56047e-05
2.53072e-06
2.48867e-05
2.02082e-06
2.41502e-05
1.77981e-06
2.35007e-05
1.45892e-06
2.29438e-05
1.14489e-06
2.24442e-05
1.02145e-06
2.20316e-05
8.29718e-07
2.16808e-05
6.72505e-07
2.13523e-05
6.69098e-07
2.10818e-05
5.22241e-07
2.07768e-05
6.4636e-07
2.05549e-05
4.27552e-07
2.02708e-05
6.15009e-07
2.01266e-05
1.8048e-07
2.00864e-05
4.01114e-07
-8.89275e-07
2.04669e-05
2.63207e-05
3.95609e-06
2.75134e-05
6.53223e-06
2.81135e-05
4.91684e-06
2.84466e-05
3.23126e-06
2.86507e-05
2.32666e-06
2.8641e-05
2.0305e-06
2.84608e-05
1.96001e-06
2.82365e-05
1.68321e-06
2.79721e-05
1.40933e-06
2.76903e-05
1.30317e-06
2.74343e-05
1.08576e-06
2.71692e-05
9.37642e-07
2.69197e-05
9.18603e-07
2.66745e-05
7.67365e-07
2.64242e-05
8.96659e-07
2.61798e-05
6.71973e-07
2.59564e-05
8.38382e-07
2.56657e-05
4.71228e-07
2.55027e-05
5.64091e-07
-5.60009e-07
2.51734e-05
2.60402e-05
2.91594e-06
2.71898e-05
5.38257e-06
2.80655e-05
4.0411e-06
2.85082e-05
2.78863e-06
2.89829e-05
1.85197e-06
2.9355e-05
1.65833e-06
2.95744e-05
1.74069e-06
2.97435e-05
1.51409e-06
2.98475e-05
1.30532e-06
2.98949e-05
1.25578e-06
2.99649e-05
1.01572e-06
2.99595e-05
9.43109e-07
2.99795e-05
8.98526e-07
2.99056e-05
8.41301e-07
2.9898e-05
9.04269e-07
2.97745e-05
7.955e-07
2.97209e-05
8.91898e-07
2.94283e-05
7.63893e-07
2.92929e-05
6.99437e-07
-1.34566e-09
2.87343e-05
2.58633e-05
2.05263e-06
2.68927e-05
4.35321e-06
2.78075e-05
3.12627e-06
2.82344e-05
2.3617e-06
2.86971e-05
1.38932e-06
2.91218e-05
1.23365e-06
2.94492e-05
1.41327e-06
2.96953e-05
1.26797e-06
3.00221e-05
9.78552e-07
3.01381e-05
1.13972e-06
3.03976e-05
7.56263e-07
3.05068e-05
8.33881e-07
3.07852e-05
6.20161e-07
3.07802e-05
8.46299e-07
3.10428e-05
6.41666e-07
3.10193e-05
8.18962e-07
3.12244e-05
6.86847e-07
3.09308e-05
1.05745e-06
3.09818e-05
6.48464e-07
7.65444e-07
3.0215e-05
2.57085e-05
1.34411e-06
2.66939e-05
3.36781e-06
2.75789e-05
2.24131e-06
2.801e-05
1.93058e-06
2.84651e-05
9.34192e-07
2.88607e-05
8.381e-07
2.92218e-05
1.05212e-06
2.94316e-05
1.05815e-06
2.98505e-05
5.59724e-07
2.99466e-05
1.04363e-06
3.02459e-05
4.56951e-07
3.03709e-05
7.08878e-07
3.07121e-05
2.7898e-07
3.06936e-05
8.64726e-07
3.1039e-05
2.96245e-07
3.10402e-05
8.17853e-07
3.139e-05
3.37052e-07
3.11094e-05
1.33798e-06
3.10463e-05
7.11573e-07
1.68185e-06
3.01299e-05
2.55117e-05
8.32411e-07
2.65435e-05
2.33599e-06
2.74563e-05
1.32856e-06
2.79631e-05
1.42375e-06
2.83758e-05
5.21493e-07
2.87214e-05
4.92451e-07
2.90105e-05
7.63077e-07
2.93117e-05
7.56973e-07
2.96344e-05
2.36976e-07
2.9862e-05
8.1602e-07
3.00004e-05
3.18537e-07
3.02547e-05
4.54628e-07
3.04347e-05
9.89246e-08
3.06474e-05
6.52112e-07
3.07725e-05
1.71111e-07
3.10187e-05
5.71676e-07
3.1047e-05
3.08753e-07
3.14686e-05
9.16312e-07
3.18788e-05
3.0144e-07
8.06196e-07
3.27544e-05
2.54254e-05
4.06973e-07
2.64932e-05
1.2682e-06
2.73509e-05
4.7086e-07
2.79303e-05
8.44377e-07
2.82858e-05
1.66e-07
2.85939e-05
1.8431e-07
2.88426e-05
5.14453e-07
2.92107e-05
3.8885e-07
2.94913e-05
-4.36089e-08
2.97355e-05
5.7174e-07
2.98956e-05
1.5844e-07
3.01482e-05
2.02038e-07
3.02929e-05
-4.57511e-08
3.05747e-05
3.70365e-07
3.06317e-05
1.14041e-07
3.09253e-05
2.78134e-07
3.10133e-05
2.20748e-07
3.14868e-05
4.42822e-07
3.16654e-05
1.22807e-07
3.50539e-07
3.21211e-05
2.53808e-05
2.61713e-08
2.64836e-05
1.65405e-07
2.72922e-05
-3.37703e-07
2.78988e-05
2.37771e-07
2.82005e-05
-1.35714e-07
2.84665e-05
-8.17189e-08
2.8861e-05
1.19949e-07
2.92045e-05
4.53599e-08
2.93336e-05
-1.72695e-07
2.96956e-05
2.09732e-07
2.99494e-05
-9.54085e-08
3.01039e-05
4.76311e-08
3.02283e-05
-1.70222e-07
3.04651e-05
1.33561e-07
3.06646e-05
-8.54326e-08
3.08741e-05
6.86786e-08
3.10267e-05
6.81044e-08
3.13695e-05
9.99749e-08
3.16297e-05
-1.37318e-07
1.21622e-07
3.18586e-05
2.54284e-05
-4.02238e-07
2.64805e-05
-8.86653e-07
2.72635e-05
-1.12077e-06
2.79536e-05
-4.52318e-07
2.82003e-05
-3.82444e-07
2.84838e-05
-3.65138e-07
2.88103e-05
-2.06586e-07
2.91936e-05
-3.37934e-07
2.93671e-05
-3.46213e-07
2.9708e-05
-1.31203e-07
2.99047e-05
-2.92016e-07
3.01187e-05
-1.66427e-07
3.01693e-05
-2.20838e-07
3.04565e-05
-1.53651e-07
3.06132e-05
-2.42062e-07
3.09035e-05
-2.21696e-07
3.10845e-05
-1.12831e-07
3.13508e-05
-1.66299e-07
3.1567e-05
-3.53545e-07
-1.94864e-07
3.18835e-05
2.5485e-05
-8.87221e-07
2.65463e-05
-1.94794e-06
2.73116e-05
-1.88608e-06
2.79056e-05
-1.04629e-06
2.82183e-05
-6.9515e-07
2.85661e-05
-7.12948e-07
2.88725e-05
-5.12989e-07
2.92284e-05
-6.93843e-07
2.94272e-05
-5.44979e-07
2.97702e-05
-4.74291e-07
2.99593e-05
-4.81036e-07
3.01247e-05
-3.31906e-07
3.03083e-05
-4.04389e-07
3.05655e-05
-4.10812e-07
3.06804e-05
-3.57024e-07
3.08918e-05
-4.33104e-07
3.11338e-05
-3.54755e-07
3.14343e-05
-4.66889e-07
3.16372e-05
-5.5644e-07
-4.73533e-07
3.19159e-05
2.55505e-05
-1.43776e-06
2.66016e-05
-2.99897e-06
2.73943e-05
-2.67877e-06
2.80121e-05
-1.66416e-06
2.83483e-05
-1.03134e-06
2.86627e-05
-1.02729e-06
2.89788e-05
-8.29116e-07
2.93512e-05
-1.06623e-06
2.95674e-05
-7.61235e-07
2.98595e-05
-7.66331e-07
3.00305e-05
-6.52053e-07
3.02526e-05
-5.54051e-07
3.0419e-05
-5.70767e-07
3.06574e-05
-6.49222e-07
3.0758e-05
-4.57597e-07
3.10018e-05
-6.76947e-07
3.12602e-05
-6.13063e-07
3.15567e-05
-7.63434e-07
3.17655e-05
-7.65291e-07
-6.94295e-07
3.19863e-05
2.56743e-05
-2.11204e-06
2.67671e-05
-4.09176e-06
2.75735e-05
-3.48523e-06
2.80738e-05
-2.16447e-06
2.84986e-05
-1.45617e-06
2.88386e-05
-1.36721e-06
2.91748e-05
-1.16529e-06
2.94989e-05
-1.39036e-06
2.97289e-05
-9.91272e-07
3.00096e-05
-1.04701e-06
3.02191e-05
-8.61604e-07
3.04253e-05
-7.60228e-07
3.0593e-05
-7.38402e-07
3.08087e-05
-8.64937e-07
3.09067e-05
-5.55623e-07
3.1163e-05
-9.33205e-07
3.13744e-05
-8.24465e-07
3.16733e-05
-1.06233e-06
3.18857e-05
-9.77743e-07
-9.813e-07
3.21727e-05
2.58407e-05
-2.95278e-06
2.69662e-05
-5.21725e-06
2.77991e-05
-4.31807e-06
2.82502e-05
-2.61559e-06
2.87043e-05
-1.91031e-06
2.90732e-05
-1.73607e-06
2.94477e-05
-1.5398e-06
2.97192e-05
-1.66184e-06
2.99759e-05
-1.24798e-06
3.0194e-05
-1.26508e-06
3.03852e-05
-1.05286e-06
3.05429e-05
-9.1794e-07
3.06987e-05
-8.94165e-07
3.0839e-05
-1.00527e-06
3.09509e-05
-6.67535e-07
3.10998e-05
-1.08204e-06
3.12181e-05
-9.42778e-07
3.14187e-05
-1.26294e-06
3.1545e-05
-1.10404e-06
-1.2867e-06
3.18504e-05
2.60398e-05
-3.99254e-06
2.72518e-05
-6.42933e-06
2.80217e-05
-5.08792e-06
2.85031e-05
-3.09703e-06
2.8967e-05
-2.37417e-06
2.93182e-05
-2.08726e-06
2.96011e-05
-1.82271e-06
2.97155e-05
-1.77621e-06
2.98628e-05
-1.3953e-06
2.99043e-05
-1.30658e-06
2.99456e-05
-1.09413e-06
2.9956e-05
-9.28344e-07
2.99557e-05
-8.93928e-07
2.98974e-05
-9.46901e-07
2.9881e-05
-6.51134e-07
2.97889e-05
-9.90007e-07
2.97077e-05
-8.61543e-07
2.96395e-05
-1.19474e-06
2.95665e-05
-1.03103e-06
-1.39642e-06
2.96762e-05
2.63127e-05
-5.30524e-06
2.75488e-05
-7.66542e-06
2.80626e-05
-5.60175e-06
2.84573e-05
-3.49174e-06
2.86328e-05
-2.54965e-06
2.86206e-05
-2.075e-06
2.84844e-05
-1.68655e-06
2.82148e-05
-1.50664e-06
2.79801e-05
-1.16054e-06
2.76811e-05
-1.00761e-06
2.74179e-05
-8.30983e-07
2.71702e-05
-6.80575e-07
2.691e-05
-6.33778e-07
2.66379e-05
-6.74823e-07
2.64431e-05
-4.56326e-07
2.61431e-05
-6.90007e-07
2.59002e-05
-6.1863e-07
2.55803e-05
-8.74792e-07
2.53535e-05
-8.04227e-07
-1.26104e-06
2.52181e-05
2.66091e-05
-6.91433e-06
2.7162e-05
-8.21832e-06
2.67672e-05
-5.20698e-06
2.62557e-05
-2.98021e-06
2.55949e-05
-1.88882e-06
2.48694e-05
-1.34951e-06
2.41666e-05
-9.83735e-07
2.34907e-05
-8.30793e-07
2.2938e-05
-6.07806e-07
2.24385e-05
-5.08141e-07
2.20243e-05
-4.16801e-07
2.16764e-05
-3.32673e-07
2.13502e-05
-3.07509e-07
2.10361e-05
-3.608e-07
2.08023e-05
-2.22527e-07
2.04789e-05
-3.66614e-07
2.02091e-05
-3.48737e-07
1.98097e-05
-4.75487e-07
1.94568e-05
-4.5125e-07
-4.25711e-07
1.86214e-05
2.54524e-05
-7.36671e-06
2.32493e-05
-6.01519e-06
2.09808e-05
-2.93857e-06
1.93226e-05
-1.32194e-06
1.8072e-05
-6.3826e-07
1.71065e-05
-3.84032e-07
1.63729e-05
-2.50073e-07
1.57643e-05
-2.22224e-07
1.53099e-05
-1.53371e-07
1.49305e-05
-1.28815e-07
1.46237e-05
-1.09972e-07
1.43739e-05
-8.28263e-08
1.41439e-05
-7.75093e-08
1.39017e-05
-1.18638e-07
1.3733e-05
-5.37951e-08
1.34827e-05
-1.16339e-07
1.32512e-05
-1.17244e-07
1.2935e-05
-1.59327e-07
1.26831e-05
-1.99265e-07
-5.37702e-08
1.23111e-05
1.76333e-05
1.16181e-05
8.67953e-06
7.35759e-06
6.71933e-06
6.3353e-06
6.08522e-06
5.863e-06
5.70963e-06
5.58081e-06
5.47084e-06
5.38802e-06
5.31051e-06
5.19187e-06
5.13807e-06
5.02173e-06
4.90449e-06
4.74516e-06
4.5459e-06
4.49213e-06
5.71983e-06
-1.7945e-07
-3.42117e-07
6.12006e-06
-3.654e-08
-3.63692e-07
6.36379e-06
-5.30957e-09
-2.38418e-07
6.53848e-06
-1.00764e-08
-1.64617e-07
6.71581e-06
-6.28405e-08
-1.14485e-07
6.88801e-06
-1.00428e-07
-7.17747e-08
7.06522e-06
-1.2982e-07
-4.73878e-08
7.23918e-06
-1.38977e-07
-3.49838e-08
7.39427e-06
-1.22156e-07
-3.29324e-08
7.53505e-06
-1.02073e-07
-3.87106e-08
7.65029e-06
-7.11159e-08
-4.41255e-08
7.76462e-06
-4.81204e-08
-6.62061e-08
7.88634e-06
-3.22142e-08
-8.95042e-08
8.00199e-06
-1.01488e-08
-1.05498e-07
8.12377e-06
-4.24981e-09
-1.17533e-07
8.2459e-06
-1.91625e-09
-1.20213e-07
8.36641e-06
-1.62054e-09
-1.18891e-07
8.48829e-06
-6.08899e-09
-1.1579e-07
8.60247e-06
-1.31834e-08
-1.00998e-07
8.71521e-06
-3.39199e-08
-7.88181e-08
8.81686e-06
-4.20612e-08
-5.95887e-08
8.9076e-06
-5.27512e-08
-3.7987e-08
8.98771e-06
-6.51981e-08
-1.49155e-08
9.06129e-06
-7.39055e-08
3.2619e-10
9.12759e-06
-6.95932e-08
3.29508e-09
9.19038e-06
-5.89804e-08
-3.80987e-09
9.26089e-06
-4.04376e-08
-3.00772e-08
9.34405e-06
-1.66953e-08
-6.64618e-08
9.4408e-06
1.85843e-08
-1.15334e-07
9.54518e-06
5.40704e-08
-1.58445e-07
9.65582e-06
7.18939e-08
-1.82538e-07
9.7641e-06
8.23913e-08
-1.90668e-07
9.86174e-06
8.3787e-08
-1.81431e-07
9.945e-06
6.66945e-08
-1.49949e-07
1.00162e-05
4.07792e-08
-1.11944e-07
1.00702e-05
1.394e-08
-6.79685e-08
1.0106e-05
-2.14114e-08
-1.43663e-08
1.01249e-05
-4.33154e-08
2.43352e-08
1.01374e-05
-5.85992e-08
4.61932e-08
1.01561e-05
-6.18247e-08
4.30523e-08
1.01868e-05
-4.30482e-08
1.23931e-08
1.02367e-05
-1.17879e-08
-3.81596e-08
1.03108e-05
2.36386e-08
-9.7676e-08
1.0401e-05
7.52227e-08
-1.6547e-07
1.05058e-05
1.30385e-07
-2.35192e-07
1.06255e-05
1.80423e-07
-3.00067e-07
1.07434e-05
2.60474e-07
-3.78424e-07
1.08879e-05
3.14854e-07
-4.59298e-07
1.10386e-05
4.09941e-07
-5.60706e-07
1.12247e-05
4.85659e-07
-6.71735e-07
1.14519e-05
5.84256e-07
-8.11462e-07
1.17047e-05
6.76842e-07
-9.29661e-07
1.20325e-05
7.38547e-07
-1.06632e-06
1.23761e-05
8.14085e-07
-1.15771e-06
1.27551e-05
8.34139e-07
-1.21316e-06
1.31818e-05
7.85486e-07
-1.21216e-06
1.3597e-05
7.91347e-07
-1.20655e-06
1.40814e-05
5.93085e-07
-1.07741e-06
1.45077e-05
4.57304e-07
-8.83664e-07
1.49399e-05
1.7819e-07
-6.10332e-07
1.53795e-05
-1.31741e-07
-3.07907e-07
1.57379e-05
-4.99831e-07
1.41411e-07
1.60932e-05
-9.1532e-07
5.60006e-07
1.64188e-05
-1.39665e-06
1.0711e-06
1.67116e-05
-1.86061e-06
1.56777e-06
1.70358e-05
-2.36478e-06
2.04058e-06
1.73104e-05
-2.91979e-06
2.64521e-06
1.75186e-05
-3.47582e-06
3.26763e-06
1.76958e-05
-3.99079e-06
3.81358e-06
1.77635e-05
-4.39505e-06
4.32729e-06
1.78188e-05
-4.69742e-06
4.64214e-06
1.77909e-05
-4.80812e-06
4.83603e-06
1.78268e-05
-4.85636e-06
4.82047e-06
1.77131e-05
-4.41127e-06
4.52495e-06
1.74765e-05
-3.80679e-06
4.04348e-06
1.71969e-05
-2.83937e-06
3.11889e-06
1.70483e-05
-1.91079e-06
2.05942e-06
1.72841e-05
-1.09721e-06
8.61438e-07
1.73853e-05
-2.95123e-07
1.93873e-07
1.73823e-05
3.61872e-07
-3.58828e-07
1.72966e-05
1.02181e-06
-9.36127e-07
1.73144e-05
1.45392e-06
-1.47168e-06
1.7599e-05
1.8163e-06
-2.10093e-06
1.80106e-05
2.21501e-06
-2.62663e-06
1.85966e-05
2.37409e-06
-2.9601e-06
1.92963e-05
2.31077e-06
-3.01043e-06
1.99794e-05
2.29359e-06
-2.97673e-06
2.05169e-05
2.11231e-06
-2.6498e-06
2.09941e-05
1.76074e-06
-2.23791e-06
2.13211e-05
1.35547e-06
-1.68249e-06
2.18364e-05
9.62886e-07
-1.47815e-06
2.21065e-05
6.52168e-07
-9.22255e-07
2.24502e-05
1.27281e-07
-4.71077e-07
2.28261e-05
-3.03655e-07
-7.21889e-08
2.32211e-05
-8.99445e-07
5.04407e-07
2.34633e-05
-1.67219e-06
1.43003e-06
2.38661e-05
-2.42908e-06
2.02624e-06
2.40982e-05
-3.26864e-06
3.03656e-06
2.43867e-05
-4.27657e-06
3.98812e-06
2.47026e-05
-5.08227e-06
4.76638e-06
2.50643e-05
-5.96606e-06
5.6043e-06
2.56026e-05
-7.04241e-06
6.50417e-06
2.62165e-05
-7.91678e-06
7.30282e-06
2.69367e-05
-8.96671e-06
8.24651e-06
2.78343e-05
-1.00415e-05
9.14389e-06
2.87881e-05
-1.11658e-05
1.0212e-05
2.95708e-05
-1.21427e-05
1.136e-05
3.04308e-05
-1.32126e-05
1.23526e-05
3.08904e-05
-1.39377e-05
1.34781e-05
3.12202e-05
-1.45522e-05
1.42224e-05
3.12277e-05
-1.50057e-05
1.49982e-05
3.09463e-05
-1.51764e-05
1.54578e-05
3.04697e-05
-1.52828e-05
1.57594e-05
2.98949e-05
-1.522e-05
1.57948e-05
2.95783e-05
-1.52784e-05
1.5595e-05
2.951e-05
-1.54108e-05
1.5479e-05
2.99357e-05
-1.56716e-05
1.5246e-05
3.07085e-05
-1.59894e-05
1.52166e-05
3.15681e-05
-1.57725e-05
1.49129e-05
3.25151e-05
-1.54674e-05
1.45204e-05
3.3292e-05
-1.4486e-05
1.37092e-05
3.40547e-05
-1.32852e-05
1.25224e-05
3.45146e-05
-1.14953e-05
1.10354e-05
3.50533e-05
-9.78551e-06
9.24682e-06
3.53121e-05
-7.53433e-06
7.27555e-06
3.55425e-05
-5.27723e-06
5.04682e-06
3.5614e-05
-2.93224e-06
2.86077e-06
3.55894e-05
-5.45106e-07
5.6967e-07
3.52354e-05
2.08218e-06
-1.72818e-06
3.46846e-05
4.52971e-06
-3.97894e-06
3.38649e-05
6.65703e-06
-5.83733e-06
3.28374e-05
8.83319e-06
-7.8057e-06
3.16231e-05
1.03936e-05
-9.17921e-06
3.04841e-05
1.18969e-05
-1.0758e-05
2.9338e-05
1.29399e-05
-1.17938e-05
2.84263e-05
1.3869e-05
-1.29573e-05
2.77096e-05
1.48099e-05
-1.40931e-05
2.73636e-05
1.54857e-05
-1.51397e-05
2.69935e-05
1.65304e-05
-1.61603e-05
2.67457e-05
1.71919e-05
-1.69441e-05
2.62017e-05
1.79137e-05
-1.73697e-05
2.52408e-05
1.77279e-05
-1.67669e-05
2.41362e-05
1.70633e-05
-1.59587e-05
2.34495e-05
1.59454e-05
-1.52588e-05
2.33045e-05
1.5062e-05
-1.49169e-05
2.37629e-05
1.41255e-05
-1.45839e-05
2.41883e-05
1.34228e-05
-1.38483e-05
2.47822e-05
1.19617e-05
-1.25556e-05
2.53258e-05
1.06191e-05
-1.11626e-05
2.56258e-05
9.26589e-06
-9.56589e-06
2.59902e-05
6.99918e-06
-7.36359e-06
2.62183e-05
5.25729e-06
-5.48538e-06
2.63121e-05
3.16869e-06
-3.2625e-06
2.63736e-05
8.43203e-07
-9.04745e-07
2.63084e-05
-9.16463e-07
9.81736e-07
2.62034e-05
-3.26673e-06
3.37171e-06
2.57709e-05
-4.83432e-06
5.26686e-06
2.55109e-05
-6.2969e-06
6.55684e-06
2.4896e-05
-8.14238e-06
8.75727e-06
2.43716e-05
-8.97896e-06
9.50341e-06
2.40256e-05
-9.95156e-06
1.02975e-05
2.35755e-05
-1.12056e-05
1.16557e-05
2.32287e-05
-1.16377e-05
1.19845e-05
2.29824e-05
-1.14656e-05
1.17119e-05
2.27657e-05
-1.20516e-05
1.22683e-05
2.21288e-05
-1.22726e-05
1.29095e-05
2.12865e-05
-1.05841e-05
1.14264e-05
2.04209e-05
-9.04833e-06
9.91393e-06
1.97956e-05
-9.08003e-06
9.70534e-06
1.92285e-05
-7.40094e-06
7.96797e-06
1.89225e-05
-5.53639e-06
5.84238e-06
1.86159e-05
-4.20566e-06
4.51225e-06
1.86877e-05
-3.77774e-06
3.70596e-06
1.85043e-05
-3.11601e-06
3.29945e-06
1.81989e-05
-6.88487e-07
9.93879e-07
1.79108e-05
1.02793e-06
-7.39855e-07
1.73201e-05
9.35761e-07
-3.45e-07
1.75028e-05
1.79674e-06
-1.97948e-06
1.74098e-05
4.05131e-06
-3.95826e-06
1.68866e-05
4.63477e-06
-4.1116e-06
1.61913e-05
5.17076e-06
-4.47547e-06
1.54745e-05
5.67788e-06
-4.96111e-06
1.55567e-05
5.59859e-06
-5.68081e-06
1.58547e-05
6.32841e-06
-6.62633e-06
1.58946e-05
7.40338e-06
-7.44333e-06
1.6168e-05
9.25515e-06
-9.52856e-06
1.5986e-05
1.2457e-05
-1.2275e-05
1.55617e-05
1.35953e-05
-1.31709e-05
1.5677e-05
1.25333e-05
-1.26486e-05
1.60667e-05
1.00838e-05
-1.04735e-05
1.69419e-05
7.28781e-06
-8.16299e-06
1.64975e-05
6.27802e-06
-5.83366e-06
1.72357e-05
2.9929e-06
-3.73115e-06
1.69684e-05
4.19548e-06
-3.92814e-06
1.77361e-05
4.75766e-06
-5.52532e-06
1.71714e-05
8.40568e-06
-7.841e-06
1.73841e-05
1.05753e-05
-1.0788e-05
1.58423e-05
1.71493e-05
-1.56075e-05
1.70304e-05
1.90032e-05
-2.01913e-05
3.23059e-05
-3.21865e-05
1.69109e-05
1.32488e-05
-2.07865e-07
1.32864e-05
-7.41805e-08
1.33128e-05
-3.16532e-08
1.33365e-05
-3.38061e-08
1.33887e-05
-1.15037e-07
1.34636e-05
-1.7531e-07
1.35609e-05
-2.27167e-07
1.36733e-05
-2.51349e-07
1.37583e-05
-2.07188e-07
1.38336e-05
-1.7735e-07
1.38933e-05
-1.30839e-07
1.39479e-05
-1.02732e-07
1.40127e-05
-9.70109e-08
1.40693e-05
-6.66689e-08
1.41328e-05
-6.77754e-08
1.41971e-05
-6.62198e-08
1.42611e-05
-6.56856e-08
1.43324e-05
-7.73551e-08
1.44013e-05
-8.20572e-08
1.44739e-05
-1.06572e-07
1.45387e-05
-1.06866e-07
1.45985e-05
-1.12551e-07
1.46525e-05
-1.19154e-07
1.46947e-05
-1.16119e-07
1.4733e-05
-1.07882e-07
1.47677e-05
-9.36941e-08
1.4801e-05
-7.36732e-08
1.48452e-05
-6.09198e-08
1.48924e-05
-2.85954e-08
1.49472e-05
-7.54451e-10
1.50053e-05
1.37344e-08
1.50651e-05
2.26503e-08
1.51194e-05
2.94487e-08
1.51671e-05
1.89909e-08
1.52116e-05
-3.73395e-09
1.52412e-05
-1.56366e-08
1.52726e-05
-5.28195e-08
1.52911e-05
-6.17707e-08
1.5303e-05
-7.04976e-08
1.53325e-05
-9.1307e-08
1.5357e-05
-6.75482e-08
1.54021e-05
-5.69483e-08
1.54536e-05
-2.78169e-08
1.55222e-05
6.63543e-09
1.55943e-05
5.82629e-08
1.56879e-05
8.68436e-08
1.5773e-05
1.75343e-07
1.58723e-05
2.15578e-07
1.59911e-05
2.91134e-07
1.61153e-05
3.6147e-07
1.62863e-05
4.13257e-07
1.64739e-05
4.89207e-07
1.66983e-05
5.14098e-07
1.69863e-05
5.26142e-07
1.72572e-05
5.63251e-07
1.76142e-05
4.28462e-07
1.79681e-05
4.37455e-07
1.83419e-05
2.19307e-07
1.87667e-05
3.25257e-08
1.91454e-05
-2.00608e-07
1.95678e-05
-5.54066e-07
1.99837e-05
-9.15798e-07
2.03575e-05
-1.28906e-06
2.07572e-05
-1.79634e-06
2.11233e-05
-2.22675e-06
2.14748e-05
-2.71623e-06
2.18533e-05
-3.29836e-06
2.20598e-05
-3.68224e-06
2.22499e-05
-4.1809e-06
2.23368e-05
-4.48196e-06
2.23293e-05
-4.68994e-06
2.22598e-05
-4.73867e-06
2.20226e-05
-4.61915e-06
2.17625e-05
-4.15115e-06
2.15264e-05
-3.57067e-06
2.15927e-05
-2.90571e-06
2.16548e-05
-1.97288e-06
2.174e-05
-1.18238e-06
2.18555e-05
-4.10676e-07
2.18304e-05
3.87029e-07
2.19056e-05
9.46627e-07
2.17881e-05
1.57139e-06
2.17504e-05
1.854e-06
2.17833e-05
2.18212e-06
2.17507e-05
2.40662e-06
2.17765e-05
2.28502e-06
2.19939e-05
2.07616e-06
2.21352e-05
1.97105e-06
2.23644e-05
1.53148e-06
2.2559e-05
1.16092e-06
2.28113e-05
7.10623e-07
2.31722e-05
2.91221e-07
2.35246e-05
-2.25168e-07
2.39452e-05
-7.24184e-07
2.43747e-05
-1.32899e-06
2.47655e-05
-2.06298e-06
2.52073e-05
-2.87085e-06
2.56273e-05
-3.68869e-06
2.60695e-05
-4.71876e-06
2.65636e-05
-5.57637e-06
2.72692e-05
-6.67168e-06
2.79059e-05
-7.67903e-06
2.8713e-05
-8.7239e-06
2.96058e-05
-9.85955e-06
3.0404e-05
-1.08397e-05
3.11201e-05
-1.18819e-05
3.1604e-05
-1.26267e-05
3.18099e-05
-1.34184e-05
3.1746e-05
-1.38739e-05
3.14126e-05
-1.42187e-05
3.07904e-05
-1.43835e-05
3.01433e-05
-1.45293e-05
2.94629e-05
-1.46024e-05
2.90993e-05
-1.48565e-05
2.90895e-05
-1.52685e-05
2.94681e-05
-1.57895e-05
3.01848e-05
-1.63883e-05
3.08981e-05
-1.67028e-05
3.1666e-05
-1.65403e-05
3.22507e-05
-1.60522e-05
3.27251e-05
-1.49603e-05
3.3138e-05
-1.36981e-05
3.34561e-05
-1.18134e-05
3.37778e-05
-1.01072e-05
3.4022e-05
-7.77853e-06
3.43447e-05
-5.59999e-06
3.45243e-05
-3.1118e-06
3.4698e-05
-7.18868e-07
3.46679e-05
2.11235e-06
3.45245e-05
4.67305e-06
3.40989e-05
7.08264e-06
3.34256e-05
9.50656e-06
3.24267e-05
1.13924e-05
3.1375e-05
1.29486e-05
2.99955e-05
1.43195e-05
2.88161e-05
1.50483e-05
2.78023e-05
1.58238e-05
2.72049e-05
1.6083e-05
2.69083e-05
1.68269e-05
2.68593e-05
1.7241e-05
2.68624e-05
1.79106e-05
2.65253e-05
1.80649e-05
2.59461e-05
1.76425e-05
2.52345e-05
1.6657e-05
2.47055e-05
1.55911e-05
2.47061e-05
1.41249e-05
2.48087e-05
1.33201e-05
2.51028e-05
1.16677e-05
2.56077e-05
1.01141e-05
2.59487e-05
8.92488e-06
2.63497e-05
6.59821e-06
2.65924e-05
5.01459e-06
2.68482e-05
2.91286e-06
2.67587e-05
9.32767e-07
2.67321e-05
-8.89931e-07
2.65061e-05
-3.04068e-06
2.60703e-05
-4.39855e-06
2.58984e-05
-6.12497e-06
2.54085e-05
-7.6525e-06
2.51292e-05
-8.69963e-06
2.49273e-05
-9.74965e-06
2.46142e-05
-1.08926e-05
2.42077e-05
-1.12311e-05
2.38461e-05
-1.11041e-05
2.33848e-05
-1.15903e-05
2.24067e-05
-1.12946e-05
2.15416e-05
-9.719e-06
2.08603e-05
-8.36696e-06
2.02306e-05
-8.45032e-06
1.97389e-05
-6.90932e-06
1.95762e-05
-5.37367e-06
1.9429e-05
-4.05848e-06
1.96371e-05
-3.98577e-06
1.92287e-05
-2.70769e-06
1.90533e-05
-5.1305e-07
1.87986e-05
1.28259e-06
1.82959e-05
1.43847e-06
1.82532e-05
1.8395e-06
1.79402e-05
4.3643e-06
1.75088e-05
5.06618e-06
1.70758e-05
5.60372e-06
1.64279e-05
6.3258e-06
1.65529e-05
5.47357e-06
1.66912e-05
6.19011e-06
1.67234e-05
7.37122e-06
1.63251e-05
9.65341e-06
1.66345e-05
1.21476e-05
1.61445e-05
1.40853e-05
1.73689e-05
1.13089e-05
1.61457e-05
1.1307e-05
1.82664e-05
5.16708e-06
1.69973e-05
7.54709e-06
1.86294e-05
1.36079e-06
1.78998e-05
4.92509e-06
1.96031e-05
3.05443e-06
1.88882e-05
9.1205e-06
2.1581e-05
7.88258e-06
2.03916e-05
1.83387e-05
2.63041e-05
1.30907e-05
3.29928e-05
2.56172e-05
2.02691e-05
-1.0043e-08
1.99908e-05
2.04159e-07
1.98153e-05
1.43804e-07
1.97708e-05
1.07257e-08
1.98441e-05
-1.8834e-07
1.99359e-05
-2.67076e-07
2.00098e-05
-3.01113e-07
2.0059e-05
-3.00563e-07
2.00762e-05
-2.24345e-07
2.01023e-05
-2.03478e-07
2.01271e-05
-1.55646e-07
2.01523e-05
-1.27892e-07
2.01906e-05
-1.3536e-07
2.02202e-05
-9.62267e-08
2.02641e-05
-1.11678e-07
2.03008e-05
-1.02947e-07
2.03352e-05
-1.00038e-07
2.03659e-05
-1.08133e-07
2.03947e-05
-1.10852e-07
2.04358e-05
-1.47654e-07
2.04633e-05
-1.34377e-07
2.04955e-05
-1.44733e-07
2.05238e-05
-1.47446e-07
2.05476e-05
-1.39958e-07
2.05686e-05
-1.28884e-07
2.05862e-05
-1.11272e-07
2.06086e-05
-9.60415e-08
2.06304e-05
-8.27367e-08
2.06581e-05
-5.62943e-08
2.06806e-05
-2.32512e-08
2.0707e-05
-1.26588e-08
2.07378e-05
-8.15495e-09
2.07553e-05
1.19211e-08
2.07739e-05
4.29181e-10
2.079e-05
-1.98694e-08
2.07969e-05
-2.25313e-08
2.08057e-05
-6.16562e-08
2.08199e-05
-7.58729e-08
2.08154e-05
-6.60501e-08
2.08346e-05
-1.10518e-07
2.08582e-05
-9.11134e-08
2.08733e-05
-7.20243e-08
2.09242e-05
-7.87448e-08
2.09677e-05
-3.68984e-08
2.10182e-05
7.79223e-09
2.1101e-05
4.01525e-09
2.11569e-05
1.19497e-07
2.12507e-05
1.21773e-07
2.13365e-05
2.05321e-07
2.14535e-05
2.44407e-07
2.15689e-05
2.97932e-07
2.17324e-05
3.25662e-07
2.19231e-05
3.23422e-07
2.21263e-05
3.22902e-07
2.23955e-05
2.94084e-07
2.26433e-05
1.80654e-07
2.29746e-05
1.06161e-07
2.32853e-05
-9.14176e-08
2.36108e-05
-2.92997e-07
2.39827e-05
-5.72496e-07
2.43176e-05
-8.88973e-07
2.46731e-05
-1.27122e-06
2.50374e-05
-1.65344e-06
2.53509e-05
-2.10977e-06
2.569e-05
-2.56589e-06
2.59464e-05
-2.97261e-06
2.61862e-05
-3.5382e-06
2.63219e-05
-3.81789e-06
2.63579e-05
-4.21692e-06
2.6401e-05
-4.52503e-06
2.62302e-05
-4.51912e-06
2.60998e-05
-4.60829e-06
2.58943e-05
-4.41365e-06
2.57225e-05
-3.9794e-06
2.5615e-05
-3.46315e-06
2.55262e-05
-2.81685e-06
2.54362e-05
-1.88287e-06
2.54484e-05
-1.19459e-06
2.5432e-05
-3.94316e-07
2.5419e-05
4.00002e-07
2.54437e-05
9.21996e-07
2.54675e-05
1.54758e-06
2.54032e-05
1.91825e-06
2.54855e-05
2.0998e-06
2.551e-05
2.38221e-06
2.55179e-05
2.27708e-06
2.54792e-05
2.11484e-06
2.55274e-05
1.92283e-06
2.55276e-05
1.53134e-06
2.55669e-05
1.12156e-06
2.56e-05
6.77607e-07
2.57835e-05
1.07711e-07
2.59585e-05
-4.00207e-07
2.63086e-05
-1.07432e-06
2.67102e-05
-1.73058e-06
2.71402e-05
-2.49293e-06
2.76895e-05
-3.42017e-06
2.82391e-05
-4.23829e-06
2.87874e-05
-5.26703e-06
2.9541e-05
-6.33004e-06
3.01536e-05
-7.28427e-06
3.08569e-05
-8.38227e-06
3.15597e-05
-9.42676e-06
3.20302e-05
-1.033e-05
3.24387e-05
-1.12482e-05
3.24498e-05
-1.18929e-05
3.23316e-05
-1.25085e-05
3.19338e-05
-1.30206e-05
3.12904e-05
-1.32306e-05
3.05162e-05
-1.34445e-05
2.97923e-05
-1.36595e-05
2.91648e-05
-1.39019e-05
2.88089e-05
-1.42464e-05
2.88033e-05
-1.48509e-05
2.90251e-05
-1.54903e-05
2.9442e-05
-1.62063e-05
2.98263e-05
-1.67726e-05
3.01273e-05
-1.70038e-05
3.03574e-05
-1.67704e-05
3.03718e-05
-1.60666e-05
3.04872e-05
-1.50757e-05
3.06096e-05
-1.38205e-05
3.08971e-05
-1.21009e-05
3.11389e-05
-1.03489e-05
3.14738e-05
-8.11346e-06
3.17993e-05
-5.9255e-06
3.2105e-05
-3.4175e-06
3.24292e-05
-1.04303e-06
3.26961e-05
1.84545e-06
3.29724e-05
4.39669e-06
3.2953e-05
7.10208e-06
3.28804e-05
9.57914e-06
3.23365e-05
1.19363e-05
3.15704e-05
1.37147e-05
3.05469e-05
1.5343e-05
2.92846e-05
1.63106e-05
2.81216e-05
1.69868e-05
2.71885e-05
1.70161e-05
2.66883e-05
1.73271e-05
2.64762e-05
1.74531e-05
2.67327e-05
1.76541e-05
2.67997e-05
1.79979e-05
2.69264e-05
1.75158e-05
2.65848e-05
1.69987e-05
2.61599e-05
1.60159e-05
2.59442e-05
1.43406e-05
2.58277e-05
1.34366e-05
2.58153e-05
1.168e-05
2.60678e-05
9.86165e-06
2.63698e-05
8.62292e-06
2.65985e-05
6.36946e-06
2.67807e-05
4.83237e-06
2.70755e-05
2.61807e-06
2.69686e-05
1.03973e-06
2.7084e-05
-1.00542e-06
2.6815e-05
-2.77164e-06
2.66385e-05
-4.22208e-06
2.65393e-05
-6.02579e-06
2.62347e-05
-7.34786e-06
2.59984e-05
-8.46336e-06
2.57995e-05
-9.55069e-06
2.53715e-05
-1.04646e-05
2.46753e-05
-1.05349e-05
2.41101e-05
-1.05389e-05
2.33742e-05
-1.08544e-05
2.22452e-05
-1.01656e-05
2.13692e-05
-8.84298e-06
2.08934e-05
-7.89114e-06
2.03999e-05
-7.95681e-06
2.02927e-05
-6.80215e-06
2.03474e-05
-5.42837e-06
2.04434e-05
-4.1545e-06
2.03792e-05
-3.92151e-06
2.00564e-05
-2.38497e-06
1.98199e-05
-2.76489e-07
1.93263e-05
1.77621e-06
1.90431e-05
1.72163e-06
1.87228e-05
2.15982e-06
1.87068e-05
4.38023e-06
1.80087e-05
5.76429e-06
1.75499e-05
6.06257e-06
1.70264e-05
6.84928e-06
1.70721e-05
5.42785e-06
1.68473e-05
6.41496e-06
1.72388e-05
6.97973e-06
1.57576e-05
1.11346e-05
1.75508e-05
1.03544e-05
1.57017e-05
1.59345e-05
1.8454e-05
8.55653e-06
1.6801e-05
1.296e-05
1.95082e-05
2.4599e-06
1.78855e-05
9.16979e-06
2.11134e-05
-1.86709e-06
1.91884e-05
6.85004e-06
2.35145e-05
-1.27159e-06
2.03061e-05
1.23289e-05
2.54013e-05
2.78739e-06
2.26118e-05
2.11281e-05
2.8017e-05
7.68545e-06
2.96468e-05
3.13631e-05
2.51384e-05
2.49613e-08
2.5209e-05
1.33596e-07
2.52846e-05
6.82489e-08
2.53531e-05
-5.77856e-08
2.54352e-05
-2.70513e-07
2.54738e-05
-3.05632e-07
2.55118e-05
-3.39121e-07
2.55158e-05
-3.04504e-07
2.55067e-05
-2.15271e-07
2.55094e-05
-2.06178e-07
2.55e-05
-1.46265e-07
2.55041e-05
-1.32016e-07
2.55233e-05
-1.54548e-07
2.55338e-05
-1.06751e-07
2.5569e-05
-1.46871e-07
2.55938e-05
-1.27743e-07
2.56211e-05
-1.27322e-07
2.56371e-05
-1.24094e-07
2.56412e-05
-1.15025e-07
2.5662e-05
-1.68399e-07
2.56607e-05
-1.33059e-07
2.56717e-05
-1.5578e-07
2.5693e-05
-1.68693e-07
2.56958e-05
-1.42783e-07
2.57195e-05
-1.52602e-07
2.57221e-05
-1.13849e-07
2.57259e-05
-9.98336e-08
2.57423e-05
-9.9141e-08
2.5739e-05
-5.2973e-08
2.57527e-05
-3.69539e-08
2.57668e-05
-2.68218e-08
2.57911e-05
-3.24767e-08
2.58036e-05
-5.48722e-10
2.58239e-05
-1.98928e-08
2.58456e-05
-4.15231e-08
2.58473e-05
-2.41976e-08
2.5852e-05
-6.64326e-08
2.58554e-05
-7.92122e-08
2.58486e-05
-5.9311e-08
2.58374e-05
-9.93035e-08
2.58637e-05
-1.174e-07
2.58489e-05
-5.72052e-08
2.58678e-05
-9.76383e-08
2.59179e-05
-8.69848e-08
2.59214e-05
4.29601e-09
2.59988e-05
-7.3419e-08
2.60415e-05
7.68342e-08
2.61242e-05
3.89876e-08
2.62185e-05
1.11054e-07
2.63102e-05
1.52714e-07
2.64511e-05
1.57088e-07
2.65601e-05
2.16588e-07
2.67616e-05
1.21961e-07
2.69136e-05
1.70935e-07
2.71344e-05
7.32278e-08
2.73676e-05
-5.25641e-08
2.75941e-05
-1.20302e-07
2.78832e-05
-3.80534e-07
2.8137e-05
-5.46806e-07
2.83899e-05
-8.25367e-07
2.87012e-05
-1.2003e-06
2.89214e-05
-1.49136e-06
2.91763e-05
-1.90833e-06
2.93957e-05
-2.32924e-06
2.95645e-05
-2.73472e-06
2.97019e-05
-3.10993e-06
2.97255e-05
-3.56184e-06
2.97267e-05
-3.81907e-06
2.96231e-05
-4.11335e-06
2.94443e-05
-4.34622e-06
2.92074e-05
-4.28226e-06
2.89239e-05
-4.32479e-06
2.85995e-05
-4.08924e-06
2.8298e-05
-3.67785e-06
2.80478e-05
-3.213e-06
2.77821e-05
-2.5511e-06
2.77502e-05
-1.85098e-06
2.77738e-05
-1.2182e-06
2.77852e-05
-4.05745e-07
2.78826e-05
3.02572e-07
2.79108e-05
8.93782e-07
2.79818e-05
1.47665e-06
2.80985e-05
1.80155e-06
2.82258e-05
1.9725e-06
2.84223e-05
2.1857e-06
2.85869e-05
2.11251e-06
2.86718e-05
2.02993e-06
2.87712e-05
1.82342e-06
2.88498e-05
1.45276e-06
2.89311e-05
1.04022e-06
2.90347e-05
5.7399e-07
2.9159e-05
-1.65277e-08
2.94027e-05
-6.4392e-07
2.96457e-05
-1.31733e-06
2.99637e-05
-2.04861e-06
3.0395e-05
-2.92421e-06
3.07608e-05
-3.78602e-06
3.12574e-05
-4.7349e-06
3.17416e-05
-5.75115e-06
3.21255e-05
-6.71399e-06
3.25479e-05
-7.70661e-06
3.28524e-05
-8.68677e-06
3.29618e-05
-9.53625e-06
3.29594e-05