/*--------------------------------*- C++ -*----------------------------------*\
| =========                 |                                                 |
| \\      /  F ield         | OpenFOAM: The Open Source CFD Toolbox           |
|  \\    /   O peration     | Version:  2.4.0                                 |
|   \\  /    A nd           | Web:      www.OpenFOAM.org                      |
|    \\/     M anipulation  |                                                 |
\*---------------------------------------------------------------------------*/
FoamFile
{
    version     2.0;
    format      ascii;
    class       volScalarField;
    location    "0.12";
    object      k;
}
// * * * * * * * * * * * * * * * * * * * * * * * * * * * * * * * * * * * * * //

dimensions      [0 2 -2 0 0 0 0];

internalField   nonuniform List<scalar> 
8800
(
8.1156
10.2645
8.80387
6.81064
5.71813
4.96429
4.52837
4.14372
3.91426
3.66644
3.53966
3.37114
3.29397
3.15698
3.09022
2.97892
2.8913
2.79943
2.62383
2.63331
1.40252
4.34852
5.32424
5.2877
5.13297
4.80444
4.57613
4.29161
4.1141
3.8863
3.76781
3.59188
3.51836
3.37742
3.32432
3.22603
3.15984
3.08588
3.017
2.94902
0.0843194
0.726043
1.56525
1.94838
2.27172
2.43484
2.58142
2.59659
2.62221
2.60443
2.58954
2.53913
2.52203
2.47555
2.45996
2.42085
2.40929
2.37478
2.3811
2.34965
0.00335786
0.069296
0.258863
0.427499
0.578498
0.695835
0.847686
0.918984
1.03007
1.09085
1.17228
1.20354
1.26388
1.29294
1.34336
1.36484
1.41127
1.43476
1.48784
1.52569
0.000126337
0.00494513
0.0220796
0.0614729
0.0856367
0.117144
0.169906
0.198892
0.244358
0.283933
0.321891
0.357699
0.383788
0.42612
0.45755
0.497204
0.525004
0.584643
0.617357
0.698119
2.41142e-05
0.000307684
0.00155131
0.00562264
0.00803809
0.0124538
0.017638
0.0257643
0.0323471
0.0460969
0.0525517
0.066236
0.0719662
0.086712
0.0939332
0.110484
0.119358
0.144277
0.155504
0.194594
2.21118e-05
4.59002e-05
0.000127366
0.000454413
0.000599496
0.000918929
0.00123255
0.0019428
0.00254538
0.00405935
0.0048848
0.00674803
0.0075773
0.00983791
0.0109699
0.0135831
0.0154107
0.0200703
0.0228064
0.0318023
2.14558e-05
2.97801e-05
4.66176e-05
0.000103467
0.000110644
0.000123108
0.000132804
0.000163904
0.000196128
0.000299016
0.000356591
0.000515844
0.000577997
0.0007581
0.00082893
0.0010121
0.00115575
0.00158632
0.00188667
0.00277312
2.07751e-05
2.90345e-05
5.21672e-05
6.00889e-05
7.22205e-05
7.57419e-05
9.12221e-05
9.54506e-05
0.000101855
0.00010456
0.000110399
0.000115478
0.000124811
0.00013779
0.000148829
0.000154802
0.000164428
0.00018513
0.000200966
0.000233275
2.11695e-05
2.749e-05
3.79192e-05
7.24271e-05
7.84035e-05
7.65342e-05
7.65353e-05
7.94997e-05
8.7191e-05
9.46671e-05
9.65043e-05
9.79549e-05
0.00010023
0.000108762
0.000114925
0.000116741
0.000118719
0.000120035
0.000120117
0.000126646
2.07109e-05
2.95861e-05
4.57684e-05
5.79133e-05
6.32834e-05
6.66043e-05
6.55695e-05
6.57469e-05
7.15707e-05
8.67235e-05
9.2096e-05
9.46347e-05
9.59307e-05
9.60179e-05
9.38592e-05
9.39913e-05
9.53315e-05
9.58736e-05
9.69971e-05
0.000101204
2.08135e-05
3.14882e-05
3.81056e-05
4.89947e-05
7.41523e-05
8.00122e-05
7.97995e-05
8.29644e-05
8.47186e-05
8.91735e-05
9.11005e-05
9.3531e-05
9.99336e-05
0.000107035
0.000111277
0.000123126
0.00012826
0.000143581
0.000170763
0.000204462
2.10224e-05
2.91504e-05
4.57186e-05
8.59792e-05
9.94461e-05
0.000104661
0.000120075
0.000181916
0.000224643
0.000332488
0.000379752
0.000424575
0.000512876
0.000688014
0.000778718
0.00101382
0.00117611
0.00158778
0.00196181
0.00255269
2.16982e-05
4.43537e-05
0.000114852
0.00033888
0.000505676
0.000847195
0.00121223
0.00218701
0.00275542
0.00425891
0.00494793
0.00645106
0.00746735
0.00965211
0.0108179
0.0141077
0.016036
0.0205897
0.0233563
0.0301998
2.49692e-05
0.000310235
0.00140504
0.00450475
0.0074137
0.0122632
0.0170748
0.0279065
0.0333837
0.046291
0.0520924
0.0646246
0.0718002
0.0866526
0.0936456
0.112432
0.122159
0.145024
0.157155
0.191156
0.000123695
0.00497175
0.0213254
0.0537535
0.0895773
0.118724
0.162869
0.21252
0.237766
0.292977
0.315928
0.360879
0.387261
0.432579
0.453038
0.507164
0.532201
0.590268
0.617095
0.6906
0.00337797
0.0699195
0.254466
0.416264
0.59015
0.695232
0.840606
0.932595
1.02043
1.10706
1.15515
1.2128
1.26542
1.3065
1.3294
1.38543
1.40626
1.45348
1.47288
1.52542
0.0849046
0.731228
1.56082
1.9378
2.28265
2.42865
2.58487
2.59866
2.6284
2.60117
2.58836
2.54121
2.52648
2.47402
2.45972
2.419
2.40849
2.37738
2.36509
2.33994
1.41149
4.34517
5.32009
5.28644
5.132
4.80423
4.58501
4.27704
4.13523
3.86532
3.77844
3.58184
3.51817
3.36592
3.32911
3.19478
3.16647
3.04959
3.00875
2.90624
8.12746
10.257
8.79785
6.81641
5.713
4.96562
4.53509
4.13374
3.92785
3.64518
3.55647
3.34996
3.2975
3.13371
3.10446
2.94019
2.90802
2.73587
2.67815
2.46389
1.63922
0.9914
0.72099
0.578484
0.494358
0.424214
0.371051
0.342735
0.344385
0.357531
0.387027
0.435706
0.471527
0.513895
0.544427
0.573382
0.606186
0.618799
0.627248
0.63661
0.653183
0.668237
0.690807
0.70382
0.708821
0.682345
0.534876
0.393617
0.343306
0.319955
0.302682
0.285434
0.260006
0.241612
0.225901
0.213581
0.198068
0.18083
0.173562
0.168285
0.155738
0.136235
0.118963
0.110198
0.109726
0.114857
0.131482
0.183429
0.245516
0.278519
0.288951
0.28837
0.282967
0.265308
0.221808
0.172505
0.108887
0.0626266
0.0381603
0.0230482
0.0139073
0.00942458
0.00653988
0.00497919
0.00435311
0.00383461
0.00373471
0.00390198
0.00400941
0.00417651
0.00522892
0.00592741
0.00613747
0.00677072
0.00797655
0.00892489
0.0106602
0.014261
0.0216857
0.0393755
0.101207
0.211414
0.269573
0.279413
0.272683
0.254277
0.215121
0.179229
0.155545
0.139678
0.132144
0.132704
0.137291
0.148603
0.169807
0.173458
0.169811
0.160376
0.138729
0.107155
0.0952379
0.0929556
0.095213
0.105484
0.127307
0.167109
0.196169
0.207483
0.206706
0.20068
0.193393
0.177837
0.16754
0.160043
0.153363
0.137217
0.126999
0.111003
0.0968379
0.0893374
0.0833587
0.07308
0.0628363
0.0539811
0.0431395
0.0339916
0.0266697
0.0210649
0.017041
0.0150257
0.0142421
0.0141077
0.0145508
0.0160582
0.0204313
0.0335505
0.093852
0.168466
0.194075
0.19248
0.175814
0.142128
0.125754
0.1062
0.0798081
0.0583487
0.0467187
0.0421069
0.0435575
0.0458606
0.0497497
0.0511561
0.0549862
0.06329
0.070359
0.0961585
0.126494
0.138477
0.135654
0.118738
0.0974946
0.0731276
0.0526666
0.0389357
0.0309044
0.0274013
0.025947
0.0258774
0.0271128
0.0291908
0.0326556
0.0341296
0.0376097
0.0371231
0.0445211
0.0438362
0.0542403
0.0506356
0.0554519
0.0503978
0.055811
0.0546654
0.0644701
0.0655389
0.0760491
0.0754523
0.0837914
0.0827558
0.0934896
0.0929661
0.106164
0.107452
0.135902
0.135799
0.155687
0.1484
0.196186
0.14862
0.247087
0.596314
2.47957
2.00701
1.6632
1.41512
1.24506
1.11304
1.00965
0.923653
0.852844
0.8136
0.772945
0.751481
0.72576
0.702952
0.677453
0.659486
0.647533
0.62692
0.612533
0.584267
0.574493
0.576097
0.587659
0.623919
0.690567
0.740246
0.758923
0.736034
0.645472
0.469317
0.365263
0.313241
0.282197
0.255195
0.232201
0.218551
0.20514
0.186516
0.170976
0.160272
0.149614
0.139917
0.139057
0.1437
0.159901
0.206667
0.258525
0.292766
0.303079
0.302181
0.295413
0.273776
0.2432
0.181771
0.110904
0.0663919
0.0388375
0.022569
0.0141007
0.00891238
0.00600558
0.00473628
0.00392506
0.0036231
0.00357447
0.0035685
0.00361824
0.00395895
0.00409657
0.00450426
0.005833
0.00630343
0.00680724
0.0085073
0.0111889
0.0135631
0.0169765
0.0235777
0.0373242
0.0778087
0.201956
0.28641
0.30339
0.292468
0.260638
0.198036
0.154713
0.13069
0.117859
0.109922
0.104365
0.103105
0.103886
0.10675
0.114183
0.129881
0.150944
0.152115
0.147341
0.137002
0.109799
0.0967635
0.0922176
0.0927665
0.0971769
0.108163
0.132825
0.154527
0.172097
0.177418
0.176109
0.169336
0.162789
0.152086
0.140064
0.130197
0.118588
0.103371
0.0936612
0.0880557
0.082791
0.0754292
0.0605581
0.0481045
0.0370559
0.0297255
0.0239514
0.0195124
0.016555
0.0146539
0.013863
0.0137007
0.0143537
0.0160824
0.0259519
0.0544258
0.143986
0.187084
0.19602
0.191552
0.156697
0.13268
0.11875
0.0998602
0.073161
0.054488
0.0426094
0.0410591
0.041502
0.0462953
0.0473206
0.049395
0.0520759
0.0588324
0.0681633
0.0987433
0.125615
0.133561
0.131803
0.116224
0.0913511
0.0669987
0.0479883
0.0359564
0.0290013
0.0259327
0.0252364
0.0254103
0.0275857
0.0294678
0.035087
0.0353683
0.0435474
0.0414331
0.0506001
0.047582
0.0503029
0.0442933
0.0414193
0.0373399
0.0429403
0.0443028
0.0569247
0.0584702
0.0723243
0.0731156
0.0840436
0.0822022
0.0954394
0.0916979
0.114455
0.110302
0.152035
0.147568
0.211154
0.194945
0.271846
0.243492
0.299226
0.441749
2.1151
1.86954
1.64414
1.48675
1.3463
1.24273
1.14731
1.07038
0.997227
0.930363
0.876644
0.818546
0.769791
0.726879
0.670878
0.637559
0.591585
0.551339
0.522803
0.498541
0.471504
0.464083
0.463943
0.468178
0.488717
0.517077
0.589774
0.664501
0.671379
0.661604
0.620734
0.522605
0.435298
0.366628
0.303043
0.26861
0.246323
0.22612
0.209572
0.205683
0.207192
0.21589
0.241308
0.281234
0.311018
0.324423
0.323956
0.319576
0.307388
0.287106
0.245424
0.178879
0.112001
0.0664959
0.0381842
0.0226316
0.0135323
0.00841833
0.00575417
0.00423448
0.00355942
0.00338279
0.00333229
0.00338609
0.00358635
0.00379634
0.00430042
0.00512897
0.00545983
0.00667707
0.00808309
0.00878591
0.00981437
0.0133284
0.0176786
0.0208493
0.0263997
0.0371559
0.0625588
0.168929
0.294969
0.331809
0.321076
0.277752
0.197195
0.151684
0.125547
0.113141
0.106015
0.101157
0.0983972
0.0955787
0.0933327
0.0933962
0.0947215
0.0988837
0.107596
0.128548
0.13762
0.135068
0.127899
0.110379
0.0967515
0.0914276
0.0910416
0.0924857
0.0988616
0.110965
0.121956
0.135895
0.139031
0.13887
0.135475
0.13144
0.122929
0.114867
0.108251
0.0991868
0.0930254
0.0877019
0.0829668
0.0736943
0.0592544
0.0451043
0.0335819
0.0269071
0.0219038
0.0187643
0.0163273
0.0146881
0.014046
0.0140632
0.0152003
0.01868
0.0399074
0.0916901
0.173563
0.192904
0.197286
0.181682
0.144947
0.127898
0.115303
0.0935589
0.068083
0.0497541
0.0405886
0.0400968
0.0410305
0.0452099
0.0453152
0.0462199
0.0496818
0.0551501
0.0674942
0.100698
0.127118
0.130854
0.12763
0.110903
0.0850406
0.0620212
0.0442708
0.0331836
0.0277051
0.0253033
0.0254929
0.0259239
0.0314141
0.033053
0.0433559
0.0411605
0.0468341
0.0445566
0.0468546
0.0459885
0.0412008
0.0351168
0.032616
0.0346541
0.0378263
0.0468987
0.0533001
0.0638096
0.0679785
0.0760764
0.0745252
0.0758789
0.0742023
0.0750391
0.0789483
0.0825494
0.101371
0.114045
0.159781
0.177406
0.233128
0.258443
0.277139
0.341626
1.4242
1.30256
1.19316
1.10052
1.03286
0.973716
0.91067
0.858042
0.799585
0.741133
0.696633
0.646209
0.596364
0.560461
0.505222
0.46523
0.425943
0.383024
0.356787
0.3293
0.310265
0.299484
0.290858
0.292526
0.301759
0.318075
0.345189
0.41106
0.476035
0.557566
0.578287
0.56948
0.546546
0.526063
0.480906
0.448616
0.422419
0.396021
0.380299
0.375657
0.37412
0.373496
0.373924
0.37038
0.35769
0.336909
0.318267
0.280581
0.224742
0.160446
0.100265
0.0598389
0.035943
0.0212375
0.0125982
0.00775974
0.00507293
0.00376186
0.00318523
0.00301977
0.0030659
0.0032056
0.00345266
0.00407034
0.00498725
0.00554928
0.00720757
0.0084003
0.00928072
0.0120559
0.0136623
0.0144932
0.0162227
0.0226719
0.0258711
0.0302358
0.0387677
0.0568914
0.117951
0.278889
0.358037
0.356539
0.316235
0.218544
0.161556
0.130041
0.114169
0.107536
0.102955
0.100589
0.0972842
0.095766
0.0929072
0.0902081
0.0894853
0.0900976
0.0921685
0.0979655
0.11206
0.125455
0.125051
0.120455
0.108534
0.0959671
0.0909367
0.0903437
0.0908254
0.0945791
0.0980317
0.106678
0.112135
0.11525
0.115086
0.114038
0.110984
0.104578
0.10171
0.0971115
0.0935377
0.0872463
0.0815472
0.0679082
0.0537143
0.0405988
0.031022
0.0252107
0.02081
0.0186183
0.0161
0.0147766
0.0148082
0.0150791
0.016967
0.0236399
0.0603827
0.129183
0.189409
0.196522
0.198108
0.172681
0.141823
0.126134
0.111252
0.0876041
0.065172
0.0462884
0.0399387
0.0387834
0.0401272
0.041197
0.0423059
0.0432912
0.0474356
0.0540683
0.0698039
0.103198
0.125218
0.128715
0.123542
0.105055
0.0804296
0.0571409
0.0410685
0.0309318
0.0278982
0.0262422
0.0298535
0.0306758
0.0401708
0.0390029
0.0425725
0.0410788
0.0423179
0.0422029
0.0421545
0.0413757
0.0342723
0.0314284
0.0323669
0.0355583
0.0423083
0.0450449
0.0542716
0.0558882
0.0604218
0.059816
0.0598291
0.0594997
0.0611213
0.0636206
0.0674034
0.0702123
0.0720455
0.0811343
0.0821511
0.114041
0.119778
0.193872
0.213101
0.264696
0.672018
0.629332
0.595452
0.560495
0.527437
0.514584
0.488788
0.460995
0.442223
0.395673
0.369224
0.338845
0.299963
0.282632
0.247401
0.220152
0.201026
0.165382
0.151746
0.132561
0.118834
0.116383
0.116464
0.118302
0.125518
0.134356
0.149036
0.180896
0.208163
0.25994
0.339847
0.394472
0.439249
0.456613
0.453345
0.442063
0.431156
0.417129
0.400438
0.387257
0.37815
0.359
0.33522
0.309603
0.269231
0.220814
0.169589
0.116682
0.0757683
0.0481327
0.0296058
0.0180346
0.0109552
0.00668852
0.0043569
0.00317613
0.0026327
0.00263367
0.00270743
0.00293154
0.00370138
0.0046792
0.00561692
0.00819257
0.0098135
0.0111607
0.0146121
0.0161655
0.0179387
0.0219969
0.0237625
0.0247843
0.0287863
0.0329258
0.0358057
0.0422548
0.056824
0.0876251
0.219644
0.371393
0.399867
0.373051
0.269179
0.186964
0.143603
0.119789
0.11048
0.105988
0.103694
0.102123
0.100481
0.0991461
0.0963886
0.0919343
0.0892468
0.0875851
0.0878719
0.0893252
0.0936748
0.103733
0.11637
0.117266
0.114369
0.10743
0.0954951
0.0912341
0.0908096
0.0911987
0.092631
0.0952264
0.100078
0.103007
0.105713
0.105841
0.104552
0.100756
0.0986215
0.0959724
0.0930296
0.0883889
0.0776958
0.0609868
0.0453095
0.03379
0.026488
0.021587
0.0180325
0.0162271
0.0150019
0.0146435
0.0151763
0.0161424
0.0199085
0.0323884
0.0942337
0.162148
0.199486
0.20139
0.197782
0.168558
0.140795
0.125917
0.106672
0.0824629
0.0610883
0.0446952
0.0382622
0.0358375
0.0368078
0.0377135
0.0393763
0.0417512
0.0464819
0.0542736
0.0764571
0.109164
0.123021
0.125018
0.12026
0.099282
0.0740066
0.051788
0.0405188
0.0318885
0.0326268
0.031992
0.037725
0.036045
0.0393058
0.0386418
0.0393003
0.0393446
0.0401025
0.0400583
0.0404121
0.0369568
0.0310352
0.0304599
0.030874
0.0383742
0.0418457
0.0638633
0.0612782
0.075072
0.0653918
0.0672386
0.0612872
0.0622448
0.0632554
0.0676284
0.0717512
0.0746518
0.0780017
0.0776862
0.0744677
0.0791836
0.0802743
0.117346
0.141145
0.201413
0.192584
0.185713
0.177709
0.170884
0.160902
0.159141
0.155211
0.149767
0.145897
0.130812
0.12027
0.10746
0.091236
0.0851806
0.0735649
0.0660307
0.0601762
0.0491113
0.0454574
0.0391253
0.0349165
0.0346861
0.0347486
0.0357215
0.0387985
0.0416395
0.0465711
0.0578174
0.0666977
0.0880042
0.112152
0.14125
0.17924
0.209406
0.241085
0.261357
0.268292
0.267075
0.260314
0.242766
0.22252
0.199015
0.163455
0.131134
0.100551
0.0724061
0.0506377
0.0338085
0.0217518
0.0135449
0.00839904
0.00537922
0.00353277
0.00257849
0.00223101
0.00219754
0.0022979
0.00276017
0.00352983
0.00482482
0.00816647
0.0101242
0.0130841
0.0182811
0.0204686
0.0237911
0.0281173
0.0295162
0.0321571
0.037033
0.0381643
0.0395997
0.042975
0.0441829
0.0478023
0.0590079
0.0834577
0.145699
0.339938
0.432825
0.427623
0.348931
0.235658
0.168072
0.131958
0.115365
0.109407
0.107548
0.107595
0.106923
0.105636
0.102436
0.100279
0.0956683
0.0913194
0.0880084
0.0875408
0.0879365
0.0893987
0.093293
0.101841
0.11039
0.111687
0.110446
0.105934
0.0964286
0.0929617
0.0923904
0.0927236
0.0943962
0.09542
0.0981017
0.100644
0.101926
0.0999611
0.0973641
0.0937915
0.0926257
0.0900372
0.0867492
0.075732
0.0587592
0.0422669
0.031054
0.023903
0.019536
0.0166728
0.0154171
0.0147646
0.0147727
0.0157115
0.0173358
0.0225847
0.0469411
0.126205
0.186468
0.210454
0.209578
0.200262
0.167656
0.141181
0.125809
0.102097
0.0791169
0.056028
0.0438587
0.0372022
0.0349343
0.0350045
0.0353738
0.0374861
0.0421794
0.0467552
0.0551711
0.0824586
0.11758
0.124358
0.122185
0.117012
0.0900194
0.0696716
0.0519491
0.0430501
0.0369276
0.0390054
0.0361652
0.0378121
0.0364222
0.0374936
0.0375934
0.0375779
0.0377611
0.037323
0.0374107
0.0355362
0.0333592
0.0278828
0.0290742
0.0277067
0.0337616
0.0316664
0.0407516
0.0387951
0.0451242
0.0439506
0.0453327
0.0485479
0.0579678
0.0621371
0.0704824
0.0722166
0.0775585
0.0786737
0.0840728
0.0811709
0.0830243
0.07735
0.0861853
0.0974283
0.149441
0.0318702
0.0306324
0.0295374
0.0286702
0.0283743
0.0288899
0.0288104
0.0285074
0.0279325
0.0246625
0.0227354
0.0194255
0.0170451
0.0161191
0.0140726
0.0131065
0.0118016
0.00983887
0.00899092
0.00750357
0.00705341
0.00709552
0.00719022
0.00771291
0.0084418
0.00908037
0.0104413
0.0129365
0.0152933
0.0210255
0.028326
0.0361094
0.0523195
0.062429
0.0740839
0.0865593
0.0913343
0.0912745
0.0893465
0.0831209
0.0732432
0.0625155
0.0498424
0.0382368
0.028318
0.0199624
0.0134081
0.00871516
0.00565917
0.00368814
0.00266235
0.0021341
0.00190703
0.00192282
0.0020823
0.00250646
0.00362025
0.00621791
0.00833149
0.0130585
0.0191971
0.0227433
0.0299134
0.0382097
0.0415177
0.0478292
0.0530317
0.0543373
0.0579904
0.060746
0.0605597
0.061785
0.0641932
0.0648174
0.06863
0.0823023
0.113104
0.238358
0.427156
0.475258
0.44447
0.32671
0.220723
0.158641
0.125423
0.113873
0.111179
0.110832
0.111062
0.110495
0.109239
0.106217
0.104297
0.10215
0.0967945
0.0906073
0.0885236
0.0889166
0.0898724
0.0921508
0.0957598
0.103595
0.109359
0.110204
0.109004
0.104462
0.0979966
0.0958003
0.0948332
0.0957621
0.0960361
0.0966572
0.0993334
0.100257
0.0995011
0.0956476
0.092697
0.0903968
0.0868956
0.0817426
0.0685982
0.0518247
0.0379137
0.0285997
0.0224565
0.0186807
0.0161726
0.0157563
0.0156509
0.016203
0.0181356
0.0206786
0.0282351
0.0831975
0.152036
0.21229
0.223385
0.218233
0.205779
0.171537
0.141043
0.124657
0.0967566
0.074371
0.0526291
0.0431926
0.0354999
0.033752
0.0334769
0.0357427
0.0378049
0.043816
0.0479856
0.0629043
0.0898958
0.116653
0.127543
0.120799
0.109097
0.0879494
0.0710026
0.0544966
0.0502779
0.04188
0.0417448
0.0378935
0.0378513
0.037039
0.0365432
0.0366199
0.0358935
0.0358593
0.0339378
0.0334435
0.0314057
0.0304256
0.0262379
0.0264102
0.0252434
0.0274614
0.027313
0.0328096
0.0345587
0.0419264
0.0439169
0.0572567
0.060201
0.0712835
0.0702185
0.0776853
0.0765115
0.081524
0.0800615
0.0810707
0.0769503
0.0786912
0.0744869
0.077362
0.0770216
0.090645
0.00270782
0.00265251
0.00267664
0.00282129
0.00299724
0.00310974
0.00309615
0.00303333
0.00267903
0.0024604
0.00222858
0.00207643
0.00199239
0.00178117
0.0016365
0.00145705
0.00120477
0.00110355
0.000978735
0.000915001
0.000925514
0.000938903
0.000968492
0.0010953
0.00117517
0.00126025
0.00150447
0.0018363
0.00230684
0.00333127
0.00520645
0.00672197
0.0108752
0.0140763
0.0168363
0.0213976
0.0228702
0.0227547
0.0220656
0.0203891
0.0168397
0.0140134
0.0110797
0.00826095
0.00589532
0.00420401
0.00294151
0.0021838
0.00185235
0.00171674
0.00171661
0.00184443
0.00218232
0.00298043
0.00446439
0.00638928
0.0114181
0.0163455
0.0213125
0.0333281
0.0413322
0.0487042
0.0639117
0.0744516
0.0802877
0.0928299
0.0990706
0.101446
0.101392
0.100071
0.0953589
0.0942322
0.0946766
0.0947846
0.0974373
0.108478
0.141332
0.322455
0.495524
0.514598
0.449059
0.318538
0.215626
0.153382
0.122355
0.11464
0.112688
0.112546
0.113511
0.113357
0.112805
0.110892
0.110667
0.110427
0.107783
0.0979539
0.092231
0.091723
0.0919648
0.0932397
0.0964246
0.10123
0.107931
0.111978
0.113126
0.112184
0.108198
0.102112
0.0995103
0.0988685
0.098557
0.0984226
0.0999859
0.100059
0.0993457
0.0972793
0.09581
0.0928766
0.0874758
0.0732062
0.0580389
0.0440874
0.0345923
0.0274462
0.0219917
0.0184087
0.0169437
0.0169892
0.0171498
0.0193855
0.0219166
0.0245721
0.0344844
0.102938
0.169285
0.235683
0.243417
0.237593
0.214763
0.173158
0.142226
0.121151
0.0942708
0.0685388
0.0505036
0.0430791
0.035754
0.0353978
0.0340579
0.0371575
0.0391365
0.0442735
0.0514927
0.0763653
0.107421
0.117112
0.127122
0.12198
0.10981
0.0901946
0.0789959
0.05993
0.0555998
0.0436211
0.0418226
0.0383515
0.0376446
0.0371356
0.0365671
0.0368351
0.0357075
0.0344518
0.0324666
0.0321116
0.0307296
0.0286609
0.0262191
0.0262455
0.0260051
0.027958
0.0295954
0.0358918
0.0373227
0.0476721
0.0494604
0.0624038
0.0613304
0.066025
0.0644265
0.068947
0.0714703
0.0804624
0.0817762
0.0854273
0.0823718
0.0800609
0.0708712
0.0686566
0.0651143
0.0667504
0.000278271
0.000285036
0.000295631
0.000325964
0.000359838
0.000363189
0.0003339
0.000305414
0.000310954
0.000318558
0.000310863
0.000303699
0.000266299
0.000241383
0.000233042
0.000228821
0.000237518
0.000247533
0.000242721
0.000244942
0.000244368
0.000236566
0.000237726
0.000251377
0.000250107
0.000256316
0.000287648
0.000317927
0.000371898
0.000503985
0.000778959
0.00101991
0.00170409
0.00231309
0.00285889
0.00369819
0.00392662
0.00384002
0.00352011
0.003123
0.00267272
0.00212308
0.00176295
0.00136271
0.00114237
0.00114337
0.00120738
0.00132214
0.00158801
0.00211695
0.00275208
0.00456393
0.00621439
0.00976358
0.0134673
0.0200939
0.0312068
0.0393561
0.0532576
0.0723597
0.0837831
0.102186
0.127181
0.139715
0.157468
0.175282
0.184259
0.182961
0.177162
0.159867
0.147961
0.137505
0.122394
0.119583
0.124853
0.144663
0.207337
0.440924
0.550633
0.544894
0.451776
0.322017
0.216559
0.151872
0.12168
0.115576
0.11414
0.115107
0.116892
0.116934
0.116319
0.114108
0.114341
0.115016
0.113929
0.108332
0.100514
0.0978336
0.0964951
0.0965851
0.0982112
0.101912
0.109364
0.114927
0.11673
0.117914
0.117793
0.115262
0.111647
0.106236
0.10273
0.101841
0.102897
0.103025
0.101823
0.0989074
0.0971646
0.0945838
0.0888145
0.0700419
0.0529616
0.04019
0.0325077
0.0266445
0.022404
0.0193638
0.0184928
0.0186133
0.0189982
0.0211906
0.0231917
0.0256948
0.0391612
0.109422
0.199585
0.261145
0.273059
0.267332
0.219756
0.178553
0.146993
0.11449
0.0938412
0.0654371
0.0492901
0.042749
0.0370708
0.0357954
0.0360833
0.0388851
0.044461
0.0464699
0.0554368
0.0823175
0.140552
0.124124
0.127134
0.127336
0.119064
0.0962258
0.0880472
0.064196
0.0560023
0.0440291
0.0418139
0.0391003
0.0377814
0.0374251
0.0372682
0.0377158
0.0361822
0.0345222
0.0326324
0.0320565
0.0302582
0.0295788
0.0294997
0.0304934
0.0312591
0.0333845
0.0335493
0.0348685
0.0355219
0.0378441
0.0420708
0.0496728
0.0524403
0.0553866
0.0588283
0.0650957
0.0744357
0.0783188
0.0786237
0.0778571
0.074864
0.0733503
0.0678015
0.0636464
0.0562654
0.0548983
0.000128324
0.000136231
0.000162389
0.000167741
0.000161941
0.000156984
0.000158697
0.000172209
0.000181562
0.000175803
0.000172295
0.000168995
0.000164552
0.000165302
0.000168916
0.000185778
0.000208727
0.000210195
0.000203401
0.000197181
0.000199223
0.000199059
0.000201236
0.000204498
0.000197106
0.000190552
0.000191668
0.000191038
0.000195905
0.000224745
0.000256143
0.000291317
0.000339602
0.000457066
0.000518579
0.000589971
0.000640905
0.000626715
0.000576008
0.000558162
0.000520975
0.000503023
0.000512062
0.000557884
0.000737233
0.001047
0.00190155
0.00281479
0.00481548
0.00696111
0.00945418
0.0153419
0.0197033
0.0290887
0.0374469
0.0551708
0.0715723
0.0930415
0.117518
0.142723
0.169074
0.207211
0.247587
0.269215
0.304373
0.312588
0.30771
0.293876
0.278513
0.24762
0.2261
0.207195
0.168608
0.147588
0.149414
0.168418
0.283166
0.513158
0.579602
0.566666
0.490029
0.36132
0.238609
0.157864
0.125322
0.117019
0.115443
0.11833
0.118897
0.119424
0.117955
0.114851
0.114632
0.116303
0.120413
0.120159
0.118143
0.11264
0.107108
0.103618
0.103018
0.104731
0.112069
0.12067
0.126771
0.127042
0.125449
0.122923
0.121704
0.118597
0.112033
0.109075
0.108482
0.108498
0.108214
0.106839
0.103598
0.0943923
0.077417
0.0610652
0.0478575
0.0378088
0.0311414
0.0256265
0.0222545
0.0204725
0.0205413
0.0207652
0.0213919
0.0228372
0.0237732
0.0260872
0.0427831
0.104677
0.221779
0.284692
0.317554
0.294268
0.232747
0.199907
0.148539
0.103853
0.0960042
0.0657322
0.0516281
0.0444522
0.0418137
0.0394773
0.043541
0.0415077
0.0478072
0.055272
0.107395
0.0942685
0.137634
0.147718
0.145577
0.14183
0.132821
0.101587
0.0890573
0.0638889
0.0560481
0.0454105
0.043119
0.0404701
0.0390366
0.0389597
0.0398544
0.0403207
0.0380477
0.0359911
0.0339769
0.0331546
0.0317783
0.0327154
0.0325777
0.0341758
0.0342004
0.0349203
0.0344758
0.0347456
0.035425
0.0382093
0.0478601
0.0545005
0.0605442
0.06423
0.0714465
0.081761
0.0899116
0.0936378
0.0934056
0.0914909
0.0843392
0.0804646
0.0729103
0.0649412
0.0568542
0.0494357
0.000112417
0.000123965
0.000120173
0.000119199
0.000131542
0.000135504
0.000132985
0.000135048
0.000153281
0.000164152
0.000166326
0.00016705
0.000175309
0.000191492
0.000201214
0.000204846
0.000206785
0.000273438
0.000382749
0.000436982
0.000451497
0.000436892
0.000371102
0.000299859
0.000239496
0.000210271
0.000207888
0.000227263
0.000279332
0.000303732
0.000324167
0.000331023
0.000312934
0.000308327
0.000293363
0.000280728
0.000285376
0.000289135
0.000294396
0.000310838
0.000343724
0.0004193
0.00057348
0.000994573
0.00254264
0.00416858
0.00796917
0.0110079
0.0174689
0.0223973
0.0307913
0.0437633
0.0541825
0.0757741
0.0963874
0.127805
0.157091
0.198339
0.225934
0.279766
0.334645
0.404295
0.424027
0.418556
0.402352
0.377642
0.349986
0.328235
0.316561
0.294345
0.259727
0.240114
0.207224
0.180741
0.178291
0.193879
0.358665
0.547542
0.590576
0.587623
0.539152
0.414596
0.272051
0.175151
0.132006
0.118476
0.117375
0.120419
0.122257
0.125725
0.123954
0.119077
0.11532
0.11639
0.120262
0.126765
0.128718
0.127504
0.121667
0.115031
0.112057
0.112406
0.120875
0.129246
0.133214
0.136576
0.138633
0.138426
0.136704
0.128774
0.123324
0.121225
0.120594
0.119136
0.116321
0.111546
0.10051
0.08351
0.0652757
0.0512837
0.0419551
0.0355843
0.03038
0.0263374
0.0235394
0.0227928
0.0235813
0.0245593
0.0248955
0.0244781
0.0241325
0.0253491
0.0390432
0.0964063
0.219544
0.321877
0.361806
0.321065
0.281449
0.213187
0.148763
0.101351
0.0973634
0.0686971
0.0585529
0.0458516
0.0459927
0.0431094
0.0480914
0.0491134
0.0648861
0.071943
0.147693
0.116476
0.145335
0.179177
0.167613
0.141271
0.130708
0.101034
0.0888621
0.064368
0.0586278
0.0494921
0.047316
0.0430437
0.0419098
0.0425867
0.0426624
0.0424382
0.0389852
0.0384408
0.0379331
0.0373456
0.0345248
0.0341421
0.0336635
0.0342314
0.0341144
0.0344951
0.035343
0.0371595
0.0407153
0.0498758
0.0584388
0.0668302
0.0709638
0.077136
0.088685
0.0959344
0.0982536
0.0979688
0.0964941
0.0906271
0.0812993
0.0757208
0.0730336
0.0712189
0.0676549
0.0537536
0.000236416
0.000254584
0.000256043
0.000252222
0.000248373
0.000274828
0.000385607
0.000478846
0.000529084
0.000569413
0.000586735
0.000602522
0.000610126
0.000608625
0.000605656
0.000612018
0.00078728
0.00153867
0.00218928
0.00247633
0.00253854
0.00240854
0.00183052
0.00131406
0.000940413
0.000749106
0.000718652
0.000849159
0.0011016
0.00125684
0.00134322
0.001373
0.00132712
0.00120371
0.00107553
0.000877554
0.00080204
0.000809579
0.000866224
0.00101065
0.00133982
0.00198764
0.00341416
0.00603535
0.0131581
0.0179658
0.0286668
0.0369226
0.0527171
0.0638883
0.0863747
0.108629
0.137873
0.177097
0.21646
0.262594
0.315094
0.354681
0.41417
0.503265
0.532947
0.520009
0.48602
0.448674
0.403717
0.358154
0.336361
0.329529
0.315806
0.28066
0.257587
0.242499
0.208967
0.191664
0.194569
0.226945
0.415541
0.539955
0.590082
0.631123
0.622006
0.51215
0.343749
0.212047
0.146435
0.12465
0.121076
0.121707
0.124494
0.1308
0.13135
0.130499
0.124802
0.124107
0.124653
0.130002
0.131855
0.131427
0.127688
0.122426
0.120086
0.12141
0.131343
0.142025
0.15004
0.152211
0.149802
0.147813
0.147827
0.143771
0.134739
0.129946
0.128564
0.126337
0.121518
0.111071
0.0949854
0.0760426
0.0592585
0.0471541
0.0401799
0.0354429
0.0322737
0.0299844
0.027607
0.0267679
0.0268158
0.0274047
0.0272962
0.0247384
0.0227013
0.0232691
0.0313406
0.079801
0.188528
0.336222
0.389319
0.403548
0.349592
0.222224
0.158651
0.104358
0.109041
0.0765127
0.0701483
0.0524975
0.0535494
0.0502286
0.0606731
0.0787729
0.121545
0.0765286
0.152667
0.21617
0.197945
0.176904
0.162404
0.135448
0.124987
0.098436
0.0898955
0.0675158
0.064559
0.0585065
0.051362
0.0472325
0.0460773
0.047182
0.046235
0.0445136
0.0415906
0.0418212
0.0416978
0.0410203
0.037653
0.0365253
0.036472
0.0369753
0.0380643
0.0401641
0.042642
0.045329
0.0538435
0.0623045
0.0709831
0.0783511
0.090126
0.106882
0.125722
0.133777
0.13425
0.129589
0.122293
0.110762
0.0983728
0.0850716
0.0779837
0.0717077
0.0667967
0.0550807
0.00261394
0.00267654
0.00287073
0.00301806
0.00337803
0.00357
0.00383867
0.00430712
0.00468524
0.005143
0.005366
0.00541789
0.00547704
0.00560411
0.00576974
0.00592778
0.00656211
0.00941896
0.0121695
0.0134395
0.0137713
0.0136398
0.0124141
0.0103051
0.00823116
0.00673887
0.00596379
0.00575206
0.00616705
0.00707959
0.00768289
0.00816224
0.00840633
0.00854252
0.00811351
0.00710757
0.00688144
0.00696861
0.00740637
0.00856431
0.0104624
0.0152857
0.0212825
0.033682
0.0489654
0.0623145
0.0870368
0.104164
0.134686
0.16211
0.207605
0.248221
0.303777
0.36454
0.417939
0.479737
0.508048
0.558013
0.605493
0.605971
0.582302
0.510385
0.409926
0.323501
0.272563
0.251156
0.232444
0.219805
0.220895
0.224086
0.23465
0.231313
0.204299
0.193637
0.200544
0.258007
0.429441
0.500079
0.548753
0.645441
0.714467
0.639841
0.457293
0.281107
0.177887
0.137044
0.126059
0.124733
0.128181
0.133283
0.136325
0.139534
0.138072
0.138592
0.135745
0.137283
0.137925
0.135504
0.1334
0.130946
0.132579
0.138789
0.154048
0.161807
0.16254
0.162598
0.164883
0.166209
0.16291
0.149511
0.143984
0.142297
0.138467
0.128234
0.119583
0.10226
0.0836044
0.0640041
0.0517414
0.043759
0.0403477
0.0372122
0.0352727
0.0328418
0.030421
0.0288971
0.0287644
0.0302495
0.0300453
0.0256178
0.0227286
0.0225501
0.0260757
0.0524122
0.138801
0.308533
0.378314
0.513611
0.424236
0.24804
0.209622
0.12909
0.113767
0.0904575
0.0868371
0.0714925
0.0714709
0.0773368
0.0885227
0.0946356
0.164071
0.126169
0.188134
0.227346
0.19871
0.163348
0.151097
0.127306
0.122859
0.099097
0.0945688
0.0819818
0.0766912
0.0715293
0.0597882
0.0577887
0.0561168
0.0560665
0.0513584
0.0489558
0.0478705
0.0480284
0.0473274
0.044643
0.0430182
0.0428945
0.0431876
0.0447378
0.0477133
0.0502334
0.0540824
0.0588435
0.0715792
0.0851728
0.0995112
0.12501
0.162339
0.195302
0.208417
0.207867
0.202932
0.181547
0.163326
0.145453
0.126358
0.103881
0.087527
0.0741579
0.0669666
0.0553627
0.0318223
0.0320425
0.0319004
0.0313683
0.0312391
0.0313423
0.0320633
0.0342115