/*--------------------------------*- C++ -*----------------------------------*\
| =========                 |                                                 |
| \\      /  F ield         | OpenFOAM: The Open Source CFD Toolbox           |
|  \\    /   O peration     | Version:  2.4.0                                 |
|   \\  /    A nd           | Web:      www.OpenFOAM.org                      |
|    \\/     M anipulation  |                                                 |
\*---------------------------------------------------------------------------*/
FoamFile
{
    version     2.0;
    format      ascii;
    class       volScalarField;
    location    "0.12";
    object      nuSgs;
}
// * * * * * * * * * * * * * * * * * * * * * * * * * * * * * * * * * * * * * //

dimensions      [0 2 -1 0 0 0 0];

internalField   nonuniform List<scalar> 
8800
(
0.00133893
0.00150579
0.00139455
0.00122657
0.00112389
0.00104719
0.00100016
0.000956738
0.000929871
0.000899953
0.000884258
0.000862951
0.000853016
0.000835091
0.000826213
0.000811199
0.000799179
0.00078638
0.000761317
0.000762691
0.000556611
0.000980095
0.00108449
0.00108076
0.00106483
0.00103019
0.00100542
0.000973661
0.000953312
0.000926544
0.00091231
0.000890756
0.000881593
0.000863754
0.000856937
0.000844174
0.00083547
0.000825634
0.000816367
0.000807118
0.000136478
0.000400478
0.000588016
0.000656046
0.000708394
0.000733386
0.000755139
0.000757355
0.000761082
0.000758498
0.000756326
0.000748928
0.000746403
0.000739492
0.00073716
0.000731277
0.000729529
0.000724286
0.000725248
0.000720442
2.72351e-05
0.000123723
0.000239129
0.000307302
0.000357477
0.000392059
0.000432728
0.000450559
0.000477014
0.000490886
0.000508877
0.000515619
0.000528386
0.000534426
0.000544746
0.000549083
0.000558346
0.000562973
0.000573292
0.000580539
5.28278e-06
3.30512e-05
6.98382e-05
0.000116531
0.00013754
0.000160864
0.000193732
0.000209607
0.000232333
0.000250441
0.000266657
0.000281097
0.000291168
0.000306806
0.00031792
0.00033141
0.000340549
0.000359371
0.000369289
0.000392701
2.30799e-06
8.24423e-06
1.85118e-05
3.52426e-05
4.2138e-05
5.24503e-05
6.24197e-05
7.5441e-05
8.45309e-05
0.00010091
0.000107744
0.000120961
0.000126085
0.0001384
0.000144048
0.000156224
0.000162376
0.000178524
0.00018534
0.00020733
2.21009e-06
3.18423e-06
5.30426e-06
1.0019e-05
1.15078e-05
1.42475e-05
1.65006e-05
2.07163e-05
2.37123e-05
2.99451e-05
3.28489e-05
3.86088e-05
4.09124e-05
4.66175e-05
4.92265e-05
5.47769e-05
5.83458e-05
6.65847e-05
7.09784e-05
8.3816e-05
2.17706e-06
2.56484e-06
3.20902e-06
4.78077e-06
4.94382e-06
5.21484e-06
5.41632e-06
6.01718e-06
6.58214e-06
8.12728e-06
8.8753e-06
1.06747e-05
1.12995e-05
1.29408e-05
1.35318e-05
1.49523e-05
1.59783e-05
1.87194e-05
2.04149e-05
2.47504e-05
2.14225e-06
2.53253e-06
3.39466e-06
3.6433e-06
3.99418e-06
4.0904e-06
4.48898e-06
4.59184e-06
4.74339e-06
4.80596e-06
4.93834e-06
5.05064e-06
5.25079e-06
5.51704e-06
5.73378e-06
5.84771e-06
6.02679e-06
6.39494e-06
6.66283e-06
7.17848e-06
2.16249e-06
2.46425e-06
2.89419e-06
3.99989e-06
4.16165e-06
4.11174e-06
4.11177e-06
4.19064e-06
4.38868e-06
4.57296e-06
4.61712e-06
4.65169e-06
4.70541e-06
4.90158e-06
5.03855e-06
5.0782e-06
5.12104e-06
5.14934e-06
5.1511e-06
5.28925e-06
2.13893e-06
2.55648e-06
3.17966e-06
3.57674e-06
3.73889e-06
3.83574e-06
3.80582e-06
3.81097e-06
3.97618e-06
4.3769e-06
4.51043e-06
4.57218e-06
4.60338e-06
4.60547e-06
4.55341e-06
4.55661e-06
4.58898e-06
4.60201e-06
4.62889e-06
4.7282e-06
2.14422e-06
2.63737e-06
2.9013e-06
3.28982e-06
4.04725e-06
4.20413e-06
4.19854e-06
4.28099e-06
4.32601e-06
4.43829e-06
4.48599e-06
4.54544e-06
4.69844e-06
4.86252e-06
4.95794e-06
5.21521e-06
5.32284e-06
5.6318e-06
6.14178e-06
6.72054e-06
2.15496e-06
2.53758e-06
3.17793e-06
4.35807e-06
4.68697e-06
4.8083e-06
5.15021e-06
6.33919e-06
7.04441e-06
8.5701e-06
9.159e-06
9.68445e-06
1.0644e-05
1.23281e-05
1.31156e-05
1.49651e-05
1.61184e-05
1.87281e-05
2.08174e-05
2.37463e-05
2.18932e-06
3.13013e-06
5.03695e-06
8.65209e-06
1.0569e-05
1.36801e-05
1.6364e-05
2.19798e-05
2.46713e-05
3.06723e-05
3.30605e-05
3.77497e-05
4.06145e-05
4.61752e-05
4.88844e-05
5.58246e-05
5.95176e-05
6.74409e-05
7.18289e-05
8.1677e-05
2.34855e-06
8.27834e-06
1.76174e-05
3.15452e-05
4.04683e-05
5.20476e-05
6.14152e-05
7.85146e-05
8.58747e-05
0.000101122
0.000107272
0.00011948
0.000125939
0.000138353
0.000143827
0.000157595
0.000164271
0.000178986
0.000186321
0.00020549
5.22726e-06
3.314e-05
6.86352e-05
0.000108969
0.000140668
0.000161945
0.000189678
0.000216669
0.000229178
0.000254399
0.000264175
0.000282344
0.000292482
0.000309123
0.000316348
0.000334712
0.000342875
0.000361096
0.00036921
0.000390581
2.73165e-05
0.000124279
0.00023709
0.000303237
0.00036106
0.000391889
0.000430917
0.000453884
0.000474777
0.00049452
0.000505147
0.000517597
0.000528708
0.00053722
0.000541908
0.00055321
0.000557354
0.000566634
0.000570403
0.000580487
0.00013695
0.000401906
0.000587185
0.000654264
0.000710097
0.000732454
0.000755645
0.000757657
0.00076198
0.000758023
0.000756154
0.000749235
0.000747061
0.000739265
0.000737125
0.000730998
0.000729408
0.000724681
0.000722805
0.000718953
0.000558389
0.000979718
0.00108407
0.00108064
0.00106473
0.00103017
0.00100639
0.000972008
0.000955758
0.00092404
0.000913595
0.00088951
0.000881569
0.000862283
0.000857555
0.000840075
0.000836346
0.000820764
0.00081525
0.000801242
0.00133991
0.00150525
0.00139408
0.00122709
0.00112339
0.00104733
0.0010009
0.000955586
0.000931484
0.000897341
0.000886355
0.000860237
0.000853473
0.000832007
0.000828116
0.000805908
0.000801487
0.000777403
0.000769158
0.000737749
0.000329593
0.00025632
0.000218586
0.000195796
0.000181
0.000167668
0.000156811
0.000150709
0.000151071
0.000153927
0.000160151
0.000169924
0.000176771
0.000184542
0.000189945
0.000194931
0.000200429
0.000202504
0.000203882
0.000205397
0.000208054
0.000210438
0.000213962
0.000215968
0.000216734
0.000212648
0.000188272
0.000161509
0.000150834
0.000145614
0.000141629
0.000137534
0.000131265
0.000126537
0.000122354
0.000118971
0.000114569
0.00010947
0.000107247
0.000105604
0.000101591
9.50174e-05
8.87901e-05
8.54567e-05
8.52735e-05
8.72445e-05
9.33453e-05
0.000110253
0.000127555
0.000135858
0.000138379
0.00013824
0.000136939
0.000132597
0.00012124
0.00010692
8.49469e-05
6.44225e-05
5.0288e-05
3.9082e-05
3.03585e-05
2.49913e-05
2.08182e-05
1.81651e-05
1.69847e-05
1.59411e-05
1.57321e-05
1.60806e-05
1.63004e-05
1.66366e-05
1.86151e-05
1.98194e-05
2.01676e-05
2.11824e-05
2.29914e-05
2.43198e-05
2.65791e-05
3.07421e-05
3.79092e-05
5.10824e-05
8.18963e-05
0.000118366
0.000133659
0.000136076
0.000134427
0.000129811
0.000119399
0.000108984
0.000101528
9.62105e-05
9.35797e-05
9.37778e-05
9.53848e-05
9.92367e-05
0.000106081
0.000107215
0.000106082
0.000103093
9.5883e-05
8.42685e-05
7.94444e-05
7.84868e-05
7.9434e-05
8.36088e-05
9.18512e-05
0.000105234
0.000114018
0.00011726
0.00011704
0.000115322
0.000113208
0.00010856
0.00010537
0.000102986
0.000100813
9.53592e-05
9.174e-05
8.5768e-05
8.0109e-05
7.69441e-05
7.43248e-05
6.95918e-05
6.45303e-05
5.98108e-05
5.34682e-05
4.74618e-05
4.20405e-05
3.73627e-05
3.36052e-05
3.15555e-05
3.07217e-05
3.05764e-05
3.10529e-05
3.26217e-05
3.67965e-05
4.71528e-05
7.88643e-05
0.000105661
0.000113408
0.000112941
0.000107941
9.70506e-05
9.12891e-05
8.38922e-05
7.27247e-05
6.21834e-05
5.56422e-05
5.28245e-05
5.37266e-05
5.51288e-05
5.74187e-05
5.82247e-05
6.0365e-05
6.47629e-05
6.82839e-05
7.98275e-05
9.15573e-05
9.57961e-05
9.48146e-05
8.8706e-05
8.03801e-05
6.96144e-05
5.90781e-05
5.07964e-05
4.52552e-05
4.26132e-05
4.1467e-05
4.14113e-05
4.23883e-05
4.39827e-05
4.65198e-05
4.7558e-05
4.99239e-05
4.95999e-05
5.43177e-05
5.38983e-05
5.99542e-05
5.79277e-05
6.06201e-05
5.77915e-05
6.08161e-05
6.01887e-05
6.53638e-05
6.59034e-05
7.09914e-05
7.07123e-05
7.45175e-05
7.40556e-05
7.87119e-05
7.84912e-05
8.38779e-05
8.43852e-05
9.49011e-05
9.4865e-05
0.000101574
9.91687e-05
0.000114023
9.92422e-05
0.000127963
0.000198791
0.000405365
0.000364698
0.000331994
0.000306235
0.000287246
0.00027159
0.000258668
0.000247408
0.000237735
0.000232201
0.000226325
0.000223161
0.000219308
0.000215835
0.000211884
0.000209055
0.000207152
0.000203828
0.000201476
0.000196772
0.00019512
0.000195392
0.000197343
0.00020334
0.000213925
0.000221486
0.000224263
0.000220855
0.000206822
0.000176357
0.000155583
0.000144078
0.000136752
0.000130045
0.000124048
0.000120347
0.000116596
0.000111177
0.000106445
0.000103059
9.95738e-05
9.62927e-05
9.59963e-05
9.75858e-05
0.00010294
0.000117029
0.000130891
0.00013929
0.000141722
0.000141512
0.000139918
0.000134696
0.000126952
0.000109754
8.57299e-05
6.63309e-05
5.07322e-05
3.86736e-05
3.05688e-05
2.43027e-05
1.99497e-05
1.77165e-05
1.61281e-05
1.54953e-05
1.53909e-05
1.53781e-05
1.54849e-05
1.61975e-05
1.64766e-05
1.72771e-05
1.96609e-05
2.04384e-05
2.12395e-05
2.3744e-05
2.72302e-05
2.99804e-05
3.35415e-05
3.95284e-05
4.97341e-05
7.18079e-05
0.000115688
0.000137769
0.000141794
0.000139219
0.000131425
0.000114559
0.000101256
9.30635e-05
8.8377e-05
8.53494e-05
8.31641e-05
8.26606e-05
8.2973e-05
8.4109e-05
8.69879e-05
9.2775e-05
0.000100015
0.000100402
9.88143e-05
9.52843e-05
8.53018e-05
8.00782e-05
7.81746e-05
7.84069e-05
8.02491e-05
8.46639e-05
9.38205e-05
0.000101195
0.000106793
0.000108432
0.000108031
0.000105934
0.000103865
0.000100393
9.63435e-05
9.28877e-05
8.86502e-05
8.27669e-05
7.8784e-05
7.63901e-05
7.40713e-05
7.07014e-05
6.33497e-05
5.64614e-05
4.9555e-05
4.43836e-05
3.98404e-05
3.59595e-05
3.31225e-05
3.11627e-05
3.03101e-05
3.01322e-05
3.08418e-05
3.26463e-05
4.14709e-05
6.00566e-05
9.7683e-05
0.000111346
0.000113975
0.000112668
0.000101904
9.37694e-05
8.87107e-05
8.13495e-05
6.96303e-05
6.00909e-05
5.31387e-05
5.21631e-05
5.24437e-05
5.53894e-05
5.59994e-05
5.72137e-05
5.87458e-05
6.24406e-05
6.721e-05
8.08932e-05
9.12387e-05
9.40804e-05
9.34591e-05
8.77621e-05
7.78064e-05
6.66333e-05
5.63931e-05
4.88142e-05
4.38396e-05
4.14555e-05
4.08952e-05
4.10359e-05
4.27563e-05
4.41908e-05
4.82205e-05
4.84134e-05
5.37205e-05
5.24001e-05
5.79074e-05
5.61539e-05
5.77371e-05
5.41785e-05
5.23914e-05
4.97445e-05
5.33447e-05
5.41844e-05
6.14199e-05
6.22481e-05
6.9231e-05
6.96087e-05
7.46296e-05
7.38075e-05
7.95284e-05
7.7954e-05
8.70915e-05
8.5497e-05
0.000100376
9.88906e-05
0.000118293
0.000113662
0.000134221
0.000127029
0.000140818
0.000171098
0.00037439
0.000351986
0.000330087
0.00031389
0.000298696
0.000286976
0.000275739
0.000266334
0.000257072
0.000248305
0.000241029
0.000232906
0.000225863
0.000219477
0.000210853
0.000205551
0.000198001
0.000191147
0.000186135
0.000181765
0.000176767
0.00017537
0.000175344
0.000176142
0.000179965
0.000185113
0.000197698
0.000209849
0.000210932
0.000209391
0.00020282
0.0001861
0.000169845
0.000155873
0.000141713
0.00013342
0.000127765
0.000122413
0.000117849
0.00011675
0.000117178
0.000119612
0.000126457
0.000136519
0.000143566
0.000146627
0.000146522
0.000145528
0.000142726
0.000137937
0.000127531
0.000108878
8.61528e-05
6.63829e-05
5.03037e-05
3.87272e-05
2.99464e-05
2.36195e-05
1.95276e-05
1.67517e-05
1.53585e-05
1.49726e-05
1.48604e-05
1.49799e-05
1.54165e-05
1.58614e-05
1.68816e-05
1.84363e-05
1.90216e-05
2.10354e-05
2.31445e-05
2.41297e-05
2.55029e-05
2.972e-05
3.42281e-05
3.7171e-05
4.18271e-05
4.96218e-05
6.43877e-05
0.000105806
0.000139813
0.000148287
0.000145869
0.000135671
0.000114316
0.00010026
9.12141e-05
8.65903e-05
8.38188e-05
8.18758e-05
8.07514e-05
7.95864e-05
7.86458e-05
7.86725e-05
7.92287e-05
8.09507e-05
8.44415e-05
9.22976e-05
9.54991e-05
9.46093e-05
9.20644e-05
8.55266e-05
8.00732e-05
7.7839e-05
7.76745e-05
7.82881e-05
8.09417e-05
8.57534e-05
8.99001e-05
9.48987e-05
9.59874e-05
9.5932e-05
9.47518e-05
9.33302e-05
9.02579e-05
8.7248e-05
8.46984e-05
8.10747e-05
7.85162e-05
7.62365e-05
7.41499e-05
6.98836e-05
6.26641e-05
5.46723e-05
4.71749e-05
4.22272e-05
3.80994e-05
3.52634e-05
3.28939e-05
3.1199e-05
3.05095e-05
3.05282e-05
3.17383e-05
3.51842e-05
5.14263e-05
7.79507e-05
0.000107248
0.000113065
0.000114342
0.000109727
9.80082e-05
9.20641e-05
8.74134e-05
7.8741e-05
6.71704e-05
5.74213e-05
5.18634e-05
5.15482e-05
5.21449e-05
5.47363e-05
5.48e-05
5.53443e-05
5.73795e-05
6.04549e-05
6.68793e-05
8.169e-05
9.17831e-05
9.3122e-05
9.19676e-05
8.57295e-05
7.50709e-05
6.41104e-05
5.41648e-05
4.68943e-05
4.28488e-05
4.09493e-05
4.11025e-05
4.14485e-05
4.56268e-05
4.68019e-05
5.36022e-05
5.22274e-05
5.57108e-05
5.43394e-05
5.5723e-05
5.52056e-05
5.2253e-05
4.8241e-05
4.64915e-05
4.79221e-05
5.00674e-05
5.57493e-05
5.94323e-05
6.50282e-05
6.71188e-05
7.10041e-05
7.02765e-05
7.09119e-05
7.01241e-05
7.05184e-05
7.23319e-05
7.39631e-05
8.19624e-05
8.69355e-05
0.000102901
0.000108428
0.000124296
0.00013087
0.000135521
0.000150464
0.000307216
0.000293804
0.000281196
0.000270058
0.000261625
0.000254024
0.000245663
0.000238458
0.000230192
0.000221619
0.000214862
0.00020694
0.000198799
0.000192722
0.000182978
0.000175587
0.00016801
0.00015932
0.000153767
0.000147725
0.000143392
0.000140879
0.000138835
0.000139233
0.000141413
0.000145186
0.000151247
0.000165048
0.000177614
0.000192224
0.000195763
0.000194266
0.000190314
0.000186714
0.000178521
0.000172423
0.000167313
0.000162001
0.000158753
0.000157781
0.000157458
0.000157326
0.000157417
0.000156669
0.000153961
0.000149422
0.000145229
0.00013636
0.000122039
0.000103115
8.15141e-05
6.29724e-05
4.88051e-05
3.75155e-05
2.88943e-05
2.26768e-05
1.83353e-05
1.57892e-05
1.45288e-05
1.41464e-05
1.4254e-05
1.45752e-05
1.51264e-05
1.64238e-05
1.81798e-05
1.91768e-05
2.18551e-05
2.35942e-05
2.47999e-05
2.82656e-05
3.00899e-05
3.09913e-05
3.27884e-05
3.87617e-05
4.14062e-05
4.4763e-05
5.06867e-05
6.14019e-05
8.84114e-05
0.000135948
0.000154036
0.000153713
0.000144765
0.000120345
0.000103471
9.28323e-05
8.69826e-05
8.4418e-05
8.26003e-05
8.16456e-05
8.02934e-05
7.96644e-05
7.84663e-05
7.73181e-05
7.70078e-05
7.72707e-05
7.81537e-05
8.0574e-05
8.61754e-05
9.11804e-05
9.10336e-05
8.93452e-05
8.48088e-05
7.9748e-05
7.76297e-05
7.73762e-05
7.75822e-05
7.91692e-05
8.06012e-05
8.40804e-05
8.62044e-05
8.73934e-05
8.73314e-05
8.69325e-05
8.57609e-05
8.32491e-05
8.20994e-05
8.02221e-05
7.87321e-05
7.60382e-05
7.35128e-05
6.70841e-05
5.96628e-05
5.18699e-05
4.53413e-05
4.08744e-05
3.7136e-05
3.5126e-05
3.26641e-05
3.12929e-05
3.13264e-05
3.16116e-05
3.35321e-05
3.95805e-05
6.32579e-05
9.25253e-05
0.000112036
0.000114121
0.00011458
0.000106975
9.69463e-05
9.14269e-05
8.58644e-05
7.6194e-05
6.57187e-05
5.53853e-05
5.14465e-05
5.06969e-05
5.15677e-05
5.22506e-05
5.29492e-05
5.35622e-05
5.60674e-05
5.98591e-05
6.8014e-05
8.26978e-05
9.10943e-05
9.23579e-05
9.04829e-05
8.34387e-05
7.30073e-05
6.15364e-05
5.2169e-05
4.52753e-05
4.29979e-05
4.17022e-05
4.44791e-05
4.50876e-05
5.15957e-05
5.08401e-05
5.31157e-05
5.21756e-05
5.29567e-05
5.28847e-05
5.28543e-05
5.23638e-05
4.76574e-05
4.56373e-05
4.63136e-05
4.85432e-05
5.29507e-05
5.46363e-05
5.99715e-05
6.08581e-05
6.32784e-05
6.29604e-05
6.29673e-05
6.27937e-05
6.36436e-05
6.49318e-05
6.68343e-05
6.82127e-05
6.90974e-05
7.33265e-05
7.37845e-05
8.69338e-05
8.90935e-05
0.000113348
0.000118837
0.000132444
0.000211032
0.00020422
0.000198647
0.000192728
0.000186958
0.000184666
0.000179978
0.000174786
0.00017119
0.00016193
0.000156424
0.000149851
0.000140991
0.000136858
0.000128044
0.000120787
0.000115421
0.00010469
0.000100281
9.37274e-05
8.87418e-05
8.78219e-05
8.78526e-05
8.85432e-05
9.12036e-05
9.43597e-05
9.93811e-05
0.00010949
0.000117452
0.000131249
0.000150072
0.000161684
0.000170614
0.000173953
0.00017333
0.000171159
0.000169035
0.000166262
0.000162902
0.000160198
0.000158303
0.000154243
0.000149047
0.000143239
0.000133574
0.000120968
0.000106012
8.79349e-05
7.08602e-05
5.64779e-05
4.42942e-05
3.4571e-05
2.69444e-05
2.10535e-05
1.69921e-05
1.4508e-05
1.32087e-05
1.32111e-05
1.33948e-05
1.39382e-05
1.56617e-05
1.76094e-05
1.92934e-05
2.33007e-05
2.55018e-05
2.7196e-05
3.11182e-05
3.27305e-05
3.44789e-05
3.81803e-05
3.9683e-05
4.05272e-05
4.36768e-05
4.67118e-05
4.87119e-05
5.29171e-05
6.13655e-05
7.62031e-05
0.000120647
0.000156883
0.000162786
0.000157233
0.000133561
0.000111311
9.75529e-05
8.90977e-05
8.55657e-05
8.38084e-05
8.28962e-05
8.22658e-05
8.16019e-05
8.10581e-05
7.99229e-05
7.80544e-05
7.6905e-05
7.61857e-05
7.63103e-05
7.69388e-05
7.87898e-05
8.29121e-05
8.78171e-05
8.81545e-05
8.70588e-05
8.43766e-05
7.95516e-05
7.77566e-05
7.75755e-05
7.77415e-05
7.83496e-05
7.94396e-05
8.14381e-05
8.26212e-05
8.36996e-05
8.375e-05
8.32388e-05
8.17133e-05
8.08433e-05
7.97502e-05
7.8518e-05
7.65345e-05
7.17558e-05
6.35736e-05
5.47965e-05
4.73209e-05
4.1897e-05
3.78229e-05
3.4569e-05
3.27929e-05
3.15306e-05
3.11516e-05
3.17133e-05
3.27071e-05
3.63226e-05
4.6329e-05
7.90245e-05
0.000103661
0.000114978
0.000115525
0.000114486
0.00010569
9.65946e-05
9.13482e-05
8.40781e-05
7.39244e-05
6.36264e-05
5.44238e-05
5.03551e-05
4.87335e-05
4.93888e-05
4.99927e-05
5.1083e-05
5.26008e-05
5.55009e-05
5.99726e-05
7.11815e-05
8.50547e-05
9.02917e-05
9.10217e-05
8.92729e-05
8.11136e-05
7.00315e-05
5.85832e-05
5.18187e-05
4.59701e-05
4.64992e-05
4.60447e-05
5.00004e-05
4.88744e-05
5.10372e-05
5.06043e-05
5.10336e-05
5.10624e-05
5.15519e-05
5.15234e-05
5.17505e-05
4.94887e-05
4.53509e-05
4.49286e-05
4.52329e-05
5.04288e-05
5.26603e-05
6.50555e-05
6.37252e-05
7.05338e-05
6.58294e-05
6.67525e-05
6.37299e-05
6.42259e-05
6.47451e-05
6.69458e-05
6.89562e-05
7.03362e-05
7.18969e-05
7.17514e-05
7.02494e-05
7.24396e-05
7.29368e-05
8.81846e-05
9.67143e-05
0.000115532
0.000112972
0.000110938
0.000108521
0.000106417
0.000103262
0.000102695
0.000101419
9.96246e-05
9.83289e-05
9.31071e-05
8.92763e-05
8.43883e-05
7.77574e-05
7.51327e-05
6.98222e-05
6.61502e-05
6.31497e-05
5.70492e-05
5.48859e-05
5.09199e-05
4.81032e-05
4.79442e-05
4.79874e-05
4.86545e-05
5.07068e-05
5.25305e-05
5.55542e-05
6.18996e-05
6.64835e-05
7.63678e-05
8.6211e-05
9.67504e-05
0.000108987
0.000117802
0.000126399
0.000131606
0.00013334
0.000133038
0.000131343
0.000126839
0.000121435
0.000114842
0.000104078
9.32217e-05
8.16304e-05
6.92701e-05
5.79289e-05
4.73338e-05
3.7967e-05
2.99603e-05
2.35925e-05
1.88807e-05
1.53009e-05
1.3072e-05
1.21593e-05
1.20678e-05
1.23402e-05
1.35247e-05
1.52945e-05
1.78813e-05
2.32635e-05
2.59024e-05
2.94462e-05
3.48064e-05
3.683e-05
3.97069e-05
4.31664e-05
4.42271e-05
4.61633e-05
4.95397e-05
5.02906e-05
5.12277e-05
5.33662e-05
5.4111e-05
5.62838e-05
6.25336e-05
7.4369e-05
9.82624e-05
0.000150092
0.000169362
0.000168341
0.000152065
0.000124968
0.000105537
9.35139e-05
8.74372e-05
8.51493e-05
8.44229e-05
8.44411e-05
8.4177e-05
8.3669e-05
8.2392e-05
8.15201e-05
7.96237e-05
7.77929e-05
7.63696e-05
7.61665e-05
7.63384e-05
7.69705e-05
7.8629e-05
8.21523e-05
8.55308e-05
8.60319e-05
8.55528e-05
8.3787e-05
7.99395e-05
7.84893e-05
7.82478e-05
7.83887e-05
7.90926e-05
7.95203e-05
8.063e-05
8.16681e-05
8.21865e-05
8.13906e-05
8.03263e-05
7.88389e-05
7.83473e-05
7.72449e-05
7.58213e-05
7.08432e-05
6.24017e-05
5.29248e-05
4.53646e-05
3.98001e-05
3.59812e-05
3.32401e-05
3.19639e-05
3.12801e-05
3.12888e-05
3.22676e-05
3.38946e-05
3.86871e-05
5.57744e-05
9.14529e-05
0.000111163
0.000118097
0.000117851
0.000115201
0.000105407
9.67268e-05
9.1309e-05
8.22556e-05
7.24091e-05
6.09342e-05
5.39121e-05
4.96527e-05
4.81154e-05
4.81637e-05
4.84172e-05
4.98418e-05
5.28699e-05
5.56639e-05
6.04664e-05
7.39224e-05
8.82725e-05
9.07812e-05
8.99844e-05
8.80588e-05
7.72372e-05
6.79495e-05
5.86742e-05
5.34128e-05
4.94691e-05
5.08418e-05
4.89558e-05
5.00581e-05
4.91294e-05
4.98468e-05
4.9913e-05
4.99028e-05
5.00243e-05
4.97333e-05
4.97917e-05
4.85281e-05
4.70182e-05
4.29859e-05
4.38947e-05
4.285e-05
4.73009e-05
4.58097e-05
5.19674e-05
5.07046e-05
5.46843e-05
5.39685e-05
5.48106e-05
5.6721e-05
6.19801e-05
6.41703e-05
6.83437e-05
6.91794e-05
7.16924e-05
7.2206e-05
7.46425e-05
7.3343e-05
7.41756e-05
7.1596e-05
7.55745e-05
8.03528e-05
9.9516e-05
4.59569e-05
4.50556e-05
4.4243e-05
4.35887e-05
4.33632e-05
4.37554e-05
4.36952e-05
4.34647e-05
4.30243e-05
4.04275e-05
3.88159e-05
3.58794e-05
3.36092e-05
3.26835e-05
3.05384e-05
2.94714e-05
2.7966e-05
2.55347e-05
2.44096e-05
2.22994e-05
2.16201e-05
2.16846e-05
2.18288e-05
2.26083e-05
2.36524e-05
2.45307e-05
2.63049e-05
2.92797e-05
3.18354e-05
3.73277e-05
4.33262e-05
4.8918e-05
5.88831e-05
6.43208e-05
7.00681e-05
7.57383e-05
7.77993e-05
7.77738e-05
7.6948e-05
7.42188e-05
6.96694e-05
6.43654e-05
5.74722e-05
5.03384e-05
4.33201e-05
3.63718e-05
2.98087e-05
2.40323e-05
1.93658e-05
1.56337e-05
1.32829e-05
1.18923e-05
1.12418e-05
1.12883e-05
1.17471e-05
1.28881e-05
1.54892e-05
2.02993e-05
2.34974e-05
2.94175e-05
3.56678e-05
3.88226e-05
4.45237e-05
5.03205e-05
5.24536e-05
5.62996e-05
5.92825e-05
6.00078e-05
6.19922e-05
6.34479e-05
6.33505e-05
6.39882e-05
6.52234e-05
6.55397e-05
6.74397e-05
7.38524e-05
8.6576e-05
0.000125682
0.000168249
0.000177469
0.000171625
0.000147143
0.000120943
0.000102534
9.1169e-05
8.68699e-05
8.58361e-05
8.57021e-05
8.57908e-05
8.55718e-05
8.50839e-05
8.38987e-05
8.31369e-05
8.22769e-05
8.0091e-05
7.7489e-05
7.65928e-05
7.67626e-05
7.71741e-05
7.81462e-05
7.96618e-05
8.28567e-05
8.51307e-05
8.54588e-05
8.49924e-05
8.32028e-05
8.05868e-05
7.96786e-05
7.92755e-05
7.96627e-05
7.97766e-05
8.00342e-05
8.11346e-05
8.1511e-05
8.12031e-05
7.96151e-05
7.83775e-05
7.7399e-05
7.58852e-05
7.36008e-05
6.74241e-05
5.8604e-05
5.01252e-05
4.3535e-05
3.85771e-05
3.51848e-05
3.27378e-05
3.23137e-05
3.22053e-05
3.27685e-05
3.46677e-05
3.70185e-05
4.32567e-05
7.42529e-05
0.000100376
0.00011861
0.000121671
0.000120259
0.000116778
0.00010662
9.66796e-05
9.08903e-05
8.00753e-05
7.02037e-05
5.9057e-05
5.35011e-05
4.85034e-05
4.72942e-05
4.71011e-05
4.8669e-05
5.00532e-05
5.38859e-05
5.63915e-05
6.45652e-05
7.71842e-05
8.79238e-05
9.19364e-05
8.94725e-05
8.50286e-05
7.6344e-05
6.85955e-05
6.00957e-05
5.77227e-05
5.26819e-05
5.25968e-05
5.01119e-05
5.0084e-05
4.95437e-05
4.92109e-05
4.92626e-05
4.87715e-05
4.87483e-05
4.74243e-05
4.70776e-05
4.56208e-05
4.49032e-05
4.16987e-05
4.18354e-05
4.09008e-05
4.26599e-05
4.25445e-05
4.66293e-05
4.78561e-05
5.27112e-05
5.39479e-05
6.15987e-05
6.31627e-05
6.87311e-05
6.82157e-05
7.1751e-05
7.12068e-05
7.35024e-05
7.28401e-05
7.32977e-05
7.14108e-05
7.2214e-05
7.02584e-05
7.16015e-05
7.14438e-05
7.75051e-05
1.33958e-05
1.32583e-05
1.33184e-05
1.36736e-05
1.40935e-05
1.43556e-05
1.43242e-05
1.41781e-05
1.33244e-05
1.27691e-05
1.21527e-05
1.17305e-05
1.14907e-05
1.08645e-05
1.0414e-05
9.82644e-06
8.93532e-06
8.55173e-06
8.05362e-06
7.78698e-06
7.83159e-06
7.88803e-06
8.01137e-06
8.5197e-06
8.8249e-06
9.13874e-06
9.98504e-06
1.10314e-05
1.23642e-05
1.48581e-05
1.8575e-05
2.1106e-05
2.68459e-05
3.05424e-05
3.34027e-05
3.76566e-05
3.89308e-05
3.88324e-05
3.82398e-05
3.67585e-05
3.3406e-05
3.04741e-05
2.7097e-05
2.33977e-05
1.97657e-05
1.66913e-05
1.39619e-05
1.203e-05
1.10795e-05
1.06662e-05
1.06658e-05
1.10558e-05
1.20259e-05
1.40539e-05
1.72004e-05
2.05771e-05
2.75078e-05
3.29123e-05
3.75817e-05
4.69963e-05
5.23363e-05
5.68122e-05
6.50802e-05
7.02418e-05
7.29429e-05
7.84337e-05
8.10272e-05
8.19929e-05
8.1971e-05
8.14351e-05
7.94949e-05
7.90238e-05
7.921e-05
7.92551e-05
8.03565e-05
8.47872e-05
9.67784e-05
0.000146182
0.000181214
0.000184668
0.000172508
0.000145291
0.000119539
0.00010082
9.0047e-05
8.7162e-05
8.64167e-05
8.63623e-05
8.67317e-05
8.66729e-05
8.64614e-05
8.57254e-05
8.5638e-05
8.55452e-05
8.4515e-05
8.05693e-05
7.81802e-05
7.79646e-05
7.80673e-05
7.86066e-05
7.99378e-05
8.19056e-05
8.4573e-05
8.61439e-05
8.65844e-05
8.6223e-05
8.46776e-05
8.22615e-05
8.12068e-05
8.09445e-05
8.08169e-05
8.07618e-05
8.14007e-05
8.14306e-05
8.11396e-05
8.02913e-05
7.96827e-05
7.84534e-05
7.61382e-05
6.96518e-05
6.2018e-05
5.40525e-05
4.78794e-05
4.26481e-05
3.81758e-05
3.49277e-05
3.35091e-05
3.35541e-05
3.37122e-05
3.58424e-05
3.81106e-05
4.03534e-05
4.78046e-05
8.25936e-05
0.000105917
0.000124975
0.000127009
0.00012548
0.000119299
0.000107122
9.70839e-05
8.96031e-05
7.904e-05
6.73948e-05
5.78522e-05
5.34308e-05
4.86767e-05
4.84336e-05
4.75081e-05
4.96229e-05
5.09272e-05
5.41665e-05
5.84159e-05
7.11388e-05
8.43729e-05
8.80968e-05
9.17844e-05
8.99091e-05
8.53061e-05
7.73123e-05
7.23537e-05
6.30203e-05
6.07009e-05
5.37659e-05
5.26458e-05
5.04138e-05
4.99471e-05
4.96082e-05
4.9227e-05
4.94071e-05
4.8645e-05
4.7782e-05
4.6385e-05
4.61306e-05
4.51271e-05
4.35816e-05
4.16838e-05
4.17048e-05
4.15133e-05
4.30439e-05
4.42865e-05
4.87704e-05
4.97331e-05
5.6207e-05
5.72516e-05
6.43078e-05
6.37524e-05
6.61474e-05
6.53417e-05
6.75952e-05
6.88211e-05
7.30222e-05
7.3616e-05
7.52414e-05
7.38836e-05
7.28398e-05
6.8532e-05
6.74527e-05
6.56896e-05
6.65098e-05
4.2943e-06
4.34619e-06
4.42623e-06
4.64775e-06
4.88329e-06
4.90597e-06
4.70399e-06
4.49887e-06
4.53948e-06
4.59465e-06
4.53882e-06
4.48622e-06
4.20091e-06
3.99956e-06
3.92985e-06
3.89409e-06
3.96741e-06
4.05019e-06
4.01063e-06
4.02893e-06
4.02421e-06
3.95945e-06
3.96914e-06
4.08151e-06
4.07119e-06
4.12141e-06
4.36606e-06
4.5901e-06
4.96444e-06
5.77919e-06
7.18482e-06
8.22127e-06
1.06268e-05
1.2381e-05
1.37644e-05
1.5655e-05
1.61312e-05
1.59524e-05
1.52734e-05
1.43861e-05
1.33087e-05
1.18616e-05
1.08088e-05
9.50299e-06
8.70085e-06
8.70467e-06
8.945e-06
9.36045e-06
1.02585e-05
1.18444e-05
1.35048e-05
1.73911e-05
2.02935e-05
2.54368e-05
2.98743e-05
3.64914e-05
4.54761e-05
5.10698e-05
5.94086e-05
6.9248e-05
7.45138e-05
8.22915e-05
9.18058e-05
9.62231e-05
0.000102154
0.000107777
0.000110503
0.000110113
0.000108354
0.000102929
9.9022e-05
9.54593e-05
9.00613e-05
8.90212e-05
9.09617e-05
9.79122e-05
0.000117219
0.000170939
0.000191025
0.000190027
0.000173029
0.000146082
0.000119797
0.000100322
8.97984e-05
8.75171e-05
8.69716e-05
8.73393e-05
8.80137e-05
8.80296e-05
8.77978e-05
8.69596e-05
8.7048e-05
8.73047e-05
8.68911e-05
8.47299e-05
8.16153e-05
8.05198e-05
7.9967e-05
8.00043e-05
8.0675e-05
8.2181e-05
8.51324e-05
8.72711e-05
8.79528e-05
8.83979e-05
8.83524e-05
8.73979e-05
8.60164e-05
8.39063e-05
8.25102e-05
8.21523e-05
8.25771e-05
8.26284e-05
8.2145e-05
8.09604e-05
8.0244e-05
7.91711e-05
7.67185e-05
6.81298e-05
5.92433e-05
5.1608e-05
4.64143e-05
4.20206e-05
3.8532e-05
3.58223e-05
3.50074e-05
3.51212e-05
3.54826e-05
3.7474e-05
3.92035e-05
4.12649e-05
5.09432e-05
8.5155e-05
0.000115007
0.000131553
0.00013452
0.000133102
0.000120678
0.000108778
9.86978e-05
8.71048e-05
7.88597e-05
6.58522e-05
5.71529e-05
5.32257e-05
4.95649e-05
4.87049e-05
4.89003e-05
5.07633e-05
5.4281e-05
5.54938e-05
6.06118e-05
7.38592e-05
9.6511e-05
9.06955e-05
9.17889e-05
9.18616e-05
8.88277e-05
7.98554e-05
7.63865e-05
6.52247e-05
6.09202e-05
5.40168e-05
5.26404e-05
5.09036e-05
5.00377e-05
4.98012e-05
4.96967e-05
4.99943e-05
4.89673e-05
4.78308e-05
4.65032e-05
4.6091e-05
4.47795e-05
4.4274e-05
4.42148e-05
4.49533e-05
4.55142e-05
4.70361e-05
4.7152e-05
4.80701e-05
4.85184e-05
5.00792e-05
5.28018e-05
5.73743e-05
5.8951e-05
6.05844e-05
6.24384e-05
6.56802e-05
7.02343e-05
7.2043e-05
7.2183e-05
7.18303e-05
7.04361e-05
6.97203e-05
6.70314e-05
6.4945e-05
6.10632e-05
6.03167e-05
2.91617e-06
3.00467e-06
3.28048e-06
3.33409e-06
3.27594e-06
3.22542e-06
3.24297e-06
3.37821e-06
3.46874e-06
3.41327e-06
3.37905e-06
3.34653e-06
3.30226e-06
3.30977e-06
3.34575e-06
3.50878e-06
3.71918e-06
3.73224e-06
3.67143e-06
3.61485e-06
3.63353e-06
3.63203e-06
3.65184e-06
3.68132e-06
3.61417e-06
3.55357e-06
3.56397e-06
3.5581e-06
3.60314e-06
3.85926e-06
4.12002e-06
4.39381e-06
4.74399e-06
5.50362e-06
5.86227e-06
6.25279e-06
6.51711e-06
6.44456e-06
6.17835e-06
6.08189e-06
5.8758e-06
5.77368e-06
5.82532e-06
6.08037e-06
6.98974e-06
8.32974e-06
1.12257e-05
1.36578e-05
1.7864e-05
2.14782e-05
2.50305e-05
3.18859e-05
3.6135e-05
4.39056e-05
4.98158e-05
6.04663e-05
6.88701e-05
7.8523e-05
8.82492e-05
9.72535e-05
0.000105852
0.000117183
0.000128092
0.00013357
0.000142024
0.000143928
0.0001428
0.000139553
0.000135857
0.000128101
0.000122408
0.000117178
0.000105705
9.88973e-05
9.95072e-05
0.000105646
0.000136987
0.00018441
0.000195985
0.000193786
0.000180206
0.000154741
0.000125748
0.000102282
9.11321e-05
8.80615e-05
8.74665e-05
8.85535e-05
8.87654e-05
8.89619e-05
8.84133e-05
8.72419e-05
8.71589e-05
8.77917e-05
8.93295e-05
8.92352e-05
8.84834e-05
8.63981e-05
8.42498e-05
8.2866e-05
8.26256e-05
8.33096e-05
8.61788e-05
8.94248e-05
9.16575e-05
9.17554e-05
9.11785e-05
9.02557e-05
8.98071e-05
8.86533e-05
8.61652e-05
8.50199e-05
8.47884e-05
8.47947e-05
8.46839e-05
8.41442e-05
8.2858e-05
7.90909e-05
7.1627e-05
6.36144e-05
5.63162e-05
5.00559e-05
4.54284e-05
4.12101e-05
3.84032e-05
3.68336e-05
3.68954e-05
3.70959e-05
3.76516e-05
3.89027e-05
3.9692e-05
4.15788e-05
5.32469e-05
8.32883e-05
0.000121233
0.000137356
0.000145067
0.000139646
0.000124194
0.000115099
9.92154e-05
8.29598e-05
7.97634e-05
6.60005e-05
5.84927e-05
5.42756e-05
5.26402e-05
5.11484e-05
5.37165e-05
5.24473e-05
5.62866e-05
6.05217e-05
8.43627e-05
7.90391e-05
9.5504e-05
9.89408e-05
9.82212e-05
9.69487e-05
9.38191e-05
8.20499e-05
7.68234e-05
6.50685e-05
6.09451e-05
5.48576e-05
5.34556e-05
5.17876e-05
5.08621e-05
5.0812e-05
5.13921e-05
5.16919e-05
5.02137e-05
4.88378e-05
4.74515e-05
4.68738e-05
4.58906e-05
4.65623e-05
4.64642e-05
4.75902e-05
4.76073e-05
4.81058e-05
4.77986e-05
4.79853e-05
4.84522e-05
5.03202e-05
5.63178e-05
6.00978e-05
6.33424e-05
6.5242e-05
6.88096e-05
7.36091e-05
7.71909e-05
7.87742e-05
7.86765e-05
7.78659e-05
7.47607e-05
7.30232e-05
6.95109e-05
6.56022e-05
6.13818e-05
5.72372e-05
2.72944e-06
2.86621e-06
2.82203e-06
2.81058e-06
2.95251e-06
2.99664e-06
2.96866e-06
2.99159e-06
3.18715e-06
3.29823e-06
3.32001e-06
3.32722e-06
3.40848e-06
3.56233e-06
3.65163e-06
3.68445e-06
3.70184e-06
4.25685e-06
5.03635e-06
5.38134e-06
5.46998e-06
5.38079e-06
4.95912e-06
4.45776e-06
3.98389e-06
3.73292e-06
3.7117e-06
3.88081e-06
4.30248e-06
4.48646e-06
4.63492e-06
4.68369e-06
4.55391e-06
4.52027e-06
4.40921e-06
4.31322e-06
4.34878e-06
4.37732e-06
4.41697e-06
4.53864e-06
4.77269e-06
5.27134e-06
6.16478e-06
8.11852e-06
1.29808e-05
1.66208e-05
2.29808e-05
2.70092e-05
3.40245e-05
3.85262e-05
4.51723e-05
5.38535e-05
5.99222e-05