/*--------------------------------*- C++ -*----------------------------------*\
| =========                 |                                                 |
| \\      /  F ield         | OpenFOAM: The Open Source CFD Toolbox           |
|  \\    /   O peration     | Version:  2.4.0                                 |
|   \\  /    A nd           | Web:      www.OpenFOAM.org                      |
|    \\/     M anipulation  |                                                 |
\*---------------------------------------------------------------------------*/
FoamFile
{
    version     2.0;
    format      ascii;
    class       volScalarField;
    location    "0.12";
    object      pMean;
}
// * * * * * * * * * * * * * * * * * * * * * * * * * * * * * * * * * * * * * //

dimensions      [0 2 -2 0 0 0 0];

internalField   nonuniform List<scalar> 
8800
(
121.801
108.969
101.148
97.2542
94.9819
93.1974
91.5776
90.0412
88.5669
87.1274
85.7126
84.3097
82.9249
81.5565
80.2039
78.8762
77.5358
76.1899
74.7697
72.6438
118.738
108.617
101.311
97.3647
95.0404
93.2221
91.5845
90.0411
88.5648
87.1247
85.7104
84.3074
82.9236
81.5543
80.2057
78.8718
77.5466
76.1942
74.7904
73.1672
116.802
108.685
101.895
97.7284
95.2042
93.2998
91.6298
90.072
88.5867
87.1396
85.7192
84.3119
82.926
81.554
80.2072
78.8681
77.5562
76.2049
74.9499
73.5384
115.289
108.739
102.463
98.1361
95.3831
93.3868
91.6928
90.1275
88.6333
87.1751
85.7441
84.3281
82.9373
81.5607
80.2135
78.8729
77.5623
76.2418
75.0443
73.9798
114.059
108.706
102.925
98.5255
95.5474
93.4537
91.7445
90.1851
88.69
87.222
85.779
84.3521
82.9545
81.5724
80.2227
78.8839
77.573
76.2849
75.1278
74.515
113.09
108.606
103.283
98.8593
95.6945
93.4978
91.7771
90.2319
88.7419
87.2694
85.8141
84.3785
82.9703
81.5866
80.2317
78.8997
77.5932
76.3462
75.2768
75.0421
112.347
108.488
103.545
99.1295
95.8272
93.526
91.7926
90.2665
88.7849
87.31
85.8453
84.4014
82.9849
81.5991
80.2422
78.918
77.6257
76.4245
75.4598
75.4686
111.808
108.384
103.726
99.3334
95.9444
93.544
91.7971
90.2898
88.8177
87.3416
85.8701
84.4193
82.9976
81.61
80.2566
78.9414
77.672
76.5101
75.6421
75.808
111.458
108.306
103.84
99.4709
96.0269
93.5555
91.7965
90.3041
88.8403
87.3644
85.888
84.4327
83.0081
81.6214
80.2728
78.9699
77.7229
76.5982
75.8081
76.0772
111.287
108.263
103.894
99.5403
96.069
93.5613
91.7954
90.3116
88.8527
87.3772
85.8987
84.4418
83.0179
81.6345
80.294
79.0029
77.7772
76.6847
75.9525
76.2897
111.288
108.263
103.894
99.5405
96.0691
93.5618
91.7954
90.3127
88.8538
87.3797
85.9019
84.4473
83.0261
81.6493
80.3174
79.0402
77.8324
76.7686
76.0703
76.4546
111.46
108.305
103.839
99.4715
96.0274
93.5565
91.7971
90.3071
88.8444
87.3715
85.898
84.4487
83.0337
81.6652
80.344
79.0801
77.8896
76.8474
76.1646
76.5697
111.811
108.382
103.727
99.3344
95.9452
93.5455
91.7985
90.2941
88.8244
87.3536
85.887
84.4461
83.0397
81.682
80.3726
79.1236
77.9489
76.9245
76.2349
76.6269
112.351
108.485
103.546
99.1306
95.8288
93.5273
91.7956
90.2717
88.7945
87.3263
85.8689
84.4387
83.0435
81.6986
80.4017
79.1701
78.0116
77.0045
76.2888
76.6122
113.095
108.601
103.284
98.8603
95.6971
93.4988
91.7821
90.2378
88.755
87.2891
85.8452
84.4258
83.0459
81.7115
80.4313
79.2155
78.0801
77.0881
76.3517
76.5204
114.065
108.701
102.927
98.5266
95.5508
93.4551
91.751
90.1922
88.7061
87.2448
85.8171
84.4091
83.0462
81.7203
80.4591
79.2567
78.1518
77.1744
76.4334
76.3664
115.295
108.734
102.465
98.1371
95.3874
93.389
91.7004
90.1359
88.6524
87.2003
85.789
84.3926
83.0448
81.7262
80.4823
79.2902
78.2167
77.2514
76.5252
76.1905
116.808
108.68
101.896
97.7291
95.2091
93.3029
91.6383
90.0814
88.6078
87.1671
85.7687
84.3819
83.044
81.732
80.4987
79.3153
78.2623
77.3089
76.5958
76.0779
118.744
108.613
101.313
97.3652
95.0457
93.2257
91.5934
90.0512
88.5867
87.1534
85.762
84.3807
83.0468
81.7384
80.5088
79.3311
78.285
77.3415
76.6199
76.023
121.808
108.964
101.15
97.2547
94.9875
93.201
91.5865
90.0514
88.589
87.1564
85.765
84.3836
83.0497
81.7417
80.5126
79.3363
78.2906
77.3516
76.6273
76.1242
71.872
71.8619
71.5842
71.0636
70.3619
69.5334
68.6269
67.7172
66.8836
66.1822
65.6308
65.233
64.9847
64.87
64.8607
64.9112
64.97
65.0067
65.0164
64.9914
64.9472
64.8995
64.8648
64.8497
64.8513
64.8647
64.8855
64.9118
64.945
64.9884
65.05
65.1435
65.2767
65.4595
65.6975
65.9937
66.3465
66.7502
67.2016
67.6952
68.2274
68.7906
69.3796
69.9844
70.6016
71.2183
71.8297
72.4274
72.9994
73.5364
74.0402
74.5018
74.911
75.2768
75.6065
75.8938
76.1481
76.3854
76.6077
76.8126
77.013
77.2127
77.4073
77.6003
77.7921
77.9786
78.1568
78.3258
78.4851
78.6281
78.7563
78.8719
78.9725
79.0639
79.1429
79.2153
79.2818
79.3434
79.4092
79.4755
79.5492
79.632
79.7334
79.8472
79.9866
80.1465
80.3277
80.5352
80.7632
81.0082
81.2595
81.5251
81.8045
82.0855
82.3594
82.6263
82.8828
83.1231
83.3586
83.5844
83.799
84.0102
84.2147
84.4139
84.6096
84.8105
85.0112
85.2183
85.4296
85.643
85.8589
86.0733
86.2785
86.4764
86.6563
86.816
86.952
87.0658
87.1562
87.2282
87.2809
87.3177
87.3394
87.3466
87.3413
87.3259
87.2983
87.2576
87.2058
87.1415
87.0703
86.9842
86.8945
86.7939
86.7001
86.6046
86.5188
86.4396
86.3676
86.311
86.27
86.2557
86.2632
86.3067
86.3696
86.4724
86.5846
86.7271
86.8647
87.018
87.1542
87.2918
87.4035
87.5077
87.5812
87.6367
87.6614
87.668
87.6563
87.636
87.6062
87.5701
87.5321
87.4878
87.4514
87.4045
87.3767
87.3292
87.3155
87.2676
87.2695
87.2199
87.2325
87.1819
87.194
87.1415
87.1382
87.0688
87.0278
86.9115
86.813
86.6348
86.4657
86.2307
85.9801
85.7002
85.3558
85.0014
84.5543
84.0685
83.448
82.7315
81.8098
80.623
79.0743
76.9802
73.9485
68.7252
62.7815
35.3563
72.3815
72.1674
71.9505
71.4821
70.8082
70.0218
69.196
68.3902
67.6514
67.0142
66.4978
66.1102
65.8507
65.7113
65.6704
65.6874
65.724
65.7537
65.7645
65.7526
65.7229
65.6855
65.6512
65.6277
65.6164
65.615
65.6204
65.6314
65.6525
65.6882
65.7449
65.8334
65.9609
66.1332
66.3537
66.6275
66.9519
67.3238
67.7363
68.1882
68.6714
69.1843
69.7181
70.2681
70.8293
71.3906
71.9439
72.4863
73.0052
73.4843
73.9272
74.3318
74.6868
74.9966
75.2744
75.5193
75.73
75.9209
76.0978
76.2587
76.4125
76.5645
76.7151
76.8629
77.0127
77.1616
77.3048
77.4435
77.5747
77.6953
77.8051
77.9021
77.9897
78.0663
78.1302
78.1922
78.2443
78.2995
78.3572
78.4187
78.49
78.5775
78.6866
78.8162
78.9818
79.169
79.3884
79.6385
79.9118
80.1989
80.4978
80.815
81.1528
81.4873
81.82
82.1428
82.4566
82.7559
83.0521
83.335
83.6071
83.8721
84.1231
84.3603
84.5894
84.8115
85.0305
85.2447
85.4622
85.6706
85.8859
86.0917
86.2964
86.4884
86.6693
86.8262
86.9665
87.0817
87.1805
87.2581
87.3222
87.3675
87.4009
87.4177
87.4268
87.4225
87.4103
87.378
87.3386
87.2782
87.2152
87.1292
87.0424
86.9294
86.8297
86.7107
86.6168
86.5145
86.4369
86.3621
86.3232
86.2951
86.3122
86.3391
86.416
86.4995
86.6289
86.7515
86.9078
87.0426
87.1965
87.3092
87.4349
87.5097
87.5954
87.6191
87.6542
87.6292
87.6279
87.5726
87.5531
87.4804
87.4529
87.3729
87.3457
87.2645
87.2433
87.1623
87.1512
87.0733
87.0695
86.9988
86.9908
86.9312
86.9071
86.853
86.8005
86.7309
86.6297
86.5108
86.3444
86.1552
85.9148
85.6499
85.3265
84.9804
84.5717
84.0984
83.5893
82.9261
82.1938
81.2296
80.0706
78.5275
76.5771
73.5205
70.7157
61.5346
54.9284
29.4389
72.8646
72.6043
72.2928
71.7944
71.1361
70.4055
69.672
68.9759
68.3367
67.7736
67.304
66.9396
66.6857
66.5326
66.4631
66.4476
66.4607
66.481
66.4913
66.4871
66.4689
66.4417
66.4139
66.3903
66.3757
66.3724
66.3784
66.3951
66.4247
66.4691
66.5333
66.625
66.7519
66.9179
67.1253
67.377
67.6732
68.0101
68.3838
68.7911
69.2261
69.6894
70.1692
70.6612
71.163
71.6651
72.1487
72.6155
73.0579
73.4604
73.8211
74.1476
74.4336
74.6779
74.8912
75.0786
75.2374
75.3763
75.5046
75.6233
75.735
75.8504
75.9695
76.0899
76.2164
76.3435
76.4704
76.5917
76.7082
76.814
76.9091
76.9939
77.0696
77.1306
77.185
77.2354
77.28
77.3325
77.386
77.4485
77.5224
77.6191
77.7341
77.8846
78.0716
78.2836
78.5382
78.8262
79.1348
79.4561
79.8
80.172
80.5617
80.9482
81.3382
81.7237
82.0995
82.4648
82.8246
83.1656
83.4975
83.8125
84.1137
84.39
84.6622
84.9076
85.1499
85.3723
85.598
85.8053
86.0225
86.219
86.4206
86.6016
86.778
86.9278
87.0717
87.1867
87.2975
87.3787
87.4569
87.5068
87.5557
87.5786
87.6083
87.6117
87.619
87.5932
87.5724
87.5154
87.4691
87.3816
87.3028
87.176
87.0727
86.925
86.8203
86.6849
86.5977
86.5005
86.4595
86.4228
86.4406
86.462
86.5401
86.6172
86.7488
86.8666
87.023
87.1501
87.3002
87.406
87.5234
87.5895
87.6603
87.6744
87.6929
87.658
87.6404
87.5761
87.5385
87.4587
87.4099
87.3226
87.2728
87.1818
87.1382
87.0461
87.0094
86.9243
86.8872
86.8152
86.7681
86.7029
86.6409
86.5649
86.4786
86.3648
86.2393
86.0549
85.8761
85.6047
85.3609
84.9998
84.67
84.2124
83.7751
83.1781
82.5757
81.7585
80.8522
79.6308
78.4054
75.9915
74.9181
69.2102
67.9986
56.1638
47.4515
30.3599
73.7484
73.3976
72.6789
71.895
71.1707
70.5322
69.9652
69.4496
68.9723
68.5369
68.1549
67.8406
67.6039
67.4414
67.346
67.301
67.2886
67.2933
67.2977
67.2946
67.2834
67.2651
67.2482
67.2352
67.2315
67.2404
67.2604
67.2926
67.3367
67.393
67.4667
67.5612
67.6834
67.8376
68.0259
68.2503
68.5144
68.8117
69.1442
69.5041
69.8868
70.2909
70.7106
71.1301
71.551
71.9677
72.3633
72.7321
73.0762
73.3859
73.6562
73.8964
74.1075
74.2861
74.4382
74.5707
74.6836
74.7801
74.8718
74.9611
75.0494
75.146
75.2501
75.3596
75.4731
75.592
75.7073
75.8184
75.9237
76.0183
76.1034
76.1773
76.243
76.2968
76.3486
76.3931
76.4403
76.493
76.5505
76.616
76.6955
76.7992
76.9236
77.0933
77.2959
77.5335
77.8187
78.1359
78.471
78.8248
79.2103
79.6286
80.0693
80.5054
80.9587
81.4016
81.8519
82.2804
82.7128
83.1099
83.5078
83.8653
84.2168
84.5224
84.8316
85.0943
85.3608
85.5898
85.8275
86.0316
86.255
86.4399
86.6422
86.805
86.9808
87.1165
87.2668
87.3732
87.4991
87.5789
87.676
87.725
87.7946
87.8193
87.8733
87.8786
87.9095
87.8858
87.8908
87.8351
87.811
87.7192
87.6526
87.5136
87.4118
87.2364
87.124
86.9486
86.8532
86.7216
86.6804
86.6218
86.6465
86.6541
86.7414
86.8048
86.9445
87.0478
87.2136
87.3212
87.4775
87.56
87.6839
87.7206
87.7957
87.7734
87.7964
87.725
87.7132
87.6141
87.5828
87.4631
87.4229
87.2879
87.251
87.1074
87.0746
86.9343
86.8999
86.7736
86.7321
86.617
86.5671
86.4478
86.3839
86.2417
86.1491
85.9601
85.8203
85.5631
85.3565
85.0245
84.7352
84.3111
83.926
83.3726
82.902
82.1073
81.6141
80.2937
79.9165
77.4225
77.5628
72.844
73.2249
65.4659
62.9477
52.7544
41.9815
31.2188
75.0515
74.5036
73.1041
71.8884
71.0306
70.4831
70.1231
69.838
69.5659
69.2931
69.0252
68.7782
68.5679
68.4025
68.2866
68.2154
68.1785
68.1656
68.1618
68.1611
68.1598
68.1563
68.1568
68.1622
68.1764
68.2026
68.237
68.2815
68.3354
68.3983
68.4756
68.568
68.6807
68.8213
68.9868
69.1816
69.4087
69.6617
69.9411
70.2449
70.5618
70.8898
71.2287
71.5621
71.8847
72.1972
72.4913
72.7577
73.002
73.2227
73.4141
73.5797
73.725
73.8473
73.9482
74.0369
74.1166
74.1889
74.2627
74.3392
74.4191
74.5057
74.6016
74.7018
74.8082
74.9208
75.0324
75.1421
75.2451
75.3398
75.423
75.4973
75.563
75.6202
75.6753
75.7248
75.7776
75.8343
75.8946
75.961
76.0449
76.1481
76.2846
76.4657
76.6841
76.941
77.2515
77.588
77.9451
78.3263
78.7526
79.2043
79.6945
80.179
80.6982
81.2016
81.7246
82.2232
82.7238
83.182
83.6449
84.0529
84.4457
84.7882
85.1221
85.4029
85.6835
85.9209
86.1614
86.3624
86.5835
86.7577
86.9564
87.1044
87.2788
87.4036
87.5585
87.658
87.7938
87.8682
87.9797
88.0266
88.116
88.1451
88.2196
88.2269
88.2783
88.2596
88.2889
88.235
88.2317
88.1306
88.0775
87.9252
87.8356
87.6344
87.5277
87.3045
87.2155
87.0298
87.0038
86.8963
86.948
86.913
87.0385
87.0604
87.2378
87.2904
87.4943
87.5457
87.7415
87.7594
87.9231
87.8884
88.0018
87.9031
87.9596
87.8125
87.8371
87.6591
87.6691
87.4643
87.4705
87.2488
87.2534
87.031
87.0292
86.8193
86.8105
86.6111
86.5993
86.3992
86.3851
86.1681
86.1442
85.8898
85.8434
85.5211
85.4404
85.0172
84.903
84.3302
84.202
83.3874
83.3167
82.1115
82.2284
80.3919
80.8503
78.1025
78.8136
74.8958
75.34
70.1562
68.6904
62.5798
56.9761
50.2922
39.9474
32.4557
76.0543
75.4388
73.6255
72.076
71.0464
70.4978
70.2653
70.1672
70.0885
69.9827
69.8419
69.6776
69.5092
69.3548
69.229
69.1365
69.0773
69.047
69.0359
69.0377
69.0463
69.0589
69.0779
69.1019
69.1334
69.1734
69.2167
69.2677
69.3258
69.389
69.4642
69.5504
69.6496
69.771
69.9103
70.0692
70.2531
70.4564
70.6754
70.9135
71.1579
71.4033
71.6512
71.8929
72.1176
72.3297
72.5272
72.7032
72.8603
73.0024
73.1259
73.2296
73.3198
73.3974
73.4627
73.5251
73.5875
73.6501
73.7158
73.7857
73.8582
73.9374
74.0259
74.1242
74.2339
74.3511
74.4729
74.5909
74.7031
74.8062
74.8993
74.9859
75.0629
75.1336
75.2001
75.2615
75.323
75.3852
75.4449
75.5114
75.5875
75.687
75.8279
76.0117
76.2369
76.5069
76.8352
77.1863
77.5699
77.9698
78.4385
78.9268
79.4612
79.994
80.5755
81.1467
81.7327
82.2964
82.8636
83.3777
83.8918
84.3439
84.7767
85.1569
85.5172
85.8144
86.1084
86.3498
86.5921
86.7873
87.0041
87.1616
87.3541
87.4859
87.6585
87.7718
87.9297
88.0225
88.1617
88.2282
88.3478
88.3939
88.4995
88.5313
88.6227
88.6279
88.6981
88.6818
88.7332
88.677
88.6913
88.5712
88.5359
88.3712
88.3037
88.0879
87.9952
87.7363
87.6528
87.415
87.3966
87.2368
87.307
87.2202
87.373
87.3426
87.5572
87.549
87.7892
87.7651
88.003
87.937
88.1497
88.0196
88.1849
87.9778
88.0982
87.8269
87.9334
87.6118
87.7208
87.3607
87.4771
87.0945
87.2156
86.8223
86.9517
86.5447
86.6926
86.2628
86.4372
85.9707
86.1743
85.6502
85.8795
85.2695
85.5212
84.788
85.0601
84.1602
84.4624
83.3303
83.6732
82.2202
82.6277
80.7531
81.2088
78.8149
79.1501
76.2952
76.0096
72.8813
71.2237
67.8566
64.2084
60.3082
53.9802
49.614
41.0395
34.4208
76.7531
76.1434
74.132
72.3691
71.1968
70.6055
70.439
70.4777
70.5576
70.6
70.5817
70.5059
70.3895
70.2547
70.1238
70.013
69.9326
69.8852
69.8654
69.8676
69.8852
69.9126
69.9484
69.9887
70.034
70.0842
70.1344
70.1887
70.2473
70.3069
70.3741
70.4487
70.5303
70.6272
70.7382
70.8599
70.9992
71.1515
71.3097
71.477
71.6484
71.8129
71.9723
72.1248
72.261
72.3834
72.4957
72.5947
72.6802
72.7562
72.8224
72.8766
72.9249
72.9714
73.0162
73.0641
73.1177
73.1728
73.2312
73.2944
73.3612
73.4372
73.527
73.6336
73.755
73.8865
74.0225
74.1571
74.288
74.4119
74.5302
74.6386
74.7382
74.8281
74.9123
74.9902
75.0654
75.1353
75.2016
75.2662
75.3375
75.4381
75.5781
75.7561
75.9858
76.2637
76.6014
76.9567
77.3608
77.7802
78.2803
78.8132
79.3921
79.9776
80.6264
81.2643
81.9154
82.5325
83.1567
83.722
84.2796
84.7547
85.2196
85.6269
86.0045
86.3094
86.6161
86.8584
87.1063
87.297
87.5118
87.6554
87.8407
87.958
88.1192
88.2204
88.3669
88.4527
88.587
88.6495
88.7705
88.8205
88.935
88.9719
89.0724
89.079
89.1616
89.1494
89.2093
89.1492
89.1632
89.0303
89.0009
88.8342
88.7778
88.568
88.4832
88.2211
88.1271
87.8601
87.8215
87.6239
87.6752
87.5533
87.694
87.6265
87.8304
87.7849
88.0201
87.9561
88.1881
88.0762
88.2814
88.0977
88.2555
87.9857
88.1099
87.7656
87.8807
87.4839
87.6017
87.1723
87.2913
86.8428
86.9666
86.4968
86.6356
86.1372
86.3031
85.7685
85.9651
85.3818
85.6087
84.961
85.2088
84.4675
84.7243
83.8557
84.1049
83.0811
83.3063
82.0879
82.2485
80.8024
80.8294
79.1519
78.891
77.0175
76.2185
74.2348
72.6818
70.5584
68.1429
65.7493
62.0389
59.4603
54.1662
50.5385
43.5388
37.0972
77.2147
76.6454
74.5828
72.7286
71.4854
70.8536
70.7091
70.8274
71.0138
71.1634
71.2391
71.2364
71.168
71.0564
70.9297
70.8123
70.7203
70.662
70.6364
70.6393
70.6643
70.7032
70.7518
70.8045
70.8597
70.917
70.9719
71.0262
71.0822
71.1356
71.1921
71.2536
71.3169
71.3886
71.4702
71.5554
71.6489
71.7504
71.8505
71.9504
72.0502
72.1392
72.2178
72.2887
72.3478
72.395
72.4361
72.4709
72.4964
72.5179
72.5381
72.5559
72.5755
72.6011
72.6312
72.6667
72.7095
72.7561
72.8076
72.8664
72.9323
73.011
73.1088
73.2273
73.3648
73.5191
73.6811
73.8457
74.0079
74.1652
74.3139
74.4522
74.5773
74.6937
74.8019
74.9012
74.9923
75.0761
75.1503
75.2123
75.2847
75.3867
75.5231
75.6936
75.9258
76.2045
76.564
76.9215
77.3432
77.7855
78.3051
78.8744
79.4919
80.1419
80.8504
81.5582
82.2704
82.945
83.6101
84.2126
84.8042
85.3063
85.7891
86.2136
86.5977
86.8986
87.2048
87.4436
87.6836
87.8702
88.0755
88.2136
88.3895
88.5006
88.6439
88.7365
88.8681
88.9493
89.0737
89.1361
89.2538
89.3119
89.4269
89.4704
89.5682
89.5807
89.6646
89.6584
89.7164
89.649
89.6504
89.5091
89.4758
89.3145
89.2653
89.0616
88.9898
88.7289
88.6324
88.3492
88.2813
88.0574
88.0673
87.9183
88.0192
87.9372
88.1022
88.0399
88.237
88.1572
88.3508
88.2166
88.377
88.1657
88.2755
87.977
88.05
87.6857
87.7399
87.3383
87.3758
86.9561
86.9807
86.5447
86.5706
86.111
86.1514
85.6623
85.7255
85.1985
85.2849
84.7095
84.814
84.1773
84.2822
83.5588
83.6327
82.8004
82.8115
81.8541
81.7618
80.6642
80.407
79.1648
78.6684
77.3019
76.4801
75.0175
73.7705
72.2128
70.5422
68.8964
66.7034
64.8979
61.7322
59.6129
55.1737
51.4665
45.5811
39.5087
77.5492
77.0203
74.9706
73.0907
71.816
71.1562
71.0154
71.1787
71.4368
71.6651
71.814
71.8751
71.8555
71.7751
71.6638
71.5509
71.4566
71.3938
71.3646
71.3668
71.3951
71.4401
71.4959
71.5566
71.6178
71.6795
71.7371
71.7909
71.8435
71.8912
71.9365
71.984
72.0293
72.0761
72.1277
72.1779
72.2272
72.2783
72.3232
72.3607
72.3924
72.4134
72.4214
72.4217
72.4146
72.3981
72.3774
72.355
72.3306
72.3082
72.2924
72.2808
72.276
72.2822
72.297
72.3207
72.3551
72.3979
72.4486
72.5075
72.5781
72.6662
72.7773
72.914
73.0777
73.2626
73.4604
73.6627
73.8631
74.0589
74.2459
74.4193
74.5793
74.7283
74.8642
74.9876
75.0963
75.1931
75.2748
75.3393
75.4145
75.5143
75.6506
75.8182
76.0389
76.3204
76.7038
77.0622
77.5251
77.9728
78.5259
79.116
79.7877
80.4984
81.2657
82.0192
82.7829
83.5045
84.2102
84.8355
85.4424
85.9721
86.4747
86.8982
87.2916
87.59
87.8864
88.118
88.3451
88.5172
88.7139
88.8321
88.9972
89.0904
89.2194
89.299
89.4245
89.5032
89.626
89.6883
89.806
89.8656
89.9802
90.022
90.116
90.128
90.2125
90.2043
90.2572
90.1718
90.1629
90.0047
89.9751
89.8101
89.773
89.5684
89.5203
89.2438
89.1675
88.8584
88.7766
88.5309
88.5039
88.3294
88.3809
88.2722
88.3983
88.3132
88.4723
88.3572
88.5198
88.3387
88.4649
88.2028
88.2619
87.9324
87.937
87.5692
87.5323
87.1492
87.0737
86.6815
86.5854
86.1793
86.0793
85.6578
85.5617
85.1206
85.0281
84.5633
84.4691
83.9755
83.8679
83.3379
83.1961
82.6131
82.4041
81.7531
81.4444
80.7135
80.2716
79.453
78.8408
77.9324
77.1255
76.1241
75.0951
74.0336
72.7702
71.641
70.0856
68.8449
66.7729
65.2683
62.3286
60.0603
56.0765
52.1759
47.0625
41.5313
77.803
77.307
75.2912
73.4231
72.153
71.4968
71.3737
71.5753
71.8856
72.1683
72.3679
72.4734
72.4895
72.4339
72.3375
72.2312
72.1391
72.0759
72.0459
72.0479
72.0781
72.1269
72.1876
72.2544
72.3208
72.386
72.4463
72.4992
72.5482
72.59
72.6247
72.6575
72.6846
72.7068
72.7279
72.7425
72.7497
72.7513
72.7433
72.7231
72.6925
72.652
72.5995
72.5381
72.4712
72.3999
72.3282
72.2601
72.1953
72.1361
72.0869
72.0492
72.0238
72.0143
72.0202
72.0409
72.0759
72.1205
72.1719
72.2343
72.3104
72.4073
72.5345
72.6975
72.8924
73.1117
73.348
73.5907
73.8365
74.0817
74.3181
74.5372
74.7394
74.9245
75.0936
75.2419
75.3706
75.484
75.5771
75.6485
75.7268
75.8243
75.9593
76.1127
76.3299
76.609
77.0168
77.3713
77.8787
78.3227
78.9169
79.5186
80.2724
81.0419
81.867
82.6289
83.4453
84.1952
84.9235
85.5483
86.1677
86.7124
87.2251
87.6461
88.0291
88.3195
88.6072
88.8269
89.0526
89.2166
89.4005
89.509
89.6573
89.7366
89.8509
89.9253
90.0364
90.115
90.2331
90.2963
90.4125
90.4714
90.5794
90.622
90.707
90.7236
90.8042
90.788
90.8344
90.7201
90.7142
90.5231
90.5181
90.3269
90.3242
90.0851
90.0743
89.7591
89.7303
89.3771
89.3184
89.0178
88.989
88.7722
88.8066
88.6537
88.7538
88.6215
88.7617
88.5932
88.7375
88.4934
88.5857
88.2784
88.2733
87.9491
87.8506
87.5234
87.3586
87.0275
86.8203
86.4794
86.2528
85.9023
85.6668
85.3064
85.0663
84.6939
84.4465
84.0585
83.7994
83.3938
83.1132
82.6861
82.3691
81.9078
81.5281
81.0205
80.5583
79.998
79.4325
78.8163
78.1212
77.4467
76.6099
75.8915
74.8855
74.1527
72.9254
72.1374
70.5318
69.5007
67.2987
65.748
62.8365
60.2894
56.6133
52.6933
48.1238
43.198
77.9964
77.523
75.5438
73.7158
72.4836
71.863
71.7735
72.0081
72.3502
72.6625
72.8885
73.0178
73.0552
73.018
72.9372
72.8445
72.7634
72.7086
72.685
72.6924
72.7274
72.7813
72.847
72.9185
72.9885
73.0551
73.1155
73.166
73.2094
73.2437
73.2673
73.2842
73.2924
73.2901
73.2797
73.2584
73.2246
73.1792
73.1221
73.0504
72.966
72.8711
72.7657
72.6523
72.5355
72.4174
72.3005
72.1888
72.0873
71.9978
71.9219
71.8622
71.8197
71.7986
71.8009
71.8251
71.865
71.914
71.9724
72.0446
72.1318
72.2446
72.3973
72.594
72.8259
73.0852
73.3628
73.6508
73.9449
74.2398
74.5259
74.7953
75.0448
75.2731
75.4779
75.6539
75.8064
75.9423
76.0554
76.1421
76.2274
76.3246
76.457
76.5931
76.8103
77.0747
77.505
77.8659
78.4082
78.8256
79.4925
80.0883
80.9518
81.7635
82.6395
83.3663
84.2525
85.0094
85.7566
86.3362
86.9859
87.5308
88.0509
88.4478
88.833
89.0875
89.3818
89.5676
89.7985
89.9346
90.124
90.2066
90.3651
90.4151
90.5485
90.5924
90.7262
90.7693
90.9072
90.9418
91.0799
91.108
91.2417
91.2562
91.3732
91.3604
91.4712
91.4036
91.4712
91.2926
91.3213
91.0532
91.124
90.8686
90.9409
90.6359
90.6714
90.2811
90.3132
89.9022
89.9258
89.5624
89.5883
89.2677
89.345
89.1032
89.2356
89.019
89.1661
88.9224
89.0518
88.7455
88.8046
88.4742
88.3998
88.1013
87.8993
87.6142
87.3492
87.0559
86.7595
86.4568
86.143
85.8321
85.5075
85.1881
84.8572
84.5306
84.1933
83.8591
83.5114
83.1708
82.8067
82.4582
82.0654
81.6992
81.2547
80.8652
80.3562
79.9469
79.3542
78.9281
78.2209
77.7821
76.933
76.4783
75.4304
74.9137
73.5831
72.8613
71.0939
69.965
67.6828
65.891
63.0725
60.3067
56.8748
53.1357
48.998
44.6122
78.1275
77.6691
75.7333
73.9712
72.8073
72.2523
72.2154
72.4827
72.8414
73.163
73.3973
73.5359
73.5841
73.5611
73.4969
73.4217
73.357
73.3159
73.3031
73.3184
73.3587
73.4162
73.4836
73.5556
73.625
73.6891
73.746
73.792
73.8286
73.8544
73.8666
73.8672
73.8548
73.8271
73.7849
73.7284
73.6556
73.5682
73.4685
73.3552
73.2273
73.0864
72.9349
72.7749
72.6102
72.4468
72.2877
72.1398
72.0098
71.8973
71.8024
71.7286
71.6778
71.6533
71.6526
71.6767
71.721
71.7826
71.8581
71.9458
72.0538
72.1977
72.3896
72.6302
72.9101
73.2167
73.5393
73.8711
74.208
74.5436
74.8717
75.1855
75.4762
75.7413
75.975
76.1762
76.3497
76.5132
76.6549
76.771
76.874
76.9829
77.1146
77.2448
77.4577
77.7237
78.1565
78.5328
79.0707
79.4832
80.2429
80.8126
81.7833
82.6027
83.519
84.1796
85.1476
85.8798
86.6421
87.1404
87.8509
88.3582
88.911
89.2607
89.6743
89.8658
90.1977
90.321
90.5789
90.6686
90.8793
90.9141
91.1049
91.0972
91.2805
91.2627
91.4555
91.4238
91.6253
91.589
91.7937
91.7574
91.9576
91.9142
92.1005
92.0295
92.1907
92.0595
92.1363
91.9096
91.9526
91.6356
91.7719
91.4509
91.5749
91.2284
91.2653
90.8689
90.9241
90.472
90.5597
90.1574
90.2658
89.8993
90.0137
89.6894
89.8407
89.5541
89.6953
89.3925
89.4911
89.1574
89.1658
88.8504
88.6908
88.4268
88.1527
87.8922
87.5773
87.3056
86.9669
86.6854
86.3297
86.0395
85.6749
85.3801
85.0093
84.7161
84.3397
84.0539
83.6661
83.3929
82.9872
82.727
82.2895
82.0395
81.5492
81.3049
80.7432
80.5019
79.8453
79.599
78.8141
78.5408
77.5884
77.241
76.0675
75.551
74.0751
73.2327
71.3815
70.0243
67.7775
65.731
63.0574
60.2397
57.0241
53.544
49.7721
45.809
78.178
77.7285
75.8583
74.1992
73.1389
72.6815
72.7115
73.0044
73.3615
73.6706
73.8927
74.0228
74.0695
74.0543
74.006
73.9508
73.9065
73.8835
73.8857
73.9118
73.9587
74.0196
74.0877
74.1583
74.2255
74.2862
74.3387
74.3799
74.409
74.4249
74.4244
74.4067
74.3719
74.3183
74.2461
74.1575
74.0519
73.9299
73.7938
73.6415
73.4723
73.2879
73.0917
72.8881
72.6822
72.4819
72.2948
72.126
71.9774
71.8516
71.7532
71.6809
71.6342
71.617
71.6272
71.6609
71.7143
71.7881
71.8826
71.9966
72.1342
72.3115
72.5453
72.8369
73.1731
73.5346
73.9072
74.2817
74.6579
75.032
75.3981
75.7435
76.0633
76.3519
76.6057
76.8243
77.0152
77.1951
77.3622
77.5054
77.627
77.7502
77.8846
78.0179
78.2244
78.5163
78.9471
79.337
79.8447
80.3123
81.1184
81.6847
82.7183
83.506
84.4116
85.0295
86.0699
86.7315
87.4915
87.9234
88.7182
89.1433
89.7515
90.0301
90.4917
90.6177
91.006
91.0621
91.383
91.4105
91.6619
91.6371
91.8626
91.7941
92.0248
91.9364
92.1865
92.0798
92.3557
92.2434
92.5344
92.4206
92.7134
92.5919
92.8688
92.7111
92.9475
92.72
92.8373
92.5406
92.5945
92.2417
92.4213
92.0755
92.242
91.8714
91.8975
91.5269
91.5453
91.1271
91.2468
90.8206
90.9848
90.6129
90.752
90.4166
90.5426
90.2356
90.325
90.0237
90.043
89.7581
89.6472
89.4011
89.1408
88.929
88.6007
88.3826
88.0225
87.7945
87.4087
87.1733
86.7692
86.5309
86.1153
85.8838
85.4576
85.243
84.8059
84.6147
84.1604
83.9965
83.5175
83.3793
82.8605
82.7412
82.1626
82.0481
81.3909
81.2614
80.5025
80.3306
79.4449
79.1903
78.1474
77.7353
76.4865
75.8157
74.3017
73.2343
71.4178
69.8286
67.6922
65.5106
62.9665
60.2187
57.1949
53.9521
50.4805
46.8391
78.0967
77.6619
75.9175
74.4252
73.5146
73.1818
73.2767
73.5753
73.9047
74.1779
74.3682
74.4756
74.5136
74.5054
74.4755
74.4446
74.4254
74.4245
74.444
74.4819
74.5345
74.5965
74.6621
74.7277
74.7889
74.8428
74.8873
74.9194
74.9368
74.9379
74.9193
74.8798
74.8195
74.7386
74.6391
74.5226
74.3886
74.2381
74.072
73.8871
73.6832
73.4624
73.2276
72.9893
72.7611
72.5482
72.3484
72.1673
72.0158
71.897
71.8075
71.7456
71.7159
71.7207
71.7518
71.8052
71.8837
71.9878
72.1153
72.2611
72.4306
72.6445
72.9238
73.2675
73.6568
74.0701
74.4919
74.9138
75.3322
75.7453
76.1443
76.5186
76.8588
77.1607
77.4238
77.6519
77.851
78.0379
78.2181
78.3799
78.5152
78.6478
78.7761
78.9136
79.0998
79.4146
79.7976
80.2018
80.6837
81.2669
82.0744
82.6607
83.6963
84.4319
85.2592
85.9264
86.976
87.5623
88.2724
88.7045
89.5317
89.8872
90.5326
90.7652
91.2407
91.3176
91.7429
91.7513
92.1178
92.0957
92.3821
92.319
92.569
92.4644
92.7179
92.5914
92.865
92.7147
93.0334
92.8808
93.2193
93.0678
93.406
93.2428
93.5697
93.356
93.6184
93.3473
93.4748
93.1797
93.2164
92.8852
93.0588
92.7219
92.8954
92.5678
92.5568
92.2788
92.195
91.8328
91.9037
91.5435
91.7226
91.4
91.5314
91.2391
91.3031
91.0369
91.0261
90.7946
90.6702
90.4897
90.225
90.0716
89.7259
89.5814
89.1939
89.0393
88.6179
88.4522
88.005
87.8326
87.3685
87.1985
86.7211
86.5651
86.0753
85.9424
85.44
85.3342
84.8116
84.7294
84.1807
84.1153
83.5266
83.461
82.8133
82.7229
82.0006
81.8602
81.0426
80.8136
79.8771
79.5074
78.4288
77.8521
76.6013
75.7223
74.2605
72.9883
71.2784
69.5558
67.5224
65.335
62.9013
60.2652
57.4113
54.3673
51.1307
47.7279
77.7857
77.3937
75.907
74.6824
73.9801
73.7783
73.9123
74.1819
74.4526
74.6656
74.8076
74.8841
74.9122
74.9122
74.9023
74.8959
74.9007
74.9192
74.9517
74.9955
75.0474
75.1038
75.161
75.2161
75.2662
75.3085
75.3408
75.36
75.3629
75.3468
75.3089
75.2481
75.1646
75.0593
74.9354
74.7956
74.6398
74.4684
74.2817
74.0755
73.849
73.6098
73.3652
73.1179
72.8797
72.6661
72.4828
72.3267
72.1962
72.0957
72.0269
71.9923
71.9961
72.0339
72.0945
72.1759
72.2886
72.436
72.6057
72.7892
72.9976
73.256
73.5856
73.9828
74.422
74.8779
75.3389
75.8007
76.2583
76.7048
77.1296
77.5186
77.8657
78.1661
78.4218
78.6453
78.8417
79.0222
79.2043
79.371
79.5168
79.6617
79.7939
79.9331
80.0981
80.42
80.703
81.1393
81.589
82.2561
83.0111
83.665
84.6418
85.2761
86.0176
86.8425
87.8194
88.3178
88.9285
89.5131
90.2645
90.6005
91.1935
91.4087
91.8203
91.9873
92.349
92.4018
92.7408
92.7143
92.9868
92.9232
93.1439
93.074
93.2711
93.2106
93.3958
93.3503
93.5721
93.5115
93.7666
93.6841
93.9558
93.8402
94.1087
93.9226
94.1497
93.8715
94.0343
93.7208
93.7979
93.5454
93.6392
93.4323
93.5179
93.2706
93.2597
93.0655
92.8936
92.6668
92.583
92.2498
92.4233
92.1307
92.2677
92.0226
92.0408
91.8388
91.7183
91.5793
91.3032
91.2053
90.8423
90.7545
90.3508
90.2562
89.817
89.7017
89.2346
89.1026
88.6171
88.4764
87.9774
87.8407
87.3293
87.2064
86.683
86.5778
86.0427
85.9546
85.4029
85.3242
84.7503
84.6693
84.0609
83.9559
83.2956
83.1318
82.4033
82.1516
81.3419
80.9665
80.0544
79.5064
78.4753
77.7031
76.527
75.4725
74.1057
72.7154
71.0875
69.3313
67.3705
65.2321
62.8972
60.3765
57.6679
54.7837
51.7293
48.5196
77.2127
76.9088
75.8568
75.0118
74.5562
74.4575
74.5752
74.7675
74.9492
75.0868
75.1756
75.2238
75.2453
75.2546
75.2625
75.2757
75.2972
75.3269
75.3635
75.4053
75.4497
75.4951
75.5394
75.5807
75.6173
75.6468
75.6667
75.6741
75.6652
75.6355
75.5805
75.5005
75.3979
75.2742
75.1314
74.9764
74.8149
74.6418
74.4497
74.2399
74.0169
73.7818
73.546
73.3222
73.1127
72.9213
72.7643
72.6522
72.5743
72.5188
72.4908
72.5077
72.5684
72.6555
72.7622
72.889
73.0403
73.2195
73.4179
73.6324
73.882
74.1936
74.5769
75.0182
75.4909
75.9748
76.4624
76.9475
77.4223
77.88
78.3074
78.6931
79.0306
79.3128
79.5467
79.7489
79.9233
80.078
80.2333
80.3861
80.5366
80.694
80.8449
81.0047
81.1665
81.506
81.6595
82.1574
82.5412
83.2129
83.8798
84.6942
85.4892
86.1023
86.8277
87.7272
88.4993
88.9997
89.5846
90.323
90.8807
91.2755
91.7263
92.0014
92.3217
92.6244
92.8438
93.0444
93.2154
93.2939
93.4221
93.4715
93.5645
93.6374
93.6997
93.7957
93.8399
93.9662
94.0094
94.1296
94.1775
94.2791
94.339
94.3971
94.4556
94.4376
94.4776
94.3869
94.3881
94.2997
94.255
94.2271
94.1511
94.1592
94.0322
94.0048
93.8612
93.8102
93.568
93.5002
93.2094
93.1225
93.0294
92.8765
92.9096
92.7249
92.6792
92.5419
92.3246
92.2434
91.8853
91.8345
91.4197
91.3726
90.9176
90.8395
90.367
90.2523
89.7686
89.6303
89.1372
88.9884
88.4859
88.3386
87.8273
87.6867
87.1671
87.0326
86.5047
86.3726
85.8337
85.6927
85.1382
84.9728
84.3908
84.1764
83.5507
83.2566
82.5679
82.1676
81.4085
80.8729
80.0289
79.3237
78.3699
77.4656
76.3655
75.2246
73.916
72.4951
70.9117
69.1759
67.269
65.193
62.9443
60.525
57.9374
55.1856
52.2776
49.2214
76.5574
76.3908
75.8549
75.4122
75.1688
75.1052
75.151
75.2388
75.3263
75.3943
75.4397
75.4674
75.4858
75.5028
75.5227
75.5472
75.5764
75.6085
75.6422
75.6762
75.7094
75.7416
75.7726
75.8016
75.8271
75.8464
75.8561
75.8531
75.8338
75.7936
75.7266
75.6325
75.5178
75.3909
75.2518
75.095
74.9299
74.7641
74.592
74.3996
74.1952
73.997
73.8058
73.6185
73.446
73.3142
73.2324
73.1891
73.1701
73.1782
73.227
73.32
73.4489
73.5984
73.763
73.9463
74.1473
74.3581
74.5787
74.8153
75.0883
75.4213
75.8189
76.2667
76.7393
77.2192
77.7012
78.1777
78.6415
79.0829
79.4916
79.8573
80.1723
80.4276
80.6303
80.7992
80.9365
81.0528
81.1707
81.3014
81.4558
81.6285
81.8002
81.9941
82.1751
82.5609
82.6624
83.2035
83.507
84.1882