/*--------------------------------*- C++ -*----------------------------------*\
| =========                 |                                                 |
| \\      /  F ield         | OpenFOAM: The Open Source CFD Toolbox           |
|  \\    /   O peration     | Version:  2.4.0                                 |
|   \\  /    A nd           | Web:      www.OpenFOAM.org                      |
|    \\/     M anipulation  |                                                 |
\*---------------------------------------------------------------------------*/
FoamFile
{
    version     2.0;
    format      ascii;
    class       volScalarField;
    location    "0.12";
    object      pPrime2Mean;
}
// * * * * * * * * * * * * * * * * * * * * * * * * * * * * * * * * * * * * * //

dimensions      [0 4 -4 0 0 0 0];

internalField   nonuniform List<scalar> 
8800
(
5.3855e+06
5.24958e+06
5.10375e+06
4.95915e+06
4.81653e+06
4.67598e+06
4.53751e+06
4.40111e+06
4.26679e+06
4.13453e+06
4.00432e+06
3.87615e+06
3.74997e+06
3.62573e+06
3.50329e+06
3.38243e+06
3.26268e+06
3.14312e+06
3.02161e+06
2.89137e+06
5.38568e+06
5.2496e+06
5.10374e+06
4.95915e+06
4.81653e+06
4.67598e+06
4.53751e+06
4.40111e+06
4.26679e+06
4.13453e+06
4.00432e+06
3.87615e+06
3.74998e+06
3.62574e+06
3.50332e+06
3.38249e+06
3.26281e+06
3.1434e+06
3.02228e+06
2.89355e+06
5.3858e+06
5.2496e+06
5.1037e+06
4.95913e+06
4.81652e+06
4.67598e+06
4.53751e+06
4.40111e+06
4.26679e+06
4.13453e+06
4.00433e+06
3.87616e+06
3.75e+06
3.62578e+06
3.50339e+06
3.38262e+06
3.26306e+06
3.14392e+06
3.0235e+06
2.89782e+06
5.38589e+06
5.24959e+06
5.10367e+06
4.9591e+06
4.81651e+06
4.67597e+06
4.5375e+06
4.40111e+06
4.26679e+06
4.13453e+06
4.00433e+06
3.87618e+06
3.75003e+06
3.62583e+06
3.50349e+06
3.3828e+06
3.26342e+06
3.14467e+06
3.02521e+06
2.9028e+06
5.38597e+06
5.24959e+06
5.10364e+06
4.95908e+06
4.8165e+06
4.67597e+06
4.5375e+06
4.40111e+06
4.26679e+06
4.13454e+06
4.00434e+06
3.8762e+06
3.75006e+06
3.6259e+06
3.50361e+06
3.38304e+06
3.26388e+06
3.1456e+06
3.02726e+06
2.90795e+06
5.38603e+06
5.2496e+06
5.10362e+06
4.95906e+06
4.81649e+06
4.67597e+06
4.5375e+06
4.40111e+06
4.26679e+06
4.13454e+06
4.00435e+06
3.87622e+06
3.75011e+06
3.62598e+06
3.50376e+06
3.38332e+06
3.26443e+06
3.14667e+06
3.02951e+06
2.91299e+06
5.38607e+06
5.2496e+06
5.1036e+06
4.95904e+06
4.81648e+06
4.67597e+06
4.5375e+06
4.40111e+06
4.26679e+06
4.13455e+06
4.00437e+06
3.87624e+06
3.75016e+06
3.62607e+06
3.50393e+06
3.38364e+06
3.26503e+06
3.14784e+06
3.03186e+06
2.91778e+06
5.3861e+06
5.24961e+06
5.10359e+06
4.95903e+06
4.81648e+06
4.67597e+06
4.5375e+06
4.40111e+06
4.26679e+06
4.13455e+06
4.00438e+06
3.87627e+06
3.75021e+06
3.62617e+06
3.50412e+06
3.38399e+06
3.26567e+06
3.14907e+06
3.03422e+06
2.92224e+06
5.38613e+06
5.24961e+06
5.10358e+06
4.95902e+06
4.81647e+06
4.67597e+06
4.53751e+06
4.40111e+06
4.2668e+06
4.13456e+06
4.0044e+06
3.87631e+06
3.75027e+06
3.62628e+06
3.50432e+06
3.38435e+06
3.26635e+06
3.15032e+06
3.03654e+06
2.92635e+06
5.38614e+06
5.24962e+06
5.10358e+06
4.95902e+06
4.81647e+06
4.67597e+06
4.53751e+06
4.40111e+06
4.2668e+06
4.13457e+06
4.00442e+06
3.87634e+06
3.75033e+06
3.62639e+06
3.50452e+06
3.38472e+06
3.26702e+06
3.15155e+06
3.03877e+06
2.9301e+06
5.38614e+06
5.24962e+06
5.10358e+06
4.95902e+06
4.81647e+06
4.67597e+06
4.53751e+06
4.40112e+06
4.26681e+06
4.13458e+06
4.00444e+06
3.87637e+06
3.75039e+06
3.6265e+06
3.50472e+06
3.38509e+06
3.26769e+06
3.15275e+06
3.04086e+06
2.93347e+06
5.38613e+06
5.24962e+06
5.10358e+06
4.95902e+06
4.81647e+06
4.67597e+06
4.53751e+06
4.40112e+06
4.26681e+06
4.13459e+06
4.00445e+06
3.87641e+06
3.75045e+06
3.62661e+06
3.50492e+06
3.38545e+06
3.26834e+06
3.15389e+06
3.04279e+06
2.93648e+06
5.3861e+06
5.24961e+06
5.10359e+06
4.95903e+06
4.81648e+06
4.67597e+06
4.53751e+06
4.40112e+06
4.26682e+06
4.1346e+06
4.00447e+06
3.87644e+06
3.75051e+06
3.62672e+06
3.50511e+06
3.38579e+06
3.26895e+06
3.15494e+06
3.04454e+06
2.93914e+06
5.38607e+06
5.24961e+06
5.1036e+06
4.95904e+06
4.81649e+06
4.67597e+06
4.53751e+06
4.40113e+06
4.26683e+06
4.13461e+06
4.00449e+06
3.87647e+06
3.75056e+06
3.62682e+06
3.50529e+06
3.38611e+06
3.2695e+06
3.1559e+06
3.04609e+06
2.94144e+06
5.38603e+06
5.2496e+06
5.10362e+06
4.95906e+06
4.8165e+06
4.67598e+06
4.53752e+06
4.40113e+06
4.26683e+06
4.13462e+06
4.00451e+06
3.8765e+06
3.75061e+06
3.6269e+06
3.50545e+06
3.38639e+06
3.27e+06
3.15674e+06
3.04744e+06
2.9434e+06
5.38597e+06
5.24959e+06
5.10364e+06
4.95908e+06
4.81651e+06
4.67598e+06
4.53752e+06
4.40114e+06
4.26684e+06
4.13463e+06
4.00452e+06
3.87652e+06
3.75066e+06
3.62698e+06
3.50558e+06
3.38663e+06
3.27042e+06
3.15745e+06
3.04857e+06
2.94503e+06
5.38589e+06
5.24959e+06
5.10367e+06
4.95911e+06
4.81652e+06
4.67598e+06
4.53752e+06
4.40114e+06
4.26685e+06
4.13464e+06
4.00453e+06
3.87654e+06
3.75069e+06
3.62705e+06
3.5057e+06
3.38684e+06
3.27077e+06
3.15803e+06
3.04948e+06
2.94633e+06
5.3858e+06
5.2496e+06
5.1037e+06
4.95913e+06
4.81653e+06
4.67599e+06
4.53753e+06
4.40115e+06
4.26685e+06
4.13465e+06
4.00454e+06
3.87656e+06
3.75072e+06
3.6271e+06
3.50579e+06
3.38699e+06
3.27103e+06
3.15847e+06
3.05016e+06
2.9473e+06
5.38568e+06
5.2496e+06
5.10374e+06
4.95915e+06
4.81654e+06
4.67599e+06
4.53753e+06
4.40115e+06
4.26686e+06
4.13465e+06
4.00455e+06
3.87657e+06
3.75074e+06
3.62713e+06
3.50585e+06
3.3871e+06
3.27121e+06
3.15877e+06
3.05062e+06
2.94794e+06
5.3855e+06
5.24958e+06
5.10375e+06
4.95916e+06
4.81654e+06
4.676e+06
4.53753e+06
4.40115e+06
4.26686e+06
4.13465e+06
4.00455e+06
3.87657e+06
3.75075e+06
3.62715e+06
3.50588e+06
3.38715e+06
3.27131e+06
3.15891e+06
3.05085e+06
2.94826e+06
2.77333e+06
2.74152e+06
2.71727e+06
2.69631e+06
2.67688e+06
2.6584e+06
2.64058e+06
2.62325e+06
2.6063e+06
2.58964e+06
2.57322e+06
2.55699e+06
2.54092e+06
2.525e+06
2.5092e+06
2.49351e+06
2.47793e+06
2.46245e+06
2.44706e+06
2.43175e+06
2.41651e+06
2.40135e+06
2.38626e+06
2.37122e+06
2.35625e+06
2.34133e+06
2.32647e+06
2.31165e+06
2.29689e+06
2.28218e+06
2.26751e+06
2.2529e+06
2.23834e+06
2.22383e+06
2.20938e+06
2.19497e+06
2.18061e+06
2.16629e+06
2.15203e+06
2.13781e+06
2.12364e+06
2.10951e+06
2.09542e+06
2.08139e+06
2.06739e+06
2.05345e+06
2.03955e+06
2.0257e+06
2.0119e+06
1.99815e+06
1.98445e+06
1.9708e+06
1.9572e+06
1.94366e+06
1.93017e+06
1.91673e+06
1.90334e+06
1.89e+06
1.87672e+06
1.86348e+06
1.85029e+06
1.83715e+06
1.82405e+06
1.81101e+06
1.79801e+06
1.78506e+06
1.77215e+06
1.7593e+06
1.74649e+06
1.73372e+06
1.72101e+06
1.70834e+06
1.69572e+06
1.68315e+06
1.67062e+06
1.65814e+06
1.6457e+06
1.63331e+06
1.62097e+06
1.60867e+06
1.59642e+06
1.58421e+06
1.57205e+06
1.55993e+06
1.54786e+06
1.53584e+06
1.52386e+06
1.51192e+06
1.50003e+06
1.48818e+06
1.47637e+06
1.46461e+06
1.4529e+06
1.44123e+06
1.4296e+06
1.41803e+06
1.40649e+06
1.39501e+06
1.38357e+06
1.37218e+06
1.36084e+06
1.34955e+06
1.3383e+06
1.3271e+06
1.31595e+06
1.30485e+06
1.29379e+06
1.28278e+06
1.27181e+06
1.2609e+06
1.25003e+06
1.2392e+06
1.22843e+06
1.2177e+06
1.20702e+06
1.19639e+06
1.18581e+06
1.17527e+06
1.16479e+06
1.15435e+06
1.14396e+06
1.13362e+06
1.12333e+06
1.11308e+06
1.10289e+06
1.09274e+06
1.08264e+06
1.07258e+06
1.06258e+06
1.05262e+06
1.04271e+06
1.03285e+06
1.02304e+06
1.01327e+06
1.00355e+06
993877
984252
974673
965141
955657
946218
936825
927476
918173
908913
899696
890524
881396
872313
863276
854286
845343
836449
827602
818804
810055
801353
792700
784093
775534
767020
758553
750131
741756
733425
725141
716899
708705
700552
692447
684381
676362
668381
660447
652550
644698
636882
629110
621375
613682
606025
598406
590820
583266
575739
568238
560756
553289
545831
538372
530902
523406
515866
508256
500538
492655
484517
475965
466529
455517
2.79594e+06
2.76207e+06
2.73445e+06
2.71067e+06
2.68917e+06
2.66908e+06
2.64995e+06
2.63153e+06
2.61365e+06
2.5962e+06
2.57908e+06
2.56225e+06
2.54565e+06
2.52926e+06
2.51304e+06
2.49697e+06
2.48106e+06
2.46527e+06
2.4496e+06
2.43404e+06
2.41858e+06
2.40322e+06
2.38794e+06
2.37274e+06
2.35762e+06
2.34256e+06
2.32758e+06
2.31265e+06
2.29779e+06
2.28299e+06
2.26824e+06
2.25356e+06
2.23893e+06
2.22436e+06
2.20985e+06
2.19539e+06
2.18099e+06
2.16664e+06
2.15234e+06
2.13809e+06
2.12388e+06
2.10973e+06
2.09563e+06
2.08157e+06
2.06756e+06
2.0536e+06
2.03969e+06
2.02583e+06
2.01202e+06
1.99827e+06
1.98456e+06
1.97091e+06
1.95732e+06
1.94377e+06
1.93028e+06
1.91684e+06
1.90345e+06
1.89012e+06
1.87683e+06
1.8636e+06
1.85041e+06
1.83727e+06
1.82418e+06
1.81114e+06
1.79814e+06
1.78519e+06
1.77229e+06
1.75944e+06
1.74663e+06
1.73387e+06
1.72116e+06
1.70849e+06
1.69587e+06
1.68329e+06
1.67077e+06
1.65828e+06
1.64585e+06
1.63346e+06
1.62111e+06
1.60882e+06
1.59656e+06
1.58436e+06
1.57219e+06
1.56008e+06
1.548e+06
1.53598e+06
1.52399e+06
1.51205e+06
1.50015e+06
1.4883e+06
1.47649e+06
1.46472e+06
1.453e+06
1.44132e+06
1.42969e+06
1.41811e+06
1.40657e+06
1.39508e+06
1.38364e+06
1.37224e+06
1.3609e+06
1.3496e+06
1.33835e+06
1.32715e+06
1.31599e+06
1.30489e+06
1.29383e+06
1.28281e+06
1.27185e+06
1.26093e+06
1.25006e+06
1.23924e+06
1.22846e+06
1.21773e+06
1.20705e+06
1.19642e+06
1.18583e+06
1.1753e+06
1.16481e+06
1.15437e+06
1.14398e+06
1.13364e+06
1.12334e+06
1.11309e+06
1.10289e+06
1.09274e+06
1.08264e+06
1.07258e+06
1.06257e+06
1.05262e+06
1.0427e+06
1.03284e+06
1.02302e+06
1.01325e+06
1.00353e+06
993857
984230
974649
965116
955628
946187
936791
927438
918131
908866
899645
890466
881333
872242
863199
854200
845251
836347
827492
818684
809925
801212
792547
783926
775353
766822
758339
749897
741502
733146
724838
716568
708344
700157
692016
683909
675847
667818
659831
651877
643962
636079
628231
620415
612632
604877
597149
589444
581760
574090
566430
558773
551112
543435
535734
527988
520181
512283
504255
496040
487561
478655
469168
458516
445892
2.81163e+06
2.77804e+06
2.74914e+06
2.72368e+06
2.70062e+06
2.67919e+06
2.65891e+06
2.63951e+06
2.62078e+06
2.60257e+06
2.5848e+06
2.56739e+06
2.55028e+06
2.53343e+06
2.5168e+06
2.50037e+06
2.48413e+06
2.46804e+06
2.4521e+06
2.4363e+06
2.42062e+06
2.40506e+06
2.3896e+06
2.37424e+06
2.35896e+06
2.34378e+06
2.32867e+06
2.31363e+06
2.29867e+06
2.28378e+06
2.26896e+06
2.2542e+06
2.23951e+06
2.22488e+06
2.21032e+06
2.19581e+06
2.18136e+06
2.16697e+06
2.15264e+06
2.13835e+06
2.12413e+06
2.10995e+06
2.09582e+06
2.08175e+06
2.06773e+06
2.05375e+06
2.03983e+06
2.02597e+06
2.01215e+06
1.99839e+06
1.98469e+06
1.97104e+06
1.95744e+06
1.9439e+06
1.93041e+06
1.91697e+06
1.90358e+06
1.89025e+06
1.87697e+06
1.86373e+06
1.85055e+06
1.83741e+06
1.82432e+06
1.81128e+06
1.79829e+06
1.78534e+06
1.77244e+06
1.75959e+06
1.74678e+06
1.73402e+06
1.72131e+06
1.70864e+06
1.69602e+06
1.68344e+06
1.67092e+06
1.65843e+06
1.646e+06
1.63361e+06
1.62126e+06
1.60896e+06
1.59671e+06
1.5845e+06
1.57233e+06
1.56021e+06
1.54814e+06
1.5361e+06
1.52412e+06
1.51217e+06
1.50027e+06
1.48841e+06
1.47659e+06
1.46482e+06
1.45309e+06
1.44141e+06
1.42977e+06
1.41818e+06
1.40663e+06
1.39514e+06
1.38369e+06
1.37229e+06
1.36094e+06
1.34964e+06
1.33839e+06
1.32718e+06
1.31603e+06
1.30492e+06
1.29386e+06
1.28284e+06
1.27188e+06
1.26096e+06
1.25009e+06
1.23926e+06
1.22848e+06
1.21775e+06
1.20707e+06
1.19644e+06
1.18585e+06
1.17531e+06
1.16482e+06
1.15438e+06
1.14399e+06
1.13364e+06
1.12335e+06
1.1131e+06
1.10289e+06
1.09274e+06
1.08263e+06
1.07257e+06
1.06256e+06
1.0526e+06
1.04269e+06
1.03282e+06
1.023e+06
1.01323e+06
1.0035e+06
993830
984200
974619
965083
955594
946150
936751
927394
918083
908813
899588
890403
881263
872166
863116
854110
845153
836241
827378
818561
809792
801068
792392
783757
775170
766623
758122
749661
741245
732867
724534
716236
707983
699763
691586
683440
675334
667260
659221
651211
643234
635285
627365
619469
611599
603748
595916
588094
580285
572474
564662
556835
548989
541105
533175
525173
517080
508852
500465
491804
482875
473378
463312
452125
439321
2.82356e+06
2.79086e+06
2.76162e+06
2.73523e+06
2.71109e+06
2.6886e+06
2.66737e+06
2.6471e+06
2.62759e+06
2.6087e+06
2.59032e+06
2.57236e+06
2.55476e+06
2.53748e+06
2.52046e+06
2.50368e+06
2.48712e+06
2.47074e+06
2.45455e+06
2.43851e+06
2.42261e+06
2.40685e+06
2.39122e+06
2.3757e+06
2.36028e+06
2.34496e+06
2.32973e+06
2.31459e+06
2.29953e+06
2.28455e+06
2.26965e+06
2.25483e+06
2.24007e+06
2.22539e+06
2.21077e+06
2.19622e+06
2.18173e+06
2.1673e+06
2.15293e+06
2.13862e+06
2.12436e+06
2.11016e+06
2.09602e+06
2.08193e+06
2.06789e+06
2.05391e+06
2.03998e+06
2.02611e+06
2.01229e+06
1.99853e+06
1.98482e+06
1.97117e+06
1.95758e+06
1.94403e+06
1.93055e+06
1.91711e+06
1.90373e+06
1.8904e+06
1.87711e+06
1.86388e+06
1.8507e+06
1.83756e+06
1.82447e+06
1.81143e+06
1.79844e+06
1.78549e+06
1.77259e+06
1.75973e+06
1.74693e+06
1.73417e+06
1.72145e+06
1.70878e+06
1.69616e+06
1.68359e+06
1.67106e+06
1.65857e+06
1.64613e+06
1.63374e+06
1.62139e+06
1.60909e+06
1.59683e+06
1.58462e+06
1.57245e+06
1.56033e+06
1.54825e+06
1.53622e+06
1.52422e+06
1.51227e+06
1.50037e+06
1.4885e+06
1.47668e+06
1.4649e+06
1.45316e+06
1.44147e+06
1.42983e+06
1.41823e+06
1.40668e+06
1.39518e+06
1.38373e+06
1.37233e+06
1.36097e+06
1.34967e+06
1.33841e+06
1.32721e+06
1.31605e+06
1.30494e+06
1.29388e+06
1.28286e+06
1.27189e+06
1.26097e+06
1.2501e+06
1.23927e+06
1.2285e+06
1.21777e+06
1.20708e+06
1.19645e+06
1.18586e+06
1.17532e+06
1.16483e+06
1.15438e+06
1.14399e+06
1.13364e+06
1.12334e+06
1.11309e+06
1.10288e+06
1.09273e+06
1.08262e+06
1.07256e+06
1.06254e+06
1.05258e+06
1.04266e+06
1.03279e+06
1.02297e+06
1.0132e+06
1.00347e+06
993794
984163
974581
965043
955553
946106
936704
927344
918029
908754
899524
890334
881188
872085
863029
854016
845052
836132
827261
818435
809657
800922
792234
783587
774986
766423
757906
749425
740990
732589
724232
715907
707625
699374
691161
682978
674830
666710
658621
650558
642522
634508
626518
618545
610591
602647
594714
586781
578849
570906
562948
554960
546940
538859
530723
522472
514140
505597
496929
487893
478619
468757
458322
447004
434491
2.83319e+06
2.80138e+06
2.77221e+06
2.74538e+06
2.72053e+06
2.69725e+06
2.67524e+06
2.65423e+06
2.63404e+06
2.61454e+06
2.59559e+06
2.57713e+06
2.55908e+06
2.54138e+06
2.524e+06
2.50688e+06
2.49001e+06
2.47337e+06
2.45692e+06
2.44065e+06
2.42455e+06
2.4086e+06
2.39279e+06
2.37711e+06
2.36155e+06
2.34611e+06
2.33076e+06
2.31552e+06
2.30037e+06
2.28531e+06
2.27033e+06
2.25543e+06
2.24062e+06
2.22588e+06
2.21121e+06
2.19661e+06
2.18208e+06
2.16762e+06
2.15321e+06
2.13887e+06
2.12459e+06
2.11037e+06
2.09621e+06
2.0821e+06
2.06806e+06
2.05407e+06
2.04013e+06
2.02626e+06
2.01244e+06
1.99868e+06
1.98497e+06
1.97132e+06
1.95773e+06
1.94419e+06
1.9307e+06
1.91726e+06
1.90388e+06
1.89055e+06
1.87727e+06
1.86403e+06
1.85085e+06
1.83771e+06
1.82462e+06
1.81158e+06
1.79858e+06
1.78563e+06
1.77273e+06
1.75987e+06
1.74706e+06
1.7343e+06
1.72158e+06
1.70891e+06
1.69629e+06
1.68371e+06
1.67118e+06
1.65869e+06
1.64625e+06
1.63385e+06
1.6215e+06
1.6092e+06
1.59694e+06
1.58472e+06
1.57255e+06
1.56042e+06
1.54834e+06
1.5363e+06
1.52431e+06
1.51235e+06
1.50044e+06
1.48857e+06
1.47675e+06
1.46496e+06
1.45322e+06
1.44152e+06
1.42987e+06
1.41827e+06
1.40671e+06
1.3952e+06
1.38375e+06
1.37234e+06
1.36098e+06
1.34968e+06
1.33842e+06
1.32721e+06
1.31605e+06
1.30494e+06
1.29388e+06
1.28286e+06
1.2719e+06
1.26098e+06
1.2501e+06
1.23927e+06
1.2285e+06
1.21776e+06
1.20708e+06
1.19644e+06
1.18586e+06
1.17531e+06
1.16482e+06
1.15437e+06
1.14398e+06
1.13363e+06
1.12333e+06
1.11307e+06
1.10286e+06
1.09271e+06
1.08259e+06
1.07253e+06
1.06252e+06
1.05255e+06
1.04263e+06
1.03276e+06
1.02293e+06
1.01316e+06
1.00343e+06
993751
984118
974535
964995
955503
946054
936650
927286
917967
908688
899453
890258
881108
871999
862937
853918
844948
836020
827143
818307
809521
800775
792077
783417
774803
766224
757692
749193
740739
732316
723936
715585
707275
698992
690746
682526
674338
666173
658037
649920
641828
633751
625694
617645
609612
601576
593548
585506
577465
569388
561304
553153
544987
536708
528400
519919
511376
502583
493651
484373
474791
464731
454082
442789
430626
2.84128e+06
2.81025e+06
2.78129e+06
2.75426e+06
2.72896e+06
2.70512e+06
2.68248e+06
2.66086e+06
2.64009e+06
2.62004e+06
2.6006e+06
2.58167e+06
2.5632e+06
2.54512e+06
2.52739e+06
2.50996e+06
2.4928e+06
2.47589e+06
2.4592e+06
2.44272e+06
2.42642e+06
2.41029e+06
2.39432e+06
2.37849e+06
2.36279e+06
2.34722e+06
2.33177e+06
2.31642e+06
2.30118e+06
2.28604e+06
2.27099e+06
2.25603e+06
2.24115e+06
2.22636e+06
2.21164e+06
2.197e+06
2.18243e+06
2.16793e+06
2.1535e+06
2.13913e+06
2.12483e+06
2.11059e+06
2.09641e+06
2.08229e+06
2.06824e+06
2.05424e+06
2.0403e+06
2.02642e+06
2.0126e+06
1.99884e+06
1.98513e+06
1.97148e+06
1.95789e+06
1.94434e+06
1.93086e+06
1.91742e+06
1.90404e+06
1.8907e+06
1.87742e+06
1.86418e+06
1.851e+06
1.83786e+06
1.82476e+06
1.81172e+06
1.79872e+06
1.78576e+06
1.77285e+06
1.75999e+06
1.74718e+06
1.73441e+06
1.72169e+06
1.70902e+06
1.69639e+06
1.6838e+06
1.67127e+06
1.65878e+06
1.64633e+06
1.63393e+06
1.62158e+06
1.60927e+06
1.59701e+06
1.58479e+06
1.57262e+06
1.56049e+06
1.54841e+06
1.53637e+06
1.52437e+06
1.51241e+06
1.50049e+06
1.48862e+06
1.47679e+06
1.465e+06
1.45325e+06
1.44155e+06
1.42989e+06
1.41828e+06
1.40672e+06
1.39521e+06
1.38375e+06
1.37234e+06
1.36097e+06
1.34966e+06
1.33841e+06
1.3272e+06
1.31604e+06
1.30493e+06
1.29386e+06
1.28285e+06
1.27188e+06
1.26096e+06
1.25009e+06
1.23926e+06
1.22848e+06
1.21775e+06
1.20707e+06
1.19643e+06
1.18584e+06
1.1753e+06
1.1648e+06
1.15435e+06
1.14395e+06
1.1336e+06
1.1233e+06
1.11304e+06
1.10284e+06
1.09268e+06
1.08256e+06
1.0725e+06
1.06248e+06
1.05251e+06
1.04259e+06
1.03272e+06
1.02289e+06
1.01311e+06
1.00338e+06
993701
984066
974481
964938
955446
945993
936587
927221
917899
908616
899378
890178
881024
871910
862844
853819
844844
835909
827025
818181
809387
800631
791924
783250
774626
766031
757485
748967
740496
732050
723649
715272
706936
698622
690345
682087
673863
665653
657474
649303
641161
633018
624902
616775
608670
600542
592431
584280
576138
567935
559731
551436
543124
534686
526200
517550
508789
499820
490640
481181
471372
461178
450441
439219
427381
2.84825e+06
2.81784e+06
2.78914e+06
2.76204e+06
2.73646e+06
2.71221e+06
2.6891e+06
2.66698e+06
2.64572e+06
2.62519e+06
2.6053e+06
2.58596e+06
2.5671e+06
2.54867e+06
2.53062e+06
2.51289e+06
2.49547e+06
2.47831e+06
2.4614e+06
2.44471e+06
2.42822e+06
2.41192e+06
2.39579e+06
2.37982e+06
2.36399e+06
2.3483e+06
2.33274e+06
2.3173e+06
2.30198e+06
2.28675e+06
2.27163e+06
2.25661e+06
2.24168e+06
2.22683e+06
2.21207e+06
2.19738e+06
2.18278e+06
2.16824e+06
2.15378e+06
2.13939e+06
2.12506e+06
2.11081e+06
2.09661e+06
2.08249e+06
2.06842e+06
2.05442e+06
2.04047e+06
2.02659e+06
2.01277e+06
1.999e+06
1.9853e+06
1.97164e+06
1.95805e+06
1.94451e+06
1.93102e+06
1.91758e+06
1.90419e+06
1.89085e+06
1.87756e+06
1.86432e+06
1.85113e+06
1.83799e+06
1.82489e+06
1.81184e+06
1.79883e+06
1.78587e+06
1.77296e+06
1.76009e+06
1.74727e+06
1.7345e+06
1.72177e+06
1.70909e+06
1.69645e+06
1.68387e+06
1.67132e+06
1.65883e+06
1.64638e+06
1.63397e+06
1.62162e+06
1.60931e+06
1.59705e+06
1.58483e+06
1.57265e+06
1.56052e+06
1.54844e+06
1.53639e+06
1.52439e+06
1.51243e+06
1.50052e+06
1.48864e+06
1.4768e+06
1.46501e+06
1.45326e+06
1.44155e+06
1.42989e+06
1.41827e+06
1.4067e+06
1.39519e+06
1.38372e+06
1.37231e+06
1.36094e+06
1.34963e+06
1.33837e+06
1.32716e+06
1.316e+06
1.30489e+06
1.29383e+06
1.28281e+06
1.27185e+06
1.26093e+06
1.25005e+06
1.23923e+06
1.22845e+06
1.21772e+06
1.20703e+06
1.1964e+06
1.18581e+06
1.17526e+06
1.16477e+06
1.15432e+06
1.14392e+06
1.13357e+06
1.12326e+06
1.11301e+06
1.1028e+06
1.09264e+06
1.08252e+06
1.07246e+06
1.06244e+06
1.05247e+06
1.04254e+06
1.03267e+06
1.02284e+06
1.01307e+06
1.00333e+06
993648
984008
974421
964876
955382
945927
936520
927150
917827
908540
899300
890096
880940
871821
862752
853722
844742
835801
826911
818060
809259
800493
791777
783091
774455
765846
757286
748751
740261
731796
723373
714972
706610
698267
689960
681667
673408
665156
656935
648715
640521
632321
624144
615950
607772
599565
591367
583125
574879
566572
558243
549832
541371
532805
524146
515349
506400
497265
487898
478279
468318
458027
447283
436152
424582
2.85433e+06
2.82442e+06
2.79596e+06
2.76887e+06
2.74312e+06
2.71857e+06
2.6951e+06
2.67258e+06
2.6509e+06
2.62997e+06
2.60969e+06
2.58998e+06
2.57077e+06
2.55202e+06
2.53367e+06
2.51567e+06
2.498e+06
2.48061e+06
2.46349e+06
2.4466e+06
2.42994e+06
2.41347e+06
2.39719e+06
2.38109e+06
2.36514e+06
2.34934e+06
2.33368e+06
2.31815e+06
2.30274e+06
2.28744e+06
2.27226e+06
2.25717e+06
2.24218e+06
2.22729e+06
2.21248e+06
2.19775e+06
2.18311e+06
2.16855e+06
2.15406e+06
2.13965e+06
2.1253e+06
2.11103e+06
2.09682e+06
2.08268e+06
2.06861e+06
2.0546e+06
2.04065e+06
2.02676e+06
2.01294e+06
1.99917e+06
1.98546e+06
1.97181e+06
1.95821e+06
1.94466e+06
1.93117e+06
1.91772e+06
1.90433e+06
1.89099e+06
1.87769e+06
1.86445e+06
1.85125e+06
1.8381e+06
1.82499e+06
1.81194e+06
1.79892e+06
1.78595e+06
1.77303e+06
1.76016e+06
1.74733e+06
1.73455e+06
1.72181e+06
1.70913e+06
1.69649e+06
1.68389e+06
1.67135e+06
1.65885e+06
1.64639e+06
1.63399e+06
1.62163e+06
1.60931e+06
1.59705e+06
1.58483e+06
1.57265e+06
1.56052e+06
1.54843e+06
1.53639e+06
1.52439e+06
1.51243e+06
1.50051e+06
1.48863e+06
1.47679e+06
1.46499e+06
1.45324e+06
1.44152e+06
1.42986e+06
1.41823e+06
1.40666e+06
1.39514e+06
1.38367e+06
1.37226e+06
1.36089e+06
1.34958e+06
1.33832e+06
1.32711e+06
1.31595e+06
1.30484e+06
1.29378e+06
1.28277e+06
1.2718e+06
1.26088e+06
1.25001e+06
1.23918e+06
1.22841e+06
1.21767e+06
1.20699e+06
1.19635e+06
1.18577e+06
1.17522e+06
1.16473e+06
1.15428e+06
1.14388e+06
1.13353e+06
1.12322e+06
1.11296e+06
1.10275e+06
1.09259e+06
1.08248e+06
1.07241e+06
1.06239e+06
1.05242e+06
1.04249e+06
1.03262e+06
1.02279e+06
1.01301e+06
1.00328e+06
993592
983948
974360
964811
955316
945858
936450
927078
917754
908465
899222
890016
880857
871735
862662
853627
844643
835697
826802
817943
809136
800360
791635
782939
774290
765670
757093
748544
740036
731554
723109
714687
706299
697930
689593
681269
672974
664686
656422
648158
639914
631663
623426
615171
606922
598645
590362
582038
573693
565291
556847
548326
539733
531040
522235
513296
504193
494910
485399
475654
465600
455254
444542
433509
422150
2.85967e+06
2.83016e+06
2.80191e+06
2.77487e+06
2.74901e+06
2.72425e+06
2.7005e+06
2.67766e+06
2.65564e+06
2.63436e+06
2.61374e+06
2.5937e+06
2.57419e+06
2.55515e+06
2.53653e+06
2.51828e+06
2.50037e+06
2.48277e+06
2.46545e+06
2.44839e+06
2.43156e+06
2.41494e+06
2.39853e+06
2.38229e+06
2.36623e+06
2.35033e+06
2.33457e+06
2.31896e+06
2.30347e+06
2.2881e+06
2.27285e+06
2.25771e+06
2.24267e+06
2.22772e+06
2.21287e+06
2.19811e+06
2.18344e+06
2.16885e+06
2.15433e+06
2.1399e+06
2.12554e+06
2.11125e+06
2.09703e+06
2.08288e+06
2.0688e+06
2.05478e+06
2.04083e+06
2.02693e+06
2.0131e+06
1.99933e+06
1.98562e+06
1.97196e+06
1.95835e+06
1.9448e+06
1.9313e+06
1.91785e+06
1.90445e+06
1.8911e+06
1.8778e+06
1.86454e+06
1.85134e+06
1.83818e+06
1.82507e+06
1.812e+06
1.79898e+06
1.786e+06
1.77307e+06
1.76019e+06
1.74735e+06
1.73456e+06
1.72182e+06
1.70913e+06
1.69648e+06
1.68389e+06
1.67133e+06
1.65883e+06
1.64637e+06
1.63396e+06
1.6216e+06
1.60929e+06
1.59702e+06
1.5848e+06
1.57262e+06
1.56049e+06
1.5484e+06
1.53635e+06
1.52435e+06
1.51239e+06
1.50047e+06
1.48859e+06
1.47675e+06
1.46495e+06
1.45319e+06
1.44147e+06
1.4298e+06
1.41818e+06
1.4066e+06
1.39508e+06
1.38361e+06
1.37219e+06
1.36082e+06
1.34951e+06
1.33825e+06
1.32704e+06
1.31588e+06
1.30477e+06
1.29371e+06
1.2827e+06
1.27174e+06
1.26082e+06
1.24995e+06
1.23913e+06
1.22835e+06
1.21762e+06
1.20694e+06
1.1963e+06
1.18572e+06
1.17517e+06
1.16468e+06
1.15423e+06
1.14383e+06
1.13348e+06
1.12317e+06
1.11291e+06
1.1027e+06
1.09254e+06
1.08243e+06
1.07236e+06
1.06234e+06
1.05237e+06
1.04244e+06
1.03257e+06
1.02274e+06
1.01296e+06
1.00322e+06
993535
983887
974299
964746
955252
945790
936381
927007
917681
908391
899146
889937
880775
871650
862575
853535
844550
835597
826699
817833
809020
800236
791501
782796
774135
765504
756913
748350
739825
731326
722860
714418
706006
697613
689247
680895
672565
664243
655938
647635
639342
631044
622748
614438
606120
597778
589414
581014
572575
564083
555532
546908
538195
529384
520451
511386
502155
492754
483134
473299
463192
452823
442155
431217
420025
2.86437e+06
2.83518e+06
2.80712e+06
2.78013e+06
2.75422e+06
2.72931e+06
2.70534e+06
2.68224e+06
2.65994e+06
2.63836e+06
2.61745e+06
2.59713e+06
2.57735e+06
2.55805e+06
2.53918e+06
2.52071e+06
2.50259e+06
2.48479e+06
2.46729e+06
2.45006e+06
2.43308e+06
2.41632e+06
2.39978e+06
2.38343e+06
2.36726e+06
2.35126e+06
2.33541e+06
2.31971e+06
2.30415e+06
2.28872e+06
2.27341e+06
2.25821e+06
2.24312e+06
2.22814e+06
2.21325e+06
2.19846e+06
2.18375e+06
2.16913e+06
2.1546e+06
2.14014e+06
2.12576e+06
2.11146e+06
2.09723e+06
2.08307e+06
2.06898e+06
2.05495e+06
2.04099e+06
2.0271e+06
2.01326e+06
1.99948e+06
1.98576e+06
1.97209e+06
1.95848e+06
1.94492e+06
1.93141e+06
1.91795e+06
1.90454e+06
1.89118e+06
1.87787e+06
1.86461e+06
1.8514e+06
1.83823e+06
1.82511e+06
1.81204e+06
1.799e+06
1.78602e+06
1.77308e+06
1.76018e+06
1.74734e+06
1.73454e+06
1.7218e+06
1.7091e+06
1.69645e+06
1.68384e+06
1.67129e+06
1.65878e+06
1.64632e+06
1.63391e+06
1.62154e+06
1.60923e+06
1.59696e+06
1.58473e+06
1.57255e+06
1.56042e+06
1.54834e+06
1.53629e+06
1.52429e+06
1.51233e+06
1.50041e+06
1.48853e+06
1.47669e+06
1.46488e+06
1.45312e+06
1.4414e+06
1.42973e+06
1.4181e+06
1.40653e+06
1.395e+06
1.38353e+06
1.37211e+06
1.36074e+06
1.34943e+06
1.33817e+06
1.32696e+06
1.31581e+06
1.3047e+06
1.29364e+06
1.28263e+06
1.27167e+06
1.26075e+06
1.24988e+06
1.23906e+06
1.22829e+06
1.21756e+06
1.20688e+06
1.19625e+06
1.18566e+06
1.17512e+06
1.16462e+06
1.15418e+06
1.14378e+06
1.13342e+06
1.12312e+06
1.11286e+06
1.10265e+06
1.09249e+06
1.08237e+06
1.07231e+06
1.06228e+06
1.05232e+06
1.04239e+06
1.03253e+06
1.02269e+06
1.01291e+06
1.00316e+06
993482
983828
974244
964683
955193
945725
936319
926939
917614
908318
899075
889860
880700
871569
862495
853448
844463
835503
826604
817731
808910
800121
791375
782662
773989
765348
756742
748168
739625
731111
722625
714165
705729
697315
688920
680542
672179
663826
655482
647141
638802
630459
622109
613746
605365
596959
588522
580047
571524
562947
554300
545579
536761
527847
518803
509635
500300
490807
481107
471208
461070
450697
440073
429222
418165
2.86849e+06
2.83957e+06
2.81167e+06
2.78474e+06
2.75879e+06
2.73377e+06
2.70963e+06
2.68633e+06
2.6638e+06
2.64198e+06
2.62082e+06
2.60025e+06
2.58023e+06
2.5607e+06
2.54161e+06
2.52293e+06
2.50463e+06
2.48665e+06
2.46899e+06
2.45161e+06
2.43448e+06
2.4176e+06
2.40094e+06
2.38448e+06
2.36821e+06
2.35212e+06
2.33619e+06
2.32042e+06
2.30479e+06
2.2893e+06
2.27393e+06
2.25868e+06
2.24355e+06
2.22853e+06
2.2136e+06
2.19878e+06
2.18404e+06
2.1694e+06
2.15484e+06
2.14037e+06
2.12598e+06
2.11166e+06
2.09742e+06
2.08325e+06
2.06915e+06
2.05511e+06
2.04114e+06
2.02724e+06
2.01339e+06
1.99961e+06
1.98588e+06
1.9722e+06
1.95858e+06
1.94501e+06
1.93149e+06
1.91802e+06
1.90461e+06
1.89124e+06
1.87792e+06
1.86465e+06
1.85143e+06
1.83825e+06
1.82512e+06
1.81204e+06
1.799e+06
1.786e+06
1.77305e+06
1.76015e+06
1.7473e+06
1.7345e+06
1.72174e+06
1.70904e+06
1.69638e+06
1.68377e+06
1.67121e+06
1.6587e+06
1.64624e+06
1.63382e+06
1.62145e+06
1.60914e+06
1.59687e+06
1.58464e+06
1.57246e+06
1.56033e+06
1.54825e+06
1.53621e+06
1.5242e+06
1.51225e+06
1.50033e+06
1.48845e+06
1.4766e+06
1.4648e+06
1.45303e+06
1.44132e+06
1.42964e+06
1.41802e+06
1.40644e+06
1.39491e+06
1.38344e+06
1.37202e+06
1.36066e+06
1.34934e+06
1.33808e+06
1.32688e+06
1.31572e+06
1.30462e+06
1.29356e+06
1.28256e+06
1.27159e+06
1.26068e+06
1.24981e+06
1.23899e+06
1.22822e+06
1.2175e+06
1.20682e+06
1.19618e+06
1.1856e+06
1.17506e+06
1.16456e+06
1.15412e+06
1.14372e+06
1.13337e+06
1.12306e+06
1.11281e+06
1.1026e+06
1.09244e+06
1.08232e+06
1.07226e+06
1.06223e+06
1.05227e+06
1.04234e+06
1.03248e+06
1.02263e+06
1.01286e+06
1.00311e+06
993432
983772
974194
964626
955140
945662
936261
926871
917554
908247
899009
889786
880629
871491
862420
853367
844382
835417
826513
817635
808807
800012
791256
782536
773851
765200
756581
747994
739436
730907
722403
713925
705468
697032
688612
680208
671815
663431
655052
646675
638294
629908
621509
613095
604656
596191
587687
579144
570544
561890
553157
544353
535444
526442
517308
508055
498639
489071
479312
469366
459209
448842
438259
427484
416537
2.87211e+06
2.84339e+06
2.81563e+06
2.78876e+06
2.76279e+06
2.73769e+06
2.71342e+06
2.68995e+06
2.66723e+06
2.64521e+06
2.62383e+06
2.60305e+06
2.58282e+06
2.56309e+06
2.54382e+06
2.52496e+06
2.50648e+06
2.48835e+06
2.47053e+06
2.45301e+06
2.43576e+06
2.41876e+06
2.40199e+06
2.38544e+06
2.36908e+06
2.35291e+06
2.33691e+06
2.32107e+06
2.30538e+06
2.28983e+06
2.27441e+06
2.25912e+06
2.24395e+06
2.22888e+06
2.21393e+06
2.19907e+06
2.18432e+06
2.16965e+06
2.15508e+06
2.14058e+06
2.12618e+06
2.11184e+06
2.09759e+06
2.08341e+06
2.0693e+06
2.05525e+06
2.04127e+06
2.02736e+06
2.0135e+06
1.99971e+06
1.98597e+06
1.97228e+06
1.95865e+06
1.94507e+06
1.93155e+06
1.91807e+06
1.90464e+06
1.89126e+06
1.87794e+06
1.86466e+06
1.85143e+06
1.83825e+06
1.82511e+06
1.81202e+06
1.79897e+06
1.78596e+06
1.77301e+06
1.7601e+06
1.74724e+06
1.73443e+06
1.72167e+06
1.70896e+06
1.69629e+06
1.68368e+06
1.67112e+06
1.6586e+06
1.64614e+06
1.63372e+06
1.62135e+06
1.60903e+06
1.59676e+06
1.58453e+06
1.57236e+06
1.56023e+06
1.54814e+06
1.5361e+06
1.5241e+06
1.51215e+06
1.50023e+06
1.48835e+06
1.47651e+06
1.46471e+06
1.45294e+06
1.44122e+06
1.42954e+06
1.41792e+06
1.40634e+06
1.39482e+06
1.38334e+06
1.37193e+06
1.36056e+06
1.34925e+06
1.338e+06
1.32679e+06
1.31564e+06
1.30454e+06
1.29348e+06
1.28248e+06
1.27152e+06
1.26061e+06
1.24974e+06
1.23893e+06
1.22815e+06
1.21743e+06
1.20675e+06
1.19612e+06
1.18553e+06
1.175e+06
1.1645e+06
1.15407e+06
1.14366e+06
1.13332e+06
1.12301e+06
1.11276e+06
1.10255e+06
1.09239e+06
1.08227e+06
1.07221e+06
1.06218e+06
1.05223e+06
1.04229e+06
1.03244e+06
1.02259e+06
1.01282e+06
1.00306e+06
993385
983726
974146
964576
955091
945608
936207
926809
917492
908180
898944
889716
880561
871419
862348
853293
844305
835336