/*--------------------------------*- C++ -*----------------------------------*\
| =========                 |                                                 |
| \\      /  F ield         | OpenFOAM: The Open Source CFD Toolbox           |
|  \\    /   O peration     | Version:  2.4.0                                 |
|   \\  /    A nd           | Web:      www.OpenFOAM.org                      |
|    \\/     M anipulation  |                                                 |
\*---------------------------------------------------------------------------*/
FoamFile
{
    version     2.0;
    format      ascii;
    class       volVectorField;
    location    "0.12";
    object      U;
}
// * * * * * * * * * * * * * * * * * * * * * * * * * * * * * * * * * * * * * //

dimensions      [0 1 -1 0 0 0 0];

internalField   nonuniform List<vector> 
8800
(
(8.09193 0.388061 0)
(5.44848 0.24249 0)
(3.9147 0.0425732 0)
(3.15449 -0.0148362 0)
(2.80176 -0.0186079 0)
(2.5993 -0.0114117 0)
(2.48282 -0.00451673 0)
(2.37943 -0.00309289 0)
(2.31965 -0.00177259 0)
(2.25011 0.000168375 0)
(2.2147 -0.000996499 0)
(2.16422 0.000222044 0)
(2.14334 -0.000530707 0)
(2.09722 0.0010945 0)
(2.06873 0.00113379 0)
(2.02133 0.00152527 0)
(1.98412 0.00143248 0)
(1.93354 0.00296121 0)
(1.82892 0.0139346 0)
(1.86181 -0.0245283 0)
(10.084 0.838694 0)
(9.65446 0.867287 0)
(8.87999 0.506535 0)
(8.07491 0.264048 0)
(7.49923 0.13586 0)
(7.00733 0.0815799 0)
(6.69208 0.0572396 0)
(6.40338 0.0383662 0)
(6.22372 0.0292591 0)
(6.02369 0.0268232 0)
(5.9247 0.0174268 0)
(5.77693 0.0186574 0)
(5.71965 0.0135086 0)
(5.59439 0.0190558 0)
(5.53717 0.0172789 0)
(5.4311 0.0207627 0)
(5.34966 0.0184211 0)
(5.25566 0.0390359 0)
(5.0768 0.0253507 0)
(5.0987 0.075513 0)
(10.0627 0.633264 0)
(10.6526 0.860423 0)
(10.8813 0.59958 0)
(10.6785 0.378405 0)
(10.4662 0.251606 0)
(10.0879 0.19779 0)
(9.82987 0.158012 0)
(9.50512 0.118675 0)
(9.30854 0.0941307 0)
(9.03812 0.0804479 0)
(8.92099 0.0562366 0)
(8.70017 0.0541946 0)
(8.63714 0.0406708 0)
(8.44755 0.0475041 0)
(8.38769 0.0410582 0)
(8.23889 0.0474965 0)
(8.15041 0.0426459 0)
(7.9956 0.0766891 0)
(7.88726 0.0737548 0)
(7.70232 0.0758406 0)
(10.0016 0.459689 0)
(10.5548 0.702378 0)
(11.1875 0.546823 0)
(11.3645 0.358781 0)
(11.5641 0.250699 0)
(11.4618 0.229597 0)
(11.482 0.206298 0)
(11.3119 0.170236 0)
(11.2861 0.149057 0)
(11.0859 0.133345 0)
(11.0763 0.102109 0)
(10.8594 0.0963246 0)
(10.8684 0.0763594 0)
(10.6658 0.0859451 0)
(10.6514 0.0699673 0)
(10.4824 0.0821051 0)
(10.4501 0.0703473 0)
(10.227 0.12435 0)
(10.2237 0.101406 0)
(9.95348 0.217794 0)
(10.0577 0.352169 0)
(10.3786 0.555512 0)
(11.0822 0.456804 0)
(11.2867 0.310219 0)
(11.6675 0.198651 0)
(11.6597 0.198186 0)
(11.8896 0.184376 0)
(11.8162 0.162724 0)
(11.9947 0.144411 0)
(11.8859 0.139325 0)
(12.0583 0.106287 0)
(11.9019 0.114821 0)
(12.0563 0.0798698 0)
(11.905 0.112731 0)
(12.0129 0.0787039 0)
(11.875 0.110414 0)
(11.96 0.081791 0)
(11.7533 0.164975 0)
(11.8612 0.108865 0)
(11.6052 0.285977 0)
(10.126 0.259106 0)
(10.2172 0.44873 0)
(10.9492 0.376752 0)
(11.1649 0.25847 0)
(11.5752 0.145526 0)
(11.5761 0.155064 0)
(11.8567 0.148506 0)
(11.7624 0.131861 0)
(11.9981 0.127701 0)
(11.9281 0.119567 0)
(12.1835 0.0925117 0)
(12.0747 0.100689 0)
(12.3298 0.0704193 0)
(12.217 0.0982366 0)
(12.4351 0.0756199 0)
(12.3401 0.0896687 0)
(12.5118 0.0976625 0)
(12.3872 0.138116 0)
(12.5963 0.122781 0)
(12.3486 0.195272 0)
(9.88482 0.190425 0)
(10.4159 0.336948 0)
(10.6808 0.267413 0)
(11.2145 0.229154 0)
(11.2837 0.112445 0)
(11.6362 0.119195 0)
(11.5745 0.124395 0)
(11.8497 0.112139 0)
(11.7812 0.090657 0)
(12.0523 0.086154 0)
(11.9747 0.0675399 0)
(12.2426 0.0754633 0)
(12.1518 0.0433073 0)
(12.3427 0.0843023 0)
(12.301 0.0570083 0)
(12.487 0.0748887 0)
(12.3777 0.0801845 0)
(12.6196 0.108415 0)
(12.4997 0.102089 0)
(12.5428 0.173366 0)
(10.135 0.123085 0)
(10.1546 0.235114 0)
(10.7268 0.205615 0)
(10.9665 0.171283 0)
(11.445 0.0709872 0)
(11.4044 0.0851974 0)
(11.7394 0.0796876 0)
(11.6721 0.0672543 0)
(11.8458 0.0706197 0)
(11.7866 0.0653165 0)
(12.0125 0.0431486 0)
(11.9869 0.057394 0)
(12.1244 0.0459908 0)
(12.1473 0.0575862 0)
(12.3318 0.0406134 0)
(12.283 0.0605721 0)
(12.4551 0.0554877 0)
(12.4418 0.0822198 0)
(12.5163 0.0813777 0)
(12.4051 0.116238 0)
(9.92456 0.0787944 0)
(10.3034 0.144381 0)
(10.5923 0.0923232 0)
(11.0244 0.103112 0)
(11.2238 0.0475848 0)
(11.4624 0.0514216 0)
(11.5352 0.0521966 0)
(11.6716 0.0618748 0)
(11.7284 0.0515115 0)
(11.8619 0.0311636 0)
(11.9436 0.0216592 0)
(12.0075 0.043069 0)
(12.0933 0.00550767 0)
(12.1943 0.032911 0)
(12.2371 0.0278668 0)
(12.3249 0.0299877 0)
(12.3866 0.0303252 0)
(12.4031 0.0642457 0)
(12.4707 0.0522903 0)
(12.4843 0.0189825 0)
(10.0181 0.0301947 0)
(10.2725 0.0257549 0)
(10.5371 0.0495235 0)
(10.9418 0.0472837 0)
(11.2795 0.0125918 0)
(11.4415 0.0215197 0)
(11.5462 0.0208712 0)
(11.6928 -0.00459804 0)
(11.7343 0.0189469 0)
(11.8497 -0.0016997 0)
(11.8913 0.0122886 0)
(11.998 0.0149128 0)
(12.0334 0.00838951 0)
(12.1211 0.0145871 0)
(12.2144 0.0142508 0)
(12.3087 0.00182073 0)
(12.2978 0.0321362 0)
(12.4318 0.0196951 0)
(12.4395 0.0180896 0)
(12.4613 0.00199315 0)
(10.0212 -0.0210747 0)
(10.1894 -0.0361016 0)
(10.6203 -0.0587591 0)
(10.9584 -0.0405561 0)
(11.2619 -0.0247212 0)
(11.4218 0.00314221 0)
(11.6139 -0.0187979 0)
(11.6047 -0.00639443 0)
(11.7133 -0.00279346 0)
(11.7941 -0.0189004 0)
(11.9339 -0.0149125 0)
(11.9638 0.011301 0)
(12.0659 -0.0277169 0)
(12.1424 -0.00792804 0)
(12.2475 -0.021913 0)
(12.2473 -0.00165728 0)
(12.3882 -0.0157872 0)
(12.4025 0.00336637 0)
(12.4723 -0.0147339 0)
(12.3322 0.0545341 0)
(9.96125 -0.0522336 0)
(10.2914 -0.171915 0)
(10.6212 -0.120074 0)
(10.9768 -0.0799124 0)
(11.2201 -0.0490041 0)
(11.4926 -0.0522768 0)
(11.5626 -0.0295861 0)
(11.6919 -0.0562414 0)
(11.7448 -0.0355638 0)
(11.8619 -0.0695084 0)
(11.9089 -0.0251366 0)
(12.0426 -0.022566 0)
(12.0859 -0.0293884 0)
(12.1852 -0.0328337 0)
(12.1954 -0.0130479 0)
(12.3413 -0.0474646 0)
(12.3507 -0.0192882 0)
(12.4295 -0.0300008 0)
(12.4226 -0.0200079 0)
(12.426 0.0161257 0)
(10.0275 -0.116543 0)
(10.2408 -0.248556 0)
(10.6792 -0.210799 0)
(11.0249 -0.147198 0)
(11.3714 -0.099877 0)
(11.4674 -0.069045 0)
(11.6114 -0.0760126 0)
(11.7199 -0.0722707 0)
(11.819 -0.057501 0)
(11.86 -0.0728947 0)
(11.9626 -0.054867 0)
(12.0221 -0.0381045 0)
(12.1495 -0.0539459 0)
(12.1992 -0.0423014 0)
(12.3106 -0.0535183 0)
(12.3272 -0.0586711 0)
(12.417 -0.0463511 0)
(12.4621 -0.0513486 0)
(12.5354 -0.0676425 0)
(12.506 -0.0789939 0)
(10.0023 -0.163571 0)
(10.3238 -0.371937 0)
(10.7589 -0.286199 0)
(11.0957 -0.206601 0)
(11.3997 -0.115573 0)
(11.5418 -0.103718 0)
(11.665 -0.10303 0)
(11.7813 -0.123902 0)
(11.8776 -0.0846826 0)
(11.97 -0.107553 0)
(12.0416 -0.0672876 0)
(12.1139 -0.0706481 0)
(12.2128 -0.0707303 0)
(12.3012 -0.0708367 0)
(12.3333 -0.0496631 0)
(12.3998 -0.0831583 0)
(12.4823 -0.0655834 0)
(12.549 -0.0894696 0)
(12.5825 -0.0923589 0)
(12.5025 -0.0564087 0)
(10.0796 -0.253164 0)
(10.316 -0.462523 0)
(10.8895 -0.370254 0)
(11.1655 -0.249008 0)
(11.5411 -0.168092 0)
(11.5902 -0.141343 0)
(11.8252 -0.144418 0)
(11.8348 -0.145114 0)
(11.991 -0.112225 0)
(11.9988 -0.128933 0)
(12.1545 -0.085432 0)
(12.1404 -0.092834 0)
(12.2893 -0.090446 0)
(12.2785 -0.0841852 0)
(12.3827 -0.0661261 0)
(12.3757 -0.111307 0)
(12.4802 -0.0841936 0)
(12.4631 -0.115484 0)
(12.4943 -0.106275 0)
(12.3836 -0.123017 0)
(10.0703 -0.3441 0)
(10.3918 -0.575475 0)
(11.0464 -0.456293 0)
(11.2946 -0.295539 0)
(11.6571 -0.210507 0)
(11.6582 -0.181301 0)
(11.8984 -0.184312 0)
(11.8129 -0.171323 0)
(12.0078 -0.142163 0)
(11.8878 -0.145708 0)
(12.0445 -0.106577 0)
(11.9175 -0.106757 0)
(12.0488 -0.102608 0)
(11.9069 -0.0959169 0)
(12.026 -0.0758587 0)
(11.8648 -0.114193 0)
(11.9561 -0.0886461 0)
(11.7907 -0.124041 0)
(11.8067 -0.110623 0)
(11.5972 -0.136304 0)
(10.0285 -0.45838 0)
(10.5482 -0.709604 0)
(11.169 -0.540145 0)
(11.3646 -0.353072 0)
(11.5573 -0.263992 0)
(11.4568 -0.22269 0)
(11.5086 -0.203945 0)
(11.2835 -0.177435 0)
(11.3285 -0.14553 0)
(11.05 -0.133917 0)
(11.1002 -0.100284 0)
(10.8451 -0.0942412 0)
(10.8823 -0.0874946 0)
(10.6283 -0.0791077 0)
(10.7054 -0.0617101 0)
(10.4171 -0.0925359 0)
(10.4917 -0.0687231 0)
(10.2071 -0.104727 0)
(10.2228 -0.0842409 0)
(9.90682 -0.148517 0)
(10.0751 -0.632122 0)
(10.6445 -0.864648 0)
(10.8734 -0.598889 0)
(10.6874 -0.373625 0)
(10.4575 -0.257684 0)
(10.0875 -0.193355 0)
(9.84575 -0.155037 0)
(9.48149 -0.124292 0)
(9.34017 -0.0929134 0)
(9.0021 -0.0799822 0)
(8.95222 -0.0580073 0)
(8.67488 -0.0511179 0)
(8.65516 -0.0479212 0)
(8.40648 -0.0443379 0)
(8.44327 -0.0343402 0)
(8.16372 -0.0523513 0)
(8.21693 -0.0450715 0)
(7.9267 -0.0618036 0)
(7.93967 -0.0623646 0)
(7.61286 -0.0811583 0)
(10.0892 -0.838557 0)
(9.6506 -0.868532 0)
(8.87525 -0.505826 0)
(8.08145 -0.261317 0)
(7.49336 -0.13951 0)
(7.00808 -0.0807341 0)
(6.70052 -0.05439 0)
(6.3914 -0.0421436 0)
(6.23984 -0.0283204 0)
(6.00155 -0.0262868 0)
(5.94539 -0.0184488 0)
(5.75728 -0.0161889 0)
(5.73385 -0.0175093 0)
(5.56348 -0.0179725 0)
(5.57548 -0.0116009 0)
(5.38419 -0.0238586 0)
(5.40161 -0.0207546 0)
(5.18703 -0.0276032 0)
(5.18838 -0.0333054 0)
(4.91177 -0.0150501 0)
(8.09211 -0.387897 0)
(5.44799 -0.242564 0)
(3.91187 -0.0428199 0)
(3.15755 0.0156381 0)
(2.80091 0.0177449 0)
(2.59763 0.0115755 0)
(2.48591 0.00565794 0)
(2.37751 0.00176833 0)
(2.32266 0.00232725 0)
(2.24347 -0.000152037 0)
(2.22039 0.000792843 0)
(2.15925 0.000769273 0)
(2.14928 -0.000511827 0)
(2.08499 -0.000976137 0)
(2.08488 0.00114053 0)
(2.01579 -0.00259033 0)
(2.00543 -0.000924503 0)
(1.92075 -0.00243458 0)
(1.895 -0.00294507 0)
(1.757 0.012496 0)
(1.69874 0.225729 0)
(2.0862 0.247981 0)
(2.3489 0.257399 0)
(2.63168 0.310874 0)
(2.78733 0.380645 0)
(3.06375 0.440781 0)
(3.28132 0.460067 0)
(3.62463 0.398281 0)
(3.88998 0.312638 0)
(4.07267 0.175829 0)
(4.27831 0.0687405 0)
(4.34206 -0.111269 0)
(4.53419 -0.364977 0)
(4.61392 -0.619663 0)
(4.68428 -0.92039 0)
(4.64263 -1.10142 0)
(4.59292 -1.23677 0)
(4.67169 -1.35164 0)
(4.61058 -1.43212 0)
(4.6524 -1.52916 0)
(4.45044 -1.56486 0)
(4.24703 -1.54469 0)
(3.83205 -1.43837 0)
(3.3873 -1.28664 0)
(2.87306 -1.08245 0)
(2.4494 -0.810642 0)
(2.15075 -0.423456 0)
(2.0725 0.123672 0)
(2.24727 0.728903 0)
(2.59167 1.33297 0)
(3.07636 1.94585 0)
(3.7247 2.38831 0)
(4.24928 2.62037 0)
(4.88186 2.61024 0)
(5.40856 2.60709 0)
(5.96674 2.5955 0)
(6.52276 2.37945 0)
(6.92717 2.03843 0)
(7.17587 1.55394 0)
(7.60938 1.18615 0)
(8.11284 0.995233 0)
(8.36637 0.550718 0)
(8.36616 -0.0680844 0)
(8.54716 -0.263587 0)
(8.7433 -0.527554 0)
(8.66562 -0.957085 0)
(8.81243 -1.25416 0)
(9.14191 -1.47275 0)
(9.25739 -1.80256 0)
(9.65657 -2.13449 0)
(10.3912 -2.61229 0)
(10.7945 -2.98569 0)
(11.0852 -3.26114 0)
(11.9059 -3.70231 0)
(12.2814 -4.14662 0)
(12.4056 -4.16127 0)
(12.6945 -4.32555 0)
(13.0491 -4.66505 0)
(12.8127 -4.47713 0)
(12.7127 -4.35055 0)
(12.7501 -4.47494 0)
(12.4299 -4.26912 0)
(12.109 -3.99519 0)
(11.8942 -4.02958 0)
(11.5791 -3.69457 0)
(11.0666 -3.47894 0)
(10.9246 -3.40853 0)
(10.4789 -3.11276 0)
(10.1467 -2.79779 0)
(9.83529 -2.79969 0)
(9.50359 -2.54472 0)
(9.08604 -2.21781 0)
(8.91534 -2.25724 0)
(8.71983 -2.36887 0)
(8.34712 -2.21387 0)
(8.18552 -2.27195 0)
(8.09134 -2.59235 0)
(8.02286 -2.76411 0)
(7.60864 -2.62277 0)
(7.43546 -2.54949 0)
(7.43076 -2.79605 0)
(7.89284 -3.17363 0)
(8.46795 -3.60531 0)
(9.21937 -3.86913 0)
(9.96434 -3.80518 0)
(10.6421 -3.60665 0)
(11.3558 -3.13785 0)
(11.8108 -2.52422 0)
(12.4199 -1.71898 0)
(12.7304 -0.913101 0)
(13.2702 -0.00935393 0)
(13.5426 0.852999 0)
(13.9787 1.74942 0)
(14.1334 2.60429 0)
(14.3674 3.4721 0)
(14.4403 4.13519 0)
(14.4595 4.81742 0)
(14.4653 5.26204 0)
(14.2013 5.679 0)
(14.2832 5.93337 0)
(14.0377 6.06387 0)
(14.1905 6.18223 0)
(13.9791 6.13801 0)
(13.9895 6.01108 0)
(13.7241 5.60367 0)
(13.6685 5.27226 0)
(13.2807 4.60176 0)
(12.9455 3.84719 0)
(12.4597 3.07416 0)
(12.2277 2.27852 0)
(11.6594 1.29449 0)
(11.5294 0.443976 0)
(11.0318 -0.422349 0)
(10.9739 -1.32551 0)
(10.1921 -2.37161 0)
(9.95114 -2.76488 0)
(9.15311 -3.28654 0)
(8.81116 -3.38244 0)
(7.97532 -3.64706 0)
(7.8961 -2.98223 0)
(7.30067 -3.07106 0)
(7.242 -2.66336 0)
(6.76639 -2.89602 0)
(6.84419 -1.63939 0)
(6.54487 -1.59407 0)
(6.90325 -0.914943 0)
(6.47579 -1.70164 0)
(6.67267 -0.865534 0)
(5.97985 -2.1127 0)
(6.74209 -1.42274 0)
(6.10823 -2.24743 0)
(6.90706 -1.24139 0)
(6.29021 -2.2031 0)
(6.97985 -1.72575 0)
(6.30741 -2.5564 0)
(7.03561 -2.4449 0)
(6.99319 -3.52567 0)
(7.95528 -4.15136 0)
(7.89823 -5.35377 0)
(8.82661 -6.04125 0)
(8.76226 -6.35573 0)
(9.1986 -6.65923 0)
(9.32343 -6.46717 0)
(9.10638 -6.5491 0)
(9.29392 -5.8658 0)
(8.66733 -5.02507 0)
(8.8605 -3.48347 0)
(8.30838 -2.22792 0)
(8.39411 -0.783933 0)
(7.58666 0.685033 0)
(7.48623 2.446 0)
(6.83304 3.51346 0)
(7.00979 4.85102 0)
(6.52236 5.71975 0)
(6.15726 7.19831 0)
(6.1413 7.93378 0)
(5.49894 7.83549 0)
(5.79081 7.5356 0)
(5.59499 6.83536 0)
(5.20766 6.65904 0)
(5.33702 6.64427 0)
(4.59179 6.6733 0)
(4.73446 6.82906 0)
(4.37719 6.76715 0)
(4.27339 6.73014 0)
(4.32258 6.62148 0)
(4.12581 6.42642 0)
(4.23936 6.13806 0)
(4.2081 5.88039 0)
(4.0296 5.49958 0)
(4.35498 5.04604 0)
(3.70266 4.79147 0)
(4.57894 3.96164 0)
(3.31686 4.01277 0)
(5.07221 2.47741 0)
(3.4511 2.7442 0)
(5.80024 0.523601 0)
(4.24873 0.891124 0)
(6.39618 -1.26412 0)
(5.18605 -0.511169 0)
(6.79274 -1.914 0)
(5.89593 -0.687506 0)
(6.96248 -1.49191 0)
(6.19967 -0.126074 0)
(6.78625 -1.09094 0)
(6.1925 -0.0659943 0)
(6.56394 -1.51231 0)
(6.37735 -0.703075 0)
(6.48718 -2.00639 0)
(6.70396 -1.17914 0)
(6.35354 -2.02041 0)
(7.00722 -1.12088 0)
(6.28802 -1.40407 0)
(7.18742 -0.0910275 0)
(6.36998 0.0935443 0)
(6.65184 0.944814 0)
(6.53566 1.97736 0)
(4.86641 2.74434 0)
(7.01651 4.37832 0)
(4.32508 8.18251 0)
(4.91607 0.218162 0)
(4.92425 0.223212 0)
(5.03085 0.198333 0)
(5.15528 0.177894 0)
(5.31405 0.191946 0)
(5.44514 0.227274 0)
(5.62497 0.240727 0)
(5.81338 0.20414 0)
(6.03518 0.120128 0)
(6.23638 0.00032204 0)
(6.3833 -0.134133 0)
(6.59124 -0.273969 0)
(6.72409 -0.456278 0)
(6.90669 -0.635088 0)
(7.04872 -0.822485 0)
(7.07704 -0.987055 0)
(7.15578 -1.0984 0)
(7.08204 -1.27152 0)
(7.05053 -1.38165 0)
(6.91365 -1.46008 0)
(6.73125 -1.5006 0)
(6.48519 -1.37859 0)
(6.19887 -1.24516 0)
(5.92685 -1.00483 0)
(5.61019 -0.70367 0)
(5.21459 -0.426377 0)
(4.81727 -0.0996188 0)
(4.40091 0.254536 0)
(4.22505 0.584908 0)
(4.18561 1.06197 0)
(4.38006 1.52915 0)
(4.87431 1.82809 0)
(5.36121 2.04363 0)
(5.92601 2.20168 0)
(6.43932 2.21828 0)
(6.85441 2.04243 0)
(7.3792 1.7996 0)
(7.84524 1.76454 0)
(8.22075 1.41357 0)
(8.34446 0.874961 0)
(8.66043 0.625358 0)
(8.99928 0.369973 0)
(9.10569 -0.0694691 0)
(9.19885 -0.425722 0)
(9.59223 -0.702841 0)
(9.6505 -1.00613 0)
(9.97758 -1.39393 0)
(10.5724 -1.81023 0)
(10.9194 -2.13447 0)
(11.2146 -2.44528 0)
(11.9931 -2.97642 0)
(12.4213 -3.42212 0)
(12.6527 -3.60544 0)
(13.0806 -3.90593 0)
(13.3919 -4.37141 0)
(13.3422 -4.3142 0)
(13.2948 -4.36679 0)
(13.4217 -4.58779 0)
(13.0576 -4.40008 0)
(12.8128 -4.20717 0)
(12.6383 -4.29688 0)
(12.3786 -4.03042 0)
(11.9677 -3.78724 0)
(11.7506 -3.74589 0)
(11.4863 -3.39719 0)
(11.1233 -3.24698 0)
(10.9619 -3.11994 0)
(10.5239 -2.79313 0)
(10.3711 -2.55963 0)
(10.0166 -2.60118 0)
(9.8085 -2.2151 0)
(9.33908 -2.00621 0)
(9.33435 -2.0612 0)
(8.83063 -2.10439 0)
(8.57054 -1.91947 0)
(8.14797 -2.12114 0)
(8.11012 -2.42138 0)
(7.6884 -2.44718 0)
(7.32953 -2.34789 0)
(7.10245 -2.52759 0)
(7.35858 -3.05571 0)
(7.84456 -3.63166 0)
(8.43705 -4.22103 0)
(9.24374 -4.43688 0)
(9.75754 -4.43023 0)
(10.5486 -4.06483 0)
(10.9128 -3.58129 0)
(11.5471 -2.90924 0)
(11.8769 -2.10012 0)
(12.409 -1.31233 0)
(12.6358 -0.37074 0)
(13.1697 0.547914 0)
(13.373 1.48786 0)
(13.836 2.38308 0)
(13.9623 3.28286 0)
(14.324 4.0872 0)
(14.2897 4.74753 0)
(14.4855 5.32082 0)
(14.3056 5.67561 0)
(14.3092 6.03342 0)
(14.0571 6.13854 0)
(14.0061 6.23237 0)
(13.9814 6.17403 0)
(13.8609 6.01584 0)
(13.7916 5.73925 0)
(13.7464 5.3602 0)
(13.4424 4.85209 0)
(13.3728 4.09757 0)
(12.8097 3.37847 0)
(12.8686 2.52954 0)
(12.0593 1.62269 0)
(12.2379 0.681981 0)
(11.3302 -0.165442 0)
(11.4853 -1.02848 0)
(10.4208 -1.88652 0)
(10.4518 -2.36005 0)
(9.17689 -2.76202 0)
(9.18767 -2.98186 0)
(8.10059 -3.18909 0)
(8.29461 -2.81843 0)
(7.39077 -2.75454 0)
(7.59788 -2.46231 0)
(6.71236 -2.56771 0)
(6.93229 -1.62214 0)
(6.45495 -1.42909 0)
(6.87631 -1.02458 0)
(6.31362 -1.51625 0)
(6.66172 -0.824325 0)
(6.10234 -1.96723 0)
(6.77278 -1.44774 0)
(6.02236 -2.28234 0)
(6.72804 -1.27844 0)
(6.05081 -2.20082 0)
(6.54423 -1.59278 0)
(6.1318 -2.61652 0)
(6.65975 -2.68531 0)
(7.00755 -3.88053 0)
(7.33305 -4.38712 0)
(7.66174 -5.75018 0)
(8.1089 -6.26179 0)
(8.23743 -6.83819 0)
(8.73267 -6.71018 0)
(8.43438 -6.67117 0)
(8.64813 -6.36552 0)
(8.30168 -5.69033 0)
(8.07961 -4.80951 0)
(8.02988 -3.30133 0)
(7.56042 -1.98108 0)
(7.48845 -0.344787 0)
(6.81174 0.973053 0)
(6.61524 2.63711 0)
(6.28991 3.74278 0)
(6.01782 4.93574 0)
(5.97979 6.27975 0)
(5.43589 7.20539 0)
(5.32373 8.1819 0)
(5.45081 8.01351 0)
(5.04532 7.45233 0)
(5.40023 7.0695 0)
(5.12509 6.6676 0)
(4.81337 6.81746 0)
(4.96872 6.95832 0)
(4.39773 6.9659 0)
(4.71498 6.92139 0)
(4.40969 6.86301 0)
(4.50691 6.60331 0)
(4.54138 6.48293 0)
(4.55638 6.21214 0)
(4.62843 5.74231 0)
(4.45068 5.73889 0)
(4.99175 4.69726 0)
(3.99685 5.13736 0)
(5.8109 3.43617 0)
(3.83679 4.22064 0)
(6.89574 1.88603 0)
(4.35769 2.77657 0)
(7.85471 0.0559816 0)
(5.32699 0.867336 0)
(8.43941 -1.63002 0)
(6.00264 -0.431112 0)
(8.48972 -2.11713 0)
(6.26986 -0.459026 0)
(8.54617 -1.53292 0)
(6.44963 0.0774531 0)
(8.73404 -0.993698 0)
(6.49713 0.0836267 0)
(8.84121 -1.34966 0)
(6.61931 -0.666981 0)
(8.87102 -1.85141 0)
(6.9329 -1.10771 0)
(8.76667 -1.85572 0)
(7.1948 -0.982346 0)
(8.86572 -1.0018 0)
(7.18226 -0.165728 0)
(9.20832 0.416993 0)
(6.57626 1.57083 0)
(9.43371 1.34083 0)
(5.70655 3.51698 0)
(9.56654 1.2059 0)
(7.73622 7.99829 0)
(7.70153 0.150799 0)
(7.71064 0.162124 0)
(7.73895 0.149803 0)
(7.87872 0.162324 0)
(7.98615 0.13814 0)
(8.13184 0.165366 0)
(8.24851 0.155405 0)
(8.37514 0.0976812 0)
(8.51214 0.0457725 0)
(8.64839 -0.120846 0)
(8.77641 -0.223734 0)
(8.91579 -0.372781 0)
(9.03987 -0.569099 0)
(9.14255 -0.685315 0)
(9.2436 -0.916806 0)
(9.24804 -1.07884 0)
(9.23622 -1.17787 0)
(9.18123 -1.34714 0)
(9.05871 -1.35228 0)
(8.96282 -1.35552 0)
(8.77618 -1.33212 0)
(8.57055 -1.16221 0)
(8.34033 -1.00239 0)
(8.06685 -0.779895 0)
(7.8617 -0.479078 0)
(7.55692 -0.16106 0)
(7.35695 0.165612 0)
(7.00888 0.507701 0)
(6.84139 0.830887 0)
(6.60223 1.09758 0)
(6.47975 1.34667 0)
(6.67189 1.62475 0)
(6.89776 1.73577 0)
(7.0728 1.66763 0)
(7.49873 1.80253 0)
(7.94473 1.76976 0)
(8.22556 1.41922 0)
(8.55588 1.26539 0)
(9.07368 1.14658 0)
(9.25094 0.741004 0)
(9.48566 0.411419 0)
(9.96985 0.102783 0)
(10.0915 -0.187645 0)
(10.3559 -0.595414 0)
(10.9414 -1.02391 0)
(11.2109 -1.34449 0)
(11.5025 -1.63772 0)
(12.1405 -2.18059 0)
(12.6115 -2.58919 0)
(12.8216 -2.85879 0)
(13.338 -3.25015 0)
(13.6948 -3.74646 0)
(13.773 -3.90228 0)
(13.8046 -4.05973 0)
(13.9315 -4.39674 0)
(13.7225 -4.36738 0)
(13.4561 -4.31568 0)
(13.3034 -4.42176 0)
(13.0027 -4.24631 0)
(12.6735 -4.05039 0)
(12.4634 -4.08323 0)
(12.326 -3.76911 0)
(11.9182 -3.5902 0)
(11.9147 -3.47305 0)
(11.5745 -3.16884 0)
(11.4992 -2.98999 0)
(11.1211 -2.88958 0)
(10.9795 -2.50252 0)
(10.6228 -2.36759 0)
(10.4724 -2.3356 0)
(9.96867 -1.92092 0)
(9.72398 -1.78212 0)
(9.36255 -1.79975 0)
(8.90359 -1.74572 0)
(8.35864 -1.60232 0)
(8.06458 -1.95208 0)
(7.77416 -2.15122 0)
(7.29244 -2.1534 0)
(6.88813 -2.09901 0)
(6.74284 -2.65287 0)
(7.13426 -3.35381 0)
(7.53826 -4.19098 0)
(8.30307 -4.7593 0)
(8.81452 -4.97519 0)
(9.49668 -4.92972 0)
(9.93493 -4.42759 0)
(10.3943 -3.94791 0)
(10.8038 -3.13988 0)
(11.1788 -2.40455 0)
(11.6258 -1.54528 0)
(11.9524 -0.698916 0)
(12.3925 0.297416 0)
(12.7269 1.15765 0)
(13.0623 2.12442 0)
(13.3612 2.96606 0)
(13.6618 3.87655 0)
(13.9329 4.60852 0)
(13.9586 5.28309 0)
(14.1407 5.72693 0)
(14.1034 6.11089 0)
(14.0228 6.25928 0)
(13.8519 6.25914 0)
(13.6475 6.28327 0)
(13.7465 6.03231 0)
(13.4296 5.78573 0)
(13.7322 5.3918 0)
(13.2278 4.89035 0)
(13.4637 4.21844 0)
(12.8305 3.49781 0)
(13.0629 2.82034 0)
(12.2911 1.85893 0)
(12.4193 1.04679 0)
(11.5795 0.17076 0)
(11.6067 -0.625539 0)
(10.6083 -1.49707 0)
(10.4848 -1.79089 0)
(9.40359 -2.24299 0)
(9.41147 -2.54735 0)
(8.37031 -2.8729 0)
(8.5482 -2.37764 0)
(7.44602 -2.45685 0)
(7.82306 -2.02454 0)
(6.60966 -2.33412 0)
(7.12072 -1.43863 0)
(6.2248 -1.48247 0)
(7.16103 -0.940123 0)
(6.11432 -1.4383 0)
(7.03795 -0.779189 0)
(5.91326 -2.04005 0)
(7.19138 -1.44127 0)
(5.76137 -2.33689 0)
(7.12268 -1.11826 0)
(5.52415 -2.22548 0)
(6.788 -1.58296 0)
(5.6359 -2.97951 0)
(6.85272 -3.05761 0)
(6.38042 -4.24187 0)
(7.0326 -4.83884 0)
(7.17472 -5.96968 0)
(7.49436 -6.60064 0)
(7.90603 -6.86422 0)
(7.91609 -6.70662 0)
(7.8734 -6.63739 0)
(7.88514 -6.09742 0)
(7.34918 -5.59626 0)
(7.39036 -4.48274 0)
(6.81519 -3.20719 0)
(6.85677 -1.68158 0)
(6.21025 -0.115752 0)
(6.10261 1.45195 0)
(5.47409 2.774 0)
(5.64473 4.08999 0)
(5.24249 5.0039 0)
(5.20287 6.41872 0)
(4.97029 7.54937 0)
(4.60935 7.99503 0)
(4.76542 8.12507 0)
(5.06557 7.4217 0)
(4.75069 6.92874 0)
(5.15295 7.00651 0)
(4.74971 6.92779 0)
(4.64405 7.07134 0)
(4.92284 7.1119 0)
(4.49866 6.83742 0)
(4.84746 6.90935 0)
(4.91052 6.60758 0)
(4.87619 6.24933 0)
(4.9486 6.36924 0)
(5.51253 5.39338 0)
(4.2859 6.00512 0)
(6.77027 4.32844 0)
(3.77424 5.36373 0)
(8.0565 2.96494 0)
(4.01466 4.31515 0)
(9.03543 1.33685 0)
(4.77485 2.74591 0)
(9.75117 -0.544915 0)
(5.63491 0.871649 0)
(10.0409 -2.18802 0)
(5.62644 -0.21837 0)
(9.65253 -2.8184 0)
(5.35406 -0.272175 0)
(9.67849 -2.39278 0)
(5.5854 0.359642 0)
(10.0845 -1.79464 0)
(5.92252 0.503877 0)
(10.3859 -2.22176 0)
(6.01217 -0.26377 0)
(10.5838 -3.00495 0)
(6.18834 -0.759193 0)
(10.9815 -3.06203 0)
(6.34631 -0.510842 0)
(11.2802 -2.49107 0)
(7.1542 0.753986 0)
(11.7897 -1.0729 0)
(7.94198 2.7462 0)
(12.1471 0.305561 0)
(8.55426 5.27416 0)
(10.7119 1.18069 0)
(8.72898 6.5013 0)
(9.9273 0.0879399 0)
(10.0089 -0.0368642 0)
(10.0123 -0.070024 0)
(10.1664 -0.036461 0)
(10.2834 -0.0211942 0)
(10.3974 0.0472804 0)
(10.5272 0.0460362 0)
(10.6034 -0.00965248 0)
(10.6741 -0.0376842 0)
(10.8125 -0.214836 0)
(10.8302 -0.310259 0)
(10.9781 -0.433286 0)
(11.019 -0.66064 0)
(11.0657 -0.71494 0)
(11.1186 -0.939697 0)
(11.063 -1.09482 0)
(11.004 -1.10103 0)
(10.9372 -1.30179 0)
(10.7366 -1.21358 0)
(10.6822 -1.18499 0)
(10.4183 -1.20654 0)
(10.2857 -0.928332 0)
(10.0502 -0.847727 0)
(9.79404 -0.629712 0)
(9.70405 -0.235902 0)
(9.40992 -0.064119 0)
(9.32158 0.344894 0)
(9.19638 0.699313 0)
(8.98206 0.87448 0)
(9.01833 1.263 0)
(8.89332 1.45534 0)
(8.83506 1.4916 0)
(9.0615 1.70754 0)
(9.16985 1.62087 0)
(9.16126 1.51491 0)
(9.66302 1.51288 0)
(9.85668 1.3038 0)
(10.0163 1.03238 0)
(10.5214 0.807247 0)
(10.7831 0.542495 0)
(10.9411 0.21259 0)
(11.5185 -0.206913 0)
(11.7486 -0.531764 0)
(12.0097 -0.804175 0)
(12.5178 -1.28972 0)
(12.985 -1.7447 0)
(13.1393 -1.98124 0)
(13.6078 -2.40071 0)
(13.9967 -2.91502 0)
(14.129 -3.13232 0)
(14.2228 -3.40356 0)
(14.4544 -3.8482 0)
(14.2901 -3.93083 0)
(14.0838 -4.00938 0)
(13.982 -4.18838 0)
(13.6402 -4.18203 0)
(13.3503 -4.09285 0)
(13.021 -4.11129 0)
(12.9133 -3.91398 0)
(12.5276 -3.82168 0)
(12.4848 -3.79002 0)
(12.2706 -3.52945 0)
(12.2033 -3.39972 0)
(11.9995 -3.2689 0)
(11.9381 -2.98951 0)
(11.7291 -2.81489 0)
(11.5003 -2.68525 0)
(11.233 -2.25039 0)
(10.9443 -2.19926 0)
(10.61 -1.99435 0)
(10.0097 -1.57133 0)
(9.74368 -1.44013 0)
(9.28011 -1.51428 0)
(8.76117 -1.24176 0)
(8.05544 -1.24224 0)
(7.92461 -1.60716 0)
(7.33737 -1.78897 0)
(6.93786 -1.69772 0)
(6.28733 -1.93653 0)
(6.54115 -2.76474 0)
(6.6621 -3.71999 0)
(7.34974 -4.65402 0)
(7.74187 -5.14562 0)
(8.33801 -5.43474 0)
(8.82002 -5.22806 0)
(9.21027 -4.79953 0)
(9.60239 -4.21148 0)
(9.94027 -3.4906 0)
(10.3148 -2.69923 0)
(10.6984 -1.8165 0)
(11.0786 -0.923194 0)
(11.4656 0.0121038 0)
(11.8452 0.973734 0)
(12.1289 1.89807 0)
(12.4576 2.76264 0)
(12.7892 3.57122 0)
(13.132 4.39679 0)
(13.3394 4.99469 0)
(13.4935 5.63717 0)
(13.7188 6.06773 0)
(13.5594 6.35814 0)
(13.725 6.35857 0)
(13.2961 6.28676 0)
(13.4302 6.12644 0)
(13.03 5.75676 0)
(13.2583 5.45751 0)
(12.9271 4.9061 0)
(13.0398 4.36022 0)
(12.7791 3.61412 0)
(12.6847 2.96204 0)
(12.3885 2.10107 0)
(12.1746 1.31594 0)
(11.7012 0.531646 0)
(11.3103 -0.293604 0)
(10.8234 -0.968418 0)
(10.3009 -1.39357 0)
(9.75256 -1.70555 0)
(9.21365 -2.1638 0)
(8.66472 -2.42044 0)
(8.29977 -2.12098 0)
(7.79244 -2.15364 0)
(7.56257 -1.7546 0)
(6.98227 -2.00913 0)
(6.98196 -1.26078 0)
(6.5809 -1.45403 0)
(6.97693 -0.897081 0)
(6.41948 -1.37004 0)
(6.93178 -0.717005 0)
(6.02188 -1.96571 0)
(7.02305 -1.36738 0)
(5.85581 -2.27572 0)
(6.95883 -0.887765 0)
(5.41162 -2.23589 0)
(6.73075 -1.35566 0)
(5.47095 -3.22853 0)
(6.74569 -2.86209 0)
(5.80971 -4.58208 0)
(6.88072 -4.79904 0)
(6.41351 -6.32679 0)
(7.1592 -6.7977 0)
(7.24234 -6.9384 0)
(7.15814 -6.77734 0)
(7.24233 -6.47361 0)
(6.94913 -5.88541 0)
(6.67366 -5.28895 0)
(6.33467 -4.09788 0)
(5.93436 -2.97187 0)
(5.68444 -1.27933 0)
(5.17156 0.117673 0)
(4.97195 1.87631 0)
(4.80662 2.8749 0)
(4.72957 4.12248 0)
(4.71301 5.25536 0)
(4.24317 6.48581 0)
(4.2626 7.77011 0)
(4.23222 8.13532 0)
(4.21245 7.69528 0)
(4.60702 7.52465 0)
(4.83119 6.92102 0)
(4.49884 6.89156 0)
(5.00177 7.1984 0)
(4.63269 6.82352 0)
(4.64661 7.185 0)
(5.22371 6.861 0)
(4.68326 6.5256 0)
(5.27594 6.7949 0)
(5.67371 5.81003 0)
(4.45731 6.67121 0)
(7.34633 4.95662 0)
(3.82854 6.27941 0)
(8.68867 3.75256 0)
(4.01101 5.4856 0)
(9.28342 2.3613 0)
(4.69676 4.22359 0)
(9.64767 0.831329 0)
(5.51515 2.57156 0)
(10.1712 -0.971139 0)
(5.88032 0.910044 0)
(9.91596 -2.17018 0)
(4.54971 0.565056 0)
(9.0682 -2.85815 0)
(3.58584 0.453769 0)
(8.93741 -3.09411 0)
(4.06442 0.678651 0)
(9.39972 -2.81065 0)
(5.01884 0.771379 0)
(9.68613 -3.08901 0)
(5.63052 0.167767 0)
(9.65409 -3.80926 0)
(6.10593 -0.263395 0)
(9.83727 -4.00949 0)
(6.60507 -0.0469279 0)
(10.1547 -3.86013 0)
(7.02125 0.725194 0)
(11.0492 -2.52784 0)
(8.11985 2.47472 0)
(12.1059 -0.465992 0)
(9.48789 4.46882 0)
(13.0032 2.56185 0)
(10.2422 5.68372 0)
(11.4711 0.113728 0)
(11.5954 -0.103564 0)
(11.7265 -0.156834 0)
(11.8584 -0.117855 0)
(12.037 -0.121936 0)
(12.0649 0.00462021 0)
(12.1701 -0.0224578 0)
(12.2218 -0.0651683 0)
(12.2019 -0.0699318 0)
(12.3166 -0.275559 0)
(12.2894 -0.35013 0)
(12.3419 -0.472229 0)
(12.4122 -0.709339 0)
(12.3269 -0.70868 0)
(12.3882 -0.919405 0)
(12.269 -1.03676 0)
(12.1393 -1.00456 0)
(12.1029 -1.18454 0)
(11.7896 -1.10107 0)
(11.7596 -1.03782 0)
(11.4987 -1.08059 0)
(11.3136 -0.796559 0)
(11.2172 -0.676743 0)
(10.9289 -0.506058 0)
(10.8938 -0.099333 0)
(10.7778 0.0681013 0)
(10.5656 0.350678 0)
(10.7477 0.757191 0)
(10.591 0.90703 0)
(10.6699 1.21849 0)
(10.8818 1.4679 0)
(10.7824 1.51383 0)
(10.9899 1.59717 0)
(11.2938 1.60161 0)
(11.1686 1.48253 0)
(11.5606 1.32834 0)
(11.8376 1.13902 0)
(11.8718 0.930977 0)
(12.321 0.575089 0)
(12.5884 0.275439 0)
(12.7309 -0.00996425 0)
(13.1192 -0.416242 0)
(13.5181 -0.853828 0)
(13.6317 -1.07852 0)
(13.9444 -1.49582 0)
(14.3571 -1.99831 0)
(14.4077 -2.25768 0)
(14.5592 -2.55826 0)
(14.761 -3.04691 0)
(14.7007 -3.24068 0)
(14.5566 -3.46686 0)
(14.5419 -3.73962 0)
(14.183 -3.80317 0)
(13.9541 -3.86947 0)
(13.5893 -3.9874 0)
(13.4362 -3.92754 0)
(13.0528 -3.92109 0)
(12.9393 -3.89689 0)
(12.7161 -3.73796 0)
(12.6458 -3.78999 0)
(12.446 -3.69147 0)
(12.4271 -3.46276 0)
(12.371 -3.41519 0)
(12.2161 -3.24362 0)
(12.1327 -2.88633 0)
(12.0129 -2.77877 0)
(11.763 -2.48702 0)
(11.3899 -2.04481 0)
(11.154 -1.92816 0)
(10.6433 -1.62101 0)
(10.1911 -1.24421 0)
(9.77113 -1.16202 0)
(9.28134 -1.04215 0)
(8.52951 -0.674321 0)
(8.10153 -0.903376 0)
(7.65314 -1.2588 0)
(6.99271 -1.32546 0)
(6.29423 -1.18578 0)
(5.88198 -1.80952 0)
(6.03785 -2.8659 0)
(6.22223 -4.13827 0)
(6.80983 -5.00374 0)
(7.05702 -5.63607 0)
(7.6525 -5.79695 0)
(7.93314 -5.53638 0)
(8.3273 -5.11542 0)
(8.6435 -4.50977 0)
(8.94796 -3.85661 0)
(9.41315 -3.05285 0)
(9.75477 -2.21042 0)
(10.1749 -1.27449 0)
(10.4822 -0.346702 0)
(10.9325 0.695517 0)
(11.1597 1.61139 0)
(11.4625 2.53208 0)
(11.7663 3.33907 0)
(12.0393 4.20796 0)
(12.3447 4.80906 0)
(12.5999 5.38692 0)
(12.9967 5.94055 0)
(12.9274 6.24413 0)
(13.0906 6.46516 0)
(12.9187 6.37209 0)
(12.9394 6.20441 0)
(12.7259 5.7546 0)
(12.7031 5.45108 0)
(12.5362 4.95865 0)
(12.5611 4.38424 0)
(12.3445 3.81694 0)
(12.308 3.0658 0)
(11.9792 2.34762 0)
(11.8601 1.50828 0)
(11.392 0.930565 0)
(11.1321 0.0372119 0)
(10.5939 -0.480445 0)
(10.1924 -1.05016 0)
(9.59061 -1.25205 0)
(9.17673 -1.84764 0)
(8.52692 -1.90288 0)
(8.18857 -1.84342 0)
(7.59358 -1.64261 0)
(7.39141 -1.60665 0)
(6.87264 -1.65191 0)
(7.00756 -1.35587 0)
(6.64076 -1.25155 0)
(6.97597 -1.00291 0)
(6.42086 -1.11268 0)
(6.91589 -0.759529 0)
(5.98926 -1.71487 0)
(6.99962 -1.61289 0)
(5.88746 -1.92275 0)
(6.7751 -0.842547 0)
(5.23296 -1.94703 0)
(6.53589 -1.51907 0)
(5.21345 -3.22074 0)
(6.37417 -2.85073 0)
(5.36166 -4.84736 0)
(6.52441 -4.77351 0)
(5.86091 -6.73503 0)
(6.77342 -6.7513 0)
(6.54366 -6.97221 0)
(6.59917 -6.59104 0)
(6.36144 -6.17787 0)
(6.12874 -5.66476 0)
(5.7624 -4.79739 0)
(5.29835 -3.88125 0)
(4.86582 -2.45103 0)
(4.58947 -1.01263 0)
(4.26637 0.395119 0)
(4.14958 1.71688 0)
(3.97998 3.09351 0)
(3.88563 4.12015 0)
(3.81913 5.57603 0)
(3.66478 6.634 0)
(3.42405 7.56805 0)
(3.71697 8.15536 0)
(3.90297 7.6167 0)
(4.09406 7.03162 0)
(4.62565 7.16561 0)
(4.60554 6.61209 0)
(4.36379 7.16738 0)
(5.19031 7.01749 0)
(4.50486 6.69391 0)
(5.19003 7.11643 0)
(5.8469 6.04988 0)
(4.34982 7.03521 0)
(7.76223 5.38359 0)
(3.92353 6.7949 0)
(9.01707 4.4756 0)
(4.28184 6.26384 0)
(9.36822 3.40098 0)
(4.94259 5.38887 0)
(9.38755 2.13759 0)
(5.60041 3.9929 0)
(9.6082 0.623276 0)
(6.33034 2.13836 0)
(9.97315 -1.0417 0)
(5.95167 1.12949 0)
(9.41556 -1.65582 0)
(4.88816 0.961779 0)
(9.11342 -2.39283 0)
(4.81574 0.374554 0)
(9.3202 -2.85043 0)
(5.45395 0.405468 0)