/*--------------------------------*- C++ -*----------------------------------*\
| =========                 |                                                 |
| \\      /  F ield         | OpenFOAM: The Open Source CFD Toolbox           |
|  \\    /   O peration     | Version:  2.4.0                                 |
|   \\  /    A nd           | Web:      www.OpenFOAM.org                      |
|    \\/     M anipulation  |                                                 |
\*---------------------------------------------------------------------------*/
FoamFile
{
    version     2.0;
    format      ascii;
    class       volSymmTensorField;
    location    "0.12";
    object      UPrime2Mean;
}
// * * * * * * * * * * * * * * * * * * * * * * * * * * * * * * * * * * * * * //

dimensions      [0 2 -2 0 0 0 0];

internalField   nonuniform List<symmTensor> 
8800
(
(0.0137968 0.000911306 0 0.00155403 0 0)
(0.260892 -0.0103202 0 0.000565364 0 0)
(0.509897 -0.00104067 0 0.000116318 0 0)
(0.63376 0.00151431 0 3.09078e-05 0 0)
(0.72593 0.00126751 0 7.23174e-06 0 0)
(0.794809 0.00100469 0 4.80168e-06 0 0)
(0.83992 0.000710824 0 4.97e-06 0 0)
(0.874127 0.000423033 0 5.01186e-06 0 0)
(0.897076 0.000239299 0 6.16336e-06 0 0)
(0.91847 0.000104665 0 5.72169e-06 0 0)
(0.931367 6.77247e-05 0 5.84895e-06 0 0)
(0.950238 -0.000105847 0 6.46846e-06 0 0)
(0.958688 -0.000109623 0 6.87045e-06 0 0)
(0.985043 -0.0003882 0 7.41078e-06 0 0)
(0.993908 -0.000762856 0 9.71347e-06 0 0)
(1.0413 -0.000346871 0 1.29908e-05 0 0)
(1.09359 -0.00678658 0 9.07827e-05 0 0)
(1.14071 0.0148722 0 0.000557666 0 0)
(1.73765 -0.134958 0 0.014022 0 0)
(1.87005 0.214727 0 0.0422888 0 0)
(0.0714837 0.0235864 0 0.00920927 0 0)
(0.0060457 -0.00804989 0 0.0119654 0 0)
(0.0621853 -0.0164863 0 0.00479182 0 0)
(0.123808 -0.0142491 0 0.00171831 0 0)
(0.199278 -0.0126928 0 0.000871198 0 0)
(0.295499 -0.0112428 0 0.000603465 0 0)
(0.388325 -0.00911353 0 0.000446351 0 0)
(0.479322 -0.00708057 0 0.000299361 0 0)
(0.548772 -0.00536759 0 0.000182102 0 0)
(0.618873 -0.00467205 0 0.000133029 0 0)
(0.657036 -0.00377182 0 6.86613e-05 0 0)
(0.731548 -0.00430677 0 7.42275e-05 0 0)
(0.73411 -0.0038091 0 6.4414e-05 0 0)
(0.846454 -0.00636363 0 0.000133113 0 0)
(0.80498 -0.00365354 0 7.90008e-05 0 0)
(1.00017 -0.0180581 0 0.000475744 0 0)
(0.936849 0.00251382 0 0.000339048 0 0)
(1.2717 -0.076718 0 0.00525446 0 0)
(1.44649 -0.0324092 0 0.00361404 0 0)
(2.19458 -0.451314 0 0.143893 0 0)
(0.0704241 0.017373 0 0.00503672 0 0)
(0.00612371 0.00799838 0 0.0126207 0 0)
(0.00581772 0.00390204 0 0.00772854 0 0)
(0.00877523 0.00205586 0 0.00401394 0 0)
(0.00656939 -0.000662245 0 0.00301437 0 0)
(0.0116555 -0.00454853 0 0.00273342 0 0)
(0.0289393 -0.00711784 0 0.00236896 0 0)
(0.0633332 -0.00858095 0 0.00175238 0 0)
(0.098688 -0.00830321 0 0.00126329 0 0)
(0.147149 -0.00832257 0 0.000791594 0 0)
(0.171532 -0.0075121 0 0.000459921 0 0)
(0.241279 -0.0074674 0 0.000436324 0 0)
(0.239334 -0.00817422 0 0.000380501 0 0)
(0.334083 -0.00882432 0 0.00063792 0 0)
(0.323984 -0.0104567 0 0.000737208 0 0)
(0.429845 -0.0152623 0 0.00124383 0 0)
(0.462332 -0.0210658 0 0.00224898 0 0)
(0.589264 -0.0391818 0 0.00394141 0 0)
(0.735835 -0.104721 0 0.0236312 0 0)
(1.08541 -0.284058 0 0.151384 0 0)
(0.0669988 0.0118654 0 0.00248384 0 0)
(0.00581357 0.0055679 0 0.00830822 0 0)
(0.0131581 0.00789134 0 0.00668442 0 0)
(0.0322434 0.00934594 0 0.00367745 0 0)
(0.0495794 0.0106489 0 0.00315279 0 0)
(0.0475467 0.00998278 0 0.00353371 0 0)
(0.0465117 0.00910504 0 0.00374064 0 0)
(0.0341539 0.00566898 0 0.00340259 0 0)
(0.0325592 0.00383454 0 0.00281418 0 0)
(0.0243502 0.00055313 0 0.00202972 0 0)
(0.023444 0.000712848 0 0.0012302 0 0)
(0.0250636 -0.00236684 0 0.00149678 0 0)
(0.0229362 -0.00115102 0 0.000858649 0 0)
(0.032666 -0.00527885 0 0.0017955 0 0)
(0.0355707 -0.00244842 0 0.00115396 0 0)
(0.0501909 -0.00875838 0 0.00271457 0 0)
(0.0613059 -0.00661998 0 0.00200675 0 0)
(0.0936663 -0.0179509 0 0.00891094 0 0)
(0.126512 -0.0388989 0 0.0245886 0 0)
(0.209884 -0.0932659 0 0.123271 0 0)
(0.0700657 0.00914363 0 0.00144575 0 0)
(0.00439413 0.00292727 0 0.00534625 0 0)
(0.0106304 0.00573621 0 0.00497953 0 0)
(0.0299386 0.00746339 0 0.00266087 0 0)
(0.0587928 0.0095286 0 0.00216382 0 0)
(0.0686017 0.0106253 0 0.0025963 0 0)
(0.0891489 0.0127961 0 0.00318586 0 0)
(0.0861974 0.011591 0 0.00313965 0 0)
(0.104408 0.0115869 0 0.002899 0 0)
(0.0964923 0.00865243 0 0.00254277 0 0)
(0.113426 0.00932035 0 0.00144561 0 0)
(0.101118 0.00739328 0 0.00210542 0 0)
(0.115921 0.00762798 0 0.00118094 0 0)
(0.0979936 0.00817202 0 0.00250331 0 0)
(0.108591 0.00733694 0 0.00171431 0 0)
(0.0853947 0.010946 0 0.00388502 0 0)
(0.0866996 0.0112671 0 0.00347109 0 0)
(0.0581711 0.0216651 0 0.0139554 0 0)
(0.0522908 0.0297213 0 0.0268789 0 0)
(0.0445022 0.05702 0 0.157824 0 0)
(0.0706433 0.00653963 0 0.000834977 0 0)
(0.00355106 0.00169836 0 0.00361767 0 0)
(0.00716848 0.00350128 0 0.00352917 0 0)
(0.0238039 0.00536945 0 0.00195358 0 0)
(0.0483214 0.00645289 0 0.00135069 0 0)
(0.0614273 0.00753723 0 0.00165851 0 0)
(0.0797988 0.00969637 0 0.00220167 0 0)
(0.086266 0.00991211 0 0.00237584 0 0)
(0.105214 0.00962457 0 0.00222945 0 0)
(0.113401 0.00860786 0 0.00205225 0 0)
(0.133154 0.0084125 0 0.00122118 0 0)
(0.142645 0.00898628 0 0.00167586 0 0)
(0.162053 0.00826821 0 0.0011966 0 0)
(0.169067 0.0116888 0 0.00187355 0 0)
(0.184751 0.0113156 0 0.00173468 0 0)
(0.186559 0.0175507 0 0.00292008 0 0)
(0.191773 0.0239397 0 0.00404895 0 0)
(0.185676 0.0409333 0 0.0116098 0 0)
(0.183532 0.0723655 0 0.0345758 0 0)
(0.197588 0.131806 0 0.119281 0 0)
(0.070226 0.00439663 0 0.000477254 0 0)
(0.00427774 0.000964559 0 0.00236237 0 0)
(0.00592584 0.00175362 0 0.00232188 0 0)
(0.0209301 0.00380573 0 0.00146725 0 0)
(0.0409863 0.00420595 0 0.00083732 0 0)
(0.056435 0.00516714 0 0.00106712 0 0)
(0.0684488 0.0066204 0 0.0015565 0 0)
(0.0792703 0.00736446 0 0.00160619 0 0)
(0.0908013 0.00667693 0 0.00130382 0 0)
(0.105552 0.0067187 0 0.00158631 0 0)
(0.117604 0.00554621 0 0.000797846 0 0)
(0.136461 0.00784216 0 0.00139247 0 0)
(0.148447 0.00538112 0 0.000826844 0 0)
(0.169064 0.0110637 0 0.00162748 0 0)
(0.177473 0.00823813 0 0.00123192 0 0)
(0.198085 0.0194274 0 0.00294992 0 0)
(0.199793 0.0213469 0 0.00359267 0 0)
(0.220401 0.0490046 0 0.0130029 0 0)
(0.22113 0.0730616 0 0.0304006 0 0)
(0.271819 0.150727 0 0.105485 0 0)
(0.0716531 0.0029313 0 0.000254026 0 0)
(0.00583668 0.000577361 0 0.00129317 0 0)
(0.00689943 0.000981228 0 0.00127792 0 0)
(0.0195859 0.00234113 0 0.0008226 0 0)
(0.0382597 0.00269786 0 0.00045358 0 0)
(0.0513659 0.00318469 0 0.000636552 0 0)
(0.0650312 0.00438436 0 0.000935632 0 0)
(0.0710137 0.00463096 0 0.000948393 0 0)
(0.0852534 0.00446028 0 0.00081801 0 0)
(0.0933979 0.00396447 0 0.000909271 0 0)
(0.111484 0.00377159 0 0.000635418 0 0)
(0.121153 0.00451667 0 0.000869288 0 0)
(0.141887 0.00406806 0 0.000717991 0 0)
(0.150925 0.00650184 0 0.000948662 0 0)
(0.172207 0.0075477 0 0.000902319 0 0)
(0.178686 0.013971 0 0.00194233 0 0)
(0.200241 0.0215723 0 0.00325034 0 0)
(0.206494 0.0427799 0 0.01094 0 0)
(0.239086 0.072831 0 0.0278319 0 0)
(0.274656 0.14169 0 0.0888271 0 0)
(0.069276 0.00144993 0 0.000176242 0 0)
(0.00481135 3.17898e-06 0 0.000675168 0 0)
(0.00570728 5.95541e-05 0 0.000671317 0 0)
(0.0178426 0.00113782 0 0.000450127 0 0)
(0.0331722 0.00126101 0 0.000308435 0 0)
(0.0499203 0.00159784 0 0.000451879 0 0)
(0.0567737 0.00217461 0 0.000654358 0 0)
(0.0696007 0.00257615 0 0.00063705 0 0)
(0.0747106 0.00209963 0 0.000483721 0 0)
(0.0916856 0.00239989 0 0.00064024 0 0)
(0.0980856 0.00162902 0 0.000529911 0 0)
(0.119207 0.00311815 0 0.000701334 0 0)
(0.125704 0.00204489 0 0.000535856 0 0)
(0.149607 0.00506827 0 0.000695431 0 0)
(0.153241 0.0052391 0 0.000637607 0 0)
(0.179929 0.0121775 0 0.00154071 0 0)
(0.182419 0.0189068 0 0.00273592 0 0)
(0.216505 0.0393598 0 0.00939355 0 0)
(0.230951 0.0692686 0 0.0241315 0 0)
(0.302137 0.131561 0 0.0715577 0 0)
(0.0691675 0.000499269 0 9.85476e-05 0 0)
(0.00245674 -6.89963e-05 0 0.000305273 0 0)
(0.00402956 -2.82133e-05 0 0.000320857 0 0)
(0.0145658 0.000306135 0 0.000182138 0 0)
(0.0312205 0.000445134 0 0.000168526 0 0)
(0.0440574 0.00038269 0 0.000305969 0 0)
(0.0558633 0.000659091 0 0.000408502 0 0)
(0.061776 0.000672446 0 0.000350233 0 0)
(0.0734767 0.000686717 0 0.000281688 0 0)
(0.0820263 0.000589525 0 0.000357285 0 0)
(0.0973779 0.000425889 0 0.000423794 0 0)
(0.108111 0.00110685 0 0.000481674 0 0)
(0.125437 0.000901763 0 0.000453305 0 0)
(0.137043 0.00267686 0 0.000466181 0 0)
(0.155163 0.00372723 0 0.000486293 0 0)
(0.16754 0.00966798 0 0.00105891 0 0)
(0.189096 0.0165683 0 0.00236242 0 0)
(0.210207 0.0361718 0 0.00749784 0 0)
(0.249213 0.0641017 0 0.0204825 0 0)
(0.309509 0.12193 0 0.0566192 0 0)
(0.0677934 -0.00058628 0 0.000112215 0 0)
(0.00180068 -0.0003073 0 0.00032546 0 0)
(0.00327007 -0.000283073 0 0.000318498 0 0)
(0.0139689 -0.00058733 0 0.000231354 0 0)
(0.0298146 -0.000595073 0 0.000220502 0 0)
(0.0442681 -0.000853556 0 0.000335332 0 0)
(0.0536782 -0.00100902 0 0.00042398 0 0)
(0.0623665 -0.00115226 0 0.000420889 0 0)
(0.071246 -0.00115253 0 0.000374221 0 0)
(0.0831321 -0.00100893 0 0.000364632 0 0)
(0.0948655 -0.0011939 0 0.000476776 0 0)
(0.109518 -0.000542484 0 0.000526785 0 0)
(0.122911 -0.000660699 0 0.000429581 0 0)
(0.139402 0.000800057 0 0.000403793 0 0)
(0.153308 0.00188553 0 0.000347839 0 0)
(0.172471 0.0069811 0 0.000870215 0 0)
(0.191567 0.0139781 0 0.00165622 0 0)
(0.222177 0.0316885 0 0.00619356 0 0)
(0.263399 0.0581308 0 0.0157327 0 0)
(0.332956 0.110948 0 0.0443134 0 0)
(0.0678585 -0.00166467 0 0.00012916 0 0)
(0.00176205 -0.000518487 0 0.000609 0 0)
(0.00335057 -0.000540397 0 0.000567877 0 0)
(0.0147075 -0.00148482 0 0.000409202 0 0)
(0.0312125 -0.0015546 0 0.000272319 0 0)
(0.0458767 -0.00214734 0 0.000431693 0 0)
(0.055509 -0.00257325 0 0.000557099 0 0)
(0.0646714 -0.00312358 0 0.00061523 0 0)
(0.0736074 -0.00268051 0 0.000530904 0 0)
(0.0861191 -0.00280885 0 0.000497742 0 0)
(0.097856 -0.00243225 0 0.000552001 0 0)
(0.1135 -0.00240253 0 0.000591938 0 0)
(0.12653 -0.00185694 0 0.000466836 0 0)
(0.1447 -0.00150809 0 0.000409761 0 0)
(0.158719 0.000305168 0 0.000405382 0 0)
(0.181142 0.00390109 0 0.000595646 0 0)
(0.201233 0.011395 0 0.00143807 0 0)
(0.239375 0.0261047 0 0.00423647 0 0)
(0.284167 0.0516809 0 0.0120637 0 0)
(0.365048 0.097847 0 0.031783 0 0)
(0.0680541 -0.00295385 0 0.000236353 0 0)
(0.00165491 -0.000821523 0 0.00127883 0 0)
(0.00358597 -0.00105561 0 0.0011838 0 0)
(0.0160488 -0.00259093 0 0.000856771 0 0)
(0.0340975 -0.00281192 0 0.000496257 0 0)
(0.0484552 -0.00362643 0 0.000675825 0 0)
(0.0600577 -0.00456996 0 0.000907976 0 0)
(0.0685542 -0.00516474 0 0.00103687 0 0)
(0.0799158 -0.00474885 0 0.000925806 0 0)
(0.0911816 -0.00457833 0 0.000812535 0 0)
(0.105889 -0.00428492 0 0.00074766 0 0)
(0.119769 -0.0042377 0 0.000803734 0 0)
(0.136768 -0.00383158 0 0.00058854 0 0)
(0.152577 -0.00364262 0 0.000540418 0 0)
(0.172171 -0.00208509 0 0.00046352 0 0)
(0.19219 0.0010644 0 0.000612308 0 0)
(0.221209 0.00748296 0 0.00106726 0 0)
(0.257997 0.0204642 0 0.00301566 0 0)
(0.317299 0.0422946 0 0.00835201 0 0)
(0.39709 0.0837151 0 0.0224777 0 0)
(0.0688586 -0.00458592 0 0.000436794 0 0)
(0.00179453 -0.00136445 0 0.00231595 0 0)
(0.00456463 -0.00210652 0 0.00213964 0 0)
(0.0188483 -0.00399112 0 0.00141741 0 0)
(0.0394391 -0.00438262 0 0.000808393 0 0)
(0.0536867 -0.0056546 0 0.00107356 0 0)
(0.0673888 -0.00681966 0 0.00137979 0 0)
(0.0762137 -0.00782917 0 0.00166887 0 0)
(0.0899227 -0.00699531 0 0.00142317 0 0)
(0.101563 -0.00709019 0 0.00135474 0 0)
(0.118037 -0.00608404 0 0.000967455 0 0)
(0.132644 -0.00688026 0 0.00115416 0 0)
(0.150959 -0.005572 0 0.000721508 0 0)
(0.168181 -0.00693182 0 0.000877465 0 0)
(0.189125 -0.00407025 0 0.000612723 0 0)
(0.212362 -0.00342995 0 0.000830555 0 0)
(0.242388 0.00409481 0 0.000858712 0 0)
(0.284906 0.0121853 0 0.00209839 0 0)
(0.346337 0.0325851 0 0.0054449 0 0)
(0.435214 0.0637526 0 0.0142659 0 0)
(0.0712392 -0.00679871 0 0.000811843 0 0)
(0.00240185 -0.0018733 0 0.00362673 0 0)
(0.00707328 -0.00393377 0 0.00346638 0 0)
(0.0225634 -0.00545438 0 0.00200234 0 0)
(0.0492489 -0.0067677 0 0.00134839 0 0)
(0.0595477 -0.00794916 0 0.00169474 0 0)
(0.0814642 -0.0100031 0 0.00218164 0 0)
(0.0836187 -0.0102792 0 0.00250938 0 0)
(0.107356 -0.0103009 0 0.00223664 0 0)
(0.10965 -0.00920989 0 0.00200654 0 0)
(0.136552 -0.00885868 0 0.00140794 0 0)
(0.138964 -0.00896751 0 0.00161185 0 0)
(0.167638 -0.00809801 0 0.0009956 0 0)
(0.169427 -0.00935917 0 0.00129405 0 0)
(0.199945 -0.00642011 0 0.000804446 0 0)
(0.204736 -0.00685577 0 0.00114839 0 0)
(0.241871 0.000615222 0 0.000767202 0 0)
(0.262098 0.0043071 0 0.00152504 0 0)
(0.323886 0.0218449 0 0.00334779 0 0)
(0.385123 0.0391616 0 0.00775687 0 0)
(0.0707546 -0.00935374 0 0.00145204 0 0)
(0.00369335 -0.00292949 0 0.00539455 0 0)
(0.0106799 -0.00617694 0 0.00498343 0 0)
(0.0283864 -0.00744045 0 0.00270864 0 0)
(0.0598544 -0.00984971 0 0.00217827 0 0)
(0.0663307 -0.0108046 0 0.00265272 0 0)
(0.0909369 -0.0132211 0 0.00318759 0 0)
(0.0829676 -0.0117554 0 0.00333953 0 0)
(0.106361 -0.0121721 0 0.00297253 0 0)
(0.092669 -0.00912284 0 0.00245561 0 0)
(0.115738 -0.00954101 0 0.00175025 0 0)
(0.0980525 -0.00759138 0 0.00183761 0 0)
(0.119417 -0.00769044 0 0.00115487 0 0)
(0.0987276 -0.00655115 0 0.00150138 0 0)
(0.118627 -0.00515665 0 0.000853788 0 0)
(0.0998616 -0.00410329 0 0.00131031 0 0)
(0.121471 0.000301092 0 0.000637611 0 0)
(0.114153 0.00230053 0 0.0012867 0 0)
(0.149296 0.0124936 0 0.00203843 0 0)
(0.172371 0.0182164 0 0.00404521 0 0)
(0.0675171 -0.0119967 0 0.00248084 0 0)
(0.00531161 -0.00542872 0 0.00832109 0 0)
(0.0133042 -0.00822374 0 0.00669236 0 0)
(0.0307382 -0.00919366 0 0.00371735 0 0)
(0.0501958 -0.0109259 0 0.0031766 0 0)
(0.0451569 -0.0098707 0 0.00359042 0 0)
(0.0472933 -0.00945924 0 0.00379493 0 0)
(0.031582 -0.00537928 0 0.00346202 0 0)
(0.0320626 -0.00446071 0 0.00277441 0 0)
(0.0222539 -0.00066923 0 0.00202566 0 0)
(0.0222274 -0.00107046 0 0.00138057 0 0)
(0.0233279 0.0018427 0 0.00130085 0 0)
(0.0205503 0.000789686 0 0.000827381 0 0)
(0.0333178 0.00364754 0 0.00100541 0 0)
(0.0289862 0.00169287 0 0.000538455 0 0)
(0.0506578 0.00493054 0 0.000854752 0 0)
(0.0467254 0.00185753 0 0.000392295 0 0)
(0.0724411 0.00611939 0 0.000818556 0 0)
(0.0758066 0.00341888 0 0.00126494 0 0)
(0.101566 0.00972422 0 0.00208052 0 0)
(0.0707019 -0.0174314 0 0.00502855 0 0)
(0.00593588 -0.00788589 0 0.012635 0 0)
(0.00577876 -0.00407305 0 0.00772159 0 0)
(0.00856896 -0.00191554 0 0.00401773 0 0)
(0.0061023 0.000503233 0 0.00300736 0 0)
(0.0118215 0.004703 0 0.00274607 0 0)
(0.0272026 0.00691269 0 0.00237011 0 0)
(0.0651955 0.00895329 0 0.00181085 0 0)
(0.0936305 0.00804942 0 0.00121849 0 0)
(0.149909 0.00843383 0 0.000784283 0 0)
(0.168257 0.00686911 0 0.000461906 0 0)
(0.237268 0.00768158 0 0.000425144 0 0)
(0.237652 0.00599577 0 0.000275694 0 0)
(0.31919 0.00744048 0 0.000331026 0 0)
(0.303275 0.00421641 0 0.000176518 0 0)
(0.388165 0.00670743 0 0.000304154 0 0)
(0.360168 -0.000343026 0 0.000164525 0 0)
(0.425391 0.0055452 0 0.000374083 0 0)
(0.398606 -0.00617009 0 0.000586997 0 0)
(0.410747 0.0085496 0 0.00135889 0 0)
(0.0715752 -0.0236059 0 0.0092035 0 0)
(0.00609882 0.00809015 0 0.0119756 0 0)
(0.0617438 0.0164274 0 0.00478855 0 0)
(0.124586 0.0143037 0 0.00171861 0 0)
(0.198034 0.0126351 0 0.00086708 0 0)
(0.297272 0.0113243 0 0.000606119 0 0)
(0.385883 0.00905892 0 0.000442465 0 0)
(0.483234 0.00723388 0 0.00030039 0 0)
(0.544088 0.00532705 0 0.000181116 0 0)
(0.623732 0.00463087 0 0.000119449 0 0)
(0.654038 0.00364596 0 7.06317e-05 0 0)
(0.728019 0.0039064 0 7.71094e-05 0 0)
(0.734987 0.0030256 0 6.04739e-05 0 0)
(0.812377 0.00356916 0 6.69078e-05 0 0)
(0.79882 0.00175297 0 4.29877e-05 0 0)
(0.874385 0.00238152 0 6.12746e-05 0 0)
(0.838418 -0.00193579 0 5.23748e-05 0 0)
(0.884483 0.00106834 0 0.000100689 0 0)
(0.847067 -0.00846394 0 0.000204453 0 0)
(0.798024 0.0054314 0 0.000840838 0 0)
(0.0137931 -0.000912708 0 0.00155309 0 0)
(0.260889 0.0103286 0 0.000565742 0 0)
(0.50971 0.00103634 0 0.000116353 0 0)
(0.634162 -0.00151463 0 3.06552e-05 0 0)
(0.725457 -0.00127323 0 7.07887e-06 0 0)
(0.79558 -0.000990973 0 4.60013e-06 0 0)
(0.839138 -0.000722668 0 4.89063e-06 0 0)
(0.875554 -0.000402213 0 4.86867e-06 0 0)
(0.895843 -0.000288112 0 4.89722e-06 0 0)
(0.920148 -0.000101095 0 4.53989e-06 0 0)
(0.92934 -0.000134815 0 5.24115e-06 0 0)
(0.949561 2.27322e-05 0 5.05086e-06 0 0)
(0.952486 -0.000126596 0 4.29265e-06 0 0)
(0.971914 1.39082e-06 0 3.31948e-06 0 0)
(0.96738 -0.000372126 0 3.14536e-06 0 0)
(0.981963 -0.00033124 0 2.7397e-06 0 0)
(0.962629 -0.00109499 0 4.28352e-06 0 0)
(0.959055 -0.000905422 0 7.39681e-06 0 0)
(0.930407 -0.00309501 0 1.94713e-05 0 0)
(0.85 0.00406648 0 0.000293461 0 0)
(3.47638 -1.7737 0 1.08461 0 0)
(3.93437 -2.14313 0 1.53648 0 0)
(3.89902 -2.14592 0 1.83362 0 0)
(3.68304 -1.97488 0 2.04043 0 0)
(3.47467 -1.71794 0 2.18582 0 0)
(3.38622 -1.47846 0 2.29989 0 0)
(3.47853 -1.31967 0 2.38487 0 0)
(3.6959 -1.26997 0 2.45976 0 0)
(3.96605 -1.29768 0 2.51544 0 0)
(4.19468 -1.32907 0 2.52521 0 0)
(4.29733 -1.34862 0 2.51046 0 0)
(4.32647 -1.35043 0 2.51811 0 0)
(4.30202 -1.32644 0 2.56377 0 0)
(4.26439 -1.29177 0 2.61502 0 0)
(4.27763 -1.26712 0 2.65752 0 0)
(4.25617 -1.2558 0 2.6898 0 0)
(4.28296 -1.28597 0 2.73305 0 0)
(4.28604 -1.3285 0 2.77477 0 0)
(4.31137 -1.41385 0 2.83065 0 0)
(4.4097 -1.52866 0 2.8819 0 0)
(4.45046 -1.61966 0 2.92155 0 0)
(4.5506 -1.74529 0 2.9571 0 0)
(4.69536 -1.85239 0 2.9671 0 0)
(4.8021 -1.97883 0 2.97944 0 0)
(5.01092 -2.12526 0 2.99499 0 0)
(5.08855 -2.26446 0 3.03018 0 0)
(5.24637 -2.42116 0 3.08834 0 0)
(5.26259 -2.55835 0 3.18153 0 0)
(5.36498 -2.6959 0 3.28982 0 0)
(5.34365 -2.79142 0 3.42485 0 0)
(5.46856 -2.89757 0 3.55157 0 0)
(5.53074 -2.96067 0 3.66214 0 0)
(5.7533 -3.05934 0 3.74929 0 0)
(5.97663 -3.13506 0 3.81615 0 0)
(6.27995 -3.24832 0 3.86586 0 0)
(6.67169 -3.36469 0 3.89219 0 0)
(7.00621 -3.48722 0 3.89934 0 0)
(7.46074 -3.62585 0 3.90461 0 0)
(7.74468 -3.73205 0 3.90306 0 0)
(8.10494 -3.8327 0 3.91304 0 0)
(8.29588 -3.89282 0 3.90895 0 0)
(8.50372 -3.92378 0 3.90875 0 0)
(8.61619 -3.93314 0 3.90828 0 0)
(8.70379 -3.89958 0 3.9256 0 0)
(8.82622 -3.89281 0 3.94283 0 0)
(8.90145 -3.8409 0 3.98131 0 0)
(9.10838 -3.86307 0 4.04503 0 0)
(9.25682 -3.84786 0 4.13538 0 0)
(9.56301 -3.91226 0 4.25948 0 0)
(9.81192 -3.9485 0 4.4177 0 0)
(10.1606 -4.02954 0 4.60358 0 0)
(10.4854 -4.08278 0 4.80431 0 0)
(10.7794 -4.11103 0 5.00523 0 0)
(11.112 -4.11986 0 5.18456 0 0)
(11.2555 -4.02635 0 5.32323 0 0)
(11.5099 -3.93546 0 5.42613 0 0)
(11.4989 -3.72893 0 5.47131 0 0)
(11.6224 -3.52253 0 5.50279 0 0)
(11.5112 -3.27144 0 5.4901 0 0)
(11.5383 -2.97453 0 5.50267 0 0)
(11.3939 -2.78466 0 5.54985 0 0)
(11.3984 -2.45067 0 5.58384 0 0)
(11.199 -2.29141 0 5.7035 0 0)
(11.2468 -2.0284 0 5.75922 0 0)
(10.9866 -1.77718 0 5.84778 0 0)
(11.0405 -1.6112 0 5.90748 0 0)
(10.7614 -1.26716 0 5.90875 0 0)
(10.7646 -1.08091 0 5.95725 0 0)
(10.4831 -0.787582 0 5.94141 0 0)
(10.4639 -0.483495 0 5.96587 0 0)
(10.1837 -0.279375 0 5.98827 0 0)
(10.1727 0.0669007 0 5.96786 0 0)
(9.91672 0.273233 0 6.03819 0 0)
(9.94202 0.53522 0 6.02384 0 0)
(9.70646 0.776338 0 6.12891 0 0)
(9.73648 0.960808 0 6.18754 0 0)
(9.57281 1.19611 0 6.30208 0 0)
(9.57828 1.38415 0 6.36945 0 0)
(9.50505 1.58058 0 6.40223 0 0)
(9.44448 1.80955 0 6.52174 0 0)
(9.42615 1.92709 0 6.6605 0 0)
(9.29689 2.13877 0 6.73126 0 0)
(9.37748 2.23043 0 6.83482 0 0)
(9.18691 2.4586 0 6.89991 0 0)
(9.32667 2.60882 0 6.87053 0 0)
(9.0894 2.89762 0 6.86596 0 0)
(9.23489 3.07951 0 6.89711 0 0)
(8.96029 3.33066 0 6.96295 0 0)
(9.06353 3.57295 0 6.9722 0 0)
(8.79191 3.83047 0 7.09909 0 0)
(8.78958 4.01261 0 7.24113 0 0)
(8.48457 4.17429 0 7.35161 0 0)
(8.41392 4.30773 0 7.39722 0 0)
(8.11217 4.43688 0 7.48477 0 0)
(7.97669 4.45884 0 7.55459 0 0)
(7.58423 4.47413 0 7.69059 0 0)
(7.39643 4.43503 0 7.77615 0 0)
(6.99923 4.4095 0 7.89006 0 0)
(6.71892 4.21174 0 7.92106 0 0)
(6.37353 4.18561 0 8.07364 0 0)
(6.09664 3.99621 0 8.12359 0 0)
(5.74852 3.82148 0 8.15318 0 0)
(5.4903 3.63051 0 8.17713 0 0)
(5.13806 3.39714 0 8.16897 0 0)
(4.88538 3.174 0 8.11613 0 0)
(4.52271 2.89828 0 8.05269 0 0)
(4.27326 2.71618 0 8.10031 0 0)
(3.95119 2.46783 0 8.05614 0 0)
(3.74127 2.33534 0 8.1605 0 0)
(3.51506 2.2391 0 8.22295 0 0)
(3.35391 2.10935 0 8.2841 0 0)
(3.14772 2.09368 0 8.4468 0 0)
(3.05345 2.03542 0 8.50007 0 0)
(2.80422 2.01209 0 8.64586 0 0)
(2.81424 2.06269 0 8.70086 0 0)
(2.53145 2.04476 0 8.7339 0 0)
(2.66129 2.11974 0 8.74357 0 0)
(2.33525 2.03868 0 8.6927 0 0)
(2.56053 2.0986 0 8.64412 0 0)
(2.19789 1.98862 0 8.54536 0 0)
(2.50439 2.07213 0 8.5159 0 0)
(2.11365 1.99029 0 8.44906 0 0)
(2.51478 2.1384 0 8.46611 0 0)
(2.10815 2.06596 0 8.4347 0 0)
(2.57511 2.21429 0 8.5524 0 0)
(2.13174 2.12214 0 8.49981 0 0)
(2.60512 2.26435 0 8.64913 0 0)
(2.08487 2.11834 0 8.50878 0 0)
(2.56299 2.21893 0 8.63979 0 0)
(1.97104 1.9886 0 8.53245 0 0)
(2.51823 2.03905 0 8.68401 0 0)
(1.86936 1.76804 0 8.61464 0 0)
(2.40095 1.78424 0 8.6961 0 0)
(1.64332 1.34987 0 8.4432 0 0)
(2.0873 1.22578 0 8.20311 0 0)
(1.3521 0.769037 0 7.82769 0 0)
(1.78773 0.676896 0 7.49528 0 0)
(1.15724 0.415306 0 7.28982 0 0)
(1.60577 0.4445 0 6.98031 0 0)
(1.01411 0.285125 0 6.82694 0 0)
(1.48592 0.374759 0 6.46183 0 0)
(0.868752 0.251759 0 6.27437 0 0)
(1.34659 0.384832 0 5.91009 0 0)
(0.698366 0.223665 0 5.65567 0 0)
(1.15485 0.380094 0 5.3333 0 0)
(0.535086 0.164966 0 5.09168 0 0)
(0.958132 0.335478 0 4.9241 0 0)
(0.402417 0.0922919 0 4.80079 0 0)
(0.777368 0.246329 0 4.75883 0 0)
(0.30664 -0.00118166 0 4.67424 0 0)
(0.641333 0.102995 0 4.64612 0 0)
(0.264713 -0.120677 0 4.51658 0 0)
(0.549042 -0.075604 0 4.41797 0 0)
(0.252253 -0.248748 0 4.23193 0 0)
(0.491794 -0.244269 0 4.02987 0 0)
(0.256982 -0.363968 0 3.77397 0 0)
(0.468351 -0.341762 0 3.50474 0 0)
(0.265691 -0.43906 0 3.226 0 0)
(0.455964 -0.408812 0 3.04079 0 0)
(0.278422 -0.477732 0 2.7836 0 0)
(0.449591 -0.475394 0 2.65184 0 0)
(0.293691 -0.487214 0 2.39015 0 0)
(0.451569 -0.51174 0 2.27344 0 0)
(0.307234 -0.479953 0 2.01215 0 0)
(0.457248 -0.508194 0 1.91919 0 0)
(0.321111 -0.474367 0 1.65274 0 0)
(0.459265 -0.477879 0 1.6013 0 0)
(0.332613 -0.468479 0 1.33078 0 0)
(0.453373 -0.438332 0 1.3274 0 0)
(0.339989 -0.458945 0 1.0748 0 0)
(0.434421 -0.397466 0 1.10994 0 0)
(0.343313 -0.443459 0 0.888799 0 0)
(0.399271 -0.360735 0 0.961651 0 0)
(0.341127 -0.41394 0 0.763723 0 0)
(0.35221 -0.336654 0 0.879752 0 0)
(0.337686 -0.370674 0 0.703603 0 0)
(0.305293 -0.332246 0 0.851628 0 0)
(0.35503 -0.328168 0 0.710492 0 0)
(0.269511 -0.333791 0 0.821521 0 0)
(0.406329 -0.286598 0 0.739367 0 0)
(0.25201 -0.326767 0 0.745145 0 0)
(0.473688 -0.238906 0 0.745959 0 0)
(0.253346 -0.321201 0 0.655473 0 0)
(0.517435 -0.211193 0 0.738812 0 0)
(0.256805 -0.326462 0 0.598137 0 0)
(0.492813 -0.228952 0 0.720689 0 0)
(0.278104 -0.311489 0 0.587052 0 0)
(0.388438 -0.275893 0 0.694227 0 0)
(0.401897 -0.224811 0 0.604365 0 0)
(0.268771 -0.292094 0 0.647293 0 0)
(0.620348 -0.14476 0 0.579431 0 0)
(0.227207 -0.280203 0 0.488805 0 0)
(0.541763 -0.251856 0 0.538908 0 0)
(0.293958 -0.229285 0 0.272771 0 0)
(0.163746 -0.262416 0 0.749909 0 0)
(0.38992 -0.183856 0 0.286169 0 0)
(0.10388 -0.153517 0 0.532967 0 0)
(0.140035 -0.147297 0 0.656162 0 0)
(0.335906 -0.252242 0 0.423105 0 0)
(0.206155 -0.0747201 0 0.535609 0 0)
(2.80712 -1.42384 0 1.2497 0 0)
(2.73211 -1.45647 0 1.62019 0 0)
(2.5658 -1.33328 0 1.72415 0 0)
(2.42196 -1.19135 0 1.78113 0 0)
(2.32355 -1.06084 0 1.78294 0 0)
(2.26428 -1.00048 0 1.76591 0 0)
(2.27225 -1.01829 0 1.78255 0 0)
(2.31119 -1.06604 0 1.8326 0 0)
(2.38994 -1.0958 0 1.87198 0 0)
(2.42213 -1.08881 0 1.87875 0 0)
(2.45374 -1.07266 0 1.87937 0 0)
(2.44071 -1.0487 0 1.89589 0 0)
(2.44903 -1.04838 0 1.93221 0 0)
(2.45514 -1.0454 0 1.97401 0 0)
(2.48737 -1.06457 0 2.025 0 0)
(2.56324 -1.08218 0 2.07355 0 0)
(2.65967 -1.14102 0 2.14277 0 0)
(2.85464 -1.22581 0 2.21422 0 0)
(3.01072 -1.31391 0 2.28262 0 0)
(3.27336 -1.42525 0 2.34094 0 0)
(3.45859 -1.50771 0 2.38819 0 0)
(3.74019 -1.61847 0 2.43241 0 0)
(3.97555 -1.70091 0 2.46348 0 0)
(4.30536 -1.82081 0 2.4939 0 0)
(4.58764 -1.91876 0 2.53262 0 0)
(4.96712 -2.07346 0 2.59362 0 0)
(5.28545 -2.20297 0 2.66503 0 0)
(5.66274 -2.39397 0 2.76917 0 0)
(5.98099 -2.55378 0 2.88451 0 0)
(6.29453 -2.75302 0 3.02785 0 0)
(6.61026 -2.91067 0 3.1573 0 0)
(6.86445 -3.08131 0 3.29231 0 0)
(7.22404 -3.23311 0 3.40334 0 0)
(7.45322 -3.36731 0 3.49899 0 0)
(7.80736 -3.49408 0 3.56246 0 0)
(8.01208 -3.59533 0 3.61135 0 0)
(8.27748 -3.68489 0 3.64549 0 0)
(8.44859 -3.7509 0 3.6612 0 0)
(8.58074 -3.78856 0 3.66067 0 0)
(8.71548 -3.82023 0 3.66609 0 0)
(8.73962 -3.81149 0 3.66788 0 0)
(8.88742 -3.82568 0 3.67833 0 0)
(8.91538 -3.8121 0 3.68702 0 0)
(9.12442 -3.84343 0 3.73296 0 0)
(9.23854 -3.8669 0 3.78117 0 0)
(9.50613 -3.93204 0 3.87654 0 0)
(9.74122 -4.01089 0 3.98717 0 0)
(10.0264 -4.10339 0 4.14895 0 0)
(10.351 -4.2033 0 4.32187 0 0)
(10.5788 -4.27286 0 4.5286 0 0)
(10.9286 -4.33093 0 4.72366 0 0)
(11.0307 -4.31224 0 4.91395 0 0)
(11.3179 -4.26888 0 5.07438 0 0)
(11.2805 -4.13656 0 5.1946 0 0)
(11.4336 -3.96231 0 5.29094 0 0)
(11.2887 -3.73721 0 5.32924 0 0)
(11.3154 -3.45631 0 5.38316 0 0)
(11.1533 -3.22796 0 5.42254 0 0)
(11.109 -2.88808 0 5.48708 0 0)
(10.9576 -2.71221 0 5.61145 0 0)
(10.9221 -2.39926 0 5.71821 0 0)
(10.7361 -2.20364 0 5.86617 0 0)
(10.6969 -1.96145 0 5.95468 0 0)
(10.4687 -1.66323 0 6.03043 0 0)
(10.3671 -1.47649 0 6.09614 0 0)
(10.1311 -1.11428 0 6.09956 0 0)
(9.94935 -0.911244 0 6.15953 0 0)
(9.74195 -0.60329 0 6.16618 0 0)
(9.53795 -0.340952 0 6.20694 0 0)
(9.36689 -0.100271 0 6.26874 0 0)
(9.17798 0.143674 0 6.26995 0 0)
(9.08881 0.394769 0 6.38374 0 0)
(8.88685 0.536034 0 6.40643 0 0)
(8.8816 0.796863 0 6.53074 0 0)
(8.64388 0.919692 0 6.62307 0 0)
(8.71485 1.10317 0 6.70745 0 0)
(8.45482 1.29477 0 6.8048 0 0)
(8.58852 1.42224 0 6.82128 0 0)
(8.32137 1.67089 0 6.87261 0 0)
(8.41948 1.76158 0 7.04198 0 0)
(8.17461 1.9721 0 7.12827 0 0)
(8.26918 2.03102 0 7.20731 0 0)
(8.09718 2.28668 0 7.30003 0 0)
(8.185 2.38745 0 7.25509 0 0)
(8.05063 2.66891 0 7.18552 0 0)
(8.14551 2.88127 0 7.25998 0 0)
(7.95885 3.06792 0 7.23829 0 0)
(8.10148 3.40163 0 7.22477 0 0)
(7.89072 3.59997 0 7.21333 0 0)
(7.94019 3.89384 0 7.41893 0 0)
(7.73721 4.05266 0 7.52628 0 0)
(7.712 4.24561 0 7.54471 0 0)
(7.48696 4.38921 0 7.6194 0 0)
(7.44254 4.56143 0 7.77574 0 0)
(7.10367 4.56093 0 7.88639 0 0)
(6.96297 4.59218 0 8.03664 0 0)
(6.5346 4.54885 0 8.15489 0 0)
(6.36124 4.47611 0 8.25825 0 0)
(5.87666 4.29779 0 8.27638 0 0)
(5.71722 4.19926 0 8.36533 0 0)
(5.283 3.99688 0 8.35946 0 0)
(5.1661 3.80877 0 8.36855 0 0)
(4.76865 3.63799 0 8.44525 0 0)
(4.66797 3.40019 0 8.37969 0 0)
(4.25883 3.20269 0 8.37574 0 0)
(4.17068 2.9656 0 8.28589 0 0)
(3.74186 2.75821 0 8.30732 0 0)
(3.67497 2.51195 0 8.19976 0 0)
(3.23907 2.33979 0 8.2964 0 0)
(3.23659 2.20558 0 8.28509 0 0)
(2.81634 2.04126 0 8.38302 0 0)
(2.89658 2.05987 0 8.47569 0 0)
(2.50746 1.95266 0 8.51364 0 0)
(2.61854 1.99108 0 8.57092 0 0)
(2.26221 1.96214 0 8.62884 0 0)
(2.41312 2.03547 0 8.6199 0 0)
(2.09317 1.99294 0 8.71879 0 0)
(2.2952 2.08587 0 8.64084 0 0)
(1.9857 2.00576 0 8.66539 0 0)
(2.21667 2.09432 0 8.50777 0 0)
(1.91327 1.99916 0 8.50565 0 0)
(2.16452 2.09867 0 8.36319 0 0)
(1.87539 2.02485 0 8.45027 0 0)
(2.18713 2.13868 0 8.35739 0 0)
(1.88562 2.07082 0 8.50515 0 0)
(2.27373 2.21972 0 8.37538 0 0)
(1.91777 2.15234 0 8.55588 0 0)
(2.35886 2.28125 0 8.36878 0 0)
(1.9077 2.14389 0 8.56807 0 0)
(2.40341 2.18652 0 8.42552 0 0)
(1.84695 1.92979 0 8.55116 0 0)
(2.45544 2.05704 0 8.45661 0 0)
(1.76621 1.76547 0 8.64706 0 0)
(2.41133 1.85091 0 8.47437 0 0)
(1.5276 1.37316 0 8.36501 0 0)
(2.08848 1.31656 0 7.94125 0 0)
(1.23236 0.788406 0 7.58837 0 0)
(1.7083 0.806906 0 7.2561 0 0)
(1.08885 0.430558 0 6.95806 0 0)
(1.46477 0.539406 0 6.72853 0 0)
(1.04707 0.28528 0 6.40393 0 0)
(1.27151 0.465135 0 6.17682 0 0)
(1.0287 0.251118 0 5.84834 0 0)
(1.06624 0.472765 0 5.62172 0 0)
(0.979111 0.192489 0 5.32181 0 0)
(0.863468 0.427288 0 5.12943 0 0)
(0.89858 0.0741969 0 4.94336 0 0)
(0.690888 0.33367 0 4.8476 0 0)
(0.814719 -0.060562 0 4.78339 0 0)
(0.560847 0.200738 0 4.74099 0 0)
(0.752483 -0.219489 0 4.69569 0 0)
(0.47195 0.0300023 0 4.61511 0 0)
(0.709316 -0.366914 0 4.49874 0 0)
(0.414351 -0.147689 0 4.31069 0 0)
(0.672672 -0.472379 0 4.10835 0 0)
(0.38836 -0.296575 0 3.77632 0 0)
(0.646328 -0.524747 0 3.56262 0 0)
(0.387187 -0.374604 0 3.22634 0 0)
(0.634978 -0.557269 0 3.07273 0 0)
(0.405325 -0.437625 0 2.81667 0 0)
(0.631097 -0.564275 0 2.66859 0 0)
(0.444527 -0.503825 0 2.43221 0 0)
(0.62567 -0.537081 0 2.26672 0 0)
(0.501597 -0.554081 0 2.04254 0 0)
(0.62172 -0.500631 0 1.88457 0 0)
(0.567377 -0.572381 0 1.69708 0 0)
(0.622898 -0.47073 0 1.53127 0 0)
(0.633968 -0.565923 0 1.4026 0 0)
(0.626371 -0.448384 0 1.22813 0 0)
(0.696265 -0.546054 0 1.15347 0 0)
(0.631418 -0.438579 0 1.00368 0 0)
(0.746555 -0.508169 0 0.954248 0 0)
(0.646276 -0.457538 0 0.864256 0 0)
(0.771303 -0.4525 0 0.810734 0 0)
(0.668871 -0.511586 0 0.796674 0 0)
(0.76502 -0.404446 0 0.734343 0 0)
(0.681578 -0.578882 0 0.782057 0 0)
(0.721986 -0.382276 0 0.714271 0 0)
(0.672948 -0.613817 0 0.778842 0 0)
(0.630776 -0.378318 0 0.696908 0 0)
(0.670607 -0.594039 0 0.759346 0 0)
(0.495563 -0.373007 0 0.652822 0 0)
(0.717624 -0.537814 0 0.756767 0 0)
(0.365469 -0.35596 0 0.600782 0 0)
(0.795001 -0.468019 0 0.776658 0 0)
(0.306945 -0.326476 0 0.53372 0 0)
(0.801916 -0.425104 0 0.776079 0 0)
(0.328557 -0.309224 0 0.436642 0 0)
(0.628301 -0.421607 0 0.735269 0 0)
(0.404296 -0.288928 0 0.354152 0 0)
(0.341185 -0.373651 0 0.725141 0 0)
(0.600008 -0.213027 0 0.340778 0 0)
(0.211322 -0.258624 0 0.645109 0 0)
(0.663445 -0.264327 0 0.380123 0 0)
(0.373228 -0.256363 0 0.286908 0 0)
(0.235825 -0.282185 0 0.65244 0 0)
(0.844776 -0.357576 0 0.298599 0 0)