/*--------------------------------*- C++ -*----------------------------------*\
| =========                 |                                                 |
| \\      /  F ield         | OpenFOAM: The Open Source CFD Toolbox           |
|  \\    /   O peration     | Version:  2.4.0                                 |
|   \\  /    A nd           | Web:      www.OpenFOAM.org                      |
|    \\/     M anipulation  |                                                 |
\*---------------------------------------------------------------------------*/
FoamFile
{
    version     2.0;
    format      ascii;
    class       volScalarField;
    location    "0.65";
    object      k_0;
}
// * * * * * * * * * * * * * * * * * * * * * * * * * * * * * * * * * * * * * //

dimensions      [0 2 -2 0 0 0 0];

internalField   nonuniform List<scalar> 
8800
(
8.11673
10.2679
8.79836
6.80089
5.73419
4.94697
4.53533
4.13916
3.93213
3.6363
3.55573
3.36399
3.31057
3.14732
3.12164
2.98495
2.95392
2.78472
2.79537
2.57119
1.40562
4.35237
5.32537
5.27957
5.13165
4.79293
4.58664
4.28585
4.13319
3.85774
3.77903
3.58162
3.51897
3.37235
3.33621
3.21216
3.18951
3.06
3.05132
2.96938
0.0846373
0.720133
1.58711
1.92985
2.26459
2.43831
2.58807
2.58952
2.62783
2.60675
2.58943
2.52218
2.51812
2.47579
2.45848
2.40695
2.40948
2.35699
2.36076
2.29531
0.00337442
0.068954
0.274032
0.423753
0.555487
0.703303
0.855817
0.908566
1.02289
1.12085
1.16686
1.191
1.25949
1.30256
1.32691
1.35468
1.4174
1.42043
1.46647
1.44297
0.000125138
0.00492662
0.0279464
0.060982
0.0789264
0.11531
0.174157
0.196217
0.235203
0.305538
0.327392
0.35281
0.382398
0.42914
0.448884
0.494169
0.522965
0.581661
0.595279
0.646291
2.50671e-05
0.000308409
0.00204092
0.00600272
0.00739475
0.0104339
0.0196121
0.0241875
0.0308852
0.0503851
0.056697
0.0657953
0.0717752
0.0843834
0.0906198
0.10863
0.117769
0.149216
0.152672
0.185094
2.12553e-05
4.27031e-05
0.000191878
0.000544573
0.000613677
0.000746196
0.00135629
0.0017217
0.00241613
0.00495024
0.00596401
0.00734403
0.00836076
0.00928187
0.0104518
0.0127425
0.0157164
0.0239334
0.0273949
0.0344048
2.10765e-05
2.93291e-05
5.39619e-05
0.000106256
0.000130281
0.000131844
0.000152975
0.000155185
0.000177157
0.000362923
0.00054008
0.000684298
0.000721348
0.000706102
0.000735819
0.000836001
0.00106535
0.00212333
0.00225759
0.00233887
2.12976e-05
3.07011e-05
3.93188e-05
6.1937e-05
7.00774e-05
9.23489e-05
9.438e-05
8.83528e-05
8.68427e-05
9.42931e-05
0.000154299
0.000178429
0.000176834
0.00016011
0.000155373
0.000191848
0.000224998
0.000419714
0.000439567
0.000534239
2.05205e-05
2.69483e-05
5.1578e-05
6.05068e-05
5.70395e-05
5.8212e-05
7.88073e-05
8.77476e-05
8.30471e-05
7.64725e-05
7.70368e-05
0.000100476
0.000110172
0.000107737
0.000109608
0.000113067
0.000123259
0.000197304
0.000206625
0.000286298
2.07613e-05
3.25487e-05
4.8156e-05
5.47831e-05
5.44012e-05
5.95662e-05
7.81372e-05
8.33229e-05
8.0537e-05
7.66127e-05
8.08917e-05
9.30414e-05
0.000102161
0.000102398
0.000100828
9.73445e-05
0.000102291
0.000111324
0.000129253
0.000189213
2.0788e-05
2.9911e-05
4.20712e-05
4.97632e-05
5.74796e-05
8.05246e-05
8.77264e-05
8.6768e-05
8.42971e-05
8.68022e-05
0.000106346
0.000113195
0.000111431
0.000105618
0.000118829
0.000126168
0.000223537
0.000222015
0.000301504
0.000396515
2.1047e-05
2.96011e-05
5.9467e-05
6.7226e-05
8.46795e-05
0.000125994
0.000144574
0.000209774
0.000277963
0.000315451
0.000416414
0.000438037
0.000460734
0.000481462
0.000860991
0.00107677
0.00212745
0.00204459
0.00235979
0.00348375
2.16864e-05
4.54358e-05
0.000140639
0.000226196
0.000487029
0.000996666
0.00132346
0.00246543
0.00324357
0.00414292
0.00498947
0.005917
0.00670515
0.00784217
0.0125365
0.0148928
0.0213173
0.0219111
0.0240639
0.0331004
2.49451e-05
0.000315218
0.00172667
0.00319472
0.00749673
0.0141799
0.0180077
0.0291164
0.0355483
0.0448242
0.0509114
0.0627596
0.0692558
0.0805413
0.100729
0.114567
0.135056
0.143463
0.156589
0.197636
0.0001221
0.00499083
0.0254817
0.0439342
0.0901321
0.132969
0.1569
0.214867
0.248701
0.281916
0.311902
0.359105
0.381421
0.426495
0.466338
0.515754
0.54575
0.585632
0.617368
0.700213
0.00336473
0.0704328
0.259056
0.392217
0.60718
0.712821
0.815734
0.952323
1.03208
1.07621
1.15339
1.21755
1.25573
1.30774
1.3488
1.39115
1.41136
1.44406
1.48219
1.53007
0.084854
0.736772
1.55774
1.92495
2.30806
2.42374
2.57558
2.60783
2.62296
2.59093
2.58403
2.54542
2.52741
2.47767
2.46375
2.42407
2.40994
2.37409
2.36949
2.33978
1.4116
4.34866
5.31463
5.28897
5.13466
4.79713
4.60065
4.2585
4.12675
3.87863
3.77292
3.5784
3.5185
3.37367
3.32039
3.20186
3.15972
3.0415
3.00081
2.88859
8.12943
10.261
8.78741
6.83231
5.69955
4.96376
4.54738
4.11468
3.92531
3.65388
3.55012
3.34727
3.29231
3.1431
3.08855
2.93694
2.87872
2.70962
2.64104
2.4156
1.76508
1.27479
1.0251
0.882989
0.816186
0.770865
0.74705
0.719074
0.70062
0.66469
0.644611
0.603408
0.588064
0.551015
0.540469
0.512185
0.507179
0.4868
0.488065
0.47562
0.482894
0.471989
0.484593
0.47444
0.491252
0.481484
0.502201
0.49216
0.516705
0.504515
0.531735
0.512351
0.5348
0.494803
0.494066
0.407857
0.374026
0.27205
0.277231
0.260836
0.289035
0.279012
0.306093
0.292451
0.313172
0.295654
0.316156
0.301882
0.327812
0.319899
0.345524
0.336342
0.351533
0.337318
0.346697
0.330004
0.343239
0.330285
0.348382
0.345695
0.371296
0.379774
0.4065
0.397856
0.36088
0.249156
0.213384
0.183832
0.179909
0.17023
0.172181
0.166798
0.170173
0.167113
0.171862
0.169264
0.180623
0.17815
0.189449
0.186783
0.194517
0.190077
0.192185
0.183364
0.178021
0.158552
0.144213
0.11631
0.104085
0.094321
0.090085
0.0887404
0.0868053
0.0868071
0.085679
0.0852187
0.0819905
0.0783845
0.0658335
0.0592247
0.0543631
0.0521613
0.0512735
0.0495418
0.0474973
0.0419854
0.0399643
0.0351822
0.033252
0.0299483
0.0294099
0.0278509
0.0270822
0.0262363
0.0260779
0.026146
0.0273172
0.0310981
0.0376526
0.0442444
0.046305
0.0458979
0.0450153
0.0465755
0.0712509
0.102282
0.113963
0.12967
0.138605
0.142628
0.139997
0.128715
0.137617
0.263654
0.362604
0.37038
0.249097
0.123929
0.0688194
0.0438274
0.0387758
0.0372064
0.038233
0.0497401
0.0518928
0.0590971
0.0639113
0.0651372
0.0666562
0.0766013
0.0844298
0.0822836
0.0745232
0.0722385
0.0706384
0.0719831
0.0810914
0.088096
0.097163
0.0947415
0.0946702
0.0890524
0.08656
0.0781307
0.0766981
0.0737272
0.0752134
0.0749967
0.0779052
0.0803686
0.0864519
0.0956057
0.110169
0.133652
0.159236
0.188139
0.232511
0.442356
0.561507
0.551902
0.387868
0.204757
0.134184
0.075658
0.0659853
0.0594631
0.0572857
0.0615068
0.0611018
0.0630463
0.0621725
0.0623961
0.0619673
0.060327
0.0604028
0.0620861
0.0678902
0.0725714
0.087037
0.108617
2.49218
2.02809
1.71358
1.46491
1.31698
1.1704
1.10411
1.00452
0.973014
0.901071
0.879019
0.824481
0.811289
0.768257
0.759859
0.722141
0.718837
0.684775
0.685499
0.655038
0.660358
0.62991
0.640042
0.60924
0.622773
0.591452
0.608721
0.577386
0.59932
0.569258
0.59908
0.572386
0.614738
0.58934
0.635354
0.594061
0.616324
0.547094
0.534127
0.442166
0.425234
0.357214
0.354727
0.326934
0.332946
0.318871
0.332611
0.329773
0.345088
0.344049
0.349478
0.344358
0.344471
0.337717
0.329065
0.303611
0.283354
0.246434
0.224775
0.214313
0.216852
0.227738
0.278314
0.335974
0.373224
0.364659
0.343693
0.250027
0.225633
0.187336
0.187185
0.178888
0.185802
0.180542
0.191848
0.185206
0.19632
0.190593
0.196457
0.190447
0.191809
0.183875
0.17859
0.159008
0.146227
0.121242
0.112039
0.099377
0.0959099
0.0894227
0.0883169
0.0856833
0.0855484
0.0844821
0.0821867
0.078808
0.0699282
0.0616328
0.054517
0.0534988
0.0518667
0.0519465
0.0506436
0.0498616
0.0486519
0.0459335
0.0411938
0.0363551
0.0350052
0.033478
0.0335098
0.0324315
0.0319018
0.0303635
0.0294674
0.0292812
0.0316758
0.038122
0.0416429
0.0473324
0.0473196
0.0446036
0.0425607
0.0460387
0.0678343
0.0869231
0.104912
0.129809
0.149352
0.161519
0.151984
0.148554
0.162454
0.291056
0.352393
0.341402
0.214041
0.106113
0.065458
0.0442938
0.0406216
0.048043
0.0487874
0.0554991
0.0566812
0.0596918
0.0681935
0.0696347
0.0767991
0.0826766
0.0846674
0.0801539
0.0720339
0.0726404
0.0716525
0.0774318
0.0777026
0.0821293
0.0808966
0.0796123
0.0784388
0.0757875
0.0745973
0.071765
0.0722919
0.0716535
0.0736095
0.0737793
0.0779828
0.0803688
0.089195
0.094877
0.114321
0.128102
0.159694
0.180592
0.210136
0.292784
0.501186
0.521545
0.479741
0.254564
0.167578
0.0936742
0.0707117
0.0677032
0.0644343
0.0662575
0.0643227
0.0648252
0.0641577
0.0631141
0.0627309
0.0628505
0.0647044
0.0669836
0.0710974
0.0734831
0.0829219
0.0913776
2.04266
1.77428
1.60977
1.40325
1.32368
1.17259
1.12497
1.01953
0.988614
0.909322
0.887319
0.824554
0.810998
0.761297
0.753668
0.712861
0.711216
0.67765
0.680031
0.648111
0.652607
0.619535
0.625751
0.591994
0.599198
0.566675
0.574725
0.54489
0.554359
0.52865
0.540724
0.52161
0.538191
0.526325
0.548191
0.542984
0.565957
0.554575
0.561441
0.543599
0.536625
0.507386
0.491945
0.46096
0.43915
0.429456
0.411319
0.406388
0.387629
0.380312
0.354441
0.344226
0.314912
0.296406
0.252009
0.218561
0.167641
0.150934
0.143535
0.135536
0.122851
0.121612
0.125419
0.13953
0.198271
0.262635
0.309733
0.293275
0.291095
0.248057
0.231779
0.191876
0.191291
0.181185
0.184235
0.178684
0.179772
0.175866
0.174289
0.165806
0.158283
0.141388
0.130264
0.118016
0.112419
0.10501
0.101946
0.0958946
0.093692
0.0886479
0.0876366
0.083973
0.0826514
0.0777988
0.0728796
0.0611788
0.054418
0.0520367
0.0512078
0.0517773
0.0516165
0.0520679
0.0512821
0.0510399
0.0488884
0.0475675
0.0436323
0.0416943
0.0382648
0.0379775
0.0374598
0.0383244
0.0376275
0.0375563
0.0356277
0.0344279
0.0343343
0.0387133
0.0467899
0.0480642
0.0464558
0.0422205
0.04056
0.0410882
0.0470501
0.0742352
0.1175
0.133402
0.161029
0.179087
0.186621
0.186316
0.224846
0.313549
0.342677
0.296171
0.194522
0.0988952
0.0614329
0.0534764
0.0508646
0.0552005
0.0560607
0.0572546
0.0598146
0.0618437
0.0712083
0.0746385
0.084486
0.0849185
0.0848758
0.0783372
0.0736657
0.0755534
0.0749943
0.0800644
0.0775607
0.0797276
0.0746719
0.0743291
0.0716471
0.0714758
0.0696907
0.0699669
0.0709722
0.0712688
0.0730158
0.07463
0.0803563
0.0844971
0.099156
0.106467
0.125968
0.133905
0.157981
0.171233
0.201871
0.235755
0.407404
0.476001
0.475543
0.352597
0.203406
0.129568
0.0825612
0.0753148
0.0682994
0.0688825
0.067444
0.0659077
0.0653965
0.0646061
0.0647286
0.0643369
0.0653935
0.0656536
0.0669237
0.0684011
0.076399
0.0838306
1.33256
1.19836
1.12514
1.00582
0.964904
0.877324
0.847294
0.778287
0.755949
0.702618
0.686474
0.644293
0.631792
0.595979
0.58486
0.553808
0.545457
0.520892
0.515033
0.496546
0.491921
0.47468
0.469227
0.450501
0.443154
0.422736
0.414353
0.3952
0.386905
0.374438
0.364662
0.363013
0.3562
0.360871
0.360886
0.372769
0.376494
0.401197
0.406794
0.431625
0.43036
0.43706
0.425563
0.423729
0.404406
0.399136
0.37255
0.364151
0.331122
0.316523
0.275797
0.255636
0.206094
0.183515
0.134005
0.115657
0.0855482
0.0771479
0.0617037
0.056299
0.0499295
0.0501383
0.0519177
0.0563839
0.0657736
0.0848784
0.141788
0.206507
0.249142
0.241125
0.240305
0.219473
0.208796
0.183727
0.17634
0.164826
0.157511
0.148254
0.142673
0.13447
0.126143
0.119647
0.114155
0.110309
0.107942
0.103483
0.100714
0.0951018
0.0927831
0.0870112
0.0837287
0.074328
0.0690716
0.0568379
0.0522403
0.0489244
0.0494529
0.0499843
0.0515746
0.0528124
0.0552491
0.0565917
0.0566136
0.0559437
0.0528898
0.0503632
0.0455646
0.0444601
0.0420445
0.0418312
0.0408407
0.041541
0.0408103
0.0417128
0.0409474
0.0418415
0.0418836
0.0435688
0.0465538
0.0570167
0.0589907
0.0563027
0.0495762
0.046761
0.0560552
0.099093
0.148557
0.149525
0.14821
0.162767
0.201233
0.228512
0.278817
0.318804
0.324017
0.266734
0.161648
0.0991866
0.0659195
0.0666052
0.0568338
0.0559728
0.0591318
0.0605795
0.0662442
0.0685315
0.0771894
0.0806145
0.0828518
0.0823144
0.0800003
0.0774245
0.0759154
0.0781009
0.0784904
0.0807738
0.0771213
0.0760782
0.0703064
0.0697294
0.0670947
0.0680504
0.0672859
0.0688934
0.0690905
0.0703856
0.0725727
0.0766062
0.0853734
0.094968
0.116472
0.126516
0.150355
0.158752
0.176249
0.181336
0.197767
0.212633
0.287656
0.420516
0.445544
0.412398
0.281503
0.189493
0.109
0.0877727
0.0748317
0.0720736
0.0701995
0.0678005
0.0671323
0.0656297
0.0651374
0.0640617
0.0642472
0.0642901
0.0652888
0.0675844
0.0761492
0.0826045
0.613193
0.583195
0.52239
0.503404
0.464146
0.450401
0.418956
0.407105
0.380117
0.370356
0.3484
0.341418
0.324881
0.320181
0.305073
0.301312
0.28593
0.283189
0.268372
0.267415
0.255592
0.255786
0.245296
0.245207
0.233515
0.231629
0.217515
0.214455
0.199072
0.196499
0.183752
0.184696
0.178184
0.183835
0.180699
0.190513
0.190409
0.204091
0.205567
0.221726
0.22292
0.235827
0.23163
0.237145
0.22688
0.224714
0.207295
0.199262
0.173675
0.160789
0.129794
0.11534
0.085689
0.0740256
0.0535775
0.0449681
0.0322892
0.0284968
0.0226739
0.0213726
0.0202623
0.0208672
0.0214804
0.0236261
0.0257683
0.031399
0.040016
0.0620259
0.0974341
0.161433
0.190492
0.197694
0.19511
0.187836
0.175975
0.166675
0.156009
0.147492
0.140647
0.132884
0.126871
0.122367
0.118377
0.113939
0.109946
0.104135
0.100031
0.0923767
0.0858434
0.0740234
0.0611584
0.049246
0.0453846
0.0444654
0.0457853
0.0470035
0.0513182
0.0537617
0.0602703
0.0629844
0.0686177
0.0687274
0.069022
0.0679331
0.0641251
0.0590831
0.0556638
0.0533121
0.0509388
0.0481635
0.046878
0.0458572
0.0427998
0.0413322
0.0413455
0.0423239
0.045211
0.0469812
0.0467794
0.0535731
0.0706912
0.0701906
0.0574236
0.0569121
0.0708526
0.106087
0.153595
0.1827
0.189
0.200362
0.206268
0.241189
0.279462
0.309459
0.310596
0.241502
0.148161
0.119766
0.0761328
0.0659928
0.0609435
0.0591883
0.0645731
0.0671019
0.0736902
0.075552
0.0773619
0.0786281
0.0772241
0.0762406
0.0747998
0.0750616
0.0755591
0.0785136
0.0813184
0.0819411
0.0781655
0.0734257
0.0674624
0.0664283
0.0652942
0.0662989
0.0663698
0.0678303
0.0683949
0.0708408
0.0752247
0.0868735
0.102754
0.134738
0.160136
0.181304
0.197018
0.203097
0.202598
0.199939
0.202674
0.207718
0.225502
0.316747
0.391698
0.395472
0.34358
0.254294
0.164128
0.116459
0.0893616
0.0790468
0.0748172
0.0713233
0.0694688
0.0673382
0.0664465
0.0657692
0.0660706
0.0668045
0.0691472
0.0709959
0.0768048
0.0809059
0.176321
0.171174
0.156614
0.153643
0.142485
0.140895
0.132025
0.130307
0.122174
0.120237
0.113192
0.111527
0.106023
0.105373
0.100876
0.101035
0.0965394
0.097168
0.0922222
0.0940053
0.0891329
0.0912756
0.0865926
0.0883977
0.083596
0.0843716
0.0795295
0.0794294
0.0746684
0.0739909
0.0689447
0.0690686
0.0662219
0.0682877
0.0669862
0.0708753
0.0708013
0.0770435
0.0780039
0.085357
0.0864928
0.0925565
0.0910301
0.0928449
0.0893191
0.0879431
0.08074
0.0769069
0.0663501
0.0610127
0.0493614
0.0443501
0.0337365
0.0292957
0.0216342
0.0179708
0.0134841
0.0118885
0.00977575
0.00940396
0.00915365
0.00953902
0.00973293
0.0110074
0.0115215
0.0137041
0.0156037
0.0225771
0.0298995
0.0560799
0.0730803
0.113594
0.132349
0.156506
0.156042
0.156776
0.152161
0.150173
0.143895
0.140776
0.133086
0.128788
0.119809
0.114805
0.104349
0.0979567
0.0854062
0.0727961
0.054325
0.0432046
0.038907
0.0390972
0.0408779
0.0435341
0.0521825
0.0575356
0.0717028
0.0768417
0.0890536
0.0905752
0.0937148
0.0928017
0.0897912
0.0871874
0.0799434
0.0767135
0.0692296
0.0676694
0.0644326
0.0631141
0.0595742
0.055175
0.0507852
0.048481
0.0488553
0.0479367
0.0489561
0.0508328
0.0575974
0.060834
0.0825665
0.102516
0.117843
0.107513
0.119261
0.14116
0.228397
0.262843
0.307591
0.289542
0.265073
0.278901
0.303285
0.308459
0.306231
0.250798
0.152209
0.118839
0.0830433
0.0672095
0.0707366
0.0699039
0.0743336
0.0757509
0.0772355
0.0777269
0.0774884
0.0777642
0.0770134
0.0759534
0.0747534
0.0746913
0.0764493
0.0807171
0.0826818
0.0822134
0.0771882
0.0716643
0.0677037
0.0665381
0.0663639
0.0668383
0.0669821
0.0678717
0.0702222
0.0767467
0.0914376
0.125714
0.168807
0.220773
0.254288
0.276787
0.275912
0.271201
0.257235
0.2399
0.216615
0.212286
0.212081
0.232938
0.305708
0.362582
0.345523
0.302324
0.22126
0.164292
0.124703
0.100165
0.0863619
0.0793474
0.0750961
0.0720126
0.0713531
0.0701867
0.0697561
0.0695961
0.0704434
0.0710383
0.073858
0.0760136
0.0324529
0.0316101
0.0293315
0.0291465
0.027547
0.0276305
0.0262764
0.0263383
0.0251453
0.0249158
0.0236594
0.0231513
0.0218795
0.0215812
0.0207919
0.0208581
0.0203832
0.0208349
0.0202867
0.0210872
0.0204621
0.0214601
0.0207933
0.0217929
0.0210928
0.0218083
0.0209894
0.021319
0.0204331
0.0204706
0.019676
0.0198537
0.019198
0.0198803
0.0195928
0.0208432
0.0207509
0.0228449
0.0232385
0.0260124
0.0266901
0.0295686
0.0295261
0.0302149
0.0295379
0.0289799
0.0268216
0.0254339
0.0221362
0.020346
0.0168837
0.015386
0.0122887
0.0107447
0.00802181
0.00711547
0.00562235
0.00528353
0.00475887
0.0048669
0.00483455
0.005286
0.00537532
0.00626333
0.00649532
0.007717
0.00849352
0.010946
0.0133918
0.0216621
0.0283002
0.0460462
0.0556403
0.0794941
0.088596
0.105326
0.110626
0.113075
0.112454
0.109746
0.106639
0.0986513
0.0941453
0.0829593
0.0760503
0.0614761
0.0470806
0.0366797
0.0332156
0.033423
0.0357065
0.0401649
0.0537467
0.0651826
0.0929798
0.105629
0.131559
0.138718
0.146452
0.14509
0.14121
0.137078
0.124367
0.117627
0.102335
0.0992425
0.089213
0.0862355
0.0747159
0.0719925
0.063211
0.0610644
0.055825
0.0530546
0.0524673
0.0520391
0.0527636
0.0532316
0.0603745
0.0631277
0.0791687
0.0919924
0.13982
0.146327
0.178173
0.18159
0.241049
0.268949
0.384055
0.363339
0.447598
0.353478
0.40245
0.330792
0.327465
0.26427
0.157703
0.112709
0.0948513
0.077593
0.0792892
0.0779278
0.078168
0.0784372
0.079298
0.0809888
0.0813777
0.0818554
0.0806153
0.0786346
0.078044
0.077986
0.0799026
0.0822004
0.0828043
0.0814103
0.0761777
0.0726178
0.0718681
0.070452
0.0695897
0.0696165
0.0701877
0.0727747
0.0811866
0.103915
0.154845
0.237166
0.304858
0.336246
0.335914
0.328899
0.312064
0.302003
0.283937
0.274504
0.249718
0.226868
0.205568
0.208321
0.22674
0.295875
0.321275
0.304825
0.263074
0.20913
0.163412
0.132675
0.111098
0.0985194
0.0895659
0.0838071
0.0803767
0.0774618
0.0757672
0.0746324
0.0749309
0.0755359
0.0777356
0.0802111
0.00230052
0.00237218
0.00241609
0.00261339
0.00257587
0.0027367
0.00261505
0.00276336
0.00259277
0.00263799
0.00246915
0.00240127
0.00217298
0.00210235
0.00197946
0.00198994
0.00198254
0.0020615
0.00209283
0.00229802
0.00232861
0.00256912
0.00256677
0.00290157
0.00297559
0.00341881
0.00341129
0.00365398
0.0035687
0.00372761
0.00360997
0.00377597
0.00365463
0.00391847
0.00384277
0.00421822
0.00416927
0.00472821
0.00480042
0.00559655
0.00591041
0.00697499
0.00731005
0.00778094
0.00775677
0.00759858
0.00711265
0.00668217
0.0059761
0.00556952
0.00485642
0.00451751
0.00377346
0.00353033
0.00288801
0.00287957
0.00270322
0.00300923
0.00296131
0.00356944
0.00354145
0.00437238
0.00437443
0.00536575
0.00552149
0.00668075
0.0069759
0.00798327
0.00866139
0.0101612
0.0135609
0.0172951
0.0259252
0.0313146
0.0438103
0.0483306
0.0579151
0.0608615
0.0653624
0.0637316
0.0634162
0.058977
0.0559169
0.0469011
0.0394027
0.030434
0.0277308
0.0278082
0.0297982
0.034569
0.0520782
0.0697577
0.111923
0.143029
0.192005
0.218443
0.239794
0.239856
0.236315
0.227192
0.206027
0.19343
0.167456
0.157552
0.133751
0.124384
0.101371
0.091696
0.073321
0.0657606
0.0572529
0.052759
0.0503263
0.0488214
0.0488651
0.0489443
0.049473
0.0503419
0.0540348
0.0578156
0.0686816
0.0789727
0.11482
0.130436
0.157388
0.164481
0.185381
0.212167
0.302316
0.327095
0.450185
0.379593
0.457919
0.391651
0.333245
0.248939
0.186941
0.120258
0.105598
0.0870764
0.0840897
0.0813892
0.0810275
0.082114
0.0846713
0.0888128
0.0903206
0.0902697
0.0865512
0.0830977
0.0821531
0.0825964
0.0846972
0.085359
0.0849661
0.0819903
0.0802146
0.0776133
0.0746705
0.071895
0.0706277
0.0708685
0.0735768
0.0848329
0.118858
0.199125
0.319582
0.38388
0.388959
0.378439
0.360068
0.333689
0.31528
0.303017
0.284641
0.273239
0.262261
0.242508
0.2098
0.196716
0.198655
0.215468
0.265956
0.281888
0.267394
0.236872
0.194446
0.167336
0.138406
0.124828
0.111094
0.103077
0.0968959
0.0920929
0.0883069
0.0874157
0.087736
0.0888284
0.0924555
0.0964033
0.000514908
0.000508726
0.000493078
0.00049691
0.000472873
0.000474677
0.000441191
0.000438667
0.000400189
0.000390395
0.000351687
0.000332639
0.000294468
0.00027855
0.000266698
0.00026489
0.000264534
0.000267009
0.000269849
0.000279566
0.000281635
0.000300005
0.000301963
0.0003395
0.000345373
0.000416022
0.000417396
0.000489274
0.000479838
0.000549661
0.000533273
0.000601247
0.00058118
0.000660628
0.000642955
0.000736477
0.000727749
0.000867556
0.00090991
0.0011406
0.00123328
0.00151304
0.00162754
0.00174448
0.00173976
0.00170554
0.00159338
0.00152109
0.0014063
0.001352
0.00123512
0.00120972
0.00111847
0.00119089
0.00118047
0.00139854
0.00144749
0.00196231
0.00200832
0.00267343
0.00269267
0.00349026
0.00355564
0.00458774
0.00475121
0.00582578
0.00599814
0.00681581
0.00685286
0.00727726
0.00859626
0.0104963
0.0154947
0.0184814
0.0257372
0.0286825
0.0354054
0.0373861
0.0405693
0.0394346
0.0385039
0.0341329
0.0306
0.0242199
0.0225079
0.0225525
0.0241152
0.0277178
0.0430485
0.0635347
0.122307
0.163373
0.256257
0.30675
0.369245
0.381291
0.38284
0.372096
0.357054
0.319459
0.28965
0.258602
0.228001
0.193589
0.157881
0.126781
0.102887
0.0845549
0.0733874
0.0638794
0.0603493
0.0555231
0.0548247
0.0527856
0.0529197
0.0522347
0.0510035
0.0501654
0.0490356
0.049687
0.0508357
0.0561379
0.0656208
0.0949032
0.108894
0.129714
0.133933
0.147435
0.173941
0.213749
0.342816
0.345965
0.406186
0.384549
0.343651
0.252248
0.203995
0.14276
0.118074
0.101672
0.0937966
0.0903099
0.0894768
0.090521
0.0915437
0.0935377
0.0934763
0.091349
0.0904375
0.0907455
0.091015
0.0920317
0.0922333
0.0923737
0.091813
0.0889282
0.0839981
0.0792507
0.0752255
0.0723799
0.0724915
0.0757487
0.0897478
0.134976
0.255751
0.395838
0.441046
0.433961
0.414009
0.369128
0.329203
0.289368
0.271867
0.269964
0.269978
0.266376
0.258361
0.248177
0.217337
0.190036
0.180944
0.183501
0.19751
0.234853
0.247062
0.23607
0.209157
0.189427
0.162201
0.147519
0.132434
0.122961
0.11421
0.109102
0.104971
0.103122
0.103197
0.103847
0.105635
0.106761
0.000276554
0.000262137
0.000259853
0.000256332
0.000246597
0.000242761
0.00022918
0.00022448
0.000208503
0.000203858
0.000190962
0.000188434
0.000181577
0.000182432
0.000181482
0.000183261
0.000183632
0.000185263
0.000188281
0.000189536
0.000193482
0.00019375
0.000198816
0.000200951
0.000210095
0.000215327
0.000224931
0.000232031
0.00023454
0.000243511
0.000246256
0.000256331
0.000258736
0.000270473
0.000267379
0.000280275
0.000275981
0.000296619
0.000295205
0.000320277
0.000330026
0.000370706
0.000402761
0.000417155
0.000446342
0.000446103
0.000457407
0.00045718
0.000471103
0.000476634
0.000493184
0.000512328
0.000543538
0.000625123
0.000697034
0.00090648
0.00100695
0.00131404
0.0014163
0.00177613
0.00185401
0.00224893
0.00227487
0.00271706
0.00276527
0.00336337
0.00334243
0.00381499
0.00373391
0.00408317
0.00425879
0.00546023
0.00655951
0.00982923
0.0122062
0.0147538
0.0174443
0.0191439
0.0195899
0.0192749
0.0189239
0.0173903
0.0172496
0.0174875
0.0189744
0.021787
0.0314311
0.0498046
0.108978
0.161551
0.291101
0.369564
0.46003
0.468036
0.485032
0.470276
0.465743
0.438376
0.425545
0.385347
0.360971
0.298438
0.267936
0.206274
0.181028
0.13786
0.120882
0.0989755
0.0928199
0.0833426
0.0824489
0.0787285
0.0771056
0.0715328
0.0688229
0.0642681
0.0601744
0.0559617
0.0511767
0.0505423
0.0473408
0.0474801
0.0488065
0.0603483
0.0734463
0.089723
0.0976591
0.113243
0.126817
0.159682
0.194975
0.288766
0.325586
0.371787
0.35516
0.285319
0.225942
0.17187
0.139789
0.122594
0.111812
0.10737
0.102323
0.0990326
0.0968843
0.0960698
0.095038
0.0951453
0.0973266
0.100297
0.100846
0.100949
0.100835
0.0999411
0.0970238
0.0908378
0.0845611
0.0790239
0.0750955
0.0752154
0.0791685
0.0955355
0.151838
0.314599
0.474994
0.500386
0.481275
0.435174
0.349371
0.29502
0.26469
0.237411
0.217065
0.213678
0.220615
0.240129
0.24596
0.242718
0.228041
0.193754
0.17301
0.165862
0.168468
0.178753
0.204197
0.21681
0.207212
0.194061
0.173759
0.162293
0.147226
0.138923
0.128931
0.123852
0.118814
0.115499
0.113709
0.111269
0.109753
0.107174
0.000185779
0.000175432
0.000178287
0.000172422
0.000171363
0.000165995
0.000162436
0.000159249
0.000158049
0.000158824
0.000159745
0.000163585
0.000169112
0.00017526
0.000183479
0.000189761
0.000202105
0.000211099
0.000232929
0.000246316
0.000283223
0.000298601
0.000346821
0.000360919
0.000406455
0.00041557
0.000447718
0.000452585
0.000474674
0.000482578
0.000512426
0.000526767
0.000572365
0.000590099
0.000631775
0.000631365
0.000635604
0.000629051
0.000615005
0.000594829
0.000583111
0.000582548
0.000584289
0.00059381
0.000602986
0.000622842
0.000641608
0.000667668
0.000697443
0.000730844
0.000793359
0.000885074
0.00112889
0.00133608
0.00186126
0.00211778
0.0027172
0.0028926
0.0033308
0.00334958
0.0034458
0.00331335
0.00331589
0.00319685
0.00321811
0.00317273
0.00316652
0.00314048
0.00299611
0.00297653
0.00294398
0.00300181
0.00313423
0.00390576
0.00466144
0.00681653
0.00827704
0.0109324
0.0117449
0.0125813
0.0129582
0.0137717
0.015104
0.0176058
0.0237144
0.0376736
0.0782198
0.13748
0.28479
0.390865
0.507225
0.5147
0.536331
0.515486
0.518153
0.492934
0.489748
0.456605
0.450373
0.409464
0.393342
0.329694
0.300901
0.227868
0.20368
0.153496
0.143928
0.130531
0.131138
0.126637
0.127599
0.122303
0.119624
0.110201
0.104554
0.0904501
0.0852104
0.0725282
0.0678887
0.0583939
0.0535182
0.0483889
0.0489367
0.0510055
0.0597107
0.0705985
0.0812121
0.103834
0.122642
0.165796
0.185535
0.271077
0.293614
0.348072
0.343042
0.315395
0.250187
0.199126
0.161212
0.140524
0.12733
0.120833
0.11358
0.108301
0.104749
0.102702
0.102428
0.105266
0.110134
0.112269
0.112556
0.111646
0.109448
0.103886
0.0977649
0.0895381
0.0828999
0.078367
0.078868
0.0837454
0.103205
0.168589
0.37351
0.555798
0.559495
0.5309
0.432671
0.343594
0.305558
0.274503
0.252916
0.232191
0.209112
0.197047
0.195634
0.201019
0.225695
0.23197
0.227898
0.204487
0.176197
0.159971
0.154533
0.155894
0.161918
0.175718
0.188909
0.186097
0.176095
0.164249
0.154173
0.145165
0.138083
0.131461
0.126268
0.121064
0.11735
0.112642
0.108561
0.104088
0.000396517
0.000371511
0.000367596
0.00033952
0.000332974
0.000302825
0.000303632
0.000292434
0.000309189
0.000310213
0.000329254
0.000350261
0.000372779
0.000440668
0.000461885
0.000529955
0.000573617
0.000670287
0.000760219
0.000827669
0.00101842
0.00104125
0.00113782
0.00112181
0.00118677
0.00116019
0.0012012
0.00118467
0.0011991
0.00121254
0.00121955
0.00131218
0.00138741
0.00155183
0.00160364
0.0016373
0.0016452
0.00163016
0.00162801
0.00158144
0.00157912
0.0015717
0.00158419
0.0016258
0.00166583
0.00177767
0.00186544
0.00199852
0.00218028
0.00241131
0.00292999
0.00344717
0.00471258
0.00547771
0.0071974
0.00789659
0.00945198
0.0096834
0.0100241
0.00972539
0.0096593
0.00887382
0.00847394
0.0073498
0.00681344
0.00612488
0.00577801
0.00550571
0.00477467
0.00454561
0.004112
0.00426958
0.00422081
0.00487871
0.00525107
0.00688606
0.00745063
0.00923283
0.00966924
0.0112619
0.0120891
0.0143553
0.018698
0.0304244
0.0546407
0.109436
0.226952
0.400302
0.515009
0.540717
0.571628
0.544562
0.547836
0.512817
0.516058
0.482661
0.48901
0.455002
0.458577
0.412195
0.404898
0.33502
0.313191
0.236781
0.222984
0.192923
0.200055
0.193774
0.20334
0.199115
0.206031
0.195789
0.193061
0.175068
0.165611
0.136417
0.126611
0.101106
0.0970738
0.0794857
0.0753013
0.0571663
0.0568365
0.0543235
0.0640922
0.0671671
0.0768899
0.0982939
0.11511
0.162582
0.176487
0.235188
0.257482
0.31972
0.320298
0.311575
0.278087
0.232994
0.196133
0.172923
0.158318
0.150364
0.138623
0.128929
0.125674
0.125509
0.127116
0.129977
0.129732
0.125676
0.122534
0.116399
0.110835
0.10174
0.0930385
0.0858033
0.0823079
0.0834576
0.090702
0.114158
0.190025
0.430659
0.638856
0.63798
0.577099
0.432764
0.356768
0.319689
0.302081
0.274951
0.259986
0.241489
0.220107
0.199834
0.187791
0.185213
0.199313
0.219546
0.222839
0.215242
0.184394
0.164458
0.150077
0.148473
0.146865
0.14981
0.15363
0.160364
0.161375
0.158769
0.152992
0.145174
0.139052
0.131998
0.126714
0.121289
0.114564
0.109447
0.102734
0.0988243
0.00354874
0.00340761
0.00332046
0.00305884
0.00298805
0.00275255
0.0027628
0.00271061
0.00282364
0.00291462
0.00304013
0.00345526
0.00359583
0.00417367
0.00443078
0.00516207
0.00542416
0.00616383
0.00675379
0.00715526
0.00777229
0.00776152
0.00796995
0.00781309
0.00793745
0.0077524
0.00777444
0.00770351
0.00763249
0.00770899
0.00767448
0.00802485
0.00817313
0.00844889
0.00843233
0.00839037
0.00838785
0.00816754
0.00811086
0.00790503
0.00795782
0.00794861
0.00802963
0.00822682
0.0084081
0.00899481
0.00938845
0.0102401
0.0108985
0.0121624
0.0139668
0.0168765
0.0198861
0.0222747
0.0249793
0.0266277
0.0274602
0.027347
0.0270267
0.0257413
0.0247235
0.0223857
0.0198376
0.0174916
0.0148354
0.0136351
0.0118395
0.0111458
0.00950496
0.00883408
0.0071094
0.00672994
0.0061608
0.00648263
0.00646286
0.00704825
0.00728458
0.00856048
0.00941836
0.0121632
0.0160097
0.0261536
0.0450279
0.101173
0.176167
0.37487
0.494857
0.572616
0.581463
0.576344
0.548946
0.469248
0.454858
0.416687
0.436174
0.413793
0.441366
0.409037
0.427105
0.376746
0.381771
0.310922
0.301455
0.255878
0.276364
0.268859
0.298356
0.296576
0.324079
0.313594
0.327288
0.304287
0.301963
0.267292
0.254901
0.205336
0.189554
0.14181
0.133901
0.107522
0.108199
0.083001
0.0795687
0.0668581
0.0770533
0.0724344
0.0774262
0.0871634
0.0988281
0.136689
0.147866
0.186303
0.203001
0.262772
0.291735
0.296865
0.287649
0.26068
0.24161
0.219512
0.210874
0.193605
0.179028
0.167156
0.162611
0.157917
0.153271
0.145151
0.138779
0.126744
0.118489
0.110868
0.100493
0.093814
0.0875695
0.0868886
0.0899378
0.102024
0.133901
0.222815
0.513706
0.736456
0.730104
0.609553
0.450753
0.375438
0.340365
0.328836
0.30641
0.281258
0.271868
0.248507
0.239707
0.209645
0.192905
0.180699
0.183826
0.199439
0.216013
0.216096
0.197155
0.179041
0.153946
0.151109
0.145418
0.145434
0.14381
0.143911
0.142952
0.141444
0.139475
0.13517
0.130222
0.123531
0.118185
0.109637
0.104954
0.0967708
0.0917327
0.081344
0.0335581
0.0328937
0.0323506
0.0305828
0.0299993
0.0283081
0.0279536
0.0275192
0.0278051
0.0285937