/*--------------------------------*- C++ -*----------------------------------*\
| =========                 |                                                 |
| \\      /  F ield         | OpenFOAM: The Open Source CFD Toolbox           |
|  \\    /   O peration     | Version:  2.4.0                                 |
|   \\  /    A nd           | Web:      www.OpenFOAM.org                      |
|    \\/     M anipulation  |                                                 |
\*---------------------------------------------------------------------------*/
FoamFile
{
    version     2.0;
    format      ascii;
    class       volScalarField;
    location    "0.65";
    object      nuSgs;
}
// * * * * * * * * * * * * * * * * * * * * * * * * * * * * * * * * * * * * * //

dimensions      [0 2 -1 0 0 0 0];

internalField   nonuniform List<scalar> 
8800
(
0.001339
0.00150602
0.00139419
0.00122562
0.00112544
0.0010455
0.0010008
0.000956175
0.000932127
0.000896264
0.000886165
0.000862046
0.000855217
0.000833808
0.000830374
0.000811983
0.000807949
0.000784263
0.000786
0.000753354
0.000557182
0.000980489
0.00108467
0.00107997
0.00106466
0.00102903
0.00100646
0.000972964
0.000955661
0.000923107
0.000913611
0.000889553
0.000881681
0.000863053
0.000858472
0.000842307
0.000839461
0.000822046
0.000821144
0.000809827
0.000136722
0.000398721
0.000592037
0.000653263
0.000707144
0.000733731
0.000756261
0.000756382
0.000761738
0.000758838
0.00075641
0.000746449
0.000745752
0.000739534
0.000736977
0.000729069
0.000729587
0.00072146
0.000722323
0.000712023
2.73033e-05
0.000123374
0.000245569
0.000306739
0.000350445
0.000393482
0.000435088
0.000448255
0.000474761
0.000497515
0.000508152
0.000513142
0.000527127
0.000536428
0.000541591
0.000546709
0.000559637
0.000560179
0.000569346
0.000564507
5.2616e-06
3.29776e-05
7.79311e-05
0.000116708
0.000132572
0.00015895
0.000196297
0.000208529
0.00022717
0.000259573
0.000269312
0.0002794
0.000290602
0.000307959
0.000314937
0.000330206
0.00033967
0.000358616
0.000362746
0.000377864
2.3551e-06
8.24824e-06
2.08692e-05
3.67091e-05
4.07819e-05
4.8071e-05
6.56961e-05
7.32629e-05
8.23164e-05
0.00010499
0.000111995
0.000120757
0.000126135
0.000136716
0.000141548
0.000154788
0.000161121
0.000181767
0.000183909
0.000202723
2.16776e-06
3.06952e-06
6.34542e-06
1.10649e-05
1.18087e-05
1.29502e-05
1.73176e-05
1.95074e-05
2.29549e-05
3.27503e-05
3.6256e-05
4.03371e-05
4.32325e-05
4.54628e-05
4.82084e-05
5.30877e-05
5.89006e-05
7.28182e-05
7.82803e-05
8.81056e-05
2.15782e-06
2.54917e-06
3.40611e-06
4.8277e-06
5.39604e-06
5.43833e-06
5.8724e-06
5.90703e-06
6.23772e-06
8.73953e-06
1.08457e-05
1.23236e-05
1.2757e-05
1.26271e-05
1.28539e-05
1.36202e-05
1.52338e-05
2.14977e-05
2.24583e-05
2.29141e-05
2.17004e-06
2.61458e-06
2.94855e-06
3.6898e-06
3.91283e-06
4.50013e-06
4.59452e-06
4.44473e-06
4.39716e-06
4.52977e-06
5.73648e-06
6.29737e-06
6.28904e-06
6.00726e-06
5.89824e-06
6.50172e-06
7.04305e-06
9.69302e-06
9.94557e-06
1.09245e-05
2.12977e-06
2.43618e-06
3.3624e-06
3.68434e-06
3.57458e-06
3.58198e-06
4.11824e-06
4.40761e-06
4.31408e-06
4.12388e-06
4.1216e-06
4.65928e-06
4.93536e-06
4.90171e-06
4.94953e-06
5.02042e-06
5.24934e-06
6.67031e-06
6.82053e-06
8.05716e-06
2.14194e-06
2.67002e-06
3.27515e-06
3.50666e-06
3.48226e-06
3.59617e-06
4.1226e-06
4.29434e-06
4.23635e-06
4.12245e-06
4.21235e-06
4.51564e-06
4.74513e-06
4.76159e-06
4.73327e-06
4.64606e-06
4.77213e-06
4.98247e-06
5.36792e-06
6.5607e-06
2.14261e-06
2.56928e-06
3.06607e-06
3.33054e-06
3.53483e-06
4.17829e-06
4.40824e-06
4.39462e-06
4.32828e-06
4.37391e-06
4.81806e-06
5.0121e-06
4.98656e-06
4.8453e-06
5.12074e-06
5.26013e-06
7.03933e-06
7.03568e-06
8.13503e-06
9.46497e-06
2.15587e-06
2.55549e-06
3.63849e-06
3.87069e-06
4.29461e-06
5.25818e-06
5.63992e-06
6.76467e-06
7.85384e-06
8.35861e-06
9.63263e-06
9.91928e-06
1.01885e-05
1.03333e-05
1.36365e-05
1.51982e-05
2.16857e-05
2.13738e-05
2.28333e-05
2.77727e-05
2.18842e-06
3.16808e-06
5.66015e-06
7.10585e-06
1.0169e-05
1.4819e-05
1.70623e-05
2.3208e-05
2.6827e-05
3.03229e-05
3.33689e-05
3.63377e-05
3.86424e-05
4.15092e-05
5.217e-05
5.69608e-05
6.87703e-05
6.98828e-05
7.30975e-05
8.5466e-05
2.34696e-06
8.34716e-06
1.98137e-05
2.66719e-05
4.01206e-05
5.59981e-05
6.30925e-05
8.00278e-05
8.87625e-05
9.96391e-05
0.0001062
0.000117884
0.000123825
0.00013287
0.000148931
0.000158691
0.00017312
0.00017838
0.000186034
0.000208927
5.19068e-06
3.32162e-05
7.56201e-05
9.8694e-05
0.000140168
0.000171589
0.000186326
0.000217521
0.000234702
0.000249724
0.000262492
0.000281681
0.000290259
0.000306589
0.000320751
0.000337452
0.000347586
0.000359864
0.000369267
0.000393383
2.72574e-05
0.000124751
0.000239904
0.000293933
0.000365705
0.000397253
0.000424374
0.0004584
0.000477922
0.000487743
0.000504596
0.000518532
0.000526652
0.000537284
0.00054581
0.000554438
0.000558616
0.000564785
0.000572091
0.000581533
0.000136899
0.00040345
0.000586818
0.000651817
0.000713978
0.000731904
0.000754187
0.000758999
0.000761284
0.000756549
0.000755474
0.000749809
0.000747172
0.000739812
0.000737737
0.000731822
0.000729709
0.000724122
0.00072343
0.000718961
0.000558364
0.000980202
0.00108348
0.00108085
0.00106503
0.00102934
0.00100821
0.000969975
0.000954685
0.000925656
0.000912927
0.000889061
0.000881565
0.000863356
0.000856448
0.000841007
0.000835442
0.000819601
0.000814194
0.000798891
0.00134005
0.00150561
0.00139317
0.00122854
0.00112214
0.00104701
0.00100235
0.00095343
0.000931083
0.000898436
0.000885564
0.000859932
0.000852733
0.000833293
0.000825984
0.000805497
0.000797391
0.000773568
0.000763853
0.000730631
0.000341779
0.000290629
0.000260788
0.000241932
0.000232658
0.000225976
0.000222566
0.000218255
0.00021556
0.000209888
0.000206812
0.000200027
0.000197516
0.000191188
0.000189345
0.000184264
0.000183393
0.000179577
0.000179833
0.000177429
0.000178814
0.000176687
0.000179069
0.0001771
0.000180274
0.000178413
0.000182293
0.000180422
0.000184959
0.00018275
0.000187737
0.000184345
0.000188564
0.000181528
0.000181826
0.000165968
0.000159127
0.000135342
0.000136148
0.00013169
0.000138675
0.00013621
0.000142894
0.000139682
0.000144572
0.000140303
0.000144931
0.000141413
0.000147108
0.000145193
0.000150806
0.000148919
0.000152297
0.000149343
0.000151263
0.000147631
0.000150212
0.000147273
0.000150888
0.000150225
0.000155297
0.000157328
0.000163738
0.000162811
0.000157776
0.000132425
0.000120923
0.000111125
0.00010951
0.000105881
0.000106296
0.00010449
0.000105441
0.000104389
0.000105811
0.000104966
0.000108608
0.000107937
0.000111516
0.000110834
0.000113287
0.000112141
0.000113002
0.000110627
0.000109262
0.000103585
9.92797e-05
8.90989e-05
8.4021e-05
7.95482e-05
7.74496e-05
7.66068e-05
7.56806e-05
7.56398e-05
7.51368e-05
7.49965e-05
7.36871e-05
7.23472e-05
6.71315e-05
6.33075e-05
6.05287e-05
5.91895e-05
5.86974e-05
5.78324e-05
5.69639e-05
5.37768e-05
5.24376e-05
4.92064e-05
4.78399e-05
4.51565e-05
4.46995e-05
4.34643e-05
4.2791e-05
4.19343e-05
4.1701e-05
4.16451e-05
4.22149e-05
4.46892e-05
4.90033e-05
5.36006e-05
5.53167e-05
5.52047e-05
5.45489e-05
5.51202e-05
6.58294e-05
8.06102e-05
8.59119e-05
9.1536e-05
9.49504e-05
9.66466e-05
9.61834e-05
9.15998e-05
9.28289e-05
0.000123998
0.00015314
0.000158114
0.000135456
9.68281e-05
7.06656e-05
5.52443e-05
5.1272e-05
4.94282e-05
5.00231e-05
5.6546e-05
5.75206e-05
6.19269e-05
6.41963e-05
6.51126e-05
6.56882e-05
6.96037e-05
7.44739e-05
7.39195e-05
7.06293e-05
6.93819e-05
6.83791e-05
6.88761e-05
7.22188e-05
7.5475e-05
7.96257e-05
7.88104e-05
7.89044e-05
7.67202e-05
7.57034e-05
7.19962e-05
7.12517e-05
6.96517e-05
7.03088e-05
7.01646e-05
7.13994e-05
7.24153e-05
7.49165e-05
7.85074e-05
8.40754e-05
9.22326e-05
0.000101374
0.000110386
0.000121435
0.000164329
0.000191977
0.000192355
0.000165131
0.000120764
9.61659e-05
7.21588e-05
6.65545e-05
6.21245e-05
6.09718e-05
6.32691e-05
6.3168e-05
6.42143e-05
6.3792e-05
6.39862e-05
6.38286e-05
6.30237e-05
6.30121e-05
6.38117e-05
6.67609e-05
6.91143e-05
7.57289e-05
8.46304e-05
0.000406296
0.000366413
0.000337026
0.000311493
0.000295565
0.000278459
0.000270626
0.000257997
0.000253931
0.000244415
0.000241427
0.000233719
0.000231851
0.0002256
0.00022441
0.000218729
0.000218286
0.000213042
0.000213221
0.000208386
0.000209324
0.000204352
0.00020607
0.000200964
0.000203246
0.000197992
0.000200901
0.000195599
0.000199291
0.000194177
0.000199159
0.000194637
0.000201653
0.0001975
0.000205162
0.000198628
0.000202587
0.00019113
0.000189069
0.00017221
0.000168815
0.000154426
0.00015377
0.000147371
0.000148601
0.000145238
0.000148042
0.000147308
0.000150658
0.000150582
0.000151797
0.000150792
0.000150828
0.00014957
0.000147787
0.00014257
0.000137677
0.000128546
0.000122133
0.000118415
0.000118745
0.000120998
0.000131572
0.000146232
0.000156586
0.00015553
0.000152574
0.00013231
0.000124407
0.000112099
0.000111522
0.000108733
0.000110708
0.000109077
0.00011257
0.000110579
0.000113857
0.000112272
0.000114103
0.000112402
0.000112964
0.000110719
0.000109364
0.00010361
9.96395e-05
9.06091e-05
8.69893e-05
8.18085e-05
8.0265e-05
7.72639e-05
7.66649e-05
7.51967e-05
7.50905e-05
7.46405e-05
7.37389e-05
7.22991e-05
6.86399e-05
6.45199e-05
6.04773e-05
5.97958e-05
5.88678e-05
5.89832e-05
5.83868e-05
5.79379e-05
5.72731e-05
5.61469e-05
5.34189e-05
4.99343e-05
4.86984e-05
4.7446e-05
4.74552e-05
4.68137e-05
4.64606e-05
4.53493e-05
4.45281e-05
4.41471e-05
4.53137e-05
4.95704e-05
5.20588e-05
5.58648e-05
5.60106e-05
5.4686e-05
5.30285e-05
5.44883e-05
6.46642e-05
7.41884e-05
8.202e-05
9.11965e-05
9.84174e-05
0.00010308
0.000100134
9.82625e-05
0.000100215
0.000132714
0.000151558
0.000152493
0.000126099
8.87667e-05
6.90213e-05
5.52723e-05
5.19735e-05
5.55967e-05
5.5696e-05
6.00367e-05
6.05426e-05
6.21981e-05
6.65557e-05
6.72527e-05
7.0193e-05
7.33389e-05
7.49063e-05
7.33867e-05
6.94098e-05
6.93856e-05
6.8784e-05
7.14175e-05
7.14967e-05
7.3516e-05
7.29785e-05
7.24999e-05
7.18953e-05
7.0731e-05
7.01921e-05
6.88392e-05
6.90556e-05
6.87555e-05
6.96409e-05
6.96869e-05
7.1484e-05
7.25098e-05
7.63406e-05
7.85462e-05
8.57222e-05
9.07092e-05
0.000101488
0.000108496
0.0001167
0.000133743
0.000179156
0.000186372
0.00018078
0.000134914
0.000108439
7.9664e-05
6.88514e-05
6.66549e-05
6.47283e-05
6.58728e-05
6.49278e-05
6.52603e-05
6.49417e-05
6.44245e-05
6.42038e-05
6.42298e-05
6.5074e-05
6.62612e-05
6.8488e-05
6.96409e-05
7.39101e-05
7.76203e-05
0.000367847
0.000342622
0.000326652
0.000304792
0.000296247
0.000278762
0.00027307
0.000259923
0.000255965
0.000245543
0.000242585
0.000233801
0.000231873
0.000224618
0.000223507
0.000217283
0.000217058
0.000211839
0.00021229
0.000207239
0.000208079
0.000202729
0.000203841
0.000198261
0.000199479
0.000193975
0.000195298
0.000190149
0.000191694
0.000187216
0.0001892
0.000185848
0.000188653
0.000186578
0.000190308
0.000189446
0.000193472
0.000191652
0.000192955
0.000189966
0.000188839
0.000183793
0.000180946
0.000175155
0.000170708
0.000168718
0.000165061
0.000164154
0.000160408
0.000159009
0.000153701
0.000151507
0.000145088
0.000141073
0.000130562
0.000122332
0.000106792
0.000100053
9.71361e-05
9.51064e-05
9.0303e-05
8.93658e-05
9.03814e-05
9.44879e-05
0.000109763
0.0001285
0.000142841
0.00013952
0.000139614
0.000130029
0.000126019
0.000113934
0.000113238
0.000109922
0.000110764
0.000109025
0.000109407
0.000108208
0.00010786
0.000105569
0.000103304
9.78796e-05
9.38108e-05
8.904e-05
8.6809e-05
8.38469e-05
8.25886e-05
8.01011e-05
7.91158e-05
7.68725e-05
7.63196e-05
7.45192e-05
7.38947e-05
7.16966e-05
6.96909e-05
6.42739e-05
6.03837e-05
5.88096e-05
5.8364e-05
5.87016e-05
5.86949e-05
5.90445e-05
5.87002e-05
5.86564e-05
5.75495e-05
5.67813e-05
5.4549e-05
5.34119e-05
5.08601e-05
5.04986e-05
4.99661e-05
5.05797e-05
5.01891e-05
5.02568e-05
4.91692e-05
4.81377e-05
4.7793e-05
4.96615e-05
5.52531e-05
5.65355e-05
5.58153e-05
5.3278e-05
5.19399e-05
5.20175e-05
5.46676e-05
6.74608e-05
8.67186e-05
9.31082e-05
0.000101747
0.000107657
0.000110312
0.000109493
0.000116788
0.000140441
0.000150752
0.000143883
0.000119653
8.50198e-05
6.5964e-05
5.92575e-05
5.74164e-05
6.03512e-05
6.01729e-05
6.10045e-05
6.22662e-05
6.32719e-05
6.78933e-05
6.94277e-05
7.42496e-05
7.48803e-05
7.51849e-05
7.26541e-05
7.00784e-05
7.06408e-05
7.03605e-05
7.26489e-05
7.17184e-05
7.28838e-05
7.05858e-05
7.03765e-05
6.88704e-05
6.88466e-05
6.78816e-05
6.79642e-05
6.83929e-05
6.85731e-05
6.93081e-05
7.00501e-05
7.25799e-05
7.43341e-05
8.04048e-05
8.33952e-05
9.08824e-05
9.3723e-05
0.000101517
0.00010557
0.000114802
0.000122956
0.000159472
0.00017683
0.000178363
0.000157225
0.000119414
9.38851e-05
7.4324e-05
7.05852e-05
6.69122e-05
6.72936e-05
6.65955e-05
6.5876e-05
6.55854e-05
6.51915e-05
6.52635e-05
6.50944e-05
6.56301e-05
6.58173e-05
6.6526e-05
6.71768e-05
7.08195e-05
7.4192e-05
0.000297047
0.000281536
0.000272931
0.000258065
0.000252819
0.000241115
0.000236967
0.000227145
0.000223847
0.000215743
0.000213231
0.000206573
0.000204572
0.000198778
0.000196931
0.000191615
0.000190138
0.000185751
0.00018467
0.000181266
0.000180441
0.000177316
0.000176345
0.000172926
0.000171551
0.000167655
0.000165962
0.000162114
0.000160214
0.000157728
0.000155277
0.00015498
0.000153468
0.000154411
0.000154355
0.000156816
0.000157548
0.000162582
0.000163774
0.000168887
0.000168795
0.000170285
0.000168101
0.000167819
0.000164071
0.000163064
0.000157642
0.000155967
0.000149017
0.000145826
0.00013644
0.000131555
0.000118566
0.000111993
9.61336e-05
8.89636e-05
7.61851e-05
7.21185e-05
6.41738e-05
6.12407e-05
5.72587e-05
5.72075e-05
5.80425e-05
6.02492e-05
6.46523e-05
7.28276e-05
9.1409e-05
0.000113297
0.000127714
0.000126392
0.000126548
0.000121669
0.000118929
0.000111543
0.000108996
0.000105281
0.000102971
9.97922e-05
9.78469e-05
9.51682e-05
9.21851e-05
8.96676e-05
8.74935e-05
8.58e-05
8.48602e-05
8.31471e-05
8.20065e-05
7.96766e-05
7.86335e-05
7.60835e-05
7.4572e-05
7.02126e-05
6.75621e-05
6.15375e-05
5.89424e-05
5.69025e-05
5.72206e-05
5.74969e-05
5.85234e-05
5.91658e-05
6.06541e-05
6.16214e-05
6.17694e-05
6.15495e-05
6.01393e-05
5.87774e-05
5.56869e-05
5.48797e-05
5.3194e-05
5.29623e-05
5.2216e-05
5.25839e-05
5.21514e-05
5.26946e-05
5.22391e-05
5.27702e-05
5.27298e-05
5.36048e-05
5.49435e-05
6.08736e-05
6.25644e-05
6.16777e-05
5.7877e-05
5.56599e-05
5.97352e-05
7.79807e-05
9.87927e-05
9.98085e-05
9.88328e-05
0.000102375
0.000113941
0.000120821
0.000133511
0.000143963
0.000146487
0.000137245
0.000109702
8.45248e-05
6.71095e-05
6.70811e-05
6.15444e-05
6.07017e-05
6.19677e-05
6.2682e-05
6.5514e-05
6.64487e-05
7.09041e-05
7.26173e-05
7.40043e-05
7.38954e-05
7.30763e-05
7.16232e-05
7.07278e-05
7.15717e-05
7.19092e-05
7.31643e-05
7.186e-05
7.14107e-05
6.85681e-05
6.81123e-05
6.6609e-05
6.70235e-05
6.6616e-05
6.7363e-05
6.74615e-05
6.80843e-05
6.90053e-05
7.08464e-05
7.44825e-05
7.85337e-05
8.70672e-05
9.08898e-05
9.91053e-05
0.000102039
0.000108068
0.000109542
0.00011452
0.000118143
0.000133631
0.000165218
0.000172511
0.000166776
0.000139802
0.000114173
8.56078e-05
7.63451e-05
7.01318e-05
6.88646e-05
6.79777e-05
6.68292e-05
6.65138e-05
6.58048e-05
6.55544e-05
6.49992e-05
6.5118e-05
6.51402e-05
6.56215e-05
6.66875e-05
7.05473e-05
7.34723e-05
0.000201513
0.000196477
0.000185818
0.000182427
0.00017524
0.000172717
0.000166727
0.00016437
0.000158881
0.000156814
0.00015199
0.000150396
0.000146586
0.000145544
0.000142082
0.000141264
0.000137632
0.000137003
0.00013331
0.000133039
0.000129968
0.000129991
0.00012729
0.000127301
0.000124378
0.000123944
0.000120253
0.000119458
0.00011517
0.000114404
0.000110475
0.000110627
0.000108528
0.000110149
0.000109141
0.000112029
0.000111961
0.000115885
0.00011634
0.000120857
0.000121281
0.000125017
0.000124016
0.00012564
0.000123014
0.000122591
0.000117963
0.00011576
0.000108404
0.00010444
9.41216e-05
8.89461e-05
7.68034e-05
7.14237e-05
6.08995e-05
5.57987e-05
4.71747e-05
4.39851e-05
3.90323e-05
3.75875e-05
3.63143e-05
3.67557e-05
3.72494e-05
3.90596e-05
4.06506e-05
4.4659e-05
4.96919e-05
6.12961e-05
7.52177e-05
9.98765e-05
0.000110767
0.000114337
0.000113842
0.000112272
0.000108525
0.000105908
0.000102328
9.94911e-05
9.71094e-05
9.44372e-05
9.21973e-05
9.0408e-05
8.88932e-05
8.7183e-05
8.56207e-05
8.33566e-05
8.16473e-05
7.85321e-05
7.56318e-05
7.02848e-05
6.39209e-05
5.71783e-05
5.46997e-05
5.4067e-05
5.4902e-05
5.56509e-05
5.82148e-05
5.96346e-05
6.33432e-05
6.46743e-05
6.79712e-05
6.81871e-05
6.84015e-05
6.79693e-05
6.64548e-05
6.36859e-05
6.1546e-05
6.00859e-05
5.87479e-05
5.70014e-05
5.60722e-05
5.55e-05
5.37643e-05
5.24697e-05
5.23727e-05
5.27546e-05
5.44945e-05
5.59203e-05
5.56424e-05
5.83012e-05
6.78996e-05
6.84822e-05
6.25191e-05
6.15015e-05
6.70559e-05
8.21103e-05
0.000100036
0.000109886
0.000112252
0.000114914
0.000115815
0.000124202
0.000134019
0.000142885
0.000143925
0.000130409
0.000103114
9.14278e-05
7.22161e-05
6.69998e-05
6.31952e-05
6.20137e-05
6.46815e-05
6.57759e-05
6.92454e-05
7.0193e-05
7.13412e-05
7.2059e-05
7.15378e-05
7.10823e-05
7.02099e-05
7.02249e-05
7.03655e-05
7.14849e-05
7.30803e-05
7.36575e-05
7.25809e-05
7.04558e-05
6.7347e-05
6.65581e-05
6.57375e-05
6.61715e-05
6.61885e-05
6.68738e-05
6.71349e-05
6.82063e-05
7.01152e-05
7.52461e-05
8.11802e-05
9.33406e-05
0.000102251
0.000109255
0.000114061
0.000116309
0.000116323
0.000115548
0.000116261
0.000117628
0.000121653
0.000141849
0.000160853
0.000162911
0.0001534
0.000132152
0.000105198
8.7862e-05
7.66949e-05
7.20913e-05
7.01638e-05
6.85304e-05
6.77125e-05
6.66316e-05
6.6161e-05
6.57576e-05
6.58987e-05
6.62571e-05
6.74385e-05
6.83094e-05
7.09124e-05
7.27872e-05
0.000108237
0.000106581
0.000101793
0.000100839
9.71457e-05
9.66646e-05
9.37032e-05
9.3138e-05
9.0294e-05
8.95664e-05
8.69031e-05
8.62078e-05
8.39203e-05
8.3631e-05
8.17434e-05
8.18302e-05
7.9969e-05
8.0293e-05
7.81457e-05
7.88992e-05
7.67781e-05
7.76681e-05
7.56467e-05
7.64286e-05
7.43812e-05
7.47353e-05
7.26271e-05
7.25885e-05
7.04757e-05
7.01976e-05
6.776e-05
6.77446e-05
6.62475e-05
6.71881e-05
6.64826e-05
6.83505e-05
6.82494e-05
7.1095e-05
7.15656e-05
7.48809e-05
7.54103e-05
7.82713e-05
7.7747e-05
7.86102e-05
7.72066e-05
7.67153e-05
7.36749e-05
7.19774e-05
6.70486e-05
6.43587e-05
5.79399e-05
5.50362e-05
4.81891e-05
4.49414e-05
3.88079e-05
3.53327e-05
3.05273e-05
2.85099e-05
2.56584e-05
2.49354e-05
2.44349e-05
2.48933e-05
2.51015e-05
2.6666e-05
2.72676e-05
2.96586e-05
3.14434e-05
3.72772e-05
4.26042e-05
5.79009e-05
6.65472e-05
8.41033e-05
9.10329e-05
0.000101022
0.000101317
0.000101812
0.000100487
9.9872e-05
9.77767e-05
9.67427e-05
9.41635e-05
9.26559e-05
8.93988e-05
8.75334e-05
8.34693e-05
8.08559e-05
7.56743e-05
6.99491e-05
6.05314e-05
5.36959e-05
5.05711e-05
5.06637e-05
5.17399e-05
5.34178e-05
5.86055e-05
6.16949e-05
6.91338e-05
7.1734e-05
7.75716e-05
7.8388e-05
7.99716e-05
7.96497e-05
7.84418e-05
7.73106e-05
7.4195e-05
7.26232e-05
6.88591e-05
6.78525e-05
6.59397e-05
6.52918e-05
6.35051e-05
6.13378e-05
5.85729e-05
5.68569e-05
5.69263e-05
5.64131e-05
5.67415e-05
5.7666e-05
6.12412e-05
6.26891e-05
7.18351e-05
8.12358e-05
8.83525e-05
8.45486e-05
8.80561e-05
9.4835e-05
0.000120285
0.000130821
0.000142731
0.000139315
0.000132288
0.000135004
0.000139983
0.000142891
0.000143677
0.000131694
0.000104109
9.20218e-05
7.50134e-05
6.71092e-05
6.79078e-05
6.70934e-05
6.94343e-05
7.02365e-05
7.11993e-05
7.14617e-05
7.14292e-05
7.15874e-05
7.13428e-05
7.0921e-05
7.02398e-05
7.01057e-05
7.0539e-05
7.25109e-05
7.38016e-05
7.38007e-05
7.2287e-05
6.95857e-05
6.74357e-05
6.65478e-05
6.63513e-05
6.65519e-05
6.66083e-05
6.69731e-05
6.79839e-05
7.08054e-05
7.67935e-05
8.98064e-05
0.000103961
0.000119932
0.000128907
0.000135447
0.000135444
0.000134558
0.000131564
0.000127505
0.000120904
0.000119248
0.000118961
0.000123995
0.000140118
0.000155145
0.000152006
0.000143518
0.000122462
0.000104868
9.06789e-05
8.09825e-05
7.5195e-05
7.20926e-05
7.02365e-05
6.86885e-05
6.83225e-05
6.78857e-05
6.77752e-05
6.77032e-05
6.813e-05
6.84027e-05
6.96422e-05
7.06518e-05
4.67132e-05
4.60243e-05
4.41655e-05
4.40203e-05
4.27935e-05
4.28812e-05
4.18862e-05
4.1963e-05
4.10854e-05
4.09136e-05
3.99568e-05
3.95185e-05
3.83787e-05
3.80619e-05
3.72528e-05
3.73138e-05
3.6824e-05
3.72637e-05
3.67021e-05
3.74479e-05
3.68351e-05
3.77157e-05
3.70951e-05
3.79597e-05
3.7358e-05
3.79891e-05
3.7318e-05
3.76138e-05
3.68799e-05
3.69065e-05
3.61886e-05
3.63464e-05
3.57161e-05
3.63027e-05
3.6005e-05
3.71281e-05
3.70079e-05
3.87481e-05
3.90692e-05
4.12865e-05
4.18289e-05
4.41596e-05
4.42628e-05
4.48507e-05
4.44177e-05
4.40789e-05
4.25225e-05
4.14478e-05
3.87579e-05
3.71872e-05
3.38335e-05
3.23226e-05
2.903e-05
2.72654e-05
2.36448e-05
2.21838e-05
1.96703e-05
1.89941e-05
1.78497e-05
1.79718e-05
1.78661e-05
1.86392e-05
1.87602e-05
2.0263e-05
2.06254e-05
2.24614e-05
2.34819e-05
2.64664e-05
2.90692e-05
3.63857e-05
4.1652e-05
5.32817e-05
5.8796e-05
7.05702e-05
7.4889e-05
8.21607e-05
8.47004e-05
8.60512e-05
8.58977e-05
8.50146e-05
8.39094e-05
8.08274e-05
7.90033e-05
7.43339e-05
7.13109e-05
6.44226e-05
5.6392e-05
4.96047e-05
4.67956e-05
4.68468e-05
4.81856e-05
5.10295e-05
5.90867e-05
6.52836e-05
7.84262e-05
8.39768e-05
9.41606e-05
9.70581e-05
0.000100127
9.9773e-05
9.85285e-05
9.71246e-05
9.29258e-05
9.03592e-05
8.40873e-05
8.25904e-05
7.82519e-05
7.70074e-05
7.16591e-05
7.02597e-05
6.56456e-05
6.44036e-05
6.14543e-05
5.97114e-05
5.90626e-05
5.87647e-05
5.90394e-05
5.9173e-05
6.26413e-05
6.40099e-05
7.09653e-05
7.65417e-05
9.44912e-05
9.73264e-05
0.000107785
0.000108525
0.000123953
0.000131352
0.000157391
0.000154732
0.000171563
0.000153599
0.000162753
0.000147039
0.000148816
0.000136551
0.00010527
8.89636e-05
8.03205e-05
7.13731e-05
7.21406e-05
7.14043e-05
7.16035e-05
7.17153e-05
7.19971e-05
7.2778e-05
7.29114e-05
7.32723e-05
7.30557e-05
7.21745e-05
7.18231e-05
7.17161e-05
7.22704e-05
7.3453e-05
7.3958e-05
7.3649e-05
7.17986e-05
6.9767e-05
6.92791e-05
6.84628e-05
6.79376e-05
6.79162e-05
6.81462e-05
6.92384e-05
7.27877e-05
8.1502e-05
9.84537e-05
0.000123372
0.000140706
0.000148974
0.0001491
0.000147662
0.000143961
0.000141593
0.000137274
0.000135007
0.000129734
0.000124129
0.000117684
0.000118091
0.000122321
0.000138833
0.000146475
0.000143067
0.000133514
0.000118937
0.000104841
9.39817e-05
8.56849e-05
8.04396e-05
7.66381e-05
7.4132e-05
7.26475e-05
7.14047e-05
7.06626e-05
7.00677e-05
7.0177e-05
7.04238e-05
7.13377e-05
7.24228e-05
1.23765e-05
1.24839e-05
1.25651e-05
1.31031e-05
1.30466e-05
1.34943e-05
1.32245e-05
1.36171e-05
1.32314e-05
1.33609e-05
1.29699e-05
1.28043e-05
1.22053e-05
1.19822e-05
1.15374e-05
1.15547e-05
1.15076e-05
1.17329e-05
1.17954e-05
1.23912e-05
1.24632e-05
1.3137e-05
1.31191e-05
1.38553e-05
1.3995e-05
1.50219e-05
1.50695e-05
1.56098e-05
1.54731e-05
1.58066e-05
1.55678e-05
1.59178e-05
1.56524e-05
1.61856e-05
1.60117e-05
1.67813e-05
1.66596e-05
1.77183e-05
1.78179e-05
1.91204e-05
1.96171e-05
2.13088e-05
2.18819e-05
2.27692e-05
2.27876e-05
2.26269e-05
2.19942e-05
2.13115e-05
2.01558e-05
1.94246e-05
1.81527e-05
1.75101e-05
1.60902e-05
1.55618e-05
1.40809e-05
1.39639e-05
1.34785e-05
1.41538e-05
1.40207e-05
1.53887e-05
1.53138e-05
1.70758e-05
1.70428e-05
1.88579e-05
1.90829e-05
2.10261e-05
2.14571e-05
2.29871e-05
2.38506e-05
2.5664e-05
2.91718e-05
3.27371e-05
3.99921e-05
4.40216e-05
5.23291e-05
5.52815e-05
6.08135e-05
6.23306e-05
6.5187e-05
6.44919e-05
6.44704e-05
6.23915e-05
6.09214e-05
5.60946e-05
5.16071e-05
4.5341e-05
4.28492e-05
4.27738e-05
4.4064e-05
4.716e-05
5.74526e-05
6.67501e-05
8.53664e-05
9.67419e-05
0.000113124
0.000121191
0.000127805
0.00012815
0.000127461
0.000125251
0.000119561
0.000115891
0.000107782
0.000104484
9.63888e-05
9.3066e-05
8.40895e-05
8.02924e-05
7.13547e-05
6.75502e-05
6.25349e-05
5.9869e-05
5.81311e-05
5.71171e-05
5.70428e-05
5.70657e-05
5.73391e-05
5.77431e-05
5.9542e-05
6.14597e-05
6.66105e-05
7.10388e-05
8.53452e-05
9.16099e-05
0.000101366
0.000103617
0.00010944
0.000116774
0.000138417
0.00014551
0.000171847
0.000158555
0.000175371
0.000161034
0.000151365
0.00013218
0.000112634
9.08781e-05
8.47675e-05
7.59463e-05
7.44309e-05
7.30419e-05
7.27903e-05
7.30886e-05
7.39512e-05
7.59331e-05
7.68879e-05
7.71074e-05
7.61089e-05
7.43746e-05
7.36972e-05
7.37492e-05
7.46009e-05
7.51356e-05
7.51046e-05
7.41904e-05
7.33456e-05
7.21102e-05
7.06533e-05
6.92179e-05
6.84631e-05
6.84957e-05
6.95398e-05
7.40148e-05
8.67243e-05
0.000110124
0.000142577
0.000158487
0.00016052
0.000158471
0.000154724
0.000148967
0.000144457
0.000141674
0.000137437
0.000134493
0.00013184
0.000128102
0.000119192
0.000114992
0.000115325
0.00011965
0.000132445
0.000137492
0.000134084
0.000126581
0.000114622
0.000106026
9.62038e-05
9.10694e-05
8.57901e-05
8.25677e-05
7.99864e-05
7.8049e-05
7.62895e-05
7.57263e-05
7.58234e-05
7.62198e-05
7.75429e-05
7.92215e-05
5.87496e-06
5.83756e-06
5.74348e-06
5.77461e-06
5.64063e-06
5.65999e-06
5.47303e-06
5.46938e-06
5.24109e-06
5.18004e-06
4.92986e-06
4.79587e-06
4.5042e-06
4.34969e-06
4.2275e-06
4.19561e-06
4.1865e-06
4.20095e-06
4.22492e-06
4.31898e-06
4.34261e-06
4.50141e-06
4.51711e-06
4.78838e-06
4.82389e-06
5.28842e-06
5.31318e-06
5.75113e-06
5.70554e-06
6.09951e-06
6.01317e-06
6.38993e-06
6.28092e-06
6.70052e-06
6.59798e-06
7.07023e-06
7.00386e-06
7.59822e-06
7.72998e-06
8.59031e-06
8.91673e-06
9.87683e-06
1.03006e-05
1.07811e-05
1.07927e-05
1.07195e-05
1.04089e-05
1.0143e-05
9.75501e-06
9.54816e-06
9.13807e-06
9.03628e-06
8.67833e-06
8.92057e-06
8.85577e-06
9.55812e-06
9.70977e-06
1.13025e-05
1.14605e-05
1.329e-05
1.3341e-05
1.52014e-05
1.53045e-05
1.7365e-05
1.76452e-05
1.958e-05
1.98813e-05
2.13464e-05
2.14489e-05
2.20189e-05
2.32861e-05
2.54531e-05
3.06923e-05
3.3615e-05
3.98923e-05
4.23011e-05
4.73417e-05
4.86918e-05
5.12946e-05
5.07148e-05
5.02785e-05
4.76126e-05
4.53772e-05
4.03502e-05
3.8546e-05
3.84356e-05
3.96059e-05
4.22215e-05
5.17634e-05
6.30159e-05
8.80015e-05
0.000102408
0.000129652
0.000142297
0.000157205
0.000160549
0.00016122
0.000159326
0.000156429
0.00014889
0.000141565
0.000133857
0.000125984
0.000116772
0.000105626
9.48781e-05
8.49567e-05
7.69417e-05
7.09957e-05
6.60261e-05
6.37655e-05
6.09368e-05
6.03631e-05
5.91417e-05
5.92433e-05
5.88689e-05
5.83001e-05
5.78412e-05
5.70937e-05
5.7444e-05
5.796e-05
6.04134e-05
6.49972e-05
7.76853e-05
8.37677e-05
9.21791e-05
9.36691e-05
9.81601e-05
0.000105604
0.000117204
0.000148848
0.000150845
0.000165349
0.000160184
0.000152322
0.000132214
0.000118566
9.80295e-05
8.90171e-05
8.16697e-05
7.82177e-05
7.64082e-05
7.60676e-05
7.66027e-05
7.71564e-05
7.83133e-05
7.84332e-05
7.78113e-05
7.72452e-05
7.7339e-05
7.74411e-05
7.79322e-05
7.80994e-05
7.82068e-05
7.81905e-05
7.73475e-05
7.52128e-05
7.29208e-05
7.09483e-05
6.93974e-05
6.93444e-05
7.05069e-05
7.59822e-05
9.19154e-05
0.000125053
0.000159748
0.000170699
0.000169566
0.000165919
0.000157061
0.000148246
0.000138727
0.000133522
0.000132691
0.000132889
0.000132445
0.000130748
0.000128455
0.000121692
0.000113683
0.000110297
0.000110889
0.00011473
0.000124448
0.000128773
0.000126018
0.000118813
0.000113029
0.000104405
9.93101e-05
9.39478e-05
9.03923e-05
8.7041e-05
8.49206e-05
8.32064e-05
8.2291e-05
8.22821e-05
8.25068e-05
8.32351e-05
8.374e-05
4.33161e-06
4.21119e-06
4.18667e-06
4.15587e-06
4.07218e-06
4.0412e-06
3.93276e-06
3.89573e-06
3.76166e-06
3.71963e-06
3.59869e-06
3.57263e-06
3.50359e-06
3.51219e-06
3.50316e-06
3.52296e-06
3.52448e-06
3.53854e-06
3.55999e-06
3.56882e-06
3.59577e-06
3.59533e-06
3.62829e-06
3.64273e-06
3.71181e-06
3.75933e-06
3.84095e-06
3.91715e-06
3.93782e-06
4.00953e-06
4.03516e-06
4.12117e-06
4.13977e-06
4.25024e-06
4.22916e-06
4.34204e-06
4.30649e-06
4.46451e-06
4.44723e-06
4.61148e-06
4.65432e-06
4.90738e-06
5.12964e-06
5.23356e-06
5.43276e-06
5.44204e-06
5.51278e-06
5.51215e-06
5.59112e-06
5.61812e-06
5.71163e-06
5.81021e-06
5.9658e-06
6.34785e-06
6.68795e-06
7.59696e-06
8.02837e-06
9.18854e-06
9.56531e-06
1.07464e-05
1.10117e-05
1.21922e-05
1.22774e-05
1.34035e-05
1.35151e-05
1.49419e-05
1.49369e-05
1.6017e-05
1.58533e-05
1.65504e-05
1.66934e-05
1.84333e-05
1.99474e-05
2.41175e-05
2.72897e-05
3.01525e-05
3.28958e-05
3.48546e-05
3.55382e-05
3.5349e-05
3.51037e-05
3.38516e-05
3.36291e-05
3.3825e-05
3.50859e-05
3.73911e-05
4.40744e-05
5.54284e-05
8.19552e-05
0.000100688
0.000136666
0.00015502
0.000174377
0.000176157
0.00017983
0.000177172
0.000176509
0.000171608
0.000169269
0.000161878
0.000157213
0.000144104
0.000136757
0.000120328
0.000112542
9.82751e-05
9.14554e-05
8.22896e-05
7.92138e-05
7.45316e-05
7.38858e-05
7.21073e-05
7.13899e-05
6.8838e-05
6.75313e-05
6.51949e-05
6.33031e-05
6.11e-05
5.83829e-05
5.80214e-05
5.61868e-05
5.61536e-05
5.66477e-05
6.21516e-05
6.87194e-05
7.64953e-05
7.97637e-05
8.57619e-05
9.05585e-05
0.000100951
0.000111607
0.000136159
0.000145877
0.000157483
0.000154279
0.000139012
0.000124289
0.000107601
9.66603e-05
8.99453e-05
8.55552e-05
8.37631e-05
8.193e-05
8.07216e-05
7.98055e-05
7.95576e-05
7.90778e-05
7.90334e-05
7.95838e-05
8.11063e-05
8.15952e-05
8.17684e-05
8.17519e-05
8.15109e-05
8.06958e-05
7.82691e-05
7.54906e-05
7.28735e-05
7.07693e-05
7.06873e-05
7.20745e-05
7.82333e-05
9.69805e-05
0.000138383
0.000174813
0.000182253
0.000179256
0.000171071
0.000153771
0.00014085
0.000133088
0.000126294
0.000120103
0.000118426
0.000119446
0.000124703
0.000127114
0.000126767
0.000123878
0.000114801
0.000108244
0.000105509
0.0001062
0.00010912
0.000116222
0.000120495
0.000118017
0.000114258
0.000108003
0.000104271
9.92291e-05
9.62231e-05
9.2642e-05
9.05934e-05
8.87187e-05
8.73509e-05
8.66936e-05
8.58231e-05
8.52345e-05
8.43341e-05
3.55904e-06
3.4542e-06
3.48145e-06
3.41912e-06
3.40864e-06
3.35061e-06
3.31939e-06
3.27881e-06
3.26279e-06
3.27079e-06
3.27715e-06
3.31655e-06
3.36594e-06
3.43945e-06
3.52048e-06
3.58445e-06
3.70069e-06
3.7772e-06
3.96091e-06
4.06643e-06
4.35235e-06
4.46708e-06
4.81062e-06
4.91132e-06
5.22314e-06
5.2857e-06
5.49454e-06
5.52644e-06
5.64752e-06
5.68954e-06
5.83748e-06
5.90772e-06
6.13055e-06
6.2214e-06
6.46623e-06
6.48091e-06
6.51214e-06
6.48081e-06
6.43903e-06
6.3173e-06
6.24605e-06
6.22943e-06
6.23493e-06
6.28122e-06
6.32418e-06
6.43929e-06
6.52846e-06
6.67671e-06
6.81429e-06
6.97705e-06
7.22883e-06
7.59207e-06
8.44723e-06