/*--------------------------------*- C++ -*----------------------------------*\
| =========                 |                                                 |
| \\      /  F ield         | OpenFOAM: The Open Source CFD Toolbox           |
|  \\    /   O peration     | Version:  2.4.0                                 |
|   \\  /    A nd           | Web:      www.OpenFOAM.org                      |
|    \\/     M anipulation  |                                                 |
\*---------------------------------------------------------------------------*/
FoamFile
{
    version     2.0;
    format      ascii;
    class       volScalarField;
    location    "0.65";
    object      p;
}
// * * * * * * * * * * * * * * * * * * * * * * * * * * * * * * * * * * * * * //

dimensions      [0 2 -2 0 0 0 0];

internalField   nonuniform List<scalar> 
8800
(
50.4599
38.1266
30.7325
27.152
25.3178
23.9465
22.6216
21.5792
20.7033
19.5529
18.5459
17.8164
16.8622
15.8145
15.0745
14.2304
13.4759
12.5461
12.0627
10.9236
47.3465
37.7734
30.903
27.2647
25.3759
23.9767
22.6257
21.5741
20.7106
19.5505
18.5327
17.8206
16.8658
15.8043
15.0748
14.2295
13.4816
12.5321
12.0755
10.7713
45.3801
37.853
31.5034
27.6397
25.5451
24.0562
22.6683
21.6075
20.7394
19.5655
18.5382
17.8326
16.8692
15.7962
15.0775
14.2231
13.4901
12.5117
12.1551
10.7092
43.8432
37.917
32.0896
28.0664
25.7278
24.1367
22.7338
21.6696
20.7811
19.6035
18.5737
17.8521
16.8745
15.8045
15.0825
14.2193
13.4853
12.5092
12.27
10.8282
42.5939
37.8892
32.5665
28.4826
25.8954
24.1915
22.7899
21.7353
20.8188
19.658
18.6305
17.874
16.8738
15.834
15.0815
14.2214
13.4617
12.533
12.2017
11.1031
41.6104
37.7891
32.9361
28.8398
26.0464
24.2268
22.828
21.7848
20.8466
19.7172
18.6935
17.8916
16.8722
15.8659
15.0796
14.2241
13.4374
12.5884
12.2271
11.7114
40.8563
37.6717
33.2037
29.1284
26.1868
24.2483
22.8443
21.8214
20.8676
19.7687
18.7475
17.9055
16.8744
15.8954
15.0729
14.2262
13.4205
12.6824
12.2966
12.34
40.3077
37.5672
33.3856
29.3462
26.3121
24.2585
22.8478
21.8468
20.8811
19.809
18.7907
17.9177
16.874
15.9158
15.0643
14.2352
13.4094
12.7896
12.3557
12.8912
39.9508
37.4892
33.5004
29.4936
26.3991
24.2616
22.8514
21.8634
20.8841
19.8377
18.8255
17.9239
16.8732
15.9343
15.0529
14.245
13.3901
12.907
12.3978
13.3545
39.7753
37.4481
33.5548
29.5706
26.441
24.2623
22.8592
21.8742
20.8782
19.8549
18.8493
17.9261
16.8716
15.9536
15.0489
14.2629
13.375
13.0209
12.4325
13.667
39.7766
37.4385
33.5517
29.5743
26.4401
24.2575
22.8691
21.8784
20.8626
19.8614
18.8613
17.9221
16.8695
15.9779
15.0498
14.2848
13.384
13.1075
12.4753
13.833
39.9515
37.4794
33.4922
29.5052
26.3945
24.2479
22.8825
21.8746
20.8363
19.8564
18.8656
17.9104
16.8664
16.0025
15.0618
14.306
13.4182
13.1524
12.5268
13.8587
40.3104
37.5539
33.3707
29.3669
26.3059
24.2296
22.8992
21.8666
20.8014
19.8402
18.8573
17.8934
16.8633
16.0302
15.0786
14.3375
13.4618
13.1741
12.5838
13.7726
40.8612
37.6522
33.1817
29.1582
26.1812
24.2047
22.9109
21.8487
20.759
19.8136
18.8394
17.8705
16.8564
16.0581
15.1024
14.3784
13.5157
13.1284
12.6437
13.6178
41.621
37.7633
32.9071
28.8812
26.0401
24.1681
22.9162
21.8185
20.7043
19.7801
18.8146
17.8367
16.8486
16.0776
15.1312
14.4029
13.5805
13.1325
12.7017
13.4128
42.6076
37.8568
32.5368
28.5402
25.8852
24.1137
22.9045
21.78
20.6351
19.7377
18.79
17.801
16.8329
16.0913
15.1614
14.4223
13.6491
13.1481
12.7697
13.1544
43.8588
37.8855
32.0545
28.1414
25.7171
24.0345
22.8678
21.7327
20.5642
19.6906
18.7667
17.7655
16.8202
16.0944
15.189
14.4327
13.712
13.1735
12.8492
12.865
45.3969
37.8249
31.4641
27.72
25.5339
23.9413
22.8114
21.6825
20.5111
19.6509
18.7464
17.7437
16.8148
16.0925
15.2093
14.4418
13.7556
13.1993
12.9141
12.6892
47.3637
37.7506
30.8591
27.3418
25.3686
23.8644
22.7633
21.6496
20.4906
19.632
18.736
17.7389
16.8196
16.0917
15.221
14.4502
13.7759
13.2187
12.9114
12.5899
50.479
38.1046
30.6907
27.2276
25.3066
23.8434
22.7551
21.6438
20.4989
19.6348
18.734
17.7426
16.8272
16.0907
15.2245
14.4547
13.7802
13.2283
12.9121
12.6972
11.8606
12.0122
12.0041
11.9574
11.9597
12.0147
12.1131
12.2048
12.2516
12.2554
12.2081
12.1221
12.0273
11.895
11.7853
11.6492
11.5608
11.4487
11.3894
11.3045
11.2554
11.1805
11.124
11.063
11.0418
11.0724
11.1959
11.4206
11.7947
12.2939
12.9632
13.7121
14.4955
15.1816
15.6804
15.8583
15.6172
14.8344
13.6183
11.9324
10.0064
7.805
5.68762
3.56016
1.87548
0.314517
-0.673954
-1.41461
-1.76337
-1.79417
-1.37888
-0.404077
1.0895
2.88215
5.18277
8.23544
11.5848
15.035
18.0139
20.5502
22.7296
24.6916
25.9553
26.4749
26.0449
24.9756
23.2077
20.8562
18.0855
14.9498
11.7157
8.43782
4.85517
1.21764
-2.53864
-6.81926
-10.7205
-14.6411
-18.5504
-22.0886
-25.0537
-27.7014
-29.8085
-31.2889
-31.7966
-31.7809
-31.02
-29.414
-27.3197
-25.0814
-22.7479
-20.5052
-18.3012
-16.1966
-14.2556
-11.8494
-9.21996
-6.49407
-3.42488
-0.375576
2.9082
5.93407
8.79648
11.4477
13.6077
15.4147
17.1661
19.031
20.6755
22.1885
23.6989
25.2424
26.7842
28.3199
29.5959
31.0683
32.4385
33.7022
34.9179
35.9387
36.6375
37.0068
37.4055
37.696
37.9584
37.7499
37.1027
35.5333
33.8989
32.5447
31.5191
31.2719
30.931
30.8401
30.4158
29.22
27.6426
24.5262
21.0672
18.4761
14.2739
10.6839
7.83245
3.00058
0.940861
-3.29345
-5.58983
-8.22226
-10.2415
-12.3413
-14.1215
-14.299
-13.4041
-11.3417
-9.17454
-7.08086
-4.79473
-2.40245
-0.329776
1.47776
2.81611
3.73733
4.57679
5.70434
6.97269
8.68134
10.5993
12.9527
15.905
19.7986
24.0751
29.0698
35.0117
40.8716
46.1637
50.8138
54.5897
57.0579
57.566
55.8307
51.5844
45.5129
39.0237
32.4515
25.9464
18.8074
12.663
6.16629
-0.11556
-5.06364
-9.9334
-12.9481
-14.7499
-15.0119
-13.7595
-11.2893
-7.76689
-3.38415
1.91904
7.81138
11.6394
11.951
12.1032
12.078
12.0234
11.9952
12.0222
12.0991
12.1591
12.1962
12.1834
12.1226
12.0516
11.9074
11.8268
11.6708
11.6086
11.4663
11.4216
11.307
11.2484
11.1634
11.1022
11.05
11.0442
11.0978
11.2396
11.5004
11.8825
12.3952
13.0685
13.7788
14.5063
15.1247
15.5617
15.679
15.5024
14.7406
13.5612
11.91
10.0288
7.88532
5.78465
3.72914
2.08892
0.621384
-0.336613
-1.0164
-1.42759
-1.35445
-0.945187
0.167267
1.70027
3.52482
5.59838
8.52694
11.6982
15.0429
18.0843
20.457
22.4183
23.9633
25.0675
25.5695
25.451
24.4454
22.9076
20.6689
18.1056
15.3282
12.1392
9.01188
5.76035
2.08348
-1.47199
-5.44681
-9.32497
-12.9704
-16.5889
-19.9599
-22.6372
-24.9336
-26.6899
-27.9661
-28.4643
-28.385
-27.8495
-26.601
-24.8618
-23.1291
-21.5042
-19.653
-17.8781
-16.0452
-14.327
-12.0552
-9.54076
-6.83318
-3.62358
-0.598547
2.38422
5.3471
8.2151
10.74
12.8406
14.7002
16.5142
18.2013
19.8913
21.4564
23.0979
24.5847
26.1645
27.6943
29.1399
30.7566
32.2358
33.5393
34.7787
35.9077
36.6277
37.1064
37.3679
37.7888
38.1308
37.9781
37.426
36.2906
34.8531
33.1386
32.301
31.4379
31.4111
31.0515
31.0378
29.4509
27.4021
25.5654
21.5771
18.3173
14.9809
10.1343
8.4887
3.5699
1.26229
-2.31875
-4.89491
-7.03976
-9.05728
-10.702
-12.3399
-12.5302
-11.9836
-10.4989
-8.79989
-6.93255
-4.78181
-2.44696
-0.282683
1.4577
3.06269
4.10361
4.97503
6.08066
7.34828
8.82696
10.4956
12.599
15.1675
18.6325
22.8459
27.4782
32.7594
38.5024
43.7449
48.3269
52.2101
54.8152
55.2788
53.855
50.0942
44.3309
38.3153
32.0955
25.5865
18.727
12.5171
6.26018
-0.162544
-5.09395
-9.4649
-12.3894
-14.0859
-14.3881
-13.0254
-10.5856
-7.0667
-2.84054
2.19808
7.17513
11.6864
12.0743
12.3253
12.3027
12.1534
12.002
11.9205
11.9683
12.0319
12.1132
12.1351
12.1
12.0694
11.9029
11.8641
11.6691
11.6433
11.4589
11.4471
11.3054
11.255
11.1722
11.1094
11.0836
11.0825
11.1813
11.3188
11.6147
11.9866
12.4764
13.1076
13.733
14.3583
14.8997
15.2873
15.3168
15.0844
14.3772
13.2501
11.6929
9.89725
7.88858
5.89696
3.98038
2.43996
1.12119
0.104741
-0.385295
-0.779455
-0.517701
-0.0791016
0.96528
2.40029
4.22761
6.33463
9.16496
12.2284
15.061
17.6481
19.4579
21.3094
22.8364
24.0344
24.4438
24.3019
23.2476
21.9598
20.251
17.9058
15.3248
12.5311
9.56253
6.56549
3.16439
-0.198811
-3.73322
-7.41742
-10.6857
-13.9422
-17.2646
-19.5357
-21.4974
-23.1182
-24.2016
-24.6457
-24.7121
-24.3994
-23.7423
-22.6338
-21.388
-20.2291
-18.9
-17.5646
-15.9324
-14.4526
-12.5097
-10.0954
-7.38839
-4.48392
-1.39726
1.68691
4.5903
7.26323
9.83334
12.0141
13.8102
15.5858
17.3221
19.0263
20.5698
22.1539
23.7788
25.5397
27.0727
28.6045
30.2357
31.8358
33.295
34.6878
35.858
36.6079
37.1587
37.589
38.0766
38.2372
38.364
37.883
37.1261
35.604
34.423
33.4892
32.6723
32.4995
32.1355
31.7228
30.9542
28.3426
26.2956
22.5131
17.926
16.3324
10.882
9.00965
4.93223
2.0409
-1.14735
-4.22474
-6.01604
-7.8187
-9.1239
-10.6419
-10.8575
-10.503
-9.39419
-8.09595
-6.40642
-4.39476
-2.08267
0.0753909
1.75269
3.2726
4.39593
5.23648
6.19509
7.30679
8.53282
9.97329
11.7173
13.8425
16.636
20.2994
24.616
29.4937
34.7881
39.6754
44.1744
48.196
50.9448
51.5939
50.407
47.3187
42.3172
36.922
31.246
24.9753
18.5955
12.4499
6.61049
0.55169
-4.27426
-8.28736
-11.3407
-13.1216
-13.2441
-11.7521
-9.41808
-5.98508
-2.03154
2.42017
6.67803
12.0978
12.3851
12.4395
12.1919
11.9346
11.7654
11.6792
11.7732
11.8679
12.0212
12.0761
12.0645
12.0754
11.8888
11.9066
11.6701
11.685
11.4491
11.475
11.3102
11.2673
11.2097
11.1354
11.1601
11.1353
11.3127
11.4018
11.7426
12.0465
12.5225
13.054
13.564
14.1066
14.4995
14.828
14.7363
14.5169
13.8337
12.7777
11.3927
9.74874
7.95193
6.13538
4.42985
2.92192
1.86942
0.911047
0.600978
0.258656
0.552852
1.06714
2.02728
3.54634
5.32932
7.40035
9.74704
12.2421
14.5381
16.8021
18.6201
20.4355
21.5971
22.6102
22.7583
22.748
22.0954
21.0525
19.5096
17.4528
15.177
12.74
9.99628
7.20819
4.30882
1.18753
-1.84772
-5.00229
-7.87183
-10.6867
-13.286
-15.8854
-17.6395
-19.2037
-20.3695
-20.9256
-21.1436
-21.1885
-21.1167
-20.5777
-19.7306
-19.0546
-18.2271
-17.3085
-16.0646
-14.924
-13.2636
-11.1946
-8.50672
-5.56404
-2.5136
0.522082
3.55572
6.22351
8.76877
10.9579
12.8549
14.5277
16.1565
17.8644
19.5553
21.2115
22.8442
24.5103
26.275
27.9392
29.5951
31.2441
32.8404
34.34
35.6495
36.6625
37.3206
37.8324
38.2607
38.781
39.1178
38.8998
38.0433
36.7616
35.8334
34.6724
34.9558
34.1562
34.1255
33.1436
33.2004
30.2293
26.2013
24.45
19.0962
17.5853
12.6141
9.86789
6.47138
2.86377
0.0304139
-3.23199
-4.86887
-6.5827
-7.82656
-8.98887
-9.39259
-9.1481
-8.18298
-6.97639
-5.43691
-3.43897
-1.21847
0.821136
2.4082
3.72094
4.72251
5.49309
6.20423
7.0176
7.87212
8.86241
10.0386
11.7538
13.7625
16.4912
20.1211
24.459
29.1435
34.0338
38.5421
42.5195
45.3809
46.5468
45.9341
43.6526
39.6176
34.8101
29.9338
24.266
18.4866
12.6845
7.2938
1.7712
-2.91117
-6.8154
-9.78845
-11.1661
-11.0559
-9.74145
-7.5328
-4.5045
-1.21671
2.56027
6.27978
13.7253
13.7477
12.7502
11.764
11.2764
11.1847
11.2528
11.4794
11.6415
11.8991
12.0102
12.0432
12.0646
11.9049
11.9418
11.6896
11.7152
11.4622
11.4809
11.3157
11.2847
11.2592
11.1762
11.2495
11.2049
11.4352
11.4804
11.8306
12.0673
12.4847
12.9122
13.3066
13.7498
13.9837
14.2491
14.0738
13.8716
13.2055
12.2828
11.1117
9.60568
8.08575
6.50651
5.13884
3.7798
2.87868
2.09319
1.76011
1.59192
1.81676
2.49494
3.42564
4.818
6.41644
8.10348
10.0902
12.2445
14.3414
16.4308
17.8126
19.2883
20.134
21.0882
21.3365
21.3779
20.8548
19.8954
18.6436
17.0546
15.1343
12.9276
10.5682
7.99019
5.46784
2.71597
0.0253209
-2.69365
-5.19143
-7.79677
-10.1614
-12.3045
-13.8881
-15.4381
-16.5928
-17.4276
-17.9019
-18.2372
-18.4347
-18.3523
-18.056
-17.7523
-17.5599
-17.2216
-16.452
-15.6059
-14.1869
-12.3613
-9.97618
-7.14036
-3.93346
-0.893987
2.14825
4.87291
7.64756
9.85423
11.6733
13.3884
15.0466
16.666
18.2948
19.9227
21.68
23.4133
25.1361
26.862
28.7571
30.6142
32.236
33.8156
35.3573
36.4929
37.2887
37.978
38.6425
39.1688
39.3072
39.2613
38.6312
38.5796
37.3885
36.9312
36.6896
36.2866
36.7381
35.9348
34.1616
32.3465
27.4945
26.8427
21.3859
18.7844
14.6691
10.8294
7.91443
4.00697
1.30417
-1.82293
-3.66887
-5.22663
-6.50391
-7.8479
-8.1185
-7.83596
-6.95359
-5.61705
-4.02977
-1.98504
0.00684548
1.75501
3.30205
4.51325
5.26211
5.80439
6.22371
6.62745
6.87406
7.0842
7.55879
8.3849
9.55914
11.6958
14.3855
17.7681
21.6942
26.327
31.0973
35.3295
38.5634
40.4178
40.618
39.3019
36.4017
32.3919
28.395
23.5939
18.6094
13.4178
8.49337
3.51481
-0.918892
-4.39028
-6.95174
-8.18054
-8.36105
-7.46757
-5.67378
-3.11092
-0.374453
2.81874
6.04485
14.788
14.6445
12.9821
11.4431
10.7115
10.6377
10.8284
11.1618
11.4103
11.7724
11.9619
12.0426
12.0538
11.94
11.9623
11.7442
11.7413
11.5103
11.5002
11.331
11.3148
11.2929
11.2243
11.2991
11.2702
11.5203
11.5453
11.8623
12.0362
12.393
12.737
13.0064
13.3644
13.4801
13.6677
13.4395
13.2325
12.6355
11.7956
10.8654
9.55014
8.30823
6.9943
5.89435
4.73095
3.92882
3.37856
3.00697
2.96157
3.2205
3.8689
4.75448
5.81669
7.21026
8.75074
10.5711
12.489
14.0867
15.7424
16.8651
18.3044
19.028
19.9576
20.2201
20.026
19.7021
19.0252
18.0238
16.6249
15.1309
13.2257
11.2851
9.0549
6.85504
4.44974
1.93752
-0.400345
-2.58927
-4.73707
-6.73189
-8.73124
-10.1939
-11.5797
-12.782
-13.8814
-14.5547
-15.035
-15.5784
-15.9388
-16.3107
-16.5332
-16.9244
-17.1206
-16.9277
-16.5844
-15.5628
-14.1158
-11.804
-9.02545
-5.86629
-2.51504
0.754705
3.52252
6.23794
8.5532
10.5448
12.2462
13.7781
15.4088
17.0089
18.5605
20.2371
22.0176
23.8199
25.724
27.5742
29.5031
31.3402
33.173
34.7414
36.0011
37.0864
37.9227
38.5484
39.0851
39.2685
39.4853
39.6208
40.1814
40.2497
41.6324
39.5855
40.1996
39.2303
38.7015
35.3482
35.6362
30.4052
28.7352
24.1282
20.1715
16.6629
12.1901
9.37472
5.54306
2.73496
-0.0636615
-2.03612
-3.49047
-4.81994
-5.86241
-6.29788
-6.12862
-5.43407
-4.11478
-2.3319
-0.334587
1.53591
3.03169
4.37257
5.45254
6.08257
6.19696
6.37953
6.21052
5.81969
5.11723
4.49095
4.12795
4.23752
5.40627
7.24833
9.70049
13.0491
17.3622
22.1622
26.7698
30.7178
33.5371
34.8041
34.5281
32.889
29.9761
26.8664
23.1674
19.0249
14.6221
10.1953
5.8916
1.90537
-1.15764
-3.55396
-5.08378
-5.60494
-4.93713
-3.62948
-1.54397
0.738306
3.33799
6.06036
15.2707
15.0301
13.0833
11.2889
10.3847
10.27
10.4828
10.8554
11.1939
11.6344
11.9034
12.0372
12.0454
12.0012
11.9794
11.8145
11.7635
11.572
11.52
11.3486
11.3685
11.3244
11.2888
11.3333
11.3454
11.5587
11.5927
11.838
11.9876
12.2731
12.5618
12.7448
12.9939
13.0448
13.1622
12.9383
12.6808
12.1996
11.4685
10.6873
9.60986
8.59444
7.49838
6.56156
5.6422
4.92598
4.49713
4.2322
4.20336
4.46906
4.99264
5.768
6.62389
7.93916
9.32763
10.8068
12.3427
13.5828
15.2421
16.3565
17.6455
18.4893
19.0375
19.2598
19.2652
18.9148
18.3093
17.5359
16.3174
15.149
13.6023
12.0278
10.1925
8.28621
6.31094
4.22342
2.18181
0.350922
-1.46028
-3.19366
-4.97117
-6.32508
-7.6425
-8.90088
-10.0055
-10.916
-11.7919
-12.7856
-13.7168
-14.7194
-15.4842
-16.4417
-17.3544
-17.8087
-18.0408
-17.5573
-16.3996
-14.3479
-11.5422
-8.17027
-4.62413
-1.03676
2.17755
5.01521
7.34292
9.2992
11.0714
12.552
14.0194
15.4938
17.0807
18.7696
20.5921
22.37
24.2433
26.2355
28.3624
30.326
32.208
33.9941
35.556
36.6767
37.6377
38.5711
39.3988
39.7649
40.0313
40.5038
41.5832
43.0283
43.3502
43.4406
43.4042
41.9935
42.4065
38.9871
38.7224
33.6721
30.4699
26.9292
21.7972
18.2994
13.8863
10.9977
7.50917
4.61116
2.09865
0.179465
-1.26528
-2.72878
-3.70089
-4.16454
-3.99386
-3.19239
-2.01634
-0.291121
1.69101
3.39521
4.60061
5.74948
6.56782
7.11275
7.00398
6.58884
5.89232
4.79154
3.02405
1.29393
-0.270618
-1.52998
-1.72576
-0.781884
0.999609
4.05641
7.9728
12.6236
17.5303
22.283
26.2143
28.8056
29.774
29.4554
27.8447
25.7304
23.0827
19.7729
16.1745
12.3343
8.76686
5.18539
2.21938
-0.124198
-1.65302
-2.26509
-1.84987
-1.00369
0.520263
2.13153
4.08972
6.2355
15.4382
15.131
13.0841
11.2526
10.2469
10.0679
10.2209
10.6091
10.9921
11.5081
11.8352
12.0189
12.0541
12.0385
11.984
11.8409
11.7874
11.5998
11.5415
11.3857
11.411
11.3728
11.35
11.3723
11.3993
11.5871
11.6311
11.8017
11.9423
12.1639
12.3992
12.5051
12.681
12.7248
12.7489
12.5728
12.2943
11.9165
11.2512
10.583
9.73952
8.83366
7.97596
7.17993
6.41911
5.7946
5.49021
5.29809
5.17823
5.46716
5.8363
6.5678
7.33227
8.41694
9.5569
10.7127
12.1929
13.4315
14.874
15.8852
16.9125
17.6423
18.2036
18.5243
18.5373
18.2441
17.723
17.1633
16.1916
15.2617
14.0517
12.7046
11.3054
9.81332
8.25725
6.59787
4.94956
3.31232
1.72276
0.297449
-1.26089
-2.60218
-3.84978
-5.02179
-6.37284
-7.61806
-8.91563
-10.3348
-11.6768
-13.2889
-14.7528
-16.1852
-17.8095
-19.0359
-19.8178
-20.1074
-19.3431
-17.5925
-14.7384
-10.9145
-6.92792
-2.8519
0.619795
3.55554
6.22986
8.15887
9.79219
11.2172
12.5804
13.9104
15.5081
17.1959
18.9309
20.8564
22.8106
24.9321
27.1376
29.2088
31.3524
33.3254
34.9371
36.2913
37.5716
38.8181
39.8126
40.5444
41.2369
42.0542
43.0302
44.1187
44.4845
45.7055
45.4604
45.356
45.8437
42.548
40.8287
37.0312
32.3977
29.0545
23.8612
20.1943
16.1878
13.2143
9.89548
6.85952
4.42977
2.60774
1.25663
-0.031754
-1.05771
-1.64464
-1.31524
-0.38527
0.800515
2.33938
3.97176
5.45126
6.51882
7.47731
8.23472
8.37842
7.95062
7.08824
5.81417
3.79939
1.14834
-1.58601
-4.20301
-6.59702
-8.17501
-8.3797
-7.19866
-4.76783
-0.974825
3.42876
8.43711
13.9472
18.9954
22.9069
25.3171
26.396
26.1659
25.1165
23.3252
20.8561
18.0796
14.871
11.8604
8.66634
5.86403
3.66888
2.22374
1.40482
1.17712
1.44327
2.41762
3.58349
4.94394
6.5361
15.4905
15.0913
13.0083
11.2048
10.1779
9.94674
10.0458
10.4392
10.8501
11.4313
11.7786
12.0083
12.0601
12.0732
11.986
11.8598
11.8003
11.6169
11.5502
11.4014
11.4367
11.4051
11.3925
11.4077
11.4498
11.6109
11.6559
11.7804
11.8957
12.0718
12.2416
12.3375
12.4352
12.4663
12.4385
12.3003
12.025
11.6883
11.1525
10.5383
9.87523
9.08711
8.41452
7.72648
7.07701
6.56258
6.27676
6.15718
5.99635
6.25316
6.57952
7.19458
7.79503
8.60536
9.68314
10.8135
12.1499
13.1812
14.3003
15.2704
16.1744
16.9571
17.5088
17.8154
17.8804
17.769
17.3802
17.0072
16.2837
15.4705
14.5702
13.5057
12.401
11.2429
10.049
8.67864
7.29803
5.97241
4.66023
3.41969
2.11982
0.875571
-0.384062
-1.6095
-3.09892
-4.6327
-6.2072
-7.84666
-9.67216
-11.6727
-13.8458
-16.0608
-18.26
-20.3156
-21.9818
-22.9517
-22.5663
-21.0495
-18.1219
-13.8182
-9.36892
-4.73315
-0.661683
2.37774
5.05114
6.90832
8.50173
9.8413
11.06
12.3183
13.8693
15.5452
17.3845
19.3128
21.3482
23.6209
25.9904
28.2248
30.5264
32.657
34.4305
36.0596
37.6311
39.2475
40.5264
41.5666
42.4993
43.572
44.5075
45.5851
46.2926
47.2154
47.5283
47.6105
47.6919
45.4596
42.6279
39.7871
34.6898
31.2723
26.7434
22.8519
18.9722
15.7023
12.3925
9.30328
6.91002
5.30416
4.06603
3.0624
2.14747
1.62924
1.78594
2.63954
3.91982
5.31485
6.63561
7.84744
8.88874
9.76468
10.2461
10.1055
9.47045
7.97077
5.95361
3.14537
-0.370425
-3.99775
-7.3718
-10.4228
-12.8331
-14.1135
-13.696
-11.8415
-8.31642
-4.34041
0.41646
6.37276
12.4149
17.6093
21.5187
23.9996
25.063
25.0548
24.1394
22.4306
20.3631
17.6389
14.9591
12.1924
9.612
7.43172
5.79559
4.5787
3.83201
3.76522
4.30492
5.1125
5.98168
7.14764
15.5263
15.0541
12.9335
11.162
10.1392
9.89936
9.96358
10.3614
10.7853
11.3873
11.7434
12.0005
12.0717
12.0987
12.0013
11.8605
11.8081
11.6107
11.5468
11.4025
11.4362
11.4192
11.4043
11.4366
11.4738
11.6165
11.6568
11.7727
11.8386
12.0092
12.1168
12.2044
12.2209
12.2698
12.2028
12.045
11.8447
11.5078
11.1123
10.5343
10.0196
9.37562
8.77783
8.24924
7.63823
7.25334
6.9397
6.85281
6.72356
6.91554
7.18425
7.59529
8.1531
8.87457
9.90735
10.7936
11.7803
12.7168
13.717
14.6955
15.5465
16.2965
16.7749
17.2363
17.3767
17.4505
17.1939
16.9478
16.4997
15.8824
15.2284
14.3811
13.5302
12.5668
11.5983
10.5289
9.46051
8.36107
7.3705
6.33823
5.19968
4.00369
2.7563
1.55366
0.0920344
-1.45489
-3.23483
-5.16276
-7.45863
-10.0315
-12.8414
-15.7811
-18.8175
-21.5494
-23.8225
-25.4271
-25.4698
-24.1262
-20.9225
-16.2389
-11.2068
-6.19744
-1.92858
1.3133
4.09075
5.82065
7.30577
8.48503
9.5433
10.7961
12.2749
13.7789
15.5244
17.4881
19.6499
22.309
24.9263
27.3546
29.8678
32.2465
34.2331
35.8848
37.6915
39.5913
41.1942
42.5078
43.6086
44.7725
45.7667
46.5809
47.5098
48.1006
49.1262
49.3162
49.04
48.0521
44.5803
42.1426
37.719
34.2695
30.0419
25.9107
22.0483
18.5476
15.2009
12.1978
9.94358
8.30903
6.82442
5.90936
5.41448
5.17475
5.39924
6.00501
7.0212
8.37162
9.59921
10.6007
11.519
12.3998
12.8493
12.4877
11.3949
9.41311
6.63929
2.9692
-1.38381
-5.88944
-10.0611
-13.713
-16.5653
-18.2753
-18.2822
-16.4904
-13.5308
-10.1004
-5.76509
0.204788
6.93627
13.3025
18.6441
22.5709
24.8632
25.8376
25.7384
24.5625
22.946
20.5803
18.0868
15.6269
13.1388
10.9065
9.06895
7.6265
6.75911
6.47805
6.5528
6.85114
7.33376
8.15585
15.572
15.0114
12.87
11.111
10.109
9.89057
9.96684
10.3849
10.7997
11.387
11.7496
11.9984
12.0811
12.0969
12.0063
11.8415
11.8046
11.6063
11.5482
11.4086
11.4313
11.4218
11.3916
11.4507
11.4758
11.6218
11.6486
11.7436
11.7944
11.9299
11.9998
12.0638
12.0764
12.0534
12.0021
11.8554
11.6863
11.379
11.0642
10.5932
10.1499
9.65213
9.10812
8.71327
8.14703
7.84057
7.54539
7.46084
7.39917
7.40176
7.63664
7.97005
8.50808
9.09342
9.79311
10.5104
11.3902
12.3151
13.2197
14.115
14.8768
15.6303
16.1565
16.7024
16.9501
17.162
17.0807
16.9834
16.7503
16.3351
15.8723
15.2379
14.5351
13.8102
13.1254
12.3222
11.5052
10.6442
9.91662
9.06688
8.13737
7.0509
5.91865
4.83747
3.47058
1.78747
-0.25524
-2.57771
-5.28899
-8.27373
-11.6376
-15.1295
-18.6225
-21.9696
-24.8562
-26.9082
-27.3248
-26.1875
-22.7633
-17.9636
-12.4355
-7.13624
-2.64151
0.622842
3.27028
4.83856
6.2172
7.17997
8.03412
9.2423
10.5508
11.8817
13.6366
15.606
17.8431
20.8096
23.7503
26.6057
29.4817
32.1
34.1782
35.7423
37.7327
39.8445
41.705
43.1554
44.4033
45.583
46.7278
47.534
48.5538
48.9996
50.1951
50.7292
50.308
50.0064
47.0644
44.9415
41.162
37.5747
33.3578
29.2161
25.3744
21.8143
18.5359
15.5558
13.0965
11.2966
10.0411
9.12512
8.56692
8.64551
9.1693
9.62527
10.23
11.3542
12.527
13.5214
14.4636
15.3946
15.8817
15.3718
13.776
11.3863
7.96666
3.5599
-1.53168
-6.98865
-12.3433
-17.0289
-20.678
-22.7866
-22.8514
-20.5759
-17.3445
-13.9842
-9.94516
-4.17407
3.00926
10.4099
17.0747
22.2842
25.6275
27.485
28.0256
27.3221
26.0133
23.9288
21.631
19.3054
16.8162
14.591
12.6949
11.147
10.1176
9.44201
8.94637
8.7881
8.95799
9.39016
15.5915
14.9901
12.8329
11.0872
10.0914
9.91757
10.0473
10.4891
10.8994
11.4292
11.7745
12.0008
12.0778
12.0712
11.9966
11.8084
11.7957
11.5893
11.5459
11.4151
11.4161
11.4324
11.3811
11.4605
11.4728
11.6261
11.6242
11.7545
11.7494
11.8338
11.9096
11.9132
11.9609
11.8658
11.8656
11.6834
11.5738
11.3258
11.0102
10.6898
10.2782
9.91032
9.42599
9.11583
8.64023
8.30692
8.11987
7.9825
7.88053
7.78783
8.03718
8.32479
8.64674
9.02631
9.59511
10.341
11.0786
11.8889
12.6718
13.4802
14.2719
15.0389
15.5951
16.1629
16.5935
16.8731
17.0209
16.9901
16.958
16.7574
16.4467
16.0166
15.5968
15.1398
14.6379
14.1169
13.5482
12.8819
12.3053
11.6487
10.9416
10.1036
9.18097
8.01871
6.55257
4.73604
2.62319
0.0754651
-2.96952
-6.25198
-9.92933
-13.7894
-17.7755
-21.4741
-24.7235
-27.1395
-27.8548
-26.7915
-23.2329
-18.4436
-12.7445
-7.46235
-2.97762
0.209208
2.57011
3.96183
5.02694
5.76876
6.48292
7.7029
8.76807
9.92384
11.6408
13.5729
15.9922
19.1463
22.5144
25.8788
29.2032
32.2143
34.3189
35.8489
37.8676
40.0466
42.1045
43.6608
45.0004
46.2084
47.4569
48.4219
49.4864
50.16
51.1795
52.1237
51.9343
52.0019
49.9375
47.7698
44.2927
40.6442
36.5609
32.6262
28.8789
25.2945
21.9062
19.1148
16.7794
14.7293
13.4209
12.8682
12.1813
11.8268
12.4536
12.9307
13.2936
14.3524
15.4512
16.586
17.8098
18.7011
19.0914
18.5907
16.7298
13.843
9.89752
4.98409
-0.815996
-7.14523
-13.7806
-19.645
-24.3583
-27.5393
-27.7272
-24.5342
-20.4311
-16.5959
-12.4349
-6.6503
0.789299
9.10564
16.8071
23.0301
27.2979
29.9601
30.9786
30.86
29.763
27.9451
25.8419
23.4716
20.92
18.6609
16.6059
14.8103
13.4231
12.305
11.3868
10.8464
10.668
10.6527
15.4852
14.9178
12.7809
11.1045
10.1326
9.99366
10.2011
10.6615
11.0818
11.5059
11.825
11.9885
12.0597
12.0232
11.9588
11.7713
11.7442
11.5829
11.5169
11.4361
11.4121
11.4614
11.3899
11.4608
11.4812
11.5833
11.5979
11.6807
11.6912
11.7462
11.8142
11.783
11.8476
11.7379
11.7167
11.5787
11.4825
11.2988
11.0121
10.7984
10.4285
10.1539
9.77499
9.45928
9.08394
8.77087
8.63256
8.34918
8.27487
8.22642
8.32156
8.4678
8.59385
9.0124
9.50761
10.0764
10.6667
11.3422
12.0664
12.8959
13.6698
14.4071
15.1118
15.7157
16.2667
16.6604
16.9754
17.0926
17.2312
17.2012
17.0842
16.901
16.6845
16.4228
16.1366
15.7559
15.4251
15.0456
14.6005
14.1137
13.6598
12.941
12.0327
10.8913
9.50471
7.63745
5.39546
2.67393
-0.646961
-4.25432
-8.23202
-12.2898
-16.5546
-20.4485
-23.8394
-26.2615
-26.9508
-25.8803
-22.4019
-17.6687
-12.1702
-7.15902
-2.9974
-0.0377967
1.92725
3.01574
3.69631
4.2565
4.93458
5.99062
6.94652
7.97567
9.69315
11.6224
14.2385
17.4862
21.2994
25.084
28.8615
32.3777
34.5748
36.2321
38.2307
40.3875
42.5442
44.2209
45.5603
46.7989
48.1165
49.194
50.3284
51.3749
52.3663
53.5178
53.7061
53.8429
52.3233
50.1156
47.0733
43.6696
39.9021
36.0558
32.4264
29.0262
25.5968
22.6494
20.4927
18.4857
16.5944
15.9502
15.7387
15.0097
15.0593
15.7696
16.373
17.4787
18.6331
19.7179
21.017
22.0642
22.5023
21.9111
20.018
16.7417
12.2394
6.7982
0.317899
-6.62569
-14.0587
-20.7866
-26.2658
-29.9961
-30.649
-26.8822
-22.3978
-18.0221
-13.5418
-7.56678
0.168441
9.31795
17.6333
24.7168
29.7388
33.0526
34.5737
34.9419
33.8948
32.2898
30.2355
27.7492
25.087
22.6165
20.2661
18.1801
16.4538
14.9972
13.774
12.8936
12.3029
11.8104
15.1408
14.6348
12.6672
11.1522
10.2805
10.1708
10.456
10.8966
11.3244
11.6158
11.879
11.9719
12.0284
11.9667
11.8926
11.7522
11.6774
11.5916
11.481
11.4592
11.4027
11.4534
11.4126
11.4453
11.5001
11.5355
11.5884
11.598
11.6367
11.6568
11.7027
11.694
11.7179
11.6546
11.6074
11.5622
11.418
11.31
11.0788
10.8788
10.626
10.3843
10.0788
9.77445
9.52773
9.20594
8.97927
8.77467
8.69715
8.52905
8.46625
8.54398
8.6583
8.97148
9.2421
9.6687
10.1847
10.782
11.5006
12.2846
13.0435
13.8554
14.625
15.3088
16.0035
16.5596
16.9976
17.3023
17.5684
17.7614
17.8151
17.7418
17.7139
17.6843
17.4934
17.2273
17.1097
16.9982
16.7972
16.4095
16.0046
15.5196
14.7491
13.6334
12.2713
10.3038
7.79786
4.78278
1.28245
-2.57706
-6.65197
-10.8081
-15.1249
-19.0545
-22.4443
-24.6609
-25.1977
-24.0229
-20.5439
-16.0336
-11.062
-6.45693
-2.89094
-0.329415
1.1409
1.79923
2.17577
2.73425
3.6196
4.61315
5.51364
6.53785
8.12563
10.0308
12.8276
16.1065
20.2583
24.3542
28.5849
32.5394
34.8864
36.7968
38.7495
40.9595
43.1049
44.8627
46.192
47.468
48.8371
50.0418
51.1874
52.3947
53.447
54.4852
54.887
55.0504
53.9231
52.0167
49.4707
46.4447
43.0063
39.2716
35.6046
32.2269
29.0631
25.8383
23.2644
21.5815
19.7997
18.3437
18.2945
18.4867
18.1742
18.395
19.2358
20.4424
21.7049
22.6124
23.8861
25.3627
25.868
25.0369
22.8812
19.4565
14.7795
8.89442
1.92867
-5.75758
-13.7463
-20.8169
-26.5571
-29.9079
-29.6875
-27.0657
-22.6959
-18.3694
-13.4817
-7.22082
1.15714
10.682
19.3511
27.1269
32.6854
36.4599
38.4367
38.8913
37.9506
36.4698
34.2773
31.6146
28.8474
26.1543
23.505
21.1987
19.2617
17.5521
16.0034
14.736
13.7707
12.8807
14.528
14.0916
12.4799
11.2472
10.5791
10.502
10.8346
11.2164
11.5863
11.7537
11.9389
11.9719
11.9792
11.9129
11.7959
11.7251
11.5949
11.5834
11.4627
11.4686
11.4244
11.4387
11.4468
11.42
11.5106
11.4804
11.5592
11.5337
11.5706
11.5882
11.5877
11.6232
11.5603
11.6004
11.521
11.4972
11.4087
11.2996
11.1581
10.9826
10.8351
10.584
10.3742
10.1377
9.88304
9.58173
9.358
9.20974
8.95101
8.73613
8.666
8.65552
8.65703
8.74316
8.93281
9.2767
9.71372
10.2707
10.953
11.7061
12.4729
13.323
14.2077
15.0204
15.7753
16.4875
17.0917
17.5584
17.9839
18.3384
18.5002
18.5796
18.6977
18.8268
18.7998
18.646
18.5964
18.751
18.8128
18.5779
18.1566
17.7769
17.207
15.9828
14.2886
12.2
9.62406
6.41469
2.8442
-1.06574
-5.08831
-9.26225
-13.4983
-17.3489
-20.627
-22.5126
-22.8872
-21.0517
-18.1226
-14.159
-9.866
-5.92915
-2.94243
-0.923373
0.0562694
0.309664
0.643531
1.45028
2.6051
3.73923
4.74293
5.73704
7.28196
9.16276
12.0461
15.3513
19.7314
23.8726
28.5966
32.7255
35.2322
37.4559
39.4344
41.7103
43.7811
45.603
46.9469
48.2261
49.6159
50.9288
52.0251
53.1962
54.2685
55.1993
55.6295
55.8411
55.0592
53.4472
51.1834
48.4853
45.176
41.6296
38.2405
34.8038
31.5353
28.7444
25.9645
23.7955
22.6759
21.4375
20.3658
21.1767
21.8038
21.1536
21.5923
22.9348
24.107
25.3441
26.4442
27.9177
28.5654
27.2628
24.8655
21.7084
17.1716
11.1601
4.04622
-4.05091
-12.2013
-19.6933
-25.7593
-28.5067
-28.2314
-26.0246
-21.9397
-18.2409
-12.1563
-6.03602
3.52264
12.8179
21.9377
29.9374
35.8078
39.8707
42.023
42.4004
41.6534
40.1529
37.7629
34.9861
32.1549
29.3247
26.5009
23.9922
21.8457
19.827
17.9157
16.2996
15.0557
13.9364
13.7185
13.3596
12.2731
11.4361
11.0218
10.9912
11.2977
11.5533
11.8045
11.8889
11.9768
11.9643
11.9259
11.8567
11.725
11.6922
11.5474
11.5541
11.4501
11.4533
11.4391
11.4272
11.467
11.4245
11.5062
11.4547
11.5151
11.4827
11.5061
11.5206
11.4984
11.5503
11.4827
11.5427
11.4688
11.4773
11.4042
11.3103
11.2487
11.0775
10.9871
10.783
10.6346
10.3946
10.1622
9.95084
9.68518
9.46521
9.15234
8.97154
8.83019
8.66546
8.56375
8.56833
8.71814
8.9711
9.31998
9.82472
10.5191
11.2647
12.0452
12.9211
13.8823
14.7873
15.6617
16.4938
17.2161
17.8311
18.3904
18.8659
19.1805
19.3815
19.5725
19.8658
19.9693
19.9439
20.0416
20.19
20.2849
20.3533
20.0922
19.3637
18.5949
17.5531
15.8074
13.4296
10.7274
7.6781
4.26651
0.391866
-3.69429
-7.87944
-11.9004
-15.4842
-18.4766
-19.9838
-20.3019
-18.8365
-16.1658
-12.6152
-8.68983
-5.69024
-3.28074
-1.6965
-1.25433
-1.13786
-0.574762
0.852338
2.02767
3.40296
4.58987
5.66857
7.3048
8.97711
11.87
15.3162
19.7538
23.6599
29.0808
32.9441
35.7087
38.1732
40.2223
42.5326
44.5251
46.3442
47.702
48.9674
50.306
51.6655
52.8019
53.8966
54.9648
55.858
56.306
56.5022
55.9539
54.4994
52.4225
49.9201
46.9243
43.6219
40.291
37.2382
34.1375
31.0592
28.6563
26.4915
24.7178
23.9694
23.4126
23.0337
24.0341
24.3648
23.9792
24.7175
26.0031
27.2723
28.3982
29.2172
29.601
28.6298
26.2402
22.979
18.7975
13.4316
6.54235
-1.48958
-9.4594
-17.2483
-23.349
-26.019
-27.1822
-23.9744
-20.5987
-17.1492
-9.26311
-4.4321
7.22922
15.476
25.0903
32.9989
39.0167
43.1044
45.1029
45.5926
44.9567
43.3568
40.7941
37.9969
35.0957
32.1455
29.0906
26.3527
23.9225
21.6199
19.5144
17.6998
16.2943
14.9915
12.9005
12.6638
12.1607
11.7438
11.5644
11.559
11.7343
11.8408
11.9577
11.9816
11.9893