/*--------------------------------*- C++ -*----------------------------------*\
| =========                 |                                                 |
| \\      /  F ield         | OpenFOAM: The Open Source CFD Toolbox           |
|  \\    /   O peration     | Version:  2.4.0                                 |
|   \\  /    A nd           | Web:      www.OpenFOAM.org                      |
|    \\/     M anipulation  |                                                 |
\*---------------------------------------------------------------------------*/
FoamFile
{
    version     2.0;
    format      ascii;
    class       surfaceScalarField;
    location    "0.65";
    object      phi_0;
}
// * * * * * * * * * * * * * * * * * * * * * * * * * * * * * * * * * * * * * //

dimensions      [0 3 -1 0 0 0 0];

internalField   nonuniform List<scalar> 
17320
(
1.7632e-05
7.36803e-06
1.16206e-05
6.01138e-06
8.68277e-06
2.93783e-06
7.34507e-06
1.33769e-06
6.73299e-06
6.1208e-07
6.34855e-06
3.8444e-07
6.04548e-06
3.03073e-07
5.88221e-06
1.63273e-07
5.74761e-06
1.34602e-07
5.54352e-06
2.04083e-07
5.46507e-06
7.84533e-08
5.43685e-06
2.82209e-08
5.31422e-06
1.22625e-07
5.20404e-06
1.10184e-07
5.18157e-06
2.24661e-08
5.06628e-06
1.1529e-07
5.00919e-06
5.70953e-08
4.86742e-06
1.41768e-07
4.7454e-06
1.22019e-07
-2.77866e-07
5.02327e-06
2.54499e-05
6.91814e-06
2.32585e-05
8.20277e-06
2.09771e-05
5.2192e-06
1.9308e-05
3.00683e-06
1.81001e-05
1.81992e-06
1.71031e-05
1.38144e-06
1.63332e-05
1.07297e-06
1.58047e-05
6.91869e-07
1.53319e-05
6.0732e-07
1.48851e-05
6.50919e-07
1.46337e-05
3.29891e-07
1.44215e-05
2.4043e-07
1.4151e-05
3.93069e-07
1.39283e-05
3.32875e-07
1.3793e-05
1.57826e-07
1.3562e-05
3.46216e-07
1.33869e-05
2.32267e-07
1.31121e-05
4.16529e-07
1.30853e-05
1.48816e-07
6.90332e-08
1.27384e-05
2.66068e-05
5.31139e-06
2.71832e-05
7.62631e-06
2.67573e-05
5.64511e-06
2.62287e-05
3.53544e-06
2.56343e-05
2.41428e-06
2.48569e-05
2.15887e-06
2.41223e-05
1.80759e-06
2.35479e-05
1.26619e-06
2.29504e-05
1.20482e-06
2.23925e-05
1.20891e-06
2.20429e-05
6.79445e-07
2.17098e-05
5.73499e-07
2.1357e-05
7.45954e-07
2.10675e-05
6.22353e-07
2.08595e-05
3.65806e-07
2.05632e-05
6.42506e-07
2.03457e-05
4.49765e-07
1.99589e-05
8.03371e-07
1.99875e-05
1.20152e-07
8.46089e-07
1.92105e-05
2.63052e-05
4.00621e-06
2.76004e-05
6.33106e-06
2.80772e-05
5.1683e-06
2.83974e-05
3.21524e-06
2.86592e-05
2.15249e-06
2.8613e-05
2.20513e-06
2.8423e-05
1.99757e-06
2.82768e-05
1.41241e-06
2.80026e-05
1.47903e-06
2.76439e-05
1.56761e-06
2.74404e-05
8.82963e-07
2.71821e-05
8.31736e-07
2.69103e-05
1.01776e-06
2.66713e-05
8.61354e-07
2.64807e-05
5.56408e-07
2.62285e-05
8.94678e-07
2.60133e-05
6.6503e-07
2.56523e-05
1.16432e-06
2.549e-05
2.82454e-07
1.91848e-06
2.44176e-05
2.60027e-05
3.0035e-06
2.72903e-05
5.04344e-06
2.81133e-05
4.34536e-06
2.84674e-05
2.8611e-06
2.89544e-05
1.66551e-06
2.93249e-05
1.83456e-06
2.95125e-05
1.81004e-06
2.97447e-05
1.18019e-06
2.99198e-05
1.30393e-06
2.99176e-05
1.56979e-06
2.99733e-05
8.27267e-07
2.99466e-05
8.58497e-07
2.99366e-05
1.02769e-06
2.99491e-05
8.48835e-07
2.98619e-05
6.436e-07
2.99017e-05
8.54891e-07
2.97167e-05
8.50029e-07
2.97957e-05
1.0853e-06
2.96738e-05
4.04431e-07
1.14227e-06
3.045e-05
2.57901e-05
2.2134e-06
2.69019e-05
3.93166e-06
2.79017e-05
3.34552e-06
2.82931e-05
2.46975e-06
2.86924e-05
1.26623e-06
2.91163e-05
1.41063e-06
2.93502e-05
1.57612e-06
2.96393e-05
8.91122e-07
3.00598e-05
8.83349e-07
3.02908e-05
1.3388e-06
3.04677e-05
6.50374e-07
3.05263e-05
7.9988e-07
3.06432e-05
9.10853e-07
3.08852e-05
6.06793e-07
3.09242e-05
6.04598e-07
3.11819e-05
5.97194e-07
3.12938e-05
7.38207e-07
3.14748e-05
9.04253e-07
3.14955e-05
3.83701e-07
3.20545e-07
3.23173e-05
2.56344e-05
1.57901e-06
2.66444e-05
2.92161e-06
2.76179e-05
2.37207e-06
2.80612e-05
2.02642e-06
2.84957e-05
8.31701e-07
2.90023e-05
9.04068e-07
2.91642e-05
1.41427e-06
2.92951e-05
7.60133e-07
2.97062e-05
4.72297e-07
3.01486e-05
8.96426e-07
3.04063e-05
3.92633e-07
3.04051e-05
8.01105e-07
3.05468e-05
7.69153e-07
3.07019e-05
4.51729e-07
3.10264e-05
2.80074e-07
3.10232e-05
6.0042e-07
3.16825e-05
7.88656e-08
3.14189e-05
1.1678e-06
3.18033e-05
-6.29278e-10
-3.1185e-07
3.24357e-05
2.55797e-05
9.9932e-07
2.65819e-05
1.91937e-06
2.73869e-05
1.56713e-06
2.79359e-05
1.47738e-06
2.84049e-05
3.62709e-07
2.89194e-05
3.89603e-07
2.90161e-05
1.31752e-06
2.90926e-05
6.8368e-07
2.94029e-05
1.61943e-07
2.99375e-05
3.61828e-07
3.02782e-05
5.19526e-08
3.02365e-05
8.42846e-07
3.04494e-05
5.56257e-07
3.03743e-05
5.26833e-07
3.08839e-05
-2.29556e-07
3.07175e-05
7.66817e-07
3.16817e-05
-8.85388e-07
3.13527e-05
1.49682e-06
3.16808e-05
-3.28741e-07
-5.76106e-07
3.19451e-05
2.55134e-05
4.8587e-07
2.64826e-05
9.50176e-07
2.7301e-05
7.48781e-07
2.79373e-05
8.41083e-07
2.82671e-05
3.28502e-08
2.85653e-05
9.14706e-08
2.88935e-05
9.89305e-07
2.92133e-05
3.63833e-07
2.94592e-05
-8.39432e-08
2.96953e-05
1.25745e-07
2.99135e-05
-1.66251e-07
3.01821e-05
5.74308e-07
3.05221e-05
2.16244e-07
3.03918e-05
6.57115e-07
3.06983e-05
-5.36112e-07
3.06429e-05
8.22276e-07
3.14442e-05
-1.68676e-06
3.13846e-05
1.55651e-06
3.17261e-05
-6.70271e-07
-3.38867e-07
3.14888e-05
2.54031e-05
8.28156e-08
2.63522e-05
1.00745e-09
2.72888e-05
-1.87793e-07
2.79485e-05
1.81414e-07
2.82098e-05
-2.28505e-07
2.83284e-05
-2.71007e-08
2.8807e-05
5.10662e-07
2.93774e-05
-2.06556e-07
2.95965e-05
-3.03053e-07
2.95557e-05
1.66611e-07
2.95839e-05
-1.94495e-07
3.01041e-05
5.41458e-08
3.05167e-05
-1.96393e-07
3.05554e-05
6.18446e-07
3.06645e-05
-6.45265e-07
3.06804e-05
8.06415e-07
3.10844e-05
-2.09079e-06
3.12664e-05
1.37452e-06
3.15955e-05
-9.99325e-07
-2.96811e-07
3.15534e-05
2.53816e-05
-2.98824e-07
2.64464e-05
-1.06375e-06
2.73034e-05
-1.04484e-06
2.79405e-05
-4.55622e-07
2.82326e-05
-5.2062e-07
2.84034e-05
-1.97899e-07
2.88065e-05
1.07529e-07
2.92903e-05
-6.90351e-07
2.94829e-05
-4.95646e-07
2.9608e-05
4.15322e-08
2.97719e-05
-3.58367e-07
3.0058e-05
-2.31948e-07
3.02967e-05
-4.35127e-07
3.05556e-05
3.59524e-07
3.07339e-05
-8.23544e-07
3.08463e-05
6.9399e-07
3.09674e-05
-2.21183e-06
3.123e-05
1.11191e-06
3.13723e-05
-1.14161e-06
-6.35126e-07
3.17106e-05
2.54838e-05
-7.82631e-07
2.6523e-05
-2.10299e-06
2.73363e-05
-1.85811e-06
2.79492e-05
-1.0685e-06
2.81916e-05
-7.63044e-07
2.85095e-05
-5.1579e-07
2.89523e-05
-3.35229e-07
2.92484e-05
-9.86534e-07
2.93894e-05
-6.36647e-07
2.96902e-05
-2.59172e-07
2.99813e-05
-6.49553e-07
3.0191e-05
-4.41562e-07
3.03099e-05
-5.54076e-07
3.0533e-05
1.36431e-07
3.06708e-05
-9.61396e-07
3.09854e-05
3.79479e-07
3.09042e-05
-2.13069e-06
3.14303e-05
5.85798e-07
3.1437e-05
-1.14832e-06
-1.07214e-06
3.18741e-05
2.55343e-05
-1.31697e-06
2.65824e-05
-3.15102e-06
2.7459e-05
-2.73476e-06
2.79858e-05
-1.59524e-06
2.8314e-05
-1.09129e-06
2.86888e-05
-8.90552e-07
2.90415e-05
-6.87962e-07
2.93053e-05
-1.25038e-06
2.94977e-05
-8.29038e-07
2.98609e-05
-6.22383e-07
3.01333e-05
-9.21897e-07
3.0328e-05
-6.36253e-07
3.034e-05
-5.66057e-07
3.06072e-05
-1.30782e-07
3.07081e-05
-1.0623e-06
3.11525e-05
-6.49293e-08
3.09817e-05
-1.95994e-06
3.15632e-05
4.33101e-09
3.16584e-05
-1.24355e-06
-1.36288e-06
3.19492e-05
2.56654e-05
-1.98239e-06
2.67991e-05
-4.28473e-06
2.76139e-05
-3.54955e-06
2.80371e-05
-2.01837e-06
2.8471e-05
-1.52526e-06
2.8838e-05
-1.2575e-06
2.9183e-05
-1.033e-06
2.95092e-05
-1.57656e-06
2.97714e-05
-1.0912e-06
3.00759e-05
-9.26879e-07
3.02271e-05
-1.07314e-06
3.03805e-05
-7.89662e-07
3.04572e-05
-6.42772e-07
3.07932e-05
-4.66767e-07
3.0894e-05
-1.1631e-06
3.13495e-05
-5.20463e-07
3.12042e-05
-1.81462e-06
3.17045e-05
-4.95941e-07
3.18066e-05
-1.34567e-06
-1.59889e-06
3.20426e-05
2.58698e-05
-2.85223e-06
2.70081e-05
-5.423e-06
2.77684e-05
-4.30988e-06
2.81839e-05
-2.4338e-06
2.86936e-05
-2.03502e-06
2.90918e-05
-1.65571e-06
2.94857e-05
-1.4269e-06
2.97783e-05
-1.86909e-06
3.00239e-05
-1.33687e-06
3.01833e-05
-1.08627e-06
3.02972e-05
-1.18703e-06
3.04646e-05
-9.57015e-07
3.06404e-05
-8.18561e-07
3.09027e-05
-7.29163e-07
3.09703e-05
-1.23068e-06
3.12618e-05
-8.11894e-07
3.10122e-05
-1.56508e-06
3.14189e-05
-9.02572e-07
3.14613e-05
-1.38807e-06
-1.68152e-06
3.15439e-05
2.60888e-05
-3.94105e-06
2.72416e-05
-6.57574e-06
2.79474e-05
-5.01569e-06
2.84897e-05
-2.9761e-06
2.89884e-05
-2.53375e-06
2.93446e-05
-2.01188e-06
2.96536e-05
-1.73594e-06
2.97413e-05
-1.95678e-06
2.98359e-05
-1.43147e-06
2.98668e-05
-1.11722e-06
2.98863e-05
-1.20646e-06
2.99261e-05
-9.96802e-07
2.99549e-05
-8.4743e-07
2.99754e-05
-7.49676e-07
2.98381e-05
-1.09331e-06
2.98449e-05
-8.18693e-07
2.94979e-05
-1.21816e-06
2.96159e-05
-1.02051e-06
2.94365e-05
-1.20872e-06
-1.56832e-06
2.93233e-05
2.63421e-05
-5.28315e-06
2.75026e-05
-7.7362e-06
2.80354e-05
-5.5485e-06
2.84984e-05
-3.43916e-06
2.86267e-05
-2.66199e-06
2.86317e-05
-2.01691e-06
2.85214e-05
-1.62567e-06
2.81876e-05
-1.62291e-06
2.79461e-05
-1.19003e-06
2.76944e-05
-8.65455e-07
2.73939e-05
-9.06025e-07
2.71437e-05
-7.46541e-07
2.69141e-05
-6.17868e-07
2.66836e-05
-5.19165e-07
2.63544e-05
-7.64152e-07
2.61346e-05
-5.98834e-07
2.5732e-05
-8.15597e-07
2.55173e-05
-8.05826e-07
2.5186e-05
-8.7744e-07
-1.34634e-06
2.49641e-05
2.66215e-05
-6.90465e-06
2.71328e-05
-8.24747e-06
2.67723e-05
-5.188e-06
2.62834e-05
-2.95032e-06
2.5568e-05
-1.94656e-06
2.48801e-05
-1.32899e-06
2.41915e-05
-9.37053e-07
2.34591e-05
-8.90556e-07
2.29152e-05
-6.46136e-07
2.24612e-05
-4.11411e-07
2.20069e-05
-4.51761e-07
2.16492e-05
-3.88816e-07
2.13404e-05
-3.09054e-07
2.10622e-05
-2.41005e-07
2.07124e-05
-4.14336e-07
2.04427e-05
-3.29137e-07
2.00685e-05
-4.41416e-07
1.97143e-05
-4.51585e-07
1.93028e-05
-4.65977e-07
-4.99986e-07
1.84564e-05
2.54587e-05
-7.36337e-06
2.32346e-05
-6.02331e-06
2.09842e-05
-2.9376e-06
1.93397e-05
-1.30583e-06
1.80522e-05
-6.59124e-07
1.71091e-05
-3.85849e-07
1.63926e-05
-2.20521e-07
1.5745e-05
-2.42991e-07
1.52837e-05
-1.84833e-07
1.49517e-05
-7.94569e-08
1.46173e-05
-1.17302e-07
1.43447e-05
-1.16215e-07
1.41199e-05
-8.42754e-08
1.39298e-05
-5.09463e-08
1.36557e-05
-1.4024e-07
1.34338e-05
-1.07151e-07
1.31366e-05
-1.443e-07
1.28376e-05
-1.52545e-07
1.25603e-05
-1.8866e-07
-9.28177e-08
1.21531e-05
1.76366e-05
1.16133e-05
8.67572e-06
7.36989e-06
6.71077e-06
6.32492e-06
6.1044e-06
5.86141e-06
5.67657e-06
5.59712e-06
5.47981e-06
5.3636e-06
5.27932e-06
5.22838e-06
5.08814e-06
4.98099e-06
4.83669e-06
4.68414e-06
4.49548e-06
4.40266e-06
5.598e-06
-2.48135e-07
-3.26595e-07
6.0182e-06
-1.29275e-07
-2.9093e-07
6.36624e-06
-2.00474e-07
-1.47568e-07
6.655e-06
-2.46839e-07
-4.19128e-08
6.9342e-06
-3.6253e-07
8.33228e-08
7.12844e-06
-3.23029e-07
1.28793e-07
7.30747e-06
-3.28686e-07
1.4965e-07
7.438e-06
-2.01617e-07
7.10887e-08
7.57544e-06
-1.92671e-07
5.52331e-08
7.71673e-06
-9.23137e-08
-4.8974e-08
7.86253e-06
-1.11399e-07
-3.43977e-08
7.99253e-06
-5.29547e-08
-7.70535e-08
8.14976e-06
-8.89742e-08
-6.82534e-08
8.2806e-06
-1.38471e-08
-1.16995e-07
8.44815e-06
-7.49001e-08
-9.26416e-08
8.56296e-06
2.19382e-08
-1.3675e-07
8.7189e-06
-7.33598e-08
-8.25791e-08
8.80357e-06
5.5852e-08
-1.40531e-07
8.95638e-06
-8.11108e-08
-7.16924e-08
9.02775e-06
7.72213e-08
-1.48594e-07
9.1952e-06
-9.50903e-08
-7.23589e-08
9.27982e-06
7.5617e-08
-1.60236e-07
9.46826e-06
-1.36189e-07
-5.22527e-08
9.55957e-06
1.04118e-08
-1.0172e-07
9.74123e-06
-2.55456e-07
7.37958e-08
9.80833e-06
-1.42864e-07
7.57646e-08
9.94896e-06
-4.55555e-07
3.14927e-07
9.95214e-06
-3.72457e-07
3.69271e-07
9.99341e-06
-6.87466e-07
6.46197e-07
9.87615e-06
-5.77713e-07
6.94973e-07
9.77896e-06
-8.60148e-07
9.57339e-07
9.48225e-06
-5.7907e-07
8.7578e-07
9.24302e-06
-7.28287e-07
9.67524e-07
8.95028e-06
-2.78943e-07
5.71682e-07
8.93946e-06
-2.8807e-07
2.98882e-07
9.00334e-06
4.28311e-07
-4.92184e-07
9.49913e-06
5.57426e-07
-1.05322e-06
1.00682e-05
1.47677e-06
-2.04583e-06
1.09083e-05
1.60928e-06
-2.44934e-06
1.15719e-05
2.44937e-06
-3.11306e-06
1.23674e-05
2.29665e-06
-3.09214e-06
1.29105e-05
2.82976e-06
-3.37287e-06
1.3514e-05
2.27937e-06
-2.88281e-06
1.38783e-05
2.44603e-06
-2.81033e-06
1.43884e-05
1.47354e-06
-1.98362e-06
1.46802e-05
1.4901e-06
-1.78196e-06
1.51279e-05
3.36224e-07
-7.83837e-07
1.53163e-05
4.11925e-07
-6.00422e-07
1.5651e-05
-8.27674e-07
4.92979e-07
1.58928e-05
-9.65845e-07
7.24125e-07
1.63835e-05
-2.40903e-06
1.91826e-06
1.67265e-05
-2.53354e-06
2.19058e-06
1.71466e-05
-3.68679e-06
3.26673e-06
1.71698e-05
-3.51603e-06
3.49276e-06
1.73248e-05
-4.85467e-06
4.69974e-06
1.73892e-05
-4.96791e-06
4.90343e-06
1.78111e-05
-5.83284e-06
5.41098e-06
1.8022e-05
-5.09318e-06
4.8823e-06
1.82607e-05
-4.85247e-06
4.61372e-06
1.78717e-05
-3.419e-06
3.808e-06
1.74811e-05
-3.13425e-06
3.52484e-06
1.66782e-05
-1.86999e-06
2.67288e-06
1.60917e-05
-1.47386e-06
2.06039e-06
1.5396e-05
-8.6485e-08
7.82158e-07
1.52962e-05
3.18834e-07
-2.19034e-07
1.54533e-05
1.67851e-06
-1.83554e-06
1.61062e-05
2.2352e-06
-2.88811e-06
1.66257e-05
3.76766e-06
-4.28721e-06
1.73552e-05
4.20199e-06
-4.93142e-06
1.76085e-05
5.47247e-06
-5.72581e-06
1.80279e-05
5.44845e-06
-5.86786e-06
1.81457e-05
6.31371e-06
-6.43147e-06
1.86341e-05
5.80452e-06
-6.29298e-06
1.8996e-05
6.37825e-06
-6.74015e-06
1.96179e-05
5.53345e-06
-6.15536e-06
2.01968e-05
5.66475e-06
-6.2436e-06
2.10568e-05
4.26015e-06
-5.1202e-06
2.17437e-05
4.0944e-06
-4.78128e-06
2.2934e-05
2.21316e-06
-3.40345e-06
2.37894e-05
1.83854e-06
-2.69389e-06
2.51583e-05
-8.03152e-07
-5.65805e-07
2.62762e-05
-1.45317e-06
3.35308e-07
2.77305e-05
-3.92879e-06
2.47444e-06
2.87869e-05
-5.02701e-06
3.97066e-06
3.00208e-05
-7.5158e-06
6.28186e-06
3.08572e-05
-8.54812e-06
7.71174e-06
3.17718e-05
-1.06029e-05
9.68837e-06
3.22272e-05
-1.14772e-05
1.10218e-05
3.27715e-05
-1.27448e-05
1.22004e-05
3.26626e-05
-1.27889e-05
1.28979e-05
3.28924e-05
-1.33955e-05
1.31656e-05
3.27242e-05
-1.27754e-05
1.29437e-05
3.28036e-05
-1.2956e-05
1.28766e-05
3.28453e-05
-1.2357e-05
1.23153e-05
3.30189e-05
-1.25233e-05
1.23496e-05
3.3141e-05
-1.23677e-05
1.22456e-05
3.31459e-05
-1.24544e-05
1.24495e-05
3.30148e-05
-1.25337e-05
1.26648e-05
3.25481e-05
-1.19668e-05
1.24335e-05
3.16538e-05
-1.16122e-05
1.25065e-05
3.07973e-05
-1.0787e-05
1.16436e-05
2.99341e-05
-1.02654e-05
1.11286e-05
2.87009e-05
-8.95604e-06
1.01892e-05
2.76438e-05
-8.29207e-06
9.3492e-06
2.66132e-05
-7.40308e-06
8.43371e-06
2.59362e-05
-6.84069e-06
7.51765e-06
2.49054e-05
-6.00751e-06
7.03829e-06
2.41825e-05
-5.522e-06
6.2449e-06
2.32317e-05
-5.26566e-06
6.21652e-06
2.2662e-05
-5.01219e-06
5.5819e-06
2.16771e-05
-4.85494e-06
5.83984e-06
2.10961e-05
-4.82961e-06
5.41059e-06
2.04156e-05
-4.23831e-06
4.91879e-06
1.98849e-05
-4.10131e-06
4.63199e-06
1.93345e-05
-3.67895e-06
4.22942e-06
1.88368e-05
-2.97864e-06
3.47629e-06
1.82863e-05
-3.45335e-06
4.00387e-06
1.75548e-05
-3.22946e-06
3.96093e-06
1.68446e-05
-2.77889e-06
3.48915e-06
1.595e-05
-2.59701e-06
3.49152e-06
1.51379e-05
-3.04983e-06
3.86198e-06
1.40638e-05
-2.4785e-06
3.55261e-06
1.35159e-05
-2.10879e-06
2.65666e-06
1.27645e-05
-1.43274e-06
2.18416e-06
1.23289e-05
-1.9862e-06
2.42181e-06
1.1227e-05
-3.08702e-06
4.18891e-06
1.09377e-05
-5.22378e-06
5.51304e-06
1.04919e-05
-5.76183e-06
6.20767e-06
1.06249e-05
-4.15741e-06
4.02438e-06
1.07338e-05
-9.02621e-07
7.93722e-07
1.10804e-05
3.73314e-06
-4.0797e-06
1.11803e-05
7.21635e-06
-7.31631e-06
1.11447e-05
1.11104e-05
-1.10748e-05
9.6107e-06
1.54455e-05
-1.39115e-05
9.358e-06
1.98959e-05
-1.96432e-05
8.22824e-06
2.5868e-05
-2.47383e-05
7.09709e-06
2.76744e-05
-2.65432e-05
8.53239e-06
2.56176e-05
-2.70529e-05
9.39449e-06
2.55692e-05
-2.64312e-05
8.35359e-06
2.42864e-05
-2.32455e-05
9.87175e-06
2.02039e-05
-2.1722e-05
1.02966e-05
2.0983e-05
-2.14078e-05
1.04168e-05
1.7589e-05
-1.77093e-05
1.13872e-05
1.68817e-05
-1.78521e-05
1.22756e-05
1.37043e-05
-1.45927e-05
1.28733e-05
1.342e-05
-1.40176e-05
1.39275e-05
9.52798e-06
-1.05822e-05
1.47993e-05
8.47776e-06
-9.34959e-06
1.54475e-05
5.93361e-06
-6.58177e-06
1.65083e-05
5.6481e-06
-6.70895e-06
1.75257e-05
1.46145e-06
-2.47883e-06
1.76096e-05
-7.69804e-07
6.85902e-07
1.67553e-05
-4.02826e-06
4.88257e-06
1.59575e-05
-4.1618e-06
4.95964e-06
1.53737e-05
-6.17436e-06
6.7581e-06
1.55856e-05
-6.01791e-06
5.80601e-06
1.63445e-05
-8.1146e-06
7.35568e-06
1.75492e-05
-7.92479e-06
6.72016e-06
1.88195e-05
-9.36573e-06
8.09538e-06
2.02684e-05
-8.97948e-06
7.53065e-06
2.15354e-05
-9.79491e-06
8.52786e-06
2.27927e-05
-9.54756e-06
8.29029e-06
2.38829e-05
-1.07608e-05
9.67062e-06
2.48137e-05
-1.0957e-05
1.00262e-05
2.55751e-05
-1.18281e-05
1.10667e-05
2.61743e-05
-1.18109e-05
1.12117e-05
2.67473e-05
-1.24251e-05
1.1852e-05
2.69515e-05
-1.20487e-05
1.18445e-05
2.71564e-05
-1.20628e-05
1.1858e-05
2.70942e-05
-1.13945e-05
1.14567e-05
2.68375e-05
-1.07196e-05
1.09763e-05
2.58401e-05
-9.35284e-06
1.03502e-05
2.47401e-05
-7.88331e-06
8.98327e-06
2.33182e-05
-5.84569e-06
7.26762e-06
2.1835e-05
-3.70058e-06
5.18382e-06
2.0039e-05
-1.32826e-06
3.12419e-06
1.77986e-05
1.14097e-06
1.09944e-06
1.44794e-05
3.03215e-06
2.87116e-07
1.22882e-05
4.65632e-06
-2.46518e-06
1.08955e-05
8.09075e-06
-6.698e-06
1.05879e-05
1.17635e-05
-1.14559e-05
1.01297e-05
1.52505e-05
-1.47922e-05
1.02067e-05
1.60523e-05
-1.61293e-05
1.04873e-05
1.85155e-05
-1.87961e-05
1.00715e-05
1.9315e-05
-1.88992e-05
1.03306e-05
1.8758e-05
-1.9017e-05
1.05401e-05
1.89721e-05
-1.91815e-05
1.07054e-05
1.7983e-05
-1.81483e-05
1.0974e-05
1.62657e-05
-1.65343e-05
1.1613e-05
1.41311e-05
-1.47701e-05
1.16625e-05
1.21455e-05
-1.2195e-05
1.1984e-05
8.7434e-06
-9.06489e-06
1.20465e-05
6.66749e-06
-6.73007e-06
1.20209e-05
2.92095e-06
-2.89531e-06
1.17087e-05
1.07293e-06
-7.60725e-07
1.11993e-05
-1.73887e-06
2.24828e-06
1.03562e-05
-2.61122e-06
3.45431e-06
9.47495e-06
-4.65645e-06
5.5377e-06
8.18209e-06
-4.58013e-06
5.87298e-06
-4.53876e-06
4.93383e-06
7.78703e-06
1.28748e-05
-3.84487e-07
1.30693e-05
-3.23783e-07
1.33396e-05
-4.70765e-07
1.35216e-05
-4.28844e-07
1.37189e-05
-5.59901e-07
1.38077e-05
-4.11765e-07
1.39244e-05
-4.45378e-07
1.39829e-05
-2.60156e-07
1.40619e-05
-2.71657e-07
1.41176e-05
-1.48006e-07
1.41992e-05
-1.93019e-07
1.42561e-05
-1.09853e-07
1.43407e-05
-1.73536e-07
1.4393e-05
-6.61659e-08
1.44986e-05
-1.80571e-07
1.45376e-05
-1.70355e-08
1.4661e-05
-1.9678e-07
1.46824e-05
3.44871e-08
1.48274e-05
-2.26147e-07
1.48372e-05
6.74868e-08
1.5006e-05
-2.63871e-07
1.50368e-05
4.4723e-08
1.52239e-05
-3.23192e-07
1.52759e-05
-4.16329e-08
1.54494e-05
-4.28928e-07
1.54985e-05
-1.91972e-07
1.56323e-05
-5.89397e-07
1.56406e-05
-3.80728e-07
1.5691e-05
-7.3789e-07
1.56142e-05
-5.00907e-07
1.55544e-05
-8.00291e-07
1.53792e-05
-4.03958e-07
1.52651e-05
-6.14111e-07
1.5033e-05
-4.69028e-08
1.48815e-05
-1.36541e-07
1.46754e-05
6.34441e-07
1.46796e-05
5.53184e-07
1.47112e-05
1.44519e-06
1.51041e-05
1.2164e-06
1.54679e-05
2.0855e-06
1.61042e-05
1.66037e-06
1.66102e-05
2.32379e-06
1.7329e-05
1.5605e-06
1.77984e-05
1.97665e-06
1.83386e-05
9.33398e-07
1.86337e-05
1.19492e-06
1.91602e-05
-1.90198e-07
1.95203e-05
5.17572e-08
2.01136e-05
-1.42095e-06
2.04009e-05
-1.25312e-06
2.0874e-05
-2.88214e-06
2.1085e-05
-2.74459e-06
2.16117e-05
-4.21346e-06
2.19457e-05
-3.85005e-06
2.25127e-05
-5.42163e-06
2.263e-05
-5.08526e-06
2.26034e-05
-5.80615e-06
2.20844e-05
-4.57427e-06
2.16601e-05
-4.42814e-06
2.12156e-05
-2.97445e-06
2.12899e-05
-3.20863e-06
2.10997e-05
-1.67975e-06
2.09302e-05
-1.30434e-06
2.01098e-05
7.33848e-07
1.94675e-05
9.6117e-07
1.86667e-05
2.47927e-06
1.87827e-05
2.11922e-06
1.89026e-05
3.64781e-06
1.9777e-05
3.32751e-06
2.02526e-05
4.99692e-06
2.11425e-05
4.55851e-06
2.15557e-05
5.90058e-06
2.20653e-05
5.2949e-06
2.25632e-05
5.88033e-06
2.31916e-05
4.90505e-06
2.37191e-05
5.13723e-06
2.47246e-05
3.25466e-06
2.54504e-05
3.36864e-06
2.64629e-05
1.2006e-06
2.7519e-05
7.82527e-07
2.86934e-05
-1.97763e-06
2.97383e-05
-2.49803e-06
3.10682e-05
-5.25871e-06
3.20564e-05
-6.01521e-06
3.29562e-05
-8.41555e-06
3.35512e-05
-9.14316e-06
3.42687e-05
-1.13204e-05
3.42634e-05
-1.14719e-05
3.44887e-05
-1.297e-05
3.42923e-05
-1.25925e-05
3.43292e-05
-1.34324e-05
3.42181e-05
-1.26642e-05
3.44223e-05
-1.31602e-05
3.45831e-05
-1.25178e-05
3.4851e-05
-1.27912e-05
3.48816e-05
-1.23983e-05
3.49031e-05
-1.24758e-05
3.42166e-05
-1.18473e-05
3.36475e-05
-1.13976e-05
3.26179e-05
-1.05826e-05
3.16084e-05
-9.7776e-06
3.03412e-05
-8.99808e-06
2.93623e-05
-7.97717e-06
2.8291e-05
-7.22079e-06
2.71347e-05
-6.24677e-06
2.61752e-05
-5.88114e-06
2.52603e-05
-5.09269e-06
2.47706e-05
-5.03224e-06
2.38385e-05
-4.33363e-06
2.32109e-05
-4.38458e-06
2.21209e-05
-3.76489e-06
2.15702e-05
-4.27893e-06
2.06317e-05
-3.29982e-06
2.00006e-05
-3.47022e-06
1.92841e-05
-2.96245e-06
1.88217e-05
-2.51626e-06
1.75025e-05
-2.13414e-06
1.67161e-05
-2.44304e-06
1.56176e-05
-1.6804e-06
1.50331e-05
-2.01244e-06
1.3859e-05
-1.8758e-06
1.35998e-05
-2.21931e-06
1.31665e-05
-1.6754e-06
1.26406e-05
-9.06905e-07
1.1511e-05
-8.56605e-07
1.0762e-05
-2.33803e-06
1.00794e-05
-4.54117e-06
9.34395e-06
-5.02635e-06
9.65169e-06
-4.46514e-06
9.34041e-06
-5.91344e-07
1.06146e-05
2.45894e-06
1.03051e-05
7.5259e-06
1.06932e-05
1.07222e-05
9.26365e-06
1.68751e-05
7.95506e-06
2.12045e-05
9.12804e-06
2.46951e-05
8.6614e-06
2.8141e-05
7.94743e-06
2.63316e-05
1.01028e-05
2.34138e-05
1.00511e-05
2.43381e-05
1.02811e-05
1.99739e-05
1.12397e-05
2.00244e-05
1.19722e-05
1.68565e-05
1.25892e-05
1.62648e-05
1.32927e-05
1.30008e-05
1.39924e-05
1.27202e-05
1.50362e-05
8.48422e-06
1.58262e-05
7.68774e-06
1.67428e-05
5.01701e-06
1.80031e-05
4.38779e-06
1.86827e-05
7.8189e-07
1.87424e-05
-8.29577e-07
1.82799e-05
-3.56571e-06
1.8056e-05
-3.93788e-06
1.7795e-05
-5.91338e-06
1.81826e-05
-6.40554e-06
1.87719e-05
-8.70388e-06
1.98977e-05
-9.05058e-06
2.07888e-05
-1.02569e-05
2.19327e-05
-1.01233e-05
2.30191e-05
-1.08813e-05
2.40948e-05
-1.06233e-05
2.51079e-05
-1.17739e-05
2.59446e-05
-1.17937e-05
2.66806e-05
-1.2564e-05
2.74573e-05
-1.25876e-05
2.80263e-05
-1.29941e-05
2.84918e-05
-1.25142e-05
2.88559e-05
-1.24269e-05
2.89506e-05
-1.14892e-05
2.87488e-05
-1.05178e-05
2.83093e-05
-8.91336e-06
2.76564e-05
-7.23039e-06
2.62724e-05
-4.46169e-06
2.46459e-05
-2.07409e-06
2.27254e-05
5.92203e-07
2.08183e-05
3.04803e-06
1.80149e-05
5.83556e-06
1.55618e-05
7.10945e-06
1.4014e-05
9.63853e-06
1.33481e-05
1.24294e-05
1.30262e-05
1.55724e-05
1.24617e-05
1.66169e-05
1.26889e-05
1.82883e-05
1.26832e-05
1.93207e-05
1.27513e-05
1.86898e-05
1.31378e-05
1.85856e-05
1.3543e-05
1.75778e-05
1.37189e-05
1.60898e-05
1.41866e-05
1.36634e-05
1.43806e-05
1.19516e-05
1.45118e-05
8.61214e-06
1.46883e-05
6.49107e-06
1.46806e-05
2.92864e-06
1.44156e-05
1.33792e-06
1.4024e-05
-1.34733e-06
1.35621e-05
-2.14929e-06
1.28166e-05
-3.91094e-06
1.18889e-05
-3.65246e-06
-3.8796e-06
1.12297e-05
1.93461e-05
-5.20118e-07
1.95804e-05
-5.58101e-07
1.99226e-05
-8.1297e-07
2.01183e-05
-6.24547e-07
2.02829e-05
-7.24459e-07
2.02971e-05
-4.26024e-07
2.03462e-05
-4.94419e-07
2.03471e-05
-2.61062e-07
2.03878e-05
-3.12333e-07
2.03984e-05
-1.58612e-07
2.0427e-05
-2.21646e-07
2.04513e-05
-1.34118e-07
2.04901e-05
-2.12376e-07
2.0513e-05
-8.90168e-08
2.05951e-05
-2.62759e-07
2.06098e-05
-3.17337e-08
2.07335e-05
-3.20399e-07
2.07289e-05
3.90662e-08
2.08828e-05
-3.80071e-07
2.08462e-05
1.04099e-07
2.10032e-05
-4.20854e-07
2.09751e-05
7.2758e-08
2.11278e-05
-4.7587e-07
2.11149e-05
-2.87347e-08
2.1262e-05
-5.75963e-07
2.12563e-05
-1.86334e-07
2.13657e-05
-6.9876e-07
2.13463e-05
-3.61333e-07
2.13855e-05
-7.77131e-07
2.12937e-05
-4.09046e-07
2.12841e-05
-7.90718e-07
2.10883e-05
-2.08206e-07
2.1055e-05
-5.80777e-07
2.08144e-05
1.93661e-07
2.07987e-05
-1.20845e-07
2.05788e-05
8.54403e-07
2.06791e-05
4.52842e-07
2.05896e-05
1.53472e-06
2.07556e-05
1.05038e-06
2.0869e-05
1.97207e-06
2.12383e-05
1.29116e-06
2.14887e-05
2.07333e-06
2.19304e-05
1.11883e-06
2.22819e-05
1.62513e-06
2.2799e-05
4.16332e-07
2.31039e-05
8.90047e-07
2.3671e-05
-7.57307e-07
2.39454e-05
-2.2268e-07
2.45077e-05
-1.98327e-06
2.48211e-05
-1.56647e-06
2.5285e-05
-3.34606e-06
2.55718e-05
-3.03143e-06
2.58792e-05
-4.52085e-06
2.61048e-05
-4.07562e-06
2.61074e-05
-5.4242e-06
2.5778e-05
-4.75587e-06
2.53898e-05
-5.41799e-06
2.50491e-05
-4.23359e-06
2.50614e-05
-4.44035e-06
2.48858e-05
-2.79884e-06
2.481e-05
-3.13284e-06
2.42855e-05
-1.15525e-06
2.41578e-05
-1.17663e-06
2.37616e-05
1.13e-06
2.39194e-05
8.03364e-07
2.33707e-05
3.02802e-06
2.30828e-05
2.4071e-06
2.23193e-05
4.4113e-06
2.24158e-05
3.23101e-06
2.24746e-05
4.93816e-06
2.32001e-05
3.83294e-06
2.39433e-05
5.15738e-06
2.4994e-05
4.24421e-06
2.56823e-05
5.19206e-06
2.68081e-05
3.77924e-06
2.74824e-05
4.46288e-06
2.84601e-05
2.27701e-06
2.92909e-05
2.53781e-06
3.01973e-05
2.94234e-07
3.10697e-05
-8.9881e-08
3.19634e-05
-2.87135e-06
3.28366e-05
-3.37125e-06
3.36194e-05
-6.04145e-06
3.41915e-05
-6.58731e-06
3.48094e-05
-9.03349e-06
3.49906e-05
-9.32436e-06
3.52752e-05
-1.1605e-05
3.51601e-05
-1.13568e-05
3.52149e-05
-1.30248e-05
3.50785e-05
-1.24561e-05
3.52495e-05
-1.36034e-05
3.54585e-05
-1.28733e-05
3.57021e-05
-1.34038e-05
3.59528e-05
-1.27685e-05
3.6357e-05
-1.31954e-05
3.61653e-05
-1.22066e-05
3.60304e-05
-1.2341e-05
3.52605e-05
-1.10773e-05
3.45801e-05
-1.07173e-05
3.32866e-05
-9.28908e-06
3.22947e-05
-8.78566e-06
3.08985e-05
-7.60191e-06
2.99125e-05
-6.99114e-06
2.86054e-05
-5.91371e-06
2.77101e-05
-5.35151e-06
2.66183e-05
-4.78929e-06
2.59167e-05
-4.39107e-06
2.50995e-05
-4.21508e-06
2.45471e-05
-3.78118e-06
2.38242e-05
-3.66174e-06
2.31581e-05
-3.09879e-06
2.21543e-05
-3.27507e-06
2.13362e-05
-2.48177e-06
2.02977e-05
-2.43173e-06
1.95135e-05
-2.17828e-06
1.874e-05
-1.74276e-06
1.77592e-05
-1.15334e-06
1.66878e-05
-1.37156e-06
1.52716e-05
-2.64199e-07
1.40688e-05
-8.09667e-07
1.33311e-05
-1.13814e-06
1.27437e-05
-1.63186e-06
1.18147e-05
-7.46465e-07
1.17391e-05
-8.31272e-07
1.16353e-05
-7.52782e-07
1.19105e-05
-2.61326e-06
1.08045e-05
-3.43516e-06
9.96246e-06
-4.18431e-06
8.74258e-06
-3.24526e-06
8.93473e-06
-7.83497e-07
8.74429e-06
2.64938e-06
9.28351e-06
6.98668e-06
8.7409e-06
1.12649e-05
9.45836e-06
1.61577e-05
7.81676e-06
2.28461e-05
8.17628e-06
2.43355e-05
1.01433e-05
2.6174e-05
9.16164e-06
2.73132e-05
1.02563e-05
2.23191e-05
1.14481e-05
2.31463e-05
1.14875e-05
1.99344e-05
1.21989e-05
1.9313e-05
1.31981e-05
1.58573e-05
1.39151e-05
1.55478e-05
1.44847e-05
1.24312e-05
1.53214e-05
1.18836e-05
1.60384e-05
7.76721e-06
1.68535e-05
6.87261e-06
1.78118e-05
4.05872e-06
1.89498e-05
3.24973e-06
1.94317e-05
3.00004e-07
1.95909e-05
-9.88737e-07
1.95583e-05
-3.53315e-06
1.98668e-05
-4.24636e-06
2.00673e-05
-6.11392e-06
2.07688e-05
-7.10704e-06
2.13803e-05
-9.31531e-06
2.23467e-05
-1.0017e-05
2.29398e-05
-1.085e-05
2.37566e-05
-1.09401e-05
2.46665e-05
-1.17912e-05
2.56601e-05
-1.1617e-05
2.65e-05
-1.26138e-05
2.74884e-05
-1.2782e-05
2.83836e-05
-1.34593e-05
2.92657e-05
-1.34697e-05
2.99891e-05
-1.37175e-05
3.06798e-05
-1.32049e-05
3.11115e-05
-1.28586e-05
3.13435e-05
-1.17212e-05
3.13291e-05
-1.05034e-05
3.0841e-05
-8.42532e-06
2.99777e-05
-6.36708e-06
2.89924e-05
-3.47636e-06
2.74914e-05
-5.73068e-07
2.5709e-05
2.37462e-06
2.3838e-05
4.91903e-06
2.16154e-05
8.05817e-06
1.89747e-05
9.75013e-06
1.71147e-05
1.14985e-05
1.61446e-05
1.33995e-05
1.57447e-05
1.59722e-05
1.52012e-05
1.71604e-05
1.51186e-05
1.8371e-05
1.5234e-05
1.92052e-05
1.53194e-05
1.86044e-05
1.56007e-05
1.83044e-05
1.62163e-05
1.69621e-05
1.64229e-05
1.58832e-05
1.68648e-05
1.32215e-05
1.71293e-05
1.16871e-05
1.74795e-05
8.26191e-06
1.76478e-05
6.32278e-06
1.77298e-05
2.84663e-06
1.75058e-05
1.56193e-06
1.72349e-05
-1.07642e-06
1.66544e-05
-1.56883e-06
1.58365e-05
-3.09301e-06
1.50847e-05
-2.90062e-06
-3.05573e-06
1.42608e-05
2.47979e-05
-9.00331e-07
2.52475e-05
-1.00772e-06
2.57169e-05
-1.28237e-06
2.58321e-05
-7.39758e-07
2.59042e-05
-7.96611e-07
2.58435e-05
-3.65289e-07
2.58409e-05
-4.9184e-07
2.57921e-05
-2.12207e-07
2.58021e-05
-3.22346e-07
2.57875e-05
-1.44001e-07
2.57952e-05
-2.29345e-07
2.58078e-05
-1.46725e-07
2.58075e-05
-2.12124e-07
2.58007e-05
-8.22275e-08
2.58494e-05
-3.11426e-07
2.58304e-05
-1.27069e-08
2.59451e-05
-4.35127e-07
2.58977e-05
8.64566e-08
2.60986e-05
-5.80941e-07
2.60001e-05
2.02594e-07
2.62239e-05
-6.44698e-07
2.61102e-05
1.8647e-07
2.63191e-05
-6.84698e-07
2.61737e-05
1.16596e-07
2.63632e-05
-7.65429e-07
2.62276e-05
-5.07728e-08
2.63602e-05
-8.31376e-07
2.62271e-05
-2.28178e-07
2.63333e-05
-8.83335e-07
2.6152e-05
-2.27749e-07
2.61937e-05
-8.3238e-07
2.59973e-05
-1.18688e-08
2.60146e-05
-5.98091e-07
2.57942e-05
4.14135e-07
2.58615e-05
-1.88228e-07
2.57025e-05
1.01343e-06
2.58396e-05
3.15801e-07
2.57832e-05
1.59109e-06
2.60269e-05
8.06674e-07
2.60719e-05
1.92701e-06
2.63658e-05
9.9733e-07
2.65085e-05
1.93061e-06
2.69203e-05
7.07044e-07
2.70941e-05
1.45134e-06
2.75202e-05
-9.84097e-09
2.77615e-05
6.48819e-07
2.81566e-05
-1.1524e-06
2.84177e-05
-4.83813e-07
2.87006e-05
-2.26618e-06
2.90352e-05
-1.90102e-06
2.91313e-05
-3.44218e-06
2.92765e-05
-3.17661e-06
2.92286e-05
-4.47298e-06
2.91558e-05
-4.00286e-06
2.89212e-05
-5.18953e-06
2.84911e-05
-4.32587e-06
2.83161e-05
-5.24294e-06
2.79025e-05
-3.81994e-06
2.75984e-05
-4.13632e-06
2.70421e-05
-2.24256e-06
2.68233e-05
-2.914e-06
2.63556e-05
-6.87583e-07
2.63913e-05
-1.21233e-06
2.61579e-05
1.36347e-06
2.64321e-05
5.29136e-07
2.61522e-05
3.30794e-06
2.64744e-05
2.0849e-06
2.62095e-05
4.67621e-06
2.609e-05
3.35048e-06
2.58369e-05
5.19123e-06
2.59428e-05
3.72709e-06
2.58932e-05
5.207e-06
2.679e-05
3.3474e-06
2.7282e-05
4.70007e-06
2.83758e-05
2.68539e-06
2.92075e-05
3.63119e-06
3.02576e-05
1.22693e-06
3.10569e-05
1.73852e-06
3.20299e-05
-6.78755e-07
3.27977e-05
-8.57701e-07
3.34573e-05
-3.53101e-06
3.40209e-05
-3.93485e-06
3.45346e-05
-6.55508e-06
3.48291e-05
-6.88187e-06
3.52244e-05
-9.42877e-06
3.53411e-05
-9.44104e-06
3.55632e-05
-1.18271e-05
3.56257e-05
-1.14193e-05
3.58989e-05
-1.32981e-05
3.62035e-05
-1.27606e-05
3.64723e-05
-1.38723e-05
3.68074e-05
-1.32084e-05
3.73131e-05
-1.39094e-05
3.75187e-05
-1.29741e-05
3.76621e-05
-1.33388e-05
3.72666e-05
-1.1811e-05
3.68279e-05
-1.19023e-05
3.5753e-05
-1.00025e-05
3.48718e-05
-9.83612e-06
3.35402e-05
-7.95746e-06
3.24695e-05
-7.71495e-06
3.1044e-05
-6.17641e-06
3.00528e-05
-5.99998e-06
2.88392e-05
-4.70011e-06
2.80385e-05