/*--------------------------------*- C++ -*----------------------------------*\
| =========                 |                                                 |
| \\      /  F ield         | OpenFOAM: The Open Source CFD Toolbox           |
|  \\    /   O peration     | Version:  2.4.0                                 |
|   \\  /    A nd           | Web:      www.OpenFOAM.org                      |
|    \\/     M anipulation  |                                                 |
\*---------------------------------------------------------------------------*/
FoamFile
{
    version     2.0;
    format      ascii;
    class       volVectorField;
    location    "0.65";
    object      U;
}
// * * * * * * * * * * * * * * * * * * * * * * * * * * * * * * * * * * * * * //

dimensions      [0 1 -1 0 0 0 0];

internalField   nonuniform List<vector> 
8800
(
(8.0908 0.388123 0)
(5.44943 0.242358 0)
(3.91335 0.0428008 0)
(3.15144 -0.0147552 0)
(2.80625 -0.0192219 0)
(2.59793 -0.0110865 0)
(2.48101 -0.00351513 0)
(2.37545 -0.00427065 0)
(2.33142 -0.00295904 0)
(2.24319 0.00279042 0)
(2.21433 -0.00105052 0)
(2.16619 -0.00294433 0)
(2.16071 0.00185891 0)
(2.09213 0.00165765 0)
(2.09035 -0.00196872 0)
(2.0348 0.00249438 0)
(2.0341 -0.00178235 0)
(1.94816 0.00379303 0)
(1.98589 0.00485728 0)
(1.7044 -0.0568937 0)
(10.0833 0.838906 0)
(9.65701 0.866576 0)
(8.87828 0.507961 0)
(8.06439 0.262973 0)
(7.51319 0.134164 0)
(6.99748 0.0836982 0)
(6.69249 0.0599376 0)
(6.39824 0.033712 0)
(6.2463 0.0268305 0)
(5.99428 0.0348021 0)
(5.94457 0.0157205 0)
(5.76709 0.00803163 0)
(5.74474 0.0213697 0)
(5.57924 0.0196678 0)
(5.58496 0.00650553 0)
(5.42206 0.0213008 0)
(5.45132 0.0131085 0)
(5.22231 0.0242221 0)
(5.33613 0.0138252 0)
(4.96997 -0.00448783 0)
(10.0644 0.633076 0)
(10.6564 0.859982 0)
(10.8865 0.604642 0)
(10.6551 0.374843 0)
(10.4864 0.248256 0)
(10.0723 0.201815 0)
(9.8334 0.16112 0)
(9.492 0.109315 0)
(9.34744 0.0935848 0)
(8.98817 0.0932607 0)
(8.96012 0.0511407 0)
(8.67737 0.038184 0)
(8.66434 0.053935 0)
(8.42396 0.0461301 0)
(8.45473 0.0250222 0)
(8.19752 0.0453512 0)
(8.28829 0.0348788 0)
(7.92859 0.0569384 0)
(8.14599 0.0158894 0)
(7.63006 0.0290895 0)
(10.0136 0.45889 0)
(10.5531 0.69881 0)
(11.223 0.555837 0)
(11.3222 0.354212 0)
(11.5755 0.245451 0)
(11.443 0.238206 0)
(11.4967 0.212909 0)
(11.2766 0.152131 0)
(11.3465 0.149425 0)
(11.033 0.152771 0)
(11.1212 0.0913053 0)
(10.8291 0.0758042 0)
(10.8926 0.0962008 0)
(10.6373 0.0796223 0)
(10.7262 0.0503363 0)
(10.4153 0.0801048 0)
(10.6109 0.0554182 0)
(10.1127 0.10453 0)
(10.5391 0.0104404 0)
(9.66522 0.171537 0)
(10.0811 0.349722 0)
(10.3419 0.550152 0)
(11.1359 0.475329 0)
(11.2832 0.309308 0)
(11.6622 0.185204 0)
(11.6404 0.201773 0)
(11.9123 0.196206 0)
(11.757 0.137388 0)
(12.044 0.145328 0)
(11.8746 0.169121 0)
(12.0958 0.0934473 0)
(11.8799 0.0900779 0)
(12.0527 0.107637 0)
(11.903 0.100731 0)
(12.0712 0.0574276 0)
(11.7848 0.100598 0)
(12.1633 0.0713745 0)
(11.5408 0.127734 0)
(12.2894 0.0239956 0)
(10.9729 0.205692 0)
(10.123 0.262133 0)
(10.2191 0.431898 0)
(10.9432 0.379894 0)
(11.2015 0.272008 0)
(11.5638 0.146304 0)
(11.5564 0.156967 0)
(11.8718 0.168493 0)
(11.7063 0.0996317 0)
(12.0225 0.112363 0)
(12.0112 0.151747 0)
(12.2421 0.0793511 0)
(12.1288 0.0792483 0)
(12.2665 0.099773 0)
(12.264 0.0741685 0)
(12.4392 0.0707864 0)
(12.2886 0.0663591 0)
(12.6433 0.0935774 0)
(12.3302 0.0864156 0)
(12.7112 0.0587126 0)
(11.955 0.0736531 0)
(10.0924 0.187712 0)
(10.1966 0.338536 0)
(10.772 0.273894 0)
(11.102 0.227182 0)
(11.4072 0.111392 0)
(11.545 0.116399 0)
(11.8142 0.146164 0)
(11.6566 0.083178 0)
(11.8142 0.0583732 0)
(11.9427 0.117034 0)
(12.1626 0.0550529 0)
(12.156 0.0788002 0)
(12.1372 0.0876085 0)
(12.3331 0.0478784 0)
(12.2041 0.0502736 0)
(12.6258 0.048574 0)
(12.1387 0.0542589 0)
(13.1241 0.0984124 0)
(11.8108 0.0275172 0)
(13.0981 0.0159215 0)
(9.98314 0.131728 0)
(10.3141 0.238858 0)
(10.6212 0.186368 0)
(11.0516 0.178878 0)
(11.2452 0.0655396 0)
(11.6057 0.0546446 0)
(11.7021 0.132171 0)
(11.6754 0.0772202 0)
(11.6427 0.0329239 0)
(11.879 0.0602151 0)
(12.0308 0.0225006 0)
(12.1808 0.0759712 0)
(11.9689 0.0681946 0)
(12.4386 0.0456003 0)
(11.8275 0.00451677 0)
(12.8991 0.0721199 0)
(11.5847 -0.0426535 0)
(13.6643 0.129405 0)
(11.1631 -0.0147731 0)
(13.7321 -0.0562052 0)
(9.98083 0.0709962 0)
(10.3029 0.140462 0)
(10.5627 0.116746 0)
(11.0256 0.119579 0)
(11.2402 0.015688 0)
(11.4932 0.0106941 0)
(11.5387 0.12499 0)
(11.7271 0.069501 0)
(11.6842 0.00293191 0)
(11.8945 0.0125642 0)
(11.8325 -0.019521 0)
(12.073 0.0840666 0)
(12.0161 0.0462098 0)
(12.442 0.0662484 0)
(11.8508 -0.0547636 0)
(12.7347 0.0885845 0)
(11.6757 -0.143359 0)
(13.3995 0.151125 0)
(11.3865 -0.0356245 0)
(13.6697 -0.0344381 0)
(10.0619 0.0276608 0)
(10.1563 0.0483049 0)
(10.6056 0.0266056 0)
(10.9626 0.0519486 0)
(11.2998 -0.00411846 0)
(11.3872 -0.00163844 0)
(11.4596 0.0689799 0)
(11.7218 0.0150225 0)
(11.8106 -0.0158396 0)
(11.895 0.0134919 0)
(11.7323 -0.0200935 0)
(11.9094 0.0261613 0)
(12.0998 -0.00366538 0)
(12.3442 0.0721944 0)
(12.0738 -0.0534308 0)
(12.5034 0.0901713 0)
(11.9341 -0.207366 0)
(12.8932 0.145654 0)
(11.7364 -0.0872923 0)
(13.3191 -0.0175791 0)
(9.98726 -0.0114237 0)
(10.2088 -0.0455413 0)
(10.6273 -0.0660653 0)
(10.957 -0.0152338 0)
(11.298 -0.0388271 0)
(11.404 -0.0116289 0)
(11.505 0.0347226 0)
(11.6805 -0.0461846 0)
(11.7901 -0.0479493 0)
(11.8221 0.0176324 0)
(11.8249 -0.0200445 0)
(11.9738 -0.0139238 0)
(12.0155 -0.0425854 0)
(12.2545 0.0547985 0)
(12.1429 -0.0799943 0)
(12.4925 0.0901271 0)
(12.069 -0.221172 0)
(12.6992 0.116469 0)
(11.8788 -0.0999232 0)
(13.0551 -0.0314949 0)
(9.97383 -0.0511688 0)
(10.2821 -0.158563 0)
(10.6138 -0.142511 0)
(11.0053 -0.0776286 0)
(11.2709 -0.0649622 0)
(11.409 -0.0338922 0)
(11.5753 -0.00900795 0)
(11.7255 -0.0840561 0)
(11.7224 -0.0570222 0)
(11.8181 -0.0108849 0)
(11.8777 -0.0486664 0)
(12.0873 -0.0317194 0)
(12.0184 -0.0510313 0)
(12.268 0.019185 0)
(12.1129 -0.0888261 0)
(12.4689 0.0604773 0)
(12.2013 -0.222738 0)
(12.5208 0.082543 0)
(12.2149 -0.104513 0)
(12.7549 -0.0874238 0)
(10.0185 -0.107996 0)
(10.2393 -0.252639 0)
(10.6945 -0.225053 0)
(11.0356 -0.138106 0)
(11.2998 -0.0913889 0)
(11.4974 -0.0721164 0)
(11.6276 -0.0510555 0)
(11.7352 -0.106863 0)
(11.7566 -0.076105 0)
(11.8739 -0.0401973 0)
(11.9579 -0.0789139 0)
(12.1376 -0.0549121 0)
(12.0832 -0.0661141 0)
(12.232 0.0115231 0)
(12.1961 -0.108906 0)
(12.4252 0.0290652 0)
(12.3735 -0.211693 0)
(12.4271 0.0224531 0)
(12.4294 -0.114241 0)
(12.6685 -0.119235 0)
(10.0022 -0.160384 0)
(10.3011 -0.363525 0)
(10.7966 -0.314296 0)
(11.0838 -0.18255 0)
(11.3973 -0.13286 0)
(11.55 -0.107875 0)
(11.685 -0.0801658 0)
(11.7638 -0.136657 0)
(11.8843 -0.0931048 0)
(11.9633 -0.0832219 0)
(12.059 -0.104452 0)
(12.1266 -0.0744231 0)
(12.1434 -0.0542804 0)
(12.2556 -0.0318287 0)
(12.3105 -0.105681 0)
(12.4651 -0.0308564 0)
(12.4992 -0.187686 0)
(12.4984 -0.0323464 0)
(12.5244 -0.127246 0)
(12.6399 -0.156072 0)
(10.0505 -0.240739 0)
(10.3448 -0.472885 0)
(10.9152 -0.389128 0)
(11.1349 -0.225491 0)
(11.5212 -0.172198 0)
(11.6073 -0.142398 0)
(11.8064 -0.118686 0)
(11.8432 -0.175293 0)
(12.0181 -0.127054 0)
(12.0252 -0.102426 0)
(12.1085 -0.113525 0)
(12.135 -0.087881 0)
(12.2135 -0.0774071 0)
(12.3135 -0.0585315 0)
(12.3486 -0.125369 0)
(12.4776 -0.0671345 0)
(12.4528 -0.173595 0)
(12.3986 -0.0759944 0)
(12.4778 -0.138714 0)
(12.4047 -0.172786 0)
(10.0607 -0.339395 0)
(10.4264 -0.582911 0)
(11.0281 -0.464866 0)
(11.2566 -0.268357 0)
(11.6775 -0.229853 0)
(11.6656 -0.186735 0)
(11.9128 -0.160174 0)
(11.8291 -0.199014 0)
(11.9979 -0.147897 0)
(11.8894 -0.115501 0)
(11.9933 -0.12704 0)
(11.9178 -0.108438 0)
(12.0132 -0.0910721 0)
(11.9612 -0.0814214 0)
(11.9738 -0.122064 0)
(11.9352 -0.0894624 0)
(11.893 -0.139709 0)
(11.7365 -0.103583 0)
(11.8014 -0.133883 0)
(11.5313 -0.173597 0)
(10.0259 -0.454773 0)
(10.5686 -0.714794 0)
(11.138 -0.542083 0)
(11.374 -0.340519 0)
(11.5774 -0.279707 0)
(11.4346 -0.221263 0)
(11.5345 -0.186784 0)
(11.2741 -0.197021 0)
(11.3003 -0.149059 0)
(11.074 -0.111313 0)
(11.0662 -0.116503 0)
(10.8493 -0.0969313 0)
(10.8665 -0.0813634 0)
(10.6727 -0.0687342 0)
(10.6417 -0.0953456 0)
(10.4648 -0.0760807 0)
(10.4204 -0.0999044 0)
(10.1706 -0.0990965 0)
(10.1977 -0.0975942 0)
(9.81092 -0.160182 0)
(10.075 -0.630903 0)
(10.6552 -0.866249 0)
(10.8525 -0.600908 0)
(10.7085 -0.367453 0)
(10.4533 -0.26422 0)
(10.0691 -0.194053 0)
(9.87447 -0.145753 0)
(9.46056 -0.133853 0)
(9.32288 -0.0973274 0)
(9.02867 -0.0654174 0)
(8.9242 -0.0661725 0)
(8.67985 -0.0549373 0)
(8.64488 -0.0453982 0)
(8.43366 -0.0350439 0)
(8.39067 -0.0568643 0)
(8.19258 -0.0445901 0)
(8.1519 -0.0625938 0)
(7.8941 -0.0612568 0)
(7.89527 -0.0672238 0)
(7.52839 -0.0889047 0)
(10.0893 -0.838169 0)
(9.65573 -0.868886 0)
(8.86406 -0.507016 0)
(8.09543 -0.258312 0)
(7.486 -0.141925 0)
(6.99903 -0.0829855 0)
(6.71776 -0.0482854 0)
(6.37633 -0.0454496 0)
(6.23095 -0.0338605 0)
(6.01554 -0.0170942 0)
(5.93069 -0.0215279 0)
(5.76061 -0.0206517 0)
(5.72209 -0.0161315 0)
(5.57884 -0.0113476 0)
(5.54271 -0.0253585 0)
(5.39168 -0.0204989 0)
(5.34927 -0.0282903 0)
(5.15415 -0.0288555 0)
(5.13849 -0.0345473 0)
(4.84455 -0.0195309 0)
(8.09198 -0.387882 0)
(5.44998 -0.242435 0)
(3.90789 -0.0433362 0)
(3.16116 0.0164212 0)
(2.8002 0.017465 0)
(2.59324 0.0103208 0)
(2.48955 0.0078953 0)
(2.37703 0.000888863 0)
(2.31638 -3.05922e-05 0)
(2.24373 0.00311851 0)
(2.22121 -6.6587e-05 0)
(2.15897 -0.000848821 0)
(2.13811 -0.000185148 0)
(2.09148 0.00110942 0)
(2.07243 -0.00298659 0)
(2.00581 -0.0011677 0)
(1.97461 -0.00248963 0)
(1.89188 -0.00277162 0)
(1.8577 -0.00266002 0)
(1.71532 0.0117812 0)
(2.17891 -0.0950134 0)
(2.25406 -0.0437581 0)
(2.49644 -0.0605502 0)
(2.55274 -0.0815063 0)
(2.78574 -0.114254 0)
(2.78139 -0.107719 0)
(2.97553 -0.101351 0)
(2.90207 -0.0567715 0)
(3.07416 -0.0419183 0)
(2.99076 -0.00764995 0)
(3.16599 -0.011954 0)
(3.09481 0.000289522 0)
(3.29101 -0.0092327 0)
(3.21075 0.00884441 0)
(3.41764 -0.00473386 0)
(3.31914 0.0179359 0)
(3.53774 -0.00260698 0)
(3.40861 0.0275371 0)
(3.65278 -0.00239741 0)
(3.48659 0.0344627 0)
(3.76933 -0.00177711 0)
(3.55971 0.0356031 0)
(3.89725 -0.010065 0)
(3.63935 0.0178687 0)
(4.03746 -0.0470892 0)
(3.72456 -0.0300305 0)
(4.15527 -0.114765 0)
(3.7877 -0.10986 0)
(4.2309 -0.199866 0)
(3.77583 -0.189724 0)
(4.20531 -0.279456 0)
(3.65446 -0.222484 0)
(4.01468 -0.278231 0)
(3.40982 -0.161181 0)
(3.82342 -0.161186 0)
(3.27576 0.0660005 0)
(3.90339 0.167991 0)
(3.51264 0.519535 0)
(4.48543 0.637944 0)
(4.01348 0.937414 0)
(5.22861 0.93589 0)
(4.46829 1.10508 0)
(5.92143 0.954434 0)
(4.75575 0.946926 0)
(6.45529 0.64612 0)
(4.91534 0.606746 0)
(6.9337 0.257487 0)
(5.03076 0.257095 0)
(7.30419 -0.149953 0)
(5.14316 -0.215684 0)
(7.60909 -0.67752 0)
(5.50318 -0.742889 0)
(7.88876 -1.1066 0)
(5.86399 -1.14572 0)
(7.96764 -1.56832 0)
(6.02666 -1.719 0)
(7.90911 -1.98426 0)
(6.41836 -1.7955 0)
(7.97534 -1.67246 0)
(6.71389 -1.16426 0)
(7.7172 -1.0581 0)
(6.41628 -0.720386 0)
(7.07437 -0.648474 0)
(5.94304 -0.266882 0)
(6.45607 -0.0818695 0)
(5.77125 0.449817 0)
(6.51338 0.837328 0)
(6.231 1.30609 0)
(6.98958 1.55759 0)
(6.71412 1.86814 0)
(7.43757 1.83973 0)
(6.86957 2.0427 0)
(7.67066 1.95062 0)
(7.16027 2.17119 0)
(7.97463 1.95827 0)
(7.53667 1.99019 0)
(8.69522 1.64121 0)
(7.91074 1.52452 0)
(9.49901 0.989302 0)
(8.7171 0.884124 0)
(10.2366 0.0384235 0)
(9.7833 -0.209812 0)
(11.1141 -0.957672 0)
(11.0168 -1.38936 0)
(11.9174 -2.25766 0)
(12.0497 -2.6107 0)
(12.5959 -3.28873 0)
(12.853 -3.69141 0)
(12.9272 -4.13923 0)
(13.3165 -4.28505 0)
(12.9571 -4.51714 0)
(13.3741 -4.36778 0)
(13.0148 -4.38118 0)
(13.2109 -4.18607 0)
(13.242 -4.14358 0)
(13.195 -4.10249 0)
(13.4341 -4.08146 0)
(13.1157 -4.19076 0)
(13.4447 -4.03263 0)
(12.7844 -4.04625 0)
(12.7937 -3.73252 0)
(12.0838 -3.59766 0)
(12.0664 -3.21469 0)
(11.2144 -3.01644 0)
(11.0274 -2.69299 0)
(10.5374 -2.46246 0)
(10.318 -2.22248 0)
(9.88984 -1.91957 0)
(9.50531 -1.87172 0)
(9.31224 -1.70368 0)
(8.87721 -1.83516 0)
(8.66141 -1.72256 0)
(8.23515 -1.53924 0)
(8.19242 -1.38544 0)
(7.69554 -1.39122 0)
(7.86824 -1.01954 0)
(7.17924 -1.33141 0)
(7.51484 -1.19226 0)
(6.59158 -1.12836 0)
(6.91742 -0.8495 0)
(5.95878 -1.20638 0)
(6.17113 -0.972026 0)
(5.32497 -0.823859 0)
(5.42835 -0.531767 0)
(5.04458 -0.72287 0)
(4.70617 -1.20642 0)
(4.55113 -1.6559 0)
(3.98096 -2.02716 0)
(4.5493 -1.20251 0)
(4.01164 -0.556961 0)
(4.70943 1.24849 0)
(4.23896 2.04979 0)
(4.8853 3.68285 0)
(4.08862 4.42421 0)
(3.9431 6.3191 0)
(3.65743 8.39581 0)
(2.8029 8.70586 0)
(2.97037 8.83756 0)
(3.78493 9.05843 0)
(3.67467 7.78473 0)
(3.10965 7.06284 0)
(4.45236 7.20784 0)
(4.3792 5.91314 0)
(3.25503 5.97356 0)
(6.48642 4.81773 0)
(2.86099 4.7725 0)
(7.57992 3.59109 0)
(3.47014 3.09842 0)
(8.16364 2.15761 0)
(4.17268 2.23598 0)
(8.72813 0.860495 0)
(5.43262 -0.1118 0)
(8.77202 -1.40696 0)
(4.81073 -1.43445 0)
(7.99253 -2.04702 0)
(4.46977 -1.93328 0)
(7.80949 -2.58087 0)
(5.3342 -2.46875 0)
(8.32298 -2.93695 0)
(6.70196 -2.78469 0)
(9.09656 -3.07753 0)
(8.05237 -2.96333 0)
(9.84685 -3.35806 0)
(9.22765 -3.4448 0)
(10.3552 -3.76508 0)
(10.1194 -3.77277 0)
(10.6464 -4.04879 0)
(10.812 -3.97526 0)
(10.794 -3.98362 0)
(11.0566 -3.79444 0)
(10.7444 -3.74416 0)
(10.9611 -3.28952 0)
(10.072 -2.79846 0)
(9.9459 -2.27314 0)
(9.07766 -1.60878 0)
(8.63387 -0.941646 0)
(7.76471 -0.0645425 0)
(6.75039 0.396594 0)
(5.21958 0.961133 0)
(4.64437 2.20422 0)
(3.96349 3.58898 0)
(4.22911 4.84969 0)
(4.08934 5.23592 0)
(3.88059 6.23961 0)
(4.3647 6.33215 0)
(3.68894 6.33428 0)
(4.49599 6.44155 0)
(3.87038 6.12517 0)
(4.26508 5.59669 0)
(4.71199 4.98829 0)
(4.19392 4.31711 0)
(5.15549 3.18119 0)
(4.35196 2.47577 0)
(5.16616 1.12993 0)
(4.38351 0.434471 0)
(4.85644 -0.624128 0)
(4.02029 -0.925005 0)
(4.25479 -1.71899 0)
(3.39904 -1.77848 0)
(3.44492 -1.69444 0)
(5.21416 -0.0970619 0)
(5.16117 -0.0639004 0)
(5.32679 -0.0961841 0)
(5.28589 -0.104085 0)
(5.50936 -0.148623 0)
(5.44029 -0.124845 0)
(5.65447 -0.129851 0)
(5.51743 -0.084016 0)
(5.71743 -0.0848984 0)
(5.53908 -0.0516983 0)
(5.7632 -0.0596542 0)
(5.56484 -0.03486 0)
(5.83266 -0.0523466 0)
(5.607 -0.0197534 0)
(5.92081 -0.0509082 0)
(5.6425 -0.00663062 0)
(6.01892 -0.052226 0)
(5.66186 0.00694181 0)
(6.13128 -0.0570394 0)
(5.67271 0.0154471 0)
(6.25752 -0.0647925 0)
(5.68773 0.0157586 0)
(6.40025 -0.0783752 0)
(5.71785 -0.00502446 0)
(6.55461 -0.10955 0)
(5.75081 -0.0525763 0)
(6.70305 -0.166687 0)
(5.76503 -0.118867 0)
(6.81495 -0.234255 0)
(5.72788 -0.17266 0)
(6.85105 -0.279957 0)
(5.59326 -0.167576 0)
(6.80655 -0.231805 0)
(5.38796 -0.0551007 0)
(6.73532 -0.0727994 0)
(5.12454 0.165617 0)
(6.68097 0.163644 0)
(4.8993 0.416937 0)
(6.88742 0.406988 0)
(4.98244 0.680252 0)
(7.40444 0.599463 0)
(5.28936 0.807647 0)
(8.04826 0.600879 0)
(5.68493 0.761813 0)
(8.64678 0.411773 0)
(5.91613 0.482622 0)
(9.08228 0.0409127 0)
(6.12682 0.0838069 0)
(9.50457 -0.31334 0)
(6.51973 -0.327386 0)
(9.80327 -0.814309 0)
(6.9262 -0.864621 0)
(9.93749 -1.33607 0)
(7.35655 -1.18844 0)
(10.1902 -1.67021 0)
(7.90723 -1.56764 0)
(10.214 -1.88642 0)
(8.03362 -1.57773 0)
(9.70771 -1.57239 0)
(7.74973 -1.16044 0)
(9.26506 -1.15115 0)
(7.8321 -0.688652 0)
(9.07109 -0.48287 0)
(7.746 0.111074 0)
(8.46045 0.256575 0)
(7.1771 0.624328 0)
(7.85307 0.57133 0)
(7.01998 1.07472 0)
(8.15741 1.16254 0)
(7.40796 1.70182 0)
(8.80746 1.71037 0)
(7.93227 2.15661 0)
(9.32019 1.933 0)
(8.13266 2.02111 0)
(9.98594 1.76036 0)
(8.27199 1.80218 0)
(10.7497 1.18547 0)
(8.82124 1.27814 0)
(11.4537 0.560085 0)
(9.63434 0.471484 0)
(12.2472 -0.395455 0)
(10.6488 -0.56764 0)
(12.9899 -1.45327 0)
(11.8093 -1.74491 0)
(13.7039 -2.52703 0)
(12.6834 -2.84984 0)
(14.0341 -3.58442 0)
(13.4729 -3.76764 0)
(13.8942 -4.3111 0)
(13.7566 -4.22841 0)
(13.7087 -4.51297 0)
(13.8459 -4.22156 0)
(13.6082 -4.35328 0)
(13.9384 -4.10259 0)
(13.815 -4.1763 0)
(14.0975 -4.08187 0)
(13.9238 -4.12455 0)
(14.0653 -4.07564 0)
(13.5909 -3.90524 0)
(13.4206 -3.72567 0)
(13.0359 -3.49466 0)
(12.4662 -3.33877 0)
(12.1312 -2.85746 0)
(11.5218 -2.62174 0)
(11.3513 -2.27367 0)
(10.6141 -2.1338 0)
(10.5166 -1.79424 0)
(9.88319 -1.77307 0)
(9.99269 -1.56374 0)
(9.27993 -1.59206 0)
(9.36206 -1.30354 0)
(8.54667 -1.51131 0)
(8.75705 -1.28104 0)
(7.91732 -1.32897 0)
(8.06771 -1.04818 0)
(7.52539 -0.914066 0)
(7.47713 -0.886554 0)
(6.76307 -0.973583 0)
(6.58432 -0.753829 0)
(6.08974 -0.825991 0)
(5.83161 -0.831626 0)
(5.45349 -0.714264 0)
(5.32476 -0.6919 0)
(5.43958 -0.408622 0)
(4.63709 -0.486121 0)
(4.75653 -0.601392 0)
(3.92658 -1.63746 0)
(4.1089 -1.7321 0)
(3.6705 -1.71209 0)
(3.77521 -0.471807 0)
(4.08762 0.825366 0)
(4.27134 2.14432 0)
(4.33263 3.26752 0)
(4.35465 5.17599 0)
(3.2687 6.31694 0)
(3.4575 8.50672 0)
(3.67002 9.4709 0)
(3.19137 8.38105 0)
(3.21604 8.39211 0)
(4.55263 8.27495 0)
(3.94214 6.7251 0)
(3.56152 7.06455 0)
(6.20824 5.93891 0)
(2.67307 5.72769 0)
(7.61612 4.60349 0)
(2.93144 4.51573 0)
(8.05302 3.14327 0)
(4.06744 2.81258 0)
(8.27938 1.94524 0)
(5.13297 1.83125 0)
(8.93548 0.500322 0)
(6.1423 -0.138286 0)
(8.90373 -1.14984 0)
(5.86767 -1.26055 0)
(8.5876 -1.92494 0)
(5.77485 -2.00495 0)
(8.66014 -2.72384 0)
(6.38903 -2.82331 0)
(9.28339 -3.26942 0)
(7.31766 -3.23302 0)
(9.94 -3.43304 0)
(8.35493 -3.36684 0)
(10.6398 -3.7032 0)
(9.39466 -3.77038 0)
(11.0991 -4.02048 0)
(10.2338 -4.05529 0)
(11.4991 -4.21155 0)
(10.998 -4.06464 0)
(11.6999 -4.07967 0)
(11.5569 -3.82604 0)
(11.6396 -3.45547 0)
(11.5581 -3.08521 0)
(11.2932 -2.6273 0)
(11.0756 -1.78336 0)
(10.2431 -1.0556 0)
(9.77515 -0.183576 0)
(8.74882 0.588073 0)
(8.08116 1.42646 0)
(6.62447 1.77118 0)
(5.86452 2.71891 0)
(5.32757 3.82641 0)
(4.98225 5.02143 0)
(5.61076 5.32407 0)
(4.35485 6.1037 0)
(5.47363 6.47742 0)
(4.77143 6.21154 0)
(5.1764 6.31813 0)
(5.32482 6.06414 0)
(5.05927 5.53898 0)
(6.01742 4.77156 0)
(5.17328 4.15691 0)
(6.21599 3.02297 0)
(5.34861 2.24263 0)
(6.2872 1.04891 0)
(5.42123 0.472401 0)
(5.99914 -0.424388 0)
(5.2573 -0.733831 0)
(5.60552 -1.38432 0)
(4.86675 -1.34322 0)
(4.83503 -1.45026 0)
(7.9276 -0.180375 0)
(7.75474 -0.154987 0)
(8.02785 -0.202607 0)
(7.8433 -0.152451 0)
(8.20193 -0.18783 0)
(7.94716 -0.123593 0)
(8.329 -0.144838 0)
(7.97244 -0.0804707 0)
(8.38349 -0.0949282 0)
(7.94085 -0.0503269 0)
(8.41 -0.0731816 0)
(7.90356 -0.0415265 0)
(8.46336 -0.0696286 0)
(7.87789 -0.0258789 0)
(8.5615 -0.0788347 0)
(7.84762 -0.00612931 0)
(8.70121 -0.0894995 0)
(7.80099 0.0156811 0)
(8.86741 -0.0994145 0)
(7.73872 0.0297805 0)
(9.04124 -0.107578 0)
(7.66299 0.0162094 0)
(9.21789 -0.125707 0)
(7.59565 -0.0168146 0)
(9.38555 -0.158915 0)
(7.54648 -0.0648901 0)
(9.5401 -0.20393 0)
(7.49708 -0.123338 0)
(9.6584 -0.240941 0)
(7.42117 -0.158938 0)
(9.70687 -0.256513 0)
(7.29513 -0.11904 0)
(9.68303 -0.194942 0)
(7.12743 0.0052316 0)
(9.62268 -0.0397702 0)
(6.94153 0.216915 0)
(9.58491 0.1446 0)
(6.81015 0.487119 0)
(9.6594 0.342462 0)
(6.7836 0.652167 0)
(9.89685 0.461945 0)
(6.96792 0.71627 0)
(10.2442 0.440263 0)
(7.24471 0.566738 0)
(10.6269 0.243278 0)
(7.54339 0.349874 0)
(10.9773 -0.119997 0)
(7.90062 0.0148815 0)
(11.2274 -0.551292 0)
(8.36626 -0.407863 0)
(11.4275 -1.04213 0)
(8.83407 -0.910909 0)
(11.5993 -1.43505 0)
(9.15002 -1.27261 0)
(11.7337 -1.78813 0)
(9.30099 -1.70877 0)
(11.3824 -1.99563 0)
(9.05367 -1.64444 0)
(10.9901 -1.62868 0)
(9.10289 -1.03824 0)
(10.8463 -1.08089 0)
(9.04268 -0.507531 0)
(10.4668 -0.489152 0)
(8.80705 0.218381 0)
(10.2791 0.237261 0)
(8.71195 0.884113 0)
(10.2217 0.802402 0)
(8.13559 1.29779 0)
(9.94977 0.962351 0)
(7.83708 1.55845 0)
(10.2476 1.31449 0)
(8.06246 1.73993 0)
(11.1117 1.64102 0)
(8.55595 1.94886 0)
(12.025 1.54944 0)
(9.12188 1.755 0)
(12.7986 1.07303 0)
(9.84822 1.08869 0)
(13.4203 0.349717 0)
(10.6771 0.211591 0)
(14.0696 -0.686737 0)
(11.4622 -0.848958 0)
(14.6729 -1.76458 0)
(12.262 -1.98516 0)
(14.9768 -2.8099 0)
(12.9145 -2.9743 0)
(14.9827 -3.79098 0)
(13.3345 -3.78199 0)
(14.739 -4.30041 0)
(13.5438 -4.14566 0)
(14.46 -4.45433 0)
(13.8427 -4.2488 0)
(14.4704 -4.40736 0)
(14.1936 -4.22235 0)
(14.5216 -4.35175 0)
(14.663 -4.14523 0)
(14.3846 -4.19672 0)
(14.5458 -3.8473 0)
(13.9004 -3.77253 0)
(13.9171 -3.3666 0)
(13.0666 -3.08066 0)
(12.9292 -2.74505 0)
(12.1655 -2.54811 0)
(11.8909 -2.25988 0)
(11.2892 -1.9037 0)
(10.9713 -1.80428 0)
(10.6109 -1.54322 0)
(10.1938 -1.53987 0)
(10.0914 -1.26849 0)
(9.58211 -1.29974 0)
(9.66418 -1.08765 0)
(8.96454 -1.23424 0)
(8.96698 -0.857549 0)
(8.18438 -0.931591 0)
(8.24512 -0.901621 0)
(7.43165 -0.791533 0)
(7.659 -0.437252 0)
(6.65609 -0.629355 0)
(6.83602 -0.330448 0)
(5.49137 -0.501389 0)
(5.81008 -0.379805 0)
(4.97573 -0.754301 0)
(5.25448 -0.461257 0)
(4.38827 -0.270055 0)
(4.84271 -0.114354 0)
(4.65832 -0.844909 0)
(4.6777 -1.35963 0)
(4.34113 -1.55158 0)
(3.46488 -1.53522 0)
(3.89067 -0.2711 0)
(3.16715 0.549161 0)
(4.04987 2.61145 0)
(3.41621 3.3669 0)
(3.94097 5.53026 0)
(3.46835 7.05262 0)
(3.03988 7.80871 0)
(3.6008 9.39819 0)
(4.17128 8.91442 0)
(3.39725 7.61629 0)
(4.12946 8.23277 0)
(5.84247 6.76452 0)
(2.5097 6.75227 0)
(7.60115 5.61933 0)
(2.80347 5.44771 0)
(8.0879 4.33907 0)
(3.65263 4.24002 0)
(8.18565 2.85404 0)
(4.87823 2.57828 0)
(8.20355 1.62841 0)
(6.07814 1.34557 0)
(8.80394 0.316504 0)
(6.88909 -0.161383 0)
(8.74567 -1.07639 0)
(6.99573 -1.28094 0)
(8.82466 -1.91416 0)
(7.28872 -2.12776 0)
(9.26232 -2.91384 0)
(7.84912 -3.14709 0)
(9.93524 -3.52125 0)
(8.40126 -3.54347 0)
(10.511 -3.87196 0)
(9.12587 -3.71924 0)
(11.2475 -4.10512 0)
(9.90864 -4.08147 0)
(11.89 -4.31105 0)
(10.7969 -4.29295 0)
(12.4405 -4.40696 0)
(11.6094 -4.28167 0)
(12.8377 -4.20767 0)
(12.2467 -3.887 0)
(12.8715 -3.62544 0)
(12.4493 -2.91617 0)
(12.4541 -2.37077 0)
(11.8125 -1.46966 0)
(11.5697 -0.601661 0)
(10.7269 0.3064 0)
(10.1037 1.13504 0)
(9.06168 2.17258 0)
(8.4316 2.68394 0)
(6.76446 3.27808 0)
(6.99693 4.07807 0)
(5.63127 5.16053 0)
(6.8682 5.52536 0)
(5.45275 6.00847 0)
(6.1733 6.47589 0)
(6.09799 6.28987 0)
(5.84228 6.18413 0)
(6.59648 5.88443 0)
(5.98527 5.48323 0)
(7.10269 4.61267 0)
(6.28853 4.03976 0)
(7.24601 2.92753 0)
(6.66254 2.31742 0)
(7.36838 1.15796 0)
(6.74981 0.627746 0)
(7.19141 -0.279594 0)
(6.68597 -0.548319 0)
(6.69185 -1.14593 0)
(6.18928 -1.1535 0)
(5.95939 -1.15879 0)
(10.3347 -0.242053 0)
(9.89955 -0.293666 0)
(10.4652 -0.400189 0)
(9.96588 -0.278909 0)
(10.6492 -0.281478 0)
(9.9893 -0.147853 0)
(10.7617 -0.167511 0)
(9.93585 -0.0867181 0)
(10.8008 -0.106189 0)
(9.85315 -0.058345 0)
(10.8209 -0.0775984 0)
(9.78319 -0.0500686 0)
(10.8784 -0.076948 0)
(9.70521 -0.0297339 0)
(10.9817 -0.0996712 0)
(9.60373 -0.0108381 0)
(11.1509 -0.128559 0)
(9.48436 0.0140484 0)
(11.3593 -0.155737 0)
(9.37399 0.0381051 0)
(11.5715 -0.164286 0)
(9.26597 0.0332873 0)
(11.7588 -0.175707 0)
(9.18405 0.00352784 0)
(11.8753 -0.205666 0)
(9.13119 -0.0501699 0)
(11.9439 -0.245309 0)
(9.09981 -0.108041 0)
(11.9497 -0.280734 0)
(9.10007 -0.104688 0)
(11.8918 -0.297575 0)
(9.05314 -0.0258248 0)
(11.8168 -0.215255 0)
(8.97462 0.0901652 0)
(11.7171 -0.0737612 0)
(8.89736 0.305301 0)
(11.6939 0.113499 0)
(8.84558 0.48327 0)
(11.749 0.325018 0)
(8.93804 0.644127 0)
(11.886 0.396532 0)
(9.12775 0.672877 0)
(12.0707 0.327178 0)
(9.44264 0.545002 0)
(12.2737 0.0596066 0)
(9.71015 0.311095 0)
(12.499 -0.303922 0)
(10.0326 -0.0754332 0)
(12.6418 -0.670616 0)
(10.3572 -0.533234 0)
(12.7996 -1.07553 0)
(10.5842 -0.999099 0)
(12.8497 -1.46692 0)
(10.5947 -1.38455 0)
(12.7817 -1.82146 0)
(10.4439 -1.58377 0)
(12.4278 -1.79995 0)
(10.2688 -1.34328 0)
(12.1395 -1.45973 0)
(9.97036 -0.839758 0)
(11.7889 -1.12142 0)
(9.61363 -0.386912 0)
(11.6056 -0.476372 0)
(9.34535 0.333163 0)
(11.7464 0.181255 0)
(9.18063 1.02338 0)
(11.9299 0.67113 0)
(9.04233 1.50047 0)
(12.1285 1.11604 0)
(8.63463 1.63544 0)
(12.2303 1.21636 0)
(8.39299 1.64824 0)
(12.4516 1.17651 0)
(8.76951 1.59466 0)
(13.0375 1.04177 0)
(9.48127 1.40555 0)
(13.7523 0.632152 0)
(10.3321 0.783944 0)
(14.3646 -0.0128617 0)
(11.1463 -0.0621918 0)
(15.017 -0.949359 0)
(11.7304 -1.12362 0)
(15.3901 -2.0035 0)
(12.2738 -2.17158 0)
(15.5299 -3.02594 0)
(12.669 -3.07681 0)
(15.5255 -3.88261 0)
(13.0008 -3.77954 0)
(15.4632 -4.3664 0)
(13.3324 -4.18123 0)
(15.5035 -4.62736 0)
(13.8236 -4.41222 0)
(15.5009 -4.60186 0)
(14.4753 -4.3472 0)
(15.4596 -4.54713 0)
(14.8793 -4.06493 0)
(15.0239 -4.12288 0)
(14.7155 -3.6028 0)
(14.1067 -3.49078 0)
(14.0456 -2.9241 0)
(13.0716 -2.87785 0)
(13.1262 -2.37535 0)
(12.0122 -2.21634 0)
(12.182 -1.75484 0)
(11.1264 -1.69987 0)
(11.3611 -1.38731 0)
(10.4875 -1.3796 0)
(10.8387 -1.22115 0)
(9.99943 -1.17321 0)
(10.2104 -1.04306 0)
(9.47766 -0.875457 0)
(9.609 -0.879034 0)
(8.87971 -0.770916 0)
(8.82515 -0.561671 0)
(8.08014 -0.533322 0)
(7.9694 -0.395668 0)
(7.40847 -0.323511 0)
(7.11323 -0.280695 0)
(6.64167 0.135131 0)
(6.23906 0.0552077 0)
(5.59409 -0.258846 0)
(5.12425 -0.348376 0)
(4.86147 -0.10596 0)
(4.41145 -0.301136 0)
(4.93399 -0.256967 0)
(4.02938 -0.682842 0)
(4.1021 -0.770571 0)
(2.88 -1.35185 0)
(3.51767 -0.909549 0)
(3.06005 -0.600233 0)
(3.47062 0.689675 0)
(3.47454 1.84419 0)
(3.75868 3.67472 0)
(3.39929 4.89242 0)
(3.92495 7.72579 0)
(3.33406 7.95257 0)
(3.00132 8.31916 0)
(4.58309 9.31053 0)
(4.97605 7.49342 0)
(2.90024 7.69649 0)
(7.45058 6.65566 0)
(2.39986 6.43902 0)
(8.0793 5.23736 0)
(3.54889 5.10584 0)
(7.97872 4.14122 0)
(4.9909 3.95418 0)
(7.88384 2.62475 0)
(6.22741 2.21015 0)
(7.94743 1.25612 0)
(7.27013 1.01102 0)
(8.37401 0.119693 0)
(7.84021 -0.296261 0)
(8.57782 -1.10787 0)
(8.15446 -1.41386 0)
(8.9387 -2.02715 0)
(8.84598 -2.4129 0)
(9.82371 -3.10178 0)
(9.44614 -3.44567 0)
(10.4991 -3.71654 0)
(9.87182 -3.75915 0)
(11.1384 -4.04211 0)
(10.2835 -4.04925 0)
(11.8108 -4.27342 0)
(10.8984 -4.42955 0)
(12.5574 -4.62748 0)
(11.6491 -4.64338 0)
(13.1959 -4.73131 0)
(12.4535 -4.52026 0)
(13.7468 -4.39423 0)
(13.0624 -4.03991 0)
(14.0797 -3.54301 0)
(13.1642 -2.88084 0)
(13.7397 -2.08993 0)
(12.6098 -1.12257 0)
(12.8156 -0.0649952 0)
(11.4741 0.943783 0)
(11.3882 1.73206 0)
(9.8092 2.80928 0)
(10.0103 3.54821 0)
(7.75587 4.08696 0)
(8.21048 4.48511 0)
(6.6238 5.26183 0)
(7.56967 5.72744 0)
(6.88331 6.06519 0)
(6.84089 6.38997 0)
(7.42479 6.26497 0)
(6.73506 6.19013 0)
(7.73829 5.67205 0)
(7.03526 5.40786 0)
(8.11917 4.52569 0)
(7.49845 4.06452 0)
(8.4371 2.96824 0)
(7.92129 2.35692 0)
(8.48867 1.09933 0)
(7.98703 0.650318 0)
(8.26644 -0.213431 0)
(7.77173 -0.422473 0)
(7.70311 -0.925071 0)
(7.38688 -0.845052 0)
(7.01503 -0.914494 0)
(12.0689 -0.230087 0)
(11.3521 -0.27924 0)
(12.2749 -0.431523 0)
(11.449 -0.281337 0)
(12.4812 -0.316518 0)
(11.3989 -0.136577 0)
(12.5212 -0.181859 0)
(11.3036 -0.0696513 0)
(12.5028 -0.112588 0)
(11.2277 -0.0443686 0)
(12.4775 -0.0759274 0)
(11.1851 -0.0478764 0)
(12.5098 -0.0779941 0)
(11.1425 -0.0156267 0)
(12.5896 -0.122611 0)
(11.0608 0.0129751 0)
(12.7311 -0.176244 0)
(10.9446 0.0575729 0)
(12.905 -0.243476 0)
(10.8295 0.103204 0)
(13.0754 -0.260238 0)
(10.7284 0.0950333 0)
(13.2061 -0.271858 0)
(10.6678 0.0801451 0)
(13.2646 -0.290819 0)
(10.6279 0.0168477 0)
(13.2482 -0.300743 0)
(10.6235 -0.0411855 0)
(13.1533 -0.32223 0)
(10.6265 -0.0536069 0)
(13.0478 -0.289795 0)
(10.5924 0.00577999 0)
(12.9367 -0.222656 0)
(10.5835 0.147113 0)
(12.8471 -0.0847753 0)
(10.5585 0.330737 0)
(12.8598 0.0608075 0)
(10.6108 0.537655 0)
(12.9062 0.202606 0)
(10.7508 0.632997 0)
(13.0832 0.276357 0)
(10.9791 0.660092 0)
(13.2457 0.184422 0)
(11.2622 0.495757 0)
(13.4497 -0.00952322 0)
(11.4776 0.2071 0)
(13.5986 -0.355406 0)
(11.678 -0.165899 0)
(13.6649 -0.690875 0)
(11.8089 -0.626448 0)
(13.6749 -1.06502 0)
(11.7837 -1.01925 0)
(13.4873 -1.45754 0)
(11.6056 -1.28542 0)
(13.2162 -1.66479 0)
(11.2089 -1.28936 0)
(12.7766 -1.68691 0)
(10.7397 -1.21175 0)
(12.2613 -1.42572 0)
(10.1982 -0.79089 0)
(12.1528 -1.00353 0)
(9.68295 -0.21256 0)
(12.132 -0.473376 0)
(9.30391 0.438205 0)
(12.3438 0.0132654 0)
(9.15042 1.002 0)
(12.9072 0.566417 0)
(9.15418 1.48175 0)
(13.3651 1.06093 0)
(9.37481 1.72681 0)
(13.5909 1.1897 0)
(9.49319 1.79178 0)
(13.6712 1.01676 0)
(9.73378 1.51374 0)
(13.7679 0.77485 0)
(10.1727 1.04241 0)
(14.1094 0.259869 0)
(10.7056 0.433856 0)
(14.5871 -0.390738 0)
(11.3677 -0.41569 0)
(15.1196 -1.27938 0)
(11.8215 -1.40981 0)
(15.545 -2.31445 0)
(12.2213 -2.37465 0)
(15.8556 -3.29194 0)
(12.6593 -3.22667 0)
(16.112 -4.00919 0)
(13.0057 -3.85139 0)
(16.4031 -4.49073 0)
(13.3946 -4.38476 0)
(16.4918 -4.67633 0)
(13.9008 -4.46687 0)
(16.5451 -4.75348 0)
(14.3758 -4.34156 0)
(16.2134 -4.43621 0)
(14.5626 -3.89807 0)
(15.5808 -3.94735 0)
(14.3506 -3.24725 0)
(14.7023 -3.2053 0)
(13.7482 -2.54866 0)
(13.6068 -2.40398 0)
(12.9221 -1.85731 0)
(12.5175 -1.85279 0)
(12.0418 -1.42404 0)
(11.4166 -1.38766 0)
(11.5599 -1.11563 0)
(10.6713 -1.23705 0)
(11.0618 -0.947992 0)
(9.99131 -1.01222 0)
(10.4967 -0.725185 0)
(9.43357 -0.825614 0)
(9.91515 -0.496832 0)
(8.67214 -0.431709 0)
(9.25204 -0.161511 0)
(8.1523 -0.346503 0)
(8.5324 -0.00962621 0)
(7.37212 0.145613 0)
(7.43146 0.15942 0)
(6.35289 0.231081 0)
(6.79903 0.553903 0)
(5.39177 0.29907 0)
(5.251 0.104161 0)
(4.22573 -0.0526782 0)
(4.45815 -0.0194764 0)
(3.34438 -0.121132 0)
(3.36223 -0.139131 0)
(2.37275 -0.685983 0)
(2.39452 -1.17584 0)
(2.33736 -1.08091 0)
(2.19805 -0.856418 0)
(3.26635 0.854699 0)
(2.87468 1.29722 0)
(3.95039 3.94914 0)
(3.20132 4.82072 0)
(3.06505 7.12362 0)
(4.1588 8.71854 0)
(3.76551 7.6382 0)
(3.52327 8.805 0)
(6.94916 7.50978 0)
(2.27771 7.29486 0)
(8.1767 6.49139 0)
(3.28894 6.18724 0)
(7.92855 4.99697 0)
(5.00198 4.87848 0)
(7.71593 3.83798 0)
(6.49101 3.66793 0)
(7.81095 2.40925 0)
(7.4883 1.9805 0)
(8.20351 1.10676 0)
(8.08759 0.79846 0)
(8.62922 0.0495525 0)
(8.56681 -0.520168 0)
(9.06259 -1.17735 0)
(8.96992 -1.67603 0)
(9.54271 -2.28159 0)
(9.73115 -2.89039 0)
(10.4063 -3.42112 0)
(10.3461 -3.79056 0)
(11.0276 -3.90063 0)
(10.7833 -4.06051 0)
(11.42 -4.24234 0)
(11.1771 -4.32783 0)
(12.0903 -4.64263 0)
(11.7991 -4.78452 0)
(12.9257 -4.96809 0)
(12.4304 -5.01784 0)
(13.7525 -5.03249 0)
(13.1654 -4.92292 0)