/*--------------------------------*- C++ -*----------------------------------*\
| =========                 |                                                 |
| \\      /  F ield         | OpenFOAM: The Open Source CFD Toolbox           |
|  \\    /   O peration     | Version:  2.4.0                                 |
|   \\  /    A nd           | Web:      www.OpenFOAM.org                      |
|    \\/     M anipulation  |                                                 |
\*---------------------------------------------------------------------------*/
FoamFile
{
    version     2.0;
    format      ascii;
    class       volSymmTensorField;
    location    "0.65";
    object      UPrime2Mean;
}
// * * * * * * * * * * * * * * * * * * * * * * * * * * * * * * * * * * * * * //

dimensions      [0 2 -2 0 0 0 0];

internalField   nonuniform List<symmTensor> 
8800
(
(0.00256708 0.000159899 0 0.000292901 0 0)
(0.0492773 -0.00193108 0 0.000106166 0 0)
(0.0963818 -0.000165825 0 2.32374e-05 0 0)
(0.120356 0.000302068 0 7.61557e-06 0 0)
(0.137341 0.000247117 0 3.28252e-06 0 0)
(0.151507 0.000178775 0 3.40173e-06 0 0)
(0.159487 0.000134313 0 3.80858e-06 0 0)
(0.167539 5.75265e-05 0 4.33461e-06 0 0)
(0.171345 4.458e-05 0 4.92601e-06 0 0)
(0.177079 -9.24715e-06 0 5.41832e-06 0 0)
(0.178854 1.12805e-05 0 5.79826e-06 0 0)
(0.184164 -5.79617e-05 0 6.44606e-06 0 0)
(0.184938 -3.02497e-05 0 6.71361e-06 0 0)
(0.19193 -0.000124721 0 7.28067e-06 0 0)
(0.193027 -0.000185391 0 8.00485e-06 0 0)
(0.20423 -0.000117836 0 9.08863e-06 0 0)
(0.215373 -0.00141796 0 2.48442e-05 0 0)
(0.225064 0.00285988 0 0.000113355 0 0)
(0.350911 -0.0261453 0 0.00265484 0 0)
(0.367112 0.0415686 0 0.00820258 0 0)
(0.0136672 0.00441017 0 0.00174794 0 0)
(0.0013972 -0.00158798 0 0.00229874 0 0)
(0.0129906 -0.00312063 0 0.000933387 0 0)
(0.026095 -0.00285686 0 0.000344213 0 0)
(0.039974 -0.00249221 0 0.000180189 0 0)
(0.0616711 -0.00232523 0 0.000139058 0 0)
(0.07776 -0.00193514 0 0.000113895 0 0)
(0.0997094 -0.00160337 0 8.52195e-05 0 0)
(0.111627 -0.00130722 0 6.82955e-05 0 0)
(0.129811 -0.0012363 0 6.05836e-05 0 0)
(0.136278 -0.00100491 0 5.23204e-05 0 0)
(0.155007 -0.00126402 0 5.87931e-05 0 0)
(0.15499 -0.00105263 0 5.89801e-05 0 0)
(0.180799 -0.00182585 0 8.21572e-05 0 0)
(0.173678 -0.00118329 0 7.7415e-05 0 0)
(0.214255 -0.00445229 0 0.000185573 0 0)
(0.209015 -0.000189934 0 0.000155659 0 0)
(0.272256 -0.0166459 0 0.001278 0 0)
(0.332451 -0.00715729 0 0.000822468 0 0)
(0.470647 -0.0919606 0 0.0295989 0 0)
(0.015164 0.00308881 0 0.000989348 0 0)
(0.00326726 0.00127393 0 0.00249389 0 0)
(0.00806772 0.000720462 0 0.00154014 0 0)
(0.00906931 -6.90929e-05 0 0.000820438 0 0)
(0.0109996 -0.000306164 0 0.00062588 0 0)
(0.0149214 -0.00136296 0 0.000598393 0 0)
(0.0191594 -0.00192024 0 0.00054121 0 0)
(0.0294338 -0.00218106 0 0.000419389 0 0)
(0.0382882 -0.0024704 0 0.000342965 0 0)
(0.0498793 -0.00242494 0 0.000254892 0 0)
(0.0592084 -0.00248108 0 0.00020267 0 0)
(0.0725942 -0.00259862 0 0.000211505 0 0)
(0.0794016 -0.00282356 0 0.00021635 0 0)
(0.0952325 -0.00320169 0 0.000294713 0 0)
(0.103809 -0.00381504 0 0.000360397 0 0)
(0.118163 -0.00487062 0 0.00052183 0 0)
(0.143082 -0.00683162 0 0.000816861 0 0)
(0.156287 -0.0103695 0 0.00137152 0 0)
(0.220779 -0.0256018 0 0.00546007 0 0)
(0.27359 -0.061932 0 0.031856 0 0)
(0.0239211 0.00175896 0 0.000550987 0 0)
(0.014327 0.000461234 0 0.00173869 0 0)
(0.0268721 0.00101221 0 0.00138358 0 0)
(0.0299477 0.000694683 0 0.00081266 0 0)
(0.0402416 0.001529 0 0.000731048 0 0)
(0.0402883 0.000712837 0 0.000834621 0 0)
(0.0474292 0.00045951 0 0.000884669 0 0)
(0.0439907 5.02931e-05 0 0.00081503 0 0)
(0.0545185 -0.00122303 0 0.000753034 0 0)
(0.0468355 -0.00133745 0 0.000605645 0 0)
(0.0632926 -0.00229082 0 0.000488716 0 0)
(0.0513627 -0.00253523 0 0.000556421 0 0)
(0.0737249 -0.00318696 0 0.00047992 0 0)
(0.0574092 -0.0036464 0 0.000714616 0 0)
(0.0873609 -0.00443976 0 0.000703457 0 0)
(0.0646829 -0.00482909 0 0.00112683 0 0)
(0.107188 -0.00664144 0 0.00121258 0 0)
(0.0779216 -0.00785752 0 0.00300245 0 0)
(0.145947 -0.0161685 0 0.00680435 0 0)
(0.114816 -0.0292767 0 0.0295803 0 0)
(0.0669962 0.000571133 0 0.000411161 0 0)
(0.0547874 -0.00099257 0 0.00125676 0 0)
(0.0665858 -0.000467635 0 0.00115062 0 0)
(0.0679141 -0.000917 0 0.000757893 0 0)
(0.0797834 0.000122872 0 0.000666315 0 0)
(0.0790793 -0.00071269 0 0.00076854 0 0)
(0.0923409 -0.000474357 0 0.000922099 0 0)
(0.0855857 -0.000121273 0 0.000901488 0 0)
(0.105125 -0.0018695 0 0.000950159 0 0)
(0.0905072 -0.00111807 0 0.000851457 0 0)
(0.117665 -0.00305138 0 0.000708947 0 0)
(0.0949732 -0.00213531 0 0.000836957 0 0)
(0.12906 -0.00413179 0 0.000723885 0 0)
(0.0991845 -0.00261516 0 0.00105415 0 0)
(0.138679 -0.00545616 0 0.00100943 0 0)
(0.102159 -0.00260003 0 0.00164783 0 0)
(0.147053 -0.00616747 0 0.00173491 0 0)
(0.102984 -0.00160802 0 0.00474125 0 0)
(0.15817 -0.00492636 0 0.00796864 0 0)
(0.106839 0.000701829 0 0.0401644 0 0)
(0.0895688 -0.00171239 0 0.000590499 0 0)
(0.0736563 -0.00257104 0 0.00125216 0 0)
(0.0673037 -0.00246066 0 0.00130876 0 0)
(0.0702981 -0.00294825 0 0.0010197 0 0)
(0.0757088 -0.00260033 0 0.000986569 0 0)
(0.0718037 -0.00279867 0 0.00100473 0 0)
(0.0836694 -0.00284228 0 0.00120764 0 0)
(0.0748265 -0.00215216 0 0.0011319 0 0)
(0.0929485 -0.00380599 0 0.00131724 0 0)
(0.0809918 -0.00287917 0 0.0011163 0 0)
(0.102845 -0.004848 0 0.00116781 0 0)
(0.0900087 -0.00343814 0 0.00111901 0 0)
(0.112497 -0.00543917 0 0.00121364 0 0)
(0.100966 -0.00347844 0 0.00126724 0 0)
(0.12033 -0.00555059 0 0.00153634 0 0)
(0.112133 -0.00269872 0 0.00174842 0 0)
(0.124986 -0.00340746 0 0.00260278 0 0)
(0.121378 0.00135181 0 0.00465405 0 0)
(0.126912 0.0062742 0 0.0112375 0 0)
(0.131363 0.0176035 0 0.0320915 0 0)
(0.078415 -0.00387318 0 0.00126914 0 0)
(0.0841251 -0.00606957 0 0.00225538 0 0)
(0.075691 -0.00386693 0 0.00192507 0 0)
(0.0859991 -0.00673973 0 0.00222428 0 0)
(0.09971 -0.00527023 0 0.00203096 0 0)
(0.0916947 -0.00473243 0 0.00207892 0 0)
(0.112311 -0.00529548 0 0.00198065 0 0)
(0.0998853 -0.00445412 0 0.00218096 0 0)
(0.120619 -0.00527808 0 0.00205359 0 0)
(0.112302 -0.00465465 0 0.00219381 0 0)
(0.126599 -0.00549712 0 0.00196653 0 0)
(0.126293 -0.0042604 0 0.00220006 0 0)
(0.135415 -0.005192 0 0.0020165 0 0)
(0.139002 -0.00329554 0 0.00233807 0 0)
(0.146416 -0.003498 0 0.00233003 0 0)
(0.150695 -0.000971558 0 0.0029156 0 0)
(0.157861 0.00125686 0 0.0034915 0 0)
(0.162625 0.00595533 0 0.006436 0 0)
(0.169226 0.0151863 0 0.0117339 0 0)
(0.182489 0.0273046 0 0.0312031 0 0)
(0.193729 -0.00593762 0 0.00210038 0 0)
(0.2166 -0.0141516 0 0.00533638 0 0)
(0.177047 -0.00539163 0 0.00338152 0 0)
(0.211047 -0.0109391 0 0.00339018 0 0)
(0.213915 -0.00824379 0 0.00335874 0 0)
(0.210413 -0.00736045 0 0.0034521 0 0)
(0.23389 -0.00736471 0 0.00280804 0 0)
(0.21796 -0.00745699 0 0.00348739 0 0)
(0.241275 -0.00621949 0 0.00287414 0 0)
(0.22993 -0.00708235 0 0.0034164 0 0)
(0.252394 -0.0051303 0 0.00262876 0 0)
(0.239929 -0.00549314 0 0.00326399 0 0)
(0.270978 -0.00361252 0 0.00249441 0 0)
(0.24844 -0.00348554 0 0.00329349 0 0)
(0.290908 -0.000256285 0 0.00257611 0 0)
(0.258916 0.000427318 0 0.00368542 0 0)
(0.309799 0.00616754 0 0.0035032 0 0)
(0.273665 0.00999868 0 0.00709058 0 0)
(0.333156 0.0222044 0 0.010697 0 0)
(0.302523 0.0339944 0 0.0288436 0 0)
(0.261817 -0.00447954 0 0.00246664 0 0)
(0.258342 -0.00999035 0 0.00764125 0 0)
(0.2338 -0.00114873 0 0.00359793 0 0)
(0.234033 -0.00554413 0 0.00368725 0 0)
(0.259134 -0.00375573 0 0.00361868 0 0)
(0.222709 -0.00240362 0 0.00385871 0 0)
(0.290352 -0.00283246 0 0.00270736 0 0)
(0.220688 -0.00255692 0 0.00368981 0 0)
(0.304362 -0.000870218 0 0.0025347 0 0)
(0.225778 -0.00175581 0 0.00349228 0 0)
(0.318557 0.000601876 0 0.00231139 0 0)
(0.233951 0.000224286 0 0.00313535 0 0)
(0.3343 0.00260973 0 0.00209904 0 0)
(0.244716 0.00254525 0 0.0029886 0 0)
(0.347491 0.00587359 0 0.00219252 0 0)
(0.259269 0.00691376 0 0.00329287 0 0)
(0.356404 0.0116247 0 0.00291652 0 0)
(0.279854 0.017226 0 0.00601608 0 0)
(0.36687 0.0261704 0 0.00890026 0 0)
(0.319432 0.0410309 0 0.0228175 0 0)
(0.163398 -0.00109944 0 0.00200657 0 0)
(0.149507 -0.000160987 0 0.00552291 0 0)
(0.153262 0.000946774 0 0.0025463 0 0)
(0.131371 3.07352e-05 0 0.00242607 0 0)
(0.15878 0.000827277 0 0.00268301 0 0)
(0.127139 0.00152554 0 0.00266842 0 0)
(0.163918 0.000770479 0 0.00206709 0 0)
(0.125743 0.00189519 0 0.0024798 0 0)
(0.164832 0.00201859 0 0.00187776 0 0)
(0.129836 0.00263456 0 0.00234477 0 0)
(0.166543 0.00286302 0 0.00176231 0 0)
(0.13819 0.00381071 0 0.00203652 0 0)
(0.169846 0.00411711 0 0.00161986 0 0)
(0.148526 0.00555706 0 0.00192395 0 0)
(0.171701 0.00591403 0 0.00163302 0 0)
(0.162048 0.00884281 0 0.00205638 0 0)
(0.172041 0.0094499 0 0.00221177 0 0)
(0.181435 0.0169701 0 0.00415045 0 0)
(0.174617 0.0204561 0 0.00733077 0 0)
(0.220476 0.0368295 0 0.0172389 0 0)
(0.0460696 -0.00103957 0 0.00173473 0 0)
(0.0346304 -9.35922e-07 0 0.00362925 0 0)
(0.0351199 -0.000411036 0 0.00198732 0 0)
(0.0331922 3.64313e-06 0 0.00168253 0 0)
(0.040524 0.000688396 0 0.00215384 0 0)
(0.0365009 0.000456115 0 0.00188042 0 0)
(0.0423445 0.000391599 0 0.00168188 0 0)
(0.0400841 0.00119502 0 0.00180783 0 0)
(0.0414624 0.000873456 0 0.00154698 0 0)
(0.0448348 0.00159929 0 0.00173274 0 0)
(0.0428419 0.00132574 0 0.00152257 0 0)
(0.0509466 0.00198226 0 0.00153499 0 0)
(0.0463937 0.00186902 0 0.00139496 0 0)
(0.0575418 0.00285241 0 0.00145186 0 0)
(0.0504305 0.00274586 0 0.00135961 0 0)
(0.065667 0.00473034 0 0.0015644 0 0)
(0.0562335 0.00565472 0 0.00178223 0 0)
(0.0784331 0.0105226 0 0.00330056 0 0)
(0.0697785 0.0156056 0 0.00583144 0 0)
(0.1063 0.0276519 0 0.013698 0 0)
(0.0152823 -0.00119396 0 0.00161276 0 0)
(0.00419047 -0.00152004 0 0.00286832 0 0)
(0.00527923 -0.00124446 0 0.00174137 0 0)
(0.00582968 -0.000520846 0 0.00137027 0 0)
(0.00940314 -0.000815118 0 0.00184266 0 0)
(0.0119729 -0.000868086 0 0.00147794 0 0)
(0.0138322 -0.000874962 0 0.00149374 0 0)
(0.0160121 -0.000786075 0 0.00153895 0 0)
(0.0170445 -0.000753901 0 0.00137294 0 0)
(0.0204772 -0.000576981 0 0.00141729 0 0)
(0.0219221 -0.000661946 0 0.00133967 0 0)
(0.0261468 -0.000341362 0 0.00121494 0 0)
(0.0283206 -0.000283676 0 0.00117478 0 0)
(0.0326776 0.000125111 0 0.00111344 0 0)
(0.0353666 0.000340037 0 0.00107185 0 0)
(0.0406892 0.00164484 0 0.001113 0 0)
(0.0449475 0.00313894 0 0.00137453 0 0)
(0.0538146 0.00694164 0 0.00234949 0 0)
(0.0630683 0.01261 0 0.00457573 0 0)
(0.0812886 0.023173 0 0.0101708 0 0)
(0.0138766 -0.00146869 0 0.00126967 0 0)
(0.00357464 -0.00219031 0 0.00223199 0 0)
(0.0035786 -0.00162103 0 0.00145227 0 0)
(0.00401771 -0.0010082 0 0.0010869 0 0)
(0.00819614 -0.0015479 0 0.00144791 0 0)
(0.01069 -0.00151183 0 0.00111308 0 0)
(0.0132872 -0.00159622 0 0.0012198 0 0)
(0.0154363 -0.00173877 0 0.00122076 0 0)
(0.016647 -0.00138999 0 0.00106088 0 0)
(0.0198148 -0.00144939 0 0.00104615 0 0)
(0.0221614 -0.00132309 0 0.00101687 0 0)
(0.0254537 -0.00110918 0 0.000896274 0 0)
(0.0286945 -0.000945841 0 0.000844027 0 0)
(0.0324362 -0.000762095 0 0.000772868 0 0)
(0.0361797 -0.000331761 0 0.000741125 0 0)
(0.041184 0.000559986 0 0.000756477 0 0)
(0.0467885 0.00215395 0 0.000963921 0 0)
(0.055634 0.00529565 0 0.001628 0 0)
(0.0674778 0.0104914 0 0.00341698 0 0)
(0.0859837 0.0199705 0 0.00755671 0 0)
(0.013442 -0.00128881 0 0.000988753 0 0)
(0.00229586 -0.00160882 0 0.00200595 0 0)
(0.00298781 -0.00164322 0 0.00147198 0 0)
(0.00465556 -0.00105041 0 0.000958769 0 0)
(0.00817817 -0.00132885 0 0.00119551 0 0)
(0.0113418 -0.00173677 0 0.00101634 0 0)
(0.0142497 -0.00173781 0 0.00114492 0 0)
(0.0158986 -0.00210895 0 0.00116225 0 0)
(0.0185683 -0.00175481 0 0.000991884 0 0)
(0.0208033 -0.00178718 0 0.000976967 0 0)
(0.0243322 -0.00167352 0 0.000929716 0 0)
(0.0270508 -0.00167057 0 0.000830335 0 0)
(0.0311159 -0.0013741 0 0.000743483 0 0)
(0.034667 -0.00155146 0 0.000700893 0 0)
(0.0392505 -0.000886844 0 0.000629281 0 0)
(0.0442877 -0.000528413 0 0.000644106 0 0)
(0.0509041 0.00123375 0 0.000727975 0 0)
(0.0601499 0.00342212 0 0.00118247 0 0)
(0.0738356 0.00833324 0 0.00239098 0 0)
(0.0931515 0.0161435 0 0.00545859 0 0)
(0.0140595 -0.00145564 0 0.000772601 0 0)
(0.00206312 -0.00123059 0 0.00184914 0 0)
(0.00302804 -0.00173233 0 0.00151242 0 0)
(0.00501297 -0.00121807 0 0.000925772 0 0)
(0.0101622 -0.00153313 0 0.00103617 0 0)
(0.0119386 -0.00186789 0 0.000960182 0 0)
(0.0166186 -0.00212765 0 0.00112397 0 0)
(0.0170795 -0.00243566 0 0.00120442 0 0)
(0.0218553 -0.00225989 0 0.0010299 0 0)
(0.022178 -0.00202523 0 0.000965249 0 0)
(0.0278428 -0.00199102 0 0.000854168 0 0)
(0.0281466 -0.00198434 0 0.000812096 0 0)
(0.0342558 -0.00168217 0 0.000668208 0 0)
(0.0348353 -0.00196615 0 0.000663259 0 0)
(0.0412131 -0.00115328 0 0.000537754 0 0)
(0.0427659 -0.00118705 0 0.000565838 0 0)
(0.0506808 0.000673169 0 0.00055064 0 0)
(0.0559183 0.00182017 0 0.000808037 0 0)
(0.0696951 0.00627057 0 0.00160601 0 0)
(0.0848002 0.011409 0 0.00345109 0 0)
(0.0144919 -0.00165357 0 0.000594506 0 0)
(0.00258072 -0.000651303 0 0.00166196 0 0)
(0.00306083 -0.00149787 0 0.00147932 0 0)
(0.00598702 -0.00125926 0 0.000857629 0 0)
(0.0126919 -0.00175412 0 0.000905328 0 0)
(0.0129272 -0.00193983 0 0.000915462 0 0)
(0.0187383 -0.00237033 0 0.00105279 0 0)
(0.0166411 -0.00222954 0 0.00110499 0 0)
(0.0217393 -0.00233106 0 0.000974349 0 0)
(0.0185449 -0.00167116 0 0.000849732 0 0)
(0.0237382 -0.00181806 0 0.000710192 0 0)
(0.0194889 -0.0014095 0 0.00067328 0 0)
(0.0244538 -0.00138499 0 0.000516596 0 0)
(0.0198247 -0.0012082 0 0.000548591 0 0)
(0.024368 -0.000812516 0 0.000394254 0 0)
(0.0204554 -0.000617044 0 0.000460212 0 0)
(0.0255067 0.000508352 0 0.000370524 0 0)
(0.0244877 0.00114431 0 0.00056786 0 0)
(0.0332769 0.00394276 0 0.00102319 0 0)
(0.0407495 0.00642204 0 0.00205064 0 0)
(0.0136381 -0.00211017 0 0.000591206 0 0)
(0.00241677 -0.000822999 0 0.00184416 0 0)
(0.0032263 -0.00148348 0 0.00150535 0 0)
(0.00681019 -0.00144826 0 0.000844105 0 0)
(0.01107 -0.00181157 0 0.000802203 0 0)
(0.0092082 -0.00158882 0 0.000865947 0 0)
(0.0105445 -0.00153534 0 0.000923775 0 0)
(0.00694746 -0.000746825 0 0.000872162 0 0)
(0.00709703 -0.000657308 0 0.000717209 0 0)
(0.0050081 0.000167613 0 0.000560136 0 0)
(0.0049246 1.40198e-05 0 0.000429524 0 0)
(0.00498168 0.000633255 0 0.000397772 0 0)
(0.00431985 0.00036039 0 0.000288928 0 0)
(0.00691462 0.000924399 0 0.00031344 0 0)
(0.00574809 0.000483858 0 0.000211529 0 0)
(0.0102521 0.00112256 0 0.000266349 0 0)
(0.00929624 0.000537543 0 0.000224879 0 0)
(0.0147595 0.00146449 0 0.00032448 0 0)
(0.0162874 0.00139585 0 0.000702929 0 0)
(0.023561 0.00323812 0 0.000970791 0 0)
(0.0136991 -0.00321956 0 0.000992993 0 0)
(0.00182404 -0.00136929 0 0.00250243 0 0)
(0.0014447 -0.000695966 0 0.00157173 0 0)
(0.0023684 -0.000192442 0 0.000825064 0 0)
(0.00201523 0.00027053 0 0.000637075 0 0)
(0.00306034 0.0011153 0 0.000586416 0 0)
(0.00599967 0.00153308 0 0.000527099 0 0)
(0.0138444 0.00200134 0 0.000424433 0 0)
(0.0187092 0.00177702 0 0.00030671 0 0)
(0.0310521 0.00193078 0 0.00021437 0 0)
(0.0338321 0.00154435 0 0.000149531 0 0)
(0.0490222 0.00173848 0 0.000136704 0 0)
(0.0480666 0.0012839 0 0.000104273 0 0)
(0.0656704 0.00160314 0 0.000110872 0 0)
(0.0613205 0.000817762 0 8.11541e-05 0 0)
(0.0789874 0.00134634 0 0.00010375 0 0)
(0.0725466 -0.000181174 0 0.000102967 0 0)
(0.0853748 0.00104059 0 0.000160678 0 0)
(0.0801462 -0.00119929 0 0.000329199 0 0)
(0.0830957 0.00213185 0 0.000644348 0 0)
(0.0135257 -0.00443285 0 0.00174694 0 0)
(0.0014966 0.00157205 0 0.00229401 0 0)
(0.0118962 0.00316148 0 0.00093844 0 0)
(0.0243251 0.00278356 0 0.000347195 0 0)
(0.0383124 0.00247666 0 0.000183329 0 0)
(0.0579281 0.0022615 0 0.000132587 0 0)
(0.0746728 0.00184112 0 0.000105667 0 0)
(0.0947446 0.00153718 0 7.87884e-05 0 0)
(0.106102 0.00113997 0 5.68232e-05 0 0)
(0.123579 0.00102768 0 4.27262e-05 0 0)
(0.128813 0.000778267 0 3.41413e-05 0 0)
(0.145317 0.000838588 0 3.38857e-05 0 0)
(0.145571 0.000586126 0 3.09329e-05 0 0)
(0.162371 0.000725605 0 3.00421e-05 0 0)
(0.158418 0.000268276 0 2.64517e-05 0 0)
(0.173886 0.000435056 0 2.84321e-05 0 0)
(0.166021 -0.000534069 0 3.51933e-05 0 0)
(0.173936 0.000110329 0 4.85015e-05 0 0)
(0.167098 -0.00184009 0 0.000112852 0 0)
(0.155291 0.000901807 0 0.00038998 0 0)
(0.00256084 -0.000160579 0 0.000292845 0 0)
(0.0493175 0.00193125 0 0.00010556 0 0)
(0.0963985 0.000167834 0 2.31031e-05 0 0)
(0.12009 -0.000305827 0 7.49222e-06 0 0)
(0.137352 -0.000247421 0 3.40369e-06 0 0)
(0.151036 -0.000187118 0 2.67735e-06 0 0)
(0.159367 -0.000137506 0 3.19854e-06 0 0)
(0.16698 -7.28468e-05 0 3.1597e-06 0 0)
(0.170888 -5.97469e-05 0 3.41436e-06 0 0)
(0.17629 -1.95672e-05 0 3.15886e-06 0 0)
(0.177896 -3.52491e-05 0 3.46814e-06 0 0)
(0.182405 -4.89604e-07 0 3.16229e-06 0 0)
(0.182555 -3.85563e-05 0 3.06505e-06 0 0)
(0.186726 -4.56482e-06 0 2.49672e-06 0 0)
(0.18531 -8.74526e-05 0 2.43045e-06 0 0)
(0.188243 -7.19669e-05 0 2.0599e-06 0 0)
(0.18402 -0.000229455 0 2.41959e-06 0 0)
(0.182849 -0.00018969 0 2.99578e-06 0 0)
(0.177367 -0.000655486 0 7.47227e-06 0 0)
(0.16058 0.000870117 0 5.9231e-05 0 0)
(0.719069 -0.366693 0 0.225916 0 0)
(0.813632 -0.435956 0 0.31867 0 0)
(0.818149 -0.419307 0 0.381014 0 0)
(0.831805 -0.367743 0 0.42489 0 0)
(0.853564 -0.307818 0 0.45042 0 0)
(0.946176 -0.266184 0 0.468716 0 0)
(1.0535 -0.255565 0 0.486217 0 0)
(1.24182 -0.277548 0 0.511161 0 0)
(1.39861 -0.317196 0 0.540736 0 0)
(1.59322 -0.361409 0 0.570159 0 0)
(1.70931 -0.399317 0 0.602637 0 0)
(1.87272 -0.437275 0 0.64252 0 0)
(1.95868 -0.459762 0 0.685006 0 0)
(2.11368 -0.492628 0 0.722281 0 0)
(2.20984 -0.520461 0 0.746994 0 0)
(2.37387 -0.569193 0 0.764989 0 0)
(2.46338 -0.623253 0 0.790135 0 0)
(2.63434 -0.699075 0 0.827804 0 0)
(2.70236 -0.760525 0 0.883499 0 0)
(2.90711 -0.838141 0 0.952663 0 0)
(3.02917 -0.888215 0 1.01016 0 0)
(3.28864 -0.970228 0 1.06883 0 0)
(3.4419 -1.03999 0 1.12616 0 0)
(3.71958 -1.13215 0 1.1867 0 0)
(3.88481 -1.20976 0 1.24629 0 0)
(4.18001 -1.30326 0 1.31304 0 0)
(4.35732 -1.3839 0 1.37915 0 0)
(4.67772 -1.49762 0 1.44842 0 0)
(4.86482 -1.59755 0 1.51995 0 0)
(5.20149 -1.73395 0 1.60137 0 0)
(5.38171 -1.84251 0 1.68798 0 0)
(5.74546 -1.98755 0 1.77618 0 0)
(5.91888 -2.09682 0 1.86561 0 0)
(6.34335 -2.26197 0 1.95287 0 0)
(6.50712 -2.38114 0 2.042 0 0)
(6.97753 -2.5731 0 2.12704 0 0)
(7.08753 -2.68662 0 2.20571 0 0)
(7.55501 -2.88158 0 2.27951 0 0)
(7.58409 -2.97392 0 2.34255 0 0)
(8.02322 -3.15239 0 2.40872 0 0)
(7.95793 -3.20685 0 2.46189 0 0)
(8.34025 -3.35407 0 2.52338 0 0)
(8.18742 -3.37003 0 2.56751 0 0)
(8.5323 -3.49423 0 2.62507 0 0)
(8.33069 -3.48899 0 2.66982 0 0)
(8.67407 -3.60641 0 2.7305 0 0)
(8.46052 -3.5901 0 2.78321 0 0)
(8.83797 -3.70906 0 2.8571 0 0)
(8.6415 -3.69497 0 2.92836 0 0)
(9.07452 -3.82065 0 3.02587 0 0)
(8.88367 -3.81655 0 3.11996 0 0)
(9.36791 -3.94113 0 3.23947 0 0)
(9.11584 -3.917 0 3.34345 0 0)
(9.62408 -4.01797 0 3.46141 0 0)
(9.24494 -3.92689 0 3.53782 0 0)
(9.74721 -3.99095 0 3.62809 0 0)
(9.23992 -3.81737 0 3.64632 0 0)
(9.739 -3.86307 0 3.69987 0 0)
(9.17284 -3.65252 0 3.68276 0 0)
(9.71032 -3.72717 0 3.72594 0 0)
(9.13469 -3.53571 0 3.72053 0 0)
(9.73972 -3.67611 0 3.79162 0 0)
(9.11435 -3.50293 0 3.83596 0 0)
(9.73579 -3.69913 0 3.95301 0 0)
(8.96925 -3.4602 0 4.01511 0 0)
(9.52977 -3.63072 0 4.13059 0 0)
(8.69993 -3.29352 0 4.10867 0 0)
(9.23057 -3.34209 0 4.12081 0 0)
(8.42329 -3.01626 0 4.05784 0 0)
(9.0399 -3.03938 0 4.09554 0 0)
(8.27537 -2.78342 0 4.11741 0 0)
(8.98836 -2.79633 0 4.16349 0 0)
(8.25412 -2.55278 0 4.18041 0 0)
(9.08129 -2.60939 0 4.22403 0 0)
(8.34322 -2.39176 0 4.30239 0 0)
(9.25411 -2.49978 0 4.42603 0 0)
(8.53456 -2.29687 0 4.58846 0 0)
(9.47133 -2.44776 0 4.80121 0 0)
(8.68955 -2.23147 0 5.01807 0 0)
(9.62837 -2.37497 0 5.28231 0 0)
(8.6366 -2.10585 0 5.47996 0 0)
(9.67506 -2.25714 0 5.68812 0 0)
(8.4485 -1.929 0 5.80987 0 0)
(9.6488 -2.14751 0 5.94772 0 0)
(8.27756 -1.73669 0 5.97871 0 0)
(9.38169 -1.98706 0 6.09241 0 0)
(8.21227 -1.53291 0 6.09766 0 0)
(9.00182 -1.7343 0 6.27471 0 0)
(8.19506 -1.31926 0 6.31608 0 0)
(8.8122 -1.41598 0 6.5141 0 0)
(8.25638 -1.1107 0 6.55591 0 0)
(8.86812 -1.18886 0 6.68843 0 0)
(8.47519 -0.97115 0 6.72388 0 0)
(9.14802 -1.02833 0 6.8342 0 0)
(8.77803 -0.870361 0 6.88656 0 0)
(9.44409 -0.906197 0 7.01181 0 0)
(9.05546 -0.789593 0 7.11299 0 0)
(9.71645 -0.781101 0 7.29372 0 0)
(9.22258 -0.696136 0 7.46559 0 0)
(9.74062 -0.645081 0 7.70784 0 0)
(9.07751 -0.549279 0 7.97033 0 0)
(9.53464 -0.55524 0 8.25709 0 0)
(8.65323 -0.456118 0 8.6318 0 0)
(9.20242 -0.570744 0 9.0154 0 0)
(8.16677 -0.479077 0 9.24672 0 0)
(8.89532 -0.710972 0 9.5871 0 0)
(7.76346 -0.491884 0 9.6928 0 0)
(8.7119 -0.80395 0 9.89776 0 0)
(7.4816 -0.450566 0 9.88802 0 0)
(8.53225 -0.862183 0 10.1032 0 0)
(7.28698 -0.460564 0 9.97717 0 0)
(8.26243 -0.891292 0 10.1063 0 0)
(7.21616 -0.507435 0 9.94078 0 0)
(8.04354 -0.910251 0 10.0704 0 0)
(7.26385 -0.559919 0 9.97176 0 0)
(7.8164 -0.932799 0 10.1496 0 0)
(7.27245 -0.656385 0 10.1688 0 0)
(7.61867 -0.966084 0 10.3545 0 0)
(7.41379 -0.756335 0 10.395 0 0)
(7.72166 -0.973645 0 10.5415 0 0)
(7.79451 -0.850741 0 10.6543 0 0)
(7.95064 -1.01043 0 10.8275 0 0)
(8.07181 -0.890667 0 11.0277 0 0)
(8.05583 -1.06552 0 11.2058 0 0)
(8.16412 -0.951725 0 11.3545 0 0)
(8.08933 -1.18397 0 11.4828 0 0)
(8.05561 -1.05119 0 11.618 0 0)
(8.07388 -1.36954 0 11.7757 0 0)
(7.99698 -1.17901 0 11.8693 0 0)
(8.02451 -1.52822 0 11.9488 0 0)
(8.03957 -1.30646 0 12.0845 0 0)
(7.97923 -1.58321 0 12.139 0 0)
(8.12286 -1.37589 0 12.2155 0 0)
(7.94689 -1.53336 0 12.2491 0 0)
(8.17239 -1.39369 0 12.2613 0 0)
(7.87641 -1.40189 0 12.3103 0 0)
(8.1382 -1.27597 0 12.3115 0 0)
(7.79073 -1.18823 0 12.4113 0 0)
(8.05155 -1.06669 0 12.48 0 0)
(7.65098 -0.911073 0 12.6032 0 0)
(7.91191 -0.882963 0 12.6569 0 0)
(7.52465 -0.669561 0 12.6685 0 0)
(7.81237 -0.637096 0 12.7247 0 0)
(7.40329 -0.40187 0 12.7387 0 0)
(7.68678 -0.364619 0 12.9396 0 0)
(7.18045 -0.131158 0 12.9301 0 0)
(7.55581 -0.122223 0 13.0413 0 0)
(7.02775 0.159341 0 13.048 0 0)
(7.44525 0.144346 0 13.1913 0 0)
(6.83189 0.336692 0 13.1419 0 0)
(7.25913 0.415649 0 13.3777 0 0)
(6.64738 0.459509 0 13.2462 0 0)
(7.0344 0.641392 0 13.3614 0 0)
(6.51306 0.573432 0 13.2453 0 0)
(6.85639 0.817526 0 13.3818 0 0)
(6.43168 0.636663 0 13.178 0 0)
(6.72521 0.893815 0 13.3047 0 0)
(6.42827 0.765974 0 13.1659 0 0)
(6.62399 0.904487 0 13.2164 0 0)
(6.30818 0.799813 0 13.1735 0 0)
(6.36825 0.923793 0 13.3218 0 0)
(6.12167 0.685992 0 13.3188 0 0)
(6.1177 0.874596 0 13.351 0 0)
(6.00004 0.550909 0 13.3306 0 0)
(5.98167 0.739447 0 13.2159 0 0)
(5.94643 0.380984 0 13.2554 0 0)
(5.88527 0.510123 0 13.1281 0 0)
(5.88421 0.0862625 0 13.1142 0 0)
(5.74612 0.211633 0 12.8752 0 0)
(5.78509 -0.21362 0 12.7468 0 0)
(5.57559 -0.101508 0 12.4106 0 0)
(5.66548 -0.596326 0 12.0742 0 0)
(5.36868 -0.442412 0 11.6093 0 0)
(5.54939 -0.959635 0 11.3269 0 0)
(5.33127 -0.70951 0 10.7859 0 0)
(5.43843 -1.13982 0 10.6001 0 0)
(5.38951 -0.867616 0 10.0786 0 0)
(5.33258 -1.30485 0 9.78965 0 0)
(5.32802 -0.957611 0 9.52817 0 0)
(5.28584 -1.34425 0 8.99694 0 0)
(5.28388 -1.0156 0 9.01565 0 0)
(5.14804 -1.15844 0 8.2313 0 0)
(5.05299 -1.121 0 8.44856 0 0)
(4.97808 -0.771788 0 7.53037 0 0)
(4.81279 -1.06404 0 8.0735 0 0)
(4.82724 -0.333123 0 6.96286 0 0)
(4.62404 -0.907881 0 7.92819 0 0)
(4.5822 -0.00255781 0 6.60336 0 0)
(4.26053 -0.78128 0 8.01283 0 0)
(4.27314 0.382457 0 6.58303 0 0)
(3.70791 -0.623379 0 8.43148 0 0)
(3.8576 0.833792 0 6.84518 0 0)
(3.14527 -0.436458 0 9.27681 0 0)
(3.24232 1.30791 0 7.52549 0 0)
(2.69938 -0.0672868 0 10.7891 0 0)
(2.76103 2.20017 0 9.25837 0 0)
(2.3053 0.327398 0 13.1726 0 0)
(2.29778 3.45589 0 12.5523 0 0)
(2.4283 2.59912 0 19.1222 0 0)
(0.729864 0.877018 0 21.9348 0 0)
(0.605167 -0.302945 0 0.256509 0 0)
(0.607791 -0.320995 0 0.333995 0 0)
(0.583318 -0.295897 0 0.353084 0 0)
(0.5659 -0.263246 0 0.361559 0 0)
(0.561764 -0.233687 0 0.360367 0 0)
(0.588001 -0.225339 0 0.358189 0 0)
(0.629521 -0.240314 0 0.3664 0 0)
(0.703297 -0.272627 0 0.386808 0 0)
(0.769466 -0.305667 0 0.411056 0 0)
(0.8481 -0.33944 0 0.434985 0 0)
(0.894777 -0.365337 0 0.461718 0 0)
(0.964115 -0.396679 0 0.494576 0 0)
(1.00265 -0.418511 0 0.529305 0 0)
(1.09014 -0.450865 0 0.563112 0 0)
(1.14696 -0.476167 0 0.593457 0 0)
(1.27626 -0.523417 0 0.623773 0 0)
(1.36129 -0.56999 0 0.658804 0 0)
(1.53621 -0.648361 0 0.701364 0 0)
(1.63285 -0.708688 0 0.748103 0 0)
(1.82351 -0.796012 0 0.802751 0 0)
(1.9137 -0.849761 0 0.856045 0 0)
(2.11885 -0.933466 0 0.91281 0 0)
(2.21399 -0.985944 0 0.968785 0 0)
(2.44565 -1.07562 0 1.02965 0 0)
(2.54501 -1.12923 0 1.09121 0 0)
(2.81176 -1.22734 0 1.16225 0 0)
(2.92969 -1.28591 0 1.23561 0 0)
(3.24223 -1.39996 0 1.31608 0 0)
(3.39263 -1.47808 0 1.3965 0 0)
(3.73946 -1.61523 0 1.48451 0 0)
(3.90509 -1.71318 0 1.57056 0 0)
(4.26122 -1.86442 0 1.66105 0 0)
(4.40862 -1.96645 0 1.7463 0 0)
(4.76001 -2.12201 0 1.83484 0 0)
(4.85971 -2.21543 0 1.91572 0 0)
(5.20091 -2.37112 0 2.00015 0 0)
(5.2162 -2.43749 0 2.07363 0 0)
(5.5396 -2.58283 0 2.14779 0 0)
(5.45377 -2.61121 0 2.20945 0 0)
(5.77444 -2.74864 0 2.27321 0 0)
(5.60773 -2.73797 0 2.32282 0 0)
(5.94454 -2.86952 0 2.37917 0 0)
(5.73613 -2.83412 0 2.42365 0 0)
(6.11031 -2.9708 0 2.48272 0 0)
(5.89978 -2.93318 0 2.53146 0 0)
(6.3099 -3.08198 0 2.60725 0 0)
(6.1183 -3.05584 0 2.67008 0 0)
(6.54437 -3.20821 0 2.7651 0 0)
(6.36294 -3.18708 0 2.8436 0 0)
(6.77725 -3.32522 0 2.95372 0 0)
(6.56526 -3.28687 0 3.04058 0 0)
(6.95492 -3.39601 0 3.15362 0 0)
(6.66059 -3.30561 0 3.23167 0 0)
(7.03403 -3.38153 0 3.32937 0 0)
(6.63036 -3.21121 0 3.38051 0 0)
(7.02837 -3.27561 0 3.45191 0 0)
(6.54719 -3.02798 0 3.47147 0 0)
(7.01514 -3.12787 0 3.53265 0 0)
(6.52868 -2.84735 0 3.54305 0 0)
(7.07454 -3.02366 0 3.63536 0 0)
(6.6281 -2.76326 0 3.66076 0 0)
(7.2116 -2.99385 0 3.77731 0 0)
(6.78287 -2.75552 0 3.81052 0 0)
(7.33922 -2.96572 0 3.91635 0 0)
(6.85688 -2.70025 0 3.92514 0 0)
(7.32629 -2.81907 0 3.97063 0 0)
(6.78126 -2.50658 0 3.92725 0 0)
(7.23666 -2.56857 0 3.94203 0 0)
(6.70556 -2.28561 0 3.92649 0 0)
(7.22618 -2.36219 0 3.99741 0 0)
(6.74293 -2.12658 0 4.01775 0 0)
(7.37737 -2.20443 0 4.11563 0 0)
(6.9125 -1.99791 0 4.14183 0 0)
(7.65386 -2.10948 0 4.24609 0 0)
(7.19085 -1.92744 0 4.33033 0 0)
(7.9956 -2.09539 0 4.49711 0 0)
(7.50094 -1.89728 0 4.66946 0 0)
(8.2834 -2.07396 0 4.90327 0 0)
(7.67691 -1.79687 0 5.09606 0 0)
(8.41043 -1.96096 0 5.35422 0 0)
(7.62572 -1.62254 0 5.51429 0 0)
(8.43236 -1.83972 0 5.72818 0 0)
(7.56265 -1.46617 0 5.8277 0 0)
(8.37103 -1.73766 0 5.96747 0 0)
(7.60241 -1.36441 0 5.96508 0 0)
(8.26375 -1.59048 0 6.11178 0 0)
(7.71071 -1.28309 0 6.12334 0 0)
(8.19259 -1.40924 0 6.30639 0 0)
(7.88189 -1.15698 0 6.3613 0 0)
(8.25124 -1.20043 0 6.55229 0 0)
(8.08334 -1.03532 0 6.59801 0 0)
(8.45251 -1.08135 0 6.71558 0 0)
(8.34535 -0.933537 0 6.77502 0 0)
(8.7409 -0.957606 0 6.89327 0 0)
(8.60799 -0.842201 0 6.96131 0 0)
(9.01071 -0.866503 0 7.08755 0 0)
(8.84029 -0.769905 0 7.21448 0 0)
(9.23828 -0.757676 0 7.40145 0 0)
(8.92706 -0.679098 0 7.58991 0 0)
(9.28286 -0.628449 0 7.84717 0 0)
(8.82486 -0.52402 0 8.1052 0 0)
(9.15936 -0.561822 0 8.45089 0 0)
(8.49197 -0.397809 0 8.79646 0 0)
(8.98204 -0.580153 0 9.15734 0 0)
(8.01088 -0.389182 0 9.33189 0 0)
(8.76487 -0.695918 0 9.63429 0 0)
(7.53285 -0.343572 0 9.71157 0 0)
(8.5596 -0.727289 0 9.92312 0 0)
(7.21441 -0.250891 0 9.8708 0 0)
(8.44614 -0.677653 0 10.0536 0 0)
(7.06811 -0.197719 0 9.93679 0 0)
(8.37853 -0.620926 0 10.1037 0 0)
(7.09366 -0.21876 0 9.94332 0 0)
(8.42043 -0.596555 0 10.136 0 0)
(7.18867 -0.350359 0 10.0761 0 0)
(8.38052 -0.710401 0 10.2591 0 0)
(7.37397 -0.542379 0 10.2441 0 0)
(8.43942 -0.85476 0 10.3853 0 0)
(7.70611 -0.685812 0 10.4401 0 0)
(8.74758 -0.978501 0 10.5939 0 0)
(8.11356 -0.829884 0 10.749 0 0)
(9.11889 -1.05595 0 10.9445 0 0)
(8.36161 -0.87375 0 11.1614 0 0)
(9.32083 -1.10502 0 11.3999 0 0)
(8.4035 -0.831106 0 11.5911 0 0)
(9.35134 -1.21009 0 11.7718 0 0)
(8.32136 -0.872204 0 11.9085 0 0)
(9.23468 -1.37663 0 12.0277 0 0)
(8.23127 -1.05287 0 12.1776 0 0)
(9.07959 -1.51837 0 12.2391 0 0)
(8.15921 -1.28512 0 12.3607 0 0)
(8.88477 -1.54647 0 12.3921 0 0)
(8.14253 -1.40492 0 12.4609 0 0)
(8.75128 -1.46883 0 12.4876 0 0)
(8.08944 -1.42451 0 12.5316 0 0)
(8.67566 -1.32844 0 12.4999 0 0)
(7.98295 -1.31079 0 12.4923 0 0)
(8.60969 -1.11988 0 12.541 0 0)
(7.87434 -1.08707 0 12.6314 0 0)
(8.50233 -0.865114 0 12.7397 0 0)
(7.7106 -0.82048 0 12.8558 0 0)
(8.40937 -0.630628 0 12.7828 0 0)
(7.59418 -0.622955 0 12.8969 0 0)
(8.31911 -0.321194 0 12.8862 0 0)
(7.41389 -0.446128 0 13.1401 0 0)
(8.20152 -0.0220136 0 13.0823 0 0)
(7.24512 -0.278381 0 13.2264 0 0)
(8.05257 0.216967 0 13.2159 0 0)
(7.00115 -0.0242426 0 13.425 0 0)
(7.73767 0.376695 0 13.3606 0 0)
(6.8199 0.2735 0 13.5767 0 0)
(7.47487 0.50075 0 13.3837 0 0)
(6.63222 0.485245 0 13.5523 0 0)
(7.34619 0.622514 0 13.4493 0 0)
(6.52266 0.677972 0 13.5588 0 0)
(7.30757 0.618448 0 13.3192 0 0)
(6.45656 0.819487 0 13.4508 0 0)
(7.25611 0.676581 0 13.3445 0 0)
(6.31909 0.907173 0 13.4079 0 0)
(7.01458 0.699107 0 13.5004 0 0)
(6.10843 0.987192 0 13.5676 0 0)
(6.77341 0.628403 0 13.5554 0 0)
(5.96952 0.962164 0 13.5403 0 0)
(6.64633 0.600526 0 13.4629 0 0)
(5.79042 0.878911 0 13.4804 0 0)
(6.45271 0.420367 0 13.441 0 0)
(5.65954 0.741952 0 13.44 0 0)
(6.25597 0.210202 0 13.4174 0 0)
(5.58708 0.650794 0 13.1997 0 0)
(6.04233 -0.0785799 0 13.1387 0 0)
(5.50049 0.457016 0 12.7492 0 0)
(5.73933 -0.279103 0 12.6008 0 0)
(5.46957 0.109178 0 12.0394 0 0)
(5.32733 -0.612058 0 11.806 0 0)
(5.61158 -0.290007 0 11.1868 0 0)
(4.97238 -1.02609 0 10.8398 0 0)
(5.80756 -0.529326 0 10.537 0 0)
(4.79037 -1.32796 0 10.0533 0 0)
(5.805 -0.870389 0 9.92051 0 0)
(4.65681 -1.35558 0 9.32144 0 0)
(5.58873 -1.26335 0 9.39015 0 0)
(4.56904 -1.16022 0 8.5247 0 0)
(5.30569 -1.52257 0 8.93637 0 0)
(4.52018 -0.912828 0 7.63136 0 0)
(5.10508 -1.56747 0 8.60819 0 0)
(4.47729 -0.546434 0 6.94859 0 0)
(4.80804 -1.48565 0 8.46557 0 0)