/*--------------------------------*- C++ -*----------------------------------*\
| =========                 |                                                 |
| \\      /  F ield         | OpenFOAM: The Open Source CFD Toolbox           |
|  \\    /   O peration     | Version:  2.4.0                                 |
|   \\  /    A nd           | Web:      www.OpenFOAM.org                      |
|    \\/     M anipulation  |                                                 |
\*---------------------------------------------------------------------------*/
FoamFile
{
    version     2.0;
    format      ascii;
    class       volScalarField;
    location    "1.28";
    object      nuSgs;
}
// * * * * * * * * * * * * * * * * * * * * * * * * * * * * * * * * * * * * * //

dimensions      [0 2 -1 0 0 0 0];

internalField   nonuniform List<scalar> 
8800
(
0.0013385
0.00150713
0.00139253
0.00122958
0.00112028
0.00105154
0.000995925
0.000961705
0.000924521
0.000905969
0.000878137
0.000869746
0.000845928
0.000842476
0.000821134
0.00081924
0.000800247
0.000797625
0.000790774
0.000766414
0.000554092
0.000982314
0.00108289
0.00108136
0.00106242
0.00103539
0.00100042
0.000979063
0.00094775
0.000932674
0.000906165
0.000896941
0.000874705
0.000869635
0.000851913
0.000847605
0.000833576
0.000828392
0.000816984
0.000814943
0.000135626
0.000406301
0.000584494
0.000658374
0.000703629
0.000739036
0.000750287
0.000760985
0.00076021
0.000759541
0.000754052
0.000751513
0.000744115
0.000741636
0.000734892
0.000731428
0.000727578
0.000720524
0.00071515
0.000710616
2.69027e-05
0.000125585
0.000234528
0.000309668
0.000353844
0.000397399
0.000428616
0.000453013
0.000476951
0.000492365
0.000506627
0.000515988
0.000528868
0.000533899
0.000545263
0.000548065
0.00055771
0.00055756
0.000559782
0.000557375
5.12196e-06
3.35904e-05
7.2895e-05
0.000107853
0.000136483
0.000161624
0.000193785
0.000208789
0.000236066
0.000249466
0.000268272
0.000277432
0.000296163
0.000303401
0.00032069
0.00032794
0.000344284
0.000350036
0.000361763
0.000363997
2.36694e-06
8.45158e-06
2.01368e-05
2.934e-05
4.0488e-05
4.89224e-05
6.43006e-05
7.30643e-05
8.80521e-05
9.91333e-05
0.000108778
0.00011507
0.000128651
0.00013408
0.000145092
0.000153095
0.00016287
0.000173103
0.000180465
0.000188462
2.21738e-06
3.16433e-06
5.34209e-06
8.66882e-06
1.06039e-05
1.23832e-05
1.63561e-05
1.95038e-05
2.3685e-05
3.11725e-05
3.3129e-05
3.7011e-05
4.00317e-05
4.41018e-05
4.73928e-05
5.4753e-05
5.8082e-05
6.54526e-05
6.88877e-05
7.73316e-05
2.17513e-06
2.82318e-06
3.34093e-06
3.98101e-06
4.92608e-06
5.0514e-06
5.38269e-06
5.89256e-06
6.34045e-06
8.62372e-06
9.17016e-06
1.0421e-05
1.08027e-05
1.17964e-05
1.23573e-05
1.4453e-05
1.54197e-05
1.87237e-05
2.02134e-05
2.57827e-05
2.14147e-06
2.44693e-06
3.32114e-06
3.48515e-06
3.56781e-06
4.25855e-06
4.39045e-06
4.40042e-06
4.28834e-06
4.3305e-06
4.5453e-06
4.97098e-06
5.04404e-06
5.15225e-06
5.20534e-06
5.31469e-06
5.29978e-06
5.8641e-06
6.14858e-06
7.50469e-06
2.13009e-06
2.4882e-06
3.17497e-06
3.61628e-06
3.50895e-06
3.53335e-06
4.05331e-06
4.15527e-06
4.10858e-06
4.08512e-06
4.03496e-06
4.10179e-06
4.25477e-06
4.30741e-06
4.35069e-06
4.46396e-06
4.422e-06
4.4015e-06
4.43419e-06
4.55848e-06
2.13194e-06
2.43508e-06
3.21329e-06
3.5705e-06
3.56756e-06
3.67983e-06
3.89412e-06
4.18202e-06
4.19353e-06
4.13762e-06
4.1049e-06
4.21171e-06
4.25139e-06
4.36209e-06
4.41556e-06
4.41482e-06
4.39532e-06
4.39639e-06
4.40504e-06
4.50919e-06
2.14617e-06
2.5963e-06
2.95744e-06
3.2931e-06
4.02795e-06
4.29958e-06
4.28523e-06
4.13999e-06
4.1078e-06
4.15354e-06
4.60786e-06
4.8565e-06
4.87859e-06
4.97999e-06
5.02611e-06
5.1376e-06
5.26105e-06
5.62258e-06
6.14658e-06
6.75513e-06
2.15303e-06
2.59301e-06
3.10599e-06
4.11739e-06
4.9598e-06
5.23368e-06
5.39539e-06
5.94528e-06
6.46447e-06
7.79624e-06
9.10949e-06
1.02106e-05
1.07382e-05
1.21773e-05
1.29292e-05
1.45754e-05
1.59815e-05
1.91218e-05
2.07584e-05
2.36599e-05
2.18754e-06
3.07e-06
5.18784e-06
9.22323e-06
1.08573e-05
1.36497e-05
1.59754e-05
2.08519e-05
2.36843e-05
2.98942e-05
3.27323e-05
3.79579e-05
4.04577e-05
4.63383e-05
4.90579e-05
5.53036e-05
5.92999e-05
6.77322e-05
7.19769e-05
8.13936e-05
2.34943e-06
8.22192e-06
1.83043e-05
3.34907e-05
4.01991e-05
5.22479e-05
6.0952e-05
7.69561e-05
8.4625e-05
0.000100391
0.000107173
0.000119718
0.000125521
0.00013864
0.000144176
0.000156861
0.000163842
0.000179194
0.000186483
0.000205682
5.22793e-06
3.29758e-05
7.05359e-05
0.000114707
0.000134741
0.000165029
0.000188118
0.000215275
0.000228513
0.000254331
0.000264678
0.000282527
0.000291069
0.000309808
0.000317103
0.000334001
0.000342303
0.000361288
0.000369459
0.000390729
2.72712e-05
0.000123754
0.000240856
0.000304782
0.000358033
0.000393441
0.000430322
0.00045334
0.000474229
0.00049373
0.000506287
0.000517113
0.000526649
0.000538382
0.000542644
0.000552262
0.000556755
0.000567114
0.000570939
0.000580979
0.00013665
0.00040041
0.000589138
0.00065427
0.000709571
0.000732572
0.000755531
0.000757265
0.000761435
0.000757949
0.000756264
0.000748689
0.000746667
0.000739684
0.000737349
0.000730894
0.000729593
0.000725405
0.000723586
0.00071965
0.000557093
0.00098027
0.00108428
0.00108053
0.00106476
0.00102934
0.00100685
0.000971603
0.00095548
0.000924332
0.000913505
0.000889088
0.000881906
0.000862121
0.000857626
0.000840886
0.000836882
0.000821057
0.000815822
0.000801919
0.0013391
0.0015058
0.00139392
0.00122675
0.0011238
0.00104655
0.00100127
0.000954967
0.00093178
0.000897439
0.00088598
0.000860138
0.0008542
0.000831538
0.000827948
0.000806078
0.000801264
0.000776158
0.000767249
0.000735347
0.000352312
0.000303232
0.000272152
0.000250689
0.000235627
0.000225178
0.000218169
0.000213155
0.000209546
0.000206548
0.00020416
0.000201931
0.000200175
0.00019823
0.000196509
0.000194274
0.000192309
0.000189878
0.000188354
0.000186539
0.00018556
0.000184695
0.000183172
0.000180156
0.000177494
0.000175167
0.000173166
0.000172011
0.000171129
0.000170401
0.000169217
0.000168663
0.000167892
0.000167397
0.000166339
0.00016581
0.000164648
0.000164181
0.000163209
0.00016262
0.000161991
0.000160942
0.000160561
0.000159888
0.000159546
0.000159472
0.000159008
0.000159008
0.000159117
0.000159041
0.000159165
0.000159052
0.000158861
0.000158374
0.000157459
0.000156424
0.000155833
0.000154581
0.000153651
0.000152804
0.00015285
0.000153119
0.000154086
0.000154953
0.000156226
0.000156864
0.000157661
0.000158243
0.000158508
0.000159638
0.000161177
0.000165346
0.000167337
0.000169321
0.000171264
0.000170861
0.000168639
0.000161809
0.000149367
0.000136093
0.000122109
0.000110472
0.000101069
9.4507e-05
9.03008e-05
8.65066e-05
8.50443e-05
8.49099e-05
8.5514e-05
8.7194e-05
9.17862e-05
9.5288e-05
0.000102653
0.000107644
0.000117056
0.00012267
0.000129721
0.000132551
0.000136633
0.000136964
0.00013703
0.000136074
0.000134571
0.000130636
0.000126536
0.000118255
0.000108647
9.72288e-05
8.49105e-05
7.28649e-05
5.99427e-05
5.00479e-05
4.17103e-05
3.56299e-05
3.07006e-05
2.68036e-05
2.3787e-05
2.10997e-05
1.90984e-05
1.73396e-05
1.60213e-05
1.48679e-05
1.40826e-05
1.33182e-05
1.27078e-05
1.21323e-05
1.17584e-05
1.14157e-05
1.12452e-05
1.11786e-05
1.12368e-05
1.13593e-05
1.16146e-05
1.22232e-05
1.30746e-05
1.47549e-05
1.71026e-05
2.09052e-05
2.76154e-05
3.41471e-05
4.59081e-05
5.46391e-05
6.87626e-05
7.60953e-05
9.11292e-05
9.87979e-05
0.000114036
0.000126923
0.000147208
0.000159229
0.000167357
0.000166464
0.000165916
0.000162299
0.000161705
0.000158225
0.000157861
0.000155101
0.000153825
0.000148754
0.00014472
0.00013493
0.000122854
0.000103679
8.34507e-05
6.74217e-05
5.56845e-05
4.80752e-05
4.53624e-05
4.47202e-05
4.51347e-05
4.74709e-05
5.189e-05
5.98922e-05
7.14359e-05
7.89278e-05
9.15093e-05
9.62809e-05
0.00010326
0.000108031
0.000109324
0.000112106
0.000111394
0.000111397
0.000110671
0.000108361
0.000107983
0.000104453
0.000104941
0.000100817
0.000101868
9.82823e-05
0.000100433
9.82864e-05
0.000101201
0.000102167
0.000105096
0.000112086
0.000125888
0.000198947
0.000412519
0.000374437
0.000343261
0.000318561
0.000299461
0.000283902
0.000271714
0.000261585
0.00025356
0.00024659
0.000240871
0.000235541
0.000231244
0.000227335
0.000224209
0.000221222
0.000218549
0.00021612
0.000213603
0.00021169
0.000209444
0.000208058
0.000206222
0.000204981
0.000202867
0.000201569
0.000199572
0.000198359
0.00019685
0.000196015
0.000194662
0.000193702
0.000192633
0.000191749
0.000190999
0.000189692
0.000189016
0.000187675
0.000187042
0.000185768
0.000185047
0.000183887
0.000182957
0.000182064
0.00018087
0.000180253
0.000179138
0.000178516
0.000177814
0.000176997
0.000176811
0.000176138
0.000175929
0.000175356
0.000175024
0.000174125
0.000173654
0.000172495
0.000171814
0.000170493
0.000169624
0.000168471
0.000167409
0.000166498
0.0001655
0.000164286
0.000163268
0.000162354
0.000161884
0.000162003
0.000162625
0.000163425
0.000166195
0.000168165
0.00017317
0.000175858
0.000177365
0.000176854
0.000174419
0.000169716
0.000160824
0.000153681
0.000145488
0.000138239
0.000132385
0.000128497
0.000125032
0.000124092
0.000124146
0.00012491
0.000126281
0.000129587
0.000131487
0.000135334
0.000137516
0.000139295
0.00013975
0.000139694
0.000139294
0.000138083
0.00013607
0.000131612
0.0001255
0.000117753
0.000107695
9.4286e-05
8.02059e-05
6.48138e-05
5.26414e-05
4.29448e-05
3.53599e-05
2.9689e-05
2.50467e-05
2.16273e-05
1.90291e-05
1.70987e-05
1.56741e-05
1.43028e-05
1.32726e-05
1.22484e-05
1.16531e-05
1.10076e-05
1.08226e-05
1.05103e-05
1.03369e-05
1.02857e-05
1.02943e-05
1.03556e-05
1.04635e-05
1.06297e-05
1.09654e-05
1.15478e-05
1.25878e-05
1.49582e-05
1.74857e-05
2.17047e-05
2.61786e-05
3.43744e-05
4.36734e-05
5.48426e-05
7.2103e-05
8.33232e-05
9.97032e-05
0.00011047
0.00012533
0.000136014
0.000155534
0.000172233
0.000178313
0.000178312
0.000175868
0.000172
0.000164615
0.00016181
0.000153619
0.000153162
0.000150603
0.00015187
0.000151708
0.000153398
0.000151587
0.000152
0.000147493
0.000142914
0.000130426
0.00010945
8.51749e-05
6.61089e-05
5.43112e-05
4.84775e-05
4.59414e-05
4.55388e-05
4.60611e-05
4.79541e-05
5.25296e-05
5.85517e-05
6.60534e-05
7.44167e-05
7.83303e-05
8.59901e-05
8.80681e-05
9.13475e-05
9.50602e-05
9.55413e-05
9.88239e-05
9.7279e-05
9.93415e-05
9.69506e-05
9.81575e-05
9.59678e-05
9.6665e-05
9.5067e-05
9.48979e-05
9.49216e-05
9.4538e-05
9.72876e-05
9.80792e-05
0.000105155
0.00011008
0.000136038
0.000370173
0.000349159
0.000328852
0.000310972
0.000295415
0.000282535
0.000271649
0.00026277
0.000254844
0.00024812
0.000241691
0.000236227
0.000230852
0.000226364
0.000222101
0.000218563
0.000215213
0.000212515
0.000209717
0.000207623
0.000205155
0.000203423
0.000201137
0.000199774
0.00019753
0.000195916
0.000194236
0.000192362
0.000191414
0.000189731
0.000189008
0.000187667
0.00018708
0.000185852
0.000185211
0.000184105
0.000183192
0.000182272
0.000181089
0.000180353
0.00017927
0.000178457
0.000177515
0.000176881
0.000175722
0.000175089
0.000174211
0.000173087
0.000172594
0.000171398
0.000170966
0.000170107
0.000169724
0.000169242
0.000168634
0.000168329
0.000167555
0.000167097
0.000166106
0.000165517
0.000164177
0.000163215
0.000161711
0.000160493
0.00015843
0.000157039
0.000155365
0.000153058
0.000152211
0.0001502
0.000149675
0.000149595
0.000150383
0.000151476
0.000154149
0.000157675
0.000161191
0.000166136
0.000168299
0.000168104
0.000166959
0.000165279
0.000161739
0.000159868
0.000155792
0.000154217
0.000151299
0.0001499
0.000148311
0.000147731
0.000146437
0.000146017
0.000144919
0.000144387
0.00014287
0.000141816
0.000139207
0.00013694
0.000131916
0.000127015
0.000119876
0.000110484
9.88187e-05
8.5351e-05
7.03245e-05
5.73525e-05
4.64373e-05
3.74757e-05
3.04996e-05
2.5235e-05
2.12055e-05
1.8147e-05
1.56674e-05
1.40921e-05
1.29311e-05
1.23548e-05
1.18912e-05
1.14249e-05
1.09677e-05
1.04384e-05
1.01959e-05
9.93421e-06
9.89387e-06
9.81634e-06
9.8852e-06
9.94412e-06
1.01012e-05
1.03129e-05
1.08759e-05
1.16994e-05
1.33591e-05
1.52003e-05
1.79261e-05
2.31059e-05
2.78753e-05
3.42491e-05
4.19586e-05
5.64405e-05
6.92828e-05
9.13932e-05
0.00010383
0.000120493
0.000132099
0.000145512
0.000153564
0.000170905
0.000183424
0.000185954
0.000183058
0.000178128
0.000161147
0.000153802
0.000136036
0.00013197
0.000122425
0.000121236
0.000118526
0.000121115
0.000123206
0.000131791
0.000137293
0.000145242
0.000147411
0.000146349
0.000145861
0.000138845
0.000130224
0.000105471
8.01377e-05
6.27655e-05
5.26672e-05
4.81117e-05
4.65366e-05
4.65274e-05
4.69461e-05
4.82977e-05
5.19711e-05
5.70433e-05
6.06264e-05
6.50065e-05
6.87688e-05
7.06563e-05
7.47492e-05
7.60167e-05
7.94932e-05
8.00516e-05
8.11125e-05
8.18437e-05
8.14996e-05
8.20987e-05
8.08994e-05
8.2275e-05
8.07817e-05
8.3061e-05
8.19229e-05
8.56124e-05
8.58629e-05
9.20974e-05
9.46689e-05
0.000104054
0.000295472
0.000284885
0.000273529
0.000263243
0.000252691
0.000243781
0.000235488
0.00022845
0.000222461
0.000217117
0.000212293
0.000208003
0.0002033
0.000199257
0.000195162
0.000191372
0.00018829
0.000185237
0.000182737
0.000180818
0.000178412
0.00017688
0.000174711
0.00017267
0.000171106
0.000168478
0.000167187
0.000164798
0.00016356
0.000161809
0.00016073
0.000159385
0.000158291
0.00015736
0.00015622
0.000155433
0.000154634
0.0001537
0.000152868
0.000152082
0.00015072
0.000149975
0.00014868
0.000147467
0.000146686
0.000145458
0.000144928
0.000144186
0.000143664
0.000143419
0.000142724
0.00014239
0.000141548
0.000141083
0.000139983
0.000139443
0.000138138
0.000137575
0.000136329
0.000135711
0.000134457
0.000133725
0.000132241
0.000131329
0.000129363
0.000127739
0.000126109
0.000123569
0.000121959
0.000120131
0.000118745
0.000117575
0.000117707
0.000118272
0.00012002
0.000122591
0.000126545
0.000131254
0.000137117
0.000142211
0.000146994
0.000149808
0.000150993
0.000151065
0.00015072
0.000149683
0.00014896
0.000147223
0.000146302
0.000144188
0.000142769
0.000139578
0.00013746
0.000133631
0.000129488
0.000124526
0.000118403
0.000110164
0.000101272
9.13051e-05
7.91816e-05
6.73475e-05
5.66071e-05
4.71182e-05
3.88356e-05
3.17538e-05
2.60275e-05
2.14625e-05
1.81142e-05
1.56913e-05
1.38772e-05
1.23784e-05
1.14031e-05
1.08663e-05
1.0654e-05
1.0643e-05
1.05951e-05
1.05452e-05
1.03414e-05
1.01053e-05
9.97273e-06
9.9783e-06
1.00282e-05
1.01287e-05
1.03058e-05
1.07901e-05
1.13229e-05
1.23818e-05
1.44804e-05
1.67403e-05
2.00723e-05
2.32972e-05
2.91145e-05
3.59419e-05
4.47953e-05
5.383e-05
6.92594e-05
8.87797e-05
0.000112531
0.000129579
0.000138188
0.000147055
0.00015494
0.000160823
0.000172887
0.000188463
0.000189371
0.000184795
0.000168936
0.000148877
0.000135333
0.000126218
0.000118316
0.000113502
0.000110315
0.000106138
0.000106112
0.000103751
0.000105141
0.000104501
0.00011002
0.000115281
0.000132895
0.000137292
0.000145045
0.000144294
0.000142369
0.000137046
0.000121254
9.69711e-05
7.30133e-05
5.88317e-05
5.12515e-05
4.81322e-05
4.79524e-05
4.736e-05
4.76682e-05
4.94387e-05
5.05583e-05
5.5404e-05
5.66803e-05
6.01934e-05
6.1199e-05
6.42503e-05
6.501e-05
6.74138e-05
6.71104e-05
6.8013e-05
6.70527e-05
6.78469e-05
6.66164e-05
6.75037e-05
6.63861e-05
6.76895e-05
6.70074e-05
6.9193e-05
6.92859e-05
7.29507e-05
7.44941e-05
7.93036e-05
0.000195877
0.000192128
0.000186834
0.00018261
0.000177227
0.000171838
0.000167797
0.000162622
0.000159744
0.000156323
0.000153562
0.000152002
0.000148817
0.000146779
0.000144046
0.000140702
0.000138724
0.000135514
0.000133509
0.000131789
0.000129987
0.000129127
0.000127974
0.000126664
0.000125851
0.000123897
0.000122513
0.000120707
0.000118955
0.000117649
0.000116289
0.000115376
0.000114124
0.000113316
0.000111998
0.000110905
0.000110158
0.000109181
0.000108804
0.000108188
0.000107818
0.000107168
0.000106203
0.000104435
0.000103121
0.000100789
9.91876e-05
9.75994e-05
9.64191e-05
9.6073e-05
9.60192e-05
9.63102e-05
9.72103e-05
9.78355e-05
9.83011e-05
9.8436e-05
9.77364e-05
9.64197e-05
9.432e-05
9.20551e-05
9.00874e-05
8.80465e-05
8.57895e-05
8.44792e-05
8.23073e-05
8.06051e-05
7.9045e-05
7.77332e-05
7.6816e-05
7.59592e-05
7.54767e-05
7.50642e-05
7.47429e-05
7.49343e-05
7.55647e-05
7.68334e-05
7.95058e-05
8.23624e-05
8.73336e-05
9.23835e-05
9.72544e-05
0.000101977
0.000106712
0.000109859
0.000112646
0.000114344
0.000114578
0.000114184
0.000113035
0.000110776
0.000108009
0.000103833
9.88974e-05
9.29351e-05
8.61544e-05
7.83003e-05
7.04407e-05
6.25869e-05
5.49768e-05
4.76847e-05
4.09304e-05
3.48069e-05
2.94387e-05
2.47468e-05
2.07207e-05
1.74128e-05
1.49775e-05
1.3203e-05
1.21118e-05
1.13518e-05
1.07652e-05
1.03915e-05
1.02178e-05
1.02191e-05
1.03556e-05
1.0507e-05
1.05746e-05
1.06581e-05
1.08377e-05
1.11977e-05
1.15991e-05
1.21827e-05
1.2675e-05
1.30309e-05
1.3593e-05
1.50221e-05
1.62239e-05
1.8893e-05
2.19784e-05
2.63762e-05
3.07335e-05
3.65737e-05
4.57527e-05
5.62224e-05
7.02331e-05
8.66124e-05
0.000115032
0.000136924
0.000146
0.000148665
0.000151866
0.000157365
0.000162217
0.00017016
0.000188424
0.000190544
0.000183295
0.000159389
0.000147294
0.000132883
0.00012767
0.000115878
0.000113881
0.000106725
0.000106732
0.000103365
0.000105325
0.000101962
0.000103847
0.000101179
0.000102186
0.000102368
0.000105225
0.000114749
0.000126663
0.000141602
0.000140598
0.000144232
0.000138979
0.000131352
0.000114297
8.45376e-05
6.8864e-05
5.61881e-05
5.08829e-05
4.94991e-05
4.84856e-05
5.11889e-05
5.08629e-05
5.28405e-05
5.34185e-05
5.52202e-05
5.56365e-05
5.62654e-05
5.65964e-05
5.74757e-05
5.87755e-05
5.92512e-05
5.99244e-05
6.00076e-05
6.03459e-05
6.04006e-05
6.05812e-05
6.08479e-05
6.07061e-05
6.12534e-05
6.12533e-05
6.24909e-05
6.30971e-05
6.49105e-05
0.000102217
0.000101092
9.86735e-05
9.68437e-05
9.48042e-05
9.2178e-05
9.09324e-05
8.86894e-05
8.75388e-05
8.63734e-05
8.52949e-05
8.49788e-05
8.42543e-05
8.36271e-05
8.2851e-05
8.12935e-05
8.04139e-05
7.82813e-05
7.70766e-05
7.57904e-05
7.47412e-05
7.42095e-05
7.36336e-05
7.33209e-05
7.31414e-05
7.28757e-05
7.21095e-05
7.11189e-05
6.97407e-05
6.85137e-05
6.74473e-05
6.67818e-05
6.60395e-05
6.57178e-05
6.49807e-05
6.43237e-05
6.36469e-05
6.27676e-05
6.24001e-05
6.20359e-05
6.19082e-05
6.18345e-05
6.18135e-05
6.17085e-05
6.12518e-05
5.95139e-05
5.78222e-05
5.60274e-05
5.40298e-05
5.26243e-05
5.15429e-05
5.10898e-05
5.11558e-05
5.16798e-05
5.31768e-05
5.42973e-05
5.50054e-05
5.53188e-05
5.53293e-05
5.46255e-05
5.28865e-05
5.08285e-05
4.86712e-05
4.68217e-05
4.49547e-05
4.31684e-05
4.20345e-05
4.0776e-05
3.9836e-05
3.9639e-05
3.96545e-05
4.00556e-05
4.1222e-05
4.18766e-05
4.23376e-05
4.27871e-05
4.3387e-05
4.47125e-05
4.60921e-05
4.92993e-05
5.21922e-05
5.55553e-05
5.92393e-05
6.14396e-05
6.35429e-05
6.50987e-05
6.52845e-05
6.50271e-05
6.41287e-05
6.24631e-05
5.99225e-05
5.67646e-05
5.2976e-05
4.8872e-05
4.44846e-05
3.99786e-05
3.54861e-05
3.11776e-05
2.70678e-05
2.33515e-05
2.01498e-05
1.73524e-05
1.50125e-05
1.30828e-05
1.14836e-05
1.06568e-05
1.01523e-05
1.01487e-05
1.01858e-05
1.01568e-05
1.02226e-05
1.03853e-05
1.06786e-05
1.14164e-05
1.20979e-05
1.24077e-05
1.27826e-05
1.33372e-05
1.42324e-05
1.528e-05
1.60299e-05
1.70593e-05
1.79373e-05
1.86677e-05
1.98351e-05
2.24233e-05
2.47852e-05
2.83369e-05
3.42526e-05
3.90888e-05
4.73474e-05
5.57943e-05
7.12939e-05
8.72621e-05
0.00011274
0.000141222
0.000153946
0.000155787
0.000154775
0.000153206
0.000156119
0.000158649
0.000162539
0.00017663
0.000185656
0.00017444
0.000160379
0.00014868
0.000140024
0.000128824
0.000123235
0.000111825
0.000109809
0.000103377
0.000103623
0.00010238
0.000103016
0.00010201
0.000101961
0.000101786
9.90617e-05
0.00010004
9.84689e-05
0.00010311
0.000106337
0.000123185
0.000132286
0.000137633
0.000144021
0.000137799
0.000137595
0.000125481
0.000102501
8.0983e-05
6.26124e-05
5.94036e-05
5.23164e-05
5.23356e-05
5.17385e-05
5.20208e-05
5.20191e-05
5.21073e-05
5.25691e-05
5.26702e-05
5.35195e-05
5.39352e-05
5.57907e-05
5.60516e-05
5.75476e-05
5.7697e-05
5.85794e-05
5.84776e-05
5.88297e-05
5.86226e-05
5.87113e-05
5.86469e-05
5.8721e-05
5.89504e-05
5.94712e-05
6.00436e-05
4.20787e-05
4.15657e-05
4.03596e-05
3.95307e-05
3.85764e-05
3.78414e-05
3.74227e-05
3.67249e-05
3.65025e-05
3.6342e-05
3.62987e-05
3.64237e-05
3.64049e-05
3.64316e-05
3.63914e-05
3.60826e-05
3.58175e-05
3.49628e-05
3.43778e-05
3.3759e-05
3.33665e-05
3.32149e-05
3.31893e-05
3.32925e-05
3.36667e-05
3.39782e-05
3.41083e-05
3.41316e-05
3.37979e-05
3.29051e-05
3.21315e-05
3.14828e-05
3.11009e-05
3.09753e-05
3.08341e-05
3.05263e-05
3.00528e-05
2.95357e-05
2.92005e-05
2.90327e-05
2.89974e-05
2.92559e-05
2.98123e-05
3.01905e-05
3.04432e-05
3.04655e-05
3.01104e-05
2.89293e-05
2.72749e-05
2.58413e-05
2.44771e-05
2.34544e-05
2.30153e-05
2.29475e-05
2.3724e-05
2.54024e-05
2.67743e-05
2.78012e-05
2.82817e-05
2.84034e-05
2.8202e-05
2.72008e-05
2.58109e-05
2.44303e-05
2.3157e-05
2.16589e-05
2.03627e-05
1.91364e-05
1.83278e-05
1.81341e-05
1.82068e-05
1.90261e-05
2.03678e-05
2.15951e-05
2.25417e-05
2.26876e-05
2.27868e-05
2.29482e-05
2.322e-05
2.40363e-05
2.49328e-05
2.64162e-05
2.87441e-05
3.00881e-05
3.15759e-05
3.24875e-05
3.25092e-05
3.23167e-05
3.18054e-05
3.07362e-05
2.93597e-05
2.77036e-05
2.5731e-05
2.35637e-05
2.12811e-05
1.88873e-05
1.66543e-05
1.45017e-05
1.26334e-05
1.10705e-05
9.98745e-06
9.10774e-06
8.53426e-06
8.54064e-06
8.60933e-06
8.85792e-06
9.33423e-06
9.89075e-06
1.06331e-05
1.12928e-05
1.2776e-05
1.35588e-05
1.47968e-05
1.58954e-05
1.69091e-05
1.75173e-05
1.85337e-05
1.98639e-05
2.10007e-05
2.24107e-05
2.31454e-05
2.41175e-05
2.53361e-05
2.69309e-05
2.88834e-05
3.24742e-05
3.74366e-05
4.1614e-05
4.94295e-05
5.77511e-05
6.99508e-05
8.60117e-05
0.000108552
0.000142263
0.000159086
0.000163509
0.000162863
0.000156872
0.000135752
0.000129517
0.000130067
0.00013203
0.000152863
0.000178172
0.00017092
0.000160889
0.000153827
0.000146946
0.000137148
0.000128382
0.000119581
0.00011068
0.000106229
0.000101187
0.000100158
9.98483e-05
9.95053e-05
0.000102184
0.000100848
0.000103362
0.000100362
0.000102398
9.91643e-05
0.000100477
0.000100306
0.000102681
0.000116364
0.000122137
0.000139462
0.000139157
0.000136973
0.000137966
0.000128507
0.000120559
9.43374e-05
7.79878e-05
6.70739e-05
5.74535e-05
5.75369e-05
5.48197e-05
5.45765e-05
5.29072e-05
5.2725e-05
5.18309e-05
5.20165e-05
5.22337e-05
5.40666e-05
5.42225e-05
5.48465e-05
5.49992e-05
5.59947e-05
5.62654e-05
5.72972e-05
5.74761e-05
5.80341e-05
5.79844e-05
5.80853e-05
5.80944e-05
5.83572e-05
5.85551e-05
1.41278e-05
1.40166e-05
1.36913e-05
1.33511e-05
1.29493e-05
1.27268e-05
1.25413e-05
1.23792e-05
1.23514e-05
1.23271e-05
1.23259e-05
1.23642e-05
1.23472e-05
1.23397e-05
1.23011e-05
1.2131e-05
1.20572e-05
1.19549e-05
1.19448e-05
1.19755e-05
1.20133e-05
1.21134e-05
1.21994e-05
1.23778e-05
1.25782e-05
1.27441e-05
1.28111e-05
1.2818e-05
1.26064e-05
1.20833e-05
1.16809e-05
1.13736e-05
1.12223e-05
1.11775e-05
1.1166e-05
1.11591e-05
1.10821e-05
1.0925e-05
1.08245e-05
1.08009e-05
1.09223e-05
1.14865e-05
1.20774e-05
1.24335e-05
1.26334e-05
1.26549e-05
1.23706e-05
1.17036e-05
1.0855e-05
1.00772e-05
9.37183e-06
8.7792e-06
8.49351e-06
8.44629e-06
8.89953e-06
1.00695e-05
1.10561e-05
1.18052e-05
1.22806e-05
1.24693e-05
1.24872e-05
1.22736e-05
1.16164e-05
1.08726e-05
1.00784e-05
9.16496e-06
8.28642e-06
7.4978e-06
6.93226e-06
6.74774e-06
6.82714e-06
7.75968e-06
9.00204e-06
9.91017e-06
1.06038e-05
1.08203e-05
1.06597e-05
1.04146e-05
1.03806e-05
1.04399e-05
1.06316e-05
1.09654e-05
1.2173e-05
1.31422e-05
1.39831e-05
1.43197e-05
1.4305e-05
1.41975e-05
1.39005e-05
1.34905e-05
1.2864e-05
1.22053e-05
1.12392e-05
1.03284e-05
9.28372e-06
8.37314e-06
7.59063e-06
6.93464e-06
6.80505e-06
6.81286e-06
6.90312e-06
7.14854e-06
7.57405e-06
8.57795e-06
9.33183e-06
1.07823e-05
1.23945e-05
1.42149e-05
1.62239e-05
1.81309e-05
2.04093e-05
2.15142e-05
2.25986e-05
2.34813e-05
2.46305e-05
2.62067e-05
2.78439e-05
2.97351e-05
3.09287e-05
3.18664e-05
3.28187e-05
3.36284e-05
3.58197e-05
3.80134e-05
4.22537e-05
4.63903e-05
5.26382e-05
6.18831e-05
7.03906e-05
8.67213e-05
0.000103759
0.0001371
0.000162688
0.000171253
0.000170997
0.000164969
0.000138175
0.000110167
0.00010063
0.00010212
0.000106697
0.000127607
0.000171494
0.000175526
0.000161939
0.000156483
0.000153337
0.000146868
0.000139118
0.000130313
0.000119176
0.00011083
0.000105288
0.000100966
9.93127e-05
9.91538e-05
9.85527e-05
0.000101686
0.000100655
0.000104846
0.000103408
0.000103916
0.000101468
9.96997e-05
0.0001003
9.9197e-05
0.000107069
0.00011046
0.000124922
0.000135999
0.000136152
0.000138944
0.000133852
0.000135204
0.000129572
0.000108736
9.9279e-05
7.4961e-05
7.12789e-05
6.25334e-05
6.14216e-05
5.71373e-05
5.5184e-05
5.26117e-05
5.16638e-05
5.12528e-05
5.19555e-05
5.22564e-05
5.31354e-05
5.31887e-05
5.3817e-05
5.39688e-05
5.50173e-05
5.53335e-05
5.55842e-05
5.55539e-05
5.55814e-05
5.55873e-05
5.53811e-05
5.53834e-05
4.16139e-06
4.22276e-06
4.2371e-06
4.21928e-06
4.16889e-06
4.11912e-06
4.06232e-06
4.0242e-06
4.01211e-06
3.98788e-06
3.95316e-06
3.92402e-06
3.89442e-06
3.89211e-06
3.94725e-06
4.00585e-06
4.0574e-06
4.05991e-06
4.03485e-06
3.98745e-06
3.95179e-06
3.94232e-06
3.9424e-06
3.9778e-06
4.02404e-06
4.05752e-06
4.07096e-06
4.06841e-06
4.03787e-06
3.96189e-06
3.91023e-06
3.88062e-06
3.8672e-06
3.86903e-06
3.87127e-06
3.87792e-06
3.88694e-06
3.89882e-06
3.90484e-06
3.91021e-06
3.94241e-06
4.0382e-06
4.14337e-06
4.21075e-06
4.24847e-06
4.2558e-06
4.19253e-06
4.05246e-06
3.9217e-06
3.82638e-06
3.79376e-06
3.7892e-06
3.7987e-06
3.86661e-06
3.94298e-06
4.06528e-06
4.20451e-06
4.32708e-06
4.42637e-06
4.47605e-06
4.48197e-06
4.44308e-06
4.27835e-06
4.08764e-06
3.88844e-06
3.71563e-06
3.60383e-06
3.5169e-06
3.47674e-06
3.4722e-06
3.59384e-06
3.89746e-06
4.17654e-06
4.36605e-06
4.5257e-06
4.56311e-06
4.47458e-06
4.35228e-06
4.32889e-06
4.34646e-06
4.40822e-06
4.48248e-06
4.81585e-06
5.20138e-06
5.42185e-06
5.55188e-06
5.58621e-06
5.57504e-06
5.54721e-06
5.45674e-06
5.39268e-06
5.2576e-06
5.18407e-06
5.13643e-06
5.14569e-06
5.22076e-06
5.41004e-06
5.76906e-06
6.59607e-06
7.36319e-06
8.88235e-06
1.0231e-05
1.21406e-05
1.46824e-05
1.62508e-05
1.91538e-05
2.19496e-05
2.47587e-05
2.7558e-05
2.99755e-05
3.21159e-05
3.31747e-05
3.41122e-05
3.55779e-05
3.71293e-05
3.92774e-05
4.11084e-05
4.23479e-05
4.31945e-05
4.37882e-05
4.54208e-05
4.71036e-05
5.07396e-05
5.44007e-05
6.02964e-05
6.67819e-05
7.44367e-05
9.14927e-05
0.000105607
0.000131391
0.000161731
0.000177501
0.000179985
0.000174515
0.000144407
0.000111125
9.53197e-05
9.21159e-05
9.20527e-05
9.40362e-05
0.000106382
0.000158931
0.000183499
0.000165757
0.00015727
0.000156528
0.000158654
0.000158081
0.000152132
0.000139639
0.000126314
0.000114061
0.000106404
0.000101469
9.92257e-05
9.90019e-05
9.73834e-05
0.000101129
0.00010118
0.000104107
0.00010679
0.000106113
0.000105894
0.000102308
0.000102479
0.000100112
0.000103746
0.000104888
0.00010922
0.000125446
0.000128379
0.000142326
0.000137355
0.00013346
0.000141617
0.000128368
0.000142028
0.000121276
0.000112176
8.81939e-05
8.4795e-05
7.3895e-05
6.79644e-05
5.88234e-05
5.61408e-05
5.27005e-05
5.2196e-05
5.2146e-05
5.27222e-05
5.29631e-05
5.34375e-05
5.32251e-05
5.37707e-05
5.3542e-05
5.34148e-05
5.29787e-05
5.24959e-05
5.24524e-05
5.25253e-05
5.28652e-05
2.52397e-06
2.54752e-06
2.59282e-06
2.60427e-06
2.6275e-06
2.64391e-06
2.65336e-06
2.66219e-06
2.66549e-06
2.67e-06
2.68533e-06
2.72921e-06
2.75198e-06
2.76022e-06
2.74867e-06
2.71589e-06
2.69656e-06
2.69341e-06
2.70015e-06
2.701e-06
2.69658e-06
2.68042e-06
2.66687e-06
2.65436e-06
2.64637e-06
2.64261e-06
2.63793e-06
2.637e-06
2.6312e-06
2.62759e-06
2.627e-06
2.64098e-06
2.67714e-06
2.7051e-06
2.72872e-06
2.73387e-06
2.73601e-06
2.73022e-06
2.72367e-06
2.72302e-06
2.74859e-06
2.78986e-06
2.81499e-06
2.81756e-06
2.80684e-06
2.79892e-06
2.8283e-06
2.9434e-06
3.05116e-06
3.09563e-06
3.10257e-06
3.06629e-06
3.00941e-06
2.97289e-06
2.96539e-06
2.96576e-06
2.97275e-06
2.99115e-06
3.00185e-06
3.02825e-06
3.04882e-06
3.06427e-06
3.07204e-06
3.07136e-06
3.07271e-06
3.11466e-06
3.33188e-06
3.54032e-06
3.65236e-06
3.66564e-06
3.60938e-06
3.44814e-06
3.32577e-06
3.23692e-06
3.2148e-06
3.24139e-06
3.34953e-06
3.42479e-06
3.47736e-06
3.48702e-06
3.43821e-06
3.34945e-06
3.31792e-06
3.32123e-06
3.33628e-06
3.38557e-06
3.47148e-06
3.67888e-06
3.9348e-06
4.12773e-06
4.4685e-06
4.69711e-06
5.12356e-06
5.68675e-06
6.28861e-06
7.56005e-06
8.67817e-06
1.05985e-05
1.27964e-05
1.48138e-05
1.79828e-05
2.02467e-05
2.36428e-05
2.7051e-05
2.9964e-05
3.41436e-05
3.77869e-05
4.12538e-05
4.39375e-05
4.5839e-05
4.76454e-05
4.91473e-05
5.09596e-05
5.32469e-05
5.50362e-05
5.65762e-05
5.73047e-05
5.79027e-05
5.86655e-05
6.02727e-05
6.4442e-05
6.72774e-05
7.26039e-05
7.73486e-05
8.47144e-05
9.49438e-05
0.000108915
0.000133139
0.000158111
0.000177891
0.000186105
0.000183336
0.000154532
0.000111963
9.11215e-05
8.46436e-05
8.54061e-05
9.08333e-05
9.93738e-05
0.000105531
0.000133614
0.000188136
0.000180784
0.000159254
0.000158047
0.000165374
0.000172957
0.000178105
0.000175013
0.000160815
0.000142817
0.000127425
0.000114988
0.000105382
0.000100093
9.91414e-05
9.72501e-05
9.84797e-05
0.000100797
0.000103027
0.00010782
0.000108302
0.000110772
0.000106716
0.000106878
0.000103508
0.000103044
0.000105749
0.000106068
0.000124042
0.000123506
0.000129963
0.000149715
0.000144053
0.000149978
0.000145019
0.000153176
0.000135905
0.000152689
0.000128234
0.000140185
0.000124866
0.000113282
8.73809e-05
7.35865e-05
6.20556e-05
5.70201e-05
5.40749e-05
5.38646e-05
5.35016e-05
5.33795e-05
5.25518e-05
5.2502e-05
5.24436e-05
5.22542e-05
5.21356e-05
5.21198e-05
5.25849e-05
5.26403e-05
5.23651e-05
2.49871e-06
2.52929e-06
2.61466e-06
2.6578e-06
2.69836e-06
2.709e-06
2.72534e-06
2.75101e-06
2.76236e-06
2.76501e-06
2.76029e-06
2.74624e-06
2.73856e-06
2.7386e-06
2.74267e-06
2.77327e-06
2.82852e-06
2.90802e-06
2.97795e-06
3.0164e-06
3.03341e-06
3.03462e-06
3.02604e-06
3.00367e-06
2.97557e-06
2.94697e-06
2.93122e-06
2.92284e-06
2.91911e-06
2.95512e-06
3.10235e-06
3.25399e-06
3.37526e-06
3.43331e-06
3.45751e-06
3.45696e-06
3.45016e-06
3.45801e-06
3.49752e-06
3.55089e-06
3.57376e-06
3.58202e-06
3.57408e-06
3.56121e-06
3.5782e-06
3.63517e-06
3.81757e-06
3.9677e-06
4.04083e-06
4.17223e-06
4.21175e-06
4.27171e-06
4.34245e-06
4.37932e-06
4.5002e-06