/*--------------------------------*- C++ -*----------------------------------*\
| =========                 |                                                 |
| \\      /  F ield         | OpenFOAM: The Open Source CFD Toolbox           |
|  \\    /   O peration     | Version:  2.4.0                                 |
|   \\  /    A nd           | Web:      www.OpenFOAM.org                      |
|    \\/     M anipulation  |                                                 |
\*---------------------------------------------------------------------------*/
FoamFile
{
    version     2.0;
    format      ascii;
    class       surfaceScalarField;
    location    "1.28";
    object      phi_0;
}
// * * * * * * * * * * * * * * * * * * * * * * * * * * * * * * * * * * * * * //

dimensions      [0 3 -1 0 0 0 0];

internalField   nonuniform List<scalar> 
17320
(
1.76393e-05
7.36075e-06
1.16194e-05
6.01985e-06
8.67967e-06
2.93973e-06
7.35545e-06
1.32422e-06
6.72172e-06
6.33725e-07
6.342e-06
3.79722e-07
6.07467e-06
2.67333e-07
5.87477e-06
1.99893e-07
5.71113e-06
1.63644e-07
5.57874e-06
1.32387e-07
5.47471e-06
1.04029e-07
5.40784e-06
6.68736e-08
5.29511e-06
1.1273e-07
5.23471e-06
6.03979e-08
5.14972e-06
8.49874e-08
5.08929e-06
6.0432e-08
4.99034e-06
9.89543e-08
5.03042e-06
-4.00819e-08
4.81888e-06
2.11542e-07
-5.00403e-07
5.31928e-06
2.54659e-05
6.89483e-06
2.32489e-05
8.23683e-06
2.09868e-05
5.20186e-06
1.93199e-05
2.99118e-06
1.808e-05
1.8736e-06
1.71104e-05
1.3493e-06
1.63657e-05
1.01204e-06
1.57791e-05
7.86459e-07
1.53114e-05
6.31383e-07
1.49303e-05
5.13436e-07
1.46343e-05
4.00084e-07
1.43924e-05
3.0876e-07
1.41378e-05
3.67303e-07
1.3958e-05
2.40259e-07
1.37399e-05
3.03028e-07
1.35904e-05
2.09987e-07
1.33581e-05
3.31188e-07
1.33495e-05
-3.14699e-08
1.32123e-05
3.4874e-07
-7.02756e-07
1.34147e-05
2.66284e-05
5.26648e-06
2.71548e-05
7.71034e-06
2.67781e-05
5.57859e-06
2.62509e-05
3.51842e-06
2.56105e-05
2.51398e-06
2.48699e-05
2.08987e-06
2.41633e-05
1.71864e-06
2.35087e-05
1.44109e-06
2.29376e-05
1.2025e-06
2.24396e-05
1.0114e-06
2.20405e-05
7.99216e-07
2.16865e-05
6.62705e-07
2.13511e-05
7.02759e-07
2.10951e-05
4.9627e-07
2.07984e-05
5.99741e-07
2.05852e-05
4.23172e-07
2.03004e-05
6.15956e-07
2.01963e-05
7.26484e-08
2.01727e-05
3.72316e-07
-1.12258e-06
2.05925e-05
2.63374e-05
3.92911e-06
2.75417e-05
6.506e-06
2.80795e-05
5.04083e-06
2.8448e-05
3.14988e-06
2.86499e-05
2.31205e-06
2.86266e-05
2.11323e-06
2.84792e-05
1.86602e-06
2.82433e-05
1.67695e-06
2.79759e-05
1.46996e-06
2.76813e-05
1.30596e-06
2.74413e-05
1.03922e-06
2.71698e-05
9.34241e-07
2.69104e-05
9.62084e-07
2.66973e-05
7.09382e-07
2.64318e-05
8.65271e-07
2.62142e-05
6.40783e-07
2.59827e-05
8.47464e-07
2.57293e-05
3.25997e-07
2.56149e-05
4.86719e-07
-7.15697e-07
2.5208e-05
2.6045e-05
2.8841e-06
2.72535e-05
5.29749e-06
2.80489e-05
4.24549e-06
2.84936e-05
2.70511e-06
2.89688e-05
1.83691e-06
2.93238e-05
1.75819e-06
2.95923e-05
1.59758e-06
2.97476e-05
1.52164e-06
2.98736e-05
1.34392e-06
2.98956e-05
1.28399e-06
2.99721e-05
9.6269e-07
2.99506e-05
9.55712e-07
2.99425e-05
9.70247e-07
2.99413e-05
7.10505e-07
2.98916e-05
9.15027e-07
2.97878e-05
7.4461e-07
2.97719e-05
8.63337e-07
2.94638e-05
6.34128e-07
2.93635e-05
5.86973e-07
-1.34156e-07
2.8782e-05
2.58342e-05
2.04989e-06
2.69438e-05
4.18791e-06
2.78302e-05
3.35903e-06
2.82388e-05
2.29655e-06
2.86783e-05
1.3974e-06
2.90788e-05
1.35772e-06
2.94366e-05
1.23975e-06
2.97091e-05
1.24914e-06
3.0066e-05
9.87055e-07
3.01432e-05
1.20678e-06
3.0434e-05
6.71886e-07
3.0515e-05
8.74735e-07
3.07142e-05
7.71031e-07
3.07917e-05
6.32999e-07
3.10544e-05
6.52269e-07
3.09881e-05
8.1093e-07
3.12504e-05
6.01016e-07
3.10087e-05
8.75834e-07
3.09775e-05
6.18167e-07
6.18854e-07
3.02245e-05
2.5699e-05
1.35088e-06
2.67284e-05
3.15849e-06
2.75788e-05
2.50871e-06
2.8061e-05
1.8143e-06
2.84831e-05
9.75294e-07
2.88872e-05
9.536e-07
2.91926e-05
9.34405e-07
2.93906e-05
1.05115e-06
2.98543e-05
5.23302e-07
2.99539e-05
1.10725e-06
3.03231e-05
3.02651e-07
3.03617e-05
8.36151e-07
3.0678e-05
4.5468e-07
3.06835e-05
6.27536e-07
3.0989e-05
3.46755e-07
3.10351e-05
7.64882e-07
3.13934e-05
2.42645e-07
3.11344e-05
1.1349e-06
3.10759e-05
6.76673e-07
1.58022e-06
3.01145e-05
2.55172e-05
8.33648e-07
2.6603e-05
2.07273e-06
2.74543e-05
1.65741e-06
2.79435e-05
1.3251e-06
2.84173e-05
5.01481e-07
2.86431e-05
7.27841e-07
2.90223e-05
5.55151e-07
2.93222e-05
7.51223e-07
2.95085e-05
3.37058e-07
2.98774e-05
7.38385e-07
3.00246e-05
1.55444e-07
3.02941e-05
5.66584e-07
3.04719e-05
2.76898e-07
3.06603e-05
4.3914e-07
3.07432e-05
2.63857e-07
3.09497e-05
5.58388e-07
3.11202e-05
7.21742e-08
3.14548e-05
8.00236e-07
3.18959e-05
2.35574e-07
7.21609e-07
3.27545e-05
2.54906e-05
3.4305e-07
2.64272e-05
1.13614e-06
2.73669e-05
7.17719e-07
2.79317e-05
7.60263e-07
2.81714e-05
2.61813e-07
2.85771e-05
3.2214e-07
2.8884e-05
2.48271e-07
2.93234e-05
3.11831e-07
2.94217e-05
2.38742e-07
2.96256e-05
5.34428e-07
2.9975e-05
-1.93968e-07
3.02121e-05
3.29544e-07
3.02919e-05
1.97037e-07
3.05372e-05
1.93835e-07
3.07051e-05
9.60194e-08
3.08734e-05
3.90105e-07
3.09917e-05
-4.61785e-08
3.15849e-05
2.07035e-07
3.15649e-05
2.55543e-07
1.51351e-07
3.21352e-05
2.53852e-05
-4.21613e-08
2.64389e-05
8.24746e-08
2.72577e-05
-1.01109e-07
2.7987e-05
3.09288e-08
2.82065e-05
4.23067e-08
2.83764e-05
1.52243e-07
2.89297e-05
-3.04978e-07
2.9212e-05
2.95379e-08
2.93901e-05
6.06689e-08
2.9765e-05
1.59479e-07
2.97865e-05
-2.15505e-07
3.008e-05
3.60747e-08
3.03285e-05
-5.1496e-08
3.04339e-05
8.84584e-08
3.05539e-05
-2.39873e-08
3.09623e-05
-1.82743e-08
3.11355e-05
-2.19328e-07
3.12413e-05
1.0119e-07
3.16553e-05
-1.58497e-07
-5.62674e-08
3.1863e-05
2.54248e-05
-4.66947e-07
2.63947e-05
-8.87421e-07
2.72848e-05
-9.91248e-07
2.79136e-05
-5.97873e-07
2.8205e-05
-2.49074e-07
2.85214e-05
-1.64171e-07
2.87384e-05
-5.21982e-07
2.92138e-05
-4.45868e-07
2.9472e-05
-1.97519e-07
2.96846e-05
-5.30701e-08
2.97823e-05
-3.13251e-07
3.01298e-05
-3.11463e-07
3.02224e-05
-1.44085e-07
3.04746e-05
-1.63733e-07
3.06616e-05
-2.10928e-07
3.08802e-05
-2.3686e-07
3.10658e-05
-4.04928e-07
3.14053e-05
-2.38349e-07
3.14895e-05
-2.42731e-07
-2.97502e-07
3.17308e-05
2.54643e-05
-9.31263e-07
2.65191e-05
-1.94216e-06
2.73071e-05
-1.77925e-06
2.7888e-05
-1.17883e-06
2.82181e-05
-5.79117e-07
2.86601e-05
-6.06219e-07
2.89084e-05
-7.70291e-07
2.91455e-05
-6.83004e-07
2.9454e-05
-5.06014e-07
2.97704e-05
-3.69387e-07
2.99493e-05
-4.92192e-07
3.01475e-05
-5.09622e-07
3.03032e-05
-2.9978e-07
3.05401e-05
-4.00689e-07
3.07061e-05
-3.76953e-07
3.09725e-05
-5.03179e-07
3.1068e-05
-5.00451e-07
3.13262e-05
-4.96609e-07
3.16918e-05
-6.08288e-07
-5.21219e-07
3.19155e-05
2.55426e-05
-1.47384e-06
2.66024e-05
-3.002e-06
2.7409e-05
-2.58585e-06
2.79735e-05
-1.7433e-06
2.83525e-05
-9.58179e-07
2.87487e-05
-1.00238e-06
2.89919e-05
-1.01352e-06
2.92957e-05
-9.8677e-07
2.94908e-05
-7.01083e-07
2.9884e-05
-7.62653e-07
3.00892e-05
-6.97306e-07
3.02161e-05
-6.36605e-07
3.03838e-05
-4.6744e-07
3.06794e-05
-6.96266e-07
3.08161e-05
-5.13638e-07
3.09722e-05
-6.59337e-07
3.11933e-05
-7.21514e-07
3.15576e-05
-8.60946e-07
3.17472e-05
-7.97865e-07
-7.74825e-07
3.20008e-05
2.56792e-05
-2.15299e-06
2.67322e-05
-4.05505e-06
2.7565e-05
-3.41863e-06
2.80774e-05
-2.25572e-06
2.85125e-05
-1.39329e-06
2.88687e-05
-1.35854e-06
2.91571e-05
-1.3019e-06
2.94466e-05
-1.27628e-06
2.97352e-05
-9.89729e-07
3.00681e-05
-1.09551e-06
3.02157e-05
-8.44919e-07
3.0396e-05
-8.1687e-07
3.05933e-05
-6.64755e-07
3.08066e-05
-9.09596e-07
3.09123e-05
-6.19327e-07
3.1171e-05
-9.18012e-07
3.13561e-05
-9.06611e-07
3.16489e-05
-1.15383e-06
3.18813e-05
-1.03021e-06
-1.07631e-06
3.21828e-05
2.58304e-05
-2.98336e-06
2.69507e-05
-5.17536e-06
2.78179e-05
-4.28587e-06
2.82576e-05
-2.69543e-06
2.87063e-05
-1.84194e-06
2.90909e-05
-1.74315e-06
2.94321e-05
-1.64317e-06
2.97056e-05
-1.54974e-06
2.9989e-05
-1.27317e-06
3.02039e-05
-1.31038e-06
3.03741e-05
-1.01508e-06
3.05233e-05
-9.66074e-07
3.07044e-05
-8.45908e-07
3.08396e-05
-1.04472e-06
3.09534e-05
-7.33209e-07
3.10996e-05
-1.0642e-06
3.11903e-05
-9.97315e-07
3.13899e-05
-1.35342e-06
3.15187e-05
-1.15898e-06
-1.39071e-06
3.18331e-05
2.60275e-05
-4.01088e-06
2.72486e-05
-6.39644e-06
2.80431e-05
-5.08035e-06
2.85009e-05
-3.15321e-06
2.89707e-05
-2.31178e-06
2.93247e-05
-2.09719e-06
2.95825e-05
-1.9009e-06
2.97193e-05
-1.68651e-06
2.98623e-05
-1.41622e-06
2.99019e-05
-1.34994e-06
2.99455e-05
-1.05873e-06
2.99443e-05
-9.64846e-07
2.99615e-05
-8.63126e-07
2.98922e-05
-9.75456e-07
2.98685e-05
-7.09499e-07
2.97799e-05
-9.75594e-07
2.96803e-05
-8.97693e-07
2.95979e-05
-1.27103e-06
2.9521e-05
-1.08203e-06
-1.47837e-06
2.96086e-05
2.63035e-05
-5.31438e-06
2.7556e-05
-7.64889e-06
2.80745e-05
-5.59893e-06
2.84459e-05
-3.52456e-06
2.86421e-05
-2.50804e-06
2.86249e-05
-2.07995e-06
2.84668e-05
-1.74283e-06
2.82252e-05
-1.44492e-06
2.79773e-05
-1.16832e-06
2.76756e-05
-1.04819e-06
2.74207e-05
-8.03855e-07
2.71568e-05
-7.00897e-07
2.6914e-05
-6.203e-07
2.66289e-05
-6.90367e-07
2.64192e-05
-4.99787e-07
2.61267e-05
-6.83097e-07
2.58693e-05
-6.40357e-07
2.55273e-05
-9.28989e-07
2.52891e-05
-8.43881e-07
-1.33309e-06
2.51439e-05
2.66041e-05
-6.91845e-06
2.71668e-05
-8.21162e-06
2.67715e-05
-5.20366e-06
2.62457e-05
-2.99871e-06
2.56049e-05
-1.86726e-06
2.48719e-05
-1.34699e-06
2.41506e-05
-1.02149e-06
2.35009e-05
-7.95214e-07
2.29387e-05
-6.06111e-07
2.24299e-05
-5.39425e-07
2.20239e-05
-3.97824e-07
2.16665e-05
-3.43512e-07
2.135e-05
-3.03829e-07
2.10241e-05
-3.64462e-07
2.07762e-05
-2.51856e-07
2.04578e-05
-3.64736e-07
2.01741e-05
-3.56651e-07
1.97543e-05
-5.09231e-07
1.93888e-05
-4.78351e-07
-4.76901e-07
1.85326e-05
2.54495e-05
-7.36798e-06
2.32518e-05
-6.01386e-06
2.09837e-05
-2.9356e-06
1.93151e-05
-1.33007e-06
1.80789e-05
-6.31064e-07
1.71107e-05
-3.78796e-07
1.63586e-05
-2.69444e-07
1.57713e-05
-2.07901e-07
1.53137e-05
-1.48473e-07
1.492e-05
-1.45736e-07
1.46227e-05
-1.00521e-07
1.43664e-05
-8.72571e-08
1.414e-05
-7.73607e-08
1.38921e-05
-1.16626e-07
1.37084e-05
-6.8161e-08
1.34598e-05
-1.16072e-07
1.32203e-05
-1.17193e-07
1.28844e-05
-1.73339e-07
1.26139e-05
-2.07776e-07
-7.70387e-08
1.2214e-05
1.7632e-05
1.16182e-05
8.68256e-06
7.35249e-06
6.72142e-06
6.34263e-06
6.07318e-06
5.86528e-06
5.71681e-06
5.57107e-06
5.47055e-06
5.3833e-06
5.30594e-06
5.18931e-06
5.12115e-06
5.00508e-06
4.88788e-06
4.71454e-06
4.50677e-06
4.42973e-06
5.76757e-06
-3.18572e-07
-1.29718e-07
6.11751e-06
-1.67743e-07
-1.82196e-07
6.37347e-06
-6.66438e-08
-1.8932e-07
6.57187e-06
-3.67211e-08
-1.61675e-07
6.75836e-06
-6.29242e-08
-1.23563e-07
6.95981e-06
-1.13038e-07
-8.84205e-08
7.16321e-06
-1.55273e-07
-4.81256e-08
7.35932e-06
-1.82791e-07
-1.3314e-08
7.52907e-06
-1.82311e-07
1.25618e-08
7.66614e-06
-1.66662e-07
2.95937e-08
7.7743e-06
-1.52785e-07
4.46248e-08
7.86606e-06
-1.30314e-07
3.85493e-08
7.96069e-06
-1.27727e-07
3.31011e-08
8.07117e-06
-1.06756e-07
-3.73058e-09
8.19506e-06
-8.62252e-08
-3.76628e-08
8.32485e-06
-6.85042e-08
-6.12852e-08
8.43512e-06
-6.15065e-08
-4.87624e-08
8.55001e-06
-6.20702e-08
-5.28265e-08
8.64882e-06
-5.41456e-08
-4.46586e-08
8.75697e-06
-3.83041e-08
-6.98477e-08
8.86786e-06
-2.04191e-08
-9.04721e-08
9.01035e-06
1.85044e-08
-1.60993e-07
9.1479e-06
2.80887e-08
-1.65636e-07
9.26386e-06
-1.33263e-08
-1.02637e-07
9.38288e-06
-7.94178e-08
-3.96023e-08
9.47099e-06
-1.29934e-07
4.18242e-08
9.53064e-06
-1.74914e-07
1.1526e-07
9.59722e-06
-1.83876e-07
1.17298e-07
9.67094e-06
-1.59893e-07
8.61736e-08
9.73288e-06
-1.34441e-07
7.24985e-08
9.79913e-06
-1.09406e-07
4.31592e-08
9.88301e-06
-7.53781e-08
-8.50784e-09
9.97985e-06
-3.50588e-08
-6.17813e-08
1.00745e-05
8.83976e-09
-1.03466e-07
1.01809e-05
2.63358e-08
-1.32753e-07
1.02918e-05
4.41812e-08
-1.55132e-07
1.04062e-05
4.9759e-08
-1.64143e-07
1.05249e-05
5.37958e-08
-1.72413e-07
1.06373e-05
5.77668e-08
-1.70259e-07
1.07616e-05
4.80104e-08
-1.72257e-07
1.08629e-05
3.04392e-08
-1.31755e-07
1.09718e-05
-1.49877e-08
-9.39403e-08
1.10724e-05
-4.90047e-08
-5.15218e-08
1.11532e-05
-1.14395e-07
3.35669e-08
1.12318e-05
-1.65253e-07
8.66199e-08
1.1298e-05
-2.29688e-07
1.63489e-07
1.13402e-05
-2.79067e-07
2.36899e-07
1.1385e-05
-3.16099e-07
2.71315e-07
1.14097e-05
-3.34922e-07
3.10149e-07
1.14341e-05
-3.28762e-07
3.04398e-07
1.14809e-05
-2.91269e-07
2.44457e-07
1.15195e-05
-2.53061e-07
2.14527e-07
1.16127e-05
-1.65085e-07
7.18768e-08
1.17163e-05
-9.63321e-08
-7.25922e-09
1.18482e-05
-5.97816e-08
-7.21866e-08
1.20262e-05
-2.50736e-09
-1.75477e-07
1.22215e-05
8.08246e-09
-2.03408e-07
1.23862e-05
-1.0994e-08
-1.53707e-07
1.25501e-05
-8.67088e-08
-7.71224e-08
1.2719e-05
-1.79832e-07
1.08625e-08
1.28399e-05
-3.07967e-07
1.87133e-07
1.29609e-05
-4.59557e-07
3.38535e-07
1.30921e-05
-6.27447e-07
4.96197e-07
1.32058e-05
-7.90221e-07
6.76533e-07
1.32987e-05
-1.02323e-06
9.30343e-07
1.33509e-05
-1.26519e-06
1.21302e-06
1.33132e-05
-1.53086e-06
1.56856e-06
1.31339e-05
-1.7455e-06
1.92476e-06
1.28887e-05
-1.91074e-06
2.15596e-06
1.25883e-05
-2.00272e-06
2.30312e-06
1.22442e-05
-1.98309e-06
2.32717e-06
1.18126e-05
-1.8201e-06
2.25172e-06
1.13053e-05
-1.39469e-06
1.90206e-06
1.09107e-05
-9.93594e-07
1.38815e-06
1.06987e-05
-3.33994e-07
5.45946e-07
1.06176e-05
2.23623e-07
-1.42523e-07
1.08224e-05
9.8379e-07
-1.18852e-06
1.1368e-05
1.5616e-06
-2.10725e-06
1.22113e-05
2.11398e-06
-2.9572e-06
1.30259e-05
2.32458e-06
-3.13925e-06
1.37474e-05
2.30603e-06
-3.02754e-06
1.43924e-05
2.36076e-06
-3.00568e-06
1.48519e-05
2.1053e-06
-2.56485e-06
1.53015e-05
2.00041e-06
-2.45004e-06
1.56319e-05
1.78712e-06
-2.11746e-06
1.59057e-05
1.541e-06
-1.81484e-06
1.61971e-05
1.27796e-06
-1.56936e-06
1.64393e-05
1.04403e-06
-1.28622e-06
1.66787e-05
7.09615e-07
-9.48957e-07
1.68771e-05
4.06176e-07
-6.04594e-07
1.71226e-05
9.58913e-08
-3.41424e-07
1.73848e-05
-1.87933e-07
-7.42087e-08
1.77123e-05
-5.5181e-07
2.24251e-07
1.80787e-05
-8.41196e-07
4.74782e-07
1.85825e-05
-1.21712e-06
7.13378e-07
1.91516e-05
-1.52542e-06
9.56336e-07
1.98615e-05
-1.89297e-06
1.18302e-06
2.06194e-05
-2.3829e-06
1.62503e-06
2.15318e-05
-2.87707e-06
1.96465e-06
2.24619e-05
-3.36946e-06
2.4394e-06
2.34566e-05
-4.08565e-06
3.09087e-06
2.44167e-05
-4.73439e-06
3.77435e-06
2.53491e-05
-5.50319e-06
4.57077e-06
2.61886e-05
-6.23981e-06
5.40031e-06
2.6958e-05
-6.91027e-06
6.14089e-06
2.76316e-05
-7.55059e-06
6.87699e-06
2.81088e-05
-8.00754e-06
7.53031e-06
2.85777e-05
-8.44776e-06
7.97886e-06
2.89234e-05
-8.64506e-06
8.2994e-06
2.90874e-05
-8.63613e-06
8.47212e-06
2.92276e-05
-8.60612e-06
8.46588e-06
2.92419e-05
-8.26873e-06
8.25445e-06
2.91872e-05
-8.02237e-06
8.0771e-06
2.9057e-05
-7.70269e-06
7.83284e-06
2.8977e-05
-7.40642e-06
7.48646e-06
2.87615e-05
-7.07544e-06
7.29086e-06
2.87163e-05
-6.84376e-06
6.88898e-06
2.85334e-05
-6.60139e-06
6.78431e-06
2.85023e-05
-6.32622e-06
6.35735e-06
2.83353e-05
-6.17225e-06
6.33926e-06
2.83151e-05
-6.07797e-06
6.09814e-06
2.82815e-05
-5.98216e-06
6.01577e-06
2.81976e-05
-6.00791e-06
6.09178e-06
2.81445e-05
-6.12858e-06
6.18171e-06
2.80168e-05
-6.15689e-06
6.2846e-06
2.79764e-05
-6.43591e-06
6.47627e-06
2.78324e-05
-6.52629e-06
6.67026e-06
2.77487e-05
-6.75098e-06
6.83472e-06
2.75568e-05
-6.95277e-06
7.14469e-06
2.74075e-05
-7.1217e-06
7.27093e-06
2.72959e-05
-7.43976e-06
7.55136e-06
2.72769e-05
-7.73578e-06
7.75482e-06
2.73167e-05
-7.93117e-06
7.89136e-06
2.73174e-05
-8.17965e-06
8.17891e-06
2.73456e-05
-8.27724e-06
8.24912e-06
2.74247e-05
-8.4936e-06
8.4145e-06
2.75646e-05
-8.51593e-06
8.37605e-06
2.77715e-05
-8.72831e-06
8.52133e-06
2.79013e-05
-8.71501e-06
8.58526e-06
2.80796e-05
-8.7726e-06
8.59431e-06
2.8119e-05
-8.65257e-06
8.61312e-06
2.80514e-05
-8.60579e-06
8.67342e-06
2.7957e-05
-8.39399e-06
8.48838e-06
2.76184e-05
-8.34653e-06
8.68509e-06
2.74486e-05
-8.17144e-06
8.3413e-06
2.70528e-05
-8.11121e-06
8.50701e-06
2.69264e-05
-8.12551e-06
8.25191e-06
2.65668e-05
-8.01192e-06
8.37146e-06
2.65137e-05
-7.90888e-06
7.96201e-06
2.63246e-05
-7.61338e-06
7.80251e-06
2.64892e-05
-7.31619e-06
7.15156e-06
2.66299e-05
-6.80417e-06
6.66343e-06
2.72263e-05
-6.15093e-06
5.55459e-06
2.76662e-05
-5.26223e-06
4.82234e-06
2.86123e-05
-4.38819e-06
3.44208e-06
2.93033e-05
-3.00121e-06
2.31019e-06
3.05463e-05
-2.09311e-06
8.50171e-07
3.13764e-05
-9.48291e-08
-7.35271e-07
3.27946e-05
9.55935e-07
-2.3742e-06
3.38147e-05
3.19957e-06
-4.21967e-06
3.51446e-05
4.5051e-06
-5.83495e-06
3.62804e-05
6.83014e-06
-7.96596e-06
3.71263e-05
8.51056e-06
-9.35651e-06
3.81024e-05
1.05676e-05
-1.15436e-05
3.81612e-05
1.25732e-05
-1.26321e-05
3.8804e-05
1.38047e-05
-1.44474e-05
3.82261e-05
1.58713e-05
-1.52934e-05
3.82304e-05
1.62947e-05
-1.6299e-05
3.78719e-05
1.77551e-05
-1.73967e-05
3.72355e-05
1.80584e-05
-1.74219e-05
3.74871e-05
1.81818e-05
-1.84334e-05
3.6801e-05
1.89554e-05
-1.82692e-05
3.69597e-05
1.82346e-05
-1.83934e-05
3.675e-05
1.86146e-05
-1.84049e-05
3.60131e-05
1.81342e-05
-1.73973e-05
3.59965e-05
1.7255e-05
-1.72383e-05
3.50145e-05
1.69994e-05
-1.60174e-05
3.44665e-05
1.55772e-05
-1.50293e-05
3.37177e-05
1.48345e-05
-1.40856e-05
3.26923e-05
1.36007e-05
-1.25753e-05
3.23614e-05
1.21184e-05
-1.17875e-05
3.10569e-05
1.15603e-05
-1.02559e-05
3.06164e-05
9.76822e-06
-9.3277e-06
2.97374e-05
9.29087e-06
-8.41183e-06
2.89021e-05
7.8829e-06
-7.04758e-06
2.835e-05
7.2319e-06
-6.67981e-06
2.73704e-05
6.15868e-06
-5.17908e-06
2.68249e-05
5.45887e-06
-4.91343e-06
2.58641e-05
4.54377e-06
-3.58295e-06
2.50229e-05
4.0265e-06
-3.18532e-06
2.4676e-05
2.8043e-06
-2.45736e-06
2.33589e-05
3.31461e-06
-1.9975e-06
2.34401e-05
1.38161e-06
-1.46288e-06
2.15742e-05
3.06745e-06
-1.20155e-06
2.18391e-05
4.15128e-07
-6.80011e-07
1.93542e-05
3.48267e-06
-9.97778e-07
1.96222e-05
4.14737e-07
-6.82685e-07
1.63683e-05
5.87082e-06
-2.61698e-06
1.67267e-05
1.99778e-06
-2.35611e-06
1.12687e-05
-1.05114e-05
1.59694e-05
1.34168e-05
-3.20723e-07
1.34146e-05
-1.65497e-07
1.3426e-05
-7.80227e-08
1.34599e-05
-7.06465e-08
1.35417e-05
-1.44726e-07
1.36588e-05
-2.30149e-07
1.37822e-05
-2.78634e-07
1.39039e-05
-3.04572e-07
1.39982e-05
-2.76536e-07
1.40696e-05
-2.38107e-07
1.41329e-05
-2.16058e-07
1.41809e-05
-1.7836e-07
1.42338e-05
-1.80644e-07
1.42917e-05
-1.64603e-07
1.43576e-05
-1.5215e-07
1.44382e-05
-1.49114e-07
1.45052e-05
-1.28456e-07
1.45744e-05
-1.31274e-07
1.46394e-05
-1.19209e-07
1.47057e-05
-1.04543e-07
1.47803e-05
-9.50329e-08
1.48697e-05
-7.09485e-08
1.49645e-05
-6.66702e-08
1.50319e-05
-8.07138e-08
1.50844e-05
-1.31956e-07
1.51311e-05
-1.76644e-07
1.51684e-05
-2.12143e-07
1.52065e-05
-2.22017e-07
1.52554e-05
-2.08765e-07
1.5301e-05
-1.80037e-07
1.53429e-05
-1.51332e-07
1.53935e-05
-1.26003e-07
1.54547e-05
-9.62712e-08
1.55205e-05
-5.69492e-08
1.55889e-05
-4.20154e-08
1.56672e-05
-3.41448e-08
1.57425e-05
-2.54915e-08
1.58334e-05
-3.71281e-08
1.59169e-05
-2.57067e-08
1.60055e-05
-4.06651e-08
1.60913e-05
-5.53047e-08
1.61631e-05
-8.679e-08
1.62406e-05
-1.26567e-07
1.63071e-05
-1.80822e-07
1.63631e-05
-2.2126e-07
1.64162e-05
-2.82813e-07
1.64589e-05
-3.21736e-07
1.6485e-05
-3.42273e-07
1.65186e-05
-3.68457e-07
1.65433e-05
-3.53463e-07
1.65729e-05
-3.20879e-07
1.66182e-05
-2.98407e-07
1.66756e-05
-2.22406e-07
1.67661e-05
-1.86839e-07
1.68562e-05
-1.49878e-07
1.69719e-05
-1.18204e-07
1.71189e-05
-1.38998e-07
1.72564e-05
-1.48503e-07
1.73971e-05
-2.27362e-07
1.75314e-05
-3.14116e-07
1.76682e-05
-4.44787e-07
1.77754e-05
-5.66752e-07
1.7901e-05
-7.5302e-07
1.7997e-05
-8.86279e-07
1.80779e-05
-1.10411e-06
1.81024e-05
-1.2897e-06
1.8065e-05
-1.49343e-06
1.79562e-05
-1.6367e-06
1.78032e-05
-1.75774e-06
1.75858e-05
-1.78531e-06
1.72903e-05
-1.68767e-06
1.69784e-05
-1.50819e-06
1.66648e-05
-1.0811e-06
1.6423e-05
-7.51758e-07
1.62262e-05
-1.37148e-07
1.60316e-05
4.18204e-07
1.60365e-05
9.78912e-07
1.61354e-05
1.46266e-06
1.63944e-05
1.85502e-06
1.67132e-05
2.00574e-06
1.70103e-05
2.0089e-06
1.73816e-05
1.98954e-06
1.76673e-05
1.81958e-06
1.80005e-05
1.66719e-06
1.83055e-05
1.48208e-06
1.86071e-05
1.23942e-06
1.89071e-05
9.77908e-07
1.9244e-05
7.07175e-07
1.95698e-05
3.83831e-07
1.99268e-05
4.91334e-08
2.03093e-05
-2.86631e-07
2.07672e-05
-6.45803e-07
2.1235e-05
-1.01961e-06
2.18055e-05
-1.41169e-06
2.24292e-05
-1.84081e-06
2.31144e-05
-2.21067e-06
2.3926e-05
-2.70447e-06
2.47354e-05
-3.19239e-06
2.56069e-05
-3.74855e-06
2.65088e-05
-4.27136e-06
2.73459e-05
-4.92272e-06
2.81916e-05
-5.58014e-06
2.89876e-05
-6.29914e-06
2.95928e-05
-6.84505e-06
3.01329e-05
-7.45037e-06
3.05079e-05
-7.92558e-06
3.07831e-05
-8.28269e-06
3.09014e-05
-8.56615e-06
3.09038e-05
-8.6474e-06
3.07954e-05
-8.52775e-06
3.05819e-05
-8.39265e-06
3.03492e-05
-8.03605e-06
3.00401e-05
-7.71326e-06
2.97642e-05
-7.42674e-06
2.94346e-05
-7.07684e-06
2.91473e-05
-6.78811e-06
2.88014e-05
-6.49786e-06
2.84668e-05
-6.26682e-06
2.82381e-05
-6.09744e-06
2.80046e-05
-5.93884e-06
2.78874e-05
-5.96068e-06
2.77495e-05
-5.84429e-06
2.76671e-05
-5.92551e-06
2.75392e-05
-6.00068e-06
2.75341e-05
-6.1518e-06
2.7367e-05
-6.26882e-06
2.7248e-05
-6.4073e-06
2.71557e-05
-6.65864e-06
2.70887e-05
-6.88575e-06
2.71772e-05
-7.21023e-06
2.72649e-05
-7.52745e-06
2.73217e-05
-7.79258e-06
2.74316e-05
-8.04114e-06
2.74816e-05
-8.22965e-06
2.76561e-05
-8.45168e-06
2.77396e-05
-8.57713e-06
2.79587e-05
-8.73503e-06
2.79345e-05
-8.70414e-06
2.79362e-05
-8.71666e-06
2.76631e-05
-8.4995e-06
2.72756e-05
-8.26513e-06
2.66245e-05
-7.9547e-06
2.60414e-05
-7.8108e-06
2.515e-05
-7.45521e-06
2.43904e-05
-7.41176e-06
2.34279e-05
-7.14878e-06
2.2626e-05
-7.32363e-06
2.18181e-05
-7.20402e-06
2.13625e-05
-7.45327e-06
2.11122e-05
-7.36304e-06
2.12892e-05
-7.49319e-06
2.16108e-05
-7.1258e-06
2.23244e-05
-6.86454e-06
2.29833e-05
-5.92114e-06
2.38694e-05
-5.27429e-06
2.49471e-05
-4.07882e-06
2.5816e-05
-2.96203e-06
2.72617e-05
-1.54056e-06
2.81795e-05
3.80958e-08
2.99474e-05
1.43169e-06
3.09624e-05
3.49009e-06
3.29086e-05
4.88402e-06
3.38948e-05
7.52428e-06
3.56194e-05
8.84304e-06
3.65642e-05
1.16285e-05
3.73624e-05
1.30064e-05
3.81882e-05
1.50454e-05
3.78369e-05
1.66461e-05
3.82755e-05
1.73165e-05
3.75056e-05
1.88282e-05
3.72639e-05
1.84234e-05
3.71745e-05
1.90448e-05
3.62737e-05
1.91355e-05
3.67835e-05
1.81047e-05
3.62226e-05
1.86951e-05
3.59877e-05
1.74899e-05
3.60871e-05
1.69e-05
3.52818e-05
1.63826e-05
3.54849e-05
1.46314e-05
3.45996e-05
1.44859e-05
3.42366e-05
1.24814e-05
3.39633e-05
1.18337e-05
3.30165e-05
1.0715e-05
3.25818e-05
9.72557e-06
3.16721e-05
8.79261e-06
3.08118e-05
8.09219e-06
3.05056e-05
6.4649e-06
2.91402e-05
6.82425e-06
2.9467e-05
4.21699e-06
2.77084e-05
5.78514e-06
2.80993e-05
2.41341e-06
2.62303e-05
5.18358e-06
2.67159e-05
8.95989e-07
2.49188e-05
4.8646e-06
2.51978e-05
1.36085e-07
2.32859e-05
5.39457e-06
2.30434e-05
6.57288e-07
2.18172e-05
7.09694e-06
2.15415e-05
2.27357e-06
9.86785e-06
2.29423e-05
2.0373e-05
-1.01205e-07
2.01047e-05
1.02834e-07
1.9936e-05
9.06681e-08
1.99075e-05
-4.21592e-08
1.99873e-05
-2.24463e-07
2.01089e-05
-3.5181e-07
2.02089e-05
-3.78572e-07
2.02865e-05
-3.822e-07
2.03344e-05
-3.24417e-07
2.03606e-05
-2.64356e-07
2.03822e-05
-2.37606e-07
2.03823e-05
-1.78525e-07
2.04043e-05
-2.02643e-07
2.04288e-05
-1.89113e-07
2.04619e-05
-1.8523e-07
2.05166e-05
-2.03845e-07
2.05556e-05
-1.6741e-07
2.06096e-05
-1.85239e-07
2.06501e-05
-1.59715e-07
2.06908e-05
-1.45325e-07
2.07406e-05
-1.44741e-07
2.07904e-05
-1.20772e-07
2.08546e-05
-1.30852e-07
2.08997e-05
-1.25897e-07
2.09289e-05
-1.61074e-07
2.09449e-05
-1.92729e-07
2.0957e-05
-2.2423e-07
2.09772e-05
-2.4222e-07
2.09959e-05
-2.27416e-07
2.10293e-05
-2.13443e-07
2.10523e-05
-1.74334e-07
2.10792e-05
-1.52896e-07
2.11149e-05
-1.31962e-07
2.11516e-05
-9.36715e-08
2.11991e-05
-8.9537e-08
2.12467e-05
-8.17023e-08
2.12969e-05
-7.56694e-08
2.13523e-05
-9.25763e-08
2.14174e-05
-9.07992e-08
2.1473e-05
-9.6232e-08
2.1538e-05
-1.20373e-07
2.15902e-05
-1.3899e-07
2.16301e-05
-1.66415e-07
2.16827e-05
-2.33413e-07
2.17098e-05
-2.48365e-07
2.17446e-05
-3.17638e-07
2.17719e-05
-3.49008e-07
2.17841e-05
-3.54457e-07
2.18041e-05
-3.88517e-07
2.1826e-05
-3.75378e-07
2.18393e-05
-3.3417e-07
2.18785e-05
-3.37594e-07
2.192e-05
-2.63862e-07
2.19838e-05
-2.50673e-07
2.20547e-05
-2.20817e-07
2.21286e-05
-1.92034e-07
2.22369e-05
-2.47287e-07
2.23331e-05
-2.44741e-07
2.24473e-05
-3.41522e-07
2.25459e-05
-4.12719e-07
2.26362e-05
-5.35125e-07
2.27397e-05
-6.7023e-07
2.28027e-05
-8.16016e-07
2.28677e-05
-9.51332e-07
2.29117e-05
-1.14805e-06
2.28986e-05
-1.27666e-06
2.28447e-05
-1.43949e-06
2.27507e-05
-1.54276e-06
2.25908e-05
-1.59783e-06
2.23883e-05
-1.58279e-06
2.21479e-05
-1.44724e-06
2.18954e-05
-1.25572e-06
2.16816e-05
-8.67299e-07
2.14595e-05
-5.29635e-07
2.1336e-05
-1.36609e-08
2.12226e-05
5.31581e-07
2.12107e-05
9.9079e-07
2.12727e-05
1.40071e-06
2.1385e-05
1.74272e-06
2.15159e-05
1.87482e-06
2.16242e-05
1.90055e-06
2.17816e-05
1.8322e-06
2.19252e-05
1.67598e-06
2.21016e-05
1.49077e-06
2.23104e-05
1.27332e-06
2.25646e-05
9.85227e-07
2.28227e-05
7.19788e-07
2.31424e-05
3.87454e-07
2.3508e-05
1.82399e-08
2.38968e-05
-3.39639e-07
2.43337e-05
-7.23523e-07
2.48453e-05
-1.15739e-06
2.53793e-05
-1.55367e-06
2.59898e-05
-2.02223e-06
2.66226e-05
-2.47354e-06
2.7326e-05
-2.91411e-06
2.80639e-05
-3.44231e-06
2.87941e-05
-3.92259e-06
2.9517e-05
-4.4715e-06
3.02778e-05
-5.03215e-06
3.09239e-05
-5.56878e-06
3.15517e-05
-6.20799e-06
3.1995e-05
-6.74241e-06
3.23338e-05
-7.18388e-06
3.25336e-05
-7.65012e-06
3.25243e-05
-7.91627e-06
3.24743e-05
-8.23275e-06
3.21974e-05
-8.28923e-06
3.18868e-05
-8.33684e-06
3.14498e-05
-8.0907e-06
3.09303e-05
-7.87313e-06
3.04331e-05
-7.53885e-06
2.99851e-05
-7.2653e-06
2.95155e-05
-6.95712e-06
2.90679e-05
-6.62922e-06
2.8619e-05
-6.33926e-06
2.81213e-05
-6.00013e-06
2.77457e-05
-5.8912e-06
2.74003e-05
-5.75211e-06
2.7197e-05
-5.73547e-06
2.69867e-05
-5.75046e-06
2.69615e-05
-5.81902e-06
2.68938e-05
-5.85781e-06
2.68838e-05
-5.99077e-06
2.68081e-05
-6.07601e-06
2.67344e-05
-6.19516e-06
2.67745e-05
-6.44742e-06
2.68138e-05
-6.69792e-06
2.69613e-05
-7.03323e-06
2.71011e-05
-7.35002e-06
2.71765e-05
-7.60287e-06
2.7312e-05
-7.92813e-06
2.74495e-05
-8.17865e-06
2.76116e-05
-8.39174e-06
2.76667e-05
-8.50674e-06
2.77005e-05
-8.61093e-06
2.7555e-05
-8.58951e-06
2.73229e-05
-8.47211e-06
2.68831e-05
-8.27681e-06
2.62155e-05
-7.83192e-06
2.52971e-05
-7.34668e-06
2.42009e-05
-6.85858e-06
2.29034e-05
-6.51328e-06
2.15224e-05
-6.07422e-06
1.99917e-05
-5.88102e-06
1.86046e-05
-5.76174e-06
1.72794e-05
-5.99836e-06
1.64224e-05
-6.34702e-06
1.60058e-05
-7.0367e-06
1.62475e-05
-7.60475e-06
1.6713e-05
-7.95871e-06
1.77114e-05
-8.12418e-06
1.83707e-05
-7.52388e-06
1.96485e-05
-7.19885e-06
2.03057e-05
-5.93157e-06
2.16406e-05
-5.41364e-06
2.22897e-05
-3.61117e-06
2.36509e-05
-2.90174e-06
2.45062e-05
-8.17197e-07
2.58807e-05
5.71697e-08
2.70681e-05
2.30272e-06
2.84901e-05
3.46201e-06
3.02349e-05
5.7795e-06
3.14248e-05
7.65313e-06
3.36311e-05
9.42207e-06
3.43973e-05
1.22403e-05
3.62164e-05
1.32263e-05
3.66867e-05
1.61757e-05
3.71454e-05
1.68579e-05
3.7687e-05
1.82866e-05
3.66844e-05
1.94261e-05
3.71e-05
1.86292e-05
3.63432e-05
1.98923e-05
3.57314e-05
1.87165e-05
3.62437e-05
1.81829e-05
3.5392e-05
1.83415e-05
3.58282e-05
1.64637e-05
3.55279e-05
1.66829e-05
3.54336e-05
1.47257e-05
3.57865e-05
1.41331e-05
3.50553e-05
1.32126e-05
3.48765e-05
1.20125e-05
3.48746e-05
1.07169e-05
3.39038e-05
1.06964e-05
3.4311e-05
8.38533e-06
3.26839e-05
9.71932e-06
3.3236e-05
5.91284e-06
3.15277e-05
8.53251e-06
3.18461e-05
3.89855e-06
3.03371e-05
7.29414e-06
3.05527e-05
2.19786e-06
2.93578e-05
6.37845e-06
2.90083e-05
1.24546e-06
2.81091e-05
5.76385e-06
2.72551e-05
9.90055e-07
2.68707e-05
5.77903e-06
2.5823e-05
1.70495e-06
2.63557e-05
6.56421e-06
2.51229e-05
3.50635e-06
8.11595e-06
2.68749e-05
2.52153e-05
-1.08416e-07
2.52755e-05
4.25616e-08
2.53675e-05
-1.31861e-09
2.54561e-05
-1.30728e-07
2.55449e-05
-3.1324e-07
2.56145e-05
-4.21434e-07
2.56555e-05
-4.19564e-07
2.56851e-05
-4.11815e-07
2.57005e-05
-3.39854e-07
2.57166e-05
-2.80401e-07
2.5729e-05
-2.5002e-07
2.57178e-05
-1.67316e-07
2.57217e-05
-2.06569e-07
2.57129e-05
-1.80275e-07
2.5714e-05
-1.86326e-07
2.5735e-05
-2.24847e-07
2.57474e-05
-1.79875e-07
2.57886e-05
-2.26376e-07
2.58201e-05
-1.91203e-07
2.58548e-05
-1.80029e-07
2.5899e-05
-1.8894e-07
2.59241e-05
-1.45869e-07
2.59652e-05
-1.7203e-07
2.59931e-05
-1.53735e-07
2.59992e-05
-1.67212e-07
2.60075e-05
-2.01036e-07
2.59903e-05
-2.06995e-07
2.59876e-05
-2.39507e-07
2.59886e-05
-2.28459e-07
2.59938e-05
-2.18668e-07
2.60184e-05
-1.98847e-07
2.60344e-05
-1.68983e-07
2.60707e-05
-1.6822e-07
2.60951e-05
-1.18025e-07
2.6137e-05
-1.31466e-07
2.61669e-05
-1.11612e-07
2.61951e-05
-1.0385e-07
2.62293e-05
-1.26829e-07
2.62515e-05
-1.13009e-07
2.62869e-05
-1.31618e-07
2.632e-05
-1.53406e-07
2.63519e-05
-1.70978e-07
2.63856e-05
-2.00099e-07
2.64205e-05
-2.68271e-07
2.64402e-05
-2.68132e-07
2.64764e-05
-3.53786e-07
2.64815e-05
-3.5416e-07
2.64923e-05
-3.65228e-07
2.65015e-05
-3.97695e-07
2.64938e-05
-3.67707e-07
2.65068e-05
-3.4718e-07
2.65146e-05
-3.45396e-07
2.65371e-05
-2.86323e-07
2.65811e-05
-2.94683e-07
2.66219e-05
-2.61606e-07
2.66781e-05
-2.4824e-07
2.67476e-05
-3.1675e-07
2.68224e-05
-3.19543e-07
2.68858e-05
-4.04995e-07
2.69754e-05
-5.02296e-07
2.70198e-05
-5.79541e-07
2.70895e-05
-7.39858e-07
2.71245e-05
-8.51017e-07
2.71366e-05
-9.63498e-07
2.71361e-05
-1.14749e-06
2.70903e-05
-1.23092e-06
2.69915e-05
-1.34062e-06
2.68718e-05
-1.42311e-06
2.67021e-05
-1.42806e-06
2.64903e-05
-1.37107e-06
2.63061e-05
-1.26298e-06
2.60683e-05
-1.01797e-06
2.59168e-05
-7.15722e-07
2.57626e-05
-3.755e-07
2.56682e-05
8.0757e-08
2.56503e-05
5.49478e-07
2.56816e-05
9.5945e-07
2.57578e-05
1.32455e-06
2.58936e-05
1.6069e-06
2.60291e-05
1.73932e-06
2.61536e-05
1.7761e-06
2.62857e-05
1.70006e-06
2.64272e-05
1.53452e-06
2.6581e-05
1.33691e-06
2.67605e-05
1.09383e-06
2.69807e-05
7.65066e-07
2.72236e-05
4.76859e-07
2.74924e-05
1.18639e-07
2.78451e-05
-3.34436e-07
2.81971e-05
-6.91631e-07
2.86101e-05
-1.13654e-06
2.90605e-05
-1.60776e-06
2.95577e-05
-2.05083e-06
3.0069e-05
-2.53362e-06
3.05992e-05
-3.00368e-06
3.11726e-05
-3.48756e-06
3.17062e-05
-3.97583e-06
3.22515e-05
-4.4679e-06
3.27553e-05
-4.97532e-06
3.32042e-05
-5.48105e-06
3.35763e-05
-5.94088e-06