/*--------------------------------*- C++ -*----------------------------------*\
| =========                 |                                                 |
| \\      /  F ield         | OpenFOAM: The Open Source CFD Toolbox           |
|  \\    /   O peration     | Version:  2.4.0                                 |
|   \\  /    A nd           | Web:      www.OpenFOAM.org                      |
|    \\/     M anipulation  |                                                 |
\*---------------------------------------------------------------------------*/
FoamFile
{
    version     2.0;
    format      ascii;
    class       volVectorField;
    location    "1.28";
    object      U;
}
// * * * * * * * * * * * * * * * * * * * * * * * * * * * * * * * * * * * * * //

dimensions      [0 1 -1 0 0 0 0];

internalField   nonuniform List<vector> 
8800
(
(8.09256 0.387861 0)
(5.45253 0.24259 0)
(3.90801 0.0432112 0)
(3.16083 -0.0156665 0)
(2.79515 -0.0184077 0)
(2.60775 -0.0109801 0)
(2.4729 -0.00536492 0)
(2.39241 -0.00284737 0)
(2.3072 -0.00118684 0)
(2.26418 -0.000653969 0)
(2.19918 -0.000251673 0)
(2.18767 -0.00143957 0)
(2.12467 0.00146214 0)
(2.12314 -0.000705645 0)
(2.05779 0.000524959 0)
(2.06599 -3.69119e-05 0)
(1.99885 0.000228514 0)
(2.00808 -0.00255711 0)
(2.00255 0.0105857 0)
(1.79004 -0.0679268 0)
(10.0813 0.837923 0)
(9.67026 0.868203 0)
(8.85626 0.507465 0)
(8.10301 0.261385 0)
(7.47029 0.13768 0)
(7.0361 0.0825989 0)
(6.66425 0.0547638 0)
(6.43704 0.0391998 0)
(6.18687 0.0307666 0)
(6.06726 0.0246843 0)
(5.87662 0.0192128 0)
(5.84017 0.0137194 0)
(5.65545 0.0198949 0)
(5.67119 0.0123088 0)
(5.48368 0.0162406 0)
(5.51565 0.011734 0)
(5.34864 0.0185584 0)
(5.356 -0.00652716 0)
(5.31029 0.0273217 0)
(5.1686 -0.0423272 0)
(10.0465 0.629189 0)
(10.6891 0.864888 0)
(10.8332 0.60244 0)
(10.7324 0.372608 0)
(10.4128 0.255218 0)
(10.14 0.197253 0)
(9.77931 0.153882 0)
(9.56379 0.121609 0)
(9.24536 0.0952977 0)
(9.11107 0.0780209 0)
(8.84022 0.0591163 0)
(8.8017 0.0461327 0)
(8.52846 0.0512302 0)
(8.56883 0.0354143 0)
(8.29669 0.0422359 0)
(8.34581 0.0300603 0)
(8.12211 0.0460158 0)
(8.12626 -0.00169854 0)
(8.03263 0.0353206 0)
(7.96489 -0.0984557 0)
(9.95306 0.454027 0)
(10.6357 0.709141 0)
(11.1009 0.545608 0)
(11.4469 0.352731 0)
(11.4769 0.258117 0)
(11.5479 0.231903 0)
(11.4044 0.198788 0)
(11.3998 0.17383 0)
(11.2024 0.151348 0)
(11.1844 0.126224 0)
(10.9643 0.105811 0)
(10.9928 0.0865039 0)
(10.7288 0.091231 0)
(10.8093 0.0643768 0)
(10.5458 0.08027 0)
(10.5886 0.0530333 0)
(10.401 0.0808463 0)
(10.3619 0.0181557 0)
(10.2867 0.049312 0)
(10.2316 -0.115756 0)
(9.9442 0.33731 0)
(10.5067 0.576725 0)
(10.955 0.462435 0)
(11.4022 0.293958 0)
(11.552 0.208061 0)
(11.7689 0.18936 0)
(11.7914 0.182631 0)
(11.9176 0.166019 0)
(11.9046 0.146014 0)
(11.9976 0.143913 0)
(11.9278 0.10158 0)
(12.0441 0.103682 0)
(11.9134 0.103304 0)
(12.0354 0.0804688 0)
(11.9289 0.0923319 0)
(11.9495 0.0776587 0)
(11.9181 0.0967599 0)
(11.8522 0.0471498 0)
(11.85 0.0574818 0)
(11.8069 -0.033541 0)
(9.99125 0.24935 0)
(10.3758 0.454983 0)
(10.836 0.378019 0)
(11.2452 0.253997 0)
(11.4746 0.153905 0)
(11.6347 0.162843 0)
(11.7752 0.130402 0)
(11.8334 0.143589 0)
(11.984 0.123788 0)
(12.0523 0.112212 0)
(12.0915 0.100596 0)
(12.219 0.0810426 0)
(12.2207 0.0959978 0)
(12.3139 0.0592034 0)
(12.3625 0.0949716 0)
(12.4074 0.0678983 0)
(12.4485 0.0778851 0)
(12.4713 0.0942824 0)
(12.5165 0.0483525 0)
(12.5042 -0.00606842 0)
(9.96411 0.167441 0)
(10.3644 0.363657 0)
(10.6894 0.285689 0)
(11.1428 0.204307 0)
(11.3866 0.133629 0)
(11.5524 0.0966265 0)
(11.7391 0.127327 0)
(11.6977 0.097967 0)
(11.8949 0.0752895 0)
(11.9421 0.13391 0)
(12.0623 0.0292309 0)
(12.1391 0.0952577 0)
(12.195 0.0592217 0)
(12.2925 0.0681553 0)
(12.3198 0.0309374 0)
(12.385 0.0990297 0)
(12.5063 0.0425647 0)
(12.4883 0.0671998 0)
(12.5977 0.104549 0)
(12.5877 0.152693 0)
(10.0104 0.106457 0)
(10.2295 0.257482 0)
(10.7269 0.204812 0)
(10.9926 0.161884 0)
(11.3193 0.064806 0)
(11.5553 0.10292 0)
(11.5411 0.0481235 0)
(11.8006 0.123332 0)
(11.721 0.022649 0)
(11.8929 0.0857854 0)
(11.9824 0.0371595 0)
(12.0134 0.0695759 0)
(12.1827 0.0306798 0)
(12.1974 0.063119 0)
(12.3114 0.035657 0)
(12.2831 0.0569461 0)
(12.4409 -0.000660679 0)
(12.4571 0.150574 0)
(12.4749 -0.0109975 0)
(12.6077 0.186748 0)
(10.0125 0.0615235 0)
(10.2521 0.154156 0)
(10.5682 0.117932 0)
(11.0699 0.107306 0)
(11.1944 0.0409177 0)
(11.4682 0.0369022 0)
(11.5693 0.0683725 0)
(11.6794 0.0234592 0)
(11.8285 0.0449302 0)
(11.7437 0.0653376 0)
(11.9147 -0.00877996 0)
(12.051 0.0440923 0)
(12.0731 0.0267808 0)
(12.1879 0.0229273 0)
(12.21 0.0159191 0)
(12.3802 0.0575657 0)
(12.2551 0.0134362 0)
(12.464 0.00618436 0)
(12.5306 0.0770025 0)
(12.3225 -0.015471 0)
(9.97862 0.0105326 0)
(10.2197 0.0650141 0)
(10.6128 0.0277364 0)
(10.9338 0.04319 0)
(11.3537 0.0125533 0)
(11.3378 0.0290618 0)
(11.5346 -0.0214969 0)
(11.7597 0.040583 0)
(11.6577 -0.000718694 0)
(11.8706 0.0409329 0)
(11.9056 -0.0243089 0)
(11.9115 0.013696 0)
(12.1029 0.0121784 0)
(12.1653 0.0153941 0)
(12.1732 0.00279397 0)
(12.2469 0.0175556 0)
(12.4577 -0.0185975 0)
(12.3579 0.0384472 0)
(12.3793 -0.0390777 0)
(12.4716 0.0310494 0)
(10.0197 -0.0204674 0)
(10.2169 -0.0462493 0)
(10.5756 -0.0486404 0)
(10.9995 -0.0379555 0)
(11.2226 -0.00517565 0)
(11.4639 0.00376301 0)
(11.5277 -0.0355586 0)
(11.6259 -0.0394654 0)
(11.768 0.00961145 0)
(11.8408 -0.00288522 0)
(11.8677 -0.0203088 0)
(11.9627 -0.00804087 0)
(12.0921 -0.0224445 0)
(12.1101 0.000889434 0)
(12.2383 -0.00720805 0)
(12.3006 -0.0173976 0)
(12.3325 -0.0279209 0)
(12.4206 -0.0213427 0)
(12.4424 0.00966672 0)
(12.286 -0.0435135 0)
(9.98568 -0.073065 0)
(10.2596 -0.130021 0)
(10.6284 -0.143 0)
(10.9747 -0.0871805 0)
(11.2429 -0.0447905 0)
(11.4558 -0.0335243 0)
(11.6395 -0.0649424 0)
(11.6511 -0.0515254 0)
(11.707 -0.0525564 0)
(11.8701 -0.00850435 0)
(11.9094 -0.0351665 0)
(12.0353 -0.05602 0)
(12.0482 -0.0100319 0)
(12.194 -0.0308409 0)
(12.2208 -0.0341956 0)
(12.3248 -0.0319918 0)
(12.3902 -0.0505597 0)
(12.3607 -0.0269841 0)
(12.4336 -0.0586352 0)
(12.4384 -0.0185126 0)
(10.0087 -0.117703 0)
(10.2619 -0.248948 0)
(10.6827 -0.208461 0)
(11.0139 -0.149788 0)
(11.2982 -0.0751402 0)
(11.5299 -0.083117 0)
(11.6342 -0.086222 0)
(11.7068 -0.0863046 0)
(11.7744 -0.0523413 0)
(11.8389 -0.0602557 0)
(12.0285 -0.0631918 0)
(12.0428 -0.0468932 0)
(12.0967 -0.0481301 0)
(12.2162 -0.052769 0)
(12.3062 -0.0397044 0)
(12.3479 -0.0650435 0)
(12.3672 -0.0548631 0)
(12.4828 -0.0722156 0)
(12.5061 -0.0648182 0)
(12.4263 -0.0787475 0)
(10.0274 -0.180531 0)
(10.2957 -0.342874 0)
(10.7448 -0.295812 0)
(11.0942 -0.201844 0)
(11.415 -0.123091 0)
(11.5649 -0.115303 0)
(11.6872 -0.112555 0)
(11.7595 -0.111269 0)
(11.8428 -0.0867191 0)
(11.9567 -0.0935032 0)
(12.0786 -0.0738343 0)
(12.095 -0.0811932 0)
(12.1928 -0.0492727 0)
(12.2894 -0.0812551 0)
(12.3414 -0.0635357 0)
(12.3939 -0.0694179 0)
(12.4844 -0.0856109 0)
(12.5266 -0.101849 0)
(12.5553 -0.10264 0)
(12.5027 -0.0806938 0)
(10.067 -0.256152 0)
(10.3053 -0.450139 0)
(10.8991 -0.377501 0)
(11.1858 -0.252343 0)
(11.5399 -0.159114 0)
(11.5985 -0.151739 0)
(11.8079 -0.143469 0)
(11.8194 -0.143257 0)
(11.985 -0.112419 0)
(12.0077 -0.12389 0)
(12.1586 -0.0977783 0)
(12.1369 -0.0873014 0)
(12.2716 -0.0788278 0)
(12.2862 -0.103764 0)
(12.3841 -0.0623877 0)
(12.3765 -0.106053 0)
(12.4653 -0.0978837 0)
(12.4478 -0.12854 0)
(12.4711 -0.112318 0)
(12.3627 -0.136665 0)
(10.0605 -0.350674 0)
(10.3833 -0.55887 0)
(11.065 -0.467694 0)
(11.2953 -0.295365 0)
(11.666 -0.205901 0)
(11.6582 -0.191831 0)
(11.897 -0.182617 0)
(11.8094 -0.168231 0)
(11.9951 -0.143245 0)
(11.8877 -0.142549 0)
(12.0467 -0.110776 0)
(11.9039 -0.105846 0)
(12.051 -0.0925552 0)
(11.9063 -0.107171 0)
(12.0183 -0.0809709 0)
(11.864 -0.106594 0)
(11.9463 -0.0975662 0)
(11.7767 -0.136613 0)
(11.7839 -0.118942 0)
(11.5671 -0.157916 0)
(10.01 -0.458885 0)
(10.5569 -0.70263 0)
(11.1841 -0.549086 0)
(11.3579 -0.35257 0)
(11.5699 -0.258963 0)
(11.4447 -0.228661 0)
(11.5088 -0.202936 0)
(11.28 -0.175265 0)
(11.3187 -0.145489 0)
(11.0555 -0.132997 0)
(11.0984 -0.10534 0)
(10.8323 -0.091741 0)
(10.8965 -0.0803206 0)
(10.6195 -0.0905405 0)
(10.6991 -0.0631094 0)
(10.4196 -0.0869974 0)
(10.4827 -0.0768959 0)
(10.1916 -0.114555 0)
(10.2015 -0.0896262 0)
(9.87358 -0.161684 0)
(10.0638 -0.633162 0)
(10.6552 -0.86125 0)
(10.8744 -0.602712 0)
(10.6801 -0.373668 0)
(10.4676 -0.254201 0)
(10.0755 -0.197017 0)
(9.84894 -0.155408 0)
(9.47809 -0.121903 0)
(9.33579 -0.0932144 0)
(9.00774 -0.0802094 0)
(8.94737 -0.0594432 0)
(8.66759 -0.0503098 0)
(8.66914 -0.0442581 0)
(8.39562 -0.0499687 0)
(8.43995 -0.0367135 0)
(8.16409 -0.0496246 0)
(8.20744 -0.0494873 0)
(7.90982 -0.0692535 0)
(7.9166 -0.0680139 0)
(7.57475 -0.0892039 0)
(10.0842 -0.838875 0)
(9.65583 -0.867085 0)
(8.87385 -0.507264 0)
(8.07698 -0.261981 0)
(7.49913 -0.137247 0)
(7.00104 -0.082477 0)
(6.70285 -0.0551873 0)
(6.38783 -0.0403206 0)
(6.23951 -0.0287639 0)
(6.00442 -0.0264189 0)
(5.94131 -0.0189982 0)
(5.75378 -0.0166059 0)
(5.74213 -0.0149376 0)
(5.55618 -0.0209134 0)
(5.57202 -0.0140453 0)
(5.37983 -0.0219746 0)
(5.39252 -0.0231471 0)
(5.16931 -0.0326279 0)
(5.16099 -0.0364924 0)
(4.87131 -0.0184426 0)
(8.09126 -0.388093 0)
(5.44884 -0.24238 0)
(3.912 -0.0429432 0)
(3.15537 0.0152784 0)
(2.8025 0.018466 0)
(2.59696 0.0110452 0)
(2.48571 0.00535576 0)
(2.37535 0.0023573 0)
(2.32367 0.00205106 0)
(2.2441 -3.58762e-05 0)
(2.21897 0.000609041 0)
(2.15669 0.000372401 0)
(2.15126 0.000393236 0)
(2.08316 -0.00179086 0)
(2.07933 0.000251038 0)
(2.00804 -0.00201866 0)
(1.99756 -0.00158323 0)
(1.90436 -0.00386541 0)
(1.86838 -0.00371494 0)
(1.72139 0.0111732 0)
(2.26816 -0.155263 0)
(2.39594 -0.0680204 0)
(2.49227 -0.0114126 0)
(2.57812 0.00825308 0)
(2.66216 0.00286394 0)
(2.74071 -0.011389 0)
(2.8257 -0.0250457 0)
(2.90327 -0.0336381 0)
(2.98087 -0.0374888 0)
(3.04089 -0.0368279 0)
(3.09707 -0.0381064 0)
(3.1342 -0.03483 0)
(3.17759 -0.0338089 0)
(3.2082 -0.0237401 0)
(3.25436 -0.0145475 0)
(3.2903 -0.00562209 0)
(3.34811 -0.00597947 0)
(3.39418 -0.00625928 0)
(3.45392 -0.00599954 0)
(3.48906 0.00103099 0)
(3.54137 0.00915379 0)
(3.56356 0.0285524 0)
(3.60143 0.0339454 0)
(3.65728 0.0141741 0)
(3.72456 -0.00901034 0)
(3.77198 -0.0292488 0)
(3.82189 -0.0483848 0)
(3.85063 -0.053783 0)
(3.86621 -0.043103 0)
(3.88658 -0.036501 0)
(3.92006 -0.0284278 0)
(3.94067 -0.0180168 0)
(3.97171 -0.000740884 0)
(3.99495 0.0157239 0)
(4.04208 0.0213198 0)
(4.08951 0.029555 0)
(4.13187 0.0290643 0)
(4.19206 0.0340198 0)
(4.21912 0.0332545 0)
(4.27973 0.0327221 0)
(4.30621 0.0262741 0)
(4.36921 0.00915616 0)
(4.39203 -0.00160559 0)
(4.45161 -0.0262552 0)
(4.46544 -0.0449453 0)
(4.51723 -0.0670117 0)
(4.52663 -0.0847246 0)
(4.56403 -0.101515 0)
(4.56042 -0.10422 0)
(4.59905 -0.107016 0)
(4.5751 -0.091684 0)
(4.62586 -0.0727403 0)
(4.61914 -0.0432857 0)
(4.66437 -0.0148652 0)
(4.7165 -0.000679949 0)
(4.76843 0.0224206 0)
(4.83203 0.0328455 0)
(4.90273 0.0246787 0)
(4.98798 -0.00353357 0)
(5.02686 -0.0421637 0)
(5.12315 -0.0914518 0)
(5.1506 -0.146751 0)
(5.22753 -0.193244 0)
(5.23271 -0.246522 0)
(5.31308 -0.314652 0)
(5.31478 -0.398962 0)
(5.35422 -0.484274 0)
(5.33736 -0.569868 0)
(5.25532 -0.659757 0)
(5.19459 -0.716247 0)
(4.97775 -0.716122 0)
(4.98088 -0.644493 0)
(4.60602 -0.519409 0)
(4.61491 -0.410697 0)
(4.20546 -0.1875 0)
(4.32617 0.0217009 0)
(4.1953 0.310948 0)
(4.33743 0.516904 0)
(4.59389 0.734811 0)
(4.94882 0.819204 0)
(5.37718 0.801897 0)
(5.59241 0.831195 0)
(5.91762 0.738285 0)
(6.0256 0.71453 0)
(6.23243 0.637702 0)
(6.31401 0.547919 0)
(6.44767 0.460889 0)
(6.53455 0.402241 0)
(6.64955 0.283781 0)
(6.71889 0.181626 0)
(6.81871 0.0991073 0)
(6.86958 0.010325 0)
(7.05615 -0.116771 0)
(7.09695 -0.194948 0)
(7.3216 -0.315127 0)
(7.50534 -0.40179 0)
(7.73733 -0.485854 0)
(8.06369 -0.642367 0)
(8.37848 -0.790557 0)
(8.73868 -0.914854 0)
(9.13443 -1.14966 0)
(9.60675 -1.36938 0)
(9.89311 -1.62769 0)
(10.3469 -1.90773 0)
(10.6016 -2.15468 0)
(11.0068 -2.38799 0)
(11.1144 -2.59699 0)
(11.4033 -2.75556 0)
(11.49 -2.86793 0)
(11.6441 -2.86695 0)
(11.6797 -2.92237 0)
(11.6847 -2.79827 0)
(11.7318 -2.73877 0)
(11.637 -2.61942 0)
(11.6598 -2.53074 0)
(11.5118 -2.44511 0)
(11.5248 -2.31585 0)
(11.44 -2.26276 0)
(11.4112 -2.11564 0)
(11.3588 -2.09657 0)
(11.3199 -2.04111 0)
(11.2975 -2.00854 0)
(11.3062 -1.96659 0)
(11.2578 -2.04402 0)
(11.2141 -2.05264 0)
(11.2055 -2.15609 0)
(11.1401 -2.21876 0)
(11.1089 -2.22422 0)
(11.0778 -2.34605 0)
(10.9606 -2.34922 0)
(10.9329 -2.51404 0)
(10.8758 -2.56988 0)
(10.9153 -2.63605 0)
(10.888 -2.67478 0)
(10.9293 -2.74556 0)
(10.9546 -2.77694 0)
(10.9595 -2.7938 0)
(11.0596 -2.82938 0)
(11.1811 -2.89405 0)
(11.1527 -2.90272 0)
(11.3448 -2.93817 0)
(11.171 -2.95155 0)
(11.3065 -2.87942 0)
(11.0167 -2.95148 0)
(11.0017 -2.77123 0)
(10.8536 -2.89599 0)
(10.6225 -2.74268 0)
(10.7133 -2.83517 0)
(10.3301 -2.73914 0)
(10.6034 -2.61907 0)
(10.2508 -2.50551 0)
(10.6553 -2.28958 0)
(10.4812 -1.97076 0)
(11.0259 -1.73922 0)
(10.9674 -1.36451 0)
(11.642 -0.857699 0)
(11.7054 -0.634684 0)
(12.4093 0.150209 0)
(12.5778 0.365765 0)
(13.4299 1.29293 0)
(13.4491 1.50852 0)
(14.6409 2.44896 0)
(14.1662 2.86415 0)
(15.5942 3.5852 0)
(14.7812 4.21129 0)
(15.8306 4.62783 0)
(15.2842 5.3082 0)
(15.2619 5.38031 0)
(15.5177 6.01774 0)
(14.6537 5.88866 0)
(15.2976 6.13662 0)
(14.6588 6.39342 0)
(14.7298 5.9429 0)
(14.9729 6.40893 0)
(14.3024 5.97706 0)
(14.5981 5.72265 0)
(14.1429 5.73548 0)
(13.8117 5.09412 0)
(13.746 5.01702 0)
(13.0769 4.32982 0)
(13.0389 4.02662 0)
(12.7209 3.81504 0)
(12.0556 3.04241 0)
(12.3581 3.15608 0)
(11.3878 2.35192 0)
(11.6886 2.34907 0)
(11.009 1.91154 0)
(10.78 1.62276 0)
(10.8084 1.52314 0)
(9.64039 0.975728 0)
(10.6727 1.11543 0)
(8.62562 0.668746 0)
(10.5256 0.610574 0)
(7.69736 0.594565 0)
(10.1124 0.160537 0)
(6.81109 0.730207 0)
(9.33584 0.101372 0)
(5.81865 1.47747 0)
(8.28777 0.466553 0)
(5.50821 3.96271 0)
(5.3434 -0.0974057 0)
(5.38008 -0.0723196 0)
(5.38908 -0.0471646 0)
(5.3797 -0.0395037 0)
(5.3956 -0.0504496 0)
(5.42323 -0.0685377 0)
(5.4783 -0.0799892 0)
(5.52824 -0.0867878 0)
(5.58416 -0.0834888 0)
(5.61681 -0.0748791 0)
(5.65273 -0.0671365 0)
(5.66614 -0.0553151 0)
(5.69696 -0.0534384 0)
(5.70251 -0.0495028 0)
(5.73621 -0.0440141 0)
(5.7482 -0.0420306 0)
(5.78905 -0.0365026 0)
(5.80953 -0.0351977 0)
(5.85013 -0.0318756 0)
(5.87293 -0.0267526 0)
(5.9055 -0.0224779 0)
(5.92433 -0.0146689 0)
(5.94749 -0.0119886 0)
(5.9734 -0.0197607 0)
(6.01228 -0.038099 0)
(6.04438 -0.053889 0)
(6.07197 -0.0668723 0)
(6.09789 -0.0719045 0)
(6.10732 -0.0683254 0)
(6.12478 -0.0560172 0)
(6.1326 -0.0474474 0)
(6.1577 -0.0352847 0)
(6.16641 -0.0253 0)
(6.19134 -0.0106089 0)
(6.20761 -0.00233806 0)
(6.24598 -2.79288e-05 0)
(6.27221 0.00427634 0)
(6.31624 0.00078882 0)
(6.34271 0.00361059 0)
(6.3804 -0.001084 0)
(6.40705 -0.00530155 0)
(6.44809 -0.0170983 0)
(6.46654 -0.0303377 0)
(6.51669 -0.0488586 0)
(6.51846 -0.0638406 0)
(6.57335 -0.08426 0)
(6.5638 -0.100452 0)
(6.6135 -0.107946 0)
(6.59907 -0.118178 0)
(6.63591 -0.115794 0)
(6.6267 -0.105406 0)
(6.65157 -0.09485 0)
(6.66458 -0.0698736 0)
(6.67825 -0.0528114 0)
(6.73452 -0.0398225 0)
(6.74435 -0.0246071 0)
(6.8319 -0.0272743 0)
(6.83785 -0.0322005 0)
(6.94562 -0.0552954 0)
(6.94665 -0.0850956 0)
(7.06053 -0.122436 0)
(7.06368 -0.163195 0)
(7.1567 -0.223293 0)
(7.15738 -0.265886 0)
(7.22553 -0.343047 0)
(7.23393 -0.411104 0)
(7.24741 -0.499668 0)
(7.26405 -0.564545 0)
(7.17048 -0.62029 0)
(7.1919 -0.638074 0)
(6.98315 -0.605193 0)
(7.0129 -0.562945 0)
(6.71597 -0.428867 0)
(6.72903 -0.312465 0)
(6.51486 -0.0817064 0)
(6.46009 0.0943347 0)
(6.36862 0.298369 0)
(6.36632 0.468895 0)
(6.40658 0.60184 0)
(6.53899 0.67043 0)
(6.71922 0.66501 0)
(6.85035 0.673468 0)
(7.05482 0.620479 0)
(7.10093 0.575899 0)
(7.31346 0.522189 0)
(7.35563 0.461134 0)
(7.52909 0.369795 0)
(7.61846 0.293065 0)
(7.76613 0.195306 0)
(7.88246 0.0909248 0)
(8.06565 -0.0241887 0)
(8.15419 -0.1251 0)
(8.42709 -0.250078 0)
(8.52611 -0.367776 0)
(8.85375 -0.495106 0)
(9.02766 -0.607036 0)
(9.38877 -0.740313 0)
(9.6444 -0.900003 0)
(10.0828 -1.07442 0)
(10.3293 -1.24067 0)
(10.7851 -1.46566 0)
(11.0663 -1.69394 0)
(11.4746 -1.94909 0)
(11.7089 -2.1598 0)
(11.9815 -2.36239 0)
(12.1888 -2.59003 0)
(12.2614 -2.70174 0)
(12.4112 -2.84908 0)
(12.3665 -2.9091 0)
(12.4104 -2.90849 0)
(12.2364 -2.89148 0)
(12.2848 -2.77803 0)
(12.0015 -2.6668 0)
(12.0406 -2.56886 0)
(11.7972 -2.46379 0)
(11.7444 -2.31255 0)
(11.5996 -2.2485 0)
(11.4423 -2.13422 0)
(11.3699 -2.10588 0)
(11.1911 -2.01272 0)
(11.212 -2.00614 0)
(11.0737 -1.94989 0)
(11.12 -1.98372 0)
(10.9567 -2.04061 0)
(11.0614 -2.03796 0)
(10.9394 -2.13253 0)
(10.948 -2.11974 0)
(10.8259 -2.2582 0)
(10.8828 -2.2942 0)
(10.7588 -2.42266 0)
(10.8934 -2.47581 0)
(10.8958 -2.57796 0)
(10.944 -2.6016 0)
(10.9373 -2.73819 0)
(10.9829 -2.74488 0)
(11.1255 -2.8549 0)
(11.0369 -2.83625 0)
(11.3079 -2.93161 0)
(11.0602 -2.88669 0)
(11.3331 -2.94561 0)
(10.8994 -2.83873 0)
(11.0141 -2.79311 0)
(10.3882 -2.74833 0)
(10.3924 -2.64351 0)
(9.75538 -2.67984 0)
(9.63886 -2.52307 0)
(9.02626 -2.64768 0)
(8.87389 -2.47273 0)
(8.3676 -2.5636 0)
(8.49185 -2.42019 0)
(8.10624 -2.40228 0)
(8.70032 -2.22814 0)
(8.35621 -2.16419 0)
(9.29005 -1.75151 0)
(8.8995 -1.64753 0)
(10.0628 -1.10781 0)
(9.63499 -0.877605 0)
(10.9365 -0.299979 0)
(10.5882 0.122246 0)
(11.8636 0.681056 0)
(11.8207 1.34504 0)
(12.8441 1.81052 0)
(13.3097 2.59605 0)
(13.6904 3.14335 0)
(14.8047 3.96791 0)
(14.3177 4.34371 0)
(15.7086 5.17957 0)
(14.7608 5.50551 0)
(15.5838 5.79156 0)
(15.1924 6.3858 0)
(14.6665 5.97839 0)
(15.4233 6.46236 0)
(14.1956 6.33874 0)
(14.8767 5.97753 0)
(14.6897 6.36761 0)
(14.1624 5.7863 0)
(14.7712 5.73191 0)
(14.015 5.44224 0)
(14.2174 4.98715 0)
(14.1149 5.00465 0)
(13.402 4.05079 0)
(13.9873 4.07812 0)
(13.0576 3.54312 0)
(13.269 3.15075 0)
(12.972 2.99099 0)
(12.0703 2.44341 0)
(13.017 2.30712 0)
(10.8759 1.91226 0)
(12.9905 1.60542 0)
(9.99858 1.63758 0)
(12.7679 0.761368 0)
(9.19667 1.50563 0)
(12.3037 0.264685 0)
(8.64798 1.45356 0)
(11.6735 -0.0151608 0)
(8.21587 1.54732 0)
(10.7973 0.0170761 0)
(7.86082 2.16361 0)
(9.85328 0.499618 0)
(7.97312 3.70846 0)
(8.03645 -0.0642379 0)
(8.03187 -0.00496488 0)
(8.02737 0.0076652 0)
(7.98631 -0.0155258 0)
(7.98739 -0.0587634 0)
(7.99519 -0.0972726 0)
(8.04153 -0.111176 0)
(8.08111 -0.112788 0)
(8.12589 -0.100137 0)
(8.14761 -0.0839245 0)
(8.16763 -0.0787309 0)
(8.15926 -0.0643138 0)
(8.17298 -0.0657903 0)
(8.16318 -0.0609876 0)
(8.18347 -0.0582688 0)
(8.18843 -0.0598996 0)
(8.21038 -0.0526719 0)
(8.23061 -0.0537945 0)
(8.24825 -0.0498781 0)
(8.27464 -0.0438248 0)
(8.28236 -0.0432825 0)
(8.30773 -0.0368475 0)
(8.31325 -0.0361549 0)
(8.33674 -0.0382347 0)
(8.34832 -0.0473744 0)
(8.37662 -0.0617391 0)
(8.38418 -0.0738437 0)
(8.4058 -0.0780294 0)
(8.40973 -0.0757793 0)
(8.41906 -0.0696404 0)
(8.42494 -0.056278 0)
(8.43119 -0.0480175 0)
(8.44331 -0.0385727 0)
(8.44757 -0.0275275 0)
(8.46508 -0.0239834 0)
(8.47662 -0.0217362 0)
(8.50301 -0.0193924 0)
(8.5247 -0.0259992 0)
(8.54785 -0.0223882 0)
(8.57745 -0.0263619 0)
(8.58751 -0.0319569 0)
(8.62806 -0.0378412 0)
(8.62641 -0.0497205 0)
(8.67203 -0.0676919 0)
(8.66137 -0.0799312 0)
(8.70891 -0.100058 0)
(8.69064 -0.114824 0)
(8.73147 -0.119475 0)
(8.72189 -0.129312 0)
(8.7341 -0.12658 0)
(8.75258 -0.111597 0)
(8.73939 -0.111017 0)
(8.77724 -0.0848037 0)
(8.76402 -0.0744079 0)
(8.82331 -0.064662 0)
(8.80775 -0.0532217 0)
(8.89554 -0.0651753 0)
(8.87803 -0.0699352 0)
(8.97009 -0.0969204 0)
(8.97098 -0.116222 0)
(9.04849 -0.165542 0)
(9.0545 -0.197322 0)
(9.12785 -0.258451 0)
(9.11455 -0.304386 0)
(9.16968 -0.367837 0)
(9.16068 -0.430996 0)
(9.16853 -0.485902 0)
(9.165 -0.534435 0)
(9.10232 -0.565896 0)
(9.07972 -0.566598 0)
(8.95132 -0.52943 0)
(8.9071 -0.481029 0)
(8.7452 -0.336942 0)
(8.68577 -0.227213 0)
(8.57439 -0.0413395 0)
(8.50931 0.144497 0)
(8.42817 0.303477 0)
(8.45631 0.450732 0)
(8.43126 0.582843 0)
(8.53669 0.624811 0)
(8.56756 0.636105 0)
(8.67233 0.62005 0)
(8.75175 0.563907 0)
(8.79997 0.506056 0)
(8.88804 0.438878 0)
(8.99496 0.355409 0)
(9.03544 0.271649 0)
(9.23066 0.168822 0)
(9.2827 0.0672397 0)
(9.49051 -0.0414812 0)
(9.61166 -0.162919 0)
(9.83057 -0.299614 0)
(9.99183 -0.418674 0)
(10.2639 -0.554857 0)
(10.4651 -0.706186 0)
(10.7665 -0.826857 0)
(11.0273 -1.0031 0)
(11.3378 -1.14919 0)
(11.6387 -1.34095 0)
(11.9266 -1.52281 0)
(12.2361 -1.71222 0)
(12.4788 -1.91689 0)
(12.7857 -2.14175 0)
(12.8467 -2.29914 0)
(13.0698 -2.49904 0)
(13.0284 -2.61935 0)
(13.0983 -2.74556 0)
(12.9337 -2.81845 0)
(12.9234 -2.85034 0)
(12.6549 -2.80277 0)
(12.545 -2.73015 0)
(12.2802 -2.62508 0)
(12.079 -2.51425 0)
(11.9238 -2.41937 0)
(11.7005 -2.28287 0)
(11.6017 -2.19967 0)
(11.3009 -2.08662 0)
(11.2335 -2.04184 0)
(10.9839 -1.98515 0)
(10.9699 -1.93337 0)
(10.7689 -1.95798 0)
(10.8284 -1.95264 0)
(10.7039 -2.00114 0)
(10.7599 -1.98698 0)
(10.7448 -2.06954 0)
(10.6788 -2.0521 0)
(10.6818 -2.1693 0)
(10.6625 -2.21399 0)
(10.7715 -2.31884 0)
(10.727 -2.38579 0)
(10.8822 -2.51459 0)
(10.8206 -2.57291 0)
(10.9691 -2.75406 0)
(10.8981 -2.73673 0)
(11.1053 -2.87043 0)
(10.9914 -2.81812 0)
(11.1291 -2.95517 0)
(10.9383 -2.82039 0)
(10.9493 -2.89935 0)
(10.6804 -2.70711 0)
(10.4385 -2.67357 0)
(10.0003 -2.46318 0)
(9.46429 -2.42492 0)
(8.9415 -2.22312 0)
(8.29964 -2.2057 0)
(7.72419 -2.12232 0)
(7.05337 -2.14064 0)
(6.62129 -2.20425 0)
(6.30433 -2.25736 0)
(6.26685 -2.35474 0)
(6.45545 -2.44835 0)
(6.73276 -2.40668 0)
(7.21024 -2.32703 0)
(7.35932 -2.12845 0)
(8.16974 -1.79707 0)
(8.02847 -1.60203 0)
(9.03362 -1.06431 0)
(8.77766 -0.809359 0)
(9.95889 -0.147361 0)
(9.49666 0.132276 0)
(11.1313 0.943155 0)
(10.2901 1.28683 0)
(12.4156 2.20204 0)
(11.6055 2.54127 0)
(13.494 3.509 0)
(13.3221 4.08365 0)
(14.1308 4.58404 0)
(14.959 5.51675 0)
(14.232 5.60749 0)
(15.684 6.2303 0)
(14.4684 6.51657 0)
(14.8505 6.17159 0)
(15.1428 6.72452 0)
(13.7395 6.1436 0)
(15.0322 6.09245 0)
(14.0305 6.1086 0)
(14.1861 5.50721 0)
(14.6436 5.66135 0)
(13.6562 4.83698 0)
(14.7157 4.85723 0)
(13.891 4.52926 0)
(13.894 3.87958 0)
(14.3958 3.82292 0)
(12.9365 3.35919 0)
(14.8891 3.06636 0)
(11.943 2.96832 0)
(14.9221 2.11519 0)
(11.1517 2.66555 0)
(14.63 1.211 0)
(10.52 2.278 0)
(14.0601 0.690583 0)
(10.193 1.96616 0)
(13.4062 0.221351 0)
(9.84637 1.71097 0)
(12.5889 0.0473925 0)
(9.54034 1.79033 0)
(11.7955 0.328007 0)
(9.42921 2.2538 0)
(11.0879 1.12165 0)
(9.55606 3.01357 0)
(10.3199 -0.0391723 0)
(10.2865 0.04171 0)
(10.2213 0.0410034 0)
(10.1605 -0.000839457 0)
(10.1552 -0.0629403 0)
(10.1766 -0.114283 0)
(10.2123 -0.127477 0)
(10.2561 -0.135692 0)
(10.2789 -0.11848 0)
(10.3006 -0.0937492 0)
(10.3131 -0.084367 0)
(10.3009 -0.0573178 0)
(10.3112 -0.0639188 0)
(10.2834 -0.0616922 0)
(10.292 -0.0587613 0)
(10.284 -0.0731838 0)
(10.2874 -0.0585875 0)
(10.3067 -0.0694975 0)
(10.3086 -0.0598374 0)
(10.3405 -0.0536489 0)
(10.3408 -0.0537189 0)
(10.3673 -0.0416054 0)
(10.3666 -0.0494676 0)
(10.3844 -0.0419489 0)
(10.3873 -0.0527183 0)
(10.3942 -0.0593268 0)
(10.4098 -0.0667417 0)
(10.3993 -0.0777556 0)
(10.4197 -0.0725147 0)
(10.4033 -0.0741006 0)
(10.4183 -0.0643278 0)
(10.4113 -0.0548359 0)
(10.4294 -0.0507717 0)
(10.4256 -0.0362106 0)
(10.4455 -0.0341777 0)
(10.4507 -0.0306102 0)
(10.4622 -0.0279405 0)
(10.4863 -0.0310905 0)
(10.483 -0.0367223 0)
(10.5154 -0.0356083 0)
(10.5039 -0.0455117 0)
(10.5428 -0.054119 0)
(10.5229 -0.0550906 0)
(10.5773 -0.0817793 0)
(10.5453 -0.0811688 0)
(10.6027 -0.103332 0)
(10.5815 -0.113738 0)
(10.6017 -0.114949 0)
(10.6148 -0.125353 0)
(10.5958 -0.127076 0)
(10.6217 -0.112964 0)
(10.6063 -0.117509 0)
(10.6141 -0.0992209 0)
(10.6266 -0.0933932 0)
(10.6391 -0.0867404 0)
(10.6497 -0.0720276 0)
(10.6884 -0.0956407 0)
(10.6998 -0.0883162 0)
(10.7446 -0.120739 0)
(10.756 -0.147596 0)
(10.8067 -0.173891 0)
(10.8032 -0.232947 0)
(10.858 -0.268618 0)
(10.8399 -0.311123 0)
(10.863 -0.38178 0)
(10.8486 -0.410542 0)
(10.8429 -0.464625 0)
(10.7979 -0.500972 0)
(10.7689 -0.511871 0)
(10.6902 -0.510802 0)
(10.622 -0.467039 0)
(10.538 -0.398501 0)
(10.4366 -0.282139 0)
(10.3732 -0.159069 0)
(10.2978 -0.00221709 0)
(10.2635 0.163176 0)
(10.1977 0.313545 0)
(10.2539 0.434664 0)
(10.235 0.545993 0)
(10.3381 0.600009 0)
(10.379 0.618121 0)
(10.4607 0.596016 0)
(10.5379 0.543326 0)
(10.607 0.479551 0)
(10.6535 0.405153 0)
(10.7763 0.295257 0)
(10.8107 0.210233 0)
(10.9505 0.0945821 0)
(11.06 -0.0380977 0)
(11.1936 -0.152633 0)
(11.3328 -0.290458 0)
(11.5347 -0.443273 0)
(11.673 -0.575546 0)
(11.9337 -0.732779 0)
(12.0725 -0.883188 0)
(12.3636 -1.03675 0)
(12.5269 -1.20202 0)
(12.7929 -1.37094 0)
(12.9663 -1.53199 0)
(13.222 -1.72172 0)
(13.3262 -1.87139 0)
(13.5507 -2.07651 0)
(13.5466 -2.23314 0)
(13.639 -2.37862 0)
(13.5559 -2.50903 0)
(13.4753 -2.57359 0)
(13.3364 -2.69477 0)
(13.107 -2.67739 0)
(12.9372 -2.70758 0)
(12.5897 -2.61448 0)
(12.3984 -2.53395 0)
(12.0197 -2.43251 0)
(11.93 -2.3538 0)
(11.5972 -2.25097 0)
(11.5905 -2.16361 0)
(11.3024 -2.07767 0)
(11.2389 -1.94538 0)
(11.0398 -1.90563 0)
(10.9699 -1.83952 0)
(10.8387 -1.88417 0)
(10.7465 -1.88942 0)
(10.7867 -1.96318 0)
(10.6643 -1.92489 0)
(10.7258 -2.01537 0)
(10.5692 -2.01209 0)
(10.6885 -2.10575 0)
(10.55 -2.1418 0)
(10.7181 -2.24884 0)
(10.7074 -2.34652 0)
(10.7966 -2.49266 0)
(10.8042 -2.52587 0)
(10.8661 -2.7142 0)
(10.9126 -2.69266 0)
(10.8803 -2.84398 0)
(10.9218 -2.78484 0)
(10.8101 -2.9237 0)
(10.7961 -2.78828 0)
(10.582 -2.84007 0)
(10.4286 -2.59875 0)
(9.95981 -2.46053 0)
(9.4865 -2.16376 0)
(8.76381 -2.04263 0)
(7.99733 -1.82387 0)
(7.24678 -1.74358 0)
(6.4431 -1.56002 0)
(5.59933 -1.56513 0)
(4.84659 -1.64047 0)
(4.36582 -1.8428 0)
(4.5375 -2.22536 0)
(4.48169 -2.5713 0)
(5.39201 -2.71928 0)
(5.28146 -2.93241 0)
(6.38908 -2.61158 0)
(6.08949 -2.68432 0)
(7.38922 -2.08849 0)
(6.75258 -2.06576 0)
(8.25105 -1.34068 0)
(7.55353 -1.14898 0)
(8.98796 -0.483294 0)
(8.50687 -0.146057 0)
(9.57927 0.501625 0)
(9.69246 1.02608 0)
(10.0174 1.54596 0)
(11.1335 2.4212 0)
(10.7559 2.56974 0)
(12.6996 3.88513 0)
(11.9099 3.95232 0)
(13.9493 4.97129 0)
(13.6049 5.56143 0)
(14.0566 5.67718 0)
(15.2082 6.5672 0)
(13.6782 6.3294 0)
(15.1818 6.49249 0)
(14.2521 6.68452 0)
(13.7337 6.00377 0)
(14.8753 6.23419 0)
(13.1325 5.56789 0)
(14.6342 5.48837 0)
(13.7332 5.17218 0)
(13.5189 4.52162 0)
(14.9298 4.52341 0)
(12.8562 4.15846 0)
(15.5452 3.47122 0)
(12.1626 3.80175 0)
(15.7519 2.53674 0)
(11.865 3.63049 0)
(15.6505 1.80274 0)
(11.5606 3.14173 0)
(15.1798 1.29637 0)
(11.5147 2.62575 0)
(14.4427 0.830361 0)
(11.1965 2.20455 0)
(13.7443 0.69322 0)
(10.9433 1.96347 0)
(12.9777 0.628611 0)
(10.7468 1.85578 0)
(12.3776 0.815967 0)
(10.6156 2.07195 0)
(11.9832 1.35767 0)
(10.6314 2.38065 0)
(11.8875 -0.0375871 0)
(11.8476 -0.0106537 0)
(11.768 -0.0380958 0)
(11.7115 -0.0632206 0)
(11.7099 -0.109786 0)
(11.7518 -0.139845 0)
(11.7806 -0.138939 0)
(11.8237 -0.148547 0)
(11.8393 -0.129176 0)
(11.8394 -0.110479 0)
(11.8537 -0.101394 0)
(11.8217 -0.0653053 0)
(11.8345 -0.0784635 0)
(11.8045 -0.0656358 0)
(11.8035 -0.0628287 0)
(11.7983 -0.0789211 0)
(11.785 -0.0610688 0)
(11.8144 -0.078834 0)
(11.7964 -0.0725505 0)
(11.8464 -0.0655359 0)
(11.8324 -0.0748414 0)
(11.8662 -0.0596703 0)
(11.8733 -0.0652442 0)
(11.8663 -0.0668991 0)
(11.891 -0.0618949 0)
(11.8573 -0.0779196 0)
(11.8832 -0.075428 0)
(11.8603 -0.0837248 0)
(11.8722 -0.0839123 0)
(11.866 -0.0763438 0)
(11.8696 -0.0730369 0)
(11.8625 -0.0598822 0)
(11.8751 -0.0619664 0)
(11.8594 -0.0414191 0)
(11.8719 -0.0511535 0)
(11.8681 -0.0457099 0)
(11.8786 -0.0407409 0)
(11.8997 -0.0543374 0)
(11.9007 -0.0436371 0)
(11.9381 -0.0524727 0)
(11.9196 -0.0591956 0)
(11.9623 -0.0629037 0)
(11.9243 -0.0719465 0)
(11.9621 -0.0974458 0)
(11.923 -0.0925278 0)
(11.9463 -0.12799 0)
(11.9361 -0.1285 0)
(11.9367 -0.12801 0)
(11.9499 -0.145422 0)
(11.9615 -0.127384 0)
(11.961 -0.120583 0)
(12.0006 -0.117865 0)
(11.9709 -0.094541 0)
(12.0203 -0.100392 0)
(11.9951 -0.090446 0)
(12.014 -0.0858447 0)
(12.0048 -0.108928 0)
(12.0232 -0.118896 0)
(12.0171 -0.135551 0)
(12.0377 -0.178127 0)
(12.0382 -0.196419 0)
(12.0566 -0.244193 0)
(12.0605 -0.28514 0)
(12.0605 -0.312772 0)
(12.0494 -0.369605 0)
(12.026 -0.398703 0)
(12.0199 -0.427528 0)
(11.9424 -0.455862 0)
(11.941 -0.462035 0)
(11.8406 -0.436447 0)
(11.8028 -0.414567 0)
(11.7018 -0.328841 0)
(11.6372 -0.240315 0)
(11.5548 -0.128651 0)
(11.5178 0.0156798 0)
(11.482 0.154367 0)
(11.4816 0.281786 0)
(11.5263 0.402209 0)
(11.5846 0.490977 0)
(11.6693 0.541219 0)
(11.7837 0.563292 0)
(11.8438 0.549445 0)
(11.9754 0.498407 0)
(12.0526 0.436214 0)
(12.1279 0.355325 0)
(12.2274 0.239115 0)
(12.333 0.129952 0)
(12.3838 0.0153918 0)
(12.5578 -0.143602 0)
(12.6187 -0.266556 0)
(12.7849 -0.402281 0)
(12.89 -0.558017 0)
(13.046 -0.710174 0)
(13.184 -0.86607 0)
(13.3191 -1.01979 0)
(13.4666 -1.18371 0)
(13.5865 -1.34073 0)
(13.707 -1.49755 0)
(13.8112 -1.65899 0)
(13.8819 -1.81591 0)
(13.9196 -1.97149 0)
(13.9339 -2.1227 0)
(13.8634 -2.22333 0)
(13.7974 -2.35692 0)
(13.5782 -2.38451 0)
(13.4763 -2.46489 0)
(13.2046 -2.48285 0)
(12.9991 -2.47906 0)
(12.703 -2.45206 0)
(12.4506 -2.37044 0)
(12.1562 -2.27586 0)
(11.982 -2.25167 0)
(11.7989 -2.1768 0)
(11.6051 -2.12869 0)
(11.4984 -2.0411 0)
(11.2754 -1.94023 0)
(11.2427 -1.87274 0)
(11.0437 -1.78877 0)
(11.0976 -1.83689 0)
(10.9352 -1.82964 0)
(11.008 -1.8652 0)
(10.8815 -1.88202 0)
(10.8929 -1.91033 0)
(10.7007 -1.91109 0)
(10.7421 -1.99737 0)
(10.7031 -2.02483 0)
(10.6974 -2.16475 0)
(10.7604 -2.25415 0)
(10.7294 -2.40722 0)
(10.7731 -2.45792 0)
(10.6538 -2.60382 0)
(10.7405 -2.62628 0)
(10.6117 -2.78341 0)
(10.6327 -2.75372 0)
(10.4784 -2.84438 0)
(10.4134 -2.71913 0)
(10.154 -2.71933 0)
(9.84886 -2.48245 0)
(9.40347 -2.28176 0)
(8.77104 -1.94284 0)
(8.07883 -1.66316 0)
(7.12887 -1.33608 0)
(6.19517 -1.15462 0)
(5.16127 -0.937827 0)
(4.34874 -0.864557 0)
(3.17027 -0.860958 0)
(2.89329 -1.20131 0)
(2.63114 -1.92063 0)
(3.19117 -2.46151 0)
(3.28639 -3.06958 0)
(4.1072 -3.1403 0)