/*--------------------------------*- C++ -*----------------------------------*\
| =========                 |                                                 |
| \\      /  F ield         | OpenFOAM: The Open Source CFD Toolbox           |
|  \\    /   O peration     | Version:  2.4.0                                 |
|   \\  /    A nd           | Web:      www.OpenFOAM.org                      |
|    \\/     M anipulation  |                                                 |
\*---------------------------------------------------------------------------*/
FoamFile
{
    version     2.0;
    format      ascii;
    class       volScalarField;
    location    "1.92";
    object      p;
}
// * * * * * * * * * * * * * * * * * * * * * * * * * * * * * * * * * * * * * //

dimensions      [0 2 -2 0 0 0 0];

internalField   nonuniform List<scalar> 
8800
(
71.1458
58.7851
51.3776
47.8591
45.9688
44.565
43.3546
42.2892
41.2405
40.2544
39.3509
38.4155
37.4767
36.6539
35.7829
34.9812
34.2065
33.5071
32.7432
31.9349
68.0351
58.4302
51.5472
47.973
46.0294
44.5899
43.361
42.2908
41.2392
40.2495
39.3498
38.4142
37.4721
36.6532
35.7829
34.9783
34.2104
33.5011
32.7438
31.848
66.0713
58.5028
52.1519
48.3488
46.1985
44.6666
43.4072
42.324
41.2638
40.2653
39.3622
38.4184
37.4722
36.653
35.7834
34.9745
34.2228
33.4997
32.7569
31.8113
64.5353
58.5592
52.7449
48.7716
46.3834
44.7508
43.4724
42.3766
41.3131
40.3038
39.3929
38.4322
37.4865
36.6547
35.7898
34.9697
34.2529
33.5262
32.892
31.8292
63.283
58.5293
53.2292
49.1794
46.5528
44.8132
43.5257
42.4274
41.3721
40.3567
39.4297
38.4522
37.5088
36.6573
35.7975
34.967
34.2774
33.5872
33.0087
31.8768
62.2938
58.4322
53.6053
49.5255
46.7059
44.8538
43.5606
42.4618
41.429
40.4082
39.4701
38.4732
37.5325
36.6568
35.7988
34.9658
34.2861
33.6077
33.1169
31.9425
61.5382
58.3167
53.8797
49.8076
46.845
44.8775
43.5746
42.4877
41.4741
40.4528
39.4997
38.4951
37.5501
36.6574
35.7963
34.9557
34.2673
33.5912
33.1512
32.5067
60.9825
58.2205
54.0597
50.0244
46.9636
44.9036
43.565
42.5112
41.5016
40.4916
39.5179
38.5189
37.552
36.667
35.774
34.9576
34.207
33.5364
32.9397
32.9864
60.6216
58.1493
54.1709
50.1724
47.0525
44.9204
43.5551
42.5261
41.5224
40.5171
39.5294
38.5331
37.5617
36.6659
35.7682
34.9404
34.1756
33.4993
32.9816
33.5294
60.4442
58.1119
54.2242
50.248
47.097
44.9313
43.5486
42.5279
41.5357
40.5301
39.538
38.5385
37.5674
36.6601
35.7618
34.9313
34.1591
33.4867
33.0431
33.6475
60.4394
58.117
54.2203
50.2509
47.0967
44.936
43.5446
42.5321
41.5367
40.5339
39.5332
38.5395
37.5686
36.6587
35.7591
34.9277
34.1537
33.4837
33.0593
33.7407
60.6136
58.1593
54.1641
50.1776
47.0529
44.9319
43.5521
42.5192
41.5272
40.5242
39.5221
38.5358
37.5706
36.6583
35.7583
34.934
34.1568
33.4882
33.0654
33.8219
60.9676
58.2367
54.0482
50.0329
46.9651
44.923
43.5578
42.5035
41.5073
40.5052
39.5022
38.5241
37.5723
36.6576
35.766
34.9373
34.1688
33.5002
33.0595
33.7911
61.518
58.3364
53.8671
49.8187
46.8376
44.9053
43.5657
42.4773
41.4751
40.477
39.4744
38.5098
37.5654
36.6609
35.7696
34.9562
34.1894
33.5183
33.0389
33.6774
62.2745
58.4491
53.6009
49.5342
46.6962
44.8778
43.5589
42.4401
41.4387
40.4378
39.4388
38.4838
37.5614
36.6567
35.7806
34.9747
34.2169
33.5575
33.0224
33.4612
63.2589
58.5451
53.2355
49.1833
46.5398
44.8356
43.5365
42.3914
41.3888
40.3912
39.3986
38.457
37.5525
36.652
35.7881
34.9912
34.2624
33.598
33.0461
33.1783
64.5079
58.5712
52.7592
48.7752
46.3678
44.7713
43.4913
42.3314
41.3349
40.3438
39.3592
38.4271
37.5447
36.6442
35.7964
35.0059
34.3016
33.6433
33.1027
32.8905
66.0453
58.5075
52.1719
48.3504
46.1828
44.6852
43.432
42.2747
41.2861
40.3051
39.3316
38.4083
37.5384
36.6406
35.804
35.0159
34.3323
33.6769
33.1623
32.753
68.0126
58.4285
51.5685
47.975
46.0162
44.6059
43.3861
42.2432
41.2612
40.2875
39.3222
38.4032
37.5376
36.643
35.8101
35.0253
34.346
33.6957
33.1587
32.6774
71.1273
58.7819
51.3985
47.8605
45.9576
44.5802
43.3776
42.2444
41.2629
40.2885
39.3259
38.4062
37.5392
36.6449
35.8138
35.029
34.3488
33.6997
33.1605
32.8018
32.0992
32.0544
31.895
31.7958
31.797
31.8532
31.9158
31.9635
31.9868
31.9697
31.9081
31.8201
31.7255
31.6556
31.63
31.6441
31.6894
31.7441
31.8078
31.8834
31.9542
31.9992
31.9825
31.8865
31.7241
31.5149
31.2719
31.0005
30.7168
30.4369
30.1692
29.9462
29.7626
29.6603
29.6484
29.7108
29.8795
30.1507
30.5053
30.9352
31.3987
31.7801
31.997
32.0964
32.1385
32.0041
31.6899
31.134
30.5536
30.1006
29.8138
29.7679
29.8605
30.0961
30.4965
31.0703
31.8393
32.8199
34.0628
35.5006
36.9268
38.1726
38.9222
38.9799
38.3289
36.8522
34.6
31.7718
28.6262
25.4066
22.3182
19.4642
16.9057
14.6735
12.7325
11.121
9.91682
9.36049
9.3008
9.72296
10.573
11.5621
12.5751
13.5091
14.4405
15.3279
16.1203
17.1489
18.0836
19.0713
20.2712
21.2233
22.3538
23.4317
24.1984
25.2533
25.9502
26.8121
27.7919
28.3213
29.2346
29.9851
30.8517
31.8454
32.6314
33.4863
34.0909
34.7145
35.0412
35.1883
35.1108
34.506
33.8105
32.6688
31.2705
29.7455
27.8706
26.1825
24.3415
22.5638
21.084
19.4213
18.2549
17.259
16.2281
15.8178
15.4152
15.1497
15.4701
15.6816
16.125
17.1547
18.0582
19.1744
20.8016
22.5482
24.6016
27.0708
29.8658
32.8605
35.9573
39.0163
41.9384
44.6924
47.2687
49.6585
51.8125
53.6466
55.4671
57.2577
58.7508
60.0008
60.9696
62.0203
62.5793
62.257
61.2243
59.9281
58.9149
57.7383
56.1879
53.942
50.9358
46.8235
41.7916
35.9533
29.9232
24.2357
19.4715
16.0249
13.9251
12.7663
12.4874
13.134
13.9155
15.2
17.3156
20.2459
23.2019
26.2323
29.0465
31.6035
34.2251
36.1905
37.9075
39.3811
40.2912
40.5729
40.7
40.4677
39.7119
38.9511
37.652
36.2051
34.617
32.7548
30.4867
27.2026
23.3148
8.67151
31.743
31.7471
31.7927
31.8528
31.8945
31.9234
31.9376
31.9357
31.9255
31.8889
31.83
31.7651
31.6946
31.6528
31.6493
31.6682
31.7214
31.7775
31.8344
31.8952
31.9251
31.9339
31.8978
31.8077
31.6628
31.4755
31.2479
31.0095
30.7456
30.4821
30.2433
30.0289
29.8787
29.7877
29.785
29.8632
30.0228
30.256
30.5804
30.9302
31.3045
31.6401
31.8685
31.9961
32.0059
31.8721
31.6049
31.1474
30.5657
30.1284
29.9217
29.9133
30.0228
30.2415
30.6373
31.2483
32.0699
33.0311
34.1711
35.462
36.6736
37.6764
38.2556
38.2483
37.6211
36.3014
34.2791
31.717
28.8413
25.8574
22.9514
20.2461
17.8236
15.7215
13.8842
12.4595
11.4047
10.6994
10.5662
10.8336
11.507
12.3327
13.2392
14.1061
14.9612
15.8443
16.5925
17.5584
18.5162
19.4127
20.538
21.5434
22.5112
23.5953
24.3875
25.2505
26.1268
26.7806
27.576
28.1468
28.8545
29.5988
30.1664
30.8832
31.4248
32.0023
32.4324
32.6813
32.8272
32.7067
32.4072
31.7981
30.9763
29.9483
28.7447
27.414
25.8236
24.2713
22.741
21.2586
20.0613
18.8059
17.8942
17.3226
16.6827
16.452
16.4354
16.5015
17.0101
17.5959
18.2748
19.3353
20.5653
21.919
23.6512
25.5833
27.7207
30.0962
32.7071
35.3351
37.9762
40.5734
42.9819
45.328
47.5481
49.6266
51.5772
53.2268
54.9302
56.694
58.2094
59.3929
60.3069
61.3393
61.7029
61.2537
60.1955
58.8097
57.7916
56.6212
55.0344
52.8286
49.6205
45.4873
40.4162
34.5079
28.1599
22.1049
17.4718
14.0197
12.1698
11.0329
10.6394
11.3375
12.1849
13.2833
15.3953
18.3315
21.5944
24.9141
27.748
30.6219
33.4225
35.66
37.5143
39.1088
39.7898
40.3052
40.486
40.0969
39.3959
38.1617
36.6894
35.0669
32.8823
30.3048
27.4098
21.9069
16.3996
3.38453
31.8581
31.8624
31.8648
31.9499
32.0202
32.034
31.9757
31.889
31.8333
31.7835
31.7342
31.7047
31.6704
31.6578
31.6725
31.6949
31.7528
31.8047
31.8464
31.8898
31.8848
31.8652
31.8118
31.7135
31.5833
31.4221
31.2193
31.0065
30.778
30.5357
30.3352
30.1392
30.0132
29.9397
29.9446
30.0153
30.1714
30.3664
30.6298
30.9215
31.2028
31.4964
31.6858
31.7951
31.7758
31.6541
31.4237
31.1233
30.6839
30.3082
30.1218
30.1363
30.2907
30.4889
30.8406
31.3874
32.1634
33.0847
34.094
35.2166
36.2217
37.0072
37.4721
37.396
36.7682
35.593
33.7883
31.4722
28.8829
26.1497
23.4887
20.95
18.6407
16.7148
14.9881
13.6579
12.6362
11.9795
11.8501
12.0056
12.4964
13.2199
14.0247
14.8189
15.6553
16.4941
17.2536
18.1703
19.1037
19.9963
20.9814
22.0154
22.9247
23.8612
24.7317
25.4454
26.2462
26.8215
27.4381
28.0227
28.5108
29.0696
29.4777
29.9361
30.2839
30.6114
30.8019
30.7843
30.7244
30.3516
29.901
29.2464
28.3408
27.4212
26.2594
25.0985
23.7881
22.3392
21.0952
19.8785
18.9038
18.1086
17.4667
17.1963
17.0197
17.0261
17.3816
17.8276
18.5707
19.5484
20.5291
21.8223
23.1297
24.6877
26.5385
28.5031
30.6333
32.8138
35.0999
37.344
39.5313
41.7608
43.8131
45.7169
47.6852
49.5372
51.215
52.7581
54.3541
55.9639
57.5019
58.6575
59.5605
60.5066
60.7802
60.3316
59.1397
57.7669
56.7254
55.7221
54.2119
52.0949
48.6738
44.2649
39.1888
32.9968
26.3674
20.8553
16.204
12.9529
11.215
10.1572
9.98554
10.3173
11.119
12.1824
14.1477
17.2175
20.4937
23.8738
27.1182
30.1626
32.8157
35.3132
37.4959
38.981
39.7772
40.225
40.5159
40.2288
39.1374
37.8878
36.2329
34.0039
31.5518
28.1346
24.818
18.5148
11.7978
2.43929
31.1909
31.3528
31.8874
32.2813
32.3758
32.2784
32.056
31.8237
31.7133
31.6688
31.6268
31.6227
31.6355
31.6823
31.7295
31.7465
31.8027
31.8357
31.8477
31.8641
31.8292
31.7885
31.7213
31.6122
31.5022
31.3656
31.1959
31.0106
30.8225
30.6072
30.4359
30.2696
30.1557
30.1032
30.1135
30.1735
30.3173
30.4825
30.6792
30.9204
31.1146
31.3433
31.4884
31.5803
31.5742
31.4888
31.3323
31.1085
30.8495
30.5343
30.3622
30.3669
30.539
30.7496
31.0505
31.5129
32.1705
33.0045
33.8871
34.8371
35.6757
36.2879
36.5733
36.4327
35.81
34.7431
33.1849
31.1534
28.9169
26.4916
24.0873
21.8052
19.6177
17.8381
16.2373
14.8857
14.0832
13.5264
13.3065
13.4399
13.8045
14.3852
15.1334
15.8513
16.6383
17.4385
18.2071
19.0622
19.9473
20.8371
21.672
22.6632
23.5151
24.2978
25.1691
25.7033
26.3607
26.8865
27.344
27.886
28.1612
28.5084
28.7852
29.0378
29.1968
29.268
29.2258
28.985
28.7582
28.1919
27.6176
26.8919
25.9089
25.0393
23.8332
22.7562
21.7275
20.3968
19.4044
18.5124
17.7087
17.2983
16.9967
16.9446
17.1469
17.5105
18.1725
18.9399
19.9768
21.2489
22.5179
24.0092
25.531
27.2615
29.1887
31.0786
33.0269
35.017
37.043
38.9493
40.8073
42.7003
44.4572
46.037
47.671
49.3108
50.781
52.1777
53.6798
55.1616
56.6174
57.7158
58.6486
59.5659
59.766
59.2825
57.9464
56.5351
55.7037
54.7532
53.3371
51.1331
47.6448
43.6316
38.3813
31.6851
25.2663
19.9148
15.373
12.5055
10.7616
9.91118
9.40727
9.82093
10.6516
11.7057
13.5923
16.4476
20.0445
23.5426
26.6496
29.9799
33.1673
35.6135
37.7508
39.0025
40.1327
40.4921
40.7065
40.6065
39.3843
38.3191
36.3192
33.2639
30.8001
26.8097
22.7132
16.7644
10.1287
3.32962
30.9734
31.3411
32.2594
32.7413
32.7517
32.4806
32.0818
31.7079
31.5277
31.5153
31.5342
31.5692
31.624
31.7142
31.7802
31.7765
31.8146
31.8294
31.8213
31.7999
31.7489
31.7101
31.6356
31.5296
31.4378
31.3138
31.1709
30.9984
30.8352
30.6796
30.5285
30.3968
30.3028
30.2701
30.2812
30.3376
30.4356
30.5796
30.7228
30.9007
31.0467
31.2039
31.3232
31.3962
31.3994
31.3409
31.2442
31.088
30.9335
30.7391
30.6121
30.6127
30.7738
31.0041
31.2588
31.6373
32.1601
32.8372
33.5872
34.3447
34.9897
35.4103
35.5684
35.4273
34.8317
33.8336
32.5696
30.8422
28.9598
26.9054
24.7479
22.7656
20.8222
19.1649
17.784
16.5942
15.8357
15.3059
15.0472
15.1483
15.4122
15.9134
16.5507
17.2191
17.9403
18.6802
19.4174
20.1873
21.0119
21.7959
22.5467
23.3959
24.1608
24.8169
25.5457
26.0074
26.5153
26.9655
27.2178
27.6643
27.8099
27.9805
28.1498
28.1343
28.1645
27.9691
27.7399
27.33
26.8034
26.1687
25.3422
24.4965
23.5068
22.5245
21.4555
20.3662
19.4286
18.4033
17.6066
17.0109
16.5312
16.3482
16.3637
16.6407
17.114
17.812
18.8101
19.8613
21.1483
22.675
24.1913
25.8851
27.6351
29.4786
31.4101
33.229
35.0206
36.8617
38.6787
40.3603
41.9336
43.5179
44.9824
46.2889
47.6268
48.9921
50.2611
51.5079
52.809
54.1914
55.5604
56.6212
57.5173
58.3985
58.6049
58.1182
56.8887
55.6407
54.8358
53.7146
52.3148
50.1032
47.0218
43.1003
37.6863
31.4773
25.524
19.8656
15.4154
12.5361
10.8402
10.0301
9.45328
9.69315
10.3563
11.3266
13.3011
16.0613
19.6681
23.4825
26.7424
30.0057
33.5341
36.1648
38.4002
39.5591
40.2315
40.9942
41.4214
41.4019
40.222
38.7488
36.8976
33.4164
30.63
26.5319
21.7934
16.5561
10.5234
4.99322
31.0432
31.4962
32.495
32.9676
32.9103
32.5368
32.0399
31.6184
31.3796
31.3699
31.4519
31.5407
31.6449
31.7529
31.8259
31.8256
31.8239
31.8321
31.801
31.7334
31.6748
31.6368
31.5391
31.4378
31.3694
31.2736
31.1659
31.0079
30.8807
30.7796
30.6412
30.528
30.4483
30.4145
30.4289
30.4682
30.5254
30.6482
30.7729
30.8828
31.0047
31.0979
31.1855
31.2509
31.2489
31.2241
31.1938
31.0884
31.0127
30.917
30.8439
30.857
30.9763
31.1913
31.4242
31.7183
32.1221
32.6122
33.2034
33.7915
34.2618
34.6185
34.6823
34.4938
33.966
33.0698
31.9985
30.5945
28.9943
27.3048
25.4797
23.8049
22.1962
20.6858
19.5142
18.4973
17.7166
17.2197
16.9635
17.0142
17.2604
17.6822
18.1909
18.7848
19.4294
20.0453
20.7394
21.3979
22.1241
22.802
23.4378
24.1723
24.7699
25.3675
25.8888
26.301
26.6897
26.9956
27.1921
27.3787
27.4986
27.5131
27.5256
27.3604
27.1266
26.7684
26.2569
25.6821
24.8446
23.9978
23.0218
21.899
20.976
19.8876
18.8206
17.9572
16.9297
16.1431
15.7077
15.2478
15.1569
15.3271
15.544
16.1655
17
17.9263
19.2139
20.6112
22.1264
23.846
25.6268
27.4948
29.3592
31.3418
33.2895
35.0752
36.8907
38.5835
40.1411
41.6769
43.0534
44.3037
45.4856
46.5288
47.5309
48.5886
49.5942
50.6981
51.8366
53.0264
54.2759
55.3513
56.3066
57.1508
57.3664
56.9107
55.8704
54.839
54.0474
52.8462
51.5464
49.7082
46.9223
42.9463
37.807
31.8334
26.0836
20.7729
16.2645
13.1242
11.6243
10.4893
9.78301
9.58266
9.94195
11.0644
12.7437
15.7414
19.5381
23.3301
27.0145
30.6855
34.3321
37.0875
38.7804
40.0902
40.6937
41.9237
42.4378
42.0949
41.609
39.8074
37.7858
33.9872
30.9255
27.1844
22.258
17.6552
12.3901
7.32155
31.7222
31.9286
32.4262
32.528
32.3399
32.0099
31.6857
31.4741
31.3643
31.3944
31.5056
31.5796
31.7213
31.8145
31.8595
31.8668
31.823
31.8149
31.77
31.654
31.614
31.5661
31.4526
31.368
31.3118
31.2436
31.1724
31.0213
30.9218
30.8708
30.7354
30.6368
30.574
30.5336
30.5656
30.5772
30.5956
30.7071
30.7992
30.8652
30.9593
31.0136
31.0861
31.1578
31.1392
31.1597
31.1613
31.0992
31.0818
31.0424
31.007
31.0439
31.1177
31.3024
31.5186
31.7437
32.0413
32.379
32.8081
33.2559
33.6152
33.9087
33.9309
33.6948
33.2381
32.4877
31.5503
30.4158
29.1024
27.7039
26.2495
24.8545
23.5084
22.2151
21.1909
20.2973
19.5552
19.1209
18.8559
18.8952
19.1341
19.435
19.8771
20.3523
20.907
21.4207
22.0237
22.6114
23.1903
23.8193
24.2942
24.8983
25.3932
25.8774
26.2951
26.58
26.8794
27.0152
27.221
27.2418
27.2273
27.1859
26.9061
26.6833
26.1822
25.5365
24.8724
23.9204
22.8959
21.7828
20.557
19.3518
18.2477
17.1423
16.0325
15.2807
14.452
13.7129
13.5186
13.4123
13.4652
14.0502
14.6667
15.4215
16.6653
17.9655
19.3781
21.1181
23.0161
24.8167
26.8149
28.9713
30.9126
32.9889
34.9941
36.7511
38.6397
40.3293
41.6688
42.9401
44.1615
45.1679
45.9682
46.6609
47.382
48.0908
48.8257
49.7798
50.6979
51.7177
52.9001
53.962
54.8623
55.5679
55.8606
55.6582
54.9586
54.1028
53.3019
52.2256
51.0102
49.4711
46.8803
43.4765
38.8224
32.7554
27.3159
22.1774
17.4193
14.4328
12.8887
11.2712
10.4346
9.70614
9.79049
10.5989
12.5387
15.2545
19.4471
23.3967
26.9177
31.6966
35.7286
38.3198
39.4047
40.6144
41.5578
42.9031
43.9576
43.4105
43.1508
41.2169
38.8184
35.2419
32.1103
28.6113
23.9216
19.8797
15.2293
10.3246
34.1317
33.7851
32.6773
31.7875
31.2782
31.0587
31.0467
31.1785
31.2955
31.4947
31.623
31.6702
31.8044
31.8675
31.8507
31.8608
31.7952
31.7838
31.7121
31.5845
31.5618
31.516
31.3861
31.3281
31.2786
31.2205
31.162
31.0272
30.9504
30.9396
30.8156
30.7353
30.6849
30.6407
30.6812
30.6622
30.6511
30.7473
30.8156
30.8602
30.9291
30.9612
31.0353
31.0872
31.0728
31.1114
31.1303
31.1124
31.1281
31.1153
31.1145
31.155
31.2169
31.3531
31.5508
31.7043
31.9242
32.173
32.4606
32.8047
33.0724
33.3024
33.2965
33.0617
32.6666
32.0699
31.2625
30.3318
29.2748
28.1134
26.9675
25.8399
24.6914
23.6298
22.6912
21.9305
21.2892
20.8678
20.6606
20.6588
20.8847
21.0925
21.4666
21.8711
22.2841
22.7807
23.2288
23.7679
24.2362
24.7345
25.1691
25.5793
26.0473
26.3705
26.7313
26.9694
27.0885
27.172
27.2532
27.2538
27.1107
26.8922
26.4406
25.9951
25.3694
24.4102
23.515
22.2824
20.9168
19.651
18.068
16.7472
15.5384
14.1903
13.335
12.478
11.7255
11.3781
11.1097
11.3337
11.7783
12.4147
13.5382
14.6608
15.9997
17.8238
19.5441
21.3925
23.699
25.7729
27.8491
30.1861
32.4132
34.5589
36.5677
38.4856
40.3231
41.8968
43.2657
44.3554
45.25
45.9491
46.4943
46.8095
47.1073
47.5429
48.0027
48.6498
49.4177
50.3198
51.2237
52.307
53.4732
54.236
54.5911
54.4756
54.0164
53.3034
52.6257
51.4865
50.2292
48.8171
46.749
43.9778
39.7955
34.2674
29.2871
24.209
19.1458
16.3225
14.2531
12.3708
11.1784
10.0966
9.84143
10.4935
12.4461
15.2171
19.5676
23.939
27.1558
32.659
38.597
38.4765
40.425
40.8685
42.7476
43.9208
45.4469
45.1182
44.8
42.8088
39.968
36.8382
33.7444
30.6384
26.66
22.931
18.6346
14.236
34.9986
34.4685
32.7135
31.3593
30.631
30.447
30.6318
30.997
31.3356
31.6069
31.729
31.7937
31.9264
31.9395
31.8726
31.8398
31.7835
31.7542
31.6537
31.5303
31.526
31.4764
31.3398
31.2849
31.2516
31.2037
31.1632
31.0454
30.9904
30.9892
30.8944
30.809
30.7655
30.7258
30.7656
30.7285
30.706
30.7839
30.8342
30.8709
30.9012
30.9353
31.004
31.0387
31.0363
31.0821
31.1065
31.1213
31.1473
31.1389
31.1657
31.2082
31.2507
31.3699
31.5141
31.629
31.8087
31.9834
32.2035
32.4616
32.6899
32.806
32.7927
32.5912
32.2647
31.7706
31.108
30.3425
29.4846
28.546
27.6242
26.7221
25.739
24.8552
24.0604
23.4032
22.8798
22.5041
22.3344
22.3252
22.465
22.6745
22.9293
23.2928
23.6495
24.0294
24.4515
24.8384
25.2752
25.6329
26.0206
26.3707
26.6747
26.9892
27.1618
27.392
27.4409
27.4211
27.4453
27.2475
27.1001
26.6769
26.1129
25.5159
24.5883
23.5908
22.2865
20.7902
19.2147
17.5008
15.8026
14.2104
12.801
11.4451
10.5185
9.85964
9.03354
8.85349
8.86503
9.06514
9.90255
10.8863
12.0217
13.7222
15.438
17.271
19.5757
21.8203
24.0269
26.5203
28.9838
31.2418
33.6309
36.0387
38.1274
40.1249
41.9668
43.4337
44.7237
45.8147
46.4613
46.7532
47.0062
47.0015
46.8218
46.8508
47.0313
47.4667
48.1256
48.7973
49.53
50.5075
51.593
52.5281
53.188
53.2762
53.0927
52.5518
51.7546
50.5465
49.3327
48.1375
46.7056
44.6178
41.2725
36.2048
31.787
26.5601
21.3951
18.3808
15.8839
13.8872
12.2186
10.8386
10.0815
10.8296
12.8954
15.2294
19.4812
24.4931
27.6649
34.3994
43.0077
36.5273
42.1292
41.1349
44.1098
45.4743
46.9932
47.0321
46.4161
44.1341
40.9969
38.3443
35.5645
32.9593
29.6781
26.1546
22.6225
18.9297
35.3773
34.9215
32.9714
31.375
30.525
30.2406
30.4282
30.8453
31.2784
31.6312
31.7735
31.8664
32.0087
31.9939
31.8867
31.8135
31.751
31.7139
31.5929
31.4775
31.477
31.4314
31.3114
31.2594
31.2502
31.2038
31.1606
31.064
30.999
31.0249
30.9458
30.8695
30.8259
30.8059
30.8295
30.7885
30.7507
30.8113
30.8586
30.8775
30.8947
30.9212
30.9959
31.0029
31.0096
31.0599
31.0746
31.1166
31.1401
31.1319
31.1887
31.2258
31.2526
31.3642
31.4503
31.5427
31.6896
31.8024
31.9721
32.1685
32.3041
32.3984
32.3919
32.2332
31.9615
31.5651
31.0388
30.4269
29.7177
28.9598
28.2028
27.4652
26.7078
25.9206
25.3281
24.765
24.3059
24.0458
23.8321
23.8452
23.9634
24.13
24.3595
24.6435
24.9832
25.2333
25.6105
25.9394
26.2495
26.6102
26.8529
27.174
27.3951
27.6198
27.7426
27.7642
27.8515
27.7521
27.6861
27.4192
27.0741
26.6896
25.9837
25.2486
24.1769
22.9318
21.4644
19.6101
17.8036
15.807
13.7928
12.12
10.376
8.95062
7.98206
6.92329
6.57871
6.50174
6.51757
7.05637
7.98034
9.18909
10.6852
12.4958
14.6866
16.854
19.1983
22.0207
24.5253
26.8763
29.7843
32.4763
34.7085
37.1936
39.6525
41.6892
43.4773
45.0281
46.2274
47.0665
47.5745
47.7902
47.6855
47.1389
46.5265
46.2161
46.085
46.2353
46.8074
47.3767
47.8806
48.59
49.4194
50.4293
51.4698
52.0727
52.0992
51.5995
50.6461
49.4158
48.29
47.5261
46.861
45.6089
43.1807
38.9093
34.5259
29.139
23.7225
20.6976
18.1063
15.82
13.8562
12.0211
10.9797
11.6676
13.9877
15.9187
19.7138
25.0294
28.3755
36.3238
44.7557
33.9139
43.8428
39.3139
45.3089
47.1272
48.9602
49.5335
48.2773
45.473
42.0598
39.5816
37.1856
35.2953
32.7967
29.8215
27.2887
24.0085
35.6011
35.1963
33.2038
31.4906
30.5302
30.1506
30.2848
30.7105
31.204
31.6296
31.806
31.9165
32.0523
32.0255
31.8988
31.8064
31.7218
31.6774
31.5584
31.4429
31.4332
31.3919
31.296
31.2412
31.2314
31.1995
31.1627
31.0764
31.0237
31.0547
31.0045
30.921
30.8778
30.8738
30.8912
30.8415
30.7993
30.8418
30.8777
30.8922
30.8825
30.9208
30.9882
30.9789
30.9958
31.0377
31.0464
31.1044
31.119
31.1081
31.1935
31.2078
31.2314
31.3184
31.3704
31.449
31.5717
31.6363
31.7767
31.9121
31.9795
32.0771
32.0703
31.9599
31.7466
31.4347
31.0274
30.5417
29.9717
29.3456
28.7481
28.1683
27.5618
26.9652
26.4671
26.0349
25.6579
25.4354
25.2833
25.2646
25.4042
25.4959
25.6981
25.9445
26.1985
26.4658
26.7213
27.0485
27.2727
27.5488
27.7774
27.9378
28.1358
28.2473
28.3406
28.2756
28.2031
28.1362
27.9452
27.7245
27.2822
26.756
26.1296
25.2001
24.0943
22.7091
20.9588
19.0278
16.9049
14.6605
12.5447
10.5481
8.67211
7.16771
5.98764
4.95437
4.5428
4.52802
4.58884
5.26447
6.35687
7.57281
9.36263
11.5189
13.6882
16.2605
19.0291
21.7483
24.7063
27.5183
30.2125
33.2403
35.9653
38.2572
40.7169
43.1471
44.9814
46.4489
47.6905
48.4383
48.6767
48.7198
48.4123
47.4278
46.2634
45.4937
45.1467
45.297
45.8198
46.189
46.4628
46.9754
47.5703
48.5688
49.9401
50.9398
51.0825
50.3537
49.0546
47.9514
47.2972
47.1684
47.2333
46.9
45.3289
41.4007
37.247
32.1536
26.581
23.6033
20.8136
18.1519
16.1619
13.8439
12.3729
12.8309
14.8506
16.7257
20.9538
27.4424
29.4446
40.0621
42.3673
33.3549
41.7306
35.1269
46.4398
45.8311
50.6792
52.0087
49.9131
46.2882
42.7754
40.5622
38.67
37.4901
35.4795
33.4907
32.0974
29.1945
35.7071
35.2843
33.2752
31.5456
30.5123
30.1058
30.2292
30.6683
31.2021
31.6295
31.8404
31.9604
32.0553
32.0304
31.9092
31.8018
31.6963
31.6245
31.5445
31.428
31.4024
31.3646
31.2857
31.2382
31.2129
31.2027
31.177
31.0957
31.0443
31.0755
31.0434
30.9582
30.9124
30.9159
30.9386
30.8855
30.8502
30.8737
30.9089
30.9087
30.8854
30.9294
30.9735
30.9679
30.983
31.0072
31.0224
31.0832
31.0754
31.0868
31.16
31.1671
31.1879
31.2527
31.2815
31.3575
31.4404
31.4804
31.5997
31.6847
31.7325
31.8245
31.8231
31.7403
31.6122
31.3525
31.0526
30.6889
30.2367
29.7406
29.273
28.8336
28.3683
27.941
27.5502
27.2225
26.9342
26.7195
26.6325
26.6045
26.7023
26.8343
26.9762
27.2265
27.4459
27.6693
27.8838
28.0922
28.3073
28.4781
28.677
28.791
28.8427
28.8866
28.8613
28.8125
28.6547
28.4591
28.2815
27.9944
27.6289
27.0513
26.31
25.4505
24.2719
22.8198
20.9794
18.8468
16.5818
14.1636
11.8617
9.69591
7.65799
6.05867
4.7337
3.65167
3.20731
3.07473
3.19708
3.97998
5.05802
6.33154
8.32344
10.6209
12.8693
15.5963
18.7115
21.6186
24.5409
27.7943
30.893
33.6772
36.5634
39.4273
41.794
44.0386
46.1849
47.7518
48.8656
49.6754
49.91
49.692
48.9491
47.5977
46.1092
44.9959
44.4337
44.5611
45.1678
45.5385
45.7316
45.9486
46.2394
47.3511
49.0706
50.3196
50.2318
48.6864
46.8594
45.933
46.2513
47.2515
48.1457
48.4115
47.259
44.5743
40.8241
35.9252
30.4367
27.0883
23.8999
21.2758
19.0542
16.2124
14.6795
15.2481
16.7388
18.3297
22.0554
27.7032
30.2246
37.6775
33.3058
36.4326
42.4996
35.2565
47.5663
44.4878
52.6166
53.457
51.1475
46.906
43.0334
40.7551
39.6884
39.2595
37.9569
37.385
36.5994
34.0478
35.7055
35.225
33.2367
31.5733
30.5762
30.2075
30.3542
30.7738
31.2693
31.6587
31.8652
31.9804
32.0147
31.9896
31.8931
31.7797
31.6717
31.5781
31.5422
31.4341
31.3821
31.3594
31.2866
31.2588
31.1999
31.193
31.1787
31.0934
31.0516
31.0813
31.071
31.0057
30.9556
30.9619
30.9808
30.9326
30.8905
30.9072
30.9291
30.9241
30.9041
30.9287
30.9689
30.9598
30.9709
30.9846
31.0072
31.0517
31.0425
31.0559
31.1067
31.1057
31.1289
31.1619
31.1827
31.255
31.3022
31.3375
31.4308
31.4935
31.5296
31.6099
31.6116
31.5668
31.5033
31.314
31.0904
30.8589
30.5076
30.1473
29.8151
29.4806
29.1712
28.8449
28.5756
28.3259
28.0841
27.937
27.8693
27.8832
27.9816
28.1267
28.2722
28.4606
28.6756
28.8292
29.0038
29.1747
29.303
29.4221
29.5175
29.6071
29.5954
29.5013
29.3585
29.1806
29.0709
28.863
28.5633
28.2673
27.9048
27.407
26.7
25.8277
24.6801
23.1713
21.2813
19.051
16.6217
14.0841
11.6063
9.27368
7.14814
5.40423
3.97426
2.89052
2.35191
2.17091
2.31778
3.08735
4.19037
5.5496
7.58796
9.91184
12.2535
15.1396
18.3376
21.3727
24.5085
27.8113
31.169
34.2564
36.892
39.7694
42.7389
45.0818
46.9309
48.6271
49.906
50.4692
50.7015
50.5496
49.5659
47.7929
45.8386
44.3642
43.8112
44.0916
44.6856
45.0727
45.2808
45.4094
45.657
47.0047
49.0358
50.1609
49.405
47.0691
44.7521
44.0474
45.4368
47.6815
49.5279
50.3338
49.7958
48.1271
45.0641
40.6878
35.4224
31.3999
27.9313
25.189
22.2721
19.0947
17.4229
17.7754
19.2056
21.0656
24.5317
29.4748
32.1742
34.1989
31.5434
39.1583
40.7857
36.3066
48.4552
46.7583
52.6836
53.6128
51.2521
46.4128
42.3823
40.6233
40.6942
40.7791
40.6375
41.2069
40.5737
38.6772
35.5257
35.0456
33.1341
31.6088
30.7153
30.4451
30.613
30.9697
31.3783
31.6979
31.8847
31.962
31.9497
31.927
31.8546
31.7606
31.6545
31.5641
31.54
31.4387
31.3693
31.3317
31.2845
31.2581
31.1995
31.1934
31.1797
31.1079
31.0661
31.078
31.0807
31.0284
30.9907
30.998
31.0138
30.9788
30.9368
30.9395
30.9491
30.9423
30.922
30.9416
30.9629
30.9619
30.9652
30.9652
30.9865
31.0079
30.9999
31.0162
31.0353
31.0435
31.0616
31.0641
31.0879
31.1341
31.1593
31.1857
31.2637
31.3049
31.3488
31.4204
31.434
31.4395
31.4144
31.2989
31.1671
31.0225
30.8039
30.5624
30.347
30.1212
29.9052
29.7076
29.5173
29.3454
29.1845
29.0944
29.0702
29.104
29.2123
29.3338
29.4827
29.6532
29.8228
29.9667
30.0674
30.1706
30.235
30.2801
30.3082
30.2599
30.1992
30.0645
29.8027
29.5133
29.2898
29.0918
28.8175
28.5231
28.1712
27.7024
27.0772
26.2198
25.0847
23.5489
21.6056
19.3489
16.8115
14.156
11.5765
9.1054
6.87359
5.03172
3.52274
2.40113
1.81469
1.6199
1.80531
2.55906
3.67825
5.13129
7.15041
9.47742
11.9202
14.8475
18.1101
21.1899
24.4064
27.9336
31.3104
34.3598
37.2961
40.0987
42.6955
45.3266
47.635
49.2762
50.4111
51.1522
51.4814
51.15
49.8621
47.7908
45.4713
43.6593
43.1709
43.6617
44.4155
44.9573
45.2074
45.311
45.7557
47.5136
49.7378
50.4767
49.4725
47.1337
44.7951
44.0761
45.8162
48.635
51.0756
52.3392
52.3918
51.4198
49.3324
45.8408
41.183
36.6247
32.8165
29.7024
26.1746
22.8625
20.3631
19.6572
20.7999
22.8509
26.6918
31.7826
36.5654
34.8636
30.9873
38.6511
39.68
40.7259
49.7665
47.6599
49.4707
51.9695
49.3629
44.6966
41.4948
40.313
40.6908
41.6885
43.4679
44.6305
44.1259
42.8463
35.0661
34.632
33.0029
31.7145
30.993
30.8162
30.9874
31.2612
31.545
31.7625
31.8886
31.908
31.8721
31.8397
31.7858
31.7128
31.6228
31.5696
31.539
31.4672
31.3905
31.3342
31.2924
31.2481
31.1915
31.1816
31.1608
31.1113
31.0887
31.082
31.0905
31.0549
31.0237
31.037
31.0341
31.0165
30.9851
30.9709
30.9744
30.9549
30.9398
30.9491
30.9533
30.9633
30.9615
30.9591
30.9775
30.9724
30.9656
30.9683
30.9625
30.969
30.9775
30.9669
30.9915
31.0149
31.017
31.0587
31.1042
31.1454
31.2016
31.2575
31.2946
31.3337
31.3456
31.3057
31.2618
31.1938
31.0915
30.9699
30.846
30.7309
30.6035
30.494
30.3785
30.2752
30.2052
30.1491
30.1609
30.2182
30.3074
30.4415
30.5746
30.7195
30.8471
30.937
30.9797
30.972
30.9625
30.9335
30.9032
30.8131
30.6057
30.3559
30.0546
29.7654
29.5131
29.2273
28.926
28.6392
28.3334
27.8898
27.2681
26.4288
25.3158
23.8369
21.9265
19.6657
17.1202
14.4293
11.7705
9.24708
6.95874
5.00675
3.42626
2.28375
1.64012
1.4167
1.63996
2.37814
3.50282
5.00583
7.00816
9.33069
11.849
14.81
18.0058
21.1429
24.4461
27.9752
31.4098
34.4285
37.2873
40.2277
43.0043
45.4301
47.5049
49.3286
50.6523
51.3827
51.7146
51.4362
50.012
47.6611
45.035
43.111
42.7233
43.4135
44.3787
45.1363
45.4949
45.8567
46.8696
49.0335
51.0812
51.7015
51.0922
49.3388
47.2708
46.6295
47.473
49.7483
52.3361
53.9161
54.2527
53.9009
52.8169
50.5066
46.8323
42.1795
38.3032
34.6857
31.1248
27.9268
25.5364
24.8705
24.9319
25.5678
28.2611
33.2003
37.8335
36.2878
36.493
37.2661
37.0558
45.7693
49.475
48.0323
48.769
50.2462
47.0279
43.3964
41.0229
39.7566
40.5145
43.22
45.8731
47.134
47.8141
47.2486
34.2612
33.9837
32.8455
31.937
31.4502
31.3587
31.4364
31.5789
31.7166
31.811
31.8548
31.828
31.7971
31.7733
31.7363
31.6876
31.6234
31.5855
31.5371
31.467
31.401
31.334
31.294
31.2442
31.1921
31.1762
31.1394
31.1089
31.0977
31.0843
31.0963
31.0821
31.0654
31.0727
31.0553
31.0376
31.0163
30.9927
30.9858
30.9702
30.9581
30.9616
30.9596
30.9625
30.9586
30.9493
30.9518
30.9387
30.9333
30.9276
30.912
30.9124
30.9003
30.8822
30.8894
30.8965
30.9039
30.9442
30.9801
31.0222
31.0902
31.1435
31.199
31.2645
31.3031
31.3293
31.3514
31.3545
31.3459
31.3247
31.2923
31.2515
31.2032
31.1507
31.1036
31.0667
31.0346
31.0268
31.0488
31.1042
31.192
31.2949
31.4122
31.5167
31.5951
31.6272
31.6057
31.5455
31.4583
31.3587
31.2417
31.0954
30.856
30.5331
30.1998
29.8766
29.5732
29.2841
28.9957
28.675
28.3001
27.8539
27.2624
26.4698
25.3812
23.9268
22.0668
19.9013
17.4509
14.8471
12.2322
9.72146
7.413
5.39606
3.75674
2.57348
1.87924
1.63469
1.85037
2.54868
3.67891
5.20592
7.18442
9.48364
12.073
15.0066
18.1124
21.3079
24.6636
28.1412
31.4785
34.5367
37.425
40.1911
42.8504
45.3186
47.557
49.3387
50.4877
51.2394
51.6149
51.2081
49.7338
47.4481
44.8796
43.0827
42.8718
43.6183
44.6982
45.6775
46.3525
47.1305
48.7612
51.3478
53.5904
54.4495
53.8173
51.909
49.7782
48.5744
48.8264
50.6622
53.0378
54.4958
55.0152
55.2209
55.2435
54.5911
52.0082
47.7193
43.8408
39.4706
35.7605
32.6346
30.5369
29.7802
29.9688
30.1202
30.2882
30.9397
30.6431
36.8629
38.5847
34.8375
37.6451
48.6793
47.1168
47.5149
48.2091
48.6091
45.6643
43.2217
41.3438
40.1145
41.8664
45.0435
47.7766
50.2446
51.7814
51.1278
33.4127
33.2884
32.7525
32.2879
32.0205
31.9081
31.8571
31.8572
31.8594
31.837
31.805
31.7589
31.7366
31.7219
31.6968
31.675
31.6387
31.6031
31.5359
31.459
31.3898
31.3141
31.271
31.2316
31.1986
31.1829
31.1498
31.127
31.1158
31.0939
31.0951
31.0934
31.0867
31.0888
31.0704
31.0565
31.036
31.0087
30.9923
30.975
30.9697
30.9692
30.9628
30.9665
30.9609
30.9437
30.9353
30.9137
30.8979
30.8856
30.8645
30.8569
30.8452
30.8265
30.8258
30.8296
30.8368
30.8694
30.8994
30.9401
31.0075
31.0702
31.1437
31.2282
31.3
31.372
31.4422
31.4992
31.5534
31.5972
31.6201
31.6329
31.6337
31.6345
31.632
31.6258
31.6283
31.6337
31.6595
31.7102
31.7769
31.8651
31.9522
32.0189
32.0423
32.0162
31.9404
31.818
31.6875
31.5572
31.4073
31.2038