/*--------------------------------*- C++ -*----------------------------------*\
| =========                 |                                                 |
| \\      /  F ield         | OpenFOAM: The Open Source CFD Toolbox           |
|  \\    /   O peration     | Version:  2.4.0                                 |
|   \\  /    A nd           | Web:      www.OpenFOAM.org                      |
|    \\/     M anipulation  |                                                 |
\*---------------------------------------------------------------------------*/
FoamFile
{
    version     2.0;
    format      ascii;
    class       surfaceScalarField;
    location    "1.92";
    object      phi;
}
// * * * * * * * * * * * * * * * * * * * * * * * * * * * * * * * * * * * * * //

dimensions      [0 3 -1 0 0 0 0];

internalField   nonuniform List<scalar> 
17320
(
1.76389e-05
7.36108e-06
1.16186e-05
6.02035e-06
8.68125e-06
2.93732e-06
7.35489e-06
1.32637e-06
6.72202e-06
6.32864e-07
6.33938e-06
3.82643e-07
6.07551e-06
2.6387e-07
5.87849e-06
1.97016e-07
5.70176e-06
1.76737e-07
5.57845e-06
1.23309e-07
5.48689e-06
9.15576e-08
5.38826e-06
9.86278e-08
5.29471e-06
9.35559e-08
5.23824e-06
5.64699e-08
5.12941e-06
1.08825e-07
5.07726e-06
5.21541e-08
4.97534e-06
1.01914e-07
5.00513e-06
-2.97891e-08
4.79452e-06
2.10612e-07
-3.57178e-07
5.1517e-06
2.54644e-05
6.8967e-06
2.3248e-05
8.2367e-06
2.09892e-05
5.19614e-06
1.93195e-05
2.99608e-06
1.80799e-05
1.87241e-06
1.71064e-05
1.35615e-06
1.63693e-05
1.00105e-06
1.57796e-05
7.86632e-07
1.53006e-05
6.55773e-07
1.4935e-05
4.88908e-07
1.46403e-05
3.8629e-07
1.43723e-05
3.66638e-07
1.41376e-05
3.2817e-07
1.39543e-05
2.39845e-07
1.3714e-05
3.49121e-07
1.35701e-05
1.96002e-07
1.33308e-05
3.41278e-07
1.32931e-05
7.86393e-09
1.31241e-05
3.79648e-07
-3.47969e-07
1.31149e-05
2.66255e-05
5.27118e-06
2.71532e-05
7.70901e-06
2.67798e-05
5.56951e-06
2.62524e-05
3.5235e-06
2.56119e-05
2.51295e-06
2.48632e-05
2.1048e-06
2.417e-05
1.69426e-06
2.35069e-05
1.44974e-06
2.29254e-05
1.2373e-06
2.24505e-05
9.6382e-07
2.20393e-05
7.9747e-07
2.16716e-05
7.34333e-07
2.13517e-05
6.48035e-07
2.10873e-05
5.04317e-07
2.07724e-05
6.63996e-07
2.05657e-05
4.02657e-07
2.02676e-05
6.39451e-07
2.01346e-05
1.40808e-07
2.00977e-05
4.16519e-07
-6.8499e-07
2.04348e-05
2.63344e-05
3.93677e-06
2.75376e-05
6.50585e-06
2.80789e-05
5.02824e-06
2.84516e-05
3.15077e-06
2.866e-05
2.30455e-06
2.86117e-05
2.15304e-06
2.84892e-05
1.81684e-06
2.8241e-05
1.69793e-06
2.79574e-05
1.52082e-06
2.77011e-05
1.22016e-06
2.74339e-05
1.0647e-06
2.71591e-05
1.00908e-06
2.69183e-05
8.88839e-07
2.66854e-05
7.3727e-07
2.64107e-05
9.38655e-07
2.61909e-05
6.22516e-07
2.5974e-05
8.56332e-07
2.56592e-05
4.55542e-07
2.54795e-05
5.96296e-07
-3.91172e-07
2.51856e-05
2.60489e-05
2.88791e-06
2.7254e-05
5.30068e-06
2.80395e-05
4.24274e-06
2.84889e-05
2.70136e-06
2.89925e-05
1.80098e-06
2.93098e-05
1.83574e-06
2.95898e-05
1.53687e-06
2.97535e-05
1.53417e-06
2.98435e-05
1.4308e-06
2.99158e-05
1.14792e-06
2.99651e-05
1.01543e-06
2.9942e-05
1.03211e-06
2.99637e-05
8.67193e-07
2.99285e-05
7.72451e-07
2.98829e-05
9.84202e-07
2.9753e-05
7.52468e-07
2.9772e-05
8.3732e-07
2.94652e-05
7.62388e-07
2.91892e-05
8.72279e-07
3.91575e-08
2.87589e-05
2.58277e-05
2.06017e-06
2.69701e-05
4.15836e-06
2.78336e-05
3.37923e-06
2.82188e-05
2.31609e-06
2.87344e-05
1.2854e-06
2.90835e-05
1.4867e-06
2.94472e-05
1.17317e-06
2.97198e-05
1.26157e-06
3.00198e-05
1.13073e-06
3.01561e-05
1.01169e-06
3.04257e-05
7.45833e-07
3.04942e-05
9.63545e-07
3.07399e-05
6.21503e-07
3.08021e-05
7.10302e-07
3.10288e-05
7.57485e-07
3.09808e-05
8.0049e-07
3.12364e-05
5.81676e-07
3.10224e-05
9.76405e-07
3.09322e-05
9.62478e-07
8.735e-07
3.00978e-05
2.56594e-05
1.40079e-06
2.67522e-05
3.06552e-06
2.76278e-05
2.50365e-06
2.80014e-05
1.94245e-06
2.85151e-05
7.71787e-07
2.88284e-05
1.17336e-06
2.9181e-05
8.20552e-07
2.94396e-05
1.00302e-06
2.98376e-05
7.32664e-07
2.9949e-05
9.00348e-07
3.02801e-05
4.14696e-07
3.03591e-05
8.84562e-07
3.06682e-05
3.12423e-07
3.06942e-05
6.84274e-07
3.10718e-05
3.79877e-07
3.09604e-05
9.11934e-07
3.14039e-05
1.38144e-07
3.11842e-05
1.19613e-06
3.1015e-05
1.13164e-06
1.80557e-06
3.00829e-05
2.55523e-05
8.48519e-07
2.65945e-05
2.02328e-06
2.74048e-05
1.6934e-06
2.80233e-05
1.32392e-06
2.83549e-05
4.40159e-07
2.86755e-05
8.5273e-07
2.9001e-05
4.95046e-07
2.92743e-05
7.29738e-07
2.96197e-05
3.87332e-07
2.98681e-05
6.51959e-07
3.0063e-05
2.19788e-07
3.02424e-05
7.05129e-07
3.04022e-05
1.52647e-07
3.06423e-05
4.44112e-07
3.0851e-05
1.71224e-07
3.09386e-05
8.24354e-07
3.09808e-05
9.58576e-08
3.1621e-05
5.5595e-07
3.19322e-05
8.20498e-07
9.83662e-07
3.27541e-05
2.5486e-05
3.62568e-07
2.6475e-05
1.03426e-06
2.733e-05
8.38384e-07
2.79683e-05
6.85591e-07
2.82456e-05
1.62836e-07
2.85877e-05
5.10636e-07
2.8869e-05
2.13748e-07
2.91979e-05
4.00906e-07
2.9453e-05
1.32158e-07
2.97646e-05
3.4035e-07
2.99419e-05
4.25646e-08
3.02025e-05
4.44531e-07
3.02244e-05
1.30734e-07
3.05555e-05
1.12997e-07
3.06222e-05
1.04567e-07
3.10068e-05
4.39741e-07
3.09786e-05
1.24028e-07
3.14039e-05
1.30654e-07
3.18152e-05
4.09221e-07
6.80404e-07
3.21184e-05
2.54185e-05
-5.59559e-08
2.64031e-05
4.97051e-08
2.72834e-05
-4.19069e-08
2.78982e-05
7.07687e-08
2.81937e-05
-1.32627e-07
2.84933e-05
2.11003e-07
2.88143e-05
-1.0728e-07
2.92162e-05
-1.01201e-09
2.94024e-05
-5.40448e-08
2.96842e-05
5.85729e-08
2.98961e-05
-1.69293e-07
3.01118e-05
2.28769e-07
3.02626e-05
-1.99943e-08
3.04133e-05
-3.77597e-08
3.07052e-05
-1.87326e-07
3.08605e-05
2.84454e-07
3.10311e-05
-4.65814e-08
3.12724e-05
-1.10692e-07
3.17306e-05
-4.89551e-08
2.90699e-07
3.21203e-05
2.54072e-05
-4.63133e-07
2.64235e-05
-9.66613e-07
2.72775e-05
-8.9589e-07
2.79166e-05
-5.68303e-07
2.81558e-05
-3.71834e-07
2.8529e-05
-1.6219e-07
2.8864e-05
-4.42336e-07
2.91977e-05
-3.34756e-07
2.93556e-05
-2.11923e-07
2.97175e-05
-3.03327e-07
2.98543e-05
-3.06073e-07
3.00951e-05
-1.20144e-08
3.0245e-05
-1.69926e-07
3.04706e-05
-2.6338e-07
3.05719e-05
-2.88537e-07
3.0979e-05
-1.22654e-07
3.10101e-05
-7.77535e-08
3.1319e-05
-4.1956e-07
3.16667e-05
-3.96691e-07
6.90877e-08
3.18883e-05
2.5464e-05
-9.27106e-07
2.6512e-05
-2.01467e-06
2.733e-05
-1.71385e-06
2.79155e-05
-1.15385e-06
2.82137e-05
-6.69979e-07
2.85907e-05
-5.39203e-07
2.88852e-05
-7.36796e-07
2.92182e-05
-6.67817e-07
2.94678e-05
-4.61462e-07
2.97674e-05
-6.0298e-07
2.98631e-05
-4.01792e-07
3.01706e-05
-3.19463e-07
3.03688e-05
-3.68113e-07
3.04958e-05
-3.90374e-07
3.06751e-05
-4.67918e-07
3.09311e-05
-3.78651e-07
3.11743e-05
-3.20936e-07
3.13302e-05
-5.7548e-07
3.16627e-05
-7.29141e-07
-2.66775e-07
3.19985e-05
2.55471e-05
-1.47421e-06
2.65957e-05
-3.06323e-06
2.73992e-05
-2.51741e-06
2.79977e-05
-1.75234e-06
2.83339e-05
-1.00618e-06
2.87076e-05
-9.12842e-07
2.89897e-05
-1.01894e-06
2.93079e-05
-9.85979e-07
2.95903e-05
-7.43951e-07
2.98404e-05
-8.53061e-07
3.00098e-05
-5.71159e-07
3.02865e-05
-5.96146e-07
3.04112e-05
-4.92783e-07
3.06308e-05
-6.1e-07
3.07818e-05
-6.18928e-07
3.10431e-05
-6.39932e-07
3.12214e-05
-4.99312e-07
3.15299e-05
-8.83939e-07
3.17667e-05
-9.65965e-07
-5.18676e-07
3.20186e-05
2.56775e-05
-2.15174e-06
2.6737e-05
-4.12269e-06
2.75763e-05
-3.35672e-06
2.80736e-05
-2.24961e-06
2.84784e-05
-1.41104e-06
2.88594e-05
-1.29381e-06
2.91728e-05
-1.33235e-06
2.95046e-05
-1.31781e-06
2.97518e-05
-9.91109e-07
2.99893e-05
-1.0906e-06
3.01964e-05
-7.78254e-07
3.04327e-05
-8.32449e-07
3.0585e-05
-6.45038e-07
3.083e-05
-8.55018e-07
3.09293e-05
-7.18167e-07
3.11536e-05
-8.64323e-07
3.13846e-05
-7.30275e-07
3.1659e-05
-1.1583e-06
3.18452e-05
-1.15215e-06
-8.79316e-07
3.22058e-05
2.5842e-05
-2.99375e-06
2.69449e-05
-5.22561e-06
2.77937e-05
-4.20545e-06
2.82442e-05
-2.70017e-06
2.87118e-05
-1.87861e-06
2.91081e-05
-1.69014e-06
2.94473e-05
-1.6715e-06
2.9709e-05
-1.57955e-06
2.99647e-05
-1.2468e-06
3.01713e-05
-1.29726e-06
3.03868e-05
-9.9372e-07
3.05458e-05
-9.91398e-07
3.07181e-05
-8.17342e-07
3.08592e-05
-9.96147e-07
3.0947e-05
-8.05996e-07
3.10891e-05
-1.00643e-06
3.12266e-05
-8.67756e-07
3.14146e-05
-1.34632e-06
3.14801e-05
-1.21766e-06
-1.23012e-06
3.1831e-05
2.60285e-05
-4.02227e-06
2.72224e-05
-6.41954e-06
2.80362e-05
-5.01918e-06
2.85143e-05
-3.17825e-06
2.89751e-05
-2.33944e-06
2.93297e-05
-2.04471e-06
2.95831e-05
-1.92488e-06
2.97159e-05
-1.71244e-06
2.9853e-05
-1.38387e-06
2.98922e-05
-1.3364e-06
2.99596e-05
-1.06112e-06
2.99538e-05
-9.85621e-07
2.99687e-05
-8.32288e-07
2.99099e-05
-9.3734e-07
2.98614e-05
-7.57476e-07
2.97856e-05
-9.30666e-07
2.97211e-05
-8.03235e-07
2.96303e-05
-1.25547e-06
2.95224e-05
-1.10977e-06
-1.37118e-06
2.96634e-05
2.62985e-05
-5.32072e-06
2.75387e-05
-7.65976e-06
2.80849e-05
-5.56537e-06
2.84493e-05
-3.5427e-06
2.8635e-05
-2.52513e-06
2.86321e-05
-2.04181e-06
2.84646e-05
-1.75736e-06
2.82185e-05
-1.46633e-06
2.79788e-05
-1.1442e-06
2.76796e-05
-1.03715e-06
2.74287e-05
-8.10282e-07
2.71585e-05
-7.15384e-07
2.69225e-05
-5.96266e-07
2.66446e-05
-6.59443e-07
2.64203e-05
-5.33249e-07
2.61451e-05
-6.55464e-07
2.59123e-05
-5.70453e-07
2.55706e-05
-9.13737e-07
2.53211e-05
-8.60299e-07
-1.26685e-06
2.52168e-05
2.66e-05
-6.92072e-06
2.71585e-05
-8.21828e-06
2.67805e-05
-5.18738e-06
2.62428e-05
-3.00497e-06
2.55981e-05
-1.88042e-06
2.48806e-05
-1.32429e-06
2.41494e-05
-1.0262e-06
2.34957e-05
-8.12613e-07
2.29425e-05
-5.91033e-07
2.24354e-05
-5.30058e-07
2.20291e-05
-4.03902e-07
2.16668e-05
-3.53158e-07
2.13588e-05
-2.88199e-07
2.10421e-05
-3.4278e-07
2.07829e-05
-2.74084e-07
2.0479e-05
-3.51556e-07
2.02197e-05
-3.11126e-07
1.9804e-05
-4.98064e-07
1.94356e-05
-4.91844e-07
-4.3959e-07
1.86083e-05
2.54477e-05
-7.36837e-06
2.32463e-05
-6.01689e-06
2.09889e-05
-2.93003e-06
1.93141e-05
-1.33021e-06
1.80729e-05
-6.39152e-07
1.71175e-05
-3.68903e-07
1.636e-05
-2.68741e-07
1.57658e-05
-2.18395e-07
1.53168e-05
-1.42023e-07
1.49267e-05
-1.39936e-07
1.46263e-05
-1.03563e-07
1.43658e-05
-9.25944e-08
1.41486e-05
-7.0978e-08
1.3911e-05
-1.05203e-07
1.37162e-05
-7.92771e-08
1.34781e-05
-1.13529e-07
1.32631e-05
-9.60986e-08
1.29335e-05
-1.68458e-07
1.26627e-05
-2.20991e-07
-5.9403e-08
1.22825e-05
1.76316e-05
1.16147e-05
8.68471e-06
7.35449e-06
6.71534e-06
6.34644e-06
6.0777e-06
5.8593e-06
5.71728e-06
5.57735e-06
5.47378e-06
5.38119e-06
5.31021e-06
5.20501e-06
5.12573e-06
5.0122e-06
4.9161e-06
4.74764e-06
4.52665e-06
4.46725e-06
5.68466e-06
-1.83071e-07
-3.49891e-07
6.14861e-06
-3.68787e-08
-4.2707e-07
6.46026e-06
-1.66138e-08
-2.95037e-07
6.67259e-06
-5.68624e-08
-1.55466e-07
6.84719e-06
-1.07144e-07
-6.74526e-08
6.99934e-06
-1.19741e-07
-3.24098e-08
7.13073e-06
-1.17371e-07
-1.40198e-08
7.26854e-06
-1.14167e-07
-2.36447e-08
7.41643e-06
-9.90686e-08
-4.8817e-08
7.56117e-06
-6.51775e-08
-7.95706e-08
7.70761e-06
-3.38539e-08
-1.12579e-07
7.85471e-06
-1.97238e-08
-1.27382e-07
8.00205e-06
-2.71073e-08
-1.20235e-07
8.13768e-06
-6.12092e-08
-7.44139e-08
8.25172e-06
-9.59726e-08
-1.80724e-08
8.36929e-06
-1.21832e-07
4.26538e-09
8.48295e-06
-1.3543e-07
2.17674e-08
8.5764e-06
-1.40493e-07
4.70429e-08
8.64275e-06
-1.44176e-07
7.78234e-08
8.68496e-06
-1.34821e-07
9.26134e-08
8.71807e-06
-1.01294e-07
6.81865e-08
8.77076e-06
-6.17674e-08
9.07395e-09
8.85067e-06
-1.0216e-08
-6.96878e-08
8.94742e-06
3.97392e-08
-1.36498e-07
9.04077e-06
6.92461e-08
-1.62589e-07
9.16443e-06
8.71919e-08
-2.10857e-07
9.30516e-06
1.10781e-07
-2.51508e-07
9.43028e-06
1.10813e-07
-2.35929e-07
9.58307e-06
1.10542e-07
-2.63333e-07
9.71355e-06
1.10982e-07
-2.4146e-07
9.86014e-06
7.10806e-08
-2.17677e-07
9.98302e-06
5.65833e-08
-1.79456e-07
1.00966e-05
-1.36946e-08
-9.98835e-08
1.01966e-05
-6.57897e-08
-3.41988e-08
1.02729e-05
-1.41034e-07
6.46905e-08
1.03115e-05
-2.18105e-07
1.79539e-07
1.03444e-05
-3.1959e-07
2.86684e-07
1.03506e-05
-3.57294e-07
3.51126e-07
1.03143e-05
-4.03002e-07
4.39299e-07
1.02816e-05
-3.98923e-07
4.3163e-07
1.02807e-05
-3.58134e-07
3.59014e-07
1.03803e-05
-2.87564e-07
1.87964e-07
1.04139e-05
-1.74262e-07
1.40679e-07
1.04497e-05
-8.10374e-08
4.52343e-08
1.05756e-05
9.15298e-08
-2.17447e-07
1.08067e-05
1.93852e-07
-4.24961e-07
1.09983e-05
3.44969e-07
-5.36562e-07
1.1194e-05
3.21063e-07
-5.16726e-07
1.14836e-05
2.80384e-07
-5.70023e-07
1.16512e-05
2.03928e-07
-3.71542e-07
1.17626e-05
-2.71585e-08
-8.42643e-08
1.18274e-05
-1.90202e-07
1.25456e-07
1.1924e-05
-4.14598e-07
3.1798e-07
1.19963e-05
-5.25848e-07
4.53564e-07
1.20369e-05
-6.74047e-07
6.33376e-07
1.20505e-05
-7.91567e-07
7.78037e-07
1.19838e-05
-9.49994e-07
1.01669e-06
1.18497e-05
-1.05143e-06
1.18548e-06
1.15748e-05
-1.14034e-06
1.41525e-06
1.1266e-05
-1.06856e-06
1.37738e-06
1.08158e-05
-8.56104e-07
1.30626e-06
1.04263e-05
-4.57305e-07
8.46844e-07
1.01581e-05
3.59619e-08
2.3226e-07
1.01278e-05
6.39331e-07
-6.09062e-07
1.04354e-05
1.25054e-06
-1.55812e-06
1.11298e-05
1.85326e-06
-2.54771e-06
1.21635e-05
2.4187e-06
-3.45237e-06
1.33345e-05
2.83415e-06
-4.00513e-06
1.45111e-05
3.06183e-06
-4.23842e-06
1.5593e-05
3.14757e-06
-4.22954e-06
1.66026e-05
2.98911e-06
-3.99866e-06
1.74816e-05
2.74077e-06
-3.61981e-06
1.82249e-05
2.39142e-06
-3.13466e-06
1.88608e-05
1.87434e-06
-2.51028e-06
1.93896e-05
1.38091e-06
-1.90969e-06
1.97871e-05
6.77415e-07
-1.07495e-06
2.00204e-05
1.5142e-08
-2.48387e-07
2.01524e-05
-7.99386e-07
6.67355e-07
2.00785e-05
-1.42357e-06
1.49742e-06
2.00419e-05
-2.11141e-06
2.14801e-06
1.99522e-05
-2.5934e-06
2.68315e-06
1.99788e-05
-2.94831e-06
2.92172e-06
2.00935e-05
-3.36072e-06
3.24604e-06
2.02693e-05
-3.56906e-06
3.39327e-06
2.05296e-05
-4.04286e-06
3.78251e-06
2.08077e-05
-4.21532e-06
3.93723e-06
2.11156e-05
-4.67482e-06
4.36687e-06
2.14567e-05
-4.98974e-06
4.64873e-06
2.17943e-05
-5.28224e-06
4.94461e-06
2.22214e-05
-5.71728e-06
5.29021e-06
2.27523e-05
-5.97767e-06
5.44671e-06
2.3242e-05
-6.29681e-06
5.80713e-06
2.39776e-05
-6.64129e-06
5.9057e-06
2.47015e-05
-6.80913e-06
6.08524e-06
2.54244e-05
-7.24336e-06
6.52041e-06
2.63334e-05
-7.29748e-06
6.38853e-06
2.70394e-05
-7.63202e-06
6.92598e-06
2.78637e-05
-7.81233e-06
6.98807e-06
2.85935e-05
-7.80205e-06
7.0722e-06
2.91761e-05
-8.08791e-06
7.50532e-06
2.97869e-05
-7.88976e-06
7.279e-06
3.01567e-05
-7.92447e-06
7.55466e-06
3.05313e-05
-7.73679e-06
7.36221e-06
3.0781e-05
-7.42212e-06
7.17238e-06
3.09666e-05
-7.22635e-06
7.04077e-06
3.1102e-05
-6.55966e-06
6.4242e-06
3.12144e-05
-6.16807e-06
6.0557e-06
3.13146e-05
-5.39938e-06
5.29922e-06
3.13545e-05
-4.49015e-06
4.45026e-06
3.1521e-05
-3.87241e-06
3.70583e-06
3.15521e-05
-2.64448e-06
2.61341e-06
3.17785e-05
-1.91363e-06
1.68719e-06
3.19372e-05
-1.00076e-06
8.42073e-07
3.21686e-05
1.0675e-07
-3.38121e-07
3.24804e-05
6.628e-07
-9.74555e-07
3.27124e-05
1.79884e-06
-2.03085e-06
3.30116e-05
2.30709e-06
-2.60629e-06
3.32645e-05
2.9894e-06
-3.24232e-06
3.34081e-05
3.7157e-06
-3.85928e-06
3.35416e-05
3.85108e-06
-3.98459e-06
3.35496e-05
4.4184e-06
-4.42646e-06
3.34984e-05
4.40332e-06
-4.35207e-06
3.33918e-05
4.39499e-06
-4.28836e-06
3.32642e-05
4.45416e-06
-4.32655e-06
3.30094e-05
3.99713e-06
-3.7424e-06
3.28396e-05
3.77126e-06
-3.6014e-06
3.25642e-05
3.37663e-06
-3.10129e-06
3.22954e-05
2.68388e-06
-2.41503e-06
3.21062e-05
2.16419e-06
-1.975e-06
3.18191e-05
1.49684e-06
-1.2098e-06
3.16451e-05
5.5e-07
-3.75989e-07
3.14716e-05
-2.20191e-07
3.93761e-07
3.13399e-05
-1.20974e-06
1.34144e-06
3.12313e-05
-2.42068e-06
2.52926e-06
3.11393e-05
-3.3844e-06
3.47638e-06
3.10066e-05
-4.75026e-06
4.88299e-06
3.06777e-05
-5.8345e-06
6.16343e-06
3.0327e-05
-7.05437e-06
7.40506e-06
2.96255e-05
-8.2459e-06
8.94736e-06
2.8546e-05
-8.92468e-06
1.00042e-05
2.73279e-05
-9.25826e-06
1.04764e-05
2.5935e-05
-9.7285e-06
1.11213e-05
2.43516e-05
-9.64427e-06
1.12277e-05
2.30272e-05
-9.15625e-06
1.04807e-05
2.17599e-05
-8.67052e-06
9.93776e-06
2.07982e-05
-8.19604e-06
9.15775e-06
1.99123e-05
-6.97302e-06
7.85896e-06
1.93456e-05
-6.08153e-06
6.64818e-06
1.87343e-05
-6.34314e-06
6.95447e-06
1.81156e-05
-5.78833e-06
6.40704e-06
1.74277e-05
-4.74381e-06
5.43168e-06
1.63624e-05
-3.46645e-06
4.53174e-06
1.55576e-05
-3.82403e-06
4.6289e-06
1.43897e-05
-3.14062e-06
4.30844e-06
1.30195e-05
-3.18981e-07
1.68925e-06
1.1743e-05
1.75321e-06
-4.76777e-07
1.05431e-05
2.8057e-06
-1.60572e-06
1.00127e-05
-5.76569e-07
1.10691e-06
9.15699e-06
-6.43037e-06
7.2861e-06
8.08374e-06
-1.09399e-05
1.20132e-05
8.27946e-06
-1.70363e-05
1.68406e-05
9.1753e-06
-2.20497e-05
2.11539e-05
9.5472e-06
-2.34427e-05
2.30708e-05
1.00185e-05
-2.40332e-05
2.35619e-05
1.08037e-05
-2.39401e-05
2.31549e-05
1.21524e-05
-2.31446e-05
2.17958e-05
1.35287e-05
-2.07684e-05
1.93922e-05
1.44642e-05
-1.7241e-05
1.63055e-05
1.49147e-05
-1.35938e-05
1.31433e-05
1.56301e-05
-9.6283e-06
8.91288e-06
1.60455e-05
-5.79884e-06
5.38347e-06
1.71077e-05
-3.23508e-06
2.17287e-06
1.77074e-05
7.01774e-07
-1.30151e-06
1.81222e-05
2.74603e-06
-3.16082e-06
1.92141e-05
4.56778e-06
-5.65964e-06
2.01145e-05
7.91408e-06
-8.81453e-06
2.1037e-05
1.09973e-05
-1.19198e-05
2.14043e-05
1.33156e-05
-1.36829e-05
2.1998e-05
1.47603e-05
-1.5354e-05
2.29226e-05
1.63493e-05
-1.72739e-05
2.2872e-05
1.78038e-05
-1.77532e-05
2.33469e-05
1.80009e-05
-1.84759e-05
2.41217e-05
1.89789e-05
-1.97536e-05
2.47925e-05
1.99594e-05
-2.06301e-05
2.53287e-05
2.12508e-05
-2.17869e-05
2.58027e-05
2.16677e-05
-2.21418e-05
2.65322e-05
2.23719e-05
-2.31013e-05
2.71835e-05
2.3619e-05
-2.42703e-05
2.6592e-05
2.41138e-05
-2.35222e-05
2.54088e-05
2.39702e-05
-2.2787e-05
2.39651e-05
2.25678e-05
-2.11241e-05
2.25902e-05
2.07479e-05
-1.93729e-05
2.15437e-05
1.93261e-05
-1.82797e-05
2.02567e-05
1.78717e-05
-1.65847e-05
1.87321e-05
1.6981e-05
-1.54564e-05
1.681e-05
1.66357e-05
-1.47136e-05
1.51701e-05
1.56873e-05
-1.40474e-05
1.33824e-05
1.68206e-05
-1.50329e-05
1.29901e-05
1.58901e-05
-1.54978e-05
2.22024e-05
-2.11136e-05
1.19013e-05
1.32004e-05
-2.68556e-07
1.33032e-05
-1.39696e-07
1.33768e-05
-9.02794e-08
1.34215e-05
-1.01502e-07
1.34582e-05
-1.43902e-07
1.35297e-05
-1.91228e-07
1.36203e-05
-2.07922e-07
1.37075e-05
-2.01436e-07
1.3776e-05
-1.67545e-07
1.38383e-05
-1.27502e-07
1.39119e-05
-1.07394e-07
1.3993e-05
-1.00852e-07
1.40717e-05
-1.05837e-07
1.4155e-05
-1.4452e-07
1.42316e-05
-1.72494e-07
1.43066e-05
-1.96899e-07
1.43845e-05
-2.13298e-07
1.44412e-05
-1.97176e-07
1.44892e-05
-1.92146e-07
1.45143e-05
-1.60001e-07
1.45394e-05
-1.26402e-07
1.45672e-05
-8.9483e-08
1.46124e-05
-5.54862e-08
1.46666e-05
-1.43811e-08
1.47354e-05
3.82658e-10
1.48022e-05
2.04052e-08
1.48868e-05
2.61471e-08
1.49624e-05
3.52314e-08
1.50423e-05
3.06639e-08
1.5123e-05
3.02392e-08
1.51954e-05
-1.32573e-09
1.5281e-05
-2.89302e-08
1.53366e-05
-6.93714e-08
1.54088e-05
-1.37931e-07
1.54526e-05
-1.84855e-07
1.54911e-05
-2.56651e-07
1.54977e-05
-3.26195e-07
1.55071e-05
-3.66624e-07
1.54931e-05
-3.88995e-07
1.54966e-05
-4.02404e-07
1.54943e-05
-3.55901e-07
1.55131e-05
-3.06339e-07
1.55344e-05
-1.95586e-07
1.5581e-05
-1.27634e-07
1.57123e-05
-3.97521e-08
1.5854e-05
5.21437e-08
1.60689e-05
1.30037e-07
1.62081e-05
1.81928e-07
1.6418e-05
7.04844e-08
1.66175e-05
4.41011e-09
1.67443e-05
-1.53935e-07
1.6836e-05
-2.81933e-07
1.68906e-05
-4.69217e-07
1.69883e-05
-6.23571e-07
1.70375e-05
-7.23183e-07
1.70703e-05
-8.2439e-07
1.70085e-05
-8.88167e-07
1.6905e-05
-9.47972e-07
1.6709e-05
-9.44309e-07
1.64808e-05
-8.40416e-07
1.62363e-05
-6.11559e-07
1.60586e-05
-2.79554e-07
1.5884e-05
2.10538e-07
1.58241e-05
6.99193e-07
1.58308e-05
1.24386e-06
1.59469e-05
1.73714e-06
1.62355e-05
2.13008e-06
1.66739e-05
2.39585e-06
1.72201e-05
2.51558e-06
1.78432e-05
2.52448e-06
1.84811e-05
2.35122e-06
1.9117e-05
2.10486e-06
1.97269e-05
1.78151e-06
2.02589e-05
1.34232e-06
2.07728e-05
8.66989e-07
2.11865e-05
2.6377e-07
2.14695e-05
-2.67903e-07
2.16797e-05
-1.00954e-06
2.17758e-05
-1.5197e-06
2.18909e-05
-2.22651e-06
2.1948e-05
-2.65053e-06
2.21084e-05
-3.10866e-06
2.23187e-05
-3.571e-06
2.25857e-05
-3.83611e-06
2.29362e-05
-4.39331e-06
2.33362e-05
-4.61538e-06
2.37669e-05
-5.10545e-06
2.42904e-05
-5.51327e-06
2.48061e-05
-5.79799e-06
2.54412e-05
-6.35232e-06
2.60964e-05
-6.63292e-06
2.67723e-05
-6.97271e-06
2.7517e-05
-7.386e-06
2.8268e-05
-7.56013e-06
2.88959e-05
-7.8712e-06
2.96592e-05
-8.06083e-06
3.02197e-05
-8.1925e-06
3.07528e-05
-8.34546e-06
3.12822e-05
-8.33136e-06
3.1517e-05
-8.32281e-06
3.18395e-05
-8.21221e-06
3.19152e-05
-8.0002e-06
3.19997e-05
-7.82122e-06
3.20369e-05
-7.45936e-06
3.19462e-05
-7.13561e-06
3.19567e-05
-6.57023e-06
3.18848e-05
-6.0961e-06
3.18356e-05
-5.35019e-06
3.18734e-05
-4.52794e-06
3.18927e-05
-3.8917e-06
3.19672e-05
-2.719e-06
3.21681e-05
-2.11457e-06
3.22718e-05
-1.10442e-06
3.25725e-05
-1.93981e-07
3.28287e-05
4.06638e-07
3.31421e-05
1.48543e-06
3.3509e-05
1.94017e-06
3.38078e-05
2.69059e-06
3.41509e-05
3.37264e-06
3.43665e-05
3.63548e-06
3.45693e-05
4.2156e-06
3.46684e-05
4.30418e-06
3.46814e-05
4.38205e-06
3.47036e-05
4.43194e-06
3.4573e-05
4.12769e-06
3.44823e-05
3.86196e-06
3.43381e-05
3.52084e-06
3.41428e-05
2.87916e-06
3.39558e-05
2.35122e-06
3.37517e-05
1.70094e-06
3.3514e-05
7.87693e-07
3.3269e-05
2.48353e-08
3.30541e-05
-9.94848e-07
3.26987e-05
-2.06526e-06
3.24086e-05
-3.09436e-06
3.19082e-05
-4.24983e-06
3.12796e-05
-5.20587e-06
3.05361e-05
-6.31087e-06
2.94295e-05
-7.13928e-06
2.81141e-05
-7.60928e-06
2.67905e-05
-7.93471e-06
2.53629e-05
-8.3009e-06
2.40162e-05
-8.29756e-06
2.28991e-05
-8.03912e-06
2.19084e-05
-7.67985e-06
2.11981e-05
-7.48577e-06
2.04526e-05
-6.22749e-06
1.99899e-05
-5.61885e-06
1.93265e-05
-5.67974e-06
1.87037e-05
-5.16551e-06
1.77487e-05
-3.78884e-06
1.68411e-05
-2.5588e-06
1.58582e-05
-2.84117e-06
1.46407e-05
-1.92314e-06
1.32664e-05
1.0553e-06
1.19795e-05
3.04014e-06
1.0884e-05
3.90125e-06
1.03172e-05
-9.76183e-09
9.19491e-06
-5.30812e-06
8.20001e-06
-9.94503e-06
8.22296e-06
-1.70592e-05
7.96994e-06
-2.17967e-05
7.70079e-06
-2.31735e-05
8.0597e-06
-2.43921e-05
9.24953e-06
-2.51299e-05
1.06233e-05
-2.45184e-05
1.15876e-05
-2.17327e-05
1.24234e-05
-1.80768e-05
1.2922e-05
-1.40924e-05
1.3364e-05
-1.00703e-05
1.40137e-05
-6.44858e-06
1.4543e-05
-3.76434e-06
1.57453e-05
-5.00563e-07
1.59717e-05
2.51959e-06
1.68031e-05
3.73646e-06
1.79884e-05
6.7287e-06
1.90127e-05
9.97299e-06
1.97234e-05
1.26048e-05
2.01849e-05
1.42988e-05
2.12687e-05
1.52654e-05
2.19467e-05
1.71259e-05
2.20973e-05
1.78504e-05
2.28767e-05
1.81994e-05
2.37756e-05
1.90605e-05
2.47724e-05
2.0254e-05
2.54231e-05
2.1017e-05
2.59124e-05
2.18825e-05
2.70099e-05
2.25215e-05
2.76373e-05
2.34864e-05
2.73034e-05
2.43041e-05
2.58974e-05
2.39738e-05
2.38585e-05
2.27868e-05
2.20975e-05
2.10871e-05
2.05671e-05
1.94021e-05
1.96768e-05
1.78713e-05
1.84128e-05
1.78998e-05
1.78318e-05
1.62683e-05
1.60906e-05
1.85618e-05
1.83722e-05
1.36085e-05
2.24856e-05
1.80889e-05
2.02313e-05
-6.51386e-08
1.99914e-05
1.00246e-07
1.98439e-05
5.72266e-08
1.98271e-05
-8.47287e-08
1.98886e-05
-2.05375e-07
1.9985e-05
-2.87633e-07
2.00742e-05
-2.97174e-07
2.01347e-05
-2.61844e-07
2.01633e-05
-1.96234e-07
2.01659e-05
-1.30055e-07
2.01643e-05
-1.05763e-07
2.01677e-05
-1.04282e-07
2.01864e-05
-1.24563e-07
2.02312e-05
-1.89334e-07
2.02963e-05
-2.37582e-07
2.03609e-05
-2.61502e-07
2.04315e-05
-2.83819e-07
2.04778e-05
-2.43499e-07
2.05154e-05
-2.29817e-07
2.05281e-05
-1.72699e-07
2.05208e-05
-1.1901e-07
2.0519e-05
-8.769e-08
2.05176e-05
-5.41051e-08
2.05354e-05
-3.22258e-08
2.05631e-05
-2.72674e-08
2.06101e-05
-2.66351e-08
2.06563e-05
-2.00053e-08
2.07285e-05
-3.69863e-08
2.07701e-05
-1.09223e-08
2.08424e-05
-4.21096e-08
2.08822e-05
-4.10889e-08
2.09363e-05
-8.30916e-08
2.09703e-05
-1.03345e-07
2.10013e-05
-1.68905e-07
2.10199e-05
-2.03469e-07
2.10388e-05
-2.75573e-07
2.1031e-05
-3.18358e-07
2.10176e-05
-3.53249e-07
2.10204e-05
-3.91739e-07
2.09854e-05
-3.67449e-07
2.09979e-05
-3.68361e-07
2.09795e-05
-2.88009e-07
2.10293e-05
-2.45336e-07
2.10699e-05
-1.68286e-07
2.11556e-05
-1.25379e-07
2.12486e-05
-4.09395e-08
2.13882e-05
-9.51956e-09
2.15377e-05
3.24392e-08
2.16358e-05
-2.76661e-08
2.17852e-05
-1.44903e-07
2.18814e-05
-2.50139e-07
2.19759e-05
-3.7648e-07
2.20161e-05
-5.094e-07
2.20617e-05
-6.69177e-07
2.20897e-05
-7.51144e-07
2.2101e-05
-8.35786e-07
2.20638e-05
-8.50949e-07
2.19584e-05
-8.42581e-07
2.18162e-05
-8.02023e-07
2.16313e-05
-6.55567e-07
2.14392e-05
-4.19432e-07
2.12884e-05
-1.28774e-07
2.11496e-05
3.49355e-07
2.10977e-05
7.51034e-07
2.1097e-05
1.2446e-06
2.117e-05
1.66415e-06
2.13039e-05
1.99612e-06
2.1488e-05
2.21183e-06
2.17187e-05
2.28488e-06
2.1985e-05
2.25812e-06
2.22647e-05
2.07157e-06
2.25361e-05
1.8334e-06
2.28787e-05
1.43892e-06
2.31507e-05
1.07028e-06
2.34669e-05
5.50819e-07
2.37617e-05
-3.0979e-08
2.3989e-05
-4.95276e-07
2.42167e-05
-1.23722e-06
2.44183e-05
-1.72127e-06
2.4597e-05
-2.40521e-06
2.48149e-05
-2.86846e-06
2.5097e-05
-3.39076e-06
2.54119e-05
-3.88591e-06
2.58248e-05
-4.24902e-06
2.62784e-05
-4.84686e-06
2.67776e-05
-5.1146e-06
2.73356e-05
-5.66342e-06
2.79019e-05
-6.07959e-06
2.85032e-05
-6.39929e-06
2.91181e-05
-6.96717e-06
2.9681e-05
-7.1959e-06
3.02795e-05
-7.57113e-06
3.07741e-05
-7.88067e-06
3.12685e-05
-8.05453e-06
3.16369e-05
-8.23956e-06
3.20112e-05
-8.43511e-06
3.2259e-05
-8.44029e-06
3.24283e-05
-8.51482e-06
3.25624e-05
-8.46548e-06
3.25052e-05
-8.2656e-06
3.24807e-05
-8.18772e-06
3.23313e-05
-7.85072e-06
3.21979e-05
-7.68787e-06
3.20568e-05
-7.31824e-06
3.18713e-05
-6.95014e-06
3.18383e-05
-6.53725e-06
3.16905e-05
-5.94827e-06
3.16877e-05
-5.34735e-06
3.17592e-05
-4.5995e-06
3.17318e-05
-3.86432e-06
3.1966e-05
-2.95311e-06
3.20842e-05
-2.23282e-06
3.22574e-05
-1.2776e-06
3.25637e-05
-5.00263e-07
3.27229e-05
2.47432e-07
3.31032e-05
1.10507e-06
3.33616e-05
1.68184e-06
3.36459e-05
2.40628e-06
3.40361e-05
2.98238e-06
3.42242e-05
3.44742e-06
3.45451e-05
3.89474e-06
3.4696e-05
4.15329e-06
3.47961e-05
4.28192e-06
3.48952e-05
4.33285e-06
3.48438e-05
4.1791e-06
3.47985e-05
3.90721e-06
3.47116e-05
3.60772e-06
3.45528e-05
3.03802e-06
3.43771e-05
2.52692e-06
3.41892e-05
1.88885e-06
3.39205e-05
1.05633e-06
3.36309e-05
3.14442e-07
3.32953e-05
-6.59256e-07
3.28219e-05
-1.59188e-06
3.2302e-05
-2.57444e-06
3.1572e-05
-3.51982e-06
3.0778e-05
-4.41188e-06
2.98045e-05
-5.33735e-06
2.85787e-05
-5.91349e-06
2.73257e-05
-6.35623e-06
2.61266e-05
-6.73564e-06
2.49155e-05
-7.08979e-06
2.39074e-05
-7.28948e-06
2.29733e-05
-7.10503e-06
2.2326e-05
-7.03252e-06
2.1699e-05
-6.85874e-06
2.10954e-05
-5.62389e-06
2.06926e-05
-5.21611e-06
2.005e-05
-5.03712e-06
1.93125e-05
-4.42801e-06
1.82668e-05
-2.74308e-06
1.73192e-05
-1.61129e-06
1.62205e-05
-1.74244e-06
1.49784e-05
-6.81042e-07
1.362e-05
2.41377e-06
1.21168e-05
4.54332e-06
1.11685e-05
4.84948e-06
1.04828e-05
6.76006e-07
9.19526e-06
-4.0206e-06
8.41787e-06
-9.16764e-06
7.60557e-06
-1.62469e-05
6.47274e-06
-2.06639e-05
5.94456e-06
-2.26454e-05
6.58849e-06
-2.5036e-05
8.17206e-06
-2.67135e-05
9.07954e-06
-2.54259e-05
9.81649e-06
-2.24697e-05
1.05096e-05
-1.87699e-05
1.10156e-05
-1.45984e-05
1.1425e-05
-1.04796e-05
1.20638e-05
-7.08738e-06
1.25288e-05
-4.22938e-06
1.3496e-05
-1.46775e-06
1.41385e-05
1.87706e-06
1.45178e-05
3.35723e-06
1.57156e-05
5.53084e-06
1.65947e-05
9.09389e-06
1.77163e-05
1.14833e-05
1.82879e-05
1.37272e-05
1.90534e-05
1.44999e-05
2.0289e-05
1.58902e-05
2.08791e-05
1.72603e-05
2.16232e-05
1.74553e-05
2.2419e-05
1.82647e-05
2.35867e-05
1.90863e-05
2.45531e-05
2.00505e-05
2.50942e-05
2.13415e-05
2.57023e-05
2.19133e-05
2.66501e-05
2.25386e-05
2.76177e-05
2.33365e-05
2.79623e-05
2.36293e-05
2.73103e-05
2.34388e-05
2.5763e-05
2.26344e-05
2.37633e-05
2.14018e-05
2.2595e-05
1.90396e-05
2.07703e-05
1.97245e-05
2.10458e-05
1.59928e-05
1.95529e-05
2.00547e-05
2.01175e-05
1.30439e-05
2.11236e-05
2.14795e-05
2.52164e-05
-9.5854e-08
2.52744e-05
4.21904e-08
2.53652e-05
-3.35612e-08
2.54415e-05
-1.6104e-07
2.54923e-05
-2.56155e-07
2.55278e-05
-3.23109e-07
2.55289e-05
-2.98273e-07
2.55195e-05
-2.52483e-07
2.55136e-05
-1.90302e-07
2.55041e-05
-1.20543e-07
2.55098e-05
-1.11513e-07
2.55165e-05
-1.10963e-07
2.55235e-05
-1.31615e-07
2.55472e-05
-2.13001e-07
2.55651e-05
-2.55452e-07
2.56063e-05
-3.02714e-07
2.56452e-05
-3.22682e-07
2.56876e-05
-2.85973e-07
2.5729e-05
-2.71139e-07
2.57658e-05
-2.09513e-07
2.57708e-05
-1.24079e-07
2.57846e-05
-1.01465e-07
2.57696e-05
-3.90621e-08
2.5758e-05
-2.06617e-08
2.57415e-05
-1.07921e-08
2.57282e-05
-1.33153e-08
2.5726e-05
-1.78369e-08
2.57494e-05
-6.0319e-08
2.57727e-05
-3.42925e-08
2.58284e-05
-9.77277e-08
2.58872e-05
-9.99585e-08
2.5945e-05
-1.40833e-07
2.60039e-05
-1.6229e-07
2.60391e-05
-2.04063e-07
2.60606e-05
-2.24993e-07
2.60607e-05
-2.75624e-07
2.60482e-05
-3.05919e-07
2.59956e-05
-3.00591e-07
2.59745e-05
-3.70642e-07
2.59137e-05
-3.0671e-07
2.58977e-05
-3.52376e-07
2.58862e-05
-2.76448e-07
2.59088e-05
-2.67949e-07
2.59516e-05
-2.11132e-07
2.60095e-05
-1.8324e-07
2.60966e-05
-1.28062e-07
2.61946e-05
-1.07476e-07
2.6327e-05
-9.99522e-08
2.64101e-05
-1.10806e-07
2.64899e-05
-2.24707e-07
2.65511e-05
-3.11374e-07
2.66008e-05
-4.26107e-07
2.66242e-05
-5.32826e-07
2.65919e-05
-6.36901e-07
2.65831e-05
-7.42288e-07
2.65248e-05
-7.77512e-07
2.64769e-05
-8.03075e-07
2.63673e-05
-7.33001e-07
2.62293e-05
-6.63954e-07
2.60735e-05
-4.99812e-07
2.59095e-05
-2.55399e-07
2.57848e-05
-4.14561e-09
2.57079e-05
4.26275e-07
2.56708e-05
7.88122e-07
2.57073e-05
1.20814e-06
2.58014e-05
1.57003e-06
2.59246e-05
1.8729e-06
2.60972e-05
2.03923e-06
2.62853e-05
2.0968e-06
2.64722e-05
2.07128e-06
2.66942e-05
1.84952e-06
2.68574e-05
1.67021e-06
2.70766e-05
1.21974e-06
2.72877e-05
8.5913e-07
2.74544e-05
3.84174e-07
2.76509e-05
-2.27512e-07
2.78892e-05
-7.33543e-07
2.80735e-05
-1.42157e-06
2.8307e-05
-1.9547e-06
2.84999e-05
-2.59812e-06
2.87447e-05
-3.11329e-06
2.90528e-05
-3.69882e-06
2.93504e-05
-4.18356e-06
2.97442e-05
-4.64281e-06
3.01144e-05
-5.21702e-06
3.0515e-05
-5.51525e-06
3.09541e-05
-6.10245e-06
3.13048e-05
-6.43034e-06
3.17304e-05
-6.82487e-06
3.20436e-05
-7.28043e-06
3.22999e-05
-7.45217e-06
3.25832e-05
-7.85443e-06
3.26748e-05
-7.9723e-06
3.27841e-05
-8.16385e-06
3.28559e-05
-8.31135e-06
3.27947e-05
-8.37386e-06
3.27738e-05
-8.41941e-06
3.26306e-05
-8.37162e-06
3.24709e-05
-8.3058e-06
3.22929e-05
-8.08762e-06
3.20756e-05
-7.9704e-06
3.19285e-05
-7.70357e-06
3.17484e-05
-7.50779e-06
3.16514e-05
-7.2213e-06