/*--------------------------------*- C++ -*----------------------------------*\
| =========                 |                                                 |
| \\      /  F ield         | OpenFOAM: The Open Source CFD Toolbox           |
|  \\    /   O peration     | Version:  2.4.0                                 |
|   \\  /    A nd           | Web:      www.OpenFOAM.org                      |
|    \\/     M anipulation  |                                                 |
\*---------------------------------------------------------------------------*/
FoamFile
{
    version     2.0;
    format      ascii;
    class       volScalarField;
    location    "1.92";
    object      pMean;
}
// * * * * * * * * * * * * * * * * * * * * * * * * * * * * * * * * * * * * * //

dimensions      [0 2 -2 0 0 0 0];

internalField   nonuniform List<scalar> 
8800
(
86.5755
74.1412
66.7375
63.1798
61.2875
59.8576
58.6493
57.5036
56.4741
55.4464
54.4954
53.5122
52.6059
51.6672
50.8239
49.9558
49.1896
48.4079
47.7019
46.9232
83.4644
73.7868
66.906
63.2937
61.3476
59.8828
58.6569
57.504
56.472
55.4439
54.4925
53.51
52.6034
51.6654
50.8222
49.9538
49.1917
48.4018
47.7024
46.8814
81.4995
73.8624
67.508
63.6692
61.5153
59.9619
58.7034
57.5366
56.4964
55.4609
54.5029
53.5146
52.605
51.6635
50.8215
49.9477
49.1971
48.3934
47.751
46.9105
79.9641
73.9235
68.0949
64.0927
61.6994
60.0494
58.7662
57.5929
56.5452
55.4996
54.5309
53.5317
52.6165
51.6668
50.8253
49.9423
49.2039
48.3992
47.8471
47.0651
78.7151
73.8967
68.5709
64.4984
61.8682
60.1164
58.8157
57.6501
56.6013
55.551
54.5667
53.5582
52.63
51.676
50.8257
49.9426
49.2002
48.4227
47.8647
47.271
77.7296
73.7997
68.9367
64.8443
62.019
60.1586
58.8446
57.6941
56.652
55.6003
54.6026
53.5845
52.6422
51.684
50.8225
49.9408
49.1881
48.4389
47.9202
47.5708
76.9732
73.683
69.2047
65.124
62.1548
60.184
58.8538
57.7251
56.6917
55.642
54.632
53.6073
52.6495
51.69
50.8148
49.9377
49.168
48.4411
47.9934
47.9498
76.4194
73.5831
69.3852
65.3368
62.2729
60.204
58.846
57.7495
56.7185
55.6763
54.651
53.6287
52.6501
51.6983
50.8016
49.9402
49.1415
48.4327
47.9202
48.2987
76.059
73.5127
69.4984
65.4818
62.3582
60.2178
58.8366
57.7656
56.7386
55.7008
54.666
53.6439
52.6539
51.7045
50.7975
49.941
49.1281
48.4417
47.9881
48.6332
75.8799
73.4804
69.5556
65.5588
62.4036
60.2275
58.8317
57.7761
56.7516
55.7168
54.676
53.6545
52.6591
51.7114
50.7997
49.9462
49.134
48.4601
48.0512
48.7459
75.8732
73.4906
69.5559
65.5638
62.4031
60.2312
58.8289
57.78
56.7516
55.7212
54.6764
53.6598
52.661
51.7188
50.8038
49.9562
49.1417
48.4813
48.0867
48.8428
76.0426
73.5387
69.4998
65.4922
62.3586
60.2261
58.8314
57.7741
56.74
55.711
54.6689
53.6576
52.6618
51.7238
50.8113
49.9672
49.1558
48.4965
48.1102
48.8767
76.3938
73.6207
69.3845
65.3495
62.2721
60.217
58.8368
57.7627
56.719
55.6918
54.6545
53.6515
52.6616
51.7308
50.8233
49.9846
49.1772
48.5162
48.1137
48.8461
76.9403
73.7263
69.2022
65.1368
62.1487
60.1994
58.8403
57.7413
56.6884
55.6618
54.6325
53.6384
52.6588
51.7363
50.8376
50.0063
49.2066
48.5432
48.1014
48.7356
77.6942
73.8423
68.9366
64.8544
62.0096
60.1704
58.8331
57.708
56.6482
55.6208
54.6036
53.6177
52.6533
51.7377
50.8528
50.0296
49.2454
48.5806
48.1003
48.5399
78.6764
73.94
68.5733
64.5069
61.8567
60.1255
58.8072
57.6628
56.5989
55.5715
54.5702
53.5922
52.6461
51.7352
50.868
50.0511
49.2917
48.6297
48.1292
48.2792
79.9232
73.9672
68.1002
64.1029
61.6871
60.058
58.7597
57.6066
56.5439
55.5211
54.5368
53.5671
52.6383
51.7304
50.8811
50.0673
49.3374
48.6771
48.1885
48.0043
81.458
73.904
67.5167
63.6809
61.5035
59.9701
58.6982
57.5505
56.4966
55.4823
54.5121
53.55
52.6329
51.7283
50.8908
50.0797
49.3703
48.7136
48.2478
47.8621
83.4225
73.8253
66.9168
63.3066
61.3367
59.8906
58.6519
57.5182
56.473
55.4655
54.5028
53.5459
52.6333
51.7314
50.8974
50.0894
49.3857
48.735
48.2444
47.7856
86.5334
74.1778
66.748
63.1931
61.2774
59.8652
58.6446
57.518
56.475
55.4684
54.5056
53.5486
52.636
51.7338
50.9005
50.0928
49.3893
48.7407
48.2457
47.9059
47.0042
46.9428
46.7349
46.4934
46.2836
46.1171
45.9956
45.9115
45.8595
45.8352
45.8335
45.8414
45.8507
45.8526
45.8432
45.8185
45.7782
45.7183
45.6417
45.5461
45.4384
45.3244
45.2129
45.1078
45.0165
44.9426
44.8884
44.8492
44.8208
44.7948
44.7658
44.7292
44.6855
44.6343
44.5764
44.509
44.4317
44.3385
44.2308
44.1046
43.965
43.8107
43.656
43.5068
43.3751
43.2609
43.1716
43.1039
43.06
43.0325
43.0181
43.0029
42.9812
42.9425
42.8906
42.8159
42.7284
42.6238
42.5123
42.3843
42.2436
42.0817
41.9057
41.7137
41.5208
41.3363
41.1777
41.0564
40.9829
40.9506
40.9621
41.0047
41.0784
41.1662
41.2714
41.3749
41.4828
41.5755
41.6607
41.7234
41.7721
41.7993
41.8184
41.8193
41.8208
41.816
41.8194
41.8307
41.8549
41.8952
41.9534
42.0309
42.1273
42.236
42.3576
42.4843
42.6209
42.7572
42.8976
43.031
43.1621
43.2793
43.3918
43.4799
43.5652
43.6287
43.6917
43.7391
43.7916
43.8285
43.8666
43.8898
43.9126
43.9196
43.9272
43.9242
43.9259
43.9207
43.924
43.9247
43.9402
43.9588
43.9993
44.0409
44.1073
44.167
44.2571
44.3376
44.4508
44.5641
44.7066
44.8522
45.0149
45.1739
45.3414
45.5001
45.6655
45.8187
45.9723
46.1125
46.2564
46.3943
46.5393
46.6825
46.8341
46.982
47.1386
47.2947
47.4549
47.6116
47.7678
47.9176
48.067
48.2081
48.3505
48.4882
48.6368
48.7765
48.929
49.0715
49.2349
49.3699
49.5328
49.6576
49.8127
49.9297
50.0816
50.1911
50.3392
50.4282
50.5831
50.6519
50.8245
50.8889
51.0892
51.1578
51.3945
51.4688
51.7455
51.8415
52.1481
52.284
52.6205
52.8202
53.1824
53.4465
53.8321
54.1305
54.5358
54.8331
55.2214
55.4401
55.6973
55.6471
55.5043
54.7202
53.4678
50.193
46.0106
25.6989
46.7653
46.7402
46.6803
46.5328
46.3468
46.1706
46.0369
45.9491
45.9034
45.887
45.8919
45.9034
45.9147
45.9165
45.9072
45.8817
45.8415
45.7835
45.711
45.6228
45.5249
45.4212
45.3203
45.225
45.1427
45.074
45.0221
44.9829
44.955
44.9305
44.9058
44.8743
44.8362
44.7888
44.7345
44.6688
44.5934
44.5029
44.3999
44.2799
44.1489
44.007
43.8643
43.7253
43.6001
43.4902
43.4021
43.3333
43.2853
43.2507
43.2281
43.2055
43.1807
43.1415
43.0919
43.0222
42.9399
42.8397
42.7299
42.6044
42.4676
42.3134
42.147
41.9694
41.791
41.6208
41.4727
41.355
41.2786
41.2396
41.2409
41.2717
41.3323
41.4085
41.4992
41.591
41.6827
41.7622
41.8311
41.8808
41.9171
41.9345
41.9436
41.9406
41.9356
41.9287
41.9256
41.932
41.9481
41.9784
42.0251
42.0895
42.1717
42.2665
42.3753
42.4914
42.6163
42.7413
42.8693
42.9916
43.1119
43.2207
43.3222
43.4025
43.4776
43.5352
43.5891
43.6296
43.6704
43.6997
43.7269
43.7427
43.7539
43.7523
43.7451
43.7321
43.7185
43.7034
43.6926
43.6818
43.6868
43.6959
43.7283
43.7628
43.8224
43.8792
43.9629
44.0424
44.1473
44.2544
44.386
44.5209
44.6726
44.82
44.977
45.1238
45.2782
45.4207
45.5616
45.6898
45.8218
45.9468
46.0778
46.2071
46.347
46.4788
46.6267
46.7687
46.9223
47.0686
47.2186
47.36
47.5113
47.648
47.7981
47.9367
48.0993
48.2384
48.4023
48.5427
48.7087
48.8334
48.9935
49.1069
49.2564
49.3608
49.5049
49.5897
49.7318
49.7865
49.9324
49.9628
50.1253
50.1486
50.3424
50.3708
50.6012
50.6425
50.9046
50.9805
51.2558
51.3775
51.6674
51.8436
52.1569
52.3664
52.7055
52.9104
53.2492
53.4009
53.6651
53.6514
53.6942
53.2453
52.7301
51.0996
49.3428
43.6251
37.7575
19.0335
46.7517
46.7521
46.7584
46.6632
46.4769
46.2609
46.0815
45.9652
45.9162
45.9114
45.9322
45.9566
45.976
45.9804
45.9705
45.9423
45.8998
45.841
45.7707
45.6881
45.5996
45.5064
45.4167
45.3316
45.258
45.1952
45.1468
45.1089
45.0817
45.0577
45.0353
45.0068
44.9732
44.9295
44.8787
44.8156
44.7429
44.6562
44.5589
44.4478
44.3279
44.1996
44.0704
43.9439
43.8282
43.725
43.6399
43.5705
43.519
43.4782
43.4479
43.4178
43.3874
43.3463
43.2964
43.2301
43.1512
43.0558
42.9487
42.8275
42.6953
42.5504
42.3964
42.2351
42.0743
41.9207
41.7861
41.6758
41.5995
41.5563
41.5489
41.57
41.6183
41.6827
41.7596
41.8379
41.9138
41.9789
42.0313
42.0678
42.0908
42.1001
42.0995
42.092
42.08
42.0687
42.0599
42.0591
42.0656
42.0841
42.1172
42.1674
42.2343
42.3167
42.4136
42.5207
42.6344
42.7496
42.866
42.9778
43.0862
43.1859
43.2755
43.3482
43.4144
43.4678
43.5154
43.5528
43.5874
43.6138
43.6343
43.6471
43.6497
43.6414
43.6234
43.6019
43.5775
43.5519
43.5317
43.5122
43.5138
43.5171
43.5469
43.578
43.6356
43.6943
43.7738
43.8546
43.9534
44.0582
44.1805
44.3066
44.4479
44.5854
44.7329
44.8697
45.0119
45.1435
45.2716
45.3876
45.5082
45.6212
45.741
45.8598
45.9898
46.1129
46.2547
46.3867
46.5339
46.6658
46.8074
46.9377
47.0882
47.2215
47.3818
47.5234
47.698
47.8403
48.0161
48.1597
48.3245
48.4426
48.5961
48.696
48.8408
48.9236
49.0635
49.1162
49.2544
49.2762
49.4142
49.4085
49.5664
49.5516
49.7419
49.7378
49.9465
49.9713
50.1889
50.2549
50.4764
50.577
50.8187
50.9467
51.2204
51.3483
51.6409
51.7297
51.9935
51.9718
52.123
51.8196
51.7056
50.7168
50.0772
47.3234
45.3893
38.3327
31.2864
18.5214
46.5425
46.5744
46.7801
46.7706
46.5775
46.312
46.0861
45.9489
45.9051
45.9214
45.969
46.0172
46.0526
46.064
46.0539
46.0213
45.9735
45.9108
45.8402
45.7612
45.6801
45.5969
45.5184
45.4443
45.3805
45.3251
45.2817
45.2462
45.2196
45.1955
45.1737
45.1468
45.1157
45.0749
45.0267
44.9668
44.898
44.8168
44.7268
44.626
44.5188
44.405
44.2909
44.1779
44.0732
43.9774
43.8961
43.8266
43.7715
43.725
43.6877
43.6515
43.6158
43.5727
43.5223
43.4588
43.3835
43.2937
43.1921
43.0781
42.9543
42.8206
42.6805
42.536
42.3932
42.257
42.1364
42.0354
41.9615
41.9152
41.9
41.9105
41.9455
41.9961
42.0576
42.1203
42.1797
42.2295
42.2669
42.2915
42.3031
42.3039
42.2945
42.2807
42.2625
42.2455
42.2301
42.2196
42.2141
42.2186
42.237
42.273
42.3266
42.3977
42.4847
42.5821
42.6858
42.7902
42.8958
42.9962
43.0924
43.1803
43.2573
43.3201
43.3787
43.4293
43.4748
43.5133
43.5471
43.5743
43.5939
43.6051
43.6024
43.5888
43.5658
43.5367
43.5078
43.4749
43.452
43.4309
43.4327
43.4343
43.4645
43.496
43.5559
43.6158
43.6949
43.7746
43.8733
43.9765
44.096
44.2167
44.3493
44.4797
44.6182
44.7469
44.879
44.999
45.1145
45.2182
45.3284
45.4293
45.5414
45.6533
45.7775
45.8999
46.0377
46.162
46.3015
46.4179
46.5515
46.6696
46.8205
46.9488
47.1206
47.2685
47.4555
47.6048
47.7936
47.9332
48.097
48.2037
48.3578
48.4286
48.5798
48.6254
48.7704
48.7846
48.9251
48.9106
49.0464
49.0089
49.1659
49.1309
49.3002
49.2873
49.4495
49.4694
49.6284
49.6754
49.8439
49.9073
50.1024
50.1626
50.3904
50.4178
50.6632
50.5983
50.8308
50.5532
50.6899
49.9584
49.8649
48.1669
47.5086
43.9058
41.4332
34.7823
27.3041
18.7495
47.2159
47.1613
47.0248
46.7883
46.4907
46.1908
45.9761
45.871
45.8625
45.9155
45.9997
46.0791
46.1357
46.1575
46.1489
46.1123
46.0582
45.9902
45.9169
45.8395
45.7642
45.6902
45.6227
45.5603
45.5072
45.4607
45.4237
45.3921
45.3672
45.3438
45.3221
45.2964
45.2671
45.2295
45.185
45.1303
45.0675
44.9943
44.9136
44.8243
44.7302
44.6308
44.5309
44.4308
44.3364
44.2479
44.1699
44.1007
44.0428
43.9923
43.9495
43.9088
43.8687
43.824
43.7732
43.7128
43.6423
43.56
43.4669
43.3629
43.2503
43.1295
43.0044
42.8763
42.7508
42.6311
42.5242
42.4329
42.3632
42.3155
42.2933
42.2934
42.3142
42.3491
42.3928
42.438
42.4803
42.5153
42.5395
42.5531
42.5552
42.5476
42.5312
42.5101
42.485
42.4591
42.4336
42.4095
42.3888
42.3766
42.3802
42.4019
42.4447
42.5057
42.585
42.6744
42.7697
42.8659
42.9618
43.0517
43.1362
43.2114
43.2765
43.3309
43.3843
43.4336
43.4789
43.5212
43.5561
43.5863
43.607
43.6172
43.6127
43.5957
43.5713
43.5392
43.5114
43.4784
43.4587
43.443
43.4477
43.4554
43.4886
43.5271
43.5884
43.6515
43.7315
43.8128
43.9154
44.0169
44.1388
44.2549
44.3842
44.5059
44.6385
44.7591
44.8869
44.9941
45.1026
45.1941
45.2953
45.3834
45.492
45.5983
45.7244
45.8478
45.9847
46.1
46.2344
46.3341
46.4646
46.5712
46.7255
46.8514
47.0344
47.1865
47.389
47.538
47.7438
47.8678
48.0359
48.121
48.2799
48.3178
48.4796
48.4815
48.6332
48.6075
48.7503
48.7015
48.8296
48.7792
48.9252
48.8958
49.0341
49.0192
49.1429
49.1416
49.2556
49.2615
49.3931
49.3942
49.559
49.5194
49.721
49.5973
49.8308
49.5422
49.7814
49.1795
49.3204
48.1594
47.9841
45.8354
44.7938
41.1651
37.9676
32.6568
25.6134
19.2879
47.7884
47.6994
47.2828
46.7999
46.3538
46.0091
45.8224
45.7766
45.8293
45.9363
46.0619
46.1698
46.2414
46.2688
46.2585
46.2167
46.1554
46.0814
46.0043
45.9274
45.856
45.7898
45.7319
45.6805
45.6376
45.6005
45.5703
45.5439
45.5216
45.4998
45.4787
45.4544
45.4269
45.3928
45.3527
45.3044
45.2488
45.1849
45.1145
45.0373
44.9558
44.8699
44.7828
44.6952
44.6106
44.5298
44.4559
44.3885
44.329
44.2758
44.2282
44.1833
44.139
44.0924
44.0413
43.9837
43.918
43.8433
43.7593
43.6662
43.5656
43.4588
43.3487
43.2371
43.1284
43.0246
42.9311
42.8499
42.7855
42.7383
42.7115
42.7036
42.7118
42.7314
42.7576
42.7858
42.8116
42.8323
42.8446
42.8483
42.8417
42.8261
42.8019
42.7713
42.736
42.6978
42.6589
42.6186
42.5808
42.5503
42.5398
42.5492
42.5822
42.6358
42.71
42.7939
42.8824
42.9725
43.0602
43.1413
43.2157
43.2816
43.3384
43.3888
43.4401
43.4895
43.5373
43.5845
43.6233
43.6563
43.6786
43.6875
43.6822
43.6616
43.6386
43.6089
43.5857
43.5612
43.55
43.5453
43.5585
43.5796
43.6208
43.6713
43.7365
43.807
43.8888
43.9782
44.0836
44.1916
44.3158
44.4308
44.5592
44.6719
44.8008
44.9131
45.0377
45.1347
45.2406
45.3215
45.4129
45.4909
45.5976
45.7008
45.835
45.9595
46.0987
46.2084
46.3357
46.423
46.5487
46.6498
46.8067
46.9282
47.1273
47.2759
47.4974
47.6373
47.8591
47.9612
48.1464
48.1989
48.3724
48.3696
48.543
48.5047
48.6612
48.5938
48.7378
48.6548
48.7806
48.7244
48.8651
48.8369
48.968
48.932
49.0414
48.9982
49.0891
49.0253
49.1415
49.053
49.1932
49.0374
49.1954
48.9263
49.1046
48.6408
48.7763
47.9731
47.9173
46.5606
46.0484
43.8805
42.3638
39.2126
35.75
31.7249
25.6437
20.4068
48.4341
48.244
47.442
46.644
46.0354
45.685
45.5882
45.6583
45.8106
45.9887
46.156
46.2848
46.362
46.3865
46.3678
46.3166
46.2459
46.1656
46.0848
46.0085
45.9405
45.8813
45.8318
45.7905
45.7568
45.7287
45.7054
45.6846
45.6658
45.6466
45.6266
45.6038
45.5778
45.547
45.5111
45.4688
45.4206
45.3659
45.3055
45.2398
45.1699
45.0965
45.0212
44.9449
44.8695
44.7964
44.7271
44.6626
44.6032
44.5488
44.4983
44.4506
44.4036
44.3559
44.3053
44.2506
44.1899
44.1225
44.0476
43.9656
43.8774
43.7845
43.6889
43.5928
43.4989
43.4095
43.3278
43.2562
43.1976
43.1537
43.1256
43.1127
43.112
43.1192
43.1303
43.143
43.1543
43.1628
43.1648
43.1591
43.1439
43.1199
43.0861
43.0437
42.9959
42.9446
42.8912
42.8343
42.7792
42.7316
42.7066
42.7062
42.7334
42.7849
42.8577
42.9391
43.0238
43.1093
43.1893
43.264
43.3303
43.39
43.4433
43.4962
43.5474
43.5993
43.652
43.7037
43.7466
43.7813
43.8065
43.8149
43.8092
43.7866
43.7649
43.7407
43.7258
43.7167
43.7185
43.7313
43.7612
43.8029
43.8597
43.9272
44.0033
44.084
44.1714
44.2685
44.3779
44.4943
44.6179
44.7388
44.8632
44.9764
45.1006
45.2097
45.3297
45.4243
45.5244
45.5979
45.6816
45.7562
45.8615
45.9656
46.104
46.2372
46.3773
46.4883
46.6049
46.6849
46.8042
46.9044
47.0625
47.1746
47.3918
47.536
47.7689
47.9118
48.1442
48.2225
48.4255
48.4526
48.6341
48.6051
48.7723
48.712
48.8573
48.7733
48.8958
48.7983
48.9146
48.8728
49.0002
48.9808
49.0943
49.056
49.1399
49.0659
49.1168
49.0009
49.0622
48.9084
48.9603
48.7197
48.7685
48.4038
48.4526
47.8829
47.8371
46.9466
46.6665
45.2624
44.4963
42.4767
40.7675
38.2244
34.8998
31.7618
26.7086
22.0663
49.7399
49.3031
47.6892
46.3566
45.5363
45.2093
45.2554
45.4967
45.7903
46.0579
46.2681
46.4115
46.4868
46.5015
46.4689
46.4047
46.3232
46.237
46.154
46.0797
46.0162
45.9642
45.9227
45.8903
45.865
45.8449
45.8279
45.8125
45.7972
45.781
45.7626
45.7417
45.7173
45.6893
45.6568
45.6197
45.5776
45.5306
45.4786
45.4224
45.3621
45.2989
45.2333
45.1666
45.0995
45.0338
44.9698
44.9092
44.8515
44.7977
44.7465
44.6983
44.651
44.6043
44.5558
44.5052
44.4501
44.3905
44.3248
44.2539
44.1774
44.0972
44.0143
43.9316
43.8502
43.7733
43.7022
43.64
43.5876
43.5479
43.5197
43.5037
43.4958
43.4931
43.4916
43.4916
43.4905
43.4889
43.4822
43.4682
43.4445
43.4114
43.3671
43.3131
43.2537
43.1896
43.1238
43.0526
42.9822
42.9213
42.8854
42.8799
42.9057
42.9593
43.0316
43.1118
43.1936
43.2747
43.3494
43.419
43.4812
43.5409
43.5965
43.6557
43.71
43.768
43.826
43.8804
43.9251
43.9601
43.9862
43.9961
43.9906
43.9704
43.9508
43.9358
43.9343
43.9451
43.9661
44.0039
44.0581
44.1273
44.2058
44.2946
44.3855
44.4793
44.5773
44.6828
44.7987
44.9192
45.0421
45.1653
45.2859
45.4064
45.5295
45.6401
45.7592
45.8546
45.9461
46.0204
46.095
46.1714
46.2815
46.3861
46.5364
46.6809
46.8224
46.9322
47.0511
47.1178
47.2373
47.3332
47.4962
47.6052
47.8313
47.9755
48.2074
48.3535
48.5985
48.6624
48.8717
48.8807
49.0647
49.0242
49.1827
49.1236
49.2476
49.1541
49.2481
49.1445
49.2419
49.2214
49.3413
49.336
49.4308
49.3916
49.457
49.3425
49.3554
49.1907
49.1895
48.9564
48.9211
48.5754
48.5257
48.0636
48.0168
47.3474
47.1844
46.2318
45.8206
44.4521
43.5825
41.8092
40.0742
38.0566
35.0281
32.366
28.1755
23.9755
50.2612
49.767
47.8632
46.2631
45.2964
44.9508
45.0659
45.4112
45.7988
46.135
46.3846
46.5438
46.6166
46.6184
46.5682
46.4885
46.3958
46.304
46.2198
46.1482
46.0896
46.0447
46.0107
45.9866
45.9686
45.9555
45.9439
45.9333
45.9211
45.9075
45.8908
45.8716
45.8487
45.823
45.7933
45.7604
45.723
45.682
45.6365
45.5877
45.535
45.48
45.4221
45.3634
45.3034
45.2442
45.1853
45.1287
45.0736
45.0219
44.972
44.9252
44.8793
44.835
44.7898
44.744
44.6949
44.643
44.5859
44.525
44.4593
44.3909
44.3197
44.2491
44.1795
44.1145
44.054
44.0011
43.9552
43.9196
43.8922
43.8735
43.8586
43.8466
43.8336
43.8217
43.8101
43.8002
43.7861
43.766
43.7365
43.6968
43.6441
43.5807
43.51
43.435
43.3577
43.2738
43.1942
43.1244
43.0834
43.0771
43.106
43.1628
43.2363
43.3149
43.395
43.4729
43.5452
43.6117
43.6754
43.7419
43.8072
43.8745
43.9361
44.0017
44.0637
44.1176
44.1606
44.1943
44.2216
44.2331
44.2305
44.2167
44.2062
44.2072
44.2242
44.257
44.3035
44.37
44.4543
44.5549
44.6595
44.7733
44.8822
44.9922
45.1027
45.2162
45.338
45.4577
45.5813
45.7034
45.8234
45.9524
46.0738
46.1913
46.3123
46.406
46.496
46.5713
46.6398
46.726
46.8458
46.9547
47.1171
47.2764
47.4326
47.5252
47.6743
47.7122
47.848
47.935
48.0953
48.2151
48.4416
48.5752
48.8216
48.9542
49.2216
49.2521
49.4981
49.4713
49.6745
49.5958
49.7768
49.7056
49.8443
49.7054
49.791
49.6832
49.783
49.7741
49.8858
49.8927
49.9767
49.9334
49.9882
49.8039
49.8044
49.5814
49.5275
49.2031
49.1188
48.6419
48.5192
48.0111
47.8834
47.2146
46.9909
45.9859
45.5177
44.2152
43.3037
41.7888
40.0877
38.41
35.7076
33.2715
29.7271
25.9378
50.5144
50.0633
48.0785
46.357
45.2895
44.8806
44.9899
45.3763
45.8189
46.2024
46.4831
46.6567
46.729
46.7208
46.6563
46.5635
46.4615
46.3652
46.2805
46.212
46.1587
46.1205
46.0939
46.0771
46.0657
46.0583
46.0512
46.0441
46.0346
46.0232
46.0081
45.9905
45.9694
45.9459
45.9187
45.8891
45.8557
45.8195
45.7793
45.7366
45.6903
45.642
45.5907
45.5385
45.4845
45.431
45.3771
45.325
45.2737
45.2252
45.178
45.1339
45.0911
45.0504
45.0097
44.9693
44.9265
44.8817
44.8327
44.7811
44.7252
44.6674
44.6071
44.5479
44.4894
44.4352
44.3851
44.3414
44.3025
44.2717
44.2456
44.2234
44.201
44.1799
44.1574
44.1354
44.115
44.0991
44.0809
44.0579
44.0255
43.9822
43.9253
43.8566
43.7779
43.6919
43.6044
43.5094
43.4238
43.3482
43.3065
43.3012
43.3371
43.3994
43.4771
43.5556
43.6375
43.7132
43.7842
43.8493
43.9189
43.9957
44.0748
44.1526
44.2241
44.2951
44.3592
44.4121
44.4545
44.4884
44.5167
44.5297
44.5343
44.5322
44.5376
44.5605
44.6026
44.6628
44.7386
44.8359
44.9523
45.0844
45.2191
45.3578
45.488
45.6165
45.7396
45.8587
45.9816
46.0986
46.2215
46.339
46.4632
46.5985
46.7242
46.8488
46.9748
47.0694
47.1658
47.2415
47.3158
47.41
47.5453
47.6625
47.8382
48.0087
48.1961
48.2614
48.4635
48.4521
48.6189
48.6865
48.8676
48.9731
49.211
49.3147
49.5967
49.6998
50.0091
49.9771
50.2979
50.1887
50.4792
50.3035
50.5681
50.4608
50.6591
50.4259
50.5356
50.3901
50.5336
50.52
50.6554
50.6428
50.7366
50.6584
50.7213
50.4404
50.4587
50.1826
50.073
49.6405
49.4987
48.9221
48.813
48.2836
48.1568
47.4172
47.1932
46.1203
45.6332
44.4089
43.4723
42.174
40.556
39.0495
36.6502
34.3344
31.2407
27.8362
50.672
50.2446
48.234
46.4539
45.3338
44.8835
44.983
45.3871
45.8589
46.2687
46.567
46.7484
46.819
46.8022
46.7273
46.6261
46.5192
46.4218
46.339
46.2746
46.2268
46.1951
46.1751
46.1643
46.1582
46.1549
46.1511
46.1464
46.1387
46.1288
46.1152
46.0992
46.0798
46.0584
46.0338
46.0072
45.9774
45.9453
45.9098
45.8721
45.8311
45.7883
45.7429
45.6965
45.6483
45.6002
45.5515
45.5041
45.4573
45.4129
45.3699
45.3296
45.2906
45.2541
45.2182
45.1835
45.1472
45.1098
45.0692
45.0267
44.9807
44.9332
44.884
44.8359
44.7879
44.7436
44.7034
44.6687
44.6366
44.6093
44.5831
44.5566
44.5271
44.4979
44.467
44.4374
44.4115
44.3916
44.3721
44.3509
44.3208
44.2786
44.2218
44.1511
44.0686
43.9746
43.8787
43.7755
43.6866
43.6078
43.5715
43.5671
43.6113
43.6784
43.7614
43.84
43.9272
44.0034
44.0764
44.1409
44.2211
44.3092
44.4036
44.4906
44.5711
44.644
44.709
44.761
44.8062
44.8427
44.8747
44.8932
44.9117
44.9244
44.9547
45.0027
45.0788
45.1675
45.2793
45.4079
45.5589
45.7182
45.8844
46.0422
46.1996
46.3431
46.4807
46.6026
46.7262
46.8343
46.955
47.0659
47.2006
47.3356
47.4758
47.6055
47.7386
47.8413
47.9475
48.0269
48.1184
48.2202
48.377
48.5009
48.6928
48.8653
49.0897
49.1383
49.3833
49.3227
49.5475
49.5653
49.8041
49.857
50.1336
50.1968
50.5229
50.5817
50.9211
50.8291
51.2226
51.0482
51.4185
51.1687
51.556
51.3839
51.6591
51.3185
51.4981
51.2772
51.5108
51.4379
51.6312
51.5753
51.6924
51.5838
51.6535
51.2557
51.2751
50.9457
50.7415
50.2911
50.09
49.5193
49.4491
48.8208
48.6938
47.8689
47.6999
46.5619
46.0477
44.9034
43.9588
42.8008
41.3152
39.8523
37.6856
35.4717
32.6927
29.6255
50.7309
50.303
48.2895
46.5088
45.393
44.9494
45.0591
45.4728
45.9505
46.3602
46.6543
46.8279
46.8886
46.8622
46.7806
46.6763
46.5699
46.4754
46.3975
46.3387
46.2972
46.2714
46.2567
46.2502
46.2474
46.2465
46.2446
46.2412
46.2349
46.2261
46.214
46.1996
46.1823
46.1631
46.1412
46.1175
46.0911
46.0627
46.0316
45.9984
45.9624
45.9246
45.8843
45.8429
45.8
45.7571
45.7138
45.6716
45.6303
45.5909
45.5528
45.517
45.4828
45.4511
45.4205
45.3913
45.3616
45.3317
45.2999
45.2666
45.2305
45.1933
45.1555
45.1187
45.082
45.0482
45.0183
44.9916
44.9647
44.9388
44.9114
44.8801
44.8437
44.8051
44.765
44.729
44.6999
44.6805
44.6658
44.6514
44.6288
44.5943
44.5438
44.4761
44.3923
44.2933
44.1912
44.0846
43.9959
43.9211
43.8951
43.8923
43.9446
44.0116
44.0968
44.171
44.2648
44.3428
44.4224
44.4912
44.5894
44.6911
44.8033
44.8972
44.9824
45.0477
45.1146
45.1624
45.2157
45.2571
45.2983
45.3258
45.364
45.3982
45.4629
45.5403
45.6567
45.7758
45.9286
46.0867
46.2736
46.4569
46.6554
46.8317
47.013
47.1668
47.3214
47.4459
47.5736
47.677
47.7927
47.8991
48.0415
48.1753
48.3284
48.4687
48.6118
48.7271
48.8444
48.9343
49.0411
49.1509
49.3217
49.4636
49.6621
49.8354
50.0911
50.1645
50.3722
50.2962
50.6034
50.5462
50.8492
50.8341
51.1796
51.2083
51.5635
51.6116
51.9251
51.8078
52.2592
52.0591
52.4611
52.2
52.6773
52.4626
52.7742
52.3613
52.5883
52.3113
52.6667
52.5468
52.7875
52.6788
52.8203
52.708
52.6761
52.2565
52.2405
51.7806
51.6004
51.149
50.8945
50.3407
50.2117
49.566
49.4475
48.6325
48.316
47.2451
46.6994
45.6376
44.7292
43.5918
42.2306
40.7436
38.7629
36.6527
34.1015
31.3098
50.6817
50.2454
48.2634
46.5427
45.4872
45.0994
45.2402
45.6514
46.1058
46.4846
46.7489
46.8961
46.937
46.8993
46.815
46.7134
46.6135
46.5267
46.4571
46.406
46.3716
46.3511
46.3404
46.3362
46.335
46.3348
46.3334
46.3305
46.325
46.3172
46.3067
46.2941
46.2791
46.2623
46.2434
46.2227
46.2
46.1755
46.1487
46.1199
46.0885
46.0553
46.02
45.9835
45.9461
45.9087
45.8714
45.8352
45.7998
45.7659
45.7335
45.703
45.6745
45.6485
45.624
45.6008
45.5779
45.5552
45.5321
45.5083
45.4825
45.4555
45.4291
45.4037
45.3788
45.3566
45.3369
45.3174
45.2954
45.2711
45.2415
45.2039
45.1597
45.1126
45.0661
45.027
44.9979
44.9811
44.9736
44.9692
44.9585
44.9373
44.899
44.8385
44.7566
44.6582
44.5549
44.4498
44.3631
44.2975
44.2821
44.2856
44.3433
44.4049
44.4851
44.5566
44.6603
44.7416
44.8311
44.9111
45.0348
45.1511
45.2824
45.3791
45.4657
45.5194
45.5833
45.6272
45.6933
45.7381
45.7934
45.8343
45.9004
45.9633
46.0679
46.1786
46.3378
46.4922
46.689
46.8769
47.0997
47.3031
47.5275
47.718
47.9218
48.0834
48.254
48.3828
48.5179
48.617
48.7348
48.843
48.9911
49.1324
49.2996
49.448
49.6028
49.7329
49.8587
49.9602
50.0834
50.2038
50.3807
50.5425
50.7438
50.9367
51.1854
51.3192
51.4421
51.3978
51.7238
51.613
51.9692
51.9368
52.3447
52.3574
52.689
52.7652
53.0368
52.9471
53.3658
53.175
53.6417
53.435
53.8946
53.7429
53.9678
53.5459
53.836
53.4793
53.9513
53.7811
54.0642
53.9441
54.0711
53.9191
53.8377
53.4156
53.3276
52.7748
52.6308
52.1069
51.8187
51.3938
51.1631
50.6925
50.29
49.5815
49.0879
48.1368
47.5604
46.5588
45.7044
44.5157
43.2607
41.705
39.8844
37.8615
35.4845
32.9136
50.4787
50.038
48.1591
46.581
45.6493
45.3578
45.5321
45.9163
46.3139
46.6313
46.8415
46.9457
46.9598
46.9114
46.8291
46.7366
46.649
46.5748
46.5167
46.4751
46.4476
46.4315
46.423
46.4193
46.4177
46.4167
46.4148
46.4116
46.4064
46.3995
46.3905
46.3797
46.3671
46.353
46.3373
46.3202
46.3014
46.281
46.2587
46.2343
46.2077
46.1791
46.1486
46.1173
46.086
46.0552
46.0245
45.9944
45.9652
45.9375
45.9111
45.8866
45.8643
45.8446
45.8268
45.8107
45.7959
45.7825
45.7694
45.7547
45.7384
45.7223
45.7074
45.6936
45.6811
45.6702
45.6598
45.6472
45.6301
45.6071
45.5756
45.5348
45.4857
45.4318
45.3796
45.3384
45.3125
45.3033
45.3067
45.3155
45.3209
45.3165
45.2929
45.2429
45.166
45.0736
44.9717
44.8726
44.7929
44.7432
44.7349
44.7413
44.7983
44.856
44.9311
45.0124
45.1278
45.2187
45.3237
45.4268
45.5727
45.7001
45.8436
45.9422
46.0282
46.0714
46.1331
46.1771
46.2536
46.3069
46.3822
46.4421
46.5387
46.6331
46.7757
46.9215
47.1218
47.3121
47.5483
47.7676
48.0207
48.2459
48.4897
48.6941
48.9137
49.0833
49.2668
49.4057
49.5472
49.6479
49.7721
49.8881
50.0484
50.1991
50.3828
50.543
50.7086
50.8526
50.9795
51.0957
51.224
51.3629
51.5398
51.7322
51.924
52.1442
52.3738
52.5405
52.5889
52.6624
52.8931
52.7919
53.1755
53.1749
53.5971
53.6104
53.9243
54.0427
54.2152
54.2322
54.5223
54.4198
54.9239
54.8417
55.2236
55.1045
55.2681
54.9054
55.1724
54.9246
55.3087
55.1124
55.4029
55.3117
55.3999
55.2227
55.0237
54.6058
54.4873
53.9101
53.7216
53.2421
52.9006
52.6427
52.2198
51.9381
51.2539
50.782
49.9871
49.2164
48.5567
47.6616
46.8305
45.5697
44.3869
42.7367
41.0431
39.0685
36.8366
34.44
50.0149
49.5987
47.9848
46.6779
45.9449
45.7585
45.9354
46.2518
46.5563
46.7843
46.9214
46.9741
46.9608
46.9054
46.8301
46.7517
46.6804
46.6214
46.5761
46.5437
46.5219
46.5082
46.4999
46.4949
46.4916
46.4888
46.4857
46.4819
46.4771
46.471
46.4635
46.4547
46.4445
46.4332
46.4207
46.4072
46.3923
46.3762
46.3585
46.3387
46.3168
46.2933
46.2686
46.2431
46.2176
46.1932
46.1701
46.1476
46.1253
46.1036
46.0832
46.0653
46.0504
46.038
46.0275
46.0195
46.0136
46.0095
46.0064
46.003
45.9984
45.9931
45.9887
45.986
45.9847
45.9835
45.9811
45.9748
45.9625
45.9424
45.9111
45.8679
45.8159
45.7585
45.7032
45.6631
45.6445
45.6468
45.6642
45.6888
45.7115
45.7237
45.7136
45.6741
45.6069
45.5256
45.4293
45.3454
45.2764
45.2427
45.2412
45.2582
45.312
45.361
45.4337
45.5368
45.6669
45.7763
45.8986
46.0354
46.194
46.3332
46.4811
46.5835
46.6666
46.7132
46.7708
46.8228
46.908
46.98
47.0776
47.1669
47.2919
47.4183
47.5897
47.77
47.9969
48.2243
48.4845
48.7379
49.0084
49.2573
49.5135
49.738
49.9692
50.1528
50.3445
50.4959
50.6492
50.757
50.8948
51.0214
51.189
51.358
51.5515
51.7202
51.8921
52.0414
52.1713
52.3048
52.4412
52.5991
52.7847
53.0099
53.1915
53.4463
53.6246
53.7796
53.8411
54.0002
54.0915
54.1806
54.4823
54.5535
54.9434
54.9684
55.2284
55.3896
55.5084
55.5976
55.7484
55.8872
56.3004
56.2897
56.5598
56.4683
56.5794
56.3804
56.6003
56.4984
56.697
56.5922
56.7549
56.7039
56.6794
56.4886
56.2594
55.9378
55.6975
55.2211
54.9197
54.5487
54.1332
53.9635
53.4199
53.2095
52.2711
52.034
51.0035
50.4494
49.65
48.9299
48.0154
46.7358
45.5854
43.8537
42.2334
40.2733
38.1761
35.9102
49.2547
48.932
47.7957
46.8877
46.395
46.2847
46.4081
46.6082
46.789
46.9133
46.975
46.9813
46.9476
46.8911
46.8264
46.7639
46.7091
46.6644
46.6298
46.6041
46.5855
46.5722
46.5626
46.5556
46.5501
46.5455
46.5414
46.5373
46.5328
46.5277
46.5215
46.5144
46.5064
46.4976
46.4879
46.4777
46.4671
46.4555
46.4422
46.427
46.4101
46.3917
46.3724
46.3535
46.3348
46.317
46.3007
46.286
46.2719
46.2574
46.2437
46.2335
46.2273
46.2236
46.2217
46.2222
46.2253
46.2306
46.2363
46.241
46.2459
46.2522
46.2596
46.2673
46.2748
46.281
46.2849
46.2836
46.2755
46.2585
46.2294
46.1889
46.138
46.0812
46.0297
45.9973
45.9905
46.006
46.0357
46.0724
46.1078
46.132
46.1332
46.1058
46.0534
45.9907
45.9056
45.8481
45.7984
45.7838
45.7865
45.8153
45.8614
45.9162
45.9986
46.1194
46.257
46.3928
46.5407
46.711
46.8732
47.025
47.1677
47.2802
47.3638
47.428
47.4861
47.5573
47.6457
47.745
47.8593
47.9859
48.1313
48.2951
48.4854
48.7025
48.9439
49.2014
49.4711
49.75
50.0239
50.2985
50.556
50.7981
51.0302
51.2388
51.4368
51.6172
51.7739
51.9108
52.0502
52.1925
52.3579
52.5496
52.7414
52.9322
53.1008
53.2633
53.4017
53.5597
53.7034
53.8868
54.0776
54.3172
54.4984
54.7985
54.904
55.086
55.098
55.3207
55.3918
55.6632
55.8184
56.018
56.2593
56.3438
56.5724
56.7766
56.7948
57.0428
57.1026
57.4701
57.6099
57.6969
57.8301
57.8324
57.9217
57.9298
58.0068
57.9897
58.0293
58.0725
58.0638
58.061
57.9229
57.7789
57.4407
57.309
56.864
56.6154
56.1204
55.9215
55.4237
55.3442
54.5763
54.351
53.3562
53.2244
52.042
51.7818
50.7686
50.1939
49.1028
47.9435
46.7488
44.9957
43.3934
41.4591
39.475
37.2926
48.4198
48.2523
47.699
47.228
46.9474
46.8445
46.8555
46.9121
46.9675
46.9995
47.0008
46.9749
46.9305
46.8775
46.824
46.775
46.733
46.6985
46.6706
46.6484
46.6307
46.6166
46.6053
46.5964
46.5893
46.5836
46.5787
46.5744
46.5703
46.5659
46.5608
46.5549
46.5485
46.5421
46.5355
46.5281
46.5205
46.5126
46.504
46.4934
46.481
46.4682
46.4553
46.4422
46.4298
46.4197
46.4118
46.405
46.3985
46.3921
46.3876
46.3866
46.3888
46.3933
46.4001
46.4093
46.4206
46.4335
46.4474
46.4612
46.4737
46.4861
46.4997
46.5145
46.5284
46.5391
46.5459
46.5481
46.5441
46.531
46.5074
46.4747
46.4337
46.3887
46.3496
46.3297
46.3355
46.3621
46.401
46.443
46.4825
46.5137
46.5258
46.5147
46.482
46.4482
46.3899
46.3635
46.3324
46.3383
46.3502
46.3982