/*--------------------------------*- C++ -*----------------------------------*\
| =========                 |                                                 |
| \\      /  F ield         | OpenFOAM: The Open Source CFD Toolbox           |
|  \\    /   O peration     | Version:  2.4.0                                 |
|   \\  /    A nd           | Web:      www.OpenFOAM.org                      |
|    \\/     M anipulation  |                                                 |
\*---------------------------------------------------------------------------*/
FoamFile
{
    version     2.0;
    format      ascii;
    class       volSymmTensorField;
    location    "1.92";
    object      UPrime2Mean;
}
// * * * * * * * * * * * * * * * * * * * * * * * * * * * * * * * * * * * * * //

dimensions      [0 2 -2 0 0 0 0];

internalField   nonuniform List<symmTensor> 
8800
(
(0.000902437 4.76444e-05 0 0.000100722 0 0)
(0.016816 -0.000652737 0 3.80826e-05 0 0)
(0.0330434 -6.1054e-05 0 1.04523e-05 0 0)
(0.0417406 8.45586e-05 0 5.84572e-06 0 0)
(0.0473663 5.61397e-05 0 4.92452e-06 0 0)
(0.0531904 2.04441e-05 0 6.31861e-06 0 0)
(0.0561834 -1.07597e-05 0 7.40319e-06 0 0)
(0.0590372 -5.10613e-05 0 9.63162e-06 0 0)
(0.0616367 -6.9477e-05 0 1.02254e-05 0 0)
(0.0626716 -9.54518e-05 0 1.26925e-05 0 0)
(0.0655881 -0.000109763 0 1.27273e-05 0 0)
(0.065663 -0.000138107 0 1.58342e-05 0 0)
(0.0689207 -0.000161448 0 1.53423e-05 0 0)
(0.0689237 -0.000183266 0 1.90411e-05 0 0)
(0.0731081 -0.00026154 0 1.82845e-05 0 0)
(0.0733523 -0.000197166 0 2.35827e-05 0 0)
(0.0822393 -0.0007135 0 2.54039e-05 0 0)
(0.080426 0.000781479 0 6.73432e-05 0 0)
(0.131217 -0.00884279 0 0.00092137 0 0)
(0.138292 0.0156526 0 0.0031136 0 0)
(0.00543004 0.00138737 0 0.000613671 0 0)
(0.00156773 -0.000635351 0 0.000815612 0 0)
(0.0107946 -0.00106942 0 0.00035518 0 0)
(0.0170636 -0.00128103 0 0.000153805 0 0)
(0.0256074 -0.00116926 0 9.76216e-05 0 0)
(0.037801 -0.00110761 0 8.34927e-05 0 0)
(0.0484719 -0.00140418 0 9.77573e-05 0 0)
(0.0568201 -0.000979834 0 7.53355e-05 0 0)
(0.0727305 -0.00149719 0 9.9765e-05 0 0)
(0.0721963 -0.00111644 0 8.45102e-05 0 0)
(0.0951229 -0.0016616 0 0.000112443 0 0)
(0.0861456 -0.00144376 0 0.000107307 0 0)
(0.115408 -0.00213427 0 0.000146956 0 0)
(0.0998357 -0.00187535 0 0.000144056 0 0)
(0.136414 -0.00293115 0 0.000211881 0 0)
(0.113477 -0.00292297 0 0.000242484 0 0)
(0.163991 -0.00324903 0 0.000327067 0 0)
(0.135118 -0.00698728 0 0.000865595 0 0)
(0.227429 -0.00370021 0 0.000656451 0 0)
(0.221439 -0.0291079 0 0.0109859 0 0)
(0.0136699 0.000554452 0 0.000416702 0 0)
(0.0136312 0.000106761 0 0.000986519 0 0)
(0.0350397 -8.40505e-05 0 0.000649988 0 0)
(0.0380898 -0.00103509 0 0.000379222 0 0)
(0.0537552 -0.00104077 0 0.000311183 0 0)
(0.0625802 -0.00156888 0 0.000297328 0 0)
(0.0816978 -0.00314784 0 0.00035673 0 0)
(0.086414 -0.00195642 0 0.000251903 0 0)
(0.121451 -0.00448717 0 0.000341565 0 0)
(0.11022 -0.00288275 0 0.000234943 0 0)
(0.166128 -0.00553888 0 0.000353441 0 0)
(0.134 -0.00404511 0 0.000280474 0 0)
(0.211987 -0.00737785 0 0.000491413 0 0)
(0.155146 -0.00519606 0 0.000407969 0 0)
(0.261595 -0.0105798 0 0.000832709 0 0)
(0.168761 -0.0064281 0 0.000713815 0 0)
(0.319961 -0.0143372 0 0.0014539 0 0)
(0.181799 -0.00862861 0 0.00182207 0 0)
(0.398919 -0.018669 0 0.00330486 0 0)
(0.226666 -0.0258453 0 0.0135152 0 0)
(0.0671428 -0.000343659 0 0.000340709 0 0)
(0.0785197 -8.23625e-05 0 0.000815214 0 0)
(0.121728 -0.001109 0 0.000676673 0 0)
(0.127026 -0.00211414 0 0.000479562 0 0)
(0.157156 -0.00140408 0 0.000491827 0 0)
(0.163373 -0.00257223 0 0.00052047 0 0)
(0.197852 -0.00496941 0 0.000696095 0 0)
(0.194301 -0.00256236 0 0.000526369 0 0)
(0.249232 -0.00838659 0 0.000806815 0 0)
(0.222339 -0.00453107 0 0.000532122 0 0)
(0.307653 -0.0111996 0 0.000889383 0 0)
(0.248979 -0.00723646 0 0.000647676 0 0)
(0.370476 -0.0152793 0 0.00124635 0 0)
(0.272373 -0.00982246 0 0.000918563 0 0)
(0.439791 -0.0219126 0 0.00207596 0 0)
(0.284657 -0.0122747 0 0.00150391 0 0)
(0.520295 -0.0296937 0 0.0033391 0 0)
(0.282598 -0.0158288 0 0.00373558 0 0)
(0.621631 -0.0355345 0 0.00557907 0 0)
(0.27887 -0.0310554 0 0.0209357 0 0)
(0.262207 -0.00115459 0 0.000570197 0 0)
(0.259636 0.000185495 0 0.00109139 0 0)
(0.290231 -0.00388512 0 0.00130643 0 0)
(0.279498 -0.00396218 0 0.000978614 0 0)
(0.302669 -0.00413126 0 0.00107336 0 0)
(0.295101 -0.00560624 0 0.000988978 0 0)
(0.324295 -0.00838292 0 0.00152463 0 0)
(0.309872 -0.00511799 0 0.00112132 0 0)
(0.355989 -0.0129975 0 0.00192683 0 0)
(0.325148 -0.00719818 0 0.00129505 0 0)
(0.391139 -0.0168086 0 0.00225414 0 0)
(0.341372 -0.0107002 0 0.00155016 0 0)
(0.426989 -0.0219732 0 0.00297573 0 0)
(0.358201 -0.0140986 0 0.0019899 0 0)
(0.464363 -0.0302492 0 0.00435165 0 0)
(0.371068 -0.0176814 0 0.00272992 0 0)
(0.507 -0.0405771 0 0.00633884 0 0)
(0.374138 -0.0224864 0 0.00514337 0 0)
(0.562899 -0.0502487 0 0.00968357 0 0)
(0.362811 -0.0319032 0 0.0237595 0 0)
(0.328299 -0.00516426 0 0.00187013 0 0)
(0.281388 -0.00101291 0 0.00254574 0 0)
(0.274609 -0.00720067 0 0.00322282 0 0)
(0.235415 -0.00563571 0 0.00208721 0 0)
(0.243762 -0.00792625 0 0.00284943 0 0)
(0.223958 -0.00745533 0 0.00233742 0 0)
(0.229063 -0.0104997 0 0.00338267 0 0)
(0.214646 -0.00699769 0 0.0024555 0 0)
(0.224438 -0.0133936 0 0.00406007 0 0)
(0.21222 -0.00883067 0 0.00272562 0 0)
(0.222606 -0.0161107 0 0.0045992 0 0)
(0.214599 -0.0118266 0 0.00325826 0 0)
(0.22102 -0.0191176 0 0.00560789 0 0)
(0.22268 -0.0147279 0 0.0039346 0 0)
(0.217459 -0.0236819 0 0.00756529 0 0)
(0.235992 -0.0182457 0 0.00491052 0 0)
(0.211184 -0.0290224 0 0.0105977 0 0)
(0.254541 -0.0229865 0 0.00742282 0 0)
(0.204372 -0.0332989 0 0.0172053 0 0)
(0.28147 -0.0312117 0 0.0211884 0 0)
(0.152028 -0.00845233 0 0.00349297 0 0)
(0.135007 -0.00724181 0 0.00516357 0 0)
(0.126075 -0.0066994 0 0.00504079 0 0)
(0.116657 -0.00953393 0 0.00428064 0 0)
(0.113929 -0.00856499 0 0.00521055 0 0)
(0.115479 -0.0088086 0 0.00464945 0 0)
(0.111285 -0.00915541 0 0.00523879 0 0)
(0.113303 -0.00887379 0 0.00474935 0 0)
(0.113602 -0.00974918 0 0.00578912 0 0)
(0.115599 -0.00967853 0 0.00512369 0 0)
(0.113867 -0.0111679 0 0.00648666 0 0)
(0.121966 -0.010678 0 0.00580883 0 0)
(0.117074 -0.0117115 0 0.00764515 0 0)
(0.131219 -0.0120442 0 0.00685048 0 0)
(0.119168 -0.011869 0 0.00967416 0 0)
(0.144577 -0.0136913 0 0.0083171 0 0)
(0.120605 -0.0106014 0 0.0129867 0 0)
(0.164328 -0.0154093 0 0.0120614 0 0)
(0.123041 -0.00465164 0 0.0207709 0 0)
(0.195109 -0.0136925 0 0.0317456 0 0)
(0.133458 -0.00990567 0 0.00431451 0 0)
(0.162772 -0.0158716 0 0.00863279 0 0)
(0.130439 -0.0072595 0 0.00678284 0 0)
(0.165092 -0.0119162 0 0.00587886 0 0)
(0.14309 -0.00992685 0 0.00682522 0 0)
(0.162658 -0.00974642 0 0.00676874 0 0)
(0.159955 -0.00832908 0 0.0062716 0 0)
(0.166433 -0.00988977 0 0.00686405 0 0)
(0.172092 -0.00781079 0 0.00700992 0 0)
(0.171119 -0.00937892 0 0.00709157 0 0)
(0.183457 -0.00751568 0 0.00758526 0 0)
(0.176825 -0.00889809 0 0.0080785 0 0)
(0.198868 -0.00587723 0 0.00865346 0 0)
(0.185898 -0.00882962 0 0.00926595 0 0)
(0.210445 -0.00311716 0 0.0105674 0 0)
(0.197852 -0.008331 0 0.0110631 0 0)
(0.225944 0.00182446 0 0.0135578 0 0)
(0.214118 -0.00677916 0 0.0160642 0 0)
(0.241955 0.012751 0 0.0213202 0 0)
(0.237663 -0.000143385 0 0.0371614 0 0)
(0.228462 -0.00706201 0 0.00414138 0 0)
(0.255354 -0.015069 0 0.0110301 0 0)
(0.220473 -0.00469392 0 0.00771471 0 0)
(0.227121 -0.00750096 0 0.00683784 0 0)
(0.250559 -0.00562723 0 0.00680202 0 0)
(0.215717 -0.00564697 0 0.00759838 0 0)
(0.280494 -0.00359333 0 0.0063534 0 0)
(0.214361 -0.00548988 0 0.00765964 0 0)
(0.295977 -0.00163613 0 0.00679832 0 0)
(0.217906 -0.00536731 0 0.00817353 0 0)
(0.305857 0.000212651 0 0.00731562 0 0)
(0.22612 -0.00426226 0 0.00898438 0 0)
(0.318939 0.0027351 0 0.00838073 0 0)
(0.237269 -0.00363384 0 0.0102781 0 0)
(0.334085 0.00644522 0 0.00962603 0 0)
(0.251346 -0.0022368 0 0.0120587 0 0)
(0.348716 0.0125045 0 0.0119938 0 0)
(0.27172 0.000513709 0 0.0166239 0 0)
(0.36503 0.0241185 0 0.018149 0 0)
(0.309253 0.00550097 0 0.0307868 0 0)
(0.255938 -0.00345241 0 0.00300973 0 0)
(0.28395 -0.00699367 0 0.00840933 0 0)
(0.274357 -0.000692025 0 0.00504302 0 0)
(0.235743 -0.00142692 0 0.00517081 0 0)
(0.294854 -0.000622282 0 0.00461753 0 0)
(0.227444 -0.000789417 0 0.00557429 0 0)
(0.304987 0.00117337 0 0.00431135 0 0)
(0.227401 -0.00052541 0 0.00577141 0 0)
(0.305005 0.00314791 0 0.00463133 0 0)
(0.231563 -0.000305117 0 0.00604149 0 0)
(0.310997 0.00416291 0 0.0050592 0 0)
(0.245023 0.000804973 0 0.00648809 0 0)
(0.318356 0.00658391 0 0.00565135 0 0)
(0.260619 0.00156763 0 0.00731732 0 0)
(0.32685 0.00971048 0 0.00625506 0 0)
(0.28164 0.00369527 0 0.00840809 0 0)
(0.338332 0.0146391 0 0.0073616 0 0)
(0.315007 0.00791838 0 0.0111204 0 0)
(0.355085 0.0235121 0 0.0108704 0 0)
(0.382323 0.013202 0 0.0201651 0 0)
(0.173348 -0.00116999 0 0.00225113 0 0)
(0.198472 -0.00111551 0 0.00522661 0 0)
(0.188448 0.00184434 0 0.00356776 0 0)
(0.168163 0.00284877 0 0.00330047 0 0)
(0.196085 0.00181974 0 0.00395261 0 0)
(0.169955 0.00262702 0 0.00400345 0 0)
(0.197232 0.00305176 0 0.00384097 0 0)
(0.173163 0.00364411 0 0.00423336 0 0)
(0.197119 0.00432616 0 0.00401078 0 0)
(0.180981 0.00440785 0 0.00444112 0 0)
(0.196734 0.0054063 0 0.00431215 0 0)
(0.196809 0.00549025 0 0.00465787 0 0)
(0.201252 0.00726197 0 0.0046198 0 0)
(0.210104 0.00700566 0 0.00507906 0 0)
(0.206686 0.00940987 0 0.00497445 0 0)
(0.229626 0.00992451 0 0.00565349 0 0)
(0.21233 0.0124734 0 0.00566661 0 0)
(0.261075 0.0152528 0 0.00698538 0 0)
(0.217371 0.0182781 0 0.00793846 0 0)
(0.320003 0.0225203 0 0.0126547 0 0)
(0.0752636 -0.000286983 0 0.00198437 0 0)
(0.0846081 0.000598867 0 0.00430884 0 0)
(0.0760621 0.00120825 0 0.00334505 0 0)
(0.0799706 0.00231414 0 0.00327401 0 0)
(0.0809368 0.0012955 0 0.00360569 0 0)
(0.0843771 0.00209083 0 0.00382865 0 0)
(0.084454 0.00142816 0 0.00367139 0 0)
(0.0890425 0.00325739 0 0.00406124 0 0)
(0.0852776 0.0021311 0 0.00366724 0 0)
(0.0978232 0.00398606 0 0.0041059 0 0)
(0.0846004 0.00283005 0 0.00379012 0 0)
(0.108892 0.00474945 0 0.00419892 0 0)
(0.0879336 0.003612 0 0.00389949 0 0)
(0.119828 0.00576551 0 0.00436344 0 0)
(0.0911312 0.00417176 0 0.00393346 0 0)
(0.134509 0.00775034 0 0.0045382 0 0)
(0.0927364 0.00515199 0 0.00415916 0 0)
(0.15651 0.0111266 0 0.00525425 0 0)
(0.094037 0.00808887 0 0.00541334 0 0)
(0.197026 0.0159147 0 0.00881227 0 0)
(0.0249584 -9.01253e-05 0 0.00162848 0 0)
(0.0272614 0.000215301 0 0.00356522 0 0)
(0.0247817 -0.000277384 0 0.00292207 0 0)
(0.0323014 0.0006324 0 0.00269774 0 0)
(0.0297743 0.00024298 0 0.00274335 0 0)
(0.0338523 0.000779979 0 0.00289103 0 0)
(0.0325851 9.56559e-05 0 0.00288771 0 0)
(0.0379743 0.00134535 0 0.00319297 0 0)
(0.0338306 0.00020604 0 0.00282653 0 0)
(0.0433736 0.00188581 0 0.00304083 0 0)
(0.0342728 0.000806176 0 0.00277991 0 0)
(0.0478948 0.00222681 0 0.00305411 0 0)
(0.0363486 0.00109348 0 0.00287247 0 0)
(0.0534681 0.00260547 0 0.00296852 0 0)
(0.0391331 0.00126269 0 0.00269089 0 0)
(0.060039 0.0035746 0 0.00282557 0 0)
(0.0417139 0.00192547 0 0.00265355 0 0)
(0.0699372 0.00536694 0 0.00307187 0 0)
(0.0464966 0.00415787 0 0.00337913 0 0)
(0.0890918 0.00873225 0 0.0051915 0 0)
(0.00757059 -0.000208579 0 0.00117985 0 0)
(0.00550318 -0.00053822 0 0.00267698 0 0)
(0.00651669 -0.00118025 0 0.00238445 0 0)
(0.00966429 -0.00049222 0 0.00185491 0 0)
(0.00974091 -0.000191288 0 0.00191634 0 0)
(0.0109344 -0.000244367 0 0.00185575 0 0)
(0.0123156 -0.000272549 0 0.0019846 0 0)
(0.0134498 -0.000265309 0 0.00212819 0 0)
(0.014778 -0.000560075 0 0.00192426 0 0)
(0.0166864 -1.44062e-06 0 0.00190089 0 0)
(0.0160494 -0.000117423 0 0.00178317 0 0)
(0.0188011 0.000138288 0 0.0018329 0 0)
(0.0178497 -0.000108715 0 0.00183957 0 0)
(0.0220179 2.5494e-06 0 0.00175115 0 0)
(0.0206353 -2.44659e-05 0 0.00162885 0 0)
(0.025907 0.000435742 0 0.00153021 0 0)
(0.0242699 0.000600088 0 0.00147749 0 0)
(0.0324796 0.00169494 0 0.00164919 0 0)
(0.0317317 0.0027209 0 0.00193716 0 0)
(0.0454386 0.00571459 0 0.00325712 0 0)
(0.00633739 -0.000316681 0 0.00087509 0 0)
(0.00272483 -0.000750487 0 0.00210394 0 0)
(0.00382787 -0.00128926 0 0.00194282 0 0)
(0.00509075 -0.000856082 0 0.00140854 0 0)
(0.00655412 -0.000420679 0 0.00147144 0 0)
(0.00639624 -0.000414339 0 0.00141001 0 0)
(0.00794114 -0.000495587 0 0.00160627 0 0)
(0.00818786 -0.000829943 0 0.00171837 0 0)
(0.0103805 -0.000850538 0 0.00158769 0 0)
(0.0105438 -0.000601023 0 0.00149604 0 0)
(0.0122071 -0.000417861 0 0.00137853 0 0)
(0.0122049 -0.000389649 0 0.00136174 0 0)
(0.013932 -0.000369298 0 0.00134917 0 0)
(0.0144407 -0.000576515 0 0.00124949 0 0)
(0.0164652 -0.000379876 0 0.00113168 0 0)
(0.0172321 -0.000315848 0 0.00100217 0 0)
(0.0198037 0.000206717 0 0.000907516 0 0)
(0.0222116 0.000741437 0 0.00092836 0 0)
(0.0266221 0.00214155 0 0.00109754 0 0)
(0.0330508 0.004268 0 0.00180905 0 0)
(0.00775915 -0.000308598 0 0.000520869 0 0)
(0.00435859 -0.000214209 0 0.00138563 0 0)
(0.00449689 -0.000770754 0 0.00133054 0 0)
(0.00541566 -0.00058111 0 0.0009887 0 0)
(0.0071545 -0.000295795 0 0.0011147 0 0)
(0.0066273 -0.000131261 0 0.00101089 0 0)
(0.00855787 -0.000260109 0 0.00111646 0 0)
(0.00776128 -0.000313982 0 0.00120535 0 0)
(0.00950097 -0.000434355 0 0.00114341 0 0)
(0.00819867 -0.00012808 0 0.00106723 0 0)
(0.00984758 -0.000114141 0 0.000947176 0 0)
(0.0082482 6.94329e-05 0 0.000889435 0 0)
(0.00964469 1.38897e-05 0 0.00084191 0 0)
(0.00795685 -6.9591e-06 0 0.000777427 0 0)
(0.00935668 -3.14121e-06 0 0.000685482 0 0)
(0.00790125 2.84874e-05 0 0.000617351 0 0)
(0.00961885 0.000325167 0 0.00051583 0 0)
(0.00938418 0.000584389 0 0.0005224 0 0)
(0.0125831 0.00153719 0 0.000601848 0 0)
(0.0159513 0.002572 0 0.00100285 0 0)
(0.00671467 -0.000494545 0 0.000323877 0 0)
(0.00354461 9.95964e-07 0 0.000952403 0 0)
(0.00387888 -0.000281068 0 0.000812344 0 0)
(0.00518336 -0.000244664 0 0.000555389 0 0)
(0.00643306 -8.16933e-05 0 0.000664942 0 0)
(0.00560433 6.70851e-05 0 0.00063216 0 0)
(0.00632921 0.000127632 0 0.000657489 0 0)
(0.00496668 0.000393223 0 0.000668992 0 0)
(0.0048181 0.000394544 0 0.000607794 0 0)
(0.00390052 0.000677313 0 0.000548125 0 0)
(0.00354597 0.000592529 0 0.000479627 0 0)
(0.00345505 0.000787376 0 0.000443217 0 0)
(0.0028162 0.000646351 0 0.0004119 0 0)
(0.0034733 0.000756091 0 0.000382173 0 0)
(0.00278593 0.00051098 0 0.000331558 0 0)
(0.00410648 0.00064341 0 0.000310827 0 0)
(0.00368214 0.000379128 0 0.000264308 0 0)
(0.00552686 0.000671814 0 0.000268726 0 0)
(0.0062493 0.00065197 0 0.000368817 0 0)
(0.00913564 0.00133351 0 0.000513707 0 0)
(0.00537556 -0.000994683 0 0.00038028 0 0)
(0.00168668 -0.000290455 0 0.000966891 0 0)
(0.00183696 -4.14866e-05 0 0.000629468 0 0)
(0.00249248 0.000121789 0 0.000369134 0 0)
(0.00259456 0.000465951 0 0.000352553 0 0)
(0.00271595 0.000736868 0 0.000316035 0 0)
(0.00423158 0.00089457 0 0.000298632 0 0)
(0.0066489 0.00106059 0 0.000281123 0 0)
(0.00828849 0.000986364 0 0.000241916 0 0)
(0.0122894 0.00101999 0 0.0002118 0 0)
(0.0130393 0.000865616 0 0.000183833 0 0)
(0.0180775 0.000894364 0 0.000170891 0 0)
(0.017526 0.000728085 0 0.000164265 0 0)
(0.0233029 0.000773053 0 0.000152472 0 0)
(0.0216705 0.000469972 0 0.000136537 0 0)
(0.0275222 0.000592358 0 0.000129057 0 0)
(0.0252845 4.35223e-05 0 0.000116838 0 0)
(0.0296382 0.000446827 0 0.000124609 0 0)
(0.0280823 -0.000313329 0 0.000174178 0 0)
(0.0293528 0.000863357 0 0.000327011 0 0)
(0.00474143 -0.00148325 0 0.000600996 0 0)
(0.000817264 0.000573166 0 0.000804598 0 0)
(0.00445414 0.00113701 0 0.000341683 0 0)
(0.00886604 0.000998862 0 0.000142524 0 0)
(0.0138928 0.000976819 0 9.90965e-05 0 0)
(0.0203537 0.000882676 0 7.95439e-05 0 0)
(0.0264724 0.000740012 0 7.26156e-05 0 0)
(0.0330682 0.000636027 0 6.80426e-05 0 0)
(0.0370297 0.00050917 0 6.32696e-05 0 0)
(0.0428451 0.000455956 0 6.04032e-05 0 0)
(0.0446408 0.00036973 0 5.78936e-05 0 0)
(0.0501682 0.000368588 0 5.56362e-05 0 0)
(0.0502517 0.000288626 0 5.53946e-05 0 0)
(0.0558548 0.000308905 0 5.0674e-05 0 0)
(0.0545126 0.000147613 0 4.6755e-05 0 0)
(0.0597063 0.00018492 0 4.20782e-05 0 0)
(0.0570533 -0.000152163 0 4.02558e-05 0 0)
(0.0597415 6.88919e-05 0 4.01578e-05 0 0)
(0.0576527 -0.000594722 0 5.95898e-05 0 0)
(0.0537348 0.000355618 0 0.000176444 0 0)
(0.000878525 -5.18377e-05 0 9.9892e-05 0 0)
(0.0168108 0.000653944 0 3.69385e-05 0 0)
(0.0328011 5.98733e-05 0 9.42862e-06 0 0)
(0.0408523 -9.99807e-05 0 4.36545e-06 0 0)
(0.0468214 -7.35388e-05 0 3.75223e-06 0 0)
(0.051417 -5.62199e-05 0 4.11461e-06 0 0)
(0.0543467 -3.7344e-05 0 4.97887e-06 0 0)
(0.0568696 -1.62425e-05 0 5.34405e-06 0 0)
(0.0582498 -9.37332e-06 0 5.9092e-06 0 0)
(0.0600613 5.28293e-07 0 5.96104e-06 0 0)
(0.060641 -3.72043e-06 0 6.06826e-06 0 0)
(0.0621513 5.2642e-06 0 5.74715e-06 0 0)
(0.0622312 -6.29544e-06 0 5.5889e-06 0 0)
(0.0636269 2.1508e-06 0 4.93993e-06 0 0)
(0.0631611 -2.6215e-05 0 4.54005e-06 0 0)
(0.0641456 -2.28511e-05 0 3.7805e-06 0 0)
(0.062717 -7.65186e-05 0 3.44964e-06 0 0)
(0.0623292 -6.25245e-05 0 3.04117e-06 0 0)
(0.0605431 -0.000224892 0 3.86946e-06 0 0)
(0.0548225 0.000304609 0 2.19234e-05 0 0)
(0.260833 -0.125727 0 0.0784881 0 0)
(0.28376 -0.148839 0 0.110022 0 0)
(0.290071 -0.142526 0 0.131477 0 0)
(0.305385 -0.125718 0 0.14731 0 0)
(0.314165 -0.107265 0 0.156763 0 0)
(0.36759 -0.0939475 0 0.162784 0 0)
(0.39882 -0.0896625 0 0.168284 0 0)
(0.483282 -0.0986346 0 0.176609 0 0)
(0.528188 -0.111634 0 0.186795 0 0)
(0.614011 -0.130258 0 0.197625 0 0)
(0.64831 -0.142953 0 0.209266 0 0)
(0.72545 -0.15956 0 0.223906 0 0)
(0.75408 -0.167277 0 0.239283 0 0)
(0.83179 -0.182806 0 0.253476 0 0)
(0.866327 -0.192479 0 0.263346 0 0)
(0.950049 -0.215019 0 0.271799 0 0)
(0.987334 -0.234832 0 0.282644 0 0)
(1.07782 -0.268517 0 0.299173 0 0)
(1.11566 -0.293342 0 0.322432 0 0)
(1.22661 -0.32927 0 0.352132 0 0)
(1.28085 -0.35102 0 0.379612 0 0)
(1.41825 -0.389562 0 0.409239 0 0)
(1.48038 -0.413531 0 0.438204 0 0)
(1.63926 -0.458257 0 0.468511 0 0)
(1.711 -0.482972 0 0.497198 0 0)
(1.88479 -0.536836 0 0.53016 0 0)
(1.969 -0.563199 0 0.562659 0 0)
(2.14874 -0.633847 0 0.600293 0 0)
(2.24839 -0.667219 0 0.639741 0 0)
(2.42553 -0.753243 0 0.688382 0 0)
(2.54242 -0.79054 0 0.740765 0 0)
(2.72764 -0.882638 0 0.798429 0 0)
(2.86252 -0.920448 0 0.85487 0 0)
(3.0779 -1.02119 0 0.915624 0 0)
(3.22177 -1.06466 0 0.972799 0 0)
(3.46643 -1.17867 0 1.03474 0 0)
(3.58861 -1.22129 0 1.0891 0 0)
(3.84752 -1.34486 0 1.1495 0 0)
(3.93066 -1.37934 0 1.20229 0 0)
(4.19284 -1.50743 0 1.26533 0 0)
(4.22904 -1.52109 0 1.32206 0 0)
(4.48222 -1.64599 0 1.3853 0 0)
(4.4745 -1.63438 0 1.43925 0 0)
(4.73443 -1.75438 0 1.50239 0 0)
(4.70211 -1.73238 0 1.55592 0 0)
(4.99555 -1.85695 0 1.61898 0 0)
(4.95176 -1.83198 0 1.66883 0 0)
(5.29386 -1.9646 0 1.73782 0 0)
(5.24341 -1.94696 0 1.7898 0 0)
(5.64751 -2.08802 0 1.86676 0 0)
(5.57614 -2.07839 0 1.92541 0 0)
(6.04439 -2.23328 0 2.01676 0 0)
(5.91506 -2.21716 0 2.08685 0 0)
(6.4266 -2.37901 0 2.18682 0 0)
(6.1984 -2.32792 0 2.25404 0 0)
(6.73728 -2.49306 0 2.35199 0 0)
(6.40454 -2.39595 0 2.40099 0 0)
(6.97614 -2.56688 0 2.48313 0 0)
(6.54782 -2.44113 0 2.51871 0 0)
(7.18477 -2.63325 0 2.59525 0 0)
(6.65538 -2.50526 0 2.63349 0 0)
(7.38065 -2.72163 0 2.71782 0 0)
(6.72365 -2.5871 0 2.76576 0 0)
(7.51795 -2.80733 0 2.85962 0 0)
(6.72294 -2.63777 0 2.90276 0 0)
(7.5627 -2.8335 0 2.98682 0 0)
(6.66713 -2.61873 0 2.99181 0 0)
(7.57359 -2.77097 0 3.03458 0 0)
(6.61327 -2.54515 0 3.01505 0 0)
(7.65235 -2.70782 0 3.06306 0 0)
(6.62444 -2.48741 0 3.06213 0 0)
(7.82291 -2.68516 0 3.11615 0 0)
(6.70311 -2.45362 0 3.11813 0 0)
(8.08452 -2.72118 0 3.18634 0 0)
(6.83868 -2.47156 0 3.22194 0 0)
(8.37428 -2.81845 0 3.33855 0 0)
(7.01571 -2.534 0 3.41522 0 0)
(8.61819 -2.93019 0 3.58681 0 0)
(7.16708 -2.60161 0 3.68012 0 0)
(8.79302 -2.99902 0 3.87861 0 0)
(7.22732 -2.63736 0 3.96755 0 0)
(8.90112 -3.02364 0 4.15032 0 0)
(7.20325 -2.63401 0 4.20593 0 0)
(8.95011 -3.02628 0 4.36625 0 0)
(7.14283 -2.60128 0 4.39582 0 0)
(8.89052 -2.97938 0 4.54956 0 0)
(7.09357 -2.52463 0 4.57295 0 0)
(8.79148 -2.88738 0 4.7565 0 0)
(7.0663 -2.44138 0 4.79215 0 0)
(8.74769 -2.77829 0 4.97308 0 0)
(7.07505 -2.36924 0 5.01696 0 0)
(8.77169 -2.73332 0 5.22231 0 0)
(7.15484 -2.35015 0 5.29835 0 0)
(8.86732 -2.73102 0 5.52557 0 0)
(7.27755 -2.3304 0 5.60191 0 0)
(8.96323 -2.71697 0 5.8458 0 0)
(7.40954 -2.29458 0 5.92925 0 0)
(9.03908 -2.68013 0 6.21055 0 0)
(7.50825 -2.23889 0 6.30164 0 0)
(9.0079 -2.60503 0 6.61335 0 0)
(7.50934 -2.14952 0 6.74406 0 0)
(8.941 -2.52709 0 7.09325 0 0)
(7.40809 -2.04281 0 7.22458 0 0)
(8.8669 -2.42896 0 7.56312 0 0)
(7.25742 -1.92977 0 7.63793 0 0)
(8.7605 -2.35342 0 7.96971 0 0)
(7.08358 -1.80348 0 8.01529 0 0)
(8.62183 -2.22785 0 8.28188 0 0)
(6.96457 -1.63579 0 8.27409 0 0)
(8.5 -2.0768 0 8.54628 0 0)
(6.93901 -1.49701 0 8.53011 0 0)
(8.4427 -1.95731 0 8.78845 0 0)
(7.01906 -1.39186 0 8.75442 0 0)
(8.41756 -1.8519 0 9.02037 0 0)
(7.11317 -1.27032 0 8.98754 0 0)
(8.3681 -1.72214 0 9.25715 0 0)
(7.21016 -1.17579 0 9.26862 0 0)
(8.28821 -1.60673 0 9.57412 0 0)
(7.31191 -1.11964 0 9.63603 0 0)
(8.25045 -1.51289 0 9.96456 0 0)
(7.41012 -1.09399 0 10.0673 0 0)
(8.18879 -1.45292 0 10.3801 0 0)
(7.41913 -1.07281 0 10.5053 0 0)
(8.07332 -1.408 0 10.8014 0 0)
(7.37671 -1.0512 0 10.8911 0 0)
(7.97235 -1.3469 0 11.134 0 0)
(7.29374 -0.994748 0 11.2179 0 0)
(7.88204 -1.27727 0 11.4401 0 0)
(7.25736 -0.964829 0 11.5217 0 0)
(7.76206 -1.23902 0 11.7159 0 0)
(7.28653 -1.01018 0 11.8531 0 0)
(7.68119 -1.23615 0 12.0755 0 0)
(7.38695 -1.07439 0 12.242 0 0)
(7.668 -1.19514 0 12.4231 0 0)
(7.45671 -1.07249 0 12.5785 0 0)
(7.63945 -1.08621 0 12.7543 0 0)
(7.48244 -0.974201 0 12.8846 0 0)
(7.59828 -0.950332 0 13.1132 0 0)
(7.50242 -0.846294 0 13.308 0 0)
(7.57659 -0.813406 0 13.4968 0 0)
(7.50665 -0.75254 0 13.6951 0 0)
(7.519 -0.677791 0 13.8237 0 0)
(7.51539 -0.656242 0 14.0137 0 0)
(7.40664 -0.548295 0 14.1649 0 0)
(7.37774 -0.545003 0 14.4148 0 0)
(7.2002 -0.396053 0 14.5411 0 0)
(7.21056 -0.382875 0 14.6633 0 0)
(7.0236 -0.276848 0 14.7552 0 0)
(7.05152 -0.187831 0 14.9122 0 0)
(6.86588 -0.166254 0 14.9761 0 0)
(6.88342 -0.0454655 0 15.0204 0 0)
(6.71852 -0.0500938 0 14.9703 0 0)
(6.7252 0.084143 0 14.9907 0 0)
(6.59544 0.0487336 0 14.9019 0 0)
(6.60276 0.20441 0 14.9874 0 0)
(6.48046 0.125808 0 14.926 0 0)
(6.51468 0.273953 0 15.0226 0 0)
(6.41033 0.183841 0 14.9067 0 0)
(6.45112 0.285812 0 15.0353 0 0)
(6.2769 0.130258 0 14.8658 0 0)
(6.32186 0.195863 0 14.9689 0 0)
(6.13995 0.0539272 0 14.8596 0 0)
(6.19096 0.109654 0 14.8746 0 0)
(6.05697 -0.0579422 0 14.7453 0 0)
(6.14656 0.0131044 0 14.7114 0 0)
(6.01975 -0.189084 0 14.5707 0 0)
(6.14113 -0.124419 0 14.5343 0 0)
(5.95426 -0.386339 0 14.4123 0 0)
(6.10587 -0.246938 0 14.3154 0 0)
(5.97252 -0.563824 0 14.1367 0 0)
(6.01823 -0.426049 0 14.0057 0 0)
(6.05534 -0.780377 0 13.8536 0 0)
(5.88368 -0.576194 0 13.5592 0 0)
(6.18546 -1.00962 0 13.2644 0 0)
(5.84366 -0.620733 0 12.9592 0 0)
(6.21984 -1.05842 0 12.6237 0 0)
(5.90186 -0.637046 0 12.346 0 0)
(6.27374 -1.02953 0 11.8979 0 0)
(5.93103 -0.677094 0 11.757 0 0)
(6.34612 -0.953669 0 11.1413 0 0)
(5.92535 -0.736382 0 11.1561 0 0)
(6.30973 -0.876336 0 10.2944 0 0)
(5.8018 -0.864944 0 10.5925 0 0)
(6.11639 -0.726996 0 9.45679 0 0)
(5.62328 -0.979387 0 10.1149 0 0)
(5.82777 -0.479787 0 8.72217 0 0)
(5.41093 -1.04827 0 9.78515 0 0)
(5.44107 -0.206612 0 8.17105 0 0)
(5.10399 -1.01316 0 9.68571 0 0)
(5.05266 0.218356 0 7.94889 0 0)
(4.71341 -0.866557 0 9.89528 0 0)
(4.70222 0.761868 0 8.00344 0 0)
(4.30347 -0.547758 0 10.6259 0 0)
(4.2283 1.41176 0 8.57879 0 0)
(3.9645 -0.0155593 0 12.1314 0 0)
(3.70934 2.36854 0 10.1454 0 0)
(3.51517 0.379279 0 14.5128 0 0)
(2.95888 3.63049 0 13.1308 0 0)
(3.30689 2.39113 0 19.9861 0 0)
(1.07498 0.699957 0 21.8908 0 0)
(0.244569 -0.103862 0 0.0881715 0 0)
(0.218 -0.110889 0 0.114837 0 0)
(0.23297 -0.0994448 0 0.121227 0 0)
(0.204403 -0.0910884 0 0.125221 0 0)
(0.226493 -0.081914 0 0.125689 0 0)
(0.220461 -0.0812176 0 0.124844 0 0)
(0.258509 -0.0854906 0 0.127143 0 0)
(0.265841 -0.0978372 0 0.134143 0 0)
(0.312969 -0.107805 0 0.142562 0 0)
(0.319609 -0.122494 0 0.151638 0 0)
(0.365254 -0.1305 0 0.161354 0 0)
(0.367733 -0.145316 0 0.17384 0 0)
(0.41608 -0.152373 0 0.186521 0 0)
(0.425226 -0.168532 0 0.19967 0 0)
(0.484095 -0.177107 0 0.21124 0 0)
(0.509237 -0.199982 0 0.223919 0 0)
(0.581841 -0.216935 0 0.237996 0 0)
(0.625331 -0.252371 0 0.256105 0 0)
(0.705516 -0.276017 0 0.276099 0 0)
(0.759142 -0.317114 0 0.300472 0 0)
(0.838539 -0.339402 0 0.324979 0 0)
(0.903151 -0.382059 0 0.352069 0 0)
(0.982619 -0.401788 0 0.378231 0 0)
(1.06372 -0.449472 0 0.407102 0 0)
(1.14546 -0.467349 0 0.434916 0 0)
(1.24876 -0.523632 0 0.468268 0 0)
(1.34034 -0.542616 0 0.501259 0 0)
(1.47008 -0.611864 0 0.541077 0 0)
(1.57676 -0.637833 0 0.580185 0 0)
(1.72919 -0.72255 0 0.628295 0 0)
(1.84413 -0.755888 0 0.674646 0 0)
(2.01338 -0.852369 0 0.729346 0 0)
(2.12035 -0.886301 0 0.77945 0 0)
(2.30433 -0.991134 0 0.837178 0 0)
(2.38615 -1.01981 0 0.887938 0 0)
(2.58591 -1.13262 0 0.946137 0 0)
(2.6218 -1.1474 0 0.996665 0 0)
(2.83616 -1.26649 0 1.05368 0 0)
(2.81654 -1.26278 0 1.10436 0 0)
(3.05132 -1.38966 0 1.162 0 0)
(2.98357 -1.36481 0 1.21318 0 0)
(3.24051 -1.49565 0 1.27487 0 0)
(3.14153 -1.45663 0 1.3251 0 0)
(3.43224 -1.59036 0 1.39102 0 0)
(3.31955 -1.54626 0 1.44038 0 0)
(3.65212 -1.68825 0 1.51496 0 0)
(3.53399 -1.64689 0 1.56629 0 0)
(3.91169 -1.79839 0 1.64636 0 0)
(3.77528 -1.75584 0 1.69907 0 0)
(4.20046 -1.91705 0 1.78273 0 0)
(4.01649 -1.86003 0 1.83724 0 0)
(4.49437 -2.03513 0 1.92502 0 0)
(4.23538 -1.94655 0 1.98015 0 0)
(4.76253 -2.13516 0 2.06877 0 0)
(4.4137 -2.00039 0 2.11926 0 0)
(4.98807 -2.20603 0 2.20312 0 0)
(4.56 -2.02853 0 2.24428 0 0)
(5.18295 -2.25689 0 2.32482 0 0)
(4.70143 -2.06097 0 2.35864 0 0)
(5.37343 -2.31182 0 2.44994 0 0)
(4.84224 -2.12436 0 2.48591 0 0)
(5.56009 -2.37854 0 2.58687 0 0)
(4.95873 -2.20111 0 2.62092 0 0)
(5.71369 -2.42395 0 2.71462 0 0)
(5.00964 -2.23208 0 2.73403 0 0)
(5.80652 -2.41065 0 2.7996 0 0)
(4.99289 -2.18767 0 2.79282 0 0)
(5.87919 -2.35661 0 2.84093 0 0)
(4.9807 -2.11922 0 2.8352 0 0)
(5.99615 -2.32664 0 2.90203 0 0)
(5.02844 -2.07506 0 2.90261 0 0)
(6.18986 -2.33267 0 2.98506 0 0)
(5.15405 -2.06221 0 2.99091 0 0)
(6.44705 -2.39252 0 3.09415 0 0)
(5.34077 -2.0957 0 3.12689 0 0)
(6.71358 -2.4969 0 3.27438 0 0)
(5.54423 -2.16202 0 3.34404 0 0)
(6.92471 -2.59056 0 3.53704 0 0)
(5.6895 -2.20044 0 3.61478 0 0)
(7.04745 -2.62082 0 3.81848 0 0)
(5.73286 -2.198 0 3.88667 0 0)
(7.11418 -2.61438 0 4.0731 0 0)
(5.73824 -2.17001 0 4.11648 0 0)
(7.13288 -2.58207 0 4.27918 0 0)
(5.75283 -2.14029 0 4.2921 0 0)
(7.12666 -2.51494 0 4.45824 0 0)
(5.78045 -2.09981 0 4.48442 0 0)
(7.1337 -2.43473 0 4.67291 0 0)
(5.84919 -2.03717 0 4.70414 0 0)
(7.20752 -2.35561 0 4.90756 0 0)
(5.95565 -2.00304 0 4.97263 0 0)
(7.34526 -2.35565 0 5.20307 0 0)
(6.10944 -1.99522 0 5.28146 0 0)
(7.53629 -2.36761 0 5.51613 0 0)
(6.31083 -1.97904 0 5.57542 0 0)
(7.73677 -2.38396 0 5.82501 0 0)
(6.52776 -1.95027 0 5.89901 0 0)
(7.91403 -2.35786 0 6.18089 0 0)
(6.71721 -1.89719 0 6.2711 0 0)
(8.0222 -2.30478 0 6.60683 0 0)
(6.81635 -1.80559 0 6.72166 0 0)
(8.06417 -2.21776 0 7.07724 0 0)
(6.81944 -1.67059 0 7.16967 0 0)
(8.06076 -2.0919 0 7.52252 0 0)
(6.70632 -1.53796 0 7.5718 0 0)
(7.94977 -1.97076 0 7.92431 0 0)
(6.5512 -1.3743 0 7.94252 0 0)
(7.83136 -1.80841 0 8.25392 0 0)
(6.4755 -1.21282 0 8.23028 0 0)
(7.83215 -1.67347 0 8.5219 0 0)
(6.5488 -1.09286 0 8.48636 0 0)
(7.9472 -1.55303 0 8.77168 0 0)
(6.7283 -0.97852 0 8.72836 0 0)
(8.06108 -1.4146 0 9.022 0 0)
(6.94215 -0.888412 0 8.99555 0 0)
(8.13236 -1.32059 0 9.27543 0 0)
(7.18179 -0.853903 0 9.29923 0 0)
(8.21319 -1.2595 0 9.59835 0 0)
(7.40062 -0.827435 0 9.69212 0 0)
(8.28791 -1.20474 0 10.0236 0 0)
(7.49865 -0.825842 0 10.1402 0 0)
(8.26775 -1.18351 0 10.4765 0 0)
(7.46239 -0.830305 0 10.5877 0 0)
(8.20359 -1.17462 0 10.8943 0 0)
(7.39964 -0.804399 0 10.9931 0 0)
(8.1534 -1.14521 0 11.2298 0 0)
(7.39307 -0.792889 0 11.3087 0 0)
(8.11953 -1.13186 0 11.5231 0 0)
(7.47741 -0.86109 0 11.6221 0 0)
(8.09744 -1.16751 0 11.8108 0 0)
(7.57456 -1.00764 0 11.9485 0 0)
(8.08163 -1.20626 0 12.1436 0 0)
(7.67793 -1.09584 0 12.324 0 0)
(8.07624 -1.16837 0 12.5122 0 0)
(7.74827 -1.0697 0 12.7007 0 0)
(8.13073 -1.05416 0 12.8409 0 0)
(7.84777 -0.989017 0 12.9822 0 0)
(8.17948 -0.924841 0 13.1811 0 0)
(7.92785 -0.904018 0 13.419 0 0)
(8.17574 -0.792208 0 13.5985 0 0)
(7.91672 -0.787011 0 13.854 0 0)
(8.09406 -0.649554 0 13.9659 0 0)
(7.82756 -0.668534 0 14.1673 0 0)
(7.90281 -0.47596 0 14.3252 0 0)
(7.60346 -0.494944 0 14.5994 0 0)
(7.67067 -0.279326 0 14.6645 0 0)
(7.34767 -0.321734 0 14.8804 0 0)
(7.44622 -0.125371 0 14.9307 0 0)
(7.0592 -0.154187 0 15.111 0 0)
(7.17915 0.0367487 0 15.1542 0 0)
(6.88869 0.0735216 0 15.2388 0 0)
(6.97188 0.174 0 15.1269 0 0)
(6.77498 0.219132 0 15.1907 0 0)
(6.85823 0.23584 0 15.1704 0 0)
(6.69814 0.282566 0 15.2177 0 0)
(6.76948 0.250159 0 15.1384 0 0)
(6.68212 0.334042 0 15.2436 0 0)
(6.68121 0.285981 0 15.2056 0 0)
(6.6115 0.344314 0 15.2612 0 0)
(6.48612 0.205985 0 15.2381 0 0)
(6.52486 0.32595 0 15.2236 0 0)
(6.33602 0.0756002 0 15.1236 0 0)
(6.39509 0.234915 0 15.1563 0 0)
(6.23775 -0.0552263 0 14.9991 0 0)
(6.30794 0.0859583 0 14.9852 0 0)
(6.11519 -0.193182 0 14.8816 0 0)
(6.23564 -0.0435476 0 14.9265 0 0)
(6.04364 -0.364231 0 14.7879 0 0)
(6.19273 -0.166275 0 14.636 0 0)
(6.03525 -0.551981 0 14.5892 0 0)
(6.06265 -0.279779 0 14.4159 0 0)
(6.01194 -0.793336 0 14.2596 0 0)
(5.9839 -0.367885 0 13.9622 0 0)
(5.92256 -0.984058 0 13.6458 0 0)
(6.03413 -0.478924 0 13.2623 0 0)
(5.8605 -1.10418 0 12.82 0 0)
(6.12943 -0.581598 0 12.648 0 0)
(5.90725 -1.17507 0 12.0712 0 0)
(6.1721 -0.763025 0 12.0838 0 0)
(5.99316 -1.1365 0 11.2728 0 0)
(6.14536 -0.973387 0 11.6186 0 0)
(5.94724 -1.01131 0 10.4557 0 0)
(6.02665 -1.2507 0 11.1506 0 0)
(5.75095 -0.828711 0 9.5637 0 0)
(5.8396 -1.51721 0 10.6866 0 0)
(5.53656 -0.558784 0 8.72766 0 0)