/*--------------------------------*- C++ -*----------------------------------*\
| =========                 |                                                 |
| \\      /  F ield         | OpenFOAM: The Open Source CFD Toolbox           |
|  \\    /   O peration     | Version:  2.4.0                                 |
|   \\  /    A nd           | Web:      www.OpenFOAM.org                      |
|    \\/     M anipulation  |                                                 |
\*---------------------------------------------------------------------------*/
FoamFile
{
    version     2.0;
    format      ascii;
    class       volVectorField;
    location    "1.8";
    object      U;
}
// * * * * * * * * * * * * * * * * * * * * * * * * * * * * * * * * * * * * * //

dimensions      [0 1 -1 0 0 0 0];

internalField   nonuniform List<vector> 
4400
(
(9.07226 -0.0024883 0)
(11.5501 0.0914997 0)
(7.32801 -0.054492 0)
(12.0541 0.067917 0)
(6.93251 -0.00187646 0)
(11.7023 -0.0556197 0)
(7.05354 0.0989523 0)
(11.1204 -0.0163727 0)
(6.99852 0.0152514 0)
(10.8472 0.0701756 0)
(7.56407 -0.0466379 0)
(9.68523 -0.0730593 0)
(9.29015 0.14166 0)
(7.92281 -0.13499 0)
(9.42945 0.138672 0)
(8.65196 0.0850433 0)
(5.99181 -0.164041 0)
(11.7884 0.0643458 0)
(2.56448 -0.103123 0)
(13.0007 -0.046344 0)
(7.77008 -0.10531 0)
(12.7259 0.187106 0)
(7.28438 0.00598299 0)
(12.7313 -0.040182 0)
(7.88902 0.116115 0)
(11.8064 -0.00110527 0)
(7.93603 0.0290612 0)
(11.8798 0.0540164 0)
(7.79359 -0.000210342 0)
(11.2469 -0.150672 0)
(9.78929 0.277894 0)
(9.52491 -0.261431 0)
(9.87701 0.180618 0)
(10.8696 0.134499 0)
(7.85005 -0.253394 0)
(11.4126 0.451712 0)
(8.44071 -0.317068 0)
(11.8444 0.372261 0)
(6.37949 0.0758547 0)
(12.9491 -0.274976 0)
(7.56329 -0.0888288 0)
(12.4275 0.143861 0)
(8.21155 0.0237375 0)
(12.518 -0.0955796 0)
(8.61947 0.248811 0)
(11.5397 -0.10863 0)
(8.58398 0.0715582 0)
(11.6908 0.0479753 0)
(8.75934 0.0979032 0)
(10.0956 -0.290644 0)
(10.7716 0.287437 0)
(8.91027 -0.116528 0)
(9.58055 -0.11798 0)
(12.2049 0.297736 0)
(6.69308 0.0346183 0)
(12.1675 -0.0685193 0)
(8.93902 -0.0212201 0)
(10.2103 0.358066 0)
(9.17616 -0.0524586 0)
(11.2723 -0.216543 0)
(8.5944 -0.0619195 0)
(11.2478 0.00131066 0)
(8.68242 0.0376571 0)
(11.9595 -0.168855 0)
(9.51781 0.335678 0)
(11.2196 -0.0247637 0)
(9.17916 0.0117808 0)
(11.1266 0.0386207 0)
(9.46397 0.276277 0)
(9.58326 -0.530611 0)
(11.0661 0.453831 0)
(9.58081 0.0302303 0)
(9.18893 -0.534396 0)
(12.4798 0.66775 0)
(7.27488 -0.177055 0)
(12.392 -0.18225 0)
(9.2558 0.246669 0)
(9.7744 0.0985472 0)
(10.3655 0.0649205 0)
(10.4917 -0.14447 0)
(9.69707 -0.0337232 0)
(10.2256 0.052851 0)
(9.10164 -0.0520589 0)
(11.1294 -0.318171 0)
(10.0401 0.440923 0)
(10.4232 -0.0644578 0)
(9.94476 0.0746491 0)
(10.6338 0.0397439 0)
(9.74936 0.352405 0)
(9.62027 -0.598256 0)
(10.9411 0.290381 0)
(10.1751 0.268255 0)
(9.30984 -0.750357 0)
(12.102 0.704106 0)
(9.02626 0.0708384 0)
(11.5864 -0.552427 0)
(9.9944 0.607522 0)
(10.034 -0.0718206 0)
(10.6068 0.023496 0)
(10.4554 -0.124666 0)
(10.1969 -0.0154552 0)
(10.0347 0.0518662 0)
(9.26782 -0.0924366 0)
(10.5351 -0.380885 0)
(10.0161 0.510604 0)
(9.91305 -0.04731 0)
(10.3922 -0.00517805 0)
(10.3229 0.0970753 0)
(9.82103 0.429555 0)
(10.0756 -0.693667 0)
(10.5222 0.306093 0)
(10.1152 0.396524 0)
(9.72393 -0.97719 0)
(11.417 0.786664 0)
(10.366 0.0220652 0)
(10.4453 -0.577696 0)
(10.6597 0.771119 0)
(10.4057 -0.185207 0)
(10.4358 0.112155 0)
(10.3978 -0.103151 0)
(10.2978 -0.0565752 0)
(10.1777 0.171384 0)
(9.27728 -0.0906382 0)
(10.2815 -0.505713 0)
(9.90653 0.601592 0)
(9.75369 -0.166407 0)
(10.5203 -0.0292146 0)
(10.0975 0.202233 0)
(9.85772 0.35844 0)
(10.3608 -0.69487 0)
(10.1285 0.279757 0)
(10.0605 0.434565 0)
(10.0392 -1.02653 0)
(10.6585 0.628776 0)
(10.895 0.265731 0)
(9.50766 -0.686056 0)
(10.6252 0.744734 0)
(11.0893 -0.130157 0)
(9.74341 0.183506 0)
(10.601 -0.139863 0)
(10.0981 -0.0792615 0)
(10.298 0.193911 0)
(9.61052 -0.0675997 0)
(10.0413 -0.529958 0)
(9.83229 0.643786 0)
(9.90936 -0.203549 0)
(10.2829 -0.0667275 0)
(9.94788 0.255646 0)
(10.1796 0.306713 0)
(10.369 -0.661892 0)
(9.82983 0.301321 0)
(10.2018 0.430564 0)
(10.1493 -1.0464 0)
(9.9077 0.594232 0)
(10.7666 0.315079 0)
(9.54641 -0.660511 0)
(10.2523 0.623587 0)
(11.4522 -0.105927 0)
(9.20544 0.261941 0)
(10.9181 -0.196317 0)
(9.94518 -0.110789 0)
(10.2158 0.207299 0)
(9.93113 0.0158806 0)
(9.92412 -0.571332 0)
(9.76721 0.653061 0)
(10.2735 -0.251579 0)
(9.92357 -0.0545172 0)
(10.0116 0.274569 0)
(10.3235 0.228913 0)
(10.2435 -0.595534 0)
(9.70208 0.301595 0)
(10.4817 0.394898 0)
(10.0681 -0.990612 0)
(9.66469 0.541103 0)
(10.4069 0.345742 0)
(10.1269 -0.631907 0)
(9.59116 0.466625 0)
(11.6602 -0.0114874 0)
(8.80074 0.299222 0)
(11.3858 -0.245972 0)
(9.90677 -0.084115 0)
(10.0473 0.147064 0)
(10.1857 0.0333967 0)
(9.86412 -0.516757 0)
(9.77779 0.592198 0)
(10.4559 -0.237292 0)
(9.66417 -0.0125841 0)
(10.0879 0.216261 0)
(10.3754 0.200959 0)
(10.204 -0.487961 0)
(9.64681 0.216267 0)
(10.7323 0.371319 0)
(9.91637 -0.895963 0)
(9.73202 0.526306 0)
(10.118 0.272308 0)
(10.5848 -0.555441 0)
(9.10325 0.377689 0)
(11.6106 0.0267616 0)
(8.67896 0.266581 0)
(11.5313 -0.23484 0)
(9.88111 -0.0755318 0)
(10.0539 0.0958288 0)
(10.1778 0.0825162 0)
(9.89798 -0.492719 0)
(9.77689 0.533996 0)
(10.4565 -0.227692 0)
(9.67762 0.00375412 0)
(10.1004 0.161171 0)
(10.4286 0.160585 0)
(10.1352 -0.409748 0)
(9.65484 0.162307 0)
(10.7622 0.356306 0)
(9.8058 -0.821721 0)
(9.91054 0.503377 0)
(9.9122 0.182876 0)
(10.8708 -0.469599 0)
(8.84795 0.299291 0)
(11.3249 0.0828603 0)
(8.98766 0.243161 0)
(11.1953 -0.212974 0)
(9.86047 -0.0475664 0)
(10.0542 0.0339857 0)
(10.1596 0.0963752 0)
(9.96271 -0.433004 0)
(9.82702 0.46061 0)
(10.3784 -0.216079 0)
(9.73655 0.0434103 0)
(9.98611 0.0977224 0)
(10.4482 0.144052 0)
(10.0209 -0.296498 0)
(9.73126 0.0561758 0)
(10.8006 0.351001 0)
(9.72985 -0.752573 0)
(10.0606 0.489488 0)
(10.1208 0.087486 0)
(10.6832 -0.384135 0)
(9.25371 0.284218 0)
(10.7643 0.0412448 0)
(9.74936 0.179101 0)
(10.635 -0.145189 0)
(9.91272 -0.0349304 0)
(10.0536 -0.00944439 0)
(10.1519 0.114062 0)
(9.90894 -0.400446 0)
(9.88433 0.42004 0)
(10.1338 -0.190022 0)
(9.92277 0.0604373 0)
(9.81004 0.0540407 0)
(10.5194 0.115821 0)
(9.95497 -0.230649 0)
(9.76646 -0.0143108 0)
(10.6524 0.364715 0)
(9.97031 -0.679857 0)
(9.68336 0.440916 0)
(10.8945 0.0761244 0)
(10.0737 -0.316088 0)
(9.9723 0.269721 0)
(10.2069 0.0621989 0)
(10.823 0.16694 0)
(9.52441 -0.11897 0)
(10.0183 -0.0194375 0)
(9.96668 -0.058552 0)
(10.1628 0.142348 0)
(9.78339 -0.350095 0)
(10.0896 0.371755 0)
(9.8442 -0.191757 0)
(10.23 0.0767387 0)
(9.59512 0.008487 0)
(10.5599 0.0863796 0)
(9.84741 -0.123735 0)
(9.98315 -0.0891318 0)
(10.1663 0.314014 0)
(10.5285 -0.533312 0)
(9.20784 0.322077 0)
(11.2017 0.0275031 0)
(9.46252 -0.198693 0)
(10.7195 0.239445 0)
(9.32576 -0.0356965 0)
(11.6571 0.205333 0)
(8.84563 -0.0721393 0)
(10.1156 -0.0109645 0)
(9.87068 -0.0738175 0)
(10.3333 0.144097 0)
(9.56236 -0.339618 0)
(10.334 0.351241 0)
(9.60908 -0.1875 0)
(10.3753 0.0804509 0)
(9.53647 0.018442 0)
(10.7082 0.0351915 0)
(9.60961 -0.102384 0)
(10.4549 -0.0752019 0)
(9.80359 0.24358 0)
(10.5665 -0.46868 0)
(9.25121 0.274095 0)
(11.014 0.0290036 0)
(9.11576 -0.221449 0)
(11.0354 0.227104 0)
(9.14854 -0.0300384 0)
(11.523 0.129042 0)
(9.11671 0.000293466 0)
(10.2619 0.00139937 0)
(9.75177 -0.140434 0)
(10.332 0.206506 0)
(9.53119 -0.30607 0)
(10.3306 0.307965 0)
(9.75145 -0.155426 0)
(10.4107 0.0633683 0)
(9.67561 -0.0334072 0)
(10.7651 0.064157 0)
(9.76106 -0.0821464 0)
(10.337 -0.0975708 0)
(10.1189 0.249153 0)
(10.3005 -0.387799 0)
(9.55845 0.181864 0)
(10.5946 0.0778325 0)
(9.78585 -0.177392 0)
(10.288 0.159686 0)
(10.0702 -0.00545604 0)
(10.8115 0.106953 0)
(9.83626 0.0272475 0)
(10.1408 0.00415434 0)
(9.87357 -0.114392 0)
(10.0746 0.164304 0)
(9.99918 -0.266182 0)
(9.96094 0.240411 0)
(10.3076 -0.156577 0)
(10.0607 0.0698438 0)
(10.3191 -0.03615 0)
(10.1346 0.00987529 0)
(10.6969 -0.0303316 0)
(9.59615 -0.108685 0)
(10.9262 0.196686 0)
(9.71186 -0.305217 0)
(10.4435 0.182941 0)
(9.58467 0.00395824 0)
(11.1302 -0.132692 0)
(8.94163 0.116905 0)
(11.2221 -0.0245449 0)
(9.86542 0.0460202 0)
(10.506 0.0555931 0)
(9.69798 0.0140535 0)
(10.4727 -0.152827 0)
(9.35525 0.179847 0)
(10.793 -0.220888 0)
(9.12592 0.192368 0)
(11.2131 -0.134602 0)
(9.02123 0.0355388 0)
(11.3959 -0.039302 0)
(8.9784 0.00492741 0)
(11.6479 -0.0202315 0)
(8.52999 -0.0824968 0)
(11.8797 0.162137 0)
(8.71333 -0.251892 0)
(11.3876 0.178994 0)
(8.86179 -0.0428556 0)
(11.8471 -0.0214767 0)
(8.19456 0.0380909 0)
(11.9013 -0.0534455 0)
(9.16986 0.124237 0)
(10.9657 -0.037866 0)
(9.47642 -0.0172618 0)
(10.6924 -0.0690983 0)
(8.94965 0.0720842 0)
(11.2604 -0.133207 0)
(8.44759 0.0718101 0)
(11.7737 -0.0765751 0)
(8.12253 0.00705074 0)
(11.9023 -0.0231201 0)
(8.06454 -0.0230155 0)
(12.0577 0.012136 0)
(7.75262 -0.0884058 0)
(12.244 0.0858198 0)
(8.13856 -0.13894 0)
(11.5023 0.101874 0)
(9.03212 -0.0775689 0)
(11.2588 0.0395574 0)
(8.95883 0.024734 0)
(11.3444 -0.104227 0)
(9.36121 0.129206 0)
(11.0414 -0.0451624 0)
(9.88463 -0.00168121 0)
(10.0474 -0.0617049 0)
(9.14955 0.0368819 0)
(10.4175 -0.0480988 0)
(8.63333 0.0144297 0)
(10.4584 -0.0326046 0)
(8.32748 -0.0075817 0)
(10.3684 -0.0309179 0)
(8.03073 0.00853351 0)
(10.4621 -0.0249752 0)
(7.65588 -0.0279196 0)
(10.2656 0.00930484 0)
(7.73881 -0.0343482 0)
(9.69499 -0.0256133 0)
(7.90172 0.0115747 0)
(9.37846 0.0229248 0)
(8.46615 -0.0818513 0)
(8.62824 0.0108754 0)
(8.59597 0.0593268 0)
(9.04751 -0.0874933 0)
(3.2684 0.454061 0)
(8.96612 -0.270116 0)
(2.42485 1.81696 0)
(5.2756 0.647438 0)
(8.8656 0.598952 0)
(7.17416 0.742558 0)
(11.7983 -2.49506 0)
(8.70727 -2.23456 0)
(10.3427 -2.60781 0)
(11.9621 -4.35816 0)
(10.3683 -4.07709 0)
(10.5131 -3.41074 0)
(10.8789 -2.9925 0)
(11.083 -1.43005 0)
(9.91129 -0.180989 0)
(8.10791 0.119005 0)
(6.92005 0.107599 0)
(6.24881 0.08173 0)
(5.96528 0.0645268 0)
(5.92738 0.0584922 0)
(5.81203 0.0109003 0)
(5.57787 -0.0564817 0)
(5.40878 -0.0808928 0)
(5.35584 -0.052241 0)
(5.33061 -0.00122202 0)
(5.29109 0.0520773 0)
(5.27055 0.0943843 0)
(5.29701 0.106295 0)
(5.34825 0.0810007 0)
(5.37971 0.030409 0)
(5.37079 -0.0262005 0)
(5.33306 -0.0735273 0)
(5.287 -0.103006 0)
(5.24484 -0.112959 0)
(5.21084 -0.106655 0)
(5.18534 -0.0900681 0)
(5.16722 -0.0695704 0)
(5.15491 -0.0500159 0)
(5.14689 -0.033976 0)
(5.14187 -0.0220885 0)
(5.13886 -0.0138883 0)
(5.13712 -0.00851595 0)
(5.13615 -0.00512461 0)
(5.13564 -0.00304072 0)
(5.13537 -0.00178503 0)
(5.13523 -0.00103894 0)
(5.13516 -0.000600673 0)
(5.13513 -0.000345178 0)
(5.13512 -0.000197311 0)
(5.13511 -0.000112377 0)
(5.1351 -6.358e-05 0)
(5.1351 -3.59366e-05 0)
(5.1351 -2.02219e-05 0)
(5.1351 -1.1224e-05 0)
(5.1351 -6.35038e-06 0)
(5.1351 -3.49485e-06 0)
(5.1351 -1.87819e-06 0)
(5.1351 -1.13746e-06 0)
(5.1351 -5.51294e-07 0)
(5.1351 -3.01875e-07 0)
(5.1351 -2.34135e-07 0)
(5.1351 -5.98828e-08 0)
(5.1351 -5.21542e-08 0)
(5.1351 -9.28556e-08 0)
(5.1351 3.39047e-08 0)
(5.1351 -1.01848e-08 0)
(5.1351 -5.72799e-08 0)
(5.1351 5.61731e-08 0)
(5.1351 -3.77541e-10 0)
(5.1351 -7.3007e-08 0)
(5.1351 5.69835e-08 0)
(5.1351 2.56385e-08 0)
(5.1351 -7.51229e-08 0)
(5.1351 2.5146e-08 0)
(5.1351 5.38623e-08 0)
(5.1351 -3.48232e-08 0)
(5.1351 -4.05095e-08 0)
(5.13511 7.28644e-08 0)
(5.13509 8.79622e-09 0)
(5.13511 -5.49604e-08 0)
(5.13509 1.69728e-08 0)
(5.13511 5.20912e-08 0)
(5.13509 -1.53733e-08 0)
(5.1351 -4.43908e-08 0)
(5.1351 3.75491e-08 0)
(5.1351 1.30026e-08 0)
(5.13511 -9.65757e-10 0)
(5.13509 -2.55135e-08 0)
(5.13511 -3.90193e-08 0)
(5.1351 9.92778e-08 0)
(5.1351 -2.17739e-08 0)
(5.1351 -7.48281e-08 0)
(5.1351 5.08228e-08 0)
(5.1351 5.79979e-09 0)
(5.1351 3.20055e-08 0)
(5.1351 -3.04201e-08 0)
(5.1351 -8.82663e-08 0)
(5.1351 2.92803e-08 0)
(5.1351 2.81064e-08 0)
(5.1351 -2.2509e-08 0)
(6.00602 0.943381 0)
(11.1581 0.251453 0)
(4.67249 2.26178 0)
(7.72008 0.600011 0)
(8.71252 0.267881 0)
(7.2163 0.504412 0)
(12.244 -2.77008 0)
(9.19795 -2.27046 0)
(11.6993 -2.6385 0)
(12.5162 -3.95939 0)
(10.053 -3.8542 0)
(10.5047 -3.41795 0)
(11.2398 -3.02522 0)
(11.6493 -1.32559 0)
(10.2804 0.137613 0)
(8.2685 0.433553 0)
(7.01243 0.314779 0)
(6.1754 0.216988 0)
(5.69249 0.122237 0)
(5.65459 0.068307 0)
(5.70803 0.0374122 0)
(5.59619 -0.00619884 0)
(5.42691 -0.0461173 0)
(5.34528 -0.0481941 0)
(5.32228 -0.007659 0)
(5.3031 0.0526538 0)
(5.3019 0.101768 0)
(5.331 0.113625 0)
(5.36051 0.0817429 0)
(5.36022 0.0234033 0)
(5.33266 -0.0371027 0)
(5.29601 -0.082938 0)
(5.2618 -0.108798 0)
(5.2329 -0.115455 0)
(5.20868 -0.107068 0)
(5.1884 -0.0894991 0)
(5.17193 -0.0687136 0)
(5.15926 -0.0492151 0)
(5.15017 -0.0333545 0)
(5.14407 -0.0216549 0)
(5.14024 -0.0136075 0)
(5.13795 -0.00834403 0)
(5.13664 -0.00502408 0)
(5.13592 -0.00298409 0)
(5.13553 -0.00175406 0)
(5.13532 -0.00102249 0)
(5.13522 -0.000592028 0)
(5.13516 -0.000340715 0)
(5.13513 -0.000194989 0)
(5.13512 -0.000111112 0)
(5.13511 -6.30097e-05 0)
(5.13511 -3.56101e-05 0)
(5.1351 -2.00141e-05 0)
(5.1351 -1.11636e-05 0)
(5.1351 -6.26484e-06 0)
(5.1351 -3.44949e-06 0)
(5.1351 -1.87491e-06 0)
(5.1351 -1.07425e-06 0)
(5.1351 -5.80459e-07 0)
(5.1351 -3.45762e-07 0)
(5.1351 -1.97771e-07 0)
(5.1351 -5.83302e-08 0)
(5.1351 -4.52587e-08 0)
(5.1351 -6.55318e-08 0)
(5.1351 -1.32693e-08 0)
(5.1351 -6.29586e-09 0)
(5.1351 -8.54297e-09 0)
(5.1351 1.28707e-08 0)
(5.1351 -2.38942e-08 0)
(5.1351 -4.05578e-08 0)
(5.1351 2.72603e-08 0)
(5.1351 3.01829e-08 0)
(5.1351 -2.79825e-08 0)
(5.1351 -1.38092e-08 0)
(5.1351 -1.31821e-09 0)
(5.1351 5.9952e-09 0)
(5.1351 4.9104e-09 0)
(5.13511 5.24537e-08 0)
(5.13509 -1.60443e-09 0)
(5.13511 -2.50297e-08 0)
(5.13509 1.01231e-08 0)
(5.13511 5.12654e-09 0)
(5.13509 3.83269e-08 0)
(5.1351 -4.15566e-08 0)
(5.1351 5.24622e-08 0)
(5.1351 -4.71689e-08 0)
(5.13511 -3.48371e-08 0)
(5.13509 4.99028e-08 0)
(5.13511 -9.66421e-08 0)
(5.1351 1.5489e-07 0)
(5.1351 -6.25323e-08 0)
(5.1351 -8.03511e-08 0)
(5.1351 1.46651e-07 0)
(5.1351 -1.11242e-07 0)
(5.1351 6.81927e-08 0)
(5.1351 4.95945e-08 0)
(5.1351 -1.73977e-07 0)
(5.1351 3.78743e-08 0)
(5.1351 2.74071e-08 0)
(5.1351 -3.78879e-08 0)
(7.70945 1.23923 0)
(11.0561 0.0893013 0)
(6.12631 2.49621 0)
(10.3793 0.289095 0)
(10.5925 0.311202 0)
(9.60791 0.38125 0)
(13.154 -2.75266 0)
(10.1349 -2.33025 0)
(12.4001 -2.94426 0)
(12.1334 -3.91965 0)
(9.68455 -3.9381 0)
(10.7685 -3.63353 0)
(11.5221 -3.08166 0)
(11.7716 -1.23572 0)
(10.674 0.350638 0)
(8.5216 0.661198 0)
(6.96059 0.489722 0)
(6.15404 0.315696 0)
(5.70672 0.146679 0)
(5.6403 0.0502142 0)
(5.7643 0.0186339 0)
(5.72427 -0.0101467 0)
(5.51263 -0.0373609 0)
(5.35226 -0.0313511 0)
(5.32112 0.0097325 0)
(5.34427 0.0590706 0)
(5.3651 0.0891412 0)
(5.37418 0.0922957 0)
(5.36995 0.0716936 0)
(5.35263 0.0347399 0)
(5.32612 -0.0103683 0)
(5.29562 -0.053836 0)
(5.26564 -0.0847943 0)
(5.23846 -0.0981529 0)
(5.21471 -0.0952434 0)
(5.19429 -0.0815059 0)
(5.17716 -0.0633389 0)
(5.16346 -0.0456741 0)
(5.15323 -0.0311069 0)
(5.14615 -0.0202913 0)
(5.14156 -0.0128171 0)
(5.13875 -0.00790438 0)
(5.13712 -0.00478794 0)
(5.13619 -0.0028606 0)
(5.13569 -0.00169067 0)
(5.13542 -0.000990355 0)
(5.13527 -0.000575777 0)
(5.13519 -0.000332471 0)
(5.13515 -0.00019071 0)
(5.13513 -0.000108861 0)
(5.13512 -6.19038e-05 0)
(5.13511 -3.50011e-05 0)
(5.1351 -1.96409e-05 0)
(5.1351 -1.0989e-05 0)
(5.1351 -6.15607e-06 0)
(5.1351 -3.37954e-06 0)
(5.1351 -1.82522e-06 0)
(5.1351 -1.01594e-06 0)
(5.1351 -6.2443e-07 0)
(5.1351 -4.0173e-07 0)
(5.1351 -1.73663e-07 0)
(5.1351 -1.69443e-08 0)
(5.1351 -2.47537e-08 0)
(5.1351 -7.59889e-08 0)
(5.1351 -6.27519e-08 0)
(5.1351 -1.5427e-10 0)
(5.1351 3.20083e-08 0)
(5.1351 -2.32201e-08 0)
(5.1351 -7.45125e-08 0)
(5.1351 -3.75439e-08 0)
(5.1351 3.15676e-08 0)
(5.1351 6.27609e-08 0)
(5.1351 -1.15982e-08 0)
(5.1351 -6.98967e-08 0)
(5.1351 -5.72066e-08 0)
(5.1351 4.97473e-08 0)
(5.1351 7.23159e-08 0)
(5.13511 6.95277e-08 0)
(5.13509 -1.71455e-08 0)
(5.13511 -2.63718e-08 0)
(5.13509 -3.87921e-09 0)
(5.13511 -1.5995e-08 0)
(5.13509 1.11268e-07 0)
(5.1351 -4.33244e-08 0)
(5.1351 6.68256e-08 0)
(5.1351 -1.31612e-07 0)
(5.13511 -8.02318e-08 0)
(5.13509 1.14963e-07 0)
(5.13511 -1.41708e-07 0)
(5.1351 2.49313e-07 0)
(5.1351 -1.14076e-07 0)
(5.1351 -1.0455e-07 0)
(5.1351 2.41609e-07 0)
(5.1351 -2.31697e-07 0)
(5.1351 1.38214e-07 0)
(5.1351 1.18705e-07 0)
(5.1351 -2.67166e-07 0)
(5.1351 4.41048e-08 0)
(5.1351 2.45145e-08 0)
(5.1351 -5.71317e-08 0)
(8.94851 1.10909 0)
(11.3398 0.376484 0)
(7.86985 2.41127 0)
(11.7491 0.0413598 0)
(11.4734 0.138217 0)
(11.9693 0.226377 0)
(13.5979 -2.50806 0)
(9.80338 -2.33859 0)
(12.191 -3.04134 0)
(11.6249 -3.41178 0)
(9.59094 -3.7055 0)
(11.411 -3.75048 0)
(12.3316 -3.01947 0)
(12.283 -1.07401 0)
(10.8929 0.712292 0)
(8.57357 1.06059 0)
(7.18316 0.749979 0)
(6.48747 0.47915 0)
(5.87976 0.236014 0)
(5.58534 0.0674288 0)
(5.65242 0.0316028 0)
(5.70695 0.0452786 0)
(5.5683 0.0212779 0)
(5.37939 -0.015878 0)
(5.29186 -0.00898228 0)
(5.30784 0.0412028 0)
(5.36227 0.0964132 0)
(5.40934 0.116927 0)
(5.42831 0.0903153 0)
(5.41483 0.0315482 0)
(5.37884 -0.0329865 0)
(5.33477 -0.0822765 0)
(5.29233 -0.109166 0)
(5.25594 -0.115034 0)
(5.2263 -0.105375 0)
(5.2023 -0.086865 0)
(5.18282 -0.0657603 0)
(5.16742 -0.0465004 0)
(5.15592 -0.0311945 0)
(5.1479 -0.0201136 0)
(5.14267 -0.0125964 0)
(5.13944 -0.00772218 0)
(5.13753 -0.00466011 0)
(5.13644 -0.00277875 0)
(5.13583 -0.00164122 0)
(5.1355 -0.000961555 0)
(5.13532 -0.000559375 0)
(5.13522 -0.000323273 0)
(5.13517 -0.000185627 0)
(5.13514 -0.000106046 0)
(5.13512 -6.03247e-05 0)
(5.13511 -3.41268e-05 0)
(5.13511 -1.91709e-05 0)
(5.1351 -1.07347e-05 0)
(5.1351 -5.99791e-06 0)
(5.1351 -3.30014e-06 0)
(5.1351 -1.8077e-06 0)
(5.1351 -1.00484e-06 0)
(5.1351 -5.88654e-07 0)
(5.1351 -3.67538e-07 0)
(5.1351 -1.7132e-07 0)
(5.1351 -4.4279e-08 0)
(5.1351 -3.77906e-08 0)
(5.1351 -5.29051e-08 0)
(5.1351 -4.52827e-08 0)
(5.1351 -7.02304e-09 0)
(5.1351 2.07998e-08 0)
(5.1351 -1.63805e-08 0)
(5.1351 -4.90028e-08 0)
(5.1351 -2.32839e-08 0)
(5.1351 1.46804e-08 0)
(5.1351 3.97657e-08 0)
(5.1351 -8.84673e-09 0)
(5.1351 -3.82284e-08 0)
(5.1351 -4.10997e-08 0)
(5.1351 4.19447e-08 0)
(5.1351 3.43423e-08 0)
(5.13511 5.25282e-08 0)
(5.13509 -1.33804e-08 0)
(5.13511 -8.94907e-09 0)
(5.13509 1.2032e-08 0)
(5.13511 -3.94022e-08 0)
(5.13509 1.11259e-07 0)
(5.1351 -8.30184e-08 0)
(5.1351 1.04789e-07 0)
(5.1351 -1.24318e-07 0)
(5.13511 -6.81576e-08 0)
(5.13509 1.52958e-07 0)
(5.13511 -2.27434e-07 0)
(5.1351 3.02807e-07 0)
(5.1351 -1.49825e-07 0)
(5.1351 -1.21547e-07 0)
(5.1351 3.35825e-07 0)
(5.1351 -3.24901e-07 0)
(5.1351 1.58056e-07 0)
(5.1351 1.5302e-07 0)
(5.1351 -3.39188e-07 0)
(5.1351 8.84134e-08 0)
(5.1351 5.63171e-08 0)
(5.1351 -7.37212e-08 0)
(9.98292 1.07922 0)
(11.1886 0.428747 0)
(9.50814 2.1614 0)
(12.7173 -0.114097 0)
(11.7354 -0.0625039 0)
(12.9674 0.161229 0)
(13.0996 -2.32808 0)
(10.0433 -2.30163 0)
(12.0208 -3.12389 0)
(10.819 -3.24388 0)
(9.45486 -4.0248 0)
(11.8386 -4.25579 0)
(12.7989 -3.15109 0)
(12.3296 -0.930402 0)
(11.0168 0.957782 0)
(8.62004 1.31846 0)
(7.00742 0.908541 0)
(6.26943 0.566893 0)
(5.73334 0.300165 0)
(5.41106 0.0861932 0)
(5.45471 -0.00579109 0)
(5.62698 0.000695107 0)
(5.63843 0.0191649 0)
(5.50624 0.0187943 0)
(5.39105 0.027933 0)
(5.36485 0.052403 0)
(5.39533 0.0733794 0)
(5.42759 0.0788095 0)
(5.43349 0.0674715 0)
(5.41747 0.0424775 0)
(5.39067 0.00830327 0)
(5.35555 -0.0293806 0)
(5.31445 -0.0605728 0)
(5.27381 -0.077962 0)
(5.239 -0.0799235 0)
(5.21117 -0.0703144 0)
(5.18913 -0.0552972 0)
(5.17188 -0.0400342 0)
(5.15894 -0.0273081 0)
(5.14985 -0.017853 0)
(5.14388 -0.0113255 0)
(5.14016 -0.00702936 0)
(5.13795 -0.00429185 0)
(5.13669 -0.00258651 0)
(5.13598 -0.00154186 0)
(5.13558 -0.000910347 0)
(5.13537 -0.000532871 0)
(5.13525 -0.000309429 0)
(5.13518 -0.000178301 0)
(5.13515 -0.000102125 0)
(5.13513 -5.82284e-05 0)
(5.13511 -3.29726e-05 0)
(5.13511 -1.85246e-05 0)
(5.1351 -1.03843e-05 0)
(5.1351 -5.80961e-06 0)
(5.1351 -3.19158e-06 0)
(5.1351 -1.74024e-06 0)
(5.1351 -9.63591e-07 0)
(5.1351 -5.83033e-07 0)
(5.1351 -3.76678e-07 0)
(5.1351 -1.58113e-07 0)
(5.1351 -2.15147e-08 0)
(5.1351 -2.6015e-08 0)
(5.1351 -5.80243e-08 0)
(5.1351 -5.99125e-08 0)
(5.1351 -5.53972e-09 0)
(5.1351 2.81472e-08 0)
(5.1351 -2.71555e-08 0)
(5.1351 -6.74712e-08 0)
(5.1351 -2.8507e-08 0)
(5.1351 2.14043e-08 0)
(5.1351 5.37806e-08 0)
(5.1351 -1.28138e-08 0)
(5.1351 -5.65812e-08 0)
(5.1351 -5.70494e-08 0)
(5.1351 5.60491e-08 0)
(5.1351 5.22557e-08 0)
(5.13511 7.00793e-08 0)
(5.13509 -1.9975e-08 0)
(5.13511 -1.47772e-08 0)
(5.13509 9.66881e-09 0)
(5.13511 -4.73046e-08 0)
(5.13509 1.48833e-07 0)
(5.1351 -1.06743e-07 0)
(5.1351 1.32798e-07 0)
(5.1351 -1.72338e-07 0)
(5.13511 -8.35803e-08 0)
(5.13509 1.93739e-07 0)
(5.13511 -2.89873e-07 0)
(5.1351 3.97153e-07 0)
(5.1351 -2.01777e-07 0)
(5.1351 -1.45135e-07 0)
(5.1351 4.22816e-07 0)
(5.1351 -4.26761e-07 0)
(5.1351 2.15536e-07 0)
(5.1351 1.94633e-07 0)
(5.1351 -4.24889e-07 0)
(5.1351 1.16806e-07 0)
(5.1351 6.63761e-08 0)
(5.1351 -9.43924e-08 0)
(10.3786 0.944727 0)
(11.167 0.52556 0)
(10.2371 1.82857 0)
(13.4776 -0.183452 0)
(11.8 -0.103255 0)
(13.0448 0.0411856 0)
(12.8364 -1.87321 0)
(10.7202 -2.25816 0)
(11.0694 -3.25782 0)
(9.97986 -2.8857 0)
(10.0281 -4.19184 0)
(12.3119 -4.48164 0)
(12.9069 -3.0258 0)
(12.3899 -0.710067 0)
(11.2108 1.26439 0)
(9.00118 1.66066 0)
(7.12486 1.15846 0)
(6.29964 0.720988 0)
(5.87933 0.393859 0)
(5.52533 0.119015 0)
(5.4097 -0.00212169 0)
(5.54333 0.0210922 0)
(5.61388 0.0467386 0)
(5.51532 0.0263163 0)
(5.40035 0.00979483 0)
(5.38327 0.0347135 0)
(5.42868 0.0822005 0)
(5.4638 0.11039 0)
(5.47989 0.093802 0)
(5.4952 0.0391146 0)
(5.49768 -0.0275425 0)
(5.46494 -0.0804303 0)
(5.40037 -0.108264 0)
(5.32795 -0.113319 0)
(5.2675 -0.102614 0)
(5.22427 -0.0833945 0)
(5.19481 -0.0620711 0)
(5.17453 -0.0431016 0)
(5.16045 -0.0284405 0)
(5.15086 -0.0181086 0)
(5.14458 -0.0112573 0)
(5.14065 -0.00688489 0)
(5.13828 -0.00416172 0)
(5.13689 -0.00249231 0)
(5.1361 -0.00148036 0)
(5.13566 -0.000872439 0)
(5.13541 -0.000510294 0)
(5.13527 -0.000296285 0)
(5.1352 -0.000170782 0)
(5.13515 -9.78617e-05 0)
(5.13513 -5.57896e-05 0)
(5.13512 -3.15945e-05 0)
(5.13511 -1.77644e-05 0)
(5.13511 -9.96277e-06 0)
(5.1351 -5.57092e-06 0)
(5.1351 -3.06895e-06 0)
(5.1351 -1.69424e-06 0)
(5.1351 -9.39701e-07 0)
(5.1351 -5.42295e-07 0)
(5.1351 -3.39375e-07 0)
(5.1351 -1.5593e-07 0)
(5.1351 -4.11724e-08 0)
(5.1351 -3.66506e-08 0)
(5.1351 -4.46378e-08 0)
(5.1351 -4.21017e-08 0)
(5.1351 -1.24544e-08 0)
(5.1351 1.53806e-08 0)
(5.1351 -1.73321e-08 0)
(5.1351 -4.75065e-08 0)
(5.1351 -1.85621e-08 0)
(5.1351 1.17029e-08 0)
(5.1351 3.54957e-08 0)
(5.1351 -1.50753e-08 0)
(5.1351 -2.82332e-08 0)
(5.1351 -4.01101e-08 0)
(5.1351 5.02223e-08 0)
(5.1351 1.99627e-08 0)
(5.13511 5.99323e-08 0)
(5.13509 -2.02551e-08 0)
(5.13511 2.03125e-10 0)
(5.13509 2.20333e-08 0)
(5.13511 -6.51882e-08 0)
(5.13509 1.53541e-07 0)
(5.1351 -1.48484e-07 0)
(5.1351 1.72246e-07 0)
(5.1351 -1.73815e-07 0)
(5.13511 -6.49769e-08 0)
(5.13509 2.23948e-07 0)
(5.13511 -3.67188e-07 0)
(5.1351 4.59457e-07 0)
(5.1351 -2.50852e-07 0)
(5.1351 -1.49201e-07 0)
(5.1351 5.06032e-07 0)
(5.1351 -5.20308e-07 0)
(5.1351 2.47523e-07 0)
(5.1351 2.18249e-07 0)
(5.1351 -4.94008e-07 0)
(5.1351 1.63688e-07 0)
(5.1351 9.30723e-08 0)
(5.1351 -1.10249e-07 0)
(10.3863 0.855575 0)
(11.5468 0.56709 0)
(10.1547 1.51737 0)
(13.7642 -0.238591 0)
(11.0645 -0.124054 0)
(12.901 0.0262239 0)
(12.2454 -1.69547 0)
(10.8926 -2.15373 0)
(10.5481 -3.05158 0)
(9.7538 -2.85615 0)
(10.7 -4.71817 0)
(12.608 -4.92784 0)
(12.6413 -3.00806 0)
(11.8462 -0.545177 0)
(10.8001 1.54517 0)
(8.47952 2.02409 0)
(6.88295 1.41343 0)
(6.49229 0.823623 0)
(6.30892 0.462374 0)
(5.9321 0.181932 0)
(5.54178 -0.00713082 0)
(5.48507 -0.0374352 0)
(5.65726 0.0224239 0)
(5.71407 0.061881 0)
(5.56444 0.0599786 0)
(5.38274 0.0543552 0)
(5.31837 0.0642737 0)
(5.38174 0.0735059 0)
(5.52065 0.0635734 0)
(5.6618 0.0401262 0)
(5.72799 0.0174528 0)
(5.68692 -0.00288291 0)
(5.57244 -0.0252139 0)
(5.44366 -0.0450838 0)
(5.33833 -0.0552433 0)
(5.26474 -0.0537438 0)
(5.21656 -0.044572 0)
(5.18559 -0.0330948 0)
(5.16583 -0.0228266 0)
(5.15342 -0.0150056 0)
(5.14582 -0.00956707 0)
(5.14127 -0.00597709 0)
(5.13861 -0.00368048 0)
(5.13708 -0.00223977 0)
(5.13621 -0.00134856 0)
(5.13573 -0.000803661 0)
(5.13545 -0.000474225 0)
(5.1353 -0.000277199 0)
(5.13521 -0.000160575 0)
(5.13516 -9.23416e-05 0)
(5.13514 -5.27854e-05 0)
(5.13512 -2.99356e-05 0)
(5.13511 -1.68415e-05 0)
(5.13511 -9.46138e-06 0)
(5.1351 -5.29921e-06 0)
(5.1351 -2.92083e-06 0)
(5.1351 -1.60542e-06 0)
(5.1351 -8.84274e-07 0)
(5.1351 -5.2059e-07 0)
(5.1351 -3.33757e-07 0)
(5.1351 -1.40383e-07 0)
(5.1351 -2.25626e-08 0)
(5.1351 -2.69584e-08 0)
(5.1351 -4.50557e-08 0)
(5.1351 -5.0269e-08 0)
(5.1351 -1.13727e-08 0)
(5.1351 2.06796e-08 0)
(5.1351 -2.41375e-08 0)
(5.1351 -5.92695e-08 0)
(5.1351 -2.0963e-08 0)
(5.1351 1.4824e-08 0)
(5.1351 4.37155e-08 0)
(5.1351 -1.69811e-08 0)
(5.1351 -3.8571e-08 0)
(5.1351 -5.22355e-08 0)
(5.1351 5.89224e-08 0)
(5.1351 2.71179e-08 0)
(5.13511 7.21945e-08 0)
(5.13509 -2.43824e-08 0)
(5.13511 -2.36984e-09 0)
(5.13509 1.88345e-08 0)
(5.13511 -7.28815e-08 0)
(5.13509 1.83275e-07 0)
(5.1351 -1.74682e-07 0)
(5.1351 2.06684e-07 0)
(5.1351 -2.19459e-07 0)
(5.13511 -6.4509e-08 0)
(5.13509 2.52997e-07 0)
(5.13511 -4.29119e-07 0)
(5.1351 5.51195e-07 0)
(5.1351 -3.12515e-07 0)
(5.1351 -1.53547e-07 0)
(5.1351 5.76852e-07 0)
(5.1351 -6.19226e-07 0)
(5.1351 3.10177e-07 0)
(5.1351 2.46677e-07 0)
(5.1351 -5.6646e-07 0)
(5.1351 1.99573e-07 0)
(5.1351 1.00974e-07 0)
(5.1351 -1.30325e-07 0)
(10.1563 0.668305 0)
(11.8771 0.656509 0)
(9.73366 1.25469 0)
(13.6191 -0.304552 0)
(10.1536 0.0341001 0)
(12.7018 -0.176048 0)
(11.5415 -1.41898 0)
(11.2347 -2.04914 0)
(10.2656 -3.04595 0)
(9.83069 -2.78987 0)
(11.4183 -4.99439 0)
(12.2442 -4.9136 0)
(12.3318 -2.68917 0)
(11.3628 -0.237409 0)
(10.3408 1.7526 0)
(8.56722 2.25947 0)
(7.26504 1.5544 0)
(6.40508 0.88807 0)
(6.05654 0.505824 0)
(5.84969 0.254792 0)
(5.55828 0.080256 0)
(5.36521 0.00712851 0)
(5.41939 0.0096181 0)
(5.59313 0.0348569 0)
(5.67757 0.057303 0)
(5.61012 0.0710304 0)
(5.49503 0.0797043 0)
(5.43141 0.0751004 0)
(5.41846 0.047361 0)
(5.41342 0.00546882 0)
(5.39297 -0.0348375 0)
(5.35823 -0.0633489 0)
(5.31859 -0.0796324 0)
(5.2813 -0.0854826 0)
(5.24916 -0.0811209 0)
(5.22194 -0.0684025 0)
(5.19877 -0.0519304 0)
(5.17953 -0.0362954 0)
(5.16449 -0.023949 0)
(5.15363 -0.0152308 0)
(5.14633 -0.00947925 0)
(5.1417 -0.00582156 0)
(5.1389 -0.0035422 0)
(5.13726 -0.00213803 0)
(5.13632 -0.00128012 0)
(5.13579 -0.00075997 0)
(5.13549 -0.000447293 0)
(5.13532 -0.000261029 0)
(5.13522 -0.000151075 0)
(5.13517 -8.68391e-05 0)
(5.13514 -4.96023e-05 0)
(5.13512 -2.81169e-05 0)
(5.13511 -1.5824e-05 0)
(5.13511 -8.89312e-06 0)
(5.1351 -4.98411e-06 0)
(5.1351 -2.75461e-06 0)
(5.1351 -1.52868e-06 0)
(5.1351 -8.41907e-07 0)
(5.1351 -4.76259e-07 0)
(5.1351 -2.97534e-07 0)
(5.1351 -1.34229e-07 0)
(5.1351 -3.46272e-08 0)
(5.1351 -3.42705e-08 0)
(5.1351 -3.72797e-08 0)
(5.1351 -3.78021e-08 0)
(5.1351 -1.60722e-08 0)
(5.1351 1.09499e-08 0)
(5.1351 -1.69846e-08 0)
(5.1351 -4.51822e-08 0)
(5.1351 -1.3257e-08 0)
(5.1351 9.38713e-09 0)
(5.1351 3.11098e-08 0)
(5.1351 -2.01644e-08 0)
(5.1351 -1.74201e-08 0)
(5.1351 -4.0929e-08 0)
(5.1351 5.79179e-08 0)
(5.1351 2.96395e-09 0)
(5.13511 6.75492e-08 0)
(5.13509 -2.91838e-08 0)
(5.13511 1.1957e-08 0)
(5.13509 2.41641e-08 0)
(5.13511 -8.52455e-08 0)
(5.13509 1.91938e-07 0)
(5.1351 -2.1422e-07 0)
(5.1351 2.45978e-07 0)
(5.1351 -2.36101e-07 0)
(5.13511 -3.7497e-08 0)
(5.13509 2.72338e-07 0)
(5.13511 -4.94405e-07 0)
(5.1351 6.19209e-07 0)
(5.1351 -3.76704e-07 0)
(5.1351 -1.38364e-07 0)
(5.1351 6.40903e-07 0)
(5.1351 -7.0955e-07 0)
(5.1351 3.57054e-07 0)
(5.1351 2.54861e-07 0)
(5.1351 -6.26985e-07 0)
(5.1351 2.46037e-07 0)
(5.1351 1.1941e-07 0)
(5.1351 -1.45457e-07 0)
(9.6 0.497041 0)
(11.9993 0.718496 0)
(9.48962 1.03631 0)
(13.2337 -0.255065 0)
(9.55404 0.0497807 0)
(12.9475 -0.268673 0)
(10.6544 -1.22418 0)
(11.6912 -2.11347 0)
(9.91775 -2.74933 0)
(9.9313 -2.89143 0)
(11.6299 -5.42798 0)
(11.5852 -5.17284 0)
(11.5513 -2.65562 0)
(10.3547 -0.0940745 0)
(9.3125 2.0356 0)
(7.98787 2.51699 0)
(6.61107 1.78878 0)
(6.30115 1.0315 0)
(6.21601 0.55613 0)
(5.88959 0.275308 0)
(5.54581 0.0823414 0)
(5.38373 -0.0135946 0)
(5.44715 -0.0176468 0)
(5.56453 0.0254019 0)
(5.57918 0.0702158 0)
(5.5282 0.092517 0)
(5.49656 0.0939059 0)
(5.50891 0.0829824 0)
(5.55746 0.0622617 0)
(5.62069 0.0408726 0)
(5.65855 0.0280221 0)
(5.63629 0.015648 0)
(5.55545 -0.00322378 0)
(5.44891 -0.0246024 0)
(5.3503 -0.0387638 0)
(5.27508 -0.0414014 0)
(5.22338 -0.0355983 0)
(5.18964 -0.0267391 0)
(5.16822 -0.0184313 0)
(5.15493 -0.0120592 0)
(5.14682 -0.00767316 0)
(5.14195 -0.00480997 0)
(5.13907 -0.00298728 0)
(5.13739 -0.00183938 0)
(5.13641 -0.00112151 0)
(5.13585 -0.000676205 0)
(5.13553 -0.000402986 0)
(5.13534 -0.000237423 0)
(5.13524 -0.000138374 0)
(5.13518 -7.99238e-05 0)
(5.13514 -4.57985e-05 0)
(5.13512 -2.60093e-05 0)
(5.13511 -1.46536e-05 0)
(5.13511 -8.25402e-06 0)
(5.1351 -4.63582e-06 0)
(5.1351 -2.5667e-06 0)
(5.1351 -1.41953e-06 0)
(5.1351 -7.73029e-07 0)
(5.1351 -4.44187e-07 0)
(5.1351 -2.823e-07 0)
(5.1351 -1.17762e-07 0)
(5.1351 -2.06931e-08 0)
(5.1351 -2.51645e-08 0)
(5.1351 -3.52727e-08 0)
(5.1351 -4.17814e-08 0)
(5.1351 -1.45759e-08 0)
(5.1351 1.4449e-08 0)
(5.1351 -2.05628e-08 0)
(5.1351 -5.16747e-08 0)
(5.1351 -1.38959e-08 0)
(5.1351 1.03304e-08 0)
(5.1351 3.52436e-08 0)
(5.1351 -2.06215e-08 0)
(5.1351 -2.15043e-08 0)
(5.1351 -5.06046e-08 0)
(5.1351 6.23639e-08 0)
(5.1351 3.95768e-09 0)
(5.13511 7.66143e-08 0)
(5.13509 -3.34465e-08 0)
(5.13511 1.31412e-08 0)
(5.13509 2.1075e-08 0)
(5.13511 -9.26934e-08 0)
(5.13509 2.14267e-07 0)
(5.1351 -2.4025e-07 0)
(5.1351 2.86181e-07 0)
(5.1351 -2.83666e-07 0)
(5.13511 -1.96328e-08 0)
(5.13509 2.8579e-07 0)
(5.13511 -5.49708e-07 0)
(5.1351 7.07361e-07 0)
(5.1351 -4.51585e-07 0)