/*--------------------------------*- C++ -*----------------------------------*\
| =========                 |                                                 |
| \\      /  F ield         | OpenFOAM: The Open Source CFD Toolbox           |
|  \\    /   O peration     | Version:  2.4.0                                 |
|   \\  /    A nd           | Web:      www.OpenFOAM.org                      |
|    \\/     M anipulation  |                                                 |
\*---------------------------------------------------------------------------*/
FoamFile
{
    version     2.0;
    format      ascii;
    class       surfaceScalarField;
    location    "0.14";
    object      phi;
}
// * * * * * * * * * * * * * * * * * * * * * * * * * * * * * * * * * * * * * //

dimensions      [0 3 -1 0 0 0 0];

internalField   nonuniform List<scalar> 
17320
(
1.76382e-05
7.36179e-06
1.16122e-05
6.02596e-06
8.68385e-06
2.9284e-06
7.35444e-06
1.32941e-06
6.71683e-06
6.3761e-07
6.34527e-06
3.71562e-07
6.07802e-06
2.67248e-07
5.86025e-06
2.1777e-07
5.71528e-06
1.44971e-07
5.57554e-06
1.39736e-07
5.46841e-06
1.07134e-07
5.388e-06
8.04119e-08
5.30626e-06
8.17355e-08
5.20196e-06
1.04304e-07
5.13755e-06
6.44045e-08
5.0618e-06
7.57562e-08
4.94745e-06
1.14352e-07
4.94027e-06
7.17789e-09
4.7221e-06
2.18169e-07
-1.21728e-06
5.93938e-06
2.54568e-05
6.90497e-06
2.32416e-05
8.24113e-06
2.09922e-05
5.17782e-06
1.9315e-05
3.00668e-06
1.80785e-05
1.8741e-06
1.71145e-05
1.33554e-06
1.63634e-05
1.01835e-06
1.57632e-05
8.17921e-07
1.53154e-05
5.92769e-07
1.49199e-05
5.35245e-07
1.46242e-05
4.02877e-07
1.43643e-05
3.40351e-07
1.41378e-05
3.08168e-07
1.38983e-05
3.43848e-07
1.37144e-05
2.48268e-07
1.35053e-05
2.84903e-07
1.32626e-05
3.57066e-07
1.31314e-05
1.38378e-07
1.30346e-05
3.14922e-07
-1.47033e-06
1.32876e-05
2.66096e-05
5.29533e-06
2.7153e-05
7.69774e-06
2.679e-05
5.54082e-06
2.62426e-05
3.5541e-06
2.56104e-05
2.50625e-06
2.48767e-05
2.06924e-06
2.41572e-05
1.73792e-06
2.34922e-05
1.48286e-06
2.29432e-05
1.1418e-06
2.24241e-05
1.05431e-06
2.20291e-05
7.97936e-07
2.16637e-05
7.05714e-07
2.13456e-05
6.26333e-07
2.10317e-05
6.5769e-07
2.07779e-05
5.02113e-07
2.04873e-05
5.75511e-07
2.02188e-05
6.25557e-07
1.99114e-05
4.45768e-07
1.98899e-05
3.36443e-07
-1.0081e-06
1.94276e-05
2.63103e-05
3.98499e-06
2.75239e-05
6.48421e-06
2.81001e-05
4.96464e-06
2.84459e-05
3.20821e-06
2.86579e-05
2.2943e-06
2.86334e-05
2.0937e-06
2.84789e-05
1.89242e-06
2.82177e-05
1.74409e-06
2.79848e-05
1.37467e-06
2.76657e-05
1.3734e-06
2.74238e-05
1.03991e-06
2.71602e-05
9.69325e-07
2.6908e-05
8.78532e-07
2.66439e-05
9.2179e-07
2.64271e-05
7.18903e-07
2.61447e-05
8.57849e-07
2.59376e-05
8.32695e-07
2.55659e-05
8.17417e-07
2.53602e-05
5.42211e-07
1.5892e-07
2.41932e-05
2.60343e-05
2.95072e-06
2.72094e-05
5.30912e-06
2.80527e-05
4.12132e-06
2.84987e-05
2.76224e-06
2.89775e-05
1.81541e-06
2.93344e-05
1.73683e-06
2.96096e-05
1.6172e-06
2.97257e-05
1.62806e-06
2.98612e-05
1.23915e-06
2.98838e-05
1.3508e-06
2.9932e-05
9.9174e-07
2.99529e-05
9.48408e-07
2.9949e-05
8.82398e-07
2.99219e-05
9.48919e-07
2.98903e-05
7.5044e-07
2.97957e-05
9.52537e-07
2.97276e-05
9.00785e-07
2.9669e-05
8.75968e-07
2.96785e-05
5.32704e-07
2.39181e-08
2.98135e-05
2.58812e-05
2.06954e-06
2.69208e-05
4.26946e-06
2.77884e-05
3.25376e-06
2.82299e-05
2.32079e-06
2.87244e-05
1.3209e-06
2.90961e-05
1.36509e-06
2.9474e-05
1.23926e-06
2.97254e-05
1.37673e-06
2.99849e-05
9.79637e-07
3.01793e-05
1.1564e-06
3.03672e-05
8.03866e-07
3.05351e-05
7.8044e-07
3.06859e-05
7.31631e-07
3.08567e-05
7.78141e-07
3.0982e-05
6.25166e-07
3.11073e-05
8.27178e-07
3.12298e-05
7.78328e-07
3.14587e-05
6.47037e-07
3.15336e-05
4.57857e-07
-2.16605e-07
3.17741e-05
2.56932e-05
1.37637e-06
2.66952e-05
3.2674e-06
2.76053e-05
2.34365e-06
2.80579e-05
1.86818e-06
2.84534e-05
9.25412e-07
2.88207e-05
9.9782e-07
2.92031e-05
8.56913e-07
2.95251e-05
1.05468e-06
2.97582e-05
7.46499e-07
3.00153e-05
8.99384e-07
3.01797e-05
6.39448e-07
3.03723e-05
5.8781e-07
3.0548e-05
5.55894e-07
3.08123e-05
5.13926e-07
3.09745e-05
4.62924e-07
3.11913e-05
6.10389e-07
3.14008e-05
5.68841e-07
3.16433e-05
4.04493e-07
3.18181e-05
2.83041e-07
-5.34519e-07
3.2136e-05
2.55437e-05
8.32677e-07
2.66247e-05
2.18641e-06
2.74289e-05
1.53946e-06
2.80118e-05
1.28522e-06
2.83436e-05
5.93615e-07
2.87166e-05
6.24833e-07
2.89552e-05
6.18283e-07
2.93017e-05
7.08253e-07
2.95994e-05
4.48808e-07
2.98975e-05
6.01236e-07
3.00514e-05
4.85554e-07
3.02461e-05
3.93085e-07
3.04293e-05
3.72683e-07
3.06292e-05
3.14023e-07
3.0803e-05
2.89117e-07
3.10264e-05
3.87075e-07
3.12733e-05
3.21863e-07
3.1515e-05
1.62843e-07
3.1691e-05
1.07076e-07
-4.50556e-07
3.1607e-05
2.54713e-05
3.61379e-07
2.64869e-05
1.17084e-06
2.72995e-05
7.26809e-07
2.79237e-05
6.61091e-07
2.82671e-05
2.50152e-07
2.85496e-05
3.42361e-07
2.88602e-05
3.07679e-07
2.92266e-05
3.41885e-07
2.94866e-05
1.88727e-07
2.97374e-05
3.50426e-07
2.99362e-05
2.86819e-07
3.0149e-05
1.80271e-07
3.03088e-05
2.12925e-07
3.05154e-05
1.07392e-07
3.07008e-05
1.03732e-07
3.09316e-05
1.56228e-07
3.11358e-05
1.17637e-07
3.13262e-05
-2.75083e-08
3.14878e-05
-5.44997e-08
-5.87709e-07
3.16249e-05
2.54241e-05
-6.26771e-08
2.64275e-05
1.6739e-07
2.72784e-05
-1.2413e-07
2.78792e-05
6.03361e-08
2.8204e-05
-7.45973e-08
2.85818e-05
-3.55315e-08
2.8831e-05
5.85058e-08
2.91266e-05
4.63385e-08
2.93824e-05
-6.71459e-08
2.96861e-05
4.67368e-08
2.99211e-05
5.18694e-08
3.01235e-05
-2.2131e-08
3.03119e-05
2.45013e-08
3.04744e-05
-5.50777e-08
3.06186e-05
-4.04758e-08
3.08234e-05
-4.85687e-08
3.10787e-05
-1.37684e-07
3.12593e-05
-2.08091e-07
3.14987e-05
-2.93928e-07
-4.70963e-07
3.1382e-05
2.5406e-05
-4.68646e-07
2.64412e-05
-8.67866e-07
2.72692e-05
-9.52062e-07
2.79073e-05
-5.77798e-07
2.82127e-05
-3.80049e-07
2.85062e-05
-3.29005e-07
2.87782e-05
-2.13475e-07
2.91737e-05
-3.49169e-07
2.94702e-05
-3.63657e-07
2.96775e-05
-1.60538e-07
2.98661e-05
-1.36734e-07
3.00977e-05
-2.53703e-07
3.03168e-05
-1.94681e-07
3.04587e-05
-1.96897e-07
3.063e-05
-2.11781e-07
3.08594e-05
-2.77958e-07
3.10602e-05
-3.38525e-07
3.12581e-05
-4.05967e-07
3.15062e-05
-5.42006e-07
-4.05323e-07
3.14405e-05
2.54574e-05
-9.26079e-07
2.64782e-05
-1.88859e-06
2.73338e-05
-1.80769e-06
2.79475e-05
-1.19152e-06
2.82179e-05
-6.50409e-07
2.8573e-05
-6.84145e-07
2.89025e-05
-5.42984e-07
2.92325e-05
-6.79139e-07
2.94541e-05
-5.85313e-07
2.97117e-05
-4.18048e-07
2.99395e-05
-3.64588e-07
3.01586e-05
-4.72775e-07
3.03285e-05
-3.64599e-07
3.05409e-05
-4.09312e-07
3.07288e-05
-3.99674e-07
3.09123e-05
-4.61446e-07
3.1044e-05
-4.70257e-07
3.131e-05
-6.71905e-07
3.15076e-05
-7.39646e-07
-4.19134e-07
3.15214e-05
2.55308e-05
-1.45688e-06
2.65849e-05
-2.94274e-06
2.74455e-05
-2.66828e-06
2.8013e-05
-1.75898e-06
2.8333e-05
-9.70431e-07
2.87168e-05
-1.06788e-06
2.89922e-05
-8.1847e-07
2.92787e-05
-9.65631e-07
2.9545e-05
-8.51539e-07
2.98472e-05
-7.20246e-07
3.00818e-05
-5.99241e-07
3.02876e-05
-6.78517e-07
3.04206e-05
-4.97609e-07
3.06036e-05
-5.92357e-07
3.0797e-05
-5.93076e-07
3.10159e-05
-6.80303e-07
3.12177e-05
-6.72072e-07
3.14633e-05
-9.17554e-07
3.15592e-05
-8.35523e-07
-5.34833e-07
3.16749e-05
2.56591e-05
-2.11597e-06
2.67491e-05
-4.0327e-06
2.76159e-05
-3.53508e-06
2.80753e-05
-2.21838e-06
2.84686e-05
-1.36379e-06
2.88412e-05
-1.44046e-06
2.91641e-05
-1.1414e-06
2.94989e-05
-1.30042e-06
2.97658e-05
-1.11843e-06
2.99999e-05
-9.54399e-07
3.02105e-05
-8.09752e-07
3.04513e-05
-9.19391e-07
3.05874e-05
-6.33649e-07
3.07904e-05
-7.95429e-07
3.09328e-05
-7.35477e-07
3.11565e-05
-9.03937e-07
3.1317e-05
-8.32562e-07
3.15754e-05
-1.17598e-06
3.16734e-05
-9.33528e-07
-8.20894e-07
3.19595e-05
2.58333e-05
-2.94924e-06
2.69782e-05
-5.17767e-06
2.78233e-05
-4.38016e-06
2.82283e-05
-2.6234e-06
2.86997e-05
-1.83516e-06
2.9093e-05
-1.83372e-06
2.94349e-05
-1.4833e-06
2.97143e-05
-1.57981e-06
2.99936e-05
-1.39782e-06
3.01887e-05
-1.14944e-06
3.03962e-05
-1.0173e-06
3.0554e-05
-1.07712e-06
3.0698e-05
-7.77723e-07
3.08335e-05
-9.30916e-07
3.09511e-05
-8.53029e-07
3.10772e-05
-1.03003e-06
3.11656e-05
-9.20981e-07
3.13338e-05
-1.34416e-06
3.1438e-05
-1.03771e-06
-1.18483e-06
3.18019e-05
2.60403e-05
-3.98956e-06
2.72727e-05
-6.41006e-06
2.80221e-05
-5.12957e-06
2.84825e-05
-3.0838e-06
2.89715e-05
-2.32415e-06
2.93086e-05
-2.17078e-06
2.9594e-05
-1.76871e-06
2.97374e-05
-1.72324e-06
2.98556e-05
-1.51598e-06
2.99128e-05
-1.2067e-06
2.99639e-05
-1.06839e-06
2.99454e-05
-1.05861e-06
2.99587e-05
-7.91004e-07
2.99135e-05
-8.85743e-07
2.98669e-05
-8.06359e-07
2.97834e-05
-9.46552e-07
2.96894e-05
-8.26976e-07
2.96093e-05
-1.26407e-06
2.95513e-05
-9.79725e-07
-1.26308e-06
2.96296e-05
2.63156e-05
-5.30516e-06
2.75582e-05
-7.65264e-06
2.80516e-05
-5.623e-06
2.84527e-05
-3.48485e-06
2.86476e-05
-2.51908e-06
2.86061e-05
-2.12928e-06
2.84924e-05
-1.65504e-06
2.82336e-05
-1.46439e-06
2.79595e-05
-1.24193e-06
2.77029e-05
-9.50119e-07
2.74355e-05
-8.00931e-07
2.71494e-05
-7.7253e-07
2.69305e-05
-5.72095e-07
2.66655e-05
-6.20808e-07
2.6428e-05
-5.68795e-07
2.61541e-05
-6.72642e-07
2.59135e-05
-5.86374e-07
2.55816e-05
-9.3217e-07
2.53753e-05
-7.73422e-07
-1.15973e-06
2.52719e-05
2.66099e-05
-6.91503e-06
2.71681e-05
-8.21087e-06
2.67614e-05
-5.21631e-06
2.62565e-05
-2.97999e-06
2.56063e-05
-1.86879e-06
2.48568e-05
-1.37977e-06
2.41745e-05
-9.72825e-07
2.35067e-05
-7.96591e-07
2.29232e-05
-6.58383e-07
2.24571e-05
-4.84055e-07
2.20401e-05
-3.83928e-07
2.16625e-05
-3.94906e-07
2.13711e-05
-2.80645e-07
2.10652e-05
-3.14977e-07
2.07944e-05
-2.97928e-07
2.04927e-05
-3.71009e-07
2.02336e-05
-3.27254e-07
1.98172e-05
-5.15739e-07
1.94813e-05
-4.37588e-07
-3.64103e-07
1.86857e-05
2.54524e-05
-7.36738e-06
2.32535e-05
-6.01204e-06
2.09783e-05
-2.94112e-06
1.93228e-05
-1.32443e-06
1.80817e-05
-6.27683e-07
1.70981e-05
-3.96239e-07
1.63758e-05
-2.50476e-07
1.57806e-05
-2.01393e-07
1.52995e-05
-1.77333e-07
1.49396e-05
-1.24104e-07
1.46424e-05
-8.67616e-08
1.43631e-05
-1.15582e-07
1.41544e-05
-7.19766e-08
1.39305e-05
-9.10798e-08
1.37243e-05
-9.16881e-08
1.34817e-05
-1.28441e-07
1.32622e-05
-1.07739e-07
1.29301e-05
-1.83637e-07
1.27041e-05
-2.1161e-07
-3.90897e-08
1.23791e-05
1.76326e-05
1.16206e-05
8.67947e-06
7.35503e-06
6.72735e-06
6.33111e-06
6.08064e-06
5.87924e-06
5.70191e-06
5.57781e-06
5.49104e-06
5.37546e-06
5.30349e-06
5.21241e-06
5.12072e-06
4.99228e-06
4.88454e-06
4.7009e-06
4.48929e-06
4.4502e-06
6.31182e-06
-1.21582e-06
8.43372e-07
6.62108e-06
-1.23767e-06
9.28414e-07
6.55707e-06
-1.46563e-06
1.52964e-06
6.28952e-06
-1.79636e-06
2.06391e-06
5.79514e-06
-2.07332e-06
2.5677e-06
5.0972e-06
-2.18804e-06
2.88598e-06
4.34826e-06
-2.17157e-06
2.9205e-06
3.80733e-06
-1.96757e-06
2.5085e-06
3.68085e-06
-1.44964e-06
1.57612e-06
4.00816e-06
-5.80663e-07
2.53354e-07
4.85586e-06
5.27931e-07
-1.37563e-06
5.83329e-06
1.92769e-06
-2.90512e-06
6.7318e-06
3.41202e-06
-4.31053e-06
7.53892e-06
4.68843e-06
-5.49556e-06
8.31448e-06
5.68079e-06
-6.45634e-06
9.13639e-06
6.4444e-06
-7.26631e-06
1.00638e-05
6.83336e-06
-7.76072e-06
1.11996e-05
6.94345e-06
-8.07925e-06
1.24477e-05
6.82283e-06
-8.07103e-06
1.3847e-05
6.3047e-06
-7.70391e-06
1.53384e-05
5.47525e-06
-6.96671e-06
1.69369e-05
4.449e-06
-6.0475e-06
1.84512e-05
3.14501e-06
-4.65934e-06
1.98088e-05
1.63817e-06
-2.99568e-06
2.09127e-05
3.92569e-08
-1.14321e-06
2.19867e-05
-1.75655e-06
6.82593e-07
2.28004e-05
-3.11031e-06
2.29652e-06
2.30679e-05
-4.12381e-06
3.85639e-06
2.31774e-05
-5.41005e-06
5.30057e-06
2.35288e-05
-6.74896e-06
6.39754e-06
2.37118e-05
-7.36095e-06
7.17797e-06
2.40791e-05
-8.17941e-06
7.81205e-06
2.46909e-05
-9.27942e-06
8.66767e-06
2.52538e-05
-1.04748e-05
9.91186e-06
2.60702e-05
-1.15989e-05
1.07825e-05
2.70042e-05
-1.24389e-05
1.1505e-05
2.75732e-05
-1.35862e-05
1.30172e-05
2.79268e-05
-1.45072e-05
1.41537e-05
2.76458e-05
-1.50294e-05
1.53104e-05
2.69011e-05
-1.52388e-05
1.59835e-05
2.56758e-05
-1.48764e-05
1.61017e-05
2.41747e-05
-1.39873e-05
1.54885e-05
2.27512e-05
-1.24271e-05
1.38505e-05
2.12584e-05
-1.03167e-05
1.18094e-05
2.00708e-05
-8.34457e-06
9.53224e-06
1.89668e-05
-5.99527e-06
7.09922e-06
1.81473e-05
-3.95179e-06
4.77127e-06
1.75733e-05
-1.7237e-06
2.29779e-06
1.7508e-05
2.53787e-07
-1.88499e-07
1.76968e-05
2.5635e-06
-2.75234e-06
1.82835e-05
4.5451e-06
-5.13181e-06
1.89135e-05
6.53807e-06
-7.16807e-06
1.94156e-05
7.9076e-06
-8.4097e-06
1.96267e-05
8.83024e-06
-9.04136e-06
1.96251e-05
9.11983e-06
-9.11824e-06
1.96273e-05
8.99412e-06
-8.9963e-06
1.96021e-05
8.47926e-06
-8.45406e-06
1.98219e-05
7.80245e-06
-8.02226e-06
2.01146e-05
6.83694e-06
-7.12962e-06
2.04338e-05
6.30049e-06
-6.61967e-06
2.08224e-05
4.94011e-06
-5.32874e-06
2.11308e-05
3.83554e-06
-4.14398e-06
2.15531e-05
2.88201e-06
-3.30424e-06
2.21603e-05
1.51479e-06
-2.12198e-06
2.24145e-05
6.02635e-07
-8.56867e-07
2.29495e-05
-8.13518e-07
2.7854e-07
2.3511e-05
-2.61142e-06
2.04992e-06
2.38178e-05
-3.46535e-06
3.1585e-06
2.45767e-05
-5.2904e-06
4.53153e-06
2.51573e-05
-7.25256e-06
6.67193e-06
2.53529e-05
-8.44407e-06
8.2485e-06
2.60262e-05
-1.05936e-05
9.9203e-06
2.64041e-05
-1.28573e-05
1.24794e-05
2.62842e-05
-1.41379e-05
1.42578e-05
2.65653e-05
-1.61938e-05
1.59127e-05
2.67066e-05
-1.80316e-05
1.78903e-05
2.65209e-05
-1.92216e-05
1.94073e-05
2.66243e-05
-2.07656e-05
2.06622e-05
2.69653e-05
-2.26879e-05
2.23469e-05
2.70232e-05
-2.39036e-05
2.38457e-05
2.65892e-05
-2.44567e-05
2.48908e-05
2.62714e-05
-2.45904e-05
2.49081e-05
2.64302e-05
-2.51648e-05
2.50061e-05
2.67285e-05
-2.47954e-05
2.44971e-05
2.71789e-05
-2.48333e-05
2.43829e-05
2.73624e-05
-2.42135e-05
2.403e-05
2.7111e-05
-2.26968e-05
2.29482e-05
2.63194e-05
-1.9697e-05
2.04886e-05
2.51055e-05
-1.57324e-05
1.69463e-05
2.42052e-05
-1.28792e-05
1.37795e-05
2.37045e-05
-1.09718e-05
1.14725e-05
2.35547e-05
-8.65353e-06
8.80327e-06
2.3004e-05
-5.03628e-06
5.58703e-06
2.198e-05
-1.286e-06
2.30993e-06
2.05915e-05
1.09821e-06
2.90359e-07
1.9631e-05
1.71416e-06
-7.5372e-07
1.87786e-05
2.85405e-06
-2.00161e-06
1.78971e-05
4.49369e-06
-3.61218e-06
1.73968e-05
6.77335e-06
-6.27303e-06
1.69415e-05
8.97049e-06
-8.51527e-06
1.61242e-05
9.907e-06
-9.08963e-06
1.60057e-05
9.32925e-06
-9.21081e-06
1.62608e-05
8.85432e-06
-9.10936e-06
1.63707e-05
7.96431e-06
-8.0743e-06
1.65327e-05
6.76334e-06
-6.9253e-06
1.70359e-05
5.99362e-06
-6.49679e-06
1.74424e-05
6.05665e-06
-6.46317e-06
1.78341e-05
5.76519e-06
-6.15687e-06
1.83475e-05
5.66619e-06
-6.17963e-06
1.90106e-05
6.04088e-06
-6.70395e-06
1.91681e-05
6.67497e-06
-6.83253e-06
1.94523e-05
6.81396e-06
-7.09817e-06
1.97133e-05
7.70422e-06
-7.96517e-06
1.95297e-05
8.45799e-06
-8.27444e-06
1.91993e-05
8.74779e-06
-8.41732e-06
1.9087e-05
9.21712e-06
-9.10489e-06
1.89781e-05
1.02559e-05
-1.01469e-05
1.83366e-05
1.07672e-05
-1.01257e-05
1.75583e-05
1.04075e-05
-9.62925e-06
1.6809e-05
1.04566e-05
-9.70729e-06
1.67474e-05
1.10018e-05
-1.09402e-05
1.67493e-05
1.26066e-05
-1.26084e-05
1.65186e-05
1.33182e-05
-1.30876e-05
1.6223e-05
1.2946e-05
-1.26503e-05
1.56627e-05
1.24101e-05
-1.18498e-05
1.56229e-05
1.22129e-05
-1.21731e-05
1.55111e-05
1.31897e-05
-1.30779e-05
1.52271e-05
1.45541e-05
-1.42701e-05
1.53146e-05
1.58327e-05
-1.59202e-05
1.4906e-05
1.79403e-05
-1.75317e-05
1.54869e-05
1.83389e-05
-1.89197e-05
1.58116e-05
2.07576e-05
-2.10824e-05
1.63684e-05
2.00497e-05
-2.06065e-05
1.69905e-05
2.16551e-05
-2.22773e-05
1.71467e-05
2.00229e-05
-2.01791e-05
1.76982e-05
1.85873e-05
-1.91388e-05
1.77173e-05
1.4787e-05
-1.48061e-05
1.8116e-05
1.17302e-05
-1.21288e-05
1.82279e-05
8.45586e-06
-8.56775e-06
1.86596e-05
6.47787e-06
-6.90955e-06
1.89276e-05
4.28096e-06
-4.54904e-06
1.93099e-05
1.84399e-06
-2.22626e-06
1.96912e-05
-1.7083e-06
1.32696e-06
2.0037e-05
-5.22759e-06
4.88178e-06
2.03001e-05
-8.82684e-06
8.56382e-06
2.06149e-05
-1.14691e-05
1.11543e-05
2.09195e-05
-1.41422e-05
1.38375e-05
2.12511e-05
-1.61572e-05
1.58257e-05
2.13581e-05
-1.8365e-05
1.8258e-05
2.16945e-05
-1.95488e-05
1.92124e-05
2.143e-05
-2.1539e-05
2.18034e-05
2.17041e-05
-2.1973e-05
2.16989e-05
2.11971e-05
-2.28958e-05
2.34028e-05
2.10772e-05
-2.11098e-05
2.12296e-05
2.06317e-05
-2.1037e-05
2.14826e-05
2.00077e-05
-1.76104e-05
1.82344e-05
1.95201e-05
-1.66201e-05
1.71076e-05
1.83096e-05
-1.32384e-05
1.44489e-05
1.78652e-05
-1.20792e-05
1.25236e-05
1.71247e-05
-9.4844e-06
1.02249e-05
1.72933e-05
-8.85456e-06
8.68597e-06
1.72955e-05
-8.0831e-06
8.08091e-06
1.75244e-05
-7.81297e-06
7.58405e-06
1.71102e-05
-7.20453e-06
7.61873e-06
1.674e-05
-6.28187e-06
6.65212e-06
1.64198e-05
-5.91056e-06
6.23077e-06
1.66063e-05
-5.78534e-06
5.59884e-06
1.73633e-05
-6.59507e-06
5.838e-06
1.84449e-05
-6.78953e-06
5.70795e-06
1.9575e-05
-6.70539e-06
5.57534e-06
2.03865e-05
-5.39624e-06
4.5847e-06
2.11373e-05
-3.77597e-06
3.02517e-06
2.15747e-05
-1.89873e-06
1.46137e-06
2.19771e-05
-9.00306e-07
4.97896e-07
2.24014e-05
3.01635e-08
-4.54442e-07
2.33426e-05
5.287e-07
-1.46999e-06
2.42948e-05
1.12847e-06
-2.08066e-06
2.53741e-05
1.92732e-06
-3.0066e-06
2.6375e-05
2.74318e-06
-3.74403e-06
2.73253e-05
3.7859e-06
-4.73628e-06
2.79144e-05
5.16521e-06
-5.75426e-06
2.81818e-05
6.61249e-06
-6.87984e-06
2.83692e-05
7.3979e-06
-7.58533e-06
2.82796e-05
8.92477e-06
-8.83516e-06
2.7947e-05
1.0527e-05
-1.01945e-05
2.74068e-05
1.22467e-05
-1.17064e-05
2.65374e-05
1.40133e-05
-1.31439e-05
2.5914e-05
1.57562e-05
-1.51328e-05
2.49108e-05
1.81198e-05
-1.71167e-05
2.38002e-05
2.01379e-05
-1.90273e-05
2.28423e-05
2.14297e-05
-2.04718e-05
2.14815e-05
2.30345e-05
-2.16737e-05
1.9887e-05
2.34141e-05
-2.18196e-05
1.88558e-05
2.28496e-05
-2.18184e-05
1.6576e-05
2.33825e-05
-2.11026e-05
1.43845e-05
2.14153e-05
-1.92237e-05
1.39592e-05
2.00053e-05
-1.95801e-05
1.2275e-05
2.23731e-05
-2.06888e-05
1.22111e-05
2.26711e-05
-2.26072e-05
3.014e-05
-2.9998e-05
1.20691e-05
1.31084e-05
-1.03653e-06
1.31574e-05
-1.28673e-06
1.31981e-05
-1.50634e-06
1.307e-05
-1.66822e-06
1.27829e-05
-1.78625e-06
1.23893e-05
-1.79446e-06
1.1806e-05
-1.58823e-06
1.10067e-05
-1.16828e-06
1.0157e-05
-5.99951e-07
9.51671e-06
5.96464e-08
9.17376e-06
8.7088e-07
9.37451e-06
1.72694e-06
1.01133e-05
2.6732e-06
1.11764e-05
3.62536e-06
1.2364e-05
4.49319e-06
1.36099e-05
5.19852e-06
1.48595e-05
5.58377e-06
1.61522e-05
5.6507e-06
1.74465e-05
5.52853e-06
1.87306e-05
5.02058e-06
2.00258e-05
4.18014e-06
2.12905e-05
3.18425e-06
2.2421e-05
2.01453e-06
2.33552e-05
7.03931e-07
2.40704e-05
-6.7589e-07
2.45333e-05
-2.21953e-06
2.49665e-05
-3.54352e-06
2.53337e-05
-4.49097e-06
2.55038e-05
-5.58013e-06
2.5807e-05
-7.05216e-06
2.65852e-05
-8.1392e-06
2.72787e-05
-8.87284e-06
2.80513e-05
-1.00521e-05
2.91534e-05
-1.15769e-05
2.98855e-05
-1.2331e-05
3.03972e-05
-1.29506e-05
3.05875e-05
-1.37765e-05
3.0415e-05
-1.43348e-05
2.96294e-05
-1.42438e-05
2.83013e-05
-1.39106e-05
2.66879e-05
-1.3263e-05
2.46929e-05
-1.19924e-05
2.2903e-05
-1.06373e-05
2.15194e-05
-8.93299e-06
2.03409e-05
-7.16611e-06
1.95374e-05
-5.19176e-06
1.89806e-05
-3.39495e-06
1.84754e-05
-1.21852e-06
1.83046e-05
4.24563e-07
1.85057e-05
2.36242e-06
1.90513e-05
3.99945e-06
1.97933e-05
5.79614e-06
2.0581e-05
7.11989e-06
2.13335e-05
8.07769e-06
2.17959e-05
8.6575e-06
2.21271e-05
8.66285e-06
2.21693e-05
8.43707e-06
2.23626e-05
7.60918e-06
2.23983e-05
6.8012e-06
2.26029e-05
6.09588e-06
2.28187e-05
4.72437e-06
2.29114e-05
3.74283e-06
2.33278e-05
2.4656e-06
2.37675e-05
1.07513e-06
2.401e-05
3.60094e-07
2.47488e-05
-1.55235e-06
2.49275e-05
-2.79009e-06
2.53292e-05
-3.86709e-06
2.60627e-05
-6.02382e-06
2.61397e-05
-7.3296e-06
2.64598e-05
-8.7642e-06
2.70835e-05
-1.12173e-05
2.69108e-05
-1.26846e-05
2.69021e-05
-1.41293e-05
2.7105e-05
-1.63967e-05
2.67234e-05
-1.765e-05
2.63614e-05
-1.88597e-05
2.63583e-05
-2.07625e-05
2.63226e-05
-2.26521e-05
2.57785e-05
-2.33595e-05
2.51364e-05
-2.38146e-05
2.51431e-05
-2.45971e-05
2.5237e-05
-2.52587e-05
2.54585e-05
-2.50168e-05
2.547e-05
-2.48448e-05
2.5218e-05
-2.39615e-05
2.46569e-05
-2.21357e-05
2.3465e-05
-1.85051e-05
2.22352e-05
-1.45027e-05
2.12699e-05
-1.19139e-05
2.08408e-05
-1.05428e-05
2.0621e-05
-8.43377e-06
1.99372e-05
-4.35241e-06
1.88569e-05
-2.0569e-07
1.78505e-05
2.10459e-06
1.69906e-05
2.57401e-06
1.59544e-05
3.89034e-06
1.49713e-05
5.47678e-06
1.42726e-05
7.47203e-06
1.37965e-05
9.44658e-06
1.35071e-05
1.01964e-05
1.35766e-05
9.25974e-06
1.41575e-05
8.27342e-06
1.4707e-05
7.41476e-06
1.52823e-05
6.18808e-06
1.59879e-05
5.28805e-06
1.70318e-05
5.01267e-06
1.77643e-05
5.03272e-06
1.84673e-05
4.96316e-06
1.91464e-05
5.36186e-06
1.95813e-05
6.23998e-06
1.96568e-05
6.73855e-06
1.99995e-05
7.36151e-06
1.98673e-05
8.59021e-06
1.95793e-05
9.03574e-06
1.92217e-05
9.57476e-06
1.91118e-05
1.03658e-05
1.86423e-05
1.12367e-05
1.79275e-05
1.11223e-05
1.73254e-05
1.10586e-05
1.69046e-05
1.14226e-05
1.69001e-05
1.26111e-05
1.65939e-05
1.36245e-05
1.6325e-05
1.32148e-05
1.59452e-05
1.27899e-05
1.5579e-05
1.25791e-05
1.59281e-05
1.28406e-05
1.56706e-05
1.48117e-05
1.61477e-05
1.53556e-05
1.61093e-05
1.79786e-05
1.65704e-05
1.78778e-05
1.73251e-05
2.00029e-05
1.77896e-05
1.95852e-05
1.86333e-05
2.08114e-05
1.89622e-05
1.9694e-05
1.9559e-05
1.79905e-05
1.97029e-05
1.46432e-05
1.99745e-05
1.14586e-05
2.01606e-05
8.26976e-06
2.05599e-05
6.0786e-06
2.12012e-05
3.63965e-06
2.16737e-05
1.37145e-06
2.1986e-05
-2.02056e-06
2.21399e-05
-5.38148e-06
2.22222e-05
-8.90914e-06
2.24659e-05
-1.17129e-05
2.2745e-05
-1.44212e-05
2.29703e-05
-1.63826e-05
2.30183e-05
-1.8413e-05
2.30779e-05
-1.96084e-05
2.29371e-05
-2.13982e-05
2.28397e-05
-2.18756e-05
2.23153e-05
-2.23713e-05
2.19794e-05
-2.0774e-05
2.10305e-05
-2.00881e-05
2.04161e-05
-1.6996e-05
1.95003e-05
-1.57043e-05
1.85437e-05
-1.22817e-05
1.78969e-05
-1.14325e-05
1.73724e-05
-8.95983e-06
1.73059e-05
-8.78805e-06
1.68825e-05
-7.65975e-06
1.67348e-05
-7.66525e-06
1.61672e-05
-6.63693e-06
1.58445e-05
-5.9592e-06
1.5726e-05
-5.79198e-06
1.63307e-05
-6.39007e-06
1.71669e-05
-7.43131e-06
1.84579e-05
-8.08055e-06
1.9489e-05
-7.73644e-06
2.01594e-05
-6.06668e-06
2.03385e-05
-3.95501e-06
2.03355e-05
-1.89574e-06
2.05451e-05
-1.10996e-06
2.1069e-05
-4.937e-07
2.21011e-05
-5.03388e-07
2.33214e-05
-9.18359e-08
2.47658e-05
4.82933e-07
2.59594e-05
1.54955e-06
2.70076e-05
2.73768e-06
2.76549e-05
4.51796e-06
2.80903e-05
6.17703e-06
2.82288e-05
7.25944e-06
2.83161e-05
8.83747e-06
2.79993e-05
1.08438e-05
2.76583e-05
1.25877e-05
2.70147e-05
1.46568e-05
2.62126e-05
1.65584e-05
2.54593e-05
1.88731e-05
2.44117e-05
2.11855e-05
2.33976e-05
2.24438e-05
2.27817e-05
2.36503e-05
2.11474e-05
2.50485e-05
1.99878e-05
2.40093e-05
1.92657e-05
2.41045e-05
1.6767e-05
2.3914e-05
1.59568e-05
2.08155e-05
1.51434e-05
2.31864e-05
1.89085e-05
1.8906e-05
3.068e-05
1.83686e-05
1.9247e-05
-8.55876e-07
1.9257e-05
-1.29677e-06
1.93114e-05
-1.56076e-06
1.92245e-05
-1.58126e-06
1.89435e-05
-1.50529e-06
1.8486e-05
-1.33692e-06
1.79385e-05
-1.04071e-06
1.73911e-05
-6.20935e-07
1.68421e-05
-5.09706e-08
1.62708e-05
6.31021e-07
1.57484e-05
1.39322e-06
1.53656e-05
2.10974e-06
1.53124e-05
2.7264e-06
1.55366e-05
3.40114e-06
1.6121e-05
3.90882e-06
1.70608e-05
4.25871e-06
1.80988e-05
4.54581e-06
1.92003e-05
4.54919e-06
2.0481e-05
4.24783e-06
2.1707e-05
3.79457e-06
2.27262e-05
3.16096e-06
2.37211e-05
2.18937e-06
2.48383e-05
8.97265e-07
2.5633e-05
-9.07818e-08
2.61868e-05
-1.22964e-06
2.68179e-05
-2.85065e-06
2.74111e-05
-4.1367e-06
2.79118e-05
-4.99168e-06
2.88043e-05
-6.47264e-06
2.96665e-05
-7.9143e-06
3.03058e-05
-8.77853e-06
3.12415e-05
-9.80856e-06
3.21086e-05
-1.09192e-05
3.25805e-05
-1.20487e-05
3.2815e-05
-1.25655e-05
3.27681e-05
-1.29037e-05
3.24417e-05
-1.34501e-05
3.14976e-05
-1.33907e-05
3.01502e-05
-1.28963e-05
2.85038e-05
-1.22642e-05
2.69553e-05
-1.17145e-05
2.55846e-05
-1.06217e-05
2.38845e-05
-8.93722e-06
2.24885e-05
-7.53692e-06
2.11778e-05
-5.85544e-06
2.01418e-05
-4.15575e-06
1.94883e-05
-2.7415e-06
1.92222e-05
-9.52354e-07
1.90236e-05
6.23193e-07
1.91712e-05
2.21472e-06
1.96437e-05
3.52701e-06
2.03739e-05
5.06588e-06
2.11554e-05
6.3384e-06
2.20243e-05
7.20886e-06
2.28256e-05
7.85613e-06
2.3474e-05
8.01451e-06
2.38999e-05
8.01119e-06
2.43645e-05
7.14455e-06
2.45136e-05
6.65211e-06
2.48791e-05
5.73038e-06
2.50804e-05
4.52299e-06
2.50574e-05
3.76593e-06
2.54599e-05
2.06305e-06
2.5477e-05
1.05803e-06
2.5836e-05
1.05822e-09
2.6322e-05
-2.03828e-06
2.62761e-05
-2.74425e-06
2.68651e-05
-4.45603e-06
2.71913e-05
-6.3501e-06
2.708e-05
-7.21829e-06
2.76548e-05
-9.33898e-06
2.77538e-05
-1.13163e-05
2.72467e-05
-1.21775e-05
2.73458e-05
-1.42284e-05
2.69841e-05
-1.6035e-05
2.61765e-05
-1.68424e-05
2.58104e-05
-1.84936e-05
2.57044e-05
-2.06565e-05
2.50508e-05
-2.19985e-05
2.41832e-05
-2.24919e-05
2.37499e-05
-2.33813e-05
2.36508e-05
-2.4498e-05
2.35091e-05
-2.51171e-05
2.35027e-05
-2.50105e-05
2.32453e-05
-2.45874e-05
2.27916e-05
-2.35078e-05
2.21665e-05
-2.15106e-05
2.10128e-05
-1.73513e-05
1.99577e-05
-1.34475e-05
1.89872e-05
-1.09434e-05
1.8131e-05
-9.68656e-06
1.70736e-05
-7.37635e-06
1.59298e-05
-3.20868e-06
1.52357e-05
4.88476e-07
1.47043e-05
2.63598e-06
1.37444e-05
3.53384e-06
1.2883e-05
4.75174e-06
1.18172e-05
6.54258e-06
1.08822e-05
8.40711e-06
1.06612e-05
9.66752e-06
1.09831e-05
9.87453e-06
1.09299e-05
9.31298e-06
1.14794e-05
7.72389e-06
1.27442e-05
6.14994e-06
1.42534e-05
4.67892e-06
1.52259e-05
4.31554e-06
1.63856e-05
3.85296e-06
1.7606e-05
3.8123e-06
1.85423e-05
4.02691e-06
1.92492e-05
4.65488e-06
2.00603e-05
5.42889e-06
2.03097e-05
6.48916e-06
2.05008e-05
7.17039e-06
2.0557e-05
8.53408e-06
2.01803e-05
9.41239e-06
1.97138e-05
1.00413e-05
1.93479e-05
1.07316e-05
1.89003e-05
1.16844e-05
1.80592e-05
1.19635e-05
1.75628e-05
1.1555e-05
1.70454e-05
1.194e-05
1.69311e-05
1.27254e-05
1.68648e-05
1.36909e-05
1.62919e-05
1.37877e-05
1.62208e-05
1.2861e-05
1.5687e-05
1.31129e-05
1.61067e-05
1.24209e-05
1.62389e-05
1.46795e-05
1.67313e-05
1.48632e-05
1.7332e-05
1.73779e-05
1.76296e-05
1.75802e-05
1.85271e-05
1.91054e-05
1.91275e-05
1.89848e-05
2.00583e-05
1.98806e-05
2.07525e-05
1.89999e-05
2.12784e-05
1.74646e-05
2.16296e-05
1.4292e-05
2.16159e-05
1.14722e-05
2.17876e-05
8.09806e-06
2.20997e-05
5.76652e-06
2.29126e-05
2.82678e-06
2.34215e-05
8.62546e-07
2.37583e-05
-2.35737e-06
2.38309e-05
-5.45413e-06
2.40659e-05
-9.14407e-06
2.43461e-05
-1.19931e-05
2.45946e-05
-1.46697e-05
2.46457e-05
-1.64337e-05
2.45459e-05
-1.83131e-05
2.45725e-05
-1.96351e-05
2.42429e-05
-2.10686e-05
2.38315e-05
-2.14642e-05
2.32277e-05
-2.17675e-05
2.25514e-05
-2.00977e-05
2.14481e-05
-1.89847e-05
2.05315e-05
-1.60795e-05
1.9355e-05
-1.45278e-05
1.85951e-05
-1.15218e-05
1.77248e-05
-1.05622e-05
1.72724e-05
-8.50745e-06
1.67803e-05
-8.29596e-06
1.63416e-05
-7.22102e-06
1.58966e-05
-7.22032e-06
1.56117e-05
-6.35205e-06
1.52154e-05
-5.56282e-06
1.51745e-05
-5.75114e-06
1.54959e-05
-6.71147e-06
1.64575e-05
-8.39285e-06
1.75654e-05
-9.1885e-06
1.82401e-05
-8.41114e-06
1.85925e-05
-6.41905e-06
1.822e-05
-3.5825e-06
1.82167e-05
-1.89248e-06
1.86395e-05
-1.53272e-06
1.99079e-05
-1.76214e-06
2.12761e-05
-1.87153e-06
2.2744e-05
-1.55979e-06
2.41886e-05
-9.61684e-07
2.54328e-05
3.0536e-07
2.64372e-05
1.73334e-06
2.71051e-05
3.85e-06
2.76511e-05
5.63108e-06
2.77905e-05
7.11994e-06
2.79828e-05
8.64516e-06
2.78145e-05
1.10121e-05
2.73541e-05
1.3048e-05
2.70496e-05
1.49614e-05
2.64787e-05
1.71293e-05
2.59012e-05
1.94506e-05
2.52575e-05
2.18292e-05
2.39861e-05
2.37152e-05
2.34796e-05
2.41568e-05
2.28703e-05
2.56578e-05
2.11015e-05
2.5778e-05
2.08208e-05
2.43853e-05
1.94046e-05
2.53302e-05
1.92608e-05
2.09593e-05
1.69661e-05
2.54811e-05
2.13663e-05
1.45058e-05
2.87932e-05
2.32531e-05
2.43657e-05
-1.02844e-06
2.46875e-05
-1.61853e-06
2.48665e-05
-1.73978e-06
2.47133e-05
-1.42805e-06
2.44111e-05
-1.20307e-06
2.39948e-05
-9.2064e-07
2.34903e-05
-5.3626e-07
2.30157e-05
-1.4627e-07
2.26068e-05
3.5792e-07
2.22876e-05
9.5019e-07
2.19451e-05
1.73574e-06
2.17081e-05
2.34672e-06
2.16151e-05
2.81938e-06
2.15276e-05
3.48862e-06
2.1708e-05
3.72844e-06
2.21867e-05
3.78e-06
2.27128e-05
4.01976e-06
2.34278e-05
3.83418e-06
2.43297e-05
3.34592e-06
2.52322e-05
2.89206e-06
2.61351e-05
2.25804e-06
2.70942e-05
1.23033e-06
2.79284e-05
6.30023e-08
2.87537e-05
-9.16038e-07
2.97234e-05
-2.19935e-06
3.04502e-05
-3.57746e-06
3.11194e-05
-4.80587e-06
3.20898e-05
-5.96211e-06
3.28113e-05
-7.19415e-06
3.34412e-05
-8.54416e-06
3.40466e-05
-9.38397e-06
3.44785e-05
-1.02404e-05
3.47504e-05
-1.1191e-05
3.4614e-05
-1.19123e-05
3.43406e-05
-1.22921e-05
3.36682e-05
-1.22313e-05
3.26773e-05
-1.24592e-05
3.14623e-05
-1.21757e-05
3.01574e-05
-1.15914e-05
2.87822e-05
-1.0889e-05
2.72071e-05
-1.01394e-05
2.57812e-05
-9.19585e-06
2.44745e-05
-7.63047e-06
2.33302e-05
-6.39266e-06
2.25369e-05
-5.06211e-06
2.18034e-05
-3.42228e-06
2.09616e-05
-1.89971e-06
2.04217e-05
-4.12432e-07
1.99713e-05
1.07362e-06
1.98892e-05
2.29678e-06
2.00724e-05
3.34385e-06
2.06096e-05
4.52868e-06
2.14258e-05
5.52224e-06
2.22602e-05
6.37439e-06
2.32902e-05
6.82614e-06
2.40084e-05
7.29634e-06
2.47365e-05
7.28309e-06
2.53738e-05
6.50723e-06
2.5733e-05
6.29292e-06
2.63274e-05
5.13594e-06
2.65596e-05
4.29081e-06
2.68525e-05
3.47306e-06
2.72036e-05
1.71195e-06
2.70722e-05
1.18942e-06
2.76725e-05
-5.99227e-07
2.76691e-05
-2.0349e-06
2.77099e-05
-2.78501e-06
2.83003e-05
-5.04644e-06
2.80617e-05
-6.11155e-06
2.81225e-05
-7.27904e-06
2.84845e-05
-9.70098e-06
2.77475e-05
-1.05793e-05
2.73472e-05
-1.17772e-05
2.7208e-05
-1.40892e-05
2.62032e-05
-1.50301e-05
2.54164e-05
-1.60557e-05
2.50901e-05
-1.81673e-05
2.4518e-05
-2.00844e-05
2.34833e-05
-2.09638e-05
2.26615e-05
-2.16701e-05
2.22184e-05
-2.29383e-05
2.18581e-05
-2.41377e-05
2.16793e-05
-2.49382e-05
2.15507e-05
-2.48819e-05
2.11729e-05
-2.42097e-05
2.05124e-05
-2.28473e-05
1.96562e-05
-2.06544e-05
1.86794e-05
-1.63745e-05
1.77737e-05
-1.25419e-05
1.65828e-05
-9.75246e-06
1.49759e-05
-8.07964e-06
1.33145e-05
-5.71502e-06
1.22161e-05
-2.11023e-06
1.15509e-05
1.15364e-06
1.1054e-05
3.1329e-06
1.04664e-05
4.12144e-06
9.51177e-06
5.70635e-06
8.09551e-06
7.95884e-06
7.40925e-06
9.09337e-06
7.20005e-06
9.87672e-06
7.79373e-06
9.28086e-06
8.62896e-06
8.47775e-06
9.72768e-06
6.62517e-06
1.09539e-05
4.92371e-06
1.28299e-05
2.80291e-06
1.44994e-05
2.64609e-06
1.60069e-05
2.34539e-06
1.77984e-05
2.02089e-06