/*--------------------------------*- C++ -*----------------------------------*\
| =========                 |                                                 |
| \\      /  F ield         | OpenFOAM: The Open Source CFD Toolbox           |
|  \\    /   O peration     | Version:  2.4.0                                 |
|   \\  /    A nd           | Web:      www.OpenFOAM.org                      |
|    \\/     M anipulation  |                                                 |
\*---------------------------------------------------------------------------*/
FoamFile
{
    version     2.0;
    format      ascii;
    class       volVectorField;
    location    "0.14";
    object      UMean;
}
// * * * * * * * * * * * * * * * * * * * * * * * * * * * * * * * * * * * * * //

dimensions      [0 1 -1 0 0 0 0];

internalField   nonuniform List<vector> 
8800
(
(8.09747 0.382727 0)
(5.52146 0.240758 0)
(4.01653 0.044171 0)
(3.27869 -0.0142912 0)
(2.92889 -0.0175728 0)
(2.74008 -0.01083 0)
(2.63071 -0.00537578 0)
(2.54173 -0.00224762 0)
(2.48471 -0.00128286 0)
(2.42881 -0.000500818 0)
(2.39775 -0.000514055 0)
(2.35809 7.35882e-06 0)
(2.33738 -8.64703e-05 0)
(2.30358 0.000459795 0)
(2.28521 -0.000122786 0)
(2.25414 0.00126826 0)
(2.24037 -0.00148427 0)
(2.19574 0.00389683 0)
(2.25796 -0.00823732 0)
(2.00411 -0.0310082 0)
(10.0536 0.82459 0)
(9.67044 0.849561 0)
(8.91211 0.495088 0)
(8.15808 0.254385 0)
(7.57499 0.133165 0)
(7.12372 0.0769904 0)
(6.8195 0.0496383 0)
(6.55918 0.0357992 0)
(6.39238 0.0260238 0)
(6.22536 0.0205998 0)
(6.1334 0.0158662 0)
(6.01445 0.0146354 0)
(5.95914 0.0124833 0)
(5.86335 0.0126315 0)
(5.82228 0.0124235 0)
(5.73835 0.0097705 0)
(5.70714 0.0181378 0)
(5.61657 -0.00445687 0)
(5.63847 0.02762 0)
(5.48852 -0.104438 0)
(10.0292 0.622206 0)
(10.6523 0.843446 0)
(10.8525 0.585047 0)
(10.7032 0.360745 0)
(10.4528 0.245691 0)
(10.1193 0.185123 0)
(9.86117 0.14269 0)
(9.566 0.111012 0)
(9.38209 0.0840217 0)
(9.15075 0.0661421 0)
(9.04087 0.05087 0)
(8.85777 0.0439964 0)
(8.7988 0.0359621 0)
(8.64094 0.0345401 0)
(8.61292 0.0300101 0)
(8.46444 0.0298008 0)
(8.45694 0.0293873 0)
(8.30673 0.0233006 0)
(8.31224 0.0175732 0)
(8.16471 -0.0775193 0)
(9.96332 0.450901 0)
(10.5706 0.689733 0)
(11.1352 0.530829 0)
(11.367 0.339604 0)
(11.5042 0.251723 0)
(11.4386 0.214735 0)
(11.4341 0.187401 0)
(11.2829 0.160666 0)
(11.253 0.133048 0)
(11.0796 0.110722 0)
(11.0623 0.0916527 0)
(10.886 0.0793151 0)
(10.8891 0.0686723 0)
(10.7112 0.0625224 0)
(10.7325 0.0564376 0)
(10.5519 0.0536566 0)
(10.5869 0.0480502 0)
(10.4012 0.0488402 0)
(10.4314 0.0198219 0)
(10.225 -0.00221154 0)
(9.9954 0.342765 0)
(10.4157 0.554026 0)
(11.0107 0.450098 0)
(11.3012 0.282209 0)
(11.5962 0.202566 0)
(11.6423 0.180898 0)
(11.8022 0.168886 0)
(11.7719 0.154302 0)
(11.8948 0.132918 0)
(11.8327 0.116488 0)
(11.9398 0.0981541 0)
(11.8569 0.0906523 0)
(11.9527 0.077935 0)
(11.8531 0.0779153 0)
(11.9379 0.0663008 0)
(11.8257 0.0719599 0)
(11.8996 0.055803 0)
(11.7773 0.0651015 0)
(11.8246 0.0231583 0)
(11.6475 -0.000424663 0)
(10.0107 0.250574 0)
(10.3274 0.443455 0)
(10.8723 0.369961 0)
(11.1734 0.236375 0)
(11.4821 0.15807 0)
(11.5703 0.141594 0)
(11.7379 0.136567 0)
(11.7656 0.128792 0)
(11.9026 0.110951 0)
(11.9204 0.0990108 0)
(12.0441 0.0822008 0)
(12.0553 0.0777778 0)
(12.1652 0.0665141 0)
(12.1694 0.0686066 0)
(12.2637 0.0591826 0)
(12.2615 0.0642494 0)
(12.3391 0.0515754 0)
(12.3293 0.0512997 0)
(12.3712 0.0147255 0)
(12.2828 -0.0482456 0)
(9.97446 0.17519 0)
(10.3053 0.342351 0)
(10.7361 0.286017 0)
(11.1048 0.193842 0)
(11.3537 0.118344 0)
(11.5211 0.106515 0)
(11.6195 0.103819 0)
(11.7179 0.102185 0)
(11.7864 0.085572 0)
(11.8807 0.0781039 0)
(11.9408 0.0621134 0)
(12.033 0.0599462 0)
(12.0832 0.0495026 0)
(12.1718 0.0518811 0)
(12.2108 0.0439494 0)
(12.2954 0.0464077 0)
(12.3229 0.0348174 0)
(12.3986 0.0262328 0)
(12.3928 -0.0100211 0)
(12.3728 -0.0828199 0)
(9.98878 0.116156 0)
(10.2483 0.241469 0)
(10.6812 0.204241 0)
(11.0113 0.143107 0)
(11.3042 0.0835689 0)
(11.4403 0.0723285 0)
(11.5808 0.0740633 0)
(11.6326 0.0727526 0)
(11.7472 0.0620514 0)
(11.791 0.0547708 0)
(11.9044 0.0441811 0)
(11.9412 0.0406593 0)
(12.0513 0.0344204 0)
(12.0784 0.0338686 0)
(12.1836 0.0289745 0)
(12.2003 0.0265205 0)
(12.3002 0.0160093 0)
(12.299 0.000205115 0)
(12.3683 -0.0332162 0)
(12.2536 -0.104898 0)
(9.96147 0.0656652 0)
(10.2488 0.143541 0)
(10.6085 0.122486 0)
(10.9886 0.0874402 0)
(11.2326 0.0493574 0)
(11.4287 0.0432347 0)
(11.5158 0.0435381 0)
(11.6213 0.0447698 0)
(11.6777 0.0366918 0)
(11.7794 0.0335114 0)
(11.8333 0.0250025 0)
(11.9321 0.0239929 0)
(11.9785 0.0182046 0)
(12.0714 0.0181105 0)
(12.1081 0.0118747 0)
(12.1943 0.00842393 0)
(12.219 -0.0044918 0)
(12.2911 -0.0211389 0)
(12.2748 -0.0548628 0)
(12.2344 -0.115086 0)
(9.9778 0.022707 0)
(10.2203 0.0458296 0)
(10.6024 0.0423672 0)
(10.9482 0.027744 0)
(11.2265 0.0176971 0)
(11.3945 0.0126932 0)
(11.513 0.0157191 0)
(11.5861 0.0134642 0)
(11.6738 0.0131564 0)
(11.7437 0.00898805 0)
(11.83 0.00839378 0)
(11.8961 0.0044864 0)
(11.976 0.00442738 0)
(12.0343 -0.000693502 0)
(12.1057 -0.00280923 0)
(12.1547 -0.0128385 0)
(12.2159 -0.0222963 0)
(12.2463 -0.0442137 0)
(12.266 -0.0719039 0)
(12.1785 -0.122994 0)
(9.97256 -0.0210718 0)
(10.225 -0.0477602 0)
(10.5981 -0.0411673 0)
(10.9521 -0.0288976 0)
(11.2231 -0.0171834 0)
(11.3973 -0.0137712 0)
(11.5108 -0.0155396 0)
(11.5886 -0.0146124 0)
(11.6723 -0.0143336 0)
(11.7449 -0.0113872 0)
(11.8286 -0.0122006 0)
(11.8969 -0.0105411 0)
(11.975 -0.0138041 0)
(12.0341 -0.0146415 0)
(12.104 -0.0223752 0)
(12.1529 -0.0285002 0)
(12.2119 -0.0443905 0)
(12.2409 -0.0606049 0)
(12.2581 -0.092054 0)
(12.1667 -0.123092 0)
(9.96885 -0.0636387 0)
(10.2421 -0.146029 0)
(10.6158 -0.120517 0)
(10.982 -0.0894765 0)
(11.2391 -0.0478253 0)
(11.4227 -0.0454156 0)
(11.5222 -0.0423161 0)
(11.615 -0.0474052 0)
(11.6838 -0.0361896 0)
(11.7729 -0.0373874 0)
(11.8393 -0.0273268 0)
(11.925 -0.0318636 0)
(11.9839 -0.0258868 0)
(12.0621 -0.0351429 0)
(12.1109 -0.0350004 0)
(12.1799 -0.0508057 0)
(12.2157 -0.0591038 0)
(12.2667 -0.0847084 0)
(12.259 -0.104523 0)
(12.1918 -0.132541 0)
(9.97917 -0.11511 0)
(10.2583 -0.242798 0)
(10.6715 -0.203427 0)
(11.0216 -0.14383 0)
(11.2937 -0.083253 0)
(11.4513 -0.0732303 0)
(11.5697 -0.0738069 0)
(11.644 -0.0741111 0)
(11.7348 -0.0628409 0)
(11.8029 -0.0573397 0)
(11.8907 -0.0477396 0)
(11.9534 -0.0468056 0)
(12.0348 -0.0436445 0)
(12.0884 -0.0487832 0)
(12.1615 -0.0532983 0)
(12.2042 -0.0652734 0)
(12.2655 -0.0800665 0)
(12.2884 -0.100881 0)
(12.3093 -0.126232 0)
(12.2156 -0.13537 0)
(9.98944 -0.17351 0)
(10.2924 -0.344471 0)
(10.7491 -0.284233 0)
(11.0929 -0.195812 0)
(11.366 -0.116699 0)
(11.5095 -0.108763 0)
(11.6317 -0.102077 0)
(11.706 -0.105528 0)
(11.7989 -0.0844134 0)
(11.8677 -0.0828321 0)
(11.9529 -0.0632735 0)
(12.0184 -0.0685473 0)
(12.0934 -0.0558536 0)
(12.152 -0.0696324 0)
(12.2149 -0.0643551 0)
(12.2645 -0.0866428 0)
(12.3112 -0.091976 0)
(12.3428 -0.125323 0)
(12.3466 -0.140596 0)
(12.269 -0.15656 0)
(10.02 -0.249961 0)
(10.3208 -0.444429 0)
(10.88 -0.369059 0)
(11.1673 -0.237463 0)
(11.4884 -0.157245 0)
(11.5655 -0.143186 0)
(11.7431 -0.13549 0)
(11.7614 -0.131778 0)
(11.9067 -0.110437 0)
(11.9158 -0.103458 0)
(12.0461 -0.0835866 0)
(12.0494 -0.0860903 0)
(12.1631 -0.0725817 0)
(12.1577 -0.0860038 0)
(12.2508 -0.0777286 0)
(12.2343 -0.102278 0)
(12.2993 -0.102603 0)
(12.2626 -0.143299 0)
(12.2706 -0.151978 0)
(12.1344 -0.181738 0)
(10.0119 -0.342558 0)
(10.4013 -0.554256 0)
(11.025 -0.449931 0)
(11.2876 -0.282379 0)
(11.6094 -0.202595 0)
(11.6295 -0.181479 0)
(11.8142 -0.169042 0)
(11.7596 -0.155859 0)
(11.9051 -0.133664 0)
(11.8198 -0.119261 0)
(11.9465 -0.10052 0)
(11.8414 -0.0969585 0)
(11.9518 -0.0845465 0)
(11.8291 -0.0926615 0)
(11.9181 -0.0837623 0)
(11.7783 -0.104842 0)
(11.8341 -0.101492 0)
(11.6706 -0.144337 0)
(11.6558 -0.146082 0)
(11.4098 -0.192313 0)
(9.97441 -0.450902 0)
(10.559 -0.689795 0)
(11.1481 -0.530911 0)
(11.3534 -0.339602 0)
(11.5182 -0.251834 0)
(11.4234 -0.215054 0)
(11.4494 -0.187753 0)
(11.2651 -0.161652 0)
(11.2683 -0.133969 0)
(11.0579 -0.112858 0)
(11.075 -0.0937369 0)
(10.8571 -0.0846378 0)
(10.8935 -0.0737878 0)
(10.6663 -0.0756793 0)
(10.7132 -0.0692323 0)
(10.4702 -0.0833649 0)
(10.5083 -0.0812462 0)
(10.2352 -0.118292 0)
(10.2143 -0.117441 0)
(9.86925 -0.172857 0)
(10.0333 -0.622092 0)
(10.6471 -0.843654 0)
(10.8598 -0.58514 0)
(10.6949 -0.360712 0)
(10.462 -0.245754 0)
(10.1082 -0.185333 0)
(9.87285 -0.143053 0)
(9.55 -0.111579 0)
(9.39553 -0.0849614 0)
(9.12722 -0.0673099 0)
(9.05407 -0.0529657 0)
(8.82166 -0.0470546 0)
(8.80606 -0.0408472 0)
(8.58014 -0.0425227 0)
(8.59727 -0.0410048 0)
(8.35299 -0.0492772 0)
(8.37839 -0.05367 0)
(8.08621 -0.074058 0)
(8.07199 -0.08591 0)
(7.69184 -0.107242 0)
(10.0547 -0.824498 0)
(9.66882 -0.849734 0)
(8.91524 -0.495089 0)
(8.15379 -0.25439 0)
(7.57972 -0.13313 0)
(7.11726 -0.0772229 0)
(6.82574 -0.0497125 0)
(6.54872 -0.0362536 0)
(6.39953 -0.0263712 0)
(6.20799 -0.0213969 0)
(6.13985 -0.016799 0)
(5.9844 -0.0166431 0)
(5.96042 -0.0147488 0)
(5.807 -0.0176685 0)
(5.80353 -0.0171758 0)
(5.62824 -0.0231233 0)
(5.62837 -0.0257169 0)
(5.39736 -0.0358248 0)
(5.38017 -0.0481379 0)
(5.02258 -0.0404258 0)
(8.09756 -0.382696 0)
(5.52142 -0.240806 0)
(4.017 -0.0441352 0)
(3.27752 0.0142824 0)
(2.92999 0.0175729 0)
(2.73786 0.0107708 0)
(2.63226 0.00541318 0)
(2.5377 0.00212843 0)
(2.48576 0.00132262 0)
(2.42152 0.000313517 0)
(2.39689 0.000473966 0)
(2.34416 -0.000406408 0)
(2.33096 -8.66357e-05 0)
(2.27462 -0.00124359 0)
(2.26285 -0.000705945 0)
(2.193 -0.00253772 0)
(2.17371 -0.00184408 0)
(2.07432 -0.00460616 0)
(2.03042 -0.00725389 0)
(1.8328 0.0149962 0)
(2.58471 -0.291874 0)
(2.74878 -0.212735 0)
(2.97192 -0.17519 0)
(3.22503 -0.14979 0)
(3.49294 -0.126983 0)
(3.77343 -0.103307 0)
(4.05745 -0.0913862 0)
(4.34397 -0.093031 0)
(4.62004 -0.112332 0)
(4.88286 -0.14769 0)
(5.13194 -0.190199 0)
(5.3612 -0.243789 0)
(5.57237 -0.304229 0)
(5.76377 -0.372552 0)
(5.93579 -0.441308 0)
(6.09993 -0.51352 0)
(6.25306 -0.592191 0)
(6.41827 -0.680845 0)
(6.58476 -0.772503 0)
(6.7557 -0.867618 0)
(6.93382 -0.966231 0)
(7.10176 -1.06474 0)
(7.26689 -1.16228 0)
(7.41079 -1.25246 0)
(7.54877 -1.3359 0)
(7.66507 -1.40723 0)
(7.78686 -1.47194 0)
(7.88906 -1.52409 0)
(8.01159 -1.57149 0)
(8.12286 -1.6076 0)
(8.25448 -1.64322 0)
(8.38271 -1.66963 0)
(8.52092 -1.69694 0)
(8.66346 -1.7165 0)
(8.79197 -1.73681 0)
(8.93252 -1.75271 0)
(9.0306 -1.77027 0)
(9.15436 -1.78439 0)
(9.21373 -1.79154 0)
(9.31327 -1.79451 0)
(9.34628 -1.78922 0)
(9.42448 -1.78443 0)
(9.44509 -1.77351 0)
(9.50253 -1.76679 0)
(9.52013 -1.75689 0)
(9.56216 -1.75225 0)
(9.58658 -1.74928 0)
(9.62472 -1.75078 0)
(9.65914 -1.75839 0)
(9.69898 -1.76962 0)
(9.73382 -1.78929 0)
(9.76985 -1.80852 0)
(9.78718 -1.83456 0)
(9.80928 -1.85379 0)
(9.79953 -1.87492 0)
(9.8009 -1.88547 0)
(9.76708 -1.8953 0)
(9.74156 -1.89483 0)
(9.69471 -1.89693 0)
(9.64237 -1.88888 0)
(9.59089 -1.89242 0)
(9.5265 -1.88102 0)
(9.46019 -1.88434 0)
(9.40583 -1.86839 0)
(9.30511 -1.85943 0)
(9.2674 -1.83454 0)
(9.13996 -1.80547 0)
(9.09883 -1.76702 0)
(8.97368 -1.72244 0)
(8.91426 -1.66873 0)
(8.79662 -1.61231 0)
(8.73542 -1.54337 0)
(8.61074 -1.4794 0)
(8.56956 -1.39685 0)
(8.4369 -1.3289 0)
(8.41874 -1.24036 0)
(8.29125 -1.16491 0)
(8.27661 -1.06915 0)
(8.16746 -0.979555 0)
(8.13427 -0.869621 0)
(8.04689 -0.772803 0)
(7.99333 -0.648868 0)
(7.93325 -0.545121 0)
(7.85982 -0.428866 0)
(7.8221 -0.312218 0)
(7.72763 -0.195714 0)
(7.70104 -0.086227 0)
(7.61725 0.0257633 0)
(7.57373 0.127801 0)
(7.50794 0.230214 0)
(7.46665 0.305629 0)
(7.42171 0.400596 0)
(7.37354 0.47211 0)
(7.33679 0.552105 0)
(7.29052 0.600023 0)
(7.28704 0.661249 0)
(7.24489 0.691135 0)
(7.26255 0.740096 0)
(7.22825 0.762881 0)
(7.26631 0.799533 0)
(7.21634 0.810915 0)
(7.28675 0.849357 0)
(7.21561 0.853302 0)
(7.30371 0.885687 0)
(7.204 0.888281 0)
(7.30222 0.922357 0)
(7.16973 0.917011 0)
(7.27722 0.953359 0)
(7.12115 0.938914 0)
(7.23014 0.970769 0)
(7.04952 0.94214 0)
(7.15123 0.960753 0)
(6.93052 0.910467 0)
(7.03732 0.923651 0)
(6.79092 0.857547 0)
(6.93253 0.880822 0)
(6.67405 0.80692 0)
(6.85271 0.82836 0)
(6.57042 0.741796 0)
(6.78553 0.768916 0)
(6.4865 0.675051 0)
(6.73218 0.706934 0)
(6.41984 0.598413 0)
(6.6914 0.633537 0)
(6.37371 0.518331 0)
(6.66562 0.565578 0)
(6.33594 0.44422 0)
(6.63304 0.493343 0)
(6.29177 0.359499 0)
(6.58417 0.397088 0)
(6.25445 0.258051 0)
(6.54197 0.290549 0)
(6.21174 0.155163 0)
(6.48717 0.166075 0)
(6.13313 0.0316119 0)
(6.41485 0.0298184 0)
(6.04132 -0.0858561 0)
(6.35445 -0.073006 0)
(5.97226 -0.167514 0)
(6.31782 -0.139864 0)
(5.92459 -0.22558 0)
(6.28865 -0.189555 0)
(5.8848 -0.265834 0)
(6.25605 -0.22421 0)
(5.84087 -0.287122 0)
(6.21273 -0.239617 0)
(5.79186 -0.283941 0)
(6.16045 -0.230304 0)
(5.74219 -0.253867 0)
(6.1075 -0.196666 0)
(5.69726 -0.20239 0)
(6.05592 -0.145476 0)
(5.65666 -0.135241 0)
(6.00334 -0.0820064 0)
(5.62571 -0.0559449 0)
(5.95457 -0.0116756 0)
(5.61093 0.0322869 0)
(5.91124 0.0593742 0)
(5.61427 0.119847 0)
(5.87398 0.124773 0)
(5.63128 0.202038 0)
(5.84106 0.188091 0)
(5.65699 0.285603 0)
(5.81272 0.258701 0)
(5.69615 0.375495 0)
(5.79342 0.336215 0)
(5.75448 0.4702 0)
(5.78058 0.421756 0)
(5.82478 0.575953 0)
(5.76259 0.52211 0)
(5.89758 0.694514 0)
(5.73719 0.635507 0)
(5.96437 0.815785 0)
(5.71918 0.762611 0)
(6.01634 0.931806 0)
(5.71778 0.909421 0)
(6.0543 1.04611 0)
(5.72907 1.07718 0)
(6.06801 1.15904 0)
(5.76128 1.2701 0)
(6.04197 1.27412 0)
(5.81839 1.48406 0)
(5.98666 1.40572 0)
(5.88806 1.70833 0)
(5.91906 1.57326 0)
(5.95269 1.94254 0)
(5.85071 1.80252 0)
(5.97806 2.17795 0)
(5.80222 2.13139 0)
(5.90036 2.40426 0)
(5.8097 2.60437 0)
(5.68922 2.66906 0)
(5.84768 3.19641 0)
(5.50951 3.15664 0)
(5.74422 3.7814 0)
(5.64061 4.29279 0)
(5.45377 4.50737 0)
(5.49648 5.91626 0)
(6.33611 6.88166 0)
(3.98748 9.86665 0)
(5.66822 -0.266084 0)
(5.6804 -0.259794 0)
(5.70298 -0.25222 0)
(5.78426 -0.250914 0)
(5.90231 -0.24661 0)
(6.0436 -0.238612 0)
(6.18455 -0.235316 0)
(6.32863 -0.246421 0)
(6.45935 -0.270805 0)
(6.59093 -0.307592 0)
(6.71891 -0.351055 0)
(6.85563 -0.403224 0)
(6.99789 -0.459452 0)
(7.14778 -0.522245 0)
(7.29987 -0.587966 0)
(7.45512 -0.661951 0)
(7.61353 -0.738523 0)
(7.76969 -0.82248 0)
(7.92792 -0.908857 0)
(8.07573 -0.999574 0)
(8.2189 -1.09101 0)
(8.35105 -1.1838 0)
(8.47131 -1.27206 0)
(8.58058 -1.35683 0)
(8.68123 -1.43194 0)
(8.77114 -1.50169 0)
(8.86618 -1.56191 0)
(8.94813 -1.61534 0)
(9.0497 -1.66272 0)
(9.12999 -1.70384 0)
(9.24191 -1.73967 0)
(9.319 -1.76834 0)
(9.43387 -1.79527 0)
(9.50221 -1.81063 0)
(9.60625 -1.82602 0)
(9.65881 -1.82733 0)
(9.73555 -1.83493 0)
(9.76928 -1.82724 0)
(9.80702 -1.82877 0)
(9.82404 -1.81378 0)
(9.83333 -1.81067 0)
(9.85085 -1.79216 0)
(9.85181 -1.78734 0)
(9.8795 -1.77111 0)
(9.887 -1.76887 0)
(9.92115 -1.75993 0)
(9.94176 -1.76383 0)
(9.97133 -1.76581 0)
(10.0014 -1.77686 0)
(10.0137 -1.78705 0)
(10.0409 -1.80129 0)
(10.0241 -1.81435 0)
(10.0346 -1.82643 0)
(9.98707 -1.83649 0)
(9.97149 -1.84232 0)
(9.90161 -1.84687 0)
(9.85956 -1.84518 0)
(9.78055 -1.8477 0)
(9.72206 -1.84291 0)
(9.64011 -1.84856 0)
(9.57932 -1.84254 0)
(9.48196 -1.8434 0)
(9.42975 -1.82947 0)
(9.30622 -1.81446 0)
(9.25829 -1.79022 0)
(9.12193 -1.75787 0)
(9.06144 -1.72258 0)
(8.93412 -1.6786 0)
(8.85241 -1.63234 0)
(8.73889 -1.58193 0)
(8.6469 -1.52298 0)
(8.5416 -1.46853 0)
(8.4515 -1.4009 0)
(8.36214 -1.33754 0)
(8.2653 -1.26996 0)
(8.21017 -1.18947 0)
(8.0894 -1.11541 0)
(8.06142 -1.01475 0)
(7.91698 -0.920075 0)
(7.89696 -0.806838 0)
(7.7566 -0.705572 0)
(7.73963 -0.580828 0)
(7.61743 -0.48853 0)
(7.59601 -0.359665 0)
(7.48258 -0.25486 0)
(7.46399 -0.139363 0)
(7.3565 -0.0419827 0)
(7.34387 0.0838049 0)
(7.2268 0.16611 0)
(7.23906 0.269575 0)
(7.14568 0.329192 0)
(7.14729 0.43979 0)
(7.07676 0.491115 0)
(7.06192 0.581838 0)
(7.03237 0.606374 0)
(7.01222 0.680615 0)
(7.02021 0.690592 0)
(7.00076 0.748937 0)
(7.04788 0.751552 0)
(7.01878 0.792678 0)
(7.09215 0.795829 0)
(7.05862 0.834739 0)
(7.14514 0.841927 0)
(7.08963 0.880194 0)
(7.18609 0.891323 0)
(7.102 0.925149 0)
(7.20346 0.930834 0)
(7.08441 0.964721 0)
(7.18957 0.963513 0)
(7.03054 0.994379 0)
(7.1555 0.984236 0)
(6.95877 1.00254 0)
(7.08659 0.972971 0)
(6.8572 0.973997 0)
(6.9774 0.919006 0)
(6.73284 0.914218 0)
(6.8772 0.85213 0)
(6.63399 0.851431 0)
(6.79789 0.78575 0)
(6.54881 0.785644 0)
(6.73629 0.714677 0)
(6.47528 0.718145 0)
(6.6942 0.636394 0)
(6.4189 0.643849 0)
(6.67048 0.552475 0)
(6.37646 0.576693 0)
(6.65587 0.471229 0)
(6.33851 0.502959 0)
(6.64283 0.382186 0)
(6.2961 0.403075 0)
(6.62655 0.277327 0)
(6.25762 0.29403 0)
(6.60619 0.17892 0)
(6.21184 0.180337 0)
(6.56406 0.0710797 0)
(6.12299 0.046291 0)
(6.50448 -0.0496468 0)
(6.01495 -0.0751235 0)
(6.46472 -0.141359 0)
(5.92875 -0.15258 0)
(6.45194 -0.197724 0)
(5.86037 -0.199929 0)
(6.44555 -0.233007 0)
(5.79472 -0.227852 0)
(6.42515 -0.252523 0)
(5.72037 -0.235934 0)
(6.3888 -0.251684 0)
(5.64724 -0.221949 0)
(6.35551 -0.227459 0)
(5.58034 -0.183056 0)
(6.3229 -0.181584 0)
(5.51466 -0.124943 0)
(6.28894 -0.122009 0)
(5.45545 -0.0568554 0)
(6.25901 -0.0574329 0)
(5.40848 0.0172359 0)
(6.23717 0.0121032 0)
(5.38229 0.0927524 0)
(6.2261 0.0801441 0)
(5.37945 0.16515 0)
(6.22384 0.144076 0)
(5.39546 0.238639 0)
(6.22718 0.208695 0)
(5.43065 0.318217 0)
(6.23625 0.275746 0)
(5.48736 0.406028 0)
(6.24929 0.349309 0)
(5.56119 0.508544 0)
(6.25673 0.437535 0)
(5.64672 0.6291 0)
(6.24594 0.537589 0)
(5.74885 0.762663 0)
(6.21353 0.638385 0)
(5.87264 0.90391 0)
(6.16987 0.745911 0)
(6.00339 1.05199 0)
(6.12389 0.871187 0)
(6.12725 1.20691 0)
(6.08187 1.01762 0)
(6.22243 1.35915 0)
(6.06514 1.19289 0)
(6.26151 1.50158 0)
(6.08898 1.40134 0)
(6.24627 1.64566 0)
(6.15927 1.64256 0)
(6.17674 1.80021 0)
(6.29915 1.92716 0)
(6.05927 1.99278 0)
(6.48525 2.24958 0)
(5.96387 2.30249 0)
(6.58611 2.56256 0)
(6.02473 2.8538 0)
(6.42901 2.87251 0)
(6.28607 3.69009 0)
(6.10361 3.38118 0)
(6.31981 4.57772 0)
(6.56521 4.70544 0)
(5.44842 5.86488 0)
(8.71268 5.82474 0)
(6.5767 10.7623 0)
(8.20092 -0.234706 0)
(8.2186 -0.285547 0)
(8.25562 -0.311998 0)
(8.32753 -0.313733 0)
(8.40634 -0.299935 0)
(8.48904 -0.287466 0)
(8.55117 -0.285503 0)
(8.60729 -0.298093 0)
(8.64557 -0.323217 0)
(8.69492 -0.362681 0)
(8.74398 -0.412738 0)
(8.81636 -0.473007 0)
(8.89323 -0.538267 0)
(8.99082 -0.609952 0)
(9.08841 -0.683885 0)
(9.20006 -0.762392 0)
(9.30691 -0.84228 0)
(9.41696 -0.925288 0)
(9.51589 -1.00889 0)
(9.61466 -1.09452 0)
(9.69781 -1.17959 0)
(9.78511 -1.26437 0)
(9.85266 -1.34401 0)
(9.93042 -1.42155 0)
(9.98471 -1.49059 0)
(10.0571 -1.55604 0)
(10.1029 -1.61035 0)
(10.1698 -1.66354 0)
(10.207 -1.70459 0)
(10.2614 -1.74577 0)
(10.2862 -1.77377 0)
(10.3192 -1.80438 0)
(10.3329 -1.82091 0)
(10.3374 -1.83968 0)
(10.3434 -1.84346 0)
(10.3225 -1.84924 0)
(10.3271 -1.84257 0)
(10.2882 -1.83694 0)
(10.2941 -1.82363 0)
(10.2479 -1.8093 0)
(10.2584 -1.79489 0)
(10.2241 -1.77916 0)
(10.239 -1.77077 0)
(10.226 -1.76105 0)
(10.2398 -1.76181 0)
(10.2448 -1.76124 0)
(10.2471 -1.76948 0)
(10.2564 -1.77482 0)
(10.2383 -1.7861 0)
(10.2382 -1.79334 0)
(10.198 -1.80146 0)
(10.1788 -1.80683 0)
(10.1177 -1.80925 0)
(10.0732 -1.80999 0)
(9.99526 -1.80738 0)
(9.92917 -1.80486 0)
(9.84183 -1.80344 0)
(9.76874 -1.80215 0)
(9.6747 -1.80313 0)
(9.60609 -1.799 0)
(9.4926 -1.79028 0)
(9.42753 -1.77558 0)
(9.29262 -1.75144 0)
(9.22434 -1.72851 0)
(9.08281 -1.69282 0)
(9.00098 -1.66378 0)
(8.87055 -1.62228 0)
(8.76925 -1.58589 0)
(8.65668 -1.54291 0)
(8.54439 -1.49541 0)
(8.44514 -1.44826 0)
(8.33376 -1.39271 0)
(8.24487 -1.33334 0)
(8.13212 -1.27375 0)
(8.05951 -1.20093 0)
(7.93878 -1.12347 0)
(7.85884 -1.03978 0)
(7.73446 -0.929693 0)
(7.63832 -0.838934 0)
(7.53423 -0.726501 0)
(7.44715 -0.634504 0)
(7.35814 -0.518433 0)
(7.29085 -0.434896 0)
(7.19982 -0.29502 0)
(7.14895 -0.216501 0)
(7.06792 -0.0872675 0)
(7.01911 0.00566044 0)
(6.93597 0.13647 0)
(6.91333 0.198859 0)
(6.83726 0.304601 0)
(6.83338 0.365489 0)
(6.75609 0.48339 0)
(6.76814 0.5124 0)
(6.69542 0.607165 0)
(6.74054 0.611365 0)
(6.67845 0.689286 0)
(6.73685 0.672718 0)
(6.6964 0.742026 0)
(6.77909 0.722566 0)
(6.75 0.775831 0)
(6.84414 0.757594 0)
(6.83344 0.805449 0)
(6.91354 0.796314 0)
(6.92478 0.858408 0)
(6.97603 0.857059 0)
(6.98582 0.923744 0)
(7.00271 0.912286 0)
(7.01489 0.983803 0)
(6.99571 0.955048 0)
(7.00126 1.02662 0)
(6.9583 0.981471 0)
(6.9584 1.04898 0)
(6.89626 0.987862 0)
(6.90419 1.04182 0)
(6.80433 0.951325 0)
(6.81914 0.988382 0)
(6.69326 0.874267 0)
(6.73215 0.914276 0)
(6.59397 0.797013 0)
(6.66897 0.841539 0)
(6.5125 0.716935 0)
(6.62425 0.761978 0)
(6.44572 0.622199 0)
(6.59963 0.68029 0)
(6.39882 0.530923 0)
(6.58739 0.614929 0)
(6.36975 0.447193 0)
(6.57883 0.545717 0)
(6.35515 0.357259 0)
(6.57115 0.453145 0)
(6.33667 0.256972 0)
(6.55019 0.353833 0)
(6.31578 0.155697 0)
(6.52513 0.257918 0)
(6.28676 0.0606554 0)
(6.45908 0.144073 0)
(6.22053 -0.055236 0)
(6.35969 0.0199697 0)
(6.14078 -0.163996 0)
(6.27952 -0.0688386 0)
(6.074 -0.236475 0)
(6.23034 -0.116305 0)
(6.00939 -0.279036 0)
(6.19363 -0.135989 0)
(5.93644 -0.300641 0)
(6.15801 -0.133039 0)
(5.85429 -0.302004 0)
(6.12423 -0.110941 0)
(5.76995 -0.282106 0)
(6.09535 -0.0698794 0)
(5.68242 -0.242993 0)
(6.06626 -0.0119925 0)
(5.59497 -0.187298 0)
(6.04325 0.0577924 0)
(5.51575 -0.124882 0)
(6.02871 0.12986 0)
(5.45115 -0.0637388 0)
(6.03288 0.198464 0)
(5.40643 -0.00388748 0)
(6.05658 0.26355 0)
(5.37896 0.0579422 0)
(6.09378 0.327699 0)
(5.36582 0.125895 0)
(6.14068 0.394546 0)
(5.36671 0.202227 0)
(6.1938 0.465174 0)
(5.3848 0.289627 0)
(6.24841 0.547797 0)
(5.42307 0.39661 0)
(6.29405 0.648187 0)
(5.48007 0.52014 0)
(6.32721 0.756164 0)
(5.57147 0.647853 0)
(6.34429 0.861837 0)
(5.71228 0.786534 0)
(6.33034 0.974791 0)
(5.89374 0.945673 0)
(6.27326 1.09863 0)
(6.10876 1.12579 0)
(6.17521 1.23401 0)
(6.32953 1.31573 0)
(6.06416 1.39393 0)
(6.5047 1.49734 0)
(5.96051 1.5916 0)
(6.61527 1.67763 0)
(5.88321 1.83662 0)
(6.61421 1.84905 0)
(5.9287 2.16601 0)
(6.43498 2.00916 0)
(6.1923 2.60069 0)
(6.14323 2.22965 0)
(6.57066 3.08118 0)
(6.05779 2.70366 0)
(6.66122 3.55534 0)
(6.78737 3.52953 0)
(6.06605 4.36647 0)
(8.51241 4.07318 0)
(5.81581 6.8187 0)
(9.78326 3.38983 0)
(8.3349 9.64011 0)
(10.209 -0.243383 0)
(10.2353 -0.374287 0)
(10.2998 -0.433259 0)
(10.3691 -0.427823 0)
(10.4278 -0.394565 0)
(10.4704 -0.360075 0)
(10.4969 -0.340627 0)
(10.516 -0.339017 0)
(10.5336 -0.357716 0)
(10.5607 -0.393433 0)
(10.5934 -0.44568 0)
(10.6378 -0.508588 0)
(10.6826 -0.580912 0)
(10.7352 -0.657049 0)
(10.7838 -0.737466 0)
(10.8364 -0.817478 0)
(10.8812 -0.899454 0)
(10.9259 -0.979311 0)
(10.9639 -1.06058 0)
(11.0015 -1.13905 0)
(11.035 -1.21873 0)
(11.0667 -1.29414 0)
(11.0944 -1.36989 0)
(11.1189 -1.43892 0)
(11.1375 -1.50679 0)
(11.1525 -1.56546 0)
(11.154 -1.6209 0)
(11.1583 -1.66579 0)
(11.1362 -1.70685 0)
(11.1275 -1.7382 0)
(11.0789 -1.7636 0)
(11.0577 -1.78253 0)
(10.9848 -1.79389 0)
(10.9536 -1.80291 0)
(10.8661 -1.80176 0)
(10.8288 -1.80478 0)
(10.7429 -1.79572 0)
(10.706 -1.79528 0)
(10.6399 -1.78166 0)
(10.6057 -1.7797 0)
(10.5675 -1.766 0)
(10.5358 -1.76617 0)
(10.5229 -1.75783 0)
(10.4889 -1.76302 0)
(10.4877 -1.76117 0)
(10.4455 -1.76873 0)
(10.4403 -1.77099 0)
(10.3876 -1.77639 0)
(10.3698 -1.77754 0)
(10.3086 -1.77762 0)
(10.2716 -1.77339 0)
(10.2003 -1.76691 0)
(10.1397 -1.75602 0)
(10.0554 -1.74673 0)
(9.97846 -1.73542 0)
(9.88542 -1.73124 0)
(9.80603 -1.72548 0)
(9.7018 -1.72245 0)
(9.62134 -1.71294 0)
(9.49502 -1.69841 0)
(9.40767 -1.68129 0)
(9.26636 -1.65646 0)
(9.16967 -1.63788 0)
(9.03186 -1.60781 0)
(8.91822 -1.5855 0)
(8.7993 -1.55403 0)
(8.66432 -1.52454 0)
(8.56627 -1.49322 0)
(8.42004 -1.45202 0)
(8.33101 -1.41395 0)
(8.18671 -1.36261 0)
(8.09786 -1.31283 0)
(7.95526 -1.25174 0)
(7.87369 -1.1918 0)
(7.72569 -1.10989 0)
(7.63473 -1.03453 0)
(7.47729 -0.925464 0)
(7.3826 -0.83316 0)
(7.24368 -0.735736 0)
(7.17956 -0.647423 0)
(7.0469 -0.5438 0)
(7.0128 -0.458579 0)
(6.87212 -0.345896 0)
(6.85301 -0.236331 0)
(6.72348 -0.147879 0)
(6.70406 -0.0226219 0)
(6.58496 0.0781112 0)
(6.57079 0.171843 0)
(6.47632 0.249473 0)
(6.47839 0.34013 0)
(6.37389 0.408387 0)
(6.42245 0.506542 0)
(6.31445 0.540453 0)
(6.38644 0.623161 0)
(6.30691 0.624211 0)
(6.39388 0.695135 0)
(6.34268 0.664691 0)
(6.42668 0.735169 0)
(6.41717 0.684096 0)
(6.5019 0.758861 0)
(6.52403 0.709525 0)
(6.60728 0.790903 0)
(6.62824 0.73895 0)
(6.72414 0.840874 0)
(6.74315 0.797748 0)
(6.8286 0.918248 0)
(6.81686 0.868032 0)
(6.88422 0.996887 0)
(6.84408 0.928098 0)
(6.8962 1.05428 0)
(6.83622 0.965146 0)
(6.86718 1.07888 0)
(6.79822 0.975883 0)
(6.83036 1.07865 0)
(6.73863 0.958251 0)
(6.78009 1.04278 0)
(6.65569 0.895679 0)
(6.7064 0.969501 0)
(6.56962 0.808508 0)
(6.64383 0.887942 0)
(6.50387 0.720757 0)
(6.60347 0.807332 0)
(6.45867 0.621068 0)
(6.57059 0.72147 0)
(6.43793 0.518558 0)
(6.54939 0.643073 0)
(6.44439 0.421587 0)
(6.54251 0.570599 0)
(6.46375 0.324823 0)
(6.54624 0.484137 0)
(6.47257 0.228188 0)
(6.53717 0.390789 0)
(6.46746 0.122244 0)
(6.53072 0.302695 0)
(6.46182 0.035011 0)
(6.49964 0.209136 0)
(6.41947 -0.0619835 0)
(6.42324 0.0939007 0)
(6.3469 -0.168947 0)
(6.33693 -0.00608508 0)
(6.28172 -0.25061 0)
(6.26754 -0.0671323 0)
(6.23494 -0.295696 0)
(6.21201 -0.0896876 0)
(6.2005 -0.3065 0)
(6.15662 -0.0877565 0)
(6.17388 -0.300143 0)
(6.09391 -0.0690332 0)
(6.14416 -0.27183 0)
(6.0202 -0.0304774 0)
(6.114 -0.223407 0)
(5.94517 0.0216649 0)
(6.09076 -0.161782 0)
(5.87229 0.0810265 0)
(6.07887 -0.0963026 0)
(5.80337 0.136309 0)
(6.08643 -0.0367748 0)
(5.74051 0.185524 0)
(6.11501 0.0213081 0)
(5.68024 0.234061 0)
(6.16316 0.0843691 0)
(5.62189 0.283642 0)
(6.22762 0.154133 0)
(5.56592 0.336233 0)
(6.30586 0.230262 0)
(5.51749 0.394639 0)
(6.3962 0.313402 0)
(5.47956 0.470827 0)
(6.49242 0.41255 0)
(5.44332 0.571889 0)
(6.59323 0.521315 0)
(5.40804 0.681567 0)
(6.70572 0.62905 0)
(5.39079 0.796376 0)
(6.82721 0.744013 0)
(5.4015 0.931665 0)
(6.93609 0.872318 0)
(5.45735 1.09291 0)
(7.00166 1.00447 0)
(5.59678 1.28696 0)
(6.99213 1.13378 0)
(5.84258 1.51881 0)
(6.90422 1.27009 0)
(6.16349 1.77868 0)
(6.7476 1.43066 0)
(6.53587 2.07042 0)
(6.53302 1.6287 0)
(6.87097 2.38501 0)
(6.38686 1.90676 0)
(6.9561 2.69492 0)
(6.57896 2.28413 0)
(6.61866 3.08031 0)
(7.38115 2.64933 0)
(5.89572 3.83219 0)
(8.77055 2.67161 0)
(5.59581 5.38994 0)
(9.90373 2.07236 0)
(6.87136 7.29543 0)
(10.0708 2.54085 0)
(8.80033 8.20209 0)
(11.5654 -0.221069 0)
(11.5959 -0.348459 0)
(11.7085 -0.406157 0)
(11.7931 -0.407087 0)
(11.8514 -0.381384 0)
(11.8709 -0.350791 0)
(11.8816 -0.333784 0)
(11.8771 -0.336307 0)
(11.8838 -0.360536 0)
(11.8852 -0.402399 0)
(11.9002 -0.459849 0)
(11.9077 -0.526629 0)
(11.9234 -0.600316 0)
(11.9305 -0.67657 0)
(11.9425 -0.75573 0)
(11.9452 -0.834079 0)
(11.951 -0.912863 0)
(11.9492 -0.990385 0)
(11.949 -1.06789 0)
(11.9428 -1.14401 0)
(11.9373 -1.22005 0)
(11.9213 -1.29429 0)
(11.9072 -1.36653 0)
(11.876 -1.43377 0)
(11.8495 -1.49811 0)
(11.7991 -1.55298 0)
(11.7591 -1.60379 0)
(11.6895 -1.64269 0)
(11.6369 -1.67876 0)
(11.554 -1.70046 0)
(11.4904 -1.72281 0)
(11.4031 -1.7303 0)
(11.3302 -1.74207 0)
(11.2491 -1.73946 0)
(11.1688 -1.74521 0)
(11.1036 -1.73855 0)
(11.0196 -1.74213 0)
(10.9746 -1.73623 0)
(10.8902 -1.74026 0)
(10.8641 -1.73864 0)
(10.7831 -1.7435 0)
(10.7663 -1.74533 0)
(10.6896 -1.75017 0)
(10.6727 -1.75478 0)
(10.6018 -1.7585 0)
(10.5766 -1.76072 0)
(10.5096 -1.75953 0)
(10.4684 -1.75536 0)
(10.3993 -1.74823 0)
(10.3369 -1.73544 0)
(10.256 -1.72144 0)
(10.1719 -1.7006 0)
(10.0776 -1.68561 0)
(9.98494 -1.66913 0)
(9.88427 -1.66221 0)
(9.79017 -1.65226 0)
(9.67588 -1.64459 0)
(9.57111 -1.62981 0)
(9.43806 -1.61182 0)
(9.32014 -1.59448 0)
(9.18572 -1.57408 0)
(9.05718 -1.55769 0)
(8.9371 -1.53764 0)
(8.79224 -1.51503 0)
(8.691 -1.49473 0)
(8.53156 -1.46207 0)
(8.43816 -1.43821 0)
(8.27459 -1.39237 0)
(8.17233 -1.3588 0)
(8.01265 -1.30301 0)
(7.89998 -1.26222 0)
(7.74452 -1.19817 0)
(7.63168 -1.14857 0)
(7.47304 -1.07057 0)
(7.34631 -0.998304 0)
(7.18344 -0.900364 0)
(7.05132 -0.811824 0)
(6.92965 -0.726724 0)
(6.82863 -0.655036 0)
(6.73121 -0.560609 0)
(6.63704 -0.480243 0)
(6.56135 -0.380842 0)
(6.44974 -0.277349 0)
(6.40779 -0.175014 0)
(6.29884 -0.085817 0)
(6.23838 0.0411418 0)
(6.1703 0.122778 0)
(6.10263 0.225927 0)
(6.04853 0.280964 0)
(6.02442 0.390237 0)
(5.96158 0.417046 0)
(5.96218 0.528525 0)
(5.93521 0.520237 0)
(5.94282 0.633288 0)
(5.9598 0.578464 0)
(5.97115 0.696977 0)
(6.02689 0.606199 0)
(6.03679 0.739221 0)
(6.1221 0.605202 0)
(6.12416 0.749722 0)
(6.26768 0.614409 0)
(6.24219 0.781174 0)
(6.41104 0.65384 0)
(6.36506 0.835357 0)
(6.54862 0.720453 0)
(6.48966 0.920684 0)
(6.66901 0.809002 0)
(6.57393 1.01667 0)
(6.73081 0.884464 0)
(6.61267 1.09334 0)
(6.75256 0.938401 0)
(6.6114 1.13264 0)
(6.73617 0.954366 0)
(6.58116 1.14098 0)
(6.6983 0.939349 0)
(6.54146 1.12067 0)
(6.64744 0.887757 0)
(6.47924 1.06209 0)
(6.59171 0.790404 0)
(6.41238 0.969321 0)
(6.5518 0.67799 0)
(6.37126 0.879912 0)
(6.53209 0.573168 0)
(6.34063 0.793993 0)
(6.52022 0.468798 0)
(6.32746 0.706523 0)
(6.52707 0.363474 0)
(6.34523 0.633127 0)
(6.54473 0.265583 0)
(6.37689 0.556869 0)
(6.55588 0.168511 0)
(6.39379 0.462984 0)
(6.55779 0.0568129 0)
(6.39658 0.3817 0)
(6.56843 -0.0318553 0)
(6.38194 0.311604 0)
(6.56937 -0.111922 0)
(6.3198 0.216719 0)
(6.54728 -0.206784 0)
(6.22168 0.118203 0)
(6.51363 -0.294037 0)
(6.11802 0.0498922 0)
(6.4859 -0.351162 0)
(6.03235 0.0196169 0)
(6.47241 -0.367237 0)
(5.95558 0.0226788 0)
(6.45857 -0.357462 0)
(5.87902 0.0471665 0)
(6.43771 -0.330983 0)
(5.80126 0.0881443 0)
(6.40725 -0.286197 0)
(5.72659 0.14361 0)
(6.37235 -0.230191 0)
(5.66434 0.202763 0)
(6.33871 -0.17173 0)
(5.62183 0.256335 0)
(6.31008 -0.117059 0)
(5.59474 0.306479 0)
(6.28804 -0.0620751 0)
(5.58171 0.355879 0)
(6.27669 -0.00460873 0)
(5.58662 0.407739 0)
(6.2733 0.0595363 0)
(5.61465 0.466079 0)
(6.26988 0.128127 0)
(5.6758 0.533412 0)
(6.25715 0.201174 0)