/*--------------------------------*- C++ -*----------------------------------*\
| =========                 |                                                 |
| \\      /  F ield         | OpenFOAM: The Open Source CFD Toolbox           |
|  \\    /   O peration     | Version:  2.4.0                                 |
|   \\  /    A nd           | Web:      www.OpenFOAM.org                      |
|    \\/     M anipulation  |                                                 |
\*---------------------------------------------------------------------------*/
FoamFile
{
    version     2.0;
    format      ascii;
    class       volVectorField;
    location    "0.39";
    object      U;
}
// * * * * * * * * * * * * * * * * * * * * * * * * * * * * * * * * * * * * * //

dimensions      [0 1 -1 0 0 0 0];

internalField   nonuniform List<vector> 
8800
(
(8.09229 0.387865 0)
(5.44859 0.242701 0)
(3.91139 0.0428698 0)
(3.15761 -0.0156909 0)
(2.80123 -0.0179237 0)
(2.59732 -0.0112134 0)
(2.48719 -0.00611072 0)
(2.37674 -0.00141368 0)
(2.32094 -0.00188841 0)
(2.24852 -0.00126247 0)
(2.21858 0.000416855 0)
(2.1624 -0.000445004 0)
(2.14684 -0.000816857 0)
(2.10077 0.000981951 0)
(2.0755 0.000835961 0)
(2.03015 0.000956794 0)
(2.0073 -0.000763972 0)
(1.95561 0.00245883 0)
(1.93024 0.00753614 0)
(1.71227 -0.0614334 0)
(10.0879 0.838511 0)
(9.65303 0.868154 0)
(8.87332 0.506175 0)
(8.08287 0.261367 0)
(7.49335 0.139155 0)
(7.00652 0.0814835 0)
(6.7043 0.0531792 0)
(6.38716 0.0433248 0)
(6.23734 0.0285214 0)
(6.01606 0.0228157 0)
(5.92991 0.0217456 0)
(5.77519 0.0167042 0)
(5.72379 0.0123877 0)
(5.59666 0.0189289 0)
(5.54539 0.0160219 0)
(5.43618 0.0177633 0)
(5.38679 0.0148814 0)
(5.25838 0.0229788 0)
(5.21675 0.0295826 0)
(5.01067 -0.0328723 0)
(10.0704 0.631798 0)
(10.6502 0.865307 0)
(10.8706 0.599421 0)
(10.6902 0.372627 0)
(10.4581 0.257318 0)
(10.0843 0.194815 0)
(9.85188 0.152931 0)
(9.47557 0.12744 0)
(9.33336 0.0911717 0)
(9.02537 0.0756238 0)
(8.92484 0.0630752 0)
(8.70254 0.050727 0)
(8.6382 0.039152 0)
(8.45088 0.0475197 0)
(8.39736 0.040221 0)
(8.23319 0.0403886 0)
(8.19847 0.0378809 0)
(7.99157 0.0555612 0)
(7.97767 0.0491092 0)
(7.73325 -0.0187913 0)
(10.0151 0.457691 0)
(10.5538 0.706824 0)
(11.168 0.543391 0)
(11.3748 0.352552 0)
(11.5642 0.263815 0)
(11.4516 0.223737 0)
(11.5166 0.200817 0)
(11.2781 0.182831 0)
(11.3144 0.141398 0)
(11.0742 0.128567 0)
(11.072 0.109877 0)
(10.8704 0.0915007 0)
(10.862 0.0749387 0)
(10.6752 0.0843033 0)
(10.6614 0.0707816 0)
(10.4666 0.0724076 0)
(10.5001 0.0608923 0)
(10.2247 0.104163 0)
(10.2873 0.0580914 0)
(9.92428 0.111614 0)
(10.0706 0.347947 0)
(10.3914 0.574027 0)
(11.0316 0.452007 0)
(11.2855 0.292784 0)
(11.6837 0.213402 0)
(11.6598 0.185173 0)
(11.9141 0.178929 0)
(11.8121 0.183259 0)
(11.9983 0.133855 0)
(11.884 0.138311 0)
(12.0307 0.115923 0)
(11.9408 0.106306 0)
(12.0065 0.0818975 0)
(11.9573 0.10841 0)
(12.0062 0.0845657 0)
(11.8657 0.0922855 0)
(11.9862 0.0684807 0)
(11.7732 0.143768 0)
(11.8979 0.0640656 0)
(11.4745 0.16299 0)
(10.0497 0.248365 0)
(10.336 0.465107 0)
(10.9098 0.378809 0)
(11.1288 0.236852 0)
(11.5545 0.165074 0)
(11.6013 0.146222 0)
(11.8309 0.138772 0)
(11.8353 0.15633 0)
(12.0023 0.11309 0)
(11.9702 0.117748 0)
(12.1331 0.0981954 0)
(12.212 0.0944078 0)
(12.1779 0.0665534 0)
(12.36 0.0840334 0)
(12.3745 0.0959046 0)
(12.3728 0.0748325 0)
(12.4598 0.0717376 0)
(12.4709 0.122403 0)
(12.5733 0.0890208 0)
(12.2033 0.075782 0)
(10.0018 0.174924 0)
(10.3109 0.355167 0)
(10.7688 0.29467 0)
(11.107 0.203882 0)
(11.3726 0.111478 0)
(11.5398 0.106884 0)
(11.7088 0.10509 0)
(11.7807 0.129981 0)
(11.8924 0.0879775 0)
(11.9422 0.0991505 0)
(12.021 0.0559841 0)
(12.1963 0.0898511 0)
(12.061 0.050991 0)
(12.3916 0.0526536 0)
(12.3137 0.0869684 0)
(12.4062 0.0574088 0)
(12.4292 0.04131 0)
(12.6048 0.0923008 0)
(12.5779 0.0793047 0)
(12.3821 0.0311154 0)
(9.99603 0.108826 0)
(10.3016 0.253985 0)
(10.6685 0.212682 0)
(11.0625 0.149204 0)
(11.2834 0.0930825 0)
(11.4645 0.0628531 0)
(11.6214 0.0614301 0)
(11.6934 0.098473 0)
(11.8748 0.0635882 0)
(11.877 0.0747505 0)
(11.9317 0.0393373 0)
(12.0724 0.0786888 0)
(12.0722 0.0167936 0)
(12.2821 0.0190092 0)
(12.2655 0.09535 0)
(12.3271 0.0380355 0)
(12.3968 0.0057666 0)
(12.5336 0.0658714 0)
(12.4227 0.0654424 0)
(12.4336 -0.0360326 0)
(10.034 0.060232 0)
(10.2174 0.147902 0)
(10.6349 0.129142 0)
(10.961 0.10051 0)
(11.2382 0.0564134 0)
(11.505 0.0273386 0)
(11.6083 0.0426927 0)
(11.5969 0.0436699 0)
(11.822 0.0379957 0)
(11.8032 0.0682228 0)
(11.8793 0.0138895 0)
(12.0558 0.0466465 0)
(12.1038 0.0116192 0)
(12.1175 -0.00444725 0)
(12.2473 0.083173 0)
(12.2946 0.00638829 0)
(12.3893 -0.023416 0)
(12.4565 0.0563613 0)
(12.396 0.0372589 0)
(12.3464 -0.0794925 0)
(10.0257 0.0117158 0)
(10.2098 0.058018 0)
(10.5642 0.0515384 0)
(10.9472 0.0356956 0)
(11.2861 0.00918809 0)
(11.478 -0.0141111 0)
(11.5645 0.0291068 0)
(11.5974 0.0231734 0)
(11.72 0.00459225 0)
(11.8258 0.0445376 0)
(11.8684 -0.0152711 0)
(12.0263 0.0172636 0)
(12.0697 0.00645856 0)
(12.1122 -0.0213702 0)
(12.2432 0.0564251 0)
(12.3097 -0.0123331 0)
(12.298 -0.0517848 0)
(12.4587 0.0421043 0)
(12.3661 0.0196575 0)
(12.2584 -0.100172 0)
(10.0074 -0.0267338 0)
(10.1969 -0.0346085 0)
(10.5917 -0.039148 0)
(11.0039 -0.0408739 0)
(11.2815 -0.0244239 0)
(11.4023 -0.02529 0)
(11.571 0.00631549 0)
(11.6016 -0.0178596 0)
(11.723 -0.0291254 0)
(11.8559 0.0184988 0)
(11.8545 -0.0341576 0)
(12.0071 -0.00449552 0)
(12.1171 -0.00441443 0)
(12.0968 -0.04884 0)
(12.223 0.0307261 0)
(12.346 -0.0178884 0)
(12.2546 -0.0806427 0)
(12.4309 0.021645 0)
(12.3856 0.0126036 0)
(12.2992 -0.12577 0)
(9.9942 -0.0680271 0)
(10.2328 -0.137806 0)
(10.6317 -0.130587 0)
(11.0186 -0.0991184 0)
(11.2498 -0.0383007 0)
(11.438 -0.066464 0)
(11.5915 -0.030295 0)
(11.6473 -0.0393344 0)
(11.7386 -0.0667311 0)
(11.8756 -0.00503364 0)
(11.9196 -0.046757 0)
(11.9993 -0.049193 0)
(12.1424 -0.0127346 0)
(12.1042 -0.0530742 0)
(12.2262 -0.00122642 0)
(12.3705 -0.0361112 0)
(12.3102 -0.087971 0)
(12.371 -0.0149383 0)
(12.5213 -0.013093 0)
(12.3011 -0.135262 0)
(10.0058 -0.116562 0)
(10.247 -0.240035 0)
(10.6815 -0.214395 0)
(11.052 -0.154485 0)
(11.3008 -0.078627 0)
(11.5151 -0.0966872 0)
(11.5905 -0.0547382 0)
(11.7314 -0.0753694 0)
(11.7775 -0.0934738 0)
(11.8981 -0.041416 0)
(11.9909 -0.0615431 0)
(12.0185 -0.0621828 0)
(12.166 -0.0252617 0)
(12.1784 -0.0723374 0)
(12.2396 -0.033773 0)
(12.4317 -0.0536309 0)
(12.359 -0.0941127 0)
(12.4119 -0.0588303 0)
(12.5876 -0.0387423 0)
(12.3693 -0.121343 0)
(10.0245 -0.173794 0)
(10.2728 -0.345224 0)
(10.781 -0.303969 0)
(11.1128 -0.206199 0)
(11.3913 -0.110608 0)
(11.5574 -0.127358 0)
(11.6728 -0.0943975 0)
(11.7741 -0.108153 0)
(11.8708 -0.110332 0)
(11.9504 -0.0752555 0)
(12.0574 -0.0735508 0)
(12.085 -0.0926003 0)
(12.239 -0.0497286 0)
(12.2547 -0.0779187 0)
(12.3179 -0.0583293 0)
(12.467 -0.0797544 0)
(12.431 -0.097005 0)
(12.5027 -0.0976027 0)
(12.596 -0.0751898 0)
(12.4648 -0.129363 0)
(10.0583 -0.248972 0)
(10.3134 -0.45115 0)
(10.9265 -0.39202 0)
(11.1683 -0.243317 0)
(11.5137 -0.154799 0)
(11.6143 -0.165933 0)
(11.804 -0.123212 0)
(11.8216 -0.142218 0)
(11.9981 -0.140994 0)
(12.0059 -0.102555 0)
(12.1513 -0.0929708 0)
(12.1363 -0.11283 0)
(12.2981 -0.0637025 0)
(12.2613 -0.0980474 0)
(12.3714 -0.0794142 0)
(12.4118 -0.100187 0)
(12.4397 -0.104854 0)
(12.4242 -0.131751 0)
(12.5028 -0.0926967 0)
(12.344 -0.156982 0)
(10.056 -0.344659 0)
(10.4024 -0.566815 0)
(11.0694 -0.473103 0)
(11.2677 -0.282958 0)
(11.6705 -0.206991 0)
(11.6641 -0.204656 0)
(11.8906 -0.16527 0)
(11.8203 -0.169878 0)
(11.9973 -0.163459 0)
(11.8916 -0.121936 0)
(12.0441 -0.109707 0)
(11.8946 -0.124216 0)
(12.0674 -0.0844691 0)
(11.8923 -0.101327 0)
(12.0124 -0.0894304 0)
(11.8852 -0.108601 0)
(11.9215 -0.100994 0)
(11.7576 -0.138224 0)
(11.8158 -0.10408 0)
(11.5328 -0.168873 0)
(10.0123 -0.456213 0)
(10.5698 -0.705905 0)
(11.1723 -0.550758 0)
(11.3495 -0.345254 0)
(11.5849 -0.262685 0)
(11.4337 -0.236554 0)
(11.5138 -0.18982 0)
(11.2922 -0.176148 0)
(11.3022 -0.161213 0)
(11.0671 -0.119045 0)
(11.1014 -0.101256 0)
(10.8182 -0.108361 0)
(10.9098 -0.0739625 0)
(10.6122 -0.0823393 0)
(10.6947 -0.0753775 0)
(10.4267 -0.0871678 0)
(10.4625 -0.075235 0)
(10.1807 -0.121253 0)
(10.2177 -0.0780453 0)
(9.83912 -0.162015 0)
(10.0661 -0.631636 0)
(10.661 -0.863174 0)
(10.8654 -0.603828 0)
(10.6844 -0.37 0)
(10.4753 -0.255645 0)
(10.062 -0.201634 0)
(9.85926 -0.148391 0)
(9.48461 -0.121391 0)
(9.3192 -0.103469 0)
(9.02099 -0.0717686 0)
(8.94918 -0.0556603 0)
(8.65639 -0.0619053 0)
(8.67689 -0.040576 0)
(8.39166 -0.0442552 0)
(8.43543 -0.0446499 0)
(8.16382 -0.0491142 0)
(8.19328 -0.0491661 0)
(7.90035 -0.0740682 0)
(7.91777 -0.0568102 0)
(7.55821 -0.0882198 0)
(10.0853 -0.838467 0)
(9.65906 -0.867557 0)
(8.8688 -0.507802 0)
(8.08142 -0.260428 0)
(7.50257 -0.137444 0)
(6.992 -0.0855342 0)
(6.71014 -0.0517642 0)
(6.39175 -0.0385703 0)
(6.22917 -0.0353513 0)
(6.01121 -0.0225721 0)
(5.94367 -0.0152234 0)
(5.74824 -0.0238872 0)
(5.74275 -0.0135585 0)
(5.55446 -0.0167415 0)
(5.56886 -0.0188203 0)
(5.3759 -0.021922 0)
(5.38202 -0.0224736 0)
(5.15914 -0.0354796 0)
(5.15815 -0.0297956 0)
(4.86937 -0.018894 0)
(8.09137 -0.388005 0)
(5.45039 -0.242392 0)
(3.9101 -0.0431663 0)
(3.15637 0.0155734 0)
(2.80479 0.0186985 0)
(2.59348 0.0099637 0)
(2.48596 0.00626323 0)
(2.37947 0.00321428 0)
(2.32082 -0.000221164 0)
(2.24184 0.00102206 0)
(2.22278 0.00207295 0)
(2.15683 -0.00192493 0)
(2.14605 0.00075465 0)
(2.08281 -0.000558325 0)
(2.07908 -0.0011309 0)
(2.00304 -0.00182272 0)
(1.99143 -0.00139059 0)
(1.89586 -0.00483799 0)
(1.86548 -0.00190874 0)
(1.72397 0.0114913 0)
(2.16725 -0.11435 0)
(2.25924 -0.0422123 0)
(2.40359 -0.0291489 0)
(2.52509 -0.0379114 0)
(2.67248 -0.0530424 0)
(2.77318 -0.0579923 0)
(2.88022 -0.0667241 0)
(2.93245 -0.0692938 0)
(2.98771 -0.0800192 0)
(2.99898 -0.0825071 0)
(3.0157 -0.0904988 0)
(3.01307 -0.0753246 0)
(3.00702 -0.0537718 0)
(3.02733 -0.0170428 0)
(3.02385 0.0282336 0)
(3.06326 0.0687585 0)
(3.09575 0.111577 0)
(3.1696 0.128796 0)
(3.26344 0.141948 0)
(3.36609 0.139215 0)
(3.55814 0.122576 0)
(3.69985 0.0803936 0)
(3.8318 0.0193773 0)
(3.87113 -0.0680288 0)
(3.86806 -0.153047 0)
(3.76837 -0.183981 0)
(3.643 -0.192867 0)
(3.54805 -0.186695 0)
(3.46538 -0.171164 0)
(3.42637 -0.162199 0)
(3.38069 -0.135811 0)
(3.3419 -0.108296 0)
(3.2936 -0.0456741 0)
(3.26375 0.0324613 0)
(3.28351 0.122495 0)
(3.35633 0.267999 0)
(3.49667 0.352174 0)
(3.75667 0.432472 0)
(4.0711 0.570746 0)
(4.35075 0.533513 0)
(4.69818 0.590222 0)
(5.02532 0.651648 0)
(5.25124 0.496108 0)
(5.55459 0.50366 0)
(5.73015 0.359859 0)
(5.85978 0.170684 0)
(5.9496 0.129005 0)
(5.93477 -0.106152 0)
(5.88267 -0.126372 0)
(5.78033 -0.160422 0)
(5.6705 -0.267314 0)
(5.61768 -0.132078 0)
(5.51973 -0.200321 0)
(5.57719 -0.224246 0)
(5.53904 -0.137185 0)
(5.55398 -0.283823 0)
(5.74998 -0.275508 0)
(5.66721 -0.270744 0)
(5.91018 -0.448702 0)
(6.05413 -0.405892 0)
(6.06935 -0.476906 0)
(6.38295 -0.615004 0)
(6.55866 -0.588681 0)
(6.61684 -0.708098 0)
(7.05342 -0.819685 0)
(7.12397 -0.839484 0)
(7.34628 -1.01298 0)
(7.66973 -1.05346 0)
(7.78188 -1.15652 0)
(8.0044 -1.27369 0)
(8.22097 -1.24976 0)
(8.34665 -1.37026 0)
(8.53101 -1.38127 0)
(8.62234 -1.29013 0)
(8.7816 -1.34592 0)
(8.91894 -1.24055 0)
(8.90761 -1.11381 0)
(9.20416 -1.06141 0)
(9.13247 -0.907365 0)
(9.34926 -0.828963 0)
(9.4806 -0.706467 0)
(9.55127 -0.550021 0)
(9.71291 -0.556844 0)
(10.0139 -0.461337 0)
(9.9686 -0.437476 0)
(10.3363 -0.4791 0)
(10.4267 -0.462181 0)
(10.6475 -0.547642 0)
(10.8396 -0.647437 0)
(11.1079 -0.662649 0)
(11.2475 -0.839176 0)
(11.5338 -0.930175 0)
(11.6855 -1.0473 0)
(12.0008 -1.20802 0)
(12.174 -1.27489 0)
(12.4814 -1.41382 0)
(12.5807 -1.63907 0)
(12.9372 -1.63667 0)
(13.0917 -1.80618 0)
(13.3965 -1.88009 0)
(13.4785 -1.95038 0)
(13.8229 -2.11637 0)
(13.8386 -2.0951 0)
(14.2134 -2.16332 0)
(14.2694 -2.23847 0)
(14.4574 -2.2114 0)
(14.5837 -2.29299 0)
(14.7936 -2.39113 0)
(14.7933 -2.2057 0)
(15.0341 -2.39112 0)
(15.0968 -2.30266 0)
(15.0852 -2.25418 0)
(15.2099 -2.35294 0)
(15.1495 -2.31312 0)
(15.1077 -2.24122 0)
(15.0193 -2.33106 0)
(14.918 -2.21933 0)
(14.596 -2.23873 0)
(14.4664 -2.25829 0)
(14.0093 -2.18422 0)
(13.6977 -2.15119 0)
(13.2291 -2.01836 0)
(12.8276 -1.89625 0)
(12.2778 -1.72383 0)
(11.807 -1.45721 0)
(11.18 -1.27128 0)
(10.6475 -1.11391 0)
(10.0909 -0.710697 0)
(9.51899 -0.698946 0)
(8.99558 -0.430715 0)
(8.46299 -0.147955 0)
(8.03048 0.0756726 0)
(7.69245 0.183801 0)
(7.21261 0.536365 0)
(7.06851 0.507463 0)
(6.40318 0.489267 0)
(6.57953 0.54754 0)
(5.74553 0.934964 0)
(6.03696 0.741438 0)
(5.43661 -0.213532 0)
(5.60057 0.825755 0)
(4.32381 0.588554 0)
(5.11618 0.312942 0)
(4.33916 -0.27569 0)
(4.38672 -1.12997 0)
(5.01333 -3.51128 0)
(4.88742 -4.14117 0)
(5.09245 -5.75298 0)
(4.85911 -6.39667 0)
(6.36775 -6.42568 0)
(5.53322 -7.4247 0)
(6.66318 -6.38095 0)
(6.1401 -5.72169 0)
(6.22109 -5.12135 0)
(6.49139 -5.03329 0)
(6.86844 -4.75275 0)
(7.51478 -4.03292 0)
(7.9949 -3.15009 0)
(8.07177 -1.69987 0)
(8.30649 -0.138728 0)
(8.37267 0.867194 0)
(8.63789 2.37658 0)
(8.65762 3.75218 0)
(8.47084 4.2352 0)
(8.73918 4.87368 0)
(8.99121 6.12053 0)
(9.1187 7.19626 0)
(8.84412 7.50201 0)
(8.64126 7.52637 0)
(8.61346 7.57412 0)
(8.1797 7.79796 0)
(7.5948 7.91049 0)
(7.31094 7.84835 0)
(6.37349 6.93056 0)
(5.66558 5.56954 0)
(5.00573 4.86095 0)
(4.76452 4.58539 0)
(4.70732 4.67222 0)
(5.00973 4.76692 0)
(4.63846 5.01295 0)
(5.2213 4.99641 0)
(5.00695 4.62732 0)
(5.17034 4.46683 0)
(5.1786 4.21894 0)
(4.91597 3.65077 0)
(5.32516 3.81405 0)
(4.96984 2.98149 0)
(4.65127 3.49768 0)
(5.79172 2.63836 0)
(3.16912 2.84775 0)
(6.78315 2.14051 0)
(2.58803 2.7811 0)
(6.86245 0.893945 0)
(3.06409 2.07397 0)
(6.33465 -0.191801 0)
(3.21951 1.20686 0)
(5.40081 -1.03744 0)
(3.48528 0.941713 0)
(4.56341 -1.05285 0)
(3.61739 1.9176 0)
(5.1496 -0.0748311 0)
(5.16027 -0.0504179 0)
(5.20381 -0.0538126 0)
(5.25457 -0.0798767 0)
(5.34935 -0.101019 0)
(5.42031 -0.104932 0)
(5.48922 -0.0977954 0)
(5.52145 -0.0909724 0)
(5.54112 -0.0840633 0)
(5.54232 -0.0913453 0)
(5.53896 -0.0874452 0)
(5.52772 -0.0841517 0)
(5.51579 -0.0661229 0)
(5.51023 -0.0385169 0)
(5.50761 -0.00808282 0)
(5.5183 0.0326694 0)
(5.53101 0.0702279 0)
(5.54819 0.0949318 0)
(5.58515 0.106721 0)
(5.61766 0.112553 0)
(5.67221 0.085998 0)
(5.73865 0.0420143 0)
(5.78661 -0.0187153 0)
(5.82144 -0.0771264 0)
(5.83121 -0.135454 0)
(5.80502 -0.175029 0)
(5.76037 -0.176089 0)
(5.70836 -0.164326 0)
(5.66942 -0.151629 0)
(5.64503 -0.124563 0)
(5.60114 -0.11285 0)
(5.59061 -0.0686922 0)
(5.51925 -0.00765967 0)
(5.49531 0.0439575 0)
(5.46007 0.163367 0)
(5.39019 0.201488 0)
(5.44724 0.304051 0)
(5.44048 0.367512 0)
(5.50328 0.335893 0)
(5.68388 0.436627 0)
(5.70919 0.377616 0)
(5.95278 0.358185 0)
(6.08313 0.391424 0)
(6.19888 0.24355 0)
(6.45711 0.230445 0)
(6.43228 0.128062 0)
(6.60357 0.00287727 0)
(6.63292 -0.00884024 0)
(6.51061 -0.133831 0)
(6.66379 -0.156315 0)
(6.51067 -0.152517 0)
(6.56146 -0.217078 0)
(6.71083 -0.18762 0)
(6.63634 -0.23787 0)
(6.85663 -0.286479 0)
(6.95812 -0.295341 0)
(7.0706 -0.403984 0)
(7.26889 -0.432188 0)
(7.4385 -0.515344 0)
(7.62308 -0.614602 0)
(7.83925 -0.641223 0)
(8.02921 -0.76451 0)
(8.29144 -0.822885 0)
(8.46919 -0.870476 0)
(8.76865 -1.03371 0)
(8.93039 -1.04156 0)
(9.19182 -1.16297 0)
(9.41627 -1.27116 0)
(9.5744 -1.29268 0)
(9.78214 -1.42113 0)
(9.97462 -1.43412 0)
(10.0121 -1.45021 0)
(10.2736 -1.53088 0)
(10.247 -1.40139 0)
(10.3984 -1.41043 0)
(10.4928 -1.37144 0)
(10.5063 -1.20139 0)
(10.62 -1.1554 0)
(10.7635 -1.05111 0)
(10.7213 -0.901915 0)
(11.0462 -0.825004 0)
(10.9822 -0.70823 0)
(11.2355 -0.643871 0)
(11.3482 -0.61562 0)
(11.535 -0.558939 0)
(11.6277 -0.609266 0)
(11.8769 -0.614122 0)
(11.9561 -0.700138 0)
(12.2127 -0.748712 0)
(12.3469 -0.848636 0)
(12.5354 -1.00508 0)
(12.6852 -1.07873 0)
(12.9359 -1.20421 0)
(13.0412 -1.35211 0)
(13.247 -1.46051 0)
(13.3925 -1.61932 0)
(13.5624 -1.74507 0)
(13.7227 -1.76846 0)
(13.8897 -1.98677 0)
(13.9792 -2.01925 0)
(14.087 -2.10779 0)
(14.2893 -2.22328 0)
(14.3007 -2.20517 0)
(14.4403 -2.2695 0)
(14.529 -2.38471 0)
(14.5799 -2.33079 0)
(14.6294 -2.37891 0)
(14.8406 -2.44062 0)
(14.7137 -2.32923 0)
(14.9268 -2.41473 0)
(14.8824 -2.40902 0)
(14.9185 -2.31092 0)
(14.8844 -2.34645 0)
(14.9303 -2.28469 0)
(14.7824 -2.18645 0)
(14.7124 -2.20636 0)
(14.5486 -2.09035 0)
(14.3196 -2.0868 0)
(14.1058 -1.99032 0)
(13.8064 -1.88703 0)
(13.4681 -1.77377 0)
(13.0927 -1.65 0)
(12.7082 -1.49071 0)
(12.1925 -1.35865 0)
(11.814 -1.08449 0)
(11.3384 -0.908819 0)
(10.9031 -0.58059 0)
(10.3757 -0.31365 0)
(9.90916 -0.210052 0)
(9.16113 0.030432 0)
(8.89597 0.259225 0)
(8.24008 0.291298 0)
(7.95679 0.582128 0)
(7.41997 0.841948 0)
(7.37819 0.783102 0)
(6.70576 0.621543 0)
(6.59246 0.983092 0)
(5.95641 1.27238 0)
(6.03857 0.855284 0)
(5.91893 -0.0580237 0)
(5.01896 1.26403 0)
(5.11889 0.786223 0)
(4.45233 0.584222 0)
(4.60474 0.144261 0)
(3.89867 -1.72499 0)
(5.18022 -3.3777 0)
(3.72106 -4.31812 0)
(5.30367 -5.88439 0)
(4.0914 -6.83409 0)
(6.3838 -6.83848 0)
(4.64386 -7.49811 0)
(6.16182 -6.19829 0)
(5.36774 -5.78076 0)
(5.66465 -5.49664 0)
(6.21006 -5.20125 0)
(5.95385 -5.32894 0)
(6.78802 -4.42726 0)
(7.05357 -3.21999 0)
(7.32726 -1.83512 0)
(7.23095 -0.253642 0)
(7.65824 0.896009 0)
(7.74463 2.06926 0)
(7.87756 3.63053 0)
(7.77126 4.41662 0)
(7.88368 4.83714 0)
(8.27422 5.73341 0)
(8.54041 7.22568 0)
(8.48678 8.10055 0)
(7.97881 8.04009 0)
(7.83275 8.05226 0)
(7.90256 8.17334 0)
(7.50364 8.0528 0)
(7.35184 8.13407 0)
(6.82923 7.34584 0)
(6.05871 6.30823 0)
(5.51104 5.62232 0)
(5.0234 4.81243 0)
(4.50711 4.76769 0)
(5.09144 4.83736 0)
(4.74023 4.86033 0)
(5.18616 4.63013 0)
(5.3369 4.46563 0)
(5.46399 4.21744 0)
(5.46119 4.35453 0)
(5.6949 3.41317 0)
(4.73843 4.05031 0)
(6.31769 2.95749 0)
(3.41358 3.53601 0)
(7.18307 2.57452 0)
(2.95825 3.56822 0)
(7.00906 1.30587 0)
(3.5611 2.95221 0)
(6.40889 0.527218 0)
(3.70588 2.25399 0)
(5.55284 -0.221004 0)
(3.50615 1.66804 0)
(4.78163 -0.808055 0)
(3.19887 1.21939 0)
(4.46206 -0.287525 0)
(3.69555 1.61798 0)
(7.80517 -0.102273 0)
(7.77638 -0.11907 0)
(7.81766 -0.127287 0)
(7.84714 -0.136048 0)
(7.94156 -0.12765 0)
(7.99074 -0.115063 0)
(8.05215 -0.0984831 0)
(8.05923 -0.0896883 0)
(8.06716 -0.0731927 0)
(8.05339 -0.0784407 0)
(8.02786 -0.0695687 0)
(8.01818 -0.0710228 0)
(7.98231 -0.0538686 0)
(7.98388 -0.0311379 0)
(7.96568 -0.00283581 0)
(7.97547 0.0256015 0)
(7.96996 0.0580368 0)
(7.99655 0.080364 0)
(8.00153 0.084524 0)
(8.04208 0.0995277 0)
(8.05079 0.0550762 0)
(8.09307 0.0451188 0)
(8.11761 -0.0294231 0)
(8.12165 -0.0597263 0)
(8.12652 -0.108768 0)
(8.08424 -0.145654 0)
(8.06866 -0.137323 0)
(7.98937 -0.157269 0)
(7.98853 -0.10565 0)
(7.8998 -0.123692 0)
(7.92488 -0.0612372 0)
(7.84921 -0.0434174 0)
(7.83835 0.00566302 0)
(7.81141 0.100403 0)
(7.71703 0.130837 0)
(7.76648 0.247193 0)
(7.65299 0.291066 0)
(7.71654 0.342856 0)
(7.69215 0.391857 0)
(7.69701 0.373199 0)
(7.79082 0.379892 0)
(7.74226 0.348386 0)
(7.9029 0.296899 0)
(7.86709 0.252722 0)
(7.9966 0.17329 0)
(8.05872 0.0969417 0)
(8.0393 0.00917907 0)
(8.18299 -0.0634739 0)
(8.07817 -0.137738 0)
(8.20585 -0.196779 0)
(8.21408 -0.213338 0)
(8.22049 -0.28968 0)
(8.43765 -0.29644 0)
(8.40988 -0.350418 0)
(8.6304 -0.438636 0)
(8.80122 -0.425325 0)
(8.86661 -0.566882 0)
(9.16813 -0.604195 0)
(9.27894 -0.646088 0)
(9.47655 -0.815541 0)
(9.74238 -0.804427 0)
(9.8703 -0.915059 0)
(10.1153 -1.0341 0)
(10.3335 -1.03844 0)
(10.5008 -1.18079 0)
(10.7169 -1.24097 0)
(10.8838 -1.30366 0)
(11.0553 -1.40929 0)
(11.1869 -1.45927 0)
(11.3263 -1.53065 0)
(11.438 -1.5455 0)
(11.4815 -1.59963 0)
(11.6173 -1.54474 0)
(11.6053 -1.52069 0)
(11.6346 -1.47203 0)
(11.7043 -1.38776 0)
(11.6389 -1.29355 0)
(11.7258 -1.21887 0)
(11.7553 -1.11075 0)
(11.7952 -1.00758 0)
(11.9482 -0.906852 0)
(12.0016 -0.837464 0)
(12.1298 -0.764144 0)
(12.3095 -0.677813 0)
(12.4079 -0.742153 0)
(12.5269 -0.688028 0)
(12.7089 -0.757075 0)
(12.8118 -0.812722 0)
(12.9801 -0.871118 0)
(13.0571 -1.0064 0)
(13.2948 -1.09954 0)
(13.2701 -1.19143 0)
(13.6028 -1.33517 0)
(13.4722 -1.46618 0)
(13.7798 -1.58265 0)
(13.7438 -1.70633 0)
(13.9555 -1.81063 0)
(13.8615 -1.88933 0)
(14.1394 -2.08289 0)
(13.9769 -2.07473 0)
(14.1972 -2.16558 0)
(14.154 -2.26486 0)
(14.2678 -2.2923 0)
(14.1856 -2.31626 0)
(14.4084 -2.45038 0)
(14.3259 -2.37416 0)
(14.4206 -2.42647 0)
(14.5329 -2.46007 0)
(14.5077 -2.44927 0)
(14.5704 -2.40674 0)
(14.6501 -2.4423 0)
(14.6628 -2.3322 0)
(14.622 -2.2958 0)
(14.7058 -2.23111 0)
(14.5774 -2.15212 0)
(14.5074 -2.0662 0)
(14.4448 -1.95781 0)
(14.2452 -1.88287 0)
(14.0778 -1.7242 0)
(13.7946 -1.61195 0)
(13.54 -1.51452 0)
(13.1407 -1.35536 0)
(12.8391 -1.17559 0)
(12.4478 -1.0545 0)
(12.0477 -0.685625 0)
(11.6273 -0.535711 0)
(11.2085 -0.224337 0)
(10.6109 0.0948105 0)
(10.2414 0.263237 0)
(9.57573 0.362639 0)
(9.08831 0.708993 0)
(8.55201 0.744159 0)
(8.27855 0.866322 0)
(7.76578 1.04998 0)
(7.37255 1.20655 0)
(7.00409 0.96766 0)
(6.75027 1.16323 0)
(6.35754 1.4161 0)
(6.09852 0.906606 0)
(5.78462 0.708946 0)
(4.66901 1.47223 0)
(4.9501 1.02162 0)
(4.33791 0.736681 0)
(4.24051 0.324184 0)
(4.00564 -2.17902 0)
(4.49394 -3.03944 0)
(3.80473 -4.65403 0)
(4.70608 -5.8693 0)
(3.95702 -7.33605 0)
(5.5618 -7.05559 0)
(3.76821 -7.3629 0)
(5.73762 -6.14829 0)
(4.62154 -6.01473 0)
(5.84256 -5.83268 0)
(5.73803 -5.2755 0)
(5.32748 -5.59912 0)
(5.91337 -4.83706 0)
(6.04083 -3.46094 0)
(6.37768 -1.84433 0)
(6.31431 -0.608747 0)
(6.80174 0.864294 0)
(6.8495 2.22468 0)
(6.88908 3.40293 0)
(6.99324 4.19057 0)
(7.17601 4.87678 0)
(7.45755 5.54942 0)
(7.66623 6.66565 0)
(8.02961 7.74875 0)
(7.95199 7.95132 0)
(7.50339 8.11034 0)
(7.45389 8.35598 0)
(7.24731 8.44716 0)
(6.98924 8.61778 0)
(6.8716 7.93977 0)
(6.22623 6.917 0)
(5.59547 6.07043 0)
(5.30699 5.12542 0)
(4.44861 4.62063 0)
(4.90914 4.48424 0)
(4.81557 4.6666 0)
(5.21857 4.48802 0)
(5.01228 4.43526 0)
(5.53353 3.9053 0)
(4.74174 4.56202 0)
(6.31459 3.53403 0)
(3.77233 4.17266 0)
(7.32986 3.01507 0)
(3.06664 4.09806 0)
(7.37204 1.86684 0)
(3.56723 3.62244 0)
(6.90492 1.29629 0)
(3.80137 3.15259 0)
(6.416 0.845415 0)
(3.64048 2.57146 0)
(5.84123 0.336939 0)
(3.35488 1.76679 0)
(5.40747 0.0176782 0)
(3.37476 1.06197 0)
(4.93368 -0.386912 0)
(4.20139 0.583461 0)
(10.0592 -0.132625 0)
(10.0058 -0.250195 0)
(10.0863 -0.290331 0)
(10.0976 -0.278941 0)
(10.1907 -0.215106 0)
(10.2016 -0.166368 0)
(10.2439 -0.111885 0)
(10.2417 -0.0984693 0)
(10.2123 -0.0622804 0)
(10.2247 -0.0751796 0)
(10.1417 -0.0553138 0)
(10.193 -0.0565062 0)
(10.0907 -0.0469824 0)
(10.1604 -0.0118685 0)
(10.0673 -0.0170914 0)
(10.1424 0.0310545 0)
(10.0738 0.0320736 0)
(10.138 0.0637417 0)
(10.1229 0.0590263 0)
(10.1381 0.069539 0)
(10.1955 0.0484885 0)
(10.1346 0.017816 0)
(10.2701 -0.00641878 0)
(10.1348 -0.0657302 0)
(10.2725 -0.0671088 0)
(10.1118 -0.116985 0)
(10.1832 -0.110996 0)
(10.0694 -0.108403 0)
(10.0427 -0.111267 0)
(10.0231 -0.0644465 0)
(9.9272 -0.0646941 0)
(9.98249 0.00104853 0)
(9.84362 0.0406813 0)
(9.92384 0.0961939 0)
(9.78438 0.181948 0)
(9.85265 0.226322 0)
(9.77559 0.299165 0)
(9.7852 0.338915 0)
(9.8477 0.3736 0)
(9.74965 0.38445 0)
(9.93811 0.378271 0)
(9.80069 0.35295 0)
(9.95677 0.287527 0)
(9.947 0.259873 0)
(9.92561 0.141888 0)
(10.0932 0.084346 0)
(9.96399 0.00276856 0)
(10.1089 -0.121361 0)
(10.1017 -0.125877 0)
(10.0811 -0.238196 0)
(10.2278 -0.287924 0)
(10.1908 -0.297158 0)
(10.3242 -0.413235 0)
(10.4343 -0.444061 0)
(10.5084 -0.495806 0)
(10.6973 -0.597896 0)
(10.7971 -0.662292 0)
(10.9658 -0.710201 0)
(11.1254 -0.831155 0)
(11.2617 -0.905398 0)
(11.4463 -0.937835 0)
(11.5995 -1.11193 0)
(11.7197 -1.10303 0)
(11.9283 -1.19979 0)
(11.9859 -1.33854 0)
(12.1557 -1.28729 0)
(12.2222 -1.47696 0)
(12.3212 -1.48562 0)
(12.3492 -1.52128 0)
(12.4627 -1.64189 0)
(12.4189 -1.5809 0)
(12.5097 -1.62342 0)
(12.4693 -1.59291 0)
(12.5109 -1.48538 0)
(12.3653 -1.49355 0)
(12.503 -1.3208 0)
(12.2238 -1.299 0)
(12.3866 -1.21849 0)
(12.2387 -1.09168 0)
(12.3205 -1.09824 0)
(12.3105 -0.94147 0)
(12.4825 -0.961456 0)
(12.43 -0.813845 0)
(12.714 -0.817046 0)
(12.6547 -0.833052 0)
(12.8972 -0.770632 0)
(12.9017 -0.851067 0)
(13.1158 -0.935262 0)
(13.066 -0.934317 0)
(13.3163 -1.14851 0)
(13.2811 -1.14224 0)
(13.4428 -1.30364 0)
(13.4391 -1.4452 0)
(13.5894 -1.52379 0)
(13.4864 -1.63748 0)
(13.7827 -1.79429 0)
(13.5566 -1.86134 0)
(13.7596 -1.98554 0)
(13.7529 -2.09288 0)
(13.774 -2.15205 0)
(13.8093 -2.18477 0)
(13.8625 -2.35751 0)
(13.9513 -2.3178 0)
(13.8934 -2.40213 0)
(14.1716 -2.4788 0)
(14.0909 -2.46774 0)
(14.2483 -2.50396 0)
(14.3416 -2.53765 0)
(14.4217 -2.51225 0)
(14.4648 -2.4692 0)
(14.5999 -2.43858 0)
(14.6146 -2.37688 0)
(14.6721 -2.31169 0)
(14.6581 -2.18801 0)
(14.7084 -2.13401 0)
(14.5695 -1.9516 0)
(14.5826 -1.84847 0)
(14.3589 -1.73227 0)
(14.1958 -1.57221 0)
(13.929 -1.42123 0)
(13.6818 -1.32394 0)
(13.331 -1.0714 0)
(13.0621 -0.939612 0)
(12.6023 -0.711886 0)
(12.2733 -0.379698 0)
(11.756 -0.222812 0)
(11.3999 0.162191 0)
(10.874 0.485838 0)
(10.3935 0.677524 0)
(9.79036 0.870829 0)
(9.3623 1.11362 0)
(8.80028 1.06175 0)
(8.32244 1.25987 0)
(7.92986 1.45904 0)
(7.53968 1.47253 0)
(7.13637 1.25216 0)
(6.6874 1.50167 0)
(6.13693 1.82753 0)
(6.33934 0.942213 0)
(5.77198 1.21208 0)
(5.40042 1.69124 0)
(4.88549 1.38783 0)
(4.47075 1.2037 0)
(4.36459 0.4519 0)
(4.14517 -2.01589 0)
(3.7468 -2.95007 0)
(4.3359 -4.69552 0)
(3.84929 -6.0495 0)
(4.0799 -7.41925 0)
(4.23937 -7.11485 0)
(3.55216 -7.3778 0)
(5.35519 -6.27151 0)
(4.35219 -6.64875 0)
(6.02874 -5.74061 0)
(4.95687 -4.98911 0)
(4.64538 -5.46918 0)
(4.90517 -4.87381 0)
(5.23427 -3.67248 0)
(5.34758 -2.04145 0)
(5.61422 -0.746086 0)
(5.81298 0.480183 0)
(6.17166 2.17991 0)
(5.92233 3.44905 0)
(6.0663 3.96149 0)
(6.42328 4.50975 0)
(6.92102 5.73655 0)
(6.91155 6.93625 0)
(7.01348 7.88604 0)
(7.41148 8.20992 0)
(7.31898 8.18167 0)
(7.22188 8.31804 0)
(7.28934 8.44845 0)
(6.8643 8.56771 0)
(6.80231 8.23636 0)
(6.37925 7.24861 0)
(5.46093 6.20588 0)
(5.41711 5.43913 0)
(4.68711 4.92053 0)
(4.82789 4.47803 0)
(4.45848 4.61196 0)
(5.18514 4.32236 0)
(4.46731 4.6276 0)
(5.88107 3.93245 0)
(3.78572 4.56901 0)
(6.96604 3.28826 0)
(3.28245 4.38422 0)
(7.70102 2.47079 0)
(3.32563 4.2522 0)
(7.32969 1.88815 0)
(3.49144 3.80052 0)
(6.86004 1.41866 0)
(3.74052 3.18595 0)
(6.50872 1.18509 0)
(3.83047 2.47095 0)
(6.14145 0.64507 0)
(4.07707 1.44187 0)
(5.80732 -0.111352 0)
(4.70201 0.54154 0)
(5.97898 -0.300209 0)
(5.54542 0.0521298 0)
(11.6128 -0.111773 0)
(11.5682 -0.259354 0)
(11.7372 -0.304741 0)
(11.7741 -0.305874 0)
(11.8465 -0.236817 0)
(11.8616 -0.1694 0)
(11.808 -0.12444 0)
(11.8666 -0.0859186 0)
(11.7224 -0.0603701 0)
(11.8334 -0.0598197 0)
(11.6432 -0.0376417 0)
(11.7814 -0.0478941 0)
(11.6206 -0.0307288 0)
(11.7228 -0.0205275 0)
(11.6367 -0.00157157 0)
(11.679 0.000752729 0)
(11.6784 0.0490492 0)
(11.6501 0.0251209 0)
(11.7429 0.0521439 0)
(11.6466 0.0550462 0)
(11.8065 0.0216779 0)
(11.6598 0.0465418 0)
(11.8443 -0.0279343 0)
(11.6973 -0.0124575 0)
(11.8121 -0.0685286 0)
(11.7124 -0.0708968 0)
(11.7149 -0.0894153 0)
(11.6929 -0.0796417 0)
(11.5844 -0.0684358 0)
(11.6427 -0.0503956 0)
(11.4752 -0.00690502 0)
(11.5803 0.00366267 0)
(11.407 0.0860902 0)
(11.4989 0.0877757 0)
(11.3977 0.183928 0)
(11.4273 0.222667 0)
(11.4466 0.268814 0)
(11.3957 0.342296 0)
(11.5344 0.332135 0)
(11.431 0.378508 0)
(11.6032 0.348837 0)
(11.5612 0.334311 0)
(11.6393 0.295488 0)
(11.7307 0.231899 0)
(11.6825 0.166665 0)
(11.8344 0.0745257 0)
(11.7748 -0.00848081 0)
(11.8296 -0.103006 0)
(11.8834 -0.171266 0)
(11.8148 -0.265044 0)
(11.9411 -0.308696 0)
(11.9204 -0.388144 0)
(11.9665 -0.465727 0)
(12.1073 -0.508686 0)
(12.0957 -0.613176 0)
(12.2366 -0.666241 0)
(12.3313 -0.748995 0)
(12.3518 -0.832245 0)
(12.544 -0.905011 0)
(12.5452 -0.999945 0)
(12.6977 -1.06188 0)
(12.7843 -1.17028 0)
(12.8236 -1.20872 0)
(12.9409 -1.2835 0)
(12.9546 -1.36937 0)
(12.9659 -1.36353 0)
(13.0218 -1.48591 0)
(12.9264 -1.50923 0)
(13.0067 -1.52069 0)
(12.8681 -1.64938 0)
(12.9468 -1.55916 0)
(12.7972 -1.60898 0)
(12.8663 -1.55434 0)
(12.6875 -1.45268 0)
(12.7262 -1.39843 0)
(12.5513 -1.27679 0)
(12.562 -1.22357 0)
(12.3615 -1.12505 0)
(12.5078 -1.10221 0)
(12.2088 -1.04262 0)
(12.4811 -0.99155 0)
(12.3223 -0.966714 0)
(12.4522 -0.917991 0)
(12.5208 -0.862566 0)
(12.5976 -0.934439 0)
(12.6725 -0.821474 0)
(12.7955 -0.957832 0)
(12.8281 -0.99316 0)
(12.9498 -1.02256 0)
(12.9967 -1.18566 0)
(13.0875 -1.23328 0)
(13.0943 -1.35766 0)
(13.1756 -1.51215 0)
(13.2395 -1.54671 0)
(13.1825 -1.71605 0)
(13.3838 -1.81612 0)
(13.2772 -1.93706 0)
(13.4233 -2.0119 0)
(13.4449 -2.11293 0)
(13.551 -2.23474 0)
(13.5416 -2.25648 0)
(13.7457 -2.38812 0)
(13.7765 -2.43823 0)
(13.9432 -2.47097 0)
(14.0064 -2.54401 0)
(14.2307 -2.59077 0)
(14.1955 -2.57105 0)
(14.4424 -2.60174 0)
(14.4733 -2.5672 0)
(14.5558 -2.54711 0)
(14.6707 -2.45159 0)
(14.7168 -2.45847 0)
(14.7592 -2.29776 0)
(14.7703 -2.20114 0)
(14.7786 -2.08369 0)
(14.6947 -1.9231 0)
(14.5499 -1.74915 0)
(14.4638 -1.61934 0)
(14.1529 -1.43296 0)
(13.9932 -1.18824 0)
(13.6823 -1.1108 0)
(13.3427 -0.804754 0)
(13.0229 -0.639476 0)
(12.593 -0.367362 0)
(12.2088 -0.0904887 0)
(11.7958 0.217412 0)
(11.3111 0.510757 0)
(10.8672 0.886722 0)
(10.3885 1.08715 0)
(9.85617 1.32046 0)
(9.31963 1.49119 0)
(8.9232 1.47424 0)
(8.41477 1.59784 0)
(7.95955 1.8638 0)
(7.51631 1.77388 0)
(7.26837 1.6332 0)
(6.77777 1.87262 0)
(6.20071 2.00563 0)
(6.43969 1.10983 0)
(5.63501 1.67302 0)
(5.47756 2.00642 0)
(4.81363 1.75438 0)
(4.02676 1.50633 0)
(4.22575 0.33377 0)
(3.86656 -1.6974 0)
(3.36058 -3.00283 0)
(3.81008 -4.48341 0)
(3.49678 -6.16127 0)
(3.52861 -7.03296 0)
(3.2243 -7.33639 0)
(3.73913 -7.65544 0)
(4.73479 -6.7497 0)
(4.31058 -7.25849 0)
(5.35841 -5.53536 0)
(4.09236 -4.4869 0)
(3.86367 -5.43489 0)
(3.99404 -4.89566 0)
(4.43955 -3.66244 0)
(4.15173 -2.44643 0)
(4.97579 -0.800373 0)
(4.81615 0.427113 0)
(5.16178 1.97966 0)
(5.20545 3.3991 0)
(5.26865 4.03198 0)
(5.53393 3.94918 0)
(6.16445 4.98004 0)