/*--------------------------------*- C++ -*----------------------------------*\
| =========                 |                                                 |
| \\      /  F ield         | OpenFOAM: The Open Source CFD Toolbox           |
|  \\    /   O peration     | Version:  2.4.0                                 |
|   \\  /    A nd           | Web:      www.OpenFOAM.org                      |
|    \\/     M anipulation  |                                                 |
\*---------------------------------------------------------------------------*/
FoamFile
{
    version     2.0;
    format      ascii;
    class       volScalarField;
    location    "78";
    object      p;
}
// * * * * * * * * * * * * * * * * * * * * * * * * * * * * * * * * * * * * * //

dimensions      [0 2 -2 0 0 0 0];

internalField   nonuniform List<scalar> 
4400
(
-0.114174
-0.0996739
-0.113511
-0.122705
-0.107928
-0.115245
-0.111924
-0.11188
-0.121803
-0.111035
-0.118562
-0.119897
-0.114048
-0.125077
-0.117176
-0.120089
-0.125887
-0.121923
-0.127022
-0.136432
-0.114485
-0.0994658
-0.113363
-0.123558
-0.107808
-0.115213
-0.112075
-0.111499
-0.122138
-0.111018
-0.118483
-0.120244
-0.113724
-0.125251
-0.11726
-0.119877
-0.12612
-0.121946
-0.127003
-0.136228
-0.114826
-0.0991305
-0.113317
-0.1243
-0.107491
-0.11532
-0.112184
-0.111084
-0.122631
-0.110869
-0.118487
-0.120606
-0.113254
-0.125607
-0.11725
-0.119695
-0.126435
-0.122017
-0.126881
-0.135592
-0.11511
-0.0988502
-0.113363
-0.124875
-0.107134
-0.115517
-0.112159
-0.110769
-0.123017
-0.110682
-0.118579
-0.120876
-0.112828
-0.125972
-0.117104
-0.119696
-0.126649
-0.121999
-0.126645
-0.134177
-0.115261
-0.0988199
-0.113557
-0.125159
-0.106909
-0.115761
-0.112062
-0.110724
-0.123057
-0.110589
-0.118711
-0.121045
-0.112672
-0.126119
-0.116943
-0.119842
-0.126661
-0.121827
-0.126387
-0.132243
-0.115268
-0.0993115
-0.114028
-0.125322
-0.107086
-0.116011
-0.112131
-0.1111
-0.122942
-0.110777
-0.118864
-0.121266
-0.112992
-0.126143
-0.116948
-0.12011
-0.12656
-0.121594
-0.126233
-0.130237
-0.115039
-0.100667
-0.114883
-0.125201
-0.107894
-0.116134
-0.112585
-0.112007
-0.122559
-0.111414
-0.118984
-0.121591
-0.113873
-0.125769
-0.117286
-0.120492
-0.126361
-0.121528
-0.126123
-0.128342
-0.114448
-0.103144
-0.115995
-0.124433
-0.109419
-0.115957
-0.113442
-0.113438
-0.121759
-0.112599
-0.118975
-0.121856
-0.115286
-0.12484
-0.118011
-0.120995
-0.125969
-0.121744
-0.125918
-0.126615
-0.11346
-0.106607
-0.116978
-0.122617
-0.111554
-0.11537
-0.11455
-0.115198
-0.120404
-0.114316
-0.118723
-0.121797
-0.117085
-0.123323
-0.119053
-0.121581
-0.125232
-0.122253
-0.125523
-0.125089
-0.112128
-0.110799
-0.117441
-0.119531
-0.113979
-0.114398
-0.115631
-0.116943
-0.118444
-0.116378
-0.118164
-0.121205
-0.119021
-0.121359
-0.12023
-0.122141
-0.124065
-0.122979
-0.124927
-0.123767
-0.110602
-0.115218
-0.117095
-0.115358
-0.116257
-0.113178
-0.116417
-0.118293
-0.116009
-0.118495
-0.11734
-0.120081
-0.120788
-0.119174
-0.121319
-0.122545
-0.122518
-0.123757
-0.124174
-0.122632
-0.109107
-0.119304
-0.115863
-0.11067
-0.118077
-0.111955
-0.116824
-0.118971
-0.113417
-0.120361
-0.116377
-0.118629
-0.122134
-0.117081
-0.122176
-0.122711
-0.12079
-0.12442
-0.123371
-0.121659
-0.107833
-0.122617
-0.114078
-0.106149
-0.119196
-0.111012
-0.116919
-0.118996
-0.11105
-0.121708
-0.115477
-0.117132
-0.122955
-0.115351
-0.122747
-0.122671
-0.11915
-0.124858
-0.122632
-0.12084
-0.106907
-0.12494
-0.112284
-0.102366
-0.119622
-0.110526
-0.116839
-0.118627
-0.109211
-0.122459
-0.114837
-0.115852
-0.123306
-0.114139
-0.123038
-0.122542
-0.11781
-0.125027
-0.122044
-0.120172
-0.106384
-0.126312
-0.110958
-0.0996792
-0.119258
-0.110478
-0.116726
-0.118173
-0.108048
-0.122815
-0.114551
-0.114947
-0.123341
-0.113468
-0.123105
-0.122437
-0.116879
-0.124947
-0.121651
-0.119654
-0.106237
-0.126944
-0.110303
-0.0981968
-0.118998
-0.110726
-0.116644
-0.117834
-0.107562
-0.122824
-0.114571
-0.114444
-0.123218
-0.113415
-0.123018
-0.122399
-0.116383
-0.124758
-0.121444
-0.119292
-0.106382
-0.126997
-0.110064
-0.097781
-0.118542
-0.111021
-0.116599
-0.117595
-0.107653
-0.122593
-0.114705
-0.114298
-0.123001
-0.113535
-0.122851
-0.122366
-0.116273
-0.124485
-0.121346
-0.119111
-0.106695
-0.126616
-0.109814
-0.098139
-0.117945
-0.111148
-0.116581
-0.117293
-0.108112
-0.122215
-0.114746
-0.114424
-0.122622
-0.113814
-0.122675
-0.122217
-0.116449
-0.124183
-0.121263
-0.119122
-0.107045
-0.126065
-0.109419
-0.0988433
-0.117377
-0.111078
-0.116611
-0.116919
-0.10863
-0.121835
-0.114636
-0.114701
-0.122171
-0.114096
-0.122557
-0.121961
-0.116757
-0.123916
-0.121159
-0.119269
-0.107335
-0.125731
-0.10906
-0.099626
-0.117123
-0.110925
-0.116691
-0.116567
-0.108994
-0.121671
-0.114473
-0.115001
-0.121854
-0.114239
-0.12256
-0.121705
-0.117081
-0.123791
-0.121052
-0.119474
-0.121852
-0.123934
-0.121352
-0.123647
-0.125676
-0.115419
-0.112485
-0.0982018
-0.10265
-0.0849062
-0.116606
-0.151697
-0.164138
-0.189978
-0.131561
-0.105562
-0.137814
-0.0860547
-0.0495312
-0.145918
-0.214623
-0.190988
-0.139359
-0.0896297
-0.0366431
-0.0199014
-0.0504005
-0.112984
-0.186396
-0.210335
-0.163192
-0.0574695
0.0123294
-0.029941
-0.0909735
-0.116411
-0.123128
-0.110206
-0.0631703
-0.0245654
-0.0176094
-0.0360175
-0.0551028
-0.0713311
-0.0871913
-0.0833093
-0.055423
-0.0286811
-0.0218274
-0.0298949
-0.0351041
-0.0338896
-0.0266859
-0.0118756
-5.09302e-05
-0.0026215
-0.0191857
-0.0295774
-0.0209428
-0.00843834
-0.00770242
-0.0157155
-0.0190186
-0.0106511
-0.000508636
0.00193423
-0.000188921
-0.0011442
-0.00392388
-0.00890359
-0.010072
-0.00650248
-0.00365606
-0.00360006
-0.00423938
-0.00418267
-0.00351594
-0.00256148
-0.00149687
-0.000468648
0.000441191
0.00122904
0.00190827
0.00247756
0.00292211
0.00322712
0.00338824
0.00341692
0.00333639
0.0031737
0.00295331
0.00269427
0.00241004
0.00210954
0.00179846
0.00148026
0.00115706
0.000830049
0.000499939
0.000167086
-0.122043
-0.123961
-0.121796
-0.12301
-0.126258
-0.11586
-0.112094
-0.0981345
-0.102585
-0.0843041
-0.11476
-0.151452
-0.1594
-0.185626
-0.137797
-0.104888
-0.13482
-0.0968001
-0.0600561
-0.139808
-0.200821
-0.179442
-0.131175
-0.084476
-0.0352633
-0.0187299
-0.0511775
-0.118711
-0.194335
-0.218393
-0.168482
-0.0502316
0.0234207
-0.0235647
-0.0926822
-0.123246
-0.132666
-0.117747
-0.0656503
-0.0236152
-0.0156256
-0.0332886
-0.0513859
-0.0669134
-0.0820258
-0.0788864
-0.0535493
-0.0291384
-0.0240933
-0.0334955
-0.0389379
-0.0370241
-0.0289951
-0.01339
-7.58164e-05
-0.000557291
-0.0151065
-0.0250477
-0.0180476
-0.00795573
-0.00929069
-0.0182806
-0.0215159
-0.0118994
4.52296e-05
0.00396693
0.00192438
-0.000271864
-0.00477459
-0.0107672
-0.0115557
-0.00682699
-0.00296097
-0.00249332
-0.00326794
-0.00361344
-0.00336301
-0.00268387
-0.00172414
-0.000682662
0.000292311
0.00115031
0.0018806
0.0024767
0.00293004
0.00323463
0.0033926
0.00341853
0.00333643
0.00317308
0.00295254
0.00269362
0.00240953
0.00210919
0.00179822
0.00148009
0.00115696
0.00082998
0.000499912
0.000167072
-0.122336
-0.12383
-0.122274
-0.122027
-0.126597
-0.116082
-0.110901
-0.0984543
-0.102419
-0.0841482
-0.112883
-0.151437
-0.154308
-0.178479
-0.143331
-0.107089
-0.132559
-0.106802
-0.0711622
-0.133312
-0.185426
-0.167842
-0.124354
-0.0803157
-0.0340716
-0.0176721
-0.0513871
-0.123773
-0.201947
-0.226072
-0.172962
-0.0429038
0.0332995
-0.0182864
-0.0944432
-0.129705
-0.141571
-0.124472
-0.0674721
-0.0222172
-0.0131346
-0.0299428
-0.0473039
-0.0622927
-0.0764136
-0.0739935
-0.0513123
-0.0293161
-0.0259834
-0.0366599
-0.0423652
-0.039877
-0.0310799
-0.0146186
0.00016638
0.00167936
-0.010882
-0.0204265
-0.0150211
-0.007288
-0.010646
-0.0205716
-0.0237569
-0.0129684
0.000674131
0.00598075
0.00398334
0.000602932
-0.0055389
-0.0124993
-0.0129425
-0.00710497
-0.00224357
-0.00136415
-0.00227714
-0.00303732
-0.00321353
-0.00281199
-0.00195445
-0.000896626
0.00014499
0.00107288
0.00185379
0.00247629
0.00293833
0.00324253
0.00339742
0.00342062
0.00333688
0.00317281
0.00295207
0.00269316
0.00240916
0.00210892
0.00179803
0.00147997
0.00115688
0.000829933
0.000499886
0.000167063
-0.122793
-0.12365
-0.122787
-0.120866
-0.126352
-0.116114
-0.109278
-0.0990673
-0.10225
-0.0843852
-0.111036
-0.150445
-0.149221
-0.169308
-0.14701
-0.111691
-0.131305
-0.11537
-0.0823932
-0.127162
-0.169462
-0.156587
-0.11895
-0.0773308
-0.0333004
-0.0169972
-0.0513803
-0.128
-0.208966
-0.232846
-0.17637
-0.0362387
0.0418282
-0.0142847
-0.0962154
-0.135658
-0.149631
-0.130224
-0.068571
-0.0203684
-0.0101374
-0.0259514
-0.0428919
-0.0575092
-0.0704072
-0.0686986
-0.0487349
-0.0292073
-0.0274678
-0.0393485
-0.045358
-0.0424286
-0.0329063
-0.0155414
0.000661695
0.00405347
-0.00656827
-0.0157972
-0.011917
-0.00645158
-0.0117542
-0.0225681
-0.0257177
-0.0138411
0.00137121
0.00793696
0.00595149
0.00146286
-0.00620748
-0.0140703
-0.0142047
-0.00732864
-0.00151792
-0.000236603
-0.00128719
-0.00246611
-0.00307128
-0.0029447
-0.00218471
-0.00110715
1.90375e-06
0.000998705
0.00182857
0.00247661
0.00294702
0.00325081
0.00340268
0.00342317
0.00333778
0.00317291
0.00295188
0.00269291
0.00240893
0.00210874
0.0017979
0.00147988
0.00115682
0.000829896
0.000499865
0.000167056
-0.123377
-0.123444
-0.123172
-0.119806
-0.12537
-0.116281
-0.107676
-0.0997926
-0.102127
-0.0850639
-0.108946
-0.147542
-0.144098
-0.159121
-0.148344
-0.11797
-0.131119
-0.122211
-0.0933614
-0.121835
-0.153901
-0.146004
-0.114919
-0.0755867
-0.0331757
-0.0169148
-0.0514396
-0.131269
-0.21487
-0.237818
-0.178209
-0.0308058
0.0489396
-0.0115697
-0.0978632
-0.140917
-0.15663
-0.134858
-0.0689058
-0.0180798
-0.00664693
-0.0213095
-0.0382018
-0.0526004
-0.0640741
-0.0630763
-0.0458529
-0.0288153
-0.0285322
-0.0415412
-0.0479059
-0.0446683
-0.0344463
-0.0161472
0.0013884
0.0065372
-0.00222803
-0.0112392
-0.00878729
-0.0054675
-0.012608
-0.0242569
-0.0273824
-0.0145045
0.00212729
0.00979754
0.00779635
0.00229306
-0.0067732
-0.0154557
-0.0153185
-0.00749156
-0.000797397
0.000866622
-0.000319121
-0.0019117
-0.00293961
-0.00308059
-0.00241172
-0.00131097
-0.000134466
0.000929207
0.00180576
0.00247795
0.00295617
0.00325946
0.00340835
0.00342617
0.00333909
0.00317337
0.00295196
0.00269286
0.00240884
0.00210865
0.00179782
0.00147982
0.00115678
0.00082987
0.000499851
0.000167052
-0.123916
-0.123208
-0.123273
-0.119018
-0.123844
-0.116538
-0.106433
-0.100407
-0.102052
-0.0861721
-0.106298
-0.142344
-0.13882
-0.148934
-0.14736
-0.125069
-0.131976
-0.127342
-0.103655
-0.11758
-0.139509
-0.136356
-0.112141
-0.0750178
-0.0338536
-0.0176136
-0.0516306
-0.133338
-0.218754
-0.240038
-0.177971
-0.0267597
0.0544809
-0.0100322
-0.0992246
-0.145259
-0.162368
-0.138255
-0.0684607
-0.0153788
-0.00269392
-0.0160547
-0.0332992
-0.0475995
-0.0575035
-0.0572074
-0.0427175
-0.0281571
-0.0291807
-0.0432398
-0.0500146
-0.0465941
-0.035679
-0.0164337
0.00231928
0.00910413
0.00207243
-0.00682475
-0.00568221
-0.00436022
-0.0132071
-0.0256326
-0.0287415
-0.0149497
0.00293036
0.0115282
0.00949037
0.00308079
-0.00723154
-0.0166372
-0.0162649
-0.00758891
-9.45387e-05
0.00192415
0.000607537
-0.00138498
-0.0028212
-0.00321802
-0.00263229
-0.00150491
-0.000261878
0.000865795
0.00178612
0.00248062
0.00296588
0.0032685
0.00341443
0.00342958
0.00334079
0.00317415
0.0029523
0.00269299
0.00240888
0.00210864
0.00179779
0.00147979
0.00115676
0.000829855
0.000499842
0.00016705
-0.124315
-0.122934
-0.123035
-0.118584
-0.122015
-0.116764
-0.105789
-0.100782
-0.101913
-0.0875014
-0.103128
-0.13518
-0.133276
-0.139481
-0.144482
-0.132183
-0.133811
-0.131007
-0.112902
-0.114495
-0.126881
-0.127894
-0.110456
-0.0754345
-0.0353824
-0.0192902
-0.0519979
-0.133957
-0.219791
-0.23896
-0.175381
-0.0240464
0.0580595
-0.00946918
-0.100124
-0.148478
-0.166698
-0.140343
-0.0672401
-0.0123084
0.00168485
-0.0102682
-0.0282565
-0.0425371
-0.0508091
-0.0511831
-0.0393986
-0.0272654
-0.0294372
-0.0444657
-0.0517039
-0.0482091
-0.0365902
-0.0164088
0.00342672
0.0117255
0.00626802
-0.00261767
-0.00265052
-0.00315734
-0.0135575
-0.0266964
-0.0297907
-0.0151723
0.00376761
0.0130991
0.0110118
0.00381629
-0.00758073
-0.0176033
-0.0170304
-0.00761755
0.000578809
0.00291666
0.00147644
-0.000895049
-0.00271802
-0.00335502
-0.00284319
-0.00168594
-0.000378185
0.000809666
0.00177027
0.00248489
0.00297622
0.0032779
0.00342085
0.00343335
0.00334282
0.00317522
0.00295286
0.00269328
0.00240902
0.0021087
0.00179781
0.00147979
0.00115675
0.000829849
0.000499839
0.000167051
-0.12458
-0.122612
-0.122513
-0.1185
-0.120138
-0.116803
-0.105765
-0.100943
-0.101541
-0.0887981
-0.0997613
-0.126697
-0.127337
-0.131163
-0.140365
-0.138623
-0.13648
-0.13358
-0.12095
-0.112591
-0.116481
-0.12085
-0.109656
-0.0765791
-0.0377181
-0.0220488
-0.0526478
-0.133104
-0.217749
-0.234717
-0.170565
-0.022496
0.0591745
-0.0096848
-0.100413
-0.150468
-0.169543
-0.141113
-0.0652794
-0.00892054
0.00645323
-0.00408512
-0.0231541
-0.0374354
-0.0441314
-0.0451107
-0.0359862
-0.0261896
-0.0293468
-0.0452566
-0.0530025
-0.0495186
-0.0371731
-0.0160913
0.0046839
0.0143735
0.0102927
0.00132665
0.00026034
-0.00189034
-0.0136711
-0.0274543
-0.0305293
-0.0151722
0.00462558
0.0144848
0.0123455
0.00449296
-0.0078212
-0.0183492
-0.0176074
-0.00757652
0.0012119
0.00382761
0.00227414
-0.000448872
-0.00263105
-0.00348916
-0.00304107
-0.00185128
-0.000481413
0.000761834
0.00175867
0.00249089
0.00298717
0.00328757
0.00342749
0.00343734
0.00334507
0.00317646
0.00295356
0.00269367
0.00240924
0.00210881
0.00179786
0.00147981
0.00115676
0.00082985
0.000499839
0.000167053
-0.124756
-0.122243
-0.121809
-0.118689
-0.11842
-0.116512
-0.10624
-0.100959
-0.100847
-0.0899098
-0.096501
-0.117542
-0.120915
-0.12408
-0.135697
-0.143816
-0.139683
-0.13548
-0.127138
-0.111827
-0.108577
-0.115399
-0.109456
-0.0781448
-0.0406978
-0.0258664
-0.0536184
-0.131205
-0.213095
-0.228036
-0.163937
-0.0217181
0.0575207
-0.0105381
-0.100024
-0.151258
-0.170934
-0.140633
-0.0626371
-0.00527628
0.0115663
0.00230279
-0.018067
-0.032304
-0.0376301
-0.039113
-0.0325876
-0.0249928
-0.0289731
-0.0456616
-0.0539418
-0.0505259
-0.0374284
-0.0155111
0.00606651
0.0170233
0.0140757
0.00496296
0.00300522
-0.000594762
-0.0135661
-0.0279161
-0.0309596
-0.0149526
0.00548815
0.0156665
0.0134833
0.00510665
-0.00795489
-0.018876
-0.0179946
-0.0074676
0.00179563
0.00464464
0.00298947
-5.20761e-05
-0.00256017
-0.00361744
-0.00322242
-0.00199842
-0.00057025
0.000722966
0.0017515
0.00249858
0.00299859
0.00329731
0.00343414
0.00344136
0.00334737
0.00317777
0.00295431
0.0026941
0.00240949
0.00210894
0.00179793
0.00147984
0.00115677
0.000829855
0.000499843
0.000167056
-0.124861
-0.121841
-0.121033
-0.119019
-0.117001
-0.115867
-0.107005
-0.100836
-0.0998301
-0.0907444
-0.0935205
-0.10831
-0.114055
-0.118094
-0.13104
-0.147333
-0.142944
-0.137056
-0.131796
-0.112063
-0.103243
-0.111594
-0.109519
-0.0797579
-0.0441084
-0.0306168
-0.0547498
-0.128807
-0.206887
-0.220177
-0.156028
-0.0213058
0.0531611
-0.0119201
-0.0989847
-0.150999
-0.171001
-0.139033
-0.0594108
-0.00143394
0.016992
0.0086605
-0.013069
-0.0271577
-0.0314586
-0.0333229
-0.0293233
-0.0237486
-0.0283935
-0.0457344
-0.054548
-0.0512271
-0.0373647
-0.0147078
0.00755131
0.0196513
0.0175417
0.00825941
0.00554213
0.000690727
-0.013269
-0.0280955
-0.0310865
-0.0145219
0.00633629
0.0166339
0.0144238
0.00565508
-0.00798605
-0.0191909
-0.0181971
-0.00729539
0.0023228
0.00535925
0.00361178
0.000291797
-0.00250394
-0.00373611
-0.0033836
-0.00212511
-0.000643817
0.000693216
0.0017486
0.00250769
0.00301014
0.00330679
0.00344051
0.00344517
0.00334953
0.00317899
0.00295501
0.0026945
0.00240971
0.00210907
0.00179799
0.00147987
0.00115678
0.000829862
0.000499847
0.00016706
-0.124896
-0.121429
-0.120282
-0.119342
-0.115951
-0.114964
-0.107867
-0.100965
-0.0985654
-0.0912318
-0.0908917
-0.0995483
-0.106963
-0.112961
-0.12674
-0.14898
-0.145674
-0.138436
-0.135037
-0.113022
-0.100349
-0.109276
-0.109518
-0.0810088
-0.0476635
-0.0360114
-0.0560003
-0.125826
-0.199981
-0.212386
-0.147242
-0.021101
0.0464009
-0.01376
-0.0973873
-0.149905
-0.169931
-0.136469
-0.0557145
0.00255165
0.0226741
0.01472
-0.00823741
-0.0220398
-0.0257397
-0.0278789
-0.026317
-0.0225353
-0.0276926
-0.0455236
-0.0548348
-0.0516072
-0.037
-0.0137293
0.00911538
0.0222302
0.02062
0.0111955
0.00783195
0.00192541
-0.0128145
-0.028012
-0.0309203
-0.0138962
0.00714881
0.0173859
0.015172
0.00613718
-0.00792281
-0.0193076
-0.0182275
-0.00706771
0.00278853
0.00596604
0.00413636
0.000582144
-0.00245946
-0.0038407
-0.00352104
-0.00222963
-0.000701866
0.000672177
0.00174939
0.00251765
0.00302132
0.00331558
0.00344622
0.00344848
0.00335134
0.00317996
0.00295554
0.0026948
0.00240988
0.00210916
0.00179804
0.0014799
0.00115679
0.000829867
0.000499851
0.000167063
-0.124848
-0.121039
-0.119619
-0.119552
-0.115249
-0.113948
-0.108663
-0.101214
-0.0971879
-0.0913539
-0.0884779
-0.0917186
-0.0999903
-0.108467
-0.122948
-0.148852
-0.147389
-0.13957
-0.137016
-0.114355
-0.0994778
-0.108091
-0.109179
-0.0816484
-0.0510456
-0.0416918
-0.0572237
-0.122019
-0.192582
-0.204761
-0.138044
-0.0211437
0.0377145
-0.0160038
-0.0953336
-0.14814
-0.167884
-0.13311
-0.0517046
0.00664131
0.0285288
0.020238
-0.00364683
-0.017039
-0.0205535
-0.0229205
-0.0236805
-0.0214282
-0.0269574
-0.0450683
-0.0548008
-0.0516419
-0.0363622
-0.0126346
0.010737
0.0247261
0.0232543
0.013756
0.00983876
0.00306804
-0.0122449
-0.0276932
-0.0304814
-0.0131029
0.00790285
0.0179311
0.0157392
0.00655299
-0.0077784
-0.0192494
-0.018107
-0.0067958
0.00319056
0.00646214
0.00456165
0.000821036
-0.00242262
-0.00392623
-0.00363169
-0.00231129
-0.000744985
0.000658827
0.00175291
0.00252765
0.00303148
0.00332317
0.00345092
0.00345102
0.0033526
0.00318057
0.00295584
0.00269496
0.00240996
0.00210919
0.00179806
0.0014799
0.0011568
0.000829869
0.000499853
0.000167065
-0.124702
-0.120705
-0.11907
-0.119613
-0.114848
-0.112964
-0.109282
-0.101551
-0.0958627
-0.091158
-0.0865114
-0.085197
-0.0935831
-0.104517
-0.119707
-0.147325
-0.147897
-0.140363
-0.137951
-0.115707
-0.09998
-0.107588
-0.108352
-0.0815223
-0.053968
-0.0470654
-0.0583878
-0.117257
-0.184623
-0.196963
-0.128666
-0.0209239
0.0278729
-0.0184192
-0.0929181
-0.145776
-0.16504
-0.129093
-0.0475546
0.0108074
0.0344221
0.0250157
0.000620939
-0.0122909
-0.0159273
-0.0185845
-0.0214974
-0.0204909
-0.0262726
-0.0444064
-0.0544381
-0.051308
-0.0354956
-0.0114943
0.0123921
0.0270969
0.0254061
0.0159293
0.0115327
0.00407955
-0.0116086
-0.027178
-0.0298073
-0.0121841
0.00857502
0.0182871
0.016142
0.00690408
-0.0075702
-0.0190502
-0.017865
-0.00649371
0.00352879
0.00684655
0.00489071
0.00101265
-0.00238854
-0.00398818
-0.00371368
-0.00237051
-0.000774685
0.000651567
0.00175785
0.00253674
0.00303995
0.0033291
0.0034543
0.00345262
0.00335322
0.00318076
0.00295587
0.00269494
0.00240993
0.00210917
0.00179804
0.00147989
0.00115679
0.000829866
0.000499853
0.000167066
-0.124455
-0.12046
-0.118641
-0.119545
-0.114666
-0.112117
-0.109678
-0.101911
-0.0947381
-0.0907307
-0.0849529
-0.0802535
-0.0882141
-0.101168
-0.117044
-0.144935
-0.147339
-0.14077
-0.138096
-0.116831
-0.101195
-0.107355
-0.106852
-0.0806027
-0.0561994
-0.0515082
-0.0594682
-0.111569
-0.176024
-0.188357
-0.118774
-0.0198713
0.0177282
-0.0205783
-0.0898403
-0.142851
-0.161475
-0.12454
-0.0434779
0.0150343
0.0401206
0.028948
0.00450605
-0.00801717
-0.0118654
-0.0149994
-0.0198072
-0.0197647
-0.0257093
-0.0435944
-0.053759
-0.0506178
-0.0344768
-0.0103795
0.0140497
0.0292823
0.0270693
0.0177078
0.012892
0.00492596
-0.0109575
-0.0265195
-0.0289578
-0.0111997
0.0091444
0.0184802
0.0164008
0.00719233
-0.00731687
-0.0187481
-0.0175341
-0.00617542
0.00380314
0.0071208
0.00513078
0.00116217
-0.00235258
-0.00402369
-0.00376711
-0.0024092
-0.000793311
0.000648384
0.00176275
0.00254394
0.00304613
0.00333305
0.0034562
0.0034532
0.00335318
0.00318052
0.00295563
0.00269476
0.00240982
0.0021091
0.001798
0.00147987
0.00115678
0.000829859
0.00049985
0.000167066
-0.124141
-0.120312
-0.11832
-0.119391
-0.114613
-0.111469
-0.109866
-0.102235
-0.0939037
-0.0901911
-0.083835
-0.0770053
-0.0842866
-0.0985619
-0.114983
-0.142273
-0.146067
-0.140818
-0.137693
-0.117634
-0.102607
-0.10711
-0.104799
-0.0790206
-0.0576076
-0.0549571
-0.0601125
-0.105214
-0.166918
-0.178733
-0.10814
-0.0177884
0.00832504
-0.0216703
-0.0860571
-0.139295
-0.157454
-0.119595
-0.0396892
0.0192939
0.0453873
0.0321341
0.00800255
-0.00444845
-0.00841143
-0.0122646
-0.0186001
-0.0192602
-0.0253064
-0.0427321
-0.0528467
-0.049673
-0.0334362
-0.00933646
0.0156727
0.03119
0.0282809
0.0190906
0.0139077
0.00558197
-0.0103432
-0.0257838
-0.0280158
-0.0102248
0.00959639
0.0185434
0.0165387
0.0074171
-0.00703823
-0.0183766
-0.0171417
-0.00585305
0.00401069
0.00729139
0.0052916
0.00127466
-0.0023118
-0.0040327
-0.00379427
-0.0024306
-0.000803734
0.000647191
0.0017663
0.00254855
0.00304971
0.00333495
0.00345667
0.00345286
0.00335257
0.00317993
0.00295518
0.00269445
0.00240962
0.00210898
0.00179793
0.00147983
0.00115675
0.000829849
0.000499845
0.000167065
-0.123807
-0.120247
-0.118103
-0.119196
-0.114617
-0.111042
-0.109889
-0.10248
-0.0933814
-0.0896923
-0.0831937
-0.0753436
-0.0819573
-0.0967959
-0.113521
-0.13983
-0.144505
-0.140595
-0.136928
-0.118135
-0.103914
-0.10677
-0.102356
-0.0769729
-0.0581823
-0.0571784
-0.0603558
-0.0987197
-0.157735
-0.168454
-0.0967894
-0.0144696
0.000852003
-0.021751
-0.0816811
-0.1351
-0.152363
-0.114336
-0.0363907
0.0235137
0.0499539
0.0348279
0.0110936
-0.00166108
-0.00566072
-0.0104176
-0.0178197
-0.0189601
-0.0250572
-0.0419583
-0.0518848
-0.048725
-0.0325264
-0.00837216
0.0172326
0.0326953
0.0291075
0.0200857
0.01459
0.00603517
-0.00981134
-0.0250436
-0.0270775
-0.00934066
0.0099271
0.0185143
0.0165805
0.00757521
-0.00675823
-0.0179681
-0.0167165
-0.00554505
0.00414561
0.00737186
0.00538403
0.0013545
-0.00226618
-0.00401884
-0.00378144
-0.00243864
-0.00080877
0.000646313
0.0017677
0.00255034
0.00305081
0.00333504
0.00345599
0.00345184
0.00335156
0.00317911
0.0029546
0.00269407
0.00240938
0.00210884
0.00179785
0.00147978
0.00115673
0.000829835
0.000499838
0.000167063
-0.12349
-0.120227
-0.117996
-0.118992
-0.114629
-0.110821
-0.109796
-0.1026
-0.0931445
-0.0893616
-0.0830132
-0.074986
-0.0810316
-0.0958213
-0.112584
-0.137866
-0.143009
-0.140269
-0.135951
-0.118347
-0.105036
-0.106297
-0.0999492
-0.0747771
-0.0580739
-0.0582621
-0.0603252
-0.0928575
-0.149075
-0.157502
-0.0853939
-0.0101916
-0.00352823
-0.020927
-0.0770904
-0.130571
-0.147949
-0.109652
-0.0332066
0.027475
0.0533628
0.0372006
0.0136471
0.000413449
-0.00372086
-0.00939336
-0.0173732
-0.0188291
-0.0249224
-0.0413365
-0.0510235
-0.0479279
-0.0317339
-0.00746184
0.0186852
0.0336887
0.0296207
0.0207157
0.0149732
0.00629002
-0.00939581
-0.0243689
-0.0262349
-0.00861906
0.0101465
0.0184321
0.0165524
0.00766398
-0.00650589
-0.0175678
-0.0163079
-0.00528277
0.00420688
0.00738165
0.0054201
0.00140537
-0.0022194
-0.0039895
-0.00376914
-0.0024375
-0.000810566
0.00064492
0.00176694
0.00254973
0.00304998
0.00333386
0.00345459
0.00345045
0.00335036
0.0031782
0.00295396
0.00269365
0.00240913
0.00210869
0.00179776
0.00147973
0.0011567
0.000829821
0.000499831
0.000167061
-0.123199
-0.120211
-0.118001
-0.118792
-0.114628
-0.110768
-0.109632
-0.102606
-0.0931798
-0.0892432
-0.0830873
-0.075416
-0.0810577
-0.0954509
-0.112079
-0.136467
-0.141806
-0.139949
-0.135067
-0.118378
-0.105889
-0.105802
-0.0979742
-0.0728355
-0.0575424
-0.058462
-0.0602626
-0.0884199
-0.141836
-0.148212
-0.0750547
-0.00506048
-0.00497008
-0.0196718
-0.0729961
-0.126287
-0.144025
-0.105769
-0.0301814
0.0307478
0.0556094
0.0391274
0.0155219
0.00185794
-0.00264241
-0.00900421
-0.0171536
-0.0188114
-0.0248622
-0.0409042
-0.0503041
-0.047255
-0.0309872
-0.00665714
0.0198665
0.0341811
0.0298673
0.0210338
0.0151191
0.00637182
-0.00911992
-0.0238172
-0.0255529
-0.00810572
0.0102772
0.0183309
0.0164813
0.00768471
-0.00631242
-0.0172281
-0.0159687
-0.00509315
0.00420833
0.00734412
0.00541455
0.00143056
-0.00217829
-0.00395422
-0.00374692
-0.00243096
-0.000810342
0.000643204
0.00176489
0.00254777
0.00304816
0.00333215
0.00345299
0.00344904
0.00334923
0.00317736
0.00295338
0.00269327
0.00240889
0.00210855
0.00179768
0.00147969
0.00115668
0.000829808
0.000499824
0.000167058
-0.122959
-0.120189
-0.118084
-0.11862
-0.114616
-0.110821
-0.109463
-0.10254
-0.0934126
-0.0892489
-0.0831636
-0.0762525
-0.0814493
-0.0954379
-0.111865
-0.135709
-0.141019
-0.139731
-0.134449
-0.118351
-0.106447
-0.105518
-0.0966934
-0.0715112
-0.0570135
-0.0583108
-0.0602824
-0.0860093
-0.137191
-0.141662
-0.067711
-0.000544057
-0.00449748
-0.0186973
-0.0704445
-0.122997
-0.140865
-0.102699
-0.0278184
0.0330799
0.0570452
0.0403807
0.0165828
0.00261235
-0.00228472
-0.00898443
-0.0170639
-0.0188358
-0.024961
-0.0406171
-0.0497893
-0.0465735
-0.0303894
-0.00610153
0.0205748
0.0342908
0.0299035
0.0211363
0.0151209
0.0063242
-0.00900595
-0.0234534
-0.025078
-0.00780604
0.0103538
0.0182365
0.0163941
0.00764333
-0.00621149
-0.0169931
-0.0157239
-0.00497483
0.00418237
0.00728844
0.00538621
0.00143304
-0.00215243
-0.00392478
-0.00372786
-0.0024222
-0.000808208
0.000642566
0.00176338
0.00254614
0.00304668
0.00333083
0.00345182
0.00344804
0.00334843
0.00317677
0.00295297
0.002693
0.00240872
0.00210844
0.00179762
0.00147965
0.00115666
0.000829798
0.000499819
0.000167056
-0.122824
-0.12017
-0.11819
-0.118522
-0.114621
-0.110906
-0.109364
-0.102463
-0.0935215
-0.0892693
-0.0831163
-0.0764974
-0.0818712
-0.0956207
-0.112101
-0.135365
-0.140692
-0.139672
-0.134179
-0.118322
-0.106709
-0.10538
-0.0960692
-0.0708294
-0.0566854
-0.0581687
-0.0607536
-0.0857309
-0.135639
-0.138931
-0.0642912
0.00199743
-0.00392493
-0.0195185
-0.0696385
-0.121558
-0.139131
-0.10093
-0.0264298
0.0342954
0.0577835
0.0409004
0.0168898
0.00261589
-0.00249637
-0.00913757
-0.0170295
-0.018851
-0.0252017
-0.0406056
-0.0496021
-0.0463033
-0.0300554
-0.00585756
0.0209206
0.0342561
0.029778
0.0211154
0.0150422
0.00616454
-0.00907119
-0.0233165
-0.0248031
-0.00763911
0.010442
0.018196
0.0162936
0.00752759
-0.00623804
-0.0168952
-0.0155703
-0.0048923
0.00418161
0.00725606
0.00534612
0.00141109
-0.0021532
-0.00391393
-0.00371717
-0.0024125
-0.00080238
0.000645976
0.00176536
0.00254725
0.00304726
0.00333109
0.00345188
0.00344798
0.00334832
0.00317665
0.00295288
0.00269294
0.00240868
0.00210842
0.0017976
0.00147964
0.00115665
0.000829795
0.000499817
0.000167056
-0.120843
-0.121125
-0.119514
-0.119053
-0.11703
-0.115384
-0.11498
-0.112332
-0.115198
-0.116919
-0.126982
-0.134996
-0.142012
-0.137494
-0.124927
-0.126164
-0.110893
-0.0888738
-0.102252
-0.150817
-0.205963
-0.217677
-0.174579
-0.068422
0.0477673
0.0789104
0.0549949
0.0187191
-0.013568
-0.0279968
-0.0278046
-0.0457211
-0.0927244
-0.0916345
-0.0592443
-0.0342859
-0.028207
-0.0310175
-0.0280629
-0.0235213
-0.0261785
-0.0382156
-0.0611985
-0.0847247
-0.0932152
-0.0762928
-0.036464
0.00239314
0.0267309
0.0356632
0.0295958
0.0150607
0.00704262
0.0157671
0.0183036
0.000624687
-0.0318781
-0.0431063
-0.0227449
0.0102738
0.0268925
0.0258816
0.0194128
0.0125752
0.00171951
-0.0113325
-0.0143648
-0.00222089
0.0083676
0.0104543
0.0056246
-0.00111702
-0.00648273
-0.00925548
-0.00934119
-0.00731836
-0.00435959
-0.00163522
0.000246377
0.00125249
0.00170076
0.0019452
0.00220727
0.00254344
0.00290047
0.00319691
0.00337679
0.00342435
0.00335412
0.00319371
0.00297093
0.00270781
0.00241959
0.00211588
0.00180249
0.00148275
0.00115853
0.000830899
0.00050037
0.000167232
-0.120868
-0.121139
-0.119507
-0.11907
-0.117086
-0.115393
-0.115
-0.112274
-0.115138
-0.116805
-0.126953
-0.135074
-0.142198
-0.137786
-0.124907
-0.126398
-0.111522
-0.0898374
-0.101719
-0.153049
-0.209724
-0.220968
-0.177163
-0.0716765
0.0451905
0.0771788
0.0532185
0.0178006
-0.0142626
-0.0280742
-0.0271518
-0.0455319
-0.0933694
-0.0930497
-0.0594424
-0.0340236
-0.0280544
-0.0310847
-0.0283522
-0.0236367
-0.0260823
-0.0378496
-0.0611977
-0.0850594
-0.0938551
-0.0770599
-0.0370021
0.00204732
0.0263428
0.0354816
0.0296918
0.0150532
0.00693341
0.0157229
0.0185444
0.000934189
-0.0321377
-0.0436468
-0.02331
0.0100375
0.026864
0.0259217
0.0194491
0.0126801
0.00180323
-0.0114011
-0.0145037
-0.00236697
0.00838625
0.0105162
0.0056851
-0.00109305
-0.006488
-0.00927477
-0.00936376
-0.00734158
-0.00437465
-0.0016405
0.000246264
0.00125381
0.00170115
0.00194401
0.00220514
0.00254136
0.00289902
0.00319619
0.00337659
0.00342443
0.00335429
0.00319387
0.00297105
0.00270789
0.00241964
0.00211591
0.00180251
0.00148276
0.00115854
0.000830901
0.000500372
0.000167233
-0.120903
-0.121174
-0.119523
-0.119113
-0.117158
-0.115371
-0.115017
-0.112122
-0.115008
-0.116511
-0.126938
-0.13537
-0.142845
-0.138336
-0.124748
-0.127282
-0.112978
-0.09067
-0.100854
-0.159786
-0.217276
-0.22697
-0.181159
-0.0773981
0.0402046
0.073952
0.0498049
0.0150243
-0.0164447
-0.0297639
-0.0277873
-0.0462251
-0.095028
-0.0946609
-0.0596001
-0.0334944
-0.0277121
-0.03115
-0.0287683
-0.0236405
-0.0259116
-0.037959
-0.0618123
-0.0860557
-0.0951274
-0.0783413
-0.0378993
0.00147474
0.0255495
0.0348592
0.0294257
0.0148122
0.00677889
0.0157541
0.0188286
0.000676193
-0.0329176
-0.0447516
-0.024155
0.00932223
0.0267033
0.0258776
0.0193659
0.0126748
0.00176796
-0.0116015
-0.0147624
-0.00254591
0.00846182
0.0106236
0.00572432
-0.0011151
-0.00653693
-0.00932659
-0.00941423
-0.00737035
-0.00438508
-0.00163757
0.000253134
0.00125901
0.00170268
0.00194272
0.00220304
0.00253994
0.00289882
0.00319697
0.00337783
0.00342566
0.00335529
0.00319458
0.00297151
0.00270817
0.0024198
0.002116
0.00180256
0.00148279
0.00115855
0.000830909
0.000500376
0.000167235
-0.120952
-0.121233
-0.11955
-0.119185
-0.117261
-0.115323
-0.11503
-0.111873
-0.114796
-0.116011
-0.126877
-0.135834
-0.143949
-0.139188
-0.124407
-0.128847
-0.115672
-0.0903365
-0.0980114
-0.170009
-0.226422
-0.23369
-0.185551
-0.0840682
0.0333089
0.0695012
0.0450705
0.0106767
-0.0200011
-0.0333453
-0.0299164
-0.0479705
-0.0972973
-0.0964606
-0.0598591
-0.0328051
-0.0272075
-0.0312133
-0.0292517
-0.0234611
-0.0255168
-0.0383109
-0.0628794
-0.0874259
-0.09679
-0.0801134