/*--------------------------------*- C++ -*----------------------------------*\
| =========                 |                                                 |
| \\      /  F ield         | OpenFOAM: The Open Source CFD Toolbox           |
|  \\    /   O peration     | Version:  2.4.0                                 |
|   \\  /    A nd           | Web:      www.OpenFOAM.org                      |
|    \\/     M anipulation  |                                                 |
\*---------------------------------------------------------------------------*/
FoamFile
{
    version     2.0;
    format      ascii;
    class       volSymmTensorField;
    location    "0.61";
    object      UPrime2Mean;
}
// * * * * * * * * * * * * * * * * * * * * * * * * * * * * * * * * * * * * * //

dimensions      [0 2 -2 0 0 0 0];

internalField   nonuniform List<symmTensor> 
8800
(
(0.00273116 0.000171343 0 0.000311865 0 0)
(0.0524654 -0.00205956 0 0.00011285 0 0)
(0.102668 -0.000178169 0 2.44871e-05 0 0)
(0.128046 0.000317841 0 7.79722e-06 0 0)
(0.146319 0.000264334 0 3.2334e-06 0 0)
(0.16109 0.000183756 0 3.01417e-06 0 0)
(0.16987 0.000142859 0 3.54902e-06 0 0)
(0.178141 6.12708e-05 0 4.07508e-06 0 0)
(0.182465 4.90091e-05 0 4.76826e-06 0 0)
(0.188314 -9.50495e-06 0 5.26422e-06 0 0)
(0.190453 1.091e-05 0 5.76356e-06 0 0)
(0.195866 -6.36501e-05 0 6.52579e-06 0 0)
(0.196937 -3.30718e-05 0 6.84866e-06 0 0)
(0.204086 -0.000134048 0 7.55035e-06 0 0)
(0.205544 -0.000196649 0 8.37089e-06 0 0)
(0.217146 -0.000128231 0 9.58418e-06 0 0)
(0.229301 -0.00151203 0 2.64296e-05 0 0)
(0.239243 0.00304177 0 0.000120659 0 0)
(0.373585 -0.0278768 0 0.00282688 0 0)
(0.388981 0.0439542 0 0.00868549 0 0)
(0.0144524 0.00471501 0 0.00185707 0 0)
(0.0013814 -0.00168638 0 0.00244413 0 0)
(0.012986 -0.00339543 0 0.000984769 0 0)
(0.0269081 -0.00302428 0 0.000364345 0 0)
(0.0418135 -0.00267043 0 0.00018882 0 0)
(0.063964 -0.0025069 0 0.000142624 0 0)
(0.0818092 -0.00205452 0 0.000115928 0 0)
(0.104095 -0.00171451 0 8.61065e-05 0 0)
(0.117526 -0.00136659 0 6.82593e-05 0 0)
(0.136098 -0.00132 0 6.01042e-05 0 0)
(0.143561 -0.00107436 0 5.18449e-05 0 0)
(0.163031 -0.00136164 0 5.93093e-05 0 0)
(0.163399 -0.00114244 0 5.96281e-05 0 0)
(0.190233 -0.00195445 0 8.54227e-05 0 0)
(0.183006 -0.00125972 0 8.05104e-05 0 0)
(0.225468 -0.00477746 0 0.000196359 0 0)
(0.220059 -0.000223571 0 0.00016508 0 0)
(0.286481 -0.0178135 0 0.00135923 0 0)
(0.350038 -0.00773826 0 0.000870896 0 0)
(0.494979 -0.0982974 0 0.0315176 0 0)
(0.0148362 0.00338729 0 0.00103185 0 0)
(0.0020646 0.00135697 0 0.00263728 0 0)
(0.00387381 0.0005702 0 0.00162121 0 0)
(0.00654852 1.57971e-05 0 0.000865821 0 0)
(0.00723412 -0.000467245 0 0.000648718 0 0)
(0.0114951 -0.00151194 0 0.000617889 0 0)
(0.0158294 -0.00205876 0 0.000557024 0 0)
(0.0261852 -0.00234453 0 0.00043261 0 0)
(0.035578 -0.00255259 0 0.00035156 0 0)
(0.0479116 -0.00259245 0 0.000260265 0 0)
(0.0574887 -0.00262904 0 0.000205962 0 0)
(0.0725115 -0.00281632 0 0.00021739 0 0)
(0.0787806 -0.00309175 0 0.000222543 0 0)
(0.0962693 -0.00346731 0 0.000308646 0 0)
(0.104077 -0.00410662 0 0.000378286 0 0)
(0.120329 -0.00531782 0 0.000550517 0 0)
(0.145098 -0.00739964 0 0.000865689 0 0)
(0.160661 -0.011282 0 0.00144874 0 0)
(0.22609 -0.0274851 0 0.00580759 0 0)
(0.285205 -0.0664166 0 0.0338871 0 0)
(0.0159851 0.0021607 0 0.000535141 0 0)
(0.0055653 0.000471671 0 0.00179552 0 0)
(0.0123807 0.000953685 0 0.00144187 0 0)
(0.0215752 0.000941569 0 0.000829947 0 0)
(0.028747 0.00125396 0 0.000713592 0 0)
(0.0328362 0.000692095 0 0.00083605 0 0)
(0.0379034 0.000381646 0 0.000894915 0 0)
(0.0370233 9.40613e-06 0 0.0008326 0 0)
(0.0460868 -0.00114086 0 0.000763505 0 0)
(0.0412801 -0.00143706 0 0.000614253 0 0)
(0.0561124 -0.00235833 0 0.000492931 0 0)
(0.0476014 -0.00280558 0 0.000573025 0 0)
(0.0678166 -0.00356403 0 0.000495231 0 0)
(0.0548251 -0.00399315 0 0.000750089 0 0)
(0.082822 -0.00476311 0 0.000740909 0 0)
(0.0637851 -0.00525178 0 0.00119369 0 0)
(0.104938 -0.00711498 0 0.00128976 0 0)
(0.0794118 -0.00848209 0 0.0031922 0 0)
(0.146909 -0.0171442 0 0.00724231 0 0)
(0.119906 -0.0311957 0 0.0314938 0 0)
(0.0228816 0.00158133 0 0.000358668 0 0)
(0.0216997 -0.000641119 0 0.00124613 0 0)
(0.0296414 -1.27376e-05 0 0.00112612 0 0)
(0.0486825 -0.000171799 0 0.000680887 0 0)
(0.0561214 -0.000143748 0 0.000605123 0 0)
(0.0671064 -0.000598797 0 0.000751384 0 0)
(0.0773897 -0.000643268 0 0.000907324 0 0)
(0.0793265 9.96595e-06 0 0.000879335 0 0)
(0.0968059 -0.00164929 0 0.000934186 0 0)
(0.0886525 -0.00102328 0 0.000855753 0 0)
(0.113522 -0.00299945 0 0.000709137 0 0)
(0.0960269 -0.00229011 0 0.000862016 0 0)
(0.128556 -0.00444628 0 0.000747022 0 0)
(0.102987 -0.00276847 0 0.00110444 0 0)
(0.141578 -0.00563759 0 0.00105595 0 0)
(0.10755 -0.00273458 0 0.00174808 0 0)
(0.152342 -0.00641211 0 0.00184007 0 0)
(0.109136 -0.00169138 0 0.00504832 0 0)
(0.16532 -0.00502654 0 0.00847253 0 0)
(0.112966 0.000816572 0 0.0427808 0 0)
(0.0341925 0.00158011 0 0.000324763 0 0)
(0.0453475 -0.000276674 0 0.000948741 0 0)
(0.0428034 -0.000402712 0 0.00100937 0 0)
(0.0595146 -0.00164676 0 0.000854302 0 0)
(0.0677387 -0.00214428 0 0.000903374 0 0)
(0.0655755 -0.00262156 0 0.000945531 0 0)
(0.0828338 -0.00279619 0 0.00118506 0 0)
(0.0746699 -0.00192496 0 0.00109026 0 0)
(0.0959441 -0.00372179 0 0.00127064 0 0)
(0.0839264 -0.00287665 0 0.00111787 0 0)
(0.106947 -0.00490831 0 0.00116373 0 0)
(0.0946029 -0.00357867 0 0.00114595 0 0)
(0.118344 -0.0057191 0 0.00124755 0 0)
(0.106929 -0.00365896 0 0.00132591 0 0)
(0.127314 -0.00585306 0 0.00159415 0 0)
(0.118813 -0.00287418 0 0.00184798 0 0)
(0.132472 -0.00360799 0 0.00275357 0 0)
(0.128595 0.00146776 0 0.00494301 0 0)
(0.134403 0.00672203 0 0.0119598 0 0)
(0.139283 0.0188252 0 0.0341576 0 0)
(0.070936 -0.00153463 0 0.000528062 0 0)
(0.0842196 -0.00495708 0 0.00149587 0 0)
(0.078599 -0.00388169 0 0.00144588 0 0)
(0.0872356 -0.00613615 0 0.00182935 0 0)
(0.104978 -0.00580654 0 0.00188156 0 0)
(0.0947054 -0.00496425 0 0.001944 0 0)
(0.116439 -0.00588785 0 0.00196048 0 0)
(0.104814 -0.00453195 0 0.00208506 0 0)
(0.125191 -0.00585555 0 0.00195837 0 0)
(0.117928 -0.00504116 0 0.00221866 0 0)
(0.132651 -0.00592721 0 0.00195787 0 0)
(0.132002 -0.00453399 0 0.00225888 0 0)
(0.14293 -0.00549375 0 0.00205605 0 0)
(0.145675 -0.0035303 0 0.00243601 0 0)
(0.154485 -0.00369048 0 0.00242221 0 0)
(0.159147 -0.00105058 0 0.00307355 0 0)
(0.16652 0.00137771 0 0.00369381 0 0)
(0.171632 0.0063769 0 0.00681616 0 0)
(0.177984 0.0161318 0 0.0124634 0 0)
(0.191374 0.0291535 0 0.0331754 0 0)
(0.202809 -0.007659 0 0.00112156 0 0)
(0.227677 -0.0153337 0 0.00348219 0 0)
(0.176622 -0.00818247 0 0.00267323 0 0)
(0.221461 -0.0117452 0 0.00300466 0 0)
(0.216475 -0.0095488 0 0.0031143 0 0)
(0.221797 -0.00794737 0 0.00337425 0 0)
(0.239731 -0.00854472 0 0.00271157 0 0)
(0.227748 -0.00770727 0 0.00342454 0 0)
(0.252492 -0.00686508 0 0.00261572 0 0)
(0.238326 -0.00749422 0 0.00344337 0 0)
(0.266809 -0.00543639 0 0.00257988 0 0)
(0.249949 -0.00582027 0 0.00334062 0 0)
(0.28649 -0.0036045 0 0.0025156 0 0)
(0.261556 -0.00354312 0 0.00336393 0 0)
(0.307122 -2.13e-05 0 0.0026293 0 0)
(0.273357 0.000566606 0 0.00384182 0 0)
(0.326831 0.00673572 0 0.00365606 0 0)
(0.287065 0.0105881 0 0.00743533 0 0)
(0.349138 0.0233692 0 0.0112731 0 0)
(0.313567 0.0361137 0 0.0305469 0 0)
(0.228861 -0.00929407 0 0.00165943 0 0)
(0.253695 -0.0176186 0 0.00476646 0 0)
(0.22775 -0.00458238 0 0.00270239 0 0)
(0.242131 -0.00735344 0 0.00315072 0 0)
(0.265358 -0.0049821 0 0.00316053 0 0)
(0.233154 -0.00274526 0 0.00361367 0 0)
(0.303335 -0.00375401 0 0.00245648 0 0)
(0.230345 -0.00255268 0 0.00366655 0 0)
(0.321998 -0.00125399 0 0.00223529 0 0)
(0.235984 -0.00176116 0 0.00340508 0 0)
(0.337266 0.000785503 0 0.00218826 0 0)
(0.246638 0.000250241 0 0.00313142 0 0)
(0.354065 0.00303228 0 0.00209039 0 0)
(0.25909 0.00293722 0 0.0029867 0 0)
(0.368787 0.00645105 0 0.00214049 0 0)
(0.274047 0.00747874 0 0.00335121 0 0)
(0.378104 0.0125677 0 0.00292682 0 0)
(0.294396 0.0181007 0 0.00618981 0 0)
(0.387807 0.0276709 0 0.00923724 0 0)
(0.333793 0.043512 0 0.0240386 0 0)
(0.120944 -0.00428246 0 0.00176415 0 0)
(0.127997 -0.00695523 0 0.00418646 0 0)
(0.151176 -0.000597616 0 0.00236905 0 0)
(0.128778 -0.00131597 0 0.00225773 0 0)
(0.163741 -0.000200441 0 0.00247935 0 0)
(0.131429 0.00134648 0 0.00262273 0 0)
(0.172239 0.00032713 0 0.00193944 0 0)
(0.132195 0.00204874 0 0.00253044 0 0)
(0.173571 0.00179476 0 0.00173126 0 0)
(0.137034 0.00268681 0 0.00222446 0 0)
(0.175652 0.00306047 0 0.00168218 0 0)
(0.146114 0.00395664 0 0.00202157 0 0)
(0.179739 0.00442299 0 0.00158176 0 0)
(0.157073 0.00587493 0 0.0018688 0 0)
(0.182145 0.00628073 0 0.00155591 0 0)
(0.171761 0.00943784 0 0.002049 0 0)
(0.182416 0.0100594 0 0.0021699 0 0)
(0.192094 0.0178781 0 0.00417893 0 0)
(0.184955 0.0216587 0 0.00754445 0 0)
(0.232352 0.0389872 0 0.0180849 0 0)
(0.0366505 -0.0020638 0 0.00164283 0 0)
(0.0296192 -0.00237672 0 0.00294655 0 0)
(0.0363107 -0.000702219 0 0.00186703 0 0)
(0.0308161 -0.000428258 0 0.00167734 0 0)
(0.0413161 0.00031954 0 0.00210768 0 0)
(0.0378683 0.000484053 0 0.00182988 0 0)
(0.0439847 0.000355111 0 0.00162707 0 0)
(0.0420679 0.00121154 0 0.00183713 0 0)
(0.0432801 0.000817009 0 0.00145028 0 0)
(0.0471229 0.00162866 0 0.00157349 0 0)
(0.044925 0.00141799 0 0.00142869 0 0)
(0.0536142 0.00212148 0 0.00149916 0 0)
(0.0484944 0.00189858 0 0.00134406 0 0)
(0.0606995 0.00299552 0 0.00137873 0 0)
(0.0528013 0.00289542 0 0.00129251 0 0)
(0.0694522 0.0049892 0 0.00155062 0 0)
(0.0590857 0.00592512 0 0.00172832 0 0)
(0.0829155 0.0110897 0 0.00328772 0 0)
(0.0731702 0.0164778 0 0.00598634 0 0)
(0.111777 0.0292245 0 0.0143796 0 0)
(0.0156484 -0.00110068 0 0.00152574 0 0)
(0.00387331 -0.00124038 0 0.00236362 0 0)
(0.00445794 -0.00093826 0 0.00165159 0 0)
(0.00584535 -0.000572607 0 0.00138554 0 0)
(0.00949245 -0.000840308 0 0.00182297 0 0)
(0.0125334 -0.000804718 0 0.00143707 0 0)
(0.0141022 -0.000819878 0 0.00148319 0 0)
(0.0166451 -0.00089061 0 0.00155736 0 0)
(0.0178021 -0.000785605 0 0.00135108 0 0)
(0.0212841 -0.000541085 0 0.00132615 0 0)
(0.0230634 -0.00061152 0 0.00128366 0 0)
(0.0273141 -0.000262688 0 0.00121002 0 0)
(0.0296 -0.000340644 0 0.00114902 0 0)
(0.0343501 0.000158235 0 0.00106834 0 0)
(0.0371163 0.000401018 0 0.00104921 0 0)
(0.0428468 0.00174557 0 0.00110789 0 0)
(0.0473585 0.00334751 0 0.0013435 0 0)
(0.0565234 0.00734512 0 0.00234795 0 0)
(0.0667075 0.013397 0 0.0047156 0 0)
(0.0857816 0.0246247 0 0.0106741 0 0)
(0.0143526 -0.00130875 0 0.00116288 0 0)
(0.00282313 -0.00169352 0 0.00179315 0 0)
(0.00264581 -0.00129715 0 0.00133021 0 0)
(0.00389814 -0.00105162 0 0.00109126 0 0)
(0.00843867 -0.00155254 0 0.00140783 0 0)
(0.0111988 -0.00149348 0 0.00107358 0 0)
(0.0134211 -0.00151434 0 0.00120177 0 0)
(0.0158145 -0.00181868 0 0.00121131 0 0)
(0.0175102 -0.00148035 0 0.00107586 0 0)
(0.0205668 -0.00137715 0 0.000988339 0 0)
(0.0230244 -0.00122476 0 0.000961475 0 0)
(0.026628 -0.00106636 0 0.000870848 0 0)
(0.0298762 -0.000906016 0 0.000813259 0 0)
(0.0341059 -0.000727659 0 0.000736241 0 0)
(0.0380793 -0.000271328 0 0.000716236 0 0)
(0.0434277 0.000657099 0 0.000736205 0 0)
(0.0493827 0.00234983 0 0.000935359 0 0)
(0.0587888 0.0056579 0 0.00163976 0 0)
(0.0714669 0.0112792 0 0.00352668 0 0)
(0.0910435 0.0213221 0 0.00793007 0 0)
(0.0141418 -0.00124001 0 0.000853301 0 0)
(0.0018458 -0.0012646 0 0.00153856 0 0)
(0.00216112 -0.00128212 0 0.00127118 0 0)
(0.00422342 -0.0011266 0 0.000947555 0 0)
(0.00858469 -0.00144948 0 0.00114926 0 0)
(0.0117504 -0.00167308 0 0.000924296 0 0)
(0.014568 -0.00164284 0 0.00107005 0 0)
(0.0163569 -0.0021133 0 0.00109695 0 0)
(0.019497 -0.0018579 0 0.00100346 0 0)
(0.0217196 -0.00179903 0 0.00091546 0 0)
(0.0253591 -0.00160473 0 0.000855277 0 0)
(0.0284533 -0.00167955 0 0.000788761 0 0)
(0.0325511 -0.00134658 0 0.000705394 0 0)
(0.0364549 -0.00156416 0 0.000669089 0 0)
(0.0414411 -0.000876105 0 0.000608907 0 0)
(0.0467242 -0.000501269 0 0.000630267 0 0)
(0.0538793 0.00137683 0 0.000716315 0 0)
(0.0637033 0.0036874 0 0.00120907 0 0)
(0.0782454 0.00895664 0 0.00249126 0 0)
(0.0988554 0.0172608 0 0.00574957 0 0)
(0.0147355 -0.00137374 0 0.000621157 0 0)
(0.00153104 -0.000794334 0 0.00138204 0 0)
(0.00215203 -0.00121973 0 0.00123725 0 0)
(0.00474446 -0.00118942 0 0.000861293 0 0)
(0.0105085 -0.00160637 0 0.00096596 0 0)
(0.0125374 -0.00189587 0 0.000869051 0 0)
(0.0172326 -0.00210424 0 0.0010378 0 0)
(0.0176387 -0.00243427 0 0.00110071 0 0)
(0.0229191 -0.00235058 0 0.00101678 0 0)
(0.0232142 -0.00213174 0 0.000937994 0 0)
(0.0292088 -0.00201344 0 0.000807669 0 0)
(0.0296554 -0.0020369 0 0.00078027 0 0)
(0.0360477 -0.0017104 0 0.000627303 0 0)
(0.0366672 -0.00202568 0 0.000637657 0 0)
(0.0436099 -0.00119907 0 0.000515659 0 0)
(0.0451773 -0.0012282 0 0.000548575 0 0)
(0.053732 0.000749052 0 0.000538191 0 0)
(0.0593019 0.00195194 0 0.000825607 0 0)
(0.0739685 0.00671386 0 0.00168048 0 0)
(0.0900669 0.0121676 0 0.0036463 0 0)
(0.0149604 -0.00172124 0 0.000529669 0 0)
(0.00172127 -0.000573785 0 0.00144414 0 0)
(0.0026798 -0.00129468 0 0.0013145 0 0)
(0.00605217 -0.00129102 0 0.000797881 0 0)
(0.0130158 -0.00184198 0 0.000846135 0 0)
(0.0136397 -0.00208724 0 0.000851737 0 0)
(0.019684 -0.00251847 0 0.00100557 0 0)
(0.0174345 -0.00234264 0 0.00103592 0 0)
(0.0230304 -0.00245484 0 0.000952524 0 0)
(0.0195368 -0.00179228 0 0.000830349 0 0)
(0.0250768 -0.00191626 0 0.000678115 0 0)
(0.0206465 -0.0014957 0 0.000652997 0 0)
(0.0258658 -0.00146615 0 0.000486525 0 0)
(0.0209579 -0.00127121 0 0.00053015 0 0)
(0.0258539 -0.000872191 0 0.000375393 0 0)
(0.0216467 -0.000659992 0 0.000452674 0 0)
(0.0270844 0.000540174 0 0.000364801 0 0)
(0.0260102 0.00121427 0 0.000584125 0 0)
(0.0353544 0.00420186 0 0.00107458 0 0)
(0.0433169 0.00683669 0 0.00216802 0 0)
(0.0140834 -0.00226679 0 0.000594437 0 0)
(0.00171103 -0.000957502 0 0.00183009 0 0)
(0.0031951 -0.00157704 0 0.00149176 0 0)
(0.00692203 -0.00159227 0 0.000850663 0 0)
(0.01124 -0.00195668 0 0.00080898 0 0)
(0.00961091 -0.00176415 0 0.000859795 0 0)
(0.0108891 -0.00170605 0 0.000926883 0 0)
(0.0071021 -0.000865364 0 0.00086731 0 0)
(0.00748672 -0.000734606 0 0.000724753 0 0)
(0.00518782 0.000141364 0 0.000564236 0 0)
(0.0051273 -1.23808e-05 0 0.000420918 0 0)
(0.00525286 0.000645443 0 0.000391683 0 0)
(0.00450513 0.000356133 0 0.000275465 0 0)
(0.00730117 0.000966926 0 0.000305943 0 0)
(0.00606352 0.000489077 0 0.000200615 0 0)
(0.0108371 0.00117524 0 0.000263329 0 0)
(0.00981064 0.000554256 0 0.000223345 0 0)
(0.0156271 0.00154409 0 0.000333701 0 0)
(0.0172072 0.00147646 0 0.000741849 0 0)
(0.0249296 0.00343562 0 0.0010241 0 0)
(0.0143791 -0.00343658 0 0.00104863 0 0)
(0.00152015 -0.00152215 0 0.00261884 0 0)
(0.00141687 -0.000770108 0 0.00162908 0 0)
(0.00229869 -0.000226492 0 0.00085278 0 0)
(0.00183568 0.000268277 0 0.000666282 0 0)
(0.00304238 0.00113396 0 0.000605453 0 0)
(0.00617217 0.00158532 0 0.000541606 0 0)
(0.0144362 0.00207748 0 0.000432008 0 0)
(0.0198281 0.0018663 0 0.000312145 0 0)
(0.0329319 0.00203586 0 0.000215087 0 0)
(0.0359056 0.00162292 0 0.000144604 0 0)
(0.052146 0.00183378 0 0.000131337 0 0)
(0.051076 0.00134652 0 9.61977e-05 0 0)
(0.0698527 0.00169134 0 0.000104466 0 0)
(0.0651823 0.000846033 0 7.3781e-05 0 0)
(0.0839643 0.00141877 0 0.000100014 0 0)
(0.0770405 -0.000209703 0 0.000101278 0 0)
(0.0906835 0.0010947 0 0.000164816 0 0)
(0.0850223 -0.00128641 0 0.00034641 0 0)
(0.0881538 0.00226734 0 0.000680192 0 0)
(0.0143614 -0.00472281 0 0.00185987 0 0)
(0.00141967 0.00165405 0 0.00243584 0 0)
(0.0126026 0.00335975 0 0.000987407 0 0)
(0.0258602 0.00296012 0 0.000359165 0 0)
(0.0407257 0.00263365 0 0.000190226 0 0)
(0.0615366 0.00238812 0 0.000135266 0 0)
(0.0794466 0.00194697 0 0.00010602 0 0)
(0.100701 0.00162233 0 7.7937e-05 0 0)
(0.112918 0.00120748 0 5.54442e-05 0 0)
(0.131495 0.00109261 0 3.98855e-05 0 0)
(0.137087 0.000821178 0 3.04123e-05 0 0)
(0.154702 0.000887197 0 3.01616e-05 0 0)
(0.154925 0.00061606 0 2.70199e-05 0 0)
(0.172834 0.000765265 0 2.66282e-05 0 0)
(0.168557 0.00027282 0 2.32903e-05 0 0)
(0.184999 0.000458133 0 2.62798e-05 0 0)
(0.176549 -0.000575628 0 3.4254e-05 0 0)
(0.184966 0.000112273 0 4.93574e-05 0 0)
(0.177581 -0.00196122 0 0.000118711 0 0)
(0.165075 0.000971653 0 0.000413273 0 0)
(0.00272788 -0.000171372 0 0.000311904 0 0)
(0.0525083 0.00205673 0 0.000112375 0 0)
(0.102674 0.000178925 0 2.41243e-05 0 0)
(0.127915 -0.000326829 0 7.45029e-06 0 0)
(0.146291 -0.000262172 0 2.95197e-06 0 0)
(0.160828 -0.000201081 0 2.17655e-06 0 0)
(0.169725 -0.000146565 0 2.68611e-06 0 0)
(0.177811 -7.83256e-05 0 2.66548e-06 0 0)
(0.181993 -6.4563e-05 0 3.00636e-06 0 0)
(0.187742 -2.02615e-05 0 2.6998e-06 0 0)
(0.189462 -3.8893e-05 0 3.02085e-06 0 0)
(0.194267 -1.03269e-06 0 2.74677e-06 0 0)
(0.194414 -4.18779e-05 0 2.67787e-06 0 0)
(0.198855 -5.18984e-06 0 2.14294e-06 0 0)
(0.197316 -9.41616e-05 0 2.13222e-06 0 0)
(0.200425 -7.5701e-05 0 1.82345e-06 0 0)
(0.195907 -0.000244349 0 2.27979e-06 0 0)
(0.194654 -0.000201637 0 2.98087e-06 0 0)
(0.188786 -0.000696369 0 7.84125e-06 0 0)
(0.170957 0.000924825 0 6.30415e-05 0 0)
(0.765607 -0.390688 0 0.240715 0 0)
(0.866352 -0.464675 0 0.339504 0 0)
(0.871569 -0.446915 0 0.405874 0 0)
(0.881625 -0.392605 0 0.452578 0 0)
(0.907297 -0.328591 0 0.479744 0 0)
(0.997997 -0.284633 0 0.499261 0 0)
(1.11722 -0.272737 0 0.517968 0 0)
(1.30654 -0.295444 0 0.544548 0 0)
(1.48133 -0.337006 0 0.575934 0 0)
(1.67389 -0.381756 0 0.606906 0 0)
(1.80839 -0.422408 0 0.641163 0 0)
(1.96567 -0.460157 0 0.683271 0 0)
(2.0718 -0.485825 0 0.72841 0 0)
(2.21869 -0.517953 0 0.767801 0 0)
(2.33772 -0.549823 0 0.794 0 0)
(2.49208 -0.598357 0 0.812765 0 0)
(2.60507 -0.658633 0 0.83943 0 0)
(2.76391 -0.735827 0 0.879107 0 0)
(2.85407 -0.804134 0 0.938239 0 0)
(3.04374 -0.883253 0 1.01131 0 0)
(3.19266 -0.939002 0 1.07187 0 0)
(3.43473 -1.0221 0 1.13311 0 0)
(3.61938 -1.09845 0 1.19269 0 0)
(3.87533 -1.19141 0 1.25512 0 0)
(4.07526 -1.27615 0 1.31608 0 0)
(4.34532 -1.36961 0 1.38412 0 0)
(4.55965 -1.45802 0 1.45092 0 0)
(4.85404 -1.57176 0 1.52031 0 0)
(5.07911 -1.68011 0 1.59129 0 0)
(5.39055 -1.81527 0 1.67085 0 0)
(5.60854 -1.93082 0 1.75389 0 0)
(5.94953 -2.07099 0 1.83611 0 0)
(6.16308 -2.18736 0 1.91651 0 0)
(6.57025 -2.34381 0 1.99209 0 0)
(6.77934 -2.47445 0 2.06899 0 0)
(7.23864 -2.65634 0 2.13972 0 0)
(7.3988 -2.78769 0 2.20743 0 0)
(7.85104 -2.96984 0 2.26932 0 0)
(7.93078 -3.08513 0 2.32801 0 0)
(8.3373 -3.24348 0 2.38683 0 0)
(8.32459 -3.32162 0 2.44111 0 0)
(8.66267 -3.44215 0 2.49854 0 0)
(8.57039 -3.48048 0 2.54314 0 0)
(8.86876 -3.57496 0 2.59855 0 0)
(8.7321 -3.59319 0 2.64047 0 0)
(9.03499 -3.68264 0 2.69867 0 0)
(8.87908 -3.69047 0 2.74523 0 0)
(9.23761 -3.79231 0 2.81448 0 0)
(9.08896 -3.80174 0 2.87917 0 0)
(9.52928 -3.92556 0 2.97167 0 0)
(9.37094 -3.94006 0 3.06197 0 0)
(9.87466 -4.07044 0 3.17574 0 0)
(9.64062 -4.06036 0 3.27742 0 0)
(10.1685 -4.1641 0 3.38677 0 0)
(9.79627 -4.08721 0 3.46334 0 0)
(10.3104 -4.1428 0 3.54106 0 0)
(9.80058 -3.98808 0 3.56151 0 0)
(10.3006 -4.00824 0 3.60066 0 0)
(9.72812 -3.83038 0 3.5866 0 0)
(10.2555 -3.86074 0 3.61433 0 0)
(9.67598 -3.71959 0 3.61737 0 0)
(10.2642 -3.80267 0 3.67364 0 0)
(9.63493 -3.69416 0 3.73023 0 0)
(10.234 -3.81956 0 3.836 0 0)
(9.45154 -3.65273 0 3.91346 0 0)
(9.99289 -3.7448 0 4.01571 0 0)
(9.13228 -3.46793 0 4.01071 0 0)
(9.65415 -3.44814 0 4.00967 0 0)
(8.80048 -3.15689 0 3.96319 0 0)
(9.42702 -3.13902 0 4.00373 0 0)
(8.59991 -2.89103 0 4.04395 0 0)
(9.34524 -2.88343 0 4.09968 0 0)
(8.53473 -2.62927 0 4.13257 0 0)
(9.42325 -2.6815 0 4.18469 0 0)
(8.59733 -2.44315 0 4.28033 0 0)
(9.59889 -2.55875 0 4.41792 0 0)
(8.78647 -2.33265 0 4.59749 0 0)
(9.82641 -2.49381 0 4.82976 0 0)
(8.94459 -2.25579 0 5.06556 0 0)
(9.98379 -2.40411 0 5.35149 0 0)
(8.87527 -2.11171 0 5.56814 0 0)
(10.0081 -2.26433 0 5.79575 0 0)
(8.65498 -1.90968 0 5.93077 0 0)
(9.9405 -2.13261 0 6.08593 0 0)
(8.44659 -1.69187 0 6.12421 0 0)
(9.6062 -1.95405 0 6.25178 0 0)
(8.33708 -1.46794 0 6.26187 0 0)
(9.14242 -1.68567 0 6.4552 0 0)
(8.26579 -1.24035 0 6.5011 0 0)
(8.86594 -1.34944 0 6.71626 0 0)
(8.26072 -1.02117 0 6.76099 0 0)
(8.82075 -1.10111 0 6.90503 0 0)
(8.39234 -0.864846 0 6.94251 0 0)
(8.97338 -0.908471 0 7.0609 0 0)
(8.58841 -0.733472 0 7.12364 0 0)
(9.13468 -0.732144 0 7.25705 0 0)
(8.75291 -0.604111 0 7.37434 0 0)
(9.28314 -0.545072 0 7.55794 0 0)
(8.77882 -0.446962 0 7.74659 0 0)
(9.19759 -0.347684 0 7.98666 0 0)
(8.55864 -0.222562 0 8.25438 0 0)
(8.97463 -0.199327 0 8.53611 0 0)
(8.17018 -0.0624871 0 8.90167 0 0)
(8.72948 -0.139097 0 9.24337 0 0)
(7.81558 -0.0502697 0 9.45982 0 0)
(8.5587 -0.247593 0 9.74052 0 0)
(7.5639 -0.0862666 0 9.88417 0 0)
(8.38466 -0.361174 0 10.1215 0 0)
(7.34106 -0.126996 0 10.1746 0 0)
(8.14046 -0.422392 0 10.3691 0 0)
(7.13015 -0.167661 0 10.3079 0 0)
(7.8155 -0.483367 0 10.437 0 0)
(6.9655 -0.238971 0 10.3243 0 0)
(7.5224 -0.528549 0 10.4432 0 0)
(6.9084 -0.28223 0 10.3844 0 0)
(7.26492 -0.564752 0 10.5467 0 0)
(6.87834 -0.34307 0 10.5688 0 0)
(7.12042 -0.585696 0 10.7205 0 0)
(7.03378 -0.415614 0 10.7493 0 0)
(7.2757 -0.583594 0 10.8471 0 0)
(7.43347 -0.507521 0 10.9364 0 0)
(7.55628 -0.611422 0 11.0657 0 0)
(7.76902 -0.551001 0 11.2766 0 0)
(7.6727 -0.651649 0 11.3854 0 0)
(7.93723 -0.61069 0 11.5826 0 0)
(7.63885 -0.715639 0 11.6091 0 0)
(7.97349 -0.720448 0 11.8021 0 0)
(7.55257 -0.823504 0 11.8403 0 0)
(8.02448 -0.843736 0 12.0211 0 0)
(7.51902 -0.952263 0 11.9941 0 0)
(8.14444 -0.970412 0 12.192 0 0)
(7.55147 -1.02412 0 12.1543 0 0)
(8.26755 -1.03045 0 12.3002 0 0)
(7.61192 -1.03787 0 12.2952 0 0)
(8.33697 -1.06076 0 12.3834 0 0)
(7.62164 -0.995091 0 12.45 0 0)
(8.33426 -0.984702 0 12.5261 0 0)
(7.60283 -0.895136 0 12.7203 0 0)
(8.27449 -0.823904 0 12.8386 0 0)
(7.51766 -0.718241 0 13.0454 0 0)
(8.16985 -0.684119 0 13.1271 0 0)
(7.42053 -0.554396 0 13.2048 0 0)
(8.13139 -0.474431 0 13.2487 0 0)
(7.3391 -0.355555 0 13.3394 0 0)
(8.05689 -0.229398 0 13.5133 0 0)
(7.19212 -0.147879 0 13.5733 0 0)
(7.96861 -0.0156602 0 13.6428 0 0)
(7.11772 0.101987 0 13.7096 0 0)
(7.88812 0.223933 0 13.8089 0 0)
(6.97956 0.260651 0 13.8059 0 0)
(7.70687 0.475349 0 14.0066 0 0)
(6.83992 0.386797 0 13.9046 0 0)
(7.4633 0.694394 0 13.9812 0 0)
(6.75956 0.52679 0 13.8841 0 0)
(7.25382 0.884698 0 13.9948 0 0)
(6.74224 0.625293 0 13.7874 0 0)
(7.08704 0.991886 0 13.9003 0 0)
(6.78135 0.807385 0 13.745 0 0)
(6.95171 1.03988 0 13.7918 0 0)
(6.64815 0.904107 0 13.721 0 0)
(6.65497 1.08885 0 13.8887 0 0)
(6.39737 0.867825 0 13.837 0 0)
(6.34558 1.04598 0 13.9029 0 0)
(6.16806 0.833616 0 13.8012 0 0)
(6.09969 0.90647 0 13.7436 0 0)
(5.99781 0.764089 0 13.663 0 0)
(5.85527 0.694656 0 13.6319 0 0)
(5.86205 0.528171 0 13.465 0 0)
(5.58354 0.448061 0 13.3319 0 0)
(5.7337 0.241759 0 13.0492 0 0)
(5.3194 0.209353 0 12.7867 0 0)
(5.58596 -0.149646 0 12.3227 0 0)
(5.03082 -0.055365 0 11.8684 0 0)
(5.43401 -0.515132 0 11.5112 0 0)
(4.93859 -0.249076 0 10.9173 0 0)
(5.26985 -0.672259 0 10.7085 0 0)
(4.98921 -0.340965 0 10.0765 0 0)
(5.0944 -0.809496 0 9.80872 0 0)
(4.96144 -0.385075 0 9.37953 0 0)
(5.02002 -0.837928 0 8.9257 0 0)
(4.95719 -0.416375 0 8.76616 0 0)
(4.89239 -0.685435 0 8.12178 0 0)
(4.74784 -0.532302 0 8.14749 0 0)
(4.7324 -0.337642 0 7.40847 0 0)
(4.52687 -0.499541 0 7.75728 0 0)
(4.61572 0.0324338 0 6.84027 0 0)
(4.36501 -0.37883 0 7.59798 0 0)
(4.38858 0.288158 0 6.4571 0 0)
(4.03962 -0.334729 0 7.65645 0 0)
(4.08608 0.59865 0 6.39552 0 0)
(3.51936 -0.287418 0 8.01947 0 0)
(3.66186 0.975023 0 6.58587 0 0)
(2.98125 -0.221952 0 8.79048 0 0)
(3.02506 1.37096 0 7.14724 0 0)
(2.54445 0.0493657 0 10.2308 0 0)
(2.57984 2.18388 0 8.69571 0 0)
(2.11991 0.353474 0 12.5296 0 0)
(2.23596 3.42989 0 11.7786 0 0)
(2.16247 2.38599 0 18.1895 0 0)
(0.698436 0.894414 0 20.4236 0 0)
(0.643927 -0.322726 0 0.273297 0 0)
(0.647232 -0.342095 0 0.355859 0 0)
(0.620559 -0.31525 0 0.376198 0 0)
(0.601986 -0.280525 0 0.385236 0 0)
(0.597895 -0.249032 0 0.383965 0 0)
(0.624474 -0.239976 0 0.381628 0 0)
(0.670091 -0.256119 0 0.390339 0 0)
(0.745918 -0.289739 0 0.411946 0 0)
(0.818898 -0.325593 0 0.437598 0 0)
(0.898528 -0.359808 0 0.462717 0 0)
(0.951752 -0.388806 0 0.490899 0 0)
(1.0205 -0.419629 0 0.525473 0 0)
(1.06577 -0.445083 0 0.562302 0 0)
(1.15315 -0.476482 0 0.597968 0 0)
(1.21805 -0.506003 0 0.630213 0 0)
(1.3492 -0.552855 0 0.662137 0 0)
(1.44404 -0.605084 0 0.699355 0 0)
(1.62275 -0.684819 0 0.744269 0 0)
(1.72993 -0.751491 0 0.793855 0 0)
(1.92369 -0.84057 0 0.851466 0 0)
(2.02422 -0.899747 0 0.90777 0 0)
(2.23069 -0.984575 0 0.96718 0 0)
(2.33726 -1.04184 0 1.0259 0 0)
(2.56824 -1.13248 0 1.08906 0 0)
(2.68034 -1.19034 0 1.15317 0 0)
(2.94249 -1.2892 0 1.22641 0 0)
(3.07588 -1.35156 0 1.30239 0 0)
(3.37621 -1.46621 0 1.38473 0 0)
(3.54837 -1.54807 0 1.46706 0 0)
(3.87119 -1.68414 0 1.55551 0 0)
(4.07023 -1.786 0 1.64124 0 0)
(4.3896 -1.93085 0 1.72813 0 0)
(4.58587 -2.03937 0 1.8091 0 0)
(4.88916 -2.18121 0 1.88815 0 0)
(5.05358 -2.28801 0 1.96107 0 0)
(5.3381 -2.42331 0 2.03241 0 0)
(5.43006 -2.51354 0 2.09767 0 0)
(5.69176 -2.63242 0 2.15848 0 0)
(5.68329 -2.69263 0 2.21458 0 0)
(5.94226 -2.79931 0 2.26783 0 0)
(5.84274 -2.82132 0 2.31418 0 0)
(6.12537 -2.92156 0 2.36384 0 0)
(5.97146 -2.91352 0 2.40498 0 0)
(6.30532 -3.02301 0 2.45939 0 0)
(6.14041 -3.00495 0 2.50473 0 0)
(6.53013 -3.13543 0 2.57514 0 0)
(6.37307 -3.11921 0 2.6349 0 0)
(6.80027 -3.26577 0 2.72492 0 0)
(6.64262 -3.24899 0 2.80236 0 0)
(7.07178 -3.39156 0 2.90889 0 0)
(6.87794 -3.35791 0 2.99644 0 0)
(7.27951 -3.46941 0 3.10312 0 0)
(7.00411 -3.39153 0 3.18378 0 0)
(7.37591 -3.45604 0 3.26824 0 0)
(6.99762 -3.31353 0 3.3238 0 0)
(7.3769 -3.34518 0 3.37654 0 0)
(6.92885 -3.14814 0 3.40048 0 0)
(7.36511 -3.18839 0 3.44102 0 0)
(6.91149 -2.98481 0 3.46008 0 0)
(7.42442 -3.07932 0 3.52983 0 0)
(7.00088 -2.91365 0 3.57007 0 0)
(7.56209 -3.0519 0 3.66671 0 0)
(7.1341 -2.91385 0 3.71705 0 0)
(7.69298 -3.02905 0 3.80468 0 0)
(7.17236 -2.84866 0 3.83372 0 0)
(7.67646 -2.88673 0 3.86091 0 0)
(7.05471 -2.62599 0 3.83548 0 0)
(7.57356 -2.63725 0 3.83875 0 0)
(6.94081 -2.37369 0 3.84209 0 0)
(7.54448 -2.42864 0 3.91427 0 0)
(6.9447 -2.18875 0 3.95807 0 0)
(7.68125 -2.26141 0 4.06426 0 0)
(7.08739 -2.03533 0 4.11359 0 0)
(7.95189 -2.15283 0 4.22958 0 0)
(7.34926 -1.94448 0 4.33288 0 0)
(8.29834 -2.12357 0 4.51798 0 0)
(7.65317 -1.89952 0 4.70951 0 0)
(8.59819 -2.08531 0 4.96297 0 0)
(7.82441 -1.78098 0 5.17278 0 0)
(8.73145 -1.9525 0 5.44957 0 0)
(7.76196 -1.58416 0 5.62276 0 0)
(8.74745 -1.81366 0 5.85223 0 0)
(7.6907 -1.40475 0 5.96104 0 0)
(8.6656 -1.69816 0 6.11395 0 0)
(7.72996 -1.28287 0 6.11399 0 0)
(8.52812 -1.53789 0 6.27805 0 0)
(7.84337 -1.18633 0 6.28926 0 0)
(8.42145 -1.34126 0 6.49665 0 0)
(8.02348 -1.04995 0 6.54952 0 0)
(8.43976 -1.1127 0 6.76663 0 0)
(8.22642 -0.922084 0 6.80827 0 0)
(8.59818 -0.973369 0 6.9424 0 0)
(8.47868 -0.810918 0 6.99884 0 0)
(8.84048 -0.817743 0 7.13073 0 0)
(8.71834 -0.699164 0 7.20104 0 0)
(9.05925 -0.689196 0 7.33844 0 0)
(8.90347 -0.600094 0 7.47601 0 0)
(9.23423 -0.54152 0 7.67413 0 0)
(8.91196 -0.46657 0 7.87954 0 0)
(9.21283 -0.366957 0 8.14253 0 0)
(8.70667 -0.257336 0 8.42261 0 0)
(9.02514 -0.254127 0 8.76035 0 0)
(8.30611 -0.0897965 0 9.14062 0 0)
(8.81237 -0.216448 0 9.44928 0 0)
(7.90742 -0.0647205 0 9.6424 0 0)
(8.60225 -0.297193 0 9.87076 0 0)
(7.56446 -0.050666 0 9.98164 0 0)
(8.40165 -0.330776 0 10.1645 0 0)
(7.29428 -0.0120318 0 10.2048 0 0)
(8.24998 -0.295115 0 10.3567 0 0)
(7.11607 0.0217924 0 10.3089 0 0)
(8.17534 -0.255741 0 10.4347 0 0)
(7.09392 0.00436904 0 10.343 0 0)
(8.17405 -0.252328 0 10.5139 0 0)
(7.07271 -0.104188 0 10.4977 0 0)
(8.05849 -0.383299 0 10.6719 0 0)
(7.14443 -0.266399 0 10.6769 0 0)
(8.158 -0.526564 0 10.7828 0 0)
(7.49456 -0.384917 0 10.8323 0 0)
(8.53097 -0.63317 0 10.9274 0 0)
(7.94876 -0.523885 0 11.0798 0 0)
(8.86211 -0.680439 0 11.2114 0 0)
(8.22994 -0.579792 0 11.4668 0 0)
(9.02033 -0.6779 0 11.6186 0 0)
(8.30916 -0.572286 0 11.8856 0 0)
(8.98283 -0.708475 0 11.9433 0 0)
(8.2634 -0.625019 0 12.1731 0 0)
(8.8534 -0.808228 0 12.1519 0 0)
(8.22826 -0.769142 0 12.381 0 0)
(8.72986 -0.916819 0 12.3116 0 0)
(8.21676 -0.953149 0 12.5209 0 0)
(8.6289 -0.980772 0 12.4419 0 0)
(8.23545 -1.04784 0 12.5783 0 0)
(8.55725 -0.963253 0 12.5633 0 0)
(8.19976 -1.07421 0 12.6694 0 0)
(8.52343 -0.91107 0 12.6843 0 0)
(8.11505 -1.00308 0 12.723 0 0)
(8.5076 -0.814539 0 12.8717 0 0)
(8.02238 -0.823528 0 13.0087 0 0)
(8.43274 -0.660576 0 13.2106 0 0)
(7.89017 -0.592855 0 13.3256 0 0)
(8.35797 -0.518364 0 13.3573 0 0)
(7.78991 -0.413687 0 13.418 0 0)
(8.32141 -0.300273 0 13.5246 0 0)
(7.60893 -0.243826 0 13.7132 0 0)
(8.28464 -0.077452 0 13.7627 0 0)
(7.44586 -0.0884689 0 13.8261 0 0)
(8.2325 0.115436 0 13.9055 0 0)
(7.21703 0.151295 0 14.0436 0 0)
(7.99414 0.258862 0 14.0438 0 0)
(7.0552 0.43747 0 14.2024 0 0)
(7.78299 0.394405 0 14.0385 0 0)
(6.87161 0.64138 0 14.1651 0 0)
(7.68992 0.549196 0 14.076 0 0)
(6.74783 0.83823 0 14.1612 0 0)
(7.6685 0.587626 0 13.9076 0 0)
(6.64841 0.989719 0 14.0363 0 0)
(7.59827 0.714596 0 13.9049 0 0)
(6.44927 1.08063 0 13.9828 0 0)
(7.28403 0.830399 0 14.0389 0 0)
(6.13189 1.15631 0 14.1475 0 0)
(6.93421 0.868584 0 14.0544 0 0)
(5.85452 1.13192 0 14.1117 0 0)
(6.69955 0.949175 0 13.9054 0 0)
(5.55035 1.06401 0 14.037 0 0)
(6.42345 0.838563 0 13.8385 0 0)
(5.3563 0.952529 0 13.9706 0 0)
(6.16813 0.67066 0 13.7828 0 0)
(5.26798 0.90406 0 13.6719 0 0)
(5.91575 0.399276 0 13.4675 0 0)
(5.16629 0.770216 0 13.1329 0 0)
(5.60687 0.195451 0 12.8868 0 0)
(5.0986 0.500326 0 12.3063 0 0)
(5.20418 -0.168305 0 12.0381 0 0)
(5.19572 0.182734 0 11.3184 0 0)
(4.8384 -0.609798 0 11.007 0 0)
(5.36586 0.011658 0 10.5373 0 0)
(4.63172 -0.916192 0 10.1555 0 0)
(5.35198 -0.29151 0 9.79098 0 0)
(4.49977 -0.952909 0 9.33678 0 0)
(5.14554 -0.668079 0 9.13913 0 0)
(4.39779 -0.781748 0 8.48646 0 0)
(4.89017 -0.935757 0 8.63931 0 0)
(4.31686 -0.559814 0 7.56245 0 0)
(4.74231 -0.996994 0 8.30124 0 0)