/*--------------------------------*- C++ -*----------------------------------*\
| =========                 |                                                 |
| \\      /  F ield         | OpenFOAM: The Open Source CFD Toolbox           |
|  \\    /   O peration     | Version:  2.4.0                                 |
|   \\  /    A nd           | Web:      www.OpenFOAM.org                      |
|    \\/     M anipulation  |                                                 |
\*---------------------------------------------------------------------------*/
FoamFile
{
    version     2.0;
    format      ascii;
    class       surfaceScalarField;
    location    "6";
    object      phi;
}
// * * * * * * * * * * * * * * * * * * * * * * * * * * * * * * * * * * * * * //

dimensions      [0 3 -1 0 0 0 0];

internalField   nonuniform List<scalar> 
8640
(
0.000490381
-2.88091e-06
0.000491909
-1.52812e-06
0.000504995
-1.30858e-05
0.000499244
5.75077e-06
0.000506842
-7.59846e-06
0.000499786
7.05622e-06
0.00050822
-8.43343e-06
0.000519295
-1.10757e-05
0.000555578
-3.62825e-05
0.000596914
-4.13363e-05
0.000665792
-6.88779e-05
0.000730869
-6.50766e-05
0.000812722
-8.18533e-05
0.000890562
-7.78398e-05
0.000946307
-5.5745e-05
0.00102808
-8.1769e-05
0.00102711
9.67529e-07
0.00109037
-6.32619e-05
0.00100836
8.20121e-05
-8.47723e-05
0.00109313
0.00138846
-3.84455e-06
0.00137896
7.97778e-06
0.00139028
-2.44083e-05
0.001384
1.20334e-05
0.00140132
-2.49198e-05
0.00138571
2.26622e-05
0.0014133
-3.60252e-05
0.00142296
-2.07311e-05
0.00149041
-0.000103729
0.00156685
-0.000117775
0.00166643
-0.000168464
0.00181501
-0.000213659
0.00196652
-0.000233356
0.00206838
-0.0001797
0.00235777
-0.000345141
0.00222458
5.14251e-05
0.00252925
-0.000303707
0.00247016
-4.16844e-06
0.00234304
0.000209132
-0.000451873
0.00271014
0.0021913
-7.64318e-06
0.00218125
1.80224e-05
0.00218534
-2.84917e-05
0.00217633
2.10426e-05
0.00220061
-4.91975e-05
0.0021826
4.0673e-05
0.00220273
-5.61588e-05
0.00219359
-1.15932e-05
0.00222283
-0.000132969
0.00225613
-0.00015107
0.00231226
-0.000224596
0.00240218
-0.000303584
0.00254609
-0.000377266
0.00259885
-0.000232459
0.00294211
-0.0006884
0.00275077
0.000242762
0.00317137
-0.000724302
0.00318139
-1.41916e-05
0.00280625
0.000584273
-0.00145716
0.00381154
0.00288957
-9.71799e-06
0.00288502
2.25766e-05
0.00288785
-3.13256e-05
0.00287782
3.1074e-05
0.00289587
-6.72393e-05
0.00288352
5.30219e-05
0.00289355
-6.61927e-05
0.00289332
-1.13585e-05
0.00289504
-0.000134695
0.00290101
-0.000157039
0.00290722
-0.000230808
0.00292034
-0.000316704
0.00299206
-0.000448986
0.00300894
-0.000249338
0.00320483
-0.000884286
0.00317596
0.000271626
0.00344456
-0.000992901
0.00362867
-0.0001983
0.00320224
0.0010107
-0.00210212
0.00384721
0.0034875
-9.7138e-06
0.0034856
2.44694e-05
0.00348736
-3.30864e-05
0.00348094
3.75012e-05
0.00349442
-8.07266e-05
0.00348422
6.32271e-05
0.00348586
-6.78356e-05
0.00348398
-9.48179e-06
0.00347948
-0.000130188
0.0034725
-0.000150061
0.00345427
-0.000212581
0.00343556
-0.000297991
0.00342625
-0.000439677
0.0034331
-0.000256187
0.00343817
-0.000889358
0.00353502
0.000174779
0.00355091
-0.00100879
0.00372079
-0.000368176
0.00355139
0.00118009
-0.00221505
0.00366432
0.00398672
-8.931e-06
0.00398606
2.51296e-05
0.00398674
-3.37667e-05
0.00398078
4.34609e-05
0.00399067
-9.06147e-05
0.00398556
6.83283e-05
0.00398154
-6.38144e-05
0.00397699
-4.9265e-06
0.00396251
-0.000115709
0.00394716
-0.000134715
0.00391672
-0.00018214
0.0038763
-0.000257573
0.00382511
-0.000388488
0.00380749
-0.000238563
0.0036933
-0.000775168
0.0038058
6.22794e-05
0.00363785
-0.000840839
0.00374069
-0.000471021
0.00379214
0.00112864
-0.00197107
0.00354816
0.00438667
-8.10424e-06
0.00438595
2.58565e-05
0.00438782
-3.56439e-05
0.0043813
4.99865e-05
0.00438504
-9.43567e-05
0.00438402
6.93445e-05
0.00437916
-5.89486e-05
0.00437332
9.13468e-07
0.00434919
-9.15846e-05
0.00432774
-0.000113266
0.00428482
-0.000139218
0.00423295
-0.000205699
0.00415589
-0.000311434
0.00410932
-0.000191987
0.00394899
-0.000614841
0.00401219
-9.23331e-07
0.00377846
-0.000607103
0.00382042
-0.000512982
0.00392644
0.00102262
-0.00158745
0.00354282
0.00468724
-7.84563e-06
0.00468542
2.7673e-05
0.00468885
-3.90669e-05
0.00468376
5.50727e-05
0.00468014
-9.07347e-05
0.00468126
6.8226e-05
0.00467732
-5.50154e-05
0.00467006
8.17516e-06
0.00464126
-6.27844e-05
0.00461264
-8.46402e-05
0.00456249
-8.90685e-05
0.00450162
-0.000144835
0.00440647
-0.000216285
0.00434042
-0.000125933
0.00415792
-0.000432343
0.00416594
-8.93872e-06
0.00392884
-0.000370008
0.0039007
-0.000484834
0.00400629
0.000917022
-0.00119163
0.00361047
0.00488806
-8.40921e-06
0.00488517
3.05628e-05
0.00488909
-4.29861e-05
0.00488691
5.72543e-05
0.0048766
-8.04198e-05
0.00487941
6.54146e-05
0.00487564
-5.12451e-05
0.00486798
1.58342e-05
0.00483605
-3.08564e-05
0.00480298
-5.15657e-05
0.00474841
-3.45046e-05
0.00468063
-7.70483e-05
0.00457658
-0.000112236
0.00449359
-4.29477e-05
0.00430632
-0.000245072
0.00426707
3.03115e-05
0.00404359
-0.00014653
0.00396041
-0.000401648
0.0040526
0.000824829
-0.000837382
0.00369835
0.00498865
-9.55454e-06
0.00498565
3.35586e-05
0.00498871
-4.60436e-05
0.00498944
5.65169e-05
0.00497448
-6.54561e-05
0.00497865
6.12445e-05
0.0049752
-4.77911e-05
0.00496629
2.47416e-05
0.00493408
1.35055e-06
0.00489798
-1.54625e-05
0.00484149
2.19853e-05
0.00477082
-6.37635e-06
0.00466221
-3.6307e-06
0.00456937
4.98935e-05
0.00438688
-6.25834e-05
0.00431131
0.000105885
0.00411561
4.91644e-05
0.00398572
-0.000271757
0.0040686
0.000741955
-0.000538692
0.00376991
0.00498879
-1.08402e-05
0.00498686
3.54832e-05
0.00498792
-4.71048e-05
0.00499076
5.36826e-05
0.00497363
-4.83336e-05
0.00497929
5.55875e-05
0.0049756
-4.40994e-05
0.00496544
3.48995e-05
0.00493526
3.15274e-05
0.00489731
2.24939e-05
0.00484202
7.72731e-05
0.00477095
6.46912e-05
0.00466365
0.000103673
0.0045666
0.00014694
0.00439578
0.000108245
0.00430051
0.000201153
0.00413298
0.000216696
0.00398396
-0.000122737
0.00405457
0.000671345
-0.000293808
0.00380968
0.0048885
-1.1842e-05
0.00488856
3.54243e-05
0.00488688
-4.54238e-05
0.00489067
4.98911e-05
0.0048741
-3.17614e-05
0.00488138
4.83054e-05
0.00487648
-3.9203e-05
0.00486594
4.5444e-05
0.00483909
5.8377e-05
0.00480136
6.02288e-05
0.00474969
0.000128939
0.00468125
0.000133129
0.0045806
0.000204328
0.00448543
0.000242107
0.0043334
0.00026027
0.00423303
0.000301527
0.004099
0.000350724
0.00395232
2.39445e-05
0.00401408
0.00060958
-0.000110534
0.00383081
0.00468797
-1.23073e-05
0.00469037
3.30217e-05
0.0046855
-4.05606e-05
0.00468951
4.58824e-05
0.00467606
-1.83117e-05
0.00468468
3.96906e-05
0.00467778
-3.23088e-05
0.00466766
5.55681e-05
0.00464555
8.04905e-05
0.0046101
9.56774e-05
0.0045648
0.000174235
0.00450215
0.000195782
0.00441334
0.000293137
0.00432711
0.000328339
0.00420124
0.000386139
0.00411153
0.000391232
0.00401559
0.000446667
0.00389141
0.000148125
0.00395271
0.000548281
1.736e-05
0.00382482
0.00438745
-1.22549e-05
0.00439168
2.87885e-05
0.00438368
-3.25585e-05
0.00438832
4.12382e-05
0.00437963
-9.62344e-06
0.00438856
3.07611e-05
0.00437897
-2.27112e-05
0.00437067
6.38626e-05
0.00435452
9.66441e-05
0.00432412
0.00012608
0.00428784
0.000210507
0.00423424
0.000249387
0.00416316
0.00036422
0.0040941
0.000397399
0.00400338
0.000476857
0.0039406
0.000454008
0.00388943
0.000497839
0.00380467
0.00023289
0.0038729
0.000480044
8.79236e-05
0.00380234
0.00398703
-1.17839e-05
0.00399187
2.39481e-05
0.00398204
-2.2732e-05
0.00398845
3.48264e-05
0.00398402
-5.18943e-06
0.00399127
2.35121e-05
0.00397961
-1.10494e-05
0.00397553
6.79448e-05
0.00396682
0.000105351
0.00394409
0.000148809
0.0039189
0.000235695
0.00387856
0.000289727
0.00383263
0.000410152
0.00379176
0.000438271
0.00374827
0.000520344
0.00372904
0.000473243
0.003731
0.000495879
0.0036987
0.00026518
0.0037818
0.00039695
0.000104971
0.00376475
0.00348658
-1.08681e-05
0.0034913
1.9236e-05
0.003482
-1.34327e-05
0.00348928
2.75441e-05
0.0034863
-2.21003e-06
0.00349148
1.8329e-05
0.00348139
-9.5872e-07
0.00348414
6.51945e-05
0.00348274
0.000106753
0.00346877
0.000162779
0.00345723
0.00024723
0.00343775
0.000309207
0.00342923
0.000418675
0.00343254
0.000434959
0.00345216
0.000500731
0.00349263
0.000432772
0.00355552
0.000432988
0.00358235
0.000238345
0.0036842
0.000295099
7.51009e-05
0.00371407
0.00288675
-1.01143e-05
0.00289076
1.52194e-05
0.00288156
-4.22962e-06
0.0028872
2.19055e-05
0.00288615
-1.16329e-06
0.00289276
1.1719e-05
0.00288702
4.78052e-06
0.00289469
5.75289e-05
0.00289807
0.000103366
0.00289684
0.000164015
0.00290889
0.000235182
0.00292837
0.000289724
0.00297871
0.000368331
0.00304751
0.000366163
0.00314594
0.000402304
0.00325346
0.000325248
0.00337495
0.000311497
0.00345222
0.000161073
0.00356615
0.000181172
1.82892e-05
0.00362296
0.00218661
-9.22261e-06
0.00218683
1.49934e-05
0.00217861
3.99627e-06
0.00218659
1.39275e-05
0.00218942
-3.9933e-06
0.00219543
5.70745e-06
0.00219123
8.98042e-06
0.00220297
4.57913e-05
0.00222066
8.56709e-05
0.00225578
0.000128901
0.00231859
0.00017237
0.00240575
0.000202566
0.0025319
0.000242176
0.00266994
0.000228127
0.00283427
0.000237975
0.00298203
0.000177489
0.00312942
0.000164105
0.0032206
6.98907e-05
0.00332218
7.95955e-05
-2.75946e-05
0.00336806
0.00138214
-3.8645e-06
0.00138422
1.29163e-05
0.00138425
3.964e-06
0.00139299
5.18406e-06
0.00139233
-3.33209e-06
0.0013966
1.43849e-06
0.00140306
2.52096e-06
0.00143403
1.48236e-05
0.00148622
3.34812e-05
0.00156872
4.63958e-05
0.00167733
6.37687e-05
0.00180978
7.01142e-05
0.00196786
8.40882e-05
0.00212047
7.55219e-05
0.00228238
7.60657e-05
0.00240621
5.36606e-05
0.00252117
4.91436e-05
0.00257816
1.28982e-05
0.00263865
1.911e-05
-2.90101e-05
0.00264006
0.000483636
0.000496552
0.000500516
0.0005057
0.000502368
0.000503806
0.000506327
0.000521151
0.000554632
0.000601028
0.000664797
0.000734911
0.000818999
0.000894521
0.000970587
0.00102425
0.00107339
0.00108629
0.0011054
0.00107639
0.00128511
-0.00210879
0.00191682
0.00223262
0.00644587
-0.00739338
0.00296367
0.000362939
-0.00109399
0.00311162
-0.00657593
0.00642798
0.00283967
-0.0083797
0.00865165
0.00246325
-0.00728845
0.00766486
0.0021924
-0.00545655
0.00572741
0.00202859
-0.00374558
0.00390939
0.00192667
-0.00250002
0.00260194
0.00186329
-0.00166565
0.00172903
0.00182431
-0.0011051
0.00114408
0.00180059
-0.000729479
0.000753198
0.00178662
-0.00047808
0.000492051
0.00177875
-0.00030946
0.000317335
0.00177448
-0.000197347
0.000201611
0.00177224
-0.000124104
0.000126343
0.00177109
-7.71119e-05
7.82652e-05
0.0017705
-4.74234e-05
4.80133e-05
0.0017702
-2.89061e-05
2.92087e-05
0.00177004
-1.74743e-05
1.76315e-05
0.00176996
-1.04804e-05
1.05633e-05
0.00176991
-6.23597e-06
6.28029e-06
0.00176989
-3.67857e-06
3.70301e-06
0.00176987
-2.15032e-06
2.16383e-06
0.00176987
-1.24482e-06
1.25217e-06
0.00176986
-7.12106e-07
7.16624e-07
0.00176986
-4.02319e-07
4.04899e-07
0.00176986
-2.24136e-07
2.25434e-07
0.00176986
-1.22181e-07
1.23262e-07
0.00176986
-6.5501e-08
6.60109e-08
0.00176986
-3.4238e-08
3.41983e-08
0.00176986
-1.68518e-08
1.70299e-08
0.00176986
-7.85395e-09
8.13579e-09
0.00176986
-3.41503e-09
3.33476e-09
0.00176986
-1.39889e-09
1.2108e-09
0.00176986
-3.47498e-10
4.74368e-10
0.00176986
2.78095e-10
-2.55855e-10
0.00176986
1.03484e-10
-3.00691e-10
0.00176986
4.13389e-10
-3.24004e-10
0.00176986
1.92515e-10
3.2593e-11
0.00176986
-2.73499e-11
-2.38983e-11
0.00176986
-6.41563e-12
-2.11887e-10
0.00176986
2.06485e-10
-1.65399e-10
0.00176986
2.8724e-10
-4.95517e-11
0.00176986
1.99328e-10
-3.08123e-10
0.00176986
-2.5555e-10
-3.10903e-11
0.00176986
1.23882e-10
-1.35249e-10
0.00176986
1.73565e-10
-5.63668e-11
0.00176986
-1.48881e-10
1.73147e-10
0.00176986
3.63138e-10
-4.20927e-10
0.00176986
-3.82952e-10
3.8169e-10
0.00176986
2.15968e-10
-7.11874e-11
0.00176986
-4.11902e-11
2.38077e-11
0.00176986
-2.27975e-10
-3.91606e-11
0.00176986
1.78635e-10
-2.82994e-10
0.00176986
-5.88951e-11
1.74061e-10
0.00176986
1.59522e-10
-3.88128e-11
0.00176986
-2.2671e-10
2.51009e-10
0.00176986
-7.2211e-12
-8.24117e-11
0.00176986
1.10899e-10
-1.12276e-10
0.00176986
-2.63924e-10
4.533e-10
0.00176986
3.05153e-10
-1.4374e-10
0.00176986
-3.85217e-12
-4.67526e-11
0.00176986
-4.27273e-10
2.86162e-10
0.00176986
3.9072e-10
-3.88487e-10
0.00176986
-6.08678e-11
1.95204e-10
0.00176986
-2.75734e-10
4.013e-10
0.00176986
3.51662e-10
-3.58286e-10
0.00176986
-4.59586e-11
-1.39009e-10
0.00176986
-5.22885e-10
2.87353e-10
0.00176986
2.12167e-10
-2.72433e-10
0.00176986
1.53688e-10
-2.04218e-12
0.00176986
-2.27819e-10
4.47951e-10
0.00176986
4.67668e-11
1.66351e-11
0.00176986
2.271e-10
-4.31905e-10
0.00176986
-4.69837e-10
1.66763e-10
0.00176986
-1.06282e-10
-3.59232e-12
0.00176986
2.59119e-10
-1.04585e-10
0.00176986
3.08819e-10
-1.23645e-11
0.00176986
-1.4721e-10
4.31343e-10
0.00176986
-9.95897e-11
1.87299e-10
0.00176986
2.75755e-10
-3.9053e-10
0.00176986
-3.97806e-11
-1.53367e-10
0.00176986
-3.49003e-10
1.88999e-10
0.00176986
-3.55593e-10
2.7757e-10
0.00176986
9.61723e-11
-7.26589e-11
0.00176986
3.33963e-10
-3.06807e-10
0.00176986
4.13311e-11
-8.66197e-12
0.00176986
-2.86449e-10
1.71028e-10
0.00176986
4.90159e-11
1.60903e-10
0.00176986
3.84021e-11
-2.26415e-10
0.00176986
1.05745e-09
-3.71966e-10
0.00176986
-4.10749e-10
-2.43238e-10
0.00176986
8.05586e-10
-1.60772e-10
0.00176986
-7.65389e-10
1.13739e-10
0.00176986
-4.06209e-10
-1.2836e-10
0.00176986
1.3681e-09
1.17016e-11
0.00176986
-1.84186e-09
3.21825e-10
0.00176986
9.62929e-10
7.03946e-11
1.72129e-10
-3.30379e-11
0.00167175
-0.00107039
0.00237034
0.00574728
0.00328028
-0.000547004
0.003358
-0.00665365
0.00299829
-0.00801999
0.00257096
-0.00686112
0.00226697
-0.00515256
0.00208046
-0.00355907
0.00196235
-0.00238191
0.00188735
-0.00159065
0.00184034
-0.00105809
0.00181119
-0.000700324
0.00179354
-0.000460437
0.00178321
-0.000299126
0.00177732
-0.000191459
0.00177403
-0.000120809
0.0017722
-7.52822e-05
0.00177118
-4.6407e-05
0.00177061
-2.83374e-05
0.00177029
-1.71532e-05
0.00177011
-1.02974e-05
0.00177
-6.13069e-06
0.00176994
-3.61728e-06
0.00176991
-2.11503e-06
0.00176989
-1.22433e-06
0.00176987
-6.99815e-07
0.00176987
-3.95385e-07
0.00176986
-2.20108e-07
0.00176986
-1.19613e-07
0.00176986
-6.42597e-08
0.00176986
-3.36726e-08
0.00176986
-1.63447e-08
0.00176986
-7.4603e-09
0.00176986
-3.41333e-09
0.00176986
-1.50969e-09
0.00176986
-1.91305e-10
0.00176986
2.26353e-10
0.00176986
-5.09863e-11
0.00176986
5.58597e-10
0.00176986
3.31979e-10
0.00176986
-1.49766e-10
0.00176986
-1.71566e-10
0.00176986
2.98118e-10
0.00176986
5.02562e-10
0.00176986
-8.40697e-12
0.00176986
-4.97409e-10
0.00176986
2.12203e-10
0.00176986
2.46285e-10
0.00176986
-1.73832e-10
0.00176986
2.23739e-10
0.00176986
-3.21882e-10
0.00176986
3.36388e-10
0.00176986
5.00833e-11
0.00176986
-5.42753e-10
0.00176986
1.54161e-10
0.00176986
2.16137e-10
0.00176986
1.456e-10
0.00176986
-1.15818e-10
0.00176986
-1.71678e-10
0.00176986
-5.83243e-11
0.00176986
3.42484e-11
0.00176986
4.12e-10
0.00176986
-7.94797e-11
0.00176986
-3.51812e-10
0.00176986
2.27329e-10
0.00176986
4.97388e-11
0.00176986
-3.76698e-11
0.00176986
2.87424e-10
0.00176986
-2.37119e-10
0.00176986
-5.8738e-10
0.00176986
-5.16664e-11
0.00176986
1.85592e-10
0.00176986
8.13951e-11
0.00176986
1.47095e-10
0.00176986
-1.11013e-10
0.00176986
-4.93244e-10
0.00176986
-2.40735e-10
0.00176986
3.26935e-10
0.00176986
4.1549e-10
0.00176986
1.88706e-10
0.00176986
9.77107e-11
0.00176986
7.0445e-11
0.00176986
-1.28831e-10
0.00176986
-3.9751e-10
0.00176986
-2.56034e-10
0.00176986
6.03965e-11
0.00176986
1.19895e-10
0.00176986
-1.19251e-11
0.00176986
-3.9671e-10
0.00176986
4.02195e-10
0.00176986
-1.70364e-10
0.00176986
1.6847e-09
0.00176986
-1.12234e-09
0.00176986
1.44794e-09
0.00176986
-1.24149e-09
0.00176986
-9.94931e-10
0.00176986
2.70105e-09
0.00176986
-3.35593e-09
0.00176986
1.81208e-09
2.77239e-10
0.00278239
-4.12453e-05
0.00292293
0.00560674
0.00364147
-0.00126555
0.00356207
-0.00657425
0.00311935
-0.00757727
0.00265934
-0.00640111
0.00233296
-0.00482618
0.00212885
-0.00335496
0.00199605
-0.00224911
0.00191003
-0.00150463
0.0018555
-0.00100356
0.00182126
-0.000666082
0.00180015
-0.000439329
0.00178749
-0.000286461
0.00178006
-0.000184028
0.00177575
-0.000116505
0.00177327
-7.28033e-05
0.00177184
-4.49789e-05
0.00177102
-2.75108e-05
0.00177054
-1.66723e-05
0.00177026
-1.00163e-05
0.00177009
-5.96562e-06
0.00176999
-3.52011e-06
0.00176994
-2.05799e-06
0.0017699
-1.19098e-06
0.00176988
-6.80108e-07
0.00176987
-3.83955e-07
0.00176987
-2.13562e-07
0.00176986
-1.15686e-07
0.00176986
-6.21378e-08
0.00176986
-3.2569e-08
0.00176986
-1.56371e-08
0.00176986
-6.99147e-09
0.00176986
-3.27216e-09
0.00176986
-1.56672e-09
0.00176986
-5.82147e-11
0.00176986
2.70435e-10
0.00176986
-1.27045e-10
0.00176986
6.12749e-10
0.00176986
4.11331e-10
0.00176986
-1.86907e-10
0.00176986
-2.15986e-10
0.00176986
2.74446e-10
0.00176986
6.7063e-10
0.00176986
-1.23352e-10
0.00176986
-6.40635e-10
0.00176986
2.34038e-10
0.00176986
2.51774e-10
0.00176986
-1.04304e-10
0.00176986
1.59465e-10
0.00176986
-2.79505e-10
0.00176986
3.22364e-10
0.00176986
1.19481e-10
0.00176986
-7.22201e-10
0.00176986
8.74431e-11
0.00176986
3.89954e-10
0.00176986
4.46135e-11
0.00176986
-2.15671e-11
0.00176986
-1.67539e-10
0.00176986
-1.69333e-10
0.00176986
2.56478e-10
0.00176986
4.42364e-10
0.00176986
-1.58015e-10
0.00176986
-2.94573e-10
0.00176986
1.47973e-10
0.00176986
9.49936e-11
0.00176986
1.23141e-10
0.00176986
1.90882e-10
0.00176986
-3.4458e-10
0.00176986
-5.95924e-10
0.00176986
-1.74905e-10
0.00176986
2.0652e-10
0.00176986
3.16342e-10
0.00176986
1.50073e-10
0.00176986
-3.34441e-10
0.00176986
-5.64935e-10
0.00176986
-2.03537e-10
0.00176986
3.05163e-10
0.00176986
5.10867e-10
0.00176986
4.50568e-10
0.00176986
2.01439e-10
0.00176986
-9.00574e-11
0.00176986
-3.00183e-10
0.00176986
-3.95804e-10
0.00176986
-2.30963e-10
0.00176986
1.95385e-11
0.00176986
1.24523e-11
0.00176986
2.39451e-11
0.00176986
-4.06254e-10
0.00176986
6.98446e-10
0.00176986
-4.24677e-10
0.00176986
2.21792e-09
0.00176986
-1.918e-09
0.00176986
2.14583e-09
0.00176986
-1.7539e-09
0.00176986
-1.34529e-09
0.00176986
4.21244e-09
0.00176986
-4.9851e-09
0.00176986
2.78068e-09
3.6875e-10
0.00341221
0.000393753
0.00365952
0.00535943
0.00396836
-0.0015744
0.00369716
-0.00630305
0.00320562
-0.00708573
0.00273313
-0.00592862
0.00239026
-0.00448331
0.0021722
-0.0031369
0.00202753
-0.00210444
0.00193138
-0.00140848
0.00186971
-0.000941898
0.00183072
-0.000627091
0.00180639
-0.000415001
0.00179155
-0.000271615
0.00178266
-0.000175143
0.00177741
-0.000111247
0.00177431
-6.97062e-05
0.00177249
-4.31563e-05
0.00177141
-2.64362e-05
0.00177078
-1.60372e-05
0.0017704
-9.64017e-06
0.00177018
-5.74257e-06
0.00177004
-3.388e-06
0.00176997
-1.97988e-06
0.00176992
-1.14508e-06
0.00176989
-6.53147e-07
0.00176988
-3.68188e-07
0.00176987
-2.0451e-07
0.00176986
-1.10459e-07
0.00176986
-5.91834e-08
0.00176986
-3.08979e-08
0.00176986
-1.46719e-08
0.00176986
-6.48512e-09
0.00176986
-3.04098e-09
0.00176986
-1.48786e-09
0.00176986
6.87612e-11
0.00176986
3.35731e-10
0.00176986
-1.37856e-10
0.00176986
6.30332e-10
0.00176986
4.21353e-10
0.00176986
-1.81253e-10
0.00176986
-1.70746e-10
0.00176986
2.34877e-10
0.00176986
6.9486e-10
0.00176986
-1.89539e-10
0.00176986
-6.85046e-10
0.00176986
2.64199e-10
0.00176986
2.261e-10
0.00176986
-7.53576e-11
0.00176986
1.52438e-10
0.00176986
-2.59023e-10
0.00176986
2.76109e-10
0.00176986
1.68514e-10
0.00176986
-7.81039e-10
0.00176986
5.48984e-11
0.00176986
4.83663e-10
0.00176986
-5.28602e-11
0.00176986
2.69619e-11
0.00176986
-1.13794e-10
0.00176986
-2.33403e-10
0.00176986
3.46994e-10
0.00176986
4.43609e-10
0.00176986
-1.92457e-10
0.00176986
-2.37882e-10
0.00176986
1.12112e-10
0.00176986
9.91377e-11
0.00176986
1.86292e-10
0.00176986
1.37381e-10
0.00176986
-3.78553e-10
0.00176986
-5.71859e-10
0.00176986
-2.32779e-10
0.00176986
1.96763e-10
0.00176986
4.08159e-10
0.00176986
1.364e-10
0.00176986
-4.31109e-10
0.00176986
-5.62665e-10
0.00176986
-1.58171e-10
0.00176986
2.90349e-10
0.00176986
5.23783e-10
0.00176986
5.49535e-10
0.00176986
2.5224e-10
0.00176986
-1.53892e-10
0.00176986
-3.73066e-10
0.00176986
-3.86862e-10
0.00176986
-2.21014e-10
0.00176986
5.99833e-14
0.00176986
-5.91619e-11
0.00176986
6.48362e-11
0.00176986
-4.43634e-10
0.00176986
9.51557e-10
0.00176986
-7.2462e-10
0.00176986
2.74602e-09
0.00176986
-2.74082e-09
0.00176986
2.92036e-09
0.00176986
-2.26113e-09
0.00176986
-1.63995e-09
0.00176986
5.74876e-09
0.00176986
-6.74248e-09
0.00176986
3.74141e-09
4.65786e-10
0.00362794
0.000430139
0.00416317
0.0048242
0.0041806
-0.00159183
0.00377774
-0.00590018
0.00327242
-0.0065804
0.00280125
-0.00545745
0.00244376
-0.00412583
0.00221028
-0.00290342
0.00205526
-0.00194942
0.00195081
-0.00130402
0.00188287
-0.000873957
0.00183954
-0.000583761
0.00181224
-0.000387701
0.00179537
-0.000254746
0.00178513
-0.000164904
0.00177898
-0.000105094
0.0017753
-6.60263e-05
0.0017731
-4.09599e-05
0.00177179
-2.51255e-05
0.00177101
-1.52547e-05
0.00177054
-9.17293e-06
0.00177026
-5.46384e-06
0.00177009
-3.22225e-06
0.00177
-1.8815e-06
0.00176994
-1.08709e-06
0.0017699
-6.19164e-07
0.00176988
-3.48249e-07
0.00176987
-1.93037e-07
0.00176987
-1.03933e-07
0.00176986
-5.54217e-08
0.00176986
-2.8714e-08
0.00176986
-1.34702e-08
0.00176986
-5.91685e-09
0.00176986
-2.73547e-09
0.00176986
-1.30352e-09
0.00176986
2.09243e-10
0.00176986
4.18349e-10
0.00176986
-1.20347e-10
0.00176986
6.24964e-10
0.00176986
4.17034e-10
0.00176986
-1.42067e-10
0.00176986
-9.06322e-11
0.00176986
1.79509e-10
0.00176986
6.30492e-10
0.00176986
-2.25433e-10
0.00176986
-6.75277e-10
0.00176986
3.016e-10
0.00176986
1.95457e-10
0.00176986
-7.77531e-11
0.00176986
1.75572e-10
0.00176986
-2.47685e-10
0.00176986
2.13876e-10
0.00176986
2.02866e-10
0.00176986
-7.73332e-10
0.00176986
4.58457e-11
0.00176986
5.21427e-10
0.00176986
-1.32325e-10
0.00176986
4.13183e-11
0.00176986
-3.97698e-11
0.00176986
-2.54629e-10
0.00176986
3.47813e-10
0.00176986
4.31545e-10
0.00176986
-1.93454e-10
0.00176986
-1.98439e-10
0.00176986
1.08647e-10
0.00176986
8.74247e-11
0.00176986
1.84165e-10
0.00176986
1.16614e-10
0.00176986
-3.67767e-10
0.00176986
-5.42191e-10
0.00176986
-2.47198e-10
0.00176986
1.78178e-10
0.00176986
4.09846e-10
0.00176986
1.16164e-10
0.00176986
-4.46458e-10
0.00176986
-5.29108e-10
0.00176986
-1.1564e-10
0.00176986
2.9041e-10
0.00176986
4.97621e-10
0.00176986
5.45538e-10
0.00176986
2.66629e-10
0.00176986
-1.57628e-10
0.00176986
-3.89246e-10
0.00176986
-3.79247e-10
0.00176986
-2.17337e-10
0.00176986
5.9085e-13
0.00176986
-1.02093e-10
0.00176986
1.05767e-10
0.00176986
-5.06605e-10
0.00176986
1.17658e-09
0.00176986
-1.06212e-09
0.00176986
3.28546e-09
0.00176986
-3.59231e-09
0.00176986
3.77649e-09
0.00176986
-2.80035e-09
0.00176986
-1.89514e-09
0.00176986
7.32523e-09
0.00176986
-8.64066e-09
0.00176986
4.74044e-09
5.8611e-10
0.00364586
0.000332442
0.00439526
0.0040748
0.00428268
-0.00147926
0.0038079
-0.0054254
0.00331481
-0.00608731
0.00286344
-0.00500608
0.00249998
-0.00376237
0.0022496
-0.00265304
0.00208119
-0.00178101
0.00196795
-0.00119078
0.00189443
-0.000800443
0.00184745
-0.000536779
0.00181759
-0.000357839
0.00179891
-0.00023607
0.00178743
-0.000153425
0.00178045
-9.81123e-05
0.00177623
-6.18024e-05
0.00177368
-3.84126e-05
0.00177215
-2.3592e-05
0.00177122
-1.43328e-05
0.00177067
-8.61926e-06
0.00177034
-5.1322e-06
0.00177014
-3.02448e-06
0.00177002
-1.76384e-06
0.00176995
-1.01758e-06
0.00176991
-5.78452e-07
0.00176989
-3.24353e-07
0.00176988
-1.79258e-07
0.00176987
-9.61246e-08
0.00176986
-5.0888e-08
0.00176986
-2.60786e-08
0.00176986
-1.20571e-08
0.00176986
-5.26251e-09
0.00176986
-2.36115e-09
0.00176986
-1.04116e-09
0.00176986
3.71264e-10
0.00176986
5.07956e-10
0.00176986
-9.67235e-11
0.00176986
6.15848e-10
0.00176986
4.2979e-10
0.00176986
-8.35982e-11
0.00176986
-1.38758e-11
0.00176986
1.09785e-10
0.00176986
5.24914e-10
0.00176986
-2.47036e-10
0.00176986
-6.41454e-10
0.00176986
3.42675e-10
0.00176986
1.72369e-10
0.00176986
-9.57735e-11
0.00176986
2.06346e-10
0.00176986
-2.38187e-10
0.00176986
1.51501e-10
0.00176986
2.25417e-10
0.00176986
-7.35976e-10
0.00176986
4.09654e-11
0.00176986
5.34908e-10
0.00176986
-1.94045e-10
0.00176986
3.88907e-11
0.00176986
3.68176e-11
0.00176986
-2.58371e-10
0.00176986
3.13469e-10
0.00176986
4.16718e-10
0.00176986
-1.81323e-10
0.00176986
-1.71253e-10
0.00176986
1.15447e-10
0.00176986
7.39669e-11
0.00176986
1.59801e-10
0.00176986
1.07146e-10
0.00176986
-3.41414e-10
0.00176986
-5.11694e-10
0.00176986
-2.43387e-10
0.00176986
1.60776e-10
0.00176986
3.80606e-10
0.00176986
9.19776e-11
0.00176986
-4.32928e-10
0.00176986
-4.84354e-10
0.00176986
-7.58229e-11
0.00176986
2.97267e-10
0.00176986
4.58615e-10
0.00176986
4.99334e-10
0.00176986
2.64893e-10
0.00176986
-1.39233e-10
0.00176986
-3.85394e-10
0.00176986
-3.70285e-10
0.00176986
-2.10404e-10
0.00176986
1.26141e-11
0.00176986
-1.35995e-10
0.00176986
1.45983e-10
0.00176986
-5.8051e-10
0.00176986
1.3937e-09
0.00176986
-1.43089e-09
0.00176986
3.84308e-09
0.00176986
-4.48357e-09
0.00176986
4.71846e-09
0.00176986
-3.40277e-09
0.00176986
-2.11167e-09
0.00176986
8.95937e-09
0.00176986
-1.0696e-08
0.00176986
5.81735e-09
7.45272e-10
0.00369132
0.000183944
0.00447976
0.00328636
0.00431699
-0.00131649
0.00383781
-0.00494622
0.00336617
-0.00561567
0.0029262
-0.00456611
0.00255599
-0.00339217
0.00229282
-0.00238986
0.00211112
-0.00159931
0.00198652
-0.00106618
0.00190569
-0.000719611
0.00185464
-0.000485732
0.00182238
-0.000325575
0.00180211
-0.000215805
0.00178954
-0.000140854
0.00178182
-9.03847e-05
0.00177709
-5.70808e-05
0.00177422
-3.55408e-05
0.00177248
-2.1851e-05
0.00177143
-1.32802e-05
0.00177079
-7.98453e-06
0.00177041
-4.75085e-06
0.00177018
-2.7966e-06
0.00177005
-1.62805e-06
0.00176997
-9.37209e-07
0.00176992
-5.31381e-07
0.00176989
-2.96757e-07
0.00176988
-1.63311e-07
0.00176987
-8.70783e-08
0.00176986
-4.56299e-08
0.00176986
-2.30456e-08
0.00176986
-1.04557e-08
0.00176986
-4.50984e-09
0.00176986
-1.91561e-09
0.00176986
-7.17092e-10
0.00176986
5.49846e-10
0.00176986
5.96016e-10
0.00176986
-7.15444e-11
0.00176986
6.13705e-10
0.00176986
4.67183e-10
0.00176986
-1.71686e-11
0.00176986
4.36429e-11
0.00176986
2.73049e-11
0.00176986
4.0387e-10
0.00176986
-2.57681e-10
0.00176986
-5.95671e-10
0.00176986
3.82306e-10
0.00176986
1.57744e-10
0.00176986
-1.1837e-10
0.00176986
2.33919e-10
0.00176986
-2.25595e-10
0.00176986
9.03742e-11
0.00176986
2.43292e-10
0.00176986
-6.87217e-10
0.00176986
3.29845e-11
0.00176986
5.36337e-10
0.00176986
-2.39244e-10
0.00176986
3.07712e-11
0.00176986
1.05643e-10
0.00176986
-2.55038e-10
0.00176986
2.68574e-10
0.00176986
4.0267e-10
0.00176986
-1.64256e-10
0.00176986
-1.53422e-10
0.00176986
1.21952e-10
0.00176986
6.47927e-11
0.00176986
1.32123e-10
0.00176986
9.95838e-11
0.00176986
-3.12776e-10
0.00176986
-4.81819e-10
0.00176986
-2.31786e-10
0.00176986
1.48804e-10
0.00176986
3.44645e-10
0.00176986
6.51856e-11
0.00176986
-4.12403e-10
0.00176986
-4.36353e-10
0.00176986
-3.84493e-11
0.00176986
3.0508e-10
0.00176986
4.16223e-10
0.00176986
4.40407e-10
0.00176986
2.5683e-10
0.00176986
-1.16511e-10
0.00176986
-3.76444e-10
0.00176986
-3.57509e-10
0.00176986
-1.96834e-10
0.00176986
2.96615e-11
0.00176986
-1.70097e-10
0.00176986
1.86694e-10
0.00176986
-6.58481e-10
0.00176986
1.61235e-09
0.00176986
-1.8293e-09
0.00176986
4.42465e-09
0.00176986
-5.42381e-09
0.00176986
5.7565e-09
0.00176986
-4.09322e-09
0.00176986
-2.2841e-09
0.00176986
1.06643e-08
0.00176986
-1.2933e-08
0.00176986
7.00364e-09
9.56657e-10
0.00376483
2.95839e-05
0.00448209
0.0025691
0.00430825
-0.00114264
0.00382785
-0.00446582
0.00336549
-0.0051533
0.00293992
-0.00414055
0.0025724
-0.00302465
0.00231058
-0.00212805
0.00213104
-0.00141977
0.00200381
-0.000938941
0.00191775
-0.000633558
0.0018623
-0.000430285
0.00182718
-0.000290451
0.00180517
-0.000193789
0.0017915
-0.000127191
0.00178307
-8.19551e-05
0.00177789
-5.1901e-05
0.00177472
-3.23712e-05
0.00177279
-1.99191e-05
0.00177162
-1.21072e-05
0.00177091
-7.27482e-06
0.00177048
-4.3234e-06
0.00177023
-2.54074e-06
0.00177007
-1.47542e-06
0.00176998
-8.46754e-07
0.00176993
-4.78392e-07
0.0017699
-2.65743e-07
0.00176988
-1.45359e-07
0.00176987
-7.68671e-08
0.00176986
-3.97072e-08
0.00176986
-1.96652e-08
0.00176986
-8.68561e-09
0.00176986
-3.65272e-09
0.00176986
-1.39621e-09
0.00176986
-3.43355e-10
0.00176986
7.35041e-10
0.00176986
6.76689e-10
0.00176986
-4.08969e-11
0.00176986
6.23173e-10
0.00176986
5.24066e-10
0.00176986
4.76374e-11
0.00176986
7.72539e-11
0.00176986
-6.2475e-11
0.00176986
2.81402e-10
0.00176986
-2.56384e-10
0.00176986
-5.41657e-10
0.00176986
4.15664e-10
0.00176986
1.49456e-10
0.00176986
-1.41196e-10
0.00176986
2.55549e-10
0.00176986
-2.09984e-10
0.00176986
3.32201e-11
0.00176986
2.56985e-10
0.00176986
-6.32278e-10
0.00176986
2.00927e-11
0.00176986
5.29772e-10
0.00176986
-2.69019e-10
0.00176986
2.08356e-11
0.00176986
1.63689e-10
0.00176986
-2.49143e-10
0.00176986
2.22463e-10
0.00176986
3.89922e-10
0.00176986
-1.45894e-10
0.00176986
-1.42806e-10
0.00176986
1.2555e-10
0.00176986
6.03874e-11
0.00176986
1.07245e-10
0.00176986
9.10799e-11
0.00176986
-2.86257e-10
0.00176986
-4.52151e-10
0.00176986
-2.15058e-10
0.00176986
1.42456e-10
0.00176986
3.08447e-10
0.00176986
3.60501e-11
0.00176986
-3.90448e-10
0.00176986
-3.8567e-10
0.00176986
-3.97149e-12
0.00176986
3.08177e-10
0.00176986
3.74421e-10
0.00176986
3.80533e-10
0.00176986
2.44521e-10
0.00176986
-9.64222e-11
0.00176986
-3.65076e-10
0.00176986
-3.38443e-10
0.00176986
-1.78235e-10
0.00176986
4.72626e-11
0.00176986
-2.05402e-10
0.00176986
2.30936e-10
0.00176986
-7.39977e-10
0.00176986
1.83342e-09
0.00176986
-2.25741e-09
0.00176986
5.03721e-09
0.00176986
-6.42051e-09
0.00176986
6.90444e-09
0.00176986
-4.89594e-09
0.00176986
-2.40279e-09
0.00176986
1.24507e-08
0.00176986
-1.53825e-08
0.00176986
8.32631e-09
1.23222e-09
0.00382714
-9.9211e-05
0.00442555
0.0019707
0.00426932
-0.000986412
0.00382824
-0.00402474
0.00340243
-0.0047275
0.00299269
-0.00373081
0.00260852
-0.00264048
0.00232177
-0.0018413
0.00213175
-0.00122974
0.00200522
-0.000812411