/*--------------------------------*- C++ -*----------------------------------*\
| =========                 |                                                 |
| \\      /  F ield         | OpenFOAM: The Open Source CFD Toolbox           |
|  \\    /   O peration     | Version:  2.4.0                                 |
|   \\  /    A nd           | Web:      www.OpenFOAM.org                      |
|    \\/     M anipulation  |                                                 |
\*---------------------------------------------------------------------------*/
FoamFile
{
    version     2.0;
    format      ascii;
    class       volVectorField;
    location    "6";
    object      U;
}
// * * * * * * * * * * * * * * * * * * * * * * * * * * * * * * * * * * * * * //

dimensions      [0 1 -1 0 0 0 0];

internalField   nonuniform List<vector> 
4400
(
(0.0950114 -0.000115699 0)
(0.0978539 -0.00023492 0)
(0.100114 -0.000270595 0)
(0.0997875 0.000144841 0)
(0.100847 -7.68325e-05 0)
(0.100229 0.000206356 0)
(0.0995237 0.000130362 0)
(0.103931 -2.48976e-05 0)
(0.104433 -0.000202656 0)
(0.118329 -0.000201375 0)
(0.123352 -0.000805143 0)
(0.140914 5.43602e-05 0)
(0.156167 -0.00126325 0)
(0.166448 -0.000343558 0)
(0.189514 0.000429705 0)
(0.198493 -0.00292413 0)
(0.187953 0.00324237 0)
(0.258183 -0.00374193 0)
(0.148395 0.00355981 0)
(0.241069 -0.00187234 0)
(0.275865 -7.32604e-05 0)
(0.275202 5.6187e-05 0)
(0.277902 -0.000863684 0)
(0.275884 0.000341956 0)
(0.279333 -0.000510805 0)
(0.279451 0.000333806 0)
(0.275269 -0.00096547 0)
(0.290675 -0.00107266 0)
(0.279461 -0.00312566 0)
(0.317362 -0.00357428 0)
(0.313105 -0.00497755 0)
(0.350245 -0.00574593 0)
(0.382443 -0.00511374 0)
(0.399379 -0.00610755 0)
(0.429256 -0.00463517 0)
(0.523607 -0.00238465 0)
(0.335007 -0.00303949 0)
(0.72965 -0.000770263 0)
(0.20697 0.00318351 0)
(0.737883 -0.00116459 0)
(0.437242 -0.000215973 0)
(0.435357 0.000615212 0)
(0.438581 -0.00115776 0)
(0.433398 0.000531592 0)
(0.439153 -0.00142203 0)
(0.439396 0.00145848 0)
(0.434059 -0.00209148 0)
(0.447965 -0.000733509 0)
(0.429764 -0.00574521 0)
(0.461047 -0.0061914 0)
(0.444277 -0.00922372 0)
(0.478035 -0.0116838 0)
(0.489436 -0.0134198 0)
(0.524089 -0.00873063 0)
(0.516552 -0.0226482 0)
(0.671483 0.00644051 0)
(0.394536 -0.0233045 0)
(0.93231 0.00130792 0)
(0.283072 0.0122583 0)
(0.852442 -0.0372192 0)
(0.577948 -0.000389731 0)
(0.574515 0.000880929 0)
(0.580559 -0.00113893 0)
(0.57237 0.00103452 0)
(0.581158 -0.00241738 0)
(0.575757 0.00194276 0)
(0.578005 -0.00253249 0)
(0.580558 -0.000294253 0)
(0.576315 -0.00541858 0)
(0.584412 -0.0063885 0)
(0.577685 -0.00966263 0)
(0.583915 -0.0132192 0)
(0.589559 -0.0177646 0)
(0.604 -0.010113 0)
(0.597883 -0.034278 0)
(0.699641 0.011889 0)
(0.532421 -0.0385104 0)
(0.904041 -0.00429833 0)
(0.49302 0.0369319 0)
(0.800647 -0.0848825 0)
(0.698685 -0.000409067 0)
(0.693419 0.000969483 0)
(0.701558 -0.00125646 0)
(0.690875 0.00138738 0)
(0.703966 -0.00298069 0)
(0.69312 0.00239247 0)
(0.70075 -0.002588 0)
(0.694913 -0.000492845 0)
(0.697541 -0.0050958 0)
(0.697562 -0.00631272 0)
(0.692517 -0.00884113 0)
(0.688794 -0.0126447 0)
(0.689596 -0.0185735 0)
(0.67921 -0.0102545 0)
(0.690173 -0.0371512 0)
(0.702761 0.00965559 0)
(0.672486 -0.0412331 0)
(0.802523 -0.011275 0)
(0.640529 0.0464651 0)
(0.786199 -0.0919176 0)
(0.799026 -0.000383493 0)
(0.793099 0.000998204 0)
(0.801904 -0.00130839 0)
(0.789915 0.00168126 0)
(0.804406 -0.00358405 0)
(0.792357 0.00276512 0)
(0.801905 -0.0026407 0)
(0.792181 -0.000129349 0)
(0.796709 -0.0050248 0)
(0.792067 -0.00543474 0)
(0.7875 -0.00790306 0)
(0.77964 -0.011082 0)
(0.77361 -0.0167844 0)
(0.756509 -0.0101642 0)
(0.760892 -0.0338268 0)
(0.734166 0.00457475 0)
(0.752583 -0.0366635 0)
(0.750136 -0.0179001 0)
(0.7117 0.0472535 0)
(0.802706 -0.0835306 0)
(0.878957 -0.000332195 0)
(0.873369 0.000978804 0)
(0.881606 -0.00133971 0)
(0.870355 0.00192071 0)
(0.883242 -0.00379783 0)
(0.87253 0.00264572 0)
(0.881289 -0.00222049 0)
(0.871645 -0.00017594 0)
(0.875249 -0.00391031 0)
(0.868416 -0.00490388 0)
(0.863245 -0.00635862 0)
(0.851863 -0.00898745 0)
(0.842609 -0.0143038 0)
(0.821561 -0.00856914 0)
(0.815156 -0.0279471 0)
(0.781492 0.000388222 0)
(0.792701 -0.0285034 0)
(0.757375 -0.0207969 0)
(0.747655 0.0426803 0)
(0.811279 -0.0689728 0)
(0.938531 -0.000309719 0)
(0.934198 0.00104172 0)
(0.940574 -0.00151424 0)
(0.931771 0.0022499 0)
(0.941541 -0.00388287 0)
(0.933406 0.00273843 0)
(0.939743 -0.00221362 0)
(0.931942 0.000259669 0)
(0.933515 -0.00297606 0)
(0.926771 -0.00398105 0)
(0.919163 -0.00429813 0)
(0.907311 -0.00710703 0)
(0.893676 -0.0103735 0)
(0.871751 -0.00647978 0)
(0.857244 -0.0210572 0)
(0.820642 -0.00062793 0)
(0.821482 -0.0194547 0)
(0.778545 -0.0210758 0)
(0.769942 0.0390278 0)
(0.812331 -0.0541722 0)
(0.977813 -0.000309688 0)
(0.975434 0.00113181 0)
(0.979128 -0.00165621 0)
(0.973533 0.00233169 0)
(0.979776 -0.00347183 0)
(0.974616 0.00257917 0)
(0.978249 -0.00202013 0)
(0.972262 0.000516104 0)
(0.972327 -0.00184497 0)
(0.965632 -0.00258525 0)
(0.95675 -0.00252608 0)
(0.94426 -0.00424776 0)
(0.927732 -0.0065452 0)
(0.906238 -0.00357171 0)
(0.884403 -0.0132468 0)
(0.850227 -0.000184587 0)
(0.838581 -0.010182 0)
(0.797514 -0.0180855 0)
(0.784988 0.0343251 0)
(0.809511 -0.0399083 0)
(0.99693 -0.000363856 0)
(0.996798 0.00130381 0)
(0.997625 -0.00183132 0)
(0.995246 0.00234229 0)
(0.998184 -0.00295944 0)
(0.995845 0.00251468 0)
(0.997119 -0.00191705 0)
(0.992609 0.000749766 0)
(0.991697 -0.000473077 0)
(0.985016 -0.00140301 0)
(0.975704 -0.000161077 0)
(0.962628 -0.00164532 0)
(0.945075 -0.00236036 0)
(0.923242 0.000204018 0)
(0.898593 -0.0061496 0)
(0.865357 0.00243692 0)
(0.846659 -0.00156448 0)
(0.809977 -0.0138864 0)
(0.789972 0.0310141 0)
(0.808902 -0.0266056 0)
(0.995997 -0.000419215 0)
(0.9981 0.00142299 0)
(0.996237 -0.00189011 0)
(0.996769 0.00218389 0)
(0.996815 -0.00229138 0)
(0.99703 0.0023852 0)
(0.996328 -0.00185202 0)
(0.993071 0.00114254 0)
(0.991585 0.000633759 0)
(0.984989 0.000134314 0)
(0.97585 0.00194899 0)
(0.962576 0.0011098 0)
(0.945178 0.00207119 0)
(0.923424 0.00378886 0)
(0.898402 0.00110591 0)
(0.866352 0.00600986 0)
(0.845849 0.00539315 0)
(0.811309 -0.00768299 0)
(0.791965 0.0278629 0)
(0.802916 -0.016111 0)
(0.975132 -0.000471507 0)
(0.979198 0.00147903 0)
(0.975077 -0.00187357 0)
(0.978007 0.00198236 0)
(0.97571 -0.00157299 0)
(0.978157 0.00213616 0)
(0.975847 -0.00169769 0)
(0.973668 0.00146547 0)
(0.971989 0.00178743 0)
(0.965519 0.00157154 0)
(0.957218 0.00403999 0)
(0.944105 0.00389734 0)
(0.927957 0.00610414 0)
(0.90696 0.0077539 0)
(0.883469 0.00753273 0)
(0.854037 0.00997189 0)
(0.834438 0.0116801 0)
(0.804802 -0.00176272 0)
(0.78697 0.0252423 0)
(0.795116 -0.00726907 0)
(0.934437 -0.00050207 0)
(0.940013 0.00143735 0)
(0.934195 -0.00176638 0)
(0.938914 0.00181228 0)
(0.934905 -0.000943641 0)
(0.939274 0.00182019 0)
(0.935619 -0.00150929 0)
(0.934429 0.00187657 0)
(0.932777 0.00272118 0)
(0.926708 0.00300249 0)
(0.91978 0.00597789 0)
(0.907324 0.00643034 0)
(0.89345 0.00996215 0)
(0.874018 0.0113995 0)
(0.854029 0.0131005 0)
(0.82879 0.0140912 0)
(0.813299 0.0161773 0)
(0.789962 0.00397072 0)
(0.776898 0.0231042 0)
(0.784508 -0.00144767 0)
(0.874007 -0.000500384 0)
(0.88048 0.0012821 0)
(0.873579 -0.00152125 0)
(0.879497 0.00165869 0)
(0.874507 -0.000490189 0)
(0.880404 0.00142567 0)
(0.87549 -0.00117352 0)
(0.87529 0.00225212 0)
(0.873853 0.0034539 0)
(0.86872 0.00431277 0)
(0.86356 0.00757797 0)
(0.852447 0.00879294 0)
(0.841642 0.0132072 0)
(0.825132 0.0146105 0)
(0.81053 0.0176081 0)
(0.791795 0.0172764 0)
(0.78322 0.01931 0)
(0.768351 0.00828588 0)
(0.762287 0.0205585 0)
(0.771104 0.00275226 0)
(0.793905 -0.000477542 0)
(0.80048 0.00106011 0)
(0.793266 -0.00115414 0)
(0.799912 0.00148365 0)
(0.794616 -0.000249846 0)
(0.801269 0.00103909 0)
(0.795191 -0.000714346 0)
(0.796248 0.00254954 0)
(0.795346 0.0039598 0)
(0.791816 0.00538211 0)
(0.788552 0.00885488 0)
(0.779582 0.0107664 0)
(0.772746 0.0157006 0)
(0.761185 0.017046 0)
(0.754257 0.0204758 0)
(0.745024 0.0191645 0)
(0.746049 0.0204348 0)
(0.74178 0.0106997 0)
(0.74454 0.0177613 0)
(0.755945 0.00432487 0)
(0.69403 -0.00044225 0)
(0.699992 0.000841351 0)
(0.693553 -0.000751395 0)
(0.700198 0.00126315 0)
(0.694799 -0.000155447 0)
(0.701289 0.00077697 0)
(0.694871 -0.000202448 0)
(0.69773 0.0026043 0)
(0.697561 0.00414258 0)
(0.695847 0.00622597 0)
(0.694393 0.0098065 0)
(0.688828 0.0122925 0)
(0.687665 0.0171712 0)
(0.68428 0.0181493 0)
(0.688109 0.0212871 0)
(0.691986 0.0189446 0)
(0.704807 0.0192704 0)
(0.712932 0.0108377 0)
(0.724862 0.0141122 0)
(0.739615 0.00401925 0)
(0.574182 -0.000387042 0)
(0.57945 0.000630861 0)
(0.574318 -0.000407864 0)
(0.57949 0.00103765 0)
(0.574543 9.38887e-06 0)
(0.580953 0.000620541 0)
(0.575488 9.69574e-05 0)
(0.579755 0.00241061 0)
(0.579773 0.00418829 0)
(0.579848 0.00682821 0)
(0.58151 0.010214 0)
(0.582212 0.0128423 0)
(0.590952 0.0168626 0)
(0.600181 0.0171014 0)
(0.618783 0.0192022 0)
(0.638246 0.0160228 0)
(0.662951 0.0155386 0)
(0.68287 0.00854507 0)
(0.701059 0.00971973 0)
(0.71871 0.00200799 0)
(0.434402 -0.000401847 0)
(0.43855 0.000494143 0)
(0.434284 8.21273e-05 0)
(0.438168 0.000839361 0)
(0.435337 -0.000117191 0)
(0.441188 0.000236221 0)
(0.436228 0.000336943 0)
(0.440929 0.00244794 0)
(0.441779 0.00445895 0)
(0.447091 0.00695974 0)
(0.457627 0.00939195 0)
(0.469897 0.0111638 0)
(0.494537 0.0134629 0)
(0.51736 0.0128128 0)
(0.551076 0.0135646 0)
(0.58086 0.0104193 0)
(0.611739 0.00965072 0)
(0.636217 0.00467432 0)
(0.653614 0.00506592 0)
(0.670506 -0.000390904 0)
(0.273853 -0.000332122 0)
(0.276796 0.00063067 0)
(0.275392 0.000278592 0)
(0.278822 0.000351361 0)
(0.277075 -0.000179456 0)
(0.28045 0.000244913 0)
(0.277352 0.000452759 0)
(0.28464 0.00148606 0)
(0.29031 0.00280281 0)
(0.304979 0.00390179 0)
(0.3247 0.00496619 0)
(0.346321 0.00544606 0)
(0.379876 0.00612921 0)
(0.406133 0.00545118 0)
(0.442819 0.00539567 0)
(0.468139 0.0037407 0)
(0.494091 0.003399 0)
(0.510858 0.00101361 0)
(0.521147 0.00146748 0)
(0.5307 -0.00155166 0)
(0.0938206 -2.45065e-05 0)
(0.098111 0.000488885 0)
(0.0993356 9.61057e-05 0)
(0.100846 4.81262e-05 0)
(0.100135 -0.000125116 0)
(0.100788 -9.53568e-05 0)
(0.0997147 -0.000174818 0)
(0.102915 -2.69387e-05 0)
(0.106648 0.000270953 0)
(0.115833 0.000289129 0)
(0.12652 0.000524519 0)
(0.139656 0.000544037 0)
(0.156529 0.000683063 0)
(0.170463 0.000608093 0)
(0.188243 0.000616409 0)
(0.19869 0.000418894 0)
(0.210971 0.000432286 0)
(0.215755 -8.31372e-05 0)
(0.21969 -1.11776e-05 0)
(0.220068 -0.00129116 0)
(0.281487 -0.0983084 0)
(0.17955 0.293131 0)
(0.576274 0.0359269 0)
(0.720242 -0.262184 0)
(0.612874 -0.341066 0)
(0.501916 -0.297398 0)
(0.447994 -0.221253 0)
(0.413352 -0.150579 0)
(0.3897 -0.0996729 0)
(0.375739 -0.0658552 0)
(0.367148 -0.0433326 0)
(0.361577 -0.0283698 0)
(0.358166 -0.0184359 0)
(0.356222 -0.0118298 0)
(0.355155 -0.00747812 0)
(0.354584 -0.00466221 0)
(0.354287 -0.00287258 0)
(0.354135 -0.00175229 0)
(0.354058 -0.00105972 0)
(0.354018 -0.000635761 0)
(0.353996 -0.000378484 0)
(0.353985 -0.000223578 0)
(0.353979 -0.000130958 0)
(0.353976 -7.60174e-05 0)
(0.353974 -4.37022e-05 0)
(0.353973 -2.48379e-05 0)
(0.353972 -1.39376e-05 0)
(0.353972 -7.71239e-06 0)
(0.353972 -4.18374e-06 0)
(0.353971 -2.22584e-06 0)
(0.353971 -1.15224e-06 0)
(0.353971 -5.66461e-07 0)
(0.353971 -2.66516e-07 0)
(0.353971 -1.12096e-07 0)
(0.353971 -4.29399e-08 0)
(0.353971 -1.39887e-08 0)
(0.353971 8.66887e-09 0)
(0.353971 5.90185e-09 0)
(0.353971 1.14256e-08 0)
(0.353971 2.80707e-09 0)
(0.353971 7.59731e-11 0)
(0.353971 3.09359e-09 0)
(0.353971 6.00098e-09 0)
(0.353971 4.47857e-09 0)
(0.353971 8.07345e-09 0)
(0.353971 -3.4021e-09 0)
(0.353971 3.73787e-09 0)
(0.353971 3.61519e-09 0)
(0.353971 -5.24921e-09 0)
(0.353971 1.20347e-08 0)
(0.353971 -1.15895e-08 0)
(0.353971 4.53531e-09 0)
(0.353971 -1.36899e-09 0)
(0.353971 -2.38748e-09 0)
(0.353971 6.77916e-09 0)
(0.353971 -4.27222e-09 0)
(0.353971 3.93085e-09 0)
(0.353971 -7.4714e-09 0)
(0.353971 1.03315e-09 0)
(0.353971 3.64407e-09 0)
(0.353971 -1.09637e-08 0)
(0.353971 6.60564e-09 0)
(0.353971 1.17694e-09 0)
(0.353971 -1.08146e-08 0)
(0.353971 1.12644e-08 0)
(0.353971 -3.19271e-09 0)
(0.353971 -9.69893e-09 0)
(0.353971 1.00592e-08 0)
(0.353971 1.28592e-09 0)
(0.353971 -1.14736e-08 0)
(0.353971 7.09034e-09 0)
(0.353971 2.13669e-09 0)
(0.353971 -9.78917e-09 0)
(0.353971 6.80481e-10 0)
(0.353971 8.87023e-09 0)
(0.353971 -8.32502e-09 0)
(0.353972 -1.62916e-09 0)
(0.353971 5.46435e-09 0)
(0.353971 4.20071e-09 0)
(0.353971 -7.74252e-09 0)
(0.353971 -3.35027e-09 0)
(0.353971 8.60898e-09 0)
(0.353971 1.73694e-09 0)
(0.353971 -6.84484e-09 0)
(0.353971 -7.98553e-09 0)
(0.353971 2.61931e-09 0)
(0.353971 8.10182e-09 0)
(0.353972 6.72024e-10 0)
(0.353971 -5.76576e-09 0)
(0.353973 -2.43111e-09 0)
(0.353969 2.838e-09 0)
(0.353977 1.63448e-08 0)
(0.353962 -1.21144e-09 0)
(0.353985 1.04218e-08 0)
(0.353953 -9.89963e-09 0)
(0.353993 -3.74646e-09 0)
(0.353953 1.36627e-08 0)
(0.353981 -2.26494e-08 0)
(0.353972 9.62807e-09 0)
(0.35397 2.11023e-09 0)
(0.469253 -0.06039 0)
(0.143952 0.272014 0)
(0.654951 -0.0113536 0)
(0.779869 -0.269786 0)
(0.650402 -0.328969 0)
(0.526892 -0.281673 0)
(0.466259 -0.20971 0)
(0.426392 -0.143469 0)
(0.398317 -0.0953188 0)
(0.381474 -0.063177 0)
(0.371002 -0.041681 0)
(0.364125 -0.0273579 0)
(0.359829 -0.0178339 0)
(0.357298 -0.0114853 0)
(0.355842 -0.00728736 0)
(0.355017 -0.00455895 0)
(0.354556 -0.00281731 0)
(0.354301 -0.00172275 0)
(0.354159 -0.0010438 0)
(0.354079 -0.000627087 0)
(0.354033 -0.000373699 0)
(0.354007 -0.000220905 0)
(0.353992 -0.000129436 0)
(0.353983 -7.5159e-05 0)
(0.353978 -4.32147e-05 0)
(0.353975 -2.4544e-05 0)
(0.353974 -1.37749e-05 0)
(0.353973 -7.62057e-06 0)
(0.353972 -4.12027e-06 0)
(0.353972 -2.19733e-06 0)
(0.353972 -1.14257e-06 0)
(0.353972 -5.54991e-07 0)
(0.353971 -2.5502e-07 0)
(0.353971 -1.13212e-07 0)
(0.353971 -4.77221e-08 0)
(0.353971 -8.98918e-09 0)
(0.353971 7.55817e-09 0)
(0.353971 4.23882e-10 0)
(0.353971 1.54469e-08 0)
(0.353971 8.31495e-09 0)
(0.353971 -2.41547e-09 0)
(0.353971 -3.08141e-09 0)
(0.353971 7.85569e-09 0)
(0.353971 1.21334e-08 0)
(0.353971 3.00291e-09 0)
(0.353971 -1.16752e-08 0)
(0.353971 4.76664e-09 0)
(0.353971 6.6416e-09 0)
(0.353971 -4.67016e-09 0)
(0.353971 8.64079e-09 0)
(0.353971 -1.03507e-08 0)
(0.353971 8.49824e-09 0)
(0.353971 1.39873e-11 0)
(0.353971 -1.10992e-08 0)
(0.353972 4.50821e-09 0)
(0.353971 1.93677e-09 0)
(0.353971 4.90853e-09 0)
(0.353971 -4.92954e-09 0)
(0.353971 -2.28119e-09 0)
(0.353971 9.71134e-10 0)
(0.353971 -3.5079e-09 0)
(0.353971 1.00856e-08 0)
(0.353971 -9.6189e-10 0)
(0.353971 -1.08345e-08 0)
(0.353971 8.39906e-09 0)
(0.353971 1.88321e-10 0)
(0.353971 -4.23115e-09 0)
(0.353971 8.56823e-09 0)
(0.353971 -3.91546e-09 0)
(0.353971 -1.47266e-08 0)
(0.353971 1.89721e-09 0)
(0.353971 4.46423e-09 0)
(0.353971 -2.14878e-09 0)
(0.353971 2.43189e-09 0)
(0.353971 1.38737e-09 0)
(0.353971 -1.2346e-08 0)
(0.353971 -4.45001e-09 0)
(0.353971 7.49152e-09 0)
(0.353971 9.16666e-09 0)
(0.353971 5.72186e-10 0)
(0.353971 -1.48268e-10 0)
(0.353971 4.35004e-09 0)
(0.353971 -1.90752e-09 0)
(0.353971 -8.94803e-09 0)
(0.353971 -7.247e-09 0)
(0.353971 1.53511e-09 0)
(0.353971 5.26599e-09 0)
(0.353972 3.49665e-10 0)
(0.353971 -7.75432e-09 0)
(0.353973 4.65318e-09 0)
(0.353969 -1.17235e-09 0)
(0.353977 3.02956e-08 0)
(0.353962 -1.62081e-08 0)
(0.353985 2.40914e-08 0)
(0.353953 -2.17906e-08 0)
(0.353993 -1.5422e-08 0)
(0.353953 4.24183e-08 0)
(0.353981 -5.40471e-08 0)
(0.353972 2.89968e-08 0)
(0.35397 4.67761e-09 0)
(0.792018 -0.0188626 0)
(0.249263 0.211799 0)
(0.755946 -0.0423254 0)
(0.830657 -0.265866 0)
(0.679127 -0.312337 0)
(0.54722 -0.264199 0)
(0.481873 -0.197618 0)
(0.438482 -0.135848 0)
(0.406508 -0.090324 0)
(0.386873 -0.0600057 0)
(0.374638 -0.039718 0)
(0.366547 -0.0261462 0)
(0.361415 -0.0170982 0)
(0.358326 -0.0110512 0)
(0.356502 -0.00703752 0)
(0.355434 -0.00441733 0)
(0.354817 -0.00273757 0)
(0.354463 -0.00167783 0)
(0.354258 -0.00101834 0)
(0.354139 -0.000612554 0)
(0.354069 -0.000365353 0)
(0.354029 -0.000216075 0)
(0.354005 -0.000126626 0)
(0.353991 -7.3533e-05 0)
(0.353983 -4.22729e-05 0)
(0.353978 -2.39877e-05 0)
(0.353975 -1.34588e-05 0)
(0.353974 -7.43925e-06 0)
(0.353973 -4.00922e-06 0)
(0.353972 -2.14014e-06 0)
(0.353972 -1.1149e-06 0)
(0.353972 -5.35434e-07 0)
(0.353971 -2.39153e-07 0)
(0.353971 -1.10498e-07 0)
(0.353971 -5.14438e-08 0)
(0.353971 -3.89063e-09 0)
(0.353971 7.37382e-09 0)
(0.353971 -3.71704e-09 0)
(0.353971 1.87953e-08 0)
(0.353971 1.24222e-08 0)
(0.353971 -5.60563e-09 0)
(0.353971 -7.27985e-09 0)
(0.353971 9.19592e-09 0)
(0.353971 1.92767e-08 0)
(0.353971 -2.73071e-09 0)
(0.353971 -1.81931e-08 0)
(0.353971 6.78012e-09 0)
(0.353971 7.54213e-09 0)
(0.353971 -4.15862e-09 0)
(0.353971 5.08206e-09 0)
(0.353971 -8.42844e-09 0)
(0.353971 9.91967e-09 0)
(0.353971 2.20595e-09 0)
(0.353971 -1.91674e-08 0)
(0.353971 3.04675e-09 0)
(0.353971 9.20787e-09 0)
(0.353971 2.52245e-09 0)
(0.353971 -1.76665e-09 0)
(0.353971 -5.25854e-09 0)
(0.353971 -3.53852e-09 0)
(0.353971 4.76061e-09 0)
(0.353971 1.17604e-08 0)
(0.353971 -3.66246e-09 0)
(0.353971 -8.79926e-09 0)
(0.353971 4.31603e-09 0)
(0.353971 2.26946e-09 0)
(0.353971 1.92897e-09 0)
(0.353971 5.89278e-09 0)
(0.353971 -7.98037e-09 0)
(0.353971 -1.53773e-08 0)
(0.353971 -3.82121e-09 0)
(0.353971 5.12688e-09 0)
(0.353971 5.72081e-09 0)
(0.353971 3.57929e-09 0)
(0.353971 -6.25839e-09 0)
(0.353971 -1.33686e-08 0)
(0.353971 -5.71043e-09 0)
(0.353971 7.45287e-09 0)
(0.353971 1.18084e-08 0)
(0.353971 8.53297e-09 0)
(0.353971 3.58486e-09 0)
(0.353971 -8.42125e-10 0)
(0.353971 -5.84285e-09 0)
(0.353971 -9.41273e-09 0)
(0.353971 -5.36634e-09 0)
(0.353971 4.04936e-10 0)
(0.353971 1.20601e-09 0)
(0.353972 -4.44422e-10 0)
(0.353971 -9.11037e-09 0)
(0.353973 1.21242e-08 0)
(0.353969 -6.34009e-09 0)
(0.353977 4.26026e-08 0)
(0.353962 -3.27032e-08 0)
(0.353985 3.83742e-08 0)
(0.353953 -3.20504e-08 0)
(0.353993 -2.51567e-08 0)
(0.353953 7.24846e-08 0)
(0.353981 -8.6705e-08 0)
(0.353972 4.80191e-08 0)
(0.35397 6.72554e-09 0)
(0.840074 0.00256997 0)
(0.450935 0.212543 0)
(0.848744 -0.0510693 0)
(0.862957 -0.258975 0)
(0.699363 -0.294065 0)
(0.564402 -0.245076 0)
(0.49516 -0.184294 0)
(0.44913 -0.12787 0)
(0.41416 -0.0850561 0)
(0.391962 -0.0564698 0)
(0.378042 -0.0374575 0)
(0.368818 -0.0247354 0)
(0.36291 -0.0162325 0)
(0.359301 -0.0105318 0)
(0.35713 -0.00673175 0)
(0.355834 -0.00423935 0)
(0.355068 -0.00263447 0)
(0.354618 -0.00161813 0)
(0.354353 -0.000983666 0)
(0.354197 -0.000592344 0)
(0.354104 -0.000353534 0)
(0.35405 -0.000209143 0)
(0.354017 -0.00012256 0)
(0.353998 -7.11522e-05 0)
(0.353987 -4.08868e-05 0)
(0.35398 -2.31777e-05 0)
(0.353977 -1.29888e-05 0)
(0.353974 -7.17246e-06 0)
(0.353973 -3.85388e-06 0)
(0.353972 -2.0541e-06 0)
(0.353972 -1.06897e-06 0)
(0.353972 -5.07396e-07 0)
(0.353972 -2.23695e-07 0)
(0.353971 -1.05154e-07 0)
(0.353971 -5.11623e-08 0)
(0.353971 -1.77692e-10 0)
(0.353971 9.18193e-09 0)
(0.353971 -4.65238e-09 0)
(0.353971 1.99405e-08 0)
(0.353971 1.31505e-08 0)
(0.353971 -6.28806e-09 0)
(0.353971 -6.39411e-09 0)
(0.353971 7.9746e-09 0)
(0.353971 2.16005e-08 0)
(0.353971 -5.05681e-09 0)
(0.353971 -2.04754e-08 0)
(0.353971 7.36296e-09 0)
(0.353971 7.15582e-09 0)
(0.353971 -2.24751e-09 0)
(0.353971 4.37318e-09 0)
(0.353971 -7.71075e-09 0)
(0.353971 8.72415e-09 0)
(0.353971 4.36592e-09 0)
(0.353971 -2.20135e-08 0)
(0.353971 1.9338e-09 0)
(0.353971 1.27061e-08 0)
(0.353971 -1.05167e-10 0)
(0.353971 4.36459e-10 0)
(0.353971 -4.02199e-09 0)
(0.353971 -5.72053e-09 0)
(0.353971 8.90678e-09 0)
(0.353971 1.19949e-08 0)
(0.353971 -4.93283e-09 0)
(0.353971 -6.98655e-09 0)
(0.353971 3.19406e-09 0)
(0.353971 2.5978e-09 0)
(0.353971 4.50211e-09 0)
(0.353971 3.93932e-09 0)
(0.353971 -9.54909e-09 0)
(0.353971 -1.49219e-08 0)
(0.353971 -5.46025e-09 0)
(0.353971 5.17918e-09 0)
(0.353971 9.67007e-09 0)
(0.353971 3.63202e-09 0)
(0.353971 -9.96282e-09 0)
(0.353971 -1.40033e-08 0)
(0.353971 -4.33078e-09 0)
(0.353971 7.11072e-09 0)
(0.353971 1.26195e-08 0)
(0.353971 1.25456e-08 0)
(0.353971 5.79187e-09 0)
(0.353971 -3.2889e-09 0)
(0.353971 -8.25283e-09 0)
(0.353971 -8.9445e-09 0)
(0.353971 -5.16368e-09 0)
(0.353971 2.8852e-10 0)
(0.353971 -7.33344e-10 0)
(0.353972 1.16885e-09 0)
(0.353971 -9.26461e-09 0)
(0.353973 1.84446e-08 0)
(0.353969 -1.23471e-08 0)
(0.353977 5.41204e-08 0)
(0.353962 -5.03549e-08 0)
(0.353986 5.4088e-08 0)
(0.353953 -4.28231e-08 0)
(0.353993 -3.17569e-08 0)
(0.353953 1.04629e-07 0)
(0.353981 -1.21887e-07 0)
(0.353972 6.76224e-08 0)
(0.35397 8.46969e-09 0)
(0.771606 0.0207422 0)
(0.613335 0.22051 0)
(0.9008 -0.056024 0)
(0.87921 -0.24394 0)
(0.714896 -0.273243 0)
(0.580432 -0.225638 0)
(0.507764 -0.169528 0)
(0.458536 -0.118617 0)
(0.420881 -0.0792859 0)
(0.39656 -0.0526944 0)
(0.381178 -0.0350019 0)
(0.370929 -0.0231642 0)
(0.364307 -0.0152479 0)
(0.360216 -0.00993076 0)
(0.357722 -0.00637224 0)
(0.356212 -0.00402654 0)
(0.355307 -0.00250904 0)
(0.354767 -0.0015443 0)
(0.354445 -0.000940162 0)
(0.354253 -0.000566672 0)
(0.354138 -0.000338366 0)
(0.35407 -0.000200182 0)
(0.354029 -0.000117277 0)
(0.354005 -6.8044e-05 0)
(0.353991 -3.90698e-05 0)
(0.353983 -2.21193e-05 0)
(0.353978 -1.23729e-05 0)
(0.353975 -6.8213e-06 0)
(0.353973 -3.6539e-06 0)
(0.353973 -1.94098e-06 0)
(0.353972 -1.0045e-06 0)
(0.353972 -4.71445e-07 0)
(0.353972 -2.06598e-07 0)
(0.353972 -9.60974e-08 0)
(0.353971 -4.68359e-08 0)
(0.353971 4.03876e-09 0)
(0.353971 1.18607e-08 0)
(0.353971 -4.37744e-09 0)
(0.353971 1.97905e-08 0)
(0.353971 1.30957e-08 0)
(0.353971 -5.19782e-09 0)
(0.353971 -4.10069e-09 0)
(0.353971 6.45348e-09 0)
(0.353971 2.07191e-08 0)
(0.353971 -6.3615e-09 0)
(0.353971 -2.07759e-08 0)
(0.353971 8.37168e-09 0)
(0.353971 6.25666e-09 0)
(0.353971 -2.09025e-09 0)
(0.353971 4.63073e-09 0)
(0.353971 -7.34145e-09 0)
(0.353971 7.13466e-09 0)
(0.353971 5.43758e-09 0)
(0.353971 -2.24059e-08 0)
(0.353971 1.23544e-09 0)
(0.353971 1.43376e-08 0)
(0.353971 -2.63528e-09 0)
(0.353971 1.13438e-09 0)
(0.353971 -2.15104e-09 0)
(0.353971 -6.95568e-09 0)
(0.353971 9.82385e-09 0)
(0.353971 1.18772e-08 0)
(0.353971 -5.27755e-09 0)
(0.353971 -5.67329e-09 0)
(0.353971 2.75771e-09 0)
(0.353971 2.46688e-09 0)
(0.353971 5.13849e-09 0)
(0.353971 3.21101e-09 0)
(0.353971 -9.74909e-09 0)
(0.353971 -1.41873e-08 0)
(0.353971 -6.27443e-09 0)
(0.353971 4.65459e-09 0)
(0.353971 1.06033e-08 0)
(0.353971 3.20965e-09 0)
(0.353971 -1.10513e-08 0)
(0.353971 -1.34728e-08 0)
(0.353971 -3.33334e-09 0)
(0.353971 6.86616e-09 0)
(0.353971 1.22687e-08 0)
(0.353971 1.34674e-08 0)
(0.353971 6.32988e-09 0)
(0.353971 -3.82558e-09 0)
(0.353971 -9.01554e-09 0)
(0.353971 -8.82067e-09 0)
(0.353971 -5.02825e-09 0)
(0.353971 -1.41053e-10 0)
(0.353971 -1.96625e-09 0)
(0.353972 1.93736e-09 0)
(0.353971 -1.04342e-08 0)
(0.353973 2.36483e-08 0)
(0.353969 -1.93965e-08 0)
(0.353977 6.56697e-08 0)
(0.353962 -6.83408e-08 0)
(0.353986 7.15537e-08 0)
(0.353953 -5.38526e-08 0)
(0.353993 -3.75969e-08 0)
(0.353953 1.37254e-07 0)
(0.353981 -1.60079e-07 0)
(0.353972 8.77151e-08 0)
(0.35397 1.06655e-08 0)
(0.705477 0.0233142 0)
(0.699459 0.193923 0)
(0.920757 -0.0583526 0)
(0.880913 -0.229127 0)
(0.723833 -0.255269 0)
(0.594303 -0.208778 0)
(0.520674 -0.155736 0)
(0.468468 -0.10865 0)
(0.427398 -0.0725138 0)
(0.400655 -0.0483205 0)
(0.383913 -0.0322769 0)
(0.372807 -0.0214589 0)
(0.365579 -0.0141744 0)
(0.361061 -0.00926469 0)
(0.358275 -0.00596666 0)
(0.356568 -0.00378247 0)
(0.355532 -0.00236304 0)
(0.354907 -0.00145723 0)
(0.354532 -0.000888311 0)
(0.354306 -0.000535812 0)
(0.35417 -0.00032001 0)
(0.354089 -0.000189284 0)
(0.354041 -0.000110831 0)
(0.354012 -6.42396e-05 0)
(0.353995 -3.68399e-05 0)
(0.353985 -2.08224e-05 0)
(0.353979 -1.1617e-05 0)
(0.353976 -6.38826e-06 0)
(0.353974 -3.41023e-06 0)
(0.353973 -1.80143e-06 0)
(0.353972 -9.23414e-07 0)
(0.353972 -4.27543e-07 0)
(0.353972 -1.86181e-07 0)
(0.353972 -8.49198e-08 0)
(0.353971 -3.92736e-08 0)
(0.353971 9.13889e-09 0)
(0.353971 1.47415e-08 0)
(0.353971 -3.60712e-09 0)
(0.353971 1.96152e-08 0)
(0.353971 1.31164e-08 0)
(0.353971 -3.67289e-09 0)
(0.353971 -1.49911e-09 0)
(0.353971 4.59615e-09 0)
(0.353971 1.77911e-08 0)
(0.353971 -7.34671e-09 0)
(0.353971 -1.99386e-08 0)
(0.353971 9.67899e-09 0)
(0.353971 5.40768e-09 0)
(0.353971 -2.53197e-09 0)
(0.353971 5.59121e-09 0)
(0.353971 -7.06332e-09 0)
(0.353971 5.276e-09 0)
(0.353971 6.16375e-09 0)
(0.353971 -2.16102e-08 0)
(0.353971 1.29229e-09 0)
(0.353971 1.49708e-08 0)
(0.353971 -4.66466e-09 0)
(0.353971 1.15612e-09 0)
(0.353971 -3.96105e-11 0)
(0.353971 -7.02872e-09 0)
(0.353971 9.13321e-09 0)
(0.353971 1.13619e-08 0)
(0.353971 -5.09336e-09 0)
(0.353971 -4.85288e-09 0)
(0.353971 2.94372e-09 0)
(0.353971 2.11771e-09 0)
(0.353971 4.48684e-09 0)
(0.353971 2.78141e-09 0)
(0.353971 -9.14408e-09 0)
(0.353971 -1.33986e-08 0)
(0.353971 -6.2345e-09 0)
(0.353971 4.29153e-09 0)
(0.353971 9.90788e-09 0)
(0.353971 2.51094e-09 0)
(0.353971 -1.09174e-08 0)
(0.353971 -1.23794e-08 0)
(0.353971 -2.27041e-09 0)
(0.353971 7.09537e-09 0)
(0.353971 1.14944e-08 0)
(0.353971 1.25173e-08 0)
(0.353971 6.22959e-09 0)
(0.353971 -3.5878e-09 0)
(0.353971 -9.05961e-09 0)
(0.353971 -8.67172e-09 0)
(0.353971 -4.94979e-09 0)
(0.353971 1.13278e-10 0)
(0.353971 -2.66958e-09 0)
(0.353972 2.84787e-09 0)
(0.353971 -1.20584e-08 0)
(0.353973 2.8436e-08 0)
(0.353969 -2.72082e-08 0)
(0.353977 7.76021e-08 0)
(0.353962 -8.7219e-08 0)
(0.353986 9.08307e-08 0)
(0.353953 -6.58478e-08 0)
(0.353993 -4.26138e-08 0)
(0.353953 1.71004e-07 0)
(0.353981 -2.01319e-07 0)
(0.353972 1.09132e-07 0)
(0.35397 1.34834e-08 0)
(0.687844 0.0118729 0)
(0.747289 0.150008 0)
(0.918933 -0.0572367 0)
(0.878407 -0.20845 0)
(0.73549 -0.233794 0)
(0.609259 -0.190526 0)
(0.532963 -0.142336 0)
(0.47882 -0.0997466 0)
(0.434978 -0.0660539 0)
(0.405293 -0.0436218 0)
(0.386664 -0.0291729 0)
(0.374535 -0.019514 0)
(0.366716 -0.012967 0)
(0.36182 -0.00852064 0)
(0.358778 -0.00551298 0)
(0.356895 -0.00350778 0)
(0.355741 -0.00219742 0)
(0.355039 -0.00135768 0)
(0.354613 -0.000828594 0)
(0.354356 -0.000500059 0)
(0.3542 -0.000298642 0)
(0.354107 -0.000176553 0)
(0.354051 -0.000103284 0)
(0.354018 -5.97762e-05 0)
(0.353999 -3.42187e-05 0)
(0.353987 -1.92981e-05 0)
(0.35398 -1.07285e-05 0)
(0.353976 -5.87872e-06 0)
(0.353974 -3.12407e-06 0)
(0.353973 -1.63603e-06 0)
(0.353972 -8.27648e-07 0)
(0.353972 -3.7701e-07 0)
(0.353972 -1.63109e-07 0)
(0.353972 -7.15004e-08 0)
(0.353971 -2.94081e-08 0)
(0.353971 1.46182e-08 0)
(0.353971 1.76215e-08 0)
(0.353971 -2.76669e-09 0)
(0.353971 1.93449e-08 0)
(0.353971 1.38545e-08 0)
(0.353971 -1.63678e-09 0)
(0.353971 6.45332e-10 0)
(0.353971 2.18446e-09 0)
(0.353971 1.41918e-08 0)
(0.353971 -7.72293e-09 0)
(0.353971 -1.86697e-08 0)
(0.353971 1.08708e-08 0)
(0.353971 4.82461e-09 0)
(0.353971 -3.15561e-09 0)
(0.353971 6.47551e-09 0)
(0.353971 -6.74686e-09 0)
(0.353971 3.48474e-09 0)
(0.353971 6.76286e-09 0)
(0.353971 -2.03071e-08 0)
(0.353971 1.06031e-09 0)
(0.353971 1.50795e-08 0)
(0.353971 -6.18549e-09 0)
(0.353971 9.79281e-10 0)
(0.353971 2.04903e-09 0)
(0.353971 -7.03992e-09 0)
(0.353971 7.86527e-09 0)
(0.353971 1.1028e-08 0)
(0.353971 -4.60955e-09 0)
(0.353971 -4.23625e-09 0)
(0.353971 3.14384e-09 0)
(0.353971 1.77798e-09 0)
(0.353971 3.78835e-09 0)
(0.353971 2.69461e-09 0)
(0.353971 -8.34101e-09 0)
(0.353971 -1.26199e-08 0)
(0.353971 -6.04988e-09 0)
(0.353971 3.81478e-09 0)
(0.353971 9.03179e-09 0)
(0.353971 1.99066e-09 0)
(0.353971 -1.03834e-08 0)
(0.353971 -1.12245e-08 0)
(0.353971 -1.37445e-09 0)
(0.353971 7.22276e-09 0)
(0.353971 1.04261e-08 0)
(0.353971 1.11641e-08 0)
(0.353971 6.19077e-09 0)
(0.353971 -2.95083e-09 0)
(0.353971 -8.82873e-09 0)
(0.353971 -8.41284e-09 0)
(0.353971 -4.69624e-09 0)
(0.353971 4.80039e-10 0)
(0.353971 -3.45154e-09 0)
(0.353972 3.69913e-09 0)
(0.353971 -1.38041e-08 0)
(0.353973 3.32083e-08 0)
(0.353969 -3.56439e-08 0)
(0.353977 8.99955e-08 0)
(0.353962 -1.06989e-07 0)
(0.353986 1.12106e-07 0)
(0.353952 -7.95326e-08 0)
(0.353993 -4.6721e-08 0)
(0.353953 2.06093e-07 0)
(0.353981 -2.46084e-07 0)
(0.353972 1.3244e-07 0)
(0.35397 1.72332e-08 0)
(0.70271 0.00154422 0)
(0.772059 0.116074 0)
(0.908232 -0.0503777 0)
(0.868899 -0.189855 0)
(0.7363 -0.216024 0)
(0.614071 -0.1724 0)
(0.536229 -0.126027 0)
(0.482144 -0.0889137 0)
(0.439277 -0.0595068 0)
(0.409284 -0.0393086 0)
(0.38957 -0.0262727 0)
(0.376412 -0.0176065 0)
(0.367882 -0.0117329 0)
(0.362553 -0.00773785 0)
(0.359247 -0.00502587 0)
(0.357197 -0.00320832 0)
(0.355933 -0.00201471 0)
(0.35516 -0.00124685 0)
(0.354688 -0.000761651 0)
(0.354402 -0.00045977 0)
(0.354228 -0.000274471 0)
(0.354124 -0.000162112 0)
(0.354061 -9.47065e-05 0)
(0.354024 -5.46973e-05 0)
(0.354002 -3.12314e-05 0)
(0.353989 -1.75603e-05 0)
(0.353981 -9.71726e-06 0)
(0.353977 -5.29813e-06 0)
(0.353975 -2.79669e-06 0)
(0.353973 -1.44672e-06 0)
(0.353972 -7.19658e-07 0)
(0.353972 -3.21014e-07 0)
(0.353972 -1.36672e-07 0)
(0.353972 -5.55236e-08 0)
(0.353971 -1.79679e-08 0)
(0.353971 2.05247e-08 0)
(0.353971 2.03324e-08 0)
(0.353971 -1.96221e-09 0)
(0.353971 1.9382e-08 0)
(0.353971 1.54422e-08 0)
(0.353971 5.08841e-10 0)
(0.353971 2.05573e-09 0)
(0.353971 -5.10525e-10 0)
(0.353971 1.04355e-08 0)
(0.353971 -7.88942e-09 0)
(0.353971 -1.71943e-08 0)
(0.353971 1.19844e-08 0)
(0.353971 4.54204e-09 0)
(0.353971 -3.84443e-09 0)
(0.353971 7.21613e-09 0)
(0.353971 -6.32867e-09 0)
(0.353971 1.755e-09 0)
(0.353971 7.18132e-09 0)
(0.353971 -1.88234e-08 0)
(0.353971 7.84386e-10 0)
(0.353971 1.50265e-08 0)
(0.353971 -7.16813e-09 0)
(0.353971 7.2864e-10 0)
(0.353971 3.78333e-09 0)
(0.353971 -6.90189e-09 0)
(0.353971 6.66901e-09 0)
(0.353971 1.06746e-08 0)
(0.353971 -4.15932e-09 0)
(0.353971 -3.8913e-09 0)
(0.353971 3.27135e-09 0)
(0.353971 1.60985e-09 0)
(0.353971 3.09749e-09 0)
(0.353971 2.47067e-09 0)
(0.353971 -7.66655e-09 0)
(0.353971 -1.18912e-08 0)
(0.353971 -5.68762e-09 0)
(0.353971 3.62131e-09 0)
(0.353971 8.14138e-09 0)
(0.353971 1.26096e-09 0)