/*--------------------------------*- C++ -*----------------------------------*\
| =========                 |                                                 |
| \\      /  F ield         | OpenFOAM: The Open Source CFD Toolbox           |
|  \\    /   O peration     | Version:  2.4.0                                 |
|   \\  /    A nd           | Web:      www.OpenFOAM.org                      |
|    \\/     M anipulation  |                                                 |
\*---------------------------------------------------------------------------*/
FoamFile
{
    version     2.0;
    format      ascii;
    class       volScalarField;
    location    "1.55";
    object      k_0;
}
// * * * * * * * * * * * * * * * * * * * * * * * * * * * * * * * * * * * * * //

dimensions      [0 2 -2 0 0 0 0];

internalField   nonuniform List<scalar> 
8800
(
8.10883
10.2821
8.77725
6.84564
5.68134
5.00225
4.49217
4.18715
3.86277
3.72239
3.49057
3.42191
3.24574
3.21476
3.064
3.04201
2.91573
2.88938
2.86178
2.67443
1.38954
4.36756
5.3077
5.29362
5.11153
4.85011
4.53132
4.3402
4.05939
3.94445
3.71565
3.63788
3.47033
3.42202
3.29065
3.2528
3.14894
3.1118
3.02084
3.02416
0.083276
0.746871
1.54551
1.9611
2.24541
2.4748
2.54305
2.62223
2.61647
2.60945
2.57358
2.55602
2.51071
2.48387
2.44875
2.418
2.38998
2.35558
2.30196
2.2873
0.00327904
0.0712608
0.249074
0.431193
0.568318
0.723069
0.825084
0.928067
1.03617
1.08804
1.16304
1.2057
1.26853
1.29082
1.34413
1.35825
1.40328
1.40157
1.40855
1.39983
0.000118376
0.00506406
0.0244891
0.0504089
0.0825451
0.12693
0.166762
0.195788
0.254764
0.278251
0.32567
0.348559
0.395596
0.416911
0.466168
0.486233
0.536061
0.550759
0.582713
0.59249
2.54391e-05
0.000323088
0.0017898
0.00371867
0.00667125
0.012113
0.0192254
0.024193
0.0359487
0.0417637
0.0539828
0.0605609
0.0734021
0.0807546
0.0969796
0.104812
0.122129
0.134817
0.140888
0.154819
2.22268e-05
4.62667e-05
0.000149507
0.000295492
0.000417739
0.000818521
0.00121648
0.00196878
0.00275711
0.00377075
0.00451509
0.00617117
0.00705529
0.00914675
0.0105271
0.0133764
0.0151303
0.0193974
0.0205527
0.0248863
2.1304e-05
3.0281e-05
5.60137e-05
8.49967e-05
8.66117e-05
9.92158e-05
0.000122035
0.000189809
0.000224967
0.00029164
0.000322765
0.000446114
0.000483769
0.000634721
0.000706943
0.000972415
0.0011081
0.00161755
0.00172979
0.00256775
2.08328e-05
2.76447e-05
3.96425e-05
7.1918e-05
7.50677e-05
7.05047e-05
6.76711e-05
7.76064e-05
9.04857e-05
9.32871e-05
9.37435e-05
0.000100983
0.00010036
0.000102999
0.000108271
0.000137117
0.000145778
0.000167759
0.000166932
0.000200923
2.06608e-05
2.8864e-05
3.54598e-05
5.40187e-05
7.20301e-05
7.32944e-05
6.73315e-05
6.46745e-05
7.03573e-05
7.71917e-05
7.76085e-05
7.98271e-05
8.10383e-05
7.96351e-05
7.95602e-05
8.42073e-05
8.97618e-05
8.97917e-05
8.90135e-05
9.07447e-05
2.0616e-05
2.82972e-05
3.65847e-05
5.64226e-05
6.79201e-05
7.1606e-05
6.92119e-05
6.93786e-05
7.05084e-05
7.5581e-05
8.06013e-05
8.69167e-05
8.57305e-05
8.27536e-05
8.34718e-05
9.24703e-05
9.60907e-05
9.58415e-05
9.49934e-05
9.97032e-05
2.07205e-05
2.73873e-05
5.22621e-05
6.45451e-05
6.18858e-05
6.18186e-05
7.43876e-05
8.89369e-05
8.88913e-05
8.67952e-05
8.99807e-05
9.37877e-05
9.64177e-05
0.000108371
0.000132502
0.000141259
0.000143002
0.000147809
0.0001631
0.000227365
2.10709e-05
3.05416e-05
4.99185e-05
7.20877e-05
8.51725e-05
0.00012179
0.000145948
0.000184784
0.000204038
0.000273271
0.000331605
0.000435916
0.000502742
0.000700522
0.000823124
0.00104904
0.00119742
0.00158627
0.00194862
0.0028171
2.16458e-05
4.29568e-05
0.000118431
0.000376852
0.000542713
0.00089455
0.00122243
0.0020046
0.00252745
0.00395389
0.00471226
0.00638615
0.00736667
0.00983469
0.0111629
0.0142246
0.0161043
0.0206774
0.0237526
0.0318334
2.49641e-05
0.000304398
0.00144574
0.00504775
0.00755
0.0127585
0.0172059
0.0267222
0.032168
0.0452439
0.0515055
0.0647689
0.0715334
0.0874294
0.0948811
0.112154
0.121877
0.14575
0.159417
0.197723
0.000124193
0.0048951
0.0217671
0.0590058
0.0853684
0.122734
0.162454
0.208378
0.235375
0.292432
0.315891
0.362079
0.384825
0.435394
0.456415
0.505335
0.530667
0.593447
0.62374
0.703255
0.0033711
0.0692635
0.258436
0.425221
0.581114
0.698669
0.841721
0.928923
1.01829
1.10314
1.15696
1.21386
1.25859
1.31165
1.33297
1.38043
1.40428
1.46205
1.48431
1.53927
0.0845758
0.725079
1.56901
1.94146
2.27856
2.4301
2.58392
2.59604
2.62489
2.59931
2.58838
2.53977
2.52488
2.47609
2.46081
2.41879
2.41134
2.38683
2.37488
2.34906
1.40577
4.34761
5.32349
5.28578
5.132
4.79815
4.58535
4.27627
4.13129
3.86594
3.77817
3.57851
3.51922
3.3647
3.3283
3.19933
3.16878
3.04848
3.00615
2.90001
8.1191
10.2613
8.79894
6.81018
5.71785
4.95837
4.53639
4.13014
3.92678
3.64577
3.55393
3.34647
3.30018
3.12953
3.09957
2.9364
2.89723
2.71156
2.64155
2.41379
1.8912
1.42195
1.11899
0.945965
0.799949
0.72306
0.653588
0.623563
0.588108
0.574646
0.554151
0.548218
0.535698
0.532023
0.523591
0.520897
0.514207
0.512175
0.50919
0.508989
0.509319
0.511742
0.514854
0.520545
0.521626
0.522892
0.522081
0.520077
0.517054
0.517249
0.520599
0.532954
0.570347
0.612905
0.630858
0.628389
0.557701
0.388393
0.291886
0.242131
0.22154
0.215058
0.216402
0.221759
0.222777
0.222248
0.220389
0.214472
0.210086
0.206404
0.197603
0.181563
0.169283
0.168011
0.17177
0.189768
0.200277
0.197957
0.188897
0.165413
0.10933
0.0723252
0.0447855
0.0360976
0.0327941
0.0316815
0.0329123
0.0364626
0.0438668
0.0654163
0.137325
0.330371
0.409407
0.393416
0.345514
0.289179
0.24225
0.207344
0.193842
0.181083
0.178063
0.173328
0.164645
0.155463
0.147284
0.134125
0.1177
0.103906
0.0895516
0.0818919
0.0766803
0.0711453
0.0675017
0.0581887
0.0495857
0.0505272
0.0663217
0.133704
0.319648
0.404577
0.402454
0.372651
0.297053
0.215028
0.161955
0.141335
0.135123
0.134222
0.131418
0.124526
0.11983
0.120214
0.12937
0.133468
0.128322
0.122993
0.124381
0.138989
0.154894
0.161004
0.160813
0.15524
0.140152
0.126132
0.115459
0.104312
0.0808753
0.0549548
0.0354919
0.0257035
0.0216076
0.0208188
0.0237641
0.043102
0.0624636
0.0717568
0.0741874
0.0731746
0.0684463
0.0666422
0.0667601
0.0696072
0.0714257
0.0706138
0.066757
0.0638137
0.0606342
0.0587029
0.0582513
0.0572343
0.0573156
0.0574276
0.0573141
0.0574588
0.0592365
0.0605765
0.0638215
0.0741192
0.0873187
0.123302
0.162446
0.196115
0.298299
0.381798
0.405632
0.390435
0.292274
0.196117
0.140461
0.102577
0.0863899
0.0771021
0.0606587
0.0532775
0.0482055
0.0475431
0.0482588
0.0517355
0.0648264
0.103482
0.124518
0.124553
0.106488
0.0782352
0.0696068
0.0706384
0.0832536
0.112354
0.120075
0.119379
0.114822
0.102636
0.0695371
0.0435684
0.0363593
0.036934
0.0441646
0.0517732
0.107558
0.939272
2.58401
2.13171
1.7845
1.54989
1.35836
1.22396
1.10917
1.02898
0.959033
0.908635
0.861105
0.826943
0.792086
0.767783
0.742139
0.723094
0.703532
0.686173
0.669299
0.651953
0.635298
0.619902
0.601553
0.58688
0.570154
0.553548
0.537155
0.523212
0.507992
0.491562
0.479423
0.475002
0.476622
0.48779
0.520304
0.614309
0.673702
0.671691
0.62605
0.469208
0.339554
0.281558
0.255636
0.243928
0.235118
0.229284
0.222797
0.21426
0.2049
0.191723
0.179209
0.176039
0.17867
0.191189
0.212665
0.213576
0.209407
0.196568
0.165381
0.109543
0.0686616
0.0408098
0.0294453
0.0238338
0.0238992
0.023067
0.0219914
0.0226016
0.0244137
0.0313145
0.0538097
0.12349
0.251323
0.331213
0.326981
0.305298
0.270973
0.243762
0.223564
0.204872
0.19435
0.181637
0.168478
0.156928
0.142881
0.124485
0.109636
0.0959334
0.0837804
0.0800904
0.0721578
0.0673019
0.0611632
0.0492353
0.0452861
0.0527707
0.107292
0.293433
0.438291
0.450558
0.415071
0.312951
0.196016
0.146265
0.127592
0.122711
0.123545
0.125779
0.125713
0.122631
0.117874
0.116881
0.120552
0.124801
0.11983
0.110114
0.109438
0.124333
0.149386
0.1611
0.162253
0.159704
0.142909
0.12428
0.115395
0.102829
0.0776603
0.0496479
0.0320426
0.0231064
0.019746
0.0190556
0.0214696
0.0385477
0.0584807
0.0691609
0.0713795
0.0702744
0.0680031
0.0661736
0.0662778
0.0686021
0.072953
0.075017
0.0732676
0.0715618
0.0707005
0.0675278
0.0681239
0.0665109
0.065434
0.0620198
0.0596275
0.0589751
0.0605932
0.0615127
0.0660422
0.075133
0.0887549
0.121353
0.152854
0.181531
0.276447
0.390282
0.417271
0.403395
0.295584
0.196871
0.13679
0.101187
0.0917176
0.0770613
0.0608855
0.0534419
0.0454274
0.0438889
0.0438019
0.046411
0.054075
0.0883267
0.115287
0.120657
0.110555
0.0794698
0.0651722
0.0642129
0.0687206
0.0900325
0.110999
0.115608
0.114722
0.108464
0.0899442
0.0579228
0.0411109
0.0380653
0.0436325
0.0522169
0.109216
0.445469
2.07482
1.84625
1.6311
1.46383
1.32495
1.21172
1.11864
1.04019
0.974171
0.920355
0.872098
0.834449
0.798211
0.766201
0.737361
0.709201
0.68637
0.663747
0.644141
0.62427
0.602323
0.583063
0.557989
0.534202
0.512132
0.484098
0.46169
0.439247
0.416462
0.398048
0.385189
0.372688
0.371675
0.374424
0.38194
0.397267
0.427501
0.517413
0.574834
0.573824
0.551395
0.490649
0.408367
0.335074
0.289315
0.26293
0.245591
0.229872
0.215603
0.213896
0.21647
0.228191
0.239639
0.23861
0.233364
0.220694
0.198803
0.152203
0.0931526
0.0515497
0.0307342
0.0200581
0.0168441
0.0166412
0.0169084
0.0178626
0.0175523
0.0173596
0.0180035
0.0198369
0.0256426
0.0439772
0.093276
0.175213
0.244567
0.264061
0.257403
0.241665
0.2216
0.205792
0.191906
0.179534
0.163596
0.146687
0.129187
0.110189
0.0995309
0.086417
0.0782521
0.0739983
0.0659208
0.0578385
0.0530088
0.0411861
0.0421137
0.0690329
0.223023
0.445646
0.50347
0.472028
0.353009
0.202161
0.142278
0.120795
0.114629
0.114896
0.11702
0.117791
0.117622
0.1169
0.116869
0.117149
0.120334
0.12234
0.115959
0.108573
0.108922
0.125785
0.149486
0.163554
0.167398
0.166005
0.143689
0.123716
0.11453
0.0985672
0.0713858
0.0438586
0.0287788
0.0203749
0.0178981
0.0177508
0.0206302
0.0368336
0.0563742
0.067372
0.0694023
0.0692769
0.0671188
0.0650293
0.0651919
0.0664742
0.0723366
0.0759813
0.0759271
0.0768712
0.0770949
0.0751997
0.073836
0.0688957
0.0661972
0.0626509
0.0595523
0.0592456
0.0605406
0.0620787
0.0669105
0.0761574
0.0873659
0.114898
0.138981
0.159062
0.252923
0.396403
0.43218
0.41685
0.292799
0.18826
0.134019
0.106739
0.0924221
0.074552
0.0643288
0.0531774
0.0459818
0.041617
0.0402773
0.0419283
0.0470608
0.0761142
0.107214
0.115435
0.110382
0.0834111
0.0633681
0.0592525
0.0606129
0.0689007
0.090605
0.104177
0.111171
0.108382
0.0935955
0.0813028
0.054311
0.0417257
0.0513614
0.0545273
0.103608
0.241448
1.31364
1.22136
1.12211
1.03383
0.959361
0.892744
0.839718
0.787155
0.739842
0.699291
0.659958
0.63208
0.60611
0.582398
0.560957
0.536346
0.513735
0.490663
0.470098
0.452939
0.433255
0.416713
0.398983
0.37375
0.353853
0.328016
0.300412
0.279078
0.25643
0.234045
0.223409
0.21497
0.212974
0.214831
0.221152
0.232382
0.255123
0.281755
0.332169
0.425474
0.480394
0.480427
0.471132
0.448723
0.413368
0.378376
0.35238
0.330345
0.314335
0.306079
0.299149
0.283005
0.266754
0.246116
0.215414
0.17031
0.108687
0.0616264
0.0352113
0.0213203
0.013924
0.011344
0.00974972
0.00972349
0.0103938
0.0111138
0.0118756
0.0132556
0.0156789
0.0169665
0.0187348
0.0231918
0.0353256
0.0676373
0.114096
0.154163
0.1892
0.196234
0.19263
0.184658
0.171479
0.155998
0.136746
0.123408
0.10508
0.0937662
0.085904
0.0752595
0.0721831
0.066725
0.0531743
0.0491662
0.0395448
0.0321128
0.0426549
0.118449
0.392772
0.547882
0.547555
0.447826
0.243555
0.15316
0.119484
0.109646
0.108975
0.11047
0.112461
0.112609
0.110907
0.10954
0.110936
0.118351
0.124082
0.124531
0.117283
0.113321
0.115501
0.132843
0.152958
0.168114
0.172735
0.168081
0.139774
0.121001
0.110269
0.0931464
0.0628878
0.0391924
0.0251063
0.0186861
0.0166094
0.0164203
0.0193896
0.0355453
0.055569
0.067013
0.0693715
0.0695113
0.0672467
0.0650409
0.0630083
0.0629894
0.0692166
0.0734281
0.0748943
0.0774214
0.0766116
0.0759567
0.0741845
0.067485
0.0634517
0.060523
0.0574598
0.0577032
0.0606363
0.0630954
0.0679457
0.0752184
0.079147
0.0979553
0.120243
0.139239
0.229699
0.3965
0.455943
0.42522
0.276007
0.179092
0.135999
0.111185
0.0861486
0.0731315
0.063956
0.0527444
0.0495305
0.0420897
0.0400513
0.0399876
0.0430227
0.0638955
0.0994403
0.112396
0.109229
0.0871108
0.0641209
0.0545279
0.0548952
0.0581205
0.0680829
0.0875497
0.100038
0.10455
0.0985469
0.0837214
0.0755535
0.0535429
0.0915341
0.0670798
0.0827457
0.150892
0.572324
0.550877
0.519337
0.490699
0.463071
0.437113
0.417699
0.400248
0.380809
0.362858
0.341285
0.320789
0.307018
0.293181
0.285618
0.275951
0.265825
0.252471
0.235011
0.222808
0.205771
0.193731
0.185588
0.172509
0.164725
0.153601
0.136851
0.120433
0.104982
0.0908642
0.080396
0.0753973
0.0750957
0.0763983
0.081641
0.0904715
0.0987376
0.11543
0.137302
0.163004
0.220537
0.277496
0.33387
0.36195
0.362053
0.356995
0.343453
0.329581
0.312605
0.293455
0.268411
0.2324
0.19278
0.143355
0.0922769
0.0569312
0.0340002
0.0207481
0.0129333
0.00878216
0.00670082
0.0061528
0.00640421
0.00708256
0.0084354
0.00973685
0.0102142
0.0110596
0.0127993
0.0137188
0.0142395
0.0152125
0.0178375
0.024962
0.0399174
0.0655874
0.0933448
0.110638
0.122546
0.123049
0.120957
0.115367
0.107591
0.0996539
0.0875251
0.0829659
0.0741181
0.066375
0.0624276
0.0480084
0.0394138
0.0314323
0.0219014
0.0256082
0.060056
0.247913
0.534874
0.623775
0.569262
0.344858
0.192454
0.129432
0.108924
0.104288
0.104339
0.107771
0.111696
0.111952
0.109851
0.108055
0.109162
0.117082
0.122481
0.121893
0.11908
0.118783
0.12625
0.145543
0.161548
0.170297
0.173784
0.163943
0.131712
0.113166
0.103754
0.0822431
0.0535652
0.0334157
0.0225949
0.0174785
0.0155261
0.015305
0.0172912
0.0304656
0.0536802
0.065811
0.0699761
0.0704655
0.0694232
0.0672277
0.0622834
0.0601357
0.0621748
0.0638473
0.0685361
0.0711404
0.0700444
0.069275
0.0660897
0.0595733
0.0584151
0.0578465
0.0568451
0.0571253
0.0616096
0.064144
0.0692567
0.069596
0.0690873
0.0803122
0.109602
0.13068
0.20044
0.410188
0.474934
0.42856
0.268472
0.178007
0.146588
0.113876
0.0828243
0.0716896
0.05648
0.0499686
0.0498452
0.0435608
0.0404256
0.039957
0.0414381
0.0557766
0.0903784
0.105703
0.105866
0.0903155
0.0668724
0.0548479
0.049898
0.0513991
0.0561765
0.0696636
0.0865232
0.0948525
0.0991479
0.0931662
0.113548
0.0874828
0.0988373
0.0887875
0.0853105
0.114979
0.152344
0.14947
0.14358
0.137345
0.131562
0.124848
0.121096
0.118564
0.114515
0.111632
0.10598
0.0992893
0.0939141
0.0886708
0.0855091
0.0835939
0.0817191
0.0782641
0.0729345
0.0683304
0.0617922
0.057061
0.0527657
0.0486159
0.0465416
0.0444234
0.0406558
0.0368459
0.0321678
0.0276315
0.0240501
0.0218845
0.0215647
0.0218015
0.0231379
0.0259338
0.0287303
0.0353242
0.0422624
0.0503813
0.0656891
0.0856849
0.109383
0.135196
0.157826
0.174427
0.174861
0.169783
0.156814
0.135243
0.107547
0.0811316
0.0579866
0.0392725
0.0257814
0.0164291
0.0105581
0.00689794
0.00483833
0.00399943
0.00403737
0.00432769
0.00506675
0.00622725
0.00761744
0.00934064
0.0100072
0.0101859
0.0110682
0.0119716
0.0121392
0.0121511
0.0123799
0.0134671
0.0163872
0.0234108
0.034494
0.0495285
0.0610287
0.0670964
0.0728334
0.0726362
0.0714544
0.067861
0.0636564
0.0602382
0.0499683
0.0449191
0.0348257
0.0216836
0.0191896
0.0152685
0.0163879
0.0298255
0.108317
0.41068
0.661506
0.691119
0.543279
0.279108
0.156893
0.113739
0.100927
0.0983453
0.100263
0.104192
0.111435
0.113889
0.112882
0.11084
0.110562
0.113426
0.118187
0.121655
0.124016
0.130176
0.14468
0.158177
0.166564
0.17225
0.173326
0.153961
0.120279
0.101259
0.0927978
0.0673878
0.0435259
0.0275005
0.020068
0.0162085
0.0157937
0.0152225
0.0159957
0.0242271
0.0474762
0.0612779
0.0708739
0.0722711
0.0721692
0.0711544
0.0647005
0.0612258
0.0587298
0.0583059
0.0603178
0.0601469
0.0587967
0.0595476
0.0584656
0.0566487
0.057471
0.0579364
0.0570445
0.0573661
0.0632165
0.0661053
0.0658002
0.0629201
0.0631629
0.0730862
0.104133
0.126968
0.194008
0.425042
0.482431
0.428675
0.268902
0.190563
0.163527
0.118765
0.0835932
0.0660881
0.0513445
0.0463266
0.0450822
0.0417709
0.0394796
0.0396806
0.041495
0.0529145
0.0877788
0.101837
0.105282
0.0925612
0.0681838
0.057579
0.0500244
0.0473358
0.0493285
0.0534635
0.0637412
0.076869
0.10283
0.0998652
0.108165
0.0995667
0.0940197
0.0948164
0.0907232
0.0991427
0.0246667
0.0242021
0.0231017
0.0220468
0.0212105
0.0202977
0.0199104
0.0197688
0.0196369
0.0194947
0.0189958
0.0178296
0.0168589
0.0160121
0.0155932
0.0153423
0.0152101
0.0150905
0.0146772
0.0134325
0.0119435
0.0109368
0.0100723
0.00941073
0.00897659
0.00867544
0.00843404
0.00787407
0.00687464
0.00589062
0.00512959
0.0047628
0.00474269
0.00480255
0.00508233
0.00569984
0.006382
0.00807918
0.00985452
0.0122949
0.0151496
0.0210965
0.0277807
0.0341227
0.0427954
0.0486729
0.0488671
0.0474235
0.0432235
0.0364476
0.0288054
0.0212324
0.0151191
0.01032
0.0068971
0.00470549
0.00330526
0.00263282
0.00266593
0.00285786
0.00321449
0.00391841
0.00571571
0.00709236
0.00756764
0.00813201
0.00962248
0.0109846
0.0116658
0.0117434
0.0116987
0.0114912
0.0108105
0.0107246
0.0109641
0.0119778
0.0141623
0.0191612
0.0245806
0.0289579
0.0342156
0.0368224
0.0367296
0.0349074
0.0326878
0.0271
0.0220963
0.0180023
0.0124626
0.0109374
0.0110056
0.0116274
0.0161319
0.0485221
0.213332
0.577273
0.759698
0.748119
0.506296
0.252356
0.141252
0.104565
0.0963505
0.0968634
0.100183
0.104283
0.114175
0.119686
0.12084
0.120859
0.122809
0.123916
0.125972
0.135762
0.146744
0.156678
0.159074
0.167043
0.169435
0.173864
0.166761
0.134731
0.108704
0.0887411
0.0762901
0.0555961
0.0356601
0.0239015
0.017606
0.0162313
0.0161232
0.0153214
0.015982
0.0225641
0.031988
0.0521633
0.0694249
0.0712813
0.0716421
0.072225
0.0707912
0.0658493
0.0593584
0.0582131
0.0585974
0.0576959
0.0574256
0.0578723
0.056794
0.0563468
0.0576022
0.0574261
0.0560207
0.0580211
0.0649277
0.0660931
0.0634329
0.0609051
0.0614079
0.0711896
0.102465
0.127295
0.202137
0.43632
0.487364
0.433676
0.294156
0.212319
0.174228
0.127472
0.0871879
0.0636185
0.0494028
0.0438208
0.0395485
0.0394367
0.0384008
0.0389459
0.0405893
0.0498546
0.0863127
0.0999647
0.104076
0.0969208
0.0712569
0.0587661
0.0523617
0.0471337
0.046869
0.0512822
0.0615881
0.069605
0.0929871
0.0954138
0.0934617
0.095862
0.0928064
0.0964365
0.0921427
0.0940798
0.00258894
0.00255348
0.00244256
0.00232739
0.00223371
0.00217434
0.00217146
0.00218405
0.00219132
0.00217697
0.0020916
0.00197564
0.00189956
0.00185679
0.0018536
0.00186327
0.00187539
0.00187359
0.00180173
0.00161682
0.001425
0.00132394
0.00125221
0.00122145
0.00119958
0.00117887
0.0011605
0.0010622
0.000941712
0.000839691
0.00076994
0.000750546
0.00075222
0.000763233
0.000801387
0.000858113
0.000982904
0.00119668
0.001467
0.00212011
0.00264768
0.00371591
0.00530262
0.00646989
0.00878573
0.0103524
0.0103366
0.00993759
0.00907045
0.00745272
0.0058132
0.00440586
0.003232
0.00249676
0.00191823
0.00180147
0.00183478
0.00197581
0.00243072
0.00308392
0.0041728
0.00697357
0.0088788
0.00970217
0.0113445
0.0133187
0.0135999
0.0134792
0.0130706
0.0120401
0.0110936
0.0104075
0.00932237
0.00830703
0.00792955
0.00796439
0.00820874
0.00891504
0.0101648
0.0118306
0.0136356
0.0147057
0.0145715
0.014092
0.0128152
0.0106668
0.00989753
0.00799199
0.00752762
0.00791116
0.00892386
0.0112219
0.022707
0.0880973
0.367283
0.684951
0.844433
0.79482
0.493762
0.243782
0.135265
0.100945
0.0952804
0.0971711
0.100912
0.10795
0.118435
0.122559
0.128031
0.136101
0.142676
0.14444
0.151302
0.162167
0.164338
0.164238
0.164085
0.169599
0.169967
0.173185
0.145694
0.106411
0.0928321
0.0749567
0.0616921
0.045771
0.0297106
0.0215944
0.016943
0.0165513
0.0155418
0.015374
0.0174716
0.0216634
0.0269668
0.0446493
0.0607081
0.065169
0.0697637
0.0715575
0.0708606
0.0676961
0.0628384
0.0610891
0.0597641
0.0575415
0.0576608
0.0577679
0.0564154
0.0548296
0.0548668
0.0550438
0.0552507
0.0611502
0.065523
0.0654889
0.0623647
0.0610009
0.0618058
0.0729858
0.103499
0.131482
0.216176
0.444981
0.493345
0.462493
0.339705
0.221262
0.172422
0.131017
0.0941176
0.0643888
0.0487495
0.0423523
0.0376362
0.0375988
0.0383343
0.0395739
0.0409192
0.0506018
0.0833045
0.100922
0.102055
0.100513
0.0766344
0.0582072
0.0560473
0.0514901
0.0495059
0.0534143
0.0656023
0.0655859
0.0688941
0.0831543
0.0848183
0.0916678
0.0904633
0.0945902
0.0914904
0.0902575
0.000205678
0.000209887
0.000222354
0.00022697
0.000226365
0.000224032
0.000219346
0.000216535
0.000213315
0.000209245
0.000207842
0.000205049
0.000204992
0.000204987
0.000206013
0.000206835
0.000207283
0.000206448
0.000204278
0.000204161
0.000204272
0.000205427
0.000205047
0.000203025
0.000200848
0.000192201
0.000189198
0.000184349
0.000181521
0.000180243
0.000178443
0.000179118
0.000181966
0.00018554
0.000188449
0.000190807
0.000197551
0.000215449
0.00025067
0.000306065
0.000424635
0.0005979
0.000748064
0.00105667
0.00146651
0.00154767
0.00154564
0.00150648
0.00138975
0.00128705
0.00114324
0.00114005
0.0011654
0.00122757
0.00137691
0.00168741
0.00234837
0.00345973
0.00583008
0.00771052
0.0111582
0.0151505
0.0179644
0.0198196
0.0215811
0.0217375
0.0214597
0.0206798
0.0191843
0.0158764
0.0129389
0.0109739
0.00943244
0.00805425
0.00697344
0.00634627
0.00625292
0.00630328
0.00647882
0.00690335
0.00746833
0.00750753
0.00745974
0.00727756
0.00651609
0.00636874
0.00613618
0.00615341
0.00648553
0.00741822
0.00923497
0.0140548
0.0385455
0.17327
0.473058
0.786292
0.925099
0.844258
0.526352
0.255453
0.13473
0.0996446
0.0939546
0.0955775
0.100152
0.108854
0.119124
0.124153
0.132282
0.1422
0.146992
0.150794
0.159425
0.162198
0.163654
0.162771
0.16482
0.167774
0.167466
0.158745
0.120008
0.0812161
0.0755355
0.0625894
0.0502942
0.0383569
0.0267443
0.0204584
0.0173366
0.0165096
0.0157326
0.0161472
0.018422
0.0208738
0.0249613
0.0390403
0.0531631
0.0594133
0.0629251
0.0639047
0.0670489
0.0671196
0.0658699
0.0623767
0.059408
0.0571495
0.0567732
0.0556457
0.0522421
0.0513137
0.0518304
0.0542226
0.0605831
0.0649414
0.0662928
0.0648926
0.0649397
0.0660144
0.069564
0.0846738
0.112866
0.141432
0.232863
0.450061
0.51232
0.509596
0.37534
0.221697
0.163549
0.14175
0.110036
0.0700348
0.0494569
0.0474899
0.0451214
0.0379759
0.0375536
0.039267
0.0429088
0.0536055
0.0793328
0.104613
0.102559
0.098838
0.0873479
0.0613143
0.0581107
0.0637484
0.0630078
0.0580744
0.0651928
0.0628139
0.0621935
0.0683224
0.0708309
0.0817603
0.0834566
0.0878665
0.086898
0.0842263
9.32795e-05
9.72494e-05
0.000102467
0.000104834
0.000106248
0.00010751
0.000108599
0.000108746
0.000108199
0.000107943
0.000108063
0.000108408
0.000108338
0.000107473
0.000106188
0.000105392
0.00010551
0.000109933
0.000115455
0.00011857
0.000119973
0.000121262
0.000126927
0.000132333
0.000135811
0.000138288
0.000141737
0.000152109
0.000159388
0.000165108
0.00016625
0.00016546
0.000166398
0.000168515
0.000168063
0.000165968
0.000165128
0.00016583
0.000169803
0.000185507
0.000213774
0.000229473
0.000264194
0.000284267
0.000307191
0.000341893
0.000376019
0.000416094
0.000517664
0.000630146
0.000741893
0.00101309
0.00139342
0.00217464
0.00339773
0.00518496
0.00834711
0.0123163
0.0176075
0.0231825
0.0297921
0.0349275
0.0384833
0.0392025
0.0387479
0.0374323
0.0347749
0.0322364
0.0301929
0.0256752
0.0192328
0.0142704
0.0109498
0.00877036
0.00729502
0.0063384
0.00588156
0.00564929
0.00561011
0.0056845
0.00582128
0.00581252
0.00579614
0.00564899
0.00567457
0.00570969
0.00581512
0.0062571
0.00709484
0.00883235
0.0122889
0.0234934
0.0732935
0.279458
0.552323
0.827851
0.970874
0.935872
0.666733
0.329564
0.153588
0.101052
0.0928446
0.0940348
0.0984984
0.104916
0.114138
0.122416
0.128899
0.134102
0.144241
0.148893
0.155609
0.158519
0.160104
0.159907
0.16357
0.156877
0.151182
0.12447
0.0954633
0.0657081
0.0592236
0.0516036
0.041682
0.0325797
0.0254845
0.0209777
0.0192405
0.0172162
0.0166487
0.0168811
0.017952
0.0195161
0.0225617
0.0357704
0.0505247
0.0543143
0.0549259
0.058415
0.063182
0.063445
0.0620684
0.0609976
0.0599618
0.0564791
0.0545389
0.0528164
0.0513014
0.051242
0.0553965
0.0633681
0.0654869
0.0660243
0.0667337
0.0686945
0.0751205
0.0817533
0.0886068
0.107324
0.123542
0.149948
0.251375
0.449218
0.551617
0.550405
0.385785
0.219664
0.165027
0.161262
0.135926
0.0777469
0.0499268
0.0495443
0.0552033
0.0493767
0.0395921
0.0398012
0.0431253
0.0646885
0.0812022
0.101913
0.107298
0.0993303
0.09435
0.0709809
0.0643348
0.0666132
0.0883384
0.0708876
0.0695815
0.0642501
0.0616795
0.0624401
0.0630029
0.0697209
0.0724131
0.0777097
0.0785477
0.0785767
0.000102771
0.000105193
0.000112254
0.000119597
0.000123635
0.000125599
0.000128729
0.000132241
0.000136114
0.000138545
0.000139795
0.000142149
0.000145602
0.000150116
0.000154563
0.00015646
0.000157525
0.000158185
0.000158205
0.00016044
0.000189775
0.000241665
0.000298523
0.000337184
0.000364619
0.000382525
0.000392663
0.000420591
0.000474237
0.000521885
0.000536607
0.000534736
0.000519899
0.000462751
0.000394613
0.000365816
0.000362253
0.000366458
0.000374082
0.000375637
0.000374958
0.00035444
0.000347045
0.000351338
0.000370799
0.000420819
0.000535134
0.000699514
0.00104584
0.00154159
0.00212491
0.00369459
0.00538986
0.00875825
0.0130671
0.0190218
0.0282404
0.0378004
0.0498178
0.0616519
0.0718323
0.0786789
0.0788705
0.0773504
0.0732135
0.0654098
0.055989
0.0488464
0.0449956
0.0387132
0.0299984
0.0213709
0.0151283
0.0112258
0.0088791
0.00736608
0.00651545
0.00612242
0.0059409
0.00588979
0.00584585
0.00588627
0.00597687
0.00613921
0.00660485
0.00694759
0.00787187
0.00872553
0.0102732
0.0136845
0.0229011
0.0486388
0.161849
0.373261
0.588573
0.82541
0.993325
1.06759
0.876909
0.47868
0.211508
0.115263
0.0954925
0.0949384
0.0985601
0.104092
0.11185
0.11638
0.118858
0.125588
0.135299
0.142325
0.150267
0.153423
0.154483
0.152313
0.155294
0.145717
0.117725
0.0937219
0.0759413
0.0591348
0.0487119
0.0443489
0.0372937
0.0305179
0.0258358
0.0221097
0.0197707
0.0179975
0.0174981
0.0172272
0.0173023
0.0177759
0.0196099
0.0288692
0.0399719
0.0461351
0.0514889
0.0567639
0.0603735
0.0613355
0.0618143
0.0619089
0.0597098
0.0561339
0.0555882
0.0558283
0.0564928
0.0588267
0.0665668
0.0685992
0.0663901
0.0655498
0.0685852
0.0832741
0.101864
0.105062
0.107782
0.117118
0.128573
0.154595
0.261624
0.44112
0.587382
0.564016
0.387646
0.242881
0.188946
0.172808
0.144309
0.0912453
0.0545311
0.0470331
0.0465588
0.0484383
0.0438061
0.0425459
0.0449963
0.0709821
0.0893566
0.0985656
0.11809
0.106211
0.0949284
0.0940678
0.0902644
0.0739467
0.0890026
0.0762849
0.0753824
0.0701348
0.0638602
0.0630909
0.0624444
0.0634497
0.0646586
0.0703469
0.0731347
0.0735912
0.000291676
0.000318898
0.000336822
0.000346504
0.000352418
0.000368377
0.000391138
0.000440394
0.000467666
0.000509287
0.000541879
0.000578327
0.000638427
0.000668424
0.000733422
0.000780914
0.000826624
0.000871144
0.000902016
0.000933813
0.00107068
0.00135422
0.00170082
0.00192994
0.00212531
0.00225019
0.00230657
0.0024018
0.00252613
0.00272954
0.00282128
0.00282459
0.00278994
0.00269402
0.00244793
0.00221109
0.00206705
0.00195857
0.00188312
0.00184506
0.00179849
0.0017858
0.00180659
0.00188568
0.00207936
0.00244915
0.00288529
0.00374707
0.00529113
0.00700718
0.00972444
0.0158992
0.0211782
0.0320211
0.044954
0.0609825
0.0822047
0.105769
0.126595
0.14801
0.161059
0.161374
0.157836
0.148682
0.131326
0.112301
0.0929809
0.0744309
0.0610811
0.0514453
0.042446
0.0328805
0.0241884
0.0171583
0.0133004
0.0107937
0.00942378
0.00856468
0.0082802
0.0083128
0.00838159
0.00858875
0.00898226
0.00950973
0.00980806
0.0104051
0.011213
0.0128744
0.0171355
0.0290409
0.058956
0.110571
0.260759
0.407939
0.589921
0.80244
0.974305
1.10388
1.15207
0.721084
0.315121
0.147269
0.102949
0.0963401
0.0996478
0.106213
0.113022
0.116178
0.117812
0.121634
0.127153
0.133932
0.140243
0.142785
0.138467
0.128819
0.131397
0.130341
0.0930865
0.0723718
0.0637581
0.0553261
0.0446239
0.0420494
0.0363027
0.0301202
0.0262779
0.0239224
0.0214613
0.0196451
0.0182821
0.0171776
0.0168859
0.0170752
0.0178835
0.0200424
0.0245228
0.0372272
0.0486968
0.0551776
0.0603364
0.0638714
0.065269
0.0644681
0.0612203
0.0612292
0.0636459
0.0645593
0.0656721
0.0695463
0.0705081
0.0654639
0.0604352
0.0629004
0.0846439
0.120024
0.120361
0.113489
0.11456
0.12256
0.134049
0.164816
0.24915
0.431276
0.591517
0.563524
0.434294
0.300224
0.210924
0.175145
0.147115
0.112615
0.0809092
0.0564221
0.0488383
0.0468066
0.0445693
0.0525347
0.0529741
0.0718792
0.125436
0.103685
0.121217
0.125578
0.106871
0.106201
0.105885
0.0820404
0.0901491
0.0840653
0.084263
0.0820596
0.0711251
0.0674829
0.0644191
0.0627077
0.0624819
0.0642638
0.0691643
0.0704299
0.00339604
0.00350552
0.00353843
0.00353987
0.00354327
0.00363335
0.00381837
0.00422883
0.00462383
0.00491637
0.00532652
0.00560737
0.00602283
0.00635096
0.00679416
0.0071708
0.0074684
0.00768574
0.00783952
0.00801761
0.00862636
0.00986657
0.011086
0.012103
0.0129386
0.0133717
0.0135533
0.013561
0.0134492
0.0135403
0.0140386
0.0142184
0.0141941
0.0140614
0.0135625
0.0126385
0.0118968
0.0112848
0.0109052
0.0106542
0.0106434
0.0107287
0.0110539
0.0115188
0.0124155
0.0137401
0.0153461
0.0192705
0.0235745
0.0300728
0.0414196
0.0551259
0.0734326
0.102465
0.129025
0.171357
0.214999
0.251177
0.289095
0.314745
0.316482
0.310636
0.292728
0.261127
0.223606
0.186299
0.149346
0.117069
0.0894087
0.0701944
0.0564381
0.0441802
0.0348887
0.0274193
0.0212023
0.0173809
0.0163278
0.0152223
0.0148174
0.0151181
0.0154196
0.015143
0.0152559
0.0152225
0.0154665
0.0165181
0.0192097
0.0257245
0.0434047
0.0964516
0.176623
0.216329
0.302809
0.403167
0.563384
0.727683
0.901204
1.05653
1.28032
1.16196
0.541422
0.220515
0.12111
0.101379
0.10003
0.106542
0.113967
0.118799
0.121036
0.123227
0.1271
0.128483
0.128847
0.122305
0.117021
0.11007
0.108802
0.109262
0.0792785
0.0612354
0.0568259
0.0538265
0.0446491
0.0421669
0.035824
0.0305454
0.0284794
0.0276496
0.0243038
0.021328
0.0195328
0.0178798
0.0173443
0.0171728
0.0171773
0.0174889
0.0190997
0.0253825
0.0405383
0.0510159
0.0582385
0.0621758
0.0642641
0.065476
0.0655233
0.0655462
0.0652022
0.0654139
0.065279
0.0643414
0.0571915
0.0524855
0.0541639
0.0737269
0.132189
0.139935
0.126889
0.114083
0.116321
0.128414
0.1407
0.170674
0.219769
0.373623
0.573446
0.5728
0.507178
0.353609
0.230548
0.183845
0.156731
0.145693
0.122209
0.0943968
0.0833981
0.0750953
0.0554466
0.0854049
0.133052
0.0829269
0.201342
0.12255
0.125286
0.148374
0.134619
0.109614
0.121652
0.0985358
0.100519
0.100376