/*--------------------------------*- C++ -*----------------------------------*\
| =========                 |                                                 |
| \\      /  F ield         | OpenFOAM: The Open Source CFD Toolbox           |
|  \\    /   O peration     | Version:  2.4.0                                 |
|   \\  /    A nd           | Web:      www.OpenFOAM.org                      |
|    \\/     M anipulation  |                                                 |
\*---------------------------------------------------------------------------*/
FoamFile
{
    version     2.0;
    format      ascii;
    class       surfaceScalarField;
    location    "1.55";
    object      phi_0;
}
// * * * * * * * * * * * * * * * * * * * * * * * * * * * * * * * * * * * * * //

dimensions      [0 3 -1 0 0 0 0];

internalField   nonuniform List<scalar> 
17320
(
1.76381e-05
7.36194e-06
1.16206e-05
6.01749e-06
8.68005e-06
2.94052e-06
7.35549e-06
1.32456e-06
6.72321e-06
6.32285e-07
6.3375e-06
3.85707e-07
6.07559e-06
2.61906e-07
5.8818e-06
1.93789e-07
5.69773e-06
1.8407e-07
5.58429e-06
1.13443e-07
5.49001e-06
9.42814e-08
5.39564e-06
9.43715e-08
5.30238e-06
9.32591e-08
5.25307e-06
4.93065e-08
5.15315e-06
9.99222e-08
5.11352e-06
3.96328e-08
5.00362e-06
1.09894e-07
5.07954e-06
-7.59141e-08
4.84383e-06
2.35704e-07
-6.51651e-07
5.49548e-06
2.54637e-05
6.89821e-06
2.32509e-05
8.23032e-06
2.09864e-05
5.20503e-06
1.93212e-05
2.98977e-06
1.80799e-05
1.87353e-06
1.71036e-05
1.36203e-06
1.63698e-05
9.95771e-07
1.57815e-05
7.82012e-07
1.52955e-05
6.70109e-07
1.4944e-05
4.64912e-07
1.46433e-05
3.95021e-07
1.43814e-05
3.56251e-07
1.41503e-05
3.24342e-07
1.39791e-05
2.20509e-07
1.37488e-05
3.30241e-07
1.36236e-05
1.64847e-07
1.33848e-05
3.4868e-07
1.34124e-05
-1.03555e-07
1.32835e-05
3.64601e-07
-7.96821e-07
1.34287e-05
2.66253e-05
5.27291e-06
2.71567e-05
7.69894e-06
2.67757e-05
5.58597e-06
2.62554e-05
3.51006e-06
2.5611e-05
2.51802e-06
2.48606e-05
2.11243e-06
2.41695e-05
1.68687e-06
2.35072e-05
1.44423e-06
2.29189e-05
1.25849e-06
2.24591e-05
9.2467e-07
2.20416e-05
8.12487e-07
2.16794e-05
7.18476e-07
2.13654e-05
6.38323e-07
2.11113e-05
4.74649e-07
2.08117e-05
6.2986e-07
2.06124e-05
3.64112e-07
2.03362e-05
6.24936e-07
2.02464e-05
-1.38268e-08
2.0275e-05
3.35995e-07
-1.21753e-06
2.06957e-05
2.63335e-05
3.93937e-06
2.7541e-05
6.49145e-06
2.80728e-05
5.05424e-06
2.84595e-05
3.1233e-06
2.86618e-05
2.31577e-06
2.86152e-05
2.15896e-06
2.84857e-05
1.81639e-06
2.82396e-05
1.69033e-06
2.79502e-05
1.54792e-06
2.77065e-05
1.16838e-06
2.74325e-05
1.08649e-06
2.71674e-05
9.83527e-07
2.69303e-05
8.75467e-07
2.66988e-05
7.06072e-07
2.64535e-05
8.75181e-07
2.62289e-05
5.88777e-07
2.6021e-05
8.32742e-07
2.57577e-05
2.49541e-07
2.57284e-05
3.65324e-07
-8.03818e-07
2.53146e-05
2.60501e-05
2.88929e-06
2.72602e-05
5.28129e-06
2.80263e-05
4.2882e-06
2.84899e-05
2.65966e-06
2.89904e-05
1.81532e-06
2.93296e-05
1.81972e-06
2.95981e-05
1.54787e-06
2.97461e-05
1.54233e-06
2.9842e-05
1.45201e-06
2.99203e-05
1.09014e-06
2.99537e-05
1.05307e-06
2.9951e-05
9.86225e-07
2.9986e-05
8.40497e-07
2.99238e-05
7.68224e-07
2.9916e-05
8.83012e-07
2.98077e-05
6.97092e-07
2.97881e-05
8.52318e-07
2.94686e-05
5.69082e-07
2.94206e-05
4.13271e-07
-3.0483e-07
2.89216e-05
2.58255e-05
2.06377e-06
2.69788e-05
4.12805e-06
2.78291e-05
3.43781e-06
2.82163e-05
2.27251e-06
2.87078e-05
1.32385e-06
2.90922e-05
1.43531e-06
2.94675e-05
1.1725e-06
2.97008e-05
1.30912e-06
3.00172e-05
1.13551e-06
3.0178e-05
9.29357e-07
3.04128e-05
8.18281e-07
3.04915e-05
9.07539e-07
3.07712e-05
5.60792e-07
3.08026e-05
7.36833e-07
3.10492e-05
6.36462e-07
3.10356e-05
7.10699e-07
3.12682e-05
6.19701e-07
3.09448e-05
8.92419e-07
3.1031e-05
3.27118e-07
3.61074e-07
3.03651e-05
2.56615e-05
1.40227e-06
2.6752e-05
3.03754e-06
2.76419e-05
2.54797e-06
2.80399e-05
1.8745e-06
2.84762e-05
8.87484e-07
2.88272e-05
1.08435e-06
2.92181e-05
7.81616e-07
2.94502e-05
1.07703e-06
2.98179e-05
7.67786e-07
2.99512e-05
7.9609e-07
3.02945e-05
4.74895e-07
3.03503e-05
8.51767e-07
3.06618e-05
2.49308e-07
3.07022e-05
6.96461e-07
3.1068e-05
2.70677e-07
3.10763e-05
7.02387e-07
3.13965e-05
2.99481e-07
3.11217e-05
1.1672e-06
3.10613e-05
3.87547e-07
1.28744e-06
3.01349e-05
2.55492e-05
8.53066e-07
2.65741e-05
2.01263e-06
2.74454e-05
1.67669e-06
2.80196e-05
1.30034e-06
2.83507e-05
5.56305e-07
2.86518e-05
7.83266e-07
2.89965e-05
4.36914e-07
2.93012e-05
7.72339e-07
2.95798e-05
4.89213e-07
2.98484e-05
5.2748e-07
3.01271e-05
1.96153e-07
3.0286e-05
6.929e-07
3.03403e-05
1.94984e-07
3.05774e-05
4.59379e-07
3.08493e-05
-1.18036e-09
3.10421e-05
5.09541e-07
3.1082e-05
2.59636e-07
3.1514e-05
7.3512e-07
3.17794e-05
1.22145e-07
3.45216e-07
3.27217e-05
2.54844e-05
3.68617e-07
2.64723e-05
1.02476e-06
2.72842e-05
8.64845e-07
2.79226e-05
6.61894e-07
2.83145e-05
1.64451e-07
2.85773e-05
5.20444e-07
2.8814e-05
2.00219e-07
2.9178e-05
4.08282e-07
2.95103e-05
1.56952e-07
2.98261e-05
2.11661e-07
2.9917e-05
1.05304e-07
3.01144e-05
4.955e-07
3.02432e-05
6.61873e-08
3.05468e-05
1.55687e-07
3.06663e-05
-1.20627e-07
3.09382e-05
2.37629e-07
3.108e-05
1.17792e-07
3.14426e-05
3.72604e-07
3.15714e-05
-6.65042e-09
-2.27345e-07
3.21439e-05
2.54348e-05
-6.61489e-08
2.6471e-05
-1.14502e-08
2.72373e-05
9.85501e-08
2.78271e-05
7.20866e-08
2.82173e-05
-2.25766e-07
2.86239e-05
1.13822e-07
2.88109e-05
1.32081e-08
2.90414e-05
1.77766e-07
2.94526e-05
-2.54163e-07
2.97886e-05
-1.24412e-07
2.98058e-05
8.81309e-08
3.00722e-05
2.29133e-07
3.0351e-05
-2.12622e-07
3.04937e-05
1.29542e-08
3.04881e-05
-1.15046e-07
3.08066e-05
-8.07865e-08
3.11586e-05
-2.34233e-07
3.14421e-05
8.91199e-08
3.15683e-05
-1.32879e-07
-4.93172e-07
3.18341e-05
2.54358e-05
-5.01932e-07
2.64428e-05
-1.01848e-06
2.72599e-05
-7.18516e-07
2.78667e-05
-5.34765e-07
2.81729e-05
-5.31988e-07
2.85782e-05
-2.91443e-07
2.88393e-05
-2.47896e-07
2.91537e-05
-1.36606e-07
2.93975e-05
-4.97928e-07
2.96878e-05
-4.14759e-07
2.98279e-05
-5.20075e-08
3.01871e-05
-1.30011e-07
3.03084e-05
-3.33942e-07
3.04248e-05
-1.03442e-07
3.04863e-05
-1.76576e-07
3.08571e-05
-4.51524e-07
3.11581e-05
-5.35313e-07
3.14474e-05
-2.0014e-07
3.15917e-05
-2.77218e-07
-5.9497e-07
3.16935e-05
2.54473e-05
-9.4921e-07
2.64272e-05
-1.99841e-06
2.73426e-05
-1.63395e-06
2.80179e-05
-1.21e-06
2.82171e-05
-7.31206e-07
2.84774e-05
-5.51774e-07
2.88649e-05
-6.35319e-07
2.9346e-05
-6.17712e-07
2.9503e-05
-6.55019e-07
2.96327e-05
-5.44404e-07
2.99302e-05
-3.49494e-07
3.02111e-05
-4.10882e-07
3.02445e-05
-3.67353e-07
3.05017e-05
-3.60707e-07
3.07697e-05
-4.44505e-07
3.09483e-05
-6.30199e-07
3.10279e-05
-6.14876e-07
3.13382e-05
-5.10491e-07
3.16624e-05
-6.01348e-07
-8.08181e-07
3.18756e-05
2.55377e-05
-1.48692e-06
2.6572e-05
-3.0327e-06
2.74376e-05
-2.49952e-06
2.80385e-05
-1.81094e-06
2.83064e-05
-9.99067e-07
2.86542e-05
-8.99607e-07
2.89976e-05
-9.78702e-07
2.93925e-05
-1.01265e-06
2.9545e-05
-8.07515e-07
2.98085e-05
-8.0786e-07
3.00515e-05
-5.92493e-07
3.02572e-05
-6.16646e-07
3.03754e-05
-4.85549e-07
3.06736e-05
-6.58887e-07
3.08579e-05
-6.28838e-07
3.09936e-05
-7.6587e-07
3.10952e-05
-7.1646e-07
3.14657e-05
-8.80949e-07
3.18126e-05
-9.48248e-07
-1.06322e-06
3.20676e-05
2.56742e-05
-2.16113e-06
2.67414e-05
-4.09993e-06
2.75935e-05
-3.35159e-06
2.80624e-05
-2.2798e-06
2.84544e-05
-1.39107e-06
2.88603e-05
-1.30557e-06
2.92102e-05
-1.32853e-06
2.94954e-05
-1.29783e-06
2.97155e-05
-1.02763e-06
3.00164e-05
-1.10879e-06
3.0212e-05
-7.88078e-07
3.0416e-05
-8.20633e-07
3.06003e-05
-6.69895e-07
3.08302e-05
-8.88789e-07
3.09139e-05
-7.12471e-07
3.11237e-05
-9.75761e-07
3.13207e-05
-9.13413e-07
3.16663e-05
-1.22657e-06
3.1891e-05
-1.1729e-06
-1.34494e-06
3.21727e-05
2.58373e-05
-2.9984e-06
2.69386e-05
-5.20128e-06
2.78067e-05
-4.21965e-06
2.82514e-05
-2.72457e-06
2.86995e-05
-1.83909e-06
2.91065e-05
-1.71265e-06
2.94577e-05
-1.67964e-06
2.97117e-05
-1.55185e-06
2.99694e-05
-1.28534e-06
3.0178e-05
-1.31737e-06
3.03681e-05
-9.78203e-07
3.05368e-05
-9.89365e-07
3.07218e-05
-8.54864e-07
3.08588e-05
-1.02581e-06
3.09419e-05
-7.95535e-07
3.10633e-05
-1.09722e-06
3.11712e-05
-1.02127e-06
3.13814e-05
-1.4368e-06
3.15113e-05
-1.30281e-06
-1.60939e-06
3.17758e-05
2.60257e-05
-4.02405e-06
2.72276e-05
-6.40322e-06
2.80435e-05
-5.03553e-06
2.8504e-05
-3.18511e-06
2.89732e-05
-2.30826e-06
2.93394e-05
-2.07891e-06
2.9586e-05
-1.92616e-06
2.97176e-05
-1.68348e-06
2.98545e-05
-1.42224e-06
2.98872e-05
-1.35007e-06
2.99493e-05
-1.0403e-06
2.99485e-05
-9.8861e-07
2.99634e-05
-8.69721e-07
2.98965e-05
-9.58879e-07
2.98514e-05
-7.50477e-07
2.97563e-05
-1.0021e-06
2.96631e-05
-9.28094e-07
2.95761e-05
-1.34976e-06
2.94706e-05
-1.19739e-06
-1.623e-06
2.94842e-05
2.62958e-05
-5.31986e-06
2.75438e-05
-7.65121e-06
2.80857e-05
-5.57745e-06
2.84453e-05
-3.54465e-06
2.86443e-05
-2.50731e-06
2.86314e-05
-2.06596e-06
2.84619e-05
-1.75669e-06
2.82252e-05
-1.44677e-06
2.79728e-05
-1.16984e-06
2.76685e-05
-1.04585e-06
2.74245e-05
-7.96299e-07
2.71523e-05
-7.16336e-07
2.69079e-05
-6.25327e-07
2.66279e-05
-6.78936e-07
2.6404e-05
-5.26588e-07
2.61073e-05
-7.05345e-07
2.58459e-05
-6.66747e-07
2.54842e-05
-9.88023e-07
2.52107e-05
-9.23886e-07
-1.41766e-06
2.50054e-05
2.65998e-05
-6.91971e-06
2.71637e-05
-8.21506e-06
2.67791e-05
-5.19286e-06
2.62412e-05
-3.00679e-06
2.5605e-05
-1.87101e-06
2.4875e-05
-1.33599e-06
2.41469e-05
-1.02858e-06
2.35e-05
-7.99904e-07
2.29336e-05
-6.03433e-07
2.24267e-05
-5.38955e-07
2.2026e-05
-3.95581e-07
2.16591e-05
-3.49456e-07
2.13427e-05
-3.08961e-07
2.10217e-05
-3.57856e-07
2.07615e-05
-2.66411e-07
2.04374e-05
-3.81296e-07
2.01443e-05
-3.73598e-07
1.97001e-05
-5.43797e-07
1.93033e-05
-5.27098e-07
-5.40433e-07
1.8426e-05
2.54483e-05
-7.36796e-06
2.32492e-05
-6.01599e-06
2.09877e-05
-2.93141e-06
1.93129e-05
-1.33198e-06
1.80769e-05
-6.3497e-07
1.71132e-05
-3.72279e-07
1.63569e-05
-2.72275e-07
1.57683e-05
-2.11372e-07
1.53106e-05
-1.45642e-07
1.49183e-05
-1.46733e-07
1.46221e-05
-9.93629e-08
1.43609e-05
-8.82052e-08
1.41333e-05
-8.14399e-08
1.38887e-05
-1.13255e-07
1.36959e-05
-7.35719e-08
1.34392e-05
-1.24568e-07
1.31888e-05
-1.23245e-07
1.28316e-05
-1.86593e-07
1.25291e-05
-2.24533e-07
-1.07971e-07
1.20966e-05
1.7632e-05
1.1616e-05
8.68463e-06
7.35265e-06
6.71768e-06
6.3454e-06
6.07312e-06
5.86175e-06
5.71611e-06
5.56938e-06
5.47001e-06
5.38181e-06
5.30037e-06
5.18711e-06
5.11354e-06
4.98897e-06
4.86573e-06
4.67913e-06
4.4546e-06
4.34663e-06
5.92573e-06
-3.6165e-07
-6.85938e-08
6.26935e-06
-1.74061e-07
-1.69559e-07
6.53558e-06
-6.00423e-08
-2.06187e-07
6.77354e-06
1.29766e-08
-2.5094e-07
7.04495e-06
1.10233e-08
-2.82438e-07
7.33457e-06
-1.99406e-08
-2.69674e-07
7.6118e-06
-9.3697e-08
-1.83534e-07
7.87481e-06
-1.57602e-07
-1.05405e-07
8.09517e-06
-2.06772e-07
-1.359e-08
8.28902e-06
-2.14702e-07
2.0851e-08
8.4628e-06
-2.13296e-07
3.95167e-08
8.6404e-06
-1.8841e-07
1.08089e-08
8.81683e-06
-1.65512e-07
-1.09199e-08
9.00923e-06
-1.38864e-07
-5.35366e-08
9.21502e-06
-1.24401e-07
-8.13798e-08
9.45533e-06
-1.12616e-07
-1.27695e-07
9.73112e-06
-1.11067e-07
-1.64729e-07
1.00453e-05
-1.2066e-07
-1.93535e-07
1.0389e-05
-1.6095e-07
-1.82701e-07
1.07554e-05
-2.1873e-07
-1.47673e-07
1.11308e-05
-3.45054e-07
-3.04077e-08
1.15138e-05
-5.23004e-07
1.40053e-07
1.18841e-05
-7.40344e-07
3.70029e-07
1.22532e-05
-1.0537e-06
6.84596e-07
1.25774e-05
-1.38755e-06
1.06334e-06
1.28449e-05
-1.77903e-06
1.51152e-06
1.30495e-05
-2.22096e-06
2.01636e-06
1.31434e-05
-2.61839e-06
2.5245e-06
1.312e-05
-3.01098e-06
3.03444e-06
1.29676e-05
-3.34594e-06
3.49831e-06
1.26673e-05
-3.55069e-06
3.85094e-06
1.22168e-05
-3.59433e-06
4.04487e-06
1.14842e-05
-3.34571e-06
4.07828e-06
1.03916e-05
-2.85514e-06
3.94779e-06
9.12484e-06
-2.29711e-06
3.56385e-06
8.10336e-06
-1.74579e-06
2.76727e-06
7.76225e-06
-1.06636e-06
1.40746e-06
8.2167e-06
-1.8764e-08
-4.35689e-07
9.29283e-06
1.48508e-06
-2.5612e-06
1.06533e-05
3.37993e-06
-4.74038e-06
1.207e-05
5.25698e-06
-6.67367e-06
1.34902e-05
6.68975e-06
-8.10999e-06
1.49092e-05
7.61494e-06
-9.03389e-06
1.62778e-05
7.97444e-06
-9.34307e-06
1.76068e-05
7.66329e-06
-8.99234e-06
1.89205e-05
6.79522e-06
-8.10886e-06
2.01216e-05
5.61493e-06
-6.81606e-06
2.11961e-05
4.14148e-06
-5.21597e-06
2.22642e-05
2.29395e-06
-3.36208e-06
2.33058e-05
4.52203e-07
-1.49376e-06
2.41752e-05
-1.49869e-06
6.29306e-07
2.48312e-05
-3.60182e-06
2.94577e-06
2.52749e-05
-5.66479e-06
5.22114e-06
2.53675e-05
-7.2009e-06
7.10826e-06
2.54352e-05
-8.80988e-06
8.74223e-06
2.56663e-05
-1.03483e-05
1.01171e-05
2.57494e-05
-1.17053e-05
1.16223e-05
2.6155e-05
-1.34506e-05
1.3045e-05
2.63606e-05
-1.48209e-05
1.46152e-05
2.58819e-05
-1.59165e-05
1.63952e-05
2.5146e-05
-1.64215e-05
1.71574e-05
2.38298e-05
-1.59543e-05
1.72706e-05
2.24334e-05
-1.47455e-05
1.61419e-05
2.08218e-05
-1.287e-05
1.44816e-05
1.92835e-05
-1.0774e-05
1.23123e-05
1.80925e-05
-8.26094e-06
9.45198e-06
1.67537e-05
-5.3845e-06
6.7233e-06
1.59603e-05
-3.13386e-06
3.92724e-06
1.59545e-05
-6.1277e-07
6.18555e-07
1.61274e-05
2.52288e-06
-2.69572e-06
1.59568e-05
5.41969e-06
-5.24913e-06
1.59078e-05
7.47115e-06
-7.42216e-06
1.6182e-05
8.95538e-06
-9.22956e-06
1.66217e-05
9.9623e-06
-1.0402e-05
1.72185e-05
1.03487e-05
-1.09455e-05
1.78338e-05
1.01937e-05
-1.0809e-05
1.85376e-05
9.75968e-06
-1.04635e-05
1.91229e-05
9.13008e-06
-9.71534e-06
2.00619e-05
7.74441e-06
-8.68347e-06
2.10236e-05
6.4266e-06
-7.38824e-06
2.2214e-05
5.06308e-06
-6.25348e-06
2.32547e-05
2.99663e-06
-4.03737e-06
2.41683e-05
5.01511e-07
-1.4151e-06
2.49858e-05
-1.99461e-06
1.17711e-06
2.57248e-05
-4.13504e-06
3.39603e-06
2.63487e-05
-6.60248e-06
5.9786e-06
2.64962e-05
-8.91291e-06
8.76534e-06
2.60387e-05
-1.01418e-05
1.05993e-05
2.60446e-05
-1.21532e-05
1.21473e-05
2.55873e-05
-1.37499e-05
1.42072e-05
2.46375e-05
-1.41814e-05
1.51313e-05
2.4641e-05
-1.58862e-05
1.58827e-05
2.53177e-05
-1.82216e-05
1.75448e-05
2.53031e-05
-1.94537e-05
1.94682e-05
2.51251e-05
-2.05959e-05
2.0774e-05
2.53802e-05
-2.26398e-05
2.23846e-05
2.53055e-05
-2.37352e-05
2.38099e-05
2.47893e-05
-2.40141e-05
2.45304e-05
2.45324e-05
-2.44148e-05
2.46716e-05
2.49495e-05
-2.51296e-05
2.47125e-05
2.59051e-05
-2.5787e-05
2.48314e-05
2.70676e-05
-2.59765e-05
2.48139e-05
2.79873e-05
-2.51733e-05
2.42536e-05
2.85052e-05
-2.35534e-05
2.30355e-05
2.86884e-05
-2.09517e-05
2.07685e-05
2.88447e-05
-1.81632e-05
1.80068e-05
2.89146e-05
-1.54333e-05
1.53634e-05
2.89181e-05
-1.29832e-05
1.29797e-05
2.91332e-05
-1.08739e-05
1.06588e-05
2.93522e-05
-8.16113e-06
7.94216e-06
2.90301e-05
-4.42477e-06
4.74684e-06
2.80655e-05
1.11824e-07
8.52865e-07
2.65782e-05
3.6671e-06
-2.17987e-06
2.53002e-05
5.07264e-06
-3.79463e-06
2.4583e-05
4.99824e-06
-4.28104e-06
2.42222e-05
5.4944e-06
-5.13363e-06
2.39346e-05
7.57331e-06
-7.28563e-06
2.37281e-05
1.09199e-05
-1.07135e-05
2.30756e-05
1.4163e-05
-1.35105e-05
2.22724e-05
1.62949e-05
-1.54917e-05
2.14214e-05
1.79715e-05
-1.71204e-05
2.07304e-05
1.80859e-05
-1.7395e-05
2.0286e-05
1.68076e-05
-1.63631e-05
1.95114e-05
1.5924e-05
-1.51493e-05
1.87559e-05
1.47692e-05
-1.40138e-05
1.82431e-05
1.30993e-05
-1.25864e-05
1.7711e-05
1.09513e-05
-1.04192e-05
1.71777e-05
9.98119e-06
-9.44793e-06
1.67834e-05
1.00459e-05
-9.65151e-06
1.6613e-05
1.00951e-05
-9.92474e-06
1.63369e-05
9.42001e-06
-9.1439e-06
1.60518e-05
8.4725e-06
-8.18733e-06
1.57147e-05
8.01719e-06
-7.68009e-06
1.56109e-05
8.31715e-06
-8.21339e-06
1.57862e-05
9.64159e-06
-9.81693e-06
1.60193e-05
1.12578e-05
-1.14909e-05
1.59899e-05
1.25071e-05
-1.24777e-05
1.59671e-05
1.26857e-05
-1.2663e-05
1.6035e-05
1.27222e-05
-1.27901e-05
1.5971e-05
1.32349e-05
-1.31708e-05
1.66073e-05
1.32128e-05
-1.38491e-05
1.74548e-05
1.31766e-05
-1.40241e-05
1.84921e-05
1.42766e-05
-1.53138e-05
1.97125e-05
1.40309e-05
-1.52512e-05
2.07142e-05
1.29622e-05
-1.3964e-05
2.18374e-05
1.16715e-05
-1.27947e-05
2.28794e-05
9.18595e-06
-1.0228e-05
2.38286e-05
6.62785e-06
-7.57705e-06
2.44638e-05
4.05718e-06
-4.69241e-06
2.52163e-05
5.42254e-07
-1.29474e-06
2.5362e-05
-1.76652e-06
1.62081e-06
2.55525e-05
-5.4104e-06
5.21995e-06
2.51151e-05
-7.66523e-06
8.10262e-06
2.46694e-05
-9.28374e-06
9.7294e-06
2.37606e-05
-1.16169e-05
1.25257e-05
2.29696e-05
-1.36651e-05
1.4456e-05
2.18152e-05
-1.38922e-05
1.50466e-05
2.07526e-05
-1.45958e-05
1.56584e-05
1.94626e-05
-1.75194e-05
1.88095e-05
1.751e-05
-1.80168e-05
1.99694e-05
1.576e-05
-1.39575e-05
1.57076e-05
1.45512e-05
-9.0958e-06
1.03045e-05
1.46531e-05
-9.99245e-06
9.8906e-06
1.49702e-05
-1.51652e-05
1.48481e-05
1.56822e-05
-2.17711e-05
2.10591e-05
1.68365e-05
-2.63242e-05
2.51699e-05
1.74812e-05
-2.78059e-05
2.71611e-05
1.80448e-05
-2.6637e-05
2.60734e-05
1.88268e-05
-2.49557e-05
2.41738e-05
1.93143e-05
-2.23047e-05
2.18172e-05
1.98246e-05
-1.88832e-05
1.83728e-05
2.01167e-05
-1.42979e-05
1.40058e-05
2.02091e-05
-9.91655e-06
9.82411e-06
2.04125e-05
-6.48772e-06
6.28432e-06
2.05221e-05
-1.56856e-06
1.45897e-06
2.0681e-05
2.65197e-06
-2.8109e-06
2.07685e-05
6.63131e-06
-6.71877e-06
2.08501e-05
1.05358e-05
-1.06174e-05
2.05087e-05
1.48318e-05
-1.44904e-05
1.99581e-05
1.6935e-05
-1.63844e-05
1.88788e-05
1.85438e-05
-1.74645e-05
1.81427e-05
1.91148e-05
-1.83786e-05
1.75924e-05
2.01317e-05
-1.95815e-05
1.73531e-05
2.10904e-05
-2.0851e-05
1.78829e-05
2.27305e-05
-2.32602e-05
1.82809e-05
2.45235e-05
-2.49215e-05
1.76668e-05
2.49427e-05
-2.43286e-05
1.7065e-05
2.34432e-05
-2.28414e-05
1.60772e-05
2.16519e-05
-2.06641e-05
1.48916e-05
2.00109e-05
-1.88253e-05
1.41476e-05
1.77264e-05
-1.69824e-05
1.30237e-05
1.69794e-05
-1.58555e-05
1.18874e-05
1.59735e-05
-1.48372e-05
1.17122e-05
1.48934e-05
-1.47182e-05
1.08751e-05
1.66045e-05
-1.57675e-05
1.11242e-05
1.67456e-05
-1.69946e-05
1.16446e-05
1.90365e-05
-1.9557e-05
1.04413e-05
2.30271e-05
-2.18238e-05
1.07938e-05
2.42442e-05
-2.45967e-05
3.26349e-05
-3.33299e-05
1.14888e-05
1.346e-05
-3.92927e-07
1.35249e-05
-2.38998e-07
1.35923e-05
-1.27419e-07
1.36698e-05
-6.45125e-08
1.37826e-05
-1.01827e-07
1.39349e-05
-1.72184e-07
1.40902e-05
-2.49037e-07
1.42476e-05
-3.14972e-07
1.43827e-05
-3.41879e-07
1.45122e-05
-3.442e-07
1.4638e-05
-3.39116e-07
1.47708e-05
-3.21214e-07
1.4908e-05
-3.02702e-07
1.50625e-05
-2.93334e-07
1.52333e-05
-2.95228e-07
1.54352e-05
-3.14487e-07
1.56625e-05
-3.38426e-07
1.59194e-05
-3.77536e-07
1.62087e-05
-4.50244e-07
1.65117e-05
-5.21763e-07
1.68461e-05
-6.79454e-07
1.71818e-05
-8.58708e-07
1.75034e-05
-1.06187e-06
1.78322e-05
-1.38253e-06
1.81085e-05
-1.66385e-06
1.83279e-05
-1.99845e-06
1.84858e-05
-2.37881e-06
1.85332e-05
-2.66586e-06
1.84585e-05
-2.93622e-06
1.82637e-05
-3.15114e-06
1.79005e-05
-3.18755e-06
1.73839e-05
-3.0777e-06
1.68337e-05
-2.79549e-06
1.63388e-05
-2.36024e-06
1.58009e-05
-1.7592e-06
1.50633e-05
-1.00821e-06
1.41206e-05
-1.23614e-07
1.32757e-05
8.26118e-07
1.29851e-05
1.77569e-06
1.35058e-05
2.85921e-06
1.47189e-05
4.04384e-06
1.62699e-05
5.13875e-06
1.79374e-05
5.94747e-06
1.95708e-05
6.34102e-06
2.10744e-05
6.15973e-06
2.24462e-05
5.42338e-06
2.37038e-05
4.35729e-06
2.48073e-05
3.03804e-06
2.57102e-05
1.39107e-06
2.64883e-05
-3.25931e-07
2.71459e-05
-2.15631e-06
2.7521e-05
-3.97689e-06
2.76402e-05
-5.78405e-06
2.79009e-05
-7.46151e-06
2.80348e-05
-8.94387e-06
2.84113e-05
-1.07248e-05
2.8863e-05
-1.21571e-05
2.88695e-05
-1.3457e-05
2.8839e-05
-1.47904e-05
2.81941e-05
-1.52716e-05
2.69089e-05
-1.51363e-05
2.51861e-05
-1.42315e-05
2.33707e-05
-1.29302e-05
2.17491e-05
-1.12484e-05
2.00986e-05
-9.12346e-06
1.87868e-05
-6.94918e-06
1.80301e-05
-4.62774e-06
1.72676e-05
-2.37138e-06
1.69213e-05
-2.66515e-07
1.73688e-05
2.07543e-06
1.8114e-05
4.67443e-06
1.8721e-05
6.8642e-06
1.91413e-05
8.53505e-06
1.94839e-05
9.61974e-06
2.01357e-05
9.69684e-06
2.08665e-05
9.46296e-06
2.15804e-05
9.04574e-06
2.24062e-05
8.30424e-06
2.33062e-05
6.84449e-06
2.4089e-05
5.64375e-06
2.52255e-05
3.92664e-06
2.61097e-05
2.11243e-06
2.67394e-05
-1.28268e-07
2.72642e-05
-2.51941e-06
2.75497e-05
-4.42053e-06
2.76694e-05
-6.72214e-06
2.71078e-05
-8.35126e-06
2.66305e-05
-9.6645e-06
2.6432e-05
-1.19547e-05
2.53752e-05
-1.26931e-05
2.49948e-05
-1.3801e-05
2.57757e-05
-1.6667e-05
2.56366e-05
-1.80825e-05
2.46035e-05
-1.84206e-05
2.44996e-05
-2.04921e-05
2.43922e-05
-2.25323e-05
2.34058e-05
-2.27488e-05
2.24426e-05
-2.3051e-05
2.25059e-05
-2.4478e-05
2.34442e-05
-2.6068e-05
2.44698e-05
-2.68126e-05
2.50919e-05
-2.65986e-05
2.53109e-05
-2.53923e-05
2.52125e-05
-2.3455e-05
2.52149e-05
-2.0954e-05
2.51971e-05
-1.81454e-05
2.50516e-05
-1.52878e-05
2.49653e-05
-1.2897e-05
2.50106e-05
-1.09192e-05
2.5215e-05
-8.36548e-06
2.52159e-05
-4.42571e-06
2.48611e-05
4.6668e-07
2.41066e-05
4.42152e-06
2.3268e-05
5.91128e-06
2.25243e-05
5.74196e-06
2.20011e-05
6.01757e-06
2.15143e-05
8.06014e-06
2.10119e-05
1.14223e-05
2.02487e-05
1.49262e-05
1.94934e-05
1.70502e-05
1.89405e-05
1.85244e-05
1.84583e-05
1.85681e-05
1.80972e-05
1.71686e-05
1.75872e-05
1.64339e-05
1.69616e-05
1.53949e-05
1.66426e-05
1.34182e-05
1.63611e-05
1.12328e-05
1.58949e-05
1.04474e-05
1.56611e-05
1.02797e-05
1.56263e-05
1.01299e-05
1.5526e-05
9.52031e-06
1.54092e-05
8.5893e-06
1.53401e-05
8.0863e-06
1.51394e-05
8.51787e-06
1.54487e-05
9.33227e-06
1.59365e-05
1.077e-05
1.61085e-05
1.23351e-05
1.62625e-05
1.25318e-05
1.65109e-05
1.24737e-05
1.64997e-05
1.32461e-05
1.68952e-05
1.28173e-05
1.77157e-05
1.2356e-05
1.8699e-05
1.32933e-05
2.01866e-05
1.25433e-05
2.1214e-05
1.19348e-05
2.25335e-05
1.0352e-05
2.35841e-05
8.13531e-06
2.43422e-05
5.86979e-06
2.52972e-05
3.10223e-06
2.59049e-05
-6.54837e-08
2.5903e-05
-1.76458e-06
2.59324e-05
-5.43988e-06
2.55726e-05
-7.30539e-06
2.49057e-05
-8.61689e-06
2.3936e-05
-1.06472e-05
2.31758e-05
-1.29048e-05
2.1988e-05
-1.27044e-05
2.09373e-05
-1.35451e-05
1.91276e-05
-1.57098e-05
1.7449e-05
-1.63382e-05
1.57802e-05
-1.22886e-05
1.53011e-05
-8.61673e-06
1.51798e-05
-9.87117e-06
1.54387e-05
-1.54242e-05
1.64009e-05
-2.27333e-05
1.66133e-05
-2.65366e-05
1.68939e-05
-2.80865e-05
1.76452e-05
-2.73883e-05
1.7951e-05
-2.52615e-05
1.8315e-05
-2.26687e-05
1.8723e-05
-1.92912e-05
1.88022e-05
-1.43771e-05
1.89124e-05
-1.00267e-05
1.88121e-05
-6.38739e-06
1.92082e-05
-1.96469e-06
1.91339e-05
2.72626e-06
1.93576e-05
6.4076e-06
1.93028e-05
1.05906e-05
1.9251e-05
1.48835e-05
1.8701e-05
1.74851e-05
1.81882e-05
1.90565e-05
1.73406e-05
1.99623e-05
1.70033e-05
2.04691e-05
1.6637e-05
2.14567e-05
1.70432e-05
2.23242e-05
1.77497e-05
2.3817e-05
1.76938e-05
2.49986e-05
1.71369e-05
2.40002e-05
1.67156e-05
2.20731e-05
1.61743e-05
2.05523e-05
1.48177e-05
1.90829e-05
1.4392e-05
1.74052e-05
1.30773e-05
1.72881e-05
1.22772e-05
1.56936e-05
1.27521e-05
1.61296e-05
1.20706e-05
1.74271e-05
1.36826e-05
1.74245e-05
1.40768e-05
2.2633e-05
1.7857e-05
2.04639e-05
3.29619e-05
1.75301e-05
2.04449e-05
-1.42043e-07
2.01957e-05
1.01341e-08
2.00718e-05
-3.52568e-09
2.01073e-05
-1.00005e-07
2.02269e-05
-2.21419e-07
2.03844e-05
-3.29665e-07
2.0502e-05
-3.66593e-07
2.05834e-05
-3.96383e-07
2.06558e-05
-4.14339e-07
2.07203e-05
-4.08704e-07
2.08065e-05
-4.25258e-07
2.08996e-05
-4.14308e-07
2.10006e-05
-4.03761e-07
2.11308e-05
-4.23519e-07
2.12668e-05
-4.31249e-07
2.14383e-05
-4.85937e-07
2.16193e-05
-5.19427e-07
2.18247e-05
-5.82969e-07
2.2059e-05
-6.8452e-07
2.22769e-05
-7.39653e-07
2.25331e-05
-9.357e-07
2.27707e-05
-1.09624e-06
2.29847e-05
-1.27586e-06
2.32072e-05
-1.60506e-06
2.33726e-05
-1.82922e-06
2.34839e-05
-2.10984e-06
2.35457e-05
-2.44057e-06
2.35215e-05
-2.64166e-06
2.33837e-05
-2.79845e-06
2.3173e-05
-2.94042e-06
2.28533e-05
-2.86789e-06
2.24422e-05
-2.66652e-06
2.2002e-05
-2.35533e-06
2.14968e-05
-1.85498e-06
2.09206e-05
-1.183e-06
2.04052e-05
-4.92809e-07
1.98884e-05
3.93139e-07
1.9362e-05
1.35255e-06
1.89248e-05
2.2129e-06
1.86948e-05
3.08922e-06
1.88324e-05
3.90616e-06
1.95266e-05
4.44464e-06
2.06627e-05
4.81136e-06
2.19588e-05
5.04492e-06
2.33005e-05
4.81796e-06
2.46305e-05
4.09342e-06
2.58007e-05
3.1871e-06
2.68094e-05
2.02932e-06
2.78138e-05
3.86649e-07
2.85594e-05
-1.07153e-06
2.91026e-05
-2.69947e-06
2.97576e-05
-4.63194e-06
3.01624e-05
-6.18883e-06
3.06027e-05
-7.90186e-06
3.12655e-05
-9.60661e-06
3.14988e-05
-1.09582e-05
3.16751e-05
-1.23333e-05
3.16383e-05
-1.34202e-05
3.07702e-05
-1.39224e-05
2.94652e-05
-1.39666e-05
2.7861e-05
-1.35322e-05
2.62035e-05
-1.2574e-05
2.43685e-05
-1.10952e-05
2.25074e-05
-9.3873e-06
2.09399e-05
-7.55601e-06
1.9482e-05
-5.49121e-06
1.85382e-05
-3.68401e-06
1.80815e-05
-1.91467e-06
1.78098e-05
5.17595e-09
1.79746e-05
1.91071e-06
1.8811e-05
3.83797e-06
1.99879e-05
5.68731e-06
2.10647e-05
7.45823e-06
2.19225e-05
8.76194e-06
2.26384e-05
8.98097e-06
2.33313e-05
8.77005e-06
2.39023e-05
8.47474e-06
2.47021e-05
7.50446e-06
2.53231e-05
6.22344e-06
2.60632e-05
4.90366e-06
2.68097e-05
3.18022e-06
2.73549e-05
1.5672e-06
2.78559e-05
-6.293e-07
2.79023e-05
-2.56584e-06
2.77907e-05
-4.30892e-06
2.76278e-05
-6.55923e-06
2.68833e-05
-7.60676e-06
2.68085e-05
-9.58966e-06
2.64375e-05
-1.15837e-05
2.56914e-05
-1.19471e-05
2.62303e-05
-1.43399e-05
2.62547e-05
-1.66915e-05
2.45998e-05
-1.64276e-05
2.36987e-05
-1.75194e-05
2.36677e-05
-2.04611e-05
2.24867e-05
-2.13513e-05
2.08184e-05
-2.10805e-05
2.02998e-05
-2.25325e-05
2.09695e-05
-2.51476e-05
2.17099e-05
-2.68083e-05
2.19664e-05
-2.70692e-05
2.18386e-05
-2.64707e-05
2.15383e-05
-2.5092e-05
2.13299e-05
-2.32466e-05
2.13339e-05
-2.0958e-05
2.13221e-05
-1.81336e-05
2.12417e-05
-1.52074e-05
2.10814e-05
-1.27366e-05
2.08429e-05
-1.06806e-05
2.07385e-05
-8.26116e-06
2.05895e-05
-4.27666e-06
2.07428e-05
3.13338e-07
2.08806e-05
4.28374e-06
2.08865e-05
5.90535e-06
2.06103e-05
6.01821e-06
2.00196e-05
6.60824e-06
1.89432e-05
9.13658e-06
1.80453e-05
1.23202e-05
1.73362e-05
1.56353e-05
1.65362e-05
1.78502e-05
1.62254e-05
1.88353e-05
1.60233e-05
1.87702e-05
1.57584e-05
1.74336e-05
1.5474e-05
1.67183e-05
1.51323e-05
1.57366e-05
1.49373e-05
1.36132e-05
1.48554e-05
1.13147e-05
1.47854e-05
1.05174e-05
1.45885e-05
1.04766e-05
1.45355e-05
1.01829e-05
1.45717e-05
9.48409e-06
1.44896e-05
8.67138e-06
1.46098e-05
7.96604e-06
1.45738e-05
8.55388e-06
1.50321e-05
8.87406e-06
1.57416e-05
1.00605e-05
1.60163e-05
1.20604e-05
1.65547e-05
1.19934e-05
1.69558e-05
1.20726e-05
1.71354e-05
1.30665e-05
1.7535e-05
1.24177e-05
1.80629e-05
1.18282e-05
1.91335e-05
1.22227e-05
2.05474e-05
1.11294e-05
2.16517e-05
1.08305e-05
2.30065e-05
8.99719e-06
2.42414e-05
6.9004e-06
2.49791e-05
5.13207e-06
2.58431e-05
2.23828e-06
2.60788e-05
-3.01223e-07
2.62264e-05
-1.91216e-06
2.60043e-05
-5.21774e-06
2.55391e-05
-6.84021e-06
2.47029e-05
-7.78072e-06
2.39177e-05
-9.86198e-06
2.30159e-05
-1.2003e-05
2.19676e-05
-1.1656e-05
2.05997e-05
-1.21773e-05
1.89636e-05
-1.40737e-05
1.75166e-05
-1.48911e-05
1.62358e-05
-1.10078e-05
1.622e-05
-8.601e-06
1.57001e-05
-9.35121e-06
1.62557e-05
-1.59798e-05
1.61962e-05
-2.26737e-05
1.58049e-05
-2.61453e-05
1.63856e-05
-2.86672e-05
1.65534e-05
-2.75561e-05
1.66119e-05
-2.532e-05
1.7187e-05
-2.32438e-05
1.73667e-05
-1.94709e-05
1.72741e-05
-1.42844e-05
1.73087e-05
-1.00614e-05
1.71338e-05
-6.21245e-06
1.7442e-05
-2.27294e-06
1.74351e-05
2.73312e-06
1.77354e-05
6.10731e-06
1.77786e-05
1.05474e-05
1.79475e-05
1.47146e-05
1.71773e-05
1.82553e-05
1.68251e-05
1.94087e-05
1.62769e-05
2.05106e-05
1.60969e-05
2.06491e-05
1.62296e-05
2.1324e-05
1.64194e-05
2.21344e-05
1.69873e-05
2.3249e-05
1.78928e-05
2.40931e-05
1.76774e-05
2.42156e-05
1.72139e-05
2.25367e-05
1.73014e-05
2.04647e-05
1.60491e-05
2.03352e-05
1.52613e-05
1.8193e-05
1.50882e-05
1.74613e-05
1.3597e-05
1.71848e-05
1.42928e-05
1.54338e-05
1.37501e-05
1.79698e-05
1.57756e-05
1.5399e-05
1.57228e-05
2.26858e-05
2.16482e-05
1.45384e-05
3.15339e-05
2.30762e-05
2.53209e-05
-1.48299e-07
2.53502e-05
-1.91774e-08
2.54467e-05
-1.00022e-07
2.55878e-05
-2.41073e-07
2.5722e-05
-3.55626e-07
2.58408e-05
-4.48533e-07
2.59295e-05
-4.55247e-07
2.59601e-05
-4.27001e-07
2.59867e-05
-4.40902e-07
2.6011e-05
-4.33061e-07
2.60551e-05
-4.6928e-07
2.61349e-05
-4.94185e-07
2.62187e-05
-4.87536e-07
2.63187e-05
-5.23522e-07
2.64163e-05
-5.28833e-07
2.65216e-05
-5.91215e-07
2.66363e-05
-6.34155e-07
2.67726e-05
-7.19258e-07
2.69452e-05
-8.57171e-07
2.71043e-05
-8.98709e-07
2.72925e-05
-1.12386e-06
2.74498e-05
-1.25359e-06
2.75629e-05
-1.38894e-06
2.76596e-05
-1.70183e-06
2.76887e-05
-1.85829e-06
2.76591e-05
-2.08018e-06
2.75917e-05
-2.37324e-06
2.74589e-05
-2.50883e-06
2.7249e-05
-2.58853e-06
2.70142e-05
-2.70562e-06
2.67157e-05
-2.56941e-06
2.63352e-05
-2.28595e-06
2.59375e-05
-1.95769e-06
2.5549e-05
-1.46646e-06
2.51457e-05
-7.79702e-07
2.47684e-05
-1.15552e-07
2.44969e-05
6.64667e-07
2.42643e-05
1.58519e-06
2.41076e-05
2.36952e-06
2.40804e-05
3.11645e-06
2.4187e-05
3.79956e-06
2.45193e-05
4.11236e-06
2.50369e-05
4.29371e-06
2.57799e-05
4.30195e-06
2.67873e-05
3.81058e-06
2.77158e-05
3.16495e-06
2.86545e-05
2.24833e-06
2.96918e-05
9.92094e-07
3.04945e-05
-4.16121e-07
3.13158e-05
-1.89277e-06
3.21439e-05
-3.52754e-06
3.27248e-05
-5.21286e-06
3.33841e-05
-6.84811e-06
3.38285e-05
-8.34631e-06
3.40197e-05
-9.79776e-06
3.41232e-05
-1.10617e-05
3.36738e-05
-1.18838e-05
3.27661e-05
-1.25126e-05
3.15365e-05
-1.26927e-05
2.9935e-05
-1.2365e-05
2.80931e-05
-1.16903e-05
2.61474e-05
-1.06282e-05
2.45172e-05
-9.46505e-06
2.31493e-05
-8.01939e-06
2.18442e-05
-6.25093e-06
2.08824e-05
-4.52942e-06
2.00757e-05
-2.87728e-06
1.95474e-05
-1.38642e-06
1.92221e-05
3.30508e-07
1.91243e-05
2.00851e-06
1.95513e-05
3.41102e-06
2.03931e-05
4.84549e-06
2.15485e-05
6.30279e-06
2.28535e-05
7.45693e-06
2.39199e-05
7.9146e-06
2.47982e-05
7.89181e-06
2.55757e-05
7.69715e-06
2.63243e-05
6.75591e-06
2.68057e-05
5.74202e-06
2.74237e-05
4.2857e-06
2.77826e-05
2.82131e-06
2.81376e-05
1.21219e-06
2.84037e-05
-8.95409e-07
2.81378e-05
-2.29997e-06
2.82692e-05
-4.44028e-06
2.79575e-05
-6.24757e-06
2.76218e-05
-7.27101e-06
2.78495e-05
-9.81736e-06
2.69693e-05
-1.07036e-05
2.66611e-05
-1.16389e-05
2.68697e-05
-1.45485e-05
2.50695e-05
-1.48913e-05
2.3046e-05
-1.4404e-05
2.28655e-05
-1.73389e-05
2.20873e-05
-1.96829e-05
1.99542e-05
-1.92182e-05
1.85475e-05
-1.96739e-05
1.8492e-05
-2.2477e-05
1.88898e-05
-2.55454e-05
1.90342e-05
-2.69527e-05
1.88451e-05
-2.68801e-05
1.85386e-05
-2.61642e-05
1.81997e-05
-2.47531e-05
1.80989e-05
-2.31458e-05
1.81425e-05
-2.10016e-05