/*--------------------------------*- C++ -*----------------------------------*\
| =========                 |                                                 |
| \\      /  F ield         | OpenFOAM: The Open Source CFD Toolbox           |
|  \\    /   O peration     | Version:  2.4.0                                 |
|   \\  /    A nd           | Web:      www.OpenFOAM.org                      |
|    \\/     M anipulation  |                                                 |
\*---------------------------------------------------------------------------*/
FoamFile
{
    version     2.0;
    format      ascii;
    class       volScalarField;
    location    "1.55";
    object      pMean;
}
// * * * * * * * * * * * * * * * * * * * * * * * * * * * * * * * * * * * * * //

dimensions      [0 2 -2 0 0 0 0];

internalField   nonuniform List<scalar> 
8800
(
86.9645
74.5117
67.1086
63.5413
61.6517
60.2116
59.0033
57.8453
56.8152
55.7727
54.8219
53.8222
52.9183
51.9614
51.1233
50.235
49.4787
48.6786
47.9905
47.1978
83.8532
74.1574
67.2769
63.6552
61.7117
60.2369
59.0109
57.8457
56.8131
55.7703
54.819
53.8201
52.9157
51.9597
51.1213
50.233
49.4802
48.673
47.9922
47.1551
81.888
74.2337
67.8781
64.0309
61.8792
60.3164
59.0575
57.8784
56.8374
55.7873
54.8292
53.8248
52.9171
51.9578
51.1201
50.2263
49.4837
48.6626
48.0463
47.1929
80.3527
74.296
68.4636
64.4544
62.0628
60.4047
59.1201
57.9353
56.8858
55.8263
54.8565
53.8424
52.9278
51.9619
51.1223
50.2208
49.4849
48.6629
48.1323
47.376
79.1043
74.2699
68.9376
64.8599
62.2311
60.4728
59.1691
57.9935
56.9411
55.8783
54.8911
53.8699
52.9399
51.9726
51.1202
50.2219
49.4734
48.6772
48.1225
47.6225
78.1196
74.1732
69.301
65.2057
62.3808
60.5159
59.1969
58.0386
56.9906
55.9281
54.9252
53.8971
52.95
51.982
51.1144
50.2211
49.4556
48.6887
48.164
47.9749
77.3631
74.0564
69.5675
65.4851
62.5153
60.5419
59.2052
58.0702
57.0293
55.9698
54.9531
53.92
52.9561
51.9884
51.1055
50.2182
49.4352
48.6943
48.2375
48.337
76.8096
73.9556
69.7482
65.6972
62.6327
60.561
59.1979
58.094
57.0562
56.0037
54.9718
53.9405
52.9567
51.9961
51.0933
50.2211
49.4138
48.698
48.2076
48.6512
76.4491
73.8853
69.8621
65.8417
62.717
60.5742
59.189
58.1099
57.0763
56.0286
54.9864
53.9557
52.9599
52.0031
51.0896
50.2252
49.4058
48.7157
48.275
48.9413
76.2693
73.8543
69.9206
65.9191
62.7621
60.5843
59.1848
58.1211
57.0895
56.0457
54.9965
53.9675
52.9653
52.0119
51.0931
50.2345
49.4149
48.7411
48.3389
49.0607
76.262
73.8657
69.9219
65.9244
62.7616
60.5882
59.1825
58.1254
57.0895
56.0508
54.9972
53.9736
52.9675
52.0206
51.0984
50.2472
49.4257
48.7662
48.3768
49.1512
76.4303
73.9151
69.8659
65.8532
62.7167
60.5832
59.1842
58.1199
57.0776
56.0411
54.9896
53.972
52.9684
52.0266
51.1067
50.2601
49.4418
48.7844
48.3999
49.1797
76.7808
73.9981
69.7509
65.711
62.6305
60.5742
59.1894
58.109
57.0568
56.0226
54.9757
53.9667
52.9688
52.0344
51.12
50.279
49.4654
48.8059
48.4038
49.1458
77.3264
74.1049
69.5687
65.4987
62.5075
60.5569
59.1925
58.0879
57.0263
55.9929
54.9542
53.9543
52.9669
52.0406
51.1354
50.3017
49.4966
48.8338
48.3922
49.0324
78.0796
74.2216
69.3037
65.2169
62.3687
60.528
59.1849
58.0546
56.9861
55.952
54.9259
53.9342
52.9623
52.0424
51.1516
50.3255
49.5368
48.8717
48.3914
48.8341
79.0612
74.3197
68.9412
64.8702
62.2161
60.4829
59.1587
58.0092
56.937
55.9029
54.8933
53.9092
52.9559
52.0403
51.1676
50.3474
49.5842
48.9211
48.4204
48.5717
80.3075
74.3469
68.469
64.4671
62.0466
60.4151
59.111
57.9527
56.8821
55.8529
54.8605
53.8846
52.9487
52.0359
51.1814
50.3639
49.6306
48.9687
48.4795
48.2962
81.8417
74.2838
67.8864
64.0458
61.863
60.3269
59.0493
57.8965
56.8351
55.8143
54.8362
53.8678
52.9437
52.034
51.1914
50.3765
49.6639
49.0053
48.5384
48.1534
83.8055
74.2049
67.2872
63.672
61.6962
60.2472
59.0029
57.8641
56.8116
55.7977
54.8271
53.8638
52.9444
52.0372
51.1981
50.3863
49.6794
49.0268
48.5353
48.0766
86.9156
74.5573
67.1186
63.5586
61.6369
60.2219
58.9955
57.864
56.8136
55.8006
54.8299
53.8665
52.9471
52.0397
51.2012
50.3897
49.683
49.0325
48.5366
48.1965
47.2579
47.1696
46.9433
46.6999
46.5027
46.3565
46.2584
46.1933
46.1499
46.1209
46.1017
46.0826
46.0617
46.0346
46.0003
45.9561
45.9036
45.8386
45.7653
45.6812
45.5927
45.5047
45.4234
45.3493
45.2874
45.2382
45.202
45.1709
45.1393
45.0977
45.0436
44.9769
44.904
44.8302
44.7594
44.6883
44.6156
44.5313
44.436
44.3261
44.2108
44.091
43.9839
43.8945
43.8356
43.8037
43.8025
43.8218
43.8592
43.9021
43.9442
43.971
43.9796
43.9579
43.9112
43.8298
43.7259
43.5935
43.4452
43.2707
43.0779
42.859
42.6275
42.3837
42.148
41.9304
41.7492
41.6147
41.5358
41.5024
41.515
41.5561
41.6251
41.7017
41.7907
41.8694
41.9461
41.9973
42.0333
42.037
42.0222
41.9801
41.929
41.8578
41.7916
41.7227
41.67
41.6325
41.6153
41.6206
41.6506
41.7061
41.787
41.8844
41.9989
42.1204
42.2557
42.3938
42.5417
42.6864
42.8336
42.9685
43.1013
43.2066
43.31
43.3872
43.4656
43.5259
43.5949
43.6466
43.7017
43.7385
43.7738
43.7876
43.8004
43.7996
43.8056
43.8047
43.8151
43.8206
43.8383
43.8503
43.8777
43.8959
43.9349
43.957
44.0087
44.0428
44.113
44.1805
44.2832
44.39
44.5213
44.6541
44.8034
44.9505
45.1104
45.2612
45.4188
45.5638
45.7177
45.8651
46.023
46.1772
46.3415
46.4998
46.6684
46.8363
47.0096
47.1813
47.3545
47.523
47.6938
47.8531
48.0127
48.1666
48.331
48.4835
48.6565
48.8209
49.0119
49.1765
49.3742
49.5347
49.7244
49.8684
50.0466
50.1704
50.3284
50.4232
50.5807
50.6482
50.8184
50.8814
51.0761
51.1452
51.3739
51.4485
51.7082
51.8101
52.0921
52.2316
52.5489
52.7479
53.1001
53.3631
53.748
54.046
54.4598
54.7591
55.1651
55.397
55.6784
55.653
55.5467
54.8056
53.6108
50.3939
46.2864
26.0059
47.0329
47.0027
46.9275
46.765
46.5759
46.4099
46.2952
46.2268
46.1935
46.1773
46.1696
46.1581
46.1419
46.1162
46.0833
46.0395
45.9878
45.9252
45.8563
45.7787
45.6984
45.6179
45.5443
45.477
45.4209
45.3736
45.3368
45.3039
45.2728
45.2349
45.1889
45.1313
45.0677
44.9989
44.9306
44.8584
44.7843
44.7001
44.6086
44.5048
44.3973
44.2875
44.1882
44.1036
44.0439
44.0077
43.9983
44.008
44.0341
44.0642
44.0951
44.1122
44.1154
44.0911
44.0454
43.9674
43.8671
43.7382
43.5916
43.4206
43.233
43.0241
42.8036
42.5751
42.353
42.1476
41.9739
41.8387
41.7528
41.7084
41.7075
41.7348
41.7905
41.8566
41.9329
42.0033
42.0678
42.1123
42.1391
42.1386
42.1201
42.0782
42.0273
41.964
41.9024
41.8432
41.7944
41.762
41.7456
41.7495
41.7757
41.8258
41.8991
41.9875
42.0919
42.2044
42.3289
42.4563
42.5917
42.7253
42.8617
42.9886
43.1101
43.2082
43.3023
43.3763
43.4476
43.5033
43.5607
43.6045
43.646
43.6727
43.6926
43.6949
43.69
43.6783
43.6675
43.6561
43.6504
43.6413
43.6442
43.6415
43.6578
43.667
43.6989
43.7183
43.7634
43.7977
43.8591
43.9203
44.0109
44.1069
44.2275
44.3497
44.4894
44.6234
44.7712
44.9088
45.0527
45.1838
45.3233
45.4554
45.5954
45.7298
45.8763
46.0098
46.1611
46.3041
46.4609
46.6104
46.7675
46.9161
47.0764
47.2169
47.3717
47.5094
47.6746
47.8145
47.9914
48.1487
48.341
48.4977
48.6964
48.8472
49.0349
49.1702
49.3438
49.4514
49.6044
49.6761
49.8277
49.8705
50.0331
50.0699
50.2601
50.3036
50.524
50.5804
50.8246
50.9121
51.1705
51.2936
51.5718
51.7459
52.0551
52.2613
52.6047
52.8054
53.1558
53.3116
53.5913
53.5953
53.6622
53.2388
52.7575
51.1627
49.4612
43.7629
37.9456
19.2757
47.0063
47.0162
47.0374
46.9286
46.7203
46.4953
46.3272
46.2322
46.2025
46.205
46.2191
46.2246
46.2192
46.1973
46.1647
46.1187
46.0655
46.0026
45.9357
45.8626
45.7897
45.7168
45.6511
45.5906
45.5402
45.496
45.4607
45.4279
45.3979
45.3627
45.3229
45.2728
45.2174
45.1543
45.0897
45.0186
44.945
44.8628
44.7761
44.6806
44.5831
44.4847
44.3949
44.317
44.2591
44.2203
44.2038
44.2029
44.2167
44.2336
44.2517
44.2578
44.2524
44.2236
44.1752
44.0987
44
43.875
43.7308
43.5653
43.3841
43.187
42.9811
42.7708
42.5668
42.3772
42.2151
42.0849
41.9957
41.944
41.9315
41.9477
41.9904
42.0462
42.1111
42.1721
42.2253
42.2614
42.2789
42.2741
42.2512
42.2116
42.1612
42.1049
42.0469
41.9942
41.9491
41.9185
41.9006
41.9003
41.9199
41.9621
42.0242
42.1027
42.1959
42.3002
42.4139
42.5324
42.6565
42.7801
42.9052
43.0245
43.1353
43.2288
43.3167
43.3897
43.4559
43.5092
43.5587
43.5976
43.6288
43.6492
43.6562
43.6494
43.6315
43.6104
43.5883
43.565
43.5477
43.5251
43.5186
43.5037
43.5132
43.5161
43.5441
43.5654
43.6062
43.6435
43.6986
43.758
43.8389
43.9259
44.036
44.1482
44.277
44.3988
44.5322
44.6566
44.7854
44.9025
45.028
45.1463
45.2722
45.3921
45.5236
45.6401
45.7772
45.8999
46.0419
46.166
46.3042
46.4285
46.5734
46.6921
46.8417
46.9648
47.1272
47.2613
47.4421
47.5999
47.7919
47.9453
48.1442
48.2841
48.4707
48.5909
48.7592
48.8424
48.9915
49.0415
49.1864
49.2077
49.3696
49.3816
49.5725
49.5948
49.7977
49.8439
50.0539
50.1326
50.3468
50.4526
50.6901
50.8174
51.0936
51.2201
51.5176
51.6091
51.873
51.8649
52.0227
51.7424
51.6482
50.6869
50.0834
47.3398
45.4711
38.412
31.3737
18.6772
46.9128
46.9321
47.0698
46.9916
46.7589
46.4934
46.297
46.1985
46.1872
46.2196
46.2661
46.2986
46.3109
46.297
46.2648
46.215
46.157
46.0905
46.023
45.9524
45.885
45.8191
45.7609
45.7076
45.6635
45.6238
45.5915
45.5603
45.5319
45.499
45.4635
45.419
45.3697
45.3117
45.2504
45.1821
45.1109
45.0329
44.9521
44.8659
44.7795
44.6931
44.614
44.5432
44.4882
44.447
44.424
44.4125
44.4133
44.4161
44.4203
44.4153
44.4004
44.3668
44.3152
44.2398
44.1434
44.0239
43.8858
43.7295
43.5596
43.3776
43.1894
42.999
42.8151
42.6435
42.4947
42.3721
42.2829
42.2259
42.2036
42.2085
42.2383
42.2822
42.3349
42.3845
42.4263
42.4534
42.463
42.4546
42.4293
42.3913
42.3426
42.2907
42.2369
42.1881
42.1454
42.1125
42.0893
42.0809
42.0911
42.1223
42.1724
42.2395
42.3227
42.4173
42.5212
42.6294
42.744
42.8584
42.9742
43.0857
43.1885
43.2773
43.3611
43.4335
43.4973
43.5504
43.5963
43.6331
43.6588
43.673
43.6699
43.6541
43.6281
43.5977
43.5702
43.5375
43.5142
43.483
43.4697
43.4464
43.4515
43.4505
43.4779
43.4996
43.5405
43.5776
43.634
43.6933
43.7723
43.8551
43.9554
44.0588
44.1752
44.2858
44.4051
44.5159
44.6297
44.7326
44.8461
44.9514
45.0676
45.1775
45.2982
45.407
45.5336
45.6402
45.7667
45.8648
45.9842
46.079
46.2074
46.3001
46.4424
46.5551
46.7156
46.8471
47.035
47.1872
47.3831
47.528
47.7342
47.8506
48.0467
48.1388
48.3111
48.3611
48.512
48.5351
48.6798
48.6806
48.8497
48.8508
49.0292
49.0486
49.2139
49.2583
49.4211
49.4853
49.6574
49.7329
49.9342
50.0016
50.2339
50.2734
50.5143
50.464
50.6903
50.4251
50.5713
49.8555
49.791
48.1037
47.4993
43.8859
41.4488
34.8183
27.3144
18.8193
47.8126
47.6856
47.3094
46.9089
46.5541
46.2817
46.1344
46.0977
46.1408
46.2203
46.3082
46.3742
46.409
46.4065
46.3765
46.3232
46.2591
46.1872
46.1164
46.0462
45.9825
45.923
45.8723
45.8268
45.7897
45.7561
45.7282
45.7004
45.6744
45.6444
45.6121
45.5723
45.528
45.4756
45.4192
45.3562
45.2901
45.2184
45.145
45.0681
44.9921
44.9162
44.8461
44.7815
44.7282
44.6845
44.6538
44.6319
44.6194
44.6095
44.6007
44.5856
44.562
44.5239
44.4701
44.3973
44.3059
44.1953
44.0682
43.9254
43.7711
43.6069
43.4385
43.2688
43.1055
42.9524
42.8181
42.705
42.6191
42.5597
42.5298
42.5246
42.5418
42.5728
42.6113
42.6484
42.6785
42.6969
42.7002
42.6888
42.6625
42.625
42.5785
42.5284
42.4766
42.4273
42.3823
42.3424
42.3097
42.289
42.2872
42.3045
42.3428
42.3981
42.4721
42.5573
42.6519
42.7523
42.8589
42.9667
43.0769
43.1827
43.2807
43.3664
43.4478
43.5197
43.5816
43.6359
43.6786
43.7135
43.7345
43.7418
43.7312
43.7068
43.6765
43.6407
43.6118
43.5755
43.5485
43.5148
43.4966
43.4737
43.477
43.4792
43.5053
43.5292
43.5701
43.6086
43.671
43.7302
43.8143
43.8935
43.99
44.0836
44.1908
44.2885
44.3983
44.4928
44.5983
44.6871
44.7935
44.8854
44.9976
45.0992
45.2171
45.3217
45.4407
45.5328
45.6474
45.7179
45.8229
45.8857
45.9969
46.065
46.198
46.2965
46.4606
46.5807
46.7797
46.9163
47.1224
47.2549
47.4708
47.5632
47.7709
47.8285
48.0056
48.0225
48.174
48.169
48.3141
48.3067
48.4748
48.4864
48.6453
48.6675
48.8067
48.8316
48.9634
48.9897
49.141
49.1581
49.3437
49.3202
49.5396
49.4289
49.6725
49.3826
49.635
49.0219
49.1888
48.0227
47.894
45.7506
44.7473
41.1389
37.9153
32.664
25.5996
19.312
48.5082
48.3145
47.5697
46.8658
46.3427
46.0348
45.9364
45.9793
46.0982
46.2407
46.3754
46.4737
46.5266
46.5321
46.5017
46.4439
46.3724
46.294
46.2183
46.147
46.085
46.0305
45.9861
45.9483
45.9181
45.8912
45.8683
45.8451
45.8223
45.7958
45.7665
45.7312
45.6913
45.6448
45.5941
45.5377
45.4781
45.4141
45.3486
45.2809
45.2138
45.147
45.0839
45.0246
44.9724
44.9268
44.8899
44.8594
44.8352
44.8138
44.7929
44.7679
44.7361
44.6936
44.6386
44.5691
44.4844
44.3844
44.27
44.1427
44.0056
43.861
43.7134
43.5654
43.4231
43.2893
43.1706
43.069
42.9893
42.9315
42.8983
42.8875
42.8951
42.9148
42.9401
42.9653
42.9844
42.9943
42.9917
42.977
42.9486
42.9096
42.8618
42.8091
42.7541
42.6998
42.6485
42.5987
42.554
42.5176
42.5025
42.5064
42.5326
42.5774
42.6427
42.7188
42.8043
42.8985
42.9995
43.104
43.2117
43.3174
43.4146
43.5009
43.5818
43.6528
43.7132
43.7667
43.8066
43.8368
43.8521
43.8511
43.834
43.8021
43.771
43.735
43.7072
43.6732
43.6453
43.6143
43.5967
43.5829
43.5894
43.6007
43.6274
43.6567
43.697
43.7434
43.8099
43.8786
43.9684
44.0477
44.1447
44.2275
44.3276
44.412
44.5143
44.5955
44.6966
44.7759
44.8766
44.9601
45.0724
45.1672
45.2901
45.3917
45.5059
45.5878
45.6894
45.7347
45.8208
45.857
45.947
45.9899
46.1172
46.1938
46.3614
46.4666
46.6744
46.793
47.0155
47.1272
47.3623
47.4258
47.6471
47.6736
47.8552
47.8313
47.9902
47.954
48.1101
48.0963
48.2721
48.2829
48.4493
48.4472
48.5919
48.5702
48.6978
48.6521
48.8083
48.7379
48.9175
48.781
48.9836
48.7215
48.9319
48.4583
48.6177
47.7903
47.7599
46.3951
45.9203
43.7787
42.272
39.181
35.6729
31.7179
25.644
20.4168
49.1443
48.8747
47.7754
46.7644
46.0681
45.7313
45.7021
45.8496
46.0647
46.2804
46.4622
46.5887
46.6537
46.6611
46.6252
46.5592
46.4783
46.3928
46.3118
46.2393
46.1783
46.1283
46.0893
46.0586
46.0349
46.0149
45.9974
45.9795
45.9604
45.9377
45.9113
45.8797
45.8435
45.8021
45.7565
45.7066
45.6535
45.5974
45.5395
45.4802
45.4208
45.3617
45.3046
45.2499
45.1991
45.1527
45.1114
45.0746
45.0419
45.0112
44.9805
44.9474
44.909
44.8634
44.8084
44.7428
44.6652
44.5758
44.4747
44.3633
44.2439
44.1189
43.9914
43.8646
43.7422
43.6272
43.5237
43.435
43.3641
43.3129
43.282
43.2703
43.2734
43.2851
43.2998
43.3139
43.3233
43.3262
43.3182
43.2987
43.2665
43.2236
43.1708
43.1111
43.049
42.9873
42.9274
42.8662
42.8079
42.7559
42.7263
42.7186
42.735
42.7721
42.8303
42.8995
42.9791
43.0697
43.1668
43.2721
43.3805
43.4887
43.5881
43.6792
43.7585
43.8276
43.8864
43.9362
43.9716
43.995
44.0054
43.9971
43.9756
43.9392
43.9074
43.8738
43.8487
43.8211
43.796
43.7744
43.7663
43.7695
43.7872
43.8127
43.846
43.8824
43.9253
43.9789
44.0499
44.1314
44.2244
44.313
44.4069
44.4881
44.58
44.6587
44.7533
44.8313
44.9284
45.0058
45.1035
45.1881
45.2984
45.3925
45.5135
45.6166
45.7272
45.803
45.8892
45.9159
45.9754
45.9942
46.0579
46.0749
46.1956
46.2532
46.4099
46.5133
46.7241
46.8268
47.0724
47.1675
47.4104
47.4621
47.6804
47.6963
47.8728
47.8274
47.9748
47.9301
48.0841
48.0849
48.2562
48.2757
48.4376
48.4308
48.5631
48.5111
48.6081
48.5179
48.6251
48.5017
48.6008
48.3961
48.4992
48.1512
48.2393
47.6597
47.6349
46.7202
46.4614
45.058
44.3148
42.3369
40.6227
38.1607
34.816
31.7335
26.7146
22.0664
50.1734
49.7391
48.0337
46.5995
45.7143
45.3647
45.4264
45.7035
46.0344
46.3306
46.5575
46.7064
46.7778
46.7825
46.737
46.6606
46.5697
46.4779
46.3933
46.3209
46.262
46.2167
46.1829
46.1587
46.1409
46.1273
46.1148
46.1018
46.0861
46.0671
46.0434
46.0152
45.9822
45.945
45.9035
45.8589
45.8111
45.7612
45.7092
45.6563
45.6026
45.5493
45.4965
45.4455
45.3963
45.35
45.3063
45.2659
45.2272
45.1904
45.153
45.1147
45.0726
45.0264
44.9731
44.9127
44.843
44.7648
44.6769
44.5814
44.4787
44.3718
44.2623
44.1544
44.0497
43.9524
43.8645
43.7897
43.7296
43.6872
43.6609
43.6509
43.6513
43.6575
43.6639
43.6697
43.6712
43.6687
43.6562
43.632
43.5945
43.5459
43.4857
43.4174
43.3471
43.2764
43.2084
43.137
43.0661
43.0024
42.9607
42.9445
42.9539
42.9871
43.0384
43.1025
43.178
43.2663
43.3634
43.4714
43.5846
43.6993
43.8025
43.8976
43.9742
44.0429
44.0986
44.1415
44.1703
44.1857
44.1909
44.1794
44.1546
44.1175
44.0848
44.0573
44.038
44.0202
44.005
44.0002
44.0097
44.0359
44.0712
44.1156
44.1605
44.2071
44.257
44.3194
44.3977
44.4873
44.5843
44.6784
44.7697
44.8573
44.9447
45.0253
45.1154
45.1974
45.2927
45.3749
45.4712
45.5599
45.6684
45.7646
45.8879
45.9883
46.0995
46.168
46.2487
46.2525
46.2871
46.2968
46.3361
46.3376
46.4491
46.4855
46.6338
46.7255
46.9418
47.0333
47.2875
47.3883
47.6276
47.6907
47.9009
47.9264
48.091
48.0324
48.1535
48.116
48.252
48.2764
48.4432
48.4775
48.6321
48.6266
48.7512
48.6643
48.7256
48.5969
48.6423
48.4544
48.4642
48.1839
48.1959
47.7527
47.7598
47.0619
46.925
45.9414
45.5546
44.1982
43.3477
41.6275
39.8838
37.9502
34.9415
32.3112
28.1591
23.9521
50.6152
50.1454
48.2222
46.5739
45.56
45.1745
45.2726
45.6255
46.033
46.3903
46.656
46.8249
46.9005
46.8994
46.8421
46.7543
46.6541
46.557
46.4702
46.3988
46.3427
46.302
46.2734
46.2552
46.2428
46.2345
46.2264
46.2173
46.2047
46.1886
46.1673
46.1419
46.1114
46.0774
46.0392
45.9986
45.9547
45.9093
45.8615
45.8131
45.7633
45.714
45.6641
45.6157
45.5676
45.5217
45.4766
45.4337
45.3912
45.3507
45.3096
45.2688
45.2255
45.1802
45.13
45.0755
45.0138
44.9461
44.8705
44.7895
44.7023
44.6124
44.5201
44.4298
44.3424
44.2626
44.1906
44.1306
44.082
44.0488
44.0283
44.0205
44.0186
44.0205
44.0202
44.0189
44.0147
44.0082
43.9917
43.9642
43.9228
43.8691
43.8012
43.7239
43.6432
43.5637
43.4876
43.4065
43.3293
43.2572
43.209
43.1886
43.196
43.2262
43.2724
43.3309
43.4045
43.4929
43.5945
43.7072
43.8283
43.9532
44.0643
44.1621
44.2383
44.3051
44.3542
44.3871
44.4056
44.413
44.4144
44.4001
44.3748
44.3409
44.3118
44.2936
44.2848
44.2805
44.2828
44.2993
44.3329
44.3857
44.4438
44.5112
44.5719
44.6328
44.6937
44.7645
44.8507
44.9451
45.046
45.1427
45.2348
45.33
45.417
45.5018
45.593
45.6759
45.7745
45.8607
45.9582
46.0558
46.1672
46.2679
46.3984
46.4944
46.6192
46.675
46.7704
46.7326
46.7632
46.7531
46.7714
46.7682
46.874
46.8826
47.039
47.1124
47.3416
47.4246
47.6871
47.7899
48.03
48.09
48.3215
48.3468
48.5224
48.4157
48.5213
48.5017
48.6335
48.6751
48.8339
48.8895
49.0394
49.0387
49.1632
49.0166
49.0609
48.8865
48.8882
48.6159
48.5787
48.1959
48.1314
47.6472
47.5749
46.8727
46.6682
45.6358
45.1899
43.9134
43.0181
41.5776
39.875
38.2759
35.6253
33.1995
29.6816
25.8926
50.8434
50.406
48.4195
46.6735
45.5757
45.1343
45.2214
45.604
46.0556
46.4531
46.7466
46.9301
47.0083
47.0017
46.9345
46.8371
46.7296
46.6288
46.5413
46.4718
46.4191
46.3832
46.3597
46.3468
46.3391
46.335
46.3301
46.3239
46.3135
46.2996
46.2802
46.257
46.2287
46.1973
46.1619
46.1243
46.0834
46.0413
45.9967
45.9516
45.9048
45.8582
45.8105
45.7637
45.7165
45.6708
45.625
45.5811
45.5371
45.4948
45.4522
45.4108
45.3681
45.3253
45.2794
45.2312
45.1777
45.12
45.0559
44.9882
44.9156
44.8412
44.765
44.6916
44.621
44.5578
44.5018
44.4565
44.4203
44.3974
44.3837
44.3782
44.3745
44.3732
44.3692
44.3627
44.3535
44.3438
44.3254
44.2966
44.2528
44.1942
44.1203
44.0361
43.9462
43.8561
43.7718
43.6824
43.6021
43.5255
43.4766
43.4543
43.4648
43.4943
43.539
43.5934
43.6695
43.7605
43.8671
43.9848
44.1173
44.2537
44.3753
44.4744
44.5495
44.6097
44.6497
44.6712
44.6801
44.681
44.6797
44.6637
44.6413
44.6134
44.5932
44.5884
44.5952
44.6104
44.6361
44.6783
44.7414
44.8217
44.9087
45.0004
45.0816
45.16
45.2342
45.3123
45.4033
45.4978
45.6016
45.6972
45.7952
45.8937
45.9867
46.0755
46.173
46.2543
46.3622
46.4519
46.5567
46.6625
46.784
46.8899
47.0381
47.1256
47.2793
47.3165
47.4379
47.3363
47.3961
47.3417
47.3737
47.3548
47.4605
47.4403
47.623
47.6774
47.9327
47.9878
48.2899
48.3704
48.6652
48.6635
48.9601
48.9642
49.1865
48.9742
49.1059
49.0684
49.2279
49.2788
49.4585
49.5097
49.6694
49.655
49.7931
49.5559
49.6223
49.3989
49.3722
48.9984
48.9133
48.4502
48.3776
47.8977
47.8033
47.0175
46.7982
45.7137
45.2444
44.075
43.1454
41.9404
40.3458
38.8988
36.5535
34.2384
31.1621
27.7686
50.9824
50.5621
48.5548
46.7649
45.6284
45.157
45.2375
45.6335
46.1068
46.5238
46.83
47.019
47.0956
47.0824
47.0077
46.9045
46.7941
46.6933
46.6078
46.5417
46.4934
46.4623
46.4436
46.4348
46.4306
46.4291
46.4262
46.4215
46.4123
46.3996
46.3817
46.3601
46.3338
46.3046
46.2715
46.2364
46.1983
46.1588
46.1168
46.0741
46.0295
45.9849
45.939
45.8936
45.8474
45.8024
45.7568
45.7128
45.6689
45.6268
45.5846
45.5441
45.5031
45.4632
45.422
45.3804
45.3354
45.2878
45.2358
45.1815
45.1233
45.0642
45.0043
44.9477
44.8932
44.8454
44.8053
44.7748
44.7511
44.7376
44.73
44.7263
44.7221
44.7189
44.7119
44.7027
44.6916
44.6802
44.6615
44.6334
44.5892
44.528
44.4499
44.3592
44.2628
44.1639
44.0732
43.9787
43.899
43.8216
43.7798
43.7571
43.7741
43.8042
43.8511
43.9034
43.987
44.0812
44.1941
44.3141
44.4591
44.6036
44.7338
44.831
44.9023
44.9508
44.9801
44.9903
44.9945
44.9929
44.9913
44.9767
44.9638
44.944
44.9408
44.9503
44.9814
45.0167
45.0749
45.1457
45.2439
45.3504
45.4698
45.5816
45.6906
45.7851
45.8783
45.9625
46.0579
46.1458
46.2527
46.34
46.4466
46.5411
46.647
46.7377
46.8448
46.9296
47.0502
47.145
47.2653
47.3789
47.519
47.6255
47.7976
47.874
48.0654
48.0769
48.2218
48.0447
48.1715
48.0619
48.1448
48.0817
48.2211
48.1792
48.4004
48.4223
48.7174
48.7314
49.0817
49.1412
49.5114
49.4499
49.8412
49.7879
50.051
49.7315
49.9478
49.8343
50.071
50.0725
50.3098
50.3368
50.5186
50.5028
50.6489
50.2929
50.3687
50.1179
50.008
49.6094
49.4805
49.0583
49.0015
48.422
48.2775
47.4043
47.2547
46.1214
45.6222
44.569
43.6233
42.5589
41.1162
39.6884
37.5587
35.3431
32.5806
29.5337
51.0335
50.6098
48.5998
46.8162
45.6918
45.2351
45.3303
45.7348
46.2096
46.6215
46.9195
47.0983
47.1643
47.1419
47.062
46.9573
46.849
46.7521
46.6718
46.6112
46.5683
46.5419
46.5271
46.521
46.5187
46.5181
46.5159
46.5116
46.5031
46.491
46.4743
46.4541
46.4296
46.4024
46.3716
46.3388
46.303
46.2658
46.2263
46.1859
46.1435
46.1005
46.0562
46.0118
45.9668
45.9226
45.8783
45.8353
45.793
45.7523
45.712
45.6734
45.6355
45.5993
45.5632
45.5278
45.4912
45.454
45.4144
45.3734
45.3298
45.2861
45.2433
45.2034
45.1658
45.134
45.1098
45.0929
45.08
45.0735
45.0709
45.0692
45.065
45.0587
45.0477
45.0359
45.0244
45.0142
44.9988
44.9745
44.9335
44.8741
44.7955
44.7014
44.5999
44.4951
44.3996
44.3046
44.2281
44.1563
44.1267
44.105
44.131
44.1613
44.2127
44.2616
44.3552
44.4526
44.573
44.6935
44.8514
45
45.138
45.2303
45.2952
45.3232
45.3456
45.3424
45.3488
45.3471
45.352
45.3428
45.3458
45.3392
45.3623
45.3895
45.453
45.5115
45.6094
45.7075
45.8442
45.9761
46.1315
46.262
46.3968
46.5046
46.6205
46.7098
46.8136
46.8992
47.0022
47.0836
47.1961
47.2868
47.4023
47.5001
47.6134
47.711
47.842
47.9447
48.0766
48.198
48.3547
48.474
48.6554
48.7332
48.9424
48.9573
49.0607
48.857
49.0802
48.8852
49.0473
48.927
49.123
49.0623
49.3302
49.3476
49.6614
49.6537
50.0636
50.1059
50.5224
50.4432
50.8832
50.8073
51.0531
50.6809
50.939
50.7832
51.1176
51.0934
51.3754
51.3594
51.571
51.5691
51.6129
51.2378
51.3067
50.9457
50.8409
50.4685
50.3015
49.8542
49.7027
49.1143
48.9697
48.1216
47.8408
46.7961
46.2832
45.3176
44.4086
43.3458
42.0206
40.5561
38.5926
36.4849
33.9572
31.1967
50.9801
50.5461
48.5672
46.846
45.7862
45.3903
45.5209
45.9241
46.3742
46.7523
47.0181
47.1686
47.2135
47.1793
47.0971
46.996
46.8951
46.8067
46.7351
46.6821
46.6458
46.6239
46.612
46.607
46.605
46.6039
46.6013
46.5963
46.5878
46.5761
46.5603
46.5414
46.5188
46.4934
46.465
46.4345
46.4015
46.3669
46.3301
46.2919
46.2518
46.2106
46.168
46.1251
46.082
46.0395
45.9977
45.9572
45.9174
45.8791
45.8418
45.8064
45.7726
45.7413
45.7113
45.6828
45.6546
45.627
45.5994
45.5721
45.5435
45.515
45.4886
45.4652
45.4447
45.43
45.4213
45.4168
45.4143
45.4151
45.4168
45.4159
45.4104
45.4006
45.3871
45.3746
45.3639
45.3555
45.3453
45.3266
45.2916
45.2381
45.1637
45.0703
44.9666
44.8613
44.7642
44.6709
44.5956
44.5333
44.5151
44.5
44.5341
44.5638
44.6164
44.6671
44.7753
44.8752
45.0017
45.1233
45.2952
45.4434
45.5887
45.6714
45.7287
45.7364
45.7511
45.7385
45.7561
45.7543
45.7719
45.7712
45.7962
45.8103
45.8664
45.9173
46.0182
46.1071
46.248
46.3761
46.5524
46.7063
46.8912
47.0365
47.1978
47.317
47.4561
47.5528
47.6677
47.7491
47.853
47.9321
48.0489
48.1457
48.2717
48.3782
48.4983
48.6076
48.7399
48.8514
48.9967
49.1255
49.2898
49.4294
49.611
49.7189
49.905
49.9586
49.9848
49.8142
50.0573
49.811
50.0385
49.9198
50.1853
50.1122
50.4001
50.4432
50.7254
50.7441
51.1897
51.2679
51.7023
51.6573
52.0537
52.0079
52.1554
51.7908
52.0961
51.8773
52.3214
52.2685
52.5838
52.567
52.7692
52.7258
52.7482
52.3699
52.3895
51.932
51.8757
51.4469
51.208
50.8626
50.6087
50.2097
49.7627
49.0285
48.6128
47.6843
47.1676
46.2432
45.3914
44.2531
43.0146
41.4787
39.6657
37.653
35.3122
32.7845
50.7732
50.3341
48.4583
46.881
45.9471
45.6505
45.818
46.1961
46.5897
46.9052
47.1157
47.2216
47.2383
47.1926
47.112
47.0202
46.9322
46.8568
46.797
46.7535
46.7239
46.7058
46.6953
46.6899
46.6865
46.6835
46.6791
46.6729
46.6638
46.652
46.637
46.6191
46.5981
46.5748
46.549
46.5213
46.4913
46.4597
46.4261
46.3907
46.3532
46.3143
46.2737
46.2331
46.1931
46.1544
46.1162
46.0788
46.0424
46.0077
45.9745
45.9433
45.9146
45.8891
45.866
45.8455
45.8273
45.8118
45.7978
45.7833
45.7685
45.7555
45.7456
45.7386
45.7355
45.7371
45.7426
45.7496
45.757
45.7654
45.772
45.7736
45.768
45.7551
45.7383
45.7248
45.7157
45.7112
45.7069
45.6959
45.6703
45.6263
45.5592
45.4711
45.3686
45.2666
45.1678
45.078
45.0055
44.9571
44.9437
44.9328
44.9702
45.0013
45.0555
45.1247
45.2503
45.358
45.4896
45.6187
45.7947
45.935
46.0791
46.1548
46.2081
46.2032
46.2153
46.2019
46.2299
46.2349
46.27
46.2812
46.33
46.3689
46.4584
46.5398
46.6801
46.804
46.9852
47.147
47.356
47.5327
47.7398
47.8993
48.0804
48.2104
48.3676
48.4772
48.603
48.6871
48.7953
48.8803
49.0064
49.1107
49.2507
49.3698
49.4974
49.6175
49.7379
49.8572
50.0012
50.1457
50.313
50.4894
50.6545
50.8019
50.9582
51.0392
51.0167
50.9737
51.1134
50.8719
51.1427
51.0566
51.336
51.3135
51.5857
51.6907
51.886
51.9921
52.4282
52.5538
52.9779
53.0356
53.3253
53.2893
53.408
53.0833
53.3647
53.2336
53.6278
53.5506
53.8744
53.8972
54.07
54.0029
53.913
53.5424
53.5763
53.0688
52.9423
52.5592
52.2683
52.0925
51.6178
51.4175
50.7103
50.2391
49.5266
48.7559
48.1747
47.3194
46.5024
45.27
44.0841
42.4605
40.7773
38.8272
36.6455
34.2982
50.3069
49.8923
48.2819
46.9762
46.2419
46.0519
46.2241
46.5362
46.8376
47.064
47.2006
47.254
47.2421
47.1882
47.114
47.0361
46.9645
46.9045
46.8575
46.823
46.7989
46.7828
46.7719
46.7644
46.7583
46.7526
46.746
46.7381
46.7283
46.7163
46.7018
46.685
46.6658
46.6446
46.6214
46.5965
46.5699
46.5417
46.5118
46.4797
46.4454
46.4098
46.3732
46.3363
46.3
46.2655
46.2328
46.2012
46.1698
46.1392
46.1103
46.0847
46.0631
46.045
46.03
46.019
46.0121
46.0087
46.0084
46.0095
46.011
46.0132
46.0182
46.0268
46.0391
46.0543
46.0718
46.0896
46.1065
46.122
46.1331
46.1366
46.1306
46.1155
46.0955
46.0794
46.0715
46.0714
46.074
46.0719
46.0579
46.0261
45.9694
45.8898
45.7939
45.6995
45.6006
45.5203
45.4516
45.4139
45.4023
45.402
45.4408
45.4718
45.5319
45.6325
45.7729
45.892
46.0254
46.1713
46.338
46.472
46.6068
46.6804
46.73
46.7314
46.7401
46.7375
46.7754
46.7987
46.8523
46.8864
46.9559
47.0233
47.1415
47.2642
47.4347
47.6005
47.807
48.0058
48.2292
48.4298
48.6482
48.8275
49.0216
49.1685
49.3359
49.46
49.6016
49.6927
49.8155
49.9159
50.0497
50.1717
50.3177
50.4454
50.5782
50.6984
50.8068
50.9352
51.0771
51.2392
51.4202
51.6367
51.7866
51.9763
52.0846
52.1745
52.1802
52.2218
52.2329
52.1722
52.3576
52.3488
52.6238
52.6246
52.8536
53.0038
53.1706
53.3808
53.6976
53.9779
54.3418
54.439
54.6166
54.6011
54.6864
54.5035
54.7652
54.751
54.9872
54.9974
55.2006
55.2797
55.3342
55.2448
55.1272
54.8861
54.8047
54.3366
54.1492
53.8537
53.4676
53.3902
52.8046
52.6697
51.7235
51.5303
50.5838
49.9887
49.2767
48.5466
47.6446
46.3867
45.2268
43.5268
41.9265
40.0084
37.9703
35.7534
49.5461
49.2249
48.0909
47.1837
46.6901
46.5776
46.6981
46.8957
47.0745
47.1975
47.2586
47.265
47.2316
47.1757
47.1114
47.0489
46.9935
46.9476
46.9112
46.8833
46.8621
46.846
46.8334
46.8232
46.8142
46.8057
46.7972
46.788
46.7777
46.7658
46.752
46.7361
46.7185
46.6992
46.6784
46.6565
46.6339
46.6099
46.5839
46.5557
46.5257
46.4941
46.4621
46.4307
46.4002
46.3711
46.3441
46.3194
46.2956
46.2717
46.249
46.2311
46.2189
46.2107
46.2058
46.2054
46.21
46.2192
46.2309
46.2435
46.2581
46.2757
46.2958
46.3187
46.3438
46.3699
46.396
46.4214
46.4453
46.4664
46.4807
46.4857
46.4798
46.4636
46.442
46.4243
46.4176
46.4207
46.4275
46.431
46.4256
46.406
46.3637
46.2973
46.2124
46.1305
46.0333
45.9719
45.913
45.8872
45.8767
45.8951
45.9301
45.9736
46.0504
46.1733
46.3137
46.4475
46.59
46.7548
46.9073
47.0416
47.1589
47.2386
47.2847
47.3057
47.3152
47.3381
47.3816
47.4369
47.5046
47.5758
47.6606
47.7664
47.9029
48.0704
48.2617
48.4669
48.6843
48.9119
49.133
49.3589
49.5734
49.7722
49.9671
50.1426
50.3156
50.4753
50.6213
50.7436
50.868
50.9966
51.1302
51.2775
51.4185
51.5676
51.6937
51.8229
51.9275
52.0718
52.2082
52.3957
52.5805
52.8144
52.9669
53.2116
53.2506
53.3926
53.3622
53.4628
53.4634
53.5568
53.6336
53.7506
53.8913
53.959
54.1619
54.3486
54.4623
54.8191
55.0417
55.4709
55.6047
55.7755
55.8563
55.9339
56.0099
56.053
56.1797
56.2305
56.3209
56.4678
56.5184
56.6436
56.5885
56.5488
56.2972
56.2863
55.9544
55.7389
55.3875
55.2028
54.7678
54.7648
53.9552
53.7904
52.8359
52.7543
51.646
51.3157
50.387
49.7694
48.7004
47.5599
46.3552
44.6331
43.0695
41.1862
39.2595
37.1236
48.7116
48.5446
47.9921
47.5212
47.2403
47.1367
47.1465
47.2018
47.2561
47.287
47.2876
47.2613
47.2167
47.1636
47.1098
47.0603
47.0173
46.9812
46.9514
46.9268
46.9063
46.8891
46.8745
46.8618
46.8507
46.8404
46.8305
46.8205
46.8098
46.7981
46.7847
46.7695
46.7532
46.7361
46.7183
46.6993
46.6795
46.6593
46.6381
46.6144
46.5887
46.5628
46.5372
46.5115
46.4869
46.4657
46.4476
46.431
46.4152
46.4
46.3876
46.3801
46.3776
46.3792
46.3851
46.3959
46.4111
46.43
46.4523
46.4767
46.5017
46.5278
46.5565
46.5879
46.6207
46.653
46.6846
46.7146
46.7422
46.7647
46.7795
46.7863
46.7841
46.7719
46.7527
46.7359
46.7296
46.733
46.7422
46.7502
46.7515
46.7416
46.7114
46.6597
46.592
46.5331
46.452
46.4114
46.3616
46.3541
46.3533
46.3971
46.4293
46.4972