/*--------------------------------*- C++ -*----------------------------------*\
| =========                 |                                                 |
| \\      /  F ield         | OpenFOAM: The Open Source CFD Toolbox           |
|  \\    /   O peration     | Version:  2.4.0                                 |
|   \\  /    A nd           | Web:      www.OpenFOAM.org                      |
|    \\/     M anipulation  |                                                 |
\*---------------------------------------------------------------------------*/
FoamFile
{
    version     2.0;
    format      ascii;
    class       volVectorField;
    location    "1.55";
    object      U;
}
// * * * * * * * * * * * * * * * * * * * * * * * * * * * * * * * * * * * * * //

dimensions      [0 1 -1 0 0 0 0];

internalField   nonuniform List<vector> 
8800
(
(8.09238 0.387939 0)
(5.45235 0.24251 0)
(3.90806 0.0432529 0)
(3.16107 -0.0155983 0)
(2.79569 -0.0185612 0)
(2.60655 -0.0106593 0)
(2.47275 -0.00556433 0)
(2.39425 -0.0033012 0)
(2.30417 -0.000108479 0)
(2.26484 -0.00139817 0)
(2.20194 -0.00092064 0)
(2.18752 -6.27005e-06 0)
(2.12604 0.000589672 0)
(2.12553 -0.00103941 0)
(2.06439 0.00111606 0)
(2.06966 -0.000775322 0)
(2.00813 0.000510872 0)
(2.01616 -0.00326169 0)
(2.0322 0.0113524 0)
(1.76746 -0.0805473 0)
(10.0804 0.838033 0)
(9.67034 0.867843 0)
(8.85543 0.507679 0)
(8.10365 0.261293 0)
(7.4716 0.137641 0)
(7.03262 0.0834196 0)
(6.66519 0.0539013 0)
(6.44013 0.0384686 0)
(6.17786 0.0335884 0)
(6.07407 0.0218568 0)
(5.87824 0.017938 0)
(5.83545 0.0175001 0)
(5.66497 0.0169818 0)
(5.6675 0.010622 0)
(5.49874 0.0182794 0)
(5.51639 0.00827331 0)
(5.36726 0.0204581 0)
(5.36592 -0.0138744 0)
(5.34925 0.0314282 0)
(5.17963 -0.0576953 0)
(10.0446 0.629881 0)
(10.6897 0.863967 0)
(10.8314 0.602683 0)
(10.7331 0.372653 0)
(10.416 0.254819 0)
(10.1356 0.199306 0)
(9.77916 0.151631 0)
(9.56937 0.121019 0)
(9.23081 0.100361 0)
(9.12173 0.0713684 0)
(8.84199 0.0590228 0)
(8.79042 0.0519777 0)
(8.54868 0.0459014 0)
(8.55482 0.0327819 0)
(8.31858 0.0455987 0)
(8.3433 0.0242791 0)
(8.13931 0.0471386 0)
(8.14508 -0.00911843 0)
(8.05291 0.0332103 0)
(8.01784 -0.108177 0)
(9.95097 0.454263 0)
(10.6362 0.708224 0)
(11.0972 0.54726 0)
(11.4472 0.350352 0)
(11.4852 0.260057 0)
(11.5475 0.233606 0)
(11.3998 0.195544 0)
(11.4086 0.174686 0)
(11.1845 0.157284 0)
(11.1933 0.117794 0)
(10.9697 0.106429 0)
(10.9724 0.0928088 0)
(10.7618 0.0851837 0)
(10.7847 0.0616647 0)
(10.5689 0.0830209 0)
(10.5899 0.0470612 0)
(10.4063 0.0823995 0)
(10.3927 0.00578296 0)
(10.2773 0.0438145 0)
(10.3159 -0.121023 0)
(9.9413 0.340118 0)
(10.5146 0.573342 0)
(10.951 0.463863 0)
(11.3922 0.29246 0)
(11.5558 0.203379 0)
(11.7818 0.201926 0)
(11.7849 0.17303 0)
(11.9294 0.16753 0)
(11.8875 0.159128 0)
(11.9996 0.122565 0)
(11.9395 0.112959 0)
(12.0114 0.108131 0)
(11.9585 0.093341 0)
(12.0149 0.0808884 0)
(11.9385 0.0940428 0)
(11.9619 0.0727101 0)
(11.9176 0.0901318 0)
(11.876 0.0503251 0)
(11.8239 0.0336369 0)
(11.8834 -0.0470052 0)
(9.96524 0.246601 0)
(10.3952 0.456071 0)
(10.8419 0.384903 0)
(11.2423 0.245842 0)
(11.4575 0.156784 0)
(11.6714 0.156242 0)
(11.7538 0.138901 0)
(11.8749 0.137723 0)
(11.9406 0.137207 0)
(12.0587 0.0990095 0)
(12.1089 0.100605 0)
(12.1823 0.0900324 0)
(12.2459 0.0803631 0)
(12.3227 0.0691535 0)
(12.3669 0.0864953 0)
(12.4038 0.0650642 0)
(12.4807 0.0846507 0)
(12.4687 0.0710545 0)
(12.4731 0.0507861 0)
(12.5661 -0.0347125 0)
(9.97838 0.174594 0)
(10.3195 0.348423 0)
(10.7481 0.295753 0)
(11.1377 0.20957 0)
(11.3756 0.111682 0)
(11.5613 0.123505 0)
(11.6805 0.0994976 0)
(11.7721 0.11662 0)
(11.8684 0.0948936 0)
(11.9481 0.0867142 0)
(12.0501 0.0651216 0)
(12.1262 0.0918136 0)
(12.203 0.0339064 0)
(12.2651 0.0758488 0)
(12.3557 0.0435685 0)
(12.4182 0.0762985 0)
(12.5002 0.0357779 0)
(12.5139 0.11157 0)
(12.5545 0.0336146 0)
(12.6227 0.124878 0)
(9.99228 0.108406 0)
(10.2748 0.251604 0)
(10.6596 0.199532 0)
(11.0495 0.17005 0)
(11.3233 0.0713438 0)
(11.5006 0.0982947 0)
(11.6039 0.050607 0)
(11.7133 0.1028 0)
(11.7937 0.0548498 0)
(11.8713 0.0772013 0)
(11.9798 0.0244924 0)
(12.0901 0.0834833 0)
(12.1219 0.0141307 0)
(12.1541 0.0676365 0)
(12.2892 0.00636758 0)
(12.3894 0.0694192 0)
(12.4115 0.015855 0)
(12.4722 0.106677 0)
(12.5127 0.020925 0)
(12.4758 0.116409 0)
(9.99801 0.0657037 0)
(10.2587 0.144262 0)
(10.6021 0.127941 0)
(10.9721 0.0943677 0)
(11.2743 0.042927 0)
(11.5023 0.0594989 0)
(11.5444 0.0356269 0)
(11.6535 0.0489895 0)
(11.7319 0.0462105 0)
(11.8911 0.028603 0)
(11.9318 0.0132452 0)
(12.0023 0.0523416 0)
(12.0477 0.0277104 0)
(12.1662 0.0247205 0)
(12.242 -0.00622265 0)
(12.3181 0.0247782 0)
(12.3626 0.0317994 0)
(12.4431 0.0489237 0)
(12.4464 0.0172197 0)
(12.399 -0.0294219 0)
(9.99003 0.0111014 0)
(10.2464 0.0539297 0)
(10.6154 0.0425559 0)
(10.923 0.0403478 0)
(11.2351 -0.00973986 0)
(11.448 0.0419433 0)
(11.6276 0.00550957 0)
(11.5873 0.0312325 0)
(11.6875 -0.0128368 0)
(11.8763 0.0127581 0)
(11.9167 0.00438846 0)
(11.9233 0.0443515 0)
(12.0865 -0.0109177 0)
(12.2047 0.00727907 0)
(12.1898 -0.0197036 0)
(12.2083 0.0175499 0)
(12.3636 -0.00799051 0)
(12.4649 0.0292541 0)
(12.4386 -0.0167329 0)
(12.3542 -0.0327179 0)
(9.9954 -0.0243324 0)
(10.2463 -0.0579339 0)
(10.5886 -0.0239655 0)
(10.968 -0.0218872 0)
(11.2194 -0.0371753 0)
(11.4376 -0.0212676 0)
(11.5929 -0.00379479 0)
(11.6428 0.00757216 0)
(11.7169 -0.0354038 0)
(11.8237 -0.0414745 0)
(11.8795 0.00843829 0)
(11.9794 0.00520953 0)
(12.1167 -0.0309582 0)
(12.1581 -0.0055665 0)
(12.1697 -0.0032968 0)
(12.2299 -0.031891 0)
(12.3738 -0.0418525 0)
(12.4543 -0.012525 0)
(12.4445 -0.00975021 0)
(12.3659 -0.0490878 0)
(10.018 -0.0752985 0)
(10.2164 -0.145496 0)
(10.5982 -0.117037 0)
(11.0214 -0.0846769 0)
(11.302 -0.0667083 0)
(11.4122 -0.0410889 0)
(11.5389 -0.0457031 0)
(11.6966 -0.0322964 0)
(11.8212 -0.0601043 0)
(11.8071 -0.047143 0)
(11.8618 -0.0212831 0)
(12.0615 -0.0284329 0)
(12.0691 -0.0345135 0)
(12.1397 -0.0179624 0)
(12.2475 -0.0281128 0)
(12.3598 -0.0567027 0)
(12.3441 -0.0680564 0)
(12.3794 -0.034061 0)
(12.4244 -0.0405878 0)
(12.4242 -0.0613918 0)
(10.0083 -0.118261 0)
(10.2587 -0.247501 0)
(10.6631 -0.203995 0)
(11.049 -0.157145 0)
(11.3207 -0.0842568 0)
(11.481 -0.067548 0)
(11.6034 -0.0794938 0)
(11.7326 -0.0874477 0)
(11.8256 -0.0710978 0)
(11.8349 -0.0631635 0)
(11.9767 -0.0503743 0)
(12.0545 -0.0517352 0)
(12.1115 -0.0403814 0)
(12.1991 -0.0521653 0)
(12.3204 -0.0578528 0)
(12.3738 -0.066701 0)
(12.3682 -0.0609522 0)
(12.4146 -0.0698287 0)
(12.4913 -0.0832522 0)
(12.4844 -0.0886291 0)
(10.0275 -0.181576 0)
(10.2905 -0.350986 0)
(10.7577 -0.284826 0)
(11.1029 -0.205204 0)
(11.3982 -0.123662 0)
(11.5391 -0.110476 0)
(11.6979 -0.110888 0)
(11.789 -0.114334 0)
(11.8558 -0.0895321 0)
(11.9314 -0.0988538 0)
(12.0616 -0.0702511 0)
(12.1038 -0.0724996 0)
(12.1942 -0.0568491 0)
(12.291 -0.0763529 0)
(12.3607 -0.0661548 0)
(12.3828 -0.0853786 0)
(12.4622 -0.0833158 0)
(12.5214 -0.108339 0)
(12.5698 -0.112231 0)
(12.4989 -0.124528 0)
(10.071 -0.256733 0)
(10.3066 -0.452205 0)
(10.8907 -0.373589 0)
(11.1825 -0.254073 0)
(11.5381 -0.158085 0)
(11.5968 -0.14658 0)
(11.8177 -0.148643 0)
(11.8307 -0.144761 0)
(11.9819 -0.1156 0)
(11.9951 -0.124749 0)
(12.1525 -0.0899053 0)
(12.1364 -0.0940438 0)
(12.2765 -0.0775957 0)
(12.2936 -0.100161 0)
(12.391 -0.0752217 0)
(12.3641 -0.105984 0)
(12.4521 -0.0984739 0)
(12.4444 -0.136683 0)
(12.4673 -0.129225 0)
(12.3618 -0.154946 0)
(10.0677 -0.352425 0)
(10.3749 -0.562083 0)
(11.0581 -0.459662 0)
(11.2993 -0.298211 0)
(11.6646 -0.206809 0)
(11.6636 -0.190083 0)
(11.8998 -0.185384 0)
(11.811 -0.167455 0)
(11.9945 -0.143253 0)
(11.8803 -0.142796 0)
(12.0444 -0.110023 0)
(11.9078 -0.106592 0)
(12.0494 -0.0940554 0)
(11.9094 -0.107303 0)
(12.0155 -0.0823943 0)
(11.8549 -0.11012 0)
(11.9372 -0.101461 0)
(11.7706 -0.144216 0)
(11.7725 -0.130382 0)
(11.5439 -0.179798 0)
(10.0147 -0.459835 0)
(10.5459 -0.702078 0)
(11.1869 -0.546384 0)
(11.3603 -0.355796 0)
(11.5677 -0.25849 0)
(11.451 -0.226391 0)
(11.5046 -0.204727 0)
(11.2813 -0.175401 0)
(11.319 -0.146265 0)
(11.0497 -0.133102 0)
(11.0996 -0.10328 0)
(10.8336 -0.0941623 0)
(10.8909 -0.0814095 0)
(10.6221 -0.088078 0)
(10.6928 -0.0669778 0)
(10.4138 -0.0899695 0)
(10.4738 -0.0792491 0)
(10.18 -0.12188 0)
(10.1787 -0.100116 0)
(9.83738 -0.171398 0)
(10.0658 -0.633251 0)
(10.6495 -0.862045 0)
(10.8793 -0.601245 0)
(10.6784 -0.374506 0)
(10.4662 -0.254616 0)
(10.0794 -0.196037 0)
(9.84431 -0.156209 0)
(9.48054 -0.122384 0)
(9.33418 -0.093034 0)
(9.00376 -0.0798171 0)
(8.94981 -0.0593458 0)
(8.66608 -0.0512531 0)
(8.66397 -0.0445442 0)
(8.39731 -0.0494117 0)
(8.43345 -0.038694 0)
(8.15851 -0.0514622 0)
(8.19779 -0.052046 0)
(7.89388 -0.0739443 0)
(7.88906 -0.0741795 0)
(7.53384 -0.0972908 0)
(10.0854 -0.838924 0)
(9.65307 -0.867305 0)
(8.87661 -0.506572 0)
(8.0755 -0.26241 0)
(7.49865 -0.137766 0)
(7.00257 -0.0814942 0)
(6.70037 -0.0555775 0)
(6.38942 -0.040883 0)
(6.23706 -0.0283662 0)
(6.00292 -0.0265249 0)
(5.94242 -0.0189033 0)
(5.75156 -0.01675 0)
(5.73902 -0.0155201 0)
(5.55621 -0.0204707 0)
(5.56683 -0.0149853 0)
(5.37449 -0.0234633 0)
(5.38238 -0.0244213 0)
(5.1525 -0.0350491 0)
(5.13488 -0.0401784 0)
(4.8312 -0.0229389 0)
(8.09159 -0.388037 0)
(5.44802 -0.242505 0)
(3.9127 -0.0428015 0)
(3.15539 0.0152743 0)
(2.80195 0.0182369 0)
(2.59696 0.0113682 0)
(2.48558 0.00520493 0)
(2.37549 0.00224448 0)
(2.32225 0.00219042 0)
(2.24368 -0.00014243 0)
(2.21881 0.000734295 0)
(2.15598 0.000372765 0)
(2.14979 0.00015239 0)
(2.08214 -0.00163004 0)
(2.07684 -2.29646e-05 0)
(2.00383 -0.00236566 0)
(1.98993 -0.00166165 0)
(1.89296 -0.00425043 0)
(1.8511 -0.00426097 0)
(1.69743 0.0107817 0)
(2.37199 -0.169444 0)
(2.43469 -0.0564636 0)
(2.57885 0.00406228 0)
(2.62424 0.0368936 0)
(2.7698 0.0364984 0)
(2.83898 0.0288565 0)
(2.99487 0.00369088 0)
(3.07916 -0.0157054 0)
(3.21415 -0.036627 0)
(3.27833 -0.0449984 0)
(3.37771 -0.0496699 0)
(3.42039 -0.0420436 0)
(3.50435 -0.0336328 0)
(3.55534 -0.0209931 0)
(3.64674 -0.0131683 0)
(3.72236 -0.0028596 0)
(3.83002 0.000521177 0)
(3.93766 0.00481097 0)
(4.07353 -0.000892105 0)
(4.21008 -0.0108871 0)
(4.36406 -0.0455424 0)
(4.51912 -0.103824 0)
(4.67583 -0.175819 0)
(4.83506 -0.276877 0)
(4.97572 -0.394799 0)
(5.11535 -0.529172 0)
(5.21283 -0.67911 0)
(5.30008 -0.82543 0)
(5.32269 -0.971949 0)
(5.31561 -1.11115 0)
(5.22267 -1.21779 0)
(5.09895 -1.25932 0)
(4.88226 -1.19246 0)
(4.54192 -1.05444 0)
(4.00494 -0.94451 0)
(3.48534 -0.850122 0)
(3.09738 -0.618115 0)
(3.11198 -0.15801 0)
(3.35988 0.520883 0)
(3.86535 1.29974 0)
(4.40216 2.02391 0)
(4.96096 2.54116 0)
(5.53443 2.86833 0)
(6.11706 3.00383 0)
(6.6827 2.89705 0)
(7.23367 2.60911 0)
(7.77557 2.20092 0)
(8.22544 1.66242 0)
(8.66303 1.03167 0)
(9.07883 0.393557 0)
(9.53986 -0.261752 0)
(9.84101 -0.983138 0)
(10.1006 -1.69773 0)
(10.2232 -2.29424 0)
(10.1998 -2.87416 0)
(10.2646 -3.28476 0)
(10.3666 -3.79187 0)
(10.3423 -4.3874 0)
(10.6732 -4.75359 0)
(10.645 -5.32042 0)
(10.3111 -5.6158 0)
(9.98143 -5.60932 0)
(9.25884 -5.3228 0)
(8.78807 -4.70702 0)
(7.99005 -4.07247 0)
(7.48021 -3.14821 0)
(7.05304 -2.09195 0)
(6.42805 -1.34326 0)
(6.2911 -0.367512 0)
(6.34622 0.777145 0)
(6.38657 1.73902 0)
(6.17368 2.41221 0)
(6.29225 2.97786 0)
(6.36874 3.38804 0)
(6.6427 3.63714 0)
(6.88954 3.58833 0)
(7.1843 3.45312 0)
(7.47753 3.23061 0)
(7.67211 2.83279 0)
(8.19816 2.31512 0)
(8.50503 1.91272 0)
(9.05984 1.26939 0)
(9.47092 0.392522 0)
(9.86839 -0.458898 0)
(10.104 -1.1793 0)
(10.4356 -2.00634 0)
(10.7197 -2.94091 0)
(10.6234 -3.41226 0)
(10.3405 -3.98818 0)
(10.5602 -4.71445 0)
(10.0577 -4.92107 0)
(9.71986 -5.19413 0)
(10.0539 -5.95061 0)
(10.1945 -6.58135 0)
(9.97053 -6.89065 0)
(9.9161 -7.50735 0)
(10.0968 -8.00865 0)
(9.81968 -8.17193 0)
(9.65267 -8.16772 0)
(9.57182 -8.21866 0)
(9.99219 -8.39597 0)
(10.3435 -8.5476 0)
(10.9507 -8.40628 0)
(11.171 -8.04056 0)
(11.3023 -7.25597 0)
(11.3896 -6.33789 0)
(11.5047 -5.38916 0)
(11.4344 -4.50687 0)
(11.4145 -3.7765 0)
(11.6918 -2.89986 0)
(11.7308 -1.77783 0)
(11.6297 -0.323823 0)
(11.1455 0.899031 0)
(10.4325 1.51366 0)
(9.88455 1.61536 0)
(9.78819 1.75136 0)
(9.68173 2.27447 0)
(9.59873 3.33473 0)
(9.47862 4.38972 0)
(9.13285 5.14434 0)
(8.84175 5.7659 0)
(8.40565 5.95757 0)
(8.22092 5.70175 0)
(8.02254 5.32672 0)
(7.72262 4.91818 0)
(7.331 4.45951 0)
(7.29851 3.75835 0)
(6.99212 3.29221 0)
(6.90251 3.28194 0)
(6.66241 3.41129 0)
(6.672 3.19296 0)
(6.50123 2.88044 0)
(6.39537 2.66939 0)
(6.24487 2.72024 0)
(6.31964 3.18393 0)
(6.30727 3.76784 0)
(6.50361 4.16786 0)
(6.3625 4.24272 0)
(6.4039 4.28285 0)
(6.36409 4.32883 0)
(6.47759 4.513 0)
(6.70136 4.52481 0)
(7.1346 4.92023 0)
(7.56326 5.00697 0)
(8.05441 4.59136 0)
(8.28829 4.28856 0)
(9.0898 3.4019 0)
(9.23761 2.50128 0)
(9.69972 1.67561 0)
(9.83569 0.456332 0)
(10.3337 -0.386389 0)
(10.1253 -1.54919 0)
(10.3875 -2.41158 0)
(9.85264 -3.06357 0)
(9.97475 -3.8339 0)
(9.30348 -4.6258 0)
(9.1827 -4.77137 0)
(8.4928 -4.89218 0)
(8.2171 -5.88115 0)
(7.58374 -6.34012 0)
(6.64655 -5.22371 0)
(6.1029 -3.39679 0)
(5.70253 -3.20331 0)
(6.06024 -4.77556 0)
(6.04328 -6.83054 0)
(6.50328 -8.60814 0)
(6.89429 -9.21373 0)
(7.02652 -8.87153 0)
(7.29493 -8.45271 0)
(7.78945 -7.54828 0)
(7.62038 -6.48897 0)
(8.13396 -5.02815 0)
(8.20342 -3.53078 0)
(7.9019 -2.41589 0)
(8.48155 -0.750897 0)
(8.12585 0.635064 0)
(8.42335 2.04389 0)
(8.24512 3.25542 0)
(8.50991 4.66912 0)
(8.03074 5.42754 0)
(7.95476 5.93787 0)
(7.20391 6.1661 0)
(7.32914 6.54616 0)
(6.81415 6.78794 0)
(7.04192 7.57077 0)
(7.27104 8.23906 0)
(7.22646 8.2507 0)
(6.83015 7.89633 0)
(6.76172 7.21143 0)
(6.03445 6.58147 0)
(5.81812 5.81498 0)
(5.55267 5.65732 0)
(4.78108 5.06894 0)
(4.91663 4.98189 0)
(4.4489 5.5427 0)
(4.5476 5.398 0)
(4.53863 6.45668 0)
(4.74495 7.60325 0)
(4.80688 8.08782 0)
(3.02044 11.0504 0)
(5.40887 -0.11655 0)
(5.43649 -0.0906677 0)
(5.45656 -0.0589674 0)
(5.44201 -0.0345754 0)
(5.47515 -0.0330905 0)
(5.51452 -0.0446895 0)
(5.58988 -0.0674612 0)
(5.65734 -0.084781 0)
(5.73156 -0.0997156 0)
(5.7866 -0.10177 0)
(5.84391 -0.0988926 0)
(5.892 -0.0917357 0)
(5.94062 -0.0842566 0)
(5.99508 -0.0783954 0)
(6.05187 -0.0748035 0)
(6.12623 -0.0771593 0)
(6.20707 -0.0791809 0)
(6.30065 -0.0883533 0)
(6.41372 -0.106529 0)
(6.526 -0.126689 0)
(6.6612 -0.171699 0)
(6.79702 -0.228458 0)
(6.92862 -0.294916 0)
(7.08023 -0.395347 0)
(7.1916 -0.497651 0)
(7.32712 -0.611838 0)
(7.39469 -0.749355 0)
(7.47207 -0.865785 0)
(7.46284 -0.983186 0)
(7.44152 -1.08679 0)
(7.33509 -1.13096 0)
(7.16958 -1.13929 0)
(6.92809 -1.07627 0)
(6.69683 -0.941679 0)
(6.48724 -0.722134 0)
(6.28885 -0.435531 0)
(5.89841 -0.169463 0)
(5.47175 0.0574556 0)
(5.15575 0.365211 0)
(5.11635 0.809199 0)
(5.47647 1.37059 0)
(6.02724 1.89157 0)
(6.68746 2.26829 0)
(7.39272 2.46869 0)
(8.04986 2.44623 0)
(8.64913 2.19492 0)
(9.19801 1.82856 0)
(9.67682 1.39964 0)
(10.1206 0.778893 0)
(10.4252 0.0981048 0)
(10.7693 -0.4813 0)
(11.0407 -1.11952 0)
(11.0931 -1.87068 0)
(11.1314 -2.36597 0)
(11.3039 -2.83082 0)
(11.2471 -3.4998 0)
(11.5338 -3.87315 0)
(11.672 -4.35846 0)
(11.6075 -4.9436 0)
(11.6004 -5.22732 0)
(11.1827 -5.39047 0)
(10.6178 -5.09205 0)
(9.74248 -4.69359 0)
(9.1058 -4.16482 0)
(8.41496 -3.41806 0)
(7.75101 -2.72128 0)
(7.2936 -1.83148 0)
(7.11919 -0.984738 0)
(6.69612 -0.278106 0)
(6.70403 0.551654 0)
(6.97693 1.55759 0)
(7.23331 2.37013 0)
(7.48807 2.92798 0)
(7.5728 3.2651 0)
(7.79947 3.37275 0)
(8.07963 3.37096 0)
(8.41484 3.22178 0)
(8.6936 3.06646 0)
(9.09035 2.60407 0)
(9.38945 2.17378 0)
(9.7595 1.66222 0)
(10.2784 0.998883 0)
(10.5667 0.22139 0)
(10.8421 -0.571559 0)
(11.0248 -1.26847 0)
(11.077 -2.03269 0)
(11.1676 -2.77741 0)
(10.7013 -3.18004 0)
(10.7314 -3.97845 0)
(10.5605 -4.46359 0)
(9.87064 -4.59481 0)
(10.1724 -5.35905 0)
(10.552 -6.13945 0)
(9.99022 -6.32064 0)
(9.57908 -6.77785 0)
(9.74014 -7.59531 0)
(9.54565 -7.82469 0)
(8.92912 -7.73561 0)
(8.68839 -7.95331 0)
(8.90022 -8.44733 0)
(9.4332 -8.8226 0)
(9.71626 -8.94764 0)
(9.97816 -8.72753 0)
(9.90226 -8.1802 0)
(9.90219 -7.34401 0)
(9.97918 -6.39048 0)
(9.97369 -5.43649 0)
(9.82304 -4.57563 0)
(9.87149 -3.87796 0)
(9.95828 -3.06929 0)
(10.0691 -1.81847 0)
(10.1252 -0.202909 0)
(9.93153 1.2367 0)
(9.45465 1.93728 0)
(9.10441 1.93745 0)
(8.93258 1.95655 0)
(8.72852 2.45539 0)
(8.60875 3.42844 0)
(8.38946 4.62292 0)
(7.99092 5.39262 0)
(7.70916 6.0266 0)
(7.44749 6.15763 0)
(7.32934 5.73427 0)
(7.1577 5.5064 0)
(7.00801 5.16311 0)
(6.5854 4.58478 0)
(6.73457 3.82654 0)
(6.44261 3.4633 0)
(6.41655 3.42907 0)
(6.21578 3.4009 0)
(6.30639 3.24521 0)
(6.19736 2.91139 0)
(6.17113 2.73733 0)
(6.13529 2.76537 0)
(6.07171 3.11157 0)
(6.24494 3.61755 0)
(6.45241 4.12105 0)
(6.45152 4.2031 0)
(6.54605 4.17461 0)
(6.5661 4.43271 0)
(6.69218 4.38242 0)
(6.68846 4.26941 0)
(7.31071 4.59518 0)
(7.57105 4.54777 0)
(8.34563 4.23107 0)
(8.43681 3.79559 0)
(9.37262 3.07838 0)
(9.51579 2.2447 0)
(9.84167 1.36669 0)
(10.3286 0.210237 0)
(10.4095 -0.382056 0)
(10.4672 -1.62075 0)
(10.3933 -2.44391 0)
(10.2009 -2.86331 0)
(9.88997 -3.50345 0)
(9.46427 -4.31274 0)
(9.25028 -4.40566 0)
(8.5575 -4.5831 0)
(8.39885 -5.34774 0)
(7.23601 -5.70401 0)
(6.84764 -4.6911 0)
(6.03818 -3.04801 0)
(6.23116 -3.32788 0)
(6.15547 -4.7329 0)
(6.28462 -7.26334 0)
(6.84966 -8.75889 0)
(6.46887 -9.29354 0)
(6.81461 -9.25723 0)
(7.29001 -8.54616 0)
(7.16168 -7.64519 0)
(7.26952 -6.65332 0)
(7.8073 -5.01702 0)
(7.43105 -3.52054 0)
(7.58177 -2.38373 0)
(7.67817 -0.770693 0)
(7.70996 0.608593 0)
(7.74341 1.96029 0)
(7.73129 3.31933 0)
(7.85318 4.8466 0)
(7.63251 5.61454 0)
(7.39863 6.26273 0)
(7.16806 6.46902 0)
(6.76412 6.79645 0)
(6.82124 7.08896 0)
(6.48646 7.49652 0)
(7.02745 8.05574 0)
(7.17619 8.45757 0)
(6.93343 7.96284 0)
(6.65724 7.3473 0)
(6.71135 6.91832 0)
(6.13573 6.12203 0)
(5.82883 5.74635 0)
(5.70343 5.71689 0)
(4.91837 4.94577 0)
(4.99506 5.42273 0)
(5.17765 5.93006 0)
(5.01548 6.03985 0)
(5.23322 7.32411 0)
(7.44664 7.94371 0)
(5.31441 11.7545 0)
(8.06891 -0.0822263 0)
(8.07722 -0.0236103 0)
(8.06601 -0.0132162 0)
(8.05698 -0.0211527 0)
(8.06369 -0.0494567 0)
(8.09488 -0.0819604 0)
(8.15016 -0.101959 0)
(8.20079 -0.121619 0)
(8.25045 -0.126125 0)
(8.28673 -0.129963 0)
(8.31862 -0.130037 0)
(8.35663 -0.126634 0)
(8.38434 -0.123832 0)
(8.42832 -0.122639 0)
(8.47263 -0.126861 0)
(8.53109 -0.13161 0)
(8.59928 -0.145256 0)
(8.67314 -0.15553 0)
(8.76587 -0.185505 0)
(8.85475 -0.209842 0)
(8.95331 -0.260628 0)
(9.06175 -0.325539 0)
(9.14351 -0.382316 0)
(9.26061 -0.48975 0)
(9.32181 -0.576298 0)
(9.4126 -0.675009 0)
(9.44434 -0.795265 0)
(9.46758 -0.88607 0)
(9.45125 -0.961553 0)
(9.38381 -1.02569 0)
(9.29309 -1.04017 0)
(9.14185 -0.986595 0)
(8.96062 -0.888959 0)
(8.77912 -0.724226 0)
(8.53558 -0.506889 0)
(8.29683 -0.29274 0)
(8.07435 0.00433841 0)
(7.83674 0.331542 0)
(7.64373 0.633046 0)
(7.43397 0.933112 0)
(7.37631 1.1847 0)
(7.51728 1.43321 0)
(7.8684 1.648 0)
(8.41849 1.76757 0)
(8.96856 1.74353 0)
(9.52159 1.56362 0)
(10.0812 1.26445 0)
(10.5005 0.827411 0)
(10.8968 0.334421 0)
(11.3263 -0.147173 0)
(11.5328 -0.805027 0)
(11.8082 -1.42661 0)
(12.0668 -1.85099 0)
(12.1326 -2.50546 0)
(12.4017 -3.0001 0)
(12.6889 -3.41764 0)
(12.6327 -4.00894 0)
(12.7826 -4.42216 0)
(12.7192 -4.78644 0)
(12.1614 -4.89325 0)
(11.6374 -4.78561 0)
(10.8534 -4.63592 0)
(10.2932 -4.1204 0)
(9.40307 -3.48995 0)
(8.73139 -2.84046 0)
(8.13873 -2.08313 0)
(7.52185 -1.43939 0)
(7.31444 -0.769013 0)
(7.09846 -0.0797079 0)
(7.03147 0.597088 0)
(7.16824 1.33789 0)
(7.5876 2.04677 0)
(8.10294 2.64132 0)
(8.4646 3.11452 0)
(8.84224 3.1665 0)
(9.11317 3.0651 0)
(9.37191 2.94836 0)
(9.65716 2.70689 0)
(10.0277 2.21179 0)
(10.1673 1.84632 0)
(10.6014 1.26634 0)
(10.8248 0.694904 0)
(11.0532 -0.0219836 0)
(11.2953 -0.820951 0)
(11.176 -1.38607 0)
(11.2117 -2.21464 0)
(11.0165 -2.71884 0)
(10.6362 -3.21407 0)
(10.9377 -4.0234 0)
(10.4086 -4.08553 0)
(10.2071 -4.49433 0)
(10.8557 -5.5224 0)
(10.308 -5.80127 0)
(9.40496 -5.83122 0)
(9.35658 -6.76205 0)
(9.35157 -7.34786 0)
(8.53875 -7.19623 0)
(7.89936 -7.401 0)
(7.95864 -8.18406 0)
(8.34609 -8.90161 0)
(8.59176 -9.15423 0)
(8.55354 -8.98014 0)
(8.54063 -8.51002 0)
(8.35848 -7.83831 0)
(8.44037 -7.07436 0)
(8.46173 -6.14898 0)
(8.42625 -5.1581 0)
(8.37208 -4.31976 0)
(8.38305 -3.64877 0)
(8.21482 -2.93908 0)
(8.27292 -1.73436 0)
(8.25914 -0.149395 0)
(8.38518 1.32116 0)
(8.20884 2.04419 0)
(8.26597 2.0848 0)
(8.18893 2.06799 0)
(7.94253 2.63136 0)
(7.41656 3.69866 0)
(7.26377 4.86894 0)
(6.80985 5.64795 0)
(6.5111 6.19621 0)
(6.42063 6.34279 0)
(6.37106 5.92165 0)
(6.27944 5.61349 0)
(6.13183 5.29904 0)
(5.97193 4.66766 0)
(5.9365 3.90858 0)
(5.99035 3.59813 0)
(5.94724 3.47497 0)
(5.80904 3.43456 0)
(5.86828 3.27586 0)
(5.81255 2.9626 0)
(5.84398 2.72468 0)
(5.87199 2.86946 0)
(5.85358 3.03357 0)
(6.0902 3.44334 0)
(6.46787 4.04065 0)
(6.29751 4.16978 0)
(6.85935 4.09575 0)
(6.64403 4.38347 0)
(7.01837 4.23411 0)
(6.96341 4.00686 0)
(7.24361 4.28614 0)
(7.94516 3.98535 0)
(8.29235 3.9151 0)
(8.82043 3.44305 0)
(9.32757 2.67493 0)
(9.99097 1.96611 0)
(9.9818 1.12254 0)
(10.5957 0.0144504 0)
(10.3587 -0.470381 0)
(10.7217 -1.59623 0)
(10.2665 -2.23021 0)
(10.3152 -2.65506 0)
(9.67577 -3.19731 0)
(9.59462 -4.10669 0)
(9.05206 -4.02747 0)
(8.73884 -4.17929 0)
(8.07544 -4.74724 0)
(7.35591 -5.34144 0)
(6.78615 -4.07003 0)
(6.41605 -3.0886 0)
(6.59419 -3.02411 0)
(6.32076 -4.87804 0)
(6.67251 -7.36818 0)
(6.45829 -8.49649 0)
(6.08243 -9.49952 0)
(6.78865 -9.33749 0)
(6.64923 -8.47404 0)
(6.44787 -7.86325 0)
(7.07973 -6.68322 0)
(7.08855 -4.98183 0)
(6.70909 -3.51107 0)
(7.14366 -2.20926 0)
(6.77399 -0.982997 0)
(7.21094 0.743563 0)
(6.85548 1.81377 0)
(7.31736 3.19212 0)
(7.12954 4.75757 0)
(7.28211 5.7941 0)
(6.5324 6.30423 0)
(6.87541 6.65676 0)
(6.20085 6.75377 0)
(6.66084 7.13285 0)
(6.30855 7.33428 0)
(6.67935 7.82666 0)
(6.91841 8.33499 0)
(7.19904 8.14143 0)
(6.84329 7.58276 0)
(6.86767 6.95669 0)
(6.90035 6.66762 0)
(6.02676 5.93288 0)
(6.14866 5.76031 0)
(5.92988 5.73263 0)
(5.17995 5.15586 0)
(5.70975 5.72484 0)
(6.3215 6.15265 0)
(5.01192 7.37895 0)
(8.96341 5.86806 0)
(7.36284 11.3553 0)
(10.3593 -0.0551356 0)
(10.3348 0.0160842 0)
(10.253 0.00933469 0)
(10.1982 -0.0366079 0)
(10.2132 -0.0787288 0)
(10.2455 -0.120076 0)
(10.3125 -0.130489 0)
(10.3656 -0.131555 0)
(10.3917 -0.150239 0)
(10.4248 -0.14494 0)
(10.4286 -0.157408 0)
(10.4581 -0.154748 0)
(10.4767 -0.14518 0)
(10.5097 -0.156873 0)
(10.5435 -0.151261 0)
(10.5788 -0.18137 0)
(10.6241 -0.189872 0)
(10.664 -0.215909 0)
(10.7359 -0.258776 0)
(10.7933 -0.263948 0)
(10.8761 -0.333712 0)
(10.9506 -0.380537 0)
(10.9999 -0.429916 0)
(11.0777 -0.536869 0)
(11.0792 -0.611354 0)
(11.1166 -0.694044 0)
(11.094 -0.806655 0)
(11.0552 -0.878181 0)
(11.0084 -0.917595 0)
(10.9019 -0.972221 0)
(10.8128 -0.941139 0)
(10.6762 -0.866783 0)
(10.5057 -0.756874 0)
(10.342 -0.602409 0)
(10.1617 -0.382865 0)
(9.99584 -0.126086 0)
(9.84041 0.133297 0)
(9.71448 0.458357 0)
(9.62979 0.725711 0)
(9.56226 0.970245 0)
(9.53881 1.26413 0)
(9.65725 1.41266 0)
(9.7836 1.43817 0)
(10.0453 1.47886 0)
(10.4358 1.43352 0)
(10.8584 1.16354 0)
(11.2026 0.830805 0)
(11.669 0.579865 0)
(12.0327 0.0731066 0)
(12.318 -0.513766 0)
(12.6952 -0.880571 0)
(13.0466 -1.49993 0)
(13.1717 -2.13274 0)
(13.5745 -2.49876 0)
(13.5943 -3.09982 0)
(13.6895 -3.65732 0)
(13.7432 -3.98223 0)
(13.4008 -4.34227 0)
(13.0159 -4.46017 0)
(12.4323 -4.4905 0)
(11.7826 -4.2786 0)
(10.9254 -3.81355 0)
(10.1825 -3.44808 0)
(9.57081 -2.98506 0)
(9.03459 -2.38684 0)
(8.51252 -1.70924 0)
(8.19416 -1.10855 0)
(7.87861 -0.619192 0)
(7.70382 -0.0433407 0)
(7.59503 0.561648 0)
(7.57874 1.10837 0)
(7.8407 1.63889 0)
(8.2171 2.24087 0)
(8.74856 2.73449 0)
(9.26405 2.89945 0)
(9.71849 2.84712 0)
(9.96951 2.78952 0)
(10.376 2.43769 0)
(10.6535 2.05203 0)
(10.7787 1.56878 0)
(11.1193 0.977514 0)
(11.1627 0.501958 0)
(11.4221 -0.226983 0)
(11.396 -0.811569 0)
(11.2662 -1.42669 0)
(11.5026 -2.20338 0)
(11.0293 -2.42755 0)
(11.1681 -3.1301 0)
(11.2865 -3.64792 0)
(10.5354 -3.69311 0)
(10.8551 -4.6652 0)
(10.754 -5.37979 0)
(9.4808 -5.05748 0)
(8.97011 -5.6482 0)
(9.127 -6.6939 0)
(8.48051 -6.70075 0)
(7.46948 -6.61482 0)
(7.12616 -7.36202 0)
(7.21254 -8.47155 0)
(7.38104 -9.05885 0)
(7.4177 -9.02201 0)
(7.31288 -8.77311 0)
(7.26225 -8.29799 0)
(7.11674 -7.77804 0)
(7.22631 -7.09156 0)
(7.16603 -6.15681 0)
(7.216 -5.12771 0)
(7.23964 -4.18973 0)
(7.18489 -3.45381 0)
(6.83003 -2.69027 0)
(6.66198 -1.52377 0)
(6.62362 -0.157789 0)
(6.83415 1.22186 0)
(6.97166 1.88955 0)
(7.37636 2.01456 0)
(7.19195 2.20119 0)
(6.8056 3.01402 0)
(6.17475 3.99072 0)
(6.05335 5.10609 0)
(5.57849 5.94226 0)
(5.31248 6.27854 0)
(5.25107 6.31501 0)
(5.47816 5.88656 0)
(5.19552 5.68358 0)
(5.32921 5.40966 0)
(5.27671 4.7546 0)
(5.25203 3.89964 0)
(5.47202 3.55424 0)
(5.26816 3.57802 0)
(5.3959 3.46635 0)
(5.54277 3.18142 0)
(5.35001 2.95974 0)
(5.51053 2.66139 0)
(5.47936 2.84193 0)
(5.69598 2.85877 0)
(5.90222 3.15112 0)
(6.35008 3.92379 0)
(6.38442 3.93363 0)
(6.89748 3.90213 0)
(6.81648 4.23659 0)
(7.29308 4.10624 0)
(7.3489 3.86448 0)
(7.25037 3.95943 0)
(8.24798 3.52547 0)
(8.34217 3.46827 0)
(8.89881 2.85587 0)
(9.55254 2.2124 0)
(9.79376 1.75864 0)
(10.2051 0.714977 0)
(10.5539 -0.00860519 0)
(10.4474 -0.498747 0)
(10.458 -1.52433 0)
(10.3305 -2.2257 0)
(10.1908 -2.35813 0)
(9.70513 -3.02326 0)
(9.51425 -3.70755 0)
(9.06768 -3.74336 0)
(8.68141 -3.71785 0)
(8.12045 -4.33146 0)
(7.4074 -4.77162 0)
(6.81842 -3.81007 0)
(6.81649 -3.01084 0)
(6.55427 -2.86218 0)
(6.7033 -5.09903 0)
(6.46321 -6.98868 0)
(6.01697 -8.45468 0)
(5.99104 -9.64671 0)
(6.29301 -9.12341 0)
(5.85104 -8.58383 0)
(6.08331 -8.06158 0)
(6.57549 -6.69323 0)
(6.15248 -4.97088 0)
(6.37958 -3.5408 0)
(6.40364 -2.16127 0)
(6.19616 -0.960275 0)
(6.57322 0.670789 0)
(6.04419 1.88714 0)
(6.67797 3.30429 0)
(6.40285 4.57868 0)
(6.71962 6.08203 0)
(6.23367 6.53379 0)
(6.24777 6.96735 0)
(5.87877 6.90201 0)
(5.84122 7.01682 0)
(6.21339 7.28025 0)
(6.38464 7.6651 0)
(6.64027 7.85695 0)
(7.08577 8.11473 0)
(7.2491 7.68797 0)
(6.81591 6.89714 0)
(7.12507 6.84607 0)
(7.04892 6.45956 0)
(6.11901 5.77573 0)
(6.71271 5.78666 0)
(6.44087 5.62806 0)
(5.34704 5.84851 0)
(7.98032 4.57797 0)
(5.59778 8.24395 0)
(9.11515 3.49716 0)
(8.25868 9.8939 0)
(11.9423 -0.0338502 0)
(11.9065 -0.0213614 0)
(11.8168 -0.0518643 0)
(11.7427 -0.095399 0)
(11.7527 -0.129068 0)
(11.7755 -0.154684 0)
(11.8443 -0.165272 0)
(11.8971 -0.1564 0)
(11.9184 -0.154991 0)
(11.9437 -0.15631 0)
(11.9299 -0.162816 0)
(11.9345 -0.185085 0)
(11.9404 -0.187357 0)
(11.9611 -0.198468 0)
(11.9911 -0.203325 0)
(12.0383 -0.209658 0)
(12.061 -0.223151 0)
(12.0909 -0.242658 0)
(12.1252 -0.293929 0)
(12.1256 -0.309685 0)
(12.1853 -0.383431 0)
(12.2034 -0.435693 0)
(12.2266 -0.466128 0)
(12.2727 -0.565434 0)
(12.2416 -0.614479 0)
(12.2229 -0.672518 0)
(12.1732 -0.766709 0)
(12.0706 -0.823459 0)
(11.967 -0.841232 0)
(11.8522 -0.884362 0)
(11.7183 -0.864138 0)
(11.5925 -0.756555 0)
(11.4609 -0.649898 0)
(11.3439 -0.49725 0)
(11.217 -0.252462 0)
(11.1071 -0.0209205 0)
(11.008 0.197001 0)
(10.9796 0.458367 0)
(11.0041 0.717411 0)
(11.0503 0.989424 0)
(11.1567 1.19123 0)
(11.3728 1.26997 0)
(11.5432 1.3882 0)
(11.7729 1.40451 0)
(12.1223 1.12794 0)
(12.4448 0.981142 0)
(12.7463 0.767766 0)
(13.1098 0.185983 0)
(13.4321 -0.206342 0)
(13.7004 -0.533781 0)
(13.9526 -1.23518 0)
(14.2761 -1.71457 0)
(14.3795 -2.10342 0)
(14.3785 -2.78647 0)
(14.5343 -3.1977 0)
(14.2513 -3.50206 0)
(13.9565 -3.85445 0)
(13.6039 -4.01095 0)
(12.9936 -4.02506 0)
(12.2999 -3.80865 0)
(11.6202 -3.67666 0)
(11.0806 -3.42259 0)
(10.4818 -2.93657 0)
(9.85233 -2.44948 0)
(9.33277 -1.92446 0)
(8.91534 -1.49895 0)
(8.67381 -0.97669 0)
(8.42408 -0.455482 0)
(8.22479 0.099129 0)
(8.16708 0.632426 0)
(8.16412 1.0462 0)
(8.25473 1.46369 0)
(8.48486 1.87122 0)
(8.89327 2.23206 0)
(9.36357 2.43711 0)
(9.87365 2.4726 0)
(10.2429 2.45066 0)
(10.7316 2.19937 0)
(10.9742 1.90216 0)
(11.2771 1.40064 0)
(11.5317 0.983611 0)
(11.5612 0.469935 0)
(11.8633 -0.250186 0)
(11.6088 -0.61754 0)
(11.8206 -1.37353 0)
(11.8072 -1.85693 0)
(11.3377 -2.1508 0)
(11.7383 -3.05618 0)
(11.0746 -3.20573 0)
(10.6684 -3.63588 0)
(10.8649 -4.66085 0)
(9.67714 -4.49994 0)
(8.75364 -4.42239 0)
(8.9095 -5.61387 0)
(8.582 -6.16206 0)
(7.50208 -5.86919 0)
(6.62905 -6.19307 0)
(6.23718 -7.32179 0)
(6.1622 -8.43677 0)
(6.26827 -8.9494 0)
(6.26357 -9.00228 0)
(6.2371 -8.82969 0)
(6.14873 -8.37154 0)
(5.93215 -7.86789 0)
(5.83256 -7.20545 0)
(5.67666 -6.3432 0)
(5.83825 -5.36728 0)
(5.90231 -4.31567 0)
(5.9723 -3.3858 0)
(5.68682 -2.45169 0)
(5.5486 -1.41057 0)
(5.5195 -0.283093 0)
(5.69626 0.864981 0)
(5.96025 1.53494 0)
(6.19774 1.99807 0)
(5.92432 2.5541 0)
(5.48624 3.50485 0)
(4.91042 4.39513 0)
(4.61969 5.37772 0)
(4.26362 6.18124 0)
(4.00743 6.3743 0)
(4.23126 6.21202 0)
(4.67467 5.98841 0)
(4.30133 5.65523 0)
(4.57273 5.31984 0)
(4.52582 4.64877 0)
(4.7555 3.89574 0)
(4.61813 3.58613 0)
(4.72473 3.51235 0)
(5.02591 3.25456 0)
(5.05737 3.26094 0)
(5.07725 2.98289 0)
(5.36089 2.60118 0)
(5.14175 2.69779 0)
(5.4461 2.65571 0)
(5.79543 2.89353 0)
(6.14723 3.66978 0)
(6.53689 3.60047 0)
(6.68954 3.81446 0)
(7.02975 4.1212 0)
(7.57315 3.86232 0)
(7.50009 3.81661 0)
(7.73489 3.53251 0)
(8.33511 3.19173 0)
(8.37471 3.12114 0)
(9.07168 2.47197 0)
(9.56854 1.8559 0)
(9.72398 1.46146 0)
(10.1988 0.422443 0)
(10.4562 -0.0935553 0)
(10.2984 -0.499633 0)
(10.4262 -1.5068 0)
(10.2195 -2.07099 0)
(10.0489 -2.13045 0)
(9.57723 -2.82594 0)
(9.47338 -3.49544 0)
(9.0727 -3.47362 0)
(8.60171 -3.25843 0)
(8.37414 -4.0027 0)
(7.54211 -4.08421 0)
(7.26316 -3.6927 0)
(6.95238 -2.63148 0)
(6.76206 -2.99499 0)
(6.75208 -4.8592 0)
(6.17452 -6.64221 0)
(5.88058 -8.53146 0)
(5.66576 -9.37656 0)
(5.60237 -8.99438 0)
(5.39934 -8.87651 0)
(5.69492 -8.13881 0)
(5.51201 -6.71187 0)
(5.46993 -5.20497 0)
(5.93479 -3.53465 0)
(5.43611 -2.44631 0)
(5.92555 -0.790432 0)
(5.58335 0.67943 0)
(5.56586 1.62594 0)
(5.70194 3.26122 0)
(5.95659 4.61244 0)
(5.76256 5.79111 0)