/*--------------------------------*- C++ -*----------------------------------*\
| =========                 |                                                 |
| \\      /  F ield         | OpenFOAM: The Open Source CFD Toolbox           |
|  \\    /   O peration     | Version:  2.4.0                                 |
|   \\  /    A nd           | Web:      www.OpenFOAM.org                      |
|    \\/     M anipulation  |                                                 |
\*---------------------------------------------------------------------------*/
FoamFile
{
    version     2.0;
    format      ascii;
    class       volVectorField;
    location    "1.55";
    object      U_0;
}
// * * * * * * * * * * * * * * * * * * * * * * * * * * * * * * * * * * * * * //

dimensions      [0 1 -1 0 0 0 0];

internalField   nonuniform List<vector> 
8800
(
(8.09239 0.387935 0)
(5.45235 0.242512 0)
(3.90799 0.0432583 0)
(3.16117 -0.0156192 0)
(2.79564 -0.0185396 0)
(2.60648 -0.0106524 0)
(2.47289 -0.00561523 0)
(2.39421 -0.00325169 0)
(2.30408 -9.27058e-05 0)
(2.26491 -0.00147147 0)
(2.20202 -0.000874217 0)
(2.18741 2.3199e-05 0)
(2.12599 0.000539675 0)
(2.12564 -0.00103479 0)
(2.06443 0.0011379 0)
(2.06954 -0.000769358 0)
(2.00811 0.000491967 0)
(2.01608 -0.0032443 0)
(2.03233 0.0113297 0)
(1.76758 -0.0806339 0)
(10.0805 0.838029 0)
(9.6703 0.867865 0)
(8.8553 0.507669 0)
(8.10391 0.261235 0)
(7.47136 0.137736 0)
(7.03257 0.0834049 0)
(6.66555 0.0537658 0)
(6.43973 0.0386309 0)
(6.17792 0.0336059 0)
(6.07433 0.0216528 0)
(5.87803 0.0180955 0)
(5.83542 0.0175735 0)
(5.66505 0.0168213 0)
(5.66751 0.0106361 0)
(5.49876 0.0183638 0)
(5.51625 0.0082894 0)
(5.36729 0.0203965 0)
(5.36574 -0.013834 0)
(5.34953 0.0313832 0)
(5.17945 -0.057683 0)
(10.0448 0.629857 0)
(10.6897 0.864053 0)
(10.8312 0.602655 0)
(10.7335 0.372537 0)
(10.4157 0.255 0)
(10.1354 0.199224 0)
(9.77973 0.151455 0)
(9.56876 0.121325 0)
(9.23091 0.100293 0)
(9.12217 0.0710839 0)
(8.84152 0.0593263 0)
(8.79049 0.0520176 0)
(8.5489 0.0456581 0)
(8.55469 0.0328443 0)
(8.31857 0.0457097 0)
(8.34325 0.0242931 0)
(8.13929 0.0470427 0)
(8.14483 -0.00901449 0)
(8.0536 0.0331327 0)
(8.0168 -0.108363 0)
(9.95124 0.454229 0)
(10.6361 0.708361 0)
(11.0967 0.547149 0)
(11.4477 0.350208 0)
(11.4853 0.26045 0)
(11.5471 0.233378 0)
(11.4003 0.195266 0)
(11.4081 0.17523 0)
(11.1844 0.157067 0)
(11.1937 0.117418 0)
(10.9692 0.106927 0)
(10.9725 0.0927821 0)
(10.7621 0.0848651 0)
(10.7845 0.0617775 0)
(10.5688 0.0831572 0)
(10.5902 0.0470909 0)
(10.406 0.0822742 0)
(10.3919 0.00578564 0)
(10.2793 0.0438647 0)
(10.3148 -0.120977 0)
(9.94164 0.340017 0)
(10.515 0.573694 0)
(10.9499 0.463699 0)
(11.3918 0.292028 0)
(11.5567 0.203951 0)
(11.7818 0.201798 0)
(11.785 0.172609 0)
(11.9293 0.168228 0)
(11.8876 0.15886 0)
(11.9997 0.122058 0)
(11.9387 0.113629 0)
(12.0116 0.108004 0)
(11.9591 0.0929688 0)
(12.0146 0.0811463 0)
(11.9381 0.0940673 0)
(11.9631 0.0728126 0)
(11.9173 0.0901412 0)
(11.8737 0.0499521 0)
(11.8268 0.0337541 0)
(11.885 -0.0464937 0)
(9.9649 0.246382 0)
(10.3962 0.456548 0)
(10.842 0.384981 0)
(11.2408 0.245169 0)
(11.458 0.15718 0)
(11.6719 0.156122 0)
(11.7535 0.138599 0)
(11.8748 0.138492 0)
(11.9416 0.136822 0)
(12.0592 0.0987034 0)
(12.1075 0.101279 0)
(12.1819 0.0896711 0)
(12.2468 0.0800259 0)
(12.3229 0.0695283 0)
(12.366 0.0863475 0)
(12.4054 0.0651039 0)
(12.4809 0.0852726 0)
(12.4655 0.0703795 0)
(12.4748 0.0494847 0)
(12.5715 -0.032885 0)
(9.97774 0.174305 0)
(10.3208 0.348741 0)
(10.7488 0.29616 0)
(11.1365 0.208955 0)
(11.3745 0.111844 0)
(11.5619 0.123613 0)
(11.6804 0.099056 0)
(11.7722 0.117126 0)
(11.8683 0.0944798 0)
(11.9487 0.086674 0)
(12.0507 0.0662014 0)
(12.1255 0.0909438 0)
(12.202 0.0334 0)
(12.2654 0.0767079 0)
(12.3567 0.0430901 0)
(12.4193 0.0762101 0)
(12.4992 0.0369239 0)
(12.5121 0.110761 0)
(12.5562 0.0320733 0)
(12.6241 0.126532 0)
(9.99217 0.108019 0)
(10.2747 0.251747 0)
(10.6598 0.200222 0)
(11.0503 0.169835 0)
(11.3229 0.0713643 0)
(11.4994 0.0978381 0)
(11.6041 0.0504472 0)
(11.7138 0.103612 0)
(11.7928 0.0543083 0)
(11.8724 0.076719 0)
(11.9828 0.0254368 0)
(12.0885 0.0836446 0)
(12.1163 0.0135151 0)
(12.1555 0.0673681 0)
(12.2951 0.00612672 0)
(12.3886 0.0700428 0)
(12.4092 0.0169352 0)
(12.4719 0.105638 0)
(12.5104 0.0193294 0)
(12.4736 0.12027 0)
(9.99872 0.0654676 0)
(10.2578 0.144546 0)
(10.6005 0.128121 0)
(10.9734 0.0938646 0)
(11.2777 0.0436082 0)
(11.4999 0.0595271 0)
(11.5412 0.0346819 0)
(11.6543 0.0498468 0)
(11.7359 0.0456572 0)
(11.8927 0.0274783 0)
(11.9283 0.0151066 0)
(11.9994 0.0536123 0)
(12.0482 0.0263767 0)
(12.1689 0.0226976 0)
(12.2428 -0.00613368 0)
(12.3173 0.0268731 0)
(12.363 0.0327919 0)
(12.4425 0.0478338 0)
(12.444 0.015856 0)
(12.3983 -0.0286155 0)
(9.99041 0.0107639 0)
(10.2477 0.0546537 0)
(10.6123 0.042652 0)
(10.9216 0.0389623 0)
(11.238 -0.00870997 0)
(11.4523 0.0430109 0)
(11.6233 0.00464567 0)
(11.581 0.0302281 0)
(11.6947 -0.0135632 0)
(11.8794 0.0141526 0)
(11.9095 0.00629441 0)
(11.9241 0.043605 0)
(12.0937 -0.0128155 0)
(12.2015 0.00685249 0)
(12.1818 -0.0190402 0)
(12.2113 0.0183109 0)
(12.3721 -0.00708348 0)
(12.4637 0.0290682 0)
(12.4324 -0.0183939 0)
(12.3534 -0.0345463 0)
(9.99604 -0.0250086 0)
(10.2461 -0.0566775 0)
(10.588 -0.0231324 0)
(10.9671 -0.0240063 0)
(11.2191 -0.0379368 0)
(11.4411 -0.0192883 0)
(11.5924 -0.00214501 0)
(11.64 0.00543902 0)
(11.7175 -0.0382455 0)
(11.8232 -0.0389277 0)
(11.879 0.0108501 0)
(11.984 0.00283518 0)
(12.1176 -0.0312235 0)
(12.1521 -0.00379905 0)
(12.1659 -0.00479964 0)
(12.2345 -0.0337759 0)
(12.3804 -0.0399812 0)
(12.4532 -0.0099318 0)
(12.4403 -0.0102649 0)
(12.3614 -0.0515461 0)
(10.0176 -0.0757082 0)
(10.2144 -0.144555 0)
(10.6015 -0.116795 0)
(11.0243 -0.0860235 0)
(11.2974 -0.0668265 0)
(11.4083 -0.0400554 0)
(11.5433 -0.0449546 0)
(11.7026 -0.0335793 0)
(11.8173 -0.061394 0)
(11.7997 -0.0454313 0)
(11.8672 -0.0207888 0)
(12.064 -0.029366 0)
(12.0642 -0.0336667 0)
(12.1417 -0.0174296 0)
(12.2524 -0.030152 0)
(12.3572 -0.0583539 0)
(12.3383 -0.0657359 0)
(12.3797 -0.0315191 0)
(12.4289 -0.0410757 0)
(12.4272 -0.0621727 0)
(10.0081 -0.11833 0)
(10.258 -0.247184 0)
(10.6641 -0.204389 0)
(11.0496 -0.157305 0)
(11.3192 -0.0833866 0)
(11.48 -0.0677022 0)
(11.6056 -0.0803227 0)
(11.735 -0.0875812 0)
(11.8215 -0.070548 0)
(11.8338 -0.0628996 0)
(11.9799 -0.0505602 0)
(12.0529 -0.0515134 0)
(12.1107 -0.0404081 0)
(12.2026 -0.0529358 0)
(12.3224 -0.0581683 0)
(12.3685 -0.0658477 0)
(12.3636 -0.059962 0)
(12.4173 -0.0699277 0)
(12.497 -0.083851 0)
(12.4874 -0.0906635 0)
(10.0276 -0.18178 0)
(10.2904 -0.350389 0)
(10.7578 -0.284894 0)
(11.1027 -0.205807 0)
(11.3977 -0.123415 0)
(11.5397 -0.110445 0)
(11.6996 -0.110963 0)
(11.7875 -0.114104 0)
(11.8539 -0.0898171 0)
(11.9334 -0.098972 0)
(12.0619 -0.0697974 0)
(12.1024 -0.0723439 0)
(12.196 -0.0571656 0)
(12.292 -0.0766463 0)
(12.358 -0.0660644 0)
(12.3815 -0.0851546 0)
(12.4638 -0.0830761 0)
(12.5232 -0.108388 0)
(12.5698 -0.112634 0)
(12.4994 -0.125257 0)
(10.0709 -0.256792 0)
(10.306 -0.451845 0)
(10.8914 -0.37397 0)
(11.1831 -0.254177 0)
(11.5373 -0.157509 0)
(11.5969 -0.1471 0)
(11.8185 -0.148846 0)
(11.8299 -0.144236 0)
(11.9815 -0.115893 0)
(11.9959 -0.124846 0)
(12.1519 -0.0893795 0)
(12.1359 -0.0942013 0)
(12.278 -0.0780871 0)
(12.2939 -0.0999514 0)
(12.3894 -0.0749285 0)
(12.3635 -0.106163 0)
(12.4533 -0.0983754 0)
(12.445 -0.136474 0)
(12.4673 -0.129174 0)
(12.3613 -0.155947 0)
(10.0674 -0.352444 0)
(10.3749 -0.561763 0)
(11.059 -0.460014 0)
(11.2989 -0.298299 0)
(11.6643 -0.206482 0)
(11.6641 -0.190515 0)
(11.8997 -0.185246 0)
(11.8106 -0.166983 0)
(11.9945 -0.14376 0)
(11.8805 -0.142874 0)
(12.0444 -0.109471 0)
(11.9078 -0.106851 0)
(12.0498 -0.0944643 0)
(11.9092 -0.106921 0)
(12.0149 -0.0821163 0)
(11.855 -0.11044 0)
(11.9378 -0.101521 0)
(11.7707 -0.143996 0)
(11.7728 -0.13041 0)
(11.5429 -0.180119 0)
(10.0144 -0.4598 0)
(10.5462 -0.701998 0)
(11.1873 -0.546649 0)
(11.3597 -0.355691 0)
(11.568 -0.258225 0)
(11.451 -0.226746 0)
(11.5042 -0.204666 0)
(11.2817 -0.175109 0)
(11.3188 -0.146595 0)
(11.0495 -0.133129 0)
(11.1 -0.10291 0)
(10.8334 -0.0943434 0)
(10.8907 -0.0816823 0)
(10.6222 -0.0877871 0)
(10.6928 -0.0668095 0)
(10.4139 -0.0902703 0)
(10.474 -0.0792544 0)
(10.1801 -0.121672 0)
(10.1789 -0.0999305 0)
(9.83668 -0.171536 0)
(10.0656 -0.633252 0)
(10.6498 -0.861992 0)
(10.8793 -0.601324 0)
(10.678 -0.374488 0)
(10.4667 -0.254516 0)
(10.0791 -0.196217 0)
(9.84418 -0.156176 0)
(9.48096 -0.12218 0)
(9.33383 -0.0932139 0)
(9.0037 -0.0799024 0)
(8.95017 -0.0590917 0)
(8.66591 -0.0513226 0)
(8.66384 -0.0447737 0)
(8.39744 -0.0492304 0)
(8.43351 -0.0385397 0)
(8.15852 -0.0516629 0)
(8.19788 -0.0520719 0)
(7.89392 -0.0737799 0)
(7.88928 -0.074076 0)
(7.53383 -0.0976555 0)
(10.0853 -0.838923 0)
(9.65322 -0.867285 0)
(8.87654 -0.506611 0)
(8.07537 -0.262418 0)
(7.49894 -0.137686 0)
(7.00232 -0.0815759 0)
(6.70034 -0.0556075 0)
(6.38965 -0.0407458 0)
(6.23686 -0.0284507 0)
(6.0029 -0.0266147 0)
(5.94257 -0.0187338 0)
(5.75154 -0.0167711 0)
(5.73894 -0.0156826 0)
(5.55621 -0.020361 0)
(5.56694 -0.0148835 0)
(5.37455 -0.0235967 0)
(5.38236 -0.024443 0)
(5.15253 -0.0349411 0)
(5.13513 -0.0401093 0)
(4.83124 -0.0231449 0)
(8.09157 -0.388041 0)
(5.44806 -0.2425 0)
(3.91269 -0.0428038 0)
(3.15532 0.015263 0)
(2.80205 0.0182621 0)
(2.59692 0.0113463 0)
(2.48552 0.00518848 0)
(2.37554 0.00229424 0)
(2.32229 0.00216405 0)
(2.2436 -0.000175693 0)
(2.2188 0.00078929 0)
(2.15611 0.00036821 0)
(2.14974 0.000100886 0)
(2.08202 -0.00159997 0)
(2.07696 5.93792e-06 0)
(2.00393 -0.00240344 0)
(1.98986 -0.0016695 0)
(1.89296 -0.00421811 0)
(1.85135 -0.00424206 0)
(1.69746 0.0107655 0)
(2.37216 -0.169072 0)
(2.43443 -0.0562265 0)
(2.57897 0.00437818 0)
(2.62409 0.0374294 0)
(2.76977 0.0367504 0)
(2.83854 0.0287003 0)
(2.99461 0.00306792 0)
(3.07881 -0.0165135 0)
(3.21441 -0.0371642 0)
(3.27868 -0.0451536 0)
(3.3784 -0.0495195 0)
(3.42096 -0.0415808 0)
(3.50524 -0.0331817 0)
(3.55602 -0.0208868 0)
(3.64781 -0.0135475 0)
(3.72338 -0.00391754 0)
(3.83151 -0.00110179 0)
(3.93942 0.0023609 0)
(4.07503 -0.00399498 0)
(4.21094 -0.0152418 0)
(4.36398 -0.0520143 0)
(4.51706 -0.110843 0)
(4.67218 -0.184176 0)
(4.82829 -0.286095 0)
(4.96609 -0.40322 0)
(5.10106 -0.537769 0)
(5.19435 -0.685483 0)
(5.27608 -0.828653 0)
(5.29325 -0.972387 0)
(5.27999 -1.10699 0)
(5.18087 -1.20681 0)
(5.04984 -1.23828 0)
(4.81864 -1.16399 0)
(4.45846 -1.02851 0)
(3.91538 -0.924558 0)
(3.41441 -0.821448 0)
(3.06561 -0.563186 0)
(3.12469 -0.0748854 0)
(3.40469 0.61553 0)
(3.92528 1.39103 0)
(4.46936 2.094 0)
(5.03207 2.58312 0)
(5.61133 2.88465 0)
(6.19549 2.99054 0)
(6.75755 2.8543 0)
(7.30625 2.54851 0)
(7.8382 2.12605 0)
(8.27713 1.57268 0)
(8.71008 0.939062 0)
(9.13009 0.30521 0)
(9.57512 -0.355935 0)
(9.85498 -1.07767 0)
(10.1052 -1.76851 0)
(10.1975 -2.35638 0)
(10.1727 -2.91591 0)
(10.271 -3.31462 0)
(10.3391 -3.86336 0)
(10.3632 -4.42561 0)
(10.7015 -4.79335 0)
(10.5841 -5.37797 0)
(10.2776 -5.60693 0)
(9.90865 -5.58445 0)
(9.20906 -5.23754 0)
(8.71934 -4.61121 0)
(7.91835 -3.96204 0)
(7.45781 -2.99282 0)
(6.99592 -1.98101 0)
(6.39485 -1.243 0)
(6.32457 -0.225735 0)
(6.38543 0.909962 0)
(6.39756 1.82885 0)
(6.19776 2.47134 0)
(6.34591 3.02378 0)
(6.43922 3.41546 0)
(6.72241 3.63193 0)
(6.97597 3.5634 0)
(7.27423 3.41856 0)
(7.55045 3.17759 0)
(7.77372 2.7471 0)
(8.28992 2.24427 0)
(8.60551 1.82731 0)
(9.16283 1.13717 0)
(9.55078 0.24931 0)
(9.92787 -0.567645 0)
(10.1549 -1.27919 0)
(10.5008 -2.12814 0)
(10.7261 -3.00833 0)
(10.5959 -3.45335 0)
(10.3528 -4.05532 0)
(10.5516 -4.74436 0)
(10.0199 -4.924 0)
(9.73873 -5.24292 0)
(10.0985 -6.0066 0)
(10.2266 -6.62123 0)
(10.0264 -6.94564 0)
(9.98894 -7.56477 0)
(10.1786 -8.05247 0)
(9.90676 -8.21282 0)
(9.77539 -8.19097 0)
(9.69765 -8.22053 0)
(10.1104 -8.37991 0)
(10.4689 -8.48737 0)
(11.0863 -8.31025 0)
(11.2934 -7.90055 0)
(11.4265 -7.07657 0)
(11.5168 -6.16057 0)
(11.6237 -5.24132 0)
(11.5343 -4.41541 0)
(11.5547 -3.68414 0)
(11.8311 -2.74013 0)
(11.7938 -1.54636 0)
(11.5952 -0.102093 0)
(11.026 0.99579 0)
(10.3265 1.45742 0)
(9.86571 1.50846 0)
(9.81437 1.73628 0)
(9.70319 2.41364 0)
(9.6143 3.54248 0)
(9.45711 4.57522 0)
(9.07344 5.28449 0)
(8.76109 5.84014 0)
(8.34095 5.90997 0)
(8.17885 5.57839 0)
(7.95554 5.22555 0)
(7.64441 4.8156 0)
(7.25956 4.31449 0)
(7.24211 3.62418 0)
(6.91468 3.24556 0)
(6.83556 3.29554 0)
(6.60702 3.39235 0)
(6.62904 3.13416 0)
(6.44287 2.82852 0)
(6.34417 2.66431 0)
(6.20898 2.77981 0)
(6.29284 3.28732 0)
(6.2914 3.86315 0)
(6.48763 4.22958 0)
(6.34183 4.26847 0)
(6.39446 4.30915 0)
(6.35865 4.38017 0)
(6.47412 4.53724 0)
(6.73662 4.57243 0)
(7.17812 4.9627 0)
(7.62404 4.96052 0)
(8.11938 4.52113 0)
(8.35435 4.16923 0)
(9.17472 3.22605 0)
(9.28155 2.35115 0)
(9.7547 1.49343 0)
(9.90096 0.28907 0)
(10.3642 -0.545959 0)
(10.1349 -1.71111 0)
(10.3669 -2.50965 0)
(9.81915 -3.1625 0)
(9.92725 -3.98604 0)
(9.25744 -4.68313 0)
(9.09925 -4.78244 0)
(8.44692 -5.02481 0)
(8.1188 -6.08553 0)
(7.51394 -6.3233 0)
(6.50757 -4.95192 0)
(5.98401 -3.22922 0)
(5.62222 -3.33821 0)
(5.98584 -5.12782 0)
(6.02434 -7.1402 0)
(6.4301 -8.76079 0)
(6.91301 -9.22911 0)
(7.04699 -8.77409 0)
(7.26133 -8.31416 0)
(7.79429 -7.37364 0)
(7.63572 -6.25588 0)
(8.14565 -4.78258 0)
(8.17664 -3.34015 0)
(7.92918 -2.20571 0)
(8.51624 -0.510329 0)
(8.1396 0.832774 0)
(8.46854 2.22897 0)
(8.28144 3.44516 0)
(8.52078 4.82015 0)
(8.02386 5.47746 0)
(7.90122 5.98536 0)
(7.19915 6.19422 0)
(7.28173 6.58669 0)
(6.83825 6.84915 0)
(7.026 7.6125 0)
(7.32246 8.20637 0)
(7.23471 8.20868 0)
(6.87229 7.78271 0)
(6.74822 7.09258 0)
(6.08535 6.48067 0)
(5.8249 5.72176 0)
(5.55709 5.60064 0)
(4.80871 5.01098 0)
(4.88497 4.92284 0)
(4.4541 5.50441 0)
(4.53027 5.32864 0)
(4.53425 6.43514 0)
(4.75809 7.56761 0)
(4.80368 8.08164 0)
(2.96817 10.9653 0)
(5.40915 -0.116167 0)
(5.43653 -0.0907191 0)
(5.45645 -0.0589436 0)
(5.44174 -0.0339545 0)
(5.47519 -0.0325026 0)
(5.51429 -0.0445393 0)
(5.58942 -0.0680149 0)
(5.65661 -0.086073 0)
(5.73118 -0.100792 0)
(5.78681 -0.102012 0)
(5.84499 -0.0987734 0)
(5.89305 -0.0911434 0)
(5.94185 -0.083776 0)
(5.99604 -0.0782247 0)
(6.05292 -0.0754752 0)
(6.12774 -0.0784461 0)
(6.20814 -0.0808319 0)
(6.30264 -0.0913528 0)
(6.41481 -0.109193 0)
(6.52682 -0.130735 0)
(6.66184 -0.177543 0)
(6.79473 -0.233293 0)
(6.92636 -0.301971 0)
(7.07416 -0.402632 0)
(7.18375 -0.502375 0)
(7.31492 -0.617887 0)
(7.37833 -0.752357 0)
(7.45133 -0.864382 0)
(7.43508 -0.981 0)
(7.41 -1.07836 0)
(7.29447 -1.11644 0)
(7.12287 -1.11998 0)
(6.88224 -1.0487 0)
(6.65701 -0.905953 0)
(6.44943 -0.68002 0)
(6.23686 -0.39531 0)
(5.83307 -0.135931 0)
(5.41729 0.0953396 0)
(5.1315 0.414851 0)
(5.13842 0.872999 0)
(5.53447 1.43153 0)
(6.10022 1.9336 0)
(6.76895 2.28713 0)
(7.47437 2.45865 0)
(8.12249 2.40331 0)
(8.71454 2.13269 0)
(9.25545 1.76476 0)
(9.72728 1.31706 0)
(10.1496 0.674462 0)
(10.4452 0.0137503 0)
(10.7959 -0.553336 0)
(11.032 -1.21848 0)
(11.0599 -1.94617 0)
(11.1335 -2.39641 0)
(11.2823 -2.90676 0)
(11.2433 -3.55509 0)
(11.576 -3.89469 0)
(11.6431 -4.43548 0)
(11.606 -4.98112 0)
(11.5821 -5.24026 0)
(11.0991 -5.3594 0)
(10.5191 -5.01808 0)
(9.6243 -4.63427 0)
(9.04438 -4.07378 0)
(8.32931 -3.32407 0)
(7.69838 -2.61367 0)
(7.29019 -1.70494 0)
(7.09697 -0.891664 0)
(6.6878 -0.189303 0)
(6.75512 0.668658 0)
(7.03635 1.66723 0)
(7.29597 2.43969 0)
(7.53113 2.96218 0)
(7.61672 3.27008 0)
(7.86571 3.3476 0)
(8.15801 3.33734 0)
(8.48907 3.18912 0)
(8.78053 3.0036 0)
(9.18505 2.52066 0)
(9.46395 2.10715 0)
(9.87066 1.56785 0)
(10.3638 0.883721 0)
(10.6191 0.10762 0)
(10.8879 -0.669534 0)
(11.0481 -1.36391 0)
(11.0964 -2.12318 0)
(11.1281 -2.82408 0)
(10.6847 -3.24365 0)
(10.7292 -4.04668 0)
(10.501 -4.4782 0)
(9.86247 -4.64283 0)
(10.2351 -5.4423 0)
(10.5642 -6.17895 0)
(9.98698 -6.37526 0)
(9.64723 -6.86405 0)
(9.80654 -7.66326 0)
(9.60947 -7.86219 0)
(9.00004 -7.78145 0)
(8.80213 -7.99171 0)
(9.01397 -8.4427 0)
(9.56039 -8.79333 0)
(9.84513 -8.91119 0)
(10.13 -8.6617 0)
(10.0536 -8.07969 0)
(10.0661 -7.19559 0)
(10.1348 -6.24004 0)
(10.0981 -5.31728 0)
(9.93787 -4.50398 0)
(10.0018 -3.80711 0)
(10.0993 -2.89923 0)
(10.1807 -1.54253 0)
(10.1835 0.0699944 0)
(9.92544 1.37551 0)
(9.43171 1.87717 0)
(9.11983 1.80396 0)
(8.95055 1.92561 0)
(8.74785 2.58559 0)
(8.60245 3.65749 0)
(8.35022 4.83514 0)
(7.93607 5.54321 0)
(7.65662 6.09652 0)
(7.42709 6.0981 0)
(7.3027 5.62338 0)
(7.10849 5.42486 0)
(6.93026 5.06021 0)
(6.53709 4.42749 0)
(6.67842 3.70026 0)
(6.37922 3.42784 0)
(6.36333 3.42101 0)
(6.17693 3.37032 0)
(6.27142 3.19035 0)
(6.15151 2.8618 0)
(6.13287 2.72846 0)
(6.09745 2.81713 0)
(6.04973 3.19615 0)
(6.25919 3.70781 0)
(6.45219 4.1851 0)
(6.43857 4.22217 0)
(6.56641 4.21305 0)
(6.56661 4.48954 0)
(6.71584 4.37714 0)
(6.73432 4.30071 0)
(7.3709 4.62631 0)
(7.6739 4.48523 0)
(8.4086 4.16127 0)
(8.54263 3.67652 0)
(9.46685 2.93213 0)
(9.5583 2.09038 0)
(9.93326 1.17652 0)
(10.3863 0.0851714 0)
(10.4236 -0.52708 0)
(10.4649 -1.79924 0)
(10.3926 -2.50171 0)
(10.1391 -2.92589 0)
(9.85133 -3.64555 0)
(9.40231 -4.37158 0)
(9.19347 -4.41745 0)
(8.47248 -4.70911 0)
(8.29461 -5.53955 0)
(7.09967 -5.66079 0)
(6.70102 -4.4374 0)
(5.92053 -2.89857 0)
(6.13352 -3.49663 0)
(6.08091 -5.09417 0)
(6.20575 -7.57448 0)
(6.7976 -8.97249 0)
(6.4877 -9.31382 0)
(6.79419 -9.14024 0)
(7.27699 -8.42067 0)
(7.18294 -7.47441 0)
(7.25561 -6.42875 0)
(7.80631 -4.7647 0)
(7.41302 -3.33587 0)
(7.59332 -2.19244 0)
(7.70418 -0.540484 0)
(7.74171 0.8002 0)
(7.75724 2.14398 0)
(7.7897 3.52896 0)
(7.84873 4.99776 0)
(7.65245 5.70181 0)
(7.32346 6.29978 0)
(7.18776 6.50272 0)
(6.69318 6.82213 0)
(6.87112 7.14776 0)
(6.49235 7.5145 0)
(7.0743 8.04504 0)
(7.16334 8.40556 0)
(6.95974 7.84185 0)
(6.64855 7.24167 0)
(6.75064 6.79566 0)
(6.14809 6.05984 0)
(5.80223 5.67691 0)
(5.71965 5.6526 0)
(4.8943 4.91166 0)
(5.00534 5.36135 0)
(5.18581 5.89005 0)
(5.02411 6.01091 0)
(5.23471 7.2615 0)
(7.47799 7.94781 0)
(5.35441 11.6896 0)
(8.06871 -0.0811695 0)
(8.07698 -0.0238389 0)
(8.0663 -0.0133083 0)
(8.05875 -0.0195711 0)
(8.06443 -0.049056 0)
(8.09561 -0.0815901 0)
(8.14948 -0.102593 0)
(8.19904 -0.122994 0)
(8.24929 -0.12697 0)
(8.2858 -0.131284 0)
(8.31965 -0.130584 0)
(8.35768 -0.126509 0)
(8.38534 -0.123487 0)
(8.42966 -0.122594 0)
(8.47367 -0.127139 0)
(8.53274 -0.132455 0)
(8.6004 -0.146254 0)
(8.67511 -0.157707 0)
(8.76678 -0.18778 0)
(8.85413 -0.213201 0)
(8.95266 -0.266768 0)
(9.05701 -0.328737 0)
(9.13889 -0.388459 0)
(9.25263 -0.496047 0)
(9.31202 -0.577188 0)
(9.40099 -0.678933 0)
(9.4279 -0.795697 0)
(9.45106 -0.879768 0)
(9.42777 -0.954951 0)
(9.35884 -1.01424 0)
(9.26404 -1.01973 0)
(9.10702 -0.961614 0)
(8.92741 -0.860153 0)
(8.7421 -0.68958 0)
(8.49548 -0.473414 0)
(8.26334 -0.255618 0)
(8.04251 0.0476921 0)
(7.80757 0.368633 0)
(7.6186 0.667327 0)
(7.42048 0.963798 0)
(7.3869 1.20964 0)
(7.5553 1.45308 0)
(7.93229 1.65731 0)
(8.48779 1.75691 0)
(9.03085 1.71095 0)
(9.58715 1.51608 0)
(10.1308 1.19777 0)
(10.5345 0.751811 0)
(10.9408 0.273395 0)
(11.3472 -0.225573 0)
(11.5384 -0.898225 0)
(11.8365 -1.47163 0)
(12.0671 -1.91282 0)
(12.1308 -2.58344 0)
(12.4565 -3.02501 0)
(12.6768 -3.47856 0)
(12.6279 -4.07107 0)
(12.81 -4.45166 0)
(12.6466 -4.80864 0)
(12.0808 -4.87064 0)
(11.5456 -4.77303 0)
(10.7837 -4.58623 0)
(10.1986 -4.02319 0)
(9.29705 -3.39835 0)
(8.65373 -2.74068 0)
(8.05456 -1.99579 0)
(7.4775 -1.35927 0)
(7.30944 -0.681978 0)
(7.09683 0.0039284 0)
(7.05929 0.680433 0)
(7.23018 1.41799 0)
(7.67782 2.11105 0)
(8.17498 2.69408 0)
(8.53149 3.12323 0)
(8.90428 3.12631 0)
(9.16406 3.02678 0)
(9.41881 2.9136 0)
(9.72746 2.62522 0)
(10.0701 2.13657 0)
(10.2211 1.77289 0)
(10.6661 1.17578 0)
(10.8547 0.601514 0)
(11.0946 -0.133902 0)
(11.2893 -0.901146 0)
(11.1649 -1.47263 0)
(11.1937 -2.28674 0)
(10.9638 -2.75781 0)
(10.6434 -3.29389 0)
(10.9179 -4.05454 0)
(10.3576 -4.08796 0)
(10.2644 -4.58626 0)
(10.883 -5.59238 0)
(10.2635 -5.82474 0)
(9.4282 -5.9159 0)
(9.4256 -6.86741 0)
(9.39026 -7.40664 0)
(8.57075 -7.24715 0)
(7.97006 -7.47508 0)
(8.07256 -8.22585 0)
(8.45995 -8.90322 0)
(8.71117 -9.14176 0)
(8.6801 -8.95171 0)
(8.67474 -8.45933 0)
(8.49271 -7.74618 0)
(8.5722 -6.93475 0)
(8.58208 -5.9885 0)
(8.51615 -5.0296 0)
(8.44136 -4.24915 0)
(8.43484 -3.58887 0)
(8.28551 -2.78894 0)
(8.35929 -1.46462 0)
(8.35839 0.139825 0)
(8.47421 1.47063 0)
(8.29011 1.99405 0)
(8.35256 1.95917 0)
(8.21336 2.05064 0)
(7.90169 2.79171 0)
(7.35992 3.93951 0)
(7.22833 5.07747 0)
(6.74904 5.80222 0)
(6.47639 6.2492 0)
(6.40526 6.28627 0)
(6.36567 5.82334 0)
(6.22387 5.53567 0)
(6.08233 5.1971 0)
(5.93938 4.5189 0)
(5.89128 3.79272 0)
(5.96435 3.54971 0)
(5.88795 3.46015 0)
(5.77958 3.4089 0)
(5.84009 3.22072 0)
(5.77157 2.91298 0)
(5.81474 2.71753 0)
(5.83435 2.91256 0)
(5.8532 3.08845 0)
(6.1213 3.53035 0)
(6.46863 4.11729 0)
(6.32214 4.17684 0)
(6.89913 4.13168 0)
(6.65241 4.41788 0)
(7.07322 4.208 0)
(7.00267 4.0324 0)
(7.31879 4.28459 0)
(8.07789 3.92917 0)
(8.35443 3.86296 0)
(8.94136 3.30216 0)
(9.44366 2.52923 0)
(10.0519 1.82849 0)
(10.0509 0.933807 0)
(10.6294 -0.0979697 0)
(10.3686 -0.589814 0)
(10.7197 -1.74259 0)
(10.2293 -2.2736 0)
(10.2629 -2.72008 0)
(9.62071 -3.33948 0)
(9.54518 -4.16661 0)
(8.99015 -4.00468 0)
(8.64119 -4.28778 0)
(7.96657 -4.92055 0)
(7.20302 -5.27748 0)
(6.67315 -3.82038 0)
(6.30924 -2.94785 0)
(6.51116 -3.20589 0)
(6.21582 -5.24579 0)
(6.59656 -7.73282 0)
(6.4343 -8.72781 0)
(6.0534 -9.51091 0)
(6.77376 -9.25985 0)
(6.66697 -8.35654 0)
(6.46217 -7.68018 0)
(7.06799 -6.44842 0)
(7.07389 -4.73974 0)
(6.69372 -3.31851 0)
(7.14451 -2.04443 0)
(6.78904 -0.766379 0)
(7.23914 0.939993 0)
(6.87413 1.97265 0)
(7.38717 3.4074 0)
(7.13954 4.91541 0)
(7.28408 5.91697 0)
(6.51358 6.34572 0)
(6.86473 6.69729 0)
(6.19439 6.76384 0)
(6.64471 7.13613 0)
(6.3684 7.34434 0)
(6.71144 7.83793 0)
(6.95461 8.25379 0)
(7.23576 8.056 0)
(6.88965 7.47155 0)
(6.86944 6.83393 0)
(6.90437 6.62034 0)
(6.04192 5.88005 0)
(6.12605 5.68903 0)
(5.95434 5.6912 0)
(5.19378 5.10358 0)
(5.71614 5.67733 0)
(6.32991 6.10111 0)
(5.03229 7.35249 0)
(8.9384 5.82523 0)
(7.40789 11.2838 0)
(10.3568 -0.0536393 0)
(10.3331 0.0154696 0)
(10.2497 0.00689437 0)
(10.1996 -0.0361036 0)
(10.2157 -0.0777244 0)
(10.2478 -0.118409 0)
(10.3157 -0.127637 0)
(10.364 -0.133747 0)
(10.3904 -0.152749 0)
(10.4232 -0.146998 0)
(10.4282 -0.159647 0)
(10.461 -0.152519 0)
(10.4791 -0.144515 0)
(10.5121 -0.155859 0)
(10.5437 -0.1524 0)
(10.5775 -0.184157 0)
(10.6214 -0.190885 0)
(10.6634 -0.22104 0)
(10.7357 -0.25796 0)
(10.7939 -0.265452 0)
(10.8776 -0.338773 0)
(10.9466 -0.378503 0)
(10.9965 -0.435427 0)
(11.0672 -0.542479 0)
(11.0656 -0.609909 0)
(11.1029 -0.698299 0)
(11.0739 -0.807572 0)
(11.0395 -0.868399 0)
(10.9891 -0.910378 0)
(10.8841 -0.958392 0)
(10.7978 -0.915638 0)
(10.6534 -0.841412 0)
(10.4838 -0.729528 0)
(10.3209 -0.568686 0)
(10.14 -0.345396 0)
(9.97646 -0.0916196 0)
(9.82648 0.17237 0)
(9.70768 0.494216 0)
(9.62518 0.74879 0)
(9.56122 1.00191 0)
(9.55662 1.28838 0)
(9.68517 1.40503 0)
(9.8139 1.43222 0)
(10.0968 1.47855 0)
(10.5008 1.39528 0)
(10.9056 1.10376 0)
(11.2533 0.797112 0)
(11.7292 0.525494 0)
(12.0616 -0.0214102 0)
(12.3542 -0.563124 0)
(12.7471 -0.932504 0)
(13.0555 -1.6022 0)
(13.2101 -2.17577 0)
(13.5992 -2.54246 0)
(13.5747 -3.18877 0)
(13.7201 -3.69341 0)
(13.7033 -4.00955 0)
(13.3354 -4.3612 0)
(12.9578 -4.4571 0)
(12.3474 -4.4703 0)
(11.6818 -4.20211 0)
(10.806 -3.75222 0)
(10.111 -3.40196 0)
(9.50795 -2.90904 0)
(8.97441 -2.28984 0)
(8.46882 -1.61551 0)
(8.15998 -1.04648 0)
(7.85759 -0.560553 0)
(7.69789 0.0290099 0)
(7.59776 0.624341 0)
(7.61605 1.16009 0)
(7.90335 1.69907 0)
(8.29191 2.30102 0)
(8.83612 2.75024 0)
(9.33985 2.87515 0)
(9.76748 2.8223 0)
(10.0192 2.74294 0)
(10.4361 2.3627 0)
(10.6679 1.98164 0)
(10.8161 1.47522 0)
(11.1354 0.901596 0)
(11.1737 0.414139 0)
(11.4269 -0.321061 0)
(11.3493 -0.881683 0)
(11.2732 -1.5267 0)
(11.4585 -2.25337 0)
(10.9932 -2.4782 0)
(11.1906 -3.21112 0)
(11.2263 -3.66267 0)
(10.5186 -3.76206 0)
(10.9082 -4.7906 0)
(10.7133 -5.40144 0)
(9.42373 -5.09575 0)
(9.02591 -5.78329 0)
(9.17305 -6.78778 0)
(8.47858 -6.73946 0)
(7.48173 -6.6824 0)
(7.19797 -7.46952 0)
(7.32234 -8.54447 0)
(7.4989 -9.06936 0)
(7.52476 -9.00155 0)
(7.39387 -8.72151 0)
(7.33556 -8.21887 0)
(7.19918 -7.6516 0)
(7.33296 -6.91101 0)
(7.27348 -5.94723 0)
(7.30026 -4.93993 0)
(7.28971 -4.06751 0)
(7.1817 -3.36364 0)
(6.82198 -2.54434 0)
(6.70065 -1.28994 0)
(6.72864 0.0976897 0)
(6.97223 1.35392 0)
(7.12973 1.8521 0)
(7.47202 1.94669 0)
(7.17288 2.26113 0)
(6.72496 3.20494 0)
(6.12075 4.21527 0)
(5.99973 5.31633 0)
(5.51908 6.09143 0)
(5.28001 6.30881 0)
(5.26644 6.23931 0)
(5.49697 5.81453 0)
(5.15271 5.62217 0)
(5.3283 5.30297 0)
(5.24764 4.60011 0)
(5.24597 3.78073 0)
(5.42212 3.51851 0)
(5.22185 3.56434 0)
(5.40151 3.41351 0)
(5.50884 3.13359 0)
(5.31972 2.91578 0)
(5.50108 2.65168 0)
(5.45941 2.86277 0)
(5.71706 2.88561 0)
(5.94273 3.24365 0)
(6.36913 3.99229 0)
(6.45298 3.9173 0)
(6.91209 3.95501 0)
(6.87063 4.2745 0)
(7.36646 4.07686 0)
(7.35832 3.88021 0)
(7.36972 3.91197 0)
(8.36671 3.47451 0)
(8.39849 3.39469 0)
(9.04134 2.70794 0)
(9.6395 2.11836 0)
(9.84922 1.62077 0)
(10.2987 0.548833 0)
(10.5649 -0.0757344 0)
(10.4259 -0.618629 0)
(10.4563 -1.67266 0)
(10.3047 -2.24124 0)
(10.1346 -2.40535 0)
(9.64226 -3.15573 0)
(9.46508 -3.76335 0)
(8.9822 -3.71034 0)
(8.59845 -3.80879 0)
(7.9642 -4.46966 0)
(7.25258 -4.74457 0)
(6.70576 -3.5703 0)
(6.72105 -2.88717 0)
(6.48177 -3.03557 0)
(6.59325 -5.47667 0)
(6.388 -7.36984 0)
(5.94111 -8.66084 0)
(5.93013 -9.69331 0)
(6.30059 -9.06448 0)
(5.83158 -8.44186 0)
(6.06526 -7.87141 0)
(6.59443 -6.44169 0)
(6.1416 -4.72277 0)
(6.36907 -3.3499 0)
(6.3971 -1.98265 0)
(6.20812 -0.772267 0)
(6.57005 0.864963 0)
(6.08094 2.05771 0)
(6.71498 3.4986 0)
(6.45629 4.76334 0)
(6.70831 6.20158 0)
(6.28127 6.59158 0)
(6.17775 6.98571 0)
(5.9516 6.9301 0)
(5.80685 7.00671 0)
(6.29498 7.2981 0)
(6.38811 7.66191 0)
(6.71037 7.78779 0)
(7.0651 8.03728 0)
(7.29039 7.55898 0)
(6.82116 6.81726 0)
(7.09544 6.78386 0)
(7.07169 6.39963 0)
(6.12392 5.71642 0)
(6.70525 5.72688 0)
(6.49182 5.56714 0)
(5.33315 5.82356 0)
(8.00836 4.49967 0)
(5.64069 8.21093 0)
(9.0956 3.49903 0)
(8.27288 9.80199 0)
(11.9394 -0.0315918 0)
(11.9044 -0.0211668 0)
(11.8101 -0.0548925 0)
(11.7387 -0.0970478 0)
(11.7515 -0.12974 0)
(11.7766 -0.154831 0)
(11.8499 -0.162484 0)
(11.8975 -0.154348 0)
(11.9187 -0.155155 0)
(11.9411 -0.157691 0)
(11.9261 -0.16727 0)
(11.9354 -0.187574 0)
(11.9433 -0.187273 0)
(11.9663 -0.197658 0)
(11.9981 -0.20073 0)
(12.0409 -0.207802 0)
(12.0586 -0.223037 0)
(12.0889 -0.247411 0)
(12.1166 -0.295594 0)
(12.1222 -0.313505 0)
(12.1845 -0.389651 0)
(12.1979 -0.431652 0)
(12.2283 -0.468277 0)
(12.2666 -0.567168 0)
(12.2285 -0.607939 0)
(12.2114 -0.67392 0)
(12.1523 -0.767922 0)
(12.0485 -0.814619 0)
(11.9503 -0.835361 0)
(11.8371 -0.877506 0)
(11.7079 -0.838798 0)
(11.5869 -0.727868 0)
(11.4579 -0.6245 0)
(11.3395 -0.459312 0)
(11.2105 -0.213884 0)
(11.1024 0.00531929 0)
(11.0104 0.224705 0)
(10.9916 0.488228 0)
(11.0185 0.749196 0)
(11.0704 1.01344 0)
(11.1943 1.19148 0)
(11.407 1.27527 0)
(11.5735 1.39696 0)
(11.8245 1.36221 0)
(12.1763 1.08541 0)
(12.4872 0.969934 0)
(12.7963 0.692061 0)
(13.1607 0.103314 0)
(13.4692 -0.228293 0)
(13.7281 -0.615978 0)
(13.9953 -1.32726 0)
(14.3053 -1.73612 0)
(14.3582 -2.18028 0)
(14.4041 -2.86224 0)
(14.5192 -3.21246 0)
(14.1849 -3.53528 0)
(13.9226 -3.87941 0)
(13.5333 -4.01001 0)
(12.8891 -3.98615 0)
(12.1992 -3.7788 0)
(11.5481 -3.66183 0)
(11.0106 -3.35911 0)
(10.3867 -2.85498 0)
(9.76476 -2.37639 0)
(9.26944 -1.86847 0)
(8.87971 -1.44612 0)
(8.65614 -0.912647 0)
(8.40393 -0.390711 0)
(8.22184 0.161833 0)
(8.17882 0.678853 0)
(8.18345 1.08135 0)
(8.28809 1.50382 0)
(8.54283 1.90586 0)
(8.96406 2.246 0)
(9.43864 2.42699 0)
(9.9301 2.45775 0)
(10.3094 2.41185 0)
(10.7814 2.14834 0)
(11.0038 1.83389 0)
(11.3222 1.32883 0)
(11.5305 0.926296 0)
(11.5876 0.371042 0)
(11.8448 -0.316701 0)
(11.5914 -0.690001 0)
(11.8434 -1.45951 0)
(11.7436 -1.88431 0)
(11.3507 -2.23617 0)
(11.7335 -3.12092 0)
(11.0033 -3.22037 0)
(10.713 -3.74718 0)
(10.8547 -4.72291 0)
(9.58087 -4.48349 0)
(8.77239 -4.52895 0)
(8.96526 -5.76865 0)
(8.57398 -6.21462 0)
(7.45414 -5.90397 0)
(6.6307 -6.32161 0)
(6.31105 -7.47061 0)
(6.26736 -8.51834 0)
(6.36738 -8.95712 0)
(6.34471 -8.96479 0)
(6.30527 -8.77659 0)
(6.21848 -8.29808 0)
(6.00236 -7.77479 0)
(5.92437 -7.06214 0)
(5.79184 -6.15212 0)
(5.94786 -5.16427 0)
(5.98152 -4.14061 0)
(5.99756 -3.24784 0)
(5.67968 -2.30797 0)
(5.58268 -1.22872 0)
(5.61375 -0.0917262 0)
(5.82976 0.971366 0)
(6.09638 1.5522 0)
(6.24484 2.02874 0)
(5.88452 2.68075 0)
(5.40245 3.69966 0)
(4.8557 4.60828 0)
(4.54804 5.57092 0)
(4.238 6.31048 0)
(4.02688 6.36638 0)
(4.30107 6.13049 0)
(4.69157 5.9414 0)
(4.30714 5.58687 0)
(4.57444 5.21012 0)
(4.53279 4.49986 0)
(4.73656 3.80619 0)
(4.56995 3.55122 0)
(4.7429 3.45523 0)
(5.02268 3.21717 0)
(5.0272 3.23583 0)
(5.10308 2.91352 0)
(5.34668 2.58741 0)
(5.12831 2.70613 0)
(5.49759 2.6636 0)
(5.84312 2.98222 0)
(6.18768 3.72068 0)
(6.59979 3.60382 0)
(6.71822 3.87357 0)
(7.14247 4.11657 0)
(7.6263 3.84459 0)
(7.52809 3.80997 0)
(7.87757 3.45596 0)
(8.38745 3.17633 0)
(8.47024 3.0419 0)
(9.21832 2.3278 0)
(9.61976 1.77886 0)
(9.7909 1.32333 0)
(10.2863 0.285194 0)
(10.4512 -0.125742 0)
(10.2918 -0.618149 0)
(10.4196 -1.6403 0)
(10.1811 -2.0688 0)
(9.98437 -2.17318 0)
(9.52861 -2.97223 0)
(9.42928 -3.53359 0)
(8.98959 -3.41592 0)
(8.5354 -3.31915 0)
(8.24236 -4.10983 0)
(7.3816 -4.05278 0)
(7.13541 -3.48422 0)
(6.85234 -2.52858 0)
(6.67653 -3.17477 0)
(6.64845 -5.23968 0)
(6.06783 -7.00364 0)
(5.7511 -8.76494 0)
(5.59221 -9.46972 0)
(5.55168 -8.92357 0)
(5.28266 -8.75758 0)
(5.67095 -7.97372 0)
(5.54237 -6.47945 0)
(5.48069 -4.95467 0)
(5.93492 -3.34663 0)
(5.45109 -2.26154 0)
(5.93787 -0.585034 0)
(5.56249 0.829966 0)
(5.61157 1.79332 0)
(5.72179 3.45292 0)
(6.01799 4.81272 0)
(5.71753 5.90771 0)
(5.88174 6.63998 0)
(5.39483 6.89649 0)