/*--------------------------------*- C++ -*----------------------------------*\
| =========                 |                                                 |
| \\      /  F ield         | OpenFOAM: The Open Source CFD Toolbox           |
|  \\    /   O peration     | Version:  2.4.0                                 |
|   \\  /    A nd           | Web:      www.OpenFOAM.org                      |
|    \\/     M anipulation  |                                                 |
\*---------------------------------------------------------------------------*/
FoamFile
{
    version     2.0;
    format      ascii;
    class       volScalarField;
    location    "1.87";
    object      nuSgs;
}
// * * * * * * * * * * * * * * * * * * * * * * * * * * * * * * * * * * * * * //

dimensions      [0 2 -1 0 0 0 0];

internalField   nonuniform List<scalar> 
8800
(
0.0013383
0.00150703
0.00139255
0.00122999
0.00111946
0.00105251
0.000995208
0.000961944
0.000924319
0.000906537
0.000877487
0.000869998
0.000846194
0.000842349
0.000821646
0.00081942
0.000801004
0.000797692
0.000792852
0.000764302
0.000553755
0.000982198
0.00108277
0.00108165
0.00106178
0.00103644
0.000999798
0.000979092
0.000947885
0.00093293
0.000905588
0.000897119
0.000875174
0.000869171
0.000852669
0.00084765
0.000833223
0.000828881
0.00081583
0.000817017
0.000135539
0.000406716
0.000583021
0.000659936
0.000703289
0.000738802
0.000750395
0.000761105
0.000759729
0.000759369
0.000754466
0.000751634
0.000744639
0.000741202
0.000735587
0.000730494
0.000726571
0.000722368
0.000712907
0.000710229
2.68955e-05
0.000125594
0.000231162
0.000311371
0.00035659
0.000395056
0.000428711
0.000455013
0.000474483
0.000491594
0.000508562
0.000515131
0.000529624
0.000534645
0.000545083
0.000547713
0.000556715
0.000556971
0.000559135
0.000556484
5.11067e-06
3.35081e-05
6.79039e-05
0.000107327
0.000143224
0.000161062
0.000191263
0.000211388
0.000233491
0.000247383
0.000269833
0.000277882
0.000296194
0.000304507
0.000320998
0.000327586
0.000343967
0.000348926
0.000360473
0.000362787
2.39306e-06
8.48464e-06
1.76311e-05
2.82052e-05
4.33268e-05
5.06311e-05
6.2995e-05
7.48766e-05
8.56852e-05
9.51764e-05
0.000110598
0.000116313
0.000127126
0.000136586
0.000145908
0.000151829
0.000164214
0.000171904
0.000177365
0.000186945
2.23199e-06
3.17666e-06
5.07985e-06
7.44676e-06
1.15824e-05
1.36852e-05
1.59662e-05
2.09153e-05
2.35018e-05
2.77586e-05
3.29926e-05
3.60474e-05
3.92675e-05
4.69265e-05
4.96468e-05
5.46514e-05
5.76568e-05
6.43146e-05
6.71017e-05
7.53455e-05
2.16355e-06
2.63506e-06
3.52002e-06
3.77091e-06
4.48542e-06
5.20002e-06
5.46791e-06
6.40465e-06
6.78878e-06
7.96389e-06
8.44525e-06
9.52362e-06
1.0185e-05
1.25449e-05
1.31748e-05
1.50553e-05
1.56909e-05
1.82532e-05
1.92749e-05
2.41491e-05
2.14805e-06
2.61707e-06
2.99142e-06
3.64045e-06
3.78749e-06
4.02656e-06
4.07803e-06
4.233e-06
4.26721e-06
4.40287e-06
4.47211e-06
4.51435e-06
4.6045e-06
5.01357e-06
5.03662e-06
5.25275e-06
5.37227e-06
5.79216e-06
5.90158e-06
6.77021e-06
2.132e-06
2.44616e-06
3.04864e-06
3.62702e-06
3.73003e-06
3.6718e-06
3.66207e-06
3.86707e-06
4.06917e-06
4.10223e-06
4.08044e-06
4.07588e-06
4.04909e-06
4.0722e-06
4.11533e-06
4.18286e-06
4.21105e-06
4.27179e-06
4.2851e-06
4.32589e-06
2.12979e-06
2.52616e-06
3.23299e-06
3.34291e-06
3.47751e-06
3.81633e-06
3.93715e-06
4.00375e-06
3.98918e-06
3.99048e-06
3.99552e-06
3.99771e-06
4.00079e-06
4.07949e-06
4.12501e-06
4.23296e-06
4.24716e-06
4.26048e-06
4.27382e-06
4.34327e-06
2.14163e-06
2.62753e-06
2.93266e-06
3.41753e-06
4.0425e-06
4.13401e-06
4.07839e-06
4.06545e-06
4.09175e-06
4.30962e-06
4.43274e-06
4.61943e-06
4.68428e-06
4.77041e-06
4.95934e-06
5.15952e-06
5.30765e-06
5.77834e-06
6.15379e-06
6.655e-06
2.15355e-06
2.56918e-06
3.13105e-06
4.23194e-06
4.53863e-06
4.96477e-06
5.29672e-06
6.18906e-06
6.91305e-06
8.00167e-06
8.50994e-06
9.93113e-06
1.05907e-05
1.19977e-05
1.29839e-05
1.50067e-05
1.62458e-05
1.91815e-05
2.08599e-05
2.38004e-05
2.18608e-06
3.09685e-06
5.19985e-06
8.49379e-06
1.02939e-05
1.39939e-05
1.64279e-05
2.14642e-05
2.43031e-05
2.93965e-05
3.18757e-05
3.77855e-05
4.03461e-05
4.59271e-05
4.93034e-05
5.61646e-05
5.97249e-05
6.79784e-05
7.22571e-05
8.16153e-05
2.34709e-06
8.23639e-06
1.83684e-05
3.08613e-05
3.8953e-05
5.40373e-05
6.20712e-05
7.74041e-05
8.53275e-05
9.94486e-05
0.000105859
0.000119991
0.000125728
0.000138062
0.000144472
0.000157891
0.000164263
0.000179494
0.000186953
0.000205979
5.22376e-06
3.29448e-05
7.31025e-05
0.000106907
0.000135405
0.000170364
0.000186795
0.000214763
0.000231278
0.000252224
0.000262476
0.000283978
0.000291966
0.000309002
0.000317281
0.000334888
0.000342572
0.000361511
0.000369879
0.000391154
2.72861e-05
0.000123967
0.000240673
0.000301908
0.00035987
0.000395541
0.00042803
0.00045349
0.000476814
0.000491169
0.000505099
0.000519945
0.000526014
0.000537548
0.000543049
0.000552908
0.000556882
0.000567324
0.000571318
0.000581105
0.000136768
0.000401075
0.000588534
0.000653561
0.000710753
0.000732679
0.000754781
0.000757305
0.000761859
0.000757395
0.000756076
0.000749524
0.00074693
0.000739305
0.00073739
0.000731117
0.000729584
0.000725446
0.000723695
0.000719621
0.000557573
0.000980132
0.00108411
0.00108058
0.00106487
0.00102922
0.00100717
0.000971399
0.00095519
0.000924675
0.000913734
0.000888626
0.000881894
0.000862449
0.000857426
0.000840744
0.000836872
0.000820736
0.000815444
0.000801471
0.00133938
0.00150565
0.00139377
0.00122711
0.00112356
0.00104637
0.00100172
0.000954821
0.000931307
0.000897808
0.00088636
0.000859496
0.000854002
0.000831907
0.000827671
0.000805499
0.000800946
0.000775677
0.000766315
0.000734174
0.000353231
0.000300365
0.000262403
0.000238055
0.000224015
0.000216499
0.000211721
0.000209193
0.000206268
0.000204886
0.000202091
0.000200986
0.000198918
0.000197795
0.000196368
0.000193647
0.00019186
0.000188308
0.000185163
0.000181148
0.000177066
0.000171937
0.000167115
0.000161114
0.000155276
0.000148249
0.00014214
0.000135434
0.000129813
0.000124972
0.000121644
0.000118939
0.000117337
0.000117051
0.000117146
0.000117335
0.000117784
0.00011768
0.000117406
0.000116571
0.000115417
0.000113367
0.00011105
0.000109168
0.000107141
0.00010523
0.000104798
0.00010542
0.000106796
0.000109732
0.000112904
0.000116262
0.000120684
0.000124224
0.000128126
0.000130659
0.000133558
0.000135257
0.000136773
0.000138548
0.000139353
0.000141549
0.000142847
0.000145509
0.000146506
0.000148166
0.000150339
0.000151225
0.000153305
0.000154448
0.00015686
0.000157877
0.00015978
0.000161513
0.000162346
0.000163592
0.000163278
0.000163004
0.000162459
0.000161056
0.000159702
0.000158676
0.000156372
0.000155242
0.000153535
0.000151972
0.000150794
0.000149808
0.000148408
0.000147024
0.000145069
0.000144183
0.000141873
0.000139846
0.000137057
0.000135048
0.000130404
0.00012778
0.000124733
0.000118486
0.000115511
0.000109662
0.000104457
9.7846e-05
9.06177e-05
8.14418e-05
7.19806e-05
6.25813e-05
5.12601e-05
4.23403e-05
3.49579e-05
2.86603e-05
2.39096e-05
2.0147e-05
1.76845e-05
1.62204e-05
1.59726e-05
1.62871e-05
1.69721e-05
1.85689e-05
2.05791e-05
2.37884e-05
3.03359e-05
3.65695e-05
4.21113e-05
4.6436e-05
5.10452e-05
5.44381e-05
5.6203e-05
5.61314e-05
5.56799e-05
5.41042e-05
5.307e-05
5.04906e-05
4.93063e-05
4.67134e-05
4.58262e-05
4.37844e-05
4.33021e-05
4.19945e-05
4.17662e-05
4.10147e-05
3.97981e-05
3.8444e-05
3.93884e-05
4.27866e-05
5.33117e-05
7.40748e-05
9.87127e-05
0.000108449
0.000110082
0.000109824
0.000107369
0.000102834
9.54838e-05
8.74222e-05
8.43072e-05
8.12363e-05
7.76221e-05
7.60412e-05
7.45684e-05
7.33844e-05
7.31579e-05
7.23668e-05
7.1348e-05
7.06616e-05
7.05617e-05
7.11478e-05
7.43833e-05
7.6786e-05
7.87061e-05
7.85692e-05
7.76494e-05
7.79984e-05
7.8333e-05
7.76204e-05
7.37071e-05
6.75491e-05
6.63675e-05
6.45138e-05
5.93839e-05
5.60438e-05
5.71671e-05
5.68849e-05
5.82773e-05
5.69443e-05
5.50241e-05
5.15247e-05
4.76768e-05
4.24369e-05
4.14113e-05
4.06296e-05
4.17342e-05
4.44566e-05
4.55319e-05
4.67484e-05
5.20701e-05
6.46259e-05
0.000116369
0.000258781
0.000413623
0.0003758
0.0003439
0.000318337
0.000297551
0.00028158
0.000269037
0.000259543
0.000251674
0.000245136
0.00023947
0.000234315
0.00023021
0.0002262
0.00022345
0.00022029
0.000218057
0.000215375
0.000213307
0.000210704
0.000208909
0.000206511
0.000204556
0.000202288
0.000200041
0.000197571
0.000194816
0.000192083
0.000189041
0.000186201
0.000183191
0.000180649
0.000178252
0.000176031
0.000174589
0.000172628
0.000171726
0.000169903
0.000168794
0.000167181
0.000165063
0.000163632
0.000160573
0.000158914
0.000156126
0.000154704
0.000152767
0.000151858
0.000151597
0.000151847
0.000152468
0.000153258
0.000154492
0.000155364
0.000156175
0.000157259
0.000157589
0.000158275
0.000158106
0.000158138
0.000157646
0.000157498
0.000157334
0.00015712
0.000156822
0.000156271
0.000156502
0.000156429
0.000156455
0.000156577
0.000156947
0.000157271
0.000157354
0.000157668
0.000157674
0.000157637
0.00015753
0.000157011
0.000156696
0.000156004
0.000154957
0.00015432
0.000153008
0.000151608
0.000150423
0.000148285
0.000147162
0.000144619
0.00014244
0.000140608
0.000136677
0.000134148
0.00013088
0.000125797
0.0001214
0.000117593
0.000109417
0.00010497
9.73315e-05
8.86613e-05
8.18204e-05
7.24718e-05
6.32741e-05
5.53734e-05
4.81707e-05
4.1256e-05
3.5456e-05
3.03034e-05
2.57544e-05
2.2142e-05
1.89312e-05
1.67589e-05
1.52014e-05
1.41618e-05
1.40188e-05
1.43349e-05
1.5002e-05
1.65181e-05
1.91564e-05
2.38335e-05
2.80074e-05
3.58874e-05
4.51196e-05
5.23987e-05
5.77297e-05
6.27818e-05
6.68208e-05
6.82855e-05
6.82482e-05
6.7668e-05
6.64189e-05
6.41739e-05
6.18987e-05
5.89489e-05
5.75277e-05
5.4558e-05
5.31888e-05
5.05363e-05
4.90659e-05
4.6822e-05
4.56862e-05
4.43779e-05
4.30064e-05
4.10822e-05
4.06468e-05
4.1436e-05
4.42561e-05
5.26875e-05
6.72502e-05
9.26174e-05
0.000103318
0.000107307
0.000106948
0.000105486
0.000103337
9.76702e-05
9.0613e-05
8.59858e-05
8.11637e-05
7.84646e-05
7.63472e-05
7.47452e-05
7.41993e-05
7.25677e-05
7.17606e-05
7.17237e-05
7.22636e-05
7.41487e-05
7.91372e-05
8.01142e-05
7.99444e-05
7.90057e-05
7.75637e-05
7.76587e-05
7.7814e-05
7.42809e-05
6.92332e-05
6.51618e-05
6.52592e-05
6.44628e-05
6.08196e-05
5.82792e-05
5.76832e-05
5.99725e-05
5.86168e-05
5.72958e-05
5.49842e-05
4.87042e-05
4.3812e-05
4.03986e-05
3.95776e-05
4.09975e-05
4.31693e-05
4.94338e-05
4.99428e-05
4.92599e-05
5.48001e-05
6.37123e-05
0.000104878
0.000186666
0.000370597
0.000349949
0.000330075
0.000312215
0.000296206
0.000282478
0.000270915
0.000261421
0.000253471
0.000246594
0.000240617
0.000234976
0.000229972
0.000225369
0.000221307
0.000217864
0.000214874
0.000212237
0.000209802
0.00020767
0.0002055
0.000203653
0.000201662
0.000200142
0.000198351
0.000197123
0.000195453
0.00019411
0.000192681
0.000190985
0.000189706
0.000188069
0.000186733
0.000185512
0.000184316
0.000183382
0.000182557
0.000181657
0.000180828
0.000180014
0.000179037
0.000177989
0.000176851
0.000175556
0.000174105
0.000172799
0.000171382
0.000170193
0.000168871
0.000167746
0.000166572
0.000165813
0.000164932
0.000164336
0.000163586
0.000163278
0.000162522
0.000162124
0.000161133
0.000160414
0.000159382
0.000157828
0.000157065
0.000155611
0.000154309
0.0001527
0.000150973
0.000149533
0.000147786
0.000146252
0.000144583
0.00014306
0.000142227
0.000140258
0.00013952
0.000138114
0.00013713
0.000136205
0.00013499
0.000133558
0.000132805
0.000131579
0.000129808
0.00012861
0.000126659
0.000124244
0.000122802
0.000119334
0.000116394
0.00011372
0.000108451
0.000104371
9.96333e-05
9.2325e-05
8.65944e-05
7.98962e-05
7.11578e-05
6.46544e-05
5.69921e-05
5.03089e-05
4.47147e-05
3.89029e-05
3.42396e-05
2.96559e-05
2.60152e-05
2.25228e-05
1.96868e-05
1.70697e-05
1.55305e-05
1.38651e-05
1.29505e-05
1.24829e-05
1.25461e-05
1.27946e-05
1.33908e-05
1.47134e-05
1.72872e-05
2.25134e-05
2.90129e-05
3.6183e-05
4.28532e-05
5.67857e-05
6.55133e-05
7.22636e-05
7.83965e-05
8.34997e-05
8.51921e-05
8.48793e-05
8.41691e-05
8.20489e-05
8.08417e-05
7.73383e-05
7.53808e-05
7.17977e-05
7.05333e-05
6.74468e-05
6.57646e-05
6.19894e-05
5.98811e-05
5.62787e-05
5.42133e-05
5.09671e-05
4.89841e-05
4.58756e-05
4.34598e-05
4.24509e-05
4.29264e-05
4.50795e-05
5.0529e-05
6.23653e-05
8.2248e-05
9.77454e-05
0.000103297
0.000103879
0.000103355
0.000101888
9.89161e-05
9.54428e-05
9.012e-05
8.52584e-05
8.108e-05
7.86826e-05
7.67773e-05
7.53811e-05
7.5456e-05
7.60093e-05
7.8941e-05
8.12648e-05
8.23353e-05
8.17334e-05
8.03017e-05
7.84422e-05
7.77538e-05
7.71397e-05
7.55869e-05
7.01787e-05
6.64932e-05
6.41351e-05
6.4281e-05
6.41367e-05
6.17014e-05
6.21903e-05
6.14392e-05
6.44927e-05
6.24113e-05
6.27414e-05
5.84157e-05
5.55453e-05
4.82486e-05
4.60536e-05
4.45445e-05
4.50547e-05
4.83931e-05
5.02923e-05
5.58074e-05
5.42252e-05
7.87484e-05
7.10166e-05
9.7347e-05
0.000141798
0.000294812
0.000283734
0.00027339
0.000263
0.000253169
0.00024385
0.000235034
0.000227456
0.000220887
0.000215484
0.000210935
0.000206685
0.000202548
0.0001986
0.00019437
0.000190932
0.000187342
0.000184898
0.000182404
0.000180687
0.000178999
0.000177473
0.000175914
0.000174507
0.000173064
0.000171864
0.000170952
0.000169758
0.000169138
0.000168108
0.000167029
0.000166259
0.000164924
0.000164197
0.000163199
0.000162728
0.000162156
0.000161957
0.000161751
0.00016142
0.000161228
0.000160709
0.000160342
0.000159568
0.000159013
0.000157814
0.000157064
0.000155491
0.000154536
0.000153043
0.000151351
0.000150356
0.000148259
0.000147227
0.00014551
0.000144169
0.000142938
0.000140937
0.000139904
0.000137943
0.000136052
0.000134457
0.00013157
0.000130049
0.00012717
0.000124903
0.000121447
0.000119526
0.000115545
0.000113423
0.000111146
0.000107653
0.000106438
0.000104109
0.000102136
0.000100903
9.80143e-05
9.68411e-05
9.55816e-05
9.29761e-05
9.19818e-05
9.03031e-05
8.81268e-05
8.70649e-05
8.46119e-05
8.18927e-05
8.01986e-05
7.58645e-05
7.32991e-05
6.97198e-05
6.48583e-05
6.11201e-05
5.66818e-05
5.16784e-05
4.74633e-05
4.29533e-05
3.84994e-05
3.45865e-05
3.08781e-05
2.73655e-05
2.44368e-05
2.15363e-05
1.93351e-05
1.68356e-05
1.5328e-05
1.3604e-05
1.24369e-05
1.15198e-05
1.12161e-05
1.10386e-05
1.12572e-05
1.15935e-05
1.23423e-05
1.37518e-05
1.62397e-05
2.06343e-05
2.64823e-05
3.68976e-05
4.5585e-05
5.64721e-05
6.88919e-05
8.3405e-05
8.91999e-05
9.73835e-05
0.000104024
0.00010476
0.000104344
0.000102123
0.000101257
9.80716e-05
9.65232e-05
9.19608e-05
9.10672e-05
8.88073e-05
8.81209e-05
8.51733e-05
8.5087e-05
8.35236e-05
8.24726e-05
7.94754e-05
7.69144e-05
7.00495e-05
6.60368e-05
5.89401e-05
5.3042e-05
4.79256e-05
4.49665e-05
4.52686e-05
4.64544e-05
4.98815e-05
5.8069e-05
7.11955e-05
8.9647e-05
9.7504e-05
0.000100591
0.00010059
9.9726e-05
9.85218e-05
9.64018e-05
9.34188e-05
9.0917e-05
8.85449e-05
8.56996e-05
8.4504e-05
8.45964e-05
8.47277e-05
8.47479e-05
8.43247e-05
8.34721e-05
8.19063e-05
7.92003e-05
7.82929e-05
7.68962e-05
7.37478e-05
6.79333e-05
6.5532e-05
6.13108e-05
6.05433e-05
6.03052e-05
6.12306e-05
6.09385e-05
6.1881e-05
6.30199e-05
6.30158e-05
6.47463e-05
6.33631e-05
6.73516e-05
6.32574e-05
6.88133e-05
6.57279e-05
8.54479e-05
7.82207e-05
0.000114468
9.60396e-05
0.000121944
9.49112e-05
0.000121707
9.79456e-05
0.000102875
0.000124201
0.000195039
0.000190385
0.000186465
0.000181842
0.000177056
0.000172569
0.000167174
0.000162244
0.000157968
0.000153781
0.000151632
0.000149143
0.000147496
0.00014574
0.000143187
0.000141032
0.000138063
0.000135759
0.000133633
0.000132067
0.00013111
0.000130567
0.000129735
0.000129328
0.000128271
0.000127192
0.000126343
0.000125209
0.000124778
0.000124157
0.000123723
0.000123318
0.000122333
0.00012157
0.000120522
0.000119708
0.000119027
0.00011901
0.000119004
0.000119245
0.000119667
0.000119717
0.000119735
0.000119137
0.000118577
0.000117228
0.000116454
0.000114976
0.000113689
0.0001125
0.000110401
0.000109351
0.000107032
0.00010544
0.000103343
0.000100755
9.94982e-05
9.64729e-05
9.48704e-05
9.28583e-05
9.02535e-05
8.88739e-05
8.57096e-05
8.3271e-05
8.07739e-05
7.76812e-05
7.43258e-05
7.23566e-05
6.83295e-05
6.61601e-05
6.41726e-05
6.09969e-05
5.99606e-05
5.83302e-05
5.66132e-05
5.60782e-05
5.44061e-05
5.32967e-05
5.25838e-05
5.04521e-05
4.96048e-05
4.8197e-05
4.64459e-05
4.56951e-05
4.37848e-05
4.22928e-05
4.08655e-05
3.85881e-05
3.71763e-05
3.51016e-05
3.29293e-05
3.08141e-05
2.86195e-05
2.6558e-05
2.40654e-05
2.24534e-05
2.01708e-05
1.84528e-05
1.67776e-05
1.5198e-05
1.38085e-05
1.26651e-05
1.15067e-05
1.06714e-05
1.01024e-05
9.63133e-06
9.64188e-06
9.75993e-06
1.00437e-05
1.06795e-05
1.15118e-05
1.30656e-05
1.61911e-05
1.9984e-05
2.6058e-05
3.35229e-05
4.54878e-05
5.87341e-05
7.19303e-05
8.78529e-05
0.000101759
0.000109882
0.00011691
0.000121856
0.000121377
0.000119009
0.000118301
0.000116364
0.000115519
0.000110866
0.000111392
0.000108942
0.000109735
0.000109415
0.000115841
0.000117327
0.000119226
0.000118056
0.000117437
0.000114573
0.000112342
0.000105549
0.000101506
9.29597e-05
8.39835e-05
7.2109e-05
5.90004e-05
5.15616e-05
4.85976e-05
4.91974e-05
5.11423e-05
5.56283e-05
6.45391e-05
7.7507e-05
8.95967e-05
9.51468e-05
9.71284e-05
9.70689e-05
9.62577e-05
9.4987e-05
9.3095e-05
9.20611e-05
8.99618e-05
8.90126e-05
8.76913e-05
8.66278e-05
8.56674e-05
8.43203e-05
8.22941e-05
8.10487e-05
7.83076e-05
7.68543e-05
7.19761e-05
6.8607e-05
6.33369e-05
6.33968e-05
6.07251e-05
6.01503e-05
5.88489e-05
5.95948e-05
5.96792e-05
5.96334e-05
5.92491e-05
5.92056e-05
5.93596e-05
6.13482e-05
6.26029e-05
6.42909e-05
6.79062e-05
7.02927e-05
8.86905e-05
8.89873e-05
0.000111126
0.000106423
0.00011963
0.000111047
0.000113898
0.000114307
0.000117173
0.000125998
0.000101331
9.96518e-05
9.829e-05
9.65969e-05
9.46611e-05
9.34171e-05
9.1284e-05
8.91039e-05
8.72744e-05
8.51095e-05
8.41902e-05
8.33229e-05
8.2952e-05
8.27857e-05
8.23073e-05
8.15857e-05
8.01149e-05
7.87761e-05
7.72863e-05
7.59786e-05
7.52981e-05
7.51248e-05
7.51273e-05
7.55191e-05
7.58054e-05
7.59167e-05
7.59223e-05
7.5294e-05
7.50548e-05
7.46466e-05
7.45286e-05
7.4457e-05
7.43457e-05
7.42431e-05
7.34543e-05
7.26257e-05
7.14893e-05
7.12407e-05
7.10468e-05
7.10933e-05
7.15837e-05
7.21435e-05
7.29183e-05
7.29364e-05
7.28699e-05
7.22974e-05
7.15367e-05
6.99391e-05
6.83443e-05
6.70316e-05
6.49582e-05
6.39865e-05
6.20397e-05
6.08707e-05
5.93213e-05
5.72896e-05
5.63734e-05
5.41293e-05
5.26974e-05
5.13268e-05
4.92362e-05
4.83259e-05
4.66e-05
4.49816e-05
4.40313e-05
4.17834e-05
4.02458e-05
3.85264e-05
3.59781e-05
3.46239e-05
3.27552e-05
3.08921e-05
3.01184e-05
2.88127e-05
2.79765e-05
2.76991e-05
2.69247e-05
2.64842e-05
2.61464e-05
2.50938e-05
2.46097e-05
2.3828e-05
2.2789e-05
2.22354e-05
2.13746e-05
2.04206e-05
1.97503e-05
1.88977e-05
1.78732e-05
1.71548e-05
1.62794e-05
1.50903e-05
1.44906e-05
1.34116e-05
1.25329e-05
1.1845e-05
1.08698e-05
1.02419e-05
9.56711e-06
8.97863e-06
8.66241e-06
8.33045e-06
8.23691e-06
8.36371e-06
8.45974e-06
8.77343e-06
9.27257e-06
9.97476e-06
1.11345e-05
1.36487e-05
1.60639e-05
2.01706e-05
2.56962e-05
3.34342e-05
4.26624e-05
5.65367e-05
7.40073e-05
9.08343e-05
0.000110396
0.000120704
0.000125901
0.000130543
0.000131738
0.000130762
0.000126765
0.00012636
0.000126107
0.000123502
0.000124989
0.000123872
0.000126908
0.000129115
0.000141091
0.000143339
0.000141171
0.000139313
0.000135111
0.000130577
0.000125449
0.000119588
0.000116175
0.000111903
0.000108929
0.000104901
0.00010087
9.60186e-05
8.71086e-05
7.59111e-05
6.16097e-05
5.41806e-05
5.27177e-05
5.35188e-05
5.58161e-05
6.14002e-05
6.83135e-05
7.80126e-05
8.62462e-05
9.0866e-05
9.28149e-05
9.28018e-05
9.22011e-05
9.14862e-05
8.99821e-05
8.87564e-05
8.76192e-05
8.59449e-05
8.49164e-05
8.30291e-05
8.0466e-05
7.91047e-05
7.51664e-05
7.2529e-05
6.62488e-05
6.53275e-05
6.1772e-05
6.37238e-05
6.11831e-05
6.25896e-05
6.1223e-05
6.42851e-05
6.22526e-05
6.34685e-05
6.33881e-05
6.18021e-05
6.20618e-05
6.08879e-05
6.09978e-05
6.19053e-05
6.51186e-05
7.25028e-05
9.71902e-05
0.000105294
0.000135035
0.000128724
0.000138338
0.000129147
0.000128856
0.000125595
0.000122393
0.000126298
4.09769e-05
4.0353e-05
3.95584e-05
3.89039e-05
3.83581e-05
3.82004e-05
3.78101e-05
3.7324e-05
3.67792e-05
3.61829e-05
3.60575e-05
3.59999e-05
3.6042e-05
3.61611e-05
3.61526e-05
3.61037e-05
3.57419e-05
3.52765e-05
3.46424e-05
3.41546e-05
3.39745e-05
3.39763e-05
3.4027e-05
3.45187e-05
3.51269e-05
3.55342e-05
3.58327e-05
3.58181e-05
3.58686e-05
3.58395e-05
3.5902e-05
3.62984e-05
3.66698e-05
3.68496e-05
3.68123e-05
3.66041e-05
3.55991e-05
3.51042e-05
3.45639e-05
3.4372e-05
3.444e-05
3.49617e-05
3.66052e-05
3.75148e-05
3.79684e-05
3.79981e-05
3.78112e-05
3.7e-05
3.54554e-05
3.4183e-05
3.2899e-05
3.19e-05
3.07981e-05
3.00888e-05
2.93676e-05
2.83393e-05
2.76404e-05
2.65048e-05
2.56007e-05
2.48619e-05
2.37621e-05
2.32322e-05
2.2562e-05
2.19913e-05
2.16317e-05
2.06582e-05
1.98244e-05
1.87296e-05
1.74567e-05
1.64923e-05
1.53215e-05
1.44285e-05
1.37623e-05
1.31667e-05
1.28376e-05
1.26996e-05
1.25466e-05
1.23308e-05
1.22291e-05
1.1933e-05
1.1549e-05
1.13309e-05
1.07723e-05
1.04946e-05
1.01781e-05
9.64541e-06
9.42848e-06
8.99843e-06
8.64461e-06
8.33671e-06
7.93678e-06
7.72117e-06
7.38872e-06
7.1947e-06
7.07632e-06
6.83969e-06
6.85879e-06
6.86396e-06
6.90613e-06
6.99679e-06
7.20545e-06
7.45082e-06
7.85342e-06
8.43182e-06
9.13367e-06
1.08799e-05
1.22466e-05
1.46341e-05
1.72328e-05
2.1969e-05
2.64217e-05
3.32137e-05
4.12855e-05
5.52153e-05
7.12095e-05
9.18664e-05
0.000115295
0.000127869
0.000131904
0.000132931
0.000135391
0.000137197
0.000136178
0.000131601
0.00012897
0.000130953
0.000130048
0.000134255
0.000137783
0.000143491
0.000159128
0.000162234
0.00015948
0.000153774
0.000140832
0.000133256
0.000120118
0.00011683
0.000110129
0.000108629
0.00010631
0.000105958
0.00010532
0.000103986
0.000101794
9.91839e-05
9.65946e-05
9.13468e-05
8.50869e-05
7.28293e-05
6.19995e-05
5.66216e-05
5.66554e-05
5.76762e-05
6.01921e-05
6.34877e-05
7.00397e-05
7.52954e-05
8.06556e-05
8.41863e-05
8.65859e-05
8.72109e-05
8.6986e-05
8.63213e-05
8.49607e-05
8.35678e-05
8.15984e-05
7.90206e-05
7.6031e-05
7.25577e-05
6.78634e-05
6.65026e-05
6.35494e-05
6.28841e-05
6.09684e-05
6.2211e-05
6.04333e-05
6.12071e-05
6.15371e-05
6.2345e-05
6.24146e-05
6.07337e-05
6.50544e-05
6.22509e-05
6.67939e-05
6.23957e-05
6.4994e-05
6.39609e-05
6.5634e-05
7.17235e-05
7.78164e-05
0.000102228
0.000107407
0.000121133
0.000121634
0.00012697
0.000134385
0.000141512
0.000143443
0.000137342
1.32546e-05
1.31651e-05
1.29544e-05
1.27545e-05
1.26244e-05
1.26201e-05
1.25899e-05
1.25014e-05
1.2479e-05
1.24454e-05
1.24781e-05
1.25009e-05
1.25352e-05
1.2552e-05
1.25027e-05
1.24625e-05
1.23831e-05
1.23718e-05
1.23263e-05
1.21583e-05
1.20317e-05
1.2012e-05
1.20285e-05
1.21089e-05
1.2381e-05
1.25959e-05
1.29568e-05
1.30863e-05
1.3224e-05
1.32996e-05
1.35704e-05
1.4051e-05
1.44242e-05
1.46385e-05
1.46486e-05
1.45371e-05
1.3865e-05
1.33624e-05
1.28883e-05
1.26325e-05
1.26751e-05
1.31718e-05
1.4715e-05
1.57561e-05
1.63233e-05
1.65337e-05
1.64984e-05
1.6047e-05
1.50736e-05
1.41512e-05
1.34599e-05
1.26496e-05
1.22723e-05
1.17592e-05
1.15044e-05
1.11687e-05
1.07471e-05
1.04698e-05
1.00501e-05
9.89753e-06
9.68747e-06
9.47479e-06
9.38065e-06
9.21907e-06
9.12249e-06
8.85373e-06
8.34842e-06
7.86283e-06
7.28713e-06
6.79971e-06
6.38074e-06
6.01009e-06
5.72438e-06
5.53684e-06
5.46709e-06
5.46338e-06
5.50515e-06
5.53996e-06
5.57121e-06
5.57128e-06
5.52565e-06
5.46478e-06
5.37768e-06
5.31913e-06
5.29426e-06
5.27511e-06
5.27235e-06
5.27995e-06
5.30562e-06
5.32873e-06
5.40432e-06
5.49176e-06
5.55762e-06
5.77097e-06
5.91055e-06
6.08936e-06
6.47791e-06
6.76049e-06
7.28497e-06
7.80598e-06
8.63113e-06
9.92841e-06
1.09044e-05
1.27296e-05
1.45752e-05
1.75143e-05
1.99741e-05
2.39406e-05
2.83864e-05
3.46671e-05
4.26706e-05
5.19654e-05
6.67688e-05
8.91591e-05
0.000117309
0.000134564
0.000140287
0.000139528
0.000136226
0.000135975
0.000138472
0.00013685
0.000126855
0.000124425
0.000125513
0.000129182
0.000133907
0.00015101
0.000156367
0.000178559
0.000175794
0.000170519
0.000150826
0.000133053
0.000120647
0.000111624
0.000107201
0.000101803
0.000100308
9.77588e-05
9.61251e-05
9.54818e-05
9.55428e-05
9.60913e-05
9.73587e-05
9.71487e-05
9.64427e-05
9.43419e-05
9.21294e-05
8.67387e-05
8.09933e-05
6.89985e-05
6.21115e-05
5.95306e-05
5.99689e-05
6.08683e-05
6.30609e-05
6.49609e-05
6.84431e-05
7.10895e-05
7.38051e-05
7.54282e-05
7.66936e-05
7.66108e-05
7.59788e-05
7.4878e-05
7.24846e-05
7.04674e-05
6.82383e-05
6.59656e-05
6.47126e-05
6.40205e-05
6.26451e-05
6.15323e-05
6.09076e-05
6.1544e-05
6.0509e-05
6.06213e-05
6.20804e-05
6.11049e-05
6.1405e-05
6.01171e-05
6.11421e-05
6.08762e-05
5.89798e-05
5.68589e-05
5.57872e-05
5.68084e-05
5.61517e-05
6.14164e-05
6.54046e-05
8.75651e-05
0.000101648
0.000114428
0.000116259
0.000125004
0.000127403
0.000134894
0.000139755
0.000152515
3.71363e-06
3.73183e-06
3.74085e-06
3.76393e-06
3.798e-06
3.83198e-06
3.86463e-06
3.88118e-06
3.90803e-06
3.91275e-06
3.92881e-06
3.93547e-06
3.93598e-06
3.93668e-06
3.91587e-06
3.90393e-06
3.89462e-06
3.89857e-06
3.89595e-06
3.87224e-06
3.83311e-06
3.79716e-06
3.79829e-06
3.80765e-06
3.87343e-06
3.95241e-06
4.09159e-06
4.17366e-06
4.22436e-06
4.27156e-06
4.39139e-06
4.61271e-06
4.76268e-06
4.84988e-06
4.85896e-06
4.80595e-06
4.57186e-06
4.31404e-06
4.11961e-06
3.95756e-06
3.90293e-06
3.95985e-06
4.47842e-06
5.09685e-06
5.45742e-06
5.67748e-06
5.72921e-06
5.70196e-06
5.45112e-06
5.09415e-06
4.76147e-06
4.45165e-06
4.24091e-06
4.05624e-06
3.94488e-06
3.83735e-06
3.79792e-06
3.77418e-06
3.77069e-06
3.79117e-06
3.79724e-06
3.81703e-06
3.88146e-06
3.94776e-06
4.01672e-06
4.02833e-06
4.00914e-06
3.92911e-06
3.86252e-06
3.80271e-06
3.77501e-06
3.77483e-06
3.78083e-06
3.81144e-06
3.91077e-06
4.04243e-06
4.28522e-06
4.42556e-06
4.57507e-06
4.75233e-06
4.82618e-06
4.9209e-06
5.02634e-06
5.08415e-06
5.21888e-06
5.37261e-06
5.49208e-06
5.7967e-06
5.97008e-06
6.25859e-06
6.64322e-06
6.91483e-06
7.39657e-06
8.00875e-06
8.48195e-06
9.24267e-06
9.94174e-06
1.1047e-05
1.19439e-05
1.32557e-05
1.49432e-05
1.67371e-05
1.85438e-05
2.1511e-05
2.41379e-05
2.7859e-05
3.23426e-05
3.69621e-05
4.54143e-05
5.33206e-05
6.50151e-05
8.30669e-05
0.000112349
0.000140207
0.000148822
0.000148396
0.000145872
0.000136274
0.000130028
0.000128963
0.000123776
0.00011007
0.000106091
0.000106678
0.000111243
0.000132507
0.000145114
0.000165752
0.000178486
0.000184219
0.000167747
0.000152507
0.000128768
0.000119926
0.000109737
0.000104359
0.000101608
9.80245e-05
9.73596e-05
9.47929e-05
9.41021e-05
9.29854e-05
9.10685e-05
9.04407e-05
9.08592e-05
9.12912e-05
9.309e-05
9.30836e-05
9.24111e-05
9.08306e-05
8.77296e-05
8.30611e-05
7.61692e-05
6.7379e-05
6.3039e-05
6.21196e-05
6.24299e-05
6.33654e-05
6.42652e-05
6.52828e-05
6.70286e-05
6.72682e-05
6.83162e-05
6.84797e-05
6.83255e-05
6.78517e-05
6.67869e-05
6.61334e-05
6.55618e-05
6.43374e-05
6.40652e-05
6.32682e-05
6.28599e-05
6.1946e-05
6.24753e-05
6.21358e-05
6.17984e-05
6.17507e-05
6.31587e-05
6.16466e-05
6.31909e-05
6.09989e-05
6.17537e-05
6.06206e-05
6.033e-05
5.68715e-05
5.81311e-05
5.70046e-05
5.80402e-05
6.03942e-05
7.14414e-05
8.15682e-05
0.000103
0.000113035
0.000128837
0.000129722
0.000133279
0.000136931
0.000136753
0.000140731
2.36727e-06
2.37961e-06
2.40805e-06
2.43115e-06
2.45699e-06
2.47204e-06
2.48057e-06
2.48954e-06
2.49425e-06
2.49481e-06
2.49639e-06
2.4981e-06
2.49758e-06
2.49776e-06
2.49788e-06
2.49881e-06
2.50117e-06
2.50657e-06
2.50781e-06
2.51295e-06
2.51344e-06
2.50975e-06
2.50766e-06
2.50617e-06
2.51018e-06
2.51655e-06
2.53801e-06
2.55295e-06
2.55604e-06
2.55903e-06
2.55787e-06
2.57263e-06
2.59574e-06
2.61194e-06
2.61756e-06
2.60923e-06
2.60242e-06
2.5782e-06
2.56708e-06
2.54849e-06
2.53187e-06
2.52578e-06
2.52318e-06
2.5717e-06
2.62428e-06
2.68469e-06
2.71087e-06
2.72083e-06
2.73642e-06
2.74181e-06
2.76372e-06
2.79522e-06
2.8189e-06
2.86635e-06
2.87956e-06
2.90642e-06
2.91793e-06
2.92558e-06
2.94481e-06
2.9858e-06
3.03533e-06
3.2071e-06
3.34832e-06
3.61522e-06
3.95595e-06
4.11404e-06
4.40333e-06
4.60225e-06
4.81432e-06
5.08484e-06
5.222e-06
5.46194e-06
5.7655e-06
5.95404e-06
6.50867e-06
6.89072e-06
7.34068e-06
7.96101e-06
8.26134e-06
8.71922e-06
8.98211e-06
9.19463e-06
9.50698e-06
9.65761e-06
1.00105e-05
1.03427e-05
1.06138e-05
1.11464e-05
1.14399e-05
1.20383e-05
1.24233e-05
1.32324e-05
1.38825e-05
1.4587e-05
1.58558e-05
1.67178e-05
1.77788e-05
1.96279e-05
2.07228e-05
2.30456e-05
2.51971e-05
2.71012e-05
3.10959e-05
3.37264e-05
3.8287e-05
4.3909e-05
4.893e-05
5.84799e-05
6.84438e-05
8.11483e-05
0.000101296
0.000138612
0.000158745
0.000159228
0.000156095
0.00014738
0.000127984
0.000114965
0.000109231
0.000103445
9.80205e-05
9.74968e-05
9.78222e-05
0.000100228
0.00011695
0.000143706
0.000161677
0.000183082
0.00018306
0.000175321
0.000157928
0.000140736
0.000121674
0.00011349
0.000103384
0.000102141
9.88672e-05
9.82404e-05
9.74504e-05
9.48325e-05
9.51516e-05
9.33128e-05
9.11188e-05
9.04026e-05
8.96274e-05
8.88944e-05
8.99029e-05
8.99478e-05
9.11252e-05
9.09232e-05
8.97147e-05
8.79569e-05
8.38179e-05
8.03996e-05
7.27826e-05
6.80476e-05
6.48082e-05
6.45743e-05
6.46853e-05
6.5248e-05
6.58008e-05
6.61728e-05
6.65122e-05
6.65102e-05
6.6492e-05
6.63908e-05
6.60024e-05
6.56637e-05
6.55842e-05
6.48124e-05
6.47988e-05
6.46176e-05
6.52445e-05
6.46286e-05
6.56185e-05
6.42205e-05
6.56265e-05
6.51151e-05
6.66245e-05
6.37389e-05
6.4815e-05
6.2231e-05
6.24226e-05
5.99407e-05
5.74768e-05
5.58648e-05
5.89082e-05
5.89434e-05
6.3169e-05
6.52079e-05
8.26448e-05
9.11916e-05
0.000113516
0.000119293
0.000140526
0.0001454
0.000163409
0.0001718
0.000164845
0.000152708
2.39185e-06
2.41079e-06
2.43979e-06
2.47658e-06
2.49635e-06
2.51428e-06
2.5207e-06
2.5353e-06
2.53824e-06
2.53545e-06
2.53221e-06
2.52897e-06
2.53868e-06
2.55152e-06
2.60421e-06
2.65086e-06
2.71294e-06
2.75025e-06
2.75974e-06
2.81015e-06
2.82417e-06
2.84253e-06
2.84187e-06
2.83674e-06
2.8326e-06
2.80525e-06
2.79068e-06
2.77759e-06
2.76702e-06
2.74911e-06
2.71765e-06
2.69556e-06
2.67629e-06
2.67028e-06
2.6725e-06
2.70241e-06
2.76781e-06
2.8153e-06
2.86162e-06
2.8851e-06
2.88194e-06
2.86714e-06
2.82901e-06
2.82087e-06
2.82198e-06
2.82484e-06
2.85906e-06
2.8883e-06
2.96834e-06
3.20309e-06
3.4283e-06
3.87202e-06