/*--------------------------------*- C++ -*----------------------------------*\
| =========                 |                                                 |
| \\      /  F ield         | OpenFOAM: The Open Source CFD Toolbox           |
|  \\    /   O peration     | Version:  2.4.0                                 |
|   \\  /    A nd           | Web:      www.OpenFOAM.org                      |
|    \\/     M anipulation  |                                                 |
\*---------------------------------------------------------------------------*/
FoamFile
{
    version     2.0;
    format      ascii;
    class       volScalarField;
    location    "1.87";
    object      pPrime2Mean;
}
// * * * * * * * * * * * * * * * * * * * * * * * * * * * * * * * * * * * * * //

dimensions      [0 4 -4 0 0 0 0];

internalField   nonuniform List<scalar> 
8800
(
345962
337238
327878
318598
309444
300423
291536
282781
274159
265670
257313
249086
240987
233012
225153
217396
209709
202035
194234
185872
345975
337240
327877
318597
309444
300423
291535
282781
274159
265670
257313
249086
240987
233014
225155
217400
209717
202053
194277
186013
345982
337239
327875
318596
309443
300423
291535
282781
274159
265670
257313
249087
240989
233016
225159
217408
209733
202087
194355
186289
345988
337239
327873
318594
309443
300422
291535
282781
274159
265670
257313
249088
240991
233019
225166
217420
209756
202135
194465
186610
345993
337239
327871
318592
309442
300422
291535
282780
274159
265671
257314
249089
240993
233024
225174
217435
209786
202195
194597
186942
345997
337239
327869
318591
309441
300422
291535
282780
274159
265671
257315
249090
240996
233029
225184
217454
209821
202263
194742
187266
346000
337240
327868
318590
309441
300422
291535
282780
274159
265671
257316
249092
240999
233035
225195
217474
209860
202339
194894
187573
346002
337240
327867
318589
309440
300422
291535
282781
274160
265672
257317
249094
241002
233041
225207
217496
209902
202418
195046
187860
346004
337240
327867
318589
309440
300422
291535
282781
274160
265672
257318
249096
241006
233048
225219
217519
209945
202498
195196
188123
346004
337240
327867
318588
309440
300422
291535
282781
274160
265673
257319
249098
241010
233055
225233
217543
209989
202577
195338
188363
346004
337240
327867
318588
309440
300422
291536
282781
274160
265673
257320
249100
241014
233062
225246
217567
210032
202654
195473
188580
346004
337240
327867
318589
309440
300422
291536
282781
274161
265674
257321
249102
241018
233069
225259
217590
210074
202728
195597
188773
346002
337240
327868
318589
309441
300422
291536
282782
274161
265675
257322
249104
241022
233076
225271
217612
210113
202795
195710
188944
346000
337240
327868
318590
309441
300423
291536
282782
274162
265675
257324
249106
241025
233082
225282
217632
210149
202857
195810
189093
345997
337239
327869
318591
309442
300423
291536
282782
274162
265676
257325
249108
241029
233088
225293
217651
210180
202911
195896
189219
345993
337239
327871
318593
309442
300423
291536
282782
274163
265677
257326
249110
241031
233093
225301
217666
210208
202957
195969
189324
345988
337239
327873
318594
309443
300423
291536
282783
274163
265677
257326
249111
241034
233097
225309
217680
210230
202994
196027
189408
345982
337239
327875
318596
309444
300423
291537
282783
274163
265678
257327
249112
241035
233100
225314
217690
210247
203023
196071
189470
345974
337240
327878
318598
309444
300424
291537
282783
274164
265678
257327
249113
241037
233103
225318
217696
210259
203042
196101
189512
345962
337238
327878
318598
309445
300424
291537
282783
274164
265678
257328
249113
241037
233104
225320
217700
210265
203051
196116
189532
178293
176252
174695
173348
172100
170912
169768
168655
167566
166498
165445
164405
163377
162358
161347
160344
159347
158355
157367
156384
155404
154429
153458
152492
151529
150571
149616
148664
147716
146771
145829
144891
143957
143028
142104
141185
140271
139361
138455
137553
136654
135758
134864
133973
133085
132199
131316
130437
129561
128689
127819
126952
126088
125226
124366
123509
122656
121806
120960
120116
119275
118436
117599
116764
115932
115102
114275
113451
112631
111814
110999
110187
109376
108568
107760
106955
106152
105352
104554
103761
102972
102188
101408
100633
99861.9
99094.4
98330.2
97569.3
96811.4
96056.6
95304.4
94554.7
93807.1
93061.5
92317.8
91576.3
90836.8
90099.9
89365.2
88633.5
87904.7
87179.7
86458.2
85741
85027.8
84319.4
83615.2
82915.9
82220.6
81529.9
80842.9
80160.4
79481.2
78805.8
78133.2
77463.5
76795.8
76130.7
75467.6
74807.5
74149.9
73495.6
72843.4
72194.3
71546.5
70901.7
70257.9
69617.4
68978
68341.5
67706.1
67072.9
66441
65810.9
65182.4
64556.1
63932
63310.4
62691.6
62076
61463.5
60854.5
60248.8
59646.5
59047.4
58451.5
57858.7
57269.1
56682.2
56098.1
55516.6
54937.7
54360.9
53786.3
53213.7
52643.4
52075.1
51510.1
50947.7
50388.6
49832.4
49280.4
48731.5
48187.7
47647.2
47112.4
46581
46056.1
45534.9
45021
44509.8
44007.2
43504.6
43012.5
42518
42035.5
41548.5
41075
40594.9
40128.8
39655.7
39195.9
38729.3
38272.6
37810.7
37353.2
36891.2
36429.6
35960.7
35488.5
35004.5
34512.1
34001.7
33475.9
32922.2
32342.4
31719.2
31040.5
30318.1
29437.2
179747
177572
175799
174272
172890
171599
170371
169188
168040
166921
165823
164745
163682
162633
161595
160567
159548
158536
157530
156531
155537
154549
153567
152589
151617
150649
149686
148728
147773
146822
145875
144933
143995
143062
142134
141211
140293
139380
138471
137565
136663
135765
134869
133976
133086
132199
131315
130434
129557
128683
127812
126945
126079
125217
124357
123500
122647
121796
120949
120105
119264
118425
117588
116753
115921
115091
114264
113440
112620
111802
110987
110174
109364
108555
107748
106944
106142
105343
104547
103755
102967
102185
101407
100633
99863.1
99096.9
98334.2
97574.6
96818.2
96064.6
95313.6
94564.9
93818.1
93073.2
92330.1
91589.1
90850
90113.4
89379.1
88647.8
87919.4
87194.8
86473.7
85756.8
85044.1
84335.7
83631.6
82932
82236.8
81545.9
80859.1
80176.4
79497.3
78821.6
78148.7
77478.3
76810.2
76144.5
75481.2
74821.2
74163.9
73510.1
72858.5
72209.9
71562.9
70918.6
70275.7
69635.2
68996.3
68359.5
67724.2
67090.6
66458.6
65828.3
65200.1
64574.2
63950.7
63330
62712.2
62097.8
61486.6
60878.9
60274.7
59673.8
59076.2
58481.6
57890.3
57301.7
56716
56132.7
55552.3
54974.1
54397.9
53823.4
53250.7
52680
52111.1
51545
50981.5
50420.8
49863.3
49309.6
48758.9
48212.8
47669.8
47131.5
46596.8
46067.6
45541.7
45022.7
44505.5
43996.4
43486.9
42986.7
42484.2
41992.3
41496.4
41011.7
40521.9
40042.4
39558.9
39083.2
38605.2
38130.8
37655.4
37179.2
36700.9
36219.2
35732
35237
34732
34212.5
33676.7
33116.4
32530.9
31899.7
31244
30469.7
29692.1
28825.2
180755
178598
176742
175107
173626
172250
170948
169702
168500
167332
166192
165076
163980
162901
161837
160785
159744
158713
157690
156675
155668
154667
153673
152685
151703
150727
149756
148790
147829
146872
145920
144973
144031
143094
142163
141236
140314
139397
138485
137576
136672
135770
134872
133977
133086
132197
131312
130430
129551
128676
127804
126936
126070
125207
124347
123490
122636
121786
120938
120094
119252
118413
117576
116741
115909
115080
114253
113429
112608
111791
110975
110163
109352
108544
107738
106934
106133
105335
104540
103750
102964
102183
101406
100634
99866.2
99101.6
98340.4
97582.3
96827.4
96075.2
95325.3
94577.6
93831.7
93087.5
92345.2
91604.7
90866.2
90130.1
89396.4
88665.7
87938.1
87214
86493.5
85777
85064.6
84356.1
83652.1
82952.3
82257
81565.9
80879.2
80196.2
79516.9
78840.6
78167.2
77496
76827.3
76161.1
75497.9
74838.2
74181.5
73528.1
72877.4
72229.3
71583.3
70939.3
70297.2
69656.8
69018.2
68380.9
67745.4
67111.2
66478.9
65848.4
65220.4
64594.9
63972
63352.2
62735.4
62122.3
61512.5
60906.4
60303.9
59704.8
59108.8
58515.7
57925.8
57338.4
56753.7
56171.4
55592
55014.5
54438.6
53864.2
53291.2
52719.6
52150.1
51582.6
51017.7
50455.3
49896.3
49340.8
48788.4
48239.9
47694.5
47152.8
46614.7
46081.5
45550.8
45026.4
44503.2
43986.9
43470.1
42961.1
42450.4
41948
41443.8
40946.8
40448.5
39954.9
39462
38970.5
38481.2
37989.9
37500.8
37006.6
36513.2
36010.9
35508.3
34990.1
34468.3
33920.9
33367.2
32769.7
32170
31484.4
30819.1
30001.3
29196.5
28369.1
181524
179423
177544
175849
174299
172855
171492
170191
168939
167727
166548
165397
164269
163162
162072
160997
159935
158886
157846
156816
155794
154781
153776
152778
151786
150802
149823
148850
147883
146921
145964
145013
144066
143126
142190
141260
140334
139414
138498
137587
136679
135776
134875
133978
133085
132195
131308
130425
129546
128669
127797
126927
126060
125197
124337
123479
122625
121774
120927
120082
119240
118401
117564
116730
115898
115069
114243
113419
112598
111780
110965
110152
109342
108534
107729
106926
106126
105329
104536
103747
102963
102183
101408
100638
99871.4
99108.4
98348.7
97592.3
96838.9
96088.1
95339.4
94592.6
93847.5
93104.1
92362.6
91622.7
90885
90149.5
89416.8
88686.8
87960.3
87236.7
86516.9
85800.6
85088.3
84379.7
83675.7
82975.6
82280.1
81588.7
80901.8
80218.3
79538.6
78861.5
78187.3
77515.2
76846
76179.4
75516.5
74857
74201.2
73548.3
72898.5
72250.9
71605.8
70962.2
70320.7
69680.5
69041.9
68404.1
67768.2
67133.2
66500.8
65870
65242.2
64616.9
63994.7
63375.6
62760.2
62148.1
61539.9
60935.3
60334.6
59737.1
59142.8
58551.2
57962.9
57376.5
56793.2
56211.9
55633.6
55056.3
54480.8
53906
53332.9
52760
52189.4
51620.2
51053.5
50489.5
49929.4
49371.8
48817.8
48266.8
47719.2
47174.3
46633.3
46095.7
45560.7
45030.5
44501.6
43977.4
43453.5
42934.6
42416.5
41903
41390.9
40881.6
40374.7
39867.9
39365
38859
38357.8
37850.4
37348.6
36836
36330.3
35806.6
35292.2
34748.8
34217.1
33638.2
33078.4
32440.2
31836.9
31111.5
30426
29622.9
28821.5
28027
182144
180100
178225
176501
174906
173412
171999
170650
169355
168103
166888
165705
164547
163413
162299
161202
160121
159053
157997
156952
155918
154892
153876
152868
151868
150875
149889
148910
147936
146969
146007
145051
144101
143156
142217
141283
140355
139431
138512
137598
136687
135781
134879
133980
133085
132194
131306
130421
129541
128663
127790
126919
126052
125188
124327
123470
122615
121764
120916
120071
119229
118390
117554
116720
115888
115060
114234
113410
112590
111772
110957
110144
109334
108526
107721
106919
106120
105325
104533
103746
102963
102186
101412
100643
99878.1
99116.7
98358.8
97604
96852.1
96102.6
95355.3
94609.4
93865.4
93122.8
92382
91642.8
90905.9
90171.3
89439.6
88710.5
87984.7
87261.7
86542.4
85826.1
85113.8
84405
83700.6
83000.2
82304.5
81612.8
80925.5
80241.4
79561.1
78883.2
78208.2
77535.3
76865.6
76198.7
75536
74876.6
74221.4
73569.1
72920
72272.9
71628.4
70985.2
70344.2
69704
69065.2
68426.9
67790.4
67155
66522.4
65891.6
65264
64639
64017.5
63398.9
62784.8
62173.7
61567
60963.7
60364.6
59768.5
59176
58585.8
57999
57414.1
56832.1
56251.9
55674.7
55097.2
54522.1
53946.7
53373.1
52798.8
52227.2
51655.8
51087.5
50521.5
49960.5
49400.3
48845.3
48291.5
47741.9
47194.1
46650.2
46108.4
45569.3
45033
44498.7
43966.1
43435.6
42906.8
42381.4
41857.6
41337.3
40817
40301.2
39782.1
39269.1
38749
38237.3
37713.2
37201.3
36669
36153.9
35608
35085.3
34516.2
33977.5
33370.2
32801.8
32138.2
31516.9
30789.3
30079.4
29314.3
28534.6
27761.2
182666
180671
178809
177073
175449
173919
172466
171078
169745
168458
167211
165997
164813
163654
162517
161399
160299
159214
158143
157084
156037
155001
153974
152956
151948
150947
149954
148968
147989
147016
146050
145090
144136
143187
142245
141307
140375
139449
138527
137610
136697
135788
134884
133983
133087
132194
131304
130419
129537
128659
127784
126913
126045
125181
124320
123462
122608
121756
120908
120063
119221
118382
117546
116712
115881
115052
114227
113404
112583
111766
110950
110138
109328
108520
107716
106914
106116
105322
104532
103746
102965
102189
101417
100649
99885.8
99126.1
98369.7
97616.6
96866.3
96118.4
95372.3
94627.6
93884.6
93143
92403
91664.6
90928.5
90194.7
89463.8
88735.4
88010.2
87287.6
86568.4
85852
85139.4
84430.2
83725.4
83024.6
82328.7
81636.5
80948.7
80264.2
79583.3
78904.7
78229
77555.4
76885.2
76217.9
75555
74895.5
74240.6
73588.4
72939.8
72293
71648.9
71006.1
70365.4
69725.2
69086.3
68447.4
67810.5
67174.8
66542
65911.2
65283.9
64659.2
64038
63420.1
62806.7
62196.5
61591.3
60989.5
60392.1
59797.2
59206.4
58617.2
58032.1
57448.3
56867.8
56288.6
55712.2
55134.3
54559.3
53983.1
53409.1
52833.3
52261.1
51687.4
51118.4
50550.4
49988
49425.4
48869.1
48312.7
47761.2
47210.2
46663.7
46117.7
45574.8
45032.1
44492.7
43951.7
43415
42877.1
42344.7
41810.9
41283.4
40752
40228.6
39697.2
39175.4
38641.3
38120.5
37581
37059.1
36510.5
35984.4
35422.1
34886.9
34302
33747.5
33127.1
32538.5
31871.9
31228.2
30518.3
29802.1
29065.3
28305.6
27544.2
183114
181160
179313
177574
175932
174375
172892
171472
170108
168790
167514
166274
165064
163882
162724
161588
160470
159369
158283
157212
156153
155105
154069
153042
152025
151017
150018
149026
148041
147064
146093
145129
144170
143218
142272
141332
140397
139467
138543
137623
136708
135797
134891
133989
133090
132196
131306
130419
129536
128657
127782
126910
126042
125177
124315
123457
122603
121751
120903
120058
119216
118376
117540
116706
115875
115047
114222
113399
112578
111761
110945
110133
109323
108516
107712
106911
106114
105321
104532
103747
102968
102193
101422
100656
99894
99135.8
98381
97629.5
96881
96134.6
95390
94646.5
93904.6
93163.8
92424.5
91686.7
90951.4
90218.2
89487.8
88759.7
88034.6
87312.2
86592.8
85876.1
85163.1
84453.6
83748.4
83047.3
82350.9
81658.2
80969.9
80285
79603.6
78924.6
78248.3
77574.2
76903.4
76235.5
75572.1
74912.1
74256.7
73604.1
72955.3
72308.5
71664.7
71022.3
70382.1
69742
69103.2
68464
67826.9
67190.9
66558
65927.1
65299.8
64675.3
64054.4
63436.9
62824
62215.2
61611.3
61011.2
60415.3
59822.1
59232.6
58644.3
58060.3
57477.3
56897.9
56319.4
55743.3
55165.1
54590.2
54013.3
53438.8
52861.8
52288.6
51712.8
51142.8
50573.8
50009.4
49445.1
48886.9
48328.1
47774.6
47220.8
46671.4
46121.6
45574.8
45026.8
44481.4
43933.6
43389.9
42844.6
42304.7
41762.9
41227.6
40687.4
40155.6
39614.8
39082.7
38539
38005.9
37457
36921
36363.1
35821.6
35251.4
34699.3
34108.6
33536.1
32912.9
32307.1
31646.2
30991.3
30299.2
29586.8
28864.3
28115.4
27360.9
183501
181581
179752
178013
176360
174785
173278
171833
170442
169099
167797
166533
165301
164098
162921
161767
160633
159517
158418
157334
156263
155206
154160
153125
152101
151086
150079
149082
148092
147110
146135
145166
144205
143249
142300
141357
140419
139487
138560
137638
136720
135808
134900
133996
133096
132201
131309
130421
129538
128658
127782
126909
126041
125175
124314
123455
122600
121748
120900
120054
119212
118373
117536
116702
115871
115043
114217
113394
112574
111756
110941
110128
109319
108512
107709
106909
106112
105320
104532
103749
102971
102197
101428
100663
99902.1
99145.3
98391.9
97641.8
96895
96150.1
95407.1
94664.8
93923.9
93183.7
92445
91707.6
90972.6
90239.6
89509.3
88781.1
88055.7
87333.2
86613.7
85896.7
85183.3
84473.5
83767.8
83066.3
82369.3
81676
80987.3
80302
79620.2
78940.7
78264.1
77589.6
76918.2
76249.7
75585.5
74924.7
74268.2
73614.6
72965.1
72318
71674.1
71031.9
70392
69752.3
69113.6
68474.5
67837.4
67201.4
66568.5
65937.5
65310
64685.6
64064.9
63448.1
62836
62228.4
61626.2
61027.9
60433.3
59842.1
59253.1
58666
58082.7
57500.1
56921.1
56343
55767.1
55187.9
54613.2
54035.7
53460.2
52882.6
52308.4
51731.4
51159.9
50589.7
50022.7
49457.6
48896.6
48335.9
47779.8
47224.1
46671.9
46119
45568.2
45016.5
44465.1
43912
43360.9
42809.5
42262.6
41714.1
41170.9
40624.7
40083.5
39536.4
38993.3
38443.1
37897.3
37341.7
36792.2
36228.1
35672.7
35098.5
34532.8
33939.4
33354
32731.9
32116.2
31463.8
30804
30124.1
29414.5
28696.9
27953.5
27204.4
183843
181949
180136
178400
176740
175151
173626
172160
170747
169382
168059
166773
165521
164300
163105
161935
160786
159656
158545
157449
156369
155302
154247
153204
152172
151151
150139
149136
148141
147154
146175
145203
144238
143280
142328
141381
140441
139506
138577
137653
136734
135819
134910
134004
133104
132207
131314
130426
129541
128660
127784
126911
126041
125176
124313
123454
122599
121747
120898
120052
119210
118370
117533
116699
115868
115039
114213
113390
112569
111751
110936
110124
109315
108509
107706
106907
106111
105320
104533
103751
102974
102201
101433
100669
99909.3
99153.7
98401.7
97652.9
96907.4
96164.1
95422.3
94681.2
93940.8
93201.2
92462.6
91725.3
90990.2
90257
89526.2
88797.6
88071.9
87349.1
86629.2
85911.9
85198.1
84487.8
83781.7
83079.5
82381.8
81688.1
80998.8
80313
79630.6
78950.9
78273.9
77599.1
76927.1
76258.1
75592.9
74931
74273.2
73618.4
72967.9
72319.9
71675.6
71033.5
70393.8
69754.6
69116.2
68477.6
67840.8
67205.1
66572.5
65941.4
65314.1
64689.8
64069.5
63453.6
62842.6
62236.1
61635.7
61038.8
60445.5
59856
59267.7
58681.4
58098.4
57516.2
56936.7
56358.9
55782.1
55202.6
54627.8
54049.3
53472.6
52895.4
52319.2
51742.4
51169.3
50599.6
50028.3
49463
48898.1
48336.5
47776.2
47220.9
46664.6
46111.1
45555.1
45001.6
44442.9
43886.2
43328.5
42772
42218.6
41665.8
41114.2
40566.2
40013.7
39463.7
38910.3
38355
37798.6
37238.1
36676.9
36109.3
35543.2
34967.2
34391.8
33798.7
33204.4
32585.7
31962.7
31318.3
30653.8
29979.4
29271.1
28554.5
27816.2
27072.2
184145
182272
180471
178739
177075
175476
173938
172455
171024
169640
168298
166994
165725
164487
163276
162091
160929
159787
158664
157558
156467
155391
154329
153279
152240
151212
150195
149187
148187
147197
146214
145238
144270
143309
142354
141405
140463
139526
138595
137669
136748
135832
134921
134014
133112
132214
131320
130431
129546
128664
127787
126913
126043
125177
124314
123454
122599
121746
120897
120050
119207
118367
117530
116695
115863
115034
114208
113384
112564
111746
110931
110119
109310
108505
107703
106905
106110
105320
104534
103752
102976
102203
101436
100673
99914.6
99160
98409.3
97661.8
96917.8
96175.7
95435
94694.4
93954.4
93214.7
92475.8
91738.1
91002.4
90268.6
89537.1
88807.8
88081.8
87358.7
86638.4
85920.7
85206.4
84495.4
83788.6
83085.5
82387
81692.5
81002.5
80316.2
79633.3
78953.1
78275.6
77600.4
76928
76258.5
75592.5
74929.7
74270.8
73614.8
72962.9
72313.9
71668.9
71026.4
70386.9
69748.3
69110.5
68473.1
67836.8
67201.9
66569.7
65939
65312.2
64688.5
64069.1
63454.2
62844.6
62239.3
61640.1
61044.5
60451.9
59863.1
59275.6
58689.8
58107
57524.2
56944.7
56367.1
55787.7
55210.3
54633.3
54054.7
53476.7
52900.2
52321.6
51745
51170.2
50602.7
50026.1
49462.4
48890.8
48331.7
47764.9
47211.6
46649.7
46097.7
45535.5
44982.4
44415.3
43856.6
43292.6
42733.5
42173.7
41620.2
41059.6
40512.7
39950
39397.9
38837.2
38277.9
37713.5
37150
36578.7
36008.7
35434.5
34858.7
34275.5
33685.4
33082.1
32467.6
31836.5
31196.6
30528
29854.3
29148.4
28433.7
27701.4
26962.8
184410
182554
180764
179035
177370
175764
174215
172719
171273
169873
168515
167196
165911
164658
163433
162235
161060
159907
158774
157658
156559
155475
154405
153348
152303
151270
150247
149235
148231
147236
146250
145272
144300
143336
142379
141428
140483
139545
138612
137684
136762
135844
134932
134024
133121
132222
131327
130436
129550
128668
127790
126915
126044
125177
124314
123454
122598
121745
120895
120048
119204
118363
117526
116691
115858
115029
114202
113379
112558
111740
110925
110114
109306
108501
107700
106903
106109
105319
104534
103753
102976
102205
101438
100675
99917.4
99163.6
98414
97667.6
96925
96183.7
95443.8
94703.2
93963
93222.8
92483.3
91744.5
91008
90273.4
89541.1
88811.1
88084.7
87361.2
86640.6
85922.3
85207.2
84495.4
83787.5
83083.5
82384.1
81688.9
80998.3
80311.1
79627.5
78946.7
78268.9
77593.4
76920.7
76250.7
75584.1
74920.5
74260.6
73603.5
72950.3
72300.2
71654.2
71011.3
70371.8
69733.4
69096.8
68460.7
67825.7
67192.1
66560.8
65931.2
65305.4
64682.6
64064.5
63450.7
62842.5
62238.4
61639.9
61045.1
60452.8
59863.7
59277.2
58690.4
58107.7
57524.4
56944.6
56366.6
55785.2
55209.9
54629.5
54052.8
53473.1
52896.7
52317.1
51741.1
51164.7
50597.3
50017.9
49455.5
48876.4
48320
47746.2
47195.3
46627.8
46079
45509.5
44957.8
44383.3
43824.7
43255.5
42695.4
42130.1
41576.4
41008.4
40463.8
39893.8
39340.5
38774.9
38210.3
37641.3
37076
36496.2
35928.5
35346.9
34773
34179.1
33592.3
32979.6
32367.2
31729
31089.6
30419.5
29746.1
29043.9
28333.2
27607.7
26874.8
184642
182800
181018
179294
177628
176017
174459
172953
171495
170081
168710
167377
166079
164813
163576
162366
161181
160017
158874
157750
156643
155551
154475
153412
152362
151323
150296
149279
148272
147273
146284
145302
144329
143362
142402
141450
140503
139562
138628
137699
136775
135856
134942
134033
133129
132229
131333
130442
129554
128671
127792
126917
126046
125178
124314
123453
122596
121742
120892
120045
119200
118359
117521
116685
115853
115023
114197
113373
112552
111734
110920
110109
109301
108497
107697
106901
106108
105319
104534
103753
102977
102205
101438
100675
99917.4
99164
98415.1
97669.6
96927.5
96186.5
95446.8
94705.8
93965.4
93224.5
92484.2
91744.1
91006.8
90271.1
89538.1
88807.3
88080.6
87356.6
86635.6
85916.5
85200.8
84487.8
83779.1
83074.2
82374.2
81678.2
80987
80299.1
79614.8
78933.1
78255.2
77579.2
76906.4
76235.9
75568.9
74904.3
74243.6
73585.4
72931.1
72280
71633.3
70990
70350.5
69712.5
69077
68442
67809
67176.9
66547.3
65919.2
65294.6
64672.6
64055.7
63442.5
62835.5
62232.2
61634.7
61040.5
60448.8
59858.6
59273.2
58684.6
58101.4
57516.4
56937.1
56357
55775.1
55200.4
54618.7
54043.6
53462.6
52886.4
52306.5
51729.9
51154.3
50586.1
50006.1
49440.7
48859.1
48302.4
47723.9
47172.8
46601.5
46054.5
45480.9
44929.4
44349.7
43790.3
43218.4
42657.5
42088.5
41532.1
40963.5
40417
39843.3
39292.2
38719.7
38152.9
37579.3
37012.2
36430.3
35862.9
35273.7
34700.9
34099
33510.3
32891.5
32277
31635.3
30995.8
30326
29655
28957.5
28252.2
27533.9
26806.8
184844
183012
181239
179518
177851
176236
174672
173157
171689
170265
168882
167538
166228
164951
163704
162484
161289
160116
158965
157833
156718
155621
154538
153470
152414
151371
150340
149319
148308
147307
146315
145331
144355
143386
142424
141469
140521
139579
138643
137712
136787
135867
134952
134042
133136
132235
131339
130446
129558
128674
127794
126918
126046
125177
124313
123451
122594
121740
120889
120041
119196
118354
117516
116680
115847
115018
114191
113367
112546
111729
110915
110104
109298
108495
107695
106900
106108
105319
104534
103753
102976
102204
101436
100673
99914.3
99160.8
98411.9
97666.7
96924.4
96183.1
95442.8
94701.1
93960.4
93218.5
92477.4
91736.4
90998.7
90262
89528.4
88796.9
88070.1
87345.3
86624.1
85904.2
85188
84473.9
83764.8
83059
82358.6
81662
80970.3
80281.5
79596.7
78914.3
78236.1
77559.6
76886.9
76215.9
75548.6
74883.2
74221.9
73562.5
72907.8
72255.8
71608.9
70965.1
70325.7
69688
69053.4
68419.6
67788.6
67158.1
66530.5
65903.5
65280.3
64659
64043.2
63430.3
62823.9
62221.3
61624.4
61030.4
60439.6
59848.7
59263.4
58672.6
58088
57500.9
56920.9
56338.3
55759.1
55182.1
54602.3
54025.8
53444.8
52869.4
52290.6
51712.3
51139.8
50568.3
49989.6
49421.7
48838.7
48278
47698.6
47142.4
46572.2
46023.9
45447.9
44899.7
44315.8
43756.1
43180.5
42617.1
42046.7
41488.3
40920
40372
39799.3
39250.4
38672.9
38105.7
37528
36957.6
36376.1
35801.9
35214.6
34636.5
34029.3
33436.4
32814.8
32197
31555.8
30916.2
30248.2
29581.6
28888.9
28189.4
27477.9
26756.6
185017
183195
181427
179709
178041
176424
174855
173333
171857
170425
169033
167679
166360
165073
163817
162588
161384
160204
159045
157906
156786
155682
154594
153521
152461
151415
150379
149355
148342
147338
146343
145356
144378
143407
142444
141487
140538
139594
138656
137725
136798
135877
134961
134049
133143
132241
131343
130450
129560
128675
127795
126918
126045
125176
124310
123449
122590
121736
120884
120036
119191
118349
117510
116675
115842
115012
114185
113362
112541
111724
110910
110100
109294
108492
107693
106898
106107
105318
104533
103751
102974
102200
101432
100667
99908.2
99154.2
98404.6
97658.7
96915.4
96173.4
95432.1
94689.9
93948.5
93205.9
92463.9
91722.4
90984.2
90246.8
89512.9
88781.1
88054.3
87328.9
86607.5
85887
85170.6
84455.9
83746.7
83040.2
82339.5
81642.2
80950
80260.5
79575.1
78892.2
78213.8
77537.3
76864.8
76193.4
75525.8
74859.5
74197.6
73537.3
72882.3
72229.7
71582.9
70938.9
70299.9
69662.6
69028.7
68396.1
67766.6
67137.8
66511.6
65885.8
65263.6
64642.9
64027.5
63415
62809
62206.7
61610.7
61016.5
60426.1
59834.4
59247.9
58655.6
58068.7
57479.7
56898.6
56312.3
55736.9
55158.4
54580.5
54001.5
53423.3
52846.3
52270.5
51689.1
51122
50544.5
49970.4
49400.8
48818.6
48248.4
47671.2
47110.1
46539.4
45989.2
45414.7
44859.2
44280.8
43720.6
43142
42574.2
42006.5
41444.7
40882.1
40332.7
39758.6
39210.8
38633
38064
37485.6
36911.1
36331.2
35748.5
35162.3
34573.5
33969.5
33369.6
32749.7
32128
31490.9
30851.2
30186.6
29524.3
28836.2
28142.9
27437
26721.2
185164
183349
181585
179869
178201
176582
175009
173482
172000
170561
169161
167799
166472
165178
163913
162677
161466
160279
159114
157970
156844
155735
154643
153566
152502
151452
150414
149387
148371
147364
146367
145379
144398
143426
142461
141503
140552
139607
138668
137735
136807
135885
134968
134055
133148
132245
131346
130452
129562
128676
127794
126917
126043
125173
124307
123445
122587
121731
120880
120031
119186
118344
117505
116669
115837
115007
114180
113356
112536
111719
110906
110096
109291
108489
107691
106896
106104
105316
104530
103748
102969
102195
101425
100660
99899.6
99144.5
98393.6
97646.6
96901.7
96158.5
95416.2
94673.8
93931.7
93188.3
92445.5
91703.9
90965.1
90227.4
89493
88761.8
88034.8
87309.4
86587.8
85867.3
85150.5
84436.1
83726.5
83019.8
82318.8
81620.8
80927.9
80237.7
79551.8
78869
78190.4
77514.2
76841.5
76170.6
75502.5
74835.9
74172.9
73512.3
72856.7
72203.9
71557.3
70913.6
70275.1
69638.2
69004.9
68373
67744.5
67116.9
66491.3
65866.9
65245.3
64625.3
64010.2
63398.4
62792.8
62190.9
61594.9
60999.5
60408.8
59815.8
59227.3
58633.5
58045.8
57456.6
56871.8
56285.7
55710.6
55129.1
54555.2
53973.7
53397.3
52820.1
52249
51666.9
51100.5
50518.6
49951.9
49371.3
48791
48216.1
47646.5
47082.4
46511.2
45952.7
45378.7
44815
44244.6
43678.3
43103.6
42533.3
41971.3
41406.1
40846.4
40290.3
39723.9
39169.8
38596.1
38025
37450.4
36871.9
36288.5
35701.1
35115.3
34518.1
33916.8
33311.5
32698.7
32073.5
31441.6
30800.7
30140.9
29480.1
28797.9
28109.6
27407.9
26697.5
185287
183477
181715
180000
178332
176711
175135
173605
172118
170673
169268
167899
166566
165265
163994
162752
161535
160343
159173
158023
156893
155780
154684
153604
152537
151484
150443
149414
148395
147387
146388
145397
144416
143442
142475
141516
140564
139617
138677
137743
136815
135891
134973
134060
133151
132247
131348
130453
129562
128675
127793
126915
126041
125170
124304
123441
122583
121727
120875
120027
119182
118339
117500
116664
115832
115002
114175
113351
112531
111714
110901
110092
109286
108485
107687
106892
106100
105311
104525
103742
102963
102188
101417
100651
99889.3
99132.9
98380
97631.6
96884.9
96140.4
95396.7
94653.9
93910.9
93167.4
92424.2
91682.8
90943.3
90205.8
89471.6
88741.3
88013.9
87289.1
86567.2
85847.4
85130.4
84416.4
83705.8
82999.4
82297.5
81599.4
80905.3
80215.1
79528.4
78845.9
78167
77491.9
76819.2
76149.4
75480.8
74814.5
74150.5
73490.1
72833.6
72181.2
71534.4
70891.7
70252.9
69616.9
68983.1
68352.1
67723.7
67096.7
66471.2
65847.9
65226.1
64607.2
63992
63381
62775.2
62173.5
61576.2
60979.8
60387.2
59793.1
59202.1
58608.2
58019
57430.1
56846.9
56261.4
55682
55101
54526.7
53944.7
53372.5
52793.9
52223.5
51643.1
51077.5
50493.6
49924
49335.9
48766
48187.4
47621.5
47053.5
46480.6
45911.3
45342.1
44775.9
44208.3
43634.3
43068.6
42498.4
41937.9
41372
40816.4
40252.3
39694.6
39127.5
38563.2
37989.9
37417.6
36834.4
36252
35662.2
35070.7
34472.7
33875.4
33268.6
32659.3
32035.8
31406.3
30765.1
30109.9
29447.8
28771.6
28086.1
27388
26682.9
185384
183578
181818
180103
178435
176812
175235
173702
172212
170763
169353
167980
166641
165335
164059
162812
161591
160394
159219
158066
156932
155817
154718
153634
152565
151510
150467
149435
148415
147405
146404
145412
144429
143454
142487
141526
140573
139626
138685
137749
136820
135896
134977
134063
133154
132249
131349
130453
129561
128674
127791
126913
126038
125168
124301
123438
122579
121724
120872
120023
119177
118335
117496
116660
115827
114997
114170
113347
112526
111710
110897
110087
109282
108480
107682
106887
106094
105305
104518
103734
102955
102179
101408
100641
99878.1
99120.4
98366
97615.9
96867.3
96121.5
95376.4
94632.8
93888.6
93145.5
92402.2
91661.4
90921.5
90185.1
89450.9
88721.4
87993.8
87269.8
86547.6
85828.3
85110.9
84397.5
83686.5
82980.5
82277.7
81579.7
80884.8
80194.7
79507.4
78825.4
78146
77471.7
76799.3
76130.7
75462
74796.5
74131.9
73471.9
72814.8
72162.9
71515.9
70873.8
70234.4
69599
68964.6
68334.4
67705.1
67078.5
66452.7
65830
65207.7
64589.7
63974.3
63364
62757
62154.9
61555.2
60958
60362.6
59768
59174.6
58582.4
57992.1
57406.5
56820.8
56236
55655.6
55075.1
54496.6
53918.8
53346.3
52766.3
52196.6
51618.3
51049.6
50464.2
49893.9
49310.5
48743.5
48156.4
47594.3
47016.7
46446.8
45879.4
45311.7
44738.7
44172.7
43597.2
43036.4
42464.7
41909.5
41344.9
40789.3
40219
39664.7
39090.4
38531.7
37956.6
37389.7
36802.3
36221.9
35628.5
35037.9
34442.4
33843.1
33239.8
32631.3
32012.6
31380.8
30742.3
30088.6
29426.7
28753.8
28069.7
27375.3
26673.9
185457
183654
181894
180179
178511
176888
175309
173775
172282
170830
169417
168040
166697
165388
164108
162857
161632
160432
159255
158099
156962
155844
154743
153657
152586
151529
150484
149451
148429
147418
146416
145423
144439
143463
142495
141533
140579
139631
138690
137754
136824
135899
134979
134065
133155
132250
131349
130453
129561
128674
127790
126911
126037
125166
124299
123436
122576
121721
120869
120020
119174
118332
117492
116656
115823
114993
114166
113342
112522
111705
110892
110083
109277
108474
107676
106880
106088
105298
104510
103727
102947
102171
101399
100632
99868.1
99109.2
98353.1
97601.4
96851.1
96104.5
95357.9
94614.1
93868.8
93126.4
92382.8
91642.9
90902.7
90167.6
89433
88704.4
87976.2
87253.3
86530.3
85812.3
85094.3
84381.9
83670.4
82965.1
82261.7
81564.4
80868.7
80179.1
79491
78809.6
78130
77456.4
76783.7
76116.1
75447.7
74783.6
74119.2
73460.4
72802.5
72151.4
71503
70861
70220.6
69585.6