/*--------------------------------*- C++ -*----------------------------------*\
| =========                 |                                                 |
| \\      /  F ield         | OpenFOAM: The Open Source CFD Toolbox           |
|  \\    /   O peration     | Version:  2.4.0                                 |
|   \\  /    A nd           | Web:      www.OpenFOAM.org                      |
|    \\/     M anipulation  |                                                 |
\*---------------------------------------------------------------------------*/
FoamFile
{
    version     2.0;
    format      ascii;
    class       volVectorField;
    location    "64";
    object      U;
}
// * * * * * * * * * * * * * * * * * * * * * * * * * * * * * * * * * * * * * //

dimensions      [0 1 -1 0 0 0 0];

internalField   nonuniform List<vector> 
4400
(
(0.0883225 0.000831509 0)
(0.106639 -0.00222854 0)
(0.108678 0.000642432 0)
(0.0867855 0.00261739 0)
(0.0946525 -0.00223553 0)
(0.10218 -0.000100905 0)
(0.0950633 0.00151468 0)
(0.100073 -0.00173535 0)
(0.102778 0.000742977 0)
(0.0970457 0.000710112 0)
(0.10592 -0.00151083 0)
(0.0969714 0.00159812 0)
(0.0970856 -9.74812e-05 0)
(0.102491 -0.00158527 0)
(0.103805 0.00150339 0)
(0.100347 -0.000992299 0)
(0.110495 -0.000556661 0)
(0.101336 0.000869412 0)
(0.119604 1.39796e-05 0)
(0.0913449 -0.00336597 0)
(0.26901 0.00270134 0)
(0.294451 -0.00763276 0)
(0.279239 0.00246899 0)
(0.268018 0.00791876 0)
(0.278815 -0.00754119 0)
(0.274001 0.000118546 0)
(0.279776 0.00411889 0)
(0.282376 -0.00545852 0)
(0.279431 0.00237381 0)
(0.280407 0.00154382 0)
(0.288787 -0.00455394 0)
(0.268314 0.00501971 0)
(0.289734 -0.000857219 0)
(0.276827 -0.00487357 0)
(0.288799 0.0047727 0)
(0.286165 -0.0038031 0)
(0.291978 -0.000717528 0)
(0.289201 0.0013584 0)
(0.300978 -0.00258166 0)
(0.307021 -0.00205143 0)
(0.431329 0.00420817 0)
(0.462316 -0.0131881 0)
(0.424501 0.00566228 0)
(0.438714 0.0122575 0)
(0.446565 -0.0129107 0)
(0.425172 0.0013278 0)
(0.449905 0.00546748 0)
(0.44671 -0.00907709 0)
(0.435613 0.00455581 0)
(0.449963 0.001403 0)
(0.452076 -0.00678596 0)
(0.422678 0.00839294 0)
(0.464068 -0.0027433 0)
(0.434029 -0.00713181 0)
(0.446469 0.00725326 0)
(0.464395 -0.00624159 0)
(0.437382 -0.00144663 0)
(0.470848 0.00368431 0)
(0.447294 -0.00977972 0)
(0.4879 0.00250077 0)
(0.568845 0.00469582 0)
(0.622769 -0.0168214 0)
(0.545089 0.00925841 0)
(0.58371 0.0146762 0)
(0.599988 -0.016401 0)
(0.554827 0.00274979 0)
(0.596607 0.00594804 0)
(0.598688 -0.011279 0)
(0.565716 0.0064287 0)
(0.602219 0.000841038 0)
(0.598866 -0.00764586 0)
(0.557513 0.0114787 0)
(0.616062 -0.00487877 0)
(0.579851 -0.00745667 0)
(0.573194 0.00787303 0)
(0.626886 -0.00757687 0)
(0.562592 -0.00192334 0)
(0.620316 0.00461145 0)
(0.588471 -0.0136473 0)
(0.627281 0.0035601 0)
(0.673301 0.00288439 0)
(0.770909 -0.0195508 0)
(0.659713 0.0165895 0)
(0.691356 0.0130637 0)
(0.729744 -0.01991 0)
(0.667844 0.00611831 0)
(0.705621 0.00333054 0)
(0.732821 -0.0121748 0)
(0.674141 0.00940672 0)
(0.719808 -0.0024818 0)
(0.728007 -0.00702663 0)
(0.66986 0.0149681 0)
(0.735656 -0.00937406 0)
(0.712058 -0.00487393 0)
(0.676275 0.00779181 0)
(0.755356 -0.010497 0)
(0.678224 0.000169083 0)
(0.733258 0.00328394 0)
(0.708776 -0.0160372 0)
(0.740752 0.00310762 0)
(0.755762 0.000688642 0)
(0.880567 -0.0260003 0)
(0.773239 0.0281004 0)
(0.778737 0.011199 0)
(0.827902 -0.0258181 0)
(0.769119 0.0120171 0)
(0.784792 -0.00129838 0)
(0.833525 -0.0147957 0)
(0.769746 0.0146844 0)
(0.803999 -0.00791008 0)
(0.829559 -0.00712372 0)
(0.764829 0.02015 0)
(0.821601 -0.016445 0)
(0.817192 -0.00199034 0)
(0.765348 0.0091442 0)
(0.848217 -0.0154589 0)
(0.777877 0.00371121 0)
(0.821567 0.00155083 0)
(0.803545 -0.0175464 0)
(0.829126 0.00145064 0)
(0.830065 0.000116735 0)
(0.950204 -0.035745 0)
(0.866951 0.0402922 0)
(0.857064 0.0117142 0)
(0.902128 -0.0327354 0)
(0.856015 0.0194941 0)
(0.85281 -0.00497271 0)
(0.904569 -0.0190697 0)
(0.850832 0.021076 0)
(0.86949 -0.0133219 0)
(0.904215 -0.00837184 0)
(0.844103 0.0265028 0)
(0.887446 -0.0237403 0)
(0.893718 8.64629e-05 0)
(0.841595 0.0118394 0)
(0.914134 -0.0214422 0)
(0.857729 0.00780335 0)
(0.889997 -0.000308499 0)
(0.878273 -0.0184528 0)
(0.896222 -0.000100849 0)
(0.896185 0.000765995 0)
(0.991601 -0.0456482 0)
(0.93386 0.051076 0)
(0.921628 0.0133587 0)
(0.954609 -0.0393838 0)
(0.923135 0.0268453 0)
(0.912049 -0.00692865 0)
(0.954404 -0.0234196 0)
(0.914876 0.0273898 0)
(0.922041 -0.0177375 0)
(0.956262 -0.0101307 0)
(0.906532 0.0326873 0)
(0.938928 -0.0298892 0)
(0.946368 0.00141648 0)
(0.904442 0.0150391 0)
(0.959038 -0.0272157 0)
(0.917904 0.0117166 0)
(0.940145 -0.00210389 0)
(0.933429 -0.019115 0)
(0.944427 -0.000841187 0)
(0.949619 0.00173777 0)
(1.01087 -0.053496 0)
(0.975581 0.0595225 0)
(0.968278 0.0149382 0)
(0.984663 -0.0446265 0)
(0.968128 0.0327974 0)
(0.956515 -0.00773331 0)
(0.984647 -0.0268976 0)
(0.960042 0.0325592 0)
(0.960454 -0.0209025 0)
(0.987335 -0.0115837 0)
(0.951052 0.0375378 0)
(0.974773 -0.0341815 0)
(0.97717 0.00218591 0)
(0.951871 0.0178158 0)
(0.985206 -0.0316776 0)
(0.958491 0.0149029 0)
(0.973514 -0.00343576 0)
(0.968269 -0.0196365 0)
(0.974708 -0.00074949 0)
(0.986749 0.00235733 0)
(1.00986 -0.057824 0)
(0.994459 0.0648125 0)
(0.99555 0.0161797 0)
(0.993263 -0.0472739 0)
(0.991836 0.0363903 0)
(0.982685 -0.0076879 0)
(0.995379 -0.0288829 0)
(0.985467 0.035697 0)
(0.982606 -0.0226544 0)
(0.998094 -0.0121005 0)
(0.977252 0.0400793 0)
(0.993198 -0.0360981 0)
(0.987305 0.00251806 0)
(0.98187 0.0194863 0)
(0.993253 -0.0339423 0)
(0.97914 0.0167949 0)
(0.990814 -0.00409428 0)
(0.982247 -0.0198477 0)
(0.988239 -0.000137987 0)
(1.00501 0.00220934 0)
(0.988901 -0.0576917 0)
(0.992309 0.0662817 0)
(1.00272 0.0169518 0)
(0.981723 -0.0466576 0)
(0.995649 0.0369777 0)
(0.989567 -0.00699216 0)
(0.987125 -0.0289486 0)
(0.991152 0.0362526 0)
(0.987114 -0.0228712 0)
(0.988827 -0.0113165 0)
(0.985232 0.0397637 0)
(0.992849 -0.035401 0)
(0.977954 0.00253832 0)
(0.993352 0.0195916 0)
(0.982933 -0.0335069 0)
(0.98015 0.0170145 0)
(0.991407 -0.00409 0)
(0.975238 -0.0193831 0)
(0.985738 0.000523774 0)
(1.00226 0.00128239 0)
(0.947745 -0.0530625 0)
(0.970634 0.0634991 0)
(0.989108 0.0171326 0)
(0.951408 -0.0431673 0)
(0.980548 0.0342985 0)
(0.976876 -0.00596123 0)
(0.960152 -0.0270564 0)
(0.977377 0.034028 0)
(0.972784 -0.0215678 0)
(0.959416 -0.00949959 0)
(0.975395 0.0366867 0)
(0.972033 -0.0321848 0)
(0.950597 0.00223418 0)
(0.985418 0.0180138 0)
(0.953578 -0.030424 0)
(0.962801 0.0154574 0)
(0.973447 -0.00359463 0)
(0.948443 -0.0181259 0)
(0.967077 0.000631906 0)
(0.976119 4.52798e-05 0)
(0.886106 -0.044946 0)
(0.93139 0.0566996 0)
(0.953942 0.0165134 0)
(0.903935 -0.0377896 0)
(0.947515 0.0287219 0)
(0.944192 -0.00464386 0)
(0.914164 -0.0235467 0)
(0.944897 0.0293598 0)
(0.937631 -0.0187623 0)
(0.910566 -0.00730316 0)
(0.948178 0.0313619 0)
(0.928853 -0.0269077 0)
(0.907994 0.00134081 0)
(0.95643 0.0152394 0)
(0.905407 -0.0254685 0)
(0.928704 0.0123832 0)
(0.935107 -0.00271005 0)
(0.904653 -0.0163457 0)
(0.931512 -5.66986e-05 0)
(0.92318 -0.000836438 0)
(0.805016 -0.0347158 0)
(0.878605 0.0465378 0)
(0.897108 0.0153321 0)
(0.841444 -0.031426 0)
(0.898004 0.0211962 0)
(0.889994 -0.00279322 0)
(0.849338 -0.0191483 0)
(0.895551 0.0229603 0)
(0.879059 -0.0145496 0)
(0.846109 -0.00535022 0)
(0.903127 0.0246784 0)
(0.862925 -0.0203021 0)
(0.853763 -0.000525376 0)
(0.904295 0.0121975 0)
(0.840866 -0.0197805 0)
(0.878611 0.0083345 0)
(0.876496 -0.00147345 0)
(0.846526 -0.0143972 0)
(0.877899 -0.00123885 0)
(0.838874 -0.000355586 0)
(0.711228 -0.0247727 0)
(0.817962 0.0332986 0)
(0.818178 0.0143482 0)
(0.766054 -0.0253318 0)
(0.831494 0.0130621 0)
(0.810895 4.76015e-05 0)
(0.768744 -0.0151274 0)
(0.829995 0.0158093 0)
(0.795426 -0.00925669 0)
(0.771929 -0.00459316 0)
(0.836235 0.0181817 0)
(0.776637 -0.0133607 0)
(0.788747 -0.00325314 0)
(0.827501 0.00982235 0)
(0.763166 -0.0144981 0)
(0.810831 0.00406678 0)
(0.798367 -3.13555e-05 0)
(0.7732 -0.0124895 0)
(0.803681 -0.00231165 0)
(0.7225 0.00187284 0)
(0.619255 -0.0184797 0)
(0.741482 0.0193782 0)
(0.712309 0.0145567 0)
(0.677479 -0.0206047 0)
(0.739326 0.00635478 0)
(0.704784 0.00366912 0)
(0.676614 -0.012876 0)
(0.739982 0.00968708 0)
(0.687201 -0.0037976 0)
(0.68739 -0.0054511 0)
(0.738525 0.0136271 0)
(0.674952 -0.00752559 0)
(0.706591 -0.00618064 0)
(0.724143 0.00850466 0)
(0.671669 -0.0104334 0)
(0.718775 0.00057823 0)
(0.697963 0.00153447 0)
(0.679752 -0.0105683 0)
(0.70464 -0.00278987 0)
(0.586283 0.00379822 0)
(0.527924 -0.0158894 0)
(0.621152 0.0104677 0)
(0.581614 0.0153525 0)
(0.570601 -0.0169166 0)
(0.611108 0.00300241 0)
(0.577821 0.00615688 0)
(0.567814 -0.0116171 0)
(0.612439 0.00661738 0)
(0.56102 0.0001711 0)
(0.581134 -0.00659219 0)
(0.606573 0.0110918 0)
(0.562142 -0.00412569 0)
(0.593851 -0.00770105 0)
(0.593383 0.00801487 0)
(0.560521 -0.00755258 0)
(0.595061 -0.00115883 0)
(0.573689 0.00287659 0)
(0.56286 -0.00863626 0)
(0.578799 -0.00254823 0)
(0.441358 0.00351051 0)
(0.409256 -0.0124639 0)
(0.4576 0.00650261 0)
(0.440831 0.0131632 0)
(0.43681 -0.0125772 0)
(0.454129 0.00182489 0)
(0.4371 0.0058746 0)
(0.432064 -0.00916913 0)
(0.454944 0.00502647 0)
(0.424483 0.00130282 0)
(0.44277 -0.00612728 0)
(0.451821 0.0085504 0)
(0.432306 -0.00251935 0)
(0.445479 -0.0064964 0)
(0.443294 0.00672977 0)
(0.425725 -0.00528219 0)
(0.443908 -0.00143256 0)
(0.430057 0.0030134 0)
(0.422863 -0.00644177 0)
(0.429075 -0.0017949 0)
(0.281421 0.00230141 0)
(0.257946 -0.00722513 0)
(0.276338 0.00281296 0)
(0.286471 0.00859643 0)
(0.278591 -0.00727693 0)
(0.281544 0.000206622 0)
(0.280192 0.00430472 0)
(0.272658 -0.00561174 0)
(0.282219 0.00275679 0)
(0.27229 0.00130338 0)
(0.277016 -0.00427666 0)
(0.283385 0.0050805 0)
(0.278742 -0.00092203 0)
(0.275563 -0.00429191 0)
(0.278968 0.00415544 0)
(0.269081 -0.00287028 0)
(0.274581 -0.00140078 0)
(0.269367 0.00238389 0)
(0.263194 -0.0037542 0)
(0.261656 -0.000986315 0)
(0.102698 0.000783903 0)
(0.0880065 -0.00211303 0)
(0.0853758 0.000515233 0)
(0.108245 0.00276186 0)
(0.102677 -0.00227973 0)
(0.094797 -0.000242528 0)
(0.103446 0.00154398 0)
(0.0968609 -0.00181949 0)
(0.0964654 0.000792066 0)
(0.0996218 0.000545034 0)
(0.0941966 -0.00145606 0)
(0.0988961 0.0015735 0)
(0.103518 -0.000168877 0)
(0.093935 -0.00146466 0)
(0.0975476 0.0013307 0)
(0.0957521 -0.000873638 0)
(0.0919796 -0.000588187 0)
(0.0933484 0.000951322 0)
(0.0901559 -0.00114389 0)
(0.0846934 -0.000200205 0)
(0.157542 -0.0106518 0)
(0.225968 0.000508763 0)
(0.012174 -0.000121356 0)
(0.435105 -0.0352999 0)
(0.0105287 0.00241374 0)
(0.282475 -0.0111666 0)
(0.371525 0.0132269 0)
(0.180434 0.00725318 0)
(0.513827 -0.0254813 0)
(0.371518 -0.00851257 0)
(0.452906 -0.0299769 0)
(0.583947 -0.0669986 0)
(0.680231 -0.132914 0)
(0.5137 -0.0525673 0)
(0.638083 -0.0503609 0)
(0.72558 -0.0784858 0)
(0.677764 -0.0584247 0)
(0.85284 -0.126426 0)
(0.939049 -0.20657 0)
(0.907556 -0.197268 0)
(0.870686 -0.172708 0)
(0.876521 -0.217733 0)
(0.649599 -0.217199 0)
(0.485227 -0.0871381 0)
(0.350758 -0.142107 0)
(0.292663 -0.318545 0)
(0.37963 -0.242916 0)
(0.555628 -0.0564014 0)
(0.485892 0.0280148 0)
(0.537263 0.151748 0)
(0.692934 0.34536 0)
(0.7287 0.387724 0)
(0.690032 0.332936 0)
(0.627138 0.294309 0)
(0.56321 0.174806 0)
(0.533399 -0.0115026 0)
(0.527974 -0.100486 0)
(0.484119 -0.174084 0)
(0.426639 -0.28161 0)
(0.429681 -0.290367 0)
(0.434977 -0.196974 0)
(0.499167 0.000252694 0)
(0.543341 0.19353 0)
(0.542131 0.228839 0)
(0.50434 0.210924 0)
(0.452211 0.206556 0)
(0.498322 0.148423 0)
(0.492393 0.0803357 0)
(0.530159 -0.0451777 0)
(0.585306 -0.188072 0)
(0.574645 -0.236148 0)
(0.525389 -0.174085 0)
(0.489077 -0.0415623 0)
(0.503133 0.0711447 0)
(0.526356 0.111461 0)
(0.514775 0.0929192 0)
(0.522615 0.0106247 0)
(0.539318 -0.0847415 0)
(0.531144 -0.131705 0)
(0.508101 -0.115251 0)
(0.512849 -0.0320517 0)
(0.536323 0.0646531 0)
(0.540402 0.106836 0)
(0.523624 0.0952598 0)
(0.499347 0.064546 0)
(0.484364 0.030179 0)
(0.483881 -0.00224268 0)
(0.488132 -0.023319 0)
(0.488911 -0.0287693 0)
(0.484704 -0.0234015 0)
(0.476573 -0.0148448 0)
(0.466148 -0.00791919 0)
(0.455142 -0.0038496 0)
(0.444879 -0.00197023 0)
(0.436099 -0.00127231 0)
(0.429064 -0.00104833 0)
(0.423727 -0.000945062 0)
(0.419868 -0.000834743 0)
(0.417201 -0.000696022 0)
(0.415433 -0.000544397 0)
(0.414308 -0.000400393 0)
(0.41362 -0.000278033 0)
(0.413214 -0.000182976 0)
(0.412984 -0.000114531 0)
(0.412857 -6.83817e-05 0)
(0.41279 -3.90349e-05 0)
(0.412756 -2.13656e-05 0)
(0.412739 -1.12268e-05 0)
(0.412731 -5.67135e-06 0)
(0.412727 -2.77065e-06 0)
(0.412725 -1.29783e-06 0)
(0.412724 -5.92967e-07 0)
(0.412724 -2.63945e-07 0)
(0.412724 -1.06428e-07 0)
(0.412724 -4.95563e-08 0)
(0.412724 -1.76957e-08 0)
(0.412724 -4.87321e-09 0)
(0.412724 -5.94573e-09 0)
(0.412724 1.89864e-09 0)
(0.412724 -1.31373e-09 0)
(0.28322 -0.0195651 0)
(0.415533 0.00937371 0)
(0.151702 -0.0101743 0)
(0.555763 -0.0444787 0)
(0.245375 0.0138643 0)
(0.352998 -0.029872 0)
(0.484377 0.00786063 0)
(0.299905 0.00187632 0)
(0.592289 -0.0467702 0)
(0.528413 -0.0170873 0)
(0.560999 -0.0362375 0)
(0.676441 -0.087479 0)
(0.758991 -0.137405 0)
(0.619031 -0.0456165 0)
(0.726236 -0.061586 0)
(0.799245 -0.0980132 0)
(0.762789 -0.067555 0)
(0.92521 -0.131977 0)
(0.97891 -0.216588 0)
(0.922276 -0.195338 0)
(0.874986 -0.160138 0)
(0.854292 -0.197673 0)
(0.612639 -0.183019 0)
(0.447479 -0.0567443 0)
(0.31683 -0.134898 0)
(0.243021 -0.321295 0)
(0.326795 -0.25558 0)
(0.493755 -0.0686833 0)
(0.445313 0.0263088 0)
(0.479765 0.140655 0)
(0.636276 0.33021 0)
(0.687445 0.381535 0)
(0.676005 0.336254 0)
(0.63388 0.304315 0)
(0.573456 0.185201 0)
(0.544859 -0.00666836 0)
(0.54017 -0.096683 0)
(0.493153 -0.167171 0)
(0.42494 -0.277956 0)
(0.415564 -0.291773 0)
(0.416789 -0.198487 0)
(0.472741 -0.00464241 0)
(0.515868 0.188956 0)
(0.528873 0.228543 0)
(0.501105 0.215843 0)
(0.462903 0.206021 0)
(0.514576 0.145597 0)
(0.507764 0.0793887 0)
(0.55485 -0.0500937 0)
(0.604549 -0.191547 0)
(0.579437 -0.232997 0)
(0.521901 -0.167171 0)
(0.480748 -0.0387459 0)
(0.496028 0.0683921 0)
(0.520615 0.110087 0)
(0.513228 0.0930117 0)
(0.526 0.00942299 0)
(0.537928 -0.0854031 0)
(0.522524 -0.130033 0)
(0.49537 -0.113122 0)
(0.49666 -0.0326174 0)
(0.520369 0.0626706 0)
(0.529098 0.106579 0)
(0.518334 0.0972307 0)
(0.499662 0.0669071 0)
(0.489206 0.0312087 0)
(0.49119 -0.00242728 0)
(0.495344 -0.0236003 0)
(0.494378 -0.0284776 0)
(0.488132 -0.0225213 0)
(0.478486 -0.0135993 0)
(0.467213 -0.00653441 0)
(0.455823 -0.00250145 0)
(0.445404 -0.000773403 0)
(0.436551 -0.000283826 0)
(0.429464 -0.000278288 0)
(0.424072 -0.000374665 0)
(0.420151 -0.000430931 0)
(0.417419 -0.000421939 0)
(0.415588 -0.000365676 0)
(0.414407 -0.000288261 0)
(0.413674 -0.000210245 0)
(0.413233 -0.000143457 0)
(0.412979 -9.2282e-05 0)
(0.412836 -5.62701e-05 0)
(0.412759 -3.26602e-05 0)
(0.412719 -1.8108e-05 0)
(0.412698 -9.61362e-06 0)
(0.412688 -4.89924e-06 0)
(0.412683 -2.40681e-06 0)
(0.412681 -1.13646e-06 0)
(0.41268 -5.22296e-07 0)
(0.412679 -2.34562e-07 0)
(0.412679 -9.83611e-08 0)
(0.412679 -4.39009e-08 0)
(0.412679 -1.69232e-08 0)
(0.412679 -6.67399e-09 0)
(0.412679 -5.31746e-09 0)
(0.412679 -1.32893e-09 0)
(0.412679 -1.26685e-09 0)
(0.429551 -0.0241619 0)
(0.571601 0.00792875 0)
(0.372467 -0.00718159 0)
(0.637833 -0.0552399 0)
(0.455443 0.0210785 0)
(0.480107 -0.0301046 0)
(0.625469 -0.00184096 0)
(0.469139 0.00333759 0)
(0.67302 -0.0632718 0)
(0.670815 -0.0317739 0)
(0.674033 -0.0362212 0)
(0.772152 -0.100521 0)
(0.829345 -0.141627 0)
(0.708195 -0.0382992 0)
(0.805133 -0.0690766 0)
(0.857119 -0.116612 0)
(0.829224 -0.0774982 0)
(0.973635 -0.135325 0)
(0.994937 -0.22077 0)
(0.920524 -0.190646 0)
(0.866271 -0.145952 0)
(0.820272 -0.174756 0)
(0.568852 -0.147025 0)
(0.407985 -0.0268174 0)
(0.278589 -0.126332 0)
(0.196639 -0.32322 0)
(0.277511 -0.266781 0)
(0.423623 -0.0815087 0)
(0.395556 0.0240247 0)
(0.422151 0.130826 0)
(0.576841 0.313458 0)
(0.639724 0.371439 0)
(0.654426 0.336 0)
(0.634222 0.311955 0)
(0.578859 0.194067 0)
(0.553129 -0.00177874 0)
(0.54946 -0.0923539 0)
(0.499912 -0.159446 0)
(0.421369 -0.27258 0)
(0.399365 -0.291761 0)
(0.395702 -0.19906 0)
(0.443595 -0.00874006 0)
(0.485364 0.18326 0)
(0.512495 0.226344 0)
(0.494129 0.219042 0)
(0.471102 0.203961 0)
(0.527383 0.142431 0)
(0.520307 0.0777806 0)
(0.57689 -0.0553984 0)
(0.61976 -0.193695 0)
(0.579502 -0.22806 0)
(0.514452 -0.159137 0)
(0.47002 -0.0356973 0)
(0.486201 0.0654347 0)
(0.51116 0.108287 0)
(0.508388 0.0923821 0)
(0.525851 0.00794303 0)
(0.532656 -0.0852662 0)
(0.510136 -0.127556 0)
(0.479302 -0.110383 0)
(0.477453 -0.0328793 0)
(0.501143 0.0603715 0)
(0.514322 0.105551 0)
(0.509602 0.0983823 0)
(0.496793 0.0685725 0)
(0.491195 0.0317624 0)
(0.49576 -0.0027648 0)
(0.499721 -0.0237481 0)
(0.496907 -0.0279311 0)
(0.488627 -0.0214161 0)
(0.477599 -0.0122182 0)
(0.465727 -0.00509235 0)
(0.454286 -0.00114106 0)
(0.444088 0.000413769 0)
(0.435541 0.000690106 0)
(0.428748 0.000478926 0)
(0.423596 0.000186897 0)
(0.41985 -3.18116e-05 0)
(0.417229 -0.000149206 0)
(0.415461 -0.000186132 0)
(0.414309 -0.000174251 0)
(0.413585 -0.000140348 0)
(0.413144 -0.000102068 0)
(0.412885 -6.85882e-05 0)
(0.412738 -4.31469e-05 0)
(0.412657 -2.56293e-05 0)
(0.412613 -1.44524e-05 0)
(0.412591 -7.77236e-06 0)
(0.41258 -4.00193e-06 0)
(0.412575 -1.97712e-06 0)
(0.412572 -9.42827e-07 0)
(0.412571 -4.36377e-07 0)
(0.41257 -1.97428e-07 0)
(0.41257 -8.6511e-08 0)
(0.41257 -3.72595e-08 0)
(0.41257 -1.57774e-08 0)
(0.41257 -7.61415e-09 0)
(0.41257 -5.43615e-09 0)
(0.41257 -4.3332e-09 0)
(0.41257 -1.3411e-09 0)
(0.573801 -0.023043 0)
(0.690664 -0.0010321 0)
(0.555533 -0.00268293 0)
(0.713322 -0.060946 0)
(0.627063 0.0209022 0)
(0.599829 -0.0262946 0)
(0.742281 -0.0181616 0)
(0.631483 0.00698884 0)
(0.758343 -0.0702641 0)
(0.785765 -0.0504528 0)
(0.769019 -0.0347803 0)
(0.854863 -0.108377 0)
(0.887783 -0.146068 0)
(0.778439 -0.0316057 0)
(0.869949 -0.0732314 0)
(0.898023 -0.132298 0)
(0.870486 -0.0867992 0)
(0.997423 -0.136172 0)
(0.991054 -0.219473 0)
(0.905317 -0.183484 0)
(0.84494 -0.130546 0)
(0.774223 -0.149759 0)
(0.519156 -0.110001 0)
(0.366387 0.00188165 0)
(0.238932 -0.116032 0)
(0.15476 -0.325468 0)
(0.232167 -0.275755 0)
(0.347198 -0.0934924 0)
(0.33676 0.0206085 0)
(0.363417 0.121969 0)
(0.514867 0.296124 0)
(0.586131 0.35858 0)
(0.625544 0.332864 0)
(0.62783 0.317467 0)
(0.579106 0.201264 0)
(0.558347 0.00293136 0)
(0.555908 -0.0874857 0)
(0.504649 -0.150867 0)
(0.416124 -0.265418 0)
(0.381267 -0.290291 0)
(0.371707 -0.198437 0)
(0.411582 -0.0120931 0)
(0.451976 0.176529 0)
(0.493102 0.222434 0)
(0.483455 0.220497 0)
(0.476796 0.200348 0)
(0.536655 0.139039 0)
(0.530115 0.0754243 0)
(0.596109 -0.0610023 0)
(0.63062 -0.194356 0)
(0.574762 -0.221337 0)
(0.503102 -0.150185 0)
(0.457112 -0.0325379 0)
(0.473786 0.0623661 0)
(0.498162 0.106153 0)
(0.500429 0.0909641 0)
(0.522206 0.00651355 0)
(0.523618 -0.0842845 0)
(0.494221 -0.124289 0)
(0.460065 -0.10711 0)
(0.455405 -0.0329267 0)
(0.478862 0.0577718 0)
(0.496246 0.103775 0)
(0.497532 0.0987027 0)
(0.490777 0.0694989 0)
(0.490316 0.0318198 0)
(0.497514 -0.00324655 0)
(0.501146 -0.023744 0)
(0.496392 -0.0271226 0)
(0.48612 -0.0200959 0)
(0.473881 -0.0107271 0)
(0.461682 -0.00362894 0)
(0.450531 0.000184305 0)
(0.440929 0.00154421 0)
(0.433062 0.00160493 0)
(0.426904 0.00118413 0)
(0.42228 0.000707492 0)
(0.418936 0.000337861 0)
(0.416597 0.000104142 0)
(0.415013 -1.82525e-05 0)
(0.413972 -6.66109e-05 0)
(0.413309 -7.3562e-05 0)
(0.412901 -6.19728e-05 0)
(0.412657 -4.52997e-05 0)
(0.412516 -3.00581e-05 0)
(0.412438 -1.85094e-05 0)
(0.412396 -1.07023e-05 0)
(0.412373 -5.85869e-06 0)
(0.412362 -3.05595e-06 0)
(0.412357 -1.52305e-06 0)
(0.412354 -7.31e-07 0)
(0.412353 -3.40579e-07 0)
(0.412352 -1.5485e-07 0)
(0.412352 -6.89608e-08 0)
(0.412352 -3.00913e-08 0)
(0.412352 -1.23418e-08 0)
(0.412352 -6.37198e-09 0)
(0.412352 -5.77714e-09 0)
(0.412352 -4.15594e-09 0)
(0.412352 -1.20849e-09 0)
(0.694076 -0.0193843 0)
(0.783486 -0.0124419 0)
(0.694302 0.00351328 0)
(0.783154 -0.0612653 0)
(0.756036 0.0133508 0)
(0.708494 -0.0188285 0)
(0.830172 -0.0359786 0)
(0.753206 0.00893488 0)
(0.834966 -0.0701951 0)
(0.872562 -0.0681896 0)
(0.841379 -0.0320406 0)
(0.919777 -0.11213 0)
(0.926613 -0.149519 0)
(0.826832 -0.0257311 0)
(0.917112 -0.0752323 0)
(0.918545 -0.143829 0)
(0.887141 -0.0945103 0)
(1.00021 -0.135429 0)
(0.970394 -0.213606 0)
(0.876873 -0.174087 0)
(0.809558 -0.114492 0)
(0.716648 -0.123078 0)
(0.464331 -0.0730099 0)
(0.323502 0.0290937 0)
(0.201201 -0.104689 0)
(0.117146 -0.32743 0)
(0.190611 -0.282256 0)
(0.267324 -0.103111 0)
(0.270611 0.0159276 0)
(0.303815 0.1128 0)
(0.451302 0.277821 0)
(0.528117 0.342945 0)
(0.590772 0.326392 0)
(0.615528 0.320139 0)
(0.574579 0.206459 0)
(0.560832 0.00739957 0)
(0.559653 -0.0822299 0)
(0.507446 -0.141611 0)
(0.409286 -0.256676 0)
(0.361407 -0.287232 0)
(0.344744 -0.196677 0)
(0.376571 -0.0146705 0)
(0.415999 0.16871 0)
(0.47084 0.216851 0)
(0.469144 0.220055 0)
(0.479998 0.195133 0)
(0.542262 0.135404 0)
(0.53735 0.0722052 0)
(0.612358 -0.0667789 0)
(0.636831 -0.193374 0)
(0.565189 -0.212859 0)
(0.487941 -0.140553 0)
(0.442209 -0.0293882 0)
(0.458884 0.0593332 0)
(0.481817 0.103684 0)
(0.489635 0.0887549 0)
(0.51517 0.00521141 0)
(0.510952 -0.0824384 0)
(0.475044 -0.120311 0)
(0.437888 -0.10339 0)
(0.430711 -0.0326487 0)
(0.453751 0.0549392 0)
(0.475068 0.101292 0)
(0.482262 0.0981814 0)
(0.481699 0.0696566 0)
(0.486613 0.0313606 0)
(0.49642 -0.00386641 0)
(0.499537 -0.023574 0)
(0.492766 -0.0260524 0)
(0.480596 -0.0185781 0)
(0.467364 -0.00915443 0)
(0.455136 -0.00218604 0)
(0.444624 0.00142865 0)
(0.435987 0.00257307 0)
(0.429158 0.0024181 0)
(0.423955 0.00180013 0)
(0.420125 0.0011568 0)
(0.417389 0.000654944 0)
(0.415483 0.000321385 0)
(0.414187 0.00012644 0)
(0.413329 2.70456e-05 0)
(0.412774 -1.4716e-05 0)
(0.412427 -2.61275e-05 0)
(0.412216 -2.4157e-05 0)
(0.412093 -1.79899e-05 0)
(0.412022 -1.18462e-05 0)
(0.411984 -7.14325e-06 0)
(0.411963 -4.01872e-06 0)
(0.411953 -2.13552e-06 0)
(0.411948 -1.07623e-06 0)
(0.411945 -5.20438e-07 0)
(0.411944 -2.44851e-07 0)
(0.411944 -1.11931e-07 0)
(0.411943 -5.06358e-08 0)
(0.411943 -2.22618e-08 0)
(0.411943 -8.78029e-09 0)
(0.411943 -5.17653e-09 0)
(0.411943 -5.44668e-09 0)
(0.411943 -4.14709e-09 0)
(0.411943 -1.21205e-09 0)
(0.79078 -0.0147642 0)
(0.856537 -0.0226178 0)
(0.796492 0.00789084 0)
(0.847263 -0.0570097 0)
(0.847509 0.00319163 0)
(0.797879 -0.0108086 0)
(0.897692 -0.0496581 0)
(0.839142 0.00802181 0)
(0.898012 -0.0673804 0)
(0.932539 -0.0837389 0)
(0.892069 -0.0296799 0)
(0.968659 -0.112923 0)
(0.948144 -0.149837 0)
(0.85764 -0.0209541 0)
(0.9471 -0.0759186 0)
(0.918472 -0.150247 0)
(0.884433 -0.100098 0)
(0.986454 -0.133267 0)
(0.934615 -0.203485 0)
(0.834663 -0.162025 0)
(0.759187 -0.0974449 0)
(0.648157 -0.0952949 0)
(0.405578 -0.0370646 0)
(0.280288 0.0541151 0)
(0.167931 -0.093934 0)
(0.082944 -0.327687 0)
(0.150736 -0.286457 0)
(0.187826 -0.10947 0)
(0.20047 0.00987315 0)
(0.243449 0.103415 0)
(0.386133 0.259561 0)
(0.466091 0.325731 0)
(0.55049 0.317486 0)
(0.597091 0.320044 0)
(0.565215 0.209645 0)
(0.560705 0.0117572 0)
(0.560735 -0.0766259 0)
(0.508518 -0.131664 0)
(0.401199 -0.246263 0)
(0.340059 -0.282487 0)
(0.314912 -0.193717 0)
(0.338432 -0.0165569 0)
(0.377742 0.159946 0)
(0.445826 0.20982 0)
(0.451327 0.217701 0)
(0.48078 0.188372 0)
(0.544066 0.131595 0)
(0.542265 0.0679868 0)
(0.625496 -0.0725749 0)
(0.638118 -0.190601 0)
(0.550816 -0.202697 0)
(0.469079 -0.130486 0)
(0.42538 -0.0263379 0)
(0.441487 0.0564415 0)
(0.462355 0.100906 0)
(0.476298 0.0857646 0)
(0.504879 0.00380348 0)
(0.494913 -0.0797843 0)
(0.45292 -0.115655 0)
(0.413 -0.099259 0)
(0.403553 -0.0321252 0)
(0.426035 0.0519028 0)
(0.451003 0.0981359 0)
(0.463957 0.0968186 0)
(0.469691 0.0690227 0)
(0.48018 0.0303698 0)
(0.492469 -0.0046065 0)
(0.494838 -0.0232185 0)
(0.486012 -0.0247232 0)
(0.472104 -0.0168862 0)
(0.458152 -0.00753631 0)
(0.446224 -0.000803601 0)
(0.436703 0.00255152 0)
(0.429386 0.00345677 0)
(0.423923 0.00308937 0)
(0.419957 0.00229295 0)
(0.417143 0.00150818 0)
(0.415179 0.000899715 0)
(0.413823 0.000488586 0)
(0.412896 0.000238479 0)
(0.412272 0.00010051 0)
(0.41186 3.22496e-05 0)
(0.411596 3.0385e-06 0)
(0.411431 -6.60952e-06 0)
(0.411332 -7.78016e-06 0)
(0.411275 -6.10846e-06 0)
(0.411242 -4.0292e-06 0)
(0.411225 -2.38592e-06 0)
(0.411216 -1.30866e-06 0)
(0.411212 -6.70731e-07 0)
(0.411209 -3.27899e-07 0)
(0.411208 -1.56462e-07 0)
(0.411208 -7.2003e-08 0)
(0.411208 -3.33578e-08 0)
(0.411208 -1.49991e-08 0)
(0.411208 -5.4571e-09 0)
(0.411208 -3.86973e-09 0)
(0.411208 -5.14862e-09 0)
(0.411208 -3.74697e-09 0)
(0.411208 -1.11195e-09 0)
(0.867072 -0.0106955 0)
(0.914051 -0.0292043 0)
(0.871047 0.00872559 0)
(0.903354 -0.0508044 0)
(0.909189 -0.00676485 0)
(0.86714 -0.00428618 0)
(0.94631 -0.0567332 0)
(0.897101 0.00478768 0)
(0.947749 -0.0638071 0)
(0.969295 -0.0946234 0)
(0.924351 -0.0281911 0)
(1.00037 -0.111394 0)
(0.949909 -0.146247 0)
(0.872257 -0.0175724 0)
(0.958594 -0.0759176 0)
(0.898572 -0.152081 0)
(0.86791 -0.104352 0)
(0.957945 -0.130179 0)
(0.883119 -0.189863 0)
(0.777184 -0.147235 0)
(0.692749 -0.0795036 0)
(0.569677 -0.0670873 0)
(0.34397 -0.00327882 0)
(0.238207 0.0760338 0)
(0.141502 -0.084019 0)
(0.0513845 -0.326169 0)
(0.108492 -0.288481 0)
(0.112987 -0.112664 0)
(0.13054 0.00158129 0)
(0.184263 0.0926653 0)
(0.320155 0.240902 0)
(0.401704 0.306763 0)
(0.506555 0.30582 0)
(0.573431 0.316636 0)
(0.551731 0.210432 0)
(0.558301 0.0153847 0)
(0.559275 -0.0707607 0)
(0.507928 -0.12113 0)
(0.392175 -0.234324 0)
(0.317352 -0.275954 0)
(0.282407 -0.189349 0)
(0.297194 -0.0179376 0)
(0.337763 0.150113 0)
(0.418198 0.201364 0)
(0.430173 0.213275 0)
(0.479202 0.180114 0)
(0.541834 0.127461 0)
(0.545167 0.0628307 0)
(0.635347 -0.0780902 0)
(0.634217 -0.185876 0)
(0.531723 -0.190938 0)
(0.446624 -0.120221 0)
(0.406496 -0.0234679 0)
(0.421445 0.0537616 0)
(0.440034 0.09781 0)
(0.460722 0.0820467 0)
(0.491485 0.0026705 0)
(0.47578 -0.0763072 0)
(0.42818 -0.110372 0)
(0.385647 -0.0947968 0)
(0.374101 -0.0313931 0)
(0.395936 0.0486964 0)
(0.424285 0.0943518 0)
(0.442805 0.0946193 0)
(0.454942 0.0675756 0)
(0.471161 0.028848 0)
(0.485674 -0.00543533 0)
(0.487029 -0.0226583 0)
(0.476172 -0.0231463 0)
(0.460769 -0.0150516 0)
(0.446431 -0.00591688 0)
(0.435156 0.000470161 0)
(0.426977 0.00350895 0)
(0.421305 0.0041544 0)
(0.417488 0.00358377 0)
(0.414976 0.00263497 0)
(0.413333 0.00174133 0)
(0.412246 0.001058 0)
(0.411506 0.000596224 0)
(0.41099 0.000311623 0)
(0.410627 0.00014976 0)
(0.410375 6.47823e-05 0)
(0.410204 2.39359e-05 0)
(0.410092 6.37119e-06 0)
(0.410022 -9.84553e-09 0)
(0.40998 -1.63127e-06 0)
(0.409956 -1.54735e-06 0)
(0.409943 -1.06171e-06 0)
(0.409936 -6.2859e-07 0)
(0.409932 -3.3344e-07 0)
(0.409931 -1.66279e-07 0)
(0.40993 -8.17064e-08 0)
(0.409929 -3.80699e-08 0)
(0.409929 -1.85555e-08 0)
(0.409929 -8.68058e-09 0)
(0.409929 -2.63778e-09 0)
(0.409929 -2.85565e-09 0)
(0.409929 -4.7908e-09 0)
(0.409929 -3.48451e-09 0)
(0.409929 -1.01038e-09 0)
(0.924171 -0.00850821 0)
(0.956363 -0.0312697 0)
(0.923558 0.00653626 0)
(0.948117 -0.0441388 0)
(0.94796 -0.0152037 0)
(0.918445 -0.00114313 0)
(0.977607 -0.0579651 0)
(0.932828 -0.000535652 0)
(0.983321 -0.060977 0)
(0.984896 -0.100031 0)
(0.940306 -0.0282322 0)
(1.01394 -0.107687 0)
(0.933408 -0.138434 0)
(0.872869 -0.0156034 0)
(0.950313 -0.0750506 0)
(0.86244 -0.149764 0)
(0.842025 -0.107969 0)
(0.913343 -0.12575 0)
(0.813992 -0.172765 0)
(0.703055 -0.12966 0)
(0.61031 -0.0607101 0)
(0.483462 -0.0392855 0)
(0.281603 0.0268014 0)
(0.198738 0.0944518 0)
(0.122292 -0.0741766 0)
(0.0218327 -0.322552 0)
(0.059257 -0.288078 0)
(0.0463657 -0.113324 0)
(0.0650894 -0.00782929 0)
(0.12646 0.0816185 0)
(0.253232 0.223062 0)
(0.335009 0.287126 0)
(0.459434 0.291935 0)
(0.544445 0.310159 0)
(0.53428 0.208842 0)
(0.553667 0.0179618 0)
(0.555425 -0.064764 0)
(0.505854 -0.109986 0)
(0.382788 -0.220793 0)
(0.293419 -0.267308 0)
(0.247745 -0.183502 0)
(0.253055 -0.01887 0)
(0.296655 0.139405 0)
(0.38805 0.191768 0)
(0.406006 0.206763 0)
(0.475372 0.170557 0)
(0.535393 0.123042 0)
(0.546527 0.0566354 0)
(0.641706 -0.0831017 0)
(0.624882 -0.179088 0)
(0.508057 -0.177715 0)
(0.420657 -0.10996 0)
(0.385168 -0.020826 0)
(0.398424 0.0513505 0)
(0.41514 0.0943052 0)
(0.443237 0.0776982 0)
(0.475161 0.00187355 0)
(0.45387 -0.0720827 0)
(0.401192 -0.10452 0)
(0.356092 -0.0900219 0)
(0.342528 -0.0304774 0)
(0.36367 0.0453425 0)
(0.395157 0.0899835 0)
(0.419012 0.0915941 0)
(0.437709 0.0652942 0)
(0.459728 0.0268062 0)
(0.476052 -0.00631628 0)
(0.476129 -0.0218821 0)
(0.463359 -0.0213464 0)
(0.446801 -0.0131179 0)
(0.43247 -0.00434076 0)
(0.422223 0.00159285 0)
(0.415718 0.00425958 0)
(0.411962 0.00463139 0)
(0.40999 0.00387499 0)
(0.409054 0.00280817 0)
(0.408645 0.00184505 0)
(0.408455 0.00112342 0)
(0.408334 0.000640817 0)
(0.408224 0.000343946 0)
(0.408117 0.000173654 0)
(0.40802 8.21397e-05 0)
(0.407942 3.60613e-05 0)
(0.407883 1.44382e-05 0)
(0.407842 5.09069e-06 0)
(0.407816 1.43459e-06 0)
(0.4078 2.08431e-07 0)
(0.407791 -1.01384e-07 0)
(0.407787 -1.26335e-07 0)
(0.407784 -8.07425e-08 0)
(0.407783 -4.40006e-08 0)
(0.407782 -2.4812e-08 0)
(0.407782 -1.20557e-08 0)
(0.407782 -7.09373e-09 0)
(0.407782 -3.72987e-09 0)
(0.407782 -4.88145e-10 0)
(0.407782 -2.1093e-09 0)
(0.407782 -4.42072e-09 0)
(0.407782 -3.14735e-09 0)
(0.407782 -8.92616e-10 0)
(0.961813 -0.00851679 0)
(0.981687 -0.0299102 0)
(0.95644 0.00245906 0)
(0.9774 -0.0377549 0)
(0.967304 -0.0204328 0)
(0.952384 -0.00176614 0)
(0.991628 -0.055467 0)
(0.950295 -0.00694056 0)
(1.00276 -0.0593049 0)
(0.980021 -0.099945 0)
(0.941484 -0.0298428 0)
(1.00775 -0.102177 0)
(0.900484 -0.126646 0)
(0.860377 -0.0153575 0)
(0.921985 -0.0728019 0)
(0.814397 -0.143869 0)
(0.805395 -0.110783 0)
(0.847165 -0.119403 0)
(0.725233 -0.152777 0)
(0.612506 -0.109879 0)
(0.514847 -0.0418113 0)
(0.393328 -0.0126793 0)
(0.221306 0.0524702 0)