/*--------------------------------*- C++ -*----------------------------------*\
| =========                 |                                                 |
| \\      /  F ield         | OpenFOAM: The Open Source CFD Toolbox           |
|  \\    /   O peration     | Version:  2.4.0                                 |
|   \\  /    A nd           | Web:      www.OpenFOAM.org                      |
|    \\/     M anipulation  |                                                 |
\*---------------------------------------------------------------------------*/
FoamFile
{
    version     2.0;
    format      ascii;
    class       volScalarField;
    location    "1.86";
    object      k_0;
}
// * * * * * * * * * * * * * * * * * * * * * * * * * * * * * * * * * * * * * //

dimensions      [0 2 -2 0 0 0 0];

internalField   nonuniform List<scalar> 
8800
(
8.1077
10.2827
8.7784
6.84628
5.67769
5.00967
4.4853
4.19221
3.86319
3.72213
3.48623
3.42515
3.23754
3.21671
3.05217
3.0386
2.90442
2.88416
2.83893
2.64534
1.38783
4.36847
5.30764
5.29473
5.10705
4.85789
4.52469
4.34578
4.06065
3.94304
3.7145
3.64123
3.46309
3.42395
3.28607
3.25128
3.14842
3.10861
3.01012
3.01711
0.0831469
0.74802
1.54311
1.96748
2.23834
2.47397
2.54462
2.62296
2.61561
2.61152
2.57517
2.55815
2.5072
2.48756
2.44782
2.41662
2.39597
2.35534
2.30392
2.28821
0.00327265
0.0713942
0.245476
0.438463
0.567428
0.715401
0.829343
0.927461
1.03101
1.09416
1.16388
1.20829
1.26966
1.28932
1.34593
1.35855
1.40391
1.40625
1.41597
1.40454
0.000118339
0.00509993
0.0227307
0.0540146
0.0861447
0.118823
0.167951
0.195398
0.252412
0.280263
0.326847
0.349692
0.399214
0.417359
0.466035
0.486481
0.534011
0.551657
0.593363
0.595986
2.58019e-05
0.000328689
0.00168746
0.00401015
0.00775131
0.0110762
0.0185574
0.0236808
0.0348112
0.0433224
0.0535156
0.0609583
0.0764663
0.0822344
0.0951388
0.107296
0.116343
0.134189
0.147943
0.159317
2.2517e-05
4.58477e-05
0.000132329
0.000358653
0.000508367
0.000718257
0.00123986
0.00168509
0.00237785
0.00411175
0.00483697
0.00627348
0.00779131
0.00882473
0.0104336
0.0135731
0.0147765
0.0188818
0.0210547
0.0262561
2.11206e-05
2.90702e-05
4.42812e-05
8.91554e-05
0.000103056
0.000111806
0.000127994
0.000149615
0.000176638
0.000312732
0.000356011
0.000469536
0.000525783
0.00065288
0.000720841
0.000969228
0.00103596
0.00152221
0.00175846
0.00275455
2.06771e-05
3.08516e-05
4.45178e-05
5.75027e-05
6.60286e-05
7.49132e-05
7.69373e-05
8.14952e-05
8.25075e-05
8.81867e-05
8.99555e-05
9.72459e-05
0.000100716
0.00011385
0.000116997
0.000125873
0.000126589
0.000154789
0.000162484
0.000200774
2.06842e-05
3.04163e-05
3.72663e-05
5.08309e-05
6.73671e-05
7.06231e-05
6.9393e-05
6.78222e-05
6.82397e-05
7.27126e-05
7.38152e-05
7.58006e-05
7.61523e-05
7.59989e-05
7.6251e-05
7.88311e-05
8.01679e-05
8.29284e-05
8.36585e-05
8.40292e-05
2.06125e-05
2.73197e-05
3.70904e-05
6.03828e-05
6.39061e-05
6.46168e-05
6.80456e-05
7.10995e-05
7.00862e-05
7.06894e-05
7.08712e-05
7.27509e-05
7.40907e-05
7.72293e-05
8.05843e-05
8.26785e-05
8.22895e-05
8.13937e-05
8.02634e-05
8.26622e-05
2.08047e-05
2.89065e-05
4.75746e-05
5.24325e-05
6.14927e-05
7.53925e-05
7.93205e-05
7.85735e-05
7.84561e-05
8.14826e-05
8.52942e-05
9.56477e-05
0.000100456
0.00011107
0.000116554
0.000122395
0.000127216
0.000135314
0.000151413
0.000207732
2.10068e-05
3.2608e-05
4.62599e-05
7.21119e-05
9.28922e-05
0.000117084
0.000132825
0.000177359
0.000207261
0.000281374
0.000327993
0.00043326
0.000502737
0.000691964
0.000789286
0.00102036
0.00118845
0.00156786
0.00186642
0.00261537
2.16373e-05
4.29399e-05
0.000116973
0.000354161
0.000528075
0.000892617
0.0012071
0.00205099
0.00255928
0.00384833
0.00464869
0.00643825
0.00744346
0.00989193
0.0111364
0.014125
0.0159511
0.0202714
0.0231116
0.0307797
2.49488e-05
0.000305003
0.0014369
0.00471028
0.00744038
0.0128014
0.0169659
0.0270672
0.0324583
0.0447115
0.0512321
0.0650525
0.0717501
0.0873878
0.0947015
0.112077
0.121386
0.14403
0.156975
0.193086
0.00012391
0.00490196
0.0217356
0.0558612
0.0883676
0.123643
0.156353
0.212877
0.238133
0.2887
0.315042
0.363397
0.385256
0.434404
0.455795
0.505861
0.529551
0.589058
0.618597
0.694569
0.00337115
0.0693755
0.258883
0.42027
0.588503
0.696991
0.833831
0.937363
1.01777
1.09617
1.16233
1.21642
1.25369
1.30994
1.33322
1.38241
1.40285
1.45579
1.47801
1.52999
0.0846139
0.726425
1.56733
1.94041
2.28345
2.42429
2.58395
2.5979
2.62483
2.59834
2.58928
2.54054
2.52434
2.47484
2.46134
2.41943
2.40963
2.38307
2.37246
2.34562
1.40641
4.34773
5.32243
5.28661
5.13199
4.79694
4.58997
4.27022
4.13539
3.86779
3.77712
3.57824
3.52135
3.36491
3.32916
3.20101
3.17127
3.05177
3.01254
2.90992
8.11974
10.2616
8.7977
6.81332
5.71392
4.96076
4.53956
4.12528
3.93147
3.64691
3.55389
3.347
3.303
3.13189
3.10199
2.93863
2.90548
2.72536
2.66013
2.44016
1.88152
1.39092
1.07729
0.879555
0.764867
0.701612
0.668761
0.649908
0.639851
0.632414
0.624416
0.617792
0.605688
0.593981
0.573546
0.546211
0.50765
0.458689
0.404467
0.349631
0.301878
0.260983
0.23429
0.215182
0.204042
0.201536
0.202447
0.205236
0.212826
0.220412
0.231574
0.239513
0.249976
0.255166
0.265147
0.268752
0.275827
0.278033
0.282359
0.284298
0.286706
0.287978
0.290222
0.291002
0.29107
0.290501
0.289738
0.288865
0.289766
0.292092
0.29685
0.302985
0.3105
0.315065
0.318553
0.325263
0.331945
0.335533
0.342881
0.357034
0.357716
0.35865
0.363139
0.375711
0.394016
0.396836
0.397908
0.400248
0.402011
0.406311
0.417987
0.419447
0.417275
0.410254
0.397298
0.37711
0.343629
0.303885
0.250904
0.198445
0.157889
0.128601
0.110841
0.0995648
0.0909293
0.0859175
0.0848489
0.0850282
0.0862833
0.0896329
0.0932734
0.103047
0.113083
0.131141
0.152746
0.160876
0.159616
0.156388
0.14915
0.134428
0.104484
0.0625028
0.0354167
0.0202698
0.0124515
0.00851647
0.00672703
0.00586091
0.00584509
0.00592147
0.00608254
0.0063389
0.00660564
0.00700606
0.00829562
0.0095263
0.0113239
0.0135013
0.0175127
0.0255164
0.0444391
0.0763372
0.114769
0.14838
0.164054
0.164446
0.158838
0.145831
0.126025
0.099977
0.0729103
0.0491456
0.0341491
0.025751
0.0243662
0.0250239
0.0288521
0.0410446
0.0659375
0.119006
0.167041
0.190976
0.199403
0.19886
0.194179
0.185994
0.182015
0.172325
0.166714
0.161161
0.152398
0.146733
0.136005
0.128137
0.110472
0.0960852
0.0859257
0.0789469
0.0619136
0.0567596
0.0466218
0.0432881
0.0362266
0.0335603
0.026082
0.0214416
0.016741
0.016514
0.0154953
0.0157557
0.0166448
0.0180328
0.0186091
0.0208349
0.0289552
0.0335825
0.0394816
0.0749119
0.105598
0.128139
0.144195
0.1568
0.162664
0.161482
0.141471
0.120474
0.111731
0.103346
0.0895154
0.0833297
0.0837102
0.0865512
0.0961803
0.152324
0.233624
0.250572
0.22785
0.152891
0.218657
3.38611
2.57715
2.12237
1.7835
1.53486
1.34596
1.20257
1.09339
1.01452
0.949538
0.902676
0.858234
0.82619
0.796475
0.772812
0.754042
0.735843
0.722221
0.701477
0.682825
0.656078
0.6294
0.599154
0.570763
0.544864
0.520598
0.503544
0.488202
0.477543
0.470372
0.463078
0.461118
0.457532
0.456201
0.453252
0.452047
0.450097
0.447712
0.446158
0.442318
0.440432
0.437738
0.434698
0.432561
0.428464
0.426062
0.422533
0.419032
0.415804
0.412898
0.410964
0.409041
0.40522
0.404201
0.400576
0.397676
0.39301
0.383368
0.380203
0.377835
0.375026
0.367737
0.365005
0.364306
0.362369
0.359979
0.356998
0.350428
0.348082
0.343259
0.338362
0.337887
0.338845
0.340741
0.344612
0.352173
0.360255
0.360376
0.36008
0.356378
0.3483
0.328979
0.305419
0.270974
0.241356
0.214626
0.191931
0.175261
0.168755
0.168705
0.170743
0.17475
0.186094
0.187677
0.186033
0.18128
0.173266
0.16021
0.143378
0.112677
0.0701584
0.0395542
0.0225459
0.0135407
0.00855558
0.00638751
0.0053779
0.00511087
0.00521424
0.00561618
0.00603503
0.00689475
0.0083096
0.00913434
0.0105483
0.0136865
0.0163868
0.0194804
0.0249392
0.0367527
0.0630634
0.128838
0.20052
0.254162
0.258152
0.253886
0.244147
0.230025
0.217884
0.203228
0.183464
0.158463
0.126529
0.0831562
0.0513897
0.0350089
0.0280366
0.0275409
0.028735
0.0338169
0.0503611
0.0748042
0.118289
0.153929
0.172906
0.179082
0.177706
0.175648
0.169146
0.164432
0.156737
0.148189
0.140041
0.129553
0.117323
0.0977975
0.0905663
0.0797044
0.0693504
0.055118
0.0498265
0.0429865
0.0397001
0.0333678
0.028588
0.0224417
0.0183423
0.0158338
0.0156369
0.014821
0.0145115
0.0149835
0.0157864
0.0171064
0.0237657
0.0307086
0.0348856
0.0469104
0.0878104
0.111547
0.128278
0.136058
0.145345
0.160495
0.163128
0.148113
0.126164
0.117927
0.11469
0.111496
0.106338
0.0974812
0.0925107
0.0962079
0.121416
0.207195
0.244307
0.235191
0.165722
0.219709
2.11514
2.07358
1.84183
1.6311
1.46117
1.3191
1.20448
1.10805
1.032
0.965958
0.912658
0.866387
0.825679
0.792449
0.760995
0.737563
0.715458
0.698951
0.684184
0.669619
0.656983
0.641104
0.628684
0.610883
0.599846
0.581941
0.573474
0.56002
0.55071
0.543415
0.532
0.527679
0.51956
0.513535
0.509658
0.502122
0.499498
0.494178
0.49156
0.4862
0.482589
0.478291
0.473731
0.468728
0.465021
0.458019
0.454317
0.446749
0.440581
0.433532
0.423842
0.418493
0.408023
0.401323
0.392376
0.380775
0.373426
0.356732
0.348464
0.333958
0.322454
0.309528
0.297384
0.285743
0.272772
0.264301
0.255687
0.247745
0.242801
0.236344
0.230866
0.230383
0.230994
0.233718
0.239896
0.244582
0.257411
0.270977
0.281894
0.297856
0.309298
0.31146
0.311432
0.309481
0.304964
0.297628
0.287968
0.276284
0.266736
0.255832
0.243802
0.233388
0.221743
0.204381
0.191456
0.16936
0.140413
0.106466
0.0656743
0.0387163
0.0224193
0.0132714
0.0085204
0.00605249
0.00481413
0.0045319
0.00457332
0.00476653
0.00546939
0.00698614
0.00826171
0.0110526
0.0140785
0.0156558
0.0185513
0.0237321
0.0276611
0.034562
0.0488939
0.0853342
0.186278
0.292286
0.32156
0.314421
0.293009
0.271081
0.248156
0.232819
0.22432
0.21137
0.203486
0.191438
0.174922
0.156485
0.123214
0.0761561
0.0473609
0.0342694
0.0301398
0.0301005
0.0321706
0.0383909
0.0569511
0.0762769
0.106881
0.12861
0.143952
0.150671
0.150136
0.148026
0.140978
0.135024
0.120686
0.113615
0.0982286
0.085947
0.0770268
0.0671747
0.0622418
0.0505767
0.045209
0.0403413
0.0364811
0.0314475
0.0261094
0.0211998
0.0172196
0.0160151
0.0155984
0.0146432
0.0137798
0.0145827
0.0150581
0.0175318
0.0260097
0.0305546
0.0343177
0.0480826
0.0858112
0.118369
0.132437
0.13931
0.14331
0.162831
0.179408
0.174962
0.149905
0.141582
0.146473
0.150851
0.15076
0.14222
0.110519
0.101781
0.111551
0.177519
0.233416
0.234865
0.181138
0.214257
1.19884
1.31497
1.21803
1.12295
1.03763
0.961041
0.894808
0.833975
0.781222
0.736421
0.695593
0.664158
0.635068
0.608475
0.587488
0.563199
0.547289
0.529567
0.518724
0.510035
0.502157
0.495873
0.488429
0.479462
0.471091
0.461613
0.451794
0.444395
0.434951
0.430752
0.422337
0.418112
0.411877
0.40547
0.401276
0.393934
0.39006
0.385619
0.380939
0.379075
0.375569
0.372793
0.370637
0.366131
0.363394
0.358124
0.351974
0.346026
0.336999
0.328638
0.319827
0.307969
0.298989
0.285375
0.274978
0.260884
0.248068
0.233058
0.218585
0.20256
0.187864
0.172633
0.158383
0.144765
0.132676
0.123344
0.115607
0.109468
0.104583
0.101434
0.0970544
0.0956996
0.0957561
0.0968524
0.0992964
0.104898
0.110287
0.119759
0.13155
0.140367
0.155581
0.172575
0.185348
0.199818
0.210572
0.217773
0.217993
0.215918
0.211585
0.202304
0.18964
0.175741
0.150444
0.127927
0.100854
0.0691194
0.0463016
0.0295361
0.0183867
0.0117193
0.00750182
0.00539757
0.00438431
0.00398492
0.00402305
0.00424753
0.00477791
0.00602325
0.00948621
0.0119312
0.0154884
0.0216222
0.02501
0.0273892
0.033654
0.0395693
0.0464648
0.0617462
0.102016
0.235454
0.357495
0.378531
0.36351
0.320899
0.270949
0.231037
0.203987
0.185683
0.179974
0.18127
0.183867
0.183098
0.178535
0.171676
0.158342
0.141259
0.102845
0.0622374
0.0417176
0.0334377
0.0317423
0.0320589
0.0351013
0.0414637
0.0540208
0.0726182
0.0864537
0.0993256
0.1063
0.107987
0.105611
0.102626
0.0938313
0.0882185
0.0801049
0.0713692
0.0653399
0.0578824
0.0543421
0.0450787
0.0418004
0.0383399
0.0347097
0.0302336
0.0242498
0.019548
0.0167369
0.0160959
0.0155818
0.0149106
0.0148125
0.0164166
0.0173629
0.0225852
0.028494
0.0313864
0.0374242
0.0556348
0.0946396
0.156842
0.168879
0.1649
0.162545
0.171822
0.205377
0.208322
0.184085
0.163962
0.163428
0.170764
0.176519
0.176387
0.146476
0.113517
0.112966
0.152769
0.212458
0.233254
0.193453
0.211703
0.593913
0.574213
0.546414
0.520541
0.492496
0.467041
0.445176
0.422454
0.399779
0.381509
0.359566
0.345578
0.332137
0.320914
0.313859
0.30313
0.295004
0.285568
0.276733
0.271555
0.26705
0.265351
0.263558
0.26229
0.259865
0.25601
0.251432
0.245581
0.240426
0.235921
0.23255
0.229048
0.227686
0.225006
0.222762
0.220596
0.21544
0.213136
0.208019
0.204793
0.201346
0.197143
0.195276
0.192234
0.189121
0.186745
0.181553
0.178229
0.1719
0.165236
0.158085
0.149264
0.140774
0.131495
0.121532
0.112115
0.101882
0.0926271
0.0835578
0.0747568
0.0676741
0.0600581
0.0541315
0.0482246
0.0434042
0.0391606
0.0358301
0.0335577
0.0311733
0.0302516
0.0295645
0.0289121
0.0289075
0.0290624
0.0295733
0.0305779
0.0329741
0.0348871
0.0389864
0.0435911
0.0491527
0.0542623
0.0598334
0.0670061
0.069349
0.0750214
0.0767773
0.0760507
0.0741188
0.0692619
0.062019
0.0533582
0.0432485
0.0342467
0.0255526
0.0184065
0.0129084
0.00866443
0.00607065
0.00453908
0.0036165
0.00348021
0.00352252
0.00375854
0.00458951
0.00608314
0.00845505
0.014143
0.0200001
0.0238309
0.032339
0.0400458
0.0429826
0.0484558
0.0573315
0.0634114
0.0763628
0.114007
0.257327
0.408147
0.436419
0.412504
0.339702
0.246738
0.190757
0.158217
0.145935
0.135897
0.132478
0.133377
0.136471
0.145783
0.160639
0.162952
0.160502
0.154653
0.142515
0.119263
0.077448
0.0499959
0.0377929
0.0335794
0.0330267
0.033723
0.0359239
0.0434552
0.0497259
0.060163
0.0669263
0.0730422
0.0734741
0.0724087
0.0705151
0.0652586
0.0628584
0.0563486
0.0533653
0.0483702
0.0470317
0.0429118
0.0408173
0.0361838
0.0322064
0.0277982
0.0225069
0.0188339
0.0170447
0.0167213
0.0160141
0.015678
0.0160531
0.0191787
0.0210931
0.0277368
0.032352
0.0367922
0.0557593
0.0756416
0.107943
0.183731
0.212769
0.209625
0.203703
0.20437
0.227636
0.233421
0.215704
0.188567
0.177934
0.177192
0.182677
0.186907
0.167266
0.123284
0.114892
0.134524
0.186469
0.228153
0.202029
0.212607
0.357196
0.15569
0.150231
0.144152
0.139237
0.133011
0.130262
0.125618
0.120927
0.11679
0.110651
0.106601
0.102764
0.100055
0.0993498
0.0979288
0.097325
0.0955769
0.0928497
0.0908978
0.0897676
0.0896219
0.0896262
0.090596
0.091091
0.0910538
0.0908783
0.0894151
0.0872051
0.0846693
0.0826347
0.081255
0.080329
0.0797273
0.0795148
0.0794093
0.0791821
0.0787452
0.0774845
0.0749414
0.0734949
0.0701444
0.0683647
0.0659571
0.06375
0.0624791
0.0597226
0.0581184
0.0554131
0.0528337
0.049962
0.0465942
0.0434255
0.0400585
0.0365792
0.0333564
0.0299401
0.0269416
0.0241588
0.0214614
0.019417
0.0171945
0.0154988
0.0137519
0.0122808
0.0109681
0.00974831
0.0090568
0.00832318
0.00783872
0.00770773
0.00765621
0.00768483
0.00774956
0.00786862
0.00808087
0.00846985
0.0090369
0.00970277
0.010765
0.0125479
0.0138722
0.0156914
0.0177044
0.0182261
0.0193992
0.0196113
0.0194235
0.0189307
0.0177401
0.0161157
0.0140303
0.0117586
0.00941748
0.00729656
0.00560207
0.00417419
0.00328691
0.00285512
0.00285181
0.00294893
0.00326746
0.00403036
0.00612344
0.0101991
0.0141454
0.0224529
0.0344229
0.0405383
0.0505186
0.0642244
0.069248
0.0723091
0.0835709
0.0891619
0.0968478
0.123917
0.245185
0.435704
0.492632
0.471979
0.369632
0.251215
0.185534
0.152262
0.133915
0.129309
0.123821
0.123854
0.123252
0.123618
0.125056
0.12918
0.13895
0.150843
0.150857
0.148144
0.14108
0.127074
0.094256
0.0598231
0.0435823
0.0360624
0.0344629
0.0341117
0.0352307
0.0370734
0.041081
0.0451264
0.0484917
0.0525505
0.0522855
0.0522368
0.0502241
0.0497151
0.0478144
0.0468863
0.0446194
0.0429214
0.0418271
0.0401189
0.0351976
0.0315389
0.0269272
0.022417
0.0192359
0.0188414
0.0190794
0.0193795
0.019266
0.0198276
0.0233766
0.0261119
0.0325685
0.0365381
0.0466762
0.0746719
0.102431
0.123949
0.182934
0.213729
0.238464
0.253982
0.253585
0.255878
0.249725
0.22828
0.209337
0.200467
0.196064
0.195762
0.195727
0.168183
0.123595
0.11306
0.126648
0.159367
0.221577
0.203399
0.205709
0.267468
0.0257601
0.0248654
0.0236147
0.0228651
0.0222847
0.0222266
0.0221415
0.0217303
0.0211613
0.020153
0.0192934
0.0186503
0.0183621
0.0183475
0.018449
0.0187618
0.0188229
0.0186476
0.0184257
0.0183658
0.0184264
0.0184734
0.0190075
0.0200328
0.0206541
0.020873
0.0208433
0.0206601
0.0198548
0.018894
0.0182189
0.0178253
0.0177688
0.0178598
0.0182638
0.0185943
0.0188588
0.0190262
0.0190139
0.0187663
0.0177754
0.0167072
0.0158805
0.0149774
0.014358
0.0137669
0.0133448
0.0128023
0.0122852
0.011534
0.0107571
0.0099097
0.00915794
0.00833225
0.0076091
0.00686449
0.00613321
0.00558704
0.00492389
0.00450156
0.00398782
0.00357912
0.00319659
0.00284012
0.00255221
0.00225935
0.00209173
0.0019087
0.0017908
0.0017522
0.00175367
0.00179177
0.00183584
0.00191888
0.00198534
0.00205556
0.0022054
0.00234946
0.00247759
0.00292719
0.00324201
0.00370566
0.00425659
0.00454859
0.00474224
0.00473659
0.00467902
0.00452771
0.00432405
0.00393407
0.00355652
0.00309945
0.00257764
0.00230714
0.00203554
0.00206075
0.00215868
0.00235364
0.00281298
0.00397109
0.00585386
0.00918623
0.018009
0.0248526
0.0359734
0.0588062
0.0717607
0.0842659
0.104918
0.114343
0.115157
0.120748
0.127678
0.128336
0.140801
0.211532
0.418596
0.528927
0.534172
0.449561
0.299186
0.209191
0.160703
0.137028
0.126551
0.123586
0.122274
0.123892
0.122928
0.123429
0.12347
0.124557
0.127656
0.131747
0.141762
0.144553
0.143857
0.140143
0.130292
0.107126
0.0721829
0.0497871
0.0405588
0.0361198
0.0355434
0.0357188
0.0362427
0.037662
0.0389322
0.0419372
0.0433552
0.0436323
0.0434396
0.0436953
0.0435527
0.0427056
0.0420199
0.0406775
0.0403513
0.0390692
0.0344611
0.0306827
0.0257585
0.0214138
0.0190053
0.0188466
0.0193179
0.0209469
0.0209711
0.0224707
0.027559
0.0300302
0.0342778
0.0367263
0.0577729
0.0788725
0.142973
0.165648
0.216375
0.227656
0.263654
0.282814
0.280099
0.272772
0.249234
0.22553
0.221055
0.221338
0.220168
0.216568
0.199094
0.158067
0.120573
0.107733
0.122991
0.145248
0.223801
0.206493
0.192787
0.220867
0.00278247
0.00274718
0.00266683
0.00258631
0.00256461
0.00257581
0.00258514
0.00255574
0.00250165
0.00237261
0.00226109
0.0021869
0.00213831
0.00213398
0.00214766
0.00218508
0.00221321
0.00223386
0.0022567
0.00228569
0.00233356
0.002376
0.00256126
0.00278762
0.00292126
0.00297212
0.00296136
0.00285373
0.00264429
0.00243141
0.00229388
0.00222499
0.00222749
0.00235188
0.00255978
0.0027392
0.00285634
0.00293392
0.00294354
0.00291228
0.00275381
0.00254672
0.00238817
0.0022483
0.0021227
0.00204214
0.0019835
0.00190308
0.00182777
0.00169747
0.00158155
0.0014425
0.00133663
0.00122794
0.00114123
0.00105761
0.000962098
0.000897025
0.000802816
0.000742158
0.000669476
0.000611822
0.000568082
0.000521938
0.000494243
0.000459653
0.000439338
0.000415356
0.000407216
0.000405912
0.000407003
0.000418615
0.000427857
0.000452485
0.000470372
0.000490346
0.000512356
0.000549075
0.000573961
0.000611862
0.000705876
0.000755342
0.000860613
0.000939312
0.00100636
0.00103156
0.00102979
0.00102643
0.00101587
0.00101233
0.00102477
0.0010672
0.0011807
0.00134737
0.00152107
0.00196004
0.00261126
0.00380497
0.00662244
0.0106332
0.0162437
0.0283934
0.0448643
0.0592196
0.0939665
0.124746
0.144609
0.17401
0.194106
0.191209
0.185925
0.184969
0.17683
0.177419
0.206904
0.367551
0.529794
0.582561
0.556139
0.411014
0.267279
0.187217
0.148864
0.130988
0.12439
0.122964
0.123769
0.124396
0.123361
0.123921
0.123567
0.124718
0.127013
0.130299
0.135564
0.138175
0.143393
0.142777
0.140379
0.132807
0.117357
0.084782
0.0591751
0.0462938
0.0398303
0.0378006
0.0371243
0.0373194
0.0378468
0.0391346
0.0411398
0.0413857
0.0422772
0.0420643
0.0420604
0.0413179
0.0410598
0.0403434
0.0400926
0.0389017
0.0345003
0.0307681
0.0257838
0.0218919
0.0199503
0.0195957
0.0200424
0.0207792
0.0212262
0.0240106
0.0301277
0.0331934
0.035128
0.0396567
0.0694689
0.0980426
0.160628
0.184522
0.236028
0.252651
0.281625
0.287491
0.284525
0.272699
0.245913
0.229635
0.232774
0.237476
0.236742
0.218149
0.176527
0.137794
0.110391
0.102213
0.122812
0.137936
0.221375
0.216057
0.194386
0.200846
0.000208656
0.000211781
0.000218931
0.00022855
0.00023807
0.000245187
0.000250314
0.000253426
0.000254857
0.000252334
0.000242708
0.000233051
0.000223087
0.000217411
0.000214823
0.000214687
0.000221539
0.000234689
0.000241604
0.000247529
0.000252954
0.00025735
0.000275482
0.00029573
0.000302824
0.000304355
0.000295607
0.000274699
0.000258675
0.000245061
0.00023568
0.00023041
0.000230084
0.000239386
0.000254651
0.000269175
0.000276725
0.000281422
0.000282322
0.00028109
0.000277045
0.00026754
0.000258746
0.000253065
0.000245812
0.000241962
0.000237562
0.000233628
0.000230268
0.000224743
0.000219015
0.000213084
0.000206761
0.000202845
0.00020071
0.000198289
0.000197218
0.000196873
0.000197446
0.000198816
0.000201877
0.000206437
0.000218316
0.000224359
0.000236399
0.000245555
0.000254934
0.000260308
0.000261216
0.000268744
0.000275965
0.000279222
0.000279388
0.000278566
0.000278458
0.000283747
0.000287753
0.000296475
0.00030016
0.000304684
0.000310572
0.000321852
0.000335175
0.000348579
0.000385951
0.000407461
0.000446317
0.000502645
0.000547512
0.000678794
0.000785483
0.000990582
0.00138966
0.00189969
0.00280352
0.00480358
0.00716268
0.011771
0.0200418
0.0288773
0.0477042
0.0712646
0.10096
0.144571
0.210978
0.244404
0.291812
0.30871
0.301409
0.27987
0.272461
0.258494
0.236063
0.243298
0.333827
0.499484
0.592881
0.604902
0.557817
0.395298
0.251229
0.176775
0.143799
0.129203
0.12608
0.126324
0.129012
0.129946
0.129654
0.128788
0.126151
0.126714
0.127694
0.132746
0.136247
0.139855
0.143661
0.145895
0.146225
0.145137
0.138384
0.125539
0.0991776
0.0720789
0.0542711
0.0466949
0.0422162
0.0402927
0.0399786
0.0404294
0.0416533
0.042045
0.0430323
0.0429109
0.0429564
0.0424637
0.0418821
0.0412239
0.0410848
0.0401481
0.0363295
0.0318516
0.0263672
0.0234255
0.0223947
0.0223262
0.0236216
0.023521
0.0243524
0.0277581
0.0339549
0.0369133
0.0370306
0.0506188
0.0763275
0.132448
0.151986
0.182739
0.23035
0.269462
0.297785
0.2972
0.292071
0.270248
0.248235
0.241944
0.249607
0.254063
0.243625
0.187465
0.1414
0.109691
0.0981179
0.0975693
0.128526
0.135464
0.190268
0.222353
0.205141
0.190676
8.3995e-05
8.47667e-05
8.75612e-05
8.95148e-05
9.16427e-05
9.24785e-05
9.39265e-05
9.44352e-05
9.48169e-05
9.52744e-05
9.56228e-05
9.58827e-05
9.59547e-05
9.60805e-05
9.76192e-05
9.9307e-05
0.000100494
0.000100845
0.000100913
0.000100995
0.000101885
0.000103269
0.000104251
0.000104729
0.000103737
0.000102323
0.000101265
0.000100517
9.94896e-05
9.8212e-05
9.67627e-05
9.57565e-05
9.52617e-05
9.55439e-05
9.76304e-05
0.000100085
0.000102157
0.000102635
0.000102993
0.000102902
0.000102842
0.00010298
0.000103376
0.000104316
0.000105387
0.000108989
0.000111878
0.000119033
0.000124301
0.000133108
0.000138896
0.000144803
0.000155052
0.000161021
0.000175854
0.000186213
0.000208332
0.000222861
0.000251675
0.000279417
0.000311851
0.000362122
0.000419207
0.000490126
0.000543428
0.000622843
0.000667414
0.000690515
0.000692671
0.000709651
0.00072347
0.000719051
0.000712652
0.000687369
0.000670717
0.000662799
0.00065344
0.000650378
0.000646534
0.000649411
0.00065003
0.000637589
0.000639409
0.000647536
0.00067742
0.000722483
0.000810454
0.000957093
0.00112146
0.0016079
0.00205464
0.00291388
0.0043954
0.00600037
0.0101553
0.0143142
0.0213241
0.0356162
0.050797
0.078276
0.120528
0.158772
0.240253
0.324314
0.383607
0.395427
0.388072
0.370531
0.327945
0.306129
0.300777
0.272561
0.2599
0.29426
0.458712
0.561376
0.609439
0.60579
0.56047
0.395945
0.246573
0.173906
0.142554
0.132388
0.131237
0.131253
0.13381
0.144027
0.147157
0.143503
0.137916
0.134375
0.132253
0.136718
0.138464
0.144599
0.146767
0.150876
0.151331
0.151746
0.151201
0.147757
0.136797
0.11675
0.0876082
0.0683881
0.0559665
0.0500612
0.0463162
0.0460303
0.0457901
0.046021
0.0460768
0.0461873
0.0460879
0.0457358
0.0454656
0.0452031
0.04482
0.0425892
0.0373851
0.0326597
0.0275809
0.026445
0.0252863
0.0250182
0.0255702
0.0254595
0.030243
0.0329419
0.0378216
0.0380023
0.0388868
0.0583606
0.0982274
0.150281
0.162389
0.182352
0.240592
0.324024
0.342637
0.33913
0.333396
0.282477
0.251393
0.249045
0.257593
0.260137
0.215498
0.142727
0.104903
0.0930567
0.0954714
0.0951123
0.159088
0.143953
0.15807
0.217771
0.21356
0.192672
8.39282e-05
8.4791e-05
8.7367e-05
8.82801e-05
9.07407e-05
9.22824e-05
9.60457e-05
9.88524e-05
0.000100624
0.000104233
0.000108842
0.000114383
0.000117604
0.00011866
0.000118039
0.000116417
0.000113652
0.000112295
0.000111706
0.000111662
0.000112858
0.000115233
0.000116854
0.000118632
0.000119825
0.000119982
0.000118195
0.00011346
0.000108994
0.000106813
0.000105812
0.000105982
0.000106572
0.000106948
0.000113353
0.000126065
0.000142307
0.000155117
0.000167185
0.000174208
0.000181131
0.00018491
0.000190733
0.000197751
0.000205978
0.000234509
0.000251685
0.000286976
0.000307742
0.000348725
0.000387636
0.000414436
0.000494877
0.00055239
0.000673631
0.000760633
0.000943559
0.00105346
0.00118384
0.00140034
0.00150707
0.00177385
0.00196388
0.00226551
0.0024856
0.00269247
0.0028849
0.00292797
0.00296224
0.00300504
0.00301744
0.00300805
0.00295687
0.00290541
0.00281722
0.00275782
0.00270761
0.00265525
0.00263377
0.00263762
0.00264282
0.00255923
0.00253036
0.00254701
0.00261435
0.00276843
0.0031253
0.00358396
0.00426578
0.00596236
0.00743262
0.010326
0.0144945
0.0192876
0.03093
0.0413749
0.0639315
0.0883055
0.13444
0.187537
0.258387
0.37217
0.444825
0.462627
0.456599
0.437328
0.39819
0.333249
0.299838
0.299719
0.295852
0.276601
0.282207
0.406284
0.518542
0.569419
0.580568
0.595419
0.579133
0.43334
0.261103
0.180859
0.150103
0.139542
0.137904
0.138467
0.143272
0.155097
0.162622
0.163081
0.161803
0.15025
0.144509
0.143682
0.143913
0.152049
0.153497
0.159574
0.162905
0.162876
0.161902
0.159967
0.157036
0.149386
0.135023
0.116622
0.0918396
0.0744985
0.0629395
0.0597356
0.0562236
0.055654
0.0537354
0.0531533
0.0521614
0.0524281
0.052229
0.0522176
0.0510513
0.0462279
0.0406752
0.0342865
0.0299714
0.0293461
0.0276966
0.0269299
0.0265748
0.0275539
0.0370149
0.0390324
0.0394019
0.0396684
0.0444296
0.071312
0.130553
0.157426
0.17742
0.221047
0.321306
0.438498
0.433854
0.375156
0.355431
0.29462
0.26012
0.25824
0.261548
0.239233
0.154045
0.104849
0.0880358
0.0880181
0.102982
0.0956745
0.159266
0.159745
0.162445
0.205181
0.225825
0.205261
0.000245497
0.000258101
0.000264064
0.000268184
0.000274268
0.000276652
0.000283766
0.000292418
0.000303637
0.000339189
0.000380898
0.000440382
0.000480905
0.000502775
0.000507386
0.000503499
0.000479028
0.000427894
0.000388692
0.000365603
0.000360681
0.000385369
0.000444577
0.000487276
0.000527771
0.000548882
0.000560859
0.000562293
0.000536638
0.000510971
0.000481616
0.000469473
0.000465319
0.000473229
0.000589339
0.000729096
0.000866072
0.000985684
0.00105717
0.00111775
0.00116518
0.00118756
0.00122338
0.00126564
0.0013197
0.00152004
0.00164217
0.00188713
0.00201632
0.00223293
0.00247331
0.0026156
0.00303026
0.00333496
0.00395087
0.00432562
0.00502379
0.00555413
0.0058922
0.00674894
0.00713228
0.00787506
0.00848657
0.00919086
0.00997157
0.0103681
0.0109623
0.011088
0.0111404
0.0111016
0.0109792
0.0108897
0.0106494
0.0105009
0.0102443
0.00999207
0.00987367
0.00955428
0.00942296
0.00935936
0.00913846
0.00895776
0.0089534
0.00906606
0.00940595
0.00995463
0.0112181
0.0130509
0.015094
0.0201343
0.0244876
0.0340875
0.0437149
0.0574125
0.0849471
0.112655
0.157468
0.222817
0.296321
0.401109
0.476314
0.51322
0.511785
0.491114
0.433637
0.327184
0.231823
0.197894
0.202264
0.239353
0.263019
0.270875
0.334487
0.469221
0.52091
0.531187
0.513672
0.600371
0.62788
0.494099
0.301842
0.197759
0.161283
0.147833
0.142465
0.14267
0.147746
0.158644
0.17399
0.182236
0.181676
0.172596
0.170098
0.156133
0.157911
0.160339
0.166025
0.174083
0.175608
0.178061
0.17819
0.17486
0.170511
0.161314
0.156047
0.142522
0.13314
0.113088
0.103811
0.0881479
0.0808232
0.0749835
0.069023
0.0653586
0.0640437
0.0638393
0.0630885
0.0607815
0.0541295
0.04881
0.0422324
0.0348573
0.0316469
0.030999
0.0291898
0.0291349
0.0289524
0.0320249
0.0400581
0.0411464
0.0391985
0.0411664
0.0493979
0.0815566
0.136826
0.156732
0.197174
0.351009
0.492984
0.548079
0.470943
0.364306
0.325592
0.291011
0.250382
0.241337
0.243346
0.174689
0.110264
0.0853914
0.0831402
0.0843701
0.126527
0.101384
0.118514
0.177359
0.174751
0.189145
0.224798
0.221365
0.00306117
0.00318345
0.00319804
0.00319466
0.00315288
0.00313343
0.00315735
0.00321833
0.00335902
0.00374407
0.00404728
0.00450773
0.00476892
0.00487026
0.00489174
0.00483669
0.00471469
0.0044915
0.00430468
0.00423985
0.00420757
0.0043065
0.00462818
0.00484432
0.00511031
0.00525035
0.00535445
0.00541703
0.00539314
0.00534299
0.00524098
0.00520736
0.00519843
0.00520601
0.00562703
0.00625324
0.00684106
0.00739333
0.00771759
0.00800203
0.0082174
0.00833337
0.00847463
0.00884719
0.00917266
0.0100705
0.0105184
0.0113781
0.0119203
0.0124949
0.0134011
0.013917
0.0152768
0.0162466
0.0181623
0.0193164
0.021071
0.0226658
0.0235364
0.0257186
0.0267375
0.0286335
0.0299871
0.031522
0.0332522
0.0338036
0.0348658
0.0350061
0.0349601
0.034783
0.0343714
0.0340195
0.0331565
0.0325783
0.031627
0.0308221
0.0301498
0.0290095
0.0284747
0.0278232
0.0270859
0.0271284
0.027436
0.0281272
0.0299701
0.0320446
0.0367551
0.0414231
0.0495836
0.0624633
0.0734877
0.0976596
0.122925
0.155336
0.211297
0.274411
0.354957
0.438803
0.493108
0.52666
0.546684
0.534979
0.474982
0.318569
0.209428
0.1709
0.151184
0.1403
0.142029
0.156794
0.192309
0.262179
0.399559
0.470238
0.499631
0.431176
0.411823
0.582818
0.712846
0.603275
0.37551
0.233347
0.177216
0.158553
0.151607
0.149433
0.150921
0.159772
0.176683
0.18525
0.197191
0.20144
0.191204
0.181785
0.185881
0.178704
0.1905
0.190731
0.197578
0.198407
0.197707
0.197339
0.195798
0.18667
0.182091
0.165895
0.158128
0.136427
0.128636
0.118817
0.113613
0.0993218
0.0915573
0.0853043
0.0845274
0.0825574
0.0748445
0.0630294
0.0545678
0.049016
0.0418101
0.0352953
0.0335728
0.0327263
0.0318403
0.0301361
0.0300116
0.0343024
0.0411301
0.0412558
0.0385171
0.0402356
0.0486799
0.0865504