/*--------------------------------*- C++ -*----------------------------------*\
| =========                 |                                                 |
| \\      /  F ield         | OpenFOAM: The Open Source CFD Toolbox           |
|  \\    /   O peration     | Version:  2.4.0                                 |
|   \\  /    A nd           | Web:      www.OpenFOAM.org                      |
|    \\/     M anipulation  |                                                 |
\*---------------------------------------------------------------------------*/
FoamFile
{
    version     2.0;
    format      ascii;
    class       surfaceScalarField;
    location    "1.86";
    object      phi_0;
}
// * * * * * * * * * * * * * * * * * * * * * * * * * * * * * * * * * * * * * //

dimensions      [0 3 -1 0 0 0 0];

internalField   nonuniform List<scalar> 
17320
(
1.76383e-05
7.36166e-06
1.16198e-05
6.01853e-06
8.68183e-06
2.93798e-06
7.35431e-06
1.32752e-06
6.72053e-06
6.33778e-07
6.34373e-06
3.76792e-07
6.07352e-06
2.70211e-07
5.87456e-06
1.98959e-07
5.70982e-06
1.64747e-07
5.58105e-06
1.28765e-07
5.47729e-06
1.03762e-07
5.40538e-06
7.19077e-08
5.29327e-06
1.12115e-07
5.24288e-06
5.03856e-08
5.15164e-06
9.12442e-08
5.09014e-06
6.14934e-08
4.99202e-06
9.81241e-08
5.07174e-06
-7.97162e-08
4.80644e-06
2.65297e-07
-5.88414e-07
5.39485e-06
2.54638e-05
6.89783e-06
2.32505e-05
8.23189e-06
2.09902e-05
5.19827e-06
1.93176e-05
3.00012e-06
1.80794e-05
1.87201e-06
1.71111e-05
1.34505e-06
1.63642e-05
1.01715e-06
1.57793e-05
7.83807e-07
1.53099e-05
6.34187e-07
1.4934e-05
5.04623e-07
1.46354e-05
4.02374e-07
1.43897e-05
3.17581e-07
1.41361e-05
3.65745e-07
1.39686e-05
2.17933e-07
1.37382e-05
3.21569e-07
1.3594e-05
2.05737e-07
1.33652e-05
3.26875e-07
1.33885e-05
-1.03014e-07
1.32245e-05
4.29309e-07
-7.18295e-07
1.33544e-05
2.66246e-05
5.2732e-06
2.71559e-05
7.70059e-06
2.67819e-05
5.57232e-06
2.62493e-05
3.53267e-06
2.56106e-05
2.51071e-06
2.48693e-05
2.08638e-06
2.41608e-05
1.72561e-06
2.35097e-05
1.43493e-06
2.29355e-05
1.2084e-06
2.24451e-05
9.94971e-07
2.20413e-05
8.06219e-07
2.16847e-05
6.74125e-07
2.13476e-05
7.02934e-07
2.11061e-05
4.59388e-07
2.07945e-05
6.33144e-07
2.05854e-05
4.1488e-07
2.03192e-05
5.93074e-07
2.02114e-05
4.79895e-09
2.02079e-05
4.32799e-07
-1.10805e-06
2.05976e-05
2.63302e-05
3.94298e-06
2.7543e-05
6.48779e-06
2.80881e-05
5.02726e-06
2.84509e-05
3.16982e-06
2.86508e-05
2.31088e-06
2.86212e-05
2.11591e-06
2.84732e-05
1.87361e-06
2.82447e-05
1.66342e-06
2.79718e-05
1.48129e-06
2.769e-05
1.2768e-06
2.74439e-05
1.05232e-06
2.71726e-05
9.45424e-07
2.69026e-05
9.72903e-07
2.67072e-05
6.54791e-07
2.64285e-05
9.11879e-07
2.62007e-05
6.42675e-07
2.60194e-05
7.74434e-07
2.57234e-05
3.00767e-07
2.56654e-05
4.90769e-07
-6.70721e-07
2.52281e-05
2.60412e-05
2.90174e-06
2.72435e-05
5.28557e-06
2.80439e-05
4.22679e-06
2.85086e-05
2.70518e-06
2.89807e-05
1.8388e-06
2.93224e-05
1.77422e-06
2.95713e-05
1.62471e-06
2.97389e-05
1.49581e-06
2.98603e-05
1.3598e-06
2.9904e-05
1.23317e-06
2.99771e-05
9.79201e-07
2.99725e-05
9.50026e-07
2.99425e-05
1.00288e-06
2.99377e-05
6.59649e-07
2.98957e-05
9.53812e-07
2.97605e-05
7.77938e-07
2.98025e-05
7.32405e-07
2.94598e-05
6.43504e-07
2.93505e-05
6.00068e-07
-1.82349e-07
2.88621e-05
2.58203e-05
2.08144e-06
2.69563e-05
4.14959e-06
2.78404e-05
3.34263e-06
2.82455e-05
2.30011e-06
2.87098e-05
1.3745e-06
2.90833e-05
1.40069e-06
2.94326e-05
1.27547e-06
2.96961e-05
1.23224e-06
3.0037e-05
1.01893e-06
3.01529e-05
1.11732e-06
3.04239e-05
7.08136e-07
3.05223e-05
8.51625e-07
3.07348e-05
7.90388e-07
3.07988e-05
5.95691e-07
3.10442e-05
7.08415e-07
3.09856e-05
8.36509e-07
3.12665e-05
4.51485e-07
3.0962e-05
9.48049e-07
3.0978e-05
5.841e-07
5.20571e-07
3.0275e-05
2.5701e-05
1.38041e-06
2.67304e-05
3.12021e-06
2.7571e-05
2.50203e-06
2.80143e-05
1.85685e-06
2.8527e-05
8.61773e-07
2.8887e-05
1.04069e-06
2.91739e-05
9.88588e-07
2.94081e-05
9.97981e-07
2.98661e-05
5.60937e-07
2.99252e-05
1.05824e-06
3.02589e-05
3.74482e-07
3.03723e-05
7.38155e-07
3.07121e-05
4.5065e-07
3.07089e-05
5.98831e-07
3.1011e-05
4.06341e-07
3.10373e-05
8.10255e-07
3.13768e-05
1.11947e-07
3.10967e-05
1.22814e-06
3.10408e-05
6.39983e-07
1.4284e-06
3.0133e-05
2.55633e-05
8.17105e-07
2.65394e-05
2.14411e-06
2.73766e-05
1.66483e-06
2.80449e-05
1.18852e-06
2.84053e-05
5.01444e-07
2.86184e-05
8.27531e-07
2.89884e-05
6.18633e-07
2.93199e-05
6.66456e-07
2.95771e-05
3.03775e-07
2.98765e-05
7.5879e-07
3.00712e-05
1.79759e-07
3.02421e-05
5.6725e-07
3.04792e-05
2.13643e-07
3.06043e-05
4.7372e-07
3.07302e-05
2.80433e-07
3.10523e-05
4.88111e-07
3.11438e-05
2.04157e-08
3.14814e-05
8.90551e-07
3.17919e-05
3.2947e-07
4.00604e-07
3.28197e-05
2.54407e-05
3.76392e-07
2.64685e-05
1.11632e-06
2.73708e-05
7.62501e-07
2.79397e-05
6.19681e-07
2.82168e-05
2.24283e-07
2.8576e-05
4.68392e-07
2.88955e-05
2.99134e-07
2.92291e-05
3.32849e-07
2.94468e-05
8.60418e-08
2.97618e-05
4.43765e-07
2.99475e-05
-5.87417e-09
3.01413e-05
3.73413e-07
3.02513e-05
1.03648e-07
3.0562e-05
1.63007e-07
3.06955e-05
1.46913e-07
3.09211e-05
2.62559e-07
3.10313e-05
-8.97811e-08
3.14969e-05
4.24971e-07
3.16009e-05
2.25427e-07
-7.19592e-08
3.20735e-05
2.54266e-05
-5.02561e-08
2.64801e-05
6.28879e-08
2.72715e-05
-2.887e-08
2.78416e-05
4.9543e-08
2.82152e-05
-1.49352e-07
2.85528e-05
1.30778e-07
2.88203e-05
3.17095e-08
2.91373e-05
1.57653e-08
2.94072e-05
-1.83815e-07
2.97509e-05
1.00055e-07
2.98612e-05
-1.16145e-07
3.00929e-05
1.41736e-07
3.03008e-05
-1.04258e-07
3.04537e-05
1.00928e-08
3.05941e-05
6.49312e-09
3.08613e-05
-4.62534e-09
3.10745e-05
-3.02969e-07
3.13533e-05
1.46182e-07
3.16302e-05
-5.14772e-08
-3.53664e-07
3.19119e-05
2.54346e-05
-4.84904e-07
2.64361e-05
-9.38517e-07
2.7245e-05
-8.3783e-07
2.78953e-05
-6.00698e-07
2.82083e-05
-4.62394e-07
2.85016e-05
-1.6248e-07
2.8814e-05
-2.80766e-07
2.92263e-05
-3.96487e-07
2.93862e-05
-3.43717e-07
2.96933e-05
-2.07093e-07
2.98585e-05
-2.81312e-07
3.01131e-05
-1.12852e-07
3.02298e-05
-2.20976e-07
3.04572e-05
-2.1726e-07
3.0603e-05
-1.39365e-07
3.08866e-05
-2.88257e-07
3.10641e-05
-4.80441e-07
3.14047e-05
-1.94384e-07
3.16068e-05
-2.53605e-07
-5.97611e-07
3.18508e-05
2.54503e-05
-9.35184e-07
2.64772e-05
-1.96543e-06
2.7341e-05
-1.70169e-06
2.79346e-05
-1.19421e-06
2.81988e-05
-7.26678e-07
2.85772e-05
-5.40891e-07
2.89329e-05
-6.36427e-07
2.9232e-05
-6.9554e-07
2.94222e-05
-5.33943e-07
2.97465e-05
-5.31386e-07
2.99207e-05
-4.55557e-07
3.01581e-05
-3.5019e-07
3.02993e-05
-3.62202e-07
3.05138e-05
-4.31785e-07
3.07471e-05
-3.72671e-07
3.09572e-05
-4.9836e-07
3.10597e-05
-5.82925e-07
3.13596e-05
-4.94231e-07
3.16862e-05
-5.80228e-07
-7.4952e-07
3.18381e-05
2.55297e-05
-1.46492e-06
2.66027e-05
-3.03836e-06
2.745e-05
-2.54902e-06
2.8016e-05
-1.76022e-06
2.83053e-05
-1.01593e-06
2.86765e-05
-9.12079e-07
2.89879e-05
-9.4783e-07
2.93433e-05
-1.051e-06
2.95746e-05
-7.65253e-07
2.98464e-05
-8.03205e-07
3.00276e-05
-6.36714e-07
3.02558e-05
-5.78347e-07
3.03916e-05
-4.98063e-07
3.06458e-05
-6.85934e-07
3.08084e-05
-5.35299e-07
3.1033e-05
-7.22931e-07
3.11865e-05
-7.36406e-07
3.1513e-05
-8.20799e-07
3.17648e-05
-8.31973e-07
-9.31081e-07
3.19463e-05
2.56765e-05
-2.14139e-06
2.6748e-05
-4.10987e-06
2.75845e-05
-3.38557e-06
2.80582e-05
-2.23391e-06
2.84673e-05
-1.42503e-06
2.88569e-05
-1.30164e-06
2.91931e-05
-1.28406e-06
2.9512e-05
-1.36986e-06
2.9743e-05
-9.96262e-07
2.99947e-05
-1.05488e-06
3.01887e-05
-8.30811e-07
3.04247e-05
-8.14299e-07
3.05962e-05
-6.69608e-07
3.08013e-05
-8.90991e-07
3.09432e-05
-6.77169e-07
3.11748e-05
-9.54539e-07
3.13185e-05
-8.80099e-07
3.16371e-05
-1.13938e-06
3.18854e-05
-1.08027e-06
-1.21473e-06
3.2169e-05
2.58409e-05
-2.98228e-06
2.69515e-05
-5.22048e-06
2.77975e-05
-4.23156e-06
2.82424e-05
-2.67885e-06
2.87131e-05
-1.89565e-06
2.91081e-05
-1.69673e-06
2.94543e-05
-1.63017e-06
2.97115e-05
-1.62713e-06
2.99606e-05
-1.24538e-06
3.0168e-05
-1.2622e-06
3.03804e-05
-1.04329e-06
3.05554e-05
-9.89304e-07
3.07063e-05
-8.20445e-07
3.08409e-05
-1.02558e-06
3.09609e-05
-7.97212e-07
3.10851e-05
-1.07876e-06
3.1164e-05
-9.58984e-07
3.13888e-05
-1.3642e-06
3.15387e-05
-1.23016e-06
-1.46495e-06
3.17889e-05
2.60328e-05
-4.01509e-06
2.72305e-05
-6.41818e-06
2.80329e-05
-5.03393e-06
2.85153e-05
-3.1613e-06
2.89754e-05
-2.35571e-06
2.93256e-05
-2.04691e-06
2.95897e-05
-1.89431e-06
2.97142e-05
-1.75164e-06
2.98522e-05
-1.3834e-06
2.9897e-05
-1.30693e-06
2.99536e-05
-1.09998e-06
2.99507e-05
-9.86376e-07
2.99598e-05
-8.29496e-07
2.98961e-05
-9.61949e-07
2.98642e-05
-7.65314e-07
2.97676e-05
-9.82152e-07
2.96715e-05
-8.62812e-07
2.96029e-05
-1.2956e-06
2.95106e-05
-1.13786e-06
-1.50653e-06
2.95521e-05
2.63017e-05
-5.31679e-06
2.75412e-05
-7.65768e-06
2.80819e-05
-5.57461e-06
2.84548e-05
-3.53425e-06
2.86325e-05
-2.53336e-06
2.86296e-05
-2.04403e-06
2.84736e-05
-1.73833e-06
2.82138e-05
-1.49178e-06
2.79759e-05
-1.14556e-06
2.76831e-05
-1.01408e-06
2.74203e-05
-8.37223e-07
2.71535e-05
-7.19531e-07
2.6916e-05
-5.92031e-07
2.6633e-05
-6.78895e-07
2.64098e-05
-5.42141e-07
2.61169e-05
-6.89248e-07
2.58678e-05
-6.13737e-07
2.55238e-05
-9.51548e-07
2.52654e-05
-8.79465e-07
-1.34065e-06
2.50995e-05
2.6602e-05
-6.91882e-06
2.71607e-05
-8.21637e-06
2.67791e-05
-5.19303e-06
2.62465e-05
-3.0016e-06
2.55957e-05
-1.88256e-06
2.48796e-05
-1.32793e-06
2.41555e-05
-1.01426e-06
2.34895e-05
-8.25754e-07
2.29394e-05
-5.95434e-07
2.24391e-05
-5.13794e-07
2.20212e-05
-4.19375e-07
2.16601e-05
-3.5839e-07
2.13525e-05
-2.8443e-07
2.10284e-05
-3.54801e-07
2.07664e-05
-2.80184e-07
2.04485e-05
-3.71335e-07
2.01727e-05
-3.37924e-07
1.97439e-05
-5.22735e-07
1.93648e-05
-5.00326e-07
-4.86573e-07
1.85107e-05
2.5449e-05
-7.36777e-06
2.32485e-05
-6.01588e-06
2.0988e-05
-2.93252e-06
1.93155e-05
-1.32914e-06
1.80718e-05
-6.38816e-07
1.7116e-05
-3.7217e-07
1.63644e-05
-2.62628e-07
1.57616e-05
-2.22973e-07
1.53125e-05
-1.46324e-07
1.49298e-05
-1.3115e-07
1.46203e-05
-1.0985e-07
1.43582e-05
-9.6303e-08
1.41421e-05
-6.83602e-08
1.38976e-05
-1.10244e-07
1.3699e-05
-8.16232e-08
1.34487e-05
-1.20972e-07
1.32182e-05
-1.07491e-07
1.28739e-05
-1.78436e-07
1.25913e-05
-2.17742e-07
-8.35566e-08
1.21883e-05
1.76322e-05
1.16163e-05
8.68383e-06
7.35469e-06
6.71587e-06
6.3437e-06
6.08107e-06
5.8581e-06
5.71178e-06
5.58063e-06
5.47078e-06
5.37447e-06
5.30611e-06
5.19587e-06
5.11425e-06
4.99327e-06
4.88578e-06
4.70735e-06
4.4896e-06
4.40605e-06
5.84e-06
-3.9223e-07
-5.29223e-08
6.31618e-06
-1.51081e-07
-3.25092e-07
6.66687e-06
-4.46939e-08
-3.06003e-07
6.92204e-06
-5.12981e-08
-2.03863e-07
7.11069e-06
-1.45462e-07
-4.31916e-08
7.27228e-06
-2.54306e-07
9.27199e-08
7.42041e-06
-3.31941e-07
1.83804e-07
7.55683e-06
-3.65636e-07
2.29217e-07
7.67224e-06
-3.69718e-07
2.54314e-07
7.75783e-06
-3.57965e-07
2.72368e-07
7.81779e-06
-3.41349e-07
2.81395e-07
7.85517e-06
-3.06433e-07
2.69052e-07
7.89527e-06
-2.72284e-07
2.32181e-07
7.93669e-06
-1.82243e-07
1.4083e-07
7.98192e-06
-1.06765e-07
6.15276e-08
8.11469e-06
1.81945e-08
-1.50966e-07
8.25602e-06
1.41851e-07
-2.83178e-07
8.46794e-06
2.41889e-07
-4.53809e-07
8.78131e-06
3.5002e-07
-6.6339e-07
9.11854e-06
3.90645e-07
-7.27879e-07
9.46075e-06
3.87785e-07
-7.29988e-07
9.78009e-06
3.40988e-07
-6.60332e-07
1.00259e-05
2.71318e-07
-5.17134e-07
1.02085e-05
1.81143e-07
-3.63761e-07
1.03261e-05
1.07372e-07
-2.24904e-07
1.03862e-05
4.96937e-08
-1.09844e-07
1.04176e-05
-1.11049e-09
-3.02664e-08
1.042e-05
-2.89235e-08
2.64702e-08
1.04086e-05
-5.47737e-08
6.61977e-08
1.04002e-05
-5.65201e-08
6.49009e-08
1.04017e-05
-3.28348e-08
3.13899e-08
1.04127e-05
-1.17152e-08
6.9615e-10
1.0439e-05
1.29738e-08
-3.9323e-08
1.04895e-05
4.39853e-08
-9.44173e-08
1.05503e-05
1.0818e-07
-1.68973e-07
1.06205e-05
1.68398e-07
-2.38582e-07
1.07107e-05
2.41137e-07
-3.31348e-07
1.08168e-05
3.11697e-07
-4.17827e-07
1.09528e-05
3.85516e-07
-5.21473e-07
1.11038e-05
4.66156e-07
-6.17248e-07
1.12856e-05
5.21622e-07
-7.03373e-07
1.14931e-05
5.83847e-07
-7.91365e-07
1.17402e-05
6.04681e-07
-8.51748e-07
1.20195e-05
6.28535e-07
-9.07826e-07
1.2324e-05
5.90275e-07
-8.94768e-07
1.2638e-05
5.1152e-07
-8.25509e-07
1.2931e-05
3.73712e-07
-6.66804e-07
1.32074e-05
1.70452e-07
-4.46777e-07
1.34686e-05
-4.35778e-08
-2.17608e-07
1.36801e-05
-2.46011e-07
3.44941e-08
1.3874e-05
-4.85296e-07
2.91329e-07
1.41005e-05
-6.82638e-07
4.56198e-07
1.43481e-05
-8.42421e-07
5.94816e-07
1.45909e-05
-1.05846e-06
8.15663e-07
1.48274e-05
-1.29717e-06
1.06061e-06
1.49789e-05
-1.58773e-06
1.4363e-06
1.50487e-05
-1.77598e-06
1.70616e-06
1.51751e-05
-1.87165e-06
1.74523e-06
1.53545e-05
-2.00622e-06
1.82679e-06
1.5477e-05
-2.00867e-06
1.88617e-06
1.55563e-05
-2.01828e-06
1.93906e-06
1.56894e-05
-1.98985e-06
1.85667e-06
1.5797e-05
-1.92604e-06
1.81848e-06
1.59637e-05
-1.7391e-06
1.5724e-06
1.61763e-05
-1.44084e-06
1.22821e-06
1.64137e-05
-1.25223e-06
1.01485e-06
1.66398e-05
-1.04767e-06
8.21536e-07
1.67798e-05
-8.68571e-07
7.28652e-07
1.69279e-05
-7.25685e-07
5.77566e-07
1.72119e-05
-5.20144e-07
2.36093e-07
1.75111e-05
-2.19863e-07
-7.93506e-08
1.76106e-05
-3.42216e-09
-9.60833e-08
1.76166e-05
1.52635e-07
-1.58591e-07
1.76657e-05
2.6533e-07
-3.14446e-07
1.76545e-05
4.21878e-07
-4.10622e-07
1.75926e-05
6.04246e-07
-5.42408e-07
1.75839e-05
6.44447e-07
-6.35749e-07
1.76605e-05
8.40269e-07
-9.16883e-07
1.78334e-05
8.81684e-07
-1.05455e-06
1.81853e-05
1.00224e-06
-1.35417e-06
1.8655e-05
1.13834e-06
-1.60797e-06
1.91346e-05
1.12632e-06
-1.60596e-06
1.97483e-05
1.15631e-06
-1.77004e-06
2.04051e-05
1.15944e-06
-1.81621e-06
2.10644e-05
9.46715e-07
-1.60604e-06
2.16903e-05
7.65742e-07
-1.39161e-06
2.23423e-05
2.86209e-07
-9.38227e-07
2.2947e-05
-1.49147e-07
-4.55584e-07
2.35985e-05
-6.45647e-07
-5.80074e-09
2.42734e-05
-1.43158e-06
7.56643e-07
2.4907e-05
-2.1422e-06
1.50861e-06
2.55782e-05
-3.06523e-06
2.39408e-06
2.62881e-05
-4.17023e-06
3.46028e-06
2.69411e-05
-5.18891e-06
4.53591e-06
2.75283e-05
-6.46484e-06
5.87763e-06
2.82137e-05
-7.72867e-06
7.04331e-06
2.88697e-05
-8.765e-06
8.10896e-06
2.96372e-05
-9.95787e-06
9.19039e-06
3.04776e-05
-1.09949e-05
1.01545e-05
3.11122e-05
-1.19069e-05
1.12723e-05
3.16483e-05
-1.2735e-05
1.21988e-05
3.19478e-05
-1.32566e-05
1.29571e-05
3.18606e-05
-1.33606e-05
1.34478e-05
3.14623e-05
-1.32197e-05
1.3618e-05
3.08447e-05
-1.30249e-05
1.36425e-05
2.99742e-05
-1.23656e-05
1.32361e-05
2.89951e-05
-1.17402e-05
1.27194e-05
2.81332e-05
-1.10548e-05
1.19167e-05
2.72387e-05
-1.03491e-05
1.12436e-05
2.64171e-05
-9.49555e-06
1.03172e-05
2.57656e-05
-8.8603e-06
9.51181e-06
2.5166e-05
-8.19966e-06
8.79927e-06
2.46648e-05
-7.74415e-06
8.24528e-06
2.43761e-05
-7.44003e-06
7.72876e-06
2.41575e-05
-7.58009e-06
7.79873e-06
2.41001e-05
-7.31573e-06
7.37307e-06
2.42165e-05
-7.76645e-06
7.65011e-06
2.45619e-05
-7.8256e-06
7.48012e-06
2.51586e-05
-8.22544e-06
7.62874e-06
2.58517e-05
-8.21056e-06
7.51748e-06
2.67835e-05
-8.24192e-06
7.31018e-06
2.78069e-05
-7.74093e-06
6.71749e-06
2.89593e-05
-7.00288e-06
5.85052e-06
3.00873e-05
-5.82561e-06
4.6976e-06
3.11603e-05
-4.15572e-06
3.0827e-06
3.22051e-05
-2.49117e-06
1.44641e-06
3.30449e-05
-2.86626e-07
-5.53193e-07
3.38659e-05
1.75551e-06
-2.57653e-06
3.44989e-05
3.9702e-06
-4.60321e-06
3.49215e-05
6.16012e-06
-6.58272e-06
3.51904e-05
8.03126e-06
-8.30016e-06
3.52469e-05
1.00744e-05
-1.01309e-05
3.51717e-05
1.13494e-05
-1.12742e-05
3.49947e-05
1.29819e-05
-1.28049e-05
3.47678e-05
1.36911e-05
-1.34642e-05
3.46828e-05
1.46968e-05
-1.46119e-05
3.47132e-05
1.50398e-05
-1.50702e-05
3.48111e-05
1.5572e-05
-1.56699e-05
3.48308e-05
1.56319e-05
-1.56516e-05
3.44727e-05
1.56953e-05
-1.53372e-05
3.40434e-05
1.50012e-05
-1.45719e-05
3.32453e-05
1.43747e-05
-1.35766e-05
3.22981e-05
1.33137e-05
-1.23665e-05
3.12802e-05
1.16312e-05
-1.06133e-05
3.03382e-05
1.04731e-05
-9.53111e-06
2.95073e-05
8.47333e-06
-7.6424e-06
2.86851e-05
6.87908e-06
-6.05697e-06
2.80948e-05
5.02965e-06
-4.43931e-06
2.76373e-05
2.979e-06
-2.52151e-06
2.73817e-05
1.27453e-06
-1.01896e-06
2.72371e-05
-1.2139e-06
1.35852e-06
2.71135e-05
-3.28302e-06
3.40664e-06
2.71783e-05
-5.45192e-06
5.38713e-06
2.65928e-05
-7.9157e-06
8.50116e-06
2.57735e-05
-9.31762e-06
1.0137e-05
2.46553e-05
-1.02927e-05
1.14109e-05
2.33892e-05
-1.0985e-05
1.22511e-05
2.19587e-05
-1.07597e-05
1.21902e-05
2.09482e-05
-1.05564e-05
1.15669e-05
1.97058e-05
-9.52363e-06
1.0766e-05
1.87425e-05
-1.00145e-05
1.09778e-05
1.78905e-05
-8.23168e-06
9.08367e-06
1.74085e-05
-9.25809e-06
9.74002e-06
1.67553e-05
-5.62137e-06
6.27459e-06
1.66198e-05
-7.2828e-06
7.41835e-06
1.60686e-05
-4.66028e-06
5.2115e-06
1.61837e-05
-8.44244e-06
8.32729e-06
1.54058e-05
-4.44331e-06
5.22125e-06
1.57834e-05
-7.32713e-06
6.94946e-06
1.49392e-05
-1.54978e-06
2.39403e-06
1.58552e-05
-4.53283e-06
3.61681e-06
1.66875e-05
-4.57463e-06
3.74232e-06
1.74328e-05
-5.71706e-06
4.97178e-06
1.76627e-05
-7.80217e-06
7.5722e-06
1.67082e-05
-6.07814e-06
7.03266e-06
1.57126e-05
-3.64238e-06
4.63803e-06
1.53808e-05
-2.81655e-06
3.14833e-06
1.6827e-05
-3.99248e-06
2.54629e-06
1.81291e-05
-3.95586e-06
2.65375e-06
1.8524e-05
-3.60146e-06
3.20655e-06
1.87772e-05
-5.27168e-06
5.01847e-06
1.99465e-05
-8.55546e-06
7.38618e-06
2.17127e-05
-1.00328e-05
8.26662e-06
2.28481e-05
-7.67248e-06
6.53704e-06
2.33657e-05
-4.82695e-06
4.30938e-06
2.30583e-05
-2.43112e-06
2.73852e-06
2.29288e-05
6.99404e-08
5.95666e-08
2.32335e-05
2.66006e-06
-2.96476e-06
2.35738e-05
4.14961e-06
-4.48992e-06
2.37194e-05
5.33198e-06
-5.47762e-06
2.39011e-05
8.51144e-06
-8.69314e-06
2.37386e-05
1.35385e-05
-1.3376e-05
2.30283e-05
1.78846e-05
-1.71743e-05
2.21785e-05
2.21454e-05
-2.12956e-05
2.0949e-05
2.7838e-05
-2.66084e-05
1.94288e-05
3.24675e-05
-3.09473e-05
1.75662e-05
3.66907e-05
-3.48281e-05
1.54286e-05
4.02123e-05
-3.80747e-05
1.46305e-05
4.46295e-05
-4.38315e-05
5.1953e-05
-5.22378e-05
1.49153e-05
1.33723e-05
-4.10091e-07
1.34978e-05
-2.76593e-07
1.36076e-05
-1.545e-07
1.36853e-05
-1.29006e-07
1.37514e-05
-2.11574e-07
1.38144e-05
-3.17268e-07
1.3898e-05
-4.15568e-07
1.39819e-05
-4.49594e-07
1.40518e-05
-4.39566e-07
1.40996e-05
-4.05758e-07
1.41263e-05
-3.68018e-07
1.41415e-05
-3.21658e-07
1.41425e-05
-2.73275e-07
1.41602e-05
-1.99975e-07
1.4175e-05
-1.21552e-07
1.42206e-05
-2.73817e-08
1.42789e-05
8.35586e-08
1.4348e-05
1.72739e-07
1.44455e-05
2.52556e-07
1.45526e-05
2.83494e-07
1.46502e-05
2.90255e-07
1.47438e-05
2.47328e-07
1.48172e-05
1.97976e-07
1.48653e-05
1.33023e-07
1.49109e-05
6.17077e-08
1.49343e-05
2.63539e-08
1.49596e-05
-2.63836e-08
1.49744e-05
-4.37307e-08
1.49812e-05
-6.15707e-08
1.50036e-05
-7.89454e-08
1.50273e-05
-5.65197e-08
1.50619e-05
-4.63387e-08
1.5097e-05
-2.21273e-08
1.51427e-05
-1.75437e-09
1.52122e-05
3.86814e-08
1.52893e-05
9.13566e-08
1.53712e-05
1.59255e-07
1.54738e-05
2.09099e-07
1.55974e-05
2.61873e-07
1.57406e-05
3.22956e-07
1.59121e-05
3.50109e-07
1.61043e-05
3.91701e-07
1.63221e-05
3.86807e-07
1.65793e-05
3.7138e-07
1.68443e-05
3.25271e-07
1.71338e-05
2.21988e-07
1.74141e-05
9.3471e-08
1.76745e-05
-8.99591e-08
1.79384e-05
-3.07553e-07
1.81861e-05
-4.93667e-07
1.84185e-05
-7.17732e-07
1.86765e-05
-9.4058e-07
1.89275e-05
-1.09348e-06
1.92021e-05
-1.333e-06
1.94299e-05
-1.52499e-06
1.95866e-05
-1.74447e-06
1.97819e-05
-1.97121e-06
1.99855e-05
-2.0753e-06
2.01682e-05
-2.1889e-06
2.03056e-05
-2.14604e-06
2.04745e-05
-2.18721e-06
2.0662e-05
-2.17741e-06
2.07857e-05
-2.04973e-06
2.09534e-05
-1.90675e-06
2.11472e-05
-1.63467e-06
2.1326e-05
-1.43101e-06
2.15009e-05
-1.22256e-06
2.16358e-05
-1.00354e-06
2.17222e-05
-8.12006e-07
2.18184e-05
-6.16375e-07
2.19674e-05
-3.68874e-07
2.20909e-05
-1.26883e-07
2.20725e-05
1.70958e-07
2.20263e-05
3.11563e-07
2.20061e-05
4.42075e-07
2.19573e-05
6.53096e-07
2.18791e-05
7.22603e-07
2.18329e-05
8.86475e-07
2.17657e-05
9.48879e-07
2.17727e-05
9.9522e-07
2.18943e-05
1.01672e-06
2.20604e-05
9.60243e-07
2.2314e-05
9.02674e-07
2.27682e-05
7.0533e-07
2.32255e-05
4.89345e-07
2.37801e-05
2.1113e-07
2.43599e-05
-2.93503e-07
2.49652e-05
-7.54499e-07
2.56509e-05
-1.33131e-06
2.63298e-05
-2.11049e-06
2.70267e-05
-2.83911e-06
2.78344e-05
-3.87289e-06
2.86011e-05
-4.93701e-06
2.93402e-05
-5.92797e-06
3.01308e-05
-7.25541e-06
3.08976e-05
-8.49554e-06
3.1583e-05
-9.45043e-06
3.22355e-05
-1.06103e-05
3.27721e-05
-1.15315e-05
3.30315e-05
-1.21663e-05
3.30721e-05
-1.27755e-05
3.27691e-05
-1.29536e-05
3.21211e-05
-1.27126e-05
3.14172e-05
-1.25158e-05
3.05343e-05
-1.2142e-05
2.96453e-05
-1.14765e-05
2.88503e-05
-1.09452e-05
2.81735e-05
-1.0378e-05
2.74224e-05
-9.59798e-06
2.68286e-05
-8.90179e-06
2.63214e-05
-8.35313e-06
2.57494e-05
-7.62758e-06
2.52601e-05
-7.25487e-06
2.4866e-05
-7.04592e-06
2.44147e-05
-7.12883e-06
2.41347e-05
-7.03572e-06
2.4081e-05
-7.71273e-06
2.42633e-05
-8.0079e-06
2.46209e-05
-8.58302e-06
2.51192e-05
-8.70891e-06
2.59339e-05
-9.05663e-06
2.69128e-05
-8.71982e-06
2.81558e-05
-8.24585e-06
2.93241e-05
-6.99391e-06
3.05139e-05
-5.34559e-06
3.15617e-05
-3.53899e-06
3.24923e-05
-1.21716e-06
3.34089e-05
8.38908e-07
3.41257e-05
3.25337e-06
3.48262e-05
5.45967e-06
3.52249e-05
7.63255e-06
3.56723e-05
9.62699e-06
3.56894e-05
1.13323e-05
3.57491e-05
1.29223e-05
3.54854e-05
1.39547e-05
3.52075e-05
1.49747e-05
3.4912e-05
1.53354e-05
3.47575e-05
1.57265e-05
3.49124e-05
1.5477e-05
3.47437e-05
1.5864e-05
3.48325e-05
1.49124e-05
3.44677e-05
1.47395e-05
3.411e-05
1.36713e-05
3.34501e-05
1.22912e-05
3.27782e-05
1.1145e-05
3.20687e-05
9.18291e-06
3.1394e-05
7.55379e-06
3.08175e-05
5.6061e-06
3.02236e-05
3.57288e-06
2.99509e-05
1.5473e-06
2.95313e-05
-7.94355e-07
2.91011e-05
-2.85284e-06
2.84955e-05
-4.84627e-06
2.75078e-05
-6.92807e-06
2.64024e-05
-8.21217e-06
2.49835e-05
-8.87382e-06
2.34024e-05
-9.4039e-06
2.20443e-05
-9.40164e-06
2.09067e-05
-9.41873e-06
1.98884e-05
-8.50533e-06
1.88809e-05
-9.00697e-06
1.82085e-05
-7.55936e-06
1.74755e-05
-8.52505e-06
1.70998e-05
-5.24563e-06
1.66621e-05
-6.84519e-06
1.6299e-05
-4.29713e-06
1.64807e-05
-8.62416e-06
1.58447e-05
-3.80723e-06
1.63465e-05
-7.82895e-06
1.53832e-05
-5.86503e-07
1.67761e-05
-5.92576e-06
1.7322e-05
-5.1205e-06
1.7725e-05
-6.1201e-06
1.72642e-05
-7.34136e-06
1.62996e-05
-5.11348e-06
1.5435e-05
-2.77779e-06
1.59248e-05
-3.30636e-06
1.75418e-05
-5.60949e-06
1.87804e-05
-5.19447e-06
1.91202e-05
-3.94127e-06
1.91871e-05
-5.33859e-06
2.02847e-05
-9.65303e-06
2.16138e-05
-1.13619e-05
2.25872e-05
-8.6459e-06
2.25466e-05
-4.78638e-06
2.20331e-05
-1.91761e-06
2.20656e-05
3.74646e-08
2.26319e-05
2.0938e-06
2.34835e-05
3.29795e-06
2.38982e-05
4.91734e-06
2.39914e-05
8.41818e-06
2.3857e-05
1.36729e-05
2.33344e-05
1.84072e-05
2.28061e-05
2.26737e-05
2.21524e-05
2.84916e-05
2.11105e-05
3.35094e-05
2.02239e-05
3.75773e-05
1.93835e-05
4.10527e-05
2.19464e-05
4.20666e-05
5.4024e-05
1.98754e-05
2.03539e-05
-1.66331e-07
2.01386e-05
-6.13419e-08
2.00359e-05
-5.18193e-08
2.00592e-05
-1.52247e-07
2.01419e-05
-2.94265e-07
2.02246e-05
-3.9996e-07
2.0273e-05
-4.64019e-07
2.03e-05
-4.7654e-07
2.03083e-05
-4.47907e-07
2.03217e-05
-4.19146e-07
2.03122e-05
-3.585e-07
2.0303e-05
-3.1245e-07
2.02898e-05
-2.6014e-07
2.02783e-05
-1.8846e-07
2.02873e-05
-1.30488e-07
2.02968e-05
-3.69214e-08
2.03397e-05
4.06141e-08
2.03826e-05
1.29874e-07
2.04267e-05
2.08444e-07
2.04815e-05
2.28731e-07
2.05136e-05
2.58122e-07
2.05375e-05
2.23482e-07
2.0553e-05
1.82479e-07
2.0548e-05
1.38025e-07
2.05495e-05
6.0181e-08
2.05384e-05
3.7444e-08
2.05303e-05
-1.82914e-08
2.05268e-05
-4.02466e-08
2.05129e-05
-4.76674e-08
2.05165e-05
-8.25033e-08
2.05166e-05
-5.66785e-08
2.05323e-05
-6.19927e-08
2.05507e-05
-4.05801e-08
2.05651e-05
-1.61596e-08
2.06103e-05
-6.44487e-09
2.06575e-05
4.41663e-08
2.07294e-05
8.72672e-08
2.08087e-05
1.29823e-07
2.08987e-05
1.71939e-07
2.10252e-05
1.9639e-07
2.11582e-05
2.17089e-07
2.13244e-05
2.25498e-07
2.15099e-05
2.01379e-07
2.17138e-05
1.67491e-07
2.19433e-05
9.57731e-08
2.21842e-05
-1.89142e-08
2.24237e-05
-1.46081e-07
2.2661e-05
-3.27275e-07
2.28845e-05
-5.30989e-07
2.31224e-05
-7.31554e-07
2.33396e-05
-9.34962e-07
2.35641e-05
-1.1651e-06
2.37993e-05
-1.32869e-06
2.40112e-05
-1.54484e-06
2.42136e-05
-1.72748e-06
2.43736e-05
-1.90445e-06
2.45359e-05
-2.13349e-06
2.469e-05
-2.22936e-06
2.48095e-05
-2.30841e-06
2.49648e-05
-2.30136e-06
2.50922e-05
-2.31457e-06
2.51895e-05
-2.27472e-06
2.52863e-05
-2.14657e-06
2.53819e-05
-2.00235e-06
2.5534e-05
-1.78673e-06
2.56421e-05
-1.53909e-06
2.57528e-05
-1.33329e-06
2.58569e-05
-1.10768e-06
2.59171e-05
-8.72219e-07
2.59594e-05
-6.58653e-07
2.60175e-05
-4.2699e-07
2.60981e-05
-2.07436e-07
2.61787e-05
9.03618e-08
2.61754e-05
3.14844e-07
2.61292e-05
4.88281e-07
2.61374e-05
6.44928e-07
2.6087e-05
7.72996e-07
2.60708e-05
9.02635e-07
2.60703e-05
9.4938e-07
2.60685e-05
9.97052e-07
2.61047e-05
9.80504e-07
2.62308e-05
8.34142e-07
2.63269e-05
8.06604e-07
2.65831e-05
4.49056e-07
2.68639e-05
2.08553e-07
2.72288e-05
-1.53701e-07
2.77141e-05
-7.78846e-07
2.81806e-05
-1.22104e-06
2.87966e-05
-1.94729e-06
2.94517e-05
-2.76555e-06
3.01249e-05
-3.51236e-06
3.08974e-05
-4.64532e-06
3.15859e-05
-5.62557e-06
3.22674e-05
-6.60946e-06
3.29735e-05
-7.96152e-06
3.34305e-05
-8.95246e-06
3.37956e-05
-9.81552e-06
3.40356e-05
-1.08504e-05
3.39626e-05
-1.14584e-05
3.36989e-05
-1.19027e-05
3.3209e-05
-1.22856e-05
3.24026e-05
-1.21472e-05
3.16081e-05
-1.19182e-05
3.09568e-05
-1.18645e-05
3.01971e-05
-1.13824e-05
2.95964e-05
-1.08758e-05
2.9137e-05
-1.04857e-05
2.86031e-05
-9.8442e-06
2.80085e-05
-9.00333e-06
2.75539e-05
-8.44725e-06
2.69286e-05
-7.72784e-06
2.61909e-05
-6.88982e-06
2.55528e-05
-6.6168e-06
2.48888e-05
-6.38189e-06
2.41187e-05
-6.35878e-06
2.36443e-05
-6.5613e-06
2.34e-05
-7.46848e-06
2.32445e-05
-7.85235e-06
2.31728e-05
-8.51137e-06
2.35495e-05
-9.08562e-06
2.44261e-05
-9.93313e-06
2.56132e-05
-9.90701e-06
2.70249e-05
-9.65752e-06
2.82314e-05
-8.20038e-06
2.94687e-05
-6.58291e-06
3.04294e-05
-4.49969e-06
3.1507e-05
-2.29478e-06
3.23537e-05
-7.78851e-09
3.3091e-05
2.51612e-06
3.39101e-05
4.64054e-06
3.43939e-05
7.14877e-06
3.50919e-05
8.92899e-06
3.53857e-05
1.10385e-05
3.57454e-05
1.25626e-05
3.57197e-05
1.39805e-05
3.56545e-05
1.50398e-05
3.53521e-05
1.56378e-05
3.49157e-05
1.61629e-05
3.47755e-05
1.56172e-05
3.454e-05
1.60995e-05
3.46024e-05
1.485e-05
3.45151e-05
1.48267e-05
3.44693e-05
1.37172e-05
3.42034e-05
1.25571e-05
3.38745e-05
1.14739e-05
3.34221e-05
9.63537e-06
3.29215e-05
8.05431e-06
3.24275e-05
6.10017e-06
3.1755e-05
4.24531e-06
3.141e-05
1.8923e-06
3.06311e-05
-1.54291e-08
2.99714e-05
-2.19307e-06
2.89559e-05
-3.83078e-06
2.77514e-05
-5.72365e-06
2.62634e-05
-6.72416e-06
2.48249e-05
-7.43533e-06
2.33203e-05
-7.89925e-06
2.19573e-05
-8.03862e-06
2.07864e-05
-8.24787e-06
2.00009e-05
-7.71979e-06
1.8765e-05
-7.77115e-06
1.84304e-05
-7.22476e-06
1.75311e-05
-7.6257e-06
1.74802e-05
-5.19471e-06
1.67662e-05
-6.13122e-06
1.70351e-05
-4.56601e-06
1.67672e-05
-8.35623e-06
1.67067e-05
-3.7468e-06
1.66758e-05
-7.798e-06
1.62833e-05
-1.94011e-07
1.76596e-05
-7.30212e-06
1.76627e-05
-5.12362e-06
1.78989e-05
-6.35626e-06
1.6851e-05
-6.29344e-06
1.63524e-05
-4.6149e-06
1.62388e-05
-2.66422e-06
1.68166e-05
-3.88416e-06
1.75117e-05
-6.30455e-06
1.89597e-05
-6.64248e-06
1.98703e-05
-4.85189e-06
2.05926e-05
-6.06084e-06
2.1381e-05
-1.04414e-05
2.20557e-05
-1.20366e-05
2.28293e-05
-9.41951e-06
2.25466e-05
-4.50368e-06
2.19063e-05
-1.27728e-06
2.18012e-05
1.42582e-07
2.25615e-05
1.3335e-06
2.36204e-05
2.23904e-06
2.4284e-05
4.25367e-06
2.43192e-05
8.38305e-06
2.42265e-05
1.37655e-05
2.38326e-05
1.88012e-05
2.33952e-05
2.31111e-05
2.31542e-05
2.87326e-05
2.26085e-05
3.40551e-05
2.27003e-05
3.74856e-05
2.23426e-05
4.14104e-05
2.664e-05
3.77693e-05
5.52073e-05
2.54567e-05
2.52346e-05
-1.72876e-07
2.53027e-05
-1.29396e-07
2.5418e-05
-1.67164e-07
2.55359e-05
-2.70085e-07
2.56343e-05
-3.92735e-07
2.5674e-05
-4.39588e-07
2.56836e-05
-4.73661e-07
2.56598e-05
-4.52685e-07
2.56186e-05
-4.0671e-07
2.56031e-05
-4.03677e-07
2.55773e-05
-3.32701e-07
2.55579e-05
-2.93043e-07
2.55503e-05
-2.52572e-07
2.55168e-05
-1.54944e-07
2.55233e-05
-1.36966e-07
2.55211e-05
-3.47696e-08
2.55456e-05
1.60959e-08
2.55962e-05
7.92951e-08
2.56319e-05
1.72748e-07
2.5688e-05
1.72644e-07
2.57126e-05
2.33554e-07
2.57258e-05
2.10285e-07
2.57247e-05
1.83515e-07
2.57064e-05
1.56388e-07
2.56842e-05
8.23064e-08
2.56701e-05
5.15691e-08
2.56503e-05
1.50846e-09
2.56486e-05
-3.8537e-08
2.56371e-05
-3.61144e-08
2.5623e-05
-6.84171e-08
2.56289e-05
-6.26331e-08
2.56156e-05
-4.87087e-08
2.56288e-05
-5.3786e-08
2.56357e-05
-2.29846e-08
2.56476e-05
-1.83937e-08
2.56938e-05
-2.06022e-09
2.57377e-05
4.33769e-08
2.58154e-05
5.21247e-08
2.58946e-05
9.27347e-08
2.59888e-05
1.02268e-07
2.61181e-05
8.77858e-08
2.62479e-05
9.56682e-08
2.6411e-05
3.82269e-08
2.65816e-05
-3.06568e-09
2.67612e-05
-8.37938e-08
2.69627e-05
-2.20479e-07
2.71438e-05
-3.27104e-07
2.73388e-05
-5.22277e-07
2.75083e-05
-7.00491e-07
2.76772e-05
-9.00465e-07
2.78533e-05
-1.11112e-06
2.79917e-05
-1.3035e-06
2.81618e-05
-1.49873e-06
2.82924e-05
-1.67541e-06
2.84089e-05
-1.844e-06
2.85261e-05
-2.02172e-06
2.85703e-05
-2.17768e-06
2.86376e-05
-2.29662e-06
2.86875e-05
-2.35834e-06
2.87425e-05
-2.35629e-06
2.8788e-05
-2.36009e-06
2.87804e-05
-2.26719e-06
2.88134e-05
-2.17956e-06
2.88456e-05
-2.03452e-06
2.88803e-05
-1.82137e-06
2.89539e-05
-1.61276e-06
2.89733e-05
-1.3527e-06
2.90239e-05
-1.15827e-06
2.90509e-05
-8.99196e-07
2.90441e-05
-6.51817e-07
2.90683e-05
-4.51265e-07
2.90788e-05
-2.17927e-07
2.91612e-05
8.00979e-09
2.92388e-05
2.37212e-07
2.92345e-05
4.92542e-07
2.92692e-05
6.10281e-07
2.93195e-05
7.22727e-07
2.93431e-05
8.78963e-07
2.94385e-05
8.53976e-07
2.95215e-05
9.14123e-07
2.96165e-05
8.8552e-07
2.97991e-05
6.51528e-07
2.99522e-05
6.53462e-07
3.01923e-05
2.09014e-07
3.04502e-05
-4.93614e-08
3.07881e-05
-4.91658e-07
3.1187e-05
-1.17771e-06
3.15674e-05
-1.60146e-06
3.20982e-05
-2.47806e-06
3.25795e-05
-3.24686e-06
3.31094e-05
-4.04226e-06
3.36461e-05
-5.18201e-06
3.40183e-05
-5.99779e-06
3.44493e-05
-7.04048e-06
3.46929e-05
-8.20515e-06
3.46353e-05
-8.89481e-06
3.45997e-05
-9.77991e-06
3.43021e-05
-1.05528e-05
3.37237e-05
-1.08801e-05
3.31605e-05
-1.13395e-05
3.24534e-05
-1.15784e-05
3.16541e-05
-1.13479e-05
3.12081e-05
-1.14722e-05
3.0813e-05