/*--------------------------------*- C++ -*----------------------------------*\
| =========                 |                                                 |
| \\      /  F ield         | OpenFOAM: The Open Source CFD Toolbox           |
|  \\    /   O peration     | Version:  2.4.0                                 |
|   \\  /    A nd           | Web:      www.OpenFOAM.org                      |
|    \\/     M anipulation  |                                                 |
\*---------------------------------------------------------------------------*/
FoamFile
{
    version     2.0;
    format      ascii;
    class       volVectorField;
    location    "1.86";
    object      U;
}
// * * * * * * * * * * * * * * * * * * * * * * * * * * * * * * * * * * * * * //

dimensions      [0 1 -1 0 0 0 0];

internalField   nonuniform List<vector> 
8800
(
(8.09261 0.387929 0)
(5.45213 0.242604 0)
(3.90846 0.0431335 0)
(3.16135 -0.0155355 0)
(2.79406 -0.0184172 0)
(2.60882 -0.0110975 0)
(2.47169 -0.00522981 0)
(2.39377 -0.00292782 0)
(2.30511 -0.00109294 0)
(2.26613 -0.000807153 0)
(2.19848 -0.000339982 0)
(2.18925 -0.00116845 0)
(2.12232 0.00147589 0)
(2.12588 -0.00112995 0)
(2.05858 0.000671457 0)
(2.06722 0.000240947 0)
(1.99953 -6.18935e-05 0)
(2.01455 -0.00382995 0)
(2.02045 0.0120236 0)
(1.74207 -0.0731881 0)
(10.0802 0.837994 0)
(9.67029 0.867939 0)
(8.85617 0.507329 0)
(8.10473 0.261833 0)
(7.46755 0.137711 0)
(7.03926 0.0821336 0)
(6.65981 0.0551871 0)
(6.4418 0.03911 0)
(6.18118 0.0308756 0)
(6.07311 0.0241371 0)
(5.8727 0.0192092 0)
(5.84402 0.0143807 0)
(5.65086 0.0197729 0)
(5.67639 0.0107903 0)
(5.48341 0.0172474 0)
(5.5155 0.0115562 0)
(5.35329 0.0187969 0)
(5.36281 -0.0139925 0)
(5.32342 0.0355791 0)
(5.15407 -0.0517673 0)
(10.0431 0.629861 0)
(10.6903 0.864292 0)
(10.8313 0.601496 0)
(10.7365 0.374134 0)
(10.4082 0.254831 0)
(10.1458 0.197051 0)
(9.77089 0.154298 0)
(9.57204 0.121125 0)
(9.23654 0.0959894 0)
(9.11967 0.076469 0)
(8.83487 0.0595844 0)
(8.80674 0.0474468 0)
(8.52365 0.0512113 0)
(8.57274 0.0323978 0)
(8.29805 0.0445977 0)
(8.34194 0.0294249 0)
(8.12841 0.0449193 0)
(8.1394 -0.00936143 0)
(8.02245 0.0414787 0)
(7.99249 -0.0982665 0)
(9.94479 0.454261 0)
(10.6392 0.708168 0)
(11.0967 0.545773 0)
(11.4577 0.352834 0)
(11.4701 0.258863 0)
(11.5561 0.230759 0)
(11.3909 0.200338 0)
(11.4097 0.173347 0)
(11.1924 0.151468 0)
(11.1929 0.12563 0)
(10.9606 0.10581 0)
(10.998 0.088104 0)
(10.7282 0.091883 0)
(10.8052 0.0603111 0)
(10.5544 0.0843687 0)
(10.5775 0.051833 0)
(10.4052 0.0788915 0)
(10.3883 0.00907393 0)
(10.2473 0.0550576 0)
(10.2872 -0.106565 0)
(9.93426 0.341056 0)
(10.5151 0.573118 0)
(10.9376 0.458927 0)
(11.4155 0.299756 0)
(11.5498 0.203825 0)
(11.783 0.194762 0)
(11.7748 0.180242 0)
(11.9208 0.165044 0)
(11.8918 0.149504 0)
(12.0022 0.137205 0)
(11.9269 0.107459 0)
(12.0469 0.103473 0)
(11.9315 0.106834 0)
(12.0178 0.0716357 0)
(11.9427 0.0987295 0)
(11.9376 0.0807375 0)
(11.9122 0.0822329 0)
(11.8845 0.0554404 0)
(11.8033 0.0472218 0)
(11.8394 -0.0303499 0)
(9.96493 0.247468 0)
(10.3921 0.458328 0)
(10.8273 0.377818 0)
(11.2618 0.245737 0)
(11.4637 0.162226 0)
(11.6693 0.154653 0)
(11.7478 0.146276 0)
(11.8559 0.133285 0)
(11.955 0.1263 0)
(12.0556 0.111575 0)
(12.0959 0.095198 0)
(12.204 0.0826734 0)
(12.2447 0.0992168 0)
(12.3046 0.0603792 0)
(12.3779 0.092489 0)
(12.3851 0.0745468 0)
(12.4685 0.068373 0)
(12.4688 0.0807869 0)
(12.48 0.0729122 0)
(12.5127 -0.0195328 0)
(9.9927 0.177422 0)
(10.3373 0.350929 0)
(10.7189 0.283813 0)
(11.1096 0.214394 0)
(11.38 0.116634 0)
(11.5928 0.116398 0)
(11.7004 0.114507 0)
(11.7216 0.107422 0)
(11.8824 0.0797194 0)
(11.9668 0.114024 0)
(12.0179 0.0478402 0)
(12.1294 0.0861996 0)
(12.2118 0.0619381 0)
(12.3007 0.0551404 0)
(12.3311 0.0502147 0)
(12.3934 0.0961545 0)
(12.5004 0.0188746 0)
(12.4905 0.104799 0)
(12.5517 0.0660698 0)
(12.6007 0.153442 0)
(9.99756 0.0999487 0)
(10.2824 0.266388 0)
(10.6285 0.203816 0)
(11.0219 0.160775 0)
(11.3672 0.0612381 0)
(11.5027 0.0955753 0)
(11.5775 0.0758408 0)
(11.7327 0.101243 0)
(11.7861 0.0258175 0)
(11.879 0.0989517 0)
(11.9969 0.0276827 0)
(12.036 0.0636525 0)
(12.1243 0.0242993 0)
(12.2585 0.0711742 0)
(12.2062 0.0246877 0)
(12.3717 0.0735478 0)
(12.429 -0.00128029 0)
(12.499 0.122594 0)
(12.4568 0.0318045 0)
(12.5248 0.127822 0)
(9.98592 0.0665322 0)
(10.2362 0.155317 0)
(10.6156 0.123533 0)
(11.0256 0.0819961 0)
(11.2451 0.0406302 0)
(11.4535 0.0672506 0)
(11.5853 0.0500682 0)
(11.6751 0.0323561 0)
(11.7591 0.0336743 0)
(11.8232 0.0528102 0)
(11.9433 0.00785382 0)
(12.0102 0.049013 0)
(12.0601 0.0215838 0)
(12.1626 0.0180124 0)
(12.2515 0.0339803 0)
(12.332 0.024501 0)
(12.3396 0.000203186 0)
(12.4175 0.0584457 0)
(12.5035 0.0547831 0)
(12.3679 -0.0141687 0)
(9.98481 0.0106621 0)
(10.245 0.0626585 0)
(10.6216 0.0290499 0)
(10.9436 0.0414897 0)
(11.2294 0.00421038 0)
(11.4541 0.0240984 0)
(11.5661 0.0102907 0)
(11.6483 0.0351249 0)
(11.7086 -0.0173166 0)
(11.8287 0.0337796 0)
(11.9329 -0.00856236 0)
(11.941 0.0221898 0)
(12.0906 -0.00035957 0)
(12.1537 0.014431 0)
(12.1915 -0.00641538 0)
(12.275 0.0287919 0)
(12.3464 -0.0184267 0)
(12.4155 0.0268195 0)
(12.4049 -0.00737779 0)
(12.4254 -0.00485041 0)
(10.0027 -0.0215305 0)
(10.239 -0.0495136 0)
(10.5898 -0.0353244 0)
(10.9547 -0.0297216 0)
(11.2522 -0.0356535 0)
(11.4371 0.000352803 0)
(11.5364 -0.00291694 0)
(11.6724 -0.0291327 0)
(11.7434 -0.0215201 0)
(11.7959 -0.0129503 0)
(11.9114 -0.0167092 0)
(11.9794 0.00613031 0)
(12.0688 -0.0183737 0)
(12.1358 -0.014628 0)
(12.202 0.00746835 0)
(12.2894 -0.0252993 0)
(12.3464 -0.0450647 0)
(12.4033 -0.00208353 0)
(12.4521 -0.00265421 0)
(12.3609 -0.0425709 0)
(10.005 -0.0755118 0)
(10.2304 -0.136573 0)
(10.6229 -0.127053 0)
(11.0027 -0.0919994 0)
(11.2545 -0.0572933 0)
(11.4362 -0.035606 0)
(11.5915 -0.0486786 0)
(11.7072 -0.0494056 0)
(11.7259 -0.04777 0)
(11.8314 -0.0312735 0)
(11.9257 -0.0383573 0)
(11.9976 -0.0287291 0)
(12.0933 -0.0255527 0)
(12.1497 -0.0287849 0)
(12.2387 -0.0349197 0)
(12.343 -0.031346 0)
(12.3614 -0.0517467 0)
(12.3798 -0.0399304 0)
(12.4382 -0.0430511 0)
(12.4355 -0.0686081 0)
(9.99918 -0.115746 0)
(10.2607 -0.248812 0)
(10.6831 -0.207677 0)
(11.0425 -0.147991 0)
(11.3081 -0.0915643 0)
(11.4885 -0.0715577 0)
(11.6168 -0.0747315 0)
(11.7121 -0.0875689 0)
(11.8068 -0.0615278 0)
(11.8765 -0.0719195 0)
(11.9658 -0.0556049 0)
(12.053 -0.0412863 0)
(12.1178 -0.0440993 0)
(12.204 -0.0588066 0)
(12.2888 -0.0394567 0)
(12.3596 -0.0643221 0)
(12.4029 -0.069068 0)
(12.4455 -0.0620289 0)
(12.5034 -0.0720941 0)
(12.4446 -0.0742046 0)
(10.0233 -0.179769 0)
(10.2965 -0.350242 0)
(10.7565 -0.290998 0)
(11.0987 -0.204502 0)
(11.3973 -0.120427 0)
(11.5492 -0.108562 0)
(11.6893 -0.109263 0)
(11.7793 -0.120997 0)
(11.8801 -0.0912267 0)
(11.9324 -0.0906256 0)
(12.0426 -0.0713951 0)
(12.1061 -0.0742388 0)
(12.2069 -0.0566924 0)
(12.2768 -0.0761198 0)
(12.3469 -0.0658972 0)
(12.4147 -0.081242 0)
(12.4708 -0.0786116 0)
(12.5089 -0.102603 0)
(12.5566 -0.102082 0)
(12.5095 -0.106903 0)
(10.0666 -0.254734 0)
(10.3134 -0.454272 0)
(10.894 -0.375115 0)
(11.1738 -0.246302 0)
(11.5381 -0.165949 0)
(11.6066 -0.148516 0)
(11.8127 -0.141498 0)
(11.8286 -0.151865 0)
(11.9875 -0.110238 0)
(11.9852 -0.119405 0)
(12.1463 -0.097521 0)
(12.1531 -0.0918691 0)
(12.2833 -0.0753006 0)
(12.2771 -0.102357 0)
(12.3893 -0.0714464 0)
(12.3815 -0.104105 0)
(12.4526 -0.0967016 0)
(12.4343 -0.127649 0)
(12.4797 -0.119335 0)
(12.373 -0.145751 0)
(10.0664 -0.351146 0)
(10.3817 -0.563615 0)
(11.0538 -0.460725 0)
(11.2958 -0.295903 0)
(11.6746 -0.211474 0)
(11.6573 -0.186021 0)
(11.8978 -0.180943 0)
(11.8098 -0.17572 0)
(11.9971 -0.140607 0)
(11.8787 -0.136742 0)
(12.0455 -0.115541 0)
(11.9121 -0.1082 0)
(12.0524 -0.0897702 0)
(11.9025 -0.105394 0)
(12.0199 -0.0852511 0)
(11.8634 -0.109758 0)
(11.939 -0.0930612 0)
(11.7723 -0.137684 0)
(11.7899 -0.126964 0)
(11.5561 -0.164677 0)
(10.0152 -0.459337 0)
(10.5501 -0.703224 0)
(11.1805 -0.545936 0)
(11.3646 -0.35347 0)
(11.5689 -0.26232 0)
(11.4424 -0.224506 0)
(11.5136 -0.202131 0)
(11.2755 -0.181118 0)
(11.32 -0.142862 0)
(11.0545 -0.129049 0)
(11.0986 -0.108772 0)
(10.8332 -0.0941571 0)
(10.8972 -0.0772529 0)
(10.6194 -0.0887678 0)
(10.6974 -0.06856 0)
(10.4169 -0.0876043 0)
(10.4805 -0.0738655 0)
(10.1878 -0.117603 0)
(10.2009 -0.0935874 0)
(9.85792 -0.162837 0)
(10.0665 -0.633118 0)
(10.6506 -0.862197 0)
(10.8756 -0.60124 0)
(10.6837 -0.37409 0)
(10.4628 -0.256236 0)
(10.0769 -0.194564 0)
(9.853 -0.154512 0)
(9.47247 -0.125515 0)
(9.33766 -0.0920394 0)
(9.00866 -0.0771154 0)
(8.94728 -0.0619085 0)
(8.66657 -0.0521754 0)
(8.66941 -0.0420578 0)
(8.39635 -0.0487891 0)
(8.43759 -0.0399156 0)
(8.16132 -0.0505583 0)
(8.20604 -0.0474816 0)
(7.90563 -0.070637 0)
(7.91143 -0.0710055 0)
(7.5626 -0.0903156 0)
(10.0855 -0.838887 0)
(9.65358 -0.867331 0)
(8.87509 -0.506685 0)
(8.07872 -0.261932 0)
(7.49551 -0.138372 0)
(7.0026 -0.0813968 0)
(6.70541 -0.0542815 0)
(6.38427 -0.0425252 0)
(6.24006 -0.0284424 0)
(6.00546 -0.0243094 0)
(5.94195 -0.0203603 0)
(5.75198 -0.0179179 0)
(5.74162 -0.0136177 0)
(5.55744 -0.0200348 0)
(5.5704 -0.0160172 0)
(5.3763 -0.0226981 0)
(5.3903 -0.0217245 0)
(5.16576 -0.0335128 0)
(5.155 -0.038138 0)
(4.86089 -0.0194045 0)
(8.09153 -0.388036 0)
(5.44828 -0.242469 0)
(3.91223 -0.0428858 0)
(3.15633 0.0154032 0)
(2.80124 0.0180861 0)
(2.59667 0.0112865 0)
(2.48734 0.00576783 0)
(2.37484 0.00167429 0)
(2.3221 0.0020613 0)
(2.24459 0.000654745 0)
(2.22076 0.000250997 0)
(2.15517 -4.76231e-05 0)
(2.14971 0.000737045 0)
(2.08437 -0.00149762 0)
(2.07909 -0.000272745 0)
(2.00448 -0.00226367 0)
(1.99483 -0.00112599 0)
(1.90216 -0.00404694 0)
(1.86373 -0.00411108 0)
(1.71368 0.0110657 0)
(2.34084 -0.182405 0)
(2.42325 -0.0365561 0)
(2.55876 0.0160144 0)
(2.69224 0.0125262 0)
(2.80187 -0.0239242 0)
(2.8876 -0.0605583 0)
(2.95794 -0.0845989 0)
(3.00978 -0.0942395 0)
(3.06784 -0.0959266 0)
(3.09621 -0.0931642 0)
(3.14352 -0.0924383 0)
(3.14254 -0.0840126 0)
(3.17933 -0.0770811 0)
(3.17495 -0.0470639 0)
(3.1988 -0.0259938 0)
(3.21718 0.015061 0)
(3.24674 0.0528874 0)
(3.3209 0.080761 0)
(3.40286 0.119529 0)
(3.53644 0.133813 0)
(3.68112 0.131306 0)
(3.83833 0.118888 0)
(3.96587 0.0923888 0)
(4.07944 0.0624945 0)
(4.14132 0.0402932 0)
(4.18094 0.0227619 0)
(4.18562 0.00835866 0)
(4.18285 -0.00322551 0)
(4.16996 -0.0111134 0)
(4.16711 -0.0098869 0)
(4.13908 1.76303e-06 0)
(4.14795 0.00594521 0)
(4.15584 0.0140499 0)
(4.19076 0.0275102 0)
(4.20751 0.0522686 0)
(4.2316 0.076226 0)
(4.26784 0.101238 0)
(4.30531 0.126652 0)
(4.36512 0.152907 0)
(4.41298 0.181006 0)
(4.4859 0.205351 0)
(4.54937 0.22675 0)
(4.65026 0.239998 0)
(4.72207 0.252908 0)
(4.85114 0.240538 0)
(4.94858 0.218419 0)
(5.08365 0.169957 0)
(5.20911 0.0985739 0)
(5.30995 0.0292023 0)
(5.41158 -0.0447842 0)
(5.48115 -0.126847 0)
(5.58648 -0.191425 0)
(5.61697 -0.249573 0)
(5.75977 -0.312185 0)
(5.85213 -0.397843 0)
(5.97692 -0.485982 0)
(6.12977 -0.54828 0)
(6.06857 -0.614657 0)
(6.11728 -0.67144 0)
(6.17733 -0.636833 0)
(6.29814 -0.636854 0)
(6.25966 -0.674253 0)
(6.31373 -0.668978 0)
(6.36763 -0.549763 0)
(6.3944 -0.424662 0)
(6.48275 -0.357208 0)
(6.58852 -0.33007 0)
(6.66299 -0.292156 0)
(6.7534 -0.22326 0)
(6.88847 -0.154652 0)
(6.90366 -0.0438767 0)
(6.98949 0.0260142 0)
(7.04324 0.0531397 0)
(7.05797 0.0876252 0)
(7.12166 0.131664 0)
(7.03191 0.171438 0)
(7.10555 0.173122 0)
(7.01079 0.236873 0)
(7.12299 0.26914 0)
(7.15969 0.311222 0)
(7.36046 0.395878 0)
(7.51068 0.411586 0)
(7.76346 0.426116 0)
(7.96005 0.490853 0)
(8.29131 0.427643 0)
(8.50058 0.377904 0)
(8.79261 0.239313 0)
(9.03152 0.0816627 0)
(9.26997 -0.0747304 0)
(9.54271 -0.313889 0)
(9.86471 -0.563452 0)
(10.0197 -0.857129 0)
(10.3898 -1.24399 0)
(10.6235 -1.56961 0)
(10.9107 -1.96311 0)
(11.1567 -2.39502 0)
(11.3868 -2.73509 0)
(11.6843 -3.11735 0)
(12.0248 -3.45375 0)
(12.3035 -3.81104 0)
(12.5526 -4.14542 0)
(12.7517 -4.39118 0)
(12.8233 -4.51838 0)
(12.6857 -4.51112 0)
(12.5696 -4.51434 0)
(12.1906 -4.32156 0)
(11.8721 -4.11196 0)
(11.4526 -3.85223 0)
(11.1353 -3.63176 0)
(10.7505 -3.34182 0)
(10.4665 -3.10518 0)
(10.205 -2.88434 0)
(9.95849 -2.71654 0)
(9.79422 -2.56523 0)
(9.69876 -2.60608 0)
(9.62047 -2.49585 0)
(9.59174 -2.60444 0)
(9.68543 -2.5902 0)
(9.8181 -2.69123 0)
(10.1267 -2.67623 0)
(10.3395 -2.64876 0)
(10.8945 -2.48929 0)
(11.0837 -2.22128 0)
(11.8639 -1.86632 0)
(12.0919 -1.33962 0)
(12.6698 -0.771456 0)
(12.9367 -0.0468305 0)
(13.4266 0.618896 0)
(13.6189 1.31123 0)
(13.9072 2.05875 0)
(14.0453 2.6453 0)
(14.08 3.36902 0)
(14.119 3.75603 0)
(14.0655 4.28415 0)
(13.9789 4.49408 0)
(13.836 4.87098 0)
(13.9081 5.02972 0)
(13.8115 5.24147 0)
(14.0203 5.30141 0)
(13.8141 5.29532 0)
(13.7355 5.11268 0)
(13.5239 4.80394 0)
(13.0733 4.45492 0)
(12.8467 3.85215 0)
(12.1891 3.44167 0)
(12.1226 2.80073 0)
(11.5939 2.27467 0)
(11.3015 1.68743 0)
(11.3135 0.992872 0)
(10.7669 0.489006 0)
(11.121 -0.250285 0)
(10.6807 -1.00644 0)
(11.0005 -1.64679 0)
(10.7532 -2.54676 0)
(10.6413 -3.13578 0)
(10.1524 -3.63103 0)
(9.61246 -3.93441 0)
(9.28081 -3.82336 0)
(8.32893 -3.73769 0)
(8.63029 -3.38124 0)
(7.1471 -3.52658 0)
(8.07778 -2.9137 0)
(6.22415 -3.27981 0)
(7.76265 -2.07287 0)
(5.76041 -2.46572 0)
(7.3665 -1.61438 0)
(5.73025 -2.77729 0)
(6.92799 -1.65892 0)
(5.72088 -2.45666 0)
(6.62964 -0.831686 0)
(5.59504 -1.25044 0)
(6.61526 -1.38197 0)
(6.95966 -1.61096 0)
(6.70167 -2.55868 0)
(7.4016 -2.3112 0)
(6.37603 -1.48862 0)
(6.04635 -0.958463 0)
(6.30484 -0.995395 0)
(7.00149 -1.09456 0)
(7.32573 -1.06747 0)
(7.34823 -1.49685 0)
(7.67079 -2.32876 0)
(8.08057 -3.00556 0)
(8.8523 -2.47472 0)
(9.30535 -1.58293 0)
(9.40656 -0.917364 0)
(9.24881 -0.0854532 0)
(9.2537 0.957472 0)
(9.36698 1.60428 0)
(9.5489 1.83713 0)
(9.51738 2.69261 0)
(9.71257 4.30013 0)
(9.48356 5.6234 0)
(9.20575 6.95428 0)
(8.88819 8.74348 0)
(8.23178 10.2665 0)
(7.61348 11.6141 0)
(7.28125 12.8381 0)
(6.81048 14.4865 0)
(4.0169 17.2379 0)
(5.36123 -0.120381 0)
(5.40375 -0.0916696 0)
(5.42513 -0.0601467 0)
(5.43781 -0.0569443 0)
(5.46677 -0.0776263 0)
(5.49967 -0.109283 0)
(5.54755 -0.134035 0)
(5.58472 -0.143318 0)
(5.62862 -0.140554 0)
(5.64689 -0.132765 0)
(5.67221 -0.123006 0)
(5.67 -0.109342 0)
(5.6788 -0.0962451 0)
(5.67313 -0.070255 0)
(5.67358 -0.0470137 0)
(5.6786 -0.00831239 0)
(5.68277 0.0296382 0)
(5.69944 0.0629923 0)
(5.72624 0.0938096 0)
(5.7609 0.105112 0)
(5.81196 0.108407 0)
(5.86462 0.0916131 0)
(5.91795 0.0741761 0)
(5.96109 0.0501892 0)
(5.99136 0.0270202 0)
(6.00179 0.0132188 0)
(6.0025 -0.00460689 0)
(6.00038 -0.010355 0)
(5.99671 -0.0182509 0)
(5.99859 -0.0224765 0)
(5.99292 -0.0185403 0)
(6.00168 -0.0118573 0)
(6.01789 -0.00358666 0)
(6.04378 0.00316567 0)
(6.07474 0.020498 0)
(6.09523 0.0390374 0)
(6.13317 0.063572 0)
(6.16445 0.0838087 0)
(6.21918 0.10225 0)
(6.26878 0.126308 0)
(6.33092 0.138837 0)
(6.39237 0.159282 0)
(6.48384 0.160327 0)
(6.54605 0.16121 0)
(6.66963 0.148589 0)
(6.75069 0.115802 0)
(6.87457 0.0756721 0)
(6.98957 0.0150727 0)
(7.09122 -0.0604044 0)
(7.20919 -0.124341 0)
(7.28604 -0.199614 0)
(7.40028 -0.275043 0)
(7.48391 -0.323563 0)
(7.5874 -0.401128 0)
(7.71948 -0.46227 0)
(7.81775 -0.535579 0)
(7.96853 -0.625403 0)
(7.9687 -0.666826 0)
(8.09243 -0.687149 0)
(8.13141 -0.669013 0)
(8.19998 -0.707727 0)
(8.2383 -0.697086 0)
(8.33053 -0.636987 0)
(8.36948 -0.581918 0)
(8.39768 -0.496112 0)
(8.4465 -0.467379 0)
(8.53208 -0.390946 0)
(8.61785 -0.315745 0)
(8.64727 -0.24487 0)
(8.75398 -0.171006 0)
(8.76448 -0.110994 0)
(8.7986 -0.0432627 0)
(8.81886 0.0484973 0)
(8.8087 0.0867477 0)
(8.83697 0.114296 0)
(8.81253 0.198664 0)
(8.79041 0.205241 0)
(8.77955 0.268861 0)
(8.73485 0.284962 0)
(8.69899 0.294576 0)
(8.75489 0.307514 0)
(8.77689 0.292359 0)
(8.85662 0.277021 0)
(9.00382 0.250571 0)
(9.16861 0.180819 0)
(9.36962 0.129628 0)
(9.61521 -0.0262699 0)
(9.82148 -0.187987 0)
(10.1077 -0.350199 0)
(10.3594 -0.606165 0)
(10.6599 -0.854485 0)
(10.9153 -1.16374 0)
(11.2923 -1.48835 0)
(11.5691 -1.80421 0)
(11.859 -2.21103 0)
(12.2455 -2.63694 0)
(12.4607 -2.95409 0)
(12.7583 -3.336 0)
(13.0348 -3.72914 0)
(13.1702 -3.99814 0)
(13.2361 -4.25324 0)
(13.2641 -4.40891 0)
(13.0294 -4.40155 0)
(12.7354 -4.32978 0)
(12.4983 -4.22937 0)
(12.0419 -3.99675 0)
(11.7658 -3.76382 0)
(11.4328 -3.57522 0)
(11.1902 -3.33887 0)
(10.8539 -3.0767 0)
(10.6863 -2.90056 0)
(10.4436 -2.68246 0)
(10.1864 -2.53964 0)
(10.0588 -2.44784 0)
(9.84767 -2.49526 0)
(9.68656 -2.42587 0)
(9.57064 -2.5933 0)
(9.58992 -2.65945 0)
(9.67531 -2.84483 0)
(9.84279 -2.86219 0)
(10.0359 -2.91749 0)
(10.5084 -2.76868 0)
(10.7558 -2.56205 0)
(11.5518 -2.19004 0)
(11.7617 -1.65029 0)
(12.4633 -1.13988 0)
(12.6935 -0.35923 0)
(13.2122 0.30316 0)
(13.4424 1.03883 0)
(13.8139 1.82365 0)
(14.0168 2.48609 0)
(14.1679 3.23925 0)
(14.3302 3.74906 0)
(14.2702 4.35032 0)
(14.3416 4.62363 0)
(14.0779 4.94842 0)
(14.1484 5.07646 0)
(13.782 5.23698 0)
(13.9922 5.23034 0)
(13.9013 5.32004 0)
(13.8729 5.14375 0)
(13.9342 4.98645 0)
(13.6479 4.73613 0)
(13.6351 4.18465 0)
(13.1631 3.81623 0)
(13.0502 3.15541 0)
(12.7817 2.59178 0)
(12.2505 1.96534 0)
(12.5232 1.22918 0)
(11.7127 0.605619 0)
(12.2272 -0.219458 0)
(11.4672 -0.856191 0)
(11.8914 -1.58731 0)
(11.033 -2.37671 0)
(11.0704 -2.935 0)
(10.3141 -3.12943 0)
(9.76147 -3.36461 0)
(9.24267 -3.3393 0)
(8.40223 -3.39846 0)
(8.58616 -2.96632 0)
(7.26623 -3.23556 0)
(8.18023 -2.59547 0)
(6.27079 -3.07673 0)
(7.92608 -1.82187 0)
(5.74638 -2.47747 0)
(7.61713 -1.40648 0)
(5.5814 -2.91739 0)
(7.39409 -1.38017 0)
(5.62659 -2.72809 0)
(7.11425 -0.459612 0)
(5.51873 -1.70978 0)
(7.35303 -1.68473 0)
(6.89394 -1.95312 0)
(6.95597 -2.61679 0)
(7.10058 -1.90199 0)
(6.18907 -1.1385 0)
(6.08385 -0.876908 0)
(6.64907 -1.63895 0)
(7.32007 -1.59511 0)
(7.39994 -1.24447 0)
(7.80315 -1.49511 0)
(7.83718 -2.70929 0)
(8.1948 -3.51096 0)
(8.89139 -2.8229 0)
(9.15058 -1.75439 0)
(9.037 -0.765717 0)
(8.85287 0.00336677 0)
(8.88851 0.804869 0)
(9.19647 1.3431 0)
(9.56708 1.75044 0)
(9.63655 2.63464 0)
(9.71476 4.2464 0)
(9.6061 5.85148 0)
(9.37168 7.19083 0)
(9.25951 9.07556 0)
(8.97404 10.6983 0)
(8.27815 12.084 0)
(8.31384 13.2034 0)
(9.16653 14.6287 0)
(6.51112 18.6305 0)
(8.03774 -0.0841404 0)
(8.03892 -0.0447169 0)
(8.03659 -0.0321919 0)
(8.02941 -0.0463656 0)
(8.03222 -0.0866472 0)
(8.05234 -0.119816 0)
(8.08075 -0.146932 0)
(8.1167 -0.15109 0)
(8.1372 -0.146689 0)
(8.1527 -0.136466 0)
(8.15299 -0.123076 0)
(8.146 -0.107912 0)
(8.13766 -0.0888641 0)
(8.12239 -0.0691071 0)
(8.12021 -0.0399656 0)
(8.10785 -0.0143977 0)
(8.11829 0.0180567 0)
(8.11314 0.044354 0)
(8.13515 0.0694125 0)
(8.1471 0.0817214 0)
(8.17005 0.0860066 0)
(8.20192 0.0775636 0)
(8.2143 0.061815 0)
(8.24912 0.0443782 0)
(8.24278 0.0189984 0)
(8.25426 0.00808263 0)
(8.23822 -0.00913726 0)
(8.22525 -0.016777 0)
(8.21973 -0.0192054 0)
(8.19938 -0.0304351 0)
(8.20553 -0.0221678 0)
(8.19109 -0.0216405 0)
(8.2091 -0.0131011 0)
(8.21128 -0.00450408 0)
(8.23689 0.00340663 0)
(8.25541 0.0170342 0)
(8.27098 0.0372947 0)
(8.31083 0.0532882 0)
(8.33473 0.0669284 0)
(8.38504 0.0839646 0)
(8.44082 0.0895278 0)
(8.47469 0.0971116 0)
(8.57155 0.0960336 0)
(8.60818 0.0830589 0)
(8.71321 0.0659616 0)
(8.79305 0.0315634 0)
(8.87663 -0.0139194 0)
(8.99556 -0.0683828 0)
(9.0698 -0.140497 0)
(9.18208 -0.206089 0)
(9.26924 -0.274413 0)
(9.35064 -0.352041 0)
(9.46219 -0.39973 0)
(9.53232 -0.477838 0)
(9.64824 -0.535429 0)
(9.73873 -0.593088 0)
(9.83372 -0.684369 0)
(9.89359 -0.70144 0)
(9.97268 -0.740219 0)
(9.9838 -0.752233 0)
(10.052 -0.753983 0)
(10.0731 -0.747583 0)
(10.146 -0.694331 0)
(10.1447 -0.670055 0)
(10.1544 -0.61219 0)
(10.2122 -0.519776 0)
(10.2289 -0.45839 0)
(10.3276 -0.362039 0)
(10.3094 -0.28688 0)
(10.3813 -0.226458 0)
(10.3908 -0.144289 0)
(10.4488 -0.0726749 0)
(10.4364 0.0187944 0)
(10.4653 0.100025 0)
(10.4445 0.140524 0)
(10.491 0.19832 0)
(10.4498 0.246672 0)
(10.456 0.277307 0)
(10.4515 0.301463 0)
(10.4217 0.323466 0)
(10.4426 0.316209 0)
(10.4952 0.287047 0)
(10.4759 0.276945 0)
(10.6081 0.176733 0)
(10.6751 0.100325 0)
(10.791 0.00595096 0)
(10.9906 -0.174234 0)
(11.1522 -0.327712 0)
(11.366 -0.535847 0)
(11.6362 -0.803242 0)
(11.8778 -1.02578 0)
(12.1786 -1.35273 0)
(12.5204 -1.69489 0)
(12.7308 -1.99111 0)
(13.0356 -2.42374 0)
(13.349 -2.83187 0)
(13.4268 -3.14134 0)
(13.5864 -3.52905 0)
(13.6719 -3.82469 0)
(13.5539 -4.00629 0)
(13.438 -4.19004 0)
(13.2126 -4.2426 0)
(12.8198 -4.12283 0)
(12.5487 -4.05531 0)
(12.2988 -3.92197 0)
(11.9494 -3.71456 0)
(11.8171 -3.55606 0)
(11.5954 -3.38707 0)
(11.3833 -3.11175 0)
(11.1361 -2.89939 0)
(11.0014 -2.72961 0)
(10.6516 -2.46397 0)
(10.3624 -2.32946 0)
(10.153 -2.25763 0)
(9.79762 -2.27186 0)
(9.52818 -2.24499 0)
(9.33718 -2.5003 0)
(9.29396 -2.63602 0)
(9.19438 -2.82405 0)
(9.16938 -2.88426 0)
(9.42104 -3.08935 0)
(9.88915 -3.0311 0)
(10.3184 -2.94932 0)
(11.1337 -2.53106 0)
(11.3026 -1.99442 0)
(12.0921 -1.39275 0)
(12.2294 -0.630279 0)
(12.8521 0.0110729 0)
(13.0029 0.820687 0)
(13.4418 1.53393 0)
(13.6648 2.31241 0)
(13.866 2.9697 0)
(14.142 3.62502 0)
(14.2153 4.22233 0)
(14.37 4.67007 0)
(14.219 5.06916 0)
(14.3264 5.1965 0)
(14.0011 5.3605 0)
(13.9394 5.21291 0)
(13.8472 5.38099 0)
(13.8096 5.03099 0)
(13.7866 5.01241 0)
(13.8536 4.72908 0)
(13.6761 4.31267 0)
(13.7215 3.96378 0)
(13.3978 3.35051 0)
(13.4653 2.7759 0)
(12.91 2.14051 0)
(13.0731 1.47129 0)
(12.4924 0.705809 0)
(12.6251 -0.000510116 0)
(12.0639 -0.729426 0)
(11.9938 -1.35304 0)
(11.3845 -2.02516 0)
(10.9506 -2.4442 0)
(10.3888 -2.70984 0)
(9.54029 -2.87995 0)
(9.42667 -2.91891 0)
(8.17646 -2.96799 0)
(8.73975 -2.73649 0)
(7.19519 -2.81722 0)
(8.21306 -2.45626 0)
(6.33599 -2.79163 0)
(8.01276 -1.80352 0)
(5.8255 -2.21702 0)
(7.81069 -1.34448 0)
(5.74751 -2.93048 0)
(7.72641 -1.21725 0)
(5.81143 -2.80926 0)
(7.30127 -0.103186 0)
(5.97942 -2.06507 0)
(7.66152 -1.71608 0)
(6.87819 -2.07139 0)
(7.14311 -2.31724 0)
(6.70938 -1.80616 0)
(6.40732 -0.914511 0)
(6.52419 -1.09356 0)
(6.99102 -1.95635 0)
(7.06476 -1.96325 0)
(7.57183 -1.40231 0)
(8.28422 -1.52486 0)
(8.43059 -3.07985 0)
(8.68435 -3.84314 0)
(9.02639 -3.20684 0)
(9.18431 -1.75614 0)
(9.10968 -0.60335 0)
(8.74376 0.0127065 0)
(8.75994 0.69264 0)
(9.236 1.0105 0)
(9.64654 1.5025 0)
(9.85066 2.55443 0)
(9.80566 4.26176 0)
(9.87596 5.91878 0)
(9.5454 7.32407 0)
(9.50248 9.22081 0)
(9.60305 11.0461 0)
(9.08881 12.4454 0)
(8.57536 13.6073 0)
(11.187 13.754 0)
(8.77238 19.0219 0)
(10.3286 -0.0637127 0)
(10.2947 -0.0170754 0)
(10.2247 -0.0177328 0)
(10.1884 -0.0508514 0)
(10.1768 -0.0924719 0)
(10.2065 -0.126822 0)
(10.2366 -0.143243 0)
(10.2642 -0.153786 0)
(10.2803 -0.144333 0)
(10.2727 -0.142183 0)
(10.2728 -0.11807 0)
(10.2497 -0.101509 0)
(10.2442 -0.0862711 0)
(10.2214 -0.054642 0)
(10.212 -0.0466103 0)
(10.198 -0.0105522 0)
(10.1962 0.00654766 0)
(10.2007 0.0333427 0)
(10.2137 0.0651813 0)
(10.237 0.069626 0)
(10.2461 0.0877756 0)
(10.2888 0.0793331 0)
(10.2737 0.0653479 0)
(10.3192 0.0563387 0)
(10.2917 0.0276212 0)
(10.3061 0.0208451 0)
(10.296 0.00404895 0)
(10.2669 -0.00914869 0)
(10.2814 -0.00784839 0)
(10.2397 -0.0229243 0)
(10.251 -0.0156172 0)
(10.2419 -0.0177339 0)
(10.229 -0.0161012 0)
(10.2569 -0.00338121 0)
(10.2397 -0.00658897 0)
(10.2814 0.00981908 0)
(10.2769 0.0210103 0)
(10.3121 0.0305103 0)
(10.3388 0.0493276 0)
(10.369 0.0488438 0)
(10.4255 0.0575191 0)
(10.4555 0.0567685 0)
(10.5277 0.0428082 0)
(10.5736 0.0316979 0)
(10.6432 0.00470064 0)
(10.7243 -0.0365398 0)
(10.7752 -0.0757621 0)
(10.8777 -0.137598 0)
(10.9359 -0.197969 0)
(11.0117 -0.268834 0)
(11.0937 -0.33171 0)
(11.1485 -0.40469 0)
(11.221 -0.466297 0)
(11.2943 -0.525423 0)
(11.3392 -0.589598 0)
(11.4194 -0.644176 0)
(11.4629 -0.703011 0)
(11.4991 -0.742645 0)
(11.5397 -0.772347 0)
(11.5151 -0.786229 0)
(11.5573 -0.786098 0)
(11.539 -0.760039 0)
(11.5531 -0.744235 0)
(11.5342 -0.700828 0)
(11.5312 -0.633532 0)
(11.5457 -0.548479 0)
(11.5474 -0.460002 0)
(11.5839 -0.395282 0)
(11.5805 -0.310726 0)
(11.5823 -0.241108 0)
(11.6281 -0.159093 0)
(11.6351 -0.0829603 0)
(11.6503 -0.0026222 0)
(11.6785 0.070189 0)
(11.6608 0.151974 0)
(11.7215 0.193329 0)
(11.7262 0.238119 0)
(11.7293 0.285293 0)
(11.7841 0.293663 0)
(11.7869 0.314783 0)
(11.8165 0.322488 0)
(11.9166 0.251693 0)
(11.9063 0.255398 0)
(12.0471 0.127527 0)
(12.1271 0.0255555 0)
(12.2118 -0.0777528 0)
(12.4084 -0.302015 0)
(12.5286 -0.4405 0)
(12.6957 -0.682669 0)
(12.9532 -0.957667 0)
(13.0983 -1.17415 0)
(13.3529 -1.54442 0)
(13.5659 -1.87298 0)
(13.6592 -2.17643 0)
(13.8785 -2.62253 0)
(13.9191 -2.94313 0)
(13.8495 -3.23246 0)
(13.8478 -3.56755 0)
(13.6699 -3.72814 0)
(13.3999 -3.86544 0)
(13.1887 -4.00127 0)
(12.8601 -3.90914 0)
(12.5628 -3.83829 0)
(12.4584 -3.86429 0)
(12.253 -3.70003 0)
(12.0653 -3.55308 0)
(12.0685 -3.45846 0)
(11.8936 -3.22719 0)
(11.6446 -2.91562 0)
(11.5005 -2.74115 0)
(11.2158 -2.46061 0)
(10.7516 -2.14293 0)
(10.4569 -2.04871 0)
(10.0949 -1.9496 0)
(9.5514 -1.90445 0)
(9.22924 -1.99687 0)
(8.97782 -2.32222 0)
(8.70129 -2.44011 0)
(8.30363 -2.63153 0)
(8.26435 -2.93833 0)
(8.73102 -3.36882 0)
(9.28226 -3.50635 0)
(10.0061 -3.54217 0)
(10.6936 -3.06885 0)
(10.9326 -2.54268 0)
(11.7127 -1.74728 0)
(11.6288 -1.0276 0)
(12.4013 -0.229303 0)
(12.3351 0.617119 0)
(13.0138 1.28629 0)
(12.9747 2.18863 0)
(13.4416 2.74614 0)
(13.5078 3.48162 0)
(13.8525 3.98672 0)
(13.9567 4.53813 0)
(14.0884 4.96273 0)
(14.1842 5.2315 0)
(14.0444 5.49275 0)
(14.0941 5.26613 0)
(13.7258 5.47754 0)
(13.8863 5.0394 0)
(13.4181 4.99675 0)
(13.8118 4.65488 0)
(13.3506 4.28817 0)
(13.6846 3.96226 0)
(13.3019 3.39638 0)
(13.4252 2.88186 0)
(13.1215 2.2144 0)
(12.9776 1.67131 0)
(12.8348 0.831549 0)
(12.3637 0.231515 0)
(12.3535 -0.534852 0)
(11.6186 -1.00482 0)
(11.5276 -1.64096 0)
(10.4607 -1.9728 0)
(10.5474 -2.26291 0)
(9.17397 -2.38274 0)
(9.64424 -2.46124 0)
(7.88762 -2.56917 0)
(9.13105 -2.5007 0)
(7.01322 -2.35963 0)
(8.58342 -2.41912 0)
(6.30614 -2.39806 0)
(8.21768 -1.82873 0)
(5.80992 -1.89922 0)
(8.22181 -1.54571 0)
(5.76845 -2.64805 0)
(8.07892 -1.27643 0)
(5.66122 -2.58283 0)
(7.40862 -0.06825 0)
(6.18748 -2.46301 0)
(7.57459 -1.74314 0)
(6.89687 -2.12356 0)
(7.00192 -1.91507 0)
(6.5632 -1.57077 0)
(6.39872 -0.882282 0)
(7.08237 -1.19773 0)
(6.93634 -1.84221 0)
(6.43856 -2.47116 0)
(7.84147 -1.79216 0)
(8.70333 -1.85097 0)
(9.10886 -3.15802 0)
(9.3294 -3.97793 0)
(9.37151 -3.45814 0)
(9.45564 -1.7322 0)
(9.48466 -0.397002 0)
(9.10746 0.197876 0)
(9.0834 0.430807 0)
(9.37357 0.658926 0)
(9.87242 1.18122 0)
(9.98682 2.50042 0)
(9.95464 4.27261 0)
(9.88208 6.01855 0)
(9.80939 7.44321 0)
(9.60819 9.16623 0)
(10.0108 11.1471 0)
(10.1712 12.4477 0)
(8.77868 14.0132 0)
(12.0083 12.1895 0)
(10.2264 18.5516 0)
(11.9278 -0.0284103 0)
(11.8817 -0.0466418 0)
(11.7928 -0.0763698 0)
(11.7527 -0.106367 0)
(11.7305 -0.149204 0)
(11.7581 -0.150246 0)
(11.7799 -0.158783 0)
(11.7934 -0.154822 0)
(11.8039 -0.137924 0)
(11.7894 -0.141228 0)
(11.7748 -0.121839 0)
(11.7645 -0.10492 0)
(11.7418 -0.096656 0)
(11.7414 -0.0578993 0)
(11.7293 -0.049359 0)
(11.7108 -0.0199576 0)
(11.724 0.0038662 0)
(11.7084 0.00848501 0)
(11.7245 0.0440124 0)
(11.7572 0.0391347 0)
(11.7497 0.0597211 0)
(11.8155 0.0573899 0)
(11.7996 0.0545109 0)
(11.8341 0.0464749 0)
(11.8434 0.0281641 0)
(11.8187 0.0148803 0)
(11.8499 0.00154879 0)
(11.7938 -0.013363 0)
(11.822 -0.015686 0)
(11.7858 -0.0165474 0)
(11.7927 -0.0259178 0)
(11.7936 -0.0126784 0)
(11.784 -0.0180156 0)
(11.8028 -0.012545 0)
(11.7987 -0.00370277 0)
(11.8149 -0.0102521 0)
(11.8274 0.00772522 0)
(11.8376 0.00432214 0)
(11.8686 0.0127726 0)
(11.8812 0.0187544 0)
(11.9397 0.0044847 0)
(11.956 0.010809 0)
(12.0246 -0.0137138 0)
(12.0654 -0.030191 0)
(12.1111 -0.0508792 0)
(12.1922 -0.101693 0)
(12.213 -0.129316 0)
(12.2987 -0.193049 0)
(12.3288 -0.251503 0)
(12.3873 -0.308183 0)
(12.4297 -0.382863 0)
(12.4667 -0.437937 0)
(12.4971 -0.502909 0)
(12.5421 -0.560823 0)
(12.5364 -0.606943 0)
(12.5835 -0.669052 0)
(12.5671 -0.705767 0)
(12.5758 -0.747683 0)
(12.5586 -0.778021 0)
(12.5045 -0.778226 0)
(12.508 -0.781717 0)
(12.4205 -0.757893 0)
(12.4158 -0.735132 0)
(12.3494 -0.692575 0)
(12.3224 -0.616154 0)
(12.3015 -0.556655 0)
(12.2695 -0.462196 0)
(12.261 -0.405772 0)
(12.2695 -0.32882 0)
(12.234 -0.229283 0)
(12.2909 -0.174125 0)
(12.274 -0.0878452 0)
(12.2946 -0.0187904 0)
(12.3239 0.0321178 0)
(12.3177 0.124803 0)
(12.3766 0.175406 0)
(12.4211 0.195593 0)
(12.4635 0.276326 0)
(12.5422 0.257754 0)
(12.586 0.273175 0)
(12.6559 0.286497 0)
(12.7519 0.183501 0)
(12.7923 0.193193 0)
(12.9374 0.0410548 0)
(13.0116 -0.0560727 0)
(13.1352 -0.177853 0)
(13.2857 -0.414297 0)
(13.4062 -0.536774 0)
(13.5159 -0.823206 0)
(13.7097 -1.06742 0)
(13.7661 -1.32091 0)
(13.9285 -1.70257 0)
(13.9559 -1.94841 0)
(13.9853 -2.3081 0)
(14.0168 -2.6914 0)
(13.8472 -2.88836 0)
(13.7249 -3.18916 0)
(13.5893 -3.43197 0)
(13.2739 -3.52453 0)
(13.0996 -3.68492 0)
(12.9126 -3.74489 0)
(12.6303 -3.64923 0)
(12.5817 -3.75116 0)
(12.5664 -3.78279 0)
(12.3682 -3.56517 0)
(12.3379 -3.49881 0)
(12.3537 -3.37231 0)
(12.071 -3.00286 0)
(11.8621 -2.73266 0)
(11.7312 -2.5209 0)
(11.2132 -2.08243 0)
(10.7455 -1.80481 0)
(10.4105 -1.70706 0)
(9.73863 -1.50636 0)
(9.08821 -1.45598 0)
(8.77671 -1.75641 0)
(8.27157 -1.97981 0)
(7.57817 -2.0328 0)
(7.15245 -2.50526 0)
(7.49331 -3.28739 0)
(8.16931 -3.93643 0)
(8.82038 -4.19294 0)
(9.63181 -4.11391 0)
(10.026 -3.54369 0)
(10.449 -2.98489 0)
(10.9407 -2.12142 0)
(10.907 -1.51298 0)
(11.6964 -0.490138 0)
(11.4515 0.254024 0)
(12.4265 1.0481 0)
(12.1256 1.92358 0)
(12.8661 2.55024 0)
(12.7314 3.34947 0)
(13.2641 3.81197 0)
(13.2627 4.39946 0)
(13.5009 4.76982 0)
(13.793 5.15592 0)
(13.6221 5.42559 0)
(14.0112 5.39245 0)
(13.511 5.50307 0)
(13.9408 5.19594 0)
(13.2216 5.00387 0)
(13.6289 4.70456 0)
(13.1253 4.24629 0)
(13.3323 3.94201 0)
(13.0875 3.36792 0)
(13.0234 2.91719 0)
(12.9591 2.2866 0)
(12.5934 1.8135 0)
(12.6772 1.0179 0)
(11.9732 0.478905 0)
(12.0988 -0.186422 0)
(11.2264 -0.693674 0)
(11.3205 -1.14819 0)
(10.1259 -1.57743 0)
(10.3643 -1.73899 0)
(9.05306 -1.99078 0)