/*--------------------------------*- C++ -*----------------------------------*\
| =========                 |                                                 |
| \\      /  F ield         | OpenFOAM: The Open Source CFD Toolbox           |
|  \\    /   O peration     | Version:  2.4.0                                 |
|   \\  /    A nd           | Web:      www.OpenFOAM.org                      |
|    \\/     M anipulation  |                                                 |
\*---------------------------------------------------------------------------*/
FoamFile
{
    version     2.0;
    format      ascii;
    class       volScalarField;
    location    "0.89";
    object      nuSgs;
}
// * * * * * * * * * * * * * * * * * * * * * * * * * * * * * * * * * * * * * //

dimensions      [0 2 -1 0 0 0 0];

internalField   nonuniform List<scalar> 
8800
(
0.0013393
0.00150607
0.00139346
0.00122764
0.00112295
0.00104755
0.00100052
0.000956423
0.00093036
0.00089963
0.000885307
0.000862555
0.000853672
0.000835606
0.000827989
0.000813455
0.000803
0.000790764
0.00078037
0.00075403
0.000556907
0.000980709
0.00108386
0.00108072
0.00106464
0.00103034
0.00100566
0.000972847
0.000954204
0.000925876
0.000913208
0.000890195
0.000881763
0.000863712
0.00085738
0.000843612
0.00083653
0.000826972
0.000814752
0.00081048
0.000136522
0.000402326
0.000587934
0.000654345
0.000709196
0.00073396
0.000753945
0.000757784
0.000761634
0.000757882
0.000756121
0.000748949
0.000746788
0.000738951
0.000736901
0.000730069
0.000728546
0.000723163
0.000719868
0.000712696
2.7196e-05
0.000124396
0.000240582
0.000302339
0.000359298
0.000394539
0.000429568
0.000451996
0.000477479
0.000490473
0.000507951
0.000515189
0.000529247
0.000534525
0.000544112
0.000548225
0.000556896
0.000559974
0.000567499
0.000566505
5.19836e-06
3.31432e-05
7.5185e-05
0.000105536
0.000135994
0.000167612
0.000188174
0.000214177
0.00023089
0.000252697
0.000264641
0.000280929
0.000291176
0.000308545
0.000316178
0.000331348
0.000339412
0.000355359
0.000362303
0.000377604
2.34964e-06
8.27558e-06
1.8779e-05
3.0797e-05
3.87636e-05
5.30505e-05
6.1611e-05
7.73932e-05
8.52483e-05
0.000100043
0.000106638
0.000119284
0.000124979
0.000137711
0.000143291
0.000155345
0.000161469
0.000174574
0.000179781
0.000193143
2.18992e-06
3.10462e-06
5.18897e-06
8.46227e-06
1.02811e-05
1.36823e-05
1.6164e-05
2.14794e-05
2.42715e-05
2.96468e-05
3.2402e-05
3.76286e-05
3.99771e-05
4.57607e-05
4.85365e-05
5.45885e-05
5.79074e-05
6.46613e-05
6.74338e-05
7.40525e-05
2.15875e-06
2.67346e-06
3.54218e-06
3.90561e-06
4.41522e-06
4.99793e-06
5.31306e-06
6.34449e-06
6.92626e-06
7.82753e-06
8.92727e-06
9.98561e-06
1.03981e-05
1.17785e-05
1.25974e-05
1.44849e-05
1.55149e-05
1.7556e-05
1.83266e-05
1.97982e-05
2.13954e-06
2.46009e-06
3.33293e-06
3.79335e-06
3.77116e-06
3.8397e-06
4.08103e-06
4.17977e-06
4.3455e-06
4.43733e-06
4.48234e-06
4.60541e-06
4.68599e-06
4.93522e-06
4.98841e-06
5.15583e-06
5.24604e-06
5.42823e-06
5.49109e-06
5.71728e-06
2.13118e-06
2.52046e-06
2.85509e-06
3.61872e-06
3.82824e-06
3.75532e-06
3.71524e-06
3.79226e-06
3.93899e-06
4.07647e-06
4.11673e-06
4.1039e-06
4.07911e-06
4.11926e-06
4.13873e-06
4.1548e-06
4.21943e-06
4.2362e-06
4.2324e-06
4.27511e-06
2.13528e-06
2.41655e-06
2.96803e-06
3.77509e-06
3.82809e-06
3.78995e-06
3.79358e-06
3.88008e-06
3.89406e-06
3.89756e-06
3.97517e-06
4.11601e-06
4.12057e-06
4.12081e-06
4.12356e-06
4.1383e-06
4.14659e-06
4.17306e-06
4.20755e-06
4.34315e-06
2.14396e-06
2.53483e-06
3.20366e-06
3.65011e-06
3.74604e-06
3.8618e-06
3.94343e-06
4.08751e-06
4.15281e-06
4.37918e-06
4.60765e-06
4.69123e-06
4.71599e-06
4.81924e-06
4.94597e-06
5.25366e-06
5.47925e-06
5.9854e-06
6.34383e-06
6.9869e-06
2.15507e-06
2.65356e-06
3.19459e-06
4.02802e-06
4.34763e-06
5.04666e-06
5.41006e-06
6.26015e-06
6.83676e-06
8.0105e-06
8.55337e-06
9.84771e-06
1.05558e-05
1.22377e-05
1.33031e-05
1.54759e-05
1.67315e-05
1.95794e-05
2.13921e-05
2.50124e-05
2.18531e-06
3.10852e-06
5.12896e-06
8.55716e-06
1.04813e-05
1.41091e-05
1.64058e-05
2.13738e-05
2.40454e-05
2.91665e-05
3.18854e-05
3.77343e-05
4.05075e-05
4.67207e-05
5.00173e-05
5.6729e-05
6.03834e-05
6.87443e-05
7.34059e-05
8.38908e-05
2.34687e-06
8.25281e-06
1.80914e-05
3.11343e-05
3.95564e-05
5.39782e-05
6.16697e-05
7.72031e-05
8.48972e-05
9.91957e-05
0.000106067
0.000120071
0.000126015
0.000139102
0.000145414
0.000158637
0.000165199
0.000180725
0.000188626
0.000208587
5.20973e-06
3.29859e-05
7.14975e-05
0.000107575
0.00013804
0.000169026
0.000185397
0.000215698
0.000230267
0.000252057
0.000263416
0.00028406
0.000292165
0.000310072
0.000318267
0.000335717
0.00034366
0.000363033
0.000371906
0.00039363
2.72346e-05
0.00012401
0.000240482
0.000302743
0.000360301
0.000394354
0.000428192
0.000454385
0.000475636
0.00049121
0.000506559
0.00051944
0.00052633
0.000538487
0.000543791
0.000553568
0.000557771
0.000568597
0.000572787
0.000582345
0.000136629
0.000401083
0.000588678
0.000654074
0.000710442
0.000732437
0.00075508
0.000757297
0.000761757
0.000757654
0.000756375
0.000749607
0.000747115
0.00073966
0.000737735
0.000731358
0.000729866
0.000725768
0.000723879
0.000719281
0.000557259
0.000980316
0.00108429
0.00108068
0.00106481
0.00102936
0.00100706
0.00097129
0.000955545
0.000924686
0.000913541
0.000888891
0.00088185
0.000861956
0.00085703
0.000840153
0.000835897
0.000819353
0.00081355
0.000798862
0.00133941
0.00150589
0.00139389
0.00122703
0.00112353
0.00104665
0.00100152
0.000954743
0.000931586
0.00089773
0.000885891
0.00085938
0.000853439
0.000830845
0.000826223
0.000803612
0.000798311
0.000772082
0.000761845
0.000729235
0.00034494
0.000296916
0.000267105
0.000248741
0.00023611
0.000228163
0.000221452
0.000216315
0.000211488
0.000207265
0.000203212
0.000199785
0.000196611
0.000193719
0.000191409
0.000188856
0.000186837
0.000184669
0.000182286
0.000180706
0.000178974
0.000176884
0.000175891
0.000173989
0.000173409
0.000171958
0.000171596
0.000171756
0.000172217
0.000172391
0.000172965
0.000173158
0.000173647
0.000173695
0.000174016
0.000173924
0.00017392
0.000173781
0.000173399
0.000173154
0.000172503
0.00017221
0.000171329
0.000170998
0.000170067
0.000169896
0.000169225
0.000169079
0.000168567
0.000167996
0.000166695
0.000165662
0.00016481
0.000164138
0.000164195
0.000164304
0.000164961
0.000165219
0.000166126
0.000166068
0.000166711
0.000166752
0.000167063
0.000166928
0.000166419
0.000165074
0.000162761
0.000159344
0.000155791
0.000149607
0.000143556
0.000137393
0.000130202
0.000123292
0.000116778
0.00011298
0.000106369
0.000103532
9.95714e-05
9.90356e-05
9.73391e-05
9.75635e-05
9.75688e-05
9.95061e-05
0.000101196
0.000105688
0.000107956
0.000113229
0.000116025
0.000119627
0.000123315
0.000126505
0.000127432
0.00012943
0.000129427
0.000129134
0.000129147
0.000128141
0.000127622
0.000126848
0.000125237
0.000123568
0.000120761
0.000116343
0.00011261
0.000108889
9.94257e-05
9.62079e-05
8.65336e-05
8.32029e-05
7.39488e-05
6.85146e-05
6.19062e-05
5.54432e-05
5.05855e-05
4.44948e-05
4.00844e-05
3.4879e-05
3.08322e-05
2.69781e-05
2.3563e-05
2.08946e-05
1.86815e-05
1.71052e-05
1.62757e-05
1.57292e-05
1.54929e-05
1.56178e-05
1.58433e-05
1.58907e-05
1.60937e-05
1.6341e-05
1.62965e-05
1.62936e-05
1.63509e-05
1.61957e-05
1.6145e-05
1.61304e-05
1.59531e-05
1.59374e-05
1.59482e-05
1.59701e-05
1.63208e-05
1.63504e-05
1.68833e-05
1.70611e-05
1.78312e-05
1.8924e-05
2.01725e-05
2.25834e-05
2.395e-05
2.69724e-05
2.74043e-05
2.88887e-05
2.82601e-05
2.80641e-05
2.69435e-05
2.58687e-05
2.53954e-05
2.57655e-05
2.67145e-05
2.91138e-05
3.37928e-05
4.24329e-05
5.71606e-05
7.1246e-05
9.18709e-05
0.000112413
0.000124991
0.0001301
0.000132687
0.00013221
0.000131472
0.00012908
0.000125573
0.000117291
0.000113816
0.000106137
0.000104718
0.000100704
0.00010238
0.000100864
0.000104185
0.000102426
0.000104539
0.000101312
0.000101667
9.57775e-05
9.41543e-05
8.5728e-05
8.69065e-05
8.24774e-05
8.84873e-05
8.31359e-05
8.87456e-05
7.54774e-05
7.90379e-05
7.21932e-05
0.000110661
0.000204165
0.000408716
0.000369612
0.000337552
0.000313387
0.000294856
0.000280428
0.000269175
0.000259648
0.000252131
0.000245164
0.000239771
0.000234278
0.000230321
0.000225985
0.000223011
0.000219494
0.000217134
0.000214317
0.000212198
0.000209619
0.000208013
0.000205648
0.000204233
0.000202086
0.000200531
0.000199029
0.000197252
0.000196005
0.000194842
0.000193824
0.000192809
0.00019209
0.000191119
0.000190594
0.000189609
0.000189188
0.000188244
0.000187853
0.000186856
0.000186467
0.000185424
0.000185047
0.000184029
0.000183639
0.000182616
0.000182266
0.000181397
0.000181091
0.000180418
0.000180007
0.000179277
0.000178025
0.000177496
0.000176172
0.00017583
0.000174854
0.000174699
0.000174086
0.000174127
0.000174164
0.000174447
0.000174549
0.000174353
0.000174352
0.000173985
0.000173871
0.000173095
0.000172727
0.000171582
0.000170904
0.00016893
0.000167948
0.000165077
0.000163763
0.000160131
0.000158887
0.000155341
0.000154038
0.000150793
0.000149804
0.000147743
0.000147158
0.000146066
0.000145742
0.000145083
0.000144249
0.000143934
0.000142468
0.000141944
0.000140649
0.000139416
0.000138519
0.000136698
0.000134202
0.000132825
0.000129113
0.000126921
0.000121305
0.000118281
0.000111258
0.000106189
9.61493e-05
8.91853e-05
7.9324e-05
7.13145e-05
6.29648e-05
5.55689e-05
5.13707e-05
4.39872e-05
4.15098e-05
3.59443e-05
3.34449e-05
2.96197e-05
2.66432e-05
2.42349e-05
2.1459e-05
1.97116e-05
1.77183e-05
1.6315e-05
1.52118e-05
1.4433e-05
1.38919e-05
1.38625e-05
1.39293e-05
1.42264e-05
1.45012e-05
1.48091e-05
1.55901e-05
1.59368e-05
1.6309e-05
1.70587e-05
1.7305e-05
1.73737e-05
1.74966e-05
1.74245e-05
1.71348e-05
1.70692e-05
1.68493e-05
1.6525e-05
1.65412e-05
1.64973e-05
1.66311e-05
1.68949e-05
1.74661e-05
1.85507e-05
1.98828e-05
2.2613e-05
2.51285e-05
3.0035e-05
3.29531e-05
3.95871e-05
4.20016e-05
4.63843e-05
4.72275e-05
4.72079e-05
4.56997e-05
4.41828e-05
3.97895e-05
3.74122e-05
3.28579e-05
3.0804e-05
3.01107e-05
3.078e-05
3.23841e-05
3.68837e-05
4.44218e-05
5.77272e-05
7.26986e-05
9.14346e-05
0.0001101
0.00012171
0.000127385
0.000129078
0.000128664
0.000128226
0.000124187
0.000123826
0.000117905
0.000117935
0.000113084
0.000114109
0.00011065
0.000111049
0.000108409
0.000107153
0.000102954
9.9953e-05
9.21409e-05
8.68069e-05
7.94229e-05
7.93371e-05
7.85454e-05
8.50169e-05
8.69327e-05
0.000101685
0.000101715
0.000112439
9.99231e-05
0.000105743
0.00014416
0.000368873
0.00034551
0.000324476
0.000306633
0.00029255
0.000280114
0.000270265
0.000260972
0.00025343
0.000246108
0.000240128
0.000234365
0.000229752
0.000225254
0.000221488
0.000217936
0.000214653
0.000211698
0.000209143
0.000206561
0.000204376
0.000202305
0.000200014
0.000198381
0.00019593
0.000194622
0.000192479
0.000191295
0.000189451
0.000188622
0.000186923
0.000186127
0.000184483
0.000183691
0.000182057
0.000181364
0.000179909
0.000179304
0.000178027
0.000177493
0.000176352
0.000175842
0.000174696
0.000174169
0.000173021
0.000172387
0.000171488
0.000170533
0.00017012
0.000169232
0.000168803
0.000167832
0.000167391
0.000166344
0.00016592
0.000164887
0.000164538
0.0001638
0.000163484
0.000163178
0.000163188
0.000163179
0.000163289
0.000163422
0.000163762
0.000163946
0.000164367
0.000164521
0.000164657
0.000164768
0.000164618
0.000164447
0.000163911
0.000163465
0.000162543
0.000161486
0.000160892
0.000159468
0.000158763
0.000157354
0.000156206
0.00015449
0.000153472
0.000151155
0.000149901
0.000147251
0.000145738
0.000142673
0.000140163
0.000136755
0.000133824
0.000128516
0.000124645
0.000118447
0.000111809
0.000104094
9.55574e-05
8.66281e-05
7.73956e-05
6.74392e-05
6.02213e-05
5.23788e-05
4.68606e-05
4.0836e-05
3.65651e-05
3.20559e-05
2.86064e-05
2.54579e-05
2.25798e-05
2.043e-05
1.83744e-05
1.67315e-05
1.55619e-05
1.424e-05
1.37727e-05
1.29561e-05
1.27681e-05
1.24931e-05
1.25362e-05
1.26269e-05
1.27938e-05
1.30654e-05
1.36734e-05
1.42837e-05
1.57179e-05
1.67271e-05
1.82941e-05
1.99801e-05
2.06611e-05
2.20958e-05
2.26787e-05
2.31991e-05
2.32829e-05
2.32188e-05
2.28488e-05
2.24274e-05
2.19616e-05
2.1096e-05
2.0934e-05
2.08507e-05
2.09371e-05
2.12257e-05
2.19533e-05
2.31238e-05
2.55689e-05
2.84525e-05
3.24932e-05
4.02887e-05
4.64582e-05
5.64751e-05
6.51175e-05
7.22705e-05
7.75475e-05
7.8605e-05
7.7914e-05
7.52225e-05
7.14593e-05
6.46579e-05
5.80334e-05
5.10137e-05
4.35037e-05
3.85208e-05
3.42368e-05
3.35275e-05
3.39125e-05
3.54089e-05
3.93221e-05
4.77916e-05
5.85821e-05
7.35882e-05
9.03488e-05
0.000104986
0.000118059
0.000121218
0.000126389
0.000123982
0.00012476
0.000121983
0.000120924
0.0001187
0.000115043
0.000113568
0.000109245
0.000107687
0.00010246
0.000100013
9.05373e-05
8.64682e-05
7.69741e-05
7.45673e-05
6.82736e-05
6.70779e-05
6.4868e-05
6.67399e-05
6.93364e-05
8.28508e-05
9.05422e-05
0.000104836
0.000108335
0.000124456
0.00029889
0.000285357
0.000271761
0.00026024
0.000250435
0.000241877
0.000234495
0.000227963
0.000222004
0.000216584
0.00021136
0.000206771
0.000202107
0.000198405
0.000194474
0.000191412
0.000188193
0.000185364
0.000182535
0.000180053
0.000177257
0.000175286
0.000172769
0.000171039
0.000168874
0.000167161
0.000165021
0.000163468
0.000161203
0.000159905
0.000157965
0.000156811
0.000155337
0.000154303
0.00015296
0.000151982
0.000150529
0.000149259
0.000148052
0.00014651
0.00014557
0.000144434
0.000143731
0.000142974
0.000142616
0.000141719
0.000141235
0.00014001
0.000139341
0.000137901
0.00013721
0.000136038
0.000135577
0.000134729
0.000134445
0.000134011
0.000133779
0.000133543
0.00013319
0.000132516
0.000132295
0.00013222
0.000132331
0.000132515
0.000133261
0.000133751
0.000135062
0.000135649
0.000136901
0.000137403
0.000138537
0.000138861
0.000139775
0.000139942
0.000140335
0.000140157
0.000139952
0.000139471
0.000138209
0.000137319
0.000135244
0.000134021
0.000130867
0.000129153
0.000125516
0.000122712
0.000118405
0.000113996
0.000108807
0.000102967
9.63878e-05
8.93978e-05
8.11611e-05
7.33123e-05
6.55339e-05
5.86626e-05
5.18807e-05
4.59872e-05
4.0386e-05
3.55836e-05
3.1211e-05
2.74938e-05
2.40538e-05
2.14501e-05
1.87096e-05
1.69506e-05
1.48599e-05
1.36976e-05
1.23261e-05
1.16191e-05
1.09503e-05
1.069e-05
1.07422e-05
1.08611e-05
1.11912e-05
1.13242e-05
1.17556e-05
1.20273e-05
1.26868e-05
1.3667e-05
1.47382e-05
1.65491e-05
1.86206e-05
2.06389e-05
2.36637e-05
2.61742e-05
2.82964e-05
3.04432e-05
3.15367e-05
3.27999e-05
3.32004e-05
3.31352e-05
3.28593e-05
3.22728e-05
3.13081e-05
3.03931e-05
2.94954e-05
2.82216e-05
2.78775e-05
2.75694e-05
2.78803e-05
2.83374e-05
3.03788e-05
3.21224e-05
3.78518e-05
4.21242e-05
5.59683e-05
6.43062e-05
8.55367e-05
9.53517e-05
0.000111761
0.000117411
0.000121649
0.000121208
0.000119612
0.000115725
0.00011104
0.00010475
9.51073e-05
8.65997e-05
7.21039e-05
6.0207e-05
4.91063e-05
4.18399e-05
3.7277e-05
3.62997e-05
3.66512e-05
3.81424e-05
4.17551e-05
4.884e-05
6.00457e-05
7.35824e-05
8.82084e-05
9.8983e-05
0.000110165
0.000116292
0.000117351
0.000118306
0.000116377
0.000116156
0.00011294
0.000111746
0.000106803
0.000104528
9.78787e-05
9.33999e-05
8.28125e-05
7.96766e-05
7.34789e-05
7.12959e-05
6.49299e-05
6.30725e-05
5.79085e-05
5.95006e-05
5.91082e-05
6.6533e-05
6.95372e-05
8.86658e-05
9.2076e-05
0.000101679
0.00020204
0.000196039
0.000187823
0.000181563
0.000175371
0.000170417
0.000166042
0.000162176
0.000159043
0.000156082
0.000153225
0.000150688
0.000147658
0.000145094
0.000142538
0.00014011
0.000138213
0.000136295
0.000134454
0.000132885
0.000130711
0.000128901
0.000126937
0.000124941
0.000123345
0.000121699
0.00012006
0.000118713
0.000116798
0.000115151
0.000113384
0.000111394
0.000110064
0.000108543
0.000107514
0.000106673
0.000106016
0.000105159
0.000104505
0.000103024
0.000101748
0.00010008
9.8524e-05
9.73204e-05
9.6538e-05
9.59522e-05
9.58176e-05
9.57126e-05
9.55426e-05
9.49637e-05
9.35252e-05
9.22674e-05
9.07873e-05
8.96782e-05
8.86362e-05
8.8259e-05
8.81e-05
8.82727e-05
8.85636e-05
8.9025e-05
8.9033e-05
8.87832e-05
8.82975e-05
8.83308e-05
8.84452e-05
8.88915e-05
8.94372e-05
9.09962e-05
9.21802e-05
9.32791e-05
9.47333e-05
9.50618e-05
9.58025e-05
9.58485e-05
9.58523e-05
9.57384e-05
9.5383e-05
9.49242e-05
9.38893e-05
9.3086e-05
9.11635e-05
8.97598e-05
8.67194e-05
8.44543e-05
8.04428e-05
7.68109e-05
7.22895e-05
6.79555e-05
6.31574e-05
5.84051e-05
5.35731e-05
4.88701e-05
4.41317e-05
3.97284e-05
3.54151e-05
3.14224e-05
2.7713e-05
2.43439e-05
2.13251e-05
1.86922e-05
1.64125e-05
1.45758e-05
1.28476e-05
1.17368e-05
1.03983e-05
9.84907e-06
9.0323e-06
8.84077e-06
8.71145e-06
8.94717e-06
9.13094e-06
9.69497e-06
1.00832e-05
1.09525e-05
1.16011e-05
1.2776e-05
1.45379e-05
1.57622e-05
1.85593e-05
2.0518e-05
2.41017e-05
2.68362e-05
3.04019e-05
3.44511e-05
3.79012e-05
4.13591e-05
4.38623e-05
4.57499e-05
4.70593e-05
4.71046e-05
4.6767e-05
4.6043e-05
4.45312e-05
4.30273e-05
4.12259e-05
3.95253e-05
3.80379e-05
3.65143e-05
3.5975e-05
3.59392e-05
3.6483e-05
3.77518e-05
4.16081e-05
4.54645e-05
5.44595e-05
6.49313e-05
9.3001e-05
0.000106926
0.000137684
0.000142351
0.000145471
0.000143528
0.000141033
0.000138054
0.000133335
0.000131379
0.000126828
0.000123987
0.00011716
0.000112447
0.000104425
9.51761e-05
8.18812e-05
6.52269e-05
5.2431e-05
4.40754e-05
3.97086e-05
3.87803e-05
3.93055e-05
4.07309e-05
4.39336e-05
5.2289e-05
5.90018e-05
7.25012e-05
7.86565e-05
9.26964e-05
9.56779e-05
0.00010346
0.000103038
0.000104089
0.000101474
0.000100699
9.51013e-05
9.24285e-05
8.41632e-05
8.10436e-05
7.31195e-05
7.05863e-05
6.41051e-05
6.18632e-05
5.66762e-05
5.54271e-05
5.22166e-05
5.16994e-05
5.03294e-05
5.46415e-05
5.50534e-05
6.7874e-05
7.3095e-05
8.48638e-05
0.000104659
0.000103203
0.000100229
9.7705e-05
9.50955e-05
9.26739e-05
9.10917e-05
8.91222e-05
8.81343e-05
8.68578e-05
8.58445e-05
8.50678e-05
8.39215e-05
8.29732e-05
8.17334e-05
8.06013e-05
7.94236e-05
7.84635e-05
7.75942e-05
7.68574e-05
7.61991e-05
7.52979e-05
7.44422e-05
7.31507e-05
7.19604e-05
7.06684e-05
6.95605e-05
6.87085e-05
6.77562e-05
6.70521e-05
6.60451e-05
6.49759e-05
6.37559e-05
6.25571e-05
6.12755e-05
6.02823e-05
5.94378e-05
5.89423e-05
5.87441e-05
5.86892e-05
5.86181e-05
5.80563e-05
5.67529e-05
5.55107e-05
5.42799e-05
5.32861e-05
5.28162e-05
5.26056e-05
5.25944e-05
5.27053e-05
5.27503e-05
5.27127e-05
5.19303e-05
5.06563e-05
4.93491e-05
4.84105e-05
4.78131e-05
4.7726e-05
4.77521e-05
4.80148e-05
4.8619e-05
4.91933e-05
4.92908e-05
4.91458e-05
4.8957e-05
4.8969e-05
4.90579e-05
4.94612e-05
5.00273e-05
5.11368e-05
5.24319e-05
5.31186e-05
5.37737e-05
5.38804e-05
5.37656e-05
5.35041e-05
5.30611e-05
5.1959e-05
5.13272e-05
5.01221e-05
4.88548e-05
4.74329e-05
4.59693e-05
4.39971e-05
4.21556e-05
3.98726e-05
3.74959e-05
3.50142e-05
3.24189e-05
2.99412e-05
2.74099e-05
2.51364e-05
2.27603e-05
2.05864e-05
1.84097e-05
1.6314e-05
1.44533e-05
1.26983e-05
1.13115e-05
1.00937e-05
9.34161e-06
8.59773e-06
8.22615e-06
7.87618e-06
7.73306e-06
7.71105e-06
7.74102e-06
7.91496e-06
8.29642e-06
9.07507e-06
9.98284e-06
1.18378e-05
1.3228e-05
1.58057e-05
1.74981e-05
2.07186e-05
2.35286e-05
2.62537e-05
3.10192e-05
3.42143e-05
4.02454e-05
4.37062e-05
5.00423e-05
5.40164e-05
5.98059e-05
6.28335e-05
6.62021e-05
6.79533e-05
6.79583e-05
6.73304e-05
6.57413e-05
6.33165e-05
6.06598e-05
5.68294e-05
5.41711e-05
5.24764e-05
4.90824e-05
4.71278e-05
4.70316e-05
4.73422e-05
4.83262e-05
5.16153e-05
5.64812e-05
6.40514e-05
7.98852e-05
0.000108461
0.000147262
0.000159339
0.000160563
0.000157526
0.000152705
0.000148282
0.000140855
0.00013817
0.000132726
0.000130714
0.000127551
0.000123327
0.000122058
0.000117892
0.00011574
0.00010955
0.000104434
9.65284e-05
8.37645e-05
6.67147e-05
5.40033e-05
4.62235e-05
4.22324e-05
4.1312e-05
4.1596e-05
4.32375e-05
4.56736e-05
5.32484e-05
5.74193e-05
6.87456e-05
7.182e-05
8.05867e-05
8.16904e-05
8.46699e-05
8.26987e-05
8.27083e-05
7.915e-05
7.74192e-05
7.20002e-05
6.99108e-05
6.44332e-05
6.10522e-05
5.73711e-05
5.47267e-05
5.17829e-05
5.05602e-05
4.85495e-05
4.82673e-05
4.77604e-05
5.06095e-05
4.99169e-05
5.5676e-05
5.81222e-05
6.62894e-05
4.04616e-05
4.02648e-05
3.98251e-05
3.924e-05
3.86322e-05
3.79104e-05
3.75042e-05
3.69635e-05
3.66944e-05
3.63827e-05
3.62832e-05
3.61358e-05
3.60377e-05
3.59313e-05
3.56085e-05
3.52689e-05
3.47373e-05
3.43628e-05
3.4081e-05
3.38713e-05
3.38165e-05
3.37791e-05
3.37699e-05
3.36384e-05
3.30565e-05
3.23581e-05
3.17438e-05
3.12247e-05
3.08841e-05
3.06921e-05
3.06098e-05
3.06057e-05
3.0443e-05
2.97693e-05
2.8905e-05
2.81077e-05
2.75289e-05
2.72295e-05
2.71699e-05
2.72303e-05
2.74254e-05
2.7512e-05
2.74126e-05
2.67136e-05
2.58359e-05
2.51857e-05
2.4889e-05
2.48496e-05
2.5106e-05
2.55938e-05
2.59108e-05
2.60214e-05
2.58959e-05
2.50295e-05
2.40118e-05
2.31597e-05
2.2672e-05
2.25104e-05
2.25679e-05
2.30256e-05
2.3735e-05
2.4393e-05
2.47611e-05
2.47874e-05
2.4498e-05
2.41245e-05
2.39844e-05
2.39851e-05
2.40188e-05
2.43508e-05
2.56528e-05
2.67069e-05
2.74266e-05
2.77244e-05
2.76792e-05
2.74863e-05
2.68582e-05
2.60237e-05
2.50511e-05
2.43006e-05
2.33308e-05
2.25067e-05
2.16875e-05
2.07902e-05
1.98726e-05
1.8883e-05
1.77169e-05
1.65989e-05
1.5377e-05
1.42839e-05
1.32281e-05
1.22502e-05
1.11271e-05
1.01371e-05
9.08805e-06
8.19081e-06
7.61822e-06
7.16676e-06
7.12703e-06
7.17684e-06
7.2226e-06
7.29701e-06
7.42985e-06
7.59511e-06
7.93665e-06
8.51683e-06
9.0842e-06
1.05816e-05
1.19228e-05
1.4212e-05
1.62623e-05
1.98405e-05
2.2171e-05
2.64352e-05
2.91517e-05
3.46505e-05
3.79765e-05
4.48578e-05
4.88788e-05
5.66209e-05
6.24396e-05
6.98127e-05
7.70628e-05
8.36708e-05
8.98878e-05
9.37329e-05
9.74376e-05
9.74433e-05
9.67965e-05
9.39414e-05
9.13049e-05
8.51468e-05
8.1483e-05
7.53657e-05
7.11006e-05
6.54154e-05
6.40566e-05
6.17706e-05
6.05249e-05
6.07846e-05
6.29673e-05
6.66545e-05
7.39523e-05
8.98051e-05
0.000135049
0.000168534
0.000174765
0.000173939
0.0001662
0.000159079
0.00014908
0.000140872
0.000135582
0.000130347
0.00012853
0.000123449
0.000123872
0.000121034
0.000121383
0.000118564
0.000116452
0.000115031
0.000109896
0.000107591
0.000101668
9.57121e-05
8.44053e-05
6.71112e-05
5.69259e-05
4.79936e-05
4.47592e-05
4.38438e-05
4.41516e-05
4.5747e-05
4.70735e-05
5.26633e-05
5.47542e-05
6.14573e-05
6.28387e-05
6.67844e-05
6.63132e-05
6.67215e-05
6.54614e-05
6.42685e-05
6.16782e-05
5.94566e-05
5.76893e-05
5.50473e-05
5.39164e-05
5.15088e-05
5.06134e-05
4.83022e-05
4.74103e-05
4.56639e-05
4.45707e-05
4.53282e-05
4.51771e-05
4.70101e-05
4.84791e-05
5.22534e-05
1.09956e-05
1.10832e-05
1.11337e-05
1.1122e-05
1.109e-05
1.10143e-05
1.09498e-05
1.08852e-05
1.08216e-05
1.07944e-05
1.07939e-05
1.0801e-05
1.08139e-05
1.0807e-05
1.0729e-05
1.06285e-05
1.04874e-05
1.04004e-05
1.03647e-05
1.03643e-05
1.04733e-05
1.05487e-05
1.05949e-05
1.06023e-05
1.05059e-05
1.03115e-05
1.01395e-05
1.00416e-05
1.00277e-05
1.00694e-05
1.01388e-05
1.01969e-05
1.01985e-05
1.00903e-05
9.78017e-06
9.47466e-06
9.2541e-06
9.13543e-06
9.10546e-06
9.14667e-06
9.25666e-06
9.33938e-06
9.35429e-06
9.27593e-06
9.06772e-06
8.91072e-06
8.82794e-06
8.81968e-06
8.92246e-06
9.09651e-06
9.20923e-06
9.24549e-06
9.22078e-06
9.06239e-06
8.89148e-06
8.78674e-06
8.72166e-06
8.70439e-06
8.72248e-06
8.82168e-06
9.0151e-06
9.18254e-06
9.25619e-06
9.22929e-06
9.19768e-06
9.17995e-06
9.19821e-06
9.25653e-06
9.4132e-06
1.0049e-05
1.0901e-05
1.15536e-05
1.19033e-05
1.1984e-05
1.19401e-05
1.15501e-05
1.10763e-05
1.04743e-05
1.00641e-05
9.60534e-06
9.34515e-06
8.95769e-06
8.75588e-06
8.42486e-06
8.14695e-06
7.8065e-06
7.42203e-06
7.06818e-06
6.74745e-06
6.35881e-06
6.12294e-06
5.84183e-06
5.43203e-06
5.16816e-06
5.18639e-06
5.28135e-06
5.67056e-06
6.09236e-06
6.87971e-06
7.60664e-06
8.20702e-06
9.3938e-06
1.02307e-05
1.11015e-05
1.25845e-05
1.42493e-05
1.56256e-05
1.88382e-05
2.13705e-05
2.46202e-05
2.90751e-05
3.28041e-05
3.74241e-05
4.28169e-05
4.7242e-05
5.49661e-05
6.01454e-05
7.00421e-05
7.59768e-05
8.80201e-05
9.44115e-05
0.000107683
0.000113233
0.000124407
0.000129569
0.000135147
0.000136188
0.000135459
0.00013326
0.000126915
0.000122054
0.000112907
0.000105702
9.52314e-05
9.12666e-05
8.38538e-05
7.76728e-05
7.24955e-05
7.2394e-05
7.28795e-05
7.55634e-05
8.2624e-05
9.98846e-05
0.000153598
0.000181506
0.000188405
0.000182469
0.000177518
0.000158644
0.000148257
0.000139531
0.000130547
0.000130041
0.000125108
0.00012575
0.000122532
0.000125058
0.000122055
0.000122547
0.000121539
0.00011725
0.000116575
0.000113899
0.000110026
0.000108463
0.000105559
0.000102501
9.12685e-05
8.53987e-05
6.7726e-05
5.95477e-05
5.06891e-05
4.70789e-05
4.62093e-05
4.62297e-05
4.72048e-05
4.78566e-05
5.06074e-05
5.15389e-05
5.42413e-05
5.46663e-05
5.57311e-05
5.59812e-05
5.58364e-05
5.5433e-05
5.43555e-05
5.40325e-05
5.28915e-05
5.22737e-05
5.06928e-05
4.89655e-05
4.8152e-05
4.62943e-05
4.57139e-05
4.50828e-05
4.54373e-05
4.49149e-05
4.51285e-05
4.51337e-05
4.62044e-05
3.20936e-06
3.24472e-06
3.29258e-06
3.34041e-06
3.37227e-06
3.37427e-06
3.3699e-06
3.36791e-06
3.35909e-06
3.35511e-06
3.34718e-06
3.33971e-06
3.32818e-06
3.31445e-06
3.28594e-06
3.26448e-06
3.22954e-06
3.20823e-06
3.19389e-06
3.18878e-06
3.19524e-06
3.22885e-06
3.25361e-06
3.28153e-06
3.28654e-06
3.28755e-06
3.28288e-06
3.26801e-06
3.26146e-06
3.26052e-06
3.26357e-06
3.27163e-06
3.27349e-06
3.27031e-06
3.24883e-06
3.20329e-06
3.16088e-06
3.12243e-06
3.1017e-06
3.09573e-06
3.10636e-06
3.13985e-06
3.17527e-06
3.19136e-06
3.19414e-06
3.18703e-06
3.17613e-06
3.16843e-06
3.16624e-06
3.1697e-06
3.22142e-06
3.29167e-06
3.34299e-06
3.35897e-06
3.34858e-06
3.32174e-06
3.31034e-06
3.31376e-06
3.31825e-06
3.31033e-06
3.277e-06
3.26951e-06
3.31205e-06
3.44699e-06
3.58157e-06
3.71082e-06
3.79448e-06
3.85001e-06
3.9187e-06
4.14956e-06
4.38405e-06
4.52106e-06
4.54432e-06
4.52281e-06
4.39637e-06
4.20774e-06
4.03839e-06
3.87976e-06
3.77361e-06
3.71636e-06
3.71575e-06
3.75758e-06
3.9074e-06
4.05144e-06
4.20104e-06
4.28903e-06
4.35164e-06
4.39126e-06
4.41263e-06
4.39004e-06
4.3889e-06
4.40351e-06
4.47498e-06
4.65683e-06
5.09093e-06
5.97809e-06
7.57852e-06
9.06228e-06
1.15014e-05
1.27495e-05
1.44554e-05
1.6585e-05
1.79532e-05
2.00722e-05
2.2158e-05
2.52628e-05
2.78329e-05
3.30037e-05
3.64459e-05
4.14323e-05
4.80035e-05
5.22503e-05
6.01874e-05
6.57444e-05
7.59397e-05
8.27046e-05
9.38132e-05
0.000104653
0.000115192
0.00012955
0.000140004
0.000154952
0.000160721
0.000169949
0.000170583
0.000172148
0.00017005
0.000168473
0.000163073
0.000159572
0.000150836
0.000144627
0.000132295
0.000122914
0.000111891
0.000103324
9.62346e-05
9.43426e-05
9.34198e-05
9.36763e-05
9.58895e-05
0.000113982
0.000165197
0.000193722
0.000194284
0.000194112
0.000177977
0.000170452
0.000147173
0.000142709
0.000132432
0.000127043
0.000126059
0.000120705
0.000122498
0.000119829
0.000123527
0.000121349
0.000124985
0.00012412
0.00012265
0.000120448
0.000119181
0.000114362
0.000114668
0.000109935
0.000109198
0.000105866
0.000104149
9.31163e-05
8.69738e-05
7.14624e-05
6.27799e-05
5.31839e-05
5.08213e-05
4.84331e-05
4.86601e-05
4.88478e-05
5.01066e-05
5.06963e-05
5.23137e-05
5.26933e-05
5.37183e-05
5.35803e-05
5.39265e-05
5.33924e-05
5.36665e-05
5.28219e-05
5.19963e-05
5.12168e-05
4.99275e-05
4.82764e-05
4.67496e-05
4.48467e-05
4.32288e-05
4.29021e-05
4.26161e-05
4.25198e-05
4.24511e-05
4.27721e-05
2.3356e-06
2.34205e-06
2.36991e-06
2.39387e-06
2.40795e-06
2.4116e-06
2.42054e-06
2.4288e-06
2.44461e-06
2.45444e-06
2.46499e-06
2.47097e-06
2.4764e-06
2.48031e-06
2.4818e-06
2.48323e-06
2.48401e-06
2.4836e-06
2.48267e-06
2.48196e-06
2.48039e-06
2.47946e-06
2.47655e-06
2.47553e-06
2.47554e-06
2.47563e-06
2.47774e-06
2.48025e-06
2.48163e-06
2.48334e-06
2.49235e-06
2.50504e-06
2.51594e-06
2.52225e-06
2.52616e-06
2.53375e-06
2.54298e-06
2.55339e-06
2.56078e-06
2.5622e-06
2.56301e-06
2.56575e-06
2.58074e-06
2.60718e-06
2.63574e-06
2.66935e-06
2.70123e-06
2.72446e-06
2.73677e-06
2.7392e-06
2.72771e-06
2.69576e-06
2.67745e-06
2.67564e-06
2.69727e-06
2.7307e-06
2.74476e-06
2.74893e-06
2.78823e-06
2.86907e-06
2.93152e-06
2.95932e-06
2.96033e-06
2.94444e-06
2.93494e-06
2.94335e-06
2.99566e-06
3.04854e-06
3.08871e-06
3.09332e-06
3.08296e-06
3.07083e-06
3.04212e-06
3.00487e-06
2.96525e-06
2.95136e-06
2.94445e-06
2.95992e-06
3.02364e-06
3.16583e-06
3.32942e-06
3.63237e-06
3.95648e-06
4.4179e-06
4.78193e-06
5.12272e-06
5.34476e-06
5.56837e-06
5.76097e-06
5.97914e-06
6.24691e-06
6.68548e-06
7.41643e-06
8.29766e-06
1.00255e-05
1.27261e-05
1.45572e-05
1.76863e-05
2.08946e-05
2.25642e-05
2.55011e-05
2.81366e-05
3.09313e-05
3.37917e-05
3.82202e-05
4.19449e-05
4.75671e-05
5.33959e-05
5.91467e-05
6.68743e-05
7.34315e-05
8.26825e-05
9.03426e-05
0.000101956
0.000112826
0.000124308
0.000139372
0.000152223
0.000166774
0.000176137
0.000182172
0.000185659
0.000185908
0.00018536
0.000183227
0.000182234
0.000178223
0.000176349
0.000170635
0.000168701
0.0001625
0.000159207
0.000149615
0.000144338
0.000132818
0.000125444
0.00011226
0.000108301
0.000104525
0.000106789
0.000122471
0.000179921
0.000192006
0.000202745
0.000192513
0.000192086
0.000172981
0.000166224
0.000143816
0.000138486
0.000124487
0.000124098
0.000121208
0.000117961
0.000119175
0.000116747
0.000119051
0.000117993
0.000123621
0.000122876
0.00012861
0.000126706
0.000127206
0.000120675
0.000128379
0.000120037
0.000117854
0.000115112
0.000115664
0.000109617
0.000107035
9.6058e-05
9.0754e-05
7.46748e-05
6.93498e-05
5.67214e-05
5.54785e-05
5.2062e-05
5.25388e-05
5.24709e-05
5.32013e-05
5.35773e-05
5.45453e-05
5.42125e-05
5.43224e-05
5.40847e-05
5.38404e-05
5.32917e-05
5.20987e-05
5.14801e-05
5.10299e-05
4.81637e-05
4.67846e-05
4.55091e-05
4.33028e-05
4.25041e-05
4.1074e-05
4.01326e-05
3.97955e-05
3.97382e-05
2.39844e-06
2.41751e-06
2.46636e-06
2.4974e-06
2.5207e-06
2.53183e-06
2.54397e-06
2.54989e-06
2.5622e-06
2.56709e-06
2.57237e-06
2.58287e-06
2.5893e-06
2.60508e-06
2.622e-06
2.65558e-06
2.70526e-06
2.75283e-06
2.802e-06
2.8511e-06
2.87715e-06
2.90266e-06
2.92066e-06
2.9317e-06
2.95699e-06
2.99407e-06
3.04415e-06
3.09352e-06
3.12909e-06
3.15202e-06
3.17346e-06
3.21778e-06
3.31737e-06
3.41675e-06
3.49846e-06
3.57681e-06
3.63055e-06
3.67257e-06
3.696e-06
3.69835e-06
3.7097e-06
3.80582e-06
3.95987e-06
4.1007e-06
4.21756e-06
4.34371e-06
4.45206e-06
4.52745e-06
4.56945e-06
4.58006e-06
4.5817e-06
4.55826e-06
4.46551e-06