/*--------------------------------*- C++ -*----------------------------------*\
| =========                 |                                                 |
| \\      /  F ield         | OpenFOAM: The Open Source CFD Toolbox           |
|  \\    /   O peration     | Version:  2.4.0                                 |
|   \\  /    A nd           | Web:      www.OpenFOAM.org                      |
|    \\/     M anipulation  |                                                 |
\*---------------------------------------------------------------------------*/
FoamFile
{
    version     2.0;
    format      ascii;
    class       volScalarField;
    location    "0.89";
    object      pPrime2Mean;
}
// * * * * * * * * * * * * * * * * * * * * * * * * * * * * * * * * * * * * * //

dimensions      [0 4 -4 0 0 0 0];

internalField   nonuniform List<scalar> 
8800
(
726577
708248
688581
669082
649849
630895
612221
593827
575712
557876
540316
523031
506014
489259
472746
456447
440297
424172
407783
390212
726603
708251
688580
669081
649849
630895
612221
593827
575713
557876
540317
523031
506016
489261
472751
456456
440314
424209
407873
390510
726619
708250
688575
669078
649847
630895
612221
593827
575713
557876
540317
523033
506018
489266
472760
456473
440348
424280
408038
391088
726632
708249
688570
669075
649846
630894
612221
593827
575713
557876
540318
523035
506022
489273
472773
456498
440397
424382
408269
391761
726642
708250
688566
669071
649845
630894
612221
593827
575713
557877
540319
523037
506027
489282
472790
456530
440459
424507
408546
392457
726650
708250
688563
669069
649844
630893
612221
593827
575713
557877
540321
523040
506033
489293
472811
456568
440533
424652
408851
393137
726656
708251
688561
669066
649842
630893
612221
593827
575713
557878
540323
523044
506040
489306
472834
456611
440614
424810
409168
393783
726661
708252
688559
669065
649842
630893
612221
593827
575713
557879
540325
523048
506047
489319
472859
456658
440702
424976
409488
394386
726664
708252
688558
669064
649841
630893
612221
593827
575714
557880
540327
523052
506055
489334
472886
456707
440793
425145
409802
394941
726665
708253
688558
669063
649841
630893
612222
593828
575715
557882
540329
523056
506063
489349
472913
456757
440885
425312
410102
395446
726665
708253
688558
669063
649841
630894
612222
593828
575715
557883
540332
523061
506072
489364
472941
456807
440975
425475
410385
395902
726664
708252
688559
669064
649841
630894
612222
593828
575716
557884
540334
523065
506080
489379
472968
456856
441063
425628
410646
396309
726661
708252
688560
669065
649842
630894
612222
593829
575717
557886
540337
523070
506088
489393
472994
456902
441145
425771
410882
396668
726657
708251
688561
669067
649843
630894
612222
593829
575718
557887
540339
523074
506095
489406
473017
456945
441220
425900
411092
396979
726650
708250
688563
669069
649844
630894
612222
593830
575719
557889
540341
523078
506102
489418
473039
456983
441287
426013
411274
397245
726642
708249
688566
669072
649846
630895
612223
593831
575720
557890
540343
523081
506107
489429
473058
457016
441344
426110
411427
397466
726632
708249
688570
669076
649847
630895
612223
593831
575721
557891
540345
523084
506112
489438
473073
457044
441391
426188
411550
397642
726619
708250
688575
669079
649849
630896
612224
593832
575721
557892
540346
523086
506116
489444
473085
457065
441427
426248
411642
397773
726603
708250
688580
669082
649850
630897
612224
593833
575722
557893
540347
523088
506119
489449
473093
457079
441452
426288
411704
397859
726578
708248
688581
669083
649851
630897
612224
593833
575722
557893
540348
523088
506120
489451
473097
457086
441464
426308
411735
397902
374290
370002
366731
363902
361280
358784
356378
354038
351750
349504
347291
345106
342945
340804
338680
336572
334475
332390
330314
328247
326189
324140
322100
320068
318045
316029
314020
312019
310026
308040
306061
304091
302130
300177
298234
296299
294373
292456
290547
288646
286752
284865
282983
281107
279236
277371
275511
273657
271810
269968
268133
266303
264478
262659
260844
259036
257234
255438
253649
251865
250087
248314
246546
244783
243026
241274
239529
237792
236063
234341
232627
230919
229218
227524
225836
224154
222479
220811
219150
217497
215852
214215
212586
210965
209351
207743
206141
204544
202953
201367
199787
198210
196638
195070
193505
191944
190387
188834
187285
185741
184203
182671
181145
179627
178117
176616
175122
173638
172161
170692
169231
167777
166330
164890
163456
162029
160607
159192
157784
156382
154987
153600
152219
150846
149479
148122
146769
145425
144086
142755
141427
140106
138788
137476
136166
134862
133562
132268
130978
129694
128415
127142
125875
124615
123360
122111
120869
119633
118402
117178
115959
114746
113538
112337
111141
109950
108765
107587
106415
105249
104090
102938
101794
100658
99527.8
98407.3
97292.5
96187.3
95088.8
93999.3
92916.1
91842.1
90773.1
89714.7
88659
87616.8
86572.7
85546.2
84514
83500.3
82482
81479.8
80474.1
79480.6
78483.9
77494.7
76500.8
75511.8
74513.7
73517.1
72506
71488.5
70449.3
69391.4
68298
67166.2
65970.8
64688.9
63295.1
61613.1
377344
372775
369050
365842
362940
360227
357645
355159
352746
350393
348086
345819
343586
341380
339199
337039
334897
332770
330657
328556
326468
324392
322327
320273
318229
316195
314170
312154
310147
308149
306160
304180
302210
300249
298298
296356
294423
292500
290585
288678
286778
284886
283000
281121
279247
277379
275517
273661
271812
269968
268131
266300
264475
262655
260841
259033
257231
255435
253646
251862
250084
248312
246545
244783
243027
241277
239533
237796
236067
234345
232631
230923
229222
227527
225839
224158
222483
220816
219155
217502
215858
214222
212594
210973
209359
207752
206150
204554
202963
201377
199796
198219
196647
195078
193513
191952
190395
188842
187294
185751
184215
182684
181160
179644
178135
176634
175142
173658
172181
170712
169251
167796
166348
164907
163472
162044
160622
159207
157799
156398
155004
153618
152238
150867
149501
148144
146793
145450
144112
142781
141454
140133
138815
137502
136193
134889
133588
132294
131003
129719
128440
127168
125900
124639
123384
122135
120893
119656
118425
117200
115981
114768
113561
112359
111163
109972
108786
107606
106432
105264
104102
102947
101799
100659
99526
98400.2
97280.7
96169.2
95064.1
93966.7
92874.7
91791.4
90711.7
89642.4
88573.7
87519
86460.8
85418.2
84371.6
83338.9
82303.8
81279.9
80254.4
79235.7
78215.6
77198.2
76175.9
75154.3
74123.4
73086.7
72036.2
70968.9
69878.6
68755.8
67593.8
66368.2
65085.9
63638.9
62107.7
60322.4
379463
374931
371032
367597
364485
361593
358857
356239
353711
351257
348861
346516
344213
341945
339708
337497
335310
333143
330993
328860
326743
324640
322550
320474
318411
316358
314317
312287
310267
308257
306257
304268
302289
300320
298361
296412
294473
292543
290621
288709
286804
284907
283017
281134
279257
277386
275522
273664
271813
269968
268129
266297
264471
262651
260837
259029
257227
255431
253642
251859
250081
248310
246544
244783
243028
241280
239537
237801
236072
234351
232636
230928
229227
227533
225845
224163
222489
220821
219161
217509
215865
214230
212602
210982
209369
207762
206160
204564
202973
201388
199807
198230
196657
195087
193522
191961
190405
188853
187306
185765
184230
182702
181180
179665
178158
176658
175167
173683
172207
170738
169276
167820
166371
164928
163493
162064
160642
159227
157819
156419
155026
153641
152262
150892
149528
148172
146822
145480
144142
142811
141484
140162
138844
137530
136221
134916
133615
132320
131029
129745
128466
127192
125925
124664
123409
122160
120917
119679
118448
117223
116005
114792
113584
112383
111186
109993
108806
107624
106448
105277
104113
102955
101804
100660
99523.4
98392.9
97268.5
96151.5
95039.4
93934.3
92833.2
91740.6
90649.7
89569.3
88488.2
87419.2
86348.9
85289.3
84229.5
83177.6
82126.7
81080.5
80035.8
78992.3
77949.1
76903.9
75856.1
74801
73741.5
72665.3
71579.6
70464.5
69331.8
68145.7
66938.8
65622.5
64292.2
62756.2
61156.8
59406.5
381077
376664
372717
369156
365898
362865
360000
357265
354634
352087
349609
347190
344820
342493
340202
337943
335712
333506
331321
329156
327010
324881
322769
320671
318588
316518
314462
312417
310384
308363
306353
304354
302366
300389
298423
296467
294521
292585
290657
288739
286830
284928
283034
281147
279267
277393
275527
273667
271813
269967
268127
266294
264467
262647
260832
259025
257223
255428
253639
251856
250079
248308
246543
244784
243030
241283
239542
237807
236079
234358
232643
230936
229234
227540
225851
224170
222495
220827
219167
217516
215873
214238
212611
210992
209379
207772
206171
204576
202985
201400
199819
198242
196668
195099
193534
191973
190418
188867
187323
185783
184251
182724
181204
179691
178186
176687
175197
173713
172237
170767
169304
167847
166397
164953
163517
162087
160664
159250
157842
156443
155051
153667
152290
150920
149557
148202
146854
145511
144175
142842
141515
140192
138873
137558
136248
134942
133641
132344
131053
129768
128489
127215
125948
124686
123431
122182
120939
119702
118471
117246
116028
114815
113608
112406
111209
110015
108826
107641
106462
105288
104121
102960
101806
100659
99518.3
98383.2
97254.5
96131.8
95013.5
93900.5
92791.1
91688.9
90587.5
89494.8
88403.1
87319.4
86237.9
85161.9
84088.8
83018.4
81951.5
80884
79819.7
78752.1
77687.1
76613.9
75543.4
74454.8
73370.6
72254.3
71142.6
69976.2
68818.7
67567.1
66332.9
64948.8
63570.2
62024.1
60415
58725.6
382373
378083
374147
370526
367174
364034
361064
358230
355508
352877
350324
347836
345404
343021
340679
338374
336101
333857
331639
329444
327270
325116
322981
320863
318761
316675
314603
312545
310500
308467
306447
304439
302443
300458
298484
296521
294569
292626
290694
288770
286855
284949
283051
281160
279277
277401
275532
273670
271815
269967
268126
266292
264465
262644
260830
259022
257220
255425
253637
251854
250078
248308
246544
244786
243034
241288
239548
237814
236087
234366
232652
230944
229242
227547
225858
224176
222501
220833
219174
217522
215880
214246
212620
211001
209389
207783
206182
204587
202998
201413
199832
198254
196681
195112
193548
191988
190434
188884
187342
185805
184274
182750
181232
179721
178217
176719
175229
173746
172270
170799
169335
167877
166426
164981
163543
162112
160690
159275
157868
156469
155078
153694
152318
150949
149587
148232
146885
145542
144206
142873
141545
140220
138900
137584
136272
134965
133663
132365
131074
129788
128508
127234
125967
124705
123451
122201
120960
119722
118492
117267
116051
114837
113631
112428
111230
110034
108844
107655
106473
105295
104125
102960
101804
100652
99508.8
98369.7
97237
96108.9
94984.8
93864.5
92747.6
91635.3
90525.2
89420
88318.5
87221.2
86128.5
85037
83950.7
82862.2
81779.4
80690.4
79608.8
78515.5
77433.2
76329.4
75241.3
74117.7
73014.8
71857.1
70725.2
69513.4
68329.7
67035.3
65761.8
64356.8
62934.7
61414.8
59828.7
58189.2
383465
379279
375374
371727
368315
365098
362045
359129
356327
353623
351002
348451
345962
343526
341137
338789
336477
334197
331947
329722
327522
325345
323188
321050
318930
316828
314741
312670
310613
308570
306540
304523
302519
300526
298545
296576
294617
292669
290730
288802
286882
284971
283069
281175
279289
277410
275539
273676
271819
269970
268128
266293
264465
262643
260829
259021
257220
255425
253637
251855
250080
248311
246547
244790
243039
241294
239555
237823
236096
234375
232661
230952
229250
227554
225864
224181
222506
220838
219178
217528
215886
214252
212627
211009
209397
207792
206192
204598
203010
201425
199845
198268
196696
195127
193564
192004
190451
188904
187363
185828
184300
182778
181262
179752
178249
176753
175263
173780
172303
170831
169366
167907
166454
165008
163570
162139
160716
159301
157894
156495
155104
153721
152345
150976
149615
148260
146913
145570
144233
142899
141570
140244
138923
137605
136293
134984
133681
132382
131090
129802
128523
127248
125981
124720
123466
122217
120976
119739
118510
117286
116070
114856
113650
112446
111247
110049
108857
107664
106479
105298
104124
102955
101796
100640
99494.3
98350.5
97214.5
96081.3
94952.3
93824
92701.1
91578.3
90461.1
89344.3
88234.3
87123.4
86021.2
84913.1
83815.7
82707.6
81611.1
80499.7
79403.2
78285.2
77186.3
76056.9
74949.3
73798.6
72672.3
71487.3
70325
69088.8
67867.4
66557
65244.9
63843.9
62403.8
60908
59348.7
57745
384406
380304
376433
372779
369328
366057
362940
359957
357089
354321
351639
349032
346491
344007
341574
339185
336836
334523
332242
329991
327766
325565
323388
321231
319095
316977
314876
312793
310724
308671
306632
304606
302594
300594
298606
296630
294665
292711
290768
288834
286910
284995
283089
281192
279303
277422
275549
273683
271825
269975
268132
266296
264467
262646
260831
259023
257222
255428
253640
251859
250084
248315
246552
244796
243045
241301
239563
237830
236104
234383
232668
230959
229255
227558
225868
224184
222508
220841
219181
217531
215890
214257
212632
211014
209403
207799
206201
204608
203021
201438
199859
198283
196711
195143
193580
192021
190469
188923
187383
185851
184325
182805
181291
179783
178281
176785
175295
173812
172334
170862
169395
167934
166481
165034
163595
162164
160741
159325
157918
156519
155128
153744
152368
150999
149638
148283
146936
145593
144255
142920
141590
140263
138940
137621
136307
134997
133692
132392
131099
129811
128531
127256
125990
124729
123477
122227
120986
119750
118522
117298
116082
114867
113662
112456
111256
110056
108863
107666
106478
105293
104116
102943
101781
100622
99472.7
98324.9
97185.6
96047.7
94914
93778.7
92648.9
91518
90392.9
89266.5
88147.3
87025.7
85912.7
84791.4
83680.7
82557.1
81444.2
80315.7
79199.8
78065.3
76944.4
75799
74667.5
73500.3
72346.3
71146.1
69953.4
68703.4
67453.4
66135.9
64801.1
63408.3
61965.5
60483.5
58942.9
57365.2
385227
381193
377354
373701
370228
366918
363752
360715
357791
354968
352234
349577
346988
344461
341987
339561
337178
334834
332525
330247
327999
325777
323580
321406
319253
317121
315007
312911
310832
308769
306721
304687
302667
300660
298666
296684
294713
292754
290805
288867
286939
285021
283111
281211
279319
277436
275561
273694
271834
269982
268138
266302
264472
262650
260836
259028
257227
255432
253644
251863
250088
248320
246557
244801
243051
241306
239568
237836
236109
234387
232672
230962
229258
227560
225869
224185
222509
220841
219182
217532
215891
214258
212634
211018
209407
207804
206207
204615
203030
201449
199872
198297
196726
195159
193596
192037
190485
188940
187402
185871
184347
182828
181316
179809
178308
176813
175324
173840
172361
170887
169419
167958
166503
165056
163617
162185
160762
159346
157939
156539
155147
153762
152386
151016
149654
148299
146951
145607
144269
142933
141602
140273
138949
137628
136313
135001
133696
132395
131100
129812
128532
127258
125993
124733
123480
122232
120991
119755
118526
117303
116088
114871
113665
112459
111257
110056
108860
107662
106471
105282
104101
102925
101758
100597
99443.4
98293.2
97150.5
96008.6
94869.4
93729
92592.9
91456.1
90322.4
89188.2
88059.6
86929.5
85804.9
84673.9
83548.2
82412.9
81282.6
80140.7
79004.7
77857.3
76716.8
75558.5
74405.8
73226.5
72049.3
70836.6
69621.6
68361.4
67092.7
65774.1
64426.2
63038.5
61596
60120.2
58593.5
57036.9
385947
381968
378158
374512
371025
367686
364483
361403
358433
355563
352783
350082
347451
344884
342374
339914
337500
335127
332792
330490
328220
325978
323763
321572
319405
317258
315132
313025
310935
308863
306806
304764
302737
300724
298723
296736
294760
292796
290843
288901
286969
285047
283135
281231
279337
277452
275575
273706
271845
269992
268147
266309
264479
262657
260841
259033
257231
255437
253649
251867
250092
248323
246561
244804
243053
241309
239570
237837
236109
234387
232671
230961
229256
227558
225867
224183
222507
220840
219181
217531
215890
214257
212634
211018
209409
207807
206211
204621
203037
201458
199882
198309
196738
195171
193608
192049
190498
188953
187416
185886
184363
182846
181335
179829
178329
176834
175345
173860
172381
170906
169437
167974
166519
165072
163633
162201
160778
159362
157954
156553
155161
153774
152396
151024
149661
148305
146957
145612
144273
142936
141603
140274
138949
137627
136311
134998
133692
132390
131096
129807
128527
127254
125989
124730
123478
122230
120989
119752
118524
117301
116085
114867
113661
112454
111249
110049
108850
107650
106456
105266
104080
102901
101729
100567
99407.5
98256.1
97109.7
95966.3
94820.1
93676.7
92532.4
91391.9
90250.7
89110.9
87972.6
86837.7
85699.9
84563.9
83421.4
82278.8
81131.3
79978.1
78825.1
77665.3
76508.4
75341.5
74170.6
72982.6
71786.4
70563.5
69332.1
68065.7
66783.1
65464.8
64105.9
62718.3
61277
59805.6
58292.3
56754
386581
382646
378862
375223
371729
368370
365138
362022
359015
356106
353286
350546
347879
345277
342734
340243
337801
335402
333042
330718
328427
326167
323935
321729
319547
317388
315250
313132
311033
308952
306887
304838
302804
300785
298779
296786
294805
292837
290880
288934
286999
285074
283158
281253
279356
277468
275589
273719
271856
270002
268156
266317
264486
262662
260846
259037
257235
255440
253651
251869
250094
248324
246561
244803
243052
241307
239567
237833
236105
234383
232666
230955
229251
227553
225862
224178
222502
220835
219176
217526
215885
214253
212630
211014
209407
207806
206212
204623
203042
201464
199889
198316
196746
195179
193615
192057
190505
188961
187424
185894
184372
182856
181346
179841
178341
176846
175357
173871
172391
170915
169446
167983
166527
165079
163640
162209
160786
159370
157962
156561
155167
153779
152398
151024
149659
148302
146952
145607
144267
142929
141596
140265
138940
137618
136301
134988
133682
132381
131086
129797
128518
127244
125980
124721
123469
122220
120980
119742
118515
117292
116073
114857
113649
112442
111235
110037
108833
107634
106435
105247
104052
102876
101694
100535
99366.8
98216.9
97064.1
95921.6
94766.2
93624
92470.2
91327.7
90177.6
89036.3
87887.6
86753.1
85600.3
84463.7
83305.1
82157.7
80994.7
79830.4
78664.8
77496.4
76326
75151.8
73963.9
72767.8
71556.5
70325.2
69080.9
67811
66514.6
65194.5
63826.1
62435.8
60998.1
59533
58033.4
56511.4
387139
383238
379477
375847
372348
368974
365719
362576
359538
356596
353742
350969
348270
345637
343064
340546
338078
335655
333273
330929
328620
326342
324095
321874
319680
317509
315360
313233
311125
309035
306963
304907
302867
300842
298831
296833
294849
292876
290916
288966
287028
285100
283182
281274
279375
277485
275604
273731
271867
270011
268163
266324
264491
262667
260850
259039
257236
255440
253651
251868
250092
248321
246557
244799
243047
241301
239560
237826
236097
234375
232658
230946
229242
227544
225853
224170
222495
220827
219168
217518
215877
214245
212622
211007
209401
207801
206209
204623
203043
201466
199892
198318
196748
195180
193616
192057
190505
188961
187424
185894
184373
182857
181348
179843
178343
176848
175358
173872
172391
170915
169446
167982
166527
165079
163640
162209
160786
159370
157962
156560
155165
153775
152392
151016
149648
148289
146938
145592
144251
142913
141579
140248
138923
137601
136285
134973
133667
132367
131072
129784
128504
127231
125966
124705
123453
122203
120964
119725
118497
117275
116053
114841
113629
112425
111216
110020
108810
107614
106410
105225
104023
102848
101658
100500
99321.4
98174.9
97014.9
95875.3
94708.9
93568.6
92405.8
91266.1
90107.7
88965.5
87807.7
86675.4
85509.6
84371.9
83201.1
82048
80873.7
79698
78524.6
77347.8
76164.1
74989.3
73783.6
72582.5
71356.3
70119.4
68862.3
67589
66279.3
64953.1
63579.9
62188.1
60756
59298.8
57812.4
56305.3
387627
383755
380012
376390
372889
369504
366232
363067
360003
357033
354152
351350
348623
345963
343364
340822
338330
335886
333484
331122
328796
326503
324241
322008
319802
317620
315462
313325
311209
309112
307033
304972
302926
300896
298880
296878
294889
292913
290949
288997
287055
285124
283204
281293
279392
277500
275617
273742
271876
270019
268170
266328
264495
262669
260850
259039
257235
255438
253648
251864
250086
248315
246550
244791
243038
241291
239550
237815
236087
234364
232646
230935
229231
227534
225844
224161
222486
220818
219159
217508
215866
214234
212611
210997
209391
207793
206203
204618
203039
201462
199888
198313
196742
195173
193609
192049
190498
188953
187416
185885
184364
182849
181340
179835
178335
176839
175348
173862
172382
170906
169438
167974
166519
165071
163632
162201
160778
159362
157954
156551
155155
153763
152378
151000
149630
148269
146916
145568
144226
142887
141554
140224
138899
137578
136264
134953
133648
132348
131053
129767
128486
127213
125946
124684
123433
122181
120941
119700
118474
117251
116027
114817
113605
112405
111196
110000
108788
107592
106386
105200
103994
102818
101622
100464
99279.2
98130.5
96967.3
95827.5
94656.1
93512.5
92345.3
91203.1
90038.9
88897.2
87734.2
86600.9
85427.3
84285.9
83106.2
81949.1
80765.8
79583.4
78400.8
77216
76025.7
74842.1
73623.3
72420
71181.3
69940.4
68674.2
67392
66072.3
64740
63365.1
61975
60549.3
59100.3
57626.1
56132.3
388051
384203
380475
376859
373357
369965
366679
363496
360411
357419
354514
351688
348937
346254
343633
341069
338557
336094
333674
331296
328955
326648
324374
322129
319912
317721
315554
313410
311286
309183
307098
305030
302980
300945
298925
296919
294926
292947
290980
289024
287080
285147
283224
281311
279407
277513
275628
273751
271884
270024
268173
266331
264496
262668
260848
259036
257231
255432
253641
251856
250077
248305
246539
244780
243027
241280
239538
237803
236074
234351
232634
230923
229219
227523
225833
224151
222476
220809
219149
217497
215855
214222
212598
210984
209379
207782
206192
204608
203029
201451
199876
198300
196729
195159
193595
192034
190483
188937
187400
185868
184347
182831
181323
179817
178318
176821
175331
173845
172365
170890
169422
167960
166505
165056
163618
162186
160763
159347
157939
156535
155138
153744
152359
150978
149607
148243
146888
145538
144195
142856
141523
140193
138870
137550
136237
134927
133623
132323
131030
129743
128462
127189
125922
124659
123406
122153
120913
119671
118446
117222
116000
114789
113581
112379
111170
109975
108764
107566
106364
105173
103966
102783
101588
100421
99236.3
98082.2
96919.2
95777.6
94601.7
93461.3
92289.7
91144.3
89975.1
88826.7
87661.8
86523.4
85348.7
84204.1
83019.6
81859.2
80668.6
79480.5
78291.9
77101.9
75901.7
74708
73486.5
72275.1
71030.3
69782.5
68510.4
67218.1
65892.5
64556.9
63182.3
61795.5
60375.3
58934.3
57471.1
55988.9
388415
384586
380871
377261
373758
370359
367063
363866
360765
357755
354829
351984
349212
346509
343869
341286
338757
336277
333843
331450
329096
326777
324492
322237
320011
317811
315637
313485
311355
309246
307156
305083
303028
300989
298965
296956
294960
292977
291007
289049
287102
285166
283241
281325
279420
277523
275636
273758
271888
270027
268174
266330
264493
262664
260843
259029
257223
255424
253631
251846
250066
248294
246527
244767
243014
241267
239525
237790
236061
234338
232622
230911
229208
227512
225823
224141
222467
220799
219138
217486
215843
214209
212584
210969
209363
207766
206177
204592
203011
201432
199856
198280
196708
195138
193573
192013
190462
188915
187377
185846
184325
182808
181300
179794
178295
176797
175308
173822
172344
170869
169402
167940
166486
165036
163598
162165
160743
159326
157918
156513
155115
153720
152334
150951
149580
148213
146857
145505
144161
142821
141489
140160
138838
137519
136207
134897
133595
132295
131003
129715
128435
127161
125894
124632
123377
122124
120882
119639
118415
117187
115970
114759
113555
112351
111144
109946
108740
107535
106341
105143
103936
102749
101555
100370
99191.7
98031.2
96867
95725
94550.6
93404
92235.7
91088
89912.3
88753.6
87592.7
86443.9
85272.7
84126.3
82937.2
81774.9
80580.2
79389
78196.4
77001
75794.8
74593
73367.9
72144.1
70900.7
69641.8
68367.8
67067.7
65740.3
64403.6
63030.8
61646.6
60231.1
58797.9
57343.7
55871.5
388725
384911
381204
377598
374094
370691
367386
364179
361065
358040
355099
352237
349449
346729
344072
341474
338930
336436
333988
331583
329218
326889
324594
322331
320097
317890
315708
313551
311415
309301
307206
305129
303070
301027
299000
296987
294989
293003
291030
289070
287120
285182
283254
281337
279429
277531
275641
273761
271889
270026
268172
266326
264488
262658
260836
259021
257214
255414
253621
251834
250055
248282
246515
244755
243001
241253
239512
237777
236048
234326
232609
230900
229197
227501
225813
224132
222457
220788
219127
217474
215830
214195
212569
210953
209346
207749
206157
204572
202989
201408
199831
198255
196683
195113
193547
191987
190436
188889
187351
185820
184300
182783
181275
179769
178269
176772
175283
173797
172320
170846
169379
167917
166463
165014
163574
162141
160718
159302
157893
156487
155088
153693
152305
150922
149550
148182
146824
145471
144126
142786
141453
140125
138803
137485
136174
134866
133565
132266
130975
129687
128408
127133
125866
124603
123347
122094
120851
119609
118381
117154
115940
114727
113525
112319
111116
109915
108713
107507
106313
105105
103909
102707
101517
100324
99151.3
97985.4
96820.2
95667.5
94495.6
93340.6
92180.7
91024.3
89852.4
88684.9
87530.7
86369.5
85203.6
84046.4
82861.7
81693.5
80500.8
79309.9
78117.2
76916.9
75701.2
74493
73264.2
72031.4
70788
69520.1
68248.4
66942.9
65615.9
64278.9
62907.9
61525.7
60114.9
58687.9
57240.5
55777.4
388982
385179
381477
377873
374369
370962
367652
364436
361313
358276
355323
352448
349646
346913
344242
341631
339075
336569
334111
331695
329321
326983
324680
322410
320169
317956
315769
313606
311466
309348
307249
305168
303106
301059
299029
297014
295012
293024
291049
289086
287135
285194
283265
281345
279435
277535
275644
273762
271889
270024
268168
266321
264482
262651
260828
259012
257204
255404
253610
251824
250044
248270
246503
244743
242989
241241
239500
237765
236036
234313
232598
230888
229186
227491
225803
224122
222447
220779
219117
217463
215818
214182
212555
210938
209329
207729
206135
204548
202963
201381
199802
198227
196655
195085
193519
191961
190408
188861
187323
185795
184273
182758
181249
179744
178243
176748
175257
173772
172294
170821
169354
167893
166437
164989
163548
162117
160692
159277
157866
156461
155061
153666
152277
150895
149521
148154
146794
145440
144093
142753
141420
140092
138769
137453
136141
134835
133534
132238
130946
129660
128380
127105
125838
124574
123317
122064
120820
119581
118352
117127
115912
114698
113494
112286
111086
109881
108682
107474
106283
105069
103870
102657
101480
100282
99112.7
97943.1
96774.2
95606.8
94442.9
93282.6
92126.9
90956.8
89799.2
88630.2
87472.6
86305.6
85143.5
83972.5
82798.3
81618
80431.8
79241.6
78047.5
76841.5
75623.4
74410.8
73174.2
71935.9
70692.9
69422.3
68149.1
66843.3
65518.3
64180.2
62811.3
61430
60023.8
58600.8
57158.7
55703.3
389186
385392
381693
378089
374584
371175
367862
364641
361510
358465
355502
352616
349804
347060
344379
341758
339191
336677
334209
331786
329403
327059
324750
322473
320227
318009
315818
313651
311507
309385
307282
305199
303133
301085
299052
297034
295030
293040
291063
289098
287145
285203
283271
281350
279439
277537
275645
273761
271887
270021
268164
266316
264476
262644
260821
259005
257196
255395
253601
251814
250034
248261
246493
244733
242978
241230
239489
237754
236025
234303
232587
230878
229176
227481
225794
224113
222438
220769
219108
217454
215808
214171
212543
210924
209313
207711
206114
204525
202937
201355
199775
198200
196626
195058
193493
191935
190382
188837
187299
185771
184249
182734
181225
179720
178220
176725
175234
173750
172271
170799
169331
167870
166414
164966
163524
162092
160667
159252
157840
156436
155035
153641
152251
150870
149495
148129
146767
145414
144065
142725
141389
140061
138737
137422
136109
134805
133504
132209
130917
129632
128351
127077
125809
124546
123288
122036
120792
119557
118325
117100
115885
114667
113460
112253
111053
109845
108647
107440
106245
105026
103832
102625
101450
100240
99077.2
97893
96723.8
95557.7
94395.1
93227.8
92073
90900.8
89748.9
88577.5
87423.6
86254.3
85091.4
83914
82744
81553.5
80373.3
79180.4
77991.9
76776.5
75561.1
74339.3
73103.6
71862
70616.5
69345.4
68071.4
66768.9
65444.4
64105.2
62737.8
61356.8
59953.7
58533.6
57096.4
55646.4
389339
385550
381853
378249
374744
371334
368018
364793
361657
358606
355636
352743
349922
347170
344481
341852
339279
336757
334283
331854
329466
327116
324802
322521
320271
318050
315855
313685
311538
309412
307308
305222
303154
301103
299068
297049
295043
293052
291073
289107
287152
285209
283276
281354
279441
277538
275645
273761
271885
270019
268162
266313
264472
262640
260816
258999
257190
255389
253594
251807
250027
248253
246485
244725
242970
241222
239480
237745
236016
234294
232578
230870
229168
227473
225786
224105
222430
220762
219100
217445
215799
214162
212533
210912
209300
207695
206096
204504
202915
201333
199752
198178
196603
195037
193471
191915
190361
188818
187279
185752
184228
182715
181204
179702
178200
176707
175214
173732
172251
170780
169311
167852
166394
164947
163504
162073
160646
159231
157818
156416
155014
153623
152232
150852
149476
148111
146748
145395
144045
142704
141365
140037
138710
137395
136081
134778
133476
132184
130891
129608
128326
127053
125782
124521
123262
122013
120768
119534
118300
117076
115855
114638
113428
112219
111018
109808
108612
107404
106206
104994
103802
102591
101418
100206
99043.1
97848.6
96686.7
95512.5
94351.3
93183.4
92029.5
90856.9
89705.3
88534.5
87383.9
86209
85048.9
83868.6
82699.3
81506.2
80329.7
79133.1
77943.2
76722.7
75516.3
74282.9
73050.5
71805.4
70559
69293.3
68015.4
66716.9
65391.3
64052.6
62684.9
61304.4
59903.4
58485.4
57051.4
55604.8
389437
385652
381958
378356
374851
371440
368122
364894
361755
358699
355725
352827
350001
347243
344550
341916
339338
336811
334333
331899
329508
327154
324837
322553
320300
318076
315879
313707
311558
309431
307324
305237
303167
301115
299079
297058
295052
293059
291079
289112
287156
285212
283279
281356
279443
277539
275645
273760
271885
270018
268160
266311
264470
262637
260813
258996
257186
255385
253590
251802
250022
248247
246480
244718
242964
241215
239473
237738
236009
234287
232571
230863
229161
227467
225779
224098
222424
220755
219094
217440
215794
214156
212526
210904
209290