/*--------------------------------*- C++ -*----------------------------------*\
| =========                 |                                                 |
| \\      /  F ield         | OpenFOAM: The Open Source CFD Toolbox           |
|  \\    /   O peration     | Version:  2.4.0                                 |
|   \\  /    A nd           | Web:      www.OpenFOAM.org                      |
|    \\/     M anipulation  |                                                 |
\*---------------------------------------------------------------------------*/
FoamFile
{
    version     2.0;
    format      ascii;
    class       volVectorField;
    location    "33";
    object      U;
}
// * * * * * * * * * * * * * * * * * * * * * * * * * * * * * * * * * * * * * //

dimensions      [0 1 -1 0 0 0 0];

internalField   nonuniform List<vector> 
4400
(
(0.095043 0.000409535 0)
(0.104026 -0.00157992 0)
(0.104838 0.0010139 0)
(0.0934008 0.00114065 0)
(0.0900067 -0.00030584 0)
(0.0997229 -0.00104528 0)
(0.106911 -0.000621826 0)
(0.0943083 0.00210043 0)
(0.0970034 -0.00154645 0)
(0.104959 -0.000353579 0)
(0.0928948 0.00161057 0)
(0.105853 -0.00177353 0)
(0.095596 0.000895151 0)
(0.109371 0.000104751 0)
(0.0894416 -0.000449293 0)
(0.116939 0.000107189 0)
(0.09223 -0.000611488 0)
(0.11433 0.000864383 0)
(0.111371 -0.00195926 0)
(0.105309 -0.0011917 0)
(0.28016 0.00130954 0)
(0.283783 -0.00511479 0)
(0.279215 0.00332594 0)
(0.274881 0.00305408 0)
(0.264035 -0.000805435 0)
(0.287799 -0.0037688 0)
(0.278523 -0.00160922 0)
(0.27702 0.00680171 0)
(0.278404 -0.00553935 0)
(0.284095 -6.93886e-05 0)
(0.266449 0.00410576 0)
(0.301547 -0.00508591 0)
(0.253254 0.00222561 0)
(0.31605 0.000560255 0)
(0.242735 -0.00189065 0)
(0.323079 0.00056522 0)
(0.25566 -0.0013809 0)
(0.303235 -1.50806e-05 0)
(0.310038 -0.0021482 0)
(0.275519 -0.00610292 0)
(0.445467 0.00179421 0)
(0.44577 -0.00809457 0)
(0.427071 0.00596969 0)
(0.449836 0.00459785 0)
(0.411066 -0.00155683 0)
(0.46566 -0.00643631 0)
(0.422483 -0.00208876 0)
(0.447857 0.0114405 0)
(0.441072 -0.0104033 0)
(0.441743 0.00196909 0)
(0.427126 0.00495784 0)
(0.473587 -0.00760552 0)
(0.399294 0.0035139 0)
(0.492065 -2.93124e-05 0)
(0.397223 -0.00161853 0)
(0.485156 -0.00201645 0)
(0.424446 0.000944715 0)
(0.455736 -0.00331257 0)
(0.477152 -0.00570886 0)
(0.445461 -0.00372486 0)
(0.584891 0.00147651 0)
(0.600233 -0.00908985 0)
(0.54559 0.00752539 0)
(0.609634 0.00621847 0)
(0.531559 -0.00244395 0)
(0.625626 -0.0088468 0)
(0.551859 -0.0016592 0)
(0.586692 0.0142808 0)
(0.601721 -0.0136859 0)
(0.567535 0.00395992 0)
(0.580315 0.00537643 0)
(0.616699 -0.00957775 0)
(0.539751 0.00570148 0)
(0.636179 -0.00189131 0)
(0.542774 -5.39112e-05 0)
(0.625926 -0.00459984 0)
(0.568855 0.00223064 0)
(0.593604 -0.00449312 0)
(0.621752 -0.00973937 0)
(0.584422 -0.00278237 0)
(0.69415 -0.000637283 0)
(0.74433 -0.00826379 0)
(0.646798 0.00975976 0)
(0.745388 0.00717933 0)
(0.633623 -0.00331199 0)
(0.747617 -0.0135029 0)
(0.681002 0.00203598 0)
(0.681598 0.0137459 0)
(0.750479 -0.0166645 0)
(0.671838 0.00786625 0)
(0.706313 0.00334114 0)
(0.73893 -0.0105836 0)
(0.658855 0.00805352 0)
(0.757292 -0.00400886 0)
(0.664312 0.00131676 0)
(0.744879 -0.00679128 0)
(0.694443 0.0043002 0)
(0.706035 -0.0060657 0)
(0.743532 -0.0137115 0)
(0.703954 -2.4587e-05 0)
(0.7785 -0.00378647 0)
(0.862901 -0.00780908 0)
(0.738797 0.0132101 0)
(0.85375 0.00774947 0)
(0.734093 -0.00120047 0)
(0.827752 -0.0218069 0)
(0.800483 0.00797571 0)
(0.751894 0.0124237 0)
(0.861591 -0.0228122 0)
(0.766285 0.0144447 0)
(0.801718 -0.000362772 0)
(0.837129 -0.0117323 0)
(0.756709 0.0106603 0)
(0.851076 -0.00658099 0)
(0.764639 0.00270478 0)
(0.835109 -0.00923065 0)
(0.79766 0.00627297 0)
(0.79863 -0.00672084 0)
(0.835414 -0.0179357 0)
(0.80327 0.00245608 0)
(0.846988 -0.00676794 0)
(0.9484 -0.00855739 0)
(0.82128 0.0177809 0)
(0.930227 0.00664571 0)
(0.830616 0.00412078 0)
(0.885692 -0.0309673 0)
(0.895254 0.0139151 0)
(0.81694 0.0128039 0)
(0.936248 -0.0313607 0)
(0.845437 0.0219549 0)
(0.876027 -0.00418853 0)
(0.910342 -0.0129651 0)
(0.837979 0.0135134 0)
(0.919821 -0.00897774 0)
(0.846372 0.00402306 0)
(0.902502 -0.0113862 0)
(0.876436 0.00773615 0)
(0.87316 -0.00695191 0)
(0.90345 -0.0214415 0)
(0.880598 0.00436566 0)
(0.90386 -0.00900917 0)
(1.00142 -0.0103228 0)
(0.891234 0.0230592 0)
(0.978352 0.00416853 0)
(0.90848 0.0101649 0)
(0.932317 -0.038955 0)
(0.961071 0.0188121 0)
(0.878474 0.0146283 0)
(0.984765 -0.0397872 0)
(0.906451 0.0291605 0)
(0.933101 -0.00768071 0)
(0.959526 -0.0141299 0)
(0.903133 0.0160748 0)
(0.966701 -0.0107676 0)
(0.909988 0.00510817 0)
(0.951111 -0.013023 0)
(0.933939 0.00901004 0)
(0.928962 -0.00745908 0)
(0.952179 -0.0238483 0)
(0.936194 0.00605566 0)
(0.948508 -0.0104286 0)
(1.02578 -0.0124732 0)
(0.944442 0.0281055 0)
(1.00378 0.00159484 0)
(0.961575 0.0152476 0)
(0.967192 -0.0448445 0)
(0.998673 0.0224078 0)
(0.931247 0.0167728 0)
(1.01073 -0.046177 0)
(0.949591 0.03517 0)
(0.973111 -0.0103005 0)
(0.986511 -0.0148706 0)
(0.950701 0.0177083 0)
(0.993033 -0.0116907 0)
(0.954503 0.0056801 0)
(0.981449 -0.0141131 0)
(0.971601 0.0101932 0)
(0.965949 -0.00828193 0)
(0.982861 -0.0252682 0)
(0.970546 0.00785054 0)
(0.978284 -0.0111314 0)
(1.02522 -0.0142438 0)
(0.97835 0.0318694 0)
(1.009 -5.61828e-05 0)
(0.990463 0.0184539 0)
(0.987314 -0.0480712 0)
(1.01016 0.0245682 0)
(0.970439 0.0183519 0)
(1.01434 -0.0493883 0)
(0.975177 0.0390614 0)
(0.994633 -0.0117787 0)
(0.993713 -0.0146778 0)
(0.979418 0.0180855 0)
(1.00032 -0.0116215 0)
(0.978964 0.00571367 0)
(0.993975 -0.0147836 0)
(0.989132 0.011324 0)
(0.98465 -0.00949807 0)
(0.995049 -0.0253698 0)
(0.984581 0.00938419 0)
(0.990212 -0.011248 0)
(1.00241 -0.0149655 0)
(0.992122 0.0335736 0)
(0.994368 -0.000324296 0)
(0.997584 0.0191689 0)
(0.989898 -0.0483253 0)
(0.998409 0.0251091 0)
(0.992333 0.0186134 0)
(0.996023 -0.0488311 0)
(0.983347 0.0399923 0)
(0.996093 -0.0120396 0)
(0.982984 -0.0134359 0)
(0.988404 0.0171182 0)
(0.989739 -0.0104743 0)
(0.98331 0.00520071 0)
(0.989281 -0.0148489 0)
(0.986164 0.0121531 0)
(0.986274 -0.0108761 0)
(0.987129 -0.0240105 0)
(0.980607 0.00998339 0)
(0.981166 -0.0108227 0)
(0.959726 -0.0143603 0)
(0.985542 0.0329667 0)
(0.960079 0.000665342 0)
(0.986003 0.0172453 0)
(0.972437 -0.0457402 0)
(0.967197 0.0239921 0)
(0.993788 0.0173438 0)
(0.957149 -0.0446063 0)
(0.97403 0.0376753 0)
(0.976556 -0.0110245 0)
(0.955397 -0.01161 0)
(0.977517 0.0149859 0)
(0.961572 -0.00843972 0)
(0.968733 0.00403237 0)
(0.966885 -0.0141108 0)
(0.963546 0.0123106 0)
(0.971245 -0.0120635 0)
(0.957713 -0.0213309 0)
(0.961497 0.00917889 0)
(0.947808 -0.00969496 0)
(0.900445 -0.0128037 0)
(0.958064 0.0303016 0)
(0.907403 0.00251035 0)
(0.958445 0.0131233 0)
(0.932338 -0.0406317 0)
(0.920745 0.0212438 0)
(0.971649 0.0151031 0)
(0.899495 -0.037601 0)
(0.946745 0.0324748 0)
(0.935439 -0.00887584 0)
(0.911898 -0.00979804 0)
(0.946743 0.0121036 0)
(0.915829 -0.00602623 0)
(0.936827 0.00222245 0)
(0.924878 -0.0124267 0)
(0.923904 0.0114252 0)
(0.937447 -0.0125067 0)
(0.90763 -0.0177619 0)
(0.928437 0.00695165 0)
(0.887431 -0.00773248 0)
(0.829203 -0.0110499 0)
(0.908245 0.0262162 0)
(0.839834 0.00421247 0)
(0.914781 0.00777143 0)
(0.866953 -0.0334193 0)
(0.862343 0.016997 0)
(0.922149 0.0128116 0)
(0.825004 -0.0291978 0)
(0.901159 0.0251829 0)
(0.872556 -0.00580308 0)
(0.854012 -0.00844253 0)
(0.895227 0.00906299 0)
(0.853442 -0.0036861 0)
(0.887075 0.00028821 0)
(0.861659 -0.00984099 0)
(0.869958 0.00932071 0)
(0.880826 -0.0116014 0)
(0.84103 -0.0142443 0)
(0.878818 0.00389941 0)
(0.800051 -0.00507692 0)
(0.750171 -0.00985694 0)
(0.833831 0.0213446 0)
(0.761966 0.00478365 0)
(0.848528 0.00299852 0)
(0.775547 -0.0249324 0)
(0.793217 0.011521 0)
(0.841275 0.0115642 0)
(0.737913 -0.0212126 0)
(0.837321 0.0167254 0)
(0.788196 -0.00221668 0)
(0.782786 -0.00775051 0)
(0.820932 0.00642083 0)
(0.775442 -0.00173108 0)
(0.815825 -0.00112066 0)
(0.778644 -0.00694248 0)
(0.800989 0.00638056 0)
(0.798996 -0.00930821 0)
(0.762333 -0.0116269 0)
(0.806903 0.00105298 0)
(0.690335 -0.00231782 0)
(0.662663 -0.00956693 0)
(0.73319 0.0162677 0)
(0.67263 0.00427224 0)
(0.748467 0.000812312 0)
(0.665129 -0.0171001 0)
(0.709474 0.00546665 0)
(0.727858 0.0118385 0)
(0.645652 -0.0157423 0)
(0.749047 0.00876184 0)
(0.681747 0.00157135 0)
(0.69594 -0.00781293 0)
(0.720195 0.00462328 0)
(0.680755 -0.000343503 0)
(0.719272 -0.00180359 0)
(0.678731 -0.00465583 0)
(0.710948 0.00355727 0)
(0.693237 -0.00622488 0)
(0.670297 -0.0100304 0)
(0.707615 -0.000577204 0)
(0.566168 -0.000511745 0)
(0.557742 -0.00946738 0)
(0.603726 0.0120161 0)
(0.561843 0.00406067 0)
(0.61526 0.000773617 0)
(0.547712 -0.0120278 0)
(0.597232 0.00120017 0)
(0.590145 0.0122335 0)
(0.546548 -0.0128643 0)
(0.621828 0.00423528 0)
(0.557691 0.00452327 0)
(0.586325 -0.00805334 0)
(0.590522 0.00402454 0)
(0.567654 0.000311817 0)
(0.595548 -0.00182629 0)
(0.56142 -0.00312604 0)
(0.593121 0.00168556 0)
(0.566723 -0.00327765 0)
(0.558785 -0.00892175 0)
(0.579642 -0.000778886 0)
(0.429309 -0.000110775 0)
(0.422716 -0.00764602 0)
(0.449276 0.00880441 0)
(0.428911 0.00363524 0)
(0.463186 0.00054595 0)
(0.417866 -0.0083609 0)
(0.449614 -0.000154715 0)
(0.442002 0.0102808 0)
(0.423493 -0.00986668 0)
(0.460488 0.002632 0)
(0.424005 0.0046742 0)
(0.445609 -0.00682197 0)
(0.44005 0.00358091 0)
(0.434013 0.000156263 0)
(0.446626 -0.00119519 0)
(0.425932 -0.002239 0)
(0.446963 0.000856027 0)
(0.423663 -0.00128786 0)
(0.423031 -0.00730508 0)
(0.426613 -0.000131708 0)
(0.272216 0.000265064 0)
(0.261911 -0.004574 0)
(0.278859 0.00481283 0)
(0.276307 0.00273631 0)
(0.295827 0.000230983 0)
(0.266592 -0.00464202 0)
(0.278792 -0.000918437 0)
(0.282299 0.00653621 0)
(0.271967 -0.00573967 0)
(0.28341 0.00090807 0)
(0.273767 0.00350316 0)
(0.279872 -0.0043761 0)
(0.276135 0.00213143 0)
(0.27689 0.00028667 0)
(0.280236 -0.000751975 0)
(0.270116 -0.00137759 0)
(0.278528 0.000605292 0)
(0.266737 -0.000182661 0)
(0.262704 -0.00453745 0)
(0.25784 0.000357744 0)
(0.0953046 0.000246706 0)
(0.0872575 -0.00137772 0)
(0.0922494 0.00136033 0)
(0.101389 0.00097312 0)
(0.110638 -1.34996e-05 0)
(0.0960957 -0.0013156 0)
(0.0921481 -0.000555469 0)
(0.103157 0.00210671 0)
(0.0990683 -0.00178885 0)
(0.0947531 7.70546e-05 0)
(0.100709 0.00127471 0)
(0.0985604 -0.00147034 0)
(0.0955826 0.000684158 0)
(0.0989365 0.000169308 0)
(0.0989273 -0.000280221 0)
(0.0940313 -0.000369595 0)
(0.0954218 0.000201061 0)
(0.0940374 9.92207e-05 0)
(0.0868555 -0.00136992 0)
(0.0815993 0.000243165 0)
(0.162537 -0.00857272 0)
(0.211443 -0.0241657 0)
(0.224049 0.022517 0)
(0.167664 0.0209605 0)
(0.413824 -0.0356737 0)
(0.347973 -0.0543012 0)
(0.280893 -0.0689643 0)
(0.356341 0.0160458 0)
(0.460118 0.00521356 0)
(0.529132 -0.057653 0)
(0.571409 -0.0854584 0)
(0.679315 -0.10706 0)
(0.700143 -0.124994 0)
(0.844496 -0.17743 0)
(1.0123 -0.321225 0)
(0.960859 -0.39895 0)
(0.911503 -0.324888 0)
(0.901272 -0.198058 0)
(0.94396 -0.0193349 0)
(1.01533 0.122353 0)
(0.948094 0.07161 0)
(0.852455 0.000376133 0)
(0.674999 -0.0413667 0)
(0.474511 -0.177668 0)
(0.567684 -0.16378 0)
(0.592928 -0.073039 0)
(0.570321 0.0316357 0)
(0.658843 0.251302 0)
(0.640997 0.388623 0)
(0.541478 0.362612 0)
(0.467282 0.260805 0)
(0.438386 0.146785 0)
(0.440071 0.0479148 0)
(0.453321 -0.0223989 0)
(0.468516 -0.0711198 0)
(0.483997 -0.104536 0)
(0.493718 -0.115805 0)
(0.490042 -0.104336 0)
(0.47592 -0.0799828 0)
(0.459148 -0.0529733 0)
(0.443188 -0.0304869 0)
(0.428524 -0.0156349 0)
(0.415801 -0.00758863 0)
(0.405756 -0.00383466 0)
(0.398562 -0.00219901 0)
(0.393838 -0.00143401 0)
(0.390957 -0.000992771 0)
(0.389305 -0.000684347 0)
(0.388405 -0.000454963 0)
(0.387934 -0.000288772 0)
(0.387697 -0.000174884 0)
(0.38758 -0.000101301 0)
(0.387525 -5.63368e-05 0)
(0.387499 -3.01782e-05 0)
(0.387488 -1.56074e-05 0)
(0.387483 -7.83539e-06 0)
(0.38748 -3.8257e-06 0)
(0.387479 -1.81509e-06 0)
(0.387479 -8.58861e-07 0)
(0.387479 -3.91618e-07 0)
(0.387478 -1.79582e-07 0)
(0.387479 -8.51439e-08 0)
(0.387478 -4.57295e-08 0)
(0.38748 -1.94491e-08 0)
(0.387477 -1.70268e-08 0)
(0.387481 -8.12855e-09 0)
(0.387476 -8.23165e-09 0)
(0.387482 7.73529e-10 0)
(0.387474 -7.69049e-09 0)
(0.387484 1.10939e-08 0)
(0.387472 -6.57011e-09 0)
(0.387486 8.71936e-09 0)
(0.387471 -1.62359e-09 0)
(0.387487 7.13145e-11 0)
(0.387471 4.54895e-09 0)
(0.387486 -3.42706e-09 0)
(0.387473 7.98733e-09 0)
(0.387483 -6.5422e-09 0)
(0.387476 1.21281e-08 0)
(0.387479 -1.57013e-08 0)
(0.387479 1.42692e-08 0)
(0.387477 -9.91335e-09 0)
(0.387481 3.51839e-09 0)
(0.387477 2.83912e-10 0)
(0.38748 -3.09431e-09 0)
(0.387478 9.09882e-09 0)
(0.387478 -1.2217e-08 0)
(0.38748 9.10758e-09 0)
(0.387478 -3.4264e-10 0)
(0.387479 -3.73824e-09 0)
(0.387479 4.99879e-09 0)
(0.387478 -4.94571e-09 0)
(0.387479 3.94072e-10 0)
(0.387478 3.83797e-09 0)
(0.387478 -3.45323e-09 0)
(0.387479 -1.27108e-09 0)
(0.387479 4.00502e-09 0)
(0.387479 1.69294e-10 0)
(0.387479 -1.84453e-09 0)
(0.387479 1.44999e-09 0)
(0.341196 -0.012391 0)
(0.377843 -0.0273706 0)
(0.321177 0.0228263 0)
(0.255786 0.00722858 0)
(0.489897 -0.0604584 0)
(0.479556 -0.0543583 0)
(0.458467 -0.0683536 0)
(0.470038 -0.00752301 0)
(0.537945 -0.00233354 0)
(0.614993 -0.0637042 0)
(0.685042 -0.111687 0)
(0.769026 -0.124565 0)
(0.764227 -0.133531 0)
(0.903482 -0.19704 0)
(1.02279 -0.328799 0)
(0.925827 -0.393065 0)
(0.855718 -0.318704 0)
(0.829614 -0.195718 0)
(0.877337 -0.0246522 0)
(0.960482 0.119646 0)
(0.899545 0.0852337 0)
(0.80507 0.0264855 0)
(0.61168 -0.0178226 0)
(0.428799 -0.169721 0)
(0.527603 -0.170281 0)
(0.55772 -0.0757098 0)
(0.535169 0.0312865 0)
(0.627377 0.24842 0)
(0.625001 0.391679 0)
(0.543063 0.372612 0)
(0.483546 0.270371 0)
(0.465777 0.150555 0)
(0.473503 0.0468788 0)
(0.486286 -0.0245136 0)
(0.496907 -0.0731001 0)
(0.508388 -0.106411 0)
(0.515204 -0.116353 0)
(0.507752 -0.102775 0)
(0.488553 -0.0771567 0)
(0.46687 -0.0500018 0)
(0.447504 -0.0278307 0)
(0.431 -0.0133745 0)
(0.417396 -0.0057637 0)
(0.406888 -0.00246964 0)
(0.399382 -0.00125944 0)
(0.394411 -0.000835117 0)
(0.391337 -0.000635446 0)
(0.389543 -0.000482687 0)
(0.388547 -0.000346297 0)
(0.388015 -0.000232445 0)
(0.387741 -0.000146626 0)
(0.387604 -8.75301e-05 0)
(0.387537 -4.97883e-05 0)
(0.387505 -2.71365e-05 0)
(0.38749 -1.42298e-05 0)
(0.387484 -7.21878e-06 0)
(0.387481 -3.55861e-06 0)
(0.387479 -1.70518e-06 0)
(0.387479 -8.08814e-07 0)
(0.387479 -3.69739e-07 0)
(0.387478 -1.74044e-07 0)
(0.387479 -7.87165e-08 0)
(0.387478 -4.75268e-08 0)
(0.387479 -1.25365e-08 0)
(0.387477 -2.21574e-08 0)
(0.38748 6.50975e-10 0)
(0.387476 -2.11228e-08 0)
(0.387482 1.0162e-08 0)
(0.387474 -2.20916e-08 0)
(0.387484 2.25148e-08 0)
(0.387472 -1.63562e-08 0)
(0.387485 2.06208e-08 0)
(0.387471 -9.38589e-09 0)
(0.387486 3.63144e-09 0)
(0.38747 7.03802e-09 0)
(0.387485 -1.37796e-08 0)
(0.387472 2.59171e-08 0)
(0.387483 -3.2982e-08 0)
(0.387476 4.02231e-08 0)
(0.387479 -4.25238e-08 0)
(0.387479 4.26936e-08 0)
(0.387476 -2.93377e-08 0)
(0.387481 1.3638e-08 0)
(0.387476 6.57382e-10 0)
(0.387479 -1.27065e-08 0)
(0.387478 2.96224e-08 0)
(0.387478 -3.07501e-08 0)
(0.387479 2.0864e-08 0)
(0.387477 -5.75267e-09 0)
(0.387479 -8.27467e-09 0)
(0.387478 1.47867e-08 0)
(0.387478 -1.12586e-08 0)
(0.387479 1.23794e-09 0)
(0.387478 5.38107e-09 0)
(0.387478 -8.30868e-09 0)
(0.387479 -3.0165e-10 0)
(0.387478 5.578e-09 0)
(0.387478 -6.54554e-10 0)
(0.387478 -1.29981e-09 0)
(0.387478 1.09817e-09 0)
(0.481049 -0.0181613 0)
(0.530784 -0.0327139 0)
(0.453691 0.030937 0)
(0.434418 0.00510955 0)
(0.61268 -0.0725535 0)
(0.598875 -0.060757 0)
(0.609496 -0.0696885 0)
(0.609593 -0.017243 0)
(0.634301 -0.00397262 0)
(0.711195 -0.0685629 0)
(0.790321 -0.134241 0)
(0.836136 -0.137069 0)
(0.812267 -0.140016 0)
(0.947342 -0.211051 0)
(1.01025 -0.327689 0)
(0.871629 -0.37978 0)
(0.785695 -0.308626 0)
(0.749605 -0.191931 0)
(0.800441 -0.0304409 0)
(0.8899 0.114838 0)
(0.837053 0.0976981 0)
(0.744689 0.0546261 0)
(0.540704 0.00499448 0)
(0.380829 -0.164404 0)
(0.482489 -0.177436 0)
(0.517259 -0.078884 0)
(0.495665 0.0307759 0)
(0.591025 0.244224 0)
(0.603962 0.391731 0)
(0.540418 0.379429 0)
(0.496432 0.277543 0)
(0.490306 0.152957 0)
(0.504507 0.0453923 0)
(0.516764 -0.0262619 0)
(0.52254 -0.0744183 0)
(0.530281 -0.107743 0)
(0.534482 -0.116354 0)
(0.523393 -0.100504 0)
(0.499269 -0.0735589 0)
(0.472834 -0.0463997 0)
(0.450218 -0.0247854 0)
(0.432093 -0.0109252 0)
(0.417897 -0.00385866 0)
(0.407236 -0.00106683 0)
(0.399687 -0.000293261 0)
(0.394673 -0.000214621 0)
(0.39154 -0.000260558 0)
(0.389686 -0.000267759 0)
(0.38864 -0.000228443 0)
(0.388072 -0.000170209 0)
(0.387774 -0.000114793 0)
(0.387622 -7.17024e-05 0)
(0.387546 -4.21059e-05 0)
(0.387509 -2.34908e-05 0)
(0.387492 -1.25411e-05 0)
(0.387484 -6.4469e-06 0)
(0.38748 -3.21583e-06 0)
(0.387479 -1.55907e-06 0)
(0.387478 -7.42523e-07 0)
(0.387478 -3.40832e-07 0)
(0.387477 -1.6544e-07 0)
(0.387478 -7.11431e-08 0)
(0.387476 -4.88251e-08 0)
(0.387478 -6.50952e-09 0)
(0.387476 -2.84252e-08 0)
(0.387479 8.43399e-09 0)
(0.387475 -3.49801e-08 0)
(0.387481 2.0183e-08 0)
(0.387473 -3.66205e-08 0)
(0.387482 3.42382e-08 0)
(0.387471 -2.62093e-08 0)
(0.387484 3.24068e-08 0)
(0.38747 -1.67496e-08 0)
(0.387485 7.63352e-09 0)
(0.387469 1.00065e-08 0)
(0.387484 -2.47827e-08 0)
(0.387471 4.30228e-08 0)
(0.387482 -6.03364e-08 0)
(0.387475 6.74955e-08 0)
(0.387478 -6.93379e-08 0)
(0.387478 7.0776e-08 0)
(0.387475 -4.91424e-08 0)
(0.38748 2.48472e-08 0)
(0.387475 9.65321e-10 0)
(0.387478 -2.26028e-08 0)
(0.387477 5.09055e-08 0)
(0.387477 -4.91434e-08 0)
(0.387478 3.22748e-08 0)
(0.387476 -1.22219e-08 0)
(0.387478 -1.35863e-08 0)
(0.387477 2.59257e-08 0)
(0.387477 -1.80194e-08 0)
(0.387478 2.11187e-09 0)
(0.387477 7.80479e-09 0)
(0.387477 -1.38127e-08 0)
(0.387477 1.66879e-09 0)
(0.387477 8.35604e-09 0)
(0.387477 -2.66514e-09 0)
(0.387477 -1.42097e-09 0)
(0.387477 7.40673e-10 0)
(0.613081 -0.01831 0)
(0.660371 -0.0370826 0)
(0.585702 0.0327175 0)
(0.595664 0.0012972 0)
(0.732156 -0.0807713 0)
(0.714019 -0.0685582 0)
(0.710241 -0.0729881 0)
(0.727254 -0.0252976 0)
(0.735298 -0.00398766 0)
(0.808441 -0.0713098 0)
(0.873351 -0.148488 0)
(0.878851 -0.145296 0)
(0.849821 -0.145067 0)
(0.973038 -0.218769 0)
(0.973654 -0.319276 0)
(0.801394 -0.361103 0)
(0.706798 -0.296282 0)
(0.667332 -0.187794 0)
(0.717931 -0.0367085 0)
(0.806558 0.108579 0)
(0.763101 0.109181 0)
(0.674035 0.0829667 0)
(0.46594 0.0264854 0)
(0.331326 -0.161896 0)
(0.432258 -0.185135 0)
(0.47156 -0.0824731 0)
(0.452335 0.0298538 0)
(0.550086 0.238684 0)
(0.577476 0.389067 0)
(0.53292 0.383169 0)
(0.505403 0.282236 0)
(0.51139 0.153923 0)
(0.532483 0.0434981 0)
(0.544072 -0.0275988 0)
(0.544936 -0.0750968 0)
(0.549511 -0.108587 0)
(0.551421 -0.115836 0)
(0.536736 -0.0975458 0)
(0.507812 -0.0692203 0)
(0.476853 -0.0422006 0)
(0.451235 -0.0213858 0)
(0.431761 -0.00832812 0)
(0.417281 -0.00191914 0)
(0.406777 0.00032965 0)
(0.399457 0.000661133 0)
(0.394604 0.000401042 0)
(0.391551 0.000115252 0)
(0.389724 -4.92551e-05 0)
(0.388677 -0.000106842 0)
(0.388099 -0.000104927 0)
(0.387791 -8.08281e-05 0)
(0.387631 -5.45109e-05 0)
(0.38755 -3.36179e-05 0)
(0.38751 -1.93925e-05 0)
(0.387491 -1.06052e-05 0)
(0.387482 -5.551e-06 0)
(0.387477 -2.80997e-06 0)
(0.387476 -1.37724e-06 0)
(0.387475 -6.64785e-07 0)
(0.387475 -3.06344e-07 0)
(0.387474 -1.5368e-07 0)
(0.387475 -6.20965e-08 0)
(0.387473 -5.04508e-08 0)
(0.387475 -7.88035e-10 0)
(0.387473 -3.43389e-08 0)
(0.387476 1.90358e-08 0)
(0.387471 -4.3982e-08 0)
(0.387478 3.2463e-08 0)
(0.38747 -4.99809e-08 0)
(0.387479 4.71532e-08 0)
(0.387468 -3.97022e-08 0)
(0.387481 4.31013e-08 0)
(0.387466 -2.45114e-08 0)
(0.387482 1.02377e-08 0)
(0.387466 1.3795e-08 0)
(0.387481 -3.44033e-08 0)
(0.387468 6.06244e-08 0)
(0.387478 -8.46643e-08 0)
(0.387472 9.48601e-08 0)
(0.387475 -9.75551e-08 0)
(0.387475 9.76096e-08 0)
(0.387472 -6.93071e-08 0)
(0.387476 3.52936e-08 0)
(0.387472 7.06536e-10 0)
(0.387475 -3.40666e-08 0)
(0.387474 6.99592e-08 0)
(0.387473 -6.77077e-08 0)
(0.387475 4.60134e-08 0)
(0.387473 -1.68382e-08 0)
(0.387474 -1.99244e-08 0)
(0.387474 3.55856e-08 0)
(0.387474 -2.49436e-08 0)
(0.387474 3.48886e-09 0)
(0.387474 1.11049e-08 0)
(0.387474 -1.95397e-08 0)
(0.387474 1.15046e-09 0)
(0.387474 1.05883e-08 0)
(0.387474 -3.94156e-09 0)
(0.387474 -2.44896e-10 0)
(0.387474 2.48828e-09 0)
(0.724348 -0.0179429 0)
(0.762245 -0.0403432 0)
(0.706782 0.0280596 0)
(0.723561 -0.00155383 0)
(0.825292 -0.0837732 0)
(0.808104 -0.0750372 0)
(0.795474 -0.0746993 0)
(0.813316 -0.0333348 0)
(0.819576 -0.0043793 0)
(0.886339 -0.0730053 0)
(0.927517 -0.156578 0)
(0.903559 -0.151033 0)
(0.877824 -0.149509 0)
(0.976739 -0.220463 0)
(0.915003 -0.30338 0)
(0.719989 -0.337932 0)
(0.624631 -0.282583 0)
(0.586991 -0.183297 0)
(0.633686 -0.0424212 0)
(0.71371 0.101993 0)
(0.680298 0.119863 0)
(0.594566 0.110788 0)
(0.390435 0.0460397 0)
(0.280748 -0.161749 0)
(0.377391 -0.193257 0)
(0.421104 -0.0865476 0)
(0.405189 0.0285175 0)
(0.504568 0.231922 0)
(0.546195 0.383486 0)
(0.521167 0.383562 0)
(0.510594 0.284267 0)
(0.528792 0.153333 0)
(0.55704 0.0412204 0)
(0.5676 -0.0285079 0)
(0.563736 -0.0752148 0)
(0.566026 -0.10903 0)
(0.565893 -0.114819 0)
(0.547501 -0.0939064 0)
(0.513873 -0.0641762 0)
(0.478705 -0.0374521 0)
(0.450447 -0.0176793 0)
(0.429969 -0.00563015 0)
(0.41554 5.10968e-06 0)
(0.405507 0.00167471 0)
(0.398683 0.00156743 0)
(0.394194 0.000985727 0)
(0.391361 0.000474906 0)
(0.389648 0.000162284 0)
(0.388651 1.2729e-05 0)
(0.388092 -3.96711e-05 0)
(0.387788 -4.62919e-05 0)
(0.387628 -3.67269e-05 0)
(0.387545 -2.46863e-05 0)
(0.387504 -1.50087e-05 0)
(0.387483 -8.50196e-06 0)
(0.387473 -4.56312e-06 0)
(0.387469 -2.35585e-06 0)
(0.387467 -1.17164e-06 0)
(0.387466 -5.75692e-07 0)
(0.387466 -2.66863e-07 0)
(0.387465 -1.39976e-07 0)
(0.387466 -5.22072e-08 0)
(0.387464 -5.14461e-08 0)
(0.387466 5.27887e-09 0)
(0.387463 -4.02886e-08 0)
(0.387467 2.89157e-08 0)
(0.387462 -5.32009e-08 0)
(0.387468 4.43037e-08 0)
(0.387461 -6.31292e-08 0)
(0.38747 6.01983e-08 0)
(0.387459 -5.35769e-08 0)
(0.387472 5.39794e-08 0)
(0.387457 -3.2497e-08 0)
(0.387473 1.26313e-08 0)
(0.387457 1.75234e-08 0)
(0.387472 -4.44962e-08 0)
(0.387459 7.82644e-08 0)
(0.387469 -1.08816e-07 0)
(0.387462 1.22418e-07 0)
(0.387466 -1.26293e-07 0)
(0.387466 1.24117e-07 0)
(0.387463 -8.95413e-08 0)
(0.387467 4.63785e-08 0)
(0.387463 9.07649e-10 0)
(0.387466 -4.49443e-08 0)
(0.387465 8.84083e-08 0)
(0.387464 -8.58225e-08 0)
(0.387466 5.99395e-08 0)
(0.387464 -2.14566e-08 0)
(0.387465 -2.57432e-08 0)
(0.387465 4.5195e-08 0)
(0.387464 -3.16975e-08 0)
(0.387465 4.77694e-09 0)
(0.387465 1.46426e-08 0)
(0.387465 -2.47255e-08 0)
(0.387465 1.42436e-09 0)
(0.387465 1.29779e-08 0)
(0.387465 -5.26689e-09 0)
(0.387465 -7.79316e-11 0)
(0.387465 3.67123e-09 0)
(0.814349 -0.0159989 0)
(0.844929 -0.0424941 0)
(0.804758 0.0199388 0)
(0.823168 -0.00348143 0)
(0.900904 -0.0805199 0)
(0.879448 -0.0801989 0)
(0.869008 -0.0777761 0)
(0.874923 -0.0391141 0)
(0.883985 -0.00585922 0)
(0.940503 -0.0741553 0)
(0.959767 -0.158355 0)
(0.91571 -0.153706 0)
(0.893693 -0.152521 0)
(0.957276 -0.214252 0)
(0.837632 -0.280656 0)
(0.631922 -0.31308 0)
(0.543086 -0.269362 0)
(0.509168 -0.179523 0)
(0.548536 -0.0475435 0)
(0.614485 0.0957382 0)
(0.591507 0.129737 0)
(0.508479 0.137492 0)
(0.318123 0.0628215 0)
(0.230498 -0.16318 0)
(0.319121 -0.201554 0)
(0.36629 -0.0910629 0)
(0.354905 0.0264825 0)
(0.455157 0.223888 0)
(0.509627 0.375337 0)
(0.504418 0.380776 0)
(0.511563 0.283628 0)
(0.542169 0.151159 0)
(0.577831 0.0386036 0)
(0.586765 -0.0289597 0)
(0.578751 -0.0748835 0)
(0.579883 -0.109167 0)
(0.577723 -0.113293 0)
(0.555314 -0.0895772 0)
(0.517066 -0.0584681 0)
(0.478123 -0.0322197 0)
(0.447727 -0.013729 0)
(0.426684 -0.00288631 0)
(0.412678 0.00186298 0)
(0.403436 0.00292425 0)
(0.397367 0.00239277 0)
(0.393437 0.00151449 0)
(0.390959 0.000801491 0)
(0.389445 0.000356477 0)
(0.38855 0.000124317 0)
(0.388038 2.23486e-05 0)
(0.387754 -1.28416e-05 0)
(0.387601 -1.91779e-05 0)
(0.38752 -1.5712e-05 0)
(0.387479 -1.05288e-05 0)
(0.387459 -6.31877e-06 0)
(0.387449 -3.52295e-06 0)
(0.387444 -1.87151e-06 0)
(0.387442 -9.50049e-07 0)
(0.38744 -4.78832e-07 0)
(0.38744 -2.23478e-07 0)
(0.38744 -1.2453e-07 0)
(0.38744 -4.17213e-08 0)
(0.387439 -5.22127e-08 0)
(0.387441 1.16243e-08 0)
(0.387438 -4.63938e-08 0)
(0.387442 3.85005e-08 0)
(0.387437 -6.28521e-08 0)
(0.387443 5.63415e-08 0)
(0.387436 -7.61558e-08 0)
(0.387445 7.36379e-08 0)
(0.387434 -6.75804e-08 0)
(0.387447 6.50387e-08 0)
(0.387432 -4.06003e-08 0)
(0.387448 1.53881e-08 0)
(0.387432 2.10162e-08 0)
(0.387447 -5.48267e-08 0)
(0.387434 9.60952e-08 0)
(0.387444 -1.33121e-07 0)
(0.387437 1.50374e-07 0)
(0.387441 -1.55282e-07 0)
(0.387441 1.50504e-07 0)
(0.387438 -1.09698e-07 0)
(0.387442 5.74101e-08 0)
(0.387438 1.30155e-09 0)
(0.387441 -5.56932e-08 0)
(0.38744 1.06024e-07 0)
(0.387439 -1.03742e-07 0)
(0.387441 7.34979e-08 0)
(0.387439 -2.59046e-08 0)
(0.38744 -3.10804e-08 0)
(0.38744 5.45181e-08 0)
(0.387439 -3.85572e-08 0)
(0.38744 5.75815e-09 0)
(0.38744 1.83739e-08 0)
(0.38744 -2.9567e-08 0)
(0.38744 2.11067e-09 0)
(0.38744 1.5555e-08 0)
(0.38744 -7.07501e-09 0)
(0.38744 -8.98056e-11 0)
(0.38744 4.77708e-09 0)
(0.884035 -0.0146444 0)
(0.910869 -0.0427915 0)
(0.877822 0.0117107 0)
(0.898631 -0.00664586 0)
(0.954996 -0.0741886 0)
(0.931842 -0.0841503 0)
(0.9244 -0.0821099 0)
(0.914952 -0.0410734 0)
(0.928412 -0.00812224 0)
(0.973441 -0.0736437 0)
(0.972639 -0.154935 0)
(0.91368 -0.154237 0)
(0.89391 -0.152226 0)
(0.913119 -0.200581 0)
(0.745062 -0.253338 0)
(0.541923 -0.288315 0)
(0.463776 -0.257137 0)
(0.432743 -0.175621 0)
(0.461186 -0.0507939 0)
(0.511152 0.0904076 0)
(0.498985 0.138697 0)
(0.418294 0.162048 0)
(0.25164 0.0765566 0)
(0.182249 -0.165327 0)
(0.25837 -0.209784 0)
(0.307898 -0.0959611 0)
(0.301387 0.0237959 0)
(0.401304 0.214793 0)
(0.468806 0.364451 0)
(0.483737 0.374622 0)
(0.508693 0.280208 0)
(0.551556 0.147335 0)
(0.594654 0.0356329 0)
(0.601065 -0.0289885 0)
(0.590032 -0.0742925 0)
(0.591205 -0.109096 0)
(0.586606 -0.111212 0)
(0.559642 -0.0845338 0)
(0.516895 -0.0521501 0)
(0.474777 -0.0265924 0)
(0.442922 -0.0096166 0)
(0.421869 -0.000170745 0)
(0.408708 0.00360059 0)
(0.400579 0.00403528 0)
(0.395512 0.00310267 0)
(0.392324 0.00196293 0)
(0.390325 0.00107894 0)
(0.389092 0.000523599 0)
(0.388348 0.000222078 0)
(0.387912 7.78722e-05 0)
(0.387663 1.77919e-05 0)
(0.387525 -2.74345e-06 0)
(0.387451 -7.13014e-06 0)
(0.387412 -6.16288e-06 0)
(0.387392 -4.15488e-06 0)
(0.387383 -2.47664e-06 0)
(0.387378 -1.37821e-06 0)
(0.387376 -7.22137e-07 0)
(0.387375 -3.78371e-07 0)
(0.387375 -1.7798e-07 0)
(0.387374 -1.0822e-07 0)
(0.387375 -3.09821e-08 0)
(0.387373 -5.28093e-08 0)
(0.387375 1.84199e-08 0)
(0.387372 -5.25218e-08 0)
(0.387376 4.80164e-08 0)
(0.387371 -7.27472e-08 0)
(0.387377 6.87413e-08 0)
(0.38737 -8.91921e-08 0)
(0.387379 8.74961e-08 0)
(0.387368 -8.18095e-08 0)
(0.387381 7.6321e-08 0)
(0.387366 -4.88795e-08 0)
(0.387382 1.84424e-08 0)
(0.387366 2.43809e-08 0)
(0.387381 -6.54002e-08 0)
(0.387368 1.14103e-07 0)
(0.387378 -1.57583e-07 0)
(0.387371 1.78867e-07 0)
(0.387375 -1.84518e-07 0)
(0.387375 1.767e-07 0)
(0.387372 -1.29856e-07 0)
(0.387376 6.8221e-08 0)
(0.387372 1.87174e-09 0)
(0.387375 -6.62224e-08 0)
(0.387374 1.22642e-07 0)
(0.387373 -1.21351e-07 0)
(0.387375 8.65318e-08 0)
(0.387373 -2.9982e-08 0)
(0.387374 -3.58507e-08 0)
(0.387374 6.33657e-08 0)
(0.387373 -4.54657e-08 0)
(0.387374 6.49431e-09 0)
(0.387374 2.23678e-08 0)
(0.387374 -3.39752e-08 0)
(0.387374 3.12817e-09 0)
(0.387374 1.8189e-08 0)
(0.387374 -9.16518e-09 0)
(0.387374 -4.08242e-10 0)
(0.387374 5.76099e-09 0)
(0.935501 -0.0149425 0)
(0.958389 -0.0408612 0)
(0.928167 0.00446109 0)
(0.951936 -0.0112461 0)
(0.987673 -0.0655278 0)
(0.968631 -0.0862973 0)
(0.959138 -0.0861874 0)
(0.935177 -0.0403693 0)
(0.953916 -0.0104258 0)
(0.985622 -0.0717101 0)
(0.965993 -0.148401 0)
(0.898914 -0.152074 0)
(0.875615 -0.147705 0)
(0.844977 -0.180295 0)
(0.643817 -0.222751 0)
(0.453933 -0.265055 0)
(0.38552 -0.246381 0)
(0.355066 -0.171417 0)
(0.370455 -0.0518222 0)
(0.405832 0.0861144 0)
(0.404869 0.146682 0)
(0.326948 0.183819 0)
(0.192624 0.08707 0)
(0.13794 -0.167199 0)
(0.195016 -0.217274 0)
(0.245839 -0.101123 0)
(0.244975 0.0201776 0)
(0.344638 0.204576 0)
(0.422847 0.351186 0)
(0.458128 0.365272 0)
(0.501466 0.274006 0)
(0.556873 0.141872 0)
(0.607217 0.0324131 0)
(0.610062 -0.0286065 0)
(0.597922 -0.0736496 0)
(0.600083 -0.108852 0)
(0.591994 -0.108464 0)
(0.559742 -0.0787356 0)
(0.512739 -0.0452948 0)
(0.468276 -0.0206868 0)
(0.435852 -0.0054515 0)
(0.415477 0.00243542 0)
(0.403637 0.00515923 0)
(0.39695 0.00496474 0)
(0.393114 0.00366584 0)
(0.390828 0.00230922 0)
(0.389419 0.00129264 0)
(0.388537 0.000654274 0)
(0.387989 0.000300479 0)
(0.387655 0.000123745 0)
(0.387456 4.38811e-05 0)
(0.387342 1.16651e-05 0)
(0.387279 5.92934e-07 0)
(0.387245 -2.14375e-06 0)
(0.387227 -2.12402e-06 0)
(0.387218 -1.47879e-06 0)
(0.387213 -9.01802e-07 0)
(0.387211 -4.99936e-07 0)
(0.38721 -2.79783e-07 0)
(0.38721 -1.32966e-07 0)
(0.387209 -9.21067e-08 0)
(0.38721 -2.03417e-08 0)
(0.387209 -5.33475e-08 0)
(0.387211 2.55798e-08 0)
(0.387208 -5.86638e-08 0)
(0.387212 5.74996e-08 0)
(0.387207 -8.29021e-08 0)
(0.387213 8.14311e-08 0)
(0.387205 -1.02391e-07 0)
(0.387215 1.0174e-07 0)
(0.387203 -9.62587e-08 0)
(0.387217 8.78769e-08 0)
(0.387202 -5.73784e-08 0)
(0.387218 2.17617e-08 0)
(0.387202 2.77141e-08 0)
(0.387217 -7.63464e-08 0)
(0.387204 1.32406e-07 0)
(0.387214 -1.82209e-07 0)
(0.387207 2.07872e-07 0)
(0.38721 -2.13955e-07 0)
(0.38721 2.0257e-07 0)
(0.387208 -1.49782e-07 0)
(0.387212 7.86878e-08 0)
(0.387208 2.66929e-09 0)
(0.387211 -7.64831e-08 0)
(0.387209 1.38137e-07 0)
(0.387209 -1.38291e-07 0)
(0.387211 9.88804e-08 0)
(0.387209 -3.36782e-08 0)
(0.38721 -4.00676e-08 0)
(0.38721 7.16516e-08 0)
(0.387209 -5.2202e-08 0)
(0.38721 6.99442e-09 0)
(0.387209 2.66301e-08 0)
(0.387209 -3.80635e-08 0)
(0.38721 4.30662e-09 0)
(0.387209 2.09674e-08 0)
(0.387209 -1.14387e-08 0)