/*--------------------------------*- C++ -*----------------------------------*\
| =========                 |                                                 |
| \\      /  F ield         | OpenFOAM: The Open Source CFD Toolbox           |
|  \\    /   O peration     | Version:  2.4.0                                 |
|   \\  /    A nd           | Web:      www.OpenFOAM.org                      |
|    \\/     M anipulation  |                                                 |
\*---------------------------------------------------------------------------*/
FoamFile
{
    version     2.0;
    format      ascii;
    class       volVectorField;
    location    "1.1";
    object      U;
}
// * * * * * * * * * * * * * * * * * * * * * * * * * * * * * * * * * * * * * //

dimensions      [0 1 -1 0 0 0 0];

internalField   nonuniform List<vector> 
4400
(
(10.5961 0.148176 0)
(9.45516 -0.096009 0)
(8.90121 -0.129705 0)
(10.4928 0.301173 0)
(7.28079 -0.125573 0)
(11.2411 0.0611837 0)
(7.48585 0.232798 0)
(10.5658 -0.167284 0)
(8.74451 0.108331 0)
(9.7684 0.133216 0)
(8.14997 -0.087233 0)
(10.5315 0.104714 0)
(6.64593 0.0458346 0)
(10.6605 -0.0237576 0)
(6.77281 0.101896 0)
(10.0471 -0.0769248 0)
(6.73616 0.115063 0)
(9.57124 0.0213566 0)
(7.67438 0.045928 0)
(6.45481 -0.0315347 0)
(11.1253 -0.195822 0)
(11.0827 0.453564 0)
(8.20804 -0.055888 0)
(10.7354 -0.0537435 0)
(8.01792 0.0621057 0)
(10.1221 -0.167545 0)
(8.64334 -0.0398326 0)
(10.7597 -0.0842234 0)
(9.08303 0.0247967 0)
(10.7923 0.0420009 0)
(9.89247 -0.102507 0)
(10.7241 0.14867 0)
(9.35003 0.0387529 0)
(11.1772 -0.110246 0)
(8.47072 0.0825483 0)
(11.3031 0.0678951 0)
(8.48828 -0.0389636 0)
(10.3875 -0.13972 0)
(9.843 0.410806 0)
(8.97024 -0.332399 0)
(10.2242 -0.313651 0)
(9.93528 0.502636 0)
(10.6402 -0.0171686 0)
(11.0345 0.241321 0)
(8.74001 0.0840881 0)
(10.6731 -0.175799 0)
(9.17257 0.146143 0)
(9.82086 -0.274772 0)
(9.62885 0.0238437 0)
(10.5156 0.0446483 0)
(10.4369 -0.0932732 0)
(10.2566 0.157425 0)
(10.4738 0.0665182 0)
(11.5658 0.0471686 0)
(8.72684 0.14725 0)
(11.8877 -0.094933 0)
(9.88689 0.271586 0)
(9.81695 -0.174758 0)
(11.1137 0.222623 0)
(9.95439 -0.0298724 0)
(10.2516 -0.284263 0)
(9.35428 0.510969 0)
(10.4484 -0.223193 0)
(10.4871 0.227692 0)
(10.0429 0.228839 0)
(10.7474 -0.28595 0)
(9.28702 0.165582 0)
(10.7924 -0.16785 0)
(9.09273 -0.118397 0)
(10.0633 -0.0687866 0)
(10.8166 -0.0809257 0)
(9.53184 0.112628 0)
(10.2983 -0.115224 0)
(11.8462 0.118581 0)
(8.45112 0.102027 0)
(11.6679 -0.186467 0)
(10.5786 0.384621 0)
(9.25902 -0.344628 0)
(11.1573 0.240809 0)
(10.2825 0.192529 0)
(9.94957 -0.24039 0)
(9.40907 0.473726 0)
(10.6769 -0.246863 0)
(9.97444 0.243313 0)
(10.1439 0.121323 0)
(10.6487 -0.132403 0)
(9.48699 0.197994 0)
(10.541 -0.214246 0)
(9.55384 0.09439 0)
(9.98867 -0.235094 0)
(10.4462 0.00267745 0)
(9.43934 0.187226 0)
(10.1635 -0.305244 0)
(11.3644 0.306423 0)
(8.41852 0.214679 0)
(11.1978 -0.520564 0)
(10.7526 0.640451 0)
(9.05134 -0.239746 0)
(10.4132 -0.0614732 0)
(10.9374 0.399973 0)
(9.94983 -0.199037 0)
(9.52087 0.396163 0)
(10.4281 -0.29581 0)
(10.0794 0.251739 0)
(10.013 0.17468 0)
(10.5604 -0.203893 0)
(9.92477 0.204549 0)
(10.1371 -0.187511 0)
(10.37 -0.0339283 0)
(9.81536 -0.218113 0)
(10.3619 0.0143433 0)
(10.138 0.131426 0)
(9.88195 -0.394882 0)
(11.0088 0.384762 0)
(9.56859 0.201897 0)
(10.3461 -0.675991 0)
(10.9315 0.800354 0)
(9.47898 -0.188248 0)
(10.1278 -0.269967 0)
(11.23 0.585807 0)
(9.87027 -0.156351 0)
(9.70159 0.395461 0)
(10.5987 -0.320911 0)
(9.78498 0.258336 0)
(10.159 0.120187 0)
(10.3524 -0.199082 0)
(9.74773 0.313508 0)
(10.2749 -0.275748 0)
(10.1 0.0749154 0)
(9.84788 -0.172045 0)
(10.2042 -0.0690445 0)
(10.0979 0.220264 0)
(9.74077 -0.399808 0)
(10.62 0.307161 0)
(10.0201 0.362942 0)
(9.79685 -0.790143 0)
(10.8332 0.756864 0)
(10.0178 0.0124737 0)
(9.92277 -0.502383 0)
(11.0006 0.618432 0)
(10.0795 -0.132296 0)
(9.78164 0.266156 0)
(10.3873 -0.257028 0)
(9.75425 0.249427 0)
(10.2458 0.119374 0)
(10.0767 -0.162115 0)
(9.95706 0.245996 0)
(10.2618 -0.231501 0)
(9.9594 0.0298934 0)
(10.0824 -0.183738 0)
(9.83453 -0.046429 0)
(10.2899 0.185842 0)
(9.79071 -0.397569 0)
(9.97886 0.269341 0)
(10.5016 0.383219 0)
(9.87032 -0.780552 0)
(10.0981 0.741464 0)
(10.6984 0.0834867 0)
(9.93761 -0.551063 0)
(10.463 0.697066 0)
(10.0721 -0.148478 0)
(9.93113 0.344558 0)
(10.1885 -0.280587 0)
(9.84849 0.200561 0)
(10.1723 0.138496 0)
(10.0892 -0.19773 0)
(10.0086 0.272993 0)
(10.2004 -0.229149 0)
(10.1884 0.025592 0)
(9.91963 -0.112119 0)
(10.0633 -0.112631 0)
(10.1585 0.172991 0)
(10.0186 -0.276118 0)
(9.80392 0.126132 0)
(10.5189 0.389176 0)
(10.0945 -0.657619 0)
(9.80697 0.563181 0)
(10.7658 0.118756 0)
(10.0409 -0.525862 0)
(10.0767 0.588275 0)
(10.0502 -0.145143 0)
(10.0389 0.245931 0)
(10.0994 -0.189407 0)
(9.99906 0.179826 0)
(10.0969 0.125892 0)
(10.1954 -0.167545 0)
(9.97888 0.240839 0)
(10.3539 -0.247306 0)
(10.1072 0.0461005 0)
(10.0467 -0.106784 0)
(10.253 -0.107016 0)
(9.92682 0.167532 0)
(10.4014 -0.257623 0)
(9.66039 0.111231 0)
(10.5645 0.316983 0)
(10.2405 -0.581978 0)
(9.68761 0.512436 0)
(10.7082 0.0911553 0)
(10.2774 -0.472954 0)
(9.78226 0.569372 0)
(10.1571 -0.178412 0)
(9.82515 0.328006 0)
(10.1732 -0.206193 0)
(10.0367 0.110626 0)
(10.0302 0.166088 0)
(10.277 -0.204052 0)
(9.98059 0.219584 0)
(10.3251 -0.194124 0)
(10.0459 0.0169595 0)
(10.1597 -0.107218 0)
(10.0573 -0.0871725 0)
(10.093 0.100641 0)
(10.1799 -0.182246 0)
(9.8336 0.0701279 0)
(10.4534 0.246801 0)
(10.0362 -0.435126 0)
(9.94349 0.386743 0)
(10.5607 0.0757165 0)
(10.1764 -0.387094 0)
(9.75907 0.485141 0)
(10.1313 -0.148614 0)
(9.7933 0.242261 0)
(10.2435 -0.165707 0)
(9.91522 0.138529 0)
(10.1037 0.124209 0)
(10.1996 -0.177317 0)
(9.93943 0.22067 0)
(10.3329 -0.209865 0)
(9.9913 0.0217707 0)
(10.099 -0.0625186 0)
(10.0727 -0.0950936 0)
(10.0352 0.104514 0)
(10.0658 -0.15092 0)
(9.9998 0.0368622 0)
(10.1431 0.235844 0)
(10.2846 -0.399504 0)
(9.78436 0.325491 0)
(10.5236 0.0798939 0)
(10.2979 -0.335874 0)
(9.73087 0.448461 0)
(10.1441 -0.166949 0)
(9.82847 0.270881 0)
(10.1202 -0.14796 0)
(10.0519 0.0554045 0)
(10.0236 0.151451 0)
(10.1888 -0.175449 0)
(10.0942 0.156062 0)
(10.1685 -0.146628 0)
(10.1263 0.00943338 0)
(10.1267 -0.0940386 0)
(10.0319 -0.0715228 0)
(10.0806 0.069589 0)
(10.1875 -0.14205 0)
(9.90695 0.0469342 0)
(10.2317 0.158187 0)
(10.276 -0.300661 0)
(9.79395 0.284728 0)
(10.5409 0.0262035 0)
(10.1473 -0.252389 0)
(9.95354 0.388032 0)
(10.1515 -0.147474 0)
(9.80238 0.224957 0)
(10.153 -0.136693 0)
(10.0675 0.0795003 0)
(9.96012 0.138352 0)
(10.2902 -0.197377 0)
(9.98719 0.186349 0)
(10.2159 -0.150402 0)
(10.203 -0.0370827 0)
(9.99378 -0.0125446 0)
(10.1726 -0.0771098 0)
(10.0741 0.0318253 0)
(10.0856 -0.072582 0)
(10.0136 0.0246792 0)
(10.2378 0.110581 0)
(10.1668 -0.230417 0)
(9.93706 0.216204 0)
(10.3801 0.0235861 0)
(10.3472 -0.186617 0)
(9.92145 0.338287 0)
(10.1688 -0.150761 0)
(9.78935 0.219049 0)
(10.1269 -0.106266 0)
(10.0747 0.022892 0)
(9.97958 0.127595 0)
(10.2545 -0.157385 0)
(10.017 0.122676 0)
(10.2332 -0.122451 0)
(10.1024 1.03296e-05 0)
(10.1116 -0.0605594 0)
(10.0929 -0.0743201 0)
(10.0242 0.0510101 0)
(10.212 -0.0985983 0)
(9.92114 0.018522 0)
(10.1807 0.0876508 0)
(10.2652 -0.185892 0)
(9.92163 0.192404 0)
(10.3326 -0.0280211 0)
(10.2483 -0.155449 0)
(10.142 0.33172 0)
(10.1641 -0.138017 0)
(9.78547 0.194764 0)
(10.1227 -0.105398 0)
(10.1047 0.0318969 0)
(9.94013 0.130408 0)
(10.2739 -0.189912 0)
(10.0412 0.13278 0)
(10.1658 -0.0917128 0)
(10.2053 -0.0750008 0)
(10.0618 0.00935207 0)
(10.0744 -0.0415863 0)
(10.1729 -0.0357367 0)
(10.0338 -0.0140964 0)
(10.0178 0.0266613 0)
(10.287 -0.00630295 0)
(10.0576 -0.0987023 0)
(10.0253 0.152806 0)
(10.4456 -0.0519856 0)
(10.1271 -0.0854232 0)
(10.1383 0.243042 0)
(10.1693 -0.127484 0)
(9.78069 0.160434 0)
(10.1127 -0.068393 0)
(10.1169 -0.00846662 0)
(9.9412 0.100109 0)
(10.2854 -0.136439 0)
(10.0452 0.0754391 0)
(10.1761 -0.0807536 0)
(10.2148 -0.0304892 0)
(10.0457 -0.0189524 0)
(10.1167 -0.0676053 0)
(10.1297 0.0137617 0)
(10.0702 -0.0364682 0)
(10.0718 -0.0228213 0)
(10.1221 0.0372251 0)
(10.2657 -0.0864582 0)
(9.99305 0.0857216 0)
(10.2245 -0.0353137 0)
(10.411 -0.0758959 0)
(10.1604 0.208932 0)
(10.1737 -0.119032 0)
(9.71002 0.152123 0)
(10.1583 -0.078895 0)
(10.1172 0.000550745 0)
(9.92564 0.104507 0)
(10.3311 -0.171748 0)
(10.0333 0.0867817 0)
(10.1551 -0.0547336 0)
(10.2575 -0.0993553 0)
(9.99097 0.039767 0)
(10.131 -0.0343501 0)
(10.15 -0.0719442 0)
(9.97476 0.034108 0)
(10.1577 0.0142488 0)
(10.087 -0.0854391 0)
(10.171 0.00296382 0)
(10.0603 0.102422 0)
(10.2474 -0.146945 0)
(10.2393 0.0069418 0)
(10.2747 0.203076 0)
(10.0955 -0.0926433 0)
(9.58939 0.0960247 0)
(10.3528 -0.0464185 0)
(9.95255 -0.0303236 0)
(10.0781 0.0608175 0)
(10.3511 -0.112706 0)
(9.91013 0.0349639 0)
(10.2516 -0.0432337 0)
(10.15 -0.0537219 0)
(9.853 0.0119551 0)
(10.1926 -0.0594896 0)
(9.98287 -0.0091219 0)
(9.87573 -0.00621422 0)
(10.1756 -0.0337393 0)
(9.91537 -0.0125444 0)
(10.041 -0.0346295 0)
(10.0258 0.0532394 0)
(10.0891 -0.0816838 0)
(10.061 -0.0518304 0)
(10.1332 0.200414 0)
(9.96478 -0.0325717 0)
(9.43896 0.0364345 0)
(10.2672 -0.0431774 0)
(9.4748 -0.00219447 0)
(9.79908 0.0150074 0)
(9.80742 -0.0717974 0)
(9.13975 0.0287076 0)
(9.72521 -0.0278516 0)
(9.13914 -0.0561876 0)
(8.94871 0.0316235 0)
(9.33916 -0.0236026 0)
(8.733 -0.0533483 0)
(8.76484 0.0331489 0)
(9.01977 -0.00230341 0)
(8.62183 -0.0884597 0)
(8.31213 0.0460177 0)
(8.93452 0.0340683 0)
(8.58452 -0.142317 0)
(7.74399 0.0754494 0)
(8.94197 0.0953598 0)
(10.5638 -0.0304376 0)
(6.25336 -0.275522 0)
(5.3473 1.63998 0)
(8.3641 2.8169 0)
(6.67814 1.22774 0)
(10.9015 -2.85011 0)
(10.3745 -2.44177 0)
(10.3719 -2.03242 0)
(9.95828 -3.12712 0)
(8.73218 -3.66849 0)
(7.83364 -3.19851 0)
(6.9333 -2.40801 0)
(6.4916 -1.595 0)
(6.11875 -0.968153 0)
(5.58275 -0.62346 0)
(5.28874 -0.386639 0)
(5.34984 -0.19532 0)
(5.48306 -0.101366 0)
(5.51542 -0.0985112 0)
(5.44583 -0.131805 0)
(5.339 -0.158183 0)
(5.24704 -0.160681 0)
(5.18598 -0.140675 0)
(5.14944 -0.109057 0)
(5.12728 -0.0771237 0)
(5.11313 -0.0511864 0)
(5.10403 -0.0326066 0)
(5.09838 -0.0202478 0)
(5.09505 -0.0123756 0)
(5.09319 -0.00748449 0)
(5.0922 -0.00448993 0)
(5.09169 -0.00267416 0)
(5.09144 -0.00158156 0)
(5.09131 -0.00092895 0)
(5.09125 -0.000541836 0)
(5.09122 -0.000313878 0)
(5.09121 -0.000180492 0)
(5.0912 -0.000103077 0)
(5.0912 -5.84183e-05 0)
(5.0912 -3.28115e-05 0)
(5.0912 -1.82968e-05 0)
(5.0912 -1.0076e-05 0)
(5.0912 -5.55337e-06 0)
(5.0912 -2.91803e-06 0)
(5.0912 -1.65662e-06 0)
(5.0912 -7.52124e-07 0)
(5.0912 -4.53479e-07 0)
(5.0912 -2.24226e-07 0)
(5.0912 -4.73062e-08 0)
(5.0912 -1.32568e-07 0)
(5.0912 4.6663e-08 0)
(5.0912 -5.05346e-08 0)
(5.0912 -1.0011e-08 0)
(5.0912 4.6837e-08 0)
(5.0912 -8.40388e-08 0)
(5.0912 6.61113e-08 0)
(5.0912 -3.49847e-08 0)
(5.0912 -4.02408e-08 0)
(5.0912 9.50658e-08 0)
(5.0912 -7.59562e-08 0)
(5.0912 -3.3683e-09 0)
(5.0912 8.12422e-08 0)
(5.0912 -1.07159e-07 0)
(5.0912 4.33188e-08 0)
(5.0912 4.85299e-08 0)
(5.0912 -8.63826e-08 0)
(5.0912 5.15786e-08 0)
(5.0912 5.11348e-08 0)
(5.0912 -1.17173e-07 0)
(5.0912 9.86589e-08 0)
(5.0912 2.91389e-08 0)
(5.0912 -1.11186e-07 0)
(5.0912 5.74683e-08 0)
(5.0912 8.58011e-08 0)
(5.0912 -1.04952e-07 0)
(5.0912 -2.23234e-08 0)
(5.0912 1.2937e-07 0)
(5.0912 -5.99356e-08 0)
(5.0912 -6.81385e-08 0)
(5.0912 6.0372e-08 0)
(5.0912 4.76486e-08 0)
(5.0912 -4.83231e-08 0)
(5.09119 -5.14039e-08 0)
(5.0912 6.18664e-08 0)
(5.09119 3.37927e-08 0)
(5.0912 -2.71818e-08 0)
(5.09119 -5.80635e-08 0)
(5.09121 1.23847e-08 0)
(5.09119 6.25099e-08 0)
(5.09121 -1.68962e-08 0)
(5.09119 -1.03488e-07 0)
(5.0912 -3.11096e-08 0)
(5.0912 6.76487e-08 0)
(5.09119 3.17426e-08 0)
(5.09121 -6.07536e-08 0)
(5.09119 -5.6883e-08 0)
(5.0912 1.63822e-08 0)
(5.0912 3.18711e-08 0)
(5.09119 2.85072e-08 0)
(5.0912 8.50933e-09 0)
(10.1083 -0.135631 0)
(8.33444 0.810662 0)
(7.88746 1.53525 0)
(7.11696 2.92482 0)
(8.66125 0.900314 0)
(11.0729 -2.98584 0)
(10.6928 -2.39144 0)
(10.5779 -1.80303 0)
(10.258 -2.90467 0)
(8.82667 -3.60083 0)
(7.9605 -3.15692 0)
(7.06098 -2.33903 0)
(6.59901 -1.55385 0)
(6.35022 -0.911026 0)
(5.94324 -0.527465 0)
(5.50868 -0.324871 0)
(5.34956 -0.19198 0)
(5.3998 -0.11562 0)
(5.45602 -0.101534 0)
(5.43492 -0.121104 0)
(5.35887 -0.142036 0)
(5.2752 -0.146338 0)
(5.21015 -0.130711 0)
(5.16649 -0.102914 0)
(5.13812 -0.0734826 0)
(5.11965 -0.0490356 0)
(5.10782 -0.0313355 0)
(5.10055 -0.0195048 0)
(5.09629 -0.0119512 0)
(5.09391 -0.00724886 0)
(5.09261 -0.00436273 0)
(5.09193 -0.00260705 0)
(5.09158 -0.00154689 0)
(5.0914 -0.000911156 0)
(5.0913 -0.000532723 0)
(5.09125 -0.000309214 0)
(5.09123 -0.000178052 0)
(5.09121 -0.000101815 0)
(5.09121 -5.77759e-05 0)
(5.0912 -3.24276e-05 0)
(5.0912 -1.81318e-05 0)
(5.0912 -9.96415e-06 0)
(5.0912 -5.4224e-06 0)
(5.0912 -3.00188e-06 0)
(5.0912 -1.59296e-06 0)
(5.0912 -7.23704e-07 0)
(5.0912 -4.1675e-07 0)
(5.0912 -1.97059e-07 0)
(5.0912 -7.77937e-08 0)
(5.0912 -1.09406e-07 0)
(5.0912 1.73225e-08 0)
(5.0912 -3.05474e-08 0)
(5.0912 -4.45096e-08 0)
(5.0912 3.73748e-08 0)
(5.0912 -5.42106e-09 0)
(5.0912 1.67293e-08 0)
(5.0912 -2.79094e-08 0)
(5.0912 -2.40935e-08 0)
(5.0912 2.88708e-08 0)
(5.0912 -1.02643e-08 0)
(5.0912 -2.9188e-10 0)
(5.0912 3.82633e-09 0)
(5.0912 -4.54689e-08 0)
(5.0912 2.73161e-08 0)
(5.0912 3.12361e-08 0)
(5.0912 -2.21129e-08 0)
(5.0912 4.23811e-11 0)
(5.0912 7.11547e-09 0)
(5.0912 -2.08553e-08 0)
(5.0912 6.59699e-08 0)
(5.0912 2.76009e-08 0)
(5.0912 -3.31708e-08 0)
(5.0912 -2.03403e-10 0)
(5.0912 1.95066e-08 0)
(5.0912 -1.11679e-08 0)
(5.0912 8.22677e-09 0)
(5.0912 3.52521e-08 0)
(5.0912 -2.57085e-08 0)
(5.0912 -2.34057e-08 0)
(5.0912 5.38994e-10 0)
(5.0912 1.77697e-09 0)
(5.0912 7.21618e-09 0)
(5.09119 8.05658e-09 0)
(5.0912 3.11074e-08 0)
(5.09119 -4.99686e-09 0)
(5.0912 -1.50797e-08 0)
(5.09119 -1.17396e-08 0)
(5.09121 9.32303e-09 0)
(5.09119 3.2751e-08 0)
(5.09121 -4.10541e-08 0)
(5.09119 -3.63725e-08 0)
(5.0912 -3.2868e-08 0)
(5.0912 -5.19126e-09 0)
(5.09119 6.10441e-08 0)
(5.09121 -4.91875e-08 0)
(5.09119 -1.17153e-08 0)
(5.0912 3.79292e-08 0)
(5.0912 -3.27606e-08 0)
(5.09119 2.32957e-08 0)
(5.0912 3.38059e-08 0)
(9.45809 0.145372 0)
(10.4439 0.429669 0)
(9.76523 1.70523 0)
(6.26234 3.03589 0)
(10.3926 0.380237 0)
(11.1787 -3.23146 0)
(9.70652 -2.61457 0)
(9.83753 -1.91882 0)
(10.4445 -2.77257 0)
(9.0732 -3.35484 0)
(7.79546 -2.9677 0)
(6.86397 -2.19989 0)
(6.38375 -1.47047 0)
(6.33373 -0.880661 0)
(6.1599 -0.492842 0)
(5.79293 -0.274373 0)
(5.49173 -0.16365 0)
(5.38192 -0.112336 0)
(5.37461 -0.0974407 0)
(5.36681 -0.106557 0)
(5.32731 -0.124158 0)
(5.27115 -0.13084 0)
(5.21825 -0.118971 0)
(5.17671 -0.0943961 0)
(5.14642 -0.0674789 0)
(5.12532 -0.0450151 0)
(5.11137 -0.0288135 0)
(5.10267 -0.0180234 0)
(5.09753 -0.0111294 0)
(5.09463 -0.00681295 0)
(5.09303 -0.00413849 0)
(5.09218 -0.00249365 0)
(5.09172 -0.00148993 0)
(5.09148 -0.000882276 0)
(5.09135 -0.00051784 0)
(5.09128 -0.000301513 0)
(5.09124 -0.000173972 0)
(5.09122 -9.95696e-05 0)
(5.09121 -5.65599e-05 0)
(5.09121 -3.17959e-05 0)
(5.0912 -1.7814e-05 0)
(5.0912 -9.7038e-06 0)
(5.0912 -5.23976e-06 0)
(5.0912 -3.03943e-06 0)
(5.0912 -1.56225e-06 0)
(5.0912 -6.2478e-07 0)
(5.0912 -3.47729e-07 0)
(5.0912 -2.13655e-07 0)
(5.0912 -1.15888e-07 0)
(5.0912 -1.01708e-07 0)
(5.0912 2.56882e-08 0)
(5.0912 -4.8581e-08 0)
(5.0912 -9.12431e-08 0)
(5.0912 7.89875e-08 0)
(5.0912 1.04522e-07 0)
(5.0912 -1.19941e-08 0)
(5.0912 -9.57735e-08 0)
(5.0912 -7.74449e-08 0)
(5.0912 1.70831e-08 0)
(5.0912 5.44801e-08 0)
(5.0912 -1.28598e-08 0)
(5.0912 -7.68301e-08 0)
(5.0912 -4.59664e-08 0)
(5.0912 5.55749e-08 0)
(5.0912 7.2866e-08 0)
(5.0912 -1.73855e-08 0)
(5.0912 -7.32684e-08 0)
(5.0912 -3.85645e-08 0)
(5.0912 6.47934e-08 0)
(5.0912 1.31436e-07 0)
(5.0912 7.90383e-08 0)
(5.0912 -3.72347e-08 0)
(5.0912 -7.57265e-08 0)
(5.0912 -2.35744e-08 0)
(5.0912 5.22121e-08 0)
(5.0912 6.93974e-08 0)
(5.0912 1.17496e-08 0)
(5.0912 -3.74698e-08 0)
(5.0912 -6.6262e-08 0)
(5.0912 -6.09486e-08 0)
(5.0912 -1.64453e-08 0)
(5.0912 6.76855e-08 0)
(5.09119 8.02772e-08 0)
(5.0912 4.09826e-08 0)
(5.09119 -4.37179e-08 0)
(5.0912 -3.97548e-08 0)
(5.09119 -2.21644e-09 0)
(5.09121 3.56585e-08 0)
(5.09119 5.28145e-08 0)
(5.09121 -6.54505e-08 0)
(5.09119 -2.5307e-08 0)
(5.0912 -8.53327e-08 0)
(5.0912 -3.89583e-08 0)
(5.09119 9.44109e-08 0)
(5.09121 -4.65265e-08 0)
(5.09119 3.83913e-08 0)
(5.0912 5.2543e-08 0)
(5.0912 -5.05931e-08 0)
(5.0912 3.80455e-08 0)
(5.0912 3.27498e-08 0)
(9.23437 -0.0780428 0)
(10.8452 0.24164 0)
(10.6776 2.14036 0)
(7.53112 3.11151 0)
(11.7631 0.00748582 0)
(11.8718 -2.9777 0)
(9.93213 -2.24057 0)
(9.9303 -1.85805 0)
(10.545 -2.72141 0)
(9.41406 -3.09635 0)
(8.03431 -2.71744 0)
(7.00558 -2.0353 0)
(6.22624 -1.41482 0)
(6.1446 -0.829268 0)
(6.17559 -0.422443 0)
(5.95429 -0.212467 0)
(5.66886 -0.120962 0)
(5.49501 -0.0981128 0)
(5.42416 -0.110464 0)
(5.38317 -0.128595 0)
(5.33429 -0.137865 0)
(5.27894 -0.136019 0)
(5.22762 -0.12027 0)
(5.18545 -0.0944245 0)
(5.15308 -0.0670548 0)
(5.12978 -0.0444076 0)
(5.11416 -0.0281897 0)
(5.10438 -0.0174951 0)
(5.09856 -0.0107394 0)
(5.09525 -0.00655226 0)
(5.09341 -0.00397643 0)
(5.0924 -0.00239765 0)
(5.09186 -0.00143474 0)
(5.09156 -0.000851192 0)
(5.0914 -0.000500484 0)
(5.09131 -0.000291782 0)
(5.09126 -0.000168514 0)
(5.09123 -9.65862e-05 0)
(5.09122 -5.49001e-05 0)
(5.09121 -3.07915e-05 0)
(5.0912 -1.72325e-05 0)
(5.0912 -9.46693e-06 0)
(5.0912 -5.11767e-06 0)
(5.0912 -2.89525e-06 0)
(5.0912 -1.48938e-06 0)
(5.0912 -6.48412e-07 0)
(5.0912 -3.7786e-07 0)
(5.0912 -1.95276e-07 0)
(5.0912 -9.18995e-08 0)
(5.0912 -1.00042e-07 0)
(5.0912 7.65874e-09 0)
(5.0912 -2.56711e-08 0)
(5.0912 -5.73984e-08 0)
(5.0912 4.46182e-08 0)
(5.0912 3.84124e-08 0)
(5.0912 -1.04197e-08 0)
(5.0912 -3.79884e-08 0)
(5.0912 -3.44557e-08 0)
(5.0912 7.13777e-09 0)
(5.0912 1.20844e-08 0)
(5.0912 2.75007e-10 0)
(5.0912 -2.92491e-08 0)
(5.0912 -2.92429e-08 0)
(5.0912 2.66913e-08 0)
(5.0912 3.54329e-08 0)
(5.0912 -9.15421e-09 0)
(5.0912 -1.95751e-08 0)
(5.0912 -1.52163e-08 0)
(5.0912 2.71803e-08 0)
(5.0912 7.11502e-08 0)
(5.0912 3.94641e-08 0)
(5.0912 -1.91043e-08 0)
(5.0912 -2.3518e-08 0)
(5.0912 -3.99184e-09 0)
(5.0912 2.2606e-08 0)
(5.0912 3.10886e-08 0)
(5.0912 2.49921e-09 0)
(5.0912 -1.82756e-08 0)
(5.0912 -2.57938e-08 0)
(5.0912 -2.41552e-08 0)
(5.0912 -1.37971e-08 0)
(5.0912 3.46791e-08 0)
(5.09119 3.71425e-08 0)
(5.0912 3.2052e-08 0)
(5.09119 -2.60102e-08 0)
(5.0912 -1.35138e-08 0)
(5.09119 2.5685e-09 0)
(5.09121 1.166e-08 0)
(5.09119 4.40062e-08 0)
(5.09121 -8.71961e-08 0)
(5.09119 2.49145e-09 0)
(5.0912 -5.23925e-08 0)
(5.0912 -4.03498e-08 0)
(5.09119 1.30113e-07 0)
(5.09121 -9.59069e-08 0)
(5.09119 1.85644e-08 0)
(5.0912 8.17467e-08 0)
(5.0912 -1.07775e-07 0)
(5.0912 4.00839e-08 0)
(5.0912 6.64443e-08 0)
(9.1132 0.0891777 0)
(10.3732 0.0842792 0)
(10.6506 2.36932 0)
(9.3753 3.1218 0)
(13.09 -0.278548 0)
(12.0744 -2.79763 0)
(9.95717 -2.28314 0)
(10.0123 -1.94866 0)
(10.6396 -2.6173 0)
(9.62044 -2.90308 0)
(8.2708 -2.50212 0)
(7.21777 -1.79907 0)
(6.22046 -1.321 0)
(5.85775 -0.888276 0)
(6.05747 -0.436445 0)
(6.04664 -0.163789 0)
(5.7764 -0.0835482 0)
(5.54259 -0.0676147 0)
(5.43229 -0.0585387 0)
(5.38457 -0.0621369 0)
(5.34145 -0.0815384 0)
(5.29092 -0.0952625 0)
(5.24103 -0.091538 0)
(5.19727 -0.0743505 0)
(5.16175 -0.053608 0)
(5.1353 -0.0360016 0)
(5.11737 -0.0233013 0)
(5.10616 -0.0148229 0)
(5.09955 -0.0093446 0)
(5.09581 -0.00584525 0)
(5.09374 -0.00362268 0)
(5.0926 -0.00222045 0)
(5.09198 -0.00134499 0)
(5.09163 -0.000804823 0)
(5.09144 -0.000475974 0)
(5.09134 -0.000278639 0)
(5.09128 -0.000161366 0)
(5.09124 -9.25915e-05 0)
(5.09122 -5.26551e-05 0)
(5.09121 -2.95523e-05 0)
(5.0912 -1.65844e-05 0)
(5.0912 -9.08761e-06 0)
(5.0912 -4.88426e-06 0)
(5.0912 -2.81467e-06 0)
(5.0912 -1.43008e-06 0)
(5.0912 -5.84318e-07 0)
(5.0912 -3.3774e-07 0)
(5.0912 -1.97851e-07 0)
(5.0912 -9.87318e-08 0)
(5.0912 -8.76389e-08 0)
(5.0912 1.52308e-08 0)
(5.0912 -3.25281e-08 0)
(5.0912 -7.45397e-08 0)
(5.0912 7.1272e-08 0)
(5.0912 8.2719e-08 0)
(5.0912 -1.48306e-08 0)
(5.0912 -7.52199e-08 0)
(5.0912 -6.11909e-08 0)
(5.0912 5.63987e-09 0)
(5.0912 3.50994e-08 0)
(5.0912 -6.83178e-09 0)
(5.0912 -6.40023e-08 0)
(5.0912 -3.67124e-08 0)
(5.0912 4.34827e-08 0)
(5.0912 5.52049e-08 0)
(5.0912 -9.23046e-09 0)
(5.0912 -5.88368e-08 0)
(5.0912 -3.19601e-08 0)
(5.0912 5.89942e-08 0)
(5.0912 1.10422e-07 0)
(5.0912 6.46557e-08 0)
(5.0912 -2.40675e-08 0)
(5.0912 -5.96583e-08 0)
(5.0912 -1.927e-08 0)
(5.0912 4.65488e-08 0)
(5.0912 5.22747e-08 0)
(5.0912 3.97378e-09 0)
(5.0912 -2.80071e-08 0)
(5.0912 -5.49442e-08 0)
(5.0912 -5.51002e-08 0)
(5.0912 -1.94974e-08 0)
(5.0912 6.2325e-08 0)
(5.09119 6.56755e-08 0)
(5.0912 4.33318e-08 0)
(5.09119 -4.1861e-08 0)
(5.0912 -2.53717e-08 0)
(5.09119 2.14416e-09 0)
(5.09121 2.04041e-08 0)
(5.09119 6.56377e-08 0)
(5.09121 -1.03475e-07 0)
(5.09119 9.51564e-09 0)
(5.0912 -8.89798e-08 0)
(5.0912 -5.53811e-08 0)
(5.09119 1.62995e-07 0)
(5.09121 -1.17292e-07 0)
(5.09119 4.93589e-08 0)
(5.0912 9.8701e-08 0)
(5.0912 -1.23822e-07 0)
(5.0912 5.68031e-08 0)
(5.0912 7.03365e-08 0)
(9.21464 0.182063 0)
(10.4846 -0.209877 0)
(10.561 2.22372 0)
(10.732 2.815 0)
(13.9535 -0.374945 0)
(12.0886 -2.468 0)
(10.1487 -2.0692 0)
(10.249 -1.87236 0)
(10.3633 -2.54259 0)
(9.56945 -2.81512 0)
(8.40674 -2.36367 0)
(7.70796 -1.62525 0)
(6.6656 -1.07317 0)
(5.77482 -0.799355 0)
(5.67655 -0.487393 0)
(5.98181 -0.153777 0)
(5.98715 -0.00124191 0)
(5.73227 -0.0258005 0)
(5.48892 -0.104747 0)
(5.345 -0.148601 0)
(5.27537 -0.152195 0)
(5.24047 -0.139858 0)
(5.21418 -0.117568 0)
(5.18701 -0.0887518 0)
(5.15976 -0.0608657 0)
(5.13635 -0.0391644 0)
(5.11902 -0.0243812 0)
(5.10754 -0.0150025 0)
(5.10051 -0.00921959 0)
(5.09641 -0.00566763 0)
(5.09409 -0.00347583 0)
(5.09281 -0.00211827 0)
(5.0921 -0.00127946 0)
(5.09171 -0.000764747 0)
(5.09149 -0.000452172 0)
(5.09136 -0.000264695 0)
(5.09129 -0.000153265 0)
(5.09125 -8.79748e-05 0)
(5.09123 -5.0055e-05 0)
(5.09121 -2.80409e-05 0)
(5.09121 -1.57041e-05 0)
(5.0912 -8.64915e-06 0)
(5.0912 -4.63963e-06 0)
(5.0912 -2.60557e-06 0)
(5.0912 -1.32593e-06 0)
(5.0912 -5.80185e-07 0)
(5.0912 -3.58563e-07 0)
(5.0912 -1.90717e-07 0)
(5.0912 -7.85663e-08 0)
(5.0912 -8.29682e-08 0)
(5.0912 6.88364e-09 0)
(5.0912 -1.65963e-08 0)
(5.0912 -4.55643e-08 0)
(5.0912 4.3781e-08 0)
(5.0912 3.2095e-08 0)
(5.0912 -1.59187e-08 0)
(5.0912 -3.52582e-08 0)
(5.0912 -3.02272e-08 0)
(5.0912 1.39466e-09 0)
(5.0912 4.10996e-09 0)
(5.0912 -4.18993e-10 0)
(5.0912 -2.37489e-08 0)
(5.0912 -2.68238e-08 0)
(5.0912 2.29096e-08 0)
(5.0912 3.06051e-08 0)
(5.0912 -8.2001e-09 0)
(5.0912 -1.65305e-08 0)
(5.0912 -1.11946e-08 0)
(5.0912 3.04357e-08 0)
(5.0912 6.7802e-08 0)
(5.0912 3.50355e-08 0)
(5.0912 -1.70037e-08 0)
(5.0912 -2.00916e-08 0)
(5.0912 -1.88006e-09 0)
(5.0912 2.19751e-08 0)
(5.0912 2.49322e-08 0)
(5.0912 -2.44666e-09 0)
(5.0912 -1.66774e-08 0)
(5.0912 -2.67649e-08 0)
(5.0912 -2.46514e-08 0)
(5.0912 -1.57413e-08 0)
(5.0912 3.85205e-08 0)
(5.09119 3.1425e-08 0)
(5.0912 3.8497e-08 0)
(5.09119 -3.17752e-08 0)
(5.0912 -5.5763e-09 0)
(5.09119 4.85965e-09 0)
(5.09121 3.14321e-09 0)
(5.09119 6.29891e-08 0)
(5.09121 -1.29605e-07 0)
(5.09119 3.60449e-08 0)
(5.0912 -6.69991e-08 0)
(5.0912 -5.41848e-08 0)
(5.09119 1.98439e-07 0)
(5.09121 -1.66184e-07 0)
(5.09119 3.9835e-08 0)
(5.0912 1.24851e-07 0)
(5.0912 -1.78857e-07 0)
(5.0912 5.7152e-08 0)
(5.0912 9.87732e-08 0)
(9.85546 0.295241 0)
(10.5128 -0.367298 0)
(10.3062 2.068 0)
(11.5467 2.55 0)
(14.241 -0.423497 0)
(12.4103 -2.12906 0)
(10.5816 -1.86357 0)
(10.5041 -1.96245 0)
(9.94836 -2.48682 0)
(9.5339 -2.56212 0)
(8.14904 -2.17803 0)
(7.8235 -1.51423 0)
(7.24959 -0.967683 0)
(6.35923 -0.64036 0)
(5.61246 -0.435985 0)
(5.49913 -0.229439 0)
(5.83276 -0.0542589 0)
(6.10916 0.0172936 0)
(6.07533 0.0363487 0)
(5.82374 0.0198528 0)
(5.5591 -0.0240179 0)
(5.37863 -0.0577935 0)
(5.27479 -0.0656371 0)
(5.21221 -0.0551912 0)
(5.16953 -0.0394956 0)
(5.13966 -0.0262521 0)
(5.11997 -0.0170448 0)
(5.10784 -0.0110565 0)
(5.1007 -0.00718458 0)
(5.0966 -0.00464711 0)
(5.09427 -0.00297085 0)
(5.09295 -0.00186808 0)
(5.0922 -0.00115391 0)
(5.09177 -0.000700344 0)
(5.09152 -0.000418212 0)
(5.09138 -0.000246391 0)
(5.0913 -0.000143245 0)
(5.09126 -8.23762e-05 0)
(5.09123 -4.68749e-05 0)
(5.09122 -2.6251e-05 0)
(5.09121 -1.47277e-05 0)
(5.0912 -8.09872e-06 0)
(5.0912 -4.31274e-06 0)
(5.0912 -2.45261e-06 0)
(5.0912 -1.23875e-06 0)
(5.0912 -5.26765e-07 0)
(5.0912 -3.27732e-07 0)
(5.0912 -1.85581e-07 0)
(5.0912 -7.30709e-08 0)
(5.0912 -5.86595e-08 0)
(5.0912 1.12321e-08 0)
(5.0912 -1.71892e-08 0)
(5.0912 -5.59449e-08 0)
(5.0912 5.96993e-08 0)
(5.0912 6.10372e-08 0)
(5.0912 -1.73292e-08 0)
(5.0912 -5.63694e-08 0)
(5.0912 -4.88187e-08 0)
(5.0912 -3.14839e-10 0)
(5.0912 1.7988e-08 0)
(5.0912 -4.85233e-09 0)
(5.0912 -4.62098e-08 0)
(5.0912 -3.18451e-08 0)
(5.0912 3.35215e-08 0)
(5.0912 4.12981e-08 0)
(5.0912 -6.81799e-09 0)
(5.0912 -4.23312e-08 0)
(5.0912 -2.52492e-08 0)
(5.0912 4.97322e-08 0)
(5.0912 9.1299e-08 0)
(5.0912 5.00456e-08 0)
(5.0912 -1.5758e-08 0)
(5.0912 -4.21536e-08 0)
(5.0912 -1.42621e-08 0)
(5.0912 3.68486e-08 0)
(5.0912 3.90548e-08 0)
(5.0912 -2.4111e-09 0)
(5.0912 -2.06922e-08 0)
(5.0912 -4.37151e-08 0)
(5.0912 -4.64648e-08 0)
(5.0912 -2.13081e-08 0)
(5.0912 5.62369e-08 0)
(5.09119 4.89707e-08 0)
(5.0912 4.60207e-08 0)
(5.09119 -4.23225e-08 0)
(5.0912 -1.05591e-08 0)
(5.09119 2.63588e-09 0)
(5.09121 6.04621e-09 0)
(5.09119 8.06959e-08 0)
(5.09121 -1.42304e-07 0)
(5.09119 5.50166e-08 0)
(5.0912 -1.00014e-07 0)
(5.0912 -6.61722e-08 0)
(5.09119 2.27857e-07 0)
(5.09121 -1.98715e-07 0)
(5.09119 7.22416e-08 0)
(5.0912 1.40794e-07 0)
(5.0912 -1.99548e-07 0)
(5.0912 7.82299e-08 0)
(5.0912 1.06291e-07 0)
(10.5187 0.357654 0)
(10.551 -0.384712 0)
(9.77831 1.91857 0)
(12.0118 2.18094 0)
(13.7446 -0.417564 0)
(12.6012 -1.8283 0)
(10.965 -1.77484 0)
(10.8071 -1.72497 0)
(9.65821 -2.36319 0)
(9.14908 -2.43224 0)
(8.03465 -2.06318 0)
(7.35856 -1.43186 0)
(7.23507 -0.858575 0)
(6.72069 -0.582835 0)
(6.24392 -0.328305 0)
(5.72242 -0.150769 0)
(5.40207 -0.0849538 0)
(5.36565 -0.0664053 0)
(5.40983 -0.0709175 0)
(5.39819 -0.0904691 0)
(5.3404 -0.109235 0)
(5.28249 -0.116359 0)
(5.23908 -0.104753 0)
(5.20427 -0.079129 0)
(5.17245 -0.0525581 0)
(5.14481 -0.0326183 0)
(5.12399 -0.0198375 0)
(5.11022 -0.0121382 0)
(5.10191 -0.00750919 0)
(5.09718 -0.00467204 0)
(5.09455 -0.00290213 0)
(5.09309 -0.00178853 0)
(5.09228 -0.00109006 0)
(5.09182 -0.000655981 0)
(5.09156 -0.000389774 0)
(5.0914 -0.000228999 0)
(5.09132 -0.000132871 0)
(5.09127 -7.62951e-05 0)
(5.09124 -4.33925e-05 0)
(5.09122 -2.42596e-05 0)
(5.09121 -1.35933e-05 0)
(5.0912 -7.50254e-06 0)
(5.0912 -3.98213e-06 0)
(5.0912 -2.21198e-06 0)
(5.0912 -1.11715e-06 0)
(5.0912 -4.98333e-07 0)
(5.0912 -3.33529e-07 0)
(5.0912 -1.80555e-07 0)
(5.0912 -5.09972e-08 0)
(5.0912 -5.11089e-08 0)
(5.0912 9.30637e-09 0)
(5.0912 -6.189e-09 0)
(5.0912 -3.31795e-08 0)
(5.0912 4.08387e-08 0)
(5.0912 2.38603e-08 0)
(5.0912 -2.02036e-08 0)
(5.0912 -3.17331e-08 0)
(5.0912 -2.69764e-08 0)
(5.0912 -1.12053e-09 0)
(5.0912 -2.68101e-09 0)
(5.0912 -2.06376e-09 0)
(5.0912 -1.70904e-08 0)
(5.0912 -2.39093e-08 0)
(5.0912 1.9398e-08 0)
(5.0912 2.66302e-08 0)
(5.0912 -7.76543e-09 0)
(5.0912 -1.37864e-08 0)
(5.0912 -6.95682e-09 0)
(5.0912 3.18772e-08 0)
(5.0912 6.30765e-08 0)
(5.0912 2.95918e-08 0)
(5.0912 -1.42521e-08 0)
(5.0912 -1.58275e-08 0)
(5.0912 -1.15714e-09 0)
(5.0912 2.0724e-08 0)
(5.0912 2.02895e-08 0)
(5.0912 -6.52803e-09 0)
(5.0912 -1.38858e-08 0)
(5.0912 -2.58757e-08 0)
(5.0912 -2.43692e-08 0)
(5.0912 -1.6994e-08 0)
(5.0912 4.26347e-08 0)
(5.09119 2.34433e-08 0)
(5.0912 4.42322e-08 0)
(5.09119 -3.85233e-08 0)
(5.0912 5.6475e-09 0)
(5.09119 3.35933e-09 0)
(5.09121 -5.55399e-09 0)
(5.09119 8.06379e-08 0)
(5.09121 -1.69793e-07 0)
(5.09119 7.94643e-08 0)
(5.0912 -9.29245e-08 0)
(5.0912 -6.17621e-08 0)
(5.09119 2.63128e-07 0)
(5.09121 -2.47849e-07 0)
(5.09119 7.76666e-08 0)
(5.0912 1.61623e-07 0)
(5.0912 -2.51475e-07 0)
(5.0912 7.92776e-08 0)
(5.0912 1.28458e-07 0)
(10.8897 0.35321 0)
(10.3788 -0.312085 0)
(9.45291 1.68114 0)
(12.1669 1.78462 0)
(12.9776 -0.43855 0)
(12.2762 -1.63716 0)
(11.0767 -1.64982 0)
(10.7442 -1.60032 0)
(9.83346 -2.16096 0)
(8.85035 -2.38413 0)
(8.61254 -1.80008 0)
(7.40864 -1.33914 0)
(7.21653 -0.747287 0)
(6.7725 -0.414228 0)
(6.07322 -0.295914 0)
(5.88135 -0.116044 0)
(5.94234 -0.00953517 0)
(5.96088 0.0201757 0)
(5.89085 0.0463669 0)
(5.75489 0.0600428 0)
(5.57928 0.031503 0)
(5.41133 -0.0135327 0)
(5.28842 -0.0361035 0)
(5.21146 -0.0356922 0)
(5.16516 -0.0263452 0)
(5.13693 -0.0169999 0)
(5.11942 -0.0106855 0)
(5.10845 -0.00702497 0)
(5.10159 -0.00481367 0)
(5.09736 -0.00331684 0)
(5.0948 -0.00224091 0)
(5.09329 -0.00146858 0)
(5.0924 -0.000933224 0)
(5.09189 -0.000576852 0)
(5.0916 -0.000348372 0)
(5.09143 -0.000206595 0)
(5.09133 -0.000120466 0)
(5.09127 -6.93254e-05 0)
(5.09124 -3.94312e-05 0)
(5.09122 -2.20364e-05 0)
(5.09121 -1.23553e-05 0)
(5.0912 -6.79721e-06 0)
(5.0912 -3.56417e-06 0)
(5.0912 -1.99044e-06 0)
(5.0912 -1.00466e-06 0)
(5.0912 -4.48607e-07 0)
(5.0912 -3.03377e-07 0)
(5.0912 -1.68101e-07 0)
(5.0912 -4.05355e-08 0)
(5.0912 -2.16791e-08 0)
(5.0912 1.09907e-08 0)
(5.0912 -6.16009e-09 0)
(5.0912 -3.78178e-08 0)
(5.0912 4.66582e-08 0)
(5.0912 4.29301e-08 0)
(5.0912 -1.87915e-08 0)
(5.0912 -4.14088e-08 0)
(5.0912 -3.92338e-08 0)
(5.0912 -2.46754e-09 0)
(5.0912 6.86156e-09 0)
(5.0912 -5.41259e-09 0)
(5.0912 -2.99876e-08 0)
(5.0912 -2.71181e-08 0)
(5.0912 2.38396e-08 0)
(5.0912 3.17776e-08 0)
(5.0912 -5.99501e-09 0)
(5.0912 -2.93642e-08 0)
(5.0912 -1.88866e-08 0)
(5.0912 4.01663e-08 0)
(5.0912 7.39509e-08 0)
(5.0912 3.76685e-08 0)
(5.0912 -1.0285e-08 0)
(5.0912 -2.76223e-08 0)
(5.0912 -1.1111e-08 0)
(5.0912 2.78294e-08 0)
(5.0912 2.92713e-08 0)
(5.0912 -6.19276e-09 0)
(5.0912 -1.47603e-08 0)
(5.0912 -3.3724e-08 0)
(5.0912 -3.77727e-08 0)
(5.0912 -2.28758e-08 0)
(5.0912 5.15663e-08 0)
(5.09119 3.20693e-08 0)
(5.0912 4.93807e-08 0)