/*--------------------------------*- C++ -*----------------------------------*\
| =========                 |                                                 |
| \\      /  F ield         | OpenFOAM: The Open Source CFD Toolbox           |
|  \\    /   O peration     | Version:  2.4.0                                 |
|   \\  /    A nd           | Web:      www.OpenFOAM.org                      |
|    \\/     M anipulation  |                                                 |
\*---------------------------------------------------------------------------*/
FoamFile
{
    version     2.0;
    format      ascii;
    class       volScalarField;
    location    "16";
    object      p;
}
// * * * * * * * * * * * * * * * * * * * * * * * * * * * * * * * * * * * * * //

dimensions      [0 2 -2 0 0 0 0];

internalField   nonuniform List<scalar> 
4400
(
-0.0954048
-0.0843705
-0.0903752
-0.100904
-0.0928056
-0.0972662
-0.0972734
-0.0907161
-0.100094
-0.100113
-0.0957442
-0.10369
-0.103069
-0.0984787
-0.106272
-0.106776
-0.102246
-0.109094
-0.113089
-0.10948
-0.0955853
-0.0842604
-0.090128
-0.101283
-0.0927542
-0.0972038
-0.0975635
-0.0904158
-0.100146
-0.100382
-0.0954103
-0.103791
-0.103268
-0.0982076
-0.106337
-0.10699
-0.102004
-0.109076
-0.113354
-0.109247
-0.0958545
-0.0840325
-0.0899266
-0.101852
-0.0925144
-0.0972019
-0.0978441
-0.090004
-0.100335
-0.100637
-0.0950533
-0.104004
-0.103469
-0.0978582
-0.106486
-0.107222
-0.101698
-0.109111
-0.113489
-0.108991
-0.0960492
-0.083829
-0.0898872
-0.102347
-0.092136
-0.0972602
-0.098034
-0.089683
-0.100565
-0.100747
-0.0947751
-0.104222
-0.103561
-0.0973988
-0.106636
-0.107365
-0.101429
-0.109189
-0.113354
-0.108719
-0.0960996
-0.0838084
-0.0900715
-0.102607
-0.0917156
-0.0973548
-0.0981572
-0.0896035
-0.100791
-0.100659
-0.094696
-0.104385
-0.103495
-0.0973484
-0.106728
-0.107362
-0.101314
-0.10928
-0.112842
-0.108416
-0.095937
-0.0841766
-0.0905346
-0.102646
-0.0914532
-0.0974225
-0.0983238
-0.0899025
-0.10095
-0.10046
-0.0948853
-0.104445
-0.103286
-0.0976156
-0.106723
-0.107224
-0.101436
-0.109354
-0.11207
-0.108035
-0.0954892
-0.085131
-0.0912937
-0.1023
-0.0915131
-0.0973736
-0.0985372
-0.0906817
-0.100936
-0.100263
-0.095399
-0.104317
-0.102972
-0.0982576
-0.106563
-0.10693
-0.101893
-0.109309
-0.111137
-0.107704
-0.0947004
-0.0867745
-0.0922804
-0.101359
-0.0922787
-0.0971398
-0.0986791
-0.091986
-0.100652
-0.100075
-0.0962706
-0.103922
-0.102574
-0.0992812
-0.106197
-0.106433
-0.102748
-0.109055
-0.110055
-0.107605
-0.0935842
-0.0890342
-0.093343
-0.099664
-0.0935484
-0.0966983
-0.0985953
-0.0937951
-0.10005
-0.099848
-0.0974921
-0.103213
-0.102115
-0.100635
-0.105599
-0.105729
-0.103987
-0.108558
-0.108843
-0.107844
-0.0922429
-0.0916534
-0.0943016
-0.0972498
-0.0950523
-0.0960862
-0.0981673
-0.095986
-0.0991708
-0.0995081
-0.098986
-0.102206
-0.101631
-0.102216
-0.10478
-0.104875
-0.105494
-0.107825
-0.107544
-0.108425
-0.0908424
-0.0942869
-0.0950162
-0.0943755
-0.096114
-0.0953785
-0.0973829
-0.0983247
-0.0981138
-0.0990017
-0.100597
-0.100984
-0.101156
-0.103873
-0.103801
-0.103969
-0.107086
-0.106906
-0.106222
-0.109247
-0.0895528
-0.0966398
-0.0954348
-0.0914364
-0.0969273
-0.094673
-0.0963727
-0.100523
-0.0970455
-0.0983356
-0.102122
-0.0996916
-0.100703
-0.105425
-0.102775
-0.103116
-0.108562
-0.105898
-0.104964
-0.110111
-0.0884977
-0.098511
-0.0956173
-0.088801
-0.0973966
-0.0940969
-0.0953344
-0.102334
-0.0961443
-0.0975997
-0.103363
-0.0985052
-0.100277
-0.106696
-0.101845
-0.102395
-0.109744
-0.104938
-0.103854
-0.110801
-0.0877453
-0.0998149
-0.0956819
-0.0867185
-0.0974936
-0.0937628
-0.0944628
-0.10361
-0.0955265
-0.0969203
-0.104209
-0.0975821
-0.0999046
-0.107576
-0.101135
-0.101843
-0.110521
-0.104168
-0.102958
-0.111186
-0.0873043
-0.100583
-0.0957518
-0.0853169
-0.0972937
-0.0936909
-0.0938903
-0.104333
-0.0952195
-0.0963952
-0.104649
-0.0970162
-0.0996202
-0.108051
-0.100719
-0.101471
-0.110882
-0.103671
-0.102313
-0.111137
-0.0871227
-0.100923
-0.0958932
-0.0845989
-0.0969277
-0.0938026
-0.0936521
-0.104597
-0.095173
-0.0960824
-0.104752
-0.0968007
-0.0994516
-0.108177
-0.100587
-0.101277
-0.110906
-0.103453
-0.10194
-0.111
-0.087135
-0.100945
-0.0959871
-0.0844715
-0.0964983
-0.0939201
-0.0937059
-0.104626
-0.0952666
-0.0960019
-0.104603
-0.0968374
-0.0994202
-0.108044
-0.100644
-0.10126
-0.110702
-0.103422
-0.101828
-0.110684
-0.0873086
-0.100739
-0.0958505
-0.0847689
-0.0960794
-0.0939331
-0.093953
-0.104244
-0.0953826
-0.0961163
-0.104266
-0.0969922
-0.0995168
-0.107742
-0.100776
-0.101404
-0.110334
-0.10345
-0.101943
-0.110272
-0.0875354
-0.100445
-0.0955048
-0.0852503
-0.0957673
-0.0938445
-0.0942827
-0.10378
-0.0954461
-0.0963565
-0.103866
-0.0971393
-0.0997077
-0.107358
-0.100881
-0.101653
-0.109932
-0.103454
-0.1022
-0.109868
-0.0877331
-0.100279
-0.0951521
-0.0856277
-0.0956603
-0.0937296
-0.0945784
-0.103472
-0.0954155
-0.0966009
-0.103582
-0.0971917
-0.0999038
-0.107077
-0.1009
-0.101895
-0.109657
-0.103401
-0.102476
-0.109618
-0.112825
-0.123032
-0.0899367
-0.079519
-0.164626
-0.23719
-0.263486
-0.245003
-0.213739
-0.200225
-0.196125
-0.192427
-0.186746
-0.165465
-0.119701
-0.0615874
-0.0131187
0.0148641
0.0271512
0.0323204
0.0347207
0.0357898
0.0361258
0.0360864
0.0358695
0.0355705
0.0352329
0.0348766
0.0345105
0.0341388
0.0337633
0.0333848
0.0330035
0.0326195
0.0322329
0.0318436
0.0314517
0.031057
0.0306595
0.0302592
0.0298562
0.0294503
0.0290416
0.02863
0.0282155
0.0277981
0.0273778
0.0269545
0.0265282
0.026099
0.0256667
0.0252313
0.0247929
0.0243515
0.0239069
0.0234592
0.0230083
0.0225543
0.0220971
0.0216366
0.0211729
0.020706
0.0202358
0.0197622
0.0192853
0.0188051
0.0183215
0.0178345
0.0173441
0.0168502
0.0163529
0.0158521
0.0153477
0.0148398
0.0143284
0.0138133
0.0132946
0.0127724
0.0122463
0.0117167
0.0111832
0.0106462
0.0101051
0.0095606
0.00901185
0.00845962
0.00790325
0.00734302
0.0067791
0.00621063
0.00563903
0.00506249
0.00448259
0.00389839
0.0033098
0.00271765
0.00212087
0.00151998
0.000915084
0.000305746
-0.111635
-0.122991
-0.0899537
-0.0775632
-0.159552
-0.230501
-0.25575
-0.238548
-0.207995
-0.191773
-0.18921
-0.197098
-0.203567
-0.186974
-0.137647
-0.0725513
-0.0179726
0.013544
0.0272078
0.0326859
0.0350488
0.0360261
0.036286
0.0361925
0.0359389
0.0356154
0.0352618
0.0348949
0.0345221
0.0341461
0.0337678
0.0333875
0.0330052
0.0326205
0.0322335
0.031844
0.0314519
0.0310571
0.0306596
0.0302593
0.0298562
0.0294503
0.0290416
0.02863
0.0282155
0.0277981
0.0273778
0.0269545
0.0265282
0.026099
0.0256667
0.0252313
0.0247929
0.0243515
0.0239069
0.0234591
0.0230083
0.0225543
0.0220971
0.0216366
0.0211729
0.020706
0.0202358
0.0197622
0.0192853
0.0188051
0.0183215
0.0178345
0.0173441
0.0168502
0.0163529
0.0158521
0.0153477
0.0148398
0.0143284
0.0138133
0.0132946
0.0127724
0.0122463
0.0117167
0.0111832
0.0106462
0.0101051
0.0095606
0.00901185
0.00845963
0.00790324
0.00734302
0.00677911
0.00621063
0.00563903
0.00506248
0.00448259
0.00389839
0.0033098
0.00271765
0.00212087
0.00151999
0.000915083
0.000305747
-0.110357
-0.121951
-0.091204
-0.0784234
-0.155504
-0.224593
-0.247725
-0.231131
-0.200461
-0.181968
-0.1815
-0.200829
-0.218575
-0.20636
-0.153986
-0.0826943
-0.022536
0.0123198
0.0273208
0.0330941
0.0354036
0.0362765
0.0364532
0.036302
0.0360099
0.0356611
0.0352909
0.0349134
0.0345337
0.0341533
0.0337723
0.0333903
0.0330068
0.0326215
0.0322341
0.0318444
0.0314521
0.0310572
0.0306596
0.0302593
0.0298562
0.0294504
0.0290416
0.02863
0.0282155
0.0277981
0.0273778
0.0269545
0.0265282
0.026099
0.0256667
0.0252313
0.0247929
0.0243515
0.0239069
0.0234591
0.0230083
0.0225543
0.0220971
0.0216366
0.0211729
0.020706
0.0202358
0.0197622
0.0192853
0.0188051
0.0183215
0.0178345
0.0173441
0.0168502
0.0163529
0.0158521
0.0153477
0.0148398
0.0143284
0.0138133
0.0132946
0.0127724
0.0122463
0.0117167
0.0111832
0.0106462
0.0101051
0.0095606
0.00901185
0.00845963
0.00790324
0.00734302
0.00677911
0.00621063
0.00563903
0.00506248
0.00448259
0.00389839
0.0033098
0.00271765
0.00212087
0.00151998
0.000915084
0.000305747
-0.109268
-0.120013
-0.0933354
-0.0816554
-0.151761
-0.217226
-0.238192
-0.221678
-0.190953
-0.170987
-0.173262
-0.20351
-0.231257
-0.223044
-0.168295
-0.0917519
-0.0266899
0.0112199
0.027485
0.0335362
0.0357798
0.0365384
0.0366261
0.0364142
0.0360821
0.0357072
0.0353201
0.0349318
0.0345452
0.0341604
0.0337767
0.033393
0.0330085
0.0326225
0.0322347
0.0318447
0.0314523
0.0310573
0.0306597
0.0302594
0.0298563
0.0294504
0.0290416
0.02863
0.0282155
0.0277981
0.0273778
0.0269545
0.0265282
0.026099
0.0256667
0.0252313
0.0247929
0.0243515
0.0239069
0.0234592
0.0230083
0.0225543
0.022097
0.0216366
0.0211729
0.020706
0.0202358
0.0197622
0.0192853
0.0188051
0.0183215
0.0178345
0.0173441
0.0168502
0.0163529
0.0158521
0.0153477
0.0148398
0.0143284
0.0138133
0.0132946
0.0127724
0.0122463
0.0117167
0.0111832
0.0106462
0.0101051
0.0095606
0.00901185
0.00845963
0.00790324
0.00734302
0.00677911
0.00621063
0.00563903
0.00506248
0.00448259
0.00389839
0.0033098
0.00271765
0.00212087
0.00151998
0.000915084
0.000305747
-0.10846
-0.117349
-0.095947
-0.0859534
-0.14713
-0.207236
-0.226574
-0.210174
-0.179826
-0.159118
-0.164724
-0.205072
-0.241285
-0.236649
-0.180271
-0.0995064
-0.0303267
0.0102724
0.027695
0.0340019
0.0361713
0.036809
0.0368033
0.0365284
0.036155
0.0357535
0.0353493
0.0349501
0.0345566
0.0341675
0.033781
0.0333956
0.0330101
0.0326235
0.0322353
0.0318451
0.0314525
0.0310575
0.0306598
0.0302594
0.0298563
0.0294504
0.0290416
0.02863
0.0282155
0.0277981
0.0273778
0.0269545
0.0265282
0.026099
0.0256667
0.0252313
0.0247929
0.0243515
0.0239069
0.0234592
0.0230083
0.0225543
0.022097
0.0216366
0.0211729
0.020706
0.0202358
0.0197622
0.0192853
0.0188051
0.0183215
0.0178345
0.0173441
0.0168502
0.0163529
0.0158521
0.0153477
0.0148398
0.0143284
0.0138133
0.0132946
0.0127724
0.0122463
0.0117167
0.0111832
0.0106462
0.0101051
0.0095606
0.00901185
0.00845963
0.00790324
0.00734302
0.00677911
0.00621063
0.00563903
0.00506248
0.00448259
0.00389839
0.0033098
0.00271765
0.00212087
0.00151998
0.000915084
0.000305748
-0.108041
-0.114455
-0.0986121
-0.0903922
-0.141241
-0.194942
-0.213226
-0.197155
-0.167474
-0.146604
-0.156041
-0.205477
-0.248543
-0.247024
-0.18973
-0.105786
-0.0333531
0.00949898
0.0279427
0.0344815
0.0365728
0.0370858
0.0369836
0.0366437
0.0362282
0.0357996
0.0353783
0.0349682
0.0345678
0.0341744
0.0337853
0.0333982
0.0330117
0.0326245
0.0322359
0.0318454
0.0314527
0.0310576
0.0306598
0.0302594
0.0298563
0.0294504
0.0290416
0.02863
0.0282155
0.0277981
0.0273778
0.0269545
0.0265282
0.026099
0.0256667
0.0252313
0.0247929
0.0243515
0.0239069
0.0234592
0.0230083
0.0225543
0.022097
0.0216366
0.0211729
0.020706
0.0202358
0.0197622
0.0192853
0.0188051
0.0183215
0.0178345
0.0173441
0.0168502
0.0163529
0.0158521
0.0153477
0.0148398
0.0143284
0.0138133
0.0132946
0.0127724
0.0122463
0.0117167
0.0111832
0.0106462
0.0101051
0.0095606
0.00901185
0.00845963
0.00790324
0.00734302
0.00677911
0.00621063
0.00563903
0.00506248
0.00448259
0.0038984
0.00330979
0.00271765
0.00212087
0.00151998
0.000915084
0.000305749
-0.107949
-0.111727
-0.100873
-0.0944113
-0.134563
-0.181399
-0.198726
-0.183043
-0.154202
-0.133729
-0.14734
-0.204712
-0.253095
-0.254206
-0.196624
-0.110492
-0.0357121
0.0089134
0.0282235
0.0349676
0.036979
0.0373657
0.0371653
0.0367594
0.0363012
0.0358454
0.0354068
0.0349859
0.0345787
0.0341811
0.0337894
0.0334007
0.0330132
0.0326254
0.0322364
0.0318457
0.0314529
0.0310577
0.0306599
0.0302595
0.0298563
0.0294504
0.0290416
0.02863
0.0282155
0.0277981
0.0273778
0.0269545
0.0265282
0.026099
0.0256667
0.0252313
0.0247929
0.0243515
0.0239069
0.0234592
0.0230083
0.0225543
0.022097
0.0216366
0.0211729
0.020706
0.0202358
0.0197622
0.0192853
0.0188051
0.0183215
0.0178345
0.0173441
0.0168502
0.0163529
0.0158521
0.0153477
0.0148398
0.0143284
0.0138133
0.0132946
0.0127724
0.0122463
0.0117167
0.0111832
0.0106462
0.0101051
0.0095606
0.00901185
0.00845963
0.00790325
0.00734302
0.00677911
0.00621063
0.00563903
0.00506248
0.00448259
0.0038984
0.00330979
0.00271765
0.00212087
0.00151998
0.000915084
0.00030575
-0.108003
-0.109262
-0.102531
-0.0977609
-0.127768
-0.167526
-0.183571
-0.168278
-0.140473
-0.120868
-0.138755
-0.20284
-0.255156
-0.258386
-0.201021
-0.113611
-0.0373817
0.00852281
0.0285302
0.0354496
0.037383
0.0376456
0.0373471
0.0368747
0.0363735
0.0358904
0.0354347
0.0350031
0.0345893
0.0341876
0.0337933
0.0334031
0.0330146
0.0326262
0.0322369
0.031846
0.0314531
0.0310578
0.03066
0.0302595
0.0298563
0.0294504
0.0290416
0.02863
0.0282155
0.0277981
0.0273778
0.0269545
0.0265282
0.026099
0.0256667
0.0252313
0.0247929
0.0243515
0.0239069
0.0234592
0.0230083
0.0225543
0.022097
0.0216366
0.0211729
0.020706
0.0202358
0.0197622
0.0192853
0.0188051
0.0183215
0.0178345
0.0173441
0.0168502
0.0163529
0.0158521
0.0153477
0.0148398
0.0143284
0.0138133
0.0132946
0.0127724
0.0122463
0.0117167
0.0111832
0.0106462
0.0101051
0.0095606
0.00901185
0.00845963
0.00790325
0.00734302
0.00677911
0.00621063
0.00563903
0.00506248
0.00448259
0.0038984
0.00330979
0.00271765
0.00212087
0.00151998
0.000915084
0.000305751
-0.107991
-0.107048
-0.10366
-0.100368
-0.121159
-0.15405
-0.168334
-0.153483
-0.12684
-0.108449
-0.130423
-0.200009
-0.255036
-0.259862
-0.203089
-0.115205
-0.0383702
0.00831903
0.0288491
0.0359165
0.037779
0.0379227
0.0375274
0.0369888
0.0364446
0.0359344
0.0354618
0.0350197
0.0345995
0.0341938
0.0337971
0.0334054
0.033016
0.032627
0.0322374
0.0318463
0.0314533
0.0310579
0.03066
0.0302595
0.0298564
0.0294504
0.0290417
0.02863
0.0282155
0.0277981
0.0273778
0.0269545
0.0265282
0.026099
0.0256667
0.0252313
0.0247929
0.0243515
0.0239069
0.0234592
0.0230083
0.0225543
0.022097
0.0216366
0.0211729
0.020706
0.0202358
0.0197622
0.0192853
0.0188051
0.0183215
0.0178345
0.0173441
0.0168502
0.0163529
0.0158521
0.0153477
0.0148398
0.0143284
0.0138133
0.0132946
0.0127724
0.0122463
0.0117167
0.0111832
0.0106462
0.0101051
0.0095606
0.00901185
0.00845962
0.00790325
0.00734302
0.00677911
0.00621063
0.00563903
0.00506248
0.00448258
0.0038984
0.00330979
0.00271765
0.00212088
0.00151997
0.000915085
0.000305752
-0.107767
-0.105078
-0.104423
-0.102119
-0.114962
-0.141542
-0.153634
-0.139287
-0.113897
-0.0969316
-0.122494
-0.196387
-0.253077
-0.25899
-0.203082
-0.115408
-0.0387254
0.00828046
0.029168
0.0363606
0.0381622
0.0381942
0.0377048
0.0371007
0.0365141
0.0359771
0.0354879
0.0350356
0.0346091
0.0341996
0.0338006
0.0334075
0.0330172
0.0326278
0.0322379
0.0318466
0.0314534
0.031058
0.0306601
0.0302596
0.0298564
0.0294504
0.0290417
0.02863
0.0282155
0.0277981
0.0273778
0.0269545
0.0265282
0.026099
0.0256667
0.0252313
0.0247929
0.0243515
0.0239069
0.0234592
0.0230083
0.0225543
0.022097
0.0216366
0.0211729
0.020706
0.0202358
0.0197622
0.0192853
0.0188051
0.0183215
0.0178345
0.0173441
0.0168502
0.0163529
0.0158521
0.0153477
0.0148398
0.0143284
0.0138133
0.0132946
0.0127724
0.0122463
0.0117167
0.0111832
0.0106462
0.0101051
0.0095606
0.00901185
0.00845962
0.00790325
0.00734302
0.00677911
0.00621063
0.00563904
0.00506248
0.00448258
0.0038984
0.00330979
0.00271765
0.00212088
0.00151997
0.000915085
0.000305754
-0.10729
-0.103349
-0.104911
-0.102967
-0.109405
-0.130411
-0.140028
-0.1263
-0.102264
-0.0867868
-0.115166
-0.192163
-0.249611
-0.256152
-0.201315
-0.114431
-0.0385257
0.0083802
0.0294762
0.0367745
0.038527
0.0384567
0.0378773
0.0372095
0.0365812
0.0360181
0.0355128
0.0350506
0.0346182
0.0342051
0.0338039
0.0334095
0.0330184
0.0326285
0.0322383
0.0318468
0.0314536
0.0310581
0.0306601
0.0302596
0.0298564
0.0294504
0.0290417
0.02863
0.0282155
0.0277981
0.0273778
0.0269545
0.0265282
0.026099
0.0256667
0.0252313
0.0247929
0.0243515
0.0239069
0.0234592
0.0230083
0.0225543
0.022097
0.0216366
0.0211729
0.020706
0.0202358
0.0197622
0.0192853
0.0188051
0.0183215
0.0178345
0.0173441
0.0168502
0.0163529
0.0158521
0.0153477
0.0148398
0.0143284
0.0138133
0.0132946
0.0127724
0.0122463
0.0117167
0.0111832
0.0106462
0.0101051
0.0095606
0.00901185
0.00845962
0.00790325
0.00734302
0.00677911
0.00621062
0.00563904
0.00506248
0.00448258
0.00389841
0.00330978
0.00271765
0.00212088
0.00151997
0.000915085
0.000305755
-0.106622
-0.101857
-0.105144
-0.103023
-0.104628
-0.120867
-0.12796
-0.115089
-0.0925146
-0.0784614
-0.108653
-0.187538
-0.244963
-0.251723
-0.198137
-0.112559
-0.0378697
0.00858283
0.0297609
0.0371502
0.0388677
0.0387066
0.0380428
0.037314
0.0366454
0.0360571
0.0355362
0.0350647
0.0346266
0.0342101
0.0338069
0.0334112
0.0330195
0.0326291
0.0322387
0.0318471
0.0314537
0.0310581
0.0306602
0.0302596
0.0298564
0.0294504
0.0290417
0.02863
0.0282155
0.0277981
0.0273778
0.0269545
0.0265282
0.0260989
0.0256667
0.0252313
0.0247929
0.0243515
0.0239069
0.0234592
0.0230083
0.0225543
0.022097
0.0216366
0.0211729
0.020706
0.0202358
0.0197622
0.0192853
0.0188051
0.0183215
0.0178345
0.0173441
0.0168502
0.0163529
0.0158521
0.0153477
0.0148398
0.0143284
0.0138133
0.0132946
0.0127724
0.0122463
0.0117167
0.0111832
0.0106462
0.0101051
0.0095606
0.00901185
0.00845962
0.00790325
0.00734302
0.00677911
0.00621062
0.00563904
0.00506248
0.00448258
0.00389841
0.00330978
0.00271766
0.00212088
0.00151996
0.000915086
0.000305757
-0.105905
-0.100614
-0.105121
-0.102508
-0.100725
-0.112945
-0.117774
-0.106086
-0.0851123
-0.0723185
-0.103171
-0.182679
-0.239415
-0.246003
-0.193914
-0.110136
-0.0368737
0.00884402
0.0300088
0.0374808
0.0391786
0.0389399
0.038199
0.0374127
0.0367059
0.0360935
0.035558
0.0350777
0.0346343
0.0342147
0.0338096
0.0334128
0.0330204
0.0326297
0.032239
0.0318472
0.0314538
0.0310582
0.0306602
0.0302596
0.0298564
0.0294505
0.0290417
0.02863
0.0282155
0.0277981
0.0273778
0.0269545
0.0265282
0.0260989
0.0256667
0.0252313
0.0247929
0.0243515
0.0239069
0.0234592
0.0230083
0.0225543
0.022097
0.0216366
0.0211729
0.020706
0.0202358
0.0197622
0.0192853
0.0188051
0.0183215
0.0178345
0.0173441
0.0168502
0.0163529
0.0158521
0.0153477
0.0148398
0.0143284
0.0138133
0.0132946
0.0127724
0.0122463
0.0117167
0.0111832
0.0106462
0.0101051
0.0095606
0.00901185
0.00845962
0.00790325
0.00734302
0.00677911
0.00621062
0.00563904
0.00506248
0.00448258
0.00389841
0.00330978
0.00271766
0.00212088
0.00151996
0.000915087
0.000305759
-0.105273
-0.0996483
-0.104865
-0.101669
-0.0976874
-0.106572
-0.109661
-0.0994813
-0.0802783
-0.0685485
-0.0989443
-0.177745
-0.233129
-0.238811
-0.188588
-0.10761
-0.035668
0.00911775
0.0302099
0.0377604
0.0394544
0.0391523
0.0383427
0.0375037
0.0367616
0.0361268
0.0355778
0.0350894
0.0346412
0.0342187
0.033812
0.0334142
0.0330212
0.0326302
0.0322393
0.0318474
0.0314539
0.0310583
0.0306602
0.0302597
0.0298564
0.0294505
0.0290417
0.02863
0.0282155
0.0277981
0.0273778
0.0269545
0.0265282
0.0260989
0.0256667
0.0252313
0.0247929
0.0243515
0.0239069
0.0234592
0.0230083
0.0225543
0.022097
0.0216366
0.0211729
0.020706
0.0202358
0.0197622
0.0192853
0.0188051
0.0183215
0.0178345
0.0173441
0.0168502
0.0163529
0.0158521
0.0153477
0.0148398
0.0143284
0.0138133
0.0132946
0.0127724
0.0122463
0.0117167
0.0111832
0.0106462
0.0101051
0.0095606
0.00901185
0.00845962
0.00790325
0.00734302
0.00677911
0.00621062
0.00563904
0.00506248
0.00448258
0.00389842
0.00330977
0.00271766
0.00212089
0.00151995
0.000915088
0.000305761
-0.104798
-0.0989745
-0.104439
-0.100702
-0.0954492
-0.101637
-0.103633
-0.0951487
-0.0778403
-0.067086
-0.0961135
-0.172878
-0.226252
-0.231208
-0.182937
-0.104858
-0.0343799
0.00936442
0.0303565
0.0379833
0.0396882
0.039338
0.0384699
0.0375846
0.0368108
0.0361562
0.0355951
0.0350995
0.0346472
0.0342222
0.033814
0.0334154
0.0330219
0.0326306
0.0322395
0.0318475
0.031454
0.0310583
0.0306603
0.0302597
0.0298564
0.0294505
0.0290417
0.02863
0.0282155
0.0277981
0.0273778
0.0269545
0.0265282
0.0260989
0.0256667
0.0252313
0.0247929
0.0243515
0.0239069
0.0234592
0.0230083
0.0225543
0.022097
0.0216366
0.0211729
0.020706
0.0202358
0.0197622
0.0192853
0.0188051
0.0183215
0.0178345
0.0173441
0.0168502
0.0163529
0.0158521
0.0153477
0.0148398
0.0143284
0.0138133
0.0132946
0.0127724
0.0122463
0.0117167
0.0111832
0.0106462
0.0101051
0.0095606
0.00901185
0.00845962
0.00790325
0.00734301
0.00677911
0.00621062
0.00563904
0.00506248
0.00448258
0.00389842
0.00330977
0.00271766
0.00212089
0.00151995
0.000915089
0.000305764
-0.104492
-0.0985911
-0.103916
-0.0999361
-0.0939355
-0.0980631
-0.0996134
-0.0927823
-0.0773362
-0.0675309
-0.0946937
-0.167944
-0.21924
-0.224091
-0.177436
-0.101873
-0.0334178
0.00955025
0.0304401
0.0381416
0.0398722
0.0394904
0.0385758
0.0376519
0.0368517
0.0361804
0.0356093
0.0351078
0.034652
0.0342251
0.0338156
0.0334164
0.0330225
0.0326309
0.0322397
0.0318477
0.031454
0.0310583
0.0306603
0.0302597
0.0298564
0.0294505
0.0290417
0.02863
0.0282155
0.0277981
0.0273778
0.0269545
0.0265282
0.0260989
0.0256667
0.0252313
0.0247929
0.0243515
0.0239069
0.0234592
0.0230083
0.0225543
0.022097
0.0216366
0.0211729
0.020706
0.0202358
0.0197622
0.0192853
0.0188051
0.0183215
0.0178345
0.0173441
0.0168502
0.0163529
0.0158521
0.0153477
0.0148398
0.0143284
0.0138133
0.0132946
0.0127724
0.0122463
0.0117167
0.0111832
0.0106462
0.0101051
0.0095606
0.00901185
0.00845962
0.00790325
0.00734302
0.00677911
0.00621062
0.00563904
0.00506248
0.00448258
0.00389842
0.00330976
0.00271766
0.00212089
0.00151994
0.00091509
0.000305766
-0.104313
-0.098472
-0.103378
-0.0993858
-0.0930587
-0.0957869
-0.0973421
-0.0918956
-0.0780314
-0.0692984
-0.094379
-0.163125
-0.212499
-0.217604
-0.172483
-0.0992165
-0.0325886
0.00965233
0.030453
0.0382291
0.0399989
0.0396023
0.0386549
0.0377024
0.0368824
0.0361986
0.0356199
0.0351141
0.0346557
0.0342272
0.0338169
0.0334171
0.0330229
0.0326311
0.0322398
0.0318477
0.0314541
0.0310584
0.0306603
0.0302597
0.0298565
0.0294505
0.0290417
0.02863
0.0282155
0.0277981
0.0273778
0.0269545
0.0265282
0.0260989
0.0256667
0.0252313
0.0247929
0.0243515
0.0239069
0.0234592
0.0230083
0.0225543
0.022097
0.0216366
0.0211729
0.020706
0.0202358
0.0197622
0.0192853
0.0188051
0.0183215
0.0178345
0.0173441
0.0168502
0.0163529
0.0158521
0.0153477
0.0148398
0.0143284
0.0138133
0.0132946
0.0127724
0.0122463
0.0117167
0.0111832
0.0106462
0.0101051
0.00956059
0.00901185
0.00845962
0.00790325
0.00734302
0.00677911
0.00621062
0.00563904
0.00506248
0.00448258
0.00389842
0.00330976
0.00271767
0.00212089
0.00151994
0.000915091
0.000305768
-0.104185
-0.0985695
-0.102917
-0.0990511
-0.0927145
-0.0946551
-0.0963351
-0.0917559
-0.0789206
-0.0716509
-0.0947594
-0.158793
-0.206488
-0.21176
-0.168378
-0.0970803
-0.0319825
0.00965824
0.0303947
0.0382422
0.0400622
0.0396685
0.0387042
0.0377347
0.0369023
0.0362106
0.0356271
0.0351183
0.0346582
0.0342287
0.0338178
0.0334177
0.0330232
0.0326313
0.0322399
0.0318478
0.0314541
0.0310584
0.0306603
0.0302597
0.0298565
0.0294505
0.0290417
0.02863
0.0282155
0.0277981
0.0273778
0.0269545
0.0265282
0.0260989
0.0256667
0.0252313
0.0247929
0.0243515
0.0239069
0.0234592
0.0230083
0.0225543
0.022097
0.0216366
0.0211729
0.020706
0.0202358
0.0197622
0.0192853
0.0188051
0.0183215
0.0178345
0.0173441
0.0168502
0.0163529
0.0158521
0.0153477
0.0148398
0.0143284
0.0138133
0.0132946
0.0127724
0.0122463
0.0117167
0.0111832
0.0106462
0.0101051
0.00956059
0.00901186
0.00845962
0.00790325
0.00734302
0.00677911
0.00621062
0.00563904
0.00506248
0.00448258
0.00389842
0.00330976
0.00271767
0.00212089
0.00151994
0.000915091
0.000305768
-0.10406
-0.0987983
-0.1026
-0.0988405
-0.0927765
-0.094325
-0.095953
-0.0917006
-0.0793358
-0.0732283
-0.0954473
-0.155667
-0.201923
-0.207841
-0.165429
-0.0955984
-0.0317225
0.00963322
0.0302805
0.0381888
0.0400664
0.0396916
0.038726
0.0377503
0.0369124
0.0362171
0.0356313
0.0351208
0.0346597
0.0342296
0.0338183
0.033418
0.0330234
0.0326314
0.03224
0.0318478
0.0314541
0.0310584
0.0306603
0.0302597
0.0298565
0.0294505
0.0290417
0.02863
0.0282155
0.0277981
0.0273778
0.0269545
0.0265282
0.0260989
0.0256667
0.0252313
0.0247929
0.0243515
0.0239069
0.0234592
0.0230083
0.0225543
0.022097
0.0216366
0.0211729
0.020706
0.0202358
0.0197622
0.0192853
0.0188051
0.0183215
0.0178345
0.0173441
0.0168502
0.0163529
0.0158521
0.0153477
0.0148398
0.0143284
0.0138133
0.0132946
0.0127724
0.0122463
0.0117167
0.0111832
0.0106462
0.0101051
0.00956059
0.00901186
0.00845962
0.00790325
0.00734302
0.0067791
0.00621063
0.00563904
0.00506248
0.00448258
0.00389842
0.00330976
0.00271767
0.00212089
0.00151994
0.000915091
0.000305768
-0.103934
-0.0990964
-0.102472
-0.098719
-0.0930814
-0.0944487
-0.0958422
-0.0914403
-0.0792134
-0.0738221
-0.0963736
-0.154359
-0.199697
-0.205726
-0.163825
-0.0948072
-0.0315864
0.00957812
0.0302278
0.0381433
0.0400562
0.0396966
0.0387332
0.0377557
0.0369167
0.03622
0.035633
0.0351219
0.0346604
0.03423
0.0338186
0.0334181
0.0330235
0.0326315
0.03224
0.0318478
0.0314541
0.0310584
0.0306603
0.0302597
0.0298565
0.0294505
0.0290417
0.02863
0.0282155
0.0277981
0.0273778
0.0269545
0.0265282
0.0260989
0.0256667
0.0252313
0.0247929
0.0243515
0.0239069
0.0234592
0.0230083
0.0225543
0.022097
0.0216366
0.0211729
0.020706
0.0202358
0.0197622
0.0192853
0.0188051
0.0183215
0.0178345
0.0173441
0.0168502
0.0163529
0.0158521
0.0153477
0.0148398
0.0143284
0.0138133
0.0132946
0.0127724
0.0122463
0.0117167
0.0111832
0.0106462
0.0101051
0.00956059
0.00901186
0.00845962
0.00790324
0.00734302
0.0067791
0.00621063
0.00563903
0.00506248
0.00448258
0.00389841
0.00330977
0.00271767
0.00212089
0.00151994
0.000915091
0.000305767
-0.119369
-0.133152
-0.154948
-0.159071
-0.160439
-0.187035
-0.216886
-0.226549
-0.221874
-0.208113
-0.165679
-0.0918209
-0.0179834
0.0296249
0.0442353
0.0426349
0.0372173
0.0334633
0.0322163
0.0325192
0.0333537
0.0341563
0.0347167
0.035024
0.0351192
0.0350608
0.034895
0.0346571
0.0343701
0.0340502
0.033708
0.0333506
0.0329826
0.0326069
0.0322253
0.0318391
0.031449
0.0310554
0.0306586
0.0302587
0.0298559
0.0294502
0.0290415
0.02863
0.0282155
0.0277981
0.0273777
0.0269545
0.0265282
0.026099
0.0256667
0.0252313
0.0247929
0.0243514
0.0239068
0.0234591
0.0230083
0.0225543
0.0220971
0.0216366
0.0211729
0.020706
0.0202357
0.0197622
0.0192853
0.0188051
0.0183215
0.0178345
0.0173441
0.0168502
0.0163529
0.0158521
0.0153477
0.0148398
0.0143284
0.0138133
0.0132946
0.0127723
0.0122463
0.0117167
0.0111832
0.0106462
0.0101051
0.00956059
0.00901186
0.00845962
0.00790324
0.00734302
0.0067791
0.00621063
0.00563903
0.00506248
0.00448258
0.00389841
0.00330977
0.00271766
0.00212089
0.00151994
0.000915091
0.000305766
-0.120182
-0.133831
-0.155328
-0.158946
-0.159002
-0.187758
-0.219388
-0.228828
-0.222507
-0.209048
-0.167526
-0.0933613
-0.018821
0.0294334
0.0441197
0.0425611
0.0371412
0.0333977
0.0321911
0.0325194
0.0333642
0.0341683
0.0347262
0.0350308
0.0351237
0.0350637
0.0348967
0.0346581
0.0343707
0.0340505
0.0337082
0.0333508
0.0329827
0.0326069
0.0322253
0.0318391
0.031449
0.0310554
0.0306586
0.0302587
0.0298559
0.0294502
0.0290415
0.02863
0.0282155
0.0277981
0.0273777
0.0269545
0.0265282
0.026099
0.0256667
0.0252313
0.0247929
0.0243514
0.0239068
0.0234591
0.0230083
0.0225543
0.0220971
0.0216366
0.0211729
0.020706
0.0202357
0.0197622
0.0192853
0.0188051
0.0183215
0.0178345
0.0173441
0.0168502
0.0163529
0.0158521
0.0153477
0.0148398
0.0143284
0.0138133
0.0132946
0.0127723
0.0122463
0.0117167
0.0111832
0.0106462
0.0101051
0.00956059
0.00901186
0.00845962
0.00790325
0.00734302
0.0067791
0.00621063
0.00563903
0.00506249
0.00448258
0.00389842
0.00330977
0.00271766
0.00212089
0.00151994
0.000915092
0.000305768
-0.121325
-0.135199
-0.156287
-0.159194
-0.159918
-0.191805
-0.22613
-0.233603
-0.223473
-0.210816
-0.171117
-0.09633
-0.0204081
0.0289187
0.0439363
0.0423456
0.0368992
0.033229
0.0321184
0.0325067
0.0333782
0.0341893
0.0347444
0.0350448
0.0351331
0.035069
0.0349006
0.0346605
0.0343722
0.0340514
0.0337088
0.0333511
0.0329829
0.032607
0.0322254
0.0318391
0.031449
0.0310554
0.0306586
0.0302587
0.0298559
0.0294502
0.0290415
0.02863
0.0282155
0.0277981
0.0273777
0.0269545
0.0265282
0.026099
0.0256667
0.0252313
0.0247929
0.0243514
0.0239068
0.0234591
0.0230083
0.0225543
0.0220971
0.0216366
0.0211729
0.020706
0.0202357
0.0197622
0.0192853
0.0188051
0.0183215
0.0178345
0.0173441
0.0168502
0.0163529
0.0158521
0.0153477
0.0148398
0.0143284
0.0138133
0.0132946
0.0127723
0.0122463
0.0117167
0.0111832
0.0106462
0.0101051
0.0095606
0.00901186
0.00845962
0.00790325
0.00734302
0.0067791
0.00621063
0.00563903
0.00506249
0.00448258
0.00389842
0.00330976
0.00271766
0.00212089
0.00151994
0.000915092
0.000305768
-0.122576
-0.136973
-0.1575
-0.159874
-0.162683
-0.19939
-0.236192
-0.23977
-0.2246
-0.213128
-0.176056
-0.100644
-0.0226989
0.0279926
0.0435731
0.0419391
0.0364831
0.0329437
0.0319913
0.0324784
0.0333938
0.0342184
0.034779
0.0350674
0.0351482
0.0350792
0.0349069
0.0346644
0.0343745
0.0340529
0.0337096
0.0333516
0.0329832
0.0326072
0.0322255
0.0318392
0.031449
0.0310554
0.0306586
0.0302587
0.0298559
0.0294502
0.0290415
0.02863
0.0282155
0.0277981
0.0273777
0.0269545
0.0265282
0.026099
0.0256667
0.0252313
0.0247929
0.0243514
0.0239068
0.0234591
0.0230083
0.0225543
0.0220971
0.0216366
0.0211729
0.020706
0.0202357
0.0197622
0.0192853
0.0188051
0.0183215
0.0178345
0.0173441
0.0168502
0.0163529
0.0158521
0.0153477
0.0148398
0.0143284
0.0138133
0.0132946
0.0127723
0.0122463
0.0117167
0.0111832
0.0106462
0.0101051
0.0095606
0.00901185
0.00845962
0.00790325
0.00734302
0.00677911
0.00621063
0.00563904
0.00506249
0.00448257
0.00389842
0.00330976
0.00271766
0.00212089
0.00151994
0.000915092
0.000305767
-0.123606
-0.138538
-0.15834
-0.160384
-0.16736
-0.209025
-0.248173
-0.246441
-0.225756
-0.215566
-0.181735
-0.105966
-0.025507
0.0266787
0.0429786
0.0413231
0.0358924
0.0325404
0.0317979
0.0324205
0.0334019
0.034249
0.0348099
0.0350927
0.0351664
0.0350914
0.0349149
0.0346694
0.0343777
0.0340548
0.0337108
0.0333523
0.0329836
0.0326074
0.0322256
0.0318393
0.0314491
0.0310554
0.0306586
0.0302587
0.0298559
0.0294502
0.0290415
0.02863
0.0282155
0.0277981
0.0273777
0.0269545
0.0265282
0.026099
0.0256667
0.0252313
0.0247929
0.0243514
0.0239068
0.0234591
0.0230083
0.0225543
0.0220971
0.0216366
0.0211729
0.020706
0.0202357
0.0197622
0.0192853
0.0188051