/*--------------------------------*- C++ -*----------------------------------*\
| =========                 |                                                 |
| \\      /  F ield         | OpenFOAM: The Open Source CFD Toolbox           |
|  \\    /   O peration     | Version:  2.4.0                                 |
|   \\  /    A nd           | Web:      www.OpenFOAM.org                      |
|    \\/     M anipulation  |                                                 |
\*---------------------------------------------------------------------------*/
FoamFile
{
    version     2.0;
    format      ascii;
    class       volScalarField;
    location    "1.76";
    object      p;
}
// * * * * * * * * * * * * * * * * * * * * * * * * * * * * * * * * * * * * * //

dimensions      [0 2 -2 0 0 0 0];

internalField   nonuniform List<scalar> 
4400
(
-22.0649
-21.7989
-22.3081
-22.4392
-22.6434
-22.4322
-22.4788
-22.9272
-22.608
-23.0593
-23.0821
-22.7794
-23.1189
-23.4869
-23.2935
-23.0689
-24.4495
-22.3147
-23.9161
-19.2926
-22.1236
-21.8377
-22.326
-22.4487
-22.6391
-22.4256
-22.4644
-22.9323
-22.6062
-23.0937
-23.0693
-22.8167
-23.1704
-23.469
-23.3431
-23.1046
-24.4999
-22.4776
-24.0042
-19.8495
-22.2465
-21.8493
-22.2991
-22.4342
-22.5737
-22.4458
-22.4863
-22.9403
-22.6463
-23.017
-23.0902
-22.9839
-23.2108
-23.4846
-23.4885
-23.0546
-24.5823
-22.4584
-23.8222
-20.6876
-22.3279
-21.8286
-22.2717
-22.421
-22.5419
-22.473
-22.5207
-23.1038
-22.6558
-23.0615
-23.2154
-23.1347
-23.2685
-23.642
-23.7706
-23.1419
-24.5434
-22.7953
-23.7198
-21.65
-22.3678
-21.7907
-22.2725
-22.4608
-22.5275
-22.5153
-22.5749
-23.0398
-22.6685
-23.1483
-23.3439
-23.2372
-23.3214
-23.8831
-24.0411
-23.1508
-24.5218
-23.2394
-23.9634
-22.7796
-22.3688
-21.807
-22.2838
-22.4904
-22.5295
-22.5867
-22.6222
-23.0753
-22.6905
-23.1937
-23.4124
-23.2829
-23.5007
-24.0433
-24.124
-23.2681
-24.4372
-23.6414
-24.1016
-23.5822
-22.3896
-21.8272
-22.2857
-22.5122
-22.5253
-22.6695
-22.7095
-23.0606
-22.7302
-23.2029
-23.3742
-23.3405
-23.6357
-24.0734
-24.1152
-23.3587
-24.4488
-23.8287
-24.0376
-24.3488
-22.3998
-21.8524
-22.2796
-22.5198
-22.5152
-22.7375
-22.773
-23.0687
-22.7636
-23.1606
-23.3289
-23.371
-23.6484
-24.0339
-24.0538
-23.5049
-24.4157
-23.8949
-23.8964
-24.8725
-22.4132
-21.8764
-22.2487
-22.5234
-22.4978
-22.7471
-22.7986
-23.0409
-22.7712
-23.1287
-23.2638
-23.3458
-23.6192
-23.9249
-23.9976
-23.5788
-24.3017
-23.9684
-23.8225
-25.2379
-22.4209
-21.8879
-22.1999
-22.5404
-22.4676
-22.7057
-22.772
-23.0109
-22.7734
-23.0935
-23.209
-23.2824
-23.577
-23.8049
-23.92
-23.6019
-24.1463
-24.0708
-23.8347
-25.4658
-22.4238
-21.8949
-22.1518
-22.5579
-22.4239
-22.6459
-22.7431
-22.9465
-22.777
-23.0593
-23.1729
-23.219
-23.5441
-23.7014
-23.8573
-23.5844
-23.9933
-24.219
-23.8964
-25.6228
-22.4233
-21.9005
-22.1073
-22.5922
-22.3792
-22.5949
-22.7235
-22.9156
-22.7951
-23.0253
-23.1584
-23.1681
-23.527
-23.6288
-23.7894
-23.6079
-23.883
-24.3791
-24.0006
-25.7578
-22.4169
-21.9072
-22.0744
-22.6189
-22.3379
-22.5608
-22.7113
-22.8823
-22.8215
-22.9892
-23.1616
-23.1313
-23.5191
-23.5458
-23.6856
-23.6532
-23.8147
-24.503
-24.0814
-25.8984
-22.4074
-21.9097
-22.0426
-22.6501
-22.3096
-22.5394
-22.7069
-22.8481
-22.8502
-22.9516
-23.1792
-23.1071
-23.492
-23.4403
-23.5833
-23.7012
-23.7635
-24.6091
-24.1327
-26.0225
-22.3919
-21.9207
-22.0246
-22.6805
-22.2922
-22.5311
-22.7014
-22.8105
-22.884
-22.9131
-23.2096
-23.0839
-23.4486
-23.3686
-23.5285
-23.7647
-23.7493
-24.7288
-24.1863
-26.1306
-22.3733
-21.9257
-22.004
-22.7177
-22.2761
-22.52
-22.6959
-22.7674
-22.9082
-22.8807
-23.2383
-23.0637
-23.4149
-23.3506
-23.4913
-23.8199
-23.758
-24.809
-24.2184
-26.2096
-22.3479
-21.9333
-21.9944
-22.7379
-22.2484
-22.5045
-22.6891
-22.7325
-22.9377
-22.8445
-23.2714
-22.9997
-23.4005
-23.3484
-23.4536
-23.831
-23.7305
-24.8719
-24.2486
-26.214
-22.3223
-21.9305
-21.9703
-22.747
-22.1977
-22.4834
-22.6917
-22.7049
-22.9649
-22.8212
-23.2971
-22.9971
-23.4198
-23.3401
-23.4069
-23.8289
-23.705
-24.8938
-24.3022
-26.2754
-22.2932
-21.9347
-21.9457
-22.7376
-22.1615
-22.4499
-22.6976
-22.691
-22.9807
-22.8067
-23.337
-22.9948
-23.4448
-23.3376
-23.358
-23.8091
-23.7063
-24.9287
-24.2592
-26.2962
-22.2442
-21.9267
-21.9306
-22.7301
-22.1397
-22.4379
-22.6993
-22.6855
-22.9848
-22.8047
-23.3498
-23
-23.4505
-23.3094
-23.3353
-23.8074
-23.7021
-24.9425
-24.2691
-26.2989
-22.4605
-24.8725
-31.0828
-43.7701
-50.3185
-63.2931
-58.9626
-52.8276
-53.1985
-45.9668
-35.3228
-30.0531
-25.8761
-19.9682
-12.4893
-6.6636
-3.48617
-1.6846
-0.501293
0.214281
0.669132
0.958168
1.15623
1.28136
1.35236
1.39026
1.40437
1.39915
1.38917
1.39211
1.40206
1.42051
1.43755
1.44809
1.45035
1.44489
1.43367
1.41891
1.40227
1.38465
1.36652
1.34808
1.32943
1.31062
1.29166
1.27255
1.25331
1.23393
1.21442
1.19476
1.17497
1.15504
1.13497
1.11476
1.0944
1.07391
1.05327
1.03248
1.01155
0.990469
0.969241
0.947865
0.926339
0.904661
0.882831
0.860847
0.838709
0.816416
0.793966
0.771358
0.748592
0.725665
0.702577
0.679328
0.655914
0.632337
0.608593
0.584683
0.560605
0.536357
0.511941
0.487349
0.46259
0.437651
0.412542
0.387254
0.361787
0.336147
0.310317
0.284316
0.258126
0.231752
0.205199
0.17845
0.15152
0.1244
0.097085
0.0695837
0.0418873
0.0139945
-23.1029
-25.5914
-32.2161
-43.7092
-48.9569
-61.6579
-57.2481
-51.2138
-51.2627
-44.9834
-35.4939
-31.4633
-28.2166
-22.1711
-13.6229
-7.03055
-3.63335
-1.75496
-0.557507
0.179754
0.663907
0.948869
1.14723
1.27309
1.34582
1.38735
1.40443
1.40225
1.39397
1.39244
1.40272
1.42044
1.43717
1.44776
1.45022
1.4449
1.43374
1.41897
1.40231
1.38467
1.36653
1.34809
1.32944
1.31062
1.29166
1.27255
1.25331
1.23393
1.21442
1.19476
1.17497
1.15504
1.13497
1.11476
1.0944
1.07391
1.05327
1.03248
1.01155
0.990468
0.969241
0.947865
0.926338
0.904661
0.882831
0.860847
0.83871
0.816416
0.793966
0.771358
0.748591
0.725665
0.702577
0.679328
0.655914
0.632337
0.608593
0.584683
0.560605
0.536357
0.511941
0.487349
0.46259
0.437651
0.412542
0.387254
0.361787
0.336148
0.310317
0.284317
0.258125
0.231753
0.205197
0.178451
0.151518
0.124402
0.0970835
0.069585
0.0418866
0.0139947
-23.3061
-26.2397
-32.7835
-42.4968
-47.7906
-58.6999
-55.3264
-49.3433
-48.7891
-43.7034
-35.5859
-32.9054
-30.999
-24.754
-14.9876
-7.45019
-3.77861
-1.83458
-0.608891
0.146627
0.622485
0.937396
1.13876
1.26842
1.3437
1.38673
1.40578
1.40357
1.39553
1.40422
1.40849
1.4252
1.4404
1.44979
1.4515
1.44573
1.43424
1.41927
1.40247
1.38476
1.36657
1.34811
1.32945
1.31062
1.29166
1.27255
1.25331
1.23393
1.21441
1.19476
1.17497
1.15504
1.13497
1.11476
1.0944
1.07391
1.05327
1.03248
1.01155
0.990468
0.969241
0.947865
0.926338
0.904661
0.882831
0.860847
0.83871
0.816416
0.793966
0.771358
0.748591
0.725665
0.702577
0.679328
0.655914
0.632337
0.608593
0.584683
0.560605
0.536357
0.511941
0.487349
0.46259
0.437651
0.412542
0.387254
0.361787
0.336148
0.310317
0.284317
0.258125
0.231753
0.205197
0.178451
0.151518
0.124402
0.0970836
0.0695849
0.0418866
0.0139947
-23.4865
-26.9474
-32.7534
-41.1945
-46.5936
-55.4328
-53.0647
-47.3774
-46.211
-42.2413
-35.5738
-34.423
-34.0005
-27.6755
-16.5262
-7.91955
-3.91866
-1.88356
-0.633268
0.138832
0.632255
0.933474
1.1322
1.25995
1.33787
1.38475
1.40641
1.40709
1.40006
1.39495
1.40645
1.42251
1.43817
1.44846
1.45091
1.44555
1.43422
1.41928
1.40249
1.38477
1.36658
1.34811
1.32945
1.31063
1.29166
1.27255
1.25331
1.23393
1.21441
1.19476
1.17497
1.15504
1.13497
1.11476
1.0944
1.07391
1.05327
1.03248
1.01155
0.990468
0.969241
0.947865
0.926338
0.904661
0.882831
0.860847
0.83871
0.816416
0.793966
0.771358
0.748591
0.725665
0.702577
0.679328
0.655914
0.632337
0.608593
0.584683
0.560605
0.536357
0.511941
0.487349
0.46259
0.437651
0.412542
0.387254
0.361787
0.336148
0.310317
0.284317
0.258125
0.231753
0.205198
0.178451
0.151519
0.124402
0.0970837
0.0695848
0.0418867
0.0139947
-23.7297
-27.4468
-32.6839
-40.0183
-45.3313
-52.1764
-50.7568
-45.3395
-43.5021
-40.6209
-35.4916
-36.3229
-37.3157
-30.8631
-18.2552
-8.42974
-4.03017
-1.91992
-0.660297
0.11206
0.621416
0.926595
1.12621
1.26316
1.33953
1.38589
1.40919
1.41029
1.403
1.40001
1.41435
1.43041
1.44406
1.45224
1.45323
1.44695
1.43503
1.41972
1.40272
1.38488
1.36664
1.34814
1.32946
1.31063
1.29166
1.27255
1.25331
1.23393
1.21441
1.19476
1.17497
1.15504
1.13497
1.11476
1.0944
1.07391
1.05327
1.03248
1.01155
0.990468
0.969241
0.947865
0.926338
0.904661
0.882831
0.860847
0.83871
0.816416
0.793966
0.771358
0.748591
0.725665
0.702577
0.679328
0.655914
0.632337
0.608593
0.584683
0.560605
0.536357
0.511941
0.487349
0.46259
0.437651
0.412542
0.387254
0.361787
0.336148
0.310317
0.284317
0.258125
0.231753
0.205198
0.178451
0.151519
0.124402
0.0970838
0.0695847
0.0418868
0.0139947
-24.0433
-27.7784
-32.7027
-38.9826
-44.0068
-49.4428
-48.5629
-43.2305
-41.1385
-39.0473
-35.5249
-38.5657
-41.1711
-34.3521
-20.15
-9.01814
-4.14156
-1.93921
-0.670227
0.150742
0.633891
0.930334
1.12403
1.25157
1.33231
1.38427
1.41074
1.41366
1.40751
1.40404
1.41139
1.42532
1.43955
1.44961
1.4521
1.44661
1.43498
1.41973
1.40274
1.3849
1.36665
1.34814
1.32946
1.31063
1.29166
1.27255
1.25331
1.23393
1.21441
1.19476
1.17497
1.15504
1.13497
1.11476
1.0944
1.07391
1.05327
1.03248
1.01155
0.990468
0.969241
0.947865
0.926338
0.904661
0.882831
0.860847
0.83871
0.816416
0.793966
0.771358
0.748591
0.725665
0.702577
0.679328
0.655914
0.632337
0.608593
0.584683
0.560605
0.536357
0.511941
0.487349
0.46259
0.437651
0.412542
0.387254
0.361787
0.336148
0.310317
0.284317
0.258125
0.231752
0.205198
0.178451
0.151519
0.124402
0.0970839
0.0695846
0.0418868
0.0139947
-24.4408
-27.9593
-32.7284
-37.9974
-42.7172
-47.1366
-46.3937
-41.2904
-39.1792
-37.4862
-35.7608
-41.1506
-45.4178
-38.4817
-22.1079
-9.61818
-4.20112
-1.9083
-0.648914
0.16356
0.646604
0.929524
1.12118
1.25865
1.33744
1.38672
1.41463
1.41871
1.41294
1.41086
1.4223
1.43673
1.4481
1.45479
1.45507
1.44832
1.43593
1.42022
1.40299
1.38502
1.3667
1.34817
1.32947
1.31064
1.29166
1.27255
1.25331
1.23393
1.21441
1.19476
1.17497
1.15504
1.13497
1.11476
1.0944
1.07391
1.05327
1.03248
1.01155
0.990468
0.969241
0.947865
0.926338
0.904661
0.882831
0.860847
0.83871
0.816416
0.793966
0.771358
0.748591
0.725665
0.702577
0.679328
0.655914
0.632337
0.608593
0.584683
0.560605
0.536357
0.511941
0.487349
0.46259
0.437651
0.412542
0.387254
0.361787
0.336148
0.310317
0.284317
0.258126
0.231752
0.205198
0.178451
0.151518
0.124402
0.0970839
0.0695844
0.0418869
0.0139948
-24.8484
-28.1036
-32.7479
-37.2186
-41.4005
-45.2464
-44.3984
-39.4708
-37.373
-35.8934
-36.0193
-43.9962
-49.8279
-42.2444
-24.111
-10.2292
-4.18883
-1.82789
-0.613153
0.181036
0.668416
0.952004
1.12293
1.24976
1.33029
1.38644
1.41786
1.42264
1.41855
1.4178
1.42373
1.43337
1.44343
1.45168
1.45372
1.44799
1.43595
1.42031
1.40306
1.38506
1.36673
1.34818
1.32948
1.31064
1.29166
1.27255
1.25331
1.23393
1.21441
1.19476
1.17497
1.15504
1.13497
1.11476
1.0944
1.07391
1.05327
1.03248
1.01155
0.990468
0.969241
0.947865
0.926338
0.904661
0.882831
0.860847
0.83871
0.816416
0.793966
0.771358
0.748591
0.725665
0.702577
0.679328
0.655914
0.632337
0.608593
0.584683
0.560605
0.536357
0.511941
0.487349
0.46259
0.437651
0.412542
0.387254
0.361786
0.336148
0.310317
0.284317
0.258126
0.231752
0.205198
0.178451
0.151518
0.124402
0.097084
0.0695843
0.041887
0.0139948
-25.2804
-28.2524
-32.7546
-36.5797
-40.0992
-43.5907
-42.5573
-37.8479
-35.4971
-34.0509
-36.2086
-46.9921
-54.2953
-45.6536
-25.9201
-10.7855
-4.14488
-1.74008
-0.571306
0.208071
0.69654
0.958562
1.12678
1.26083
1.33532
1.38981
1.42127
1.42475
1.41981
1.42148
1.42977
1.44133
1.44977
1.45586
1.45634
1.44958
1.43681
1.42071
1.40324
1.38514
1.36676
1.3482
1.32949
1.31064
1.29166
1.27255
1.25331
1.23393
1.21441
1.19476
1.17497
1.15504
1.13497
1.11476
1.0944
1.07391
1.05327
1.03248
1.01155
0.990468
0.969241
0.947865
0.926338
0.904661
0.882831
0.860847
0.83871
0.816416
0.793966
0.771358
0.748591
0.725665
0.702577
0.679328
0.655914
0.632337
0.608593
0.584683
0.560605
0.536357
0.511941
0.487349
0.46259
0.437651
0.412542
0.387254
0.361786
0.336148
0.310317
0.284317
0.258126
0.231752
0.205198
0.178451
0.151518
0.124402
0.0970841
0.0695842
0.0418871
0.0139948
-25.7017
-28.4061
-32.7084
-36.1072
-38.9105
-42.0762
-40.8775
-36.2315
-33.5811
-32.0076
-36.181
-50.1265
-58.5834
-48.804
-27.5475
-11.2911
-4.03195
-1.58581
-0.501295
0.239383
0.727433
0.983527
1.13278
1.25065
1.32974
1.38971
1.42797
1.43257
1.42786
1.43159
1.43422
1.44002
1.44653
1.45383
1.45584
1.44989
1.43727
1.4211
1.40349
1.38527
1.36682
1.34823
1.3295
1.31064
1.29166
1.27255
1.25331
1.23393
1.21441
1.19476
1.17497
1.15504
1.13497
1.11476
1.0944
1.07391
1.05327
1.03248
1.01155
0.990468
0.969241
0.947865
0.926338
0.904661
0.882831
0.860847
0.83871
0.816416
0.793966
0.771358
0.748591
0.725665
0.702577
0.679328
0.655914
0.632337
0.608593
0.584683
0.560605
0.536357
0.511941
0.487349
0.46259
0.437651
0.412542
0.387254
0.361786
0.336148
0.310317
0.284317
0.258126
0.231752
0.205198
0.178451
0.151518
0.124402
0.0970842
0.069584
0.0418872
0.0139949
-26.0796
-28.5289
-32.6236
-35.7728
-37.8742
-40.689
-39.3146
-34.5935
-31.5671
-29.8273
-35.8166
-53.1541
-62.5137
-51.4539
-28.9915
-11.6994
-3.82525
-1.41659
-0.419859
0.302424
0.772118
1.00024
1.13795
1.25797
1.33435
1.39266
1.42699
1.42922
1.42513
1.42549
1.43877
1.44666
1.45039
1.45573
1.45712
1.4506
1.43746
1.42104
1.40341
1.38523
1.36681
1.34823
1.3295
1.31065
1.29166
1.27255
1.25331
1.23393
1.21441
1.19476
1.17497
1.15504
1.13497
1.11476
1.0944
1.07391
1.05327
1.03248
1.01155
0.990468
0.969241
0.947865
0.926338
0.904661
0.882831
0.860847
0.83871
0.816416
0.793966
0.771358
0.748591
0.725665
0.702577
0.679328
0.655914
0.632337
0.608593
0.584683
0.560605
0.536357
0.511941
0.487349
0.46259
0.437651
0.412542
0.387254
0.361786
0.336148
0.310317
0.284317
0.258126
0.231752
0.205198
0.178451
0.151518
0.124402
0.0970842
0.0695839
0.0418873
0.0139949
-26.4211
-28.6005
-32.5183
-35.4275
-37.0001
-39.3842
-37.8161
-32.9851
-29.3409
-27.4718
-34.9254
-55.7282
-65.8842
-53.4771
-29.9752
-11.9558
-3.57591
-1.22674
-0.332485
0.348211
0.814568
1.03008
1.15161
1.25994
1.3378
1.3978
1.43776
1.44486
1.44083
1.43982
1.44413
1.44571
1.44836
1.45538
1.45814
1.45231
1.43896
1.42207
1.404
1.38549
1.36693
1.34827
1.32952
1.31065
1.29166
1.27255
1.25331
1.23393
1.21441
1.19476
1.17497
1.15504
1.13497
1.11476
1.0944
1.07391
1.05327
1.03248
1.01155
0.990468
0.969241
0.947865
0.926338
0.904661
0.882831
0.860847
0.83871
0.816416
0.793966
0.771358
0.748591
0.725665
0.702577
0.679328
0.655914
0.632337
0.608593
0.584683
0.560605
0.536357
0.511941
0.487349
0.46259
0.437651
0.412542
0.387254
0.361786
0.336148
0.310317
0.284316
0.258126
0.231752
0.205198
0.178451
0.151518
0.124402
0.0970843
0.0695838
0.0418874
0.013995
-26.7203
-28.5844
-32.4355
-35.1119
-36.2215
-38.1881
-36.4075
-31.3878
-26.9926
-24.9123
-33.3141
-57.4773
-68.2533
-54.7767
-30.5656
-12.0498
-3.24129
-1.01058
-0.243123
0.416413
0.874752
1.06835
1.16914
1.26744
1.34213
1.40341
1.44389
1.44922
1.44278
1.44348
1.44871
1.45044
1.4514
1.45507
1.45731
1.4512
1.43791
1.42124
1.40351
1.38527
1.36685
1.34825
1.32951
1.31065
1.29166
1.27255
1.25331
1.23393
1.21441
1.19476
1.17497
1.15504
1.13497
1.11476
1.0944
1.07391
1.05327
1.03248
1.01155
0.990469
0.969241
0.947865
0.926338
0.904661
0.882831
0.860847
0.83871
0.816416
0.793966
0.771358
0.748591
0.725665
0.702577
0.679328
0.655914
0.632337
0.608593
0.584683
0.560605
0.536357
0.511941
0.487349
0.46259
0.437651
0.412542
0.387255
0.361786
0.336148
0.310317
0.284316
0.258126
0.231752
0.205199
0.178451
0.151518
0.124402
0.0970843
0.0695836
0.0418875
0.013995
-26.985
-28.5003
-32.3445
-34.8572
-35.5759
-37.0297
-35.1201
-29.8531
-24.6852
-22.1936
-31.0824
-58.2282
-69.7334
-55.3793
-30.7916
-11.9551
-2.8109
-0.76908
-0.136999
0.482172
0.927134
1.10866
1.187
1.26496
1.34378
1.40795
1.45056
1.45914
1.45299
1.44997
1.45164
1.44838
1.44731
1.45458
1.45994
1.45497
1.44088
1.42304
1.40454
1.38573
1.36703
1.34831
1.32953
1.31066
1.29167
1.27255
1.25331
1.23393
1.21441
1.19476
1.17497
1.15504
1.13497
1.11476
1.0944
1.07391
1.05327
1.03248
1.01155
0.990469
0.969241
0.947865
0.926338
0.904661
0.882831
0.860847
0.83871
0.816416
0.793966
0.771358
0.748591
0.725665
0.702577
0.679328
0.655914
0.632337
0.608593
0.584683
0.560605
0.536357
0.511941
0.487349
0.46259
0.437651
0.412542
0.387255
0.361786
0.336148
0.310317
0.284316
0.258126
0.231751
0.205199
0.178451
0.151518
0.124402
0.0970843
0.0695835
0.0418877
0.013995
-27.1984
-28.421
-32.2521
-34.6418
-35.0592
-35.9905
-33.9556
-28.3598
-22.4776
-19.3659
-28.4095
-58.0397
-70.0617
-55.3167
-30.6404
-11.736
-2.38772
-0.571843
-0.0428979
0.5574
0.980423
1.13212
1.19892
1.27756
1.34969
1.41318
1.45465
1.46216
1.45465
1.45233
1.45747
1.45562
1.45447
1.45495
1.45652
1.45078
1.43783
1.42137
1.40352
1.38528
1.36688
1.34827
1.32952
1.31065
1.29166
1.27255
1.2533
1.23393
1.21441
1.19476
1.17497
1.15504
1.13497
1.11476
1.0944
1.07391
1.05327
1.03248
1.01155
0.990469
0.969241
0.947865
0.926338
0.904661
0.882831
0.860847
0.83871
0.816416
0.793966
0.771358
0.748591
0.725665
0.702577
0.679328
0.655914
0.632337
0.608593
0.584683
0.560605
0.536357
0.511941
0.487349
0.46259
0.437651
0.412542
0.387255
0.361786
0.336148
0.310317
0.284316
0.258126
0.231751
0.205199
0.178451
0.151518
0.124402
0.0970843
0.0695833
0.0418878
0.0139951
-27.4005
-28.3628
-32.1325
-34.4672
-34.6382
-35.112
-32.9437
-26.8538
-20.367
-16.5474
-25.5928
-57.0899
-69.4082
-54.6893
-30.2218
-11.3896
-2.02038
-0.413585
0.0426294
0.635854
1.04178
1.17311
1.21621
1.27394
1.34941
1.41821
1.46529
1.47285
1.46151
1.45594
1.45477
1.45294
1.45372
1.45736
1.46077
1.45506
1.44107
1.42342
1.40468
1.38593
1.36712
1.34835
1.32955
1.31066
1.29167
1.27255
1.2533
1.23392
1.21441
1.19476
1.17497
1.15504
1.13497
1.11476
1.0944
1.07391
1.05327
1.03248
1.01155
0.990469
0.969241
0.947865
0.926338
0.904661
0.882831
0.860847
0.83871
0.816416
0.793966
0.771358
0.748591
0.725665
0.702577
0.679328
0.655914
0.632337
0.608593
0.584683
0.560605
0.536357
0.511941
0.487349
0.46259
0.437651
0.412542
0.387255
0.361786
0.336148
0.310317
0.284316
0.258127
0.231751
0.205199
0.178451
0.151518
0.124403
0.0970843
0.0695832
0.0418879
0.0139951
-27.6017
-28.346
-31.9932
-34.3093
-34.2881
-34.4085
-32.1071
-25.3357
-18.3673
-14.094
-22.9504
-55.6607
-68.2422
-53.529
-29.68
-11.0043
-1.71703
-0.304059
0.114343
0.718409
1.09653
1.20357
1.23369
1.29196
1.36106
1.42698
1.47145
1.47918
1.46867
1.46383
1.46378
1.45957
1.45579
1.45626
1.45705
1.45104
1.43805
1.42147
1.40358
1.38541
1.36685
1.34828
1.32952
1.31065
1.29166
1.27255
1.2533
1.23392
1.21441
1.19476
1.17497
1.15504
1.13497
1.11476
1.0944
1.07391
1.05327
1.03248
1.01155
0.990469
0.969241
0.947865
0.926338
0.904661
0.882831
0.860847
0.83871
0.816416
0.793966
0.771358
0.748591
0.725665
0.702577
0.679328
0.655914
0.632337
0.608593
0.584683
0.560605
0.536357
0.511941
0.487349
0.46259
0.437651
0.412542
0.387255
0.361786
0.336148
0.310317
0.284316
0.258127
0.231751
0.205199
0.178451
0.151518
0.124403
0.0970842
0.0695831
0.0418882
0.0139952
-27.777
-28.3281
-31.8685
-34.2076
-33.9585
-33.9026
-31.3702
-23.9325
-16.5228
-12.4081
-20.8609
-54.0118
-66.7631
-52.2228
-29.0111
-10.7101
-1.52755
-0.251617
0.164168
0.785107
1.13885
1.2304
1.24415
1.28875
1.36327
1.4329
1.47814
1.48538
1.47224
1.46213
1.45869
1.45778
1.45685
1.45994
1.46181
1.45544
1.4414
1.42373
1.40495
1.38609
1.36725
1.34839
1.32956
1.31066
1.29167
1.27255
1.2533
1.23392
1.21441
1.19476
1.17497
1.15504
1.13497
1.11476
1.0944
1.07391
1.05327
1.03248
1.01155
0.990469
0.969241
0.947865
0.926338
0.904661
0.882831
0.860847
0.83871
0.816416
0.793966
0.771358
0.748591
0.725665
0.702577
0.679328
0.655914
0.632337
0.608593
0.584683
0.560605
0.536357
0.511941
0.487349
0.46259
0.437651
0.412542
0.387255
0.361786
0.336148
0.310317
0.284317
0.258127
0.231751
0.205199
0.178451
0.151517
0.124403
0.0970841
0.069583
0.0418882
0.0139952
-27.9514
-28.327
-31.738
-34.1362
-33.713
-33.5577
-30.78
-22.7147
-15.0336
-11.5723
-19.7637
-52.6746
-65.161
-50.9013
-28.585
-10.5197
-1.42683
-0.242957
0.197335
0.830803
1.1575
1.24237
1.25629
1.30313
1.37414
1.44061
1.48313
1.48923
1.47702
1.46949
1.46668
1.46083
1.45778
1.45808
1.45826
1.45181
1.43854
1.42176
1.40374
1.38544
1.36691
1.34826
1.32952
1.31065
1.29166
1.27255
1.2533
1.23392
1.21441
1.19476
1.17497
1.15504
1.13497
1.11476
1.0944
1.07391
1.05327
1.03248
1.01155
0.990469
0.969241
0.947865
0.926338
0.904661
0.882831
0.860847
0.83871
0.816416
0.793966
0.771358
0.748591
0.725665
0.702577
0.679328
0.655914
0.632337
0.608593
0.584683
0.560605
0.536357
0.511941
0.487349
0.46259
0.437651
0.412542
0.387255
0.361786
0.336148
0.310316
0.284317
0.258127
0.23175
0.2052
0.178451
0.151517
0.124403
0.0970841
0.0695829
0.0418885
0.0139952
-27.9793
-28.3199
-31.6823
-34.0887
-33.5877
-33.3832
-30.3288
-22.0998
-14.409
-11.4734
-19.4187
-51.6786
-64.2577
-50.2625
-28.3944
-10.4628
-1.42512
-0.249924
0.213216
0.849403
1.16287
1.24774
1.2588
1.30219
1.37393
1.4415
1.48434
1.49045
1.47716
1.46712
1.46328
1.4605
1.45884
1.46082
1.46178
1.45516
1.44118
1.42358
1.40486
1.38605
1.36722
1.34839
1.32956
1.31066
1.29167
1.27255
1.2533
1.23392
1.21441
1.19476
1.17497
1.15504
1.13497
1.11476
1.0944
1.07391
1.05327
1.03248
1.01155
0.990469
0.969241
0.947865
0.926338
0.904661
0.882831
0.860847
0.83871
0.816416
0.793966
0.771358
0.748591
0.725665
0.702577
0.679328
0.655914
0.632337
0.608593
0.584683
0.560605
0.536357
0.511941
0.487349
0.46259
0.437651
0.412542
0.387255
0.361786
0.336148
0.310316
0.284317
0.258127
0.23175
0.2052
0.178451
0.151517
0.124403
0.097084
0.0695828
0.0418884
0.0139953
-20.6768
-22.8166
-29.211
-43.1066
-56.0134
-63.718
-63.2786
-61.8843
-54.8068
-40.0062
-25.2332
-16.8206
-7.6552
-4.29794
-2.60162
-0.560379
0.00889442
0.703583
1.05068
1.24859
1.3869
1.48308
1.52618
1.52157
1.49006
1.45221
1.41945
1.39714
1.38787
1.39276
1.40909
1.4296
1.4464
1.45494
1.45459
1.44707
1.4347
1.41943
1.40256
1.38484
1.36665
1.34817
1.3295
1.31067
1.29169
1.27258
1.25333
1.23394
1.21442
1.19477
1.17497
1.15504
1.13497
1.11476
1.0944
1.07391
1.05327
1.03248
1.01155
0.990469
0.969241
0.947865
0.926339
0.904661
0.882831
0.860847
0.838709
0.816416
0.793966
0.771358
0.748592
0.725665
0.702577
0.679328
0.655914
0.632337
0.608593
0.584683
0.560605
0.536357
0.511941
0.487349
0.46259
0.437651
0.412542
0.387254
0.361786
0.336148
0.310317
0.284316
0.258128
0.231749
0.205201
0.178449
0.151519
0.124401
0.0970856
0.0695814
0.0418893
0.013995
-20.7997
-22.6307
-29.4654
-43.567
-56.4371
-64.0548
-63.5376
-62.0299
-55.1423
-40.3297
-25.3619
-16.8594
-7.74813
-4.31795
-2.67087
-0.601587
-0.014073
0.684652
1.03831
1.24
1.382
1.48084
1.52526
1.52107
1.48988
1.45228
1.41956
1.39716
1.38786
1.39273
1.40904
1.42953
1.44633
1.45487
1.45453
1.44704
1.43469
1.41943
1.40256
1.38484
1.36665
1.34818
1.3295
1.31067
1.29169
1.27258
1.25333
1.23394
1.21442
1.19477
1.17497
1.15504
1.13497
1.11476
1.0944
1.07391
1.05327
1.03248
1.01155
0.990469
0.969241
0.947865
0.926339
0.904661
0.882831
0.860847
0.838709
0.816416
0.793966
0.771358
0.748592
0.725665
0.702577
0.679328
0.655914
0.632337
0.608593
0.584683
0.560605
0.536357
0.511941
0.487349
0.46259
0.437651
0.412542
0.387254
0.361786
0.336148
0.310317
0.284316
0.258128
0.231749
0.205201
0.178449
0.151519
0.124401
0.0970857
0.0695815
0.0418893
0.013995
-20.6505
-23.1046
-30.4565
-44.5527
-57.014
-64.733
-63.86
-62.3668
-55.6882
-40.816
-25.6304
-16.9535
-7.90872
-4.37934
-2.79859
-0.682994
-0.0593267
0.646422
1.01016
1.21875
1.36856
1.47386
1.52221
1.51967
1.48886
1.45102
1.41834
1.39647
1.38745
1.39271
1.40928
1.42986
1.44663
1.45507
1.45463
1.44705
1.43466
1.41939
1.40253
1.38482
1.36664
1.34817
1.3295
1.31066
1.29169
1.27258
1.25333
1.23394
1.21442
1.19477
1.17497
1.15504
1.13497
1.11476
1.0944
1.07391
1.05327
1.03248
1.01155
0.990469
0.969241
0.947865
0.926339
0.904661
0.882831
0.860847
0.838709
0.816416
0.793966
0.771358
0.748592
0.725665
0.702577
0.679328
0.655914
0.632337
0.608593
0.584683
0.560605
0.536357
0.511941
0.487349
0.46259
0.437651
0.412542
0.387254
0.361786
0.336148
0.310317
0.284316
0.258128
0.231749
0.205201
0.178449
0.151519
0.124401
0.0970858
0.0695815
0.0418891
0.0139949
-20.8188
-22.7788
-31.1981
-45.6623
-57.7437
-65.5799
-64.4019
-62.6364
-56.2506
-41.3289
-26.0842
-17.1105
-8.14686
-4.48333
-2.9619
-0.817824
-0.124133
0.591285
0.968299
1.18565
1.34594
1.46147
1.5168
1.51763
1.48797
1.45071
1.41781
1.39569
1.38656
1.39172
1.40838
1.42916
1.4461
1.45466
1.45431
1.44681
1.43448
1.41926
1.40245
1.38477
1.3666
1.34815
1.32948
1.31066
1.29169
1.27257
1.25332
1.23394
1.21442
1.19477
1.17497
1.15504
1.13497
1.11476
1.0944
1.07391
1.05327
1.03248
1.01155
0.990469
0.969241
0.947865
0.926339
0.904661
0.882831
0.860847
0.838709
0.816416
0.793966
0.771358
0.748592
0.725665
0.702577
0.679328
0.655914
0.632337
0.608593
0.584683
0.560605
0.536357
0.511941
0.487349
0.46259
0.437651
0.412542
0.387254
0.361787
0.336148
0.310317
0.284315
0.258128
0.231749
0.205201
0.178449
0.151519
0.124401
0.0970859
0.0695816
0.0418891
0.0139949
-20.9644
-23.3192
-32.0658
-46.9723
-58.4398
-66.6211
-64.9158
-63.0063
-56.9921
-41.9431
-26.6103
-17.3282
-8.44316
-4.63441
-3.16948
-1.00232
-0.204929
0.52178
0.914578
1.14278
1.31466
1.44223
1.50706
1.51327
1.48593
1.44905
1.41659
1.3944
1.385
1.39006
1.40689
1.42803
1.44536
1.45421
1.45404
1.44664
1.43437
1.41918
1.40239
1.38473
1.36658
1.34813
1.32948
1.31065
1.29168
1.27257
1.25332
1.23394
1.21442
1.19477
1.17497
1.15504
1.13497
1.11476
1.0944
1.07391
1.05327
1.03248
1.01155
0.990469
0.969241
0.947865
0.926339
0.904661
0.882831
0.860847
0.838709
0.816416
0.793966
0.771358
0.748592
0.725665
0.702577
0.679328
0.655914
0.632337
0.608593
0.584683
0.560605
0.536357
0.511941
0.487349
0.46259
0.437651
0.412542
0.387254
0.361787
0.336147
0.310317
0.284315
0.258128
0.231749
0.205201
0.178449
0.15152
0.1244
0.097086
0.0695817
0.0418889
0.0139948
-21.3077
-23.9644
-32.9423
-48.057
-59.1266
-67.7232
-65.4601
-63.4571
-57.8921
-42.6136
-27.1557
-17.5788
-8.79312
-4.85581
-3.42968
-1.24231
-0.305868
0.440316
0.851749
1.09281
1.27671
1.41692
1.49299
1.50643
1.48276
1.44792
1.41655
1.39383
1.38384
1.3884
1.40518
1.42662
1.44434
1.45354
1.45361
1.44636
1.43419
1.41907
1.40231
1.38468
1.36655
1.34811
1.32947
1.31065
1.29168
1.27257
1.25332
1.23394
1.21442
1.19477
1.17497
1.15504
1.13497
1.11476
1.0944
1.07391
1.05327
1.03248
1.01155
0.990469
0.969241
0.947865
0.926339
0.904661
0.882831
0.860847
0.838709
0.816416
0.793966
0.771358
0.748592
0.725665
0.702577
0.679328
0.655914
0.632337
0.608593
0.584683
0.560605
0.536357
0.511941
0.487349
0.46259
0.437651
0.412542
0.387254
0.361787
0.336147
0.310318
0.284315
0.258128
0.23175
0.205201
0.178449
0.15152
0.1244
0.0970861
0.0695818
0.0418888
0.0139948
-21.6683
-24.3324
-33.9506
-49.0497
-59.8218
-68.8813
-65.9885
-63.6553
-58.716
-43.409
-27.7461
-17.8487
-9.20532
-5.18782
-3.73684
-1.53624
-0.435354
0.344628
0.779679
1.03765
1.23441
1.38686
1.47462
1.49669
1.47805
1.4462
1.41638
1.39376
1.38303
1.38678
1.40326
1.42492
1.44309
1.45272
1.45311
1.44607
1.43402
1.41897
1.40225
1.38464
1.36653
1.3481
1.32946
1.31064
1.29168
1.27257
1.25332
1.23394
1.21442
1.19477
1.17497
1.15504
1.13497
1.11476
1.0944
1.07391
1.05327
1.03248
1.01155
0.990469
0.969241
0.947865
0.926339
0.904661
0.882831
0.860847
0.838709
0.816416
0.793966
0.771358
0.748592
0.725665
0.702577
0.679328
0.655914
0.632337
0.608593
0.584683
0.560605
0.536357
0.511941
0.487349
0.46259
0.437651
0.412542
0.387254
0.361787
0.336147
0.310318
0.284315
0.258128
0.23175
0.2052
0.178449
0.15152
0.1244
0.0970861
0.0695819
0.0418887
0.0139947
-22.0084
-24.9875
-34.7101
-50.0454
-60.3386
-70.2037
-66.5956
-63.6753
-59.4697
-44.3134
-28.4084
-18.1976
-9.66915
-5.57853
-4.05436
-1.87271
-0.59586
0.235582
0.699052
0.977768
1.18914
1.35359
1.45281
1.48426
1.47179
1.44387
1.41632
1.39446
1.38281
1.38554
1.4015
1.42324
1.44181
1.45186
1.45259
1.44577
1.43384
1.41887
1.40219
1.38461
1.3665
1.34809
1.32945
1.31064
1.29167
1.27257
1.25332
1.23394
1.21442
1.19477
1.17497
1.15504
1.13497
1.11476
1.0944
1.07391
1.05327
1.03248
1.01155
0.990469
0.969241
0.947865
0.926339
0.904661
0.882831
0.860847
0.838709
0.816416
0.793966
0.771358
0.748592
0.725665
0.702577
0.679328
0.655914
0.632337
0.608593
0.584683
0.560605
0.536357
0.511941
0.487349
0.46259
0.437651
0.412542
0.387254
0.361787
0.336147
0.310318
0.284315
0.258127
0.23175
0.2052
0.178449
0.15152
0.1244
0.0970862
0.069582
0.0418886
0.0139947
-22.3849
-25.5853
-35.3152
-50.7144
-60.9473
-71.5329
-67.1534
-63.5912
-60.1722
-45.2716
-29.1178
-18.6161
-10.2084
-6.00488
-4.40152
-2.24585
-0.786233
0.114212
0.611345
0.914191
1.1419
1.31827
1.42845
1.46949
1.46405
1.44086
1.41615
1.39521
1.38296
1.38461
1.39991
1.42161
1.4405
1.45097
1.45204
1.44545
1.43367
1.41877
1.40214
1.38457
1.36648
1.34807
1.32944
1.31063
1.29167
1.27256
1.25332
1.23394
1.21442
1.19477
1.17497
1.15504
1.13497
1.11476
1.0944
1.07391
1.05327
1.03248
1.01155
0.990469
0.969241
0.947865
0.926339
0.904661
0.882831
0.860847
0.838709
0.816416
0.793966
0.771358
0.748592
0.725665
0.702577
0.679328
0.655914
0.632337
0.608593
0.584683
0.560605
0.536357
0.511941
0.487349
0.46259
0.437651
0.412542
0.387254
0.361787
0.336147
0.310318
0.284315
0.258127
0.23175
0.2052
0.178449
0.15152
0.1244
0.0970862
0.0695821
0.0418885
0.0139946
-22.7272
-26.0847
-35.7807
-51.2835
-61.3555
-72.6374
-67.6603
-63.4321
-60.8501
-46.1227
-29.9625
-19.1736
-10.8494
-6.54286
-4.79271
-2.64196
-1.00842
-0.0211897
0.517292
0.847662
1.09327
1.2817
1.40243
1.45298
1.45509
1.4372
1.4157
1.39589
1.38322
1.38383
1.39846
1.42009
1.43927
1.45012
1.45151
1.44515
1.43351
1.41868
1.40209
1.38455
1.36647
1.34806
1.32944
1.31063
1.29167
1.27256
1.25332
1.23394
1.21442
1.19477
1.17497
1.15504
1.13497
1.11476
1.0944
1.07391
1.05327
1.03248
1.01155
0.990469
0.969241
0.947865
0.926339
0.904661
0.882831
0.860847
0.838709
0.816416
0.793966
0.771358
0.748592
0.725665
0.702577
0.679328
0.655914
0.632337
0.608593
0.584683
0.560605
0.536357
0.511941