/*--------------------------------*- C++ -*----------------------------------*\
| =========                 |                                                 |
| \\      /  F ield         | OpenFOAM: The Open Source CFD Toolbox           |
|  \\    /   O peration     | Version:  2.4.0                                 |
|   \\  /    A nd           | Web:      www.OpenFOAM.org                      |
|    \\/     M anipulation  |                                                 |
\*---------------------------------------------------------------------------*/
FoamFile
{
    version     2.0;
    format      ascii;
    class       volScalarField;
    location    "0.46";
    object      k_0;
}
// * * * * * * * * * * * * * * * * * * * * * * * * * * * * * * * * * * * * * //

dimensions      [0 2 -2 0 0 0 0];

internalField   nonuniform List<scalar> 
8800
(
8.12017
10.2659
8.79338
6.82035
5.71169
4.96268
4.53766
4.13626
3.9193
3.66097
3.55123
3.36214
3.29594
3.1586
3.10165
2.97889
2.9132
2.80744
2.728
2.54833
1.40408
4.35197
5.31927
5.28723
5.13327
4.8009
4.58531
4.28122
4.12252
3.87926
3.77696
3.58476
3.51781
3.37834
3.32802
3.21231
3.17203
3.08073
3.00407
2.96227
0.0843794
0.731495
1.56457
1.93695
2.28336
2.43398
2.57512
2.60012
2.62701
2.59974
2.5865
2.54232
2.52521
2.47052
2.4593
2.41432
2.40622
2.36742
2.35131
2.31141
0.00335043
0.0699159
0.261023
0.413268
0.588171
0.704842
0.83274
0.926443
1.03236
1.09362
1.15894
1.20882
1.26866
1.29154
1.33991
1.36607
1.40532
1.42479
1.46732
1.47032
0.000122755
0.00495226
0.0250563
0.0506619
0.0838872
0.129907
0.158315
0.205691
0.243148
0.290981
0.313611
0.359761
0.384844
0.429665
0.452688
0.502345
0.524312
0.574476
0.601298
0.66143
2.48984e-05
0.000309037
0.00156975
0.00428335
0.00682171
0.0130857
0.0172754
0.0267667
0.0326519
0.0452249
0.0512225
0.064696
0.0711078
0.0852526
0.0929361
0.111623
0.119609
0.138891
0.149025
0.176508
2.16869e-05
4.32387e-05
0.000122528
0.000328029
0.000483469
0.000878939
0.00119143
0.00204108
0.00262037
0.00395162
0.00468837
0.0064372
0.00732711
0.00934874
0.0106709
0.0140161
0.015538
0.0191624
0.0213527
0.02671
2.12248e-05
3.18071e-05
4.61241e-05
7.97677e-05
9.16573e-05
0.000117979
0.000132782
0.000177152
0.000207357
0.000285778
0.00033668
0.00046099
0.000505851
0.000604625
0.000704342
0.00100893
0.00116187
0.00150489
0.00167405
0.00183197
2.08005e-05
2.76658e-05
4.0869e-05
6.10204e-05
6.3514e-05
6.77471e-05
7.35145e-05
8.17286e-05
8.38514e-05
8.79862e-05
9.08361e-05
9.34472e-05
9.30711e-05
9.44425e-05
0.000103241
0.000134022
0.000142107
0.000146878
0.000144138
0.000145191
2.05618e-05
2.90765e-05
3.87338e-05
5.21377e-05
6.25633e-05
6.44804e-05
6.44671e-05
6.65636e-05
7.2037e-05
7.47043e-05
7.45911e-05
7.43558e-05
7.45626e-05
7.52715e-05
7.81604e-05
8.15878e-05
8.28542e-05
8.31933e-05
8.31454e-05
8.6336e-05
2.05965e-05
2.98476e-05
3.89005e-05
4.79893e-05
6.24192e-05
6.97794e-05
7.14191e-05
7.09363e-05
6.7017e-05
6.69414e-05
7.28557e-05
7.84598e-05
7.77714e-05
7.62641e-05
7.67232e-05
8.08956e-05
8.28676e-05
8.37282e-05
8.36603e-05
8.76319e-05
2.0773e-05
3.00099e-05
3.89803e-05
5.69033e-05
6.78288e-05
7.32962e-05
7.52044e-05
7.7259e-05
7.9503e-05
8.50155e-05
8.73025e-05
8.88802e-05
9.17253e-05
0.000109715
0.000128922
0.000134508
0.000137315
0.000144768
0.000160615
0.000223602
2.10519e-05
3.07564e-05
4.70015e-05
6.90065e-05
9.56285e-05
0.000128861
0.000145932
0.000185398
0.000202044
0.00025243
0.000300383
0.000423388
0.000520376
0.00079518
0.000919707
0.00105725
0.00116922
0.00151301
0.00184699
0.00271088
2.16644e-05
4.31947e-05
0.000117111
0.000340792
0.000606585
0.00098048
0.00127429
0.0020223
0.00246567
0.00366816
0.00453879
0.0065812
0.00767153
0.0103699
0.0116402
0.0142398
0.0158743
0.0202588
0.0232262
0.0308153
2.49797e-05
0.000305425
0.0014323
0.00463343
0.00823786
0.0130275
0.0170933
0.0268667
0.0320224
0.0438401
0.0507837
0.0658398
0.0727628
0.0889445
0.0961779
0.111894
0.120904
0.14463
0.157875
0.192649
0.000123696
0.00490576
0.0216071
0.0551504
0.092838
0.121956
0.156285
0.21264
0.237472
0.285902
0.316149
0.365961
0.387101
0.435948
0.457449
0.505239
0.529034
0.591101
0.620592
0.693663
0.00336359
0.0693614
0.256248
0.423616
0.591042
0.693531
0.834238
0.938075
1.01591
1.09314
1.16598
1.22156
1.25366
1.31091
1.33466
1.38163
1.4029
1.45925
1.48064
1.52711
0.0844872
0.726161
1.56621
1.94419
2.28339
2.42271
2.58423
2.59828
2.62456
2.59879
2.59117
2.54332
2.52524
2.47431
2.46162
2.41913
2.40965
2.38338
2.37131
2.34015
1.40529
4.34763
5.3242
5.28805
5.13225
4.79839
4.58779
4.27147
4.13662
3.86894
3.77729
3.57842
3.52138
3.36292
3.32651
3.19966
3.1685
3.04594
3.00582
2.90225
8.12
10.2625
8.80067
6.81285
5.71366
4.96299
4.53768
4.12659
3.93185
3.64855
3.55273
3.34479
3.30147
3.1292
3.096
2.93355
2.89981
2.71745
2.65222
2.43988
1.76419
1.27614
1.00183
0.850154
0.758914
0.70551
0.664983
0.637757
0.612302
0.593227
0.575113
0.559121
0.547092
0.539121
0.538119
0.54001
0.545217
0.555912
0.57916
0.610527
0.640085
0.636324
0.612325
0.54669
0.448494
0.367973
0.302001
0.248912
0.209924
0.185412
0.167655
0.158745
0.158667
0.161875
0.168507
0.183741
0.195482
0.217064
0.228695
0.250737
0.261533
0.283229
0.29814
0.315552
0.326166
0.335365
0.337683
0.33713
0.335677
0.330197
0.325809
0.316298
0.311303
0.303464
0.29738
0.29336
0.288267
0.28842
0.289147
0.291067
0.296685
0.300458
0.308275
0.313625
0.32367
0.328752
0.33928
0.346534
0.351817
0.366431
0.370987
0.379944
0.387478
0.386667
0.384347
0.374595
0.359685
0.324447
0.30298
0.260928
0.24113
0.206501
0.195541
0.17387
0.167763
0.15411
0.151591
0.143472
0.145927
0.144982
0.151809
0.157453
0.176793
0.187308
0.21519
0.224254
0.245602
0.248309
0.256954
0.252468
0.25512
0.246876
0.2466
0.233748
0.224987
0.198952
0.180013
0.141112
0.105921
0.0715937
0.0455468
0.0304172
0.0193631
0.0126333
0.00870698
0.00596073
0.00472096
0.00394293
0.00362777
0.00355694
0.00360076
0.00370994
0.00396445
0.00447782
0.00578658
0.0072734
0.0106316
0.014078
0.0195269
0.0307563
0.0376673
0.0478233
0.0596136
0.0696261
0.0778651
0.0794757
0.0784093
0.075274
0.0675895
0.0592341
0.0498147
0.0399515
0.031922
0.0248101
0.0181504
0.0138616
0.0113316
0.0105332
0.010594
0.0111327
0.0123466
0.0158715
0.0205328
0.0265963
0.0331476
0.0357035
0.0393929
0.0407788
0.0399948
0.0407085
0.0434062
0.0447655
0.0455095
0.0510926
0.0554456
0.0550836
0.0590291
0.0923931
0.162346
0.198069
0.217073
0.225608
0.228772
0.222166
0.223109
0.215087
0.213933
0.20246
0.182571
0.129144
0.0851187
0.0776606
0.08263
0.11277
0.144692
0.156538
0.155003
0.150176
0.154022
0.141695
0.148649
0.134594
0.139192
0.136026
0.132777
0.146894
0.144353
0.168758
0.184177
0.30532
2.499
2.03802
1.70247
1.46613
1.29633
1.17158
1.07819
1.00398
0.944561
0.893566
0.850795
0.814131
0.781576
0.751978
0.728018
0.704013
0.690643
0.673755
0.671205
0.665293
0.666194
0.667184
0.668435
0.667049
0.657398
0.636462
0.604061
0.577635
0.541932
0.516794
0.487459
0.468307
0.449836
0.442344
0.43566
0.434503
0.435038
0.436855
0.437889
0.440677
0.442386
0.445853
0.448414
0.449708
0.453003
0.454069
0.454441
0.453662
0.452352
0.448894
0.446529
0.441337
0.43594
0.430769
0.422531
0.41871
0.410211
0.405973
0.40146
0.396904
0.394995
0.393097
0.390857
0.390636
0.389677
0.391091
0.390967
0.393842
0.394549
0.399103
0.401396
0.406705
0.409725
0.415659
0.419444
0.419389
0.420067
0.41382
0.410545
0.397519
0.390091
0.367253
0.358001
0.332634
0.324909
0.302291
0.299292
0.285922
0.289074
0.284738
0.289363
0.286503
0.289065
0.283942
0.28484
0.280132
0.278562
0.270587
0.265349
0.250404
0.240918
0.218096
0.201931
0.16552
0.13523
0.097709
0.0680024
0.0453326
0.0304049
0.0203257
0.0132791
0.00899939
0.00635006
0.00447701
0.0038442
0.00316528
0.00318915
0.00317261
0.00329373
0.00344539
0.00390322
0.00452643
0.00605379
0.00776144
0.0114956
0.0155444
0.0220196
0.0309339
0.0457618
0.065069
0.083502
0.111049
0.132535
0.148312
0.155349
0.1544
0.150541
0.141409
0.128806
0.113176
0.0962035
0.0786438
0.0602879
0.0449758
0.0334476
0.0242115
0.0173985
0.0138369
0.0118302
0.0114206
0.0116096
0.0122075
0.0134707
0.0175358
0.0201232
0.0239332
0.0271587
0.0296586
0.0302939
0.0368587
0.0408133
0.0405161
0.0421237
0.0503072
0.0529471
0.0579869
0.0985775
0.164743
0.208828
0.227765
0.236263
0.235576
0.230387
0.220618
0.207399
0.20164
0.196159
0.196228
0.190206
0.182269
0.156909
0.110731
0.0903391
0.0931331
0.106937
0.131674
0.154375
0.15007
0.154265
0.144577
0.143977
0.137593
0.132209
0.136089
0.132404
0.139759
0.13995
0.145125
0.148912
0.161165
2.06464
1.80903
1.5962
1.42861
1.29987
1.1933
1.10771
1.03451
0.973185
0.920067
0.874234
0.833339
0.798915
0.764117
0.738399
0.708116
0.688932
0.665862
0.650973
0.63893
0.627916
0.625032
0.618627
0.617167
0.614043
0.609308
0.598389
0.590243
0.577658
0.565708
0.555685
0.54285
0.533041
0.520524
0.513185
0.503488
0.496178
0.490198
0.480588
0.475347
0.468361
0.461892
0.459051
0.453423
0.4504
0.448088
0.445085
0.442933
0.441624
0.438416
0.437224
0.435518
0.432458
0.430739
0.426773
0.423464
0.420972
0.414613
0.412013
0.406912
0.404245
0.398196
0.396222
0.391212
0.388937
0.385
0.381918
0.3802
0.378429
0.376762
0.377999
0.378153
0.380931
0.382171
0.387261
0.388442
0.393527
0.394113
0.395191
0.393647
0.391954
0.388135
0.384193
0.375363
0.371008
0.362492
0.356668
0.347733
0.34058
0.331365
0.325409
0.311655
0.304406
0.289038
0.280289
0.262379
0.24696
0.222913
0.201789
0.170486
0.139755
0.110041
0.0787757
0.05585
0.0388825
0.0271503
0.0182213
0.0128352
0.00835544
0.00630847
0.00427641
0.003558
0.00290869
0.00266856
0.00267708
0.00270368
0.00290712
0.00311647
0.00378399
0.00456028
0.00659065
0.008427
0.0128559
0.0166288
0.0246621
0.0343893
0.0449502
0.0712838
0.103036
0.14928
0.191146
0.224653
0.22803
0.225011
0.217434
0.207272
0.19836
0.185615
0.175499
0.164533
0.146594
0.130407
0.112029
0.0876234
0.0670655
0.0470011
0.032007
0.0225699
0.0164308
0.0138955
0.012634
0.0125975
0.0130504
0.0144594
0.0155102
0.0187029
0.0228415
0.0236419
0.0272956
0.0321836
0.0339766
0.035179
0.0427884
0.0562579
0.0781721
0.097272
0.178727
0.20794
0.253851
0.257562
0.256758
0.247759
0.225359
0.218289
0.196969
0.191073
0.175344
0.179103
0.178073
0.177381
0.171432
0.160369
0.127022
0.100912
0.103584
0.109106
0.139733
0.145431
0.150344
0.147662
0.139356
0.136814
0.126482
0.126978
0.126426
0.12657
0.125453
0.126247
0.129764
0.134354
1.36766
1.24684
1.13236
1.04043
0.968305
0.905791
0.852857
0.806018
0.762366
0.724911
0.688449
0.656088
0.628014
0.598892
0.577422
0.553208
0.534381
0.517194
0.500158
0.48977
0.476873
0.471173
0.463856
0.461373
0.458676
0.457529
0.455377
0.452516
0.449944
0.444525
0.439628
0.43348
0.426013
0.418743
0.407985
0.402569
0.390769
0.384933
0.374256
0.366405
0.356991
0.348471
0.339213
0.333402
0.324197
0.319297
0.313999
0.308409
0.306735
0.303905
0.301892
0.301698
0.300786
0.30047
0.300377
0.299192
0.298802
0.297273
0.29609
0.2938
0.291915
0.288713
0.286986
0.283096
0.279826
0.27739
0.272534
0.270152
0.267522
0.264524
0.263018
0.263105
0.263386
0.265619
0.267507
0.272536
0.275839
0.284288
0.28708
0.296161
0.298321
0.303462
0.302846
0.3029
0.299851
0.296735
0.287422
0.281796
0.267878
0.259778
0.242112
0.22951
0.210862
0.190621
0.166911
0.144032
0.120032
0.0938376
0.0729255
0.0546855
0.0406246
0.0296689
0.0211576
0.0151135
0.0104501
0.00750878
0.00516122
0.00397025
0.00283817
0.00258628
0.00215457
0.00224608
0.00225943
0.00242036
0.00259547
0.00299526
0.00382427
0.00485464
0.00726276
0.00933438
0.0144027
0.0182432
0.0277172
0.0349995
0.0523254
0.070201
0.100422
0.165879
0.235595
0.282982
0.283606
0.27608
0.257815
0.240577
0.224257
0.211955
0.199469
0.189331
0.182908
0.172646
0.164891
0.1574
0.142712
0.128946
0.10837
0.084005
0.0640432
0.0428741
0.0281219
0.0204284
0.0159173
0.0142681
0.0142576
0.0145632
0.0158535
0.0174412
0.0213347
0.0226581
0.0286645
0.0321917
0.0327034
0.0384812
0.0554164
0.0708089
0.109583
0.144032
0.226346
0.257978
0.284326
0.285556
0.278106
0.244386
0.225812
0.208519
0.196278
0.173192
0.152765
0.144256
0.146117
0.149044
0.163145
0.158985
0.159728
0.136951
0.116747
0.111175
0.115629
0.132704
0.141061
0.145213
0.142397
0.136308
0.128694
0.126131
0.124633
0.12913
0.127862
0.129714
0.130971
0.134291
0.632082
0.594983
0.54811
0.512317
0.481784
0.45733
0.438639
0.420486
0.406363
0.390137
0.375741
0.359601
0.343958
0.329449
0.313641
0.302342
0.289315
0.280814
0.272259
0.266052
0.261509
0.257107
0.255147
0.252746
0.252248
0.25163
0.251128
0.250419
0.248096
0.246053
0.243635
0.23784
0.234801
0.22951
0.223424
0.219453
0.210637
0.205992
0.200695
0.191704
0.188028
0.180813
0.174555
0.170523
0.162154
0.159075
0.153652
0.148716
0.14659
0.143639
0.140962
0.140882
0.140345
0.140457
0.141138
0.140996
0.141101
0.141122
0.140097
0.139679
0.137809
0.136689
0.134141
0.132834
0.129551
0.128552
0.126103
0.124921
0.123056
0.121627
0.120241
0.119338
0.118971
0.119637
0.120382
0.122692
0.124318
0.128322
0.130369
0.135553
0.137834
0.140758
0.143692
0.144032
0.143554
0.141456
0.137778
0.132567
0.121882
0.114486
0.101733
0.0889907
0.0764106
0.0641666
0.0525879
0.0423775
0.0335724
0.0257504
0.0196517
0.014575
0.0107778
0.00780936
0.00570401
0.00416255
0.00310702
0.00240888
0.00200617
0.00176577
0.00172669
0.00177025
0.00184622
0.00207846
0.0024059
0.00318222
0.00408787
0.00626994
0.00809943
0.0119179
0.0164217
0.0214088
0.0308875
0.0386539
0.0556338
0.0695409
0.10544
0.145999
0.244185
0.323528
0.340729
0.330563
0.305048
0.276931
0.240937
0.212875
0.190738
0.177575
0.166282
0.160635
0.160441
0.160061
0.158791
0.156041
0.150806
0.14559
0.13409
0.11672
0.0942546
0.0733758
0.0551937
0.0375275
0.0249169
0.0194354
0.0168066
0.016074
0.0165703
0.018133
0.0193155
0.0239017
0.0266991
0.0313032
0.0329846
0.0470395
0.0598727
0.0760444
0.167329
0.198896
0.284543
0.297213
0.307618
0.296848
0.284067
0.236977
0.222928
0.206253
0.20294
0.18991
0.175017
0.148631
0.145727
0.141134
0.150876
0.152428
0.157798
0.152565
0.141892
0.119772
0.114214
0.116777
0.123852
0.137184
0.139167
0.137398
0.132024
0.132099
0.128951
0.130513
0.13085
0.132412
0.133224
0.134394
0.173088
0.168764
0.159404
0.152388
0.145012
0.137498
0.134603
0.129867
0.128188
0.125378
0.1232
0.121081
0.115882
0.11317
0.10689
0.102797
0.0977858
0.0938769
0.0912018
0.0884369
0.0879428
0.0878082
0.0882093
0.088711
0.0897235
0.0905825
0.0913136
0.0925415
0.0925413
0.0923867
0.0919414
0.0902168
0.0888974
0.0863767
0.0832814
0.0814954
0.0772211
0.0745996
0.0725337
0.0680646
0.0663365
0.0635451
0.0603539
0.0590312
0.0556784
0.0540607
0.052419
0.0495832
0.0486835
0.0470933
0.045676
0.0452096
0.0442469
0.0440084
0.0440687
0.043904
0.0439752
0.043979
0.0437488
0.0436741
0.0434352
0.0427251
0.0423957
0.0415544
0.0405401
0.0401219
0.0390838
0.0383697
0.0381062
0.0372066
0.037028
0.0366412
0.0364746
0.0361839
0.036207
0.0363886
0.0367163
0.037581
0.0381143
0.0392106
0.0399699
0.0407143
0.0414326
0.0413047
0.0409641
0.0397656
0.0385763
0.0362174
0.0335113
0.0303716
0.0269417
0.023263
0.0198398
0.0163629
0.0134741
0.0105727
0.00845758
0.0063967
0.00496108
0.00369173
0.00285698
0.0021753
0.00178433
0.00149545
0.00137801
0.00137835
0.0014113
0.00148569
0.00165671
0.00206656
0.00258849
0.00378447
0.00511596
0.0076075
0.0101178
0.0155154
0.0192397
0.0283915
0.0343472
0.0497735
0.0591546
0.0809769
0.0990442
0.133602
0.210764
0.324825
0.404084
0.38915
0.369698
0.319022
0.264981
0.2155
0.185558
0.17227
0.163001
0.154641
0.148735
0.140996
0.134359
0.134132
0.136045
0.142141
0.145496
0.144918
0.14234
0.135768
0.122512
0.0970023
0.0757368
0.0575876
0.0435203
0.0326117
0.0241045
0.0212646
0.019202
0.0195306
0.0202483
0.0228405
0.0287623
0.030331
0.0362345
0.051338
0.087912
0.10799
0.242924
0.250546
0.302495
0.299408
0.29779
0.292042
0.270159
0.225244
0.188708
0.17586
0.186746
0.196993
0.199014
0.173744
0.155832
0.137441
0.137153
0.137549
0.14652
0.148538
0.1451
0.13474
0.118591
0.114438
0.115135
0.119804
0.129767
0.133155
0.130924
0.130472
0.128655
0.128374
0.129069
0.130749
0.130819
0.130746
0.0266161
0.0265353
0.0261539
0.0257452
0.0250207
0.0240093
0.0235723
0.0228483
0.0228335
0.0228346
0.0228616
0.0229879
0.0228512
0.0226467
0.0219873
0.0210097
0.0198915
0.0186695
0.0178758
0.0173871
0.0173698
0.0174624
0.0179647
0.0184512
0.019441
0.0203831
0.0209325
0.0221392
0.0226446
0.0231769
0.0231952
0.0228896
0.0225878
0.0217878
0.0207744
0.0201597
0.0189118
0.0182652
0.0176909
0.0167442
0.0164045
0.015851
0.0151152
0.0148609
0.0141503
0.0136882
0.0133131
0.0124154
0.0121211
0.0115464
0.011058
0.0108332
0.0105035
0.010443
0.0104628
0.0104478
0.010507
0.0106425
0.0106845
0.0107303
0.0107125
0.0106306
0.0105514
0.0103222
0.0100702
0.00992833
0.00969545
0.00958402
0.00950402
0.00945124
0.00948098
0.00947406
0.00947743
0.00934247
0.00920243
0.00912052
0.00903028
0.00905452
0.00905542
0.00911674
0.00912445
0.00914943
0.00911032
0.0089715
0.00878921
0.00859171
0.00815223
0.00783462
0.00719878
0.00664459
0.00586127
0.00518961
0.00436746
0.00366842
0.00302896
0.00241564
0.00195183
0.00156402
0.00129443
0.00111474
0.00101186
0.00101015
0.00103237
0.00107941
0.00122533
0.0014124
0.00187429
0.00239735
0.00351838
0.00517899
0.00696185
0.0102934
0.0147788
0.0186478
0.0271459
0.0356848
0.0432641
0.0596527
0.070372
0.0947832
0.10967
0.1435
0.176281
0.287542
0.421115
0.466463
0.448908
0.393686
0.329253
0.236503
0.207941
0.180345
0.170002
0.165676
0.161107
0.154158
0.150066
0.143122
0.137869
0.131766
0.128142
0.128495
0.130978
0.138897
0.140223
0.138871
0.135542
0.125744
0.103069
0.0774156
0.0590527
0.0449344
0.0345438
0.0275481
0.0237819
0.0228599
0.024966
0.0253308
0.0306964
0.0326269
0.0440141
0.0696038
0.12245
0.150189
0.211996
0.246536
0.251308
0.27463
0.276589
0.289621
0.268553
0.251709
0.192334
0.168161
0.173602
0.185591
0.249709
0.237621
0.211493
0.161045
0.139572
0.128746
0.128147
0.135401
0.139445
0.137275
0.128276
0.116992
0.113865
0.113907
0.116129
0.122809
0.125598
0.125965
0.125707
0.125514
0.124246
0.123778
0.120942
0.119338
0.00194698
0.00210113
0.00218967
0.00223358
0.00223606
0.0021872
0.00216238
0.00211716
0.00212742
0.00214409
0.00217695
0.00225559
0.00226672
0.00228694
0.00227075
0.00216579
0.00200981
0.00182157
0.00170797
0.00162997
0.00161534
0.00162372
0.00169478
0.00184339
0.00210648
0.00234799
0.00256421
0.00284618
0.00299178
0.00315412
0.00316199
0.00311188
0.0030391
0.0028546
0.00269902
0.0025912
0.00248247
0.0024269
0.00239399
0.00233408
0.00230789
0.00226677
0.00219941
0.00216307
0.00204591
0.00196013
0.00187249
0.00174925
0.00168823
0.00159731
0.00152002
0.00148379
0.00145705
0.00145194
0.0014585
0.00146495
0.00148852
0.00152387
0.00155232
0.00157889
0.00161821
0.00163006
0.00163781
0.0016378
0.00163217
0.0016324
0.00163019
0.0016328
0.00163805
0.00164238
0.00166197
0.00167344
0.00167469
0.00162109
0.00157036
0.00151931
0.00147788
0.00146109
0.00143076
0.00142604
0.00141088
0.00139348
0.00135263
0.00130984
0.00128658
0.00126818
0.00123638
0.00120967
0.00115024
0.00108818
0.000986941
0.000914843
0.000793048
0.00074337
0.000657012
0.000623941
0.000624009
0.000649343
0.000676163
0.000747032
0.000842671
0.00101544
0.00137346
0.00173193
0.00267271
0.00353248
0.0054764
0.00711763
0.0110174
0.0141454
0.0208884
0.0260982
0.0371419
0.0454322
0.0629562
0.0740876
0.0976581
0.114811
0.137419
0.167097
0.197329
0.23882
0.326186
0.522708
0.516362
0.500155
0.382351
0.315883
0.238057
0.198389
0.188671
0.169105
0.171172
0.168433
0.169301
0.169042
0.167822
0.16426
0.158826
0.144859
0.134163
0.128886
0.128965
0.129707
0.134317
0.136423
0.13584
0.132415
0.124252
0.103126
0.0818224
0.0633437
0.0500517
0.0398664
0.0358087
0.0312265
0.0316015
0.0306081
0.0325512
0.0399085
0.0461163
0.0614911
0.0808036
0.146367
0.18851
0.22606
0.249316
0.260579
0.291737
0.287188
0.270292
0.247067
0.193791
0.168644
0.165177
0.168417
0.271361
0.300007
0.359355
0.292942
0.195616
0.144483
0.125767
0.123115
0.12697
0.132691
0.130684
0.121965
0.116231
0.110598
0.110185
0.110887
0.112725
0.114091
0.116695
0.11689
0.116617
0.115435
0.113471
0.108577
0.00014875
0.000161106
0.00018782
0.000200991
0.000202653
0.000200101
0.000196024
0.000190255
0.000188912
0.000189241
0.00019109
0.00019857
0.000202317
0.000206312
0.000206883
0.000203468
0.000192588
0.000179107
0.000168737
0.000161219
0.000157592
0.000156824
0.00015719
0.000162782
0.000176676
0.000197987
0.000221169
0.000250356
0.000264174
0.000282334
0.000284515
0.000280068
0.000272315
0.000262777
0.000250135
0.000245988
0.000241005
0.000239547
0.000239263
0.000238138
0.000237174
0.000236289
0.000232732
0.000230297
0.000224184
0.000216137
0.000209916
0.000201276
0.00019445
0.000187743
0.000181299
0.000177258
0.000174141
0.00017258
0.00017218
0.000172061
0.000172966
0.000177268
0.000181223
0.00018789
0.000193959
0.000199529
0.000207055
0.000209569
0.00021274
0.000215575
0.000217862
0.000220451
0.000223338
0.000225064
0.000228448
0.000230774
0.000231386
0.000229875
0.000224169
0.000213542
0.000211228
0.000206825
0.000203246
0.000200796
0.000193987
0.000191932
0.000188327
0.000187908
0.000188359
0.00018957
0.000197939
0.000205058
0.000222881
0.000233213
0.000254578
0.000282717
0.000302075
0.000351098
0.000399548
0.000496915
0.000585175
0.000812921
0.00103717
0.00151944
0.00208556
0.00294972
0.00440062
0.00574614
0.00872699
0.0110068
0.0165374
0.0207374
0.029526
0.0371306
0.0515645
0.0628344
0.082827
0.106104
0.127539
0.153348
0.192199
0.214552
0.251105
0.28626
0.321498
0.410619
0.580135
0.589734
0.502326
0.38797
0.299216
0.270008
0.200322
0.188387
0.173267
0.164628
0.175247
0.16779
0.172619
0.170239
0.170588
0.170384
0.169048
0.164954
0.152272
0.137438
0.132323
0.130939
0.132826
0.134463
0.136608
0.134481
0.13049
0.119174
0.0982523
0.0802801
0.0635613
0.052296
0.044077
0.0377062
0.0357094
0.0356566
0.036304
0.0427986
0.0505159
0.0586888
0.0757507
0.176332
0.213599
0.272165
0.263615
0.294259
0.321656
0.306943
0.284773
0.240255
0.192029
0.1617
0.161913
0.150869
0.170557
0.230248
0.445827
0.450644
0.364268
0.203757
0.143782
0.123883
0.119675
0.120986
0.126774
0.123987
0.118845
0.111531
0.108555
0.106957
0.108131
0.109113
0.109846
0.109508
0.106989
0.104635
0.099903
0.0975318
8.78026e-05
8.90066e-05
9.28124e-05
9.71555e-05
9.72835e-05
9.60951e-05
9.37297e-05
9.35765e-05
9.34564e-05
9.32969e-05
9.34785e-05
9.46782e-05
9.55428e-05
9.70677e-05
9.80781e-05
9.87408e-05
9.92298e-05
9.95337e-05
9.96024e-05
9.95583e-05
9.95617e-05
9.93707e-05
9.90379e-05
9.89016e-05
9.89898e-05
9.92594e-05
9.98559e-05
0.000100671
0.000101348
0.000101367
0.000101433
0.000100856
0.000100455
9.95199e-05
9.91622e-05
9.88647e-05
9.88372e-05
9.89359e-05
9.93001e-05
0.000100665
0.000101759
0.000103726
0.000105275
0.000106858
0.000108639
0.000109411
0.000110787
0.000111589
0.000111796
0.000112055
0.000111987
0.000111617
0.000111433
0.00011114
0.000110567
0.00011013
0.000109505
0.000109423
0.000109461
0.000109593
0.000110219
0.000110833
0.000111836
0.000113173
0.000114475
0.00011707
0.000118698
0.000123134
0.000125845
0.000130634
0.000133872
0.000136392
0.000140018
0.000141097
0.000143068
0.000143487
0.00014514
0.000145753
0.000146699
0.000149133
0.000150068
0.000153475
0.000156724
0.000160932
0.000171851
0.000180875
0.00020157
0.000219982
0.000268397
0.000312433
0.000370937
0.000518349
0.000625036
0.00086086
0.00109921
0.00164095
0.0020629
0.00303435
0.00401291
0.00549961
0.0079665
0.00978166
0.0146239
0.018157
0.025439
0.0313568
0.0435861
0.0545273
0.0705636
0.0926349
0.113565
0.143873
0.177652
0.216574
0.252037
0.312164
0.334184
0.372132
0.397027
0.414955
0.479303
0.622776
0.634761
0.489873
0.374466
0.328665
0.283789
0.230291
0.177727
0.173192
0.152738
0.162538
0.168625
0.164551
0.178455
0.168729
0.173616
0.167576
0.166465
0.164541
0.154684
0.143401
0.137988
0.134845
0.136516
0.135521
0.13625
0.135162
0.132741
0.123799
0.113434
0.0911991
0.0766357
0.0662474
0.053489
0.0484921
0.0432446
0.0442027
0.0445871
0.0469645
0.0512493
0.060078
0.0789834
0.191117
0.204713
0.240847
0.228811
0.300468
0.331596
0.310157
0.300855
0.25521
0.226506
0.163754
0.160917
0.146878
0.160477
0.183181
0.338986
0.484929
0.477977
0.340518
0.197538
0.135617
0.12219
0.116735
0.118754
0.120502
0.118895
0.112985
0.10973
0.105874
0.104578
0.101693
0.100135
0.100483
0.0993578
0.0985402
0.0956231
0.0945314
8.72207e-05
8.75876e-05
8.98857e-05
9.64187e-05
9.99006e-05
9.98981e-05
0.000100064
0.000101142
0.000103659
0.000105932
0.000109032
0.000109563
0.000110374
0.000110906
0.000111723
0.000112359
0.000113674
0.000117748
0.00012027
0.000121499
0.000121629
0.000119713
0.000116694
0.000111756
0.000109965
0.000108216
0.000107254
0.000107436
0.000107328
0.000107522
0.000108445
0.000109522
0.000113459
0.000117304
0.000123671
0.000130005
0.000137107
0.000143919
0.000152147
0.000159116
0.00016926
0.000178803
0.000186765
0.000197356
0.00020689
0.000212337
0.00022073
0.000224339
0.000228535
0.000232273
0.00023216
0.000232259
0.000232188
0.000230901
0.000231072
0.000230897
0.000231569
0.000233991
0.000240122
0.000245915
0.000260121
0.000268212
0.000283209
0.000291088
0.00030512
0.000320356
0.00032884
0.000352687
0.000363657
0.00038515
0.000395971
0.000408082
0.000425738
0.000430455
0.000442635
0.000447962
0.000460853
0.000471821
0.000478614
0.000501168
0.000517161
0.000556269
0.000585026
0.000625293
0.000716031
0.00077977
0.000918092
0.0010249
0.00129211
0.00154566
0.00180839
0.00250177
0.00297623
0.0039591
0.00477369
0.00682522
0.008305
0.0109362
0.0149343
0.0177503
0.0255035
0.0308663
0.0415239
0.0497395
0.0684874
0.0812181
0.106793
0.129216
0.163958
0.205967
0.235713
0.305577
0.343562
0.406157
0.435602
0.445526
0.450818
0.453467
0.461623
0.496528
0.637554
0.639963
0.460619
0.348184
0.334366
0.318285
0.270752
0.208324
0.169699
0.153767
0.143068
0.163158
0.144183
0.164249
0.173831
0.168236
0.191573
0.175716
0.184428
0.171525
0.168125
0.156955
0.153679
0.147425
0.147353
0.141186
0.143202
0.137452
0.138827
0.128798
0.121665
0.103881
0.0928763
0.0807395
0.0634813
0.0587801
0.0536866
0.0538288
0.049953
0.0487996
0.0500344
0.0564411
0.0812086
0.17907
0.176783
0.198226
0.192478
0.319539
0.343711
0.333298
0.334276
0.305321
0.285789
0.20103
0.186896
0.154073
0.192104
0.187771
0.307723
0.466155
0.473118
0.425683
0.282824
0.169761
0.131304
0.117893
0.117848
0.117234
0.117236
0.113781
0.111158
0.106193
0.103175
0.101796
0.0989505
0.0988515
0.0973572
0.0943832
0.09239
0.0889525
0.000241687
0.000242261
0.000244951
0.000246564
0.00025124
0.000260654
0.000267371
0.000285362
0.000299426
0.000320138
0.000336382
0.00034612
0.00036764
0.000377448
0.000401186
0.000423929
0.00045313
0.000491754
0.000509674
0.000521269
0.000521029
0.000513593
0.000503683
0.000478411
0.000466399
0.000458426
0.000455396
0.000457975
0.000462151
0.000472109
0.00048549
0.000497103
0.000540006
0.000579981
0.000617237
0.000686516
0.000721865
0.000778259
0.000829246
0.000864499
0.000947143
0.000997827
0.00107229
0.00115232
0.00121157
0.00126764
0.00131547
0.00134408
0.0013651
0.00139445
0.00140227
0.00141396
0.00142478
0.0014276
0.00143221
0.00143989
0.00144753
0.00145776
0.00149027
0.00152496
0.0016081
0.00167051
0.00173324
0.00182585
0.00186849
0.00195219
0.00199785
0.00209325
0.00213496
0.00221159
0.00227401
0.00231858
0.0024039
0.0024348
0.00251674
0.00256109
0.00264074
0.00271679
0.00275819
0.00289168
0.00298328
0.00317649
0.00332429
0.00350231
0.00395994
0.00424081
0.00484543
0.0052788
0.00627778
0.00734801
0.00825652
0.0106681
0.0122863
0.0155764
0.0180348
0.024074
0.0285959
0.0350133
0.046808
0.0540415
0.071048
0.0838597
0.109702
0.127043
0.161931
0.196136
0.22708
0.293333
0.32827
0.398281
0.442633
0.480668
0.503688
0.502259
0.499486
0.483353
0.471816
0.476599
0.512398
0.617371
0.598695
0.41028
0.310572
0.319325
0.330723
0.31633
0.259326
0.202675
0.165272
0.148075
0.142607
0.147124
0.135192
0.166015
0.138906
0.164921
0.188828
0.168045
0.207284
0.17104
0.200799
0.172596
0.184601
0.166126
0.17007
0.15168
0.153771
0.142683
0.143841
0.134566
0.131951
0.118159
0.0969426
0.0902738
0.0746809
0.069903
0.0638641
0.061558
0.0535251
0.0497898
0.0497995
0.0543757
0.0912012
0.148714
0.14565
0.145723
0.151756
0.308297
0.348676
0.395219
0.399797
0.361278
0.33894
0.219645
0.201929
0.16128
0.287835
0.264224
0.449318
0.452351
0.467941
0.427324
0.310861
0.203328
0.155036
0.12603
0.12276
0.118957
0.118648
0.11605
0.114357
0.112254
0.107614
0.10359
0.100431
0.0992376
0.0956387
0.0914907
0.0907148
0.0872473
0.002918
0.00294126
0.00302108
0.00310078
0.00321215
0.00327893
0.0033299
0.00344883
0.00351759
0.00365579
0.00375548
0.00386412
0.00404038
0.00419819
0.00444441
0.00463284
0.00482255
0.0049734
0.00500815
0.00500519
0.00498711
0.0048906
0.00485091
0.00477873
0.00473585
0.00475016
0.00476577
0.00482193
0.0048901
0.00493997
0.00511961
0.00523793
0.00544606
0.00570157
0.00582717
0.00614177
0.00633724
0.00651153
0.006834
0.00698143
0.00725821
0.00753543
0.00772551
0.00812733
0.00835192
0.0085313
0.0087554
0.0088096
0.00888602
0.00889957
0.00887722
0.00886873
0.00885283
0.00882629
0.00882731
0.00883874
0.00886061
0.00890584
0.00898854
0.00908935
0.00935303
0.00948542
0.00975844
0.00994018
0.0101367
0.0103759
0.0105181
0.010773
0.0108862
0.0111094
0.0113044
0.0114323
0.0116848
0.0117848
0.0120044
0.0122153
0.0123361
0.0126249
0.0128148
0.0132441
0.013554
0.0141031
0.0148405
0.0154001
0.0168311
0.017855
0.0200361
0.0215701
0.0245662
0.0281623
0.0310918
0.0380204
0.0425645
0.0518095
0.0587174
0.0734123
0.0852408
0.100252
0.126462
0.143242
0.178454
0.20318
0.250275
0.293829
0.336441
0.397312
0.434416
0.480236
0.498105
0.524834
0.532836
0.533636
0.535039
0.514613
0.473593
0.464608
0.466327
0.512783
0.543544
0.510891
0.354148
0.266097
0.277615
0.316425
0.344677
0.332129
0.280317
0.207236
0.16445
0.147375
0.142485
0.144858
0.138163
0.147397
0.130317
0.164547
0.141433
0.164452
0.178035
0.161322
0.196661
0.168797
0.185936
0.1648
0.167992
0.153506
0.150108
0.14667
0.144254
0.137986
0.128445
0.124636
0.106274
0.0995179
0.086699
0.0804761
0.076554
0.0696764
0.0587434
0.0524669
0.0508574
0.0570329
0.0989288
0.124492
0.123055
0.117254
0.13171
0.279821
0.365055
0.429547
0.436644
0.388315
0.401315
0.278476
0.281063
0.202307
0.436069
0.391874
0.550768
0.487951
0.497191
0.473572
0.3458