/*--------------------------------*- C++ -*----------------------------------*\
| =========                 |                                                 |
| \\      /  F ield         | OpenFOAM: The Open Source CFD Toolbox           |
|  \\    /   O peration     | Version:  2.4.0                                 |
|   \\  /    A nd           | Web:      www.OpenFOAM.org                      |
|    \\/     M anipulation  |                                                 |
\*---------------------------------------------------------------------------*/
FoamFile
{
    version     2.0;
    format      ascii;
    class       volScalarField;
    location    "0.46";
    object      p;
}
// * * * * * * * * * * * * * * * * * * * * * * * * * * * * * * * * * * * * * //

dimensions      [0 2 -2 0 0 0 0];

internalField   nonuniform List<scalar> 
8800
(
59.8712
47.5126
40.1171
36.5918
34.704
33.2867
32.0992
31.0114
29.9677
28.9839
28.0811
27.1385
26.212
25.352
24.549
23.7089
22.9378
22.3124
21.7037
21.131
56.7579
47.1584
40.2866
36.706
34.7641
33.3115
32.1059
31.0133
29.9656
28.9801
28.0795
27.1373
26.2079
25.3495
24.5486
23.7063
22.9356
22.3074
21.709
21.0508
54.7911
47.2352
40.8909
37.0824
34.9307
33.3895
32.1525
31.046
29.989
28.9971
28.0911
27.1426
26.2081
25.3472
24.5478
23.6969
22.9323
22.2953
21.7684
21.0707
53.2548
47.2959
41.479
37.5081
35.1147
33.4758
32.2143
31.1004
30.0386
29.0378
28.1173
27.1596
26.2198
25.3512
24.5466
23.6872
22.9211
22.2797
21.8392
21.2837
52.0041
47.2693
41.9593
37.9146
35.282
33.5449
32.2624
31.1512
30.0944
29.0947
28.1516
27.1859
26.2373
25.3623
24.5377
23.6827
22.8974
22.2603
21.7536
21.6004
51.0197
47.1717
42.3277
38.2659
35.4346
33.5887
32.2898
31.1936
30.1466
29.1471
28.1836
27.212
26.2579
25.373
24.5256
23.6756
22.8793
22.2402
21.7568
22.0797
50.2618
47.0593
42.5991
38.5467
35.5743
33.6211
32.2968
31.2202
30.1882
29.1937
28.2152
27.233
26.2758
25.3773
24.517
23.6661
22.873
22.2333
21.8434
22.3983
49.7112
46.9588
42.7828
38.7609
35.6979
33.6394
32.2957
31.2412
30.2194
29.2276
28.238
27.2495
26.2903
25.3807
24.5078
23.6619
22.8735
22.2448
21.9196
22.6006
49.3535
46.8842
42.9
38.9033
35.7855
33.6544
32.2901
31.2494
30.2403
29.2534
28.2562
27.259
26.2999
25.3834
24.501
23.6613
22.8826
22.2612
21.9755
22.7511
49.1793
46.8435
42.9555
38.9766
35.8296
33.6592
32.2883
31.2543
30.2513
29.2667
28.265
27.2639
26.3085
25.3853
24.4991
23.6662
22.8966
22.2788
22.0205
22.8312
49.1788
46.844
42.9574
38.9759
35.8269
33.6633
32.2904
31.2512
30.2504
29.2707
28.2668
27.2633
26.313
25.391
24.5005
23.6754
22.9142
22.2937
22.0425
22.8676
49.3539
46.8854
42.901
38.904
35.7819
33.6571
32.2955
31.2454
30.241
29.2619
28.2574
27.2588
26.3168
25.3969
24.5051
23.6887
22.9342
22.3118
22.0402
22.8472
49.7106
46.9598
42.787
38.7606
35.6916
33.6483
32.303
31.2287
30.2198
29.2463
28.2406
27.2459
26.3168
25.4069
24.513
23.7048
22.9593
22.3291
22.0184
22.7784
50.2613
47.0605
42.6027
38.5472
35.5653
33.6299
32.307
31.2069
30.1907
29.2177
28.215
27.2288
26.3156
25.4139
24.5215
23.7273
22.992
22.3543
21.9786
22.6352
51.0187
47.1726
42.3345
38.2654
35.4231
33.6031
32.3019
31.1695
30.1509
29.1843
28.182
27.2018
26.3103
25.4201
24.5323
23.7499
23.0322
22.3893
21.9587
22.4071
52.0023
47.2708
41.9679
37.9153
35.2671
33.56
32.2773
31.1219
30.1029
29.1394
28.1444
27.1709
26.3055
25.423
24.5411
23.769
23.0822
22.438
21.968
22.1134
53.2516
47.298
41.4892
37.5088
35.0948
33.4948
32.2346
31.0626
30.0452
29.095
28.1095
27.1392
26.2972
25.4226
24.5514
23.7841
23.1289
22.483
22.013
21.8239
54.7882
47.2359
40.9016
37.0835
34.9097
33.4093
32.1748
31.0056
29.9975
29.0575
28.0827
27.1203
26.2917
25.422
24.5611
23.7958
23.1604
22.5182
22.0634
21.6768
56.7552
47.1579
40.2969
36.7079
34.7436
33.3303
32.1284
30.9743
29.9739
29.0392
28.0731
27.1174
26.2907
25.4241
24.5691
23.8059
23.1739
22.5381
22.0552
21.601
59.869
47.5118
40.1272
36.5933
34.6849
33.3053
32.1192
30.9749
29.9774
29.0397
28.075
27.1225
26.2926
25.4245
24.5738
23.8106
23.1754
22.543
22.0553
21.7228
21.3035
21.3127
21.2119
21.0844
20.9684
20.8752
20.7917
20.6989
20.5817
20.4209
20.2292
20.0218
19.8521
19.8047
19.9131
20.2278
20.7583
21.5019
22.3034
22.9807
23.4854
23.7038
23.6838
23.2068
22.2064
21.154
20.1798
19.2407
18.3248
17.5261
16.8246
16.2344
15.8563
15.7169
15.8009
16.0641
16.4367
16.8666
17.3261
17.848
18.3874
18.8867
19.2954
19.576
19.7318
19.7801
19.721
19.5922
19.4395
19.2235
18.9514
18.6381
18.3029
17.9727
17.6431
17.336
17.1068
16.9889
16.9761
17.0618
17.2387
17.4574
17.7478
18.0929
18.5021
18.9915
19.5479
20.1522
20.7616
21.3922
21.9168
22.3202
22.6284
22.7274
22.5792
22.2859
21.7492
20.9192
19.9911
18.8647
17.5496
16.0891
14.4522
12.9078
11.1793
9.45191
7.86739
6.21397
4.85034
3.54774
2.38299
1.54526
0.756946
0.0825966
-0.213044
-0.428052
-0.664556
-0.558388
-0.412102
-0.232166
0.289875
0.849775
1.31619
1.9408
2.79059
3.64985
4.47052
5.41488
6.51223
7.58204
8.61115
9.74706
10.9898
12.0657
13.2605
14.4309
15.6121
16.67
17.6859
18.6254
19.3327
19.9993
20.2536
20.3027
20.1211
19.5874
18.607
17.4633
16.0893
14.1584
12.2427
10.3778
8.60065
6.92965
5.69943
4.81387
4.01694
3.70167
3.69738
4.43048
5.63904
6.86833
8.49111
10.2175
12.0791
13.9409
15.7756
17.9239
20.1159
22.2604
24.3392
26.3483
28.3771
30.2802
32.064
33.8437
35.4708
37.1752
38.7928
40.3472
41.9154
43.4319
44.5256
45.5589
46.2905
46.5433
46.8035
47.1462
47.5374
47.6593
48.0723
47.8663
47.0938
45.9913
44.5203
42.9101
41.1994
39.7698
38.1877
36.4207
34.7974
33.0281
31.2997
29.3977
28.136
27.059
25.3829
24.0195
22.3341
20.4532
18.6923
16.9486
15.7747
14.7006
14.385
14.5183
14.3551
14.1534
14.1999
15.2961
21.0531
21.1217
21.1622
21.1069
20.9686
20.8281
20.7103
20.607
20.511
20.3845
20.2397
20.0899
19.9688
19.9485
20.0589
20.3371
20.8018
21.4333
22.162
22.8246
23.3248
23.554
23.4178
22.9681
22.1586
21.1497
20.1719
19.2595
18.3845
17.6411
16.9864
16.4298
16.0268
15.8338
15.9296
16.1741
16.5058
16.8978
17.2968
17.7742
18.283
18.7424
19.1705
19.4533
19.6091
19.6813
19.6363
19.5471
19.4043
19.2037
18.973
18.6818
18.3631
18.0678
17.7747
17.5036
17.3053
17.1696
17.1607
17.2358
17.3765
17.6045
17.874
18.1993
18.612
19.071
19.5852
20.1768
20.7244
21.3043
21.8159
22.1612
22.4591
22.5495
22.3815
22.0711
21.5586
20.7363
19.8104
18.7118
17.4278
16.0412
14.4587
12.9241
11.3512
9.67185
8.17976
6.62432
5.26096
4.184
3.07097
2.22688
1.5589
0.930047
0.642172
0.536346
0.262735
0.373251
0.675713
0.852457
1.30778
1.95612
2.44318
3.04343
3.87649
4.81405
5.58603
6.50408
7.53393
8.54984
9.48754
10.5541
11.7433
12.7456
13.8636
14.876
16.012
16.9983
17.9366
18.7984
19.4943
20.1277
20.263
20.2236
19.8465
18.9966
17.6485
16.0525
14.1143
11.619
9.15955
6.72946
4.30521
2.18531
0.622991
-0.51844
-1.34153
-1.57853
-1.41256
-0.573875
0.885755
2.7399
4.74676
6.79433
9.31096
11.8679
14.2737
16.7564
19.3303
21.8758
24.5118
26.9722
29.3446
31.5202
33.6539
35.6254
37.2228
38.9123
40.4327
41.8977
43.2212
44.3431
45.3585
46.087
46.6171
46.3955
46.8371
46.8696
47.1476
47.0886
46.9003
46.0774
45.0856
43.4547
41.6129
39.8605
38.0301
36.5246
35.1037
33.5064
31.849
30.5747
28.9869
27.3285
26.2863
25.5224
24.325
23.124
21.6583
19.9749
18.7266
17.187
15.4835
14.7519
14.2698
14.1928
14.1653
13.7401
13.6768
14.1937
20.9762
21.1037
21.2564
21.2398
21.0374
20.8019
20.62
20.4907
20.4279
20.3459
20.2703
20.1867
20.1197
20.1299
20.2302
20.4768
20.8656
21.3947
22.0005
22.569
22.977
23.1463
23.0523
22.665
22.0186
21.135
20.2042
19.3167
18.4795
17.7897
17.1729
16.6845
16.3247
16.1075
16.1392
16.3117
16.6018
16.9802
17.3283
17.7548
18.2128
18.63
19.0609
19.3328
19.4684
19.5615
19.5192
19.4555
19.3589
19.1512
18.966
18.7272
18.4128
18.1787
17.9003
17.6573
17.5254
17.3615
17.3576
17.4374
17.525
17.7696
18.0202
18.3089
18.7175
19.1381
19.6006
20.1583
20.6534
21.1532
21.641
21.9259
22.1846
22.2536
22.0777
21.7703
21.2742
20.4888
19.5742
18.5486
17.3232
16.0016
14.495
13.066
11.6102
10.0302
8.585
7.23364
5.97741
4.97148
3.94411
3.17298
2.61908
2.02235
1.71456
1.71828
1.54048
1.60425
1.9848
2.25011
2.58166
3.22958
3.87612
4.43238
5.15811
6.0699
6.84022
7.61552
8.56025
9.56456
10.4202
11.4194
12.4255
13.3547
14.3692
15.3305
16.3852
17.3149
18.3165
19.1413
19.8511
20.4585
20.6215
20.4474
19.887
18.7891
16.94
14.8619
12.296
9.23209
6.23725
3.19559
0.279916
-2.27775
-4.36085
-5.83451
-6.66364
-6.83703
-6.43762
-5.48917
-3.94203
-1.65803
0.935424
3.49783
6.25348
9.27702
12.4198
15.6069
18.6631
21.4671
24.4697
27.2513
30.0666
32.4662
34.8101
36.8944
38.6495
40.4102
41.693
42.896
44.0004
44.886
45.7499
46.4861
46.7852
46.1992
46.5779
46.2871
46.8458
46.417
45.7682
44.0579
42.2293
40.1627
38.0867
35.7249
34.2919
32.6484
31.268
29.9833
28.6061
27.3819
26.0317
25.1794
24.3912
23.7506
23.1237
22.0705
21.283
20.0726
19.0491
17.3905
15.8907
15.3539
14.706
14.6354
14.4678
13.8811
13.7349
13.7735
21.0758
21.1689
21.2218
21.0787
20.8023
20.5643
20.4207
20.3335
20.3412
20.3265
20.3258
20.3114
20.2884
20.3262
20.4108
20.6141
20.9162
21.326
21.7864
22.2244
22.5466
22.6994
22.639
22.3207
21.8034
21.0514
20.2319
19.4037
18.6083
17.9802
17.3945
16.9743
16.6799
16.43
16.4252
16.5201
16.7415
17.1172
17.4096
17.7926
18.208
18.5385
18.9548
19.2023
19.3193
19.4367
19.379
19.3385
19.2757
19.0855
18.9378
18.7446
18.4709
18.2774
18.0416
17.8179
17.7318
17.5757
17.5713
17.6444
17.7054
17.9464
18.1689
18.4381
18.8195
19.1843
19.6065
20.1025
20.5221
20.9676
21.379
21.6137
21.834
21.878
21.6724
21.4357
20.9198
20.1745
19.3613
18.411
17.2242
16.0126
14.6877
13.3446
11.9683
10.5727
9.33899
8.04005
6.88779
5.99078
5.12024
4.33793
3.88581
3.4135
3.10602
3.16509
3.11714
3.10527
3.47142
3.85125
4.14988
4.72539
5.38235
5.89845
6.49443
7.3438
8.1198
8.77404
9.64495
10.5246
11.285
12.1266
13.0197
13.9472
14.8173
15.7704
16.7536
17.7024
18.7604
19.6581
20.4669
21.0762
21.3228
21.0337
20.3493
18.9602
16.6887
14.1414
10.8156
7.16751
3.67774
-0.059055
-3.27955
-6.02145
-8.64768
-10.512
-11.5254
-11.7793
-11.2348
-10.1082
-8.338
-5.8966
-2.94584
0.201077
3.39388
6.82218
10.2333
13.914
17.596
21.0514
24.5178
27.5862
30.6295
33.1385
35.7009
37.8637
39.6895
41.2226
42.4866
43.5081
44.5017
45.2993
45.8539
46.2419
46.3997
45.2484
45.9608
44.856
46.0023
44.9059
44.2275
41.9802
39.5278
36.6598
33.9279
31.6742
30.1407
28.558
27.0031
25.7457
24.6524
23.6965
22.7907
22.2586
22.1002
21.9606
21.9664
21.4305
21.0402
20.1444
19.1168
17.8468
16.8534
16.3924
15.8521
15.2569
14.8563
14.1152
13.7747
13.7129
22.583
22.3532
21.388
20.6358
20.1595
19.9864
20.0082
20.0853
20.2301
20.3094
20.3913
20.4358
20.4536
20.5122
20.5743
20.7344
20.9408
21.2274
21.5428
21.8542
22.0983
22.2154
22.1905
21.9389
21.5411
20.9189
20.2279
19.504
18.7669
18.2046
17.6565
17.284
17.04
16.8008
16.7787
16.8043
16.9509
17.2865
17.5339
17.8753
18.2432
18.4925
18.8724
19.0775
19.1912
19.3174
19.2288
19.2175
19.1594
18.9945
18.9033
18.7169
18.5063
18.3619
18.1544
17.9833
17.9243
17.795
17.7806
17.8747
17.899
18.1162
18.342
18.5528
18.9075
19.2348
19.5808
20.0152
20.3702
20.7326
21.0808
21.2628
21.4396
21.4505
21.2695
21.0234
20.5645
19.8972
19.1647
18.2393
17.2395
16.1715
14.925
13.7475
12.5457
11.3328
10.1609
9.04205
8.03471
7.22746
6.48191
5.75783
5.37174
5.08714
4.73936
4.73401
4.84087
4.80335
5.09245
5.53369
5.82688
6.2031
6.84569
7.37895
7.87588
8.61699
9.30799
9.86194
10.5938
11.3721
12.0673
12.8016
13.638
14.4145
15.2066
16.1598
17.1145
18.1462
19.258
20.3263
21.2371
21.9626
22.3051
21.96
21.2353
19.5176
16.8895
13.8558
9.90731
5.58989
1.42765
-2.77904
-6.47597
-9.62396
-12.393
-14.4859
-15.7695
-16.0959
-15.6236
-14.4632
-12.2226
-9.46309
-6.37474
-2.96317
0.600138
4.44526
8.28311
12.358
16.2681
20.2526
24.144
27.707
31.1062
33.8449
36.5197
38.4623
40.5857
41.7746
43.1899
43.9464
44.684
45.3962
45.4379
45.7019
45.4734
44.0929
44.6077
42.9681
43.8188
41.8723
41.1529
38.5548
36.1848
33.0326
30.0017
27.6691
26.2011
24.4292
22.7032
21.3962
20.066
19.2002
19.0184
19.1104
19.5954
20.0818
20.6408
20.7729
20.7745
20.4306
19.7203
19.1023
18.2751
17.4614
16.6285
15.8042
15.4771
14.7465
14.2316
14.1378
23.6296
23.2316
21.6098
20.3641
19.6544
19.4568
19.5934
19.8249
20.1047
20.3003
20.4656
20.564
20.6146
20.6772
20.7161
20.8241
20.9488
21.1207
21.3223
21.5203
21.6861
21.7686
21.7541
21.5681
21.2662
20.7663
20.2054
19.5899
18.9424
18.4398
17.9391
17.6087
17.3762
17.1788
17.1366
17.1224
17.226
17.4568
17.692
17.979
18.2703
18.5147
18.7918
18.9811
19.0946
19.1804
19.1116
19.091
19.0258
18.9134
18.8521
18.6696
18.5445
18.4152
18.2484
18.164
18.0773
18.004
18.0112
18.0539
18.1157
18.2879
18.4724
18.6788
18.9835
19.238
19.5636
19.911
20.1878
20.5161
20.7764
20.9216
21.0451
21.058
20.8622
20.6334
20.2594
19.6515
18.9726
18.1675
17.3447
16.3542
15.2658
14.3006
13.2496
12.106
11.1032
10.2022
9.27972
8.55234
7.96847
7.33511
6.97983
6.74439
6.43432
6.40319
6.50758
6.54991
6.7243
7.09743
7.3911
7.69419
8.29102
8.78368
9.1601
9.73982
10.3866
10.872
11.4892
12.2136
12.8045
13.396
14.1238
14.8443
15.6435
16.5018
17.4832
18.5585
19.703
20.9569
22.0808
23.0277
23.515
23.2856
22.4182
20.3988
17.4954
13.924
9.5024
4.54235
-0.445399
-5.22588
-9.50366
-13.3475
-16.3568
-18.5437
-20.0158
-20.3738
-19.8945
-18.3272
-15.7658
-12.6346
-9.09008
-5.45901
-1.7261
2.13906
6.25157
10.8331
15.1728
19.6147
23.7878
27.7938
31.3947
34.3639
37.2147
39.0329
41.3359
42.3757
43.7551
44.6344
44.7511
45.2769
45.1258
44.8902
44.0035
42.5624
41.8633
40.3389
40.4619
38.6968
37.9047
34.7443
32.4813
28.8862
26.4697
23.9163
22.4113
20.2308
18.6694
17.1926
15.607
14.316
14.3469
15.6411
17.1088
18.3669
19.5574
20.4083
20.7314
20.9872
20.7715
20.3124
19.6596
18.7524
18.0925
17.5543
16.9624
16.0592
15.4207
15.2781
24.2337
23.825
21.8886
20.3261
19.4127
19.1207
19.2824
19.6013
19.9748
20.2778
20.5136
20.6701
20.7429
20.8088
20.8233
20.8823
20.9459
21.0243
21.1393
21.2453
21.3428
21.3979
21.375
21.2409
21.0074
20.6169
20.1664
19.6659
19.113
18.6651
18.2222
17.9035
17.6854
17.4988
17.4497
17.4189
17.4913
17.6412
17.8371
18.0781
18.2994
18.5341
18.7381
18.8977
19.0091
19.0618
19.0228
18.981
18.9258
18.8413
18.794
18.6537
18.5448
18.471
18.3292
18.2831
18.2378
18.176
18.2022
18.2381
18.2973
18.4441
18.5984
18.7867
19.0312
19.2481
19.5278
19.7926
20.0274
20.3055
20.5028
20.6155
20.7167
20.6969
20.5196
20.3499
19.9742
19.436
18.9064
18.1738
17.44
16.6205
15.689
14.8349
13.9153
12.9303
12.0795
11.3331
10.5011
9.88813
9.4291
8.84859
8.50897
8.31387
8.08821
7.99355
8.11173
8.16306
8.21568
8.59132
8.88858
9.11914
9.58801
10.0368
10.3467
10.8549
11.4614
11.8442
12.3405
12.9624
13.4994
14.003
14.6342
15.2743
15.9388
16.7176
17.6662
18.7872
20.1001
21.5447
22.9523
24.1126
24.8129
24.8211
23.8841
21.7111
18.4505
14.3249
9.14089
3.47135
-2.16573
-7.608
-12.3639
-16.7289
-20.49
-22.9195
-24.3253
-24.8747
-24.1565
-22.0595
-18.866
-15.4168
-11.4871
-7.37241
-3.5213
0.479682
4.78299
9.35896
13.9412
18.8248
23.3883
27.8839
31.7297
35.005
37.8299
39.9282
41.9931
43.0455
44.1755
45.0465
44.9816
45.2859
44.4139
43.5646
42.0829
40.9665
40.1981
39.5213
38.9514
37.8142
36.3494
32.9769
30.7333
26.4588
23.8511
20.7155
19.2514
16.3615
15.2436
12.6288
10.2654
9.35554
9.98756
11.7701
14.215
16.6792
18.5158
20.0639
21.0462
21.9586
22.2033
22.1946
21.9683
21.2824
20.6651
19.6413
18.6615
17.8887
17.2758
17.1034
24.58
24.2149
22.1688
20.4265
19.3647
18.9482
19.0752
19.4236
19.8591
20.2415
20.5328
20.7331
20.8332
20.9013
20.8941
20.9088
20.9236
20.9297
20.9867
21.0142
21.0735
21.0975
21.0712
20.9757
20.7842
20.4909
20.1266
19.7262
19.2611
18.8547
18.4656
18.1586
17.9433
17.767
17.7123
17.6689
17.7347
17.821
17.9666
18.1821
18.3172
18.5562
18.7049
18.8148
18.9545
18.9461
18.9501
18.9128
18.8212
18.8059
18.7455
18.6317
18.5856
18.497
18.404
18.3973
18.3544
18.3329
18.3654
18.3854
18.4597
18.5766
18.695
18.8689
19.0677
19.2509
19.476
19.6981
19.8956
20.1078
20.285
20.3773
20.4381
20.4397
20.2708
20.0957
19.7672
19.3316
18.8722
18.2239
17.5825
16.9327
16.1218
15.3092
14.5838
13.7639
12.9871
12.4052
11.6833
11.1444
10.7671
10.2411
9.94875
9.78909
9.61672
9.47663
9.53595
9.65386
9.66569
9.97868
10.2615
10.423
10.8285
11.2541
11.5725
11.9486
12.4379
12.8247
13.2251
13.7426
14.2138
14.5985
15.0113
15.5441
16.0527
16.7687
17.694
18.8347
20.2743
21.9047
23.6732
25.1973
26.2098
26.3579
25.5016
23.2079
19.4727
14.7147
8.66334
2.31079
-3.98798
-10.0007
-15.0092
-19.3736
-23.3245
-26.3702
-27.9458
-28.3988
-27.4767
-25.2226
-21.8228
-17.8458
-13.2728
-8.86609
-4.83158
-0.736276
3.73818
8.37947
13.1147
18.2242
23.0367
27.854
31.9673
35.6337
38.448
40.9056
42.4469
43.7846
44.4615
45.2978
45.0104
45.0551
43.387
42.9985
41.8418
41.5099
41.1957
40.8797
39.521
37.7422
34.553
31.0349
28.8849
25.2987
22.9502
19.6565
17.0859
13.1219
12.3275
8.24106
4.63827
3.43207
5.15642
8.33653
11.5444
14.6824
17.4987
20.0092
21.9077
23.3294
24.1092
24.6839
24.4998
23.8138
23.0371
22.061
21.3672
20.5651
19.8882
19.5221
24.7608
24.3774
22.3595
20.5236
19.3661
18.8649
18.9435
19.3009
19.7751
20.212
20.5406
20.7704
20.8872
20.9576
20.9353
20.912
20.8893
20.8468
20.8667
20.8467
20.8623
20.8745
20.8288
20.7575
20.6008
20.3686
20.0826
19.7633
19.3709
19.0139
18.6716
18.3819
18.1773
17.9968
17.945
17.8934
17.927
17.9977
18.0754
18.2621
18.3569
18.5456
18.6937
18.7497
18.8928
18.8823
18.8737
18.8759
18.7578
18.7622
18.7322
18.6079
18.6122
18.534
18.4483
18.4953
18.4394
18.453
18.5154
18.4942
18.6064
18.6906
18.7571
18.9575
19.0909
19.2307
19.4561
19.6082
19.774
19.9639
20.1029
20.1766
20.232
20.2288
20.0762
19.9207
19.6443
19.2588
18.8704
18.3221
17.7816
17.2276
16.5117
15.8379
15.2425
14.5444
13.8682
13.4133
12.791
12.2692
12.0082
11.5599
11.2651
11.1869
10.9852
10.8424
10.9273
11.0497
11.0413
11.2446
11.5597
11.7205
12.0793
12.4367
12.7225
13.0281
13.4335
13.8551
14.1248
14.527
14.8133
15.1093
15.3588
15.7017
16.116
16.5732
17.4259
18.5523
20.1914
22.0648
24.1147
26.018
27.2389
27.6438
26.797
24.2674
20.3178
14.9826
8.19357
1.22456
-5.64157
-11.7659
-17.0388
-21.5891
-25.3991
-28.2777
-29.8958
-30.4287
-29.5503
-27.2238
-23.8362
-19.6448
-14.6433
-10.0333
-5.55748
-1.24473
3.03627
7.61234
12.6423
17.7517
22.8819
28.0094
32.366
36.2224
39.0369
41.6616
42.9964
44.5068
44.8844
45.4786
44.8475
44.8439
43.3724
43.6582
42.5498
43.183
42.1789
41.4886
39.3805
37.3161
33.7389
29.5781
26.0385
22.9296
22.3035
19.8782
16.1694
12.3267
10.6579
4.25101
-0.395009
-1.56126
0.356296
4.27144
8.74992
12.9437
16.6793
20.1995
23.1536
24.7147
25.87
26.9502
27.0054
26.7129
26.081
25.2117
24.641
23.5111
22.4402
21.8085
24.8393
24.5038
22.4884
20.63
19.4093
18.8602
18.9028
19.2502
19.7432
20.2082
20.5555
20.8028
20.9142
20.9864
20.9504
20.8929
20.8441
20.7689
20.767
20.7134
20.6937
20.6944
20.6379
20.5815
20.4458
20.2638
20.0388
19.7772
19.4621
19.1336
18.8431
18.5731
18.3696
18.2195
18.1314
18.087
18.0996
18.1311
18.2014
18.3262
18.4039
18.55
18.676
18.7154
18.8375
18.8364
18.8145
18.8377
18.7159
18.7277
18.7164
18.5953
18.6322
18.5708
18.497
18.558
18.5242
18.5486
18.6144
18.6098
18.6996
18.7753
18.8355
18.9993
19.1123
19.2366
19.422
19.5468
19.6887
19.8473
19.9532
20.0203
20.0739
20.0466
19.9338
19.7998
19.5473
19.2296
18.9174
18.4496
17.9952
17.5278
16.9216
16.3809
15.8883
15.2802
14.7348
14.3323
13.8233
13.3612
13.1398
12.8541
12.4809
12.4398
12.3304
12.1624
12.2635
12.3111
12.384
12.5073
12.8273
13.016
13.2446
13.5926
13.8301
14.1716
14.4108
14.803
14.9886
15.2771
15.5153
15.532
15.7422
15.7487
15.9992
16.2419
16.9219
18.0858
19.6232
21.8531
24.0773
26.2384
27.7957
28.1726
27.2796
24.7996
20.6959
14.9076
7.93254
0.571953
-6.70629
-12.7329
-18.1965
-22.7966
-26.6328
-29.5114
-30.8327
-30.9917
-30.4411
-28.2215
-24.9135
-20.4405
-15.4297
-10.6119
-5.89297
-1.63954
2.8116
7.40975
12.5049
17.677
22.9456
28.204
32.7505
36.7152
39.88
42.471
43.8951
45.2497
45.4595
45.8122
45.008
45.0279
44.171
43.8569
42.9715
42.6885
42.0833
41.9475
39.1951
36.6001
33.6184
29.6924
24.4307
20.972
21.4425
19.7338
16.5659
12.4494
8.65111
1.47489
-3.70131
-5.42754
-3.54644
0.998559
6.03311
11.2079
16.3597
20.8279
24.2606
26.3154
28.5078
29.7608
29.8288
29.778
28.9995
27.8625
27.3478
26.2263
25.0491
24.3394
24.8812
24.5289
22.5248
20.6651
19.4429
18.8893
18.9251
19.2692
19.7692
20.2327
20.5839
20.8268
20.9235
20.9867
20.9425
20.8586
20.7939
20.6939
20.6789
20.6101
20.5569
20.5545
20.486
20.442
20.3226
20.1631
19.9979
19.7727
19.5278
19.2314
18.9842
18.7542
18.5488
18.4243
18.3065
18.2636
18.2527
18.257
18.3151
18.3909
18.4502
18.5595
18.6539
18.6908
18.7868
18.7924
18.7723
18.7892
18.6957
18.6981
18.6974
18.602
18.6359
18.6034
18.5457
18.602
18.5956
18.6227
18.6956
18.7016
18.7827
18.8545
18.8989
19.0419
19.1322
19.2441
19.3959
19.4928
19.6306
19.7432
19.8275
19.9126
19.9296
19.9143
19.8372
19.7056
19.4959
19.2538
18.9851
18.6058
18.218
17.847
17.3685
16.8839
16.5175
15.9995
15.5214
15.2184
14.7888
14.4248
14.2318
14.0087
13.6763
13.6561
13.6397
13.4049
13.5271
13.5704
13.6756
13.7851
13.9865
14.2606
14.3566
14.757
14.9106
15.1907
15.4073
15.6558
15.9607
15.9658
16.231
15.998
15.9777
15.9078
15.6994
15.9411
16.1809
17.2908
18.914
21.0087
23.6467
25.8052
27.3135
27.8779
27.0998
24.6476
20.3374
14.4244
7.49609
0.0620519
-6.92925
-12.88
-18.3266
-22.7461
-26.8458
-29.6923
-31.0919
-31.7495
-30.6588
-28.5665
-25.1304
-20.613
-15.68
-10.6511
-5.86729
-1.54518
2.83826
7.62751
12.6624
17.835
23.3013
28.8531
33.3209
37.5767
40.9748
43.3126
44.9527
46.0081
46.2077
46.3738
45.6175
45.4283
44.7873
43.7713
43.2084
42.4267
42.1493
42.0996
39.2108
36.9362
33.1831
29.3178
24.0183
20.3707
20.9802
19.8331
17.2248
13.2273
7.76957
0.029949
-4.89353
-8.15048
-6.7286
-1.67071
4.15102
10.3361
16.5585
22.4666
26.1978
28.5232
31.3639
32.3631
32.4016
32.5494
31.9105
30.9181
30.306
29.0874
27.7497
26.7152
24.8615
24.512
22.4926
20.66
19.4854
18.9744
19.0269
19.3721
19.8524
20.2965
20.6198
20.8425
20.9133
20.9573
20.911
20.8067
20.7353
20.6209
20.5934
20.5275
20.4451
20.4442
20.3677
20.3348
20.2275
20.0822
19.962
19.7646
19.577
19.3123
19.0998
18.913
18.7073
18.6059
18.4724
18.4138
18.4075
18.3595
18.4254
18.4566
18.49
18.588
18.6247
18.6825
18.7407
18.7415
18.7462
18.7263
18.679
18.679
18.6655
18.6274
18.6287
18.6375
18.609
18.6241
18.6651
18.688
18.7458
18.7853
18.8496
18.9069
18.9627
19.0733
19.1509
19.254
19.3762
19.4603
19.5753
19.6684
19.7354
19.8088
19.8323
19.8085
19.7546
19.6619
19.4731
19.2939
19.0946
18.753
18.4797
18.1856
17.7835
17.3984
17.0936
16.7068
16.2654
16.0604
15.7431
15.4267
15.257
15.0843
14.92
14.7927
14.8216
14.6743
14.7118
14.832
14.8387
15.0046
15.1091
15.3959
15.4983
15.7247
15.9318
16.0739
16.4017
16.443
16.7423
16.6936
16.719
16.6487
16.1345
16.0511
15.5563
15.3048
15.7185
16.3758
17.8634
20.0671
22.5419
24.7233
26.1338
26.6093
25.859
23.6013
19.6247
13.893
6.97769
-0.198093
-6.92875
-12.7045
-17.6863
-21.7598
-26.0528
-28.6647
-30.4768
-31.013
-29.8793
-28.1278
-24.3883
-20.2235
-15.239
-10.1694
-5.58763
-1.1668
3.32502
8.1019
13.2572
18.5445
24.065
29.6593
34.2015
38.7781
41.9915
44.2169
46.0527
46.8777
47.0601
47.0896
46.4088
46.0247
45.2761
43.9849
42.9803
42.3343
42.0221
41.2528
39.5174
37.6214
33.0406
29.4364
23.9
21.2409
21.387
21.1871
18.1862
14.9484
9.7808
-0.230116
-5.03285
-10.2601
-8.6502
-3.13883
3.31448
10.3778
17.9131
24.3639
27.619
31.1444
34.5279
35.1856
35.5379
36.0309
35.2607
34.0331
32.9564
31.4486
30.0606
28.9587
24.7468
24.379
22.3886
20.6213
19.5328
19.0972
19.2
19.549
19.9902
20.3941
20.6713
20.8547
20.8947
20.9073
20.858
20.7387
20.6696
20.5485
20.5145
20.4568
20.3602
20.3569
20.2819
20.254
20.1604
20.0134
19.9267
19.7536
19.6036
19.3903
19.1901
19.0548
18.8526
18.7607
18.6362
18.5531
18.5508
18.4741
18.5163
18.5368
18.5267
18.6094
18.6145
18.6532
18.7049
18.6864
18.7079
18.68
18.6514
18.6621
18.6469
18.6315
18.6402
18.6573
18.6475
18.6684
18.7045
18.7499
18.7968
18.8409
18.9175
18.9543
19.015
19.1112
19.1666
19.2644
19.3674
19.4259
19.533
19.6101
19.6505
19.7353
19.746
19.7347
19.7065
19.6289
19.5011
19.3506
19.2091
18.9508
18.739
18.5136
18.1898
17.9138
17.6486
17.3687
17.0332
16.8607
16.6528
16.3544
16.2813
16.141
16.028
15.9121
15.9059
15.9033
15.8038
15.9529
15.9397
16.0852
16.2191
16.3263
16.5271
16.5477
16.785
16.866
17.0821
17.1953
17.243
17.3734
17.106
17.0432
16.6056
15.9668
15.6739
15.1277
14.9985
15.9015
17.2486
19.1203
21.3115
23.1155
24.2236
24.5602
23.8653
21.9249
18.4014
13.2841
6.97667
0.144249
-6.26347
-11.8781
-16.6641
-20.5523
-24.383
-26.7333
-28.9824
-29.0101
-28.2477
-26.4172
-22.7084
-19.14
-14.0381
-9.41641
-4.93101
-0.471714
4.10443
9.01318
14.2274
19.2718
25.5236
30.5979
35.3516
40.017
43.0099
45.4204
47.2516
47.9959
47.9941
47.8844
47.2545
46.8976
45.9624
44.7145
43.2415
42.7538
42.442
41.35
39.7338
38.246
33.389
31.8689
25.1281
24.7091
23.2259
23.1921
20.0559
18.7371
13.2088
2.15334
-3.77992
-11.3622
-8.12479
-3.3189
3.4725
11.6189
20.164
26.1834
29.827
34.4552
37.5389
38.3353
38.9902
38.9393
37.6529
36.9452
35.8122
33.8564
32.4823
31.286
24.4898
24.111
22.2255
20.6101
19.6538
19.3257
19.4751
19.8033
20.1813
20.5148
20.7263
20.8534
20.856
20.8373
20.7766
20.6677
20.5903
20.486
20.4428
20.3886
20.3018
20.2795
20.217
20.1774
20.0991
19.972
19.8871
19.7524
19.6197
19.4498
19.2821
19.157
18.9972
18.8927
18.7858
18.6985
18.6653
18.5967
18.6007
18.5984
18.5831
18.6194
18.6138
18.6425
18.6569
18.6527
18.6628
18.633
18.6297
18.6334
18.6254
18.6356
18.6423
18.6649
18.6902
18.6991
18.7506
18.802
18.8365
18.9035
18.959
19.0028
19.0659
19.1312
19.1977
19.2729
19.3512
19.4183
19.4906
19.5609
19.6034
19.6606
19.6907
19.6803
19.6727
19.6211
19.5356
19.4322
19.327
19.1639
18.988
18.8339
18.6045
18.4045
18.1936
17.9951
17.7935
17.5917
17.4725
17.2833
17.1999
17.1075
17.002
16.9803
16.8964
16.9072
16.8285
16.8632
16.9169
16.9473
17.1007
17.1297
17.2514
17.2463
17.322
17.4617
17.5438
17.6883
17.6642
17.7269
17.5449
17.2383
16.9948
16.29
15.6469
15.3462
15.2238
15.7845
17.046
18.6192
20.1782
21.2967
21.8716
21.8979
21.2374
19.6142
16.7959
12.58
7.1526
1.11275
-4.84076
-10.3319
-14.9271
-18.8317
-22.3371
-24.6407
-26.6851
-26.5867
-26.1634
-23.9823
-20.9967
-17.4202
-12.8647
-8.46812
-4.07775
0.40068
5.13766
10.0875
15.4191
20.7117
27.0033
31.8264
36.8887
41.3391
44.2264
46.8892
48.5321
49.1574
48.9598
48.8111
48.2494
48.0256
47.0933
45.8781
44.122
44.0447
43.7903
43.3707
41.769
39.316
34.2816
32.4318
28.126
27.402
23.2834
23.9916
21.959
18.7935
13.5293
5.77047
-0.829645
-9.38753
-5.0114
-2.09996
5.19527
14.102
22.3759
27.6743
32.6209
37.6445
39.9821
41.195
42.3855
41.9644
40.4401
40.0467
38.6455
36.2843
34.7976
33.3562
23.9855
23.6227
21.9978
20.665
19.9099
19.6909
19.8473
20.1168
20.4091
20.639
20.7728
20.8354
20.803
20.7592
20.688
20.5904
20.515
20.4251
20.3781
20.3246
20.2531
20.2195
20.1635
20.1143
20.0478
19.9409
19.8567
19.7544
19.628
19.5042
19.3648
19.2403
19.128
19.0072
18.9181
18.8379
18.7634
18.7224
18.6796
18.6565
18.6451
18.6216
18.6258
18.6243
18.6129
18.6218
18.6083
18.5938
18.6046
18.5994
18.6121
18.6338
18.6396
18.6845
18.7126
18.7316
18.7942
18.8335
18.8825
18.9487
18.9922
19.0486
19.1045
19.1593
19.223
19.2838
19.3478
19.4051
19.4661
19.5199
19.562
19.6148
19.637
19.6493
19.6549
19.6221
19.5815
19.5253
19.448
19.3505
19.2416
19.1238
18.9809
18.8387
18.6956
18.5509
18.4125
18.2638
18.1695
18.0694
17.9648
17.9169
17.8553
17.7983
17.725
17.6828
17.6173
17.5731
17.5864
17.5992
17.6743
17.7002
17.7208
17.6831
17.6802
17.7701
17.8117
17.8979
17.9204
17.9098
17.8159
17.5186
17.1629
16.7102
16.1836
15.8087
15.9122
16.4302
17.327
18.3619
19.1453
19.5549
19.508
19.1579
18.2407
16.9079
14.8876
11.8307
7.64274
2.62029
-2.75272
-7.88461
-12.4867
-16.5827
-19.8395
-22.3867
-24.1894
-24.2821
-24.0588
-21.8195
-19.2903
-15.7782
-11.6999
-7.40068
-3.06972
1.57169
6.41948
11.503
17.0333
22.719
28.685
33.6045
38.4799
42.751
45.7716
48.3176
49.7245
50.2076
50.0245
49.9039
49.5566
49.3614
48.4394
47.2949
46.2028
45.6866
45.9011
45.7619
45.3266
41.1504
35.975
30.4977
26.3633
30.8276
19.9199
20.4943
23.9045
15.6106
14.1345
9.25171
2.53515
-2.11756
-0.0841438
-0.838461
8.51827
16.7182
24.1565
29.8638
35.725
40.1893
42.5901
44.8476
45.7893
44.5822
43.196
42.9359
41.1082
38.3709
36.7108
35.2208
23.1829
22.9176
21.7699
20.8442
20.3326
20.1872
20.2913
20.4559
20.6257
20.7431
20.7941
20.7988
20.7404
20.681
20.6021
20.5205
20.451
20.377
20.3314
20.2743
20.2209
20.1753
20.1202
20.0696
19.9999
19.9188
19.835
19.7494
19.6425
19.5376
19.4319
19.3122
19.2263
19.1144
19.0227
18.9548
18.8568
18.8134
18.7562
18.7014
18.688
18.6403
18.6223
18.6168
18.5818
18.5869
18.5761
18.5573
18.5824
18.577
18.5929
18.6295
18.6415
18.6901
18.73
18.7607
18.8253
18.8688
18.9193
18.9852
19.0243
19.082
19.1381
19.1786
19.2421
19.2927
19.3404
19.3995
19.4437
19.4894
19.5368
19.5757
19.6024
19.6304
19.6432
19.6323
19.6296
19.6009
19.5541
19.5107
19.4441
19.3609
19.2755
19.1878
19.0761
18.9724
18.8819
18.7689
18.6892
18.6193
18.545
18.4928
18.4415
18.3746
18.2838
18.204
18.1002
18.0257
17.9948
17.9798
18.0051
17.9916
17.9416
17.8877
17.8983
17.9192
17.909
17.9769
18.0524
18.0229
17.8876
17.6794
17.4
17.0459
16.774
16.7148
16.8441
17.2472
17.7595
18.1808
18.3498
18.1434
17.4569
16.3204
15.3919
14.3151
13.1172
11.2823
8.46939
4.66071
0.19579
-4.53158
-9.18576
-13.3573
-16.8192
-19.6886
-21.3974
-21.9922
-21.8018
-19.8908
-17.5974
-14.1865
-10.4284
-6.16316
-1.80488
3.01795
7.96322
13.2458
19.0366
24.8496
30.5168
35.4995
40.4038
44.2928
47.4171
49.5317
50.8654
51.1842
51.0767
51.123
51.0193
50.6699
49.8351
48.7422
47.7468
47.2509
47.9279
48.0858
48.2576
44.8737
38.8719
32.2849
27.9571
24.1014
19.8099
19.7072
18.5452
16.9052
17.3995
13.1721
5.52302
4.02689
3.15501
1.70838
13.1473
18.2212
26.4038
32.7735
38.3881
42.4401
45.4607
47.9347
48.1685
46.9162
45.7966
45.0625
43.2118
40.6627
38.6219
36.7709
22.3153
22.1928
21.6388
21.1571
20.8589
20.7216
20.7161
20.7457
20.7889
20.8099
20.7945
20.7592
20.6884
20.6203
20.5418
20.469
20.4078
20.3434
20.2974
20.242
20.1931
20.1443
20.0875
20.0338
19.9684
19.899
19.8226
19.7465
19.6546
19.5686
19.4779
19.3728
19.2963
19.1908
19.1048
19.0317
18.9307
18.8798
18.807
18.7418
18.7131
18.6491
18.6222
18.6004
18.5602
18.5622
18.5453
18.5381
18.5611
18.5601
18.5875
18.624
18.648
18.6989
18.7427
18.7862
18.8468
18.8932
18.9462
19.0054