/*--------------------------------*- C++ -*----------------------------------*\
| =========                 |                                                 |
| \\      /  F ield         | OpenFOAM: The Open Source CFD Toolbox           |
|  \\    /   O peration     | Version:  2.4.0                                 |
|   \\  /    A nd           | Web:      www.OpenFOAM.org                      |
|    \\/     M anipulation  |                                                 |
\*---------------------------------------------------------------------------*/
FoamFile
{
    version     2.0;
    format      ascii;
    class       volScalarField;
    location    "0.46";
    object      pPrime2Mean;
}
// * * * * * * * * * * * * * * * * * * * * * * * * * * * * * * * * * * * * * //

dimensions      [0 4 -4 0 0 0 0];

internalField   nonuniform List<scalar> 
8800
(
1.40538e+06
1.36992e+06
1.33187e+06
1.29415e+06
1.25693e+06
1.22026e+06
1.18413e+06
1.14855e+06
1.1135e+06
1.07899e+06
1.04502e+06
1.01158e+06
978654
946237
914290
882754
851509
820312
788605
754610
1.40543e+06
1.36993e+06
1.33187e+06
1.29414e+06
1.25693e+06
1.22026e+06
1.18413e+06
1.14855e+06
1.1135e+06
1.07899e+06
1.04502e+06
1.01158e+06
978657
946242
914299
882771
851543
820384
788779
755186
1.40546e+06
1.36992e+06
1.33186e+06
1.29414e+06
1.25693e+06
1.22026e+06
1.18413e+06
1.14855e+06
1.1135e+06
1.07899e+06
1.04502e+06
1.01158e+06
978662
946251
914316
882805
851609
820521
789099
756305
1.40549e+06
1.36992e+06
1.33185e+06
1.29413e+06
1.25693e+06
1.22026e+06
1.18413e+06
1.14855e+06
1.1135e+06
1.07899e+06
1.04502e+06
1.01158e+06
978669
946265
914342
882853
851704
820717
789546
757607
1.40551e+06
1.36992e+06
1.33184e+06
1.29412e+06
1.25693e+06
1.22026e+06
1.18413e+06
1.14855e+06
1.1135e+06
1.07899e+06
1.04502e+06
1.01159e+06
978679
946282
914375
882915
851824
820960
790082
758953
1.40552e+06
1.36992e+06
1.33184e+06
1.29412e+06
1.25692e+06
1.22026e+06
1.18413e+06
1.14855e+06
1.1135e+06
1.07899e+06
1.04503e+06
1.01159e+06
978690
946303
914415
882989
851966
821241
790671
760269
1.40554e+06
1.36993e+06
1.33183e+06
1.29411e+06
1.25692e+06
1.22026e+06
1.18413e+06
1.14855e+06
1.1135e+06
1.079e+06
1.04503e+06
1.0116e+06
978703
946327
914459
883073
852124
821547
791285
761519
1.40554e+06
1.36993e+06
1.33183e+06
1.29411e+06
1.25692e+06
1.22026e+06
1.18413e+06
1.14855e+06
1.1135e+06
1.079e+06
1.04503e+06
1.01161e+06
978718
946354
914508
883163
852293
821868
791904
762686
1.40555e+06
1.36993e+06
1.33183e+06
1.29411e+06
1.25692e+06
1.22026e+06
1.18413e+06
1.14855e+06
1.1135e+06
1.079e+06
1.04504e+06
1.01162e+06
978733
946382
914560
883258
852469
822195
792510
763760
1.40555e+06
1.36993e+06
1.33183e+06
1.29411e+06
1.25692e+06
1.22026e+06
1.18413e+06
1.14855e+06
1.1135e+06
1.079e+06
1.04504e+06
1.01163e+06
978749
946411
914613
883356
852647
822519
793092
764738
1.40555e+06
1.36993e+06
1.33183e+06
1.29411e+06
1.25692e+06
1.22026e+06
1.18414e+06
1.14855e+06
1.11351e+06
1.07901e+06
1.04505e+06
1.01163e+06
978765
946441
914666
883453
852822
822833
793638
765620
1.40555e+06
1.36993e+06
1.33183e+06
1.29411e+06
1.25692e+06
1.22026e+06
1.18414e+06
1.14855e+06
1.11351e+06
1.07901e+06
1.04505e+06
1.01164e+06
978781
946469
914719
883547
852991
823131
794143
766407
1.40554e+06
1.36993e+06
1.33183e+06
1.29411e+06
1.25692e+06
1.22026e+06
1.18414e+06
1.14855e+06
1.11351e+06
1.07901e+06
1.04506e+06
1.01165e+06
978796
946497
914768
883636
853150
823406
794601
767101
1.40554e+06
1.36993e+06
1.33183e+06
1.29412e+06
1.25692e+06
1.22026e+06
1.18414e+06
1.14855e+06
1.11351e+06
1.07901e+06
1.04506e+06
1.01166e+06
978810
946523
914815
883719
853296
823656
795008
767704
1.40552e+06
1.36992e+06
1.33184e+06
1.29412e+06
1.25693e+06
1.22026e+06
1.18414e+06
1.14855e+06
1.11351e+06
1.07902e+06
1.04507e+06
1.01167e+06
978823
946546
914856
883793
853425
823875
795360
768218
1.40551e+06
1.36992e+06
1.33184e+06
1.29413e+06
1.25693e+06
1.22026e+06
1.18414e+06
1.14855e+06
1.11351e+06
1.07902e+06
1.04507e+06
1.01167e+06
978835
946566
914892
883857
853536
824062
795655
768644
1.40549e+06
1.36992e+06
1.33185e+06
1.29413e+06
1.25693e+06
1.22026e+06
1.18414e+06
1.14856e+06
1.11352e+06
1.07902e+06
1.04507e+06
1.01168e+06
978844
946583
914922
883910
853627
824214
795893
768984
1.40546e+06
1.36992e+06
1.33186e+06
1.29414e+06
1.25693e+06
1.22027e+06
1.18414e+06
1.14856e+06
1.11352e+06
1.07902e+06
1.04508e+06
1.01168e+06
978851
946596
914945
883951
853697
824329
796071
769237
1.40543e+06
1.36993e+06
1.33187e+06
1.29415e+06
1.25694e+06
1.22027e+06
1.18414e+06
1.14856e+06
1.11352e+06
1.07902e+06
1.04508e+06
1.01169e+06
978856
946605
914961
883978
853744
824406
796191
769405
1.40538e+06
1.36992e+06
1.33187e+06
1.29415e+06
1.25694e+06
1.22027e+06
1.18414e+06
1.14856e+06
1.11352e+06
1.07902e+06
1.04508e+06
1.01169e+06
978859
946609
914969
883992
853768
824445
796251
769487
723809
715515
709190
703721
698650
693824
689169
684643
680218
675871
671591
667364
663183
659042
654935
650856
646802
642768
638754
634756
630776
626813
622867
618936
615020
611119
607232
603359
599500
595656
591826
588012
584215
580434
576670
572923
569193
565480
561783
558101
554433
550778
547135
543502
539879
536266
532662
529069
525486
521913
518351
514800
511259
507728
504208
500700
497204
493721
490251
486793
483346
479911
476488
473076
469676
466288
462913
459551
456203
452868
449547
446240
442946
439665
436398
433143
429903
426676
423462
420263
417079
413911
410757
407617
404489
401374
398269
395174
392090
389016
385951
382896
379849
376810
373781
370761
367751
364752
361764
358786
355821
352867
349926
346998
344082
341180
338290
335413
332549
329697
326858
324032
321218
318417
315630
312855
310092
307343
304605
301881
299170
296471
293786
291115
288459
285817
283190
280577
277978
275393
272820
270260
267710
265172
262643
260124
257615
255115
252625
250145
247675
245217
242768
240331
237905
235489
233084
230690
228308
225938
223580
221235
218902
216583
214276
211982
209700
207431
205175
202931
200700
198481
196275
194082
191901
189734
187579
185438
183311
181198
179097
177012
174937
172879
170828
168797
166768
164762
162754
160769
158781
156814
154848
152895
150946
149005
147064
145130
143187
141249
139291
137328
135335
133319
131256
129141
126933
124595
122036
119006
729717
720881
713676
707473
701860
696613
691619
686810
682143
677590
673128
668743
664422
660157
655938
651760
647616
643502
639416
635354
631315
627300
623305
619331
615376
611439
607520
603618
599734
595866
592016
588183
584368
580571
576793
573032
569289
565564
561855
558162
554484
550820
547169
543529
539901
536282
532675
529078
525492
521917
518353
514800
511258
507728
504209
500702
497207
493725
490256
486799
483354
479921
476500
473090
469693
466307
462934
459574
456227
452894
449573
446267
442973
439693
436426
433172
429932
426705
423493
420295
417113
413946
410795
407657
404531
401417
398314
395221
392138
389065
386002
382947
379900
376861
373831
370811
367801
364801
361812
358834
355868
352914
349972
347043
344127
341223
338332
335454
332587
329733
326892
324063
321247
318444
315654
312878
310115
307366
304630
301906
299196
296499
293816
291147
288493
285854
283230
280620
278024
275441
272870
270310
267761
265222
262693
260172
257662
255160
252668
250186
247714
245253
242803
240363
237933
235513
233105
230708
228322
225948
223587
221239
218903
216581
214271
211974
209688
207416
205156
202908
200672
198449
196238
194039
191851
189676
187512
185362
183224
181099
178985
176886
174795
172721
170651
168602
166552
164523
162491
160478
158465
156464
154465
152475
150484
148499
146507
144518
142516
140509
138479
136429
134342
132211
130017
127733
125343
122720
119868
116515
733817
725049
717509
710866
704849
699255
693963
688898
684008
679260
674627
670090
665634
661248
656921
652645
648414
644223
640066
635940
631845
627777
623735
619719
615725
611754
607804
603874
599963
596073
592202
588351
584519
580707
576914
573140
569384
565647
561927
558224
554536
550863
547203
543557
539922
536298
532687
529086
525497
521919
518354
514800
511258
507728
504211
500705
497212
493731
490263
486808
483365
479934
476515
473108
469713
466330
462959
459601
456256
452923
449604
446298
443005
439725
436458
433204
429964
426737
423526
420329
417149
413984
410834
407698
404574
401462
398360
395269
392188
389116
386054
382999
379952
376914
373884
370863
367853
364853
361864
358887
355921
352966
350024
347094
344177
341272
338379
335498
332629
329772
326928
324095
321276
318471
315680
312902
310139
307390
304655
301933
299224
296529
293848
291182
288531
285895
283274
280667
278073
275492
272922
270363
267814
265274
262743
260220
257707
255203
252709
250225
247751
245288
242834
240392
237958
235535
233123
230721
228331
225954
223590
221239
218900
216576
214263
211962
209674
207398
205134
202882
200642
198414
196198
193993
191799
189616
187444
185286
183135
181000
178871
176759
174651
172562
170474
168404
166335
164282
162229
160188
158149
156116
154085
152058
150028
147997
145960
143917
141861
139787
137691
135558
133390
131150
128859
126424
123913
121124
118129
114775
736938
728403
720768
713881
707581
701714
696172
690882
685792
680865
676072
671392
666808
662307
657876
653507
649191
644923
640698
636511
632360
628242
624155
620097
616066
612061
608081
604123
600189
596276
592385
588516
584668
580840
577033
573246
569479
565729
561998
558284
554587
550905
547237
543584
539943
536314
532698
529094
525502
521923
518356
514802
511260
507731
504214
500710
497218
493739
490273
486819
483378
479949
476532
473128
469736
466355
462987
459631
456287
452956
449638
446333
443040
439759
436492
433238
429997
426770
423559
420363
417184
414021
410873
407738
404616
401506
398405
395316
392237
389167
386106
383051
380005
376966
373937
370917
367907
364908
361920
358943
355977
353022
350080
347149
344230
341322
338427
335543
332672
329811
326963
324127
321306
318497
315705
312926
310163
307414
304680
301959
299252
296559
293881
291218
288571
285938
283320
280716
278125
275545
272976
270416
267866
265324
262791
260265
257749
255242
252745
250258
247782
245316
242860
240415
237978
235551
233135
230729
228336
225955
223588
221234
218893
216566
214250
211945
209655
207375
205107
202852
200608
198376
196155
193944
191743
189554
187373
185206
183045
180898
178756
176630
174508
172401
170296
168206
166120
164043
161969
159901
157836
155773
153711
151646
149580
147505
145427
143329
141225
139084
136935
134718
132491
130145
127784
125235
122624
119778
116749
113488
739447
731147
723535
716532
710047
703974
698230
692748
687482
682393
677454
672642
667938
663327
658797
654339
649943
645602
641311
637065
632861
628694
624563
620465
616399
612361
608352
604368
600410
596476
592566
588679
584815
580972
577152
573352
569572
565811
562070
558346
554639
550948
547273
543612
539965
536332
532712
529105
525511
521930
518362
514807
511265
507736
504220
500717
497227
493750
490285
486833
483394
479967
476553
473151
469761
466383
463017
459663
456321
452992
449674
446368
443074
439793
436524
433269
430027
426800
423589
420395
417217
414055
410908
407776
404655
401547
398449
395362
392285
389216
386156
383102
380056
377018
373990
370970
367961
364962
361975
358998
356033
353078
350135
347203
344282
341372
338474
335588
332713
329849
326997
324158
321333
318523
315728
312949
310185
307436
304702
301983
299278
296588
293913
291253
288609
285979
283365
280763
278174
275595
273027
270467
267915
265371
262835
260306
257786
255275
252776
250285
247806
245337
242879
240429
237990
235560
233140
230730
228335
225950
223581
221223
218881
216550
214232
211924
209631
207347
205076
202817
200570
198333
196107
193891
191684
189488
187300
185123
182952
180794
178641
176500
174364
172239
170120
168010
165907
163807
161713
159618
157529
155434
153345
151241
149145
147022
144910
142754
140613
138404
136211
133919
131635
129216
126777
124175
121488
118641
115637
112468
741560
733462
725908
718855
712253
706030
700125
694484
689066
683835
678764
673830
669015
664303
659681
655139
650667
646257
641904
637601
633346
629133
624960
620824
616723
612654
608617
604608
600627
596673
592744
588840
584960
581103
577269
573456
569665
565893
562141
558407
554691
550992
547310
543643
539990
536353
532729
529119
525523
521940
518371
514816
511274
507745
504230
500728
497239
493764
490301
486851
483413
479988
476576
473176
469788
466412
463047
459695
456355
453025
449707
446400
443105
439822
436552
433295
430052
426826
423615
420421
417245
414084
410939
407808
404689
401583
398488
395403
392328
389262
386203
383151
380106
377069
374040
371020
368011
365013
362026
359050
356086
353131
350187
347253
344330
341418
338517
335627
332749
329881
327026
324183
321356
318544
315749
312968
310204
307456
304723
302004
299301
296613
293941
291284
288643
286017
283405
280806
278219
275641
273073
270511
267959
265411
262872
260339
257816
255301
252797
250303
247821
245349
242888
240435
237993
235559
233136
230723
228326
225939
223568
221206
218862
216527
214207
211896
209601
207313
205040
202777
200526
198284
196053
193832
191620
189416
187221
185035
182856
180685
178523
176367
174220
172076
169944
167814
165696
163571
161461
159337
157228
155099
152987
150845
148721
146555
144408
142205
140021
137763
135515
133176
130826
128366
125862
123238
120518
117680
114712
111616
743379
735445
727956
720888
714213
707884
701855
696085
690538
685183
679995
674953
670036
665231
660524
655904
651360
646886
642474
638118
633813
629557
625344
621172
617038
612940
608875
604842
600840
596866
592919
588998
585103
581232
577385
573560
569757
565975
562213
558470
554746
551039
547349
543676
540019
536377
532750
529137
525539
521954
518384
514828
511286
507758
504244
500743
497255
493780
490319
486870
483434
480011
476599
473200
469814
466439
463075
459724
456383
453053
449734
446426
443129
439844
436572
433314
430071
426844
423634
420441
417265
414106
410962
407832
404716
401612
398519
395436
392365
389302
386245
383194
380150
377114
374085
371064
368054
365056
362069
359094
356129
353175
350230
347295
344370
341455
338552
335659
332778
329906
327047
324202
321373
318560
315764
312983
310220
307471
304739
302022
299321
296634
293964
291310
288672
286048
283439
280841
278256
275678
273110
270548
267993
265443
262900
260363
257836
255317
252809
250311
247827
245351
242888
240432
237987
235549
233123
230707
228308
225918
223546
221180
218836
216498
214175
211862
209565
207273
204997
202731
200473
198228
195993
193767
191549
189338
187137
184941
182755
180573
178400
176231
174071
171913
169766
167620
165485
163340
161209
159063
156930
154776
152634
150464
148305
146108
143920
141685
139452
137162
134862
132490
130091
127604
125060
122423
119689
116860
113921
110884
744967
737163
729738
722672
715954
709549
703425
697550
691895
686434
681144
676004
670997
666107
661321
656629
652020
647485
643017
638611
634262
629963
625713
621507
617342
613215
609125
605069
601046
597053
593088
589152
585242
581358
577498
573662
569848
566056
562285
558534
554801
551088
547392
543713
540051
536405
532774
529159
525558
521972
518401
514845
511302
507774
504260
500759
497272
493798
490337
486889
483454
480031
476620
473222
469835
466460
463097
459745
456403
453072
449751
446442
443143
439857
436585
433326
430083
426856
423645
420453
417277
414119
410976
407848
404733
401631
398540
395460
392392
389332
386279
383230
380187
377150
374120
371098
368087
365088
362102
359126
356161
353206
350261
347325
344399
341482
338577
335682
332797
329922
327060
324212
321382
318569
315773
312994
310231
307484
304753
302036
299336
296650
293981
291328
288692
286070
283464
280867
278282
275705
273136
270573
268017
265464
262918
260377
257846
255323
252811
250310
247823
245345
242879
240421
237972
235531
233101
230683
228282
225891
223517
221147
218801
216462
214136
211822
209522
207228
204948
202679
200417
198168
195928
193697
191472
189256
187047
184845
182650
180458
178274
176095
173921
171751
169587
167430
165276
163116
160964
158800
156642
154467
152295
150102
147910
145687
143462
141200
138927
136609
134269
131871
129435
126931
124361
121713
118972
116149
113235
110247
746361
738662
731293
724239
717494
711035
704838
698879
693135
687584
682205
676979
671891
666925
662069
657311
652641
648050
643532
639079
634687
630350
626064
621825
617631
613478
609364
605286
601243
597232
593251
589300
585376
581480
577608
573761
569937
566136
562356
558597
554858
551138
547436
543753
540086
536436
532802
529184
525581
521993
518421
514863
511320
507791
504276
500775
497287
493813
490353
486904
483469
480046
476635
473236
469849
466473
463108
459755
456412
453080
449758
446447
443148
439861
436588
433329
430085
426858
423648
420455
417279
414121
410980
407853
404740
401640
398552
395474
392409
389352
386302
383254
380211
377173
374143
371120
368108
365108
362121
359144
356179
353224
350278
347341
344413
341496
338589
335691
332803
329926
327063
324215
321384
318571
315777
312998
310237
307491
304761
302045
299345
296660
293991
291338
288703
286082
283476
280880
278295
275718
273148
270584
268026
265471
262922
260380
257844
255319
252803
250299
247809
245329
242860
240400
237947
235504
233072
230651
228248
225854
223479
221108
218759
216420
214089
211777
209472
207179
204892
202624
200355
198107
195858
193625
191392
189172
186955
184749
182543
180345
178148
175961
173773
171593
169413
167248
165074
162902
160729
158550
156369
154176
151978
149764
147544
145300
143044
140759
138452
136112
133739
131323
128861
126342
123747
121088
118344
115529
112640
109692
747588
739973
732654
725615
718854
712357
706104
700078
694260
688632
683177
677877
672717
667683
662763
657945
653220
648578
644013
639517
635085
630712
626394
622125
617904
613726
609590
605491
601429
597401
593406
589440
585504
581595
577713
573856
570023
566214
562426
558660
554915
551189
547482
543793
540122
536468
532831
529210
525604
522015
518440
514881
511336
507806
504290
500788
497299
493824
490363
486914
483477
480053
476641
473241
469852
466475
463109
459753
456409
453076
449753
446441
443141
439854
436581
433322
430079
426852
423641
420448
417272
414114
410973
407848
404737
401639
398554
395479
392417
389362
386313
383266
380223
377184
374152
371128
368116
365115
362126
359149
356183
353226
350280
347342
344414
341494
338586
335687
332798
329920
327056
324208
321378
318566
315773
312996
310237
307493
304765
302050
299350
296663
293993
291339
288703
286082
283475
280880
278294
275716
273144
270580
268020
265465
262914
260370
257832
255306
252786
250280
247786
245304
242831
240369
237913
235467
233035
230611
228208
225813
223434
221064
218711
216374
214037
211731
209417
207128
204832
202569
200288
198047
195783
193556
191309
189090
186862
184656
182437
180236
178026
175832
173628
171444
169249
167078
164884
162704
160512
158319
156117
153908
151688
149457
147213
144950
142668
140362
138029
135670
133272
130841
128353
125818
123202
120535
117792
114989
112123
109210
748666
741120
733843
726819
720051
713525
707228
701148
695270
689579
684058
678694
673471
668377
663400
658529
653754
649066
644458
639923
635455
631049
626700
622404
618158
613957
609800
605683
601604
597560
593550
589572
585624
581705
577812
573946
570105
566288
562493
558721
554970
551238
547526
543833
540158
536500
532859
529235
525626
522034
518457
514896
511349
507817
504299
500796
497306
493829
490366
486916
483478
480052
476638
473236
469846
466467
463099
459742
456396
453062
449738
446426
443126
439839
436567
433308
430065
426837
423626
420432
417255
414097
410956
407831
404722
401627
398545
395474
392415
389361
386313
383264
380219
377179
374145
371120
368107
365105
362115
359136
356170
353212
350266
347327
344398
341478
338569
335668
332780
329903
327041
324194
321365
318554
315763
312988
310231
307489
304763
302049
299348
296660
293987
291331
288692
286070
283461
280865
278278
275699
273126
270561
268000
265446
262895
260350
257811
255283
252760
250254
247755
245271
242794
240330
237870
235423
232988
230565
228156
225767
223383
221017
218658
216326
213983
211683
209358
207075
204770
202515
200223
197988
195710
193487
191225
189010
186770
184565
182333
180129
177907
175714
173496
171304
169097
166925
164709
162522
160313
158109
155889
153666
151426
149180
146915
144635
142332
140009
137654
135277
132861
130414
127900
125350
122720
120047
117311
114520
111678
108793
749610
742119
734878
727869
721096
714549
708219
702096
696168
690424
684848
679429
674152
669006
663979
659060
654240
649511
644864
640294
635793
631357
626981
622660
618391
614170
609994
605860
601765
597707
593684
589694
585735
581806
577905
574030
570182
566358
562557
558778
555021
551285
547568
543870
540191
536529
532884
529257
525645
522050
518471
514907
511358
507823
504303
500797
497305
493827
490362
486909
483469
480042
476626
473222
469830
466450
463081
459723
456376
453041
449717
446405
443105
439819
436547
433290
430047
426818
423605
420409
417231
414072
410930
407806
404699
401606
398527
395458
392400
389346
386297
383245
380200
377158
374123
371096
368083
365079
362089
359108
356141
353183
350236
347296
344368
341447
338538
335639
332753
329878
327019
324174
321347
318538
315748
312976
310221
307481
304756
302042
299340
296650
293975
291315
288673
286047
283436
280837
278248
275667
273094
270528
267968
265413
262863
260319
257780
255250
252726
250218
247717
245231
242750
240282
237821
235374
232937
230514
228104
225717
223326
220970
218608
216283
213936
211637
209305
207024
204717
202459
200160
197927
195642
193419
191146
188933
186682
184474
182236
180025
177800
175595
173372
171179
168961
166785
164551
162359
160133
157920
155683
153449
151193
148932
146649
144355
142033
139693
137323
134929
132497
130029
127495
124932
122296
119624
116894
114117
111294
108434
750430
742985
735773
728778
722002
715439
709082
702925
696957
691169
685548
680082
674758
669567
664496
659536
654677
649910
645230
640628
636098
631636
627235
622892
618602
614363
610170
606020
601911
597841
593806
589805
585837
581899
577990
574108
570252
566422
562615
558831
555068
551327
547606
543903
540220
536554
532905
529274
525659
522061
518478
514911
511360
507822
504300
500792
497297
493817
490350
486895
483453
480023
476606
473201
469808
466426
463056
459698
456351
453015
449691
446380
443081
439796
436525
433269
430025
426796
423582
420384
417204
414043
410900
407775
404668
401577
398500
395433
392374
389317
386265
383211
380165
377121
374086
371058
368046
365042
362051
359068
356101
353141
350195
347253
344326
341405
338499
335601
332719
329846
326991
324148
321324
318516
315729
312958
310205
307466
304742
302028
299326
296633
293956
291293
288647
286017
283402
280799
278208
275625
273052
270484
267924
265369
262820
260275
257738
255206
252683
250174
247671
245183
242701
240231
237769
235320
232884
230461
228053
225671
223277
220924
218564
216238
213890
211590
209259
206973
204669
202404
200107
197867
195577
193347
191072
188855
186599
184387
182145
179927
177702
175489
173268
171061
168834
166651
164407
162212
159971
157752
155501
153256
150985
148712
146413
144105
141770
139414
137032
134620
132174
129685
127138
124566
121928
119260
116537
113772
110967
108128
751135
743726
736538
729554
722777
716202
709824
703639
697640
691816
686157
680652
675290
670060
664951
659955
655062
650264
645553
640923
636368
631882
627460
623098
618790
614535
610327
606163
602042
597960
593915
589905
585928
581982
578066
574177
570315
566479
562666
558877
555110
551363
547637
543931
540243
536573
532921
529286
525667
522065
518479
514909
511355
507815
504290
500779
497283
493800
490331
486875
483431
480000
476581
473175
469781
466399
463028
459670
456323
452987
449664
446353
443055
439772
436502
433246
430003
426773
423557
420358
417175
414012
410867
407741
404633
401542
398464
395397
392334
389276
386220
383165
380118
377074
374038
371011
367998
364994
362002
359020
356053
353092
350145
347204
344277
341357
338454
335558
332680
329810
326958
324118
321297
318491
315706
312935
310184
307445
304722
302006
299304
296609
293931
291263
288614
285979
283361
280753
278160
275575
273001
270432
267872
265316
262766
260222
257685
255154
252633
250122
247620
245131
242649
240178
237718
235271
232834
230412
228009
225621
223233
220882
218527
216193
213846
211541
209219
206921
204628
202349
200057
197812
195516
193274
191004
188777
186521
184303
182061
179837
177618
175396
173171
170947
168720
166522
164276
162078
159825
157603
155339
153086
150803
148517
146208
143886
141541
139170
136779
134347
131891
129384
126831
124253
121618
118951
116236
113481
110690
107869
751733
744354
737182
730205
723426
716842
710449
704243
698219
692367
686677
681140
675746
670483
665343
660316
655394
650569
645833
641179
636602
632096
627656
623277
618954
614684
610463
606288
602157
598065
594011
589993
586008
582055
578132
574237
570369
566527
562709
558915
555143
551393
547662
543952
540260
536586
532930
529291
525669
522064
518475
514902
511344
507802
504275
500762
497264
493780
490309
486851
483406
479974
476555
473148
469753
466370
463000
459641
456294
452959
449636
446327
443030
439747
436479
433224
429980
426749
423532
420331
417147
413981
410834
407705
404595
401503
398422
395352
392285
389224
386166
383112
380064
377020
373984
370957
367944
364939
361947
358967
356000
353041
350093
347153
344225
341308
338407
335515
332639
329773
326923
324086
321267
318463
315678
312908
310157
307418
304694
301978
299274
296579
293898
291227
288575
285936
283314
280703
278106
275519
272943
270374
267812
265255
262706
260162
257626
255096
252577
250066
247566
245076
242596
240126
237669
235225
232790
230372
227967
225578
223200
220843
218490
216149
213811
211496
209181
206878
204588
202297
200014
197739
195458
193206
190935
188699
186451
184226
181985
179760
177544
175308
173087
170845
168626
166406
164163
161953
159698
157468
155198
152937
150646
148352
146034
143699
141346
138961
136565
134113
131650
129129
126574
123994
121361
118695
115986
113240
110461
107655
752229
744872
737711
730737
723957
717366
710962
704741
698697
692823
687109
681546
676125
670837
665671
660619
655673
650825
646067
641394
636799
632277
627821
623428
619092
614810
610579
606394
602253
598153
594092
590066
586075
582115
578186
574286
570413
566566
562744
558946
555169
551415
547681
543966
540270
536593
532933
529291
525666
522058
518466
514890
511331
507786
504257
500743
497244
493758
490286
486827
483382
479949
476528
473121
469725
466342
462971
459612
456265
452931
449609
446300
443005
439724
436456
433202
429959
426727
423509
420306
417121
413952
410803
407672
404558
401462
398376
395302
392231
389167
386107
383054
380005
376962
373926
370901
367887
364882
361891
358913
355945
352988
350040
347102
344176
341262
338362
335474
332600
329737
326888
324054
321235
318433
315647
312878
310125
307387
304661
301945
299239
296543
293860
291188
288533
285892
283265
280652
278051
275463
272884
270313
267748
265191
262641
260099
257564
255037
252520
250010
247512
245023
242545
240078
237625
235180
232751
230338
227936
225549
223175
220809
218455
216111
213780
211458
209146
206833
204552
202244
199966
197672
195409
193139
190878
188631
186388
184156
181917
179693
177477
175230
173017
170766
168542
166311
164072
161845
159592
157348
155079
152809
150515
148215
145887
143544
141182
138786
136386
133920
131446
128922
126367
123784
121153
118488
115784
113044
110275
107480
752625
745284
738128
731156
724374
717778
711367
705135
699078
693186
687454
681871
676430
671120
665933
660862
655897
651031
646257
641568
636958
632422
627954
623550
619204
614912
610672
606479
602331
598224
594156
590125
586128
582163
578229
574325
570448
566597
562770
558968
555188
551430
547693
543975
540276
536596
532933
529288
525660
522050
518456
514878
511317
507771
504241
500725
497224
493738
490265
486805
483359
479926
476505
473096
469700
466317
462946
459587
456240
452906
449585
446277
442982
439702
436435
433181
429938
426707
423488
420285
417098
413928
410776
407642
404524
401422
398331
395252
392178
389112
386050
382996
379946
376906
373870
370847
367832
364830
361838
358861
355893
352938
349990
347055
344129
341219
338320
335436
332563
329704
326856
324023
321204
318403
315615
312846
310090
307351
304623
301907
299200
296505
293821
291150
288493
285851
283220
280605
278000
275409
272825
270252
267685
265129
262577
260036
257503
254979
252463
249955
247459
244974
242498
240033
237584
235141
232718
230305
227911
225519
223150
220775
218421
216076
213750
211418
209112
206791
204506
202189
199926
197628
195369
193082
190827
188573
186336
184097
181865
179629
177409
175166
172952
170696
168470
166237
163999
161758
159507
157250
154983
152706
150412
148102
145770
143421
141052
138648
136244
133768
131284
128764
126207
123621
120990
118325
115624
112890
110127
107341
752921
745590
738436
731465
724682
718085
711669
705430
699362
693458
687712
682115
676658
671333
666131
661044
656065
651186
646399
641699
637078
632532
628055
623642
619288
614989
610742
606543
602389
598277
594204
590168
586167
582199
578261
574353
570472
566618
562789
558984
555201
551440
547700
543980
540279
536597
532932
529285
525656
522043
518448
514869
511306
507759
504228
500711
497209
493721
490247
486787
483340
479906
476485
473077
469680
466297
462925
459566
456219
452885
449565
446257
442963
439683
436417
433163
429920
426689
423471
420267
417079
413909
410755
407617
404495
401388
398291
395208
392130
389064
386000
382948
379896
376858
373822
370801
367784
364785
361791
358817
355847
352896
349948
347016
344090
341183
338284
335404
332531
329675
326826
323996
321176
318375
315584
312814
310056
307316
304586
301871
299164
296472
293787
291118
288460
285817
283184
280567
277959
275365
272776
270200
267631
265073
262521
259982
257449
254929
252414
249910
247415
244932
242458
239996
237548
235110
232689
230277
227882
225488
223121
220739
218392
216040
213716
211376
209075
206751
204465
202152
199886
197583
195327
193041
190794
188534
186298
184048
181822
179576
177360
175112
172895
170641
168420
166178
163942
161690
159441
157179
154910
152629
150333
148018
145685
143328
140957
138543
136136
133658
131167
128651
126092