/*--------------------------------*- C++ -*----------------------------------*\
| =========                 |                                                 |
| \\      /  F ield         | OpenFOAM: The Open Source CFD Toolbox           |
|  \\    /   O peration     | Version:  2.4.0                                 |
|   \\  /    A nd           | Web:      www.OpenFOAM.org                      |
|    \\/     M anipulation  |                                                 |
\*---------------------------------------------------------------------------*/
FoamFile
{
    version     2.0;
    format      ascii;
    class       volVectorField;
    location    "0.46";
    object      UMean;
}
// * * * * * * * * * * * * * * * * * * * * * * * * * * * * * * * * * * * * * //

dimensions      [0 1 -1 0 0 0 0];

internalField   nonuniform List<vector> 
8800
(
(8.09371 0.386333 0)
(5.47135 0.242039 0)
(3.94375 0.0432706 0)
(3.1933 -0.0150928 0)
(2.84085 -0.0180931 0)
(2.64038 -0.0109108 0)
(2.53017 -0.00564599 0)
(2.42757 -0.00219323 0)
(2.37127 -0.00155239 0)
(2.30195 -0.000423465 0)
(2.27381 -0.000788532 0)
(2.2216 0.000151307 0)
(2.20469 -0.000285627 0)
(2.15808 0.000744549 0)
(2.14048 0.000141029 0)
(2.09599 0.00144786 0)
(2.07006 0.000217877 0)
(2.0246 0.00162103 0)
(2.00835 0.00374119 0)
(1.83976 -0.0428034 0)
(10.0764 0.834212 0)
(9.66017 0.862361 0)
(8.88601 0.503199 0)
(8.10329 0.259529 0)
(7.52105 0.136344 0)
(7.03942 0.0808552 0)
(6.73862 0.0525313 0)
(6.44292 0.0396199 0)
(6.28213 0.0283602 0)
(6.07837 0.0237979 0)
(5.99633 0.0172309 0)
(5.84249 0.0175798 0)
(5.79863 0.0134514 0)
(5.6701 0.016704 0)
(5.63427 0.013626 0)
(5.52123 0.0177267 0)
(5.47242 0.0185304 0)
(5.36709 0.013942 0)
(5.31203 0.0315209 0)
(5.17596 -0.0375677 0)
(10.0558 0.62879 0)
(10.6535 0.857515 0)
(10.8674 0.596188 0)
(10.6906 0.369748 0)
(10.4611 0.25213 0)
(10.0914 0.19361 0)
(9.85168 0.149661 0)
(9.5101 0.120284 0)
(9.34335 0.0905162 0)
(9.06142 0.0746283 0)
(8.96934 0.0553663 0)
(8.73855 0.0515853 0)
(8.69543 0.0393484 0)
(8.49622 0.0430961 0)
(8.47356 0.0346403 0)
(8.29174 0.0420304 0)
(8.26671 0.0394651 0)
(8.08867 0.0438463 0)
(8.04714 0.0504528 0)
(7.8733 -0.019383 0)
(9.9972 0.45549 0)
(10.5627 0.700885 0)
(11.1639 0.541134 0)
(11.366 0.348828 0)
(11.5482 0.257699 0)
(11.4475 0.22445 0)
(11.4828 0.195482 0)
(11.2883 0.173306 0)
(11.2923 0.142243 0)
(11.0711 0.124011 0)
(11.0824 0.0991066 0)
(10.8595 0.0921972 0)
(10.8858 0.0744289 0)
(10.6653 0.0770835 0)
(10.7007 0.0632677 0)
(10.4802 0.0738784 0)
(10.5141 0.0620091 0)
(10.2866 0.0846748 0)
(10.2921 0.0643229 0)
(10.0534 0.0910701 0)
(10.0408 0.345357 0)
(10.398 0.563904 0)
(11.0425 0.457058 0)
(11.2951 0.291588 0)
(11.647 0.205206 0)
(11.6573 0.190392 0)
(11.8681 0.173533 0)
(11.7999 0.168184 0)
(11.9683 0.139658 0)
(11.8672 0.132647 0)
(12.0151 0.103975 0)
(11.8937 0.107588 0)
(12.0257 0.0822624 0)
(11.8884 0.0977726 0)
(12.0031 0.0722088 0)
(11.8527 0.0997152 0)
(11.9452 0.0701588 0)
(11.7819 0.115669 0)
(11.8308 0.0718073 0)
(11.6225 0.130737 0)
(10.051 0.251691 0)
(10.316 0.452292 0)
(10.8939 0.374219 0)
(11.173 0.245383 0)
(11.5206 0.158879 0)
(11.5927 0.149291 0)
(11.7922 0.138866 0)
(11.8041 0.140708 0)
(11.9679 0.115915 0)
(11.9714 0.112832 0)
(12.1188 0.0878285 0)
(12.1185 0.0916621 0)
(12.2492 0.0723603 0)
(12.244 0.0842645 0)
(12.355 0.0693592 0)
(12.3445 0.0868299 0)
(12.4316 0.0752544 0)
(12.4134 0.09631 0)
(12.4581 0.0789067 0)
(12.3663 0.055867 0)
(10.0096 0.174035 0)
(10.2969 0.351547 0)
(10.7511 0.286951 0)
(11.105 0.2038 0)
(11.3858 0.116697 0)
(11.5422 0.113988 0)
(11.6688 0.103019 0)
(11.7527 0.113906 0)
(11.8478 0.0869134 0)
(11.9261 0.0914676 0)
(12.0133 0.0641558 0)
(12.0895 0.0735879 0)
(12.1685 0.051859 0)
(12.2403 0.0677463 0)
(12.3093 0.050842 0)
(12.3753 0.0703392 0)
(12.4329 0.0561073 0)
(12.4882 0.074033 0)
(12.5147 0.0489847 0)
(12.4758 0.0146613 0)
(9.99817 0.114347 0)
(10.2622 0.249166 0)
(10.6728 0.204115 0)
(11.0308 0.151154 0)
(11.312 0.082009 0)
(11.4805 0.0778795 0)
(11.606 0.0731075 0)
(11.687 0.0813846 0)
(11.782 0.0631656 0)
(11.8561 0.0645375 0)
(11.9483 0.0463 0)
(12.0184 0.0506287 0)
(12.106 0.0373606 0)
(12.1694 0.0459573 0)
(12.2504 0.0368758 0)
(12.3053 0.0468859 0)
(12.3781 0.0385114 0)
(12.4184 0.0437316 0)
(12.4605 0.0238458 0)
(12.3941 -0.0129063 0)
(9.98831 0.0641569 0)
(10.2443 0.148488 0)
(10.6173 0.122143 0)
(10.9882 0.0923274 0)
(11.2575 0.0482776 0)
(11.4484 0.0463949 0)
(11.5591 0.0431217 0)
(11.6537 0.0496667 0)
(11.7315 0.0380414 0)
(11.8209 0.039035 0)
(11.897 0.0273235 0)
(11.9835 0.0300344 0)
(12.0547 0.0217051 0)
(12.1349 0.0266474 0)
(12.1984 0.020552 0)
(12.2703 0.025319 0)
(12.3242 0.0180555 0)
(12.3809 0.0172369 0)
(12.3989 0.000196967 0)
(12.3444 -0.0310328 0)
(9.99407 0.0205952 0)
(10.2257 0.0493774 0)
(10.6003 0.0406801 0)
(10.9573 0.0308739 0)
(11.2406 0.0159235 0)
(11.423 0.0153828 0)
(11.546 0.0141447 0)
(11.6278 0.0165565 0)
(11.7168 0.0124846 0)
(11.7938 0.0127812 0)
(11.8821 0.00859775 0)
(11.9565 0.00921823 0)
(12.0401 0.00592162 0)
(12.1078 0.00689448 0)
(12.1836 0.00364752 0)
(12.2426 0.00319026 0)
(12.3084 -0.00253825 0)
(12.351 -0.00780145 0)
(12.3785 -0.0215705 0)
(12.3066 -0.0446517 0)
(9.99139 -0.0220503 0)
(10.2283 -0.0475569 0)
(10.5975 -0.0423957 0)
(10.96 -0.029352 0)
(11.2378 -0.017631 0)
(11.4257 -0.0139348 0)
(11.5431 -0.0159907 0)
(11.6306 -0.0153145 0)
(11.7136 -0.0146322 0)
(11.7966 -0.0120516 0)
(11.879 -0.0114674 0)
(11.9595 -0.00999037 0)
(12.0367 -0.0112276 0)
(12.1103 -0.0112936 0)
(12.1798 -0.0146185 0)
(12.2447 -0.017238 0)
(12.3039 -0.0240201 0)
(12.3516 -0.0305141 0)
(12.3718 -0.0431049 0)
(12.3035 -0.0546262 0)
(9.99045 -0.0654426 0)
(10.242 -0.146947 0)
(10.6194 -0.123577 0)
(10.986 -0.0910258 0)
(11.2595 -0.0497195 0)
(11.4462 -0.045359 0)
(11.561 -0.0446709 0)
(11.6515 -0.0488086 0)
(11.7334 -0.0397952 0)
(11.8185 -0.0388566 0)
(11.8988 -0.0298884 0)
(11.9809 -0.0313494 0)
(12.0561 -0.0265117 0)
(12.1314 -0.0315979 0)
(12.1987 -0.0309668 0)
(12.2653 -0.0397237 0)
(12.3223 -0.0436549 0)
(12.372 -0.0558427 0)
(12.3903 -0.0632496 0)
(12.3253 -0.0673532 0)
(9.99588 -0.115631 0)
(10.2645 -0.24749 0)
(10.67 -0.205671 0)
(11.0334 -0.149522 0)
(11.3089 -0.083538 0)
(11.4832 -0.0763744 0)
(11.603 -0.0748772 0)
(11.6899 -0.0798932 0)
(11.7785 -0.065347 0)
(11.8587 -0.0636345 0)
(11.9444 -0.0493651 0)
(12.0211 -0.0511825 0)
(12.1015 -0.0427725 0)
(12.1711 -0.049942 0)
(12.2436 -0.0478279 0)
(12.3045 -0.0597785 0)
(12.3671 -0.0642444 0)
(12.4116 -0.079823 0)
(12.4383 -0.0870088 0)
(12.3707 -0.0803912 0)
(10.0139 -0.175487 0)
(10.2924 -0.349772 0)
(10.7549 -0.288776 0)
(11.101 -0.20202 0)
(11.3894 -0.118548 0)
(11.5383 -0.112136 0)
(11.6724 -0.105188 0)
(11.749 -0.112151 0)
(11.851 -0.0895432 0)
(11.9221 -0.0903135 0)
(12.0164 -0.0677583 0)
(12.0851 -0.0738059 0)
(12.1709 -0.0577918 0)
(12.2341 -0.0713329 0)
(12.3092 -0.0622746 0)
(12.3652 -0.0822632 0)
(12.4268 -0.0812955 0)
(12.4679 -0.107181 0)
(12.4929 -0.109733 0)
(12.4295 -0.106831 0)
(10.0519 -0.252122 0)
(10.3152 -0.451724 0)
(10.8938 -0.374756 0)
(11.1731 -0.245252 0)
(11.52 -0.159235 0)
(11.5931 -0.149214 0)
(11.7912 -0.139117 0)
(11.8047 -0.141318 0)
(11.9663 -0.116242 0)
(11.9721 -0.114386 0)
(12.1165 -0.0884791 0)
(12.1187 -0.0950547 0)
(12.2454 -0.0746084 0)
(12.2421 -0.0916406 0)
(12.3472 -0.0758872 0)
(12.3364 -0.102709 0)
(12.4139 -0.0933635 0)
(12.3887 -0.132079 0)
(12.414 -0.12599 0)
(12.298 -0.143325 0)
(10.048 -0.346945 0)
(10.391 -0.561886 0)
(11.0478 -0.458904 0)
(11.2897 -0.289911 0)
(11.6512 -0.207232 0)
(11.6525 -0.188459 0)
(11.8714 -0.175857 0)
(11.7958 -0.166317 0)
(11.9704 -0.142584 0)
(11.8634 -0.131008 0)
(12.0152 -0.107941 0)
(11.8897 -0.106686 0)
(12.0219 -0.0887377 0)
(11.8822 -0.0993463 0)
(11.9906 -0.0840738 0)
(11.8388 -0.107076 0)
(11.9126 -0.095231 0)
(11.7459 -0.136828 0)
(11.7525 -0.126271 0)
(11.5199 -0.164079 0)
(10.0024 -0.455946 0)
(10.556 -0.700163 0)
(11.1699 -0.541773 0)
(11.3584 -0.348286 0)
(11.5553 -0.258576 0)
(11.4384 -0.223753 0)
(11.4914 -0.196533 0)
(11.277 -0.172694 0)
(11.3024 -0.143631 0)
(11.0564 -0.123899 0)
(11.0936 -0.100918 0)
(10.8399 -0.0933631 0)
(10.896 -0.0773515 0)
(10.637 -0.0818511 0)
(10.7037 -0.0686159 0)
(10.4353 -0.086486 0)
(10.4944 -0.0740972 0)
(10.2072 -0.115011 0)
(10.2132 -0.0978881 0)
(9.87578 -0.15973 0)
(10.0566 -0.6293 0)
(10.6512 -0.856997 0)
(10.8695 -0.596573 0)
(10.6869 -0.36935 0)
(10.4649 -0.252734 0)
(10.0856 -0.193097 0)
(9.85761 -0.150475 0)
(9.5007 -0.119691 0)
(9.35239 -0.0917528 0)
(9.0459 -0.0741959 0)
(8.9821 -0.0572102 0)
(8.7136 -0.0517041 0)
(8.71117 -0.0424238 0)
(8.45537 -0.045271 0)
(8.48754 -0.0399008 0)
(8.22273 -0.0498629 0)
(8.26335 -0.0483896 0)
(7.9673 -0.0698109 0)
(7.97054 -0.072601 0)
(7.61869 -0.0910089 0)
(10.0764 -0.834331 0)
(9.6592 -0.862183 0)
(8.88657 -0.503264 0)
(8.10184 -0.259422 0)
(7.52271 -0.136574 0)
(7.03647 -0.0807493 0)
(6.74138 -0.0527829 0)
(6.43741 -0.0395236 0)
(6.28684 -0.028779 0)
(6.06793 -0.0238426 0)
(6.00357 -0.0179155 0)
(5.82351 -0.0180085 0)
(5.80837 -0.0147116 0)
(5.63531 -0.0183057 0)
(5.64304 -0.0159847 0)
(5.4564 -0.0228384 0)
(5.46702 -0.0223456 0)
(5.2431 -0.0329989 0)
(5.23405 -0.0396743 0)
(4.9277 -0.0231414 0)
(8.0935 -0.386383 0)
(5.47101 -0.24199 0)
(3.94381 -0.0432858 0)
(3.19316 0.0150926 0)
(2.84113 0.0180374 0)
(2.63942 0.0109498 0)
(2.53077 0.0056127 0)
(2.42564 0.00219125 0)
(2.37219 0.00154005 0)
(2.29814 0.00035667 0)
(2.27464 0.000764256 0)
(2.21409 -0.000292798 0)
(2.20486 0.000234048 0)
(2.14276 -0.00114965 0)
(2.13669 -0.000333488 0)
(2.06439 -0.0023685 0)
(2.05204 -0.00123298 0)
(1.95935 -0.00397299 0)
(1.9218 -0.00489869 0)
(1.76093 0.0120134 0)
(2.22513 -0.0836251 0)
(2.37906 0.0119421 0)
(2.64695 0.0129649 0)
(2.88206 -0.0137872 0)
(3.10378 -0.0405167 0)
(3.2705 -0.0547987 0)
(3.43212 -0.0648231 0)
(3.54861 -0.0672426 0)
(3.66776 -0.0814096 0)
(3.76977 -0.0973886 0)
(3.87942 -0.115013 0)
(3.97625 -0.129961 0)
(4.08098 -0.147631 0)
(4.17825 -0.162307 0)
(4.2741 -0.178029 0)
(4.37418 -0.191664 0)
(4.47291 -0.204898 0)
(4.58646 -0.218834 0)
(4.71071 -0.232199 0)
(4.84634 -0.246093 0)
(4.98111 -0.270353 0)
(5.11955 -0.299919 0)
(5.24621 -0.331573 0)
(5.37069 -0.364655 0)
(5.48341 -0.396946 0)
(5.58622 -0.425945 0)
(5.68496 -0.452879 0)
(5.77527 -0.474608 0)
(5.87382 -0.493016 0)
(5.96925 -0.511175 0)
(6.08099 -0.533684 0)
(6.19615 -0.559461 0)
(6.32119 -0.590523 0)
(6.4478 -0.622988 0)
(6.57003 -0.655449 0)
(6.69533 -0.687551 0)
(6.81047 -0.717076 0)
(6.93442 -0.747463 0)
(7.04594 -0.779593 0)
(7.16947 -0.816091 0)
(7.27713 -0.853765 0)
(7.3912 -0.89601 0)
(7.48854 -0.93999 0)
(7.58365 -0.985098 0)
(7.66446 -1.02761 0)
(7.73872 -1.06577 0)
(7.80804 -1.09969 0)
(7.87286 -1.12663 0)
(7.94043 -1.15109 0)
(8.0075 -1.1674 0)
(8.08037 -1.18497 0)
(8.1581 -1.19569 0)
(8.23797 -1.21253 0)
(8.3239 -1.22496 0)
(8.40527 -1.24626 0)
(8.48875 -1.26402 0)
(8.56489 -1.29012 0)
(8.63487 -1.31063 0)
(8.69966 -1.33608 0)
(8.75404 -1.35512 0)
(8.81179 -1.38121 0)
(8.86106 -1.4016 0)
(8.91531 -1.43059 0)
(8.96983 -1.45076 0)
(9.01342 -1.47651 0)
(9.07064 -1.49171 0)
(9.09994 -1.50435 0)
(9.14783 -1.50687 0)
(9.17254 -1.50698 0)
(9.21385 -1.50411 0)
(9.24473 -1.50365 0)
(9.28301 -1.49534 0)
(9.30659 -1.49291 0)
(9.34763 -1.48176 0)
(9.37014 -1.48209 0)
(9.41912 -1.47241 0)
(9.44313 -1.47515 0)
(9.50091 -1.47365 0)
(9.53095 -1.48148 0)
(9.58616 -1.48153 0)
(9.62412 -1.48594 0)
(9.66522 -1.47255 0)
(9.70059 -1.46158 0)
(9.72275 -1.43534 0)
(9.75356 -1.40747 0)
(9.75398 -1.37002 0)
(9.77916 -1.33627 0)
(9.77393 -1.29536 0)
(9.78628 -1.25932 0)
(9.77834 -1.2129 0)
(9.77673 -1.17104 0)
(9.76673 -1.11159 0)
(9.74497 -1.0619 0)
(9.72876 -1.00057 0)
(9.69303 -0.951969 0)
(9.67986 -0.891688 0)
(9.63093 -0.845163 0)
(9.62216 -0.790565 0)
(9.56823 -0.753207 0)
(9.58199 -0.712416 0)
(9.52002 -0.690536 0)
(9.55937 -0.655942 0)
(9.49506 -0.652568 0)
(9.55272 -0.623647 0)
(9.47841 -0.604154 0)
(9.53527 -0.56804 0)
(9.44788 -0.541991 0)
(9.49352 -0.498701 0)
(9.3887 -0.465444 0)
(9.41345 -0.418608 0)
(9.28797 -0.381245 0)
(9.29086 -0.330748 0)
(9.14244 -0.295677 0)
(9.13771 -0.240595 0)
(8.97651 -0.214969 0)
(9.00387 -0.158294 0)
(8.84383 -0.140882 0)
(8.89116 -0.078546 0)
(8.72079 -0.0559354 0)
(8.7587 0.0165931 0)
(8.59583 0.040172 0)
(8.64024 0.105617 0)
(8.50108 0.115714 0)
(8.55818 0.172782 0)
(8.42614 0.167901 0)
(8.48972 0.219923 0)
(8.36482 0.206936 0)
(8.42321 0.264012 0)
(8.30961 0.260628 0)
(8.35394 0.318398 0)
(8.24623 0.319525 0)
(8.2883 0.376002 0)
(8.17573 0.378654 0)
(8.22025 0.438235 0)
(8.09846 0.429918 0)
(8.15252 0.490073 0)
(8.02249 0.476733 0)
(8.0857 0.544901 0)
(7.94957 0.523617 0)
(8.02688 0.586614 0)
(7.87872 0.554742 0)
(7.95828 0.613078 0)
(7.80783 0.583437 0)
(7.89441 0.63248 0)
(7.75821 0.587761 0)
(7.86586 0.621597 0)
(7.71439 0.582016 0)
(7.85344 0.621572 0)
(7.66803 0.571469 0)
(7.84378 0.612807 0)
(7.63587 0.558626 0)
(7.81076 0.605077 0)
(7.61731 0.565103 0)
(7.77008 0.605178 0)
(7.59773 0.558326 0)
(7.73625 0.607964 0)
(7.58662 0.5702 0)
(7.70271 0.620878 0)
(7.59034 0.592627 0)
(7.68663 0.646391 0)
(7.60957 0.60586 0)
(7.67631 0.660301 0)
(7.6229 0.624781 0)
(7.65106 0.690094 0)
(7.59847 0.662399 0)
(7.59278 0.725066 0)
(7.58029 0.70609 0)
(7.52597 0.754213 0)
(7.54434 0.741168 0)
(7.42918 0.800411 0)
(7.49569 0.78206 0)
(7.27966 0.851336 0)
(7.41058 0.825816 0)
(7.12007 0.923032 0)
(7.31437 0.862389 0)
(6.9692 1.02507 0)
(7.24005 0.917471 0)
(6.82439 1.14588 0)
(7.21679 1.00394 0)
(6.68464 1.2865 0)
(7.18122 1.11162 0)
(6.59184 1.45456 0)
(7.07934 1.22691 0)
(6.55036 1.64223 0)
(6.92989 1.38719 0)
(6.49695 1.84296 0)
(6.80734 1.62162 0)
(6.39328 2.0663 0)
(6.72357 1.93355 0)
(6.20933 2.31839 0)
(6.64299 2.29463 0)
(5.96607 2.63784 0)
(6.48013 2.719 0)
(5.75058 3.12475 0)
(6.18069 3.24127 0)
(5.62127 3.95192 0)
(5.79003 4.03392 0)
(5.2099 5.24051 0)
(6.14808 5.93023 0)
(3.89349 8.83907 0)
(5.27752 -0.0553579 0)
(5.27509 -0.0230797 0)
(5.32547 -0.039963 0)
(5.4233 -0.0831286 0)
(5.54556 -0.120273 0)
(5.6546 -0.138649 0)
(5.74819 -0.146385 0)
(5.81876 -0.149286 0)
(5.8765 -0.156588 0)
(5.92822 -0.169249 0)
(5.98118 -0.18646 0)
(6.0376 -0.204813 0)
(6.09999 -0.223569 0)
(6.16751 -0.240701 0)
(6.23879 -0.256241 0)
(6.31445 -0.271869 0)
(6.39388 -0.286833 0)
(6.47671 -0.302963 0)
(6.56497 -0.321412 0)
(6.65833 -0.341362 0)
(6.75379 -0.365586 0)
(6.85277 -0.394024 0)
(6.94601 -0.423292 0)
(7.03917 -0.453767 0)
(7.12724 -0.482777 0)
(7.21266 -0.510203 0)
(7.29809 -0.533963 0)
(7.3799 -0.556242 0)
(7.46761 -0.577243 0)
(7.5514 -0.599322 0)
(7.64653 -0.623649 0)
(7.73607 -0.650776 0)
(7.83771 -0.681583 0)
(7.92844 -0.712908 0)
(8.02768 -0.745411 0)
(8.11374 -0.774717 0)
(8.20447 -0.805264 0)
(8.28645 -0.832506 0)
(8.36784 -0.864301 0)
(8.44835 -0.894901 0)
(8.52299 -0.931748 0)
(8.60248 -0.967073 0)
(8.67121 -1.0078 0)
(8.74677 -1.04498 0)
(8.80998 -1.08399 0)
(8.87827 -1.11748 0)
(8.93805 -1.15034 0)
(8.99918 -1.17727 0)
(9.05844 -1.20248 0)
(9.11447 -1.22199 0)
(9.17506 -1.2403 0)
(9.2277 -1.25448 0)
(9.28903 -1.27006 0)
(9.33825 -1.28303 0)
(9.39699 -1.30003 0)
(9.44169 -1.31506 0)
(9.49416 -1.33491 0)
(9.53431 -1.35397 0)
(9.58081 -1.3757 0)
(9.61698 -1.39881 0)
(9.66169 -1.42187 0)
(9.68995 -1.44689 0)
(9.73359 -1.46978 0)
(9.74822 -1.49059 0)
(9.78595 -1.50779 0)
(9.78916 -1.51746 0)
(9.81255 -1.52194 0)
(9.81349 -1.52179 0)
(9.83109 -1.52299 0)
(9.83891 -1.52476 0)
(9.85296 -1.5191 0)
(9.86017 -1.51446 0)
(9.87356 -1.50697 0)
(9.88308 -1.50318 0)
(9.89341 -1.502 0)
(9.91155 -1.49747 0)
(9.91563 -1.50144 0)
(9.94389 -1.49904 0)
(9.937 -1.50529 0)
(9.9687 -1.50383 0)
(9.95659 -1.5037 0)
(9.97933 -1.4874 0)
(9.96536 -1.47478 0)
(9.97755 -1.4407 0)
(9.95826 -1.40986 0)
(9.96108 -1.36823 0)
(9.94233 -1.33388 0)
(9.93637 -1.28546 0)
(9.90846 -1.25041 0)
(9.89448 -1.19699 0)
(9.86171 -1.15326 0)
(9.83245 -1.0866 0)
(9.78878 -1.03837 0)
(9.74424 -0.971268 0)
(9.69254 -0.923321 0)
(9.63961 -0.856581 0)
(9.58948 -0.813111 0)
(9.53864 -0.757505 0)
(9.50836 -0.72857 0)
(9.47022 -0.690705 0)
(9.45178 -0.677579 0)
(9.4343 -0.648839 0)
(9.41952 -0.648072 0)
(9.40111 -0.615115 0)
(9.38082 -0.590755 0)
(9.35381 -0.549861 0)
(9.32004 -0.515145 0)
(9.27878 -0.466902 0)
(9.22677 -0.424357 0)
(9.16759 -0.370784 0)
(9.10641 -0.321875 0)
(9.0264 -0.265905 0)
(8.95735 -0.220103 0)
(8.86695 -0.175121 0)
(8.82068 -0.152939 0)
(8.74209 -0.111913 0)
(8.70334 -0.0879526 0)
(8.62188 -0.0309463 0)
(8.58534 0.000691977 0)
(8.49459 0.0597259 0)
(8.48542 0.0848477 0)
(8.39182 0.131329 0)
(8.41667 0.146426 0)
(8.32249 0.189469 0)
(8.36856 0.194769 0)
(8.26637 0.238163 0)
(8.32784 0.235643 0)
(8.20271 0.284282 0)
(8.27527 0.293035 0)
(8.13485 0.342275 0)
(8.20842 0.348938 0)
(8.06605 0.40283 0)
(8.1366 0.406036 0)
(7.99633 0.466694 0)
(8.06867 0.463683 0)
(7.91677 0.518501 0)
(8.00725 0.510441 0)
(7.84142 0.560115 0)
(7.95639 0.552102 0)
(7.78187 0.593297 0)
(7.91593 0.585485 0)
(7.71497 0.628337 0)
(7.86086 0.61383 0)
(7.66126 0.645456 0)
(7.81688 0.600793 0)
(7.6312 0.637169 0)
(7.78028 0.590017 0)
(7.60061 0.630341 0)
(7.77018 0.577084 0)
(7.58756 0.617763 0)
(7.75514 0.56116 0)
(7.57299 0.610203 0)
(7.73572 0.560323 0)
(7.56239 0.610134 0)
(7.72028 0.550269 0)
(7.55717 0.62192 0)
(7.71943 0.547522 0)
(7.53807 0.639728 0)
(7.75485 0.562587 0)
(7.53346 0.662829 0)
(7.81478 0.571604 0)
(7.53813 0.685401 0)
(7.83982 0.602658 0)
(7.53822 0.725587 0)
(7.82909 0.634154 0)
(7.53406 0.76317 0)
(7.81624 0.656465 0)
(7.51205 0.824037 0)
(7.77746 0.69338 0)
(7.45133 0.894522 0)
(7.72532 0.736455 0)
(7.3685 0.973465 0)
(7.64847 0.771154 0)
(7.26127 1.05335 0)
(7.57187 0.80604 0)
(7.13565 1.1405 0)
(7.54484 0.862272 0)
(7.00863 1.24411 0)
(7.53546 0.951313 0)
(6.92745 1.38184 0)
(7.47898 1.06006 0)
(6.87953 1.53337 0)
(7.40712 1.21811 0)
(6.79747 1.686 0)
(7.38275 1.42556 0)
(6.6567 1.85105 0)
(7.39745 1.6665 0)
(6.50626 2.07449 0)
(7.41672 1.94175 0)
(6.40684 2.4095 0)
(7.34978 2.23776 0)
(6.37843 2.85837 0)
(7.14064 2.59148 0)
(6.37665 3.44607 0)
(6.88071 3.14886 0)
(6.23984 4.21473 0)
(7.0103 4.13807 0)
(5.63705 5.50873 0)
(8.29354 5.14462 0)
(6.27835 9.42168 0)
(7.89736 -0.0817893 0)
(7.90206 -0.0894226 0)
(7.93109 -0.110405 0)
(8.00189 -0.135659 0)
(8.09088 -0.153935 0)
(8.17105 -0.162607 0)
(8.22627 -0.166415 0)
(8.25995 -0.169605 0)
(8.2764 -0.176851 0)
(8.29121 -0.18996 0)
(8.30673 -0.208505 0)
(8.33212 -0.230206 0)
(8.36181 -0.253042 0)
(8.40088 -0.275559 0)
(8.4422 -0.296774 0)
(8.49069 -0.316964 0)
(8.53991 -0.336226 0)
(8.59368 -0.355463 0)
(8.64607 -0.375765 0)
(8.70348 -0.398138 0)
(8.75759 -0.423096 0)
(8.81829 -0.451225 0)
(8.87238 -0.480151 0)
(8.93387 -0.510096 0)
(8.98704 -0.53839 0)
(9.04938 -0.565992 0)
(9.10243 -0.590253 0)
(9.16677 -0.614215 0)
(9.22064 -0.635825 0)
(9.28523 -0.659513 0)
(9.34021 -0.682913 0)
(9.40297 -0.710637 0)
(9.45859 -0.738444 0)
(9.51522 -0.769771 0)
(9.56886 -0.799185 0)
(9.61704 -0.82986 0)
(9.66919 -0.857718 0)
(9.71176 -0.886311 0)
(9.76386 -0.914193 0)
(9.80455 -0.943703 0)
(9.85744 -0.975382 0)
(9.90093 -1.00855 0)
(9.95286 -1.04492 0)
(9.99911 -1.08058 0)
(10.046 -1.11784 0)
(10.0918 -1.15172 0)
(10.13 -1.18492 0)
(10.1721 -1.21299 0)
(10.2008 -1.23886 0)
(10.2377 -1.25944 0)
(10.2595 -1.2774 0)
(10.2914 -1.29211 0)
(10.3098 -1.30539 0)
(10.3366 -1.31767 0)
(10.3542 -1.33118 0)
(10.3778 -1.34488 0)
(10.3962 -1.36313 0)
(10.42 -1.38123 0)
(10.4379 -1.40421 0)
(10.4618 -1.42432 0)
(10.4712 -1.44576 0)
(10.4899 -1.46389 0)
(10.4834 -1.4797 0)
(10.4893 -1.49383 0)
(10.467 -1.50135 0)
(10.4564 -1.50808 0)
(10.428 -1.50982 0)
(10.4134 -1.51367 0)
(10.3937 -1.51603 0)
(10.3768 -1.51834 0)
(10.3575 -1.51561 0)
(10.3394 -1.51131 0)
(10.3236 -1.50266 0)
(10.3021 -1.50119 0)
(10.2893 -1.4968 0)
(10.2603 -1.49586 0)
(10.244 -1.49535 0)
(10.2127 -1.49258 0)
(10.1913 -1.49852 0)
(10.1661 -1.49562 0)
(10.1405 -1.49438 0)
(10.1161 -1.47767 0)
(10.0935 -1.46297 0)
(10.0614 -1.42272 0)
(10.0396 -1.39485 0)
(10.0043 -1.34744 0)
(9.97733 -1.31096 0)
(9.92781 -1.25755 0)
(9.8998 -1.22228 0)
(9.83717 -1.16483 0)
(9.80878 -1.11606 0)
(9.73101 -1.04488 0)
(9.69171 -0.995493 0)
(9.60415 -0.922408 0)
(9.5605 -0.874542 0)
(9.47456 -0.806821 0)
(9.42611 -0.770746 0)
(9.35567 -0.71967 0)
(9.3316 -0.701042 0)
(9.27544 -0.66651 0)
(9.26829 -0.664533 0)
(9.22706 -0.63632 0)
(9.20972 -0.639983 0)
(9.17175 -0.595209 0)
(9.1386 -0.572973 0)
(9.10093 -0.515903 0)
(9.04281 -0.48636 0)
(9.00935 -0.418741 0)
(8.92535 -0.384471 0)
(8.89461 -0.307582 0)
(8.78905 -0.269892 0)
(8.75588 -0.189119 0)
(8.64172 -0.166173 0)
(8.644 -0.117007 0)
(8.54023 -0.110665 0)
(8.54154 -0.0543676 0)
(8.4184 -0.0400449 0)
(8.42303 0.0288316 0)
(8.28747 0.042663 0)
(8.3178 0.112307 0)
(8.18799 0.111492 0)
(8.23668 0.170617 0)
(8.12237 0.158501 0)
(8.17987 0.217172 0)
(8.07448 0.202314 0)
(8.13637 0.268355 0)
(8.02699 0.249315 0)
(8.08616 0.32459 0)
(7.9686 0.307889 0)
(8.03127 0.388633 0)
(7.90201 0.365569 0)
(7.96258 0.455514 0)
(7.83365 0.422708 0)
(7.89047 0.52076 0)
(7.77076 0.48285 0)
(7.81403 0.575044 0)
(7.70988 0.529116 0)
(7.74785 0.604299 0)
(7.65702 0.556894 0)
(7.70399 0.630334 0)
(7.60984 0.584516 0)
(7.67049 0.673576 0)
(7.54974 0.611385 0)
(7.64917 0.681643 0)
(7.5138 0.593968 0)
(7.63017 0.673366 0)
(7.47992 0.588777 0)
(7.61364 0.661593 0)
(7.46503 0.568121 0)
(7.61845 0.651583 0)
(7.4382 0.548761 0)
(7.64325 0.654964 0)
(7.40822 0.533911 0)
(7.65622 0.655656 0)
(7.41079 0.524432 0)
(7.66706 0.6764 0)
(7.42864 0.511443 0)
(7.66214 0.679974 0)
(7.48855 0.508725 0)
(7.67665 0.684234 0)
(7.55489 0.52531 0)
(7.70443 0.721224 0)
(7.57004 0.567391 0)
(7.72632 0.779258 0)
(7.58069 0.596067 0)
(7.73822 0.82661 0)
(7.57629 0.622412 0)
(7.71189 0.894829 0)
(7.57968 0.672312 0)
(7.65381 0.974548 0)
(7.58053 0.727099 0)
(7.55505 1.05896 0)
(7.61103 0.774933 0)
(7.40128 1.13195 0)
(7.67033 0.820476 0)
(7.23105 1.21541 0)
(7.72444 0.871616 0)
(7.09296 1.31755 0)
(7.75046 0.95288 0)
(7.00141 1.44381 0)
(7.77098 1.07776 0)
(6.88453 1.57964 0)
(7.80112 1.23305 0)
(6.74772 1.75114 0)
(7.81516 1.39702 0)
(6.65601 1.97202 0)
(7.77247 1.57057 0)
(6.63834 2.25644 0)
(7.65786 1.78119 0)
(6.72083 2.61403 0)
(7.50945 2.08655 0)
(6.81796 3.02703 0)
(7.44964 2.5234 0)
(6.77716 3.50136 0)
(7.69945 3.12441 0)
(6.48411 4.30449 0)
(8.51991 3.7074 0)
(6.2479 6.08778 0)
(9.50709 3.69709 0)
(7.92188 8.62905 0)
(10.0637 -0.11615 0)
(10.0831 -0.227617 0)
(10.1307 -0.271945 0)
(10.1969 -0.265046 0)
(10.2663 -0.238944 0)
(10.3182 -0.212798 0)
(10.3482 -0.196202 0)
(10.3589 -0.189904 0)
(10.3601 -0.193821 0)
(10.3594 -0.2055 0)
(10.3621 -0.224096 0)
(10.3703 -0.246471 0)
(10.3831 -0.271598 0)
(10.4003 -0.2964 0)
(10.4199 -0.320993 0)
(10.4417 -0.343391 0)
(10.4643 -0.365302 0)
(10.4877 -0.385626 0)
(10.512 -0.407183 0)
(10.5376 -0.429028 0)
(10.5647 -0.453759 0)
(10.5924 -0.479578 0)
(10.621 -0.508149 0)
(10.6493 -0.53622 0)
(10.6775 -0.5655 0)
(10.706 -0.592408 0)
(10.7321 -0.619075 0)
(10.7608 -0.642824 0)
(10.7844 -0.666758 0)
(10.8136 -0.689376 0)
(10.8333 -0.71333 0)
(10.8624 -0.737935 0)
(10.8775 -0.764036 0)
(10.9049 -0.792049 0)
(10.9157 -0.819723 0)
(10.94 -0.849232 0)
(10.9497 -0.876676 0)
(10.9722 -0.90719 0)
(10.9861 -0.935254 0)
(11.008 -0.967447 0)
(11.0284 -0.997936 0)
(11.0496 -1.03361 0)
(11.0747 -1.06773 0)
(11.0921 -1.10512 0)
(11.1162 -1.1399 0)
(11.1264 -1.17459 0)
(11.1444 -1.20509 0)
(11.1468 -1.23263 0)
(11.1569 -1.25556 0)
(11.1538 -1.27439 0)
(11.157 -1.28971 0)
(11.1511 -1.30195 0)
(11.1492 -1.31238 0)
(11.1426 -1.32281 0)
(11.1401 -1.33408 0)
(11.1353 -1.34858 0)
(11.1354 -1.36489 0)
(11.1293 -1.38308 0)
(11.128 -1.40167 0)
(11.1115 -1.41763 0)
(11.1012 -1.43396 0)
(11.0702 -1.44471 0)
(11.0452 -1.4566 0)
(11.0018 -1.46108 0)
(10.9572 -1.46654 0)
(10.909 -1.46969 0)
(10.8545 -1.47785 0)
(10.8123 -1.48557 0)
(10.7541 -1.48848 0)
(10.7147 -1.49031 0)
(10.652 -1.48824 0)
(10.6089 -1.48306 0)
(10.5472 -1.4745 0)
(10.5074 -1.47168 0)
(10.4409 -1.46354 0)
(10.3923 -1.46282 0)
(10.3248 -1.45612 0)
(10.2775 -1.46013 0)
(10.2194 -1.46272 0)
(10.1834 -1.46419 0)
(10.1254 -1.45685 0)
(10.097 -1.44655 0)
(10.0313 -1.42127 0)
(10.0012 -1.38783 0)
(9.93269 -1.35567 0)
(9.89714 -1.30777 0)
(9.82071 -1.26648 0)
(9.77835 -1.22343 0)
(9.70542 -1.1809 0)
(9.65903 -1.12556 0)
(9.57529 -1.06785 0)
(9.52231 -0.993447 0)
(9.42843 -0.936119 0)
(9.37585 -0.862094 0)
(9.28778 -0.814155 0)
(9.23993 -0.748091 0)
(9.15549 -0.722554 0)
(9.12392 -0.677975 0)
(9.05916 -0.672378 0)
(9.03369 -0.636781 0)
(8.98876 -0.642858 0)
(8.95725 -0.606964 0)
(8.91309 -0.61753 0)
(8.87873 -0.559718 0)
(8.83047 -0.547778 0)
(8.79111 -0.475363 0)
(8.72635 -0.454364 0)
(8.68673 -0.368102 0)
(8.60751 -0.343271 0)
(8.56334 -0.247722 0)
(8.46313 -0.217827 0)
(8.42403 -0.133639 0)
(8.35097 -0.141858 0)
(8.34712 -0.0811044 0)
(8.25905 -0.0771771 0)
(8.25399 -0.00146505 0)
(8.13928 0.00553049 0)
(8.13275 0.0853985 0)
(8.00537 0.0825692 0)
(8.03134 0.157494 0)
(7.9071 0.133215 0)
(7.95331 0.203147 0)
(7.84639 0.168241 0)
(7.88767 0.245217 0)
(7.80545 0.207834 0)
(7.83316 0.293398 0)
(7.75909 0.258299 0)
(7.78495 0.357029 0)
(7.7134 0.315522 0)
(7.7361 0.427854 0)
(7.66927 0.377963 0)
(7.67993 0.497521 0)
(7.61509 0.438837 0)
(7.62582 0.558629 0)
(7.56356 0.496138 0)
(7.57396 0.608608 0)
(7.51196 0.541759 0)
(7.52585 0.631859 0)
(7.45625 0.564666 0)
(7.49815 0.65714 0)
(7.40834 0.589629 0)
(7.4792 0.698756 0)
(7.38259 0.610764 0)
(7.46998 0.697544 0)
(7.38632 0.598101 0)
(7.45541 0.695334 0)
(7.37934 0.591378 0)
(7.4499 0.675056 0)
(7.3904 0.563023 0)
(7.43754 0.655529 0)
(7.4113 0.537279 0)
(7.43769 0.66003 0)
(7.45085 0.521775 0)
(7.42826 0.648195 0)
(7.50764 0.510557 0)
(7.43179 0.661964 0)
(7.54726 0.499554 0)
(7.45844 0.669896 0)
(7.60674 0.494624 0)
(7.47586 0.667749 0)
(7.65994 0.501231 0)
(7.50352 0.722841 0)
(7.71289 0.528831 0)
(7.48777 0.767672 0)
(7.80974 0.564383 0)
(7.44151 0.835294 0)
(7.87761 0.608414 0)
(7.3636 0.919186 0)
(7.94803 0.642133 0)
(7.28236 1.01065 0)
(8.03038 0.681304 0)
(7.17926 1.10185 0)
(8.11563 0.72762 0)
(7.0699 1.18386 0)
(8.16169 0.771341 0)
(6.9786 1.26797 0)
(8.14611 0.820429 0)
(6.92896 1.36881 0)
(8.11452 0.892133 0)
(6.89217 1.50447 0)
(8.11095 1.00715 0)
(6.88065 1.6889 0)
(8.07964 1.12816 0)
(6.92716 1.90191 0)
(7.99309 1.26617 0)
(7.02018 2.13557 0)
(7.89765 1.44941 0)
(7.09524 2.39394 0)
(7.86347 1.7118 0)
(7.08817 2.70126 0)
(7.98188 2.05216 0)
(6.9693 3.1183 0)
(8.31317 2.42654 0)
(6.74164 3.74606 0)
(8.89104 2.69269 0)
(6.60795 4.8081 0)
(9.65057 2.72014 0)
(7.14382 6.36409 0)
(10.0015 2.93883 0)
(8.78397 7.53086 0)
(11.5449 -0.101384 0)
(11.585 -0.242806 0)
(11.7007 -0.300726 0)
(11.7935 -0.29413 0)
(11.8567 -0.259501 0)
(11.8842 -0.222515 0)
(11.8912 -0.19804 0)
(11.881 -0.188805 0)
(11.8695 -0.193072 0)
(11.8542 -0.206553 0)
(11.8458 -0.226964 0)
(11.8372 -0.250773 0)
(11.8361 -0.276826 0)
(11.8343 -0.302524 0)
(11.8382 -0.327882 0)
(11.8402 -0.351385 0)
(11.8463 -0.374042 0)
(11.8503 -0.395444 0)
(11.8578 -0.417278 0)
(11.8631 -0.439608 0)
(11.8713 -0.463883 0)
(11.8761 -0.489607 0)
(11.8835 -0.517392 0)
(11.8851 -0.545556 0)
(11.89 -0.574566 0)
(11.8871 -0.602078 0)
(11.8894 -0.629326 0)
(11.883 -0.653727 0)
(11.8843 -0.678552 0)
(11.8771 -0.700394 0)
(11.8782 -0.724298 0)
(11.8722 -0.745965 0)
(11.8723 -0.771742 0)
(11.8689 -0.795439 0)
(11.8662 -0.823709 0)
(11.866 -0.849635 0)
(11.86 -0.880264 0)
(11.8637 -0.908703 0)
(11.8554 -0.941382 0)
(11.8622 -0.972807 0)
(11.8523 -1.00771 0)
(11.8594 -1.04226 0)
(11.8477 -1.07831 0)
(11.8513 -1.11358 0)
(11.8367 -1.14786 0)
(11.833 -1.17945 0)
(11.8151 -1.20798 0)
(11.8028 -1.23225 0)
(11.7811 -1.25268 0)
(11.7605 -1.26815 0)
(11.7345 -1.28118 0)
(11.7082 -1.29011 0)
(11.6801 -1.30052 0)
(11.6538 -1.30973 0)
(11.6264 -1.32321 0)
(11.6017 -1.3363 0)
(11.5707 -1.3518 0)
(11.5411 -1.3656 0)
(11.4993 -1.37945 0)
(11.4585 -1.39177 0)
(11.4066 -1.40312 0)
(11.3511 -1.41067 0)
(11.2913 -1.41582 0)
(11.2193 -1.41599 0)
(11.1572 -1.41935 0)
(11.0791 -1.42155 0)
(11.0196 -1.43011 0)
(10.9332 -1.43222 0)
(10.8639 -1.43682 0)
(10.7736 -1.43087 0)
(10.6969 -1.42902 0)
(10.6039 -1.41871 0)
(10.5292 -1.41566 0)
(10.4405 -1.40519 0)
(10.3607 -1.40079 0)
(10.2716 -1.39592 0)
(10.1952 -1.39894 0)
(10.1225 -1.40591 0)
(10.0628 -1.41643 0)
(9.999 -1.41542 0)
(9.93958 -1.41373 0)
(9.87773 -1.3967 0)
(9.80739 -1.37283 0)
(9.75087 -1.33978 0)
(9.67589 -1.30669 0)
(9.61144 -1.25699 0)
(9.54449 -1.22079 0)
(9.47862 -1.17443 0)
(9.41101 -1.13431 0)
(9.34476 -1.06189 0)
(9.26033 -1.0068 0)
(9.18902 -0.924465 0)
(9.11529 -0.881134 0)
(9.04295 -0.799308 0)
(8.98889 -0.771654 0)
(8.91571 -0.692712 0)
(8.87446 -0.693182 0)
(8.80912 -0.626982 0)
(8.76918 -0.649948 0)
(8.70913 -0.592172 0)
(8.68403 -0.622005 0)
(8.61431 -0.559689 0)
(8.60241 -0.593636 0)
(8.51792 -0.508066 0)
(8.50966 -0.514804 0)
(8.40882 -0.420224 0)
(8.40011 -0.414349 0)
(8.2897 -0.306541 0)
(8.26821 -0.295875 0)
(8.14463 -0.173033 0)
(8.11705 -0.171076 0)
(8.03535 -0.0882092 0)
(8.03041 -0.123276 0)
(7.94889 -0.0284911 0)
(7.92561 -0.0478164 0)
(7.84669 0.0663977 0)
(7.79124 0.0502427 0)
(7.71636 0.161449 0)
(7.66752 0.117978 0)
(7.6057 0.217077 0)
(7.57009 0.151229 0)
(7.52077 0.253484 0)
(7.50485 0.181783 0)
(7.45364 0.290204 0)
(7.46162 0.220661 0)
(7.3969 0.335225 0)
(7.41667 0.264451 0)
(7.35898 0.395832 0)
(7.37922 0.320442 0)
(7.3312 0.469499 0)
(7.35527 0.384618 0)
(7.30139 0.536757 0)
(7.32293 0.445016 0)
(7.27351 0.598216 0)
(7.29066 0.495627 0)
(7.24536 0.650197 0)
(7.25503 0.539525 0)
(7.21053 0.678843 0)
(7.21361 0.556341 0)
(7.18608 0.701542 0)
(7.18975 0.574971 0)
(7.16584 0.732389 0)
(7.19844 0.58163 0)
(7.17873 0.719176 0)
(7.21904 0.572936 0)
(7.18991 0.722968 0)
(7.23741 0.559104 0)
(7.19113 0.703457 0)
(7.27131 0.525366 0)
(7.18689 0.694273 0)
(7.31869 0.49464 0)
(7.17469 0.692509 0)
(7.38702 0.475979 0)
(7.19135 0.690395 0)
(7.43571 0.467572 0)
(7.22603 0.690494 0)
(7.47205 0.440828 0)
(7.28837 0.702474 0)
(7.50851 0.426593 0)
(7.33993 0.723291 0)
(7.53628 0.428532 0)
(7.36623 0.789246 0)
(7.62556 0.465722 0)