/*--------------------------------*- C++ -*----------------------------------*\
| =========                 |                                                 |
| \\      /  F ield         | OpenFOAM: The Open Source CFD Toolbox           |
|  \\    /   O peration     | Version:  2.4.0                                 |
|   \\  /    A nd           | Web:      www.OpenFOAM.org                      |
|    \\/     M anipulation  |                                                 |
\*---------------------------------------------------------------------------*/
FoamFile
{
    version     2.0;
    format      ascii;
    class       volScalarField;
    location    "47";
    object      p;
}
// * * * * * * * * * * * * * * * * * * * * * * * * * * * * * * * * * * * * * //

dimensions      [0 2 -2 0 0 0 0];

internalField   nonuniform List<scalar> 
4400
(
-0.107102
-0.105538
-0.110438
-0.115059
-0.108927
-0.110079
-0.115111
-0.108608
-0.117139
-0.121956
-0.109571
-0.119009
-0.120177
-0.115034
-0.124235
-0.121941
-0.119742
-0.126382
-0.125394
-0.128361
-0.107168
-0.105416
-0.110386
-0.115434
-0.108861
-0.10993
-0.115379
-0.108435
-0.11705
-0.122538
-0.109349
-0.118954
-0.120511
-0.114722
-0.124354
-0.12213
-0.119349
-0.126673
-0.125342
-0.128244
-0.107251
-0.105269
-0.11036
-0.115743
-0.108703
-0.1098
-0.115752
-0.108137
-0.117025
-0.123082
-0.108945
-0.11901
-0.120835
-0.1143
-0.124609
-0.122297
-0.119001
-0.127042
-0.125154
-0.127938
-0.107325
-0.105166
-0.110352
-0.115957
-0.108517
-0.109786
-0.116085
-0.107837
-0.117053
-0.123492
-0.108548
-0.119157
-0.121031
-0.113927
-0.124852
-0.122319
-0.118721
-0.127229
-0.124974
-0.127419
-0.107378
-0.105161
-0.110359
-0.115974
-0.10837
-0.109938
-0.11632
-0.107668
-0.117116
-0.123658
-0.10834
-0.119358
-0.12106
-0.113739
-0.124983
-0.122171
-0.118651
-0.127175
-0.124785
-0.126822
-0.107412
-0.105301
-0.110365
-0.115735
-0.108371
-0.110278
-0.116434
-0.107801
-0.117205
-0.123606
-0.108534
-0.119551
-0.121026
-0.113866
-0.124941
-0.121932
-0.118845
-0.126884
-0.124614
-0.126271
-0.107426
-0.10561
-0.110334
-0.115167
-0.108639
-0.110789
-0.116351
-0.108423
-0.117266
-0.123287
-0.109369
-0.119626
-0.120978
-0.114433
-0.124634
-0.121686
-0.119312
-0.126333
-0.124466
-0.125776
-0.107416
-0.106116
-0.110243
-0.114214
-0.109232
-0.111424
-0.115938
-0.109655
-0.117211
-0.122536
-0.110953
-0.119472
-0.120845
-0.115487
-0.123972
-0.121461
-0.120016
-0.125518
-0.124334
-0.125344
-0.107384
-0.106795
-0.110086
-0.112896
-0.110115
-0.112111
-0.115125
-0.111459
-0.116935
-0.121198
-0.113196
-0.119038
-0.120512
-0.116956
-0.122899
-0.121252
-0.120891
-0.124468
-0.12421
-0.124967
-0.10734
-0.107587
-0.109871
-0.111316
-0.111167
-0.112757
-0.113969
-0.113657
-0.116354
-0.119228
-0.115862
-0.118342
-0.119872
-0.118657
-0.12147
-0.121023
-0.121838
-0.123261
-0.124084
-0.124619
-0.107299
-0.108412
-0.109606
-0.109637
-0.112225
-0.113287
-0.112642
-0.115964
-0.115464
-0.116764
-0.118573
-0.11747
-0.118911
-0.120332
-0.119772
-0.120743
-0.12274
-0.122012
-0.123926
-0.124273
-0.107276
-0.109186
-0.109305
-0.108037
-0.113138
-0.113666
-0.111368
-0.118068
-0.114373
-0.11412
-0.120962
-0.116574
-0.117753
-0.121728
-0.118061
-0.120402
-0.123491
-0.120849
-0.123709
-0.123917
-0.107281
-0.10984
-0.108998
-0.106671
-0.113798
-0.113914
-0.110336
-0.119722
-0.113281
-0.111656
-0.122744
-0.115826
-0.116595
-0.122702
-0.116661
-0.120009
-0.124028
-0.119893
-0.123424
-0.12357
-0.107309
-0.110329
-0.108724
-0.105644
-0.114165
-0.114085
-0.109656
-0.120737
-0.112395
-0.109666
-0.123801
-0.115362
-0.115608
-0.123243
-0.115703
-0.119596
-0.124346
-0.119218
-0.123082
-0.123256
-0.107355
-0.110637
-0.108523
-0.104987
-0.114266
-0.114243
-0.109351
-0.121116
-0.111847
-0.10832
-0.124129
-0.115224
-0.114899
-0.12343
-0.115172
-0.119209
-0.124481
-0.118839
-0.122714
-0.12299
-0.107408
-0.110789
-0.108411
-0.104664
-0.114181
-0.114406
-0.109372
-0.121144
-0.111632
-0.107647
-0.124162
-0.115334
-0.114507
-0.123372
-0.114995
-0.118906
-0.124479
-0.118713
-0.122368
-0.122769
-0.107472
-0.110821
-0.108349
-0.104621
-0.113995
-0.11449
-0.109627
-0.120885
-0.111594
-0.107554
-0.123866
-0.115503
-0.114416
-0.123147
-0.115051
-0.118735
-0.124363
-0.118808
-0.122091
-0.122568
-0.107548
-0.110761
-0.108285
-0.104784
-0.113778
-0.114433
-0.110008
-0.120476
-0.111563
-0.107875
-0.123356
-0.115569
-0.114565
-0.122762
-0.115208
-0.118705
-0.124094
-0.118965
-0.121915
-0.122378
-0.107628
-0.110648
-0.108206
-0.105053
-0.113588
-0.114261
-0.110413
-0.120066
-0.111464
-0.108386
-0.12282
-0.115494
-0.114851
-0.122347
-0.115361
-0.118789
-0.123775
-0.119143
-0.12184
-0.122214
-0.107694
-0.110506
-0.108125
-0.105305
-0.113506
-0.114079
-0.110705
-0.119834
-0.111321
-0.108929
-0.122519
-0.115347
-0.115152
-0.122067
-0.115418
-0.118923
-0.12353
-0.119262
-0.121852
-0.122098
-0.13007
-0.131142
-0.134293
-0.129016
-0.127425
-0.116279
-0.0938671
-0.108037
-0.132643
-0.157896
-0.180897
-0.200105
-0.22279
-0.196694
-0.115715
-0.0676088
-0.0707192
-0.10049
-0.134759
-0.158471
-0.167971
-0.159759
-0.13844
-0.10055
-0.0473204
0.0028961
0.0252594
-0.0361358
-0.125762
-0.181087
-0.176973
-0.10974
-0.0482443
-0.0296397
-0.0489189
-0.0686968
-0.062271
-0.0385778
-0.0245989
-0.0164398
-0.00567129
-0.00747851
-0.0124859
-0.0121906
-0.0199427
-0.0292807
-0.0260143
-0.0204103
-0.0227899
-0.0220854
-0.0115168
-0.000571846
0.00576406
0.00916388
0.0113472
0.0127295
0.0134803
0.0138063
0.0138715
0.0137799
0.0135955
0.0133568
0.0130868
0.0127983
0.012499
0.0121926
0.0118816
0.0115671
0.0112497
0.0109298
0.0106073
0.0102826
0.00995554
0.00962623
0.00929453
0.00896052
0.0086242
0.00828543
0.00794435
0.00760078
0.00725482
0.00690642
0.00655553
0.00620221
0.00584635
0.00548801
0.00512717
0.00476375
0.00439781
0.00402928
0.00365814
0.00328442
0.00290805
0.00252904
0.00214737
0.00176301
0.00137594
0.000986152
0.000593622
0.000198334
-0.130628
-0.130599
-0.134331
-0.129065
-0.126451
-0.116167
-0.0940451
-0.10707
-0.133199
-0.157617
-0.176762
-0.194221
-0.216106
-0.191733
-0.118082
-0.0746038
-0.0721737
-0.0990061
-0.138676
-0.167767
-0.17937
-0.166634
-0.13489
-0.091317
-0.0415689
0.00546182
0.028703
-0.0379265
-0.133449
-0.190877
-0.18549
-0.113878
-0.0470643
-0.0238146
-0.0400435
-0.0588944
-0.0569731
-0.040391
-0.0306435
-0.0217493
-0.00811284
-0.00728178
-0.0111999
-0.0107841
-0.0177852
-0.0262885
-0.0242711
-0.0221109
-0.0273339
-0.0263901
-0.0136986
-0.000939235
0.0061747
0.0096604
0.0117001
0.0129295
0.0135778
0.0138477
0.0138861
0.0137832
0.0135947
0.0133549
0.013085
0.012797
0.0124981
0.012192
0.0118813
0.0115669
0.0112496
0.0109297
0.0106073
0.0102826
0.00995553
0.00962622
0.00929453
0.00896052
0.0086242
0.00828542
0.00794436
0.00760078
0.00725483
0.00690643
0.00655552
0.00620221
0.00584635
0.00548801
0.00512717
0.00476375
0.0043978
0.00402928
0.00365814
0.00328442
0.00290806
0.00252904
0.00214737
0.00176301
0.00137593
0.000986161
0.000593614
0.000198336
-0.131326
-0.129857
-0.134197
-0.128821
-0.124782
-0.116542
-0.0952769
-0.106496
-0.13366
-0.156623
-0.171813
-0.187336
-0.207814
-0.185909
-0.120771
-0.0808643
-0.0728579
-0.0975483
-0.142546
-0.176258
-0.189836
-0.173522
-0.132061
-0.0834981
-0.0368632
0.0074822
0.0315822
-0.0390655
-0.139854
-0.199224
-0.192568
-0.11669
-0.0449339
-0.0174136
-0.0304636
-0.0482648
-0.0511844
-0.0420645
-0.0368494
-0.0271953
-0.010567
-0.00676882
-0.00965629
-0.00926428
-0.0154426
-0.02315
-0.0223341
-0.0235648
-0.031604
-0.0304981
-0.0158013
-0.00127692
0.00661703
0.0101846
0.0120681
0.0131357
0.0136778
0.0138901
0.0139013
0.0137869
0.0135942
0.0133533
0.0130835
0.0127957
0.0124972
0.0121915
0.011881
0.0115667
0.0112495
0.0109296
0.0106073
0.0102826
0.00995553
0.00962622
0.00929453
0.00896052
0.0086242
0.00828542
0.00794435
0.00760078
0.00725482
0.00690643
0.00655552
0.00620221
0.00584635
0.00548801
0.00512717
0.00476375
0.0043978
0.00402928
0.00365814
0.00328442
0.00290806
0.00252904
0.00214737
0.00176301
0.00137593
0.000986162
0.000593614
0.000198336
-0.131835
-0.129037
-0.133737
-0.128516
-0.122753
-0.117177
-0.097347
-0.105778
-0.133794
-0.154872
-0.166323
-0.179753
-0.198316
-0.179586
-0.12364
-0.0862375
-0.0728124
-0.0959988
-0.146142
-0.183867
-0.19951
-0.180049
-0.130055
-0.0774981
-0.0334215
0.0088615
0.0336365
-0.0395195
-0.144705
-0.205922
-0.198048
-0.11811
-0.0419385
-0.0105729
-0.020343
-0.0374536
-0.0450153
-0.0434599
-0.0429679
-0.0326114
-0.0129439
-0.00591306
-0.00788786
-0.00764576
-0.0129158
-0.019895
-0.0202293
-0.0247275
-0.0354725
-0.0342967
-0.0177716
-0.00158063
0.00707798
0.0107241
0.0124445
0.0133451
0.0137789
0.0139332
0.0139171
0.0137911
0.0135941
0.013352
0.0130821
0.0127947
0.0124965
0.012191
0.0118807
0.0115665
0.0112494
0.0109296
0.0106072
0.0102826
0.00995552
0.00962622
0.00929452
0.00896052
0.0086242
0.00828542
0.00794435
0.00760078
0.00725482
0.00690643
0.00655552
0.00620221
0.00584635
0.00548801
0.00512717
0.00476375
0.0043978
0.00402928
0.00365814
0.00328442
0.00290806
0.00252904
0.00214737
0.00176301
0.00137593
0.000986161
0.000593615
0.000198336
-0.132021
-0.128215
-0.132834
-0.128295
-0.120781
-0.117676
-0.0999085
-0.104925
-0.132636
-0.152254
-0.160663
-0.17189
-0.188205
-0.173106
-0.126553
-0.0907162
-0.0722057
-0.0942801
-0.149274
-0.190596
-0.208168
-0.185924
-0.128919
-0.073465
-0.0313135
0.00950765
0.0346413
-0.0394807
-0.147841
-0.210806
-0.2018
-0.118102
-0.0381847
-0.00342771
-0.00986171
-0.026582
-0.0385914
-0.0444466
-0.0487355
-0.0378162
-0.0151404
-0.00472123
-0.00594216
-0.00594066
-0.0102263
-0.0165539
-0.0179892
-0.0255651
-0.0388309
-0.0376859
-0.0195588
-0.00184591
0.00754358
0.0112658
0.0128219
0.013557
0.0138801
0.0139767
0.0139333
0.0137957
0.0135944
0.0133509
0.0130809
0.0127937
0.0124958
0.0121905
0.0118804
0.0115664
0.0112493
0.0109295
0.0106072
0.0102826
0.00995551
0.00962621
0.00929452
0.00896052
0.0086242
0.00828542
0.00794435
0.00760078
0.00725482
0.00690642
0.00655552
0.0062022
0.00584635
0.00548801
0.00512717
0.00476375
0.0043978
0.00402928
0.00365814
0.00328442
0.00290806
0.00252904
0.00214737
0.00176301
0.00137593
0.00098616
0.000593616
0.000198336
-0.131754
-0.127501
-0.131531
-0.128108
-0.119235
-0.117785
-0.102668
-0.104352
-0.130308
-0.148623
-0.155071
-0.164184
-0.17808
-0.16679
-0.129355
-0.0943653
-0.0712628
-0.0924052
-0.151767
-0.196431
-0.215637
-0.190941
-0.128624
-0.0713316
-0.0304845
0.00937354
0.0344323
-0.0390496
-0.149212
-0.21378
-0.203747
-0.116689
-0.0337923
0.00389479
0.000778682
-0.0159756
-0.0320667
-0.0449327
-0.0539073
-0.0426206
-0.0170448
-0.00324057
-0.00387458
-0.00415521
-0.00742804
-0.0131671
-0.0156539
-0.0260559
-0.0415983
-0.0405832
-0.0211168
-0.00206838
0.00799981
0.0117964
0.0131926
0.0137634
0.013981
0.0140203
0.0139499
0.0138008
0.013595
0.0133502
0.0130799
0.0127929
0.0124952
0.0121902
0.0118801
0.0115662
0.0112492
0.0109295
0.0106072
0.0102826
0.00995551
0.00962621
0.00929452
0.00896052
0.0086242
0.00828542
0.00794435
0.00760077
0.00725482
0.00690642
0.00655552
0.0062022
0.00584635
0.00548801
0.00512717
0.00476375
0.0043978
0.00402928
0.00365814
0.00328442
0.00290806
0.00252904
0.00214737
0.00176301
0.00137593
0.000986159
0.000593616
0.000198336
-0.130979
-0.126945
-0.129988
-0.127831
-0.118305
-0.117472
-0.105314
-0.104226
-0.126904
-0.143892
-0.149629
-0.156989
-0.168434
-0.16093
-0.131915
-0.0972916
-0.0702158
-0.0905085
-0.153521
-0.20127
-0.221763
-0.194962
-0.129072
-0.0708599
-0.0307326
0.00844496
0.0329088
-0.038022
-0.148867
-0.214828
-0.203851
-0.113941
-0.0288834
0.0112773
0.0113386
-0.00595186
-0.0256306
-0.044868
-0.0582943
-0.0468428
-0.0185469
-0.00155306
-0.00174467
-0.00229265
-0.00458889
-0.00978671
-0.0132737
-0.0261965
-0.0437266
-0.0429295
-0.0224081
-0.00224415
0.00843345
0.0123031
0.0135495
0.0139636
0.0140792
0.0140636
0.0139669
0.0138063
0.013596
0.0133497
0.0130791
0.0127922
0.0124947
0.0121898
0.0118799
0.0115661
0.0112491
0.0109295
0.0106072
0.0102826
0.0099555
0.00962621
0.00929452
0.00896052
0.00862419
0.00828542
0.00794434
0.00760077
0.00725482
0.00690642
0.00655552
0.0062022
0.00584635
0.00548801
0.00512717
0.00476375
0.0043978
0.00402928
0.00365814
0.00328442
0.00290806
0.00252904
0.00214737
0.00176301
0.00137593
0.000986159
0.000593617
0.000198336
-0.129747
-0.126542
-0.128386
-0.127313
-0.118002
-0.116862
-0.107523
-0.104556
-0.122804
-0.138173
-0.144298
-0.150543
-0.159679
-0.155728
-0.134095
-0.099574
-0.0692676
-0.0887913
-0.154611
-0.204999
-0.226407
-0.197895
-0.130067
-0.0717025
-0.0317971
0.0067755
0.0300987
-0.0362462
-0.146981
-0.214008
-0.202135
-0.109991
-0.0235801
0.0186384
0.0215266
0.00324729
-0.0194784
-0.0442696
-0.0617852
-0.0503336
-0.0195541
0.000232965
0.000388768
-0.000355703
-0.00179379
-0.0064733
-0.0109044
-0.0260058
-0.0452023
-0.0446924
-0.0234065
-0.00237032
0.00883282
0.0127742
0.0138861
0.0141547
0.0141743
0.0141063
0.013984
0.0138122
0.0135974
0.0133495
0.0130786
0.0127916
0.0124943
0.0121895
0.0118797
0.011566
0.0112491
0.0109294
0.0106072
0.0102826
0.0099555
0.0096262
0.00929452
0.00896052
0.00862419
0.00828542
0.00794434
0.00760077
0.00725482
0.00690642
0.00655552
0.0062022
0.00584635
0.00548801
0.00512717
0.00476375
0.0043978
0.00402928
0.00365814
0.00328442
0.00290806
0.00252904
0.00214737
0.00176301
0.00137593
0.000986158
0.000593617
0.000198336
-0.128183
-0.126242
-0.126866
-0.126501
-0.118201
-0.116104
-0.109075
-0.105228
-0.118516
-0.131738
-0.13902
-0.144966
-0.152114
-0.151329
-0.135826
-0.101298
-0.0685957
-0.0874354
-0.155222
-0.207617
-0.229506
-0.199659
-0.13134
-0.0734509
-0.0333457
0.00453284
0.0262424
-0.0339346
-0.143722
-0.211444
-0.198656
-0.105025
-0.0180047
0.0259249
0.0310207
0.0114917
-0.0137696
-0.0432473
-0.0643726
-0.0529923
-0.0200032
0.00199754
0.00247106
0.00164064
0.000869783
-0.00329226
-0.00860134
-0.0255192
-0.046047
-0.0458676
-0.0240987
-0.00244547
0.00918846
0.0132
0.0141967
0.0143343
0.0142653
0.0141479
0.0140011
0.0138182
0.0135989
0.0133495
0.0130781
0.0127912
0.0124939
0.0121893
0.0118796
0.0115659
0.011249
0.0109294
0.0106071
0.0102826
0.00995549
0.0096262
0.00929452
0.00896052
0.00862419
0.00828541
0.00794434
0.00760077
0.00725482
0.00690642
0.00655552
0.0062022
0.00584635
0.00548801
0.00512717
0.00476375
0.0043978
0.00402928
0.00365814
0.00328442
0.00290805
0.00252904
0.00214737
0.00176301
0.00137593
0.000986158
0.000593618
0.000198336
-0.126447
-0.125969
-0.12551
-0.125448
-0.118696
-0.11537
-0.109934
-0.106012
-0.114435
-0.12498
-0.133795
-0.140258
-0.145919
-0.147817
-0.137119
-0.102577
-0.068372
-0.0865296
-0.155402
-0.209188
-0.231103
-0.20022
-0.132634
-0.0756234
-0.0349764
0.00200479
0.0217724
-0.0312327
-0.139104
-0.207292
-0.193509
-0.0992663
-0.0122489
0.0330911
0.0395099
0.0187344
-0.00861674
-0.0419535
-0.066143
-0.0547792
-0.0198756
0.00363218
0.00445326
0.00365928
0.0033263
-0.000311355
-0.00641819
-0.024784
-0.0463118
-0.0464766
-0.024486
-0.00247012
0.00949353
0.0135732
0.0144769
0.0145002
0.014351
0.0141877
0.0140176
0.0138242
0.0136006
0.0133497
0.0130778
0.0127908
0.0124937
0.0121891
0.0118795
0.0115658
0.011249
0.0109294
0.0106071
0.0102826
0.00995549
0.0096262
0.00929452
0.00896052
0.00862419
0.00828541
0.00794434
0.00760077
0.00725482
0.00690642
0.00655552
0.0062022
0.00584635
0.00548801
0.00512716
0.00476375
0.0043978
0.00402928
0.00365814
0.00328442
0.00290805
0.00252904
0.00214737
0.00176301
0.00137593
0.000986157
0.000593618
0.000198336
-0.124707
-0.125649
-0.124367
-0.124264
-0.119274
-0.114796
-0.110201
-0.10667
-0.110819
-0.118387
-0.128699
-0.136324
-0.14112
-0.1452
-0.13802
-0.103557
-0.0687803
-0.0861546
-0.155015
-0.209696
-0.231355
-0.199721
-0.133753
-0.0777088
-0.0362902
-0.000484886
0.0171702
-0.0279119
-0.133262
-0.201641
-0.186819
-0.0929922
-0.00637807
0.0400908
0.0466928
0.0249601
-0.00408001
-0.0405229
-0.0672056
-0.0557175
-0.0192045
0.00506027
0.00629566
0.00563796
0.00552124
0.00240323
-0.00440661
-0.0238576
-0.0460714
-0.0465651
-0.0245847
-0.00244717
0.00974403
0.0138891
0.0147231
0.0146502
0.0144301
0.0142249
0.0140331
0.0138297
0.0136022
0.0133498
0.0130776
0.0127905
0.0124934
0.0121889
0.0118794
0.0115657
0.0112489
0.0109294
0.0106071
0.0102825
0.00995549
0.0096262
0.00929452
0.00896052
0.00862419
0.00828541
0.00794434
0.00760077
0.00725482
0.00690642
0.00655552
0.0062022
0.00584635
0.00548801
0.00512716
0.00476375
0.0043978
0.00402928
0.00365814
0.00328442
0.00290805
0.00252903
0.00214737
0.00176301
0.00137593
0.000986157
0.000593619
0.000198336
-0.123109
-0.125237
-0.123449
-0.123078
-0.119775
-0.114432
-0.110044
-0.107066
-0.107802
-0.112403
-0.123871
-0.133029
-0.137587
-0.143382
-0.138552
-0.104384
-0.0699711
-0.0864455
-0.154016
-0.209078
-0.230453
-0.198458
-0.13457
-0.0792728
-0.0369446
-0.00265403
0.0128585
-0.0239927
-0.126469
-0.194349
-0.178706
-0.0864616
-0.000433195
0.0468073
0.0523368
0.030162
-0.000152025
-0.0390212
-0.0676061
-0.0558604
-0.018075
0.00625195
0.00797344
0.00748707
0.00742433
0.00479074
-0.00261473
-0.0228055
-0.0454194
-0.0462012
-0.0244263
-0.00238219
0.00993879
0.0141454
0.0149332
0.0147827
0.0145012
0.0142584
0.0140469
0.0138345
0.0136034
0.0133498
0.0130772
0.0127902
0.0124932
0.0121887
0.0118793
0.0115657
0.0112489
0.0109293
0.0106071
0.0102825
0.00995549
0.0096262
0.00929452
0.00896052
0.00862419
0.00828541
0.00794433
0.00760077
0.00725481
0.00690642
0.00655552
0.0062022
0.00584635
0.00548801
0.00512716
0.00476375
0.0043978
0.00402928
0.00365814
0.00328442
0.00290805
0.00252903
0.00214737
0.00176301
0.00137593
0.000986156
0.000593619
0.000198336
-0.121753
-0.124728
-0.122755
-0.122006
-0.120121
-0.114266
-0.109666
-0.107196
-0.105415
-0.10737
-0.119501
-0.130233
-0.135108
-0.14217
-0.138682
-0.105131
-0.0719999
-0.0874458
-0.152551
-0.207392
-0.228507
-0.196644
-0.134978
-0.0800163
-0.0366803
-0.0042784
0.00914243
-0.0197602
-0.118614
-0.185421
-0.169313
-0.0798887
0.00556424
0.0530322
0.0564573
0.034354
0.00325279
-0.0373772
-0.0672818
-0.0552357
-0.0166205
0.00722886
0.00947675
0.00910295
0.00902392
0.0067969
-0.00108655
-0.021697
-0.044464
-0.045472
-0.0240564
-0.00228336
0.0100791
0.0143426
0.0151062
0.014896
0.0145628
0.0142871
0.0140583
0.0138381
0.013604
0.0133494
0.0130768
0.0127898
0.0124929
0.0121886
0.0118792
0.0115656
0.0112489
0.0109293
0.0106071
0.0102825
0.00995549
0.0096262
0.00929452
0.00896052
0.00862419
0.00828541
0.00794433
0.00760077
0.00725481
0.00690642
0.00655552
0.0062022
0.00584635
0.00548801
0.00512716
0.00476375
0.0043978
0.00402928
0.00365814
0.00328442
0.00290805
0.00252903
0.00214737
0.001763
0.00137593
0.000986156
0.000593619
0.000198336
-0.120686
-0.124156
-0.122263
-0.121128
-0.120301
-0.114244
-0.109245
-0.10713
-0.103633
-0.103512
-0.115796
-0.127848
-0.13343
-0.141316
-0.138353
-0.105783
-0.0748185
-0.0890573
-0.150775
-0.2047
-0.225595
-0.194327
-0.134862
-0.0797604
-0.0353326
-0.00521242
0.0062223
-0.0151724
-0.109897
-0.17527
-0.159329
-0.0731009
0.0115845
0.0585461
0.0593574
0.0375625
0.00621712
-0.0354128
-0.0660945
-0.0538488
-0.0150182
0.00804595
0.0107977
0.0103995
0.010314
0.00837828
0.000141606
-0.0206007
-0.043321
-0.044479
-0.0235329
-0.00216135
0.0101677
0.0144829
0.0152419
0.0149887
0.0146136
0.0143103
0.0140669
0.0138403
0.0136039
0.0133488
0.0130762
0.0127894
0.0124926
0.0121884
0.0118791
0.0115656
0.0112489
0.0109293
0.0106071
0.0102825
0.00995548
0.0096262
0.00929452
0.00896052
0.00862419
0.00828541
0.00794433
0.00760077
0.00725481
0.00690642
0.00655552
0.0062022
0.00584635
0.00548801
0.00512716
0.00476375
0.0043978
0.00402928
0.00365814
0.00328442
0.00290805
0.00252903
0.00214737
0.001763
0.00137593
0.000986156
0.00059362
0.000198336
-0.119919
-0.123578
-0.121935
-0.12048
-0.120335
-0.114293
-0.108907
-0.106961
-0.10243
-0.100924
-0.112939
-0.125861
-0.132294
-0.140561
-0.13753
-0.106248
-0.0783011
-0.0911136
-0.148784
-0.201129
-0.221573
-0.191466
-0.134189
-0.0784414
-0.0328737
-0.00542934
0.00425127
-0.0104743
-0.100738
-0.164879
-0.149858
-0.0663327
0.0174341
0.0630237
0.0613617
0.0398161
0.00869414
-0.0330664
-0.0640286
-0.0517601
-0.0134616
0.00875287
0.0119068
0.0113493
0.0112806
0.00950922
0.00104707
-0.0195801
-0.0421057
-0.0433305
-0.0229237
-0.00202954
0.0102083
0.0145706
0.0153413
0.0150601
0.0146526
0.0143274
0.0140726
0.0138412
0.0136032
0.0133479
0.0130755
0.0127889
0.0124924
0.0121883
0.011879
0.0115655
0.0112488
0.0109293
0.0106071
0.0102825
0.00995548
0.0096262
0.00929452
0.00896052
0.00862419
0.00828541
0.00794433
0.00760077
0.00725481
0.00690642
0.00655552
0.0062022
0.00584635
0.00548801
0.00512716
0.00476375
0.0043978
0.00402927
0.00365814
0.00328442
0.00290805
0.00252903
0.00214737
0.001763
0.00137593
0.000986156
0.00059362
0.000198336
-0.119446
-0.123054
-0.121719
-0.12006
-0.120251
-0.114352
-0.108717
-0.106782
-0.10178
-0.0995429
-0.111025
-0.12429
-0.131469
-0.139738
-0.136257
-0.106447
-0.0822605
-0.0934449
-0.146548
-0.196848
-0.216862
-0.188056
-0.132803
-0.0761658
-0.0294728
-0.00503823
0.0032609
-0.00598288
-0.091704
-0.154772
-0.141225
-0.0596607
0.0227671
0.0662404
0.0626363
0.0411984
0.0105666
-0.0305702
-0.0615085
-0.0493148
-0.0121061
0.0093646
0.012743
0.0119724
0.0119142
0.0101973
0.00162834
-0.0186861
-0.0409315
-0.0421407
-0.0223073
-0.00190516
0.0102049
0.0146109
0.0154057
0.0151099
0.01468
0.0143389
0.0140759
0.0138411
0.0136022
0.013347
0.0130748
0.0127885
0.0124921
0.0121881
0.0118789
0.0115655
0.0112488
0.0109293
0.0106071
0.0102825
0.00995548
0.0096262
0.00929452
0.00896052
0.00862419
0.00828541
0.00794433
0.00760077
0.00725481
0.00690642
0.00655552
0.0062022
0.00584635
0.00548801
0.00512716
0.00476375
0.0043978
0.00402927
0.00365814
0.00328442
0.00290805
0.00252903
0.00214737
0.001763
0.00137593
0.000986155
0.00059362
0.000198336
-0.119241
-0.122626
-0.121573
-0.119839
-0.120084
-0.114391
-0.10869
-0.106665
-0.101584
-0.0991602
-0.11
-0.123139
-0.13082
-0.138821
-0.134699
-0.106353
-0.0856111
-0.0957376
-0.144219
-0.192272
-0.211912
-0.184478
-0.130823
-0.0731587
-0.0255975
-0.00422047
0.00310361
-0.00217602
-0.0833903
-0.145194
-0.132937
-0.0534782
0.027591
0.0683613
0.0632778
0.0419104
0.0118414
-0.0283578
-0.0592213
-0.0470835
-0.0109964
0.00984748
0.013263
0.0123274
0.0122252
0.0104939
0.00191048
-0.0179507
-0.0399007
-0.0410284
-0.0217695
-0.00180656
0.0101626
0.0146095
0.0154372
0.0151397
0.0146971
0.0143461
0.0140777
0.0138407
0.0136012
0.0133461
0.0130741
0.0127881
0.0124919
0.012188
0.0118789
0.0115655
0.0112488
0.0109293
0.0106071
0.0102825
0.00995548
0.0096262
0.00929452
0.00896052
0.00862419
0.00828541
0.00794433
0.00760077
0.00725481
0.00690642
0.00655552
0.00620219
0.00584635
0.00548801
0.00512716
0.00476375
0.0043978
0.00402927
0.00365814
0.00328442
0.00290805
0.00252903
0.00214737
0.001763
0.00137593
0.000986155
0.00059362
0.000198336
-0.119251
-0.122318
-0.121473
-0.119773
-0.119876
-0.114416
-0.108802
-0.106621
-0.101665
-0.0994306
-0.109659
-0.122399
-0.13032
-0.137924
-0.133057
-0.106069
-0.0881326
-0.0976138
-0.142142
-0.187972
-0.207193
-0.181002
-0.12842
-0.0700206
-0.0221288
-0.00321687
0.00343091
0.000353513
-0.0767559
-0.137025
-0.125578
-0.0483539
0.0313762
0.0696308
0.0634964
0.0422176
0.0126478
-0.0266089
-0.0574179
-0.0453188
-0.0100983
0.0101389
0.0135031
0.0124616
0.0122781
0.0105002
0.00194923
-0.0174009
-0.0390922
-0.0400755
-0.0213802
-0.00174294
0.0100901
0.0145747
0.0154413
0.0151529
0.0147065
0.0143503
0.0140787
0.0138403
0.0136005
0.0133454
0.0130737
0.0127878
0.0124917
0.0121879
0.0118788
0.0115654
0.0112488
0.0109293
0.0106071
0.0102825
0.00995548
0.0096262
0.00929452
0.00896052
0.00862419
0.00828541
0.00794433
0.00760077
0.00725481
0.00690642
0.00655552
0.00620219
0.00584635
0.00548801
0.00512716
0.00476375
0.0043978
0.00402927
0.00365814
0.00328442
0.00290805
0.00252903
0.00214737
0.001763
0.00137593
0.000986155
0.00059362
0.000198336
-0.119387
-0.122141
-0.121406
-0.119806
-0.119689
-0.114415
-0.108965
-0.106612
-0.101835
-0.0999018
-0.109708
-0.12202
-0.130014
-0.13727
-0.131912
-0.105451
-0.0894869
-0.0988701
-0.140875
-0.184836
-0.20348
-0.178158
-0.126419
-0.0677505
-0.0199975
-0.00257869
0.00371308
0.00123571
-0.0728239
-0.131366
-0.12046
-0.0449156
0.0337126
0.0702834
0.0635587
0.0423126
0.0130203
-0.025419
-0.0561588
-0.0440722
-0.0094761
0.010192
0.0135064
0.0124619
0.0122026
0.0103844
0.00182814
-0.0170642
-0.0385987
-0.039388
-0.0210943
-0.00170171
0.0100102
0.014525
0.0154291
0.0151554
0.0147105
0.0143528
0.0140794
0.0138401
0.0136
0.013345
0.0130733
0.0127876
0.0124916
0.0121878
0.0118788
0.0115654
0.0112488
0.0109293
0.0106071
0.0102825
0.00995548
0.0096262
0.00929452
0.00896052
0.00862418
0.00828541
0.00794433
0.00760077
0.00725481
0.00690641
0.00655552
0.00620219
0.00584635
0.00548801
0.00512716
0.00476375
0.0043978
0.00402927
0.00365814
0.00328442
0.00290805
0.00252904
0.00214737
0.001763
0.00137593
0.000986155
0.00059362
0.000198336
-0.119601
-0.122093
-0.121381
-0.119887
-0.119593
-0.114396
-0.109103
-0.106609
-0.101879
-0.100359
-0.109939
-0.121946
-0.129933
-0.136954
-0.130986
-0.104892
-0.0898031
-0.0999726
-0.140587
-0.183591
-0.201645
-0.176722
-0.125376
-0.0667013
-0.0192838
-0.00233736
0.00382733
-0.00048383
-0.0713081
-0.128729
-0.11779
-0.0431648
0.0348601
0.0705929
0.0636143
0.0421843
0.0128788
-0.0249753
-0.0556087
-0.043345
-0.0091933
0.010122
0.0133136
0.0124312
0.0121643
0.0102386
0.00157701
-0.017046
-0.0384327
-0.0390236
-0.020881
-0.00166783
0.00997712
0.0144996
0.0154208
0.0151552
0.0147119
0.0143538
0.0140797
0.0138401
0.0135998
0.0133448
0.0130732
0.0127875
0.0124915
0.0121878
0.0118787
0.0115654
0.0112488
0.0109293
0.0106071
0.0102825
0.00995548
0.0096262
0.00929451
0.00896052
0.00862418
0.00828541
0.00794433
0.00760077
0.00725481
0.00690641
0.00655552
0.00620219
0.00584635
0.00548801
0.00512716
0.00476375
0.0043978
0.00402927
0.00365814
0.00328442
0.00290805
0.00252904
0.00214737
0.001763
0.00137593
0.000986155
0.00059362
0.000198336
-0.126718
-0.127443
-0.12889
-0.126691
-0.125122
-0.122838
-0.125929
-0.133814
-0.143826
-0.157355
-0.177999
-0.193732
-0.179704
-0.14606
-0.0894792
-0.0619547
-0.083332
-0.0855006
-0.0962705
-0.104896
-0.117318
-0.138076
-0.150375
-0.121569
-0.0508391
0.00506402
0.0396644
0.0501261
0.040866
0.0173021
0.000167739
0.0021483
-0.00114189
-0.0237691
-0.0615574
-0.0781892
-0.0582239
-0.0244076
-0.00148505
0.0068168
0.00540356
-0.00242408
-0.0117771
-0.0195576
-0.0303886
-0.0341516
-0.019261
0.00249326
0.0135167
0.013016
0.00873865
0.00572762
0.00538089
0.00692246
0.00914807
0.0111783
0.012608
0.0134141
0.0137477
0.0137784
0.0136355
0.0134013
0.0131226
0.0128232
0.0125148
0.0122021
0.011887
0.01157
0.0112512
0.0109305
0.0106077
0.0102828
0.00995564
0.00962628
0.00929455
0.00896054
0.00862419
0.00828542
0.00794432
0.00760075
0.00725479
0.0069064
0.00655552
0.0062022
0.00584636
0.00548801
0.00512716
0.00476375
0.0043978
0.00402927
0.00365814
0.00328442
0.00290805
0.00252904
0.00214737
0.001763
0.00137594
0.000986147
0.000593626
0.000198334
-0.126816
-0.127513
-0.128912
-0.126655
-0.125125
-0.122905
-0.125917
-0.133841
-0.143747
-0.157081
-0.178779
-0.195932
-0.181609
-0.148089
-0.0922492
-0.0645117
-0.084123
-0.0851498
-0.0961476
-0.104811
-0.117196
-0.138235
-0.151533
-0.12361
-0.0521389
0.00426165
0.038947
0.0492718
0.0408467
0.01724
8.92971e-05
0.00213782
-0.000513673
-0.0234272
-0.0620647
-0.079118
-0.0590005
-0.0246372
-0.00148267
0.00689846
0.00550753
-0.00232658
-0.0117311
-0.0194951
-0.030418
-0.0344625
-0.0196135
0.00241521
0.0135817
0.0130676
0.00874042
0.00569971
0.00535624
0.00690412
0.0091419
0.0111791
0.0126109
0.0134168
0.0137496
0.0137795
0.0136361
0.0134015
0.0131227
0.0128232
0.0125148
0.0122021
0.011887
0.01157
0.0112512
0.0109305
0.0106077
0.0102828
0.00995564
0.00962628
0.00929455
0.00896054
0.00862419
0.00828542
0.00794432
0.00760075
0.00725479
0.0069064
0.00655552
0.0062022
0.00584636
0.00548801
0.00512716
0.00476375
0.0043978
0.00402927
0.00365814
0.00328442
0.00290805
0.00252904
0.00214737
0.001763
0.00137594
0.000986147
0.000593626
0.000198334
-0.126929
-0.127677
-0.129051
-0.126712
-0.125075
-0.122899
-0.12575
-0.133742
-0.143607
-0.157352
-0.181814
-0.200857
-0.185977
-0.152387
-0.0973892
-0.0687402
-0.0860541
-0.0862716
-0.0974901
-0.105356
-0.117051
-0.138574
-0.153632
-0.127258
-0.0544305
0.00265597
0.037595
0.0471432
0.0394467
0.0155907
-0.000622423
0.00226178
5.06129e-05
-0.0236094
-0.0634092
-0.0810568
-0.0604148
-0.0249697
-0.00134999
0.00713803
0.00570503
-0.00225283
-0.0117511
-0.0195762
-0.0305784
-0.0350904
-0.0202121
0.00232351
0.0137153
0.0131271
0.00869438
0.00563017
0.00531035
0.00688619
0.00914383
0.0111901
0.0126225
0.0134254
0.0137549
0.0137824
0.0136375
0.0134022
0.0131229
0.0128233
0.0125149
0.0122021
0.011887
0.01157
0.0112512
0.0109305
0.0106077
0.0102828
0.00995564
0.00962628
0.00929455
0.00896054
0.00862419
0.00828542
0.00794432
0.00760075
0.00725479
0.0069064
0.00655552
0.0062022
0.00584636
0.00548801
0.00512716
0.00476375
0.0043978
0.00402927
0.00365814
0.00328442
0.00290805
0.00252904
0.00214737
0.001763
0.00137594
0.000986147
0.000593626
0.000198334
-0.12706
-0.127935
-0.129272
-0.126848
-0.12498
-0.122806
-0.125377
-0.13346
-0.143122
-0.157899
-0.186708
-0.20687
-0.191085
-0.156142
-0.103188
-0.0722162
-0.084575
-0.0884795
-0.0998343
-0.106157
-0.116655
-0.138738
-0.156066
-0.131753
-0.0573359
0.000172305
0.0356363
0.0439626
0.0364324
0.0124375
-0.0023336
0.00222094
0.000569197
-0.02429
-0.0654499
-0.0838341
-0.0624149
-0.0254197
-0.00111861
0.0075213
0.00602738
-0.00218993
-0.011864
-0.0197166
-0.0308339
-0.0361092
-0.0210227
0.00209604
0.0138382
0.0131502
0.00859277
0.00552643
0.00525477
0.00687112
0.00915334
0.0112084
0.012639
0.0134368
0.0137615
0.0137857
0.013639
0.0134028
0.0131231
0.0128234
0.0125149
0.0122021
0.011887
0.01157
0.0112512
0.0109305
0.0106077
0.0102828
0.00995564
0.00962628
0.00929455
0.00896054
0.00862419
0.00828542
0.00794432
0.00760075
0.00725479
0.0069064
0.00655552
0.0062022
0.00584636
0.00548801
0.00512716
0.00476375
0.0043978
0.00402927
0.00365814
0.00328442
0.00290805
0.00252904
0.00214737
0.001763
0.00137594
0.000986147
0.000593627