/*--------------------------------*- C++ -*----------------------------------*\
| =========                 |                                                 |
| \\      /  F ield         | OpenFOAM: The Open Source CFD Toolbox           |
|  \\    /   O peration     | Version:  2.4.0                                 |
|   \\  /    A nd           | Web:      www.OpenFOAM.org                      |
|    \\/     M anipulation  |                                                 |
\*---------------------------------------------------------------------------*/
FoamFile
{
    version     2.0;
    format      ascii;
    class       surfaceScalarField;
    location    "47";
    object      phi;
}
// * * * * * * * * * * * * * * * * * * * * * * * * * * * * * * * * * * * * * //

dimensions      [0 3 -1 0 0 0 0];

internalField   nonuniform List<scalar> 
8640
(
0.000504411
-1.69109e-05
0.00052775
-2.33395e-05
0.000466859
6.08916e-05
0.00045504
1.18183e-05
0.000530895
-7.58546e-05
0.000499947
3.09479e-05
0.000480241
1.97061e-05
0.000549542
-6.93012e-05
0.000444561
0.000104981
0.000453913
-9.35203e-06
0.000574428
-0.000120515
0.000466834
0.000107594
0.000505999
-3.91649e-05
0.000545813
-3.9814e-05
0.000460916
8.48969e-05
0.000548805
-8.7889e-05
0.000546156
2.64941e-06
0.000541286
4.86968e-06
0.000509499
3.17866e-05
-0.000156045
0.000665544
0.00140228
-3.16874e-05
0.0014131
-3.41588e-05
0.0013492
0.000124787
0.00135951
1.50717e-06
0.00143255
-0.000148895
0.00139177
7.17331e-05
0.00138604
2.54311e-05
0.00144512
-0.000128377
0.00132187
0.000228224
0.00137791
-6.53916e-05
0.00147823
-0.000220826
0.00136019
0.000225627
0.00142318
-0.000102152
0.00144524
-6.18789e-05
0.00136243
0.000167717
0.00147978
-0.000205242
0.00144955
3.28762e-05
0.00146093
-6.50655e-06
0.0015276
-3.48903e-05
-0.000147122
0.00151868
0.00219567
-3.98617e-05
0.00220393
-4.24192e-05
0.0021499
0.000178826
0.00217066
-1.92553e-05
0.00222645
-0.000204684
0.00218796
0.000110223
0.00220005
1.33368e-05
0.00223168
-0.000160002
0.00212609
0.000333812
0.00220259
-0.000141892
0.00225996
-0.000278195
0.00218349
0.000302096
0.00223772
-0.000156384
0.00224051
-6.46667e-05
0.00219125
0.000216971
0.00228068
-0.000294667
0.00227223
4.13247e-05
0.00227027
-4.54631e-06
0.00237085
-0.000135464
-9.97788e-05
0.0023235
0.00289412
-4.64859e-05
0.00288945
-3.77455e-05
0.00284344
0.000224839
0.00288607
-6.18906e-05
0.00292432
-0.000242936
0.00287675
0.000157799
0.00293323
-4.31416e-05
0.00291855
-0.000145329
0.00282182
0.000430545
0.00294142
-0.000261495
0.00292718
-0.000263957
0.00289772
0.000331561
0.00297321
-0.000231873
0.00292188
-1.33373e-05
0.002931
0.000207853
0.00298953
-0.000353203
0.00297301
5.7849e-05
0.00298801
-1.95477e-05
0.00308641
-0.000233864
-1.56912e-05
0.00300232
0.00350375
-6.27318e-05
0.00348424
-1.82433e-05
0.0034211
0.00028798
0.00348794
-0.000128726
0.00352893
-0.000283924
0.00344001
0.000246715
0.00356564
-0.000168773
0.00352809
-0.000107781
0.00338571
0.00057293
0.00358257
-0.000458357
0.00350204
-0.00018343
0.00346131
0.000372295
0.00360567
-0.000376235
0.00349126
0.00010108
0.00353061
0.000168494
0.00360046
-0.000423046
0.00355137
0.000106936
0.00357703
-4.52109e-05
0.00367636
-0.000333189
7.94318e-05
0.00358123
0.00401134
-8.65746e-05
0.00399621
-3.11381e-06
0.00391094
0.00037325
0.0039707
-0.000188487
0.00403956
-0.000352776
0.0038997
0.000386574
0.00405508
-0.000324155
0.00405361
-0.000106313
0.0038477
0.000778844
0.00409133
-0.000701993
0.00400358
-9.56729e-05
0.00391001
0.000465865
0.00410535
-0.000571574
0.00396306
0.000243365
0.00399181
0.000139746
0.00408214
-0.00051338
0.00401657
0.000172513
0.00404732
-7.59641e-05
0.00413422
-0.00042009
0.000154409
0.00405924
0.00441068
-0.000109754
0.00440524
2.32798e-06
0.00432448
0.000454012
0.00435683
-0.000220843
0.00444392
-0.000439864
0.00428808
0.000542412
0.00442333
-0.000459401
0.00446571
-0.000148699
0.00423791
0.00100665
0.00447488
-0.000938961
0.00441229
-3.30857e-05
0.00428595
0.000592205
0.00448828
-0.000773898
0.00434849
0.000383147
0.00435863
0.000129605
0.00445183
-0.000606581
0.00438107
0.00024328
0.0044156
-0.000110501
0.00447907
-0.00048356
0.000199991
0.00443349
0.00470666
-0.000128913
0.00470363
5.36204e-06
0.00464542
0.000512213
0.00465563
-0.000231048
0.00473743
-0.000521668
0.00460338
0.000676464
0.00470068
-0.000556703
0.00475852
-0.000206536
0.00455794
0.00120722
0.00475038
-0.00113139
0.00471254
4.74624e-06
0.0045891
0.000715653
0.00476174
-0.000946541
0.00464468
0.000500211
0.00464395
0.000130334
0.00472263
-0.000685264
0.00465703
0.000308881
0.00469094
-0.000144413
0.00472578
-0.000518394
0.000218825
0.00470694
0.00490136
-0.000142771
0.0048956
1.11164e-05
0.00486437
0.000543446
0.00486229
-0.000228972
0.00492124
-0.000580613
0.00483262
0.00076508
0.00489108
-0.000615163
0.00493649
-0.000251941
0.00479968
0.00134404
0.00492266
-0.00125438
0.00490126
2.61512e-05
0.00481042
0.000806487
0.0049243
-0.00106042
0.00484409
0.000580427
0.00484125
0.000133169
0.00489169
-0.000735702
0.00484381
0.000356764
0.00487282
-0.000173428
0.00487951
-0.000525086
0.000215625
0.00488271
0.0049946
-0.000149875
0.00498529
2.04283e-05
0.00498067
0.000548073
0.00497327
-0.000221581
0.00499835
-0.00060569
0.00496761
0.000795821
0.00498843
-0.00063598
0.00500471
-0.000268227
0.00495476
0.00139399
0.00499082
-0.00129044
0.00498168
3.52912e-05
0.00494322
0.000844944
0.00497916
-0.00109636
0.00494561
0.000613969
0.00494503
0.000133752
0.00495848
-0.000749152
0.0049387
0.000376542
0.00495883
-0.000193559
0.00494096
-0.000507215
0.000194202
0.00496239
0.0049867
-0.000149071
0.00497517
3.19576e-05
0.00499582
0.000527415
0.00498693
-0.000212691
0.00497317
-0.000591924
0.00500295
0.000766044
0.00498607
-0.000619106
0.00496772
-0.000249872
0.00501356
0.00134815
0.00495526
-0.00123213
0.00495805
3.24935e-05
0.00498095
0.000822046
0.00493155
-0.00104696
0.00495126
0.000594258
0.00495364
0.000131372
0.00492688
-0.000722388
0.00494172
0.000361703
0.00494863
-0.00020047
0.00491049
-0.00046908
0.000157227
0.00494747
0.00487879
-0.000140363
0.00486689
4.38594e-05
0.00491142
0.00048288
0.00490103
-0.000202299
0.00484958
-0.000540475
0.00493447
0.000681154
0.00487886
-0.000563493
0.00483184
-0.000202854
0.00496356
0.00121643
0.00482153
-0.0010901
0.00483582
1.82038e-05
0.00491623
0.000741634
0.00479085
-0.00092158
0.00486144
0.000523668
0.00486736
0.000125453
0.00480262
-0.000657645
0.00485255
0.000311771
0.00484145
-0.000189365
0.00478879
-0.000416426
0.000107485
0.00483854
0.0046719
-0.000124758
0.0046618
5.39569e-05
0.0047292
0.000415477
0.00471048
-0.000183577
0.00463097
-0.00046096
0.00475966
0.000552456
0.00466202
-0.000465851
0.00460438
-0.00014521
0.00479795
0.00102286
0.00459247
-0.000884627
0.00462482
-1.41427e-05
0.00474268
0.000623777
0.00456688
-0.00074578
0.00467767
0.000412872
0.00468434
0.000118787
0.00459032
-0.000563624
0.00466919
0.000232896
0.00463639
-0.000156558
0.00457759
-0.000357628
5.07524e-05
0.00463432
0.00436558
-0.000102837
0.0043632
5.63345e-05
0.00444851
0.000330166
0.00440907
-0.000144135
0.00432296
-0.000374853
0.00447469
0.00040073
0.00433525
-0.00032641
0.00429504
-0.000105004
0.0045145
0.000803396
0.00427605
-0.000646172
0.00433611
-7.42043e-05
0.00446101
0.000498874
0.00426616
-0.000550926
0.00440343
0.000275597
0.0044002
0.000122021
0.00429451
-0.000457932
0.00438746
0.000139943
0.00433321
-0.00010231
0.00428146
-0.000305874
2.57706e-07
0.00433195
0.00396169
-7.70272e-05
0.00397635
4.16704e-05
0.00406068
0.000245836
0.00399659
-8.00368e-05
0.00393225
-0.000310522
0.00407038
0.000262603
0.00391109
-0.00016712
0.00391546
-0.000109369
0.004115
0.00060385
0.00388696
-0.000418124
0.00397372
-0.000160966
0.00407051
0.000402077
0.00389142
-0.000371836
0.00403201
0.000135015
0.00401029
0.000143737
0.00391563
-0.000363274
0.00400077
5.48032e-05
0.00393696
-3.84938e-05
0.00389899
-0.000267908
-2.95802e-05
0.00392883
0.00346665
-5.61735e-05
0.0034932
1.51124e-05
0.0035505
0.000188538
0.00348806
-1.75922e-05
0.0034516
-0.000274067
0.00353991
0.000174292
0.00341604
-4.32503e-05
0.00345546
-0.00014878
0.00359982
0.000459486
0.00342976
-0.000248064
0.00350639
-0.000237597
0.00356092
0.000347545
0.00342886
-0.000239774
0.00354059
2.32823e-05
0.00351323
0.000171095
0.00344296
-0.000292997
0.0034998
-2.03638e-06
0.00344543
1.58755e-05
0.00341197
-0.000234448
-3.40682e-05
0.00341646
0.00287511
-4.37865e-05
0.00289143
-1.20429e-06
0.00292816
0.000151805
0.00289799
1.2578e-05
0.00285767
-0.000233741
0.00290689
0.000125065
0.00285292
1.07283e-05
0.00286951
-0.000165377
0.00297699
0.000352008
0.00287624
-0.000147311
0.00288787
-0.000249233
0.00293629
0.00029913
0.00285701
-0.000160495
0.00291654
-3.62523e-05
0.00291345
0.000174192
0.00285393
-0.000233484
0.00287455
-2.26552e-05
0.00284395
4.64818e-05
0.00280064
-0.000191141
-2.28543e-05
0.00278942
0.00217453
-3.08164e-05
0.0021783
-4.97487e-06
0.00222064
0.000109464
0.00221486
1.83612e-05
0.00214928
-0.000168167
0.00219292
8.1429e-05
0.00218065
2.30025e-05
0.00215011
-0.000134838
0.00226532
0.000236794
0.00219464
-7.66338e-05
0.00214064
-0.000195232
0.00222532
0.000214453
0.00216453
-9.97041e-05
0.00217872
-5.04417e-05
0.00221236
0.000140553
0.00213839
-0.000159516
0.00213915
-2.34166e-05
0.00213551
5.01223e-05
0.00207651
-0.000132139
-8.51087e-06
0.00206216
0.00136932
-1.26376e-05
0.00137056
-6.20903e-06
0.00142578
5.42432e-05
0.00142705
1.70908e-05
0.00134174
-8.28583e-05
0.00139009
3.30718e-05
0.0013933
1.97975e-05
0.00133261
-7.41461e-05
0.00146131
0.000108094
0.00140108
-1.64027e-05
0.00131176
-0.000105911
0.00142652
9.96855e-05
0.00136349
-3.66709e-05
0.00135171
-3.86601e-05
0.00141477
7.74956e-05
0.00132563
-7.0377e-05
0.00132138
-1.91678e-05
0.0013362
3.53014e-05
0.00126493
-6.08674e-05
6.04833e-07
0.00125581
0.000474862
0.000468653
0.000522897
0.000539987
0.000457129
0.000490201
0.000509998
0.000435852
0.000543946
0.000527543
0.000421632
0.000521317
0.000484646
0.000445986
0.000523482
0.000453105
0.000433937
0.000469238
0.000408371
0.000408976
0.000900081
0.000105583
-0.00034012
0.00104668
-0.000158074
1.14703e-05
0.0012434
-0.000266992
7.02763e-05
0.00123519
-0.000285617
0.000293829
0.00144308
-0.000877225
0.000669331
0.00142563
-0.00107546
0.00109291
0.00125435
-0.000330183
0.000501473
0.00161557
0.000366128
-0.000727349
0.00196417
0.000502485
-0.000851087
0.00229529
0.000595
-0.000926119
0.00279716
-0.00122399
0.000722117
0.00327143
-0.00173049
0.00125622
0.00391111
-0.00356645
0.00292677
0.00426674
-0.00728876
0.00693313
0.00409549
-0.00693985
0.0071111
0.00399533
-0.0029821
0.00308226
0.00446821
-0.00238614
0.00191326
0.00472162
-0.00522944
0.00497603
0.0046105
-0.005004
0.00511512
0.00461761
-0.00296291
0.00295579
0.00484909
-0.000147009
-8.44709e-05
0.00474082
0.00279462
-0.00268634
0.00447322
0.00301314
-0.00274554
0.00404476
-0.00127237
0.00170084
0.00325273
-0.00389547
0.0046875
0.00248582
-0.00140875
0.00217566
0.00219561
-0.00517751
0.00546772
0.0024328
-0.00991854
0.00968135
0.00260536
-0.00652932
0.00635677
0.00269551
-0.00119095
0.0011008
0.00293681
0.00584417
-0.00608548
0.00305111
0.0113068
-0.0114211
0.00300955
0.0120503
-0.0120087
0.00292171
0.00934468
-0.00925684
0.00286749
0.00605309
-0.00599887
0.00303608
0.00043184
-0.000600429
0.00323567
-0.00560196
0.00540236
0.00330562
-0.00622582
0.00615587
0.00323073
-0.00185106
0.00192595
0.00303262
0.00176984
-0.00157173
0.00269305
0.00354469
-0.00320512
0.00249216
0.00339174
-0.00319084
0.00250531
0.000925932
-0.000939086
0.00245357
0.000286688
-0.000234941
0.00254463
0.000371068
-0.000462128
0.00284966
-0.00260815
0.00230311
0.00300047
-0.0060566
0.00590579
0.00299942
-0.00643229
0.00643333
0.00299528
-0.00316189
0.00316603
0.00293506
0.000758834
-0.000698613
0.00278783
0.00255912
-0.00241189
0.00261444
0.00234047
-0.00216708
0.00246824
0.00136149
-0.00121528
0.00235796
0.000483677
-0.000373402
0.0022733
-2.49447e-05
0.000109611
0.00220563
-0.000218859
0.00028652
0.00215069
-0.00023813
0.000293072
0.00210654
-0.000193026
0.000237176
0.00207215
-0.000140141
0.000174533
0.00204654
-9.82534e-05
0.000123862
0.00202845
-6.87578e-05
8.68531e-05
0.00201633
-4.82441e-05
6.03552e-05
0.00200865
-3.35547e-05
4.12442e-05
0.002004
-2.27973e-05
2.74408e-05
0.00200132
-1.49577e-05
1.76364e-05
0.00199984
-9.41885e-06
1.08978e-05
0.00199906
-5.67381e-06
6.46056e-06
0.00199866
-3.27009e-06
3.67206e-06
0.00199846
-1.80264e-06
2.00256e-06
0.00199836
-9.52533e-07
1.04781e-06
0.00199832
-4.82436e-07
5.27203e-07
0.0019983
-2.34368e-07
2.54605e-07
0.00199829
-1.09703e-07
1.18466e-07
0.00199828
-4.87552e-08
5.28928e-08
0.00199828
-2.13415e-08
2.26515e-08
0.00199828
-8.56584e-09
9.53271e-09
0.00199828
-3.6455e-09
3.77454e-09
0.00199828
-1.29828e-09
1.41756e-09
0.00199828
-6.63778e-10
7.68974e-10
0.00199828
-2.79211e-10
1.39039e-10
0.00199828
1.4778e-11
7.27172e-11
0.00199828
-8.48545e-11
5.68736e-11
0.00199828
5.67696e-11
-1.72669e-10
0.00199828
1.28808e-10
2.43027e-11
0.00199828
-1.56909e-10
3.58029e-11
0.00199828
2.68961e-10
-2.03175e-10
0.00199828
-1.14449e-10
1.29116e-10
0.00199828
-7.78451e-12
-1.05968e-10
0.00199828
1.49719e-10
-4.15163e-11
0.00199828
-6.23962e-13
-3.76863e-11
0.00199828
-2.03848e-10
2.20629e-10
0.00199828
3.73612e-10
-3.32358e-10
0.00199828
-3.44789e-10
2.53648e-10
0.00199828
2.31773e-10
-1.89585e-10
0.00199828
-7.3652e-11
1.14683e-10
0.00199828
-7.80121e-11
8.08806e-11
0.00199828
1.24008e-10
-7.56575e-11
0.00199828
-9.31338e-11
8.42263e-11
0.00199828
3.42492e-11
-5.55564e-11
-2.81606e-11
2.57477e-11
0.00169357
-6.9307e-05
0.00175204
-0.00021654
0.00196411
-0.000479068
0.00201891
-0.000340415
0.00208245
-0.000940765
0.00212846
-0.00112147
0.00193749
-0.000139214
0.00214876
0.000154857
0.00248514
0.000166105
0.0028901
0.000190039
0.00340022
-0.00173411
0.003819
-0.00214927
0.00434231
-0.00408976
0.00452259
-0.00746904
0.00422956
-0.00664682
0.00412695
-0.00287949
0.00451961
-0.00277879
0.00464426
-0.00535409
0.00450745
-0.00486719
0.00448881
-0.00294426
0.0046892
-0.000347402
0.004652
0.00283182
0.00444179
0.00322334
0.00397976
-0.000810343
0.00311536
-0.00303107
0.00232461
-0.000618
0.00203923
-0.00489213
0.00222876
-0.0101081
0.00240323
-0.0067038
0.00249294
-0.00128066
0.00274338
0.00559373
0.00292673
0.0111234
0.00298432
0.0119927
0.00295708
0.00937192
0.00295391
0.00605625
0.00315783
0.000227923
0.00331813
-0.00576226
0.00332891
-0.00623659
0.00325315
-0.00177531
0.00308881
0.00193418
0.00276857
0.00386493
0.00259935
0.00356096
0.00260451
0.000920767
0.00251678
0.00037442
0.00262428
0.000263571
0.00292869
-0.00291255
0.00302412
-0.00615203
0.00295935
-0.00636752
0.00293154
-0.00313408
0.00288983
0.000800546
0.00277299
0.00267596
0.00262212
0.00249133
0.00248676
0.00149684
0.0023784
0.000592046
0.00229078
6.26692e-05
0.00221872
-0.000146798
0.00215987
-0.000179275
0.00211289
-0.000146046
0.00207661
-0.000103867
0.00204974
-7.1384e-05
0.00203075
-4.97626e-05
0.00201796
-3.5453e-05
0.00200975
-2.53445e-05
0.00200471
-1.77651e-05
0.00200176
-1.20023e-05
0.00200009
-7.75339e-06
0.00199919
-4.76783e-06
0.00199871
-2.7962e-06
0.00199847
-1.56085e-06
0.00199835
-8.34537e-07
0.0019983
-4.25317e-07
0.00199827
-2.08154e-07
0.00199826
-9.78831e-08
0.00199825
-4.3271e-08
0.00199825
-1.95397e-08
0.00199825
-7.38219e-09
0.00199825
-3.49007e-09
0.00199825
-1.27483e-09
0.00199825
-4.62785e-10
0.00199825
-5.18857e-10
0.00199825
1.04511e-10
0.00199825
-3.34794e-11
0.00199825
-1.35791e-10
0.00199825
3.25672e-10
0.00199825
-1.91673e-10
0.00199825
2.03239e-10
0.00199825
4.06329e-11
0.00199825
-1.84598e-10
0.00199825
2.82153e-10
0.00199825
-1.10602e-10
0.00199825
-1.82142e-11
0.00199825
1.26149e-10
0.00199825
-1.45569e-10
0.00199825
5.51284e-11
0.00199825
3.66158e-11
0.00199825
-3.1752e-11
0.00199825
5.63088e-11
0.00199825
1.69316e-11
0.00199825
-6.9116e-11
-1.52523e-11
0.00250145
-0.000247259
0.00250409
-0.00021918
0.00264847
-0.000623444
0.00277724
-0.000469188
0.00272989
-0.000893415
0.00279688
-0.00118846
0.00272936
-7.16914e-05
0.00281228
7.19317e-05
0.0030314
-5.30128e-05
0.00350033
-0.000278887
0.00396391
-0.00219769
0.00429708
-0.00248245
0.00468835
-0.00448103
0.0046776
-0.0074583
0.00427957
-0.00624879
0.00420003
-0.00279995
0.00449412
-0.00307288
0.00449148
-0.00535144
0.00434431
-0.00472003
0.0043075
-0.00290745
0.00445663
-0.000496534
0.00447705
0.0028114
0.00432668
0.00337371
0.00385022
-0.000333882
0.00293884
-0.00211968
0.00215221
0.000168635
0.00186493
-0.00460485
0.00199358
-0.0102367
0.00217256
-0.00688278
0.0022702
-0.00137829
0.00253039
0.00533354
0.00277899
0.0108748
0.00293165
0.01184
0.00296332
0.00934025
0.00301813
0.00600144
0.00325427
-8.21986e-06
0.00336418
-0.00587216
0.00331018
-0.0061826
0.00323872
-0.00170384
0.00311112
0.00206178
0.00281898
0.00415707
0.00269171
0.00368822
0.00268711
0.00092537
0.00257103
0.000490502
0.00269937
0.000135234
0.00298784
-0.00320103
0.00301843
-0.00618262
0.00289068
-0.00623977
0.00283921
-0.00308261
0.00281581
0.00082395
0.00273195
0.00275982
0.0026079
0.00261537
0.00248753
0.00161722
0.00238446
0.000695111
0.00229671
0.00015042
0.00222261
-7.26939e-05
0.00216186
-0.00011853
0.00211379
-9.79754e-05
0.00207711
-6.71859e-05
0.00205018
-4.4453e-05
0.00203121
-3.07905e-05
0.0020184
-2.26483e-05
0.00201012
-1.70645e-05
0.00200499
-1.26316e-05
0.00200193
-8.94344e-06
0.00200018
-6.00069e-06
0.00199921
-3.79749e-06
0.00199869
-2.27877e-06
0.00199842
-1.29237e-06
0.00199829
-7.00593e-07
0.00199822
-3.5978e-07
0.00199819
-1.77232e-07
0.00199818
-8.38599e-08
0.00199817
-3.66373e-08
0.00199817
-1.71042e-08
0.00199817
-5.90598e-09
0.00199817
-3.1541e-09
0.00199817
-1.06213e-09
0.00199817
-2.90626e-10
0.00199817
-6.47304e-10
0.00199817
2.19901e-10
0.00199817
-5.2151e-11
0.00199817
-2.67018e-10
0.00199817
4.93513e-10
0.00199817
-3.27027e-10
0.00199817
2.60605e-10
0.00199817
6.79403e-11
0.00199817
-2.91654e-10
0.00199817
3.65742e-10
0.00199817
-1.41913e-10
0.00199817
1.72659e-12
0.00199817
1.51117e-10
0.00199817
-2.18964e-10
0.00199817
9.5562e-11
0.00199817
6.9352e-11
0.00199817
-3.40744e-11
0.00199817
1.07483e-10
0.00199817
-6.56845e-12
0.00199817
-8.39069e-11
-1.62366e-11
0.00317648
-0.00042142
0.00319159
-0.000234283
0.00323268
-0.000664539
0.00341651
-0.000653012
0.00331934
-0.000796248
0.00332554
-0.00119466
0.00340039
-0.000146544
0.00345413
1.81964e-05
0.00356905
-0.000167932
0.00404869
-0.000758533
0.00442753
-0.00257652
0.0046708
-0.00272572
0.00492385
-0.00473408
0.00473794
-0.00727238
0.00427242
-0.00578327
0.00422125
-0.00274878
0.00438005
-0.00323167
0.00426301
-0.00523441
0.00412079
-0.00457781
0.0040743
-0.00286097
0.00417199
-0.000594227
0.00423275
0.00275064
0.00414018
0.00346628
0.00366458
0.000141717
0.00272931
-0.00118441
0.00197015
0.000927792
0.00167431
-0.00430901
0.00173346
-0.0102959
0.00191675
-0.00706607
0.00202817
-0.00148971
0.00229812
0.00506359
0.00260892
0.010564
0.00285143
0.0115975
0.00293968
0.009252
0.00306046
0.00588066
0.00332296
-0.000270716
0.00337068
-0.00591989
0.00324883
-0.00606075
0.00318592
-0.00164094
0.00309723
0.00215047
0.00284242
0.00441189
0.00276536
0.00376528
0.00274843
0.000942302
0.00261558
0.00062335
0.00276786
-1.70449e-05
0.00302367
-0.00345684
0.00298228
-0.00614124
0.00279414
-0.00605163
0.0027196
-0.00300808
0.00271376
0.00082979
0.00266469
0.00280889
0.00257113
0.00270894
0.00246954
0.00171881
0.00237511
0.00078954
0.00229015
0.00023538
0.0022166
8.61155e-07
0.00215621
-5.81454e-05
0.00210896
-5.07254e-05
0.00207345
-3.16745e-05
0.00204771
-1.8715e-05
0.00202971
-1.27909e-05
0.00201758
-1.05101e-05
0.00200969
-9.17518e-06
0.00200475
-7.69178e-06
0.00200176
-5.96049e-06
0.00200003
-4.26482e-06
0.00199905
-2.82033e-06
0.00199852
-1.74875e-06
0.00199824
-1.01273e-06
0.0019981
-5.58771e-07
0.00199803
-2.89369e-07
0.001998
-1.43542e-07
0.00199798
-6.83887e-08
0.00199797
-2.9282e-08
0.00199797
-1.4325e-08
0.00199797
-4.291e-09
0.00199797
-2.74381e-09
0.00199797
-8.23186e-10
0.00199797
-9.34202e-11
0.00199797
-7.5935e-10
0.00199797
3.46899e-10
0.00199797
-7.37915e-11
0.00199797
-3.86677e-10
0.00199797
6.57908e-10
0.00199797
-4.73802e-10
0.00199797
3.30579e-10
0.00199797
8.69937e-11
0.00199797
-3.99539e-10
0.00199797
4.59922e-10
0.00199797
-1.92808e-10
0.00199797
1.96995e-11
0.00199797
1.89004e-10
0.00199797
-2.99129e-10
0.00199797
1.3846e-10
0.00199797
1.04022e-10
0.00199797
-4.5282e-11
0.00199797
1.43688e-10
0.00199797
-1.78705e-11
0.00199797
-1.01723e-10
-1.79948e-11
0.00370798
-0.000548168
0.00376451
-0.000290813
0.00373033
-0.000630359
0.00391129
-0.00083397
0.00382177
-0.000706727
0.00375567
-0.00112856
0.00391254
-0.00030342
0.00397727
-4.65289e-05
0.00403104
-0.00022171
0.00447733
-0.00120481
0.00476206
-0.00286126
0.00492933
-0.00289299
0.0050516
-0.00485635
0.004717
-0.00693779
0.00422764
-0.00529391
0.00417918
-0.00270032
0.0041803
-0.00323279
0.00397556
-0.00502966
0.00384694
-0.0044492
0.00379291
-0.00280693
0.00384864
-0.000649959
0.00393676
0.00266253
0.00389471
0.00350833
0.00343162
0.000604805
0.00249541
-0.000248201
0.00178013
0.00164307
0.0014738
-0.00400267
0.00145856
-0.0102806
0.0016413
-0.00724881
0.00176922
-0.00161762
0.00204898
0.00478383
0.00241938
0.0101936
0.00274582
0.0112711
0.00288706
0.00911076
0.0030797
0.00568802
0.00336223
-0.00055325
0.00333516
-0.00589281
0.00314447
-0.00587006
0.00309511
-0.00159158
0.00304548
0.0022001
0.00283791
0.00461946
0.00281653
0.00378665
0.00278474
0.0009741
0.0026496
0.000758487
0.00282599
-0.000193432
0.00303286
-0.00366371
0.00291528
-0.00602366
0.00267102
-0.00580737
0.00257462
-0.00291167
0.00258506
0.000819352
0.00257179
0.00282215
0.0025117
0.00276903
0.00243229
0.00179822
0.00234968
0.000872147
0.00227048
0.000314582
0.00220024
7.11009e-05
0.00214264
-5.44144e-07
0.00209825
-6.33397e-06
0.00206554
1.02693e-06
0.00204227
4.5623e-06
0.00202618
3.29744e-06
0.00201537
2.98406e-07
0.00200832
-2.12277e-06
0.00200386
-3.23172e-06
0.00200113
-3.22862e-06
0.00199951
-2.64844e-06
0.00199858
-1.89412e-06
0.00199807
-1.23744e-06
0.0019978
-7.38306e-07
0.00199766
-4.1737e-07
0.00199758
-2.18174e-07
0.00199755
-1.09031e-07
0.00199753
-5.2376e-08
0.00199753
-2.16129e-08
0.00199752
-1.13794e-08
0.00199752
-2.61864e-09
0.00199752
-2.29271e-09
0.00199752
-5.76965e-10
0.00199752
1.16662e-10
0.00199752
-8.65054e-10
0.00199752
4.80561e-10
0.00199752
-1.00807e-10
0.00199752
-4.91142e-10
0.00199752
8.20082e-10
0.00199752
-6.33245e-10
0.00199752
4.14173e-10
0.00199752
9.65383e-11
0.00199752
-5.01736e-10
0.00199752
5.62371e-10
0.00199752
-2.58536e-10
0.00199752
3.38225e-11
0.00199752
2.3375e-10
0.00199752
-3.7803e-10
0.00199752
1.80297e-10
0.00199752
1.38637e-10
0.00199752
-6.70737e-11
0.00199752
1.68268e-10
0.00199752
-2.10572e-11
0.00199752
-1.17091e-10
-2.12797e-11
0.00413423
-0.00062316
0.00421344
-0.000370018
0.00414131
-0.000558229
0.00428794
-0.000980603
0.00422692
-0.000645704
0.00410726
-0.0010089
0.004293
-0.00048916
0.00437068
-0.000124209
0.00439656
-0.000247588
0.00477622
-0.00158448
0.00496777
-0.0030528
0.00507942
-0.00300464
0.00508162
-0.00485855
0.00462199
-0.00647815
0.00414154
-0.00481346
0.00405117
-0.00260995
0.00389574
-0.00307737
0.0036344
-0.00476832
0.00352389
-0.00433868
0.00346319
-0.00274623
0.00349159
-0.000678362
0.00360069
0.00255343
0.00360123
0.00350779
0.00315941
0.00104662
0.00224468
0.00066653
0.00158545
0.0023023
0.00127184
-0.00368905
0.00118069
-0.0101895
0.00135362
-0.00742175
0.00149597
-0.00175997
0.00178479
0.00449501
0.00221253
0.00976589
0.0026161
0.0108675
0.00280725
0.0089196
0.00307294
0.00542234
0.00336808
-0.000848387
0.00325615
-0.00578089
0.0030001
-0.00561401
0.0029679
-0.00155938
0.00295534
0.00221266
0.00280525
0.00476956
0.00284204
0.00374986
0.00279373
0.0010224
0.00267209
0.00088013
0.00286938
-0.00039072
0.00301283
-0.00380717
0.00281783
-0.00582866
0.0025234
-0.00551294
0.00240664
-0.00279491
0.00243169
0.000794297
0.00245443
0.00279941
0.00243006
0.0027934
0.00237574
0.00185254
0.00230792
0.000939972
0.00223744
0.000385057
0.00217336
0.000135184
0.00212108
5.1732e-05
0.00208165
3.31009e-05
0.00205339
2.92819e-05
0.0020338
2.41582e-05
0.0020205
1.65993e-05
0.00201162
9.17257e-06
0.00200581
3.69044e-06
0.00200209
4.90926e-07
0.00199976
-9.06611e-07
0.00199836
-1.24582e-06
0.00199754
-1.07281e-06
0.00199708
-7.74674e-07
0.00199682
-4.85081e-07
0.00199669
-2.8467e-07
0.00199662
-1.5037e-07
0.00199659
-7.57385e-08
0.00199657
-3.67947e-08
0.00199657
-1.40777e-08
0.00199656
-8.46804e-09
0.00199656
-9.80039e-10
0.00199656
-1.83783e-09
0.00199656
-3.43942e-10
0.00199656
3.33805e-10
0.00199656
-9.73628e-10
0.00199656
6.19053e-10
0.00199656
-1.32833e-10
0.00199656
-5.822e-10
0.00199656
9.82669e-10
0.00199656
-8.06132e-10
0.00199656
5.10393e-10
0.00199656
9.64771e-11
0.00199656
-5.94552e-10
0.00199656
6.71384e-10
0.00199656
-3.35496e-10
0.00199656
4.44787e-11
0.00199656
2.81904e-10
0.00199656
-4.51904e-10
0.00199656
2.21229e-10
0.00199656
1.70074e-10
0.00199656
-9.99055e-11
0.00199656
1.82561e-10
0.00199656
-1.63499e-11
0.00199656
-1.2949e-10
-2.58662e-11
0.0044684
-0.000658068
0.00455038
-0.000451994
0.00446824
-0.000476095
0.00456939
-0.00108175
0.0045372
-0.000613523
0.00439014
-0.000861839
0.00456801
-0.000667023
0.0046485
-0.000204697
0.00466939
-0.000268483
0.00495446
-0.00186954
0.00506103
-0.00315938
0.00513282
-0.00307642
0.00501973
-0.00474546
0.00447318
-0.0059316
0.00400173
-0.00434202
0.00382785
-0.00243607
0.00353211
-0.00278163
0.00324541
-0.00448162
0.00315396
-0.00424723
0.00308467
-0.00267694
0.0031
-0.00069369
0.00322849
0.00242494
0.00326635
0.00346993
0.00285261
0.00146037
0.0019839
0.00153524
0.00139364
0.00289256
0.00107818
-0.0033736
0.000912464
-0.0100238
0.00106243
-0.00757171
0.00121198
-0.00190952
0.00150718
0.00419981
0.00198998
0.00928309
0.00246336
0.0103941
0.00270547
0.00867749
0.0030426
0.00508521
0.00333119
-0.00113698
0.00313444
-0.00558413
0.00282256
-0.00530214
0.00280845
-0.00154526
0.00282759
0.00219352
0.0027449
0.00485225
0.00283938
0.00365538
0.0027749
0.00108689
0.00268236
0.000972665
0.00289385
-0.000602213
0.00296198
-0.0038753
0.00269137
-0.00555805
0.0023538
-0.00517537
0.00221852
-0.00265962
0.00225619
0.000756621
0.00231439
0.00274122
0.00232723
0.00278055
0.00230039
0.00187939
0.00225004
0.000990316
0.0021912
0.0004439
0.00213616
0.000190225
0.00209177
9.61196e-05
0.00205935
6.55173e-05
0.00203708
5.15522e-05
0.00202226
3.89865e-05
0.00201248
2.63753e-05
0.00200603
1.5622e-05
0.00200177
7.94577e-06
0.00199899
3.27328e-06
0.00199721
8.79367e-07
0.00199609
-1.33383e-07
0.00199542
-4.01373e-07
0.00199503
-3.86097e-07
0.00199482
-2.67237e-07
0.0019947
-1.68265e-07
0.00199464
-8.99158e-08
0.00199461
-4.56451e-08
0.00199459
-2.26211e-08
0.00199459
-7.13608e-09
0.00199458
-5.80065e-09
0.00199458
5.25403e-10
0.00199458
-1.41511e-09
0.00199458
-1.47216e-10
0.00199458
5.53043e-10
0.00199458
-1.09169e-09
0.00199458
7.60156e-10
0.00199458
-1.68336e-10
0.00199458
-6.6221e-10
0.00199458
1.14635e-09
0.00199458
-9.91425e-10
0.00199458
6.18499e-10
0.00199458
8.67607e-11
0.00199458
-6.76479e-10
0.00199458
7.85312e-10
0.00199458
-4.21241e-10
0.00199458
5.2845e-11
0.00199458
3.31466e-10
0.00199458
-5.19119e-10
0.00199458
2.6096e-10
0.00199458
1.96847e-10
0.00199458
-1.43397e-10
0.00199458
1.88295e-10
0.00199458
-4.41612e-12
0.00199458
-1.39245e-10
-3.18888e-11
0.00471244
-0.000663564
0.00478155
-0.000521104
0.00470723
-0.000401778
0.00476079
-0.0011353
0.00474823
-0.000600967
0.00460187
-0.000715479
0.00474272
-0.000807875
0.00481952
-0.000281498
0.0048513
-0.000300259
0.00502254
-0.00204079
0.00505673
-0.00319357
0.00509439
-0.00311408
0.00487322
-0.0045243
0.00427396
-0.00533234
0.00379285
-0.00386091
0.00350902
-0.00215224
0.00310679
-0.0023794
0.00281954
-0.00419437
0.00274565
-0.00417334
0.00266978
-0.00260107
0.00267251
-0.00069642
0.00281614
0.0022813
0.00288918
0.00339689
0.00251773
0.00183182
0.00172097
0.002332
0.00121621
0.00339732
0.00090308
-0.00306047
0.00066436
-0.00978506
0.000774011
-0.00768136
0.000921342
-0.00205685
0.00122119
0.00389996
0.0017562
0.00874808
0.00228905
0.00986129
0.00258813
0.0083784
0.00299217
0.00468117
0.00324981
-0.00139462
0.00297533
-0.00530966
0.00262413
-0.00495093
0.00262358
-0.00154472
0.0026648
0.0021523
0.00265825
0.0048588
0.00280691
0.00350672
0.00272927
0.00116452
0.00268038
0.00102156
0.00289577
-0.000817609
0.00287973
-0.00385926
0.00253817
-0.00521648
0.00216527
-0.00480247
0.00201344
-0.00250779
0.00206153
0.000708532
0.00215398
0.00264877
0.00220479
0.00272974
0.00220723
0.00187695
0.00217677
0.00102077
0.00213237
0.000488299
0.00208923
0.000233371
0.0020552
0.000130141
0.00203169
8.90283e-05
0.0020167
6.65414e-05
0.00200747
4.82202e-05
0.00200173
3.21205e-05
0.00199801
1.93422e-05
0.00199549
1.04572e-05
0.00199377
4.9989e-06
0.00199259
2.0551e-06
0.00199182
6.41599e-07
0.00199133
9.05714e-08
0.00199103
-8.97527e-08
0.00199086
-9.54027e-08
0.00199076
-7.41598e-08
0.00199071
-4.01049e-08
0.00199069
-2.04613e-08
0.00199068
-1.07337e-08
0.00199067
-1.21018e-09
0.00199067
-3.57462e-09
0.00199067
1.7998e-09
0.00199067
-1.05466e-09
0.00199067
-1.21164e-11
0.00199067
7.71331e-10
0.00199067
-1.22403e-09
0.00199067
9.00785e-10
0.00199067
-2.04514e-10
0.00199067
-7.33905e-10
0.00199067
1.30962e-09
0.00199067
-1.18583e-09
0.00199067
7.37467e-10
0.00199067
6.73659e-11
0.00199067
-7.46862e-10
0.00199067
9.0129e-10
0.00199067
-5.13267e-10
0.00199067
6.00957e-11
0.00199067
3.81443e-10
0.00199067
-5.79428e-10
0.00199067
2.9848e-10
0.00199067
2.18443e-10
0.00199067
-1.95787e-10
0.00199067
1.87727e-10
0.00199067
1.38338e-11
0.00199067
-1.4743e-10
-3.93479e-11
0.00486765
-0.0006485
0.00491203
-0.000565485
0.00485682
-0.000346573
0.00486288
-0.00114136
0.00485655
-0.000594636
0.00473386
-0.000592783
0.0048149
-0.000888914
0.004884
-0.000350602
0.00493507
-0.000351332
0.00499117
-0.00209688
0.00496678
-0.00316918
0.00496466
-0.00311197
0.00464456
-0.00420419
0.0040113
-0.00469908
0.00350202
-0.00335163
0.0031016
-0.00175182
0.00263717
-0.00191497
0.00236387
-0.00392107
0.00230421
-0.00411369
0.00223019
-0.00252704
0.00221139
-0.00067762
0.00236002