/*--------------------------------*- C++ -*----------------------------------*\
| =========                 |                                                 |
| \\      /  F ield         | OpenFOAM: The Open Source CFD Toolbox           |
|  \\    /   O peration     | Version:  2.4.0                                 |
|   \\  /    A nd           | Web:      www.OpenFOAM.org                      |
|    \\/     M anipulation  |                                                 |
\*---------------------------------------------------------------------------*/
FoamFile
{
    version     2.0;
    format      ascii;
    class       volScalarField;
    location    "1.18";
    object      k;
}
// * * * * * * * * * * * * * * * * * * * * * * * * * * * * * * * * * * * * * //

dimensions      [0 2 -2 0 0 0 0];

internalField   nonuniform List<scalar> 
8800
(
8.11086
10.2783
8.78333
6.8429
5.67903
5.00756
4.4913
4.17982
3.87363
3.71687
3.48909
3.41812
3.24871
3.20457
3.05172
3.02538
2.89836
2.86317
2.80674
2.64597
1.39035
4.36426
5.31038
5.29555
5.10931
4.85307
4.53272
4.33193
4.07161
3.93806
3.71579
3.63919
3.47452
3.4177
3.28721
3.24739
3.14409
3.10136
3.00771
3.00372
0.0832981
0.746085
1.54173
1.96845
2.24708
2.46411
2.55155
2.62241
2.61242
2.60807
2.58156
2.55892
2.50903
2.4863
2.45388
2.41304
2.39448
2.3601
2.30991
2.29265
0.00328153
0.0711953
0.242593
0.437361
0.578113
0.708011
0.827867
0.940476
1.02117
1.08433
1.17508
1.20781
1.26656
1.29228
1.35004
1.36142
1.40336
1.41101
1.42434
1.41529
0.000119067
0.00506716
0.0208667
0.0520525
0.0936274
0.119461
0.16243
0.204625
0.247923
0.27245
0.329363
0.35269
0.396585
0.419089
0.468938
0.488129
0.53351
0.558751
0.594044
0.605527
2.55127e-05
0.000323435
0.00140245
0.00361398
0.00876642
0.0121824
0.0172788
0.0254993
0.0344561
0.0399667
0.0529486
0.0642101
0.0724119
0.0833739
0.0984161
0.107269
0.116666
0.137424
0.148483
0.162247
2.21179e-05
4.47904e-05
0.000117807
0.000259003
0.000591084
0.000934616
0.00121097
0.00193782
0.00250894
0.00337647
0.00442106
0.00650768
0.00740028
0.00968142
0.0110618
0.0136669
0.0149848
0.0193629
0.0216881
0.026568
2.13374e-05
3.45334e-05
4.6207e-05
7.71052e-05
9.07266e-05
0.000123218
0.000139567
0.000185097
0.000202714
0.000264957
0.000302864
0.000444684
0.000499184
0.000722275
0.000800812
0.00104072
0.00110439
0.00160326
0.00186409
0.00272873
2.07408e-05
3.04799e-05
4.83673e-05
5.19846e-05
6.12305e-05
7.53071e-05
7.97681e-05
8.52032e-05
8.27567e-05
8.28644e-05
8.39738e-05
9.63302e-05
0.000102026
0.000116932
0.000119496
0.00012686
0.000127128
0.000154414
0.000169151
0.000238317
2.06666e-05
2.70076e-05
4.03349e-05
5.94299e-05
6.07007e-05
6.07539e-05
6.25822e-05
7.03173e-05
7.52712e-05
7.51081e-05
7.31582e-05
7.35371e-05
7.4135e-05
7.52716e-05
7.97536e-05
8.25931e-05
8.19357e-05
8.22288e-05
8.48763e-05
8.92232e-05
2.05656e-05
2.71604e-05
3.92909e-05
6.24455e-05
6.42334e-05
6.12662e-05
6.1308e-05
7.01538e-05
7.38477e-05
7.42533e-05
7.30585e-05
7.33849e-05
7.68178e-05
7.83328e-05
7.81212e-05
7.95035e-05
8.02364e-05
8.23702e-05
8.41114e-05
8.64528e-05
2.08255e-05
2.82344e-05
4.29346e-05
6.2077e-05
6.36341e-05
6.72258e-05
7.43296e-05
7.81936e-05
7.95893e-05
8.20632e-05
8.89869e-05
0.000100204
0.000103636
0.000103353
0.00010502
0.000115101
0.000124709
0.000150918
0.000171594
0.000189534
2.1019e-05
3.08496e-05
4.53395e-05
7.89428e-05
8.94619e-05
0.0001108
0.000128196
0.00017216
0.000206184
0.000301946
0.000346248
0.000453354
0.000510285
0.000620331
0.000706725
0.000974397
0.00116507
0.00163781
0.0019532
0.00237044
2.16028e-05
4.30393e-05
0.000124129
0.000361913
0.000494891
0.000827426
0.00116838
0.00199969
0.00262671
0.00414397
0.00480438
0.00642078
0.0073677
0.00941159
0.0106159
0.0138931
0.0158732
0.0206375
0.0232957
0.0297175
2.49548e-05
0.000307496
0.00157166
0.00483497
0.00695084
0.0123993
0.0170339
0.0267688
0.0329151
0.0463674
0.0518493
0.0643823
0.071097
0.0857354
0.0931018
0.111822
0.121451
0.144466
0.156447
0.188242
0.000123547
0.00493955
0.0241904
0.057059
0.0792646
0.125681
0.162866
0.205265
0.241673
0.294233
0.314925
0.360111
0.383314
0.431849
0.453255
0.505847
0.53004
0.588358
0.614863
0.684092
0.00337019
0.0695357
0.263197
0.416331
0.578362
0.707763
0.837014
0.923538
1.02794
1.10469
1.1498
1.21432
1.25868
1.30674
1.32951
1.38202
1.40298
1.45261
1.47143
1.51929
0.084649
0.727423
1.57077
1.93264
2.2813
2.43378
2.58013
2.59437
2.6286
2.59953
2.58664
2.53869
2.52499
2.47479
2.45992
2.41877
2.40938
2.38007
2.36815
2.34073
1.40675
4.34963
5.32046
5.2842
5.1329
4.79632
4.58937
4.2774
4.12861
3.86746
3.78058
3.57747
3.51972
3.36857
3.33211
3.20073
3.17342
3.05686
3.01889
2.91926
8.12034
10.2627
8.79411
6.81402
5.71826
4.95527
4.54054
4.13168
3.92547
3.64681
3.55813
3.34951
3.30246
3.13494
3.10958
2.94627
2.91435
2.74005
2.68178
2.47042
1.85598
1.31691
1.00648
0.827235
0.72613
0.673907
0.6369
0.618691
0.597241
0.587145
0.568028
0.556908
0.53965
0.526204
0.512459
0.500712
0.489839
0.481133
0.473391
0.467372
0.461695
0.45757
0.452897
0.449785
0.44595
0.443009
0.440342
0.437499
0.435709
0.432665
0.431241
0.427956
0.426325
0.42251
0.419732
0.413329
0.407545
0.395332
0.385954
0.36669
0.351579
0.335003
0.326033
0.322525
0.323945
0.32852
0.333909
0.345455
0.350764
0.359248
0.3626
0.367249
0.368627
0.368255
0.367371
0.365453
0.364682
0.365724
0.365528
0.369769
0.369542
0.371059
0.370657
0.368458
0.363473
0.353161
0.34486
0.328491
0.322491
0.310417
0.307073
0.303887
0.304729
0.30641
0.310189
0.311745
0.315181
0.315767
0.317927
0.31694
0.317031
0.312159
0.307378
0.304636
0.299671
0.291109
0.288789
0.283721
0.271594
0.260627
0.250715
0.234643
0.207985
0.183665
0.159891
0.146224
0.119346
0.0848768
0.0641245
0.047195
0.0352763
0.0260442
0.0198352
0.0149564
0.0124111
0.0106943
0.00944011
0.00944873
0.0101731
0.0107274
0.0117571
0.0135035
0.0153705
0.0191489
0.0275959
0.0408236
0.0568856
0.0767343
0.0974129
0.114026
0.123701
0.128492
0.127711
0.126724
0.124035
0.120743
0.119934
0.11623
0.110296
0.107318
0.10228
0.0919385
0.0649097
0.0447819
0.0393257
0.043481
0.0730114
0.25455
0.408187
0.428708
0.427131
0.404763
0.318524
0.221839
0.150733
0.11285
0.0900598
0.0761377
0.0651067
0.0583061
0.054979
0.0535802
0.0533849
0.0538523
0.0550901
0.058124
0.0614917
0.0649365
0.0681295
0.0761213
0.0913508
0.0995769
0.100795
0.0996767
0.0963774
0.0830709
0.0661113
0.0570865
0.0504351
0.0450448
0.0355771
0.0304356
0.0286953
0.0289562
0.0333743
0.0607856
0.0921474
0.106919
0.106474
0.0920451
0.0711188
0.0611477
0.0604272
0.0643819
0.0683824
0.078981
0.0633183
0.0540946
0.0502598
0.0445854
0.0702967
0.0612796
0.114117
0.0900939
0.148649
0.151138
0.188141
0.246743
0.256497
0.409715
2.5649
2.11385
1.76685
1.51703
1.3288
1.18925
1.08424
1.00799
0.945665
0.898513
0.856065
0.822465
0.79111
0.764392
0.739864
0.718117
0.699002
0.681453
0.666702
0.652476
0.641045
0.629021
0.620451
0.608703
0.60289
0.591392
0.586922
0.576976
0.573155
0.564665
0.561568
0.554704
0.551962
0.546103
0.543214
0.537125
0.533207
0.525957
0.519104
0.511953
0.501212
0.492571
0.484315
0.473402
0.469274
0.462423
0.459822
0.457632
0.456778
0.456773
0.457432
0.45727
0.458018
0.457109
0.456808
0.455646
0.45302
0.452717
0.44926
0.44865
0.44718
0.443369
0.441966
0.440104
0.434854
0.43012
0.427341
0.421146
0.412153
0.410287
0.405301
0.396206
0.395639
0.392981
0.381306
0.377753
0.372622
0.361866
0.356464
0.344641
0.334234
0.321155
0.307748
0.287082
0.275441
0.250311
0.230903
0.209396
0.177987
0.146738
0.12571
0.0987223
0.075435
0.0611652
0.0483178
0.0386124
0.0301426
0.0230447
0.0175668
0.0137929
0.0110674
0.00817555
0.00686188
0.00590254
0.00544677
0.00553634
0.00539428
0.00535242
0.00566607
0.0061135
0.00646272
0.007269
0.0080532
0.00899931
0.0115714
0.0149623
0.0209112
0.0305943
0.0433504
0.0474944
0.0538596
0.0573934
0.061211
0.0651361
0.0634904
0.0630899
0.0621458
0.0588507
0.0580269
0.0564381
0.0520241
0.0413337
0.0320173
0.0302698
0.0332908
0.0458111
0.115074
0.360017
0.443389
0.443873
0.446497
0.429454
0.331683
0.22141
0.146647
0.106469
0.0841359
0.0698118
0.0594993
0.0539514
0.0512439
0.050346
0.050234
0.0500954
0.0502772
0.0509556
0.0525556
0.0563981
0.0612755
0.0662313
0.0790108
0.0905911
0.0954611
0.094853
0.0951498
0.0893598
0.0703528
0.062443
0.0529948
0.0463728
0.0413797
0.0319305
0.0290613
0.0283534
0.030022
0.0435435
0.0813262
0.0995622
0.100542
0.0956462
0.0754866
0.0646669
0.0559095
0.0581135
0.061523
0.0674927
0.0886411
0.0761505
0.116503
0.0915038
0.129617
0.102386
0.122478
0.118285
0.13396
0.158839
0.163842
0.192744
0.172854
0.187308
2.0799
1.85246
1.64504
1.46919
1.32831
1.20967
1.11605
1.03959
0.975206
0.924037
0.876763
0.839742
0.804489
0.77422
0.748794
0.721986
0.704015
0.68063
0.665908
0.648049
0.634468
0.621185
0.609569
0.598128
0.589993
0.577722
0.572909
0.561431
0.556685
0.548293
0.542912
0.538329
0.530648
0.52892
0.523331
0.520806
0.516018
0.512731
0.509643
0.502114
0.4991
0.491732
0.486509
0.479416
0.473183
0.468856
0.462163
0.459125
0.456124
0.451933
0.450632
0.44973
0.446603
0.4467
0.444887
0.444895
0.443183
0.442449
0.440495
0.440134
0.437295
0.436442
0.433364
0.431138
0.426731
0.424305
0.41617
0.412172
0.407092
0.3952
0.388376
0.382516
0.36517
0.356111
0.344284
0.326725
0.315846
0.303377
0.275525
0.263124
0.241276
0.221046
0.200435
0.17129
0.143314
0.121003
0.0946856
0.0746935
0.0575228
0.0450352
0.0354362
0.027542
0.0217278
0.0167686
0.0132747
0.0105372
0.00813462
0.00647287
0.0051236
0.00437122
0.003631
0.0030704
0.00296446
0.00302855
0.0032643
0.00331702
0.00342944
0.00388939
0.00427466
0.00458863
0.00472431
0.00480761
0.00500035
0.00536769
0.00596557
0.00715139
0.0089993
0.0111588
0.0173429
0.0226696
0.0271835
0.0278691
0.0289003
0.0289094
0.0280692
0.0273079
0.0261333
0.0269372
0.0275576
0.0266199
0.0243656
0.0217408
0.0220097
0.0248935
0.0330427
0.0608967
0.207924
0.424675
0.45714
0.45709
0.477682
0.459058
0.348617
0.228372
0.145609
0.102942
0.080129
0.0659416
0.0564554
0.051215
0.0493976
0.0488856
0.0486283
0.0486018
0.0484077
0.0487105
0.0491991
0.0507269
0.0546743
0.058462
0.0676897
0.0805108
0.0914713
0.0918227
0.0902172
0.0911884
0.0805937
0.0641929
0.0592303
0.0490223
0.0430827
0.0344279
0.02935
0.0288421
0.029213
0.0351716
0.0634329
0.086286
0.0944851
0.0934336
0.0800611
0.0663549
0.0570831
0.0550233
0.0682806
0.0679897
0.0962031
0.0873738
0.113366
0.104409
0.110707
0.115514
0.115816
0.122325
0.127757
0.154511
0.154852
0.159106
0.141893
0.111555
1.3296
1.23839
1.14787
1.06263
0.981982
0.913531
0.851791
0.80226
0.756392
0.721783
0.683171
0.657597
0.627775
0.603778
0.585159
0.562387
0.547214
0.53195
0.512318
0.503871
0.485306
0.475744
0.463155
0.453308
0.44424
0.435496
0.428107
0.422492
0.413157
0.410247
0.402496
0.399561
0.392737
0.391032
0.386897
0.38478
0.38198
0.380011
0.378592
0.374769
0.372235
0.368445
0.36319
0.359543
0.351937
0.348774
0.342564
0.339628
0.33382
0.330717
0.327932
0.323709
0.322387
0.321208
0.320089
0.320234
0.31987
0.320347
0.321192
0.3212
0.322412
0.322868
0.321795
0.322104
0.320229
0.316731
0.31352
0.304379
0.297425
0.288583
0.276114
0.264698
0.252319
0.233173
0.221691
0.202313
0.180096
0.165986
0.142356
0.12552
0.106608
0.0858231
0.0713887
0.0564297
0.0448893
0.0357321
0.0273729
0.0216372
0.0166175
0.0128571
0.0100974
0.0077395
0.00612801
0.004758
0.00390201
0.0031422
0.00252332
0.00227634
0.00204467
0.00188162
0.00181909
0.00185719
0.00206325
0.0022274
0.00248241
0.00264405
0.00288852
0.00376749
0.0041718
0.00424208
0.00426227
0.00430754
0.00443873
0.0046044
0.00477335
0.0052003
0.00558204
0.00654795
0.007684
0.00988759
0.0131088
0.0151487
0.017349
0.0175579
0.0173625
0.0160868
0.0151267
0.0154648
0.0152398
0.0143752
0.0142658
0.0152088
0.0179563
0.0248481
0.0450721
0.0973121
0.320847
0.458564
0.460136
0.471658
0.528386
0.489923
0.381771
0.24854
0.145524
0.101648
0.0787072
0.0633661
0.0541932
0.0499465
0.0483348
0.0479757
0.0477299
0.0477483
0.0475174
0.0474363
0.047768
0.0483779
0.0510324
0.0538849
0.0603706
0.0736768
0.0807061
0.0901393
0.0886454
0.0889306
0.0848768
0.0694854
0.0599789
0.0536668
0.0444593
0.0393275
0.0311813
0.0288467
0.0287323
0.0311988
0.0499869
0.0765368
0.0877132
0.0893148
0.0850263
0.0693473
0.066011
0.0589422
0.0703456
0.0680035
0.0816102
0.0844171
0.0884812
0.0988163
0.0974229
0.111046
0.110884
0.123861
0.127375
0.144262
0.141636
0.133161
0.0946497
0.0740003
0.584721
0.567486
0.53573
0.518045
0.491712
0.463383
0.444951
0.416315
0.400814
0.38494
0.365098
0.357191
0.340272
0.3294
0.317525
0.306313
0.298715
0.289605
0.281821
0.277445
0.268293
0.264107
0.255814
0.250511
0.24226
0.23803
0.230565
0.22772
0.221891
0.219803
0.215628
0.213908
0.211009
0.208437
0.207548
0.20472
0.203081
0.201697
0.199258
0.198253
0.195634
0.194223
0.19092
0.188678
0.185201
0.17992
0.177694
0.172794
0.171011
0.166922
0.165584
0.162439
0.16113
0.157702
0.156851
0.15538
0.155533
0.155704
0.155961
0.15627
0.156713
0.157023
0.156815
0.156537
0.155714
0.153033
0.150666
0.145908
0.138112
0.131747
0.124153
0.113502
0.104942
0.0931403
0.0824416
0.0725537
0.0608917
0.0526053
0.0439697
0.0361474
0.0305143
0.0245435
0.0199821
0.0160861
0.0125138
0.00990664
0.00766983
0.00598671
0.00466041
0.00364642
0.00293988
0.00228169
0.00195905
0.0016916
0.00145057
0.00136543
0.00134012
0.00135531
0.0013925
0.00147302
0.00159302
0.00169792
0.00198937
0.00227751
0.00251608
0.00274948
0.0033649
0.00442957
0.00481694
0.00480115
0.00463659
0.00460369
0.00469947
0.00480498
0.00485774
0.00498229
0.00505342
0.00522176
0.0054284
0.00600611
0.00660561
0.00703872
0.0085286
0.00993539
0.0102034
0.0101958
0.0100566
0.00967941
0.00935625
0.00948597
0.0106272
0.0130631
0.0191097
0.039399
0.0817693
0.17297
0.395509
0.459339
0.459758
0.48705
0.584206
0.516769
0.442308
0.266285
0.149399
0.103911
0.0786801
0.0622016
0.0535077
0.0491687
0.0474057
0.0474399
0.0472749
0.0473212
0.0472529
0.0470956
0.047108
0.0471843
0.0482599
0.0505395
0.0550455
0.0695398
0.0779869
0.088471
0.0882574
0.083743
0.0873286
0.0765406
0.0606032
0.05702
0.0488849
0.0432496
0.0361467
0.0304924
0.0293844
0.0302175
0.0375373
0.0646902
0.0766957
0.0820495
0.0883025
0.0781848
0.07718
0.0664733
0.0678486
0.0666891
0.0673028
0.0739739
0.0736261
0.0847958
0.0857776
0.101318
0.102298
0.117781
0.118905
0.121249
0.111648
0.0890313
0.0682771
0.0603564
0.158821
0.156279
0.151068
0.14782
0.144786
0.137438
0.134897
0.128603
0.124639
0.121401
0.116584
0.11528
0.111801
0.10894
0.106174
0.101374
0.099903
0.0963562
0.0948429
0.0924275
0.0914361
0.0901588
0.0882754
0.0873516
0.0846358
0.0834106
0.0807976
0.0797212
0.0778296
0.0759534
0.0755203
0.0741887
0.073784
0.0726673
0.0724127
0.0719732
0.0708299
0.0705924
0.0695273
0.0691808
0.0680451
0.0674562
0.0665481
0.0651565
0.0643567
0.0625272
0.0614208
0.0592763
0.0582971
0.0568863
0.0555704
0.0545214
0.0538787
0.0521881
0.05164
0.0504956
0.050261
0.0498304
0.0495333
0.0495718
0.0492338
0.0492066
0.0489436
0.0484231
0.0481245
0.0471614
0.045773
0.0436827
0.0411841
0.0377975
0.0350683
0.0317127
0.028433
0.0259332
0.0223104
0.0195659
0.0165296
0.0136402
0.0114561
0.00926679
0.0077107
0.00629906
0.00509841
0.00417452
0.00323736
0.00268593
0.00209853
0.00168601
0.00146298
0.0012059
0.0011096
0.00104883
0.00104766
0.00105481
0.00108442
0.00115187
0.00124507
0.0014393
0.00161936
0.00193419
0.00232766
0.00271999
0.0033595
0.00377726
0.00398308
0.00413267
0.00470597
0.00589521
0.00637952
0.00628988
0.00586648
0.00554126
0.00541979
0.00540378
0.00536889
0.00528712
0.00521739
0.00505003
0.0050316
0.00508574
0.0051925
0.00530327
0.00556173
0.00614644
0.00661231
0.00700512
0.00697832
0.00698852
0.00727032
0.00816019
0.0104281
0.0169085
0.035318
0.0949476
0.148263
0.246386
0.415169
0.444027
0.445082
0.48963
0.610541
0.567266
0.525737
0.30023
0.171628
0.117411
0.0821646
0.0619876
0.0533001
0.0478695
0.047051
0.0467826
0.0468451
0.047214
0.0472177
0.047226
0.0469288
0.0472128
0.0480839
0.0497293
0.052925
0.0610168
0.0746122
0.0824566
0.0918771
0.0851535
0.0819009
0.0874109
0.0687245
0.0583066
0.0523936
0.043549
0.040773
0.0327555
0.0316804
0.0309765
0.0337981
0.0491608
0.0703733
0.0821917
0.0897507
0.0856676
0.082946
0.0720989
0.0625968
0.0617003
0.0591468
0.0626596
0.0622174
0.0706765
0.0717099
0.0839684
0.0848228
0.0919475
0.0910455
0.089966
0.0810308
0.0718483
0.0633017
0.0606019
0.0263002
0.0261955
0.0256924
0.0253796
0.025222
0.0242213
0.0239777
0.023101
0.0225188
0.0220508
0.0216475
0.0217266
0.0215203
0.0215339
0.0214311
0.0208498
0.0204881
0.0194149
0.0191295
0.0187282
0.0186818
0.018627
0.0186067
0.0186392
0.0185399
0.0185093
0.0181744
0.0179851
0.0174715
0.0169786
0.0169118
0.0166699
0.0167848
0.0167138
0.0168308
0.016851
0.01675
0.0168285
0.0166385
0.0166072
0.0164282
0.0162475
0.0161286
0.0158362
0.0156543
0.0153892
0.014997
0.0147663
0.0143393
0.0141753
0.013881
0.0136634
0.0135761
0.0132463
0.0130438
0.0126376
0.0123707
0.0122461
0.0119614
0.0119297
0.011797
0.0116836
0.0115204
0.0112599
0.011114
0.0109106
0.01073
0.0102604
0.00975367
0.0088434
0.00794366
0.00728064
0.00646975
0.0059617
0.00522445
0.00451317
0.00380575
0.00308247
0.002601
0.00206714
0.00173066
0.00146762
0.00117606
0.00103872
0.000900063
0.000805563
0.00076662
0.000770907
0.000780947
0.000806634
0.000884742
0.000962046
0.00111091
0.00126704
0.00158367
0.00206801
0.00242148
0.00312264
0.00399473
0.00482838
0.00575176
0.00681566
0.00778919
0.00808895
0.00805288
0.00834519
0.00908551
0.00949067
0.00948235
0.00912414
0.00807257
0.00715849
0.00661053
0.00641619
0.00621758
0.00593382
0.005659
0.00534381
0.00514719
0.0050751
0.00506568
0.00510094
0.0051811
0.00554055
0.0061208
0.00624483
0.00632101
0.00658727
0.00751108
0.010302
0.0182348
0.038847
0.102526
0.158161
0.191587
0.273501
0.411712
0.425005
0.42976
0.488692
0.608641
0.655587
0.637872
0.353007
0.208104
0.143552
0.0883038
0.063585
0.0532795
0.0476339
0.046899
0.0466735
0.0472476
0.046568
0.0476103
0.0478236
0.0470638
0.047229
0.0481602
0.0505277
0.053024
0.062289
0.0740166
0.0806232
0.101001
0.0934468
0.0816485
0.0869909
0.0797286
0.0641886
0.0600847
0.0479301
0.0414182
0.0337444
0.0323518
0.0325682
0.0345531
0.0469065
0.0662637
0.0798708
0.0861394
0.0848033
0.0825394
0.0781081
0.0654392
0.062496
0.0579166
0.0599004
0.0585679
0.062372
0.0634075
0.0707748
0.0710141
0.0716279
0.0714064
0.0694901
0.0627224
0.0606286
0.0589871
0.0592526
0.00306625
0.00305371
0.00295861
0.00289143
0.00284858
0.00269311
0.00265636
0.0025993
0.00260469
0.0026877
0.00280544
0.00288434
0.00288476
0.00287405
0.00281695
0.00265542
0.00253556
0.00239533
0.00236254
0.00234056
0.00234618
0.00236656
0.00240981
0.0024587
0.00246732
0.00249165
0.00246372
0.00244161
0.00237439
0.00234338
0.00235342
0.00235072
0.00238535
0.00239446
0.00241734
0.002442
0.00243531
0.00245759
0.00244787
0.00244327
0.00243944
0.00241557
0.0024019
0.00238629
0.00235692
0.00234979
0.00232101
0.00231429
0.00230295
0.00229654
0.00229834
0.00228782
0.00227775
0.00224261
0.0021782
0.00211213
0.00202844
0.00200294
0.00196409
0.00194019
0.00190086
0.00185472
0.00182053
0.00180789
0.00178455
0.00176788
0.00174895
0.00169438
0.00162775
0.001508
0.00133195
0.00125715
0.00112173
0.001022
0.000934454
0.00077305
0.000693318
0.000589206
0.000516669
0.000477152
0.000444016
0.000444573
0.000464288
0.00048426
0.000509434
0.000583419
0.000656254
0.000778425
0.0009741
0.00118943
0.00173725
0.00209647
0.00282798
0.00353398
0.0048302
0.00602541
0.00723102
0.00959897
0.0113034
0.0133193
0.015508
0.0173513
0.0182479
0.0180682
0.0180415
0.0182918
0.0181422
0.0177367
0.016724
0.0149162
0.0130247
0.0110925
0.00979711
0.00879149
0.00797622
0.00734993
0.00667911
0.00628735
0.00578057
0.0055617
0.00563751
0.00573345
0.00595691
0.00626671
0.00631552
0.00650844
0.00712624
0.00863047
0.0124817
0.0235131
0.0493798
0.12285
0.167358
0.186849
0.206629
0.284396
0.387988
0.397308
0.404968
0.460739
0.580945
0.704449
0.75519
0.435147
0.281981
0.187014
0.0969097
0.0668969
0.053706
0.0483717
0.0475467
0.0465294
0.0480997
0.0463939
0.0478388
0.0472005
0.0491855
0.0483504
0.0484808
0.0507595
0.053335
0.0610798
0.0791476
0.0839153
0.091052
0.131981
0.0935405
0.0810895
0.0839032
0.0703442
0.0660674
0.0594572
0.0476634
0.0382743
0.0360765
0.0380007
0.038124
0.0420321
0.0556044
0.0731172
0.0795852
0.0828704
0.0822486
0.0810353
0.0746283
0.0679294
0.0595877
0.059019
0.0572685
0.0582562
0.0577651
0.0622138
0.0657673
0.0660226
0.0638941
0.0587968
0.0562253
0.0564477
0.0561598
0.0546173
0.000237249
0.000243581
0.000245956
0.00024594
0.000243892
0.000250745
0.000278253
0.000310142
0.000317336
0.000317972
0.000302144
0.000295266
0.000285598
0.000278556
0.000264158
0.000254595
0.000252421
0.000250917
0.000252305
0.00025259
0.000252638
0.000252927
0.00025298
0.000253872
0.000254003
0.000259178
0.000264226
0.000268677
0.000270434
0.000264261
0.000258521
0.000248358
0.000247451
0.000246536
0.000245653
0.000247813
0.000249136
0.000253553
0.000259139
0.00025965
0.000261724
0.00026048
0.000260324
0.000260048
0.000258084
0.000259688
0.000260706
0.000264483
0.000267861
0.000268161
0.000269357
0.000268882
0.00026832
0.000266456
0.000259949
0.000254791
0.000247753
0.000241858
0.000234813
0.000228988
0.000222301
0.000218782
0.000216017
0.000215531
0.000220071
0.000223297
0.000231148
0.000232961
0.000231726
0.000233491
0.0002302
0.000230569
0.000232629
0.000233641
0.000235511
0.000242549
0.000251418
0.000262679
0.000292099
0.000320185
0.000382126
0.000441337
0.000563758
0.000739654
0.000881883
0.00128327
0.00164725
0.00227726
0.00309502
0.00387465
0.00568746
0.00678861
0.00914712
0.011208
0.0143612
0.0181744
0.0209525
0.026529
0.030151
0.0351711
0.0390577
0.0405946
0.0416546
0.0413835
0.0405095
0.0386508
0.0364671
0.0331401
0.0288725
0.0253677
0.0217604
0.0191537
0.0167598
0.0140028
0.0122414
0.0101503
0.00900252
0.00831261
0.00750735
0.00745768
0.00753211
0.00740826
0.00746239
0.00754419
0.00795938
0.0092927
0.0117266
0.0165405
0.0304265
0.0682441
0.148895
0.18663
0.189984
0.194497
0.207098
0.281433
0.372088
0.375046
0.377993
0.411569
0.518589
0.699578
0.860526
0.587914
0.407223
0.254505
0.109846
0.0731424
0.0583252
0.0513941
0.0490117
0.0482945
0.0476819
0.0465727
0.0484299
0.04751
0.0486667
0.0505898
0.0518405
0.0531078
0.0554386
0.063199
0.0849456
0.093053
0.0951807
0.117339
0.150236
0.100075
0.0978525
0.0783098
0.0675513
0.0636461
0.0518169
0.0504924
0.0433781
0.0447085
0.0436372
0.0426431
0.0461439
0.0593221
0.0720764
0.0792017
0.0822734
0.0823502
0.0809028
0.0771525
0.0662744
0.0623623
0.0587506
0.0582386
0.0573186
0.058579
0.0593466
0.0597131
0.0602314
0.0588731
0.0558042
0.0557833
0.0559408
0.053612
9.02775e-05
9.05407e-05
9.2336e-05
0.000101856
0.000113976
0.000115151
0.000112004
0.000106942
0.000108233
0.000116778
0.0001229
0.00012023
0.000112943
0.000110018
0.000114217
0.000123148
0.000126726
0.000124476
0.000118468
0.000115671
0.000114222
0.000111703
0.000108414
0.000105885
0.00010489
0.00010494
0.00010482
0.000104794
0.000104807
0.000105725
0.000106712
0.000107134
0.000106633
0.000104567
0.000103389
0.000102541
0.000102502
0.000102786
0.000104209
0.000105709
0.000106417
0.000107563
0.000107371
0.00010736
0.00010694
0.000105794
0.000105731
0.000105525
0.000105518
0.000105798
0.000106081
0.000106816
0.000107871
0.000108241
0.000108685
0.000109458
0.000109933
0.000110521
0.000112092
0.000113791
0.000116559
0.000118855
0.000120966
0.000124387
0.000126874
0.000131323
0.000136361
0.000141258
0.000151808
0.000163426
0.000174026
0.000201794
0.000223886
0.000266903
0.000302552
0.000370266
0.000478748
0.000560704
0.000765148
0.000948758
0.00129892
0.00157241
0.00211421
0.00283092
0.00336403
0.00484171
0.0059797
0.0079647
0.0101563
0.0125211
0.0172483
0.0201075
0.0265154
0.0316428
0.0391958
0.0487742
0.0553767
0.067317
0.0769157
0.0832829
0.0895214
0.0919482
0.0913732
0.0892205
0.0839946
0.0780636
0.0683574
0.0577042
0.0503538
0.0407799
0.0361373
0.0328468
0.0271068
0.0233589
0.0188391
0.0150399
0.0138253
0.0130543
0.0128036
0.0120677
0.0105124
0.0101766
0.010315
0.0110016
0.013483
0.017027
0.0222696
0.03785
0.0906981
0.18537
0.212056
0.208197
0.18728
0.178166
0.189296
0.280761
0.345138
0.344233
0.344883
0.349055
0.411407
0.648494
0.883293
0.807536
0.595873
0.344938
0.135716
0.086011
0.0667676
0.0565745
0.0519227
0.049961
0.0487656
0.0484488
0.0495159
0.0498956
0.0483099
0.0506909
0.0525671
0.0538729
0.0589238
0.0684517
0.0948061
0.118297
0.101504
0.120695
0.268286
0.159641
0.103482
0.0924456
0.0735429
0.0761975
0.0676369
0.0652244
0.0530161
0.0458267
0.0467492
0.0443732
0.0456703
0.051386
0.0598634
0.071414
0.0796689
0.0813763
0.080988
0.0802997
0.0732742
0.0711417
0.0695625
0.0662404
0.0606343
0.0604249
0.0600697
0.0597468
0.0598909
0.05966
0.0569426
0.0561318
0.0559387
0.0543174
9.08184e-05
9.61899e-05
9.97795e-05
0.000100085
9.91426e-05
0.000104638
0.000121493
0.000131513
0.000131092
0.000122235
0.000117164
0.000117642
0.000124781
0.000126208
0.000120252
0.000116373
0.000120587
0.000147252
0.000169538
0.000175775
0.000174689
0.000159374
0.000147376
0.000132916
0.000123463
0.000116008
0.000113233
0.000116013
0.000132525
0.000149798
0.000159502
0.000163382
0.000163263
0.000152044
0.000141236
0.000130474
0.000125767
0.00012522
0.000126698
0.000140235
0.000148731
0.000157332
0.00016284
0.000162676
0.000163266
0.000160379
0.000158722
0.000158617
0.000158213
0.000162093
0.000171166
0.000179369
0.000194357
0.000200638
0.000207041
0.000214299
0.000217835
0.000222564
0.000237857
0.000253235
0.000282264
0.000313218
0.000331347
0.000363182
0.000382478
0.000410261
0.000451928
0.000483085
0.00054764
0.000638106
0.000705497
0.000861955
0.000985048
0.0012354
0.00141603
0.0017559
0.00224336
0.00258157
0.00341536
0.00412031
0.00520313
0.00643178
0.00768695
0.0103998
0.0121304
0.0158948
0.0188263
0.0247209
0.029585
0.0362812
0.0471761
0.0544528
0.0695517
0.081674
0.101065
0.11971
0.136645
0.161611
0.174967
0.188153
0.196224
0.195484
0.191767
0.182639
0.167731
0.148421
0.126642
0.104056
0.0857635
0.0732083
0.061215
0.0509734
0.0414697
0.0316907
0.0262428
0.0241866
0.0225719
0.0221228
0.0198212
0.0164037
0.0157525
0.0159567
0.0168461
0.0201479
0.023707
0.0288632
0.0467828
0.114367
0.22873
0.244025
0.233881
0.193898
0.148911
0.142389
0.157476
0.264259
0.318142
0.319145
0.308597
0.273709
0.292314
0.502774
0.85924
1.02767
0.863476
0.468124
0.170142
0.103295
0.0792175
0.0645771
0.057331
0.0520173
0.0501958
0.0497095
0.0507264
0.0529757
0.0527147
0.0537547
0.0539782
0.0555129
0.0624729
0.0736046
0.101029
0.144479
0.252267
0.150505
0.209586
0.1868
0.197189
0.12672
0.0847534
0.0851134
0.0777844
0.0692545
0.0723537
0.058234
0.0545164
0.0484049
0.0471436
0.0488432
0.0568049
0.0608255
0.0694764
0.0768715
0.0801187
0.0813106
0.0767995
0.0747348
0.0748325
0.074419
0.0708863
0.067328
0.0668318
0.0661482
0.0652227
0.0633426
0.0589468
0.0572461
0.0570496
0.0565474
0.000194569
0.000198404
0.000208498
0.000249365
0.000318804
0.00036581
0.000383487
0.000384978
0.000368611
0.000329436
0.000296715
0.000256381
0.000234522
0.000223127
0.000231824
0.000374827
0.000540107
0.000686824
0.000743169
0.000761653
0.000755449
0.000643171
0.000542896
0.000446589
0.000405998
0.000402599
0.000436294
0.000591177
0.000704632
0.000801167
0.000857724
0.000871053
0.000871095
0.000813259
0.000743448
0.000685634
0.000655412
0.000654785
0.000679069
0.000777782
0.000855973
0.000908525
0.000947732
0.00094729
0.000946453
0.000933644
0.000927347
0.000929581
0.000938361
0.00100293
0.00109717
0.00117286
0.00125918
0.00132505
0.00137429
0.00139528
0.00143192
0.00146403
0.0015616
0.00167158
0.00179246
0.00197426
0.00205915
0.002218
0.00235369
0.00249227
0.00272887
0.00288418
0.00320915
0.00357979
0.00392072
0.00461354
0.00507261
0.006025
0.00675607
0.00790343
0.00964792
0.0107666
0.0132738
0.0153738
0.0185849
0.0223005
0.0254325
0.0327119
0.0374178
0.0462986
0.0537055
0.0671244
0.0785403
0.0966327
0.116131
0.137412
0.165094
0.199514
0.232774
0.268494
0.310078
0.342842
0.363392
0.377861
0.378
0.372277
0.359319
0.33051
0.300974
0.263379
0.22409
0.187352
0.149784
0.120102
0.0945933
0.0737757
0.0585043
0.0472852
0.0402777
0.0384107
0.03674
0.0310893
0.0266519
0.02591
0.0260401
0.0266937
0.0290508
0.0324321
0.0379861
0.0574684
0.14721
0.275096
0.283003
0.265067
0.194554
0.142424
0.123698
0.124368
0.147603
0.265238
0.303001
0.299319
0.269147
0.208126
0.198668
0.289617
0.737835
1.07144
1.18372
0.652422
0.224144
0.125507
0.0945843
0.078078
0.0658508
0.0558025
0.0523684
0.0514053
0.0512748
0.0521781
0.0529856
0.0549427
0.0584616
0.0637966
0.0685693
0.0854072
0.118089
0.222979
0.316341
0.174502
0.261765
0.215043
0.659676
0.315339
0.147017
0.0969223
0.0844582
0.0689312
0.0726136
0.0650931
0.0617224
0.0583102
0.0550295
0.0507938
0.057289
0.061585
0.0632625
0.0681467
0.0776437
0.0794847
0.0771167
0.0744785
0.0740979
0.0741909
0.0737359
0.0701167
0.0688936
0.069453
0.0693974
0.0693643
0.0666372
0.0622157
0.0606924
0.0577226
0.00248621
0.00254558
0.00278146
0.00314321
0.00340113
0.00367778
0.00379098
0.00382378
0.00370266
0.0033095
0.00309949
0.00293543
0.00291265
0.00291971
0.00327498
0.00440817
0.00521141
0.00585103
0.00599345
0.0060051
0.00584115
0.00525377
0.00509376
0.00485091
0.00478868
0.00489978
0.00506959
0.0057215
0.0061197
0.00643586
0.00667463
0.00667532
0.00667443
0.00661153
0.0063262
0.00622652
0.0060822
0.0060718
0.00617478
0.00635738
0.00670111
0.0068138
0.00694055
0.00700427
0.00701464
0.00707181
0.00710859
0.00716403
0.0073885
0.00755244
0.00782857
0.00814303
0.00827634
0.00850223
0.00869335
0.00879861
0.00907244
0.00924882
0.00961344
0.0099416
0.0102432
0.01081
0.0110715
0.0115721
0.0119016
0.0126094
0.0133413
0.013849
0.015167
0.0161427
0.0177226
0.0192474
0.0210107
0.0240538
0.0259872
0.0295337
0.0339048
0.0370238
0.0441063
0.0490254
0.0572691
0.0658494
0.0751705
0.0887347
0.101106
0.118916
0.13765
0.162551
0.190171
0.22406
0.259494
0.30789
0.362347
0.414186
0.463213
0.497507
0.51678
0.522112
0.520076
0.513992
0.504299
0.482551
0.464689
0.443775
0.40971
0.383054
0.3325
0.283513
0.24509
0.19425
0.157496
0.126007
0.0957043
0.0855109
0.0790921
0.064195
0.0551498
0.0484433
0.0431486
0.0422555
0.0429863
0.0449582
0.0489089
0.0566104
0.0795054
0.190326
0.321303
0.329259