/*--------------------------------*- C++ -*----------------------------------*\
| =========                 |                                                 |
| \\      /  F ield         | OpenFOAM: The Open Source CFD Toolbox           |
|  \\    /   O peration     | Version:  2.4.0                                 |
|   \\  /    A nd           | Web:      www.OpenFOAM.org                      |
|    \\/     M anipulation  |                                                 |
\*---------------------------------------------------------------------------*/
FoamFile
{
    version     2.0;
    format      ascii;
    class       volScalarField;
    location    "1.18";
    object      p;
}
// * * * * * * * * * * * * * * * * * * * * * * * * * * * * * * * * * * * * * //

dimensions      [0 2 -2 0 0 0 0];

internalField   nonuniform List<scalar> 
8800
(
74.8839
62.5217
55.1211
51.6063
49.6897
48.3111
47.1204
45.9916
44.9661
44.049
43.0647
42.1123
41.259
40.4017
39.4795
38.7104
37.9491
37.2454
36.381
35.6687
71.7732
62.1665
55.2908
51.721
49.7498
48.3353
47.1293
45.9917
44.9623
44.0486
43.0633
42.1065
41.2581
40.4021
39.4772
38.7074
37.9542
37.2432
36.3776
35.5951
69.8092
62.2398
55.8962
52.096
49.9182
48.4129
47.1761
46.0231
44.9863
44.0672
43.0742
42.1086
41.2618
40.4014
39.476
38.704
37.9674
37.2428
36.3934
35.5575
68.2734
62.2957
56.4899
52.5186
50.1043
48.4978
47.2376
46.0776
45.0387
44.1025
43.1042
42.1256
41.2753
40.4001
39.486
38.6998
37.9964
37.2746
36.5274
35.5791
67.0217
62.2666
56.9733
52.9254
50.2773
48.5597
47.2866
46.1321
45.101
44.148
43.1424
42.1556
41.2932
40.396
39.4994
38.7011
38.0187
37.3328
36.6634
35.6131
66.0334
62.1683
57.3486
53.27
50.4341
48.5989
47.3147
46.1758
45.1601
44.1862
43.1876
42.1863
41.3067
40.394
39.5124
38.6951
38.0268
37.3617
36.7855
35.6866
65.2776
62.0536
57.6216
53.5502
50.5763
48.6216
47.3269
46.2039
45.208
44.2235
43.2197
42.2178
41.3154
40.3884
39.5201
38.695
37.9987
37.3382
36.8782
36.186
64.7219
61.9568
57.8025
53.7643
50.6997
48.6467
47.3123
46.2342
45.2359
44.2521
43.2424
42.2487
41.31
40.397
39.5048
38.6939
37.9515
37.2822
36.6279
36.6907
64.3626
61.8876
57.9102
53.9124
50.7886
48.6619
47.2995
46.252
45.2606
44.2716
43.2546
42.2701
41.3131
40.3925
39.506
38.6851
37.9008
37.247
36.7073
37.2256
64.1852
61.8499
57.9629
53.9867
50.8385
48.6693
47.2877
46.2639
45.2752
44.2766
43.2669
42.2788
41.3135
40.389
39.5063
38.6715
37.899
37.2358
36.7706
37.3437
64.1814
61.8548
57.9573
53.9907
50.8325
48.674
47.2825
46.2667
45.278
44.2746
43.2639
42.2866
41.3126
40.3851
39.5089
38.6766
37.8846
37.236
36.8104
37.5668
64.3549
61.8979
57.9011
53.9155
50.793
48.6675
47.2856
46.2625
45.269
44.2573
43.2579
42.2863
41.3077
40.3838
39.5181
38.677
37.8892
37.2422
36.833
37.6165
64.7095
61.9755
57.7844
53.7708
50.7058
48.6583
47.2906
46.2493
45.2499
44.2325
43.2392
42.2818
41.3039
40.3805
39.5273
38.6923
37.8942
37.2451
36.8413
37.5915
65.2596
62.0768
57.6014
53.5547
50.5829
48.639
47.2936
46.2294
45.2205
44.1961
43.2146
42.271
41.2935
40.3795
39.5432
38.7081
37.9089
37.2685
36.8202
37.4595
66.0163
62.1897
57.3332
53.2696
50.4438
48.61
47.286
46.1981
45.1817
44.1498
43.1831
42.2533
41.2823
40.3732
39.5556
38.734
37.9385
37.2959
36.8183
37.2381
67.0008
62.2866
56.966
52.9177
50.2919
48.5649
47.258
46.1569
45.1348
44.0932
43.146
42.2329
41.2689
40.3609
39.5732
38.7575
37.9711
37.3415
36.8503
36.9358
68.2502
62.3129
56.4885
52.5088
50.1237
48.4995
47.2088
46.1032
45.0814
44.0372
43.1089
42.211
41.2576
40.3498
39.5846
38.7741
38.0119
37.3842
36.9049
36.6545
69.7874
62.25
55.9016
52.0837
49.9406
48.4127
47.1466
46.0483
45.0343
43.9963
43.0819
42.1938
41.2508
40.3448
39.5922
38.7868
38.0421
37.417
36.9641
36.5147
71.7544
62.1714
55.2989
51.7075
49.7732
48.3343
47.1013
46.0159
45.0093
43.98
43.0721
42.1871
41.2512
40.3493
39.5965
38.795
38.0585
37.4372
36.9553
36.4441
74.8687
62.5249
55.1292
51.5938
49.7138
48.3083
47.0949
46.0155
45.0091
43.9842
43.0763
42.1867
41.2538
40.3542
39.5982
38.7968
38.0641
37.4424
36.9543
36.5684
36.0144
36.0088
35.8006
35.6135
35.5354
35.5851
35.6871
35.7824
35.857
35.8872
35.9015
35.8813
35.8255
35.7709
35.6937
35.6272
35.5629
35.5043
35.4697
35.4372
35.4232
35.4129
35.41
35.4119
35.4209
35.4417
35.4662
35.505
35.5399
35.582
35.6111
35.6146
35.5807
35.4665
35.267
34.9408
34.5009
33.9588
33.3438
32.7052
32.125
31.7306
31.5887
31.7236
32.1008
32.6677
33.3407
34.0371
34.6913
35.2673
35.731
36.0973
36.3582
36.5074
36.6084
36.6048
36.5921
36.5084
36.2943
35.928
35.3556
34.5736
33.5965
32.4026
30.904
29.2828
27.5871
25.663
23.7699
22.1328
20.4598
19.003
18.0823
17.2327
16.4632
16.0904
15.9295
15.7469
15.7412
15.9479
16.1762
16.5839
17.1344
17.8904
18.8384
19.7604
21.0578
22.362
23.2891
24.7756
26.1721
26.6416
27.7283
28.925
29.3353
30.0339
30.675
31.3469
32.7237
34.4314
36.2825
38.2435
40.9653
44.1348
47.1203
50.1708
52.6131
54.565
56.067
56.4117
56.2978
55.5609
53.8438
52.2077
50.1686
47.7766
46.048
44.2408
42.2447
40.9213
40.0658
39.2084
38.5954
38.5283
39.1338
39.8227
40.5154
41.7745
43.4402
45.0729
46.7747
48.712
50.891
53.2484
55.6974
58.1109
60.2425
61.8154
62.2924
61.5546
59.5415
55.8415
50.4804
43.8993
36.642
29.425
22.1194
14.8092
7.63413
1.43519
-4.04988
-8.33652
-11.2539
-12.7691
-12.9104
-12.1814
-9.75558
-6.44363
-2.39054
2.26322
6.98225
11.8621
16.7577
21.5252
26.2072
31.0205
35.3731
39.5272
43.2226
46.189
49.073
51.1648
52.9377
54.5003
55.73
56.9557
57.5629
57.8461
57.7394
57.4127
56.9039
55.8941
54.8779
53.7285
52.4734
51.1204
49.2766
47.5207
45.2837
43.203
41.5366
38.8533
37.2938
33.3811
31.7642
27.9606
26.5369
25.4414
25.0705
27.4438
35.7048
35.7411
35.7215
35.6793
35.6275
35.6383
35.6783
35.7234
35.7932
35.8083
35.8422
35.8438
35.8011
35.7776
35.6989
35.6446
35.5837
35.5151
35.486
35.4408
35.4275
35.4137
35.4108
35.4155
35.4221
35.4449
35.4607
35.4978
35.5199
35.5526
35.5662
35.5489
35.4973
35.3623
35.164
34.8407
34.4432
33.9507
33.4041
32.8766
32.3753
32.0544
31.9139
32.0112
32.3276
32.8043
33.3977
34.0214
34.6383
35.1767
35.6284
35.9922
36.251
36.4185
36.504
36.4943
36.4394
36.2984
36.0464
35.6469
35.0563
34.2795
33.29
32.1146
30.7388
29.1867
27.5357
25.8569
24.1071
22.4856
21.0986
19.7417
18.6917
18.0123
17.2753
16.8601
16.8241
16.4984
16.5509
16.9054
16.9158
17.5171
18.1449
18.592
19.6778
20.6198
21.5791
22.7805
23.7493
24.9209
26.094
26.9331
27.8002
28.4704
29.0842
29.9924
30.6647
31.4351
32.7689
34.0627
35.6674
37.9917
40.6354
43.148
45.5968
48.2566
50.4431
52.1242
53.5066
53.9838
54.0495
53.6754
52.4606
51.3485
50.0008
48.2332
46.9453
45.7844
44.3004
43.092
42.4795
42.0803
41.5016
41.3361
41.9172
42.5845
43.2253
44.1283
45.4722
46.9276
48.4303
50.2875
52.398
54.75
57.2602
59.7771
61.9934
63.5698
63.9864
63.1375
60.9283
56.863
51.1526
43.9075
36.2061
28.4741
20.6482
12.7481
5.18634
-1.50008
-7.23222
-11.9489
-15.2094
-17.1212
-17.7532
-16.3283
-13.6629
-9.87339
-5.32653
-0.188706
5.19741
10.6196
15.8044
20.8786
25.6562
30.4198
34.8686
38.8541
42.8991
46.2453
48.9683
51.2836
52.8692
54.5446
55.8317
56.8601
57.5812
57.6782
57.7677
57.3318
56.764
55.8778
54.7865
53.7412
52.167
50.6429
48.8527
46.6483
45.4169
42.3926
41.2671
38.1464
36.6249
33.1179
30.6238
27.7875
25.5015
24.6855
23.8876
26.2089
35.7962
35.8417
35.7578
35.7508
35.7232
35.7339
35.7017
35.6519
35.6989
35.6807
35.7473
35.7847
35.758
35.79
35.7042
35.67
35.6092
35.5231
35.5052
35.4354
35.4291
35.4048
35.4029
35.4102
35.4093
35.4421
35.4385
35.4823
35.4827
35.5034
35.5038
35.4543
35.3988
35.2371
35.0546
34.7423
34.3885
33.9667
33.4878
33.0716
32.6462
32.3895
32.2705
32.3212
32.5951
32.9756
33.4824
34.0392
34.5636
35.0848
35.4862
35.8342
36.1049
36.2433
36.3402
36.3215
36.2027
36.04
35.7449
35.2926
34.752
33.9644
32.9805
31.9305
30.6115
29.1572
27.6758
26.1417
24.58
23.0722
21.8614
20.6429
19.4954
18.9988
18.4458
17.7125
17.8211
17.7208
17.4916
18.0651
18.1207
18.486
19.35
19.6623
20.5993
21.5414
22.2644
23.4518
24.2397
25.2028
26.3988
26.9655
27.4983
28.4522
29.1829
29.7341
30.5507
31.164
32.0397
33.7704
35.6274
37.3723
39.4486
41.7884
44.0593
46.3604
48.391
50.0047
51.3221
51.9267
52.1502
52.0504
51.2721
50.5789
49.7994
48.5726
47.6126
46.9695
46.0878
45.0507
44.7104
44.6991
44.2784
44.157
44.4907
45.1087
45.7499
46.3125
47.3036
48.5678
49.95
51.6972
53.7239
55.9977
58.549
61.0861
63.3578
64.8975
65.2047
64.2626
61.8607
57.6245
51.553
43.9571
35.7666
27.5992
19.3873
10.9686
3.01065
-4.02942
-10.0325
-14.9625
-18.4472
-20.5042
-20.9997
-19.5418
-16.8985
-12.9199
-7.85428
-2.26352
3.62909
9.69896
15.3378
20.5813
25.6623
30.0939
34.7483
39.0445
42.7248
46.2516
48.9228
51.4465
53.2038
54.664
56.1678
56.9884
57.7443
57.8731
57.7101
57.5253
56.8719
56.191
54.8982
53.63
52.1557
50.1256
49.0719
45.9583
44.9705
42.1296
40.83
38.4152
35.9851
33.0357
30.03
27.4749
24.7963
24.387
24.0047
25.3352
35.1956
35.3059
35.7715
36.1384
36.128
35.9988
35.7827
35.5753
35.5769
35.5226
35.6263
35.7109
35.7098
35.8094
35.7191
35.7079
35.6489
35.5392
35.534
35.4331
35.428
35.3982
35.384
35.3989
35.3881
35.4228
35.4101
35.4499
35.4309
35.4458
35.4172
35.3605
35.2862
35.1097
34.9604
34.648
34.369
33.9995
33.605
33.2902
32.9267
32.7483
32.6294
32.6772
32.8863
33.1827
33.6098
34.0665
34.5187
34.975
35.3306
35.6528
35.8891
36.012
36.1105
36.0379
35.9325
35.7393
35.3906
34.9633
34.4195
33.6628
32.761
31.7931
30.5632
29.2682
27.9922
26.5289
25.1935
23.9664
22.6391
21.6749
20.8492
19.9943
19.642
19.1345
18.8991
19.1142
18.8334
19.1981
19.6116
19.6636
20.5925
21.0608
21.5231
22.6405
23.2783
23.9788
24.8991
25.7032
26.3496
27.0863
27.7332
28.281
29.1001
29.4743
29.8348
30.8392
31.9814
33.1741
34.5372
36.2449
38.3268
40.4542
42.5379
44.6741
46.5436
48.0297
49.2629
50.0882
50.5406
50.7391
50.3217
50.0187
49.7108
48.8893
48.2028
47.9275
47.5152
46.7233
46.5691
46.7257
46.6248
46.5949
46.7024
47.2875
47.8727
48.2348
49.0057
49.9942
51.1494
52.7267
54.592
56.8171
59.4005
61.9828
64.2153
65.6356
65.7628
64.6996
62.1434
57.8858
51.7486
43.9192
35.3976
27.0563
18.5658
9.84041
1.55208
-5.75657
-12.1141
-17.205
-20.9349
-23.1053
-23.5025
-22.1069
-19.3345
-15.223
-9.83368
-3.78979
2.49825
9.03493
15.2397
20.8069
26.0162
30.7021
34.9339
39.2417
42.9488
46.5791
49.5856
51.6466
53.748
55.0482
56.6243
57.4692
58.0687
58.4767
58.1345
58.1188
57.2563
56.2998
55.338
53.4496
52.575
49.9459
48.8519
46.0576
44.6649
42.5562
40.597
38.2676
35.3603
32.8885
29.6747
27.3634
24.9475
24.4833
24.4537
25.3255
34.9667
35.277
36.0604
36.5896
36.5235
36.2191
35.8278
35.4687
35.4172
35.3399
35.4845
35.6084
35.654
35.808
35.7229
35.7482
35.6756
35.5637
35.5564
35.4163
35.4286
35.3683
35.3489
35.3739
35.3391
35.3872
35.3568
35.3988
35.3662
35.3671
35.335
35.2424
35.1878
34.9846
34.8686
34.5912
34.3539
34.0616
33.7277
33.5043
33.2082
33.0803
32.9851
33.0243
33.1828
33.4082
33.7541
34.1113
34.5054
34.8493
35.1779
35.4544
35.6177
35.7755
35.7923
35.7399
35.6491
35.3531
35.1112
34.6546
34.0431
33.4902
32.6104
31.6693
30.7204
29.4923
28.3563
27.2038
25.8886
24.8564
23.7843
22.7869
22.1897
21.3335
20.9
20.7484
20.2489
20.4129
20.4848
20.482
21.012
21.2292
21.7468
22.3792
22.8301
23.508
24.1657
24.8737
25.318
26.0925
26.8059
27.0561
27.8327
28.3405
28.5388
28.9621
29.7274
30.5401
30.967
32.0371
33.675
35.1974
37.0126
38.9308
40.7981
42.8352
44.6765
46.3188
47.8075
48.5334
49.1481
49.5954
49.5232
49.5442
49.6026
49.1803
48.7073
48.7352
48.6632
48.1212
48.0077
48.2783
48.4692
48.4734
48.498
49.0151
49.5293
49.871
50.424
51.0758
51.9448
53.2491
54.9437
57.1801
59.8341
62.3973
64.4528
65.594
65.4738
64.209
61.6398
57.5499
51.568
43.7458
35.3725
26.9272
18.189
9.34193
1.05743
-6.63105
-13.2257
-18.4267
-22.3825
-24.6284
-25.0847
-23.7686
-20.9519
-16.7184
-11.0241
-4.74224
1.97346
8.86059
15.5014
21.5296
26.8396
31.5459
35.6228
40.0177
43.8319
46.8519
50.2479
52.5767
54.6479
56.1107
57.3145
58.4387
58.8057
59.2408
58.8311
58.3873
57.9781
56.4867
56.1314
53.9789
52.9458
50.4747
49.0344
46.6415
44.7347
42.8477
40.3407
38.3437
35.3724
33.1472
30.3592
28.0318
26.0149
25.3535
25.1231
25.7015
35.0302
35.437
36.3336
36.8671
36.7076
36.2734
35.8211
35.3921
35.3046
35.2638
35.401
35.5411
35.6414
35.7843
35.7412
35.7709
35.691
35.6056
35.5662
35.4214
35.4273
35.3541
35.3216
35.345
35.3086
35.3287
35.3124
35.3355
35.2927
35.292
35.2214
35.1549
35.1022
34.8712
34.8208
34.5628
34.3456
34.1643
33.8449
33.7207
33.4664
33.3782
33.3348
33.3071
33.5002
33.5975
33.9136
34.2025
34.4475
34.8047
35.0138
35.2647
35.4002
35.481
35.5393
35.4386
35.3256
35.0759
34.7912
34.412
33.7938
33.2984
32.6149
31.6609
30.8968
29.9159
28.7708
27.9262
26.7475
25.7353
25.0744
24.0255
23.3825
22.9314
22.2979
22.1164
21.8501
21.7804
21.9331
22.0049
22.3486
22.5555
23.1123
23.5863
23.859
24.6391
24.9723
25.4646
26.1278
26.4358
26.9165
27.3905
27.8224
27.8525
28.32
28.9994
28.9441
29.4191
30.266
31.246
32.4978
33.6764
35.3822
37.2611
38.9835
40.9967
42.7577
44.3784
45.9781
46.9012
47.7447
48.5776
48.9129
49.1683
49.5143
49.5101
49.2512
49.4182
49.6021
49.385
49.3089
49.6267
50.0297
50.0835
50.0698
50.5015
50.9182
51.196
51.5147
51.8029
52.4599
53.5283
54.9962
57.2409
59.7977
62.1712
63.9842
64.7441
64.2781
62.8067
60.298
56.4824
50.8677
43.6602
35.4859
27.0095
18.3002
9.52933
1.11878
-6.77142
-13.3943
-18.8606
-22.7805
-25.1524
-25.657
-24.3805
-21.6433
-17.311
-11.5027
-4.99896
2.01247
9.19225
16.3223
22.6563
28.0281
32.9381
37.1261
40.7242
44.7616
47.9525
50.9993
53.3588
55.1183
57.2086
58.1583
59.5549
59.8512
59.8994
60.0207
58.9503
59.1633
57.3626
56.9958
55.0585
53.4941
51.3682
49.5216
47.3536
45.1657
43.3957
40.8609
39.0581
36.0544
33.6439
31.3286
29.0489
27.1094
26.4354
25.9926
26.2323
35.739
35.8563
36.2775
36.4996
36.2351
35.8383
35.582
35.2493
35.2388
35.3012
35.4218
35.5617
35.6697
35.776
35.7649
35.7765
35.6721
35.6161
35.5656
35.3948
35.4242
35.3317
35.2693
35.3337
35.2495
35.2861
35.2732
35.2572
35.2534
35.2073
35.1594
35.0904
35.0215
34.8126
34.7708
34.5645
34.3131
34.2546
33.9662
33.8772
33.7114
33.6041
33.6196
33.5677
33.7421
33.7812
34.0393
34.2865
34.4096
34.7579
34.8878
35.085
35.2218
35.2247
35.3138
35.1954
35.0369
34.8461
34.5409
34.2021
33.667
33.1686
32.6514
31.7892
31.0732
30.3332
29.3146
28.5574
27.6203
26.7181
26.1607
25.238
24.6248
24.3219
23.674
23.4722
23.3032
23.1529
23.3485
23.32
23.6455
23.9352
24.1875
24.781
25.0361
25.4009
25.8634
26.2984
26.5047
26.7878
27.493
27.369
27.5002
28.1058
28.0958
28.0866
28.2272
28.8988
29.3714
29.7601
30.9661
32.1608
33.6345
35.3357
36.9126
38.8463
40.677
42.3864
44.1537
45.416
46.4837
47.6148
48.3124
48.7786
49.369
49.798
49.8769
50.1073
50.5384
50.6282
50.6127
50.9003
51.3738
51.6006
51.6217
51.874
52.0581
52.2043
52.3641
52.383
52.8979
53.7802
54.7787
56.738
59.1663
61.2002
62.6696
63.1293
62.3747
60.7186
58.2737
54.9121
50.1574
43.5705
35.8349
27.7395
19.1756
10.5699
2.09055
-5.85355
-12.3592
-18.0554
-22.1025
-24.5328
-25.1135
-24.0891
-21.3382
-16.8552
-11.1732
-4.49443
2.67645
10.0552
17.5043
24.49
30.038
34.1452
38.7774
42.7041
46.0791
49.0845
51.4464
54.3555
55.917
58.0965
59.3042
60.3826
61.3358
60.7793
61.551
60.1048
60.1043
58.699
57.9094
56.191
54.3422
52.7221
50.5549
48.4003
46.0821
44.3633
41.8237
39.8444
37.0923
34.431
32.2272
29.9045
28.2664
27.9015
27.0139
26.796
38.0898
37.7824
36.4304
35.5564
35.0208
34.8416
34.9122
34.9694
35.1572
35.3448
35.4962
35.6337
35.7114
35.7736
35.776
35.7514
35.6409
35.6082
35.5373
35.373
35.4153
35.2986
35.2404
35.312
35.1907
35.2395
35.2158
35.1915
35.2128
35.1191
35.0969
35.0284
34.9581
34.7833
34.7317
34.5955
34.3424
34.332
34.0944
34.0174
33.9272
33.7791
33.8523
33.7915
33.9059
33.9634
34.1282
34.3602
34.4109
34.6952
34.8253
34.9204
35.0758
35.0377
35.0874
35.0331
34.7965
34.6778
34.4158
34.0182
33.6491
33.1329
32.673
32.0242
31.278
30.7298
29.9233
29.1361
28.4651
27.6627
27.1006
26.4402
25.7802
25.5313
25.044
24.7002
24.6714
24.4944
24.5573
24.6953
24.8753
25.081
25.4282
25.8432
25.9365
26.4271
26.7366
26.7746
27.2556
27.3705
27.4471
27.6303
27.7961
27.7668
27.4344
27.7336
27.8062
27.6902
27.973
28.4175
29.4023
30.3306
31.4708
33.1001
34.6768
36.5621
38.5312
40.3884
42.314
43.8793
45.2139
46.6611
47.792
48.571
49.3821
50.1504
50.5079
50.8229
51.4185
51.7841
51.891
52.1391
52.6385
52.953
52.9591
53.0938
53.1675
53.1874
53.1839
52.8468
52.9592
53.5888
54.2073
55.6219
57.8375
59.8623
60.9633
61.0304
59.96
58.1447
55.848
53.067
49.275
43.5238
36.5559
28.9905
20.6236
12.1214
4.02937
-3.82425
-10.5338
-16.1815
-20.2476
-22.7772
-23.4575
-22.6533
-20.0477
-15.5103
-9.88597
-3.25241
4.11049
11.5363
18.975
26.0754
32.0346
36.7864
40.887
44.2589
47.1656
50.539
52.4176
55.4375
57.6584
59.4597
61.3786
61.6729
63.2102
62.1291
62.8707
61.9112
61.3826
60.324
59.0569
57.6714
55.686
54.2166
51.8194
49.6721
47.4097
45.3577
42.7754
40.7618
38.2848
35.484
33.4694
31.4345
29.6343
29.1192
28.3237
27.8689
38.8869
38.3357
36.5123
35.1648
34.4071
34.2397
34.5057
34.801
35.159
35.4548
35.627
35.7757
35.8028
35.8254
35.7957
35.7263
35.6142
35.573
35.4875
35.3471
35.3902
35.2589
35.2188
35.2892
35.1515
35.2323
35.1759
35.1484
35.1959
35.0531
35.0736
35.0035
34.9018
34.7952
34.7047
34.6231
34.4004
34.366
34.2256
34.113
34.0823
33.9432
34.0154
33.9869
34.0237
34.117
34.2125
34.4009
34.442
34.6309
34.7802
34.8116
34.9374
34.918
34.9121
34.8869
34.6562
34.5174
34.3338
33.9359
33.5996
33.1992
32.7377
32.2339
31.583
31.0735
30.4848
29.7461
29.1938
28.5436
28.0009
27.5066
26.8928
26.637
26.2988
25.9543
25.8712
25.7607
25.8426
25.8845
26.0435
26.3559
26.4622
26.8348
27.1366
27.2128
27.4775
27.725
27.8169
27.7026
27.9261
27.9578
27.5157
27.5273
27.4038
27.0831
26.7182
26.5128
26.7616
26.8479
27.329
28.1519
29.1435
30.7231
32.2522
33.9917
36.1592
38.1906
40.4124
42.4796
44.1113
45.8111
47.3644
48.4242
49.4602
50.5548
51.1276
51.5806
52.2783
52.7928
53.0694
53.3885
53.8201
54.0916
54.1736
54.2952
54.3806
54.2872
53.8515
53.0594
52.6017
52.7894
53.2709
54.3855
56.1009
57.6657
58.7339
58.5718
57.2982
55.6705
53.3058
51.0674
48.1575
43.5999
37.6634
30.5115
22.5409
14.6166
6.72341
-0.85604
-7.55206
-13.1263
-17.4524
-19.9449
-20.8418
-19.9906
-17.479
-13.365
-7.86913
-1.31762
6.11554
13.7962
21.1834
28.3109
34.5932
38.4943
42.8167
46.3183
49.863
51.9579
54.0014
56.6532
59.7211
60.5567
63.054
63.0647
64.5531
63.8461
64.5156
63.8686
62.7746
62.1505
60.5624
59.1882
57.1186
55.6385
53.321
51.1714
49.1893
46.8148
43.9163
41.8006
39.4754
36.6649
34.8699
32.8736
30.8663
30.4207
29.6565
28.8955
39.1848
38.7287
36.7946
35.2286
34.2827
34.0196
34.287
34.6544
35.0925
35.4722
35.6767
35.8334
35.8725
35.8545
35.7988
35.7054
35.581
35.5313
35.4372
35.3084
35.3668
35.2193
35.197
35.2766
35.1123
35.2231
35.143
35.0906
35.1899
34.9849
35.0408
34.9897
34.8367
34.8218
34.6766
34.6434
34.467
34.3857
34.3522
34.192
34.2057
34.1002
34.1183
34.1615
34.1137
34.2366
34.2998
34.4141
34.4955
34.5788
34.7455
34.7509
34.8094
34.8459
34.7749
34.7643
34.5821
34.387
34.2858
33.9257
33.5722
33.3129
32.8602
32.4305
31.9416
31.4143
31.0015
30.3763
29.8263
29.3853
28.8592
28.4455
27.9754
27.6701
27.4573
27.1427
27.0235
26.9991
27.0242
27.0807
27.2333
27.4484
27.5888
27.9108
28.0917
28.1706
28.4423
28.4205
28.3972
28.4789
28.2967
28.0219
27.7547
27.4959
26.9018
26.2667
25.8824
25.4382
25.106
24.9103
25.2144
25.8705
26.6186
27.9285
29.5321
31.2967
33.6981
36.1343
38.4708
40.9834
43.0518
44.9298
47.0089
48.4579
49.5854
50.8842
51.7784
52.3864
53.1195
53.7507
54.1186
54.4464
54.9079
55.2671
55.4545
55.5661
55.4501
55.2075
54.5126
53.2192
52.1772
51.7179
51.7457
52.7493
54.3843
55.8058
56.4766
56.0357
54.5848
52.3133
50.9137
49.2603
47.158
43.7042
39.0683
32.8174
25.2552
17.8754
10.4769
2.99007
-3.45002
-9.01402
-13.505
-16.1238
-17.234
-16.5485
-14.0878
-10.2248
-5.06917
1.2276
8.58615
16.2773
23.4906
30.471
37.1175
40.6701
46.2809
46.8038
53.2928
51.5562
54.9849
57.0958
61.3022
62.1429
64.6697
65.0128
66.1535
65.8373
66.2291
65.8157
64.2242
63.8904
62.1404
60.7274
58.966
57.4369
55.0985
52.736
50.9037
48.3665
45.2348
43.0904
40.7868
37.9748
36.2867
34.2975
32.1138
31.5876
30.8242
29.9196
39.4059
38.9564
36.9861
35.2974
34.2467
33.9035
34.1316
34.5272
35.0259
35.4682
35.7034
35.8815
35.9297
35.8868
35.8166
35.6764
35.5483
35.4924
35.3749
35.2859
35.3248
35.1776
35.1738
35.2401
35.0876
35.1926
35.1132
35.059
35.1782
34.9369
35.0218
34.9773
34.7938
34.8467
34.6657
34.659
34.5392
34.4061
34.4573
34.272
34.2912
34.2457
34.1902
34.3063
34.2065
34.3034
34.4112
34.4097
34.5373
34.5847
34.6701
34.7486
34.7168
34.7588
34.732
34.6471
34.5369
34.3466
34.2286
33.9751
33.6156
33.4033
33.0661
32.637
32.2618
31.8167
31.4556
30.9738
30.4633
30.1424
29.7005
29.3178
28.9855
28.6799
28.5048
28.2899
28.1589
28.1345
28.2006
28.2526
28.3271
28.5869
28.7134
28.8714
29.1532
29.205
29.2745
29.3482
29.232
29.0185
28.7809
28.546
27.9774
27.2368
26.5796
25.7886
24.9221
24.1183
23.4876
23.0706
22.9985
23.2295
23.946
25.1791
26.6916
28.7189
31.1142
33.8059
36.6419
39.3599
41.9803
44.3925
46.5349
48.4592
49.9897
51.247
52.4465
53.3027
53.9148
54.5871
55.0972
55.39
55.9331
56.4703
56.6832
56.675
56.4834
56.1258
55.2574
53.49
51.6263
50.4794
50.0348
50.746
52.0459
53.5985
54.3461
53.9327
52.632
50.8741
49.4068
48.0827
46.6039
44.5115
41.1469
35.8464
29.0399
22.0966
14.9303
7.8301
1.55598
-4.07493
-8.39439
-11.2441
-12.6817
-12.3642
-10.0552
-6.35062
-1.56172
4.45344
11.6322
19.2217
26.4234
33.03
40.1093
40.5263
48.3293
46.7416
58.3985
51.0444
56.3903
58.4081
62.7538
64.4768
66.4551
67.0597
67.6626
67.8846
68.0745
67.596
65.8645
65.8796
64.0123
62.5859
61.0629
59.1722
56.8228
54.1849
52.2177
49.9715
46.9154
44.6355
42.3942
39.6971
38.0419
35.9268
33.5446
32.9216
32.0302
30.9201
39.4838
39.044
37.092
35.3613
34.2539
33.8868
34.0749
34.4921
35.0153
35.4711
35.728
35.9019
35.9415
35.8852
35.8054
35.6364
35.5257
35.4574
35.3116
35.2713
35.2945
35.1572
35.1771
35.2172
35.0785
35.1875
35.0787
35.0335
35.1572
34.8958
34.998
34.9655
34.7559
34.8688
34.6658
34.6677
34.6163
34.4229
34.5424
34.3603
34.3517
34.3771
34.2547
34.418
34.3013
34.3398
34.5253
34.4022
34.5676
34.6163
34.5863
34.7703
34.6559
34.673
34.7388
34.554
34.5065
34.3685
34.1904
34.0449
33.7119
33.5078
33.2722
32.8824
32.5749
32.2176
31.9154
31.5314
31.0907
30.8475
30.4921
30.1436
29.9294
29.6495
29.4955
29.3923
29.2357
29.2433
29.3123
29.3559
29.4665
29.6515
29.8033
29.9511
30.1368
30.1799
30.2481
30.2512
30.0361
29.8244
29.4396
28.9264
28.2781
27.3927
26.3963
25.2379
24.1319
23.0248
21.9774
21.2897
20.9376
20.9463
21.4093
22.5527
24.056
26.1814
28.8177
31.65
34.824
38.0186
40.9215
43.8227
46.3738
48.4277
50.3779
51.9214
52.9977
54.0575
54.8841
55.3906
56.0078
56.5498
56.8804
57.2652
57.6558
57.8318
57.634
57.1009
55.8752
53.6481
51.0856
49.0912
48.0492
47.9263
49.2182
50.9099
52.092
52.1527
51.2691
49.9331
48.6146
47.6844
46.9466
46.0824
44.2012
39.7741
33.4854
27.121
20.448
13.7407
7.37791
1.60486
-2.83864
-5.67224
-7.09288
-6.99981
-5.26318
-2.03308
2.50307
8.08323
14.6566
22.0264
28.9894
35.3271
41.2614
40.8185
49.6456
48.0343
56.2557
45.6243
58.6464
60.2508
64.3688
66.4968
67.2463
68.3272
68.845
69.8363
69.9348
69.1612
68.1178
68.4343
65.9861
64.6559
63.295
60.8257
58.6726
55.8136
53.6037
51.8938
48.8521
46.1137
43.8015
41.2429
39.6732
37.6679
35.2149
34.3912
33.4222
32.0827
39.439
39.0032
37.0771
35.3777
34.3095
33.9857
34.176
34.581
35.085
35.5168
35.7462
35.9017
35.9356
35.8683
35.7911
35.6079
35.5047
35.4361
35.2792
35.2557
35.2683
35.1379
35.1649
35.1914
35.0679
35.168
35.0614
35.0087
35.1313
34.8886
34.9679
34.9619
34.7492
34.8708
34.6941
34.6672
34.6773
34.4682
34.5813
34.4638
34.3941
34.4731
34.3453
34.4679
34.4096
34.3839
34.5806
34.4549
34.5662
34.642
34.5694
34.7409
34.647
34.6198
34.7173
34.5366
34.4811
34.4162
34.209
34.1107
33.8693
33.626
33.4907
33.1673
32.866
32.6375
32.3532
32.0475
31.7303
31.4896
31.2346
30.9718
30.7651
30.586
30.4657
30.3672
30.3042
30.3145
30.3586
30.4562
30.556
30.663
30.8561
30.9826
31.0835
31.1861
31.1843
31.0915
30.9042
30.644
30.1289
29.4209
28.6771
27.638
26.3743
24.9962
23.5815
22.2153
20.891
19.9683
19.3682
19.0982
19.4682
20.3417
21.9836
24.1998
26.7783
29.8943
33.312
36.7744
40.2161
43.3102
46.1695
48.7605
50.7387
52.4137
53.8648
54.7817
55.5043
56.3022
56.845
57.1226
57.609
58.1192
58.5205
58.8739
58.7825
57.9884
56.2898
53.4857
50.3819
47.9037
46.3868
46.0609
47.0416
48.7989
50.3304
50.882
50.2917
49.1627
48.2737
47.8236
47.8395
48.1253
47.4877
44.0691
38.3535
32.492
26.4185
19.9616
13.7013
8.00187
3.54845
0.475817
-1.17004
-1.34568
-0.00848644
2.83811
7.11979
12.1172
18.0105
24.7362
30.8872
36.1928
38.9864
44.6429
49.5352
49.7878
51.7155
34.4184
59.5646
58.1224
66.4055
68.0651
68.1671
69.5939
70.4335
72.0895
72.0385
70.8652
70.7208
70.8445
67.7128
66.8624
65.4261
62.3445
60.4918
57.7762
55.3717
53.6316
50.3874
47.5368
45.4108
42.6719
40.9344
39.3247
36.7888
35.5597
34.7032
33.2863
39.2943
38.8441
36.9949
35.4205
34.4803
34.2134
34.3934
34.7625
35.2034
35.5797
35.7647
35.8872
35.9051
35.8203
35.741
35.5649
35.4615
35.3876
35.2462
35.2387
35.2322
35.1502
35.1654
35.1635
35.0941
35.1296
35.054
35.0066
35.0651
34.9056
34.9267
34.9242
34.7738
34.8342
34.7228
34.6821
34.6944
34.545
34.6022
34.5383
34.465
34.5265
34.4456
34.5059
34.4923
34.4575
34.5883
34.5292
34.5712
34.6492
34.5997
34.6916
34.6589
34.6178
34.6712
34.5629
34.4916
34.4355
34.2866
34.179
34.0086
33.8059
33.6808
33.4416
33.201
33.0184
32.7827
32.5611
32.3039
32.1135
31.935
31.709
31.5943
31.4542
31.3462
31.3323
31.268
31.2889
31.3817
31.4268
31.5405
31.67
31.7586
31.8945
31.9903
32.0229
32.0525
31.9358
31.6344
31.2868
30.8087
30.0704
29.1114
27.9
26.4876
24.993
23.4105
21.8188
20.348
19.2159
18.4284
18.0429
18.286
19.0963
20.6698
22.8224
25.4234
28.6765
32.2372
35.9171
39.6886
43.0939
46.0965
48.9522
51.319
52.9423
54.2962
55.5268
56.2983
56.8358
57.3957
57.8533
58.2648
58.7661
59.0749
59.3622
59.4435
58.6876
56.7189
53.3729
49.6327
46.7562
45.0875
44.708
45.7148
47.7713
49.7304
50.3392
49.3908
47.8225
47.1815
47.7744
48.9567
50.0466
50.3311
48.0277
43.1044
37.585
31.9693
26.2898
20.3925
14.8781
10.5274
7.21088
5.19376
4.52161
5.2765
8.0083
12.068
16.4638
21.4698
27.7185
33.6891
38.1281
39.7586
46.8172
49.2873
50.9806
47.6399
37.9174
61.2128
54.3942
69.7829
68.2082
69.6024
71.4171
72.4521
74.2557
73.9196
72.5287
73.2113
72.5931
69.1566
68.7612
67.1463
63.7641
62.1496
59.9656
57.2893
55.0942
51.9763
49.3674
47.2725
44.1078
42.0787
40.7619
38.2118
36.539
35.7478
34.3798
38.8
38.4519
36.8483
35.5086
34.7878
34.5757
34.7141
35.0178
35.3478
35.6376
35.7684
35.852
35.8547
35.7636
35.6817
35.522
35.4311
35.3525
35.2415
35.2475
35.199
35.167
35.1638
35.118
35.1162
35.0762
35.03
35.0191
34.9808
34.9325
34.9119
34.873
34.8315
34.795
34.7516
34.7283
34.6748
34.6414
34.6201
34.5835
34.567
34.5393
34.5449
34.5491
34.5348
34.5556
34.5821
34.5903
34.6083
34.6347
34.6443
34.6632
34.6588
34.6405
34.6347
34.5932
34.527
34.4648
34.3791
34.2653
34.1438
34.0013
33.8634
33.711
33.5228
33.363
33.1992
33.0095
32.84
32.6853
32.5367
32.4055
32.2989
32.203
32.1545
32.1312
32.1056
32.1588
32.2022
32.2571
32.3853
32.4437
32.5345
32.6499
32.6515
32.6793
32.704
32.5455
32.2578
31.8818
31.2935
30.5222
29.5741
28.2909
26.7569
25.1513
23.4876
21.7997
20.2362
18.9986
18.1188
17.6773
17.8244
18.5515
20.0512
22.1367
24.7685
28.0999
31.7038
35.5072
39.4755
42.987
46.1533
49.2221
51.615
53.3786
54.8557
55.8654
56.6755
57.4966
57.8505
57.953
58.4381
59.0396
59.378
59.6537
59.6245
58.7832
56.7392
53.3875
49.4952
46.2838
44.2724
44.0722
45.5579
48.2463
50.4991
50.4526
48.4127
45.8229
44.8407
47.029
49.914
51.5893
52.3175
51.0506
47.2062
42.5137
37.4333
32.2802
26.9441
21.8545
17.6126
14.3229
12.1621
11.3041
11.6832
13.5161
16.9475
20.7194
24.5914
29.55
34.9348
38.9222
40.9821
45.566
47.2754
48.7131
46.6711
49.8081
59.7195
57.6475
72.4399
68.4278
71.3421
73.5684
74.8071
76.1312
74.9226
74.0168
75.2755
73.8507
71.1274
70.733
68.6705
65.5183
64.1029
62.0623
58.8356
56.4061
53.6131
50.8533
48.8033
45.7955
43.2636
41.8891
39.7266
37.6667
36.6557
35.4081
38.0315
37.8302
36.6962
35.7337
35.2438
35.0574
35.1211
35.3172
35.4972
35.6826
35.7671
35.8097
35.8069
35.7099
35.6271
35.486
35.3918
35.3123
35.2263
35.2324
35.1736
35.1724
35.1617
35.1006
35.1227
35.0515
35.0212
35.0217
34.9342
34.9391
34.8985
34.8372
34.8558
34.7793
34.7647
34.7581
34.6771
34.6989
34.6453
34.6175
34.6312
34.5712
34.6105
34.592
34.5781
34.6215
34.5943
34.6262
34.6405
34.6319
34.6732
34.6607
34.6584
34.6679
34.6275
34.6138
34.5673
34.4993
34.4525
34.3511
34.26
34.1619
34.0382
33.9283
33.7918
33.6617
33.5299
33.3928
33.2686
33.1442
33.038
32.9443
32.8638
32.8045
32.7686
32.7522
32.7506
32.7875
32.8257
32.8745
32.963
33.0008
33.0529
33.1349
33.1216
33.1125
33.1004
32.9218
32.6296
32.2589
31.6838
30.904
29.9359
28.6564
27.1077
25.444
23.7276
22.0143
20.4264
19.1313
18.2224
17.7634
17.879
18.6172
20.0394
22.091
24.7687
28.0586
31.6495
35.5149
39.4731
43.0238
46.2911
49.4133
51.8987
53.6608
55.0778
56.1772
56.8512
57.4037
57.9512
58.3125
58.5061
58.8244
59.2375
59.5193
59.4187
58.6676
56.7685
53.5596
49.8184
46.7281
45.0522
44.9212
47.0703
50.2179
51.9714
51.1189
48.7467
46.1229
45.1436
47.4264
50.695
52.4909
53.1289
52.7979
50.3469
47.0715
42.9524
38.3616
33.4406
28.6051
24.3196
20.7936
18.4054
17.2324
16.923
18.1654
21.0872
24.3344
27.5864
31.482
35.4724
38.5504
40.9835
44.3705
43.3066
46.4806
48.7188
53.8151
60.0751
64.7134
70.7434
70.8314
73.3494
75.4666
76.3322
77.3854
75.8441
75.686
77.2001
75.2723
73.5957
72.6482
70.0456
67.3061
65.8465
63.5229
59.9418
57.6823
55.1324
52.0164
49.8725
47.4037
44.6006
42.7412
40.9395
38.8722
37.4931
36.2078
37.1778
37.1354
36.6204
36.1009
35.7733
35.5478
35.5121
35.575
35.6254
35.7156
35.7592
35.7625
35.7354
35.6481
35.5659
35.4538
35.3747
35.3017
35.2417
35.2345
35.1756
35.1763
35.1534
35.0906
35.1039
35.0335
35.0049
35.0011
34.9175
34.93
34.8911
34.8327
34.8567
34.7859
34.7725
34.7702
34.7004
34.7228
34.6775
34.6491
34.6666
34.6151
34.6406
34.6283
34.6138
34.6505
34.6198
34.6466
34.6628
34.6441
34.6808
34.6645
34.6576
34.6731
34.6307
34.6217
34.5947
34.533
34.4998
34.4216
34.3438
34.2748
34.1695
34.0831
33.9867
33.8725
33.7731
33.6659
33.5638
33.4758
33.3851
33.314
33.2642
33.2077
33.1843
33.181