/*--------------------------------*- C++ -*----------------------------------*\
| =========                 |                                                 |
| \\      /  F ield         | OpenFOAM: The Open Source CFD Toolbox           |
|  \\    /   O peration     | Version:  2.4.0                                 |
|   \\  /    A nd           | Web:      www.OpenFOAM.org                      |
|    \\/     M anipulation  |                                                 |
\*---------------------------------------------------------------------------*/
FoamFile
{
    version     2.0;
    format      ascii;
    class       surfaceScalarField;
    location    "1.18";
    object      phi_0;
}
// * * * * * * * * * * * * * * * * * * * * * * * * * * * * * * * * * * * * * //

dimensions      [0 3 -1 0 0 0 0];

internalField   nonuniform List<scalar> 
17320
(
1.76387e-05
7.36126e-06
1.16178e-05
6.02096e-06
8.68337e-06
2.9344e-06
7.35576e-06
1.32761e-06
6.71532e-06
6.40442e-07
6.3464e-06
3.68915e-07
6.08067e-06
2.65729e-07
5.86199e-06
2.18678e-07
5.7073e-06
1.54695e-07
5.59647e-06
1.10826e-07
5.46871e-06
1.27763e-07
5.3844e-06
8.43086e-08
5.31435e-06
7.00469e-08
5.23517e-06
7.91851e-08
5.11967e-06
1.15504e-07
5.08399e-06
3.56791e-08
4.98242e-06
1.01563e-07
5.01501e-06
-3.25884e-08
4.76971e-06
2.45304e-07
-4.88147e-07
5.25785e-06
2.54627e-05
6.89857e-06
2.32474e-05
8.23627e-06
2.09945e-05
5.18725e-06
1.93171e-05
3.00508e-06
1.80735e-05
1.88396e-06
1.71184e-05
1.32404e-06
1.63664e-05
1.0178e-06
1.57639e-05
8.21116e-07
1.53145e-05
6.04095e-07
1.49471e-05
4.78216e-07
1.46191e-05
4.55794e-07
1.43769e-05
3.26525e-07
1.41564e-05
2.90484e-07
1.39463e-05
2.8935e-07
1.37082e-05
3.53565e-07
1.358e-05
1.63942e-07
1.33418e-05
3.39758e-07
1.33029e-05
6.29058e-09
1.31184e-05
4.29801e-07
-5.69215e-07
1.31995e-05
2.6621e-05
5.27759e-06
2.71518e-05
7.70541e-06
2.67905e-05
5.54861e-06
2.6249e-05
3.54652e-06
2.56026e-05
2.53037e-06
2.48809e-05
2.04576e-06
2.41614e-05
1.73733e-06
2.34895e-05
1.493e-06
2.29445e-05
1.14906e-06
2.24581e-05
9.64669e-07
2.2018e-05
8.95832e-07
2.16825e-05
6.62089e-07
2.13678e-05
6.05186e-07
2.10747e-05
5.82453e-07
2.0773e-05
6.55281e-07
2.05722e-05
3.64699e-07
2.0281e-05
6.30979e-07
2.01419e-05
1.45395e-07
2.0096e-05
4.75625e-07
-9.47003e-07
2.04738e-05
2.63247e-05
3.9529e-06
2.75273e-05
6.50281e-06
2.80978e-05
4.97807e-06
2.84621e-05
3.18228e-06
2.86446e-05
2.34778e-06
2.86331e-05
2.0573e-06
2.84806e-05
1.88981e-06
2.82164e-05
1.75719e-06
2.79746e-05
1.39088e-06
2.77085e-05
1.23081e-06
2.74154e-05
1.18893e-06
2.71739e-05
9.03594e-07
2.69329e-05
8.46186e-07
2.66695e-05
8.45811e-07
2.64182e-05
9.06575e-07
2.61928e-05
5.90137e-07
2.59742e-05
8.49552e-07
2.56674e-05
4.52166e-07
2.55141e-05
6.28963e-07
-6.22243e-07
2.51893e-05
2.60439e-05
2.90898e-06
2.72256e-05
5.32114e-06
2.80388e-05
4.16485e-06
2.8525e-05
2.69614e-06
2.89861e-05
1.88661e-06
2.93298e-05
1.71365e-06
2.9598e-05
1.62154e-06
2.97205e-05
1.63477e-06
2.98346e-05
1.27679e-06
2.99179e-05
1.14746e-06
2.99579e-05
1.14892e-06
2.99608e-05
9.0072e-07
2.99813e-05
8.25685e-07
2.99143e-05
9.12845e-07
2.98945e-05
9.26359e-07
2.97636e-05
7.21022e-07
2.9754e-05
8.59141e-07
2.94228e-05
7.83354e-07
2.9261e-05
7.90798e-07
-2.19942e-07
2.88587e-05
2.58365e-05
2.07243e-06
2.69541e-05
4.20358e-06
2.78019e-05
3.31703e-06
2.82272e-05
2.27088e-06
2.87277e-05
1.38609e-06
2.9097e-05
1.34439e-06
2.94799e-05
1.23859e-06
2.97067e-05
1.40799e-06
2.99783e-05
1.00523e-06
3.01384e-05
9.87291e-07
3.04297e-05
8.57634e-07
3.05049e-05
8.25547e-07
3.07624e-05
5.68176e-07
3.0804e-05
8.71261e-07
3.10461e-05
6.84288e-07
3.09851e-05
7.81983e-07
3.12456e-05
5.98616e-07
3.09352e-05
1.09377e-06
3.09036e-05
8.2243e-07
3.58799e-07
3.03248e-05
2.5691e-05
1.38142e-06
2.67321e-05
3.16244e-06
2.76092e-05
2.43998e-06
2.80313e-05
1.84881e-06
2.8489e-05
9.28372e-07
2.88442e-05
9.8921e-07
2.92289e-05
8.53876e-07
2.94553e-05
1.18151e-06
2.98134e-05
6.47178e-07
2.99016e-05
8.99059e-07
3.0279e-05
4.803e-07
3.03615e-05
7.43033e-07
3.06717e-05
2.58001e-07
3.07202e-05
8.22736e-07
3.10512e-05
3.53224e-07
3.1028e-05
8.05192e-07
3.13809e-05
2.45727e-07
3.11035e-05
1.37118e-06
3.10111e-05
9.14896e-07
1.03337e-06
3.03365e-05
2.5555e-05
8.26466e-07
2.6601e-05
2.11643e-06
2.74455e-05
1.59545e-06
2.80175e-05
1.27683e-06
2.83114e-05
6.34465e-07
2.86244e-05
6.76199e-07
2.90614e-05
4.16901e-07
2.93403e-05
9.02613e-07
2.9563e-05
4.2445e-07
2.98159e-05
6.46111e-07
3.0058e-05
2.38279e-07
3.03072e-05
4.93793e-07
3.04392e-05
1.26046e-07
3.06273e-05
6.34579e-07
3.07835e-05
1.97033e-07
3.09865e-05
6.02185e-07
3.1047e-05
1.85229e-07
3.15287e-05
8.89443e-07
3.20154e-05
4.28199e-07
5.05429e-07
3.25434e-05
2.54378e-05
3.88623e-07
2.64797e-05
1.07457e-06
2.73635e-05
7.11658e-07
2.78972e-05
7.43084e-07
2.8222e-05
3.09743e-07
2.85796e-05
3.18558e-07
2.89076e-05
8.88634e-08
2.92467e-05
5.63598e-07
2.94186e-05
2.5248e-07
2.97289e-05
3.35805e-07
2.99564e-05
1.07656e-08
3.02004e-05
2.498e-07
3.02578e-05
6.87343e-08
3.05369e-05
3.55468e-07
3.06506e-05
8.33421e-08
3.09146e-05
3.38103e-07
3.10463e-05
5.35762e-08
3.15107e-05
4.25061e-07
3.16248e-05
3.14101e-07
4.39827e-07
3.16904e-05
2.54397e-05
-5.10829e-08
2.644e-05
7.42298e-08
2.7251e-05
-9.92931e-08
2.79016e-05
9.24642e-08
2.82135e-05
-2.12491e-09
2.85469e-05
-1.48987e-08
2.87866e-05
-1.5082e-07
2.91229e-05
2.27282e-07
2.94668e-05
-9.13988e-08
2.97499e-05
5.27108e-08
2.9845e-05
-8.43159e-08
3.00883e-05
6.50967e-09
3.02605e-05
-1.03526e-07
3.04387e-05
1.77325e-07
3.06251e-05
-1.03072e-07
3.09342e-05
2.89856e-08
3.10409e-05
-5.3099e-08
3.12812e-05
1.84751e-07
3.15668e-05
2.85568e-08
-6.85954e-08
3.20752e-05
2.54154e-05
-4.66502e-07
2.64324e-05
-9.42722e-07
2.72371e-05
-9.04e-07
2.78962e-05
-5.66697e-07
2.82652e-05
-3.71121e-07
2.84966e-05
-2.46303e-07
2.87514e-05
-4.05569e-07
2.92056e-05
-2.26968e-07
2.94319e-05
-3.17626e-07
2.97313e-05
-2.46688e-07
2.98263e-05
-1.79354e-07
3.00491e-05
-2.16333e-07
3.0269e-05
-3.23405e-07
3.05407e-05
-9.43739e-08
3.05711e-05
-1.334e-07
3.0863e-05
-2.63001e-07
3.107e-05
-2.60088e-07
3.13613e-05
-1.06477e-07
3.16617e-05
-2.7189e-07
-4.37801e-07
3.20309e-05
2.5462e-05
-9.28503e-07
2.64784e-05
-1.95917e-06
2.73139e-05
-1.73948e-06
2.79434e-05
-1.19614e-06
2.8236e-05
-6.63761e-07
2.85979e-05
-6.08139e-07
2.88519e-05
-6.59586e-07
2.92181e-05
-5.93207e-07
2.94839e-05
-5.83447e-07
2.97326e-05
-4.95388e-07
2.99178e-05
-3.64503e-07
3.01834e-05
-4.81954e-07
3.03163e-05
-4.56268e-07
3.05024e-05
-2.80522e-07
3.06969e-05
-3.2788e-07
3.09307e-05
-4.96778e-07
3.10733e-05
-4.02773e-07
3.14557e-05
-4.88859e-07
3.18141e-05
-6.30259e-07
-3.18396e-07
3.16947e-05
2.55416e-05
-1.47011e-06
2.6597e-05
-3.01453e-06
2.74255e-05
-2.56803e-06
2.80212e-05
-1.79185e-06
2.83223e-05
-9.64885e-07
2.86796e-05
-9.65344e-07
2.89922e-05
-9.72263e-07
2.93245e-05
-9.25465e-07
2.95474e-05
-8.06393e-07
2.98724e-05
-8.2034e-07
3.0048e-05
-5.40073e-07
3.0263e-05
-6.97022e-07
3.03926e-05
-5.85848e-07
3.06281e-05
-5.16063e-07
3.07881e-05
-4.8783e-07
3.10253e-05
-7.33959e-07
3.1229e-05
-6.06497e-07
3.15513e-05
-8.11171e-07
3.17196e-05
-7.98574e-07
-5.69931e-07
3.19712e-05
2.56675e-05
-2.13762e-06
2.67339e-05
-4.08094e-06
2.75975e-05
-3.43163e-06
2.80688e-05
-2.26312e-06
2.84711e-05
-1.36718e-06
2.88654e-05
-1.35965e-06
2.91664e-05
-1.27323e-06
2.94752e-05
-1.23428e-06
2.97584e-05
-1.08965e-06
3.00351e-05
-1.09704e-06
3.0216e-05
-7.20946e-07
3.04172e-05
-8.98238e-07
3.05645e-05
-7.33085e-07
3.07997e-05
-7.51335e-07
3.09398e-05
-6.27891e-07
3.11736e-05
-9.6777e-07
3.13613e-05
-7.94156e-07
3.16516e-05
-1.1015e-06
3.18804e-05
-1.02739e-06
-1.0093e-06
3.23198e-05
2.58337e-05
-2.97131e-06
2.69576e-05
-5.20486e-06
2.78192e-05
-4.29318e-06
2.82358e-05
-2.67981e-06
2.86921e-05
-1.82341e-06
2.91015e-05
-1.76904e-06
2.94372e-05
-1.60893e-06
2.97135e-05
-1.51059e-06
2.9995e-05
-1.3712e-06
3.01915e-05
-1.29354e-06
3.03794e-05
-9.0877e-07
3.05347e-05
-1.05361e-06
3.06906e-05
-8.88966e-07
3.08424e-05
-9.03087e-07
3.09559e-05
-7.41453e-07
3.11018e-05
-1.11361e-06
3.12169e-05
-9.09302e-07
3.14047e-05
-1.28924e-06
3.15368e-05
-1.15951e-06
-1.35504e-06
3.18825e-05
2.60314e-05
-4.00274e-06
2.72497e-05
-6.42317e-06
2.80333e-05
-5.07675e-06
2.84836e-05
-3.13014e-06
2.89738e-05
-2.31354e-06
2.93284e-05
-2.12371e-06
2.95812e-05
-1.86169e-06
2.97371e-05
-1.66656e-06
2.9865e-05
-1.49904e-06
2.98911e-05
-1.3196e-06
2.99575e-05
-9.75197e-07
2.99408e-05
-1.03697e-06
2.99468e-05
-8.94956e-07
2.99092e-05
-8.65489e-07
2.98803e-05
-7.12536e-07
2.97856e-05
-1.01892e-06
2.97058e-05
-8.29487e-07
2.96279e-05
-1.21127e-06
2.95472e-05
-1.07888e-06
-1.4614e-06
2.96536e-05
2.63085e-05
-5.31126e-06
2.75496e-05
-7.66424e-06
2.80638e-05
-5.59096e-06
2.84429e-05
-3.50921e-06
2.86485e-05
-2.5192e-06
2.86201e-05
-2.09523e-06
2.84719e-05
-1.71359e-06
2.82406e-05
-1.43522e-06
2.79633e-05
-1.22175e-06
2.76708e-05
-1.02708e-06
2.744e-05
-7.44375e-07
2.71503e-05
-7.47302e-07
2.69057e-05
-6.50372e-07
2.66536e-05
-6.13385e-07
2.64336e-05
-4.92506e-07
2.61335e-05
-7.1884e-07
2.58986e-05
-5.9455e-07
2.5567e-05
-8.79668e-07
2.53324e-05
-8.44313e-07
-1.32162e-06
2.51926e-05
2.66059e-05
-6.91717e-06
2.71606e-05
-8.2189e-06
2.67687e-05
-5.19909e-06
2.62501e-05
-2.99062e-06
2.56058e-05
-1.87489e-06
2.48653e-05
-1.35473e-06
2.41579e-05
-1.00615e-06
2.35097e-05
-7.87062e-07
2.29242e-05
-6.36199e-07
2.24301e-05
-5.32993e-07
2.2043e-05
-3.57289e-07
2.16628e-05
-3.67107e-07
2.13442e-05
-3.31747e-07
2.10468e-05
-3.15984e-07
2.0794e-05
-2.39687e-07
2.04675e-05
-3.9242e-07
2.02042e-05
-3.31225e-07
1.97993e-05
-4.7473e-07
1.94347e-05
-4.79742e-07
-4.59908e-07
1.8573e-05
2.54505e-05
-7.36766e-06
2.32476e-05
-6.01598e-06
2.0983e-05
-2.93447e-06
1.93192e-05
-1.3269e-06
1.80779e-05
-6.33526e-07
1.71058e-05
-3.8266e-07
1.6364e-05
-2.64383e-07
1.57782e-05
-2.01194e-07
1.53036e-05
-1.61601e-07
1.49183e-05
-1.47781e-07
1.464e-05
-7.89724e-08
1.43681e-05
-9.5162e-08
1.4132e-05
-9.56776e-08
1.39104e-05
-9.4359e-08
1.37296e-05
-5.89172e-08
1.34691e-05
-1.3189e-07
1.32458e-05
-1.07931e-07
1.29278e-05
-1.56766e-07
1.26614e-05
-2.13292e-07
-6.74688e-08
1.22689e-05
1.76323e-05
1.16164e-05
8.68189e-06
7.35499e-06
6.72147e-06
6.33881e-06
6.07442e-06
5.87323e-06
5.71163e-06
5.56385e-06
5.48487e-06
5.38971e-06
5.29403e-06
5.19968e-06
5.14076e-06
5.00887e-06
4.90094e-06
4.74417e-06
4.53088e-06
4.46341e-06
5.76146e-06
-2.44707e-07
-2.58902e-07
6.24381e-06
-2.7917e-08
-4.54426e-07
6.52593e-06
4.73333e-08
-3.29458e-07
6.72123e-06
5.80171e-09
-2.01098e-07
6.87506e-06
-7.9632e-08
-7.42028e-08
7.02481e-06
-1.50219e-07
4.65828e-10
7.17573e-06
-1.63185e-07
1.22669e-08
7.33376e-06
-1.70939e-07
1.29078e-08
7.48345e-06
-1.45492e-07
-4.20017e-09
7.62268e-06
-1.08853e-07
-3.03702e-08
7.76357e-06
-9.0807e-08
-5.00855e-08
7.89975e-06
-4.266e-08
-9.35174e-08
8.02687e-06
-4.39185e-08
-8.32069e-08
8.15743e-06
-3.35016e-08
-9.70508e-08
8.27875e-06
-3.12241e-08
-9.00974e-08
8.40278e-06
-4.75949e-08
-7.64406e-08
8.51372e-06
-4.42724e-08
-6.66627e-08
8.62562e-06
-6.33038e-08
-4.86019e-08
8.72734e-06
-6.57312e-08
-3.59878e-08
8.82281e-06
-7.09123e-08
-2.45569e-08
8.91944e-06
-7.87633e-08
-1.78701e-08
9.00607e-06
-7.24902e-08
-1.41315e-08
9.0936e-06
-8.12934e-08
-6.23689e-09
9.16972e-06
-7.31471e-08
-2.97742e-09
9.24411e-06
-8.4769e-08
1.03782e-08
9.30833e-06
-7.8138e-08
1.39184e-08
9.36902e-06
-8.36117e-08
2.29253e-08
9.42012e-06
-7.9228e-08
2.81269e-08
9.46367e-06
-7.18334e-08
2.82853e-08
9.5049e-06
-6.47955e-08
2.35615e-08
9.53705e-06
-3.12556e-08
-8.96304e-10
9.57715e-06
-1.80748e-09
-3.82955e-08
9.62029e-06
5.60528e-08
-9.91914e-08
9.67814e-06
1.2037e-07
-1.78216e-07
9.76488e-06
1.97181e-07
-2.83919e-07
9.8799e-06
2.86511e-07
-4.01533e-07
1.00309e-05
3.36886e-07
-4.87922e-07
1.02229e-05
3.90292e-07
-5.82297e-07
1.04462e-05
3.82843e-07
-6.06107e-07
1.06674e-05
3.34501e-07
-5.55738e-07
1.08626e-05
2.023e-07
-3.97421e-07
1.09816e-05
2.95566e-08
-1.4862e-07
1.10323e-05
-1.68742e-07
1.18075e-07
1.10164e-05
-3.55588e-07
3.71443e-07
1.09589e-05
-5.11675e-07
5.69231e-07
1.08818e-05
-6.11102e-07
6.88149e-07
1.08125e-05
-6.53583e-07
7.22867e-07
1.07501e-05
-6.4035e-07
7.02775e-07
1.07172e-05
-6.00611e-07
6.33488e-07
1.06991e-05
-5.258e-07
5.43921e-07
1.07098e-05
-4.39291e-07
4.28654e-07
1.07589e-05
-3.6049e-07
3.11315e-07
1.08017e-05
-2.30993e-07
1.88207e-07
1.08696e-05
-1.61288e-07
9.33822e-08
1.09253e-05
-5.31591e-08
-2.46268e-09
1.0969e-05
4.66008e-08
-9.031e-08
1.10442e-05
1.39802e-07
-2.15084e-07
1.11265e-05
3.10706e-07
-3.92928e-07
1.12227e-05
4.63485e-07
-5.59705e-07
1.13995e-05
6.42023e-07
-8.18819e-07
1.15491e-05
7.71346e-07
-9.20924e-07
1.17774e-05
9.81622e-07
-1.20994e-06
1.20887e-05
1.06641e-06
-1.37773e-06
1.24294e-05
1.22271e-06
-1.56344e-06
1.28261e-05
1.28023e-06
-1.67687e-06
1.33466e-05
1.27886e-06
-1.7994e-06
1.38607e-05
1.25248e-06
-1.76658e-06
1.43481e-05
1.10697e-06
-1.5944e-06
1.49358e-05
8.33007e-07
-1.42066e-06
1.54653e-05
6.09481e-07
-1.13903e-06
1.59293e-05
2.49399e-07
-7.13402e-07
1.64283e-05
-2.0027e-07
-2.98714e-07
1.68127e-05
-4.90451e-07
1.06112e-07
1.72799e-05
-9.17826e-07
4.50585e-07
1.79132e-05
-1.32806e-06
6.94726e-07
1.8325e-05
-1.65515e-06
1.24335e-06
1.87555e-05
-2.08193e-06
1.65142e-06
1.93497e-05
-2.39808e-06
1.80389e-06
1.98409e-05
-2.90487e-06
2.4137e-06
2.04523e-05
-3.28172e-06
2.67028e-06
2.11571e-05
-3.63164e-06
2.92691e-06
2.16329e-05
-4.11574e-06
3.63995e-06
2.229e-05
-4.57935e-06
3.92225e-06
2.29638e-05
-4.93708e-06
4.26323e-06
2.35153e-05
-5.3526e-06
4.80112e-06
2.41161e-05
-5.81364e-06
5.21281e-06
2.47434e-05
-6.0522e-06
5.42495e-06
2.53103e-05
-6.20804e-06
5.64111e-06
2.59605e-05
-6.61761e-06
5.96746e-06
2.66043e-05
-6.88141e-06
6.23753e-06
2.70814e-05
-6.53442e-06
6.05735e-06
2.76471e-05
-6.82841e-06
6.26276e-06
2.83002e-05
-7.02879e-06
6.37569e-06
2.85169e-05
-6.73225e-06
6.5155e-06
2.89835e-05
-7.02947e-06
6.56291e-06
2.96996e-05
-6.76929e-06
6.05315e-06
2.993e-05
-6.8968e-06
6.66638e-06
3.01028e-05
-7.45236e-06
7.27958e-06
2.99164e-05
-6.81045e-06
6.99689e-06
2.9591e-05
-7.10832e-06
7.43364e-06
2.97846e-05
-7.37138e-06
7.17781e-06
2.94354e-05
-7.0399e-06
7.38914e-06
2.83691e-05
-6.9032e-06
7.96945e-06
2.76396e-05
-6.24459e-06
6.9741e-06
2.66605e-05
-5.67e-06
6.64909e-06
2.56871e-05
-4.91218e-06
5.88558e-06
2.51339e-05
-3.98481e-06
4.53802e-06
2.4341e-05
-2.69364e-06
3.48653e-06
2.36999e-05
-1.16841e-06
1.80957e-06
2.35563e-05
-1.91005e-07
3.34567e-07
2.36845e-05
1.15071e-06
-1.27888e-06
2.39397e-05
2.29194e-06
-2.54717e-06
2.41759e-05
3.00787e-06
-3.24406e-06
2.48407e-05
3.60461e-06
-4.26936e-06
2.55564e-05
3.87819e-06
-4.5939e-06
2.62936e-05
3.9002e-06
-4.63746e-06
2.68882e-05
3.84657e-06
-4.44116e-06
2.71977e-05
3.49393e-06
-3.80341e-06
2.73151e-05
2.70825e-06
-2.82565e-06
2.76198e-05
1.65182e-06
-1.9565e-06
2.7619e-05
5.98948e-07
-5.98217e-07
2.77025e-05
-5.75403e-07
4.91912e-07
2.78504e-05
-2.28353e-06
2.13567e-06
2.75433e-05
-3.1885e-06
3.49563e-06
2.76723e-05
-4.7875e-06
4.65843e-06
2.7311e-05
-6.30308e-06
6.66442e-06
2.65947e-05
-6.85807e-06
7.57435e-06
2.65051e-05
-8.57867e-06
8.66831e-06
2.58543e-05
-9.46914e-06
1.01199e-05
2.48697e-05
-9.7806e-06
1.07652e-05
2.3959e-05
-1.05318e-05
1.14425e-05
2.33505e-05
-1.09179e-05
1.15264e-05
2.31514e-05
-1.21063e-05
1.23054e-05
2.24258e-05
-1.28507e-05
1.35762e-05
2.17604e-05
-1.32567e-05
1.39222e-05
2.13959e-05
-1.51327e-05
1.54972e-05
1.97478e-05
-1.63086e-05
1.79567e-05
1.66846e-05
-1.41139e-05
1.71771e-05
1.38353e-05
-1.15102e-05
1.43596e-05
1.20454e-05
-1.14814e-05
1.32713e-05
1.15049e-05
-1.49618e-05
1.55024e-05
1.18394e-05
-1.92441e-05
1.89096e-05
1.26017e-05
-2.24021e-05
2.16398e-05
1.34052e-05
-2.37525e-05
2.29491e-05
1.41264e-05
-2.36405e-05
2.29192e-05
1.49022e-05
-2.29509e-05
2.2175e-05
1.57253e-05
-2.20748e-05
2.12518e-05
1.66086e-05
-2.06369e-05
1.97535e-05
1.74513e-05
-1.85059e-05
1.76633e-05
1.81886e-05
-1.58161e-05
1.50788e-05
1.89964e-05
-1.3116e-05
1.23082e-05
1.95905e-05
-9.83053e-06
9.23649e-06
2.01059e-05
-6.58344e-06
6.06805e-06
2.05788e-05
-3.33113e-06
2.8582e-06
2.0755e-05
1.76699e-07
-3.52913e-07
2.0752e-05
3.27713e-06
-3.27412e-06
2.08281e-05
6.00441e-06
-6.08053e-06
2.04306e-05
8.89298e-06
-8.49544e-06
2.01253e-05
1.05166e-05
-1.02114e-05
1.9852e-05
1.25131e-05
-1.22398e-05
1.88844e-05
1.38639e-05
-1.28962e-05
1.89811e-05
1.42181e-05
-1.43148e-05
1.87701e-05
1.56395e-05
-1.54285e-05
1.92808e-05
1.59892e-05
-1.64998e-05
2.05695e-05
1.77115e-05
-1.90002e-05
2.00941e-05
1.95054e-05
-1.903e-05
2.02095e-05
1.92547e-05
-1.93701e-05
2.06431e-05
1.99755e-05
-2.04091e-05
1.97056e-05
2.02745e-05
-1.9337e-05
1.92597e-05
1.92685e-05
-1.88227e-05
1.88115e-05
1.86477e-05
-1.81994e-05
1.87918e-05
1.76183e-05
-1.75986e-05
1.90114e-05
1.79895e-05
-1.82091e-05
1.86585e-05
1.88062e-05
-1.84532e-05
1.84573e-05
1.88368e-05
-1.86356e-05
1.76767e-05
1.86138e-05
-1.78332e-05
1.70523e-05
1.68911e-05
-1.62666e-05
1.64346e-05
1.55474e-05
-1.49297e-05
1.54896e-05
1.41812e-05
-1.32362e-05
1.46696e-05
1.34443e-05
-1.26243e-05
1.36791e-05
1.3243e-05
-1.22526e-05
1.27085e-05
1.24345e-05
-1.14639e-05
1.17009e-05
1.21977e-05
-1.119e-05
1.04649e-05
1.09494e-05
-9.71345e-06
9.59759e-06
1.02883e-05
-9.42089e-06
7.571e-06
1.04731e-05
-8.44654e-06
7.48679e-06
9.12332e-06
-9.03911e-06
6.41208e-06
1.06542e-05
-9.57946e-06
7.16422e-06
8.77519e-06
-9.52734e-06
7.34862e-06
1.08267e-05
-1.10111e-05
7.42081e-06
8.65742e-06
-8.72962e-06
7.78005e-06
1.01751e-05
-1.05343e-05
7.37752e-06
8.89277e-06
-8.49025e-06
7.47085e-06
9.92945e-06
-1.00228e-05
9.4836e-06
6.50092e-06
-8.51368e-06
8.37034e-06
8.67391e-06
-7.56064e-06
1.00569e-05
2.93474e-06
-4.62131e-06
9.13987e-06
5.41744e-06
-4.5004e-06
9.80073e-06
-5.54265e-07
-1.06601e-07
1.90981e-06
-2.86582e-06
1.07567e-05
1.32723e-05
-3.17559e-07
1.33652e-05
-1.20829e-07
1.34325e-05
-1.99502e-08
1.34579e-05
-1.96009e-08
1.34688e-05
-9.05063e-08
1.35266e-05
-2.08011e-07
1.36076e-05
-2.44171e-07
1.37197e-05
-2.83068e-07
1.38135e-05
-2.39332e-07
1.38903e-05
-1.85641e-07
1.39763e-05
-1.76803e-07
1.40387e-05
-1.05103e-07
1.41134e-05
-1.18581e-07
1.41813e-05
-1.01374e-07
1.42425e-05
-9.24664e-08
1.43215e-05
-1.26539e-07
1.43781e-05
-1.00928e-07
1.44499e-05
-1.35111e-07
1.45129e-05
-1.28745e-07
1.4571e-05
-1.28993e-07
1.46339e-05
-1.41641e-07
1.46849e-05
-1.23446e-07
1.47439e-05
-1.40335e-07
1.47884e-05
-1.17679e-07
1.48367e-05
-1.33045e-07
1.48738e-05
-1.15198e-07
1.49073e-05
-1.17152e-07
1.49392e-05
-1.11123e-07
1.49561e-05
-8.8688e-08
1.49821e-05
-9.08605e-08
1.49917e-05
-4.08554e-08
1.50187e-05
-2.87886e-08
1.504e-05
3.47777e-08
1.50769e-05
8.34468e-08
1.51315e-05
1.42551e-07
1.52008e-05
2.17282e-07
1.53115e-05
2.26163e-07
1.54115e-05
2.90293e-07
1.5565e-05
2.29335e-07
1.56837e-05
2.1583e-07
1.57962e-05
8.9721e-08
1.58667e-05
-4.09164e-08
1.58905e-05
-1.92516e-07
1.58951e-05
-3.60202e-07
1.586e-05
-4.76545e-07
1.58241e-05
-5.75185e-07
1.57804e-05
-6.09911e-07
1.57614e-05
-6.21329e-07
1.5743e-05
-5.82247e-07
1.5747e-05
-5.29762e-07
1.57595e-05
-4.51821e-07
1.57851e-05
-3.86107e-07
1.58224e-05
-2.68329e-07
1.58678e-05
-2.06609e-07
1.58998e-05
-8.52218e-08
1.59486e-05
-2.13262e-09
1.59964e-05
9.20104e-08
1.60601e-05
2.46943e-07
1.618e-05
3.43631e-07
1.63091e-05
5.12922e-07
1.64667e-05
6.13675e-07
1.66955e-05
7.52863e-07
1.69433e-05
8.186e-07
1.7262e-05
9.04003e-07
1.76201e-05
9.22151e-07
1.80226e-05
8.76369e-07
1.85065e-05
7.68538e-07
1.89444e-05
6.69134e-07
1.94017e-05
3.75665e-07
1.9947e-05
6.41559e-08
2.03836e-05
-1.87138e-07
2.08232e-05
-6.39858e-07
2.13641e-05
-1.03134e-06
2.1814e-05
-1.36774e-06
2.22553e-05
-1.76943e-06
2.28364e-05
-2.23616e-06
2.3321e-05
-2.56657e-06
2.39064e-05
-2.98352e-06
2.44848e-05
-3.48327e-06
2.49645e-05
-3.76143e-06
2.55797e-05
-4.2468e-06
2.61496e-05
-4.68566e-06
2.66218e-05
-5.05156e-06
2.72037e-05
-5.51891e-06
2.77191e-05
-5.86802e-06
2.81554e-05
-6.24997e-06
2.86175e-05
-6.51424e-06
2.91439e-05
-6.73444e-06
2.95469e-05
-7.02064e-06
2.97054e-05
-7.03992e-06
3.02257e-05
-7.05476e-06
3.04998e-05
-7.1025e-06
3.07533e-05
-7.28222e-06
3.11111e-05
-7.09014e-06
3.10974e-05
-7.01575e-06
3.15047e-05
-7.1766e-06
3.15168e-05
-6.90888e-06
3.09218e-05
-6.85738e-06
3.12443e-05
-7.13288e-06
3.10852e-05
-6.94928e-06
3.02517e-05
-6.53788e-06
2.95852e-05
-6.37339e-06
2.87103e-05
-6.02831e-06
2.80157e-05
-5.55001e-06
2.71886e-05
-4.84291e-06
2.61781e-05
-3.90168e-06
2.53874e-05
-3.19403e-06
2.4909e-05
-2.21531e-06
2.45344e-05
-7.9376e-07
2.40925e-05
2.50895e-07
2.4091e-05
1.15223e-06
2.43594e-05
2.02352e-06
2.45596e-05
2.80771e-06
2.48624e-05
3.30176e-06
2.51932e-05
3.54743e-06
2.57495e-05
3.34387e-06
2.64246e-05
3.17143e-06
2.70492e-05
2.86939e-06
2.7525e-05
2.23242e-06
2.78908e-05
1.28601e-06
2.78757e-05
6.14067e-07
2.80082e-05
-7.07969e-07
2.76701e-05
-1.94544e-06
2.74503e-05
-2.96868e-06
2.74278e-05
-4.76501e-06
2.66084e-05
-5.48367e-06
2.63637e-05
-6.61329e-06
2.61423e-05
-8.35734e-06
2.51535e-05
-8.48033e-06
2.45052e-05
-9.13226e-06
2.40521e-05
-1.00787e-05
2.37868e-05
-1.06526e-05
2.32273e-05
-1.15468e-05
2.22055e-05
-1.18289e-05
2.14686e-05
-1.25198e-05
2.04116e-05
-1.40757e-05
1.79924e-05
-1.38894e-05
1.47927e-05
-1.09142e-05
1.19662e-05
-8.68372e-06
1.02519e-05
-9.76716e-06
1.00643e-05
-1.47742e-05
1.03405e-05
-1.95204e-05
1.07089e-05
-2.27705e-05
1.13286e-05
-2.43722e-05
1.19503e-05
-2.42622e-05
1.26799e-05
-2.36804e-05
1.35353e-05
-2.29303e-05
1.43642e-05
-2.14658e-05
1.50132e-05
-1.91549e-05
1.58485e-05
-1.66514e-05
1.64569e-05
-1.37244e-05
1.70563e-05
-1.04298e-05
1.77595e-05
-7.28672e-06
1.82674e-05
-3.83896e-06
1.87048e-05
-2.6072e-07
1.88931e-05
3.08882e-06
1.8968e-05
5.92951e-06
1.89839e-05
8.87709e-06
1.84264e-05
1.10741e-05
1.84629e-05
1.24766e-05
1.77746e-05
1.45522e-05
1.73686e-05
1.46241e-05
1.75088e-05
1.54994e-05
1.71056e-05
1.63924e-05
1.84448e-05
1.63723e-05
1.90654e-05
1.88847e-05
1.86717e-05
1.96484e-05
1.92688e-05
1.93783e-05
1.9053e-05
2.04904e-05
1.83332e-05
1.99883e-05
1.7949e-05
1.90319e-05
1.7735e-05
1.78323e-05
1.83527e-05
1.73718e-05
1.85877e-05
1.85712e-05
1.8543e-05
1.88815e-05
1.81463e-05
1.90105e-05
1.71461e-05
1.78913e-05
1.63002e-05
1.63933e-05
1.55635e-05
1.49179e-05
1.52463e-05
1.37615e-05
1.46429e-05
1.38464e-05
1.37144e-05
1.3363e-05
1.34201e-05
1.24919e-05
1.18399e-05
1.25296e-05
1.14681e-05
1.066e-05
1.0345e-05
1.15962e-05
9.53406e-06
9.93426e-06
9.09829e-06
1.10899e-05
8.62381e-06
9.24966e-06
9.22009e-06
1.02305e-05
1.02685e-05
7.60896e-06
9.95692e-06
1.04867e-05
1.22207e-05
6.62897e-06
1.13454e-05
1.08047e-05
1.25569e-05
5.28946e-06
1.216e-05
9.07082e-06
1.16837e-05
3.41105e-06
1.25142e-05
4.58691e-06
1.21596e-05
-1.99708e-07
-1.62437e-08
1.40857e-05
2.02877e-05
-1.31438e-07
2.00557e-05
1.11203e-07
1.99095e-05
1.26222e-07
1.98753e-05
1.45882e-08
1.99077e-05
-1.22895e-07
1.99951e-05
-2.95387e-07
2.00379e-05
-2.86983e-07
2.00921e-05
-3.37219e-07
2.01271e-05
-2.74406e-07
2.01463e-05
-2.04857e-07
2.02056e-05
-2.36088e-07
2.02238e-05
-1.23274e-07
2.02749e-05
-1.69664e-07
2.03129e-05
-1.3937e-07
2.03345e-05
-1.14114e-07
2.03905e-05
-1.82486e-07
2.04033e-05
-1.13715e-07
2.04538e-05
-1.8566e-07
2.04818e-05
-1.56697e-07
2.05141e-05
-1.61297e-07
2.05532e-05
-1.80787e-07
2.05746e-05
-1.44824e-07
2.06141e-05
-1.7986e-07
2.06276e-05
-1.31191e-07
2.06564e-05
-1.61832e-07
2.06687e-05
-1.27536e-07
2.06745e-05
-1.22897e-07
2.06913e-05
-1.2792e-07
2.06816e-05
-7.89924e-08
2.06964e-05
-1.05665e-07
2.06868e-05
-3.12346e-08
2.06958e-05
-3.78145e-08
2.07057e-05
2.48578e-08
2.072e-05
6.9149e-08
2.07683e-05
9.4285e-08
2.07951e-05
1.90454e-07
2.08881e-05
1.33212e-07
2.09405e-05
2.37845e-07
2.10394e-05
1.30445e-07
2.11308e-05
1.24389e-07
2.11722e-05
4.83969e-08
2.124e-05
-1.08784e-07
2.12264e-05
-1.78895e-07
2.12232e-05
-3.57009e-07
2.12016e-05
-4.5488e-07
2.11439e-05
-5.17537e-07
2.11319e-05
-5.97859e-07
2.10919e-05
-5.81359e-07
2.10775e-05
-5.6788e-07
2.10876e-05
-5.39889e-07
2.10678e-05
-4.31952e-07
2.11037e-05
-4.22057e-07
2.11152e-05
-2.79797e-07
2.11404e-05
-2.31852e-07
2.11783e-05
-1.23124e-07
2.12067e-05
-3.05329e-08
2.12453e-05
5.34724e-08
2.13114e-05
1.80795e-07
2.1379e-05
2.76015e-07
2.1531e-05
3.60948e-07
2.16434e-05
5.01284e-07
2.18574e-05
5.38885e-07
2.20729e-05
6.03099e-07
2.23248e-05
6.52062e-07
2.26792e-05
5.67736e-07
2.29973e-05
5.5831e-07
2.33656e-05
4.00274e-07
2.38537e-05
1.80967e-07
2.41966e-05
3.27751e-08
2.46282e-05
-3.67418e-07
2.51239e-05
-6.82878e-07
2.54815e-05
-9.97444e-07
2.59236e-05
-1.4734e-06
2.63994e-05
-1.84353e-06
2.6773e-05
-2.14308e-06
2.72909e-05
-2.75404e-06
2.77366e-05
-3.01225e-06
2.81366e-05
-3.38355e-06
2.86515e-05
-3.99816e-06
2.90383e-05
-4.14819e-06
2.94882e-05
-4.69677e-06
2.99769e-05
-5.17433e-06
3.02108e-05
-5.28549e-06
3.06989e-05
-6.007e-06
3.09859e-05
-6.15501e-06
3.11676e-05
-6.43164e-06
3.15143e-05
-6.86095e-06
3.16439e-05
-6.86402e-06
3.1788e-05
-7.16475e-06
3.18448e-05
-7.09672e-06
3.20574e-05
-7.2674e-06
3.22611e-05
-7.30617e-06
3.19887e-05
-7.00987e-06
3.2169e-05
-7.27045e-06
3.22634e-05
-7.11008e-06
3.18412e-05
-6.75438e-06
3.17747e-05
-6.84238e-06
3.17971e-05
-6.87982e-06
3.1385e-05
-6.72079e-06
3.05861e-05
-6.15033e-06
3.00647e-05
-6.01651e-06
2.95798e-05
-5.88847e-06
2.8919e-05
-5.36749e-06
2.79856e-05
-4.61667e-06
2.69842e-05
-3.84145e-06
2.62405e-05
-3.15798e-06
2.5418e-05
-2.37161e-06
2.47405e-05
-1.5378e-06
2.43421e-05
-3.95338e-07
2.39484e-05
6.44646e-07
2.37982e-05
1.30241e-06
2.38975e-05
1.92422e-06
2.42743e-05
2.43083e-06
2.46847e-05
2.89137e-06
2.50289e-05
3.20329e-06
2.53134e-05
3.05939e-06
2.57633e-05
2.72153e-06
2.62204e-05
2.41227e-06
2.67024e-05
1.75041e-06
2.70589e-05
9.29486e-07
2.73816e-05
2.91353e-07
2.75914e-05
-9.17773e-07
2.73322e-05
-1.68624e-06
2.74184e-05
-3.05488e-06
2.70696e-05
-4.41614e-06
2.65267e-05
-4.94076e-06
2.65464e-05
-6.63305e-06
2.57911e-05
-7.60207e-06
2.4986e-05
-7.67522e-06
2.47739e-05
-8.92013e-06
2.43995e-05
-9.70437e-06
2.37181e-05
-9.97115e-06
2.26688e-05
-1.04974e-05
2.17117e-05
-1.08719e-05
2.08415e-05
-1.16496e-05
1.926e-05
-1.24942e-05
1.65263e-05
-1.11558e-05
1.30739e-05
-7.46183e-06
1.02807e-05
-5.89044e-06
8.98867e-06
-8.47517e-06
8.63895e-06
-1.44245e-05
8.29194e-06
-1.91734e-05
8.65422e-06
-2.31328e-05
9.36057e-06
-2.50786e-05
1.00699e-05
-2.49715e-05
1.0854e-05
-2.44645e-05
1.16322e-05
-2.37084e-05
1.23248e-05
-2.21584e-05
1.30405e-05
-1.98706e-05
1.36151e-05
-1.72259e-05
1.41767e-05
-1.4286e-05
1.47965e-05
-1.10496e-05
1.52776e-05
-7.76778e-06
1.56912e-05
-4.2526e-06
1.61243e-05
-6.93879e-07
1.65499e-05
2.66325e-06
1.66146e-05
5.86486e-06
1.68586e-05
8.63306e-06
1.66867e-05
1.12459e-05
1.6426e-05
1.27374e-05
1.64648e-05
1.45134e-05
1.5618e-05
1.54709e-05
1.58952e-05
1.52221e-05
1.56854e-05
1.66022e-05
1.59019e-05
1.61557e-05
1.77806e-05
1.70061e-05
1.76291e-05
1.98e-05
1.76262e-05
1.93812e-05
1.84512e-05
1.96654e-05
1.81582e-05
2.02814e-05
1.7815e-05
1.9375e-05
1.71e-05
1.85474e-05
1.73614e-05
1.71103e-05
1.80632e-05
1.78693e-05
1.82563e-05
1.86884e-05
1.84769e-05
1.87899e-05
1.79243e-05
1.84438e-05
1.74591e-05
1.68585e-05
1.64831e-05
1.58938e-05
1.58215e-05
1.44232e-05
1.58222e-05
1.38457e-05
1.48444e-05
1.43408e-05
1.47084e-05
1.26279e-05
1.37978e-05
1.34403e-05
1.27063e-05
1.17515e-05
1.21334e-05
1.21691e-05
1.17881e-05
1.02796e-05
1.13799e-05
1.14982e-05
1.30073e-05
7.62226e-06
1.22048e-05
1.1033e-05
1.34247e-05
6.38909e-06
1.26546e-05
1.12567e-05
1.30552e-05
6.22841e-06
1.33086e-05
1.05514e-05
1.26048e-05
5.99323e-06
1.37753e-05
7.90033e-06
1.37002e-05
3.48618e-06
1.52227e-05
3.06444e-06
1.54849e-05
-4.61924e-07
-1.20348e-06
1.66721e-05
2.5196e-05
-1.38073e-07
2.5257e-05
5.01606e-08
2.53487e-05
3.44918e-08
2.54219e-05
-5.86113e-08
2.5479e-05
-1.80005e-07
2.55224e-05
-3.387e-07
2.55231e-05
-2.87701e-07
2.55283e-05
-3.42484e-07
2.55244e-05
-2.70431e-07
2.55192e-05
-1.99735e-07
2.55501e-05
-2.66921e-07
2.55444e-05
-1.17571e-07
2.55796e-05
-2.04936e-07
2.56057e-05
-1.6543e-07
2.56147e-05
-1.23116e-07
2.56663e-05
-2.34115e-07
2.56592e-05
-1.06588e-07
2.56949e-05
-2.21332e-07
2.57043e-05
-1.66156e-07
2.57107e-05
-1.67704e-07
2.57347e-05
-2.04769e-07
2.57341e-05
-1.44177e-07
2.57525e-05
-1.98295e-07
2.57575e-05
-1.36173e-07
2.57636e-05
-1.6795e-07
2.57718e-05
-1.35765e-07
2.57636e-05
-1.14613e-07
2.57678e-05
-1.32183e-07
2.57569e-05
-6.80802e-08
2.57497e-05
-9.84037e-08
2.57488e-05
-3.03354e-08
2.57418e-05
-3.08279e-08
2.57474e-05
1.92095e-08
2.57692e-05
4.74131e-08
2.57712e-05
9.22766e-08
2.58385e-05
1.23068e-07
2.5865e-05
1.06781e-07
2.59368e-05
1.6604e-07
2.60002e-05
6.69977e-08
2.60402e-05
8.44608e-08
2.61116e-05
-2.30235e-08
2.61013e-05
-9.85173e-08
2.6131e-05
-2.08558e-07
2.60882e-05
-3.14273e-07
2.60648e-05
-4.314e-07
2.60264e-05
-4.79143e-07
2.59711e-05
-5.426e-07
2.59567e-05
-5.6696e-07
2.59071e-05
-5.1831e-07
2.59088e-05
-5.41538e-07
2.58876e-05
-4.10735e-07
2.58979e-05
-4.32419e-07
2.59091e-05
-2.90978e-07
2.59298e-05
-2.52586e-07
2.59535e-05
-1.46756e-07
2.59887e-05
-6.57925e-08
2.60238e-05
1.83802e-08
2.60943e-05
1.10297e-07
2.61633e-05
2.07023e-07
2.62639e-05
2.60343e-07
2.64346e-05
3.30567e-07
2.65588e-05
4.14768e-07
2.67925e-05
3.69393e-07
2.70377e-05
4.06811e-07
2.72632e-05
3.42242e-07
2.7608e-05
2.1349e-07
2.78909e-05
1.17377e-07
2.82202e-05
-1.48342e-07
2.86303e-05
-3.77291e-07
2.89184e-05
-6.55563e-07
2.92953e-05
-1.05975e-06
2.96755e-05
-1.37762e-06
2.99335e-05
-1.73139e-06
3.03311e-05
-2.24118e-06
3.06912e-05
-2.50311e-06
3.08773e-05
-2.94015e-06
3.13436e-05
-3.47852e-06
3.15794e-05
-3.61943e-06
3.18063e-05
-4.22503e-06
3.22309e-05
-4.57273e-06
3.23155e-05
-4.78141e-06
3.25508e-05
-5.40966e-06
3.27867e-05
-5.52135e-06
3.27864e-05
-6.00668e-06
3.29204e-05
-6.289e-06
3.29425e-05
-6.45379e-06
3.29899e-05
-6.90829e-06
3.29277e-05
-6.80188e-06
3.2801e-05
-7.03799e-06
3.29563e-05
-7.25202e-06
3.27047e-05
-7.01584e-06
3.24523e-05
-7.05372e-06
3.2576e-05
-7.13357e-06
3.23594e-05
-7.05393e-06
3.18711e-05
-6.62179e-06
3.19083e-05
-6.79154e-06
3.17627e-05
-6.69677e-06
3.11359e-05
-6.25303e-06
3.06397e-05
-6.22458e-06
3.03317e-05
-5.84228e-06
2.99802e-05
-5.66505e-06
2.92041e-05
-5.1124e-06
2.83474e-05
-4.51079e-06
2.76103e-05
-3.87954e-06