/*--------------------------------*- C++ -*----------------------------------*\
| =========                 |                                                 |
| \\      /  F ield         | OpenFOAM: The Open Source CFD Toolbox           |
|  \\    /   O peration     | Version:  2.4.0                                 |
|   \\  /    A nd           | Web:      www.OpenFOAM.org                      |
|    \\/     M anipulation  |                                                 |
\*---------------------------------------------------------------------------*/
FoamFile
{
    version     2.0;
    format      ascii;
    class       volSymmTensorField;
    location    "1.18";
    object      UPrime2Mean;
}
// * * * * * * * * * * * * * * * * * * * * * * * * * * * * * * * * * * * * * //

dimensions      [0 2 -2 0 0 0 0];

internalField   nonuniform List<symmTensor> 
8800
(
(0.0014414 8.26337e-05 0 0.000162661 0 0)
(0.0272637 -0.00106206 0 6.03595e-05 0 0)
(0.0534263 -9.3624e-05 0 1.44268e-05 0 0)
(0.0673587 0.000153783 0 6.03516e-06 0 0)
(0.0763656 0.000111156 0 4.59238e-06 0 0)
(0.0854263 6.17998e-05 0 5.3084e-06 0 0)
(0.0897203 2.56051e-05 0 6.21183e-06 0 0)
(0.0947476 -3.61998e-05 0 7.98048e-06 0 0)
(0.0974485 -4.75626e-05 0 8.65789e-06 0 0)
(0.100449 -9.33143e-05 0 1.05503e-05 0 0)
(0.10275 -9.08172e-05 0 1.09458e-05 0 0)
(0.104929 -0.000144119 0 1.31985e-05 0 0)
(0.107121 -0.000142218 0 1.32522e-05 0 0)
(0.109819 -0.000197459 0 1.54775e-05 0 0)
(0.112799 -0.000266155 0 1.60027e-05 0 0)
(0.116843 -0.000198243 0 1.84349e-05 0 0)
(0.1268 -0.000984962 0 2.69522e-05 0 0)
(0.128259 0.00143429 0 8.0225e-05 0 0)
(0.205004 -0.014389 0 0.00148015 0 0)
(0.216401 0.0245159 0 0.00482093 0 0)
(0.00824625 0.00233866 0 0.000982414 0 0)
(0.00166976 -0.00097041 0 0.00129549 0 0)
(0.0129493 -0.00168819 0 0.000539175 0 0)
(0.0222043 -0.00184791 0 0.000213108 0 0)
(0.0329102 -0.00167776 0 0.00012441 0 0)
(0.0500531 -0.00157854 0 0.00010067 0 0)
(0.0627553 -0.00172301 0 0.000105987 0 0)
(0.0770426 -0.00130957 0 7.96529e-05 0 0)
(0.0924875 -0.00165688 0 9.58942e-05 0 0)
(0.0986763 -0.00133362 0 8.09753e-05 0 0)
(0.118059 -0.00172617 0 0.000101898 0 0)
(0.117539 -0.00162097 0 9.97065e-05 0 0)
(0.140211 -0.00210017 0 0.000130416 0 0)
(0.136505 -0.00210559 0 0.000132539 0 0)
(0.163389 -0.00278158 0 0.000186883 0 0)
(0.157628 -0.00358824 0 0.000226874 0 0)
(0.198788 -0.00289837 0 0.000306071 0 0)
(0.191928 -0.010037 0 0.000966323 0 0)
(0.293164 -0.00512928 0 0.00073927 0 0)
(0.319849 -0.0492006 0 0.0169787 0 0)
(0.0162664 0.00126767 0 0.000608774 0 0)
(0.0131348 0.000354515 0 0.00146498 0 0)
(0.0344743 0.000251363 0 0.000928019 0 0)
(0.0371735 -0.000895363 0 0.000517422 0 0)
(0.0523144 -0.00102818 0 0.00040946 0 0)
(0.0607946 -0.00178391 0 0.00039556 0 0)
(0.0794297 -0.00320513 0 0.000427761 0 0)
(0.0861342 -0.00239342 0 0.000310034 0 0)
(0.119245 -0.00459382 0 0.000369214 0 0)
(0.112805 -0.00322675 0 0.000257006 0 0)
(0.163562 -0.00554045 0 0.000343864 0 0)
(0.1397 -0.00423214 0 0.000289876 0 0)
(0.208638 -0.00708093 0 0.000456974 0 0)
(0.16488 -0.00525561 0 0.000409943 0 0)
(0.258792 -0.0098952 0 0.000760347 0 0)
(0.184681 -0.00640529 0 0.000681535 0 0)
(0.324033 -0.0139644 0 0.00136212 0 0)
(0.207753 -0.00879075 0 0.00154746 0 0)
(0.42765 -0.0234493 0 0.00403367 0 0)
(0.275723 -0.0370066 0 0.0192501 0 0)
(0.0677265 0.000107583 0 0.000422812 0 0)
(0.0746427 -0.000165448 0 0.00110731 0 0)
(0.119623 -0.000656217 0 0.000888687 0 0)
(0.122259 -0.001751 0 0.000572015 0 0)
(0.155887 -0.00116446 0 0.000542115 0 0)
(0.156278 -0.00230205 0 0.000612725 0 0)
(0.195258 -0.00436072 0 0.000756428 0 0)
(0.184297 -0.00256373 0 0.000609961 0 0)
(0.243951 -0.00790156 0 0.000819448 0 0)
(0.209362 -0.0045597 0 0.000561225 0 0)
(0.299191 -0.0106451 0 0.000802207 0 0)
(0.233549 -0.00709925 0 0.000640296 0 0)
(0.358696 -0.0140825 0 0.00104237 0 0)
(0.256164 -0.00933769 0 0.000876957 0 0)
(0.425067 -0.0195732 0 0.00167743 0 0)
(0.270918 -0.0109912 0 0.00136691 0 0)
(0.505088 -0.0263466 0 0.00268235 0 0)
(0.275427 -0.0127368 0 0.00306302 0 0)
(0.617773 -0.0358257 0 0.00608075 0 0)
(0.277367 -0.0256072 0 0.0209083 0 0)
(0.263057 -0.00119163 0 0.00042368 0 0)
(0.24654 -0.0012118 0 0.000949613 0 0)
(0.290694 -0.00457708 0 0.00102031 0 0)
(0.264529 -0.00491334 0 0.000781942 0 0)
(0.305035 -0.00486581 0 0.000765093 0 0)
(0.279275 -0.00630901 0 0.000850418 0 0)
(0.32908 -0.00847745 0 0.00115001 0 0)
(0.293074 -0.00576486 0 0.000933517 0 0)
(0.361733 -0.0131819 0 0.00145675 0 0)
(0.307589 -0.00782155 0 0.00102822 0 0)
(0.397661 -0.0168978 0 0.00158212 0 0)
(0.323339 -0.0111243 0 0.00120194 0 0)
(0.433924 -0.021524 0 0.00201811 0 0)
(0.340393 -0.0140989 0 0.0015363 0 0)
(0.471158 -0.0287357 0 0.0030006 0 0)
(0.354472 -0.0166523 0 0.00217555 0 0)
(0.513774 -0.037463 0 0.0045836 0 0)
(0.360289 -0.0187946 0 0.00448539 0 0)
(0.572559 -0.0472154 0 0.00932718 0 0)
(0.345776 -0.0203452 0 0.0267645 0 0)
(0.321557 -0.00654998 0 0.00135002 0 0)
(0.261506 -0.00387081 0 0.00189308 0 0)
(0.261353 -0.0103027 0 0.00236247 0 0)
(0.215505 -0.00690631 0 0.00160959 0 0)
(0.232813 -0.00985855 0 0.00205535 0 0)
(0.206254 -0.00879395 0 0.00180947 0 0)
(0.219636 -0.0114676 0 0.00248763 0 0)
(0.20048 -0.00834871 0 0.00187278 0 0)
(0.214096 -0.0142187 0 0.00303033 0 0)
(0.201931 -0.0101049 0 0.00206331 0 0)
(0.212287 -0.0165242 0 0.00341653 0 0)
(0.209422 -0.0130275 0 0.00241449 0 0)
(0.210516 -0.0190402 0 0.0040698 0 0)
(0.222251 -0.0158129 0 0.00293265 0 0)
(0.207571 -0.0225288 0 0.00554569 0 0)
(0.240117 -0.0188335 0 0.00374773 0 0)
(0.202455 -0.0259389 0 0.00811451 0 0)
(0.26267 -0.0219782 0 0.00637842 0 0)
(0.19659 -0.02678 0 0.0158457 0 0)
(0.282995 -0.0233452 0 0.0247425 0 0)
(0.137573 -0.00866317 0 0.00284513 0 0)
(0.115874 -0.00850058 0 0.00400776 0 0)
(0.105558 -0.00886134 0 0.00385471 0 0)
(0.099891 -0.00932556 0 0.00331105 0 0)
(0.0998936 -0.00869344 0 0.00392308 0 0)
(0.1034 -0.00948758 0 0.00368621 0 0)
(0.0976738 -0.0085723 0 0.00412019 0 0)
(0.106892 -0.00931084 0 0.00377203 0 0)
(0.0975264 -0.00872655 0 0.00459478 0 0)
(0.115152 -0.0100313 0 0.00406277 0 0)
(0.0970884 -0.00901026 0 0.00511968 0 0)
(0.125576 -0.0111212 0 0.00460355 0 0)
(0.0998628 -0.0087997 0 0.00593081 0 0)
(0.137372 -0.0122204 0 0.00540688 0 0)
(0.104199 -0.00731112 0 0.007566 0 0)
(0.152281 -0.0134068 0 0.0066911 0 0)
(0.108221 -0.00359958 0 0.0105129 0 0)
(0.173147 -0.0139826 0 0.0106585 0 0)
(0.113352 0.00633001 0 0.0188638 0 0)
(0.198758 -0.0117303 0 0.0326228 0 0)
(0.141035 -0.00863372 0 0.00373124 0 0)
(0.166048 -0.0143511 0 0.0072978 0 0)
(0.134664 -0.0070634 0 0.00547178 0 0)
(0.167883 -0.0113016 0 0.00497219 0 0)
(0.158055 -0.00811304 0 0.00552593 0 0)
(0.170523 -0.00937889 0 0.00571861 0 0)
(0.172761 -0.00626688 0 0.00532283 0 0)
(0.178033 -0.00912888 0 0.00582157 0 0)
(0.182949 -0.00469035 0 0.0058585 0 0)
(0.187331 -0.0084656 0 0.00616584 0 0)
(0.194991 -0.00332114 0 0.0064206 0 0)
(0.194604 -0.00742634 0 0.00684029 0 0)
(0.212923 -0.000796384 0 0.00719661 0 0)
(0.203751 -0.006729 0 0.00792916 0 0)
(0.228727 0.00386514 0 0.00870373 0 0)
(0.216344 -0.0052782 0 0.00944069 0 0)
(0.247046 0.0111226 0 0.0112824 0 0)
(0.232445 -0.00194215 0 0.0143358 0 0)
(0.267263 0.0255449 0 0.0189568 0 0)
(0.252016 0.00716365 0 0.0357597 0 0)
(0.255114 -0.00475289 0 0.00373368 0 0)
(0.276105 -0.0100028 0 0.00955325 0 0)
(0.245791 -0.00205886 0 0.00603054 0 0)
(0.24803 -0.00535181 0 0.00574719 0 0)
(0.272778 -0.00275009 0 0.00597917 0 0)
(0.236779 -0.00321808 0 0.00639404 0 0)
(0.300561 -0.000345919 0 0.00548838 0 0)
(0.233496 -0.00235248 0 0.00655872 0 0)
(0.31547 0.0028042 0 0.00589035 0 0)
(0.235913 -0.00132791 0 0.00704303 0 0)
(0.328495 0.00543882 0 0.0064078 0 0)
(0.242235 0.00097091 0 0.00754901 0 0)
(0.341835 0.00917473 0 0.00717353 0 0)
(0.252176 0.00299359 0 0.00860231 0 0)
(0.355773 0.0145685 0 0.00811999 0 0)
(0.26528 0.00656108 0 0.00991459 0 0)
(0.368425 0.0225473 0 0.00975699 0 0)
(0.28243 0.0131415 0 0.0140273 0 0)
(0.381648 0.0372677 0 0.0156865 0 0)
(0.311293 0.0274209 0 0.0286949 0 0)
(0.282009 0.000129 0 0.00308567 0 0)
(0.295926 0.000352097 0 0.0083794 0 0)
(0.27829 0.0022329 0 0.00511019 0 0)
(0.251678 0.00268916 0 0.00528528 0 0)
(0.294103 0.00309299 0 0.00500874 0 0)
(0.2395 0.00349643 0 0.0057791 0 0)
(0.304255 0.00500144 0 0.00468192 0 0)
(0.23693 0.005056 0 0.00597187 0 0)
(0.303409 0.00803937 0 0.00488788 0 0)
(0.24053 0.00616259 0 0.00637733 0 0)
(0.305957 0.010038 0 0.00538379 0 0)
(0.250959 0.00862469 0 0.0066582 0 0)
(0.310418 0.0131857 0 0.00580704 0 0)
(0.265151 0.011068 0 0.0074033 0 0)
(0.312848 0.0176202 0 0.00625983 0 0)
(0.284127 0.0152558 0 0.00834437 0 0)
(0.315104 0.02382 0 0.00721901 0 0)
(0.310136 0.0235136 0 0.0111333 0 0)
(0.315485 0.0352165 0 0.0114467 0 0)
(0.359507 0.0390849 0 0.0217154 0 0)
(0.17917 0.00240846 0 0.00251814 0 0)
(0.190429 0.00510406 0 0.00622087 0 0)
(0.165498 0.00458027 0 0.00408016 0 0)
(0.173819 0.00682995 0 0.00387769 0 0)
(0.171811 0.00580481 0 0.00416867 0 0)
(0.169922 0.00703525 0 0.00466453 0 0)
(0.17516 0.00672856 0 0.0039749 0 0)
(0.175346 0.00910189 0 0.00476556 0 0)
(0.171244 0.00874358 0 0.00403035 0 0)
(0.184104 0.0108397 0 0.00499741 0 0)
(0.171133 0.0100957 0 0.00434875 0 0)
(0.198214 0.0128427 0 0.00514516 0 0)
(0.173615 0.0123205 0 0.00452785 0 0)
(0.213875 0.0155199 0 0.00551568 0 0)
(0.175144 0.0149626 0 0.00472083 0 0)
(0.234066 0.0195485 0 0.00601022 0 0)
(0.178014 0.0183082 0 0.00525787 0 0)
(0.26466 0.0268853 0 0.00754972 0 0)
(0.179544 0.0252012 0 0.00798027 0 0)
(0.32213 0.0399985 0 0.014311 0 0)
(0.071535 0.00231922 0 0.00216044 0 0)
(0.0758293 0.00460424 0 0.00481258 0 0)
(0.0614683 0.00370732 0 0.00337912 0 0)
(0.0798457 0.00607288 0 0.0031623 0 0)
(0.0641502 0.00439227 0 0.00345576 0 0)
(0.0838164 0.00619136 0 0.00374336 0 0)
(0.0675491 0.00428774 0 0.00337409 0 0)
(0.0913902 0.00775719 0 0.00388062 0 0)
(0.0674057 0.00509802 0 0.00329638 0 0)
(0.101262 0.00915728 0 0.00387905 0 0)
(0.0672497 0.00557384 0 0.00343891 0 0)
(0.113641 0.0101827 0 0.00384741 0 0)
(0.0697624 0.00629888 0 0.00347065 0 0)
(0.127314 0.0115994 0 0.00390377 0 0)
(0.0718122 0.00680813 0 0.0034328 0 0)
(0.144303 0.0136171 0 0.00397789 0 0)
(0.0735303 0.00788888 0 0.00359739 0 0)
(0.169267 0.017473 0 0.0045849 0 0)
(0.0774777 0.0121867 0 0.00512175 0 0)
(0.213181 0.0242499 0 0.00878253 0 0)
(0.0215952 0.000672144 0 0.00173996 0 0)
(0.0200484 0.0014685 0 0.0036521 0 0)
(0.016013 0.000931323 0 0.00284159 0 0)
(0.0254351 0.00268436 0 0.00248514 0 0)
(0.0189947 0.00134429 0 0.00268993 0 0)
(0.0299253 0.00264989 0 0.00271746 0 0)
(0.0213996 0.000941697 0 0.00267964 0 0)
(0.036073 0.00313696 0 0.00289431 0 0)
(0.0216706 0.00109148 0 0.00253882 0 0)
(0.0424093 0.00369195 0 0.00278254 0 0)
(0.0226205 0.001135 0 0.00257244 0 0)
(0.0490609 0.00375711 0 0.0026997 0 0)
(0.0253587 0.0012033 0 0.00258341 0 0)
(0.056337 0.00394548 0 0.00253687 0 0)
(0.028549 0.00139795 0 0.00233264 0 0)
(0.0646296 0.00457032 0 0.00239388 0 0)
(0.0332946 0.00239617 0 0.00232349 0 0)
(0.076681 0.00676517 0 0.00265187 0 0)
(0.0436226 0.00661866 0 0.00334872 0 0)
(0.0999304 0.0124551 0 0.00574804 0 0)
(0.00849099 -0.000547058 0 0.00135593 0 0)
(0.00364633 -0.00106446 0 0.00293388 0 0)
(0.0043065 -0.00135565 0 0.0024942 0 0)
(0.00672718 -0.000206011 0 0.00183969 0 0)
(0.00676599 -0.000427575 0 0.00201602 0 0)
(0.00998031 -0.000511221 0 0.00199601 0 0)
(0.0103426 -0.000870225 0 0.00210137 0 0)
(0.0135937 -0.000599779 0 0.00213822 0 0)
(0.0126168 -0.000900506 0 0.00190958 0 0)
(0.0169213 -0.000250927 0 0.00196186 0 0)
(0.0152125 -0.000799336 0 0.00187681 0 0)
(0.0205698 -0.000266943 0 0.00184277 0 0)
(0.0188296 -0.000744476 0 0.00182087 0 0)
(0.0250535 -0.000316784 0 0.00167808 0 0)
(0.0232874 -0.000418355 0 0.00152665 0 0)
(0.0305354 0.00026961 0 0.00142386 0 0)
(0.0296585 0.000689969 0 0.00138613 0 0)
(0.0397055 0.00226225 0 0.00156679 0 0)
(0.0423323 0.00454073 0 0.00205659 0 0)
(0.0590686 0.00892808 0 0.00387456 0 0)
(0.00887667 -0.000677107 0 0.000994009 0 0)
(0.00268475 -0.00118947 0 0.00233107 0 0)
(0.00377981 -0.00156789 0 0.0020644 0 0)
(0.00483609 -0.00099987 0 0.00141942 0 0)
(0.00725565 -0.000710245 0 0.00153305 0 0)
(0.00774086 -0.000976599 0 0.00152401 0 0)
(0.0104586 -0.00114828 0 0.00168865 0 0)
(0.0107784 -0.00146562 0 0.00173946 0 0)
(0.0135838 -0.00130721 0 0.00158334 0 0)
(0.0137037 -0.00104141 0 0.00151695 0 0)
(0.0165525 -0.000966056 0 0.00140492 0 0)
(0.0166697 -0.000895054 0 0.00134818 0 0)
(0.0199045 -0.000868789 0 0.00130864 0 0)
(0.0203537 -0.00102426 0 0.00118606 0 0)
(0.0237198 -0.000628944 0 0.00103753 0 0)
(0.0246714 -0.000545546 0 0.000921263 0 0)
(0.0289192 0.000376022 0 0.000843833 0 0)
(0.0320993 0.00105831 0 0.000905197 0 0)
(0.0396196 0.00346155 0 0.00124237 0 0)
(0.0490477 0.00643455 0 0.00230298 0 0)
(0.01027 -0.000608216 0 0.000607343 0 0)
(0.00396436 -0.000315895 0 0.00160736 0 0)
(0.00425815 -0.000892529 0 0.00147794 0 0)
(0.00560534 -0.000683267 0 0.00100417 0 0)
(0.00892023 -0.000594716 0 0.00116972 0 0)
(0.00874959 -0.000620018 0 0.00111275 0 0)
(0.01187 -0.000861993 0 0.00120472 0 0)
(0.0107355 -0.000878963 0 0.0012603 0 0)
(0.0133974 -0.000955039 0 0.00117676 0 0)
(0.0116016 -0.000527785 0 0.00108758 0 0)
(0.0141585 -0.000584242 0 0.000964215 0 0)
(0.0118449 -0.000314786 0 0.000888693 0 0)
(0.0143112 -0.000385382 0 0.000810632 0 0)
(0.0117013 -0.000340214 0 0.000756846 0 0)
(0.0140052 -0.000224912 0 0.000632233 0 0)
(0.0118078 -0.000141342 0 0.000586113 0 0)
(0.0145031 0.000420101 0 0.000482117 0 0)
(0.0140095 0.000756997 0 0.000538399 0 0)
(0.0190045 0.00228178 0 0.000726996 0 0)
(0.0238343 0.00370666 0 0.00130085 0 0)
(0.00930818 -0.000925614 0 0.000436732 0 0)
(0.00344774 -0.000201995 0 0.00129927 0 0)
(0.00405897 -0.00056376 0 0.00107313 0 0)
(0.00592041 -0.00052966 0 0.000662618 0 0)
(0.00829167 -0.000480048 0 0.000754904 0 0)
(0.00712226 -0.000346972 0 0.000756413 0 0)
(0.00791991 -0.000308698 0 0.000782813 0 0)
(0.00593871 0.000106708 0 0.000764034 0 0)
(0.00573786 0.000147292 0 0.000675414 0 0)
(0.00452611 0.000602938 0 0.000579529 0 0)
(0.00408298 0.000489013 0 0.000497533 0 0)
(0.00407873 0.000810815 0 0.00045191 0 0)
(0.00338337 0.000615859 0 0.000398138 0 0)
(0.00464311 0.00085817 0 0.000376696 0 0)
(0.00376538 0.000540734 0 0.000306137 0 0)
(0.00612791 0.00082121 0 0.000303989 0 0)
(0.00551018 0.000451556 0 0.000257874 0 0)
(0.00853824 0.000932707 0 0.0002908 0 0)
(0.00947376 0.000859236 0 0.000476009 0 0)
(0.0137387 0.00188344 0 0.000659178 0 0)
(0.00818388 -0.00167577 0 0.000588362 0 0)
(0.00184009 -0.000612651 0 0.00148209 0 0)
(0.00198566 -0.000200299 0 0.000945695 0 0)
(0.00260175 5.84127e-05 0 0.000522345 0 0)
(0.00277332 0.000487736 0 0.000458923 0 0)
(0.00310711 0.000921915 0 0.000416998 0 0)
(0.00508523 0.00115644 0 0.000385038 0 0)
(0.00925444 0.00140087 0 0.00033715 0 0)
(0.0118996 0.00129256 0 0.000274289 0 0)
(0.0185614 0.00135501 0 0.000221027 0 0)
(0.0199424 0.00113358 0 0.000184102 0 0)
(0.0281985 0.00120025 0 0.000167596 0 0)
(0.0275666 0.00094598 0 0.00015353 0 0)
(0.0371189 0.00106557 0 0.000144997 0 0)
(0.0346628 0.000608759 0 0.000123574 0 0)
(0.0443473 0.000850625 0 0.000123693 0 0)
(0.0408084 -1.23635e-05 0 0.000115612 0 0)
(0.0479315 0.000645817 0 0.000138645 0 0)
(0.0452026 -0.000618318 0 0.000225993 0 0)
(0.0468617 0.00120828 0 0.000432354 0 0)
(0.00759207 -0.00242418 0 0.000972142 0 0)
(0.00105299 0.000896488 0 0.00128817 0 0)
(0.00695263 0.00180575 0 0.000536509 0 0)
(0.0138765 0.0015823 0 0.000210685 0 0)
(0.0219664 0.00149009 0 0.000130456 0 0)
(0.0325837 0.00134613 0 0.000100856 0 0)
(0.0422266 0.00111244 0 8.74111e-05 0 0)
(0.053082 0.000934167 0 7.48506e-05 0 0)
(0.0594947 0.000729798 0 6.48319e-05 0 0)
(0.0689801 0.000650457 0 5.76242e-05 0 0)
(0.0719618 0.000519195 0 5.39867e-05 0 0)
(0.0809554 0.000529344 0 5.17561e-05 0 0)
(0.0811897 0.000399806 0 5.06079e-05 0 0)
(0.0903788 0.000451095 0 4.63786e-05 0 0)
(0.0882764 0.000197734 0 4.21769e-05 0 0)
(0.0968075 0.000272246 0 3.9256e-05 0 0)
(0.0925553 -0.000268319 0 4.03977e-05 0 0)
(0.0969364 8.57184e-05 0 4.46146e-05 0 0)
(0.0933851 -0.00100982 0 7.82559e-05 0 0)
(0.0866526 0.000477136 0 0.000248232 0 0)
(0.00142197 -8.5818e-05 0 0.000162127 0 0)
(0.0272756 0.00106281 0 5.93041e-05 0 0)
(0.0532739 9.59362e-05 0 1.40108e-05 0 0)
(0.066342 -0.000166117 0 5.58554e-06 0 0)
(0.0760021 -0.000127129 0 3.93383e-06 0 0)
(0.0835029 -9.81608e-05 0 4.14543e-06 0 0)
(0.0882111 -6.8714e-05 0 4.83054e-06 0 0)
(0.0923312 -3.45283e-05 0 5.00617e-06 0 0)
(0.0945621 -2.38873e-05 0 5.46041e-06 0 0)
(0.0974957 -5.7438e-06 0 5.42205e-06 0 0)
(0.098445 -1.23104e-05 0 5.59437e-06 0 0)
(0.100902 3.47396e-06 0 5.26764e-06 0 0)
(0.101042 -1.54537e-05 0 5.07831e-06 0 0)
(0.103332 -1.9445e-07 0 4.40492e-06 0 0)
(0.102589 -4.52982e-05 0 4.0659e-06 0 0)
(0.104216 -3.88965e-05 0 3.42013e-06 0 0)
(0.101913 -0.000125564 0 3.32096e-06 0 0)
(0.101276 -0.000103883 0 3.30403e-06 0 0)
(0.0983152 -0.000367617 0 5.27438e-06 0 0)
(0.0889062 0.000488067 0 3.40368e-05 0 0)
(0.410062 -0.202318 0 0.125597 0 0)
(0.455272 -0.240289 0 0.177153 0 0)
(0.460686 -0.229757 0 0.211503 0 0)
(0.485037 -0.20172 0 0.235595 0 0)
(0.490089 -0.168894 0 0.249491 0 0)
(0.570688 -0.148477 0 0.259287 0 0)
(0.612458 -0.141667 0 0.268773 0 0)
(0.748562 -0.157287 0 0.282851 0 0)
(0.814325 -0.17821 0 0.299372 0 0)
(0.958143 -0.207773 0 0.316332 0 0)
(1.00157 -0.227623 0 0.334528 0 0)
(1.13361 -0.254414 0 0.35738 0 0)
(1.1584 -0.265306 0 0.381218 0 0)
(1.29185 -0.290131 0 0.402858 0 0)
(1.31771 -0.303447 0 0.417068 0 0)
(1.46237 -0.338564 0 0.428539 0 0)
(1.48318 -0.366074 0 0.443267 0 0)
(1.64186 -0.417362 0 0.466106 0 0)
(1.65331 -0.449649 0 0.498131 0 0)
(1.85037 -0.504386 0 0.538874 0 0)
(1.88809 -0.532184 0 0.572919 0 0)
(2.13431 -0.595636 0 0.609475 0 0)
(2.17709 -0.633989 0 0.644508 0 0)
(2.44467 -0.709163 0 0.683664 0 0)
(2.48013 -0.747938 0 0.72055 0 0)
(2.76028 -0.827446 0 0.763837 0 0)
(2.79421 -0.860803 0 0.803916 0 0)
(3.09015 -0.953624 0 0.848366 0 0)
(3.13342 -0.991225 0 0.890542 0 0)
(3.44797 -1.10193 0 0.942808 0 0)
(3.50389 -1.14542 0 0.99502 0 0)
(3.85203 -1.27136 0 1.05451 0 0)
(3.91796 -1.31782 0 1.11067 0 0)
(4.31526 -1.46459 0 1.17385 0 0)
(4.37562 -1.51709 0 1.23242 0 0)
(4.8097 -1.68488 0 1.29876 0 0)
(4.82858 -1.73299 0 1.35491 0 0)
(5.27041 -1.9067 0 1.41848 0 0)
(5.2268 -1.9385 0 1.47152 0 0)
(5.65593 -2.10924 0 1.53365 0 0)
(5.54943 -2.10977 0 1.58536 0 0)
(5.94347 -2.26486 0 1.6463 0 0)
(5.78161 -2.23499 0 1.69405 0 0)
(6.16262 -2.37796 0 1.75519 0 0)
(5.96588 -2.33189 0 1.80137 0 0)
(6.37361 -2.47533 0 1.86485 0 0)
(6.15767 -2.42087 0 1.91203 0 0)
(6.62266 -2.57649 0 1.98349 0 0)
(6.39561 -2.52205 0 2.03465 0 0)
(6.926 -2.69172 0 2.12049 0 0)
(6.67341 -2.64438 0 2.18133 0 0)
(7.26115 -2.82169 0 2.28664 0 0)
(6.92982 -2.76398 0 2.36188 0 0)
(7.55266 -2.93711 0 2.47752 0 0)
(7.09288 -2.83124 0 2.54696 0 0)
(7.72497 -2.99171 0 2.65505 0 0)
(7.13114 -2.82221 0 2.69736 0 0)
(7.77705 -2.9753 0 2.7809 0 0)
(7.07312 -2.76542 0 2.80027 0 0)
(7.78279 -2.93522 0 2.86885 0 0)
(6.98076 -2.71899 0 2.88967 0 0)
(7.78334 -2.92133 0 2.96639 0 0)
(6.86207 -2.69538 0 3.00098 0 0)
(7.72275 -2.91404 0 3.09534 0 0)
(6.67419 -2.64354 0 3.12285 0 0)
(7.55616 -2.82784 0 3.20374 0 0)
(6.43495 -2.5043 0 3.17786 0 0)
(7.3846 -2.61663 0 3.19593 0 0)
(6.22812 -2.29943 0 3.14071 0 0)
(7.35062 -2.41281 0 3.16774 0 0)
(6.13622 -2.12516 0 3.15105 0 0)
(7.47336 -2.27676 0 3.18729 0 0)
(6.155 -1.97507 0 3.16662 0 0)
(7.72995 -2.21194 0 3.21075 0 0)
(6.26872 -1.88291 0 3.22545 0 0)
(8.03555 -2.21701 0 3.3219 0 0)
(6.4722 -1.84369 0 3.37601 0 0)
(8.31262 -2.25485 0 3.53144 0 0)
(6.68517 -1.8499 0 3.60179 0 0)
(8.54291 -2.27948 0 3.79488 0 0)
(6.79039 -1.85782 0 3.85298 0 0)
(8.72022 -2.28936 0 4.02447 0 0)
(6.79535 -1.85575 0 4.04818 0 0)
(8.84977 -2.30803 0 4.19287 0 0)
(6.78105 -1.84221 0 4.17884 0 0)
(8.86386 -2.29733 0 4.31448 0 0)
(6.82902 -1.81326 0 4.29716 0 0)
(8.85072 -2.25534 0 4.47601 0 0)
(6.94942 -1.79788 0 4.49187 0 0)
(8.94427 -2.20959 0 4.70173 0 0)
(7.14224 -1.81317 0 4.73072 0 0)
(9.15013 -2.24306 0 4.92691 0 0)
(7.45135 -1.89156 0 4.9621 0 0)
(9.47621 -2.34497 0 5.1739 0 0)
(7.82876 -2.00359 0 5.22683 0 0)
(9.79146 -2.48724 0 5.48187 0 0)
(8.2033 -2.13946 0 5.57169 0 0)
(10.0204 -2.61974 0 5.88718 0 0)
(8.4612 -2.26006 0 6.02545 0 0)
(10.009 -2.70021 0 6.39954 0 0)
(8.49955 -2.31173 0 6.58008 0 0)
(9.86929 -2.72771 0 6.97934 0 0)
(8.3482 -2.32585 0 7.19369 0 0)
(9.68716 -2.74756 0 7.62412 0 0)
(8.12561 -2.33701 0 7.73026 0 0)
(9.51147 -2.77203 0 8.10377 0 0)
(7.91113 -2.27474 0 8.1168 0 0)
(9.39264 -2.71032 0 8.38365 0 0)
(7.76219 -2.13753 0 8.33136 0 0)
(9.28293 -2.62305 0 8.61877 0 0)
(7.66408 -2.02104 0 8.51389 0 0)
(9.12435 -2.51018 0 8.74226 0 0)
(7.65884 -1.88841 0 8.5806 0 0)
(8.97399 -2.35034 0 8.81014 0 0)
(7.70944 -1.70995 0 8.67535 0 0)
(8.78343 -2.13336 0 8.92051 0 0)
(7.71861 -1.54965 0 8.86905 0 0)
(8.57503 -1.93863 0 9.17106 0 0)
(7.75029 -1.43371 0 9.19427 0 0)
(8.46563 -1.78469 0 9.53612 0 0)
(7.8426 -1.35617 0 9.63774 0 0)
(8.38488 -1.65156 0 9.97113 0 0)
(7.84483 -1.22055 0 10.1058 0 0)
(8.24283 -1.49525 0 10.392 0 0)
(7.75478 -1.09281 0 10.4864 0 0)
(8.07523 -1.35136 0 10.7183 0 0)
(7.56019 -0.954904 0 10.8035 0 0)
(7.89672 -1.20636 0 11.008 0 0)
(7.44599 -0.854123 0 11.0682 0 0)
(7.77934 -1.09966 0 11.1951 0 0)
(7.51037 -0.854454 0 11.3206 0 0)
(7.78157 -1.04266 0 11.4518 0 0)
(7.6816 -0.905648 0 11.6076 0 0)
(7.82362 -0.983683 0 11.7061 0 0)
(7.80652 -0.954883 0 11.8743 0 0)
(7.85604 -0.913428 0 11.9632 0 0)
(7.93116 -0.931806 0 12.1172 0 0)
(7.9364 -0.80624 0 12.2441 0 0)
(8.00845 -0.859089 0 12.4626 0 0)
(7.96454 -0.686718 0 12.6224 0 0)
(7.97063 -0.77041 0 12.878 0 0)
(7.84556 -0.54364 0 12.9747 0 0)
(7.90243 -0.650411 0 13.2175 0 0)
(7.68112 -0.408618 0 13.3318 0 0)
(7.68983 -0.467036 0 13.6351 0 0)
(7.43828 -0.248795 0 13.655 0 0)
(7.4808 -0.242566 0 13.7886 0 0)
(7.25809 -0.135321 0 13.7954 0 0)
(7.32438 -0.0216626 0 13.969 0 0)
(7.1042 -0.0439569 0 13.9459 0 0)
(7.16247 0.13786 0 14.0652 0 0)
(6.94609 0.0398035 0 14.0112 0 0)
(6.99662 0.285652 0 14.1193 0 0)
(6.82772 0.157828 0 14.0737 0 0)
(6.85622 0.396299 0 14.1869 0 0)
(6.7379 0.224801 0 14.1172 0 0)
(6.76106 0.457558 0 14.2481 0 0)
(6.73545 0.30692 0 14.1812 0 0)
(6.71665 0.462992 0 14.2664 0 0)
(6.65969 0.31073 0 14.223 0 0)
(6.59645 0.430755 0 14.3671 0 0)
(6.56298 0.24019 0 14.3906 0 0)
(6.47498 0.349587 0 14.3993 0 0)
(6.49995 0.114763 0 14.3802 0 0)
(6.46615 0.244239 0 14.2977 0 0)
(6.50814 -0.0697779 0 14.2703 0 0)
(6.47053 0.0905515 0 14.1957 0 0)
(6.51139 -0.3382 0 14.0928 0 0)
(6.44764 -0.0859579 0 13.9631 0 0)
(6.54188 -0.532926 0 13.6901 0 0)
(6.35398 -0.396686 0 13.5136 0 0)
(6.5672 -0.756949 0 13.2719 0 0)
(6.16976 -0.640748 0 12.8119 0 0)
(6.62951 -1.06803 0 12.4852 0 0)
(6.09156 -0.735526 0 11.9743 0 0)
(6.66723 -1.21751 0 11.6655 0 0)
(6.16635 -0.756398 0 11.2134 0 0)
(6.70969 -1.27463 0 10.8694 0 0)
(6.2986 -0.800794 0 10.6317 0 0)
(6.6997 -1.18676 0 10.1625 0 0)
(6.44494 -0.881532 0 10.152 0 0)
(6.52156 -1.07981 0 9.4128 0 0)
(6.38281 -1.03138 0 9.72015 0 0)
(6.29756 -0.934483 0 8.6769 0 0)
(6.21618 -1.18537 0 9.2749 0 0)
(6.05507 -0.651476 0 7.98391 0 0)
(5.98165 -1.27687 0 8.95261 0 0)
(5.7144 -0.348236 0 7.46232 0 0)
(5.59544 -1.23121 0 8.87765 0 0)
(5.32594 0.0540846 0 7.25547 0 0)
(5.10462 -1.03173 0 9.19004 0 0)
(4.88784 0.563413 0 7.43042 0 0)
(4.57118 -0.756467 0 10.014 0 0)
(4.21885 1.18501 0 8.1711 0 0)
(4.12881 -0.276467 0 11.6308 0 0)
(3.59041 2.19923 0 9.99679 0 0)
(3.7165 0.220148 0 14.155 0 0)
(2.85635 3.47962 0 13.1395 0 0)
(3.49688 2.36081 0 19.8963 0 0)
(1.1087 0.686315 0 22.2895 0 0)
(0.369111 -0.167083 0 0.142007 0 0)
(0.342365 -0.177595 0 0.185051 0 0)
(0.352367 -0.161029 0 0.195528 0 0)
(0.322517 -0.146402 0 0.200651 0 0)
(0.337702 -0.128082 0 0.199841 0 0)
(0.342446 -0.127135 0 0.19855 0 0)
(0.37834 -0.132882 0 0.202856 0 0)
(0.411176 -0.154338 0 0.214652 0 0)
(0.461237 -0.170023 0 0.228269 0 0)
(0.495837 -0.193618 0 0.242465 0 0)
(0.538299 -0.205096 0 0.257526 0 0)
(0.567723 -0.228605 0 0.276896 0 0)
(0.607094 -0.237321 0 0.296421 0 0)
(0.649448 -0.262773 0 0.316503 0 0)
(0.697975 -0.272768 0 0.333634 0 0)
(0.768643 -0.308101 0 0.352127 0 0)
(0.831106 -0.329738 0 0.372183 0 0)
(0.934197 -0.384056 0 0.397941 0 0)
(1.0009 -0.413606 0 0.42511 0 0)
(1.12299 -0.475863 0 0.458377 0 0)
(1.1825 -0.501775 0 0.490015 0 0)
(1.32528 -0.567096 0 0.525973 0 0)
(1.38107 -0.590794 0 0.559893 0 0)
(1.54951 -0.664546 0 0.599439 0 0)
(1.60011 -0.685424 0 0.636601 0 0)
(1.79795 -0.768266 0 0.682389 0 0)
(1.8515 -0.786862 0 0.725395 0 0)
(2.08696 -0.883192 0 0.776618 0 0)
(2.152 -0.907856 0 0.823194 0 0)
(2.42275 -1.02395 0 0.87995 0 0)
(2.4917 -1.05694 0 0.931021 0 0)
(2.78719 -1.1908 0 0.992154 0 0)
(2.84137 -1.22453 0 1.04532 0 0)
(3.15075 -1.37035 0 1.10886 0 0)
(3.17057 -1.39748 0 1.16236 0 0)
(3.48521 -1.54968 0 1.22627 0 0)
(3.44756 -1.55979 0 1.27871 0 0)
(3.75916 -1.70985 0 1.33899 0 0)
(3.65293 -1.69653 0 1.38786 0 0)
(3.96692 -1.84386 0 1.44513 0 0)
(3.80336 -1.80597 0 1.48919 0 0)
(4.13368 -1.95033 0 1.54525 0 0)
(3.93271 -1.89298 0 1.58629 0 0)
(4.30091 -2.04286 0 1.64749 0 0)
(4.08282 -1.97538 0 1.68943 0 0)
(4.49901 -2.14062 0 1.7634 0 0)
(4.27331 -2.06978 0 1.8101 0 0)
(4.73511 -2.25184 0 1.89738 0 0)
(4.4913 -2.17522 0 1.9485 0 0)
(4.99113 -2.36738 0 2.04469 0 0)
(4.69408 -2.27185 0 2.09916 0 0)
(5.23071 -2.46869 0 2.19864 0 0)
(4.83668 -2.33037 0 2.25377 0 0)
(5.40803 -2.52895 0 2.34983 0 0)
(4.89672 -2.32778 0 2.39728 0 0)
(5.50329 -2.53154 0 2.48327 0 0)
(4.89674 -2.27266 0 2.5174 0 0)
(5.55047 -2.49459 0 2.59817 0 0)
(4.89119 -2.21016 0 2.62413 0 0)
(5.59914 -2.45971 0 2.72112 0 0)
(4.91437 -2.18906 0 2.74986 0 0)
(5.66919 -2.44437 0 2.85796 0 0)
(4.94378 -2.19097 0 2.88041 0 0)
(5.72866 -2.40428 0 2.97461 0 0)
(4.91826 -2.14146 0 2.97391 0 0)
(5.73412 -2.2874 0 3.02187 0 0)
(4.81973 -1.99397 0 2.98233 0 0)
(5.73632 -2.12126 0 3.00728 0 0)
(4.7485 -1.82938 0 2.97805 0 0)
(5.82115 -2.00151 0 3.036 0 0)
(4.76726 -1.70346 0 3.01947 0 0)
(6.0237 -1.92816 0 3.09654 0 0)
(4.893 -1.60639 0 3.0815 0 0)
(6.31615 -1.91472 0 3.17094 0 0)
(5.11376 -1.56021 0 3.18308 0 0)
(6.63563 -1.95914 0 3.31584 0 0)
(5.38559 -1.56007 0 3.36512 0 0)
(6.91019 -1.99944 0 3.54161 0 0)
(5.6127 -1.54862 0 3.59619 0 0)
(7.10069 -1.99141 0 3.79065 0 0)
(5.72921 -1.52446 0 3.83105 0 0)
(7.25315 -1.98755 0 4.00649 0 0)
(5.83743 -1.52928 0 4.02368 0 0)
(7.37648 -2.00278 0 4.16565 0 0)
(5.99385 -1.57106 0 4.13764 0 0)
(7.48817 -2.00277 0 4.28994 0 0)
(6.19248 -1.6258 0 4.27862 0 0)
(7.63741 -1.99893 0 4.46241 0 0)
(6.45354 -1.66803 0 4.48517 0 0)
(7.88018 -2.00697 0 4.69358 0 0)
(6.74634 -1.73111 0 4.72428 0 0)
(8.20253 -2.09457 0 4.91876 0 0)
(7.07281 -1.82019 0 4.97077 0 0)
(8.57103 -2.21032 0 5.19334 0 0)
(7.42181 -1.9254 0 5.25847 0 0)
(8.91326 -2.36051 0 5.51364 0 0)
(7.78259 -2.04756 0 5.61624 0 0)
(9.19109 -2.49104 0 5.92978 0 0)
(8.05995 -2.14774 0 6.06441 0 0)
(9.28739 -2.55926 0 6.43473 0 0)
(8.16283 -2.17264 0 6.59427 0 0)
(9.1954 -2.57305 0 7.01499 0 0)
(8.02352 -2.13574 0 7.19301 0 0)
(9.0106 -2.5408 0 7.60704 0 0)
(7.71367 -2.08221 0 7.66448 0 0)
(8.7922 -2.49623 0 8.02388 0 0)
(7.37715 -1.94325 0 8.01719 0 0)
(8.61329 -2.38176 0 8.32073 0 0)
(7.14554 -1.76598 0 8.26041 0 0)
(8.51022 -2.22494 0 8.53791 0 0)
(7.03824 -1.58568 0 8.42301 0 0)
(8.45433 -2.02596 0 8.65349 0 0)
(7.08194 -1.40851 0 8.50668 0 0)
(8.45359 -1.8084 0 8.75021 0 0)
(7.18603 -1.26767 0 8.65266 0 0)
(8.43831 -1.67452 0 8.89808 0 0)
(7.37249 -1.19701 0 8.88187 0 0)
(8.46655 -1.57866 0 9.16983 0 0)
(7.60131 -1.13873 0 9.24798 0 0)
(8.55723 -1.49723 0 9.57676 0 0)
(7.74894 -1.08413 0 9.71172 0 0)
(8.59724 -1.3936 0 10.039 0 0)
(7.72483 -0.95074 0 10.1884 0 0)
(8.50947 -1.25097 0 10.4979 0 0)
(7.59062 -0.760873 0 10.6178 0 0)
(8.36478 -1.10517 0 10.8544 0 0)
(7.47555 -0.615403 0 10.938 0 0)
(8.22803 -1.00671 0 11.1279 0 0)
(7.46804 -0.623122 0 11.2363 0 0)
(8.17325 -0.979055 0 11.3668 0 0)
(7.58465 -0.765722 0 11.5064 0 0)
(8.20653 -0.956971 0 11.6229 0 0)
(7.7872 -0.875312 0 11.7731 0 0)
(8.26166 -0.898017 0 11.8884 0 0)
(7.96632 -0.940863 0 12.0644 0 0)
(8.42773 -0.850477 0 12.1133 0 0)
(8.1877 -0.957616 0 12.2809 0 0)
(8.60188 -0.78113 0 12.3775 0 0)
(8.32465 -0.920976 0 12.6505 0 0)
(8.65796 -0.661032 0 12.7758 0 0)
(8.29503 -0.793437 0 13.1004 0 0)
(8.56743 -0.519987 0 13.1431 0 0)
(8.16251 -0.670063 0 13.4333 0 0)
(8.36562 -0.356141 0 13.5175 0 0)
(7.85762 -0.473719 0 13.8592 0 0)
(8.14021 -0.157878 0 13.8303 0 0)
(7.56634 -0.301838 0 14.0396 0 0)
(7.92443 -0.0184682 0 14.0275 0 0)
(7.26773 -0.132859 0 14.217 0 0)
(7.65283 0.0738098 0 14.1899 0 0)
(7.06949 0.0631275 0 14.3371 0 0)
(7.42151 0.119273 0 14.1976 0 0)
(6.91404 0.177537 0 14.3365 0 0)
(7.32858 0.184877 0 14.3456 0 0)
(6.82346 0.277121 0 14.4227 0 0)
(7.28405 0.132339 0 14.3175 0 0)
(6.78354 0.364583 0 14.4907 0 0)
(7.24472 0.167621 0 14.4429 0 0)
(6.69809 0.361994 0 14.5288 0 0)
(7.08017 0.177155 0 14.6115 0 0)
(6.57477 0.375029 0 14.6751 0 0)
(6.93259 0.109675 0 14.6748 0 0)
(6.49426 0.330346 0 14.6983 0 0)
(6.86685 0.0329156 0 14.6421 0 0)
(6.39637 0.257486 0 14.655 0 0)
(6.80315 -0.149486 0 14.5716 0 0)
(6.3027 0.147736 0 14.6168 0 0)
(6.80256 -0.279589 0 14.477 0 0)
(6.32216 0.0379097 0 14.2753 0 0)
(6.79691 -0.412785 0 14.167 0 0)
(6.24525 -0.0713665 0 13.936 0 0)
(6.69046 -0.619094 0 13.7031 0 0)
(6.16998 -0.176739 0 13.2617 0 0)
(6.46126 -0.889794 0 12.9212 0 0)
(6.24935 -0.340662 0 12.397 0 0)
(6.23066 -1.14639 0 11.9381 0 0)
(6.45369 -0.52495 0 11.6077 0 0)
(6.09675 -1.29412 0 11.139 0 0)
(6.61024 -0.784507 0 10.9894 0 0)
(6.05062 -1.29819 0 10.376 0 0)
(6.67184 -1.02134 0 10.6168 0 0)
(6.01497 -1.18206 0 9.68123 0 0)
(6.56303 -1.36417 0 10.2469 0 0)
(5.84667 -0.987992 0 8.86021 0 0)
(6.35122 -1.69589 0 9.83861 0 0)
(5.67327 -0.710557 0 8.02458 0 0)
(6.06531 -1.84752 0 9.57906 0 0)
(5.59549 -0.417738 0 7.36961 0 0)
(5.63541 -1.87401 0 9.5341 0 0)