/*--------------------------------*- C++ -*----------------------------------*\
| =========                 |                                                 |
| \\      /  F ield         | OpenFOAM: The Open Source CFD Toolbox           |
|  \\    /   O peration     | Version:  2.4.0                                 |
|   \\  /    A nd           | Web:      www.OpenFOAM.org                      |
|    \\/     M anipulation  |                                                 |
\*---------------------------------------------------------------------------*/
FoamFile
{
    version     2.0;
    format      ascii;
    class       volScalarField;
    location    "1.13";
    object      pMean;
}
// * * * * * * * * * * * * * * * * * * * * * * * * * * * * * * * * * * * * * //

dimensions      [0 2 -2 0 0 0 0];

internalField   nonuniform List<scalar> 
8800
(
88.0119
75.5492
68.1338
64.5552
62.6543
61.202
59.9802
58.8102
57.7661
56.7117
55.7467
54.7354
53.8164
52.8481
51.9938
51.0955
50.3269
49.5272
48.8443
48.0745
84.9017
75.1951
68.302
64.669
62.714
61.2274
59.9877
58.8105
57.764
56.7093
55.7438
54.7333
53.8137
52.8465
51.9915
51.0933
50.3279
49.5227
48.8476
48.0348
82.937
75.2716
68.9026
65.0447
62.881
61.3069
60.0343
58.8432
57.7881
56.7264
55.7538
54.7381
53.815
52.8446
51.9895
51.0854
50.3285
49.5098
48.9113
48.0851
81.4022
75.3343
69.4872
65.4684
63.064
61.3953
60.0964
58.9002
57.8362
56.7657
55.7807
54.7564
53.8251
52.8494
51.9897
51.0788
50.3207
49.5001
48.9794
48.3134
80.1547
75.3086
69.9608
65.8745
63.2321
61.4639
60.1448
58.9592
57.8914
56.8185
55.8151
54.7854
53.8367
52.8616
51.9854
51.0796
50.2974
49.4956
48.9185
48.6279
79.1715
75.2127
70.324
66.2214
63.3822
61.5086
60.172
59.0058
57.9404
56.8695
55.849
54.8146
53.8467
52.8728
51.9783
51.0787
50.273
49.495
48.9386
49.0743
78.4155
75.098
70.59
66.5013
63.5171
61.5361
60.1797
59.0388
57.979
56.9115
55.8772
54.8383
53.8538
52.8794
51.9704
51.0744
50.2561
49.5036
49.0202
49.4018
77.863
74.9972
70.7724
66.7128
63.6358
61.5543
60.1746
59.0614
58.0074
56.9446
55.898
54.8572
53.8573
52.8848
51.9626
51.0753
50.247
49.5248
49.0736
49.6531
77.5022
74.9259
70.8878
66.8567
63.7198
61.5663
60.167
59.0758
58.0275
56.969
55.9128
54.8713
53.8605
52.8906
51.9598
51.081
50.2489
49.5531
49.1432
49.8534
77.3213
74.8921
70.9456
66.9317
63.7631
61.574
60.162
59.0844
58.0388
56.9842
55.9216
54.8809
53.864
52.8977
51.9629
51.0915
50.2601
49.583
49.2013
49.9708
77.314
74.9007
70.9469
66.9352
63.7626
61.5763
60.1605
59.0873
58.0388
56.988
55.9226
54.886
53.8667
52.9056
51.9698
51.1057
50.2756
49.6112
49.2412
50.0412
77.4823
74.9495
70.8912
66.8654
63.7183
61.5725
60.1627
59.0834
58.028
56.9796
55.9158
54.8856
53.8688
52.9134
51.9808
51.1223
50.2961
49.6346
49.2634
50.0577
77.8337
75.0315
70.7761
66.7233
63.6319
61.563
60.1676
59.0724
58.0074
56.9605
55.9017
54.8796
53.8695
52.9213
51.9956
51.1426
50.3226
49.658
49.2654
50.0153
78.3797
75.1376
70.5932
66.5108
63.5088
61.5454
60.1702
59.0513
57.9772
56.9304
55.8802
54.8668
53.8679
52.9279
52.0122
51.1667
50.3559
49.6875
49.2524
49.8956
79.1333
75.2537
70.3275
66.2292
63.3704
61.5166
60.1625
59.0182
57.9374
56.8897
55.8521
54.8468
53.8635
52.9304
52.0294
51.1921
50.3976
49.7272
49.2502
49.6934
80.1149
75.3516
69.9646
65.8828
63.2181
61.4717
60.1361
58.9729
57.8885
56.8407
55.8195
54.8221
53.8575
52.929
52.0463
51.2155
50.4461
49.7779
49.278
49.4286
81.3611
75.3789
69.4921
65.4799
63.0489
61.4041
60.0883
58.9165
57.8337
56.7908
55.7868
54.7977
53.8505
52.9252
52.0607
51.2332
50.4932
49.8263
49.3359
49.1525
82.8949
75.3161
68.9095
65.0587
62.8655
61.3161
60.0267
58.8603
57.7868
56.7524
55.7625
54.7812
53.8456
52.9238
52.0711
51.2467
50.5269
49.8634
49.3936
49.0087
84.858
75.2378
68.3105
64.685
62.6988
61.2367
59.9804
58.828
57.7634
56.7359
55.7535
54.7773
53.8463
52.9272
52.078
51.2568
50.5427
49.885
49.3907
48.9313
87.9667
75.5903
68.142
64.5716
62.6396
61.2113
59.973
58.8279
57.7655
56.7388
55.7563
54.78
53.8491
52.9297
52.0812
51.2602
50.5463
49.8908
49.3921
49.0505
48.0802
47.9439
47.6506
47.3463
47.1005
46.9181
46.7955
46.715
46.66
46.6214
46.592
46.5604
46.5248
46.4832
46.4347
46.3774
46.3126
46.2355
46.1497
46.0508
45.9444
45.837
45.7357
45.6417
45.5608
45.4955
45.4471
45.4075
45.3708
45.3259
45.2701
45.2029
45.1325
45.0661
45.0093
44.9589
44.9121
44.8574
44.7939
44.7192
44.6401
44.5588
44.4897
44.4402
44.42
44.4265
44.4621
44.5145
44.5787
44.6382
44.6837
44.6984
44.6793
44.6155
44.5161
44.3756
44.2135
44.0285
43.8373
43.6309
43.4181
43.1921
42.9682
42.7476
42.5478
42.3797
42.2557
42.1844
42.1682
42.1958
42.2649
42.3598
42.4792
42.6049
42.7409
42.8667
42.9896
43.0845
43.1588
43.1908
43.1911
43.1476
43.0797
42.9767
42.8692
42.7503
42.6456
42.5596
42.4998
42.48
42.5047
42.5832
42.715
42.8921
43.1076
43.3478
43.6041
43.8595
44.1091
44.3403
44.554
44.7436
44.9135
45.0436
45.1594
45.2423
45.3201
45.3772
45.4425
45.4868
45.5303
45.555
45.5732
45.574
45.5651
45.5457
45.523
45.4942
45.4673
45.4343
45.4066
45.3716
45.3506
45.322
45.3191
45.3014
45.3231
45.325
45.3718
45.4109
45.4898
45.5656
45.6694
45.7753
45.9069
46.0422
46.2011
46.3606
46.5395
46.7178
46.9157
47.1199
47.342
47.5701
47.8129
48.0557
48.3094
48.5631
48.8193
49.0722
49.3188
49.5557
49.787
50.0022
50.211
50.4063
50.6105
50.7909
50.9873
51.1621
51.3546
51.5074
51.6827
51.8099
51.9601
52.0535
52.1745
52.2319
52.314
52.3321
52.401
52.3868
52.4593
52.4363
52.5454
52.5244
52.6882
52.6803
52.8843
52.9114
53.1368
53.2088
53.4727
53.6135
53.9175
54.136
54.477
54.7367
55.1121
55.3742
55.7462
55.9466
56.1966
56.1432
56.0103
55.249
54.041
50.8378
46.756
26.603
47.8754
47.818
47.6881
47.4521
47.194
46.9796
46.839
46.7611
46.7251
46.7058
46.6908
46.6676
46.6364
46.5952
46.5475
46.4903
46.426
46.3514
46.2696
46.1776
46.0802
45.9814
45.8886
45.8023
45.7279
45.6643
45.6139
45.5706
45.5322
45.4896
45.4412
45.3836
45.3232
45.2621
45.2068
45.1539
45.1035
45.048
44.9876
44.918
44.8459
44.7732
44.7112
44.6647
44.6424
44.6421
44.6663
44.7054
44.7545
44.7982
44.8306
44.8357
44.8127
44.75
44.6561
44.5248
44.3709
44.1927
44.0045
43.8021
43.5939
43.3771
43.1614
42.9519
42.7591
42.5951
42.4697
42.3886
42.3572
42.367
42.417
42.493
42.594
42.7047
42.8234
42.9355
43.0389
43.1193
43.1754
43.195
43.1848
43.1384
43.0691
42.9766
42.8772
42.7758
42.6818
42.6112
42.5618
42.5489
42.5759
42.6528
42.777
42.9425
43.1433
43.3691
43.6104
43.8536
44.0931
44.3201
44.53
44.7184
44.8824
45.0091
45.1186
45.1983
45.2682
45.3176
45.3661
45.3986
45.4235
45.4341
45.4322
45.4136
45.3815
45.341
45.2936
45.2435
45.1915
45.1341
45.0848
45.0278
44.9912
44.9486
44.9377
44.9157
44.9313
44.9351
44.9773
45.0151
45.0887
45.1604
45.261
45.3634
45.4937
45.6246
45.7811
45.9373
46.1134
46.2875
46.4838
46.6834
46.9032
47.1253
47.3671
47.6012
47.8532
48.0971
48.3514
48.5958
48.8383
49.0667
49.2976
49.5006
49.7101
49.8967
50.1052
50.2777
50.4833
50.6549
50.8541
51.0059
51.1863
51.3087
51.4564
51.5405
51.6516
51.688
51.7574
51.7467
51.8019
51.7494
51.8125
51.7456
51.8494
51.7888
51.9374
51.9061
52.0816
52.0947
52.2872
52.3399
52.5548
52.6683
52.918
53.0754
53.3665
53.5296
53.8365
53.9641
54.2034
54.186
54.2243
53.7854
53.2852
51.6844
49.9724
44.3178
38.5426
19.972
47.829
47.8337
47.8406
47.6616
47.3599
47.0651
46.8674
46.7734
46.7549
46.7646
46.7756
46.769
46.7459
46.7056
46.6558
46.5952
46.5291
46.4545
46.3752
46.2887
46.2004
46.111
46.0277
45.9498
45.8824
45.8228
45.7738
45.7303
45.6922
45.652
45.6098
45.5604
45.5087
45.454
45.4016
45.3486
45.2968
45.2411
45.1835
45.1202
45.0563
44.9927
44.9383
44.8959
44.8725
44.8665
44.8796
44.9041
44.9366
44.9634
44.9805
44.9739
44.9436
44.8797
44.7877
44.6631
44.5155
44.3452
44.1619
43.9668
43.7654
43.56
43.3563
43.1606
42.9806
42.8253
42.704
42.6198
42.5777
42.5734
42.6066
42.6664
42.7502
42.8457
42.9486
43.0455
43.1305
43.1947
43.2334
43.2417
43.2212
43.1749
43.1064
43.0242
42.9326
42.8446
42.7622
42.7008
42.6578
42.6462
42.6709
42.7413
42.853
43.0048
43.1886
43.3995
43.624
43.855
44.0836
44.3039
44.5091
44.6946
44.8533
44.978
45.0847
45.164
45.2294
45.2749
45.3128
45.3381
45.3515
45.3526
45.3355
45.3011
45.2506
45.1915
45.1259
45.0532
44.9828
44.9017
44.8381
44.7615
44.7169
44.6642
44.6507
44.6308
44.6438
44.653
44.6906
44.7301
44.7974
44.8669
44.9643
45.0643
45.1924
45.3193
45.4721
45.6249
45.7986
45.969
46.1654
46.3638
46.5861
46.8086
47.0511
47.283
47.5345
47.7729
48.0266
48.2576
48.4936
48.7082
48.9348
49.1236
49.3329
49.5114
49.7155
49.8839
50.095
50.2688
50.468
50.6225
50.8031
50.9186
51.0619
51.1288
51.2302
51.2367
51.2983
51.2598
51.3077
51.2205
51.2804
51.1772
51.2712
51.1868
51.2983
51.2558
51.3809
51.3828
51.5224
51.557
51.7228
51.7893
51.996
52.0703
52.3064
52.3579
52.5775
52.5472
52.6731
52.3769
52.2684
51.2907
50.6833
47.9339
46.0727
39.0507
32.0984
19.4376
47.9334
47.9114
47.8842
47.636
47.2854
46.9782
46.7961
46.7372
46.7638
46.8181
46.8661
46.8848
46.875
46.8376
46.7841
46.7174
46.6456
46.5681
46.4897
46.4078
46.3273
46.2472
46.1737
46.105
46.0456
45.992
45.9471
45.9059
45.8697
45.8323
45.7946
45.7515
45.7063
45.6567
45.607
45.5551
45.5038
45.4497
45.396
45.3391
45.2841
45.2296
45.1829
45.1439
45.1191
45.1062
45.1076
45.1163
45.1306
45.1394
45.1401
45.122
45.0839
45.0188
44.9286
44.8109
44.6709
44.5112
44.3376
44.1537
43.9642
43.7729
43.5844
43.4044
43.2391
43.0949
42.9795
42.895
42.8458
42.8295
42.8474
42.8915
42.9586
43.0382
43.1243
43.2048
43.2723
43.3205
43.3441
43.3433
43.3157
43.2687
43.2018
43.1262
43.0426
42.9636
42.8897
42.8305
42.7866
42.77
42.7873
42.8467
42.9445
43.0807
43.249
43.4433
43.6529
43.8701
44.0898
44.3015
44.502
44.6825
44.8373
44.9596
45.0651
45.1461
45.2108
45.2575
45.2929
45.3167
45.3261
45.3199
45.2908
45.2424
45.1776
45.1006
45.0227
44.9303
44.8478
44.7493
44.6753
44.5847
44.5359
44.4788
44.4677
44.4501
44.4653
44.4755
44.5144
44.5551
44.6233
44.695
44.7916
44.8922
45.0177
45.1421
45.2912
45.4393
45.6108
45.7784
45.9761
46.1739
46.3996
46.625
46.8711
47.1073
47.3616
47.5977
47.85
48.0647
48.2967
48.491
48.7108
48.8804
49.0888
49.2574
49.4591
49.6229
49.84
50.0023
50.2076
50.3478
50.5381
50.6308
50.781
50.8184
50.9229
50.8926
50.9564
50.8817
50.9291
50.8108
50.8703
50.752
50.8174
50.7298
50.7903
50.7389
50.8097
50.7904
50.8824
50.8853
51.0098
51.0173
51.1779
51.1605
51.3405
51.2422
51.4338
51.1368
51.2789
50.5354
50.4916
48.7752
48.1814
44.5663
42.1515
35.5259
28.1121
19.6422
49.2595
48.9778
48.1113
47.3643
46.8641
46.6086
46.5544
46.6205
46.7421
46.8637
46.9588
47.009
47.0162
46.9846
46.9285
46.8552
46.7761
46.6934
46.6133
46.5343
46.4605
46.3899
46.3267
46.2685
46.2183
46.1728
46.1338
46.0971
46.0641
46.0299
45.9958
45.9574
45.9171
45.8724
45.8268
45.7785
45.7303
45.6798
45.6304
45.5795
45.5311
45.4832
45.4409
45.4033
45.375
45.3542
45.3426
45.3356
45.3322
45.325
45.3111
45.2832
45.2386
45.173
45.0855
44.9763
44.8469
44.701
44.5421
44.3739
44.201
44.0265
43.8555
43.6921
43.5424
43.4102
43.3025
43.2206
43.1681
43.1438
43.1487
43.1788
43.2295
43.2926
43.3596
43.4221
43.4719
43.5047
43.5158
43.5068
43.4746
43.4249
43.3593
43.286
43.2064
43.1292
43.0564
42.9928
42.942
42.9155
42.9226
42.9681
43.0527
43.1734
43.3286
43.5079
43.7049
43.9117
44.1229
44.3278
44.5247
44.7012
44.8538
44.9755
45.0819
45.1661
45.2323
45.2844
45.3203
45.3448
45.3513
45.3373
45.2981
45.2352
45.1594
45.068
44.9808
44.8757
44.7831
44.6764
44.595
44.5053
44.4572
44.4084
44.3985
44.3864
44.4025
44.4139
44.4585
44.4991
44.5763
44.65
44.7535
44.8543
44.982
45.1033
45.2536
45.3961
45.5694
45.7337
45.9345
46.1284
46.3613
46.588
46.8447
47.0852
47.3473
47.5808
47.8343
48.0312
48.2616
48.4307
48.644
48.7909
48.9955
49.1448
49.3528
49.5025
49.7283
49.866
50.0828
50.1959
50.3972
50.462
50.6215
50.6247
50.7354
50.669
50.7341
50.6233
50.6658
50.5304
50.5809
50.4673
50.5069
50.4134
50.4435
50.3651
50.4052
50.3435
50.4151
50.3559
50.4687
50.3811
50.5351
50.3544
50.5513
50.1958
50.433
49.7649
49.9506
48.7446
48.6258
46.4756
45.4478
41.8413
38.6563
33.3777
26.3785
20.1263
50.1898
49.7842
48.3877
47.2312
46.5265
46.2549
46.2938
46.4822
46.7104
46.9125
47.0628
47.1487
47.1747
47.1495
47.0904
47.0098
46.9214
46.8314
46.7471
46.6686
46.5992
46.5367
46.4831
46.4355
46.3949
46.3582
46.326
46.295
46.2658
46.2352
46.2041
46.1695
46.1332
46.0932
46.0519
46.0081
45.9638
45.9179
45.8727
45.8269
45.7829
45.7394
45.6991
45.6615
45.6291
45.6012
45.5785
45.5584
45.5399
45.5186
45.4916
45.4544
45.4038
45.3374
45.2536
45.1529
45.0358
44.9048
44.7625
44.6118
44.4569
44.3014
44.1493
44.0046
43.8719
43.7541
43.6567
43.5809
43.5293
43.5018
43.4994
43.5198
43.5573
43.6049
43.6536
43.6984
43.7318
43.7505
43.7504
43.7332
43.6955
43.6412
43.5725
43.4954
43.4132
43.332
43.2555
43.1845
43.124
43.0825
43.0777
43.1091
43.1804
43.2877
43.4321
43.5996
43.7853
43.9845
44.1897
44.3909
44.5855
44.7628
44.9161
45.0413
45.151
45.2386
45.3092
45.3661
45.4044
45.4265
45.4285
45.403
45.3532
45.274
45.1905
45.0892
44.9947
44.8841
44.7848
44.6793
44.5986
44.5237
44.4839
44.452
44.446
44.4434
44.4587
44.4795
44.5283
44.5805
44.6673
44.746
44.8596
44.9593
45.0912
45.2087
45.3627
45.5013
45.6797
45.8426
46.0463
46.2402
46.4833
46.7106
46.9827
47.2277
47.5015
47.7335
47.9856
48.1687
48.3915
48.5388
48.7399
48.8591
49.0645
49.1847
49.3981
49.5276
49.7578
49.8666
50.0983
50.1753
50.3931
50.4206
50.5919
50.5585
50.6761
50.5648
50.6358
50.4864
50.535
50.385
50.4408
50.3144
50.3651
50.235
50.2709
50.137
50.1789
50.0421
50.1258
49.975
50.0969
49.889
50.0374
49.6949
49.8611
49.3134
49.457
48.5867
48.5433
47.18
46.6518
44.5174
42.9933
39.8606
36.4008
32.4197
26.3727
21.1903
50.8064
50.3742
48.6843
47.2405
46.3473
46.008
46.0827
46.3583
46.6786
46.9577
47.1644
47.2886
47.3352
47.3167
47.2537
47.1641
47.065
46.9665
46.8764
46.7971
46.7303
46.6744
46.629
46.5912
46.5599
46.5324
46.5074
46.4829
46.4582
46.4315
46.403
46.3714
46.3376
46.3011
46.263
46.2231
46.1824
46.1409
46.0994
46.0576
46.0166
45.9759
45.9365
45.8985
45.8626
45.829
45.7976
45.7676
45.7373
45.7047
45.6672
45.6221
45.567
45.5005
45.4209
45.3289
45.2238
45.1076
44.9821
44.8496
44.7137
44.5777
44.4445
44.3185
44.2027
44.0997
44.0131
43.9457
43.8987
43.8741
43.8711
43.8875
43.9176
43.9535
43.9876
44.0163
44.0356
44.0433
44.0339
44.0076
43.9629
43.9022
43.8266
43.7409
43.6517
43.5637
43.4801
43.3984
43.325
43.2672
43.2474
43.2664
43.3278
43.4272
43.5647
43.725
43.905
44.1001
44.3007
44.5021
44.6965
44.876
45.032
45.1647
45.2749
45.3646
45.439
45.4968
45.5349
45.551
45.5481
45.5115
45.4516
45.3588
45.266
45.1575
45.0572
44.948
44.8483
44.7547
44.6865
44.6367
44.6148
44.605
44.6102
44.6194
44.6389
44.671
44.7268
44.7964
44.8898
44.9851
45.1012
45.2094
45.3407
45.4621
45.6173
45.7616
45.9451
46.1127
46.3208
46.5243
46.7743
47.0086
47.2865
47.5427
47.8243
48.0556
48.3024
48.4772
48.6823
48.8214
49.0026
49.0932
49.2944
49.3884
49.586
49.7035
49.9313
50.012
50.2565
50.3028
50.5254
50.5255
50.6982
50.6521
50.7649
50.6326
50.6821
50.5225
50.5601
50.4206
50.469
50.3451
50.3869
50.2455
50.2611
50.0977
50.1093
49.9304
49.9612
49.7635
49.8048
49.5396
49.5825
49.1599
49.1877
48.5494
48.4806
47.5754
47.2577
45.8792
45.0926
43.0599
41.3661
38.8303
35.5165
32.4324
27.4224
22.8164
51.3319
50.8812
48.9686
47.31
46.2724
45.855
45.9276
46.2591
46.6518
46.9968
47.2529
47.4126
47.4791
47.468
47.4018
47.3047
47.1962
47.0906
46.9958
46.9157
46.851
46.8008
46.7624
46.7334
46.7104
46.6914
46.6735
46.6553
46.6351
46.6126
46.5867
46.558
46.5263
46.4924
46.4565
46.4195
46.3814
46.3428
46.3035
46.2641
46.2244
46.1849
46.1453
46.1064
46.0675
46.0297
45.9919
45.9545
45.9155
45.8746
45.8296
45.7796
45.7224
45.6577
45.5834
45.5004
45.4073
45.306
45.1971
45.083
44.9651
44.8475
44.7317
44.6228
44.5224
44.4341
44.3598
44.3032
44.2639
44.2452
44.2443
44.2597
44.2841
44.3112
44.3336
44.3504
44.3584
44.3579
44.342
44.3082
44.2559
44.1872
44.1021
44.0058
43.9075
43.8099
43.7187
43.6264
43.54
43.4694
43.4374
43.4487
43.505
43.6024
43.7348
43.8908
44.0673
44.2593
44.4592
44.6619
44.86
45.0452
45.2042
45.3409
45.4486
45.5409
45.6152
45.6681
45.7009
45.7083
45.6987
45.6554
45.5852
45.4842
45.3806
45.2715
45.1708
45.0708
44.9819
44.9112
44.8658
44.8475
44.8505
44.8676
44.8903
44.916
44.9477
44.9961
45.0651
45.1499
45.2523
45.3581
45.4755
45.5974
45.7299
45.8626
46.0192
46.1766
46.3643
46.5441
46.7562
46.9735
47.2289
47.4712
47.7578
48.0178
48.3069
48.535
48.7841
48.9442
49.1304
49.2709
49.431
49.5078
49.6966
49.7584
49.9403
50.0315
50.2564
50.312
50.5567
50.5972
50.8093
50.804
50.9751
50.9289
51.0327
50.8828
50.8946
50.7434
50.7539
50.638
50.6773
50.5643
50.5979
50.4488
50.449
50.2617
50.2399
50.0247
49.9845
49.7408
49.6844
49.3593
49.2946
48.7794
48.6914
47.9943
47.7715
46.8501
46.3999
45.0288
44.1728
42.3349
40.6032
38.6034
35.599
32.9946
28.8498
24.6751
51.6157
51.1756
49.1865
47.418
46.2891
45.8067
45.8572
46.2132
46.651
47.0439
47.3384
47.5262
47.6094
47.6048
47.5362
47.4335
47.318
47.2075
47.1096
47.0297
46.9671
46.9216
46.889
46.8671
46.8512
46.8391
46.8272
46.8144
46.7984
46.7794
46.7562
46.73
46.7001
46.6683
46.6341
46.599
46.5622
46.5251
46.4866
46.4481
46.4084
46.3689
46.3283
46.288
46.2466
46.2055
46.163
46.1201
46.0752
46.0291
45.9799
45.9279
45.8708
45.8095
45.7413
45.6676
45.5863
45.4993
45.4057
45.3085
45.2078
45.1078
45.0089
44.9163
44.8316
44.7587
44.698
44.6533
44.6232
44.6108
44.613
44.628
44.6469
44.6664
44.6793
44.6863
44.6862
44.6801
44.659
44.6204
44.5629
44.4874
44.3929
44.2849
44.1738
44.0654
43.9651
43.8617
43.7701
43.6915
43.6549
43.6643
43.7219
43.819
43.9479
44.0975
44.272
44.463
44.6668
44.8724
45.0774
45.2724
45.4384
45.5765
45.684
45.7754
45.8435
45.8859
45.9065
45.9041
45.8879
45.8374
45.7609
45.6581
45.5524
45.4489
45.3566
45.2718
45.2046
45.1624
45.1487
45.165
45.1982
45.2463
45.2916
45.3387
45.3896
45.4549
45.5402
45.6394
45.7532
45.8675
45.9908
46.1252
46.2608
46.4028
46.5659
46.7299
46.9244
47.1171
47.3375
47.5708
47.8324
48.0833
48.3804
48.6397
48.9448
49.1593
49.4294
49.5534
49.7319
49.8662
50
50.0738
50.2546
50.2726
50.4564
50.5112
50.7397
50.7669
51.0149
51.0386
51.2594
51.227
51.4264
51.3828
51.4883
51.2774
51.2605
51.1296
51.1344
51.0373
51.0661
50.965
51.0042
50.8431
50.8381
50.6251
50.5814
50.3346
50.2425
49.9366
49.8181
49.4239
49.2247
48.7025
48.4853
47.8764
47.5777
46.6264
46.1214
44.7774
43.8568
42.2613
40.5343
38.9022
36.2513
33.8578
30.3483
26.5802
51.7893
51.3671
49.3532
47.5346
46.3563
45.8327
45.8637
46.229
46.692
47.113
47.4301
47.6337
47.7255
47.7234
47.6525
47.5458
47.4266
47.3141
47.2159
47.1376
47.078
47.0369
47.0096
46.9935
46.9832
46.9765
46.9692
46.9606
46.9479
46.9319
46.911
46.887
46.8588
46.8287
46.7957
46.7617
46.7256
46.689
46.6506
46.6121
46.5718
46.5316
46.4896
46.4476
46.4037
46.36
46.3144
46.2686
46.2206
46.1721
46.1211
46.0691
46.0141
45.9574
45.8964
45.8324
45.763
45.6892
45.6099
45.5285
45.4439
45.3604
45.2778
45.2016
45.1326
45.0747
45.0283
44.9965
44.9768
44.9725
44.9794
44.9936
45.0074
45.0205
45.0271
45.0263
45.0193
45.0088
44.9853
44.9451
44.8843
44.8023
44.6999
44.5828
44.4598
44.3373
44.2269
44.1138
44.0204
43.9386
43.9045
43.9148
43.9806
44.0801
44.2088
44.3537
44.5303
44.7223
44.9292
45.1374
45.3536
45.5601
45.7362
45.8741
45.9796
46.0632
46.1204
46.1495
46.1577
46.1467
46.1249
46.0701
45.9936
45.8948
45.796
45.7063
45.6313
45.5708
45.5329
45.5227
45.546
45.597
45.6657
45.7445
45.8173
45.8897
45.9649
46.0456
46.1471
46.2564
46.3822
46.5023
46.6371
46.7773
46.9215
47.0677
47.2408
47.4057
47.6159
47.8171
48.0523
48.3011
48.5774
48.8329
49.1478
49.3937
49.7284
49.9162
50.2129
50.2755
50.475
50.5758
50.7173
50.7716
50.9401
50.9127
51.1177
51.1337
51.3814
51.3591
51.6487
51.6223
51.9003
51.7854
52.0589
51.9958
52.1485
51.8176
51.8258
51.6862
51.714
51.625
51.6844
51.567
51.6331
51.4363
51.4532
51.1905
51.1632
50.878
50.7829
50.3843
50.1862
49.7282
49.4964
49.0047
48.7684
48.1242
47.805
46.829
46.2523
44.9903
43.9475
42.5875
40.9552
39.5024
37.1552
34.8626
31.7917
28.4109
51.8936
51.4783
49.455
47.6223
46.4335
45.9034
45.9355
46.3075
46.7798
47.2081
47.5296
47.7344
47.8248
47.8199
47.7466
47.6387
47.5204
47.4102
47.3157
47.2414
47.1864
47.1501
47.1276
47.116
47.1098
47.1066
47.1023
47.0962
47.0857
47.0718
47.0528
47.0306
47.0041
46.9754
46.9435
46.9102
46.8746
46.8381
46.7996
46.7605
46.7195
46.678
46.6347
46.5911
46.5457
46.5002
46.453
46.4056
46.3569
46.3083
46.2582
46.2082
46.1566
46.1051
46.0517
45.9976
45.94
45.8795
45.8153
45.7497
45.6815
45.6143
45.549
45.4896
45.4359
45.3925
45.3609
45.3425
45.3338
45.337
45.3475
45.3604
45.3704
45.3785
45.3793
45.3737
45.3632
45.3501
45.3261
45.2871
45.2259
45.1399
45.0313
44.9049
44.7725
44.6378
44.519
44.3995
44.3084
44.2274
44.2059
44.2191
44.297
44.3997
44.5321
44.673
44.857
45.0501
45.2612
45.4689
45.6978
45.9115
46.0957
46.2295
46.3286
46.3967
46.4403
46.4553
46.457
46.4417
46.4172
46.3616
46.2945
46.2049
46.1272
46.0567
46.0135
45.9782
45.9807
46.0037
46.0682
46.1489
46.2556
46.3587
46.4695
46.5659
46.6732
46.7688
46.8881
46.9992
47.139
47.2557
47.4045
47.5385
47.6962
47.8429
48.0282
48.1943
48.4244
48.6352
48.8957
49.1546
49.4554
49.7066
50.0451
50.2675
50.6405
50.7825
51.1095
51.0906
51.35
51.3923
51.5739
51.5723
51.7565
51.6934
51.9342
51.9021
52.1783
52.099
52.4264
52.3714
52.7151
52.5324
52.9014
52.7853
52.9767
52.5318
52.6333
52.4426
52.5436
52.3935
52.5118
52.3819
52.4704
52.2382
52.2741
51.9739
51.9653
51.6531
51.5039
51.0573
50.8709
50.4372
50.1643
49.5995
49.3079
48.6302
48.3792
47.3292
46.6198
45.4695
44.3552
43.1752
41.7064
40.28
38.1369
35.9268
33.1626
30.1229
51.9239
51.5026
49.4832
47.6744
46.5162
46.0186
46.0758
46.4556
46.9216
47.3355
47.6414
47.8313
47.9094
47.8961
47.8204
47.7147
47.6018
47.4984
47.4111
47.3436
47.2948
47.2634
47.245
47.2363
47.2324
47.2307
47.2278
47.2228
47.2137
47.2009
47.1835
47.1626
47.1377
47.1102
47.0795
47.0469
47.0119
46.9757
46.9375
46.8983
46.8572
46.815
46.7711
46.7264
46.6802
46.6339
46.5866
46.5396
46.4924
46.4456
46.3983
46.3517
46.3052
46.26
46.2147
46.1697
46.1238
46.0771
46.0284
45.9788
45.9274
45.877
45.8299
45.7878
45.7507
45.7227
45.7063
45.7001
45.7001
45.7076
45.7199
45.7316
45.7382
45.7392
45.7323
45.7219
45.7102
45.6982
45.6782
45.6441
45.5867
45.5029
45.3929
45.2613
45.1209
44.9775
44.8517
44.7316
44.6455
44.5746
44.5725
44.59
44.6817
44.7848
44.9213
45.0548
45.2481
45.4409
45.6573
45.8618
46.1052
46.3223
46.5159
46.6422
46.7316
46.7718
46.806
46.8026
46.8058
46.7883
46.769
46.7172
46.6696
46.5971
46.5544
46.5085
46.5096
46.5044
46.5559
46.6088
46.7174
46.8246
46.9739
47.0997
47.2452
47.363
47.5054
47.615
47.7542
47.8705
48.0148
48.1292
48.2877
48.4167
48.5845
48.7356
48.9277
49.1102
49.3573
49.5796
49.8592
50.1268
50.4442
50.6988
51.0384
51.2446
51.6277
51.757
52.0503
51.9926
52.3363
52.2839
52.5303
52.4432
52.6643
52.5765
52.8438
52.8134
53.0877
52.9876
53.3556
53.2923
53.6519
53.4765
53.8674
53.7373
53.9167
53.4236
53.5862
53.3732
53.5454
53.392
53.5489
53.3984
53.4984
53.2604
53.297
52.9877
52.948
52.6051
52.4006
51.9765
51.7518
51.3017
50.9555
50.436
50.1776
49.4899
49.0447
47.9725
47.1957
46.139
45.0701
43.9349
42.6015
41.1253
39.1343
37.0167
34.4788
31.7176
51.8536
51.4211
49.438
47.702
46.6202
46.196
46.2983
46.6799
47.1187
47.4941
47.7631
47.9211
47.9755
47.9498
47.8728
47.773
47.6703
47.5781
47.5018
47.4436
47.4025
47.3765
47.3616
47.3545
47.3513
47.3495
47.3466
47.3415
47.3329
47.3208
47.3046
47.2849
47.2615
47.2353
47.206
47.1746
47.141
47.1058
47.0686
47.0299
46.989
46.9466
46.9026
46.8578
46.8122
46.7668
46.7217
46.6773
46.6332
46.5897
46.547
46.5055
46.4654
46.4278
46.3918
46.3569
46.3225
46.2886
46.2552
46.2223
46.188
46.1543
46.1247
46.0998
46.08
46.0689
46.0673
46.0717
46.0795
46.0914
46.1043
46.1126
46.1134
46.1067
46.0934
46.08
46.0679
46.0574
46.0435
46.017
45.9674
45.8911
45.7859
45.6545
45.5103
45.3661
45.2385
45.1225
45.0405
44.9861
45.002
45.0298
45.1314
45.2311
45.3654
45.4968
45.7036
45.8929
46.1115
46.3136
46.574
46.791
46.9953
47.1096
47.1892
47.2022
47.2257
47.2074
47.2223
47.2012
47.1958
47.1519
47.1309
47.0845
47.0862
47.0736
47.1257
47.1602
47.2653
47.3512
47.506
47.6363
47.8206
47.9644
48.1451
48.2806
48.4566
48.5806
48.7393
48.8542
49.004
49.118
49.2824
49.4171
49.598
49.7605
49.9608
50.1617
50.4138
50.6495
50.9472
51.2168
51.5331
51.7955
52.1137
52.3308
52.6681
52.8275
53.0424
52.992
53.3586
53.2451
53.5101
53.4249
53.6952
53.5893
53.8505
53.8548
54.0521
53.9918
54.3746
54.3683
54.7332
54.6278
54.9434
54.8658
54.9416
54.4552
54.6996
54.4267
54.6809
54.5209
54.7039
54.6103
54.6773
54.4685
54.4475
54.1818
54.1134
53.6969
53.4421
53.0608
52.7764
52.3637
52.0147
51.6059
51.1022
50.3979
49.7819
48.7797
47.9913
47.0102
46.0127
44.8273
43.5785
42.0054
40.1535
38.1192
35.7646
33.2283
51.6348
51.1975
49.3221
47.7371
46.7888
46.4722
46.6189
46.9801
47.3633
47.6747
47.8859
47.9966
48.0203
47.9814
47.9059
47.8166
47.7287
47.6517
47.5892
47.5423
47.5094
47.4883
47.4757
47.4688
47.4647
47.4614
47.4572
47.451
47.442
47.4299
47.4143
47.3953
47.3731
47.3481
47.3207
47.2912
47.2597
47.2263
47.191
47.1537
47.1141
47.0726
47.0292
46.9854
46.9425
46.9008
46.8595
46.8186
46.7786
46.7402
46.703
46.6678
46.6354
46.6064
46.58
46.5563
46.5353
46.5172
46.5005
46.4827
46.464
46.4476
46.4355
46.4275
46.4255
46.4307
46.4419
46.4556
46.4704
46.4868
46.5008
46.5075
46.504
46.4894
46.4686
46.4515
46.4399
46.4337
46.4271
46.4107
46.374
46.3109
46.2156
46.0917
45.9497
45.8115
45.6839
45.5771
45.5028
45.4698
45.4928
45.5251
45.6277
45.7245
45.8553
46.0054
46.228
46.4195
46.6378
46.8467
47.1128
47.3215
47.5274
47.6349
47.7101
47.7051
47.7229
47.7004
47.7258
47.7081
47.7196
47.687
47.6959
47.6819
47.7284
47.7572
47.8616
47.9408
48.0964
48.2225
48.4162
48.5728
48.783
48.9442
49.1523
49.3057
49.5083
49.6509
49.8242
49.942
50.0949
50.213
50.3873
50.5311
50.7294
50.9077
51.1185
51.3389
51.5804
51.8295
52.1195
52.3975
52.6997
52.9809
53.249
53.486
53.7669
53.9522
54.0902
54.1588
54.4262
54.3009
54.5487
54.5128
54.7649
54.7157
54.9342
55.0144
55.076
55.1272
55.4682
55.5105
55.8814
55.9123
56.1292
56.0925
56.1214
55.6755
55.895
55.7017
55.913
55.7442
55.9627
55.9544
55.9956
55.8086
55.7305
55.4514
55.327
54.884
54.6039
54.2854
53.8986
53.6079
53.1578
52.7511
52.0819
51.5273
50.599
49.745
48.9143
48.0483
47.0785
45.8386
44.6021
42.9189
41.189
39.2088
37.0078
34.6461
51.1621
50.7491
49.1415
47.8322
47.0888
46.8851
47.0428
47.343
47.6367
47.8594
47.996
48.0521
48.0449
47.996
47.9261
47.8509
47.7805
47.7203
47.6722
47.6359
47.6099
47.592
47.5799
47.5716
47.5652
47.5594
47.5531
47.5453
47.5354
47.5229
47.5075
47.4893
47.4683
47.4449
47.4193
47.3921
47.363
47.3324
47.2999
47.265
47.2276
47.1886
47.1486
47.1082
47.0686
47.0313
46.9964
46.9625
46.9287
46.8954
46.864
46.8364
46.8136
46.7946
46.779
46.7678
46.761
46.7578
46.7577
46.7583
46.7584
46.7587
46.7623
46.7706
46.784
46.8019
46.8233
46.8459
46.8681
46.8887
46.9038
46.9086
46.9006
46.8798
46.8522
46.8297
46.8186
46.8179
46.8205
46.8166
46.796
46.7506
46.6706
46.5596
46.4291
46.3052
46.1813
46.091
46.0244
46.0071
46.0308
46.0734
46.1717
46.2618
46.3932
46.5773
46.8111
47.0102
47.2254
47.4549
47.7089
47.9115
48.1083
48.2162
48.2881
48.291
48.3
48.2858
48.318
48.3189
48.3488
48.3412
48.3735
48.395
48.4784
48.5612
48.704
48.8381
49.0257
49.1993
49.4112
49.601
49.826
50.0112
50.2354
50.4117
50.6267
50.788
50.9791
51.1026
51.2687
51.3998
51.5783
51.7434
51.9498
52.1409
52.3595
52.5828
52.8123
53.0732
53.3475
53.6284
53.9248
54.2275
54.4482
54.7088
54.9081
55.1011
55.2486
55.3922
55.5176
55.5203
55.6756
55.7397
55.9427
55.9262
56.064
56.185
56.2119
56.4003
56.5574
56.8111
57.1325
57.1864
57.3525
57.3755
57.335
57.0491
57.2278
57.1111
57.2182
57.1333
57.2948
57.3664
57.3129
57.1958
57.0581
56.8071
56.6015
56.1935
55.8669
55.5633
55.1053
54.9067
54.3568
53.9756
53.0798
52.6732
51.5251
50.8713
49.97
49.2356
48.1985
46.9401
45.6745
43.9071
42.2582
40.3028
38.2322
35.9961
50.3997
50.0797
48.9475
48.0385
47.5395
47.419
47.5309
47.7212
47.895
48.0154
48.0761
48.0841
48.0537
48.0012
47.9402
47.8801
47.8262
47.781
47.7445
47.7159
47.694
47.6771
47.664
47.6535
47.6445
47.6362
47.6278
47.6187
47.6081
47.5955
47.5803
47.5625
47.5426
47.5206
47.4969
47.4722
47.447
47.4204
47.3914
47.3601
47.3266
47.2913
47.2556
47.2211
47.1878
47.1565
47.1282
47.1028
47.0785
47.0535
47.0299
47.0122
47.0014
46.9952
46.9926
46.9946
47.002
47.014
47.028
47.0416
47.0565
47.0741
47.0944
47.1179
47.1442
47.1719
47.2003
47.2284
47.2554
47.2793
47.2948
47.2981
47.287
47.2624
47.2307
47.2048
47.1947
47.1983
47.2072
47.2121
47.2045
47.1764
47.1164
47.0251
46.9131
46.8105
46.6937
46.6314
46.5777
46.5742
46.5953
46.6577
46.7444
46.8437
46.988
47.1927
47.4177
47.6304
47.8543
48.1076
48.3421
48.5484
48.7252
48.8437
48.9095
48.9356
48.9398
48.9536
48.984
49.0186
49.0591
49.0958
49.1444
49.2137
49.3168
49.4555
49.6235
49.8102
50.0119
50.2269
50.4384
50.6641
50.8843
51.0973
51.3222
51.5325
51.7474
51.9492
52.139
52.2982
52.4598
52.6248
52.7978
52.9942
53.1922
53.4119
53.6208
53.8546
54.0742
54.3467
54.5964
54.885
55.1598
55.4582
55.6614
55.9671
56.0624
56.3257
56.3901
56.5786
56.6559
56.7706
56.8706
57.0304
57.0751
57.1508
57.2135
57.3684
57.3351
57.6814
57.7727
58.2282
58.27
58.4357
58.5409
58.65
58.6072
58.5877
58.5869
58.5363
58.5267
58.5885
58.6351
58.6988
58.6089
58.5516
58.2864
58.2254
57.7819
57.5372
57.1568
56.8819
56.4108
56.2675
55.5301
55.1062
54.132
53.8121
52.5721
52.1439
51.0784
50.417
49.2496
48.0686
46.7314
44.9506
43.3404
41.4037
39.4311
37.2731
49.5662
49.3991
48.8464
48.3738
48.0903
47.9833
47.9894
48.0412
48.0926
48.1218
48.122
48.0966
48.0538
48.0029
47.9513
47.9037
47.8621
47.8269
47.7975
47.773
47.7524
47.7351
47.7205
47.708
47.6971
47.687
47.6772
47.667
47.6558
47.6429
47.6278
47.6104
47.5913
47.5715
47.5509
47.5289
47.5062
47.4835
47.4597
47.433
47.4039
47.3748
47.3465
47.3183
47.2919
47.2702
47.2527
47.2374
47.2229
47.2088
47.1983
47.1939
47.1955
47.2015
47.2124
47.2284
47.2486
47.2723
47.2987
47.3261
47.3527
47.3793
47.4081
47.4401
47.4735
47.5064
47.5388
47.57
47.5988
47.6217
47.6352
47.6386
47.6307
47.6099
47.5802
47.5547
47.5444
47.5482
47.5604
47.5714
47.5734
47.559
47.5165
47.4473
47.3617
47.2941
47.2012
47.1677
47.1245
47.1416
47.1692
47.2585