/*--------------------------------*- C++ -*----------------------------------*\
| =========                 |                                                 |
| \\      /  F ield         | OpenFOAM: The Open Source CFD Toolbox           |
|  \\    /   O peration     | Version:  2.4.0                                 |
|   \\  /    A nd           | Web:      www.OpenFOAM.org                      |
|    \\/     M anipulation  |                                                 |
\*---------------------------------------------------------------------------*/
FoamFile
{
    version     2.0;
    format      ascii;
    class       volScalarField;
    location    "1.88";
    object      k;
}
// * * * * * * * * * * * * * * * * * * * * * * * * * * * * * * * * * * * * * //

dimensions      [0 2 -2 0 0 0 0];

internalField   nonuniform List<scalar> 
8800
(
8.10896
10.2837
8.77673
6.84853
5.67579
5.00919
4.48927
4.18729
3.86394
3.72531
3.48447
3.42364
3.24288
3.21486
3.05359
3.03896
2.90514
2.88334
2.84487
2.63907
1.38864
4.36872
5.30706
5.29517
5.10694
4.85655
4.5303
4.33932
4.06099
3.94696
3.71113
3.63933
3.4706
3.42285
3.28628
3.25302
3.14474
3.11004
3.01315
3.02342
0.0831816
0.749226
1.54189
1.96524
2.24313
2.47255
2.54477
2.62388
2.61426
2.60938
2.57608
2.55801
2.5084
2.48787
2.44948
2.41827
2.38915
2.36019
2.30315
2.28663
0.00327139
0.0714864
0.246976
0.431706
0.571905
0.718786
0.823271
0.934852
1.03224
1.0838
1.16826
1.20754
1.26739
1.29073
1.34792
1.36017
1.40228
1.40443
1.41671
1.40306
0.00011803
0.00507998
0.0239486
0.0481083
0.0875213
0.124637
0.16459
0.200139
0.253452
0.276245
0.325466
0.348924
0.397027
0.418129
0.467391
0.487178
0.535215
0.551448
0.59306
0.596215
2.55545e-05
0.000323946
0.00167966
0.00347266
0.00758774
0.0115322
0.0190523
0.0245459
0.0360985
0.0414755
0.0533447
0.060298
0.0744076
0.0816077
0.0968382
0.107094
0.119219
0.132661
0.147746
0.159787
2.20853e-05
4.65902e-05
0.000139848
0.00027186
0.00042228
0.000813609
0.00122147
0.00209102
0.00271745
0.0036865
0.00444796
0.00615076
0.00712595
0.00929132
0.0106162
0.0135541
0.0151274
0.0188046
0.0209022
0.0264907
2.14071e-05
3.49892e-05
5.03798e-05
7.78301e-05
8.74059e-05
0.000109352
0.000125743
0.000187526
0.00021886
0.000291354
0.000323567
0.000439606
0.000487198
0.000663803
0.000727496
0.000991462
0.00109365
0.00150018
0.00174349
0.0028369
2.08777e-05
2.74834e-05
4.51176e-05
5.97888e-05
6.58609e-05
7.56255e-05
7.60847e-05
7.77947e-05
8.06617e-05
8.80054e-05
9.01417e-05
9.89167e-05
0.000102178
0.000110008
0.000109292
0.0001196
0.000125285
0.000147973
0.000160094
0.000229344
2.05619e-05
2.70354e-05
4.29897e-05
6.01822e-05
6.08646e-05
6.10031e-05
6.56693e-05
6.96104e-05
6.95302e-05
6.9625e-05
7.01128e-05
7.43497e-05
7.74151e-05
7.84916e-05
7.77603e-05
7.77902e-05
7.76876e-05
7.79301e-05
7.90173e-05
8.40231e-05
2.06225e-05
2.67892e-05
3.71526e-05
6.2958e-05
6.7459e-05
6.74048e-05
6.43608e-05
6.30339e-05
6.4672e-05
7.38616e-05
7.66627e-05
7.80499e-05
7.77992e-05
7.7255e-05
7.68627e-05
7.78656e-05
7.84278e-05
7.98768e-05
8.18803e-05
8.94421e-05
2.07944e-05
2.74467e-05
4.51537e-05
6.74471e-05
6.72588e-05
6.50652e-05
6.58254e-05
7.60128e-05
8.63565e-05
9.197e-05
9.24572e-05
9.3479e-05
9.53789e-05
0.000102704
0.000108221
0.000122725
0.00013285
0.000142683
0.000168288
0.000238881
2.10536e-05
3.0106e-05
4.50407e-05
8.05847e-05
9.03867e-05
0.000111842
0.000130929
0.000174227
0.000205282
0.000289728
0.000332608
0.000447119
0.000519917
0.000666433
0.000753858
0.00101576
0.00119668
0.00152733
0.00196851
0.00297986
2.16221e-05
4.26141e-05
0.000123551
0.000386519
0.000526474
0.000848636
0.001179
0.00195169
0.00253788
0.00406442
0.00478865
0.00649681
0.00747651
0.00965152
0.0108753
0.0141205
0.0160605
0.0205173
0.02357
0.0318985
2.49918e-05
0.000305624
0.00151091
0.00513312
0.00732346
0.0124095
0.0169898
0.0263825
0.0323567
0.0461456
0.0519761
0.0648695
0.0715805
0.0864848
0.0939266
0.112529
0.122123
0.144717
0.158056
0.193947
0.000123969
0.00491832
0.0224004
0.0600878
0.0819877
0.123015
0.163463
0.204555
0.238877
0.294746
0.316068
0.361321
0.384309
0.433026
0.45464
0.507564
0.53177
0.590146
0.619417
0.69494
0.00337122
0.0692706
0.261324
0.423181
0.576221
0.70345
0.841578
0.922792
1.02336
1.10616
1.15232
1.21565
1.25885
1.30844
1.33173
1.38407
1.40488
1.4562
1.47796
1.53013
0.0845853
0.725163
1.57112
1.93842
2.27708
2.43283
2.58304
2.5944
2.62642
2.60045
2.58792
2.5392
2.52516
2.47557
2.46106
2.41989
2.41028
2.38186
2.37108
2.34507
1.40563
4.34875
5.32268
5.28499
5.13263
4.79695
4.58698
4.27777
4.12996
3.86661
3.77991
3.57778
3.51942
3.36677
3.32959
3.1982
3.16954
3.05128
3.0103
2.90627
8.1181
10.263
8.79753
6.8105
5.71992
4.95632
4.53761
4.13206
3.92656
3.6456
3.55617
3.34759
3.30065
3.1309
3.10236
2.93739
2.9027
2.72456
2.65894
2.43684
1.86114
1.35351
1.04647
0.860898
0.759905
0.705929
0.674883
0.653804
0.636238
0.623075
0.610017
0.598525
0.589916
0.576809
0.570063
0.555365
0.546626
0.536024
0.528805
0.521966
0.518169
0.513541
0.5076
0.498899
0.483834
0.466212
0.443376
0.421432
0.396428
0.374368
0.350566
0.327428
0.302265
0.279473
0.253516
0.228267
0.205433
0.183614
0.167842
0.152161
0.138728
0.126108
0.115985
0.107042
0.0998106
0.094677
0.0876944
0.0845921
0.0849779
0.0875423
0.0937894
0.107137
0.125075
0.141283
0.168577
0.193552
0.220429
0.241778
0.264031
0.286203
0.299453
0.315301
0.321143
0.332112
0.335466
0.343278
0.346941
0.354864
0.357893
0.362072
0.36494
0.369993
0.37277
0.378042
0.377565
0.379359
0.375099
0.378397
0.370661
0.373315
0.364892
0.363666
0.358286
0.349117
0.341022
0.334466
0.315552
0.309927
0.298388
0.288555
0.286244
0.277265
0.277699
0.277289
0.279328
0.279728
0.283495
0.280943
0.281145
0.275896
0.273141
0.263817
0.259173
0.246269
0.235085
0.207586
0.184269
0.147271
0.109716
0.0716251
0.045306
0.0288027
0.0177971
0.0114192
0.00768964
0.00545958
0.00457984
0.00385594
0.00382446
0.00379129
0.00384458
0.0039684
0.00432399
0.00487687
0.00632855
0.00754888
0.0104239
0.0123871
0.0156164
0.0194966
0.0218423
0.0269708
0.0304386
0.0372419
0.0417036
0.0501275
0.0598095
0.0705557
0.0825612
0.0969471
0.101951
0.100636
0.0964995
0.0858558
0.0752836
0.0611484
0.0495695
0.0490502
0.0486264
0.0466821
0.0408378
0.0256229
0.0214731
0.0223195
0.0295452
0.0645986
0.116859
0.141509
0.143341
0.13609
0.106557
0.091076
0.088846
0.0863902
0.0878484
0.0816718
0.076109
0.0616934
0.0648314
0.0598291
0.0720564
0.0659044
0.0757649
0.0713828
0.0789672
0.0739449
0.0742843
0.0703071
0.0694611
0.0653867
0.0642108
0.0584559
0.0569167
0.0533282
0.0548244
0.0565235
0.0683892
0.0718895
0.0850247
0.0855651
0.0988203
0.0979806
0.12562
0.127585
0.187114
0.182788
0.314814
0.288721
0.505783
0.668644
2.58066
2.12348
1.78092
1.52907
1.34221
1.19879
1.09646
1.01742
0.956798
0.905572
0.863535
0.826626
0.796415
0.769874
0.747367
0.727806
0.707869
0.692704
0.6761
0.664764
0.650782
0.644113
0.632745
0.627804
0.617679
0.612205
0.601392
0.594818
0.583212
0.574565
0.563277
0.552649
0.540654
0.52692
0.512534
0.495276
0.477452
0.453814
0.428155
0.399148
0.367833
0.335583
0.303851
0.276476
0.252165
0.236922
0.222653
0.221427
0.224197
0.231155
0.247703
0.262687
0.284408
0.301968
0.319685
0.332171
0.343328
0.351166
0.356456
0.360585
0.361467
0.362552
0.362913
0.36289
0.362758
0.363091
0.362849
0.362813
0.36366
0.363721
0.365185
0.369623
0.370118
0.376828
0.377011
0.381843
0.381366
0.385561
0.384052
0.385267
0.385501
0.381935
0.382124
0.379236
0.374399
0.372219
0.365653
0.361133
0.356896
0.345641
0.343627
0.337953
0.333869
0.324728
0.32069
0.310258
0.305979
0.292852
0.285128
0.266414
0.255912
0.230399
0.213992
0.181258
0.148154
0.112044
0.0769018
0.0516631
0.0336959
0.0220914
0.0140377
0.00954818
0.00634478
0.00479961
0.00390475
0.00346491
0.00337942
0.00339258
0.00355872
0.00371616
0.00418578
0.00493134
0.00674271
0.008367
0.012013
0.0145173
0.0200899
0.0232918
0.0297008
0.0349482
0.039684
0.0489579
0.0557334
0.0649158
0.075003
0.0911154
0.108419
0.131909
0.159844
0.182615
0.187109
0.182912
0.171967
0.145925
0.12242
0.0979834
0.0715113
0.0573658
0.054882
0.0522626
0.0498312
0.0392335
0.0258036
0.0239115
0.0262205
0.0414349
0.0889579
0.122597
0.132898
0.131842
0.121377
0.0937454
0.0895633
0.0834062
0.0864245
0.0829365
0.0808076
0.0686576
0.0716149
0.0652266
0.068663
0.0661539
0.0692963
0.0683643
0.0683777
0.0683709
0.0673993
0.0638888
0.0618691
0.0574806
0.055397
0.0506718
0.0500619
0.0501116
0.0512398
0.0554212
0.066735
0.0723682
0.0843114
0.0858735
0.0955823
0.0944499
0.111434
0.117986
0.162432
0.187796
0.312094
0.350124
0.459506
0.6145
2.07424
1.84414
1.63641
1.4618
1.32162
1.20519
1.11129
1.03744
0.972255
0.921838
0.871781
0.83464
0.795011
0.766617
0.736318
0.714795
0.692176
0.674061
0.65651
0.641631
0.627257
0.615242
0.604854
0.595377
0.586632
0.580016
0.571681
0.566483
0.559907
0.555072
0.552006
0.546693
0.544888
0.540734
0.538055
0.534403
0.530192
0.526312
0.520149
0.513299
0.50368
0.49339
0.476962
0.464476
0.447572
0.432159
0.421596
0.407794
0.402863
0.39583
0.393025
0.388926
0.388361
0.386756
0.386041
0.383487
0.381533
0.376804
0.374014
0.366374
0.362409
0.353107
0.348453
0.337573
0.332443
0.321637
0.317034
0.307939
0.304207
0.298759
0.294707
0.294388
0.293297
0.294831
0.296547
0.298777
0.305547
0.307743
0.314734
0.316924
0.324089
0.326156
0.331345
0.332872
0.332845
0.334266
0.332662
0.330612
0.326686
0.323137
0.31439
0.309472
0.297383
0.287031
0.276931
0.261499
0.240239
0.225533
0.203251
0.175663
0.149459
0.120555
0.0900753
0.0648875
0.0463297
0.0323044
0.0218794
0.0151367
0.00997332
0.0071401
0.00493001
0.00400422
0.00320247
0.00304799
0.00295884
0.0030349
0.00316401
0.00341364
0.00407937
0.00490391
0.00706743
0.00903966
0.0136214
0.0168973
0.0241812
0.0287454
0.038826
0.0442862
0.0557546
0.0617874
0.0740516
0.0846801
0.0959436
0.108641
0.130695
0.151567
0.197121
0.249202
0.287473
0.287027
0.277516
0.257376
0.242528
0.216759
0.181004
0.149507
0.110927
0.0780954
0.0627993
0.0580449
0.0546638
0.0504312
0.0341591
0.0262846
0.0262565
0.0322414
0.0622179
0.0994799
0.11983
0.124152
0.120235
0.104486
0.0918483
0.0829856
0.0848341
0.0861363
0.0896335
0.0826864
0.079009
0.0696672
0.0687161
0.0658642
0.0646103
0.0652688
0.0642885
0.0650126
0.0646267
0.0640788
0.0626586
0.059434
0.0549536
0.0516646
0.0518844
0.0518839
0.0546017
0.0585599
0.0688093
0.0728117
0.079673
0.081137
0.0802857
0.0812546
0.0791672
0.0850436
0.0844496
0.113177
0.121791
0.24557
0.291816
0.440711
1.31213
1.2161
1.12052
1.03453
0.958716
0.892805
0.832912
0.786761
0.741792
0.709216
0.673442
0.646012
0.616413
0.589567
0.566889
0.543607
0.527483
0.509956
0.498043
0.484297
0.475111
0.462736
0.454923
0.44626
0.438145
0.433706
0.427052
0.422791
0.419368
0.415057
0.413756
0.413801
0.41478
0.416805
0.42077
0.425657
0.430214
0.436715
0.439882
0.444467
0.446127
0.445981
0.444341
0.440086
0.435589
0.426747
0.419726
0.411759
0.401589
0.396085
0.384386
0.375161
0.366893
0.352722
0.345747
0.331647
0.321462
0.306718
0.295015
0.278574
0.268734
0.247878
0.238907
0.221699
0.209415
0.197367
0.183848
0.176744
0.168982
0.160384
0.156704
0.152982
0.148592
0.148507
0.149555
0.151286
0.156621
0.160548
0.169605
0.174271
0.18093
0.188386
0.191188
0.198121
0.200034
0.203739
0.204848
0.204379
0.20254
0.199655
0.190946
0.185278
0.173411
0.160619
0.145315
0.130323
0.109925
0.0922139
0.0734247
0.0574641
0.0439366
0.0329786
0.0241737
0.0175001
0.012497
0.0089981
0.00638005
0.00485228
0.00359466
0.00308914
0.00265094
0.00259304
0.00258323
0.00269743
0.00283436
0.00325348
0.0039376
0.00511444
0.00747076
0.00982833
0.0151914
0.0191272
0.0283184
0.0343514
0.0484708
0.0565952
0.0747313
0.0829292
0.0998657
0.107729
0.124501
0.133275
0.153222
0.170105
0.197184
0.259862
0.34305
0.357568
0.345822
0.319745
0.287959
0.260473
0.245451
0.233608
0.211309
0.18628
0.151971
0.107069
0.0761141
0.0623099
0.0581151
0.0544356
0.0439364
0.0297869
0.0274463
0.0290724
0.0404915
0.0794875
0.1038
0.111187
0.116593
0.107482
0.102153
0.0883234
0.0979871
0.0950679
0.0977439
0.0922938
0.0893234
0.077981
0.0754817
0.0712283
0.0692094
0.0697903
0.0697096
0.0713888
0.0703324
0.0704505
0.0670064
0.0642694
0.0577804
0.0567458
0.0569841
0.0586792
0.0603204
0.0723192
0.0756733
0.0876259
0.0837464
0.0872945
0.0796923
0.0807737
0.0748534
0.0765109
0.0732711
0.0824904
0.0866271
0.134868
0.154694
0.253884
0.573036
0.547942
0.517142
0.486352
0.463446
0.436074
0.417457
0.39633
0.38165
0.366874
0.355356
0.343081
0.332871
0.318916
0.306763
0.293819
0.280743
0.271519
0.262602
0.255982
0.252548
0.246757
0.244253
0.240686
0.236165
0.23474
0.23198
0.229825
0.229288
0.228285
0.227298
0.226352
0.226423
0.227414
0.229009
0.232391
0.236995
0.242982
0.250817
0.25758
0.263182
0.271452
0.275254
0.278896
0.281725
0.280953
0.278614
0.274439
0.264798
0.259292
0.246734
0.23602
0.225617
0.208389
0.198929
0.183577
0.167146
0.159035
0.140908
0.129581
0.119355
0.103996
0.0966937
0.0857581
0.0766734
0.0720193
0.0640432
0.0602443
0.0570392
0.0532073
0.0520829
0.0504585
0.0487296
0.0477363
0.0465626
0.0466039
0.0471312
0.0479556
0.0507129
0.0525786
0.0567004
0.060814
0.0626374
0.0672229
0.0684307
0.0697166
0.0699854
0.0692053
0.0676152
0.0657527
0.0613692
0.0569719
0.0522975
0.0458561
0.0397641
0.0337686
0.0278116
0.0224153
0.0177698
0.0137361
0.0105176
0.00792719
0.00605472
0.00460015
0.00362864
0.00290151
0.00251878
0.00225152
0.00219831
0.00222816
0.002267
0.00242413
0.00266878
0.00332526
0.00412283
0.00607598
0.00781968
0.0121063
0.0155212
0.0224785
0.031337
0.0397205
0.0570713
0.069386
0.0964104
0.110013
0.138708
0.147569
0.166276
0.172629
0.186569
0.19567
0.218125
0.242711
0.323105
0.404058
0.410444
0.389791
0.340233
0.288196
0.2482
0.220118
0.205858
0.20304
0.198837
0.187251
0.170833
0.137913
0.098688
0.0714317
0.0604879
0.0569909
0.0505354
0.0371244
0.0297014
0.0297655
0.0334936
0.0500692
0.0912615
0.101637
0.111682
0.111841
0.113232
0.103183
0.10252
0.0984726
0.097982
0.0970972
0.0959833
0.0919902
0.0869489
0.0851701
0.0812654
0.080742
0.076993
0.0762179
0.0719252
0.0705048
0.0647717
0.0624222
0.0573698
0.0565036
0.0548152
0.0575289
0.0580943
0.0698949
0.071392
0.0787739
0.0750162
0.0754961
0.0719103
0.071387
0.0703113
0.0716029
0.0725305
0.0784647
0.0796568
0.104959
0.114157
0.170589
0.155613
0.151011
0.143381
0.135188
0.131444
0.124165
0.121147
0.116264
0.114386
0.111096
0.109704
0.107556
0.106303
0.104801
0.101254
0.0989884
0.0934193
0.0905711
0.0866519
0.0844091
0.0831305
0.0814918
0.0813531
0.0812499
0.0812961
0.0813285
0.080998
0.0810044
0.0811894
0.0816692
0.08262
0.0839868
0.084544
0.0857131
0.0867268
0.0876433
0.0902461
0.0920961
0.0959546
0.100267
0.10342
0.108331
0.109856
0.112694
0.113533
0.113119
0.112102
0.109744
0.105903
0.103187
0.0965114
0.0917146
0.0862155
0.0779621
0.0728525
0.0653705
0.0579674
0.0532227
0.0459443
0.0413893
0.0371171
0.0323456
0.0295403
0.026332
0.023228
0.021631
0.0189972
0.0175116
0.016421
0.0152203
0.0149309
0.014459
0.0139895
0.0137902
0.0130911
0.0125342
0.0120814
0.0119963
0.0121283
0.0123209
0.0130171
0.0137836
0.0146748
0.0161106
0.0166223
0.0167442
0.0167144
0.0164884
0.0158154
0.0148576
0.0137245
0.0124762
0.0111236
0.00988374
0.00836337
0.00712229
0.00586713
0.00481697
0.00383475
0.00308762
0.00252357
0.00208689
0.00184181
0.00163658
0.00164717
0.00169399
0.00178156
0.00187115
0.00211912
0.00242161
0.00291583
0.00397193
0.00512619
0.00740665
0.00963887
0.0144397
0.0180495
0.0267517
0.0334047
0.0484489
0.0592961
0.0840871
0.109722
0.144351
0.183485
0.208268
0.226908
0.229214
0.240522
0.243479
0.251956
0.263164
0.290234
0.359859
0.455516
0.450292
0.427827
0.370188
0.301046
0.247997
0.206872
0.180728
0.170898
0.170548
0.172507
0.173767
0.168028
0.151205
0.118759
0.0855935
0.0656025
0.0587231
0.0540332
0.0409641
0.0316657
0.0305919
0.0327114
0.0393022
0.0641081
0.0915016
0.104255
0.108614
0.111022
0.104635
0.102449
0.0988224
0.0965431
0.0961142
0.0957907
0.0937323
0.0908431
0.0870522
0.0847406
0.0814579
0.0791989
0.0753054
0.0721367
0.0669738
0.0635095
0.058533
0.0554953
0.0523119
0.0511165
0.0519825
0.0540758
0.0626285
0.0660581
0.071052
0.0705845
0.0698993
0.0684412
0.0700534
0.0702719
0.0716976
0.0765089
0.0871475
0.0876743
0.0983918
0.0975311
0.112174
0.0258957
0.0250871
0.0235164
0.0222437
0.0214711
0.0206517
0.0202724
0.0197234
0.0195346
0.0193461
0.0193683
0.019385
0.0195646
0.0196962
0.0196915
0.0197292
0.0192004
0.0187743
0.0179063
0.0173389
0.0169972
0.0167145
0.0167871
0.0168362
0.0170163
0.0173825
0.0175911
0.0181115
0.018456
0.0189252
0.0195041
0.0204989
0.0209215
0.0217394
0.0222863
0.0226885
0.0237623
0.0242933
0.0255237
0.0268951
0.0287003
0.0310007
0.0316991
0.0333184
0.0337797
0.0336934
0.0333914
0.032254
0.0312829
0.0298799
0.0283562
0.0268872
0.0250552
0.0230509
0.0209944
0.0188283
0.0165615
0.0145746
0.0127268
0.0110057
0.0098392
0.00857222
0.00763467
0.0068732
0.005983
0.00544755
0.00480286
0.00431086
0.00401458
0.00374243
0.00367736
0.00361701
0.00356211
0.0035226
0.00333243
0.0031211
0.00286194
0.00269229
0.00265815
0.00264846
0.00266799
0.00281276
0.00312489
0.00349422
0.00374746
0.00384542
0.00385726
0.00383095
0.00366019
0.00332695
0.00301916
0.00273862
0.00234375
0.00209908
0.00177509
0.00154497
0.00131207
0.00117338
0.00104166
0.0009917
0.000999814
0.00104534
0.00113096
0.00122101
0.00148391
0.00178566
0.00231483
0.00290441
0.0042768
0.00548819
0.00770508
0.0100262
0.0140467
0.0174325
0.0241672
0.0319107
0.0388929
0.0552182
0.0674206
0.0912347
0.116015
0.1731
0.219582
0.272883
0.27908
0.276531
0.265359
0.265495
0.273162
0.277103
0.299052
0.316283
0.38596
0.466508
0.465442
0.439611
0.413854
0.346723
0.261174
0.201108
0.169487
0.149607
0.145142
0.146221
0.152099
0.15545
0.156328
0.149973
0.131499
0.09931
0.0737302
0.0618442
0.055558
0.0471737
0.0362448
0.0323072
0.0336632
0.0375276
0.0464746
0.07064
0.0900496
0.0973565
0.101624
0.101279
0.0995125
0.0976012
0.094441
0.0923358
0.0923524
0.0919303
0.0905423
0.0866183
0.0839095
0.0799762
0.0776747
0.072863
0.0698334
0.0651917
0.0627935
0.0583479
0.056039
0.0546942
0.0546815
0.0596382
0.0639577
0.0701609
0.0699889
0.0723072
0.0700692
0.070365
0.0654595
0.0681067
0.067844
0.0740761
0.0760914
0.0965734
0.0966443
0.0976826
0.0930544
0.0934515
0.00280516
0.00273826
0.00258906
0.0024687
0.00236736
0.00228463
0.00221208
0.00215716
0.0021466
0.00214265
0.00215517
0.002173
0.00224903
0.00230893
0.00235038
0.00239551
0.00239197
0.00239942
0.0023567
0.00229143
0.00221391
0.00213084
0.00213341
0.00212455
0.0021519
0.00222003
0.00227312
0.00246698
0.00255365
0.00268807
0.00283133
0.00301595
0.00330456
0.00347237
0.00365612
0.00386771
0.0040362
0.00419191
0.00461362
0.00486594
0.0054602
0.00598369
0.00622506
0.00667515
0.00683455
0.00688116
0.00683136
0.006703
0.00646396
0.00622029
0.00601577
0.00556467
0.0053009
0.00483707
0.00437746
0.00399758
0.00343671
0.00303986
0.00260692
0.00222199
0.00196804
0.00169146
0.00149467
0.00133346
0.00115416
0.00104598
0.000922442
0.000830598
0.000776792
0.000725331
0.000717859
0.000718245
0.000723124
0.000725756
0.00069342
0.000647494
0.000590274
0.000537133
0.000508932
0.00049367
0.000489091
0.000499821
0.000557584
0.000626147
0.000699712
0.000737096
0.000753299
0.000752597
0.000742006
0.000692614
0.000655647
0.00063821
0.000609828
0.000609246
0.000611525
0.000618555
0.000640093
0.000666103
0.000758573
0.000861656
0.000992537
0.00130898
0.00179303
0.0022305
0.00334645
0.00479352
0.00638509
0.00882016
0.011786
0.0158787
0.0193299
0.0269736
0.0318192
0.0406594
0.0529605
0.0630514
0.0814707
0.104345
0.127474
0.170977
0.246723
0.333732
0.334427
0.329562
0.307383
0.289753
0.268568
0.273488
0.282156
0.303389
0.318092
0.349619
0.443614
0.458245
0.421876
0.430142
0.404487
0.315154
0.222332
0.171493
0.145346
0.126688
0.122717
0.123492
0.128518
0.139653
0.143677
0.143013
0.134692
0.110392
0.081189
0.067771
0.0588773
0.0513186
0.0405155
0.0365769
0.0362158
0.0384699
0.0448882
0.0528172
0.0692366
0.0870758
0.088631
0.0922641
0.0909487
0.0912128
0.0887706
0.0872972
0.0833761
0.0834746
0.0816649
0.0801553
0.0757136
0.07308
0.0686578
0.0665192
0.0633417
0.0614176
0.0583938
0.0581219
0.0578407
0.0604646
0.0623245
0.0687863
0.0693642
0.0709367
0.0696459
0.0694285
0.0642829
0.0598368
0.0571193
0.0571097
0.0575624
0.0609344
0.0614349
0.0669183
0.0742524
0.0876937
0.0888149
0.0903707
0.000233657
0.000234736
0.000237262
0.000236527
0.000234577
0.000230393
0.000223241
0.000212291
0.000206049
0.000202927
0.000203445
0.000205065
0.000211347
0.000218249
0.000225496
0.000234563
0.000240189
0.0002456
0.000246578
0.00024456
0.000235611
0.000223985
0.00022069
0.000216238
0.000218368
0.00022293
0.00022774
0.000251508
0.000260908
0.000279536
0.000298253
0.000317194
0.000367408
0.00038807
0.000427762
0.000463279
0.000485809
0.000543627
0.0005781
0.000632793
0.000713229
0.000756089
0.000821828
0.000853394
0.000862392
0.000888043
0.000906813
0.00090635
0.000898805
0.000881952
0.000838554
0.000786678
0.000739774
0.000669617
0.000635561
0.000568692
0.00051424
0.000457396
0.000398498
0.000360814
0.00032258
0.000300943
0.000282188
0.000264788
0.000259893
0.000249475
0.000244952
0.000242257
0.000238945
0.000238878
0.000239053
0.000241677
0.000245283
0.000245817
0.000244892
0.000239102
0.0002358
0.000234808
0.000234972
0.000236833
0.000236833
0.000240143
0.000243721
0.000249424
0.000261511
0.0002674
0.000281797
0.000295534
0.0003297
0.000355725
0.000392042
0.000499439
0.000555758
0.000662306
0.000764206
0.00100985
0.00120879
0.00143858
0.00206814
0.00251724
0.0034115
0.00428918
0.00645456
0.00804253
0.0104316
0.0157739
0.0188554
0.0252047
0.0300934
0.0402626
0.0474576
0.0595873
0.069682
0.0876643
0.101106
0.126337
0.15668
0.186635
0.24278
0.36832
0.41695
0.403682
0.361965
0.33174
0.271345
0.238815
0.223566
0.235582
0.258789
0.27945
0.289438
0.383652
0.419443
0.433664
0.406233
0.433811
0.401011
0.303803
0.209517
0.158725
0.134375
0.116808
0.112757
0.112869
0.114652
0.122163
0.132086
0.135107
0.132298
0.117988
0.0894908
0.0761324
0.0617541
0.0582324
0.0463266
0.038338
0.0346358
0.0357227
0.042214
0.0478534
0.0537828
0.0696304
0.0826569
0.0850298
0.0844404
0.0848653
0.0833987
0.0832311
0.0796288
0.0784691
0.0757223
0.0742657
0.0715086
0.0688108
0.066373
0.0649504
0.0624255
0.0620263
0.061694
0.0630441
0.0639944
0.0678135
0.0678492
0.068435
0.0678462
0.0668896
0.0643804
0.059683
0.056536
0.0546796
0.0550642
0.0562979
0.056767
0.0617527
0.064034
0.0678568
0.0705738
0.0771046
0.0777113
0.0789772
8.80212e-05
9.00461e-05
9.45023e-05
9.6287e-05
9.63414e-05
9.63862e-05
9.71508e-05
9.77473e-05
9.701e-05
9.55058e-05
9.51021e-05
9.63185e-05
9.88888e-05
0.000100849
0.000100998
0.00010019
9.82348e-05
9.68716e-05
9.63257e-05
9.63583e-05
9.64334e-05
9.68265e-05
9.6972e-05
9.70055e-05
9.70181e-05
9.7088e-05
9.76898e-05
9.94458e-05
0.00010008
0.00010171
0.000102447
0.000103512
0.000106109
0.000107389
0.000111101
0.000113219
0.000116208
0.000120236
0.000122239
0.000128209
0.000132856
0.000136889
0.000142225
0.000144237
0.00014598
0.000152555
0.000158396
0.00016121
0.000162156
0.000160922
0.000159324
0.000155359
0.000152362
0.000152392
0.000151451
0.000151681
0.00015268
0.000154972
0.0001588
0.000168334
0.000174461
0.000184549
0.000197475
0.000205073
0.000224493
0.000240924
0.000258819
0.000291109
0.000302136
0.000325841
0.000334661
0.000340957
0.000356341
0.000358885
0.000371417
0.000383655
0.000404414
0.000451401
0.000482429
0.000526752
0.000537404
0.000549636
0.000553073
0.000557792
0.000572008
0.000588879
0.000633724
0.000689774
0.00083416
0.000955492
0.00117765
0.00162826
0.00188791
0.00244547
0.00291176
0.00396341
0.00467394
0.00579468
0.00783173
0.00930759
0.0124225
0.0150269
0.0207749
0.0251286
0.0315454
0.0427465
0.0499254
0.0620237
0.0749946
0.0898292
0.109072
0.121325
0.148584
0.166259
0.197187
0.236479
0.26928
0.338562
0.477008
0.495099
0.467598
0.390302
0.281448
0.213606
0.169538
0.153146
0.156494
0.192003
0.216401
0.241515
0.305778
0.401926
0.363066
0.376523
0.394486
0.444001
0.416982
0.305504
0.205207
0.148786
0.122916
0.111239
0.108593
0.107192
0.110457
0.113389
0.122136
0.125188
0.127539
0.124636
0.101219
0.0834044
0.0731466
0.0618285
0.0535918
0.0426136
0.0356264
0.0335946
0.0347059
0.0381181
0.0439142
0.0507452
0.0659489
0.0774048
0.0811406
0.0820899
0.0822419
0.081822
0.0793552
0.077703
0.0747444
0.0722133
0.070994
0.0680829
0.0665893
0.0662204
0.065437
0.0659561
0.0660872
0.0666606
0.0666307
0.0667831
0.0663542
0.0654716
0.0643979
0.0602117
0.0582349
0.0553668
0.0543719
0.0542939
0.0545541
0.0584065
0.0615055
0.0675606
0.0713034
0.0797153
0.0823772
0.0833767
0.0834595
0.0825244
9.05996e-05
9.21041e-05
9.62382e-05
0.000100143
9.96842e-05
9.74415e-05
9.4781e-05
9.42492e-05
9.44926e-05
0.000100342
0.000113827
0.000123931
0.000128453
0.000130075
0.000128162
0.000122432
0.000113991
0.000106823
0.000102805
9.97635e-05
9.86216e-05
9.91379e-05
0.000105725
0.000117813
0.000125443
0.000130245
0.000132234
0.000131832
0.000129671
0.000122804
0.000118158
0.000114036
0.000110614
0.00011007
0.000109399
0.000109456
0.000111898
0.000113162
0.000117631
0.000119128
0.000119853
0.00012103
0.000120585
0.000120882
0.000120594
0.000120562
0.00012141
0.00012261
0.000124589
0.000129296
0.00013352
0.000141391
0.000151971
0.000161698
0.000189821
0.000215286
0.000251215
0.000319661
0.000358651
0.000445941
0.000511724
0.000578857
0.000697418
0.00075582
0.000890835
0.00099386
0.001104
0.00125912
0.00131068
0.0014174
0.00147157
0.00151757
0.00161852
0.00164445
0.00173497
0.00179575
0.00188658
0.00203643
0.00211986
0.00229583
0.00235293
0.00245246
0.00250802
0.00258346
0.00276981
0.00287716
0.00312008
0.0033743
0.00396259
0.00440468
0.00533795
0.00669872
0.00752684
0.00951494
0.0110197
0.0141755
0.0162635
0.0206271
0.0249428
0.0305772
0.0383466
0.0460965
0.0587681
0.0690985
0.0868416
0.103576
0.122876
0.143189
0.168405
0.193439
0.218308
0.244342
0.273487
0.302569
0.345565
0.371968
0.426718
0.557471
0.567882
0.522194
0.368619
0.223855
0.161714
0.141511
0.126187
0.122998
0.131482
0.179783
0.209191
0.257282
0.333877
0.376472
0.322118
0.317259
0.321665
0.456394
0.471928
0.348268
0.205748
0.143553
0.119987
0.116685
0.1122
0.104604
0.105652
0.108566
0.112631
0.123144
0.121272
0.124815
0.115416
0.108185
0.0974858
0.070356
0.0627266
0.0465685
0.0434311
0.0351881
0.0353502
0.0354565
0.0382914
0.0409599
0.045977
0.0618184
0.0669551
0.0749049
0.0775291
0.0781658
0.0773037
0.0760952
0.0735014
0.0712713
0.0704863
0.0679096
0.0671764
0.0666258
0.065889
0.0657612
0.065662
0.0653941
0.0653286
0.0648649
0.0644541
0.0620637
0.0591847
0.0566847
0.0551399
0.0549671
0.0554818
0.0576341
0.0625514
0.068992
0.0777507
0.0859329
0.0915307
0.09249
0.0921001
0.0884402
0.0857129
0.0824317
0.000247774
0.00024711
0.000242744
0.000230293
0.000220591
0.000216708
0.00022123
0.000232632
0.000269365
0.000350776
0.000460953
0.000561367
0.000608251
0.000629345
0.000614629
0.000560864
0.000488249
0.000422262
0.000390096
0.000359333
0.000352266
0.00035894
0.000415713
0.00052131
0.000580546
0.000626017
0.000641045
0.000642118
0.000637708
0.000595711
0.000555612
0.000510911
0.000474273
0.000450784
0.000432234
0.000427461
0.000426917
0.000430933
0.000440915
0.000444831
0.000451056
0.000455666
0.000460608
0.000469786
0.000474346
0.000480248
0.000490568
0.000509146
0.000531423
0.000584226
0.000629462
0.000721602
0.000811582
0.000904725
0.00114569
0.00129712
0.00157434
0.00194815
0.00215935
0.00261441
0.00291583
0.00322052
0.00370561
0.00393756
0.0044615
0.00481245
0.00520218
0.00570019
0.00587105
0.00626945
0.00653878
0.00671604
0.00709749
0.00721895
0.00751979
0.00774862
0.00795361
0.00842137
0.0086129
0.00905173
0.00926063
0.00968544
0.00995517
0.0103163
0.0110331
0.0114775
0.012539
0.0135086
0.0157129
0.0172053
0.0200623
0.0238848
0.026328
0.0324172
0.036596
0.0450475
0.0509119
0.0636256
0.0727597
0.0905718
0.103073
0.125407
0.150627
0.16925
0.20861
0.230277
0.274613
0.297376
0.344069
0.367813
0.389715
0.411301
0.41484
0.43051
0.442459
0.47564
0.589489
0.61796
0.545989
0.321973
0.196835
0.14775
0.123215
0.115015
0.109717
0.112771
0.131292
0.189758
0.21752
0.289816
0.324316
0.307577
0.271483
0.214624
0.262539
0.480967
0.553294
0.394547
0.221648
0.150879
0.129452
0.124348
0.114088
0.114828
0.1102
0.112155
0.111864
0.12314
0.117301
0.132727
0.123586
0.109465
0.150164
0.0945113
0.082634
0.0547352
0.0514941
0.0387713
0.0387748
0.0362492
0.0393527
0.0407031
0.040555
0.0473351
0.0499828
0.0555049
0.0608747
0.0647046
0.0672751
0.0671684
0.0674705
0.067337
0.0669928
0.0665853
0.0658206
0.0655875
0.0651628
0.0648838
0.0643141
0.0633492
0.062671
0.059575
0.0583749
0.0562423
0.0555085
0.0557108
0.0565241
0.0610391
0.0672349
0.0750524
0.0884721
0.0984462
0.112096
0.11866
0.119431
0.118821
0.116553
0.106155
0.0992415
0.0913664
0.00299428
0.00297115
0.00288221
0.00280634
0.00277672
0.00277153
0.00289683
0.00312125
0.00369279
0.00423149
0.00476897
0.00523768
0.00534729
0.0053791
0.00524027
0.00496541
0.00467877
0.00435093
0.00425299
0.0041194
0.00412692
0.00431705
0.00474284
0.00529512
0.00553848
0.00571415
0.00574592
0.00572176
0.00565012
0.00535164
0.00508589
0.00480419
0.00456292
0.00442027
0.00430464
0.00424571
0.00420986
0.00418648
0.00416077
0.00416011
0.00416614
0.00418395
0.00422677
0.00426218
0.00434996
0.00441746
0.00454384
0.00469428
0.00482019
0.00512725
0.00535997
0.00579729
0.00627994
0.00672317
0.00783152
0.00845827
0.0096994
0.0109032
0.0117131
0.0132064
0.0140257
0.0150541
0.0164077
0.0170692
0.0185364
0.0194877
0.0204414
0.0217938
0.0222856
0.0232611
0.0240479
0.0243982
0.0253888
0.0257586
0.0265643
0.0270944
0.0277887
0.0289868
0.0294317
0.0303855
0.0310303
0.0323788
0.03341
0.0344579
0.0373573
0.0391183
0.0427918
0.0459416
0.0526958
0.0572273
0.0647175
0.0746998
0.0815115
0.0974447
0.107338
0.128269
0.143782
0.168766
0.193643
0.219285
0.25605
0.286277
0.333713
0.363318
0.408164
0.437147
0.465339
0.478625
0.488174
0.488212
0.481794
0.476547
0.462747
0.46195
0.476953
0.567862
0.631929
0.506522
0.288423
0.200231
0.149514
0.125335
0.106993
0.101143
0.102103
0.11734
0.158749
0.193266
0.226443
0.288947
0.286427
0.270196
0.214527
0.153346
0.206446
0.487854
0.622936
0.471457
0.268633
0.176999
0.139385