/*--------------------------------*- C++ -*----------------------------------*\
| =========                 |                                                 |
| \\      /  F ield         | OpenFOAM: The Open Source CFD Toolbox           |
|  \\    /   O peration     | Version:  2.4.0                                 |
|   \\  /    A nd           | Web:      www.OpenFOAM.org                      |
|    \\/     M anipulation  |                                                 |
\*---------------------------------------------------------------------------*/
FoamFile
{
    version     2.0;
    format      ascii;
    class       volScalarField;
    location    "1.88";
    object      nuSgs;
}
// * * * * * * * * * * * * * * * * * * * * * * * * * * * * * * * * * * * * * //

dimensions      [0 2 -1 0 0 0 0];

internalField   nonuniform List<scalar> 
8800
(
0.00133838
0.00150721
0.0013924
0.00122998
0.00111972
0.00105192
0.000995831
0.000961754
0.000923874
0.000907149
0.000877336
0.000869645
0.000846376
0.000842712
0.000821303
0.000819333
0.00080109
0.000798079
0.000792736
0.000763525
0.00055385
0.00098237
0.00108274
0.00108153
0.00106213
0.00103577
0.00100037
0.000979058
0.000947139
0.000933746
0.000905421
0.00089662
0.000875588
0.000869545
0.000852021
0.000847698
0.000833471
0.000828859
0.000815846
0.000817236
0.000135554
0.000406822
0.000583612
0.000658879
0.000703923
0.000739045
0.00074976
0.000761325
0.000759928
0.000759218
0.000754359
0.000751708
0.000744382
0.00074133
0.000735588
0.000730887
0.000726473
0.000722057
0.000713278
0.000710716
2.68822e-05
0.000125664
0.000233575
0.00030881
0.000355435
0.000398472
0.000426451
0.000454432
0.000477515
0.000489297
0.000508005
0.000516474
0.000529118
0.000533968
0.00054567
0.000548143
0.000556564
0.000556991
0.00055942
0.000556718
5.10616e-06
3.34988e-05
7.27341e-05
0.000103088
0.000139045
0.000165929
0.000190677
0.000210264
0.000236617
0.000247027
0.000268133
0.000277628
0.000296147
0.000303916
0.00032132
0.000328051
0.000343844
0.00034902
0.000361949
0.00036291
2.37592e-06
8.4593e-06
1.92623e-05
2.76968e-05
4.09406e-05
5.04724e-05
6.48742e-05
7.36356e-05
8.92981e-05
9.57181e-05
0.000108553
0.000115412
0.000128205
0.000134265
0.000146259
0.000153808
0.000162282
0.000171187
0.000180657
0.000187875
2.20877e-06
3.20808e-06
5.5581e-06
7.74944e-06
9.65824e-06
1.34062e-05
1.64263e-05
2.1492e-05
2.45007e-05
2.85368e-05
3.13457e-05
3.68606e-05
3.96752e-05
4.5304e-05
4.84265e-05
5.47185e-05
5.7807e-05
6.4451e-05
6.79507e-05
7.64971e-05
2.17459e-06
2.78013e-06
3.336e-06
4.1464e-06
4.39408e-06
4.91487e-06
5.27034e-06
6.43619e-06
6.95315e-06
8.02248e-06
8.45435e-06
9.85439e-06
1.03741e-05
1.21093e-05
1.26769e-05
1.47991e-05
1.5543e-05
1.82041e-05
1.96249e-05
2.50334e-05
2.14753e-06
2.46396e-06
3.15697e-06
3.63419e-06
3.81427e-06
4.08726e-06
4.09965e-06
4.14546e-06
4.22116e-06
4.40913e-06
4.46232e-06
4.67447e-06
4.7509e-06
4.92958e-06
4.91351e-06
5.14001e-06
5.26075e-06
5.71728e-06
5.94682e-06
7.11773e-06
2.13123e-06
2.44379e-06
3.08163e-06
3.64613e-06
3.66674e-06
3.67091e-06
3.80872e-06
3.92134e-06
3.91908e-06
3.92176e-06
3.93547e-06
4.05264e-06
4.13534e-06
4.16399e-06
4.14455e-06
4.14534e-06
4.14261e-06
4.14907e-06
4.17791e-06
4.30821e-06
2.13436e-06
2.43264e-06
2.86479e-06
3.72927e-06
3.86027e-06
3.85872e-06
3.77058e-06
3.73151e-06
3.77969e-06
4.03931e-06
4.11519e-06
4.15225e-06
4.14558e-06
4.13106e-06
4.12055e-06
4.14735e-06
4.1623e-06
4.20057e-06
4.25292e-06
4.44497e-06
2.14324e-06
2.46231e-06
3.15824e-06
3.85993e-06
3.85454e-06
3.79116e-06
3.81324e-06
4.09771e-06
4.36763e-06
4.50735e-06
4.51927e-06
4.54417e-06
4.59012e-06
4.76311e-06
4.88938e-06
5.20673e-06
5.41725e-06
5.61414e-06
6.09711e-06
7.26422e-06
2.15656e-06
2.57884e-06
3.15428e-06
4.21914e-06
4.46838e-06
4.97051e-06
5.37794e-06
6.20377e-06
6.734e-06
8.00006e-06
8.57165e-06
9.93824e-06
1.07168e-05
1.21332e-05
1.29045e-05
1.49794e-05
1.62588e-05
1.83681e-05
2.08529e-05
2.56564e-05
2.18548e-06
3.06813e-06
5.22422e-06
9.24024e-06
1.07842e-05
1.36917e-05
1.61382e-05
2.07636e-05
2.36774e-05
2.99638e-05
3.2524e-05
3.78833e-05
4.06394e-05
4.61738e-05
4.90139e-05
5.58499e-05
5.95631e-05
6.73221e-05
7.21569e-05
8.39427e-05
2.34961e-06
8.21659e-06
1.82691e-05
3.36735e-05
4.02213e-05
5.23571e-05
6.12621e-05
7.63407e-05
8.45434e-05
0.000100963
0.000107152
0.000119707
0.000125746
0.000138219
0.000144043
0.000157663
0.000164247
0.000178796
0.000186854
0.000206985
5.23304e-06
3.29614e-05
7.03438e-05
0.00011521
0.000134577
0.000164845
0.000190023
0.000212571
0.000229713
0.000255165
0.000264234
0.000282517
0.000291366
0.000309282
0.000316907
0.000334845
0.000342736
0.000361058
0.000369904
0.000391806
2.72892e-05
0.000123701
0.000240263
0.000305746
0.000356773
0.000394198
0.000431167
0.000451492
0.000475458
0.000494319
0.000504527
0.000518206
0.000527332
0.000537619
0.000542383
0.000552938
0.000557081
0.000567164
0.000571386
0.000581382
0.000136693
0.000400236
0.000589117
0.000654368
0.000709229
0.000733085
0.000755377
0.000757036
0.000761692
0.000757917
0.00075609
0.000748939
0.000746866
0.000739495
0.000737325
0.000731131
0.000729678
0.000725364
0.00072372
0.00071974
0.000557229
0.000980122
0.00108433
0.00108049
0.0010648
0.00102939
0.00100661
0.000972091
0.000955149
0.000924193
0.000913773
0.000889006
0.000881725
0.000862392
0.000857617
0.000840525
0.00083675
0.000820992
0.00081546
0.000801247
0.00133914
0.00150569
0.00139405
0.00122656
0.00112407
0.00104635
0.00100118
0.000955391
0.00093133
0.000897393
0.000886317
0.000859932
0.000853881
0.000831634
0.000827835
0.000805524
0.000800753
0.000775793
0.000766394
0.000733688
0.000351194
0.000299495
0.000263343
0.000238855
0.000224408
0.000216291
0.000211482
0.000208153
0.000205338
0.000203202
0.000201062
0.000199159
0.000197721
0.000195512
0.000194366
0.000191844
0.000190328
0.000188474
0.0001872
0.000185986
0.000185308
0.000184479
0.000183408
0.00018183
0.000179063
0.000175772
0.000171413
0.000167118
0.000162084
0.00015751
0.00015242
0.000147305
0.000141531
0.000136091
0.000129617
0.000122993
0.000116679
0.000110309
0.000105465
0.000100418
9.58828e-05
9.14175e-05
8.76716e-05
8.42241e-05
8.13293e-05
7.92101e-05
7.62333e-05
7.48727e-05
7.50432e-05
7.61671e-05
7.8838e-05
8.42613e-05
9.10426e-05
9.67618e-05
0.000105696
0.000113255
0.000120863
0.000126581
0.000132277
0.00013772
0.000140871
0.000144551
0.000145884
0.000148355
0.000149102
0.000150828
0.00015163
0.000153352
0.000154005
0.000154902
0.000155514
0.000156587
0.000157173
0.000158281
0.000158181
0.000158556
0.000157664
0.000158355
0.000156728
0.000157288
0.000155504
0.000155242
0.00015409
0.000152105
0.000150331
0.000148879
0.000144609
0.000143314
0.000140621
0.000138284
0.000137729
0.000135552
0.000135658
0.000135558
0.000136055
0.000136153
0.000137066
0.000136448
0.000136497
0.000135217
0.00013454
0.000132224
0.000131055
0.000127751
0.000124816
0.000117289
0.000110506
9.87911e-05
8.52694e-05
6.88956e-05
5.47944e-05
4.36893e-05
3.43426e-05
2.75091e-05
2.25742e-05
1.90212e-05
1.74214e-05
1.59854e-05
1.592e-05
1.58508e-05
1.59618e-05
1.62168e-05
1.69278e-05
1.79775e-05
2.04791e-05
2.23666e-05
2.62829e-05
2.86512e-05
3.21698e-05
3.5945e-05
3.80459e-05
4.22771e-05
4.49129e-05
4.96792e-05
5.25709e-05
5.76364e-05
6.29569e-05
6.83793e-05
7.39684e-05
8.01541e-05
8.21966e-05
8.16647e-05
7.99689e-05
7.54298e-05
7.06332e-05
6.36577e-05
5.73147e-05
5.70137e-05
5.67668e-05
5.56203e-05
5.20223e-05
4.12071e-05
3.77229e-05
3.84592e-05
4.42488e-05
6.5429e-05
8.80013e-05
9.6839e-05
9.7464e-05
9.49666e-05
8.40329e-05
7.76892e-05
7.67322e-05
7.56643e-05
7.63001e-05
7.3569e-05
7.10193e-05
6.39408e-05
6.55467e-05
6.29673e-05
6.91026e-05
6.6087e-05
7.08586e-05
6.87789e-05
7.23406e-05
7.00024e-05
7.01628e-05
6.82587e-05
6.78468e-05
6.58269e-05
6.52323e-05
6.22404e-05
6.14155e-05
5.9448e-05
6.02762e-05
6.12031e-05
6.73213e-05
6.90226e-05
7.50639e-05
7.53021e-05
8.09248e-05
8.05802e-05
9.12405e-05
9.19515e-05
0.000111355
0.000110061
0.000144439
0.000138324
0.00018308
0.000210502
0.000413546
0.00037513
0.000343542
0.000318326
0.000298242
0.000281857
0.00026956
0.000259662
0.000251808
0.000244974
0.000239221
0.000234052
0.000229736
0.000225875
0.000222549
0.000219617
0.000216588
0.000214256
0.000211672
0.00020989
0.000207671
0.000206604
0.000204773
0.000203972
0.00020232
0.000201422
0.000199635
0.000198541
0.000196595
0.000195132
0.000193206
0.000191374
0.000189286
0.000186866
0.000184298
0.000181168
0.000177878
0.000173419
0.000168445
0.000162639
0.000156129
0.000149128
0.000141902
0.000135359
0.000129271
0.000125303
0.000121471
0.000121136
0.000121892
0.000123769
0.000128122
0.00013194
0.000137287
0.000141462
0.000145552
0.000148368
0.000150839
0.000152551
0.000153696
0.000154583
0.000154772
0.000155004
0.000155081
0.000155077
0.000155048
0.00015512
0.000155068
0.00015506
0.000155241
0.000155254
0.000155566
0.000156509
0.000156613
0.000158027
0.000158065
0.000159075
0.000158975
0.000159847
0.000159534
0.000159786
0.000159835
0.000159094
0.000159133
0.000158531
0.000157516
0.000157057
0.000155666
0.000154701
0.00015379
0.000151346
0.000150905
0.000149653
0.000148746
0.000146696
0.000145781
0.00014339
0.000142398
0.00013931
0.000137461
0.000132873
0.000130228
0.000123566
0.000119085
0.000109599
9.90867e-05
8.61693e-05
7.13882e-05
5.85125e-05
4.72549e-05
3.82622e-05
3.05005e-05
2.51547e-05
2.05053e-05
1.78345e-05
1.60863e-05
1.51532e-05
1.49651e-05
1.49942e-05
1.5357e-05
1.5693e-05
1.66551e-05
1.80776e-05
2.11386e-05
2.35474e-05
2.82152e-05
3.10171e-05
3.64878e-05
3.9288e-05
4.43652e-05
4.8125e-05
5.12822e-05
5.696e-05
6.07738e-05
6.55894e-05
7.05014e-05
7.7706e-05
8.47639e-05
9.34966e-05
0.000102922
0.000110009
0.000111354
0.000110098
0.000106753
9.83383e-05
9.0071e-05
8.05814e-05
6.88408e-05
6.16574e-05
6.03078e-05
5.8851e-05
5.74658e-05
5.09902e-05
4.13522e-05
3.98072e-05
4.1685e-05
5.24013e-05
7.67804e-05
9.0136e-05
9.38466e-05
9.3473e-05
8.96864e-05
7.88195e-05
7.70413e-05
7.4346e-05
7.56793e-05
7.41364e-05
7.31787e-05
6.74532e-05
6.88906e-05
6.57462e-05
6.74559e-05
6.62119e-05
6.77663e-05
6.7309e-05
6.73156e-05
6.73122e-05
6.68322e-05
6.50685e-05
6.40317e-05
6.1719e-05
6.05901e-05
5.79484e-05
5.75986e-05
5.76272e-05
5.82723e-05
6.06033e-05
6.65021e-05
6.9252e-05
7.47484e-05
7.54376e-05
7.95879e-05
7.91151e-05
8.59345e-05
8.84247e-05
0.000103751
0.000111558
0.000143814
0.000152324
0.000174503
0.000201799
0.000370756
0.000349587
0.00032931
0.000311245
0.000295946
0.000282609
0.000271376
0.000262205
0.000253833
0.000247164
0.00024036
0.000235184
0.000229533
0.000225397
0.000220898
0.000217645
0.000214174
0.000211353
0.000208583
0.000206206
0.000203883
0.000201921
0.000200209
0.000198634
0.00019717
0.000196055
0.000194641
0.000193755
0.000192627
0.000191793
0.000191263
0.00019034
0.000190026
0.0001893
0.00018883
0.000188188
0.000187446
0.000186758
0.000185662
0.000184435
0.000182699
0.000180823
0.000177787
0.000175445
0.000172223
0.000169231
0.00016715
0.000164391
0.000163394
0.000161962
0.000161387
0.000160543
0.000160427
0.000160095
0.000159947
0.000159417
0.00015901
0.000158022
0.000157435
0.000155819
0.000154974
0.000152972
0.00015196
0.000149569
0.000148428
0.000145996
0.000144948
0.000142853
0.000141985
0.000140708
0.000139751
0.000139675
0.000139416
0.00013978
0.000140186
0.000140712
0.000142297
0.000142808
0.000144421
0.000144923
0.000146552
0.000147018
0.000148183
0.000148524
0.000148518
0.000148835
0.000148477
0.000148019
0.000147138
0.000146336
0.000144342
0.000143209
0.000140384
0.000137919
0.00013547
0.000131642
0.000126177
0.000122254
0.000116058
0.000107894
9.95221e-05
8.93821e-05
7.72612e-05
6.55751e-05
5.541e-05
4.62689e-05
3.80782e-05
3.16719e-05
2.57086e-05
2.17526e-05
1.80752e-05
1.62899e-05
1.4568e-05
1.42123e-05
1.40029e-05
1.41818e-05
1.44803e-05
1.50407e-05
1.6442e-05
1.80273e-05
2.16416e-05
2.44757e-05
3.00448e-05
3.34631e-05
4.00311e-05
4.36458e-05
5.07247e-05
5.41742e-05
6.07854e-05
6.39895e-05
7.00528e-05
7.49116e-05
7.97382e-05
8.48508e-05
9.30654e-05
0.000100221
0.000114294
0.000128509
0.000138025
0.000137918
0.000135613
0.0001306
0.000126777
0.000119853
0.000109522
9.95382e-05
8.57386e-05
7.19401e-05
6.45113e-05
6.20212e-05
6.01878e-05
5.78107e-05
4.75786e-05
4.17358e-05
4.17135e-05
4.62237e-05
6.4212e-05
8.11944e-05
8.9113e-05
9.0706e-05
8.92634e-05
8.32124e-05
7.80178e-05
7.41583e-05
7.49797e-05
7.5553e-05
7.70715e-05
7.40245e-05
7.23597e-05
6.79474e-05
6.7482e-05
6.60668e-05
6.54349e-05
6.57675e-05
6.52718e-05
6.56383e-05
6.54432e-05
6.51652e-05
6.4439e-05
6.2759e-05
6.03471e-05
5.85134e-05
5.86377e-05
5.86374e-05
6.01536e-05
6.22958e-05
6.75277e-05
6.94639e-05
7.26631e-05
7.33277e-05
7.2942e-05
7.33808e-05
7.24321e-05
7.50722e-05
7.48096e-05
8.6604e-05
8.98391e-05
0.000127569
0.000139063
0.000170897
0.000294881
0.000283886
0.000272501
0.000261837
0.00025206
0.000243241
0.000234941
0.000228339
0.000221717
0.000216794
0.000211256
0.000206909
0.000202113
0.000197663
0.000193824
0.000189802
0.000186966
0.000183834
0.000181674
0.000179149
0.000177442
0.000175116
0.000173631
0.00017197
0.000170399
0.000169534
0.000168228
0.000167387
0.000166708
0.000165849
0.000165589
0.000165598
0.000165793
0.000166198
0.000166986
0.000167953
0.00016885
0.000170121
0.000170737
0.000171624
0.000171944
0.000171916
0.0001716
0.000170776
0.000169901
0.000168168
0.000166779
0.000165189
0.000163136
0.000162014
0.000159603
0.000157677
0.00015593
0.000152888
0.000151369
0.000148251
0.000145956
0.00014257
0.000139824
0.000135872
0.00013345
0.000128167
0.000125827
0.000121211
0.000117805
0.000114366
0.000110379
0.000108226
0.000105823
0.000103095
0.000101906
0.000100688
9.92329e-05
9.92046e-05
9.95541e-05
0.000100129
0.000101879
0.000103148
0.000106017
0.000107466
0.0001095
0.000111733
0.000112561
0.000114584
0.000115136
0.000116197
0.000116513
0.000116379
0.000115855
0.000115027
0.00011249
0.000110808
0.0001072
0.000103171
9.81327e-05
9.29327e-05
8.53506e-05
7.8173e-05
6.97557e-05
6.17102e-05
5.39599e-05
4.67493e-05
4.00249e-05
3.40548e-05
2.87781e-05
2.44193e-05
2.05622e-05
1.79321e-05
1.54343e-05
1.4308e-05
1.32544e-05
1.31088e-05
1.3084e-05
1.33701e-05
1.37052e-05
1.46836e-05
1.61538e-05
1.84102e-05
2.22506e-05
2.5521e-05
3.1729e-05
3.56028e-05
4.33204e-05
4.77123e-05
5.66759e-05
6.12419e-05
7.03736e-05
7.41331e-05
8.13517e-05
8.44937e-05
9.08333e-05
9.39796e-05
0.000100767
0.000106174
0.000114313
0.000131229
0.000150778
0.000153935
0.000151386
0.000145566
0.000138141
0.000131383
0.000127538
0.000124423
0.000118336
0.000111107
0.000100355
8.42348e-05
7.10217e-05
6.42595e-05
6.20588e-05
6.0062e-05
5.39599e-05
4.44294e-05
4.26482e-05
4.38934e-05
5.18012e-05
7.25785e-05
8.29387e-05
8.58391e-05
8.79013e-05
8.4397e-05
8.22781e-05
7.65061e-05
8.05829e-05
7.93735e-05
8.04828e-05
7.82068e-05
7.6938e-05
7.18874e-05
7.0726e-05
6.87044e-05
6.77238e-05
6.80074e-05
6.7968e-05
6.87818e-05
6.8271e-05
6.83283e-05
6.66372e-05
6.5262e-05
6.18798e-05
6.13233e-05
6.14519e-05
6.23592e-05
6.32253e-05
6.92286e-05
7.08158e-05
7.62035e-05
7.44975e-05
7.60592e-05
7.26719e-05
7.31633e-05
7.04311e-05
7.12066e-05
6.96827e-05
7.39367e-05
7.57679e-05
9.45393e-05
0.00010125
0.000129711
0.000194872
0.000190557
0.000185124
0.000179529
0.00017525
0.000169996
0.000166328
0.000162064
0.000159034
0.000155925
0.000153458
0.000150785
0.000148524
0.000145377
0.000142581
0.00013954
0.0001364
0.00013414
0.000131919
0.000130246
0.000129369
0.000127877
0.000127227
0.000126294
0.000125103
0.000124725
0.000123989
0.000123412
0.000123268
0.000122998
0.000122732
0.000122476
0.000122495
0.000122763
0.000123193
0.000124099
0.000125322
0.000126895
0.000128925
0.000130652
0.000132065
0.000134123
0.00013506
0.00013595
0.000136638
0.00013645
0.000135881
0.000134859
0.000132469
0.000131085
0.000127871
0.000125064
0.000122277
0.000117516
0.000114817
0.000110298
0.000105246
0.000102661
9.66332e-05
9.26678e-05
8.89361e-05
8.30169e-05
8.00493e-05
7.53869e-05
7.12822e-05
6.90849e-05
6.51471e-05
6.31854e-05
6.14816e-05
5.93805e-05
5.87498e-05
5.78264e-05
5.6827e-05
5.62448e-05
5.55491e-05
5.55737e-05
5.58872e-05
5.63739e-05
5.79719e-05
5.90287e-05
6.12988e-05
6.34834e-05
6.44281e-05
6.67448e-05
6.73417e-05
6.79714e-05
6.81024e-05
6.77218e-05
6.69392e-05
6.60108e-05
6.37726e-05
6.14453e-05
5.88707e-05
5.5126e-05
5.13339e-05
4.73059e-05
4.29311e-05
3.85417e-05
3.43162e-05
3.01711e-05
2.64008e-05
2.29202e-05
2.00311e-05
1.746e-05
1.55071e-05
1.38666e-05
1.29197e-05
1.22151e-05
1.20699e-05
1.21515e-05
1.2257e-05
1.26747e-05
1.32989e-05
1.48447e-05
1.65294e-05
2.00663e-05
2.27642e-05
2.83246e-05
3.20717e-05
3.85959e-05
4.55709e-05
5.13057e-05
6.14989e-05
6.78101e-05
7.9932e-05
8.53847e-05
9.58759e-05
9.88909e-05
0.000104972
0.000106959
0.000111193
0.000113873
0.00012023
0.000126824
0.000146329
0.000163637
0.000164925
0.000160722
0.000150157
0.000138198
0.000128251
0.000120778
0.0001168
0.000115998
0.000114791
0.000111396
0.000106401
9.56008e-05
8.08706e-05
6.88025e-05
6.3313e-05
6.14556e-05
5.78704e-05
4.96007e-05
4.43657e-05
4.44135e-05
4.71129e-05
5.76028e-05
7.77682e-05
8.20702e-05
8.60302e-05
8.60913e-05
8.66251e-05
8.2692e-05
8.24258e-05
8.07823e-05
8.05808e-05
8.02161e-05
7.97547e-05
7.80781e-05
7.59085e-05
7.5128e-05
7.33857e-05
7.3149e-05
7.14306e-05
7.10701e-05
6.90397e-05
6.83546e-05
6.55166e-05
6.43173e-05
6.16595e-05
6.11922e-05
6.02711e-05
6.1745e-05
6.20476e-05
6.80583e-05
6.87833e-05
7.2252e-05
7.05076e-05
7.07328e-05
6.90326e-05
6.87809e-05
6.82608e-05
6.88849e-05
6.93296e-05
7.211e-05
7.26557e-05
8.34004e-05
8.6978e-05
0.000106325
0.00010155
0.000100037
9.74774e-05
9.46516e-05
9.33318e-05
9.07107e-05
8.96012e-05
8.77771e-05
8.70653e-05
8.5804e-05
8.52648e-05
8.44259e-05
8.39328e-05
8.33376e-05
8.19151e-05
8.09936e-05
7.86822e-05
7.74735e-05
7.57788e-05
7.47916e-05
7.4223e-05
7.34878e-05
7.34252e-05
7.33787e-05
7.33996e-05
7.34141e-05
7.32649e-05
7.32677e-05
7.33514e-05
7.35678e-05
7.39948e-05
7.46043e-05
7.48514e-05
7.53671e-05
7.58115e-05
7.6211e-05
7.73344e-05
7.8123e-05
7.97428e-05
8.15149e-05
8.27869e-05
8.47294e-05
8.53237e-05
8.64191e-05
8.67402e-05
8.65819e-05
8.61916e-05
8.52803e-05
8.37747e-05
8.26935e-05
7.99738e-05
7.79611e-05
7.55877e-05
7.18787e-05
6.94833e-05
6.58187e-05
6.19798e-05
5.93891e-05
5.51791e-05
5.23724e-05
4.95958e-05
4.62984e-05
4.42452e-05
4.17734e-05
3.92342e-05
3.78614e-05
3.54816e-05
3.4066e-05
3.29882e-05
3.17592e-05
3.14559e-05
3.09548e-05
3.0448e-05
3.02304e-05
2.94542e-05
2.88208e-05
2.82955e-05
2.81957e-05
2.83503e-05
2.85746e-05
2.93708e-05
3.02231e-05
3.11849e-05
3.26749e-05
3.31897e-05
3.33112e-05
3.32816e-05
3.30558e-05
3.23741e-05
3.13786e-05
3.01583e-05
2.87541e-05
2.71507e-05
2.55929e-05
2.35423e-05
2.17254e-05
1.97184e-05
1.78668e-05
1.59414e-05
1.43044e-05
1.2932e-05
1.176e-05
1.10479e-05
1.04142e-05
1.04479e-05
1.05953e-05
1.08657e-05
1.11356e-05
1.18505e-05
1.26681e-05
1.39008e-05
1.62241e-05
1.84313e-05
2.21549e-05
2.52739e-05
3.09341e-05
3.45852e-05
4.2105e-05
4.70503e-05
5.66631e-05
6.26862e-05
7.46488e-05
8.52718e-05
9.78068e-05
0.00011027
0.000117482
0.000122626
0.000123248
0.000126251
0.000127025
0.000129217
0.00013206
0.000138686
0.000154427
0.000173744
0.000172745
0.000168381
0.000156628
0.000141246
0.000128198
0.000117087
0.000109439
0.000106421
0.000106312
0.000106921
0.000107311
0.000105523
0.000100102
8.8714e-05
7.53145e-05
6.59354e-05
6.23825e-05
5.98396e-05
5.21027e-05
4.58092e-05
4.50258e-05
4.65595e-05
5.10348e-05
6.51801e-05
7.78705e-05
8.31201e-05
8.48401e-05
8.57756e-05
8.32715e-05
8.23971e-05
8.09257e-05
7.99869e-05
7.98091e-05
7.96746e-05
7.8814e-05
7.75898e-05
7.59536e-05
7.49384e-05
7.34726e-05
7.24466e-05
7.06434e-05
6.91412e-05
6.6621e-05
6.48751e-05
6.22815e-05
6.06438e-05
5.88787e-05
5.82022e-05
5.86931e-05
5.98632e-05
6.44235e-05
6.61639e-05
6.86194e-05
6.83933e-05
6.80604e-05
6.73469e-05
6.81354e-05
6.82416e-05
6.89304e-05
7.12056e-05
7.59952e-05
7.62245e-05
8.07492e-05
8.03952e-05
8.62193e-05
4.1426e-05
4.07741e-05
3.9477e-05
3.83938e-05
3.77212e-05
3.69944e-05
3.66532e-05
3.61534e-05
3.598e-05
3.58059e-05
3.58265e-05
3.58419e-05
3.60076e-05
3.61284e-05
3.61242e-05
3.61588e-05
3.56709e-05
3.52728e-05
3.44478e-05
3.38976e-05
3.3562e-05
3.32817e-05
3.33539e-05
3.34026e-05
3.35808e-05
3.39402e-05
3.41432e-05
3.46446e-05
3.49726e-05
3.54143e-05
3.59519e-05
3.68573e-05
3.72353e-05
3.79562e-05
3.84306e-05
3.87759e-05
3.96828e-05
4.01238e-05
4.11273e-05
4.22177e-05
4.36116e-05
4.53256e-05
4.58334e-05
4.69895e-05
4.73136e-05
4.72531e-05
4.70409e-05
4.62328e-05
4.55315e-05
4.44988e-05
4.33493e-05
4.22115e-05
4.07481e-05
3.90843e-05
3.73002e-05
3.53236e-05
3.3129e-05
3.10783e-05
2.90414e-05
2.70064e-05
2.55351e-05
2.38345e-05
2.24933e-05
2.13421e-05
1.99121e-05
1.90002e-05
1.78406e-05
1.69021e-05
1.63109e-05
1.57484e-05
1.56109e-05
1.54822e-05
1.53643e-05
1.52788e-05
1.48607e-05
1.43818e-05
1.37717e-05
1.33573e-05
1.32724e-05
1.32481e-05
1.32969e-05
1.36529e-05
1.43905e-05
1.52172e-05
1.57589e-05
1.59636e-05
1.59881e-05
1.59335e-05
1.55744e-05
1.48485e-05
1.4145e-05
1.34718e-05
1.24628e-05
1.17943e-05
1.0846e-05
1.01186e-05
9.32475e-06
8.81817e-06
8.30846e-06
8.10678e-06
8.13988e-06
8.32314e-06
8.6573e-06
8.99537e-06
9.9166e-06
1.08782e-05
1.23856e-05
1.38735e-05
1.68352e-05
1.9071e-05
2.25968e-05
2.57767e-05
3.05103e-05
3.3989e-05
4.00195e-05
4.59861e-05
5.07684e-05
6.04922e-05
6.68428e-05
7.77568e-05
8.76831e-05
0.000107104
0.000120631
0.000134477
0.000135995
0.000135372
0.00013261
0.000132644
0.000134545
0.000135512
0.000140777
0.000144776
0.00015993
0.000175828
0.000175627
0.000170684
0.000165608
0.000151583
0.00013156
0.000115445
0.000105981
9.95714e-05
9.80743e-05
9.84381e-05
0.000100397
0.000101497
0.000101783
9.9693e-05
9.33511e-05
8.11251e-05
6.99006e-05
6.40189e-05
6.06781e-05
5.59124e-05
4.90096e-05
4.62709e-05
4.7232e-05
4.98693e-05
5.54966e-05
6.84201e-05
7.72502e-05
8.03232e-05
8.20647e-05
8.19255e-05
8.12077e-05
8.04241e-05
7.91113e-05
7.82247e-05
7.82317e-05
7.80527e-05
7.74612e-05
7.57641e-05
7.457e-05
7.28013e-05
7.17461e-05
6.94884e-05
6.80284e-05
6.57286e-05
6.45083e-05
6.21829e-05
6.09402e-05
6.02045e-05
6.01975e-05
6.28667e-05
6.51036e-05
6.81877e-05
6.81041e-05
6.92228e-05
6.81431e-05
6.82868e-05
6.58635e-05
6.71821e-05
6.70524e-05
7.00644e-05
7.10111e-05
7.99995e-05
8.00288e-05
8.04576e-05
7.85284e-05
7.86958e-05
1.36344e-05
1.34709e-05
1.30987e-05
1.27907e-05
1.25254e-05
1.23046e-05
1.21076e-05
1.19564e-05
1.19271e-05
1.19161e-05
1.19509e-05
1.20002e-05
1.22083e-05
1.23698e-05
1.24804e-05
1.25996e-05
1.25903e-05
1.26099e-05
1.24971e-05
1.23229e-05
1.21126e-05
1.18832e-05
1.18904e-05
1.18657e-05
1.19418e-05
1.21294e-05
1.22735e-05
1.27862e-05
1.30089e-05
1.33468e-05
1.36979e-05
1.41374e-05
1.47984e-05
1.51695e-05
1.55657e-05
1.60098e-05
1.63548e-05
1.66673e-05
1.74856e-05
1.79573e-05
1.90223e-05
1.99133e-05
2.03109e-05
2.10324e-05
2.1282e-05
2.13545e-05
2.12771e-05
2.10762e-05
2.0697e-05
2.03032e-05
1.99666e-05
1.92034e-05
1.87427e-05
1.7904e-05
1.70321e-05
1.62763e-05
1.50914e-05
1.41934e-05
1.31438e-05
1.21347e-05
1.14202e-05
1.05874e-05
9.95247e-06
9.40044e-06
8.74565e-06
8.32569e-06
7.81858e-06
7.41915e-06
7.17482e-06
6.93309e-06
6.89729e-06
6.89914e-06
6.92253e-06
6.93512e-06
6.77886e-06
6.55053e-06
6.2544e-06
5.96622e-06
5.80749e-06
5.71975e-06
5.69316e-06
5.75527e-06
6.07874e-06
6.44165e-06
6.80955e-06
6.98909e-06
7.06549e-06
7.0622e-06
7.01233e-06
6.77492e-06
6.59164e-06
6.5034e-06
6.35714e-06
6.35411e-06
6.36598e-06
6.40247e-06
6.51298e-06
6.644e-06
7.09018e-06
7.55658e-06
8.11021e-06
9.31377e-06
1.09007e-05
1.21579e-05
1.48919e-05
1.78232e-05
2.05704e-05
2.41767e-05
2.79474e-05
3.24389e-05
3.5791e-05
4.22793e-05
4.59201e-05
5.19086e-05
5.92427e-05
6.46407e-05
7.34783e-05
8.3156e-05
9.19114e-05
0.000106445
0.000127868
0.000148716
0.000148871
0.000147784
0.000142724
0.000138571
0.000133409
0.000134626
0.000136742
0.000141794
0.000145189
0.000152215
0.000171459
0.000174264
0.000167206
0.000168836
0.000163723
0.000144517
0.000121383
0.000106606
9.81431e-05
9.16274e-05
9.01802e-05
9.04645e-05
9.2287e-05
9.62018e-05
9.75779e-05
9.73525e-05
9.44779e-05
8.55318e-05
7.33512e-05
6.70163e-05
6.24644e-05
5.83171e-05
5.18166e-05
4.92336e-05
4.899e-05
5.04916e-05
5.45412e-05
5.91625e-05
6.77371e-05
7.59639e-05
7.66393e-05
7.81943e-05
7.76348e-05
7.77475e-05
7.66996e-05
7.60604e-05
7.43326e-05
7.43765e-05
7.35659e-05
7.28827e-05
7.08346e-05
6.95918e-05
6.74533e-05
6.63945e-05
6.47893e-05
6.37977e-05
6.22074e-05
6.20624e-05
6.19121e-05
6.33008e-05
6.4267e-05
6.75164e-05
6.77994e-05
6.85637e-05
6.7937e-05
6.78309e-05
6.52689e-05
6.29713e-05
6.15247e-05
6.15196e-05
6.17629e-05
6.35462e-05
6.38067e-05
6.65934e-05
7.01477e-05
7.62329e-05
7.67187e-05
7.73877e-05
3.93503e-06
3.94411e-06
3.96526e-06
3.95913e-06
3.94277e-06
3.90745e-06
3.84632e-06
3.7508e-06
3.69525e-06
3.66715e-06
3.67183e-06
3.68641e-06
3.74245e-06
3.80308e-06
3.8657e-06
3.94265e-06
3.98965e-06
4.03434e-06
4.04236e-06
4.02579e-06
3.95145e-06
3.85272e-06
3.82428e-06
3.78551e-06
3.80411e-06
3.84364e-06
3.88488e-06
4.08258e-06
4.15817e-06
4.30405e-06
4.44581e-06
4.58481e-06
4.93438e-06
5.07123e-06
5.32426e-06
5.5409e-06
5.67403e-06
6.00218e-06
6.18956e-06
6.47574e-06
6.875e-06
7.07856e-06
7.37987e-06
7.52027e-06
7.55981e-06
7.67141e-06
7.75206e-06
7.75008e-06
7.71776e-06
7.64506e-06
7.45459e-06
7.22033e-06
7.00178e-06
6.6615e-06
6.48988e-06
6.13899e-06
5.83769e-06
5.5056e-06
5.13892e-06
4.8899e-06
4.62357e-06
4.46581e-06
4.32442e-06
4.18897e-06
4.15008e-06
4.06604e-06
4.02902e-06
4.00679e-06
3.97931e-06
3.97875e-06
3.98021e-06
4.00199e-06
4.03174e-06
4.03612e-06
4.02853e-06
3.98061e-06
3.95304e-06
3.94471e-06
3.94609e-06
3.96168e-06
3.96168e-06
3.98927e-06
4.01888e-06
4.06563e-06
4.16297e-06
4.20959e-06
4.32142e-06
4.4255e-06
4.67431e-06
4.8553e-06
5.09712e-06
5.75307e-06
6.06878e-06
6.62503e-06
7.11646e-06
8.18063e-06
8.95022e-06
9.76394e-06
1.17071e-05
1.29158e-05
1.5036e-05
1.68595e-05
2.0682e-05
2.30863e-05
2.62927e-05
3.23316e-05
3.53489e-05
4.08695e-05
4.46575e-05
5.16546e-05
5.60804e-05
6.28399e-05
6.79546e-05
7.62202e-05
8.18555e-05
9.15005e-05
0.000101898
0.000111213
0.000126842
0.000156232
0.000166227
0.00016356
0.000154879
0.000148271
0.000134097
0.000125802
0.00012172
0.000124948
0.000130958
0.000136085
0.000138496
0.000159451
0.000166723
0.000169525
0.000164076
0.000169554
0.000163018
0.000141891
0.000117833
0.000102561
9.43664e-05
8.79821e-05
8.64431e-05
8.64861e-05
8.71664e-05
8.99765e-05
9.35591e-05
9.46231e-05
9.36342e-05
8.84253e-05
7.70101e-05
7.10303e-05
6.39722e-05
6.21214e-05
5.54081e-05
5.04049e-05
4.79094e-05
4.86553e-05
5.28916e-05
5.63138e-05
5.97008e-05
6.79294e-05
7.40113e-05
7.50661e-05
7.48055e-05
7.49935e-05
7.43427e-05
7.42679e-05
7.2643e-05
7.21121e-05
7.08386e-05
7.01541e-05
6.88395e-05
6.75284e-05
6.63215e-05
6.56069e-05
6.4319e-05
6.4113e-05
6.39411e-05
6.46369e-05
6.51223e-05
6.70373e-05
6.70549e-05
6.73438e-05
6.70535e-05
6.65791e-05
6.53184e-05
6.28903e-05
6.12098e-05
6.01965e-05
6.04078e-05
6.10808e-05
6.13347e-05
6.39715e-05
6.51424e-05
6.70587e-05
6.83881e-05
7.14823e-05
7.1763e-05
7.23452e-05
2.41519e-06
2.44282e-06
2.50253e-06
2.52605e-06
2.52677e-06
2.52735e-06
2.53736e-06
2.54513e-06
2.53552e-06
2.51578e-06
2.51046e-06
2.52647e-06
2.55995e-06
2.5852e-06
2.58711e-06
2.57673e-06
2.55147e-06
2.53371e-06
2.52656e-06
2.52699e-06
2.52797e-06
2.53312e-06
2.53502e-06
2.53546e-06
2.53562e-06
2.53654e-06
2.54439e-06
2.56715e-06
2.57532e-06
2.59621e-06
2.6056e-06
2.61911e-06
2.65176e-06
2.66771e-06
2.71342e-06
2.73916e-06
2.77509e-06
2.82277e-06
2.84619e-06
2.91486e-06
2.96721e-06
3.01192e-06
3.07006e-06
3.0917e-06
3.11033e-06
3.17959e-06
3.23989e-06
3.26855e-06
3.27812e-06
3.26563e-06
3.24937e-06
3.20868e-06
3.17759e-06
3.1779e-06
3.16807e-06
3.17047e-06
3.1809e-06
3.20468e-06
3.24402e-06
3.33999e-06
3.40023e-06
3.49715e-06
3.61755e-06
3.68649e-06
3.85709e-06
3.99576e-06
4.14149e-06
4.39224e-06
4.47466e-06
4.64688e-06
4.70935e-06
4.75344e-06
4.8595e-06
4.87681e-06
4.96123e-06
5.0423e-06
5.17692e-06
5.4694e-06
5.65425e-06
5.90828e-06
5.96773e-06
6.03526e-06
6.0541e-06
6.07988e-06
6.15687e-06
6.247e-06
6.4805e-06
6.76102e-06
7.43504e-06
7.95742e-06
8.83417e-06
1.03877e-05
1.11853e-05
1.27303e-05
1.38911e-05
1.62066e-05
1.75995e-05
1.95963e-05
2.27818e-05
2.48357e-05
2.86922e-05
3.15569e-05
3.71046e-05
4.08077e-05
4.57221e-05
5.32241e-05
5.752e-05
6.41117e-05
7.04975e-05
7.71556e-05
8.5019e-05
8.96673e-05
9.92304e-05
0.000104967
0.000114314
0.000125186
0.000133586
0.000149788
0.000177796
0.000181136
0.000176033
0.000160827
0.000136571
0.000118978
0.000105997
0.000100742
0.000101837
0.000112801
0.000119753
0.000126512
0.000142351
0.000163204
0.000155114
0.000157963
0.000161687
0.000171534
0.000166233
0.000142288
0.000116615
9.92977e-05
9.02533e-05
8.58594e-05
8.48321e-05
8.42829e-05
8.55571e-05
8.66848e-05
8.99663e-05
9.10836e-05
9.19349e-05
9.08826e-05
8.19012e-05
7.43452e-05
6.96235e-05
6.40107e-05
5.95947e-05
5.31413e-05
4.85897e-05
4.71838e-05
4.79579e-05
5.02602e-05
5.39462e-05
5.79904e-05
6.61093e-05
7.16213e-05
7.33293e-05
7.3757e-05
7.38253e-05
7.36365e-05
7.2518e-05
7.17591e-05
7.03798e-05
6.91779e-05
6.85914e-05
6.71703e-05
6.64295e-05
6.62452e-05
6.58522e-05
6.61129e-05
6.61786e-05
6.6465e-05
6.64501e-05
6.65261e-05
6.63121e-05
6.58696e-05
6.53272e-05
6.31683e-05
6.21227e-05
6.05735e-05
6.00269e-05
5.99838e-05
6.01274e-05
6.22141e-05
6.38433e-05
6.69122e-05
6.87406e-05
7.26824e-05
7.3886e-05
7.43329e-05
7.43698e-05
7.3952e-05
2.45031e-06
2.47057e-06
2.52541e-06
2.57613e-06
2.57023e-06
2.54115e-06
2.50622e-06
2.49918e-06
2.5024e-06
2.5787e-06
2.7465e-06
2.86582e-06
2.91763e-06
2.93599e-06
2.91432e-06
2.84843e-06
2.74848e-06
2.66067e-06
2.61016e-06
2.57125e-06
2.55649e-06
2.56318e-06
2.64696e-06
2.79419e-06
2.88324e-06
2.93791e-06
2.96026e-06
2.95576e-06
2.93143e-06
2.85276e-06
2.79827e-06
2.74903e-06
2.70747e-06
2.7008e-06
2.69256e-06
2.69326e-06
2.72314e-06
2.73847e-06
2.79203e-06
2.80974e-06
2.81827e-06
2.83207e-06
2.82687e-06
2.83034e-06
2.82698e-06
2.82659e-06
2.83652e-06
2.8505e-06
2.87341e-06
2.92719e-06
2.97462e-06