/*--------------------------------*- C++ -*----------------------------------*\
| =========                 |                                                 |
| \\      /  F ield         | OpenFOAM: The Open Source CFD Toolbox           |
|  \\    /   O peration     | Version:  2.4.0                                 |
|   \\  /    A nd           | Web:      www.OpenFOAM.org                      |
|    \\/     M anipulation  |                                                 |
\*---------------------------------------------------------------------------*/
FoamFile
{
    version     2.0;
    format      ascii;
    class       volScalarField;
    location    "1.88";
    object      pMean;
}
// * * * * * * * * * * * * * * * * * * * * * * * * * * * * * * * * * * * * * //

dimensions      [0 2 -2 0 0 0 0];

internalField   nonuniform List<scalar> 
8800
(
86.8166
74.3806
66.977
63.4184
61.5264
60.0956
58.8873
57.7405
56.7109
55.6819
54.7308
53.7463
52.8401
51.8998
51.0569
50.187
49.4216
48.6383
47.9337
47.1538
83.7054
74.0262
67.1455
63.5323
61.5865
60.1208
58.8948
57.7408
56.7088
55.6794
54.728
53.7441
52.8376
51.898
51.0552
50.185
49.4237
48.6322
47.9344
47.1124
81.7405
74.1019
67.7474
63.9079
61.7542
60.1999
58.9414
57.7735
56.7332
55.6964
54.7384
53.7487
52.8392
51.8961
51.0544
50.1789
49.4289
48.6237
47.9836
47.1425
80.2052
74.1631
68.3342
64.3313
61.9382
60.2875
59.0042
57.8299
56.782
55.7351
54.7663
53.7658
52.8506
51.8995
51.0581
50.1735
49.4353
48.629
48.0789
47.2995
78.9562
74.1364
68.81
64.7371
62.107
60.3546
59.0536
57.8872
56.838
55.7866
54.802
53.7924
52.8641
51.9088
51.0583
50.1738
49.4309
48.6517
48.0941
47.5089
77.9708
74.0394
69.1756
65.083
62.2577
60.3969
59.0824
57.9312
56.8886
55.836
54.8377
53.8188
52.876
51.9169
51.0549
50.1722
49.4183
48.6675
48.1483
47.8133
77.2144
73.9227
69.4435
65.3626
62.3934
60.4223
59.0915
57.9623
56.9282
55.8776
54.867
53.8416
52.8833
51.923
51.0471
50.169
49.3982
48.67
48.2216
48.1906
76.6606
73.8227
69.624
65.5753
62.5114
60.4422
59.0838
57.9866
56.955
55.9119
54.886
53.8629
52.8838
51.9312
51.034
50.1716
49.3722
48.6626
48.1522
48.5363
76.3002
73.7524
69.7373
65.7203
62.5966
60.456
59.0745
58.0027
56.9751
55.9365
54.901
53.8782
52.8876
51.9375
51.03
50.1727
49.3593
48.6725
48.2201
48.8668
76.1211
73.7201
69.7946
65.7973
62.642
60.4657
59.0696
58.0133
56.9881
55.9525
54.911
53.8889
52.8928
51.9446
51.0323
50.1783
49.3654
48.6915
48.2832
48.9802
76.1142
73.7305
69.7949
65.8024
62.6415
60.4695
59.0668
58.0172
56.9881
55.957
54.9115
53.8942
52.8947
51.9521
51.0364
50.1885
49.3734
48.7131
48.319
49.0764
76.2836
73.7787
69.7388
65.7308
62.597
60.4644
59.0693
58.0114
56.9765
55.9468
54.9039
53.8921
52.8956
51.9572
51.044
50.1997
49.3877
48.7286
48.3425
49.11
76.6347
73.8608
69.6235
65.5882
62.5105
60.4552
59.0747
58
56.9555
55.9277
54.8895
53.886
52.8954
51.9643
51.0562
50.2172
49.4093
48.7485
48.346
49.0791
77.1812
73.9665
69.4412
65.3754
62.3871
60.4376
59.0781
57.9787
56.9249
55.8977
54.8676
53.8729
52.8927
51.9699
51.0706
50.2391
49.4389
48.7756
48.3338
48.9685
77.935
74.0825
69.1758
65.0931
62.2481
60.4087
59.0709
57.9454
56.8847
55.8567
54.8387
53.8523
52.8872
51.9713
51.0859
50.2624
49.4779
48.8131
48.3328
48.7727
78.9171
74.1803
68.8125
64.7458
62.0952
60.3637
59.0449
57.9002
56.8355
55.8074
54.8055
53.8269
52.8801
51.9688
51.1012
50.2839
49.5243
48.8623
48.3618
48.512
80.1639
74.2075
68.3395
64.3418
61.9256
60.2962
58.9975
57.8439
56.7804
55.7571
54.7721
53.8018
52.8723
51.9641
51.1143
50.3002
49.5701
48.9097
48.4211
48.2371
81.6987
74.1443
67.7561
63.9198
61.742
60.2083
58.936
57.7878
56.7332
55.7183
54.7474
53.7848
52.867
51.962
51.1241
50.3126
49.603
48.9462
48.4804
48.0949
83.663
74.0655
67.1562
63.5456
61.5751
60.1288
58.8896
57.7554
56.7096
55.7015
54.7382
53.7807
52.8675
51.9651
51.1306
50.3223
49.6184
48.9676
48.477
48.0183
86.7739
74.4181
66.9874
63.4321
61.5159
60.1034
58.8823
57.7553
56.7116
55.7045
54.7409
53.7834
52.8702
51.9675
51.1337
50.3257
49.622
48.9733
48.4783
48.1387
47.2352
47.1744
46.9677
46.7248
46.5107
46.3378
46.2102
46.1214
46.0666
46.0411
46.0396
46.0486
46.0596
46.0632
46.0551
46.0306
45.9893
45.927
45.847
45.7472
45.6351
45.5174
45.4034
45.2973
45.2067
45.1343
45.0821
45.0449
45.0183
44.9937
44.9654
44.929
44.8847
44.8318
44.7707
44.6979
44.613
44.5102
44.3917
44.2547
44.1055
43.944
43.7857
43.6366
43.5102
43.4072
43.3352
43.2898
43.2708
43.2676
43.2728
43.2712
43.2584
43.2246
43.1747
43.0993
43.0085
42.8982
42.7791
42.6421
42.4924
42.3227
42.1417
41.9485
41.7594
41.584
41.4397
41.3378
41.2872
41.28
41.3167
41.3829
41.4775
41.582
41.6994
41.8095
41.9182
42.006
42.0809
42.1282
42.1577
42.1623
42.1572
42.1331
42.1106
42.0831
42.0666
42.0611
42.072
42.1021
42.1536
42.2269
42.3217
42.4308
42.5544
42.6849
42.8271
42.9704
43.1197
43.2633
43.4055
43.5346
43.6594
43.7595
43.8563
43.9304
44.0031
44.059
44.1191
44.1624
44.2058
44.2329
44.2583
44.2662
44.2731
44.2676
44.2651
44.2539
44.25
44.2417
44.2473
44.2546
44.2832
44.3118
44.3648
44.4097
44.4847
44.5488
44.6453
44.7411
44.8661
44.9938
45.1395
45.2823
45.436
45.5836
45.742
45.8926
46.0485
46.1962
46.353
46.5082
46.6747
46.8421
47.0193
47.1933
47.3753
47.5554
47.7378
47.9145
48.0884
48.2544
48.4183
48.5726
48.7263
48.8736
49.0287
49.1715
49.326
49.4686
49.6315
49.765
49.9262
50.047
50.1974
50.3064
50.4494
50.5467
50.6821
50.7557
50.8949
50.9475
51.1041
51.154
51.3413
51.3998
51.6271
51.6985
51.9708
52.0712
52.3792
52.5245
52.8714
53.0851
53.4656
53.7475
54.1544
54.4699
54.8936
55.2036
55.6035
55.8274
56.087
56.0313
55.8811
55.0812
53.8089
50.4985
46.2703
25.7975
46.9985
46.9743
46.9139
46.7639
46.5735
46.3918
46.2528
46.1608
46.1127
46.0953
46.1002
46.1126
46.1252
46.1283
46.1198
46.0944
46.0533
45.9932
45.9177
45.826
45.7244
45.6175
45.5143
45.418
45.3359
45.2685
45.2183
45.181
45.1549
45.1317
45.1077
45.0761
45.0371
44.9878
44.93
44.8591
44.7766
44.6773
44.5646
44.4349
44.2953
44.147
44.0012
43.8631
43.7435
43.6445
43.5721
43.5231
43.497
43.4839
43.48
43.4713
43.4559
43.422
43.3746
43.3045
43.2196
43.1147
42.9988
42.8662
42.7224
42.5622
42.3921
42.2143
42.0399
41.8781
41.7431
41.6424
41.5864
41.5693
41.5929
41.6446
41.7237
41.8148
41.9163
42.0139
42.1064
42.1814
42.2408
42.2765
42.2952
42.2921
42.2792
42.2533
42.2261
42.1982
42.1763
42.1667
42.1697
42.1901
42.2299
42.2901
42.3706
42.466
42.577
42.697
42.8277
42.9595
43.0957
43.2274
43.3578
43.4771
43.5894
43.6802
43.7652
43.8317
43.8937
43.9409
43.9873
44.021
44.0512
44.0686
44.08
44.0772
44.0671
44.05
44.0307
44.0086
43.9897
43.9696
43.9648
43.9629
43.9842
44.0067
44.054
44.0975
44.1674
44.232
44.3213
44.412
44.5266
44.6441
44.7789
44.9103
45.0539
45.1902
45.3385
45.48
45.6256
45.7644
45.9131
46.0598
46.217
46.375
46.5453
46.7071
46.8838
47.0528
47.2308
47.399
47.5683
47.7276
47.8946
48.0451
48.2066
48.3538
48.5213
48.6621
48.8269
48.966
49.1311
49.2534
49.411
49.5191
49.6622
49.7567
49.8897
49.9601
50.0864
50.1238
50.2506
50.2628
50.4063
50.4122
50.5891
50.6046
50.821
50.8557
51.1092
51.1845
51.4591
51.5852
51.884
52.0706
52.4011
52.6267
52.9872
53.21
53.5695
53.7357
54.0154
54.008
54.057
53.6023
53.0802
51.429
49.6524
43.8798
37.9629
19.0859
46.9827
46.9846
46.9925
46.8951
46.7037
46.4821
46.2981
46.1787
46.128
46.1224
46.1432
46.168
46.1882
46.1932
46.1837
46.1554
46.1121
46.0515
45.9789
45.8934
45.8019
45.7061
45.6143
45.5282
45.4546
45.3925
45.3457
45.3094
45.2837
45.2609
45.2391
45.2104
45.1756
45.1297
45.0754
45.0074
44.9284
44.834
44.7283
44.6089
44.4818
44.3482
44.2168
44.0919
43.982
43.8889
43.8179
43.7658
43.7336
43.7119
43.6989
43.6824
43.6619
43.6266
43.5793
43.5129
43.4319
43.3326
43.2206
43.0939
42.9563
42.8069
42.6505
42.4896
42.3329
42.1872
42.0643
41.9692
41.9107
41.8867
41.8987
41.9382
42.0027
42.0802
42.1664
42.2497
42.3259
42.3866
42.4303
42.454
42.4611
42.4518
42.4312
42.403
42.3705
42.34
42.3136
42.2977
42.2917
42.3005
42.3267
42.3727
42.4378
42.5207
42.6199
42.731
42.8502
42.972
43.0959
43.216
43.3334
43.4422
43.5409
43.6222
43.6966
43.7571
43.8111
43.8536
43.8921
43.9212
43.943
43.9557
43.9567
43.9456
43.9232
43.8963
43.8653
43.832
43.8032
43.7742
43.7661
43.759
43.7785
43.7986
43.8453
43.8923
43.9596
44.0269
44.1113
44.2005
44.306
44.4145
44.5386
44.6597
44.7932
44.9194
45.056
45.1877
45.3224
45.4519
45.593
45.7323
45.8834
46.0358
46.2012
46.3583
46.5324
46.6943
46.8687
47.0248
47.1879
47.3371
47.5039
47.6507
47.8215
47.9696
48.1472
48.2892
48.4644
48.6056
48.7689
48.8841
49.0347
49.1283
49.2653
49.3363
49.4622
49.4985
49.6169
49.6193
49.735
49.709
49.8456
49.8113
49.9813
49.9616
50.1526
50.1663
50.3722
50.432
50.6505
50.7508
50.9991
51.1344
51.4236
51.566
51.8805
51.9863
52.2729
52.2653
52.4348
52.1385
52.0326
51.038
50.395
47.613
45.6633
38.5416
31.4374
18.5706
46.7833
46.8146
47.0141
46.9971
46.7979
46.5287
46.3011
46.1635
46.1196
46.1358
46.1834
46.2314
46.2667
46.278
46.2679
46.2349
46.1864
46.1224
46.05
45.9688
45.8855
45.8001
45.72
45.6448
45.5808
45.5258
45.4836
45.4492
45.424
45.4008
45.3794
45.3522
45.3199
45.2768
45.2254
45.161
45.0867
44.999
44.9022
44.7947
44.6817
44.5639
44.4485
44.3374
44.2383
44.1516
44.0827
44.0281
43.9897
43.9599
43.938
43.9147
43.8887
43.852
43.8047
43.7417
43.6649
43.5721
43.4668
43.3485
43.2208
43.0842
42.9428
42.7994
42.6607
42.5317
42.4216
42.3338
42.2752
42.2456
42.2471
42.2734
42.3223
42.384
42.4532
42.5197
42.5789
42.6245
42.6538
42.6669
42.6641
42.6483
42.621
42.5886
42.552
42.5175
42.486
42.4614
42.4442
42.4392
42.4508
42.4826
42.5344
42.6058
42.6951
42.7962
42.9048
43.0153
43.1276
43.2352
43.3391
43.4346
43.519
43.5889
43.654
43.7103
43.7608
43.8032
43.8397
43.8684
43.8881
43.8982
43.8928
43.8752
43.8469
43.8113
43.775
43.7337
43.7017
43.671
43.6631
43.6548
43.6756
43.6976
43.7484
43.7984
43.8672
43.9348
44.0204
44.1083
44.2109
44.3133
44.4275
44.5404
44.664
44.7817
44.9082
45.0286
45.1523
45.2722
45.4068
45.5393
45.6878
45.8388
46.0027
46.1628
46.3373
46.4948
46.6648
46.8074
46.9645
47.1022
47.269
47.4095
47.5896
47.7412
47.9287
48.0756
48.2622
48.3978
48.5598
48.6627
48.8133
48.877
49.019
49.0519
49.1802
49.176
49.2933
49.2564
49.3672
49.3068
49.4401
49.3841
49.5301
49.4993
49.6405
49.6453
49.7892
49.8253
49.9875
50.0465
50.2456
50.3104
50.553
50.5924
50.8603
50.8107
51.0664
50.8019
50.9571
50.2318
50.149
48.4424
47.7846
44.1502
41.6572
34.9535
27.4134
18.7953
47.4761
47.4152
47.2569
47.0045
46.6998
46.3996
46.1878
46.0858
46.0797
46.1336
46.2178
46.2966
46.3523
46.3733
46.3641
46.3269
46.272
46.203
46.1286
46.0497
45.9728
45.8972
45.8285
45.7652
45.7117
45.6655
45.6291
45.5983
45.5744
45.5516
45.5302
45.5041
45.4737
45.434
45.3867
45.3282
45.2608
45.1824
45.0963
45.0019
44.9035
44.8013
44.7007
44.6027
44.5134
44.4328
44.3653
44.3088
44.2648
44.2287
44.1993
44.1703
44.1395
44.1013
44.0542
43.9951
43.9239
43.8395
43.7437
43.6367
43.5215
43.3991
43.2736
43.1471
43.0257
42.9123
42.8145
42.7345
42.6777
42.644
42.6357
42.649
42.6813
42.7253
42.7752
42.8233
42.865
42.896
42.9129
42.9162
42.9056
42.8833
42.8512
42.8136
42.7723
42.7308
42.6908
42.6537
42.6219
42.6008
42.5978
42.6153
42.6562
42.7172
42.7985
42.8914
42.9911
43.0927
43.1945
43.2906
43.3816
43.4631
43.5343
43.5944
43.6531
43.7071
43.7564
43.8019
43.8387
43.8696
43.8898
43.8979
43.8899
43.8679
43.8373
43.7977
43.7616
43.7193
43.6898
43.6643
43.6593
43.6579
43.6828
43.7136
43.7679
43.8234
43.895
43.9661
44.0566
44.1428
44.2474
44.344
44.4537
44.5565
44.6731
44.7818
44.9033
45.0108
45.1291
45.2398
45.3702
45.4956
45.6465
45.7973
45.967
46.1324
46.3095
46.4617
46.6299
46.7576
46.9128
47.0384
47.2069
47.3424
47.5302
47.6821
47.8824
48.0264
48.2285
48.3473
48.5136
48.5942
48.7484
48.7784
48.9292
48.9175
49.0503
49.0042
49.1217
49.0475
49.1483
49.0729
49.1922
49.1408
49.2531
49.218
49.3185
49.2976
49.3943
49.3838
49.5065
49.4985
49.6658
49.6267
49.8443
49.7303
49.9862
49.7118
49.9714
49.382
49.5387
48.3834
48.2184
46.0623
45.0186
41.3691
38.1434
32.8014
25.7036
19.3345
48.0591
47.9607
47.5145
47.0109
46.5562
46.2125
46.0313
45.9913
46.0481
46.1571
46.283
46.3901
46.4606
46.4868
46.4755
46.4328
46.3707
46.2959
46.218
46.1401
46.0676
46.0004
45.9416
45.8896
45.8464
45.8093
45.7795
45.7536
45.7319
45.7106
45.6896
45.6649
45.6364
45.6006
45.5582
45.5067
45.4476
45.3796
45.3052
45.2243
45.1397
45.052
44.9649
44.8792
44.799
44.7249
44.6597
44.6027
44.5548
44.5135
44.4775
44.4428
44.4071
44.3668
44.3199
44.2642
44.1988
44.1229
44.0372
43.9422
43.8401
43.7326
43.623
43.5134
43.4084
43.3103
43.2245
43.1526
43.0988
43.063
43.0474
43.0502
43.0677
43.0947
43.1257
43.156
43.1811
43.1981
43.2038
43.1986
43.181
43.1528
43.1149
43.0701
43.0205
42.9685
42.9166
42.8645
42.8165
42.7776
42.7607
42.766
42.7971
42.8506
42.9266
43.0135
43.106
43.2009
43.2938
43.3803
43.4601
43.5315
43.5934
43.6487
43.7045
43.758
43.8092
43.859
43.8994
43.9325
43.9537
43.9598
43.9499
43.9234
43.893
43.8547
43.8219
43.787
43.7652
43.7502
43.7538
43.7667
43.801
43.8461
43.9067
43.9721
44.0477
44.1288
44.2229
44.3157
44.4221
44.5167
44.6242
44.7165
44.8283
44.9273
45.0444
45.1422
45.2595
45.364
45.4914
45.6136
45.7694
45.9221
46.1044
46.2752
46.4573
46.6069
46.7695
46.8858
47.0361
47.1535
47.3213
47.4473
47.647
47.7904
48.0069
48.1389
48.3553
48.4513
48.634
48.6812
48.8487
48.8381
48.9991
48.946
49.0823
48.992
49.1093
48.9986
49.0947
49.0124
49.1238
49.0717
49.1757
49.1158
49.2018
49.1341
49.206
49.1209
49.2251
49.122
49.2637
49.1059
49.2792
49.0222
49.2186
48.7716
48.9217
48.1317
48.0878
46.7381
46.2328
44.063
42.5397
39.3822
35.8949
31.8525
25.7307
20.4581
48.7036
48.5062
47.6773
46.8594
46.2417
45.8909
45.7983
45.8736
46.0302
46.2106
46.3786
46.507
46.5833
46.6066
46.5868
46.5346
46.4631
46.3821
46.3007
46.2237
46.155
46.0952
46.0451
46.0034
45.9695
45.9414
45.9182
45.8978
45.8793
45.8604
45.8405
45.8174
45.7906
45.7585
45.7206
45.676
45.625
45.5672
45.5039
45.4355
45.3637
45.2892
45.2142
45.1398
45.0681
45.0004
44.9383
44.8823
44.8324
44.7879
44.7472
44.7084
44.6691
44.6274
44.5811
44.5289
44.4692
44.4016
44.3259
44.2428
44.1539
44.061
43.9664
43.8725
43.7822
43.6977
43.6223
43.5583
43.5082
43.4734
43.4544
43.45
43.4569
43.4699
43.4848
43.499
43.5094
43.5146
43.5109
43.4976
43.473
43.4382
43.3926
43.3379
43.2775
43.214
43.1491
43.0815
43.017
42.9615
42.9306
42.9263
42.9517
43.0031
43.0775
43.1616
43.2499
43.3397
43.4243
43.5039
43.575
43.6396
43.6976
43.755
43.8104
43.8661
43.9218
43.9758
44.0198
44.0542
44.0775
44.0822
44.071
44.0412
44.0107
43.9764
43.9506
43.9298
43.92
43.922
43.9425
43.977
44.0288
44.0933
44.1673
44.2457
44.3291
44.4194
44.5185
44.6203
44.7257
44.8255
44.9278
45.0195
45.1254
45.22
45.3321
45.4286
45.5429
45.6471
45.7745
45.9009
46.0618
46.2199
46.411
46.5928
46.7779
46.9301
47.0822
47.1909
47.3324
47.4452
47.6101
47.7208
47.9325
48.0658
48.2888
48.422
48.6471
48.7196
48.9197
48.9402
49.1133
49.0763
49.2297
49.154
49.2788
49.1704
49.2643
49.138
49.2217
49.1531
49.2496
49.2047
49.2904
49.2251
49.2848
49.1832
49.2119
49.0712
49.1177
48.943
48.9915
48.7539
48.8122
48.4665
48.5294
47.9775
47.9421
47.0657
46.7959
45.4005
44.642
42.6244
40.9102
38.3677
35.027
31.8759
26.7925
22.1191
49.9847
49.5479
47.9252
46.5827
45.7557
45.4255
45.4717
45.715
46.0108
46.28
46.4912
46.6348
46.7097
46.7236
46.6899
46.6249
46.5427
46.4558
46.3723
46.2975
46.2335
46.1811
46.1392
46.1066
46.0811
46.061
46.0442
46.0291
46.014
45.998
45.9796
45.9584
45.9334
45.9044
45.8704
45.8316
45.7873
45.7381
45.684
45.6259
45.5643
45.5006
45.4354
45.3705
45.3066
45.2454
45.1873
45.1336
45.0837
45.0381
44.9952
44.9547
44.9142
44.8732
44.829
44.7813
44.7278
44.6688
44.603
44.5318
44.4552
44.3755
44.2938
44.2132
44.135
44.0624
43.9966
43.9406
43.8951
43.8627
43.8417
43.8326
43.8306
43.8325
43.8339
43.8349
43.8328
43.8283
43.8167
43.7962
43.7644
43.7221
43.6675
43.6029
43.5324
43.4576
43.3815
43.3006
43.2217
43.1536
43.1122
43.1032
43.1273
43.181
43.2548
43.3376
43.4228
43.5079
43.5869
43.661
43.7278
43.7922
43.8523
43.9159
43.9742
44.0359
44.0967
44.1531
44.1985
44.2326
44.2562
44.2616
44.2497
44.2209
44.1912
44.1646
44.1506
44.1484
44.1566
44.1829
44.228
44.291
44.3665
44.4549
44.5465
44.6404
44.7368
44.8374
44.9439
45.0504
45.1552
45.2568
45.3544
45.4528
45.5572
45.6534
45.7648
45.8642
45.9753
46.0871
46.2131
46.3474
46.5172
46.6794
46.8844
47.078
47.2652
47.416
47.571
47.6642
47.8021
47.9089
48.0725
48.1763
48.391
48.5184
48.7347
48.8674
49.1021
49.1617
49.3674
49.37
49.545
49.4952
49.6384
49.5636
49.6663
49.5479
49.6111
49.478
49.5405
49.492
49.5811
49.548
49.6158
49.5472
49.5879
49.4428
49.4314
49.2364
49.2177
48.9618
48.9086
48.5831
48.5351
48.0978
48.0654
47.4132
47.2613
46.3211
45.9226
44.5608
43.7003
41.9296
40.1946
38.177
35.1385
32.4646
28.2519
24.0269
50.4986
50.0064
48.1003
46.4954
45.5237
45.1737
45.2862
45.6311
46.0196
46.357
46.6076
46.7674
46.8403
46.8419
46.7911
46.7108
46.6175
46.5251
46.4404
46.3684
46.3095
46.2643
46.2302
46.2059
46.1879
46.1748
46.1634
46.1529
46.141
46.1275
46.1108
46.0915
46.0682
46.0417
46.011
45.9767
45.9377
45.8952
45.848
45.798
45.7444
45.6892
45.632
45.5748
45.5175
45.4621
45.408
45.3572
45.3086
45.2636
45.2208
45.1806
45.1408
45.1018
45.0608
45.0181
44.9711
44.9202
44.8636
44.8031
44.7377
44.6701
44.6002
44.5317
44.465
44.4037
44.3476
44.2998
44.2595
44.2297
44.208
44.1948
44.1845
44.176
44.1651
44.1537
44.141
44.1285
44.1103
44.0846
44.0482
44.0006
43.9391
43.8663
43.7859
43.7013
43.6149
43.5223
43.4351
43.3587
43.3128
43.3034
43.3311
43.3884
43.4634
43.5447
43.6282
43.7098
43.7863
43.8572
43.9255
43.9967
44.0666
44.1383
44.2038
44.273
44.3378
44.3933
44.4366
44.4691
44.4934
44.4997
44.4899
44.4667
44.4449
44.433
44.436
44.4541
44.4865
44.5406
44.6157
44.7114
44.8151
44.9314
45.0438
45.1565
45.2677
45.3781
45.492
45.5985
45.7047
45.8055
45.9021
46.0094
46.1128
46.2169
46.3321
46.4322
46.5476
46.6661
46.7916
46.9377
47.1197
47.2879
47.5061
47.7149
47.916
48.0478
48.2331
48.2927
48.445
48.5392
48.6921
48.8029
49.0139
49.1276
49.3529
49.4708
49.7247
49.7516
49.991
49.9576
50.1514
50.0634
50.2285
50.1411
50.2578
50.0922
50.146
50.0074
50.0726
50.0341
50.1157
50.0924
50.1506
50.0766
50.1064
49.8894
49.864
49.6072
49.529
49.1808
49.065
48.6317
48.5041
48.0305
47.9165
47.2623
47.0531
46.0551
45.6013
44.3012
43.3989
41.8846
40.1859
38.5068
35.7978
33.3524
29.7929
25.9858
50.7496
50.2995
48.3141
46.59
45.5191
45.1066
45.2131
45.5984
46.0411
46.4254
46.7069
46.8811
46.9538
46.9457
46.881
46.7879
46.6854
46.5886
46.5036
46.4348
46.3812
46.3428
46.3161
46.2993
46.2879
46.2806
46.2737
46.2668
46.2575
46.2462
46.2312
46.2136
46.1921
46.1681
46.1403
46.1097
46.0751
46.0378
45.9964
45.9528
45.9059
45.8576
45.8071
45.7563
45.7047
45.6543
45.6045
45.5572
45.5112
45.4684
45.4272
45.3888
45.3513
45.3155
45.2788
45.2416
45.2011
45.1578
45.1097
45.0589
45.0037
44.9469
44.8879
44.8306
44.7748
44.7238
44.6774
44.6379
44.6035
44.5774
44.5559
44.5379
44.5189
44.5003
44.4792
44.4574
44.4358
44.4175
44.3957
44.368
44.3298
44.2797
44.2151
44.1383
44.0511
43.9567
43.861
43.7583
43.6658
43.5844
43.5385
43.5307
43.566
43.6291
43.7088
43.7901
43.8754
43.9548
44.03
44.0994
44.1736
44.2552
44.3391
44.4214
44.497
44.5714
44.6383
44.6927
44.7352
44.7676
44.7927
44.8004
44.7974
44.7854
44.7787
44.7876
44.8142
44.8582
44.9183
45.0023
45.1094
45.2378
45.3741
45.5183
45.6546
45.7884
45.915
46.0335
46.1505
46.2556
46.362
46.459
46.5606
46.6742
46.7835
46.897
47.0202
47.1243
47.2501
47.3731
47.5057
47.6598
47.8588
48.0355
48.2666
48.4855
48.7161
48.819
49.0521
49.0592
49.2418
49.3098
49.4735
49.5742
49.7883
49.8721
50.1267
50.2141
50.5099
50.4748
50.7883
50.6697
50.9499
50.7638
51.0115
50.8898
51.0637
50.8025
50.8802
50.7022
50.8123
50.7672
50.8748
50.8303
50.8994
50.79
50.8278
50.5122
50.5044
50.1921
50.0543
49.5889
49.4288
48.9084
48.7908
48.3141
48.1891
47.4549
47.2457
46.1722
45.6984
44.4728
43.5448
42.2456
40.6308
39.1223
36.7194
34.3988
31.2963
27.8804
50.9056
50.4786
48.4681
46.6866
45.5646
45.1119
45.2091
45.6118
46.0833
46.4934
46.7921
46.974
47.0449
47.0284
46.9537
46.8523
46.7452
46.6474
46.5644
46.4997
46.4518
46.42
46.4
46.3892
46.3832
46.38
46.3764
46.3719
46.3644
46.3546
46.3412
46.3253
46.3058
46.284
46.2589
46.2317
46.201
46.1682
46.1319
46.0935
46.0523
46.0096
45.9649
45.9198
45.8736
45.8283
45.7829
45.7395
45.6972
45.6577
45.6196
45.5842
45.5499
45.5177
45.4856
45.4541
45.4202
45.3846
45.3453
45.3039
45.2588
45.2124
45.1646
45.1183
45.0726
45.0311
44.9941
44.9629
44.9345
44.9109
44.8883
44.8648
44.8378
44.8103
44.7801
44.7503
44.7231
44.7011
44.6786
44.6533
44.6183
44.5703
44.507
44.4293
44.3394
44.238
44.1349
44.0248
43.93
43.8461
43.8065
43.8002
43.8444
43.9129
43.9982
44.0797
44.1705
44.2505
44.3277
44.3964
44.4812
44.5742
44.6736
44.7652
44.8498
44.9261
44.9937
45.0471
45.0925
45.1276
45.1565
45.1699
45.1811
45.1841
45.2023
45.2357
45.2954
45.3666
45.4613
45.5757
45.7175
45.8741
46.0445
46.2103
46.3764
46.5282
46.6729
46.7971
46.9168
47.0148
47.1201
47.2102
47.3225
47.4377
47.5643
47.6862
47.8203
47.9345
48.0716
48.2005
48.3496
48.5098
48.7301
48.912
49.1576
49.3753
49.6399
49.7213
49.9924
49.9474
50.1782
50.1992
50.4076
50.4637
50.7106
50.7597
51.0499
51.097
51.4152
51.3218
51.7032
51.5203
51.8756
51.6184
51.9864
51.8028
52.0501
51.6837
51.828
51.5765
51.7769
51.6712
51.8378
51.7501
51.8439
51.7045
51.7502
51.3162
51.3089
50.9411
50.71
50.2202
50.0315
49.5181
49.4476
48.8736
48.7236
47.902
47.7435
46.5965
46.0938
44.9456
44.0097
42.8504
41.3693
39.9061
37.7393
35.5245
32.741
29.6666
50.9639
50.5363
48.5228
46.7415
45.6246
45.1794
45.2874
45.6999
46.1769
46.5866
46.8808
47.0547
47.1158
47.0897
47.0084
46.9041
46.7977
46.703
46.625
46.5661
46.5246
46.4987
46.4841
46.4777
46.475
46.4743
46.4726
46.4694
46.4633
46.4547
46.4428
46.4286
46.4113
46.392
46.3698
46.3457
46.3187
46.2898
46.2582
46.2247
46.1886
46.1509
46.1114
46.0712
46.03
45.9894
45.949
45.9102
45.8726
45.8373
45.8033
45.7717
45.7416
45.7138
45.6866
45.6603
45.6331
45.6052
45.5749
45.5429
45.5079
45.4719
45.4356
45.4005
45.3659
45.3345
45.3073
45.2835
45.2596
45.2366
45.2118
45.1827
45.1478
45.1101
45.0702
45.0336
45.0033
44.982
44.9647
44.947
44.9203
44.881
44.8251
44.7515
44.6614
44.556
44.4475
44.335
44.2412
44.1623
44.1338
44.1298
44.1827
44.2513
44.3392
44.4163
44.5138
44.5957
44.6794
44.7523
44.8555
44.962
45.0793
45.1776
45.2668
45.3353
45.4048
45.4539
45.5076
45.548
45.5867
45.6098
45.6419
45.6673
45.7208
45.7838
45.8836
45.9842
46.1192
46.2624
46.4403
46.6222
46.8276
47.0136
47.2055
47.3703
47.535
47.6628
47.7867
47.8801
47.9813
48.0689
48.1913
48.3084
48.4524
48.5886
48.7349
48.864
49.012
49.1509
49.3136
49.4802
49.7119
49.9085
50.1584
50.3719
50.6626
50.7619
50.9873
50.9255
51.2376
51.1774
51.4549
51.4433
51.7466
51.7757
52.0802
52.1304
52.41
52.2972
52.7243
52.5204
52.9008
52.6359
53.0885
52.8686
53.1442
52.7138
52.8993
52.5962
52.9181
52.7684
52.9794
52.8413
52.9595
52.8182
52.7611
52.3073
52.2655
51.7662
51.5618
51.0932
50.877
50.3539
50.2214
49.6148
49.4682
48.6584
48.3436
47.262
46.7277
45.6621
44.7634
43.625
42.2705
40.786
38.8079
36.6997
34.1466
31.3503
50.9145
50.4783
48.4964
46.7754
45.7193
45.3306
45.4701
45.8803
46.334
46.7126
46.9769
47.1243
47.1655
47.1282
47.0442
46.9429
46.843
46.7562
46.6866
46.6356
46.6012
46.5808
46.5701
46.5662
46.5651
46.5651
46.564
46.5613
46.5561
46.5486
46.5383
46.5259
46.511
46.4943
46.4752
46.4544
46.4314
46.4066
46.3795
46.3505
46.3192
46.2863
46.2517
46.2163
46.1804
46.1449
46.1101
46.0767
46.0444
46.0139
45.985
45.9581
45.9331
45.9104
45.889
45.8686
45.848
45.8273
45.8058
45.7836
45.759
45.7334
45.7084
45.6847
45.6617
45.6416
45.6243
45.6072
45.5876
45.5655
45.5377
45.5015
45.458
45.4111
45.3643
45.3244
45.294
45.2754
45.2659
45.2588
45.2449
45.2199
45.1773
45.112
45.0247
44.9209
44.8122
44.7021
44.6112
44.5424
44.5254
44.5283
44.5872
44.6505
44.7334
44.8078
44.9154
45.0003
45.094
45.1781
45.3067
45.428
45.5644
45.6653
45.7557
45.8123
45.8788
45.9241
45.9913
46.0356
46.0896
46.1274
46.1891
46.2449
46.3397
46.4369
46.5801
46.716
46.8948
47.0677
47.2822
47.4858
47.7183
47.9185
48.1336
48.3079
48.4901
48.6222
48.7537
48.8429
48.9474
49.0384
49.1695
49.2978
49.4607
49.6107
49.7701
49.9145
50.0697
50.2177
50.3941
50.569
50.8026
51.0162
51.2643
51.4916
51.7679
51.9209
52.0549
52.0167
52.3481
52.2274
52.5751
52.546
52.9146
52.9272
53.2076
53.288
53.5094
53.4307
53.8108
53.628
54.0658
53.8592
54.2901
54.1343
54.316
53.8821
54.1245
53.7502
54.1837
53.9907
54.2399
54.0953
54.1969
54.0191
53.9125
53.459
53.346
52.7551
52.5899
52.0806
51.8371
51.4191
51.1828
50.7313
50.2977
49.5903
49.0969
48.1409
47.5767
46.5734
45.7298
44.5412
43.2949
41.7423
39.9265
37.9069
35.5297
32.9564
50.7114
50.2707
48.3919
46.8138
45.8818
45.5897
45.7632
46.1466
46.5437
46.8608
47.0711
47.1754
47.1898
47.1418
47.0598
46.9676
46.8802
46.8061
46.7482
46.7067
46.6794
46.6634
46.6551
46.6516
46.6502
46.6495
46.6479
46.6451
46.6402
46.6336
46.6249
46.6144
46.6019
46.5879
46.5722
46.5552
46.5363
46.5158
46.4934
46.4691
46.4426
46.4145
46.3846
46.3542
46.3242
46.2951
46.2665
46.2388
46.2121
46.1872
46.1637
46.1422
46.1229
46.1061
46.091
46.0774
46.0648
46.0535
46.0421
46.029
46.0141
45.9994
45.986
45.9738
45.9631
45.9541
45.9457
45.9352
45.9199
45.8984
45.8681
45.828
45.7791
45.7248
45.6718
45.6296
45.6024
45.5917
45.5935
45.6002
45.6033
45.5962
45.5694
45.5156
45.4344
45.3376
45.2314
45.1282
45.0452
44.9932
44.984
44.9903
45.0487
45.1082
45.1858
45.27
45.3894
45.484
45.5931
45.7005
45.8515
45.9837
46.1324
46.2353
46.3252
46.3712
46.4358
46.4815
46.5598
46.6134
46.6887
46.7471
46.8413
46.9305
47.0653
47.1991
47.3845
47.5569
47.7758
47.9806
48.2259
48.4516
48.7033
48.9162
49.146
49.3274
49.522
49.6638
49.8026
49.8952
50.0081
50.1095
50.2554
50.3964
50.5792
50.7447
50.9184
51.0763
51.2292
51.3876
51.566
51.7561
51.9853
52.2257
52.4572
52.706
52.9565
53.1364
53.1921
53.2688
53.5078
53.3807
53.7799
53.7681
54.1627
54.1762
54.4383
54.5734
54.6866
54.7242
54.9573
54.8598
55.3258
55.2487
55.5976
55.4748
55.5955
55.2213
55.4397
55.1837
55.5231
55.3087
55.5615
55.4522
55.5124
55.3119
55.0872
54.6427
54.5031
53.8914
53.6857
53.2413
52.9417
52.6747
52.2356
51.9589
51.2457
50.7756
49.985
49.2167
48.5678
47.6765
46.8562
45.5964
44.4231
42.774
41.0861
39.1148
36.8839
34.4866
50.2475
49.8314
48.2178
46.9109
46.1777
45.991
46.1674
46.4833
46.7875
47.0154
47.1525
47.2053
47.1922
47.1372
47.0623
46.9842
46.9132
46.8545
46.8094
46.7772
46.7556
46.7421
46.7341
46.7294
46.7264
46.7239
46.7212
46.7178
46.7133
46.7075
46.7004
46.6918
46.6819
46.6708
46.6585
46.6451
46.6304
46.6144
46.5967
46.5772
46.5556
46.5325
46.5084
46.4838
46.4595
46.4365
46.4151
46.3946
46.3744
46.355
46.337
46.3216
46.3092
46.2992
46.2911
46.2853
46.2816
46.2794
46.2781
46.2764
46.2733
46.2695
46.2667
46.2656
46.266
46.2665
46.2658
46.2611
46.2503
46.2312
46.2006
46.1576
46.1052
46.0472
45.9907
45.9494
45.9297
45.9309
45.9472
45.9706
45.9919
46.0023
45.99
45.9478
45.8773
45.7927
45.6929
45.6059
45.5345
45.4993
45.4974
45.5147
45.57
45.6206
45.6956
45.802
45.9361
46.0495
46.1762
46.3177
46.4816
46.6258
46.7791
46.8859
46.9731
47.0229
47.0836
47.1379
47.2254
47.2987
47.3973
47.4867
47.6112
47.734
47.8993
48.0699
48.283
48.4939
48.7388
48.9789
49.2412
49.4894
49.7512
49.9815
50.2202
50.4131
50.6129
50.7657
50.9156
51.0165
51.1473
51.2658
51.4239
51.5853
51.7774
51.954
52.1374
52.3002
52.4523
52.6222
52.8046
53.0113
53.2454
53.5133
53.7262
54.004
54.1985
54.3619
54.4291
54.5917
54.6868
54.7551
55.0685
55.1182
55.5001
55.5054
55.7389
55.9044
55.9702
56.1003
56.1625
56.319
56.6915
56.6839
56.9161
56.8122
56.8857
56.6702
56.8516
56.7419
56.8941
56.7767
56.8973
56.8337
56.7762
56.5643
56.3102
55.9701
55.7128
55.2125
54.9244
54.5699
54.1714
53.9879
53.4264
53.213
52.2508
52.0232
51.0002
50.4514
49.6614
48.9526
48.0475
46.77
45.6285
43.8952
42.2808
40.3228
38.2276
35.9623
49.4874
49.1649
48.0288
47.1209
46.6281
46.5176
46.6408
46.8407
47.0214
47.1456
47.2074
47.2139
47.1804
47.1242
47.0599
46.9977
46.9433
46.8989
46.8646
46.8392
46.8208
46.8078
46.7986
46.7919
46.7868
46.7826
46.7788
46.7752
46.7711
46.7663
46.7605
46.7538
46.746
46.7375
46.7281
46.7182
46.7078
46.6965
46.6834
46.6686
46.6521
46.6341
46.6155
46.5974
46.5798
46.5632
46.5484
46.5353
46.5229
46.5103
46.4986
46.4905
46.4864
46.4849
46.4851
46.4877
46.4929
46.5001
46.5076
46.514
46.5205
46.5285
46.5375
46.5469
46.556
46.5638
46.5691
46.5692
46.5622
46.546
46.5172
46.4766
46.4251
46.3673
46.3146
46.2811
46.2735
46.2884
46.3176
46.3536
46.3883
46.4117
46.4115
46.3823
46.3277
46.2627
46.1749
46.1155
46.0642
46.0488
46.0513
46.0807
46.1282
46.1846
46.2695
46.3938
46.5356
46.6759
46.8288
47.0047
47.1724
47.3295
47.4776
47.5949
47.6826
47.7505
47.8118
47.8859
47.9767
48.078
48.1938
48.3218
48.4677
48.6289
48.8131
49.0217
49.252
49.496
49.7524
50.0197
50.2842
50.5554
50.8151
51.0607
51.2972
51.511
51.7126
51.8922
52.0443
52.1762
52.3141
52.4581
52.621
52.8057
52.9926
53.1904
53.3716
53.5482
53.7048
53.892
54.0775
54.3078
54.5424
54.8187
55.0247
55.3445
55.461
55.6514
55.6669
55.8941
55.9659
56.2254
56.3873
56.5652
56.7995
56.8636
57.0849
57.26
57.251
57.5032
57.5001
57.8826
57.9842
58.0794
58.1669
58.1618
58.2134
58.2046
58.2504
58.214
58.217
58.2444
58.1941
58.1822
58.0078
57.8459
57.48
57.3388
56.8817
56.6235
56.1832
55.9465
55.4545
55.3587
54.5681
54.3356
53.3335
53.2174
52.0394
51.7919
50.7865
50.2272
49.1419
47.9886
46.8005
45.0444
43.4472
41.5141
39.5329
37.352
48.6527
48.4853
47.9322
47.4612
47.1807
47.0778
47.0888
47.1453
47.2008
47.2328
47.2342
47.2085
47.1644
47.1117
47.0585
47.0099
46.9682
46.934
46.9065
46.8846
46.8672
46.8534
46.8426
46.834
46.8273
46.822
46.8176
46.8137
46.81
46.806
46.8012
46.7957
46.7897
46.7836
46.7773
46.7704
46.763
46.7556
46.7473
46.7371
46.7252
46.713
46.7008
46.6885
46.677
46.6681
46.6615
46.6561
46.6512
46.6464
46.6437
46.6446
46.6487
46.6552
46.664
46.6752
46.6885
46.7033
46.7192
46.7347
46.749
46.763
46.7783
46.7948
46.8103
46.8225
46.8306
46.8339
46.8308
46.8183
46.7949
46.762
46.7205
46.6745
46.6344
46.6138
46.6191
46.6455
46.6842
46.7262
46.7654
46.7963
46.8077
46.7957
46.7616
46.7267
46.6666
46.6392
46.6071
46.6128
46.6249
46.674
46.715
46.7877