/*--------------------------------*- C++ -*----------------------------------*\
| =========                 |                                                 |
| \\      /  F ield         | OpenFOAM: The Open Source CFD Toolbox           |
|  \\    /   O peration     | Version:  2.4.0                                 |
|   \\  /    A nd           | Web:      www.OpenFOAM.org                      |
|    \\/     M anipulation  |                                                 |
\*---------------------------------------------------------------------------*/
FoamFile
{
    version     2.0;
    format      ascii;
    class       volVectorField;
    location    "1.88";
    object      U_0;
}
// * * * * * * * * * * * * * * * * * * * * * * * * * * * * * * * * * * * * * //

dimensions      [0 1 -1 0 0 0 0];

internalField   nonuniform List<vector> 
8800
(
(8.09256 0.387887 0)
(5.45273 0.242484 0)
(3.90766 0.0432876 0)
(3.1618 -0.0157062 0)
(2.79411 -0.01836 0)
(2.60787 -0.0107668 0)
(2.47317 -0.00587335 0)
(2.39377 -0.00263476 0)
(2.30341 -0.000413492 0)
(2.26679 -0.001949 0)
(2.20015 -3.55923e-05 0)
(2.18681 -0.000114675 0)
(2.12343 3.80648e-05 0)
(2.12701 -0.000736825 0)
(2.05796 0.00162853 0)
(2.06624 -0.00105134 0)
(2.00079 0.000492201 0)
(2.01119 -0.00305383 0)
(2.02448 0.0119419 0)
(1.7225 -0.0745158 0)
(10.0807 0.837907 0)
(9.67124 0.868223 0)
(8.85431 0.507632 0)
(8.107 0.261155 0)
(7.46638 0.13797 0)
(7.03734 0.0826738 0)
(6.6651 0.0535054 0)
(6.43755 0.0402768 0)
(6.17956 0.0324498 0)
(6.07801 0.0208384 0)
(5.87042 0.020449 0)
(5.84094 0.017086 0)
(5.65895 0.0155481 0)
(5.67026 0.0120392 0)
(5.48599 0.02021 0)
(5.51658 0.00748231 0)
(5.35188 0.0209513 0)
(5.36117 -0.0131207 0)
(5.33068 0.0352326 0)
(5.13939 -0.0452278 0)
(10.0444 0.629305 0)
(10.6916 0.864221 0)
(10.8281 0.602391 0)
(10.7401 0.372695 0)
(10.4073 0.25608 0)
(10.1417 0.197964 0)
(9.78036 0.15126 0)
(9.56509 0.123875 0)
(9.23296 0.0974328 0)
(9.129 0.0706829 0)
(8.82893 0.0630856 0)
(8.80119 0.0507187 0)
(8.5409 0.0443427 0)
(8.5586 0.0354747 0)
(8.30252 0.0483758 0)
(8.34855 0.023106 0)
(8.11914 0.0485384 0)
(8.14351 -0.00730241 0)
(8.02939 0.0383818 0)
(7.9766 -0.0846411 0)
(9.94904 0.45397 0)
(10.6414 0.710249 0)
(11.0868 0.545408 0)
(11.4589 0.351098 0)
(11.4762 0.260237 0)
(11.5494 0.229167 0)
(11.4026 0.197956 0)
(11.4058 0.178509 0)
(11.1834 0.152045 0)
(11.2026 0.119059 0)
(10.9571 0.110778 0)
(10.9849 0.0897211 0)
(10.7528 0.0840749 0)
(10.7896 0.0658524 0)
(10.5549 0.0863559 0)
(10.5948 0.0453246 0)
(10.3852 0.0851123 0)
(10.3963 0.00815814 0)
(10.2613 0.051462 0)
(10.2455 -0.0940616 0)
(9.93158 0.337071 0)
(10.5259 0.576535 0)
(10.9392 0.462815 0)
(11.4009 0.291285 0)
(11.5526 0.212056 0)
(11.7797 0.194777 0)
(11.7819 0.169556 0)
(11.9286 0.177203 0)
(11.8879 0.148829 0)
(11.998 0.121711 0)
(11.9295 0.123075 0)
(12.0298 0.103424 0)
(11.9495 0.0914304 0)
(12.0127 0.0864395 0)
(11.9354 0.0986377 0)
(11.968 0.0703871 0)
(11.8865 0.0911142 0)
(11.8847 0.0537405 0)
(11.8373 0.0497406 0)
(11.7813 -0.0230668 0)
(9.96796 0.247617 0)
(10.4006 0.458387 0)
(10.8367 0.381865 0)
(11.2298 0.245222 0)
(11.4493 0.154652 0)
(11.6819 0.157562 0)
(11.7643 0.141465 0)
(11.8695 0.138655 0)
(11.9449 0.135817 0)
(12.0422 0.100116 0)
(12.0965 0.0986879 0)
(12.1985 0.0878597 0)
(12.2465 0.0826822 0)
(12.3101 0.0716901 0)
(12.3576 0.0901072 0)
(12.4289 0.0694924 0)
(12.4374 0.0861313 0)
(12.4785 0.0614102 0)
(12.5032 0.0801753 0)
(12.4992 0.0178512 0)
(9.96835 0.167526 0)
(10.3301 0.355125 0)
(10.7577 0.298824 0)
(11.155 0.208109 0)
(11.3699 0.120299 0)
(11.5388 0.105993 0)
(11.6627 0.10001 0)
(11.7852 0.133889 0)
(11.8779 0.0785237 0)
(11.9595 0.0935708 0)
(12.0171 0.0725839 0)
(12.1338 0.0796114 0)
(12.2208 0.0398879 0)
(12.2584 0.0844867 0)
(12.3361 0.0381493 0)
(12.4272 0.0804146 0)
(12.4594 0.0411481 0)
(12.5325 0.0974633 0)
(12.5502 0.0603117 0)
(12.6204 0.168926 0)
(9.98437 0.111254 0)
(10.2677 0.246849 0)
(10.6946 0.19552 0)
(11.0222 0.173649 0)
(11.3039 0.0739779 0)
(11.5234 0.107337 0)
(11.5961 0.0438391 0)
(11.7269 0.0913352 0)
(11.8078 0.0635754 0)
(11.8614 0.0836815 0)
(11.9394 0.0209364 0)
(12.1013 0.0731432 0)
(12.1588 0.0178908 0)
(12.1791 0.0782946 0)
(12.269 0.00926185 0)
(12.3507 0.0794856 0)
(12.4141 0.012996 0)
(12.4701 0.0936327 0)
(12.4767 0.0384024 0)
(12.5294 0.147012 0)
(10.0102 0.0601814 0)
(10.2518 0.142414 0)
(10.5906 0.136805 0)
(11.0102 0.105484 0)
(11.2359 0.0433205 0)
(11.4678 0.0348989 0)
(11.6046 0.0376858 0)
(11.6355 0.0666531 0)
(11.7544 0.0284359 0)
(11.8652 0.0495267 0)
(11.9285 0.0215062 0)
(11.9925 0.0179078 0)
(12.0797 0.0282934 0)
(12.1857 0.0489424 0)
(12.227 0.00467293 0)
(12.2789 0.0235861 0)
(12.39 0.0256161 0)
(12.4405 0.0439083 0)
(12.4152 0.0327945 0)
(12.3751 -0.0365746 0)
(9.9976 0.0142574 0)
(10.2158 0.0531711 0)
(10.596 0.0287117 0)
(10.9552 0.0509707 0)
(11.2676 0.00616805 0)
(11.4459 0.0323099 0)
(11.5326 -0.0066413 0)
(11.6788 0.0254128 0)
(11.7428 0.0050535 0)
(11.813 0.0233287 0)
(11.8761 -0.0077202 0)
(11.987 0.0287443 0)
(12.0636 -0.0154325 0)
(12.1616 0.0276074 0)
(12.2127 -0.000293992 0)
(12.2717 0.0156416 0)
(12.3551 -0.019851 0)
(12.4146 0.0300927 0)
(12.3905 0.00419914 0)
(12.3436 -0.0655722 0)
(10.0057 -0.0244431 0)
(10.2393 -0.0531304 0)
(10.5708 -0.0308782 0)
(10.9669 -0.0241761 0)
(11.2447 -0.0236281 0)
(11.4341 -0.0170145 0)
(11.5923 -0.0263116 0)
(11.6354 -0.009893 0)
(11.7107 -0.0137427 0)
(11.8292 0.00111002 0)
(11.9117 -0.013769 0)
(11.9635 -0.0327011 0)
(12.0719 -0.00768168 0)
(12.1462 0.00980543 0)
(12.212 -0.0194121 0)
(12.2745 -0.0252176 0)
(12.3663 -0.0214301 0)
(12.3958 -0.00124081 0)
(12.4007 -0.0148329 0)
(12.3851 -0.0720756 0)
(10.0044 -0.0722879 0)
(10.2384 -0.140388 0)
(10.5983 -0.130935 0)
(10.9974 -0.0860421 0)
(11.288 -0.0536841 0)
(11.4571 -0.0402843 0)
(11.5706 -0.0563404 0)
(11.6623 -0.039374 0)
(11.7426 -0.0426175 0)
(11.8516 -0.0450528 0)
(11.9359 -0.0313231 0)
(12.002 -0.0236568 0)
(12.0529 -0.0410715 0)
(12.168 -0.0232059 0)
(12.2623 -0.0216941 0)
(12.3022 -0.0436477 0)
(12.3644 -0.0525648 0)
(12.3918 -0.0266931 0)
(12.4549 -0.0383573 0)
(12.4606 -0.0934698 0)
(10.0067 -0.120226 0)
(10.27 -0.247043 0)
(10.6563 -0.198822 0)
(11.0502 -0.156359 0)
(11.3076 -0.0856789 0)
(11.4878 -0.0760079 0)
(11.6314 -0.0828507 0)
(11.7062 -0.0769863 0)
(11.7876 -0.0694499 0)
(11.8915 -0.061573 0)
(11.975 -0.0437907 0)
(12.0364 -0.0649278 0)
(12.1257 -0.0437833 0)
(12.2159 -0.0451915 0)
(12.2713 -0.0505178 0)
(12.3606 -0.0653259 0)
(12.4095 -0.0579117 0)
(12.4448 -0.0584554 0)
(12.509 -0.0932902 0)
(12.4794 -0.103598 0)
(10.033 -0.18115 0)
(10.2834 -0.344974 0)
(10.745 -0.293673 0)
(11.116 -0.207812 0)
(11.4046 -0.11482 0)
(11.5446 -0.116061 0)
(11.6983 -0.113787 0)
(11.7663 -0.106808 0)
(11.8594 -0.0903941 0)
(11.9476 -0.102261 0)
(12.054 -0.0661414 0)
(12.108 -0.071614 0)
(12.2027 -0.0679701 0)
(12.2722 -0.0715651 0)
(12.3519 -0.0545707 0)
(12.4057 -0.0895809 0)
(12.4669 -0.0809195 0)
(12.5237 -0.0955441 0)
(12.573 -0.108839 0)
(12.4798 -0.11532 0)
(10.0682 -0.257441 0)
(10.3033 -0.448489 0)
(10.9013 -0.374986 0)
(11.19 -0.255869 0)
(11.5273 -0.156931 0)
(11.5988 -0.152912 0)
(11.8184 -0.146314 0)
(11.8141 -0.135749 0)
(11.9841 -0.121837 0)
(12.0091 -0.124295 0)
(12.152 -0.080163 0)
(12.139 -0.104479 0)
(12.2821 -0.081769 0)
(12.2811 -0.0885703 0)
(12.3836 -0.0749563 0)
(12.3772 -0.111071 0)
(12.4605 -0.0900201 0)
(12.4486 -0.124351 0)
(12.4748 -0.128952 0)
(12.3362 -0.156057 0)
(10.064 -0.350841 0)
(10.3787 -0.559797 0)
(11.067 -0.467757 0)
(11.2935 -0.297539 0)
(11.6614 -0.200057 0)
(11.6642 -0.195498 0)
(11.8954 -0.18376 0)
(11.8077 -0.161177 0)
(11.9998 -0.150038 0)
(11.884 -0.143691 0)
(12.0465 -0.10443 0)
(11.9074 -0.110093 0)
(12.0496 -0.096687 0)
(11.905 -0.101389 0)
(12.0197 -0.0803662 0)
(11.8611 -0.114116 0)
(11.9411 -0.0965683 0)
(11.7781 -0.133692 0)
(11.7833 -0.12442 0)
(11.5406 -0.175204 0)
(10.0121 -0.459726 0)
(10.5528 -0.702116 0)
(11.1877 -0.547553 0)
(11.3532 -0.353266 0)
(11.5712 -0.257463 0)
(11.4482 -0.23147 0)
(11.5026 -0.20282 0)
(11.2861 -0.171065 0)
(11.3186 -0.151306 0)
(11.049 -0.133208 0)
(11.1059 -0.097153 0)
(10.8302 -0.0979751 0)
(10.8909 -0.0846888 0)
(10.6246 -0.0822193 0)
(10.6976 -0.0662954 0)
(10.4135 -0.0934676 0)
(10.4807 -0.0736775 0)
(10.1898 -0.112512 0)
(10.1956 -0.0963165 0)
(9.85206 -0.17279 0)
(10.0648 -0.633173 0)
(10.6528 -0.86124 0)
(10.8767 -0.602644 0)
(10.6766 -0.374472 0)
(10.4712 -0.253078 0)
(10.0754 -0.197989 0)
(9.8445 -0.155637 0)
(9.48533 -0.119479 0)
(9.33176 -0.0959368 0)
(9.00356 -0.0807328 0)
(8.95523 -0.0556066 0)
(8.66375 -0.0531776 0)
(8.66484 -0.0467654 0)
(8.40015 -0.0460008 0)
(8.43693 -0.0375949 0)
(8.15861 -0.0533159 0)
(8.20507 -0.0485919 0)
(7.90648 -0.0677014 0)
(7.90887 -0.070981 0)
(7.55689 -0.0976426 0)
(10.0845 -0.838986 0)
(9.65475 -0.867144 0)
(8.87528 -0.506885 0)
(8.07496 -0.262198 0)
(7.50164 -0.136881 0)
(6.99992 -0.0828515 0)
(6.70072 -0.0556602 0)
(6.3925 -0.0388746 0)
(6.23608 -0.0299122 0)
(6.00244 -0.0274685 0)
(5.9457 -0.0163756 0)
(5.75171 -0.0176995 0)
(5.73935 -0.0173165 0)
(5.55746 -0.0183492 0)
(5.57043 -0.0139776 0)
(5.37596 -0.0247585 0)
(5.38841 -0.0225463 0)
(5.16576 -0.0312197 0)
(5.15472 -0.0387417 0)
(4.85663 -0.0234369 0)
(8.09129 -0.388063 0)
(5.44843 -0.242394 0)
(3.91243 -0.0429061 0)
(3.15486 0.0151549 0)
(2.8032 0.0185846 0)
(2.59667 0.0110271 0)
(2.48477 0.00509247 0)
(2.37672 0.00290456 0)
(2.32343 0.00174639 0)
(2.24247 -0.000520867 0)
(2.21965 0.00148893 0)
(2.15792 0.000113987 0)
(2.14923 -0.000399579 0)
(2.08164 -0.000992427 0)
(2.08016 0.000294289 0)
(2.00622 -0.00283646 0)
(1.99305 -0.00138253 0)
(1.90212 -0.00335218 0)
(1.86576 -0.0041425 0)
(1.71025 0.0103604 0)
(2.34443 -0.161554 0)
(2.41633 -0.00481309 0)
(2.57747 0.0204615 0)
(2.71027 -0.0102738 0)
(2.8235 -0.0619221 0)
(2.88966 -0.0816131 0)
(2.92845 -0.0698426 0)
(2.97815 -0.0563094 0)
(3.0304 -0.0457747 0)
(3.09641 -0.0414421 0)
(3.14991 -0.0395302 0)
(3.20033 -0.0311127 0)
(3.2338 -0.023405 0)
(3.28354 -0.0142791 0)
(3.31522 -0.00814593 0)
(3.36891 -0.0150967 0)
(3.41291 -0.0247344 0)
(3.44719 -0.0385665 0)
(3.48218 -0.0524288 0)
(3.49753 -0.0619823 0)
(3.51485 -0.0613827 0)
(3.51136 -0.0535712 0)
(3.52637 -0.0352184 0)
(3.52275 -0.0134799 0)
(3.54537 -0.00553442 0)
(3.55783 0.00257736 0)
(3.58093 0.00129224 0)
(3.59603 -0.00183826 0)
(3.61552 -0.00593377 0)
(3.61387 -0.00377527 0)
(3.62002 0.00533837 0)
(3.60902 0.0203831 0)
(3.61864 0.0429157 0)
(3.61768 0.0781994 0)
(3.6322 0.120224 0)
(3.6528 0.178578 0)
(3.69056 0.251941 0)
(3.73497 0.34316 0)
(3.83457 0.454274 0)
(3.92972 0.561024 0)
(4.11948 0.654291 0)
(4.30696 0.731321 0)
(4.57052 0.768271 0)
(4.80998 0.742332 0)
(5.09994 0.665528 0)
(5.29517 0.558483 0)
(5.4885 0.406286 0)
(5.58845 0.226582 0)
(5.61067 0.0568664 0)
(5.60222 -0.0850355 0)
(5.49328 -0.209016 0)
(5.42971 -0.269103 0)
(5.33201 -0.306023 0)
(5.28131 -0.333809 0)
(5.25507 -0.337732 0)
(5.28444 -0.3513 0)
(5.30114 -0.358077 0)
(5.38453 -0.414221 0)
(5.42522 -0.447773 0)
(5.5488 -0.477437 0)
(5.57628 -0.532019 0)
(5.7195 -0.589723 0)
(5.72895 -0.609533 0)
(5.88268 -0.665961 0)
(5.84961 -0.679118 0)
(5.97238 -0.684903 0)
(5.94644 -0.682733 0)
(6.02883 -0.628427 0)
(6.03504 -0.589727 0)
(6.04387 -0.546324 0)
(6.07853 -0.479998 0)
(5.99729 -0.419666 0)
(6.14045 -0.337132 0)
(5.99452 -0.274365 0)
(6.21909 -0.187551 0)
(5.99831 -0.129484 0)
(6.23638 -0.0744848 0)
(6.0725 -0.00269829 0)
(6.20827 0.0480999 0)
(6.24366 0.134883 0)
(6.19464 0.199151 0)
(6.38333 0.214337 0)
(6.34551 0.382013 0)
(6.47818 0.346139 0)
(6.66436 0.405655 0)
(6.64049 0.455138 0)
(7.0068 0.431295 0)
(7.05199 0.4598 0)
(7.29221 0.361291 0)
(7.58036 0.351746 0)
(7.7401 0.237188 0)
(7.95091 0.149538 0)
(8.30146 0.0134981 0)
(8.57108 -0.0895049 0)
(8.69768 -0.307429 0)
(9.13616 -0.469004 0)
(9.20087 -0.633847 0)
(9.72718 -0.857037 0)
(9.80148 -1.03765 0)
(10.4281 -1.29559 0)
(10.2722 -1.45 0)
(11.0958 -1.75482 0)
(10.9238 -1.95333 0)
(11.7702 -2.20207 0)
(11.5356 -2.42067 0)
(12.4701 -2.68603 0)
(12.0507 -2.89929 0)
(12.9553 -3.09636 0)
(12.4243 -3.43082 0)
(13.4436 -3.53003 0)
(12.5134 -3.79222 0)
(13.6866 -3.84715 0)
(12.4927 -4.09844 0)
(13.5552 -4.03175 0)
(12.2421 -4.26089 0)
(13.1399 -4.15237 0)
(11.8745 -4.33161 0)
(12.4534 -4.08268 0)
(11.5765 -4.31004 0)
(11.7748 -3.91455 0)
(11.2791 -4.04661 0)
(11.3058 -3.76801 0)
(11.1978 -3.7401 0)
(10.9883 -3.53449 0)
(11.1287 -3.45938 0)
(10.945 -3.2624 0)
(10.9704 -3.16859 0)
(10.844 -2.91711 0)
(10.794 -2.84474 0)
(10.6359 -2.60262 0)
(10.56 -2.52913 0)
(10.4287 -2.43155 0)
(10.3487 -2.33939 0)
(10.2588 -2.25403 0)
(10.1868 -2.19904 0)
(10.1631 -2.18182 0)
(10.2131 -2.06483 0)
(10.2651 -1.95033 0)
(10.3546 -1.72298 0)
(10.6465 -1.38106 0)
(10.5375 -0.994112 0)
(10.9182 -0.362288 0)
(10.7042 0.0783674 0)
(10.8826 0.849801 0)
(10.7581 1.45988 0)
(10.4682 1.99133 0)
(10.3685 2.84295 0)
(10.0371 3.27385 0)
(9.15125 3.58506 0)
(8.95996 3.91766 0)
(8.11876 4.01106 0)
(7.57143 4.01882 0)
(7.61098 4.74774 0)
(7.43158 5.45824 0)
(7.49311 5.61035 0)
(6.88737 5.99895 0)
(6.92103 6.01519 0)
(6.74215 6.54636 0)
(6.93776 6.84485 0)
(6.52583 6.50652 0)
(6.12644 6.20003 0)
(6.72576 6.36823 0)
(6.13277 6.2365 0)
(6.258 6.24247 0)
(7.04833 6.41374 0)
(6.29949 6.47085 0)
(7.28819 5.84624 0)
(6.53468 5.70286 0)
(7.98007 4.69309 0)
(5.54185 4.54655 0)
(8.98938 3.27352 0)
(4.90351 3.91742 0)
(9.54706 1.86034 0)
(4.95364 3.13205 0)
(10.1689 0.845114 0)
(5.6443 2.53724 0)
(10.4083 -0.158057 0)
(6.26853 1.15257 0)
(10.591 -1.38684 0)
(6.69968 0.0227714 0)
(10.5711 -2.25136 0)
(7.10234 -0.905686 0)
(10.3148 -2.9321 0)
(7.56422 -1.60284 0)
(9.95201 -3.21283 0)
(7.4294 -1.87464 0)
(9.10636 -2.98348 0)
(7.15387 -1.29717 0)
(8.5025 -2.85344 0)
(6.64689 -1.55409 0)
(8.09385 -2.81091 0)
(6.56015 -1.68752 0)
(7.81141 -2.56978 0)
(6.19907 -1.58972 0)
(7.25781 -1.56239 0)
(5.82597 -0.258782 0)
(7.08056 0.226655 0)
(4.21247 0.896942 0)
(7.49501 2.81754 0)
(4.40879 7.85296 0)
(5.35942 -0.114273 0)
(5.3931 -0.0777966 0)
(5.41906 -0.0578413 0)
(5.42778 -0.0709735 0)
(5.45945 -0.0971757 0)
(5.49502 -0.123755 0)
(5.53366 -0.124168 0)
(5.57199 -0.113052 0)
(5.60547 -0.0957049 0)
(5.64002 -0.0818197 0)
(5.66823 -0.0713965 0)
(5.69483 -0.0599197 0)
(5.71645 -0.0526275 0)
(5.74001 -0.0469187 0)
(5.76523 -0.0460444 0)
(5.78723 -0.0466799 0)
(5.81804 -0.0540275 0)
(5.83381 -0.060636 0)
(5.8555 -0.0660674 0)
(5.86007 -0.0708483 0)
(5.87007 -0.0651268 0)
(5.86278 -0.0594522 0)
(5.85949 -0.0420281 0)
(5.85269 -0.0262865 0)
(5.84473 -0.0136769 0)
(5.84365 0.00127776 0)
(5.82838 0.00397342 0)
(5.82425 0.0139133 0)
(5.79976 0.0147156 0)
(5.78278 0.0245243 0)
(5.74594 0.0382769 0)
(5.71061 0.0545617 0)
(5.67122 0.0815059 0)
(5.62755 0.107352 0)
(5.59493 0.147893 0)
(5.54764 0.19182 0)
(5.53877 0.246382 0)
(5.50315 0.316284 0)
(5.53153 0.383954 0)
(5.54412 0.463393 0)
(5.61929 0.520659 0)
(5.71422 0.565072 0)
(5.86248 0.585309 0)
(5.99776 0.559711 0)
(6.18387 0.504645 0)
(6.33825 0.414276 0)
(6.47016 0.298989 0)
(6.59669 0.179753 0)
(6.6593 0.0422165 0)
(6.70834 -0.0718116 0)
(6.71917 -0.171359 0)
(6.73129 -0.247281 0)
(6.73568 -0.30441 0)
(6.77604 -0.348762 0)
(6.82184 -0.371276 0)
(6.8988 -0.42072 0)
(6.96766 -0.446515 0)
(7.10698 -0.487294 0)
(7.16406 -0.541937 0)
(7.34542 -0.568989 0)
(7.36566 -0.616503 0)
(7.56135 -0.676701 0)
(7.56025 -0.670378 0)
(7.76483 -0.732374 0)
(7.70063 -0.727531 0)
(7.89475 -0.712891 0)
(7.83731 -0.711442 0)
(7.92795 -0.681796 0)
(7.95194 -0.613122 0)
(7.92791 -0.606349 0)
(8.02371 -0.502418 0)
(7.93111 -0.437992 0)
(8.06495 -0.364145 0)
(7.97662 -0.266024 0)
(8.0508 -0.232164 0)
(8.04331 -0.123889 0)
(7.99935 -0.0940968 0)
(8.12702 -0.0326476 0)
(7.96003 0.0866763 0)
(8.21192 0.0510461 0)
(8.02484 0.192458 0)
(8.24352 0.192246 0)
(8.18025 0.249348 0)
(8.28858 0.311696 0)
(8.46309 0.302911 0)
(8.44437 0.327565 0)
(8.65665 0.299318 0)
(8.85546 0.310936 0)
(8.97096 0.219583 0)
(9.15955 0.158755 0)
(9.47125 0.0388653 0)
(9.53304 -0.00626238 0)
(9.95094 -0.208686 0)
(10.1032 -0.339563 0)
(10.3359 -0.499893 0)
(10.6608 -0.694512 0)
(10.9394 -0.88144 0)
(11.1683 -1.02888 0)
(11.4774 -1.31856 0)
(11.8393 -1.53917 0)
(11.9171 -1.67683 0)
(12.4594 -1.98179 0)
(12.4841 -2.17384 0)
(12.9875 -2.41158 0)
(12.8727 -2.61684 0)
(13.4235 -2.8821 0)
(13.1648 -3.07027 0)
(13.7111 -3.2583 0)
(13.2491 -3.42032 0)
(13.8592 -3.58892 0)
(13.0614 -3.7075 0)
(13.7098 -3.82176 0)
(12.6284 -3.9377 0)
(13.3978 -3.97151 0)
(12.0364 -4.09165 0)
(12.956 -3.9553 0)
(11.4598 -4.11274 0)
(12.4521 -3.89056 0)
(11.0753 -4.07705 0)
(11.9204 -3.75745 0)
(11.0252 -3.97512 0)
(11.5588 -3.67918 0)
(11.2187 -3.76003 0)
(11.2978 -3.50704 0)
(11.3449 -3.45632 0)
(11.184 -3.22286 0)
(11.1975 -3.07295 0)
(10.9257 -2.86551 0)
(10.9634 -2.72381 0)
(10.5935 -2.50629 0)
(10.5653 -2.44375 0)
(10.196 -2.3166 0)
(10.1829 -2.23182 0)
(9.83149 -2.15666 0)
(9.82109 -2.15458 0)
(9.61276 -2.17746 0)
(9.67233 -2.08306 0)
(9.67324 -2.0704 0)
(9.80526 -1.84598 0)
(9.98039 -1.49802 0)
(10.0826 -1.09649 0)
(10.2818 -0.48211 0)
(10.3792 0.103997 0)
(10.4088 0.744044 0)
(10.5969 1.57808 0)
(10.2536 2.16592 0)
(10.2653 2.84972 0)
(9.99511 3.75539 0)
(9.55024 3.91583 0)
(8.86088 4.46909 0)
(8.63119 4.65374 0)
(7.62029 4.30047 0)
(7.48014 4.5844 0)
(7.61916 5.4894 0)
(7.43645 5.91239 0)
(7.32228 5.84995 0)
(7.06827 6.35104 0)
(7.23892 6.34888 0)
(6.98016 6.79523 0)
(7.50901 6.95446 0)
(6.73806 6.50043 0)
(6.46696 6.0871 0)
(7.47538 6.24823 0)
(6.10572 6.18668 0)
(7.8813 5.80058 0)
(6.97995 6.51543 0)
(8.8575 5.69485 0)
(6.74014 5.95511 0)
(10.3703 4.44014 0)
(6.10946 5.29068 0)
(11.1235 2.95163 0)
(5.84607 4.19284 0)
(11.4913 1.70442 0)
(5.86257 3.33443 0)
(11.5835 0.489223 0)
(6.2366 2.22659 0)
(11.874 -0.0766719 0)
(6.66755 1.1386 0)
(11.8825 -1.37439 0)
(6.7028 0.0642699 0)
(11.9128 -2.15474 0)
(6.89468 -0.851756 0)
(11.7151 -2.87474 0)
(6.92603 -1.37253 0)
(11.2921 -3.07171 0)
(6.42344 -1.5448 0)
(10.572 -2.74268 0)
(5.84085 -1.11276 0)
(10.4245 -2.78474 0)
(5.76053 -1.37973 0)
(10.383 -3.217 0)
(6.10261 -1.85568 0)
(10.6058 -2.92197 0)
(6.27871 -1.09741 0)
(10.4502 -2.11787 0)
(5.8909 0.188034 0)
(10.8395 -0.0400362 0)
(5.85411 3.65524 0)
(9.5983 0.282318 0)
(6.89931 6.99497 0)
(8.03687 -0.0874612 0)
(8.02944 -0.0389416 0)
(8.04068 -0.0262039 0)
(8.01776 -0.0542382 0)
(8.02417 -0.0883045 0)
(8.04192 -0.129685 0)
(8.07388 -0.137859 0)
(8.11645 -0.132655 0)
(8.13577 -0.113587 0)
(8.16006 -0.0959709 0)
(8.16135 -0.0822173 0)
(8.1709 -0.0708566 0)
(8.16923 -0.0657671 0)
(8.17868 -0.0604872 0)
(8.188 -0.0648843 0)
(8.19954 -0.0604478 0)
(8.21644 -0.0698992 0)
(8.22581 -0.0672898 0)
(8.23446 -0.0688335 0)
(8.2389 -0.0696312 0)
(8.2294 -0.0572627 0)
(8.23461 -0.053518 0)
(8.20741 -0.035729 0)
(8.21368 -0.0214823 0)
(8.18293 -0.0110943 0)
(8.18059 0.0068658 0)
(8.15255 0.0183439 0)
(8.13557 0.0253159 0)
(8.11102 0.0423212 0)
(8.07597 0.0503226 0)
(8.04581 0.07032 0)
(7.99594 0.0939278 0)
(7.95385 0.112005 0)
(7.90108 0.152057 0)
(7.85791 0.179518 0)
(7.7996 0.226459 0)
(7.77529 0.275372 0)
(7.71921 0.319985 0)
(7.72061 0.386548 0)
(7.69221 0.423032 0)
(7.72366 0.471978 0)
(7.74933 0.498529 0)
(7.82271 0.479256 0)
(7.9059 0.482267 0)
(7.99059 0.402312 0)
(8.11495 0.330279 0)
(8.20137 0.247237 0)
(8.2916 0.102666 0)
(8.38541 0.0223395 0)
(8.42753 -0.105862 0)
(8.49714 -0.222939 0)
(8.53133 -0.264207 0)
(8.60018 -0.371829 0)
(8.64042 -0.409665 0)
(8.73842 -0.434951 0)
(8.81911 -0.520646 0)
(8.88616 -0.535602 0)
(9.05945 -0.56419 0)
(9.08455 -0.653004 0)
(9.26085 -0.649725 0)
(9.30998 -0.695561 0)
(9.44627 -0.769163 0)
(9.46655 -0.718327 0)
(9.65397 -0.80018 0)
(9.56977 -0.77976 0)
(9.75532 -0.741873 0)
(9.70527 -0.772207 0)
(9.74616 -0.703952 0)
(9.80493 -0.643452 0)
(9.7565 -0.631357 0)
(9.82482 -0.519317 0)
(9.814 -0.439118 0)
(9.80663 -0.422924 0)
(9.87288 -0.250742 0)
(9.81069 -0.257319 0)
(9.87535 -0.1688 0)
(9.85691 -0.0500624 0)
(9.91175 -0.0702757 0)
(9.82937 0.0663217 0)
(10.0102 0.0821748 0)
(9.90741 0.116281 0)
(9.993 0.185707 0)
(10.1187 0.198073 0)
(10.0395 0.247762 0)
(10.2824 0.212817 0)
(10.2803 0.239129 0)
(10.4398 0.211513 0)
(10.5823 0.137095 0)
(10.7695 0.0903408 0)
(10.8314 0.0192479 0)
(11.217 -0.147964 0)
(11.1913 -0.186763 0)
(11.5773 -0.388625 0)
(11.7293 -0.546849 0)
(11.9819 -0.678039 0)
(12.1468 -0.862029 0)
(12.5325 -1.13122 0)
(12.5501 -1.22403 0)
(12.9709 -1.51103 0)
(13.0857 -1.70436 0)
(13.3306 -1.89852 0)
(13.4932 -2.12103 0)
(13.6384 -2.36051 0)
(13.8187 -2.55186 0)
(13.8085 -2.7467 0)
(13.9702 -2.92915 0)
(13.8652 -3.10555 0)
(13.9563 -3.24765 0)
(13.5741 -3.37669 0)
(13.7727 -3.52449 0)
(13.1305 -3.63738 0)
(13.3901 -3.67216 0)
(12.5136 -3.76249 0)
(13.0126 -3.79998 0)
(11.811 -3.78359 0)
(12.5891 -3.8392 0)
(11.262 -3.86682 0)
(12.2813 -3.82388 0)
(10.9149 -3.92502 0)
(12.1522 -3.73738 0)
(10.9429 -3.98684 0)
(11.9924 -3.64361 0)
(11.1835 -3.80543 0)
(11.6848 -3.48914 0)
(11.3267 -3.41263 0)
(11.3615 -3.15445 0)
(11.1228 -2.97458 0)
(10.9384 -2.6986 0)
(10.8006 -2.51963 0)
(10.39 -2.30149 0)
(10.194 -2.21964 0)
(9.75821 -2.0363 0)
(9.6051 -2.02146 0)
(9.18613 -1.94192 0)
(9.01636 -2.06235 0)
(8.77459 -2.00733 0)
(8.73096 -2.18046 0)
(8.66355 -2.01411 0)
(8.69211 -1.95271 0)
(8.96063 -1.57642 0)
(9.10152 -1.26107 0)
(9.31194 -0.609241 0)
(9.56215 -0.0214208 0)
(9.53866 0.688548 0)
(10.0078 1.5616 0)
(9.79749 2.29694 0)
(9.82829 2.97348 0)
(9.78099 3.79198 0)
(9.48861 4.44102 0)
(9.06991 4.62684 0)
(8.52978 5.17504 0)
(8.12932 5.07059 0)
(7.1483 4.82081 0)
(7.57538 5.33309 0)
(7.63493 6.03484 0)
(7.40744 6.08729 0)
(7.2189 6.12968 0)
(7.45505 6.60545 0)
(7.44735 6.53854 0)
(7.34643 6.76673 0)
(8.20495 6.84992 0)
(6.73376 6.39408 0)
(7.65338 5.62014 0)
(6.96526 6.22188 0)
(7.86538 5.17593 0)
(6.83814 6.03278 0)
(10.0897 5.0216 0)
(6.55399 5.96038 0)
(11.7784 3.87965 0)
(6.54384 4.99661 0)
(12.3825 2.8548 0)
(6.84342 4.15712 0)
(12.5181 1.46044 0)
(6.92362 3.27965 0)
(12.6039 0.586302 0)
(7.0637 2.1095 0)
(12.5464 -0.308042 0)
(7.56023 1.13202 0)
(12.5539 -1.40716 0)
(7.50819 -0.00919314 0)
(12.4828 -2.2818 0)
(7.43211 -0.667439 0)
(12.0978 -3.16174 0)
(6.65335 -0.942042 0)
(11.5145 -3.45991 0)
(5.58995 -0.638933 0)
(10.778 -3.56525 0)
(5.28684 -0.510754 0)
(10.8247 -4.06006 0)
(5.63822 -0.857443 0)
(11.2523 -4.66325 0)
(6.22698 -1.03207 0)
(11.1945 -4.76951 0)
(6.65379 -0.435231 0)
(11.5915 -3.66498 0)
(7.01221 1.10673 0)
(11.2891 -2.42782 0)
(7.92456 3.5702 0)
(12.212 0.766701 0)
(8.99031 6.23603 0)
(10.3518 -0.064262 0)
(10.2885 -0.00501528 0)
(10.2486 -0.00576062 0)
(10.1899 -0.0533148 0)
(10.1831 -0.0907443 0)
(10.2122 -0.140393 0)
(10.2263 -0.148486 0)
(10.2846 -0.148252 0)
(10.2742 -0.125852 0)
(10.3084 -0.100066 0)
(10.2824 -0.0834782 0)
(10.2971 -0.0614814 0)
(10.271 -0.0663177 0)
(10.276 -0.0589913 0)
(10.2692 -0.0702863 0)
(10.2686 -0.0643196 0)
(10.2827 -0.0712747 0)
(10.2769 -0.0676433 0)
(10.2946 -0.0610943 0)
(10.2845 -0.0639868 0)
(10.2781 -0.0414096 0)
(10.2785 -0.0490839 0)
(10.2511 -0.0169847 0)
(10.2545 -0.0107163 0)
(10.2203 0.00836426 0)
(10.2221 0.0321936 0)
(10.1878 0.0339897 0)
(10.1744 0.0602383 0)
(10.1454 0.0589237 0)
(10.1129 0.0848492 0)
(10.0943 0.101944 0)
(10.0421 0.126509 0)
(10.0293 0.163109 0)
(9.96905 0.185718 0)
(9.9554 0.233951 0)
(9.89685 0.262866 0)
(9.88666 0.307977 0)
(9.84357 0.349995 0)
(9.84001 0.386741 0)
(9.83405 0.432738 0)
(9.83352 0.445971 0)
(9.87863 0.476543 0)
(9.90164 0.449451 0)
(9.96858 0.421237 0)
(10.0453 0.380576 0)
(10.087 0.263447 0)
(10.2028 0.205182 0)
(10.2444 0.0816785 0)
(10.3088 -0.0521158 0)
(10.3843 -0.103735 0)
(10.421 -0.263532 0)
(10.4554 -0.313287 0)
(10.5635 -0.374058 0)
(10.5403 -0.488138 0)
(10.6616 -0.485421 0)
(10.7186 -0.568109 0)
(10.7557 -0.63294 0)
(10.8779 -0.618636 0)
(10.9452 -0.725999 0)
(10.9647 -0.732457 0)
(11.1101 -0.745447 0)
(11.1147 -0.829851 0)
(11.1397 -0.781194 0)
(11.2788 -0.821754 0)
(11.1886 -0.837332 0)
(11.2749 -0.764777 0)
(11.3148 -0.793512 0)
(11.2082 -0.734547 0)
(11.3369 -0.65272 0)
(11.2565 -0.637938 0)
(11.2513 -0.546475 0)
(11.3038 -0.448551 0)
(11.2732 -0.431743 0)
(11.2449 -0.297045 0)
(11.3591 -0.250034 0)
(11.2569 -0.181893 0)
(11.3643 -0.0929406 0)
(11.3761 -0.0488201 0)
(11.3533 0.0205155 0)
(11.462 0.0608534 0)
(11.4714 0.0979289 0)
(11.4947 0.151676 0)
(11.6439 0.130854 0)
(11.6037 0.195494 0)
(11.7806 0.143543 0)
(11.8701 0.141592 0)
(11.9087 0.124086 0)
(12.1491 0.0130413 0)
(12.2202 -0.024956 0)
(12.3801 -0.105143 0)
(12.5736 -0.286302 0)
(12.7222 -0.352509 0)
(12.8712 -0.499575 0)
(13.135 -0.710606 0)
(13.2266 -0.839774 0)
(13.4028 -1.02165 0)
(13.6356 -1.26364 0)
(13.6953 -1.392 0)
(13.9321 -1.62342 0)
(13.9478 -1.82422 0)
(14.149 -2.04243 0)
(14.1101 -2.20801 0)
(14.2032 -2.41135 0)
(14.2053 -2.5904 0)
(14.1419 -2.75494 0)
(14.0289 -2.87465 0)
(13.9523 -3.0922 0)
(13.7408 -3.13321 0)
(13.4905 -3.27879 0)
(13.4135 -3.35664 0)
(12.9751 -3.41416 0)
(12.934 -3.49295 0)
(12.3957 -3.51919 0)
(12.5514 -3.62245 0)
(11.8253 -3.62533 0)
(12.3049 -3.69454 0)
(11.4459 -3.73748 0)
(12.2225 -3.7309 0)
(11.1278 -3.82243 0)
(12.2981 -3.8028 0)
(10.9986 -3.91668 0)
(12.2344 -3.68398 0)
(11.0249 -3.78928 0)
(11.9314 -3.42608 0)
(11.0247 -3.34548 0)
(11.3792 -2.9667 0)
(10.7542 -2.80246 0)
(10.7553 -2.41363 0)
(10.2915 -2.21034 0)
(9.95076 -1.99657 0)
(9.50594 -1.8466 0)
(9.15135 -1.71158 0)
(8.77973 -1.6938 0)
(8.27159 -1.63892 0)
(7.95757 -1.78073 0)
(7.61203 -1.84473 0)
(7.32175 -1.95818 0)
(7.14222 -1.93167 0)
(7.32488 -1.92907 0)
(7.50895 -1.6201 0)
(7.91197 -1.31275 0)
(8.04241 -0.769073 0)
(8.3812 -0.114985 0)
(8.53377 0.480896 0)
(8.83607 1.39198 0)
(9.24399 2.22185 0)
(9.01655 2.96636 0)
(9.38596 3.85859 0)
(9.08477 4.54131 0)
(8.96118 5.08294 0)
(8.63142 5.25476 0)
(8.11688 5.4718 0)
(7.65553 5.16909 0)
(6.93391 5.19936 0)
(7.57072 5.99326 0)
(7.84332 6.37097 0)
(7.24084 6.20684 0)
(7.51383 6.29311 0)
(7.80918 6.77112 0)
(7.52183 6.57056 0)
(8.2456 6.52666 0)
(8.00544 7.03317 0)
(8.57678 5.94409 0)
(6.94292 6.22466 0)
(10.07 5.18424 0)
(5.56256 5.98156 0)
(11.8114 4.27029 0)
(6.0031 5.78673 0)
(12.6956 3.4737 0)
(6.8876 4.98218 0)
(12.7285 2.3311 0)
(7.61062 4.20331 0)
(12.9549 1.43151 0)
(7.93214 3.1722 0)
(12.9269 0.510263 0)
(8.41475 2.15496 0)
(12.8295 -0.434585 0)
(8.86773 1.12486 0)
(12.8296 -1.37319 0)
(8.82934 0.124678 0)
(12.4643 -2.20293 0)
(8.44416 -0.42975 0)
(11.7592 -2.5825 0)
(7.27254 -0.497341 0)
(11.0882 -2.64746 0)
(6.35844 -0.258171 0)
(10.6313 -3.12432 0)
(6.64077 -0.305148 0)
(10.8835 -3.71077 0)
(7.13439 -0.746941 0)
(11.0735 -4.36066 0)
(7.42493 -0.65352 0)
(10.9415 -4.23728 0)
(7.24557 -0.0139996 0)
(10.6791 -3.50016 0)
(7.80242 1.58946 0)
(10.6993 -1.91462 0)
(8.08836 2.99733 0)
(11.5539 0.326186 0)
(10.1832 4.46225 0)
(11.9359 -0.0569718 0)
(11.8562 -0.0422246 0)
(11.7928 -0.0719275 0)
(11.7457 -0.10939 0)
(11.7235 -0.127549 0)
(11.7818 -0.156165 0)
(11.7743 -0.148517 0)
(11.855 -0.14858 0)
(11.8204 -0.124897 0)
(11.8612 -0.111828 0)
(11.8211 -0.0936458 0)
(11.824 -0.0782664 0)
(11.8038 -0.0778957 0)
(11.773 -0.0735092 0)
(11.7893 -0.0846246 0)
(11.739 -0.0751158 0)
(11.7726 -0.0875823 0)
(11.7399 -0.079054 0)
(11.7682 -0.0692902 0)
(11.7646 -0.0704844 0)
(11.7543 -0.0376397 0)
(11.7753 -0.0474698 0)
(11.7331 -0.0181016 0)
(11.7552 -0.00169875 0)
(11.7048 -0.00547316 0)
(11.7217 0.0372039 0)
(11.6887 0.0361598 0)
(11.6799 0.0578418 0)
(11.6792 0.0907637 0)
(11.6319 0.0876326 0)
(11.6474 0.128719 0)
(11.5818 0.148373 0)
(11.5897 0.160385 0)
(11.5474 0.216444 0)
(11.5442 0.229675 0)
(11.5322 0.274266 0)
(11.5246 0.32576 0)
(11.5393 0.335071 0)
(11.5216 0.393957 0)
(11.5651 0.411073 0)
(11.5578 0.410416 0)
(11.6035 0.444975 0)
(11.6656 0.398154 0)
(11.6847 0.374597 0)
(11.792 0.3346 0)
(11.8334 0.223706 0)
(11.8877 0.169717 0)
(11.9841 0.0455442 0)
(11.9899 -0.0740398 0)
(12.0447 -0.144366 0)
(12.1179 -0.288066 0)
(12.0659 -0.347749 0)
(12.1837 -0.420775 0)
(12.1434 -0.532165 0)
(12.1814 -0.529032 0)
(12.2365 -0.633221 0)
(12.2437 -0.670848 0)
(12.2508 -0.671441 0)
(12.3704 -0.781771 0)
(12.2582 -0.751805 0)
(12.4029 -0.792573 0)
(12.3406 -0.851786 0)
(12.3364 -0.787443 0)
(12.3794 -0.847003 0)
(12.3211 -0.832666 0)
(12.2979 -0.755757 0)
(12.3379 -0.809393 0)
(12.2331 -0.70536 0)
(12.268 -0.650405 0)
(12.2491 -0.650156 0)
(12.1641 -0.507087 0)
(12.2328 -0.486009 0)
(12.1645 -0.421979 0)
(12.1473 -0.31177 0)
(12.2317 -0.289705 0)
(12.1467 -0.189747 0)
(12.2518 -0.138822 0)
(12.2911 -0.0820078 0)
(12.273 -0.00495862 0)
(12.4373 0.000846811 0)
(12.411 0.0885293 0)
(12.5183 0.0768937 0)
(12.6053 0.0722179 0)
(12.6467 0.13619 0)
(12.7599 0.0511218 0)
(12.8746 0.0415919 0)
(12.9059 0.027273 0)
(13.1225 -0.104712 0)
(13.178 -0.131738 0)
(13.3393 -0.24603 0)
(13.4417 -0.380178 0)
(13.6384 -0.490717 0)
(13.6659 -0.618554 0)
(13.8963 -0.824217 0)
(13.9149 -0.961755 0)
(14.0744 -1.13644 0)
(14.1109 -1.31545 0)
(14.238 -1.51994 0)
(14.2077 -1.67995 0)
(14.2615 -1.87974 0)
(14.2781 -2.08105 0)
(14.2046 -2.20135 0)
(14.1384 -2.40468 0)
(14.0742 -2.5522 0)
(13.9113 -2.69862 0)
(13.7223 -2.81116 0)
(13.6642 -2.93832 0)
(13.361 -3.02506 0)
(13.2621 -3.0981 0)
(13.0022 -3.19174 0)
(12.8317 -3.25117 0)
(12.6806 -3.3076 0)
(12.4077 -3.39385 0)
(12.4637 -3.41916 0)
(12.0396 -3.504 0)
(12.2521 -3.54006 0)
(11.73 -3.64288 0)
(12.0773 -3.70371 0)
(11.37 -3.78226 0)
(12.0929 -3.84612 0)
(11.0012 -3.80743 0)
(12.0391 -3.7271 0)
(10.7723 -3.6736 0)
(11.7922 -3.32285 0)
(10.5134 -3.19253 0)
(11.1992 -2.75949 0)
(10.155 -2.61123 0)
(10.4335 -2.10416 0)
(9.54294 -1.93898 0)
(9.38207 -1.65277 0)
(8.65137 -1.49145 0)
(8.38525 -1.31841 0)
(7.64216 -1.28575 0)
(7.19725 -1.28678 0)
(6.56948 -1.44037 0)
(6.01981 -1.45336 0)
(5.48171 -1.73491 0)
(5.54965 -1.90021 0)
(6.06103 -2.02309 0)
(6.53617 -1.83192 0)
(6.99727 -1.44353 0)
(7.21254 -0.986643 0)
(7.47375 -0.29355 0)
(7.45751 0.412727 0)
(7.77435 1.15586 0)
(8.084 2.10331 0)
(8.25981 2.83874 0)
(8.53254 3.79742 0)
(8.76853 4.66313 0)
(8.33619 5.19806 0)
(8.54537 5.816 0)
(8.03594 5.71536 0)
(7.69585 5.7829 0)
(7.44356 5.25621 0)
(6.78825 5.47392 0)
(7.82945 6.23408 0)
(7.88336 6.50943 0)