/*--------------------------------*- C++ -*----------------------------------*\
| =========                 |                                                 |
| \\      /  F ield         | OpenFOAM: The Open Source CFD Toolbox           |
|  \\    /   O peration     | Version:  2.4.0                                 |
|   \\  /    A nd           | Web:      www.OpenFOAM.org                      |
|    \\/     M anipulation  |                                                 |
\*---------------------------------------------------------------------------*/
FoamFile
{
    version     2.0;
    format      ascii;
    class       volSymmTensorField;
    location    "1.88";
    object      UPrime2Mean;
}
// * * * * * * * * * * * * * * * * * * * * * * * * * * * * * * * * * * * * * //

dimensions      [0 2 -2 0 0 0 0];

internalField   nonuniform List<symmTensor> 
8800
(
(0.000921631 4.86644e-05 0 0.000102859 0 0)
(0.0171735 -0.000666625 0 3.88927e-05 0 0)
(0.0337423 -6.23197e-05 0 1.06742e-05 0 0)
(0.0426287 8.63688e-05 0 5.9673e-06 0 0)
(0.0483644 5.73905e-05 0 5.02836e-06 0 0)
(0.0543209 2.09243e-05 0 6.45029e-06 0 0)
(0.0573584 -1.06935e-05 0 7.5543e-06 0 0)
(0.0602912 -5.20109e-05 0 9.82499e-06 0 0)
(0.062916 -7.03989e-05 0 1.04291e-05 0 0)
(0.064002 -9.72658e-05 0 1.29422e-05 0 0)
(0.0669386 -0.000111364 0 1.29806e-05 0 0)
(0.0670553 -0.000140739 0 1.61452e-05 0 0)
(0.0703295 -0.00016383 0 1.56438e-05 0 0)
(0.0703834 -0.000186697 0 1.94091e-05 0 0)
(0.074595 -0.000265714 0 1.86419e-05 0 0)
(0.0749039 -0.000200586 0 2.4014e-05 0 0)
(0.0839247 -0.000727567 0 2.59231e-05 0 0)
(0.0821195 0.000799877 0 6.85944e-05 0 0)
(0.133989 -0.00902943 0 0.000940808 0 0)
(0.141184 0.0159918 0 0.00317854 0 0)
(0.00554449 0.00141709 0 0.000626692 0 0)
(0.00159557 -0.000649245 0 0.000832938 0 0)
(0.0109998 -0.00109138 0 0.000362709 0 0)
(0.0174026 -0.00130826 0 0.000157072 0 0)
(0.0260918 -0.0011931 0 9.9674e-05 0 0)
(0.0385547 -0.00113081 0 8.52556e-05 0 0)
(0.049387 -0.00143102 0 9.97435e-05 0 0)
(0.0579557 -0.000999723 0 7.69012e-05 0 0)
(0.0740853 -0.00152407 0 0.000101726 0 0)
(0.0736357 -0.00113804 0 8.62216e-05 0 0)
(0.0968596 -0.00169025 0 0.000114634 0 0)
(0.0878546 -0.00147056 0 0.000109415 0 0)
(0.11748 -0.00216929 0 0.000149751 0 0)
(0.101812 -0.00190876 0 0.00014679 0 0)
(0.138848 -0.00297808 0 0.000215846 0 0)
(0.115735 -0.00297375 0 0.000246784 0 0)
(0.167004 -0.00330565 0 0.000333675 0 0)
(0.137816 -0.00711099 0 0.000880398 0 0)
(0.232014 -0.00378144 0 0.000670228 0 0)
(0.225831 -0.0297612 0 0.0112131 0 0)
(0.0139341 0.000566271 0 0.000425564 0 0)
(0.013863 0.000106714 0 0.0010074 0 0)
(0.0356772 -8.40094e-05 0 0.000663768 0 0)
(0.0387591 -0.00105792 0 0.000387268 0 0)
(0.0547106 -0.00106086 0 0.000317761 0 0)
(0.0636827 -0.00160254 0 0.000303614 0 0)
(0.0831293 -0.00320707 0 0.000364072 0 0)
(0.0879364 -0.00199732 0 0.000257186 0 0)
(0.123558 -0.0045686 0 0.000348341 0 0)
(0.112168 -0.00293901 0 0.000239782 0 0)
(0.168981 -0.00563686 0 0.000360284 0 0)
(0.136376 -0.00411989 0 0.000286055 0 0)
(0.215601 -0.00750422 0 0.000500717 0 0)
(0.157908 -0.00528631 0 0.000415777 0 0)
(0.266064 -0.0107579 0 0.000848336 0 0)
(0.171793 -0.00652927 0 0.000726646 0 0)
(0.325577 -0.0145969 0 0.00148306 0 0)
(0.185082 -0.00872753 0 0.00184839 0 0)
(0.40657 -0.0190913 0 0.00337407 0 0)
(0.230587 -0.026298 0 0.0137884 0 0)
(0.0683479 -0.000355167 0 0.000347874 0 0)
(0.0798721 -9.55956e-05 0 0.000832121 0 0)
(0.123908 -0.00113078 0 0.000691 0 0)
(0.129238 -0.00216163 0 0.000489658 0 0)
(0.159974 -0.00143246 0 0.000502167 0 0)
(0.166213 -0.00262785 0 0.000531414 0 0)
(0.201387 -0.00506259 0 0.000710506 0 0)
(0.197656 -0.00261599 0 0.000537342 0 0)
(0.253656 -0.00853788 0 0.000822891 0 0)
(0.226173 -0.00461821 0 0.000543087 0 0)
(0.313086 -0.0113983 0 0.000906684 0 0)
(0.253282 -0.00736776 0 0.000660715 0 0)
(0.376997 -0.0155425 0 0.00126986 0 0)
(0.277103 -0.00998797 0 0.000936122 0 0)
(0.447539 -0.0222789 0 0.00211379 0 0)
(0.289644 -0.0124572 0 0.00152996 0 0)
(0.529579 -0.0301934 0 0.0034003 0 0)
(0.28756 -0.0159756 0 0.00378031 0 0)
(0.633346 -0.0362568 0 0.00569622 0 0)
(0.28317 -0.0311039 0 0.0211479 0 0)
(0.266831 -0.00119797 0 0.000581862 0 0)
(0.264206 0.000158665 0 0.0011133 0 0)
(0.295404 -0.00396944 0 0.00133376 0 0)
(0.284479 -0.00405235 0 0.000999057 0 0)
(0.308122 -0.00421892 0 0.00109594 0 0)
(0.300374 -0.00572598 0 0.00100964 0 0)
(0.330184 -0.0085439 0 0.00155617 0 0)
(0.315418 -0.0052205 0 0.00114448 0 0)
(0.362493 -0.0132346 0 0.00196574 0 0)
(0.330994 -0.0073332 0 0.00132168 0 0)
(0.398318 -0.0171129 0 0.00229905 0 0)
(0.347552 -0.0108956 0 0.00158153 0 0)
(0.434865 -0.0223658 0 0.00303391 0 0)
(0.364745 -0.0143456 0 0.00202921 0 0)
(0.47297 -0.0307843 0 0.00443475 0 0)
(0.377939 -0.017977 0 0.00278125 0 0)
(0.516472 -0.0413045 0 0.00645921 0 0)
(0.381169 -0.0228101 0 0.00522585 0 0)
(0.573679 -0.0512683 0 0.00988643 0 0)
(0.369053 -0.0320726 0 0.0240841 0 0)
(0.334315 -0.00528028 0 0.00190981 0 0)
(0.286611 -0.00104704 0 0.00259948 0 0)
(0.279733 -0.00733986 0 0.00329075 0 0)
(0.239879 -0.00574889 0 0.00213116 0 0)
(0.248382 -0.00807867 0 0.00290918 0 0)
(0.22824 -0.00760046 0 0.00238629 0 0)
(0.233456 -0.0106966 0 0.00345237 0 0)
(0.218774 -0.00712978 0 0.00250617 0 0)
(0.228793 -0.0136402 0 0.00414188 0 0)
(0.216342 -0.00899604 0 0.00278143 0 0)
(0.226968 -0.0164097 0 0.00469107 0 0)
(0.218798 -0.0120477 0 0.00332414 0 0)
(0.225395 -0.0194758 0 0.0057191 0 0)
(0.227066 -0.0150033 0 0.00401347 0 0)
(0.221806 -0.024129 0 0.00771402 0 0)
(0.240687 -0.0185881 0 0.00500789 0 0)
(0.215445 -0.0295798 0 0.0108063 0 0)
(0.259666 -0.0234203 0 0.00756787 0 0)
(0.208539 -0.0339529 0 0.0175489 0 0)
(0.28675 -0.031711 0 0.0215805 0 0)
(0.155091 -0.00862247 0 0.00356657 0 0)
(0.137779 -0.00739022 0 0.00527253 0 0)
(0.128668 -0.00683279 0 0.0051462 0 0)
(0.119093 -0.00973398 0 0.00437079 0 0)
(0.116311 -0.00874196 0 0.00531951 0 0)
(0.117898 -0.0089938 0 0.00474654 0 0)
(0.113626 -0.00934725 0 0.00534726 0 0)
(0.115686 -0.00906024 0 0.00484814 0 0)
(0.116005 -0.0099516 0 0.00590929 0 0)
(0.118032 -0.00988082 0 0.00523153 0 0)
(0.116277 -0.0114024 0 0.00662157 0 0)
(0.124538 -0.0109033 0 0.00593027 0 0)
(0.119556 -0.0119601 0 0.00780458 0 0)
(0.133985 -0.0122978 0 0.00699474 0 0)
(0.121697 -0.0121226 0 0.00987679 0 0)
(0.147628 -0.0139805 0 0.00849256 0 0)
(0.123159 -0.0108314 0 0.013258 0 0)
(0.167783 -0.0157432 0 0.0123145 0 0)
(0.125631 -0.00476762 0 0.0211827 0 0)
(0.199021 -0.0141224 0 0.0323078 0 0)
(0.136292 -0.0101172 0 0.00440597 0 0)
(0.166224 -0.0162103 0 0.00881585 0 0)
(0.133203 -0.00741513 0 0.00692631 0 0)
(0.168587 -0.0121692 0 0.00600366 0 0)
(0.14611 -0.0101391 0 0.0069699 0 0)
(0.1661 -0.00995307 0 0.00691141 0 0)
(0.16332 -0.00850701 0 0.00640311 0 0)
(0.169953 -0.0100992 0 0.00700801 0 0)
(0.175696 -0.00797758 0 0.00715697 0 0)
(0.174736 -0.00957567 0 0.00723952 0 0)
(0.187294 -0.00767702 0 0.00774368 0 0)
(0.180563 -0.00908645 0 0.00824814 0 0)
(0.203012 -0.00600425 0 0.00883637 0 0)
(0.189836 -0.00901713 0 0.00946215 0 0)
(0.214824 -0.003189 0 0.0107912 0 0)
(0.202041 -0.00850801 0 0.0112971 0 0)
(0.230631 0.0018483 0 0.0138424 0 0)
(0.218642 -0.00693069 0 0.0163932 0 0)
(0.246915 0.012943 0 0.021734 0 0)
(0.24262 -0.000234554 0 0.037813 0 0)
(0.233189 -0.00722635 0 0.00422779 0 0)
(0.260665 -0.0154057 0 0.0112618 0 0)
(0.225037 -0.00480892 0 0.00787567 0 0)
(0.231838 -0.00767049 0 0.00698042 0 0)
(0.255737 -0.00576338 0 0.006942 0 0)
(0.220207 -0.00577911 0 0.00775485 0 0)
(0.28628 -0.00368487 0 0.00648408 0 0)
(0.218837 -0.00561792 0 0.00781925 0 0)
(0.302078 -0.00168985 0 0.00694023 0 0)
(0.222463 -0.00549268 0 0.0083446 0 0)
(0.31215 0.000193548 0 0.00746626 0 0)
(0.230862 -0.0043637 0 0.00917044 0 0)
(0.325496 0.00276972 0 0.00855354 0 0)
(0.242256 -0.00372411 0 0.0104917 0 0)
(0.340921 0.0065438 0 0.00982364 0 0)
(0.256633 -0.00229627 0 0.0123111 0 0)
(0.355822 0.0127081 0 0.0122338 0 0)
(0.277427 0.000520333 0 0.0169734 0 0)
(0.372308 0.0244692 0 0.0184738 0 0)
(0.315721 0.00558696 0 0.0314139 0 0)
(0.261208 -0.00353111 0 0.00307345 0 0)
(0.289835 -0.00715155 0 0.00858725 0 0)
(0.280029 -0.000712195 0 0.00514964 0 0)
(0.240618 -0.00146093 0 0.00528037 0 0)
(0.300945 -0.000639541 0 0.00471533 0 0)
(0.23217 -0.000811067 0 0.00569196 0 0)
(0.311268 0.00119606 0 0.00440217 0 0)
(0.232141 -0.00054004 0 0.00589319 0 0)
(0.311278 0.00321194 0 0.00472897 0 0)
(0.236401 -0.00031566 0 0.00616859 0 0)
(0.317386 0.00424599 0 0.00516534 0 0)
(0.25015 0.000817905 0 0.00662488 0 0)
(0.324886 0.00671466 0 0.00577057 0 0)
(0.266083 0.00159451 0 0.00747146 0 0)
(0.333536 0.00989811 0 0.00638549 0 0)
(0.287556 0.00377008 0 0.0085854 0 0)
(0.345253 0.0149136 0 0.00751105 0 0)
(0.321642 0.0080878 0 0.0113531 0 0)
(0.362304 0.0239379 0 0.0110794 0 0)
(0.390359 0.0134689 0 0.0205809 0 0)
(0.176918 -0.00120645 0 0.00229764 0 0)
(0.202592 -0.00115389 0 0.00533473 0 0)
(0.192349 0.00187087 0 0.00364096 0 0)
(0.171643 0.0028984 0 0.00336811 0 0)
(0.200146 0.00184434 0 0.00403322 0 0)
(0.173486 0.00267284 0 0.00408506 0 0)
(0.201297 0.00310439 0 0.00391914 0 0)
(0.176767 0.00371034 0 0.00432028 0 0)
(0.201185 0.00440194 0 0.0040932 0 0)
(0.184751 0.00448896 0 0.00453198 0 0)
(0.200785 0.00550348 0 0.00439853 0 0)
(0.200914 0.00559641 0 0.00475174 0 0)
(0.205395 0.00739872 0 0.00471267 0 0)
(0.214494 0.00714285 0 0.00518305 0 0)
(0.210936 0.00958555 0 0.00507377 0 0)
(0.234432 0.0101296 0 0.00576955 0 0)
(0.216681 0.0127079 0 0.00577614 0 0)
(0.266529 0.0155764 0 0.00712756 0 0)
(0.221748 0.0185982 0 0.00808094 0 0)
(0.326687 0.0229911 0 0.0129051 0 0)
(0.0768204 -0.000295828 0 0.00202634 0 0)
(0.0863692 0.000606683 0 0.00439954 0 0)
(0.077642 0.00123033 0 0.00341542 0 0)
(0.0816257 0.00235938 0 0.0033429 0 0)
(0.0826172 0.00131879 0 0.00368155 0 0)
(0.0861353 0.00213123 0 0.00390916 0 0)
(0.0862049 0.00145445 0 0.00374839 0 0)
(0.0909024 0.00332161 0 0.00414583 0 0)
(0.0870507 0.00217147 0 0.00374354 0 0)
(0.0998685 0.00406477 0 0.00419074 0 0)
(0.0863582 0.00288513 0 0.00386837 0 0)
(0.111166 0.00484536 0 0.00428575 0 0)
(0.0897532 0.00368158 0 0.00397986 0 0)
(0.122325 0.00588022 0 0.00445393 0 0)
(0.0930156 0.00424921 0 0.00401344 0 0)
(0.137317 0.00791048 0 0.0046331 0 0)
(0.0946469 0.00524719 0 0.00424127 0 0)
(0.159783 0.0113633 0 0.00536415 0 0)
(0.0959638 0.00823583 0 0.00551307 0 0)
(0.201159 0.0162427 0 0.0089808 0 0)
(0.0254777 -9.43661e-05 0 0.00166239 0 0)
(0.0278307 0.000216886 0 0.0036391 0 0)
(0.025298 -0.000285625 0 0.00298245 0 0)
(0.0329734 0.000642325 0 0.00275353 0 0)
(0.0303924 0.000244477 0 0.00280032 0 0)
(0.0345599 0.000793429 0 0.00295092 0 0)
(0.0332604 9.42026e-05 0 0.00294717 0 0)
(0.038771 0.00137056 0 0.00325846 0 0)
(0.0345327 0.000206559 0 0.00288495 0 0)
(0.0442846 0.00192203 0 0.00310334 0 0)
(0.0349846 0.000819543 0 0.00283694 0 0)
(0.048901 0.0022712 0 0.00311704 0 0)
(0.0371051 0.00111291 0 0.00293176 0 0)
(0.0545927 0.00265875 0 0.00303066 0 0)
(0.0399465 0.00128523 0 0.00274617 0 0)
(0.0613038 0.00365019 0 0.00288463 0 0)
(0.0425793 0.00196049 0 0.00270676 0 0)
(0.0714141 0.00548198 0 0.00313445 0 0)
(0.0474553 0.00423495 0 0.0034414 0 0)
(0.0909753 0.00891742 0 0.0052855 0 0)
(0.00772859 -0.000213725 0 0.00120467 0 0)
(0.00561829 -0.00055047 0 0.00273291 0 0)
(0.00665238 -0.00120593 0 0.0024343 0 0)
(0.00986651 -0.000503743 0 0.00189339 0 0)
(0.0099439 -0.000196955 0 0.00195625 0 0)
(0.0111658 -0.000250272 0 0.00189448 0 0)
(0.012571 -0.00027988 0 0.00202571 0 0)
(0.0137343 -0.000271272 0 0.00217194 0 0)
(0.0150843 -0.000573825 0 0.00196405 0 0)
(0.0170392 -2.8059e-06 0 0.0019399 0 0)
(0.0163821 -0.000122387 0 0.0018201 0 0)
(0.0191996 0.000140348 0 0.00187072 0 0)
(0.01822 -0.000113727 0 0.00187736 0 0)
(0.0224843 2.23929e-06 0 0.00178757 0 0)
(0.0210615 -2.87548e-05 0 0.0016619 0 0)
(0.0264563 0.000444967 0 0.00156244 0 0)
(0.0247688 0.000607506 0 0.00150642 0 0)
(0.0331684 0.00173137 0 0.00168296 0 0)
(0.0323798 0.0027702 0 0.00197099 0 0)
(0.0463979 0.00583463 0 0.00330515 0 0)
(0.00646996 -0.000323889 0 0.000893412 0 0)
(0.00278163 -0.000766575 0 0.00214767 0 0)
(0.00390689 -0.00131635 0 0.00198323 0 0)
(0.00519677 -0.000873944 0 0.0014376 0 0)
(0.0066897 -0.000430489 0 0.001502 0 0)
(0.00653185 -0.000423407 0 0.00143928 0 0)
(0.00810559 -0.000507107 0 0.00163926 0 0)
(0.00836135 -0.000846765 0 0.00175325 0 0)
(0.0105953 -0.000869059 0 0.00162025 0 0)
(0.0107669 -0.000613396 0 0.0015264 0 0)
(0.0124602 -0.00042836 0 0.00140696 0 0)
(0.0124642 -0.000397817 0 0.0013897 0 0)
(0.0142218 -0.000378565 0 0.00137689 0 0)
(0.0147468 -0.000588176 0 0.00127551 0 0)
(0.0168069 -0.000390024 0 0.00115488 0 0)
(0.0175962 -0.000322488 0 0.00102317 0 0)
(0.0202119 0.000208036 0 0.000925651 0 0)
(0.0226773 0.000756183 0 0.000947022 0 0)
(0.0271627 0.00218075 0 0.00111716 0 0)
(0.0337239 0.00435051 0 0.00183715 0 0)
(0.00792072 -0.00031542 0 0.000531855 0 0)
(0.00444923 -0.000218966 0 0.0014146 0 0)
(0.00458866 -0.00078669 0 0.00135841 0 0)
(0.00552862 -0.000593027 0 0.00100904 0 0)
(0.00730238 -0.000302502 0 0.00113776 0 0)
(0.00676809 -0.000134085 0 0.00103188 0 0)
(0.00873426 -0.00026619 0 0.00113963 0 0)
(0.00792618 -0.000320376 0 0.00122998 0 0)
(0.00969708 -0.000443711 0 0.00116696 0 0)
(0.00837291 -0.000130525 0 0.00108874 0 0)
(0.0100516 -0.000117246 0 0.000966757 0 0)
(0.00842342 7.08768e-05 0 0.000907736 0 0)
(0.00984498 1.3194e-05 0 0.000859325 0 0)
(0.00812562 -6.93583e-06 0 0.0007936 0 0)
(0.00955037 -4.5087e-06 0 0.000699534 0 0)
(0.00806751 2.9064e-05 0 0.000630352 0 0)
(0.00981563 0.000330133 0 0.000526206 0 0)
(0.00957788 0.000595712 0 0.000533141 0 0)
(0.0128328 0.00156524 0 0.000613153 0 0)
(0.0162598 0.00261704 0 0.00101937 0 0)
(0.00685519 -0.000505227 0 0.000330746 0 0)
(0.00361858 6.09988e-07 0 0.000972414 0 0)
(0.00395824 -0.000286931 0 0.000829548 0 0)
(0.00529207 -0.000249972 0 0.00056702 0 0)
(0.00656645 -8.38619e-05 0 0.000678791 0 0)
(0.00572311 6.83015e-05 0 0.000645253 0 0)
(0.00645918 0.000130024 0 0.000671118 0 0)
(0.00507176 0.000401142 0 0.000682627 0 0)
(0.00491676 0.000402721 0 0.000620341 0 0)
(0.00398281 0.000691125 0 0.000559129 0 0)
(0.00361943 0.000604749 0 0.000489484 0 0)
(0.00352764 0.000803643 0 0.000452281 0 0)
(0.00287505 0.000659672 0 0.000420378 0 0)
(0.00354662 0.000771932 0 0.000390115 0 0)
(0.00284428 0.000521403 0 0.000338328 0 0)
(0.00419364 0.000657018 0 0.000317351 0 0)
(0.00375858 0.000386436 0 0.000269574 0 0)
(0.00564268 0.000685561 0 0.000274219 0 0)
(0.00637513 0.000663393 0 0.000375665 0 0)
(0.00931622 0.00135742 0 0.000521477 0 0)
(0.00548898 -0.00101585 0 0.000388368 0 0)
(0.00172219 -0.000296822 0 0.000987274 0 0)
(0.00187478 -4.23127e-05 0 0.000642826 0 0)
(0.00254417 0.000124162 0 0.000376924 0 0)
(0.00264833 0.000475637 0 0.000359982 0 0)
(0.00277262 0.000752248 0 0.000322648 0 0)
(0.00432014 0.000913461 0 0.000304881 0 0)
(0.00678835 0.00108253 0 0.00028687 0 0)
(0.00846429 0.00100716 0 0.000246915 0 0)
(0.0125468 0.00104088 0 0.000216052 0 0)
(0.0133164 0.0008839 0 0.000187602 0 0)
(0.0184569 0.000912939 0 0.000174386 0 0)
(0.0178983 0.000743616 0 0.00016763 0 0)
(0.0237941 0.000789286 0 0.000155633 0 0)
(0.0221309 0.000480113 0 0.00013931 0 0)
(0.0281054 0.00060499 0 0.000131754 0 0)
(0.0258218 4.44488e-05 0 0.000119169 0 0)
(0.0302675 0.000456171 0 0.00012714 0 0)
(0.0286771 -0.000320804 0 0.00017742 0 0)
(0.0299709 0.000879286 0 0.00033173 0 0)
(0.00484194 -0.00151474 0 0.000613772 0 0)
(0.000834503 0.000585263 0 0.000821623 0 0)
(0.00454881 0.00116118 0 0.000348944 0 0)
(0.00905272 0.00102 0 0.000145545 0 0)
(0.0141882 0.00099757 0 0.000101185 0 0)
(0.0207845 0.000901261 0 8.12034e-05 0 0)
(0.0270354 0.000755673 0 7.41241e-05 0 0)
(0.0337676 0.000649164 0 6.94222e-05 0 0)
(0.0378166 0.000519926 0 6.45625e-05 0 0)
(0.0437494 0.000465253 0 6.16135e-05 0 0)
(0.045588 0.000377639 0 5.9065e-05 0 0)
(0.0512269 0.000376298 0 5.67657e-05 0 0)
(0.0513176 0.000294954 0 5.65169e-05 0 0)
(0.0570357 0.000315422 0 5.17188e-05 0 0)
(0.0556696 0.00015098 0 4.77035e-05 0 0)
(0.0609721 0.000188913 0 4.29534e-05 0 0)
(0.0582652 -0.000155264 0 4.1067e-05 0 0)
(0.0610105 7.03459e-05 0 4.09733e-05 0 0)
(0.0588771 -0.000607553 0 6.07198e-05 0 0)
(0.0548737 0.00036207 0 0.000179476 0 0)
(0.000897216 -5.29405e-05 0 0.000102015 0 0)
(0.0171679 0.000667821 0 3.77222e-05 0 0)
(0.0334978 6.11903e-05 0 9.62733e-06 0 0)
(0.0417193 -0.000102086 0 4.45737e-06 0 0)
(0.0478165 -7.50813e-05 0 3.83008e-06 0 0)
(0.0525088 -5.74396e-05 0 4.19965e-06 0 0)
(0.0555017 -3.81334e-05 0 5.08088e-06 0 0)
(0.0580762 -1.6618e-05 0 5.45265e-06 0 0)
(0.0594869 -9.53504e-06 0 6.02789e-06 0 0)
(0.0613346 5.12457e-07 0 6.0812e-06 0 0)
(0.0619281 -3.75257e-06 0 6.19072e-06 0 0)
(0.0634689 5.3826e-06 0 5.86412e-06 0 0)
(0.0635524 -6.37772e-06 0 5.70288e-06 0 0)
(0.0649769 2.18512e-06 0 5.04225e-06 0 0)
(0.0645027 -2.67308e-05 0 4.63409e-06 0 0)
(0.0655079 -2.33462e-05 0 3.85949e-06 0 0)
(0.06405 -7.81272e-05 0 3.52104e-06 0 0)
(0.063654 -6.38614e-05 0 3.10338e-06 0 0)
(0.0618301 -0.00022968 0 3.9414e-06 0 0)
(0.0559869 0.000310949 0 2.23681e-05 0 0)
(0.266347 -0.12838 0 0.0801383 0 0)
(0.289736 -0.15205 0 0.112313 0 0)
(0.296221 -0.145545 0 0.134236 0 0)
(0.311818 -0.1284 0 0.150437 0 0)
(0.320719 -0.109557 0 0.160088 0 0)
(0.375338 -0.09596 0 0.166229 0 0)
(0.406442 -0.0916139 0 0.171857 0 0)
(0.493027 -0.100747 0 0.180362 0 0)
(0.53782 -0.113947 0 0.190764 0 0)
(0.626253 -0.132946 0 0.201819 0 0)
(0.660245 -0.145754 0 0.213685 0 0)
(0.740003 -0.162748 0 0.228619 0 0)
(0.768131 -0.170438 0 0.244293 0 0)
(0.848553 -0.186445 0 0.258801 0 0)
(0.882628 -0.196201 0 0.268881 0 0)
(0.969175 -0.219404 0 0.277546 0 0)
(1.0058 -0.239572 0 0.288631 0 0)
(1.0992 -0.274093 0 0.305526 0 0)
(1.13579 -0.299357 0 0.329276 0 0)
(1.25012 -0.336095 0 0.359607 0 0)
(1.30258 -0.358043 0 0.387645 0 0)
(1.44409 -0.397315 0 0.417869 0 0)
(1.50382 -0.421208 0 0.44736 0 0)
(1.66784 -0.466784 0 0.478227 0 0)
(1.73706 -0.491324 0 0.5074 0 0)
(1.91717 -0.546508 0 0.541014 0 0)
(1.999 -0.57275 0 0.574087 0 0)
(2.18556 -0.645265 0 0.612516 0 0)
(2.28289 -0.678725 0 0.652706 0 0)
(2.46674 -0.767023 0 0.702404 0 0)
(2.58107 -0.804516 0 0.755815 0 0)
(2.77284 -0.899028 0 0.814743 0 0)
(2.90454 -0.937163 0 0.872355 0 0)
(3.12684 -1.0406 0 0.934504 0 0)
(3.26625 -1.08468 0 0.992922 0 0)
(3.51802 -1.20153 0 1.05623 0 0)
(3.63269 -1.24435 0 1.11159 0 0)
(3.8986 -1.37023 0 1.17298 0 0)
(3.9706 -1.40372 0 1.22614 0 0)
(4.24082 -1.53344 0 1.28942 0 0)
(4.26313 -1.54464 0 1.34586 0 0)
(4.52801 -1.67127 0 1.40891 0 0)
(4.50597 -1.65595 0 1.46226 0 0)
(4.78148 -1.77865 0 1.52529 0 0)
(4.73566 -1.75167 0 1.57803 0 0)
(5.04761 -1.87971 0 1.64088 0 0)
(4.99546 -1.84995 0 1.68956 0 0)
(5.36013 -1.98823 0 1.75892 0 0)
(5.30573 -1.96819 0 1.81108 0 0)
(5.73321 -2.11794 0 1.891 0 0)
(5.65652 -2.10797 0 1.95203 0 0)
(6.14492 -2.26987 0 2.04664 0 0)
(6.00367 -2.25136 0 2.11896 0 0)
(6.53493 -2.41917 0 2.22191 0 0)
(6.28883 -2.36434 0 2.29128 0 0)
(6.84868 -2.53604 0 2.39226 0 0)
(6.49357 -2.43387 0 2.44296 0 0)
(7.08638 -2.61149 0 2.52778 0 0)
(6.63167 -2.47943 0 2.56423 0 0)
(7.29107 -2.67755 0 2.64274 0 0)
(6.731 -2.54198 0 2.68094 0 0)
(7.48254 -2.76342 0 2.76614 0 0)
(6.79164 -2.61971 0 2.81302 0 0)
(7.61847 -2.84497 0 2.90658 0 0)
(6.78927 -2.66455 0 2.94725 0 0)
(7.66812 -2.86718 0 3.03032 0 0)
(6.74083 -2.64191 0 3.0319 0 0)
(7.69003 -2.80375 0 3.07436 0 0)
(6.70002 -2.56992 0 3.05336 0 0)
(7.78322 -2.74485 0 3.10422 0 0)
(6.72525 -2.518 0 3.10508 0 0)
(7.96749 -2.72873 0 3.16434 0 0)
(6.81583 -2.49075 0 3.16952 0 0)
(8.24116 -2.77113 0 3.24351 0 0)
(6.96052 -2.51464 0 3.28256 0 0)
(8.54044 -2.87385 0 3.4047 0 0)
(7.14377 -2.58211 0 3.48432 0 0)
(8.79022 -2.98956 0 3.66076 0 0)
(7.29772 -2.6535 0 3.75597 0 0)
(8.96749 -3.06032 0 3.95836 0 0)
(7.35678 -2.69128 0 4.04825 0 0)
(9.07554 -3.08479 0 4.23363 0 0)
(7.32898 -2.68763 0 4.28921 0 0)
(9.12387 -3.08546 0 4.45081 0 0)
(7.26449 -2.65145 0 4.4797 0 0)
(9.06333 -3.03464 0 4.634 0 0)
(7.2137 -2.56806 0 4.65608 0 0)
(8.96392 -2.9373 0 4.84076 0 0)
(7.1889 -2.47767 0 4.87501 0 0)
(8.92093 -2.8227 0 5.05747 0 0)
(7.20249 -2.40015 0 5.10067 0 0)
(8.94566 -2.77474 0 5.30925 0 0)
(7.28687 -2.37885 0 5.38637 0 0)
(9.04034 -2.77187 0 5.619 0 0)
(7.41209 -2.35923 0 5.6976 0 0)
(9.13151 -2.75854 0 5.94864 0 0)
(7.54327 -2.32529 0 6.0354 0 0)
(9.19917 -2.72356 0 6.32513 0 0)
(7.63776 -2.2729 0 6.42007 0 0)
(9.15532 -2.65064 0 6.74051 0 0)
(7.63096 -2.18736 0 6.87561 0 0)
(9.07325 -2.57512 0 7.23339 0 0)
(7.51807 -2.08399 0 7.36828 0 0)
(8.98042 -2.47744 0 7.71396 0 0)
(7.35155 -1.97192 0 7.78964 0 0)
(8.84946 -2.39918 0 8.12665 0 0)
(7.15639 -1.84216 0 8.17009 0 0)
(8.6783 -2.26463 0 8.43819 0 0)
(7.01006 -1.66447 0 8.42419 0 0)
(8.5167 -2.09719 0 8.69509 0 0)
(6.95161 -1.50912 0 8.66936 0 0)
(8.41613 -1.95528 0 8.92353 0 0)
(6.99588 -1.38153 0 8.87684 0 0)
(8.34936 -1.82262 0 9.13676 0 0)
(7.05631 -1.23338 0 9.09022 0 0)
(8.26883 -1.66377 0 9.35232 0 0)
(7.13092 -1.11265 0 9.35177 0 0)
(8.17688 -1.52287 0 9.64951 0 0)
(7.22807 -1.0354 0 9.70336 0 0)
(8.14814 -1.41111 0 10.0244 0 0)
(7.33901 -0.996028 0 10.124 0 0)
(8.11209 -1.34272 0 10.4299 0 0)
(7.37136 -0.968522 0 10.5563 0 0)
(8.02848 -1.29625 0 10.8465 0 0)
(7.35392 -0.945192 0 10.9397 0 0)
(7.95502 -1.2347 0 11.1764 0 0)
(7.29082 -0.887171 0 11.2644 0 0)
(7.88294 -1.16188 0 11.4799 0 0)
(7.27047 -0.855467 0 11.5647 0 0)
(7.77455 -1.12001 0 11.7508 0 0)
(7.31644 -0.902733 0 11.8916 0 0)
(7.70812 -1.11954 0 12.1065 0 0)
(7.43977 -0.978014 0 12.2787 0 0)
(7.71883 -1.09325 0 12.4544 0 0)
(7.53781 -1.00113 0 12.6206 0 0)
(7.72014 -1.01552 0 12.7971 0 0)
(7.58726 -0.940724 0 12.944 0 0)
(7.70029 -0.924254 0 13.1804 0 0)
(7.61035 -0.856111 0 13.399 0 0)
(7.67593 -0.833736 0 13.5986 0 0)
(7.59128 -0.803335 0 13.8226 0 0)
(7.59728 -0.736736 0 13.959 0 0)
(7.5744 -0.740923 0 14.1675 0 0)
(7.47123 -0.634855 0 14.3184 0 0)
(7.42923 -0.650102 0 14.5758 0 0)
(7.25218 -0.499884 0 14.698 0 0)
(7.24746 -0.498571 0 14.8258 0 0)
(7.0556 -0.393944 0 14.9149 0 0)
(7.06711 -0.309908 0 15.0769 0 0)
(6.87861 -0.288425 0 15.1374 0 0)
(6.88045 -0.167291 0 15.1781 0 0)
(6.70573 -0.176406 0 15.1161 0 0)
(6.70949 -0.0380212 0 15.1236 0 0)
(6.57364 -0.077927 0 15.0105 0 0)
(6.5857 0.0868191 0 15.083 0 0)
(6.46612 -0.00253619 0 14.9865 0 0)
(6.51046 0.163052 0 15.0812 0 0)
(6.41324 0.0682496 0 14.933 0 0)
(6.46395 0.176369 0 15.0413 0 0)
(6.29551 0.0437738 0 14.8689 0 0)
(6.34898 0.119771 0 14.9595 0 0)
(6.1734 -0.00603047 0 14.8419 0 0)
(6.22367 0.0851428 0 14.8651 0 0)
(6.09938 -0.0771521 0 14.747 0 0)
(6.18412 0.0325461 0 14.7154 0 0)
(6.06335 -0.169112 0 14.5863 0 0)
(6.18099 -0.0776241 0 14.5491 0 0)
(5.99139 -0.345211 0 14.4416 0 0)
(6.1387 -0.185856 0 14.33 0 0)
(5.99605 -0.516598 0 14.1655 0 0)
(6.04197 -0.370389 0 14.0101 0 0)
(6.06464 -0.73783 0 13.8624 0 0)
(5.89273 -0.531425 0 13.5456 0 0)
(6.18525 -0.985143 0 13.2424 0 0)
(5.83777 -0.59361 0 12.9215 0 0)
(6.20566 -1.05802 0 12.5786 0 0)
(5.87975 -0.635572 0 12.2838 0 0)
(6.22814 -1.05478 0 11.8324 0 0)
(5.89739 -0.697926 0 11.6709 0 0)
(6.25993 -1.00266 0 11.0616 0 0)
(5.88285 -0.775432 0 11.0577 0 0)
(6.22212 -0.931509 0 10.217 0 0)
(5.75195 -0.91805 0 10.488 0 0)
(6.04644 -0.785122 0 9.37679 0 0)
(5.58826 -1.01609 0 10.0217 0 0)
(5.76487 -0.540034 0 8.64156 0 0)
(5.3929 -1.0674 0 9.6883 0 0)
(5.40332 -0.245945 0 8.11611 0 0)
(5.10934 -1.01145 0 9.60417 0 0)
(5.04995 0.210866 0 7.92432 0 0)
(4.74126 -0.846493 0 9.84521 0 0)
(4.71015 0.766335 0 7.99342 0 0)
(4.33382 -0.530953 0 10.5985 0 0)
(4.23246 1.41718 0 8.58177 0 0)
(3.98302 -0.00955887 0 12.1125 0 0)
(3.71585 2.36799 0 10.1318 0 0)
(3.51881 0.367124 0 14.4703 0 0)
(2.95729 3.60419 0 13.0736 0 0)
(3.27774 2.32978 0 19.8754 0 0)
(1.05666 0.613404 0 21.6754 0 0)
(0.249757 -0.106066 0 0.0900401 0 0)
(0.222454 -0.113241 0 0.117272 0 0)
(0.237904 -0.101555 0 0.123796 0 0)
(0.208673 -0.0930306 0 0.127873 0 0)
(0.231127 -0.0836435 0 0.128351 0 0)
(0.225119 -0.0829407 0 0.127489 0 0)
(0.263428 -0.0873236 0 0.12984 0 0)
(0.271365 -0.0999181 0 0.136992 0 0)
(0.318779 -0.110033 0 0.145587 0 0)
(0.326234 -0.125047 0 0.154846 0 0)
(0.372094 -0.133061 0 0.164735 0 0)
(0.37537 -0.148301 0 0.177468 0 0)
(0.42391 -0.155288 0 0.190383 0 0)
(0.434049 -0.171983 0 0.203821 0 0)
(0.493197 -0.180525 0 0.215628 0 0)
(0.519765 -0.204097 0 0.228608 0 0)
(0.592709 -0.221215 0 0.242983 0 0)
(0.638147 -0.257582 0 0.261499 0 0)
(0.718442 -0.281505 0 0.281901 0 0)
(0.774427 -0.323617 0 0.306793 0 0)
(0.853365 -0.346013 0 0.331767 0 0)
(0.920866 -0.389699 0 0.359392 0 0)
(0.999284 -0.409245 0 0.385991 0 0)
(1.08406 -0.458138 0 0.415402 0 0)
(1.16431 -0.475625 0 0.443653 0 0)
(1.27226 -0.533481 0 0.477667 0 0)
(1.36219 -0.552054 0 0.511228 0 0)
(1.49751 -0.623293 0 0.551889 0 0)
(1.60238 -0.648975 0 0.591722 0 0)
(1.76115 -0.736083 0 0.640875 0 0)
(1.87368 -0.769244 0 0.688123 0 0)
(2.04987 -0.868392 0 0.744027 0 0)
(2.15309 -0.902108 0 0.795136 0 0)
(2.34463 -1.00979 0 0.854167 0 0)
(2.42048 -1.03806 0 0.905961 0 0)
(2.62847 -1.15373 0 0.965407 0 0)
(2.65497 -1.16737 0 1.01678 0 0)
(2.87834 -1.28898 0 1.07469 0 0)
(2.8451 -1.28275 0 1.12574 0 0)
(3.0905 -1.41186 0 1.18377 0 0)
(3.00541 -1.38275 0 1.23478 0 0)
(3.27565 -1.5161 0 1.2967 0 0)
(3.15759 -1.4716 0 1.3465 0 0)
(3.46499 -1.60864 0 1.41285 0 0)
(3.33389 -1.55823 0 1.46159 0 0)
(3.68613 -1.70434 0 1.53673 0 0)
(3.55218 -1.65692 0 1.58737 0 0)
(3.95246 -1.81426 0 1.66853 0 0)
(3.80263 -1.76739 0 1.72164 0 0)
(4.25231 -1.93665 0 1.80783 0 0)
(4.05388 -1.87659 0 1.86418 0 0)
(4.55626 -2.06009 0 1.95499 0 0)
(4.27758 -1.96719 0 2.01181 0 0)
(4.82965 -2.16379 0 2.10314 0 0)
(4.45525 -2.02301 0 2.15496 0 0)
(5.05662 -2.23712 0 2.24146 0 0)
(4.59867 -2.05246 0 2.28365 0 0)
(5.25041 -2.28957 0 2.36669 0 0)
(4.73605 -2.08557 0 2.40102 0 0)
(5.43811 -2.34467 0 2.4945 0 0)
(4.87192 -2.14816 0 2.53032 0 0)
(5.622 -2.40969 0 2.63274 0 0)
(4.98454 -2.22207 0 2.66562 0 0)
(5.77551 -2.4517 0 2.75992 0 0)
(5.03621 -2.24887 0 2.7771 0 0)
(5.87358 -2.43489 0 2.84265 0 0)
(5.02762 -2.20163 0 2.83339 0 0)
(5.95837 -2.38041 0 2.88221 0 0)
(5.03016 -2.1346 0 2.87555 0 0)
(6.09157 -2.35482 0 2.94547 0 0)
(5.09474 -2.09613 0 2.94723 0 0)
(6.30138 -2.3679 0 3.03466 0 0)
(5.2356 -2.0904 0 3.04277 0 0)
(6.57216 -2.43512 0 3.15168 0 0)
(5.43479 -2.13078 0 3.18692 0 0)
(6.84894 -2.5458 0 3.34008 0 0)
(5.64773 -2.20278 0 3.41199 0 0)
(7.06658 -2.64343 0 3.61007 0 0)
(5.79913 -2.24448 0 3.6891 0 0)
(7.19243 -2.67451 0 3.8966 0 0)
(5.84544 -2.24287 0 3.96526 0 0)
(7.26021 -2.66663 0 4.1539 0 0)
(5.85222 -2.21344 0 4.19693 0 0)
(7.27813 -2.63099 0 4.36048 0 0)
(5.86732 -2.18015 0 4.37208 0 0)
(7.26943 -2.55876 0 4.53872 0 0)
(5.89426 -2.13426 0 4.56349 0 0)
(7.27237 -2.47265 0 4.75298 0 0)
(5.96165 -2.06553 0 4.78284 0 0)
(7.34117 -2.38816 0 4.98822 0 0)
(6.06552 -2.02703 0 5.0533 0 0)
(7.47299 -2.38608 0 5.28765 0 0)
(6.21571 -2.01752 0 5.36745 0 0)
(7.65709 -2.39821 0 5.60784 0 0)
(6.41272 -2.00197 0 5.66947 0 0)
(7.84935 -2.41682 0 5.92641 0 0)
(6.62441 -1.97572 0 6.00402 0 0)
(8.0167 -2.39378 0 6.29453 0 0)
(6.80703 -1.92616 0 6.38889 0 0)
(8.11219 -2.34381 0 6.73402 0 0)
(6.89612 -1.83756 0 6.85293 0 0)
(8.13726 -2.25809 0 7.21723 0 0)
(6.8839 -1.70295 0 7.31213 0 0)
(8.11039 -2.12934 0 7.67189 0 0)
(6.74858 -1.56708 0 7.72109 0 0)
(7.96821 -2.00047 0 8.07815 0 0)
(6.56527 -1.39466 0 8.09347 0 0)
(7.81287 -1.82392 0 8.40572 0 0)
(6.45861 -1.21958 0 8.37597 0 0)
(7.77616 -1.67039 0 8.66509 0 0)
(6.50256 -1.08241 0 8.62079 0 0)
(7.85882 -1.52801 0 8.90102 0 0)
(6.65845 -0.948488 0 8.84698 0 0)
(7.95096 -1.36743 0 9.13448 0 0)
(6.85907 -0.840249 0 9.09692 0 0)
(8.01654 -1.25564 0 9.37016 0 0)
(7.1004 -0.792419 0 9.38466 0 0)
(8.10866 -1.18226 0 9.67767 0 0)
(7.33509 -0.757313 0 9.76566 0 0)
(8.20598 -1.11981 0 10.092 0 0)
(7.45606 -0.751353 0 10.2066 0 0)
(8.21129 -1.09388 0 10.5376 0 0)
(7.44118 -0.752045 0 10.6502 0 0)
(8.16922 -1.07937 0 10.9498 0 0)
(7.39405 -0.719014 0 11.0527 0 0)
(8.13586 -1.04163 0 11.2799 0 0)
(7.39901 -0.698864 0 11.3649 0 0)
(8.1173 -1.02102 0 11.5688 0 0)
(7.49768 -0.763353 0 11.6759 0 0)
(8.11616 -1.05744 0 11.8542 0 0)
(7.61854 -0.918733 0 12.0027 0 0)
(8.13236 -1.11124 0 12.1904 0 0)
(7.7566 -1.03091 0 12.3853 0 0)
(8.16612 -1.10398 0 12.572 0 0)
(7.86087 -1.04269 0 12.7797 0 0)
(8.25136 -1.03189 0 12.9232 0 0)
(7.97274 -1.00725 0 13.0858 0 0)
(8.30247 -0.947343 0 13.2925 0 0)
(8.03304 -0.963887 0 13.553 0 0)
(8.27203 -0.85474 0 13.7397 0 0)
(7.9836 -0.881097 0 14.0147 0 0)
(8.16142 -0.744002 0 14.1266 0 0)
(7.86988 -0.789605 0 14.336 0 0)
(7.96074 -0.589519 0 14.4858 0 0)
(7.62956 -0.630959 0 14.7655 0 0)
(7.70721 -0.40409 0 14.827 0 0)
(7.35039 -0.463611 0 15.0502 0 0)
(7.45894 -0.258891 0 15.0935 0 0)
(7.03589 -0.298405 0 15.2774 0 0)
(7.16312 -0.0986501 0 15.3148 0 0)
(6.83549 -0.0675334 0 15.3932 0 0)
(6.92568 0.0320822 0 15.2603 0 0)
(6.71877 0.082082 0 15.3127 0 0)
(6.80638 0.0917188 0 15.2632 0 0)
(6.6486 0.148285 0 15.2935 0 0)
(6.73196 0.109394 0 15.1874 0 0)
(6.64867 0.210129 0 15.2788 0 0)
(6.66152 0.154206 0 15.2168 0 0)
(6.59735 0.231649 0 15.2517 0 0)
(6.49299 0.0993885 0 15.2189 0 0)
(6.51764 0.247409 0 15.1915 0 0)
(6.36385 -0.000448049 0 15.089 0 0)
(6.41751 0.202407 0 15.1167 0 0)
(6.27414 -0.0786472 0 14.9785 0 0)
(6.34118 0.101694 0 14.9739 0 0)
(6.15482 -0.173269 0 14.8836 0 0)
(6.27094 0.0167171 0 14.9323 0 0)
(6.07815 -0.310615 0 14.8166 0 0)
(6.21701 -0.0847427 0 14.657 0 0)
(6.05846 -0.480214 0 14.6262 0 0)
(6.07224 -0.195578 0 14.4357 0 0)
(6.02967 -0.726151 0 14.2822 0 0)
(5.98709 -0.293404 0 13.9626 0 0)
(5.93042 -0.933426 0 13.6489 0 0)
(6.04068 -0.422111 0 13.2316 0 0)
(5.8526 -1.07455 0 12.8022 0 0)
(6.13391 -0.545549 0 12.5992 0 0)
(5.87433 -1.17047 0 12.0349 0 0)
(6.16092 -0.752826 0 12.0252 0 0)
(5.94916 -1.15463 0 11.2186 0 0)
(6.12064 -0.9948 0 11.545 0 0)
(5.90256 -1.05003 0 10.3949 0 0)
(5.9928 -1.2825 0 11.0768 0 0)
(5.68753 -0.896844 0 9.49344 0 0)
(5.8113 -1.5477 0 10.6046 0 0)