/*--------------------------------*- C++ -*----------------------------------*\
| =========                 |                                                 |
| \\      /  F ield         | OpenFOAM: The Open Source CFD Toolbox           |
|  \\    /   O peration     | Version:  2.4.0                                 |
|   \\  /    A nd           | Web:      www.OpenFOAM.org                      |
|    \\/     M anipulation  |                                                 |
\*---------------------------------------------------------------------------*/
FoamFile
{
    version     2.0;
    format      ascii;
    class       volScalarField;
    location    "1.73";
    object      p;
}
// * * * * * * * * * * * * * * * * * * * * * * * * * * * * * * * * * * * * * //

dimensions      [0 2 -2 0 0 0 0];

internalField   nonuniform List<scalar> 
8800
(
88.7103
76.357
68.9573
65.4189
63.5337
62.1529
60.9149
59.8393
58.8384
57.8321
56.8901
56.0126
55.0739
54.1954
53.3887
52.597
51.8009
51.1524
50.3221
49.7193
85.6003
76.0023
69.1272
65.5329
63.5933
62.179
60.9215
59.8388
58.8386
57.8289
56.8859
56.012
55.0722
54.1909
53.3892
52.5962
51.8015
51.1515
50.3161
49.6369
83.6363
76.0757
69.7318
65.9083
63.7629
62.256
60.967
59.8714
58.8639
57.8452
56.8963
56.0172
55.0736
54.1866
53.3907
52.593
51.8101
51.1566
50.3257
49.6124
82.1012
76.1326
70.3233
66.3318
63.948
62.3393
61.0321
59.9256
58.9126
57.8827
56.9277
56.0304
55.0866
54.1863
53.3974
52.5873
51.832
51.1822
50.4585
49.6332
80.8495
76.1027
70.8067
66.7418
64.1184
62.3976
61.0874
59.979
58.9662
57.9363
56.9682
56.0497
55.1045
54.191
53.4013
52.5788
51.8556
51.2228
50.5813
49.6734
79.8618
76.0041
71.181
67.0907
64.2717
62.436
61.1232
60.0173
59.0176
57.9867
57.0133
56.0641
55.127
54.1936
53.4016
52.5684
51.8543
51.2436
50.6885
49.7189
79.1061
75.8868
71.4548
67.374
64.4122
62.4558
61.1413
60.0419
59.0587
58.0334
57.0463
56.0828
55.1392
54.1981
53.3899
52.5571
51.8318
51.2015
50.7778
50.096
78.5506
75.7898
71.6329
67.5904
64.5315
62.4813
61.1318
60.0698
59.0818
58.0714
57.065
56.1023
55.1411
54.2081
53.3666
52.5536
51.7687
51.1226
50.4905
50.6169
78.1902
75.7201
71.742
67.7387
64.6181
62.4954
61.1256
60.0851
59.0988
58.0981
57.0805
56.1128
55.1462
54.2106
53.3512
52.5336
51.7286
51.0749
50.5484
51.1544
78.0139
75.6821
71.7958
67.8147
64.6638
62.5031
61.1204
60.0904
59.1088
58.1114
57.0889
56.1124
55.1511
54.2079
53.3401
52.5126
51.7121
51.0496
50.5947
51.1667
78.0091
75.6878
71.7904
67.8199
64.6608
62.5055
61.1199
60.0918
59.1056
58.1156
57.0877
56.1097
55.1505
54.2083
53.3324
52.5037
51.7014
51.0345
50.606
51.3208
78.1835
75.7286
71.7343
67.7469
64.6175
62.5
61.1284
60.0825
59.0921
58.1063
57.0794
56.1002
55.1509
54.2085
53.3291
52.5012
51.6979
51.0236
50.6193
51.3408
78.538
75.8047
71.6175
67.6046
64.5282
62.4898
61.1373
60.0671
59.0673
58.0865
57.0631
56.0864
55.1477
54.21
53.3288
52.5057
51.7032
51.0224
50.6
51.2944
79.0885
75.9037
71.4355
67.3915
64.4021
62.4698
61.1458
60.0428
59.0333
58.0581
57.0374
56.0654
55.1421
54.2119
53.3299
52.5183
51.7186
51.028
50.5754
51.1628
79.8457
76.0151
71.1687
67.1088
64.2594
62.4418
61.1426
60.0058
58.9905
58.0195
57.0056
56.0381
55.1334
54.2102
53.3326
52.5339
51.7443
51.0492
50.5552
50.9516
80.8298
76.1105
70.8037
66.7599
64.103
62.3962
61.1207
59.9593
58.938
57.9737
56.9681
56.0035
55.1244
54.2065
53.3357
52.5484
51.7819
51.0817
50.5671
50.6822
82.0793
76.1364
70.3266
66.3537
63.9303
62.3291
61.0789
59.9014
58.8783
57.9252
56.9323
55.9723
55.1139
54.2
53.3407
52.5586
51.8199
51.1181
50.6163
50.3913
83.6166
76.0725
69.7391
65.9302
63.7456
62.2412
61.0196
59.8459
58.8286
57.8859
56.9067
55.9518
55.1052
54.1969
53.3466
52.5662
51.8484
51.1492
50.6707
50.2401
85.5844
75.994
69.1347
65.5543
63.5794
62.1619
60.9731
59.815
58.8045
57.8667
56.8971
55.9479
55.1029
54.1992
53.3529
52.5733
51.8611
51.1689
50.6615
50.1517
88.6994
76.3474
68.965
65.4396
63.5207
62.1373
60.9635
59.8153
58.8082
57.8671
56.8996
55.9525
55.1038
54.2006
53.3572
52.5757
51.8634
51.1754
50.6624
50.2743
49.8524
49.8066
49.6045
49.3598
49.1612
48.9877
48.8552
48.742
48.6268
48.5682
48.5759
48.7033
49.0312
49.5543
50.2705
51.0618
51.6584
51.9658
51.849
51.1155
49.8498
48.1819
46.3911
44.6725
43.0994
41.8203
40.8595
40.2181
39.9339
39.9946
40.3925
41.1443
42.13
43.1869
44.2642
45.3029
46.1717
46.7785
47.1173
47.2897
47.3415
47.2827
47.1894
47.0573
46.9271
46.841
46.6353
46.2267
45.8166
45.4352
45.1427
45.0667
45.2206
45.5928
46.0387
46.6841
47.3275
47.9102
48.5127
48.7299
48.9774
49.1771
48.8827
48.7802
48.657
48.1708
47.8069
47.1413
46.1168
45.4889
44.7041
43.4932
42.6868
42.1166
41.2619
40.6766
40.4329
39.8668
39.3831
39.5131
39.6573
39.7981
40.4553
41.375
42.2306
43.314
44.83
46.3434
47.7432
49.2684
50.7554
51.8842
52.6216
53.158
53.384
52.9762
51.9594
50.5906
48.7341
46.2901
43.3278
40.0893
37.05
34.0822
31.0111
28.7125
26.7855
25.4104
24.965
24.766
24.9778
25.3818
26.02
26.6572
26.5866
26.2728
25.5997
24.3853
23.1277
21.7043
20.3029
19.1945
18.1192
17.4675
17.6608
18.1459
19.0724
20.6525
22.5071
24.7041
27.337
30.1725
33.2733
36.5247
39.8716
43.3502
46.7454
50.02
53.0873
56.0335
58.7002
60.942
63.1754
65.1397
66.7218
68.3301
69.8061
71.1435
72.3531
73.3081
74.2403
75.0644
75.672
76.1548
76.6815
77.1536
77.3331
77.4181
77.5533
77.574
77.4982
77.3395
77.0477
76.7532
76.3872
75.7279
74.7653
73.5828
71.9744
69.7468
66.4639
62.8821
59.0176
55.1582
51.2161
46.3699
42.8487
37.7886
36.361
31.3384
30.1545
25.7288
23.9108
22.4915
20.7812
20.7216
20.4418
21.8723
24.0184
27.5446
30.9992
35.1385
39.338
43.4242
48.4184
52.3977
58.0524
61.1956
66.6355
64.5832
49.5735
49.6031
49.5252
49.3517
49.1865
48.9917
48.827
48.7197
48.5979
48.5854
48.6466
48.8189
49.1749
49.6445
50.2408
50.8898
51.3931
51.6506
51.4756
50.7614
49.661
48.2002
46.5449
44.955
43.4527
42.2286
41.297
40.6223
40.3141
40.33
40.6807
41.3275
42.1877
43.1742
44.1828
45.1788
46.087
46.7381
47.1085
47.3193
47.3433
47.3258
47.3075
47.135
47.0615
46.9886
46.7591
46.5185
46.1358
45.7365
45.5686
45.4463
45.5313
45.9562
46.2916
46.814
47.4435
47.8502
48.4026
48.6767
48.7379
48.968
48.7481
48.4606
48.4813
48.1344
47.5758
47.1362
46.4195
45.6015
44.9532
44.0445
43.2283
42.8144
42.1814
41.5609
41.4128
41.2239
40.9303
41.0609
41.4132
41.7173
42.3201
43.3077
44.3461
45.4888
46.8908
48.4047
49.8699
51.1619
52.4903
53.7233
54.4439
54.8071
54.9331
54.4534
53.1521
51.3984
48.9578
45.8774
42.39
38.68
35.1081
31.9154
28.8237
26.2996
24.4661
23.1907
22.7813
22.8579
23.3732
24.2334
25.2441
25.9496
26.0669
25.7209
24.8002
23.4843
21.9237
20.2159
18.6481
17.2128
15.798
15.002
14.9208
15.2041
16.1039
17.6607
19.4956
21.8525
24.5971
27.5459
30.8338
34.2362
37.7491
41.4303
45.0764
48.6219
51.9991
55.151
58.027
60.6025
63.035
65.1077
66.9041
68.6471
70.1654
71.5449
72.8162
73.8272
74.7455
75.5702
76.1139
76.5912
77.0611
77.4563
77.6778
77.7398
77.7773
77.7857
77.632
77.3964
77.0678
76.732
76.2557
75.5331
74.5674
73.4759
71.9955
69.999
66.915
63.3507
59.6487
55.3388
52.2363
46.6007
44.2156
38.5945
37.0294
33.0067
30.4428
27.5725
24.7515
23.7449
21.9426
21.955
21.8823
23.3316
25.251
29.2258
31.8386
35.8731
38.5586
42.4838
45.3285
49.0664
51.9626
55.3203
56.4028
55.9801
49.6394
49.6218
49.5147
49.3578
49.2148
48.989
48.8347
48.7189
48.5648
48.5915
48.7042
48.9023
49.2931
49.6942
50.1717
50.6796
50.9899
51.1279
50.9367
50.3275
49.4128
48.173
46.7168
45.2703
43.8879
42.7127
41.8352
41.1787
40.8517
40.8585
41.103
41.6437
42.4172
43.2579
44.2481
45.2032
46.0081
46.7323
47.0739
47.2778
47.3873
47.2992
47.3738
47.2804
47.1458
47.1589
46.9476
46.7679
46.4978
46.0981
46.0215
45.9168
45.878
46.3519
46.6609
46.9362
47.6132
47.9776
48.2443
48.6611
48.7303
48.7229
48.7036
48.49
48.3324
48.0897
47.636
47.2212
46.6372
45.8997
45.3544
44.6965
43.9616
43.5003
43.0528
42.6247
42.5226
42.4806
42.3885
42.5558
42.9636
43.4545
44.135
45.1139
46.2246
47.4351
48.7499
50.13
51.6576
53.0759
54.3903
55.6449
56.4926
56.8465
56.8231
56.3309
54.8449
52.5149
49.57
45.9809
41.85
37.4929
33.44
29.8162
26.7263
24.0636
22.2495
21.2486
21.0077
21.3891
22.2663
23.5923
24.9211
25.7456
25.9881
25.5466
24.4871
23.0365
21.1434
19.1959
17.3505
15.5215
13.9912
12.9674
12.513
12.6477
13.487
14.8472
16.6357
19.0452
21.7583
24.8427
28.2929
31.851
35.547
39.3899
43.1495
46.8861
50.599
54.0693
57.2763
60.1652
62.8215
65.1049
67.067
68.9241
70.6011
72.0742
73.3646
74.3311
75.2609
76.0588
76.573
77.0278
77.5233
77.8238
77.9845
78.1427
78.0479
78.029
77.8835
77.6204
77.1368
76.7891
76.0156
75.4238
74.4056
73.3216
71.9991
70.0254
67.5347
63.5285
60.9713
55.7545
53.6756
47.7702
45.0459
40.4858
37.3143
34.5658
31.2528
29.2003
26.4868
25.4744
24.0627
24.1478
24.3803
25.6377
27.8944
31.4917
34.3762
37.3049
40.0561
43.0892
45.2498
48.9877
50.3304
53.3889
52.8975
53.3504
48.8695
49.0165
49.5038
49.6584
49.6798
49.3161
48.9375
48.7283
48.5234
48.5943
48.7458
48.9679
49.3683
49.6908
50.0344
50.4103
50.5704
50.623
50.4294
49.8689
49.1382
48.0905
46.8464
45.6333
44.3851
43.3371
42.5328
41.9136
41.5918
41.5073
41.6889
42.1258
42.7731
43.5417
44.423
45.3005
46.0005
46.683
47.0554
47.2484
47.4538
47.3414
47.4062
47.4721
47.2715
47.3197
47.2426
46.9885
46.8908
46.6353
46.4103
46.4501
46.4807
46.6647
47.0441
47.3471
47.7113
48.1196
48.3912
48.6172
48.7512
48.7568
48.7153
48.5673
48.3695
48.1415
47.7844
47.384
46.8505
46.3516
45.9113
45.245
44.6874
44.3428
43.969
43.7124
43.6007
43.5363
43.6623
43.9478
44.3896
45.0405
45.7702
46.6385
47.7265
48.9948
50.4057
51.8875
53.4298
54.9229
56.3409
57.7087
58.7858
59.3436
59.2685
58.4906
56.8501
54.1435
50.5336
46.2611
41.5868
36.6348
31.9969
27.8192
24.2553
21.5874
19.9006
19.2431
19.3522
20.0774
21.3977
23.1939
24.96
26.0195
26.2969
25.7764
24.5249
22.7634
20.7046
18.607
16.3745
14.3081
12.586
11.2985
10.6769
10.6115
11.243
12.4077
14.1101
16.4001
19.03
22.1214
25.6343
29.2975
33.1602
37.1907
41.0738
45.0027
49.0054
52.7787
56.3414
59.6262
62.5217
65.0604
67.3168
69.394
71.1553
72.6572
73.9304
74.9573
75.9055
76.6637
77.1349
77.5762
77.9678
78.2319
78.2776
78.4525
78.412
78.3717
78.1555
77.9142
77.3123
76.769
76.0914
75.2015
74.4663
72.8671
72.196
69.721
68.7202
64.0059
62.3237
57.0285
54.7095
49.9192
45.9131
42.3336
38.6717
36.1034
32.9786
31.2859
29.2497
28.2199
27.2189
27.2827
27.8752
29.457
31.1541
33.7594
36.3922
38.6197
41.1153
43.7534
45.7038
48.9707
50.3993
53.5122
53.3578
53.2407
48.5812
48.8801
49.7192
50.0261
50.0474
49.535
48.9871
48.7009
48.4719
48.5652
48.7048
48.9487
49.3422
49.6239
49.8876
50.1148
50.1665
50.1398
49.9109
49.4226
48.8515
47.9741
46.9754
45.9967
44.9022
44.046
43.3187
42.7469
42.4701
42.2776
42.3976
42.7432
43.244
43.9545
44.6711
45.4553
46.125
46.6476
47.1158
47.3288
47.4624
47.5075
47.4986
47.5768
47.5312
47.498
47.5099
47.3579
47.2433
47.139
46.9437
46.9503
47.0732
47.1176
47.4326
47.821
47.9417
48.3124
48.6764
48.6588
48.8267
48.9625
48.7523
48.647
48.571
48.2349
47.9316
47.6725
47.2098
46.8061
46.3691
45.7347
45.3786
45.1931
44.7829
44.5744
44.6197
44.607
44.8165
45.2256
45.6436
46.2517
47.0782
48.0203
49.1262
50.4348
51.867
53.3858
55.0263
56.7486
58.4596
60.0687
61.264
61.8641
61.9273
61.064
59.0502
55.9674
51.7936
46.827
41.3479
35.7951
30.6177
26.1552
22.2043
19.3368
17.9064
17.6125
18.0751
19.2096
20.9672
23.1085
25.2099
26.5561
26.8475
26.2342
24.8431
22.7869
20.6046
18.3726
15.8996
13.6643
11.632
10.1743
9.35058
9.00411
9.41708
10.3784
11.8722
14.01
16.5738
19.6128
23.1775
26.8821
30.8548
34.9759
38.979
43.2343
47.4612
51.4946
55.4789
59.1295
62.3735
65.2564
67.7324
69.9091
71.7714
73.3404
74.7038
75.7966
76.6775
77.4153
77.7684
78.1701
78.4509
78.5776
78.7072
78.7257
78.8738
78.6702
78.7489
78.0514
77.806
76.5554
76.2403
74.6788
74.4444
72.1657
72.3512
69.5366
69.2198
64.9001
62.9468
58.5186
55.3787
51.6341
47.2821
44.2542
40.796
38.456
35.7514
34.2382
32.3146
31.5196
30.4227
30.6672
30.9463
32.2632
33.5898
35.2572
37.1526
39.2695
41.3281
43.7313
45.4829
47.9171
49.6514
51.2042
51.7407
50.7452
48.6639
49.0007
49.9816
50.3347
50.1935
49.6473
48.9682
48.6138
48.4716
48.567
48.7357
48.9869
49.2905
49.5342
49.7063
49.7793
49.8245
49.7097
49.4744
49.1114
48.5897
47.9029
47.1112
46.307
45.4659
44.7168
44.0966
43.6099
43.3032
43.1298
43.1681
43.4319
43.8543
44.4101
45.0203
45.6917
46.267
46.7328
47.1926
47.4188
47.5408
47.6769
47.6564
47.7276
47.8176
47.7478
47.8027
47.7774
47.617
47.6225
47.5332
47.4217
47.5979
47.6658
47.8114
48.2099
48.3235
48.538
48.9323
48.9184
48.9775
49.1676
48.9147
48.773
48.758
48.3361
48.0948
48.0008
47.5049
47.0889
46.8516
46.3506
45.9842
45.8314
45.4906
45.3845
45.5632
45.6314
45.8257
46.2659
46.7557
47.3503
48.2176
49.2583
50.3254
51.5665
53.0791
54.8244
56.733
58.6329
60.4284
62.2149
63.7791
64.6324
64.7138
63.8615
61.6278
58.1209
53.3047
47.4414
41.0345
34.6964
29.2226
24.6928
20.9217
18.2463
17.0937
17.0192
17.6887
19.0739
21.1194
23.5605
25.8018
27.1862
27.4291
26.7619
25.2965
23.1221
20.8451
18.4519
15.9087
13.5151
11.3614
9.69596
8.43974
7.96594
8.15984
8.82405
10.0987
12.1302
14.5338
17.5098
21.0846
24.7655
28.757
32.9613
37.1687
41.6549
46.077
50.3826
54.6857
58.7197
62.306
65.4652
68.2088
70.6423
72.5603
74.2083
75.6365
76.7545
77.6239
78.2123
78.5612
78.7682
79.0741
78.7611
79.2727
78.6924
79.5318
78.7047
79.38
78.1279
78.1167
76.3592
76.2045
74.3091
74.2519
71.9721
71.8663
69.5628
68.4108
65.099
62.6355
59.186
55.7227
52.8127
48.9803
46.6003
43.3965
41.4527
38.8531
37.3672
35.3717
34.4332
33.1947
33.1201
33.1124
33.5142
35.1775
36.19
37.9964
39.6924
41.59
43.4091
44.9462
46.8702
48.58
49.251
49.9518
49.4502
49.1754
49.3955
49.9088
49.9287
49.6608
49.3831
48.8565
48.5167
48.5341
48.6373
48.82
49.0519
49.2301
49.443
49.5409
49.4966
49.5637
49.3837
49.1068
48.8785
48.385
47.8552
47.2825
46.6006
45.9763
45.3123
44.7773
44.4139
44.0727
43.9362
43.9441
44.0927
44.4638
44.8416
45.3607
45.9905
46.4246
46.8803
47.3384
47.5184
47.7006
47.8601
47.8262
47.9659
48.0673
47.993
48.1359
48.1583
47.9912
48.1085
48.0887
47.9064
48.1192
48.2104
48.2038
48.574
48.7295
48.7812
49.1442
49.2473
49.1565
49.285
49.2176
48.9581
48.8565
48.6462
48.3406
48.1287
47.7477
47.407
47.2586
46.8939
46.5223
46.4262
46.2741
46.1475
46.2742
46.4369
46.7087
47.2067
47.8044
48.4199
49.1512
50.1454
51.3209
52.7021
54.3103
56.0743
58.0581
60.1817
62.3344
64.4311
66.212
67.3061
67.5988
66.8913
64.5416
60.3945
54.8191
48.0118
40.722
33.6805
27.8264
23.339
19.9312
17.8323
17.1638
17.3712
18.1949
19.6869
21.8208
24.4984
26.5319
27.7388
27.9505
27.2812
25.772
23.6358
21.3556
18.7351
16.0172
13.4761
11.1706
9.25105
7.95276
7.10133
6.95587
7.41596
8.57167
10.4702
12.6229
15.5473
19.0956
22.6426
26.7376
31.0186
35.2771
40.0316
44.6864
49.2252
53.9127
58.2162
62.2374
65.8597
68.8909
71.43
73.4554
75.2105
76.697
77.7923
78.726
78.9679
79.6457
79.0792
79.8953
78.7843
79.8461
78.6581
79.6238
78.7023
79.2121
78.066
78.0455
76.3113
76.076
74.3902
73.7901
72.1167
70.7934
69.1016
67.231
64.5264
62.1305
59.5601
56.4769
54.3123
51.1071
49.2306
46.1226
44.2507
41.783
40.0002
38.0894
36.8536
35.7419
35.1268
35.342
35.1631
36.628
37.3706
38.6387
40.0418
41.3659
42.9898
44.218
45.5782
47.0226
47.7431
48.3536
48.2177
51.7045
51.301
50.1182
49.0302
48.37
48.2813
48.2699
48.3003
48.5586
48.7346
48.9246
49.1305
49.2246
49.3769
49.4013
49.2606
49.3375
49.1348
48.8312
48.7418
48.2621
47.8278
47.4403
46.8346
46.4011
45.8451
45.3744
45.1344
44.7629
44.6162
44.6351
44.7096
45.0169
45.3027
45.7448
46.3184
46.6215
47.0383
47.4965
47.6276
47.8608
48.0453
48.0377
48.2354
48.3167
48.2971
48.5043
48.4953
48.4098
48.5589
48.5205
48.4269
48.5817
48.6573
48.7025
48.9461
49.0784
49.1806
49.4072
49.4756
49.4255
49.4371
49.3963
49.1959
49.0476
48.8987
48.5683
48.3384
48.1044
47.789
47.5407
47.2452
47.08
47.0432
46.8993
46.8235
46.9552
47.1856
47.5445
48.0424
48.6381
49.2578
49.9937
50.9951
52.1634
53.5151
55.1456
56.9897
59.143
61.5325
63.8848
66.2077
68.4342
70.0142
70.4511
69.5695
67.0543
62.5234
56.1925
48.6494
40.5028
33.0261
27.0094
22.5616
19.438
17.7731
17.5265
18.0446
19.1293
20.9525
23.0633
25.0951
27.2257
28.3753
28.3626
27.5592
26.0897
24.0408
21.6424
18.8935
16.0497
13.3057
10.7765
8.59052
6.94444
5.908
5.63834
5.8574
6.92276
8.5696
10.6042
13.6288
16.9537
20.5215
24.7864
29.0458
33.5416
38.5424
43.3058
48.1318
53.2104
57.8832
62.2353
66.252
69.5623
72.331
74.5433
76.3866
77.9954
78.714
80.1948
79.5557
80.9789
79.5011
80.3555
79.3137
79.8755
79.1
79.1753
78.4306
78.468
77.3288
77.4204
75.9764
75.7115
74.2809
73.15
71.8987
70.1765
68.5547
66.6333
64.5924
62.4134
60.4927
58.0545
56.0828
53.2591
51.4695
48.4574
46.5811
44.1307
42.2702
40.5569
39.0146
38.0523
37.3527
37.2659
36.9617
37.8878
38.3839
39.0821
40.3012
41.144
42.6303
43.5732
44.7211
45.9713
46.382
46.8006
46.6815
52.4587
51.9062
50.14
48.5975
47.8348
47.8546
48.024
48.2902
48.6008
48.8573
49.0631
49.2203
49.2807
49.349
49.2921
49.1465
49.1677
48.9414
48.6672
48.6009
48.186
47.8458
47.5636
47.0776
46.7597
46.2758
45.8777
45.7336
45.3678
45.2127
45.3015
45.292
45.5152
45.7709
46.0877
46.6047
46.865
47.2182
47.6917
47.8194
48.0329
48.2649
48.2755
48.4666
48.595
48.6024
48.8081
48.848
48.8278
48.9761
48.9576
48.9256
49.0264
49.0806
49.1886
49.2901
49.4018
49.5997
49.665
49.742
49.8028
49.6445
49.5847
49.513
49.2218
49.048
48.8735
48.6418
48.4553
48.1591
47.8677
47.6601
47.4917
47.3692
47.3502
47.4526
47.6941
47.9457
48.2767
48.7775
49.3211
49.9816
50.7714
51.6403
52.635
53.9612
55.6969
57.6207
59.7524
62.2711
64.9869
67.7915
70.2263
71.9222
72.5843
71.7082
68.9693
64.1288
57.1669
49.0073
40.656
33.0535
27.1881
22.9299
19.9991
18.4773
18.541
19.1698
20.3756
22.1138
24.2622
26.2691
27.6384
28.4891
28.5746
27.7477
26.252
24.2665
21.7942
18.936
16.0317
13.1079
10.3174
7.9216
6.07488
4.84706
4.33342
4.49192
5.39963
6.76017
8.88842
11.8096
14.9888
18.7561
23.0968
27.3291
32.0254
37.3083
42.1846
47.3353
52.7567
57.6094
62.2798
66.8624
70.4102
73.4023
75.8173
77.5314
79.4998
79.6677
81.7881
80.4572
81.568
80.3525
80.4812
80.0061
79.8805
79.233
78.7419
77.9226
77.5735
76.4212
76.1911
74.8855
74.846
73.646
72.6818
71.599
70.3698
68.9792
67.0515
65.7689
63.4438
61.9546
59.7903
57.4935
55.1546
53.2122
50.2939
48.5975
46.2412
44.3786
42.9631
41.143
40.1836
39.3301
38.8313
38.7606
38.9924
39.2435
39.7516
40.6956
41.2874
42.4614
43.3867
44.0473
44.9957
45.376
45.5384
45.3628
52.675
52.2858
50.4508
48.7384
47.7854
47.5725
47.7378
48.1665
48.5452
48.8608
49.1499
49.2538
49.3027
49.3386
49.2003
49.0825
49.0425
48.7774
48.5811
48.4913
48.1477
47.8957
47.677
47.2926
47.0227
46.6558
46.3096
46.2472
45.9343
45.724
45.8867
45.8383
45.9535
46.2321
46.4491
46.9019
47.1635
47.4074
47.8865
48.0363
48.2022
48.4897
48.5451
48.7239
48.895
48.912
49.1113
49.2133
49.1935
49.3662
49.3656
49.3379
49.4888
49.5064
49.6103
49.7421
49.7864
49.977
50.0373
50.0075
50.0754
49.9476
49.8595
49.8111
49.4976
49.2777
49.1561
48.8838
48.6213
48.4463
48.2733
48.0433
47.8589
47.7422
47.7652
47.9193
48.1979
48.5548
48.9495
49.5164
50.0215
50.5783
51.2619
52.095
53.0293
54.1522
55.7308
57.6084
59.8447
62.4945
65.401
68.3944
71.1452
72.9023
73.5343
72.8344
69.984
64.8272
57.6981
49.1519
40.6823
33.4256
28.002
24.2826
21.6992
20.3446
20.1202
20.598
21.8488
23.5442
25.1651
26.6076
27.9719
28.5596
28.3894
27.566
26.1969
24.2576
21.7966
19.0355
16.0714
12.9616
10.0514
7.50105
5.39393
4.0503
3.40926
3.37513
4.07055
5.45055
7.51598
10.2083
13.5055
17.396
21.6662
25.9842
31.0526
36.3421
41.3813
46.9625
52.5389
57.5568
62.7598
67.5879
71.3274
74.5039
77.1899
78.7307
81.081
81.1004
82.9227
81.6074
81.4595
80.5189
80.4935
80.1806
79.6759
78.8698
78.2172
77.3658
76.5786
75.731
74.7507
73.5936
73.6724
72.9839
72.5101
71.8453
71.1238
70.081
68.1949
67.4201
64.8082
63.5255
61.4056
58.6989
56.9267
54.5693
52.0113
50.4709
47.9588
46.247
44.7819
42.8708
41.9682
41.1813
40.2633
40.2256
40.1189
40.225
40.6617
41.1748
41.6497
42.4125
42.9269
43.2795
44.1793
44.4049
44.5073
44.4585
52.9908
52.5592
50.651
48.8202
47.7314
47.3947
47.5423
48.0861
48.4928
48.8183
49.1879
49.2584
49.3162
49.3283
49.1237
49.0507
48.9366
48.6652
48.5379
48.4212
48.1452
47.939
47.7807
47.4937
47.2732
46.9892
46.7273
46.674
46.4088
46.2231
46.3591
46.3656
46.4092
46.6147
46.8584
47.2085
47.4209
47.6807
48.1036
48.2646
48.4443
48.7067
48.7971
49.002
49.1519
49.1967
49.4471
49.5327
49.5475
49.7783
49.7657
49.7638
49.9624
49.9454
50.029
50.2143
50.1711
50.3074
50.4529
50.3364
50.3847
50.3253
50.154
50.0589
49.8637
49.6435
49.4077
49.1303
48.8467
48.6188
48.422
48.2395
48.1924
48.2092
48.1784
48.3239
48.5964
49.0191
49.5477
50.1469
50.5968
51.0408
51.7099
52.342
53.156
54.0446
55.3993
57.2007
59.288
61.8432
64.8155
67.9804
70.7329
72.5987
73.0189
72.2219
69.424
64.4268
57.5392
49.4608
41.0696
34.1793
29.2461
25.9956
23.8213
22.5661
22.2291
22.5268
23.2518
24.4883
25.8666
27.1142
27.8489
28.182
28.0026
27.227
25.8986
24.0777
21.7062
19.1229
16.1025
12.9803
10.013
7.34768
5.16045
3.69416
2.90893
2.78521
3.33076
4.57003
6.54614
9.27873
12.569
16.4378
20.7096
25.305
30.557
35.7685
41.0936
46.9657
52.6752
57.9143
63.4583
68.41
72.3733
75.6506
78.7098
80.1559
82.5109
82.8893
83.2481
81.8447
81.127
79.939
80.0923
79.7126
79.2356
78.3597
78.1179
77.1898
76.2662
75.5041
74.4917
73.71
73.6669
73.431
73.1609
72.8639
72.3179
71.4151
69.4597
68.8621
66.1403
64.9112
62.848
59.9479
58.5676
55.7641
53.5968
51.9452
49.2385
47.8226
46.1796
44.4096
43.6178
42.8192
41.6812
41.647
41.1866
40.9814
41.5335
41.5175
41.6654
42.2288
42.6143
42.8714
43.4932
43.5751
43.7279
43.6696
53.0677
52.6217
50.6697
48.8724
47.7822
47.3829
47.4949
48.0657
48.4889
48.7898
49.1845
49.2695
49.3125
49.298
49.0745
49.0279
48.8701
48.5992
48.511
48.3983
48.1505
47.9921
47.875
47.6725
47.4949
47.2475
47.1057
47.0494
46.8148
46.6962
46.8094
46.8329
46.8416
46.9986
47.2466
47.5236
47.7173
47.9527
48.3136
48.5118
48.6746
48.9259
49.0754
49.2594
49.4278
49.5276
49.7464
49.8746
49.9182
50.1275
50.1947
50.1853
50.357
50.4102
50.4689
50.6255
50.6285
50.7254
50.8648
50.7786
50.7806
50.7059
50.4775
50.3032
50.1168
49.8579
49.6511
49.4913
49.1887
48.8899
48.6044
48.4187
48.3049
48.3967
48.4209
48.6398
49.0746
49.3751
49.9805
50.5618
51.1303
51.5294
51.9845
52.445
52.9005
53.8336
54.9213
56.2918
58.1788
60.6223
63.2573
66.2793
69.1102
70.8064
71.3163
70.1308
67.3352
62.9734
56.9722
49.8376
42.399
35.9536
31.3301
28.2243
26.1631
24.8348
24.1708
24.065
24.3688
24.9991
25.866
26.7402
27.3965
27.5679
27.3703
26.6693
25.4678
23.784
21.6536
19.2232
16.3204
13.3068
10.3117
7.61346
5.39717
3.84522
2.9869
2.73293
3.13174
4.34171
6.27227
8.91041
12.1922
16.1971
20.4955
25.2324
30.5135
35.8773
41.5298
47.5483
53.0992
58.7316
64.5091
69.4987
73.6218
76.884
80.229
81.7531
83.614
83.9688
82.8708
80.8332
80.6879
79.3972
79.7904
79.2156
78.8146
78.404
78.4963
77.7436
76.9625
76.3071
75.3964
75.671
75.2301
75.2241
74.7927
74.4404
73.4831
72.5517
70.7156
69.9899
67.1428
66.0771
63.9215
61.1225
60.0099
56.7387
55.0087
53.1556
50.3664
49.3695
47.5376
45.8723
45.0686
44.0368
42.9116
42.8898
42.2236
41.5738
42.0048
41.7277
41.7148
42.2956
42.3296
42.4603
42.9234
42.9457
43.1582
42.9675
53.0911
52.5757
50.5752
48.9047
47.8439
47.3995
47.5769
48.131
48.5552
48.8449
49.1809
49.284
49.3008
49.2325
49.0295
48.9723
48.8153
48.5545
48.5064
48.3992
48.1873
48.0778
47.9532
47.8734
47.7002
47.4665
47.4661
47.3892
47.1779
47.1491
47.2114
47.2396
47.2743
47.38
47.6017
47.8611
48.0191
48.2268
48.5715
48.766
48.9201
49.1754
49.3303
49.508
49.7092
49.8265
50.034
50.2098
50.2808
50.4773
50.6096
50.6076
50.7716
50.8979
50.9147
51.059
51.1353
51.162
51.2601
51.2182
51.1515
51.0717
50.9086
50.6801
50.3966
50.1053
49.8363
49.6738
49.3798
49.1459
48.9056
48.6944
48.4931
48.4293
48.577
48.7545
49.3417
49.7653
50.3561
50.9445
51.2511
51.7639
52.1306
52.5799
52.8121
53.2299
54.2683
55.2828
56.6163
58.7515
61.3944
64.1392
66.5113
67.6845
67.5578
66.3146
63.9342
60.4518
55.8488
50.3035
44.3486
38.8991
34.6089
31.4562
29.1018
27.4134
26.2243
25.4114
24.9236
24.8667
25.2186
26.1737
26.8107
26.9442
26.733
26.0602
25.0342
23.5237
21.6413
19.3957
16.823
13.8231
10.9535
8.38382
6.11927
4.54336
3.66189
3.26159
3.56545
4.74783
6.6588
9.25351
12.5047
16.4974
20.9903
25.8331
31.1008
36.6157
42.5676
48.6432
54.1512
60.0783
65.908
70.7584
75.1112
78.105
81.5055
82.9922
84.1773
83.6
81.6383
79.0117
80.1527
79.2849
79.7939
79.6302
79.2924
79.465
79.5843
79.2864
78.686
78.4831
77.426
77.8185
77.0293
77.2439
76.3805
75.6319
74.5191
73.3449
71.7096
70.7991
67.9182
67.0825
64.5764
62.0826
61.1144
57.5774
56.3536
54.241
51.6337
50.786
48.6706
47.2054
46.3198
45.0593
43.975
43.7762
42.9736
42.2566
42.5784
41.9668
41.7161
42.1566
41.8966
42.2235
42.5283
42.1568
42.496
42.4343
52.8842
52.3738
50.4392
48.9313
47.9815
47.6157
47.8355
48.2928
48.6787
48.9329
49.1599
49.265
49.2373
49.1416
48.9794
48.9032
48.7615
48.5558
48.5134
48.4115
48.2635
48.1527
48.0572
48.0397
47.8731
47.7157
47.758
47.6787
47.5381
47.5374
47.5774
47.629
47.6785
47.755
47.9654
48.1915
48.3254
48.5413
48.8253
49.002
49.1866
49.404
49.5678
49.7769
49.9713
50.1213
50.3414
50.525
50.6527
50.8512
50.984
51.0556
51.2024
51.3056
51.3719
51.4959
51.567
51.604
51.6823
51.6323
51.5309
51.4343
51.2232
50.9838
50.7353
50.4909
50.1805
49.8635
49.5028
49.1761
48.9728
48.8051
48.7873
48.7287
48.7441
48.8863
49.3111
49.9186
50.5454
51.2634
51.5596
51.8244
52.2336
52.4205
52.6946
53.0037
53.4596
54.4287
55.6987
57.5182
59.7927
62.0381
63.6794
63.99
62.9995
61.456
59.3186
57.086
54.4831
51.1566
47.0295
42.8135
39.0205
35.7163
32.8801
30.3524
28.1087
26.2933
25.0644
24.5274
24.8403
25.8135
26.6291
26.6191
26.2624
25.6985
24.6704
23.3481
21.6628
19.6954
17.3612
14.5693
12.065
9.58855
7.31945
5.83871
4.90041
4.4107
4.67415
5.74798
7.60801
10.2629
13.5949
17.4902
21.8765
26.8531
32.3797
38.038
44.0872
50.0862
55.7266
61.711
67.7036
72.3344
76.5202
79.6136
82.1428
83.316
83.808
82.1033
80.2102
77.8462
80.087
80.0781
80.5878
81.3796
80.8216
81.7204
81.4574
81.544
80.4651
80.6625
79.3295
79.4135
78.2552
78.1915
77.2643
76.2602
75.1873
73.7295
72.4988
71.1991
68.4684
67.8996
64.9495
63.1243
61.8899
58.4165
57.624
54.9989
52.8882
51.9601
49.5776
48.3921
47.4224
46.0424
45.0458
44.5208
43.3993
42.7162
42.9925
42.1283
41.8203
42.1201
41.3925
41.7196
41.9163
41.554
42.0352
41.8509
52.4319
51.9485
50.2679
48.9956
48.24
47.9724
48.1871
48.5338
48.8275
49.0313
49.1538
49.2021
49.1582
49.0484
48.9245
48.8501
48.7136
48.5765
48.5205
48.4233
48.3323
48.238
48.1708
48.1602
48.0506
47.9574
47.9946
47.9615
47.8733
47.8881
47.9361
47.9729
48.036
48.1368
48.2955
48.4927
48.6601
48.8326
49.0718
49.2635
49.4275
49.6346
49.826
50.0224
50.2232
50.4172
50.6101
50.8035
50.9937
51.1682
51.3311
51.4674
51.5764
51.6908
51.7975
51.8835
51.9642
52.0146
52.0252
52.0113
51.9363
51.7676
51.507
51.186
50.887
50.6189
50.3944
50.1307
49.7958
49.4071
49.0864
48.8797
48.8042
48.8442
48.8835
49.0781
49.4815
50.0235
50.6785
51.3206
51.6925
51.8834
52.234
52.5363
52.7159
52.9973
53.4671
54.2009
55.4004
57.1559
59.1502
60.7538
61.3665
60.5591
58.3592
55.7683
54.3975
53.7262
53.3084
52.3177
50.2433
47.3457
44.1151
40.6691
37.0061
33.2251
29.7042
26.9675
25.2744
24.5975
24.8728
26.0316
27.0607
26.7239
26.1899
25.4988
24.3514
23.1455
21.6229
19.9891
17.9008
15.6278
13.4783
11.0981
9.07392
7.76624
6.72422
6.10256
6.34568
7.3627
9.08264
11.6922
15.0385
18.9827
23.4532
28.4661
33.9326
39.7253
46.006
52.1032
57.7648
63.5204
69.7134
74.3217
77.7182
82.1531
81.9384
83.1515
82.0101
79.8431
79.081
78.6432
81.2676
82.2112
82.116
83.3217
83.1462
83.8322
83.267
83.5165
81.8198
82.0674
80.4444
80.2147
79.0302
78.3789
77.4405
76.5225
75.4236
73.8542
73.0917
71.3215
69.0384
68.464
65.3281
64.1838
62.3255
59.2434
58.632
55.6629
53.85
52.7488
50.4921
49.283
48.2617
46.9896
45.9207
45.3944
44.109
42.9404
42.8826
42.1949
42.0346
42.0456
41.0408
41.3709
41.1406
40.7008
41.3595
41.174
51.5966
51.2484
50.0888
49.1767
48.6524
48.4874
48.6125
48.817
48.9859
49.0974
49.1369
49.142
49.0776
48.9637
48.8682
48.7839
48.6786
48.5974
48.5407
48.4565
48.3948
48.3369
48.2765
48.2632
48.2088
48.168
48.2052
48.1808
48.1591
48.1978
48.221
48.2763
48.3644
48.4585
48.5985
48.7732
48.9309
49.096
49.2995
49.4731
49.6416
49.8413
50.0218
50.2278
50.4436
50.6413
50.8551
51.0589
51.2614
51.4558
51.6172
51.7638
51.88
51.9799
52.0904
52.1854
52.2547
52.2891
52.2834
52.2273
52.1324
51.9744
51.7398
51.4401
51.1165
50.7976
50.5132
50.221
49.8758
49.5382
49.2512
49.0494
48.9515
48.9738
49.0132
49.1882
49.5677
50.089
50.7791
51.3906
51.7834
52.0507
52.3069
52.63
52.9964
53.2744
53.843
54.7777
56.0433
57.6938
59.3257
60.2416
59.9158
58.0633
54.8642
51.7699
50.6007
51.5781
52.7106
53.522
53.024
51.2388
48.4805
44.8303
40.3926
35.5598
31.0845
27.692
25.6541
24.8085
25.072
26.3257
27.5625
27.3647
26.4929
25.2745
23.973
22.7489
21.5365
20.2255
18.5362
16.734
14.9209
13.0147
11.3166
10.0395
8.98138
8.25336
8.39736
9.43271
11.1925
13.702
16.858
20.7039
25.1407
30.2589
35.9573
41.8705
48.1228
54.3436
59.9761
65.753
71.708
76.5274
78.7637
85.0342
81.4802
84.4536
80.2532
78.2901
79.5873
81.069
83.193
84.1496
84.0683
84.7444
84.9559
85.1109
84.3057
84.2355
82.6374
82.6163
81.0136
80.3844
79.4245
78.4768
77.4532
76.6798
75.5304
74.0818
73.4635
71.4597
69.7606
68.7892
65.8117
64.9508
62.6502
60.1502
59.1002
56.3324
54.7497
53.1403
51.4748
50.0084
48.8517
48.035
46.6493
45.9776
44.8767
43.5107
43.1592
42.2568
41.6761
41.4605
40.9123
41.2848
40.3701
39.9012
40.4812
40.007
50.73
50.545
49.9853
49.488
49.1861
49.0516
49.0445
49.0758
49.1058
49.1336
49.1136
49.0747
49.009
48.9105
48.8294
48.7516
48.6664
48.6085
48.5569
48.4792
48.4444
48.4119
48.3561
48.3514
48.341
48.334
48.3599
48.3631
48.3813
48.42
48.4476
48.5089
48.6008
48.6977
48.8226
48.9759
49.1304
49.2918
49.4654
49.6277
49.7992
49.9853
50.1729
50.3855
50.6011
50.8093
51.0184
51.2201
51.4331
51.6361
51.804
51.9564
52.0781
52.1722
52.2791
52.3681
52.417
52.444
52.4288
52.3567
52.2485
52.0815
51.8358
51.5397
51.2318
50.9288
50.637
50.3373
49.9942
49.6591
49.3762
49.1806
49.0864
49.0817
49.1463
49.3282
49.6891
50.2479
50.8839
51.3728
51.78
52.1546
52.4975
52.8332
53.1755
53.7581
54.563
55.7225
57.1722
58.7939
60.0996
60.482
59.5494
57.0851
53.2703