/*--------------------------------*- C++ -*----------------------------------*\
| =========                 |                                                 |
| \\      /  F ield         | OpenFOAM: The Open Source CFD Toolbox           |
|  \\    /   O peration     | Version:  2.4.0                                 |
|   \\  /    A nd           | Web:      www.OpenFOAM.org                      |
|    \\/     M anipulation  |                                                 |
\*---------------------------------------------------------------------------*/
FoamFile
{
    version     2.0;
    format      ascii;
    class       volVectorField;
    location    "0.52";
    object      U_0;
}
// * * * * * * * * * * * * * * * * * * * * * * * * * * * * * * * * * * * * * //

dimensions      [0 1 -1 0 0 0 0];

internalField   nonuniform List<vector> 
8800
(
(8.09155 0.387973 0)
(5.44938 0.242415 0)
(3.91286 0.0429636 0)
(3.1556 -0.0152254 0)
(2.80269 -0.0185759 0)
(2.59689 -0.0108914 0)
(2.4849 -0.00534806 0)
(2.37872 -0.00279942 0)
(2.32218 -0.00156333 0)
(2.24616 0.000185243 0)
(2.21933 -0.00143411 0)
(2.16413 -0.000159608 0)
(2.1479 0.000470809 0)
(2.09379 0.000416851 0)
(2.08171 -0.000219604 0)
(2.0303 0.00182993 0)
(2.00389 0.00102247 0)
(1.9503 0.000137514 0)
(1.93382 0.00819314 0)
(1.73133 -0.0567335 0)
(10.0839 0.838855 0)
(9.6568 0.867041 0)
(8.87555 0.507052 0)
(8.07825 0.262406 0)
(7.50006 0.137008 0)
(7.00131 0.0828174 0)
(6.70018 0.054717 0)
(6.39706 0.0394724 0)
(6.23124 0.0299241 0)
(6.01328 0.0265189 0)
(5.9399 0.016367 0)
(5.7672 0.0175827 0)
(5.73057 0.0166233 0)
(5.58514 0.0164904 0)
(5.56198 0.0128517 0)
(5.42426 0.0205864 0)
(5.39187 0.0200113 0)
(5.25228 0.015762 0)
(5.22867 0.0307185 0)
(5.01144 -0.0161355 0)
(10.0622 0.632336 0)
(10.6554 0.860951 0)
(10.8761 0.602844 0)
(10.6828 0.3743 0)
(10.4696 0.25372 0)
(10.0785 0.198796 0)
(9.84202 0.153562 0)
(9.49319 0.12101 0)
(9.32289 0.0954586 0)
(9.01844 0.0792586 0)
(8.94632 0.0551512 0)
(8.68271 0.0534226 0)
(8.6535 0.045174 0)
(8.43172 0.0427098 0)
(8.4262 0.0357297 0)
(8.20873 0.0452552 0)
(8.2087 0.0453935 0)
(7.99101 0.0427423 0)
(7.985 0.0549482 0)
(7.73205 0.000442492 0)
(10.0096 0.460355 0)
(10.5579 0.700979 0)
(11.1831 0.546737 0)
(11.3578 0.354063 0)
(11.5699 0.257932 0)
(11.455 0.230985 0)
(11.4972 0.200338 0)
(11.2964 0.17366 0)
(11.3094 0.150206 0)
(11.059 0.130558 0)
(11.1017 0.0988943 0)
(10.8415 0.0960395 0)
(10.8891 0.0832856 0)
(10.6425 0.0769122 0)
(10.7003 0.0653144 0)
(10.4422 0.0810599 0)
(10.4982 0.0676993 0)
(10.2432 0.0887562 0)
(10.2772 0.0677208 0)
(9.94362 0.120228 0)
(10.0592 0.346939 0)
(10.3783 0.562881 0)
(11.0778 0.467284 0)
(11.298 0.294379 0)
(11.6644 0.203053 0)
(11.6655 0.198986 0)
(11.8958 0.177206 0)
(11.8005 0.165994 0)
(12.0078 0.150469 0)
(11.8735 0.138842 0)
(12.0634 0.10204 0)
(11.8975 0.113918 0)
(12.0674 0.0911456 0)
(11.903 0.098028 0)
(12.039 0.0733606 0)
(11.8621 0.111529 0)
(11.9704 0.0726277 0)
(11.7887 0.121821 0)
(11.8874 0.0812375 0)
(11.5451 0.182319 0)
(10.1157 0.26195 0)
(10.2781 0.441114 0)
(10.9054 0.374273 0)
(11.1928 0.259352 0)
(11.5266 0.153348 0)
(11.5823 0.154913 0)
(11.8338 0.147117 0)
(11.7975 0.135333 0)
(11.9968 0.121952 0)
(11.9828 0.121176 0)
(12.1566 0.0843556 0)
(12.1224 0.0962434 0)
(12.287 0.0826514 0)
(12.2832 0.0837212 0)
(12.4016 0.0700101 0)
(12.387 0.0990486 0)
(12.4667 0.0835382 0)
(12.4491 0.0899696 0)
(12.5516 0.099364 0)
(12.3466 0.112512 0)
(9.98875 0.167736 0)
(10.3359 0.363511 0)
(10.7001 0.283853 0)
(11.1645 0.205069 0)
(11.3915 0.127892 0)
(11.5717 0.112369 0)
(11.6613 0.105574 0)
(11.7725 0.114999 0)
(11.8212 0.0923758 0)
(11.9294 0.0948087 0)
(12.0559 0.0634424 0)
(12.1087 0.0802685 0)
(12.202 0.0514447 0)
(12.2889 0.0639523 0)
(12.3525 0.0520406 0)
(12.4442 0.0835467 0)
(12.4485 0.0587485 0)
(12.5508 0.0670244 0)
(12.5469 0.069371 0)
(12.5709 0.0828711 0)
(10.0258 0.126564 0)
(10.1853 0.23667 0)
(10.7394 0.198992 0)
(11.0242 0.155788 0)
(11.3142 0.0801816 0)
(11.5258 0.0902254 0)
(11.5989 0.084027 0)
(11.7175 0.0805786 0)
(11.803 0.0696919 0)
(11.904 0.0598776 0)
(11.9713 0.0346417 0)
(12.0427 0.0562619 0)
(12.1603 0.0436268 0)
(12.2007 0.0423802 0)
(12.2705 0.0292298 0)
(12.3488 0.0697502 0)
(12.4353 0.0494424 0)
(12.397 0.0286846 0)
(12.5252 0.0318209 0)
(12.4485 0.0457311 0)
(9.99913 0.0674606 0)
(10.3095 0.154162 0)
(10.579 0.100394 0)
(10.9645 0.108211 0)
(11.2981 0.0511357 0)
(11.4494 0.0464287 0)
(11.5805 0.0501831 0)
(11.6702 0.0433993 0)
(11.7818 0.0381962 0)
(11.8143 0.0423288 0)
(11.9179 0.0320867 0)
(11.9992 0.028379 0)
(12.0805 0.0196165 0)
(12.1558 0.0310593 0)
(12.2472 0.0186407 0)
(12.29 0.0286769 0)
(12.4162 0.0332451 0)
(12.3958 0.0146908 0)
(12.4077 -0.00747352 0)
(12.4231 0.00668632 0)
(9.97086 0.0207742 0)
(10.259 0.037562 0)
(10.5972 0.0607482 0)
(10.9322 0.0156748 0)
(11.282 0.00891941 0)
(11.4076 0.0326376 0)
(11.548 0.0229756 0)
(11.669 0.00748931 0)
(11.717 0.0238573 0)
(11.8077 0.0158192 0)
(11.9063 -0.00848478 0)
(12.0104 0.00835065 0)
(12.0674 0.0158983 0)
(12.1266 -0.00512339 0)
(12.2366 -0.00479477 0)
(12.2934 0.0164587 0)
(12.3018 0.0143015 0)
(12.435 -0.00813406 0)
(12.3665 -0.0247888 0)
(12.35 -0.0235784 0)
(10.0392 -0.0211678 0)
(10.2014 -0.0464705 0)
(10.5837 -0.0515598 0)
(10.9884 -0.0259919 0)
(11.2133 -0.0133797 0)
(11.448 -0.00465715 0)
(11.5626 -0.0208134 0)
(11.6366 -0.0223069 0)
(11.7531 -0.00926597 0)
(11.8354 -0.0143918 0)
(11.896 -0.0186143 0)
(11.9859 -0.0130327 0)
(12.0782 -0.00319348 0)
(12.121 -0.0147779 0)
(12.2057 -0.0232127 0)
(12.273 0.000200196 0)
(12.3418 -0.0185959 0)
(12.3912 -0.0302691 0)
(12.4637 -0.0424165 0)
(12.2154 -0.0573947 0)
(9.96841 -0.0669246 0)
(10.2554 -0.149931 0)
(10.64 -0.117206 0)
(10.997 -0.103358 0)
(11.2617 -0.0520377 0)
(11.4706 -0.039859 0)
(11.562 -0.0319215 0)
(11.6893 -0.060675 0)
(11.7445 -0.0398627 0)
(11.8195 -0.0298122 0)
(11.9461 -0.0429499 0)
(12.0125 -0.0397024 0)
(12.058 -0.0132617 0)
(12.1916 -0.036685 0)
(12.2124 -0.0466872 0)
(12.3084 -0.0278528 0)
(12.3778 -0.0293294 0)
(12.4198 -0.0716965 0)
(12.4132 -0.0357066 0)
(12.3936 -0.0718992 0)
(10.0073 -0.111237 0)
(10.2627 -0.258525 0)
(10.7029 -0.214713 0)
(11.0126 -0.143896 0)
(11.3075 -0.0779335 0)
(11.4861 -0.0688387 0)
(11.6025 -0.0775082 0)
(11.723 -0.0941925 0)
(11.8008 -0.0518586 0)
(11.8825 -0.0725084 0)
(11.9898 -0.0657726 0)
(12.0528 -0.0462207 0)
(12.1145 -0.0381596 0)
(12.2198 -0.0596471 0)
(12.2803 -0.0506051 0)
(12.3188 -0.0541791 0)
(12.4333 -0.0593981 0)
(12.4553 -0.0756419 0)
(12.4662 -0.0873544 0)
(12.47 -0.0911855 0)
(10.0128 -0.176661 0)
(10.3174 -0.363454 0)
(10.7533 -0.278436 0)
(11.0784 -0.203057 0)
(11.4052 -0.123622 0)
(11.5605 -0.1074 0)
(11.6894 -0.101442 0)
(11.7802 -0.124512 0)
(11.8769 -0.0912152 0)
(11.9452 -0.0895051 0)
(12.0581 -0.0793176 0)
(12.1004 -0.0759165 0)
(12.1938 -0.0506345 0)
(12.2799 -0.0795358 0)
(12.3511 -0.068822 0)
(12.3903 -0.0795313 0)
(12.4761 -0.0735302 0)
(12.5357 -0.111792 0)
(12.5475 -0.106521 0)
(12.4914 -0.106908 0)
(10.0732 -0.252405 0)
(10.3153 -0.463739 0)
(10.8847 -0.371719 0)
(11.1658 -0.246326 0)
(11.5443 -0.161569 0)
(11.6026 -0.143712 0)
(11.8096 -0.14146 0)
(11.8401 -0.157403 0)
(11.996 -0.107109 0)
(11.9902 -0.120209 0)
(12.1531 -0.105006 0)
(12.1472 -0.0890048 0)
(12.2725 -0.073208 0)
(12.284 -0.106571 0)
(12.3901 -0.0752865 0)
(12.367 -0.0982267 0)
(12.4613 -0.0958333 0)
(12.4513 -0.135655 0)
(12.4632 -0.123155 0)
(12.3315 -0.142935 0)
(10.0757 -0.351142 0)
(10.3781 -0.571407 0)
(11.0428 -0.449947 0)
(11.289 -0.295391 0)
(11.6735 -0.214418 0)
(11.6634 -0.183317 0)
(11.9035 -0.180172 0)
(11.8185 -0.17858 0)
(12 -0.140347 0)
(11.8821 -0.135776 0)
(12.0464 -0.119599 0)
(11.9081 -0.106777 0)
(12.0498 -0.0878693 0)
(11.9042 -0.109871 0)
(12.0174 -0.0856048 0)
(11.8554 -0.107008 0)
(11.9443 -0.0965574 0)
(11.7739 -0.139361 0)
(11.7675 -0.122197 0)
(11.5418 -0.165985 0)
(10.0249 -0.459207 0)
(10.5382 -0.706257 0)
(11.1768 -0.54116 0)
(11.3647 -0.355115 0)
(11.5686 -0.263498 0)
(11.4493 -0.221766 0)
(11.5143 -0.20185 0)
(11.2792 -0.184022 0)
(11.3214 -0.141702 0)
(11.0574 -0.127777 0)
(11.0957 -0.112709 0)
(10.8328 -0.0925255 0)
(10.8969 -0.0762588 0)
(10.6169 -0.0923074 0)
(10.6938 -0.0690749 0)
(10.4133 -0.0859265 0)
(10.4789 -0.0753009 0)
(10.1802 -0.11755 0)
(10.1886 -0.0937395 0)
(9.85807 -0.165961 0)
(10.0723 -0.632823 0)
(10.6424 -0.864541 0)
(10.8777 -0.59815 0)
(10.6841 -0.373899 0)
(10.4621 -0.258098 0)
(10.0814 -0.193298 0)
(9.8527 -0.153958 0)
(9.47462 -0.127341 0)
(9.33742 -0.0915403 0)
(9.01091 -0.0762606 0)
(8.94405 -0.0641244 0)
(8.66688 -0.0515185 0)
(8.66854 -0.0414229 0)
(8.39295 -0.050975 0)
(8.43334 -0.0402768 0)
(8.15796 -0.0494238 0)
(8.20082 -0.0484168 0)
(7.89938 -0.0703097 0)
(7.90326 -0.0704342 0)
(7.55672 -0.0911693 0)
(10.0885 -0.838708 0)
(9.6493 -0.868137 0)
(8.87717 -0.505531 0)
(8.0799 -0.261935 0)
(7.49527 -0.139596 0)
(7.00446 -0.0804617 0)
(6.70558 -0.0537706 0)
(6.38554 -0.0437253 0)
(6.23903 -0.0281486 0)
(6.0072 -0.0236359 0)
(5.93957 -0.0217017 0)
(5.75176 -0.0176872 0)
(5.74041 -0.0129935 0)
(5.5546 -0.0212392 0)
(5.5661 -0.0163146 0)
(5.37311 -0.0218668 0)
(5.38579 -0.0219049 0)
(5.16179 -0.0331867 0)
(5.14878 -0.0378259 0)
(4.85838 -0.0186323 0)
(8.09228 -0.387917 0)
(5.44731 -0.242681 0)
(3.91262 -0.0427131 0)
(3.1575 0.0155606 0)
(2.80101 0.017711 0)
(2.59633 0.0115659 0)
(2.48807 0.00591555 0)
(2.3755 0.0013558 0)
(2.32108 0.0021251 0)
(2.24546 0.000867844 0)
(2.2199 -9.92747e-05 0)
(2.1541 3.25381e-05 0)
(2.14906 0.00101309 0)
(2.08334 -0.0017914 0)
(2.07627 -0.000318761 0)
(2.00258 -0.0019295 0)
(1.99356 -0.00107558 0)
(1.90179 -0.00382573 0)
(1.8626 -0.00409162 0)
(1.71253 0.0103356 0)
(2.12331 -0.0479103 0)
(2.24323 0.0163794 0)
(2.42734 0.0219437 0)
(2.5658 0.00762685 0)
(2.75421 -0.0127381 0)
(2.86532 -0.0276002 0)
(3.00192 -0.035042 0)
(3.04049 -0.0337005 0)
(3.1151 -0.0349392 0)
(3.1035 -0.0343159 0)
(3.17033 -0.0394067 0)
(3.15934 -0.0369011 0)
(3.24213 -0.0345892 0)
(3.23702 -0.0247401 0)
(3.32734 -0.0173764 0)
(3.32581 -0.0135718 0)
(3.42345 -0.0145442 0)
(3.42287 -0.0156293 0)
(3.51994 -0.0196217 0)
(3.51211 -0.0203604 0)
(3.60585 -0.025077 0)
(3.58194 -0.0257033 0)
(3.68139 -0.0331508 0)
(3.64134 -0.0349723 0)
(3.74536 -0.0383906 0)
(3.68697 -0.0366119 0)
(3.79533 -0.0337799 0)
(3.72231 -0.0350301 0)
(3.84181 -0.033684 0)
(3.75275 -0.0369535 0)
(3.87776 -0.0424515 0)
(3.77786 -0.0445862 0)
(3.89424 -0.0595422 0)
(3.79745 -0.0563856 0)
(3.88968 -0.0660099 0)
(3.79391 -0.0509615 0)
(3.87677 -0.0371956 0)
(3.77031 0.00067966 0)
(3.86374 0.0465575 0)
(3.76813 0.114964 0)
(3.88144 0.182139 0)
(3.83713 0.262626 0)
(3.98897 0.313401 0)
(4.01059 0.375828 0)
(4.17503 0.391248 0)
(4.26726 0.392189 0)
(4.42401 0.369983 0)
(4.49661 0.332008 0)
(4.64576 0.289722 0)
(4.70368 0.242635 0)
(4.83878 0.18725 0)
(4.91704 0.133284 0)
(5.06044 0.0644694 0)
(5.16898 -0.00969281 0)
(5.34048 -0.122258 0)
(5.49397 -0.214894 0)
(5.66333 -0.382362 0)
(5.85571 -0.533349 0)
(5.99506 -0.738116 0)
(6.09304 -0.95796 0)
(6.09272 -1.09763 0)
(6.35426 -1.1813 0)
(6.17922 -1.27606 0)
(5.93203 -1.45651 0)
(5.74262 -1.51107 0)
(5.81766 -1.53399 0)
(5.71279 -1.35819 0)
(5.39921 -1.11202 0)
(4.80455 -1.04876 0)
(4.2289 -1.0277 0)
(3.79597 -0.868018 0)
(3.54325 -0.52104 0)
(3.63555 -0.0381996 0)
(3.51539 0.475324 0)
(3.91762 0.863735 0)
(3.63342 1.3921 0)
(4.23087 1.70163 0)
(4.30841 2.16812 0)
(4.90742 2.45674 0)
(5.42406 2.48333 0)
(5.95853 2.41141 0)
(6.14855 2.13329 0)
(6.25509 1.87577 0)
(6.3547 1.8954 0)
(6.31018 1.7785 0)
(6.29427 1.62295 0)
(6.53053 1.67468 0)
(6.64345 1.49379 0)
(6.8195 1.10183 0)
(7.1665 0.771708 0)
(7.34278 0.453662 0)
(7.616 -0.150087 0)
(7.8641 -0.561414 0)
(8.03123 -0.845927 0)
(8.15587 -1.47459 0)
(8.39106 -1.74186 0)
(8.21867 -1.86779 0)
(8.36066 -2.11607 0)
(8.43073 -2.04478 0)
(8.35236 -2.00453 0)
(8.67039 -2.0936 0)
(8.95121 -2.13871 0)
(9.00936 -2.13781 0)
(9.67551 -2.39122 0)
(9.8508 -2.48493 0)
(10.1918 -2.54981 0)
(10.7628 -2.82736 0)
(10.7935 -2.78149 0)
(11.2217 -2.89182 0)
(11.3997 -2.88731 0)
(11.4207 -2.77396 0)
(11.7008 -2.67547 0)
(11.5937 -2.45508 0)
(11.7267 -2.19406 0)
(11.766 -1.9221 0)
(11.7255 -1.60034 0)
(11.8499 -1.24478 0)
(11.7792 -0.968025 0)
(11.8871 -0.600879 0)
(11.9063 -0.331212 0)
(11.9122 -0.0679112 0)
(12.1164 0.205423 0)
(12.051 0.395573 0)
(12.2876 0.513673 0)
(12.264 0.748117 0)
(12.3506 0.776718 0)
(12.4811 0.850078 0)
(12.4075 0.969214 0)
(12.509 0.866785 0)
(12.5542 0.930104 0)
(12.4062 0.936219 0)
(12.622 0.764138 0)
(12.4268 0.824049 0)
(12.5108 0.693143 0)
(12.5459 0.560534 0)
(12.4437 0.535049 0)
(12.5829 0.344939 0)
(12.5277 0.245082 0)
(12.5971 0.115098 0)
(12.6579 -0.04686 0)
(12.7118 -0.210334 0)
(12.7991 -0.380807 0)
(12.9376 -0.609043 0)
(12.9611 -0.774164 0)
(13.2093 -1.08902 0)
(13.2057 -1.3416 0)
(13.424 -1.63451 0)
(13.45 -2.01363 0)
(13.5844 -2.32417 0)
(13.5603 -2.71722 0)
(13.5451 -3.07702 0)
(13.4269 -3.39718 0)
(13.182 -3.67565 0)
(12.8781 -3.87654 0)
(12.3476 -3.89986 0)
(11.8839 -3.8632 0)
(11.3429 -3.75752 0)
(10.7538 -3.4441 0)
(10.4746 -3.37221 0)
(9.97107 -3.20719 0)
(9.6785 -2.70807 0)
(9.41392 -2.50785 0)
(9.47371 -2.50205 0)
(9.18579 -2.03631 0)
(9.0341 -1.59658 0)
(8.97848 -1.58924 0)
(8.68023 -1.14879 0)
(8.61144 -0.693754 0)
(8.44066 -0.491587 0)
(8.25695 -0.163399 0)
(7.98634 0.266548 0)
(7.7447 0.826358 0)
(7.67806 0.796595 0)
(7.29167 0.995644 0)
(6.98968 1.57013 0)
(6.62316 1.57729 0)
(6.68371 1.57774 0)
(6.20823 1.39738 0)
(6.09086 1.80846 0)
(4.90759 2.41181 0)
(4.35381 3.14317 0)
(4.2779 2.56099 0)
(4.17297 0.354965 0)
(4.46942 -0.93361 0)
(5.08062 -1.49657 0)
(5.59087 -1.85907 0)
(6.0771 -2.21587 0)
(7.13044 -1.11894 0)
(7.27626 -0.377485 0)
(8.06181 0.950881 0)
(8.54163 2.49899 0)
(8.58714 3.3044 0)
(9.12701 4.89962 0)
(8.68344 5.68618 0)
(8.08868 6.2157 0)
(8.14544 7.53253 0)
(7.90638 8.68433 0)
(8.02417 10.4841 0)
(8.00261 12.5163 0)
(4.57002 15.6263 0)
(5.14869 -0.0212623 0)
(5.14235 -0.00345339 0)
(5.20211 -0.021117 0)
(5.25511 -0.0591101 0)
(5.38153 -0.0879563 0)
(5.44819 -0.0993782 0)
(5.54742 -0.0978558 0)
(5.56318 -0.0869501 0)
(5.61968 -0.0817642 0)
(5.59459 -0.0699274 0)
(5.64836 -0.0673991 0)
(5.62173 -0.059814 0)
(5.69465 -0.0566565 0)
(5.67455 -0.0556322 0)
(5.75794 -0.0503548 0)
(5.74291 -0.0532939 0)
(5.82589 -0.0502694 0)
(5.81671 -0.0527129 0)
(5.89204 -0.0542719 0)
(5.88277 -0.0518087 0)
(5.94941 -0.0582381 0)
(5.93405 -0.0517137 0)
(5.99625 -0.0582304 0)
(5.97231 -0.0541876 0)
(6.0327 -0.0547452 0)
(5.99985 -0.0512221 0)
(6.05456 -0.0480541 0)
(6.0142 -0.0444459 0)
(6.05993 -0.0444078 0)
(6.0189 -0.0411613 0)
(6.04975 -0.0457209 0)
(6.0108 -0.042883 0)
(6.02244 -0.0504662 0)
(5.98559 -0.044789 0)
(5.98112 -0.0468394 0)
(5.9381 -0.0300051 0)
(5.93188 -0.0170364 0)
(5.88091 0.0181116 0)
(5.88191 0.0543061 0)
(5.83709 0.103524 0)
(5.86193 0.15769 0)
(5.84378 0.209599 0)
(5.90653 0.255488 0)
(5.93308 0.287755 0)
(6.03072 0.308637 0)
(6.09732 0.30143 0)
(6.22682 0.278997 0)
(6.30067 0.247557 0)
(6.44166 0.197576 0)
(6.52577 0.14429 0)
(6.67472 0.0879518 0)
(6.78153 0.0128166 0)
(6.93978 -0.055785 0)
(7.09397 -0.147449 0)
(7.23536 -0.256676 0)
(7.457 -0.36502 0)
(7.55297 -0.520071 0)
(7.79161 -0.656528 0)
(7.86248 -0.836953 0)
(8.00658 -0.992728 0)
(8.0655 -1.06735 0)
(8.08669 -1.25844 0)
(7.91593 -1.37492 0)
(7.89175 -1.33177 0)
(7.90282 -1.25085 0)
(7.69417 -1.22903 0)
(7.24167 -1.23415 0)
(6.86946 -1.12731 0)
(6.77783 -0.831249 0)
(6.58879 -0.532054 0)
(6.21185 -0.242912 0)
(5.49113 -0.0722374 0)
(5.17087 0.0133674 0)
(4.65776 0.312776 0)
(4.8777 0.663532 0)
(4.8826 1.16066 0)
(5.31166 1.51825 0)
(5.48754 1.92708 0)
(5.89969 2.18672 0)
(6.29009 2.23581 0)
(6.56279 2.18281 0)
(6.90937 2.01499 0)
(6.86866 1.81789 0)
(7.02316 1.69457 0)
(7.10241 1.61796 0)
(7.12067 1.54792 0)
(7.43851 1.33215 0)
(7.66579 1.16954 0)
(7.84306 0.990078 0)
(8.33127 0.452846 0)
(8.48996 0.116264 0)
(8.71067 -0.182854 0)
(9.1047 -0.816214 0)
(9.1605 -1.08377 0)
(9.25392 -1.40044 0)
(9.46081 -1.90796 0)
(9.27716 -1.87338 0)
(9.31585 -2.02952 0)
(9.53199 -2.20569 0)
(9.47117 -2.04863 0)
(9.86169 -2.28566 0)
(10.2127 -2.4306 0)
(10.3863 -2.39275 0)
(11.0179 -2.77289 0)
(11.2445 -2.76252 0)
(11.5544 -2.87549 0)
(12.0611 -3.11247 0)
(12.0261 -2.97361 0)
(12.4144 -3.10669 0)
(12.4226 -3.00703 0)
(12.4411 -2.80647 0)
(12.565 -2.76581 0)
(12.42 -2.40277 0)
(12.4548 -2.23916 0)
(12.4547 -1.92602 0)
(12.3091 -1.59695 0)
(12.4756 -1.31159 0)
(12.327 -0.955374 0)
(12.4205 -0.670199 0)
(12.4782 -0.370971 0)
(12.3723 -0.0965651 0)
(12.6374 0.0841644 0)
(12.5206 0.357992 0)
(12.7735 0.415204 0)
(12.8644 0.610686 0)
(12.9131 0.752627 0)
(13.1687 0.732255 0)
(13.1842 0.894027 0)
(13.2946 0.885056 0)
(13.4869 0.841056 0)
(13.3903 0.92795 0)
(13.6129 0.792547 0)
(13.5654 0.773826 0)
(13.635 0.715886 0)
(13.6969 0.57572 0)
(13.6858 0.498843 0)
(13.7855 0.374038 0)
(13.7584 0.21889 0)
(13.8631 0.0872812 0)
(13.8719 -0.0778236 0)
(13.9387 -0.25334 0)
(13.9909 -0.422494 0)
(14.0765 -0.677544 0)
(14.0862 -0.839758 0)
(14.2212 -1.13875 0)
(14.186 -1.39786 0)
(14.2923 -1.66522 0)
(14.1847 -2.0504 0)
(14.2147 -2.2882 0)
(14.0036 -2.69039 0)
(13.875 -2.95824 0)
(13.5064 -3.18582 0)
(13.1682 -3.45646 0)
(12.6811 -3.46263 0)
(12.129 -3.45082 0)
(11.6785 -3.42756 0)
(11.1479 -3.30318 0)
(10.7379 -3.1633 0)
(10.4777 -3.11036 0)
(10.1364 -2.89109 0)
(9.9519 -2.54463 0)
(9.79406 -2.44412 0)
(9.84536 -2.38747 0)
(9.34286 -1.87247 0)
(9.39798 -1.4956 0)
(9.28712 -1.50844 0)
(9.08285 -0.963691 0)
(8.9004 -0.588653 0)
(8.75913 -0.270229 0)
(8.54928 0.0398653 0)
(8.30018 0.417003 0)
(8.01585 0.942044 0)
(7.91029 1.03108 0)
(7.50576 1.25478 0)
(7.39312 1.75359 0)
(6.88783 1.6745 0)
(6.82432 1.75122 0)
(6.34673 1.64857 0)
(5.75187 2.26991 0)
(5.29281 3.27291 0)
(4.13039 3.203 0)
(4.33844 2.64118 0)
(4.67906 0.257929 0)
(4.69067 -1.51101 0)
(5.59169 -1.76147 0)
(5.73968 -2.55191 0)
(6.50785 -2.44692 0)
(6.9887 -1.98711 0)
(7.40957 -0.459872 0)
(7.66794 0.344537 0)
(8.46204 1.88671 0)
(8.86554 3.40645 0)
(9.0721 4.53112 0)
(9.49484 5.76071 0)
(8.98038 6.69438 0)
(8.94929 7.62221 0)
(8.66025 9.04352 0)
(8.49969 10.5853 0)
(10.8717 11.3473 0)
(7.77428 16.6591 0)
(7.81375 -0.0514705 0)
(7.7888 -0.0805663 0)
(7.8235 -0.107774 0)
(7.86458 -0.127148 0)
(7.96027 -0.120721 0)
(8.02855 -0.111782 0)
(8.09717 -0.097447 0)
(8.1145 -0.0762167 0)
(8.13869 -0.0729033 0)
(8.11067 -0.0579592 0)
(8.13249 -0.0680799 0)
(8.09933 -0.0651773 0)
(8.14052 -0.0689542 0)
(8.12513 -0.0750909 0)
(8.17414 -0.0677928 0)
(8.18237 -0.0787109 0)
(8.2184 -0.0680966 0)
(8.24277 -0.0741942 0)
(8.26178 -0.0713215 0)
(8.28727 -0.0639774 0)
(8.29891 -0.0742673 0)
(8.31134 -0.0579568 0)
(8.32456 -0.0710818 0)
(8.32265 -0.0575623 0)
(8.33696 -0.0609902 0)
(8.32842 -0.055668 0)
(8.33981 -0.0468059 0)
(8.32873 -0.0494776 0)
(8.33209 -0.03485 0)
(8.32231 -0.041207 0)
(8.31242 -0.0322443 0)
(8.30162 -0.0322474 0)
(8.27869 -0.0334444 0)
(8.25842 -0.0202984 0)
(8.23586 -0.0217082 0)
(8.19478 0.00244765 0)
(8.18516 0.0142866 0)
(8.12632 0.0443471 0)
(8.13306 0.079562 0)
(8.07682 0.113544 0)
(8.09971 0.160621 0)
(8.07009 0.191545 0)
(8.11052 0.227878 0)
(8.12463 0.246771 0)
(8.18697 0.249451 0)
(8.23938 0.245883 0)
(8.3262 0.204409 0)
(8.40533 0.177595 0)
(8.49906 0.11344 0)
(8.60977 0.0581628 0)
(8.69865 -0.0162055 0)
(8.85603 -0.0895645 0)
(8.93428 -0.176943 0)
(9.13413 -0.274043 0)
(9.20535 -0.376868 0)
(9.41406 -0.506565 0)
(9.4912 -0.623677 0)
(9.64685 -0.766345 0)
(9.72949 -0.90569 0)
(9.78924 -1.02048 0)
(9.82121 -1.13496 0)
(9.74497 -1.2613 0)
(9.71829 -1.24348 0)
(9.64583 -1.21003 0)
(9.44046 -1.21538 0)
(9.18753 -1.20054 0)
(9.01828 -1.01304 0)
(8.81611 -0.737537 0)
(8.57582 -0.536109 0)
(8.27611 -0.358578 0)
(8.01897 -0.0995637 0)
(7.70988 0.238653 0)
(7.46074 0.495031 0)
(6.94942 0.729651 0)
(6.60646 0.829412 0)
(6.28596 1.05089 0)
(6.29692 1.27963 0)
(6.40556 1.5303 0)
(6.7559 1.84558 0)
(7.14703 1.98207 0)
(7.39309 2.00278 0)
(7.84151 1.92736 0)
(7.9042 1.86059 0)
(8.07465 1.74114 0)
(8.33612 1.54983 0)
(8.35487 1.54566 0)
(8.66281 1.27321 0)
(8.97601 1.0027 0)
(9.15212 0.830814 0)
(9.49323 0.315067 0)
(9.80405 -0.0874891 0)
(9.86048 -0.381476 0)
(10.0846 -0.858507 0)
(10.2609 -1.25196 0)
(10.1591 -1.47083 0)
(10.2827 -1.83374 0)
(10.2832 -1.96911 0)
(10.2978 -2.06679 0)
(10.6074 -2.2931 0)
(10.7828 -2.33499 0)
(11.1381 -2.55054 0)
(11.5964 -2.69036 0)
(11.8055 -2.80839 0)
(12.3649 -3.0136 0)
(12.5277 -3.07007 0)
(12.7752 -3.13268 0)
(13.1226 -3.2624 0)
(12.9374 -3.09908 0)
(13.2741 -3.16733 0)
(13.0249 -2.99705 0)
(13.0514 -2.77944 0)
(12.9551 -2.7391 0)
(12.7615 -2.29598 0)
(12.74 -2.21975 0)
(12.6434 -1.8856 0)
(12.5154 -1.53238 0)
(12.6275 -1.3516 0)
(12.4793 -0.905498 0)
(12.5944 -0.677517 0)
(12.6129 -0.408068 0)
(12.5482 -0.0860567 0)
(12.7483 0.00709489 0)
(12.6595 0.277219 0)
(12.8632 0.378781 0)
(12.9851 0.446564 0)
(13.0792 0.639098 0)
(13.3032 0.643132 0)
(13.4555 0.707676 0)
(13.5835 0.821018 0)
(13.8029 0.742786 0)
(13.8819 0.799337 0)
(14.038 0.774437 0)
(14.1316 0.686049 0)
(14.2382 0.652131 0)
(14.2918 0.560519 0)
(14.3959 0.423473 0)
(14.4411 0.352834 0)
(14.4867 0.162787 0)
(14.5624 0.0466091 0)
(14.5803 -0.117446 0)
(14.6493 -0.304988 0)
(14.6409 -0.436759 0)
(14.702 -0.712232 0)
(14.6641 -0.879379 0)
(14.6958 -1.12637 0)
(14.5909 -1.40696 0)
(14.5928 -1.64493 0)
(14.3585 -1.98089 0)
(14.2651 -2.21555 0)
(13.9514 -2.51964 0)
(13.6692 -2.75679 0)
(13.2317 -2.89425 0)
(12.8412 -3.07635 0)
(12.3261 -3.0241 0)
(11.8854 -3.03522 0)
(11.4927 -3.11512 0)
(11.142 -2.99273 0)
(10.8196 -2.9205 0)
(10.7053 -2.88701 0)
(10.4109 -2.7027 0)
(10.1557 -2.45801 0)
(10.1011 -2.39403 0)
(9.98572 -2.23292 0)
(9.62322 -1.75023 0)
(9.73829 -1.4505 0)
(9.45076 -1.37748 0)
(9.27772 -0.76509 0)
(9.06749 -0.469989 0)
(8.97712 -0.137046 0)
(8.68412 0.210506 0)
(8.3466 0.70186 0)
(8.29324 1.10733 0)
(7.95861 1.184 0)
(7.81725 1.40958 0)
(7.25943 1.97692 0)
(7.15704 2.13147 0)
(6.61379 1.98767 0)
(6.55225 2.254 0)
(5.74826 2.5608 0)
(5.20636 3.88008 0)
(4.80771 3.84817 0)
(4.4614 2.22747 0)
(5.12031 0.217758 0)
(5.25468 -1.94754 0)
(5.88906 -2.15736 0)
(6.14928 -2.60974 0)
(6.52216 -2.88961 0)
(7.09036 -1.91228 0)
(6.97748 -1.11608 0)
(7.26714 0.478803 0)
(7.94338 1.35325 0)
(8.62977 2.79729 0)
(9.13276 4.46209 0)
(9.81856 5.64363 0)
(9.74265 6.89735 0)
(9.65217 7.89747 0)
(10.0456 8.30604 0)
(8.90619 11.2622 0)
(13.2052 10.5902 0)
(10.148 16.9853 0)
(10.0365 -0.0814805 0)
(10.0355 -0.217355 0)
(10.0784 -0.264131 0)
(10.1527 -0.263796 0)
(10.2058 -0.216443 0)
(10.2733 -0.161754 0)
(10.2902 -0.127216 0)
(10.3041 -0.0846755 0)
(10.3029 -0.0824632 0)
(10.263 -0.0607622 0)
(10.2774 -0.0739537 0)
(10.2267 -0.0749822 0)
(10.2553 -0.0796152 0)
(10.2363 -0.0962253 0)
(10.2512 -0.0850781 0)
(10.2846 -0.104303 0)
(10.2677 -0.0877259 0)
(10.3351 -0.0943936 0)
(10.3005 -0.0896334 0)
(10.3608 -0.0764686 0)
(10.3391 -0.088794 0)
(10.3586 -0.0653456 0)
(10.3669 -0.0784858 0)
(10.3436 -0.0635739 0)
(10.371 -0.0596764 0)
(10.3306 -0.0623248 0)
(10.3534 -0.0437426 0)
(10.3268 -0.0521302 0)
(10.3231 -0.0337292 0)
(10.3252 -0.0346802 0)
(10.2942 -0.024543 0)
(10.3052 -0.0149826 0)
(10.2757 -0.0159567 0)
(10.2585 0.00310686 0)
(10.258 0.00443986 0)
(10.1948 0.0268656 0)
(10.2277 0.0415513 0)
(10.142 0.0660602 0)
(10.1864 0.0967897 0)
(10.1218 0.124763 0)
(10.1534 0.159851 0)
(10.1401 0.181765 0)
(10.1563 0.208622 0)
(10.1941 0.214076 0)
(10.2185 0.213954 0)
(10.2818 0.196791 0)
(10.3346 0.154526 0)
(10.4112 0.116761 0)
(10.479 0.0424451 0)
(10.5692 -0.013814 0)
(10.6449 -0.0995642 0)
(10.756 -0.176733 0)
(10.8314 -0.264835 0)
(10.9466 -0.376007 0)
(11.0354 -0.460003 0)
(11.1137 -0.604562 0)
(11.2262 -0.686833 0)
(11.2245 -0.832925 0)
(11.3358 -0.939206 0)
(11.2515 -1.02682 0)
(11.2841 -1.15723 0)
(11.1474 -1.14978 0)
(11.1164 -1.18705 0)
(10.8982 -1.16718 0)
(10.7332 -1.11363 0)
(10.5551 -0.986373 0)
(10.3857 -0.776283 0)
(10.0923 -0.617145 0)
(9.87753 -0.415806 0)
(9.72071 -0.137029 0)
(9.54036 0.119719 0)
(9.29097 0.452163 0)
(9.14261 0.668277 0)
(8.798 0.945481 0)
(8.64947 1.142 0)
(8.28926 1.31604 0)
(8.09057 1.3969 0)
(7.90649 1.51116 0)
(7.85328 1.5934 0)
(8.05966 1.59303 0)
(8.10267 1.72178 0)
(8.52799 1.59594 0)
(8.6526 1.52604 0)
(8.84615 1.59803 0)
(9.21335 1.29552 0)
(9.30624 1.2721 0)
(9.62349 1.1121 0)
(9.90368 0.727109 0)
(10.0741 0.534816 0)
(10.3855 0.147776 0)
(10.5319 -0.260775 0)
(10.7493 -0.623458 0)
(10.8089 -0.924243 0)
(10.9176 -1.32633 0)
(11.0943 -1.59047 0)
(11.0693 -1.79195 0)
(11.4086 -2.12024 0)
(11.5331 -2.2459 0)
(11.8904 -2.48732 0)
(12.2036 -2.65778 0)
(12.5751 -2.83857 0)
(12.8356 -2.95968 0)
(13.1863 -3.10668 0)
(13.3597 -3.20337 0)
(13.5334 -3.21967 0)
(13.6082 -3.28734 0)
(13.6736 -3.24096 0)
(13.5202 -3.13105 0)
(13.5562 -3.08749 0)
(13.2699 -2.84809 0)
(13.1969 -2.70416 0)
(12.9967 -2.53259 0)
(12.8068 -2.18883 0)
(12.7239 -2.09216 0)
(12.6135 -1.75432 0)
(12.4673 -1.47127 0)
(12.6012 -1.29274 0)
(12.4159 -0.88432 0)
(12.5622 -0.661936 0)
(12.566 -0.402756 0)
(12.5516 -0.123164 0)
(12.6878 0.0178266 0)
(12.6683 0.169809 0)
(12.7793 0.340477 0)
(12.9041 0.349423 0)
(13.0162 0.467245 0)
(13.1637 0.562368 0)
(13.3712 0.521968 0)
(13.5175 0.65485 0)
(13.7002 0.645425 0)
(13.9071 0.604037 0)
(14.0207 0.690225 0)
(14.1864 0.56609 0)
(14.3285 0.543756 0)
(14.3822 0.493966 0)
(14.5473 0.334068 0)
(14.5517 0.307936 0)
(14.6551 0.0995321 0)
(14.678 0.0120441 0)
(14.7172 -0.140421 0)
(14.7559 -0.345385 0)
(14.7068 -0.442242 0)
(14.7234 -0.710419 0)
(14.6586 -0.891216 0)
(14.5856 -1.08997 0)
(14.4716 -1.37759 0)
(14.3415 -1.57101 0)
(14.0897 -1.8565 0)
(13.9331 -2.07374 0)
(13.5493 -2.26368 0)
(13.2893 -2.4599 0)
(12.865 -2.55082 0)
(12.4944 -2.64271 0)
(12.1433 -2.70205 0)
(11.7956 -2.744 0)
(11.531 -2.81079 0)
(11.3283 -2.74211 0)
(11.0171 -2.75636 0)
(10.8804 -2.73323 0)
(10.5392 -2.53152 0)
(10.3645 -2.35633 0)
(10.233 -2.24951 0)
(10.102 -2.03467 0)
(9.7155 -1.6151 0)
(9.71017 -1.35118 0)
(9.46655 -1.17415 0)
(9.35182 -0.665664 0)
(9.14552 -0.305827 0)
(8.99235 0.00756202 0)
(8.83274 0.497244 0)
(8.43043 0.863067 0)
(8.3028 1.26836 0)
(7.98323 1.46018 0)
(7.73026 1.81394 0)
(7.31807 2.10265 0)
(6.97845 2.22284 0)
(6.99681 2.14177 0)
(6.36216 2.2651 0)
(6.30679 3.35461 0)
(5.30374 3.99312 0)
(5.06575 4.15823 0)
(5.37385 2.44796 0)
(5.38238 -0.514238 0)
(5.97803 -1.91885 0)
(6.08064 -3.00921 0)
(6.58813 -2.38085 0)
(6.42423 -3.34335 0)
(6.84636 -1.86483 0)
(6.64868 -0.908491 0)
(6.63997 -0.245691 0)
(7.25279 1.39735 0)
(8.13017 2.14495 0)
(8.70862 3.77796 0)
(9.77106 5.4294 0)
(10.4391 6.39166 0)
(10.2346 8.50135 0)
(11.9178 8.29309 0)
(8.35505 11.0813 0)
(13.8316 7.30965 0)
(11.9637 15.8275 0)
(11.5152 -0.083685 0)
(11.5726 -0.256075 0)
(11.6688 -0.310525 0)
(11.8063 -0.315918 0)
(11.8484 -0.247666 0)
(11.9103 -0.18801 0)
(11.9094 -0.124687 0)
(11.8934 -0.0814478 0)
(11.9018 -0.0703468 0)
(11.832 -0.0452909 0)
(11.8522 -0.0659462 0)
(11.7832 -0.0604225 0)
(11.7887 -0.080119 0)
(11.7729 -0.0987338 0)
(11.7426 -0.0908323 0)
(11.7922 -0.124966 0)
(11.7395 -0.0945654 0)
(11.8131 -0.119196 0)
(11.7799 -0.0978668 0)
(11.8172 -0.0879067 0)
(11.8358 -0.0975662 0)
(11.8075 -0.0595649 0)
(11.8732 -0.0834018 0)
(11.7983 -0.0499028 0)
(11.8692 -0.0571487 0)
(11.7944 -0.0495092 0)
(11.8295 -0.0352089 0)
(11.792 -0.0465336 0)
(11.7805 -0.0221672 0)
(11.7787 -0.0379308 0)
(11.7531 -0.0141437 0)
(11.744 -0.0155528 0)
(11.753 -0.0109775 0)
(11.7007 0.0181804 0)
(11.7596 0.00746536 0)
(11.6657 0.0527566 0)
(11.7516 0.0493267 0)
(11.6556 0.0860109 0)
(11.7266 0.106288 0)
(11.6774 0.125431 0)
(11.7084 0.159104 0)
(11.7259 0.165233 0)
(11.7307 0.184204 0)
(11.7969 0.187385 0)
(11.8068 0.168702 0)
(11.8835 0.163355 0)
(11.9208 0.104655 0)
(11.9868 0.0702232 0)
(12.0445 6.7167e-05 0)
(12.0951 -0.07492 0)
(12.1705 -0.135734 0)
(12.2057 -0.247684 0)
(12.2845 -0.312548 0)
(12.3061 -0.428511 0)
(12.3754 -0.523638 0)
(12.3728 -0.616866 0)
(12.4212 -0.742059 0)
(12.3633 -0.810798 0)
(12.378 -0.934568 0)
(12.2534 -0.992819 0)
(12.2105 -1.06299 0)
(12.0426 -1.07535 0)
(11.9247 -1.08654 0)
(11.7034 -1.05567 0)
(11.5615 -0.946715 0)
(11.3577 -0.810828 0)
(11.1539 -0.672467 0)
(10.9685 -0.479665 0)
(10.786 -0.214289 0)
(10.6902 0.0185523 0)
(10.5301 0.25817 0)
(10.4046 0.535482 0)
(10.3685 0.773095 0)
(10.1623 1.07918 0)
(10.2226 1.27988 0)
(9.92434 1.48827 0)
(9.95818 1.60372 0)
(9.7358 1.66442 0)
(9.59438 1.70812 0)
(9.67923 1.61384 0)
(9.45615 1.62734 0)
(9.64645 1.46543 0)
(9.71804 1.33777 0)
(9.70734 1.27627 0)
(10.0405 1.07398 0)
(10.1283 0.942388 0)
(10.3875 0.741835 0)
(10.6347 0.527154 0)
(10.8723 0.243392 0)
(11.1432 -0.0592765 0)
(11.2874 -0.342611 0)
(11.5779 -0.788184 0)
(11.7211 -1.04707 0)
(11.9368 -1.34844 0)
(12.2442 -1.76992 0)
(12.3632 -1.9193 0)
(12.7401 -2.32252 0)
(12.9597 -2.51573 0)
(13.2025 -2.69472 0)
(13.5273 -2.95181 0)
(13.6389 -3.0195 0)
(13.8571 -3.15779 0)
(13.9607 -3.26116 0)
(13.9408 -3.23949 0)
(14.0124 -3.28181 0)
(13.8729 -3.25103 0)
(13.7926 -3.11559 0)
(13.6486 -3.0629 0)
(13.4539 -2.88418 0)
(13.2805 -2.68098 0)
(13.1055 -2.55838 0)
(12.906 -2.28478 0)
(12.83 -2.13682 0)
(12.6401 -1.92479 0)
(12.6101 -1.66298 0)
(12.4634 -1.45893 0)
(12.5214 -1.2204 0)
(12.4247 -0.914997 0)
(12.485 -0.686021 0)
(12.561 -0.398426 0)
(12.5523 -0.215558 0)
(12.6636 0.0376155 0)
(12.7344 0.0799153 0)
(12.7441 0.270047 0)
(12.9042 0.30412 0)
(12.964 0.31644 0)
(13.07 0.463021 0)
(13.2376 0.387417 0)
(13.3475 0.482214 0)
(13.5071 0.512196 0)
(13.6893 0.439957 0)
(13.7988 0.553599 0)
(13.9839 0.421035 0)
(14.0743 0.445564 0)
(14.2131 0.371012 0)
(14.304 0.258925 0)
(14.3548 0.237554 0)
(14.4593 0.0535247 0)
(14.4423 -0.0146942 0)
(14.5183 -0.167759 0)
(14.479 -0.342262 0)
(14.4727 -0.468258 0)
(14.4131 -0.675345 0)
(14.3509 -0.870377 0)
(14.2547 -1.04607 0)
(14.1023 -1.26595 0)
(13.9781 -1.4691 0)
(13.7195 -1.67166 0)
(13.551 -1.84616 0)
(13.2384 -2.01156 0)
(12.9808 -2.12287 0)
(12.6589 -2.24142 0)
(12.3881 -2.35925 0)
(12.0944 -2.46436 0)
(11.894 -2.5233 0)
(11.6518 -2.61246 0)
(11.4066 -2.59777 0)
(11.0875 -2.61171 0)
(10.8853 -2.49462 0)