/*--------------------------------*- C++ -*----------------------------------*\
| =========                 |                                                 |
| \\      /  F ield         | OpenFOAM: The Open Source CFD Toolbox           |
|  \\    /   O peration     | Version:  2.4.0                                 |
|   \\  /    A nd           | Web:      www.OpenFOAM.org                      |
|    \\/     M anipulation  |                                                 |
\*---------------------------------------------------------------------------*/
FoamFile
{
    version     2.0;
    format      ascii;
    class       volVectorField;
    location    "0.52";
    object      UMean;
}
// * * * * * * * * * * * * * * * * * * * * * * * * * * * * * * * * * * * * * //

dimensions      [0 1 -1 0 0 0 0];

internalField   nonuniform List<vector> 
8800
(
(8.0935 0.38652 0)
(5.46883 0.242096 0)
(3.94001 0.0432322 0)
(3.18911 -0.0151371 0)
(2.83629 -0.0181137 0)
(2.63551 -0.0109217 0)
(2.52491 -0.00565112 0)
(2.42204 -0.00220369 0)
(2.36535 -0.00155359 0)
(2.2958 -0.00043148 0)
(2.26736 -0.000793878 0)
(2.21504 0.000141275 0)
(2.1979 -0.000284001 0)
(2.15118 0.000730618 0)
(2.13337 0.000156709 0)
(2.08868 0.00142733 0)
(2.06241 0.000281818 0)
(2.01662 0.00147996 0)
(1.99986 0.00432355 0)
(1.82532 -0.0451451 0)
(10.0774 0.834713 0)
(9.65983 0.862978 0)
(8.88435 0.503627 0)
(8.10095 0.259774 0)
(7.51786 0.136535 0)
(7.03568 0.0810197 0)
(6.73396 0.0527051 0)
(6.4377 0.0397684 0)
(6.27593 0.0285184 0)
(6.07169 0.0239098 0)
(5.9888 0.017335 0)
(5.83461 0.0176477 0)
(5.7901 0.0135454 0)
(5.66118 0.0167638 0)
(5.62501 0.0137144 0)
(5.51114 0.0178454 0)
(5.4625 0.0186369 0)
(5.35498 0.0140857 0)
(5.30198 0.0318497 0)
(5.15781 -0.0380016 0)
(10.0567 0.629139 0)
(10.6541 0.858171 0)
(10.8674 0.596788 0)
(10.6907 0.370166 0)
(10.4607 0.252517 0)
(10.0908 0.193983 0)
(9.85026 0.150064 0)
(9.5083 0.120667 0)
(9.34037 0.0909287 0)
(9.05799 0.0749464 0)
(8.96479 0.0556859 0)
(8.73357 0.0517931 0)
(8.68959 0.0396448 0)
(8.48985 0.0432078 0)
(8.46672 0.035002 0)
(8.28386 0.0420523 0)
(8.25904 0.0401205 0)
(8.07853 0.0435447 0)
(8.03916 0.0515352 0)
(7.85965 -0.021258 0)
(9.99789 0.455766 0)
(10.5633 0.701375 0)
(11.1642 0.541733 0)
(11.3671 0.349206 0)
(11.5492 0.258097 0)
(11.4491 0.224848 0)
(11.484 0.195985 0)
(11.2899 0.173794 0)
(11.293 0.142857 0)
(11.0719 0.124492 0)
(11.0824 0.0996475 0)
(10.8593 0.0925672 0)
(10.8849 0.0749333 0)
(10.6639 0.0773498 0)
(10.699 0.0637817 0)
(10.4775 0.0741342 0)
(10.5118 0.0626833 0)
(10.2819 0.0849441 0)
(10.2888 0.0650992 0)
(10.0464 0.0911663 0)
(10.0417 0.345482 0)
(10.3984 0.564346 0)
(11.0427 0.457536 0)
(11.2962 0.291926 0)
(11.6481 0.20547 0)
(11.6595 0.190721 0)
(11.87 0.173942 0)
(11.8028 0.168648 0)
(11.9706 0.140232 0)
(11.8703 0.133158 0)
(12.0175 0.10453 0)
(11.8969 0.108041 0)
(12.0282 0.0827816 0)
(11.8915 0.0981784 0)
(12.0055 0.0727007 0)
(11.8555 0.100209 0)
(11.9473 0.0707125 0)
(11.7841 0.11642 0)
(11.8319 0.072445 0)
(11.6234 0.132872 0)
(10.0508 0.25194 0)
(10.3173 0.452468 0)
(10.893 0.374746 0)
(11.1749 0.24557 0)
(11.5205 0.159193 0)
(11.5957 0.149393 0)
(11.793 0.139302 0)
(11.8078 0.140945 0)
(11.9693 0.116549 0)
(11.9758 0.113114 0)
(12.1208 0.0884441 0)
(12.1235 0.0918878 0)
(12.2518 0.0729764 0)
(12.2497 0.0844261 0)
(12.3579 0.0700092 0)
(12.3508 0.0870403 0)
(12.4347 0.0760454 0)
(12.4199 0.0967037 0)
(12.4608 0.0801798 0)
(12.3716 0.0571285 0)
(10.0095 0.173999 0)
(10.298 0.35194 0)
(10.7505 0.28709 0)
(11.1063 0.204215 0)
(11.3861 0.116676 0)
(11.5444 0.114245 0)
(11.6701 0.103127 0)
(11.7557 0.114266 0)
(11.8497 0.0871554 0)
(11.9297 0.0919036 0)
(12.016 0.0643904 0)
(12.0936 0.0740162 0)
(12.1719 0.0520438 0)
(12.2449 0.0681686 0)
(12.3134 0.0510236 0)
(12.3806 0.0708872 0)
(12.4375 0.0564079 0)
(12.4938 0.0748841 0)
(12.5193 0.0498607 0)
(12.4804 0.0164787 0)
(10.0002 0.114646 0)
(10.2611 0.249027 0)
(10.6745 0.204586 0)
(11.0296 0.151113 0)
(11.3147 0.0823668 0)
(11.4802 0.0777114 0)
(11.6097 0.0734654 0)
(11.6874 0.0813287 0)
(11.7861 0.0636758 0)
(11.8569 0.0644851 0)
(11.953 0.0467494 0)
(12.0198 0.0506156 0)
(12.1114 0.0378426 0)
(12.1712 0.0459507 0)
(12.2563 0.0373198 0)
(12.3077 0.0469622 0)
(12.3848 0.0390807 0)
(12.4212 0.0441502 0)
(12.4673 0.0251176 0)
(12.3959 -0.0109598 0)
(9.99138 0.064095 0)
(10.2426 0.148659 0)
(10.619 0.122147 0)
(10.9871 0.09264 0)
(11.2599 0.0481442 0)
(11.4483 0.0466399 0)
(11.5623 0.04302 0)
(11.6544 0.0499747 0)
(11.7351 0.0380174 0)
(11.822 0.0393835 0)
(11.9011 0.0272198 0)
(11.9852 0.0303776 0)
(12.0594 0.0216638 0)
(12.1371 0.0270395 0)
(12.2037 0.0203984 0)
(12.2732 0.025742 0)
(12.3302 0.0181218 0)
(12.3841 0.0181193 0)
(12.405 0.00105281 0)
(12.3472 -0.0284888 0)
(9.99248 0.0208449 0)
(10.2285 0.0491227 0)
(10.5976 0.0410269 0)
(10.9603 0.030609 0)
(11.2388 0.0162832 0)
(11.4269 0.0150845 0)
(11.5453 0.0144816 0)
(11.6325 0.0162539 0)
(11.7164 0.0129307 0)
(11.7991 0.012392 0)
(11.8822 0.00892386 0)
(11.9623 0.00887706 0)
(12.0407 0.00640881 0)
(12.1142 0.00653328 0)
(12.1848 0.00409071 0)
(12.2496 0.00285325 0)
(12.3101 -0.00181182 0)
(12.3587 -0.00773312 0)
(12.3804 -0.0198434 0)
(12.3142 -0.043008 0)
(9.9934 -0.0221529 0)
(10.2273 -0.0475067 0)
(10.5986 -0.0425291 0)
(10.9593 -0.0292518 0)
(11.2396 -0.0177807 0)
(11.4261 -0.0138177 0)
(11.5459 -0.0161997 0)
(11.6316 -0.01518 0)
(11.7171 -0.014846 0)
(11.798 -0.0119588 0)
(11.8826 -0.0117576 0)
(11.9612 -0.00981382 0)
(12.0411 -0.011422 0)
(12.1128 -0.0111051 0)
(12.1849 -0.0149105 0)
(12.2478 -0.0169287 0)
(12.3095 -0.0240845 0)
(12.3554 -0.029638 0)
(12.378 -0.0422974 0)
(12.3073 -0.0520931 0)
(9.99162 -0.0652231 0)
(10.2421 -0.14733 0)
(10.6196 -0.123453 0)
(10.9861 -0.0913957 0)
(11.2606 -0.049494 0)
(11.4474 -0.045681 0)
(11.563 -0.0444882 0)
(11.6534 -0.0492661 0)
(11.7358 -0.0396353 0)
(11.8209 -0.0393315 0)
(11.9018 -0.0298179 0)
(11.9837 -0.0317932 0)
(12.0597 -0.0263504 0)
(12.135 -0.0320159 0)
(12.2029 -0.0307873 0)
(12.2696 -0.0400349 0)
(12.3271 -0.0432695 0)
(12.3769 -0.0556943 0)
(12.3959 -0.0619006 0)
(12.3307 -0.0654908 0)
(9.9964 -0.115692 0)
(10.2651 -0.247719 0)
(10.6697 -0.205801 0)
(11.0341 -0.149723 0)
(11.3096 -0.0836137 0)
(11.485 -0.0764693 0)
(11.6046 -0.0750337 0)
(11.6924 -0.080145 0)
(11.7806 -0.0655579 0)
(11.8619 -0.0639966 0)
(11.947 -0.049591 0)
(12.0246 -0.0514402 0)
(12.1046 -0.0429388 0)
(12.1754 -0.0501913 0)
(12.2475 -0.0480114 0)
(12.3095 -0.0599687 0)
(12.3718 -0.0641919 0)
(12.4172 -0.0795477 0)
(12.4438 -0.0860573 0)
(12.3772 -0.0784081 0)
(10.0154 -0.175425 0)
(10.2923 -0.350196 0)
(10.7553 -0.288853 0)
(11.1014 -0.202451 0)
(11.3906 -0.118494 0)
(11.5397 -0.112434 0)
(11.6745 -0.105224 0)
(11.7511 -0.112659 0)
(11.8537 -0.0897106 0)
(11.9248 -0.0908564 0)
(12.0196 -0.067962 0)
(12.0883 -0.0742662 0)
(12.1747 -0.0579447 0)
(12.2382 -0.0717629 0)
(12.3138 -0.0624301 0)
(12.37 -0.0826146 0)
(12.4322 -0.0812851 0)
(12.4735 -0.107141 0)
(12.4992 -0.108925 0)
(12.4361 -0.105094 0)
(10.0536 -0.252232 0)
(10.3149 -0.45211 0)
(10.8946 -0.375021 0)
(11.1733 -0.245627 0)
(11.5217 -0.159332 0)
(11.5945 -0.149536 0)
(11.7938 -0.139319 0)
(11.8069 -0.141867 0)
(11.9694 -0.11653 0)
(11.9749 -0.115025 0)
(12.12 -0.0887867 0)
(12.1221 -0.0956096 0)
(12.2495 -0.0748536 0)
(12.2462 -0.092147 0)
(12.3519 -0.0760989 0)
(12.3411 -0.103192 0)
(12.4191 -0.0934397 0)
(12.3941 -0.132206 0)
(12.4198 -0.125386 0)
(12.3045 -0.141968 0)
(10.0499 -0.347114 0)
(10.3904 -0.562303 0)
(11.0491 -0.459322 0)
(11.2898 -0.290317 0)
(11.6535 -0.20745 0)
(11.6536 -0.18885 0)
(11.8745 -0.17619 0)
(11.7975 -0.166909 0)
(11.9738 -0.143026 0)
(11.8655 -0.131668 0)
(12.0186 -0.108366 0)
(11.8919 -0.107299 0)
(12.0254 -0.0890758 0)
(11.8846 -0.0999017 0)
(11.9939 -0.0843444 0)
(11.8411 -0.107594 0)
(11.9156 -0.0953421 0)
(11.7482 -0.13704 0)
(11.7554 -0.125797 0)
(11.5229 -0.163067 0)
(10.0038 -0.456184 0)
(10.5558 -0.700702 0)
(11.1711 -0.542314 0)
(11.3586 -0.348734 0)
(11.5573 -0.258914 0)
(11.4391 -0.224206 0)
(11.4936 -0.196972 0)
(11.2775 -0.173294 0)
(11.3042 -0.144116 0)
(11.0562 -0.12451 0)
(11.0945 -0.101339 0)
(10.8388 -0.0938989 0)
(10.8959 -0.0776471 0)
(10.635 -0.08233 0)
(10.7026 -0.0687944 0)
(10.4325 -0.0869444 0)
(10.4923 -0.0740838 0)
(10.2038 -0.115255 0)
(10.2106 -0.0972849 0)
(9.87289 -0.159232 0)
(10.0578 -0.629645 0)
(10.6514 -0.857679 0)
(10.8701 -0.597146 0)
(10.6864 -0.369796 0)
(10.4652 -0.253082 0)
(10.0844 -0.193497 0)
(9.85692 -0.150848 0)
(9.49813 -0.12013 0)
(9.35023 -0.0921007 0)
(9.04167 -0.0745812 0)
(8.97836 -0.0574633 0)
(8.70786 -0.0520084 0)
(8.70602 -0.0425809 0)
(8.44846 -0.0455265 0)
(8.48118 -0.0399828 0)
(8.21496 -0.0501017 0)
(8.25592 -0.0483377 0)
(7.95913 -0.0698681 0)
(7.96266 -0.0721365 0)
(7.61171 -0.0903099 0)
(10.0775 -0.834819 0)
(9.65873 -0.862818 0)
(8.88518 -0.503678 0)
(8.0992 -0.25968 0)
(7.51987 -0.136745 0)
(7.03236 -0.0809315 0)
(6.73717 -0.0529373 0)
(6.43171 -0.0397047 0)
(6.28114 -0.0289044 0)
(6.06074 -0.0239838 0)
(5.99656 -0.0179924 0)
(5.8151 -0.0181128 0)
(5.80033 -0.0147479 0)
(5.62606 -0.0183956 0)
(5.63415 -0.0159951 0)
(5.44661 -0.0229314 0)
(5.45736 -0.0222802 0)
(5.23337 -0.0329827 0)
(5.22416 -0.0393257 0)
(4.92019 -0.0223379 0)
(8.09331 -0.386567 0)
(5.46848 -0.242052 0)
(3.94013 -0.0432424 0)
(3.18889 0.0151334 0)
(2.83665 0.0180617 0)
(2.63444 0.0109577 0)
(2.52566 0.00562407 0)
(2.41994 0.00219125 0)
(2.36642 0.00155163 0)
(2.29183 0.000357185 0)
(2.26837 0.000777371 0)
(2.20734 -0.000290961 0)
(2.19825 0.000247724 0)
(2.13574 -0.00115163 0)
(2.12984 -0.000322888 0)
(2.05722 -0.00237568 0)
(2.04501 -0.00121102 0)
(1.95242 -0.00394924 0)
(1.91496 -0.0047628 0)
(1.75596 0.0119126 0)
(2.22042 -0.0868443 0)
(2.36683 0.00813775 0)
(2.62025 0.0119415 0)
(2.8421 -0.0120351 0)
(3.05706 -0.0369933 0)
(3.21738 -0.0502698 0)
(3.37548 -0.0594915 0)
(3.48531 -0.0616054 0)
(3.60025 -0.0744361 0)
(3.69195 -0.0889595 0)
(3.79581 -0.105417 0)
(3.88109 -0.119178 0)
(3.98093 -0.135333 0)
(4.06621 -0.14826 0)
(4.15918 -0.16252 0)
(4.24661 -0.174789 0)
(4.34309 -0.187435 0)
(4.44137 -0.200078 0)
(4.5601 -0.212489 0)
(4.67577 -0.223282 0)
(4.80331 -0.243084 0)
(4.91956 -0.264956 0)
(5.03963 -0.290923 0)
(5.14481 -0.316251 0)
(5.25317 -0.343312 0)
(5.34345 -0.367992 0)
(5.44312 -0.391467 0)
(5.52237 -0.40931 0)
(5.62258 -0.425005 0)
(5.70615 -0.440025 0)
(5.81912 -0.460412 0)
(5.91996 -0.483516 0)
(6.04562 -0.51302 0)
(6.15532 -0.543235 0)
(6.27783 -0.574877 0)
(6.38355 -0.60505 0)
(6.49796 -0.634082 0)
(6.59922 -0.661904 0)
(6.7089 -0.691982 0)
(6.80756 -0.723303 0)
(6.91373 -0.756612 0)
(7.00363 -0.791399 0)
(7.10213 -0.829429 0)
(7.1764 -0.866078 0)
(7.26281 -0.902971 0)
(7.3203 -0.933814 0)
(7.39903 -0.964081 0)
(7.44924 -0.98601 0)
(7.52832 -1.00936 0)
(7.58055 -1.02299 0)
(7.66522 -1.04173 0)
(7.72591 -1.05127 0)
(7.81679 -1.07056 0)
(7.88295 -1.08194 0)
(7.97428 -1.10575 0)
(8.03613 -1.12145 0)
(8.12128 -1.14923 0)
(8.16929 -1.16569 0)
(8.24264 -1.19054 0)
(8.27582 -1.20185 0)
(8.34345 -1.2221 0)
(8.37545 -1.22959 0)
(8.44512 -1.24774 0)
(8.49332 -1.25332 0)
(8.5651 -1.26904 0)
(8.62885 -1.27412 0)
(8.68604 -1.28727 0)
(8.74202 -1.29225 0)
(8.78511 -1.29837 0)
(8.82985 -1.30055 0)
(8.87294 -1.3093 0)
(8.91376 -1.30903 0)
(8.94526 -1.31724 0)
(8.98536 -1.31481 0)
(9.01178 -1.32525 0)
(9.05685 -1.3225 0)
(9.08221 -1.33384 0)
(9.13715 -1.3359 0)
(9.16531 -1.35055 0)
(9.2234 -1.35227 0)
(9.25484 -1.36311 0)
(9.30525 -1.35053 0)
(9.33226 -1.34631 0)
(9.37152 -1.31901 0)
(9.39439 -1.29983 0)
(9.42035 -1.26089 0)
(9.43969 -1.23629 0)
(9.46456 -1.19496 0)
(9.47462 -1.16858 0)
(9.49949 -1.12389 0)
(9.4982 -1.0922 0)
(9.52274 -1.03865 0)
(9.50427 -0.999512 0)
(9.52322 -0.945842 0)
(9.49286 -0.908215 0)
(9.51491 -0.855694 0)
(9.47135 -0.820016 0)
(9.4995 -0.773264 0)
(9.44952 -0.745779 0)
(9.49967 -0.711944 0)
(9.44149 -0.698773 0)
(9.51569 -0.6708 0)
(9.45455 -0.674416 0)
(9.54613 -0.651888 0)
(9.47602 -0.641647 0)
(9.56667 -0.61268 0)
(9.48612 -0.597294 0)
(9.56511 -0.561688 0)
(9.47108 -0.540276 0)
(9.52913 -0.501692 0)
(9.41883 -0.476659 0)
(9.45486 -0.435771 0)
(9.32602 -0.412718 0)
(9.35222 -0.369294 0)
(9.21299 -0.354903 0)
(9.26454 -0.3118 0)
(9.12534 -0.305216 0)
(9.19203 -0.258654 0)
(9.04079 -0.248264 0)
(9.09717 -0.19332 0)
(8.94834 -0.183173 0)
(9.00915 -0.134276 0)
(8.87689 -0.137174 0)
(8.94774 -0.095329 0)
(8.81868 -0.111967 0)
(8.89359 -0.0746957 0)
(8.76999 -0.0984659 0)
(8.83756 -0.0564843 0)
(8.72532 -0.0713855 0)
(8.77692 -0.0278895 0)
(8.67246 -0.037701 0)
(8.71853 0.00590831 0)
(8.61144 0.000199378 0)
(8.65623 0.0484989 0)
(8.54135 0.0368959 0)
(8.59079 0.088823 0)
(8.46795 0.0775236 0)
(8.52038 0.140675 0)
(8.39199 0.127601 0)
(8.45006 0.190962 0)
(8.31136 0.173762 0)
(8.36373 0.237903 0)
(8.22281 0.227576 0)
(8.2745 0.287602 0)
(8.14401 0.268632 0)
(8.20985 0.318728 0)
(8.06192 0.306896 0)
(8.15704 0.363645 0)
(7.97859 0.341492 0)
(8.11487 0.398752 0)
(7.91635 0.370394 0)
(8.06309 0.434525 0)
(7.87114 0.417316 0)
(8.00742 0.478789 0)
(7.82639 0.457412 0)
(7.95561 0.528761 0)
(7.78847 0.517959 0)
(7.90202 0.588083 0)
(7.76915 0.582539 0)
(7.87296 0.653288 0)
(7.78212 0.624475 0)
(7.85397 0.692048 0)
(7.79698 0.670083 0)
(7.82113 0.741514 0)
(7.77494 0.726493 0)
(7.76898 0.792087 0)
(7.75203 0.782746 0)
(7.7065 0.838218 0)
(7.70827 0.833059 0)
(7.60182 0.895458 0)
(7.65196 0.887545 0)
(7.44019 0.952836 0)
(7.5522 0.93698 0)
(7.26713 1.02802 0)
(7.43851 0.98131 0)
(7.11232 1.13453 0)
(7.34884 1.04141 0)
(6.95698 1.24993 0)
(7.3048 1.12519 0)
(6.81786 1.38843 0)
(7.25244 1.22865 0)
(6.72513 1.55346 0)
(7.15852 1.34846 0)
(6.67057 1.74622 0)
(7.05001 1.52801 0)
(6.60499 1.96264 0)
(6.94765 1.76597 0)
(6.48853 2.19545 0)
(6.84757 2.0619 0)
(6.30686 2.45096 0)
(6.74717 2.40635 0)
(6.07864 2.76722 0)
(6.56538 2.81442 0)
(5.85232 3.22179 0)
(6.2488 3.31003 0)
(5.69734 4.00109 0)
(5.84391 4.07208 0)
(5.24742 5.21262 0)
(6.1451 5.87276 0)
(3.90814 8.73362 0)
(5.26523 -0.056032 0)
(5.26314 -0.0236752 0)
(5.31276 -0.0386947 0)
(5.40354 -0.0793746 0)
(5.52402 -0.114857 0)
(5.62765 -0.132091 0)
(5.72161 -0.138834 0)
(5.78663 -0.14052 0)
(5.84465 -0.146404 0)
(5.88896 -0.157117 0)
(5.94134 -0.172461 0)
(5.98883 -0.188678 0)
(6.0503 -0.205597 0)
(6.10762 -0.220634 0)
(6.17794 -0.234574 0)
(6.2423 -0.248112 0)
(6.32046 -0.261484 0)
(6.39046 -0.275176 0)
(6.47615 -0.29116 0)
(6.55399 -0.307241 0)
(6.64526 -0.327357 0)
(6.72667 -0.349802 0)
(6.81559 -0.373731 0)
(6.89197 -0.397794 0)
(6.97708 -0.42156 0)
(7.0471 -0.444147 0)
(7.13174 -0.464628 0)
(7.19862 -0.483302 0)
(7.28581 -0.50165 0)
(7.35381 -0.520427 0)
(7.44814 -0.542412 0)
(7.52097 -0.566555 0)
(7.62196 -0.595482 0)
(7.69551 -0.624362 0)
(7.79462 -0.65562 0)
(7.86271 -0.682969 0)
(7.95377 -0.712418 0)
(8.01658 -0.73726 0)
(8.09906 -0.766883 0)
(8.15927 -0.793318 0)
(8.23608 -0.826162 0)
(8.29484 -0.855503 0)
(8.36761 -0.891048 0)
(8.42322 -0.921493 0)
(8.49284 -0.95566 0)
(8.54284 -0.983143 0)
(8.61107 -1.01266 0)
(8.65541 -1.0351 0)
(8.72425 -1.05898 0)
(8.76442 -1.07577 0)
(8.83474 -1.09458 0)
(8.87173 -1.10744 0)
(8.94247 -1.12455 0)
(8.97571 -1.1367 0)
(9.04326 -1.15523 0)
(9.07123 -1.16887 0)
(9.13181 -1.18926 0)
(9.15445 -1.20511 0)
(9.20813 -1.22511 0)
(9.2267 -1.24166 0)
(9.27808 -1.25943 0)
(9.29185 -1.27459 0)
(9.34417 -1.28956 0)
(9.35287 -1.30041 0)
(9.40531 -1.31206 0)
(9.41368 -1.31665 0)
(9.45801 -1.32158 0)
(9.46936 -1.32311 0)
(9.50706 -1.32834 0)
(9.52189 -1.33338 0)
(9.55215 -1.33481 0)
(9.56468 -1.33655 0)
(9.59266 -1.33795 0)
(9.60584 -1.34052 0)
(9.62925 -1.34764 0)
(9.64862 -1.34876 0)
(9.66347 -1.36032 0)
(9.69216 -1.36223 0)
(9.69511 -1.37513 0)
(9.72859 -1.37695 0)
(9.72601 -1.38336 0)
(9.75304 -1.37011 0)
(9.74875 -1.36418 0)
(9.7686 -1.33304 0)
(9.76108 -1.30979 0)
(9.77462 -1.27113 0)
(9.77027 -1.24438 0)
(9.77717 -1.19974 0)
(9.76698 -1.1725 0)
(9.76808 -1.12465 0)
(9.75469 -1.08961 0)
(9.74286 -1.03132 0)
(9.72139 -0.993014 0)
(9.69537 -0.934594 0)
(9.66801 -0.897195 0)
(9.63447 -0.839624 0)
(9.60879 -0.806247 0)
(9.57768 -0.759209 0)
(9.56981 -0.739224 0)
(9.55048 -0.70817 0)
(9.55243 -0.702861 0)
(9.55308 -0.680289 0)
(9.55543 -0.685705 0)
(9.55847 -0.660175 0)
(9.55171 -0.644401 0)
(9.55053 -0.612228 0)
(9.52747 -0.587494 0)
(9.51629 -0.548581 0)
(9.47342 -0.51747 0)
(9.44772 -0.473542 0)
(9.39401 -0.437274 0)
(9.34963 -0.391404 0)
(9.28737 -0.35827 0)
(9.23164 -0.322877 0)
(9.18885 -0.311027 0)
(9.14011 -0.280283 0)
(9.10338 -0.267198 0)
(9.04847 -0.223694 0)
(9.01216 -0.204075 0)
(8.94641 -0.159934 0)
(8.93173 -0.146649 0)
(8.86228 -0.114233 0)
(8.87433 -0.110749 0)
(8.80434 -0.0816074 0)
(8.83179 -0.0877811 0)
(8.75487 -0.0583866 0)
(8.79333 -0.0721573 0)
(8.69553 -0.0378565 0)
(8.7424 -0.0414953 0)
(8.62918 -0.00593739 0)
(8.67655 -0.0100203 0)
(8.558 0.0314581 0)
(8.60273 0.0269657 0)
(8.4813 0.0772934 0)
(8.52719 0.0710844 0)
(8.39063 0.120268 0)
(8.45079 0.114494 0)
(8.29786 0.163681 0)
(8.37755 0.163297 0)
(8.21257 0.209816 0)
(8.30793 0.214514 0)
(8.11403 0.267442 0)
(8.21969 0.270815 0)
(8.01985 0.318362 0)
(8.13644 0.299328 0)
(7.94391 0.352277 0)
(8.06001 0.332563 0)
(7.87902 0.387162 0)
(8.01472 0.358968 0)
(7.84462 0.413001 0)
(7.97125 0.381743 0)
(7.81365 0.447915 0)
(7.92872 0.421623 0)
(7.7827 0.492904 0)
(7.89446 0.460879 0)
(7.74754 0.551433 0)
(7.87596 0.508845 0)
(7.71138 0.608495 0)
(7.89751 0.559562 0)
(7.70612 0.666241 0)
(7.94098 0.59617 0)
(7.70343 0.721264 0)
(7.95469 0.652128 0)
(7.69937 0.778285 0)
(7.94971 0.699527 0)
(7.69747 0.827424 0)
(7.94214 0.741313 0)
(7.67098 0.904484 0)
(7.90544 0.799166 0)
(7.60215 0.98988 0)
(7.85042 0.859901 0)
(7.51361 1.07921 0)
(7.76187 0.904044 0)
(7.40069 1.15962 0)
(7.66527 0.938402 0)
(7.26824 1.24021 0)
(7.62314 0.99445 0)
(7.13973 1.34672 0)
(7.60157 1.08117 0)
(7.04649 1.48333 0)
(7.55412 1.18682 0)
(6.97653 1.62829 0)
(7.5068 1.33888 0)
(6.88033 1.78781 0)
(7.50129 1.54804 0)
(6.76612 1.97879 0)
(7.52237 1.79843 0)
(6.64269 2.21786 0)
(7.51605 2.07213 0)
(6.54088 2.54139 0)
(7.43216 2.36792 0)
(6.50058 2.96628 0)
(7.23002 2.72196 0)
(6.47743 3.52832 0)
(6.96454 3.24791 0)
(6.30688 4.24894 0)
(7.0653 4.18774 0)
(5.70378 5.51346 0)
(8.26139 5.12052 0)
(6.27861 9.28884 0)
(7.88851 -0.0818912 0)
(7.89078 -0.0888006 0)
(7.91989 -0.108758 0)
(7.98553 -0.132129 0)
(8.07491 -0.148272 0)
(8.15121 -0.154872 0)
(8.2087 -0.156904 0)
(8.239 -0.158356 0)
(8.25801 -0.163994 0)
(8.26818 -0.175145 0)
(8.28534 -0.191737 0)
(8.30439 -0.211124 0)
(8.33492 -0.231851 0)
(8.36644 -0.251956 0)
(8.40817 -0.271081 0)
(8.4481 -0.288823 0)
(8.49722 -0.305895 0)
(8.54137 -0.32235 0)
(8.59305 -0.339758 0)
(8.63945 -0.358141 0)
(8.69213 -0.378702 0)
(8.7406 -0.401143 0)
(8.79316 -0.424447 0)
(8.84202 -0.44824 0)
(8.8942 -0.471331 0)
(8.94394 -0.493853 0)
(8.9969 -0.514508 0)
(9.04866 -0.534794 0)
(9.10279 -0.553818 0)
(9.15447 -0.574394 0)
(9.20969 -0.595579 0)
(9.25949 -0.620389 0)
(9.31551 -0.646331 0)
(9.3597 -0.675152 0)
(9.41403 -0.703231 0)
(9.45009 -0.731749 0)
(9.50278 -0.758332 0)
(9.53296 -0.784432 0)
(9.58531 -0.810259 0)
(9.61311 -0.836131 0)
(9.66628 -0.864349 0)
(9.69632 -0.89247 0)
(9.74926 -0.924183 0)
(9.78216 -0.954107 0)
(9.83154 -0.986615 0)
(9.86498 -1.01524 0)
(9.90755 -1.04475 0)
(9.93845 -1.06893 0)
(9.97299 -1.09281 0)
(9.99998 -1.11116 0)
(10.0281 -1.12884 0)
(10.0509 -1.14263 0)
(10.0754 -1.15664 0)
(10.0936 -1.16857 0)
(10.1162 -1.18273 0)
(10.131 -1.1956 0)
(10.1527 -1.21309 0)
(10.167 -1.22868 0)
(10.187 -1.24857 0)
(10.2011 -1.26379 0)
(10.2132 -1.27994 0)
(10.2239 -1.29126 0)
(10.2233 -1.3009 0)
(10.2256 -1.30878 0)
(10.2144 -1.31279 0)
(10.2067 -1.31708 0)
(10.1943 -1.31966 0)
(10.1863 -1.32568 0)
(10.1832 -1.33222 0)
(10.1729 -1.3388 0)
(10.1702 -1.34213 0)
(10.1578 -1.34396 0)
(10.1586 -1.34354 0)
(10.1427 -1.34843 0)
(10.1469 -1.35208 0)
(10.1246 -1.35653 0)
(10.1262 -1.36285 0)
(10.1021 -1.36464 0)
(10.0989 -1.37583 0)
(10.0799 -1.37693 0)
(10.0725 -1.38115 0)
(10.0539 -1.36892 0)
(10.0488 -1.35993 0)
(10.0238 -1.32574 0)
(10.0205 -1.30395 0)
(9.99262 -1.26256 0)
(9.98705 -1.23295 0)
(9.94677 -1.18624 0)
(9.94202 -1.15753 0)
(9.89022 -1.10813 0)
(9.88685 -1.06755 0)
(9.82076 -1.00649 0)
(9.81 -0.966146 0)
(9.7341 -0.903754 0)
(9.72119 -0.865182 0)
(9.64604 -0.808141 0)
(9.63013 -0.780282 0)
(9.56825 -0.738497 0)
(9.57444 -0.726588 0)
(9.52513 -0.699663 0)
(9.54506 -0.702772 0)
(9.51016 -0.681689 0)
(9.51765 -0.689649 0)
(9.48807 -0.654253 0)
(9.4765 -0.639078 0)
(9.45047 -0.593076 0)
(9.41092 -0.571351 0)
(9.39196 -0.515964 0)
(9.3236 -0.49042 0)
(9.30989 -0.426505 0)
(9.21694 -0.398575 0)
(9.20288 -0.331053 0)
(9.09804 -0.316891 0)
(9.11546 -0.277444 0)
(9.01726 -0.278768 0)
(9.03224 -0.233381 0)
(8.91585 -0.228463 0)
(8.93131 -0.172826 0)
(8.80332 -0.168849 0)
(8.83956 -0.113966 0)
(8.71547 -0.123298 0)
(8.76702 -0.079153 0)
(8.65462 -0.0990713 0)
(8.71364 -0.0560636 0)
(8.60645 -0.079507 0)
(8.66888 -0.029716 0)
(8.55493 -0.057845 0)
(8.61408 0.0008557 0)
(8.48961 -0.0250394 0)
(8.54967 0.0397204 0)
(8.41198 0.010027 0)
(8.4665 0.0851923 0)
(8.32717 0.049698 0)
(8.37338 0.135479 0)
(8.24093 0.0995216 0)
(8.26994 0.183965 0)
(8.15019 0.14591 0)
(8.17028 0.219375 0)
(8.06043 0.18546 0)
(8.08578 0.261425 0)
(7.97015 0.233927 0)
(8.00672 0.328418 0)
(7.86296 0.290634 0)
(7.93651 0.373559 0)
(7.78214 0.312687 0)
(7.87696 0.402175 0)
(7.72059 0.345231 0)
(7.83167 0.426307 0)
(7.68236 0.360086 0)
(7.81449 0.451203 0)
(7.63963 0.381291 0)
(7.8157 0.493611 0)
(7.59749 0.408499 0)
(7.80234 0.540196 0)
(7.57916 0.448725 0)
(7.78974 0.604959 0)
(7.58394 0.475358 0)
(7.78553 0.644006 0)
(7.62348 0.510913 0)
(7.79467 0.688828 0)
(7.65708 0.560152 0)
(7.81675 0.757896 0)
(7.66914 0.617674 0)
(7.83646 0.823601 0)
(7.69345 0.660338 0)
(7.84023 0.880815 0)
(7.70135 0.711282 0)
(7.81137 0.967757 0)
(7.70327 0.779557 0)
(7.75917 1.06564 0)
(7.69399 0.851167 0)
(7.66266 1.16072 0)
(7.71307 0.912865 0)
(7.51429 1.24338 0)
(7.76872 0.965785 0)
(7.33643 1.32258 0)
(7.81197 1.0053 0)
(7.19525 1.42027 0)
(7.84039 1.07731 0)
(7.09029 1.54201 0)
(7.87482 1.19364 0)
(6.97037 1.68071 0)
(7.91208 1.34 0)
(6.84366 1.85967 0)
(7.92472 1.50682 0)
(6.76992 2.09204 0)
(7.89752 1.70175 0)
(6.7722 2.38844 0)
(7.79993 1.93118 0)
(6.84017 2.73295 0)
(7.65687 2.23392 0)
(6.9238 3.13368 0)
(7.59172 2.64963 0)
(6.88637 3.59984 0)
(7.81742 3.23394 0)
(6.60204 4.36812 0)
(8.55233 3.77172 0)
(6.35363 6.07314 0)
(9.49573 3.78364 0)
(7.91453 8.53704 0)
(10.0601 -0.115835 0)
(10.0776 -0.226994 0)
(10.1245 -0.270304 0)
(10.1879 -0.261786 0)
(10.2574 -0.233391 0)
(10.3073 -0.204827 0)
(10.3385 -0.186031 0)
(10.3475 -0.177813 0)
(10.3497 -0.180014 0)
(10.3465 -0.189804 0)
(10.3495 -0.206394 0)
(10.3542 -0.226441 0)
(10.367 -0.24917 0)
(10.3801 -0.271403 0)
(10.3996 -0.293441 0)
(10.4173 -0.31318 0)
(10.4397 -0.332347 0)
(10.4587 -0.349657 0)
(10.4824 -0.367816 0)
(10.5028 -0.38564 0)
(10.5284 -0.405767 0)
(10.5503 -0.426302 0)
(10.5772 -0.449321 0)
(10.5994 -0.471682 0)
(10.6262 -0.495595 0)
(10.6488 -0.517567 0)
(10.6743 -0.540042 0)
(10.6975 -0.560214 0)
(10.721 -0.58112 0)
(10.7449 -0.601022 0)
(10.7649 -0.622571 0)
(10.7886 -0.644808 0)
(10.8044 -0.668896 0)
(10.8265 -0.694726 0)
(10.8382 -0.720729 0)
(10.8572 -0.748147 0)
(10.8674 -0.773876 0)
(10.8843 -0.801817 0)
(10.8978 -0.82746 0)
(10.9138 -0.856131 0)
(10.9329 -0.883133 0)
(10.9482 -0.914153 0)
(10.9716 -0.943796 0)
(10.9841 -0.976023 0)
(11.0071 -1.00617 0)
(11.0141 -1.03623 0)
(11.0322 -1.06303 0)
(11.033 -1.08734 0)
(11.0442 -1.10811 0)
(11.0407 -1.12539 0)
(11.0455 -1.14 0)
(11.0396 -1.15201 0)
(11.0393 -1.16255 0)
(11.0325 -1.17319 0)
(11.0308 -1.18432 0)
(11.025 -1.19816 0)
(11.0246 -1.21295 0)
(11.017 -1.22899 0)
(11.0148 -1.24429 0)
(10.9975 -1.25672 0)
(10.9876 -1.26826 0)
(10.9581 -1.27452 0)
(10.9367 -1.2814 0)
(10.8977 -1.28223 0)
(10.8619 -1.2847 0)
(10.8209 -1.28673 0)
(10.7791 -1.29491 0)
(10.7448 -1.30468 0)
(10.7018 -1.31147 0)
(10.6696 -1.31819 0)
(10.6232 -1.32245 0)
(10.5865 -1.3241 0)
(10.5419 -1.32386 0)
(10.5077 -1.32815 0)
(10.4599 -1.32866 0)
(10.4181 -1.3345 0)
(10.3704 -1.33559 0)
(10.3306 -1.34449 0)
(10.2921 -1.35252 0)
(10.2632 -1.35805 0)
(10.2246 -1.35593 0)
(10.2031 -1.35027 0)
(10.1571 -1.33076 0)
(10.1345 -1.30364 0)
(10.0863 -1.27731 0)
(10.059 -1.23655 0)
(10.0046 -1.20179 0)
(9.97167 -1.16555 0)
(9.92103 -1.12942 0)
(9.88504 -1.08291 0)
(9.82544 -1.03361 0)
(9.78379 -0.970648 0)
(9.7157 -0.922108 0)
(9.67465 -0.860111 0)
(9.61186 -0.820187 0)
(9.57502 -0.765812 0)
(9.5153 -0.746105 0)
(9.49255 -0.711024 0)
(9.44954 -0.709271 0)
(9.43144 -0.682275 0)
(9.40477 -0.690943 0)
(9.38018 -0.663684 0)
(9.35267 -0.676423 0)
(9.32445 -0.62968 0)
(9.29111 -0.622473 0)
(9.25822 -0.562932 0)
(9.20697 -0.547552 0)
(9.17469 -0.475984 0)
(9.10635 -0.457225 0)
(9.072 -0.377615 0)
(8.98005 -0.354669 0)
(8.95289 -0.285242 0)
(8.88014 -0.296564 0)
(8.88662 -0.248024 0)
(8.79713 -0.249514 0)
(8.80367 -0.187826 0)
(8.68927 -0.187954 0)
(8.69391 -0.122824 0)
(8.56836 -0.132876 0)
(8.60025 -0.0730716 0)
(8.47729 -0.102666 0)
(8.52553 -0.0487464 0)
(8.41652 -0.0878774 0)
(8.45884 -0.0288469 0)
(8.36889 -0.0704514 0)
(8.39756 -0.003807 0)
(8.31035 -0.0436952 0)
(8.33605 0.0355509 0)
(8.24554 -0.00957593 0)
(8.26635 0.0838734 0)
(8.17505 0.0327057 0)
(8.18196 0.135869 0)
(8.08882 0.0791733 0)
(8.0918 0.186713 0)
(7.99907 0.129544 0)
(7.99744 0.234787 0)
(7.90513 0.177445 0)
(7.90137 0.267064 0)
(7.80377 0.213991 0)
(7.81945 0.309564 0)
(7.70544 0.261924 0)
(7.74354 0.375799 0)
(7.62652 0.313227 0)
(7.6903 0.406498 0)
(7.59451 0.329271 0)
(7.64752 0.433795 0)
(7.56534 0.35871 0)
(7.61386 0.445661 0)
(7.5593 0.362453 0)
(7.58435 0.46218 0)
(7.56265 0.37917 0)
(7.56863 0.506752 0)
(7.57569 0.408243 0)
(7.54004 0.545937 0)
(7.6057 0.442145 0)
(7.54195 0.594224 0)
(7.63016 0.465256 0)
(7.56355 0.643991 0)
(7.66354 0.506325 0)
(7.56434 0.680396 0)
(7.70406 0.538439 0)
(7.58846 0.752706 0)
(7.7619 0.575744 0)
(7.56916 0.809885 0)
(7.86054 0.624498 0)
(7.51972 0.891447 0)
(7.92907 0.693095 0)
(7.4496 0.996241 0)
(7.99323 0.751525 0)
(7.38326 1.10996 0)
(8.07486 0.811972 0)
(7.28481 1.20895 0)
(8.16305 0.864133 0)
(7.17636 1.28877 0)
(8.2206 0.908957 0)
(7.09455 1.38055 0)
(8.21548 0.958275 0)
(7.03306 1.47919 0)
(8.19385 1.02421 0)
(6.97927 1.60602 0)
(8.19162 1.12154 0)
(6.96133 1.78492 0)
(8.16361 1.23516 0)
(6.99694 1.99903 0)
(8.08586 1.38185 0)
(7.07641 2.23934 0)
(8.01184 1.58075 0)
(7.1574 2.51108 0)
(8.00595 1.8603 0)
(7.17031 2.82325 0)
(8.1082 2.18686 0)
(7.08417 3.22873 0)
(8.4094 2.55693 0)
(6.89157 3.8176 0)
(8.93683 2.8239 0)
(6.78379 4.84349 0)
(9.66029 2.87648 0)
(7.23572 6.32806 0)
(10.0276 3.04406 0)
(8.81692 7.48644 0)
(11.5445 -0.100254 0)
(11.5847 -0.242327 0)
(11.6989 -0.299782 0)
(11.7914 -0.291824 0)
(11.8531 -0.255005 0)
(11.8808 -0.2156 0)
(11.8867 -0.18863 0)
(11.8768 -0.177124 0)
(11.8641 -0.179149 0)
(11.8489 -0.190454 0)
(11.8392 -0.208505 0)
(11.8305 -0.229933 0)
(11.8282 -0.253432 0)
(11.8264 -0.276598 0)
(11.8291 -0.29925 0)
(11.8313 -0.320076 0)
(11.8361 -0.339748 0)
(11.8401 -0.358098 0)
(11.8459 -0.376285 0)
(11.851 -0.394713 0)
(11.8573 -0.414329 0)
(11.8617 -0.435126 0)
(11.8671 -0.45746 0)
(11.8687 -0.48025 0)
(11.8721 -0.503872 0)
(11.8701 -0.526572 0)
(11.8717 -0.549351 0)
(11.8671 -0.5702 0)
(11.8682 -0.591666 0)
(11.8632 -0.611076 0)
(11.864 -0.63238 0)
(11.8602 -0.652214 0)
(11.8599 -0.675685 0)
(11.8581 -0.697727 0)
(11.855 -0.723759 0)
(11.8557 -0.747992 0)
(11.8493 -0.776076 0)
(11.8528 -0.802309 0)
(11.8439 -0.831742 0)
(11.8498 -0.860016 0)
(11.8392 -0.89083 0)
(11.8454 -0.921282 0)
(11.8333 -0.952651 0)
(11.8367 -0.983499 0)
(11.8224 -1.01317 0)
(11.8201 -1.04094 0)
(11.8031 -1.06584 0)
(11.7937 -1.08757 0)
(11.7736 -1.10586 0)
(11.7569 -1.12032 0)
(11.7331 -1.1325 0)
(11.7111 -1.14162 0)
(11.6851 -1.15165 0)
(11.6625 -1.1611 0)
(11.6366 -1.17368 0)
(11.6148 -1.18608 0)
(11.5853 -1.19983 0)
(11.5583 -1.21185 0)
(11.5192 -1.22298 0)
(11.4822 -1.23243 0)
(11.4347 -1.24006 0)
(11.3852 -1.24431 0)
(11.3322 -1.24603 0)
(11.2694 -1.24395 0)
(11.2164 -1.24514 0)
(11.1498 -1.2469 0)
(11.1012 -1.25535 0)
(11.0282 -1.26004 0)
(10.9719 -1.26787 0)
(10.8952 -1.26794 0)
(10.8322 -1.27198 0)
(10.7522 -1.26954 0)
(10.6907 -1.2735 0)
(10.6136 -1.27161 0)
(10.5476 -1.27477 0)
(10.4696 -1.27789 0)
(10.407 -1.28723 0)
(10.3432 -1.30005 0)
(10.296 -1.31499 0)
(10.2404 -1.31954 0)
(10.1938 -1.32225 0)
(10.141 -1.31144 0)
(10.0848 -1.29315 0)
(10.0376 -1.26686 0)
(9.97759 -1.2396 0)
(9.92457 -1.19771 0)
(9.87153 -1.16728 0)
(9.81887 -1.1282 0)
(9.76479 -1.09438 0)
(9.71322 -1.03246 0)
(9.64357 -0.98578 0)
(9.58876 -0.915561 0)
(9.52768 -0.879542 0)
(9.47266 -0.810311 0)
(9.42805 -0.788599 0)
(9.37209 -0.722144 0)
(9.33801 -0.725709 0)
(9.28783 -0.670573 0)
(9.25416 -0.694176 0)
(9.20681 -0.646614 0)
(9.18566 -0.676237 0)
(9.12724 -0.624659 0)
(9.1177 -0.658052 0)
(9.0433 -0.585625 0)
(9.03714 -0.595247 0)
(8.94583 -0.514696 0)
(8.93902 -0.513308 0)
(8.83803 -0.42121 0)
(8.81869 -0.415632 0)
(8.70681 -0.31064 0)
(8.67942 -0.312868 0)
(8.60743 -0.243822 0)
(8.59625 -0.279042 0)
(8.52853 -0.200115 0)
(8.49701 -0.221914 0)
(8.43572 -0.126377 0)
(8.37227 -0.146435 0)
(8.31693 -0.0538091 0)
(8.25714 -0.0994752 0)
(8.21323 -0.0177158 0)
(8.16362 -0.0843209 0)
(8.1286 -0.000131776 0)
(8.09467 -0.0723555 0)
(8.05442 0.0168185 0)
(8.03902 -0.0531381 0)
(7.98288 0.0411012 0)
(7.97351 -0.0289602 0)
(7.92078 0.080625 0)
(7.90505 0.00806316 0)
(7.8592 0.135183 0)
(7.83946 0.0560772 0)
(7.78764 0.188777 0)
(7.76007 0.105567 0)
(7.7118 0.242384 0)
(7.67721 0.151779 0)
(7.63124 0.293902 0)
(7.58938 0.198778 0)
(7.54048 0.332216 0)
(7.49518 0.229915 0)
(7.45475 0.373836 0)
(7.41739 0.272071 0)
(7.37854 0.426791 0)
(7.38733 0.300951 0)
(7.35728 0.432922 0)
(7.37987 0.315636 0)
(7.33661 0.468919 0)
(7.36922 0.338192 0)
(7.31652 0.475332 0)
(7.38785 0.334733 0)
(7.29448 0.502565 0)
(7.41509 0.347708 0)
(7.27234 0.543092 0)
(7.44833 0.37595 0)
(7.28256 0.585493 0)
(7.4751 0.399454 0)
(7.3141 0.622246 0)