/*--------------------------------*- C++ -*----------------------------------*\
| =========                 |                                                 |
| \\      /  F ield         | OpenFOAM: The Open Source CFD Toolbox           |
|  \\    /   O peration     | Version:  2.4.0                                 |
|   \\  /    A nd           | Web:      www.OpenFOAM.org                      |
|    \\/     M anipulation  |                                                 |
\*---------------------------------------------------------------------------*/
FoamFile
{
    version     2.0;
    format      ascii;
    class       volScalarField;
    location    "0.49";
    object      k;
}
// * * * * * * * * * * * * * * * * * * * * * * * * * * * * * * * * * * * * * //

dimensions      [0 2 -2 0 0 0 0];

internalField   nonuniform List<scalar> 
8800
(
8.11719
10.2674
8.79305
6.82048
5.71128
4.96505
4.53195
4.14216
3.91371
3.66773
3.5427
3.37194
3.2903
3.16168
3.09868
2.98102
2.91345
2.80508
2.73167
2.53773
1.40228
4.35315
5.31881
5.28735
5.13262
4.80452
4.57826
4.28845
4.11404
3.88777
3.7687
3.59352
3.51375
3.38071
3.3281
3.21041
3.17161
3.07836
3.00574
2.96089
0.0842806
0.731167
1.56439
1.94061
2.27664
2.43988
2.57285
2.60121
2.6236
2.60299
2.58622
2.54325
2.52466
2.4728
2.45906
2.41175
2.40595
2.36619
2.34867
2.31145
0.00334772
0.0698382
0.260018
0.419021
0.580438
0.708208
0.833405
0.927976
1.0272
1.09666
1.15483
1.21232
1.26578
1.29606
1.33864
1.36735
1.4021
1.43411
1.45036
1.47641
0.000121853
0.00495369
0.0231738
0.0567399
0.0797367
0.12816
0.160156
0.207334
0.241111
0.290664
0.312965
0.3607
0.384363
0.431571
0.453159
0.503374
0.524472
0.579434
0.601133
0.65875
2.52057e-05
0.000309553
0.00151445
0.00472742
0.00695554
0.012745
0.017123
0.0268761
0.0327338
0.0451441
0.0509417
0.0639657
0.0709894
0.0859598
0.0931854
0.111385
0.11956
0.139622
0.150663
0.174861
2.18639e-05
4.4632e-05
0.000121328
0.000351123
0.000488296
0.000868165
0.00118433
0.00204689
0.00261589
0.00397224
0.00463418
0.00628807
0.00729808
0.0094549
0.0106973
0.0140614
0.0154709
0.0194338
0.0217039
0.0269841
2.09619e-05
2.9198e-05
5.72726e-05
8.54806e-05
9.01765e-05
0.000112653
0.000131086
0.000180169
0.000211468
0.000292434
0.000327378
0.000427537
0.000491582
0.000639101
0.00073861
0.00100523
0.001128
0.00135974
0.00194907
0.00218742
2.0831e-05
2.78346e-05
4.02862e-05
6.17263e-05
7.07157e-05
7.08713e-05
7.43529e-05
7.98175e-05
8.65772e-05
8.79886e-05
9.16996e-05
9.26044e-05
9.97247e-05
0.000104094
0.000118016
0.000126286
0.00013157
0.000139924
0.000180641
0.000190404
2.0576e-05
2.70252e-05
4.63232e-05
5.66638e-05
5.83119e-05
6.33169e-05
6.47871e-05
6.91664e-05
7.31801e-05
7.37194e-05
7.4158e-05
7.36098e-05
7.36165e-05
7.30868e-05
7.37366e-05
7.86677e-05
8.01385e-05
8.31638e-05
8.50392e-05
9.00614e-05
2.06392e-05
2.80567e-05
3.67472e-05
5.4435e-05
6.47472e-05
6.60218e-05
6.58008e-05
6.66391e-05
7.04283e-05
7.36392e-05
7.463e-05
7.35839e-05
7.42301e-05
7.49966e-05
7.77678e-05
7.91762e-05
7.99336e-05
8.35976e-05
8.52819e-05
8.63799e-05
2.08114e-05
3.0958e-05
3.97556e-05
5.88271e-05
6.89604e-05
7.39485e-05
7.45448e-05
7.77091e-05
7.95971e-05
8.56633e-05
8.81137e-05
9.48187e-05
9.79905e-05
0.000105131
0.000109883
0.000120328
0.000132776
0.000152993
0.000174722
0.000192374
2.10619e-05
3.04585e-05
4.52661e-05
7.76386e-05
9.10778e-05
0.000114506
0.00013128
0.000178073
0.000207266
0.000278057
0.000322589
0.00044055
0.000503812
0.000678589
0.000788538
0.00104974
0.00122375
0.00163389
0.00203584
0.00253786
2.16409e-05
4.3418e-05
0.000117517
0.000343036
0.000513237
0.000898577
0.00122373
0.00207106
0.00259566
0.00384462
0.00462357
0.00648014
0.00743009
0.00984098
0.011226
0.0143429
0.0161813
0.0207642
0.0236474
0.0305461
2.49723e-05
0.000307731
0.00143266
0.00455561
0.00726286
0.0130319
0.0172034
0.0271203
0.0325519
0.0445612
0.0510197
0.0652233
0.0717611
0.0873853
0.0952158
0.112894
0.122163
0.145558
0.158529
0.191721
0.000123407
0.00493
0.02174
0.054611
0.0872437
0.126617
0.156518
0.211897
0.238105
0.288641
0.314862
0.364397
0.385484
0.434791
0.457466
0.507484
0.531177
0.592002
0.620802
0.692032
0.00336288
0.0695725
0.259189
0.417452
0.588913
0.700431
0.83353
0.934846
1.02094
1.09496
1.16201
1.21905
1.25315
1.31149
1.33602
1.38382
1.40442
1.45902
1.47997
1.52435
0.0845565
0.727971
1.5665
1.93844
2.28552
2.42645
2.58308
2.59718
2.62598
2.59904
2.58986
2.54176
2.52537
2.47594
2.4627
2.41944
2.40987
2.38298
2.37022
2.33785
1.40636
4.3486
5.32234
5.28698
5.13303
4.79748
4.59052
4.27125
4.13434
3.86974
3.77795
3.57713
3.52129
3.3642
3.32697
3.19863
3.16787
3.04555
3.00516
2.9018
8.12173
10.2627
8.79752
6.81499
5.71458
4.96018
4.54016
4.12678
3.9301
3.64814
3.55359
3.34492
3.30085
3.1286
3.09652
2.93284
2.89847
2.71653
2.65185
2.44026
1.76436
1.29414
1.02201
0.852308
0.747119
0.677883
0.636938
0.607188
0.591746
0.576805
0.570841
0.563599
0.562772
0.561112
0.561349
0.560885
0.558603
0.555536
0.547401
0.543781
0.536672
0.534516
0.533708
0.527591
0.521741
0.505161
0.497076
0.475678
0.467712
0.446685
0.437804
0.414085
0.404256
0.378445
0.369006
0.344572
0.33655
0.3148
0.30749
0.287195
0.27975
0.258086
0.24829
0.223592
0.211511
0.18267
0.168523
0.140641
0.12708
0.109031
0.0977432
0.0877279
0.0802857
0.0740973
0.0712718
0.0664939
0.0653278
0.0623949
0.061802
0.0605122
0.0604577
0.0605781
0.0609975
0.0619564
0.0645145
0.0661076
0.0696427
0.0720389
0.0778298
0.0824145
0.0923548
0.100572
0.115737
0.133508
0.153627
0.184094
0.206192
0.23709
0.258298
0.273834
0.285642
0.292354
0.297254
0.30008
0.303173
0.304536
0.305737
0.303711
0.302485
0.29725
0.299333
0.296912
0.30166
0.298509
0.299335
0.295141
0.294249
0.290788
0.29099
0.28925
0.289006
0.285929
0.284434
0.279754
0.277943
0.273584
0.272135
0.269072
0.267857
0.265478
0.262081
0.255518
0.250766
0.238258
0.229587
0.216496
0.203727
0.190657
0.180299
0.172464
0.164378
0.159452
0.152113
0.146869
0.138663
0.13055
0.118621
0.101575
0.0817874
0.053268
0.0310217
0.0185358
0.0115308
0.00803088
0.00635359
0.00566303
0.00564637
0.00587266
0.00683725
0.00978512
0.016804
0.0315845
0.0470259
0.071761
0.119782
0.150123
0.179276
0.283427
0.452778
0.467184
0.390575
0.368004
0.364603
0.341044
0.284282
0.232349
0.188006
0.158289
0.142357
0.125074
0.109712
0.105244
0.10619
0.112204
0.120513
0.133136
0.143991
0.143018
0.13398
0.0972248
0.0569798
0.0379018
0.0335205
0.0348869
0.0499224
0.130252
0.194561
0.195986
0.183159
0.130472
0.0848931
0.0765858
0.0688948
0.0697615
0.0721062
0.0647019
0.064958
0.061411
0.0584033
0.0582913
0.0558636
0.0551365
0.0526331
0.0530779
0.053543
0.0559054
0.0572225
0.0611064
0.0718554
0.122961
2.49791
2.03711
1.70264
1.46886
1.29922
1.17463
1.0767
1.00127
0.936247
0.886977
0.841868
0.809447
0.778566
0.756346
0.736038
0.719049
0.706261
0.690707
0.682253
0.665948
0.65992
0.645832
0.641311
0.628829
0.624988
0.613062
0.609494
0.597963
0.594621
0.583601
0.580355
0.569683
0.565654
0.554469
0.549363
0.537845
0.531949
0.519938
0.514016
0.502381
0.495802
0.487112
0.476087
0.469855
0.452708
0.443222
0.420446
0.407484
0.379296
0.355141
0.333346
0.29949
0.282434
0.252942
0.236602
0.217323
0.201055
0.192285
0.179744
0.174827
0.169733
0.17006
0.169983
0.173116
0.175381
0.183029
0.187223
0.198851
0.204899
0.221183
0.229628
0.250702
0.259599
0.281222
0.287423
0.302288
0.304025
0.308732
0.306155
0.307916
0.303388
0.303595
0.296532
0.294493
0.283098
0.277748
0.262542
0.2551
0.238877
0.231428
0.221096
0.217341
0.208334
0.206872
0.203079
0.203162
0.199771
0.19932
0.197944
0.199544
0.200422
0.204139
0.204764
0.206244
0.205635
0.205099
0.200292
0.198451
0.195204
0.195372
0.194634
0.194502
0.197311
0.197831
0.197337
0.196227
0.192993
0.188751
0.180827
0.175281
0.164102
0.157243
0.144327
0.132194
0.116601
0.0947182
0.0734801
0.0482686
0.0303526
0.0188963
0.0124262
0.00842329
0.00635936
0.00537021
0.00514832
0.00525212
0.00574905
0.0073334
0.0114503
0.0207831
0.0421383
0.0628882
0.0985811
0.152779
0.194234
0.216269
0.267243
0.454851
0.495199
0.412474
0.361781
0.364105
0.354383
0.319792
0.249042
0.191874
0.15016
0.124963
0.111846
0.103467
0.0949439
0.0921372
0.0927165
0.0978339
0.104951
0.115305
0.130025
0.138652
0.135439
0.120735
0.0754137
0.045802
0.0349896
0.0343064
0.0392783
0.0685664
0.156053
0.184855
0.180478
0.162121
0.110486
0.0830182
0.0802345
0.0737772
0.0771826
0.0715542
0.0677646
0.0638347
0.0588045
0.0584227
0.057101
0.0573602
0.0564638
0.0566075
0.0565053
0.058126
0.0588979
0.0603013
0.0650486
0.0749634
2.06594
1.81472
1.59267
1.43285
1.29416
1.19676
1.10181
1.03761
0.968325
0.922107
0.869209
0.833626
0.794127
0.766005
0.738094
0.715026
0.697104
0.676578
0.666481
0.647333
0.639782
0.623978
0.617186
0.602617
0.596553
0.584626
0.57738
0.569096
0.560107
0.556256
0.547115
0.543965
0.536041
0.533833
0.525814
0.524006
0.516071
0.515213
0.50849
0.508033
0.502735
0.503501
0.49937
0.500029
0.496051
0.49594
0.491822
0.490167
0.483723
0.479662
0.469908
0.463805
0.450363
0.443118
0.426914
0.420224
0.402633
0.397225
0.38158
0.377584
0.365311
0.362586
0.354815
0.353483
0.349156
0.349398
0.347772
0.348925
0.34829
0.349278
0.347657
0.347324
0.344746
0.34256
0.337203
0.332765
0.323653
0.317353
0.304136
0.295397
0.275887
0.264658
0.240279
0.227905
0.202728
0.187182
0.163203
0.147916
0.127645
0.115434
0.100144
0.0919876
0.0826582
0.0802534
0.0767048
0.0765592
0.0762607
0.076231
0.0756378
0.0759155
0.0765035
0.0784029
0.0799991
0.0843154
0.0873515
0.0914933
0.0922774
0.0934461
0.0932224
0.0931506
0.0936754
0.093667
0.0958415
0.0991107
0.10115
0.105359
0.107275
0.106907
0.105376
0.101073
0.0958219
0.0848364
0.073149
0.0582281
0.0436533
0.0315112
0.0223771
0.0158197
0.0110558
0.00805325
0.00617461
0.0049859
0.00461345
0.0046504
0.00492225
0.00591103
0.00844857
0.0142734
0.0270961
0.0565591
0.087462
0.130729
0.203434
0.243714
0.260354
0.28916
0.425261
0.520791
0.456839
0.348035
0.358388
0.364876
0.347699
0.29346
0.209074
0.152763
0.125714
0.111492
0.1002
0.0915153
0.0848786
0.0824265
0.0827351
0.0869765
0.0944418
0.101556
0.113657
0.130156
0.132656
0.126924
0.09838
0.059815
0.0393367
0.0341688
0.0352972
0.0474736
0.106096
0.168348
0.17303
0.165098
0.139808
0.0950469
0.0889177
0.0769367
0.0771866
0.0756649
0.0716086
0.0692041
0.0637184
0.061456
0.0583631
0.0586008
0.0572461
0.0579368
0.0579508
0.0589128
0.062716
0.0650681
0.0701376
0.0749592
1.37188
1.2565
1.12933
1.04954
0.964662
0.912118
0.847281
0.807913
0.7557
0.724976
0.682854
0.657574
0.623718
0.602821
0.576081
0.558895
0.538303
0.524701
0.508825
0.499881
0.485682
0.480196
0.468582
0.463973
0.452422
0.44797
0.436211
0.431839
0.42025
0.416984
0.407841
0.405589
0.398214
0.396477
0.389993
0.388775
0.38392
0.383445
0.380898
0.381458
0.38072
0.382399
0.383079
0.38677
0.389131
0.395703
0.399417
0.407137
0.411123
0.416649
0.419082
0.422258
0.422443
0.422119
0.420927
0.417514
0.415351
0.411076
0.408899
0.403702
0.401474
0.395959
0.394327
0.388392
0.386498
0.380341
0.377867
0.370133
0.366114
0.354795
0.34939
0.334642
0.327133
0.307976
0.297867
0.27436
0.261828
0.235644
0.218171
0.189609
0.167227
0.140245
0.119614
0.0969234
0.0808332
0.0663791
0.0565831
0.0477145
0.0411285
0.0351283
0.0305897
0.0267947
0.0238523
0.0219785
0.0209897
0.0209595
0.0212165
0.0215842
0.0221024
0.0220901
0.021662
0.0212549
0.0212475
0.021366
0.0216347
0.0229557
0.02391
0.0258278
0.0271528
0.0276715
0.0286821
0.028984
0.0295379
0.0299358
0.0309756
0.0324405
0.0331302
0.0329747
0.0322349
0.0306269
0.0279322
0.0245128
0.0209329
0.0171211
0.0139971
0.0107607
0.00855555
0.00671958
0.00523259
0.00455706
0.00403305
0.00406825
0.00423776
0.00481284
0.00655433
0.0107315
0.018798
0.0361741
0.0760524
0.116792
0.180468
0.263129
0.297423
0.304188
0.321684
0.386156
0.533544
0.493087
0.383592
0.331918
0.361025
0.366583
0.338603
0.254886
0.180691
0.138044
0.12013
0.10887
0.0982874
0.0888359
0.0820726
0.0783878
0.0780842
0.0798967
0.0883506
0.0942495
0.104447
0.116941
0.128546
0.126607
0.11386
0.0719881
0.0453064
0.0352131
0.0346025
0.0380939
0.0595835
0.128649
0.163408
0.162542
0.154907
0.123111
0.099925
0.082773
0.0779039
0.0768028
0.0750421
0.073459
0.0691508
0.0660128
0.0609759
0.0599721
0.0573526
0.0571422
0.0576136
0.0585903
0.0618931
0.0646091
0.0679013
0.070706
0.628422
0.590804
0.544268
0.509409
0.479597
0.458439
0.436928
0.422432
0.403694
0.391502
0.373402
0.362354
0.34386
0.333648
0.316584
0.308144
0.294183
0.287925
0.277023
0.273133
0.264877
0.262471
0.256772
0.255255
0.251175
0.249602
0.24467
0.242098
0.235184
0.232052
0.224993
0.222345
0.217307
0.215519
0.211912
0.210414
0.207728
0.206104
0.205984
0.206009
0.207199
0.20816
0.210581
0.212052
0.215568
0.217962
0.223635
0.227423
0.235988
0.240777
0.251415
0.256377
0.267202
0.271801
0.281996
0.285872
0.29386
0.295994
0.300466
0.300414
0.300428
0.298559
0.29678
0.292081
0.288397
0.280297
0.274742
0.26277
0.254013
0.240041
0.226532
0.210595
0.193065
0.175641
0.156482
0.137537
0.119345
0.0994934
0.0830662
0.0682005
0.056043
0.0453979
0.0368941
0.0296873
0.0242089
0.0198581
0.0166373
0.0141674
0.0121788
0.0104498
0.00902226
0.00773131
0.00660921
0.00570434
0.00519527
0.00512188
0.00516446
0.00546051
0.00587303
0.00611726
0.00616393
0.00585598
0.00549653
0.00528865
0.00524841
0.00526552
0.00536241
0.00611851
0.00700351
0.00777284
0.00811954
0.00837799
0.0084867
0.0084444
0.00843121
0.00843171
0.00873279
0.0090433
0.00907249
0.00897039
0.00870732
0.00810674
0.00735089
0.00639709
0.00557889
0.00450943
0.00412641
0.0035016
0.00335189
0.00342771
0.00359054
0.00401735
0.00518117
0.0079427
0.0143267
0.0261418
0.0473771
0.100915
0.156892
0.239952
0.314341
0.337126
0.334049
0.340731
0.371702
0.492377
0.518433
0.39739
0.326742
0.309815
0.362536
0.369181
0.333831
0.238036
0.167891
0.132241
0.119538
0.11029
0.100565
0.0883533
0.0808259
0.0766233
0.075735
0.0764706
0.0831683
0.0885669
0.0973137
0.111589
0.123434
0.124927
0.119698
0.0964511
0.0555234
0.038629
0.0349142
0.0351968
0.0429007
0.0771555
0.139329
0.155007
0.153616
0.143078
0.123781
0.0965114
0.082738
0.0796291
0.0759532
0.0747776
0.0723048
0.0699159
0.0656463
0.0620001
0.0589729
0.0563261
0.0559391
0.0553356
0.0557433
0.0569266
0.0569228
0.0574524
0.17069
0.163564
0.157374
0.146371
0.141975
0.135426
0.13341
0.130149
0.128684
0.126369
0.123732
0.121957
0.117379
0.114631
0.109062
0.105454
0.101161
0.0980417
0.0947862
0.0929744
0.0906104
0.0900001
0.0890171
0.0889819
0.0889927
0.0889962
0.0888695
0.0886173
0.0874179
0.0854818
0.0837495
0.0814797
0.0804353
0.0793901
0.0785774
0.077774
0.0766267
0.0760989
0.0760608
0.0761691
0.0765943
0.0782443
0.0792278
0.0812624
0.0824523
0.0849806
0.0865158
0.0895516
0.0924866
0.0956774
0.100356
0.103833
0.106916
0.112248
0.114535
0.11915
0.121705
0.125444
0.127375
0.128983
0.128868
0.12855
0.126905
0.125464
0.121814
0.11893
0.113424
0.108002
0.0999852
0.0931713
0.0832
0.0752858
0.0653283
0.0571351
0.0485997
0.0412745
0.0346895
0.0289272
0.0241114
0.0199022
0.0163735
0.0132705
0.0106571
0.00851972
0.00675811
0.00553098
0.00454244
0.00393278
0.00338639
0.00296976
0.00258467
0.00222162
0.00187171
0.00157826
0.00139893
0.00134543
0.001345
0.0014282
0.00161275
0.00176408
0.0018216
0.00178946
0.00163774
0.00151293
0.00143656
0.0014046
0.00140299
0.0015556
0.00210245
0.00256897
0.00285897
0.00297606
0.00297366
0.00295234
0.00285567
0.00278451
0.00273326
0.00282849
0.00307764
0.00315426
0.00315279
0.00311984
0.00296089
0.00283667
0.00254479
0.00253567
0.00257626
0.0026781
0.00292744
0.00334307
0.00425578
0.00628749
0.0106991
0.0192568
0.0356263
0.0626328
0.121725
0.222705
0.302884
0.352017
0.368515
0.356977
0.34286
0.35624
0.419595
0.494859
0.406127
0.356655
0.279856
0.290409
0.370463
0.388425
0.336773
0.228987
0.158361
0.12821
0.122649
0.115956
0.104767
0.0868118
0.0824959
0.0763677
0.0750827
0.0757573
0.0801369
0.0883564
0.0929093
0.104737
0.118143
0.121393
0.118466
0.101602
0.0767203
0.0460463
0.0358039
0.0342243
0.0360054
0.0513004
0.0985023
0.138517
0.146605
0.143168
0.133734
0.122644
0.100832
0.0875822
0.0800009
0.0773975
0.0743015
0.0724168
0.0703438
0.0662206
0.0629151
0.059516
0.0577232
0.055701
0.0546493
0.0543282
0.0519564
0.0511283
0.026623
0.0260056
0.0252827
0.0239291
0.0232093
0.0224593
0.0224318
0.0225339
0.0228039
0.0233003
0.0235455
0.0236429
0.0235416
0.0232224
0.0221049
0.021232
0.0203418
0.019703
0.0191232
0.0187071
0.018484
0.0184761
0.0185218
0.0186498
0.0191382
0.0196617
0.0203147
0.0206887
0.0208075
0.0206843
0.0201596
0.0194511
0.0192136
0.0190836
0.0190973
0.0192495
0.0192982
0.0193699
0.0194246
0.0195264
0.0196438
0.0201865
0.0208456
0.0221519
0.0227894
0.0240137
0.0247078
0.0257356
0.0269859
0.0277507
0.0297023
0.0313383
0.0327221
0.0349175
0.0358134
0.0376213
0.0387021
0.0398554
0.0411605
0.041689
0.0416787
0.0414319
0.0408764
0.0393211
0.0381871
0.035853
0.0340838
0.0317502
0.0292805
0.0267854
0.0238552
0.02097
0.0180329
0.0151509
0.0126668
0.010378
0.00861247
0.0071092
0.00596476
0.00499411
0.0041625
0.00342383
0.00276076
0.00221488
0.00176241
0.00144531
0.0012148
0.00106671
0.000953992
0.000874468
0.000804729
0.000743657
0.000701949
0.000670765
0.000648078
0.000632329
0.000626227
0.000634675
0.000668522
0.000696756
0.00071676
0.000722605
0.000718702
0.000695938
0.000665578
0.000642222
0.000633413
0.000646438
0.000799204
0.000975061
0.00110318
0.00113538
0.00114004
0.00112067
0.00110424
0.00110164
0.00110384
0.00113204
0.00128734
0.00137086
0.00149686
0.00156342
0.00169366
0.0018015
0.00190018
0.00214206
0.00238997
0.00281428
0.00372586
0.00556742
0.0087634
0.0149235
0.0282492
0.0473265
0.0833941
0.153465
0.299088
0.363492
0.372377
0.384984
0.374077
0.311091
0.300901
0.3415
0.415043
0.393405
0.318332
0.31038
0.253347
0.290218
0.410809
0.426217
0.338918
0.212649
0.142199
0.124382
0.122442
0.116855
0.100479
0.0858461
0.0834608
0.0790596
0.07549
0.0772741
0.0809267
0.0908372
0.0940825
0.105484
0.11617
0.127625
0.121727
0.105393
0.0801173
0.0563225
0.0383288
0.0360255
0.0357865
0.0403892
0.0569789
0.100973
0.130229
0.138089
0.13458
0.128412
0.119453
0.106764
0.0969839
0.0874501
0.0816155
0.0787871
0.0772885
0.0744574
0.0716822
0.0687405
0.0656771
0.0627054
0.0598979
0.0590025
0.056102
0.0556753
0.00212953
0.0020505
0.00195197
0.00185264
0.00177905
0.00172126
0.00171496
0.00175948
0.00193818
0.00216458
0.00232163
0.00242776
0.00245997
0.00245954
0.00237585
0.0022252
0.00207601
0.00195816
0.00187965
0.00184721
0.0018402
0.00184676
0.00187783
0.00196722
0.00212114
0.00228556
0.00242624
0.00250969
0.00251674
0.00246706
0.00236095
0.00226858
0.00224591
0.00224572
0.00227858
0.00243465
0.00250229
0.00263575
0.00270371
0.00279983
0.00288265
0.00312189
0.00337939
0.00372969
0.0039999
0.0042842
0.0045769
0.00473532
0.0050612
0.00532153
0.00596663
0.00660966
0.00711035
0.00776366
0.00800489
0.00849891
0.008768
0.00914591
0.0097052
0.0101218
0.0102132
0.01018
0.0100184
0.0095866
0.00902961
0.00839658
0.00778154
0.00728661
0.00676242
0.00619661
0.00549133
0.00470771
0.00391501
0.0031766
0.0025367
0.00203471
0.00164079
0.00138113
0.0011759
0.00104791
0.000916288
0.000813136
0.000712159
0.000629104
0.000574506
0.000544397
0.000525655
0.000510677
0.000509002
0.000511109
0.000517669
0.000527306
0.000560938
0.000602192
0.000633064
0.000648631
0.000665376
0.000665527
0.00066143
0.000647185
0.000638969
0.000641841
0.000648184
0.000659213
0.000662567
0.000663044
0.000652408
0.000644632
0.000641065
0.000641083
0.000662828
0.000694442
0.000739864
0.00076022
0.000790643
0.000833253
0.000870012
0.000913587
0.00100219
0.00112279
0.0011973
0.00139386
0.00156423
0.00184616
0.00215514
0.00278289
0.00374334
0.0051911
0.0084902
0.0135097
0.0218173
0.0401881
0.0657203
0.110112
0.207818
0.364403
0.417139
0.409853
0.382927
0.334717
0.232852
0.202851
0.227045
0.32135
0.349327
0.280804
0.307925
0.268286
0.229751
0.290219
0.45061
0.449921
0.333255
0.188398
0.119532
0.118814
0.116848
0.0991215
0.09387
0.0913383
0.0845275
0.083531
0.0823123
0.0810701
0.087612
0.098463
0.0995797
0.103604
0.114454
0.121134
0.131958
0.12063
0.0893982
0.0636321
0.0410591
0.0408664
0.0372585
0.0391723
0.045178
0.0634303
0.092969
0.121837
0.127987
0.126422
0.123032
0.116203
0.110974
0.106097
0.0990424
0.0961801
0.0933747
0.0922899
0.0896841
0.0863552
0.0836399
0.0824821
0.0790718
0.0764696
0.0753159
0.0757642
0.000186407
0.000176872
0.000171136
0.000168684
0.000168635
0.000166751
0.000165492
0.000165504
0.000171966
0.000197133
0.000216993
0.00023135
0.000234755
0.000232797
0.000221462
0.000206989
0.000196729
0.000187767
0.000182464
0.00017925
0.000178828
0.000180183
0.0001841
0.000196915
0.00020535
0.0002126
0.000213794
0.000212911
0.000206529
0.000200791
0.000197532
0.00019482
0.000195386
0.000198389
0.000201565
0.00022106
0.000241345
0.000291772
0.000316325
0.000348203
0.000368701
0.0003815
0.000412468
0.00042837
0.000461934
0.000482824
0.00053471
0.000565378
0.000629036
0.000677515
0.00077548
0.00089572
0.000959787
0.00109411
0.00115777
0.00123782
0.00131707
0.00141464
0.00159541
0.00171574
0.00174773
0.00174378
0.00170292
0.00158236
0.00147632
0.00134233
0.00123508
0.00114051
0.00107024
0.000977109
0.000860313
0.000730722
0.000599235
0.000496706
0.000414028
0.000361621
0.000338971
0.000339212
0.000347019
0.000366089
0.000379326
0.000401041
0.000422982
0.000441346
0.000487772
0.000524882
0.000602129
0.000654339
0.000735043
0.00085326
0.000919852
0.00103106
0.00118904
0.00132241
0.00143556
0.00153112
0.00161859
0.00162989
0.00161461
0.00154938
0.00148111
0.00143903
0.00141474
0.00139591
0.00138061
0.00136306
0.00131558
0.00117582
0.00104009
0.00093951
0.000891425
0.00088211
0.000890257
0.000970909
0.00104939
0.00116807
0.00126008
0.00132833
0.00145821
0.00164333
0.00179792
0.00214251
0.00253849
0.00336378
0.00429949
0.00613248
0.00861552
0.0126686
0.0213111
0.0323404
0.0569631
0.0943069
0.146305
0.268291
0.427675
0.46348
0.447811
0.348944
0.207905
0.163316
0.15629
0.168002
0.230309
0.298093
0.271798
0.254142
0.283444
0.222291
0.203711
0.291658
0.472842
0.478082
0.3287
0.161863
0.112121
0.109894
0.0927036
0.0916829
0.09338
0.0950875
0.0872913
0.100944
0.0855876
0.102823
0.0962316
0.111483
0.134951
0.115837
0.124934
0.123415
0.12759
0.123452
0.0993397
0.080652
0.0470792
0.0423772
0.0377674
0.0370726
0.0416701
0.0481181
0.0642325
0.0866857
0.109381
0.117516
0.11836
0.11615
0.111955
0.110317
0.106374
0.104215
0.101378
0.0998059
0.098835
0.0970734
0.0949392
0.0942266
0.0928601
0.0908801
0.0910046
0.0913491
9.0407e-05
9.01558e-05
9.08492e-05
9.13922e-05
9.29082e-05
9.42139e-05
9.51116e-05
9.56133e-05
9.56662e-05
9.57889e-05
9.59618e-05
9.61676e-05
9.63276e-05
9.58551e-05
9.54668e-05
9.52843e-05
9.53034e-05
9.56033e-05
9.62667e-05
9.63947e-05
9.64534e-05
9.57633e-05
9.49845e-05
9.48669e-05
9.50121e-05
9.50327e-05
9.50128e-05
9.42751e-05
9.38027e-05
9.38038e-05
9.54445e-05
9.66312e-05
9.85461e-05
9.96644e-05
0.000101568
0.000103044
0.000103943
0.00010672
0.000108692
0.000111167
0.00011224
0.000112642
0.000113281
0.000113781
0.000115509
0.000117504
0.000122983
0.000125805
0.000128926
0.000133276
0.000136763
0.00014627
0.000154341
0.0001704
0.00018832
0.00019725
0.000216024
0.000228661
0.000259241
0.00027539
0.000279429
0.000278168
0.000272424
0.000252655
0.000234027
0.000217322
0.000202169
0.000193062
0.000190352
0.00019091
0.000191625
0.000195062
0.000199499
0.000210254
0.000224191
0.000258264
0.000297774
0.000334891
0.00044014
0.000519734
0.000604463
0.000797785
0.00096909
0.0011308
0.00146313
0.00168584
0.00206536
0.00230741
0.00271106
0.00311043
0.00342642
0.00385247
0.00424925
0.00452348
0.00476702
0.00493199
0.0051121
0.00516458
0.00514192
0.00507688
0.00495408
0.00473802
0.00459139
0.00433984
0.00416459
0.0039586
0.00364545
0.0033401
0.00299291
0.00266447
0.00240178
0.00229913
0.00229793
0.00234202
0.00251199
0.00267379
0.002823
0.00300453
0.00318117
0.00355409
0.00396123
0.00474623
0.00600318
0.00726921
0.0105909
0.0141452
0.0210477
0.0324144
0.0499392
0.079109
0.140221
0.19684
0.328872
0.485129
0.516252
0.469453
0.297066
0.163144
0.118149
0.11523
0.127588
0.197345
0.254641
0.264014
0.213747
0.244082
0.243941
0.18531
0.184915
0.281147
0.517976
0.544629
0.31763
0.152477
0.110294
0.0982473
0.0906008
0.0988018
0.0934314
0.100536
0.123835
0.128466
0.0885684
0.10751
0.109516
0.130332
0.234197
0.146688
0.162613
0.13846
0.134764
0.129353
0.104497
0.0914854
0.0601502
0.046418
0.0414543
0.0373009
0.0402187
0.0421686
0.0471097
0.059873
0.072939
0.0909246
0.101844
0.107027
0.107579
0.107148
0.105701
0.102935
0.101318
0.0993788
0.0987419
0.0965258
0.0947833
0.093722
0.0938791
0.0928496
0.0921688
0.0904523
8.63452e-05
8.7115e-05
8.93637e-05
9.5269e-05
9.88072e-05
0.00010062
0.000101941
0.000101799
0.000101233
0.000100679
9.95478e-05
9.88249e-05
9.69985e-05
9.63122e-05
9.66098e-05
0.000104312
0.000117471
0.000126975
0.00013349
0.000134245
0.000132838
0.000122645
0.000112904
0.000105331
0.000100623
9.80706e-05
9.72222e-05
9.92809e-05
0.000109066
0.00012037
0.000128225
0.000131808
0.00013211
0.000127878
0.000123901
0.000121229
0.000120029
0.000117537
0.000114486
0.000111333
0.000108915
0.000108164
0.00010855
0.000113697
0.000119597
0.000123625
0.000125423
0.000125317
0.000123036
0.000120007
0.000118319
0.000118232
0.000119624
0.000122571
0.000124292
0.000123737
0.0001229
0.000120714
0.000120246
0.000120264
0.000126047
0.000134061
0.000143216
0.000147915
0.000152285
0.000155926
0.000163241
0.000172372
0.00019269
0.000219087
0.000254738
0.000367021
0.000445835
0.000601873
0.000730803
0.00102535
0.00123203
0.00147133
0.00199587
0.00229434
0.00283862
0.0034161
0.0042043
0.00482335
0.00581082
0.00657088
0.00760752
0.00842452
0.00954507
0.0107309
0.0114722
0.0127545
0.0133668
0.0141045
0.0145526
0.0148502
0.0150819
0.0150425
0.0149156
0.0145812
0.0142699
0.0136062
0.0130439
0.0123106
0.0114228
0.0108085
0.0097158
0.00914277
0.00826558
0.00756606
0.0070785
0.00652532
0.00639705
0.00627643
0.00632927
0.00643627
0.00664372
0.00697453
0.00746923
0.00840436
0.00935424
0.0114945
0.0140985
0.0182176
0.0257399
0.0347338
0.0539239
0.0777573
0.121339
0.205619
0.25936
0.392683
0.514474
0.550932
0.455354
0.244074
0.154395
0.109133
0.0935886
0.0947175
0.113565
0.199826
0.251831
0.231258
0.186432
0.227553
0.203259
0.168463
0.177006
0.265917
0.566144
0.594074
0.300997
0.147499
0.112384
0.106421
0.10514
0.107051
0.102026
0.126517
0.153805
0.150732
0.158568
0.144575
0.251906
0.136281
0.416312
0.206418
0.25719
0.172822
0.146268
0.141312
0.116597
0.0959842
0.0676713
0.0473725
0.0502324
0.0424146
0.0417597
0.0430116
0.0442748
0.0475931
0.0528797
0.0630639
0.0700173
0.0780139
0.0854919
0.0886641
0.0912751
0.0907793
0.089767
0.0890512
0.0883426
0.0868271
0.0839148
0.0822138
0.0817377
0.0803828
0.0793758
0.0749497
0.000194
0.000199516
0.00021112
0.000253239
0.000310007
0.000337684
0.000359649
0.00036001
0.00035057
0.000321961
0.000296621
0.00028896
0.000280262
0.000280787
0.000284148
0.000340898
0.000448906
0.000534587
0.00059488
0.000609237
0.000603561
0.000539989
0.000453399
0.000390254
0.000350058
0.000332045
0.000332429
0.000379421
0.000465718
0.000538308
0.00059155
0.000618784
0.000632364
0.000635078
0.000632239
0.000611529
0.000570187
0.00052031
0.000469221
0.000424453
0.000393731
0.000383279
0.000387427
0.000423799
0.000461231
0.000485094
0.000493067
0.000491783
0.000473312
0.000451755
0.000435866
0.000428078
0.000426571
0.000427611
0.000428555
0.000417868
0.000392606
0.000370534
0.000362165
0.000363612
0.000372503
0.000393648
0.000456683
0.000512054
0.000596413
0.000659075
0.00080238
0.000911541
0.00112818
0.00133213
0.0016128
0.0022563
0.00264184
0.00344721
0.004022
0.0051822
0.00602918
0.00692079
0.00876322
0.00976005
0.0117086
0.0130676
0.015806
0.0173615
0.0197261
0.0224381
0.0243017
0.0274323
0.0294336
0.0324482
0.0340852
0.0366066
0.03794
0.0394181
0.0403162
0.0411137
0.0412952
0.0410312
0.0404537
0.0390911
0.0378324
0.0358595
0.0338153
0.0318269
0.0292079
0.0273538
0.0246882
0.0229336
0.0211478
0.0191872
0.0182647
0.0166209
0.0160028
0.0152215
0.0149046
0.0150634
0.0153922
0.0161259
0.0179329
0.0197025
0.0235161
0.027705
0.0350574
0.048479
0.0613522
0.0913641
0.123807
0.183737
0.285977
0.365138
0.420211
0.527315
0.540446
0.403514
0.207083
0.139469
0.113214
0.0956689
0.0855949
0.0876253
0.106623
0.192042
0.232983
0.198453
0.174901
0.203087
0.177045
0.162046
0.176637
0.261236
0.595169
0.664327
0.288934
0.155543
0.136809
0.130593
0.125412
0.119803
0.127013
0.141084
0.159809
0.163665
0.172213
0.177055
0.263505
0.204293
0.477799
0.251684
0.611235
0.326476
0.291854
0.171418
0.126684
0.0987681
0.0830995
0.0510349
0.0520882
0.0472756
0.0466168
0.0482491
0.0475651
0.047933
0.0528452
0.0554829
0.0598965
0.0611963
0.0630043
0.0673669
0.0723414
0.07291
0.0718393
0.0708169
0.0697518
0.069321
0.0680703
0.0665113
0.0652093
0.0643149
0.0630844
0.0601661
0.00255533
0.00261285
0.00285977
0.00313148
0.00334816
0.00342811
0.00355396
0.00357006
0.00354969
0.00352963
0.00351525
0.00353208
0.00358663
0.00383111
0.00407338
0.00444896
0.00479395
0.00499417
0.00511771
0.00512528
0.00507105
0.00484868
0.0045399
0.00435606
0.00424413
0.00424327
0.00444225
0.00482096
0.00511741
0.00528847
0.00536975
0.00537805
0.00536596
0.00527718
0.00518328
0.00513144
0.00503505
0.00486863
0.00464247
0.00441279
0.00425775
0.00417205
0.00416768
0.00421476
0.00427001
0.00429904
0.0042985
0.00426577
0.00408335
0.00390458
0.00374824
0.00364986
0.00360743
0.00359214
0.00357009
0.00345471
0.00334807
0.00329228
0.00330131
0.00335373
0.00346605
0.00369448
0.00406388
0.00447724
0.00497624
0.00534701
0.00620617
0.00676926
0.00774151
0.00870158
0.010034
0.0120698
0.0133695
0.0163027
0.0181299
0.0214262
0.0241304
0.0271228
0.0318364
0.0345078
0.0400732
0.0437162
0.0495682
0.0541099
0.0591842
0.0659089
0.0696823
0.0775526
0.0811193
0.0878764
0.0913221
0.095708
0.0993487
0.101495
0.104386
0.105706
0.106045
0.105306
0.103753
0.101076
0.0962134
0.0932004
0.0863035
0.0811192
0.0747293
0.068198
0.0631666
0.0566933
0.0526889
0.0479229
0.0441383
0.0415228
0.0385298
0.0371423
0.0362809
0.0366114
0.0379802
0.0397927
0.0444448
0.0501167
0.0565383
0.0728304
0.0875544
0.113914
0.154039
0.192062
0.281908
0.374012
0.418269
0.435802
0.494176
0.476634
0.307359