/*--------------------------------*- C++ -*----------------------------------*\
| =========                 |                                                 |
| \\      /  F ield         | OpenFOAM: The Open Source CFD Toolbox           |
|  \\    /   O peration     | Version:  2.4.0                                 |
|   \\  /    A nd           | Web:      www.OpenFOAM.org                      |
|    \\/     M anipulation  |                                                 |
\*---------------------------------------------------------------------------*/
FoamFile
{
    version     2.0;
    format      ascii;
    class       volSymmTensorField;
    location    "0.49";
    object      UPrime2Mean;
}
// * * * * * * * * * * * * * * * * * * * * * * * * * * * * * * * * * * * * * //

dimensions      [0 2 -2 0 0 0 0];

internalField   nonuniform List<symmTensor> 
8800
(
(0.00338622 0.000216132 0 0.000387348 0 0)
(0.0651995 -0.00256093 0 0.000139327 0 0)
(0.12763 -0.000220667 0 2.89388e-05 0 0)
(0.158996 0.000405995 0 7.9477e-06 0 0)
(0.181819 0.00033401 0 2.00016e-06 0 0)
(0.199817 0.00024982 0 1.32449e-06 0 0)
(0.210971 0.00018773 0 1.45824e-06 0 0)
(0.22086 9.9238e-05 0 1.49041e-06 0 0)
(0.226416 7.47336e-05 0 1.84689e-06 0 0)
(0.23333 1.86996e-05 0 1.74819e-06 0 0)
(0.236146 3.38345e-05 0 1.82429e-06 0 0)
(0.242474 -3.81311e-05 0 2.00831e-06 0 0)
(0.244091 -1.57958e-05 0 2.10736e-06 0 0)
(0.252447 -0.000121031 0 2.35443e-06 0 0)
(0.254675 -0.00021454 0 2.95172e-06 0 0)
(0.268584 -0.000111073 0 3.97613e-06 0 0)
(0.284057 -0.00184451 0 2.51272e-05 0 0)
(0.296165 0.00382194 0 0.00014038 0 0)
(0.463408 -0.0346757 0 0.00351155 0 0)
(0.480222 0.0541587 0 0.0107032 0 0)
(0.0177799 0.00589016 0 0.00230354 0 0)
(0.0015418 -0.00204039 0 0.0030159 0 0)
(0.0156026 -0.00414916 0 0.00120784 0 0)
(0.0318929 -0.00363848 0 0.00043531 0 0)
(0.0503593 -0.0032015 0 0.000219465 0 0)
(0.0760825 -0.00292709 0 0.000156793 0 0)
(0.0985771 -0.00235942 0 0.000115307 0 0)
(0.124457 -0.00197281 0 8.31446e-05 0 0)
(0.140827 -0.00145291 0 4.97402e-05 0 0)
(0.162885 -0.0014019 0 4.09423e-05 0 0)
(0.170879 -0.00102976 0 2.07405e-05 0 0)
(0.194707 -0.00133849 0 2.6678e-05 0 0)
(0.193592 -0.00103699 0 2.01633e-05 0 0)
(0.227105 -0.00201224 0 4.76509e-05 0 0)
(0.216475 -0.00106981 0 2.64606e-05 0 0)
(0.270454 -0.00546203 0 0.000168777 0 0)
(0.260968 0.000395877 0 9.94196e-05 0 0)
(0.34681 -0.0216428 0 0.00156812 0 0)
(0.420987 -0.00922493 0 0.00097681 0 0)
(0.603368 -0.122187 0 0.038918 0 0)
(0.017629 0.00434368 0 0.00125641 0 0)
(0.00153755 0.00196634 0 0.00319558 0 0)
(0.00159795 0.00103483 0 0.00195831 0 0)
(0.00230369 0.000439043 0 0.00102781 0 0)
(0.00173735 -0.000145869 0 0.000762322 0 0)
(0.00336573 -0.00124918 0 0.000710483 0 0)
(0.00727734 -0.00179446 0 0.000610073 0 0)
(0.0172813 -0.00238863 0 0.00047997 0 0)
(0.0251571 -0.0021827 0 0.000336869 0 0)
(0.0403918 -0.00246083 0 0.000239439 0 0)
(0.0449843 -0.00203213 0 0.00013013 0 0)
(0.0667499 -0.00234414 0 0.000147704 0 0)
(0.0647036 -0.00222986 0 0.000108774 0 0)
(0.0931061 -0.00289444 0 0.000214502 0 0)
(0.0905354 -0.00300408 0 0.000209781 0 0)
(0.12164 -0.00507589 0 0.000441339 0 0)
(0.134983 -0.0065405 0 0.000667026 0 0)
(0.171915 -0.0126573 0 0.00141975 0 0)
(0.226831 -0.0321769 0 0.00680091 0 0)
(0.324243 -0.0818636 0 0.0413811 0 0)
(0.0170846 0.00298166 0 0.000620424 0 0)
(0.00160642 0.00131597 0 0.00210416 0 0)
(0.00381782 0.00207534 0 0.00169763 0 0)
(0.00809513 0.00227853 0 0.000952533 0 0)
(0.0133321 0.00272548 0 0.000798846 0 0)
(0.0119396 0.0024693 0 0.000925509 0 0)
(0.0128584 0.00240555 0 0.000962831 0 0)
(0.00867761 0.00139609 0 0.000931666 0 0)
(0.00906277 0.0010891 0 0.000746169 0 0)
(0.00635557 3.70805e-05 0 0.000607933 0 0)
(0.00629848 0.000206335 0 0.000345383 0 0)
(0.00688313 -0.000814905 0 0.000478664 0 0)
(0.00604761 -0.000354248 0 0.000247421 0 0)
(0.0095177 -0.00173957 0 0.000593357 0 0)
(0.00990514 -0.000835591 0 0.000341202 0 0)
(0.0155669 -0.00312933 0 0.000988848 0 0)
(0.0194326 -0.00256802 0 0.00071711 0 0)
(0.031591 -0.00729968 0 0.00325532 0 0)
(0.0472707 -0.0149633 0 0.00800249 0 0)
(0.0762451 -0.0352355 0 0.0381361 0 0)
(0.0184141 0.00229823 0 0.000363113 0 0)
(0.00157052 0.000639077 0 0.00137671 0 0)
(0.00345842 0.001531 0 0.0012677 0 0)
(0.00767573 0.00181355 0 0.000720174 0 0)
(0.0160166 0.00239618 0 0.000554962 0 0)
(0.0172203 0.00265552 0 0.00070981 0 0)
(0.0243884 0.00327597 0 0.00082268 0 0)
(0.0217883 0.00301864 0 0.000902867 0 0)
(0.0286902 0.00306637 0 0.00076481 0 0)
(0.0245503 0.00237001 0 0.00080029 0 0)
(0.0310331 0.00246618 0 0.00040669 0 0)
(0.0257717 0.0020862 0 0.000716848 0 0)
(0.0314601 0.00199467 0 0.000339539 0 0)
(0.0249834 0.00229351 0 0.000899285 0 0)
(0.0290615 0.00194461 0 0.000499807 0 0)
(0.0216931 0.0029079 0 0.00152999 0 0)
(0.0228294 0.00291377 0 0.00114151 0 0)
(0.0153111 0.00480925 0 0.00538253 0 0)
(0.0150671 0.00609021 0 0.00911904 0 0)
(0.0165593 0.00882642 0 0.0519512 0 0)
(0.0189027 0.00163984 0 0.000220363 0 0)
(0.00153785 0.000377113 0 0.000969329 0 0)
(0.00258615 0.000984174 0 0.000933496 0 0)
(0.00630395 0.00134326 0 0.000568375 0 0)
(0.0132379 0.00161741 0 0.000368433 0 0)
(0.0155939 0.00191624 0 0.000482853 0 0)
(0.0217462 0.00246643 0 0.000603078 0 0)
(0.0221058 0.0026571 0 0.000721049 0 0)
(0.0287158 0.0025355 0 0.00061829 0 0)
(0.0293082 0.00243081 0 0.000673842 0 0)
(0.0361835 0.00227393 0 0.000380626 0 0)
(0.0371779 0.00262275 0 0.000607048 0 0)
(0.0441111 0.00230445 0 0.00039379 0 0)
(0.0445136 0.00341853 0 0.000717468 0 0)
(0.0502277 0.00330398 0 0.000586284 0 0)
(0.0495699 0.00514683 0 0.00121939 0 0)
(0.0521804 0.00706395 0 0.00158046 0 0)
(0.0498411 0.0115791 0 0.00472243 0 0)
(0.0501284 0.0203141 0 0.0123767 0 0)
(0.0545289 0.0351695 0 0.0400417 0 0)
(0.0181709 0.00105918 0 0.000143788 0 0)
(0.00188842 0.000262801 0 0.000694044 0 0)
(0.00236888 0.00049678 0 0.000647175 0 0)
(0.00607809 0.00102086 0 0.000472373 0 0)
(0.0111992 0.00102836 0 0.000272166 0 0)
(0.0150097 0.0013878 0 0.000378813 0 0)
(0.0184454 0.00162643 0 0.000474431 0 0)
(0.0211185 0.00208119 0 0.000552765 0 0)
(0.0245843 0.00166275 0 0.000400548 0 0)
(0.028057 0.00200311 0 0.000580346 0 0)
(0.0317983 0.0014107 0 0.000291706 0 0)
(0.0363682 0.0023954 0 0.000561535 0 0)
(0.0403701 0.00140121 0 0.000326248 0 0)
(0.0452282 0.00331549 0 0.000694342 0 0)
(0.0485846 0.0023081 0 0.000498055 0 0)
(0.0534364 0.00586455 0 0.0013034 0 0)
(0.0553456 0.00632405 0 0.00156749 0 0)
(0.0598225 0.0144943 0 0.0052897 0 0)
(0.0622076 0.0212661 0 0.0113858 0 0)
(0.0753107 0.0428036 0 0.0357834 0 0)
(0.0180203 0.000700532 0 0.000102492 0 0)
(0.00199361 0.000162513 0 0.000455358 0 0)
(0.00222197 0.000237785 0 0.000440447 0 0)
(0.00553707 0.000618585 0 0.000339141 0 0)
(0.0100993 0.000608205 0 0.000227894 0 0)
(0.0139052 0.000855735 0 0.000322607 0 0)
(0.0170702 0.00104805 0 0.000387913 0 0)
(0.0194794 0.00133063 0 0.000417653 0 0)
(0.0225447 0.00107635 0 0.000355216 0 0)
(0.0256449 0.00123935 0 0.000457802 0 0)
(0.0293294 0.000917663 0 0.000346147 0 0)
(0.0330962 0.00143061 0 0.000466586 0 0)
(0.0374905 0.00104151 0 0.000381721 0 0)
(0.0417093 0.00206688 0 0.0005527 0 0)
(0.045982 0.00208069 0 0.000500151 0 0)
(0.0498219 0.004386 0 0.00107575 0 0)
(0.0537555 0.0062689 0 0.0015708 0 0)
(0.0581471 0.013054 0 0.00474837 0 0)
(0.0650594 0.0211015 0 0.0104771 0 0)
(0.0793646 0.0415448 0 0.0309339 0 0)
(0.0175921 0.000306435 0 8.09887e-05 0 0)
(0.00168402 -5.1717e-05 0 0.00028048 0 0)
(0.00202823 -1.36334e-05 0 0.000277968 0 0)
(0.00501333 0.000241438 0 0.000223012 0 0)
(0.00911275 0.000225683 0 0.000191514 0 0)
(0.013052 0.000360142 0 0.000265556 0 0)
(0.0156272 0.000472213 0 0.000307603 0 0)
(0.0181341 0.000695297 0 0.000315001 0 0)
(0.0204119 0.000480708 0 0.000272363 0 0)
(0.0237515 0.000641757 0 0.00034969 0 0)
(0.0267557 0.000386596 0 0.00029361 0 0)
(0.0310795 0.000889718 0 0.000368436 0 0)
(0.0345643 0.000606022 0 0.000296026 0 0)
(0.0393638 0.00150244 0 0.000422525 0 0)
(0.0425453 0.00167472 0 0.000434171 0 0)
(0.0477115 0.00362916 0 0.000936288 0 0)
(0.0511698 0.00593401 0 0.00144197 0 0)
(0.058112 0.0115431 0 0.00412273 0 0)
(0.0658462 0.020932 0 0.00930689 0 0)
(0.083519 0.0379001 0 0.0255265 0 0)
(0.0173187 8.22792e-05 0 6.26908e-05 0 0)
(0.00125703 -8.52293e-05 0 0.000183439 0 0)
(0.00174293 -9.56774e-05 0 0.000202001 0 0)
(0.00440512 9.44942e-06 0 0.000157681 0 0)
(0.00836358 6.33397e-06 0 0.000176583 0 0)
(0.0120051 1.34723e-05 0 0.000256898 0 0)
(0.0148257 4.45014e-05 0 0.00027957 0 0)
(0.0169725 0.000162186 0 0.000247766 0 0)
(0.0194403 0.00010335 0 0.00024268 0 0)
(0.0222836 0.000124808 0 0.00030676 0 0)
(0.0257767 -4.74495e-05 0 0.000319681 0 0)
(0.0295889 0.000260045 0 0.00033051 0 0)
(0.033404 0.000162893 0 0.000314457 0 0)
(0.0375425 0.000862934 0 0.000362146 0 0)
(0.0416091 0.00110354 0 0.000395681 0 0)
(0.0465037 0.00311931 0 0.000708847 0 0)
(0.0513847 0.00494664 0 0.00133072 0 0)
(0.0587385 0.0111836 0 0.00341073 0 0)
(0.0685181 0.0188952 0 0.00818184 0 0)
(0.0882045 0.0364187 0 0.0206638 0 0)
(0.0171363 -0.00020484 0 6.27579e-05 0 0)
(0.00107138 -0.000174156 0 0.000179105 0 0)
(0.00151617 -0.000182394 0 0.000212488 0 0)
(0.00405605 -0.000232225 0 0.00019658 0 0)
(0.00805658 -0.000248061 0 0.000219024 0 0)
(0.0118962 -0.000304699 0 0.000275225 0 0)
(0.0147105 -0.00038118 0 0.000289538 0 0)
(0.0169323 -0.000343239 0 0.000260653 0 0)
(0.0193762 -0.000357246 0 0.000244026 0 0)
(0.0223987 -0.000295148 0 0.000258423 0 0)
(0.0257158 -0.000394618 0 0.000293967 0 0)
(0.0294996 -0.00017665 0 0.000328087 0 0)
(0.0333089 -0.000179852 0 0.000301373 0 0)
(0.0376024 0.000337541 0 0.00032725 0 0)
(0.0416853 0.000796343 0 0.000323216 0 0)
(0.0470136 0.0023176 0 0.000634467 0 0)
(0.0526768 0.0045914 0 0.00104049 0 0)
(0.0612525 0.0097678 0 0.00293445 0 0)
(0.0733443 0.0179247 0 0.00652619 0 0)
(0.0937156 0.0330412 0 0.016792 0 0)
(0.016952 -0.000441672 0 5.57364e-05 0 0)
(0.000763241 -0.000185467 0 0.000215975 0 0)
(0.0012624 -0.000194453 0 0.000222048 0 0)
(0.00410728 -0.000403176 0 0.000170551 0 0)
(0.00827886 -0.000394089 0 0.000131013 0 0)
(0.0120776 -0.000550893 0 0.000189383 0 0)
(0.014714 -0.000690188 0 0.000240056 0 0)
(0.01708 -0.000842652 0 0.000259107 0 0)
(0.0195477 -0.000732175 0 0.000234182 0 0)
(0.0227892 -0.000755712 0 0.000226349 0 0)
(0.0260697 -0.000665721 0 0.000241338 0 0)
(0.0301055 -0.000591612 0 0.000247165 0 0)
(0.0339369 -0.000427999 0 0.000214705 0 0)
(0.0387365 -0.000230913 0 0.000216717 0 0)
(0.0431073 0.00034363 0 0.000246008 0 0)
(0.0490594 0.00159596 0 0.000406743 0 0)
(0.0554409 0.00386232 0 0.000839193 0 0)
(0.0657159 0.00847645 0 0.00215932 0 0)
(0.0793245 0.0161378 0 0.00525583 0 0)
(0.101944 0.0299854 0 0.0126826 0 0)
(0.016968 -0.00076427 0 7.79297e-05 0 0)
(0.000688039 -0.000289522 0 0.00037371 0 0)
(0.00121995 -0.000352835 0 0.000352262 0 0)
(0.00425281 -0.000718356 0 0.000265884 0 0)
(0.00874427 -0.000750297 0 0.000173686 0 0)
(0.0126581 -0.00101355 0 0.000245658 0 0)
(0.0157059 -0.00125254 0 0.000310758 0 0)
(0.0181161 -0.00145908 0 0.000347942 0 0)
(0.0209796 -0.00129717 0 0.000307558 0 0)
(0.0242179 -0.00133703 0 0.000294188 0 0)
(0.0278975 -0.00116143 0 0.00026213 0 0)
(0.0318588 -0.00116912 0 0.000280442 0 0)
(0.0362583 -0.000935746 0 0.00022437 0 0)
(0.0411277 -0.000908212 0 0.000230895 0 0)
(0.0462966 -0.000262895 0 0.000232812 0 0)
(0.0525273 0.000690965 0 0.000354689 0 0)
(0.060327 0.00284446 0 0.000672488 0 0)
(0.0715138 0.00681887 0 0.00162004 0 0)
(0.0877684 0.0137599 0 0.00402573 0 0)
(0.111654 0.0263036 0 0.00955423 0 0)
(0.0171926 -0.00115878 0 0.000123352 0 0)
(0.000565464 -0.000394814 0 0.000628285 0 0)
(0.00131512 -0.000603403 0 0.000583449 0 0)
(0.00483133 -0.00106211 0 0.000401702 0 0)
(0.0100781 -0.00112631 0 0.000224417 0 0)
(0.0137851 -0.0014828 0 0.000306718 0 0)
(0.0175242 -0.00178151 0 0.000393093 0 0)
(0.0198744 -0.00213026 0 0.000487152 0 0)
(0.0236076 -0.00188229 0 0.000406819 0 0)
(0.0267022 -0.00198801 0 0.000402943 0 0)
(0.0311829 -0.00165026 0 0.000287159 0 0)
(0.0350723 -0.00187496 0 0.000342818 0 0)
(0.0401992 -0.00142968 0 0.000229671 0 0)
(0.0450402 -0.00177595 0 0.000278162 0 0)
(0.0511498 -0.000837459 0 0.000223149 0 0)
(0.0577123 -0.00048894 0 0.000340089 0 0)
(0.0665766 0.00189065 0 0.000496797 0 0)
(0.0787039 0.0046687 0 0.00118722 0 0)
(0.0967935 0.0112105 0 0.00283483 0 0)
(0.122244 0.0214017 0 0.00691735 0 0)
(0.0180083 -0.00171359 0 0.000213586 0 0)
(0.000667345 -0.000477563 0 0.000951057 0 0)
(0.00195862 -0.0010758 0 0.000913187 0 0)
(0.00568142 -0.00141715 0 0.00055387 0 0)
(0.0126911 -0.00172588 0 0.000362102 0 0)
(0.015046 -0.00204387 0 0.000466824 0 0)
(0.0212057 -0.0025649 0 0.000586061 0 0)
(0.0215427 -0.00277299 0 0.000713544 0 0)
(0.0282375 -0.00273882 0 0.00061794 0 0)
(0.028627 -0.00259417 0 0.000600856 0 0)
(0.0361245 -0.00236722 0 0.000404636 0 0)
(0.036644 -0.00249446 0 0.000476793 0 0)
(0.0446374 -0.00205827 0 0.000294504 0 0)
(0.0453406 -0.00250152 0 0.000387935 0 0)
(0.0539654 -0.00142936 0 0.000264961 0 0)
(0.0558533 -0.00152668 0 0.000384978 0 0)
(0.0664647 0.000946012 0 0.000412558 0 0)
(0.0732942 0.00239962 0 0.000839346 0 0)
(0.091485 0.00828919 0 0.00193611 0 0)
(0.111274 0.0149618 0 0.0044126 0 0)
(0.0180186 -0.00237214 0 0.000371487 0 0)
(0.00103914 -0.000701036 0 0.00137483 0 0)
(0.0029869 -0.00166126 0 0.00129429 0 0)
(0.00704338 -0.00187447 0 0.000721468 0 0)
(0.0156177 -0.00254193 0 0.000575458 0 0)
(0.0165523 -0.00273718 0 0.000707728 0 0)
(0.0239744 -0.00344156 0 0.00084297 0 0)
(0.0210377 -0.00309052 0 0.000918878 0 0)
(0.028268 -0.00328686 0 0.000812253 0 0)
(0.0237376 -0.00250616 0 0.000715689 0 0)
(0.0307954 -0.00259845 0 0.000499968 0 0)
(0.0253 -0.00208179 0 0.000536207 0 0)
(0.0318358 -0.00200581 0 0.000330753 0 0)
(0.0257742 -0.00174912 0 0.000432443 0 0)
(0.0319099 -0.001207 0 0.00025966 0 0)
(0.0267148 -0.000929412 0 0.000398599 0 0)
(0.033477 0.000586043 0 0.000313308 0 0)
(0.0321598 0.00144238 0 0.000626435 0 0)
(0.0437253 0.00514841 0 0.00125286 0 0)
(0.0534582 0.00841015 0 0.00262372 0 0)
(0.0169606 -0.00301008 0 0.00062242 0 0)
(0.00136673 -0.00131746 0 0.002101 0 0)
(0.00355202 -0.00214019 0 0.00171093 0 0)
(0.00757945 -0.00227935 0 0.000960459 0 0)
(0.0130277 -0.00280555 0 0.000817749 0 0)
(0.0112067 -0.00247607 0 0.000935329 0 0)
(0.0125243 -0.0024926 0 0.000988349 0 0)
(0.00784444 -0.00137194 0 0.000933053 0 0)
(0.00848588 -0.00124422 0 0.000749273 0 0)
(0.00548367 -0.000139877 0 0.000580608 0 0)
(0.0056456 -0.000311462 0 0.000387518 0 0)
(0.00588857 0.000545447 0 0.000377151 0 0)
(0.0050712 0.000211532 0 0.000230235 0 0)
(0.00863208 0.00100997 0 0.000288303 0 0)
(0.00721876 0.000451953 0 0.000163544 0 0)
(0.0131797 0.00133546 0 0.000258463 0 0)
(0.011987 0.000598686 0 0.000215811 0 0)
(0.0192119 0.00185604 0 0.000369088 0 0)
(0.0212162 0.0018013 0 0.000876561 0 0)
(0.0307659 0.00424979 0 0.001219 0 0)
(0.0176053 -0.00435513 0 0.0012587 0 0)
(0.00148769 -0.0019595 0 0.00318861 0 0)
(0.00148564 -0.00105069 0 0.00196165 0 0)
(0.00215119 -0.000429201 0 0.00102537 0 0)
(0.00152438 0.000121366 0 0.000766727 0 0)
(0.00318271 0.00125192 0 0.000709035 0 0)
(0.00681 0.00176309 0 0.000615342 0 0)
(0.0172523 0.00241431 0 0.000485811 0 0)
(0.0239244 0.00213591 0 0.000330539 0 0)
(0.0401272 0.00236418 0 0.000225255 0 0)
(0.0439231 0.0018532 0 0.000132238 0 0)
(0.0640895 0.00214157 0 0.000124732 0 0)
(0.0628291 0.0015465 0 7.92133e-05 0 0)
(0.0861072 0.00199613 0 9.674e-05 0 0)
(0.0803706 0.000969703 0 6.0204e-05 0 0)
(0.103641 0.00169238 0 9.90932e-05 0 0)
(0.0950636 -0.000305592 0 0.000101109 0 0)
(0.111999 0.0013347 0 0.000186327 0 0)
(0.104953 -0.00159562 0 0.000407971 0 0)
(0.108973 0.00284874 0 0.000811471 0 0)
(0.0177743 -0.00589154 0 0.00230418 0 0)
(0.00154784 0.00204346 0 0.00301367 0 0)
(0.0155611 0.00414712 0 0.00120812 0 0)
(0.031911 0.00363982 0 0.000434705 0 0)
(0.05021 0.00320136 0 0.0002199 0 0)
(0.0761957 0.0029249 0 0.000156621 0 0)
(0.0982085 0.00235561 0 0.000115383 0 0)
(0.124783 0.00196675 0 8.19501e-05 0 0)
(0.139845 0.00144934 0 5.05037e-05 0 0)
(0.162894 0.00131085 0 3.58013e-05 0 0)
(0.169812 0.000975291 0 2.19239e-05 0 0)
(0.191612 0.00106535 0 2.39996e-05 0 0)
(0.191889 0.000729911 0 1.92781e-05 0 0)
(0.214015 0.000921366 0 2.13958e-05 0 0)
(0.20871 0.0003198 0 1.75146e-05 0 0)
(0.229055 0.000548641 0 2.35616e-05 0 0)
(0.218512 -0.000722423 0 3.36037e-05 0 0)
(0.229031 0.000137714 0 5.4561e-05 0 0)
(0.219737 -0.00241751 0 0.000139155 0 0)
(0.204614 0.00127001 0 0.000495857 0 0)
(0.00338654 -0.000215733 0 0.000387418 0 0)
(0.0652115 0.00256045 0 0.000139283 0 0)
(0.127617 0.000221804 0 2.88875e-05 0 0)
(0.159001 -0.000406689 0 7.91586e-06 0 0)
(0.181774 -0.000332622 0 1.9545e-06 0 0)
(0.199873 -0.000251411 0 1.32556e-06 0 0)
(0.210857 -0.000188028 0 1.4764e-06 0 0)
(0.220941 -0.000101166 0 1.51309e-06 0 0)
(0.22609 -8.30784e-05 0 1.59328e-06 0 0)
(0.233229 -2.8606e-05 0 1.52882e-06 0 0)
(0.235337 -5.07412e-05 0 1.75729e-06 0 0)
(0.241277 -3.20167e-06 0 1.68962e-06 0 0)
(0.241446 -5.38473e-05 0 1.53716e-06 0 0)
(0.246917 -7.33944e-06 0 1.21364e-06 0 0)
(0.245009 -0.000117302 0 1.2467e-06 0 0)
(0.248845 -9.42519e-05 0 1.13977e-06 0 0)
(0.243224 -0.00030335 0 1.83162e-06 0 0)
(0.241693 -0.000248627 0 2.90208e-06 0 0)
(0.234373 -0.000857432 0 8.99951e-06 0 0)
(0.212422 0.00114192 0 7.78607e-05 0 0)
(0.950559 -0.485566 0 0.299041 0 0)
(1.07385 -0.578129 0 0.422127 0 0)
(1.07599 -0.556052 0 0.504742 0 0)
(1.07636 -0.488189 0 0.562684 0 0)
(1.10633 -0.408469 0 0.596274 0 0)
(1.20615 -0.353825 0 0.620394 0 0)
(1.35359 -0.33875 0 0.643532 0 0)
(1.56949 -0.366335 0 0.676506 0 0)
(1.78427 -0.41632 0 0.715391 0 0)
(1.99418 -0.468399 0 0.753504 0 0)
(2.15811 -0.51615 0 0.795571 0 0)
(2.31723 -0.557513 0 0.846983 0 0)
(2.44993 -0.586304 0 0.902144 0 0)
(2.59083 -0.618777 0 0.949563 0 0)
(2.74552 -0.655956 0 0.980964 0 0)
(2.89024 -0.708043 0 1.00245 0 0)
(3.0393 -0.781013 0 1.03423 0 0)
(3.17588 -0.86586 0 1.0811 0 0)
(3.28795 -0.947839 0 1.15299 0 0)
(3.4422 -1.03219 0 1.24114 0 0)
(3.62509 -1.09614 0 1.3138 0 0)
(3.82987 -1.17902 0 1.38545 0 0)
(4.06423 -1.26752 0 1.45578 0 0)
(4.27868 -1.35975 0 1.52813 0 0)
(4.54523 -1.46184 0 1.60011 0 0)
(4.77344 -1.55278 0 1.67873 0 0)
(5.06734 -1.6626 0 1.75761 0 0)
(5.31892 -1.77695 0 1.83711 0 0)
(5.62747 -1.91532 0 1.92122 0 0)
(5.88036 -2.05339 0 2.01329 0 0)
(6.17359 -2.2009 0 2.11256 0 0)
(6.43018 -2.33827 0 2.20849 0 0)
(6.71216 -2.48493 0 2.30567 0 0)
(7.02067 -2.63647 0 2.39468 0 0)
(7.30191 -2.80039 0 2.48959 0 0)
(7.65148 -2.98072 0 2.57312 0 0)
(7.87699 -3.14185 0 2.6565 0 0)
(8.18864 -3.31637 0 2.72551 0 0)
(8.31817 -3.44548 0 2.79184 0 0)
(8.53804 -3.57266 0 2.84721 0 0)
(8.57125 -3.64271 0 2.89904 0 0)
(8.68752 -3.70339 0 2.94187 0 0)
(8.67508 -3.72439 0 2.97467 0 0)
(8.75267 -3.74702 0 3.01078 0 0)
(8.77064 -3.76966 0 3.04406 0 0)
(8.87396 -3.80242 0 3.09455 0 0)
(8.93991 -3.85455 0 3.15065 0 0)
(9.0908 -3.92034 0 3.2312 0 0)
(9.18673 -4.0018 0 3.3245 0 0)
(9.36931 -4.09861 0 3.44225 0 0)
(9.44774 -4.18976 0 3.56947 0 0)
(9.60271 -4.27984 0 3.71031 0 0)
(9.59189 -4.32727 0 3.84343 0 0)
(9.66989 -4.35678 0 3.96872 0 0)
(9.53252 -4.31085 0 4.06014 0 0)
(9.51902 -4.25312 0 4.13534 0 0)
(9.28787 -4.11282 0 4.14965 0 0)
(9.22045 -3.98915 0 4.16759 0 0)
(8.99359 -3.83022 0 4.13504 0 0)
(8.94583 -3.6987 0 4.12983 0 0)
(8.78075 -3.58608 0 4.10997 0 0)
(8.81374 -3.49452 0 4.12471 0 0)
(8.68731 -3.42083 0 4.1525 0 0)
(8.79144 -3.38998 0 4.21555 0 0)
(8.64445 -3.29258 0 4.26152 0 0)
(8.72467 -3.27492 0 4.33457 0 0)
(8.52476 -3.11165 0 4.33125 0 0)
(8.50954 -3.01268 0 4.33843 0 0)
(8.29193 -2.82999 0 4.3104 0 0)
(8.25929 -2.70439 0 4.37793 0 0)
(8.07062 -2.55906 0 4.46735 0 0)
(8.07383 -2.41467 0 4.55065 0 0)
(7.96134 -2.25306 0 4.62237 0 0)
(8.03277 -2.14873 0 4.68699 0 0)
(7.98386 -2.01094 0 4.82227 0 0)
(8.09208 -1.94885 0 4.9729 0 0)
(8.14975 -1.83515 0 5.19714 0 0)
(8.22489 -1.7873 0 5.43723 0 0)
(8.31702 -1.67913 0 5.72099 0 0)
(8.29661 -1.58782 0 6.00392 0 0)
(8.33772 -1.47249 0 6.28739 0 0)
(8.21986 -1.36205 0 6.51445 0 0)
(8.30575 -1.27315 0 6.71663 0 0)
(8.13907 -1.18229 0 6.88674 0 0)
(8.28026 -1.12724 0 6.99105 0 0)
(8.12427 -1.02631 0 7.12722 0 0)
(8.30795 -0.978436 0 7.22995 0 0)
(8.15625 -0.875685 0 7.43424 0 0)
(8.39028 -0.813988 0 7.60179 0 0)
(8.29841 -0.699806 0 7.8501 0 0)
(8.56885 -0.668938 0 8.0109 0 0)
(8.54609 -0.616908 0 8.19637 0 0)
(8.8979 -0.594387 0 8.32717 0 0)
(8.94492 -0.548984 0 8.48639 0 0)
(9.27967 -0.512667 0 8.61595 0 0)
(9.28639 -0.442219 0 8.78639 0 0)
(9.58941 -0.399371 0 8.95348 0 0)
(9.57047 -0.281309 0 9.17676 0 0)
(9.7038 -0.222819 0 9.41174 0 0)
(9.54349 -0.0854067 0 9.7039 0 0)
(9.53309 0.0370178 0 10.031 0 0)
(9.30246 0.0717127 0 10.3734 0 0)
(9.17486 0.203961 0 10.8268 0 0)
(9.00187 0.144717 0 11.2375 0 0)
(8.86962 0.163734 0 11.5286 0 0)
(8.79915 0.0156179 0 11.8411 0 0)
(8.67745 0.0592673 0 12.0653 0 0)
(8.64151 -0.11716 0 12.3 0 0)
(8.49532 -0.0506546 0 12.4318 0 0)
(8.46604 -0.192825 0 12.5889 0 0)
(8.28514 -0.143198 0 12.5929 0 0)
(8.23247 -0.283913 0 12.6519 0 0)
(8.08316 -0.244006 0 12.5897 0 0)
(8.01074 -0.360072 0 12.6374 0 0)
(7.95602 -0.279432 0 12.625 0 0)
(7.77543 -0.418451 0 12.7416 0 0)
(7.80743 -0.310604 0 12.8064 0 0)
(7.62534 -0.444777 0 12.9301 0 0)
(7.84412 -0.325658 0 12.9729 0 0)
(7.79171 -0.415658 0 13.0492 0 0)
(8.14715 -0.33084 0 13.1334 0 0)
(8.06367 -0.394678 0 13.2682 0 0)
(8.35335 -0.257255 0 13.4722 0 0)
(8.10531 -0.367722 0 13.5984 0 0)
(8.33665 -0.193179 0 13.758 0 0)
(7.94051 -0.356168 0 13.7913 0 0)
(8.14056 -0.184313 0 13.9213 0 0)
(7.68937 -0.383632 0 13.9715 0 0)
(7.95008 -0.180684 0 14.0573 0 0)
(7.47915 -0.411995 0 14.0194 0 0)
(7.83812 -0.171629 0 14.1009 0 0)
(7.33905 -0.354623 0 14.0408 0 0)
(7.75696 -0.0933621 0 14.0412 0 0)
(7.23301 -0.221976 0 14.0048 0 0)
(7.64217 -0.00859864 0 13.9366 0 0)
(7.07405 -0.0452483 0 13.9788 0 0)
(7.47525 0.171058 0 13.9081 0 0)
(6.87296 0.181446 0 14.0872 0 0)
(7.25132 0.443221 0 14.0904 0 0)
(6.57542 0.485052 0 14.2684 0 0)
(6.96434 0.68426 0 14.2494 0 0)
(6.2326 0.779104 0 14.253 0 0)
(6.73952 1.01599 0 14.2072 0 0)
(5.92764 1.11649 0 14.2244 0 0)
(6.49288 1.36116 0 14.386 0 0)
(5.61516 1.41299 0 14.3775 0 0)
(6.2706 1.63375 0 14.4455 0 0)
(5.45645 1.70221 0 14.4582 0 0)
(6.11292 1.89751 0 14.6017 0 0)
(5.26904 1.79778 0 14.5647 0 0)
(5.88562 2.10312 0 14.8734 0 0)
(5.06317 1.82439 0 14.7237 0 0)
(5.63091 2.21321 0 14.8654 0 0)
(4.93157 1.86476 0 14.7085 0 0)
(5.42667 2.28609 0 14.876 0 0)
(4.86868 1.88518 0 14.5783 0 0)
(5.21083 2.30392 0 14.7344 0 0)
(4.84477 2.03511 0 14.5569 0 0)
(4.99231 2.25385 0 14.61 0 0)
(4.74768 2.08004 0 14.578 0 0)
(4.76363 2.14641 0 14.7682 0 0)
(4.5805 1.87038 0 14.7917 0 0)
(4.62929 1.95071 0 14.9078 0 0)
(4.42928 1.64873 0 14.8236 0 0)
(4.51429 1.65683 0 14.8162 0 0)
(4.35714 1.45118 0 14.6903 0 0)
(4.33991 1.28634 0 14.7153 0 0)
(4.292 1.08107 0 14.5017 0 0)
(4.11181 0.844376 0 14.3515 0 0)
(4.15279 0.589634 0 14.0185 0 0)
(3.89757 0.391724 0 13.7018 0 0)
(3.96859 -0.0665987 0 13.143 0 0)
(3.64219 -0.125257 0 12.5897 0 0)
(3.85427 -0.691611 0 12.1161 0 0)
(3.57636 -0.567589 0 11.3764 0 0)
(3.82452 -1.05069 0 11.0148 0 0)
(3.67958 -0.844199 0 10.2595 0 0)
(3.85005 -1.23561 0 9.96749 0 0)
(3.74505 -0.912062 0 9.47262 0 0)
(3.9237 -1.27174 0 8.95463 0 0)
(3.89459 -0.887584 0 8.75835 0 0)
(3.9172 -1.10742 0 8.02986 0 0)
(3.85772 -0.898346 0 8.0415 0 0)
(3.86889 -0.707293 0 7.25247 0 0)
(3.73527 -0.794024 0 7.51654 0 0)
(3.87289 -0.258849 0 6.63738 0 0)
(3.61689 -0.597292 0 7.27545 0 0)
(3.72786 0.141159 0 6.2633 0 0)
(3.39656 -0.393072 0 7.37575 0 0)
(3.52596 0.552916 0 6.1594 0 0)
(3.03515 -0.244731 0 7.74535 0 0)
(3.18243 0.937993 0 6.23094 0 0)
(2.61126 -0.158905 0 8.45248 0 0)
(2.70771 1.39846 0 6.76635 0 0)
(2.2546 0.0593854 0 9.79578 0 0)
(2.45878 2.20459 0 8.21161 0 0)
(1.87883 0.368319 0 11.9904 0 0)
(2.18388 3.37296 0 11.3574 0 0)
(2.00212 2.45159 0 17.6114 0 0)
(0.65093 0.945287 0 19.9004 0 0)
(0.797215 -0.401281 0 0.339767 0 0)
(0.801978 -0.424996 0 0.442442 0 0)
(0.767893 -0.391711 0 0.467828 0 0)
(0.741817 -0.347824 0 0.47898 0 0)
(0.737775 -0.308748 0 0.477359 0 0)
(0.765271 -0.29689 0 0.474343 0 0)
(0.825314 -0.317033 0 0.485029 0 0)
(0.910739 -0.357225 0 0.511528 0 0)
(1.00601 -0.401593 0 0.542961 0 0)
(1.09136 -0.440438 0 0.573207 0 0)
(1.16378 -0.476454 0 0.607337 0 0)
(1.22969 -0.508787 0 0.64873 0 0)
(1.29494 -0.541166 0 0.693429 0 0)
(1.37695 -0.572113 0 0.735789 0 0)
(1.46987 -0.610422 0 0.774769 0 0)
(1.59762 -0.65842 0 0.812125 0 0)
(1.73157 -0.725565 0 0.857053 0 0)
(1.90685 -0.81143 0 0.90993 0 0)
(2.06004 -0.896574 0 0.969558 0 0)
(2.23819 -0.989741 0 1.0373 0 0)
(2.3886 -1.06568 0 1.1044 0 0)
(2.56484 -1.14802 0 1.17287 0 0)
(2.73184 -1.22273 0 1.24216 0 0)
(2.92296 -1.30785 0 1.31456 0 0)
(3.10744 -1.38622 0 1.39055 0 0)
(3.32496 -1.4778 0 1.47518 0 0)
(3.54484 -1.56507 0 1.56601 0 0)
(3.80058 -1.67237 0 1.66142 0 0)
(4.07422 -1.78686 0 1.75954 0 0)
(4.34958 -1.91657 0 1.86143 0 0)
(4.65493 -2.05781 0 1.96336 0 0)
(4.91305 -2.19466 0 2.06302 0 0)
(5.21073 -2.3436 0 2.1599 0 0)
(5.43314 -2.47371 0 2.25072 0 0)
(5.6935 -2.61903 0 2.33949 0 0)
(5.87457 -2.73888 0 2.4212 0 0)
(6.05532 -2.86094 0 2.49989 0 0)
(6.18151 -2.95383 0 2.56526 0 0)
(6.25683 -3.03488 0 2.62734 0 0)
(6.34361 -3.0975 0 2.67545 0 0)
(6.33599 -3.12987 0 2.71748 0 0)
(6.41368 -3.16516 0 2.75281 0 0)
(6.3827 -3.16909 0 2.78359 0 0)
(6.49319 -3.20229 0 2.82253 0 0)
(6.50211 -3.21676 0 2.86341 0 0)
(6.66003 -3.27508 0 2.93036 0 0)
(6.72541 -3.32029 0 3.0027 0 0)
(6.90293 -3.40434 0 3.10592 0 0)
(6.99612 -3.46722 0 3.21151 0 0)
(7.13123 -3.54798 0 3.34183 0 0)
(7.20026 -3.59478 0 3.46294 0 0)
(7.23884 -3.62876 0 3.59162 0 0)
(7.23371 -3.61706 0 3.69974 0 0)
(7.16819 -3.57487 0 3.79287 0 0)
(7.07736 -3.48055 0 3.86323 0 0)
(6.96511 -3.3766 0 3.90782 0 0)
(6.83804 -3.21875 0 3.93359 0 0)
(6.76062 -3.10524 0 3.954 0 0)
(6.66958 -2.94507 0 3.96908 0 0)
(6.67067 -2.87853 0 4.01585 0 0)
(6.6482 -2.76577 0 4.05022 0 0)
(6.71702 -2.73887 0 4.12011 0 0)
(6.73097 -2.66416 0 4.15914 0 0)
(6.83393 -2.61789 0 4.21541 0 0)
(6.81615 -2.52347 0 4.23386 0 0)
(6.90338 -2.42128 0 4.23083 0 0)
(6.84501 -2.27843 0 4.20901 0 0)
(6.92713 -2.17678 0 4.20737 0 0)
(6.87698 -2.04553 0 4.23753 0 0)
(6.96441 -1.97558 0 4.32213 0 0)
(6.96833 -1.87281 0 4.40831 0 0)
(7.13305 -1.80204 0 4.53539 0 0)
(7.18237 -1.71632 0 4.62591 0 0)
(7.4273 -1.66945 0 4.75201 0 0)
(7.5199 -1.6086 0 4.90176 0 0)
(7.79814 -1.60827 0 5.09525 0 0)
(7.90658 -1.53587 0 5.3496 0 0)
(8.09724 -1.51136 0 5.60845 0 0)
(8.1686 -1.36905 0 5.88566 0 0)
(8.19532 -1.28247 0 6.15976 0 0)
(8.20709 -1.1371 0 6.40772 0 0)
(8.21628 -1.0767 0 6.63371 0 0)
(8.25107 -0.977946 0 6.82958 0 0)
(8.27044 -0.959319 0 6.96711 0 0)
(8.38059 -0.906746 0 7.06642 0 0)
(8.42617 -0.86784 0 7.21379 0 0)
(8.56897 -0.853573 0 7.34304 0 0)
(8.65025 -0.786366 0 7.55548 0 0)
(8.87594 -0.757797 0 7.72754 0 0)
(8.96744 -0.677083 0 7.97775 0 0)
(9.22727 -0.686716 0 8.12162 0 0)
(9.37193 -0.66442 0 8.29008 0 0)
(9.61939 -0.629008 0 8.42976 0 0)
(9.8053 -0.592416 0 8.60013 0 0)
(9.97306 -0.541942 0 8.72936 0 0)
(10.1557 -0.50911 0 8.90302 0 0)
(10.253 -0.443031 0 9.08925 0 0)
(10.408 -0.366435 0 9.33043 0 0)
(10.3102 -0.285669 0 9.58223 0 0)
(10.3626 -0.166694 0 9.90099 0 0)
(10.1096 -0.044433 0 10.2464 0 0)
(10.0651 -0.0252682 0 10.6505 0 0)
(9.66492 0.132187 0 11.1342 0 0)
(9.73018 0.0332328 0 11.4872 0 0)
(9.21013 0.122636 0 11.7647 0 0)
(9.41829 -0.0546329 0 11.9949 0 0)
(8.79872 0.107465 0 12.1899 0 0)
(9.1489 -0.0844094 0 12.3423 0 0)
(8.44221 0.137984 0 12.4645 0 0)
(8.96095 -0.0301857 0 12.5601 0 0)
(8.15821 0.185567 0 12.5752 0 0)
(8.8601 0.0294007 0 12.6326 0 0)
(8.01917 0.195565 0 12.5808 0 0)
(8.81078 0.049358 0 12.7036 0 0)
(7.84244 0.106388 0 12.729 0 0)
(8.57982 -0.0932703 0 12.8729 0 0)
(7.747 -0.0311678 0 12.8996 0 0)
(8.56968 -0.230187 0 12.9763 0 0)
(7.95612 -0.0823616 0 13.0261 0 0)
(8.8513 -0.293568 0 13.1122 0 0)
(8.26702 -0.135571 0 13.2558 0 0)
(9.0644 -0.266442 0 13.4128 0 0)
(8.35193 -0.075904 0 13.6532 0 0)
(9.07068 -0.165679 0 13.8524 0 0)
(8.17726 0.0693886 0 14.0781 0 0)
(8.83807 -0.0989998 0 14.1704 0 0)
(7.8359 0.14589 0 14.3242 0 0)
(8.48572 -0.110651 0 14.3199 0 0)
(7.48484 0.125954 0 14.4422 0 0)
(8.14857 -0.123767 0 14.3751 0 0)
(7.15403 0.0585454 0 14.4523 0 0)
(7.85217 -0.0856047 0 14.363 0 0)
(6.89131 0.0879212 0 14.3395 0 0)
(7.596 0.0435597 0 14.3157 0 0)
(6.61527 0.172456 0 14.2531 0 0)
(7.3569 0.211383 0 14.2571 0 0)
(6.33068 0.338066 0 14.1162 0 0)
(7.10849 0.446559 0 14.2658 0 0)
(6.0777 0.620404 0 14.2578 0 0)
(6.78004 0.75715 0 14.4562 0 0)
(5.8095 0.962071 0 14.4389 0 0)
(6.43829 1.05164 0 14.4135 0 0)
(5.59213 1.239 0 14.3594 0 0)
(6.1924 1.39528 0 14.4418 0 0)
(5.31784 1.44495 0 14.6074 0 0)
(6.04722 1.67104 0 14.6299 0 0)
(5.11174 1.57503 0 14.6898 0 0)
(5.97529 1.84573 0 14.7548 0 0)
(4.87965 1.74763 0 14.9606 0 0)
(5.7476 1.87501 0 14.9542 0 0)
(4.67404 1.96131 0 15.2043 0 0)
(5.55173 1.87961 0 14.9884 0 0)
(4.43453 2.05271 0 15.163 0 0)
(5.46268 1.93688 0 15.0087 0 0)
(4.2851 2.15148 0 15.1089 0 0)
(5.36755 1.89916 0 14.7449 0 0)
(4.17172 2.21751 0 14.9216 0 0)
(5.30298 1.95301 0 14.7138 0 0)
(4.05309 2.16595 0 14.8573 0 0)
(5.1802 1.94788 0 14.9109 0 0)
(3.91324 2.02396 0 15.1217 0 0)
(4.97255 1.80857 0 15.0505 0 0)
(3.81873 1.82009 0 15.1712 0 0)
(4.8867 1.74479 0 14.8992 0 0)
(3.71373 1.64961 0 15.0639 0 0)
(4.74578 1.50219 0 14.7681 0 0)
(3.68773 1.44284 0 15.0006 0 0)
(4.55751 1.21063 0 14.7386 0 0)
(3.76554 1.24738 0 14.6898 0 0)
(4.29732 0.738153 0 14.3923 0 0)
(3.78971 0.916049 0 14.0951 0 0)
(4.03269 0.323515 0 13.682 0 0)
(3.76228 0.358822 0 13.0604 0 0)
(3.73581 -0.280163 0 12.6104 0 0)
(3.8752 -0.192744 0 11.8611 0 0)
(3.52771 -0.93461 0 11.2965 0 0)
(4.08987 -0.584518 0 10.7418 0 0)
(3.43497 -1.40115 0 10.1599 0 0)
(4.25022 -0.884068 0 9.77864 0 0)
(3.42187 -1.47704 0 9.19206 0 0)
(4.2294 -1.18094 0 8.99663 0 0)
(3.42463 -1.26745 0 8.29996 0 0)