/*--------------------------------*- C++ -*----------------------------------*\
| =========                 |                                                 |
| \\      /  F ield         | OpenFOAM: The Open Source CFD Toolbox           |
|  \\    /   O peration     | Version:  2.4.0                                 |
|   \\  /    A nd           | Web:      www.OpenFOAM.org                      |
|    \\/     M anipulation  |                                                 |
\*---------------------------------------------------------------------------*/
FoamFile
{
    version     2.0;
    format      ascii;
    class       volScalarField;
    location    "1.52";
    object      k;
}
// * * * * * * * * * * * * * * * * * * * * * * * * * * * * * * * * * * * * * //

dimensions      [0 2 -2 0 0 0 0];

internalField   nonuniform List<scalar> 
8800
(
8.15105
10.2327
8.84559
6.74753
5.77454
4.88119
4.60953
4.06032
3.96657
3.62766
3.58934
3.34588
3.33943
3.14796
3.15204
2.95426
3.00858
2.78818
2.99293
2.57324
1.45335
4.30325
5.36587
5.2688
5.14733
4.75287
4.61956
4.24948
4.14444
3.86675
3.79017
3.57916
3.53667
3.37874
3.34909
3.21023
3.20067
3.07142
3.07725
3.04948
0.0881592
0.683084
1.61518
1.91236
2.32562
2.40973
2.58968
2.59476
2.62036
2.58543
2.58143
2.54186
2.52531
2.4706
2.46056
2.42976
2.39582
2.37165
2.30654
2.32415
0.00363241
0.0657233
0.276037
0.403285
0.599655
0.709438
0.821502
0.948311
1.0216
1.09231
1.1537
1.22359
1.25461
1.29654
1.32653
1.38043
1.38942
1.41833
1.40775
1.41699
0.000134862
0.00461639
0.0234288
0.0557374
0.0860254
0.131831
0.156861
0.213762
0.240442
0.289077
0.31467
0.368141
0.392256
0.429568
0.457558
0.505519
0.525058
0.556217
0.578486
0.597831
3.07563e-05
0.000318569
0.00162318
0.00509252
0.00791615
0.0144851
0.0183884
0.0287305
0.0342767
0.0461661
0.0527994
0.0680758
0.0761391
0.0895237
0.098799
0.116919
0.124546
0.139459
0.147076
0.162413
2.35789e-05
5.60365e-05
0.000173537
0.000562062
0.000889986
0.00169696
0.00228118
0.00380713
0.00469392
0.0068194
0.00810617
0.0113317
0.0129965
0.0165188
0.0184969
0.022901
0.024663
0.0292289
0.0314649
0.0383274
2.19951e-05
4.26968e-05
7.10296e-05
0.00014562
0.000208906
0.000363741
0.000485331
0.000792441
0.000960651
0.0013849
0.00160955
0.00221484
0.00261316
0.00367723
0.0042322
0.00546676
0.00595648
0.00735942
0.00810813
0.0104401
2.08072e-05
2.87806e-05
5.15693e-05
0.000105228
0.000122278
0.00015827
0.000182652
0.000272385
0.000311622
0.000399712
0.000434883
0.000520593
0.000605204
0.00083686
0.00104251
0.00115678
0.00133009
0.00179752
0.00243353
0.00302175
2.07069e-05
3.19794e-05
3.76842e-05
5.40865e-05
7.43777e-05
9.01609e-05
9.35284e-05
0.000104967
0.000136601
0.000155913
0.000168331
0.000198658
0.000268819
0.0003535
0.000364221
0.000371867
0.000401526
0.000569615
0.00072614
0.000739198
2.05178e-05
3.4099e-05
3.73135e-05
4.46499e-05
7.54591e-05
8.52849e-05
8.2858e-05
8.56991e-05
8.64194e-05
8.60276e-05
8.71033e-05
9.7047e-05
0.000124823
0.000172288
0.00025386
0.000259496
0.000263603
0.000290161
0.000368561
0.00048763
2.06249e-05
2.93091e-05
3.9717e-05
7.20673e-05
7.37317e-05
7.29364e-05
7.45161e-05
9.24238e-05
0.000101585
0.000105964
0.000109193
0.000120627
0.000128348
0.000128113
0.00013396
0.000146082
0.000230777
0.000288083
0.000343434
0.000377233
2.10135e-05
3.08553e-05
6.29044e-05
7.27916e-05
7.897e-05
0.000109325
0.000146044
0.000234709
0.000266944
0.000332992
0.000367793
0.000456427
0.000569416
0.000733878
0.000796666
0.000963869
0.00118835
0.00167357
0.00191746
0.00241473
2.14868e-05
4.4554e-05
0.000127247
0.000242626
0.000577864
0.000943256
0.00128994
0.00225311
0.00280261
0.00412338
0.00490642
0.00667121
0.00773411
0.0100855
0.0110987
0.0134772
0.0152179
0.01952
0.0223234
0.0296556
2.50674e-05
0.000317735
0.00154845
0.00344914
0.00864926
0.0125323
0.0171427
0.028329
0.0338855
0.0458046
0.0522717
0.0659673
0.072442
0.0864898
0.0925991
0.108431
0.117857
0.14027
0.153132
0.191692
0.000122563
0.00504181
0.024118
0.0464219
0.0966007
0.12049
0.162271
0.216145
0.240677
0.28972
0.319199
0.363278
0.382616
0.425832
0.445733
0.495863
0.520307
0.579443
0.610646
0.69459
0.00335642
0.0709353
0.255216
0.414371
0.608061
0.68828
0.84277
0.943374
1.02175
1.09948
1.16214
1.21055
1.23898
1.29133
1.31537
1.36933
1.39188
1.44831
1.47353
1.533
0.0845271
0.739915
1.55561
1.94743
2.29466
2.42089
2.58988
2.60104
2.62256
2.59293
2.57875
2.52393
2.50647
2.45707
2.44751
2.41411
2.40491
2.3806
2.37163
2.34835
1.40536
4.35482
5.31506
5.28961
5.12727
4.80462
4.57436
4.26281
4.12511
3.85107
3.75939
3.56439
3.50993
3.35808
3.32543
3.20077
3.16907
3.04982
3.00998
2.90547
8.12247
10.2588
8.78637
6.81983
5.68385
4.97335
4.5142
4.12124
3.91396
3.63273
3.54243
3.34315
3.30298
3.13567
3.10283
2.9353
2.89927
2.71813
2.64909
2.42249
1.70966
1.3204
1.07039
0.924503
0.797528
0.740309
0.66849
0.647034
0.606774
0.597473
0.57505
0.571295
0.559342
0.559573
0.554802
0.557435
0.555679
0.561235
0.560173
0.565239
0.562596
0.565485
0.561859
0.561546
0.553967
0.540417
0.505808
0.450989
0.375532
0.298652
0.260227
0.254257
0.257992
0.269441
0.277027
0.284237
0.282515
0.276548
0.263308
0.255292
0.254335
0.257292
0.267734
0.299134
0.322856
0.330854
0.331021
0.326397
0.309245
0.292896
0.270614
0.261246
0.26212
0.269417
0.293099
0.35257
0.368787
0.362935
0.340057
0.27275
0.205571
0.168636
0.152404
0.138815
0.128013
0.120855
0.114519
0.110697
0.108961
0.109106
0.110577
0.114738
0.117974
0.117559
0.116239
0.112446
0.107719
0.105052
0.099611
0.0917536
0.0865857
0.0764241
0.0656962
0.0555437
0.0519623
0.0531549
0.0575362
0.0705729
0.108791
0.167645
0.347746
0.53012
0.550909
0.515008
0.392188
0.285336
0.209798
0.17184
0.149196
0.133671
0.122262
0.118934
0.118098
0.114027
0.108049
0.107132
0.107558
0.107432
0.104549
0.0997031
0.0956893
0.0832541
0.0682139
0.0585431
0.0475996
0.0377657
0.0327649
0.0316923
0.0300227
0.0252894
0.0254414
0.0264794
0.0250077
0.0488714
0.197048
0.301203
0.320652
0.304616
0.237115
0.167269
0.127012
0.104428
0.0854254
0.0732889
0.0680781
0.0678166
0.0705336
0.0729283
0.0714073
0.0697536
0.0702294
0.0719326
0.0762082
0.0929438
0.109508
0.119973
0.138216
0.173359
0.207141
0.228284
0.233865
0.232356
0.22399
0.207088
0.193097
0.175167
0.15123
0.129356
0.115571
0.106211
0.0983075
0.087706
0.0764823
0.0689946
0.0612594
0.0599397
0.055011
0.0508072
0.0477902
0.0496469
0.0492759
0.0487619
0.0365978
0.0252317
0.017381
0.016093
0.0165859
0.026995
0.0344083
0.0378168
0.0399283
0.0442881
0.0571519
0.0611744
0.0675691
0.062149
0.0592348
0.0605452
0.0688054
0.0804459
0.0878686
0.0899523
0.100444
0.100278
0.0941044
0.0703682
0.0710237
0.0729477
0.0946096
0.324733
2.57899
2.13049
1.75538
1.55083
1.33269
1.23146
1.0942
1.04225
0.951128
0.919887
0.855669
0.833888
0.786275
0.770482
0.734164
0.722412
0.693826
0.685214
0.6628
0.656778
0.640084
0.637763
0.629705
0.633797
0.631913
0.6397
0.639248
0.641191
0.631009
0.608502
0.547933
0.484681
0.409284
0.359952
0.329218
0.314841
0.303287
0.292972
0.288666
0.289905
0.297393
0.323611
0.34187
0.343518
0.341687
0.336222
0.322838
0.291381
0.243123
0.214932
0.202869
0.188928
0.176554
0.172493
0.173315
0.180529
0.204406
0.274317
0.294723
0.291265
0.280221
0.248548
0.220011
0.192371
0.171913
0.155896
0.144156
0.140852
0.140782
0.141535
0.140661
0.137989
0.132049
0.122952
0.11868
0.110282
0.0995658
0.0916013
0.0766022
0.0611089
0.047172
0.034982
0.0275839
0.0241306
0.0241849
0.0252096
0.0282362
0.0343398
0.0478437
0.0795146
0.150023
0.346536
0.475784
0.480351
0.431225
0.341037
0.259723
0.205416
0.177562
0.156188
0.13959
0.134385
0.130018
0.124885
0.123145
0.121587
0.119273
0.114608
0.10618
0.100905
0.094157
0.0746325
0.0582503
0.0507723
0.0439005
0.0347276
0.0287004
0.0273263
0.0269065
0.021029
0.0182546
0.0183395
0.0177675
0.0326315
0.17931
0.300368
0.317758
0.292169
0.222971
0.157961
0.121708
0.0990508
0.0774755
0.0667106
0.064559
0.0653779
0.0692907
0.0707675
0.0699679
0.0684213
0.0685138
0.0692663
0.0718223
0.0836051
0.100704
0.110698
0.124415
0.147627
0.177857
0.205819
0.215829
0.21638
0.214824
0.205987
0.191959
0.181804
0.165999
0.144526
0.127911
0.114724
0.109621
0.0965673
0.0938266
0.082943
0.080836
0.0724021
0.0718546
0.0669614
0.0669845
0.0648553
0.068256
0.0678609
0.0661694
0.0424599
0.027983
0.0185301
0.0184234
0.0198505
0.0373545
0.0415894
0.0465512
0.045844
0.0512375
0.0560187
0.0667147
0.0699587
0.0698721
0.0670887
0.0701825
0.0769304
0.0975995
0.0983883
0.103449
0.102536
0.0991061
0.0763288
0.0685312
0.0709461
0.0782773
0.142185
2.11234
1.89423
1.64843
1.49933
1.32535
1.23549
1.11339
1.06027
0.971634
0.937219
0.869506
0.843667
0.790633
0.769967
0.727036
0.710413
0.674952
0.661245
0.63233
0.621202
0.597488
0.590157
0.573512
0.570801
0.565001
0.567959
0.57084
0.583212
0.590232
0.599809
0.598546
0.592648
0.578238
0.549707
0.516823
0.484998
0.455771
0.435356
0.420855
0.413258
0.40576
0.395493
0.380575
0.357285
0.335627
0.303715
0.260911
0.214392
0.175098
0.147668
0.125693
0.100521
0.0797155
0.0731698
0.0736042
0.0770891
0.0856365
0.103047
0.143889
0.207228
0.236499
0.237049
0.234047
0.225623
0.212237
0.202227
0.194607
0.184141
0.174747
0.165024
0.150922
0.142195
0.130382
0.115042
0.105207
0.0878135
0.0690458
0.0524275
0.0333947
0.0238852
0.0178038
0.0143489
0.0131818
0.0131682
0.013911
0.0152104
0.018095
0.0206335
0.0256858
0.037852
0.0678213
0.137179
0.304374
0.403652
0.401481
0.364232
0.304014
0.249478
0.216605
0.191775
0.172241
0.160305
0.150918
0.14556
0.140815
0.130868
0.123749
0.116747
0.106665
0.0987156
0.0830732
0.0620517
0.0477778
0.042824
0.0395389
0.0301578
0.0232842
0.0213693
0.020179
0.0164534
0.0149075
0.0148643
0.0150588
0.0302261
0.181085
0.303356
0.312807
0.269099
0.205047
0.148908
0.115224
0.093234
0.0724677
0.0624759
0.0619727
0.0646157
0.0701349
0.0720318
0.0713855
0.0685092
0.0682634
0.0685758
0.0692864
0.0751654
0.0942989
0.102394
0.111712
0.130965
0.150486
0.174066
0.196776
0.19887
0.19839
0.195521
0.186058
0.181039
0.16956
0.157663
0.147891
0.133946
0.126894
0.117403
0.112561
0.100818
0.0913963
0.0800226
0.0777558
0.0770995
0.0747898
0.0704657
0.0731548
0.0716821
0.0806834
0.0738492
0.0704092
0.0447419
0.0381955
0.0314987
0.0366158
0.0404747
0.0479162
0.047792
0.0488264
0.0505678
0.0580266
0.0647405
0.0728104
0.0740764
0.0791022
0.0819997
0.0966554
0.108271
0.121592
0.117557
0.115237
0.0923113
0.0751497
0.0748572
0.0774838
0.095335
1.33293
1.24768
1.13346
1.0606
0.964851
0.909905
0.835608
0.795397
0.738281
0.710162
0.663195
0.641613
0.603566
0.583204
0.550514
0.533917
0.504484
0.489692
0.467153
0.452426
0.434452
0.424515
0.410483
0.4047
0.398784
0.398934
0.400737
0.406335
0.418188
0.436038
0.458477
0.477486
0.49251
0.492716
0.488718
0.47968
0.459426
0.44536
0.429192
0.407631
0.384182
0.351789
0.319013
0.278856
0.231423
0.183254
0.138231
0.0994702
0.0722223
0.0543354
0.0429549
0.0352039
0.0303079
0.0290309
0.0293106
0.0307418
0.0347826
0.0412599
0.0512174
0.0699207
0.104212
0.14008
0.165498
0.178726
0.17974
0.177953
0.173825
0.162919
0.153747
0.140249
0.123433
0.108601
0.0888317
0.0703398
0.0530341
0.0357973
0.0246929
0.017583
0.0124888
0.0103361
0.00897912
0.00878693
0.00917429
0.00996554
0.0116157
0.0135485
0.016015
0.0172133
0.0185071
0.0221207
0.032257
0.0591657
0.127797
0.236172
0.326565
0.329799
0.30972
0.270823
0.240192
0.214756
0.196638
0.181204
0.164686
0.156252
0.148327
0.13388
0.123996
0.117687
0.0995878
0.0800257
0.0645409
0.0481098
0.0386532
0.0354574
0.0309233
0.0212994
0.0167067
0.0151085
0.0151287
0.0147519
0.0142577
0.0143321
0.0148888
0.03486
0.199961
0.304343
0.303216
0.240824
0.195083
0.145791
0.110242
0.0899319
0.0711082
0.0615623
0.0611666
0.064872
0.0704316
0.0729412
0.0730348
0.0711853
0.0683272
0.068242
0.0688666
0.0714385
0.0893967
0.102146
0.106608
0.116559
0.136607
0.14777
0.168628
0.182764
0.18348
0.188735
0.182205
0.178898
0.16724
0.159694
0.148874
0.141039
0.132613
0.129466
0.117667
0.108262
0.0866098
0.0819284
0.073095
0.0788222
0.0680666
0.0672795
0.0616087
0.0628321
0.0729288
0.0767678
0.0864338
0.0941649
0.111757
0.110612
0.0951429
0.0661206
0.0573408
0.0510847
0.0487905
0.0483079
0.0493064
0.0525073
0.0640477
0.0698103
0.0752576
0.0808671
0.0885607
0.102499
0.116998
0.129148
0.133024
0.128186
0.107393
0.0945344
0.092633
0.0982563
0.576258
0.55386
0.521105
0.497251
0.465079
0.441238
0.41439
0.393536
0.371378
0.355532
0.338031
0.322223
0.309843
0.294576
0.280242
0.269216
0.254262
0.243317
0.231794
0.223116
0.212671
0.205555
0.200641
0.195195
0.194284
0.194888
0.197151
0.200646
0.208938
0.216363
0.22714
0.242501
0.254912
0.269025
0.283364
0.286836
0.284337
0.277466
0.262028
0.238759
0.21234
0.182883
0.149016
0.117118
0.0902971
0.0679207
0.0508581
0.0380449
0.0284101
0.0220302
0.0181167
0.0154188
0.013337
0.0125122
0.0125355
0.0130021
0.0140712
0.0168623
0.0207984
0.0243017
0.0314224
0.0475002
0.0561855
0.0690494
0.0792534
0.0803989
0.0791678
0.0741916
0.0679024
0.0574879
0.0472426
0.038563
0.029937
0.0230391
0.0174208
0.0128838
0.00978668
0.00789054
0.00685514
0.006802
0.00697234
0.00749502
0.00870366
0.00980288
0.0127786
0.0143208
0.0179672
0.0208758
0.0210333
0.0218393
0.0241239
0.031275
0.051444
0.105463
0.175789
0.235414
0.265169
0.257518
0.239137
0.215184
0.201517
0.186309
0.166985
0.157995
0.149065
0.129687
0.118881
0.103605
0.071918
0.0549789
0.0453777
0.0342804
0.0287666
0.0249133
0.0200962
0.0164576
0.014787
0.0137673
0.0137289
0.014252
0.0143553
0.0146475
0.0162396
0.0496134
0.231225
0.308121
0.290624
0.216869
0.189922
0.144932
0.107861
0.0877591
0.0709546
0.0620918
0.0614468
0.0646942
0.0658335
0.0683004
0.0705877
0.0698193
0.0679607
0.067965
0.0686202
0.0715325
0.0830855
0.101901
0.107855
0.11163
0.125363
0.135657
0.144142
0.170925
0.171761
0.17548
0.172776
0.170367
0.161469
0.154029
0.150369
0.142785
0.142193
0.138958
0.122535
0.107564
0.0873728
0.0800722
0.0653054
0.0572238
0.0447375
0.044917
0.0449717
0.046165
0.0573077
0.0689886
0.0788201
0.0798387
0.0814082
0.085766
0.0968894
0.106247
0.104378
0.0828394
0.0602716
0.0515468
0.0507411
0.0521307
0.0594183
0.0672014
0.0765526
0.082937
0.0887047
0.10149
0.107541
0.121998
0.127553
0.137972
0.134432
0.128993
0.115645
0.109489
0.159425
0.155877
0.149089
0.144428
0.137902
0.132458
0.12792
0.122898
0.117977
0.114536
0.110712
0.105737
0.10348
0.0992554
0.0946238
0.0919595
0.086935
0.0835
0.0801964
0.077332
0.0737816
0.0719676
0.06958
0.0674492
0.0673011
0.0675624
0.068455
0.070259
0.0745492
0.0773223
0.0820985
0.0891022
0.0934015
0.0993098
0.105016
0.105967
0.10512
0.102392
0.095849
0.0869081
0.0758017
0.0645079
0.0531683
0.0427279
0.0337318
0.0256645
0.0197501
0.0150482
0.0114705
0.00917729
0.00766695
0.00660408
0.00589928
0.00570864
0.00572809
0.00592441
0.00649709
0.0070797
0.00873656
0.0106705
0.0122913
0.0152882
0.0207359
0.0253122
0.0281846
0.0287028
0.0282165
0.0265168
0.0244274
0.0209707
0.0178448
0.0146423
0.0117055
0.00935168
0.00745132
0.00616266
0.00547986
0.00542584
0.00562161
0.00618488
0.0067931
0.0085227
0.0103028
0.0114078
0.0142499
0.0163862
0.0184494
0.023723
0.028015
0.0281572
0.0272152
0.0277963
0.0319733
0.04695
0.0824154
0.118212
0.155168
0.188711
0.194242
0.190323
0.183325
0.172608
0.15313
0.142853
0.126802
0.101732
0.0824207
0.0617744
0.0442731
0.035576
0.031036
0.0267595
0.0234065
0.0198817
0.016901
0.0151079
0.0143654
0.0134886
0.0133181
0.014114
0.0152085
0.0165293
0.020268
0.0765997
0.265931
0.311955
0.268914
0.205962
0.18683
0.146986
0.10657
0.0863298
0.07356
0.0672949
0.0645452
0.065085
0.0650047
0.0637111
0.0639665
0.0660312
0.066548
0.066534
0.0679105
0.0737752
0.08281
0.0990566
0.114317
0.113946
0.117765
0.134862
0.134872
0.142383
0.156403
0.159469
0.158467
0.157821
0.153389
0.149868
0.148674
0.146573
0.145731
0.141526
0.119911
0.107212
0.0829271
0.074656
0.0529616
0.0470802
0.0388764
0.0441408
0.0462386
0.0464056
0.0464918
0.0563466
0.0787672
0.0982957
0.110127
0.109423
0.100281
0.100522
0.1024
0.100265
0.0905748
0.0746089
0.066171
0.0657793
0.0695172
0.0788893
0.0895758
0.0999938
0.106241
0.114733
0.117625
0.126404
0.127791
0.13713
0.135813
0.134711
0.131882
0.127247
0.0380818
0.0375191
0.0361625
0.0353597
0.0342563
0.0336401
0.0330799
0.0325243
0.0319161
0.0314641
0.0309668
0.0303302
0.0300433
0.0293623
0.0285984
0.0280627
0.0271175
0.026588
0.0260287
0.0253843
0.0247127
0.0242099
0.0233335
0.022622
0.0224617
0.022487
0.0226803
0.0233351
0.0243974
0.0252843
0.0272551
0.0288084
0.0304656
0.0326513
0.0348164
0.0352851
0.0350429
0.0342124
0.0321099
0.029439
0.0259748
0.0223177
0.0186694
0.0152027
0.0119206
0.00915374
0.00720221
0.00551595
0.00439742
0.00376193
0.00334007
0.00315061
0.00311686
0.00312669
0.00315359
0.00321564
0.00334016
0.00356798
0.00383087
0.00440983
0.00618749
0.00704487
0.00876538
0.00988289
0.0105691
0.0107606
0.0106193
0.0101392
0.00923715
0.00813741
0.00700831
0.00601322
0.00524429
0.00465913
0.00438398
0.00444582
0.00462705
0.00507373
0.00627511
0.00774029
0.0100396
0.0148418
0.017331
0.0213597
0.0231089
0.0226425
0.0221163
0.0226049
0.0239019
0.0304698
0.0319727
0.0300263
0.02987
0.0322822
0.0450284
0.0583902
0.0820881
0.107874
0.117427
0.120969
0.120643
0.116702
0.102865
0.0946808
0.0818362
0.0619303
0.0486702
0.0399858
0.0324594
0.0276358
0.0253208
0.0239299
0.0215254
0.0181871
0.0158185
0.0147623
0.01422
0.0134061
0.013285
0.014333
0.0169043
0.0200906
0.0280209
0.121121
0.293828
0.316129
0.254759
0.200917
0.18403
0.14841
0.104917
0.0842677
0.0797348
0.0788282
0.0735915
0.0717133
0.0690401
0.0640645
0.0643319
0.0641535
0.0650845
0.067131
0.06845
0.0762249
0.0865698
0.0961379
0.117816
0.122558
0.119475
0.127325
0.13663
0.135126
0.13752
0.145772
0.144434
0.145949
0.146096
0.148093
0.150126
0.149338
0.148166
0.143004
0.122531
0.105377
0.0825
0.0653059
0.0498455
0.0406915
0.0376156
0.0369891
0.0414663
0.0456797
0.042403
0.0424469
0.0398255
0.0407839
0.0434042
0.0650535
0.0853096
0.0914788
0.0936793
0.0936853
0.0886316
0.085081
0.0758893
0.0761163
0.075643
0.0826005
0.0902034
0.097252
0.103082
0.114929
0.116842
0.121934
0.121966
0.12793
0.131013
0.131081
0.130029
0.129068
0.0104391
0.01034
0.0100504
0.0098503
0.00961246
0.00949349
0.00939183
0.00928008
0.00921678
0.0091526
0.00912688
0.0090697
0.00904546
0.00898685
0.00893276
0.00891135
0.00886438
0.00885267
0.00883059
0.00881442
0.00872153
0.00856
0.00826337
0.00798118
0.00769681
0.00747616
0.00744795
0.00749212
0.00764694
0.00782015
0.00833029
0.00870689
0.00912758
0.00981888
0.0105874
0.0107642
0.0106986
0.0104836
0.00992564
0.00904714
0.00806968
0.00693583
0.00580036
0.00473793
0.00380045
0.00307891
0.00257222
0.00220674
0.00200207
0.00196464
0.00197594
0.00200825
0.0021552
0.00229551
0.0023438
0.00232945
0.00231433
0.00232843
0.00236237
0.00243777
0.00289286
0.00340357
0.00406829
0.00462528
0.00473246
0.00468193
0.00458841
0.00435769
0.00409151
0.00398285
0.00373613
0.0036294
0.00365949
0.00373728
0.00396822
0.00449329
0.0056978
0.00832413
0.012624
0.0174956
0.0267537
0.0363034
0.0434909
0.04844
0.0485024
0.0460012
0.0402694
0.0313442
0.028278
0.030108
0.0319879
0.0316327
0.0301999
0.0301888
0.0330139
0.0377965
0.0481482
0.0636015
0.0690003
0.0723915
0.0725253
0.0707538
0.0641824
0.0590618
0.0509451
0.0407293
0.033943
0.0310673
0.0279079
0.0249613
0.0235799
0.0228675
0.0209443
0.0174531
0.0153773
0.0147629
0.0146861
0.0140648
0.0139686
0.0150055
0.0194305
0.0257814
0.0404993
0.168457
0.317798
0.323177
0.24339
0.195388
0.179089
0.147305
0.102956
0.0834132
0.0829044
0.0831022
0.0829274
0.082377
0.077133
0.0706881
0.0655529
0.0653636
0.0663714
0.0692382
0.0718982
0.0804899
0.0946701
0.100122
0.113301
0.13941
0.131428
0.125643
0.133067
0.135797
0.13295
0.13439
0.135411
0.137695
0.146158
0.148262
0.153968
0.152911
0.151665
0.147247
0.125014
0.0999562
0.0734266
0.0521363
0.0436986
0.0411597
0.0431776
0.0418542
0.0403863
0.0351461
0.0325349
0.0318939
0.0321803
0.0321435
0.0324613
0.0342638
0.0415113
0.065571
0.0751814
0.079819
0.0799002
0.0800194
0.0761306
0.0731664
0.0727195
0.07898
0.0856333
0.0922567
0.0971759
0.105218
0.110618
0.11371
0.118374
0.127748
0.132517
0.135095
0.135177
0.133996
0.00301128
0.00298692
0.00292373
0.00283794
0.00274463
0.00266408
0.00258415
0.00251262
0.00248916
0.00247772
0.00247903
0.00247851
0.00249409
0.00250488
0.00252691
0.00258468
0.0026308
0.00270136
0.00273763
0.00280902
0.00286361
0.0029078
0.00291575
0.0028476
0.00273107
0.00259793
0.00245019
0.0023302
0.00228801
0.00228439
0.00229549
0.00236134
0.00244494
0.0025222
0.00268043
0.00271375
0.00270055
0.00265792
0.0025626
0.00238297
0.00219714
0.00199053
0.00180734
0.00165739
0.00155996
0.00149909
0.00147601
0.00149555
0.0015352
0.00157393
0.00163286
0.0017627
0.00194098
0.00216552
0.00238092
0.00244838
0.00245286
0.00237744
0.00228689
0.00228623
0.00230769
0.00240346
0.00248664
0.00260598
0.00275256
0.00280045
0.00288908
0.00295239
0.00305905
0.00318757
0.00325387
0.00339351
0.00367556
0.00434269
0.00587159
0.00850254
0.0143508
0.0227076
0.0334763
0.0525317
0.0713969
0.0872202
0.0981789
0.0997832
0.0976781
0.0899813
0.0811947
0.0608397
0.0437108
0.0367923
0.0340243
0.032041
0.0305703
0.0298135
0.0301055
0.0311855
0.0348455
0.0420242
0.0439582
0.0458758
0.0463765
0.0457271
0.0431886
0.0403892
0.0374066
0.0322809
0.0290059
0.027927
0.0264137
0.0242394
0.0231898
0.0224384
0.0202122
0.0168998
0.015527
0.0157661
0.0166811
0.0165563
0.0163807
0.0177005
0.0255523
0.0362903
0.0593438
0.216228
0.339787
0.328547
0.226227
0.181949
0.17195
0.148764
0.104069
0.0880436
0.0825949
0.0814561
0.0878467
0.091919
0.0921645
0.0851037
0.0695383
0.0689602
0.0696156
0.0751222
0.0889996
0.0924411
0.119084
0.113547
0.11823
0.138026
0.144125
0.129356
0.129651
0.134478
0.135734
0.133056
0.135438
0.139688
0.145001
0.155395
0.157215
0.156649
0.153469
0.146906
0.120014
0.0911907
0.0647313
0.046285
0.0407725
0.0403281
0.0444521
0.0442529
0.0385968
0.0330972
0.0318265
0.0314784
0.0337932
0.0340117
0.034533
0.0346828
0.0348626
0.0383981
0.0557677
0.0677902
0.072143
0.0727873
0.0709145
0.073206
0.0817533
0.091751
0.0942126
0.0980766
0.0993902
0.0993193
0.100423
0.103422
0.110076
0.119379
0.142844
0.16578
0.177206
0.18302
0.000736283
0.000733152
0.000731837
0.000727155
0.000718377
0.000704887
0.000688141
0.00066856
0.000653724
0.00064229
0.000637937
0.000638555
0.000653788
0.000674167
0.000702005
0.000732582
0.000759147
0.000788307
0.000807716
0.000821558
0.000829713
0.000836227
0.000843483
0.000848074
0.000851113
0.000848274
0.00083333
0.000807807
0.000781179
0.000764272
0.000759345
0.000759205
0.000766842
0.000772172
0.000776216
0.000805908
0.000841963
0.000896068
0.000949818
0.000984998
0.001049
0.00110731
0.00119232
0.0012972
0.0013826
0.00147681
0.00161361
0.00169038
0.00173226
0.00182291
0.00196603
0.00213436
0.00257737
0.0034282
0.00395397
0.00422508
0.00424079
0.00418035
0.00392059
0.00342096
0.00302922
0.00276283
0.00263694
0.00263888
0.00268431
0.00279803
0.00294456
0.00321431
0.00340713
0.0036061
0.00399897
0.00481626
0.00634544
0.0102149
0.015317
0.0255634
0.0427408
0.0649809
0.100717
0.138799
0.171884
0.196088
0.199944
0.196217
0.184767
0.156626
0.138228
0.110472
0.0789569
0.0555797
0.0412184
0.0346297
0.0315547
0.0300851
0.0299962
0.0301656
0.0312314
0.034058
0.0349913
0.0358855
0.0362602
0.0360445
0.0347772
0.0334516
0.0323704
0.0293408
0.0272692
0.0262449
0.0255016
0.0237719
0.0220321
0.0209572
0.0190108
0.0171059
0.0168972
0.0181542
0.0204455
0.0204612
0.0204733
0.0233002
0.0373443
0.0525941
0.0859474
0.26455
0.361696
0.330482
0.218256
0.173462
0.167863
0.152025
0.114898
0.0942752
0.0821283
0.0787128
0.0888181
0.0945579
0.103161
0.108138
0.0932346
0.0836406
0.0797405
0.0888137
0.104164
0.105206
0.136857
0.142843
0.141037
0.143488
0.188765
0.158135
0.136624
0.137203
0.144347
0.140072
0.141023
0.149743
0.151002
0.158641
0.159539
0.157725
0.156391
0.147894
0.114895
0.0803614
0.0574277
0.0428983
0.0407842
0.0427339
0.0430726
0.0404318
0.0358059
0.033664
0.0327199
0.031975
0.0319769
0.0323379
0.0337344
0.0341525
0.0346087
0.0348811
0.043452
0.0575894
0.0664852
0.0684816
0.0737614
0.0910946
0.0960817
0.100277
0.107104
0.114147
0.116419
0.116781
0.114951
0.106015
0.102979
0.104702
0.114199
0.130265
0.141378
0.174141
0.000495621
0.000495618
0.000493992
0.000479274
0.000458862
0.00044668
0.000444014
0.000445693
0.000459888
0.000472513
0.000482074
0.000484886
0.000484538
0.000479818
0.0004774
0.000481697
0.000515363
0.000563909
0.000615217
0.00066174
0.000695203
0.000715737
0.000722334
0.000717699
0.000682533
0.000637977
0.000606034
0.0005881
0.000584292
0.000601134
0.000671946
0.000739809
0.000792445
0.000829886
0.000853095
0.000875173
0.000903479
0.000941876
0.000991946
0.00110408
0.00136174
0.00174427
0.00216682
0.00263101
0.00300063
0.00333641
0.00366456
0.00388532
0.00414094
0.0045494
0.00527221
0.00613808
0.00710554
0.00784695
0.00819306
0.00823491
0.00818784
0.008012
0.00774806
0.00703484
0.00616776
0.00561522
0.00504971
0.00463847
0.00453174
0.00453918
0.00463125
0.00488392
0.00531083
0.0062395
0.0081796
0.0117353
0.0176617
0.0302246
0.0449937
0.0775174
0.120562
0.187133
0.256922
0.308435
0.343245
0.34627
0.342112
0.330695
0.3027
0.266503
0.223187
0.176875
0.134349
0.0907186
0.0579231
0.0426524
0.0350756
0.0319003
0.0310485
0.0308847
0.0312764
0.0325039
0.032655
0.0325259
0.0323975
0.0321233
0.030305
0.0290266
0.0282173
0.0267019
0.0253082
0.0247276
0.02407
0.0222658
0.0206281
0.0199174
0.0198128
0.0198906
0.0203014
0.0232698
0.027263
0.0282535
0.0294184
0.0368759
0.0575974
0.0753419
0.120669
0.313102
0.385212
0.333333
0.214996
0.169291
0.165336
0.150417
0.122833
0.09845
0.088416
0.0791253
0.0825578
0.0900578
0.103096
0.116181
0.119213
0.116392
0.11423
0.118661
0.132169
0.121943
0.141082
0.151564
0.149231
0.144937
0.214534
0.178665
0.156284
0.141949
0.147654
0.146818
0.143861
0.153538
0.155249
0.163365
0.166442
0.165272
0.164183
0.139943
0.099982
0.0667575
0.0508708
0.0421043
0.042832
0.0425907
0.0420299
0.0391519
0.0384424
0.0394959
0.0395238
0.0381601
0.0375807
0.0370108
0.0405665
0.0414137
0.0389266
0.0373487
0.0412877
0.0525737
0.060649
0.070508
0.0812113
0.0965925
0.105273
0.11506
0.124773
0.135918
0.137573
0.137531
0.136171
0.122214
0.104211
0.0911021
0.0838941
0.0826701
0.0829783
0.0830024
0.00037575
0.000377109
0.00038324
0.000397051
0.000403506
0.000416319
0.000445336
0.000523033
0.000602223
0.000695908
0.000799415
0.000884882
0.000970879
0.00102496
0.00106466
0.00107358
0.00107459
0.00106968
0.00104481
0.00102981
0.000995279
0.000976234
0.000937576
0.000917632
0.00088397
0.000848348
0.00082462
0.000811255
0.000829262
0.00101788
0.001265
0.00158142
0.00188067
0.00209549
0.00238706
0.00266272
0.00290243
0.00328578
0.0037962
0.00425664
0.00489651
0.00577604
0.00682885
0.00799956
0.0093595
0.0106634
0.011972
0.0133732
0.0153269
0.0172451
0.019133
0.0207509
0.0210621
0.020933
0.0205358
0.0195633
0.0181619
0.0170147
0.0158078
0.0146037
0.0132479
0.0120509
0.0110761
0.00970037
0.00905932
0.00907521
0.0093408
0.0101927
0.0119773
0.0165843
0.0220894
0.0352363
0.0519624
0.0814269
0.128381
0.214189
0.323235
0.392377
0.424461
0.426768
0.421093
0.406628
0.393961
0.377383
0.360404
0.339397
0.29655
0.243765
0.196365
0.139802
0.0888942
0.0600155
0.0441235
0.0375898
0.0346976
0.0330758
0.0327787
0.0330154
0.0326075
0.0319011
0.0315715
0.0305575
0.0288522
0.0281831
0.0276741
0.0263809
0.0251145
0.024664
0.0238801
0.0217605
0.021478
0.0225043
0.0243323
0.0253636
0.0273889
0.0339708
0.0419488
0.0457869
0.0505581
0.0711922
0.0951097
0.110979
0.162791
0.35671
0.405076
0.335922
0.215851
0.167816
0.152571
0.140861
0.126008
0.109645
0.0981272
0.0850309
0.0806325
0.0817225
0.0882403
0.10164
0.119959
0.126651
0.130061
0.135731
0.151875
0.142202
0.151518
0.149467
0.163324
0.140441
0.236807
0.195028
0.204989
0.160957
0.156004
0.159509
0.154549
0.160678
0.163973
0.174157
0.173604
0.170548
0.155061
0.11433
0.0831979
0.0585319
0.0485495
0.0427192
0.042624
0.0417837
0.0421063
0.0450331
0.0475371
0.0485668
0.0496427
0.0466379
0.0453219
0.0451275
0.0524673
0.0609013
0.0570605
0.051119
0.0490636
0.0541194
0.0605404
0.0696021
0.0951606
0.113956
0.127251
0.129556
0.128964
0.130394
0.13024
0.125712
0.122368
0.1137
0.0960786
0.0835872
0.0768628
0.0766236
0.0798282
0.0805252
0.00280813
0.00297842
0.00312424
0.00328372
0.00338223
0.003632
0.0038479
0.00433956
0.00476624
0.00521222
0.00572042
0.00605531
0.00641706
0.00659157
0.00672459
0.00674127
0.00673423
0.00671036
0.00662722
0.00661047
0.00658142
0.00661333
0.00662351
0.00665418
0.00668283
0.0066943
0.00682553
0.00706921
0.0076691
0.00850442
0.00929672
0.0101519
0.0110827
0.0118582
0.012465
0.0136045
0.0143934
0.0155588
0.0171388
0.0187781
0.021158
0.0242198
0.0275622
0.0310538
0.0346836
0.0386052
0.0433159
0.0468502
0.0505916
0.0548103
0.0568192
0.0568994
0.0563446
0.0547557
0.0517674
0.047413
0.0423966
0.037998
0.0339217
0.0302946
0.0279081
0.0256576
0.0232038
0.0221046
0.022142
0.0227643
0.0244965
0.0288109
0.0349287
0.0489515
0.0638404
0.0952196
0.139473
0.224046
0.359483
0.440703
0.474797
0.474604
0.469651
0.451975
0.425343
0.403502
0.3851
0.377944
0.373214
0.36298
0.336963
0.298703
0.251123
0.196094
0.145113
0.099555
0.0677093
0.0517283
0.0441465
0.0401607
0.0381617
0.0367959
0.0355889
0.0349398
0.0347422
0.033718
0.0326001
0.0322002
0.0317803
0.0297324
0.0266318
0.0253033
0.0252334
0.025471
0.0265638
0.0312671
0.0336976
0.037309
0.0451914
0.0663199
0.0837453
0.0920246
0.101007
0.129028
0.148901
0.157239
0.2039
0.379802
0.411971
0.349612
0.236552
0.16854
0.147217
0.138208
0.12918
0.119967
0.106612
0.0959273
0.0891266
0.0865846
0.087379
0.0899243
0.098294
0.115517
0.123974
0.133873
0.148653
0.145219
0.180201
0.144039
0.174294
0.158078
0.270596
0.204541
0.307659
0.199466
0.191657
0.183112
0.170794
0.171955
0.181589
0.186541
0.18444
0.166407
0.138117
0.0998106
0.0794023
0.0582471
0.0517328
0.0482903
0.0456589
0.0475239
0.05047
0.0599881
0.0679268
0.0671365
0.0683499
0.063401
0.0558298
0.0552065
0.0615282
0.081197
0.0761143
0.0732183
0.0629873
0.0632139
0.0707905
0.0882589
0.115793
0.128263
0.129084
0.12035
0.10747
0.103539
0.102651
0.0998883
0.0991454
0.0979265
0.0893902
0.0824187
0.0802151
0.0861773
0.095987
0.0977787
0.0321947
0.0325053
0.0326058