/*--------------------------------*- C++ -*----------------------------------*\
| =========                 |                                                 |
| \\      /  F ield         | OpenFOAM: The Open Source CFD Toolbox           |
|  \\    /   O peration     | Version:  2.4.0                                 |
|   \\  /    A nd           | Web:      www.OpenFOAM.org                      |
|    \\/     M anipulation  |                                                 |
\*---------------------------------------------------------------------------*/
FoamFile
{
    version     2.0;
    format      ascii;
    class       volScalarField;
    location    "1.52";
    object      p;
}
// * * * * * * * * * * * * * * * * * * * * * * * * * * * * * * * * * * * * * //

dimensions      [0 2 -2 0 0 0 0];

internalField   nonuniform List<scalar> 
8800
(
84.2548
71.8599
64.4835
60.9708
59.0706
57.6628
56.4926
55.3966
54.3271
53.4073
52.4705
51.4888
50.5204
49.7331
48.8632
47.976
47.1683
46.5126
45.6526
44.7267
81.1339
71.5074
64.6525
61.0836
59.1303
57.6867
56.5017
55.3982
54.3237
53.4036
52.472
51.4853
50.5153
49.7313
48.8682
47.9696
47.1737
46.5025
45.655
44.7142
79.1596
71.5895
65.2565
61.462
59.2944
57.7651
56.5484
55.4317
54.3478
53.4206
52.486
51.4882
50.5137
49.7301
48.8753
47.9627
47.1895
46.5037
45.6929
44.762
77.622
71.6553
65.844
61.8875
59.4775
57.8528
56.6086
55.4865
54.4014
53.4571
52.5178
51.5006
50.5257
49.7302
48.887
47.9602
47.2283
46.5361
45.8301
44.8953
76.3728
71.6275
66.3244
62.29
59.6472
57.9224
56.6571
55.542
54.4704
53.5041
52.5599
51.5203
50.5459
49.7324
48.8916
47.9666
47.2741
46.6173
45.9886
44.9796
75.3838
71.5258
66.6999
62.6317
59.8006
57.9676
56.6839
55.5854
54.5375
53.5484
52.6053
51.5383
50.5676
49.7344
48.891
47.9764
47.3074
46.6659
46.1175
45.0985
74.6172
71.4074
66.9789
62.9107
59.9374
57.9996
56.6894
55.6186
54.5886
53.5872
52.6438
51.5542
50.5819
49.7373
48.8813
47.9895
47.3079
46.6633
46.2035
45.5744
74.0474
71.3183
67.1635
63.1277
60.055
58.029
56.6711
55.6492
54.6243
53.6242
52.6664
51.5712
50.5851
49.7448
48.8652
48.0029
47.2836
46.6129
45.9978
46.0717
73.6721
71.2563
67.2771
63.2769
60.148
58.0484
56.6492
55.6682
54.658
53.6519
52.6803
51.5787
50.6023
49.7484
48.8575
48.0061
47.2605
46.5896
46.0779
46.6103
73.488
71.2266
67.3332
63.3494
60.2028
58.0568
56.638
55.6722
54.678
53.6682
52.6838
51.5812
50.6124
49.7466
48.8522
48.0071
47.2649
46.5979
46.1574
46.8007
73.482
71.2337
67.3206
63.3465
60.2091
58.0569
56.6381
55.6617
54.6768
53.6812
52.6802
51.5843
50.6139
49.7452
48.847
48.0179
47.2719
46.6134
46.207
46.9517
73.6552
71.2748
67.2718
63.2678
60.1712
58.0479
56.6621
55.6403
54.6587
53.6782
52.6675
51.5912
50.6145
49.7421
48.8518
48.035
47.293
46.6286
46.243
47.0373
74.0129
71.3459
67.1644
63.1173
60.0888
58.0335
56.6811
55.6188
54.6227
53.6636
52.6463
51.5924
50.6137
49.7471
48.8656
48.0562
47.3152
46.653
46.2643
47.0349
74.571
71.434
66.989
62.9042
59.9621
58.0139
56.6915
55.5937
54.5811
53.632
52.6138
51.5867
50.6198
49.7487
48.8814
48.0809
47.3434
46.6895
46.2611
46.9465
75.3382
71.5325
66.7248
62.6289
59.8107
57.988
56.6873
55.5593
54.5344
53.5885
52.5755
51.5676
50.627
49.7515
48.8971
48.1054
47.381
46.7335
46.2786
46.7732
76.3324
71.6184
66.356
62.2913
59.6419
57.9486
56.669
55.5091
54.4829
53.5346
52.532
51.5428
50.6351
49.75
48.9084
48.1312
47.4269
46.7916
46.3233
46.5299
77.5886
71.6409
65.8737
61.8945
59.4599
57.8837
56.6308
55.4466
54.4264
53.4814
52.4908
51.5156
50.6368
49.7502
48.9211
48.15
47.4719
46.8436
46.3942
46.2687
79.1314
71.5776
65.2778
61.4748
59.2702
57.7976
56.5763
55.3872
54.3782
53.4398
52.4613
51.4993
50.6386
49.7519
48.9294
48.1631
47.5044
46.8832
46.4603
46.1296
81.1002
71.5019
64.6696
61.1011
59.1042
57.7185
56.5309
55.3555
54.3547
53.42
52.4509
51.4973
50.6412
49.756
48.9357
48.1729
47.5195
46.9061
46.4605
46.0618
84.2158
71.8572
64.4995
60.9859
59.0458
57.6945
56.5205
55.3566
54.3581
53.4204
52.4533
51.502
50.6437
49.7578
48.9393
48.1765
47.5226
46.912
46.4617
46.1794
45.0881
45.1665
45.1249
45.0168
44.8909
44.7507
44.6039
44.4799
44.3907
44.3481
44.345
44.3726
44.4216
44.4865
44.5712
44.6898
44.8623
45.1082
45.4287
45.853
46.388
47.0339
47.7704
48.5483
49.2966
50.0258
50.6167
50.9748
51.0235
50.6443
49.7244
48.1926
45.9952
43.1594
39.8127
36.1551
32.5263
29.2774
26.632
24.8928
24.1442
24.1755
24.9614
26.7195
29.266
32.1933
35.5748
39.7714
44.5881
49.1328
52.766
55.6287
57.7756
58.8501
58.8365
58.0248
56.3049
53.6761
50.1751
46.16
41.7121
36.706
31.7914
27.1981
22.882
19.5355
16.8925
14.8985
13.9735
13.9995
14.8341
16.7202
19.0883
22.108
26.2553
30.1182
34.3512
39.2898
43.4639
48.0068
52.571
56.7243
61.1146
65.4394
70.0409
74.3952
78.6935
82.8328
86.1544
88.4489
88.9575
87.6806
84.2695
78.3814
70.3845
61.2652
52.6683
45.3102
38.585
33.015
28.5604
25.2336
22.9214
21.72
22.2803
23.8771
25.34
27.6818
31.4834
35.4448
39.2037
43.4958
47.6904
51.0367
53.9422
56.5446
58.5729
60.0413
61.1288
61.6883
61.6901
61.4035
61.3456
61.4885
60.9369
59.2685
56.5492
52.9752
48.3856
41.9927
34.1527
26.1735
18.2676
11.0225
5.25679
0.529366
-2.53445
-2.49583
-0.18079
2.74591
5.67297
9.37384
14.0835
19.5108
25.3579
31.1094
36.0928
39.9482
42.7954
44.5203
45.4521
45.9246
46.3703
46.7575
47.1681
47.7657
48.6803
49.8633
51.1498
52.7956
54.3427
56.1957
58.2303
60.1552
62.2214
64.1201
65.8933
67.2536
68.6167
69.9502
71.0731
72.0684
72.8066
73.3673
73.7683
74.0989
74.3694
74.3726
74.2339
74.2464
73.7485
73.3259
72.9345
72.1608
71.4259
70.5731
69.4741
68.5085
67.4392
66.4274
65.3706
63.8809
61.6475
58.1608
53.6796
49.041
45.5365
41.6596
39.3239
30.8813
44.7417
44.8393
44.9369
44.9554
44.8854
44.7696
44.6252
44.4974
44.4021
44.3538
44.3502
44.3838
44.4383
44.5105
44.6155
44.7466
44.9268
45.1952
45.5384
45.9828
46.5312
47.1817
47.8977
48.6609
49.3905
50.0613
50.6216
50.9384
50.9248
50.5034
49.5228
47.9619
45.7858
43.0324
39.869
36.4099
33.0578
30.0938
27.5974
25.9688
25.2384
25.2396
25.9455
27.5686
29.9523
32.6948
35.9613
40.0152
44.5434
48.6709
51.8751
54.2808
56.1174
57.1925
57.3768
56.7949
55.1411
52.763
49.642
46.0954
42.241
37.8212
33.5494
29.5846
25.7197
22.8313
20.6621
18.6989
17.8597
17.8093
18.5036
20.1946
22.2012
24.6692
28.2128
31.7251
35.3905
39.8879
43.7763
47.7312
51.9266
55.881
60.0102
64.0498
68.4125
72.5432
76.5668
80.3447
83.1771
85.4561
85.9551
84.8834
81.9998
76.8565
70.1683
62.2811
54.5426
47.7668
41.7275
36.4886
32.2194
29.3385
27.3149
25.8389
26.256
27.9921
29.524
31.5138
35.0236
38.8326
42.2431
45.8836
49.5119
52.5113
55.1321
57.4989
59.3761
60.7885
61.8211
62.3342
62.3776
62.3161
62.7417
63.3435
62.9153
61.0476
57.9484
53.8283
48.5333
41.2217
32.5253
24.1618
16.4672
9.10898
2.88392
-1.91344
-5.11227
-5.53449
-3.57964
-1.02492
1.79513
5.47322
10.2797
16.0642
22.4308
28.6057
34.4039
39.2409
42.7775
45.0819
46.6956
47.6414
48.1044
48.6708
49.1287
49.7363
50.6164
51.6421
52.9975
54.3338
55.9897
57.5593
59.5638
61.4432
63.3262
65.2444
66.7679
67.9716
69.0511
70.3637
71.2404
72.2234
72.7778
73.244
73.5627
73.836
74.1114
74.3263
74.2325
74.0553
73.5836
73.1198
72.4671
71.8927
71.0004
70.0751
69.2451
68.2291
67.178
66.2968
65.1034
63.3937
61.383
57.9643
54.3046
49.0597
44.8904
39.9184
34.5202
27.1463
44.8027
44.8318
44.8647
44.9256
44.9351
44.8541
44.6877
44.5224
44.4022
44.3512
44.3556
44.4152
44.4931
44.5814
44.7136
44.857
45.0553
45.3298
45.6784
46.1165
46.6414
47.2669
47.9224
48.6309
49.3058
49.8889
50.3648
50.5994
50.4859
49.9774
48.9926
47.4334
45.3486
42.7783
39.8485
36.6681
33.6008
30.9362
28.6999
27.2145
26.5487
26.5724
27.3046
28.821
31.0745
33.7505
36.8681
40.4929
44.3259
47.7374
50.4444
52.6971
54.5219
55.4696
55.521
54.9171
53.6139
51.6541
49.0283
45.9943
42.7526
38.8923
35.0579
31.7069
28.3783
25.7771
23.9242
22.4047
21.5934
21.4447
22.0047
23.4797
25.1935
27.2311
30.1818
33.3874
36.547
40.2734
43.9791
47.5367
51.2341
54.959
58.6035
62.2886
66.3647
70.0319
73.7036
77.1722
79.6908
81.7727
82.1986
81.3729
79.1779
74.8106
69.3795
63.0024
56.2563
50.0979
44.9628
40.2781
36.115
33.5369
31.9921
30.5996
30.6547
32.3786
34.1249
35.8658
38.8312
42.2833
45.3215
48.316
51.4348
54.1892
56.5157
58.5382
60.2679
61.6345
62.5979
63.173
63.4092
63.6168
64.2252
64.9764
64.6649
62.6575
59.3099
54.861
49.1046
41.1567
31.8293
23.0496
15.4298
8.33512
1.89207
-3.23047
-6.4033
-7.19885
-5.99483
-3.79787
-1.20376
2.25885
7.34452
13.4608
20.1723
27.1772
33.5765
39.2193
43.6798
46.3793
48.3621
49.8083
50.2784
51.1637
51.7908
52.3068
53.2418
53.8855
55.2203
56.3847
57.9528
59.3366
61.1834
62.9379
64.574
66.1759
67.533
68.7037
69.7115
70.5518
71.2587
71.9022
72.5397
72.9837
73.3144
73.4736
73.5165
73.6396
73.494
73.492
73.3209
72.9631
72.3073
71.5079
70.4897
69.706
69.0008
67.8416
66.8485
65.9836
64.8174
62.9634
61.3444
57.9983
54.6483
49.6434
44.389
38.7758
32.695
27.2769
44.1231
44.2166
44.8053
45.2056
45.2722
45.0954
44.8068
44.5556
44.397
44.3412
44.3662
44.4648
44.5814
44.6942
44.859
45.0106
45.2173
45.4883
45.814
46.2196
46.6948
47.2637
47.8239
48.4458
49.0329
49.5039
49.861
49.9975
49.8099
49.2407
48.2841
46.8039
44.8573
42.5452
39.8975
37.076
34.3633
32.0088
30.0902
28.7822
28.2511
28.3596
29.0835
30.5244
32.6052
35.0871
37.8036
40.8017
43.9728
46.9849
49.5173
51.3808
52.679
53.4138
53.5036
52.9782
52.0584
50.5348
48.395
45.8452
43.1295
39.9798
36.8461
33.997
31.0629
28.6801
27.3144
26.1248
25.4222
25.2843
25.6453
26.7738
28.3055
30.045
32.357
35.0054
37.6881
40.6986
43.8527
46.854
50.0069
53.5842
57.0326
60.4387
64.2547
67.585
70.9592
74.0148
76.0907
77.8932
78.2935
77.7011
76.2263
72.7618
68.4224
63.5915
57.945
52.4884
48.2737
44.306
40.4194
38.0976
36.9938
35.7641
35.6111
37.074
38.8248
40.4271
42.7206
45.5919
48.3106
50.7863
53.3735
55.8728
57.9796
59.7472
61.2954
62.5246
63.3959
64.1107
64.6527
65.1349
65.8394
66.5512
66.2337
64.2065
60.742
55.9906
49.9052
41.7605
31.9571
22.7337
15.0282
7.92171
1.42556
-3.88578
-7.25329
-8.2112
-7.46909
-5.84384
-3.54165
0.0759823
5.15591
11.6282
18.8952
26.3586
33.8498
39.9009
44.6709
48.3323
50.518
52.4373
53.5019
54.2617
55.0901
55.2858
56.2362
56.8022
57.8454
59.0193
60.3118
61.6615
63.1711
64.6995
66.0885
67.1028
68.2303
69.2088
70.1842
70.6669
71.0007
71.2645
71.6524
72.2093
72.6027
73.1751
73.8757
73.6639
73.1395
73.0372
72.8262
72.304
71.7072
70.824
70.175
69.2591
68.472
67.4614
66.6312
65.6492
64.4469
62.6606
61.1858
57.9374
54.4554
50.0435
44.109
39.1068
33.8808
28.7439
43.8877
44.1543
45.1045
45.6486
45.6729
45.3459
44.9201
44.5782
44.3853
44.334
44.3851
44.5292
44.6915
44.8288
45.017
45.1781
45.3712
45.6392
45.9194
46.2733
46.6837
47.1496
47.6153
48.1136
48.5836
48.9157
49.2125
49.2606
48.9983
48.4374
47.5042
46.1727
44.4322
42.4209
40.1339
37.7238
35.4807
33.3781
31.8386
30.7322
30.2931
30.4822
31.1287
32.4269
34.2571
36.3732
38.6506
41.2024
44.0129
46.4996
48.3621
49.7853
50.9134
51.6568
51.8687
51.583
50.8124
49.5034
47.7339
45.7253
43.5709
41.1069
38.5729
36.2781
33.9813
32.0972
30.8538
29.7838
29.2117
29.1132
29.2447
30.1409
31.444
32.6583
34.3599
36.4847
38.4486
40.6391
43.2372
45.8432
48.4731
51.66
54.9658
58.1838
61.7987
64.9851
68.1008
71.0311
72.8637
74.3495
74.8031
74.3835
73.4829
70.956
67.6496
64.2013
59.7369
55.2372
51.844
48.623
45.2914
43.1777
42.2214
41.3793
40.9061
41.8336
43.3688
44.7731
46.3722
48.5967
50.9932
53.1115
55.1959
57.3294
59.2116
60.9148
62.4095
63.5308
64.3626
65.1824
66.0278
66.7518
67.5499
68.2114
67.7762
65.757
62.223
57.2895
51.0531
42.6997
32.8363
23.5481
15.6025
8.17336
1.31262
-4.28172
-7.79257
-9.04352
-8.69616
-7.30145
-5.00361
-1.44576
3.98376
10.8482
18.6195
26.6243
34.6441
41.3781
46.5113
51.0991
53.8067
55.4486
56.992
57.6047
58.5311
58.7667
59.5331
60.2089
60.9585
62.0093
63.0275
64.1784
65.3079
66.6479
67.6104
68.4068
69.1567
69.6481
70.2914
70.9339
70.8414
70.9901
70.9051
71.4869
71.8589
72.3507
72.5784
72.2555
72.3476
72.8653
72.777
72.0425
71.3756
70.4727
69.7722
68.5947
68.0348
67.11
66.1847
65.2075
64.1755
62.4565
60.6142
57.7717
54.0964
50.4405
45.0469
40.3131
35.6146
30.7457
44.0127
44.3595
45.3456
45.85
45.8077
45.4035
44.9394
44.5897
44.408
44.389
44.4745
44.6416
44.8211
44.9859
45.1691
45.336
45.5162
45.7457
45.992
46.2849
46.6234
46.9902
47.3721
47.7471
48.1072
48.3601
48.545
48.5323
48.2222
47.681
46.802
45.6349
44.1545
42.4599
40.5746
38.5856
36.7921
35.1469
33.6652
32.7765
32.4256
32.5766
33.1419
34.2489
35.7244
37.447
39.4732
41.6504
43.7922
45.6328
47.2361
48.6841
49.7247
50.3516
50.5716
50.2835
49.6749
48.7083
47.3456
45.7546
44.0914
42.2009
40.2171
38.5215
36.759
35.1109
34.003
33.0946
32.6726
32.6563
32.6844
33.1879
34.0804
35.0194
36.0636
37.4391
38.9478
40.569
42.6008
44.6965
46.7681
49.4588
52.3927
55.2846
58.7348
61.8398
64.6539
67.6545
69.6706
71.2134
71.9379
71.6842
71.1272
69.4885
67.2384
64.8299
61.5776
58.1819
55.3973
52.7582
50.0968
48.2106
47.1511
46.4998
45.9574
46.303
47.2739
48.4537
49.7078
51.3589
53.2564
55.1328
57.0294
58.7978
60.3584
61.9539
63.4209
64.5237
65.4637
66.5072
67.5638
68.4236
69.2655
69.9145
69.4278
67.3674
63.8166
58.9439
52.6497
44.1493
34.3669
25.158
17.2011
9.67375
2.24831
-3.8648
-7.78168
-9.42306
-9.24912
-8.1474
-6.03056
-2.00357
3.66857
10.9169
19.3806
28.031
36.111
43.839
49.4144
53.9146
57.3039
58.7822
60.4997
61.2699
62.2333
62.6792
63.2342
63.9063
64.4375
65.2318
65.7359
66.4449
67.113
68.307
69.0674
69.7848
70.0567
70.1537
70.4366
71.4503
71.4743
71.7619
71.3515
71.5076
71.5948
71.7601
71.5861
71.4548
71.5214
71.4644
71.6253
71.4022
70.946
70.2099
69.2937
68.1446
67.6118
66.5889
65.8193
64.9719
63.816
62.4338
60.2234
57.6112
53.9957
50.9185
46.3488
41.7042
37.3993
33.0235
44.8085
44.938
45.3755
45.4991
45.3118
44.9797
44.6772
44.4897
44.4328
44.5024
44.6242
44.8003
44.9804
45.1375
45.3113
45.4569
45.6123
45.8052
46.0118
46.246
46.5284
46.8142
47.1094
47.4096
47.6636
47.85
47.9505
47.8785
47.5707
47.0521
46.265
45.2803
44.0548
42.6174
41.095
39.4682
37.9418
36.5287
35.3396
34.6476
34.3181
34.4377
34.9075
35.6884
36.8702
38.3516
40.0243
41.6403
43.3176
45.0933
46.6217
47.8293
48.6716
49.1754
49.3945
49.2647
48.8435
48.1337
47.1468
45.9766
44.6643
43.2365
41.8291
40.4337
39.0135
37.7855
36.8256
36.0911
35.7615
35.6931
35.6337
35.9086
36.3876
36.7881
37.3824
38.312
39.3196
40.3148
41.7688
43.3596
44.9064
47.0632
49.4535
51.9604
55.0527
57.7624
60.6029
63.6767
65.9282
67.949
69.2764
69.4245
69.2849
68.4812
67.0768
65.4494
63.2956
60.8616
58.5551
56.3557
54.3099
52.5834
51.4051
50.6747
50.2443
50.1737
50.7179
51.6592
52.6883
53.9869
55.4551
56.9355
58.6347
60.2771
61.6973
63.13
64.4037
65.431
66.566
67.9473
69.1251
70.051
71.0338
71.6864
71.1345
69.052
65.576
60.8257
54.406
46.0495
36.5942
27.3192
19.4393
12.1604
4.54943
-2.04635
-6.62419
-8.72224
-9.08999
-8.18824
-5.76135
-1.722
4.2775
12.2532
20.7343
30.3264
38.5147
46.3084
52.9087
57.125
60.5881
62.581
64.4317
65.3666
66.1377
66.8015
67.2576
67.7158
67.9528
68.3055
68.4506
69.0024
69.2437
70.034
70.464
70.7462
71.1357
71.3158
71.167
71.5643
71.7982
72.1418
72.2043
72.0706
71.8661
71.722
71.5381
71.2855
70.7409
70.3489
70.4703
70.4894
70.22
69.668
68.7893
67.7249
67.22
66.4504
65.566
64.6179
63.3222
62.328
59.6813
57.331
54.4629
51.2074
47.105
42.8417
38.7769
34.8994
47.1821
46.7772
45.6041
44.7675
44.2749
44.0982
44.1294
44.2729
44.4522
44.6457
44.8237
44.9919
45.1569
45.2875
45.4239
45.5355
45.6589
45.8085
45.9814
46.1776
46.4032
46.6442
46.8699
47.1121
47.3068
47.4302
47.4648
47.3589
47.0627
46.5941
45.9325
45.0709
44.0374
42.8607
41.591
40.2266
38.9167
37.7989
36.8416
36.2234
35.9167
35.9281
36.2072
36.8178
37.8142
38.9467
40.1981
41.6219
43.2237
44.7685
45.9189
46.8639
47.6687
48.186
48.479
48.4785
48.2094
47.761
47.0501
46.1814
45.2735
44.2495
43.1697
42.1056
41.0626
40.1764
39.4453
38.8746
38.5202
38.3474
38.2958
38.2996
38.3491
38.4672
38.664
38.9645
39.3995
39.8792
40.6454
41.6129
42.5496
44.1133
45.9948
48.0229
50.7475
53.5246
56.5276
59.6571
62.1974
64.6708
66.5034
67.2634
67.759
67.6908
66.9949
66.0056
64.6365
63.0017
61.1988
59.4054
57.7737
56.1668
54.9525
54.2866
53.8738
53.6439
53.9814
54.6097
55.2593
56.3264
57.6459
58.8911
60.2563
61.5968
62.9139
64.2746
65.3148
66.2227
67.5771
69.202
70.5303
71.6236
72.7528
73.4431
72.8383
70.7562
67.3896
62.6241
56.2578
48.1793
39.0064
30.1464
22.4967
15.2886
7.91953
1.21134
-4.01414
-6.66531
-7.41491
-6.71614
-4.35858
-0.046815
6.38724
14.4299
23.3042
33.0761
41.8009
49.5914
56.4905
60.5725
63.9467
66.2103
68.4351
69.4292
70.1409
71.0188
71.348
71.3802
71.473
71.384
71.4319
71.6849
71.4801
71.8935
72.0549
72.0673
72.382
72.6108
72.2667
72.1262
72.2255
72.2116
72.1948
71.9183
71.896
71.6745
71.4736
71.106
70.5568
69.7647
69.7759
69.8686
69.5856
69.1816
68.429
67.5411
67.1435
66.3422
65.1434
64.1967
62.8383
61.7299
59.0686
56.9868
54.603
50.947
47.3681
44.2114
40.547
36.6748
48.1
47.5386
45.7506
44.4143
43.6968
43.558
43.7784
44.1333
44.4897
44.7879
45.021
45.1941
45.3379
45.4328
45.5194
45.5973
45.6795
45.7989
45.936
46.0964
46.2852
46.4784
46.6615
46.8562
47.0093
47.091
47.0968
46.9567
46.6808
46.2821
45.686
44.948
44.0928
43.0745
42.0086
40.8555
39.8108
38.9149
38.0781
37.5194
37.2149
37.0991
37.313
37.8057
38.502
39.3754
40.4733
41.8098
43.044
44.0887
45.1014
46.0586
46.8657
47.3703
47.6638
47.8132
47.6761
47.3938
47.043
46.5152
45.8532
45.1594
44.3754
43.6924
43.0482
42.406
41.9365
41.4591
41.1014
40.8804
40.6726
40.5378
40.3564
40.1452
39.9174
39.6547
39.4048
39.2436
39.2353
39.393
39.6302
40.3981
41.8353
43.5738
45.9015
48.7667
52.1716
55.5586
58.5384
61.4842
63.8461
65.3408
66.4714
67.0772
67.0242
66.5312
65.8142
64.7636
63.3143
61.9691
60.679
59.2886
58.1619
57.5422
57.0955
56.7303
56.9334
57.4039
57.7737
58.5306
59.628
60.8188
61.95
62.8048
63.8161
65.132
66.1145
66.9877
68.4403
70.1849
71.7197
73.0647
74.3444
75.084
74.4837
72.3938
69.0627
64.4832
58.4313
50.5724
41.3786
32.7276
25.601
18.849
12.1391
5.52699
0.0602242
-3.06418
-4.45991
-3.72651
-1.21147
3.06402
9.50882
17.7603
27.0134
35.7858
45.8343
53.3602
60.1002
64.1627
67.0337
69.8528
72.1622
73.5806
74.4074
75.3145
75.372
75.0995
75.2025
74.6183
74.3891
74.1937
73.6264
73.6836
73.6075
73.4221
73.4389
73.4442
73.2667
72.9596
72.8594
72.6507
72.4703
72.232
72.1112
71.6696
71.4263
70.7561
69.6524
69.3302
69.4747
69.5939
69.325
68.8971
68.2662
67.6083
67.1521
66.3063
64.9266
63.9799
62.5884
61.1447
58.8694
56.6259
54.1745
50.8634
47.8477
45.2888
41.9299
38.2036
48.5129
48.0197
46.0494
44.4748
43.584
43.3515
43.6092
44.0563
44.5177
44.8914
45.1637
45.3459
45.4744
45.5459
45.5875
45.6411
45.6805
45.7702
45.8776
46.0067
46.1629
46.3204
46.4774
46.6176
46.751
46.8026
46.7838
46.6581
46.3956
46.047
45.5327
44.9028
44.1533
43.2951
42.4096
41.4828
40.6088
39.798
39.103
38.5941
38.2549
38.1548
38.3172
38.607
39.084
39.8486
40.767
41.6941
42.5246
43.4754
44.4893
45.3248
46.0326
46.5658
46.9568
47.185
47.2975
47.2396
47.0597
46.8158
46.4393
46.0373
45.6119
45.1878
44.8447
44.5007
44.1783
43.8406
43.5742
43.3082
43.0158
42.8048
42.3271
41.7715
41.2456
40.4263
39.4461
38.5083
37.6473
36.9049
36.412
36.443
37.2294
38.4739
40.3657
43.2954
47.1086
51.166
54.9659
58.47
61.4315
63.763
65.5836
66.731
67.1543
67.2041
67.0274
66.3237
65.2793
64.2836
63.1993
62.0951
61.1755
60.5063
59.9184
59.43
59.5277
59.8787
60.1394
60.6081
61.2849
62.2467
63.279
64.0081
64.8678
65.9083
66.6503
67.5022
69.094
71.0082
72.7125
74.2798
75.7582
76.5815
75.9937
73.9091
70.664
66.3336
60.7111
53.3198
44.1816
35.369
28.1713
21.8803
16.0924
10.2764
5.17082
1.6972
0.151948
0.776135
3.00291
7.37953
13.7624
21.6825
31.1556
38.6919
49.3999
57.058
64.1443
66.586
69.9847
73.2234
75.3231
77.2528
78.5163
79.4899
79.2985
78.7287
78.5769
77.5496
76.9794
76.5782
75.64
75.25
74.98
74.5236
74.3066
74.2958
74.1086
73.5475
73.3053
72.9951
72.9289
72.49
72.1836
71.5928
71.3859
70.8911
69.7419
69.5888
69.5329
69.5179
69.2829
68.4984
68.0668
67.5829
67.0399
66.1591
64.5426
63.8625
62.4735
60.5967
58.7953
56.4749
53.8658
50.8766
48.0272
45.7153
42.4474
38.8001
48.7552
48.3057
46.3108
44.6164
43.6088
43.2821
43.522
44.0047
44.5218
44.9412
45.2436
45.4414
45.5583
45.6223
45.634
45.6594
45.6774
45.7378
45.8185
45.9232
46.0555
46.1786
46.3163
46.415
46.5137
46.5606
46.5348
46.4294
46.1786
45.8989
45.4588
44.9007
44.2714
43.5644
42.8198
42.0466
41.2865
40.5744
39.9909
39.5038
39.2105
39.0836
39.0926
39.2652
39.6225
40.1769
40.7573
41.3876
42.1582
43.0498
43.8207
44.5153
45.227
45.7835
46.2948
46.7018
46.9125
47.0766
47.1547
47.1431
47.0803
46.8948
46.749
46.717
46.4931
46.2773
46.26
46.0373
45.7657
45.5962
45.3367
45.0374
44.3483
43.4323
42.6016
41.3381
39.5938
37.8169
36.1582
34.5606
33.2649
32.4761
32.4382
33.2352
34.8809
37.7364
41.764
46.4252
51.2982
55.8334
59.559
62.5873
65.0152
66.705
67.703
68.2217
68.2833
67.889
67.2432
66.4385
65.4912
64.529
63.6598
63.0541
62.4801
61.8931
61.7319
61.7905
62.0298
62.4616
62.8588
63.5475
64.3523
64.8746
65.7074
66.6664
67.0803
67.7674
69.487
71.511
73.2987
75.1072
76.8158
77.7395
77.1844
75.1303
72.0063
67.9792
62.7701
56.0565
47.7281
39.1232
31.3508
24.8224
19.4431
14.4262
10.1052
6.96128
5.42218
5.89401
8.17027
12.4619
18.2102
25.8749
35.3966
41.6463
52.7688
60.8243
67.4793
66.791
73.0212
75.8004
77.8482
80.2927
82.199
83.2141
82.7071
81.9476
81.3772
80.0572
79.579
78.6691
77.356
76.6363
76.0775
75.4784
75.103
74.8872
74.5244
73.8058
73.6349
73.2009
73.2388
72.7392
72.2991
71.6419
71.2635
71.2966
70.2159
70.1404
69.6189
69.4053
69.33
68.195
67.9668
67.5043
66.6483
65.6013
64.0144
63.4566
62.0785
60.0929
58.701
56.2412
53.37
50.7824
48.2252
45.744
42.3365
38.9554
48.8408
48.3927
46.4215
44.7062
43.6656
43.3035
43.5245
44.0216
44.5599
45.0034
45.3099
45.5127
45.6184
45.6677
45.6614
45.6632
45.6637
45.6971
45.7677
45.8504
45.9605
46.0665
46.1872
46.2644
46.3749
46.3922
46.3412
46.2681
46.0459
45.7924
45.4401
44.9746
44.4416
43.8581
43.2385
42.5771
41.9243
41.3248
40.8059
40.3542
40.0481
39.8274
39.7138
39.7773
39.9677
40.2521
40.6474
41.2534
41.8726
42.4287
43.0989
43.817
44.432
45.0713
45.6205
46.1551
46.6139
46.9625
47.288
47.5164
47.7076
47.8655
47.8536
47.9928
48.1098
47.9808
48.0347
48.0766
47.8885
47.7941
47.6747
47.2351
46.4536
45.3501
43.9113
42.2225
40.114
37.5284
35.0535
32.7194
30.5755
29.1979
28.5139
28.6153
29.9737
32.7446
36.6661
41.8457
47.7663
53.3124
58.0668
62.0002
64.9654
67.119
68.6291
69.4421
69.6555
69.4451
68.9763
68.3109
67.5114
66.6465
65.7777
65.1406
64.5697
64.1235
63.858
63.5999
63.6587
63.9482
64.2792
64.8863
65.3166
65.5115
66.2161
67.0724
67.3321
67.8805
69.5114
71.5367
73.481
75.4909
77.3255
78.3043
77.7687
75.8102
72.8382
69.1517
64.486
58.6318
51.2543
43.2829
35.4062
28.6844
23.0442
18.316
14.6234
11.7734
10.4464
11.1101
13.3929
17.2529
22.6564
30.4116
38.8159
44.7383
55.3884
63.2686
69.7588
65.7769
76.089
76.4374
80.5257
83.7917
85.3934
86.5442
85.9457
84.9584
83.8087
82.0197
81.0533
80.0257
78.5717
77.9219
77.0253
76.2293
75.5904
75.1816
74.7905
74.0019
73.9213
73.3827
73.436
73.0343
72.371
71.7829
71.0934
71.7488
70.9982
70.9254
70.173
69.6133
69.7736
68.3809
68.169
67.5809
66.2116
64.9619
63.7425
62.8048
61.2961
59.5595
58.1341
55.5094
52.9962
50.8825
48.398
45.7587
42.2755
39.0491
48.8398
48.3827
46.4424
44.7794
43.776
43.445
43.6662
44.152
44.6677
45.0936
45.3822
45.5643
45.6443
45.6757
45.6632
45.6427
45.6422
45.6629
45.7205
45.7947
45.8917
45.9812
46.0812
46.158
46.2266
46.2626
46.2271
46.1552
45.9966
45.7704
45.4781
45.0821
44.6584
44.1827
43.6501
43.1125
42.5724
42.025
41.5479
41.1299
40.7411
40.4497
40.29
40.1995
40.193
40.3671
40.6594
40.9584
41.3064
41.7846
42.3845
43.0582
43.6853
44.3642
45.1249
45.7256
46.3402
46.9172
47.4446
47.9919
48.3841
48.6627
49.0114
49.2654
49.441
49.6457
49.8712
49.9986
49.9798
49.9401
49.898
49.5157
48.4964
47.1387
45.497
43.3115
40.6947
37.7201
34.5513
31.6118
29.0521
27.0723
25.9177
25.7171
26.6786
29.0228
32.8461
38.3075
44.807
51.294
57.0618
61.67
65.1891
67.9092
69.7422
70.6922
71.0651
71.0367
70.706
70.0762
69.3177
68.4995
67.7705
67.1586
66.4065
65.8738
65.5882
65.4276
65.425
65.1925
65.3928
66.1172
66.1485
66.0715
66.7419
67.2134
67.1258
67.6627
69.2107
71.0776
73.0309
75.2155
77.2317
78.2425
77.7076
75.9386
73.255
69.923
65.875
60.8555
54.54
47.2921
40.0227
33.32
27.2851
22.586
18.8954
15.8943
14.8878
15.8621
17.9027
21.4493
26.9207
34.4016
40.9539
47.9427
56.2438
65.0227
70.2095
62.4548
79.7597
73.2236
83.3977
86.7509
88.2841
89.2518
88.3218
87.2936
85.4948
83.5541
82.545
81.2139
79.5924
78.9834
77.8625
76.7139
76.0195
75.4061
74.9581
74.2183
74.0998
73.5517
73.5234
73.2458
72.3722
71.9723
71.163
72.1245
71.8041
71.5875
70.9425
70.1768
70.3256
69.018
68.4438
67.7387
66.0688
64.4162
63.0961
61.9913
60.2108
58.7506
57.0951
54.5978
52.936
51.0792
48.5151
45.9204
42.3551
39.0821
48.6803
48.2197
46.3731
44.8419
43.9541
43.708
43.9396
44.3791
44.8335
45.2036
45.4417
45.5843
45.6333
45.6474
45.6326
45.6089
45.612
45.6234
45.6782
45.7436
45.8218
45.9037
45.9866
46.0476
46.1037
46.146
46.1103
46.0622
45.9434
45.7574
45.5346
45.2289
44.8791
44.4909
44.081
43.6288
43.1459
42.6906
42.2498
41.7966
41.4112
41.0902
40.7879
40.5665
40.4652
40.4454
40.4385
40.5446
40.8153
41.1721
41.6716
42.2476
42.8969
43.6514
44.4785
45.3078
46.1133
46.9191
47.7008
48.37
49.0101
49.5303
49.9804
50.5333
50.8741
51.1669
51.6536
51.9094
51.8763
51.9168
51.9022
51.4686
50.464
48.9004
46.9227
44.5039
41.4244
38.0365
34.6107
31.2173
28.2877
26.1206
24.7057
24.1684
24.7947
26.8189
30.5384
36.1491
43.0418
50.1723
56.6367
61.8583
65.8606
68.9402
71.0758
72.253
72.6748
72.6662
72.3847
71.7903
71.0307
70.1894
69.4867
68.8533
68.1792
67.5913
66.893
66.6801
66.9204
66.6383
66.527
66.9344
66.8544
66.7553
67.2965
67.4093
66.7272
66.8356
68.3492
70.2146
72.1859
74.3726
76.4093
77.5599
76.9746
75.5481
73.3626
70.5836
67.1804
62.8152
57.4703
51.2476
44.7635
38.1558
32.0668
27.419
23.3144
19.8915
19.0512
20.0116
21.8802
25.2611
30.5796
37.7398
43.102
50.2816
57.4341
65.2196
68.3397
59.8394
82.1019
70.9639
87.1538
89.3291
90.1674
91.5109
90.3002
89.3351
86.939
85.1472
84.1159
82.2109
80.4435
79.2654
78.5283
77.1339
76.3838
75.8522
75.0155
74.5057
74.2932
73.8257
73.6509
73.2682
72.4888
72.1162
71.4953
72.2058
72.393
71.236
71.056
70.962
70.6406
69.6009
68.564
67.7823
66.2117
64.1803
62.9597
61.2511
58.957
57.8234
56.106
53.9273
53.1697
51.2504
48.8587
46.4075
42.3921
39.0591
48.232
47.8089
46.2164
44.9453
44.2531
44.1123
44.3374
44.6963
45.0435
45.3222
45.4856
45.5756
45.6008
45.595
45.5866
45.5679
45.5725
45.5917
45.64
45.6965
45.762
45.8348
45.8992
45.956
46.0076
46.0428
46.0308
46.0013
45.9207
45.7826
45.6152
45.3905
45.1101
44.8163
44.4814
44.0866
43.7032
43.2961
42.8553
42.4458
42.0452
41.6136
41.2302
40.9307
40.6478
40.3854
40.2529
40.2826
40.3679
40.5738
40.9886
41.5504
42.2174
43.0434
44.0056
44.9516
45.9385
46.9179
47.8544
48.8136
49.615
50.3173
50.9972
51.594
52.0751
52.5136
53.0931
53.4982
53.5224
53.488
53.4981
53.0905
51.9573
50.3274
48.2249
45.5529
42.2972
38.6438
34.8985
31.2924
28.1179
25.6509
24.0443
23.404
23.9017
25.8777
29.6985
35.4491
42.5787
50.0871
56.9876
62.6159
67.007
70.3797
72.6314
73.8199
74.2492
74.2523
73.8788
73.2499
72.5063
71.6764
70.9134
70.1852
69.6026
69.1148
68.3207
67.8742
67.7473
67.5772
67.8308
67.7989
67.3192
67.4567
67.8011
67.5076
66.6379
66.1763
67.0555
68.7364
70.6981
73.0777
75.0478
75.648
75.688
74.8127
73.2949
71.1366
68.3785
64.4675
59.9308
54.6162
48.9322
42.7854
37.024
32.417
27.9548
24.3528
23.5706
24.2836
25.7665
28.8007
33.756
41.3845
45.082
51.4553
58.1779
61.3348
64.4521
60.8005
78.7488
73.9581
91.6384
91.4783
92.1962
93.4646
92.0257
91.0101
88.33
86.402
84.9579
82.8811
81.2425
79.7127
79.2392
77.6999
76.7049
76.3783
75.1734
74.8806
74.4928
73.9416
73.7109
73.2322
72.6799
72.2866
72.0457
72.0207
72.5806
71.6268
71.1691
71.3564
70.6036
70.0928
68.5527
67.6091
66.2803
64.3623
62.9045
60.4679
58.0132
56.6464
54.9993
53.5494
53.5615
51.6764
49.4712
46.8485
42.4674
39.1187
47.4983
47.1691
46.0518
45.1716
44.714
44.6412
44.8021
45.0366
45.2502
45.417
45.5032
45.5462
45.5517
45.5379
45.5369
45.5256
45.5396
45.5629
45.6032
45.6589
45.7122
45.7773
45.834
45.8853
45.9316
45.9685
45.9725
45.9587
45.9164
45.8181
45.7001
45.5403
45.3264
45.0875
44.8149
44.4988
44.1499
43.7794
43.3878
42.9539
42.5002
42.057
41.6027
41.1385
40.74
40.4223
40.1662
40.0389
40.0283
40.1729
40.5344
41.0635
41.7728
42.644
43.629
44.7004
45.8223
46.9512
48.0698
49.1489
50.1139
50.9157
51.6974
52.4143
52.9421
53.4688
54.0675
54.4878
54.6446
54.7108
54.5685
54.0344
52.9463
51.2779
49.135
46.475
43.2401
39.5772
35.7105
31.9005
28.5106
25.8533
24.1085
23.4485
24.041
26.2249
30.2807
36.1652
43.3571
50.9276
57.9401
63.7576
68.3372
71.7803
74.0746
75.2491
75.5812
75.479
75.0798
74.4764
73.6953
72.8367
72.1547
71.4513
70.838
70.1238
69.4389
69.1615
68.6348
68.0868
68.6289
68.6703
67.8172
67.9828
68.415
67.499
66.1675
65.8572
66.6734
68.0886
69.8228
72.0502
73.8244
74.3922
74.419
74.1098
73.2608
71.6945
69.3427
66.0737
62.1158
57.4638
52.331
46.7255
41.4698
37.0562
32.712
29.4073
28.4115
29.0555
30.2183
32.6116
37.2758
44.3587
46.045
53.7204
57.3962
59.19
62.0557
64.4971
83.9315
79.2679
94.7101
92.9396
93.4727
94.3118
92.8457
91.563
89.0207
87.2803
85.4049
83.5561
82.2647
80.2469
79.715
78.3087
77.027
76.7043
75.3993
75.0836
74.6056
73.9184
73.4127
73.2082
72.976
72.3535
72.282
71.9258
72.3363
71.578
71.241
71.2623
70.4163
70.1545
68.563
67.6013
66.0588
64.273
62.6884
60.3214
57.9217
56.0109
54.8373
53.9468
53.7467
51.7343
49.7937
46.831
42.4751
39.2876
46.6758
46.5102
45.9765
45.5273
45.2755
45.1998
45.2391
45.324
45.4071
45.4749
45.5012
45.5109
45.5063
45.4925
45.4955
45.497
45.5151
45.5413
45.5815
45.6303
45.6763
45.7354
45.7839
45.8318
45.8804
45.9163
45.9318
45.9356
45.9129
45.8467
45.7655
45.6449
45.4763
45.2832
45.0563
44.7758
44.4581
44.1155
43.7218
43.2836
42.8235
42.3356
41.8158
41.3144
40.8658
40.4557
40.1354
39.9468
39.8851
40.0053
40.3376
40.8317
41.5471
42.4475
43.4685
44.6062
45.8244
47.0227
48.1978
49.3646
50.3964
51.2683
52.1057
52.8579
53.4654
54.072
54.6402
54.9077
55.0346
55.2393
55.1588
54.472
53.3102
51.8043
49.8806
47.3324
44.1244
40.4597
36.6616
32.9063
29.5096
26.8737
25.1637
24.5486
25.2802
27.6678
31.9715