/*--------------------------------*- C++ -*----------------------------------*\
| =========                 |                                                 |
| \\      /  F ield         | OpenFOAM: The Open Source CFD Toolbox           |
|  \\    /   O peration     | Version:  2.4.0                                 |
|   \\  /    A nd           | Web:      www.OpenFOAM.org                      |
|    \\/     M anipulation  |                                                 |
\*---------------------------------------------------------------------------*/
FoamFile
{
    version     2.0;
    format      ascii;
    class       surfaceScalarField;
    location    "1.52";
    object      phi;
}
// * * * * * * * * * * * * * * * * * * * * * * * * * * * * * * * * * * * * * //

dimensions      [0 3 -1 0 0 0 0];

internalField   nonuniform List<scalar> 
17320
(
1.76325e-05
7.36753e-06
1.16157e-05
6.01676e-06
8.67417e-06
2.94154e-06
7.35719e-06
1.31698e-06
6.70774e-06
6.49452e-07
6.33816e-06
3.69579e-07
6.07955e-06
2.58608e-07
5.87124e-06
2.08313e-07
5.69593e-06
1.75311e-07
5.60488e-06
9.10443e-08
5.49396e-06
1.10922e-07
5.40265e-06
9.1317e-08
5.29824e-06
1.04401e-07
5.27155e-06
2.66921e-08
5.14855e-06
1.23003e-07
5.09405e-06
5.45006e-08
4.98383e-06
1.10221e-07
5.10014e-06
-1.16314e-07
4.73957e-06
3.60568e-07
-8.46143e-07
5.58572e-06
2.54374e-05
6.93008e-06
2.32462e-05
8.20802e-06
2.09758e-05
5.21189e-06
1.93245e-05
2.96836e-06
1.80581e-05
1.9158e-06
1.71089e-05
1.31875e-06
1.63651e-05
1.00249e-06
1.57621e-05
8.11284e-07
1.53012e-05
6.36223e-07
1.49594e-05
4.32872e-07
1.4645e-05
4.25265e-07
1.43999e-05
3.36432e-07
1.41501e-05
3.54198e-07
1.40115e-05
1.65284e-07
1.37361e-05
3.98403e-07
1.36099e-05
1.80743e-07
1.33534e-05
3.66726e-07
1.34249e-05
-1.87824e-07
1.32442e-05
5.41245e-07
-8.43143e-07
1.32412e-05
2.65902e-05
5.33985e-06
2.71617e-05
7.63654e-06
2.67763e-05
5.5973e-06
2.62611e-05
3.48355e-06
2.55876e-05
2.58927e-06
2.48623e-05
2.04413e-06
2.41634e-05
1.70138e-06
2.34723e-05
1.50238e-06
2.29298e-05
1.1787e-06
2.2464e-05
8.98704e-07
2.20447e-05
8.44569e-07
2.17001e-05
6.81016e-07
2.13704e-05
6.83877e-07
2.11428e-05
3.92883e-07
2.08121e-05
7.29107e-07
2.05944e-05
3.98445e-07
2.03423e-05
6.18846e-07
2.0239e-05
-8.45777e-08
2.03069e-05
4.73367e-07
-1.19308e-06
2.06568e-05
2.63507e-05
3.98911e-06
2.75347e-05
6.45253e-06
2.81185e-05
5.01357e-06
2.84593e-05
3.14272e-06
2.86553e-05
2.39329e-06
2.85805e-05
2.11895e-06
2.84831e-05
1.79875e-06
2.8177e-05
1.80852e-06
2.79548e-05
1.40081e-06
2.76869e-05
1.16665e-06
2.7446e-05
1.08543e-06
2.71755e-05
9.51571e-07
2.69404e-05
9.18978e-07
2.67161e-05
6.17188e-07
2.64767e-05
9.68491e-07
2.62017e-05
6.73404e-07
2.60636e-05
7.56985e-07
2.57729e-05
2.06145e-07
2.58214e-05
4.24838e-07
-7.01282e-07
2.53296e-05
2.62247e-05
2.76443e-06
2.72515e-05
5.42574e-06
2.81888e-05
4.07627e-06
2.85852e-05
2.74628e-06
2.91255e-05
1.853e-06
2.93534e-05
1.89103e-06
2.96677e-05
1.48447e-06
2.97354e-05
1.74077e-06
2.98825e-05
1.25371e-06
2.99012e-05
1.148e-06
3.00125e-05
9.74138e-07
2.99696e-05
9.94458e-07
3.00026e-05
8.86014e-07
2.99193e-05
7.00399e-07
2.99402e-05
9.47635e-07
2.9773e-05
8.40565e-07
2.98116e-05
7.18403e-07
2.94919e-05
5.25889e-07
2.944e-05
4.7673e-07
-1.75378e-07
2.89141e-05
2.60488e-05
1.71564e-06
2.69976e-05
4.47698e-06
2.79257e-05
3.14811e-06
2.83579e-05
2.31405e-06
2.89035e-05
1.30741e-06
2.92275e-05
1.56704e-06
2.96123e-05
1.09966e-06
2.97889e-05
1.56415e-06
3.01221e-05
9.20549e-07
3.02252e-05
1.04495e-06
3.05612e-05
6.38143e-07
3.06402e-05
9.15443e-07
3.09051e-05
6.21068e-07
3.08849e-05
7.20566e-07
3.11271e-05
7.0549e-07
3.10703e-05
8.97319e-07
3.12678e-05
5.20898e-07
3.0951e-05
8.42764e-07
3.09716e-05
4.56093e-07
5.49491e-07
3.02467e-05
2.56882e-05
1.02741e-06
2.68045e-05
3.36074e-06
2.75362e-05
2.4164e-06
2.80727e-05
1.77756e-06
2.85793e-05
8.00788e-07
2.88887e-05
1.25763e-06
2.92689e-05
7.19482e-07
2.95212e-05
1.31184e-06
2.98839e-05
5.57854e-07
2.99475e-05
9.81351e-07
3.02613e-05
3.24325e-07
3.04175e-05
7.59232e-07
3.08096e-05
2.2898e-07
3.08049e-05
7.25242e-07
3.1091e-05
4.19434e-07
3.11719e-05
8.16451e-07
3.14896e-05
2.03135e-07
3.11512e-05
1.1812e-06
3.09158e-05
6.91495e-07
1.52249e-06
2.99428e-05
2.54353e-05
5.92141e-07
2.64977e-05
2.29832e-06
2.73182e-05
1.59593e-06
2.79157e-05
1.18002e-06
2.83561e-05
3.60386e-07
2.86252e-05
9.88527e-07
2.89722e-05
3.72475e-07
2.94392e-05
8.44901e-07
2.96116e-05
3.85451e-07
2.98416e-05
7.51343e-07
3.0066e-05
9.99128e-08
3.04138e-05
4.11457e-07
3.06055e-05
3.71967e-08
3.06695e-05
6.61302e-07
3.06951e-05
3.93809e-07
3.11177e-05
3.93893e-07
3.13838e-05
-6.30298e-08
3.16662e-05
8.98855e-07
3.17282e-05
6.29496e-07
7.09212e-07
3.25414e-05
2.54357e-05
1.56469e-07
2.63432e-05
1.39082e-06
2.72216e-05
7.17474e-07
2.79088e-05
4.92877e-07
2.82e-05
6.91048e-08
2.84914e-05
6.97201e-07
2.87249e-05
1.38926e-07
2.92617e-05
3.08133e-07
2.93552e-05
2.91954e-07
2.97699e-05
3.36662e-07
3.00323e-05
-1.62541e-07
3.03011e-05
1.42677e-07
3.02779e-05
6.0443e-08
3.05612e-05
3.77938e-07
3.07614e-05
1.93652e-07
3.10568e-05
9.8514e-08
3.11776e-05
-1.83825e-07
3.1583e-05
4.93363e-07
3.17167e-05
4.95827e-07
1.3457e-07
3.22914e-05
2.5413e-05
-2.56565e-07
2.65132e-05
2.90674e-07
2.72001e-05
3.05162e-08
2.78402e-05
-1.47143e-07
2.81224e-05
-2.13139e-07
2.85359e-05
2.83682e-07
2.86455e-05
2.93027e-08
2.91178e-05
-1.64123e-07
2.93979e-05
1.18166e-08
2.97413e-05
-6.74801e-09
2.98001e-05
-2.21249e-07
2.9882e-05
6.07498e-08
3.00062e-05
-6.37586e-08
3.07129e-05
-3.28775e-07
3.11569e-05
-2.50364e-07
3.08951e-05
3.60359e-07
3.06088e-05
1.02492e-07
3.12364e-05
-1.34283e-07
3.20872e-05
-3.54941e-07
-3.35719e-07
3.25575e-05
2.53568e-05
-6.13354e-07
2.65634e-05
-9.15892e-07
2.72341e-05
-6.40233e-07
2.774e-05
-6.53076e-07
2.81616e-05
-6.34668e-07
2.86108e-05
-1.65582e-07
2.87131e-05
-7.29592e-08
2.91355e-05
-5.86572e-07
2.9474e-05
-3.26604e-07
2.97925e-05
-3.25272e-07
2.97534e-05
-1.82184e-07
2.98718e-05
-5.7627e-08
3.01199e-05
-3.11836e-07
3.06944e-05
-9.03273e-07
3.09295e-05
-4.85477e-07
3.07501e-05
5.39712e-07
3.06638e-05
1.88783e-07
3.12845e-05
-7.54916e-07
3.1924e-05
-9.94465e-07
-5.99106e-07
3.21874e-05
2.54045e-05
-1.01784e-06
2.64976e-05
-2.00905e-06
2.73166e-05
-1.45924e-06
2.7943e-05
-1.27939e-06
2.82049e-05
-8.96566e-07
2.85383e-05
-4.99074e-07
2.88699e-05
-4.04549e-07
2.9184e-05
-9.00673e-07
2.94149e-05
-5.5752e-07
2.97721e-05
-6.82423e-07
2.99394e-05
-3.49529e-07
3.01586e-05
-2.76743e-07
3.03992e-05
-5.52426e-07
3.03807e-05
-8.84813e-07
3.03314e-05
-4.3622e-07
3.07976e-05
7.35274e-08
3.13076e-05
-3.2124e-07
3.15174e-05
-9.64703e-07
3.14906e-05
-9.67664e-07
-5.95953e-07
3.14875e-05
2.54844e-05
-1.50225e-06
2.6552e-05
-3.07666e-06
2.74792e-05
-2.38643e-06
2.80876e-05
-1.88778e-06
2.82074e-05
-1.01632e-06
2.85366e-05
-8.28295e-07
2.90373e-05
-9.05261e-07
2.93678e-05
-1.23114e-06
2.95854e-05
-7.75124e-07
2.97755e-05
-8.72537e-07
3.00293e-05
-6.03347e-07
3.03618e-05
-6.09212e-07
3.04986e-05
-6.89205e-07
3.03662e-05
-7.52419e-07
3.03886e-05
-4.58685e-07
3.10423e-05
-5.80113e-07
3.15133e-05
-7.92284e-07
3.15512e-05
-1.00256e-06
3.14472e-05
-8.63685e-07
-8.05259e-07
3.16565e-05
2.56226e-05
-2.12487e-06
2.67464e-05
-4.20039e-06
2.76203e-05
-3.26033e-06
2.80483e-05
-2.3158e-06
2.84335e-05
-1.40157e-06
2.88143e-05
-1.20903e-06
2.92554e-05
-1.34636e-06
2.95114e-05
-1.48712e-06
2.97773e-05
-1.04111e-06
2.99669e-05
-1.06207e-06
3.01938e-05
-8.30268e-07
3.03965e-05
-8.11951e-07
3.04946e-05
-7.87285e-07
3.06427e-05
-9.00514e-07
3.08271e-05
-6.43128e-07
3.11893e-05
-9.42234e-07
3.13003e-05
-9.03293e-07
3.1474e-05
-1.17627e-06
3.16896e-05
-1.07927e-06
-1.22506e-06
3.21094e-05
2.58263e-05
-2.95116e-06
2.69596e-05
-5.33368e-06
2.77918e-05
-4.09257e-06
2.81903e-05
-2.71426e-06
2.87528e-05
-1.96407e-06
2.91424e-05
-1.5987e-06
2.95279e-05
-1.73179e-06
2.96969e-05
-1.6562e-06
2.99516e-05
-1.29578e-06
3.01519e-05
-1.26241e-06
3.03677e-05
-1.04602e-06
3.05161e-05
-9.60354e-07
3.05948e-05
-8.65981e-07
3.07186e-05
-1.02436e-06
3.08573e-05
-7.8176e-07
3.1011e-05
-1.09599e-06
3.10645e-05
-9.56802e-07
3.12626e-05
-1.37433e-06
3.14499e-05
-1.26661e-06
-1.55034e-06
3.17752e-05
2.6032e-05
-3.98317e-06
2.7225e-05
-6.52666e-06
2.80499e-05
-4.91751e-06
2.85342e-05
-3.19852e-06
2.90152e-05
-2.44505e-06
2.93494e-05
-1.93289e-06
2.96176e-05
-2.00007e-06
2.97086e-05
-1.74714e-06
2.98292e-05
-1.41641e-06
2.98775e-05
-1.31072e-06
2.99157e-05
-1.08421e-06
2.99072e-05
-9.51825e-07
2.98694e-05
-8.28181e-07
2.9807e-05
-9.6199e-07
2.97876e-05
-7.62321e-07
2.96986e-05
-1.00699e-06
2.96112e-05
-8.69414e-07
2.95477e-05
-1.31089e-06
2.94606e-05
-1.17953e-06
-1.58913e-06
2.94994e-05
2.63196e-05
-5.30282e-06
2.75277e-05
-7.73475e-06
2.81167e-05
-5.50649e-06
2.84725e-05
-3.55428e-06
2.8623e-05
-2.59562e-06
2.86443e-05
-1.95411e-06
2.84577e-05
-1.81351e-06
2.81982e-05
-1.48762e-06
2.79414e-05
-1.15958e-06
2.76434e-05
-1.01277e-06
2.73743e-05
-8.15125e-07
2.71158e-05
-6.93296e-07
2.68669e-05
-5.79245e-07
2.6588e-05
-6.83077e-07
2.63778e-05
-5.52169e-07
2.60817e-05
-7.10919e-07
2.58351e-05
-6.22762e-07
2.54882e-05
-9.64034e-07
2.52251e-05
-9.16406e-07
-1.4104e-06
2.50464e-05
2.66139e-05
-6.91676e-06
2.71323e-05
-8.25312e-06
2.67878e-05
-5.16194e-06
2.62443e-05
-3.01079e-06
2.55649e-05
-1.91619e-06
2.48876e-05
-1.27682e-06
2.41229e-05
-1.04882e-06
2.34648e-05
-8.2951e-07
2.29042e-05
-5.98991e-07
2.23979e-05
-5.0649e-07
2.1989e-05
-4.06232e-07
2.16397e-05
-3.44049e-07
2.13352e-05
-2.74712e-07
2.10143e-05
-3.62204e-07
2.07551e-05
-2.92899e-07
2.0428e-05
-3.83892e-07
2.01497e-05
-3.44406e-07
1.97177e-05
-5.32065e-07
1.93265e-05
-5.25227e-07
-5.33242e-07
1.84494e-05
2.54511e-05
-7.36791e-06
2.32251e-05
-6.02711e-06
2.09884e-05
-2.92517e-06
1.93057e-05
-1.32814e-06
1.80423e-05
-6.52788e-07
1.71184e-05
-3.52914e-07
1.63397e-05
-2.7008e-07
1.57396e-05
-2.29402e-07
1.52854e-05
-1.44836e-07
1.49043e-05
-1.25356e-07
1.46046e-05
-1.06583e-07
1.43533e-05
-9.26998e-08
1.41442e-05
-6.56796e-08
1.38973e-05
-1.15238e-07
1.36928e-05
-8.84494e-08
1.34339e-05
-1.2499e-07
1.31993e-05
-1.09773e-07
1.285e-05
-1.82745e-07
1.25499e-05
-2.25182e-07
-1.03988e-07
1.21207e-05
1.76321e-05
1.1605e-05
8.6798e-06
7.35166e-06
6.69887e-06
6.34596e-06
6.07588e-06
5.84648e-06
5.70164e-06
5.57629e-06
5.4697e-06
5.377e-06
5.31132e-06
5.19609e-06
5.10764e-06
4.98265e-06
4.87287e-06
4.69013e-06
4.46495e-06
4.36096e-06
6.01215e-06
-2.98647e-07
-1.27785e-07
6.32904e-06
-1.05945e-07
-2.10949e-07
6.55225e-06
-4.67847e-08
-1.76427e-07
6.77912e-06
7.062e-09
-2.33932e-07
7.04599e-06
-5.21225e-08
-2.14742e-07
7.31888e-06
-5.86095e-08
-2.14282e-07
7.60402e-06
-1.50578e-07
-1.34566e-07
7.86439e-06
-1.52048e-07
-1.08316e-07
8.09704e-06
-2.29504e-07
-3.15216e-09
8.30276e-06
-2.05921e-07
2.08577e-10
8.47813e-06
-2.63713e-07
8.834e-08
8.64231e-06
-2.45352e-07
8.11726e-08
8.80488e-06
-3.2057e-07
1.58004e-07
8.96348e-06
-3.19699e-07
1.61093e-07
9.10944e-06
-4.29239e-07
2.83283e-07
9.24633e-06
-4.55588e-07
3.18693e-07
9.37649e-06
-5.94646e-07
4.6449e-07
9.47859e-06
-6.42368e-07
5.40272e-07
9.54302e-06
-7.87208e-07
7.22775e-07
9.55426e-06
-8.23221e-07
8.11986e-07
9.50442e-06
-9.53898e-07
1.00373e-06
9.39471e-06
-9.39248e-07
1.04896e-06
9.21637e-06
-9.90577e-07
1.16892e-06
9.00846e-06
-8.75198e-07
1.0831e-06
8.7536e-06
-8.28629e-07
1.0835e-06
8.50845e-06
-5.91487e-07
8.36633e-07
8.33042e-06
-3.66399e-07
5.44427e-07
8.28797e-06
3.12915e-08
1.11599e-08
8.43564e-06
4.80002e-07
-6.27668e-07
8.81591e-06
1.10769e-06
-1.48796e-06
9.45296e-06
1.75994e-06
-2.39699e-06
1.02426e-05
2.52585e-06
-3.3155e-06
1.11832e-05
3.13423e-06
-4.07487e-06
1.21917e-05
3.63756e-06
-4.64599e-06
1.32049e-05
3.80808e-06
-4.82127e-06
1.42069e-05
3.73241e-06
-4.73445e-06
1.51072e-05
3.23096e-06
-4.1313e-06
1.58332e-05
2.53158e-06
-3.25754e-06
1.63768e-05
1.62369e-06
-2.16728e-06
1.68224e-05
5.13608e-07
-9.59246e-07
1.71678e-05
-5.32639e-07
1.87266e-07
1.74341e-05
-1.41593e-06
1.14963e-06
1.76508e-05
-2.45359e-06
2.2369e-06
1.78626e-05
-3.58799e-06
3.37614e-06
1.81506e-05
-4.45294e-06
4.16499e-06
1.85513e-05
-5.1573e-06
4.75658e-06
1.89894e-05
-5.94755e-06
5.50943e-06
1.93991e-05
-6.79056e-06
6.38092e-06
1.96289e-05
-7.03181e-06
6.802e-06
1.95564e-05
-6.32655e-06
6.39901e-06
1.93256e-05
-5.33473e-06
5.56558e-06
1.9201e-05
-4.47572e-06
4.60032e-06
1.92777e-05
-3.57735e-06
3.50066e-06
1.96136e-05
-2.4902e-06
2.15427e-06
2.00015e-05
-1.35771e-06
9.6974e-07
2.01205e-05
-8.95559e-08
-2.94137e-08
2.0099e-05
1.21617e-06
-1.19461e-06
2.02297e-05
2.31922e-06
-2.44992e-06
2.07109e-05
3.18367e-06
-3.66494e-06
2.15851e-05
3.75265e-06
-4.62687e-06
2.26784e-05
4.34603e-06
-5.43925e-06
2.39213e-05
4.55853e-06
-5.80146e-06
2.52282e-05
4.06386e-06
-5.37075e-06
2.61937e-05
3.63747e-06
-4.60299e-06
2.70207e-05
2.68717e-06
-3.51418e-06
2.78297e-05
1.18786e-06
-1.99687e-06
2.83425e-05
6.30815e-08
-5.75922e-07
2.8744e-05
-1.63499e-06
1.23352e-06
2.90475e-05
-3.3545e-06
3.05098e-06
2.92085e-05
-4.66338e-06
4.50244e-06
2.91797e-05
-6.47545e-06
6.5042e-06
2.90259e-05
-7.8883e-06
8.04214e-06
2.88205e-05
-8.79981e-06
9.00519e-06
2.84066e-05
-1.03231e-05
1.0737e-05
2.79878e-05
-1.09551e-05
1.13738e-05
2.75766e-05
-1.12655e-05
1.16767e-05
2.7257e-05
-1.21027e-05
1.24223e-05
2.68703e-05
-1.16267e-05
1.20135e-05
2.65625e-05
-1.15743e-05
1.18821e-05
2.63574e-05
-1.15186e-05
1.17238e-05
2.58785e-05
-1.04645e-05
1.09434e-05
2.53877e-05
-9.99173e-06
1.04825e-05
2.46955e-05
-8.93485e-06
9.62707e-06
2.39006e-05
-7.96529e-06
8.76014e-06
2.30119e-05
-6.70126e-06
7.59e-06
2.17423e-05
-5.09815e-06
6.36776e-06
2.05011e-05
-3.87003e-06
5.11118e-06
1.88565e-05
-1.69838e-06
3.34296e-06
1.69926e-05
2.77242e-07
1.58675e-06
1.54621e-05
2.75951e-06
-1.22904e-06
1.41902e-05
5.603e-06
-4.33113e-06
1.33977e-05
8.47394e-06
-7.68143e-06
1.35995e-05
1.19336e-05
-1.21354e-05
1.48573e-05
1.45411e-05
-1.57989e-05
1.65279e-05
1.68473e-05
-1.8518e-05
1.79291e-05
1.72488e-05
-1.865e-05
1.89485e-05
1.64017e-05
-1.74211e-05
1.98516e-05
1.49271e-05
-1.58302e-05
2.07832e-05
1.26982e-05
-1.36297e-05
2.172e-05
1.07216e-05
-1.16584e-05
2.23538e-05
8.6447e-06
-9.27853e-06
2.30104e-05
5.5841e-06
-6.24071e-06
2.3583e-05
2.88594e-06
-3.45848e-06
2.38839e-05
5.97866e-07
-8.98811e-07
2.39947e-05
-2.54583e-06
2.43499e-06
2.419e-05
-4.89383e-06
4.69859e-06
2.44025e-05
-6.46087e-06
6.24833e-06
2.46727e-05
-9.08045e-06
8.8103e-06
2.49472e-05
-1.1524e-05
1.12495e-05
2.47278e-05
-1.23505e-05
1.25699e-05
2.396e-05
-1.34102e-05
1.4178e-05
2.33302e-05
-1.47651e-05
1.53949e-05
2.26939e-05
-1.41882e-05
1.48246e-05
2.18485e-05
-1.31299e-05
1.39752e-05
2.11963e-05
-1.38222e-05
1.44744e-05
2.09401e-05
-1.43147e-05
1.4571e-05
2.07962e-05
-1.2947e-05
1.30909e-05
2.0313e-05
-1.16878e-05
1.21711e-05
1.95059e-05
-1.25003e-05
1.33074e-05
1.90088e-05
-1.42801e-05
1.47772e-05
1.94117e-05
-1.40898e-05
1.36869e-05
2.04443e-05
-1.1318e-05
1.02853e-05
2.12589e-05
-8.57149e-06
7.75692e-06
2.15988e-05
-9.35615e-06
9.01628e-06
2.16579e-05
-1.42205e-05
1.41614e-05
2.13537e-05
-1.97211e-05
2.00254e-05
2.09021e-05
-2.35932e-05
2.40447e-05
2.05126e-05
-2.56833e-05
2.60729e-05
2.03404e-05
-2.7795e-05
2.79672e-05
2.03303e-05
-2.95639e-05
2.95741e-05
2.01661e-05
-2.87572e-05
2.89214e-05
1.97229e-05
-2.57715e-05
2.62147e-05
1.92603e-05
-2.22304e-05
2.2693e-05
1.91037e-05
-1.80417e-05
1.81984e-05
1.93329e-05
-1.36826e-05
1.34533e-05
1.97659e-05
-9.29648e-06
8.86343e-06
2.04323e-05
-3.73312e-06
3.0668e-06
2.13975e-05
2.34278e-06
-3.30803e-06
2.22894e-05
7.08545e-06
-7.97737e-06
2.31243e-05
1.02994e-05
-1.11342e-05
2.42362e-05
1.34813e-05
-1.45932e-05
2.5181e-05
1.73749e-05
-1.83197e-05
2.62098e-05
2.13805e-05
-2.24093e-05
2.69576e-05
2.536e-05
-2.61078e-05
2.76166e-05
2.8438e-05
-2.90971e-05
2.81805e-05
3.07565e-05
-3.13204e-05
2.76108e-05
3.204e-05
-3.14703e-05
2.66776e-05
3.12572e-05
-3.0324e-05
2.62773e-05
2.9445e-05
-2.90446e-05
2.50113e-05
2.78346e-05
-2.65686e-05
2.37683e-05
2.48341e-05
-2.35911e-05
2.3076e-05
2.17084e-05
-2.1016e-05
2.17835e-05
1.89493e-05
-1.76568e-05
2.08961e-05
1.55303e-05
-1.46429e-05
1.98587e-05
1.30193e-05
-1.19819e-05
1.88064e-05
1.00018e-05
-8.94952e-06
1.8414e-05
6.95766e-06
-6.5653e-06
1.79633e-05
5.00248e-06
-4.55173e-06
1.80002e-05
2.14081e-06
-2.17768e-06
1.7578e-05
8.35206e-07
-4.13028e-07
1.73993e-05
-1.91259e-06
2.09123e-06
1.6944e-05
-3.20348e-06
3.65881e-06
1.7182e-05
-5.26221e-06
5.02422e-06
1.69859e-05
-5.69606e-06
5.89214e-06
1.7143e-05
-7.09733e-06
6.9402e-06
1.67576e-05
-6.92653e-06
7.31201e-06
1.67679e-05
-7.09008e-06
7.07971e-06
1.64708e-05
-6.3501e-06
6.64722e-06
1.66497e-05
-7.17467e-06
6.99576e-06
1.60799e-05
-6.28456e-06
6.85437e-06
1.62641e-05
-6.45846e-06
6.27429e-06
1.6103e-05
-5.13537e-06
5.2965e-06
1.61679e-05
-3.59755e-06
3.53258e-06
1.57532e-05
-1.79908e-06
2.21379e-06
1.58311e-05
-1.16415e-06
1.08629e-06
1.5761e-05
-2.26319e-08
9.26732e-08
1.56799e-05
7.70646e-07
-6.89473e-07
1.48791e-05
1.52481e-06
-7.24017e-07
1.42555e-05
1.5806e-06
-9.57038e-07
1.45089e-05
2.32722e-06
-2.58062e-06
1.48146e-05
3.58001e-06
-3.8857e-06
1.50298e-05
5.1068e-06
-5.32198e-06
1.45445e-05
6.03305e-06
-5.54776e-06
1.35141e-05
6.26883e-06
-5.23844e-06
1.24784e-05
6.20022e-06
-5.16451e-06
1.25721e-05
6.64461e-06
-6.73829e-06
1.34207e-05
6.79278e-06
-7.64143e-06
1.38363e-05
7.58866e-06
-8.0042e-06
1.3575e-05
7.71414e-06
-7.45288e-06
1.30235e-05
8.09696e-06
-7.54541e-06
1.29916e-05
8.19617e-06
-8.16428e-06
1.33669e-05
9.80635e-06
-1.01817e-05
1.46694e-05
1.1277e-05
-1.25794e-05
1.58081e-05
1.38594e-05
-1.49982e-05
1.64653e-05
1.4022e-05
-1.46792e-05
1.58701e-05
1.48598e-05
-1.42646e-05
1.52827e-05
1.2013e-05
-1.14256e-05
1.27161e-05
1.28429e-05
-1.02763e-05
1.31851e-05
8.54509e-06
-9.01417e-06
1.38605e-05
-1.35464e-05
1.28711e-05
1.33894e-05
-4.46888e-07
1.35115e-05
-2.28041e-07
1.35931e-05
-1.28321e-07
1.36646e-05
-6.45178e-08
1.37754e-05
-1.62925e-07
1.39324e-05
-2.15544e-07
1.41035e-05
-3.21744e-07
1.42852e-05
-3.33734e-07
1.44321e-05
-3.76339e-07
1.45696e-05
-3.43495e-07
1.46889e-05
-3.82978e-07
1.48107e-05
-3.67105e-07
1.49246e-05
-4.34478e-07
1.50464e-05
-4.415e-07
1.51627e-05
-5.45541e-07
1.52727e-05
-5.65661e-07
1.53722e-05
-6.94079e-07
1.54504e-05
-7.20583e-07
1.54883e-05
-8.25097e-07
1.55053e-05
-8.4022e-07
1.54548e-05
-9.03443e-07
1.53795e-05
-8.63957e-07
1.52415e-05
-8.5253e-07
1.50784e-05
-7.12135e-07
1.48505e-05
-6.00742e-07
1.46054e-05
-3.46363e-07
1.43326e-05
-9.35836e-08
1.40625e-05
3.01392e-07
1.38691e-05
6.73346e-07
1.3808e-05
1.16888e-06
1.39548e-05
1.61306e-06
1.43755e-05
2.10522e-06
1.49883e-05
2.52135e-06
1.58423e-05
2.7836e-06
1.67228e-05
2.92755e-06
1.76537e-05
2.8015e-06
1.85642e-05
2.32049e-06
1.93049e-05
1.79091e-06
1.99562e-05
9.7237e-07
2.04768e-05
-7.01058e-09
2.09181e-05
-9.73971e-07
2.14304e-05
-1.92818e-06
2.19118e-05
-2.93499e-06
2.23197e-05
-3.99586e-06
2.27095e-05
-4.84281e-06
2.31722e-05
-5.61997e-06
2.34836e-05
-6.25894e-06
2.34414e-05
-6.74838e-06
2.31649e-05
-6.75531e-06
2.29508e-05
-6.11242e-06
2.30426e-05
-5.42651e-06
2.33858e-05
-4.819e-06
2.36195e-05
-3.81104e-06
2.36856e-05
-2.55629e-06
2.37417e-05
-1.41378e-06
2.37741e-05
-1.21999e-07
2.39139e-05
1.0764e-06
2.41139e-05
2.11922e-06
2.42119e-05
3.08564e-06
2.45e-05
3.46453e-06
2.49613e-05
3.88478e-06
2.55033e-05
4.01655e-06
2.6265e-05
3.30218e-06
2.71161e-05
2.78634e-06
2.79535e-05
1.8498e-06
2.86018e-05
5.39555e-07
2.91233e-05
-4.58423e-07
2.96256e-05
-2.13727e-06
2.97942e-05
-3.52311e-06
3.00049e-05
-4.87415e-06
3.01679e-05
-6.63838e-06
2.9964e-05
-7.68445e-06
2.99694e-05
-8.80519e-06
2.98476e-05
-1.02012e-05
2.95655e-05
-1.0673e-05
2.94512e-05
-1.11513e-05
2.91684e-05
-1.18199e-05
2.89969e-05
-1.14552e-05
2.88765e-05
-1.14539e-05
2.84784e-05
-1.11206e-05
2.80272e-05
-1.00132e-05
2.7348e-05
-9.31248e-06
2.65789e-05
-8.16578e-06
2.5691e-05
-7.07743e-06
2.45942e-05
-5.60446e-06
2.33913e-05
-3.89518e-06
2.21007e-05
-2.5795e-06
2.0836e-05
-4.33627e-07
1.94987e-05
1.61454e-06
1.8256e-05
4.00215e-06
1.73904e-05
6.46868e-06
1.69258e-05
8.93849e-06
1.70589e-05
1.18005e-05
1.77035e-05
1.38966e-05
1.89593e-05
1.55915e-05
2.03533e-05
1.58549e-05
2.14815e-05
1.52734e-05
2.23126e-05
1.40961e-05
2.31582e-05
1.18526e-05
2.40101e-05
9.86972e-06
2.46062e-05
8.04853e-06
2.5138e-05
5.05237e-06
2.5535e-05
2.48889e-06
2.57955e-05
3.37333e-07
2.5978e-05
-2.72824e-06
2.62742e-05
-5.19011e-06
2.64379e-05
-6.6245e-06
2.65211e-05
-9.16373e-06
2.64803e-05
-1.14831e-05
2.592e-05
-1.17902e-05
2.49349e-05
-1.24251e-05
2.41042e-05
-1.39344e-05
2.33768e-05
-1.34608e-05
2.2523e-05
-1.22761e-05
2.16778e-05
-1.29769e-05
2.11363e-05
-1.37732e-05
2.08205e-05
-1.26313e-05
2.02065e-05
-1.10738e-05
1.9262e-05
-1.15558e-05
1.84978e-05
-1.35158e-05
1.86209e-05
-1.42128e-05
1.93662e-05
-1.20634e-05
2.00213e-05
-9.22656e-06
2.06089e-05
-9.94375e-06
2.08339e-05
-1.44455e-05
2.0532e-05
-1.94191e-05
1.98806e-05
-2.29418e-05
1.93651e-05
-2.51678e-05
1.90561e-05
-2.7486e-05
1.87436e-05
-2.92515e-05
1.82548e-05
-2.82683e-05
1.75915e-05
-2.51082e-05
1.69713e-05
-2.16102e-05
1.68086e-05
-1.7879e-05
1.68411e-05
-1.37151e-05
1.70756e-05
-9.53095e-06
1.78016e-05
-4.45917e-06
1.88502e-05
1.29416e-06
1.99821e-05
5.95364e-06
2.11158e-05
9.1656e-06
2.22785e-05
1.23186e-05
2.33402e-05
1.63132e-05
2.43277e-05
2.0393e-05
2.54057e-05
2.42821e-05
2.61527e-05
2.7691e-05
2.69345e-05
2.99748e-05
2.75288e-05
3.14457e-05
2.6905e-05
3.18809e-05
2.61926e-05
3.01574e-05
2.6054e-05
2.79732e-05
2.47914e-05
2.60967e-05
2.37461e-05
2.27537e-05
2.3036e-05
1.96594e-05
2.19828e-05
1.65836e-05
2.15821e-05
1.342e-05
2.03882e-05
1.11957e-05
1.98393e-05
7.50653e-06
1.89516e-05
5.89026e-06
1.9128e-05
1.96441e-06
1.858e-05
1.38312e-06
1.86633e-05
-1.99586e-06
1.80488e-05
-2.58898e-06
1.85288e-05
-5.74216e-06
1.82578e-05
-5.4251e-06
1.87625e-05
-7.60204e-06
1.83402e-05
-6.50424e-06
1.82421e-05
-6.99194e-06
1.79247e-05
-6.03276e-06
1.7847e-05
-7.0969e-06
1.77355e-05
-6.17306e-06
1.75445e-05
-6.26748e-06
1.71797e-05
-4.77062e-06
1.6776e-05
-3.19378e-06
1.64482e-05
-1.47133e-06
1.6084e-05
-7.9998e-07
1.62036e-05
-1.42162e-07
1.63448e-05
6.2944e-07
1.59919e-05
1.87767e-06
1.4758e-05
2.8145e-06
1.40116e-05
3.07365e-06
1.40147e-05
3.57686e-06
1.43341e-05
4.78743e-06
1.46667e-05
5.70047e-06
1.42196e-05
6.71591e-06
1.38238e-05
6.59598e-06
1.36237e-05
6.84471e-06
1.33821e-05
7.03446e-06
1.31943e-05
7.77642e-06
1.362e-05
7.2884e-06
1.36163e-05
8.10072e-06
1.40384e-05
7.77409e-06
1.41329e-05
9.71181e-06
1.53563e-05
1.00536e-05
1.64245e-05
1.27912e-05
1.83389e-05
1.21077e-05
1.84896e-05
1.47091e-05
1.89064e-05
1.15962e-05
1.74889e-05
1.42604e-05
1.76516e-05
8.38243e-06
1.29091e-05
1.86029e-05
2.03933e-05
-1.83388e-07
2.01735e-05
-8.23218e-09
2.0056e-05
-1.0821e-08
2.00849e-05
-9.33915e-08
2.02002e-05
-2.78164e-07
2.03477e-05
-3.63046e-07
2.0475e-05
-4.49106e-07
2.05896e-05
-4.48269e-07
2.06745e-05
-4.61303e-07
2.07633e-05
-4.32271e-07
2.08285e-05
-4.48184e-07
2.09154e-05
-4.5396e-07
2.09761e-05
-4.95214e-07
2.10619e-05
-5.27286e-07
2.11324e-05
-6.16093e-07
2.12042e-05
-6.37456e-07
2.12541e-05
-7.43944e-07
2.12964e-05
-7.6288e-07
2.13007e-05
-8.29446e-07
2.12821e-05
-8.21627e-07
2.12235e-05
-8.4484e-07
2.1143e-05
-7.83458e-07
2.10059e-05
-7.15416e-07
2.08774e-05
-5.83606e-07
2.06834e-05
-4.06762e-07
2.05024e-05
-1.65383e-07
2.02988e-05
1.10105e-07
2.01146e-05
4.85513e-07
1.99351e-05
8.52848e-07
1.98759e-05
1.22812e-06
1.98549e-05
1.63406e-06
2.00186e-05
1.94154e-06
2.03173e-05
2.22265e-06
2.07936e-05
2.30724e-06
2.14045e-05
2.31665e-06
2.20654e-05
2.14061e-06
2.27893e-05
1.59663e-06
2.34615e-05
1.11873e-06
2.41211e-05
3.12755e-07
2.47225e-05
-6.0841e-07
2.52367e-05
-1.48824e-06
2.58165e-05
-2.50795e-06
2.63155e-05
-3.43397e-06
2.67081e-05
-4.38847e-06
2.70446e-05
-5.17927e-06
2.72879e-05
-5.86325e-06
2.73821e-05
-6.35317e-06
2.72472e-05
-6.6135e-06
2.70831e-05
-6.59119e-06
2.70932e-05
-6.12251e-06
2.7066e-05
-5.39936e-06
2.68236e-05
-4.57659e-06
2.65562e-05
-3.54361e-06
2.63588e-05
-2.35888e-06
2.6254e-05
-1.30898e-06
2.62363e-05
-1.04267e-07
2.6347e-05
9.65629e-07
2.65918e-05
1.87446e-06
2.68889e-05
2.78857e-06
2.72646e-05
3.08874e-06
2.76228e-05
3.52667e-06
2.80986e-05
3.5407e-06
2.86611e-05
2.73971e-06
2.90832e-05
2.36424e-06
2.96091e-05
1.32391e-06
3.01079e-05
4.06733e-08
3.05614e-05
-9.11859e-07
3.10397e-05
-2.61564e-06
3.1344e-05
-3.82742e-06
3.16081e-05
-5.13816e-06
3.17973e-05
-6.82766e-06
3.18062e-05
-7.69329e-06
3.197e-05
-8.96904e-06
3.19072e-05
-1.01384e-05
3.16373e-05
-1.04031e-05
3.16027e-05
-1.11167e-05
3.12925e-05
-1.15098e-05
3.08395e-05
-1.10022e-05
3.03346e-05
-1.0949e-05
2.94892e-05
-1.02752e-05
2.87922e-05
-9.31618e-06
2.80694e-05
-8.58971e-06
2.71055e-05
-7.20193e-06
2.62004e-05
-6.17234e-06
2.51668e-05
-4.57084e-06
2.41401e-05
-2.8685e-06
2.30822e-05
-1.52159e-06
2.20102e-05
6.38419e-07
2.12184e-05
2.40629e-06
2.05034e-05
4.71717e-06
1.98579e-05
7.11413e-06
1.96109e-05
9.1855e-06
1.99966e-05
1.14148e-05
2.05979e-05
1.32952e-05
2.15303e-05
1.46591e-05
2.26781e-05
1.47071e-05
2.36889e-05
1.42626e-05
2.44281e-05
1.33569e-05
2.51567e-05
1.1124e-05
2.58383e-05
9.18821e-06
2.6454e-05
7.43279e-06
2.6991e-05
4.51533e-06
2.74007e-05
2.07925e-06
2.76336e-05
1.04384e-07
2.78507e-05
-2.94528e-06
2.81189e-05
-5.45832e-06
2.81219e-05
-6.62753e-06
2.78552e-05
-8.89706e-06
2.74101e-05
-1.1038e-05
2.65536e-05
-1.09338e-05
2.54402e-05
-1.13117e-05
2.44853e-05
-1.29795e-05
2.36948e-05
-1.26703e-05
2.2807e-05
-1.13883e-05
2.17501e-05
-1.192e-05
2.10163e-05
-1.30394e-05
2.05596e-05
-1.21746e-05
1.99173e-05
-1.04315e-05
1.89747e-05
-1.06132e-05
1.81074e-05
-1.26485e-05
1.80189e-05
-1.41244e-05
1.84202e-05
-1.24647e-05
1.89645e-05
-9.7709e-06
1.95321e-05
-1.05113e-05
1.96786e-05
-1.45921e-05
1.9274e-05
-1.90145e-05
1.85016e-05
-2.21695e-05
1.79272e-05
-2.45934e-05
1.75844e-05
-2.71432e-05
1.70936e-05
-2.87607e-05
1.62981e-05
-2.74729e-05
1.53844e-05
-2.41945e-05
1.46954e-05
-2.09212e-05
1.45562e-05
-1.77399e-05
1.47997e-05
-1.39586e-05
1.5014e-05
-9.74528e-06
1.54014e-05
-4.84652e-06
1.64784e-05
2.17064e-07
1.78365e-05
4.59555e-06
1.89427e-05
8.05938e-06
2.01746e-05
1.10868e-05
2.14531e-05
1.50346e-05
2.23538e-05
1.94922e-05
2.35205e-05
2.31155e-05
2.46879e-05
2.65235e-05
2.52838e-05
2.9379e-05
2.62448e-05
3.04846e-05
2.68408e-05
3.1285e-05
2.59724e-05
3.10258e-05
2.55625e-05
2.8383e-05
2.5627e-05
2.60323e-05
2.4633e-05
2.37477e-05
2.41644e-05
2.01279e-05
2.3186e-05
1.7562e-05
2.2695e-05
1.39109e-05
2.17291e-05
1.21617e-05
2.14017e-05
7.83394e-06
2.04032e-05
6.88872e-06
2.04463e-05
1.92133e-06
1.97929e-05
2.03651e-06
2.01583e-05
-2.36129e-06
1.96045e-05
-2.03517e-06
2.01331e-05
-6.27071e-06
1.97973e-05
-5.08933e-06
2.04018e-05
-8.20655e-06
2.00102e-05
-6.11261e-06
2.00239e-05
-7.00571e-06
1.9199e-05
-5.20784e-06
1.88789e-05
-6.77682e-06
1.88147e-05
-6.10881e-06
1.90184e-05
-6.47117e-06
1.8726e-05
-4.47825e-06
1.82051e-05
-2.67286e-06
1.74224e-05
-6.886e-07
1.68432e-05
-2.20871e-07
1.61633e-05
5.37829e-07
1.64641e-05
3.28626e-07
1.64992e-05
1.84253e-06
1.7187e-05
2.12666e-06
1.63688e-05
3.89186e-06
1.62974e-05
3.6483e-06
1.58031e-05
5.28175e-06
1.59678e-05
5.53574e-06
1.56719e-05
7.0118e-06
1.56602e-05
6.60769e-06
1.51642e-05
7.34076e-06
1.52944e-05
6.90422e-06
1.50355e-05
8.03534e-06
1.541e-05
6.91383e-06
1.52747e-05
8.23611e-06
1.54321e-05
7.61661e-06
1.55279e-05
9.61609e-06
1.66183e-05
8.9632e-06
1.71276e-05
1.22819e-05
1.88091e-05
1.04261e-05
1.94425e-05
1.40758e-05
2.05225e-05
1.05162e-05
2.15259e-05
1.32569e-05
2.10388e-05
8.8695e-06
1.14474e-05
2.25006e-05
2.53324e-05
-1.86186e-07
2.53797e-05
-5.55518e-08
2.54866e-05
-1.17718e-07
2.56182e-05
-2.24952e-07
2.57303e-05
-3.90257e-07
2.58332e-05
-4.66019e-07
2.58974e-05
-5.13299e-07
2.59554e-05
-5.06248e-07
2.59863e-05
-4.92148e-07
2.60329e-05
-4.78898e-07
2.60625e-05
-4.77745e-07
2.61187e-05
-5.10187e-07
2.61394e-05
-5.15896e-07
2.61917e-05
-5.7962e-07
2.62206e-05
-6.4497e-07
2.62492e-05
-6.66036e-07
2.62585e-05
-7.5333e-07
2.62631e-05
-7.67484e-07
2.62361e-05
-8.0244e-07
2.61816e-05
-7.67074e-07
2.6122e-05
-7.85251e-07
2.603e-05
-6.9142e-07
2.59002e-05
-5.85667e-07
2.57964e-05
-4.79847e-07
2.56532e-05
-2.63507e-07
2.55279e-05
-4.00471e-08
2.5394e-05
2.43996e-07
2.53328e-05
5.46674e-07
2.52444e-05
9.41213e-07
2.52697e-05
1.20287e-06
2.53582e-05
1.54558e-06
2.55011e-05
1.79862e-06
2.57895e-05
1.93427e-06
2.61327e-05
1.96403e-06
2.66036e-05
1.84577e-06
2.71315e-05
1.61265e-06
2.76393e-05
1.08886e-06
2.82051e-05
5.52917e-07
2.8745e-05
-2.27113e-07
2.92287e-05
-1.09216e-06
2.96909e-05
-1.95038e-06
3.00831e-05
-2.9002e-06
3.03907e-05
-3.74157e-06
3.0573e-05
-4.57076e-06
3.06578e-05
-5.2641e-06
3.05881e-05
-5.79354e-06
3.03641e-05
-6.1292e-06
3.00109e-05
-6.26024e-06
2.95474e-05
-6.1277e-06
2.90252e-05
-5.60034e-06
2.85016e-05
-4.87569e-06
2.80342e-05
-4.10922e-06
2.77116e-05
-3.22102e-06
2.7592e-05
-2.23924e-06
2.76109e-05
-1.32789e-06
2.7656e-05
-1.49389e-07
2.78535e-05
7.68062e-07
2.8161e-05
1.56705e-06
2.85924e-05
2.35717e-06
2.91909e-05
2.49021e-06
2.98315e-05
2.88601e-06
3.04498e-05
2.92243e-06
3.0912e-05
2.27758e-06
3.14301e-05
1.84608e-06
3.19573e-05
7.96743e-07
3.22963e-05
-2.98396e-07
3.27987e-05
-1.41425e-06
3.31325e-05
-2.94943e-06
3.32779e-05
-3.9728e-06
3.35534e-05
-5.41366e-06
3.36084e-05
-6.88268e-06
3.3611e-05
-7.69584e-06
3.35283e-05
-8.88639e-06
3.31771e-05
-9.78723e-06
3.28836e-05
-1.01095e-05
3.2467e-05
-1.07001e-05
3.1703e-05
-1.07458e-05
3.09719e-05
-1.0271e-05
3.03591e-05
-1.03362e-05
2.95728e-05
-9.48891e-06
2.8765e-05
-8.50842e-06
2.80291e-05
-7.85381e-06
2.70503e-05
-6.22307e-06
2.61201e-05
-5.2422e-06
2.52648e-05
-3.71548e-06
2.42542e-05
-1.85789e-06
2.3234e-05
-5.01445e-07
2.24579e-05
1.41455e-06
2.19227e-05
2.94148e-06
2.17542e-05
4.88568e-06
2.15367e-05
7.33158e-06
2.15285e-05
9.19377e-06
2.19735e-05
1.09698e-05
2.25801e-05
1.26887e-05
2.34491e-05
1.37901e-05
2.45637e-05
1.35925e-05
2.55499e-05
1.32764e-05
2.64187e-05
1.24881e-05
2.72508e-05
1.02918e-05
2.78741e-05
8.56498e-06
2.84559e-05
6.85099e-06
2.89963e-05
3.97492e-06
2.93943e-05
1.68118e-06
2.94804e-05
1.83645e-08
2.95773e-05
-3.04221e-06
2.96159e-05
-5.49696e-06
2.92921e-05