/*--------------------------------*- C++ -*----------------------------------*\
| =========                 |                                                 |
| \\      /  F ield         | OpenFOAM: The Open Source CFD Toolbox           |
|  \\    /   O peration     | Version:  2.4.0                                 |
|   \\  /    A nd           | Web:      www.OpenFOAM.org                      |
|    \\/     M anipulation  |                                                 |
\*---------------------------------------------------------------------------*/
FoamFile
{
    version     2.0;
    format      ascii;
    class       volScalarField;
    location    "1.52";
    object      pMean;
}
// * * * * * * * * * * * * * * * * * * * * * * * * * * * * * * * * * * * * * //

dimensions      [0 2 -2 0 0 0 0];

internalField   nonuniform List<scalar> 
8800
(
87.0973
74.6425
67.2393
63.6711
61.7818
60.3407
59.1324
57.973
56.943
55.8989
54.9482
53.9469
53.0435
52.0848
51.2475
50.3573
49.6025
48.8009
48.1154
47.3235
83.986
74.2882
67.4076
63.785
61.8418
60.366
59.1399
57.9734
56.9409
55.8965
54.9453
53.9447
53.0408
52.0831
51.2455
50.3553
49.604
48.7955
48.1171
47.2801
82.0208
74.3645
68.0088
64.1607
62.0092
60.4455
59.1866
58.0061
56.9651
55.9135
54.9555
53.9494
53.0422
52.0813
51.2442
50.3486
49.6072
48.7848
48.1717
47.3182
80.4856
74.4268
68.5941
64.5842
62.1928
60.5338
59.2491
58.063
57.0134
55.9525
54.9826
53.9671
53.0528
52.0855
51.2462
50.343
49.6077
48.7844
48.2564
47.503
79.2373
74.4008
69.068
64.9897
62.361
60.602
59.2981
58.1214
57.0687
56.0045
55.0171
53.9947
53.0648
52.0963
51.2439
50.3441
49.5953
48.7974
48.2433
47.7529
78.2526
74.3041
69.4312
65.3356
62.5107
60.6453
59.3258
58.1666
57.1179
56.0544
55.051
54.022
53.0747
52.1058
51.2377
50.3434
49.5766
48.8081
48.283
48.1101
77.496
74.1874
69.6975
65.6149
62.645
60.6713
59.334
58.1983
57.1565
56.096
55.0786
54.0449
53.0806
52.1123
51.2286
50.3404
49.556
48.8136
48.356
48.4697
76.9427
74.0864
69.8783
65.8269
62.7624
60.6903
59.3268
58.222
57.1833
56.1299
55.0973
54.0653
53.0813
52.12
51.2165
50.3433
49.535
48.8183
48.3301
48.78
76.5822
74.0162
69.9923
65.9713
62.8466
60.7035
59.318
58.2379
57.2033
56.1547
55.1118
54.0805
53.0845
52.127
51.2128
50.3475
49.5273
48.8367
48.3969
49.065
76.4023
73.9853
70.0508
66.0487
62.8916
60.7137
59.3138
58.2492
57.2165
56.1719
55.1219
54.0924
53.0898
52.136
51.2164
50.3572
49.5365
48.8624
48.4607
49.1849
76.3949
73.9969
70.0522
66.0541
62.8911
60.7176
59.3115
58.2536
57.2166
56.1771
55.1226
54.0985
53.092
52.1448
51.2218
50.37
49.5475
48.8878
48.4986
49.2744
76.5631
74.0465
69.9962
65.983
62.8462
60.7126
59.3131
58.2481
57.2048
56.1674
55.1149
54.0969
53.0928
52.1508
51.2301
50.383
49.5636
48.9061
48.5214
49.302
76.9134
74.1297
69.8811
65.8408
62.7599
60.7036
59.3183
58.2372
57.1841
56.1489
55.1011
54.0916
53.0933
52.1587
51.2434
50.4019
49.5873
48.9276
48.5252
49.2676
77.4589
74.2366
69.699
65.6286
62.637
60.6863
59.3213
58.2161
57.1536
56.1193
55.0797
54.0792
53.0914
52.1649
51.2588
50.4246
49.6186
48.9554
48.5134
49.1536
78.2119
74.3534
69.434
65.3468
62.4983
60.6574
59.3137
58.1827
57.1135
56.0786
55.0515
54.0592
53.0867
52.1666
51.275
50.4483
49.6588
48.9932
48.5124
48.9549
79.1934
74.4515
69.0717
65.0001
62.3456
60.6123
59.2875
58.1373
57.0643
56.0295
55.0189
54.0342
53.0804
52.1644
51.291
50.4702
49.7062
49.0426
48.5412
48.692
80.4397
74.4788
68.5996
64.5972
62.1762
60.5445
59.2397
58.0808
57.0095
55.9795
54.9862
54.0097
53.0732
52.1599
51.3047
50.4867
49.7526
49.0901
48.6001
48.4162
81.9738
74.4156
68.0172
64.176
61.9926
60.4562
59.178
58.0246
56.9624
55.941
54.962
53.9929
53.0682
52.1579
51.3148
50.4993
49.7859
49.1266
48.659
48.2733
83.9376
74.3367
67.4181
63.8021
61.8258
60.3765
59.1316
57.9922
56.939
55.9243
54.9529
53.989
53.0688
52.1612
51.3214
50.5091
49.8015
49.1481
48.6558
48.1962
87.0476
74.6891
67.2495
63.6888
61.7665
60.3512
59.1242
57.9921
56.941
55.9273
54.9557
53.9917
53.0716
52.1636
51.3245
50.5125
49.8051
49.1538
48.6571
48.3161
47.3798
47.2878
47.0571
46.8107
46.6123
46.4665
46.3697
46.3059
46.2633
46.2341
46.2141
46.1935
46.171
46.1422
46.1065
46.0609
46.0072
45.9411
45.8669
45.7817
45.6921
45.6024
45.5191
45.4422
45.3769
45.3236
45.2826
45.2459
45.2084
45.161
45.102
45.0321
44.9591
44.8891
44.8266
44.7685
44.7131
44.6496
44.5776
44.4918
44.3996
44.3
44.2089
44.13
44.0758
44.0425
44.0347
44.0423
44.0634
44.086
44.1045
44.1056
44.0872
44.038
43.9649
43.8587
43.7329
43.5823
43.4206
43.2386
43.0451
42.8335
42.6174
42.3967
42.1914
42.0103
41.8702
41.7804
41.7484
41.7622
41.8204
41.9035
42.0091
42.115
42.225
42.3154
42.395
42.4398
42.4613
42.4432
42.4002
42.3246
42.2359
42.124
42.0156
41.9037
41.8085
41.7296
41.6736
41.6434
41.6425
41.6726
41.7345
41.8207
41.9328
42.061
42.2107
42.3684
42.5391
42.7071
42.8768
43.0325
43.1838
43.3039
43.4185
43.5022
43.5829
43.6415
43.7047
43.7459
43.787
43.8063
43.822
43.8146
43.8059
43.7832
43.7677
43.7463
43.7386
43.7282
43.733
43.7347
43.7544
43.7667
43.801
43.8199
43.8708
43.9058
43.98
44.0541
44.1675
44.2886
44.4377
44.5905
44.762
44.9326
45.1174
45.2932
45.4758
45.6439
45.8194
45.9862
46.1608
46.3288
46.5029
46.6675
46.8383
47.005
47.1752
47.3427
47.5114
47.6753
47.8425
47.999
48.1569
48.3097
48.4749
48.6282
48.8033
48.9696
49.163
49.3296
49.5283
49.6881
49.8749
50.0137
50.1852
50.2991
50.4455
50.5251
50.6665
50.7142
50.8642
50.9044
51.0777
51.1227
51.3317
51.3846
51.6283
51.7133
51.9841
52.1138
52.4251
52.6208
52.9723
53.2395
53.6293
53.937
54.3602
54.6748
55.0935
55.3452
55.6429
55.6395
55.5553
54.8404
53.6694
50.482
46.3807
26.0741
47.1564
47.124
47.045
46.8785
46.6869
46.5202
46.4065
46.3394
46.3074
46.2915
46.2833
46.2706
46.2528
46.2255
46.1911
46.1459
46.0931
46.0294
45.9594
45.8806
45.7989
45.7166
45.6406
45.5703
45.5106
45.4588
45.4168
45.3782
45.341
45.2972
45.2463
45.1857
45.1217
45.0562
44.9953
44.9347
44.8761
44.8108
44.7405
44.6586
44.5723
44.4811
44.3967
44.3222
44.2673
44.2305
44.2155
44.2148
44.2261
44.2377
44.2471
44.2405
44.2189
44.1696
44.0996
43.999
43.8789
43.7338
43.5756
43.3986
43.2112
43.0093
42.8031
42.5955
42.4005
42.2274
42.0898
41.9936
41.9484
41.9447
41.9831
42.0466
42.1336
42.2251
42.3196
42.4003
42.4672
42.5062
42.52
42.5001
42.4566
42.385
42.301
42.2021
42.1038
42.0075
41.9223
41.855
41.806
41.7807
41.7818
41.8123
41.8721
41.9546
42.0614
42.1843
42.3263
42.4756
42.6361
42.7954
42.9557
43.1035
43.2419
43.3523
43.4538
43.5294
43.5974
43.6456
43.6916
43.7193
43.7412
43.7452
43.7404
43.717
43.6867
43.6497
43.6146
43.5803
43.554
43.5271
43.5152
43.5007
43.5073
43.5087
43.5344
43.5495
43.5928
43.6273
43.692
43.7595
43.8609
43.9715
44.1102
44.253
44.4154
44.574
44.7481
44.9124
45.0827
45.239
45.4024
45.5565
45.7167
45.8678
46.0276
46.1716
46.3292
46.4751
46.6335
46.7836
46.9413
47.0904
47.2517
47.3935
47.5506
47.691
47.8603
48.0032
48.1839
48.3442
48.5398
48.6989
48.898
49.0469
49.2299
49.3575
49.5212
49.6156
49.7535
49.8062
49.9383
49.9575
50.0969
50.1076
50.2734
50.2902
50.488
50.5206
50.7462
50.8156
51.0608
51.1735
51.4439
51.6157
51.9219
52.134
52.479
52.6919
53.0486
53.2216
53.5102
53.5343
53.6146
53.2121
52.7455
51.1763
49.4814
43.8104
37.9843
19.2862
47.1277
47.1374
47.1581
47.0457
46.8331
46.6055
46.4376
46.3443
46.3165
46.32
46.3341
46.3385
46.3315
46.3078
46.2736
46.2262
46.1718
46.1077
46.0396
45.9652
45.8907
45.8158
45.7476
45.684
45.6297
45.581
45.5405
45.5021
45.4665
45.4259
45.3819
45.3291
45.2737
45.2136
45.1557
45.0951
45.0354
44.97
44.902
44.826
44.7474
44.6657
44.5893
44.5207
44.4673
44.428
44.4064
44.3959
44.3963
44.3962
44.3949
44.3795
44.3516
44.3001
44.2299
44.1332
44.017
43.8779
43.7238
43.5535
43.3731
43.1826
42.9895
42.7975
42.6172
42.4557
42.3249
42.228
42.1734
42.1564
42.1772
42.2238
42.2929
42.37
42.4502
42.5197
42.5746
42.6057
42.6118
42.5902
42.5459
42.4811
42.4026
42.3163
42.2273
42.1434
42.0682
42.0087
41.9645
41.9409
41.9416
41.9704
42.0251
42.1034
42.2039
42.3221
42.4554
42.5978
42.7483
42.8989
43.0487
43.1884
43.314
43.4163
43.5073
43.5769
43.6342
43.6742
43.7061
43.7235
43.7296
43.7219
43.6991
43.6623
43.615
43.5653
43.5161
43.4677
43.4276
43.3853
43.3623
43.3337
43.3318
43.3251
43.3457
43.3616
43.3998
43.4367
43.4945
43.5598
43.6512
43.7531
43.8816
44.0146
44.1666
44.314
44.4749
44.6275
44.7846
44.9288
45.0804
45.2232
45.3726
45.5122
45.6609
45.7919
45.9395
46.0697
46.2187
46.3487
46.493
46.6229
46.7735
46.8974
47.0533
47.1825
47.3509
47.4895
47.675
47.8374
48.0332
48.189
48.3879
48.5242
48.7047
48.8148
48.9711
49.0381
49.1692
49.1971
49.3198
49.3138
49.45
49.4325
49.5965
49.5895
49.767
49.7876
49.9757
50.0357
50.2336
50.3301
50.5571
50.6835
50.9547
51.0874
51.3856
51.4885
51.7589
51.7662
51.9343
51.6717
51.5904
50.6511
50.0552
47.3387
45.4695
38.4251
31.3849
18.6649
47.0454
47.0629
47.1918
47.1044
46.8657
46.5988
46.4045
46.3093
46.3012
46.3355
46.3824
46.4138
46.4245
46.4086
46.3746
46.3232
46.2638
46.196
46.1273
46.0552
45.9862
45.9181
45.8574
45.8009
45.7531
45.709
45.6719
45.6356
45.6021
45.5647
45.5256
45.4792
45.4301
45.375
45.3197
45.2605
45.2016
45.1381
45.0737
45.0044
44.9344
44.8625
44.7951
44.7325
44.6813
44.6395
44.6116
44.5914
44.5798
44.5674
44.554
44.5297
44.4948
44.441
44.3702
44.2772
44.1656
44.0341
43.8878
43.7275
43.5584
43.3821
43.2048
43.0301
42.8662
42.7185
42.5963
42.5019
42.4418
42.4137
42.4192
42.4494
42.5012
42.5627
42.6279
42.6844
42.7275
42.7505
42.7507
42.7285
42.6855
42.6268
42.5547
42.4781
42.3986
42.3241
42.2566
42.2005
42.1567
42.1311
42.1288
42.1535
42.203
42.2758
42.3709
42.4827
42.6084
42.7424
42.8843
43.0253
43.1648
43.2947
43.4093
43.5026
43.5845
43.6486
43.6984
43.7326
43.7552
43.765
43.7601
43.7411
43.7035
43.6535
43.5942
43.5321
43.4747
43.4147
43.3669
43.3143
43.283
43.2441
43.2364
43.2241
43.2431
43.2584
43.296
43.3321
43.3907
43.4556
43.5448
43.6422
43.7609
43.8854
44.0259
44.163
44.3113
44.4518
44.5959
44.7282
44.8702
45.0027
45.1448
45.2772
45.4185
45.545
45.6857
45.8057
45.9441
46.0536
46.1844
46.289
46.4275
46.5289
46.6809
46.8021
46.97
47.1076
47.3011
47.4585
47.6585
47.805
48.0106
48.1219
48.3112
48.3913
48.551
48.5819
48.7131
48.712
48.8319
48.8023
48.9433
48.9117
49.0611
49.0489
49.1852
49.203
49.3395
49.3856
49.538
49.6051
49.795
49.8612
50.0904
50.1333
50.3774
50.336
50.5709
50.3188
50.478
49.779
49.7271
48.0607
47.465
43.8699
41.4405
34.8083
27.3061
18.7939
47.9677
47.8326
47.4302
47.0114
46.6492
46.3783
46.2368
46.2064
46.2546
46.337
46.4256
46.4907
46.5237
46.519
46.487
46.4319
46.3663
46.293
46.2209
46.1492
46.0839
46.0222
45.969
45.9205
45.8799
45.8423
45.8101
45.7778
45.7475
45.7137
45.6785
45.6373
45.5934
45.5437
45.4925
45.4371
45.3812
45.3217
45.2618
45.1989
45.1365
45.0728
45.0124
44.9545
44.9043
44.8597
44.8246
44.7948
44.7713
44.7478
44.7235
44.6916
44.6506
44.5951
44.5248
44.4368
44.3324
44.2116
44.0774
43.9313
43.7777
43.6182
43.4587
43.3019
43.1551
43.0218
42.9095
42.82
42.7583
42.7229
42.7157
42.7314
42.7665
42.8118
42.8607
42.9035
42.9347
42.9499
42.9458
42.9234
42.8828
42.8286
42.7631
42.693
42.6205
42.5506
42.4861
42.4284
42.3809
42.3497
42.3423
42.36
42.404
42.4705
42.5608
42.6665
42.7853
42.913
43.0471
43.18
43.3111
43.4318
43.5372
43.6226
43.6972
43.756
43.7991
43.8294
43.8437
43.8464
43.8317
43.8011
43.7516
43.6889
43.6216
43.5509
43.4897
43.4241
43.3712
43.3148
43.2773
43.2377
43.2268
43.2166
43.2331
43.2498
43.2868
43.3238
43.3879
43.4524
43.5465
43.6401
43.755
43.8698
44.0018
44.1271
44.2674
44.3937
44.5315
44.6522
44.7894
44.9106
45.0507
45.1773
45.3187
45.4433
45.58
45.691
45.8218
45.9085
46.0295
46.1054
46.2305
46.3109
46.4558
46.5644
46.737
46.8645
47.07
47.2116
47.4214
47.554
47.7685
47.8545
48.0554
48.1002
48.2644
48.2608
48.3921
48.3613
48.4795
48.4397
48.5769
48.5541
48.6807
48.6702
48.7769
48.7745
48.8778
48.8842
49.0155
49.022
49.1979
49.1709
49.3895
49.2808
49.5306
49.2474
49.5114
48.9088
49.0912
47.9387
47.8257
45.6959
44.7069
41.1022
37.8941
32.6316
25.5696
19.2711
48.6753
48.4704
47.6911
46.9634
46.4309
46.1253
46.0347
46.0859
46.2112
46.3573
46.4931
46.5908
46.642
46.6454
46.6128
46.5531
46.4798
46.3999
46.3228
46.25
46.1864
46.13
46.0832
46.0425
46.0092
45.9787
45.9521
45.9251
45.8986
45.869
45.8374
45.801
45.7616
45.7173
45.6708
45.6206
45.5692
45.5149
45.4602
45.4036
45.3472
45.2899
45.2344
45.1802
45.1302
45.0837
45.0428
45.0054
44.9717
44.9386
44.9044
44.8651
44.8183
44.761
44.6918
44.6094
44.5136
44.4047
44.2842
44.1538
44.0168
43.8758
43.7352
43.5975
43.4685
43.3507
43.2499
43.1676
43.1077
43.0693
43.0545
43.0605
43.0825
43.1137
43.1473
43.1772
43.1974
43.2049
43.1966
43.1732
43.1337
43.0817
43.0194
42.9512
42.8807
42.8114
42.7465
42.6855
42.6325
42.592
42.5777
42.5876
42.6248
42.6851
42.7707
42.8708
42.9832
43.1058
43.2337
43.3611
43.4856
43.601
43.7001
43.7809
43.85
43.9032
43.9406
43.9659
43.9728
43.9661
43.9411
43.8976
43.8376
43.7635
43.6922
43.6186
43.5564
43.4913
43.4364
43.3819
43.344
43.3127
43.3041
43.3023
43.3187
43.3402
43.3756
43.4201
43.4878
43.5619
43.6615
43.7552
43.8706
43.9746
44.0999
44.2128
44.3473
44.4622
44.5979
44.7113
44.8456
44.9607
45.1028
45.2244
45.3723
45.4954
45.6316
45.7356
45.8578
45.9228
46.0282
46.081
46.1879
46.2458
46.387
46.4744
46.6512
46.764
46.9784
47.1007
47.3262
47.4364
47.6693
47.7251
47.9398
47.9535
48.1223
48.078
48.2173
48.1543
48.2827
48.2355
48.3775
48.353
48.484
48.4479
48.5587
48.5073
48.6055
48.5374
48.6745
48.5917
48.7623
48.6207
48.8235
48.562
48.7805
48.3107
48.485
47.6647
47.6519
46.2961
45.8394
43.7034
42.2171
39.1221
35.6313
31.6671
25.5973
20.3668
49.3089
49.0309
47.9009
46.8674
46.161
45.8245
45.8011
45.9558
46.1768
46.396
46.5792
46.7055
46.7692
46.7748
46.7368
46.6689
46.5862
46.499
46.4166
46.3425
46.28
46.2281
46.1869
46.1537
46.1271
46.104
46.0833
46.062
46.0398
46.0144
45.9861
45.9536
45.9177
45.8781
45.8358
45.7907
45.7441
45.6955
45.6459
45.5951
45.5439
45.4921
45.4406
45.3896
45.3403
45.2929
45.248
45.2054
45.1646
45.124
45.082
45.0366
44.9855
44.9273
44.8601
44.7833
44.6961
44.5987
44.4919
44.3774
44.2574
44.1347
44.0122
43.8932
43.7809
43.6784
43.5891
43.5155
43.4602
43.4243
43.408
43.4095
43.4241
43.445
43.4662
43.4843
43.4949
43.4962
43.4843
43.4586
43.4185
43.3666
43.3038
43.2336
43.1615
43.0906
43.0233
42.9569
42.8964
42.846
42.8222
42.825
42.8569
42.9138
42.9963
43.0932
43.2023
43.3221
43.4452
43.5703
43.6905
43.8024
43.8972
43.9767
44.0384
44.0851
44.1168
44.1346
44.1334
44.1156
44.0817
44.0269
43.9586
43.8766
43.8022
43.729
43.6681
43.6085
43.5559
43.5103
43.4814
43.4667
43.4689
43.4809
43.5033
43.5314
43.5688
43.6201
43.6922
43.779
43.8818
43.9849
44.0971
44.2001
44.3174
44.4256
44.5538
44.6672
44.8011
44.9148
45.0482
45.1663
45.3081
45.4301
45.5768
45.7029
45.8391
45.9378
46.048
46.098
46.1789
46.2187
46.302
46.3354
46.471
46.5391
46.7048
46.8148
47.0311
47.1353
47.3827
47.4742
47.7139
47.7572
47.969
47.9728
48.1372
48.0727
48.201
48.1293
48.2556
48.2229
48.3596
48.3439
48.4677
48.4259
48.5222
48.4398
48.5053
48.3917
48.4788
48.3422
48.432
48.221
48.3247
47.9751
48.0727
47.4946
47.4852
46.5763
46.3353
44.937
44.2153
42.2373
40.5478
38.0825
34.7555
31.6737
26.6614
22.0178
50.3104
49.8757
48.1599
46.7143
45.8215
45.4687
45.5313
45.8114
46.1457
46.4445
46.6729
46.8221
46.8928
46.8961
46.8489
46.7707
46.6781
46.5847
46.4986
46.4246
46.3641
46.317
46.2812
46.2546
46.2343
46.2179
46.2025
46.1865
46.1682
46.1468
46.1215
46.0925
46.0595
46.0235
45.9846
45.9436
45.9007
45.8565
45.8108
45.7644
45.7168
45.6689
45.6203
45.572
45.5237
45.4764
45.4296
45.3842
45.3387
45.2935
45.2466
45.198
45.1452
45.0881
45.0243
44.9542
44.8758
44.7903
44.697
44.598
44.4939
44.3878
44.2814
44.1787
44.0812
43.993
43.9153
43.852
43.8036
43.773
43.7578
43.758
43.7673
43.7809
43.7926
43.8018
43.8047
43.8017
43.7873
43.7596
43.7176
43.6638
43.5979
43.5242
43.4491
43.3748
43.3048
43.2334
43.1654
43.108
43.0767
43.0758
43.1052
43.1625
43.2421
43.3372
43.4442
43.5619
43.6834
43.8077
43.9274
44.0392
44.1308
44.2074
44.2604
44.3018
44.3258
44.3327
44.3209
44.2913
44.2488
44.1875
44.1128
44.0277
43.9509
43.8828
43.8272
43.7777
43.7351
43.7068
43.6955
43.704
43.724
43.7548
43.7884
43.8265
43.8707
43.9305
44.01
44.1049
44.2119
44.3206
44.4304
44.5402
44.6533
44.7639
44.8883
45.0069
45.1404
45.2607
45.3944
45.5187
45.6593
45.7842
45.9335
46.0572
46.197
46.2893
46.3951
46.4258
46.4846
46.5182
46.5797
46.5987
46.7244
46.7701
46.9257
47.0218
47.2413
47.3313
47.5852
47.6805
47.9155
47.9703
48.174
48.1885
48.3423
48.2665
48.3695
48.3051
48.413
48.4039
48.5363
48.5364
48.6533
48.6127
48.6993
48.581
48.6092
48.4566
48.4812
48.2787
48.2794
47.9916
48.0049
47.5583
47.575
46.8782
46.7552
45.7768
45.4092
44.0549
43.2299
41.509
39.7901
37.8602
34.8686
32.2509
28.1078
23.9094
50.7431
50.2754
48.3494
46.6954
45.6759
45.2858
45.3815
45.7346
46.1436
46.5026
46.7695
46.939
47.0145
47.0126
46.9541
46.8648
46.7631
46.6645
46.5761
46.5032
46.4454
46.4029
46.3724
46.352
46.3373
46.3264
46.3156
46.3041
46.289
46.2709
46.248
46.2218
46.1911
46.158
46.1215
46.0837
46.0434
46.0022
45.9591
45.9155
45.8702
45.8249
45.7781
45.7315
45.6839
45.637
45.5891
45.542
45.4938
45.4463
45.3974
45.3481
45.2956
45.2412
45.1819
45.1188
45.0494
44.9752
44.8942
44.8092
44.7198
44.6293
44.538
44.4505
44.3674
44.2933
44.2282
44.176
44.1358
44.1111
44.0987
44.0986
44.1033
44.1107
44.1147
44.1164
44.1139
44.1082
44.0916
44.0632
44.0206
43.9656
43.8965
43.8183
43.7375
43.6592
43.5858
43.5093
43.4397
43.3787
43.346
43.3455
43.3772
43.4359
43.5138
43.6053
43.7112
43.8284
43.952
44.0769
44.1992
44.3148
44.4072
44.4795
44.5261
44.5599
44.5723
44.5646
44.5382
44.4972
44.4476
44.381
44.3038
44.221
44.1479
44.0894
44.0451
44.0101
43.9859
43.9798
43.9937
44.0293
44.0727
44.127
44.1766
44.2293
44.2845
44.3527
44.44
44.5397
44.6509
44.7624
44.8733
44.9911
45.104
45.2189
45.3447
45.4644
45.6016
45.7266
45.8623
45.9966
46.1408
46.2707
46.427
46.5483
46.7015
46.7822
46.9007
46.8973
46.9514
46.9694
47.0108
47.025
47.1439
47.1591
47.3209
47.395
47.6232
47.7016
47.9612
48.0566
48.2921
48.3437
48.5697
48.5847
48.7514
48.6292
48.7185
48.6738
48.7765
48.7847
48.9093
48.9317
49.0456
49.0106
49.0979
48.9183
48.9294
48.7302
48.7116
48.4235
48.3784
47.9868
47.9239
47.4375
47.3732
46.674
46.4829
45.4538
45.0302
43.7551
42.8863
41.4502
39.7705
38.1847
35.5515
33.1447
29.6383
25.8593
50.9683
50.532
48.5448
46.7956
45.6941
45.2486
45.3328
45.7145
46.1664
46.5648
46.8591
47.0432
47.1216
47.1147
47.0467
46.948
46.8391
46.737
46.6479
46.5769
46.5225
46.4849
46.4595
46.4445
46.4347
46.4282
46.421
46.4125
46.3999
46.3841
46.3632
46.3391
46.3104
46.2795
46.2452
46.2094
46.1711
46.132
46.0908
46.0491
46.0056
45.9618
45.9163
45.8707
45.8236
45.7768
45.7287
45.6813
45.6326
45.5849
45.5359
45.4874
45.4371
45.3866
45.3329
45.2774
45.2171
45.1532
45.0837
45.0117
44.9358
44.8594
44.7823
44.7094
44.6404
44.5798
44.5276
44.487
44.456
44.4385
44.4304
44.43
44.4309
44.4337
44.4329
44.429
44.4219
44.4141
44.3975
44.3703
44.3283
44.2721
44.2009
44.1199
44.0344
43.9498
43.8727
43.7925
43.7245
43.6637
43.6348
43.6369
43.6761
43.7378
43.8167
43.9053
44.0133
44.131
44.2563
44.3817
44.5102
44.631
44.727
44.7939
44.8334
44.8549
44.8528
44.829
44.7887
44.7376
44.6825
44.6128
44.5381
44.4618
44.3986
44.355
44.3281
44.3148
44.3158
44.337
44.3816
44.446
44.5192
44.599
44.6698
44.7407
44.8098
44.8855
44.9778
45.0776
45.1914
45.3016
45.4187
45.5402
45.6595
45.7785
45.9103
46.0276
46.1733
46.3012
46.4441
46.5866
46.7404
46.8761
47.0493
47.163
47.3453
47.4099
47.5494
47.4967
47.5724
47.5561
47.6072
47.6029
47.7179
47.7015
47.8859
47.9369
48.187
48.2332
48.5305
48.6018
48.8933
48.8824
49.1754
49.1698
49.3858
49.1579
49.2758
49.2165
49.3455
49.3659
49.5107
49.5314
49.6577
49.6088
49.7111
49.44
49.4741
49.2261
49.18
48.7898
48.6974
48.2259
48.1556
47.6763
47.5904
46.8065
46.6037
45.5207
45.0756
43.9104
43.0065
41.8125
40.2403
38.8135
36.4862
34.192
31.1294
27.7471
51.1053
50.6854
48.6778
46.8863
45.7474
45.2732
45.351
45.7455
46.2185
46.6358
46.9424
47.1318
47.2085
47.1952
47.1199
47.0157
46.9041
46.802
46.715
46.6474
46.5975
46.5647
46.5442
46.5335
46.5272
46.5236
46.5185
46.5116
46.5004
46.4859
46.4665
46.4439
46.417
46.3878
46.3553
46.3213
46.2847
46.2473
46.2075
46.1672
46.1248
46.082
46.0375
45.9929
45.9466
45.9006
45.8532
45.8064
45.7589
45.7125
45.6653
45.6191
45.5721
45.5259
45.4784
45.4305
45.3793
45.326
45.2686
45.2094
45.147
45.0844
45.0219
44.9635
44.9079
44.8601
44.8208
44.792
44.7706
44.7599
44.7553
44.7545
44.7529
44.7524
44.7478
44.7408
44.7319
44.7235
44.7082
44.6841
44.6447
44.5889
44.5171
44.4335
44.3455
44.2563
44.1772
44.0965
44.0338
43.9764
43.9593
43.9654
44.0151
44.0802
44.1629
44.2489
44.3627
44.4807
44.6083
44.7312
44.8668
44.9898
45.088
45.1469
45.1764
45.1803
45.1626
45.1232
45.0746
45.0177
44.9604
44.8914
44.8267
44.7602
44.7158
44.6888
44.689
44.6983
44.7342
44.7861
44.8679
44.9602
45.0676
45.1689
45.2691
45.357
45.4462
45.5288
45.6259
45.719
45.8351
45.9362
46.0621
46.1795
46.3122
46.4333
46.5745
46.6939
46.8506
46.9819
47.1387
47.2869
47.4594
47.595
47.7919
47.896
48.1163
48.1555
48.3212
48.2098
48.336
48.2787
48.3687
48.3214
48.4581
48.4175
48.6359
48.6486
48.9343
48.9366
49.28
49.33
49.6983
49.628
50.0183
49.9554
50.2142
49.8798
50.0834
49.9539
50.1572
50.1358
50.331
50.3384
50.4823
50.4394
50.5472
50.1588
50.2007
49.9297
49.7981
49.3865
49.25
48.8235
48.7705
48.1923
48.058
47.1859
47.0579
45.926
45.4506
44.4057
43.4839
42.4365
41.0165
39.6122
37.5008
35.3057
32.5582
29.5237
51.1553
50.7316
48.7214
46.9369
45.811
45.3523
45.4454
45.8485
46.3226
46.7342
47.0322
47.2111
47.2772
47.2547
47.1743
47.0687
46.9594
46.8612
46.7796
46.7175
46.6731
46.645
46.6285
46.6205
46.6163
46.6137
46.6094
46.6031
46.5926
46.5788
46.5605
46.5391
46.5139
46.4862
46.4555
46.423
46.388
46.352
46.3138
46.2748
46.2338
46.1919
46.1484
46.1045
46.0593
46.0142
45.9685
45.9236
45.8786
45.8347
45.7908
45.748
45.7055
45.6646
45.6233
45.5827
45.5407
45.4981
45.4531
45.4067
45.358
45.3093
45.262
45.2181
45.177
45.1424
45.1163
45.0984
45.0851
45.0789
45.0769
45.076
45.0727
45.0675
45.0579
45.0481
45.0391
45.0327
45.0222
45.004
44.9703
44.9194
44.8503
44.767
44.6776
44.5865
44.507
44.4304
44.3756
44.3291
44.3292
44.3402
44.4016
44.4679
44.5543
44.6346
44.755
44.8714
45.0013
45.1195
45.2633
45.3855
45.4871
45.5362
45.5538
45.5318
45.5029
45.4462
45.397
45.3382
45.2866
45.2228
45.1754
45.1241
45.1085
45.1021
45.1378
45.1728
45.2515
45.3333
45.4563
45.5764
45.7221
45.8437
45.9716
46.0743
46.1878
46.2764
46.3825
46.4731
46.5849
46.6794
46.8103
46.9232
47.0656
47.1937
47.3407
47.4721
47.6373
47.7737
47.9398
48.0935
48.2808
48.4269
48.6351
48.7414
48.9811
49.0231
49.1706
49.0343
49.2339
49.1116
49.2551
49.1544
49.3335
49.2726
49.5274
49.5329
49.8315
49.8109
50.2131
50.2472
50.6624
50.5765
51.0158
50.933
51.1746
50.7884
51.0324
50.8696
51.1658
51.133
51.3637
51.3429
51.5054
51.491
51.4848
51.0898
51.1156
50.745
50.6122
50.236
50.0591
49.6109
49.4637
48.8781
48.7477
47.9028
47.6442
46.6031
46.1141
45.1605
44.275
43.2316
41.9296
40.4886
38.544
36.4557
33.9432
31.1955
51.1012
50.667
48.6878
46.966
45.9051
45.5079
45.6369
46.0389
46.4881
46.8657
47.1313
47.2816
47.3264
47.2921
47.2093
47.1075
47.0057
46.9162
46.8434
46.789
46.7512
46.7277
46.7141
46.7074
46.7035
46.7005
46.6959
46.689
46.6786
46.665
46.6477
46.6274
46.6037
46.5775
46.5486
46.5179
46.485
46.4507
46.4145
46.3769
46.3374
46.2967
46.2545
46.2118
46.1685
46.1255
46.0827
46.0409
45.9995
45.9592
45.9196
45.8815
45.8445
45.8097
45.776
45.7432
45.7104
45.6777
45.6448
45.6116
45.5767
45.5418
45.509
45.4794
45.453
45.433
45.42
45.4119
45.4065
45.4053
45.4055
45.4034
45.3972
45.3874
45.3744
45.3636
45.3559
45.3521
45.3482
45.3378
45.3127
45.2704
45.2085
45.129
45.0407
44.9527
44.8759
44.8059
44.7578
44.7263
44.7421
44.762
44.8319
44.8957
44.9802
45.0582
45.1875
45.2998
45.4295
45.5433
45.6971
45.8159
45.9222
45.9584
45.9649
45.919
45.8792
45.8104
45.7708
45.7112
45.6729
45.6185
45.5952
45.567
45.5871
45.6071
45.6834
45.7521
45.8771
45.9916
46.1574
46.3021
46.4799
46.6183
46.7749
46.8906
47.0289
47.1259
47.2439
47.3304
47.443
47.5345
47.6684
47.7865
47.9383
48.0744
48.2277
48.3701
48.5347
48.6777
48.8545
49.0123
49.2044
49.3695
49.5784
49.7144
49.9341
50.0163
50.1121
49.9938
50.2135
50.0552
50.2256
50.1306
50.3589
50.2876
50.5501
50.5784
50.8411
50.8463
51.2846
51.3575
51.7911
51.7435
52.1372
52.0892
52.2289
51.8553
52.1468
51.9236
52.3303
52.2782
52.5391
52.533
52.6764
52.6355
52.596
52.2116
52.1767
51.7236
51.631
51.2079
50.9546
50.6136
50.3659
49.9743
49.54
48.8119
48.4181
47.496
47.0043
46.0948
45.2672
44.1487
42.934
41.4193
39.6259
37.6314
35.3053
32.7905
50.8937
50.4544
48.5783
47.0004
46.0657
45.7681
45.9345
46.3116
46.7044
47.0194
47.2293
47.335
47.3515
47.3054
47.2244
47.1319
47.043
46.9666
46.9057
46.8608
46.8299
46.8102
46.7982
46.7911
46.7859
46.7811
46.7749
46.7667
46.7557
46.7421
46.7253
46.7058
46.6835
46.6589
46.6321
46.6036
46.5731
46.5411
46.5073
46.4719
46.4345
46.3956
46.3551
46.3144
46.2743
46.2353
46.1967
46.1588
46.1217
46.0862
46.0518
46.0192
45.9888
45.9611
45.9352
45.9114
45.8892
45.8689
45.8492
45.8283
45.8061
45.7854
45.7673
45.7521
45.7411
45.7353
45.7341
45.7351
45.7375
45.7419
45.7452
45.7441
45.7367
45.723
45.7064
45.6946
45.6892
45.6906
45.6942
45.6935
45.6803
45.65
45.598
45.5266
45.4425
45.3614
45.2869
45.2259
45.1856
45.1716
45.1939
45.2178
45.2886
45.3499
45.431
45.5216
45.6612
45.7736
45.9011
46.0174
46.1723
46.2817
46.386
46.414
46.4152
46.355
46.3111
46.2403
46.2112
46.159
46.1399
46.0996
46.1027
46.1017
46.1577
46.2111
46.33
46.437
46.6057
46.7568
46.9583
47.1284
47.3308
47.4857
47.6643
47.7926
47.9506
48.0617
48.1917
48.2811
48.3982
48.4949
48.6369
48.761
48.9253
49.0725
49.2321
49.3843
49.5354
49.6848
49.8575
50.0284
50.2203
50.4212
50.6134
50.7888
50.9807
51.0979
51.145
51.1324
51.2804
51.1232
51.2946
51.2473
51.4673
51.4465
51.682
51.7713
51.9408
52.0358
52.4654
52.5881
53.0134
53.0725
53.3582
53.3232
53.4346
53.1053
53.3753
53.2433
53.605
53.5303
53.812
53.8489
53.9567
53.8982
53.7395
53.373
53.3481
52.8559
52.6849
52.3167
52.0076
51.8428
51.3738
51.1854
50.4895
50.0295
49.3342
48.5744
48.0183
47.1818
46.3894
45.1767
44.015
42.4092
40.7461
38.8128
36.6455
34.3114
50.4271
50.0121
48.4015
47.0954
46.3603
46.1695
46.3408
46.6521
46.9528
47.1786
47.3148
47.3678
47.3555
47.3012
47.2265
47.1479
47.0755
47.0146
46.9666
46.9309
46.9054
46.8879
46.8755
46.8664
46.8586
46.851
46.8426
46.8328
46.8211
46.8072
46.7908
46.7722
46.7513
46.7284
46.7038
46.6776
46.6499
46.6208
46.5901
46.5574
46.5227
46.4867
46.45
46.413
46.3766
46.3421
46.3096
46.2781
46.2469
46.2163
46.1874
46.1614
46.1391
46.1198
46.1028
46.0891
46.0784
46.0702
46.064
46.058
46.0513
46.0445
46.04
46.0389
46.0416
46.0477
46.0567
46.0668
46.0772
46.0873
46.0941
46.094
46.0857
46.0695
46.0498
46.0359
46.0326
46.0395
46.0516
46.0614
46.0615
46.0458
46.0066
45.946
45.8715
45.8019
45.7312
45.6833
45.6497
45.6478
45.6708
45.7024
45.77
45.8258
45.9065
46.0212
46.1676
46.2832
46.4059
46.5345
46.6777
46.7803
46.8764
46.9038
46.9023
46.8492
46.8022
46.743
46.7251
46.6936
46.6956
46.6809
46.7074
46.7373
46.8246
46.9222
47.0743
47.2263
47.4231
47.6142
47.8329
48.0296
48.2455
48.4225
48.616
48.7632
48.9326
49.0594
49.2058
49.3028
49.4347
49.5465
49.6953
49.8356
50.0037
50.1571
50.3194
50.4697
50.6074
50.7648
50.9334
51.1202
51.3238
51.5633
51.7389
51.9562
52.1016
52.2354
52.3004
52.362
52.4081
52.3764
52.4725
52.5109
52.6986
52.7116
52.8914
53.0273
53.165
53.3688
53.6773
53.9603
54.3251
54.4271
54.5998
54.5864
54.6675
54.4825
54.7392
54.7253
54.9413
54.9439
55.1328
55.2184
55.2098
55.1287
54.9441
54.7087
54.5723
54.1201
53.8861
53.6111
53.2046
53.1444
52.5649
52.4431
51.5058
51.3299
50.3965
49.8185
49.1296
48.4225
47.5439
46.3055
45.1696
43.4847
41.9041
40.0012
37.978
35.7739
49.6659
49.3445
48.2101
47.3025
46.8083
46.6951
46.815
47.0119
47.1902
47.3127
47.3732
47.3791
47.3453
47.2889
47.2241
47.1609
47.1048
47.058
47.0206
46.9915
46.9691
46.9516
46.9375
46.9257
46.9151
46.9049
46.8945
46.8835
46.8712
46.8573
46.8414
46.8235
46.8039
46.7826
46.76
46.7364
46.7123
46.687
46.6597
46.6306
46.5998
46.5676
46.5351
46.5037
46.4733
46.4444
46.418
46.394
46.371
46.3478
46.3258
46.3083
46.2959
46.2871
46.2808
46.2779
46.2789
46.2831
46.2886
46.2936
46.2994
46.3071
46.3169
46.3291
46.3437
46.3595
46.3762
46.393
46.4095
46.4245
46.4339
46.4352
46.4269
46.4098
46.3887
46.3738
46.3725
46.3836
46.401
46.4179
46.4279
46.4258
46.4022
46.3565
46.2958
46.2419
46.1762
46.149
46.1247
46.133
46.1539
46.2
46.2585
46.3204
46.4098
46.5385
46.6768
46.8003
46.927
47.0716
47.1991
47.3034
47.3842
47.421
47.419
47.3884
47.3444
47.3134
47.3035
47.3073
47.3261
47.3515
47.3962
47.4676
47.5757
47.7209
47.8963
48.0905
48.3001
48.5223
48.7404
48.9649
49.1786
49.3776
49.5738
49.7515
49.9276
50.0915
50.2428
50.3715
50.5045
50.6442
50.7916
50.956
51.1168
51.2894
51.4413
51.5978
51.7296
51.9014
52.0627
52.2736
52.4798
52.7357
52.9128
53.1835
53.2608
53.4532
53.4685
53.5869
53.6088
53.6869
53.7227
53.8504
53.9143
54.0014
54.1375
54.318
54.3999
54.7566
54.9708
55.409
55.5389
55.7195
55.7945
55.8761
55.9514
55.9945
56.1203
56.1698
56.2514
56.3829
56.4337
56.5534
56.4587
56.4202
56.1062
56.1033
55.7197
55.52
55.1245
54.9624
54.5098
54.5283
53.7214
53.5693
52.6248
52.565
51.4668
51.1619
50.2518
49.6605
48.6115
47.4922
46.3098
44.6012
43.0564
41.187
39.2754
37.1513
48.8312
48.6639
48.1109
47.6395
47.3582
47.2541
47.2636
47.3184
47.3721
47.4025
47.4026
47.3758
47.3307
47.277
47.2226
47.1725
47.1287
47.0917
47.0609
47.0351
47.0134
46.9949
46.9789
46.9647
46.9519
46.94
46.9283
46.9163
46.9036
46.8898
46.8742
46.8569
46.8384
46.8192
46.7994
46.7784
46.7567
46.7349
46.7123
46.6874
46.6607
46.6341
46.608
46.5822
46.5579
46.5372
46.5198
46.5043
46.4896
46.4755
46.4641
46.4574
46.4552
46.4564
46.4611
46.4695
46.481
46.4949
46.5107
46.5272
46.5431
46.5591
46.5769
46.5972
46.6189
46.6406
46.6622
46.6834
46.7035
46.7199
46.7298
46.733
46.7289
46.7163
46.6981
46.6845
46.684
46.6958
46.7162
46.7376
46.7547
46.763
46.7525
46.7227
46.681
46.6525
46.6041
46.5978
46.5806
46.6032
46.6283
46.6941
46.7427
46.8214
46.9052