/*--------------------------------*- C++ -*----------------------------------*\
| =========                 |                                                 |
| \\      /  F ield         | OpenFOAM: The Open Source CFD Toolbox           |
|  \\    /   O peration     | Version:  2.4.0                                 |
|   \\  /    A nd           | Web:      www.OpenFOAM.org                      |
|    \\/     M anipulation  |                                                 |
\*---------------------------------------------------------------------------*/
FoamFile
{
    version     2.0;
    format      ascii;
    class       volSymmTensorField;
    location    "1.52";
    object      UPrime2Mean;
}
// * * * * * * * * * * * * * * * * * * * * * * * * * * * * * * * * * * * * * //

dimensions      [0 2 -2 0 0 0 0];

internalField   nonuniform List<symmTensor> 
8800
(
(0.00113973 6.03006e-05 0 0.000127129 0 0)
(0.0212359 -0.000824528 0 4.81017e-05 0 0)
(0.0416759 -7.65955e-05 0 1.31941e-05 0 0)
(0.0527237 0.000106966 0 7.33319e-06 0 0)
(0.0596872 7.19846e-05 0 6.18957e-06 0 0)
(0.0671686 2.65297e-05 0 7.91849e-06 0 0)
(0.0706633 -8.91323e-06 0 9.22815e-06 0 0)
(0.0745416 -6.25364e-05 0 1.19608e-05 0 0)
(0.0773726 -7.92706e-05 0 1.26836e-05 0 0)
(0.0791177 -0.000117261 0 1.56881e-05 0 0)
(0.0821661 -0.0001267 0 1.57716e-05 0 0)
(0.0828667 -0.000169335 0 1.95472e-05 0 0)
(0.086183 -0.000186748 0 1.89409e-05 0 0)
(0.0869447 -0.000223537 0 2.3406e-05 0 0)
(0.0912901 -0.000307443 0 2.25234e-05 0 0)
(0.0924825 -0.000234987 0 2.85095e-05 0 0)
(0.102865 -0.000881492 0 3.16352e-05 0 0)
(0.101241 0.00101691 0 8.2176e-05 0 0)
(0.165336 -0.0111497 0 0.00116107 0 0)
(0.174083 0.0197914 0 0.00390338 0 0)
(0.00684332 0.00175537 0 0.000774546 0 0)
(0.00190032 -0.000807851 0 0.00102983 0 0)
(0.0132747 -0.00133889 0 0.000448165 0 0)
(0.0212009 -0.00161721 0 0.000194126 0 0)
(0.0314491 -0.00146062 0 0.000122806 0 0)
(0.0469971 -0.00139253 0 0.000105109 0 0)
(0.0594862 -0.00172681 0 0.000121822 0 0)
(0.0706755 -0.00122313 0 9.44157e-05 0 0)
(0.0889657 -0.0018161 0 0.000123436 0 0)
(0.0897291 -0.00137696 0 0.000105217 0 0)
(0.115769 -0.00199345 0 0.000138712 0 0)
(0.106879 -0.00175807 0 0.000132389 0 0)
(0.13987 -0.00253176 0 0.000180143 0 0)
(0.123725 -0.00226201 0 0.000176225 0 0)
(0.165003 -0.00345728 0 0.000258517 0 0)
(0.140684 -0.00349503 0 0.000290316 0 0)
(0.199596 -0.00388187 0 0.000405262 0 0)
(0.167548 -0.00836896 0 0.00101943 0 0)
(0.283048 -0.0046384 0 0.000823095 0 0)
(0.274965 -0.0368218 0 0.0138049 0 0)
(0.0168837 0.000700467 0 0.000526147 0 0)
(0.016373 0.000100624 0 0.00124441 0 0)
(0.0426763 -7.88174e-05 0 0.000820032 0 0)
(0.0460358 -0.00131822 0 0.000478359 0 0)
(0.0650951 -0.00128099 0 0.000391999 0 0)
(0.0756263 -0.00198234 0 0.00037467 0 0)
(0.0985804 -0.00385676 0 0.000446377 0 0)
(0.104395 -0.00245908 0 0.000316613 0 0)
(0.146186 -0.00545717 0 0.000423706 0 0)
(0.133169 -0.00356365 0 0.000293912 0 0)
(0.199384 -0.00668815 0 0.000435609 0 0)
(0.16186 -0.0049191 0 0.000347174 0 0)
(0.253884 -0.00883843 0 0.000601976 0 0)
(0.187389 -0.0062281 0 0.000499812 0 0)
(0.31327 -0.0126153 0 0.00101697 0 0)
(0.204011 -0.00750014 0 0.000856022 0 0)
(0.385339 -0.0173137 0 0.00179944 0 0)
(0.219741 -0.00935545 0 0.00205045 0 0)
(0.490395 -0.0237574 0 0.00415521 0 0)
(0.271592 -0.030237 0 0.0166073 0 0)
(0.08158 -0.000493254 0 0.000428864 0 0)
(0.0945324 -0.000270678 0 0.0010227 0 0)
(0.147724 -0.00137668 0 0.000852976 0 0)
(0.153165 -0.00270743 0 0.000603749 0 0)
(0.190634 -0.00175176 0 0.00061886 0 0)
(0.196799 -0.00326128 0 0.000654348 0 0)
(0.239719 -0.00607962 0 0.000871963 0 0)
(0.233651 -0.00322062 0 0.000660886 0 0)
(0.301462 -0.0101861 0 0.00100273 0 0)
(0.267145 -0.00558205 0 0.000666242 0 0)
(0.371517 -0.0135386 0 0.00109793 0 0)
(0.29909 -0.00875997 0 0.000804216 0 0)
(0.446905 -0.0183317 0 0.00152606 0 0)
(0.327335 -0.0116939 0 0.00112564 0 0)
(0.530546 -0.0261103 0 0.00252027 0 0)
(0.342522 -0.0141845 0 0.0017921 0 0)
(0.629379 -0.0353779 0 0.00404909 0 0)
(0.339947 -0.016765 0 0.00409364 0 0)
(0.761701 -0.0442335 0 0.00699392 0 0)
(0.32649 -0.0291853 0 0.0224507 0 0)
(0.317253 -0.00174551 0 0.000712937 0 0)
(0.313813 -0.000250032 0 0.00135764 0 0)
(0.351708 -0.00495641 0 0.00164366 0 0)
(0.338506 -0.00511489 0 0.0012293 0 0)
(0.367516 -0.00522053 0 0.00135003 0 0)
(0.357466 -0.00707766 0 0.00124229 0 0)
(0.394401 -0.0103113 0 0.00191214 0 0)
(0.375479 -0.00636708 0 0.00140585 0 0)
(0.433505 -0.015827 0 0.00240237 0 0)
(0.39432 -0.00881998 0 0.0016217 0 0)
(0.476731 -0.0204097 0 0.00279935 0 0)
(0.414519 -0.0129624 0 0.00192973 0 0)
(0.520921 -0.026577 0 0.00367521 0 0)
(0.435806 -0.0169291 0 0.00245798 0 0)
(0.567201 -0.0365115 0 0.0053415 0 0)
(0.452815 -0.0209806 0 0.00332095 0 0)
(0.620402 -0.0491082 0 0.00776578 0 0)
(0.458144 -0.0257712 0 0.00598448 0 0)
(0.693204 -0.0626724 0 0.0121395 0 0)
(0.435961 -0.0320618 0 0.0268528 0 0)
(0.400266 -0.006642 0 0.00235687 0 0)
(0.343904 -0.00149871 0 0.00320153 0 0)
(0.335993 -0.00891369 0 0.00405401 0 0)
(0.289029 -0.00702974 0 0.00262588 0 0)
(0.299342 -0.0097698 0 0.00358505 0 0)
(0.275352 -0.00921553 0 0.00293595 0 0)
(0.282067 -0.0128527 0 0.00423317 0 0)
(0.264348 -0.00857494 0 0.00307468 0 0)
(0.277154 -0.0163306 0 0.00505805 0 0)
(0.261883 -0.0107953 0 0.00340594 0 0)
(0.275549 -0.0196865 0 0.00571208 0 0)
(0.265249 -0.0144391 0 0.00405369 0 0)
(0.274271 -0.023395 0 0.0069483 0 0)
(0.275685 -0.017976 0 0.00488199 0 0)
(0.270506 -0.0290419 0 0.00935293 0 0)
(0.292794 -0.022277 0 0.0060695 0 0)
(0.26318 -0.0357123 0 0.0130978 0 0)
(0.316712 -0.0280324 0 0.00912275 0 0)
(0.255331 -0.0411902 0 0.0213506 0 0)
(0.34404 -0.0366276 0 0.0258675 0 0)
(0.189437 -0.0105495 0 0.00439822 0 0)
(0.168881 -0.00908357 0 0.00650351 0 0)
(0.157781 -0.00833527 0 0.00633546 0 0)
(0.146554 -0.0120001 0 0.00539211 0 0)
(0.143137 -0.0107258 0 0.0065555 0 0)
(0.1452 -0.01107 0 0.005848 0 0)
(0.140112 -0.011493 0 0.00657843 0 0)
(0.142573 -0.0111662 0 0.00597408 0 0)
(0.143209 -0.0122407 0 0.00726751 0 0)
(0.145564 -0.0121813 0 0.00644662 0 0)
(0.143648 -0.014052 0 0.00814086 0 0)
(0.153615 -0.0134303 0 0.00730409 0 0)
(0.147768 -0.0147609 0 0.00960315 0 0)
(0.165251 -0.0151425 0 0.00861874 0 0)
(0.150416 -0.0149835 0 0.0121565 0 0)
(0.182054 -0.0172318 0 0.0104654 0 0)
(0.152185 -0.0134123 0 0.0163092 0 0)
(0.206866 -0.0194824 0 0.0151467 0 0)
(0.155044 -0.00604809 0 0.0257497 0 0)
(0.242457 -0.0192514 0 0.0383621 0 0)
(0.168498 -0.0125155 0 0.0054411 0 0)
(0.205394 -0.0200481 0 0.0108804 0 0)
(0.164535 -0.0091789 0 0.00853569 0 0)
(0.208208 -0.0150189 0 0.00740045 0 0)
(0.180345 -0.0125372 0 0.00859575 0 0)
(0.205181 -0.0122899 0 0.00851912 0 0)
(0.201476 -0.0105215 0 0.00788897 0 0)
(0.209956 -0.0124555 0 0.00863712 0 0)
(0.216621 -0.00985502 0 0.00882353 0 0)
(0.215845 -0.0118067 0 0.0089189 0 0)
(0.230786 -0.00950771 0 0.00954351 0 0)
(0.223062 -0.0112061 0 0.0101673 0 0)
(0.249984 -0.00742988 0 0.0108994 0 0)
(0.23455 -0.0111201 0 0.0116686 0 0)
(0.264292 -0.00397644 0 0.0133117 0 0)
(0.249649 -0.0104833 0 0.0139242 0 0)
(0.283542 0.00212643 0 0.0170544 0 0)
(0.270164 -0.00853321 0 0.0201054 0 0)
(0.302537 0.0150214 0 0.0263182 0 0)
(0.298722 -0.00109518 0 0.0448333 0 0)
(0.286653 -0.00912344 0 0.0051996 0 0)
(0.320714 -0.0192694 0 0.0138731 0 0)
(0.276591 -0.00615772 0 0.0096811 0 0)
(0.285093 -0.00962676 0 0.00859239 0 0)
(0.314127 -0.00735243 0 0.00853088 0 0)
(0.270926 -0.0073256 0 0.00953203 0 0)
(0.351453 -0.00478657 0 0.00796916 0 0)
(0.269327 -0.00709494 0 0.00962839 0 0)
(0.370699 -0.00234027 0 0.00853438 0 0)
(0.273907 -0.00693833 0 0.0102655 0 0)
(0.382965 -7.92763e-05 0 0.00916366 0 0)
(0.284411 -0.00556122 0 0.0112759 0 0)
(0.399079 0.00305637 0 0.0104979 0 0)
(0.298642 -0.00477885 0 0.0128932 0 0)
(0.417813 0.00759048 0 0.0120322 0 0)
(0.316572 -0.00299033 0 0.0151398 0 0)
(0.43579 0.014865 0 0.014882 0 0)
(0.342413 0.000638516 0 0.0209179 0 0)
(0.454873 0.0285408 0 0.0220906 0 0)
(0.389625 0.00702673 0 0.0385598 0 0)
(0.320496 -0.0044277 0 0.00379238 0 0)
(0.35617 -0.00896389 0 0.0105924 0 0)
(0.34388 -0.000955333 0 0.0063419 0 0)
(0.295552 -0.00186938 0 0.00650815 0 0)
(0.369513 -0.000862946 0 0.00580496 0 0)
(0.285422 -0.00109087 0 0.00700133 0 0)
(0.381935 0.00143308 0 0.00541037 0 0)
(0.285576 -0.000730908 0 0.00725796 0 0)
(0.38184 0.00391832 0 0.00582148 0 0)
(0.290904 -0.000444601 0 0.00759654 0 0)
(0.389242 0.00517865 0 0.00635883 0 0)
(0.307992 0.000947968 0 0.00816446 0 0)
(0.398281 0.00818677 0 0.00711136 0 0)
(0.327723 0.0019027 0 0.00920865 0 0)
(0.408626 0.0120341 0 0.00785735 0 0)
(0.354283 0.00463112 0 0.0105831 0 0)
(0.42267 0.0179815 0 0.0091901 0 0)
(0.396536 0.010076 0 0.0139739 0 0)
(0.442988 0.0286772 0 0.0133928 0 0)
(0.481684 0.0168129 0 0.0252221 0 0)
(0.217088 -0.00164848 0 0.00282152 0 0)
(0.248995 -0.00163258 0 0.00655106 0 0)
(0.236284 0.0021321 0 0.00445832 0 0)
(0.210799 0.00342139 0 0.00412668 0 0)
(0.245854 0.00207484 0 0.00493877 0 0)
(0.213266 0.0031392 0 0.00499643 0 0)
(0.247092 0.00363471 0 0.00478667 0 0)
(0.217435 0.0044223 0 0.00528244 0 0)
(0.246996 0.00522784 0 0.0050009 0 0)
(0.227317 0.00538994 0 0.00554237 0 0)
(0.246468 0.00658192 0 0.0053724 0 0)
(0.247317 0.00676356 0 0.00581522 0 0)
(0.252082 0.00888406 0 0.00575381 0 0)
(0.264068 0.00866989 0 0.00634465 0 0)
(0.258722 0.0115441 0 0.00617282 0 0)
(0.288678 0.0124055 0 0.00706009 0 0)
(0.265627 0.0152539 0 0.00696753 0 0)
(0.328358 0.0192294 0 0.0087284 0 0)
(0.27142 0.0222755 0 0.0096688 0 0)
(0.402748 0.0284318 0 0.0157351 0 0)
(0.0943823 -0.000406228 0 0.00250002 0 0)
(0.10623 0.000675036 0 0.00541861 0 0)
(0.0954551 0.00146696 0 0.00420201 0 0)
(0.100292 0.0028558 0 0.00411196 0 0)
(0.101542 0.00156571 0 0.00452699 0 0)
(0.105915 0.00257213 0 0.00480232 0 0)
(0.105878 0.00173222 0 0.00460284 0 0)
(0.11181 0.00402209 0 0.00508925 0 0)
(0.106924 0.00260576 0 0.00460101 0 0)
(0.122846 0.00493363 0 0.00514752 0 0)
(0.106095 0.00348614 0 0.00475069 0 0)
(0.136794 0.005911 0 0.00526253 0 0)
(0.110278 0.00446739 0 0.0048792 0 0)
(0.150563 0.00720987 0 0.0054633 0 0)
(0.114215 0.00515678 0 0.00490115 0 0)
(0.168987 0.00974397 0 0.00567863 0 0)
(0.116152 0.00632669 0 0.00514445 0 0)
(0.196781 0.0140634 0 0.00656749 0 0)
(0.117598 0.00989488 0 0.00662198 0 0)
(0.247964 0.020083 0 0.0108875 0 0)
(0.0313312 -0.000149941 0 0.00204654 0 0)
(0.0342475 0.000223823 0 0.00447523 0 0)
(0.0311043 -0.000383368 0 0.00366757 0 0)
(0.0405374 0.000752194 0 0.00338362 0 0)
(0.0373563 0.000266063 0 0.00344202 0 0)
(0.0425273 0.000953091 0 0.00362616 0 0)
(0.0408425 8.19243e-05 0 0.00362025 0 0)
(0.0477387 0.00165878 0 0.00400062 0 0)
(0.0424211 0.000215281 0 0.00354649 0 0)
(0.0545566 0.00233535 0 0.00380997 0 0)
(0.0429875 0.000974259 0 0.00348434 0 0)
(0.0602218 0.00277745 0 0.00382796 0 0)
(0.0455539 0.00133659 0 0.00359499 0 0)
(0.0672207 0.0032765 0 0.00372417 0 0)
(0.0489915 0.0015452 0 0.00335811 0 0)
(0.0754591 0.00452085 0 0.00354409 0 0)
(0.0521924 0.00235271 0 0.00328456 0 0)
(0.0880082 0.00680081 0 0.00383208 0 0)
(0.0581209 0.00510618 0 0.00412021 0 0)
(0.112164 0.0110475 0 0.00635632 0 0)
(0.00951546 -0.000273686 0 0.00148409 0 0)
(0.00691329 -0.000689727 0 0.00336008 0 0)
(0.00817721 -0.00149528 0 0.00299442 0 0)
(0.0121435 -0.000634458 0 0.00232702 0 0)
(0.012228 -0.000262515 0 0.00240588 0 0)
(0.013772 -0.000315701 0 0.00232845 0 0)
(0.0154379 -0.000364147 0 0.00248606 0 0)
(0.0169439 -0.000338154 0 0.00266418 0 0)
(0.0185299 -0.000729086 0 0.00241496 0 0)
(0.021037 -1.19933e-05 0 0.00237992 0 0)
(0.0201408 -0.00017403 0 0.00223591 0 0)
(0.0237082 0.000170163 0 0.00229688 0 0)
(0.022388 -0.00016813 0 0.00230383 0 0)
(0.0277661 4.21744e-06 0 0.00219922 0 0)
(0.0258663 -7.20599e-05 0 0.00203459 0 0)
(0.0326762 0.000553218 0 0.00191946 0 0)
(0.0304068 0.000695959 0 0.00182752 0 0)
(0.0409765 0.0021352 0 0.00204579 0 0)
(0.0396891 0.00332906 0 0.00235275 0 0)
(0.0572081 0.00717636 0 0.0039447 0 0)
(0.00797212 -0.000406656 0 0.00110067 0 0)
(0.00342299 -0.000948904 0 0.00264162 0 0)
(0.00479728 -0.00162395 0 0.00244219 0 0)
(0.00639825 -0.00107865 0 0.00176741 0 0)
(0.00822844 -0.000543363 0 0.00184711 0 0)
(0.00807196 -0.000523201 0 0.00177013 0 0)
(0.00995827 -0.000638583 0 0.00201459 0 0)
(0.0103272 -0.00103728 0 0.00215128 0 0)
(0.0130168 -0.00108262 0 0.00199322 0 0)
(0.0133018 -0.000753157 0 0.00187195 0 0)
(0.0153256 -0.000545391 0 0.00173064 0 0)
(0.0154034 -0.000486866 0 0.00170724 0 0)
(0.0174904 -0.000489097 0 0.001691 0 0)
(0.0182168 -0.000721539 0 0.00156975 0 0)
(0.0206582 -0.000510668 0 0.00141516 0 0)
(0.0217215 -0.000400001 0 0.00125689 0 0)
(0.0248223 0.000211984 0 0.00112191 0 0)
(0.027955 0.000908708 0 0.00114457 0 0)
(0.0332829 0.00260736 0 0.00132284 0 0)
(0.0414361 0.00528352 0 0.00216216 0 0)
(0.00974922 -0.000394106 0 0.000655977 0 0)
(0.00547374 -0.00027424 0 0.00174099 0 0)
(0.00562572 -0.000967654 0 0.00167395 0 0)
(0.0068117 -0.000730862 0 0.00124085 0 0)
(0.00897443 -0.000382221 0 0.00139926 0 0)
(0.00836624 -0.000167436 0 0.00126811 0 0)
(0.0107244 -0.000338031 0 0.00140105 0 0)
(0.00979931 -0.000393315 0 0.00150804 0 0)
(0.0119107 -0.00055117 0 0.00143564 0 0)
(0.0103517 -0.000159409 0 0.00133408 0 0)
(0.0123591 -0.000153811 0 0.00118932 0 0)
(0.0104133 8.82679e-05 0 0.0011147 0 0)
(0.0121089 2.60207e-06 0 0.00105605 0 0)
(0.0100385 -7.45227e-06 0 0.000976324 0 0)
(0.0117344 -2.32944e-05 0 0.000857406 0 0)
(0.00994444 3.09161e-05 0 0.000773303 0 0)
(0.0120248 0.000374944 0 0.000636676 0 0)
(0.0117369 0.000701795 0 0.00064019 0 0)
(0.0156031 0.00184933 0 0.000719996 0 0)
(0.0197204 0.00310374 0 0.00118625 0 0)
(0.00844641 -0.000626795 0 0.000408568 0 0)
(0.00445354 -3.31683e-06 0 0.00119826 0 0)
(0.00485588 -0.000352571 0 0.00102393 0 0)
(0.00652544 -0.000311015 0 0.000698398 0 0)
(0.00807261 -0.000110757 0 0.000835669 0 0)
(0.00706962 8.03353e-05 0 0.000793637 0 0)
(0.00792387 0.000155786 0 0.000826343 0 0)
(0.00626439 0.000490207 0 0.000837101 0 0)
(0.00603143 0.000495869 0 0.000763501 0 0)
(0.00491477 0.000847403 0 0.000684944 0 0)
(0.00444908 0.000743139 0 0.000602311 0 0)
(0.00434828 0.000987682 0 0.000555556 0 0)
(0.00353903 0.000809666 0 0.000516593 0 0)
(0.00437645 0.000950827 0 0.000480011 0 0)
(0.00349476 0.000636056 0 0.000414094 0 0)
(0.00517017 0.000805821 0 0.00038893 0 0)
(0.00457944 0.000454364 0 0.000324478 0 0)
(0.0068856 0.000817578 0 0.00032831 0 0)
(0.00761379 0.000741035 0 0.000440265 0 0)
(0.0110756 0.00156272 0 0.000604636 0 0)
(0.00677547 -0.00125666 0 0.000480278 0 0)
(0.00212298 -0.000369369 0 0.00121813 0 0)
(0.00230185 -5.1654e-05 0 0.000794449 0 0)
(0.00312889 0.000150773 0 0.000465343 0 0)
(0.00325544 0.000584941 0 0.00044421 0 0)
(0.0034122 0.000925795 0 0.000397409 0 0)
(0.00532291 0.00112773 0 0.000375814 0 0)
(0.00836687 0.00133033 0 0.000351798 0 0)
(0.0104619 0.00124371 0 0.000303904 0 0)
(0.015461 0.00127758 0 0.000264658 0 0)
(0.0164636 0.00109188 0 0.000230658 0 0)
(0.0227515 0.00112281 0 0.000214211 0 0)
(0.0221235 0.000920146 0 0.000205752 0 0)
(0.0293651 0.000972892 0 0.000191425 0 0)
(0.0273469 0.000592624 0 0.000170322 0 0)
(0.0347076 0.00074288 0 0.000161159 0 0)
(0.0318639 4.3464e-05 0 0.000143388 0 0)
(0.0373129 0.00054162 0 0.000151951 0 0)
(0.03519 -0.000448523 0 0.000208529 0 0)
(0.0365451 0.000988838 0 0.000388981 0 0)
(0.0059834 -0.00187265 0 0.000758983 0 0)
(0.0010297 0.000722607 0 0.00101482 0 0)
(0.00562387 0.00143582 0 0.000431406 0 0)
(0.0111703 0.00126006 0 0.000179809 0 0)
(0.0175453 0.00123328 0 0.000124853 0 0)
(0.0256744 0.00111185 0 9.99695e-05 0 0)
(0.0334346 0.000933711 0 9.12626e-05 0 0)
(0.0417048 0.000797529 0 8.50237e-05 0 0)
(0.0467562 0.000642119 0 7.93215e-05 0 0)
(0.054008 0.00057066 0 7.54954e-05 0 0)
(0.0563457 0.000468086 0 7.24749e-05 0 0)
(0.0632364 0.000463273 0 6.97191e-05 0 0)
(0.0634226 0.000367327 0 6.92746e-05 0 0)
(0.0704403 0.000389185 0 6.35767e-05 0 0)
(0.0688017 0.000187813 0 5.83429e-05 0 0)
(0.0753271 0.00023092 0 5.25313e-05 0 0)
(0.0719774 -0.000196166 0 4.966e-05 0 0)
(0.0753249 7.60275e-05 0 4.91863e-05 0 0)
(0.0725682 -0.000776179 0 7.19569e-05 0 0)
(0.0673829 0.000395062 0 0.00021518 0 0)
(0.0011097 -6.54782e-05 0 0.000126149 0 0)
(0.0212258 0.00082547 0 4.66229e-05 0 0)
(0.0414136 7.62811e-05 0 1.18812e-05 0 0)
(0.0515701 -0.000125905 0 5.49668e-06 0 0)
(0.0591262 -9.2555e-05 0 4.70691e-06 0 0)
(0.064915 -7.14266e-05 0 5.15747e-06 0 0)
(0.0686281 -4.70027e-05 0 6.23434e-06 0 0)
(0.0717837 -2.09439e-05 0 6.68471e-06 0 0)
(0.0735428 -1.13203e-05 0 7.38625e-06 0 0)
(0.0757961 4.04925e-07 0 7.45955e-06 0 0)
(0.0765517 -3.91122e-06 0 7.58787e-06 0 0)
(0.0784346 6.59121e-06 0 7.20388e-06 0 0)
(0.0785633 -7.22057e-06 0 7.00067e-06 0 0)
(0.0803119 2.49699e-06 0 6.20378e-06 0 0)
(0.0797432 -3.28019e-05 0 5.69729e-06 0 0)
(0.0809765 -2.94453e-05 0 4.74229e-06 0 0)
(0.0791739 -9.68792e-05 0 4.31852e-06 0 0)
(0.0786658 -8.00918e-05 0 3.796e-06 0 0)
(0.0763685 -0.00028556 0 4.81214e-06 0 0)
(0.0690797 0.000383436 0 2.75712e-05 0 0)
(0.328031 -0.158225 0 0.0984852 0 0)
(0.356831 -0.187589 0 0.138558 0 0)
(0.363437 -0.178587 0 0.165064 0 0)
(0.384171 -0.15788 0 0.184181 0 0)
(0.390894 -0.132679 0 0.195368 0 0)
(0.460842 -0.118116 0 0.203272 0 0)
(0.494645 -0.111759 0 0.210666 0 0)
(0.60343 -0.124551 0 0.221856 0 0)
(0.65574 -0.14003 0 0.234867 0 0)
(0.766435 -0.163778 0 0.24855 0 0)
(0.805547 -0.179493 0 0.263171 0 0)
(0.905854 -0.200703 0 0.281628 0 0)
(0.934264 -0.210101 0 0.300896 0 0)
(1.03597 -0.229863 0 0.318589 0 0)
(1.06734 -0.241003 0 0.330559 0 0)
(1.17731 -0.269324 0 0.340653 0 0)
(1.20811 -0.291452 0 0.35334 0 0)
(1.32719 -0.332885 0 0.372722 0 0)
(1.35641 -0.358741 0 0.399244 0 0)
(1.50398 -0.403168 0 0.433003 0 0)
(1.55956 -0.425657 0 0.461901 0 0)
(1.7441 -0.478336 0 0.493401 0 0)
(1.81021 -0.508777 0 0.524143 0 0)
(2.00886 -0.572891 0 0.559071 0 0)
(2.07849 -0.603339 0 0.592793 0 0)
(2.28083 -0.674148 0 0.633054 0 0)
(2.36192 -0.700358 0 0.671462 0 0)
(2.564 -0.784229 0 0.714785 0 0)
(2.66804 -0.813903 0 0.757156 0 0)
(2.86822 -0.912193 0 0.808022 0 0)
(2.99818 -0.94789 0 0.859839 0 0)
(3.21078 -1.05708 0 0.916781 0 0)
(3.36199 -1.09834 0 0.970734 0 0)
(3.60493 -1.22304 0 1.03004 0 0)
(3.75838 -1.27209 0 1.08438 0 0)
(4.02732 -1.41405 0 1.14532 0 0)
(4.14881 -1.45821 0 1.19626 0 0)
(4.42561 -1.6087 0 1.25613 0 0)
(4.49886 -1.63531 0 1.30532 0 0)
(4.77022 -1.78789 0 1.36625 0 0)
(4.79161 -1.78122 0 1.41655 0 0)
(5.04205 -1.9261 0 1.47804 0 0)
(5.01717 -1.88638 0 1.52718 0 0)
(5.26074 -2.02476 0 1.58886 0 0)
(5.21188 -1.96681 0 1.63673 0 0)
(5.47024 -2.10437 0 1.70098 0 0)
(5.41946 -2.04291 0 1.74766 0 0)
(5.71445 -2.1817 0 1.81854 0 0)
(5.66664 -2.12939 0 1.86665 0 0)
(6.01367 -2.27185 0 1.94665 0 0)
(5.9473 -2.23286 0 2.0032 0 0)
(6.34678 -2.38149 0 2.09666 0 0)
(6.21422 -2.33592 0 2.16454 0 0)
(6.64783 -2.48669 0 2.26473 0 0)
(6.40858 -2.39981 0 2.3256 0 0)
(6.85271 -2.54779 0 2.41768 0 0)
(6.50247 -2.4063 0 2.45292 0 0)
(6.9614 -2.55518 0 2.52234 0 0)
(6.5183 -2.38063 0 2.53644 0 0)
(7.03301 -2.54498 0 2.59257 0 0)
(6.49579 -2.36986 0 2.60601 0 0)
(7.10008 -2.55629 0 2.66706 0 0)
(6.4363 -2.3803 0 2.69206 0 0)
(7.11868 -2.57401 0 2.76547 0 0)
(6.31093 -2.36393 0 2.78634 0 0)
(7.04717 -2.53129 0 2.85144 0 0)
(6.13825 -2.27339 0 2.83147 0 0)
(6.94739 -2.38715 0 2.85057 0 0)
(5.98066 -2.12112 0 2.8046 0 0)
(6.93791 -2.24123 0 2.83196 0 0)
(5.91352 -1.99083 0 2.81475 0 0)
(7.05196 -2.14482 0 2.84699 0 0)
(5.93451 -1.88204 0 2.82772 0 0)
(7.27457 -2.10501 0 2.86461 0 0)
(6.02947 -1.81995 0 2.87382 0 0)
(7.54076 -2.12283 0 2.95294 0 0)
(6.19267 -1.80448 0 2.99544 0 0)
(7.78438 -2.1649 0 3.11966 0 0)
(6.35971 -1.82154 0 3.17528 0 0)
(7.98302 -2.18868 0 3.32517 0 0)
(6.44871 -1.83285 0 3.36764 0 0)
(8.14468 -2.19608 0 3.49812 0 0)
(6.4772 -1.83807 0 3.51431 0 0)
(8.28436 -2.21821 0 3.62664 0 0)
(6.50609 -1.84486 0 3.6199 0 0)
(8.35507 -2.23429 0 3.73276 0 0)
(6.58637 -1.85453 0 3.73461 0 0)
(8.42604 -2.25055 0 3.89098 0 0)
(6.71648 -1.88961 0 3.92755 0 0)
(8.58302 -2.28711 0 4.11661 0 0)
(6.88926 -1.95897 0 4.16374 0 0)
(8.80529 -2.39472 0 4.34748 0 0)
(7.12919 -2.073 0 4.39374 0 0)
(9.08274 -2.54023 0 4.59256 0 0)
(7.39746 -2.19211 0 4.63878 0 0)
(9.33988 -2.69035 0 4.86164 0 0)
(7.66482 -2.30787 0 4.91577 0 0)
(9.55009 -2.82359 0 5.19 0 0)
(7.86819 -2.40838 0 5.27601 0 0)
(9.6066 -2.91779 0 5.60915 0 0)
(7.92106 -2.45575 0 5.72947 0 0)
(9.57571 -2.96895 0 6.09577 0 0)
(7.81619 -2.46536 0 6.24521 0 0)
(9.50236 -2.99839 0 6.64169 0 0)
(7.62643 -2.45091 0 6.70463 0 0)
(9.39009 -2.99976 0 7.0522 0 0)
(7.42989 -2.35221 0 7.03112 0 0)
(9.2405 -2.88968 0 7.28459 0 0)
(7.30045 -2.17706 0 7.18486 0 0)
(9.09998 -2.73418 0 7.4392 0 0)
(7.24692 -2.03161 0 7.31259 0 0)
(8.97815 -2.60563 0 7.55162 0 0)
(7.2656 -1.89938 0 7.40734 0 0)
(8.89605 -2.47011 0 7.66706 0 0)
(7.33008 -1.73672 0 7.53401 0 0)
(8.78983 -2.28733 0 7.80913 0 0)
(7.38639 -1.59446 0 7.7308 0 0)
(8.66124 -2.12172 0 8.05969 0 0)
(7.46599 -1.50386 0 8.04638 0 0)
(8.61842 -2.00382 0 8.4228 0 0)
(7.60522 -1.4652 0 8.47891 0 0)
(8.60975 -1.92179 0 8.85436 0 0)
(7.68568 -1.40793 0 8.94929 0 0)
(8.5588 -1.84063 0 9.29484 0 0)
(7.6817 -1.36204 0 9.35851 0 0)
(8.48436 -1.76631 0 9.63316 0 0)
(7.59012 -1.3039 0 9.6852 0 0)
(8.38186 -1.70902 0 9.92312 0 0)
(7.53366 -1.29761 0 9.96677 0 0)
(8.23701 -1.70782 0 10.1488 0 0)
(7.57145 -1.39566 0 10.2576 0 0)
(8.13016 -1.74185 0 10.4595 0 0)
(7.69158 -1.51435 0 10.6072 0 0)
(8.09237 -1.73821 0 10.7813 0 0)
(7.82311 -1.60342 0 10.9374 0 0)
(8.09798 -1.69901 0 11.098 0 0)
(7.96027 -1.61769 0 11.2635 0 0)
(8.17147 -1.63133 0 11.473 0 0)
(8.0591 -1.58357 0 11.6976 0 0)
(8.23932 -1.53781 0 11.9085 0 0)
(8.09273 -1.51913 0 12.1508 0 0)
(8.21965 -1.40712 0 12.2895 0 0)
(8.13765 -1.41671 0 12.5157 0 0)
(8.15022 -1.25579 0 12.6662 0 0)
(8.07374 -1.25293 0 12.905 0 0)
(7.98647 -1.07292 0 12.9747 0 0)
(7.9617 -1.04377 0 13.0669 0 0)
(7.84656 -0.917039 0 13.1034 0 0)
(7.86098 -0.813144 0 13.2206 0 0)
(7.7107 -0.755634 0 13.2547 0 0)
(7.7307 -0.599523 0 13.29 0 0)
(7.55846 -0.563974 0 13.2604 0 0)
(7.54459 -0.356971 0 13.3068 0 0)
(7.43093 -0.352142 0 13.2857 0 0)
(7.40677 -0.173449 0 13.3636 0 0)
(7.32148 -0.19221 0 13.3337 0 0)
(7.34537 -0.0515092 0 13.4364 0 0)
(7.30057 -0.0482718 0 13.3794 0 0)
(7.30806 0.0299914 0 13.4707 0 0)
(7.17906 0.00256062 0 13.4368 0 0)
(7.17755 0.0648119 0 13.5788 0 0)
(7.01214 0.0274465 0 13.6079 0 0)
(6.99076 0.0535275 0 13.6862 0 0)
(6.87343 0.0108307 0 13.6765 0 0)
(6.92696 0.0372307 0 13.6634 0 0)
(6.78984 -0.0710004 0 13.6126 0 0)
(6.88843 -0.010989 0 13.617 0 0)
(6.68934 -0.25426 0 13.5557 0 0)
(6.80992 -0.10426 0 13.5214 0 0)
(6.65207 -0.434135 0 13.3521 0 0)
(6.69493 -0.320578 0 13.1961 0 0)
(6.7139 -0.652707 0 13.076 0 0)
(6.51703 -0.485138 0 12.6825 0 0)
(6.83474 -0.934859 0 12.4605 0 0)
(6.43906 -0.537423 0 12.029 0 0)
(6.84571 -1.03474 0 11.7916 0 0)
(6.46883 -0.563369 0 11.4348 0 0)
(6.88252 -1.06339 0 11.0577 0 0)
(6.49511 -0.629847 0 10.9053 0 0)
(6.87879 -0.961106 0 10.3911 0 0)
(6.49862 -0.745086 0 10.4317 0 0)
(6.73274 -0.848735 0 9.67328 0 0)
(6.35148 -0.887145 0 10.0425 0 0)
(6.47587 -0.713407 0 8.9404 0 0)
(6.169 -1.00016 0 9.68446 0 0)
(6.1781 -0.479285 0 8.2861 0 0)
(5.95368 -1.08294 0 9.41769 0 0)
(5.80852 -0.189714 0 7.83964 0 0)
(5.60155 -1.05285 0 9.39966 0 0)
(5.4409 0.243514 0 7.69738 0 0)
(5.13168 -0.905848 0 9.68147 0 0)
(5.07235 0.789061 0 7.84715 0 0)
(4.64796 -0.617025 0 10.4818 0 0)
(4.50217 1.40763 0 8.47386 0 0)
(4.26192 -0.123308 0 12.0149 0 0)
(3.91348 2.35415 0 10.0519 0 0)
(3.82393 0.275166 0 14.3285 0 0)
(3.07981 3.58617 0 12.9975 0 0)
(3.5333 2.31401 0 19.6838 0 0)
(1.16662 0.659351 0 21.6729 0 0)
(0.307656 -0.130876 0 0.111122 0 0)
(0.271635 -0.139215 0 0.144709 0 0)
(0.291866 -0.124678 0 0.152548 0 0)
(0.255676 -0.11464 0 0.156736 0 0)
(0.279489 -0.100123 0 0.156407 0 0)
(0.275522 -0.101227 0 0.155638 0 0)
(0.316541 -0.104918 0 0.158954 0 0)
(0.331591 -0.122492 0 0.168384 0 0)
(0.384925 -0.134231 0 0.179117 0 0)
(0.397601 -0.153385 0 0.190595 0 0)
(0.449363 -0.162856 0 0.202731 0 0)
(0.455691 -0.181776 0 0.218427 0 0)
(0.508999 -0.189697 0 0.234256 0 0)
(0.524085 -0.210251 0 0.250648 0 0)
(0.587401 -0.21907 0 0.264761 0 0)
(0.623261 -0.247931 0 0.280219 0 0)
(0.700672 -0.265639 0 0.296855 0 0)
(0.759704 -0.309949 0 0.318333 0 0)
(0.844725 -0.333904 0 0.340991 0 0)
(0.916403 -0.385195 0 0.368766 0 0)
(1.00093 -0.406455 0 0.3955 0 0)
(1.08683 -0.461433 0 0.426096 0 0)
(1.17413 -0.481098 0 0.455487 0 0)
(1.27782 -0.544368 0 0.489861 0 0)
(1.36794 -0.562248 0 0.522952 0 0)
(1.49149 -0.634607 0 0.563756 0 0)
(1.59205 -0.651745 0 0.602875 0 0)
(1.74034 -0.735973 0 0.649681 0 0)
(1.85783 -0.759358 0 0.693109 0 0)
(2.02857 -0.859091 0 0.745847 0 0)
(2.15415 -0.890384 0 0.794081 0 0)
(2.34206 -1.00378 0 0.851587 0 0)
(2.45588 -1.03561 0 0.902072 0 0)
(2.65828 -1.15999 0 0.962223 0 0)
(2.73881 -1.18377 0 1.01306 0 0)
(2.95491 -1.31858 0 1.07358 0 0)
(2.97906 -1.32215 0 1.12332 0 0)
(3.20412 -1.46442 0 1.18107 0 0)
(3.16442 -1.44039 0 1.22856 0 0)
(3.39918 -1.59006 0 1.2846 0 0)
(3.30814 -1.53737 0 1.3287 0 0)
(3.55567 -1.68998 0 1.38545 0 0)
(3.43604 -1.61742 0 1.42647 0 0)
(3.70491 -1.772 0 1.48924 0 0)
(3.58148 -1.69312 0 1.52979 0 0)
(3.87754 -1.85146 0 1.60343 0 0)
(3.76054 -1.77592 0 1.64819 0 0)
(4.0878 -1.93833 0 1.73072 0 0)
(3.96272 -1.86271 0 1.77981 0 0)
(4.32464 -2.0297 0 1.86721 0 0)
(4.1577 -1.94013 0 1.91896 0 0)
(4.55643 -2.1138 0 2.00861 0 0)
(4.31072 -1.98785 0 2.05939 0 0)
(4.74253 -2.16997 0 2.1463 0 0)
(4.40298 -1.99022 0 2.18812 0 0)
(4.86422 -2.18444 0 2.26473 0 0)
(4.44968 -1.95616 0 2.29197 0 0)
(4.94612 -2.1699 0 2.36052 0 0)
(4.48982 -1.9239 0 2.37718 0 0)
(5.02951 -2.15822 0 2.45543 0 0)
(4.54517 -1.9298 0 2.47254 0 0)
(5.13071 -2.16273 0 2.55893 0 0)
(4.59304 -1.95456 0 2.57167 0 0)
(5.22088 -2.14959 0 2.64756 0 0)
(4.58791 -1.93586 0 2.64325 0 0)
(5.26553 -2.07951 0 2.68403 0 0)
(4.52078 -1.83701 0 2.65025 0 0)
(5.30214 -1.97223 0 2.67401 0 0)
(4.47193 -1.71953 0 2.64788 0 0)
(5.39338 -1.897 0 2.69772 0 0)
(4.49353 -1.62951 0 2.68128 0 0)
(5.56887 -1.85184 0 2.746 0 0)
(4.59667 -1.55992 0 2.73057 0 0)
(5.81266 -1.85221 0 2.80665 0 0)
(4.76955 -1.52984 0 2.81232 0 0)
(6.075 -1.89499 0 2.92379 0 0)
(4.97816 -1.53667 0 2.96009 0 0)
(6.30192 -1.93184 0 3.10474 0 0)
(5.14869 -1.53184 0 3.14533 0 0)
(6.46456 -1.92801 0 3.30053 0 0)
(5.23501 -1.51525 0 3.32865 0 0)
(6.60694 -1.92782 0 3.46674 0 0)
(5.32336 -1.52669 0 3.47846 0 0)
(6.74507 -1.95132 0 3.59309 0 0)
(5.45733 -1.57738 0 3.57563 0 0)
(6.89393 -1.97752 0 3.70572 0 0)
(5.62932 -1.6488 0 3.71029 0 0)
(7.08482 -2.01736 0 3.8752 0 0)
(5.85071 -1.71668 0 3.91318 0 0)
(7.34387 -2.07878 0 4.10812 0 0)
(6.09526 -1.80223 0 4.15198 0 0)
(7.64563 -2.20521 0 4.34261 0 0)
(6.36013 -1.90207 0 4.39246 0 0)
(7.96178 -2.34686 0 4.60635 0 0)
(6.63399 -2.00164 0 4.65085 0 0)
(8.24767 -2.50177 0 4.88787 0 0)
(6.91626 -2.10048 0 4.94498 0 0)
(8.499 -2.6363 0 5.23233 0 0)
(7.14311 -2.17995 0 5.30723 0 0)
(8.6439 -2.72023 0 5.64896 0 0)
(7.23982 -2.19629 0 5.74165 0 0)
(8.66414 -2.75572 0 6.13187 0 0)
(7.15053 -2.15181 0 6.23236 0 0)
(8.58071 -2.72727 0 6.62291 0 0)
(6.9295 -2.07691 0 6.61475 0 0)
(8.39674 -2.64582 0 6.96392 0 0)
(6.68884 -1.92037 0 6.88936 0 0)
(8.21612 -2.48238 0 7.18851 0 0)
(6.54611 -1.73473 0 7.07157 0 0)
(8.14411 -2.30858 0 7.35871 0 0)
(6.52439 -1.56587 0 7.22038 0 0)
(8.16618 -2.13774 0 7.48993 0 0)
(6.65464 -1.41109 0 7.32987 0 0)
(8.23795 -1.96042 0 7.62216 0 0)
(6.83465 -1.29363 0 7.49171 0 0)
(8.26771 -1.83843 0 7.78439 0 0)
(7.06218 -1.24028 0 7.71585 0 0)
(8.3326 -1.76113 0 8.05824 0 0)
(7.29544 -1.21327 0 8.07889 0 0)
(8.45409 -1.71168 0 8.46593 0 0)
(7.46657 -1.20821 0 8.53349 0 0)
(8.53294 -1.65724 0 8.91798 0 0)
(7.49991 -1.15522 0 9.0056 0 0)
(8.52725 -1.58318 0 9.37089 0 0)
(7.46092 -1.06983 0 9.45188 0 0)
(8.5011 -1.51917 0 9.73767 0 0)
(7.46833 -1.02502 0 9.78928 0 0)
(8.4804 -1.50626 0 10.0256 0 0)
(7.56085 -1.12169 0 10.1086 0 0)
(8.47255 -1.57507 0 10.2851 0 0)
(7.67488 -1.34157 0 10.3966 0 0)
(8.4668 -1.66449 0 10.5704 0 0)
(7.81843 -1.52018 0 10.7261 0 0)
(8.4859 -1.7009 0 10.9074 0 0)
(7.99846 -1.63388 0 11.0831 0 0)
(8.64861 -1.70809 0 11.2073 0 0)
(8.2355 -1.68473 0 11.3803 0 0)
(8.81415 -1.67407 0 11.5655 0 0)
(8.39033 -1.68171 0 11.8268 0 0)
(8.88112 -1.56928 0 12.0186 0 0)
(8.4171 -1.57419 0 12.3112 0 0)
(8.82899 -1.41199 0 12.4255 0 0)
(8.364 -1.42975 0 12.6899 0 0)
(8.67664 -1.19735 0 12.8228 0 0)
(8.17281 -1.19976 0 13.1105 0 0)
(8.49309 -0.949518 0 13.1296 0 0)
(7.97418 -0.993953 0 13.3022 0 0)
(8.31778 -0.752941 0 13.3023 0 0)
(7.73819 -0.778568 0 13.4277 0 0)
(8.04314 -0.563154 0 13.4304 0 0)
(7.58025 -0.484558 0 13.4841 0 0)
(7.80564 -0.388298 0 13.3785 0 0)
(7.48252 -0.26917 0 13.4515 0 0)
(7.69483 -0.225382 0 13.51 0 0)
(7.42682 -0.131403 0 13.5531 0 0)
(7.63911 -0.157188 0 13.5264 0 0)
(7.42878 0.00334219 0 13.6245 0 0)
(7.59928 -0.0425816 0 13.6554 0 0)
(7.39336 0.0816006 0 13.6801 0 0)
(7.43685 0.00486811 0 13.7853 0 0)
(7.31463 0.1527 0 13.8113 0 0)
(7.25768 -0.00111675 0 13.8745 0 0)
(7.19471 0.145053 0 13.9395 0 0)
(7.10725 0.00226148 0 13.9435 0 0)
(7.06326 0.117399 0 13.9723 0 0)
(6.953 -0.0862796 0 13.9225 0 0)
(6.96236 0.0688822 0 13.9942 0 0)
(6.84424 -0.18582 0 13.9395 0 0)
(6.89061 -0.0141201 0 13.8457 0 0)
(6.78751 -0.342554 0 13.8014 0 0)
(6.73142 -0.0850791 0 13.6405 0 0)
(6.73426 -0.57816 0 13.4767 0 0)
(6.60249 -0.157888 0 13.1372 0 0)
(6.58238 -0.825944 0 12.8555 0 0)
(6.6396 -0.270111 0 12.3857 0 0)
(6.46034 -1.01998 0 12.0297 0 0)
(6.74505 -0.417266 0 11.773 0 0)
(6.43071 -1.11296 0 11.3201 0 0)
(6.77873 -0.679213 0 11.2256 0 0)
(6.4633 -1.06289 0 10.5594 0 0)
(6.73345 -0.917336 0 10.8921 0 0)
(6.4068 -0.964928 0 9.83692 0 0)
(6.6049 -1.20725 0 10.5773 0 0)
(6.17262 -0.796245 0 9.08216 0 0)
(6.39465 -1.51465 0 10.2319 0 0)
(5.93965 -0.530996 0 8.33273 0 0)
(6.09756 -1.69669 0 10.0035 0 0)
(5.80898 -0.224817 0 7.72494 0 0)
(5.6557 -1.75439 0 9.97583 0 0)