/*--------------------------------*- C++ -*----------------------------------*\
| =========                 |                                                 |
| \\      /  F ield         | OpenFOAM: The Open Source CFD Toolbox           |
|  \\    /   O peration     | Version:  2.4.0                                 |
|   \\  /    A nd           | Web:      www.OpenFOAM.org                      |
|    \\/     M anipulation  |                                                 |
\*---------------------------------------------------------------------------*/
FoamFile
{
    version     2.0;
    format      ascii;
    class       volVectorField;
    location    "1.54";
    object      U;
}
// * * * * * * * * * * * * * * * * * * * * * * * * * * * * * * * * * * * * * //

dimensions      [0 1 -1 0 0 0 0];

internalField   nonuniform List<vector> 
8800
(
(8.09222 0.387963 0)
(5.45072 0.242522 0)
(3.90942 0.0431008 0)
(3.16082 -0.0156618 0)
(2.79471 -0.0180059 0)
(2.6066 -0.0113916 0)
(2.47526 -0.00550175 0)
(2.38936 -0.00215424 0)
(2.30562 -0.00121345 0)
(2.26518 -0.0019864 0)
(2.20309 0.000748541 0)
(2.18196 -0.000600765 0)
(2.13018 -0.000350599 0)
(2.12583 -0.000265112 0)
(2.06405 0.00178929 0)
(2.06184 -0.00122152 0)
(2.01136 -6.31622e-05 0)
(2.00911 -0.00270699 0)
(2.03557 0.0123813 0)
(1.73525 -0.0876708 0)
(10.0819 0.838378 0)
(9.66429 0.867656 0)
(8.86133 0.507123 0)
(8.0997 0.261727 0)
(7.47004 0.138688 0)
(7.03478 0.0809866 0)
(6.66805 0.0548092 0)
(6.42758 0.041414 0)
(6.19008 0.0302252 0)
(6.06672 0.020575 0)
(5.87928 0.02286 0)
(5.8301 0.0151542 0)
(5.6732 0.0140826 0)
(5.66011 0.013132 0)
(5.50456 0.0210422 0)
(5.50281 0.00607786 0)
(5.3771 0.0201901 0)
(5.34797 -0.0122154 0)
(5.35499 0.0354386 0)
(5.14765 -0.0617476 0)
(10.0507 0.631079 0)
(10.6762 0.863458 0)
(10.8428 0.601162 0)
(10.728 0.374008 0)
(10.4136 0.256224 0)
(10.1363 0.195035 0)
(9.78703 0.154795 0)
(9.54834 0.124425 0)
(9.25105 0.0942503 0)
(9.11067 0.0711696 0)
(8.84093 0.0660118 0)
(8.78853 0.0471461 0)
(8.55748 0.0426084 0)
(8.54204 0.0364913 0)
(8.32744 0.0495533 0)
(8.33251 0.0210688 0)
(8.14512 0.0463003 0)
(8.1331 -0.00438437 0)
(8.05119 0.0360939 0)
(7.99247 -0.107964 0)
(9.9716 0.456713 0)
(10.6093 0.706684 0)
(11.1108 0.544187 0)
(11.4472 0.354544 0)
(11.4861 0.261614 0)
(11.5374 0.224577 0)
(11.4172 0.20278 0)
(11.3852 0.179264 0)
(11.2015 0.146446 0)
(11.1869 0.120414 0)
(10.9669 0.115634 0)
(10.9755 0.08463 0)
(10.7674 0.0818894 0)
(10.7735 0.0669267 0)
(10.5749 0.0870972 0)
(10.587 0.0433425 0)
(10.4021 0.0806736 0)
(10.3922 0.0123943 0)
(10.2776 0.0491367 0)
(10.2887 -0.126205 0)
(9.97696 0.343315 0)
(10.4894 0.574212 0)
(10.9479 0.454551 0)
(11.3993 0.297019 0)
(11.5776 0.210785 0)
(11.7641 0.189385 0)
(11.7985 0.179764 0)
(11.9241 0.176613 0)
(11.8876 0.143059 0)
(11.9914 0.125589 0)
(11.9451 0.125288 0)
(12.0243 0.0971348 0)
(11.9602 0.0905472 0)
(12.0066 0.088205 0)
(11.9502 0.0973499 0)
(11.9635 0.0698349 0)
(11.9048 0.0863854 0)
(11.8852 0.0576064 0)
(11.8409 0.043572 0)
(11.8624 -0.0547216 0)
(9.97859 0.246875 0)
(10.4084 0.462508 0)
(10.827 0.37536 0)
(11.2265 0.243431 0)
(11.4914 0.165228 0)
(11.6652 0.146994 0)
(11.7573 0.145121 0)
(11.8932 0.147195 0)
(11.9387 0.123705 0)
(12.0386 0.0996389 0)
(12.1159 0.10944 0)
(12.2089 0.0796398 0)
(12.249 0.0792182 0)
(12.3128 0.0755639 0)
(12.3768 0.0897344 0)
(12.413 0.0653349 0)
(12.4535 0.0788435 0)
(12.4877 0.0733502 0)
(12.5037 0.0639922 0)
(12.5778 -0.025511 0)
(9.98709 0.171006 0)
(10.3312 0.356813 0)
(10.7386 0.292357 0)
(11.1168 0.202287 0)
(11.3922 0.118559 0)
(11.5683 0.116761 0)
(11.6686 0.0995018 0)
(11.7977 0.130834 0)
(11.8642 0.0844088 0)
(11.9397 0.0879584 0)
(12.0196 0.0687693 0)
(12.1656 0.0794949 0)
(12.2202 0.0397274 0)
(12.2783 0.082663 0)
(12.3465 0.0423166 0)
(12.4223 0.081291 0)
(12.4631 0.0281964 0)
(12.5077 0.104346 0)
(12.5798 0.0471634 0)
(12.5945 0.134519 0)
(9.99116 0.104046 0)
(10.2838 0.261953 0)
(10.6727 0.199514 0)
(11.0355 0.160657 0)
(11.286 0.0729042 0)
(11.5173 0.0951216 0)
(11.6225 0.0519143 0)
(11.722 0.110838 0)
(11.8004 0.0507551 0)
(11.8447 0.0809327 0)
(11.9296 0.0246096 0)
(12.097 0.0623264 0)
(12.1678 0.0155613 0)
(12.1777 0.083303 0)
(12.2676 0.0144374 0)
(12.388 0.0742805 0)
(12.4278 0.0114155 0)
(12.4362 0.099872 0)
(12.5057 0.0333761 0)
(12.4737 0.140515 0)
(9.99039 0.0609581 0)
(10.2524 0.148009 0)
(10.6245 0.130313 0)
(10.9871 0.0983394 0)
(11.2122 0.0441391 0)
(11.4851 0.0373216 0)
(11.6274 0.0368017 0)
(11.6563 0.0698054 0)
(11.7168 0.0412792 0)
(11.8326 0.0422628 0)
(11.9346 0.0126917 0)
(12.0148 0.0152436 0)
(12.0728 0.0268956 0)
(12.1509 0.0530451 0)
(12.2369 -0.00182841 0)
(12.3062 0.0198168 0)
(12.3466 0.0291613 0)
(12.4443 0.0482977 0)
(12.4771 0.0304003 0)
(12.4471 -0.0306575 0)
(9.99417 0.0106248 0)
(10.2172 0.0556851 0)
(10.6097 0.0400271 0)
(11.0031 0.0497431 0)
(11.2142 -9.66666e-07 0)
(11.3994 0.003048 0)
(11.5888 0.00204999 0)
(11.6685 0.0630339 0)
(11.6969 -0.000954586 0)
(11.8244 0.0088257 0)
(11.9321 -0.0086952 0)
(11.9487 0.0173715 0)
(12.0136 -0.00531148 0)
(12.2252 0.0321081 0)
(12.28 -0.0105961 0)
(12.1485 0.0221322 0)
(12.3129 -0.017572 0)
(12.4392 0.0133056 0)
(12.5091 -0.0179097 0)
(12.3602 -0.00876433 0)
(10.008 -0.0214178 0)
(10.2068 -0.0539462 0)
(10.5995 -0.0481686 0)
(10.9988 -0.015842 0)
(11.2388 0.000233209 0)
(11.3979 -0.0403188 0)
(11.5544 -0.0378533 0)
(11.6637 0.0202482 0)
(11.7671 -0.00879235 0)
(11.8164 -0.0301617 0)
(11.8679 -0.00845723 0)
(11.9428 -0.00866279 0)
(12.0509 -0.0344564 0)
(12.2349 -0.014645 0)
(12.2225 0.0218235 0)
(12.2237 -0.00310169 0)
(12.3352 -0.0559048 0)
(12.4364 -0.0397768 0)
(12.452 -0.00807368 0)
(12.3516 -0.0129066 0)
(10.0072 -0.0696313 0)
(10.2534 -0.144389 0)
(10.5985 -0.134872 0)
(10.9517 -0.0784574 0)
(11.2998 -0.0407269 0)
(11.5167 -0.062825 0)
(11.5276 -0.0670217 0)
(11.6237 -0.0206686 0)
(11.8007 -0.0432315 0)
(11.8419 -0.036344 0)
(11.8962 -0.0240263 0)
(12.0186 -0.040242 0)
(12.1264 -0.0609167 0)
(12.1098 -0.0214191 0)
(12.1803 0.00306041 0)
(12.3768 -0.0316427 0)
(12.424 -0.075864 0)
(12.3428 -0.0592832 0)
(12.4294 -0.0426237 0)
(12.4127 -0.0286547 0)
(10.0063 -0.120173 0)
(10.2673 -0.247241 0)
(10.6606 -0.202288 0)
(11.0254 -0.151685 0)
(11.3372 -0.0887041 0)
(11.5249 -0.0833171 0)
(11.5797 -0.0734127 0)
(11.683 -0.067709 0)
(11.8096 -0.0738859 0)
(11.8917 -0.0679347 0)
(11.9793 -0.0468209 0)
(12.0766 -0.0688021 0)
(12.1264 -0.0478174 0)
(12.1214 -0.0297611 0)
(12.2564 -0.0442152 0)
(12.4495 -0.0759253 0)
(12.4385 -0.0636724 0)
(12.3992 -0.0750575 0)
(12.4561 -0.084212 0)
(12.4245 -0.0719721 0)
(10.0296 -0.179546 0)
(10.2858 -0.348094 0)
(10.7546 -0.293805 0)
(11.1125 -0.203693 0)
(11.405 -0.116692 0)
(11.5412 -0.118565 0)
(11.6776 -0.111715 0)
(11.7687 -0.103098 0)
(11.8856 -0.0982679 0)
(11.9478 -0.09574 0)
(12.0438 -0.0619375 0)
(12.1095 -0.087033 0)
(12.1886 -0.0582969 0)
(12.2501 -0.0595215 0)
(12.3796 -0.0712981 0)
(12.4298 -0.0947599 0)
(12.4522 -0.0726252 0)
(12.5045 -0.10353 0)
(12.5537 -0.109602 0)
(12.5011 -0.106131 0)
(10.0685 -0.256509 0)
(10.307 -0.451747 0)
(10.8979 -0.376449 0)
(11.1805 -0.251524 0)
(11.534 -0.158305 0)
(11.6047 -0.155246 0)
(11.8057 -0.14072 0)
(11.815 -0.136012 0)
(11.9968 -0.126314 0)
(12.0021 -0.120295 0)
(12.1513 -0.0834153 0)
(12.1486 -0.111081 0)
(12.2711 -0.074988 0)
(12.2711 -0.0836155 0)
(12.3991 -0.0825616 0)
(12.3735 -0.11016 0)
(12.4458 -0.0861223 0)
(12.4378 -0.137822 0)
(12.4789 -0.130773 0)
(12.358 -0.147431 0)
(10.0659 -0.350902 0)
(10.3821 -0.561673 0)
(11.0604 -0.465178 0)
(11.2915 -0.296081 0)
(11.6635 -0.203864 0)
(11.6622 -0.194945 0)
(11.8887 -0.179816 0)
(11.8125 -0.164267 0)
(12.0056 -0.15415 0)
(11.8826 -0.138937 0)
(12.0481 -0.103698 0)
(11.9065 -0.118351 0)
(12.0397 -0.0887499 0)
(11.9043 -0.0939018 0)
(12.0192 -0.0917521 0)
(11.8594 -0.115483 0)
(11.9398 -0.091404 0)
(11.7726 -0.143199 0)
(11.7806 -0.129033 0)
(11.5466 -0.167848 0)
(10.0167 -0.460027 0)
(10.5486 -0.702803 0)
(11.1829 -0.546851 0)
(11.3559 -0.353206 0)
(11.5705 -0.258547 0)
(11.4469 -0.230937 0)
(11.5027 -0.200539 0)
(11.2889 -0.173437 0)
(11.3176 -0.153526 0)
(11.0485 -0.129273 0)
(11.1054 -0.0980818 0)
(10.8249 -0.102713 0)
(10.887 -0.0782346 0)
(10.6298 -0.0789599 0)
(10.6941 -0.074071 0)
(10.4151 -0.0932702 0)
(10.4805 -0.0707699 0)
(10.1824 -0.121208 0)
(10.1871 -0.0998516 0)
(9.8494 -0.165517 0)
(10.0665 -0.633353 0)
(10.6495 -0.861264 0)
(10.8772 -0.602108 0)
(10.678 -0.374376 0)
(10.4692 -0.254054 0)
(10.075 -0.198042 0)
(9.84549 -0.154012 0)
(9.48554 -0.121072 0)
(9.32881 -0.0976245 0)
(9.0032 -0.0780232 0)
(8.95481 -0.0554974 0)
(8.65847 -0.0564962 0)
(8.66378 -0.0431336 0)
(8.40627 -0.0429218 0)
(8.43425 -0.0429218 0)
(8.15966 -0.0544135 0)
(8.20437 -0.0463373 0)
(7.89823 -0.0729272 0)
(7.89892 -0.0740128 0)
(7.54761 -0.0919382 0)
(10.0851 -0.838956 0)
(9.6535 -0.867257 0)
(8.87591 -0.506914 0)
(8.07541 -0.262066 0)
(7.50037 -0.137316 0)
(6.99929 -0.0828692 0)
(6.7015 -0.0546778 0)
(6.39235 -0.0397123 0)
(6.23299 -0.030847 0)
(6.00203 -0.0258996 0)
(5.94612 -0.0162005 0)
(5.74782 -0.0196504 0)
(5.73896 -0.0154269 0)
(5.56306 -0.0166246 0)
(5.56964 -0.0172664 0)
(5.37513 -0.0255595 0)
(5.38686 -0.0208521 0)
(5.15851 -0.0342499 0)
(5.14435 -0.0403547 0)
(4.84558 -0.0204192 0)
(8.0914 -0.38807 0)
(5.44818 -0.242397 0)
(3.91243 -0.0428845 0)
(3.15508 0.0152653 0)
(2.8029 0.018419 0)
(2.59578 0.0109782 0)
(2.48511 0.00539775 0)
(2.37719 0.0027495 0)
(2.32155 0.00143604 0)
(2.24181 -0.000116639 0)
(2.2209 0.00166728 0)
(2.15647 -0.000516183 0)
(2.14816 -7.1294e-05 0)
(2.08524 -0.000551198 0)
(2.08114 -0.000634013 0)
(2.00346 -0.00302735 0)
(1.99095 -0.000624142 0)
(1.8983 -0.00412517 0)
(1.85754 -0.00445979 0)
(1.70498 0.011092 0)
(2.39865 -0.156379 0)
(2.40738 -0.0458914 0)
(2.59024 0.00479403 0)
(2.58953 0.0301907 0)
(2.78003 0.0213622 0)
(2.79819 0.0160249 0)
(2.99208 -0.00909983 0)
(3.02732 -0.0223466 0)
(3.18868 -0.046694 0)
(3.21246 -0.0599676 0)
(3.33384 -0.0772245 0)
(3.33981 -0.0829417 0)
(3.43681 -0.0986715 0)
(3.43882 -0.105739 0)
(3.52529 -0.127176 0)
(3.53155 -0.144997 0)
(3.59761 -0.166433 0)
(3.58386 -0.179498 0)
(3.63853 -0.193923 0)
(3.60166 -0.196415 0)
(3.62055 -0.202472 0)
(3.55917 -0.188894 0)
(3.55527 -0.17033 0)
(3.48454 -0.123235 0)
(3.4841 -0.0547584 0)
(3.4528 0.0502645 0)
(3.49797 0.185693 0)
(3.57657 0.36507 0)
(3.75268 0.568697 0)
(3.98467 0.791235 0)
(4.31138 1.0097 0)
(4.70096 1.1753 0)
(5.13603 1.25791 0)
(5.62251 1.22996 0)
(6.08436 1.07861 0)
(6.53613 0.789816 0)
(6.89894 0.398586 0)
(7.22671 0.0115453 0)
(7.50146 -0.39152 0)
(7.67056 -0.868771 0)
(7.84219 -1.3136 0)
(8.00485 -1.69357 0)
(8.2304 -2.08214 0)
(8.4518 -2.53307 0)
(8.61011 -2.92902 0)
(8.66234 -3.13589 0)
(8.64256 -3.22994 0)
(8.55751 -3.33147 0)
(8.42708 -3.31412 0)
(8.28521 -3.05074 0)
(8.06209 -2.5953 0)
(7.71466 -2.12455 0)
(7.41507 -1.56983 0)
(7.34712 -1.03627 0)
(7.15269 -0.588575 0)
(6.65582 -0.313965 0)
(5.86473 -0.234201 0)
(5.26762 -0.0675813 0)
(4.94954 0.286286 0)
(4.9562 0.722194 0)
(5.15706 1.25271 0)
(5.5837 1.71806 0)
(5.98621 2.08086 0)
(6.3628 2.40725 0)
(6.81476 2.59609 0)
(7.09175 2.64736 0)
(7.46171 2.58447 0)
(7.90003 2.44333 0)
(8.18507 2.2019 0)
(8.46512 1.80645 0)
(8.83325 1.36274 0)
(9.14695 0.949271 0)
(9.3045 0.53738 0)
(9.33814 0.0825135 0)
(9.34766 -0.373803 0)
(9.42421 -0.764817 0)
(9.63097 -1.22197 0)
(10.0663 -1.81718 0)
(10.7239 -2.51552 0)
(11.2586 -3.18596 0)
(12.025 -3.912 0)
(12.8754 -4.69647 0)
(13.4778 -5.15138 0)
(14.1233 -5.62248 0)
(14.5241 -6.14685 0)
(15.0247 -6.23176 0)
(15.1889 -6.48706 0)
(15.408 -6.49693 0)
(15.3697 -6.39588 0)
(15.3014 -6.19039 0)
(15.1181 -5.86021 0)
(14.8315 -5.53938 0)
(14.6401 -5.03633 0)
(14.1415 -4.53972 0)
(13.7908 -3.95517 0)
(13.348 -3.46959 0)
(13.0175 -2.86166 0)
(12.5634 -2.30909 0)
(12.1471 -1.77991 0)
(11.8286 -1.32883 0)
(11.3866 -0.90066 0)
(11.1907 -0.519654 0)
(10.8305 -0.170032 0)
(10.489 0.349432 0)
(10.1137 0.779125 0)
(9.72987 1.05036 0)
(9.25931 1.45145 0)
(8.62669 1.47155 0)
(8.0772 1.54692 0)
(7.80605 1.65236 0)
(7.54629 1.71336 0)
(7.27322 1.71184 0)
(6.71063 1.56104 0)
(6.30117 1.50164 0)
(6.24904 1.84411 0)
(6.17126 2.20993 0)
(6.03432 2.21183 0)
(5.89435 2.46644 0)
(6.19245 2.90352 0)
(6.18765 3.42577 0)
(6.42368 3.82925 0)
(6.36538 4.25333 0)
(6.52692 4.46046 0)
(6.74749 4.65124 0)
(6.85657 4.58847 0)
(7.29223 4.71839 0)
(7.41367 4.92504 0)
(8.12174 4.98859 0)
(8.06312 4.61906 0)
(8.76922 4.15091 0)
(9.24987 3.79354 0)
(9.36627 3.08135 0)
(10.2791 2.36428 0)
(10.3027 1.45093 0)
(10.7026 0.558392 0)
(11.0259 -0.420075 0)
(10.9438 -1.277 0)
(11.4228 -1.99552 0)
(11.2461 -2.81069 0)
(11.7512 -3.30926 0)
(11.8299 -3.97913 0)
(11.9879 -4.57682 0)
(11.7624 -4.76802 0)
(11.8811 -5.28164 0)
(11.865 -5.90709 0)
(11.7153 -6.28474 0)
(11.0628 -6.1872 0)
(10.5646 -6.39311 0)
(10.3148 -7.02797 0)
(9.79282 -7.16426 0)
(8.96862 -6.54195 0)
(8.22753 -5.87378 0)
(8.13205 -5.67423 0)
(8.35125 -5.87434 0)
(8.99145 -5.86811 0)
(9.71846 -5.55572 0)
(10.1544 -4.97632 0)
(10.676 -4.33591 0)
(11.0225 -3.88624 0)
(11.5555 -2.91556 0)
(11.8131 -1.98795 0)
(11.918 -1.23947 0)
(12.263 0.133891 0)
(12.0599 1.15857 0)
(11.8285 1.88031 0)
(11.79 2.76085 0)
(11.6773 3.87133 0)
(11.3149 4.43901 0)
(10.3563 4.56985 0)
(10.1451 4.74601 0)
(9.45107 4.91296 0)
(9.2485 5.10662 0)
(8.71193 5.03762 0)
(8.04516 4.92005 0)
(8.39098 5.37561 0)
(7.78302 5.91401 0)
(7.83454 6.15088 0)
(7.85198 5.95676 0)
(6.62653 5.57119 0)
(7.15812 5.45039 0)
(6.18334 4.99801 0)
(5.75034 4.22484 0)
(6.11579 4.18178 0)
(4.5659 3.5511 0)
(5.88074 3.35685 0)
(4.12493 3.08925 0)
(4.60072 2.71826 0)
(3.93274 3.1054 0)
(3.15519 2.925 0)
(3.98433 3.59049 0)
(1.74436 2.97545 0)
(3.02264 3.6038 0)
(0.89733 3.03628 0)
(1.4123 2.60535 0)
(0.658808 2.28166 0)
(0.97958 2.39264 0)
(1.53047 2.22563 0)
(0.889449 2.69078 0)
(3.17904 3.14521 0)
(2.51858 6.12916 0)
(5.40886 -0.115066 0)
(5.41007 -0.0887728 0)
(5.43858 -0.0629625 0)
(5.4132 -0.0395837 0)
(5.46301 -0.0495584 0)
(5.48367 -0.0597874 0)
(5.57217 -0.079073 0)
(5.6207 -0.0916264 0)
(5.70601 -0.100608 0)
(5.74112 -0.111795 0)
(5.8033 -0.120541 0)
(5.823 -0.122781 0)
(5.87386 -0.13456 0)
(5.8906 -0.140719 0)
(5.9363 -0.155089 0)
(5.9498 -0.171897 0)
(5.98783 -0.181181 0)
(5.98959 -0.194437 0)
(6.01096 -0.203405 0)
(5.99693 -0.196887 0)
(5.98739 -0.195184 0)
(5.94808 -0.167554 0)
(5.92317 -0.133878 0)
(5.86351 -0.0780459 0)
(5.82086 -0.00277049 0)
(5.76761 0.0846723 0)
(5.73444 0.189784 0)
(5.72081 0.313597 0)
(5.77717 0.451104 0)
(5.88984 0.582618 0)
(6.06486 0.713618 0)
(6.37631 0.81847 0)
(6.69896 0.846936 0)
(7.11844 0.78783 0)
(7.53186 0.667558 0)
(7.97682 0.45001 0)
(8.35308 0.10313 0)
(8.64355 -0.248792 0)
(8.99805 -0.610811 0)
(9.25829 -1.0588 0)
(9.48873 -1.47578 0)
(9.6883 -1.86029 0)
(9.9379 -2.25321 0)
(10.1281 -2.6897 0)
(10.1517 -3.05522 0)
(10.0461 -3.22706 0)
(9.91287 -3.28087 0)
(9.87436 -3.28365 0)
(9.66542 -3.19569 0)
(9.30278 -2.90935 0)
(8.95386 -2.44582 0)
(8.68877 -1.82959 0)
(8.41949 -1.34404 0)
(8.30489 -0.92504 0)
(8.10654 -0.426963 0)
(8.00017 0.0649499 0)
(7.53595 0.4185 0)
(6.94138 0.510604 0)
(6.37705 0.621844 0)
(5.9499 0.801898 0)
(5.78117 1.07534 0)
(5.92159 1.41075 0)
(6.19187 1.7366 0)
(6.49223 2.03077 0)
(6.98785 2.17511 0)
(7.3825 2.2512 0)
(7.73113 2.26181 0)
(8.12297 2.11534 0)
(8.46229 1.86423 0)
(8.74247 1.52346 0)
(9.01073 1.18668 0)
(9.14563 0.807783 0)
(9.28514 0.410039 0)
(9.50863 -0.000973565 0)
(9.68577 -0.460737 0)
(10.0428 -0.994074 0)
(10.5983 -1.63094 0)
(11.141 -2.28278 0)
(11.8879 -3.09603 0)
(12.6594 -3.86313 0)
(13.3617 -4.47662 0)
(14.0831 -5.15472 0)
(14.4669 -5.69049 0)
(15.0113 -6.09022 0)
(15.3095 -6.42698 0)
(15.5295 -6.50883 0)
(15.5761 -6.63144 0)
(15.5844 -6.52645 0)
(15.5114 -6.24645 0)
(15.2272 -6.07512 0)
(15.2551 -5.66064 0)
(14.8093 -5.27788 0)
(14.7041 -4.71897 0)
(14.2261 -4.23712 0)
(14.0318 -3.73184 0)
(13.6696 -3.0942 0)
(13.1968 -2.52678 0)
(12.9518 -2.00384 0)
(12.4546 -1.52358 0)
(12.2267 -1.05157 0)
(11.7065 -0.680615 0)
(11.5323 -0.192656 0)
(10.9474 0.16401 0)
(10.6654 0.611832 0)
(10.3203 1.04816 0)
(9.85443 1.30128 0)
(9.5416 1.80692 0)
(9.19992 2.06883 0)
(8.52095 1.82677 0)
(8.12371 1.85682 0)
(7.9076 1.92904 0)
(7.35374 2.11742 0)
(6.86585 1.95739 0)
(6.24618 1.86482 0)
(6.2569 1.83444 0)
(5.96435 2.25953 0)
(6.13088 2.32017 0)
(5.84354 2.34646 0)
(6.13191 2.67315 0)
(6.16158 3.25739 0)
(6.43712 3.68143 0)
(6.70038 4.14917 0)
(6.71804 4.41965 0)
(6.9885 4.48231 0)
(7.04093 4.3929 0)
(7.4891 4.36213 0)
(7.59734 4.51758 0)
(8.42565 4.63251 0)
(8.67576 4.38706 0)
(8.94327 3.74146 0)
(9.8584 3.27977 0)
(9.76502 2.69549 0)
(10.6206 1.8767 0)
(10.927 1.11449 0)
(11.2357 0.198595 0)
(11.643 -0.560093 0)
(11.5699 -1.32416 0)
(12.2181 -2.20321 0)
(12.0741 -2.81405 0)
(12.5121 -3.2972 0)
(12.2923 -4.07232 0)
(12.591 -4.6698 0)
(12.3161 -4.7721 0)
(12.3152 -4.97538 0)
(12.0935 -5.64415 0)
(11.632 -5.93391 0)
(10.8022 -5.73935 0)
(10.4191 -6.01761 0)
(10.0267 -6.55119 0)
(9.32566 -6.53318 0)
(8.33548 -5.9547 0)
(7.77001 -5.63478 0)
(7.92514 -5.74125 0)
(8.18966 -6.20548 0)
(8.83901 -6.36477 0)
(9.37042 -6.00801 0)
(9.6847 -5.40045 0)
(10.1476 -4.66946 0)
(10.3342 -4.18283 0)
(10.9592 -3.21906 0)
(11.031 -2.23128 0)
(11.2859 -1.36705 0)
(11.3605 0.0455532 0)
(11.5066 1.31961 0)
(11.0971 1.93559 0)
(11.457 2.79807 0)
(11.274 3.96151 0)
(11.3376 4.82726 0)
(10.4485 5.09509 0)
(9.86328 5.23397 0)
(9.59119 5.32072 0)
(8.82526 5.53641 0)
(8.68403 5.48567 0)
(8.10047 5.14545 0)
(7.68502 5.47275 0)
(8.07898 6.04194 0)
(7.37089 6.18356 0)
(7.60069 6.28763 0)
(7.22926 5.98098 0)
(6.17478 5.65105 0)
(7.18144 5.21032 0)
(5.63232 4.49871 0)
(6.07174 4.20341 0)
(5.73659 4.06678 0)
(4.15339 3.54055 0)
(5.74848 3.20368 0)
(3.32198 2.98289 0)
(5.18143 3.61268 0)
(2.83407 3.33439 0)
(3.33328 3.75888 0)
(3.20865 3.35296 0)
(1.39132 3.76572 0)
(4.12728 2.87782 0)
(1.78807 3.32627 0)
(4.77223 2.1122 0)
(2.26929 2.99066 0)
(5.71926 1.59208 0)
(2.8697 3.40764 0)
(6.12156 1.34925 0)
(4.31748 5.55615 0)
(8.06388 -0.0708726 0)
(8.06211 -0.0214642 0)
(8.0485 -0.0210515 0)
(8.03112 -0.025744 0)
(8.0463 -0.0663745 0)
(8.0666 -0.0872783 0)
(8.12454 -0.110167 0)
(8.16051 -0.126371 0)
(8.21921 -0.123693 0)
(8.23918 -0.136327 0)
(8.27724 -0.137716 0)
(8.28932 -0.143855 0)
(8.3117 -0.153177 0)
(8.32184 -0.158926 0)
(8.33634 -0.170355 0)
(8.34587 -0.185608 0)
(8.35531 -0.194755 0)
(8.36775 -0.19769 0)
(8.36145 -0.204882 0)
(8.36313 -0.187101 0)
(8.34536 -0.176497 0)
(8.30998 -0.142909 0)
(8.29652 -0.0987346 0)
(8.23394 -0.0458099 0)
(8.21009 0.0285528 0)
(8.16197 0.103339 0)
(8.13821 0.205482 0)
(8.13715 0.302056 0)
(8.14577 0.398368 0)
(8.25477 0.507723 0)
(8.33226 0.567638 0)
(8.54337 0.610033 0)
(8.80624 0.609676 0)
(9.08467 0.505871 0)
(9.41963 0.386233 0)
(9.77732 0.155365 0)
(10.1503 -0.163792 0)
(10.3891 -0.463371 0)
(10.736 -0.83289 0)
(11.017 -1.26714 0)
(11.17 -1.64174 0)
(11.3566 -1.99452 0)
(11.5088 -2.41453 0)
(11.5804 -2.75323 0)
(11.4251 -2.9954 0)
(11.3121 -3.00182 0)
(11.1627 -3.0907 0)
(11.0258 -3.10293 0)
(10.5848 -2.84169 0)
(10.1389 -2.48252 0)
(9.68752 -2.09077 0)
(9.46988 -1.68916 0)
(9.2283 -1.18847 0)
(9.07696 -0.779778 0)
(8.86883 -0.323253 0)
(8.73391 0.108389 0)
(8.70051 0.576469 0)
(8.50849 0.973968 0)
(8.01917 1.08927 0)
(7.4804 1.10435 0)
(6.99616 1.21823 0)
(6.77878 1.35143 0)
(6.78751 1.504 0)
(6.89713 1.75473 0)
(7.22134 1.91391 0)
(7.51985 1.9347 0)
(7.81126 1.8884 0)
(8.14894 1.80973 0)
(8.51007 1.61097 0)
(8.75825 1.28 0)
(8.99913 0.964524 0)
(9.3269 0.635439 0)
(9.62975 0.220028 0)
(9.94235 -0.239284 0)
(10.47 -0.775011 0)
(11.0789 -1.42251 0)
(11.7257 -2.17055 0)
(12.3956 -2.86951 0)
(13.1747 -3.65661 0)
(13.8828 -4.42202 0)
(14.3573 -5.0321 0)
(14.8786 -5.62884 0)
(15.2342 -6.10966 0)
(15.5644 -6.32692 0)
(15.5308 -6.59398 0)
(15.7032 -6.60744 0)
(15.5543 -6.6079 0)
(15.5087 -6.40368 0)
(15.3782 -6.1534 0)
(15.2606 -5.99325 0)
(15.2213 -5.43748 0)
(14.8116 -5.08123 0)
(14.8878 -4.54268 0)
(14.4305 -4.04668 0)
(14.3201 -3.4345 0)
(13.8424 -2.79403 0)
(13.5588 -2.29446 0)
(13.1966 -1.69465 0)
(12.7796 -1.27745 0)
(12.4553 -0.728227 0)
(12.0072 -0.343607 0)
(11.6231 0.156179 0)
(11.2108 0.556339 0)
(10.611 0.942745 0)
(10.4464 1.42923 0)
(9.90351 1.709 0)
(9.63271 1.85601 0)
(9.41306 2.3028 0)
(8.9812 2.27581 0)
(8.08736 2.23489 0)
(7.96895 2.26628 0)
(7.48169 2.48253 0)
(7.23322 2.41168 0)
(6.60763 2.13671 0)
(6.40989 2.13374 0)
(6.00442 2.22974 0)
(6.09074 2.40412 0)
(6.03186 2.34321 0)
(5.99598 2.60936 0)
(6.23739 3.02158 0)
(6.36875 3.44026 0)
(6.82126 3.95892 0)
(7.10042 4.30415 0)
(7.28792 4.40623 0)
(7.35394 4.23129 0)
(7.7847 4.12258 0)
(7.91826 4.29212 0)
(8.58834 4.16837 0)
(9.13318 3.99597 0)
(9.19121 3.39449 0)
(10.1036 2.83255 0)
(10.2104 2.30449 0)
(10.8571 1.55153 0)
(11.3025 0.818183 0)
(11.6493 -0.0404362 0)
(11.9888 -0.697966 0)
(12.1301 -1.50156 0)
(12.7339 -2.30993 0)
(12.3948 -2.94629 0)
(12.726 -3.49253 0)
(12.652 -4.11148 0)
(12.8095 -4.42166 0)
(12.1869 -4.4566 0)
(12.1639 -4.94897 0)
(11.9274 -5.548 0)
(11.3369 -5.38057 0)
(10.4159 -5.14613 0)
(9.98894 -5.7666 0)
(9.50555 -6.14027 0)
(8.5128 -5.75596 0)
(7.55509 -5.38257 0)
(7.28263 -5.58885 0)
(7.48122 -6.01309 0)
(7.84722 -6.60748 0)
(8.30324 -6.69612 0)
(8.67307 -6.20784 0)
(9.01098 -5.48044 0)
(9.24485 -4.76497 0)
(9.50559 -4.25744 0)
(9.91029 -3.34118 0)
(10.0119 -2.31693 0)
(10.1959 -1.34178 0)
(10.2026 -0.0819736 0)
(10.4804 1.30419 0)
(10.1845 1.94974 0)
(10.6099 2.761 0)
(10.6911 3.86186 0)
(10.7377 5.02804 0)
(10.4619 5.48709 0)
(9.61954 5.49356 0)
(9.48579 5.69071 0)
(8.97716 5.83519 0)
(8.27612 5.73767 0)
(8.19258 5.5954 0)
(7.35685 5.67157 0)
(7.54944 6.13544 0)
(7.67555 6.26213 0)
(6.88413 6.34938 0)
(7.3812 6.33027 0)
(6.7241 5.80558 0)
(6.35046 5.50357 0)
(6.94087 4.89354 0)
(5.17968 4.57322 0)
(6.41824 4.45877 0)
(4.92031 3.6928 0)
(4.90832 3.77814 0)
(4.87116 3.23261 0)
(2.69889 4.00037 0)
(6.05919 3.27984 0)
(1.64667 4.56848 0)
(6.97706 3.11615 0)
(1.96773 4.69341 0)
(7.31028 2.17446 0)
(2.86734 3.2095 0)
(7.03349 0.72095 0)
(3.44118 2.53112 0)
(7.05105 0.0164597 0)
(4.33463 3.06052 0)
(7.48216 0.541464 0)
(6.08602 4.41516 0)
(10.3415 -0.0347471 0)
(10.3236 0.0276949 0)
(10.2336 -0.00460271 0)
(10.193 -0.0309506 0)
(10.2137 -0.100224 0)
(10.2226 -0.122442 0)
(10.3094 -0.125162 0)
(10.3159 -0.151737 0)
(10.3733 -0.129212 0)
(10.3739 -0.154704 0)
(10.3776 -0.160019 0)
(10.4027 -0.149304 0)
(10.3818 -0.179863 0)
(10.414 -0.159711 0)
(10.3971 -0.171231 0)
(10.4031 -0.191392 0)
(10.4044 -0.179979 0)
(10.3893 -0.204724 0)
(10.3861 -0.197391 0)
(10.3623 -0.178457 0)
(10.3583 -0.170753 0)
(10.3167 -0.122284 0)
(10.3284 -0.0736176 0)
(10.2771 -0.0184025 0)
(10.2785 0.0547015 0)
(10.2599 0.136565 0)
(10.2369 0.197709 0)
(10.2881 0.298101 0)
(10.2913 0.362395 0)
(10.3912 0.41962 0)
(10.516 0.488262 0)
(10.6406 0.448302 0)
(10.8919 0.45131 0)
(11.1171 0.320619 0)
(11.3468 0.145304 0)
(11.6576 -0.0407537 0)
(11.9358 -0.39153 0)
(12.1288 -0.638602 0)
(12.3607 -1.02051 0)
(12.5921 -1.41884 0)
(12.5867 -1.72049 0)
(12.6987 -2.08541 0)
(12.6821 -2.43479 0)
(12.5734 -2.63792 0)
(12.2772 -2.78041 0)
(12.1161 -2.94079 0)
(11.7382 -2.91081 0)
(11.2187 -2.81381 0)
(10.7264 -2.55978 0)
(10.3774 -2.28722 0)
(10.1845 -1.86337 0)
(9.87643 -1.47921 0)
(9.62516 -1.11538 0)
(9.50553 -0.637926 0)
(9.39191 -0.221431 0)
(9.28363 0.220485 0)
(9.25552 0.641631 0)
(9.23363 0.993616 0)
(9.16796 1.37121 0)
(9.0284 1.56899 0)
(8.58123 1.60487 0)
(8.20902 1.64186 0)
(7.98903 1.59571 0)
(7.7385 1.61527 0)
(7.83146 1.67477 0)
(8.04716 1.7045 0)
(8.27124 1.70265 0)
(8.5483 1.59564 0)
(8.90519 1.38302 0)
(9.23221 1.13929 0)
(9.54455 0.819195 0)
(9.98458 0.376369 0)
(10.4477 -0.114493 0)
(10.9546 -0.614943 0)
(11.5804 -1.26138 0)
(12.251 -1.99044 0)
(12.9251 -2.7189 0)
(13.6238 -3.48289 0)
(14.2124 -4.20354 0)
(14.6608 -4.88858 0)
(15.1289 -5.45416 0)
(15.3938 -5.89056 0)
(15.5251 -6.2428 0)
(15.5158 -6.43871 0)
(15.5262 -6.59739 0)
(15.4567 -6.54604 0)
(15.3817 -6.4977 0)
(15.3518 -6.38347 0)
(15.3368 -6.10355 0)
(15.2349 -5.88584 0)
(15.224 -5.35199 0)
(14.9788 -5.03723 0)
(14.9584 -4.44322 0)
(14.5622 -3.81028 0)
(14.3172 -3.24846 0)
(14.0114 -2.56766 0)
(13.5601 -2.02134 0)
(13.2402 -1.42221 0)
(12.8393 -0.882837 0)
(12.3633 -0.402025 0)
(12.0307 0.0666196 0)
(11.3476 0.461431 0)
(11.2212 0.949834 0)
(10.4866 1.28084 0)
(10.4168 1.67817 0)
(9.87048 1.9956 0)
(9.51257 2.17665 0)
(9.11598 2.57779 0)
(8.96903 2.76095 0)
(8.22036 2.56452 0)
(8.05678 2.60722 0)
(7.71784 2.7043 0)
(7.33413 2.85427 0)
(6.87158 2.45495 0)
(6.45314 2.47195 0)
(6.1974 2.34695 0)
(5.86222 2.40615 0)
(6.09288 2.35935 0)
(5.95667 2.51486 0)
(6.22818 2.91008 0)
(6.40672 3.08642 0)
(6.65021 3.72901 0)
(7.24696 3.94644 0)
(7.46654 4.28572 0)
(7.62876 4.0897 0)
(8.08772 3.83801 0)
(8.27778 4.02475 0)
(8.80947 3.7395 0)
(9.3351 3.62093 0)
(9.66534 3.08323 0)
(10.2394 2.54213 0)
(10.6114 1.91075 0)
(11.0835 1.2589 0)
(11.5567 0.506771 0)
(11.8916 -0.351477 0)
(12.2626 -0.946065 0)
(12.3984 -1.8025 0)
(12.721 -2.51629 0)
(12.6557 -3.0641 0)
(12.7736 -3.49065 0)
(12.6872 -3.96577 0)
(12.5369 -4.35042 0)
(11.9971 -4.39628 0)
(12.1471 -4.836 0)
(11.6319 -5.05356 0)
(10.6775 -4.63365 0)
(9.92345 -4.70023 0)
(9.61661 -5.21596 0)
(8.7319 -5.25854 0)
(7.62379 -4.92309 0)
(6.90443 -4.96331 0)
(6.71743 -5.53324 0)
(6.92955 -6.23068 0)
(7.20658 -6.84494 0)
(7.4423 -6.90768 0)
(7.79455 -6.39975 0)
(8.06468 -5.63194 0)
(8.30017 -4.98218 0)
(8.5626 -4.3827 0)
(8.71471 -3.42372 0)
(8.93565 -2.35055 0)
(8.96954 -1.31579 0)
(9.09713 -0.100082 0)
(9.10159 1.21168 0)
(9.26577 1.87522 0)
(9.37009 2.5852 0)
(10.0167 3.73382 0)
(9.94548 5.02551 0)
(9.90571 5.91278 0)
(9.38511 5.93947 0)
(8.95818 6.01949 0)
(8.73227 6.22714 0)
(7.98973 6.08956 0)
(7.70534 6.02469 0)
(7.4808 5.88244 0)
(6.72888 6.05883 0)
(7.53497 6.52616 0)
(7.00042 6.54688 0)
(6.68051 6.53918 0)
(7.22579 5.99137 0)
(6.12323 5.46223 0)
(6.85895 5.32238 0)
(6.38226 4.64418 0)
(5.41572 4.96686 0)
(7.0616 4.02918 0)
(3.69623 4.41608 0)
(7.16187 3.22693 0)
(3.00792 4.23853 0)
(7.46766 2.93745 0)
(2.85004 4.69186 0)
(7.4075 2.26284 0)
(3.35531 4.06399 0)
(7.58441 1.59823 0)
(4.17063 3.69095 0)
(7.14567 1.16286 0)
(4.02751 3.5445 0)
(6.55786 0.495438 0)
(4.48933 3.35304 0)
(6.75616 0.619131 0)
(5.97897 3.18409 0)
(11.9062 -0.0145005 0)
(11.8803 -0.0163586 0)
(11.7872 -0.0686541 0)
(11.7176 -0.0899334 0)
(11.766 -0.148571 0)
(11.7706 -0.155235 0)
(11.8662 -0.146425 0)
(11.8822 -0.156066 0)
(11.8997 -0.139961 0)
(11.9156 -0.151606 0)
(11.8708 -0.177915 0)
(11.8973 -0.16557 0)
(11.8648 -0.189109 0)
(11.8787 -0.195285 0)
(11.8743 -0.166483 0)
(11.8618 -0.216782 0)
(11.8617 -0.184974 0)
(11.8564 -0.189325 0)
(11.832 -0.20868 0)
(11.8207 -0.151279 0)
(11.8081 -0.162005 0)
(11.7647 -0.123205 0)
(11.7808 -0.0682767 0)
(11.7598 -0.0207218 0)
(11.7636 0.0421935 0)
(11.7798 0.126137 0)
(11.8101 0.184894 0)
(11.8385 0.242182 0)
(11.9124 0.31975 0)
(11.9859 0.325704 0)
(12.1164 0.36515 0)
(12.2563 0.328159 0)
(12.4205 0.255725 0)
(12.6531 0.154523 0)
(12.7911 -0.0553501 0)
(13.0643 -0.228221 0)
(13.212 -0.527088 0)
(13.3713 -0.813405 0)
(13.4706 -1.10626 0)
(13.525 -1.47749 0)
(13.4705 -1.74046 0)
(13.4098 -2.06975 0)
(13.1952 -2.27307 0)
(12.9341 -2.46301 0)
(12.6586 -2.62886 0)
(12.1707 -2.63304 0)
(11.7245 -2.52683 0)
(11.3492 -2.39675 0)
(11.1037 -2.09327 0)
(10.6074 -1.82008 0)
(10.2059 -1.60432 0)
(9.92321 -1.19978 0)
(9.67425 -0.847873 0)
(9.49507 -0.505417 0)
(9.38469 -0.132605 0)
(9.34252 0.209829 0)
(9.38167 0.590037 0)
(9.54602 0.976478 0)
(9.61152 1.33875 0)
(9.75801 1.61733 0)
(9.7694 1.82034 0)
(9.63084 1.90858 0)
(9.51216 1.84641 0)
(9.27947 1.78941 0)
(9.17624 1.70703 0)
(9.22389 1.54905 0)
(9.25361 1.46348 0)
(9.46897 1.30026 0)
(9.83384 1.02868 0)
(10.1372 0.745445 0)
(10.5251 0.403692 0)
(11.0335 -0.0496974 0)
(11.538 -0.588984 0)
(12.1983 -1.1772 0)
(12.7586 -1.83048 0)
(13.4015 -2.50542 0)
(14.0123 -3.24373 0)
(14.5311 -3.97652 0)
(14.8689 -4.57027 0)
(15.2237 -5.15018 0)
(15.373 -5.63343 0)
(15.3126 -5.97415 0)
(15.3233 -6.25905 0)
(15.2686 -6.42158 0)
(15.2262 -6.47606 0)
(15.1467 -6.49713 0)
(15.2727 -6.50045 0)
(15.2104 -6.37601 0)
(15.2708 -6.10444 0)
(15.1558 -5.87413 0)
(15.055 -5.37825 0)
(14.7968 -4.90591 0)
(14.5596 -4.28246 0)
(14.2595 -3.61728 0)
(13.7604 -2.98789 0)
(13.5796 -2.28675 0)
(12.9975 -1.7052 0)
(12.8033 -1.06415 0)
(12.2893 -0.503927 0)
(11.8183 -0.0802517 0)
(11.5594 0.509553 0)
(10.9688 0.803174 0)
(10.7922 1.3236 0)
(10.2504 1.57271 0)
(9.95854 1.97373 0)
(9.67884 2.37027 0)
(9.23357 2.63308 0)
(8.91392 2.81605 0)
(8.63378 3.14599 0)
(8.2552 2.83122 0)
(7.85415 2.71542 0)
(7.78684 2.85404 0)
(7.2825 3.10758 0)
(7.02789 2.87783 0)
(6.44475 2.71587 0)
(6.35538 2.73772 0)
(5.93045 2.47197 0)
(5.97907 2.42867 0)
(6.07448 2.41839 0)
(6.00404 2.91778 0)
(6.44174 2.84707 0)
(6.51499 3.46315 0)
(7.19775 3.56944 0)
(7.43147 3.98989 0)
(7.84538 3.8189 0)
(8.11885 3.57362 0)
(8.39652 3.59866 0)
(9.0023 3.36124 0)
(9.38071 3.23126 0)
(9.97843 2.67691 0)
(10.3138 2.25872 0)
(10.8568 1.52175 0)
(11.074 0.787848 0)
(11.6616 0.140577 0)
(11.9021 -0.555078 0)
(12.1304 -1.22578 0)
(12.4039 -1.97013 0)
(12.602 -2.49688 0)
(12.7038 -2.93849 0)
(12.5285 -3.50585 0)
(12.7117 -3.97548 0)
(12.3009 -4.01044 0)
(11.9125 -4.08592 0)
(11.8071 -4.48048 0)
(10.9942 -4.34898 0)
(9.95187 -3.84107 0)
(9.28985 -4.30969 0)
(8.82957 -4.73845 0)
(7.65689 -4.53221 0)
(6.69247 -4.3994 0)
(6.09241 -4.71505 0)
(5.95347 -5.56485 0)
(6.18126 -6.48938 0)
(6.3907 -7.08054 0)
(6.60293 -7.15323 0)
(6.94112 -6.59107 0)
(6.96423 -5.90743 0)
(7.23583 -5.31924 0)
(7.40488 -4.57777 0)
(7.40392 -3.73212 0)
(7.65397 -2.5247 0)
(7.72791 -1.47062 0)
(7.88676 -0.13251 0)
(7.80694 1.08942 0)
(8.19775 1.75559 0)
(8.39426 2.29994 0)
(8.95808 3.54932 0)
(8.97148 4.865 0)
(9.04866 5.91414 0)
(8.79504 6.27307 0)
(8.34053 6.25074 0)
(8.29093 6.62341 0)
(8.02506 6.46594 0)
(7.08159 6.30654 0)
(7.23378 6.28317 0)
(6.71739 6.02432 0)
(6.80471 6.525 0)
(7.17243 6.64778 0)
(6.30499 6.3211 0)
(7.02111 6.33659 0)
(6.66288 5.33133 0)
(5.88872 5.39137 0)