/*--------------------------------*- C++ -*----------------------------------*\
| =========                 |                                                 |
| \\      /  F ield         | OpenFOAM: The Open Source CFD Toolbox           |
|  \\    /   O peration     | Version:  2.4.0                                 |
|   \\  /    A nd           | Web:      www.OpenFOAM.org                      |
|    \\/     M anipulation  |                                                 |
\*---------------------------------------------------------------------------*/
FoamFile
{
    version     2.0;
    format      ascii;
    class       volVectorField;
    location    "1.54";
    object      UMean;
}
// * * * * * * * * * * * * * * * * * * * * * * * * * * * * * * * * * * * * * //

dimensions      [0 1 -1 0 0 0 0];

internalField   nonuniform List<vector> 
8800
(
(8.09342 0.387236 0)
(5.45648 0.24264 0)
(3.92606 0.0429558 0)
(3.15974 -0.015166 0)
(2.82056 -0.0184713 0)
(2.59852 -0.0108082 0)
(2.51132 -0.00594913 0)
(2.38021 -0.00188891 0)
(2.35337 -0.00188169 0)
(2.25035 -5.84902e-05 0)
(2.25728 -0.00115407 0)
(2.16644 0.000597402 0)
(2.18988 -0.000690318 0)
(2.09913 0.00114539 0)
(2.12871 -0.000385447 0)
(2.03468 0.00158632 0)
(2.06682 -0.000538259 0)
(1.9652 0.00102875 0)
(2.03393 0.00777009 0)
(1.72496 -0.0635292 0)
(10.0898 0.836343 0)
(9.64885 0.866783 0)
(8.89939 0.505684 0)
(8.06253 0.261888 0)
(7.53434 0.136999 0)
(6.97731 0.082242 0)
(6.75485 0.0524642 0)
(6.36426 0.0408506 0)
(6.30191 0.0278619 0)
(5.98647 0.0249713 0)
(6.0208 0.0165067 0)
(5.73963 0.0187465 0)
(5.82986 0.0126911 0)
(5.55569 0.0176975 0)
(5.67622 0.0123681 0)
(5.39489 0.01753 0)
(5.53751 0.0156111 0)
(5.22879 0.00946937 0)
(5.43828 0.0304775 0)
(5.00334 -0.0432996 0)
(10.0889 0.629937 0)
(10.6223 0.862 0)
(10.9217 0.599374 0)
(10.6341 0.373436 0)
(10.527 0.254023 0)
(10.0139 0.196494 0)
(9.9266 0.150338 0)
(9.41276 0.122773 0)
(9.42699 0.0904163 0)
(8.9455 0.0768205 0)
(9.06287 0.0547028 0)
(8.60591 0.0534952 0)
(8.80131 0.0385366 0)
(8.34674 0.0443783 0)
(8.59613 0.0333997 0)
(8.1257 0.0405154 0)
(8.41783 0.0365953 0)
(7.91099 0.0322927 0)
(8.26308 0.0419328 0)
(7.70495 -0.0451666 0)
(10.0767 0.456713 0)
(10.4814 0.703582 0)
(11.2696 0.543624 0)
(11.2656 0.352597 0)
(11.6725 0.259716 0)
(11.3358 0.227994 0)
(11.6228 0.196499 0)
(11.1638 0.176249 0)
(11.4475 0.142388 0)
(10.9326 0.126672 0)
(11.2531 0.0985071 0)
(10.707 0.0944827 0)
(11.0732 0.0736899 0)
(10.4979 0.0784833 0)
(10.9073 0.0619318 0)
(10.2986 0.0718117 0)
(10.7475 0.0584642 0)
(10.0987 0.0695915 0)
(10.5801 0.0465787 0)
(9.90223 0.0371597 0)
(10.2032 0.34662 0)
(10.2458 0.565869 0)
(11.2114 0.45791 0)
(11.1418 0.295618 0)
(11.8249 0.205688 0)
(11.5064 0.1949 0)
(12.0562 0.173426 0)
(11.6492 0.171958 0)
(12.1678 0.138386 0)
(11.7147 0.136028 0)
(12.2266 0.101493 0)
(11.7385 0.111071 0)
(12.2497 0.079111 0)
(11.7288 0.101314 0)
(12.2396 0.0670346 0)
(11.6874 0.10165 0)
(12.196 0.0598675 0)
(11.6139 0.109788 0)
(12.109 0.0410873 0)
(11.4959 0.0976461 0)
(10.2321 0.249499 0)
(10.1644 0.456083 0)
(11.0532 0.37125 0)
(11.0448 0.250562 0)
(11.6732 0.155248 0)
(11.4773 0.155301 0)
(11.9425 0.135183 0)
(11.6988 0.146233 0)
(12.1178 0.110987 0)
(11.8736 0.118182 0)
(12.2695 0.0809084 0)
(12.0264 0.0979091 0)
(12.4002 0.0638842 0)
(12.1549 0.0919598 0)
(12.5044 0.0573552 0)
(12.2554 0.0952013 0)
(12.5769 0.0562829 0)
(12.3209 0.104785 0)
(12.5996 0.0469891 0)
(12.3039 0.0620229 0)
(10.0979 0.168267 0)
(10.2377 0.359389 0)
(10.8138 0.279682 0)
(11.0684 0.212171 0)
(11.4389 0.108037 0)
(11.517 0.124177 0)
(11.7173 0.0935291 0)
(11.7365 0.125398 0)
(11.893 0.0750082 0)
(11.9163 0.104072 0)
(12.0565 0.0492511 0)
(12.0846 0.0887701 0)
(12.2086 0.0337075 0)
(12.2368 0.0865748 0)
(12.3439 0.0272408 0)
(12.3699 0.09334 0)
(12.4589 0.0246343 0)
(12.4761 0.106582 0)
(12.5284 0.0170363 0)
(12.4802 0.0917691 0)
(9.97631 0.103293 0)
(10.3008 0.263823 0)
(10.6378 0.190168 0)
(11.0787 0.164998 0)
(11.2714 0.0671096 0)
(11.5347 0.0938024 0)
(11.5623 0.0567596 0)
(11.7453 0.100227 0)
(11.7357 0.0441419 0)
(11.9174 0.0846382 0)
(11.9008 0.0246162 0)
(12.0817 0.0736776 0)
(12.0565 0.0125546 0)
(12.2316 0.0725685 0)
(12.1972 0.00733887 0)
(12.3639 0.0782356 0)
(12.3198 0.0046596 0)
(12.4718 0.088472 0)
(12.4009 -0.00288042 0)
(12.4565 0.0765199 0)
(9.89881 0.0546292 0)
(10.3401 0.162692 0)
(10.5228 0.109598 0)
(11.0826 0.10489 0)
(11.1609 0.0348115 0)
(11.5437 0.0601132 0)
(11.4603 0.0287973 0)
(11.7492 0.0659887 0)
(11.6312 0.0218013 0)
(11.9168 0.0558493 0)
(11.797 0.0093671 0)
(12.0799 0.0487652 0)
(11.9544 0.00207063 0)
(12.2303 0.0472606 0)
(12.0967 -0.00136727 0)
(12.3637 0.0491171 0)
(12.2213 -0.003602 0)
(12.4728 0.0509977 0)
(12.2986 -0.0145523 0)
(12.4401 0.0124686 0)
(9.88518 0.00824672 0)
(10.3361 0.0674265 0)
(10.4881 0.0254221 0)
(11.0622 0.0479737 0)
(11.1304 -0.000208529 0)
(11.5268 0.0333808 0)
(11.4372 -0.00265617 0)
(11.7305 0.0367986 0)
(11.6092 -0.00557459 0)
(11.897 0.0334942 0)
(11.7768 -0.0108908 0)
(12.0611 0.0312058 0)
(11.9365 -0.0146741 0)
(12.2133 0.0304215 0)
(12.0806 -0.0181058 0)
(12.3493 0.029468 0)
(12.2069 -0.0226471 0)
(12.461 0.0253218 0)
(12.2819 -0.0355238 0)
(12.427 -0.00396006 0)
(9.9077 -0.0312154 0)
(10.3144 -0.0336324 0)
(10.5112 -0.0555054 0)
(11.045 -0.0171335 0)
(11.156 -0.0312773 0)
(11.5127 -0.00150539 0)
(11.4653 -0.0301477 0)
(11.7197 -0.00189305 0)
(11.6388 -0.0291504 0)
(11.8895 0.00190996 0)
(11.8083 -0.026776 0)
(12.0571 0.00433241 0)
(11.9698 -0.027424 0)
(12.213 0.00371059 0)
(12.1155 -0.03116 0)
(12.3533 -0.000268733 0)
(12.2436 -0.0382694 0)
(12.4695 -0.00850732 0)
(12.3197 -0.0507886 0)
(12.4377 -0.0274167 0)
(9.94388 -0.0754454 0)
(10.2939 -0.1334 0)
(10.5696 -0.137421 0)
(11.0422 -0.0787489 0)
(11.2149 -0.0628567 0)
(11.5073 -0.0329998 0)
(11.5209 -0.058005 0)
(11.7174 -0.0363387 0)
(11.6972 -0.0526709 0)
(11.8905 -0.0256798 0)
(11.8681 -0.042928 0)
(12.06 -0.0184738 0)
(12.0305 -0.040201 0)
(12.2175 -0.0186957 0)
(12.1779 -0.0441449 0)
(12.3594 -0.0255581 0)
(12.3077 -0.0538298 0)
(12.477 -0.0382989 0)
(12.3866 -0.0662225 0)
(12.446 -0.0472354 0)
(9.97329 -0.123438 0)
(10.2932 -0.237452 0)
(10.6424 -0.217122 0)
(11.0687 -0.140912 0)
(11.2851 -0.0939698 0)
(11.5237 -0.0679038 0)
(11.5831 -0.085486 0)
(11.7353 -0.0718747 0)
(11.7624 -0.0754243 0)
(11.9101 -0.0549488 0)
(11.9336 -0.0593934 0)
(12.0789 -0.0430753 0)
(12.0958 -0.053335 0)
(12.2352 -0.0423346 0)
(12.2432 -0.0577583 0)
(12.3755 -0.0514336 0)
(12.3734 -0.0711987 0)
(12.4913 -0.069129 0)
(12.4549 -0.0877382 0)
(12.462 -0.067605 0)
(10.0111 -0.182759 0)
(10.3011 -0.342074 0)
(10.7457 -0.299031 0)
(11.1168 -0.196514 0)
(11.3829 -0.127747 0)
(11.559 -0.106721 0)
(11.6692 -0.114171 0)
(11.7743 -0.107535 0)
(11.851 -0.0978617 0)
(11.9525 -0.0851851 0)
(12.0209 -0.0756762 0)
(12.121 -0.069478 0)
(12.1799 -0.0658833 0)
(12.2752 -0.067789 0)
(12.3227 -0.0694639 0)
(12.4116 -0.0783746 0)
(12.446 -0.0856595 0)
(12.5216 -0.101733 0)
(12.5207 -0.108813 0)
(12.4927 -0.0991749 0)
(10.0537 -0.257956 0)
(10.3178 -0.44686 0)
(10.89 -0.382479 0)
(11.1815 -0.242715 0)
(11.5199 -0.166446 0)
(11.606 -0.146361 0)
(11.7941 -0.145963 0)
(11.8219 -0.139169 0)
(11.9723 -0.122533 0)
(11.9934 -0.111911 0)
(12.1263 -0.0944432 0)
(12.1445 -0.0934243 0)
(12.2591 -0.080616 0)
(12.2717 -0.0908066 0)
(12.3644 -0.0810517 0)
(12.3698 -0.101768 0)
(12.4352 -0.0961212 0)
(12.4275 -0.130017 0)
(12.4416 -0.124866 0)
(12.3448 -0.138984 0)
(10.0491 -0.351656 0)
(10.3937 -0.559585 0)
(11.0444 -0.464535 0)
(11.2978 -0.289778 0)
(11.6529 -0.21333 0)
(11.6644 -0.187899 0)
(11.8762 -0.181333 0)
(11.8106 -0.166093 0)
(11.9778 -0.147656 0)
(11.88 -0.130585 0)
(12.025 -0.11275 0)
(11.9075 -0.106965 0)
(12.0333 -0.0935309 0)
(11.8997 -0.100235 0)
(12.0022 -0.0880378 0)
(11.8554 -0.107816 0)
(11.9245 -0.0970657 0)
(11.7631 -0.136686 0)
(11.766 -0.125304 0)
(11.5412 -0.162176 0)
(10.0025 -0.459829 0)
(10.5606 -0.700087 0)
(11.1664 -0.546383 0)
(11.368 -0.350196 0)
(11.5559 -0.264012 0)
(11.4488 -0.22495 0)
(11.4919 -0.201053 0)
(11.2854 -0.173714 0)
(11.3012 -0.14777 0)
(11.0607 -0.12462 0)
(11.0899 -0.104679 0)
(10.839 -0.0944195 0)
(10.8887 -0.0808883 0)
(10.6297 -0.0832287 0)
(10.6918 -0.0712277 0)
(10.4217 -0.0876664 0)
(10.4786 -0.0746626 0)
(10.1901 -0.115756 0)
(10.1958 -0.0957774 0)
(9.86042 -0.16045 0)
(10.0587 -0.633037 0)
(10.6554 -0.858836 0)
(10.8652 -0.600819 0)
(10.6911 -0.371961 0)
(10.4569 -0.256994 0)
(10.0827 -0.194645 0)
(9.84196 -0.153554 0)
(9.48918 -0.120622 0)
(9.3294 -0.0943446 0)
(9.02556 -0.0747162 0)
(8.95281 -0.0594554 0)
(8.68485 -0.0523446 0)
(8.67583 -0.0445065 0)
(8.41822 -0.0460368 0)
(8.44608 -0.0413184 0)
(8.17873 -0.0503563 0)
(8.21727 -0.0484686 0)
(7.92055 -0.069767 0)
(7.92286 -0.0710631 0)
(7.57596 -0.0895629 0)
(10.0805 -0.837987 0)
(9.65663 -0.864829 0)
(8.87415 -0.506169 0)
(8.09014 -0.261114 0)
(7.49877 -0.138716 0)
(7.01298 -0.0814107 0)
(6.70715 -0.0539953 0)
(6.4051 -0.0397437 0)
(6.24569 -0.029769 0)
(6.02831 -0.0239235 0)
(5.95733 -0.0188078 0)
(5.77745 -0.018209 0)
(5.75738 -0.0155751 0)
(5.58288 -0.0185512 0)
(5.58746 -0.0164869 0)
(5.39934 -0.0228993 0)
(5.40833 -0.0220826 0)
(5.18598 -0.0327312 0)
(5.17473 -0.0384331 0)
(4.87939 -0.0197798 0)
(8.09142 -0.38767 0)
(5.45485 -0.242041 0)
(3.92102 -0.0432606 0)
(3.16861 0.0152724 0)
(2.81078 0.0180066 0)
(2.60846 0.0111577 0)
(2.49597 0.00559214 0)
(2.39177 0.00230167 0)
(2.33509 0.00143781 0)
(2.26183 0.000450195 0)
(2.2359 0.000665829 0)
(2.17546 -0.000236337 0)
(2.16428 0.00015542 0)
(2.10165 -0.00107152 0)
(2.09454 -0.000343079 0)
(2.02189 -0.00224076 0)
(2.00957 -0.00112993 0)
(1.91821 -0.00382273 0)
(1.88029 -0.00429195 0)
(1.72837 0.011332 0)
(2.27825 -0.109652 0)
(2.3168 -0.0215372 0)
(2.56777 -0.00707262 0)
(2.62153 -0.01355 0)
(2.86726 -0.0336674 0)
(2.88554 -0.0382603 0)
(3.10609 -0.0470477 0)
(3.08764 -0.0406476 0)
(3.28279 -0.0466591 0)
(3.23923 -0.0434707 0)
(3.42599 -0.0519091 0)
(3.36733 -0.0498357 0)
(3.55619 -0.0602931 0)
(3.49074 -0.0585375 0)
(3.68416 -0.0689786 0)
(3.61471 -0.0667717 0)
(3.81588 -0.0772045 0)
(3.74443 -0.0747163 0)
(3.95836 -0.0851719 0)
(3.88605 -0.0810201 0)
(4.10773 -0.0938433 0)
(4.0291 -0.0928823 0)
(4.25409 -0.108687 0)
(4.16659 -0.1093 0)
(4.39307 -0.127368 0)
(4.29589 -0.129204 0)
(4.52303 -0.147426 0)
(4.41704 -0.146545 0)
(4.64629 -0.161909 0)
(4.5376 -0.158248 0)
(4.77246 -0.17427 0)
(4.66743 -0.172204 0)
(4.909 -0.191536 0)
(4.80551 -0.191118 0)
(5.04888 -0.21142 0)
(4.94058 -0.20982 0)
(5.1866 -0.229271 0)
(5.07122 -0.225345 0)
(5.32497 -0.244284 0)
(5.20162 -0.240548 0)
(5.46684 -0.261343 0)
(5.33304 -0.260581 0)
(5.60894 -0.28603 0)
(5.46099 -0.288726 0)
(5.74138 -0.317106 0)
(5.57764 -0.318987 0)
(5.85847 -0.347414 0)
(5.68402 -0.344696 0)
(5.96531 -0.371717 0)
(5.78587 -0.363722 0)
(6.07055 -0.388297 0)
(5.88771 -0.375297 0)
(6.18283 -0.397012 0)
(5.99387 -0.380593 0)
(6.30686 -0.401979 0)
(6.10757 -0.384446 0)
(6.44316 -0.407102 0)
(6.23029 -0.389272 0)
(6.58722 -0.413117 0)
(6.35842 -0.395884 0)
(6.73404 -0.423804 0)
(6.49539 -0.409675 0)
(6.88586 -0.445288 0)
(6.64654 -0.436879 0)
(7.04087 -0.48225 0)
(6.80429 -0.478886 0)
(7.18985 -0.530084 0)
(6.94952 -0.528491 0)
(7.32347 -0.579212 0)
(7.07374 -0.575383 0)
(7.44434 -0.626426 0)
(7.18364 -0.617167 0)
(7.5559 -0.665056 0)
(7.28336 -0.650055 0)
(7.67054 -0.696215 0)
(7.3878 -0.676047 0)
(7.79538 -0.721016 0)
(7.50969 -0.697067 0)
(7.93613 -0.745195 0)
(7.64941 -0.717566 0)
(8.09283 -0.768221 0)
(7.80048 -0.7374 0)
(8.25749 -0.78647 0)
(7.9548 -0.755744 0)
(8.42029 -0.806229 0)
(8.11315 -0.776052 0)
(8.56935 -0.833157 0)
(8.27196 -0.803841 0)
(8.70326 -0.865029 0)
(8.41856 -0.836042 0)
(8.82277 -0.896904 0)
(8.5473 -0.865515 0)
(8.92516 -0.92428 0)
(8.65368 -0.891491 0)
(9.0139 -0.950255 0)
(8.74611 -0.914172 0)
(9.09382 -0.973281 0)
(8.82703 -0.934879 0)
(9.16987 -0.99452 0)
(8.91273 -0.954745 0)
(9.25401 -1.01732 0)
(9.00221 -0.974949 0)
(9.34828 -1.04276 0)
(9.09412 -0.995217 0)
(9.44121 -1.06076 0)
(9.17559 -1.00164 0)
(9.51546 -1.06953 0)
(9.23552 -1.00291 0)
(9.56184 -1.07246 0)
(9.27186 -0.997123 0)
(9.58532 -1.06818 0)
(9.28644 -0.989399 0)
(9.58473 -1.05867 0)
(9.27774 -0.973145 0)
(9.56785 -1.0428 0)
(9.26913 -0.950425 0)
(9.55478 -1.01739 0)
(9.2736 -0.921139 0)
(9.54685 -0.988491 0)
(9.27791 -0.890462 0)
(9.53824 -0.957256 0)
(9.28301 -0.858811 0)
(9.53456 -0.928693 0)
(9.28682 -0.828255 0)
(9.5308 -0.902009 0)
(9.27856 -0.80205 0)
(9.52631 -0.873585 0)
(9.26278 -0.768763 0)
(9.51822 -0.833536 0)
(9.25235 -0.724478 0)
(9.50425 -0.782269 0)
(9.24839 -0.672067 0)
(9.48279 -0.727619 0)
(9.24343 -0.619788 0)
(9.45673 -0.67693 0)
(9.23505 -0.569414 0)
(9.42894 -0.619988 0)
(9.22243 -0.507844 0)
(9.40736 -0.553788 0)
(9.21476 -0.444743 0)
(9.38832 -0.492601 0)
(9.2065 -0.386905 0)
(9.35924 -0.428034 0)
(9.19394 -0.328604 0)
(9.32519 -0.366813 0)
(9.17828 -0.27043 0)
(9.27783 -0.292313 0)
(9.15172 -0.19786 0)
(9.22374 -0.215622 0)
(9.12377 -0.121113 0)
(9.16432 -0.138222 0)
(9.08532 -0.0359819 0)
(9.11014 -0.0434599 0)
(9.04223 0.0602348 0)
(9.06056 0.0494029 0)
(9.0036 0.160875 0)
(9.01633 0.153962 0)
(8.94877 0.263814 0)
(8.9764 0.255543 0)
(8.89826 0.373498 0)
(8.94034 0.346087 0)
(8.83964 0.474353 0)
(8.90954 0.437058 0)
(8.7669 0.567922 0)
(8.86574 0.523542 0)
(8.6804 0.662109 0)
(8.82515 0.608455 0)
(8.59468 0.752189 0)
(8.77756 0.692017 0)
(8.50668 0.850326 0)
(8.71311 0.766126 0)
(8.39498 0.944504 0)
(8.65055 0.851696 0)
(8.2465 1.05388 0)
(8.57951 0.937909 0)
(8.0972 1.19031 0)
(8.49962 1.03646 0)
(7.94141 1.33074 0)
(8.43177 1.13994 0)
(7.80739 1.48799 0)
(8.35575 1.26404 0)
(7.68717 1.65616 0)
(8.27356 1.41048 0)
(7.56681 1.82922 0)
(8.15727 1.56969 0)
(7.44117 2.00847 0)
(7.99101 1.75451 0)
(7.29635 2.20563 0)
(7.79737 1.9842 0)
(7.11045 2.43015 0)
(7.57911 2.25933 0)
(6.86001 2.70594 0)
(7.30149 2.61177 0)
(6.546 3.10485 0)
(6.89579 3.07698 0)
(6.16721 3.77255 0)
(6.37678 3.79475 0)
(5.47364 4.90353 0)
(6.45373 5.42351 0)
(4.12253 8.40189 0)
(5.34563 -0.0736938 0)
(5.2475 -0.0382644 0)
(5.38912 -0.0427549 0)
(5.31625 -0.060091 0)
(5.51989 -0.0900751 0)
(5.46147 -0.0988435 0)
(5.6702 -0.1082 0)
(5.58415 -0.0987252 0)
(5.77668 -0.100062 0)
(5.6631 -0.0913261 0)
(5.85353 -0.0983771 0)
(5.72796 -0.0948737 0)
(5.92926 -0.106497 0)
(5.79979 -0.104632 0)
(6.01455 -0.116952 0)
(5.88139 -0.114536 0)
(6.10832 -0.126895 0)
(5.96996 -0.123561 0)
(6.20743 -0.13642 0)
(6.06356 -0.132625 0)
(6.3099 -0.146649 0)
(6.15899 -0.144293 0)
(6.41139 -0.160422 0)
(6.25135 -0.159071 0)
(6.50909 -0.176951 0)
(6.33997 -0.176039 0)
(6.60352 -0.194313 0)
(6.42648 -0.191975 0)
(6.69612 -0.209838 0)
(6.51279 -0.206277 0)
(6.79043 -0.224944 0)
(6.60237 -0.221782 0)
(6.8893 -0.242791 0)
(6.69479 -0.240321 0)
(6.98976 -0.262156 0)
(6.78491 -0.258164 0)
(7.08747 -0.279211 0)
(6.8712 -0.273232 0)
(7.1821 -0.294396 0)
(6.95579 -0.288238 0)
(7.27533 -0.31195 0)
(7.04167 -0.30716 0)
(7.36795 -0.335044 0)
(7.12839 -0.331601 0)
(7.4583 -0.362298 0)
(7.21225 -0.357853 0)
(7.54413 -0.388867 0)
(7.29004 -0.381746 0)
(7.62553 -0.411305 0)
(7.36104 -0.400775 0)
(7.70505 -0.428104 0)
(7.42681 -0.413719 0)
(7.78496 -0.439375 0)
(7.49075 -0.42148 0)
(7.86698 -0.446964 0)
(7.55764 -0.42714 0)
(7.95309 -0.454166 0)
(7.63237 -0.434415 0)
(8.04547 -0.464514 0)
(7.71824 -0.445779 0)
(8.14502 -0.480381 0)
(7.81514 -0.464072 0)
(8.2503 -0.505285 0)
(7.92038 -0.492701 0)
(8.35782 -0.541037 0)
(8.02949 -0.531245 0)
(8.46324 -0.583291 0)
(8.13475 -0.574871 0)
(8.56575 -0.629479 0)
(8.23405 -0.620726 0)
(8.66516 -0.673689 0)
(8.32566 -0.659403 0)
(8.76177 -0.710824 0)
(8.41447 -0.691619 0)
(8.85825 -0.744364 0)
(8.5074 -0.719416 0)
(8.95732 -0.773882 0)
(8.60708 -0.744617 0)
(9.0609 -0.800916 0)
(8.71087 -0.769293 0)
(9.17098 -0.826024 0)
(8.81761 -0.790381 0)
(9.28232 -0.84769 0)
(8.92863 -0.808364 0)
(9.38798 -0.866578 0)
(9.04187 -0.827231 0)
(9.48731 -0.890127 0)
(9.15352 -0.851312 0)
(9.57701 -0.917207 0)
(9.25513 -0.878642 0)
(9.65759 -0.943239 0)
(9.34284 -0.900633 0)
(9.72341 -0.964506 0)
(9.41178 -0.920455 0)
(9.77489 -0.984516 0)
(9.46585 -0.937864 0)
(9.81849 -1.00282 0)
(9.51241 -0.95636 0)
(9.86252 -1.02498 0)
(9.5605 -0.979332 0)
(9.91225 -1.05243 0)
(9.61164 -1.00287 0)
(9.96515 -1.07999 0)
(9.65616 -1.01982 0)
(10.008 -1.0903 0)
(9.6882 -1.01893 0)
(10.0308 -1.08878 0)
(9.70339 -1.01029 0)
(10.0322 -1.0847 0)
(9.69987 -0.999034 0)
(10.0167 -1.07302 0)
(9.67599 -0.977634 0)
(9.9786 -1.05367 0)
(9.63797 -0.956111 0)
(9.93504 -1.037 0)
(9.60752 -0.936938 0)
(9.89669 -1.01776 0)
(9.5836 -0.911379 0)
(9.86651 -0.988904 0)
(9.558 -0.881283 0)
(9.8412 -0.958268 0)
(9.53188 -0.850352 0)
(9.81872 -0.929017 0)
(9.50555 -0.81629 0)
(9.79439 -0.898643 0)
(9.47123 -0.78352 0)
(9.76331 -0.869614 0)
(9.433 -0.750711 0)
(9.7268 -0.830095 0)
(9.39741 -0.708171 0)
(9.68831 -0.781642 0)
(9.36527 -0.65686 0)
(9.64989 -0.72506 0)
(9.33456 -0.603768 0)
(9.61024 -0.670658 0)
(9.29291 -0.550758 0)
(9.56833 -0.614078 0)
(9.2556 -0.495699 0)
(9.53357 -0.552581 0)
(9.23103 -0.437128 0)
(9.50273 -0.4914 0)
(9.20653 -0.375131 0)
(9.46618 -0.426491 0)
(9.17581 -0.310062 0)
(9.42786 -0.361366 0)
(9.1331 -0.243626 0)
(9.3819 -0.283722 0)
(9.09182 -0.171225 0)
(9.33539 -0.207531 0)
(9.06365 -0.0937924 0)
(9.28266 -0.123441 0)
(9.02801 -0.00920123 0)
(9.22587 -0.0368801 0)
(8.99265 0.0839589 0)
(9.17934 0.0551531 0)
(8.95036 0.186508 0)
(9.14089 0.156797 0)
(8.89964 0.294163 0)
(9.11434 0.252492 0)
(8.85381 0.407789 0)
(9.09355 0.340889 0)
(8.7985 0.513486 0)
(9.07442 0.435022 0)
(8.74626 0.613969 0)
(9.04895 0.518085 0)
(8.69747 0.709225 0)
(9.01698 0.591263 0)
(8.64691 0.810974 0)
(8.96285 0.668084 0)
(8.58337 0.922925 0)
(8.91845 0.746096 0)
(8.4793 1.03164 0)
(8.8723 0.837442 0)
(8.3578 1.15664 0)
(8.8062 0.921986 0)
(8.2244 1.28766 0)
(8.76122 1.01332 0)
(8.09073 1.42536 0)
(8.72795 1.11089 0)
(7.96588 1.57877 0)
(8.6983 1.24257 0)
(7.85971 1.74601 0)
(8.64779 1.39962 0)
(7.7668 1.92164 0)
(8.56504 1.57034 0)
(7.66564 2.10064 0)
(8.46503 1.76853 0)
(7.52952 2.3006 0)
(8.34658 2.00161 0)
(7.3829 2.56085 0)
(8.18433 2.28312 0)
(7.24097 2.90566 0)
(7.94897 2.62519 0)
(7.07766 3.38878 0)
(7.67873 3.1043 0)
(6.78276 4.0783 0)
(7.66111 3.90194 0)
(6.10986 5.32223 0)
(8.55542 4.74077 0)
(6.56317 8.87452 0)
(8.03713 -0.0867973 0)
(7.89066 -0.0663274 0)
(8.04682 -0.080289 0)
(7.91984 -0.0924627 0)
(8.13472 -0.117308 0)
(8.02384 -0.119171 0)
(8.24374 -0.127194 0)
(8.10159 -0.114638 0)
(8.30425 -0.117046 0)
(8.13299 -0.105833 0)
(8.33577 -0.114899 0)
(8.15468 -0.110323 0)
(8.3714 -0.125634 0)
(8.18791 -0.124033 0)
(8.42023 -0.141109 0)
(8.23383 -0.138669 0)
(8.47894 -0.155066 0)
(8.2869 -0.150678 0)
(8.54114 -0.166477 0)
(8.34162 -0.161144 0)
(8.6032 -0.177728 0)
(8.39584 -0.172954 0)
(8.66402 -0.19118 0)
(8.44854 -0.187083 0)
(8.72331 -0.206779 0)
(8.49998 -0.202902 0)
(8.78173 -0.223294 0)
(8.5506 -0.21875 0)
(8.83948 -0.239329 0)
(8.5994 -0.234052 0)
(8.89598 -0.255459 0)
(8.64606 -0.25038 0)
(8.95143 -0.273485 0)
(8.69027 -0.268623 0)
(9.00465 -0.292647 0)
(8.73138 -0.286394 0)
(9.05494 -0.310225 0)
(8.77137 -0.301661 0)
(9.10346 -0.325984 0)
(8.81291 -0.31613 0)
(9.15206 -0.342855 0)
(8.85828 -0.333554 0)
(9.20249 -0.363923 0)
(8.90633 -0.35581 0)
(9.25383 -0.388718 0)
(8.95337 -0.380505 0)
(9.30366 -0.413798 0)
(8.99501 -0.403412 0)
(9.34964 -0.435344 0)
(9.02952 -0.421414 0)
(9.392 -0.451615 0)
(9.05843 -0.433807 0)
(9.43169 -0.463037 0)
(9.08479 -0.441946 0)
(9.47007 -0.471932 0)
(9.11388 -0.449098 0)
(9.51029 -0.482237 0)
(9.15143 -0.459571 0)
(9.55585 -0.497259 0)
(9.19979 -0.475271 0)
(9.60744 -0.516598 0)
(9.25604 -0.495973 0)
(9.66305 -0.541301 0)
(9.31476 -0.523933 0)
(9.72024 -0.573941 0)
(9.37146 -0.559718 0)
(9.77736 -0.6146 0)
(9.42759 -0.602855 0)
(9.83729 -0.661871 0)
(9.48348 -0.648952 0)
(9.89478 -0.707209 0)
(9.53626 -0.688839 0)
(9.95124 -0.744583 0)
(9.58791 -0.722218 0)
(10.0072 -0.77841 0)
(9.6398 -0.75149 0)
(10.0611 -0.808403 0)
(9.69294 -0.777208 0)
(10.115 -0.83668 0)
(9.75066 -0.803183 0)
(10.1715 -0.863023 0)
(9.81279 -0.824804 0)
(10.2298 -0.885078 0)
(9.87864 -0.840636 0)
(10.2854 -0.902091 0)
(9.94598 -0.857595 0)
(10.3373 -0.921115 0)
(10.0063 -0.877331 0)
(10.3821 -0.944588 0)
(10.0575 -0.900883 0)
(10.4174 -0.965843 0)
(10.0963 -0.917483 0)
(10.438 -0.98257 0)
(10.1201 -0.931632 0)
(10.4455 -0.997332 0)
(10.1334 -0.945454 0)
(10.4429 -1.01477 0)
(10.142 -0.963912 0)
(10.4442 -1.0385 0)
(10.151 -0.987351 0)
(10.4466 -1.06778 0)
(10.158 -1.01139 0)
(10.4407 -1.09345 0)
(10.1507 -1.0231 0)
(10.4218 -1.09742 0)
(10.1331 -1.01663 0)
(10.3919 -1.09008 0)
(10.1075 -1.0019 0)
(10.3518 -1.07727 0)
(10.0665 -0.980062 0)
(10.2926 -1.05574 0)
(10.0089 -0.950352 0)
(10.221 -1.03248 0)
(9.95625 -0.930638 0)
(10.1571 -1.01847 0)
(9.90552 -0.91188 0)
(10.0891 -1.00037 0)
(9.84721 -0.887034 0)
(10.0261 -0.976346 0)
(9.79314 -0.857066 0)
(9.97452 -0.948615 0)
(9.74438 -0.824978 0)
(9.92664 -0.918872 0)
(9.69693 -0.790516 0)
(9.87715 -0.886325 0)
(9.64771 -0.755089 0)
(9.82099 -0.855246 0)
(9.59048 -0.721361 0)
(9.7545 -0.816518 0)
(9.52898 -0.676436 0)
(9.68803 -0.767052 0)
(9.4628 -0.62348 0)
(9.63265 -0.713815 0)
(9.40157 -0.570537 0)
(9.57851 -0.655921 0)
(9.3351 -0.51545 0)
(9.52227 -0.604022 0)
(9.2797 -0.467432 0)
(9.47086 -0.547657 0)
(9.23207 -0.410461 0)
(9.42393 -0.489532 0)
(9.19009 -0.34411 0)
(9.3686 -0.422211 0)
(9.14504 -0.275563 0)
(9.32077 -0.354955 0)
(9.09605 -0.203857 0)
(9.2779 -0.277052 0)
(9.05033 -0.129452 0)
(9.23945 -0.204437 0)
(9.01435 -0.0520526 0)
(9.19539 -0.124659 0)
(8.99777 0.0379061 0)
(9.15131 -0.0464352 0)
(8.96922 0.127433 0)
(9.11637 0.0452242 0)
(8.92398 0.237384 0)
(9.08239 0.138635 0)
(8.87968 0.34649 0)
(9.05311 0.231499 0)
(8.83263 0.457656 0)
(9.03177 0.327722 0)
(8.78669 0.562202 0)
(9.01724 0.415262 0)
(8.75934 0.661041 0)
(9.00269 0.494422 0)
(8.73243 0.761226 0)
(8.97669 0.5711 0)
(8.69669 0.871212 0)
(8.9518 0.656045 0)
(8.6327 0.985719 0)
(8.94378 0.73739 0)
(8.53496 1.10784 0)
(8.9324 0.830904 0)
(8.41666 1.24452 0)
(8.93303 0.923462 0)
(8.2832 1.3723 0)
(8.94508 1.00623 0)
(8.1647 1.50453 0)
(8.9457 1.10074 0)
(8.05803 1.64851 0)
(8.93094 1.22143 0)
(7.98043 1.82054 0)
(8.89608 1.37373 0)
(7.90716 2.00967 0)
(8.85255 1.54684 0)
(7.81859 2.21282 0)
(8.79169 1.73783 0)
(7.73658 2.45146 0)
(8.68438 1.94986 0)
(7.67803 2.73227 0)
(8.55179 2.21615 0)
(7.61989 3.09585 0)
(8.45975 2.57276 0)
(7.48543 3.5689 0)
(8.56595 3.06923 0)
(7.16566 4.30964 0)
(9.09936 3.5768 0)
(6.86456 5.86271 0)
(9.81411 3.65129 0)
(8.22782 8.14818 0)
(10.2899 -0.102403 0)
(10.1192 -0.146727 0)
(10.2929 -0.184071 0)
(10.1378 -0.178105 0)
(10.3589 -0.180163 0)
(10.2142 -0.155933 0)
(10.4349 -0.152232 0)
(10.2591 -0.129148 0)
(10.4643 -0.132038 0)
(10.2636 -0.116267 0)
(10.4697 -0.128285 0)
(10.261 -0.120165 0)
(10.4792 -0.139481 0)
(10.269 -0.13506 0)
(10.5008 -0.156829 0)
(10.2883 -0.151661 0)
(10.5306 -0.172601 0)
(10.3128 -0.164968 0)
(10.5629 -0.184743 0)
(10.3383 -0.175478 0)
(10.5952 -0.195497 0)
(10.3633 -0.186127 0)
(10.6263 -0.207673 0)
(10.387 -0.198867 0)
(10.6558 -0.222074 0)
(10.4091 -0.213522 0)
(10.6832 -0.237771 0)
(10.4292 -0.22864 0)
(10.7084 -0.253393 0)
(10.4469 -0.243478 0)
(10.7307 -0.26889 0)
(10.4612 -0.258579 0)
(10.7496 -0.285156 0)
(10.4721 -0.274771 0)
(10.765 -0.302501 0)
(10.4799 -0.291304 0)
(10.7775 -0.319688 0)
(10.4864 -0.307369 0)
(10.7896 -0.336739 0)
(10.4942 -0.3238 0)
(10.8034 -0.354985 0)
(10.5045 -0.342802 0)
(10.8196 -0.376681 0)
(10.5161 -0.365328 0)
(10.8364 -0.401299 0)
(10.5263 -0.389305 0)
(10.8509 -0.425615 0)
(10.5327 -0.410719 0)
(10.8616 -0.445858 0)
(10.5354 -0.426717 0)
(10.8689 -0.46033 0)
(10.536 -0.437081 0)
(10.8735 -0.469852 0)
(10.5367 -0.443903 0)
(10.8777 -0.478025 0)
(10.5414 -0.451651 0)
(10.8847 -0.489454 0)
(10.5519 -0.463874 0)
(10.8951 -0.505591 0)
(10.5653 -0.480714 0)
(10.9062 -0.525975 0)
(10.579 -0.502298 0)
(10.9172 -0.551442 0)
(10.5919 -0.529902 0)
(10.927 -0.583166 0)
(10.6029 -0.565541 0)
(10.9377 -0.625233 0)
(10.6141 -0.611654 0)
(10.95 -0.6733 0)
(10.6227 -0.657542 0)
(10.9595 -0.718551 0)
(10.6256 -0.69784 0)
(10.9651 -0.756024 0)
(10.6283 -0.731871 0)
(10.9684 -0.788994 0)
(10.6283 -0.761354 0)
(10.9689 -0.818283 0)
(10.6321 -0.788736 0)
(10.9739 -0.848912 0)
(10.6466 -0.816495 0)
(10.9843 -0.875654 0)
(10.668 -0.839282 0)
(10.9967 -0.896193 0)
(10.6897 -0.854271 0)
(11.0094 -0.912884 0)
(10.7095 -0.868973 0)
(11.0178 -0.928767 0)
(10.7223 -0.888333 0)
(11.0219 -0.950826 0)
(10.729 -0.907424 0)
(11.0146 -0.967237 0)
(10.7222 -0.917168 0)
(10.9928 -0.977929 0)
(10.7035 -0.925443 0)
(10.962 -0.989476 0)
(10.6787 -0.935996 0)
(10.9221 -1.00733 0)
(10.6504 -0.95607 0)
(10.8829 -1.03317 0)
(10.6185 -0.978582 0)
(10.8399 -1.05899 0)
(10.5787 -0.997963 0)
(10.7851 -1.07989 0)
(10.5289 -1.00589 0)
(10.7244 -1.08231 0)
(10.4733 -0.998516 0)
(10.6581 -1.07326 0)
(10.4101 -0.97859 0)
(10.58 -1.05292 0)
(10.3334 -0.948887 0)
(10.4828 -1.02216 0)
(10.2465 -0.917771 0)
(10.3908 -1.00514 0)
(10.1755 -0.903341 0)
(10.3022 -0.989802 0)
(10.094 -0.879164 0)
(10.2046 -0.96739 0)
(10.0016 -0.852177 0)
(10.104 -0.947915 0)
(9.91625 -0.823737 0)
(10.0183 -0.925554 0)
(9.84046 -0.794279 0)
(9.94635 -0.896742 0)
(9.76818 -0.76398 0)
(9.87876 -0.86509 0)
(9.69712 -0.731371 0)
(9.8036 -0.829007 0)
(9.61836 -0.690185 0)
(9.71688 -0.784595 0)
(9.53267 -0.64248 0)
(9.62832 -0.736157 0)
(9.44605 -0.59245 0)
(9.54881 -0.687508 0)
(9.36487 -0.539204 0)
(9.47442 -0.630896 0)
(9.28303 -0.485777 0)
(9.40445 -0.582592 0)
(9.20513 -0.439731 0)
(9.33385 -0.530941 0)
(9.13398 -0.382868 0)
(9.27158 -0.473834 0)
(9.06323 -0.31141 0)
(9.20996 -0.40575 0)
(9.00126 -0.243156 0)
(9.16545 -0.345178 0)
(8.94888 -0.170366 0)
(9.12693 -0.272469 0)
(8.90184 -0.0981631 0)
(9.09964 -0.205479 0)
(8.86478 -0.0235104 0)
(9.0767 -0.138126 0)
(8.83954 0.0649721 0)
(9.07184 -0.0532982 0)
(8.79265 0.160177 0)
(9.06076 0.0413104 0)
(8.75096 0.27593 0)
(9.03139 0.134763 0)
(8.71168 0.393483 0)
(9.0036 0.231542 0)
(8.65798 0.492471 0)
(8.98864 0.314336 0)
(8.62404 0.595358 0)
(8.99478 0.387571 0)
(8.58298 0.690976 0)
(9.02231 0.467976 0)
(8.53451 0.795577 0)
(9.03476 0.54834 0)
(8.47889 0.90991 0)
(9.05851 0.634664 0)
(8.41597 1.03579 0)
(9.08048 0.713862 0)
(8.34116 1.17423 0)
(9.10492 0.800367 0)
(8.24969 1.30887 0)
(9.14202 0.882445 0)
(8.17566 1.43221 0)
(9.1501 0.968041 0)
(8.12752 1.56391 0)
(9.13015 1.06825 0)
(8.09141 1.71321 0)
(9.0962 1.18358 0)
(8.06604 1.89729 0)
(9.06868 1.32615 0)
(8.04618 2.09766 0)
(9.04882 1.49004 0)
(8.03333 2.31656 0)
(9.01293 1.66815 0)
(8.02675 2.56103 0)
(8.99448 1.89221 0)
(7.9832 2.855 0)
(9.02937 2.15677 0)
(7.88864 3.23365 0)
(9.19874 2.4745 0)
(7.70688 3.76637 0)
(9.58663 2.76774 0)
(7.53498 4.68415 0)
(10.1763 2.88231 0)
(7.85344 6.1008 0)
(10.4186 3.0945 0)
(9.2287 7.14603 0)
(11.7806 -0.0883574 0)
(11.6448 -0.167005 0)
(11.8385 -0.226035 0)
(11.7269 -0.214019 0)
(11.9212 -0.209761 0)
(11.7888 -0.168386 0)
(11.9661 -0.16061 0)
(11.803 -0.128806 0)
(11.9672 -0.135997 0)
(11.7864 -0.116599 0)
(11.9514 -0.135219 0)
(11.7659 -0.123565 0)
(11.9407 -0.148723 0)
(11.7561 -0.139854 0)
(11.9422 -0.166823 0)
(11.7575 -0.156951 0)
(11.9524 -0.183006 0)
(11.7646 -0.170626 0)
(11.9655 -0.195433 0)
(11.7725 -0.18121 0)
(11.9781 -0.206089 0)
(11.7786 -0.19144 0)
(11.988 -0.217682 0)
(11.7817 -0.203369 0)
(11.9945 -0.231226 0)
(11.7814 -0.217022 0)
(11.9978 -0.246015 0)
(11.7784 -0.231165 0)
(11.9986 -0.260821 0)
(11.7738 -0.244921 0)
(11.9976 -0.275113 0)
(11.7682 -0.258283 0)
(11.9949 -0.289534 0)
(11.7619 -0.272173 0)
(11.9904 -0.304704 0)
(11.7548 -0.286891 0)
(11.9842 -0.320743 0)
(11.7468 -0.302716 0)
(11.9774 -0.337959 0)
(11.7383 -0.320205 0)
(11.9704 -0.357282 0)
(11.7291 -0.340356 0)
(11.9632 -0.379498 0)
(11.7181 -0.363015 0)
(11.9545 -0.403667 0)
(11.7045 -0.386142 0)
(11.9429 -0.426891 0)
(11.6878 -0.40664 0)
(11.9276 -0.446148 0)
(11.6685 -0.42192 0)
(11.9083 -0.459835 0)
(11.6482 -0.431703 0)
(11.8871 -0.46929 0)
(11.6302 -0.439332 0)
(11.8674 -0.478686 0)
(11.6165 -0.448606 0)
(11.8502 -0.490358 0)
(11.6039 -0.460761 0)
(11.8327 -0.5049 0)
(11.5885 -0.476856 0)
(11.8143 -0.524214 0)
(11.5691 -0.497981 0)
(11.7946 -0.548407 0)
(11.5454 -0.523881 0)
(11.774 -0.579135 0)
(11.5208 -0.559098 0)
(11.7542 -0.620662 0)
(11.4938 -0.603101 0)
(11.7276 -0.666593 0)
(11.4597 -0.646475 0)
(11.6936 -0.709012 0)
(11.4197 -0.684996 0)
(11.6547 -0.746565 0)
(11.3802 -0.718639 0)
(11.6121 -0.778764 0)
(11.3399 -0.748681 0)
(11.5694 -0.810527 0)
(11.3079 -0.781094 0)
(11.5381 -0.845353 0)
(11.2868 -0.812165 0)
(11.5127 -0.873866 0)
(11.269 -0.836202 0)
(11.4882 -0.893263 0)
(11.251 -0.85252 0)
(11.4661 -0.909627 0)
(11.2282 -0.866038 0)
(11.4433 -0.925193 0)
(11.2035 -0.883998 0)
(11.4154 -0.94448 0)
(11.1723 -0.895455 0)
(11.3748 -0.953165 0)
(11.1271 -0.899569 0)
(11.3262 -0.962007 0)
(11.077 -0.90577 0)
(11.2724 -0.973619 0)
(11.0249 -0.91473 0)
(11.2103 -0.991388 0)
(10.9699 -0.932269 0)
(11.1387 -1.01545 0)
(10.9077 -0.953022 0)
(11.0626 -1.0369 0)
(10.8392 -0.967822 0)
(10.9813 -1.05332 0)
(10.7642 -0.973295 0)
(10.8928 -1.05183 0)
(10.6785 -0.963347 0)
(10.7917 -1.03865 0)
(10.5818 -0.938725 0)
(10.6751 -1.01297 0)
(10.4719 -0.902222 0)
(10.546 -0.979256 0)
(10.3707 -0.878068 0)
(10.4342 -0.969154 0)
(10.2693 -0.859895 0)
(10.3123 -0.94702 0)
(10.1562 -0.828035 0)
(10.1845 -0.920501 0)
(10.035 -0.798228 0)
(10.0596 -0.903771 0)
(9.91973 -0.776091 0)
(9.94877 -0.888888 0)
(9.81265 -0.752681 0)
(9.85546 -0.864471 0)
(9.71332 -0.72509 0)
(9.76775 -0.83343 0)
(9.61633 -0.689778 0)
(9.6697 -0.795497 0)
(9.51682 -0.644152 0)
(9.56734 -0.749321 0)
(9.41195 -0.594495 0)
(9.46454 -0.701916 0)
(9.31122 -0.548953 0)
(9.36276 -0.653574 0)
(9.21604 -0.495465 0)
(9.2685 -0.601845 0)
(9.12661 -0.443194 0)
(9.18357 -0.552075 0)
(9.02789 -0.394095 0)
(9.09642 -0.50528 0)
(8.93086 -0.337262 0)
(9.01957 -0.448701 0)
(8.8364 -0.269944 0)
(8.95846 -0.390095 0)
(8.77008 -0.210627 0)
(8.90769 -0.33607 0)
(8.71287 -0.132068 0)