/*--------------------------------*- C++ -*----------------------------------*\
| =========                 |                                                 |
| \\      /  F ield         | OpenFOAM: The Open Source CFD Toolbox           |
|  \\    /   O peration     | Version:  2.4.0                                 |
|   \\  /    A nd           | Web:      www.OpenFOAM.org                      |
|    \\/     M anipulation  |                                                 |
\*---------------------------------------------------------------------------*/
FoamFile
{
    version     2.0;
    format      ascii;
    class       volScalarField;
    location    "1.16";
    object      p;
}
// * * * * * * * * * * * * * * * * * * * * * * * * * * * * * * * * * * * * * //

dimensions      [0 2 -2 0 0 0 0];

internalField   nonuniform List<scalar> 
4400
(
-21.8044
-21.6015
-22.4194
-22.2481
-22.0485
-22.6117
-22.3046
-22.7112
-22.8688
-22.3624
-23.2845
-22.7964
-22.7851
-23.3996
-23.0079
-23.1326
-23.2175
-23.0455
-21.9748
-19.4638
-21.8931
-21.6406
-22.437
-22.1533
-22.0394
-22.6153
-22.2873
-22.7203
-22.9138
-22.353
-23.2545
-22.8094
-22.7951
-23.4049
-22.9998
-23.1825
-23.2633
-23.0967
-22.1354
-20.6579
-21.9815
-21.6184
-22.3989
-22.2667
-22.0791
-22.6317
-22.3229
-22.6812
-22.9238
-22.3784
-23.2281
-22.8168
-22.8022
-23.4273
-23.0311
-23.2382
-23.2863
-23.1986
-22.4738
-21.3324
-22.0515
-21.6154
-22.3618
-22.2856
-22.0886
-22.5777
-22.3078
-22.6627
-22.9341
-22.3792
-23.2342
-22.8745
-22.7732
-23.531
-23.1288
-23.3137
-23.2976
-23.163
-22.7623
-22.0603
-22.0937
-21.612
-22.3124
-22.3372
-22.0762
-22.5507
-22.3333
-22.6174
-22.9225
-22.4393
-23.2693
-22.9252
-22.7932
-23.6985
-23.3631
-23.4476
-23.3218
-23.3019
-23.1519
-22.6103
-22.1208
-21.615
-22.2811
-22.3664
-22.0666
-22.584
-22.3447
-22.6067
-22.9446
-22.4743
-23.2643
-22.9876
-22.8033
-23.8643
-23.5419
-23.5076
-23.453
-23.456
-23.4431
-23.346
-22.142
-21.6151
-22.2318
-22.4188
-22.0859
-22.5815
-22.3762
-22.5715
-22.9505
-22.514
-23.2319
-23.0205
-22.8445
-23.9743
-23.5813
-23.5255
-23.6219
-23.6179
-23.7314
-24.0101
-22.1557
-21.6068
-22.1871
-22.4506
-22.0763
-22.5766
-22.3863
-22.5455
-22.9644
-22.5465
-23.1608
-23.0418
-22.8922
-23.9573
-23.5009
-23.4261
-23.7612
-23.7257
-23.9503
-24.5405
-22.1725
-21.5962
-22.1336
-22.482
-22.0777
-22.5481
-22.3981
-22.5302
-22.9648
-22.5597
-23.0913
-23.061
-22.8903
-23.8457
-23.3848
-23.4163
-23.8371
-23.7858
-24.1127
-24.9106
-22.1978
-21.5836
-22.073
-22.5184
-22.0658
-22.5339
-22.4206
-22.5016
-22.9702
-22.5694
-23.0276
-23.1529
-22.8615
-23.7093
-23.3267
-23.4196
-23.8768
-23.8325
-24.2635
-25.1903
-22.2193
-21.5781
-22.0103
-22.5485
-22.0653
-22.5107
-22.4397
-22.4804
-22.9648
-22.5723
-22.9794
-23.1864
-22.8265
-23.6079
-23.3095
-23.3878
-23.905
-23.8904
-24.3921
-25.4154
-22.2402
-21.5744
-21.9461
-22.5792
-22.057
-22.4849
-22.4618
-22.4557
-22.9599
-22.5886
-22.9375
-23.2024
-22.8115
-23.5425
-23.3064
-23.3842
-23.9477
-23.934
-24.5157
-25.6571
-22.2521
-21.569
-21.891
-22.608
-22.0478
-22.463
-22.4793
-22.4319
-22.9579
-22.5998
-22.9032
-23.2166
-22.7915
-23.4896
-23.3237
-23.3028
-23.9982
-23.9886
-24.5934
-25.8814
-22.2632
-21.5712
-21.8321
-22.6369
-22.0456
-22.4371
-22.5027
-22.412
-22.9539
-22.6146
-22.8728
-23.2239
-22.7871
-23.448
-23.3333
-23.3107
-24.0533
-24.0237
-24.686
-26.0943
-22.2668
-21.5681
-21.7855
-22.6618
-22.0382
-22.4177
-22.5222
-22.3899
-22.9514
-22.6262
-22.8477
-23.2306
-22.784
-23.4225
-23.3534
-23.2906
-24.1237
-24.0687
-24.7057
-26.3038
-22.2653
-21.5724
-21.7372
-22.6824
-22.0349
-22.3944
-22.5423
-22.3725
-22.9467
-22.6389
-22.8261
-23.2334
-22.7924
-23.399
-23.3632
-23.2945
-24.1664
-24.0857
-24.7713
-26.4697
-22.2544
-21.577
-21.7036
-22.6989
-22.0317
-22.3748
-22.5618
-22.36
-22.9418
-22.6517
-22.8118
-23.2313
-22.7984
-23.3956
-23.3648
-23.2862
-24.255
-24.0953
-24.7816
-26.6727
-22.2383
-21.5796
-21.6744
-22.711
-22.0276
-22.3607
-22.5796
-22.3469
-22.9382
-22.6632
-22.7973
-23.2322
-22.8136
-23.3852
-23.3789
-23.2971
-24.1958
-24.1103
-24.821
-26.7468
-22.2109
-21.5874
-21.6504
-22.7197
-22.0281
-22.3433
-22.5974
-22.3394
-22.9283
-22.6788
-22.7936
-23.2228
-22.826
-23.404
-23.3512
-23.3029
-24.3034
-24.0759
-24.8367
-26.928
-22.1619
-21.583
-21.6381
-22.7155
-22.0239
-22.3342
-22.6002
-22.333
-22.9235
-22.683
-22.7802
-23.2218
-22.8343
-23.3722
-23.3583
-23.3055
-24.3
-24.0835
-24.8331
-26.8478
-23.0499
-26.6574
-31.5553
-40.6236
-54.0827
-67.5629
-57.3972
-44.5149
-36.0849
-26.8572
-16.7977
-8.86479
-4.16042
-1.5252
-0.0154968
0.805729
1.19938
1.40259
1.54179
1.6563
1.74703
1.81628
1.86555
1.89505
1.9059
1.90253
1.89066
1.87448
1.85615
1.83678
1.81685
1.79661
1.77615
1.75551
1.73471
1.71375
1.69265
1.6714
1.65
1.62845
1.60674
1.58489
1.56288
1.54071
1.51839
1.49591
1.47328
1.45049
1.42754
1.40442
1.38115
1.35771
1.33412
1.31035
1.28642
1.26232
1.23806
1.21362
1.18901
1.16422
1.13927
1.11414
1.08883
1.06334
1.03768
1.01183
0.985812
0.959607
0.933218
0.906643
0.87988
0.852931
0.825795
0.798471
0.770954
0.743243
0.715334
0.68723
0.65893
0.630434
0.60174
0.572846
0.543746
0.514439
0.484922
0.455195
0.425261
0.395113
0.364764
0.334194
0.303418
0.27242
0.241198
0.209766
0.178095
0.146214
0.11411
0.0817722
0.0492241
0.0164478
-23.5648
-27.2346
-32.2891
-39.9624
-51.9578
-65.9428
-56.3522
-43.3868
-35.1394
-26.562
-17.0251
-9.38881
-4.6923
-1.97416
-0.343872
0.599487
1.07921
1.33041
1.49772
1.63017
1.73146
1.80656
1.85934
1.89153
1.90421
1.90182
1.89039
1.87441
1.85618
1.83684
1.81692
1.79667
1.7762
1.75555
1.73474
1.71377
1.69267
1.67141
1.65
1.62845
1.60675
1.58489
1.56288
1.54071
1.51839
1.49591
1.47328
1.45049
1.42754
1.40442
1.38115
1.35771
1.33412
1.31035
1.28642
1.26232
1.23806
1.21362
1.18901
1.16422
1.13927
1.11414
1.08883
1.06334
1.03768
1.01183
0.985812
0.959607
0.933219
0.906642
0.87988
0.852931
0.825795
0.798471
0.770954
0.743243
0.715335
0.68723
0.658929
0.630434
0.601739
0.572846
0.543746
0.514439
0.484922
0.455195
0.42526
0.395113
0.364764
0.334194
0.303418
0.27242
0.241198
0.209766
0.178095
0.146214
0.11411
0.0817719
0.0492244
0.0164477
-24.2835
-27.8926
-32.4744
-39.2485
-50.2975
-62.9341
-54.8979
-42.1247
-34.1113
-26.2234
-17.2837
-9.87563
-5.16975
-2.33718
-0.629486
0.388999
0.950042
1.25677
1.45379
1.61116
1.72601
1.80279
1.85606
1.88959
1.90352
1.90177
1.89053
1.87457
1.85633
1.83696
1.81702
1.79675
1.77626
1.75559
1.73477
1.7138
1.69268
1.67142
1.65001
1.62846
1.60675
1.58489
1.56288
1.54071
1.51839
1.49591
1.47328
1.45049
1.42754
1.40442
1.38115
1.35771
1.33412
1.31035
1.28642
1.26232
1.23806
1.21362
1.18901
1.16422
1.13927
1.11414
1.08883
1.06334
1.03768
1.01183
0.985812
0.959607
0.933219
0.906642
0.87988
0.852931
0.825795
0.798471
0.770954
0.743242
0.715334
0.68723
0.65893
0.630434
0.601739
0.572846
0.543746
0.514439
0.484922
0.455195
0.42526
0.395114
0.364764
0.334194
0.303418
0.27242
0.241198
0.209765
0.178095
0.146215
0.11411
0.0817724
0.0492246
0.0164477
-24.6147
-28.4325
-32.6054
-38.7989
-48.9202
-60.4701
-53.2483
-40.8892
-32.9929
-25.821
-17.5942
-10.4209
-5.68993
-2.71306
-0.866676
0.214436
0.822201
1.19149
1.4154
1.57629
1.69196
1.78109
1.84432
1.88365
1.90073
1.90053
1.89
1.8744
1.85631
1.83701
1.81708
1.79681
1.77631
1.75563
1.73479
1.71382
1.6927
1.67143
1.65002
1.62846
1.60675
1.58489
1.56288
1.54071
1.51839
1.49591
1.47328
1.45049
1.42754
1.40442
1.38115
1.35771
1.33412
1.31035
1.28642
1.26232
1.23806
1.21362
1.18901
1.16422
1.13927
1.11414
1.08883
1.06334
1.03768
1.01183
0.985812
0.959608
0.933218
0.906642
0.87988
0.852932
0.825795
0.798471
0.770954
0.743242
0.715334
0.68723
0.65893
0.630434
0.601739
0.572846
0.543745
0.514438
0.484921
0.455195
0.42526
0.395114
0.364765
0.334194
0.303418
0.27242
0.241197
0.209765
0.178095
0.146215
0.114111
0.0817728
0.0492248
0.0164478
-25.0822
-29.0122
-32.8981
-38.2034
-47.6561
-57.827
-51.2809
-39.6738
-31.9688
-25.4085
-17.8962
-11.0174
-6.19245
-3.08315
-1.10508
0.0602456
0.710883
1.09827
1.37087
1.57697
1.71749
1.79939
1.85261
1.88767
1.90316
1.90205
1.89088
1.8749
1.85661
1.83719
1.8172
1.79689
1.77637
1.75567
1.73482
1.71384
1.69271
1.67144
1.65002
1.62846
1.60675
1.58489
1.56288
1.54071
1.51839
1.49591
1.47328
1.45049
1.42754
1.40442
1.38115
1.35771
1.33412
1.31035
1.28642
1.26232
1.23806
1.21362
1.18901
1.16423
1.13927
1.11414
1.08883
1.06334
1.03768
1.01183
0.985813
0.959608
0.933218
0.906643
0.87988
0.852932
0.825795
0.798471
0.770954
0.743242
0.715334
0.68723
0.65893
0.630434
0.601739
0.572845
0.543745
0.514438
0.484921
0.455195
0.42526
0.395114
0.364765
0.334194
0.303418
0.272419
0.241197
0.209765
0.178095
0.146215
0.114111
0.0817732
0.049225
0.0164479
-25.5459
-29.3804
-33.335
-37.659
-46.1299
-54.5204
-49.032
-38.3796
-31.0514
-24.9568
-18.0578
-11.555
-6.72568
-3.43082
-1.30359
-0.0763981
0.610198
1.05473
1.34741
1.52665
1.65452
1.75462
1.82983
1.87737
1.8988
1.90028
1.89017
1.87467
1.85659
1.83725
1.81727
1.79696
1.77642
1.75571
1.73485
1.71386
1.69272
1.67145
1.65003
1.62847
1.60676
1.5849
1.56288
1.54071
1.51839
1.49591
1.47328
1.45049
1.42754
1.40442
1.38115
1.35771
1.33412
1.31035
1.28642
1.26232
1.23806
1.21362
1.18901
1.16423
1.13927
1.11414
1.08883
1.06334
1.03768
1.01184
0.985813
0.959608
0.933218
0.906643
0.879881
0.852932
0.825795
0.798471
0.770954
0.743242
0.715334
0.68723
0.65893
0.630435
0.601739
0.572845
0.543745
0.514438
0.484921
0.455195
0.425261
0.395114
0.364765
0.334195
0.303418
0.272419
0.241197
0.209765
0.178095
0.146215
0.114111
0.0817735
0.0492252
0.0164479
-26.0047
-29.6052
-33.6308
-37.2195
-44.1835
-51.6186
-46.7954
-37.1058
-30.1828
-24.6703
-18.3099
-12.0146
-7.21045
-3.82498
-1.50255
-0.182084
0.523702
0.965348
1.30661
1.54085
1.70811
1.80071
1.85227
1.88767
1.90398
1.90296
1.89148
1.87532
1.85694
1.83746
1.81741
1.79705
1.77648
1.75575
1.73488
1.71388
1.69274
1.67146
1.65004
1.62847
1.60676
1.5849
1.56288
1.54072
1.51839
1.49591
1.47328
1.45049
1.42754
1.40442
1.38115
1.35771
1.33412
1.31035
1.28642
1.26232
1.23806
1.21362
1.18901
1.16423
1.13927
1.11414
1.08883
1.06334
1.03768
1.01184
0.985813
0.959608
0.933218
0.906643
0.879881
0.852932
0.825796
0.798471
0.770953
0.743242
0.715334
0.687231
0.65893
0.630435
0.601739
0.572845
0.543744
0.514438
0.484921
0.455194
0.425261
0.395115
0.364766
0.334195
0.303418
0.272419
0.241196
0.209765
0.178095
0.146215
0.114112
0.0817739
0.0492253
0.0164479
-26.4216
-29.7048
-33.6361
-36.7807
-42.2223
-48.5607
-44.6331
-36.0132
-29.3713
-24.4796
-18.6937
-12.5611
-7.63378
-4.15266
-1.75368
-0.311433
0.487187
0.954338
1.28076
1.51733
1.64595
1.74139
1.82244
1.87547
1.89988
1.90187
1.89128
1.87539
1.85706
1.83757
1.8175
1.79712
1.77654
1.75579
1.73491
1.7139
1.69275
1.67147
1.65004
1.62848
1.60676
1.5849
1.56288
1.54072
1.51839
1.49591
1.47328
1.45049
1.42754
1.40442
1.38115
1.35771
1.33412
1.31035
1.28642
1.26232
1.23806
1.21362
1.18901
1.16423
1.13927
1.11414
1.08883
1.06334
1.03768
1.01184
0.985813
0.959608
0.933218
0.906643
0.879881
0.852932
0.825796
0.798471
0.770953
0.743241
0.715334
0.687231
0.658931
0.630435
0.601739
0.572845
0.543744
0.514437
0.48492
0.455194
0.425261
0.395115
0.364766
0.334195
0.303418
0.272419
0.241196
0.209764
0.178095
0.146215
0.114112
0.0817742
0.0492254
0.016448
-26.702
-29.7108
-33.4057
-36.2264
-40.4419
-46.0023
-42.6551
-34.8969
-28.604
-24.2727
-19.2288
-13.2122
-8.17501
-4.43257
-1.90838
-0.437904
0.350273
0.87315
1.25501
1.51986
1.69092
1.79595
1.8459
1.88558
1.90459
1.90385
1.89208
1.87574
1.85728
1.83774
1.81763
1.79721
1.7766
1.75584
1.73494
1.71392
1.69277
1.67148
1.65005
1.62848
1.60676
1.5849
1.56288
1.54072
1.51839
1.49591
1.47328
1.45049
1.42754
1.40442
1.38115
1.35771
1.33412
1.31035
1.28642
1.26232
1.23806
1.21362
1.18901
1.16423
1.13927
1.11414
1.08883
1.06334
1.03768
1.01184
0.985813
0.959608
0.933218
0.906643
0.879881
0.852932
0.825796
0.798471
0.770953
0.743241
0.715334
0.687231
0.658931
0.630435
0.601739
0.572845
0.543744
0.514437
0.48492
0.455194
0.425261
0.395115
0.364766
0.334195
0.303418
0.272418
0.241196
0.209764
0.178095
0.146215
0.114112
0.0817745
0.0492255
0.016448
-26.8522
-29.7072
-33.1132
-35.588
-38.8912
-43.8873
-40.8801
-33.7459
-27.8818
-24.0837
-19.7734
-13.9204
-8.74474
-4.8341
-2.12626
-0.514134
0.353956
0.849663
1.23065
1.49339
1.64994
1.7284
1.82101
1.87832
1.9044
1.90539
1.89364
1.87665
1.85772
1.83797
1.81776
1.7973
1.77666
1.75588
1.73497
1.71394
1.69278
1.67149
1.65006
1.62848
1.60677
1.5849
1.56289
1.54072
1.51839
1.49592
1.47328
1.45049
1.42754
1.40442
1.38115
1.35771
1.33412
1.31035
1.28642
1.26232
1.23806
1.21362
1.18901
1.16423
1.13927
1.11414
1.08883
1.06334
1.03768
1.01184
0.985813
0.959608
0.933218
0.906643
0.879881
0.852933
0.825796
0.798471
0.770953
0.743241
0.715334
0.687231
0.658931
0.630435
0.601739
0.572845
0.543744
0.514437
0.48492
0.455194
0.425261
0.395115
0.364766
0.334195
0.303418
0.272418
0.241195
0.209764
0.178095
0.146215
0.114113
0.0817748
0.0492256
0.016448
-26.9834
-29.7044
-32.8343
-35.0258
-37.6611
-41.7686
-39.2011
-32.7119
-27.0728
-23.9971
-20.1899
-14.6184
-9.2932
-5.15682
-2.28528
-0.68484
0.202003
0.80509
1.23625
1.51837
1.68464
1.77864
1.83605
1.88153
1.90615
1.90487
1.89262
1.87619
1.85769
1.83808
1.81787
1.79739
1.77672
1.75592
1.735
1.71396
1.69279
1.67149
1.65006
1.62849
1.60677
1.5849
1.56289
1.54072
1.51839
1.49592
1.47328
1.45049
1.42754
1.40442
1.38115
1.35771
1.33412
1.31035
1.28642
1.26232
1.23806
1.21362
1.18901
1.16423
1.13927
1.11414
1.08883
1.06334
1.03768
1.01184
0.985814
0.959608
0.933218
0.906643
0.879881
0.852933
0.825796
0.79847
0.770953
0.743241
0.715334
0.687231
0.658931
0.630435
0.601739
0.572845
0.543744
0.514437
0.48492
0.455194
0.425261
0.395115
0.364767
0.334196
0.303418
0.272418
0.241195
0.209764
0.178095
0.146216
0.114113
0.0817751
0.0492256
0.016448
-27.0909
-29.657
-32.6507
-34.5767
-36.6788
-40.0065
-37.6517
-31.7018
-26.3277
-24.0418
-20.7064
-15.1753
-9.80822
-5.44821
-2.38144
-0.725681
0.195562
0.801328
1.22894
1.49434
1.64674
1.73774
1.82049
1.88135
1.911
1.91035
1.89639
1.87808
1.85847
1.8384
1.81803
1.79748
1.77678
1.75596
1.73503
1.71398
1.69281
1.6715
1.65007
1.62849
1.60677
1.58491
1.56289
1.54072
1.51839
1.49592
1.47328
1.45049
1.42754
1.40442
1.38115
1.35771
1.33412
1.31035
1.28642
1.26232
1.23806
1.21362
1.18901
1.16423
1.13927
1.11414
1.08883
1.06334
1.03768
1.01184
0.985814
0.959608
0.933218
0.906643
0.879881
0.852933
0.825796
0.79847
0.770953
0.743241
0.715334
0.687231
0.658931
0.630435
0.601739
0.572845
0.543743
0.514437
0.484919
0.455194
0.425261
0.395115
0.364767
0.334196
0.303418
0.272418
0.241195
0.209764
0.178095
0.146216
0.114113
0.0817753
0.0492257
0.016448
-27.2034
-29.5827
-32.5203
-34.2139
-35.82
-38.588
-36.3121
-30.6486
-25.5476
-24.1415
-21.4769
-15.763
-10.3036
-5.76032
-2.50624
-0.7985
0.129359
0.769377
1.21855
1.50883
1.68506
1.76646
1.83009
1.88075
1.90772
1.90642
1.89363
1.87684
1.85819
1.83846
1.81813
1.79757
1.77684
1.756
1.73506
1.714
1.69282
1.67151
1.65007
1.6285
1.60677
1.58491
1.56289
1.54072
1.51839
1.49592
1.47328
1.45049
1.42754
1.40442
1.38115
1.35771
1.33412
1.31035
1.28642
1.26232
1.23806
1.21362
1.18901
1.16423
1.13927
1.11414
1.08883
1.06334
1.03768
1.01184
0.985814
0.959608
0.933218
0.906643
0.879881
0.852933
0.825796
0.79847
0.770953
0.743241
0.715334
0.687231
0.658931
0.630435
0.601739
0.572844
0.543743
0.514436
0.484919
0.455194
0.425261
0.395116
0.364767
0.334196
0.303418
0.272418
0.241195
0.209764
0.178095
0.146216
0.114113
0.0817756
0.0492257
0.016448
-27.2976
-29.4911
-32.4438
-33.916
-35.0949
-37.3036
-35.0035
-29.596
-24.7805
-24.4082
-22.2963
-16.5056
-10.8518
-5.95705
-2.59085
-0.832447
0.127384
0.783461
1.21897
1.50227
1.65218
1.72782
1.80926
1.88681
1.9201
1.91612
1.89915
1.87956
1.8593
1.83893
1.81832
1.79767
1.77691
1.75605
1.73508
1.71402
1.69283
1.67152
1.65008
1.6285
1.60678
1.58491
1.56289
1.54072
1.51839
1.49592
1.47328
1.45049
1.42754
1.40442
1.38115
1.35771
1.33412
1.31035
1.28642
1.26232
1.23806
1.21362
1.18901
1.16423
1.13927
1.11414
1.08883
1.06334
1.03768
1.01184
0.985814
0.959608
0.933218
0.906643
0.879881
0.852933
0.825796
0.79847
0.770953
0.743241
0.715334
0.687231
0.658931
0.630435
0.601739
0.572844
0.543743
0.514436
0.484919
0.455194
0.425261
0.395116
0.364767
0.334196
0.303418
0.272418
0.241194
0.209763
0.178095
0.146216
0.114113
0.0817758
0.0492257
0.016448
-27.3841
-29.4034
-32.4057
-33.6703
-34.5212
-36.2616
-33.8667
-28.405
-24.0232
-24.9607
-23.1988
-17.2329
-11.4691
-6.29117
-2.65673
-0.809035
0.119471
0.748675
1.20974
1.50449
1.68631
1.77859
1.81878
1.87722
1.90522
1.90588
1.89389
1.87734
1.85862
1.83872
1.81841
1.79776
1.77697
1.75609
1.73511
1.71403
1.69284
1.67153
1.65008
1.6285
1.60678
1.58491
1.56289
1.54072
1.51839
1.49592
1.47328
1.45049
1.42754
1.40442
1.38115
1.35771
1.33412
1.31035
1.28642
1.26232
1.23806
1.21362
1.18901
1.16423
1.13927
1.11414
1.08883
1.06334
1.03768
1.01184
0.985814
0.959608
0.933218
0.906643
0.879881
0.852933
0.825796
0.79847
0.770953
0.743241
0.715334
0.687231
0.658931
0.630435
0.601739
0.572844
0.543743
0.514436
0.484919
0.455194
0.425261
0.395116
0.364767
0.334196
0.303418
0.272418
0.241194
0.209763
0.178095
0.146216
0.114114
0.081776
0.0492257
0.016448
-27.4285
-29.3077
-32.381
-33.4784
-34.088
-35.2452
-32.9131
-27.0844
-23.1845
-25.6741
-24.22
-17.9317
-11.9624
-6.51028
-2.74063
-0.834963
0.130544
0.791436
1.22771
1.50577
1.66112
1.75294
1.8243
1.89113
1.92052
1.91739
1.90084
1.88086
1.86019
1.8394
1.81865
1.79786
1.77703
1.75613
1.73514
1.71405
1.69285
1.67153
1.65009
1.62851
1.60678
1.58491
1.56289
1.54072
1.51839
1.49592
1.47328
1.45049
1.42754
1.40442
1.38115
1.35771
1.33412
1.31035
1.28642
1.26232
1.23806
1.21362
1.18901
1.16423
1.13927
1.11414
1.08883
1.06335
1.03768
1.01184
0.985814
0.959608
0.933219
0.906643
0.879881
0.852933
0.825796
0.79847
0.770953
0.743241
0.715334
0.687231
0.658931
0.630435
0.601739
0.572844
0.543743
0.514436
0.484919
0.455193
0.425261
0.395116
0.364767
0.334196
0.303418
0.272418
0.241194
0.209763
0.178096
0.146216
0.114114
0.0817762
0.0492256
0.0164479
-27.4729
-29.1879
-32.3774
-33.3072
-33.7317
-34.3611
-32.0089
-25.6275
-22.2859
-26.5174
-25.293
-18.4667
-12.4666
-6.67299
-2.72995
-0.765447
0.155336
0.77023
1.22821
1.52448
1.70198
1.77366
1.82887
1.88141
1.9079
1.90803
1.89551
1.87841
1.85927
1.83916
1.81867
1.79793
1.77709
1.75617
1.73516
1.71407
1.69286
1.67154
1.65009
1.62851
1.60678
1.58491
1.56289
1.54072
1.51839
1.49592
1.47328
1.45049
1.42754
1.40442
1.38115
1.35771
1.33412
1.31035
1.28642
1.26232
1.23806
1.21362
1.18901
1.16423
1.13927
1.11414
1.08883
1.06335
1.03768
1.01184
0.985814
0.959609
0.933219
0.906643
0.879881
0.852933
0.825796
0.79847
0.770953
0.743241
0.715334
0.687231
0.658931
0.630435
0.601739
0.572844
0.543743
0.514436
0.484919
0.455193
0.425261
0.395116
0.364768
0.334196
0.303417
0.272418
0.241194
0.209763
0.178096
0.146215
0.114114
0.0817763
0.0492256
0.0164479
-27.4879
-29.1928
-32.4001
-33.2022
-33.3695
-33.7417
-31.2421
-23.9996
-21.1426
-27.2987
-26.2719
-18.8649
-12.678
-6.70604
-2.77128
-0.736719
0.195869
0.812891
1.24546
1.52054
1.67918
1.77593
1.8399
1.89759
1.92302
1.91922
1.90241
1.88202
1.86097
1.83989
1.81895
1.79805
1.77715
1.7562
1.73518
1.71407
1.69287
1.67154
1.65009
1.62851
1.60678
1.58491
1.56289
1.54072
1.51839
1.49592
1.47328
1.45049
1.42754
1.40442
1.38115
1.35771
1.33412
1.31035
1.28642
1.26232
1.23806
1.21362
1.18901
1.16423
1.13927
1.11414
1.08883
1.06335
1.03768
1.01184
0.985814
0.959609
0.933219
0.906643
0.879881
0.852933
0.825796
0.79847
0.770953
0.743241
0.715334
0.687231
0.658931
0.630435
0.601739
0.572844
0.543743
0.514436
0.484919
0.455193
0.425261
0.395116
0.364768
0.334196
0.303417
0.272418
0.241194
0.209763
0.178096
0.146215
0.114114
0.0817765
0.0492255
0.0164479
-27.4584
-29.1101
-32.4702
-33.1397
-33.1066
-33.2284
-30.602
-22.4057
-19.5634
-27.875
-26.5917
-19.0281
-12.7985
-6.6687
-2.73221
-0.691337
0.215848
0.815533
1.25255
1.54275
1.7046
1.78483
1.84058
1.89007
1.91383
1.91206
1.89804
1.87987
1.86012
1.83967
1.81897
1.79811
1.7772
1.75624
1.73521
1.71409
1.69288
1.67155
1.6501
1.62851
1.60679
1.58491
1.56289
1.54072
1.5184
1.49592
1.47328
1.45049
1.42754
1.40442
1.38115
1.35771
1.33412
1.31035
1.28642
1.26232
1.23806
1.21362
1.18901
1.16423
1.13927
1.11414
1.08883
1.06335
1.03768
1.01184
0.985814
0.959609
0.933219
0.906643
0.879881
0.852933
0.825796
0.79847
0.770952
0.743241
0.715334
0.687231
0.658931
0.630435
0.601739
0.572844
0.543743
0.514436
0.484919
0.455193
0.425261
0.395116
0.364768
0.334196
0.303417
0.272418
0.241194
0.209763
0.178096
0.146215
0.114114
0.0817766
0.0492254
0.0164479
-27.4248
-29.0579
-32.488
-33.089
-32.9098
-32.9992
-30.1091
-21.5754
-17.9397
-27.3184
-26.5791
-18.9727
-12.7473
-6.63823
-2.72312
-0.677015
0.235261
0.83111
1.25928
1.538
1.7003
1.78706
1.84779
1.90016
1.92377
1.91984
1.90305
1.8826
1.86142
1.84023
1.81919
1.79821
1.77725
1.75626
1.73522
1.7141
1.69288
1.67155
1.6501
1.62851
1.60679
1.58491
1.56289
1.54072
1.5184
1.49592
1.47328
1.45049
1.42754
1.40442
1.38115
1.35771
1.33412
1.31035
1.28642
1.26232
1.23806
1.21362
1.18901
1.16423
1.13927
1.11414
1.08883
1.06335
1.03768
1.01184
0.985814
0.959609
0.933219
0.906643
0.879881
0.852933
0.825796
0.79847
0.770952
0.743241
0.715334
0.687231
0.658931
0.630435
0.601739
0.572844
0.543743
0.514436
0.484919
0.455193
0.425261
0.395116
0.364768
0.334196
0.303417
0.272418
0.241194
0.209763
0.178096
0.146215
0.114114
0.0817767
0.0492254
0.0164479
-20.6687
-22.3922
-27.5505
-45.3265
-61.8773
-61.4433
-52.4154
-49.9685
-32.6939
-17.0278
-6.0951
2.4191
4.83459
4.92345
4.4473
3.67954
3.00709
2.56035
2.29755
2.1515
2.07347
2.02915
1.99797
1.97026
1.94404
1.91951
1.89683
1.87564
1.85533
1.83529
1.81538
1.79538
1.77519
1.7548
1.7342
1.7134
1.69241
1.67124
1.64989
1.62837
1.6067
1.58486
1.56286
1.5407
1.51838
1.49591
1.47328
1.45049
1.42754
1.40443
1.38115
1.35772
1.33412
1.31035
1.28642
1.26232
1.23805
1.21362
1.189
1.16422
1.13926
1.11413
1.08883
1.06334
1.03768
1.01184
0.985813
0.959607
0.933218
0.906642
0.879881
0.852933
0.825796
0.798471
0.770955
0.743242
0.715335
0.687234
0.658933
0.630438
0.601743
0.572846
0.543743
0.514436
0.484919
0.455193
0.425261
0.395115
0.364765
0.334193
0.303415
0.272418
0.241196
0.209766
0.178096
0.146214
0.114113
0.0817769
0.0492265
0.0164489
-20.4405
-23.0444
-28.2166
-46.0034
-62.4983
-62.027
-52.472
-50.1255
-33.2576
-17.1764
-6.26185
2.25883
4.78648
4.89364
4.42412
3.66395
2.99564
2.55218
2.29212
2.14805
2.07125
2.02784
1.99709
1.96978
1.94382
1.91947
1.89689
1.87572
1.85539
1.83535
1.81543
1.79541
1.77522
1.75482
1.73421
1.71341
1.69241
1.67124
1.64989
1.62838
1.6067
1.58486
1.56286
1.5407
1.51838
1.49591
1.47328
1.45049
1.42754
1.40443
1.38115
1.35772
1.33412
1.31035
1.28642
1.26232
1.23805
1.21362
1.189
1.16422
1.13926
1.11413
1.08883
1.06334
1.03768
1.01184
0.985813
0.959607
0.933218
0.906642
0.879881
0.852933
0.825796
0.798471
0.770955
0.743242
0.715335
0.687234
0.658933
0.630438
0.601743
0.572846
0.543743
0.514436
0.484919
0.455193
0.425261
0.395115
0.364765
0.334193
0.303415
0.272418
0.241196
0.209766
0.178096
0.146214
0.114113
0.0817769
0.0492265
0.016449
-20.0144
-22.8251
-29.3653
-46.7701
-63.8436
-63.0449
-52.7022
-50.552
-34.2835
-17.6246
-6.58748
1.97
4.68481
4.8284
4.37719
3.63222
2.97206
2.53443
2.27916
2.13879
2.06491
2.02394
1.99509
1.9692
1.94406
1.92002
1.89744
1.87616
1.85569
1.83561
1.8156
1.79552
1.77528
1.75486
1.73424
1.71342
1.69242
1.67125
1.6499
1.62838
1.6067
1.58486
1.56286
1.5407
1.51838
1.49591
1.47328
1.45049
1.42754
1.40443
1.38115
1.35772
1.33412
1.31035
1.28642
1.26232
1.23805
1.21362
1.189
1.16422
1.13926
1.11413
1.08883
1.06334
1.03768
1.01184
0.985813
0.959607
0.933218
0.906642
0.879881
0.852933
0.825796
0.798471
0.770955
0.743242
0.715335
0.687234
0.658933
0.630437
0.601743
0.572846
0.543743
0.514436
0.484919
0.455193
0.425261
0.395115
0.364765
0.334193
0.303415
0.272418
0.241196
0.209766
0.178096
0.146214
0.114113
0.0817768
0.0492267
0.016449
-20.3194
-23.1265
-30.4092
-47.7883
-65.3901
-64.7533
-53.0305
-50.8458
-35.5319
-18.347
-7.04851
1.56085
4.5054
4.71206
4.30174
3.58349
2.93744
2.50866
2.2604
2.12562
2.05609
2.01845
1.99205
1.96777
1.94353
1.91992
1.89752
1.87629
1.8558
1.8357
1.81567
1.79557
1.77532
1.75489
1.73426
1.71344
1.69243
1.67125
1.6499
1.62838
1.6067
1.58486
1.56286
1.5407
1.51839
1.49591
1.47328
1.45049
1.42754
1.40443
1.38115
1.35772
1.33412
1.31035
1.28642
1.26232
1.23805
1.21362
1.189
1.16422
1.13926
1.11413
1.08883
1.06334
1.03768
1.01184
0.985813
0.959607
0.933218
0.906642
0.879881
0.852933
0.825796
0.798471
0.770955
0.743242
0.715335
0.687234
0.658933
0.630437
0.601743
0.572846
0.543743
0.514436
0.484919
0.455193
0.425261
0.395115
0.364765
0.334193
0.303416
0.272418
0.241196
0.209766
0.178096
0.146214
0.114113
0.0817766
0.0492267
0.016449
-20.6131
-23.5464
-31.5184
-49.1057
-66.9907
-66.4346
-53.5625
-51.0647
-36.7664
-19.3242
-7.61748
1.10463
4.23287
4.54183
4.19118
3.51437
2.89136
2.47541
2.23617
2.10827
2.04415
2.01074
1.9875
1.9654
1.94251
1.91964
1.89759
1.87647
1.85599
1.83586
1.81579
1.79566
1.77538
1.75492
1.73428
1.71345
1.69244
1.67126
1.6499
1.62838
1.6067
1.58486
1.56286
1.5407
1.51839
1.49591
1.47328
1.45049
1.42754
1.40443
1.38115
1.35772
1.33412
1.31035
1.28642
1.26232
1.23805
1.21362
1.189
1.16422
1.13926
1.11413
1.08883
1.06334
1.03768
1.01184
0.985813
0.959607
0.933218
0.906642
0.879881
0.852933
0.825796
0.798471
0.770955
0.743242
0.715335
0.687234
0.658933
0.630437
0.601743
0.572846
0.543743
0.514436
0.484919
0.455193
0.425261
0.395115
0.364765
0.334193
0.303416
0.272418
0.241196
0.209766
0.178096
0.146214
0.114113
0.0817765
0.0492267
0.016449
-21.0789
-23.8944
-32.7044
-50.3353
-68.5242
-68.2956
-54.1968
-51.1625
-38.0292
-20.3769
-8.34234
0.5577
3.90097
4.32294
4.0462
3.42343
2.83306
2.43549
2.20764
2.08775
2.02988
2.00144
1.98198
1.96248
1.9412
1.91919
1.89753
1.87655
1.85611
1.83596
1.81587
1.79572
1.77542
1.75496
1.7343
1.71347
1.69245
1.67126
1.64991
1.62839
1.6067
1.58486
1.56286
1.5407
1.51839
1.49591
1.47328
1.45049
1.42754
1.40443
1.38115
1.35772
1.33412
1.31035
1.28642
1.26232
1.23805
1.21362
1.189
1.16422
1.13926
1.11413
1.08883
1.06334
1.03768
1.01184
0.985813
0.959607
0.933218
0.906642
0.879881
0.852933
0.825796
0.798471
0.770955
0.743242
0.715335
0.687234
0.658933
0.630437
0.601743
0.572846
0.543743
0.514436
0.484919
0.455193
0.425261
0.395115
0.364765
0.334193
0.303416
0.272418
0.241196
0.209766
0.178096
0.146214
0.114113
0.0817763
0.0492267
0.016449
-21.6091
-24.3176
-34.007
-51.3728
-69.9336
-70.1842
-54.889
-51.3423
-39.1607
-21.5849
-9.2323
-0.055324
3.52193
4.05621
3.86449
3.31227
2.76299
2.38936
2.17563
2.06474
2.01365
1.9907
1.97547
1.95891
1.93947
1.91847
1.89732
1.87656
1.8562
1.83606
1.81596
1.79579
1.77547
1.75499
1.73433
1.71348
1.69246
1.67127
1.64991
1.62839
1.60671
1.58486
1.56286
1.5407
1.51839
1.49591
1.47328
1.45049
1.42754
1.40443
1.38115
1.35772
1.33412
1.31035
1.28642
1.26232
1.23805
1.21362
1.189
1.16422
1.13927
1.11413
1.08883
1.06334
1.03768
1.01184
0.985813
0.959607
0.933218
0.906642
0.87988
0.852933
0.825796
0.798471
0.770955
0.743242
0.715335
0.687234
0.658933
0.630437
0.601743
0.572846
0.543743
0.514436
0.484919
0.455193
0.425261
0.395115
0.364765
0.334193
0.303416
0.272418
0.241196
0.209766
0.178096
0.146214
0.114113
0.0817762
0.0492267
0.016449
-22.0142
-24.8169
-35.1396
-52.5364
-71.2424
-71.9306
-55.6716
-51.4763
-40.1008
-22.7405
-10.1987
-0.779028
3.11931
3.75804
3.64597
3.18057
2.68221
2.33741
2.14081
2.04007
1.9961
1.97891
1.9682
1.95486
1.93744
1.91759
1.89702
1.87653
1.85626
1.83615
1.81604
1.79585
1.77552
1.75503
1.73435
1.7135
1.69248
1.67128
1.64992
1.62839
1.60671
1.58486
1.56286
1.5407
1.51839
1.49591
1.47328
1.45049
1.42754
1.40443
1.38115
1.35772
1.33412
1.31035
1.28642
1.26232
1.23805
1.21362
1.18901
1.16422
1.13927
1.11413
1.08883
1.06334
1.03768
1.01184
0.985812
0.959607
0.933218
0.906642
0.87988
0.852933
0.825796
0.798471
0.770955
0.743242
0.715335
0.687233
0.658933
0.630437
0.601742
0.572846
0.543743
0.514437
0.484919
0.455194
0.425261
0.395115
0.364765
0.334193
0.303416
0.272418
0.241196
0.209766
0.178096
0.146214
0.114113
0.081776
0.0492267
0.016449
-22.3734
-25.1712
-36.2434
-53.475
-72.1603
-73.4912
-56.3761
-51.5369
-40.791
-23.6663
-11.1318
-1.54136
2.67446
3.43297
3.40073
3.02846
2.59187
2.28009
2.10327
2.01404
1.97759
1.9663
1.96031
1.95037
1.93513
1.91654
1.89662
1.87643
1.8563
1.83622
1.81611
1.79591
1.77557
1.75506
1.73438
1.71352
1.69249
1.67129
1.64992
1.6284
1.60671
1.58486
1.56286
1.5407
1.51839
1.49591
1.47328
1.45049
1.42754
1.40443
1.38115
1.35772
1.33412
1.31035
1.28642
1.26232
1.23805
1.21362
1.18901
1.16422
1.13927
1.11413
1.08883
1.06334
1.03768
1.01184
0.985812
0.959607
0.933218
0.906642
0.87988
0.852933
0.825796
0.798471
0.770955
0.743242
0.715335
0.687233
0.658933
0.630437
0.601742
0.572846
0.543743
0.514437
0.484919
0.455194
0.425261
0.395115
0.364765
0.334193
0.303416
0.272418
0.241197
0.209766
0.178096
0.146214
0.114112
0.0817758
0.0492266
0.016449
-22.7593
-25.3468
-37.1183
-53.9892
-72.7127
-74.8265
-56.9701
-51.586
-41.413
-24.5588
-11.9449
-2.33022
2.20563
3.08843
3.13642
2.85893
2.49292
2.21829
2.0631
1.9868
1.95845
1.95322
1.95203
1.9456
1.93264
1.91537
1.89615
1.8763
1.85631
1.83628
1.81618
1.79597
1.77562
1.7551
1.7344
1.71354
1.6925
1.6713
1.64993
1.6284
1.60671
1.58487
1.56286
1.5407
1.51839
1.49591
1.47328
1.45049
1.42754
1.40443
1.38115
1.35772
1.33412
1.31035
1.28642
1.26232
1.23805
1.21362
1.18901
1.16422
1.13927
1.11413
1.08883
1.06334
1.03768
1.01184
0.985812
0.959607
0.933218
0.906642
0.87988
0.852933
0.825796
0.798471
0.770955
0.743242
0.715335
0.687233
0.658933
0.630437
0.601742
0.572846
0.543743
0.514437
0.484919
0.455194
0.425261
0.395115
0.364764
0.334193
0.303416
0.272418
0.241197
0.209766
0.178096
0.146214
0.114112
0.0817755
0.0492265
0.0164489
-23.0334
-25.4902
-37.5699
-54.2675
-72.76
-75.9308
-57.4495
-51.6078
-41.9195
-25.4075
-12.6358
-3.06474
1.68848
2.73515
2.86015
2.67632
2.38593
2.15277
2.02049
1.95824
1.93873
1.9398
1.94347
1.94062
1.93
1.9141
1.89562
1.87614
1.8563