/*--------------------------------*- C++ -*----------------------------------*\
| =========                 |                                                 |
| \\      /  F ield         | OpenFOAM: The Open Source CFD Toolbox           |
|  \\    /   O peration     | Version:  2.4.0                                 |
|   \\  /    A nd           | Web:      www.OpenFOAM.org                      |
|    \\/     M anipulation  |                                                 |
\*---------------------------------------------------------------------------*/
FoamFile
{
    version     2.0;
    format      ascii;
    class       volVectorField;
    location    "1.16";
    object      U;
}
// * * * * * * * * * * * * * * * * * * * * * * * * * * * * * * * * * * * * * //

dimensions      [0 1 -1 0 0 0 0];

internalField   nonuniform List<vector> 
4400
(
(9.61457 -0.0340427 0)
(11.237 0.284042 0)
(8.01737 -0.178819 0)
(11.3395 -0.0251938 0)
(7.47925 0.157012 0)
(10.2879 -0.17057 0)
(8.35501 0.128275 0)
(9.63567 0.123829 0)
(8.26405 -0.0928854 0)
(10.6411 0.109405 0)
(7.17749 0.0381348 0)
(11.0274 -0.0143234 0)
(7.17378 0.10651 0)
(10.3155 -0.0565953 0)
(7.22829 0.104279 0)
(9.7396 -0.000131528 0)
(7.79785 0.035732 0)
(7.70765 -0.0258453 0)
(9.64186 0.174884 0)
(6.21624 -0.0225918 0)
(8.73458 -0.146397 0)
(12.1463 -0.022272 0)
(9.85238 0.240702 0)
(11.2254 0.0649608 0)
(9.00217 0.10131 0)
(10.3135 -0.00105593 0)
(8.25876 -0.0148331 0)
(9.99568 -0.0665836 0)
(9.02154 -0.148888 0)
(10.2258 0.0954364 0)
(9.10709 -0.0380244 0)
(11.4195 -0.0824732 0)
(8.80827 0.104688 0)
(11.6926 0.0344658 0)
(8.96823 -0.0104646 0)
(10.7016 -0.0883771 0)
(9.84923 0.329781 0)
(9.3032 -0.290739 0)
(10.2244 0.0951907 0)
(8.99321 0.673217 0)
(9.83731 -0.209505 0)
(10.8228 0.046457 0)
(9.01716 0.112183 0)
(11.4701 0.0295043 0)
(10.1051 0.361427 0)
(10.476 -0.0384018 0)
(9.90298 0.140885 0)
(10.1059 0.0294113 0)
(9.50679 -0.160249 0)
(9.61854 0.0540369 0)
(9.68945 -0.113542 0)
(11.1971 -0.0451341 0)
(8.71279 0.108908 0)
(11.8624 -0.0995242 0)
(10.1716 0.286457 0)
(9.98531 -0.129511 0)
(11.1131 0.257072 0)
(10.1915 -0.0575431 0)
(9.73325 0.213138 0)
(10.6906 0.347486 0)
(10.232 -0.271309 0)
(10.2125 0.109783 0)
(9.39391 0.186279 0)
(10.5987 -0.200491 0)
(9.48646 0.343974 0)
(11.1491 0.0476994 0)
(9.76686 0.0483901 0)
(10.381 0.043658 0)
(10.6171 -0.0665397 0)
(9.34873 0.0493751 0)
(9.67853 -0.288509 0)
(11.3258 0.0047406 0)
(8.2813 0.0579866 0)
(11.3128 -0.282627 0)
(10.7645 0.35586 0)
(9.24325 -0.256378 0)
(11.2343 0.252898 0)
(10.5607 0.0918386 0)
(9.50676 -0.0210624 0)
(10.7876 0.386206 0)
(10.3813 -0.282279 0)
(9.59451 0.180381 0)
(9.65154 0.112222 0)
(10.4237 -0.0931799 0)
(9.49562 0.314946 0)
(10.7322 -0.0883952 0)
(9.95047 0.23609 0)
(10.1818 -0.0787916 0)
(10.3979 0.0219492 0)
(9.60385 0.189167 0)
(9.89129 -0.419891 0)
(10.9387 0.143601 0)
(8.39225 0.142341 0)
(10.9567 -0.584895 0)
(10.5752 0.598122 0)
(8.90811 -0.202363 0)
(10.5547 -0.0554824 0)
(11.0014 0.309064 0)
(9.08254 0.112237 0)
(10.2019 0.0694091 0)
(10.2661 -0.266691 0)
(9.74244 0.202273 0)
(9.66401 0.0957431 0)
(10.2445 -0.212649 0)
(9.83085 0.294336 0)
(10.1168 -0.0555862 0)
(10.4289 0.14254 0)
(9.9609 -0.0180893 0)
(10.2983 0.0262696 0)
(10.2644 0.135976 0)
(9.80176 -0.47681 0)
(10.701 0.214712 0)
(9.57946 0.120569 0)
(10.2169 -0.72677 0)
(10.6784 0.743443 0)
(9.47044 -0.186283 0)
(10.1005 -0.236215 0)
(11.1852 0.479669 0)
(9.10254 0.135838 0)
(10.3355 -0.177586 0)
(10.3096 -0.27618 0)
(9.4746 0.257166 0)
(9.96077 0.0950628 0)
(10.2783 -0.213523 0)
(9.77272 0.365246 0)
(10.2932 -0.183642 0)
(10.1751 0.203332 0)
(10.0021 0.00684679 0)
(10.2151 -0.0543107 0)
(10.218 0.239889 0)
(9.80424 -0.440986 0)
(10.4086 0.12979 0)
(10.0143 0.261498 0)
(9.72764 -0.811313 0)
(10.6547 0.698286 0)
(9.98249 -0.0100344 0)
(9.83847 -0.456127 0)
(11.0385 0.527514 0)
(9.67545 0.24934 0)
(10.3702 -0.416367 0)
(10.2409 -0.209148 0)
(9.59479 0.219863 0)
(10.1716 0.0161503 0)
(10.0221 -0.210549 0)
(9.87528 0.310654 0)
(10.2423 -0.126553 0)
(9.90209 0.186814 0)
(10.212 0.0126354 0)
(9.95198 -0.0338422 0)
(10.3233 0.195934 0)
(9.98453 -0.425635 0)
(9.93451 0.108623 0)
(10.4218 0.28841 0)
(9.8307 -0.805889 0)
(9.98492 0.671201 0)
(10.6519 0.0477532 0)
(9.8457 -0.508458 0)
(10.4921 0.596522 0)
(10.3071 0.267146 0)
(10.4642 -0.492852 0)
(10.0983 -0.23162 0)
(9.75851 0.207994 0)
(10.1834 0.0875919 0)
(10.0272 -0.215897 0)
(9.92113 0.318188 0)
(10.1343 -0.149147 0)
(10.0764 0.147113 0)
(10.0031 0.041839 0)
(10.1922 -0.0837938 0)
(10.1838 0.190369 0)
(10.2171 -0.309541 0)
(9.86568 -0.0105797 0)
(10.4608 0.295514 0)
(10.1005 -0.686393 0)
(9.71353 0.505025 0)
(10.697 0.0782031 0)
(9.97696 -0.471298 0)
(10.0699 0.50985 0)
(10.6391 0.247344 0)
(10.3832 -0.464828 0)
(9.99784 -0.166313 0)
(9.91734 0.14934 0)
(10.1308 0.0359831 0)
(10.1563 -0.192024 0)
(9.88683 0.300132 0)
(10.2564 -0.146192 0)
(10.0183 0.176465 0)
(10.067 0.0322073 0)
(10.3637 -0.0896935 0)
(9.94328 0.170795 0)
(10.5311 -0.298861 0)
(9.74241 -0.00103115 0)
(10.4673 0.253649 0)
(10.2324 -0.607663 0)
(9.62015 0.462473 0)
(10.6174 0.0466074 0)
(10.1851 -0.426409 0)
(9.72164 0.495573 0)
(10.7498 0.173294 0)
(10.3364 -0.371459 0)
(10.0915 -0.18971 0)
(9.94191 0.110633 0)
(10.0044 0.113819 0)
(10.2021 -0.202797 0)
(9.86227 0.273285 0)
(10.2445 -0.123493 0)
(9.98328 0.127461 0)
(10.2142 0.0128964 0)
(10.1713 -0.0587339 0)
(10.1297 0.119256 0)
(10.3136 -0.224769 0)
(9.85074 -0.0304264 0)
(10.3932 0.187535 0)
(10.0484 -0.481521 0)
(9.87184 0.343154 0)
(10.4568 0.0366992 0)
(10.1335 -0.335061 0)
(9.73281 0.414676 0)
(10.806 0.137894 0)
(10.1312 -0.289655 0)
(10.1511 -0.152997 0)
(9.79157 0.111102 0)
(10.0559 0.052499 0)
(10.1545 -0.18211 0)
(9.82336 0.277163 0)
(10.2603 -0.128294 0)
(9.93019 0.13329 0)
(10.1511 0.0362041 0)
(10.1823 -0.0818645 0)
(10.0925 0.107299 0)
(10.1983 -0.188947 0)
(10.0447 -0.049391 0)
(10.092 0.193102 0)
(10.2693 -0.433471 0)
(9.74047 0.295162 0)
(10.4044 0.0390648 0)
(10.2498 -0.302619 0)
(9.66435 0.370368 0)
(10.737 0.0809309 0)
(10.2175 -0.198975 0)
(10.0791 -0.147299 0)
(9.91821 0.0560775 0)
(9.99192 0.102485 0)
(10.1134 -0.165804 0)
(9.95685 0.208639 0)
(10.1041 -0.0906842 0)
(10.0464 0.099878 0)
(10.1654 -0.00330344 0)
(10.1445 -0.0469647 0)
(10.1207 0.0864962 0)
(10.2988 -0.177908 0)
(9.94807 -0.0301735 0)
(10.1789 0.126067 0)
(10.294 -0.350026 0)
(9.69736 0.251098 0)
(10.4405 -0.00600033 0)
(10.1212 -0.213612 0)
(9.85099 0.314117 0)
(10.5626 0.0589306 0)
(10.2899 -0.145724 0)
(10.0926 -0.131745 0)
(9.92588 0.0591797 0)
(9.91987 0.0813882 0)
(10.2253 -0.182954 0)
(9.88079 0.234654 0)
(10.1303 -0.0866514 0)
(10.1283 0.0568676 0)
(10.035 0.0520624 0)
(10.2648 -0.0704762 0)
(10.1209 0.0365075 0)
(10.2145 -0.107507 0)
(10.0647 -0.0450691 0)
(10.1976 0.0891231 0)
(10.1731 -0.261594 0)
(9.87964 0.193665 0)
(10.3095 -0.0132861 0)
(10.2448 -0.164581 0)
(9.84245 0.258403 0)
(10.4405 0.00587812 0)
(10.4915 -0.0719021 0)
(10.0919 -0.116123 0)
(9.93259 0.0185767 0)
(9.92703 0.0916046 0)
(10.1896 -0.14067 0)
(9.87886 0.169437 0)
(10.1538 -0.0765914 0)
(10.0348 0.0720546 0)
(10.1355 -0.000673407 0)
(10.207 -0.0565786 0)
(10.0704 0.0623026 0)
(10.3144 -0.128883 0)
(9.97674 -0.0384112 0)
(10.1551 0.0760197 0)
(10.2692 -0.228757 0)
(9.82127 0.160084 0)
(10.2883 -0.0352814 0)
(10.2208 -0.127219 0)
(9.94327 0.24102 0)
(10.4589 -0.0243012 0)
(10.1491 -0.0961494 0)
(10.0869 -0.11128 0)
(9.94592 0.0186531 0)
(9.88938 0.0916466 0)
(10.2094 -0.162204 0)
(9.90992 0.178082 0)
(10.0878 -0.0457735 0)
(10.117 0.00110474 0)
(10.0931 0.0456624 0)
(10.1676 -0.0456138 0)
(10.208 -0.0285754 0)
(10.1682 -0.0461746 0)
(10.0617 -0.0264262 0)
(10.2521 -0.00499464 0)
(10.0954 -0.117596 0)
(9.93699 0.120734 0)
(10.3732 -0.0725173 0)
(10.0706 -0.0473568 0)
(10.0013 0.150514 0)
(10.5068 -0.0105555 0)
(10.2703 -0.0628851 0)
(10.0858 -0.0864803 0)
(9.95599 -0.0174868 0)
(9.88125 0.0800154 0)
(10.2146 -0.11119 0)
(9.90404 0.115077 0)
(10.0911 -0.0446807 0)
(10.1355 0.0174201 0)
(10.0753 0.0104233 0)
(10.2166 -0.0602732 0)
(10.1822 0.0175527 0)
(10.1753 -0.0605487 0)
(10.1357 -0.0598324 0)
(10.1154 0.0357355 0)
(10.2534 -0.110946 0)
(9.92377 0.057602 0)
(10.2094 -0.0378216 0)
(10.3077 -0.0413886 0)
(10.0086 0.114904 0)
(10.2001 -0.0298677 0)
(10.6574 -0.0773927 0)
(10.1274 -0.092172 0)
(9.92845 -0.0116243 0)
(9.83228 0.0887728 0)
(10.2396 -0.133174 0)
(9.88371 0.125632 0)
(10.0761 -0.0218417 0)
(10.1933 -0.0456352 0)
(10.0429 0.0500472 0)
(10.2359 -0.0496802 0)
(10.2177 -0.0642409 0)
(10.094 0.00484772 0)
(10.2121 -0.0291792 0)
(10.0827 -0.0627146 0)
(10.1813 -0.00593122 0)
(9.99025 0.0574895 0)
(10.2189 -0.130637 0)
(10.1382 0.0478009 0)
(10.178 0.0846933 0)
(10.056 -0.107375 0)
(10.7746 -0.00937514 0)
(10.2631 -0.0656436 0)
(9.67326 -0.0351165 0)
(9.87579 0.0588896 0)
(10.2163 -0.0866263 0)
(9.7708 0.0639311 0)
(10.2119 -0.026351 0)
(10.1594 -0.0311583 0)
(9.98705 0.0187512 0)
(10.3333 -0.0671875 0)
(10.076 -0.00869444 0)
(10.0108 -0.0199741 0)
(10.2155 -0.0578765 0)
(9.90266 0.00386678 0)
(10.0682 -0.0394454 0)
(10.0019 0.0111339 0)
(10.0125 -0.0618247 0)
(10.0133 -0.00751004 0)
(10.1486 0.0887162 0)
(9.86827 -0.118774 0)
(10.6428 -0.0525952 0)
(10.2759 -0.0377339 0)
(9.31719 -0.000806564 0)
(9.74205 0.0179287 0)
(9.87342 -0.0570743 0)
(9.24401 0.0375454 0)
(9.92271 -0.021152 0)
(9.37267 -0.0426144 0)
(9.31323 0.0254353 0)
(9.63271 -0.036865 0)
(8.94214 -0.0445398 0)
(9.10226 0.0186397 0)
(9.12567 -0.0199092 0)
(8.69581 -0.0625317 0)
(8.65768 0.0396578 0)
(8.98304 0.00526877 0)
(8.50161 -0.105694 0)
(8.17293 0.0839615 0)
(9.07552 0.0208449 0)
(8.39853 -0.144542 0)
(7.88454 0.105013 0)
(5.67658 0.782359 0)
(10.0669 0.204868 0)
(4.73928 0.526771 0)
(9.08054 0.69306 0)
(9.18366 2.23178 0)
(9.13056 -0.139756 0)
(8.95649 -2.60705 0)
(8.03307 -3.36389 0)
(8.18512 -3.31168 0)
(8.6067 -3.23617 0)
(8.18824 -3.06393 0)
(7.28039 -2.5525 0)
(6.39409 -1.87944 0)
(6.18764 -1.1582 0)
(6.09828 -0.636503 0)
(5.64816 -0.394415 0)
(5.33059 -0.238249 0)
(5.33804 -0.107267 0)
(5.44432 -0.0502716 0)
(5.4832 -0.0643647 0)
(5.43307 -0.105725 0)
(5.34062 -0.138642 0)
(5.25373 -0.147675 0)
(5.19251 -0.133602 0)
(5.15478 -0.106313 0)
(5.13189 -0.0767794 0)
(5.1175 -0.0517799 0)
(5.10834 -0.0333667 0)
(5.10265 -0.0208852 0)
(5.09928 -0.012835 0)
(5.09738 -0.0077941 0)
(5.09635 -0.00469252 0)
(5.09582 -0.002805 0)
(5.09556 -0.00166586 0)
(5.09543 -0.000983193 0)
(5.09536 -0.000576827 0)
(5.09533 -0.000336382 0)
(5.09532 -0.00019505 0)
(5.09531 -0.000112473 0)
(5.09531 -6.44369e-05 0)
(5.0953 -3.67365e-05 0)
(5.0953 -2.07587e-05 0)
(5.0953 -1.17593e-05 0)
(5.0953 -6.48063e-06 0)
(5.0953 -3.70138e-06 0)
(5.0953 -1.9537e-06 0)
(5.0953 -1.08785e-06 0)
(5.0953 -6.24552e-07 0)
(5.0953 -2.53683e-07 0)
(5.0953 -2.36093e-07 0)
(5.0953 -5.92217e-08 0)
(5.0953 -3.74632e-08 0)
(5.0953 -8.3727e-08 0)
(5.0953 6.8628e-08 0)
(5.0953 -8.76935e-08 0)
(5.0953 2.1544e-08 0)
(5.0953 2.41003e-08 0)
(5.0953 -9.80121e-08 0)
(5.0953 1.00096e-07 0)
(5.0953 -3.22142e-08 0)
(5.0953 -5.54326e-08 0)
(5.0953 9.95935e-08 0)
(5.0953 -7.16432e-08 0)
(5.0953 -1.876e-08 0)
(5.0953 8.91228e-08 0)
(5.0953 -7.62736e-08 0)
(5.0953 5.44812e-09 0)
(5.0953 8.26627e-08 0)
(5.0953 -8.95206e-08 0)
(5.0953 1.36102e-08 0)
(5.0953 1.01833e-07 0)
(5.0953 -9.38675e-08 0)
(5.0953 -2.02149e-08 0)
(5.0953 1.16349e-07 0)
(5.0953 -4.17662e-08 0)
(5.0953 -8.22809e-08 0)
(5.0953 9.31748e-08 0)
(5.0953 3.13236e-08 0)
(5.0953 -8.83302e-08 0)
(5.0953 -3.04853e-09 0)
(5.0953 7.83341e-08 0)
(5.0953 -5.03086e-09 0)
(5.0953 -7.49208e-08 0)
(5.09531 2.28401e-08 0)
(5.0953 5.0714e-08 0)
(5.09531 6.17719e-09 0)
(5.09529 -5.7775e-08 0)
(5.09531 -1.7353e-08 0)
(5.09529 4.7764e-08 0)
(5.09531 2.74713e-08 0)
(5.0953 -6.55142e-08 0)
(5.0953 -8.46984e-08 0)
(5.09531 2.55604e-08 0)
(5.09529 7.66237e-08 0)
(5.09531 -3.46905e-08 0)
(5.0953 -6.68638e-08 0)
(5.0953 -5.95953e-09 0)
(5.09531 1.55238e-08 0)
(5.0953 3.00428e-08 0)
(5.0953 1.78416e-08 0)
(9.25616 0.0605414 0)
(11.4321 0.524314 0)
(6.63421 0.99057 0)
(10.4841 0.347792 0)
(9.27597 2.14612 0)
(9.89966 0.0777776 0)
(10.2132 -2.48515 0)
(8.74043 -3.21213 0)
(8.48834 -3.35161 0)
(8.76342 -3.38601 0)
(8.23619 -3.06023 0)
(7.40762 -2.41817 0)
(6.38274 -1.77762 0)
(6.01279 -1.17147 0)
(6.11582 -0.630499 0)
(5.91654 -0.318749 0)
(5.53764 -0.179524 0)
(5.3608 -0.0991613 0)
(5.37721 -0.060925 0)
(5.41971 -0.069831 0)
(5.40667 -0.099961 0)
(5.34574 -0.126079 0)
(5.2731 -0.135098 0)
(5.21301 -0.12433 0)
(5.1708 -0.100438 0)
(5.14267 -0.0732754 0)
(5.12417 -0.0497102 0)
(5.11227 -0.0321398 0)
(5.10492 -0.0201617 0)
(5.10058 -0.0124165 0)
(5.09813 -0.00755874 0)
(5.09679 -0.0045639 0)
(5.09608 -0.0027366 0)
(5.09571 -0.0016302 0)
(5.09551 -0.000964796 0)
(5.09541 -0.000567408 0)
(5.09536 -0.000331523 0)
(5.09534 -0.000192518 0)
(5.09532 -0.000111186 0)
(5.09531 -6.37184e-05 0)
(5.09531 -3.63719e-05 0)
(5.09531 -2.06003e-05 0)
(5.0953 -1.15394e-05 0)
(5.0953 -6.49668e-06 0)
(5.0953 -3.67732e-06 0)
(5.0953 -1.92239e-06 0)
(5.0953 -1.05189e-06 0)
(5.0953 -5.76831e-07 0)
(5.0953 -2.69948e-07 0)
(5.0953 -2.20742e-07 0)
(5.0953 -8.0332e-08 0)
(5.0953 -3.04874e-08 0)
(5.0953 -8.64568e-08 0)
(5.0953 8.14169e-09 0)
(5.0953 -1.17285e-08 0)
(5.0953 1.31446e-08 0)
(5.0953 -5.9747e-10 0)
(5.0953 -4.96403e-08 0)
(5.0953 2.0123e-08 0)
(5.0953 -5.10988e-09 0)
(5.0953 -3.41284e-09 0)
(5.0953 1.98983e-08 0)
(5.0953 -4.54758e-08 0)
(5.0953 -7.69069e-09 0)
(5.0953 4.53452e-08 0)
(5.0953 -1.18218e-08 0)
(5.0953 -2.83511e-09 0)
(5.0953 6.68047e-09 0)
(5.0953 -3.13207e-08 0)
(5.0953 3.03793e-08 0)
(5.0953 5.94316e-08 0)
(5.0953 -1.84728e-08 0)
(5.0953 -1.47813e-08 0)
(5.0953 1.67392e-08 0)
(5.0953 -8.02281e-09 0)
(5.0953 -3.9723e-09 0)
(5.0953 3.14176e-08 0)
(5.0953 4.74909e-09 0)
(5.0953 -3.09355e-08 0)
(5.0953 -1.47901e-08 0)
(5.0953 1.16976e-09 0)
(5.09531 1.33739e-09 0)
(5.0953 -2.46971e-09 0)
(5.09531 3.19146e-08 0)
(5.0953 8.48094e-09 0)
(5.09531 -9.25366e-09 0)
(5.09529 -1.7851e-08 0)
(5.09531 -5.83527e-09 0)
(5.09529 3.93944e-08 0)
(5.09531 -2.16039e-08 0)
(5.0953 -2.51863e-08 0)
(5.0953 -4.71989e-08 0)
(5.09531 -3.92548e-08 0)
(5.09529 7.61552e-08 0)
(5.09531 -3.63312e-08 0)
(5.0953 -2.99636e-08 0)
(5.0953 4.53503e-08 0)
(5.09531 -3.87545e-08 0)
(5.0953 9.03341e-09 0)
(5.0953 3.51635e-08 0)
(10.5259 0.247928 0)
(10.3542 0.799248 0)
(9.63621 0.8342 0)
(11.8747 0.161331 0)
(9.50509 2.3198 0)
(10.6909 0.0868423 0)
(10.9817 -2.49567 0)
(9.75357 -3.12573 0)
(9.34582 -3.29252 0)
(9.2678 -3.23693 0)
(8.54587 -2.8375 0)
(7.82749 -2.1608 0)
(6.63684 -1.55508 0)
(5.84215 -1.07505 0)
(5.91857 -0.63382 0)
(5.99509 -0.302583 0)
(5.76098 -0.133789 0)
(5.49646 -0.0739066 0)
(5.37706 -0.0576713 0)
(5.35493 -0.0602264 0)
(5.34485 -0.0804924 0)
(5.31238 -0.106124 0)
(5.26476 -0.118867 0)
(5.21782 -0.112173 0)
(5.17938 -0.091619 0)
(5.15041 -0.0670752 0)
(5.12975 -0.045568 0)
(5.11588 -0.0295416 0)
(5.10711 -0.0186309 0)
(5.10187 -0.011563 0)
(5.09888 -0.00710346 0)
(5.09722 -0.00432858 0)
(5.09633 -0.0026174 0)
(5.09585 -0.00157022 0)
(5.0956 -0.000934397 0)
(5.09547 -0.000551864 0)
(5.09539 -0.000323479 0)
(5.09535 -0.000188231 0)
(5.09533 -0.000108854 0)
(5.09532 -6.2451e-05 0)
(5.09531 -3.57416e-05 0)
(5.09531 -2.02315e-05 0)
(5.09531 -1.12122e-05 0)
(5.0953 -6.41428e-06 0)
(5.0953 -3.67308e-06 0)
(5.0953 -1.85901e-06 0)
(5.0953 -9.48208e-07 0)
(5.0953 -5.42389e-07 0)
(5.0953 -2.9565e-07 0)
(5.0953 -2.40373e-07 0)
(5.0953 -6.49366e-08 0)
(5.0953 -3.14254e-08 0)
(5.0953 -1.30085e-07 0)
(5.0953 -2.82618e-08 0)
(5.0953 9.3435e-08 0)
(5.0953 6.00596e-08 0)
(5.0953 -4.54833e-08 0)
(5.0953 -1.02977e-07 0)
(5.0953 -4.68791e-08 0)
(5.0953 4.28493e-08 0)
(5.0953 3.69364e-08 0)
(5.0953 -4.24106e-08 0)
(5.0953 -8.29348e-08 0)
(5.0953 -4.6287e-09 0)
(5.0953 7.80004e-08 0)
(5.0953 3.72552e-08 0)
(5.0953 -4.51589e-08 0)
(5.0953 -7.2742e-08 0)
(5.0953 -1.18539e-08 0)
(5.0953 1.00503e-07 0)
(5.0953 1.18902e-07 0)
(5.0953 2.53365e-08 0)
(5.0953 -6.07099e-08 0)
(5.0953 -6.4839e-08 0)
(5.0953 4.49594e-09 0)
(5.0953 6.6479e-08 0)
(5.0953 4.31682e-08 0)
(5.0953 -1.25699e-08 0)
(5.0953 -5.13616e-08 0)
(5.0953 -6.88284e-08 0)
(5.0953 -6.06194e-08 0)
(5.0953 2.41283e-08 0)
(5.0953 7.20939e-08 0)
(5.09531 7.41315e-08 0)
(5.0953 -1.15687e-08 0)
(5.09531 -4.26297e-08 0)
(5.09529 -2.50337e-08 0)
(5.09531 5.27361e-09 0)
(5.09529 7.82108e-08 0)
(5.09531 -4.45137e-08 0)
(5.0953 -1.23851e-08 0)
(5.0953 -7.7116e-08 0)
(5.09531 -9.53135e-08 0)
(5.09529 9.05841e-08 0)
(5.09531 -4.39667e-08 0)
(5.0953 1.17991e-08 0)
(5.0953 8.30916e-08 0)
(5.09531 -6.15437e-08 0)
(5.0953 2.47874e-08 0)
(5.0953 4.21061e-08 0)
(11.2078 0.321671 0)
(8.80282 0.68637 0)
(11.3153 0.461234 0)
(12.8189 0.198419 0)
(9.82522 2.40532 0)
(11.368 0.0562051 0)
(11.3893 -2.50058 0)
(10.3763 -2.93619 0)
(9.73462 -3.0238 0)
(9.28527 -3.14371 0)
(8.30779 -2.82723 0)
(7.80662 -2.059 0)
(7.07822 -1.40885 0)
(5.96755 -1.00944 0)
(5.7386 -0.622608 0)
(5.91849 -0.281549 0)
(5.85408 -0.0889354 0)
(5.64322 -0.0209419 0)
(5.48696 -0.0362885 0)
(5.41242 -0.0789069 0)
(5.36824 -0.112688 0)
(5.32256 -0.128529 0)
(5.27308 -0.129642 0)
(5.22669 -0.116525 0)
(5.18761 -0.093139 0)
(5.15684 -0.0673352 0)
(5.13417 -0.0452664 0)
(5.1187 -0.0290544 0)
(5.10885 -0.0181617 0)
(5.10293 -0.0111962 0)
(5.09952 -0.00685048 0)
(5.09761 -0.00416802 0)
(5.09656 -0.00252088 0)
(5.09599 -0.00151426 0)
(5.09568 -0.000902668 0)
(5.09551 -0.000534039 0)
(5.09542 -0.000313444 0)
(5.09537 -0.000182637 0)
(5.09534 -0.000105773 0)
(5.09532 -6.06878e-05 0)
(5.09531 -3.46745e-05 0)
(5.09531 -1.96736e-05 0)
(5.09531 -1.09664e-05 0)
(5.0953 -6.23152e-06 0)
(5.0953 -3.52552e-06 0)
(5.0953 -1.81164e-06 0)
(5.0953 -9.69657e-07 0)
(5.0953 -5.46546e-07 0)
(5.0953 -2.73841e-07 0)
(5.0953 -2.17295e-07 0)
(5.0953 -8.08789e-08 0)
(5.0953 -3.4361e-08 0)
(5.0953 -8.81915e-08 0)
(5.0953 -1.40895e-08 0)
(5.0953 3.47458e-08 0)
(5.0953 1.78294e-08 0)
(5.0953 -1.93451e-08 0)
(5.0953 -4.79956e-08 0)
(5.0953 -1.76416e-08 0)
(5.0953 9.81713e-09 0)
(5.0953 1.46424e-08 0)
(5.0953 -1.15671e-08 0)
(5.0953 -4.48552e-08 0)
(5.0953 -3.88897e-09 0)
(5.0953 3.94262e-08 0)
(5.0953 1.383e-08 0)
(5.0953 -1.2465e-08 0)
(5.0953 -2.82577e-08 0)
(5.0953 -8.53752e-09 0)
(5.0953 5.4032e-08 0)
(5.0953 6.11165e-08 0)
(5.0953 7.23491e-09 0)
(5.0953 -2.30596e-08 0)
(5.0953 -2.2359e-08 0)
(5.0953 3.20341e-09 0)
(5.0953 2.9899e-08 0)
(5.0953 1.61868e-08 0)
(5.0953 -9.64669e-09 0)
(5.0953 -2.29137e-08 0)
(5.0953 -2.69518e-08 0)
(5.0953 -3.62034e-08 0)
(5.0953 1.29713e-08 0)
(5.0953 2.83989e-08 0)
(5.09531 4.77944e-08 0)
(5.0953 -8.44047e-09 0)
(5.09531 -1.76282e-08 0)
(5.09529 -4.59585e-09 0)
(5.09531 -1.08408e-08 0)
(5.09529 7.24209e-08 0)
(5.09531 -7.52414e-08 0)
(5.0953 -1.66685e-09 0)
(5.0953 -4.0005e-08 0)
(5.09531 -1.01805e-07 0)
(5.09529 1.43547e-07 0)
(5.09531 -7.73457e-08 0)
(5.0953 -2.21925e-08 0)
(5.0953 1.19091e-07 0)
(5.09531 -1.09228e-07 0)
(5.0953 4.41121e-09 0)
(5.0953 6.75827e-08 0)
(11.4953 0.601246 0)
(8.49094 0.763098 0)
(11.5998 -0.0598381 0)
(12.4986 0.401903 0)
(9.74457 2.55913 0)
(12.2171 0.104197 0)
(12.0606 -2.45472 0)
(10.7851 -2.94008 0)
(9.85877 -2.9787 0)
(9.35242 -3.03535 0)
(8.30266 -2.69108 0)
(7.49231 -1.96551 0)
(7.19156 -1.18549 0)
(6.1988 -0.856837 0)
(5.58602 -0.644173 0)
(5.76999 -0.308909 0)
(5.88131 -0.0771003 0)
(5.71784 -0.0159544 0)
(5.52585 -0.0149467 0)
(5.41929 -0.0185339 0)
(5.36832 -0.0353972 0)
(5.3268 -0.0639796 0)
(5.28183 -0.0844613 0)
(5.23778 -0.0859992 0)
(5.19828 -0.0725107 0)
(5.16516 -0.0537325 0)
(5.13973 -0.0367703 0)
(5.12204 -0.0240784 0)
(5.11075 -0.0154133 0)
(5.10399 -0.00974666 0)
(5.10012 -0.00610966 0)
(5.09796 -0.00379554 0)
(5.09677 -0.00233411 0)
(5.09612 -0.00141978 0)
(5.09576 -0.000853988 0)
(5.09556 -0.000508454 0)
(5.09545 -0.000299773 0)
(5.09539 -0.00017517 0)
(5.09535 -0.000101614 0)
(5.09533 -5.8346e-05 0)
(5.09532 -3.34029e-05 0)
(5.09531 -1.89789e-05 0)
(5.09531 -1.05341e-05 0)
(5.09531 -6.01635e-06 0)
(5.0953 -3.42259e-06 0)
(5.0953 -1.73393e-06 0)
(5.0953 -8.9901e-07 0)
(5.0953 -5.18168e-07 0)
(5.0953 -2.78277e-07 0)
(5.0953 -2.10763e-07 0)
(5.0953 -6.93015e-08 0)
(5.0953 -2.69898e-08 0)
(5.0953 -1.07162e-07 0)
(5.0953 -1.98379e-08 0)
(5.0953 7.55813e-08 0)
(5.0953 4.62804e-08 0)
(5.0953 -3.71795e-08 0)
(5.0953 -8.02897e-08 0)
(5.0953 -4.26696e-08 0)
(5.0953 2.41701e-08 0)
(5.0953 2.93843e-08 0)
(5.0953 -3.55889e-08 0)
(5.0953 -6.73478e-08 0)
(5.0953 -4.66127e-09 0)
(5.0953 5.74911e-08 0)
(5.0953 3.37231e-08 0)
(5.0953 -3.47968e-08 0)
(5.0953 -6.26726e-08 0)
(5.0953 -4.18035e-09 0)
(5.0953 8.63091e-08 0)
(5.0953 9.69164e-08 0)
(5.0953 2.4546e-08 0)
(5.0953 -4.63267e-08 0)
(5.0953 -5.22257e-08 0)
(5.0953 8.16201e-09 0)
(5.0953 5.35907e-08 0)
(5.0953 2.80454e-08 0)
(5.0953 -9.86706e-09 0)
(5.0953 -4.20832e-08 0)
(5.0953 -5.83885e-08 0)
(5.0953 -5.87191e-08 0)
(5.0953 2.37886e-08 0)
(5.0953 5.55682e-08 0)
(5.09531 7.29395e-08 0)
(5.0953 -1.33369e-08 0)
(5.09531 -3.13564e-08 0)
(5.09529 -1.08594e-08 0)
(5.09531 -1.06038e-08 0)
(5.09529 1.01016e-07 0)
(5.09531 -8.91361e-08 0)
(5.0953 1.31148e-08 0)
(5.0953 -6.64184e-08 0)
(5.09531 -1.36083e-07 0)
(5.09529 1.79077e-07 0)
(5.09531 -1.0268e-07 0)
(5.0953 -2.50877e-09 0)
(5.0953 1.51013e-07 0)
(5.09531 -1.30677e-07 0)
(5.0953 1.93121e-08 0)
(5.0953 7.90075e-08 0)
(11.4268 0.809949 0)
(9.0698 0.760098 0)
(11.7296 -0.490298 0)
(11.6474 0.554187 0)
(9.99229 2.60794 0)
(12.8283 -0.0692214 0)
(12.3723 -2.3615 0)
(11.4506 -2.59809 0)
(10.6207 -2.62526 0)
(9.56235 -2.77298 0)
(8.51044 -2.47578 0)
(7.3895 -1.91049 0)
(7.24858 -1.14982 0)
(6.73842 -0.6517 0)
(5.75269 -0.540511 0)
(5.51131 -0.347671 0)
(5.79423 -0.0685579 0)
(5.86455 0.0582928 0)
(5.69654 0.0195996 0)
(5.50069 -0.071344 0)
(5.36314 -0.129026 0)
(5.28407 -0.143587 0)
(5.24103 -0.13565 0)
(5.21263 -0.1156 0)
(5.18708 -0.0885526 0)
(5.16209 -0.0616978 0)
(5.14012 -0.0402414 0)
(5.12338 -0.0253016 0)
(5.11201 -0.0156611 0)
(5.10491 -0.00965256 0)
(5.10072 -0.00594476 0)
(5.09832 -0.00365295 0)
(5.09699 -0.00223269 0)
(5.09625 -0.00135397 0)
(5.09584 -0.000813434 0)
(5.09561 -0.000484195 0)
(5.09548 -0.000285473 0)
(5.0954 -0.000166853 0)
(5.09536 -9.68651e-05 0)
(5.09533 -5.56247e-05 0)
(5.09532 -3.17953e-05 0)
(5.09531 -1.80875e-05 0)
(5.09531 -1.00778e-05 0)
(5.09531 -5.70699e-06 0)
(5.0953 -3.21194e-06 0)
(5.0953 -1.64587e-06 0)
(5.0953 -8.93019e-07 0)
(5.0953 -5.2092e-07 0)
(5.0953 -2.61378e-07 0)
(5.0953 -1.91718e-07 0)
(5.0953 -7.5002e-08 0)
(5.0953 -2.84657e-08 0)
(5.0953 -7.18075e-08 0)
(5.0953 -9.34747e-09 0)
(5.0953 3.11969e-08 0)
(5.0953 1.26531e-08 0)
(5.0953 -2.07555e-08 0)
(5.0953 -4.34531e-08 0)
(5.0953 -1.93598e-08 0)
(5.0953 1.61953e-09 0)
(5.0953 1.03653e-08 0)
(5.0953 -8.71322e-09 0)
(5.0953 -3.9703e-08 0)
(5.0953 -5.0063e-09 0)
(5.0953 3.36037e-08 0)
(5.0953 1.23832e-08 0)
(5.0953 -1.06981e-08 0)
(5.0953 -2.45723e-08 0)
(5.0953 -3.07179e-09 0)
(5.0953 5.39535e-08 0)
(5.0953 5.61434e-08 0)
(5.0953 6.37775e-09 0)
(5.0953 -2.05398e-08 0)
(5.0953 -1.78478e-08 0)
(5.0953 6.09912e-09 0)
(5.0953 2.67575e-08 0)
(5.0953 9.52308e-09 0)
(5.0953 -1.06996e-08 0)
(5.0953 -2.42816e-08 0)
(5.0953 -2.55113e-08 0)
(5.0953 -3.77582e-08 0)
(5.0953 1.79801e-08 0)
(5.0953 2.13718e-08 0)
(5.09531 5.49042e-08 0)
(5.0953 -1.47463e-08 0)
(5.09531 -1.27605e-08 0)
(5.09529 2.952e-09 0)
(5.09531 -2.50068e-08 0)
(5.09529 1.03921e-07 0)
(5.09531 -1.22747e-07 0)
(5.0953 2.52707e-08 0)
(5.0953 -4.24372e-08 0)
(5.09531 -1.39959e-07 0)
(5.09529 2.3045e-07 0)
(5.09531 -1.37962e-07 0)
(5.0953 -2.76604e-08 0)
(5.0953 1.87465e-07 0)
(5.09531 -1.79138e-07 0)
(5.0953 3.46655e-09 0)
(5.0953 1.00723e-07 0)
(11.1216 0.859796 0)
(9.8693 0.713608 0)
(11.792 -0.689797 0)
(10.7967 0.664847 0)
(10.4737 2.40612 0)
(13.181 -0.126116 0)
(12.4416 -2.267 0)
(10.9838 -2.59411 0)
(10.5051 -2.58779 0)
(9.50474 -2.63227 0)
(8.82559 -2.26986 0)
(7.47654 -1.68171 0)
(6.88882 -1.10767 0)
(6.87962 -0.608796 0)
(6.34685 -0.382741 0)
(5.58052 -0.293071 0)
(5.41659 -0.149617 0)
(5.70738 -0.0108337 0)
(5.98549 0.0486627 0)
(6.01432 0.058553 0)
(5.8246 0.0382046 0)
(5.58161 -0.00699275 0)
(5.39686 -0.0464094 0)
(5.28471 -0.0606527 0)
(5.21807 -0.0544718 0)
(5.17452 -0.0405406 0)
(5.14466 -0.0275169 0)
(5.12489 -0.0180139 0)
(5.11255 -0.0116871 0)
(5.1052 -0.00757295 0)
(5.10094 -0.00488865 0)
(5.09851 -0.00312548 0)
(5.09713 -0.00197007 0)
(5.09635 -0.00122202 0)
(5.0959 -0.000745801 0)
(5.09565 -0.00044867 0)
(5.0955 -0.000266405 0)
(5.09542 -0.000156404 0)
(5.09537 -9.10123e-05 0)
(5.09534 -5.23019e-05 0)
(5.09532 -2.99363e-05 0)
(5.09531 -1.7059e-05 0)
(5.09531 -9.47197e-06 0)
(5.09531 -5.37708e-06 0)
(5.0953 -3.03521e-06 0)
(5.0953 -1.5479e-06 0)
(5.0953 -8.30384e-07 0)
(5.0953 -4.92384e-07 0)
(5.0953 -2.55964e-07 0)
(5.0953 -1.69026e-07 0)
(5.0953 -6.15047e-08 0)
(5.0953 -1.8828e-08 0)
(5.0953 -8.08542e-08 0)
(5.0953 -1.19823e-08 0)
(5.0953 5.62711e-08 0)
(5.0953 3.17312e-08 0)
(5.0953 -2.82975e-08 0)
(5.0953 -6.41145e-08 0)
(5.0953 -3.44447e-08 0)
(5.0953 9.16091e-09 0)
(5.0953 1.9389e-08 0)
(5.0953 -2.40019e-08 0)
(5.0953 -5.46514e-08 0)
(5.0953 -4.50365e-09 0)
(5.0953 4.27457e-08 0)
(5.0953 2.57999e-08 0)
(5.0953 -2.41284e-08 0)
(5.0953 -4.97421e-08 0)
(5.0953 -2.89647e-10 0)
(5.0953 7.32159e-08 0)
(5.0953 7.6195e-08 0)
(5.0953 2.06973e-08 0)
(5.0953 -3.27328e-08 0)
(5.0953 -3.87853e-08 0)
(5.0953 8.90835e-09 0)
(5.0953 4.15486e-08 0)
(5.0953 1.59117e-08 0)
(5.0953 -7.85781e-09 0)
(5.0953 -3.37763e-08 0)
(5.0953 -4.66305e-08 0)
(5.0953 -5.44252e-08 0)
(5.0953 2.49064e-08 0)
(5.0953 3.72447e-08 0)
(5.09531 7.1252e-08 0)
(5.0953 -1.88436e-08 0)
(5.09531 -1.85839e-08 0)
(5.09529 -1.52339e-09 0)
(5.09531 -2.86931e-08 0)
(5.09529 1.26297e-07 0)
(5.09531 -1.37837e-07 0)
(5.0953 5.09196e-08 0)
(5.0953 -6.39176e-08 0)
(5.09531 -1.6862e-07 0)
(5.09529 2.66809e-07 0)
(5.09531 -1.75309e-07 0)
(5.0953 -6.62703e-09 0)
(5.0953 2.18686e-07 0)
(5.09531 -2.05759e-07 0)
(5.0953 2.04711e-08 0)
(5.0953 1.14904e-07 0)
(10.5164 0.966347 0)
(10.734 0.666976 0)
(11.5285 -0.747864 0)
(10.2394 0.75453 0)
(11.0224 2.08029 0)
(13.0613 -0.17132 0)
(12.247 -2.13347 0)
(10.5441 -2.41955 0)
(10.2739 -2.27918 0)
(9.60401 -2.4683 0)
(9.05504 -2.10998 0)
(8.06372 -1.54156 0)
(6.99853 -0.960207 0)
(6.61556 -0.574853 0)
(6.47777 -0.358483 0)
(6.15977 -0.170021 0)
(5.65828 -0.0579123 0)
(5.37192 -0.027145 0)
(5.34377 -0.0325814 0)
(5.38079 -0.0496977 0)
(5.37218 -0.0753101 0)
(5.32507 -0.0989903 0)
(5.27543 -0.108198 0)
(5.23641 -0.100051 0)
(5.20425 -0.0779337 0)
(5.17462 -0.0532273 0)
(5.14852 -0.0336932 0)
(5.12843 -0.0207251 0)
(5.11482 -0.0127401 0)
(5.10642 -0.00789315 0)
(5.10155 -0.00491717 0)
(5.09881 -0.00306082 0)
(5.09729 -0.0018929 0)
(5.09644 -0.00115907 0)
(5.09596 -0.000701578 0)
(5.09568 -0.000420028 0)
(5.09552 -0.000248705 0)
(5.09543 -0.000145753 0)
(5.09538 -8.47573e-05 0)
(5.09534 -4.86851e-05 0)
(5.09533 -2.78376e-05 0)
(5.09532 -1.58843e-05 0)
(5.09531 -8.84534e-06 0)
(5.09531 -4.98038e-06 0)
(5.09531 -2.78558e-06 0)
(5.0953 -1.43004e-06 0)
(5.0953 -7.98606e-07 0)
(5.0953 -4.87326e-07 0)
(5.0953 -2.34972e-07 0)
(5.0953 -1.49278e-07 0)
(5.0953 -6.01445e-08 0)
(5.0953 -1.78416e-08 0)
(5.0953 -5.30087e-08 0)
(5.0953 -4.09254e-09 0)
(5.0953 2.47634e-08 0)
(5.0953 6.94172e-09 0)
(5.0953 -2.01945e-08 0)
(5.0953 -3.98074e-08 0)
(5.0953 -1.7652e-08 0)
(5.0953 -4.61134e-09 0)
(5.0953 4.82581e-09 0)
(5.0953 -4.60271e-09 0)
(5.0953 -3.42186e-08 0)
(5.0953 -5.82233e-09 0)
(5.0953 2.89018e-08 0)
(5.0953 1.05509e-08 0)
(5.0953 -9.30405e-09 0)
(5.0953 -2.07948e-08 0)
(5.0953 5.96125e-10 0)
(5.0953 5.23981e-08 0)
(5.0953 4.96193e-08 0)
(5.0953 5.37979e-09 0)
(5.0953 -1.70617e-08 0)
(5.0953 -1.48169e-08 0)
(5.0953 8.23952e-09 0)
(5.0953 2.36019e-08 0)
(5.0953 2.96869e-09 0)
(5.0953 -9.09483e-09 0)
(5.0953 -2.34866e-08 0)
(5.0953 -2.37677e-08 0)
(5.0953 -3.90772e-08 0)
(5.0953 2.43724e-08 0)
(5.0953 1.25331e-08 0)
(5.09531 6.1104e-08 0)
(5.0953 -2.31104e-08 0)
(5.09531 -4.25449e-09 0)
(5.09529 7.76845e-09 0)
(5.09531 -3.94016e-08 0)
(5.09529 1.334e-07 0)
(5.09531 -1.71542e-07 0)
(5.0953 6.58597e-08 0)
(5.0953 -5.49685e-08 0)
(5.09531 -1.72683e-07 0)
(5.09529 3.17931e-07 0)
(5.09531 -2.15801e-07 0)
(5.0953 -1.62654e-08 0)
(5.0953 2.52102e-07 0)
(5.09531 -2.5288e-07 0)
(5.0953 8.33699e-09 0)
(5.0953 1.32348e-07 0)
(9.96177 0.904585 0)
(11.3905 0.541371 0)
(11.033 -0.663381 0)
(9.8205 0.744751 0)
(11.2466 1.78075 0)
(12.7475 -0.224859 0)
(12.1923 -1.86006 0)
(10.4925 -2.24863 0)
(9.70111 -2.3266 0)
(9.84984 -2.4453 0)
(9.19544 -2.0093 0)
(8.66608 -1.33428 0)
(7.49882 -0.846905 0)
(6.95308 -0.439193 0)
(6.48472 -0.250312 0)
(5.97477 -0.161663 0)
(5.79268 -0.0307199 0)
(5.8193 0.0369638 0)
(5.8638 0.0474909 0)
(5.84536 0.0587238 0)
(5.74369 0.0636122 0)
(5.58428 0.0382711 0)
(5.422 -0.00739731 0)
(5.29863 -0.0334075 0)
(5.21976 -0.0361015 0)
(5.17187 -0.0280578 0)
(5.14256 -0.0187355 0)
(5.12439 -0.0119113 0)
(5.11306 -0.00773453 0)
(5.106 -0.0051987 0)
(5.10166 -0.00353501 0)
(5.09903 -0.00237467 0)
(5.09747 -0.00155687 0)
(5.09656 -0.000993474 0)
(5.09603 -0.00061805 0)
(5.09572 -0.000376484 0)
(5.09555 -0.000225258 0)
(5.09544 -0.000132812 0)
(5.09538 -7.74696e-05 0)
(5.09535 -4.45552e-05 0)
(5.09533 -2.55071e-05 0)
(5.09532 -1.45718e-05 0)
(5.09531 -8.07886e-06 0)
(5.09531 -4.54111e-06 0)
(5.09531 -2.54241e-06 0)
(5.0953 -1.31079e-06 0)
(5.0953 -7.35258e-07 0)
(5.0953 -4.53726e-07 0)
(5.0953 -2.22741e-07 0)
(5.0953 -1.18205e-07 0)
(5.0953 -4.64012e-08 0)
(5.0953 -1.01615e-08 0)
(5.0953 -5.47415e-08 0)
(5.0953 -7.20721e-09 0)
(5.0953 3.93233e-08 0)
(5.0953 1.91093e-08 0)
(5.0953 -2.09106e-08 0)
(5.0953 -5.15989e-08 0)
(5.0953 -2.71998e-08 0)
(5.0953 7.34204e-10 0)
(5.0953 9.59433e-09 0)
(5.0953 -1.30443e-08 0)
(5.0953 -4.28347e-08 0)
(5.0953 -5.99351e-09 0)
(5.0953 3.24784e-08 0)
(5.0953 1.87197e-08 0)
(5.0953 -1.62291e-08 0)
(5.0953 -3.79628e-08 0)
(5.0953 1.04837e-09 0)
(5.0953 6.0803e-08 0)
(5.0953 5.85322e-08 0)
(5.0953 1.59925e-08 0)
(5.0953 -2.15192e-08 0)
(5.0953 -2.84323e-08 0)
(5.0953 8.08733e-09 0)
(5.0953 3.23315e-08 0)
(5.0953 6.57879e-09 0)
(5.0953 -6.2959e-09 0)
(5.0953 -2.6391e-08 0)