/*--------------------------------*- C++ -*----------------------------------*\
| =========                 |                                                 |
| \\      /  F ield         | OpenFOAM: The Open Source CFD Toolbox           |
|  \\    /   O peration     | Version:  2.4.0                                 |
|   \\  /    A nd           | Web:      www.OpenFOAM.org                      |
|    \\/     M anipulation  |                                                 |
\*---------------------------------------------------------------------------*/
FoamFile
{
    version     2.0;
    format      ascii;
    class       volScalarField;
    location    "1.11";
    object      k_0;
}
// * * * * * * * * * * * * * * * * * * * * * * * * * * * * * * * * * * * * * //

dimensions      [0 2 -2 0 0 0 0];

internalField   nonuniform List<scalar> 
8800
(
8.11521
10.2742
8.78571
6.81915
5.71128
4.97164
4.50277
4.17878
3.87699
3.68932
3.5153
3.41357
3.25328
3.19434
3.07542
3.02698
2.91447
2.84196
2.86299
2.63398
1.39946
4.36087
5.31691
5.28466
5.12706
4.82205
4.53703
4.33523
4.0684
3.91258
3.7439
3.62485
3.47246
3.4181
3.29679
3.23952
3.15128
3.09437
3.01491
3.01195
0.0840917
0.731803
1.57181
1.94285
2.24852
2.47692
2.55188
2.60829
2.61784
2.6118
2.56929
2.54256
2.52474
2.49013
2.43684
2.41509
2.39344
2.36249
2.29741
2.28613
0.00333174
0.0700926
0.263749
0.433863
0.544525
0.726756
0.846058
0.909414
1.03022
1.12035
1.14741
1.18611
1.28316
1.3093
1.3381
1.35511
1.40566
1.40842
1.41447
1.4076
0.000121904
0.00501646
0.0256663
0.0608523
0.0786622
0.118951
0.174127
0.197079
0.244477
0.300276
0.318834
0.337842
0.399608
0.428809
0.469909
0.49021
0.539405
0.553569
0.58798
0.605239
2.51787e-05
0.000317245
0.00178575
0.00570404
0.00716399
0.0105845
0.0200415
0.0246617
0.0338422
0.049446
0.053597
0.0580337
0.0728899
0.08433
0.0962685
0.110945
0.124891
0.132753
0.14382
0.162814
2.18511e-05
4.33584e-05
0.000142433
0.000487408
0.000550169
0.000704926
0.0013287
0.00178841
0.00270911
0.00498196
0.00528432
0.00573919
0.00690154
0.00960733
0.0110285
0.0149638
0.0169845
0.0199413
0.0212128
0.0268737
2.11275e-05
2.9134e-05
4.38819e-05
9.72173e-05
0.000104463
0.00011053
0.000134873
0.000157144
0.000199051
0.000384911
0.000427882
0.000474465
0.000506279
0.000612409
0.000705471
0.00129678
0.00164636
0.00195655
0.0019815
0.00279341
2.06115e-05
3.01367e-05
4.14329e-05
6.57368e-05
6.60299e-05
6.67253e-05
8.06745e-05
9.21065e-05
9.25433e-05
0.000107409
0.000112037
0.000114671
0.000125448
0.000141525
0.000170213
0.000258264
0.000269015
0.000291328
0.000284745
0.000340755
2.04753e-05
3.43849e-05
4.49421e-05
4.77428e-05
5.4249e-05
6.86013e-05
8.1372e-05
8.31086e-05
8.29435e-05
8.56015e-05
9.43337e-05
0.000123041
0.00012019
0.00013961
0.000153115
0.000172294
0.000246323
0.000250409
0.00025259
0.000310121
2.05342e-05
3.39811e-05
3.85772e-05
4.3869e-05
6.63943e-05
8.07602e-05
7.91061e-05
7.09289e-05
6.88974e-05
8.22747e-05
0.000117317
0.000115675
0.000116273
0.000115092
0.00012386
0.000197301
0.00020501
0.000201615
0.000208527
0.000212011
2.0772e-05
2.87939e-05
3.72167e-05
6.31433e-05
8.2078e-05
8.07508e-05
7.20687e-05
7.18127e-05
8.8298e-05
0.000137859
0.000139159
0.000129979
0.000120587
0.00013455
0.000231592
0.000273671
0.000275896
0.000275071
0.000280842
0.000338371
2.1102e-05
2.8926e-05
4.90123e-05
7.87958e-05
9.79222e-05
0.000108307
0.000127127
0.000215249
0.000310566
0.000341814
0.000374058
0.000383769
0.000399841
0.000571721
0.00110444
0.0014589
0.00157955
0.00185217
0.00210619
0.00252445
2.17269e-05
4.32382e-05
0.000126887
0.000238582
0.00052314
0.00108756
0.00144374
0.00249586
0.00299416
0.00375754
0.00438501
0.00578588
0.00666494
0.00946514
0.0124673
0.0161273
0.017683
0.0214833
0.0237121
0.0290488
2.50296e-05
0.000305359
0.0015174
0.00332661
0.00828494
0.0148874
0.0185515
0.0284597
0.0337231
0.0429006
0.0494235
0.0632468
0.0695444
0.0870591
0.0981471
0.116647
0.124623
0.145274
0.156906
0.189112
0.000124219
0.00488329
0.0236387
0.0453958
0.0952982
0.133722
0.156959
0.212487
0.244908
0.27766
0.311949
0.361587
0.382175
0.435681
0.461631
0.510968
0.531329
0.58708
0.614649
0.687238
0.00337081
0.0694851
0.255883
0.408121
0.603827
0.709841
0.819644
0.948375
1.02473
1.07247
1.1597
1.21966
1.2495
1.31509
1.34208
1.38076
1.39845
1.451
1.47286
1.52738
0.0846036
0.727822
1.56165
1.9333
2.30318
2.42547
2.57541
2.60571
2.61849
2.58968
2.58667
2.54264
2.52562
2.4772
2.46192
2.41567
2.40571
2.38128
2.37106
2.3468
1.40734
4.34447
5.3207
5.28789
5.13514
4.79371
4.59474
4.26315
4.12654
3.87647
3.77691
3.5721
3.52319
3.36548
3.32558
3.20223
3.17312
3.05097
3.0112
2.91024
8.12357
10.2567
8.79519
6.81987
5.70914
4.9553
4.54711
4.11549
3.926
3.65649
3.55181
3.34356
3.30561
3.1358
3.10242
2.94104
2.9088
2.72633
2.65725
2.43698
1.82946
1.36172
1.0455
0.874102
0.727542
0.664115
0.607563
0.594893
0.572032
0.567891
0.554732
0.550446
0.536901
0.532956
0.521043
0.518924
0.509201
0.508796
0.501793
0.502694
0.496564
0.497981
0.492855
0.495167
0.492091
0.496257
0.495668
0.501736
0.502714
0.510622
0.510922
0.516192
0.51448
0.516221
0.510906
0.510933
0.505415
0.506127
0.502155
0.494571
0.470173
0.401516
0.278089
0.195102
0.154954
0.14588
0.146376
0.149577
0.153333
0.155908
0.155258
0.153266
0.149825
0.143018
0.133675
0.130109
0.130183
0.133063
0.142169
0.172777
0.206379
0.212128
0.208585
0.196063
0.159367
0.113933
0.0814908
0.060236
0.0462768
0.0396066
0.0391511
0.040962
0.0485373
0.0798761
0.145419
0.164144
0.162249
0.151536
0.120818
0.0958846
0.0841561
0.078895
0.0771972
0.076141
0.0759679
0.0761464
0.0767113
0.0768058
0.0764266
0.075911
0.0756461
0.0755058
0.0751406
0.0743968
0.0736175
0.073305
0.0735219
0.0733868
0.0723493
0.0690137
0.0572746
0.0510018
0.0536978
0.070394
0.123145
0.229446
0.263513
0.263464
0.255554
0.23906
0.219186
0.204525
0.19911
0.196121
0.191464
0.184451
0.176147
0.171123
0.167947
0.165861
0.164075
0.161548
0.157839
0.152852
0.14043
0.126417
0.116299
0.111426
0.11033
0.10924
0.1078
0.104861
0.0973736
0.0846383
0.0666969
0.0508836
0.0440505
0.0423259
0.0416251
0.0400468
0.0351311
0.0286285
0.0250309
0.0248226
0.0270344
0.0286402
0.0290677
0.028171
0.0234471
0.0197767
0.0188778
0.0202817
0.0247339
0.0266521
0.0255082
0.0224748
0.0225011
0.0252953
0.0323243
0.040124
0.0441846
0.0432883
0.0393792
0.0410095
0.0461986
0.0590005
0.087505
0.11138
0.12271
0.123603
0.121421
0.108762
0.0984058
0.0908991
0.0880125
0.0805868
0.0681247
0.046457
0.0438069
0.0408159
0.0403632
0.0407954
0.0369594
0.0381047
0.0392717
0.0497908
0.0595755
0.0668348
0.0997289
0.1263
0.203971
0.197216
0.23419
0.251852
0.380502
0.34148
0.430613
0.323713
0.401259
0.8047
2.56931
2.12553
1.7674
1.53705
1.33272
1.20649
1.08167
1.01427
0.935122
0.899288
0.844871
0.824023
0.782331
0.7664
0.73261
0.72027
0.693568
0.684529
0.66412
0.657401
0.641754
0.635868
0.622328
0.616352
0.602851
0.596773
0.583048
0.577788
0.565664
0.561736
0.552
0.549369
0.542268
0.539969
0.534275
0.533134
0.53309
0.534749
0.53877
0.54767
0.563166
0.565253
0.557434
0.528856
0.458514
0.350915
0.257232
0.209405
0.182508
0.170081
0.161234
0.154498
0.146586
0.139625
0.139367
0.14203
0.151834
0.174321
0.21472
0.230002
0.228366
0.221784
0.206008
0.163321
0.110577
0.0723335
0.0515202
0.0412166
0.0322534
0.0256714
0.0244178
0.0244606
0.0257717
0.032213
0.0533034
0.11202
0.141833
0.143198
0.139061
0.122027
0.0998873
0.0870269
0.0799124
0.0767363
0.0755258
0.0750982
0.0753671
0.0759381
0.0760102
0.075892
0.0753203
0.0746977
0.0735904
0.0736603
0.0739371
0.0751112
0.0750884
0.073971
0.0705024
0.058929
0.0475768
0.0487766
0.0619465
0.116529
0.24505
0.284581
0.283707
0.271638
0.247732
0.21937
0.205243
0.19967
0.197573
0.195944
0.192675
0.183934
0.174121
0.167921
0.165638
0.165281
0.164994
0.164053
0.160427
0.157702
0.153729
0.145344
0.132257
0.122936
0.118032
0.114096
0.112483
0.109617
0.098554
0.0854257
0.0666914
0.0508968
0.0449904
0.0437857
0.0421667
0.0357441
0.0262429
0.0210547
0.0195993
0.0202293
0.0222563
0.0230842
0.0230292
0.0217386
0.0198787
0.0195698
0.0211819
0.0261568
0.0302479
0.0331822
0.0340615
0.0324041
0.0283913
0.0281866
0.0305
0.0358769
0.0405181
0.0502649
0.0537292
0.0502186
0.0500895
0.0539471
0.0628889
0.0852724
0.111797
0.121312
0.121772
0.115689
0.108865
0.0977792
0.0954257
0.0874795
0.083975
0.0624479
0.0486137
0.0429103
0.0379284
0.040072
0.0382704
0.0373504
0.0380319
0.044336
0.0630683
0.0667494
0.0814605
0.103858
0.185181
0.19435
0.239762
0.25098
0.372711
0.389393
0.630009
0.489654
0.816163
0.846415
2.07635
1.85375
1.63447
1.47437
1.32534
1.21952
1.11482
1.04437
0.969308
0.923125
0.868573
0.838089
0.795712
0.774315
0.738318
0.72279
0.691757
0.678779
0.653318
0.641438
0.62121
0.610616
0.593816
0.585214
0.569098
0.561908
0.546066
0.538611
0.521584
0.513965
0.497396
0.490021
0.474898
0.468451
0.457514
0.451018
0.445139
0.443391
0.44488
0.449745
0.457296
0.475956
0.491787
0.513402
0.513083
0.507113
0.48905
0.444402
0.395498
0.341597
0.301427
0.270254
0.247694
0.243024
0.244605
0.2541
0.262612
0.26248
0.258622
0.248756
0.230805
0.203954
0.146568
0.0891937
0.0529966
0.0364915
0.0260781
0.020041
0.0187628
0.0168121
0.0151994
0.015281
0.0158338
0.0173724
0.0226265
0.0357044
0.0803328
0.117667
0.126931
0.124867
0.118966
0.103511
0.0899048
0.0822387
0.0782509
0.0767568
0.0761314
0.0758092
0.075628
0.0749133
0.0744936
0.0745887
0.0752222
0.0771212
0.0782037
0.0776497
0.0758375
0.0713986
0.059998
0.0446281
0.0443237
0.0532767
0.0977485
0.238947
0.299703
0.302277
0.289541
0.254946
0.221091
0.205733
0.200523
0.198974
0.198882
0.198262
0.195928
0.18563
0.176474
0.172
0.170973
0.171351
0.171226
0.17
0.16638
0.161561
0.15866
0.156092
0.149787
0.13775
0.132982
0.129281
0.124558
0.111958
0.0977024
0.0836678
0.0650052
0.0518916
0.0460615
0.042497
0.0341667
0.0243199
0.018936
0.0171131
0.0172516
0.0180279
0.0183741
0.018946
0.0190642
0.0187482
0.0184485
0.0185863
0.0202725
0.0250668
0.0288394
0.0295149
0.0299951
0.0294048
0.0268629
0.0260438
0.0274346
0.0288449
0.0317937
0.0378462
0.0512595
0.0593657
0.0596142
0.0581033
0.0600363
0.0651615
0.0783677
0.104653
0.117298
0.116975
0.113457
0.105734
0.104974
0.094805
0.0892708
0.0768949
0.0581161
0.0475746
0.0388642
0.0390305
0.0397995
0.037535
0.0384205
0.0398267
0.0594268
0.0655715
0.0618811
0.0794309
0.0916374
0.153541
0.15458
0.18501
0.210901
0.299608
0.544983
0.583293
0.670025
0.806547
1.32257
1.23118
1.13188
1.04933
0.967863
0.906813
0.8435
0.7965
0.746599
0.71096
0.671676
0.646546
0.615967
0.598607
0.573013
0.558999
0.537103
0.523283
0.503605
0.490198
0.471026
0.458838
0.440323
0.430279
0.413414
0.406045
0.391214
0.384654
0.371274
0.36434
0.351331
0.341339
0.329675
0.318302
0.309136
0.299752
0.293142
0.289829
0.290142
0.293156
0.298034
0.310654
0.321222
0.348477
0.37123
0.39994
0.423728
0.423285
0.419127
0.410394
0.394409
0.380469
0.362685
0.351175
0.337006
0.315633
0.296779
0.276211
0.24728
0.209619
0.159669
0.0998505
0.0601184
0.0377038
0.0248688
0.0176357
0.0145828
0.0125653
0.010713
0.0102188
0.0101565
0.0101849
0.0103726
0.0109032
0.0123578
0.0159817
0.0253184
0.0536505
0.0929429
0.110932
0.112873
0.11152
0.108082
0.0985437
0.089676
0.0844824
0.0810361
0.0797795
0.0795779
0.0797542
0.0804525
0.0820112
0.0820243
0.0813855
0.0799557
0.0771211
0.0706572
0.057262
0.0411267
0.0369488
0.0423176
0.0798015
0.216489
0.313245
0.321503
0.307647
0.261494
0.225072
0.206469
0.19978
0.198351
0.198592
0.198765
0.197909
0.193686
0.184669
0.182015
0.181041
0.181059
0.184369
0.185193
0.183474
0.177514
0.170209
0.167021
0.166112
0.164274
0.154396
0.148077
0.140472
0.126624
0.110546
0.094592
0.080438
0.0628781
0.051642
0.0422422
0.0326992
0.023475
0.0170512
0.014448
0.0142603
0.016415
0.0177229
0.0175855
0.0174188
0.017448
0.0174117
0.0169598
0.0168808
0.0172057
0.0192317
0.0202862
0.020159
0.0189169
0.0185003
0.0178997
0.0180183
0.0210094
0.0244712
0.0254516
0.0270069
0.0333674
0.0521901
0.0615366
0.0634744
0.0627413
0.0608359
0.0624009
0.0687347
0.0901286
0.108513
0.11002
0.107636
0.108488
0.104565
0.0954774
0.085305
0.0675166
0.0525752
0.0426263
0.0385178
0.0405197
0.0390652
0.0398832
0.0396297
0.0430505
0.0567643
0.0574088
0.0677469
0.0749874
0.112912
0.129045
0.172323
0.191063
0.26202
0.278172
0.48498
0.530042
0.73645
0.585028
0.561567
0.530447
0.505594
0.472179
0.451257
0.424435
0.407033
0.385034
0.368935
0.349502
0.335761
0.320628
0.311382
0.302778
0.295188
0.290583
0.283628
0.277298
0.271444
0.260985
0.254145
0.241739
0.231894
0.219457
0.208652
0.198567
0.189288
0.183521
0.176419
0.171455
0.16715
0.160255
0.15488
0.148821
0.142537
0.135219
0.130656
0.129514
0.130387
0.133958
0.138673
0.149505
0.160721
0.176957
0.188015
0.211692
0.233921
0.249345
0.269353
0.272594
0.270467
0.263902
0.252801
0.232619
0.206331
0.180943
0.145446
0.106759
0.0743636
0.0497156
0.0330692
0.0223212
0.0153047
0.0108648
0.00907828
0.00809049
0.00754609
0.00744442
0.00751402
0.00809926
0.00839746
0.00848261
0.00854101
0.00873858
0.00947244
0.0116702
0.0180737
0.0348135
0.0687409
0.0909242
0.101444
0.103173
0.102595
0.100903
0.0985311
0.0962045
0.0942881
0.0910253
0.0891746
0.087519
0.0861455
0.0837741
0.0810797
0.0767351
0.0679598
0.0494285
0.0367662
0.0300569
0.0322493
0.0553382
0.17666
0.326091
0.347439
0.329602
0.273999
0.224753
0.209137
0.197161
0.194888
0.192581
0.192159
0.191462
0.184432
0.178671
0.178859
0.181111
0.182333
0.183051
0.184777
0.185013
0.183613
0.177672
0.171513
0.171042
0.172866
0.172787
0.169882
0.158639
0.143523
0.125655
0.108387
0.0905921
0.0755144
0.0587147
0.0451964
0.0312472
0.0223845
0.0164786
0.0136127
0.0127327
0.0130727
0.0157452
0.017379
0.0173769
0.016952
0.0169635
0.0164976
0.0155834
0.015407
0.0159889
0.0168785
0.017099
0.0166256
0.0159597
0.0158634
0.0162676
0.0200822
0.0296185
0.0318691
0.0312475
0.0314368
0.0345248
0.0490054
0.0651096
0.0721581
0.0713647
0.0643638
0.0590679
0.0583097
0.0611795
0.0751039
0.0961035
0.101597
0.107463
0.107446
0.105772
0.0958569
0.0787291
0.0586086
0.048159
0.0400627
0.0415211
0.0416755
0.0426401
0.0408916
0.0414658
0.0491736
0.0626207
0.0634926
0.0725812
0.101726
0.128679
0.148769
0.183625
0.229632
0.273034
0.422659
0.450837
0.692729
0.160259
0.156536
0.149744
0.144721
0.136143
0.13228
0.124954
0.1215
0.115846
0.111899
0.10703
0.102389
0.0985062
0.0952189
0.0934697
0.0915391
0.0908564
0.0900387
0.0891255
0.0887046
0.0875416
0.0864856
0.0842572
0.0814213
0.0772708
0.0720694
0.0680225
0.0623756
0.0593931
0.0557973
0.053467
0.0523132
0.0504234
0.0497958
0.0482445
0.0472335
0.0448575
0.0425583
0.0407974
0.0406759
0.0412026
0.0422804
0.0458725
0.0491459
0.056248
0.0618831
0.0696101
0.0794629
0.0831436
0.0914259
0.0953386
0.0947607
0.0922991
0.0869312
0.0773704
0.0657061
0.0541617
0.042054
0.0315181
0.0227327
0.0163623
0.011878
0.00826793
0.00632757
0.00544969
0.00475744
0.00453082
0.00467542
0.0050443
0.00572881
0.00735524
0.00786972
0.00784113
0.00769931
0.00753542
0.00754961
0.00782861
0.00901763
0.0128992
0.0215653
0.0430799
0.0666043
0.0820818
0.0901529
0.0934361
0.0936922
0.0935681
0.0929074
0.0918392
0.0901491
0.0873484
0.0843758
0.0768244
0.0695257
0.0572613
0.0350586
0.0272506
0.0231486
0.0237017
0.0349986
0.106365
0.314616
0.372605
0.358805
0.294366
0.230899
0.207495
0.193242
0.182904
0.180439
0.178943
0.181556
0.181498
0.17708
0.171821
0.170589
0.17303
0.175442
0.176472
0.175004
0.172761
0.17322
0.172333
0.169938
0.170251
0.174307
0.177079
0.175972
0.161985
0.143054
0.122307
0.103705
0.0838262
0.0639824
0.0462776
0.0334328
0.0231779
0.016766
0.0134109
0.0125008
0.0124535
0.0132003
0.0153038
0.0165328
0.0166114
0.0163664
0.0160689
0.0152883
0.0149056
0.0150519
0.0162347
0.0165813
0.0165323
0.0164417
0.0166544
0.0174295
0.0223255
0.0435735
0.0616925
0.0635105
0.0622987
0.0633951
0.0643162
0.0661892
0.071242
0.0759843
0.0765782
0.0734267
0.0633818
0.0552915
0.0534797
0.054922
0.0621261
0.0833803
0.0992331
0.10541
0.106572
0.103534
0.0943449
0.0650234
0.0559499
0.0439348
0.0458722
0.0455998
0.0496424
0.045415
0.045614
0.0472841
0.067868
0.0699404
0.0844851
0.0939701
0.147811
0.166174
0.178284
0.212485
0.231989
0.38486
0.39719
0.516566
0.0267067
0.0261742
0.0249932
0.0241521
0.0230443
0.0226569
0.0218053
0.021481
0.0209747
0.0206869
0.0201524
0.0193535
0.0186965
0.0179923
0.0175632
0.0171884
0.0170749
0.017033
0.0171075
0.0176368
0.0179058
0.0183036
0.0184334
0.0185134
0.0184727
0.0177068
0.0165408
0.0148547
0.0139817
0.0129117
0.0123662
0.0119969
0.0117993
0.011823
0.0118366
0.0119274
0.0117117
0.0110582
0.0102525
0.00993194
0.00998226
0.010096
0.0107347
0.0115153
0.0130476
0.0153093
0.0169265
0.0204771
0.0221328
0.0243757
0.0254332
0.0253019
0.0246862
0.0232338
0.0210062
0.0179026
0.0151157
0.0119014
0.00913923
0.0072478
0.00533597
0.00407271
0.00348783
0.00306374
0.00286731
0.00294343
0.00324165
0.00397675
0.00462953
0.00499896
0.0059009
0.00682559
0.00729999
0.00744695
0.00733552
0.0070218
0.00697375
0.00706166
0.00768654
0.00956388
0.014447
0.0233305
0.0381576
0.0529672
0.0616943
0.0697442
0.07263
0.0725357
0.0716011
0.0677587
0.0637134
0.0546563
0.0434805
0.0328745
0.0217439
0.0167828
0.0166623
0.0169381
0.0220957
0.061207
0.25118
0.384447
0.387334
0.333406
0.244277
0.202891
0.18711
0.174784
0.168683
0.168245
0.17
0.177245
0.177342
0.175482
0.171365
0.16939
0.170195
0.171712
0.170461
0.160358
0.155054
0.154578
0.158302
0.161628
0.167734
0.176124
0.179979
0.17756
0.160814
0.139102
0.116595
0.0918994
0.0710448
0.0513852
0.0365779
0.0259507
0.0188928
0.014503
0.0125146
0.012091
0.0123003
0.0134404
0.0148723
0.0154584
0.0154521
0.0154708
0.0154384
0.0151037
0.0149668
0.0151905
0.0160045
0.0170856
0.0178074
0.0191759
0.0216356
0.0295954
0.0540978
0.0624716
0.071682
0.0747354
0.080953
0.0831714
0.0831102
0.0765565
0.0695885
0.0701475
0.0715797
0.0708361
0.0666712
0.0573324
0.0495612
0.0475234
0.0478101
0.0535116
0.074554
0.0971552
0.104495
0.103802
0.10097
0.0795006
0.0686273
0.0527056
0.0538112
0.0533189
0.0579155
0.0533348
0.0530175
0.0510936
0.0626898
0.0729206
0.0919659
0.104904
0.153916
0.196838
0.211782
0.216495
0.248592
0.39026
0.417753
0.433161
0.00298231
0.00295766
0.00289237
0.00282719
0.00276814
0.00275562
0.00274895
0.00275643
0.00276404
0.002761
0.00270972
0.00258516
0.00247712
0.00236285
0.00228172
0.00221516
0.00217995
0.00216685
0.00219316
0.00234686
0.00252276
0.00271043
0.00283972
0.00294027
0.00296647
0.00296281
0.00288041
0.00269348
0.00257837
0.00246542
0.00242509
0.00239583
0.00239081
0.00240156
0.00241723
0.00243698
0.00241168
0.00230005
0.00212343
0.00201447
0.00201355
0.0020206
0.00207638
0.0022331
0.00242014
0.0028426
0.00333632
0.00407305
0.00449586
0.00512073
0.00549327
0.00551001
0.00546958
0.00526811
0.00489518
0.00450485
0.00379844
0.00328875
0.00280689
0.00237134
0.00208886
0.00201694
0.00203526
0.00210977
0.00228321
0.0026712
0.00327776
0.00371186
0.00440041
0.00488574
0.0055201
0.006105
0.00632459
0.00638663
0.00631788
0.00593177
0.00568735
0.00565323
0.00575224
0.00607635
0.00726061
0.00913592
0.0138945
0.0202682
0.0250149
0.0304024
0.0321331
0.0320953
0.0306261
0.0278828
0.0247029
0.0187247
0.0166636
0.0131352
0.0107519
0.0113537
0.0124284
0.0153715
0.0342455
0.15177
0.375738
0.425035
0.393503
0.276937
0.216318
0.190532
0.177374
0.168279
0.16321
0.158298
0.156349
0.162362
0.168256
0.173984
0.173265
0.172596
0.171881
0.171948
0.167978
0.155842
0.148774
0.147581
0.150348
0.157679
0.168932
0.177793
0.179723
0.175653
0.156152
0.130277
0.103532
0.0792681
0.0603922
0.041826
0.0296236
0.0220093
0.0172628
0.0140515
0.0125441
0.0122649
0.0126528
0.0138105
0.0146529
0.0150541
0.0153182
0.0152897
0.0152134
0.0151361
0.0153925
0.016122
0.0185466
0.0207277
0.0223882
0.0252023
0.0328102
0.0604092
0.0742154
0.0747868
0.0743255
0.0752151
0.0801633
0.0797663
0.0770056
0.0666093
0.0572121
0.0560185
0.056239
0.0613386
0.0611574
0.056998
0.049387
0.0440588
0.0421937
0.0433713
0.0475007
0.0798207
0.0968941
0.101491
0.101748
0.0916976
0.0843293
0.0630429
0.0617632
0.0587217
0.062361
0.0585107
0.0589355
0.0564591
0.058116
0.0672673
0.07689
0.094795
0.101525
0.190403
0.218039
0.243591
0.254411
0.309699
0.350983
0.370671
0.000370781
0.000399256
0.000441691
0.000476452
0.000487033
0.000489438
0.00048992
0.000487053
0.000482503
0.000475354
0.000466062
0.000453347
0.000438907
0.000423047
0.000409812
0.000398623
0.000391548
0.000387001
0.00038511
0.000385663
0.000407601
0.000465325
0.000536526
0.000601697
0.000661567
0.000703411
0.000735725
0.000752647
0.000759626
0.000762516
0.000760656
0.000753671
0.000736411
0.000721681
0.000695107
0.000682879
0.000656548
0.000646049
0.000625308
0.000616003
0.000616391
0.000617224
0.000625092
0.000642627
0.000657449
0.00070505
0.000760256
0.000809139
0.000967322
0.00104071
0.00117598
0.00130796
0.00136159
0.00144304
0.00144983
0.00143144
0.00142683
0.0014396
0.00146
0.00151133
0.00157519
0.00171037
0.00196211
0.00243361
0.00294795
0.00385979
0.0046915
0.00545118
0.00638245
0.00696859
0.00706731
0.00700949
0.00682862
0.00662207
0.00636059
0.00595829
0.0054705
0.00517613
0.00502333
0.00504375
0.0052026
0.00556125
0.00661573
0.00818982
0.0102815
0.0111207
0.0115882
0.0115235
0.0108677
0.0104928
0.00940202
0.00869183
0.00831815
0.00766373
0.00811943
0.00959176
0.0117643
0.0211694
0.0687958
0.295773
0.449108
0.445432
0.341551
0.248275
0.206991
0.186609
0.173742
0.165604
0.161209
0.155595
0.152503
0.14967
0.151088
0.163513
0.16848
0.173828
0.175516
0.174301
0.164757
0.156639
0.150468
0.148783
0.150589
0.158962
0.169628
0.178048
0.178226
0.169032
0.142976
0.113173
0.088394
0.0644506
0.0486258
0.0355679
0.0261344
0.0205007
0.0169997
0.0147069
0.0140553
0.0142093
0.0147699
0.0150201
0.0150622
0.0152466
0.0156333
0.0155115
0.0154171
0.0155256
0.0162713
0.0188026
0.0221134
0.0239384
0.0264433
0.0326721
0.0552796
0.0771055
0.08236
0.081259
0.0778398
0.0792629
0.0800177
0.0765673
0.067186
0.0605747
0.0529408
0.0492884
0.0474154
0.0479846
0.0502058
0.0507076
0.0490675
0.0450577
0.0419898
0.0403022
0.040166
0.0588163
0.0825709
0.0967863
0.0996437
0.0955827
0.0924622
0.0807096
0.077405
0.0698582
0.069208
0.0646606
0.0614961
0.0610287
0.059979
0.0637479
0.070823
0.0743717
0.0793889
0.136099
0.155951
0.201774
0.197472
0.203107
0.236653
0.263048
0.00031903
0.000325624
0.000326914
0.000325555
0.000320721
0.000312674
0.000309295
0.000308479
0.000308944
0.000310908
0.000311607
0.000311966
0.000310877
0.000307885
0.000305889
0.000304704
0.000303653
0.000302925
0.000304413
0.000322093
0.000348775
0.000379255
0.000407193
0.000435106
0.000457515
0.000470355
0.000475602
0.000475269
0.000471468
0.000469362
0.000469838
0.000472046
0.000477766
0.000478923
0.000478836
0.000473226
0.000464674
0.000459162
0.000455536
0.000454007
0.00045366
0.000453757
0.000454496
0.000455983
0.000463148
0.000475692
0.000514973
0.000553977
0.000589955
0.000656368
0.000702534
0.000749205
0.000817984
0.000879761
0.000980185
0.00106434
0.00120238
0.00136227
0.00159565
0.00206789
0.0025143
0.00346904
0.00475524
0.00589837
0.00744567
0.00905496
0.0101267
0.0111266
0.01171
0.0117061
0.0115446
0.0110507
0.0100918
0.00911628
0.00829664
0.00717493
0.00639895
0.00567474
0.00527081
0.00514413
0.00478319
0.0047706
0.00482419
0.0049061
0.00526263
0.00529029
0.00539887
0.00538036
0.00554967
0.00559676
0.00560568
0.00591065
0.00605936
0.00646259
0.00762641
0.00953529
0.0149748
0.0388787
0.174856
0.436264
0.482989
0.426466
0.298528
0.236445
0.204738
0.186289
0.174337
0.166773
0.162482
0.158876
0.154933
0.148892
0.146469
0.147343
0.152356
0.164148
0.165503
0.165816
0.162422
0.15563
0.151454
0.150497
0.152869
0.163448
0.172066
0.17764
0.173128
0.147067
0.123135
0.0950731
0.0726342
0.0549072
0.0434919
0.0341978
0.0255229
0.0212103
0.0199457
0.0193637
0.0178715
0.0169744
0.0166139
0.0158868
0.0154716
0.0156427
0.0158947
0.0159079
0.0160034
0.0165669
0.0179013
0.0222874
0.0256155
0.0283785
0.0348392
0.0545445
0.0763556
0.0840407
0.0858968
0.0865866
0.0876634
0.0872106
0.0853042
0.0738048
0.0674862
0.0594032
0.0561853
0.0476686
0.0458693
0.044459
0.0458173
0.0457177
0.0481758
0.0473667
0.0451737
0.0408179
0.0401149
0.0486176
0.0712356
0.0898765
0.09786
0.0974095
0.0967896
0.0935976
0.0832013
0.0730761
0.0704237
0.0651204
0.0639668
0.0654773
0.0656342
0.0702311
0.0718572
0.0729136
0.0749608
0.113588
0.131133
0.148382
0.146865
0.157268
0.211615
0.237311
0.000218093
0.000225221
0.000241356
0.000258998
0.000272846
0.000280685
0.000283384
0.00028372
0.000281285
0.000277301
0.000275097
0.000274951
0.000277532
0.0002853
0.000294693
0.000302966
0.000313004
0.000320068
0.00032581
0.000328514
0.000331145
0.000334837
0.000357231
0.000383702
0.000424958
0.000476116
0.000519849
0.000569321
0.000599227
0.000619582
0.000624422
0.000619197
0.00059619
0.00056658
0.000547481
0.000534648
0.000531185
0.000535994
0.000538093
0.000539302
0.000538043
0.00053684
0.000532028
0.000522196
0.00051677
0.000517016
0.000520888
0.000537045
0.000580548
0.000722514
0.000840476
0.00104506
0.00128913
0.00148128
0.00199228
0.00241823
0.00303493
0.00396828
0.00505605
0.00681351
0.00889859
0.0117568
0.0144004
0.0177409
0.0198858
0.0217571
0.0233184
0.0233271
0.0229889
0.0221468
0.0204057
0.0187207
0.0165259
0.0149193
0.0130789
0.0109285
0.00924395
0.00757631
0.00662765
0.00571383
0.00518318
0.00489261
0.0044712
0.00429918
0.00420224
0.00424428
0.0043068
0.00442008
0.00460985
0.00468085
0.00497029
0.00524961
0.00567607
0.00677626
0.00921507
0.0145913
0.0305725
0.0920591
0.371945
0.506907
0.496133
0.378513
0.280344
0.232958
0.209588
0.196358
0.186511
0.177198
0.172474
0.170697
0.163318
0.15383
0.147891
0.144796
0.145455
0.1496
0.151954
0.153621
0.152024
0.151443
0.150861
0.153331
0.161018
0.166096
0.173358
0.17106
0.153998
0.129193
0.106397
0.0868306
0.0673947
0.0526148
0.0428266
0.0369449
0.0297406
0.0271245
0.0249594
0.0222261
0.0200283
0.0185676
0.0174199
0.0163694
0.016207
0.0164201
0.0167692
0.0171372
0.0176849
0.0188742
0.022028
0.0269014
0.0299124
0.0350305
0.0485942
0.0682978
0.0840233
0.0925364
0.0941708
0.0938294
0.0915491
0.0893631
0.0823719
0.0751578
0.0724721
0.064658
0.0597344
0.0486251
0.0472712
0.0456601
0.0473612
0.0469731
0.0514468
0.0522739
0.0509244
0.0429033
0.0410077
0.045159
0.0645922
0.0798561
0.099656
0.10104
0.103078
0.102899
0.095245
0.0787237
0.0758039
0.0725433
0.0723879
0.0747202
0.076218
0.0765311
0.0751825
0.0742369
0.0742907
0.0992652
0.125764
0.140246
0.145109
0.156534
0.217373
0.247178
0.000386715
0.000403945
0.000424094
0.000438685
0.000441759
0.000441175
0.000441546
0.000442327
0.000444798
0.000450348
0.000456456
0.000482679
0.000508199
0.000564419
0.000601163
0.000660463
0.000741717
0.0008525
0.00101248
0.00113458
0.0013082
0.00144028
0.0015903
0.00172109
0.0018113
0.00190811
0.00194219
0.00197431
0.00197802
0.00196431
0.0019145
0.00182916
0.00177602
0.00168897
0.00165397
0.00161552
0.00158217
0.00156636
0.00153676
0.00148439
0.0014112
0.00135868
0.00134341
0.00135489
0.00150897
0.00168798
0.00200057
0.00232152
0.00253324
0.00306145
0.00350013
0.00414303
0.00514478
0.00589662
0.00785936
0.00936884
0.0119751
0.0148551
0.0186752
0.0242929
0.0293878
0.0364865
0.0423449
0.0474143
0.0522746
0.0533288
0.0528036
0.0509884
0.0473366
0.0423495
0.0371335
0.0323591
0.0270117
0.0231052
0.0196546
0.0166772
0.0141136
0.0114739
0.00947388
0.00788298
0.00664739
0.00587364
0.00522701
0.00481335
0.00461608
0.00447422
0.00447131
0.00457662
0.00459836
0.00473638
0.00514569
0.00599285
0.00791519
0.0132173
0.0209236
0.0359001
0.0766434
0.267909
0.498646
0.531978
0.478131
0.341566
0.272984
0.237566
0.22369
0.213772
0.201912
0.191712
0.187118
0.18523
0.180696
0.16974
0.157145
0.147564
0.144736
0.145134
0.147998
0.150105
0.150722
0.154418
0.157278
0.161061
0.163013
0.165559
0.169518
0.164927
0.134643
0.118983
0.0999159
0.0849031
0.0657604
0.0531278
0.0481757
0.0413273
0.0342456
0.031453
0.0287651
0.0244287
0.0221308
0.0206735
0.0191202
0.0181502
0.0182864
0.0186216
0.019912
0.0210516
0.0225146
0.0250908
0.0328856
0.0369673
0.040564
0.0504633
0.0612134
0.0742818
0.0870214
0.0957325
0.0967737
0.0950031
0.0878169
0.0852904
0.0790952
0.077199
0.0720356
0.0680803
0.0624574
0.0581859
0.0606086
0.0594121
0.0589875
0.0534962
0.0556203
0.0561622
0.0526884
0.0441408
0.0441484
0.0473287
0.0694034
0.0800935
0.102124
0.105647
0.110355
0.110179
0.102771
0.0864628
0.0828748
0.0807517
0.0801214
0.0821258
0.0809018
0.0789256
0.0779137
0.077328
0.0780403
0.101887
0.119991
0.128579
0.136024
0.141088
0.148042
0.188652
0.0027405
0.00290792
0.00301065
0.0030734
0.00310456
0.0031086
0.00312959
0.00315682
0.00321251
0.00330233
0.00339328
0.0036964
0.00404059
0.00495468
0.00552796
0.00620323
0.00683275
0.00718823
0.00774784
0.00798178
0.00840386
0.00873337
0.0091806
0.00963676
0.0099141
0.0102339
0.0103405
0.0104085
0.0104123
0.0102933
0.0100648
0.00966999
0.00941258
0.00907296
0.0088885
0.0087943
0.00877634
0.00902401
0.00914074
0.00924941
0.00925568
0.00924957
0.00927971
0.00938218
0.00976989
0.010135
0.0108518
0.011784
0.0124487
0.0140868
0.0155952
0.0178099
0.0211123
0.0236197
0.0297422
0.0342051
0.0413963
0.0510457
0.0600517
0.0740258
0.087614
0.099758
0.112107
0.122403
0.124262
0.122865
0.118392
0.109286
0.0959849
0.0813907
0.0686305
0.055944
0.0465467
0.038431
0.0312687
0.0266962
0.0220218
0.0183034
0.0154038
0.0124784
0.0103247
0.008852
0.00772194
0.00694265
0.00634691
0.00613478
0.0061621
0.00631681
0.00678364
0.00788131
0.0102414
0.0139369
0.0230401
0.0407905
0.0581935
0.0946094
0.213314
0.456375
0.555736
0.541634
0.41504
0.324544
0.275421
0.259673
0.257487
0.253439
0.236986
0.218728
0.209228
0.205968
0.205868
0.197526
0.184045
0.163362
0.152502
0.148461
0.149351
0.151652
0.155635
0.157749
0.159736
0.161364
0.162528
0.166277
0.16119
0.154046
0.121514
0.113121
0.0999904
0.0819496
0.0672039
0.0581444
0.0538931
0.0451951
0.0400923
0.0370779
0.0331313
0.028734
0.0277379
0.0262183
0.0245739
0.024369
0.0249207
0.0269541
0.0314124
0.0342644
0.0364616
0.041038
0.0467263
0.0491282
0.0549359
0.061114
0.0704787
0.081562
0.0915811
0.0931792
0.0919503
0.0877093
0.0847829
0.0820903
0.0787263
0.0776934
0.0758079
0.0763105
0.0762631
0.0805947
0.0822677
0.085461
0.0847782
0.0804795
0.0821794
0.0806383
0.0754463
0.0551831
0.0562152
0.0555931