/*--------------------------------*- C++ -*----------------------------------*\
| =========                 |                                                 |
| \\      /  F ield         | OpenFOAM: The Open Source CFD Toolbox           |
|  \\    /   O peration     | Version:  2.4.0                                 |
|   \\  /    A nd           | Web:      www.OpenFOAM.org                      |
|    \\/     M anipulation  |                                                 |
\*---------------------------------------------------------------------------*/
FoamFile
{
    version     2.0;
    format      ascii;
    class       volScalarField;
    location    "1.11";
    object      pMean;
}
// * * * * * * * * * * * * * * * * * * * * * * * * * * * * * * * * * * * * * //

dimensions      [0 2 -2 0 0 0 0];

internalField   nonuniform List<scalar> 
8800
(
88.1929
75.7282
68.3126
64.7329
62.8321
61.3786
60.1565
58.9853
57.9408
56.8847
55.9196
54.9067
53.9875
53.0174
52.1637
51.2633
50.4954
49.6943
49.0137
48.244
85.0827
75.3741
68.4808
64.8467
62.8919
61.404
60.164
58.9857
57.9387
56.8823
55.9167
54.9046
53.9848
53.0158
52.1613
51.2612
50.4964
49.6899
49.017
48.204
83.118
75.4507
69.0813
65.2224
63.0588
61.4835
60.2106
59.0183
57.9628
56.8994
55.9268
54.9094
53.986
53.0139
52.1593
51.2531
50.4967
49.6768
49.0813
48.2552
81.5832
75.5134
69.6658
65.6462
63.2417
61.572
60.2726
59.0754
58.0109
56.9387
55.9536
54.9278
53.996
53.0188
52.1593
51.2465
50.4881
49.6663
49.1482
48.4865
80.3358
75.4879
70.1392
66.0522
63.4098
61.6407
60.321
59.1345
58.066
56.9916
55.9879
54.9569
54.0075
53.0312
52.1547
51.2473
50.4639
49.6606
49.0835
48.8056
79.3526
75.3919
70.5022
66.3992
63.5598
61.6855
60.3481
59.1812
58.1149
57.0427
56.0216
54.9862
54.0173
53.0426
52.1473
51.2465
50.4388
49.6591
49.1019
49.2583
78.5966
75.2773
70.7681
66.679
63.6945
61.7131
60.3558
59.2143
58.1533
57.0846
56.0496
55.0099
54.0243
53.0492
52.1393
51.2422
50.4219
49.6679
49.1833
49.5831
78.0442
75.1764
70.9505
66.8904
63.8132
61.7313
60.3507
59.2367
58.1818
57.1176
56.0704
55.0286
54.0279
53.0545
52.1317
51.243
50.4134
49.6905
49.242
49.8299
77.6834
75.1051
71.066
67.0343
63.8971
61.7432
60.3432
59.2511
58.2019
57.1421
56.0852
55.0427
54.0311
53.0604
52.1289
51.249
50.416
49.7197
49.3114
50.0242
77.5024
75.0715
71.1239
67.1093
63.9403
61.7509
60.3383
59.2598
58.2132
57.1573
56.0939
55.0523
54.0346
53.0676
52.132
51.2599
50.4275
49.7502
49.3693
50.1419
77.495
75.0801
71.1253
67.1128
63.9398
61.7532
60.3368
59.2626
58.2132
57.1613
56.0949
55.0574
54.0373
53.0756
52.1391
51.2743
50.4432
49.7787
49.4092
50.2113
77.6632
75.1291
71.0696
67.0431
63.8955
61.7494
60.339
59.2588
58.2024
57.153
56.0881
55.057
54.0393
53.0836
52.1501
51.2911
50.464
49.8024
49.4314
50.2269
78.0145
75.2111
70.9546
66.9011
63.8091
61.7399
60.3438
59.2478
58.1818
57.1339
56.0741
55.051
54.0401
53.0915
52.165
51.3115
50.4907
49.8258
49.4332
50.1839
78.5605
75.3173
70.7716
66.6886
63.6861
61.7223
60.3464
59.2266
58.1516
57.104
56.0525
55.0383
54.0385
53.0981
52.1816
51.3357
50.5241
49.8553
49.4202
50.0638
79.314
75.4334
70.506
66.407
63.5477
61.6936
60.3386
59.1935
58.1118
57.0633
56.0245
55.0184
54.0343
53.1006
52.1988
51.3611
50.566
49.8951
49.4179
49.8611
80.2956
75.5313
70.1431
66.0607
63.3954
61.6487
60.3123
59.1482
58.0629
57.0144
55.992
54.9937
54.0284
53.0992
52.2157
51.3845
50.6145
49.9457
49.4456
49.596
81.5417
75.5587
69.6707
65.6579
63.2261
61.581
60.2645
59.0917
58.0082
56.9645
55.9593
54.9694
54.0214
53.0955
52.2301
51.4022
50.6617
49.9942
49.5033
49.3198
83.0754
75.4959
69.0882
65.2368
63.0428
61.493
60.2028
59.0356
57.9612
56.9262
55.9351
54.9528
54.0167
53.0941
52.2405
51.4156
50.6954
50.0313
49.561
49.1759
85.0384
75.4176
68.4892
64.8631
62.8761
61.4135
60.1565
59.0033
57.9378
56.9096
55.9261
54.949
54.0174
53.0975
52.2474
51.4258
50.7111
50.0529
49.5581
49.0983
88.147
75.7701
68.3208
64.7498
62.8169
61.3882
60.1491
59.0032
57.9399
56.9125
55.9289
54.9517
54.0201
53.1
52.2506
51.4292
50.7148
50.0586
49.5595
49.2175
48.2461
48.1065
47.8104
47.5052
47.2596
47.0771
46.953
46.8696
46.8105
46.7674
46.734
46.6992
46.6613
46.618
46.568
46.5094
46.4433
46.365
46.2781
46.178
46.0705
45.9623
45.8602
45.7659
45.685
45.6201
45.5725
45.5339
45.4981
45.4539
45.3989
45.3322
45.2623
45.1959
45.1386
45.0869
45.0384
44.9813
44.9151
44.8374
44.7545
44.6681
44.5922
44.5341
44.504
44.4997
44.5246
44.568
44.6265
44.685
44.7352
44.7603
44.7573
44.7149
44.6417
44.5313
44.4023
44.2529
44.0985
43.9293
43.7535
43.5629
43.3715
43.1789
43.0016
42.8503
42.7366
42.6696
42.652
42.6729
42.7306
42.8095
42.9091
43.0117
43.122
43.2197
43.3129
43.3773
43.4214
43.4241
43.3967
43.3281
43.2392
43.1188
42.9987
42.8729
42.7662
42.6833
42.6316
42.6234
42.6628
42.7581
42.9063
43.0988
43.3272
43.5756
43.8351
44.0883
44.3295
44.5467
44.7414
44.9077
45.0515
45.1539
45.2423
45.2997
45.355
45.394
45.4468
45.4843
45.5276
45.5587
45.5897
45.6092
45.6249
45.6341
45.6426
45.6468
45.6543
45.657
45.6661
45.6684
45.6848
45.6917
45.721
45.7293
45.7701
45.7828
45.8338
45.8706
45.9433
46.0099
46.1036
46.1984
46.3185
46.4417
46.5876
46.7318
46.893
47.0501
47.2241
47.4015
47.5944
47.7918
48.0029
48.2137
48.4362
48.6596
48.887
49.1132
49.336
49.5523
49.7662
49.9668
50.164
50.3513
50.5485
50.7246
50.9158
51.087
51.2749
51.4231
51.5931
51.7147
51.8587
51.9449
52.0586
52.1092
52.186
52.1995
52.2669
52.254
52.332
52.3161
52.436
52.4282
52.6089
52.6199
52.8471
52.8977
53.1479
53.2467
53.5357
53.7032
54.0309
54.2731
54.6356
54.9148
55.3078
55.5842
55.968
56.1775
56.4321
56.3809
56.2406
55.467
54.2271
50.9777
46.821
26.4149
48.0439
47.9849
47.8521
47.6132
47.3531
47.1375
46.9956
46.9157
46.8769
46.8542
46.8357
46.8093
46.7755
46.7323
46.683
46.6244
46.559
46.4833
46.4004
46.3074
46.2091
46.1095
46.0162
45.9296
45.8554
45.7922
45.7425
45.7001
45.6627
45.6208
45.5732
45.5161
45.4559
45.3948
45.339
45.2848
45.2327
45.1748
45.1114
45.0383
44.9616
44.8834
44.8145
44.7595
44.7274
44.7167
44.7309
44.7615
44.8052
44.8478
44.8841
44.8985
44.8901
44.847
44.7772
44.6736
44.5505
44.4053
44.2516
44.0843
43.9112
43.7277
43.5425
43.3593
43.188
43.0399
42.9245
42.8481
42.8162
42.8207
42.861
42.9232
43.007
43.0973
43.193
43.2803
43.3573
43.4102
43.4391
43.4325
43.3977
43.3285
43.24
43.1321
43.0205
42.9121
42.8156
42.7464
42.7022
42.6978
42.7353
42.8242
42.9599
43.1355
43.344
43.5736
43.8141
44.0518
44.2807
44.492
44.682
44.8468
44.9852
45.0857
45.17
45.227
45.2781
45.3134
45.354
45.3848
45.415
45.4377
45.4544
45.4606
45.4585
45.4513
45.4396
45.4272
45.4149
45.3987
45.3917
45.3773
45.3824
45.3779
45.3993
45.4013
45.4325
45.4431
45.4851
45.5172
45.582
45.6428
45.7317
45.8214
45.9387
46.0561
46.1983
46.3375
46.4932
46.6432
46.812
46.9808
47.1677
47.3546
47.5604
47.7582
47.9754
48.1858
48.4087
48.6242
48.841
49.0471
49.2587
49.4465
49.6423
49.8212
50.0212
50.1898
50.39
50.5583
50.7526
50.9006
51.0753
51.1929
51.3346
51.413
51.5179
51.5494
51.6145
51.601
51.6549
51.604
51.6708
51.6111
51.7228
51.6755
51.8386
51.8265
52.0224
52.0598
52.2753
52.3538
52.5938
52.7322
53.0057
53.1852
53.4979
53.6796
54.0047
54.1461
54.3974
54.3881
54.43
53.9925
53.4816
51.8632
50.1194
44.391
38.5472
19.7294
47.9952
48.0006
48.0083
47.8262
47.5197
47.2213
47.022
46.9272
46.9077
46.9154
46.9235
46.9138
46.8878
46.8451
46.7934
46.7314
46.6641
46.5886
46.5084
46.4211
46.3321
46.242
46.1584
46.0803
46.013
45.9538
45.9056
45.8628
45.8256
45.7862
45.7446
45.6956
45.6441
45.589
45.5361
45.4818
45.4283
45.3702
45.3095
45.2423
45.1736
45.1044
45.0429
44.9924
44.9601
44.9446
44.9489
44.966
44.9939
45.0199
45.0407
45.0429
45.0261
44.9802
44.9104
44.8114
44.6921
44.5523
44.401
44.2384
44.069
43.8939
43.7181
43.5465
43.3859
43.2451
43.1333
43.0537
43.0117
43.0032
43.0281
43.0761
43.1451
43.223
43.3059
43.3811
43.4433
43.4836
43.4978
43.4828
43.4408
43.3744
43.2883
43.1922
43.0896
42.9942
42.9086
42.8472
42.8069
42.8007
42.8321
42.9101
43.0288
43.186
43.3728
43.5834
43.8033
44.0257
44.2411
44.4437
44.6275
44.789
44.9224
45.022
45.1054
45.1647
45.2145
45.2497
45.2839
45.3123
45.336
45.3546
45.3615
45.3571
45.3409
45.3192
45.2939
45.2639
45.2386
45.2043
45.1887
45.159
45.1589
45.1444
45.1613
45.1617
45.1858
45.1978
45.2322
45.2641
45.3216
45.3793
45.4644
45.551
45.6652
45.7777
45.9147
46.0484
46.1988
46.3419
46.5073
46.6714
46.8568
47.0399
47.2425
47.4341
47.6474
47.8489
48.0691
48.269
48.4776
48.6696
48.8746
49.049
49.2421
49.4138
49.6081
49.7731
49.9783
50.1497
50.3438
50.4964
50.6714
50.7843
50.9222
50.9862
51.0826
51.0875
51.1452
51.1059
51.1503
51.0658
51.1259
51.0313
51.1306
51.0598
51.1834
51.1596
51.3032
51.328
51.49
51.5484
51.7381
51.8277
52.0583
52.1529
52.4102
52.4785
52.7161
52.6985
52.837
52.5462
52.4441
51.4601
50.8508
48.0663
46.1911
39.0724
32.0481
19.2133
48.1138
48.0899
48.0528
47.7941
47.4366
47.1273
46.9463
46.8895
46.9175
46.9714
47.0174
47.0331
47.0201
46.9799
46.9242
46.8558
46.7829
46.7044
46.6254
46.5429
46.4619
46.3813
46.3076
46.2389
46.1796
46.1264
46.082
46.0416
46.0061
45.9693
45.9321
45.8893
45.8441
45.794
45.7436
45.6903
45.6374
45.5809
45.524
45.4634
45.4035
45.3435
45.2901
45.2437
45.2111
45.19
45.184
45.1866
45.1974
45.206
45.2106
45.2009
45.1756
45.1271
45.0571
44.9627
44.8486
44.7165
44.5718
44.4171
44.2562
44.0922
43.9286
43.7701
43.6225
43.4916
43.3852
43.3054
43.2569
43.2376
43.2487
43.2828
43.3373
43.4018
43.4705
43.532
43.5796
43.6071
43.6092
43.5875
43.541
43.4763
43.3935
43.3052
43.2117
43.1255
43.0475
42.9871
42.9439
42.9299
42.9507
43.0138
43.1144
43.2519
43.4191
43.6092
43.811
44.0162
44.2199
44.4117
44.5894
44.7454
44.8752
44.9734
45.0572
45.1204
45.1721
45.2119
45.2472
45.2784
45.3027
45.3189
45.3187
45.3045
45.2778
45.242
45.2088
45.164
45.1321
45.0856
45.0636
45.0225
45.0187
44.9976
45.0131
45.0115
45.0339
45.0438
45.078
45.1106
45.1691
45.2292
45.3134
45.4006
45.5123
45.6217
45.7537
45.8803
46.0257
46.1626
46.3256
46.4856
46.6706
46.853
47.0554
47.2477
47.4602
47.6566
47.8727
48.0552
48.2574
48.4297
48.6256
48.7818
48.9732
49.1347
49.3275
49.4881
49.7
49.8624
50.0626
50.205
50.3896
50.4841
50.6285
50.6675
50.7663
50.7368
50.7955
50.7219
50.7646
50.6496
50.7093
50.5985
50.6696
50.5934
50.6656
50.6304
50.7187
50.7195
50.8324
50.8572
51.0042
51.0329
51.2158
51.2166
51.4171
51.3334
51.5428
51.2551
51.412
50.6675
50.6351
48.8995
48.3108
44.6461
42.2163
35.4989
28.0019
19.4243
49.4682
49.1768
48.2784
47.509
46.9998
46.7458
46.6979
46.7705
46.8964
47.0195
47.1135
47.161
47.165
47.1302
47.0715
46.9962
46.9158
46.8323
46.7516
46.6722
46.5982
46.5274
46.4641
46.406
46.356
46.3107
46.2722
46.236
46.2035
46.1699
46.136
46.0977
46.0573
46.012
45.9656
45.9159
45.866
45.8132
45.7608
45.7064
45.6534
45.6004
45.5521
45.5078
45.4729
45.4451
45.4276
45.4158
45.41
45.4033
45.3932
45.3731
45.3399
45.2893
45.22
45.1315
45.0252
44.9037
44.7702
44.6278
44.48
44.3296
44.1808
44.0366
43.9029
43.7833
43.6843
43.6076
43.5565
43.5302
43.53
43.5519
43.592
43.6422
43.6945
43.7404
43.7727
43.7877
43.7805
43.7532
43.704
43.6391
43.5596
43.4748
43.3863
43.3024
43.225
43.1591
43.1074
43.0809
43.0885
43.1343
43.2182
43.3366
43.4873
43.659
43.8447
44.0362
44.2286
44.4115
44.5846
44.7362
44.864
44.9623
45.0483
45.1165
45.172
45.2198
45.2587
45.2942
45.3198
45.3323
45.3261
45.3008
45.2664
45.2199
45.1817
45.129
45.0917
45.0407
45.0131
44.9726
44.967
44.9507
44.963
44.9631
44.9836
44.9933
45.0333
45.0663
45.1346
45.1974
45.2891
45.377
45.4914
45.5977
45.7301
45.8489
45.9932
46.1231
46.2862
46.4386
46.6267
46.8071
47.0162
47.21
47.4269
47.6185
47.8326
47.9968
48.1952
48.3431
48.5316
48.6638
48.8537
48.9951
49.1956
49.3443
49.5654
49.7079
49.9206
50.0405
50.2375
50.3081
50.4621
50.4698
50.5745
50.511
50.5708
50.4622
50.5018
50.3694
50.4223
50.314
50.3605
50.2754
50.3174
50.2517
50.308
50.2626
50.3537
50.3128
50.4472
50.3769
50.5523
50.3855
50.6032
50.2566
50.513
49.8472
50.0507
48.8359
48.7304
46.5533
45.5261
41.8711
38.6568
33.3096
26.2301
19.9094
50.4138
49.9944
48.5551
47.3691
46.6527
46.3838
46.4319
46.6297
46.8645
47.0696
47.2198
47.3036
47.3266
47.2983
47.2365
47.1537
47.0638
46.9729
46.8881
46.8094
46.7399
46.6775
46.6239
46.5764
46.5361
46.4997
46.4678
46.4371
46.4083
46.3779
46.3469
46.3123
46.2757
46.2351
46.1929
46.1477
46.1018
46.0537
46.0057
45.9567
45.9086
45.8605
45.8149
45.7716
45.7335
45.6999
45.6724
45.6488
45.6286
45.6082
45.5848
45.5545
45.5139
45.4606
45.3927
45.31
45.2128
45.1031
44.9828
44.8546
44.7217
44.5871
44.4545
44.3269
44.2089
44.103
44.0138
43.9434
43.894
43.8654
43.8593
43.8735
43.9025
43.9395
43.9761
44.0073
44.0259
44.0295
44.0143
43.9817
43.9294
43.8621
43.7817
43.6945
43.6043
43.5169
43.4355
43.361
43.2979
43.2541
43.2473
43.2763
43.3441
43.446
43.5825
43.739
43.9101
44.0915
44.2759
44.454
44.624
44.7756
44.9038
45.0056
45.0956
45.1683
45.2298
45.2845
45.3284
45.3647
45.389
45.3934
45.3798
45.3413
45.3023
45.2494
45.2078
45.1535
45.1126
45.0641
45.0366
45.008
45.0058
45.0012
45.0127
45.0192
45.0378
45.0578
45.1035
45.15
45.2294
45.2983
45.4012
45.4887
45.6082
45.7108
45.8462
45.9592
46.106
46.2316
46.3944
46.5426
46.7378
46.9152
47.1371
47.3324
47.5577
47.7459
47.9555
48.1057
48.2949
48.4203
48.599
48.702
48.8941
49.0079
49.2142
49.3461
49.5733
49.6893
49.921
50.0063
50.2239
50.2582
50.4283
50.4002
50.5154
50.4077
50.4761
50.3294
50.378
50.2307
50.2904
50.1676
50.2253
50.1009
50.148
50.0233
50.0804
49.9557
50.0575
49.9208
50.0629
49.8679
50.0366
49.7034
49.8894
49.3457
49.5074
48.6345
48.6062
47.2305
46.7111
44.5508
43.0218
39.8501
36.3567
32.3318
26.2173
20.9848
51.0282
50.5855
48.8571
47.3851
46.4792
46.14
46.2216
46.5054
46.8322
47.1147
47.3221
47.4452
47.4895
47.4684
47.4028
47.3111
47.2104
47.1109
47.0203
46.9408
46.874
46.8182
46.773
46.7354
46.7044
46.6771
46.6524
46.6281
46.6036
46.577
46.5484
46.5167
46.4825
46.4453
46.4062
46.365
46.3228
46.2792
46.2352
46.1905
46.1458
46.101
46.0571
46.0142
45.9735
45.9353
45.9001
45.8674
45.8359
45.8043
45.77
45.7309
45.6844
45.6292
45.5632
45.4865
45.3985
45.3006
45.194
45.0811
44.9642
44.8465
44.7307
44.6201
44.5173
44.4254
44.3469
44.2848
44.2409
44.2164
44.2112
44.2233
44.2472
44.275
44.2996
44.3177
44.325
44.3201
44.2985
44.2598
44.2031
44.1315
44.0462
43.9518
43.8553
43.7613
43.6725
43.5862
43.509
43.4473
43.4235
43.4378
43.4931
43.5845
43.7115
43.858
44.0213
44.1968
44.3753
44.552
44.7198
44.8722
45.0019
45.1108
45.201
45.2761
45.3424
45.3996
45.4456
45.4785
45.5011
45.4973
45.4763
45.427
45.3817
45.3248
45.2807
45.2303
45.1899
45.1524
45.1338
45.1249
45.1338
45.1451
45.1634
45.1799
45.2029
45.2361
45.2912
45.3578
45.4458
45.5335
45.6404
45.7375
45.8574
45.9641
46.1001
46.2177
46.3676
46.4956
46.6596
46.8137
47.0131
47.1938
47.4196
47.6229
47.854
48.0396
48.2408
48.3821
48.5545
48.67
48.8306
48.9064
49.0949
49.1839
49.3763
49.4979
49.7268
49.8145
50.0643
50.1193
50.347
50.356
50.5326
50.4934
50.6088
50.4796
50.5301
50.3723
50.4125
50.2746
50.3275
50.2056
50.2543
50.1163
50.1421
49.9847
50.0099
49.84
49.8866
49.6996
49.7584
49.503
49.5638
49.1479
49.192
48.5557
48.501
47.5927
47.2852
45.8949
45.1132
43.0584
41.3578
38.7956
35.4521
32.3436
27.2814
22.6323
51.5189
51.0678
49.1424
47.4695
46.4224
46.0007
46.074
46.4088
46.8051
47.1526
47.4099
47.5695
47.6348
47.6219
47.5536
47.4547
47.3446
47.238
47.1425
47.0622
46.9975
46.9474
46.9092
46.8805
46.8578
46.839
46.8213
46.8032
46.7831
46.7605
46.7346
46.7056
46.6734
46.6388
46.602
46.5638
46.5242
46.4837
46.4421
46.4
46.3571
46.314
46.2704
46.2273
46.1844
46.1428
46.1019
46.0623
46.0225
45.9826
45.9403
45.8956
45.8456
45.7904
45.7277
45.6577
45.5792
45.4938
45.4012
45.304
45.203
45.1016
45.0013
44.9062
44.8177
44.7398
44.6736
44.6225
44.5871
44.5699
44.5682
44.5813
44.6017
44.623
44.6382
44.6469
44.6457
44.6353
44.6096
44.5663
44.5044
44.4268
44.3336
44.2298
44.1248
44.0215
43.9253
43.828
43.737
43.6614
43.6238
43.6285
43.6767
43.764
43.8837
44.024
44.1821
44.3527
44.5281
44.7038
44.8731
45.0293
45.1604
45.2724
45.3597
45.4375
45.5046
45.5583
45.6011
45.6275
45.6458
45.6379
45.6089
45.5536
45.4998
45.4446
45.402
45.3617
45.331
45.3127
45.3112
45.3266
45.3533
45.3857
45.4181
45.45
45.4854
45.5367
45.6076
45.6921
45.7916
45.8923
46.0022
46.1152
46.2372
46.3555
46.4932
46.6231
46.7762
46.9151
47.08
47.2455
47.4475
47.6337
47.8663
48.0717
48.3057
48.4887
48.6893
48.8146
48.9697
49.0874
49.2272
49.2907
49.4688
49.5258
49.7056
49.8006
50.0318
50.0948
50.35
50.4008
50.6226
50.6286
50.808
50.7707
50.881
50.7349
50.7501
50.6005
50.6145
50.4994
50.5435
50.4311
50.4712
50.3237
50.3333
50.1497
50.1393
49.9311
49.904
49.6691
49.6273
49.3099
49.2602
48.7494
48.6751
47.9792
47.7682
46.8443
46.4023
45.0218
44.17
42.3163
40.576
38.5631
35.5325
32.9133
28.7285
24.5144
51.7918
51.3543
49.3619
47.5861
46.45
45.9615
46.0087
46.3647
46.804
47.1987
47.4943
47.6826
47.7654
47.76
47.6901
47.586
47.4692
47.3577
47.2592
47.179
47.1163
47.0708
47.0384
47.0168
47.0011
46.9893
46.9776
46.9649
46.9488
46.9297
46.9063
46.8797
46.8494
46.8169
46.7818
46.7457
46.7073
46.6685
46.6278
46.5869
46.5443
46.5017
46.4576
46.4137
46.3689
46.3246
46.2794
46.2348
46.1892
46.144
46.0972
46.0495
45.9986
45.9452
45.8867
45.8243
45.7556
45.6823
45.6029
45.5206
45.4348
45.3492
45.2641
45.1843
45.1107
45.0477
44.9952
44.9567
44.9312
44.9217
44.9248
44.9391
44.9559
44.9716
44.9794
44.9803
44.9736
44.9603
44.9317
44.8858
44.821
44.7384
44.6372
44.523
44.4062
44.2927
44.1879
44.0797
43.9829
43.8987
43.8555
43.8569
43.9049
43.9902
44.1046
44.2368
44.3906
44.5578
44.7348
44.9109
45.0853
45.2495
45.3862
45.4983
45.5849
45.662
45.7234
45.768
45.8004
45.8191
45.8331
45.82
45.7866
45.731
45.6761
45.6272
45.5927
45.566
45.5531
45.557
45.5797
45.6221
45.6725
45.7317
45.7845
45.8371
45.8926
45.9624
46.0512
46.1521
46.2656
46.3772
46.4955
46.6231
46.7492
46.8784
47.0224
47.159
47.3186
47.4694
47.6409
47.8209
48.0262
48.2213
48.46
48.6674
48.9104
49.0819
49.2984
49.3911
49.5383
49.6513
49.7658
49.8269
49.9986
50.0117
50.1967
50.2558
50.4952
50.531
50.7937
50.829
51.065
51.0444
51.2569
51.2233
51.3386
51.1308
51.1198
50.9904
51.0006
50.9037
50.9385
50.8369
50.8833
50.722
50.7257
50.5148
50.4812
50.2396
50.159
49.8599
49.7542
49.3659
49.1788
48.6609
48.455
47.8499
47.5621
46.6089
46.1121
44.7616
43.8447
42.2405
40.504
38.867
36.1944
33.787
30.2467
26.4431
51.9621
51.5413
49.5264
47.7037
46.5204
45.9915
46.0187
46.3826
46.8459
47.2679
47.586
47.7902
47.8822
47.8799
47.8083
47.7006
47.5804
47.467
47.3683
47.2896
47.2298
47.1887
47.1615
47.1456
47.1355
47.129
47.1218
47.1133
47.1005
47.0844
47.0633
47.0389
47.0103
46.9795
46.9456
46.9106
46.873
46.8349
46.7945
46.7537
46.7109
46.6677
46.6227
46.5776
46.5308
46.4843
46.4364
46.3892
46.3407
46.2929
46.2439
46.1954
46.1455
46.0954
46.0427
45.9885
45.9298
45.8679
45.801
45.7327
45.6614
45.5908
45.5207
45.4566
45.3983
45.3502
45.3124
45.2874
45.2731
45.273
45.2822
45.2972
45.3105
45.3218
45.3252
45.3204
45.3089
45.2934
45.2645
45.2191
45.1531
45.0657
44.9581
44.8363
44.7087
44.582
44.4677
44.3498
44.2513
44.1634
44.122
44.1235
44.1788
44.265
44.3775
44.5028
44.6567
44.8229
45.001
45.1779
45.3614
45.5352
45.6808
45.7919
45.876
45.9455
45.9969
46.0296
46.0513
46.0637
46.0743
46.0586
46.0265
45.9753
45.9266
45.8898
45.8696
45.8619
45.8708
45.8984
45.9496
46.0195
46.1005
46.1874
46.2667
46.345
46.4259
46.5123
46.6184
46.7309
46.8584
46.9779
47.1103
47.2457
47.3828
47.5173
47.672
47.8104
47.9856
48.1448
48.3305
48.525
48.7434
48.9454
49.1954
49.3962
49.6571
49.8111
50.0452
50.0839
50.2493
50.3319
50.4553
50.4963
50.6566
50.6244
50.833
50.8542
51.1162
51.1043
51.4127
51.3991
51.6975
51.5941
51.886
51.8326
51.9987
51.6694
51.6875
51.5498
51.5856
51.4971
51.5643
51.4456
51.52
51.3217
51.3478
51.0852
51.0685
50.7868
50.7026
50.3086
50.1212
49.6676
49.4472
48.9607
48.7353
48.0955
47.787
46.8098
46.2407
44.9749
43.9338
42.5701
40.9295
39.4739
37.1096
34.8024
31.706
28.2946
52.064
51.6492
49.6256
47.7907
46.5987
46.0649
46.0937
46.4639
46.9357
47.3644
47.6863
47.8916
47.9824
47.9775
47.9039
47.7955
47.6764
47.5656
47.4705
47.3959
47.3407
47.3042
47.2818
47.2703
47.2642
47.2612
47.257
47.2509
47.2404
47.2263
47.2072
47.1845
47.1576
47.1282
47.0955
47.0613
47.0243
46.9864
46.946
46.9048
46.8614
46.8174
46.7714
46.725
46.6771
46.6292
46.58
46.5314
46.4821
46.434
46.3854
46.3383
46.2909
46.2449
46.1986
46.1527
46.1042
46.0541
46.0008
45.9467
45.8903
45.835
45.7814
45.7336
45.6905
45.6567
45.6341
45.6235
45.621
45.6296
45.6438
45.6591
45.6702
45.6782
45.6778
45.6699
45.657
45.6408
45.6133
45.5708
45.5061
45.4165
45.3041
45.1742
45.0383
44.9001
44.7777
44.6538
44.5576
44.4702
44.4411
44.4448
44.5112
44.5992
44.7138
44.8334
44.9934
45.1592
45.3398
45.5142
45.7094
45.89
46.0434
46.1502
46.2281
46.2824
46.3209
46.3408
46.3579
46.3679
46.3773
46.3619
46.3396
46.2965
46.2666
46.2449
46.2501
46.2588
46.298
46.3484
46.4325
46.5261
46.6415
46.7514
46.8689
46.9715
47.0856
47.1879
47.3129
47.4283
47.5716
47.6897
47.8382
47.9697
48.1225
48.2588
48.4276
48.5678
48.7638
48.9333
49.1439
49.3493
49.5907
49.7915
50.0609
50.2431
50.5382
50.6516
50.9079
50.8757
51.0948
51.1246
51.2883
51.271
51.447
51.3788
51.6262
51.5994
51.8931
51.8249
52.1753
52.1347
52.5037
52.3332
52.7262
52.6205
52.8284
52.3838
52.4997
52.3106
52.4233
52.2737
52.4019
52.2712
52.3697
52.1347
52.18
51.8786
51.8814
51.5715
51.4317
50.9884
50.8121
50.3828
50.1202
49.5601
49.278
48.6047
48.366
47.314
46.6105
45.4584
44.3448
43.1638
41.6895
40.26
38.1023
35.8782
33.092
30.0263
52.0929
51.6718
49.6523
47.8423
46.6821
46.182
46.2367
46.6146
47.0797
47.4934
47.7994
47.9897
48.068
48.055
47.9792
47.8731
47.7598
47.6558
47.5681
47.5003
47.4513
47.4198
47.4014
47.3927
47.3889
47.3873
47.3845
47.3795
47.3704
47.3575
47.3398
47.3186
47.2933
47.2651
47.2336
47.2001
47.1639
47.1262
47.0864
47.0453
47.002
46.9575
46.9112
46.864
46.8156
46.7672
46.7181
46.67
46.6222
46.5756
46.5295
46.4851
46.442
46.4014
46.3618
46.3236
46.2854
46.2476
46.2086
46.1691
46.1284
46.089
46.053
46.022
45.9956
45.9775
45.9706
45.9731
45.9804
45.9945
46.0119
46.0273
46.0364
46.039
46.0324
46.0215
46.0088
45.9955
45.9738
45.9378
45.8783
45.7923
45.6798
45.5454
45.4021
45.2557
45.1264
45.0021
44.9109
44.8334
44.8233
44.8303
44.9096
44.9969
45.1146
45.2255
45.394
45.5584
45.7435
45.9145
46.1247
46.3091
46.4727
46.5727
46.6417
46.6687
46.6992
46.7018
46.7216
46.73
46.7452
46.7337
46.7298
46.7014
46.7025
46.6986
46.7389
46.7667
46.844
46.9144
47.0351
47.1502
47.306
47.4376
47.5898
47.7143
47.8645
47.9816
48.1277
48.2494
48.399
48.5161
48.6762
48.8048
48.9693
49.1123
49.2896
49.4476
49.6626
49.8432
50.0754
50.2908
50.5496
50.7562
51.0287
51.1911
51.4999
51.6011
51.8176
51.7625
52.056
51.9998
52.2247
52.1185
52.331
52.237
52.5131
52.4893
52.7833
52.6956
53.091
53.0442
53.4329
53.2719
53.691
53.5741
53.7717
53.2812
53.4599
53.2509
53.4365
53.2858
53.453
53.3038
53.4133
53.1734
53.2192
52.9089
52.8799
52.5387
52.3415
51.9202
51.7042
51.2579
50.92
50.4059
50.1572
49.474
49.0377
47.9634
47.1917
46.1349
45.0672
43.9318
42.5955
41.1148
39.1111
36.9805
34.4233
31.6398
52.0217
51.5893
49.6062
47.8694
46.7863
46.3605
46.4609
46.841
47.2787
47.6537
47.9225
48.0806
48.1353
48.1098
48.0328
47.9329
47.83
47.7374
47.6607
47.6023
47.561
47.5349
47.5199
47.5129
47.5097
47.508
47.5052
47.5001
47.4915
47.4793
47.4629
47.4428
47.419
47.3922
47.3622
47.3299
47.2952
47.2587
47.2199
47.1794
47.1367
47.0922
47.046
46.999
46.9514
46.9041
46.8574
46.8119
46.7671
46.7237
46.6817
46.6418
46.6044
46.5703
46.5387
46.5095
46.4816
46.4552
46.4301
46.4061
46.3817
46.3583
46.3392
46.3251
46.3162
46.3156
46.3242
46.3382
46.3545
46.3741
46.3935
46.4068
46.4114
46.4073
46.3956
46.3828
46.3709
46.3603
46.3459
46.3188
46.2681
46.1904
46.0836
45.95
45.8032
45.6562
45.5254
45.4053
45.318
45.2568
45.2643
45.281
45.3696
45.4527
45.5675
45.676
45.8577
46.0186
46.2069
46.3763
46.6048
46.7906
46.9669
47.0566
47.1178
47.119
47.1402
47.1282
47.1595
47.1636
47.1919
47.1865
47.2065
47.2
47.2396
47.2604
47.3413
47.3972
47.5183
47.614
47.7761
47.9111
48.1004
48.2487
48.4354
48.577
48.7612
48.8931
49.0599
49.1815
49.3376
49.4555
49.6232
49.7587
49.9382
50.0943
50.2819
50.4609
50.6816
50.8771
51.1308
51.3492
51.61
51.8255
52.0812
52.2467
52.5186
52.6475
52.7977
52.7581
53.0625
52.9578
53.1841
53.0817
53.3419
53.2281
53.4998
53.5123
53.7305
53.6847
54.099
54.1108
54.5093
54.4199
54.7668
54.7061
54.8018
54.323
54.5841
54.3197
54.5862
54.4325
54.6247
54.5358
54.6112
54.4031
54.3902
54.1253
54.066
53.6497
53.4003
53.022
52.7449
52.3361
51.9944
51.5926
51.0937
50.393
49.7828
48.7796
47.9961
47.0161
46.0208
44.8344
43.5842
42.0045
40.1418
38.0949
35.723
33.1672
51.8024
51.365
49.4897
47.9042
46.9551
46.6373
46.7827
47.1426
47.525
47.8359
48.0468
48.1576
48.1813
48.1426
48.0671
47.9778
47.8899
47.8126
47.7499
47.7028
47.6698
47.6486
47.636
47.6291
47.625
47.6217
47.6176
47.6114
47.6024
47.5901
47.5743
47.5551
47.5324
47.5069
47.4788
47.4485
47.4159
47.3814
47.3447
47.3059
47.2646
47.2212
47.1759
47.1302
47.0854
47.042
46.9992
46.9572
46.9165
46.8778
46.841
46.8068
46.7762
46.7498
46.7269
46.7077
46.692
46.68
46.6706
46.6608
46.6509
46.6441
46.6422
46.645
46.6541
46.6703
46.6924
46.7166
46.741
46.766
46.7875
46.8002
46.8014
46.7902
46.7718
46.7561
46.7453
46.7397
46.7335
46.7172
46.6801
46.6161
46.5196
46.394
46.2496
46.1086
45.9778
45.8669
45.7874
45.7476
45.7621
45.7831
45.8724
45.9522
46.0632
46.1908
46.3895
46.5539
46.7431
46.9215
47.1583
47.3383
47.5193
47.6048
47.6639
47.6487
47.6643
47.6469
47.6873
47.6928
47.7353
47.737
47.7824
47.8029
47.8806
47.9342
48.0579
48.1494
48.3138
48.4447
48.6427
48.8021
49.0161
49.1809
49.3941
49.5522
49.762
49.9118
50.0935
50.2188
50.379
50.502
50.6804
50.8257
51.0236
51.1969
51.3977
51.5985
51.8103
52.0219
52.2703
52.4995
52.7506
52.9833
53.194
53.3714
53.6098
53.7509
53.8534
53.9345
54.1294
54.0309
54.2022
54.1577
54.3932
54.3361
54.5662
54.657
54.739
54.8079
55.1822
55.2454
55.6528
55.7029
55.9537
55.9351
55.9877
55.5534
55.79
55.6114
55.8334
55.6746
55.9009
55.9024
55.9508
55.7675
55.6963
55.4193
55.3014
54.8579
54.5826
54.2677
53.8861
53.6009
53.1553
52.755
52.0874
51.5385
50.6099
49.7574
48.9306
48.0678
47.0998
45.8583
44.6202
42.9276
41.1889
39.1961
36.9794
34.6
51.3293
50.9164
49.3088
47.9993
47.2552
47.0507
47.2074
47.5067
47.7997
48.022
48.1584
48.2144
48.2072
48.1585
48.0886
48.0134
47.943
47.8827
47.8345
47.7981
47.7719
47.754
47.7418
47.7335
47.7271
47.7214
47.7151
47.7073
47.6973
47.6847
47.6691
47.6506
47.6292
47.6052
47.5791
47.5511
47.5212
47.4895
47.4559
47.4196
47.3807
47.3401
47.2984
47.2563
47.215
47.1762
47.1399
47.1049
47.0703
47.0365
47.005
46.9779
46.9562
46.9391
46.926
46.9183
46.9157
46.9178
46.9239
46.9317
46.9399
46.9493
46.9628
46.9817
47.0063
47.0355
47.0684
47.1019
47.1343
47.1643
47.1875
47.199
47.1964
47.1795
47.1546
47.134
47.1242
47.1245
47.128
47.1245
47.1041
47.0582
46.9773
46.8647
46.732
46.6055
46.4782
46.3838
46.3119
46.2877
46.3027
46.3341
46.4189
46.4919
46.604
46.7671
46.9785
47.1522
47.3404
47.5421
47.7696
47.9473
48.1223
48.2115
48.2699
48.2635
48.2693
48.2587
48.3032
48.3233
48.3787
48.3995
48.462
48.5115
48.619
48.7196
48.8753
49.017
49.21
49.3872
49.6021
49.7939
50.0216
50.2089
50.4363
50.616
50.8368
51.0042
51.203
51.3333
51.5061
51.6419
51.8245
51.9913
52.1977
52.385
52.5956
52.8019
53.0047
53.2315
53.4667
53.7017
53.9525
54.2053
54.3759
54.5711
54.7527
54.8874
55.0203
55.1678
55.2288
55.2668
55.3093
55.3807
55.5566
55.5331
55.6834
55.8165
55.8641
56.0749
56.2634
56.5444
56.9028
56.9788
57.1805
57.2205
57.2094
56.9349
57.1363
57.0355
57.1541
57.0828
57.2508
57.3384
57.2879
57.1792
57.0462
56.7989
56.5968
56.1892
55.8665
55.5657
55.1119
54.9202
54.3721
53.9971
53.0989
52.7003
51.5477
50.8991
49.9995
49.2708
48.2338
46.9739
45.7059
43.9271
42.271
40.302
38.2172
35.9643
50.5668
50.2468
49.1146
48.2054
47.7059
47.5848
47.6961
47.8859
48.0592
48.1793
48.2397
48.2477
48.2173
48.1648
48.1039
48.0438
47.9899
47.9446
47.908
47.8794
47.8573
47.8404
47.8273
47.8167
47.8078
47.7995
47.7911
47.7819
47.7713
47.7585
47.7431
47.7251
47.7047
47.6823
47.658
47.6327
47.6067
47.5792
47.5493
47.5168
47.482
47.4453
47.4081
47.3721
47.3374
47.3047
47.2752
47.2487
47.2235
47.1978
47.1739
47.1563
47.1461
47.1413
47.1405
47.1452
47.1562
47.1727
47.1923
47.2124
47.235
47.2612
47.2911
47.3251
47.3626
47.4017
47.4416
47.4808
47.5184
47.552
47.5759
47.5864
47.5809
47.5603
47.5315
47.5077
47.4991
47.5039
47.5136
47.5192
47.5119
47.4836
47.4228
47.3299
47.2156
47.1103
46.9899
46.9236
46.8642
46.8542
46.8664
46.9179
46.9909
47.0736
47.1994
47.3845
47.5883
47.7775
47.9763
48.2048
48.4155
48.6001
48.758
48.8608
48.9144
48.9321
48.9324
48.9483
48.9869
49.0355
49.0948
49.1532
49.2242
49.3144
49.4353
49.5881
49.7665
49.961
50.1686
50.3882
50.6027
50.8306
51.052
51.2653
51.491
51.7033
51.9224
52.1294
52.325
52.4894
52.6556
52.8247
53.0004
53.1986
53.3963
53.6125
53.8142
54.0343
54.2308
54.473
54.6857
54.9315
55.1643
55.4134
55.5733
55.8128
55.9062
56.1064
56.161
56.3412
56.3741
56.4939
56.49
56.6683
56.6764
56.7512
56.8261
56.9949
56.982
57.3567
57.4785
57.9689
58.0427
58.2369
58.3766
58.5059
58.4954
58.4873
58.5146
58.4731
58.4805
58.5586
58.6108
58.6949
58.6041
58.5598
58.2933
58.2409
57.7956
57.5539
57.1753
56.9039
56.4352
56.2997
55.561
55.1418
54.1648
53.854
52.6073
52.1887
51.1216
50.4673
49.2975
48.1166
46.7758
44.9832
43.3658
41.4149
39.4292
37.2547
49.7333
49.5662
49.0132
48.5404
48.2566
48.1493
48.1551
48.2066
48.2577
48.2866
48.2867
48.2612
48.2183
48.1674
48.1159
48.0683
48.0267
47.9914
47.9619
47.9373
47.9167
47.8993
47.8847
47.8722
47.8612
47.8512
47.8413
47.831
47.8197
47.8068
47.7914
47.7737
47.7543
47.734
47.713
47.6904
47.6671
47.6436
47.6189
47.5913
47.5611
47.5308
47.5012
47.4717
47.4441
47.4212
47.4026
47.3863
47.3709
47.3562
47.3453
47.3409
47.3429
47.3499
47.3623
47.3806
47.4041
47.4318
47.4634
47.4969
47.5308
47.5657
47.6039
47.646
47.6902
47.7345
47.7782
47.8205
47.8599
47.8925
47.9145
47.9252
47.9229
47.9063
47.8796
47.8561
47.8473
47.8521
47.8651
47.8765
47.8786
47.8638
47.8205
47.7497
47.6616
47.5914
47.4948
47.4575
47.4084
47.4187
47.4377
47.5169
47.5773
47.6849
47.8057
47.9963
48.1814