/*--------------------------------*- C++ -*----------------------------------*\
| =========                 |                                                 |
| \\      /  F ield         | OpenFOAM: The Open Source CFD Toolbox           |
|  \\    /   O peration     | Version:  2.4.0                                 |
|   \\  /    A nd           | Web:      www.OpenFOAM.org                      |
|    \\/     M anipulation  |                                                 |
\*---------------------------------------------------------------------------*/
FoamFile
{
    version     2.0;
    format      ascii;
    class       volVectorField;
    location    "1.11";
    object      U_0;
}
// * * * * * * * * * * * * * * * * * * * * * * * * * * * * * * * * * * * * * //

dimensions      [0 1 -1 0 0 0 0];

internalField   nonuniform List<vector> 
8800
(
(8.09148 0.388005 0)
(5.45104 0.242455 0)
(3.90966 0.0430509 0)
(3.15582 -0.0153099 0)
(2.80177 -0.0187133 0)
(2.60251 -0.0110773 0)
(2.47243 -0.00382879 0)
(2.38937 -0.00486532 0)
(2.31501 -0.00132923 0)
(2.25428 0.00218744 0)
(2.20011 -0.00195927 0)
(2.18895 -0.00302809 0)
(2.13767 0.00373049 0)
(2.10758 0.000362147 0)
(2.0664 -0.00162487 0)
(2.06575 -0.000192723 0)
(2.00915 0.00207186 0)
(1.98808 -0.00291431 0)
(2.03754 0.0119638 0)
(1.71073 -0.0917117 0)
(10.0828 0.838394 0)
(9.66345 0.867492 0)
(8.86546 0.508078 0)
(8.08179 0.261316 0)
(7.49309 0.136186 0)
(7.01705 0.0835537 0)
(6.66518 0.0584202 0)
(6.43743 0.0332075 0)
(6.19417 0.0310043 0)
(6.04047 0.0324964 0)
(5.89894 0.0129238 0)
(5.82592 0.00841918 0)
(5.67844 0.0281386 0)
(5.63777 0.0142728 0)
(5.517 0.00935545 0)
(5.49211 0.0102588 0)
(5.37897 0.0289722 0)
(5.3107 -0.0150268 0)
(5.36944 0.0334564 0)
(5.10209 -0.0586783 0)
(10.0573 0.631153 0)
(10.6731 0.863097 0)
(10.8593 0.60431 0)
(10.6908 0.372285 0)
(10.449 0.251875 0)
(10.1152 0.201554 0)
(9.77733 0.157 0)
(9.56558 0.110785 0)
(9.25578 0.100236 0)
(9.06753 0.0871225 0)
(8.87924 0.0476444 0)
(8.77308 0.0398898 0)
(8.56043 0.06474 0)
(8.52488 0.0359385 0)
(8.34685 0.0317467 0)
(8.30537 0.0288982 0)
(8.15485 0.0604932 0)
(8.08747 -0.00825008 0)
(8.07446 0.0319547 0)
(7.92763 -0.0914389 0)
(9.98955 0.455438 0)
(10.592 0.704771 0)
(11.1664 0.553152 0)
(11.3843 0.350919 0)
(11.5136 0.250762 0)
(11.5343 0.240859 0)
(11.4035 0.204528 0)
(11.3934 0.15525 0)
(11.2239 0.161464 0)
(11.1343 0.141115 0)
(11.0014 0.0850084 0)
(10.9511 0.0779051 0)
(10.772 0.11325 0)
(10.7671 0.0630478 0)
(10.5937 0.0641873 0)
(10.5563 0.055242 0)
(10.408 0.0994273 0)
(10.3579 0.00661843 0)
(10.2932 0.0453271 0)
(10.2287 -0.105598 0)
(10.0264 0.343786 0)
(10.4252 0.563378 0)
(11.0373 0.469069 0)
(11.3693 0.305077 0)
(11.555 0.186046 0)
(11.7701 0.207746 0)
(11.8128 0.187561 0)
(11.9045 0.140687 0)
(11.9285 0.165328 0)
(11.9826 0.156898 0)
(11.957 0.0848112 0)
(11.9811 0.0880223 0)
(11.9698 0.127067 0)
(12.0299 0.0829326 0)
(11.9599 0.0706299 0)
(11.9441 0.0877589 0)
(11.9064 0.106759 0)
(11.8557 0.0499132 0)
(11.8588 0.0372709 0)
(11.8064 -0.0303925 0)
(10.0495 0.248949 0)
(10.3306 0.451911 0)
(10.8585 0.374504 0)
(11.2813 0.269071 0)
(11.463 0.143521 0)
(11.6236 0.154485 0)
(11.7867 0.158898 0)
(11.8615 0.105736 0)
(11.9666 0.138206 0)
(12.0916 0.140583 0)
(12.1261 0.0729066 0)
(12.1354 0.0701978 0)
(12.2682 0.111428 0)
(12.368 0.0659797 0)
(12.4226 0.0674325 0)
(12.4078 0.0870827 0)
(12.4778 0.104253 0)
(12.4483 0.0614804 0)
(12.5389 0.0570557 0)
(12.5349 0.00573556 0)
(10.0231 0.173666 0)
(10.3062 0.354127 0)
(10.7175 0.274982 0)
(11.1535 0.226746 0)
(11.4006 0.116691 0)
(11.5179 0.118752 0)
(11.7127 0.109975 0)
(11.7848 0.0872584 0)
(11.8047 0.089361 0)
(12.004 0.132222 0)
(12.1114 0.047537 0)
(12.0596 0.0657139 0)
(12.1868 0.0582635 0)
(12.2891 0.0646242 0)
(12.4162 0.0243528 0)
(12.447 0.113212 0)
(12.5106 0.0588583 0)
(12.4783 0.0917291 0)
(12.5921 0.0387612 0)
(12.6233 0.156381 0)
(10.0039 0.103244 0)
(10.2821 0.265482 0)
(10.6444 0.183201 0)
(11.0219 0.178965 0)
(11.3495 0.0729771 0)
(11.4942 0.0896084 0)
(11.6178 0.0675354 0)
(11.7232 0.0869581 0)
(11.7027 0.044865 0)
(11.9602 0.093693 0)
(12.0791 0.0221456 0)
(11.9731 0.0815797 0)
(12.0015 0.0294011 0)
(12.2344 0.0430605 0)
(12.3559 -0.0168123 0)
(12.433 0.108117 0)
(12.3935 0.0477206 0)
(12.3933 0.0970235 0)
(12.4527 0.0129301 0)
(12.5661 0.15112 0)
(10.0049 0.06135 0)
(10.219 0.155605 0)
(10.6293 0.116258 0)
(10.9689 0.0987083 0)
(11.3437 0.0455355 0)
(11.415 0.0538667 0)
(11.5041 0.0493002 0)
(11.6938 0.0382429 0)
(11.7907 0.0226722 0)
(11.8992 0.0355945 0)
(11.9134 0.040397 0)
(11.8827 0.0777927 0)
(12.025 0.0108893 0)
(12.3229 -0.0364684 0)
(12.3172 -0.0197923 0)
(12.3225 0.0858166 0)
(12.2002 0.0848726 0)
(12.3586 0.0359396 0)
(12.4874 -0.0217092 0)
(12.5402 -0.0432128 0)
(9.96907 0.0150927 0)
(10.2105 0.061836 0)
(10.6612 0.0178835 0)
(10.9495 0.0372459 0)
(11.2674 0.0153583 0)
(11.3917 0.0552561 0)
(11.5165 -0.00141526 0)
(11.7101 -0.0177175 0)
(11.8014 -0.0126478 0)
(11.7266 0.0542822 0)
(11.7953 0.0278061 0)
(12.0061 0.0440404 0)
(12.2271 -0.0563108 0)
(12.2106 -0.0477423 0)
(12.1513 -0.00248455 0)
(12.1104 0.116913 0)
(12.3095 0.045583 0)
(12.4748 -0.0356314 0)
(12.6004 -0.0808963 0)
(12.3658 -0.0128164 0)
(9.95245 -0.0132328 0)
(10.2555 -0.0644147 0)
(10.6586 -0.0524447 0)
(10.9331 -0.0144381 0)
(11.1951 -0.00925636 0)
(11.4502 0.00418351 0)
(11.5951 -0.0317346 0)
(11.7128 -0.0613911 0)
(11.6756 0.00597552 0)
(11.6629 0.0342442 0)
(11.8726 -0.0310077 0)
(12.1571 -0.0313857 0)
(12.2216 -0.0258845 0)
(12.0386 -0.0259243 0)
(12.0007 0.00758637 0)
(12.1599 0.0405827 0)
(12.5154 -0.0190436 0)
(12.5544 -0.0726876 0)
(12.4272 -0.0504202 0)
(12.2218 -0.021107 0)
(9.99205 -0.0638061 0)
(10.2615 -0.164639 0)
(10.6219 -0.131979 0)
(10.961 -0.0628438 0)
(11.2573 -0.0541686 0)
(11.4923 -0.0370447 0)
(11.6087 -0.0644461 0)
(11.6462 -0.070174 0)
(11.6535 -0.00655038 0)
(11.8214 -0.00707856 0)
(11.9922 -0.0904328 0)
(12.089 -0.0532781 0)
(12.0832 -0.0036757 0)
(12.077 -0.00945632 0)
(12.0906 -0.0227048 0)
(12.3452 -0.0364893 0)
(12.4785 -0.060581 0)
(12.4702 -0.0589262 0)
(12.3414 -0.0446804 0)
(12.3266 -0.0361866 0)
(10.0114 -0.112162 0)
(10.2727 -0.265067 0)
(10.6501 -0.207798 0)
(11.0147 -0.132276 0)
(11.3505 -0.0914182 0)
(11.5254 -0.072357 0)
(11.5973 -0.0736996 0)
(11.6331 -0.0960797 0)
(11.7664 -0.0501621 0)
(11.9711 -0.0599221 0)
(12.0462 -0.0965402 0)
(12.0033 -0.052961 0)
(12.0598 -0.00805649 0)
(12.1555 -0.0338543 0)
(12.296 -0.0561899 0)
(12.4105 -0.0680833 0)
(12.4102 -0.0670434 0)
(12.4169 -0.0742633 0)
(12.4851 -0.0792415 0)
(12.4517 -0.0620628 0)
(10.0231 -0.175809 0)
(10.2985 -0.362977 0)
(10.7573 -0.291976 0)
(11.0936 -0.190589 0)
(11.4061 -0.130072 0)
(11.5462 -0.100261 0)
(11.669 -0.0929517 0)
(11.7535 -0.137847 0)
(11.9047 -0.0950654 0)
(12.002 -0.0911733 0)
(12.0375 -0.0943695 0)
(12.0516 -0.0638126 0)
(12.1661 -0.0257994 0)
(12.2641 -0.07675 0)
(12.3956 -0.0764263 0)
(12.429 -0.0827392 0)
(12.4634 -0.0751109 0)
(12.5095 -0.114895 0)
(12.5708 -0.111503 0)
(12.4851 -0.102589 0)
(10.0671 -0.252504 0)
(10.3237 -0.467412 0)
(10.8934 -0.376894 0)
(11.1466 -0.230133 0)
(11.5238 -0.165691 0)
(11.6106 -0.144425 0)
(11.8209 -0.133457 0)
(11.8554 -0.17364 0)
(12.0146 -0.118737 0)
(11.9878 -0.103707 0)
(12.105 -0.109058 0)
(12.1142 -0.0912735 0)
(12.2737 -0.0503781 0)
(12.2946 -0.102627 0)
(12.4163 -0.0898085 0)
(12.3951 -0.100223 0)
(12.4559 -0.0898007 0)
(12.4382 -0.141376 0)
(12.4574 -0.125848 0)
(12.343 -0.12921 0)
(10.0754 -0.351468 0)
(10.3818 -0.572875 0)
(11.029 -0.45464 0)
(11.2684 -0.280593 0)
(11.6899 -0.223127 0)
(11.6813 -0.18792 0)
(11.9085 -0.169678 0)
(11.8273 -0.195583 0)
(11.9851 -0.140972 0)
(11.8674 -0.117893 0)
(12.0202 -0.128409 0)
(11.8961 -0.108453 0)
(12.0624 -0.0713036 0)
(11.9198 -0.112305 0)
(12.0266 -0.0966341 0)
(11.8675 -0.103481 0)
(11.9379 -0.0896093 0)
(11.7694 -0.144108 0)
(11.7699 -0.126306 0)
(11.5468 -0.163289 0)
(10.0215 -0.459634 0)
(10.5381 -0.706886 0)
(11.166 -0.541829 0)
(11.367 -0.348386 0)
(11.5857 -0.273028 0)
(11.4424 -0.221892 0)
(11.5216 -0.192698 0)
(11.2761 -0.194999 0)
(11.2967 -0.14181 0)
(11.0649 -0.115339 0)
(11.0874 -0.117781 0)
(10.8222 -0.0966815 0)
(10.9139 -0.0662332 0)
(10.6293 -0.0906161 0)
(10.6898 -0.0763972 0)
(10.4216 -0.0840446 0)
(10.4825 -0.0697224 0)
(10.1859 -0.122125 0)
(10.1902 -0.0977608 0)
(9.86236 -0.163887 0)
(10.0691 -0.632604 0)
(10.6448 -0.864591 0)
(10.8712 -0.599771 0)
(10.6914 -0.370625 0)
(10.4639 -0.261918 0)
(10.0693 -0.193447 0)
(9.86353 -0.149043 0)
(9.4642 -0.133217 0)
(9.32241 -0.0920624 0)
(9.02557 -0.0686446 0)
(8.93644 -0.0665404 0)
(8.66092 -0.0551777 0)
(8.68389 -0.0351345 0)
(8.39928 -0.0485445 0)
(8.43188 -0.0456487 0)
(8.16746 -0.0488754 0)
(8.20885 -0.044657 0)
(7.90582 -0.0732054 0)
(7.90776 -0.0738414 0)
(7.56233 -0.0914422 0)
(10.0879 -0.838713 0)
(9.65096 -0.86832 0)
(8.8724 -0.506037 0)
(8.08472 -0.260245 0)
(7.49305 -0.141361 0)
(6.99675 -0.0812578 0)
(6.71356 -0.0507036 0)
(6.37699 -0.0458053 0)
(6.23185 -0.0300871 0)
(6.01643 -0.0192737 0)
(5.9361 -0.0216828 0)
(5.75042 -0.0212116 0)
(5.74801 -0.00975278 0)
(5.56106 -0.0188551 0)
(5.57018 -0.0200385 0)
(5.37943 -0.022206 0)
(5.39282 -0.0192533 0)
(5.16812 -0.0348566 0)
(5.15318 -0.0405772 0)
(4.85664 -0.0197553 0)
(8.09238 -0.387908 0)
(5.44762 -0.242625 0)
(3.91051 -0.0429278 0)
(3.15909 0.0159721 0)
(2.80078 0.0174852 0)
(2.59304 0.0110795 0)
(2.4903 0.00695341 0)
(2.37448 0.000846773 0)
(2.3175 0.00104481 0)
(2.24626 0.00241997 0)
(2.22278 4.20795e-05 0)
(2.15484 -0.00138266 0)
(2.14958 0.00189574 0)
(2.08981 -0.00123265 0)
(2.08148 -0.00154028 0)
(2.00327 -0.00202203 0)
(1.99596 -0.000246453 0)
(1.90543 -0.00439884 0)
(1.86257 -0.00458419 0)
(1.70933 0.0108259 0)
(2.40951 -0.119326 0)
(2.36828 0.00652757 0)
(2.60676 0.0550454 0)
(2.57839 0.0623781 0)
(2.82885 0.0320024 0)
(2.81624 -0.00677519 0)
(3.05957 -0.0562845 0)
(3.02265 -0.0871183 0)
(3.22128 -0.10224 0)
(3.12819 -0.0927756 0)
(3.29905 -0.0819715 0)
(3.19555 -0.0646257 0)
(3.37949 -0.0553735 0)
(3.27965 -0.0414349 0)
(3.48279 -0.0351442 0)
(3.38069 -0.0191025 0)
(3.58672 -0.0153875 0)
(3.48736 -0.00159197 0)
(3.69561 0.000738123 0)
(3.60582 0.0140536 0)
(3.80621 0.0134759 0)
(3.74003 0.0228828 0)
(3.93413 0.0158848 0)
(3.88852 0.0167343 0)
(4.08281 -0.00285764 0)
(4.04124 -0.0138992 0)
(4.23181 -0.0458368 0)
(4.1753 -0.0633526 0)
(4.35278 -0.0997037 0)
(4.28244 -0.117246 0)
(4.44344 -0.149996 0)
(4.3556 -0.173294 0)
(4.49869 -0.2223 0)
(4.42559 -0.250382 0)
(4.53029 -0.305146 0)
(4.42656 -0.329 0)
(4.46244 -0.362396 0)
(4.30037 -0.340395 0)
(4.26369 -0.318272 0)
(4.05459 -0.234336 0)
(3.95447 -0.154698 0)
(3.83914 -0.0132196 0)
(3.93338 0.179798 0)
(4.14719 0.503183 0)
(4.59992 0.856283 0)
(5.14042 1.19353 0)
(5.75927 1.56293 0)
(6.4244 1.76164 0)
(7.00347 1.76144 0)
(7.60036 1.76322 0)
(8.1072 1.51257 0)
(8.42217 1.15815 0)
(8.80414 0.780678 0)
(8.95437 0.344221 0)
(9.18826 -0.166211 0)
(9.19399 -0.624752 0)
(9.16212 -0.99303 0)
(9.25816 -1.40348 0)
(9.114 -1.7768 0)
(9.14327 -2.17879 0)
(9.21795 -2.60869 0)
(9.35937 -3.09087 0)
(9.41807 -3.63007 0)
(9.39261 -4.10484 0)
(9.33047 -4.38157 0)
(9.33593 -4.09614 0)
(9.02871 -3.73788 0)
(8.70201 -3.44125 0)
(8.5647 -2.66617 0)
(8.51643 -1.90941 0)
(8.2285 -1.38413 0)
(8.25432 -0.764186 0)
(8.33819 0.0805828 0)
(8.3998 0.732998 0)
(8.10507 1.10171 0)
(8.02572 1.18398 0)
(7.89113 1.4631 0)
(8.03457 1.63189 0)
(7.98776 1.81532 0)
(8.03641 1.92476 0)
(8.14636 1.81887 0)
(8.11191 1.79854 0)
(8.41713 1.6749 0)
(8.65419 1.64557 0)
(8.82284 1.47826 0)
(9.23273 1.16634 0)
(9.41118 0.901018 0)
(9.68559 0.612677 0)
(9.94849 0.108983 0)
(10.2449 -0.417278 0)
(10.4361 -0.989273 0)
(10.576 -1.60884 0)
(10.7978 -2.34007 0)
(10.9926 -3.0353 0)
(10.9668 -3.69546 0)
(11.1046 -4.40976 0)
(11.1339 -5.10363 0)
(10.9679 -5.51462 0)
(10.9622 -6.03793 0)
(11.3017 -6.68226 0)
(11.5906 -7.33693 0)
(11.8107 -7.81711 0)
(11.8421 -8.16642 0)
(12.0347 -8.30495 0)
(11.9343 -8.40441 0)
(12.2311 -8.32209 0)
(12.1466 -8.1526 0)
(12.4883 -7.84693 0)
(12.5905 -7.43743 0)
(12.8996 -6.86757 0)
(12.971 -6.14962 0)
(13.265 -5.2429 0)
(13.2141 -4.51033 0)
(13.5127 -3.75466 0)
(13.7601 -2.85378 0)
(13.921 -1.95011 0)
(14.1157 -0.952378 0)
(14.1437 -0.00480637 0)
(14.2011 0.836116 0)
(14.2492 1.61174 0)
(14.2327 2.37931 0)
(14.2648 3.08096 0)
(14.2487 3.68875 0)
(14.0575 4.219 0)
(13.9191 4.59102 0)
(13.5542 4.76006 0)
(13.1994 4.82379 0)
(12.7918 4.65741 0)
(12.3216 4.40802 0)
(11.7835 4.1494 0)
(11.3698 3.71189 0)
(10.86 3.2033 0)
(10.3452 2.92953 0)
(9.80916 2.42759 0)
(9.47789 2.07195 0)
(9.17406 1.98766 0)
(8.8773 1.76848 0)
(8.45523 1.2568 0)
(8.03815 1.16958 0)
(7.5122 1.03899 0)
(7.1163 0.917908 0)
(6.71065 0.687621 0)
(6.40049 0.504137 0)
(6.18737 0.366017 0)
(5.73506 0.39234 0)
(5.48689 0.678606 0)
(5.1326 1.11664 0)
(5.0644 1.11599 0)
(4.76704 0.919452 0)
(4.52057 0.607204 0)
(4.29142 0.61141 0)
(4.25993 0.917312 0)
(4.50458 1.25692 0)
(4.91121 1.34977 0)
(5.56508 1.47779 0)
(5.84166 1.37502 0)
(5.82726 1.1303 0)
(5.75644 0.789547 0)
(5.72456 1.08579 0)
(5.92331 1.34038 0)
(6.24432 1.99863 0)
(6.92818 2.41201 0)
(7.43942 2.99807 0)
(7.49022 2.97502 0)
(7.20263 2.84116 0)
(6.9829 2.82244 0)
(7.21031 3.02456 0)
(7.55645 3.54517 0)
(8.123 3.99265 0)
(8.73266 4.58823 0)
(9.12706 4.79611 0)
(9.43165 4.76189 0)
(9.43179 4.27515 0)
(9.37474 4.2879 0)
(9.95159 4.07006 0)
(9.0683 4.12429 0)
(9.64649 3.13838 0)
(7.9837 3.47921 0)
(9.99729 2.30697 0)
(7.22941 3.35432 0)
(9.90701 1.05735 0)
(6.09757 2.14898 0)
(8.71506 -1.35787 0)
(5.76585 0.94331 0)
(8.09055 -2.14504 0)
(5.11871 -0.135779 0)
(7.04609 -3.22854 0)
(3.87358 -1.02756 0)
(5.86604 -4.00075 0)
(3.66499 -1.139 0)
(5.50867 -2.48816 0)
(3.69374 -0.581629 0)
(5.20623 -1.50434 0)
(3.26015 -0.725428 0)
(3.75623 -1.97559 0)
(3.16313 -0.0454576 0)
(3.46605 -0.261634 0)
(3.88578 3.34004 0)
(6.35683 5.57584 0)
(3.85873 9.07542 0)
(5.41441 -0.0976643 0)
(5.36969 -0.0532084 0)
(5.42073 -0.0131524 0)
(5.3573 0.00472146 0)
(5.45434 -0.0209394 0)
(5.43747 -0.0609193 0)
(5.57541 -0.107198 0)
(5.56609 -0.129891 0)
(5.69555 -0.139244 0)
(5.65045 -0.12887 0)
(5.75452 -0.117968 0)
(5.69194 -0.0986636 0)
(5.79458 -0.0891464 0)
(5.73724 -0.0733947 0)
(5.85127 -0.069976 0)
(5.80346 -0.0592318 0)
(5.92165 -0.0558135 0)
(5.88426 -0.0421687 0)
(6.00082 -0.0445918 0)
(5.97924 -0.0320729 0)
(6.09114 -0.0383495 0)
(6.08561 -0.0326875 0)
(6.1999 -0.0404128 0)
(6.19993 -0.0451245 0)
(6.33011 -0.0589483 0)
(6.31977 -0.0734222 0)
(6.46398 -0.09743 0)
(6.43847 -0.115877 0)
(6.57924 -0.148129 0)
(6.54899 -0.160959 0)
(6.66905 -0.200374 0)
(6.63561 -0.208353 0)
(6.73302 -0.248257 0)
(6.68677 -0.264316 0)
(6.75939 -0.30186 0)
(6.68587 -0.300786 0)
(6.71818 -0.317578 0)
(6.59836 -0.268732 0)
(6.56294 -0.236551 0)
(6.40698 -0.145812 0)
(6.32894 -0.0240172 0)
(6.16549 0.102712 0)
(6.10057 0.261394 0)
(5.98985 0.418914 0)
(6.02622 0.56922 0)
(6.22343 0.755908 0)
(6.45089 0.967466 0)
(7.03469 1.10278 0)
(7.50274 1.11813 0)
(8.00283 1.17459 0)
(8.68073 1.03476 0)
(8.95427 0.753437 0)
(9.37164 0.46801 0)
(9.61393 0.119512 0)
(9.83879 -0.302951 0)
(9.92444 -0.678515 0)
(9.96014 -1.08912 0)
(10.0867 -1.48278 0)
(10.1192 -1.84511 0)
(10.3085 -2.27796 0)
(10.5273 -2.65616 0)
(10.6933 -3.14484 0)
(10.846 -3.69077 0)
(10.8836 -3.85017 0)
(10.6765 -3.93947 0)
(10.1302 -4.07344 0)
(9.90196 -3.56975 0)
(9.55389 -2.94771 0)
(9.09296 -2.55313 0)
(8.90145 -1.99654 0)
(8.86489 -1.23036 0)
(8.56853 -0.551316 0)
(8.48622 -0.0491312 0)
(8.66034 0.538774 0)
(8.93199 1.13964 0)
(8.97643 1.42272 0)
(8.69132 1.57197 0)
(8.63707 1.59242 0)
(8.59174 1.64482 0)
(8.68434 1.782 0)
(8.88466 1.798 0)
(8.94718 1.82682 0)
(9.13255 1.69583 0)
(9.2613 1.49016 0)
(9.37648 1.26067 0)
(9.62443 0.899374 0)
(9.82408 0.57957 0)
(10.0437 0.232988 0)
(10.2683 -0.176413 0)
(10.5455 -0.703151 0)
(10.7499 -1.25327 0)
(10.9326 -1.8947 0)
(11.1128 -2.50559 0)
(11.1447 -3.13023 0)
(11.2476 -3.84484 0)
(11.2693 -4.51082 0)
(11.1162 -4.95995 0)
(11.064 -5.49385 0)
(11.3602 -6.24064 0)
(11.6331 -6.94208 0)
(11.6068 -7.45981 0)
(11.5717 -7.80488 0)
(11.4758 -8.16696 0)
(11.5341 -8.3335 0)
(11.4455 -8.45249 0)
(11.5945 -8.37405 0)
(11.4257 -8.23324 0)
(11.6766 -7.9201 0)
(11.6696 -7.52327 0)
(11.9251 -6.86718 0)
(11.919 -6.11933 0)
(12.1398 -5.25817 0)
(12.0435 -4.57679 0)
(12.4763 -3.86549 0)
(12.6535 -3.015 0)
(12.8928 -2.10879 0)
(13.1083 -1.02537 0)
(13.0148 -0.0672976 0)
(13.0577 0.809412 0)
(13.0254 1.60605 0)
(13.0444 2.35287 0)
(13.1558 3.03068 0)
(13.2194 3.75614 0)
(12.9646 4.33615 0)
(12.8458 4.78453 0)
(12.5127 5.0254 0)
(12.2628 5.11942 0)
(11.8568 5.0246 0)
(11.4042 4.75322 0)
(11.0117 4.38082 0)
(10.6526 3.99143 0)
(10.1668 3.64641 0)
(9.76229 3.37616 0)
(9.2815 2.87615 0)
(8.83783 2.39344 0)
(8.5793 2.13365 0)
(8.30141 1.9708 0)
(7.87622 1.67851 0)
(7.31727 1.57347 0)
(6.88052 1.37594 0)
(6.53024 1.16718 0)
(6.31562 0.935906 0)
(6.04905 0.727667 0)
(5.86802 0.63409 0)
(5.46131 0.697141 0)
(5.23594 0.969033 0)
(4.94764 1.20249 0)
(4.95678 1.25226 0)
(4.84775 1.03604 0)
(4.71331 0.847926 0)
(4.4749 0.639658 0)
(4.60576 0.818241 0)
(4.58479 0.929311 0)
(5.05794 0.883625 0)
(5.42833 0.877291 0)
(6.05033 1.11317 0)
(6.20104 0.938217 0)
(6.47172 0.825937 0)
(6.42911 1.02376 0)
(6.62082 1.42548 0)
(6.312 1.62143 0)
(6.82767 1.93173 0)
(7.28014 2.41448 0)
(8.06124 2.91332 0)
(8.21823 2.88776 0)
(8.1365 3.14434 0)
(7.87235 2.94062 0)
(8.07052 3.34305 0)
(8.40509 3.47241 0)
(8.93809 4.15495 0)
(9.63773 4.2789 0)
(9.9525 4.70333 0)
(10.2496 4.10531 0)
(9.87492 4.26221 0)
(10.8984 4.06119 0)
(9.86667 4.70966 0)
(11.1582 3.58458 0)
(8.38226 4.02085 0)
(11.1463 2.23509 0)
(7.78788 3.84517 0)
(10.6866 1.00564 0)
(7.38764 2.95728 0)
(9.29509 -1.32117 0)
(6.47451 1.29529 0)
(8.93306 -2.05641 0)
(5.77509 0.564937 0)
(8.53956 -3.08261 0)
(4.14111 -0.145741 0)
(8.08924 -4.69403 0)
(3.59681 -0.557728 0)
(7.93133 -3.67437 0)
(4.01403 0.232887 0)
(7.76084 -2.74418 0)
(4.08394 0.669388 0)
(7.26544 -2.40704 0)
(3.70128 0.738125 0)
(7.18486 -0.253645 0)
(3.35882 2.90146 0)
(9.09409 2.1918 0)
(6.83259 9.52964 0)
(8.05876 -0.0549096 0)
(8.03579 0.000873621 0)
(8.04738 0.0123452 0)
(7.9974 -0.00102222 0)
(8.02945 -0.0490708 0)
(8.0168 -0.0875321 0)
(8.10266 -0.1318 0)
(8.10264 -0.150109 0)
(8.18424 -0.158159 0)
(8.16071 -0.150286 0)
(8.21891 -0.134975 0)
(8.1837 -0.115856 0)
(8.2392 -0.104343 0)
(8.2072 -0.0896115 0)
(8.26874 -0.086887 0)
(8.24566 -0.0788774 0)
(8.30642 -0.0776222 0)
(8.2958 -0.0715754 0)
(8.35888 -0.0753098 0)
(8.35605 -0.0691693 0)
(8.43456 -0.0757727 0)
(8.42838 -0.0731816 0)
(8.52731 -0.079996 0)
(8.51657 -0.0871865 0)
(8.6247 -0.0979661 0)
(8.61351 -0.116487 0)
(8.71141 -0.136567 0)
(8.70909 -0.156223 0)
(8.78285 -0.187405 0)
(8.7856 -0.197603 0)
(8.84086 -0.236238 0)
(8.83621 -0.235127 0)
(8.87937 -0.274802 0)
(8.85475 -0.270138 0)
(8.88316 -0.290886 0)
(8.82795 -0.28103 0)
(8.84541 -0.272595 0)
(8.73228 -0.228339 0)
(8.7318 -0.170171 0)
(8.57813 -0.089707 0)
(8.54561 0.0533185 0)
(8.42591 0.151044 0)
(8.33465 0.298329 0)
(8.33892 0.463327 0)
(8.23633 0.57344 0)
(8.35652 0.701093 0)
(8.32392 0.816096 0)
(8.62055 0.82193 0)
(8.82191 0.802538 0)
(9.02363 0.770453 0)
(9.59256 0.605624 0)
(9.76775 0.407101 0)
(10.1247 0.166945 0)
(10.4394 -0.107189 0)
(10.6303 -0.49769 0)
(10.8528 -0.835787 0)
(11.027 -1.18471 0)
(11.2823 -1.64098 0)
(11.4547 -1.91948 0)
(11.7529 -2.33606 0)
(11.877 -2.88493 0)
(12.0368 -3.28223 0)
(11.9732 -3.55337 0)
(11.5386 -3.94488 0)
(11.3668 -3.94488 0)
(11.0179 -3.54006 0)
(10.3715 -3.22004 0)
(9.97019 -2.73777 0)
(9.6635 -2.06539 0)
(9.11144 -1.55836 0)
(8.87894 -1.1155 0)
(8.78162 -0.462543 0)
(8.77439 -0.012587 0)
(8.76268 0.403053 0)
(8.97721 0.92164 0)
(9.32896 1.33667 0)
(9.36805 1.69232 0)
(9.48277 1.76983 0)
(9.22568 1.78037 0)
(9.13718 1.75472 0)
(9.13936 1.63443 0)
(9.22419 1.56625 0)
(9.44232 1.55444 0)
(9.69161 1.40808 0)
(9.88203 1.20526 0)
(10.0441 0.894209 0)
(10.3868 0.523367 0)
(10.5222 0.176169 0)
(10.7855 -0.259017 0)
(10.999 -0.730715 0)
(11.1633 -1.23635 0)
(11.2775 -1.89972 0)
(11.3461 -2.4663 0)
(11.2651 -3.08626 0)
(11.4335 -3.83362 0)
(11.2354 -4.37456 0)
(11.1465 -4.83026 0)
(11.4322 -5.66154 0)
(11.7339 -6.45348 0)
(11.5573 -6.90503 0)
(11.2271 -7.29784 0)
(11.1038 -7.74237 0)
(11.0655 -8.11848 0)
(10.9656 -8.30155 0)
(10.7724 -8.33707 0)
(10.6349 -8.25918 0)
(10.4642 -8.18184 0)
(10.6339 -7.94403 0)
(10.5348 -7.60233 0)
(10.76 -6.95393 0)
(10.6816 -6.20725 0)
(10.9019 -5.35945 0)
(10.7957 -4.70774 0)
(11.2265 -4.03306 0)
(11.326 -3.21524 0)
(11.6105 -2.20641 0)
(11.8029 -0.999965 0)
(11.6261 0.000381674 0)
(11.6328 0.855114 0)
(11.6041 1.58957 0)
(11.6025 2.23049 0)
(11.8021 2.95278 0)
(11.898 3.81709 0)
(11.7354 4.46065 0)
(11.6938 4.94272 0)
(11.3631 5.24527 0)
(10.9995 5.34211 0)
(10.8044 5.31537 0)
(10.4277 5.05957 0)
(10.0912 4.76419 0)
(9.6676 4.37878 0)
(9.2976 3.98982 0)
(9.0069 3.60956 0)
(8.6676 3.19102 0)
(8.31233 2.68476 0)
(8.0256 2.45401 0)
(7.62189 2.26563 0)
(7.19794 2.0822 0)
(6.75716 1.89552 0)
(6.49356 1.6983 0)
(6.20798 1.41406 0)
(5.95716 1.11987 0)
(5.68064 0.922699 0)
(5.48772 0.830805 0)
(5.19273 0.907394 0)
(5.16056 1.14264 0)
(5.07174 1.30708 0)
(5.04476 1.32079 0)
(5.15952 1.10146 0)
(5.0473 0.943582 0)
(5.11756 0.734089 0)
(5.11111 0.749398 0)
(5.3844 0.805056 0)
(5.58912 0.684081 0)
(5.95037 0.556507 0)
(6.22644 0.808562 0)
(6.53632 0.709199 0)
(6.74292 0.645723 0)
(6.99337 0.803639 0)
(7.2865 1.4862 0)
(7.25452 1.61043 0)
(7.24085 1.7499 0)
(7.34386 1.80437 0)
(8.05863 2.38405 0)
(8.58073 2.50716 0)
(9.10253 3.19953 0)
(9.11531 3.09791 0)
(8.78714 3.27436 0)
(8.88065 3.14015 0)
(8.94063 3.72651 0)
(9.71401 3.78203 0)
(10.0322 4.49515 0)
(11.0572 4.12424 0)
(10.0837 4.16042 0)
(11.7158 3.63346 0)
(10.2611 4.72006 0)
(12.442 3.54987 0)
(9.14356 4.45286 0)
(11.9196 1.97936 0)
(8.5373 4.40692 0)
(11.0734 0.958889 0)
(8.35895 3.574 0)
(10.0557 -0.791584 0)
(6.92647 1.5713 0)
(9.95393 -2.06326 0)
(6.00311 1.08249 0)
(10.4614 -2.9194 0)
(4.25491 0.742913 0)
(10.2498 -4.79684 0)
(3.73203 0.153441 0)
(9.866 -4.63082 0)
(4.3131 0.607297 0)
(9.8969 -3.67841 0)
(4.25764 1.09736 0)
(9.59829 -4.02766 0)
(3.55579 1.91629 0)
(9.40363 -3.53476 0)
(5.78772 4.62913 0)
(10.1195 -0.723031 0)
(8.68202 8.02973 0)
(10.3353 -0.0226973 0)
(10.2949 0.0358364 0)
(10.2261 0.0252599 0)
(10.1688 -0.0149136 0)
(10.1926 -0.0770534 0)
(10.1985 -0.10921 0)
(10.281 -0.142089 0)
(10.2806 -0.151677 0)
(10.3405 -0.159468 0)
(10.317 -0.155871 0)
(10.3441 -0.148741 0)
(10.3152 -0.136117 0)
(10.3356 -0.123808 0)
(10.3186 -0.110204 0)
(10.3434 -0.0988793 0)
(10.3461 -0.0890234 0)
(10.3721 -0.086802 0)
(10.3796 -0.0760235 0)
(10.4165 -0.0893033 0)
(10.413 -0.0825801 0)
(10.4668 -0.0950409 0)
(10.4537 -0.1002 0)
(10.518 -0.107575 0)
(10.5134 -0.121325 0)
(10.5687 -0.13053 0)
(10.5934 -0.145646 0)
(10.6186 -0.161545 0)
(10.667 -0.180673 0)
(10.6672 -0.198344 0)
(10.7054 -0.220442 0)
(10.6998 -0.245206 0)
(10.7057 -0.246659 0)
(10.7101 -0.284456 0)
(10.6713 -0.268609 0)
(10.6941 -0.280891 0)
(10.5997 -0.259671 0)
(10.6563 -0.234632 0)
(10.5002 -0.187471 0)
(10.5527 -0.111041 0)
(10.4377 -0.0331511 0)
(10.3646 0.0983188 0)
(10.4033 0.198215 0)
(10.2136 0.339628 0)
(10.3886 0.462984 0)
(10.2319 0.589331 0)
(10.4005 0.673537 0)
(10.4303 0.735688 0)
(10.5481 0.763503 0)
(10.7805 0.724837 0)
(10.879 0.619312 0)
(11.217 0.461257 0)
(11.4048 0.320578 0)
(11.6837 -0.023218 0)
(11.8824 -0.307665 0)
(12.0969 -0.552689 0)
(12.3917 -1.0063 0)
(12.5031 -1.37343 0)
(12.7952 -1.62665 0)
(12.8939 -2.08592 0)
(13.0848 -2.62261 0)
(13.0598 -2.81781 0)
(12.8461 -3.19458 0)
(12.7472 -3.54901 0)
(12.4951 -3.43908 0)
(11.7278 -3.27505 0)
(11.0646 -3.07016 0)
(10.5662 -2.67961 0)
(9.99882 -2.31222 0)
(9.54818 -1.86606 0)
(9.31395 -1.35454 0)
(9.01586 -0.89919 0)
(8.91077 -0.402331 0)
(8.90763 0.0100617 0)
(8.89502 0.329693 0)
(9.06305 0.736698 0)
(9.2982 1.11359 0)
(9.51922 1.46285 0)
(9.85842 1.68187 0)
(9.94392 1.85788 0)
(9.91894 1.87248 0)
(9.9381 1.64917 0)
(9.75861 1.5161 0)
(9.79906 1.36898 0)
(9.89733 1.13721 0)
(10.0177 0.916897 0)
(10.1539 0.612021 0)
(10.3872 0.279803 0)
(10.554 -0.0794515 0)
(10.839 -0.552639 0)
(10.9205 -0.947662 0)
(11.0772 -1.50585 0)
(11.2315 -2.1465 0)
(11.1474 -2.60662 0)
(11.2567 -3.27294 0)
(11.4392 -3.94051 0)
(11.2794 -4.31304 0)
(11.5389 -5.00792 0)
(11.8838 -5.89857 0)
(11.6093 -6.32938 0)
(10.9189 -6.60531 0)
(10.7369 -7.1136 0)
(10.7264 -7.68178 0)
(10.5199 -7.92812 0)
(10.0787 -7.99774 0)
(9.74817 -8.02536 0)
(9.53604 -8.11197 0)
(9.3941 -8.17911 0)
(9.41513 -8.04524 0)
(9.25541 -7.73027 0)
(9.46792 -7.07766 0)
(9.27247 -6.37466 0)
(9.44814 -5.54516 0)
(9.38092 -4.87559 0)
(9.63692 -4.23319 0)
(9.60277 -3.45578 0)
(9.99976 -2.30411 0)
(10.1138 -1.05378 0)
(9.9964 0.000154595 0)
(9.96064 0.915739 0)
(9.92523 1.67116 0)
(9.95257 2.17569 0)
(10.2079 2.8662 0)
(10.417 3.74482 0)
(10.4186 4.44344 0)
(10.379 5.02288 0)
(10.127 5.51367 0)
(9.75989 5.56769 0)
(9.64243 5.52553 0)
(9.25732 5.33035 0)
(9.02758 5.06514 0)
(8.69869 4.62647 0)
(8.40429 4.24811 0)
(8.22481 3.85807 0)
(7.9802 3.44371 0)
(7.643 2.94994 0)
(7.29803 2.74953 0)
(6.96985 2.5819 0)
(6.74299 2.45784 0)
(6.38324 2.18187 0)
(6.20943 1.8408 0)
(6.08013 1.59473 0)
(5.98248 1.30362 0)
(5.76587 1.1599 0)
(5.51239 1.06484 0)
(5.14674 1.00548 0)
(5.15046 1.21902 0)
(5.16523 1.25315 0)
(5.23743 1.27889 0)
(5.38009 1.05483 0)
(5.32756 0.855633 0)
(5.48527 0.73274 0)
(5.50608 0.539623 0)
(5.91436 0.634367 0)
(6.05684 0.402299 0)
(6.49594 0.415161 0)
(6.44097 0.540194 0)
(6.89822 0.561543 0)
(6.77437 0.362655 0)
(7.32183 0.595713 0)
(7.5405 1.20562 0)
(7.95027 1.73015 0)
(7.97624 1.69443 0)
(8.04598 1.71725 0)
(8.2946 1.88736 0)
(8.82185 2.01129 0)
(9.28816 2.74275 0)
(9.94222 3.11056 0)
(9.78651 3.52015 0)
(9.88862 3.1324 0)
(9.42939 3.4206 0)
(10.0386 3.22855 0)
(9.93944 3.86907 0)
(11.4978 3.7623 0)
(10.1756 4.15941 0)
(12.2953 3.28091 0)
(10.2774 4.8754 0)
(13.2145 3.64186 0)
(10.0449 5.28687 0)
(12.3427 2.06789 0)
(9.45342 4.84 0)
(11.551 1.06079 0)
(8.79056 3.84973 0)
(11.3199 -0.186128 0)
(7.20588 1.88362 0)
(11.1809 -2.0429 0)
(6.04631 1.29097 0)
(11.7054 -2.48385 0)
(4.8728 1.32807 0)
(10.4999 -4.91463 0)
(4.38383 0.750529 0)
(9.42686 -5.22998 0)
(4.59941 1.69484 0)
(8.84963 -4.2903 0)
(5.66055 2.32174 0)
(7.90875 -4.41279 0)
(4.90625 2.57761 0)
(6.68033 -5.36655 0)
(5.2349 3.87699 0)
(8.40954 -1.78585 0)
(8.55652 5.96424 0)
(11.9049 0.00492249 0)
(11.87 0.00481057 0)
(11.7793 -0.0356993 0)
(11.725 -0.0701806 0)
(11.7445 -0.12764 0)
(11.7544 -0.14145 0)
(11.8314 -0.167883 0)
(11.8366 -0.159335 0)
(11.8799 -0.162248 0)
(11.8693 -0.155165 0)
(11.8728 -0.147653 0)
(11.8617 -0.140744 0)
(11.8548 -0.131992 0)
(11.8586 -0.119112 0)
(11.8538 -0.113686 0)
(11.8691 -0.108935 0)
(11.8774 -0.101165 0)
(11.8834 -0.106172 0)
(11.9118 -0.107688 0)
(11.9011 -0.106407 0)
(11.9438 -0.119529 0)
(11.9243 -0.117651 0)
(11.9578 -0.130524 0)
(11.9553 -0.140554 0)
(11.9585 -0.152449 0)
(11.995 -0.176636 0)
(11.9592 -0.179366 0)
(12.029 -0.216175 0)
(11.9816 -0.215028 0)
(12.0331 -0.234265 0)
(12.0123 -0.256075 0)
(11.9902 -0.239109 0)
(12.0206 -0.281441 0)
(11.9104 -0.248332 0)
(11.979 -0.256697 0)
(11.8191 -0.234877 0)
(11.8997 -0.209491 0)
(11.7462 -0.142637 0)
(11.781 -0.104138 0)
(11.7534 -0.0131083 0)
(11.6249 0.135522 0)
(11.7925 0.170042 0)
(11.6085 0.331919 0)
(11.8011 0.458339 0)
(11.7602 0.526268 0)
(11.9156 0.57144 0)
(12.0161 0.681137 0)
(12.12 0.693251 0)
(12.4237 0.525589 0)
(12.4771 0.537083 0)
(12.7657 0.38977 0)
(12.9859 0.0346338 0)
(13.1461 -0.156537 0)
(13.323 -0.357293 0)
(13.5427 -0.846583 0)
(13.7109 -1.13097 0)
(13.7197 -1.3328 0)
(13.9084 -1.91139 0)
(13.9549 -2.22084 0)
(13.7003 -2.42899 0)
(13.6052 -2.83904 0)
(13.5156 -3.04874 0)
(12.905 -3.04984 0)
(12.1319 -3.04175 0)
(11.7632 -2.9788 0)
(11.243 -2.68601 0)
(10.6891 -2.29061 0)
(10.2245 -1.80698 0)
(9.78189 -1.41589 0)
(9.54044 -1.094 0)
(9.30037 -0.77817 0)
(9.15902 -0.432012 0)
(9.2202 -0.0695507 0)
(9.11751 0.309099 0)
(9.2157 0.631478 0)
(9.24775 0.935028 0)
(9.44821 1.18722 0)
(9.77247 1.43633 0)
(10.0988 1.71504 0)
(10.2801 1.8344 0)
(10.5216 1.72203 0)
(10.5156 1.6051 0)
(10.5404 1.40831 0)
(10.6374 1.15062 0)
(10.6147 0.855163 0)
(10.7489 0.457347 0)
(10.7282 0.166444 0)
(10.9504 -0.280419 0)
(11.0627 -0.716752 0)
(11.1083 -1.12036 0)
(11.3744 -1.70522 0)
(11.4556 -2.14598 0)
(11.452 -2.61363 0)
(11.8879 -3.29506 0)
(11.8169 -3.69281 0)
(11.7646 -4.21668 0)
(12.0653 -5.16276 0)
(11.6868 -5.6701 0)
(10.6914 -5.76574 0)
(10.3573 -6.28964 0)
(10.4653 -7.05996 0)
(10.1497 -7.43872 0)
(9.55377 -7.50108 0)
(8.99454 -7.62929 0)
(8.72698 -7.84817 0)
(8.46672 -8.05432 0)
(8.23528 -8.06852 0)
(8.05537 -7.88469 0)
(7.86213 -7.5679 0)
(7.89673 -6.92433 0)
(7.73132 -6.22893 0)
(7.91908 -5.42539 0)
(7.83056 -4.85508 0)
(8.00341 -4.22309 0)
(7.84876 -3.46196 0)
(8.16068 -2.35514 0)
(8.12147 -1.09491 0)
(8.10338 0.0740261 0)
(8.19643 0.981034 0)
(8.16162 1.66065 0)
(8.24103 2.09033 0)
(8.67316 2.70023 0)
(8.86313 3.58824 0)
(8.905 4.4768 0)
(8.85321 5.20167 0)
(8.6769 5.68791 0)
(8.45361 5.7291 0)
(8.35408 5.73753 0)
(7.97796 5.54811 0)
(7.87019 5.24586 0)
(7.83857 4.83508 0)
(7.51325 4.40129 0)
(7.38638 3.98431 0)
(7.14999 3.63565 0)
(7.00566 3.25114 0)
(6.57509 3.05899 0)
(6.37282 2.77553 0)
(6.23018 2.60861 0)
(6.20844 2.35919 0)
(6.07995 1.88636 0)
(6.04182 1.67637 0)
(5.94478 1.35836 0)
(5.9055 1.34437 0)
(5.64472 1.27829 0)
(5.3279 1.13949 0)
(5.2221 1.15101 0)
(5.31364 1.10928 0)
(5.51739 1.18263 0)
(5.5498 1.04736 0)
(5.54542 0.867289 0)
(5.63527 0.58658 0)
(5.88158 0.416683 0)
(6.12745 0.355863 0)
(6.45164 0.200118 0)
(6.55416 0.253549 0)
(6.71259 0.472084 0)
(6.73228 0.518345 0)
(7.03173 0.219377 0)
(7.29926 0.29728 0)
(7.73267 0.938849 0)
(8.08917 1.51052 0)
(8.47183 1.49574 0)
(8.60281 1.66986 0)
(8.93147 1.60897 0)
(9.13188 1.64929 0)
(9.64626 2.23118 0)
(10.3395 2.73397 0)
(10.3724 3.4376 0)
(10.7754 3.17948 0)
(9.98488 3.62759 0)
(10.627 3.04844 0)
(9.72913 3.66864 0)
(11.8035 3.29804 0)
(10.2706 4.0929 0)
(12.5865 2.64253 0)
(10.5976 4.70015 0)