/*--------------------------------*- C++ -*----------------------------------*\
| =========                 |                                                 |
| \\      /  F ield         | OpenFOAM: The Open Source CFD Toolbox           |
|  \\    /   O peration     | Version:  2.4.0                                 |
|   \\  /    A nd           | Web:      www.OpenFOAM.org                      |
|    \\/     M anipulation  |                                                 |
\*---------------------------------------------------------------------------*/
FoamFile
{
    version     2.0;
    format      ascii;
    class       volScalarField;
    location    "0.82";
    object      nuSgs;
}
// * * * * * * * * * * * * * * * * * * * * * * * * * * * * * * * * * * * * * //

dimensions      [0 2 -1 0 0 0 0];

internalField   nonuniform List<scalar> 
8800
(
0.00133928
0.00150603
0.00139362
0.00122751
0.00112315
0.00104722
0.00100094
0.000956121
0.000930208
0.000899669
0.000885458
0.000861913
0.000853539
0.000835443
0.000827545
0.000812011
0.00080247
0.000788309
0.000777364
0.000752427
0.000556879
0.000980606
0.00108396
0.00108074
0.00106479
0.00103003
0.00100604
0.000972863
0.0009538
0.000926132
0.000913355
0.000889636
0.00088171
0.000864065
0.000857155
0.000843061
0.000837093
0.000824877
0.000815232
0.000809101
0.000136513
0.000402039
0.000588008
0.000654191
0.000709758
0.000733804
0.000753775
0.000758236
0.000761504
0.000757666
0.000756062
0.000749214
0.000746751
0.000739147
0.000736976
0.000730333
0.000728922
0.000722927
0.000720553
0.000713965
2.71954e-05
0.000124303
0.000240366
0.000302508
0.000359277
0.0003954
0.000428503
0.000452558
0.000478573
0.000489544
0.000507249
0.00051683
0.00052813
0.000534691
0.000544418
0.000548585
0.00055728
0.000560971
0.00056884
0.000568635
5.20511e-06
3.31126e-05
7.53931e-05
0.000106703
0.000133843
0.000169737
0.000187741
0.000212616
0.000233751
0.000251343
0.000262809
0.000283312
0.000291491
0.00030793
0.000316277
0.00033239
0.000339973
0.000357038
0.000364397
0.000380394
2.35895e-06
8.29875e-06
1.88073e-05
3.10981e-05
3.85842e-05
5.33745e-05
6.18029e-05
7.70705e-05
8.57384e-05
9.97858e-05
0.000106009
0.000119821
0.000125313
0.000137138
0.000143381
0.00015615
0.000161919
0.00017597
0.000181959
0.000196124
2.18545e-06
3.09299e-06
5.23604e-06
8.48012e-06
1.02454e-05
1.38729e-05
1.63621e-05
2.12805e-05
2.42709e-05
2.9566e-05
3.19709e-05
3.79345e-05
4.02023e-05
4.53206e-05
4.8658e-05
5.51893e-05
5.82763e-05
6.55771e-05
6.90305e-05
7.6349e-05
2.15266e-06
2.55575e-06
3.51411e-06
4.11233e-06
4.21783e-06
4.74875e-06
5.27986e-06
6.49861e-06
7.13727e-06
8.14354e-06
8.60238e-06
9.98838e-06
1.03928e-05
1.15219e-05
1.27925e-05
1.46645e-05
1.55731e-05
1.77719e-05
1.97931e-05
2.1503e-05
2.14468e-06
2.48265e-06
2.93601e-06
3.8878e-06
4.0046e-06
3.95626e-06
3.90192e-06
3.95726e-06
4.19052e-06
4.55169e-06
4.66994e-06
4.76904e-06
4.73151e-06
4.76383e-06
4.95078e-06
5.10504e-06
5.1713e-06
5.35756e-06
5.88928e-06
6.37181e-06
2.13678e-06
2.52268e-06
2.90991e-06
3.36418e-06
3.67338e-06
3.8767e-06
3.95439e-06
3.96903e-06
3.94524e-06
3.9052e-06
3.91573e-06
4.05785e-06
4.14363e-06
4.18873e-06
4.26179e-06
4.27965e-06
4.2486e-06
4.22038e-06
4.23407e-06
4.35855e-06
2.13195e-06
2.44564e-06
3.0402e-06
3.50435e-06
3.73077e-06
3.81567e-06
3.82501e-06
3.80239e-06
3.81779e-06
3.98187e-06
4.13859e-06
4.1697e-06
4.12416e-06
4.10949e-06
4.16536e-06
4.20695e-06
4.20476e-06
4.20716e-06
4.22747e-06
4.35452e-06
2.14295e-06
2.60043e-06
2.95861e-06
3.43336e-06
3.85508e-06
4.10559e-06
4.13338e-06
4.16319e-06
4.20439e-06
4.2632e-06
4.33629e-06
4.38032e-06
4.49794e-06
4.98183e-06
5.15752e-06
5.29815e-06
5.40918e-06
5.72064e-06
6.24174e-06
6.75014e-06
2.15925e-06
2.57103e-06
3.11202e-06
4.18418e-06
4.68304e-06
5.1098e-06
5.41038e-06
6.16513e-06
6.57608e-06
7.80268e-06
8.52324e-06
9.83995e-06
1.07243e-05
1.2685e-05
1.33897e-05
1.49991e-05
1.62169e-05
1.91161e-05
2.10062e-05
2.43684e-05
2.18567e-06
3.07627e-06
5.14515e-06
9.32605e-06
1.11332e-05
1.41123e-05
1.6328e-05
2.0876e-05
2.34148e-05
2.94627e-05
3.24283e-05
3.79075e-05
4.0792e-05
4.70373e-05
4.97538e-05
5.5926e-05
5.96384e-05
6.80283e-05
7.26558e-05
8.28808e-05
2.34942e-06
8.20983e-06
1.79557e-05
3.37852e-05
4.12119e-05
5.29867e-05
6.12633e-05
7.66904e-05
8.40641e-05
9.98882e-05
0.000106978
0.000120017
0.000126165
0.000139351
0.000144869
0.000157576
0.000164348
0.000179928
0.000187674
0.000206681
5.23048e-06
3.29062e-05
6.948e-05
0.000114531
0.000138215
0.00016388
0.000188139
0.000215655
0.00022814
0.000253355
0.000264692
0.000283055
0.000291867
0.000310372
0.000317641
0.000334632
0.000342841
0.000362289
0.000370826
0.000391596
2.72538e-05
0.000123686
0.000239115
0.00030645
0.000358637
0.000392304
0.000430817
0.00045384
0.000473554
0.000493482
0.000506856
0.000517563
0.000527098
0.000538534
0.000543048
0.000552861
0.000557282
0.000568025
0.000571928
0.000580997
0.000136585
0.000400201
0.000588738
0.000654981
0.000709591
0.000732315
0.000755769
0.000757465
0.000761396
0.000757972
0.000756434
0.000748978
0.000746895
0.000739737
0.000737563
0.000731097
0.00072975
0.000725585
0.000723626
0.000718958
0.000556989
0.000980083
0.0010845
0.00108067
0.00106482
0.00102951
0.00100674
0.000971692
0.000955688
0.000924277
0.000913494
0.000889263
0.000881837
0.000861862
0.000857345
0.000840417
0.000836298
0.000820046
0.000814496
0.000800203
0.00133916
0.00150573
0.00139429
0.0012266
0.00112389
0.00104672
0.0010012
0.000954964
0.000931884
0.000897432
0.000885835
0.000859931
0.000853733
0.000830922
0.000826951
0.000804702
0.000799639
0.000773881
0.000764486
0.000732815
0.000342313
0.000290317
0.000258014
0.000238652
0.000226747
0.000219832
0.000214448
0.000211124
0.000207644
0.000205405
0.00020257
0.000200314
0.00019749
0.000195267
0.00019284
0.000191189
0.000189471
0.000187973
0.000186482
0.000184881
0.000183333
0.000181487
0.000178616
0.000175878
0.000171921
0.000168129
0.000164366
0.000161818
0.000160163
0.00015917
0.000158911
0.000158318
0.000157976
0.000157304
0.000156127
0.000153855
0.000149873
0.000143452
0.000135721
0.000128046
0.000120656
0.000116148
0.000112517
0.000112693
0.000113866
0.000116543
0.000122082
0.000127396
0.000134781
0.000139939
0.000145574
0.000149052
0.00015236
0.00015457
0.000156157
0.0001569
0.000157836
0.00015795
0.000157498
0.00015747
0.000156888
0.000156572
0.000156586
0.000156637
0.000156994
0.000157236
0.000157923
0.000157921
0.000158084
0.000158233
0.000158221
0.000158691
0.000159339
0.000160722
0.000161673
0.000163507
0.000165117
0.000164807
0.000164499
0.000163382
0.000159174
0.000153178
0.000147351
0.000140024
0.000136024
0.000133275
0.000127282
0.000124239
0.000124288
0.000124478
0.000123779
0.000123725
0.000123939
0.000125073
0.000125028
0.000124491
0.000123095
0.000121596
0.000120221
0.000116902
0.000113897
0.000109492
0.000100532
9.30649e-05
8.20364e-05
6.94314e-05
5.8338e-05
4.82489e-05
4.01931e-05
3.44111e-05
2.99373e-05
2.70312e-05
2.51589e-05
2.42537e-05
2.39324e-05
2.40105e-05
2.43016e-05
2.47363e-05
2.56039e-05
2.71497e-05
2.81285e-05
3.01129e-05
3.34699e-05
3.49091e-05
3.76204e-05
4.11661e-05
4.17654e-05
4.1782e-05
4.12582e-05
3.9022e-05
3.682e-05
3.54641e-05
3.43233e-05
3.41232e-05
3.4263e-05
3.46164e-05
3.50028e-05
3.53411e-05
3.61514e-05
3.74905e-05
4.06977e-05
4.70912e-05
6.00883e-05
6.73542e-05
7.3648e-05
7.67e-05
7.90079e-05
8.23279e-05
8.39289e-05
8.39871e-05
8.40605e-05
8.5061e-05
8.5522e-05
8.6373e-05
8.70663e-05
8.64375e-05
8.59793e-05
8.57803e-05
8.35128e-05
7.23418e-05
6.95908e-05
7.6009e-05
9.53098e-05
0.000101551
9.993e-05
9.21972e-05
8.73478e-05
8.18661e-05
7.67525e-05
7.03071e-05
6.45333e-05
5.8187e-05
5.54981e-05
5.58904e-05
5.62018e-05
6.12089e-05
6.73744e-05
7.53465e-05
0.000110693
9.09892e-05
0.000109751
0.000101881
9.9548e-05
9.55859e-05
8.69916e-05
8.21633e-05
6.76656e-05
6.2205e-05
6.07852e-05
6.16164e-05
6.65264e-05
7.17635e-05
8.13331e-05
9.03416e-05
9.41974e-05
0.00010079
0.000109109
0.000123008
0.000134936
0.000196879
0.00040724
0.000368121
0.000336383
0.000312217
0.00029324
0.000278952
0.000267363
0.000258376
0.000250632
0.000244334
0.000238583
0.000233744
0.000229306
0.000225581
0.000222053
0.000219216
0.000216508
0.000214404
0.000212125
0.000210608
0.000208529
0.000207486
0.000205297
0.000204166
0.000201881
0.000200432
0.000198109
0.0001964
0.000194612
0.000193205
0.000191922
0.000191233
0.000190305
0.000189827
0.000188595
0.000187816
0.000185897
0.000184362
0.000181078
0.000178622
0.000174951
0.000171045
0.00016905
0.000165984
0.00016512
0.000164625
0.000164652
0.000165629
0.000166193
0.000167649
0.000168609
0.000169156
0.000170723
0.00017068
0.000171226
0.000171388
0.000170972
0.000171079
0.000170503
0.000169772
0.000169052
0.000167759
0.000166442
0.000165727
0.000164315
0.000162409
0.000161948
0.000160687
0.000159276
0.000158879
0.000156649
0.000156217
0.000155693
0.000155213
0.000156439
0.000156671
0.000157318
0.000160266
0.000160893
0.000162015
0.000162865
0.000162468
0.000161915
0.00016092
0.000158013
0.000154598
0.000153269
0.000151033
0.000146105
0.000143171
0.000141581
0.000138021
0.000136005
0.000132829
0.00012826
0.000125366
0.000120067
0.000113819
0.00010767
9.62772e-05
8.47968e-05
7.19876e-05
5.87956e-05
4.85507e-05
3.99525e-05
3.29691e-05
2.79499e-05
2.44569e-05
2.23379e-05
2.12755e-05
2.13743e-05
2.1638e-05
2.21175e-05
2.30754e-05
2.37943e-05
2.51157e-05
2.69775e-05
2.81119e-05
2.95376e-05
3.16346e-05
3.2676e-05
3.53436e-05
3.6476e-05
3.83247e-05
4.05476e-05
4.16313e-05
4.19514e-05
4.21707e-05
4.1614e-05
3.94337e-05
3.77418e-05
3.70604e-05
3.71177e-05
3.79529e-05
3.89536e-05
3.92309e-05
3.96266e-05
4.01437e-05
4.13655e-05
4.46809e-05
5.32147e-05
6.65405e-05
7.35624e-05
7.55427e-05
7.70287e-05
8.07676e-05
8.35621e-05
8.55272e-05
8.66596e-05
8.60598e-05
8.49239e-05
8.30748e-05
8.01766e-05
7.94671e-05
8.00235e-05
8.23715e-05
8.46309e-05
8.8072e-05
8.82996e-05
8.38062e-05
7.57742e-05
7.62038e-05
8.89002e-05
0.000100763
0.000100985
9.49093e-05
8.90871e-05
8.61336e-05
8.21516e-05
7.33875e-05
6.82955e-05
6.55069e-05
6.23115e-05
6.0183e-05
6.02132e-05
6.25422e-05
9.38732e-05
8.80518e-05
0.000108705
9.93725e-05
0.000102454
0.000100383
9.23995e-05
8.7214e-05
7.0651e-05
6.54847e-05
5.6557e-05
5.63739e-05
5.83887e-05
6.42047e-05
7.38175e-05
8.51513e-05
8.9579e-05
9.61293e-05
9.59082e-05
9.6516e-05
9.77567e-05
0.000107304
0.000116727
0.000147035
0.000369444
0.000345655
0.000324875
0.000307774
0.000293287
0.000281042
0.000270332
0.000261063
0.000253067
0.000246196
0.000240174
0.000235036
0.000229986
0.000225736
0.000221441
0.000218028
0.000214476
0.000212105
0.000209321
0.000207483
0.000205131
0.000203574
0.000201358
0.000200087
0.000198213
0.000196808
0.000195669
0.000193942
0.000193291
0.00019176
0.000191086
0.000190313
0.000189297
0.000189223
0.000188462
0.00018836
0.000187827
0.000187263
0.000186783
0.000184886
0.000184199
0.000182085
0.000180617
0.000178828
0.000176328
0.000175866
0.0001735
0.000172772
0.00017198
0.00017087
0.00017097
0.000170135
0.000169824
0.000169396
0.000168864
0.000167971
0.000167103
0.000166471
0.000164596
0.000163845
0.000162078
0.000160232
0.000159283
0.000155875
0.000154429
0.0001523
0.00014856
0.000147507
0.000144106
0.000141046
0.00013976
0.000135075
0.000133933
0.000132943
0.000130187
0.00013026
0.000129954
0.000130188
0.000131409
0.000131968
0.00013371
0.000135979
0.000136169
0.000137012
0.000137553
0.000137146
0.000135884
0.000134781
0.000132316
0.000129564
0.000126833
0.000121135
0.00011666
0.000109101
0.000100214
9.27732e-05
8.11656e-05
6.88343e-05
5.8883e-05
4.90152e-05
4.05693e-05
3.37264e-05
2.80117e-05
2.35482e-05
2.06349e-05
1.88583e-05
1.84212e-05
1.86585e-05
1.9207e-05
2.01855e-05
2.2532e-05
2.43091e-05
2.758e-05
3.11695e-05
3.34907e-05
3.74645e-05
3.98036e-05
4.11395e-05
4.33216e-05
4.3918e-05
4.43358e-05
4.53005e-05
4.53055e-05
4.66732e-05
4.73893e-05
4.67644e-05
4.60399e-05
4.56092e-05
4.44128e-05
4.28974e-05
4.15422e-05
4.1174e-05
4.17167e-05
4.31005e-05
4.3413e-05
4.34596e-05
4.3681e-05
4.44367e-05
4.71197e-05
5.65197e-05
7.11481e-05
7.72295e-05
7.86426e-05
7.93975e-05
8.07144e-05
8.51442e-05
8.96701e-05
9.04445e-05
8.96686e-05
8.72906e-05
8.26838e-05
7.88005e-05
7.51076e-05
7.27332e-05
7.25489e-05
7.37356e-05
7.88462e-05
8.66437e-05
8.88419e-05
8.75108e-05
8.03409e-05
7.80451e-05
8.40558e-05
9.87286e-05
0.000100143
9.56369e-05
9.07623e-05
8.83539e-05
8.63888e-05
8.01403e-05
7.12979e-05
7.06598e-05
6.90389e-05
6.47619e-05
7.7129e-05
7.40381e-05
9.63884e-05
9.37305e-05
9.84607e-05
9.84652e-05
9.4992e-05
9.30742e-05
8.30811e-05
7.83283e-05
6.24431e-05
5.63503e-05
5.30867e-05
5.86886e-05
6.35883e-05
7.6808e-05
8.00211e-05
9.27607e-05
9.05664e-05
9.38144e-05
9.62739e-05
9.35314e-05
0.00010528
0.000110132
0.000117192
0.000132547
0.000300251
0.000286395
0.000272513
0.000261914
0.000252454
0.000244631
0.000237172
0.000229922
0.000223145
0.000217144
0.000211757
0.000207413
0.000203434
0.0001997
0.000195965
0.000192581
0.000188919
0.000185909
0.000183439
0.00018102
0.000179219
0.000177897
0.000175892
0.000174461
0.00017312
0.000170834
0.000169932
0.000168263
0.000167345
0.000166399
0.000165663
0.000165411
0.000164533
0.000164376
0.000164279
0.0001645
0.00016474
0.000164951
0.000165819
0.000165729
0.00016569
0.000165092
0.000164101
0.000163199
0.000160251
0.000158988
0.000156318
0.000154326
0.000152272
0.000149258
0.000148462
0.000146256
0.000144927
0.000143968
0.00014168
0.000141264
0.000139729
0.000137892
0.000137098
0.000134331
0.000132842
0.000131112
0.00012728
0.000125648
0.000122687
0.000118567
0.000116317
0.000111532
0.000108175
0.000103575
0.000101127
9.57517e-05
9.29611e-05
9.15826e-05
8.7676e-05
8.71533e-05
8.65446e-05
8.65377e-05
8.73141e-05
8.76607e-05
8.81659e-05
9.00876e-05
9.03459e-05
9.05062e-05
9.10265e-05
9.0592e-05
8.90094e-05
8.78304e-05
8.49672e-05
8.07156e-05
7.65885e-05
7.00422e-05
6.45492e-05
5.80609e-05
5.10635e-05
4.51332e-05
3.89429e-05
3.31291e-05
2.82343e-05
2.39929e-05
2.04156e-05
1.78021e-05
1.62311e-05
1.58271e-05
1.60331e-05
1.66303e-05
1.77957e-05
2.08459e-05
2.369e-05
2.86054e-05
3.50182e-05
3.88351e-05
4.59212e-05
5.07902e-05
5.48579e-05
5.8848e-05
6.05462e-05
6.16937e-05
6.17293e-05
6.10853e-05
6.04492e-05
5.93727e-05
5.77832e-05
5.71017e-05
5.64353e-05
5.49457e-05
5.37473e-05
5.06523e-05
4.86101e-05
4.82477e-05
4.76316e-05
4.74635e-05
4.7594e-05
4.77266e-05
4.73947e-05
4.72956e-05
4.754e-05
4.91772e-05
5.56827e-05
7.31827e-05
8.05564e-05
8.18199e-05
8.16694e-05
8.25427e-05
8.50839e-05
9.24617e-05
9.44218e-05
9.32704e-05
8.98178e-05
8.30533e-05
7.63776e-05
7.18072e-05
6.88995e-05
6.711e-05
6.66004e-05
6.72969e-05
6.9867e-05
8.15024e-05
8.80847e-05
8.77402e-05
8.24563e-05
7.88091e-05
8.06097e-05
9.252e-05
9.7181e-05
9.48629e-05
9.07215e-05
8.96426e-05
8.81042e-05
8.51141e-05
7.75733e-05
7.32709e-05
8.60213e-05
7.90414e-05
9.66104e-05
8.78138e-05
9.44209e-05
9.45291e-05
9.42083e-05
9.46307e-05
9.03127e-05
8.72078e-05
7.8039e-05
6.9249e-05
5.75599e-05
5.11834e-05
5.08117e-05
5.60336e-05
6.21256e-05
7.05733e-05
7.4384e-05
8.27138e-05
9.14171e-05
0.000102011
0.000110263
0.000125497
0.000119343
0.000135301
0.000130502
0.000137
0.000203536
0.000197185
0.000188192
0.000182425
0.000176831
0.000172981
0.000169795
0.000166332
0.000162458
0.00015846
0.000154898
0.000151154
0.000149061
0.000147053
0.000144837
0.000143578
0.000141014
0.000138424
0.000136171
0.000133739
0.0001318
0.000130756
0.000130097
0.000129387
0.00012908
0.000128232
0.000126801
0.000125632
0.000123701
0.000122886
0.000122141
0.000122022
0.000122279
0.000122511
0.000122933
0.000122688
0.000121958
0.000121693
0.000121091
0.000120903
0.000120373
0.000120315
0.000120189
0.000119884
0.000119421
0.000118127
0.000117215
0.000114772
0.000113053
0.000109642
0.00010574
0.00010412
0.000100057
9.86196e-05
9.57718e-05
9.41084e-05
9.34661e-05
9.10007e-05
8.99826e-05
8.80018e-05
8.57386e-05
8.45606e-05
8.06399e-05
7.83261e-05
7.62293e-05
7.23261e-05
7.03671e-05
6.72232e-05
6.37197e-05
6.12056e-05
5.85258e-05
5.4815e-05
5.26421e-05
5.10374e-05
4.83474e-05
4.74893e-05
4.67883e-05
4.66061e-05
4.68463e-05
4.70542e-05
4.73453e-05
4.82039e-05
4.82523e-05
4.81185e-05
4.79795e-05
4.74712e-05
4.58741e-05
4.49014e-05
4.27939e-05
4.032e-05
3.79836e-05
3.46275e-05
3.15107e-05
2.85e-05
2.50708e-05
2.20306e-05
1.94633e-05
1.69919e-05
1.50467e-05
1.38683e-05
1.3402e-05
1.35284e-05
1.40202e-05
1.50731e-05
1.75439e-05
2.1106e-05
2.57045e-05
3.4491e-05
4.00708e-05
5.00678e-05
5.76971e-05
6.54541e-05
7.35861e-05
7.90617e-05
8.35574e-05
8.68174e-05
8.69182e-05
8.63647e-05
8.49154e-05
8.13686e-05
7.85934e-05
7.49776e-05
7.20528e-05
6.85178e-05
6.54335e-05
6.39839e-05
6.18752e-05
5.63268e-05
5.3751e-05
5.36638e-05
5.4e-05
5.46852e-05
5.48214e-05
5.44631e-05
5.21937e-05
5.2177e-05
5.30124e-05
5.79956e-05
7.4757e-05
8.61378e-05
8.63625e-05
8.46723e-05
8.44277e-05
8.69186e-05
9.5284e-05
9.87878e-05
9.73482e-05
9.34922e-05
8.33579e-05
7.60669e-05
7.00715e-05
6.55774e-05
6.39756e-05
6.35165e-05
6.31753e-05
6.33232e-05
6.48063e-05
7.39239e-05
8.52715e-05
8.64777e-05
8.34957e-05
7.82258e-05
7.80961e-05
8.17565e-05
9.00347e-05
9.18746e-05
9.01325e-05
9.03373e-05
8.98246e-05
8.65251e-05
8.92593e-05
8.21891e-05
0.000101374
9.30024e-05
9.69556e-05
9.4194e-05
9.18766e-05
9.33772e-05
9.16682e-05
9.10929e-05
8.68528e-05
8.3446e-05
7.14042e-05
6.12643e-05
5.33995e-05
5.0086e-05
5.01186e-05
5.15037e-05
5.69216e-05
6.70371e-05
7.51123e-05
0.000101012
0.000105309
0.000132417
0.000120091
0.000131408
0.000115345
0.000117397
0.000106178
0.000108047
0.000106225
0.00010461
0.000100724
9.84556e-05
9.58127e-05
9.41202e-05
9.33673e-05
9.2548e-05
9.13675e-05
8.95185e-05
8.80708e-05
8.60365e-05
8.48321e-05
8.42499e-05
8.34948e-05
8.32885e-05
8.29495e-05
8.18975e-05
8.10041e-05
7.9239e-05
7.8143e-05
7.6856e-05
7.6376e-05
7.60443e-05
7.60303e-05
7.63073e-05
7.62101e-05
7.63607e-05
7.56678e-05
7.50017e-05
7.42036e-05
7.37211e-05
7.41417e-05
7.41015e-05
7.47877e-05
7.51356e-05
7.53601e-05
7.58308e-05
7.51324e-05
7.48328e-05
7.37025e-05
7.30253e-05
7.26519e-05
7.14079e-05
7.10106e-05
7.00835e-05
6.96272e-05
6.86904e-05
6.76792e-05
6.68241e-05
6.42887e-05
6.30306e-05
5.97209e-05
5.80977e-05
5.53607e-05
5.28756e-05
5.21127e-05
5.01507e-05
4.91696e-05
4.82088e-05
4.62766e-05
4.5588e-05
4.41297e-05
4.21284e-05
4.11491e-05
3.8912e-05
3.72907e-05
3.64449e-05
3.44209e-05
3.31824e-05
3.20691e-05
2.9622e-05
2.83361e-05
2.68353e-05
2.50203e-05
2.42876e-05
2.34535e-05
2.30932e-05
2.31445e-05
2.32596e-05
2.34448e-05
2.39061e-05
2.40448e-05
2.40242e-05
2.38957e-05
2.35336e-05
2.24214e-05
2.17693e-05
2.04903e-05
1.90861e-05
1.79205e-05
1.65597e-05
1.50365e-05
1.38777e-05
1.2566e-05
1.15865e-05
1.07853e-05
1.07599e-05
1.09603e-05
1.14388e-05
1.24899e-05
1.39819e-05
1.7424e-05
2.1482e-05
2.91941e-05
3.67561e-05
4.66149e-05
5.83933e-05
6.88645e-05
8.15035e-05
9.19028e-05
0.000101586
0.000110153
0.000115552
0.000119859
0.000120105
0.000119214
0.00011702
0.000112246
0.00010576
0.000100161
9.26025e-05
8.74636e-05
8.18995e-05
7.49247e-05
7.20477e-05
7.03535e-05
6.544e-05
6.14172e-05
5.94043e-05
5.94069e-05
6.07376e-05
6.1413e-05
5.97593e-05
5.72853e-05
5.7494e-05
6.0994e-05
7.74224e-05
9.09076e-05
9.17431e-05
8.85159e-05
8.62213e-05
8.75985e-05
9.60951e-05
0.00010136
0.000100847
9.61672e-05
8.40114e-05
7.32967e-05
6.76704e-05
6.37433e-05
6.08772e-05
6.04121e-05
6.10417e-05
6.14198e-05
6.12445e-05
6.18515e-05
6.68993e-05
8.09727e-05
8.44058e-05
8.29968e-05
7.78793e-05
7.58446e-05
7.66745e-05
8.31538e-05
9.10405e-05
8.95131e-05
9.03343e-05
9.43814e-05
9.27909e-05
0.000105982
9.80222e-05
0.000102116
9.84e-05
9.31333e-05
9.43513e-05
9.18044e-05
9.19059e-05
8.83428e-05
8.68598e-05
8.20495e-05
7.66172e-05
6.64738e-05
5.62897e-05
5.23037e-05
5.15863e-05
5.21591e-05
5.38111e-05
5.77491e-05
8.09774e-05
8.90032e-05
0.000115898
0.000108562
0.000108333
9.1924e-05
8.70619e-05
7.67831e-05
7.67164e-05
7.48829e-05
7.45266e-05
4.16893e-05
4.1425e-05
4.05803e-05
3.99587e-05
3.90682e-05
3.86069e-05
3.84483e-05
3.84645e-05
3.84714e-05
3.80761e-05
3.76855e-05
3.69837e-05
3.67649e-05
3.6722e-05
3.66683e-05
3.68514e-05
3.68932e-05
3.69426e-05
3.69282e-05
3.63979e-05
3.58485e-05
3.52371e-05
3.52283e-05
3.51381e-05
3.5239e-05
3.58364e-05
3.59722e-05
3.65966e-05
3.63493e-05
3.63344e-05
3.60089e-05
3.56676e-05
3.59637e-05
3.58407e-05
3.66456e-05
3.75638e-05
3.84785e-05
3.92941e-05
3.90175e-05
3.89433e-05
3.81128e-05
3.67824e-05
3.59965e-05
3.42924e-05
3.38395e-05
3.3692e-05
3.40681e-05
3.49391e-05
3.50314e-05
3.50486e-05
3.49152e-05
3.40915e-05
3.24157e-05
3.02712e-05
2.83293e-05
2.65879e-05
2.54197e-05
2.43424e-05
2.36576e-05
2.33405e-05
2.26008e-05
2.1952e-05
2.12966e-05
2.01433e-05
1.9404e-05
1.85932e-05
1.77329e-05
1.74037e-05
1.69951e-05
1.65248e-05
1.60593e-05
1.48884e-05
1.3957e-05
1.29466e-05
1.19235e-05
1.12964e-05
1.08025e-05
1.06349e-05
1.06526e-05
1.07228e-05
1.09129e-05
1.12678e-05
1.14119e-05
1.14426e-05
1.14232e-05
1.12026e-05
1.05491e-05
1.01828e-05
9.56799e-06
8.89619e-06
8.64872e-06
8.16184e-06
7.80632e-06
7.85911e-06
8.04975e-06
8.38505e-06
8.89304e-06
9.89899e-06
1.13381e-05
1.41191e-05
1.80306e-05
2.24368e-05
3.13322e-05
3.88316e-05
5.15306e-05
6.53968e-05
7.88164e-05
9.51895e-05
0.00010947
0.000123601
0.000136266
0.00014596
0.000152402
0.000156353
0.000156601
0.000155821
0.000152952
0.0001494
0.000140813
0.00013275
0.000123323
0.000111506
0.000104732
9.66911e-05
8.82145e-05
8.15441e-05
7.5996e-05
7.40549e-05
7.29066e-05
6.83917e-05
6.62985e-05
6.61907e-05
6.52815e-05
6.0407e-05
5.97584e-05
6.19873e-05
7.74712e-05
9.43967e-05
9.75877e-05
9.39025e-05
8.79037e-05
8.73522e-05
9.30686e-05
0.000101936
0.000103002
9.95227e-05
8.57306e-05
7.54759e-05
6.80861e-05
6.36188e-05
6.06613e-05
5.85994e-05
5.80534e-05
5.86375e-05
5.9393e-05
5.94196e-05
5.99377e-05
6.29195e-05
7.65173e-05
8.32034e-05
8.22153e-05
7.79761e-05
7.53459e-05
7.54033e-05
7.84713e-05
9.02106e-05
8.86356e-05
9.09059e-05
0.00010205
0.000103166
0.000106682
0.00010333
9.83478e-05
9.79553e-05
9.33779e-05
9.39907e-05
9.13524e-05
9.0675e-05
8.69398e-05
8.473e-05
7.85757e-05
7.2152e-05
6.1581e-05
5.65096e-05
5.23057e-05
5.52187e-05
5.76502e-05
6.82843e-05
7.11868e-05
9.20413e-05
9.3883e-05
9.83804e-05
9.1555e-05
7.73835e-05
6.80468e-05
6.44744e-05
6.37988e-05
6.46396e-05
6.58539e-05
6.66186e-05
1.17739e-05
1.17376e-05
1.16185e-05
1.14251e-05
1.11589e-05
1.10731e-05
1.10591e-05
1.1106e-05
1.11749e-05
1.11881e-05
1.122e-05
1.12131e-05
1.12184e-05
1.12708e-05
1.1375e-05
1.15416e-05
1.16239e-05
1.16634e-05
1.16611e-05
1.15869e-05
1.14758e-05
1.14551e-05
1.14944e-05
1.14971e-05
1.16434e-05
1.1845e-05
1.19352e-05
1.22841e-05
1.21954e-05
1.23197e-05
1.22765e-05
1.2252e-05
1.25174e-05
1.2572e-05
1.32826e-05
1.40887e-05
1.45081e-05
1.50571e-05
1.48622e-05
1.47602e-05
1.43831e-05
1.34366e-05
1.29012e-05
1.20629e-05
1.1818e-05
1.22009e-05
1.32268e-05
1.447e-05
1.47544e-05
1.49889e-05
1.503e-05
1.45096e-05
1.36199e-05
1.23382e-05
1.13315e-05
1.06318e-05
9.92675e-06
9.55783e-06
9.2699e-06
9.0378e-06
8.90112e-06
8.50329e-06
8.14189e-06
7.76413e-06
7.40154e-06
7.29077e-06
7.12007e-06
7.04962e-06
7.03577e-06
7.01157e-06
6.9276e-06
6.55004e-06
6.06009e-06
5.62557e-06
5.2675e-06
5.02894e-06
4.89205e-06
4.84109e-06
4.83883e-06
4.87193e-06
5.01149e-06
5.13846e-06
5.22565e-06
5.27551e-06
5.30362e-06
5.26446e-06
5.25672e-06
5.29966e-06
5.41625e-06
5.52735e-06
5.74884e-06
6.03484e-06
6.47608e-06
7.215e-06
8.22134e-06
9.88413e-06
1.18819e-05
1.53051e-05
1.92451e-05
2.59837e-05
3.26736e-05
4.1245e-05
5.58829e-05
6.80045e-05
8.84254e-05
0.000105318
0.000124945
0.000143697
0.000157404
0.000166788
0.000171366
0.000173755
0.000174029
0.000173588
0.000172697
0.000170934
0.000167496
0.00016484
0.000158858
0.000152206
0.000144308
0.000129964
0.000118474
0.00010943
0.000100949
9.22618e-05
8.56938e-05
8.28914e-05
7.82113e-05
7.52773e-05
7.38763e-05
7.01314e-05
6.35053e-05
6.18169e-05
6.33964e-05
7.59082e-05
9.67416e-05
0.000102064
0.000100707
9.15535e-05
8.78978e-05
8.85847e-05
9.95634e-05
0.000103588
0.000102423
9.04873e-05
7.91625e-05
7.23244e-05
6.64236e-05
6.21287e-05
5.94366e-05
5.78686e-05
5.72841e-05
5.75298e-05
5.77978e-05
5.84527e-05
5.97484e-05
6.21333e-05
7.11219e-05
7.98261e-05
7.9968e-05
7.73852e-05
7.45974e-05
7.3962e-05
7.45175e-05
8.45997e-05
8.47828e-05
8.87997e-05
9.93128e-05
0.000101504
0.000102586
0.000102864
9.91035e-05
9.74431e-05
9.20394e-05
9.13796e-05
8.85549e-05
8.81338e-05
8.47556e-05
8.14524e-05
7.50908e-05
6.94581e-05
5.96617e-05
5.59752e-05
5.41793e-05
5.69175e-05
5.87186e-05
6.72377e-05
7.17692e-05
8.51437e-05
8.50653e-05
8.01604e-05
7.18121e-05
6.4523e-05
6.10385e-05
6.09983e-05
6.1208e-05
6.32578e-05
6.64447e-05
6.75842e-05
3.49839e-06
3.49757e-06
3.50374e-06
3.49339e-06
3.45723e-06
3.41962e-06
3.39259e-06
3.36772e-06
3.35798e-06
3.34151e-06
3.33384e-06
3.33421e-06
3.32847e-06
3.32996e-06
3.33984e-06
3.36831e-06
3.44651e-06
3.47292e-06
3.5307e-06
3.55353e-06
3.57607e-06
3.59406e-06
3.59713e-06
3.60203e-06
3.63836e-06
3.64566e-06
3.65217e-06
3.7022e-06
3.69211e-06
3.72902e-06
3.75774e-06
3.76526e-06
3.89126e-06
3.91966e-06
4.06358e-06
4.27192e-06
4.30896e-06
4.51203e-06
4.45446e-06
4.43746e-06
4.38023e-06
4.24177e-06
4.07305e-06
3.92384e-06
3.87591e-06
4.07281e-06
4.37365e-06
4.6663e-06
4.79238e-06
4.84698e-06
4.86478e-06
4.77013e-06
4.54449e-06
4.27553e-06
4.00598e-06
3.84213e-06
3.68686e-06
3.6083e-06
3.56392e-06
3.51501e-06
3.49832e-06
3.49952e-06
3.5092e-06
3.54165e-06
3.55843e-06
3.57864e-06
3.64271e-06
3.67805e-06
3.72809e-06
3.75148e-06
3.77119e-06
3.78674e-06
3.80021e-06
3.84438e-06
3.87979e-06
3.899e-06
3.91694e-06
3.92702e-06
3.94558e-06
3.96444e-06
4.00685e-06
4.0408e-06
4.11304e-06
4.21399e-06
4.38485e-06
4.54944e-06
4.90336e-06
5.29738e-06
5.70544e-06
6.45263e-06
7.44613e-06
8.34928e-06
1.01726e-05
1.19345e-05
1.49566e-05
1.82262e-05
2.2637e-05
2.79473e-05
3.5594e-05
4.66086e-05
5.6709e-05
7.34034e-05
9.2001e-05
0.000114222
0.000137831
0.000157708
0.000170045
0.000176417
0.000179229
0.000180275
0.000180122
0.000179517
0.000178201
0.000176976
0.00017573
0.000173743
0.000171366
0.000168045
0.000164793
0.00016008
0.000152689
0.000142819
0.00013024
0.00011986
0.000111474
9.94107e-05
9.25883e-05
9.02494e-05
8.48931e-05
7.89647e-05
7.35243e-05
6.73529e-05
6.48257e-05
6.61342e-05
7.50606e-05
9.74553e-05
0.000105475
0.000106073
0.000100056
8.94313e-05
8.72703e-05
9.10718e-05
0.00010257
0.000103281
9.89803e-05
8.3946e-05
7.73153e-05
7.15571e-05
6.61502e-05
6.16672e-05
6.05861e-05
5.97135e-05
5.80794e-05
5.77265e-05
5.77144e-05
5.80704e-05
5.98154e-05
6.29697e-05
7.0521e-05
7.67566e-05
7.70715e-05
7.58634e-05
7.16992e-05
7.32997e-05
7.26264e-05
8.22784e-05
8.02954e-05
8.24728e-05
8.71856e-05
9.86159e-05
9.98645e-05
0.000101952
9.99187e-05
9.7701e-05
9.10743e-05
8.9486e-05
8.47543e-05
8.46095e-05
8.25897e-05
7.90137e-05
7.12683e-05
6.63946e-05
5.83134e-05
5.53248e-05
5.41739e-05
5.59333e-05
5.76233e-05
6.47806e-05
6.76044e-05
6.9948e-05
7.05735e-05
6.85518e-05
6.47436e-05
6.13036e-05
5.95405e-05
6.00039e-05
6.12284e-05
6.24042e-05
6.30825e-05
6.43487e-05
2.40102e-06
2.41897e-06
2.47733e-06
2.49295e-06
2.50404e-06
2.50294e-06
2.50755e-06
2.51327e-06
2.51922e-06
2.51947e-06
2.51967e-06
2.51699e-06
2.50844e-06
2.5009e-06
2.4946e-06
2.49508e-06
2.49406e-06
2.49472e-06
2.49654e-06
2.50375e-06
2.50764e-06
2.52553e-06
2.52804e-06
2.53242e-06
2.53239e-06
2.53165e-06
2.53702e-06
2.54316e-06
2.55164e-06
2.56318e-06
2.56949e-06
2.57399e-06
2.5831e-06
2.58247e-06
2.58533e-06
2.5945e-06
2.59217e-06
2.60062e-06
2.61315e-06
2.61609e-06
2.63958e-06
2.64064e-06
2.64335e-06
2.65483e-06
2.65474e-06
2.66915e-06
2.68276e-06
2.71247e-06
2.78498e-06
2.79262e-06
2.80264e-06
2.8014e-06
2.78691e-06
2.78592e-06
2.79695e-06
2.82393e-06
2.88072e-06
2.96684e-06
3.03812e-06
3.1784e-06
3.26022e-06
3.36863e-06
3.48362e-06
3.57729e-06
3.64691e-06
3.76376e-06
3.85137e-06
3.94964e-06
4.12035e-06
4.24164e-06
4.47287e-06
4.71959e-06
5.00765e-06
5.41858e-06
5.74551e-06
5.99548e-06
6.21827e-06
6.36371e-06
6.41086e-06
6.49167e-06
6.53156e-06
6.61168e-06
6.79907e-06
7.18867e-06
7.53228e-06
8.30177e-06
9.07066e-06
1.00326e-05
1.10016e-05
1.29203e-05
1.44693e-05
1.62566e-05
1.97364e-05
2.27565e-05
2.79707e-05
3.28207e-05
4.11997e-05
4.89639e-05
6.25173e-05
7.70466e-05
9.51884e-05
0.000120591
0.000146818
0.000166799
0.000176542
0.000181109
0.00018283
0.000183034
0.000182414
0.000180841
0.000177297
0.000173384
0.000171089
0.000170216
0.000169485
0.000169215
0.000168737
0.000166694
0.00016511
0.000161553
0.000156247
0.000150307
0.000137036
0.00012686
0.000117284
0.000105712
9.90437e-05
9.26029e-05
8.61164e-05
8.07529e-05
7.36404e-05
6.92301e-05
6.97422e-05
7.43469e-05
9.40364e-05
0.000106725
0.000109813
0.000108283
9.90081e-05
8.84271e-05
8.70262e-05
9.2851e-05
0.000101083
0.00010148
9.42136e-05
8.19752e-05
7.82077e-05
7.11948e-05
6.67919e-05
6.55764e-05
6.3592e-05
6.18088e-05
6.11072e-05
5.9692e-05
5.83274e-05
5.85089e-05
6.00288e-05
6.53548e-05
7.16654e-05
7.67636e-05
7.65643e-05
7.60325e-05
7.179e-05
7.61302e-05
7.41215e-05
7.68506e-05
7.46788e-05
7.45966e-05
7.62598e-05
9.0568e-05
9.47979e-05
0.000100213
9.99582e-05
9.89245e-05
9.21107e-05
8.99224e-05
8.53417e-05
8.20517e-05
7.97956e-05
7.70665e-05
6.97974e-05
6.60899e-05
5.83736e-05
5.62269e-05
5.52558e-05
5.59777e-05
5.68159e-05
5.98158e-05
6.263e-05
6.31751e-05
6.35377e-05
6.32927e-05
6.19566e-05
6.05284e-05
5.95657e-05
5.94379e-05
5.94746e-05
6.25499e-05
6.68542e-05
6.88517e-05
2.40016e-06
2.41605e-06
2.46222e-06
2.48852e-06
2.51594e-06
2.53635e-06
2.55208e-06
2.57882e-06
2.59589e-06
2.60697e-06
2.61136e-06
2.61175e-06
2.60798e-06
2.59629e-06
2.58855e-06
2.58212e-06
2.59295e-06
2.62996e-06
2.72621e-06
2.76163e-06
2.79335e-06
2.8017e-06
2.79364e-06
2.78335e-06
2.74597e-06
2.71487e-06
2.69888e-06
2.68526e-06
2.68501e-06
2.69296e-06
2.70939e-06
2.72165e-06
2.72577e-06
2.72687e-06
2.72905e-06
2.72912e-06
2.73113e-06
2.73764e-06
2.76836e-06
2.82741e-06
2.85758e-06
2.94096e-06
2.97885e-06
3.02096e-06
3.10826e-06
3.13889e-06
3.21426e-06
3.26566e-06
3.30076e-06
3.39981e-06
3.45194e-06
3.54347e-06
3.66803e-06
3.75261e-06