/*--------------------------------*- C++ -*----------------------------------*\
| =========                 |                                                 |
| \\      /  F ield         | OpenFOAM: The Open Source CFD Toolbox           |
|  \\    /   O peration     | Version:  2.4.0                                 |
|   \\  /    A nd           | Web:      www.OpenFOAM.org                      |
|    \\/     M anipulation  |                                                 |
\*---------------------------------------------------------------------------*/
FoamFile
{
    version     2.0;
    format      ascii;
    class       volScalarField;
    location    "0.82";
    object      pPrime2Mean;
}
// * * * * * * * * * * * * * * * * * * * * * * * * * * * * * * * * * * * * * //

dimensions      [0 4 -4 0 0 0 0];

internalField   nonuniform List<scalar> 
8800
(
788569
768675
747330
726166
705291
684719
664451
644487
624826
605466
586408
567647
549178
530992
513070
495379
477850
460350
442561
423491
788597
768678
747328
726165
705291
684719
664451
644487
624826
605467
586408
567648
549180
530995
513075
495389
477869
460390
442659
423814
788615
768678
747323
726162
705289
684719
664451
644487
624826
605467
586409
567649
549183
531000
513085
495407
477906
460467
442839
424442
788628
768677
747317
726158
705288
684718
664451
644487
624826
605467
586410
567651
549187
531008
513099
495435
477959
460577
443089
425172
788640
768677
747313
726154
705286
684717
664451
644486
624826
605468
586411
567654
549192
531018
513118
495470
478027
460713
443390
425928
788648
768678
747310
726151
705285
684717
664450
644486
624826
605468
586413
567657
549198
531030
513140
495511
478107
460870
443720
426665
788655
768679
747307
726149
705284
684717
664451
644486
624826
605469
586415
567661
549206
531043
513165
495558
478195
461042
444065
427366
788660
768679
747306
726147
705283
684717
664451
644487
624827
605470
586417
567665
549214
531058
513193
495608
478290
461222
444412
428021
788663
768680
747305
726146
705282
684717
664451
644487
624827
605472
586420
567670
549222
531074
513222
495662
478389
461405
444752
428623
788665
768680
747304
726145
705282
684717
664452
644487
624828
605473
586422
567675
549231
531090
513251
495716
478489
461587
445078
429171
788665
768680
747304
726145
705282
684717
664452
644488
624829
605474
586425
567680
549240
531106
513281
495771
478587
461763
445385
429666
788663
768680
747305
726146
705283
684718
664452
644488
624830
605476
586428
567685
549249
531123
513311
495823
478682
461930
445668
430108
788660
768679
747306
726147
705284
684718
664452
644489
624831
605477
586430
567689
549258
531138
513338
495873
478771
462085
445925
430497
788655
768678
747308
726149
705285
684718
664452
644489
624832
605479
586433
567694
549266
531152
513364
495920
478853
462225
446153
430835
788648
768678
747310
726152
705286
684718
664453
644490
624833
605481
586435
567698
549273
531165
513388
495961
478925
462348
446351
431124
788640
768677
747314
726155
705287
684719
664453
644491
624834
605482
586438
567702
549279
531177
513408
495997
478988
462452
446517
431364
788629
768677
747318
726159
705289
684720
664453
644492
624835
605484
586439
567705
549284
531186
513425
496027
479039
462538
446650
431554
788615
768677
747323
726163
705291
684720
664454
644492
624835
605485
586441
567707
549289
531194
513438
496050
479078
462602
446750
431696
788597
768678
747328
726166
705292
684721
664455
644493
624836
605485
586442
567709
549291
531198
513447
496065
479104
462646
446817
431791
788570
768675
747330
726167
705293
684721
664455
644493
624836
605485
586442
567710
549293
531201
513451
496073
479117
462668
446851
431836
406209
401555
398005
394935
392089
389380
386768
384229
381746
379307
376906
374534
372189
369865
367560
365272
362996
360733
358480
356236
354003
351779
349565
347360
345163
342975
340795
338623
336459
334303
332156
330018
327889
325770
323660
321561
319470
317389
315317
313253
311197
309148
307106
305070
303039
301015
298997
296985
294980
292982
290990
289004
287023
285047
283077
281112
279155
277205
275261
273325
271395
269471
267552
265639
263732
261832
259939
258055
256180
254313
252453
250601
248756
246919
245087
243263
241445
239635
237832
236038
234252
232475
230707
228947
227194
225448
223707
221973
220245
218522
216805
215093
213386
211684
209985
208290
206600
204915
203234
201558
199889
198227
196571
194924
193285
191655
190034
188422
186818
185222
183634
182054
180481
178916
177357
175805
174261
172723
171193
169670
168155
166648
165149
163659
162176
160702
159235
157777
156325
154881
153441
152008
150579
149155
147736
146321
144912
143508
142109
140717
139330
137950
136576
135209
133847
132492
131143
129801
128463
127132
125806
124487
123173
121866
120565
119270
117981
116700
115425
114158
112899
111648
110404
109170
107943
106726
105516
104316
103124
101942
100767
99602.7
98443.9
97296.9
96152.9
95023.6
93892.2
92779.9
91661.3
90562.4
89458.6
88371.2
87280.2
86201.1
85119
84043.8
82964.3
81888.3
80804.1
79719.2
78620.9
77514.1
76385.7
75237.5
74052.7
72828.8
71538.9
70159.8
68659.7
66859.7
409524
404566
400523
397041
393891
390946
388143
385445
382827
380272
377769
375309
372884
370491
368124
365779
363454
361145
358852
356572
354306
352052
349811
347582
345363
343155
340958
338769
336591
334422
332264
330115
327976
325848
323730
321622
319525
317436
315358
313288
311226
309172
307125
305085
303051
301024
299003
296990
294983
292982
290988
289001
287019
285043
283073
281109
279152
277202
275259
273322
271393
269469
267551
265639
263734
261835
259943
258060
256184
254317
252458
250606
248760
246922
245091
243267
241450
239640
237837
236044
234258
232483
230715
228956
227203
225457
223718
221984
220256
218533
216816
215104
213397
211693
209994
208299
206609
204924
203245
201570
199903
198242
196588
194943
193305
191676
190056
188444
186840
185244
183656
182075
180501
178934
177374
175822
174276
172738
171208
169686
168172
166666
165168
163679
162196
160724
159258
157801
156349
154906
153466
152033
150603
149179
147759
146345
144935
143531
142132
140740
139353
137973
136599
135232
133870
132514
131165
129821
128483
127150
125825
124505
123191
121883
120581
119285
117996
116713
115436
114167
112904
111650
110403
109165
107934
106712
105497
104291
103092
101902
100719
99544.6
98374.7
97216.5
96058.9
94916.4
93770.1
92640.7
91507
90387.6
89266
88155.5
87043.4
85937.6
84830.7
83725.4
82616.1
81504.9
80385.8
79258.4
78117.4
76958.1
75774.2
74557.4
73298.3
71974.4
70588.9
69033.9
67382.3
65458.6
411824
406905
402673
398945
395568
392429
389459
386617
383874
381210
378610
376065
373565
371104
368676
366276
363902
361550
359217
356902
354604
352321
350054
347800
345560
343333
341117
338914
336721
334540
332369
330210
328062
325925
323799
321683
319578
317483
315397
313321
311254
309195
307143
305099
303062
301032
299009
296993
294983
292981
290986
288997
287014
285038
283068
281105
279148
277198
275255
273319
271390
269467
267550
265640
263736
261839
259948
258066
256191
254323
252464
250612
248766
246928
245097
243272
241455
239645
237843
236050
234266
232491
230724
228965
227214
225468
223729
221995
220268
218546
216829
215117
213409
211705
210006
208311
206622
204938
203259
201587
199921
198262
196610
194966
193330
191702
190083
188471
186868
185271
183682
182100
180525
178956
177396
175842
174296
172758
171228
169706
168192
166688
165190
163702
162221
160749
159285
157828
156377
154933
153493
152059
150629
149204
147784
146369
144958
143554
142155
140762
139376
137996
136622
135254
133892
132536
131186
129841
128502
127169
125843
124523
123209
121901
120598
119301
118010
116725
115446
114174
112909
111652
110402
109161
107926
106699
105479
104267
103062
101864
100671
99487.1
98305.8
97136
95965.6
94807.9
93649.2
92501.3
91353.7
90213.9
89075.3
87941.1
86808.7
85676.4
84545.4
83410.1
82273.5
81127.2
79976.7
78808.1
77628.3
76418.8
75188.5
73904.5
72595.9
71176.1
69737
68085.9
66360.3
64466.2
413575
408786
404502
400637
397101
393809
390699
387731
384876
382111
379422
376796
374224
371698
369212
366760
364339
361944
359573
357223
354894
352583
350290
348014
345753
343506
341274
339055
336848
334654
332473
330303
328146
326000
323866
321743
319630
317529
315437
313355
311282
309217
307162
305113
303073
301040
299014
296995
294984
292980
290983
288993
287010
285034
283064
281101
279144
277195
275252
273317
271388
269466
267551
265642
263739
261843
259954
258073
256198
254331
252472
250619
248774
246935
245104
243279
241461
239651
237850
236057
234274
232499
230734
228975
227224
225480
223741
222008
220281
218560
216843
215130
213422
211718
210020
208326
206637
204954
203278
201607
199944
198287
196637
194995
193361
191734
190115
188504
186900
185303
183713
182129
180552
178982
177420
175865
174318
172780
171250
169728
168216
166711
165215
163728
162248
160777
159313
157857
156406
154961
153521
152085
150655
149229
147808
146392
144981
143575
142176
140783
139397
138017
136643
135275
133913
132557
131207
129861
128522
127189
125863
124542
123228
121919
120616
119316
118024
116736
115454
114180
112913
111652
110400
109154
107916
106684
105460
104242
103030
101824
100623
99429.4
98237.6
97054.9
95873.5
94700.3
93529.9
92364.8
91202.8
90043.4
88887.5
87730.7
86577.6
85419.5
84265.3
83100.5
81938.8
80757.8
79579.8
78369.4
77161.1
75897.3
74639.8
73285.9
71946.9
70454.3
68963
67297.5
65560.3
63729.1
414983
410326
406054
402124
398486
395078
391855
388779
385824
382969
380198
377498
374858
372271
369730
367228
364761
362326
359918
357535
355176
352838
350521
348222
345941
343676
341427
339193
336974
334768
332575
330396
328229
326075
323932
321802
319682
317574
315476
313388
311310
309241
307180
305128
303084
301048
299020
296999
294986
292980
290982
288991
287007
285030
283061
281098
279142
277193
275251
273316
271388
269467
267553
265645
263743
261849
259961
258081
256207
254341
252481
250628
248782
246943
245111
243285
241467
239658
237856
236064
234282
232508
230743
228985
227235
225491
223753
222021
220295
218574
216858
215145
213437
211734
210036
208342
206655
204974
203299
201631
199970
198315
196668
195028
193395
191769
190151
188539
186935
185337
183746
182160
180582
179010
177447
175891
174343
172804
171274
169752
168240
166736
165241
163753
162275
160803
159341
157884
156434
154987
153547
152110
150679
149251
147829
146412
145001
143594
142195
140801
139415
138034
136661
135293
133932
132575
131225
129879
128541
127207
125882
124560
123246
121936
120632
119330
118036
116744
115460
114182
112913
111649
110393
109144
107903
106667
105437
104214
102996
101783
100574
99370.6
98170
96974.6
95783
94595.6
93413
92231.5
91055.3
89876.4
88703.7
87523.5
86352.2
85166.9
83993.8
82797
81615.9
80398
79200
77945.6
76715.5
75403.4
74116.8
72717.2
71335.6
69819
68281.1
66639.6
64925.5
63147.7
416168
411624
407385
403428
399724
396233
392919
389754
386713
383778
380933
378165
375464
372820
370227
367678
365169
362694
360252
357838
355450
353086
350745
348425
346124
343842
341577
339329
337097
334879
332676
330487
328311
326149
323999
321861
319735
317620
315516
313422
311339
309265
307200
305145
303098
301059
299028
297005
294990
292983
290984
288992
287007
285030
283060
281097
279142
277194
275252
273318
271391
269470
267557
265650
263750
261857
259970
258090
256217
254351
252491
250637
248790
246950
245117
243291
241472
239662
237861
236070
234288
232514
230750
228993
227244
225501
223764
222033
220309
218589
216873
215161
213454
211751
210054
208361
206675
204995
203323
201657
199998
198346
196701
195062
193430
191805
190187
188575
186970
185371
183778
182191
180612
179039
177474
175917
174368
172828
171298
169776
168264
166759
165264
163777
162298
160827
159365
157908
156457
155010
153568
152130
150698
149270
147847
146428
145016
143609
142209
140813
139427
138046
136674
135306
133946
132589
131240
129894
128556
127223
125898
124574
123261
121949
120643
119340
118044
116749
115462
114181
112909
111641
110383
109129
107885
106644
105411
104182
102959
101738
100524
99309.5
98101.9
96894.2
95693.8
94491.9
93299.1
92099.5
90911.3
89711.1
88524.1
87319.9
86132.6
84921.2
83730
82506.3
81304.3
80057.9
78834.4
77551.1
76287.8
74949.3
73622.4
72204.3
70781.9
69267
67709.3
66091
64403.9
62665.2
417189
412737
408535
404569
400824
397273
393890
390653
387540
384536
381625
378796
376037
373342
370701
368108
365559
363048
360573
358129
355714
353326
350962
348622
346303
344004
341724
339462
337217
334989
332775
330577
328392
326222
324064
321920
319787
317666
315557
313458
311369
309291
307222
305163
303113
301071
299038
297013
294997
292988
290988
288995
287010
285033
283063
281100
279145
277197
275256
273322
271396
269476
267563
265657
263757
261865
259979
258099
256226
254359
252499
250644
248796
246955
245120
243293
241475
239665
237864
236073
234291
232519
230755
228999
227250
225509
223773
222044
220321
218603
216888
215178
213471
211769
210072
208380
206695
205017
203346
201682
200026
198376
196732
195095
193464
191839
190221
188609
187004
185403
183809
182220
180639
179065
177500
175942
174393
172852
171321
169798
168285
166779
165283
163795
162317
160846
159383
157926
156474
155027
153584
152145
150712
149282
147858
146439
145026
143617
142216
140820
139434
138053
136681
135315
133955
132599
131250
129904
128566
127232
125907
124583
123269
121955
120649
119343
118046
116747
115458
114174
112898
111627
110367
109109
107862
106616
105379
104145
102918
101689
100468
99246.1
98030.6
96812.8
95602.4
94389
93184.3
91970.2
90767.6
89550.6
88346
87124
85915.6
84686.9
83471.7
82231.6
81003.3
79739.6
78486.2
77186
75890.8
74535.9
73179.3
71751.7
70304.9
68796.8
67235.2
65630.3
63962.2
62252.2
418079
413701
409535
405570
401801
398208
394772
391475
388302
385238
382270
379386
376577
373834
371149
368516
365930
363386
360879
358407
355967
353555
351171
348811
346475
344160
341866
339591
337334
335095
332872
330664
328472
326293
324129
321978
319839
317712
315598
313494
311401
309319
307246
305184
303131
301086
299051
297025
295006
292997
290995
289001
287016
285038
283068
281105
279150
277202
275262
273328
271402
269482
267569
265663
263764
261871
259985
258105
256232
254364
252502
250647
248798
246956
245121
243294
241475
239665
237865
236074
234293
232520
230757
229002
227255
225514
223780
222052
220331
218615
216903
215193
213488
211786
210089
208398
206713
205035
203366
201704
200050
198401
196760
195123
193493
191869
190252
188639
187032
185430
183834
182244
180662
179088
177521
175963
174414
172872
171340
169816
168301
166795
165297
163808
162329
160857
159394
157936
156484
155035
153592
152152
150718
149287
147862
146441
145027
143618
142215
140820
139434
138054
136682
135317
133958
132602
131253
129906
128568
127235
125910
124583
123269
121955
120646
119340
118041
116739
115448
114161
112882
111608
110344
109084
107832
106583
105342
104104
102871
101638
100411
99182.3
97957.6
96731.7
95511
94288.2
93070.6
91845.5
90627.1
89397.2
88173.8
86937.7
85707.3
84465.4
83228.8
81974.8
80724.2
79446.6
78169.2
76854.2
75535.8
74168.6
72791.9
71361.9
69900.5
68396.6
66834.2
65235.6
63582
61895.1
418862
414542
410408
406450
402666
399042
395565
392222
388999
385884
382866
379934
377080
374294
371569
368900
366279
363704
361169
358671
356207
353774
351369
348991
346639
344309
342001
339714
337446
335197
332964
330748
328548
326363
324192
322034
319890
317758
315638
313530
311434
309347
307272
305206
303150
301104
299066
297038
295018
293007
291004
289010
287023
285045
283074
281111
279156
277208
275267
273333
271406
269486
267573
265667
263767
261874
259987
258107
256232
254364
252502
250646
248796
246954
245119
243291
241473
239663
237863
236072
234291
232519
230757
229003
227256
225517
223785
222058
220339
218625
216914
215206
213501
211800
210103
208412
206727
205050
203382
201721
200067
198421
196780
195145
193516
191892
190274
188661
187053
185449
183852
182262
180679
179104
177537
175979
174429
172887
171354
169828
168312
166803
165304
163813
162332
160860
159396
157937
156484
155034
153590
152150
150715
149283
147858
146436
145021
143611
142209
140813
139427
138047
136677
135313
133953
132598
131248
129902
128563
127230
125904
124577
123262
121947
120636
119332
118029
116727
115432
114144
112860
111585
110316
109054
107796
106546
105300
104061
102821
101585
100349
99117.2
97884.2
96652.3
95420.8
94192.1
92960.6
91728.8
90493.1
89254.4
88012.7
86764.5
85515.8
84260.5
83006.8
81742.7
80473.3
79185.2
77887.9
76560.9
75224.8
73849.8
72458.2
71027.7
69553.8
68049.4
66487.6
64893.6
63254.3
61587.3
419550
415278
411172
407222
403429
399784
396276
392895
389631
386473
383412
380439
377544
374720
371959
369256
366605
364001
361440
358918
356432
353978
351556
349161
346793
344450
342129
339831
337552
335293
333052
330828
328621
326429
324252
322089
319939
317803
315679
313566
311466
309376
307298
305229
303171
301122
299082
297052
295030
293018
291014
289018
287031
285051
283080
281116
279160
277211
275270
273336
271408
269488
267574
265667
263766
261872
259985
258103
256228
254359
252497
250640
248790
246948
245113
243286
241467
239657
237857
236066
234285
232514
230752
228999
227254
225516
223786
222061
220344
218632
216922
215215
213510
211809
210112
208420
206736
205059
203391
201730
200078
198432
196792
195157
193529
191905
190286
188672
187063
185459
183861
182270
180687
179112
177545
175987
174437
172895
171361
169835
168316
166806
165304
163810
162327
160853
159388
157929
156475
155025
153580
152139
150704
149272
147846
146425
145009
143600
142197
140802
139415
138036
136665
135301
133942
132586
131237
129889
128551
127218
125890
124564
123247
121933
120619
119319
118011
116711
115411
114126
112833
111562
110283
109023
107757
106507
105253
104017
102767
101532
100286
99052.2
97809.7
96575.8
95333.7
94102.4
92856.8
91622.2
90370.2
89125.5
87867.4
86606.8
85345.1
84080
82812.4
81539.8
80252.5
78955
77641.2
76304.3
74953.9
73574.6
72167.8
70734.7
69250.4
67742.7
66184.7
64597
62972.3
61323.2
420155
415922
411839
407899
404101
400440
396907
393496
390198
387005
383908
380898
377968
375110
372318
369585
366906
364276
361691
359147
356640
354169
351729
349319
346937
344581
342249
339940
337652
335384
333135
330904
328689
326491
324308
322140
319986
317845
315717
313601
311497
309405
307323
305252
303191
301139
299098
297065
295042
293028
291022
289025
287037
285056
283084
281119
279162
277212
275270
273335
271407
269485
267571
265662
263761
261866
259978
258095
256220
254350
252487
250630
248780
246938
245103
243277
241458
239649
237848
236057
234276
232505
230743
228991
227247
225511
223783
222061
220346
218634
216925
215217
213512
211810
210113
208420
206736
205059
203391
201730
200078
198433
196794
195159
193531
191906
190287
188672
187063
185458
183860
182269
180686
179111
177545
175987
174437
172895
171360
169833
168314
166800
165296
163800
162314
160838
159372
157912
156457
155007
153562
152121
150686
149254
147829
146408
144993
143585
142182
140787
139400
138020
136649
135282
133924
132566
131218
129869
128531
127200
125867
124546
123225
121915
120600
119302
117988
116692
115387
114106
112806
111537
110249
108990
107714
106467
105205
103972
102710
101477
100221
98990.4
97738.6
96502.4
95251.4
94020.1
92761.6
91524.4
90259.8
89008.4
87738.6
86465.3
85195.9
83921.3
82639.7
81366.3
80059.5
78756
77425.8
76082.1
74717.6
73334.1
71912.7
70472.8
68983.2
67473.6
65921.6
64342
62731.3
61098.2
420684
416482
412420
408488
404688
401015
397463
394028
390703
387480
384352
381311
378351
375464
372643
369884
367180
364527
361920
359356
356832
354343
351888
349464
347070
344702
342359
340040
337743
335467
333211
330973
328753
326549
324361
322188
320030
317885
315753
313634
311527
309431
307347
305273
303210
301156
299112
297078
295052
293036
291029
289031
287041
285059
283085
281119
279160
277210
275267
273330
271401
269479
267563
265654
263752
261856
259967
258084
256208
254338
252475
250618
248769
246927
245093
243267
241449
239639
237838
236046
234265
232493
230731
228979
227237
225502
223776
222056
220341
218629
216921
215212
213506
211803
210106
208412
206728
205050
203382
201720
200068
198423
196785
195150
193521
191896
190276
188661
187052
185448
183852
182261
180678
179103
177537
175979
174430
172887
171353
169824
168304
166789
165282
163784
162296
160818
159349
157887
156432
154981
153537
152095
150661
149231
147807
146387
144973
143565
142162
140767
139379
137999
136626
135258
133900
132540
131192
129842
128506
127173
125839
124521
123200
121894
120579
119282
117966
116671
115365
114083
112779
111508
110215
108955
107674
106425
105160
103924
102658
101421
100161
98926
97668.7
96431.6
95173.8
93941.5
92674.3
91432.5
90158.7
88902.2
87623.6
86343
85064.2
83780.9
82492
81208.7
79887.6
78581.1
77237
75888.6
74513.6
73120.5
71687.7
70241.3
68749.9
67241.9
65696.4
64125.1
62527.4
60908.5
421145
416968
412922
408998
405197
401515
397948
394494
391146
387898
384745
381678
378692
375780
372935
370152
367426
364752
362127
359545
357004
354501
352032
349596
347189
344811
342459
340132
337827
335544
333281
331037
328811
326603
324410
322233
320070
317922
315787
313664
311554
309456
307369
305292
303226
301170
299124
297087
295060
293042
291033
289033
287041
285058
283082
281115
279156
277204
275260
273322
271392
269469
267552
265642
263740
261844
259954
258071
256194
254325
252461
250605
248756
246915
245081
243256
241438
239628
237827
236035
234252
232479
230717
228965
227223
225489
223764
222045
220330
218618
216908
215197
213492
211788
210090
208395
206712
205034
203365
201702
200050
198404
196766
195131
193502
191876
190257
188642
187034
185431
183835
182245
180664
179088
177523
175964
174415
172872
171338
169808
168287
166770
165263
163763
162274
160792
159322
157857
156401
154950
153505
152064
150631
149202
147779
146360
144948
143539
142137
140742
139353
137973
136599
135230
133870
132510
131161
129809
128474
127142
125809
124492
123176
121869
120554
119258
117944
116647
115345
114060
112753
111476
110183
108917
107633
106377
105113
103874
102604
101369
100105
98866
97603.2
96359.8
95097
93860.8
92589.3
91343.3
90065.9
88804.3
87520.1
86233.6
84948.2
83659.3
82359.5
81064.8
79740.4
78424.7
77073.4
75717.3
74335.5
72931.5
71492
70042.1
68551
67045.9
65506
63943.1
62356.7
60750.4
421540
417384
413352
409434
405632
401943
398365
394895
391529
388262
385087
381999
378991
376057
373191
370388
367643
364952
362309
359712
357157
354640
352160
349712
347296
344909
342549
340213
337902
335612
333344
331094
328864
326650
324454
322273
320107
317955
315816
313691
311578
309477
307387
305308
303240
301181
299133
297094
295065
293045
291034
289032
287039
285054
283077
281108
279148
277195
275249
273311
271380
269456
267539
265629
263726
261830
259940
258057
256180
254311
252448
250592
248743
246903
245070
243245
241427
239617
237815
236022
234238
232465
230702
228949
227206
225473
223747
222028
220312
218598
216887
215176
213470
211765
210066
208372
206689
205010
203340
201677
200026
198379
196741
195105
193477
191850
190232
188617
187011
185408
183814
182225
180643
179068
177502
175943
174395
172851
171317
169786
168265
166747
165239
163737
162247
160763
159291
157824
156367
154915
153471
152031
150599
149170
147749
146330
144918
143509
142108
140712
139324
137942
136567
135198
133837
132477
131127
129775
128442
127105
125778
124461
123150
121842
120529
119231
117921
116618
115324
114033
112725
111445
110151
108868
107588
106327
105064
103819
102552
101311
100051
98808.9
97538.3
96284.7
95023.1
93778.4
92506.9
91258
89977.1
88711.9
87425.7
86136.1
84845.9
83551.3
82244.6
80940.9
79612.2
78282.9
76932.6
75564.5
74180.2
72767.9
71326.2
69874.8
68385.2
66882.3
65347.1
63792.3
62215.5
60620.1
421876
417736
413713
409799
405997
402303
398716
395235
391855
388572
385380
382274
379248
376295
373412
370592
367831
365124
362467
359857
357289
354762
352271
349814
347389
344994
342627
340285
337967
335672
333398
331144
328909
326692
324492
322307
320138
317983
315842
313713
311598
309494
307402
305321
303250
301189
299139
297098
295067
293045
291032
289028
287033
285047
283069
281100
279138
277184
275238
273299
271368
269443
267526
265616
263712
261816
259926
258043
256166
254297
252434
250579
248731
246891
245059
243234
241416
239606
237803
236009
234225
232450
230685
228931
227187
225453
223726
222005
220287
218572
216859
215149
213442
211738
210038
208345
206660
204981
203311
201649
199998
198351
196713
195078
193449
191823
190205
188591
186985
185383
183789
182200
180619
179044
177477
175918
174369
172826
171291
169760
168237
166719
165211
163708
162217
160732
159259
157791
156332
154879
153435
151996
150564
149136
147715
146297
144887
143478
142078
140681
139293
137909
136535
135165
133802
132443
131092
129743
128407
127071
125749
124430
123122
121810
120503
119201
117896
116592
115299
113997
112699
111405
110112
108821
107547
106283
105018
103764
102499
101247
99995.7
98743.6
97475.6
96212.4
94956.8
93698.7
92432
91176.3
89896.6
88625.4
87341
86051.4
84760.7
83460.6
82143.3
80832.5
79499.5
78160.6
76809.8
75432
74049.7
72631.5
71190.2
69737.8
68249.6
66748.3
65217.8
63669.6
62100.3
60514.4
422155
418028
414010
410098
406294
402597
399004
395514
392124
388828
385623
382503
379461
376495
373597
370763
367988
365268
362600
359978
357401
354864
352364
349900
347468
345066
342692
340345
338022
335723
333444
331186
328948
326727
324523
322336
320163
318006
315862
313731
311613
309507
307413
305329
303257
301194
299141
297099
295066
293042
291028
289023
287027
285039
283060
281090
279128
277174
275227
273288
271356
269431
267513
265603
263699
261802
259912
258029
256153
254284
252421
250567
248719
246879
245048
243223
241406
239595
237791
235997
234211
232436
230670
228914
227168
225432
223702
221980
220259
218542
216828
215118
213411
211707
210008
208316
206630
204951
203281
201621
199969
198323
196685
195050
193421
191797
190177
188564
186957
185357
183762
182174
180591
179017
177450
175892
174341
172799
171263
169733
168209
166692
165183
163680
162188
160704
159228
157760
156300
154847
153401
151962
150529
149102
147680
146265
144854
143448
142047
140651
139262
137878
136503
135133
133770
132410
131059
129714
128377
127045
125722
124401
123092
121779
120476
119168
117868
116562
115272
113962
112663
111356
110074
108779
107508
106241
104973
103709
102448
101191
99941.5
98674.3
97420
96152.3
94893.8
93629.9
92367.7
91100.6
89826.3
88548.4
87267.3
85978.2
84685.4
83378.7
82058.8
80743.1
79401.3
78056.7
76706
75325.2
73940.9
72522
71082.5
69628.3
68141.4
66641.2
65114.9
63571.3
62007.8
60430.2
422377
418259
414244
410333
406528
402829
399232
395736
392338
389033
385817
382685
379633
376654
373745
370900
368114
365385
362707
360076
357491
354946
352440
349969
347531
345124
342745
340394
338067
335763
333481
331220
328978
326754
324548
322358
320183
318023
315877
313744
311624
309517
307420
305335
303261
301196
299142
297098
295064
293039
291023
289017
287020
285032
283053
281082
279119
277164
275217
273278
271346
269421
267503
265592
263688
261791
259900
258017
256141
254272
252410
250555
248708
246869
245037
243213
241396
239585
237781
235986
234200
232423
230656
228899
227150
225412
223679
221954
220231
218514
216798
215089
213380
211678
209979
208288
206601
204924
203254
201595
199942
198298
196658
195025
193395
191771
190151
188539
186932
185332
183736
182149
180565
178991
177423
175865
174313
172772
171235
169706
168182
166666
165156
163655
162163
160679
159202
157734
156271
154818
153370
151931
150496
149070
147647
146233
144822
143418
142016
140622
139232
137849
136473
135103
133739
132381
131031
129689
128352
127019
125698
124373
123060
121747
120445
119133
117836
116529
115235
113918
112625
111322
110046
108740
107473
106195
104927
103660
102402
101137
99886
98616.6
97366.8
96093.8
94839
93574.3
92311.7
91038
89768.4
88482.5
87204.2
85912.4
84624.6
83308
81990.6
80665.4
79323.9
77976.2
76622.2
75241.1
73855.5
72439.6
71000.2
69544.2
68058.2
66558.2
65034.8
63494.5
61936.3
60364.6
422543
418431
414417
410506
406702
403001
399401
395901
392497
389186
385962
382822
379761
376774
373856
371002
368209
365472
362787
360150
357558
355008
352497
350021
347579
345167
342785
340430
338100
335793
333508
331245
329000
326774
324566
322374
320197
318036
315888
313754
311632
309523
307425
305339
303263
301198
299143
297098
295062
293037
291020
289014
287016
285027
283047
281076
279113
277157
275210
273270
271337
269412
267494
265583
263679
261781
259891
258007
256131
254262
252400
250546
248699
246860
245029
243204
241387
239576
237772
235977
234190
232414
230646
228886
227136
225395
223659
221931
220206
218489
216773
215065
213355
211655
209955
208266
206578
204903
203232
201574
199919
198276
196635
195004
193372
191750
190129
188519
186910
185311
183715
182128
180543
178970
177400
175842
174289
172749
171211
169684
168160
166647
165136
163637
162143
160660
159182
157714
156250
154797
153346
151905
150467
149041
147617
146204
144793
143391
141990
140597
139207
137825
136447
135079
133714
132359
131008
129668
128328
126997
125671
124345
123030
121715
120412
119098
117802
116493
115198
113887
112598
111288
110013
108706
107441
106153
104891
103618
102361
101094
99842
98570.6
97319.9
96047.1
94796.2
93527.1
92267.1
90990.7
89722.4
88431.8
87157
85860.7
84571.5
83249.7
81941.3
80603.9
79265.4
77914.2
76558.9
75184.1
73793.7
72381.9
70940.4
69484.2
67997.6
66497.7
64976.6
63438.6
61883.8
60316
422649
418541
414532
410622
406818
403116
399514
396011
392604
389287
386059
382913
379847
376854
373930
371071
368273
365531
362841
360200
357604
355050
352535
350056
347610
345196
342811
340454
338121
335813
333526
331261
329015
326787
324577
322384
320206
318043
315895
313759
311637
309527
307428
305341
303265
301199
299143
297097
295061
293035
291019
289011
287013
285024
283044
281072
279108
277153
275205
273265
271332
269406
267488
265576
263671
261774
259883
258000
256123
254254
252392
250538
248691
246853
245021
243197
241379
239569
237765
235970
234184
232407
230637
228877
227126
225382
223643
221913
220186
218470
216754
215046
213336
211637
209937
208249
206561
204888
203216
201559
199902