/*--------------------------------*- C++ -*----------------------------------*\
| =========                 |                                                 |
| \\      /  F ield         | OpenFOAM: The Open Source CFD Toolbox           |
|  \\    /   O peration     | Version:  2.4.0                                 |
|   \\  /    A nd           | Web:      www.OpenFOAM.org                      |
|    \\/     M anipulation  |                                                 |
\*---------------------------------------------------------------------------*/
FoamFile
{
    version     2.0;
    format      ascii;
    class       volVectorField;
    location    "90";
    object      U;
}
// * * * * * * * * * * * * * * * * * * * * * * * * * * * * * * * * * * * * * //

dimensions      [0 1 -1 0 0 0 0];

internalField   nonuniform List<vector> 
4400
(
(0.0977416 -0.00039598 0)
(0.0934616 0.000828418 0)
(0.093511 0.000279064 0)
(0.0945079 -0.0011362 0)
(0.115678 -0.00115032 0)
(0.0956843 0.00208529 0)
(0.0963859 0.000468872 0)
(0.0909134 -0.00144279 0)
(0.099673 0.00144391 0)
(0.0964474 -0.00172157 0)
(0.109907 0.000519368 0)
(0.0837325 0.001772 0)
(0.107154 -0.0020475 0)
(0.0892571 0.00126372 0)
(0.108778 -0.000466003 0)
(0.094268 -0.000802173 0)
(0.10808 0.00116572 0)
(0.0947885 -0.00142878 0)
(0.11214 0.00354811 0)
(0.0805267 -0.0043854 0)
(0.279825 -0.000683633 0)
(0.263173 0.00241953 0)
(0.281816 0.000275476 0)
(0.267908 -0.0036649 0)
(0.306491 -0.00338098 0)
(0.255891 0.00668364 0)
(0.295108 0.00086752 0)
(0.252223 -0.00434358 0)
(0.291047 0.00443594 0)
(0.271951 -0.00596128 0)
(0.292019 0.00227266 0)
(0.254574 0.00474683 0)
(0.301299 -0.0064716 0)
(0.248951 0.00353342 0)
(0.313779 -0.00157989 0)
(0.256211 -0.0028696 0)
(0.303231 0.00486752 0)
(0.275768 -0.00573608 0)
(0.28254 0.00550428 0)
(0.318397 0.00136597 0)
(0.445354 -0.000437728 0)
(0.415279 0.00384726 0)
(0.453852 -0.000367108 0)
(0.419316 -0.00634749 0)
(0.477261 -0.0047512 0)
(0.397322 0.0114458 0)
(0.478523 0.000139787 0)
(0.397134 -0.00639804 0)
(0.457621 0.00684881 0)
(0.439872 -0.0105427 0)
(0.443965 0.00523958 0)
(0.428754 0.00665404 0)
(0.464866 -0.0107664 0)
(0.403503 0.00614984 0)
(0.48738 -0.00441092 0)
(0.41556 -0.00255412 0)
(0.462608 0.0056081 0)
(0.457813 -0.00645787 0)
(0.421636 0.00359126 0)
(0.516954 0.00148583 0)
(0.588092 -0.000194955 0)
(0.549234 0.00462527 0)
(0.6022 -0.00065552 0)
(0.556585 -0.0086057 0)
(0.6292 -0.00548247 0)
(0.52144 0.0155936 0)
(0.635834 -0.000817002 0)
(0.535029 -0.00656233 0)
(0.583537 0.00703607 0)
(0.607249 -0.0137165 0)
(0.560829 0.00780587 0)
(0.591786 0.00791611 0)
(0.611159 -0.0128 0)
(0.537859 0.00827102 0)
(0.641504 -0.00714033 0)
(0.55702 -0.00134004 0)
(0.597078 0.00492165 0)
(0.621033 -0.00542972 0)
(0.542404 0.00093049 0)
(0.676651 0.00115834 0)
(0.709618 0.000640653 0)
(0.664605 0.00505427 0)
(0.722567 -0.00177963 0)
(0.670625 -0.0121354 0)
(0.762997 -0.00487181 0)
(0.633824 0.0202103 0)
(0.757409 -0.00442328 0)
(0.675506 -0.00231062 0)
(0.669607 0.00450627 0)
(0.751357 -0.0177218 0)
(0.662627 0.0125735 0)
(0.708468 0.00440107 0)
(0.746159 -0.0124727 0)
(0.647268 0.011004 0)
(0.765849 -0.0124306 0)
(0.684408 0.00326277 0)
(0.702221 0.00182892 0)
(0.753512 -0.00487319 0)
(0.650726 0.0011284 0)
(0.792304 -0.00444558 0)
(0.811308 0.00168625 0)
(0.763056 0.00571187 0)
(0.822088 -0.00212765 0)
(0.759746 -0.017159 0)
(0.865799 -0.00556014 0)
(0.739932 0.027079 0)
(0.841204 -0.0118658 0)
(0.803502 0.00441089 0)
(0.746551 0.00392097 0)
(0.855689 -0.0249985 0)
(0.760773 0.0208417 0)
(0.788599 -0.00195959 0)
(0.848458 -0.0137708 0)
(0.740069 0.0155167 0)
(0.85457 -0.0201551 0)
(0.789403 0.00879401 0)
(0.789582 -0.000777834 0)
(0.851341 -0.00539169 0)
(0.747308 0.00358756 0)
(0.874577 -0.0124261 0)
(0.892119 0.00269694 0)
(0.844497 0.00623883 0)
(0.901755 -0.00148473 0)
(0.836269 -0.021367 0)
(0.935929 -0.00827132 0)
(0.83374 0.035652 0)
(0.900722 -0.0208145 0)
(0.899231 0.010167 0)
(0.822834 0.00612828 0)
(0.929561 -0.033951 0)
(0.8474 0.0309245 0)
(0.855933 -0.00770301 0)
(0.921002 -0.0160096 0)
(0.818857 0.0211541 0)
(0.917881 -0.0284866 0)
(0.867287 0.0135778 0)
(0.86269 -0.00232613 0)
(0.920008 -0.00732529 0)
(0.829903 0.00759862 0)
(0.935176 -0.0201402 0)
(0.950845 0.00355945 0)
(0.90946 0.00651845 0)
(0.958785 -0.000522158 0)
(0.902322 -0.0239962 0)
(0.980547 -0.0118589 0)
(0.908215 0.0440185 0)
(0.94583 -0.0289611 0)
(0.961913 0.0142799 0)
(0.890089 0.00924645 0)
(0.97852 -0.0427483 0)
(0.914609 0.0407161 0)
(0.914176 -0.0118884 0)
(0.969946 -0.0181825 0)
(0.884555 0.0267637 0)
(0.963311 -0.0354746 0)
(0.921339 0.0172261 0)
(0.92131 -0.00288486 0)
(0.962687 -0.00983274 0)
(0.895543 0.0114801 0)
(0.9758 -0.0263208 0)
(0.98741 0.00420455 0)
(0.957537 0.00663333 0)
(0.993109 0.000266943 0)
(0.953808 -0.0253918 0)
(1.00432 -0.0149827 0)
(0.960913 0.0506047 0)
(0.977609 -0.0349683 0)
(0.996159 0.0170165 0)
(0.943363 0.0123146 0)
(1.00398 -0.0497168 0)
(0.95985 0.0488494 0)
(0.958744 -0.0148151 0)
(0.99588 -0.0194209 0)
(0.935455 0.0310458 0)
(0.991674 -0.0398187 0)
(0.954849 0.0196827 0)
(0.964881 -0.0027696 0)
(0.982579 -0.0117119 0)
(0.94374 0.0141026 0)
(0.996481 -0.029931 0)
(1.00273 0.00454823 0)
(0.987396 0.00665775 0)
(1.00608 0.000764091 0)
(0.987191 -0.0259711 0)
(1.00869 -0.0167332 0)
(0.991817 0.0543661 0)
(0.994143 -0.0379474 0)
(1.00516 0.0185984 0)
(0.980455 0.0144669 0)
(1.00716 -0.0534963 0)
(0.983916 0.0541402 0)
(0.986199 -0.0163507 0)
(0.999604 -0.0193285 0)
(0.969913 0.0328887 0)
(1.00136 -0.0408937 0)
(0.970041 0.0206561 0)
(0.99153 -0.00223975 0)
(0.982738 -0.0124935 0)
(0.974802 0.0148662 0)
(0.998147 -0.030448 0)
(0.998178 0.00455717 0)
(0.997469 0.00657355 0)
(0.999037 0.00102781 0)
(1.00039 -0.0260176 0)
(0.993702 -0.0166249 0)
(1.00154 0.0546117 0)
(0.992975 -0.0375146 0)
(0.991238 0.0191117 0)
(0.999489 0.0148104 0)
(0.988972 -0.0531302 0)
(0.988713 0.0555108 0)
(0.994354 -0.01637 0)
(0.98306 -0.0178104 0)
(0.987195 0.0317285 0)
(0.991158 -0.0387436 0)
(0.96909 0.0199813 0)
(0.998734 -0.00157141 0)
(0.966063 -0.012007 0)
(0.988266 0.0137231 0)
(0.981585 -0.0280778 0)
(0.975292 0.0042148 0)
(0.986124 0.0064018 0)
(0.973061 0.000990694 0)
(0.991994 -0.0254684 0)
(0.95894 -0.0146916 0)
(0.990975 0.0513276 0)
(0.971317 -0.0338693 0)
(0.957012 0.0184203 0)
(0.998627 0.0131755 0)
(0.950291 -0.0485954 0)
(0.97631 0.0524935 0)
(0.981592 -0.0149938 0)
(0.948886 -0.0151818 0)
(0.986276 0.0279355 0)
(0.96069 -0.0340373 0)
(0.953609 0.0177248 0)
(0.984066 -0.000735906 0)
(0.935333 -0.0105774 0)
(0.982256 0.0111711 0)
(0.948031 -0.023934 0)
(0.935531 0.00346644 0)
(0.951422 0.00629514 0)
(0.92949 0.000531172 0)
(0.960376 -0.0240077 0)
(0.904103 -0.011476 0)
(0.961029 0.0451784 0)
(0.926178 -0.0275166 0)
(0.906547 0.0162841 0)
(0.976145 0.0100775 0)
(0.892548 -0.0410355 0)
(0.948888 0.0454354 0)
(0.946155 -0.0121698 0)
(0.899937 -0.0124901 0)
(0.965064 0.0225289 0)
(0.910336 -0.0275836 0)
(0.923555 0.0142483 0)
(0.94606 0.000402857 0)
(0.892642 -0.00893558 0)
(0.954417 0.00799032 0)
(0.899996 -0.0192473 0)
(0.879427 0.00234936 0)
(0.891561 0.00635127 0)
(0.87013 -0.000410589 0)
(0.902612 -0.0212071 0)
(0.830512 -0.00797594 0)
(0.911741 0.0372508 0)
(0.855616 -0.019296 0)
(0.846497 0.0121128 0)
(0.930052 0.00660986 0)
(0.818273 -0.0320911 0)
(0.908079 0.0353995 0)
(0.885694 -0.00808996 0)
(0.838981 -0.0103641 0)
(0.920404 0.0167173 0)
(0.841323 -0.0203133 0)
(0.877868 0.0100175 0)
(0.885504 0.00191728 0)
(0.839138 -0.00759348 0)
(0.904035 0.00498551 0)
(0.839974 -0.0148868 0)
(0.805231 0.0010934 0)
(0.806932 0.00642202 0)
(0.79526 -0.00164356 0)
(0.814925 -0.0167664 0)
(0.744109 -0.00545327 0)
(0.84095 0.0291409 0)
(0.762667 -0.0107641 0)
(0.783712 0.00552747 0)
(0.855615 0.00422921 0)
(0.731966 -0.0235713 0)
(0.850668 0.0242173 0)
(0.79718 -0.00281008 0)
(0.768296 -0.00931625 0)
(0.848821 0.0116636 0)
(0.757006 -0.0133742 0)
(0.815687 0.00525823 0)
(0.804887 0.00344714 0)
(0.774063 -0.00692843 0)
(0.830541 0.00261858 0)
(0.766717 -0.0112143 0)
(0.70925 -1.16444e-05 0)
(0.700945 0.0062176 0)
(0.699957 -0.0021947 0)
(0.700071 -0.0115739 0)
(0.65352 -0.00526798 0)
(0.742844 0.0223071 0)
(0.65837 -0.00437102 0)
(0.711659 -0.00178122 0)
(0.744689 0.00447655 0)
(0.638642 -0.0172929 0)
(0.762775 0.0147682 0)
(0.682536 0.00303055 0)
(0.687675 -0.00989945 0)
(0.746859 0.00822634 0)
(0.662034 -0.00815359 0)
(0.731017 0.000722823 0)
(0.703347 0.00475485 0)
(0.690604 -0.00671201 0)
(0.729436 0.00131451 0)
(0.674427 -0.00806507 0)
(0.587938 -0.000693394 0)
(0.576638 0.00594267 0)
(0.581222 -0.00166702 0)
(0.571655 -0.00792404 0)
(0.552425 -0.00636107 0)
(0.612328 0.0173051 0)
(0.549316 -0.00148689 0)
(0.605025 -0.00582731 0)
(0.600861 0.00648766 0)
(0.536902 -0.013591 0)
(0.631857 0.00912048 0)
(0.556363 0.00671929 0)
(0.586925 -0.010987 0)
(0.612146 0.0066195 0)
(0.554058 -0.00506832 0)
(0.610695 -0.00185545 0)
(0.577993 0.00578405 0)
(0.579265 -0.00616232 0)
(0.598728 0.00107769 0)
(0.559634 -0.00563948 0)
(0.441007 -0.000502896 0)
(0.43893 0.00490587 0)
(0.442865 -0.00131871 0)
(0.431977 -0.00556075 0)
(0.421301 -0.00559951 0)
(0.456033 0.0128245 0)
(0.425094 -0.00052157 0)
(0.456819 -0.00566161 0)
(0.445893 0.00639848 0)
(0.414074 -0.0103768 0)
(0.467295 0.00592825 0)
(0.425302 0.00643548 0)
(0.449577 -0.009603 0)
(0.452376 0.00569589 0)
(0.42484 -0.00332036 0)
(0.454868 -0.00213987 0)
(0.434485 0.00532143 0)
(0.439044 -0.00503013 0)
(0.445251 0.00109216 0)
(0.42235 -0.00390327 0)
(0.275611 -0.00035902 0)
(0.284421 0.00299691 0)
(0.283413 -0.000276914 0)
(0.27435 -0.00330211 0)
(0.260766 -0.0038938 0)
(0.284443 0.00730319 0)
(0.277165 0.000484343 0)
(0.285438 -0.00390714 0)
(0.28281 0.00415728 0)
(0.263002 -0.00616232 0)
(0.285847 0.00267529 0)
(0.276358 0.00468679 0)
(0.281715 -0.00594562 0)
(0.280935 0.00350349 0)
(0.27158 -0.00172767 0)
(0.279197 -0.00189349 0)
(0.275066 0.00355175 0)
(0.275141 -0.00305536 0)
(0.276087 0.000781317 0)
(0.264037 -0.00210766 0)
(0.0950696 -0.000115394 0)
(0.104113 0.000955106 0)
(0.1056 2.29476e-05 0)
(0.0994677 -0.00108671 0)
(0.0834918 -0.00129327 0)
(0.0964765 0.00211729 0)
(0.104532 0.000384616 0)
(0.100227 -0.00137745 0)
(0.103211 0.00136063 0)
(0.0917842 -0.00190257 0)
(0.0924892 0.000607054 0)
(0.102657 0.00170467 0)
(0.0988834 -0.00193042 0)
(0.0974321 0.00106376 0)
(0.0975558 -0.000515616 0)
(0.0933282 -0.000789972 0)
(0.096785 0.00122542 0)
(0.0962842 -0.000970071 0)
(0.0948378 0.000298269 0)
(0.0906792 -0.000545745 0)
(0.0902736 0.0213811 0)
(0.266287 0.00315287 0)
(0.129901 -0.0195541 0)
(0.310988 0.00175519 0)
(0.10517 -0.0233682 0)
(0.386493 -0.00454478 0)
(0.191885 0.0113118 0)
(0.31578 -0.0320871 0)
(0.328432 0.0331434 0)
(0.384775 -0.00901622 0)
(0.380761 -0.0373477 0)
(0.494017 -0.00985177 0)
(0.564695 -0.0771514 0)
(0.547029 -0.0812075 0)
(0.584324 -0.0353449 0)
(0.613124 -0.0716529 0)
(0.532136 0.0237326 0)
(0.625189 0.0113985 0)
(0.807504 -0.167781 0)
(0.882944 -0.283789 0)
(0.910273 -0.271771 0)
(0.982411 -0.214145 0)
(0.906387 -0.225374 0)
(0.866744 -0.184418 0)
(0.664371 -0.182645 0)
(0.560347 -0.201666 0)
(0.614554 -0.0857702 0)
(0.590855 0.01288 0)
(0.606719 0.162994 0)
(0.569766 0.388922 0)
(0.477439 0.414759 0)
(0.52274 0.150264 0)
(0.562093 -0.0207003 0)
(0.478881 -0.134444 0)
(0.351215 -0.315696 0)
(0.374736 -0.324121 0)
(0.409592 -0.206709 0)
(0.455032 -0.0382198 0)
(0.607276 0.211037 0)
(0.622437 0.341007 0)
(0.613252 0.29384 0)
(0.61876 0.186316 0)
(0.649217 0.0405495 0)
(0.716883 -0.0856196 0)
(0.674551 -0.0687712 0)
(0.653667 -0.0106606 0)
(0.597405 0.0499138 0)
(0.464519 0.147743 0)
(0.499296 0.11279 0)
(0.549346 0.0235811 0)
(0.494187 -0.0142783 0)
(0.541805 -0.11849 0)
(0.618528 -0.211459 0)
(0.577135 -0.223756 0)
(0.503115 -0.185969 0)
(0.482672 -0.123529 0)
(0.471737 -0.0722707 0)
(0.463388 -0.0133171 0)
(0.49298 0.0716689 0)
(0.547193 0.143795 0)
(0.559432 0.175618 0)
(0.545571 0.159946 0)
(0.535395 0.114696 0)
(0.520705 0.0609938 0)
(0.533427 -0.0154655 0)
(0.542193 -0.100107 0)
(0.515856 -0.14396 0)
(0.497121 -0.131007 0)
(0.47881 -0.0901766 0)
(0.483619 -0.0198047 0)
(0.512856 0.0668168 0)
(0.518146 0.115367 0)
(0.510086 0.0968163 0)
(0.513216 0.0315999 0)
(0.517633 -0.0339662 0)
(0.508618 -0.0604948 0)
(0.502673 -0.0355912 0)
(0.514145 0.0146681 0)
(0.522085 0.0509527 0)
(0.514127 0.0569252 0)
(0.508383 0.0344384 0)
(0.514778 -0.00134582 0)
(0.522815 -0.0269022 0)
(0.525323 -0.0312938 0)
(0.522737 -0.0214948 0)
(0.517099 -0.00925902 0)
(0.510116 -0.00111343 0)
(0.503 0.00213027 0)
(0.496458 0.00227896 0)
(0.490614 0.00124667 0)
(0.485431 0.000153527 0)
(0.480434 -0.000531894 0)
(0.475532 -0.000847188 0)
(0.470029 -0.000851429 0)
(0.464591 -0.000815674 0)
(0.458246 -0.000674515 0)
(0.453108 -0.000677165 0)
(0.446762 -0.000563386 0)
(0.443635 -0.000607691 0)
(0.437774 -0.000499208 0)
(0.220394 0.00566606 0)
(0.418786 -5.06483e-05 0)
(0.277374 -0.0244262 0)
(0.445318 0.00167817 0)
(0.296178 -0.0237445 0)
(0.450133 -0.0171268 0)
(0.389663 0.0152866 0)
(0.429753 -0.0358721 0)
(0.415669 0.020037 0)
(0.54001 -0.0118188 0)
(0.509955 -0.0420918 0)
(0.591451 -0.0304496 0)
(0.688866 -0.0833657 0)
(0.6392 -0.0792191 0)
(0.674749 -0.0420097 0)
(0.733352 -0.0737216 0)
(0.608229 0.0220262 0)
(0.707703 -0.00243346 0)
(0.878208 -0.189131 0)
(0.924094 -0.296026 0)
(0.934254 -0.276961 0)
(0.985491 -0.211396 0)
(0.893053 -0.209935 0)
(0.834568 -0.160625 0)
(0.610712 -0.164258 0)
(0.504274 -0.198385 0)
(0.582935 -0.0824372 0)
(0.556423 0.016368 0)
(0.569767 0.165136 0)
(0.546174 0.395061 0)
(0.465011 0.414625 0)
(0.522825 0.147311 0)
(0.565531 -0.0153177 0)
(0.477739 -0.121571 0)
(0.344657 -0.305952 0)
(0.348576 -0.328686 0)
(0.384072 -0.212297 0)
(0.416366 -0.0477964 0)
(0.566925 0.198731 0)
(0.602504 0.333693 0)
(0.608845 0.290495 0)
(0.632595 0.184047 0)
(0.665452 0.0364901 0)
(0.731987 -0.0875943 0)
(0.688047 -0.0642582 0)
(0.66426 -0.00332596 0)
(0.618751 0.0590987 0)
(0.486608 0.154154 0)
(0.522216 0.110477 0)
(0.565989 0.0229441 0)
(0.510886 -0.0144691 0)
(0.567048 -0.124739 0)
(0.632197 -0.213269 0)
(0.573251 -0.216922 0)
(0.48568 -0.17877 0)
(0.459442 -0.120142 0)
(0.445319 -0.0703869 0)
(0.436622 -0.0139384 0)
(0.465363 0.0668103 0)
(0.521792 0.138587 0)
(0.54333 0.173822 0)
(0.541524 0.160254 0)
(0.540319 0.115921 0)
(0.528702 0.0618579 0)
(0.542502 -0.0157472 0)
(0.549423 -0.0990737 0)
(0.515552 -0.141556 0)
(0.488676 -0.128672 0)
(0.46654 -0.0884253 0)
(0.466861 -0.0206218 0)
(0.495306 0.0645115 0)
(0.506338 0.114138 0)
(0.504228 0.0966411 0)
(0.510999 0.0315062 0)
(0.516047 -0.0337364 0)
(0.505719 -0.0596909 0)
(0.497944 -0.0355506 0)
(0.508045 0.0137352 0)
(0.517475 0.0505583 0)
(0.513377 0.0572679 0)
(0.5116 0.034329 0)
(0.519616 -0.00205571 0)
(0.526778 -0.0274323 0)
(0.52743 -0.0312088 0)
(0.523072 -0.0209331 0)
(0.516241 -0.00849175 0)
(0.508751 -0.000317768 0)
(0.501626 0.00288311 0)
(0.495301 0.00295827 0)
(0.489691 0.0018519 0)
(0.484672 0.000711483 0)
(0.479746 9.40442e-06 0)
(0.47487 -0.000282376 0)
(0.469369 -0.000261794 0)
(0.463975 -0.000187018 0)
(0.457688 -6.56057e-05 0)
(0.452669 -7.2811e-05 0)
(0.446422 -6.66557e-05 0)
(0.443402 -0.000139009 0)
(0.437626 -0.000194953 0)
(0.3749 0.00163081 0)
(0.571483 -0.00435954 0)
(0.449265 -0.0255291 0)
(0.559419 -0.00578225 0)
(0.511089 -0.0186616 0)
(0.535588 -0.0228302 0)
(0.551189 0.0096263 0)
(0.58456 -0.0297445 0)
(0.529113 0.00776903 0)
(0.664854 -0.02478 0)
(0.645852 -0.042384 0)
(0.695781 -0.0465224 0)
(0.78638 -0.090795 0)
(0.728044 -0.0728675 0)
(0.753793 -0.0485626 0)
(0.810086 -0.0763529 0)
(0.682309 0.023105 0)
(0.796138 -0.014672 0)
(0.932703 -0.206154 0)
(0.94701 -0.304196 0)
(0.942661 -0.278518 0)
(0.972259 -0.206086 0)
(0.866505 -0.191733 0)
(0.787339 -0.133194 0)
(0.550586 -0.14507 0)
(0.44429 -0.197786 0)
(0.550404 -0.0810883 0)
(0.520475 0.0196582 0)
(0.529469 0.167143 0)
(0.518804 0.399447 0)
(0.449107 0.411276 0)
(0.520922 0.14296 0)
(0.565709 -0.00971201 0)
(0.475572 -0.10783 0)
(0.336969 -0.29476 0)
(0.32087 -0.331413 0)
(0.356438 -0.216958 0)
(0.375623 -0.0559347 0)
(0.522705 0.185482 0)
(0.57638 0.323636 0)
(0.597404 0.284419 0)
(0.639457 0.179886 0)
(0.675333 0.0317814 0)
(0.739429 -0.0889059 0)
(0.695038 -0.0593108 0)
(0.6694 0.00321622 0)
(0.633934 0.0675874 0)
(0.504554 0.160358 0)
(0.543016 0.108279 0)
(0.578949 0.0229557 0)
(0.525999 -0.0153532 0)
(0.590388 -0.130717 0)
(0.641131 -0.212916 0)
(0.56424 -0.207877 0)
(0.464196 -0.170239 0)
(0.43349 -0.116204 0)
(0.416978 -0.0683246 0)
(0.407812 -0.0144567 0)
(0.435841 0.0618885 0)
(0.493889 0.132693 0)
(0.523565 0.170644 0)
(0.533372 0.15911 0)
(0.54123 0.116351 0)
(0.533046 0.06237 0)
(0.548312 -0.0160436 0)
(0.553291 -0.0974494 0)
(0.512058 -0.138098 0)
(0.477146 -0.125544 0)
(0.451402 -0.0861551 0)
(0.447724 -0.021064 0)
(0.475197 0.0619703 0)
(0.491415 0.112173 0)
(0.495048 0.0957592 0)
(0.505696 0.0310659 0)
(0.511529 -0.0334324 0)
(0.499777 -0.0586206 0)
(0.490266 -0.0352675 0)
(0.499082 0.0128095 0)
(0.509706 0.0498389 0)
(0.509274 0.057113 0)
(0.511447 0.0338497 0)
(0.52097 -0.00281462 0)
(0.527209 -0.027783 0)
(0.526086 -0.0308963 0)
(0.520086 -0.0202027 0)
(0.51219 -0.00764163 0)
(0.50432 0.00049315 0)
(0.497316 0.00361488 0)
(0.491335 0.00360482 0)
(0.486083 0.00242835 0)
(0.48133 0.00125122 0)
(0.476569 0.00054087 0)
(0.471796 0.000275839 0)
(0.466413 0.000319164 0)
(0.461186 0.000427227 0)
(0.45518 0.000523493 0)
(0.450459 0.000506567 0)
(0.444642 0.000406737 0)
(0.441873 0.000305419 0)
(0.436573 9.44404e-05 0)
(0.526087 0.00201571 0)
(0.692701 -0.0136203 0)
(0.613221 -0.0224835 0)
(0.650679 -0.0148039 0)
(0.673324 -0.0184809 0)
(0.636916 -0.0192187 0)
(0.678423 -0.00302684 0)
(0.711675 -0.0252436 0)
(0.652997 0.00240033 0)
(0.772585 -0.0389102 0)
(0.755343 -0.0407231 0)
(0.790393 -0.0564794 0)
(0.859628 -0.0983802 0)
(0.797624 -0.0650305 0)
(0.823439 -0.0526639 0)
(0.854936 -0.0784013 0)
(0.746034 0.0232143 0)
(0.868916 -0.0251705 0)
(0.9658 -0.218607 0)
(0.953777 -0.307906 0)
(0.936105 -0.276119 0)
(0.943008 -0.198045 0)
(0.827752 -0.170731 0)
(0.727078 -0.102933 0)
(0.487523 -0.125833 0)
(0.380549 -0.20003 0)
(0.515043 -0.0819463 0)
(0.482317 0.0230051 0)
(0.486387 0.169025 0)
(0.488014 0.401997 0)
(0.430252 0.404818 0)
(0.51805 0.137596 0)
(0.562922 -0.00389785 0)
(0.472383 -0.0933786 0)
(0.328877 -0.281771 0)
(0.294016 -0.332606 0)
(0.326999 -0.22072 0)
(0.333283 -0.0627708 0)
(0.475204 0.171568 0)
(0.544417 0.311112 0)
(0.579243 0.275768 0)
(0.638816 0.173726 0)
(0.678291 0.0266684 0)
(0.73897 -0.0894448 0)
(0.694986 -0.0540639 0)
(0.668862 0.00904246 0)
(0.642736 0.0753617 0)
(0.517837 0.165993 0)
(0.561344 0.106109 0)
(0.588138 0.0236337 0)
(0.540013 -0.0170652 0)
(0.611286 -0.136175 0)
(0.644876 -0.21017 0)
(0.550082 -0.196661 0)
(0.439069 -0.160575 0)
(0.405216 -0.111861 0)
(0.387107 -0.0661456 0)
(0.377286 -0.014918 0)
(0.404627 0.0569322 0)
(0.463764 0.126229 0)
(0.500456 0.1662 0)
(0.521375 0.156567 0)
(0.538188 0.115909 0)
(0.533747 0.0625113 0)
(0.550935 -0.0163459 0)
(0.553821 -0.0952319 0)
(0.505428 -0.133616 0)
(0.462646 -0.121649 0)
(0.433551 -0.0834146 0)
(0.42639 -0.0211528 0)
(0.452769 0.0592463 0)
(0.473606 0.109522 0)
(0.482714 0.0941921 0)
(0.497483 0.0302379 0)
(0.504213 -0.0330737 0)
(0.490878 -0.0572903 0)
(0.479663 -0.0347505 0)
(0.487276 0.0119005 0)
(0.49885 0.048822 0)
(0.501917 0.0564817 0)
(0.507982 0.0330088 0)
(0.518856 -0.00361261 0)
(0.524156 -0.0279541 0)
(0.521375 -0.0303703 0)
(0.513874 -0.0193192 0)
(0.505054 -0.00672443 0)
(0.496933 0.00130775 0)
(0.490171 0.00431103 0)
(0.484646 0.00420537 0)
(0.479851 0.00296521 0)
(0.475441 0.001763 0)
(0.470921 0.00105389 0)
(0.466325 0.000817172 0)
(0.461183 0.000878478 0)
(0.456259 0.00100848 0)
(0.450761 0.00107133 0)
(0.446526 0.00103436 0)
(0.441451 0.000832331 0)
(0.439074 0.000698853 0)
(0.434594 0.00034946 0)
(0.660441 0.00614927 0)
(0.784615 -0.0227151 0)
(0.74364 -0.0184256 0)
(0.733353 -0.0200084 0)
(0.789565 -0.0217457 0)
(0.729683 -0.0115515 0)
(0.780365 -0.0161926 0)
(0.804913 -0.0231072 0)
(0.757068 0.000231925 0)
(0.859342 -0.053812 0)
(0.835986 -0.0390971 0)
(0.864869 -0.0620098 0)
(0.912815 -0.10459 0)
(0.847221 -0.0567414 0)
(0.877977 -0.0542314 0)
(0.880385 -0.0794683 0)
(0.794292 0.0209021 0)
(0.917091 -0.0353684 0)
(0.979505 -0.226469 0)
(0.944918 -0.307697 0)
(0.912732 -0.270318 0)
(0.897377 -0.187451 0)
(0.776232 -0.147277 0)
(0.655585 -0.0707344 0)
(0.4237 -0.107146 0)
(0.313393 -0.204501 0)
(0.474161 -0.0850298 0)
(0.440744 0.0262893 0)
(0.440573 0.170767 0)
(0.453788 0.402503 0)
(0.408934 0.395224 0)
(0.514841 0.13138 0)
(0.557666 0.00208118 0)
(0.467937 -0.0786186 0)
(0.321181 -0.267073 0)
(0.269335 -0.33237 0)
(0.295315 -0.223396 0)
(0.29011 -0.0684292 0)
(0.42528 0.157308 0)
(0.506714 0.296466 0)
(0.554653 0.264735 0)
(0.630312 0.165549 0)
(0.673835 0.0210672 0)
(0.730373 -0.0891408 0)
(0.687369 -0.0488268 0)
(0.662358 0.0139711 0)
(0.644902 0.0824092 0)
(0.526115 0.170665 0)
(0.576726 0.103873 0)
(0.593352 0.024901 0)
(0.553283 -0.019709 0)
(0.629064 -0.140791 0)
(0.642997 -0.204847 0)
(0.530797 -0.183428 0)
(0.410756 -0.150038 0)
(0.374964 -0.107277 0)
(0.356033 -0.0638767 0)
(0.345375 -0.0153472 0)
(0.371944 0.0519627 0)
(0.431672 0.119314 0)
(0.474317 0.160582 0)
(0.505839 0.152705 0)
(0.531295 0.114583 0)
(0.530871 0.0621934 0)
(0.550507 -0.0167049 0)
(0.55106 -0.0924324 0)
(0.495743 -0.128148 0)
(0.445324 -0.117021 0)
(0.413157 -0.0802735 0)
(0.403058 -0.0209356 0)
(0.428278 0.0563655 0)
(0.453156 0.106261 0)
(0.467425 0.0919292 0)
(0.486598 0.0290386 0)
(0.494245 -0.0326469 0)
(0.479109 -0.0556994 0)
(0.466178 -0.0340017 0)
(0.472655 0.0110291 0)
(0.484975 0.047537 0)
(0.491438 0.0553778 0)
(0.501287 0.0318404 0)
(0.513328 -0.00442877 0)
(0.517732 -0.0279517 0)
(0.51342 -0.0296472 0)
(0.50455 -0.0183014 0)
(0.494942 -0.00575497 0)
(0.486701 0.00211071 0)
(0.480298 0.00495908 0)
(0.475323 0.00474959 0)
(0.471057 0.00345433 0)
(0.467045 0.00223993 0)
(0.462828 0.00154102 0)
(0.458493 0.00133098 0)
(0.453734 0.00140156 0)
(0.449277 0.00153659 0)
(0.444525 0.00155543 0)
(0.440972 0.00148473 0)
(0.436916 0.00118732 0)
(0.43506 0.00101783 0)
(0.431673 0.000553651 0)
(0.766504 0.0115374 0)
(0.857127 -0.0300674 0)
(0.83756 -0.0157953 0)
(0.806107 -0.021432 0)
(0.872857 -0.0280221 0)
(0.805641 -0.00230646 0)
(0.860571 -0.0282845 0)
(0.87302 -0.0226683 0)
(0.837266 0.000588227 0)
(0.923395 -0.0668128 0)
(0.892175 -0.0371394 0)
(0.919621 -0.0640525 0)
(0.947861 -0.109077 0)
(0.879943 -0.0484297 0)
(0.915703 -0.0538863 0)
(0.892453 -0.07951 0)
(0.825097 0.017003 0)
(0.941583 -0.0440552 0)
(0.976375 -0.230144 0)
(0.919868 -0.303728 0)
(0.869376 -0.261267 0)
(0.83196 -0.174771 0)
(0.709136 -0.122342 0)
(0.57271 -0.0380463 0)
(0.359379 -0.089976 0)
(0.24421 -0.210374 0)
(0.42521 -0.0900412 0)
(0.394248 0.0293162 0)
(0.391994 0.172162 0)
(0.416333 0.400837 0)
(0.386073 0.382752 0)
(0.511627 0.123901 0)
(0.550354 0.00823519 0)
(0.462128 -0.0637298 0)
(0.315033 -0.251087 0)
(0.24608 -0.329855 0)
(0.260411 -0.224919 0)
(0.247038 -0.0731703 0)
(0.374268 0.142846 0)
(0.46364 0.280061 0)
(0.524245 0.251574 0)
(0.613692 0.155515 0)
(0.66157 0.0148769 0)
(0.713434 -0.0880647 0)
(0.671555 -0.0436362 0)
(0.649562 0.0179492 0)
(0.640159 0.0887049 0)
(0.529203 0.174012 0)
(0.588531 0.101514 0)
(0.594365 0.0265249 0)
(0.566047 -0.0233688 0)
(0.642902 -0.144211 0)
(0.635083 -0.196821 0)
(0.506564 -0.168368 0)
(0.37989 -0.138868 0)
(0.343096 -0.102586 0)
(0.324053 -0.0615269 0)
(0.312439 -0.0157104 0)
(0.338046 0.047027 0)
(0.397854 0.112051 0)
(0.445439 0.153901 0)
(0.487102 0.147578 0)
(0.520672 0.11242 0)
(0.52453 0.061323 0)
(0.547193 -0.0171234 0)
(0.545065 -0.0890308 0)
(0.483107 -0.121728 0)
(0.425363 -0.111704 0)
(0.390401 -0.076794 0)
(0.377944 -0.0204744 0)
(0.402008 0.053356 0)
(0.430304 0.102463 0)
(0.449441 0.0889804 0)
(0.473321 0.0274647 0)
(0.48177 -0.0321433 0)
(0.464564 -0.0538311 0)
(0.44986 -0.0330485 0)
(0.455231 0.0101976 0)
(0.468146 0.0460008 0)
(0.478002 0.0538143 0)
(0.491441 0.0303625 0)
(0.504501 -0.00526465 0)
(0.508108 -0.0277939 0)
(0.502352 -0.0287439 0)
(0.4922 -0.017166 0)
(0.48193 -0.00474791 0)
(0.473704 0.00288796 0)
(0.467772 0.00554825 0)
(0.463427 0.00522948 0)
(0.459742 0.00388997 0)
(0.456173 0.0026763 0)
(0.452331 0.00199396 0)
(0.44837 0.00180398 0)
(0.444168 0.00187037 0)
(0.440382 0.00198899 0)
(0.436613 0.00195231 0)
(0.433943 0.00183375 0)
(0.43112 0.00145199 0)
(0.429896 0.00124419 0)
(0.427767 0.000695272 0)
(0.847256 0.0166023 0)
(0.916164 -0.0344689 0)
(0.903265 -0.014424 0)
(0.868195 -0.0201914 0)
(0.930243 -0.0352058 0)
(0.863958 0.00660463 0)
(0.920995 -0.0381769 0)
(0.918639 -0.0236592 0)
(0.896764 0.002586 0)
(0.965298 -0.0765614 0)
(0.92662 -0.0349997 0)
(0.956448 -0.0638513 0)
(0.9652 -0.111222 0)
(0.897371 -0.0405235 0)
(0.936479 -0.0520967 0)
(0.893136 -0.0778761 0)
(0.839082 0.0131847 0)
(0.945988 -0.0514844 0)
(0.958139 -0.229645 0)
(0.877035 -0.29512 0)
(0.804606 -0.248608 0)
(0.747973 -0.159941 0)
(0.629231 -0.0962854 0)
(0.482188 -0.00603939 0)
(0.295712 -0.0748547 0)
(0.176626 -0.216652 0)
(0.367528 -0.0966501 0)
(0.341792 0.0321088 0)
(0.340209 0.172809 0)
(0.37544 0.396556 0)
(0.362626 0.366914 0)
(0.508208 0.115279 0)
(0.541089 0.0147682 0)
(0.455031 -0.048841 0)
(0.311065 -0.234296 0)
(0.222109 -0.323953 0)
(0.221854 -0.225168 0)
(0.204651 -0.0768903 0)
(0.322442 0.128606 0)
(0.415854 0.262309 0)
(0.488839 0.236635 0)
(0.588817 0.143855 0)
(0.641322 0.00808437 0)
(0.687827 -0.086257 0)
(0.646877 -0.0385801 0)
(0.629996 0.0210198 0)
(0.628112 0.0942589 0)
(0.527195 0.175639 0)
(0.596068 0.0990065 0)
(0.591122 0.0281893 0)
(0.578362 -0.0280572 0)
(0.651874 -0.146034 0)
(0.620793 -0.186036 0)
(0.477664 -0.151762 0)
(0.347146 -0.127357 0)
(0.309888 -0.0978788 0)
(0.291363 -0.0591602 0)
(0.278834 -0.0159944 0)
(0.303212 0.0421786 0)
(0.362531 0.104531 0)
(0.414114 0.146267 0)
(0.465538 0.141259 0)
(0.506448 0.109422 0)
(0.514913 0.0598581 0)
(0.541181 -0.0175862 0)
(0.535902 -0.0850142 0)
(0.467647 -0.114412 0)
(0.402996 -0.105737 0)
(0.365459 -0.073039 0)
(0.351278 -0.0198245 0)
(0.374249 0.0502638 0)
(0.405261 0.0981738 0)
(0.429087 0.0853873 0)
(0.457941 0.0254859 0)
(0.466919 -0.0315456 0)
(0.44735 -0.0516769 0)
(0.430733 -0.0318923 0)
(0.434971 0.00940941 0)
(0.448451 0.0442183 0)
(0.461789 0.0518122 0)
(0.478522 0.0285831 0)
(0.492571 -0.0061263 0)
(0.495486 -0.0274913 0)
(0.48825 -0.0276688 0)
(0.476832 -0.0159221 0)
(0.466017 -0.00371825 0)
(0.457953 0.00362474 0)
(0.452613 0.00606794 0)
(0.448974 0.00563843 0)
(0.44592 0.00426727 0)
(0.442853 0.00306531 0)
(0.439495 0.00240101 0)
(0.436076 0.0022183 0)
(0.432651 0.0022624 0)
(0.429773 0.00234101 0)
(0.427213 0.00223877 0)
(0.425604 0.00206162 0)
(0.424136 0.00161197 0)
(0.423617 0.0013674 0)
(0.422777 0.000768893 0)
(0.905446 0.0200922 0)
(0.961991 -0.0359726 0)
(0.945044 -0.0137007 0)
(0.919582 -0.0176918 0)
(0.965598 -0.0414594 0)
(0.905858 0.013912 0)
(0.963792 -0.0446178 0)
(0.943185 -0.0253152 0)
(0.938314 0.00440329 0)
(0.986519 -0.08256 0)
(0.941482 -0.0331284 0)
(0.976539 -0.0625445 0)
(0.965226 -0.110487 0)
(0.900506 -0.033554 0)
(0.94102 -0.0495677 0)
(0.882775 -0.0740896 0)
(0.836059 0.00974763 0)
(0.934794 -0.057755 0)
(0.924599 -0.224132 0)
(0.813889 -0.281098 0)
(0.717949 -0.232427 0)
(0.647161 -0.143723 0)
(0.537778 -0.0704044 0)
(0.387282 0.0240861 0)
(0.23261 -0.0616425 0)
(0.114659 -0.222939 0)
(0.302379 -0.104401 0)
(0.283145 0.0344982 0)
(0.285425 0.172553 0)
(0.331104 0.389622 0)
(0.339878 0.347765 0)
(0.50409 0.105755 0)
(0.52981 0.0215906 0)
(0.447007 -0.0340764 0)
(0.30946 -0.216629 0)
(0.196387 -0.314436 0)
(0.181507 -0.223597 0)
(0.163601 -0.0801549 0)
(0.271293 0.115001 0)
(0.363302 0.243662 0)
(0.44912 0.220248 0)
(0.555777 0.130848 0)
(0.613131 0.000783322 0)
(0.653032 -0.0836611 0)
(0.612542 -0.0340339 0)
(0.603149 0.0229981 0)
(0.608202 0.0989434 0)
(0.520313 0.175293 0)
(0.598453 0.0963576 0)
(0.583823 0.0296065 0)
(0.590014 -0.0336432 0)
(0.654953 -0.145862 0)
(0.599853 -0.172536 0)
(0.444582 -0.133958 0)
(0.313317 -0.115737 0)
(0.275629 -0.0932313 0)
(0.258039 -0.0568254 0)
(0.244895 -0.0161967 0)
(0.267741 0.0374596 0)
(0.325883 0.0968604 0)
(0.380623 0.137766 0)
(0.44154 0.133859 0)
(0.48873 0.105606 0)
(0.502273 0.0577544 0)
(0.532667 -0.0180857 0)
(0.523647 -0.0803716 0)
(0.449509 -0.106254 0)
(0.378505 -0.0991592 0)
(0.338501 -0.0690651 0)
(0.32326 -0.0190647 0)
(0.345246 0.0471113 0)
(0.378204 0.0934538 0)
(0.40677 0.081147 0)
(0.440754 0.0231286 0)
(0.44978 -0.0308103 0)
(0.427578 -0.0492151 0)
(0.408794 -0.0304936 0)
(0.411792 0.00868036 0)
(0.426032 0.0421851 0)
(0.442952 0.0493839 0)
(0.462634 0.0265296 0)
(0.477829 -0.00701542 0)
(0.480031 -0.0270424 0)
(0.471078 -0.0264153 0)
(0.458326 -0.0145751 0)
(0.447092 -0.00268017 0)
(0.439374 0.00430628 0)
(0.434771 0.00650726 0)
(0.431932 0.00596928 0)
(0.429587 0.00457909 0)
(0.427138 0.00339534 0)
(0.424442 0.00274367 0)
(0.421809 0.00254962 0)
(0.41942 0.00255077 0)
(0.417697 0.00256785 0)
(0.416514 0.00239512 0)
(0.416085 0.00215615 0)
(0.415971 0.00166113 0)
(0.416167 0.00138697 0)
(0.416502 0.000776576 0)
(0.942512 0.0214761 0)
(0.992385 -0.0353726 0)
(0.964503 -0.0135011 0)
(0.958085 -0.0153442 0)
(0.980425 -0.0456241 0)
(0.932059 0.0187996 0)
(0.989475 -0.0471576 0)
(0.94834 -0.0268384 0)
(0.963841 0.00534489 0)
(0.988633 -0.0841481 0)
(0.939848 -0.0316724 0)
(0.981938 -0.0607996 0)
(0.949448 -0.106564 0)
(0.890869 -0.0277883 0)
(0.931623 -0.0466134 0)
(0.86041 -0.0680038 0)
(0.817031 0.0065621 0)
(0.911675 -0.0628545 0)
(0.873488 -0.212844 0)
(0.730702 -0.260961 0)
(0.614332 -0.212773 0)
(0.535862 -0.126588 0)
(0.439359 -0.0452529 0)
(0.291491 0.0514416 0)
(0.171271 -0.0501869 0)
(0.060199 -0.22874 0)
(0.231525 -0.112726 0)
(0.219709 0.0361935 0)
(0.227508 0.170792 0)
(0.283143 0.379446 0)
(0.318826 0.325203 0)
(0.498545 0.0954008 0)
(0.516151 0.0284695 0)
(0.438527 -0.0197956 0)
(0.309854 -0.197691 0)
(0.170441 -0.302101 0)
(0.143276 -0.219854 0)
(0.122231 -0.0829875 0)