/*--------------------------------*- C++ -*----------------------------------*\
| =========                 |                                                 |
| \\      /  F ield         | OpenFOAM: The Open Source CFD Toolbox           |
|  \\    /   O peration     | Version:  2.4.0                                 |
|   \\  /    A nd           | Web:      www.OpenFOAM.org                      |
|    \\/     M anipulation  |                                                 |
\*---------------------------------------------------------------------------*/
FoamFile
{
    version     2.0;
    format      ascii;
    class       volScalarField;
    location    "0.6";
    object      k_0;
}
// * * * * * * * * * * * * * * * * * * * * * * * * * * * * * * * * * * * * * //

dimensions      [0 2 -2 0 0 0 0];

internalField   nonuniform List<scalar> 
8800
(
8.01282
10.2803
8.69857
6.96487
5.5578
5.09147
4.4354
4.15401
4.01405
3.49574
3.82753
3.11841
3.73842
2.89063
3.59183
2.77684
3.42619
2.66204
3.25542
2.61948
1.38761
4.35187
5.2417
5.34517
5.03409
4.9021
4.52829
4.28498
4.22491
3.72396
3.9991
3.39851
3.90653
3.22141
3.77137
3.1468
3.64953
3.04217
3.59322
3.17064
0.0851735
0.705016
1.53517
1.9832
2.20887
2.5113
2.54516
2.59999
2.66814
2.52609
2.72536
2.44309
2.76748
2.41279
2.7686
2.40192
2.79337
2.37997
2.83363
2.5503
0.00355704
0.06406
0.267251
0.4273
0.548822
0.74382
0.820237
0.937092
1.0637
1.06991
1.23095
1.19818
1.36515
1.28859
1.47131
1.35517
1.59534
1.44629
1.62934
1.58002
0.000136926
0.00410798
0.0351459
0.0542801
0.0959071
0.142993
0.171094
0.229049
0.255995
0.310906
0.335588
0.402942
0.408684
0.470759
0.476812
0.515016
0.529675
0.609822
0.580351
0.675374
3.80573e-05
0.000492719
0.00814595
0.0115553
0.0357194
0.0430404
0.0741265
0.0959036
0.102962
0.146264
0.15486
0.185468
0.206023
0.260761
0.276487
0.320944
0.336498
0.38762
0.403223
0.449313
4.91405e-05
0.000298406
0.00356438
0.00406714
0.0131426
0.0153072
0.0604837
0.0698823
0.162999
0.203278
0.304721
0.315756
0.381203
0.376256
0.409525
0.404759
0.445945
0.427546
0.424962
0.418411
6.07398e-05
7.95469e-05
0.000329577
0.000425843
0.00096244
0.00101278
0.00504408
0.00516568
0.0486979
0.0434229
0.167705
0.185872
0.238408
0.290794
0.29141
0.287603
0.293289
0.326217
0.282351
0.281967
2.79071e-05
0.000100687
0.000617497
0.00107264
0.00516657
0.00580342
0.0132573
0.0161195
0.0164167
0.0204485
0.0262794
0.0293862
0.0377188
0.0691012
0.0693286
0.0823108
0.084332
0.108566
0.10441
0.110914
2.63866e-05
7.06435e-05
0.000293387
0.000758264
0.00290219
0.00548067
0.0209747
0.0232109
0.0492775
0.0553944
0.0957128
0.0948663
0.123378
0.115116
0.121355
0.115413
0.128833
0.125188
0.127263
0.126245
4.47019e-05
0.00018435
0.000368475
0.000858552
0.00121252
0.00222326
0.00534423
0.00663693
0.0220143
0.0228635
0.045248
0.0521996
0.0613957
0.0828439
0.0899686
0.0916369
0.109076
0.107604
0.104442
0.103743
2.48632e-05
0.000119692
0.00014974
0.000343653
0.000360873
0.000532353
0.000658948
0.000767004
0.00188299
0.00178154
0.00265371
0.00439351
0.00432492
0.0087242
0.00824033
0.00980242
0.0136083
0.0127279
0.0125018
0.0143769
2.01348e-05
4.05094e-05
0.000118052
0.000135842
0.000222261
0.000243904
0.00026115
0.000434093
0.000496633
0.000654534
0.000845087
0.000882439
0.00136816
0.001552
0.00179487
0.00228117
0.00237179
0.00324304
0.0035357
0.00368217
2.13508e-05
5.00932e-05
0.000461317
0.00049008
0.00112116
0.00139667
0.00152159
0.00350208
0.00347326
0.00531484
0.00636474
0.00640757
0.0111568
0.0111384
0.0128513
0.0180959
0.0174922
0.0238845
0.0271297
0.028483
2.65547e-05
0.000240134
0.00386637
0.00512767
0.0113712
0.0155075
0.0179238
0.0344084
0.0355805
0.0482691
0.0550654
0.0581041
0.0849058
0.0868623
0.0940981
0.120785
0.120917
0.148236
0.160879
0.184453
0.000145097
0.00401985
0.0358669
0.0520016
0.0991614
0.132086
0.15027
0.229721
0.240732
0.291765
0.318641
0.333676
0.416212
0.424787
0.447326
0.517871
0.522364
0.589034
0.616595
0.678586
0.00363788
0.0629826
0.284895
0.389015
0.604108
0.712745
0.793725
0.976241
1.00118
1.10183
1.14781
1.17959
1.2941
1.29358
1.32896
1.39083
1.39091
1.45387
1.47513
1.51549
0.0857037
0.696014
1.56294
1.92146
2.29245
2.44634
2.56676
2.59773
2.61274
2.59657
2.5803
2.53805
2.52848
2.47458
2.46729
2.41933
2.40761
2.38844
2.36906
2.33279
1.38604
4.34349
5.24721
5.31129
5.10463
4.80925
4.61651
4.2028
4.15197
3.8583
3.77527
3.63131
3.48713
3.41454
3.34006
3.16771
3.18566
3.05086
3.00509
2.91571
7.99874
10.2529
8.6967
6.90951
5.61089
4.96252
4.53068
4.07264
3.98335
3.61984
3.57723
3.40207
3.28005
3.17011
3.09703
2.91263
2.92382
2.72377
2.6615
2.46877
1.67124
1.19954
1.0009
0.801247
0.767967
0.686344
0.667249
0.587885
0.567082
0.509124
0.502697
0.465585
0.465968
0.442538
0.456676
0.447904
0.47717
0.47906
0.519602
0.524385
0.562575
0.56207
0.587889
0.578524
0.595595
0.581702
0.596353
0.581475
0.59582
0.576979
0.585304
0.555617
0.55181
0.500023
0.486545
0.430427
0.428535
0.393262
0.403312
0.375838
0.397764
0.370817
0.39066
0.355703
0.360097
0.321961
0.322478
0.295657
0.303902
0.289304
0.306959
0.30124
0.324926
0.321212
0.34475
0.340093
0.360286
0.35383
0.368999
0.362172
0.373308
0.366513
0.373942
0.367685
0.373442
0.368577
0.373858
0.370097
0.375377
0.372271
0.376569
0.373972
0.377689
0.376123
0.377677
0.380535
0.392423
0.398719
0.414372
0.412102
0.425269
0.417142
0.412537
0.384298
0.314675
0.252002
0.200878
0.185783
0.164328
0.156915
0.141781
0.133521
0.121792
0.11299
0.103743
0.0964552
0.0878536
0.0827674
0.0756373
0.0722329
0.0671798
0.0651076
0.0625442
0.0616053
0.0613138
0.0616042
0.0636714
0.0692336
0.0822556
0.100041
0.138988
0.176717
0.205346
0.223489
0.231357
0.231034
0.229968
0.224854
0.208785
0.184942
0.165998
0.149771
0.144049
0.146658
0.162311
0.235551
0.320679
0.3535
0.353148
0.343191
0.320745
0.288235
0.243832
0.210221
0.175903
0.161455
0.1414
0.130838
0.126806
0.121378
0.112485
0.110227
0.111078
0.111249
0.112756
0.116424
0.132876
0.141851
0.15815
0.164351
0.168674
0.165331
0.163845
0.159504
0.152954
0.140126
0.132357
0.11436
0.0957121
0.0705504
0.0473051
0.0317997
0.02128
0.0167187
0.0143936
0.0141863
0.0131551
0.0132177
0.0131291
0.0132399
0.0129887
0.0135253
0.0152067
0.0146305
0.0142646
0.0147691
0.019581
0.0276245
0.0428407
0.10529
0.238394
0.29804
0.312691
0.306526
0.269157
0.213382
0.164237
0.128486
0.113621
0.113354
0.120472
0.150406
0.174519
0.172384
0.172432
0.185527
0.195829
0.207691
0.306349
1.62707
2.46275
1.94722
1.75817
1.44912
1.36283
1.17823
1.13603
1.02015
0.998213
0.916171
0.899385
0.818963
0.802787
0.732151
0.727525
0.686936
0.694337
0.665892
0.677488
0.654217
0.663548
0.638413
0.642526
0.616471
0.619252
0.595449
0.60224
0.585269
0.600711
0.590198
0.61143
0.600366
0.619516
0.600555
0.611624
0.583214
0.587014
0.554861
0.558499
0.529748
0.536758
0.514245
0.521165
0.503268
0.504784
0.490082
0.486609
0.473914
0.46962
0.464006
0.45639
0.457524
0.452632
0.456117
0.450313
0.456764
0.450119
0.45771
0.448857
0.456482
0.445675
0.45387
0.441466
0.450255
0.436775
0.44603
0.431554
0.441066
0.426004
0.435254
0.419438
0.428297
0.411842
0.421025
0.405386
0.418405
0.405052
0.420853
0.410807
0.439573
0.435541
0.471233
0.457716
0.479687
0.450056
0.432994
0.367344
0.308666
0.234994
0.198072
0.166643
0.149064
0.132558
0.121461
0.109465
0.102341
0.093528
0.0893679
0.0829695
0.080404
0.0780676
0.0780607
0.0782498
0.0804585
0.0840649
0.0936461
0.104148
0.121187
0.149839
0.181576
0.20907
0.230019
0.240212
0.239838
0.238178
0.232795
0.220992
0.195719
0.165096
0.143673
0.129899
0.106018
0.0876194
0.0835288
0.0843801
0.0921623
0.114704
0.193678
0.283826
0.31134
0.312309
0.305661
0.284619
0.269349
0.234781
0.219789
0.198104
0.173979
0.165648
0.160885
0.154214
0.148806
0.151618
0.154289
0.16115
0.164297
0.171158
0.17494
0.174283
0.173487
0.171281
0.165771
0.158903
0.148625
0.131927
0.121642
0.10825
0.0855535
0.0615457
0.0378832
0.0243159
0.0168895
0.0141176
0.0125853
0.0123573
0.0126025
0.0125619
0.0127086
0.0130375
0.0136007
0.0137953
0.0150513
0.0161419
0.0154627
0.0149668
0.0155265
0.0199962
0.0273492
0.0406325
0.103639
0.262163
0.31056
0.325685
0.313479
0.270871
0.211502
0.161019
0.12418
0.0987924
0.095662
0.0990545
0.112534
0.15204
0.166997
0.169066
0.177141
0.197941
0.202575
0.29003
0.863892
2.13906
1.78453
1.67686
1.45446
1.38561
1.22896
1.18821
1.08224
1.0581
0.982741
0.970526
0.921524
0.915297
0.872209
0.862788
0.817037
0.805313
0.761581
0.748422
0.707805
0.690495
0.644504
0.62287
0.571016
0.547979
0.499202
0.478852
0.449742
0.448672
0.44823
0.461201
0.472052
0.5017
0.515582
0.54084
0.545979
0.550654
0.550281
0.54668
0.54522
0.534439
0.534563
0.522885
0.525596
0.51059
0.514132
0.496596
0.50064
0.482124
0.487361
0.468413
0.475014
0.456631
0.465102
0.44759
0.457299
0.44068
0.45111
0.434903
0.445316
0.429158
0.439203
0.423258
0.432553
0.416995
0.425511
0.410402
0.418139
0.403264
0.410176
0.395448
0.40115
0.386861
0.391684
0.378826
0.384231
0.373594
0.382058
0.375568
0.390637
0.388836
0.409992
0.413211
0.438595
0.438171
0.441529
0.435186
0.422014
0.394186
0.351405
0.3021
0.25817
0.221525
0.195787
0.170947
0.158625
0.14722
0.141779
0.138144
0.138408
0.139376
0.143867
0.147212
0.157343
0.164214
0.179824
0.193286
0.214491
0.231965
0.247543
0.251172
0.251656
0.250359
0.243514
0.233617
0.214949
0.18129
0.153456
0.130285
0.0955639
0.072449
0.0609097
0.0494756
0.0478861
0.0476335
0.0489536
0.0539011
0.066584
0.103712
0.183571
0.248798
0.277196
0.277031
0.272359
0.261684
0.242833
0.233847
0.218842
0.208106
0.196496
0.193174
0.189499
0.18299
0.182663
0.181881
0.181382
0.177212
0.176955
0.172446
0.168483
0.157953
0.149977
0.13771
0.126108
0.108423
0.0949615
0.0729316
0.0449721
0.0278366
0.0182689
0.0137117
0.0113229
0.0112006
0.0109875
0.0115136
0.0120017
0.0124125
0.0125862
0.0136933
0.0143261
0.0147058
0.0161873
0.0167635
0.0161026
0.0160075
0.0167254
0.0201079
0.027591
0.040367
0.102898
0.293151
0.324342
0.33881
0.323986
0.292131
0.222271
0.167004
0.132362
0.0988435
0.0870544
0.089103
0.0950411
0.11876
0.15477
0.163227
0.166931
0.195214
0.199106
0.251651
0.49958
1.44165
1.29151
1.20342
1.09834
1.0403
0.959963
0.903215
0.8455
0.795353
0.749175
0.708657
0.683904
0.670589
0.668965
0.665696
0.666471
0.65819
0.652054
0.623036
0.605324
0.55359
0.52689
0.462498
0.43349
0.365776
0.339097
0.28429
0.265696
0.236616
0.234953
0.23198
0.243295
0.254997
0.296604
0.31805
0.373597
0.389144
0.428367
0.429101
0.445963
0.439752
0.452094
0.44081
0.448969
0.43359
0.437139
0.418746
0.418624
0.398868
0.397216
0.376633
0.374594
0.355005
0.353332
0.336369
0.335707
0.321659
0.321896
0.309551
0.310167
0.299111
0.299765
0.290138
0.290659
0.282354
0.283084
0.27606
0.276961
0.270954
0.271606
0.266331
0.266397
0.261468
0.261368
0.257108
0.257797
0.255401
0.258389
0.259069
0.265287
0.269886
0.283315
0.295003
0.313376
0.344649
0.365789
0.388516
0.396313
0.394985
0.387987
0.378762
0.360852
0.34329
0.324826
0.310689
0.293805
0.283603
0.272839
0.267603
0.262434
0.259577
0.259611
0.259659
0.262237
0.263522
0.268394
0.26966
0.270423
0.269146
0.267666
0.262086
0.252879
0.24177
0.216611
0.188533
0.154813
0.118504
0.0860831
0.0595146
0.0418875
0.0332132
0.0273633
0.0226618
0.0217138
0.021737
0.0224567
0.0256679
0.0298895
0.0398479
0.0581001
0.0933242
0.159339
0.210546
0.234417
0.241498
0.239219
0.231472
0.227138
0.219026
0.213172
0.203341
0.201384
0.194469
0.191845
0.186196
0.183533
0.176499
0.171633
0.161477
0.153401
0.141651
0.128344
0.111404
0.0947627
0.0707425
0.0449246
0.0287295
0.0179769
0.013077
0.0106694
0.00957063
0.00956605
0.010149
0.0103762
0.0112999
0.012001
0.0131567
0.0137518
0.015703
0.0165131
0.0165323
0.0176741
0.0190072
0.0188716
0.0187749
0.0190594
0.0201282
0.0254694
0.0375195
0.132949
0.318512
0.336965
0.360591
0.347416
0.336665
0.257671
0.208516
0.182504
0.152312
0.106406
0.0975108
0.09872
0.10484
0.129853
0.158451
0.161969
0.191411
0.194027
0.219019
0.332306
0.646843
0.62539
0.578464
0.564652
0.530069
0.518427
0.485113
0.472511
0.437123
0.422559
0.385626
0.373389
0.343824
0.339471
0.331816
0.336168
0.330967
0.333696
0.324587
0.321544
0.303047
0.292869
0.263578
0.250764
0.220289
0.208738
0.182693
0.173035
0.151782
0.145908
0.132652
0.132321
0.130915
0.135933
0.141142
0.161834
0.173312
0.204642
0.215431
0.242631
0.247957
0.261484
0.259809
0.264574
0.259559
0.259929
0.252375
0.249552
0.237062
0.232061
0.216891
0.211213
0.196975
0.192077
0.180276
0.176185
0.165897
0.162304
0.153168
0.149908
0.141998
0.138883
0.131945
0.129033
0.122611
0.12017
0.114935
0.11328
0.110114
0.109317
0.107804
0.107481
0.106512
0.106441
0.106131
0.10633
0.106819
0.107948
0.110395
0.113569
0.120459
0.126705
0.14072
0.150741
0.17308
0.188521
0.222066
0.245086
0.282708
0.305691
0.323284
0.327781
0.327136
0.322558
0.319828
0.313443
0.311109
0.305486
0.304412
0.300785
0.300307
0.297744
0.296514
0.293555
0.29083
0.285235
0.277079
0.270888
0.255202
0.240395
0.222556
0.191676
0.163386
0.128278
0.0934692
0.0672471
0.0461783
0.034253
0.0248864
0.0192432
0.0163582
0.0134871
0.012197
0.0115079
0.011464
0.0116416
0.0124238
0.013604
0.0163112
0.0212868
0.0319023
0.0462159
0.0783396
0.113562
0.14391
0.179589
0.19085
0.198021
0.198642
0.197516
0.192746
0.189559
0.184544
0.178542
0.17151
0.161392
0.152383
0.138903
0.128637
0.110189
0.0946421
0.0741375
0.0517778
0.035211
0.0233437
0.0156363
0.0114428
0.00908874
0.00842448
0.00841919
0.00855269
0.00915838
0.0101549
0.0108517
0.0129368
0.0149217
0.0161617
0.0173188
0.0201602
0.0203129
0.0198747
0.020835
0.0213739
0.0218777
0.0211651
0.0213855
0.0216436
0.0244343
0.037785
0.210464
0.331924
0.356072
0.399878
0.39251
0.377671
0.294408
0.287301
0.288408
0.352665
0.309206
0.184026
0.127629
0.117104
0.120503
0.148926
0.154302
0.190087
0.18934
0.194591
0.246792
0.435191
0.422219
0.396113
0.385104
0.361854
0.352439
0.330917
0.321413
0.299425
0.289612
0.269349
0.260341
0.244215
0.237107
0.225411
0.221278
0.212987
0.209472
0.202064
0.198062
0.189948
0.18545
0.177201
0.172949
0.164832
0.159179
0.146368
0.136501
0.121062
0.114838
0.103316
0.0951306
0.0854922
0.0825777
0.0818832
0.0838222
0.0866417
0.0951662
0.0995558
0.109262
0.112743
0.118533
0.119376
0.120002
0.119465
0.118537
0.115316
0.112587
0.106044
0.101841
0.0943189
0.08954
0.0839172
0.0794699
0.0757216
0.0722766
0.0692679
0.0665889
0.0637252
0.0612361
0.058926
0.0563047
0.0541202
0.0514787
0.0487207
0.0463198
0.0435121
0.0415219
0.0394627
0.0382149
0.0369912
0.0365558
0.0360746
0.0360717
0.036139
0.0363328
0.0367761
0.037249
0.0384284
0.0396872
0.0417526
0.0453
0.0483677
0.0552505
0.0614528
0.0710155
0.0816353
0.0953102
0.111709
0.125858
0.148639
0.167703
0.186778
0.202971
0.214564
0.223234
0.228833
0.232242
0.233631
0.232971
0.231504
0.227326
0.224056
0.215324
0.208859
0.195087
0.181452
0.166385
0.143636
0.124487
0.101024
0.0778944
0.0610926
0.0451243
0.0340867
0.0251069
0.0184801
0.0148677
0.0111815
0.009598
0.00855944
0.00751139
0.00718553
0.00707993
0.00708057
0.00723342
0.00764383
0.00803786
0.00869583
0.0102059
0.0125161
0.0157795
0.0245435
0.035692
0.0508423
0.0693388
0.0870601
0.102322
0.113791
0.122339
0.123617
0.122533
0.119744
0.112988
0.106681
0.0954359
0.0838936
0.0731242
0.0577634
0.0440756
0.0327503
0.0237937
0.0166037
0.0120978
0.00920628
0.00780988
0.00714342
0.00720592
0.00751007
0.00815128
0.00881307
0.0113714
0.0137488
0.0155654
0.020335
0.022578
0.024172
0.0262054
0.0278566
0.0271994
0.0259919
0.0263094
0.0260546
0.0259043
0.0250076
0.0254508
0.0263838
0.0274148
0.0441209
0.25098
0.326069
0.407701
0.439961
0.427655
0.39244
0.322783
0.326201
0.343804
0.538878
0.594491
0.589732
0.320649
0.190284
0.136915
0.156754
0.15465
0.182296
0.184496
0.184487
0.207562
0.403419
0.386342
0.373325
0.358248
0.34438
0.330401
0.315322
0.300885
0.287414
0.275636
0.264732
0.253591
0.242533
0.228797
0.216595
0.20506
0.195574
0.187361
0.182502
0.177274
0.173481
0.169264
0.165094
0.161269
0.155929
0.146409
0.131986
0.116885
0.101744
0.0900897
0.0789922
0.0692945
0.0598176
0.0521525
0.0478596
0.0464761
0.0464164
0.0475107
0.0520974
0.058253
0.0625817
0.0653405
0.0662832
0.0663819
0.0651809
0.0631468
0.0604595
0.0582316
0.0545955
0.0512529
0.0471645
0.0434347
0.0401141
0.0371004
0.0354123
0.0336973
0.0327634
0.0315301
0.0303077
0.0289494
0.0276352
0.0260821
0.0246933
0.0230971
0.0214521
0.019882
0.0181937
0.0168121
0.0154096
0.0144644
0.013654
0.0133591
0.0132077
0.0132449
0.0133948
0.0137152
0.0142173
0.0145103
0.0149958
0.0156392
0.0161485
0.0173399
0.0183232
0.0205476
0.0222531
0.0256897
0.0296181
0.0328859
0.0405338
0.0451353
0.0522429
0.0607137
0.0666877
0.0762081
0.0814388
0.0877742
0.0923473
0.0955993
0.0979041
0.0984098
0.0975045
0.0956988
0.0930448
0.0867334
0.0826376
0.0744566
0.0666561
0.0592238
0.0500341
0.0426036
0.0344971
0.0278039
0.0218305
0.0167015
0.0132786
0.00988936
0.00806871
0.00678841
0.0055545
0.00530757
0.00499653
0.00482676
0.00492317
0.00498306
0.00508411
0.00526344
0.00574738
0.0062006
0.00657112
0.00711288
0.00789233
0.00858378
0.0107402
0.0133919
0.017288
0.0246884
0.0294975
0.0374846
0.0429434
0.0469701
0.0492424
0.0491489
0.0477029
0.0447845
0.0413584
0.0356419
0.0299704
0.0244759
0.0190997
0.0146243
0.010979
0.00863891
0.00710521
0.00628553
0.00622908
0.0063629
0.00670388
0.00746219
0.00979002
0.011624
0.0141343
0.0217084
0.0249514
0.0294824
0.0342067
0.0372525
0.0375903
0.0377347
0.0374188
0.0361656
0.032087
0.030769
0.0294682
0.0263513
0.0259296
0.0260913
0.028785
0.0316944
0.0568647
0.281165
0.331106
0.460999
0.450845
0.413318
0.386626
0.360032
0.386329
0.373633
0.489985
0.559752
0.793907
0.725903
0.491521
0.21176
0.190709
0.15911
0.166058
0.180261
0.17838
0.187441
0.276861
0.270515
0.261641
0.258347
0.251632
0.249631
0.244291
0.240931
0.233057
0.227777
0.216149
0.202445
0.184374
0.168246
0.152029
0.13976
0.127847
0.120859
0.114888
0.112294
0.110132
0.109439
0.109239
0.10947
0.108424
0.0972243
0.0845435
0.0724979
0.0640852
0.0568188
0.05154
0.0470045
0.0432611
0.0396181
0.0354527
0.0322172
0.0303993
0.0302386
0.0304551
0.0317762
0.0322781
0.032492
0.0320369
0.0310105
0.0295362
0.0283812
0.0273831
0.0259724
0.0241968
0.0220835
0.0198008
0.0179612
0.016445
0.0153138
0.0146818
0.0141856
0.0138914
0.0134972
0.0128359
0.0122102
0.0113137
0.0105774
0.00975753
0.00910348
0.00836679
0.00775365
0.00703904
0.0064281
0.00578934
0.00530052
0.00485223
0.00461352
0.00447797
0.00444973
0.0045076
0.00460773
0.00493937
0.00512602
0.00550199
0.00572602
0.00603006
0.00657983
0.00695436
0.00762992
0.00865039
0.00957126
0.0114554
0.0125522
0.0150076
0.016754
0.019398
0.0221733
0.0239364
0.0276587
0.029567
0.0317311
0.0338436
0.0349207
0.0360599
0.0361798
0.0358655
0.0352347
0.0339343
0.0321042
0.0300412
0.0272969
0.0245883
0.0214248
0.0184448
0.0154104
0.0126014
0.0102556
0.00810167
0.00655431
0.00543846
0.00443406
0.00407505
0.00373494
0.00357245
0.00365208
0.00369796
0.00373656
0.00402138
0.00408312
0.00409651
0.00424168
0.00426708
0.00434877
0.00446309
0.00480848
0.00521957
0.00548925
0.00626016
0.00702654
0.0079583
0.0101566
0.0112596
0.0134282
0.0158469
0.0167754
0.0174144
0.0173077
0.0167595
0.0152007
0.0140533
0.0118352
0.0100806
0.00815467
0.00697987
0.00591186
0.00539503
0.005328
0.00543645
0.00571297
0.00654357
0.00817005
0.0103621
0.0146662
0.0214624
0.0252853
0.0329844
0.0447441
0.0482179
0.0541396
0.0573659
0.0574981
0.0555501
0.0535503
0.05119
0.0459535
0.0402129
0.0383316
0.0369683
0.0306823
0.0291299
0.0283116
0.0299127
0.033271
0.0845732
0.29918
0.328599
0.476351
0.427178
0.408252
0.384087
0.401454
0.39524
0.381465
0.399671
0.40826
0.515328
0.728937
0.849606
0.501024
0.299643
0.18492
0.161806
0.172998
0.168791
0.172066
0.11085
0.110465
0.110756
0.112031
0.113749
0.115539
0.116392
0.116247
0.115119
0.110028
0.105633
0.0984215
0.0943037
0.0880485
0.0841552
0.0782505
0.0744868
0.069917
0.0681049
0.0664587
0.0663431
0.0661307
0.0663477
0.0662813
0.0658003
0.0617489
0.0585103
0.0536046
0.0510977
0.047196
0.0451434
0.0422195
0.0407408
0.037645
0.0349023
0.0311814
0.0285859
0.0260971
0.0248582
0.0235794
0.022433
0.0210497
0.0194472
0.0179809
0.0167388
0.0159362
0.0151682
0.014373
0.0132476
0.0120419
0.010623
0.00953056
0.00837358
0.00765413
0.00698765
0.00667502
0.00633417
0.00617926
0.00586249
0.00558757
0.00515694
0.00486945
0.00451437
0.00423004
0.00386877
0.00351232
0.00313536
0.00277273
0.00245741
0.00220233
0.00198006
0.00183073
0.00171026
0.00163533
0.00161092
0.00159731
0.00161914
0.00165224
0.0017782
0.00187623
0.00203706
0.00227176
0.00243349
0.00271753
0.00311457
0.00336495
0.00402153
0.00438083
0.00514805
0.00568648
0.00663005
0.00747197
0.00802762
0.00927345
0.00986998
0.0106467
0.0114033
0.0117944
0.0123277
0.0124693
0.0124083
0.0122209
0.0118497
0.0112154
0.0103879
0.00952028
0.00847273
0.00741581
0.00643464
0.00542194
0.00465402
0.00396042
0.00348088
0.00317208
0.00296282
0.00291748
0.00294242
0.00298933
0.00304644
0.00323666
0.00332385
0.00341054
0.00367343
0.00363484
0.00360118
0.00357166
0.00344144
0.00319863
0.0031347
0.00312396
0.00313268
0.00319598
0.00345103
0.00367387
0.00389186
0.00456651
0.0049441
0.00521405
0.00602962
0.00617899
0.00616047
0.00609584
0.00589172
0.0053977
0.00509765
0.00473176
0.0044576
0.00441509
0.00444907
0.0046039
0.00496202
0.00590046
0.00750599
0.009817
0.0151995
0.0203424
0.0291143
0.0387194
0.0505272
0.0577165
0.074751
0.0856057
0.0896536
0.0920358
0.0915965
0.0883464
0.0824113
0.0784667
0.0730191
0.060042
0.0520848
0.0489591
0.0467519
0.0403828
0.037037
0.0349215
0.035053
0.0372984
0.132088
0.306446
0.326472
0.430341
0.382504
0.374198
0.359845
0.397336
0.377852
0.394586
0.423721
0.410001
0.362764
0.430797
0.730206
0.693404
0.477998
0.244787
0.171162
0.173496
0.165086
0.162907
0.124671
0.122716
0.122502
0.121219
0.120903
0.118981
0.117771
0.11416
0.111801
0.106669
0.103368
0.0987534
0.0962075
0.0924694
0.090869
0.0877451
0.0864411
0.0837236
0.0827535
0.0808054
0.0800366
0.0781925
0.0761611
0.0707171
0.0657946
0.0598206
0.0555081
0.0508524
0.0468753
0.0432369
0.0404308
0.0387099
0.0380114
0.0375551
0.0372166
0.036709
0.0354659
0.0338751
0.0315602
0.0290687
0.0261673
0.0234337
0.0206848
0.0185351
0.0164876
0.0148695
0.0131749
0.0115973
0.0100529
0.00863894
0.00736594
0.00636645
0.0055496
0.0050278
0.00459705
0.00427324
0.00393991
0.00362731
0.00332309
0.00303431
0.00277858
0.00253595
0.00232327
0.00211985
0.00195088
0.00180024
0.00169426
0.00159911
0.00153003
0.00147201
0.00142111
0.0013878
0.00135017
0.00131898
0.00129578
0.00126646
0.00125017
0.00123587
0.00123545
0.0012378
0.00124535
0.00127031
0.00129221
0.00134706
0.00139154
0.00148125
0.00160309
0.00168007
0.00189644
0.00202294
0.00231589
0.00249477
0.00277405
0.00303324
0.00325448
0.00350828
0.00363021
0.00381338
0.00388751
0.00392915
0.00391686
0.00386463
0.00379552
0.0036383
0.00345628
0.00328091
0.00304466
0.00287499
0.00268816
0.0025624
0.00248838
0.00248374
0.00249923
0.00253631
0.00266888
0.002806
0.00304647
0.00338867
0.00369914
0.00415351
0.00429195
0.00455655
0.00469755
0.0046334
0.00452311
0.00439008
0.00408536
0.00363869
0.0033485
0.00313741
0.00282987
0.00264469
0.00261418
0.00260851
0.00260907
0.00275209
0.00281342
0.00292879
0.00307858
0.00323106
0.00320997
0.00329676
0.00335105
0.00347699
0.0035427
0.00374198
0.00400395
0.00461232
0.00544959
0.00750226
0.00997605
0.0160307
0.0214537
0.0330603
0.0430688
0.0589251
0.0764634
0.0952719
0.111567
0.127977
0.14978
0.157432
0.159142
0.158225
0.154928
0.143837
0.132003
0.12353
0.105589
0.0845191
0.0731182
0.0691114
0.0557662
0.0479068
0.0449815
0.046671
0.0462728
0.0487435
0.202705
0.310732
0.31365
0.347458
0.362377
0.348931
0.335263
0.341841
0.350879
0.382221
0.382197
0.39746
0.351127
0.360113
0.441101
0.627067
0.582203
0.346233
0.201342
0.178484
0.167378
0.157874
0.102326
0.100322
0.0993862
0.0969852
0.0954958
0.0932505
0.0896676
0.0880386
0.0839641
0.081599
0.0759161
0.0739433
0.0703331
0.0690511
0.0686936
0.068004
0.0674257
0.0650457
0.0629227
0.0579379
0.0550426
0.0494298
0.043672
0.0366603
0.0299671
0.0244322
0.0200961
0.0170206
0.0144589
0.0126306
0.0111225
0.0104636
0.0102896
0.0104245
0.0110459
0.0121354
0.0124608
0.0125626
0.0123299
0.0118855
0.0113707
0.01101
0.0103163
0.00952863
0.00840835
0.00726516
0.00619024
0.00528703
0.0046109
0.00407581
0.00367994
0.00335587
0.00304671
0.00277016
0.00250937
0.00229385
0.00211545
0.00196158
0.00183103
0.0017297
0.00165667
0.00160883
0.00158017
0.00156913
0.00156792
0.00156993
0.00156828
0.00156879
0.00157276
0.00159398
0.00161691
0.00163056
0.00163524
0.0016333
0.00159344
0.00154867
0.00149576
0.00145852
0.00143081
0.00140061
0.0013855
0.00137146
0.00136115
0.00136078
0.00136094
0.00136843
0.00137349
0.00138621
0.00139889
0.00142216
0.00146088
0.0014848
0.00156359
0.00160443
0.00168356
0.00172338
0.0018063
0.00184651
0.00188935
0.00192272
0.00194745
0.00196871
0.00197049
0.00197468
0.0019861
0.00201865
0.0020552
0.00208827
0.00216596
0.0022562
0.00237898
0.00269294
0.00298626
0.00344969
0.00436216
0.0050743
0.00610626
0.00748898
0.008287
0.00936586
0.00991839
0.0102682
0.0102516
0.00998824
0.00947907
0.00897452
0.00780543
0.00686335
0.00575258
0.00486127
0.00413797
0.00349574
0.00321569
0.0029469
0.00276074
0.00274691
0.0027673
0.00277479
0.00280545
0.00291378
0.00300377
0.00311525
0.00344076
0.00389436
0.00447664
0.00594877
0.00776207
0.0117974
0.0162856
0.0247458
0.036696
0.0506367
0.0694122
0.0991782
0.1176
0.154602
0.180883
0.212501
0.234634
0.263474
0.283907
0.284955
0.282577
0.274666
0.258185
0.22467
0.207143
0.186284
0.154338
0.125211
0.113173
0.0953489
0.0707018
0.0599448
0.0560823
0.0575052
0.0589072
0.0752537
0.232244
0.310514
0.296905
0.299317
0.316093
0.31908
0.312497
0.309436
0.359686
0.383108
0.384181
0.370161
0.34727
0.340521
0.363533
0.572983
0.56679
0.435641
0.252006
0.188955
0.176648
0.159982
0.0153531
0.0150933
0.015154
0.0149546
0.0144904
0.014009
0.0132811
0.0129626
0.0121461
0.0116174
0.0107043
0.0101953
0.00981584
0.00971452
0.00985049
0.0103614
0.0109473
0.0111193
0.011165
0.0107059
0.00973658
0.00887294
0.00806561
0.00730914
0.00675637
0.00628905
0.0059638
0.00568555
0.0054174
0.00519622
0.00482381
0.00437297
0.00378405
0.00340043
0.00306234
0.00293676
0.00274743
0.00266325
0.00258592
0.00256466
0.00255863
0.00255707
0.00255287
0.0025003
0.00227276
0.00202752
0.00181128
0.00164958
0.00152678
0.00142459
0.00131461
0.00123544
0.00114692
0.00109814
0.00104656
0.00102981
0.00101556
0.00101181
0.00102074
0.00111448
0.00134682
0.00153034
0.00167924
0.00176652
0.00177369
0.00177539
0.00177205
0.00189889
0.00220184
0.00240814
0.00258527
0.002639
0.00264538
0.0025452
0.00231167
0.00211215
0.00195069
0.0018382
0.00177586
0.0017355
0.00171253
0.00169736
0.00168467
0.00166043
0.00159699
0.00153662
0.00148153
0.00145372
0.00143585
0.00143747
0.00144151
0.00144653
0.00147463
0.00148664
0.00151593
0.00152752
0.00154892
0.0015584
0.00156957
0.00158322
0.00160405
0.00165333
0.0016982
0.00179887
0.00190322
0.00214832
0.00238428
0.00268443
0.00344824
0.0040021
0.00512612
0.00646206
0.00803748
0.0105133
0.0128449
0.0155052
0.0187286
0.0212742
0.0232057
0.0253035
0.0259381
0.0258095
0.0253105
0.0239264
0.0221704
0.0199261
0.0172591
0.014954
0.0125118
0.0104073
0.00877725
0.00731364
0.00625789
0.00555322
0.0050068
0.00456012
0.00446393
0.00445825
0.00453972
0.00475397
0.00541173
0.00612222
0.00817107
0.0105305
0.0148965
0.0209874
0.0308303
0.045337
0.0614045
0.0899755
0.118674
0.157229
0.204579
0.245504
0.295896
0.352881
0.381439
0.414044
0.430429
0.427769
0.414291
0.396752
0.370258
0.343116
0.303892
0.272077
0.256541
0.226766
0.198995
0.172505
0.155679
0.117525
0.0842046
0.0688538
0.0644304
0.0637438
0.0635621
0.0977051
0.238938
0.300851
0.287907
0.28326
0.282251
0.294607
0.297125
0.29992
0.359716
0.43214
0.425338
0.426707
0.409952
0.361065
0.365184
0.519792
0.533496
0.486897
0.305273
0.202915
0.186898
0.166876
0.00400233
0.00418283
0.0044468
0.00455826
0.00460044
0.0046712
0.00473925
0.00489241
0.00502881
0.00515295
0.00530273
0.00532828
0.00535879
0.00536267
0.00536883
0.0053871
0.00545154
0.00553493
0.00565997
0.00597755
0.0062623
0.0067436
0.00745062
0.00845092
0.0101012
0.0116062
0.0130746
0.013714
0.0138882
0.013833
0.0136056
0.0124447
0.0109972
0.00941893
0.00826427
0.00722542
0.0065675
0.00605456
0.00570669
0.00549019
0.00532849
0.00527752
0.00523596
0.00520993
0.00510558
0.00491208
0.00466704
0.00443185
0.00432494
0.00430958
0.00432048
0.0044012
0.00450204
0.00482485
0.00503217
0.005434
0.00569744
0.00615753
0.00688269
0.00740955
0.00822697
0.0086591
0.00901222
0.00928758
0.00934399
0.00948759
0.00974534
0.0101951
0.0106898
0.0108398
0.0109717
0.010956
0.0107601
0.0102308
0.00920832
0.00876654
0.00800141
0.00746586
0.0071187
0.00654714
0.00630175
0.00590879
0.00554848
0.00520259
0.00466623
0.00430718
0.00385069
0.00352616
0.0032503
0.00301391
0.00287965
0.00274778
0.00266994
0.00259032
0.0025542
0.00249961
0.0024574
0.00246222
0.00249499
0.00257798
0.00270322
0.00304404
0.00331586
0.0039638
0.00458988
0.00595754
0.00713043
0.00900832
0.0120461
0.0144395
0.0193776
0.0235752
0.0297976
0.036345
0.0426423
0.0502209
0.0561705
0.0609376
0.0653218
0.0669546
0.0666521
0.0653589
0.0626487
0.0575203
0.0519979
0.0458726
0.0397661
0.0342724
0.0291919
0.0250128
0.0212524
0.0185066
0.0162877
0.0147329
0.0135117
0.0129703
0.0130143
0.0133673
0.0143383
0.0160158
0.0201892
0.0249964
0.0335882
0.045743
0.0618101
0.0877044
0.117544
0.155399
0.206964
0.263718
0.331936
0.404
0.460829
0.501034
0.531412
0.536435
0.534698
0.527005
0.510495
0.476424
0.443143
0.416555
0.37666
0.341745
0.298643
0.281074
0.256703
0.230657
0.202895
0.186718
0.174507
0.141609
0.106456
0.0909516
0.0800511
0.072208
0.0713891
0.113897
0.230903
0.299793
0.283133
0.282507
0.297593
0.274841
0.277637
0.291829
0.325961
0.453046
0.51867
0.543434
0.452106
0.375842
0.361912
0.459624
0.495987
0.475981
0.351986
0.228864
0.193588
0.17941
0.0308785
0.0310994
0.0318519
0.031996
0.0321375
0.0325308
0.0328509
0.0337477
0.0341473
0.0351085
0.0353521
0.0355543
0.0354318
0.0354559
0.035389
0.0353652
0.035444
0.0356249
0.0362809
0.0370513
0.0384913
0.0404909
0.0432507
0.0470512
0.0508911
0.0535586
0.0546147
0.0546604
0.0543601
0.0531394
0.0496567
0.0453041