/*--------------------------------*- C++ -*----------------------------------*\
| =========                 |                                                 |
| \\      /  F ield         | OpenFOAM: The Open Source CFD Toolbox           |
|  \\    /   O peration     | Version:  2.4.0                                 |
|   \\  /    A nd           | Web:      www.OpenFOAM.org                      |
|    \\/     M anipulation  |                                                 |
\*---------------------------------------------------------------------------*/
FoamFile
{
    version     2.0;
    format      ascii;
    class       volScalarField;
    location    "0.6";
    object      nuSgs;
}
// * * * * * * * * * * * * * * * * * * * * * * * * * * * * * * * * * * * * * //

dimensions      [0 2 -1 0 0 0 0];

internalField   nonuniform List<scalar> 
8800
(
0.00133024
0.00150692
0.00138613
0.00124049
0.00110817
0.00106009
0.000990586
0.000956746
0.000942851
0.000877764
0.000920628
0.000829552
0.000909483
0.000799214
0.000891006
0.000783333
0.000870415
0.000766995
0.000848202
0.000760659
0.000553478
0.000980514
0.00107576
0.00108674
0.00105466
0.00104038
0.00100088
0.000971665
0.000966792
0.000906658
0.00094087
0.000866247
0.000929621
0.000844025
0.000912927
0.000834049
0.000898274
0.000819843
0.000891025
0.000837196
0.000137146
0.000394881
0.000581756
0.00066221
0.000698389
0.000744703
0.00075012
0.000757137
0.0007686
0.000746571
0.000776645
0.00073456
0.000782387
0.000730441
0.000782308
0.000728619
0.000785834
0.00072531
0.000790862
0.000750609
2.80367e-05
0.000118953
0.000242175
0.000308019
0.000347873
0.000405182
0.000426096
0.000454182
0.00048576
0.000486478
0.000521466
0.000514322
0.000549308
0.000533734
0.000570422
0.0005472
0.000593544
0.000565769
0.000599235
0.00059019
5.49459e-06
3.01001e-05
8.79809e-05
0.000109651
0.000145432
0.000177906
0.000194502
0.000224838
0.000237813
0.000262022
0.000271936
0.000298297
0.000300347
0.000322155
0.000324479
0.000337163
0.000341625
0.000367521
0.000358332
0.000385743
2.97075e-06
1.07411e-05
4.33816e-05
5.15711e-05
9.01817e-05
9.90622e-05
0.000128298
0.000147103
0.000151505
0.000179056
0.00018502
0.000203123
0.000213971
0.00024048
0.000247546
0.000266408
0.000272879
0.000293002
0.00029843
0.000314339
3.41216e-06
8.64197e-06
2.92366e-05
3.12169e-05
5.63285e-05
6.07202e-05
0.000119864
0.000129261
0.00019358
0.000215914
0.000262529
0.000265817
0.000289842
0.000288131
0.000301139
0.000299215
0.000313141
0.000306486
0.000305449
0.00030296
3.73257e-06
4.29966e-06
8.67669e-06
9.76857e-06
1.49331e-05
1.54869e-05
3.62667e-05
3.58492e-05
0.000109117
0.000103413
0.000196954
0.000207328
0.00023146
0.000253944
0.000254941
0.000253044
0.000254034
0.000267448
0.000249699
0.000248666
2.52509e-06
4.9828e-06
1.24498e-05
1.61049e-05
3.51111e-05
3.70132e-05
5.4336e-05
6.07884e-05
6.10046e-05
6.67215e-05
7.6945e-05
8.25615e-05
9.31605e-05
0.000125308
0.000125273
0.000135298
0.000136734
0.000155243
0.000152418
0.00015625
2.45183e-06
4.165e-06
8.51899e-06
1.37296e-05
2.70891e-05
3.64685e-05
7.07171e-05
7.39948e-05
0.000106093
0.00011247
0.000147269
0.000145955
0.000164525
0.000159186
0.000163454
0.000159477
0.000168368
0.000166102
0.000167231
0.000166492
3.17383e-06
6.56874e-06
9.18568e-06
1.41885e-05
1.6925e-05
2.27707e-05
3.62022e-05
3.97782e-05
7.18617e-05
7.32997e-05
0.000101399
0.000109295
0.000117663
0.00013593
0.000142432
0.00014313
0.000154961
0.000154136
0.000151569
0.000151013
2.3593e-06
5.32833e-06
5.8839e-06
8.87894e-06
9.0809e-06
1.09217e-05
1.23971e-05
1.32819e-05
2.10148e-05
2.04153e-05
2.42328e-05
3.21134e-05
3.16657e-05
4.46557e-05
4.34344e-05
4.64193e-05
5.53895e-05
5.36511e-05
5.28041e-05
5.60579e-05
2.10779e-06
3.00959e-06
5.15104e-06
5.52344e-06
7.01553e-06
7.39575e-06
7.63198e-06
9.7967e-06
1.05309e-05
1.20461e-05
1.38249e-05
1.40897e-05
1.73658e-05
1.85952e-05
1.98996e-05
2.25996e-05
2.30391e-05
2.67434e-05
2.81229e-05
2.85541e-05
2.17395e-06
3.33171e-06
1.01428e-05
1.04788e-05
1.55982e-05
1.77371e-05
1.83234e-05
2.78707e-05
2.78313e-05
3.41091e-05
3.78629e-05
3.76992e-05
4.95648e-05
4.96976e-05
5.30062e-05
6.3449e-05
6.23745e-05
7.23535e-05
7.77667e-05
7.93948e-05
2.42731e-06
7.28105e-06
2.92395e-05
3.37465e-05
4.97548e-05
5.89919e-05
6.29272e-05
8.71299e-05
8.87999e-05
0.000103069
0.000110872
0.000113233
0.000136627
0.000138637
0.000144138
0.000163514
0.000163635
0.000180579
0.000188575
0.000201924
5.67737e-06
2.97645e-05
8.89334e-05
0.000107266
0.000147372
0.000171717
0.000182235
0.000224861
0.000230629
0.000253651
0.000266026
0.000271396
0.000302734
0.000306474
0.000314357
0.000338374
0.000339808
0.000360392
0.000369037
0.000387222
2.83846e-05
0.000117897
0.0002507
0.00029318
0.000364745
0.000397767
0.000417985
0.000464362
0.000470517
0.000493091
0.000504001
0.000510206
0.000534477
0.00053477
0.000541453
0.000554574
0.000554404
0.000566458
0.000570785
0.000578858
0.000137651
0.000392031
0.000587437
0.000651488
0.000711476
0.000735212
0.000752901
0.000757498
0.00075963
0.000757376
0.00075504
0.000748717
0.000747349
0.000739365
0.000738272
0.000731071
0.000729234
0.000726333
0.00072351
0.000717968
0.000553385
0.000979416
0.00107652
0.00108299
0.00106225
0.00103004
0.00101035
0.000963297
0.000957469
0.00092363
0.000913048
0.000895909
0.000877488
0.000868287
0.000859323
0.00083627
0.000838811
0.000821143
0.000814706
0.000802467
0.00132917
0.00150471
0.00138604
0.00123515
0.00111374
0.00104636
0.00100106
0.000948133
0.000938092
0.000894622
0.000888669
0.00086722
0.00085102
0.000836666
0.000827338
0.00080187
0.000803635
0.00077589
0.000766677
0.000738346
0.000333245
0.000282823
0.000258237
0.000230758
0.000225761
0.000213485
0.000210735
0.0001982
0.000194619
0.000184147
0.000182827
0.000175634
0.000175502
0.000170748
0.000173214
0.000171304
0.000176722
0.000176969
0.000184344
0.000185264
0.000192167
0.000192241
0.000196842
0.000195403
0.000198379
0.000196109
0.00019861
0.000196178
0.000198672
0.000195677
0.000197282
0.000192491
0.000192117
0.000183387
0.000180925
0.000169897
0.00016921
0.000161866
0.000163692
0.000157843
0.000162203
0.000156513
0.000160549
0.000153112
0.000153976
0.000145527
0.0001456
0.000139414
0.000141351
0.000137983
0.000142153
0.000140925
0.000146396
0.000145663
0.000150907
0.000149967
0.00015433
0.00015301
0.000156216
0.000154822
0.000157146
0.000155771
0.000157309
0.000156039
0.000157221
0.000156238
0.000157321
0.000156566
0.000157639
0.000157027
0.000157879
0.000157372
0.000158085
0.000157806
0.000158025
0.00015862
0.000160983
0.000162364
0.000165616
0.000165331
0.000167915
0.00016663
0.000165834
0.000160421
0.00014543
0.000130025
0.000115929
0.000111501
0.000104789
0.000102406
9.73218e-05
9.448e-05
9.02742e-05
8.6984e-05
8.33534e-05
8.04459e-05
7.67463e-05
7.45146e-05
7.11831e-05
6.95386e-05
6.69786e-05
6.58532e-05
6.44392e-05
6.38351e-05
6.361e-05
6.36932e-05
6.45018e-05
6.68171e-05
7.24932e-05
7.93778e-05
9.32703e-05
0.000106187
0.000115307
0.00012086
0.000123485
0.000123507
0.000123275
0.000122088
0.000118233
0.000111189
0.000105427
9.96504e-05
9.68832e-05
9.72995e-05
0.000101199
0.000118972
0.00014294
0.000152685
0.00015323
0.000151752
0.000146778
0.000139224
0.000128051
0.000118654
0.000108236
0.000103701
9.71073e-05
9.31788e-05
9.15471e-05
8.97908e-05
8.63595e-05
8.51683e-05
8.54154e-05
8.54344e-05
8.58824e-05
8.69632e-05
9.23575e-05
9.55344e-05
0.000101261
0.000103643
0.000105539
0.000104639
0.00010416
0.000102971
0.000101171
9.6678e-05
9.41277e-05
8.80625e-05
8.10529e-05
7.03293e-05
5.79082e-05
4.73908e-05
3.86047e-05
3.39182e-05
3.11788e-05
3.09252e-05
2.98691e-05
2.98462e-05
2.97204e-05
2.98895e-05
2.95761e-05
2.98778e-05
3.19076e-05
3.14282e-05
3.08334e-05
3.1114e-05
3.48379e-05
4.13801e-05
5.00076e-05
7.36295e-05
0.000119247
0.000137812
0.000143399
0.000142538
0.000136256
0.000122268
0.000107638
9.48694e-05
8.76588e-05
8.69273e-05
8.9091e-05
9.83454e-05
0.00010757
0.00010757
0.000107582
0.000110846
0.000114198
0.0001182
0.000143794
0.00032875
0.000404108
0.000359258
0.000341444
0.000310093
0.000300752
0.00027969
0.00027464
0.000260217
0.000257328
0.000246465
0.000244253
0.000233258
0.00023096
0.000220488
0.000219663
0.000213175
0.000214279
0.000209773
0.00021159
0.000207942
0.000209513
0.000205594
0.00020627
0.000202066
0.000202465
0.000198481
0.000199463
0.000196526
0.000198961
0.000197217
0.000200731
0.000199071
0.00020236
0.000199492
0.000201473
0.000196933
0.000197609
0.000192151
0.000192685
0.000187603
0.000188708
0.000184645
0.000185772
0.000182517
0.000182712
0.000180034
0.000179346
0.000176984
0.00017611
0.000175166
0.000173655
0.000173919
0.000173014
0.000173759
0.000172628
0.000173896
0.000172612
0.000174098
0.000172395
0.000173883
0.000171794
0.00017339
0.000170991
0.000172703
0.00017009
0.0001719
0.000169085
0.000170953
0.00016801
0.000169838
0.000166722
0.00016848
0.000165204
0.000167018
0.000163866
0.000166433
0.000163753
0.000166868
0.000164829
0.000170422
0.00016968
0.000176558
0.000174176
0.000178458
0.000173062
0.000169949
0.000156865
0.000144034
0.000125586
0.000115233
0.000105629
9.98532e-05
9.41338e-05
9.01183e-05
8.55366e-05
8.27017e-05
7.89854e-05
7.72042e-05
7.43327e-05
7.3069e-05
7.18209e-05
7.17542e-05
7.17714e-05
7.25574e-05
7.40038e-05
7.76674e-05
8.19171e-05
8.7818e-05
9.7463e-05
0.000107804
0.000116149
0.000122442
0.000125793
0.000125864
0.000125545
0.000124345
0.000121484
0.000114992
0.000105834
9.80771e-05
9.34651e-05
8.52783e-05
7.69499e-05
7.43402e-05
7.43639e-05
7.69087e-05
8.46365e-05
0.000107075
0.000134544
0.000143299
0.00014407
0.000142671
0.000137925
0.000134203
0.000125233
0.000120738
0.000114857
0.000107278
0.000104092
0.000102627
0.000100704
9.8468e-05
9.92188e-05
0.000100098
0.000102335
0.000103421
0.000105617
0.000107277
0.000107114
0.000106977
0.00010642
0.000105112
0.000102824
0.000100072
9.41763e-05
9.01843e-05
8.56452e-05
7.68157e-05
6.58307e-05
5.2045e-05
4.14664e-05
3.41748e-05
3.10242e-05
2.91795e-05
2.87374e-05
2.90296e-05
2.90531e-05
2.9159e-05
2.94952e-05
3.02114e-05
3.03892e-05
3.1426e-05
3.29007e-05
3.24027e-05
3.16288e-05
3.19181e-05
3.5228e-05
4.12327e-05
4.88191e-05
7.19394e-05
0.000125205
0.000140809
0.000146589
0.00014459
0.000137106
0.000122108
0.000106765
9.38363e-05
8.24995e-05
7.99927e-05
8.10201e-05
8.51714e-05
9.92607e-05
0.000105512
0.000106427
0.000108723
0.000114678
0.00011643
0.000139837
0.000240132
0.000376676
0.000343882
0.000333298
0.000310426
0.000303049
0.000285514
0.000280735
0.000267971
0.000264924
0.000255222
0.000253509
0.000246826
0.000245993
0.000240258
0.000239057
0.000232828
0.000231219
0.000224969
0.000223037
0.000217045
0.000214458
0.000207414
0.000203969
0.000195503
0.000191472
0.000182658
0.000178626
0.000172351
0.000171532
0.000171148
0.000173182
0.000175188
0.000180632
0.000183407
0.000188425
0.000189776
0.000190895
0.000190907
0.000190379
0.000190188
0.000188344
0.000188362
0.000186258
0.000186747
0.00018404
0.000184678
0.00018148
0.000182216
0.000178804
0.000179781
0.000176251
0.000177493
0.000174017
0.000175613
0.00017227
0.000174107
0.000170909
0.0001729
0.000169761
0.000171764
0.000168622
0.000170562
0.000167451
0.000169255
0.000166203
0.000167867
0.000164882
0.00016641
0.000163448
0.000164822
0.000161866
0.000163
0.000160099
0.000161048
0.000158403
0.000159474
0.00015726
0.000158964
0.000157602
0.000160672
0.000160313
0.00016453
0.000165212
0.000170283
0.000170374
0.000171082
0.000169907
0.000167426
0.00016204
0.000153191
0.000142118
0.000131398
0.000121526
0.000114263
0.00010666
0.000102582
9.86983e-05
9.67665e-05
9.5323e-05
9.53618e-05
9.55977e-05
9.70456e-05
9.81071e-05
0.000101276
0.000103439
0.000108043
0.000112034
0.000117988
0.000122854
0.000127396
0.000128698
0.000128945
0.000128708
0.000127213
0.000124828
0.000120381
0.000111087
0.000101856
9.45394e-05
8.15939e-05
7.02518e-05
6.43254e-05
5.75681e-05
5.63002e-05
5.61078e-05
5.67157e-05
5.91419e-05
6.48527e-05
7.84534e-05
0.000106052
0.000126258
0.000135099
0.00013543
0.00013455
0.000132141
0.000127224
0.000124706
0.000120583
0.000117493
0.000113903
0.000112763
0.000111843
0.000109758
0.000109617
0.000109389
0.000109371
0.00010819
0.000108155
0.000106975
0.000105928
0.000102759
0.000100365
9.59765e-05
9.23022e-05
8.55047e-05
8.01211e-05
7.13134e-05
5.68306e-05
4.44306e-05
3.58231e-05
3.07303e-05
2.7667e-05
2.73921e-05
2.70878e-05
2.75882e-05
2.82582e-05
2.88684e-05
2.90338e-05
3.01045e-05
3.09736e-05
3.13051e-05
3.26258e-05
3.35288e-05
3.29819e-05
3.27209e-05
3.31175e-05
3.54055e-05
4.15795e-05
4.87498e-05
7.10012e-05
0.0001328
0.000144344
0.000149743
0.00014746
0.000142332
0.000126009
0.000109236
9.72068e-05
8.36753e-05
7.67111e-05
7.71297e-05
7.92741e-05
8.65833e-05
0.000100925
0.000104586
0.000105694
0.000113928
0.000115169
0.000130006
0.000183034
0.000308802
0.000292366
0.000282062
0.000269652
0.000262442
0.000252404
0.000244868
0.000237139
0.000230159
0.000223459
0.00021719
0.000212947
0.000210325
0.000209926
0.000209181
0.000209388
0.000208252
0.00020756
0.00020343
0.000200828
0.000192661
0.000188223
0.000176736
0.000171307
0.000157747
0.000151957
0.000138827
0.000133971
0.000125415
0.000124404
0.000122966
0.000125192
0.00012763
0.000137066
0.000142123
0.000154811
0.000158574
0.000167595
0.000168282
0.00017182
0.000170768
0.000173239
0.000171173
0.000172816
0.000169918
0.000170656
0.000167079
0.000167075
0.000163115
0.000162757
0.000158485
0.00015803
0.000153837
0.000153437
0.000149656
0.000149462
0.000146254
0.000146284
0.000143448
0.000143549
0.000140962
0.000141056
0.000138766
0.000138827
0.000136809
0.000136921
0.000135191
0.000135354
0.000133873
0.000133993
0.000132696
0.000132694
0.000131476
0.000131434
0.000130361
0.000130517
0.000129903
0.000130636
0.0001308
0.000132319
0.000133453
0.000136632
0.00013951
0.000143504
0.000150538
0.00015528
0.00016009
0.000161924
0.00016169
0.000160354
0.000158469
0.000154797
0.000150983
0.000146835
0.000143565
0.000139584
0.000137077
0.00013439
0.000133037
0.000131764
0.000130926
0.000130934
0.000130905
0.000131504
0.000131828
0.000132951
0.000133391
0.000133666
0.000133372
0.000133092
0.000131952
0.000129643
0.000127078
0.000121026
0.00011312
0.000103168
9.06413e-05
7.75708e-05
6.45372e-05
5.38045e-05
4.75179e-05
4.31347e-05
3.90388e-05
3.78443e-05
3.78117e-05
3.82704e-05
4.06061e-05
4.37121e-05
4.96813e-05
6.00812e-05
7.48761e-05
9.93916e-05
0.00011657
0.00012402
0.000126455
0.00012597
0.000124025
0.000122799
0.000120559
0.000119038
0.000116067
0.000115516
0.000113569
0.000112771
0.000111099
0.000110348
0.000108329
0.000106886
0.000103858
0.000101227
9.73433e-05
9.29616e-05
8.66505e-05
8.01941e-05
7.03223e-05
5.64151e-05
4.51096e-05
3.56082e-05
2.99819e-05
2.69489e-05
2.53657e-05
2.5214e-05
2.59128e-05
2.62599e-05
2.72909e-05
2.81731e-05
2.96343e-05
3.02227e-05
3.22498e-05
3.33313e-05
3.33115e-05
3.40321e-05
3.5648e-05
3.55566e-05
3.54039e-05
3.55614e-05
3.61185e-05
4.00101e-05
4.67975e-05
7.82785e-05
0.000140405
0.000147382
0.000154994
0.000152646
0.000151911
0.000135851
0.000121594
0.000113185
0.000105457
8.72472e-05
8.1478e-05
8.14282e-05
8.3297e-05
9.10474e-05
0.000102585
0.000104025
0.000113286
0.000113741
0.000120907
0.000149346
0.000206726
0.000203234
0.000195377
0.000193059
0.00018712
0.000185165
0.000179374
0.000177188
0.000170797
0.00016806
0.000160734
0.000158105
0.000151504
0.000150133
0.000147677
0.000148576
0.000147409
0.000148098
0.000146139
0.000145576
0.000141744
0.000139547
0.000132791
0.000129668
0.000121765
0.000118601
0.000111088
0.000108127
0.000101153
9.90059e-05
9.40027e-05
9.33922e-05
9.25985e-05
9.39079e-05
9.53188e-05
0.0001015
0.000105052
0.000114442
0.000117764
0.000125666
0.000127373
0.000131612
0.000131377
0.000132695
0.00013155
0.000131718
0.000129908
0.000129251
0.000126101
0.00012479
0.000120696
0.000119062
0.0001149
0.000113404
0.000109795
0.000108526
0.000105302
0.000104154
0.00010119
0.000100093
9.74183e-05
9.6325e-05
9.3872e-05
9.28197e-05
9.04503e-05
8.95062e-05
8.744e-05
8.67246e-05
8.53569e-05
8.49733e-05
8.42915e-05
8.41447e-05
8.37436e-05
8.37057e-05
8.35869e-05
8.36633e-05
8.38567e-05
8.42996e-05
8.52104e-05
8.63891e-05
8.89201e-05
9.11536e-05
9.60207e-05
9.93517e-05
0.000106432
0.000111054
0.000120496
0.000126618
0.00013602
0.000141769
0.000145962
0.000147197
0.000147095
0.000146117
0.000145485
0.000144024
0.000143499
0.000142175
0.000141914
0.000141055
0.000140937
0.000140351
0.000140042
0.000139351
0.000138748
0.000137561
0.000135563
0.000134088
0.000130661
0.000126705
0.000122477
0.000114069
0.000105594
9.43647e-05
8.07346e-05
6.86583e-05
5.68219e-05
4.86769e-05
4.155e-05
3.61795e-05
3.33235e-05
3.02267e-05
2.8591e-05
2.76453e-05
2.75262e-05
2.7683e-05
2.84926e-05
2.9708e-05
3.22169e-05
3.65075e-05
4.44202e-05
5.36339e-05
6.91774e-05
8.50834e-05
9.58228e-05
0.000108161
0.000112107
0.000114368
0.000114698
0.000114434
0.000113151
0.000112163
0.000110813
0.00010894
0.000107005
0.000103811
0.000101104
9.63363e-05
9.30324e-05
8.62868e-05
8.00112e-05
7.14829e-05
6.01082e-05
4.96161e-05
4.04837e-05
3.30406e-05
2.81144e-05
2.48414e-05
2.37151e-05
2.36884e-05
2.38638e-05
2.44731e-05
2.59417e-05
2.68269e-05
2.89816e-05
3.14699e-05
3.29117e-05
3.37915e-05
3.66137e-05
3.70368e-05
3.65987e-05
3.72076e-05
3.77619e-05
3.82974e-05
3.76392e-05
3.78498e-05
3.77729e-05
3.94663e-05
4.5771e-05
0.000104612
0.000144168
0.000151478
0.000163017
0.000162655
0.000160189
0.000142751
0.000139576
0.000138909
0.000155386
0.000149866
0.000118616
9.55368e-05
8.90365e-05
8.96111e-05
9.92779e-05
0.000101368
0.000113022
0.00011259
0.000114072
0.000128546
0.000169465
0.000166936
0.000161737
0.000159502
0.000154664
0.000152695
0.000148114
0.000146059
0.000141183
0.000138885
0.000133925
0.000131626
0.000127366
0.000125445
0.000122132
0.00012096
0.000118589
0.00011761
0.000115535
0.000114404
0.000112097
0.000110767
0.000108308
0.000107014
0.000104644
0.000103006
9.93091e-05
9.61188e-05
9.04508e-05
8.79533e-05
8.35947e-05
8.03954e-05
7.58921e-05
7.4047e-05
7.33891e-05
7.39362e-05
7.49595e-05
7.83494e-05
8.02226e-05
8.43044e-05
8.58509e-05
8.83968e-05
8.89636e-05
8.93518e-05
8.92006e-05
8.89301e-05
8.78851e-05
8.69265e-05
8.45365e-05
8.28688e-05
7.97944e-05
7.76189e-05
7.51315e-05
7.29789e-05
7.11751e-05
6.94919e-05
6.79869e-05
6.66739e-05
6.52343e-05
6.39283e-05
6.27399e-05
6.13411e-05
6.01654e-05
5.87634e-05
5.71746e-05
5.57898e-05
5.4048e-05
5.27459e-05
5.1329e-05
5.04284e-05
4.94947e-05
4.91295e-05
4.87262e-05
4.86863e-05
4.8714e-05
4.88235e-05
4.91304e-05
4.94425e-05
5.0168e-05
5.1044e-05
5.22308e-05
5.44975e-05
5.63159e-05
5.99458e-05
6.34205e-05
6.8032e-05
7.30603e-05
7.86868e-05
8.55193e-05
9.05961e-05
9.84078e-05
0.00010476
0.000110544
0.000115391
0.000118753
0.00012118
0.000122781
0.00012369
0.000124161
0.000124011
0.000123659
0.000122586
0.000121753
0.000119489
0.000117806
0.000114125
0.000109956
0.000105805
9.85113e-05
9.18044e-05
8.33578e-05
7.3161e-05
6.49209e-05
5.59686e-05
4.85184e-05
4.17984e-05
3.56585e-05
3.19163e-05
2.77055e-05
2.53896e-05
2.40214e-05
2.24861e-05
2.18916e-05
2.1709e-05
2.16884e-05
2.18689e-05
2.24533e-05
2.30243e-05
2.38548e-05
2.5595e-05
2.83995e-05
3.16369e-05
3.88175e-05
4.74243e-05
5.63945e-05
6.64546e-05
7.5015e-05
8.16869e-05
8.63972e-05
8.99601e-05
9.06989e-05
9.03531e-05
8.94516e-05
8.69638e-05
8.45759e-05
8.02934e-05
7.51793e-05
7.04098e-05
6.3002e-05
5.50717e-05
4.75382e-05
4.06631e-05
3.39757e-05
2.89225e-05
2.50855e-05
2.30373e-05
2.18627e-05
2.19099e-05
2.22505e-05
2.32744e-05
2.41294e-05
2.69748e-05
3.01855e-05
3.2057e-05
3.63865e-05
3.89221e-05
4.02367e-05
4.17158e-05
4.32997e-05
4.30395e-05
4.18521e-05
4.19683e-05
4.17885e-05
4.16757e-05
4.08606e-05
4.12295e-05
4.19198e-05
4.19919e-05
4.86866e-05
0.000117879
0.000142308
0.000162516
0.00016971
0.000168745
0.000161722
0.00014687
0.00014798
0.000149576
0.000184181
0.000196459
0.000201982
0.000158826
0.000119626
9.71856e-05
0.000102862
0.000101848
0.000111286
0.000111265
0.000111019
0.000117607
0.000162899
0.000159456
0.000156696
0.000153544
0.00015065
0.000147658
0.000144449
0.000141096
0.000137895
0.000134971
0.000132265
0.000129539
0.000126821
0.000123429
0.000120017
0.000116769
0.000113873
0.000111257
0.000109637
0.00010798
0.000106826
0.000105507
0.000104301
0.000103105
0.000101807
9.92117e-05
9.478e-05
8.94851e-05
8.35681e-05
7.85963e-05
7.36792e-05
6.91749e-05
6.44e-05
5.99277e-05
5.68567e-05
5.55521e-05
5.5365e-05
5.56361e-05
5.74857e-05
6.10264e-05
6.36522e-05
6.5455e-05
6.62122e-05
6.64048e-05
6.61294e-05
6.5221e-05
6.3814e-05
6.27252e-05
6.08445e-05
5.90422e-05
5.67022e-05
5.43827e-05
5.22073e-05
5.00391e-05
4.87281e-05
4.74335e-05
4.67102e-05
4.58754e-05
4.50156e-05
4.4035e-05
4.30788e-05
4.18868e-05
4.07986e-05
3.95282e-05
3.81334e-05
3.67668e-05
3.51801e-05
3.38188e-05
3.23216e-05
3.12386e-05
3.02103e-05
2.97598e-05
2.94962e-05
2.94934e-05
2.96053e-05
2.98952e-05
3.04799e-05
3.08318e-05
3.13321e-05
3.20493e-05
3.25706e-05
3.37133e-05
3.46214e-05
3.6638e-05
3.81444e-05
4.07822e-05
4.40655e-05
4.62616e-05
5.12029e-05
5.43597e-05
5.8213e-05
6.29953e-05
6.59183e-05
7.05156e-05
7.30642e-05
7.57838e-05
7.78418e-05
7.92393e-05
8.02103e-05
8.05425e-05
8.02441e-05
7.94702e-05
7.855e-05
7.58909e-05
7.41633e-05
7.06616e-05
6.67787e-05
6.31953e-05
5.8161e-05
5.37441e-05
4.85667e-05
4.35788e-05
3.87792e-05
3.38741e-05
3.02079e-05
2.61285e-05
2.33863e-05
2.14999e-05
1.93626e-05
1.88108e-05
1.82921e-05
1.79216e-05
1.81001e-05
1.82344e-05
1.84044e-05
1.8698e-05
1.9425e-05
2.02512e-05
2.08492e-05
2.15926e-05
2.28221e-05
2.37278e-05
2.60824e-05
2.93614e-05
3.28394e-05
3.97412e-05
4.3623e-05
4.9183e-05
5.30684e-05
5.5686e-05
5.72295e-05
5.72475e-05
5.66078e-05
5.477e-05
5.2806e-05
4.92011e-05
4.51644e-05
4.09268e-05
3.62698e-05
3.17663e-05
2.75338e-05
2.43387e-05
2.20208e-05
2.05796e-05
2.03805e-05
2.05772e-05
2.108e-05
2.2106e-05
2.52131e-05
2.78984e-05
3.02557e-05
3.73029e-05
4.07294e-05
4.42159e-05
4.76555e-05
5.01595e-05
5.04616e-05
5.04938e-05
5.03043e-05
4.96853e-05
4.69717e-05
4.56104e-05
4.4733e-05
4.21767e-05
4.15425e-05
4.1642e-05
4.3522e-05
4.50538e-05
5.40724e-05
0.000126868
0.000143356
0.000172386
0.000171419
0.000165681
0.000159212
0.000154407
0.000160536
0.000156751
0.000175316
0.00018552
0.000225062
0.00022186
0.000195641
0.000126025
0.000116838
0.000103756
0.000105805
0.000110335
0.000109484
0.000112089
0.000134901
0.000133346
0.000130945
0.000130094
0.000128352
0.000127876
0.000126652
0.000125857
0.000123983
0.000122698
0.000120106
0.000116737
0.000111711
0.000106862
0.000101523
9.72262e-05
9.27217e-05
8.97756e-05
8.71703e-05
8.58696e-05
8.48348e-05
8.44403e-05
8.42894e-05
8.43702e-05
8.44019e-05
8.16655e-05
7.64403e-05
7.07531e-05
6.64325e-05
6.24051e-05
5.93469e-05
5.65755e-05
5.42797e-05
5.20553e-05
4.93473e-05
4.68711e-05
4.51376e-05
4.47938e-05
4.48204e-05
4.56806e-05
4.62625e-05
4.65968e-05
4.64893e-05
4.59209e-05
4.48479e-05
4.38983e-05
4.31142e-05
4.20937e-05
4.07369e-05
3.90405e-05
3.69767e-05
3.51285e-05
3.35085e-05
3.21742e-05
3.13725e-05
3.07573e-05
3.04058e-05
3.00538e-05
2.93716e-05
2.87286e-05
2.77123e-05
2.6816e-05
2.57692e-05
2.49004e-05
2.38886e-05
2.30258e-05
2.19709e-05
2.1019e-05
1.99432e-05
1.90624e-05
1.81688e-05
1.7622e-05
1.72742e-05
1.7161e-05
1.72144e-05
1.73559e-05
1.79065e-05
1.82628e-05
1.89658e-05
1.94068e-05
1.98604e-05
2.07777e-05
2.13824e-05
2.22949e-05
2.37531e-05
2.48764e-05
2.72989e-05
2.86062e-05
3.11901e-05
3.30532e-05
3.54458e-05
3.81675e-05
3.95157e-05
4.24276e-05
4.40761e-05
4.55499e-05
4.71352e-05
4.78858e-05
4.8674e-05
4.88319e-05
4.86468e-05
4.8227e-05
4.7426e-05
4.61272e-05
4.47268e-05
4.26833e-05
4.05766e-05
3.79835e-05
3.52867e-05
3.23613e-05
2.92902e-05
2.64705e-05
2.35674e-05
2.11396e-05
1.92545e-05
1.73504e-05
1.65086e-05
1.58416e-05
1.54082e-05
1.55506e-05
1.56982e-05
1.5762e-05
1.63251e-05
1.65579e-05
1.65781e-05
1.6868e-05
1.69228e-05
1.7077e-05
1.72658e-05
1.77836e-05
1.86134e-05
1.90813e-05
2.01665e-05
2.14735e-05
2.26297e-05
2.56549e-05
2.71465e-05
2.94066e-05
3.22701e-05
3.33594e-05
3.40778e-05
3.40279e-05
3.35705e-05
3.2041e-05
3.08807e-05
2.83934e-05
2.62558e-05
2.36239e-05
2.18151e-05
2.00675e-05
1.90618e-05
1.8864e-05
1.90368e-05
1.94975e-05
2.06279e-05
2.31151e-05
2.61144e-05
3.03781e-05
3.76507e-05
4.11522e-05
4.59702e-05
5.44576e-05
5.69995e-05
6.02622e-05
6.2282e-05
6.25134e-05
6.15783e-05
6.03399e-05
5.90683e-05
5.63314e-05
5.23693e-05
5.07156e-05
5.00527e-05
4.58011e-05
4.41744e-05
4.32734e-05
4.42703e-05
4.61018e-05
6.32092e-05
0.000133532
0.000143975
0.000174372
0.000167189
0.000163619
0.000158184
0.000161643
0.000161121
0.000158163
0.00016242
0.000163304
0.000171721
0.000211279
0.00023942
0.00019444
0.000151844
0.00011404
0.00010532
0.000108486
0.000106659
0.000107559
8.54649e-05
8.52551e-05
8.52724e-05
8.56077e-05
8.62858e-05
8.70712e-05
8.75758e-05
8.76178e-05
8.74445e-05
8.60306e-05
8.44049e-05
8.14571e-05
7.97352e-05
7.70365e-05
7.53763e-05
7.26913e-05
7.09144e-05
6.85315e-05
6.74345e-05
6.63892e-05
6.62363e-05
6.60528e-05
6.61487e-05
6.61297e-05
6.60858e-05
6.46617e-05
6.29818e-05
6.02137e-05
5.87181e-05
5.64032e-05
5.51096e-05
5.3254e-05
5.2339e-05
5.05554e-05
4.88349e-05
4.62436e-05
4.42043e-05
4.21016e-05
4.09372e-05
3.98745e-05
3.89472e-05
3.7844e-05
3.64583e-05
3.50545e-05
3.37396e-05
3.28381e-05
3.20398e-05
3.12693e-05
3.01416e-05
2.88565e-05
2.71511e-05
2.5723e-05
2.40823e-05
2.29375e-05
2.18216e-05
2.12401e-05
2.06397e-05
2.03778e-05
1.9899e-05
1.94867e-05
1.87481e-05
1.82189e-05
1.75562e-05
1.70195e-05
1.63264e-05
1.56004e-05
1.47772e-05
1.39151e-05
1.30819e-05
1.23706e-05
1.1691e-05
1.12008e-05
1.07892e-05
1.04899e-05
1.038e-05
1.03058e-05
1.0354e-05
1.04335e-05
1.07664e-05
1.10734e-05
1.15082e-05
1.21834e-05
1.2638e-05
1.32794e-05
1.42916e-05
1.48468e-05
1.61847e-05
1.69225e-05
1.83513e-05
1.92755e-05
2.07446e-05
2.22152e-05
2.29172e-05
2.45806e-05
2.54808e-05
2.6373e-05
2.73583e-05
2.7801e-05
2.8408e-05
2.86269e-05
2.857e-05
2.83779e-05
2.797e-05
2.72692e-05
2.62757e-05
2.51914e-05
2.38354e-05
2.23174e-05
2.0846e-05
1.91607e-05
1.77509e-05
1.63817e-05
1.53141e-05
1.45939e-05
1.40737e-05
1.39212e-05
1.39712e-05
1.40982e-05
1.42168e-05
1.46307e-05
1.49039e-05
1.50281e-05
1.56479e-05
1.56344e-05
1.5551e-05
1.55201e-05
1.53173e-05
1.47397e-05
1.45346e-05
1.4489e-05
1.44963e-05
1.46194e-05
1.50982e-05
1.56268e-05
1.60497e-05
1.72579e-05
1.81325e-05
1.85583e-05
1.99108e-05
2.03417e-05
2.03186e-05
2.02257e-05
1.99465e-05
1.91238e-05
1.8545e-05
1.78825e-05
1.73014e-05
1.71841e-05
1.72321e-05
1.74947e-05
1.81232e-05
1.95645e-05
2.21498e-05
2.53313e-05
3.11318e-05
3.63208e-05
4.35655e-05
5.02554e-05
5.81813e-05
6.20239e-05
6.99623e-05
7.59275e-05
7.80653e-05
7.91657e-05
7.90438e-05
7.78738e-05
7.49535e-05
7.29558e-05
7.07831e-05
6.46387e-05
5.95217e-05
5.71789e-05
5.61666e-05
5.23581e-05
4.99335e-05
4.80053e-05
4.80389e-05
4.87162e-05
7.89168e-05
0.000138108
0.000144074
0.00016558
0.000158962
0.000156228
0.000152586
0.000159573
0.000156285
0.000158932
0.000167224
0.000165229
0.000154722
0.000161939
0.000209654
0.000214191
0.000190147
0.000134501
0.000109403
0.000109167
0.000106113
0.000104933
9.0571e-05
8.98106e-05
8.97208e-05
8.92623e-05
8.91845e-05
8.8575e-05
8.82061e-05
8.69868e-05
8.61798e-05
8.42715e-05
8.29454e-05
8.10329e-05
7.99215e-05
7.8295e-05
7.7586e-05
7.62267e-05
7.56451e-05
7.44271e-05
7.39717e-05
7.30425e-05
7.27101e-05
7.19784e-05
7.12649e-05
6.91439e-05
6.67917e-05
6.36911e-05
6.12485e-05
5.86504e-05
5.62499e-05
5.39838e-05
5.20231e-05
5.07086e-05
5.01072e-05
4.9818e-05
4.96052e-05
4.93569e-05
4.86959e-05
4.77559e-05
4.62654e-05
4.45716e-05
4.24328e-05
4.02543e-05
3.78548e-05
3.58156e-05
3.37704e-05
3.20875e-05
3.02804e-05
2.8482e-05
2.65843e-05
2.46897e-05
2.27978e-05
2.11559e-05
1.96666e-05
1.8621e-05
1.77504e-05
1.70932e-05
1.64277e-05
1.57753e-05
1.51128e-05
1.44459e-05
1.38251e-05
1.32079e-05
1.26455e-05
1.2073e-05
1.15735e-05
1.10895e-05
1.07334e-05
1.04087e-05
1.01617e-05
9.95661e-06
9.76874e-06
9.64303e-06
9.51064e-06
9.3896e-06
9.30593e-06
9.19385e-06
9.12888e-06
9.0645e-06
9.05611e-06
9.06086e-06
9.08398e-06
9.16573e-06
9.24054e-06
9.42749e-06
9.58078e-06
9.84448e-06
1.02917e-05
1.05222e-05
1.11393e-05
1.15227e-05
1.22876e-05
1.28101e-05
1.34614e-05
1.41148e-05
1.46043e-05
1.51933e-05
1.54493e-05
1.58333e-05
1.59847e-05
1.60827e-05
1.6064e-05
1.59661e-05
1.5827e-05
1.55401e-05
1.51336e-05
1.47739e-05
1.42396e-05
1.38476e-05
1.33987e-05
1.30746e-05
1.28625e-05
1.28431e-05
1.28824e-05
1.2968e-05
1.32677e-05
1.36152e-05
1.4158e-05
1.4985e-05
1.56251e-05
1.66771e-05
1.69987e-05
1.74649e-05
1.78066e-05
1.77075e-05
1.74797e-05
1.72449e-05
1.67289e-05
1.58077e-05
1.51213e-05
1.46432e-05
1.39362e-05
1.33926e-05
1.32654e-05
1.32495e-05
1.32343e-05
1.35456e-05
1.37127e-05
1.39545e-05
1.42956e-05
1.47326e-05
1.46751e-05
1.48296e-05
1.49422e-05
1.52222e-05
1.53593e-05
1.57411e-05
1.62398e-05
1.73783e-05
1.88026e-05
2.19436e-05
2.53217e-05
3.18977e-05
3.70433e-05
4.6314e-05
5.29775e-05
6.21297e-05
7.08871e-05
7.96314e-05
8.65493e-05
9.23137e-05
0.000100279
0.000103585
0.000104235
0.000103918
0.000102941
9.94944e-05
9.48229e-05
9.17467e-05
8.56097e-05
7.64592e-05
7.00597e-05
6.80275e-05
6.21235e-05
5.69017e-05
5.45449e-05
5.51946e-05
5.50894e-05
5.50439e-05
0.000103962
0.000140298
0.000142548
0.000149173
0.000154624
0.000151064
0.000147573
0.000147659
0.00015105
0.000157085
0.000157833
0.000161868
0.000152884
0.000152663
0.000158604
0.000202333
0.000198659
0.000161812
0.000121062
0.000111322
0.000106974
0.000103433
8.21607e-05
8.13542e-05
8.0965e-05
8.00413e-05
7.93968e-05
7.8604e-05
7.70575e-05
7.63607e-05
7.47213e-05
7.3768e-05
7.11917e-05
7.01169e-05
6.82558e-05
6.73816e-05
6.71503e-05
6.68625e-05
6.66924e-05
6.58118e-05
6.49204e-05
6.2488e-05
6.09856e-05
5.81404e-05
5.49749e-05
5.07472e-05
4.60333e-05
4.15489e-05
3.75623e-05
3.44753e-05
3.16884e-05
2.95579e-05
2.75741e-05
2.64864e-05
2.60886e-05
2.61572e-05
2.66488e-05
2.8162e-05
2.87621e-05
2.90224e-05
2.89266e-05
2.84679e-05
2.78181e-05
2.74088e-05
2.66224e-05
2.57277e-05
2.43192e-05
2.26927e-05
2.09729e-05
1.93348e-05
1.79876e-05
1.68449e-05
1.59433e-05
1.52034e-05
1.44825e-05