/*--------------------------------*- C++ -*----------------------------------*\
| =========                 |                                                 |
| \\      /  F ield         | OpenFOAM: The Open Source CFD Toolbox           |
|  \\    /   O peration     | Version:  2.4.0                                 |
|   \\  /    A nd           | Web:      www.OpenFOAM.org                      |
|    \\/     M anipulation  |                                                 |
\*---------------------------------------------------------------------------*/
FoamFile
{
    version     2.0;
    format      ascii;
    class       volScalarField;
    location    "0.6";
    object      p;
}
// * * * * * * * * * * * * * * * * * * * * * * * * * * * * * * * * * * * * * //

dimensions      [0 2 -2 0 0 0 0];

internalField   nonuniform List<scalar> 
8800
(
110.008
98.4213
90.5776
87.0451
85.1894
83.5911
83.0033
81.1765
81.2186
79.1476
79.1873
77.5004
76.9652
76.033
75.0832
74.2438
73.7592
72.7389
71.859
71.594
106.903
98.096
90.7362
87.1465
85.2648
83.5953
83.033
81.1666
81.2113
79.1526
79.1587
77.5203
76.9281
76.062
75.0591
74.2472
73.7561
72.7525
71.8433
71.6156
104.95
98.2156
91.2917
87.5087
85.4426
83.6617
83.109
81.1853
81.2646
79.1637
79.159
77.528
76.9006
76.0813
75.0328
74.2536
73.7528
72.7543
71.892
71.7552
103.442
98.2952
91.8309
87.9182
85.6262
83.7541
83.1763
81.2549
81.3435
79.2343
79.1779
77.5533
76.8793
76.0868
75.006
74.2631
73.7422
72.7462
72.0129
72.0978
102.23
98.2735
92.2727
88.2972
85.7871
83.8175
83.1968
81.3607
81.4148
79.389
79.197
77.595
76.8646
76.064
74.9754
74.2686
73.6912
72.7465
71.9063
72.4217
101.278
98.164
92.6477
88.6342
85.9217
83.823
83.137
81.4356
81.4504
79.5952
79.2157
77.6882
76.8015
76.0108
74.9411
74.2606
73.5982
72.7323
71.9336
72.9473
100.534
98.0175
92.9675
88.9402
86.0931
83.7659
83.0396
81.301
81.3335
79.8104
79.1977
77.7594
76.7492
75.9165
74.9004
74.2663
73.4624
72.7143
71.9406
73.1204
99.9079
97.8222
93.218
89.2018
86.3227
83.9004
83.023
81.1918
81.1569
79.5245
79.1135
77.7974
76.7388
75.8647
74.8702
74.2875
73.3668
72.771
71.9905
73.3761
99.4146
97.6431
93.2945
89.3534
86.5249
84.1016
83.1646
81.2923
81.0134
79.496
78.4955
77.7566
76.7912
75.9119
74.8906
74.3765
73.3495
72.908
72.1491
73.5922
99.1266
97.5669
93.3147
89.4366
86.6135
84.2742
83.2749
81.4682
80.9649
79.4702
78.6588
77.7368
76.76
76.0438
74.9322
74.4651
73.4197
72.9987
72.3231
73.4709
99.0693
97.6133
93.2941
89.4601
86.6553
84.3411
83.3235
81.6132
80.9021
79.5302
78.5435
77.7391
76.7222
76.0809
75.0151
74.4813
73.4675
72.9307
72.4513
73.0092
99.2394
97.7193
93.2369
89.4137
86.6321
84.3406
83.3332
81.6643
80.8529
79.5966
78.4756
77.7796
76.6978
76.0898
75.1024
74.4362
73.5127
72.8882
72.4911
72.9698
99.624
97.8627
93.1246
89.2766
86.565
84.3125
83.3159
81.6918
80.8011
79.6659
78.4302
77.8198
76.7246
76.0561
75.1974
74.3692
73.5628
72.8929
72.4828
72.9891
100.204
98.0519
92.9626
89.0561
86.4605
84.2647
83.3041
81.6929
80.7496
79.7206
78.389
77.8561
76.7361
75.9968
75.2811
74.2945
73.6017
72.9683
72.4154
72.9665
100.974
98.2084
92.7334
88.7624
86.331
84.1943
83.2975
81.6789
80.6902
79.7601
78.3396
77.8803
76.7578
75.8994
75.3712
74.243
73.6193
73.0997
72.324
72.9069
101.962
98.3144
92.4287
88.4078
86.1778
84.0984
83.2753
81.6613
80.6168
79.7957
78.2903
77.9054
76.7852
75.8103
75.4539
74.2159
73.6356
73.2454
72.285
72.7104
103.207
98.3299
92.0211
88.0021
86.0004
83.9844
83.2144
81.6399
80.5355
79.8107
78.258
77.8919
76.8127
75.7458
75.4986
74.2165
73.6545
73.3504
72.3245
72.3961
104.738
98.2318
91.5049
87.5781
85.7944
83.8754
83.1241
81.6158
80.4787
79.7964
78.2577
77.8629
76.8239
75.7282
75.4992
74.2315
73.6814
73.3961
72.3947
72.2905
106.71
98.1056
90.9517
87.2088
85.596
83.8022
83.0497
81.5991
80.4639
79.7696
78.2818
77.8404
76.824
75.7446
75.4758
74.253
73.7013
73.3973
72.4189
72.2016
109.824
98.4287
90.7878
87.1083
85.5146
83.7884
83.0472
81.5931
80.4892
79.747
78.3048
77.8419
76.8132
75.7712
75.4585
74.2599
73.7274
73.3696
72.435
72.3651
72.1384
72.3768
72.3971
72.2731
72.1708
72.1507
72.2593
72.4411
72.6053
72.6849
72.6293
72.3709
71.9034
71.2155
70.3546
69.3341
68.2334
67.1085
66.107
65.32
64.8783
64.8062
65.1164
65.7937
66.7948
68.013
69.3843
70.8086
72.1866
73.4554
74.5142
75.3526
75.9297
76.2749
76.3813
76.2824
76.0093
75.6079
75.0968
74.5166
73.8685
73.1164
72.2632
71.306
70.3097
69.2666
68.4088
67.7136
67.289
67.1156
67.1872
67.4655
67.8881
68.3251
68.7523
69.1149
69.4003
69.579
69.6657
69.7021
69.7027
69.6978
69.6903
69.7191
69.7642
69.8616
69.9736
70.1305
70.2754
70.4334
70.5865
70.7763
71.0251
71.4102
71.9574
72.791
73.7387
74.8261
76.094
77.4609
78.6177
79.4004
79.5901
79.2387
78.1894
76.3439
73.8917
71.0611
67.8704
64.6631
61.6766
59.0723
56.9659
55.3582
54.2738
53.6163
53.2358
53.036
52.8158
52.5722
52.1794
51.7074
51.1549
50.544
50.0271
49.4856
49.1913
49.097
49.0299
49.2208
49.3511
49.8586
50.5701
51.3698
53.0455
55.2247
58.1597
61.9281
66.3006
71.3634
76.5749
81.4014
85.7805
89.4433
91.9819
93.8605
94.8605
94.4289
93.1063
90.8306
88.0079
84.3182
80.4604
76.4842
72.0951
67.9631
63.7453
59.5475
55.7017
52.1647
48.8177
45.7449
43.2936
41.2305
39.435
37.8291
36.975
36.2932
35.6028
35.2141
35.423
36.356
37.1406
38.0117
39.9443
43.0234
44.8147
47.2859
51.3632
55.0232
58.4884
62.9517
67.2708
70.8885
74.3144
77.7968
80.457
82.9831
85.4787
87.6369
89.3703
91.0173
92.7429
93.6854
94.2862
95.3476
96.1608
96.3367
96.2454
95.2581
94.473
93.7003
93.4696
93.2115
92.8631
91.5739
90.1822
88.7548
88.2361
88.4392
88.6919
89.1037
89.3238
88.6609
86.8827
83.5803
77.345
67.53
52.6397
9.2097
71.9772
72.2864
72.5181
72.3855
72.1693
72.0568
72.1572
72.349
72.5135
72.6272
72.5993
72.3762
71.9286
71.2227
70.3508
69.2863
68.142
66.9663
65.9222
65.1301
64.7042
64.678
65.0742
65.8413
66.9281
68.1987
69.5938
71.0081
72.3617
73.6106
74.6491
75.4863
76.0623
76.4043
76.4978
76.3642
76.057
75.5953
75.026
74.3783
73.665
72.8777
72.0249
71.0943
70.1609
69.2159
68.4109
67.7831
67.3709
67.2207
67.2672
67.5238
67.8959
68.317
68.721
69.072
69.3545
69.5579
69.6622
69.7213
69.7252
69.7345
69.7301
69.752
69.7961
69.8803
69.9899
70.1293
70.2661
70.44
70.6074
70.8507
71.1345
71.586
72.1638
72.9348
73.8773
74.9489
76.1453
77.309
78.2414
78.9025
79.0685
78.7257
77.7359
75.9926
73.7292
71.1343
68.2588
65.3127
62.5402
60.0314
57.9693
56.3625
55.1421
54.3531
53.7986
53.4415
53.1109
52.7776
52.3915
51.9291
51.4172
50.8754
50.4326
49.9489
49.6564
49.5225
49.3842
49.6047
49.6944
50.2423
51.0909
51.8329
53.7217
56.0351
58.8997
62.9016
67.119
71.6157
76.4283
80.8994
84.8753
88.1291
90.4307
92.1748
92.6711
92.5164
91.5584
89.4696
86.9875
83.653
79.9226
76.2382
72.1127
68.1336
64.2888
60.3463
56.5662
53.2158
50.1961
47.2446
44.6632
42.6863
41.0252
39.6147
38.2961
37.7318
37.4818
37.1123
36.8359
37.9129
39.3262
39.8839
41.2993
44.5476
46.7461
48.7447
52.4375
56.3681
59.5137
63.2947
67.2945
70.62
73.7402
76.8923
79.4257
81.9731
84.2263
86.3587
88.115
89.7429
91.3829
92.3296
93.0104
94.0132
94.6223
94.8494
94.8901
94.1475
93.7586
92.779
92.1507
90.6843
89.108
86.7015
84.3335
82.5666
81.6209
81.8884
81.9724
81.8702
81.579
80.41
77.8594
73.3342
65.2447
52.149
35.5099
-6.04229
71.9259
72.2106
72.645
72.7184
72.4365
72.1312
72.0587
72.154
72.2405
72.3379
72.343
72.1708
71.782
71.1015
70.282
69.241
68.137
67.0114
65.994
65.2588
64.8722
64.9057
65.3386
66.1359
67.2337
68.4741
69.8101
71.1331
72.3933
73.5665
74.5472
75.3586
75.9201
76.2643
76.3405
76.1743
75.8635
75.3714
74.7801
74.1215
73.3722
72.611
71.7733
70.9182
70.0602
69.2262
68.5011
67.9452
67.5621
67.4242
67.4432
67.6643
67.9764
68.3563
68.7308
69.0539
69.3281
69.5333
69.656
69.7372
69.7489
69.7718
69.7706
69.7899
69.8336
69.9111
70.0152
70.1524
70.2842
70.4689
70.6614
70.9254
71.2561
71.7201
72.2948
73.0431
73.9427
74.9369
75.9497
76.8908
77.6764
78.2357
78.346
77.954
77.0063
75.4044
73.34
70.9731
68.3812
65.6499
63.0723
60.6995
58.6685
57.1102
55.8446
54.9364
54.3159
53.8342
53.4643
53.0926
52.6694
52.2644
51.751
51.268
50.8932
50.3951
50.1821
50.0245
49.8116
50.1694
50.2838
50.7832
51.8718
52.7179
54.6625
57.2027
60.0201
63.7456
67.4421
71.612
76.1849
79.9944
83.5287
86.469
88.4632
90.0783
90.6002
90.5304
89.7701
87.7131
85.4993
82.7018
79.2311
75.8023
72.2247
68.4147
64.6493
61.1722
57.7582
54.3901
51.4183
48.9223
46.5375
44.4269
42.7689
41.7642
40.4181
39.2628
39.3809
39.546
39.017
39.4593
41.3912
42.328
43.1361
45.9399
48.7179
50.4461
53.6012
57.3455
60.377
63.5302
66.9898
70.0363
72.9995
75.7911
78.2942
80.7999
83.0114
85.0327
86.6819
88.3292
89.9548
90.9058
91.6604
92.6467
93.18
93.5016
93.6446
93.2977
93.2835
92.1368
91.1649
88.9475
86.213
82.825
79.7106
77.3301
76.4461
76.1826
75.9155
75.4316
74.3428
72.5304
69.2961
63.3533
54.7629
39.3009
22.6756
-6.98113
72.0571
72.1326
72.4666
72.5822
72.4423
72.0704
71.8071
71.7933
71.8667
72.014
72.0029
71.8558
71.5457
70.958
70.241
69.2789
68.2609
67.267
66.3458
65.753
65.4037
65.4955
65.9075
66.6765
67.6752
68.8039
69.9997
71.1561
72.2734
73.3013
74.1704
74.9179
75.4419
75.7623
75.8995
75.7571
75.4917
75.0206
74.4378
73.8169
73.0734
72.3644
71.5886
70.8108
70.0585
69.3272
68.7002
68.2156
67.8656
67.7259
67.7163
67.885
68.1333
68.4469
68.7782
69.0648
69.3154
69.5103
69.6415
69.7347
69.7672
69.7926
69.8131
69.8245
69.8792
69.9482
70.0451
70.1866
70.3238
70.5048
70.7302
70.9971
71.3484
71.8104
72.3559
73.0585
73.8677
74.7138
75.5792
76.3164
76.9698
77.3731
77.3934
76.9853
76.113
74.7101
72.8811
70.7291
68.4152
65.917
63.4962
61.3223
59.343
57.7854
56.5556
55.5575
54.8819
54.3204
53.9016
53.5157
53.0468
52.7188
52.1939
51.7347
51.462
50.9067
50.7949
50.6892
50.4218
50.9412
51.1335
51.5924
52.89
53.9145
55.9093
58.4611
60.9658
64.4072
67.9657
71.7739
75.6241
78.8273
81.9883
84.4847
86.2477
87.8254
88.317
88.2778
87.6988
85.9141
84.0595
81.7086
78.6557
75.4378
72.2363
68.8421
65.3337
62.0229
58.9049
55.998
53.0084
50.5018
48.6412
46.6628
44.6157
43.7445
43.0309
41.543
41.2385
41.8567
41.7376
41.5267
43.2489
44.8009
45.4172
47.5094
50.3956
52.3881
54.7265
57.9031
60.875
63.5434
66.5148
69.2405
71.9528
74.5344
76.9263
79.2164
81.5618
83.6334
85.2526
86.8721
88.3458
89.5761
90.3803
91.1766
91.484
91.9992
92.3526
92.7052
92.8867
91.7045
90.4236
87.5608
84.5319
79.7801
76.9892
73.9135
72.8865
72.1564
71.1506
69.7878
68.1862
65.3615
61.2392
54.1727
46.2683
29.9957
13.9864
-6.37583
73.3146
73.1179
72.4995
72.0898
71.9366
71.726
71.4651
71.4001
71.5045
71.7038
71.6848
71.5392
71.2495
70.8012
70.1963
69.382
68.5022
67.6797
66.9625
66.488
66.2067
66.3258
66.6696
67.3477
68.1868
69.148
70.1467
71.1048
72.0477
72.9137
73.6735
74.3255
74.8121
75.1048
75.267
75.1655
74.9503
74.5518
74.033
73.4719
72.8151
72.1716
71.5034
70.8146
70.1715
69.549
69.0002
68.5843
68.2732
68.1026
68.0808
68.1697
68.3545
68.5944
68.8448
69.1001
69.3185
69.4866
69.6292
69.7176
69.7832
69.8115
69.843
69.8651
69.9176
69.977
70.0763
70.2037
70.3625
70.5391
70.7599
71.0547
71.3828
71.829
72.3353
72.9539
73.6453
74.3231
74.9938
75.6056
76.1191
76.3516
76.2932
75.9214
75.1135
73.9267
72.3385
70.4303
68.3781
66.179
63.9987
61.9628
60.1642
58.6391
57.3849
56.4058
55.6493
54.9952
54.5488
54.0858
53.601
53.3529
52.8097
52.3778
52.2012
51.6165
51.5524
51.5665
51.3343
51.8858
52.246
52.7711
54.0994
55.3521
57.2603
59.4833
61.9571
65.2232
68.2449
71.5292
74.8468
77.6555
80.5364
82.6122
84.1159
85.5634
85.9902
86.1128
85.5834
84.0868
82.6876
80.5874
77.8721
75.3283
72.3996
69.2357
66.3955
63.3017
60.1711
57.7592
55.2062
52.347
50.7123
49.2316
46.9938
45.8249
45.6071
44.4183
43.543
44.0766
44.506
44.2511
45.2827
46.98
47.9677
49.3101
51.7341
53.9362
55.8316
58.2988
60.8976
63.4006
65.8909
68.2986
70.765
73.1032
75.3844
77.515
79.6962
81.8238
83.7065
85.3518
86.6943
88.1076
89.1054
89.8022
90.1396
90.716
91.1919
92.1674
92.2566
90.9111
89.6537
86.0763
83.1734
77.6822
75.5318
72.161
71.3699
69.4933
67.819
65.3212
63.0288
58.7031
54.4582
46.0445
38.9604
24.0505
8.67748
-6.3075
73.5578
73.2807
72.4707
71.8724
71.5834
71.3602
71.1339
71.0335
71.1887
71.4383
71.4649
71.3248
71.0039
70.7256
70.2223
69.5672
68.8089
68.0959
67.5715
67.1989
67.0316
67.1326
67.4074
67.9365
68.6047
69.403
70.2255
71.0332
71.8242
72.5581
73.2287
73.7695
74.2229
74.4968
74.6308
74.5695
74.3767
74.0583
73.6456
73.1488
72.63
72.0672
71.5047
70.9334
70.3698
69.8743
69.3921
69.0319
68.7619
68.5445
68.4877
68.4957
68.6076
68.7753
68.9335
69.1527
69.3327
69.4661
69.6149
69.6839
69.7816
69.8184
69.8472
69.9112
69.9421
70.0075
70.1096
70.2205
70.3929
70.5711
70.7679
71.0766
71.3705
71.7676
72.2154
72.732
73.2783
73.8321
74.4037
74.8486
75.2345
75.3241
75.2223
74.8828
74.1341
73.1415
71.7581
70.1244
68.336
66.4027
64.535
62.6897
61.0454
59.6515
58.4022
57.4137
56.6643
55.9157
55.4463
54.9772
54.4338
54.2172
53.6841
53.2409
53.1666
52.6744
52.5739
52.6949
52.5673
53.0693
53.5855
54.2155
55.4702
56.7187
58.4937
60.4868
62.8328
65.6893
68.1397
71.1636
74.0599
76.3494
79.0344
80.8398
82.2213
83.637
83.981
84.2144
83.7995
82.4382
81.3975
79.6203
77.0943
75.249
72.8046
69.6632
67.4359
64.9697
61.706
59.5499
57.6754
54.7819
52.9541
51.9912
49.9325
48.3245
48.1646
47.4738
46.4127
46.4886
47.119
47.1045
47.5024
48.9178
50.1648
51.1513
52.8335
54.8372
56.6355
58.6244
60.791
62.9977
65.1341
67.256
69.4085
71.5082
73.5881
75.691
77.8345
79.8688
81.8325
83.6333
85.1217
86.5259
87.6997
88.5844
89.0931
89.7389
90.1416
91.1958
91.0685
89.7516
88.4045
83.9815
81.1504
76.2738
74.3909
70.1528
70.6988
67.8429
66.6979
61.6937
58.949
52.3121
48.3577
39.0525
32.0749
20.4317
6.24262
-5.67516
74.2517
73.8564
72.5206
71.5304
71.1423
70.9812
70.848
70.7395
70.9429
71.2202
71.3187
71.1703
70.823
70.6651
70.2702
69.7552
69.0751
68.4302
68.0409
67.7606
67.6937
67.7484
67.9722
68.3705
68.8903
69.5544
70.2057
70.9064
71.5783
72.2149
72.8549
73.2953
73.7318
73.944
74.07
74.0437
73.8546
73.6074
73.2432
72.8292
72.4448
71.9785
71.54
71.0701
70.584
70.186
69.7526
69.4497
69.2087
68.9818
68.8987
68.8249
68.8714
68.9638
69.0458
69.219
69.3506
69.4667
69.5994
69.6647
69.7806
69.8162
69.847
69.9389
69.9521
70.0232
70.1224
70.2203
70.3921
70.5621
70.736
71.0529
71.3016
71.6464
72.0524
72.4741
72.9349
73.3907
73.8349
74.1663
74.4152
74.4261
74.3061
73.9553
73.2834
72.4324
71.2295
69.8431
68.3058
66.631
65.0181
63.4534
61.9433
60.6838
59.5668
58.5485
57.8407
57.1095
56.5631
56.1276
55.5439
55.2368
54.7699
54.3521
54.2914
53.9578
53.7966
53.9256
53.9403
54.3623
54.9397
55.6361
56.6932
57.8798
59.5245
61.2576
63.311
65.8159
67.9353
70.5723
73.1334
75.0785
77.638
79.2936
80.4401
81.9329
82.1127
82.2398
82.2829
81.0148
80.1349
78.939
76.598
75.0653
73.259
70.3036
68.2954
66.5658
63.5324
61.342
60.0258
57.5686
55.3565
54.4447
52.9276
51.1986
50.6031
50.3043
49.3654
48.9975
49.4834
49.6278
49.7206
50.6038
51.763
52.6417
53.9125
55.6137
57.1185
58.7908
60.6541
62.396
64.1408
65.9903
67.7927
69.6609
71.6191
73.6735
75.8122
77.9383
79.9259
81.7817
83.4531
84.9544
86.216
87.3823
88.1201
88.7567
89.1797
89.9493
89.4595
88.0778
86.531
81.867
79.2227
75.0718
72.9891
66.719
67.0855
64.6617
63.2556
57.4136
55.0658
45.8877
41.4473
32.9005
25.6183
17.4416
6.11659
-3.13343
74.7538
74.3373
72.6314
71.3032
70.7466
70.6529
70.6285
70.5384
70.7644
71.0282
71.2174
71.0622
70.7656
70.5926
70.3209
69.9349
69.3467
68.7682
68.4114
68.1949
68.1871
68.2292
68.4071
68.6742
69.0723
69.6142
70.1766
70.8122
71.4235
71.981
72.5236
72.8402
73.2423
73.4451
73.5738
73.5913
73.4075
73.2638
72.9354
72.6174
72.3227
71.9213
71.5827
71.1647
70.765
70.4251
70.0334
69.7758
69.5196
69.2994
69.1844
69.074
69.1037
69.1212
69.155
69.3038
69.3653
69.4865
69.5844
69.6422
69.7721
69.7981
69.8342
69.9418
69.9488
70.0185
70.1165
70.2029
70.3723
70.5254
70.6905
70.986
71.2077
71.5008
71.8553
72.1959
72.5972
72.9349
73.2765
73.5312
73.6826
73.6587
73.5254
73.187
72.577
71.855
70.8461
69.6253
68.381
66.9268
65.4935
64.2241
62.7921
61.6757
60.6628
59.6663
58.9907
58.2776
57.7451
57.254
56.7292
56.3427
55.9168
55.6111
55.4577
55.2582
55.0988
55.1693
55.2915
55.6413
56.1749
56.8069
57.7101
58.7755
60.2
61.7426
63.5263
65.7038
67.5845
69.8637
72.2193
73.9385
76.1777
77.6894
78.6542
80.171
80.3302
80.4005
80.8809
79.735
78.9464
78.3593
76.2998
74.8321
73.6595
71.1307
69.1347
67.859
65.3909
63.171
61.9686
60.0784
57.8239
56.6443
55.6327
54.0573
53.0643
52.7685
52.0465
51.4226
51.5664
51.7856
51.7731
52.2681
53.1121
53.9179
54.9724
56.3653
57.5589
58.7727
60.2969
61.6768
62.9104
64.4276
65.9684
67.5496
69.4415
71.5348
73.555
75.7347
77.8204
79.8704
81.7157
83.5709
84.9149
86.1675
87.0702
87.6985
88.2436
88.6666
87.6031
85.6217
83.8822
80.6218
77.9498
74.3594
71.275
63.6105
62.1075
58.3798
56.7778
51.4363
48.4542
38.3595
33.0675
26.709
20.3558
15.353
7.94663
1.18345
75.2492
74.7617
72.8214
71.2424
70.5068
70.3591
70.4402
70.4131
70.678
70.9418
71.1856
71.0905
70.7217
70.5658
70.3773
70.1214
69.6346
69.0917
68.6901
68.4787
68.5053
68.5472
68.7344
68.9192
69.2627
69.6692
70.1585
70.7008
71.2363
71.7589
72.2422
72.5509
72.8702
73.0493
73.1538
73.2395
73.0763
72.9928
72.725
72.4664
72.2273
71.897
71.5998
71.2371
70.8981
70.584
70.2458
70.0078
69.7563
69.5558
69.4205
69.2935
69.3064
69.272
69.2669
69.3913
69.4014
69.5122
69.5928
69.6279
69.7624
69.7805
69.8119
69.9274
69.9366
69.9992
70.0996
70.1745
70.3244
70.4632
70.621
70.8681
71.0827
71.3312
71.6354
71.9311
72.2589
72.4898
72.7582
72.9586
73.0255
73.0304
72.8557
72.5491
72.0536
71.3624
70.5762
69.4921
68.4405
67.2442
65.935
64.8941
63.6012
62.5734
61.6921
60.7076
60.0888
59.3779
58.8437
58.3522
57.8386
57.494
57.0796
56.8306
56.648
56.4438
56.3653
56.329
56.4869
56.759
57.1744
57.7888
58.5118
59.4573
60.7076
62.0906
63.6053
65.4801
67.2254
69.1787
71.2072
72.7371
74.6263
76.0691
77
78.3739
78.7406
78.8899
79.4206
78.6323
77.9678
77.6638
76.1249
74.723
73.8796
71.9753
70.0766
68.8707
67.0835
64.9699
63.6154
62.2263
60.2368
58.8554
58.0499
56.6392
55.4855
55.0469
54.3555
53.6535
53.6268
53.6815
53.6127
53.9182
54.5215
55.183
55.9009
56.9203
57.899
58.7235
59.6603
60.6449
61.6813
62.7611
63.842
65.2815
67.0775
68.9911
71.0071
73.2062
75.468
77.8348
79.945
82.0036
83.4845
84.9289
85.9579
86.6491
87.2325
87.6445
85.8221
83.8431
81.5877
79.7617
76.591
73.7445
69.7523
65.4562
57.8324
51.8922
49.1447
43.4271
36.9907
29.3078
24.1519
20.6449
16.8312
14.9336
11.14
6.46776
75.8447
75.4105
73.2075
71.3177
70.3012
70.0956
70.225
70.2712
70.5585
70.9096
71.1983
71.1005
70.6954
70.5199
70.3616
70.2324
69.849
69.3919
68.9505
68.74
68.7861
68.8531
69.0496
69.1395
69.4407
69.7374
70.1486
70.6319
71.0615
71.5339
71.9064
72.2114
72.4811
72.6649
72.7832
72.9105
72.8311
72.7629
72.5704
72.3492
72.1353
71.8867
71.5985
71.2877
71.0102
70.7036
70.4293
70.1952
69.9579
69.7844
69.6293
69.4926
69.4792
69.4142
69.3805
69.4687
69.4576
69.5285
69.6024
69.6181
69.7385
69.7617
69.7868
69.9005
69.9189
69.967
70.0623
70.1462
70.2619
70.3883
70.5493
70.7292
70.9519
71.1411
71.3775
71.6523
71.8926
72.0767
72.2912
72.4352
72.4571
72.4806
72.2753
71.9894
71.6209
70.9678
70.3113
69.4627
68.4957
67.5008
66.424
65.4255
64.349
63.4096
62.5735
61.715
61.0498
60.4204
59.7823
59.3708
58.989
58.582
58.2601
57.9874
57.755
57.596
57.4664
57.4172
57.5255
57.7128
58.0853
58.586
59.1887
60.0524
61.0935
62.2467
63.5691
65.1589
66.7339
68.3588
70.0744
71.54
73.1648
74.5456
75.4985
76.6857
77.3024
77.5948
78.0275
77.7237
77.2362
76.9601
76.0106
74.8158
73.9816
72.7491
71.0493
69.7907
68.5675
66.7267
65.23
64.1609
62.5447
61.0374
60.1898
58.97
57.7638
57.1116
56.4777
55.7721
55.4782
55.436
55.3624
55.3719
55.7727
56.3079
56.6939
57.3326
58.0902
58.6399
59.1709
59.6372
60.3945
61.1304
61.6163
62.8334
64.5396
66.078
68.1475
70.5287
73.0344
75.3099
77.8188
80.3218
82.3642
83.8341
84.8545
85.5941
86.4575
86.472
84.3315
82.8524
80.322
78.8746
75.5956
72.5623
67.7314
64.1921
54.7196
49.4623
43.8262
37.4142
27.6748
21.9544
17.3254
16.3922
15.4715
15.9502
14.6996
11.9804
76.1321
75.7702
73.4544
71.4338
70.2305
69.9733
70.0505
70.1985
70.53
70.953
71.2615
71.1595
70.7601
70.5079
70.3836
70.3063
70.0393
69.6612
69.2115
68.9914
69.0056
69.1005
69.2778
69.344
69.5678
69.795
70.1007
70.5361
70.8936
71.3576
71.6751
71.9126
72.1494
72.3069
72.4705
72.5943
72.5712
72.5072
72.3723
72.2068
72.0267
71.8689
71.6046
71.3441
71.1267
70.8241
70.6045
70.3725
70.1432
69.9919
69.8113
69.6792
69.6327
69.5446
69.4908
69.5357
69.5264
69.545
69.6204
69.621
69.717
69.746
69.7575
69.8643
69.8895
69.9193
70.0117
70.0942
70.1747
70.2942
70.4379
70.5763
70.7941
70.9536
71.1295
71.3927
71.5555
71.6954
71.8975
71.9736
71.9748
72.0247
71.7715
71.5391
71.2659
70.6504
70.1112
69.4449
68.5856
67.7165
66.8561
65.9356
64.9717
64.1989
63.3723
62.6251
61.9993
61.4201
60.8788
60.4013
60.0976
59.689
59.3619
59.093
58.813
58.6819
58.5005
58.4298
58.4977
58.6059
58.8959
59.2792
59.7831
60.4763
61.26
62.226
63.3694
64.6483
66.0565
67.4132
68.9411
70.3895
71.7585
73.1363
74.1359
75.1802
76.0472
76.3916
76.8369
77.0114
76.6239
76.4076
75.9971
74.9858
74.186
73.4295
71.9981
70.7923
69.8682
68.3823
66.9037
65.9177
64.5411
63.1194
62.0463
61.0047
59.933
59.0072
58.3869
57.7851
57.1733
56.9369
56.913
56.6873
56.8008
57.2196
57.3928
57.7964
58.3804
58.682
58.822
58.9022
59.1546
59.3538
59.4207
60.3918
61.8206
63.2703
65.359
67.9813
70.5909
73.0618
75.8981
78.8333
81.2192
82.6466
83.651
84.7167
85.4417
85.2061
83.5613
82.1093
80.5087
77.859
75.7984
72.4226
66.7867
63.5189
56.3204
49.6657
40.5042
33.3439
23.8689
18.9618
14.4125
14.7568
15.8659
17.8696
18.5236
17.6178
76.1406
75.7741
73.5124
71.5539
70.32
70.0055
69.9692
70.1852
70.5106
70.973
71.3065
71.2123
70.864
70.5021
70.4228
70.3408
70.2152
69.8755
69.4533
69.2211
69.1827
69.328
69.4563
69.5371
69.6578
69.835
70.0404
70.4155
70.7179
71.0957
71.417
71.6285
71.8598
72.008
72.1787
72.3378
72.3602
72.3225
72.2462
72.1183
71.9904
71.8663
71.6369
71.4081
71.2302
70.9521
70.7559
70.5368
70.305
70.1642
69.9742
69.839
69.7675
69.6657
69.5931
69.6038
69.589
69.5643
69.6279
69.6222
69.6778
69.7229
69.7119
69.8129
69.8462
69.8508
69.9546
70.0266
70.0786
70.2035
70.3113
70.4255
70.6314
70.7459
70.8922
71.1205
71.2265
71.3566
71.5196
71.5606
71.5619
71.5984
71.381
71.1602
70.9882
70.4285
69.9565
69.4684
68.6841
67.9546
67.2318
66.4219
65.5785
64.8771
64.1793
63.4554
62.9247
62.4061
61.8827
61.4695
61.1089
60.7579
60.4058
60.0964
59.8743
59.6909
59.4907
59.3941
59.3833
59.4168
59.5857
59.848
60.2131
60.6876
61.293
62.1103
62.9978
64.0543
65.2723
66.4367
67.8169
69.1571
70.3663
71.7337
72.8102
73.7854
74.8142
75.3476
75.8495
76.3314
76.1842
76.0447
75.9867
75.2253
74.5241
74.0235
72.9415
71.8363
71.0389
69.8596
68.5728
67.4941
66.2772
65.0093
63.8356
62.8253
61.8127
60.8794
60.1593
59.4667
58.8099
58.3499
58.0044
57.8243
57.9526
58.0427
57.9795
58.326
58.7674
58.8241
58.5913
58.2934
58.1518
57.8076
57.6112
58.3643
59.541
61.0438
63.1244
65.6103
68.1952
71.2766
74.4513
77.7075
80.1062
81.5342
82.4499
83.7587
84.3976
83.8562
83.1748
81.851
80.2491
78.1197
75.3284
71.7047
66.6472
64.8757
57.5559
49.4012
37.9973
30.2675
22.5428
17.9891
14.0073
14.8078
17.3489
20.5438
22.6882
23.3571
75.8922
75.5587
73.3921
71.5931
70.4286
70.1096
70.0141
70.2675
70.5565
70.9924
71.3228
71.2516
70.96
70.5388
70.4763
70.3677
70.3329
70.0464
69.6714
69.4366
69.332
69.473
69.5445
69.6272
69.6796
69.8087
69.9638
70.2547
70.5744
70.8883
71.2188
71.3962
71.6063
71.7754
71.9263
72.1316
72.1728
72.164
72.1381
72.0369
71.9713
71.8548
71.6787
71.4692
71.3076
71.074
70.8723
70.6852
70.4519
70.3096
70.1342
69.9678
69.8919
69.7719
69.678
69.6699
69.6264
69.5943
69.6327
69.6163
69.6502
69.6906
69.6664
69.7559
69.7862
69.7823
69.8838
69.9373
69.9775
70.0886
70.1707
70.2652
70.4496
70.5394
70.6503
70.8583
70.924
71.0421
71.1717
71.1893
71.1985
71.213
71.0484
70.8548
70.7142
70.2794
69.8547
69.466
68.8362
68.1837
67.5866
66.9011
66.1668
65.5339
64.9318
64.2872
63.7768
63.3456
62.8553
62.4438
62.1072
61.7436
61.4104
61.1014
60.8827
60.6803
60.4286
60.2964
60.1848
60.1382
60.1919
60.2941
60.5285
60.8193
61.2852
61.8923
62.5531
63.4266
64.408
65.4293
66.6317
67.8513
69.0053
70.3271
71.4555
72.5179
73.6649
74.3839
75.0368
75.6982
75.8223
75.8996
75.9552
75.5341
75.0257
74.5826
73.847
72.9065
72.1232
71.2302
70.0852
68.9585
67.9334
66.7447
65.5639
64.5257
63.4744
62.4988
61.7727
60.9599
60.1669
59.6547
59.0269
58.6211
58.8281
58.865
58.5947
58.8031
59.1426
59.0433
58.6138
58.0493
57.4839
56.767
56.3291
56.6548
57.6434
59.2736
61.5252
63.7813
66.4098
69.7594
73.2588
76.703
79.2508
80.6899
81.645
82.8032
83.5881
82.9279
82.4217
81.1163
79.1627
77.5228
74.4555
71.2067
67.3773
65.2306
55.911
46.5022
33.2148
25.7678
20.1361
16.042
13.8781
15.5208
19.3073
23.7317
27.0962
29.2654
75.5155
75.1695
73.1871
71.5911
70.6003
70.307
70.229
70.4381
70.6873
71.0471
71.326
71.2646
71.0056
70.6127
70.5021
70.4113
70.3718
70.1679
69.8493
69.6225
69.4968
69.5805
69.631
69.6867
69.7093
69.7847
69.9101
70.1203
70.3974
70.6471
70.9365
71.125
71.3405
71.5423
71.7133
71.9375
72.0222
72.0537
72.0587
72.0017
71.9673
71.8654
71.7329
71.5485
71.3895
71.1975
70.9878
70.815
70.5897
70.4303
70.2659
70.0838
69.9901
69.8635
69.7594
69.7238
69.6555
69.6246
69.6216
69.6012
69.628
69.636
69.6341
69.6914
69.7064
69.7247
69.781
69.8391
69.8781
69.9569
70.0364
70.1059
70.2718
70.3249
70.429
70.6003
70.6313
70.7593
70.8292
70.8495
70.8707
70.8547
70.7676
70.5901
70.4797
70.1684
69.7913
69.4833
68.9864
68.4439
67.9187
67.3795
66.7421
66.1676
65.6683
65.073
64.6002
64.2093
63.7767
63.369
63.0397
62.6985
62.3725
62.0906
61.8334
61.6124
61.3315
61.1293
60.9577
60.8167
60.7657
60.7181
60.8089
60.9474
61.209
61.6066
62.0622
62.7384
63.5088
64.3906
65.4669
66.5648
67.7368
69.016
70.2111
71.4414
72.6319
73.5342
74.4157
75.1772
75.5733
75.8629
76.0237
75.8776
75.566
75.1958
74.6953
73.9864
73.1855
72.4564
71.4504
70.4008
69.4334
68.2711
67.1117
65.9808
64.8624
63.9016
63.0341
62.1657
61.3509
60.5977
59.8863
59.4091
59.3572
59.3869
59.2651
59.4136
59.6074
59.4669
58.9418
58.1189
57.0724
55.9562
55.263
55.5097
56.5076
58.0829
60.0101
62.2933
65.2674
68.8701
72.5123
76.0509
78.7341
80.1747
81.3044
82.2441
82.8793
82.1221
81.4968
81.4061
77.6099
76.5054
75.5672
72.6666
68.3948
64.6715
55.9143
43.9216
28.5136
21.5736
16.9315
13.8413
13.9227
16.7561
22.1377
27.474
31.7167
35.2556
74.9367
74.5721
72.9269
71.614
70.8916
70.6331
70.5894
70.704
70.8809
71.124
71.2867
71.2248
70.995
70.693
70.5454
70.4696
70.4081
70.2565
70.0194
69.8087
69.6912
69.6925
69.6926
69.6973
69.6745
69.7071
69.7917
69.953
70.1897
70.4259
70.7011
70.9106
71.1414
71.3523
71.5588
71.7675
71.89
71.9608
71.9889
71.9894
71.9671
71.899
71.7887
71.6372
71.4796
71.3057
71.1099
70.9189
70.7271
70.5434
70.3737
70.2061
70.0652
69.9427
69.8259
69.753
69.6829
69.6414
69.6116
69.594
69.6043
69.5817
69.6031
69.6166
69.6221
69.6668
69.6755
69.7388
69.7746
69.8194
69.9054
69.9527
70.0793
70.1247
70.2229
70.3501
70.3674
70.5044
70.5237
70.5531
70.6046
70.5422
70.5269
70.3822
70.2792
70.0721
69.7577
69.5192
69.1248
68.6927
68.2588
67.8069
67.2943
66.7899
66.3458
65.851
65.406
65.0469
64.6386
64.2498
63.9449
63.6126
63.3096
63.0197
62.7349
62.4821
62.176
61.9185
61.6773
61.4391
61.2636
61.0928
61.0136
61.0039
61.0766
61.2839
61.6174
62.1174
62.7509
63.5463
64.4764
65.5204
66.7157
67.9694
69.2533
70.5448
71.7796
72.9072
73.933
74.7978
75.4391
75.9057
76.1633
76.2206
76.068
75.7861
75.398
74.8279
74.1792
73.4607
72.6135
71.6379
70.597
69.4729
68.2921
67.0883
65.9442
64.947
63.9969
63.0368
62.0836
61.2647
60.5832
60.0979
59.8377
59.8195
59.9281
60.1166
60.2337
59.9761
59.3058
58.2178
56.7607
55.2249
54.2936
54.5418
55.703
57.3445
59.1932
61.3971
64.6242
68.4285
72.1917
75.9695
78.7205
80.1708
81.4616
82.5702
82.5693
81.4411
81.0256
80.7638
79.225
76.9839
76.0017
74.4748
70.6398
65.2708
57.0735
44.3422
28.2806
21.1399
15.2922
13.6295
15.3972
19.1662
25.888
31.5298
36.8151
41.4806
74.1264
73.8365
72.7036
71.7697
71.2844
71.0719
70.9931
71.0229
71.0793
71.1906
71.2329
71.1545
70.9741
70.7632
70.6174
70.5376
70.4507
70.3172
70.1399
69.951
69.8373
69.7681
69.7227
69.6805
69.637
69.6465
69.7065
69.8378
70.0148
70.24
70.4669
70.7183
70.9595
71.1777
71.4307
71.6204
71.7904
71.8942
71.9539
71.9991
71.9784
71.9474
71.8424
71.7276
71.5696
71.3949
71.218
71.0057
70.8363
70.6335
70.4555
70.2988
70.1254
70.0049
69.8783
69.7799
69.7049
69.6486
69.6012
69.5808
69.572
69.5387
69.5686
69.5533
69.5583
69.6052
69.587
69.6526
69.6814
69.7046
69.7996
69.8249
69.9178
69.9754
70.0491
70.1387
70.1619
70.2838
70.2718
70.3257
70.3776
70.2983
70.3358
70.2247
70.133
70.0013
69.7651
69.5756
69.2597
68.9367
68.5822
68.1946
67.7938
67.3591
66.9633
66.54
66.1355
65.7586
65.3937
65.0479
64.7331
64.4281
64.1188
63.8146
63.5213
63.2158
62.8965
62.5844
62.2491
61.9384
61.632
61.3566
61.1637
61.0124
60.9948
61.0837
61.3099
61.7089
62.2336
62.9665
63.8218
64.8097
66.0292
67.2577
68.5704
69.9153
71.2113
72.4627
73.597
74.5543
75.3557
75.9449
76.3027
76.467
76.4303
76.2184
75.883
75.4509
74.8923
74.2063
73.4058
72.4726
71.4067
70.2487
69.0383
67.796
66.645
65.6312
64.6637
63.6272
62.5673
61.6592
61.0726
60.7107
60.3921
60.1711
60.319
60.7266
60.9127
60.6043
59.7274
58.2582
56.3654
54.4712
53.3491
53.4988
54.8588
56.8324
59.0502
61.7701
64.994
68.5657
72.5046
76.5488
79.2223
80.8959
82.4093
83.3582
82.8191
81.3574
80.614
81.0619
78.8953
77.0689
77.237
75.334
72.3441
66.9262
58.6425
45.9353
30.3788
22.9541
15.9358
16.3538
18.7188
22.6887
30.7049
35.6812
42.0798
47.4343
73.2762
73.1539
72.6141
72.114
71.7772
71.549
71.3778
71.3061
71.2513
71.2329
71.1775
71.0782
70.9458
70.8037
70.678
70.5932
70.4908
70.3681
70.2244
70.0611
69.9407
69.8214
69.7325
69.652
69.5981
69.5946
69.6414
69.7498
69.9019
70.1154
70.332
70.587
70.84
71.0774
71.3415
71.5327
71.7191
71.8499
71.933
71.996
71.9924
71.9706
71.8841
71.7799
71.6277
71.4602
71.2843
71.0775
70.9019
70.698
70.5162
70.3511
70.1744
70.0436
69.9108
69.8021
69.7209
69.6525
69.6023
69.5693
69.5484
69.5206
69.5319
69.5162
69.5195
69.5519
69.5405
69.5894
69.6158
69.6369
69.7068
69.7323
69.8025
69.8566
69.918
69.9874
70.0213
70.1136
70.1122
70.1694
70.2098
70.1562
70.2064
70.1274
70.0586
69.9763
69.7933
69.6482
69.3911
69.1401
68.8533