/*--------------------------------*- C++ -*----------------------------------*\
| =========                 |                                                 |
| \\      /  F ield         | OpenFOAM: The Open Source CFD Toolbox           |
|  \\    /   O peration     | Version:  2.4.0                                 |
|   \\  /    A nd           | Web:      www.OpenFOAM.org                      |
|    \\/     M anipulation  |                                                 |
\*---------------------------------------------------------------------------*/
FoamFile
{
    version     2.0;
    format      ascii;
    class       surfaceScalarField;
    location    "0.6";
    object      phi_0;
}
// * * * * * * * * * * * * * * * * * * * * * * * * * * * * * * * * * * * * * //

dimensions      [0 3 -1 0 0 0 0];

internalField   nonuniform List<scalar> 
17320
(
1.75492e-05
7.45085e-06
1.17235e-05
5.82561e-06
8.67299e-06
3.05055e-06
7.39141e-06
1.28159e-06
6.70096e-06
6.90446e-07
6.28244e-06
4.18519e-07
6.18592e-06
9.65263e-08
5.71078e-06
4.75133e-07
5.91187e-06
-2.0109e-07
5.40121e-06
5.10666e-07
5.70992e-06
-3.08716e-07
5.27416e-06
4.35765e-07
5.46417e-06
-1.9001e-07
5.22277e-06
2.41394e-07
5.24841e-06
-2.56382e-08
5.09082e-06
1.57587e-07
5.19862e-06
-1.07799e-07
4.90769e-06
2.90934e-07
4.77733e-06
1.30358e-07
-8.71078e-07
5.64841e-06
2.53351e-05
7.11573e-06
2.33575e-05
7.80322e-06
2.09519e-05
5.45617e-06
1.93867e-05
2.84677e-06
1.80173e-05
2.05982e-06
1.71007e-05
1.33513e-06
1.64222e-05
7.75083e-07
1.56554e-05
1.24191e-06
1.55067e-05
-5.24003e-08
1.47829e-05
1.2345e-06
1.49653e-05
-4.91192e-07
1.42894e-05
1.11165e-06
1.45204e-05
-4.20967e-07
1.39878e-05
7.74009e-07
1.41082e-05
-1.46017e-07
1.3727e-05
5.38735e-07
1.38477e-05
-2.28506e-07
1.33801e-05
7.58593e-07
1.33879e-05
1.22511e-07
-9.11184e-07
1.3428e-05
2.64851e-05
5.63062e-06
2.72503e-05
7.038e-06
2.67029e-05
6.00366e-06
2.63597e-05
3.18988e-06
2.55101e-05
2.90946e-06
2.49487e-05
1.89649e-06
2.41155e-05
1.60834e-06
2.35001e-05
1.85728e-06
2.30298e-05
4.17914e-07
2.23916e-05
1.87273e-06
2.23794e-05
-4.7907e-07
2.16434e-05
1.84766e-06
2.19202e-05
-6.97773e-07
2.12055e-05
1.48878e-06
2.14148e-05
-3.55368e-07
2.09603e-05
9.93283e-07
2.10004e-05
-2.68676e-07
2.05127e-05
1.24634e-06
2.06209e-05
1.42696e-08
-3.71821e-07
2.00816e-05
2.6199e-05
4.4316e-06
2.76101e-05
5.6269e-06
2.79832e-05
5.63062e-06
2.86219e-05
2.55118e-06
2.85135e-05
3.01784e-06
2.88717e-05
1.53829e-06
2.82764e-05
2.20365e-06
2.84195e-05
1.71415e-06
2.79044e-05
9.33067e-07
2.77278e-05
2.04931e-06
2.77368e-05
-4.88124e-07
2.71404e-05
2.44412e-06
2.76183e-05
-1.17573e-06
2.68779e-05
2.22919e-06
2.71804e-05
-6.57829e-07
2.68238e-05
1.34984e-06
2.67963e-05
-2.41178e-07
2.62558e-05
1.78691e-06
2.66053e-05
-3.35305e-07
7.76008e-07
2.54575e-05
2.60022e-05
3.42942e-06
2.7178e-05
4.45106e-06
2.79529e-05
4.85572e-06
2.86976e-05
1.80645e-06
2.88456e-05
2.86991e-06
2.9886e-05
4.97887e-07
2.92121e-05
2.87749e-06
3.02971e-05
6.29133e-07
2.9576e-05
1.65423e-06
3.00994e-05
1.52587e-06
3.0178e-05
-5.66743e-07
2.98131e-05
2.80907e-06
3.06936e-05
-2.0562e-06
2.99854e-05
2.93732e-06
3.04837e-05
-1.15611e-06
3.0225e-05
1.60853e-06
3.0688e-05
-7.04114e-07
2.96168e-05
2.85803e-06
3.09185e-05
-1.63694e-06
7.57618e-07
3.09369e-05
2.61838e-05
2.24557e-06
2.66241e-05
4.01079e-06
2.79636e-05
3.51621e-06
2.8313e-05
1.45708e-06
2.84281e-05
2.75478e-06
3.00567e-05
-1.13065e-06
2.90143e-05
3.9199e-06
3.09742e-05
-1.3308e-06
2.99721e-05
2.65638e-06
3.07525e-05
7.45456e-07
3.11416e-05
-9.55893e-07
3.03281e-05
3.62254e-06
3.16397e-05
-3.36771e-06
3.07251e-05
3.85185e-06
3.12667e-05
-1.69773e-06
3.08386e-05
2.0367e-06
3.19384e-05
-1.80394e-06
3.04191e-05
4.37737e-06
3.13269e-05
-2.54481e-06
1.02146e-06
3.10631e-05
2.65346e-05
7.10926e-07
2.60121e-05
4.53335e-06
2.79302e-05
1.59814e-06
2.76092e-05
1.77804e-06
2.8092e-05
2.27194e-06
2.94144e-05
-2.45304e-06
2.87285e-05
4.60584e-06
3.13324e-05
-3.93475e-06
3.01699e-05
3.81891e-06
3.14136e-05
-4.9821e-07
3.15222e-05
-1.06454e-06
3.0564e-05
4.58075e-06
3.14981e-05
-4.30183e-06
3.06178e-05
4.73214e-06
3.09977e-05
-2.07757e-06
3.06366e-05
2.39778e-06
3.12544e-05
-2.42177e-06
3.0357e-05
5.27478e-06
3.0703e-05
-2.89074e-06
6.90033e-07
3.10344e-05
2.67699e-05
-1.059e-06
2.58569e-05
5.44633e-06
2.7758e-05
-3.02878e-07
2.68766e-05
2.65937e-06
2.81794e-05
9.69171e-07
2.76518e-05
-1.92545e-06
2.82952e-05
3.96248e-06
2.93221e-05
-4.96169e-06
2.8955e-05
4.18598e-06
3.09811e-05
-2.52428e-06
2.97476e-05
1.68954e-07
3.0751e-05
3.57735e-06
3.02909e-05
-3.84178e-06
2.97119e-05
5.31115e-06
3.03248e-05
-2.69042e-06
3.01473e-05
2.57529e-06
2.96868e-05
-1.96129e-06
3.03452e-05
4.61634e-06
3.03762e-05
-2.92173e-06
7.56079e-07
3.03102e-05
2.61048e-05
-2.16378e-06
2.60493e-05
5.50182e-06
2.8022e-05
-2.2756e-06
2.70934e-05
3.58802e-06
2.86097e-05
-5.4714e-07
2.76536e-05
-9.69379e-07
2.84678e-05
3.14827e-06
2.78671e-05
-4.36097e-06
2.85855e-05
3.46759e-06
2.82579e-05
-2.19665e-06
2.83694e-05
5.74392e-08
2.95144e-05
2.43234e-06
2.83669e-05
-2.69428e-06
2.96232e-05
4.05483e-06
2.94058e-05
-2.47307e-06
2.98808e-05
2.10037e-06
2.89253e-05
-1.00579e-06
3.11075e-05
2.43414e-06
3.02694e-05
-2.08372e-06
7.34699e-07
3.02908e-05
2.55426e-05
-2.70639e-06
2.65559e-05
4.48853e-06
2.77518e-05
-3.47151e-06
2.79952e-05
3.3446e-06
2.89682e-05
-1.52012e-06
2.82997e-05
-3.00889e-07
2.92972e-05
2.15075e-06
2.83324e-05
-3.39611e-06
2.90694e-05
2.73053e-06
2.85457e-05
-1.6729e-06
2.89347e-05
-3.31549e-07
2.94506e-05
1.91644e-06
2.93833e-05
-2.62695e-06
3.02657e-05
3.17235e-06
3.00351e-05
-2.24244e-06
3.12681e-05
8.6734e-07
2.99906e-05
2.7173e-07
3.23318e-05
9.29887e-08
3.12541e-05
-1.00607e-06
1.09089e-07
3.18797e-05
2.53881e-05
-3.09445e-06
2.68092e-05
3.06744e-06
2.75021e-05
-4.1645e-06
2.83508e-05
2.49593e-06
2.86708e-05
-1.84008e-06
2.87527e-05
-3.82778e-07
2.94591e-05
1.4443e-06
2.89792e-05
-2.91619e-06
2.9545e-05
2.16475e-06
2.94229e-05
-1.55083e-06
2.97768e-05
-6.85425e-07
2.99728e-05
1.72044e-06
3.03917e-05
-3.04585e-06
3.09745e-05
2.58957e-06
3.06514e-05
-1.91936e-06
3.18495e-05
-3.30722e-07
3.11192e-05
1.00196e-06
3.23014e-05
-1.08918e-06
3.18179e-05
-5.22619e-07
-2.71389e-07
3.21984e-05
2.52599e-05
-3.3544e-06
2.67122e-05
1.61516e-06
2.73007e-05
-4.75298e-06
2.82252e-05
1.57143e-06
2.84016e-05
-2.01652e-06
2.87795e-05
-7.60596e-07
2.9184e-05
1.03978e-06
2.92129e-05
-2.94513e-06
2.96933e-05
1.68438e-06
2.96979e-05
-1.55541e-06
2.99116e-05
-8.99119e-07
3.04139e-05
1.21807e-06
3.01692e-05
-2.80114e-06
3.1071e-05
1.68782e-06
3.07513e-05
-1.59966e-06
3.12628e-05
-8.42215e-07
3.11806e-05
1.08415e-06
3.18021e-05
-1.71067e-06
3.18934e-05
-6.13963e-07
4.5687e-08
3.15763e-05
2.50335e-05
-3.38786e-06
2.66992e-05
-5.05616e-08
2.7187e-05
-5.24079e-06
2.81581e-05
6.00305e-07
2.83827e-05
-2.24113e-06
2.86503e-05
-1.0282e-06
2.92226e-05
4.67467e-07
2.91953e-05
-2.91783e-06
2.97387e-05
1.141e-06
2.99004e-05
-1.71712e-06
2.99378e-05
-9.36525e-07
3.04525e-05
7.03398e-07
3.02035e-05
-2.55215e-06
3.09496e-05
9.41727e-07
3.055e-05
-1.20008e-06
3.1055e-05
-1.34714e-06
3.11889e-05
9.50159e-07
3.15778e-05
-2.09955e-06
3.17824e-05
-8.18547e-07
1.83074e-07
3.1645e-05
2.51558e-05
-3.54364e-06
2.69425e-05
-1.83729e-06
2.72644e-05
-5.56272e-06
2.82231e-05
-3.58304e-07
2.84617e-05
-2.47979e-06
2.87289e-05
-1.29538e-06
2.93238e-05
-1.27458e-07
2.937e-05
-2.96399e-06
2.97602e-05
7.50823e-07
3.00249e-05
-1.98182e-06
3.00724e-05
-9.84013e-07
3.04504e-05
3.25368e-07
3.04579e-05
-2.55964e-06
3.08613e-05
5.38291e-07
3.07838e-05
-1.12259e-06
3.11353e-05
-1.69862e-06
3.13904e-05
6.95093e-07
3.1567e-05
-2.2762e-06
3.1802e-05
-1.05356e-06
-1.74913e-07
3.216e-05
2.54304e-05
-3.97405e-06
2.71952e-05
-3.60204e-06
2.74003e-05
-5.76782e-06
2.8425e-05
-1.38309e-06
2.86405e-05
-2.69529e-06
2.90113e-05
-1.66618e-06
2.95833e-05
-6.9943e-07
2.95138e-05
-2.89451e-06
3.00517e-05
2.12998e-07
3.01629e-05
-2.09308e-06
3.0226e-05
-1.04705e-06
3.06544e-05
-1.0312e-07
3.05021e-05
-2.40726e-06
3.09029e-05
1.37417e-07
3.08615e-05
-1.08112e-06
3.09687e-05
-1.80587e-06
3.13241e-05
3.39679e-07
3.11763e-05
-2.12837e-06
3.14972e-05
-1.37444e-06
-6.76116e-07
3.19984e-05
2.57276e-05
-4.70164e-06
2.7449e-05
-5.32344e-06
2.76196e-05
-5.93842e-06
2.8703e-05
-2.46649e-06
2.88598e-05
-2.85208e-06
2.92958e-05
-2.10216e-06
2.97222e-05
-1.12591e-06
2.94714e-05
-2.64363e-06
3.00487e-05
-3.64316e-07
2.98032e-05
-1.8476e-06
2.98859e-05
-1.12976e-06
3.01283e-05
-3.4551e-07
2.97114e-05
-1.99042e-06
3.00184e-05
-1.69554e-07
2.98271e-05
-8.89807e-07
2.96122e-05
-1.59097e-06
2.98464e-05
1.05472e-07
2.94659e-05
-1.74782e-06
2.95334e-05
-1.44192e-06
-7.27194e-07
2.95844e-05
2.60767e-05
-5.77831e-06
2.76852e-05
-6.93201e-06
2.78165e-05
-6.06971e-06
2.86071e-05
-3.25706e-06
2.85009e-05
-2.74588e-06
2.85942e-05
-2.1955e-06
2.85907e-05
-1.12238e-06
2.80116e-05
-2.06451e-06
2.82001e-05
-5.52832e-07
2.75927e-05
-1.24026e-06
2.74403e-05
-9.77285e-07
2.73426e-05
-2.47809e-07
2.66994e-05
-1.34729e-06
2.67855e-05
-2.55616e-07
2.63981e-05
-5.02363e-07
2.59642e-05
-1.15707e-06
2.60557e-05
1.39118e-08
2.54596e-05
-1.15173e-06
2.52066e-05
-1.18892e-06
-6.78946e-07
2.51584e-05
2.64148e-05
-7.19309e-06
2.72544e-05
-7.7716e-06
2.66284e-05
-5.44375e-06
2.63197e-05
-2.94836e-06
2.54894e-05
-1.91557e-06
2.47939e-05
-1.50001e-06
2.42542e-05
-5.82635e-07
2.33538e-05
-1.16416e-06
2.31e-05
-2.98954e-07
2.24136e-05
-5.53915e-07
2.20497e-05
-6.13403e-07
2.18201e-05
-1.81278e-08
2.12013e-05
-7.28571e-07
2.11292e-05
-1.83455e-07
2.07748e-05
-1.48028e-07
2.0323e-05
-7.05208e-07
2.03217e-05
1.51387e-08
1.97367e-05
-5.66654e-07
1.92832e-05
-7.35409e-07
-4.51683e-08
1.86494e-05
2.5288e-05
-7.48109e-06
2.33374e-05
-5.82102e-06
2.09217e-05
-3.028e-06
1.93193e-05
-1.34604e-06
1.80098e-05
-6.0601e-07
1.69977e-05
-4.87932e-07
1.64641e-05
-4.90563e-08
1.56701e-05
-3.70123e-07
1.5417e-05
-4.58927e-08
1.49687e-05
-1.05566e-07
1.46071e-05
-2.51823e-07
1.45043e-05
8.46813e-08
1.40341e-05
-2.58391e-07
1.39243e-05
-7.36252e-08
1.37438e-05
3.24625e-08
1.3336e-05
-2.97448e-07
1.33151e-05
3.60252e-08
1.29075e-05
-1.59044e-07
1.2524e-05
-3.51897e-07
1.31014e-07
1.23478e-05
1.75189e-05
1.16979e-05
8.66989e-06
7.32385e-06
6.71784e-06
6.22991e-06
6.18086e-06
5.81073e-06
5.76484e-06
5.65927e-06
5.40745e-06
5.49213e-06
5.23374e-06
5.16012e-06
5.19258e-06
4.89513e-06
4.93116e-06
4.77211e-06
4.42022e-06
4.55123e-06
5.84659e-06
-4.69803e-07
2.7162e-07
5.98489e-06
-1.5052e-07
1.22252e-08
6.05093e-06
-1.0285e-07
3.68061e-08
6.117e-06
-9.13405e-08
2.52698e-08
6.19928e-06
-2.32653e-07
1.50376e-07
6.27339e-06
-2.48333e-07
1.74218e-07
6.39964e-06
-3.22687e-07
1.96445e-07
6.51787e-06
-1.83215e-07
6.49829e-08
6.66232e-06
-9.0111e-08
-5.43434e-08
6.80971e-06
1.51285e-07
-2.98675e-07
7.03823e-06
3.35311e-07
-5.63827e-07
7.24812e-06
6.53854e-07
-8.63747e-07
7.50839e-06
8.47266e-07
-1.10753e-06
7.76529e-06
1.13809e-06
-1.395e-06
8.0561e-06
1.2203e-06
-1.51111e-06
8.34089e-06
1.38411e-06
-1.6689e-06
8.67311e-06
1.28317e-06
-1.61539e-06
8.9923e-06
1.22814e-06
-1.54733e-06
9.36515e-06
8.61272e-07
-1.23412e-06
9.73658e-06
5.47322e-07
-9.18755e-07
1.01611e-05
-4.46032e-09
-4.20044e-07
1.05634e-05
-4.43944e-07
4.16542e-08
1.09766e-05
-1.00896e-06
5.95721e-07
1.13304e-05
-1.38024e-06
1.02646e-06
1.16421e-05
-1.80348e-06
1.4918e-06
1.18423e-05
-1.96789e-06
1.76771e-06
1.19645e-05
-2.16132e-06
2.03911e-06
1.19663e-05
-2.08014e-06
2.07828e-06
1.19025e-05
-2.05217e-06
2.11602e-06
1.1745e-05
-1.78685e-06
1.94436e-06
1.15517e-05
-1.61672e-06
1.80999e-06
1.13157e-05
-1.26472e-06
1.50068e-06
1.10865e-05
-1.03409e-06
1.26331e-06
1.08486e-05
-6.37414e-07
8.75366e-07
1.0639e-05
-4.02842e-07
6.12444e-07
1.04198e-05
-4.87606e-09
2.24048e-07
1.02223e-05
1.6468e-07
3.27708e-08
1.00141e-05
5.08392e-07
-3.00149e-07
9.81859e-06
5.90565e-07
-3.95061e-07
9.65412e-06
8.72533e-07
-7.08064e-07
9.51838e-06
9.11993e-07
-7.76246e-07
9.49944e-06
1.15199e-06
-1.13305e-06
9.51788e-06
1.13505e-06
-1.15349e-06
9.68829e-06
1.28347e-06
-1.45388e-06
9.91065e-06
1.1674e-06
-1.38976e-06
1.01874e-05
1.16118e-06
-1.43794e-06
1.04419e-05
8.67731e-07
-1.12222e-06
1.06704e-05
7.64647e-07
-9.93135e-07
1.08326e-05
3.95957e-07
-5.58125e-07
1.09506e-05
2.9179e-07
-4.09796e-07
1.10107e-05
-5.55688e-08
-4.61051e-09
1.10398e-05
-8.37042e-08
5.46409e-08
1.10733e-05
-3.30462e-07
2.96936e-07
1.10931e-05
-2.31545e-07
2.11761e-07
1.11446e-05
-4.05902e-07
3.54395e-07
1.11899e-05
-2.05748e-07
1.60479e-07
1.12864e-05
-3.52981e-07
2.56473e-07
1.13471e-05
-1.26758e-07
6.60384e-08
1.14607e-05
-3.04269e-07
1.90729e-07
1.15316e-05
-8.63145e-08
1.53746e-08
1.16448e-05
-2.78439e-07
1.65207e-07
1.17103e-05
-7.99714e-08
1.44795e-08
1.18129e-05
-2.94216e-07
1.91633e-07
1.18693e-05
-1.0704e-07
5.05958e-08
1.19507e-05
-3.45201e-07
2.63819e-07
1.19923e-05
-1.70392e-07
1.28855e-07
1.20605e-05
-4.05023e-07
3.3684e-07
1.2109e-05
-2.28083e-07
1.79503e-07
1.21681e-05
-4.48126e-07
3.8902e-07
1.22402e-05
-2.90204e-07
2.18093e-07
1.22906e-05
-5.12471e-07
4.62137e-07
1.23515e-05
-4.03733e-07
3.42804e-07
1.23545e-05
-6.8669e-07
6.83734e-07
1.23151e-05
-6.08876e-07
6.48214e-07
1.21148e-05
-9.22467e-07
1.1228e-06
1.19741e-05
-8.84247e-07
1.02498e-06
1.16014e-05
-1.11756e-06
1.49021e-06
1.13221e-05
-1.00148e-06
1.28081e-06
1.06742e-05
-1.01925e-06
1.66717e-06
1.01325e-05
-6.89412e-07
1.23113e-06
9.48787e-06
-4.93544e-07
1.13813e-06
9.10628e-06
6.42982e-08
3.17288e-07
8.85221e-06
4.99154e-07
-2.4508e-07
8.83439e-06
1.14057e-06
-1.12275e-06
9.44525e-06
1.76388e-06
-2.37474e-06
1.01488e-05
2.55373e-06
-3.25732e-06
1.13943e-05
2.97208e-06
-4.2175e-06
1.2596e-05
3.77606e-06
-4.97785e-06
1.38221e-05
3.98378e-06
-5.20979e-06
1.49692e-05
4.24408e-06
-5.3912e-06
1.57596e-05
4.03017e-06
-4.82062e-06
1.64542e-05
3.61846e-06
-4.31304e-06
1.68255e-05
3.18261e-06
-3.55394e-06
1.70986e-05
2.5389e-06
-2.81199e-06
1.71955e-05
2.01289e-06
-2.10976e-06
1.72079e-05
1.51287e-06
-1.52525e-06
1.71707e-05
1.06294e-06
-1.02573e-06
1.71087e-05
8.17002e-07
-7.55075e-07
1.70557e-05
5.30203e-07
-4.77159e-07
1.70613e-05
4.55205e-07
-4.60828e-07
1.70452e-05
3.00801e-07
-2.8465e-07
1.71708e-05
2.30119e-07
-3.5577e-07
1.71647e-05
1.34104e-07
-1.27977e-07
1.72929e-05
-7.71982e-08
-5.09662e-08
1.72681e-05
-2.23473e-07
2.48198e-07
1.71666e-05
-4.71463e-07
5.73014e-07
1.70693e-05
-8.76079e-07
9.73323e-07
1.68757e-05
-9.2199e-07
1.11566e-06
1.68284e-05
-1.39754e-06
1.44481e-06
1.68683e-05
-1.6145e-06
1.57461e-06
1.70198e-05
-2.04907e-06
1.89756e-06
1.74493e-05
-2.79138e-06
2.3619e-06
1.79112e-05
-3.36115e-06
2.89926e-06
1.84561e-05
-4.37035e-06
3.82538e-06
1.9024e-05
-5.44778e-06
4.87998e-06
1.94978e-05
-6.28907e-06
5.8152e-06
1.99769e-05
-7.44975e-06
6.97069e-06
2.02673e-05
-8.13624e-06
7.84578e-06
2.00208e-05
-8.33926e-06
8.58581e-06
1.9733e-05
-8.49168e-06
8.77949e-06
1.94211e-05
-8.12685e-06
8.43871e-06
1.89547e-05
-7.1532e-06
7.61966e-06
1.86177e-05
-6.19125e-06
6.52823e-06
1.83702e-05
-4.6063e-06
4.85375e-06
1.81232e-05
-3.14402e-06
3.39106e-06
1.75572e-05
-1.57899e-06
2.14499e-06
1.68492e-05
2.2923e-07
4.78709e-07
1.61137e-05
1.36965e-06
-6.34074e-07
1.57992e-05
2.60589e-06
-2.29141e-06
1.58982e-05
3.53888e-06
-3.63784e-06
1.60064e-05
4.74456e-06
-4.85279e-06
1.63561e-05
5.29987e-06
-5.64956e-06
1.67941e-05
5.86437e-06
-6.30238e-06
1.71208e-05
6.53798e-06
-6.86473e-06
1.74757e-05
6.35905e-06
-6.7139e-06
1.82826e-05
6.31211e-06
-7.11906e-06
1.87615e-05
6.30844e-06
-6.78731e-06
1.90407e-05
5.88674e-06
-6.16597e-06
1.97624e-05
5.07117e-06
-5.79281e-06
2.0565e-05
4.55188e-06
-5.35446e-06
2.10098e-05
4.01413e-06
-4.45897e-06
2.12317e-05
3.14897e-06
-3.37082e-06
2.18711e-05
1.88648e-06
-2.52588e-06
2.24623e-05
1.46245e-06
-2.05374e-06
2.27781e-05
6.65901e-07
-9.81651e-07
2.31364e-05
-6.01624e-07
2.43293e-07
2.38633e-05
-1.40882e-06
6.81957e-07
2.43957e-05
-1.8713e-06
1.33888e-06
2.48419e-05
-3.33077e-06
2.88455e-06
2.55917e-05
-4.18949e-06
3.43968e-06
2.63889e-05
-5.16325e-06
4.36611e-06
2.69652e-05
-6.07637e-06
5.50005e-06
2.75514e-05
-7.68885e-06
7.10269e-06
2.82961e-05
-7.94479e-06
7.20004e-06
2.88006e-05
-9.77852e-06
9.27402e-06
2.92461e-05
-1.02013e-05
9.75579e-06
2.96815e-05
-1.11791e-05
1.07437e-05
2.99507e-05
-1.19946e-05
1.17253e-05
3.02051e-05
-1.31391e-05
1.28848e-05
2.99835e-05
-1.29356e-05
1.31572e-05
2.9644e-05
-1.39953e-05
1.43348e-05
2.8844e-05
-1.33577e-05
1.41577e-05
2.80431e-05
-1.27695e-05
1.35703e-05
2.68349e-05
-1.16691e-05
1.28773e-05
2.59061e-05
-1.13045e-05
1.22334e-05
2.47528e-05
-9.46635e-06
1.06196e-05
2.39627e-05
-8.52692e-06
9.31699e-06
2.3076e-05
-7.97538e-06
8.86203e-06
2.23884e-05
-6.70846e-06
7.39612e-06
2.16401e-05
-5.38442e-06
6.13266e-06
2.08882e-05
-4.98995e-06
5.74189e-06
2.02233e-05
-4.86641e-06
5.53132e-06
1.95387e-05
-3.14244e-06
3.82702e-06
1.89538e-05
-1.10492e-06
1.68978e-06
1.84486e-05
-2.00514e-06
2.51038e-06
1.79061e-05
-3.05905e-06
3.60153e-06
1.77215e-05
-1.04341e-06
1.22805e-06
1.7233e-05
3.18399e-06
-2.69548e-06
1.71026e-05
4.0911e-06
-3.96072e-06
1.67473e-05
4.18428e-06
-3.82903e-06
1.79595e-05
-1.68961e-06
4.77489e-07
1.90622e-05
-5.70063e-06
4.59785e-06
2.06351e-05
-1.17477e-05
1.01749e-05
2.16481e-05
-1.41526e-05
1.31395e-05
2.24583e-05
-1.39746e-05
1.31644e-05
2.26952e-05
-1.20853e-05
1.18485e-05
2.31626e-05
-9.74986e-06
9.28251e-06
2.36799e-05
-5.3668e-06
4.84946e-06
2.40395e-05
-8.78771e-07
5.19168e-07
2.44834e-05
3.22e-06
-3.66389e-06
2.5243e-05
8.11899e-06
-8.87856e-06
2.54255e-05
1.30073e-05
-1.31899e-05
2.53595e-05
1.732e-05
-1.7254e-05
2.53186e-05
2.20363e-05
-2.19954e-05
2.45391e-05
2.66206e-05
-2.58411e-05
2.28025e-05
2.97677e-05
-2.80311e-05
2.06315e-05
3.23533e-05
-3.01823e-05
1.79742e-05
3.5307e-05
-3.26496e-05
1.66614e-05
3.73465e-05
-3.60338e-05
4.60375e-05
-4.62689e-05
1.68928e-05
1.33982e-05
-4.39967e-07
1.34517e-05
-2.04004e-07
1.347e-05
-1.21207e-07
1.33689e-05
9.77923e-09
1.32951e-05
-1.58867e-07
1.31914e-05
-1.44582e-07
1.31154e-05
-2.46688e-07
1.30102e-05
-7.80087e-08
1.29699e-05
-4.98109e-08
1.29576e-05
1.63548e-07
1.30322e-05
2.60757e-07
1.3164e-05
5.21988e-07
1.33564e-05
6.549e-07
1.35802e-05
9.14316e-07
1.38638e-05
9.36662e-07
1.4156e-05
1.09186e-06
1.45094e-05
9.29832e-07
1.48575e-05
8.80066e-07
1.52556e-05
4.63077e-07
1.56468e-05
1.56153e-07
1.60719e-05
-4.29542e-07
1.64747e-05
-8.46769e-07
1.68731e-05
-1.40733e-06
1.72212e-05
-1.72837e-06
1.75188e-05
-2.10107e-06
1.77208e-05
-2.16985e-06
1.78558e-05
-2.2963e-06
1.78845e-05
-2.10891e-06
1.78516e-05
-2.01921e-06
1.77266e-05
-1.66192e-06
1.75261e-05
-1.41615e-06
1.72584e-05
-9.97098e-07
1.69351e-05
-7.10764e-07
1.65957e-05
-2.9798e-07
1.62494e-05
-5.66056e-08
1.59046e-05
3.3996e-07
1.55867e-05
4.82572e-07
1.52966e-05
7.98456e-07
1.50504e-05
8.36834e-07
1.48493e-05
1.07358e-06
1.47116e-05
1.04969e-06
1.4641e-05
1.22258e-06
1.46475e-05
1.12859e-06
1.47074e-05
1.22358e-06
1.48605e-05
1.01434e-06
1.49969e-05
1.02478e-06
1.51995e-05
6.65059e-07
1.53274e-05
6.36756e-07
1.55103e-05
2.13073e-07
1.56037e-05
1.98379e-07
1.57403e-05
-1.92131e-07
1.57951e-05
-1.38508e-07
1.59019e-05
-4.37311e-07
1.59465e-05
-2.76103e-07
1.60482e-05
-5.07643e-07
1.61078e-05
-2.65366e-07
1.62231e-05
-4.68273e-07
1.62885e-05
-1.92131e-07
1.63934e-05
-4.09159e-07
1.64545e-05
-1.47462e-07
1.65577e-05
-3.81577e-07
1.66122e-05
-1.3445e-07
1.67062e-05
-3.88239e-07
1.67498e-05
-1.50698e-07
1.68307e-05
-4.26107e-07
1.6856e-05
-1.956e-07
1.69209e-05
-4.69956e-07
1.69474e-05
-2.54619e-07
1.70113e-05
-5.11994e-07
1.70339e-05
-3.12829e-07
1.7099e-05
-5.77538e-07
1.70941e-05
-3.98883e-07
1.70996e-05
-6.92124e-07
1.70305e-05
-5.39859e-07
1.6936e-05
-8.27957e-07
1.67274e-05
-6.7565e-07
1.64736e-05
-8.63748e-07
1.60924e-05
-6.20255e-07
1.57604e-05
-6.8726e-07
1.53235e-05
-2.52495e-07
1.49521e-05
-1.22188e-07
1.45189e-05
4.9754e-07
1.41977e-05
8.20371e-07
1.38378e-05
1.50048e-06
1.37068e-05
1.89483e-06
1.377e-05
2.49059e-06
1.40001e-05
2.74192e-06
1.46398e-05
3.13635e-06
1.53108e-05
3.31276e-06
1.61737e-05
3.38125e-06
1.68556e-05
3.34821e-06
1.74667e-05
3.00734e-06
1.79075e-05
2.74181e-06
1.81611e-05
2.28539e-06
1.83198e-05
1.85419e-06
1.83623e-05
1.47032e-06
1.83133e-05
1.11191e-06
1.82949e-05
8.35448e-07
1.82125e-05
6.126e-07
1.8237e-05
4.30653e-07
1.82058e-05
3.32072e-07
1.8327e-05
1.08888e-07
1.83797e-05
8.14201e-08
1.85197e-05
-2.17176e-07
1.86377e-05
-3.41526e-07
1.87138e-05
-5.47503e-07
1.88768e-05
-1.03908e-06
1.90588e-05
-1.10405e-06
1.93395e-05
-1.67823e-06
1.98178e-05
-2.09279e-06
2.02705e-05
-2.50176e-06
2.09589e-05
-3.47977e-06
2.16038e-05
-4.0061e-06
2.21942e-05
-4.96071e-06
2.28468e-05
-6.10038e-06
2.32422e-05
-6.68452e-06
2.33895e-05
-7.59701e-06
2.33505e-05
-8.09728e-06
2.31658e-05
-8.15449e-06
2.30936e-05
-8.41951e-06
2.264e-05
-7.67321e-06
2.21293e-05
-6.64257e-06
2.17859e-05
-5.84786e-06
2.12781e-05
-4.09846e-06
2.11256e-05
-2.99155e-06
2.10022e-05
-1.45554e-06
2.09072e-05
3.24194e-07
2.06645e-05
1.6124e-06
2.00183e-05
3.25207e-06
1.95462e-05
4.011e-06
1.9343e-05
4.94777e-06
1.91858e-05
5.45699e-06
1.95334e-05
5.51682e-06
2.01351e-05
5.93632e-06
2.03929e-05
6.10116e-06
2.08733e-05
5.83176e-06
2.17183e-05
5.46345e-06
2.2118e-05
5.487e-06
2.24376e-05
4.75161e-06
2.3061e-05
3.92846e-06
2.37322e-05
3.34289e-06
2.40654e-05
2.81581e-06
2.44465e-05
1.50534e-06
2.51667e-05
7.42266e-07
2.55924e-05
2.40165e-07
2.60599e-05
-1.06904e-06
2.65838e-05
-1.93274e-06
2.75168e-05
-2.80429e-06
2.78301e-05
-3.64408e-06
2.86811e-05
-5.04049e-06
2.92491e-05
-5.7313e-06
3.00515e-05
-6.87872e-06
3.03166e-05
-7.95397e-06
3.1026e-05
-8.65418e-06
3.12853e-05
-1.00378e-05
3.17794e-05
-1.06954e-05
3.18415e-05
-1.12411e-05
3.20339e-05
-1.2187e-05
3.18979e-05
-1.3003e-05
3.15391e-05
-1.25769e-05
3.06644e-05
-1.31206e-05
2.9699e-05
-1.23923e-05
2.86636e-05
-1.1734e-05
2.74197e-05
-1.04251e-05
2.65192e-05
-1.0404e-05
2.55126e-05
-8.45977e-06
2.472e-05
-7.73427e-06
2.38568e-05
-7.11224e-06
2.32164e-05
-6.068e-06
2.25439e-05
-4.71193e-06
2.15838e-05
-4.02991e-06
2.09422e-05
-4.22478e-06
2.01638e-05
-2.36405e-06
1.96045e-05
-5.45574e-07
1.89876e-05
-1.38828e-06
1.83418e-05
-2.41324e-06
1.80242e-05
-7.25814e-07
1.75238e-05
3.68443e-06
1.74189e-05
4.19594e-06
1.72935e-05
4.30974e-06
1.86914e-05
-3.08759e-06
1.94674e-05
-6.47664e-06
2.12353e-05
-1.35155e-05
2.12844e-05
-1.42016e-05
2.19928e-05
-1.46831e-05
2.16719e-05
-1.17644e-05
2.17257e-05
-9.80362e-06
2.21369e-05
-5.778e-06
2.26483e-05
-1.39019e-06
2.34452e-05
2.42317e-06
2.45352e-05
7.02898e-06
2.53784e-05
1.21641e-05
2.57336e-05
1.69649e-05
2.61937e-05
2.15762e-05
2.5956e-05
2.68583e-05
2.49737e-05
3.075e-05
2.42455e-05
3.30814e-05
2.22381e-05
3.73143e-05
2.49857e-05
3.4599e-05
4.80929e-05
2.29303e-05
2.00231e-05
-3.81452e-07
2.01638e-05
-3.44767e-07
2.03576e-05
-3.14966e-07
2.0434e-05
-6.66154e-08
2.04322e-05
-1.57093e-07
2.03077e-05
-2.0066e-08
2.01587e-05
-9.76772e-08
1.99495e-05
1.31142e-07
1.98092e-05
9.05339e-08
1.97087e-05
2.6404e-07
1.97102e-05
2.59259e-07
1.9781e-05
4.51156e-07
1.99371e-05
4.9883e-07
2.01361e-05
7.15328e-07
2.0406e-05
6.66757e-07
2.06586e-05
8.39229e-07
2.09792e-05
6.09276e-07
2.12473e-05
6.1197e-07
2.15847e-05
1.25671e-07
2.18624e-05
-1.21558e-07
2.2185e-05
-7.52126e-07
2.24456e-05
-1.10744e-06
2.27131e-05
-1.67481e-06
2.29027e-05
-1.91791e-06
2.30831e-05
-2.28152e-06
2.31509e-05
-2.23766e-06
2.32258e-05
-2.37113e-06
2.31793e-05
-2.06245e-06
2.31649e-05
-2.00478e-06
2.30421e-05
-1.53918e-06
2.29455e-05
-1.31953e-06
2.27578e-05
-8.09395e-07
2.2566e-05
-5.18984e-07
2.22756e-05
-7.56578e-09
2.20012e-05
2.17787e-07
2.16536e-05
6.87623e-07
2.13857e-05
7.50475e-07
2.10461e-05
1.13804e-06
2.08357e-05
1.0472e-06
2.05663e-05
1.34302e-06
2.04524e-05
1.16355e-06
2.03042e-05
1.37075e-06
2.03073e-05
1.12553e-06
2.02824e-05
1.24844e-06
2.0382e-05
9.14731e-07
2.04343e-05
9.7255e-07
2.05698e-05
5.2956e-07
2.06474e-05
5.59146e-07
2.07702e-05
9.02145e-08
2.08482e-05
1.20439e-07
2.09523e-05
-2.96202e-07
2.10256e-05
-2.11818e-07
2.11047e-05
-5.16441e-07
2.11825e-05
-3.53867e-07
2.12482e-05
-5.7343e-07
2.13316e-05
-3.48756e-07
2.14003e-05
-5.36926e-07
2.14846e-05
-2.76439e-07
2.15406e-05
-4.65173e-07
2.1608e-05
-2.14843e-07
2.16476e-05
-4.21201e-07
2.17169e-05
-2.03757e-07
2.17381e-05
-4.09412e-07
2.1803e-05
-2.15585e-07
2.18144e-05
-4.3755e-07
2.1864e-05
-2.45218e-07
2.18691e-05
-4.75005e-07
2.19042e-05
-2.89763e-07
2.19065e-05
-5.14264e-07
2.19401e-05
-3.46379e-07
2.19188e-05
-5.56252e-07
2.19358e-05
-4.15887e-07
2.18546e-05
-6.10945e-07
2.182e-05
-5.05211e-07
2.16389e-05
-6.46875e-07
2.14884e-05
-5.25177e-07
2.12047e-05
-5.80022e-07
2.09501e-05
-3.65733e-07
2.05874e-05
-3.24542e-07
2.02616e-05
7.33793e-08
1.98537e-05
2.8571e-07
1.95392e-05
8.11971e-07
1.91667e-05
1.19289e-06
1.89416e-05
1.7256e-06
1.86693e-05
2.16715e-06
1.86017e-05
2.55814e-06
1.84545e-05
2.88914e-06
1.85551e-05
3.03575e-06
1.86414e-05
3.22643e-06
1.88981e-05
3.12454e-06
1.91821e-05
3.06423e-06
1.93933e-05
2.79612e-06
1.96562e-05
2.47891e-06
1.97815e-05
2.16007e-06
1.98545e-05
1.78121e-06
1.9917e-05
1.40788e-06
1.98953e-05
1.13355e-06
1.99072e-05
8.23584e-07
1.99146e-05
6.05207e-07
1.99729e-05
3.72298e-07
2.00637e-05
2.41262e-07
2.02308e-05
-5.81314e-08
2.04067e-05
-9.45587e-08
2.06675e-05
-4.77971e-07
2.09484e-05
-6.22383e-07
2.12851e-05
-8.84192e-07
2.16557e-05
-1.40966e-06
2.21169e-05
-1.56527e-06
2.26317e-05
-2.19306e-06
2.3267e-05
-2.72808e-06
2.38786e-05
-3.11339e-06
2.46149e-05
-4.216e-06
2.52543e-05
-4.64555e-06
2.58294e-05
-5.53583e-06
2.63688e-05
-6.63971e-06
2.65443e-05
-6.8601e-06
2.66652e-05
-7.71791e-06
2.67688e-05
-8.20081e-06
2.64013e-05
-7.78703e-06
2.59845e-05
-8.0027e-06
2.53503e-05
-7.03903e-06
2.47697e-05
-6.06201e-06
2.43985e-05
-5.47657e-06
2.38367e-05
-3.53669e-06
2.35228e-05
-2.67768e-06
2.32468e-05
-1.1795e-06
2.29715e-05
5.9947e-07
2.31388e-05
1.44507e-06
2.32891e-05
3.10177e-06
2.31422e-05
4.15795e-06
2.33598e-05
4.73016e-06
2.3258e-05
5.55876e-06
2.30071e-05
5.76779e-06
2.32597e-05
5.6837e-06
2.35799e-05
5.78096e-06
2.36603e-05
5.7513e-06
2.41122e-05
5.01158e-06
2.48063e-05
4.79296e-06
2.51192e-05
4.43863e-06
2.55882e-05
3.45946e-06
2.62098e-05
2.72134e-06
2.68148e-05
2.21079e-06
2.71057e-05
1.21442e-06
2.77588e-05
8.92225e-08
2.84278e-05
-4.28857e-07
2.88988e-05
-1.54007e-06
2.94358e-05
-2.46974e-06
3.02521e-05
-3.62054e-06
3.07455e-05
-4.13747e-06
3.1384e-05
-5.67907e-06
3.18523e-05
-6.19952e-06
3.25586e-05
-7.58502e-06
3.28497e-05
-8.24511e-06
3.33705e-05
-9.17502e-06
3.34699e-05
-1.01372e-05
3.3893e-05
-1.11185e-05
3.37103e-05
-1.10584e-05
3.35832e-05
-1.206e-05
3.30415e-05
-1.24613e-05
3.23624e-05
-1.18978e-05
3.1099e-05
-1.18573e-05
3.01668e-05
-1.14601e-05
2.89731e-05
-1.05404e-05
2.79064e-05
-9.35844e-06
2.7075e-05
-9.57263e-06
2.61696e-05
-7.55437e-06
2.54774e-05
-7.042e-06
2.46817e-05
-6.31656e-06
2.41193e-05
-5.50563e-06
2.32983e-05
-3.89087e-06
2.23458e-05
-3.07741e-06
2.1595e-05
-3.47399e-06
2.08037e-05
-1.5728e-06
2.02167e-05
4.14383e-08
1.9412e-05
-5.83535e-07
1.86912e-05
-1.69249e-06
1.80698e-05
-1.04429e-07
1.77543e-05
3.99996e-06
1.76848e-05
4.26544e-06
1.76234e-05
4.37113e-06
1.90462e-05
-4.51039e-06
1.97051e-05
-7.13559e-06
2.10103e-05
-1.48207e-05
2.00857e-05
-1.3277e-05
2.02632e-05
-1.48606e-05
1.96131e-05
-1.11144e-05
1.9146e-05
-9.33651e-06
1.9745e-05
-6.37699e-06
2.0547e-05
-2.19221e-06
2.16823e-05
1.28782e-06
2.33604e-05
5.35094e-06
2.48511e-05
1.06734e-05
2.57184e-05
1.60976e-05
2.67056e-05
2.05889e-05
2.7401e-05
2.61629e-05
2.68352e-05
3.13159e-05
2.74146e-05
3.25021e-05
2.61018e-05
3.8627e-05
2.95628e-05
3.11381e-05
4.9255e-05
2.84007e-05
2.56669e-05
-5.90848e-07
2.59141e-05
-5.91951e-07
2.62158e-05
-6.1667e-07
2.6298e-05
-1.48816e-07
2.63262e-05
-1.85357e-07
2.61679e-05
1.38265e-07
2.61211e-05
-5.08825e-08
2.59407e-05
3.11607e-07
2.58917e-05
1.39525e-07
2.57876e-05
3.68095e-07
2.58195e-05
2.27377e-07
2.58649e-05
4.05762e-07
2.59989e-05
3.64818e-07
2.61509e-05
5.63324e-07
2.64113e-05
4.06345e-07
2.66186e-05
6.31927e-07
2.69467e-05
2.81239e-07
2.7131e-05
4.27663e-07
2.74401e-05
-1.83436e-07
2.75787e-05
-2.60155e-07
2.77845e-05
-9.57993e-07
2.78403e-05
-1.16325e-06
2.79141e-05
-1.74859e-06
2.7853e-05
-1.85676e-06
2.7799e-05
-2.22749e-06
2.76238e-05
-2.06248e-06
2.75065e-05
-2.25388e-06
2.72945e-05
-1.85047e-06
2.72235e-05
-1.93378e-06
2.70829e-05
-1.3985e-06
2.71068e-05
-1.34352e-06
2.70544e-05
-7.56902e-07
2.70765e-05
-5.4112e-07
2.69812e-05
8.77678e-08
2.68704e-05
3.28546e-07
2.66623e-05
8.95732e-07
2.64687e-05
9.44016e-07
2.62162e-05
1.39063e-06
2.60372e-05
1.22616e-06
2.58336e-05
1.54657e-06
2.5702e-05
1.29524e-06
2.5611e-05
1.46172e-06
2.55411e-05
1.19538e-06
2.5552e-05
1.23758e-06
2.5544e-05
9.22735e-07
2.56135e-05
9.03003e-07
2.5639e-05
5.04121e-07
2.5722e-05
4.76105e-07
2.57515e-05
6.07054e-08
2.58235e-05
4.85017e-08
2.58335e-05
-3.06211e-07
2.59038e-05
-2.82106e-07
2.58942e-05
-5.06824e-07
2.59745e-05
-4.34217e-07
2.59598e-05
-5.5874e-07
2.60426e-05
-4.31528e-07
2.60387e-05
-5.32993e-07
2.61196e-05
-3.57359e-07
2.61201e-05
-4.65735e-07
2.61958e-05
-2.9054e-07
2.61788e-05
-4.04124e-07
2.6262e-05
-2.87018e-07
2.62271e-05
-3.74454e-07
2.63043e-05
-2.92824e-07
2.62701e-05
-4.03393e-07
2.63315e-05
-3.06588e-07
2.62905e-05
-4.33987e-07
2.63476e-05
-3.46865e-07
2.62828e-05
-4.49511e-07
2.63352e-05
-3.98734e-07
2.62486e-05
-4.69694e-07
2.62575e-05
-4.24756e-07
2.61434e-05
-4.96824e-07
2.60833e-05
-4.45173e-07
2.5894e-05
-4.57576e-07
2.576e-05
-3.91124e-07
2.54995e-05
-3.19497e-07
2.52924e-05
-1.58706e-07
2.49617e-05
6.18832e-09
2.47014e-05
3.33694e-07
2.43775e-05
6.096e-07
2.41367e-05
1.05283e-06
2.38581e-05
1.47141e-06
2.36892e-05
1.89453e-06
2.34943e-05
2.36201e-06
2.33916e-05
2.66091e-06
2.3269e-05
3.0117e-06
2.31917e-05
3.11303e-06
2.31639e-05
3.25429e-06
2.30934e-05
3.19503e-06
2.31211e-05
3.03647e-06
2.30656e-05
2.85166e-06
2.30483e-05
2.49626e-06
2.30204e-05
2.1879e-06
2.29591e-05
1.84252e-06
2.29139e-05
1.45314e-06
2.29024e-05
1.145e-06
2.28623e-05
8.63649e-07
2.29404e-05
5.2713e-07
2.29826e-05
3.30129e-07
2.31491e-05
7.47145e-08
2.33441e-05
-2.53146e-07
2.35865e-05
-3.36934e-07
2.39392e-05
-8.30696e-07
2.4282e-05
-9.6513e-07
2.47638e-05