/*--------------------------------*- C++ -*----------------------------------*\
| =========                 |                                                 |
| \\      /  F ield         | OpenFOAM: The Open Source CFD Toolbox           |
|  \\    /   O peration     | Version:  2.4.0                                 |
|   \\  /    A nd           | Web:      www.OpenFOAM.org                      |
|    \\/     M anipulation  |                                                 |
\*---------------------------------------------------------------------------*/
FoamFile
{
    version     2.0;
    format      ascii;
    class       volVectorField;
    location    "0.6";
    object      U;
}
// * * * * * * * * * * * * * * * * * * * * * * * * * * * * * * * * * * * * * //

dimensions      [0 1 -1 0 0 0 0];

internalField   nonuniform List<vector> 
8800
(
(8.07067 0.391615 0)
(5.44777 0.235291 0)
(3.89959 0.0494063 0)
(3.19271 -0.017061 0)
(2.76732 -0.0169956 0)
(2.61197 -0.00778872 0)
(2.47992 -0.0152557 0)
(2.3472 0.0128031 0)
(2.38824 -0.0211381 0)
(2.1478 0.0205418 0)
(2.36609 -0.0221777 0)
(2.02307 0.0195463 0)
(2.33547 -0.0126507 0)
(1.94156 0.0084857 0)
(2.28895 -0.00177482 0)
(1.87675 0.00283547 0)
(2.24732 -0.00572365 0)
(1.83613 0.00944683 0)
(2.14632 0.00894818 0)
(1.62625 -0.08904 0)
(10.0211 0.85102 0)
(9.69411 0.838214 0)
(8.78197 0.52482 0)
(8.20653 0.254897 0)
(7.3712 0.147772 0)
(7.09028 0.08704 0)
(6.664 0.03075 0)
(6.31982 0.0778657 0)
(6.44192 -0.025813 0)
(5.6752 0.0787283 0)
(6.4588 -0.044599 0)
(5.22736 0.0702799 0)
(6.43997 -0.0276877 0)
(5.01114 0.0424824 0)
(6.283 -0.00337666 0)
(4.93496 0.0305511 0)
(6.12918 -0.0165555 0)
(4.83523 0.0498998 0)
(5.96883 0.0158912 0)
(4.65479 -0.100009 0)
(9.95308 0.661281 0)
(10.7582 0.809382 0)
(10.6837 0.633437 0)
(10.918 0.351698 0)
(10.2384 0.280489 0)
(10.2508 0.194232 0)
(9.78493 0.128333 0)
(9.34005 0.171507 0)
(9.73744 0.0138269 0)
(8.34467 0.157229 0)
(9.94028 -0.0490065 0)
(7.61781 0.139795 0)
(9.98882 -0.0498267 0)
(7.34341 0.104291 0)
(9.75565 -0.0224711 0)
(7.28747 0.0769583 0)
(9.58048 -0.028237 0)
(7.07786 0.0948451 0)
(9.46669 0.017201 0)
(6.90705 -0.100217 0)
(9.84692 0.496102 0)
(10.7434 0.628352 0)
(10.8826 0.599395 0)
(11.7387 0.308919 0)
(11.2132 0.309563 0)
(11.7325 0.2036 0)
(11.4321 0.1969 0)
(11.0333 0.21352 0)
(11.9997 0.0690691 0)
(9.94406 0.217124 0)
(12.6598 -0.042833 0)
(9.13159 0.22127 0)
(12.926 -0.0837973 0)
(8.92202 0.186193 0)
(12.7555 -0.0418713 0)
(8.8697 0.12126 0)
(12.7117 -0.0219624 0)
(8.55243 0.142337 0)
(12.6123 0.000379479 0)
(8.54862 0.0325769 0)
(9.91205 0.402501 0)
(10.6397 0.475569 0)
(10.5968 0.520925 0)
(11.9351 0.214242 0)
(11.0305 0.294734 0)
(12.2213 0.11371 0)
(11.7563 0.243862 0)
(11.499 0.151355 0)
(13.0216 0.117009 0)
(10.2614 0.211395 0)
(14.2433 -0.0655465 0)
(9.48252 0.268202 0)
(14.7398 -0.13776 0)
(9.52984 0.245888 0)
(14.675 -0.071548 0)
(9.56268 0.141926 0)
(14.7525 -0.0269205 0)
(9.6239 0.215248 0)
(14.2283 -0.0726505 0)
(10.1715 0.0920324 0)
(9.78316 0.29597 0)
(11.0201 0.390516 0)
(9.77699 0.446172 0)
(12.6519 0.14829 0)
(9.9586 0.278553 0)
(12.9722 -0.0206649 0)
(11.1812 0.309631 0)
(11.9754 -0.000861675 0)
(13.0554 0.205811 0)
(10.5923 0.124171 0)
(14.3887 -0.0561543 0)
(10.1347 0.318672 0)
(14.4723 -0.279259 0)
(10.5413 0.349442 0)
(14.2493 -0.148101 0)
(10.621 0.173135 0)
(14.1611 -0.124683 0)
(11.2195 0.3609 0)
(13.24 -0.211493 0)
(11.5753 0.0715864 0)
(9.07706 0.16744 0)
(12.0921 0.396429 0)
(8.22836 0.272503 0)
(14.0689 0.140868 0)
(7.92405 0.29859 0)
(14.7312 -0.242474 0)
(8.99126 0.460483 0)
(13.9581 -0.282116 0)
(11.4092 0.270978 0)
(12.4479 0.0797119 0)
(13.0034 -0.166573 0)
(11.8796 0.454294 0)
(12.8503 -0.397229 0)
(12.0713 0.388496 0)
(12.6036 -0.174941 0)
(12.0645 0.221083 0)
(12.5274 -0.271072 0)
(12.3511 0.500932 0)
(11.9354 -0.283583 0)
(12.4333 0.0659362 0)
(8.80754 -0.0320862 0)
(12.6211 0.490089 0)
(7.61162 0.0680251 0)
(14.5058 0.181251 0)
(6.81952 0.207388 0)
(15.8884 -0.258237 0)
(6.38825 0.483708 0)
(16.2078 -0.492656 0)
(7.57338 0.44267 0)
(15.2808 -0.155462 0)
(9.87196 -0.085359 0)
(13.6263 0.474567 0)
(11.1983 -0.441896 0)
(12.8191 0.513565 0)
(11.0922 -0.211847 0)
(13.0364 0.245609 0)
(11.1594 -0.25136 0)
(12.5457 0.536758 0)
(11.493 -0.267829 0)
(12.7452 0.0551465 0)
(9.12568 -0.193435 0)
(11.832 0.570797 0)
(8.54074 -0.12252 0)
(13.787 0.300681 0)
(7.69261 0.0268498 0)
(15.3466 -0.166468 0)
(6.90434 0.371741 0)
(15.8275 -0.472405 0)
(6.67409 0.402472 0)
(15.8878 -0.255973 0)
(7.01379 0.0435423 0)
(15.4014 0.286025 0)
(8.45315 -0.341213 0)
(14.0841 0.524001 0)
(9.6902 -0.272882 0)
(13.7951 0.273519 0)
(10.0886 -0.169113 0)
(13.112 0.427461 0)
(11.3639 -0.252937 0)
(13.0094 0.0804967 0)
(9.13663 -0.258504 0)
(11.39 0.537194 0)
(9.38277 -0.320823 0)
(12.7421 0.381828 0)
(9.44063 -0.105738 0)
(13.9315 -0.0744756 0)
(8.80439 0.287086 0)
(14.6335 -0.382014 0)
(8.17655 0.286873 0)
(14.8152 -0.131149 0)
(8.22973 -0.0554647 0)
(14.7024 0.223956 0)
(9.0485 -0.224125 0)
(14.3601 0.306439 0)
(9.89096 -0.220547 0)
(14.1856 0.151274 0)
(10.683 -0.0263754 0)
(13.4642 0.0932864 0)
(11.9864 -0.127856 0)
(13.1637 0.0235924 0)
(9.5506 -0.298268 0)
(10.8591 0.380746 0)
(10.106 -0.363452 0)
(11.8363 0.280384 0)
(10.6243 -0.152918 0)
(12.5251 -0.035246 0)
(10.5655 0.174517 0)
(13.0464 -0.30546 0)
(10.2506 0.233156 0)
(13.193 -0.15312 0)
(10.4645 -0.0533237 0)
(13.2416 0.19632 0)
(10.8184 -0.319589 0)
(13.4796 0.309004 0)
(11.2701 -0.205466 0)
(13.3786 -0.0208692 0)
(11.8825 0.0843703 0)
(13.1617 -0.0588848 0)
(12.3583 -0.0712631 0)
(12.8736 -0.04443 0)
(9.94603 -0.335502 0)
(10.3517 0.250687 0)
(10.5167 -0.454925 0)
(11.2852 0.207088 0)
(11.0728 -0.178291 0)
(11.8608 -0.0792829 0)
(11.2509 0.140268 0)
(12.157 -0.307956 0)
(11.313 0.186323 0)
(12.3033 -0.139491 0)
(11.5325 -0.111435 0)
(12.3321 0.172813 0)
(12.0088 -0.295646 0)
(12.193 0.203342 0)
(12.5416 -0.151527 0)
(12.2327 -0.0777696 0)
(12.5667 0.117039 0)
(12.4768 -0.145605 0)
(12.6776 -0.0542597 0)
(12.4477 -0.0139001 0)
(10.0239 -0.34601 0)
(10.0504 0.0846745 0)
(10.7818 -0.481498 0)
(10.9535 0.0931155 0)
(11.3624 -0.194048 0)
(11.5596 -0.10753 0)
(11.4475 0.090936 0)
(11.9819 -0.292466 0)
(11.4755 0.130203 0)
(12.2018 -0.144289 0)
(11.756 -0.0974732 0)
(12.1943 0.094981 0)
(12.0999 -0.25538 0)
(12.1736 0.122893 0)
(12.4495 -0.126168 0)
(12.1367 -0.121 0)
(12.5497 0.105428 0)
(12.4119 -0.187544 0)
(12.6262 -0.0851717 0)
(12.3274 0.0167464 0)
(9.99616 -0.347374 0)
(10.1023 -0.0833219 0)
(10.9097 -0.544442 0)
(10.9267 0.0100265 0)
(11.4996 -0.228973 0)
(11.4802 -0.125708 0)
(11.596 0.0276243 0)
(11.8794 -0.301657 0)
(11.7368 0.0919038 0)
(11.967 -0.182264 0)
(12.0728 -0.111792 0)
(12.0208 0.0624072 0)
(12.2347 -0.257785 0)
(12.2603 0.0581287 0)
(12.3125 -0.100499 0)
(12.4036 -0.171293 0)
(12.4195 0.0882827 0)
(12.6337 -0.217419 0)
(12.434 -0.109525 0)
(12.5473 0.0222067 0)
(9.92135 -0.377422 0)
(10.3038 -0.263702 0)
(10.9105 -0.554953 0)
(11.0959 -0.0936002 0)
(11.5787 -0.252053 0)
(11.5256 -0.153844 0)
(11.7782 -0.0291629 0)
(11.8575 -0.303752 0)
(11.8964 0.0529313 0)
(12.0321 -0.204478 0)
(12.1248 -0.109946 0)
(12.1046 0.0198076 0)
(12.3009 -0.259533 0)
(12.2253 0.0310501 0)
(12.4183 -0.100489 0)
(12.2871 -0.19217 0)
(12.4958 0.0533876 0)
(12.4739 -0.21462 0)
(12.3007 -0.132811 0)
(12.5425 -0.0442606 0)
(9.85335 -0.434693 0)
(10.4995 -0.429352 0)
(10.9353 -0.582565 0)
(11.3273 -0.197233 0)
(11.6772 -0.272076 0)
(11.5582 -0.197338 0)
(11.9867 -0.0860933 0)
(11.6966 -0.288601 0)
(12.0389 -0.0143876 0)
(11.8907 -0.201441 0)
(11.9693 -0.124072 0)
(12.007 -0.0217273 0)
(11.9696 -0.228317 0)
(11.9109 -0.0135493 0)
(12.0654 -0.0920769 0)
(11.7466 -0.184604 0)
(12.0281 0.0164925 0)
(11.7538 -0.186412 0)
(11.6986 -0.158886 0)
(11.7537 -0.0921666 0)
(9.82124 -0.517567 0)
(10.6879 -0.615615 0)
(10.9898 -0.607272 0)
(11.4723 -0.312146 0)
(11.5274 -0.292064 0)
(11.3541 -0.242828 0)
(11.6476 -0.128877 0)
(11.0891 -0.251234 0)
(11.4685 -0.0673587 0)
(11.0115 -0.160081 0)
(11.0495 -0.121112 0)
(10.9958 -0.0368623 0)
(10.7499 -0.170267 0)
(10.6982 -0.0308746 0)
(10.7318 -0.0673707 0)
(10.2941 -0.142865 0)
(10.5935 0.00312181 0)
(10.1632 -0.142679 0)
(10.1588 -0.132186 0)
(9.9557 -0.0866295 0)
(9.93898 -0.672154 0)
(10.7274 -0.803314 0)
(10.7161 -0.634185 0)
(10.7907 -0.364513 0)
(10.3984 -0.263379 0)
(10.0138 -0.214646 0)
(9.95073 -0.100216 0)
(9.31611 -0.16722 0)
(9.48726 -0.0519415 0)
(8.94519 -0.084683 0)
(8.94778 -0.0827762 0)
(8.79523 -0.0115207 0)
(8.54125 -0.0968034 0)
(8.48747 -0.0251865 0)
(8.43993 -0.0276899 0)
(8.07425 -0.0892609 0)
(8.30015 -0.00197769 0)
(7.8837 -0.0782998 0)
(7.89013 -0.100262 0)
(7.61643 -0.0366707 0)
(10.0142 -0.855961 0)
(9.6706 -0.837844 0)
(8.79041 -0.521738 0)
(8.14117 -0.263534 0)
(7.43965 -0.135581 0)
(6.96158 -0.0970174 0)
(6.75207 -0.0221982 0)
(6.29987 -0.0638875 0)
(6.33149 -0.0132933 0)
(5.97164 -0.0223734 0)
(5.95955 -0.0406936 0)
(5.82327 0.00881757 0)
(5.67477 -0.0433588 0)
(5.60662 -0.0144923 0)
(5.56202 0.000631825 0)
(5.33355 -0.0480687 0)
(5.43754 0.00167552 0)
(5.15865 -0.0311902 0)
(5.15126 -0.0586351 0)
(4.89315 0.0180566 0)
(8.06745 -0.392546 0)
(5.43106 -0.235089 0)
(3.899 -0.0483898 0)
(3.16829 0.0137018 0)
(2.77866 0.0220419 0)
(2.5748 0.00462387 0)
(2.4974 0.0158661 0)
(2.36175 -0.00650266 0)
(2.34744 0.00459428 0)
(2.25265 0.0017406 0)
(2.22777 -0.00831322 0)
(2.17851 0.00977942 0)
(2.13864 -0.00841544 0)
(2.0808 -0.000679312 0)
(2.0806 0.0074079 0)
(1.99243 -0.0106742 0)
(1.99671 0.00544662 0)
(1.91657 -0.0025617 0)
(1.86401 -0.0105686 0)
(1.72407 0.0177522 0)
(2.48529 -0.225046 0)
(2.27054 -0.0844654 0)
(2.47664 -0.0567505 0)
(2.33037 -0.0579502 0)
(2.58883 -0.115884 0)
(2.42039 -0.129 0)
(2.65332 -0.135196 0)
(2.49439 -0.0710122 0)
(2.73627 -0.0190721 0)
(2.58917 0.0727076 0)
(2.85314 0.147298 0)
(2.71716 0.249571 0)
(3.04104 0.321196 0)
(2.88986 0.419419 0)
(3.27562 0.456104 0)
(3.09679 0.513265 0)
(3.5579 0.496013 0)
(3.32443 0.483037 0)
(3.87069 0.380454 0)
(3.58325 0.281102 0)
(4.20608 0.107337 0)
(3.8837 -0.0408016 0)
(4.5482 -0.227301 0)
(4.20143 -0.362175 0)
(4.85715 -0.515091 0)
(4.47281 -0.593375 0)
(5.04802 -0.678968 0)
(4.59251 -0.680521 0)
(5.05755 -0.693144 0)
(4.53253 -0.628203 0)
(4.92019 -0.587727 0)
(4.36315 -0.484212 0)
(4.73598 -0.416415 0)
(4.1667 -0.286331 0)
(4.5604 -0.208757 0)
(3.97291 -0.0690874 0)
(4.41746 -0.00605587 0)
(3.78404 0.118536 0)
(4.29879 0.150596 0)
(3.59279 0.256811 0)
(4.22003 0.27408 0)
(3.40626 0.374032 0)
(4.2381 0.372515 0)
(3.31748 0.445437 0)
(4.41377 0.41077 0)
(3.39156 0.423588 0)
(4.72921 0.324939 0)
(3.5291 0.291404 0)
(5.01313 0.165747 0)
(3.62157 0.124488 0)
(5.18681 0.00627974 0)
(3.63123 -0.0127089 0)
(5.26949 -0.0923676 0)
(3.5978 -0.0665647 0)
(5.3306 -0.120166 0)
(3.58054 -0.0612992 0)
(5.39148 -0.101411 0)
(3.5893 -0.033375 0)
(5.48211 -0.082656 0)
(3.64107 -0.0212378 0)
(5.57985 -0.0735052 0)
(3.69923 -0.0214304 0)
(5.66625 -0.0792701 0)
(3.75986 -0.0373978 0)
(5.72794 -0.0967814 0)
(3.82118 -0.0577319 0)
(5.77298 -0.118381 0)
(3.88369 -0.0716265 0)
(5.8046 -0.132599 0)
(3.95418 -0.0845512 0)
(5.83934 -0.146237 0)
(4.02134 -0.125332 0)
(5.85308 -0.204354 0)
(4.05633 -0.204803 0)
(5.79677 -0.316454 0)
(3.95952 -0.357054 0)
(5.58167 -0.393401 0)
(3.80007 -0.379496 0)
(5.3091 -0.354624 0)
(3.4 -0.322743 0)
(4.78432 -0.252624 0)
(2.93385 -0.0935561 0)
(4.35923 0.135983 0)
(2.77621 0.327651 0)
(4.23558 0.607996 0)
(3.30012 0.872944 0)
(4.65634 1.07477 0)
(4.47314 1.3975 0)
(5.36196 1.49867 0)
(5.66259 1.59962 0)
(6.15746 1.50077 0)
(6.40669 1.35907 0)
(6.72128 1.1712 0)
(6.75647 0.927785 0)
(6.98106 0.716058 0)
(6.84279 0.530376 0)
(7.00469 0.353262 0)
(6.80218 0.264108 0)
(6.9405 0.155218 0)
(6.77343 0.146143 0)
(6.9096 0.0802855 0)
(6.80086 0.0855896 0)
(6.95609 0.0321322 0)
(6.82832 -0.0166844 0)
(7.02067 -0.078618 0)
(6.81616 -0.176671 0)
(6.98113 -0.311351 0)
(6.69693 -0.341481 0)
(6.81566 -0.47617 0)
(6.65383 -0.513492 0)
(6.78304 -0.631519 0)
(6.85802 -0.817016 0)
(6.97756 -1.02365 0)
(7.34661 -1.3402 0)
(7.41994 -1.66179 0)
(7.80396 -1.96668 0)
(7.87361 -2.35667 0)
(8.17686 -2.60117 0)
(8.21918 -2.71254 0)
(7.98921 -2.87019 0)
(7.96805 -2.82983 0)
(7.71095 -2.5263 0)
(7.58142 -2.25815 0)
(7.35904 -1.77033 0)
(7.29905 -1.1538 0)
(7.26671 -0.576086 0)
(6.76191 -0.0214501 0)
(6.72093 0.246891 0)
(6.16187 0.687378 0)
(6.49663 1.0489 0)
(6.14951 1.47642 0)
(6.46266 1.76497 0)
(6.70215 2.01932 0)
(6.63225 2.22231 0)
(7.00689 2.09692 0)
(7.01777 2.23918 0)
(7.46386 2.21905 0)
(7.55854 1.95601 0)
(7.67652 1.71984 0)
(8.05336 1.65915 0)
(8.31771 1.45129 0)
(8.53014 1.04814 0)
(8.4695 0.694957 0)
(8.97596 0.551223 0)
(8.98686 0.336241 0)
(9.22714 -0.165502 0)
(9.35735 -0.362335 0)
(9.60203 -0.442753 0)
(9.88001 -0.991048 0)
(9.97536 -1.25882 0)
(10.5342 -1.54325 0)
(10.4956 -1.75 0)
(10.9899 -2.45797 0)
(11.0848 -2.44334 0)
(11.6364 -3.11762 0)
(11.3831 -3.20544 0)
(11.8857 -3.68404 0)
(12.0662 -3.807 0)
(11.9204 -4.36717 0)
(12.213 -4.23488 0)
(11.9231 -4.72897 0)
(11.9324 -4.61033 0)
(11.3145 -4.43556 0)
(11.168 -4.13539 0)
(10.5879 -3.97052 0)
(10.2157 -3.41464 0)
(9.75778 -2.99888 0)
(9.5231 -2.83474 0)
(9.08563 -2.41137 0)
(8.89187 -1.92185 0)
(8.50717 -1.76091 0)
(8.3338 -1.76757 0)
(7.91367 -1.28058 0)
(7.67962 -0.477197 0)
(7.59473 -0.612287 0)
(7.23171 -1.0997 0)
(7.06294 -0.557762 0)
(7.15516 0.819102 0)
(6.66059 1.36366 0)
(6.97209 1.57375 0)
(6.56541 -0.00494597 0)
(7.48208 -1.3788 0)
(7.81131 -3.37398 0)
(8.41329 -4.5142 0)
(8.8345 -4.61241 0)
(8.948 -4.18123 0)
(9.17778 -3.2905 0)
(9.30095 -2.03105 0)
(9.66978 -0.398598 0)
(9.55906 0.94065 0)
(9.9825 2.47461 0)
(10.2437 4.11325 0)
(10.1421 5.52392 0)
(10.2424 7.05362 0)
(10.2132 8.56411 0)
(9.79061 9.54661 0)
(8.73231 10.1675 0)
(8.35976 10.9792 0)
(7.9658 12.154 0)
(4.46644 15.3937 0)
(5.63871 -0.134587 0)
(5.23372 -0.0457873 0)
(5.58111 -0.0370049 0)
(5.1405 -0.0282688 0)
(5.56136 -0.0709732 0)
(5.09552 -0.0600499 0)
(5.52965 -0.0929314 0)
(5.0021 -0.0548028 0)
(5.46035 -0.0430969 0)
(4.91469 0.0305758 0)
(5.45795 0.0723865 0)
(4.91063 0.163365 0)
(5.5789 0.211038 0)
(5.01544 0.305028 0)
(5.80216 0.330398 0)
(5.18978 0.394232 0)
(6.1043 0.361443 0)
(5.42388 0.354261 0)
(6.45257 0.23585 0)
(5.70377 0.140964 0)
(6.80612 -0.0410822 0)
(6.01686 -0.179758 0)
(7.14447 -0.369101 0)
(6.32954 -0.486385 0)
(7.43457 -0.627312 0)
(6.58568 -0.673175 0)
(7.62038 -0.73517 0)
(6.70972 -0.696809 0)
(7.66003 -0.682145 0)
(6.67714 -0.584544 0)
(7.56536 -0.517345 0)
(6.49855 -0.391669 0)
(7.37053 -0.306031 0)
(6.216 -0.175712 0)
(7.13803 -0.0954407 0)
(5.89022 0.0278184 0)
(6.92077 0.0867036 0)
(5.56843 0.191472 0)
(6.7619 0.22328 0)
(5.29196 0.304603 0)
(6.67867 0.321135 0)
(5.08131 0.380285 0)
(6.67522 0.37905 0)
(4.97909 0.406279 0)
(6.76377 0.372107 0)
(5.01109 0.360336 0)
(6.93331 0.267946 0)
(5.13387 0.237676 0)
(7.10895 0.112629 0)
(5.26773 0.0858062 0)
(7.23561 -0.033213 0)
(5.36796 -0.0334845 0)
(7.31048 -0.125364 0)
(5.43071 -0.0821799 0)
(7.35967 -0.154872 0)
(5.48781 -0.0804301 0)
(7.40427 -0.143046 0)
(5.5492 -0.0548562 0)
(7.45063 -0.123154 0)
(5.63244 -0.0369902 0)
(7.49809 -0.116125 0)
(5.7272 -0.0326802 0)
(7.53201 -0.121242 0)
(5.824 -0.038144 0)
(7.55052 -0.133189 0)
(5.913 -0.0540541 0)
(7.56008 -0.143283 0)
(5.98741 -0.0788655 0)
(7.56895 -0.153287 0)
(6.06444 -0.0991173 0)
(7.56281 -0.180049 0)
(6.14727 -0.125616 0)
(7.5242 -0.232114 0)
(6.19763 -0.181668 0)
(7.42331 -0.299776 0)
(6.16827 -0.243989 0)
(7.23956 -0.3235 0)
(6.02216 -0.2559 0)
(6.95473 -0.310181 0)
(5.75887 -0.166907 0)
(6.58833 -0.120789 0)
(5.50163 0.115765 0)
(6.153 0.199773 0)
(5.31035 0.437061 0)
(5.69061 0.55061 0)
(5.32663 0.777532 0)
(5.56921 0.847998 0)
(5.65104 1.02956 0)
(5.88226 1.08602 0)
(6.2749 1.17185 0)
(6.54229 1.15164 0)
(6.85851 1.03311 0)
(7.09318 0.96428 0)
(7.22419 0.774389 0)
(7.35948 0.625086 0)
(7.36222 0.48832 0)
(7.39903 0.344764 0)
(7.3395 0.272508 0)
(7.34637 0.185271 0)
(7.30442 0.138426 0)
(7.32167 0.113082 0)
(7.29789 0.0480913 0)
(7.3958 0.0493859 0)
(7.33533 -0.0386827 0)
(7.50671 -0.0875231 0)
(7.39532 -0.140189 0)
(7.59947 -0.30802 0)
(7.4783 -0.303043 0)
(7.74129 -0.46808 0)
(7.7009 -0.579875 0)
(8.03784 -0.68481 0)
(8.17978 -0.981445 0)
(8.4228 -1.16064 0)
(8.83266 -1.43965 0)
(8.95639 -1.82845 0)
(9.28713 -2.08536 0)
(9.42428 -2.41822 0)
(9.42593 -2.70486 0)
(9.37883 -2.84922 0)
(9.31168 -2.89822 0)
(9.33546 -2.72093 0)
(8.90961 -2.37755 0)
(8.89696 -2.08618 0)
(8.59301 -1.52917 0)
(8.44243 -1.1338 0)
(8.43109 -0.675363 0)
(8.2254 -0.0130367 0)
(8.46292 0.5076 0)
(8.00092 0.967619 0)
(8.03557 1.22694 0)
(7.67237 1.58812 0)
(7.65781 1.70359 0)
(7.7277 1.79188 0)
(7.8192 2.06035 0)
(8.16304 2.09802 0)
(8.1735 1.93639 0)
(8.42549 1.99074 0)
(8.82999 1.97454 0)
(8.86813 1.6629 0)
(9.06211 1.36911 0)
(9.31602 1.26347 0)
(9.5776 1.09954 0)
(9.71429 0.544935 0)
(9.82237 0.389816 0)
(10.2582 0.172444 0)
(10.1759 -0.167755 0)
(10.6555 -0.63431 0)
(10.6509 -0.686685 0)
(11.2077 -1.07699 0)
(11.0207 -1.44768 0)
(11.8914 -1.8271 0)
(11.621 -2.04784 0)
(12.2331 -2.52388 0)
(12.038 -2.73039 0)
(12.8758 -3.20881 0)
(12.2685 -3.47626 0)
(12.9549 -3.63411 0)
(12.7373 -3.99075 0)
(12.9512 -4.30342 0)
(12.6742 -4.24102 0)
(12.5727 -4.5358 0)
(12.2708 -4.29268 0)
(11.6106 -4.19049 0)
(11.4763 -3.63947 0)
(10.7012 -3.64621 0)
(10.6075 -3.04173 0)
(9.98586 -2.69295 0)
(9.90756 -2.49631 0)
(9.30668 -2.2239 0)
(9.35824 -1.72434 0)
(8.78806 -1.50795 0)
(8.62557 -1.52198 0)
(8.20428 -1.02568 0)
(7.93736 -0.269696 0)
(7.86707 -0.428928 0)
(7.40558 -0.859808 0)
(7.28806 -0.49743 0)
(7.23532 1.00299 0)
(6.78439 1.33339 0)
(7.19181 1.66779 0)
(6.68109 -0.3829 0)
(7.83542 -1.64959 0)
(7.86852 -3.92597 0)
(8.75452 -4.75061 0)
(8.37222 -4.92025 0)
(8.95628 -4.12471 0)
(8.49263 -3.55951 0)
(8.81404 -2.01917 0)
(8.97059 -0.616392 0)
(9.14936 0.736976 0)
(9.46341 2.3157 0)
(10.1455 3.91989 0)
(10.2359 5.42178 0)
(10.501 7.03755 0)
(10.6039 8.63025 0)
(10.5889 9.84575 0)
(9.94972 10.8396 0)
(9.14882 11.8173 0)
(10.7246 11.9578 0)
(7.45842 16.7624 0)
(8.53948 -0.166579 0)
(7.77452 -0.102908 0)
(8.52557 -0.0568775 0)
(7.68799 0.028831 0)
(8.57054 -0.00989956 0)
(7.71027 -0.00803544 0)
(8.60379 -0.0465243 0)
(7.56383 0.00482183 0)
(8.49396 0.00786083 0)
(7.38499 0.0593624 0)
(8.41574 0.0776678 0)
(7.29742 0.154108 0)
(8.48258 0.190311 0)
(7.36322 0.27037 0)
(8.69439 0.267786 0)
(7.51899 0.32243 0)
(8.97476 0.268764 0)
(7.72475 0.259823 0)
(9.2659 0.121664 0)
(7.9605 0.0254271 0)
(9.53457 -0.168576 0)
(8.19781 -0.309467 0)
(9.76684 -0.497898 0)
(8.39925 -0.610997 0)
(9.93848 -0.736544 0)
(8.53224 -0.75926 0)
(10.0302 -0.800377 0)
(8.57218 -0.729071 0)
(10.0315 -0.694704 0)
(8.52388 -0.561385 0)
(9.96084 -0.470252 0)
(8.40645 -0.317404 0)
(9.84002 -0.216264 0)
(8.22376 -0.0702988 0)
(9.65875 0.0145681 0)
(7.96319 0.151589 0)
(9.44239 0.193439 0)
(7.68568 0.306035 0)
(9.24067 0.311269 0)
(7.44838 0.392741 0)
(9.07556 0.369283 0)
(7.29963 0.432272 0)
(8.95657 0.372426 0)
(7.26341 0.423947 0)
(8.90607 0.315503 0)
(7.33094 0.35132 0)
(8.93226 0.198579 0)
(7.46441 0.215108 0)
(8.99524 0.051327 0)
(7.6121 0.0642396 0)
(9.05434 -0.0809673 0)
(7.74059 -0.0483618 0)
(9.09302 -0.163971 0)
(7.83479 -0.0991763 0)
(9.11844 -0.187203 0)
(7.90911 -0.101344 0)
(9.1442 -0.175501 0)
(7.97782 -0.0807438 0)
(9.16343 -0.150963 0)
(8.05583 -0.0636556 0)
(9.1749 -0.137058 0)
(8.14146 -0.0578197 0)
(9.17907 -0.137635 0)
(8.22269 -0.0605872 0)
(9.17735 -0.147747 0)
(8.29451 -0.072183 0)
(9.16383 -0.161174 0)
(8.35989 -0.0841941 0)
(9.14084 -0.177925 0)
(8.42729 -0.0998996 0)
(9.10658 -0.193249 0)
(8.47953 -0.130104 0)
(9.05387 -0.212521 0)
(8.48684 -0.173641 0)
(8.95844 -0.23916 0)
(8.42467 -0.193052 0)
(8.77988 -0.241181 0)
(8.272 -0.161391 0)
(8.52271 -0.179709 0)
(8.06626 -0.0277612 0)
(8.19686 0.0225258 0)
(7.82236 0.208417 0)
(7.81611 0.318932 0)
(7.61887 0.509732 0)
(7.47484 0.661713 0)
(7.48197 0.817165 0)
(7.31405 0.914418 0)
(7.42082 0.987112 0)
(7.31107 1.03655 0)
(7.49954 0.992005 0)
(7.54155 1.00201 0)
(7.72028 0.895847 0)
(7.78812 0.793517 0)
(7.93114 0.706377 0)
(7.91499 0.567175 0)
(8.03596 0.457163 0)
(7.95114 0.375299 0)
(8.0331 0.264976 0)
(7.94646 0.218951 0)
(8.02663 0.136298 0)
(7.99299 0.103065 0)
(8.07343 0.0165634 0)
(8.12542 0.00110281 0)
(8.21494 -0.106127 0)
(8.30921 -0.164567 0)
(8.41797 -0.217304 0)
(8.60353 -0.391241 0)
(8.6399 -0.434678 0)
(9.00884 -0.596331 0)
(9.04808 -0.778551 0)
(9.416 -0.897031 0)
(9.67157 -1.24016 0)
(9.89729 -1.40112 0)
(10.2496 -1.69068 0)
(10.472 -2.10809 0)
(10.6197 -2.26179 0)
(10.7203 -2.59668 0)
(10.7179 -2.812 0)
(10.7944 -2.68795 0)
(10.5821 -2.77832 0)
(10.371 -2.56463 0)
(10.0279 -2.23443 0)
(9.91837 -2.01187 0)
(9.62389 -1.39212 0)
(9.49502 -1.01223 0)
(9.33321 -0.478403 0)
(9.18528 0.0833998 0)
(9.16866 0.396382 0)
(9.15423 1.02318 0)
(9.36315 1.31503 0)
(9.17546 1.59513 0)
(9.3502 1.89916 0)
(9.24105 1.85846 0)
(9.18011 1.87877 0)
(9.35895 1.98461 0)
(9.438 1.94215 0)
(9.50226 1.64775 0)
(9.71605 1.74678 0)
(10.0513 1.57792 0)
(9.98989 1.26424 0)
(10.4721 0.99595 0)
(10.4268 0.928269 0)
(10.9307 0.57531 0)
(10.7792 0.12506 0)
(11.3807 0.0511121 0)
(11.3086 -0.389275 0)
(11.6665 -0.60362 0)
(11.9608 -1.14521 0)
(12.219 -1.1302 0)
(12.2581 -1.76098 0)
(12.7785 -1.90737 0)
(12.8642 -2.39951 0)
(13.139 -2.59381 0)
(13.0486 -2.90393 0)
(13.7322 -3.30902 0)
(13.2402 -3.57987 0)
(13.7399 -3.69968 0)
(13.3662 -3.95961 0)
(13.6628 -4.26684 0)
(12.935 -4.13111 0)
(13.0212 -4.11635 0)
(12.1981 -4.02784 0)
(12.0435 -3.74269 0)
(11.3975 -3.26657 0)
(11.0625 -3.32777 0)
(10.7735 -2.69752 0)
(10.3258 -2.42983 0)
(10.1855 -2.23513 0)
(9.65494 -1.95269 0)
(9.73685 -1.54075 0)
(9.00946 -1.14953 0)
(9.03354 -1.29074 0)
(8.30806 -0.768157 0)
(8.39832 -0.128961 0)
(7.88846 -0.212655 0)
(7.75789 -0.620084 0)
(7.23232 -0.314004 0)
(7.42841 1.17755 0)
(6.62257 1.45179 0)
(7.69591 1.75886 0)
(6.3205 -0.852106 0)
(8.38027 -1.8493 0)
(7.66811 -4.52073 0)
(8.63825 -4.46859 0)
(7.78105 -5.07198 0)
(8.1111 -3.88426 0)
(7.66058 -3.33389 0)
(7.6931 -2.27388 0)
(8.04081 -0.680218 0)
(8.30028 0.352797 0)
(8.90051 1.80902 0)
(9.70533 3.5827 0)
(10.1915 5.25955 0)
(10.6054 6.76782 0)
(10.8987 8.62933 0)
(11.1569 10.1605 0)
(11.2588 10.8775 0)
(9.70003 12.5002 0)
(12.8928 11.1947 0)
(9.81031 16.8757 0)
(11.098 -0.164847 0)
(9.89523 -0.202329 0)
(11.1005 -0.21909 0)
(9.81322 -0.0987224 0)
(11.1119 -0.0846089 0)
(9.80315 -0.000610546 0)
(11.1751 -0.0216999 0)
(9.75079 0.077306 0)
(11.1143 0.062815 0)
(9.63036 0.118165 0)
(11.0366 0.0905185 0)
(9.57727 0.145382 0)
(11.0678 0.141921 0)
(9.63225 0.211529 0)
(11.2214 0.176986 0)
(9.80359 0.24438 0)
(11.4506 0.153337 0)
(10.0358 0.185497 0)
(11.6594 0.0152822 0)
(10.2623 -0.0347254 0)
(11.8151 -0.244148 0)
(10.4225 -0.347855 0)
(11.8875 -0.554791 0)
(10.4757 -0.629686 0)
(11.864 -0.78181 0)
(10.4158 -0.752549 0)
(11.7557 -0.826786 0)
(10.2857 -0.706341 0)
(11.6169 -0.713006 0)
(10.1699 -0.546913 0)
(11.5177 -0.489404 0)
(10.1434 -0.29544 0)
(11.4759 -0.197497 0)
(10.1563 0.0102975 0)
(11.4154 0.0782832 0)
(10.0903 0.272278 0)
(11.269 0.277296 0)
(9.94197 0.434885 0)
(11.0756 0.377367 0)
(9.80677 0.499279 0)
(10.8797 0.410027 0)
(9.73706 0.491581 0)
(10.7196 0.392118 0)
(9.73294 0.432353 0)
(10.6302 0.318613 0)
(9.78385 0.328536 0)
(10.6121 0.186532 0)
(9.87585 0.185442 0)
(10.6286 0.0315192 0)
(9.98423 0.032191 0)
(10.6435 -0.0962444 0)
(10.077 -0.0821254 0)
(10.6447 -0.172481 0)
(10.1372 -0.136971 0)
(10.6421 -0.196126 0)
(10.1732 -0.137874 0)
(10.6436 -0.18914 0)
(10.2119 -0.112797 0)
(10.639 -0.166935 0)
(10.2622 -0.0861536 0)
(10.634 -0.143711 0)
(10.3149 -0.0799748 0)
(10.6381 -0.13078 0)
(10.3559 -0.0818559 0)
(10.6463 -0.135754 0)
(10.3876 -0.0894948 0)
(10.6459 -0.146259 0)
(10.4112 -0.102013 0)
(10.6371 -0.153888 0)
(10.4282 -0.123458 0)
(10.6177 -0.162664 0)
(10.4269 -0.142999 0)
(10.5729 -0.180005 0)
(10.3935 -0.16157 0)
(10.4784 -0.18514 0)
(10.3097 -0.157809 0)
(10.3135 -0.156884 0)
(10.1647 -0.0983884 0)
(10.097 -0.0507754 0)
(9.97924 0.0573171 0)
(9.83775 0.147518 0)
(9.76438 0.291356 0)
(9.5713 0.433271 0)
(9.56911 0.584492 0)
(9.35516 0.744002 0)
(9.40429 0.856315 0)
(9.2408 0.97913 0)
(9.29708 1.00504 0)
(9.18187 1.07343 0)
(9.2387 1.0375 0)
(9.1936 0.982497 0)
(9.24264 0.928346 0)
(9.19432 0.800571 0)
(9.26993 0.683669 0)
(9.15805 0.58969 0)
(9.25643 0.44391 0)
(9.13309 0.354911 0)
(9.23025 0.266442 0)
(9.12075 0.169087 0)
(9.24488 0.103156 0)
(9.1832 0.0580177 0)
(9.34175 -0.0636217 0)
(9.31659 -0.0683374 0)
(9.57036 -0.217874 0)
(9.54972 -0.277062 0)
(9.82472 -0.364081 0)
(9.98391 -0.538697 0)
(10.1109 -0.596861 0)
(10.4784 -0.794908 0)
(10.6237 -1.00154 0)
(10.8874 -1.09385 0)
(11.2602 -1.46489 0)
(11.3946 -1.60899 0)
(11.6625 -1.84269 0)
(11.911 -2.24427 0)
(11.7836 -2.31089 0)
(12.0328 -2.52192 0)
(11.8547 -2.68836 0)
(11.6812 -2.50529 0)
(11.4628 -2.64648 0)
(11.1169 -2.37178 0)
(10.9945 -1.95103 0)
(10.5961 -1.85675 0)
(10.4493 -1.18766 0)
(10.2496 -0.887379 0)
(10.0066 -0.483882 0)
(10.057 0.17537 0)
(9.97091 0.421662 0)
(9.87384 0.885283 0)
(10.2992 1.39683 0)
(10.0631 1.49896 0)
(10.3505 1.76475 0)
(10.5219 1.99512 0)
(10.4228 1.88376 0)
(10.6386 1.86146 0)
(10.6817 1.94098 0)
(10.8338 1.70435 0)
(10.8073 1.42892 0)
(11.1964 1.46823 0)
(11.1512 1.13491 0)
(11.4225 0.80756 0)
(11.6607 0.607593 0)
(11.7868 0.377551 0)
(12.0147 -0.00750235 0)
(12.2293 -0.330943 0)
(12.631 -0.516255 0)
(12.4614 -0.89117 0)
(13.1963 -1.25703 0)
(13.0651 -1.51629 0)
(13.5379 -1.87318 0)
(13.4519 -2.10513 0)
(14.0775 -2.54293 0)
(13.8719 -2.76204 0)
(14.0997 -3.06307 0)
(14.2807 -3.23931 0)
(14.1318 -3.77008 0)
(14.1702 -3.5666 0)
(13.7722 -3.92185 0)
(13.9175 -4.05619 0)
(13.0377 -3.85862 0)
(13.0694 -3.72808 0)
(12.2076 -3.68302 0)
(12.2766 -3.37293 0)
(11.428 -2.9583 0)
(11.5775 -3.05963 0)
(10.9 -2.44936 0)
(10.92 -2.23696 0)
(10.4068 -1.9564 0)
(10.1556 -1.7643 0)
(9.8569 -1.18382 0)
(9.31484 -0.825202 0)
(9.24786 -1.02577 0)
(8.48715 -0.486519 0)
(8.54694 0.147773 0)
(7.65459 0.037005 0)
(8.12489 -0.427286 0)
(6.90283 -0.106147 0)
(7.92971 1.23319 0)
(6.18846 1.45508 0)
(8.14101 1.87839 0)
(5.83564 -1.2584 0)
(8.9554 -1.99432 0)
(6.96343 -4.77581 0)
(8.34194 -4.07263 0)
(6.64459 -4.7606 0)
(6.8344 -3.61638 0)
(6.55734 -3.01361 0)
(6.06172 -2.31407 0)
(6.74258 -1.17491 0)
(7.17131 0.133826 0)
(8.09909 1.15095 0)
(9.17067 2.92477 0)
(9.90987 4.90299 0)
(10.5834 6.41245 0)
(11.0921 8.14279 0)
(11.3699 10.2615 0)
(12.7673 10.8059 0)
(9.95459 13.2551 0)
(13.9458 9.8948 0)
(11.6849 16.3881 0)
(12.4503 -0.132379 0)
(11.349 -0.118173 0)
(12.5319 -0.185906 0)
(11.3948 -0.0454808 0)
(12.5346 -0.0822822 0)
(11.33 0.0759333 0)
(12.4781 -0.0154509 0)
(11.259 0.121539 0)
(12.3725 0.0481259 0)
(11.137 0.12603 0)
(12.2671 0.0704805 0)
(11.1156 0.11484 0)
(12.2803 0.0871566 0)
(11.2489 0.167226 0)
(12.4379 0.0895162 0)
(11.5565 0.196065 0)
(12.7137 0.0518265 0)
(11.9276 0.13617 0)
(12.9454 -0.0730843 0)
(12.1941 -0.0661661 0)
(13.0333 -0.296058 0)
(12.2723 -0.342591 0)
(12.9532 -0.548223 0)
(12.1572 -0.573336 0)
(12.7089 -0.712454 0)
(11.8574 -0.650764 0)
(12.3461 -0.734333 0)
(11.5075 -0.590755 0)
(12.0291 -0.647793 0)
(11.2737 -0.463117 0)
(11.8538 -0.481017 0)
(11.225 -0.289042 0)
(11.8725 -0.235482 0)
(11.3816 -0.0322299 0)
(12.0615 0.0572067 0)
(11.6291 0.260333 0)
(12.2408 0.304382 0)
(11.7713 0.470788 0)
(12.2586 0.436677 0)
(11.7938 0.537408 0)
(12.1604 0.479499 0)
(11.7858 0.506506 0)
(12.0598 0.444164 0)
(11.7927 0.42607 0)
(12.001 0.337934 0)
(11.8079 0.310411 0)
(11.9729 0.185761 0)
(11.8382 0.165324 0)
(11.9544 0.0331458 0)
(11.8806 0.0153684 0)
(11.9423 -0.0834743 0)
(11.9023 -0.0968161 0)
(11.9272 -0.150711 0)
(11.8858 -0.153717 0)
(11.9008 -0.175389 0)
(11.8529 -0.153021 0)
(11.8614 -0.172592 0)
(11.8239 -0.132487 0)
(11.825 -0.151378 0)
(11.7922 -0.116681 0)
(11.801 -0.125445 0)
(11.7571 -0.116695 0)
(11.7924 -0.117725 0)
(11.7231 -0.113339 0)
(11.7897 -0.131336 0)
(11.7002 -0.115561 0)
(11.7906 -0.137091 0)
(11.6877 -0.128278 0)
(11.7928 -0.135121 0)
(11.6842 -0.138835 0)
(11.7883 -0.143218 0)
(11.6776 -0.134887 0)
(11.7481 -0.14831 0)
(11.6517 -0.135276 0)
(11.6633 -0.125422 0)
(11.5803 -0.112943 0)
(11.5289 -0.0732304 0)
(11.4667 -0.0250906 0)
(11.371 0.0346068 0)
(11.3164 0.134294 0)
(11.1986 0.215976 0)
(11.156 0.350634 0)
(11.0586 0.48826 0)
(11.0234 0.616246 0)
(10.9617 0.774202 0)
(10.9485 0.879421 0)
(10.9152 0.992528 0)
(10.9338 1.05386 0)
(10.91 1.08121 0)
(10.9352 1.1008 0)
(10.9248 1.0342 0)
(10.9506 0.976674 0)
(10.9221 0.880566 0)
(10.9414 0.756047 0)
(10.8918 0.641419 0)
(10.9102 0.525627 0)
(10.8461 0.38525 0)
(10.8771 0.304024 0)
(10.8386 0.170343 0)
(10.8696 0.0925285 0)
(10.8907 0.00580529 0)
(10.9716 -0.121941 0)
(10.9641 -0.158211 0)
(11.2418 -0.33156 0)
(11.1614 -0.3844 0)
(11.5006 -0.50859 0)
(11.6086 -0.713176 0)
(11.7601 -0.738953 0)
(12.0522 -1.00422 0)
(12.2387 -1.18821 0)
(12.3472 -1.25469 0)
(12.7273 -1.67026 0)
(12.7033 -1.73471 0)
(12.8583 -1.97989 0)
(12.9717 -2.31069 0)
(12.7341 -2.25549 0)
(12.8632 -2.49557 0)
(12.437 -2.56151 0)
(12.2118 -2.3621 0)
(12.0168 -2.41437 0)
(11.492 -2.07991 0)
(11.2912 -1.75114 0)
(10.8929 -1.59872 0)
(10.5843 -1.04939 0)
(10.6103 -0.695427 0)
(10.2094 -0.426728 0)
(10.3868 0.180779 0)
(10.3619 0.438272 0)
(10.3066 0.737964 0)
(10.7619 1.20814 0)
(10.7694 1.44487 0)
(10.9658 1.5294 0)
(11.3786 1.85562 0)
(11.4114 1.92306 0)
(11.6158 1.70703 0)
(11.8786 1.86874 0)
(11.9228 1.6773 0)
(12.1267 1.44349 0)
(12.2568 1.22882 0)
(12.5358 1.12448 0)
(12.4431 0.70082 0)
(12.9916 0.451975 0)
(12.8985 0.212188 0)
(13.2339 -0.122529 0)
(13.3387 -0.44668 0)
(13.786 -0.762027 0)
(13.6415 -0.986668 0)
(14.1502 -1.40322 0)
(14.1481 -1.62967 0)
(14.5265 -2.04086 0)
(14.3102 -2.20879 0)
(14.8477 -2.55715 0)
(14.5112 -2.92942 0)
(14.7846 -3.02662 0)
(14.4424 -3.27207 0)
(14.6285 -3.64544 0)
(14.0287 -3.48489 0)
(14.0188 -3.70721 0)
(13.5639 -3.65149 0)
(13.1959 -3.58455 0)
(12.9136 -3.31702 0)
(12.4414 -3.433 0)
(12.3725 -3.02685 0)
(11.8124 -2.77538 0)
(11.9207 -2.81191 0)
(11.1793 -2.25816 0)