/*--------------------------------*- C++ -*----------------------------------*\
| =========                 |                                                 |
| \\      /  F ield         | OpenFOAM: The Open Source CFD Toolbox           |
|  \\    /   O peration     | Version:  2.4.0                                 |
|   \\  /    A nd           | Web:      www.OpenFOAM.org                      |
|    \\/     M anipulation  |                                                 |
\*---------------------------------------------------------------------------*/
FoamFile
{
    version     2.0;
    format      ascii;
    class       volVectorField;
    location    "0.6";
    object      UMean;
}
// * * * * * * * * * * * * * * * * * * * * * * * * * * * * * * * * * * * * * //

dimensions      [0 1 -1 0 0 0 0];

internalField   nonuniform List<vector> 
8800
(
(8.0932 0.386724 0)
(5.46625 0.242124 0)
(3.93612 0.0432257 0)
(3.18495 -0.015214 0)
(2.83138 -0.0180835 0)
(2.63068 -0.0109883 0)
(2.51931 -0.0056151 0)
(2.41654 -0.00222809 0)
(2.35929 -0.00156593 0)
(2.28948 -0.000396433 0)
(2.26129 -0.000877031 0)
(2.20777 0.000249475 0)
(2.19216 -0.000436514 0)
(2.14294 0.000896253 0)
(2.12812 -3.28217e-05 0)
(2.0797 0.00160457 0)
(2.05755 0.000111296 0)
(2.00731 0.00158183 0)
(1.99452 0.00467962 0)
(1.81165 -0.0472188 0)
(10.0783 0.83527 0)
(9.6595 0.8635 0)
(8.88247 0.50417 0)
(8.09887 0.259914 0)
(7.51403 0.1369 0)
(7.03243 0.0810051 0)
(6.72847 0.0530212 0)
(6.43296 0.0398172 0)
(6.26937 0.0286768 0)
(6.06471 0.0240652 0)
(5.98244 0.0172621 0)
(5.82469 0.0179838 0)
(5.78516 0.0132208 0)
(5.64807 0.0172859 0)
(5.62198 0.01315 0)
(5.49555 0.0185324 0)
(5.46106 0.0177652 0)
(5.33794 0.0151356 0)
(5.30125 0.0309555 0)
(5.13768 -0.0370541 0)
(10.0576 0.629616 0)
(10.6546 0.85863 0)
(10.8673 0.597593 0)
(10.6912 0.37038 0)
(10.4595 0.253231 0)
(10.0912 0.194007 0)
(9.84768 0.150784 0)
(9.50737 0.120784 0)
(9.33706 0.0914509 0)
(9.05396 0.0751962 0)
(8.96265 0.055819 0)
(8.7248 0.0523026 0)
(8.69043 0.0392882 0)
(8.47591 0.0440321 0)
(8.47108 0.0341268 0)
(8.26603 0.043141 0)
(8.2664 0.0387528 0)
(8.05832 0.0449063 0)
(8.04923 0.0500483 0)
(7.83746 -0.0204745 0)
(9.99908 0.456181 0)
(10.5634 0.701591 0)
(11.1647 0.542626 0)
(11.3684 0.349255 0)
(11.5495 0.258985 0)
(11.4519 0.224685 0)
(11.4839 0.197029 0)
(11.2926 0.17377 0)
(11.2936 0.143815 0)
(11.0717 0.124654 0)
(11.086 0.100152 0)
(10.8534 0.0931218 0)
(10.8939 0.0746472 0)
(10.6514 0.0784775 0)
(10.7139 0.0625223 0)
(10.4594 0.0758006 0)
(10.5324 0.0605003 0)
(10.2591 0.0872181 0)
(10.316 0.0621471 0)
(10.019 0.0939719 0)
(10.0443 0.345912 0)
(10.3969 0.5643 0)
(11.0442 0.458445 0)
(11.2969 0.291796 0)
(11.6487 0.206411 0)
(11.6632 0.190241 0)
(11.8698 0.17522 0)
(11.8081 0.168198 0)
(11.9718 0.1416 0)
(11.8734 0.132864 0)
(12.0239 0.105463 0)
(11.894 0.108306 0)
(12.0422 0.0827108 0)
(11.8815 0.099294 0)
(12.0276 0.0713524 0)
(11.8386 0.102081 0)
(11.9776 0.0682489 0)
(11.76 0.119246 0)
(11.8706 0.0686283 0)
(11.5944 0.137908 0)
(10.0549 0.252382 0)
(10.3153 0.452366 0)
(10.8933 0.375519 0)
(11.1777 0.245366 0)
(11.5166 0.160071 0)
(11.6049 0.148678 0)
(11.7857 0.140723 0)
(11.8213 0.139934 0)
(11.9622 0.118364 0)
(11.9891 0.111942 0)
(12.1184 0.0900662 0)
(12.1331 0.0913333 0)
(12.2556 0.0733582 0)
(12.255 0.0851581 0)
(12.3669 0.0687367 0)
(12.3518 0.0887687 0)
(12.4481 0.0734835 0)
(12.4165 0.0998768 0)
(12.4763 0.07558 0)
(12.366 0.0630358 0)
(10.0122 0.17429 0)
(10.2993 0.352079 0)
(10.7456 0.287367 0)
(11.1157 0.204581 0)
(11.3716 0.116914 0)
(11.5647 0.113927 0)
(11.6462 0.104246 0)
(11.7856 0.112966 0)
(11.8209 0.0890645 0)
(11.9649 0.0900582 0)
(11.9882 0.066006 0)
(12.1306 0.0731889 0)
(12.1458 0.0520337 0)
(12.2827 0.0690595 0)
(12.2871 0.0492336 0)
(12.4184 0.0730181 0)
(12.4098 0.0531691 0)
(12.5311 0.07926 0)
(12.4875 0.043921 0)
(12.5166 0.0245048 0)
(10.0011 0.114379 0)
(10.2651 0.250205 0)
(10.6657 0.20358 0)
(11.0428 0.15275 0)
(11.2953 0.0811681 0)
(11.5063 0.0787697 0)
(11.5767 0.0731128 0)
(11.7276 0.0811308 0)
(11.7397 0.0645203 0)
(11.9098 0.0631131 0)
(11.898 0.0477546 0)
(12.0808 0.0500502 0)
(12.0522 0.0373363 0)
(12.2359 0.0475415 0)
(12.1937 0.0350575 0)
(12.3748 0.0501435 0)
(12.3171 0.0356619 0)
(12.4902 0.0499753 0)
(12.3947 0.0194357 0)
(12.4645 -0.00108 0)
(9.98925 0.063621 0)
(10.2483 0.150307 0)
(10.6111 0.120595 0)
(10.999 0.0949092 0)
(11.2445 0.0460674 0)
(11.4712 0.0488228 0)
(11.5356 0.0414643 0)
(11.6896 0.0509882 0)
(11.6952 0.0375497 0)
(11.8696 0.0392191 0)
(11.8471 0.0272044 0)
(12.0445 0.0306295 0)
(11.9935 0.0206455 0)
(12.2047 0.0290895 0)
(12.1301 0.0177996 0)
(12.3463 0.029541 0)
(12.2502 0.0146061 0)
(12.4628 0.0240143 0)
(12.3216 -0.00349369 0)
(12.4286 -0.0195471 0)
(9.98678 0.020122 0)
(10.2376 0.0509824 0)
(10.588 0.0389413 0)
(10.9734 0.0335813 0)
(11.2256 0.0133105 0)
(11.4468 0.0183119 0)
(11.5263 0.0118674 0)
(11.6605 0.0185768 0)
(11.6889 0.0112283 0)
(11.8359 0.0139896 0)
(11.845 0.00734212 0)
(12.0078 0.0109546 0)
(11.9951 0.00395429 0)
(12.1672 0.00987123 0)
(12.1333 0.000536572 0)
(12.3096 0.00742096 0)
(12.2549 -0.00574163 0)
(12.4249 -0.00219883 0)
(12.3253 -0.0233874 0)
(12.3849 -0.0359813 0)
(9.99227 -0.0230016 0)
(10.231 -0.0457412 0)
(10.595 -0.0446146 0)
(10.9653 -0.0266575 0)
(11.2352 -0.0205469 0)
(11.4356 -0.0109101 0)
(11.5401 -0.018759 0)
(11.6453 -0.0130197 0)
(11.7082 -0.0166171 0)
(11.8163 -0.0104761 0)
(11.8704 -0.0133289 0)
(11.9833 -0.00803636 0)
(12.0263 -0.0138581 0)
(12.1389 -0.00812638 0)
(12.1684 -0.0184231 0)
(12.2779 -0.0131659 0)
(12.2931 -0.0273406 0)
(12.3889 -0.0258186 0)
(12.3631 -0.0444433 0)
(12.3435 -0.047474 0)
(9.99412 -0.0660787 0)
(10.2405 -0.145745 0)
(10.6211 -0.125598 0)
(10.9858 -0.0889334 0)
(11.2623 -0.0523441 0)
(11.4491 -0.0429756 0)
(11.5648 -0.0471406 0)
(11.6571 -0.0472567 0)
(11.737 -0.0415235 0)
(11.8267 -0.0379583 0)
(11.9023 -0.0314935 0)
(11.9913 -0.0301389 0)
(12.0603 -0.0288444 0)
(12.1436 -0.029415 0)
(12.2049 -0.0339525 0)
(12.2785 -0.0370547 0)
(12.331 -0.0458126 0)
(12.3868 -0.0530091 0)
(12.4014 -0.0629444 0)
(12.3407 -0.0621023 0)
(9.9965 -0.116313 0)
(10.2656 -0.246579 0)
(10.6697 -0.207628 0)
(11.0349 -0.147928 0)
(11.3106 -0.085895 0)
(11.4867 -0.0744295 0)
(11.6061 -0.0770942 0)
(11.6954 -0.0788302 0)
(11.7819 -0.066941 0)
(11.8665 -0.0631742 0)
(11.948 -0.0508059 0)
(12.0306 -0.0505098 0)
(12.1059 -0.0447118 0)
(12.1822 -0.0485853 0)
(12.2495 -0.0502325 0)
(12.3167 -0.0581856 0)
(12.3752 -0.0656508 0)
(12.4253 -0.0782325 0)
(12.4483 -0.0859358 0)
(12.3856 -0.0764029 0)
(10.0161 -0.175939 0)
(10.2924 -0.349487 0)
(10.7559 -0.29047 0)
(11.1014 -0.201064 0)
(11.3923 -0.120501 0)
(11.5405 -0.110799 0)
(11.677 -0.107113 0)
(11.7529 -0.111687 0)
(11.8563 -0.0909668 0)
(11.9276 -0.0904374 0)
(12.0228 -0.0689732 0)
(12.0917 -0.0738075 0)
(12.1787 -0.0594729 0)
(12.2421 -0.070716 0)
(12.3185 -0.0642469 0)
(12.3748 -0.0815694 0)
(12.4377 -0.0822904 0)
(12.4796 -0.106563 0)
(12.5056 -0.10863 0)
(12.4436 -0.103575 0)
(10.0543 -0.25265 0)
(10.3154 -0.451746 0)
(10.8947 -0.376322 0)
(11.1743 -0.244817 0)
(11.5227 -0.160872 0)
(11.5962 -0.148457 0)
(11.7956 -0.140782 0)
(11.8094 -0.141412 0)
(11.9717 -0.117466 0)
(11.9783 -0.115061 0)
(12.1229 -0.0894643 0)
(12.1261 -0.0956938 0)
(12.2531 -0.0759184 0)
(12.2506 -0.0916807 0)
(12.3562 -0.0774357 0)
(12.3461 -0.102731 0)
(12.4243 -0.0940198 0)
(12.3997 -0.132162 0)
(12.4258 -0.125057 0)
(12.3114 -0.140868 0)
(10.0508 -0.347554 0)
(10.3911 -0.562181 0)
(11.0489 -0.460473 0)
(11.2914 -0.289884 0)
(11.6542 -0.208736 0)
(11.6561 -0.188237 0)
(11.8761 -0.177393 0)
(11.8002 -0.166844 0)
(11.9762 -0.143842 0)
(11.8683 -0.131988 0)
(12.0214 -0.108961 0)
(11.8951 -0.107647 0)
(12.0279 -0.0899448 0)
(11.8878 -0.0998134 0)
(11.9965 -0.085342 0)
(11.8439 -0.107538 0)
(11.9186 -0.0957004 0)
(11.7506 -0.137275 0)
(11.7584 -0.125492 0)
(11.526 -0.162323 0)
(10.0044 -0.456627 0)
(10.5568 -0.70083 0)
(11.1706 -0.543303 0)
(11.3607 -0.348716 0)
(11.5573 -0.25993 0)
(11.4416 -0.224066 0)
(11.4941 -0.19789 0)
(11.2793 -0.173535 0)
(11.3049 -0.144786 0)
(11.0568 -0.124923 0)
(11.0948 -0.101846 0)
(10.8386 -0.0942867 0)
(10.8948 -0.078282 0)
(10.6341 -0.0824003 0)
(10.7005 -0.0694409 0)
(10.4302 -0.0870448 0)
(10.49 -0.0741958 0)
(10.2003 -0.115568 0)
(10.2079 -0.0968052 0)
(9.86982 -0.158932 0)
(10.0583 -0.630149 0)
(10.6523 -0.858072 0)
(10.8695 -0.59802 0)
(10.6875 -0.36999 0)
(10.4636 -0.253836 0)
(10.0847 -0.193566 0)
(9.85459 -0.151459 0)
(9.49662 -0.120393 0)
(9.34703 -0.092512 0)
(9.03807 -0.0748629 0)
(8.97405 -0.0577735 0)
(8.70277 -0.0522085 0)
(8.70006 -0.0429682 0)
(8.44234 -0.045535 0)
(8.47392 -0.0403288 0)
(8.20756 -0.0501549 0)
(8.24821 -0.0483347 0)
(7.95082 -0.0699876 0)
(7.95458 -0.0717595 0)
(7.6043 -0.0897533 0)
(10.0782 -0.83539 0)
(9.65855 -0.863302 0)
(8.88307 -0.504253 0)
(8.09737 -0.259826 0)
(7.51583 -0.137115 0)
(7.02903 -0.0809605 0)
(6.73176 -0.0531814 0)
(6.42662 -0.0398244 0)
(6.2746 -0.0290384 0)
(6.05394 -0.024096 0)
(5.98905 -0.0181016 0)
(5.80707 -0.0181634 0)
(5.79165 -0.014926 0)
(5.6172 -0.018354 0)
(5.62457 -0.0161354 0)
(5.43697 -0.0229481 0)
(5.44739 -0.0222083 0)
(5.22348 -0.0330058 0)
(5.214 -0.0390336 0)
(4.91211 -0.0215847 0)
(8.09298 -0.386777 0)
(5.46592 -0.242073 0)
(3.93619 -0.0432488 0)
(3.18476 0.0152077 0)
(2.83166 0.0180389 0)
(2.62954 0.0110059 0)
(2.52002 0.00561615 0)
(2.41435 0.0021967 0)
(2.36027 0.00156466 0)
(2.28564 0.00035055 0)
(2.26184 0.000782259 0)
(2.20072 -0.000278232 0)
(2.19132 0.000220207 0)
(2.12877 -0.00111307 0)
(2.12269 -0.000346129 0)
(2.05 -0.00236032 0)
(2.0378 -0.00117878 0)
(1.94539 -0.0039386 0)
(1.90786 -0.00463624 0)
(1.75065 0.0118241 0)
(2.2159 -0.088863 0)
(2.35175 0.00667246 0)
(2.59384 0.0117633 0)
(2.80271 -0.0114429 0)
(3.01364 -0.0369096 0)
(3.16576 -0.0501265 0)
(3.32007 -0.0587263 0)
(3.41921 -0.0595842 0)
(3.52989 -0.0701852 0)
(3.60905 -0.0815649 0)
(3.70932 -0.095247 0)
(3.78229 -0.105688 0)
(3.88034 -0.1191 0)
(3.95366 -0.129059 0)
(4.04717 -0.141761 0)
(4.12273 -0.152198 0)
(4.22007 -0.163649 0)
(4.30369 -0.173812 0)
(4.42022 -0.184643 0)
(4.5182 -0.193026 0)
(4.64304 -0.210404 0)
(4.74127 -0.228705 0)
(4.8603 -0.25227 0)
(4.94858 -0.274682 0)
(5.05736 -0.300279 0)
(5.13109 -0.32255 0)
(5.23092 -0.34497 0)
(5.29284 -0.360497 0)
(5.39165 -0.375309 0)
(5.45577 -0.387524 0)
(5.56535 -0.406047 0)
(5.64377 -0.42491 0)
(5.76464 -0.451224 0)
(5.84995 -0.475888 0)
(5.9684 -0.503837 0)
(6.0491 -0.527993 0)
(6.16088 -0.553234 0)
(6.23623 -0.574235 0)
(6.3445 -0.599117 0)
(6.41624 -0.621236 0)
(6.52328 -0.647245 0)
(6.58709 -0.670788 0)
(6.69197 -0.700567 0)
(6.74355 -0.726649 0)
(6.84494 -0.757704 0)
(6.88299 -0.782635 0)
(6.98406 -0.812664 0)
(7.01245 -0.834118 0)
(7.11551 -0.861837 0)
(7.1388 -0.87756 0)
(7.24515 -0.901129 0)
(7.26849 -0.911088 0)
(7.37933 -0.932085 0)
(7.40287 -0.94001 0)
(7.51678 -0.962233 0)
(7.53507 -0.971867 0)
(7.64945 -0.996647 0)
(7.65505 -1.00657 0)
(7.76599 -1.02934 0)
(7.75696 -1.03525 0)
(7.86906 -1.05541 0)
(7.85552 -1.05848 0)
(7.97614 -1.0779 0)
(7.97192 -1.08051 0)
(8.10051 -1.10034 0)
(8.10407 -1.10467 0)
(8.22658 -1.12532 0)
(8.21608 -1.1311 0)
(8.32975 -1.14687 0)
(8.29827 -1.14895 0)
(8.41295 -1.16496 0)
(8.3673 -1.1606 0)
(8.47603 -1.17279 0)
(8.42203 -1.16238 0)
(8.53291 -1.17416 0)
(8.47783 -1.1593 0)
(8.59435 -1.16858 0)
(8.54489 -1.1525 0)
(8.67374 -1.16274 0)
(8.62436 -1.14126 0)
(8.77657 -1.14909 0)
(8.7097 -1.11755 0)
(8.88956 -1.11419 0)
(8.78756 -1.07715 0)
(8.99475 -1.06609 0)
(8.86852 -1.01952 0)
(9.07161 -1.01434 0)
(8.95769 -0.963938 0)
(9.12757 -0.965006 0)
(9.03357 -0.914898 0)
(9.16845 -0.914899 0)
(9.08648 -0.860181 0)
(9.18825 -0.855299 0)
(9.10808 -0.801216 0)
(9.18714 -0.797175 0)
(9.11394 -0.742669 0)
(9.17409 -0.739029 0)
(9.10938 -0.686006 0)
(9.16063 -0.688171 0)
(9.11785 -0.642542 0)
(9.16299 -0.656427 0)
(9.14205 -0.612428 0)
(9.19177 -0.642047 0)
(9.18269 -0.599547 0)
(9.23715 -0.620153 0)
(9.22117 -0.569613 0)
(9.27992 -0.589669 0)
(9.24875 -0.531837 0)
(9.30505 -0.551145 0)
(9.25458 -0.489952 0)
(9.29791 -0.510035 0)
(9.2328 -0.446906 0)
(9.25235 -0.470236 0)
(9.18721 -0.405811 0)
(9.18529 -0.435411 0)
(9.15263 -0.371923 0)
(9.13691 -0.405646 0)
(9.12839 -0.338594 0)
(9.08922 -0.365724 0)
(9.08201 -0.290571 0)
(9.03551 -0.314434 0)
(9.04082 -0.244493 0)
(9.00267 -0.276921 0)
(9.02355 -0.214651 0)
(8.98465 -0.257231 0)
(9.01402 -0.202079 0)
(8.97678 -0.249875 0)
(9.00427 -0.194832 0)
(8.97376 -0.233534 0)
(8.99096 -0.180317 0)
(8.96273 -0.21322 0)
(8.97951 -0.16305 0)
(8.94289 -0.19077 0)
(8.96305 -0.138631 0)
(8.9114 -0.169573 0)
(8.94239 -0.116019 0)
(8.87319 -0.144333 0)
(8.91336 -0.0831179 0)
(8.83004 -0.109975 0)
(8.87908 -0.04975 0)
(8.78026 -0.077922 0)
(8.82504 -0.0175888 0)
(8.7194 -0.0365286 0)
(8.7642 0.0201333 0)
(8.66197 -0.00259347 0)
(8.71915 0.0451657 0)
(8.5976 0.0329731 0)
(8.67755 0.0871129 0)
(8.52776 0.0686532 0)
(8.63935 0.124796 0)
(8.46917 0.10367 0)
(8.589 0.166408 0)
(8.41842 0.157148 0)
(8.53135 0.218594 0)
(8.36396 0.207635 0)
(8.47145 0.278756 0)
(8.31306 0.278682 0)
(8.40414 0.350226 0)
(8.27311 0.35754 0)
(8.35399 0.431534 0)
(8.25314 0.421124 0)
(8.30848 0.496402 0)
(8.22905 0.492393 0)
(8.24877 0.574105 0)
(8.17361 0.574838 0)
(8.1743 0.652139 0)
(8.12287 0.655555 0)
(8.09438 0.723843 0)
(8.06171 0.730904 0)
(7.97717 0.804496 0)
(7.99717 0.809909 0)
(7.80713 0.886919 0)
(7.90122 0.884928 0)
(7.62322 0.985979 0)
(7.79771 0.951449 0)
(7.45184 1.11352 0)
(7.71682 1.03112 0)
(7.27803 1.24711 0)
(7.67232 1.12615 0)
(7.12451 1.39712 0)
(7.60572 1.23328 0)
(7.02121 1.57205 0)
(7.48446 1.35749 0)
(6.95158 1.7655 0)
(7.33592 1.53486 0)
(6.862 1.97316 0)
(7.19303 1.76546 0)
(6.71802 2.19329 0)
(7.06009 2.05121 0)
(6.52348 2.44413 0)
(6.93188 2.38361 0)
(6.28076 2.75637 0)
(6.72944 2.78302 0)
(6.01799 3.19682 0)
(6.40355 3.28173 0)
(5.80068 3.95499 0)
(5.98251 4.03456 0)
(5.29931 5.16694 0)
(6.22583 5.78829 0)
(3.95178 8.69365 0)
(5.25717 -0.055394 0)
(5.25007 -0.0223784 0)
(5.30262 -0.0368319 0)
(5.38247 -0.0761607 0)
(5.5064 -0.112125 0)
(5.60016 -0.128706 0)
(5.69889 -0.134916 0)
(5.75268 -0.133859 0)
(5.81536 -0.137371 0)
(5.84691 -0.144109 0)
(5.90435 -0.156808 0)
(5.93802 -0.169318 0)
(6.00511 -0.184237 0)
(6.04744 -0.196233 0)
(6.12387 -0.209052 0)
(6.17202 -0.22002 0)
(6.25633 -0.232444 0)
(6.30836 -0.243207 0)
(6.39959 -0.257602 0)
(6.45728 -0.27015 0)
(6.55392 -0.28822 0)
(6.61384 -0.30652 0)
(6.70908 -0.3285 0)
(6.76365 -0.34885 0)
(6.85598 -0.371419 0)
(6.90348 -0.390764 0)
(6.99531 -0.410512 0)
(7.03799 -0.425958 0)
(7.13201 -0.443322 0)
(7.17359 -0.458168 0)
(7.27453 -0.478304 0)
(7.31849 -0.497431 0)
(7.42668 -0.523437 0)
(7.46922 -0.546354 0)
(7.57754 -0.574149 0)
(7.61282 -0.595222 0)
(7.71619 -0.620934 0)
(7.7439 -0.638918 0)
(7.84234 -0.663816 0)
(7.86454 -0.681853 0)
(7.96161 -0.708476 0)
(7.97956 -0.728081 0)
(8.07834 -0.757073 0)
(8.09119 -0.778457 0)
(8.19388 -0.808392 0)
(8.19939 -0.830007 0)
(8.30712 -0.859652 0)
(8.30363 -0.880017 0)
(8.41574 -0.907541 0)
(8.40271 -0.924125 0)
(8.51818 -0.947356 0)
(8.49602 -0.95901 0)
(8.61396 -0.978868 0)
(8.58336 -0.987134 0)
(8.7025 -1.00629 0)
(8.66394 -1.01395 0)
(8.78303 -1.03408 0)
(8.73726 -1.04316 0)
(8.85724 -1.06354 0)
(8.8047 -1.07352 0)
(8.92939 -1.09305 0)
(8.86832 -1.10222 0)
(9.00039 -1.12083 0)
(8.92905 -1.12733 0)
(9.06802 -1.14481 0)
(8.99029 -1.14693 0)
(9.1285 -1.1608 0)
(9.04536 -1.16126 0)
(9.18242 -1.17642 0)
(9.09363 -1.17819 0)
(9.22817 -1.18819 0)
(9.12833 -1.18294 0)
(9.26365 -1.19064 0)
(9.15734 -1.18238 0)
(9.29226 -1.19362 0)
(9.18742 -1.17982 0)
(9.32039 -1.19319 0)
(9.22047 -1.17561 0)
(9.35201 -1.18907 0)
(9.2516 -1.16769 0)
(9.39398 -1.17669 0)
(9.28186 -1.14287 0)
(9.43804 -1.14597 0)
(9.31795 -1.098 0)
(9.47116 -1.0941 0)
(9.35899 -1.03958 0)
(9.49599 -1.03874 0)
(9.4014 -0.981427 0)
(9.51006 -0.98282 0)
(9.42993 -0.927155 0)
(9.51701 -0.924034 0)
(9.43703 -0.862524 0)
(9.50276 -0.857509 0)
(9.41706 -0.797041 0)
(9.46766 -0.792902 0)
(9.37905 -0.731812 0)
(9.42561 -0.731088 0)
(9.3408 -0.676296 0)
(9.40168 -0.686778 0)
(9.32722 -0.642624 0)
(9.40052 -0.666084 0)
(9.34133 -0.625804 0)
(9.4235 -0.660846 0)
(9.36267 -0.614356 0)
(9.44656 -0.634754 0)
(9.37981 -0.579575 0)
(9.45557 -0.596002 0)
(9.3817 -0.533473 0)
(9.44023 -0.54755 0)
(9.35992 -0.48049 0)
(9.40238 -0.49173 0)
(9.31581 -0.42392 0)
(9.33913 -0.437564 0)
(9.25462 -0.380319 0)
(9.28038 -0.410565 0)
(9.21362 -0.358284 0)
(9.23088 -0.384404 0)
(9.16858 -0.321243 0)
(9.17588 -0.338066 0)
(9.11118 -0.274157 0)
(9.13158 -0.293286 0)
(9.06692 -0.239708 0)
(9.11008 -0.265327 0)
(9.04512 -0.215282 0)
(9.10472 -0.248645 0)
(9.03128 -0.200066 0)
(9.10548 -0.23963 0)
(9.00874 -0.189653 0)
(9.09605 -0.220226 0)
(8.97897 -0.171607 0)
(9.07272 -0.201637 0)
(8.94362 -0.150196 0)
(9.03994 -0.179374 0)
(8.90251 -0.121889 0)
(9.00017 -0.151151 0)
(8.84885 -0.0964975 0)
(8.95324 -0.123002 0)
(8.79314 -0.0701018 0)
(8.90302 -0.0896905 0)
(8.74149 -0.0398403 0)
(8.85219 -0.0517845 0)
(8.67289 0.00328892 0)
(8.78224 -0.00653406 0)
(8.60126 0.0448927 0)
(8.71243 0.0193004 0)
(8.53945 0.0754586 0)
(8.64324 0.0537516 0)
(8.48106 0.111191 0)
(8.59725 0.0855441 0)
(8.44205 0.142742 0)
(8.55009 0.117065 0)
(8.40173 0.185219 0)
(8.49952 0.165574 0)
(8.36032 0.238755 0)
(8.45085 0.216278 0)
(8.31264 0.30723 0)
(8.4099 0.277949 0)
(8.25724 0.379592 0)
(8.39779 0.347017 0)
(8.21965 0.458679 0)
(8.39943 0.409274 0)
(8.18 0.538954 0)
(8.37512 0.490904 0)
(8.1404 0.619729 0)
(8.34214 0.563407 0)
(8.10573 0.691087 0)
(8.31426 0.630422 0)
(8.05331 0.787701 0)
(8.26529 0.710404 0)
(7.96597 0.895243 0)
(8.2069 0.791626 0)
(7.8608 1.00793 0)
(8.12582 0.858976 0)
(7.73402 1.1126 0)
(8.04077 0.916736 0)
(7.59228 1.21895 0)
(7.99747 0.991866 0)
(7.46008 1.34778 0)
(7.96037 1.08796 0)
(7.36738 1.49787 0)
(7.887 1.20106 0)
(7.29231 1.6522 0)
(7.81007 1.36463 0)
(7.18392 1.81421 0)
(7.77121 1.5746 0)
(7.04785 2.00258 0)
(7.75895 1.81614 0)
(6.89624 2.23135 0)
(7.71847 2.07814 0)
(6.76165 2.54118 0)
(7.6138 2.36868 0)
(6.68467 2.95104 0)
(7.40496 2.71905 0)
(6.61297 3.4982 0)
(7.12946 3.22502 0)
(6.4102 4.22701 0)
(7.19635 4.13166 0)
(5.79228 5.49526 0)
(8.33254 5.06972 0)
(6.32966 9.23619 0)
(7.88915 -0.0815474 0)
(7.87859 -0.0869086 0)
(7.91753 -0.107363 0)
(7.96737 -0.128931 0)
(8.06847 -0.145095 0)
(8.12935 -0.149331 0)
(8.20092 -0.150613 0)
(8.21483 -0.148741 0)
(8.24906 -0.152873 0)
(8.24076 -0.160006 0)
(8.2739 -0.174704 0)
(8.27233 -0.189889 0)
(8.31972 -0.208941 0)
(8.32868 -0.225101 0)
(8.38815 -0.243048 0)
(8.40354 -0.257109 0)
(8.47117 -0.273294 0)
(8.48869 -0.285939 0)
(8.55991 -0.302245 0)
(8.57752 -0.316267 0)
(8.65098 -0.335313 0)
(8.66845 -0.352928 0)
(8.74335 -0.374721 0)
(8.75901 -0.393895 0)
(8.83516 -0.415985 0)
(8.84898 -0.434281 0)
(8.92732 -0.454374 0)
(8.93984 -0.47044 0)
(9.02087 -0.488815 0)
(9.03012 -0.504581 0)
(9.11428 -0.524511 0)
(9.11874 -0.543537 0)
(9.20631 -0.567424 0)
(9.2026 -0.589553 0)
(9.29168 -0.615064 0)
(9.27737 -0.636362 0)
(9.3682 -0.660143 0)
(9.34502 -0.678457 0)
(9.43904 -0.700914 0)
(9.41001 -0.717936 0)
(9.50882 -0.741911 0)
(9.47832 -0.760199 0)
(9.58176 -0.787602 0)
(9.5509 -0.80807 0)
(9.65655 -0.838158 0)
(9.62354 -0.859552 0)
(9.72805 -0.890138 0)
(9.6895 -0.909985 0)
(9.79045 -0.938125 0)
(9.74404 -0.953791 0)
(9.84176 -0.977069 0)
(9.78678 -0.987674 0)
(9.88364 -1.00667 0)
(9.82033 -1.01345 0)
(9.91899 -1.03122 0)
(9.84952 -1.03701 0)
(9.95217 -1.05719 0)
(9.87979 -1.06458 0)
(9.98622 -1.08738 0)
(9.91116 -1.0945 0)
(10.0158 -1.1151 0)
(9.93456 -1.11921 0)
(10.0327 -1.13567 0)
(9.94061 -1.13721 0)
(10.0334 -1.1504 0)
(9.92871 -1.1495 0)
(10.0231 -1.16338 0)
(9.91409 -1.16392 0)
(10.0181 -1.18181 0)
(9.90304 -1.181 0)
(10.0075 -1.19529 0)
(9.88672 -1.18672 0)
(9.99371 -1.19574 0)
(9.86712 -1.18568 0)
(9.97709 -1.19674 0)
(9.84265 -1.18293 0)
(9.95269 -1.19552 0)
(9.8142 -1.17606 0)
(9.92568 -1.19268 0)
(9.79034 -1.16951 0)
(9.90464 -1.18186 0)
(9.77294 -1.14648 0)
(9.89014 -1.15224 0)
(9.76363 -1.09867 0)
(9.87238 -1.09856 0)
(9.76065 -1.04133 0)
(9.85098 -1.03738 0)
(9.74654 -0.979551 0)
(9.82245 -0.978432 0)
(9.7221 -0.921872 0)
(9.78691 -0.912402 0)
(9.684 -0.848511 0)
(9.7323 -0.840234 0)
(9.62696 -0.776039 0)
(9.66624 -0.769959 0)
(9.56496 -0.709284 0)
(9.59738 -0.71284 0)
(9.50944 -0.662959 0)
(9.56002 -0.680774 0)
(9.48398 -0.640506 0)
(9.54843 -0.672742 0)
(9.48563 -0.633972 0)
(9.54237 -0.672972 0)
(9.4861 -0.61857 0)
(9.52769 -0.640569 0)
(9.47902 -0.574629 0)
(9.49404 -0.593747 0)
(9.4588 -0.518625 0)
(9.44264 -0.536178 0)
(9.42129 -0.45401 0)
(9.37435 -0.469857 0)
(9.36301 -0.385888 0)
(9.29408 -0.412635 0)
(9.32006 -0.354536 0)
(9.24474 -0.392437 0)
(9.27777 -0.330278 0)
(9.17558 -0.359461 0)
(9.21724 -0.289111 0)
(9.09599 -0.315402 0)
(9.16212 -0.246255 0)
(9.03864 -0.281123 0)
(9.12234 -0.221384 0)
(9.0072 -0.263915 0)
(9.09854 -0.205432 0)
(8.98935 -0.250783 0)
(9.08163 -0.187379 0)
(8.97099 -0.237231 0)
(9.05437 -0.167472 0)
(8.94223 -0.216045 0)
(9.01568 -0.142327 0)
(8.9026 -0.194764 0)
(8.95698 -0.112914 0)
(8.8562 -0.170857 0)
(8.88645 -0.0799858 0)
(8.80721 -0.137968 0)
(8.80496 -0.0484483 0)
(8.75043 -0.10742 0)
(8.72666 -0.0264845 0)
(8.68762 -0.0806535 0)
(8.66194 0.00332862 0)
(8.61569 -0.04224 0)
(8.60114 0.0581276 0)
(8.52136 0.00719224 0)
(8.54424 0.0971667 0)
(8.4449 0.0302993 0)
(8.49132 0.125043 0)
(8.38111 0.0657307 0)
(8.44677 0.151935 0)
(8.33462 0.088932 0)
(8.42194 0.182767 0)
(8.28499 0.119737 0)
(8.40895 0.231952 0)
(8.23402 0.15807 0)
(8.38037 0.288477 0)
(8.19745 0.211337 0)
(8.34723 0.365839 0)
(8.17071 0.258568 0)
(8.3139 0.42734 0)
(8.16759 0.319556 0)
(8.28285 0.497915 0)
(8.16291 0.394059 0)
(8.26008 0.587971 0)
(8.14635 0.473619 0)
(8.23953 0.672734 0)
(8.14448 0.537188 0)
(8.20757 0.753064 0)
(8.13157 0.607639 0)
(8.14956 0.8603 0)
(8.11673 0.691913 0)
(8.07695 0.978761 0)
(8.09678 0.779269 0)
(7.96856 1.09509 0)
(8.10582 0.859968 0)
(7.82078 1.20086 0)
(8.14685 0.93361 0)
(7.65626 1.30445 0)
(8.1707 0.995 0)
(7.53109 1.42395 0)
(8.17866 1.08398 0)
(7.43316 1.55724 0)
(8.18988 1.21559 0)
(7.30914 1.70752 0)
(8.20356 1.37745 0)
(7.16732 1.89396 0)
(8.19213 1.54787 0)
(7.06679 2.12215 0)
(8.14014 1.74016 0)
(7.03874 2.40444 0)
(8.02253 1.96137 0)
(7.06285 2.73539 0)
(7.86638 2.25305 0)
(7.09855 3.13302 0)
(7.787 2.65287 0)
(7.02726 3.61095 0)
(7.97148 3.20916 0)
(6.7188 4.37121 0)
(8.65916 3.75284 0)
(6.44486 6.04323 0)
(9.56688 3.78062 0)
(7.97304 8.49759 0)
(10.0742 -0.115362 0)
(10.0698 -0.224637 0)
(10.1357 -0.269139 0)
(10.1751 -0.258328 0)
(10.2665 -0.230232 0)
(10.2918 -0.198316 0)
(10.3474 -0.179162 0)
(10.3299 -0.167095 0)
(10.3583 -0.168664 0)
(10.3257 -0.17401 0)
(10.3566 -0.189488 0)
(10.3296 -0.204564 0)
(10.3721 -0.226104 0)
(10.3517 -0.243362 0)
(10.4032 -0.26459 0)
(10.3852 -0.279555 0)
(10.4418 -0.298318 0)
(10.4225 -0.310859 0)
(10.4825 -0.328668 0)
(10.4619 -0.341335 0)
(10.5259 -0.360845 0)
(10.5036 -0.375788 0)
(10.5712 -0.398057 0)
(10.5463 -0.414747 0)
(10.6162 -0.438197 0)
(10.5884 -0.45465 0)
(10.6595 -0.477111 0)
(10.6291 -0.491751 0)
(10.7008 -0.512799 0)
(10.6677 -0.526676 0)
(10.7389 -0.548093 0)
(10.7025 -0.563464 0)
(10.7725 -0.586954 0)
(10.7318 -0.604939 0)
(10.8008 -0.629964 0)
(10.7546 -0.648662 0)
(10.8247 -0.673204 0)
(10.7742 -0.691464 0)
(10.8496 -0.715586 0)
(10.796 -0.733511 0)
(10.879 -0.758662 0)
(10.823 -0.77808 0)
(10.9126 -0.806132 0)
(10.853 -0.827074 0)
(10.9451 -0.857326 0)
(10.8797 -0.877967 0)
(10.9699 -0.907872 0)
(10.8977 -0.925346 0)
(10.9835 -0.952165 0)
(10.905 -0.964342 0)
(10.9863 -0.986558 0)
(10.9027 -0.993426 0)
(10.9808 -1.01153 0)
(10.8935 -1.01545 0)
(10.9725 -1.03307 0)
(10.884 -1.03814 0)
(10.9669 -1.05849 0)
(10.8755 -1.06458 0)
(10.9598 -1.08581 0)
(10.8592 -1.08863 0)
(10.9393 -1.10762 0)
(10.8272 -1.10539 0)
(10.8988 -1.12158 0)
(10.7777 -1.11496 0)
(10.8369 -1.12878 0)
(10.7133 -1.12351 0)
(10.7665 -1.14343 0)
(10.648 -1.14444 0)
(10.6984 -1.16355 0)
(10.5806 -1.16049 0)
(10.6262 -1.17644 0)
(10.5035 -1.16609 0)
(10.5488 -1.17612 0)
(10.4271 -1.16458 0)
(10.4691 -1.17346 0)
(10.3398 -1.16008 0)
(10.3826 -1.16871 0)
(10.2548 -1.1554 0)
(10.3066 -1.17044 0)
(10.1904 -1.1524 0)
(10.2417 -1.16046 0)
(10.1391 -1.13249 0)
(10.1796 -1.12879 0)
(10.0878 -1.08427 0)
(10.1173 -1.07758 0)
(10.0353 -1.02496 0)
(10.0486 -1.01341 0)
(9.97406 -0.968239 0)
(9.98093 -0.957846 0)
(9.91377 -0.906793 0)
(9.90449 -0.886822 0)
(9.84005 -0.823696 0)
(9.81662 -0.805756 0)
(9.75782 -0.743921 0)
(9.73393 -0.73433 0)
(9.68222 -0.678198 0)
(9.65792 -0.686553 0)
(9.62077 -0.645034 0)
(9.61011 -0.669852 0)
(9.57905 -0.632288 0)
(9.58273 -0.667861 0)
(9.549 -0.626914 0)
(9.55147 -0.668093 0)
(9.51915 -0.607757 0)
(9.51438 -0.633754 0)
(9.48381 -0.560679 0)
(9.45935 -0.581404 0)
(9.43588 -0.497268 0)
(9.39052 -0.515935 0)
(9.37221 -0.425395 0)
(9.29862 -0.439999 0)
(9.29365 -0.359671 0)
(9.2279 -0.402528 0)
(9.25886 -0.341541 0)
(9.16982 -0.373764 0)
(9.20725 -0.30201 0)
(9.08841 -0.33027 0)
(9.13053 -0.256058 0)
(8.99447 -0.289857 0)
(9.06669 -0.220549 0)
(8.92665 -0.268701 0)
(9.01899 -0.204634 0)
(8.88599 -0.259926 0)
(8.97812 -0.191711 0)
(8.85793 -0.248974 0)
(8.94142 -0.174997 0)
(8.82188 -0.23125 0)
(8.903 -0.147387 0)
(8.78144 -0.209171 0)
(8.85484 -0.113635 0)
(8.73642 -0.181879 0)
(8.78993 -0.078003 0)
(8.67839 -0.15158 0)
(8.71473 -0.04354 0)
(8.61787 -0.117308 0)
(8.62989 -0.00982013 0)
(8.5533 -0.0834501 0)
(8.53785 0.0127958 0)
(8.47922 -0.0566435 0)
(8.45465 0.0471216 0)
(8.40139 -0.0178046 0)
(8.37715 0.104389 0)
(8.33178 0.0263434 0)
(8.32162 0.132394 0)
(8.2961 0.042538 0)
(8.27532 0.160268 0)
(8.2598 0.0738607 0)
(8.23736 0.176974 0)
(8.24101 0.0871343 0)
(8.20332 0.200577 0)
(8.22947 0.115085 0)
(8.17642 0.252077 0)
(8.22426 0.157962 0)
(8.12862 0.305152 0)
(8.22907 0.210651 0)
(8.09562 0.373106 0)
(8.22276 0.260767 0)
(8.0756 0.447607 0)
(8.22009 0.328399 0)
(8.0425 0.50969 0)
(8.22637 0.384601 0)
(8.03423 0.601367 0)
(8.25133 0.442865 0)
(7.9891 0.680631 0)
(8.31174 0.511625 0)
(7.91822 0.782272 0)
(8.34847 0.595363 0)
(7.82973 0.902937 0)
(8.38564 0.670195 0)
(7.74667 1.03288 0)
(8.43647 0.747529 0)
(7.64072 1.15088 0)
(8.49339 0.818763 0)
(7.53062 1.25208 0)
(8.5262 0.885002 0)
(7.44792 1.36153 0)
(8.50552 0.957135 0)
(7.38762 1.47736 0)
(8.47774 1.04262 0)
(7.32945 1.61561 0)
(8.47115 1.15747 0)
(7.3002 1.80749 0)
(8.43914 1.28885 0)
(7.31451 2.02812 0)
(8.35739 1.44512 0)
(7.36861 2.26535 0)
(8.27183 1.63983 0)
(7.41771 2.53038 0)
(8.25154 1.90146 0)
(7.39471 2.83798 0)
(8.33189 2.20672 0)
(7.27953 3.24358 0)
(8.59527 2.55784 0)
(7.07539 3.82859 0)
(9.08633 2.83629 0)
(6.93361 4.82532 0)
(9.77829 2.89785 0)
(7.35244 6.31148 0)
(10.1131 3.04769 0)
(8.9073 7.45213 0)
(11.5625 -0.0995945 0)
(11.5782 -0.239432 0)
(11.715 -0.299441 0)
(11.7808 -0.288264 0)
(11.8684 -0.252818 0)
(11.8681 -0.208821 0)
(11.9021 -0.182575 0)
(11.8621 -0.165731 0)
(11.8792 -0.168209 0)
(11.832 -0.173572 0)
(11.8541 -0.191772 0)
(11.812 -0.206851 0)
(11.8437 -0.230541 0)
(11.8067 -0.247386 0)
(11.8459 -0.270651 0)
(11.8109 -0.28522 0)
(11.8544 -0.305961 0)
(11.8188 -0.317908 0)
(11.8653 -0.33737 0)
(11.8281 -0.348933 0)
(11.877 -0.369688 0)
(11.8368 -0.383046 0)
(11.8869 -0.406401 0)
(11.842 -0.421434 0)
(11.8921 -0.446311 0)
(11.8419 -0.461242 0)
(11.8922 -0.485747 0)
(11.8377 -0.498824 0)
(11.889 -0.522345 0)
(11.8324 -0.533641 0)
(11.8848 -0.556988 0)
(11.8276 -0.568016 0)
(11.8801 -0.593136 0)
(11.8234 -0.605484 0)
(11.8745 -0.63269 0)
(11.8189 -0.646315 0)
(11.8678 -0.675112 0)
(11.814 -0.689748 0)
(11.8615 -0.719525 0)
(11.8095 -0.735212 0)
(11.8565 -0.766205 0)
(11.8051 -0.783461 0)
(11.8514 -0.815516 0)
(11.7983 -0.833604 0)
(11.8434 -0.865593 0)
(11.786 -0.882325 0)
(11.8291 -0.912174 0)
(11.7657 -0.925164 0)
(11.8059 -0.951083 0)
(11.7355 -0.958542 0)
(11.772 -0.979976 0)
(11.6955 -0.982376 0)
(11.7299 -1.00168 0)
(11.6515 -1.00306 0)
(11.6866 -1.02381 0)
(11.6079 -1.0264 0)
(11.6408 -1.0477 0)
(11.5577 -1.04917 0)
(11.5832 -1.0684 0)
(11.4919 -1.06751 0)
(11.5105 -1.0845 0)
(11.4091 -1.07934 0)
(11.4222 -1.09216 0)
(11.3102 -1.08189 0)
(11.3216 -1.0952 0)
(11.2069 -1.08843 0)
(11.2198 -1.10859 0)
(11.0999 -1.10408 0)
(11.1036 -1.12369 0)
(10.9804 -1.11391 0)
(10.9762 -1.12923 0)
(10.8498 -1.115 0)
(10.8452 -1.1285 0)
(10.7212 -1.11176 0)
(10.7117 -1.12278 0)
(10.5877 -1.10754 0)
(10.5803 -1.12294 0)
(10.4713 -1.1141 0)
(10.4754 -1.13447 0)
(10.3786 -1.11771 0)
(10.3795 -1.12873 0)
(10.2931 -1.09945 0)
(10.2799 -1.09453 0)
(10.2087 -1.05458 0)
(10.1846 -1.04433 0)
(10.1186 -0.994473 0)
(10.093 -0.984024 0)
(10.0357 -0.939847 0)
(10.0026 -0.928714 0)
(9.95264 -0.867402 0)
(9.90092 -0.847072 0)
(9.85243 -0.780119 0)
(9.80452 -0.770719 0)
(9.75848 -0.704952 0)
(9.72269 -0.708913 0)
(9.67745 -0.644795 0)
(9.64999 -0.671298 0)
(9.61089 -0.615184 0)
(9.58412 -0.659977 0)
(9.54869 -0.607934 0)
(9.53328 -0.65912 0)
(9.49036 -0.601235 0)
(9.48444 -0.656757 0)
(9.43114 -0.579163 0)
(9.42556 -0.61492 0)
(9.3624 -0.529429 0)
(9.35174 -0.556282 0)
(9.28567 -0.460503 0)
(9.25818 -0.483944 0)
(9.18856 -0.377473 0)
(9.14685 -0.406936 0)
(9.11791 -0.332737 0)
(9.08246 -0.389275 0)
(9.06286 -0.307366 0)
(9.00285 -0.350649 0)
(8.99315 -0.254333 0)
(8.9001 -0.294639 0)
(8.89877 -0.200496 0)
(8.80516 -0.261411 0)
(8.81661 -0.176295 0)
(8.72903 -0.254224 0)
(8.75109 -0.166677 0)
(8.67488 -0.249249 0)
(8.69551 -0.157112 0)
(8.63323 -0.238247 0)
(8.64306 -0.141794 0)
(8.58375 -0.22388 0)
(8.59903 -0.114186 0)
(8.53151 -0.199633 0)
(8.55407 -0.0741108 0)
(8.4804 -0.166386 0)
(8.49659 -0.0350909 0)
(8.41525 -0.13112 0)
(8.42961 0.00474937 0)
(8.34462 -0.0977345 0)
(8.35171 0.0444645 0)
(8.26828 -0.0620366 0)
(8.25802 0.0734716 0)
(8.18723 -0.0389743 0)
(8.16376 0.106409 0)
(8.12148 -0.00653749 0)
(8.07569 0.151239 0)
(8.09605 0.0161546 0)
(8.03604 0.159064 0)
(8.08651 0.0298937 0)
(7.99971 0.196935 0)
(8.0716 0.0543998 0)
(7.96465 0.21201 0)
(8.0788 0.0606924 0)
(7.927 0.248165 0)
(8.086 0.0865867 0)
(7.88299 0.300553 0)