/*--------------------------------*- C++ -*----------------------------------*\
| =========                 |                                                 |
| \\      /  F ield         | OpenFOAM: The Open Source CFD Toolbox           |
|  \\    /   O peration     | Version:  2.4.0                                 |
|   \\  /    A nd           | Web:      www.OpenFOAM.org                      |
|    \\/     M anipulation  |                                                 |
\*---------------------------------------------------------------------------*/
FoamFile
{
    version     2.0;
    format      ascii;
    class       volScalarField;
    location    "0.76";
    object      k;
}
// * * * * * * * * * * * * * * * * * * * * * * * * * * * * * * * * * * * * * //

dimensions      [0 2 -2 0 0 0 0];

internalField   nonuniform List<scalar> 
8800
(
8.11926
10.2651
8.79253
6.82387
5.7062
4.96996
4.53013
4.14302
3.91009
3.67389
3.54493
3.36919
3.29489
3.17282
3.09989
2.99812
2.9227
2.83782
2.76629
2.56773
1.40351
4.35157
5.31792
5.2888
5.13223
4.80739
4.57447
4.28964
4.1108
3.89147
3.77063
3.58783
3.51934
3.3858
3.32109
3.22289
3.17396
3.09067
3.0106
2.97625
0.0843422
0.732751
1.55997
1.94163
2.28148
2.43883
2.5678
2.60549
2.6227
2.59713
2.5855
2.54722
2.52642
2.46783
2.456
2.41486
2.40346
2.35952
2.34336
2.30023
0.00334903
0.0699716
0.256969
0.416152
0.588276
0.709113
0.829188
0.927183
1.03663
1.0817
1.15324
1.22104
1.26881
1.28738
1.33888
1.36777
1.40005
1.41374
1.45216
1.44726
0.000122759
0.00494319
0.024545
0.0488148
0.0855409
0.13249
0.161448
0.199632
0.250339
0.283674
0.30641
0.362979
0.394659
0.421875
0.450704
0.504642
0.525036
0.567637
0.589687
0.637149
2.50716e-05
0.000308383
0.00168009
0.00358802
0.00659747
0.0140573
0.0190215
0.0244902
0.0351904
0.0436928
0.0484604
0.0631317
0.0734733
0.0860062
0.0931977
0.11048
0.118671
0.137717
0.146529
0.16504
2.16518e-05
4.33254e-05
0.000136703
0.000261249
0.000426306
0.000922071
0.00148972
0.00190615
0.00280714
0.00377302
0.00425961
0.00590732
0.00747314
0.00975376
0.0109874
0.0138483
0.0153462
0.0189977
0.0216032
0.0228904
2.10476e-05
3.00463e-05
5.25449e-05
6.29021e-05
7.69403e-05
0.000115151
0.000166945
0.000189222
0.00022348
0.000277084
0.000294066
0.000365849
0.000476224
0.000697506
0.000797799
0.000974045
0.00109489
0.00148709
0.00171633
0.00179588
2.07875e-05
2.93812e-05
4.50867e-05
5.56443e-05
5.94348e-05
6.91946e-05
7.7781e-05
8.40128e-05
8.49658e-05
8.55959e-05
8.46093e-05
8.54599e-05
9.70811e-05
0.000117918
0.000122883
0.000122904
0.000129256
0.000173683
0.000189548
0.000191418
2.05944e-05
2.8816e-05
4.35418e-05
5.25572e-05
5.48344e-05
6.23397e-05
6.99288e-05
7.27527e-05
7.35201e-05
7.42871e-05
7.32238e-05
7.0117e-05
7.09452e-05
7.82038e-05
8.69985e-05
8.60065e-05
8.62702e-05
9.19343e-05
9.59852e-05
0.000105855
2.06005e-05
2.86173e-05
3.64613e-05
5.59649e-05
6.38261e-05
6.51192e-05
6.79419e-05
6.84341e-05
7.02235e-05
7.25723e-05
7.16876e-05
6.9624e-05
7.04111e-05
8.23646e-05
8.66362e-05
8.57573e-05
8.40429e-05
8.77274e-05
9.52573e-05
0.000100994
2.08092e-05
2.75171e-05
4.02672e-05
7.01448e-05
7.08523e-05
6.77041e-05
6.72301e-05
7.2606e-05
8.4137e-05
8.9748e-05
9.03845e-05
9.16176e-05
0.000100012
0.000117016
0.00011798
0.000121354
0.000131229
0.000163028
0.000187334
0.000224696
2.10787e-05
2.92042e-05
4.94595e-05
8.29648e-05
8.84569e-05
0.000104123
0.000125045
0.000179581
0.000209643
0.000292936
0.000341709
0.00044475
0.000520194
0.000721341
0.000802482
0.00101432
0.00122301
0.00170193
0.0022027
0.00274119
2.164e-05
4.33416e-05
0.000119444
0.00035032
0.000506606
0.000868575
0.00119012
0.00200459
0.00253917
0.00398021
0.00479473
0.00652537
0.00755726
0.0100997
0.0112357
0.0141061
0.0162128
0.0213469
0.0247347
0.0321366
2.49776e-05
0.000308482
0.0014439
0.00471177
0.00721037
0.0126148
0.0169239
0.0267794
0.0323212
0.0454907
0.0519671
0.0652438
0.0721362
0.0882506
0.0951572
0.11232
0.122895
0.148198
0.162538
0.198119
0.000123089
0.00493441
0.0218683
0.0566669
0.0846077
0.124119
0.158802
0.210565
0.236786
0.292216
0.317258
0.362979
0.386065
0.43703
0.457307
0.507121
0.534063
0.598956
0.629597
0.703167
0.00335905
0.0696036
0.26115
0.418443
0.584688
0.700386
0.836035
0.931227
1.01918
1.10368
1.16258
1.21321
1.25893
1.31375
1.3354
1.38495
1.40963
1.46712
1.48848
1.53684
0.0845095
0.727866
1.56903
1.93773
2.28183
2.42873
2.58281
2.59616
2.62701
2.60233
2.59028
2.53978
2.52612
2.47751
2.46285
2.42169
2.41329
2.38613
2.37322
2.34137
1.40566
4.35035
5.32232
5.28631
5.13245
4.79782
4.5889
4.27383
4.13484
3.86777
3.77684
3.57957
3.51967
3.36056
3.32584
3.19623
3.16194
3.03763
2.9936
2.88559
8.12105
10.2648
8.79669
6.8145
5.71564
4.95952
4.53846
4.12904
3.92979
3.64473
3.55135
3.34697
3.29648
3.12088
3.09054
2.92408
2.88158
2.69274
2.62049
2.4024
1.80787
1.34698
1.07865
0.922012
0.822259
0.76515
0.71833
0.689276
0.658107
0.641324
0.620178
0.611701
0.597672
0.591634
0.580068
0.573799
0.561525
0.553831
0.53832
0.528714
0.514793
0.507201
0.494956
0.488613
0.477515
0.471715
0.462133
0.456441
0.448132
0.442694
0.436121
0.431221
0.42618
0.422157
0.419224
0.416565
0.414636
0.412599
0.411941
0.412488
0.413246
0.415268
0.418458
0.423299
0.42712
0.431588
0.437531
0.44544
0.45378
0.459366
0.459676
0.458333
0.451753
0.43417
0.405526
0.350413
0.286079
0.237031
0.201004
0.178524
0.162282
0.14931
0.139155
0.132576
0.130936
0.132239
0.13702
0.144586
0.161415
0.177678
0.1911
0.222639
0.237689
0.253144
0.272657
0.281746
0.285475
0.284548
0.278264
0.273665
0.266549
0.252432
0.231922
0.208119
0.188673
0.170285
0.152908
0.133307
0.118417
0.114173
0.114252
0.116433
0.126761
0.143014
0.163526
0.18881
0.206527
0.21022
0.209918
0.207073
0.198756
0.18856
0.173382
0.154075
0.129782
0.102639
0.069028
0.0438582
0.0270366
0.0171539
0.0115919
0.00884982
0.00799534
0.00808399
0.00875007
0.0106612
0.0140036
0.0225934
0.0298104
0.0370637
0.0476745
0.0511463
0.0551718
0.0563311
0.0557774
0.053195
0.0515062
0.0468152
0.0419848
0.0405986
0.0370525
0.0360918
0.0355465
0.034817
0.0342542
0.0377024
0.0474016
0.0503351
0.0463209
0.0380095
0.0344477
0.0352692
0.0388587
0.0449404
0.0669611
0.152138
0.226604
0.253588
0.247035
0.20554
0.166366
0.149716
0.143569
0.147
0.149213
0.135919
0.0900973
0.06932
0.0637212
0.066633
0.0839943
0.108583
0.117711
0.123017
0.136148
0.188776
0.22436
0.223109
0.170338
0.109952
0.0837421
0.0683924
0.0638564
0.069104
0.0712531
0.0773118
0.134527
0.119371
0.192338
0.147977
0.201344
0.1591
0.181244
0.149156
0.150946
0.13195
0.137185
0.122059
0.12999
0.113288
0.121944
0.105811
0.113745
0.0980228
0.104953
0.0893954
0.0916379
0.0924244
0.110561
0.40002
2.51897
2.05947
1.72643
1.48954
1.31537
1.18901
1.08808
1.01644
0.951224
0.906109
0.861021
0.829185
0.798412
0.772318
0.751475
0.729525
0.714309
0.697122
0.68302
0.671221
0.656463
0.648637
0.634875
0.628736
0.617144
0.609573
0.600761
0.59206
0.585333
0.575899
0.570375
0.561097
0.556286
0.547578
0.542427
0.535246
0.529597
0.523588
0.517425
0.512138
0.506145
0.500796
0.496103
0.491447
0.487968
0.486974
0.484625
0.485274
0.486559
0.487989
0.492971
0.495266
0.502293
0.502296
0.499541
0.49217
0.473961
0.455951
0.42017
0.385903
0.362545
0.335395
0.320908
0.309127
0.302179
0.302616
0.304365
0.309302
0.311675
0.318381
0.322373
0.323935
0.32536
0.322868
0.320994
0.317365
0.305976
0.296684
0.283682
0.260292
0.239803
0.204447
0.171162
0.139293
0.107916
0.0812244
0.0633594
0.0524057
0.0445683
0.039267
0.0376558
0.0378354
0.0391829
0.042461
0.049942
0.0630917
0.0697524
0.0772959
0.0835666
0.0833238
0.0803274
0.0748136
0.0648943
0.0514936
0.0402978
0.0292557
0.0207286
0.0145433
0.0102428
0.00801049
0.00698324
0.00706027
0.0075501
0.00925415
0.0144577
0.0233037
0.0361934
0.0566212
0.0716592
0.0855135
0.0969276
0.102823
0.102571
0.100926
0.0969431
0.0884888
0.0853758
0.0775033
0.0689888
0.0592812
0.0516039
0.0488016
0.0479104
0.0446487
0.0424854
0.0426899
0.0501613
0.051401
0.048771
0.0368442
0.0328255
0.0318484
0.0363463
0.0529779
0.152605
0.224461
0.254156
0.258865
0.240383
0.192791
0.160539
0.152392
0.15879
0.180561
0.188734
0.17222
0.113893
0.0795089
0.0695961
0.0694416
0.0791473
0.099436
0.114263
0.118164
0.127533
0.185356
0.217631
0.213571
0.168972
0.110857
0.0778693
0.0711899
0.0668149
0.0690918
0.0993453
0.09188
0.139488
0.127594
0.139741
0.126631
0.0936009
0.094259
0.0887996
0.0999391
0.102517
0.109917
0.110139
0.111247
0.118452
0.118124
0.132053
0.129807
0.140094
0.131997
0.133928
0.129791
0.126407
0.116098
0.112943
0.169226
2.05331
1.79834
1.59181
1.42796
1.29487
1.19142
1.09635
1.02803
0.958239
0.910539
0.863135
0.824048
0.796119
0.759526
0.742143
0.712021
0.693096
0.67723
0.652023
0.643482
0.624562
0.614662
0.602344
0.590402
0.585616
0.571793
0.566316
0.558251
0.54905
0.543824
0.532725
0.527208
0.519959
0.510959
0.50633
0.49905
0.490939
0.487427
0.478555
0.472853
0.466237
0.458991
0.452517
0.447722
0.439793
0.437858
0.434311
0.430656
0.432072
0.432093
0.434751
0.437794
0.44397
0.451476
0.453489
0.460461
0.459503
0.456111
0.451008
0.43623
0.430289
0.419549
0.408086
0.402847
0.388661
0.381892
0.372133
0.364747
0.358731
0.35061
0.345023
0.334706
0.327839
0.3178
0.302576
0.28861
0.265212
0.242023
0.214082
0.173736
0.138657
0.104326
0.0723545
0.0520215
0.0373439
0.028216
0.0221195
0.0177259
0.0153339
0.0133078
0.0120967
0.0119387
0.0120651
0.0127835
0.0135912
0.0165304
0.0188243
0.0206466
0.0227076
0.0228082
0.0223758
0.0210852
0.019235
0.0161306
0.0138062
0.0108476
0.00868078
0.00695293
0.00613159
0.00611992
0.00643421
0.00776926
0.0114983
0.0201879
0.0391239
0.0649616
0.0936889
0.125511
0.14627
0.161801
0.168957
0.167975
0.16362
0.157243
0.142659
0.128731
0.11531
0.108088
0.104813
0.0987921
0.0810992
0.0660864
0.0623856
0.0521954
0.0487887
0.0480849
0.0520852
0.0518185
0.0468553
0.033858
0.0298952
0.0317843
0.0490497
0.136208
0.227728
0.24201
0.262037
0.259796
0.237866
0.20398
0.190202
0.191084
0.210018
0.212098
0.207154
0.178277
0.120198
0.0851293
0.0730134
0.0719347
0.080137
0.0931665
0.107178
0.112414
0.120716
0.171882
0.209214
0.204333
0.165408
0.115749
0.078146
0.0712495
0.0790536
0.0741593
0.100303
0.0956931
0.117058
0.116222
0.096994
0.081911
0.0635849
0.0620956
0.0582587
0.063005
0.0657535
0.0778645
0.0809854
0.0907292
0.101289
0.111672
0.119574
0.124081
0.133802
0.133039
0.131946
0.131771
0.129631
0.129538
0.124221
0.135775
1.34113
1.2227
1.10872
1.02654
0.955052
0.893123
0.836073
0.784695
0.738742
0.696509
0.663627
0.629975
0.608335
0.583125
0.564619
0.548007
0.526476
0.51706
0.495182
0.485286
0.470878
0.456407
0.450018
0.433986
0.428173
0.418329
0.410828
0.405936
0.396206
0.392577
0.386535
0.379011
0.374275
0.367222
0.358888
0.355392
0.34627
0.34008
0.335947
0.325474
0.321231
0.314265
0.306419
0.303432
0.295232
0.290939
0.289586
0.284625
0.285597
0.2855
0.286587
0.291701
0.294514
0.302845
0.309291
0.315224
0.329838
0.3331
0.339076
0.339122
0.337749
0.334504
0.3289
0.319169
0.313148
0.302698
0.292321
0.282943
0.270446
0.256093
0.240896
0.227863
0.207541
0.190112
0.168645
0.146161
0.123234
0.0970184
0.0752684
0.0562588
0.0418337
0.0308544
0.0222389
0.0167694
0.0127167
0.0099745
0.00824661
0.00669495
0.00583875
0.0052441
0.00464405
0.00423609
0.00412005
0.00413696
0.00423895
0.00442606
0.00507543
0.00568398
0.00623557
0.00708887
0.00723611
0.00731791
0.00714578
0.00681258
0.00612733
0.00557904
0.00507958
0.00515693
0.00540909
0.00628083
0.00902574
0.0161353
0.0308363
0.063946
0.106139
0.156048
0.193827
0.213443
0.217692
0.216266
0.212535
0.206054
0.201349
0.192257
0.179259
0.17174
0.151327
0.12562
0.120294
0.122155
0.119505
0.107184
0.0801469
0.0620001
0.0512825
0.0493191
0.0491871
0.0465761
0.0335971
0.0286747
0.0277142
0.0378814
0.108873
0.219226
0.240106
0.248836
0.262265
0.265115
0.268929
0.261552
0.257932
0.252171
0.240067
0.22495
0.20871
0.166626
0.116351
0.0846016
0.0749259
0.071552
0.0781533
0.091923
0.102354
0.108152
0.115381
0.160314
0.19981
0.196691
0.162184
0.116897
0.0864834
0.074813
0.0807669
0.0756469
0.0871795
0.092551
0.0920564
0.0900754
0.0780737
0.0705903
0.0640604
0.0662857
0.071217
0.0808261
0.0857828
0.0923796
0.098795
0.107163
0.114022
0.127233
0.123982
0.134368
0.129814
0.13816
0.132116
0.138079
0.133189
0.139012
0.134006
0.137507
0.604085
0.566879
0.523631
0.484049
0.471761
0.441661
0.427204
0.404587
0.383642
0.369941
0.343862
0.334109
0.318689
0.305988
0.299592
0.287062
0.282051
0.274497
0.264925
0.260723
0.251495
0.244017
0.240953
0.230895
0.22682
0.22127
0.213984
0.211848
0.204698
0.201906
0.198647
0.194066
0.192642
0.188268
0.18361
0.181235
0.174772
0.170699
0.166813
0.159036
0.156262
0.150841
0.145532
0.143367
0.137446
0.13515
0.1335
0.130474
0.13071
0.131122
0.131469
0.133747
0.135304
0.13723
0.1429
0.145269
0.150181
0.155152
0.157995
0.162933
0.16269
0.161243
0.158669
0.152231
0.146127
0.138685
0.127468
0.117545
0.106963
0.0958139
0.0849825
0.0753722
0.0652295
0.0562487
0.0477101
0.0396416
0.0324444
0.0258218
0.0202653
0.0156919
0.0119637
0.0092609
0.00714821
0.0057281
0.00468477
0.00388084
0.00338724
0.00297259
0.00269494
0.00254516
0.00243152
0.00232995
0.00225028
0.00223265
0.00223564
0.0022634
0.00236123
0.00248491
0.00273132
0.00306262
0.00339062
0.00358886
0.0037304
0.00379925
0.00390705
0.00412986
0.00441665
0.00513096
0.00703886
0.0117988
0.0230853
0.0501491
0.0936382
0.169056
0.22255
0.245523
0.248474
0.245647
0.237534
0.228957
0.221259
0.214263
0.210041
0.205105
0.194316
0.187442
0.178701
0.151422
0.137012
0.13291
0.130146
0.125331
0.108344
0.0812113
0.0575742
0.050155
0.0419848
0.0381475
0.0287657
0.02858
0.0322876
0.0691662
0.190722
0.242782
0.239562
0.25536
0.26789
0.297381
0.287247
0.269659
0.271695
0.262821
0.239872
0.215237
0.175546
0.133292
0.104361
0.0800112
0.0743827
0.0723194
0.0745108
0.0873933
0.0977233
0.101628
0.109414
0.153212
0.187966
0.188006
0.158334
0.117624
0.0957426
0.0776308
0.0780789
0.0744858
0.07431
0.0782097
0.0742445
0.0727809
0.0649789
0.0665999
0.0641366
0.075735
0.0786378
0.100251
0.102907
0.119762
0.118509
0.127387
0.119181
0.128817
0.115924
0.125796
0.114894
0.124953
0.117555
0.125764
0.121888
0.128472
0.126253
0.129619
0.158313
0.150902
0.144382
0.135288
0.13454
0.13066
0.128928
0.124123
0.119225
0.117604
0.109122
0.10609
0.102024
0.0990059
0.0977211
0.0932143
0.0924424
0.0914634
0.0886012
0.0873698
0.0842706
0.082329
0.0809201
0.0773159
0.0762551
0.0751853
0.0721506
0.0713864
0.0685605
0.0673451
0.0661668
0.0641112
0.0638538
0.0627002
0.061384
0.0607264
0.0586758
0.0575262
0.0557991
0.0527582
0.051731
0.0493076
0.0472395
0.0461076
0.0434796
0.042788
0.0416074
0.0407125
0.0406806
0.0408432
0.0411657
0.0421513
0.0433651
0.0439948
0.0459975
0.0467604
0.047851
0.0501245
0.0502962
0.0519358
0.0524561
0.0521314
0.0513835
0.0494319
0.0462328
0.0437954
0.039183
0.0351099
0.0312373
0.0268863
0.0232632
0.0199034
0.0167232
0.0141015
0.0117324
0.00962234
0.00794675
0.00642574
0.005193
0.00429728
0.0034812
0.00295581
0.00253415
0.00223402
0.00205618
0.00192317
0.00192096
0.00196493
0.00200162
0.00205878
0.00211609
0.00212258
0.00211124
0.0020846
0.00201631
0.0019073
0.00189065
0.00190173
0.00198911
0.00208905
0.0023268
0.00249378
0.0028626
0.00314137
0.00362506
0.00430237
0.0057804
0.0089636
0.0165468
0.032849
0.0701946
0.147678
0.231127
0.268201
0.275517
0.270532
0.261362
0.250797
0.237334
0.225805
0.218465
0.213943
0.211517
0.208927
0.200303
0.192955
0.187306
0.167975
0.147772
0.143689
0.144949
0.143474
0.129985
0.0903606
0.0602384
0.0472329
0.040857
0.0335054
0.031667
0.0340489
0.0473976
0.157043
0.229786
0.249086
0.234303
0.256112
0.288967
0.302451
0.270977
0.253926
0.251574
0.234351
0.186521
0.137574
0.11901
0.0965279
0.080865
0.0742976
0.0702658
0.0712061
0.0749712
0.0853068
0.0927308
0.0969975
0.106352
0.147383
0.17563
0.176312
0.154357
0.117852
0.0961246
0.0792116
0.0718041
0.0698331
0.0668623
0.0688637
0.0652795
0.0641776
0.0594156
0.0630522
0.0621428
0.0705472
0.0730993
0.0897376
0.0911532
0.102499
0.0955984
0.0996822
0.087714
0.0888947
0.0793277
0.0807477
0.0779409
0.0837735
0.0835039
0.0871467
0.0872667
0.091124
0.091168
0.0937097
0.0219956
0.0218063
0.0219679
0.0219832
0.022415
0.02205
0.0220561
0.0216202
0.0208591
0.0206944
0.019369
0.0192743
0.0189818
0.0189022
0.0190035
0.0187161
0.0187297
0.0185736
0.0179838
0.0177688
0.0170226
0.0166029
0.0163131
0.0156562
0.015536
0.0153842
0.0149274
0.0148401
0.0142382
0.0139767
0.0138124
0.0134692
0.013498
0.013347
0.01322
0.0132092
0.0130135
0.012947
0.012865
0.0125134
0.0123653
0.0119531
0.0114544
0.0111158
0.0102741
0.0100337
0.00960145
0.0091865
0.00908829
0.00909267
0.00917412
0.00945662
0.0101041
0.0103781
0.0110578
0.0114326
0.0116262
0.0122289
0.0123297
0.0123968
0.0128898
0.0129845
0.0129336
0.012724
0.0121742
0.0113986
0.0101185
0.00869108
0.00743244
0.006127
0.00504044
0.00415082
0.00337582
0.00280923
0.00236003
0.00199183
0.00174055
0.00156593
0.00142864
0.00138894
0.0013412
0.00135028
0.00138904
0.00143237
0.00149244
0.00157297
0.00174875
0.00193071
0.00205305
0.00214672
0.00228134
0.00232779
0.00232613
0.00230294
0.00228128
0.00221232
0.00205196
0.00202209
0.00204342
0.00215147
0.00229806
0.00264803
0.00308697
0.00406117
0.00551281
0.00788661
0.0124983
0.0225985
0.046693
0.0952799
0.209844
0.275503
0.298455
0.296243
0.288051
0.268007
0.251615
0.236948
0.222985
0.214516
0.207332
0.205222
0.205032
0.204565
0.20007
0.194843
0.190302
0.180164
0.154988
0.148301
0.149609
0.149969
0.139343
0.0954143
0.0599714
0.0465289
0.0406692
0.0346525
0.034917
0.0414523
0.086011
0.226265
0.245789
0.235566
0.226595
0.253765
0.29124
0.274665
0.239583
0.222033
0.208974
0.167792
0.13196
0.0960174
0.0747772
0.0722384
0.0663415
0.0675023
0.0666817
0.0674963
0.0733181
0.0841905
0.0897443
0.0947254
0.106483
0.144673
0.161057
0.171988
0.152995
0.119046
0.0963281
0.0816007
0.0718274
0.069597
0.0642167
0.0632505
0.0592721
0.0591625
0.0564299
0.0566705
0.0562934
0.0575776
0.0597701
0.0695416
0.0695372
0.0736137
0.0719289
0.0736819
0.0704117
0.0707591
0.0686381
0.0669241
0.0660603
0.0696067
0.0737682
0.0770191
0.0780035
0.0784571
0.0777761
0.0762766
0.00178781
0.00174078
0.00170976
0.00170062
0.00174757
0.00170623
0.00170053
0.00165418
0.00163995
0.00172069
0.00180646
0.00199333
0.00205038
0.00207374
0.00209747
0.00206236
0.00204393
0.00197055
0.00187563
0.00184445
0.0017432
0.00170298
0.00165548
0.00158969
0.00157184
0.00152454
0.00148367
0.00146336
0.00141509
0.00140621
0.00139588
0.00138873
0.00139528
0.00144257
0.00149216
0.00160944
0.00166961
0.00172215
0.00176194
0.00175993
0.00176093
0.0017109
0.00160386
0.00150456
0.00135402
0.00127922
0.00117724
0.00111093
0.00108853
0.0010832
0.00109597
0.00114193
0.00127315
0.00141952
0.00157201
0.00170708
0.00181651
0.00193909
0.00197533
0.00198586
0.00212792
0.00231569
0.00234287
0.00233366
0.00228036
0.00212905
0.0018063
0.00144883
0.00117056
0.000947221
0.000779821
0.000662785
0.000576403
0.000551562
0.000564403
0.000603278
0.000649297
0.00075393
0.000819403
0.000958806
0.00107814
0.00119506
0.00143102
0.00166441
0.00190159
0.0023655
0.00282137
0.00313067
0.00339453
0.00367754
0.00391778
0.00398926
0.00397849
0.00392735
0.0038959
0.00379606
0.00350914
0.00341032
0.0034619
0.00361901
0.00404028
0.00475724
0.00621626
0.00867833
0.0118399
0.017745
0.0304528
0.0620686
0.138179
0.25836
0.311402
0.320674
0.31434
0.298448
0.263193
0.246575
0.240171
0.231921
0.221067
0.214054
0.208709
0.203933
0.203601
0.201776
0.195247
0.191792
0.189491
0.183986
0.161388
0.151481
0.152551
0.152195
0.1397
0.0926282
0.058956
0.0456107
0.0379761
0.0354828
0.0376426
0.0509756
0.153629
0.249504
0.244302
0.215865
0.217996
0.249901
0.24954
0.254764
0.23861
0.221868
0.211893
0.162542
0.130408
0.0913109
0.0662433
0.0596925
0.0599791
0.0610472
0.063199
0.0671944
0.0715902
0.0838114
0.0861718
0.0891308
0.109018
0.146466
0.151338
0.165172
0.150577
0.120428
0.0989121
0.0853385
0.0738302
0.0700817
0.0622508
0.0604051
0.0560632
0.0552033
0.0526774
0.0518846
0.0523368
0.0526751
0.0533751
0.0583157
0.0584712
0.0589451
0.0589625
0.0608062
0.0600276
0.0603139
0.0596727
0.0596977
0.060137
0.0629922
0.0693796
0.0747124
0.0764993
0.076206
0.0742848
0.0712418
0.000183417
0.000187074
0.000197047
0.000204484
0.000202181
0.000186781
0.000180084
0.000193641
0.000233944
0.000267896
0.000277398
0.000276559
0.000271316
0.000257109
0.000253414
0.000241876
0.000237629
0.000231838
0.000227069
0.000223199
0.000213246
0.000210006
0.000203093
0.000196189
0.000191996
0.000186352
0.000185088
0.000185043
0.000187266
0.000195189
0.000211499
0.000226137
0.000238819
0.000255145
0.00026062
0.000266264
0.000267318
0.000266625
0.000264381
0.000258855
0.000253488
0.000244071
0.00023368
0.000223737
0.000211126
0.000203913
0.000194194
0.000188094
0.00018483
0.000180674
0.000180033
0.000183667
0.000208473
0.000268119
0.000319737
0.000357658
0.00040201
0.000422641
0.000433945
0.000436515
0.000437725
0.000449758
0.000453476
0.00045018
0.000441418
0.000427253
0.000386417
0.000351522
0.000322067
0.000316131
0.000318599
0.000331785
0.000363238
0.000398231
0.000511668
0.00060864
0.000760236
0.000996821
0.00118539
0.00165957
0.00205252
0.00276735
0.00370326
0.00451341
0.00560313
0.0069247
0.00786893
0.00851963
0.0092319
0.0095901
0.00958865
0.009494
0.00917624
0.00886766
0.0083631
0.00769426
0.00717661
0.00711511
0.00724527
0.00769605
0.00864972
0.0106043
0.0140557
0.0179063
0.0253848
0.0410395
0.0804939
0.187868
0.29678
0.3372
0.338462
0.327573
0.290736
0.26011
0.248747
0.243552
0.243041
0.241408
0.236277
0.230535
0.224881
0.210403
0.204128
0.196076
0.190745
0.18744
0.186106
0.18236
0.162651
0.151816
0.153431
0.151437
0.135885
0.0842397
0.0556484
0.0446612
0.0395415
0.0396643
0.04533
0.0719099
0.214815
0.25452
0.218147
0.191975
0.209445
0.214238
0.22935
0.265785
0.263364
0.26073
0.259438
0.201847
0.163911
0.100341
0.066576
0.0557282
0.0558283
0.0576453
0.0603271
0.0666555
0.0707972
0.083376
0.0847651
0.0860419
0.106804
0.153722
0.150183
0.15827
0.150061
0.122398
0.106345
0.0904297
0.077962
0.071799
0.0626152
0.0601904
0.0556795
0.0535385
0.0529375
0.0507864
0.0491264
0.0487208
0.0488098
0.0510441
0.0535364
0.0536396
0.0534567
0.0533636
0.0533384
0.0565513
0.0591781
0.0602964
0.0599243
0.0600392
0.0609881
0.065908
0.0683347
0.0691096
0.0687551
0.0659978
0.00011037
0.000111537
0.0001115
0.000110364
0.000120246
0.000138937
0.000145298
0.000145053
0.000134788
0.000128053
0.000125122
0.000124802
0.000121775
0.000119723
0.00011899
0.000119006
0.000118937
0.000119613
0.000121583
0.000124097
0.00012528
0.000126495
0.000125407
0.000124279
0.000122685
0.000122594
0.000123034
0.000128328
0.000130949
0.000135214
0.000136476
0.000136741
0.000137274
0.000136631
0.000135929
0.000135468
0.000135385
0.000136001
0.000137417
0.000137782
0.000138742
0.00013885
0.000139117
0.000139282
0.000140133
0.000143332
0.000145888
0.000147462
0.000151957
0.000157601
0.000164293
0.000169108
0.000171494
0.000174761
0.000174861
0.000173224
0.000173728
0.000172471
0.000172734
0.000185727
0.00021029
0.000232121
0.000252795
0.000264281
0.000275975
0.000286989
0.000306616
0.000341752
0.000375498
0.000463895
0.000555909
0.000736586
0.000926678
0.00111944
0.00158819
0.00192278
0.00254679
0.00346376
0.00421303
0.00584652
0.00766926
0.00982731
0.0122944
0.0146946
0.0175452
0.0198162
0.0215317
0.0229398
0.0231026
0.0228805
0.0222471
0.0211689
0.0197117
0.0183731
0.0169996
0.0155151
0.0148134
0.0148604
0.015276
0.0163867
0.0186881
0.0231307
0.0281935
0.0373418
0.0576596
0.105367
0.242177
0.330934
0.354537
0.350481
0.326117
0.275588
0.254761
0.247312
0.246441
0.246687
0.248265
0.247085
0.241877
0.236877
0.229406
0.219877
0.20006
0.181256
0.178989
0.180561
0.182209
0.180042
0.160648
0.150937
0.151595
0.14736
0.121038
0.0763852
0.0551439
0.0462614
0.042994
0.0441066
0.0513614
0.117248
0.241057
0.244982
0.195929
0.185696
0.202018
0.210313
0.238754
0.3212
0.30014
0.30978
0.289997
0.242103
0.208526
0.106833
0.0810107
0.0560739
0.0549722
0.0578708
0.0609215
0.0674274
0.0709994
0.0773125
0.0859568
0.0862143
0.102056
0.163164
0.152341
0.151591
0.152827
0.128192
0.11108
0.0958519
0.0839658
0.0745951
0.0643709
0.0604332
0.056531
0.0539237
0.053128
0.0504404
0.0477399
0.0474214
0.0480502
0.0496562
0.0502183
0.0497076
0.0501961
0.0539364
0.0561025
0.056562
0.0572852
0.0591095
0.0594178
0.0596025
0.0598371
0.0634866
0.0656299
0.0664884
0.0662852
0.0654442
0.000105434
0.000115693
0.000124909
0.00012808
0.000125497
0.000122558
0.000124823
0.000132756
0.000138628
0.000137649
0.000131853
0.000125868
0.000121889
0.000120362
0.000118876
0.000120947
0.000130684
0.000146458
0.00016083
0.000161675
0.000163073
0.000159694
0.000156228
0.000154927
0.000152925
0.000153778
0.000153873
0.000154993
0.000160844
0.000166527
0.000184831
0.000195417
0.000204544
0.000212556
0.000213115
0.000214246
0.000214382
0.00021303
0.000213949
0.000213411
0.000214442
0.000220305
0.000222812
0.00022756
0.000242623
0.000281068
0.000327469
0.000354846
0.000371645
0.000375523
0.000370757
0.000343916
0.000309388
0.000279675
0.000259542
0.000249603
0.000245928
0.00024646
0.000261835
0.000293123
0.000338142
0.000415729
0.00046839
0.000565016
0.000678629
0.000770989
0.000992605
0.00121978
0.00142335
0.00191518
0.00226382
0.00297618
0.00369371
0.0045467
0.00627109
0.00743319
0.00991782
0.0129134
0.0154306
0.0206085
0.0256359
0.0306436
0.0369243
0.0425614
0.04699
0.0515834
0.0538091
0.0537467
0.0529629
0.0510631
0.0474913
0.0442306
0.0400354
0.0367438
0.0339763
0.031047
0.0301869
0.0304465
0.0315177
0.0339393
0.0386703
0.0458373
0.0569985
0.0813804
0.140895
0.290729
0.361444
0.368627
0.355764
0.30651
0.267015
0.248349
0.243943
0.24229
0.238016
0.237558
0.237377
0.237182
0.236228
0.23221
0.217761
0.209608
0.197458
0.184771
0.17576
0.175229
0.177848
0.174926
0.156795
0.152254
0.153013
0.145748
0.108604
0.0729617
0.0617529
0.0533812
0.0461024
0.0468509
0.0560048
0.150938
0.243375
0.235865
0.19052
0.187571
0.202884
0.220417
0.290634
0.340803
0.321431
0.328871
0.29481
0.247928
0.217968
0.111684
0.120678
0.0652803
0.0610331
0.0591245
0.0614795
0.0671654
0.0736085
0.0746097
0.0864777
0.0926859
0.103784
0.160057
0.159055
0.149542
0.156301
0.141302
0.1166
0.101527
0.090117
0.079097
0.0685045
0.0626591
0.059657
0.0560242
0.0532425
0.0509188
0.0484583
0.047582
0.0473421
0.0474317
0.0477498
0.0479801
0.050908
0.0533668
0.0558805
0.0568937
0.0593573
0.060018
0.0600353
0.059604
0.0595245
0.0621601
0.0660045
0.0685987
0.0685807
0.068678
0.000243485
0.00025109
0.000263274
0.000303867
0.000409259
0.000476971
0.000518434
0.000522324
0.000512181
0.000450575
0.00040894
0.000370105
0.000345371
0.000345903
0.000359228
0.000491189
0.000602206
0.000692056
0.00074116
0.000734281
0.00073503
0.000706062
0.000670273
0.000661889
0.000645349
0.000667136
0.00071371
0.000771837
0.000907943
0.000967447
0.00109949
0.00119419
0.00124317
0.00130581
0.00130995
0.00131332
0.00132152
0.00130627
0.0013124
0.0013078
0.00130392
0.00131962
0.00131884
0.00133284
0.00138641
0.00148897
0.00172258
0.00187305
0.00198392
0.00204458
0.00205251
0.0020419
0.00197339
0.0018029
0.00161334
0.00149081
0.00139587
0.00138173
0.0014111
0.00152594
0.00179775
0.00230116
0.00259769
0.00307868
0.00363737
0.00402057
0.00490398
0.00564148
0.00653959
0.00811147
0.00922508
0.0117245
0.0141167
0.0170818
0.0223561
0.0259692
0.0337951
0.041256
0.0495193
0.0625866
0.07279
0.0858757
0.0989479
0.107206
0.117067
0.122636
0.122578
0.120941
0.117267
0.109653
0.100366
0.0922236
0.0817612
0.073832
0.0688202
0.0632554
0.0612385
0.0617561
0.0635417
0.0674038
0.0753909
0.0886072
0.115811
0.189361
0.335144
0.38672
0.383611
0.350124
0.283417
0.258435
0.245114
0.230577
0.218981
0.212561
0.212533
0.221157
0.227306
0.223099
0.225931
0.232024
0.226299
0.207444
0.193346
0.185073
0.176894
0.175963
0.176608
0.165582
0.157148
0.158573
0.155903
0.131627
0.0935512
0.0734244
0.0651796
0.0537786
0.0452462
0.0452563
0.0614238
0.172259
0.238724
0.227101
0.206236
0.209991
0.229187
0.245538
0.311343
0.306478
0.33771
0.338884
0.295214
0.260794
0.219936
0.166947
0.145697
0.074258
0.0769371
0.0632967
0.0729795
0.0679702
0.0841265
0.0749118
0.083893
0.124789
0.111591
0.136617
0.163645
0.150134
0.153831
0.143794
0.126955
0.11129
0.101066
0.090035
0.077701
0.0697636
0.0669091
0.0614906
0.0551731
0.0529469
0.0509496
0.0500539
0.0496529
0.049799
0.0501039
0.0517159
0.0565794
0.0599834
0.062052
0.0621772
0.0622146
0.0612898
0.0605711
0.0603109
0.0610412
0.0665745
0.0710535
0.0736158
0.073797
0.0734692
0.00279387
0.00288619
0.00322945
0.00375812
0.00426003
0.00450508
0.00471805
0.00473488
0.00466094
0.00436894
0.00422835
0.0041725
0.00415795
0.00428411
0.00445207
0.00498056
0.0054133
0.00580706
0.00614721
0.00617679
0.00623195
0.00621258
0.00618738
0.00623788
0.00624936
0.00637961
0.0066318
0.0067781
0.0072869
0.0075421
0.00790111
0.0083472
0.00848992
0.00886351
0.00903283
0.0090985
0.0092451
0.00920002
0.0092166
0.00921317
0.0091006
0.00910665
0.00903948
0.0090083
0.00908295
0.00923111
0.0097988
0.0102684
0.0104851
0.010638
0.0106496
0.0105701
0.0104091
0.00994847
0.00940718
0.00920144
0.00908769
0.00910784
0.00935331
0.00990501
0.0107221
0.0122605
0.0131173
0.0145221
0.0162627
0.0174152
0.0201213
0.0221727
0.0252542
0.0295653
0.0330022
0.0407136
0.0471236
0.0559488
0.0686353
0.0804838
0.0980864
0.116158
0.137476
0.162113
0.184789
0.209439
0.227572
0.243005
0.255795
0.257131
0.254339
0.24702
0.236284
0.217011
0.202561
0.18567
0.164878
0.151859
0.141637
0.129227
0.123518
0.122785
0.123888
0.129592
0.142496
0.168645
0.251033
0.382311
0.413311
0.398627
0.328065
0.262864
0.241992
0.228253
0.206661
0.1876
0.18614
0.192569
0.197177
0.208938
0.220099
0.214455
0.212673
0.217454
0.219162
0.205238
0.190605
0.181988
0.175518
0.174008
0.16496
0.157207
0.159437
0.16206
0.145769
0.108849
0.0878496
0.0737173
0.0634078
0.047736
0.0401964
0.0414704
0.0625326
0.172319
0.2287
0.231339
0.228657
0.235173
0.28216
0.302193
0.281906
0.28648
0.365712
0.349712
0.315184
0.291308
0.25445
0.186821
0.156764
0.0856547
0.0829101
0.0709206
0.0775022
0.0705651
0.0851563
0.0778005
0.0816145
0.141979
0.133749
0.135229
0.169054
0.153154
0.150121
0.141275
0.132596
0.125047
0.114227
0.100979
0.0878015
0.0837179
0.0819282