/*--------------------------------*- C++ -*----------------------------------*\
| =========                 |                                                 |
| \\      /  F ield         | OpenFOAM: The Open Source CFD Toolbox           |
|  \\    /   O peration     | Version:  2.4.0                                 |
|   \\  /    A nd           | Web:      www.OpenFOAM.org                      |
|    \\/     M anipulation  |                                                 |
\*---------------------------------------------------------------------------*/
FoamFile
{
    version     2.0;
    format      ascii;
    class       volScalarField;
    location    "0.76";
    object      p;
}
// * * * * * * * * * * * * * * * * * * * * * * * * * * * * * * * * * * * * * //

dimensions      [0 2 -2 0 0 0 0];

internalField   nonuniform List<scalar> 
8800
(
68.3427
55.9893
48.593
45.0712
43.1704
41.7642
40.5789
39.4807
38.4282
37.4524
36.5757
35.6001
34.6338
33.8315
33.0035
32.0932
31.3178
30.6964
30.0182
29.1874
65.2292
55.6354
48.7627
45.1856
43.2304
41.7887
40.5863
39.4825
38.4258
37.4475
36.5756
35.6002
34.6264
33.8301
33.0061
32.0887
31.3156
30.692
30.0251
29.0976
63.2628
55.7124
49.3667
45.5616
43.3973
41.8668
40.6327
39.5155
38.4496
37.4639
36.5887
35.6061
34.6247
33.8298
33.0085
32.0782
31.3164
30.682
30.1136
29.125
61.7263
55.7734
49.9557
45.986
43.5823
41.9537
40.6928
39.5704
38.5
37.5032
36.6171
35.6254
34.6375
33.8343
33.0097
32.0716
31.3138
30.6749
30.2104
29.358
60.4761
55.7466
50.4347
46.3922
43.7522
42.0222
40.7384
39.624
38.5592
37.5582
36.6486
35.6544
34.6606
33.844
33.0037
32.077
31.3011
30.6713
30.1547
29.683
59.4914
55.6498
50.8035
46.7408
43.907
42.0673
40.7635
39.6659
38.6143
37.6105
36.6806
35.684
34.6876
33.8493
32.9952
32.0851
31.2971
30.6697
30.1846
30.322
58.7344
55.5373
51.0738
47.0216
44.0478
42.0967
40.7718
39.6964
38.6581
37.655
36.7069
35.7108
34.7126
33.8516
32.9893
32.0903
31.3053
30.6861
30.2914
30.7832
58.184
55.4369
51.258
47.2345
44.1733
42.1164
40.768
39.7165
38.6915
37.6892
36.7294
35.7315
34.7312
33.8524
32.986
32.1006
31.3188
30.719
30.3914
31.1026
57.8276
55.3613
51.3741
47.3779
44.2623
42.1274
40.7635
39.7264
38.715
37.7156
36.7429
35.7442
34.7482
33.8545
32.9848
32.1125
31.3396
30.7545
30.4744
31.2912
57.653
55.3193
51.43
47.4512
44.3069
42.1335
40.7601
39.7313
38.7289
37.7298
36.7489
35.7519
34.7619
33.8583
32.9881
32.1303
31.3644
30.7896
30.5339
31.4115
57.6533
55.3183
51.4304
47.4517
44.3069
42.134
40.7605
39.7284
38.7313
37.7336
36.7456
35.7541
34.7741
33.8633
32.9962
32.1527
31.3906
30.8231
30.5787
31.4757
57.8284
55.3583
51.3742
47.3804
44.2624
42.1286
40.7632
39.7238
38.7238
37.7245
36.7337
35.7524
34.7837
33.869
33.006
32.18
31.4211
30.8532
30.5922
31.458
58.1857
55.4335
51.2593
47.2366
44.1732
42.1176
40.7685
39.7123
38.7058
37.7068
36.7131
35.7443
34.7915
33.8744
33.0185
32.2127
31.4541
30.8834
30.5877
31.3925
58.7369
55.534
51.0741
47.0225
44.0478
42.0999
40.7715
39.6911
38.6788
37.678
36.6852
35.7318
34.7943
33.8783
33.0339
32.2508
31.4945
30.9179
30.5633
31.2522
59.4943
55.647
50.8052
46.7394
43.9071
42.0723
40.764
39.6581
38.6421
37.6402
36.6502
35.7116
34.7963
33.8786
33.0476
32.2909
31.5421
30.9615
30.5628
31.0193
60.4795
55.7445
50.4355
46.3891
43.754
42.0291
40.7376
39.6129
38.5966
37.5934
36.6094
35.6874
34.797
33.8739
33.0613
32.3275
31.5981
31.0144
30.586
30.7361
61.7287
55.7722
49.9568
45.9813
43.584
41.9639
40.6908
39.5563
38.5434
37.5453
36.5711
35.6623
34.7945
33.8697
33.0733
32.3537
31.651
31.0633
30.6439
30.4693
63.2663
55.7109
49.3674
45.5556
43.4009
41.8786
40.6295
39.5002
38.4967
37.5074
36.5445
35.6452
34.7911
33.8695
33.0837
32.3702
31.6891
31.1006
30.6977
30.3497
65.2327
55.6335
48.7641
45.1799
43.2341
41.8001
40.5835
39.4684
38.4726
37.4903
36.5358
35.6409
34.7903
33.8752
33.0921
32.3794
31.7073
31.1219
30.6934
30.2976
68.3466
55.9876
48.5943
45.0656
43.1748
41.7748
40.576
39.4685
38.4741
37.4922
36.5399
35.6438
34.7908
33.879
33.097
32.3809
31.7116
31.1273
30.6932
30.4245
29.8235
30.0696
30.1698
30.1687
30.0982
30.0068
29.9428
29.8999
29.9334
29.9945
30.0915
30.2068
30.281
30.353
30.3566
30.3406
30.2979
30.1944
30.0926
29.964
29.8581
29.7672
29.6556
29.5632
29.4522
29.3347
29.236
29.1097
28.9967
28.8847
28.7566
28.654
28.5322
28.4119
28.3191
28.2205
28.1535
28.1317
28.1377
28.2367
28.4091
28.6933
29.1329
29.6473
30.2939
31.0028
31.6675
32.2959
32.8253
33.1809
33.344
33.2039
32.6434
31.6335
30.1246
28.1924
25.8618
23.1761
20.5096
18.1151
16.055
14.5876
13.6079
12.9622
12.919
13.0894
13.4037
13.9441
14.4013
14.9094
15.3811
15.8097
16.0505
15.9681
16.1432
16.2639
16.466
17.3997
18.656
20.6085
23.267
26.3218
30.049
33.8876
37.4016
40.3574
42.3191
43.2306
43.1859
42.1405
40.4325
38.3445
36.0619
33.5253
30.9602
28.2525
25.7526
23.6872
21.4927
19.4953
18.1306
16.8185
15.6279
14.9317
14.247
13.8053
13.8145
13.7588
13.4762
13.379
13.2173
12.8222
12.3155
11.7916
11.2206
10.6603
10.2635
10.29
10.7299
11.7147
13.2285
15.4721
18.3502
21.6176
25.3636
29.5593
33.8936
38.0685
41.9995
45.5626
48.5799
50.959
52.9576
54.1928
55.3112
56.813
58.1843
59.488
59.9014
60.2406
60.3562
60.4441
60.3534
59.5933
59.0149
56.6936
53.3942
50.0777
43.708
35.9615
30.7365
26.5083
21.6676
16.7044
12.4196
9.18933
6.4644
4.19732
3.15622
4.23026
7.78534
12.5924
18.1835
24.7334
32.1835
38.743
43.6832
46.6483
48.106
48.9484
49.1944
48.3836
46.9043
45.5831
43.4776
41.2652
39.7675
35.6654
36.445
35.3908
35.9438
36.3079
36.6943
36.6722
36.6353
36.3301
36.3981
36.0279
36.3373
35.9264
36.4451
35.838
36.2431
35.2316
35.8691
35.4359
36.589
36.3593
37.413
31.9707
29.6331
29.9536
30.1549
30.2222
30.1265
29.9782
29.8996
29.8218
29.8824
29.9467
30.0509
30.1907
30.2412
30.339
30.3288
30.3126
30.2817
30.16
30.0919
29.9532
29.8408
29.7612
29.6289
29.5557
29.4479
29.317
29.2405
29.0993
28.9865
28.8908
28.7336
28.6625
28.538
28.4147
28.3628
28.2465
28.2069
28.2099
28.2035
28.3488
28.5164
28.7883
29.2394
29.6942
30.3106
30.9443
31.5046
32.1001
32.5639
32.8656
32.9175
32.7128
32.1605
31.1247
29.6969
27.9541
25.8006
23.3927
20.9699
18.7463
16.8605
15.3469
14.4268
13.8677
13.5884
13.7552
14.0648
14.4047
14.8239
15.3544
15.771
16.0604
16.4855
16.5684
16.5892
16.9283
17.2373
18.078
19.2871
20.997
23.7083
26.5488
29.622
32.9484
35.977
38.594
40.2608
40.9968
41.0929
40.3504
39.0463
37.5202
35.5705
33.4996
31.5625
29.3604
27.2508
25.6446
23.8996
22.2508
21.1132
20.0723
19.1844
18.5444
17.9731
17.489
17.1874
16.718
15.9711
15.2905
14.5082
13.5201
12.3261
11.1526
10.0167
8.90411
7.84848
7.20006
7.23131
7.76363
8.88239
11.1237
14.0341
17.3623
21.3141
26.0884
31.0017
35.7687
40.2975
44.414
47.742
50.4635
52.4377
53.7982
54.9541
56.4783
58.1315
59.5882
60.2623
60.7986
60.8112
61.0485
60.9978
60.2163
59.7534
57.0592
53.9023
49.9842
42.7471
34.7179
29.1922
24.848
19.3847
14.2738
9.87334
6.78847
3.87327
1.39352
0.836799
1.8918
5.02156
9.75034
15.6882
22.2977
29.2928
36.1425
40.8953
43.4688
46.0449
47.0454
46.2699
45.6099
44.1021
42.6911
41.1961
37.8785
37.0883
33.8252
34.1769
34.1661
34.5684
34.9336
35.2699
35.189
35.3114
34.9199
35.2191
34.6581
35.356
34.7005
35.5825
34.9576
35.6034
34.8559
35.19
34.8352
34.9824
33.7259
31.5797
27.8049
29.5231
29.9634
30.2484
30.365
30.2152
29.9525
29.8493
29.7075
29.8133
29.8902
29.9998
30.1906
30.1946
30.335
30.2972
30.2696
30.2703
30.0976
30.0794
29.9234
29.8034
29.759
29.5813
29.5437
29.4313
29.2867
29.258
29.0897
28.9868
28.9073
28.7253
28.6908
28.5677
28.44
28.4272
28.3096
28.2774
28.327
28.3039
28.4772
28.6663
28.8871
29.3599
29.7297
30.2654
30.8639
31.2902
31.8296
32.2031
32.3496
32.4009
32.1122
31.5287
30.6605
29.2725
27.6844
25.844
23.6004
21.5219
19.4941
17.6962
16.3778
15.3497
14.8193
14.6023
14.5264
14.7736
15.1682
15.4616
15.7849
16.3312
16.6598
16.9168
17.2359
17.3019
17.667
18.177
18.8224
20.1449
21.8906
24.1877
26.6498
29.1575
32.0452
34.6604
36.7643
38.2471
38.9494
39.1286
38.6433
37.6427
36.5342
35.0467
33.3547
31.9925
30.4035
28.7854
27.5419
26.2487
25.0297
24.1508
23.3556
22.7432
22.1991
21.5569
20.9266
20.2942
19.4503
18.3316
17.1784
15.8117
14.1493
12.3141
10.4351
8.58157
6.80005
5.07216
3.68563
3.13769
3.2071
3.88111
5.84349
8.82141
12.0315
16.2175
21.4398
27.0906
32.7906
38.2768
43.1329
46.8479
49.8228
51.8915
53.3785
54.671
56.2836
58.0974
59.5862
60.3539
61.0877
61.115
61.4225
61.5057
60.8387
60.0427
57.3257
54.1263
49.605
41.5262
33.3074
27.8027
22.6312
16.8438
11.5156
7.19533
4.13174
1.7005
-0.928969
-1.39088
0.0667055
3.32558
8.02197
13.7293
20.6094
27.5098
33.7897
38.8016
42.0671
44.1275
44.6944
43.6254
43.3112
42.54
40.1223
39.3486
36.0926
35.0041
33.293
32.9628
33.1989
33.4055
33.6331
33.892
33.7937
33.916
33.5717
33.8294
33.3086
33.8625
33.5507
33.9799
34.0326
34.1314
34.3039
34.1352
33.9628
33.0175
32.2108
29.7643
27.2438
29.7591
30.1687
30.2323
30.1976
29.9776
29.6937
29.6568
29.5248
29.7246
29.8243
29.9541
30.1971
30.1518
30.3389
30.261
30.2193
30.2439
30.0244
30.0497
29.8794
29.753
29.7465
29.5346
29.5166
29.4307
29.2483
29.2727
29.112
28.9828
28.9627
28.7263
28.7402
28.6282
28.4724
28.532
28.382
28.3785
28.4723
28.4132
28.6346
28.8089
28.9849
29.4562
29.724
30.2002
30.7156
31.0306
31.48
31.7472
31.8127
31.7854
31.5113
30.8982
30.1331
28.9265
27.4378
25.9217
23.9191
22.1479
20.398
18.6338
17.6756
16.5727
15.8504
15.8214
15.5944
15.6996
16.0913
16.2872
16.6088
17.0497
17.3969
17.652
17.9832
18.2476
18.5696
19.1212
19.8569
21.1471
22.7193
24.4762
26.6308
28.885
31.2969
33.4776
35.1339
36.4061
37.0866
37.2999
37.1129
36.4501
35.6427
34.646
33.4086
32.3663
31.3637
30.257
29.278
28.3969
27.6479
27.0549
26.5294
26.0477
25.5301
24.8532
24.1135
23.262
22.0713
20.5506
19.0185
17.2157
14.939
12.4945
9.78186
7.08411
4.43594
1.9136
-0.185065
-1.36769
-1.76452
-1.42181
0.303588
3.09225
6.30485
10.5798
16.1911
22.4377
28.8498
35.4479
41.2577
45.8105
49.0738
51.3798
52.9805
54.4415
56.0848
57.953
59.28
60.2336
61.0291
61.1839
61.7481
61.8036
61.0706
59.9631
57.5868
54.1005
49.2027
40.4634
31.8094
26.1344
20.0354
14.0036
8.35852
4.32861
1.53673
-0.339317
-1.29937
-2.30029
-1.00437
2.15971
6.97148
12.6895
19.5556
26.8071
32.8033
38.0142
41.6511
42.348
43.0483
43.118
41.9861
41.4434
38.6601
37.8228
35.4451
34.041
32.8389
32.0621
32.1946
32.4378
32.5843
32.7412
32.7377
32.7107
32.4169
32.4514
32.1018
32.1437
32.5161
32.429
33.21
32.9733
33.8499
33.4369
33.7288
32.6579
31.9902
29.7467
27.3336
31.2506
31.4222
30.4284
29.7421
29.3292
29.1131
29.2784
29.2425
29.5951
29.7539
29.8967
30.1991
30.098
30.3235
30.2262
30.1487
30.2173
29.9433
30.0179
29.8245
29.6833
29.74
29.4736
29.4903
29.4136
29.2077
29.2768
29.0301
28.9784
29.0172
28.733
28.814
28.6833
28.5254
28.6679
28.4554
28.5202
28.6292
28.5147
28.8164
28.9076
29.0721
29.5357
29.6498
30.128
30.5131
30.699
31.1262
31.2171
31.2741
31.1907
30.8765
30.3305
29.6254
28.64
27.2423
26.0041
24.4355
22.7576
21.3494
19.8607
18.8669
17.9901
17.2401
17.0619
16.8771
16.859
17.1816
17.3772
17.6053
17.9653
18.3142
18.5761
18.8882
19.2492
19.5661
20.1439
20.9414
21.974
23.2702
24.7745
26.682
28.6126
30.4339
32.1504
33.5364
34.734
35.5183
35.8389
35.9035
35.5323
34.9533
34.3503
33.5238
32.7741
32.2144
31.5679
30.9029
30.3895
30.0413
29.7443
29.4248
29.0279
28.5633
27.8927
27.0238
26.025
24.617
22.8064
20.9612
18.8233
15.9724
12.7971
9.39078
5.74605
2.20401
-1.10647
-4.00887
-5.90429
-6.69192
-6.57663
-4.94137
-2.49781
0.583183
5.16831
11.0081
17.5232
24.6405
32.0939
38.732
44.182
48.0977
50.804
52.6313
54.2069
55.8648
57.6172
58.9058
59.9602
60.8633
61.2364
61.9356
61.9423
60.8605
59.8368
57.3519
53.726
48.6491
39.1924
30.5846
24.1034
17.1654
11.0728
5.18386
1.31126
-0.774613
-2.22046
-3.10526
-2.98715
-1.29436
1.82545
6.73217
12.6968
19.2968
27.0782
33.4729
37.6847
40.9693
41.8921
42.6913
43.0421
40.7337
40.3958
38.202
37.1564
35.3682
33.516
32.4378
31.6913
31.5878
31.5803
31.6677
31.7361
31.8254
31.7267
31.4684
31.1974
31.1245
30.6248
31.5495
31.2671
32.3531
32.2405
33.332
33.1397
33.5436
32.4962
31.6294
29.6002
27.3028
32.3435
32.2592
30.6376
29.4059
28.739
28.5722
28.8307
28.9943
29.4239
29.6887
29.8865
30.1803
30.1053
30.3048
30.2162
30.1098
30.1559
29.8936
29.9672
29.7668
29.6401
29.6905
29.4443
29.4685
29.3613
29.2324
29.2494
29.0805
29.0223
29.0084
28.8415
28.8336
28.7907
28.6448
28.7156
28.6129
28.6193
28.7504
28.6762
28.8965
29.0172
29.1505
29.5194
29.6137
30.0107
30.2754
30.3973
30.753
30.7159
30.7948
30.6494
30.2552
29.9124
29.1916
28.3257
27.2751
26.1159
24.9068
23.4771
22.287
21.2274
20.0984
19.3835
18.7581
18.3436
18.2498
18.212
18.3637
18.5368
18.7313
19.0446
19.3203
19.5599
19.8796
20.2361
20.5572
21.1344
21.8142
22.5709
23.7372
25.0546
26.5113
28.0084
29.4202
30.9547
32.3031
33.4072
34.1836
34.5682
34.7665
34.6429
34.3499
34.0565
33.6335
33.2403
33.0009
32.7591
32.4585
32.2782
32.2149
32.1357
31.9928
31.7791
31.3852
30.7585
29.8976
28.787
27.3069
25.3174
23.0667
20.501
17.1954
13.2608
9.21189
4.85792
0.514789
-3.45793
-7.12832
-9.78053
-10.9583
-10.9658
-9.53924
-7.14006
-4.06644
0.239923
6.12103
13.0845
20.7188
28.4384
35.9485
42.4031
47.1321
50.1049
52.0661
53.7527
55.535
57.1657
58.6122
59.6392
60.6558
61.35
61.9623
61.7804
60.3637
59.5117
56.6459
53.0282
47.3942
37.766
29.7186
22.4068
14.9771
8.73907
2.93243
-0.933773
-2.7475
-3.2772
-3.91256
-3.38902
-1.13943
2.51674
7.28916
13.5196
20.2564
27.6341
34.1837
37.7432
41.0031
43.0341
42.4895
42.913
41.0275
40.6655
38.8567
37.1475
35.5935
33.5962
32.6045
31.568
31.1465
30.9535
30.9502
30.9464
31.0679
30.8164
30.5789
30.1739
30.3798
30.1488
30.5799
30.5164
31.2872
31.4879
32.1438
32.4512
32.5768
31.8735
30.8525
29.1985
27.155
32.9389
32.724
30.879
29.3533
28.4723
28.2205
28.496
28.7847
29.2444
29.6327
29.8738
30.1729
30.1277
30.2823
30.2347
30.0722
30.1145
29.8633
29.8991
29.733
29.585
29.6462
29.4188
29.4294
29.3343
29.2439
29.2312
29.0937
29.0584
29.0167
28.9325
28.8655
28.8583
28.7615
28.763
28.7498
28.7187
28.8369
28.8217
28.9447
29.1027
29.195
29.4606
29.591
29.8489
30.0707
30.142
30.3808
30.344
30.3104
30.2126
29.8225
29.5366
28.8826
28.1184
27.3898
26.2941
25.3197
24.2661
23.146
22.2832
21.3428
20.6285
20.1327
19.6976
19.5581
19.5031
19.5298
19.7177
19.8446
20.083
20.3615
20.5094
20.8368
21.1871
21.4367
21.9496
22.4688
23.0725
24.0731
25.0496
26.1076
27.3988
28.6846
30.0085
31.1504
32.0435
32.7856
33.3377
33.6912
33.8223
33.8565
33.8108
33.7328
33.7185
33.761
33.8508
33.9191
34.0783
34.2372
34.3138
34.4088
34.4127
34.1591
33.6346
32.8816
31.7201
30.0639
27.9313
25.2865
22.2344
18.5063
14.0419
9.27923
4.36833
-0.687149
-5.30513
-9.56892
-12.9017
-14.5479
-14.5917
-13.2503
-10.8224
-7.70243
-3.7472
1.91093
9.17177
17.108
25.2311
33.4469
40.5344
45.729
49.1294
51.3854
53.2917
55.1171
56.7224
58.1333
59.2358
60.2657
61.2395
61.6275
61.1663
59.8366
58.5993
55.8005
52.0305
46.1562
37.2505
29.5744
21.8945
14.6644
8.11186
2.1061
-1.50421
-3.61309
-4.30904
-3.83199
-2.64699
-0.337876
3.66987
8.60829
15.2334
22.3516
28.838
35.6217
39.6906
42.2967
44.641
43.4989
44.2954
42.9828
41.5566
39.8009
37.4546
36.1465
34.2585
32.9603
31.694
31.0559
30.7524
30.5489
30.2687
30.4509
30.1601
29.9061
29.499
29.6669
29.1632
29.5509
29.6394
30.0208
30.4728
31.0717
31.6432
31.7957
31.1627
30.129
28.8037
26.9945
33.28
33.0171
31.1273
29.4484
28.4281
28.0445
28.2733
28.6126
29.0794
29.5406
29.8314
30.1488
30.1433
30.2782
30.2373
30.0518
30.0754
29.8347
29.8483
29.6887
29.5372
29.6039
29.3868
29.4041
29.3127
29.2403
29.2433
29.098
29.106
29.0432
28.9757
28.9501
28.8842
28.8715
28.8374
28.8144
28.8518
28.8746
28.9285
29.0071
29.1143
29.2464
29.3849
29.5341
29.7239
29.8667
29.9307
30.0839
30.0414
29.9722
29.8894
29.4938
29.2609
28.7201
28.01
27.523
26.5402
25.6922
25.0033
23.91
23.1865
22.5483
21.7367
21.3766
21.0379
20.7264
20.6998
20.6829
20.8279
20.9075
21.054
21.3611
21.4352
21.6883
22.027
22.1666
22.5682
23.0067
23.4474
24.1922
24.9285
25.8422
27.0021
27.9826
28.9442
29.9374
30.7675
31.5327
32.213
32.6703
33.0014
33.322
33.542
33.7678
34.1138
34.5071
34.8526
35.2392
35.7837
36.1801
36.4038
36.7475
37.0456
36.9839
36.5531
35.8432
34.6662
32.8805
30.5712
27.7104
24.2203
20.0389
15.0896
9.62939
4.00684
-1.70526
-7.11337
-11.9689
-15.8139
-17.747
-17.7121
-16.1805
-13.6415
-10.6214
-6.74798
-1.10221
6.20446
14.2069
22.5873
31.028
38.6651
44.4328
48.2092
50.7079
52.8005
54.5709
56.1896
57.4893
58.5649
59.5887
60.198
60.7309
60.165
59.1334
57.2672
54.6632
50.4806
45.4438
37.8599
30.2652
22.8454
15.7196
8.89933
2.56307
-1.0264
-3.10023
-3.73734
-3.29676
-1.37139
1.42625
5.58038
10.8792
17.3824
25.1896
31.5772
37.8887
42.6473
44.0966
46.8878
46.2584
46.3271
44.9016
42.4853
41.0101
38.7155
37.2131
35.2168
33.5987
32.4248
31.4776
30.7687
30.4034
29.9098
30.0386
29.8569
29.5066
29.0043
29.0416
28.9257
28.9897
29.227
29.3352
29.6516
30.0725
30.6358
30.7888
30.3091
29.4982
28.3953
26.8403
33.4999
33.2349
31.3084
29.5247
28.3928
27.9371
28.1038
28.4686
28.9652
29.474
29.8031
30.0928
30.1554
30.2576
30.233
30.0379
30.031
29.8259
29.7875
29.6639
29.5007
29.5588
29.3723
29.3707
29.3069
29.2324
29.267
29.101
29.1424
29.0746
28.9985
29.0324
28.9039
28.957
28.9108
28.8556
28.964
28.9095
28.9839
29.0712
29.0917
29.2605
29.3373
29.4322
29.6363
29.6842
29.7412
29.875
29.7854
29.7346
29.6365
29.2639
29.069
28.6234
27.9814
27.6266
26.8421
26.073
25.592
24.6691
24.0066
23.564
22.8273
22.4966
22.2135
21.8816
21.8565
21.8013
21.901
21.9533
22.0116
22.3197
22.3341
22.452
22.7809
22.8063
23.0713
23.4637
23.6757
24.2614
24.9298
25.5495
26.4184
27.1268
27.8691
28.8514
29.6172
30.3095
31.0634
31.6123
32.1074
32.7434
33.2878
33.7876
34.5027
35.2577
35.822
36.4775
37.3851
38.0541
38.4922
39.0894
39.6473
39.7742
39.424
38.715
37.5372
35.7186
33.2767
30.2337
26.4019
21.7437
16.3302
10.3388
3.98035
-2.39598
-8.5409
-14.1475
-18.4413
-20.5362
-20.3863
-18.5356
-15.6685
-12.5925
-8.92812
-3.19154
4.20789
12.2295
20.7372
29.4184
37.3036
43.3313
47.22
49.9239
52.0957
53.9066
55.5119
56.7547
57.8365
58.8624
59.5295
59.5748
58.8566
57.7303
55.8781
52.9977
49.0627
44.6221
38.4013
31.1094
23.6567
16.7414
9.90086
4.05467
0.481379
-1.83735
-1.75928
-1.16514
0.696974
3.92728
8.18427
13.872
20.255
28.5885
35.5713
40.5211
46.1793
47.3017
49.9545
49.6306
48.4129
47.3579
44.8802
43.1873
40.7386
38.6815
36.7178
34.8531
33.5032
32.3047
31.1267
30.6272
30.1442
29.9942
29.7269
29.28
28.7483
28.9189
28.7843
28.5252
28.6548
28.6645
28.8745
29.3474
29.8694
29.9637
29.5468
28.871
27.838
26.4263
33.6337
33.3729
31.4028
29.5748
28.4337
27.9377
28.0414
28.3982
28.8884
29.4278
29.7752
30.0741
30.1662
30.2275
30.2317
30.0218
29.9927
29.8178
29.7261
29.653
29.4617
29.5361
29.3696
29.3321
29.3255
29.2065
29.2945
29.1228
29.1487
29.1384
29.005
29.0969
28.9487
28.9885
28.9931
28.8772
29.0313
28.9617
28.9937
29.128
29.0718
29.2425
29.3256
29.3206
29.5596
29.5585
29.5551
29.7323
29.5813
29.5258
29.4935
29.0902
28.9393
28.6357
27.9897
27.7371
27.1951
26.424
26.0867
25.4102
24.7327
24.4364
23.8784
23.4766
23.2842
23.0332
22.9414
22.8891
22.9411
23.0033
23.0034
23.2033
23.242
23.2095
23.4451
23.4796
23.5568
23.8318
23.9437
24.3419
24.7985
25.0657
25.674
26.2722
26.8303
27.6574
28.332
28.968
29.8461
30.6043
31.2797
32.2169
33.0659
33.799
34.8366
35.9088
36.7064
37.6643
38.88
39.8095
40.5217
41.3689
42.1053
42.407
42.2123
41.525
40.3
38.408
35.8318
32.6243
28.6051
23.6375
17.8784
11.5203
4.61897
-2.33432
-8.99758
-15.2344
-19.9095
-22.0691
-22.0601
-20.276
-17.1556
-13.8209
-9.8719
-4.17225
3.07026
11.2577
19.9119
28.5737
36.3933
42.3402
46.2866
49.2115
51.5087
53.4044
54.9241
56.1321
57.1277
57.951
58.3843
58.1435
57.3423
56.1152
54.5838
51.9094
48.5968
44.5375
38.7368
31.7921
23.7747
17.6264
11.4366
6.52924
3.00355
0.494184
0.10991
1.47306
3.75282
7.0253
11.3366
17.2823
24.7378
32.2196
40.389
44.4162
50.4485
51.8306
53.2724
53.3046
51.6657
50.6792
47.956
45.6362
43.1335
40.7861
38.7103
36.5038
34.8908
33.7713
32.2395
31.2326
30.6461
30.1635
29.6814
29.3485
28.8579
28.5933
28.4262
28.1074
28.2453
28.3464
28.5181
28.9004
29.2524
29.213
28.8888
28.3686
27.3678
26.0554
33.7132
33.4123
31.4183
29.6143
28.4851
27.9764
28.0498
28.4101
28.9069
29.4456
29.7809
30.0579
30.1519
30.1867
30.1968
29.9881
29.9468
29.7934
29.6811
29.6318
29.4399
29.5092
29.3702
29.315
29.3388
29.2033
29.305
29.1568
29.1415
29.1897
29.0175
29.1214
29.0185
28.9892
29.0682
28.9044
29.0528
29.0364
28.9737
29.1706
29.0669
29.1935
29.3285
29.2283
29.4663
29.4702
29.4
29.6006
29.4437
29.3517
29.3864
29.0051
28.8585
28.682
28.0772
27.8673
27.5278
26.8013
26.5371
26.0907
25.4541
25.2182
24.8243
24.4217
24.2961
24.1064
23.9767
23.9475
23.9526
24.0045
23.9719
24.0605
24.1147
23.992
24.105
24.1375
24.0502
24.1961
24.2229
24.2934
24.4833
24.5741
24.9473
25.3622
25.7016
26.337
26.9689
27.6338
28.6189
29.5175
30.4
31.6143
32.7354
33.7734
35.097
36.4046
37.5166
38.8589
40.2869
41.3978
42.4224
43.5221
44.4103
44.8554
44.7933
44.0911
42.7256
40.7243
38.0364
34.7114
30.6359
25.6149
19.6897
13.047
5.76876
-1.60881
-8.49344
-14.8306
-19.7736
-22.1297
-22.1781
-20.4596
-17.7021
-14.383
-10.0542
-4.13548
3.26191
11.4364
19.9451
28.4551
36.1184
41.7922
45.8927
48.9782
51.2404
53.0177
54.3096
55.3489
56.2794
56.9327
57.0595
56.6199
55.7693
54.8107
53.7726
52.1188
49.4085
45.6658
39.8829
32.9994
24.0381
18.8244
13.9037
9.66854
5.97529
3.47506
5.61206
4.30256
7.53451
10.6587
15.7353
21.1891
30.722
35.9623
45.5917
49.3217
54.6105
56.6212
56.7741
57.1425
55.3976
53.9143
51.0964
48.5723
46.1766
43.4856
41.0943
38.7808
36.8172
35.452
33.5825
32.0918
31.4585
30.8433
30.0138
29.4135
28.9915
28.6741
28.6159
28.2954
28.09
28.0371
28.1313
28.434
28.6855
28.5713
28.3223
27.8189
26.8923
25.7884
33.7291
33.4254
31.42
29.6423
28.5232
28.0333
28.1211
28.4744
28.9658
29.4782
29.7839
30.0516
30.1325
30.1479
30.1538
29.9475
29.9022
29.7675
29.6447
29.6023
29.4297
29.4825
29.3749
29.3099
29.3436
29.2169
29.2971
29.1946
29.145
29.2158
29.0501
29.1208
29.0785
28.9919
29.1078
28.9513
29.04
29.1037
28.9647
29.1699
29.0913
29.1223
29.3277
29.1662
29.3527
29.4272
29.2684
29.4805
29.3693
29.2032
29.3106
28.9919
28.7887
28.7667
28.2412
27.9896
27.8537
27.2294
26.9406
26.7358
26.172
25.93
25.7235
25.3454
25.243
25.1116
24.9744
24.9719
24.9404
24.9663
24.9452
24.9436
24.9683
24.8494
24.7977
24.7667
24.6279
24.5341
24.3886
24.236
24.1845
24.1265
24.2052
24.3544
24.5701
25.0614
25.6131
26.3227
27.3277
28.3001
29.4558
30.8904
32.2709
33.737
35.3393
36.7833
38.2665
39.953
41.4955
42.7296
44.053
45.4269
46.4214
46.9089
46.8485
46.0752
44.5973
42.464
39.7829
36.5351
32.4685
27.4115
21.4422
14.7365
7.33877
-0.319996
-7.42529
-13.5873
-18.381
-20.9927
-21.3541
-19.8381
-17.2093
-13.8045
-9.19484
-3.01594
4.46516
12.5421
21.0753
29.3879
36.5368
41.8246
45.7936
48.7061
50.911
52.6999
53.8699
54.7129
55.5184
55.951
55.7245
55.0574
54.3528
53.8129
53.6207
52.7857
50.7287
47.1912
42.2027
35.1797
26.0392
20.7707
16.0719
12.3836
9.08852
6.95275
6.95469
7.6935
11.9087
14.3828
21.2283
25.1883
37.3303
40.4561
50.7472
54.8009
58.5591
61.1605
60.6031
60.8764
59.2032
57.516
54.8486
52.0196
49.369
46.4295
43.8413
41.3522
38.8778
37.1597
35.21
33.4757
32.6119
31.6756
30.5491
29.975
29.4619
28.8865
28.5613
28.17
28.0022
28.097
28.1623
28.2638
28.299
28.0821
27.8845
27.3911
26.4638
25.4005
33.6512
33.3127
31.3281
29.6441
28.5898
28.1588
28.2833
28.6382
29.1091
29.5598
29.8156
30.0297
30.1
30.0961
30.0824
29.906
29.8373
29.7423
29.6131
29.5736
29.4444
29.4501
29.3997
29.3105
29.3511
29.2497
29.2772
29.2393
29.1466
29.2275
29.0902
29.1106
29.1262
29.0111
29.121
29.0017
29.0305
29.1274
28.9867
29.1362
29.1136
29.082
29.2828
29.1576
29.2404
29.3707
29.199
29.3441
29.3158
29.116
29.231
29.0117
28.7832
28.8063
28.4339
28.1625
28.1102
27.6765
27.3662
27.2786
26.8832
26.6132
26.5296
26.2584
26.1056
26.0699
25.9644
25.9303
25.929
25.9196
25.908
25.8665
25.8328
25.7204
25.5582
25.4196
25.179
24.8683
24.5793
24.2691
23.9666
23.6961
23.4797
23.3992
23.5325
23.8402
24.2987
25.0583
26.0386
27.1568
28.5742
30.1921
31.8211
33.5993
35.4339
37.0922
38.8166
40.7522
42.4645
43.8156
45.2277
46.818
47.9433
48.3632
48.2156
47.3021
45.6944
43.6252
41.1132
37.9151
33.8264
28.9324
23.1961
16.6322
9.37121
1.7829
-5.3906
-11.4737
-16.0603
-18.7108
-19.3864
-18.2833
-15.765
-12.1503
-7.28153
-0.960172
6.44879
14.3792
22.9458
30.679
37.0504
41.9376
45.7637
48.5552
50.7176
52.3948
53.5173
54.3577
54.9254
55.0149
54.5022
53.846
53.3346
53.3396
53.8508
53.348
51.708
49.0598
44.9485
38.5661
30.4743
23.8438
17.3719
15.062
12.0145
11.7675
11.5357
11.5927
16.4603
18.6585
26.4437
30.3154
43.7558
45.933
55.9555
60.4463
62.9992
65.6142
65.0227
64.7935
63.1836
61.312
58.4724
55.2924
52.3541
49.3131
46.5668
43.8732
41.1624
39.1544
37.0195
35.0147
33.8
32.5624
31.2284
30.3877
29.7038
29.1135
28.7988
28.3918
28.1048
28.0832
28.0864
28.2411
28.2737
27.9495
27.5513
26.9168
26.034
25.1265
33.4344
33.1237
31.1796
29.6066
28.7115
28.3863
28.5307
28.8559
29.2724
29.648
29.8555
30.0078
30.0603
30.0398
30.0098
29.8625
29.779
29.7067
29.5839
29.5477
29.4555
29.4306
29.413
29.3235
29.348
29.2835
29.2678
29.2627
29.1777
29.2158
29.1351
29.1144
29.1362
29.054
29.099
29.047
29.0353
29.1099
29.0356
29.0926
29.113
29.0797
29.2008
29.1515
29.1712
29.2753
29.1782
29.2359
29.2451
29.1041
29.1439
29.0345
28.8437
28.8321
28.6215
28.3872
28.3413
28.0878
27.8272
27.7528
27.5393
27.304
27.242
27.1035
26.9561
26.9618
26.8995
26.8647
26.881
26.8424
26.8412
26.774
26.6621
26.5377
26.3166
26.0442
25.6848
25.2594
24.8304
24.3356
23.801
23.3192
22.9219
22.6928
22.6914
22.8469
23.256
24.04
25.0294
26.2901
27.8971
29.5833
31.4183
33.4582
35.3176
37.1652
39.267
41.1503
42.8006
44.6735
46.0502
47.3844
48.7119
49.2374
48.7707
47.6841
46.1851
44.2223
41.7838
38.7107
34.8163
30.1962
24.8483
18.6511
11.6521
4.48451
-2.343
-8.21964
-12.7313
-15.4707
-16.3209
-15.4863
-13.0629
-9.34864
-4.26277
2.13388
9.37358
17.0823
24.914
31.9913
37.7156
42.3312
45.9369
48.5271
50.5979
52.1954
53.3109
54.1508
54.6563
54.5415
53.868
53.1725
52.7609
53.3524
54.4652
54.2893
52.9314
50.9868
47.5929
42.2308
35.1282
27.2603
20.2033
17.6494
15.1735
14.043
14.0414
16.501
20.7672
23.1752
32.0567
36.544
48.5776
53.3009
60.9683
65.881
67.8691
70.025
69.5035
68.5817
66.898
64.5897
61.5719
58.4821
55.2907
51.9963
49.0868
46.2816
43.5383
41.1909
38.7632
36.5522
34.9731
33.4879
32.0118
30.8983
30.1075
29.4885
28.976
28.4807
28.2197
28.1443
28.0332
28.0582
27.9955
27.7593
27.4639
26.8702
26.0394
25.2149
32.9207
32.6384
30.9867
29.6914
28.9766
28.7729
28.8984
29.1583
29.4789
29.7382
29.898
29.9741
30.0001
29.9625
29.9093
29.8137
29.7196
29.6722
29.5693
29.5273
29.4736
29.4203
29.4194
29.346
29.3399
29.3129
29.2647
29.2679
29.2137
29.1941
29.1731
29.128
29.1265
29.105
29.0743
29.075
29.0618
29.0679
29.0785
29.0632
29.0911
29.101
29.1191
29.1391
29.1329
29.1719
29.1598
29.1564
29.1665
29.1117
29.0946
29.042
28.9418
28.8826
28.7788
28.6452
28.5565
28.4444
28.2766
28.1888
28.1053
27.9435
27.8942
27.8467
27.7581
27.7604
27.7469
27.7211
27.7186
27.6858
27.6491
27.5566
27.4026
27.2284
26.9513
26.5863
26.151
25.6298
25.0645
24.4285
23.7579
23.1406
22.6129
22.2782
22.1901
22.2894
22.6724
23.4253
24.4245
25.7548
27.4058
29.1813
31.131
33.2484
35.1778
37.0533
39.2721
41.3586
42.8205
44.1629
46.1258
47.6385
48.5171
48.9705
48.7178
47.7017
46.1039
44.1966
41.9865
39.1191
35.4384
31.0817
26.1576
20.516
14.0848
7.43286
1.18134
-4.28105
-8.60877
-11.3646
-12.3148
-11.5156
-9.23918
-5.57409
-0.563741
5.63629
12.5974
19.8762
26.9754
33.3911
38.5894
42.8007
46.0068
48.4976
50.6639
52.3011
53.3579
54.2072
54.8408
54.7503
53.9982
53.1431
52.8332
53.9299
55.7213
56.1208
55.0325
53.1663
50.1672
45.3378
38.8145
31.6177
25.3509
20.7985
18.4013
18.7786
17.99
20.7892
24.3962
28.0383
38.2787
42.6562
54.2328
60.2184
65.6232
71.0522
72.7297
74.1531
73.4553
72.0859
70.2468
67.5225
64.5764
61.4969
57.9848
54.4566
51.2197
48.3108
45.6176
42.8905
40.3048
38.0749
36.1499
34.4294
32.8224
31.4486
30.5224
29.8418
29.1249
28.5495
28.2087
27.9814
28.0379
28.2388
28.1173
27.7696
27.2733
26.6393
25.9143
25.1676
32.1373
31.9699
30.8146
29.9067
29.3997
29.2358
29.3066
29.4595
29.6597
29.8001
29.8941
29.9374
29.9427
29.9093
29.8476
29.7756
29.6881
29.6316
29.5539
29.5063
29.4725
29.4209
29.4159
29.369
29.3421
29.3309
29.2759
29.271
29.2363
29.1875
29.1896
29.1404
29.1244
29.1267
29.0725
29.0914
29.077
29.0514
29.0885
29.0512
29.0675
29.0992
29.0687
29.1091
29.1131
29.0986
29.1377
29.1167
29.1068
29.1187
29.0738
29.0449
29.0223
28.9475
28.9067
28.8616
28.7649
28.7306
28.6581
28.5689
28.5522
28.4782
28.432
28.4394
28.3968
28.3967
28.4102
28.3822
28.3648
28.3199
28.2563
28.1487
27.9612
27.7387
27.4289
27.0044
26.5004
25.9186
25.2707
24.5693
23.8367
23.1512
22.5835
22.1965
22.0523
22.134
22.4961
23.2033
24.2133
25.537
27.1808
28.9907
30.9797
33.081
35.0149
36.9422
39.0827
41.0207
42.5715
44.0616
45.6486
47.0823
48.042
48.3003
47.9058
47.0537
45.7293
43.9873
41.8477
39.1791
35.8507
31.8395
27.2707
22.0678
16.229
10.1508
4.4198
-0.596025
-4.5823
-7.17773
-8.14879
-7.47099
-5.23822
-1.63603
3.21155
9.04371
15.4702
22.1549
28.6405
34.5862
39.4278
43.1036
46.077
48.6167
50.8236
52.4639
53.609
54.6146
55.4151
55.4093
54.7533
53.93
53.7487
55.2609
57.4979
58.461
57.6641
55.7446
52.7934
48.4669
43.0349
36.3389
30.1608
25.4729
22.68
22.0094
21.4065
26.4335
28.7307
32.2741
44.6193
48.6619
60.0655
66.6326
70.2329
75.8391
77.2715
77.8164
76.9218
75.4725
73.202
70.1747
67.3483
63.9291
60.1355
56.5727
53.055
49.997
47.2771
44.2973
41.6677
39.44
37.2534
35.3488
33.608
32.0184
30.9015
30.0314
29.1835
28.7347
28.4905
28.018
27.8076
27.8344
27.6902
27.5915
27.2425
26.6181
25.9904
25.267
31.2445
31.2296
30.7053
30.2476
29.9303
29.7606
29.7184
29.7403
29.8116
29.8554
29.8959
29.9052
29.8841
29.846
29.7834
29.7285
29.6573
29.6067
29.5525
29.5074
29.4809
29.4307
29.4167
29.3803
29.3438
29.3315
29.2828
29.2692
29.2432
29.1963
29.1942
29.1555
29.1269
29.1298
29.0822
29.0906
29.0852
29.0486
29.0838
29.0537
29.0559
29.0859
29.047
29.0816
29.0849
29.0627
29.106
29.089
29.0814
29.1119
29.0749
29.0652
29.0741
29.0178
29.0073
29.0007
28.9358
28.9307
28.9103
28.8536
28.8629
28.8414
28.8176
28.8428
28.834
28.8367
28.8463
28.823
28.7834
28.7229
28.6431
28.5028
28.2903