/*--------------------------------*- C++ -*----------------------------------*\
| =========                 |                                                 |
| \\      /  F ield         | OpenFOAM: The Open Source CFD Toolbox           |
|  \\    /   O peration     | Version:  2.4.0                                 |
|   \\  /    A nd           | Web:      www.OpenFOAM.org                      |
|    \\/     M anipulation  |                                                 |
\*---------------------------------------------------------------------------*/
FoamFile
{
    version     2.0;
    format      ascii;
    class       volVectorField;
    location    "0.76";
    object      U_0;
}
// * * * * * * * * * * * * * * * * * * * * * * * * * * * * * * * * * * * * * //

dimensions      [0 1 -1 0 0 0 0];

internalField   nonuniform List<vector> 
8800
(
(8.09198 0.387949 0)
(5.44921 0.242533 0)
(3.91103 0.0429713 0)
(3.15831 -0.0156237 0)
(2.80037 -0.0181042 0)
(2.59846 -0.010979 0)
(2.48434 -0.00597796 0)
(2.38189 -0.00222787 0)
(2.31675 -0.00093836 0)
(2.25017 -0.00103803 0)
(2.22061 -0.00161882 0)
(2.16841 0.00120341 0)
(2.14145 0.000130886 0)
(2.10615 -0.00116662 0)
(2.0846 0.000968383 0)
(2.04266 0.00184921 0)
(2.00616 -0.000136153 0)
(1.98079 -0.00135626 0)
(1.95971 0.00996108 0)
(1.71047 -0.0589401 0)
(10.0854 0.8386 0)
(9.65671 0.867756 0)
(8.87 0.506658 0)
(8.08697 0.261448 0)
(7.48953 0.138781 0)
(7.00914 0.0820546 0)
(6.69724 0.0531204 0)
(6.40159 0.0413567 0)
(6.21983 0.0312552 0)
(6.02922 0.0227671 0)
(5.93119 0.0160192 0)
(5.77815 0.0218349 0)
(5.71866 0.0144372 0)
(5.61268 0.0112 0)
(5.54982 0.0163005 0)
(5.45714 0.0203047 0)
(5.38693 0.0153547 0)
(5.30768 0.00690762 0)
(5.25104 0.0364304 0)
(5.0592 -0.0505738 0)
(10.0636 0.631958 0)
(10.6583 0.863603 0)
(10.8633 0.600692 0)
(10.6987 0.372901 0)
(10.452 0.256797 0)
(10.0904 0.196166 0)
(9.83552 0.151974 0)
(9.50205 0.12502 0)
(9.3033 0.0958625 0)
(9.04446 0.0735325 0)
(8.92871 0.0556667 0)
(8.69996 0.0592548 0)
(8.63568 0.0406492 0)
(8.47024 0.0349266 0)
(8.39803 0.0410984 0)
(8.25568 0.0435246 0)
(8.19566 0.0385687 0)
(8.05557 0.0263386 0)
(7.98831 0.0620312 0)
(7.82191 -0.0507874 0)
(10.0018 0.457979 0)
(10.5697 0.706005 0)
(11.1553 0.544516 0)
(11.3848 0.35188 0)
(11.5546 0.264077 0)
(11.4703 0.226582 0)
(11.483 0.196837 0)
(11.3128 0.180662 0)
(11.2836 0.150548 0)
(11.0848 0.120752 0)
(11.0805 0.101438 0)
(10.8663 0.105232 0)
(10.8666 0.0743792 0)
(10.682 0.0675895 0)
(10.6689 0.0732825 0)
(10.485 0.0771846 0)
(10.4918 0.0567269 0)
(10.2908 0.0702659 0)
(10.2704 0.0645947 0)
(10.0243 0.0918384 0)
(10.0421 0.346801 0)
(10.412 0.570416 0)
(11.0314 0.458657 0)
(11.3022 0.290324 0)
(11.6537 0.210716 0)
(11.6957 0.194605 0)
(11.8786 0.174557 0)
(11.8275 0.174051 0)
(11.9866 0.150924 0)
(11.8866 0.127584 0)
(12.0235 0.102016 0)
(11.9352 0.125509 0)
(12.051 0.0827461 0)
(11.923 0.0854344 0)
(12.0161 0.0846099 0)
(11.902 0.104177 0)
(11.9675 0.0621532 0)
(11.8202 0.102037 0)
(11.851 0.0743952 0)
(11.5827 0.125364 0)
(10.0525 0.252522 0)
(10.3241 0.456275 0)
(10.8948 0.380444 0)
(11.1799 0.244717 0)
(11.506 0.158779 0)
(11.6331 0.148846 0)
(11.8188 0.143417 0)
(11.8161 0.144758 0)
(11.9953 0.129091 0)
(12.0047 0.108741 0)
(12.1142 0.0843322 0)
(12.1578 0.103096 0)
(12.3095 0.0755509 0)
(12.2691 0.0702537 0)
(12.3723 0.0818371 0)
(12.4197 0.0893976 0)
(12.4959 0.0683744 0)
(12.4627 0.0770238 0)
(12.4733 0.0956399 0)
(12.3178 0.0518997 0)
(10.0182 0.175009 0)
(10.2967 0.355676 0)
(10.7552 0.287751 0)
(11.1209 0.206561 0)
(11.3673 0.116675 0)
(11.5563 0.108287 0)
(11.7186 0.111578 0)
(11.7479 0.117662 0)
(11.8928 0.0943282 0)
(11.9547 0.0929407 0)
(12.0097 0.0573946 0)
(12.1006 0.0810151 0)
(12.2434 0.0536328 0)
(12.2802 0.0633772 0)
(12.3069 0.051554 0)
(12.4175 0.064977 0)
(12.5263 0.0511731 0)
(12.5498 0.0710631 0)
(12.5157 0.0710283 0)
(12.5333 -0.0258648 0)
(9.99528 0.114969 0)
(10.2697 0.250442 0)
(10.6864 0.206267 0)
(11.0425 0.157334 0)
(11.2788 0.0832252 0)
(11.5099 0.0615117 0)
(11.6177 0.0813304 0)
(11.7299 0.0865395 0)
(11.7919 0.0683433 0)
(11.908 0.0718195 0)
(11.9293 0.0453558 0)
(12.0066 0.0435187 0)
(12.203 0.0327299 0)
(12.2556 0.0482605 0)
(12.2085 0.0503494 0)
(12.2643 0.0269201 0)
(12.4754 0.019749 0)
(12.557 0.0471124 0)
(12.5228 0.0356265 0)
(12.5103 -0.0584428 0)
(9.99199 0.066814 0)
(10.2454 0.144571 0)
(10.6233 0.121664 0)
(10.9937 0.105724 0)
(11.2592 0.0469168 0)
(11.4779 0.0293321 0)
(11.5506 0.0499324 0)
(11.6812 0.0514941 0)
(11.766 0.0460093 0)
(11.8283 0.0445023 0)
(11.9115 0.033492 0)
(11.9986 0.0121071 0)
(12.131 -0.000750575 0)
(12.1847 0.0517676 0)
(12.1797 0.0542624 0)
(12.2765 -0.0146264 0)
(12.4002 -0.0330695 0)
(12.4843 0.0181342 0)
(12.4511 0.0289091 0)
(12.3181 0.0136928 0)
(10.0004 0.021896 0)
(10.2204 0.0467058 0)
(10.6149 0.0409597 0)
(10.9575 0.0394927 0)
(11.2534 0.0116948 0)
(11.4227 0.00465766 0)
(11.5504 0.0217315 0)
(11.6698 0.0124873 0)
(11.7111 0.0208581 0)
(11.8102 0.0246844 0)
(11.9337 0.00404534 0)
(12.0238 -0.0111887 0)
(12.0366 -0.0083872 0)
(12.0627 0.0324865 0)
(12.247 0.0292922 0)
(12.3664 -0.0374388 0)
(12.3309 -0.048708 0)
(12.3233 0.000577717 0)
(12.3739 0.0250258 0)
(12.3099 0.00708896 0)
(10.003 -0.01707 0)
(10.2253 -0.0570926 0)
(10.6073 -0.0446076 0)
(10.9373 -0.0162964 0)
(11.2706 -0.0164041 0)
(11.4192 -0.0279916 0)
(11.5646 -0.0188462 0)
(11.6631 -0.0122599 0)
(11.7053 0.00033309 0)
(11.823 -0.0220526 0)
(11.9414 -0.020627 0)
(12.0064 -0.0124798 0)
(12.0015 -0.00536293 0)
(12.0893 -0.00461502 0)
(12.2793 -0.0215692 0)
(12.3474 -0.0471379 0)
(12.3009 -0.0375997 0)
(12.3112 -0.0241302 0)
(12.3721 -0.018036 0)
(12.4726 -0.0532393 0)
(9.99759 -0.0642776 0)
(10.2546 -0.152648 0)
(10.5978 -0.119022 0)
(10.9799 -0.0869547 0)
(11.3047 -0.0574505 0)
(11.4537 -0.0517111 0)
(11.5663 -0.0471309 0)
(11.6611 -0.0445941 0)
(11.7544 -0.0311545 0)
(11.8561 -0.0459292 0)
(11.9287 -0.0400981 0)
(11.9892 -0.0267136 0)
(12.0527 -0.0241069 0)
(12.1892 -0.0402248 0)
(12.286 -0.0369141 0)
(12.2801 -0.0529342 0)
(12.3163 -0.0565418 0)
(12.3857 -0.0523995 0)
(12.4555 -0.0690813 0)
(12.5147 -0.0820053 0)
(10.0069 -0.113398 0)
(10.2672 -0.252474 0)
(10.6574 -0.204503 0)
(11.0478 -0.153794 0)
(11.3314 -0.0839958 0)
(11.4877 -0.0783594 0)
(11.6099 -0.0778563 0)
(11.7006 -0.0813739 0)
(11.8062 -0.0575496 0)
(11.8913 -0.0757641 0)
(11.9691 -0.0540814 0)
(12.0355 -0.0442648 0)
(12.1207 -0.048981 0)
(12.2267 -0.0665446 0)
(12.2969 -0.0438195 0)
(12.3289 -0.0657044 0)
(12.3952 -0.0778996 0)
(12.4343 -0.0916696 0)
(12.4768 -0.101217 0)
(12.4727 -0.0610608 0)
(10.0269 -0.175537 0)
(10.2889 -0.353395 0)
(10.7608 -0.288024 0)
(11.1078 -0.205482 0)
(11.3966 -0.121404 0)
(11.5512 -0.114278 0)
(11.6914 -0.108514 0)
(11.7611 -0.114218 0)
(11.8767 -0.0862166 0)
(11.9484 -0.0987696 0)
(12.0447 -0.0719254 0)
(12.1071 -0.0703275 0)
(12.2129 -0.065532 0)
(12.2779 -0.0875936 0)
(12.3422 -0.0599418 0)
(12.3959 -0.0893447 0)
(12.4745 -0.0928073 0)
(12.4991 -0.111596 0)
(12.5351 -0.131026 0)
(12.4911 -0.105186 0)
(10.0668 -0.251152 0)
(10.3129 -0.456549 0)
(10.8984 -0.377081 0)
(11.1765 -0.248919 0)
(11.5385 -0.160588 0)
(11.6039 -0.152433 0)
(11.8101 -0.142439 0)
(11.8202 -0.143985 0)
(11.9896 -0.113019 0)
(11.9983 -0.126519 0)
(12.1514 -0.0934309 0)
(12.149 -0.0922029 0)
(12.2872 -0.0849745 0)
(12.2779 -0.106871 0)
(12.3804 -0.069777 0)
(12.3645 -0.110607 0)
(12.4506 -0.105864 0)
(12.4342 -0.142965 0)
(12.442 -0.143394 0)
(12.3195 -0.136076 0)
(10.0641 -0.348165 0)
(10.3867 -0.56574 0)
(11.0586 -0.461795 0)
(11.2953 -0.294235 0)
(11.6686 -0.210402 0)
(11.6596 -0.190819 0)
(11.8953 -0.180309 0)
(11.8065 -0.169717 0)
(11.9997 -0.143027 0)
(11.8886 -0.142853 0)
(12.0447 -0.112846 0)
(11.9116 -0.105789 0)
(12.0519 -0.0978879 0)
(11.895 -0.112103 0)
(12.013 -0.0806481 0)
(11.8509 -0.115126 0)
(11.9284 -0.108128 0)
(11.7558 -0.144627 0)
(11.7422 -0.137607 0)
(11.5177 -0.171929 0)
(10.0147 -0.457155 0)
(10.5565 -0.705301 0)
(11.1806 -0.547374 0)
(11.3619 -0.352251 0)
(11.5683 -0.260819 0)
(11.4456 -0.227532 0)
(11.5087 -0.201772 0)
(11.2789 -0.176419 0)
(11.3222 -0.146184 0)
(11.0566 -0.133904 0)
(11.0944 -0.104961 0)
(10.8357 -0.0932352 0)
(10.8914 -0.0844596 0)
(10.6089 -0.0920667 0)
(10.6899 -0.0663458 0)
(10.4044 -0.0931163 0)
(10.4582 -0.0834205 0)
(10.1594 -0.122259 0)
(10.1511 -0.106538 0)
(9.81325 -0.162676 0)
(10.0672 -0.632098 0)
(10.6542 -0.863345 0)
(10.8741 -0.601535 0)
(10.6833 -0.372798 0)
(10.4652 -0.25588 0)
(10.0771 -0.196758 0)
(9.84917 -0.154173 0)
(9.47787 -0.122935 0)
(9.33749 -0.0939324 0)
(9.00677 -0.0798696 0)
(8.94387 -0.0599915 0)
(8.66884 -0.0516003 0)
(8.66106 -0.0460668 0)
(8.38556 -0.0518529 0)
(8.4282 -0.038882 0)
(8.14633 -0.0533986 0)
(8.17902 -0.0543576 0)
(7.87384 -0.0740686 0)
(7.86112 -0.077577 0)
(7.50824 -0.0896478 0)
(10.0861 -0.838452 0)
(9.6557 -0.867765 0)
(8.874 -0.507015 0)
(8.07898 -0.261557 0)
(7.49756 -0.138055 0)
(7.00178 -0.0823185 0)
(6.70301 -0.0544061 0)
(6.38808 -0.0410191 0)
(6.23946 -0.0291538 0)
(6.00297 -0.0261718 0)
(5.93888 -0.0194334 0)
(5.75269 -0.0171409 0)
(5.73461 -0.0158037 0)
(5.54742 -0.0220585 0)
(5.55952 -0.0152492 0)
(5.36232 -0.0238571 0)
(5.36609 -0.0254605 0)
(5.13565 -0.034992 0)
(5.11064 -0.0412194 0)
(4.816 -0.0177192 0)
(8.09184 -0.387977 0)
(5.44938 -0.242562 0)
(3.91162 -0.0429024 0)
(3.1561 0.0154995 0)
(2.80225 0.0182106 0)
(2.59651 0.0110268 0)
(2.48569 0.00563009 0)
(2.37582 0.00217409 0)
(2.32291 0.00195717 0)
(2.243 7.31265e-05 0)
(2.21765 0.000518286 0)
(2.15496 0.000348148 0)
(2.14705 0.000276511 0)
(2.07745 -0.00203218 0)
(2.0708 0.000109274 0)
(1.99662 -0.00223877 0)
(1.98153 -0.00182576 0)
(1.88418 -0.00395154 0)
(1.83863 -0.00458082 0)
(1.69045 0.0106861 0)
(2.22559 -0.177508 0)
(2.35708 -0.10647 0)
(2.49211 -0.0690134 0)
(2.60694 -0.0628059 0)
(2.74758 -0.0593834 0)
(2.84827 -0.0563597 0)
(2.95944 -0.0463998 0)
(3.03077 -0.0435274 0)
(3.10593 -0.0460937 0)
(3.14514 -0.0449762 0)
(3.20156 -0.0515311 0)
(3.22495 -0.0434565 0)
(3.27927 -0.0400232 0)
(3.30079 -0.0282486 0)
(3.35363 -0.0176603 0)
(3.3848 -0.0126825 0)
(3.43723 0.00417627 0)
(3.47297 0.00999982 0)
(3.53282 0.0112731 0)
(3.58025 0.0132836 0)
(3.63388 0.0105464 0)
(3.67512 0.0183482 0)
(3.72184 0.0200497 0)
(3.7608 0.0219534 0)
(3.80876 0.0247681 0)
(3.84786 0.0238071 0)
(3.89437 0.024604 0)
(3.93548 0.0266411 0)
(3.98397 0.021422 0)
(4.02502 0.0235817 0)
(4.07716 0.0187346 0)
(4.11623 0.0152391 0)
(4.17114 0.0155304 0)
(4.20964 0.00243768 0)
(4.2677 -0.00247783 0)
(4.3063 -0.0114067 0)
(4.35559 -0.0331484 0)
(4.40508 -0.0499384 0)
(4.4384 -0.078826 0)
(4.49487 -0.108337 0)
(4.512 -0.133314 0)
(4.55903 -0.176592 0)
(4.55113 -0.194291 0)
(4.57259 -0.215289 0)
(4.54755 -0.23702 0)
(4.53498 -0.23789 0)
(4.4953 -0.219706 0)
(4.48031 -0.177588 0)
(4.44094 -0.113209 0)
(4.39802 -0.0321645 0)
(4.37259 0.0362547 0)
(4.33365 0.11866 0)
(4.32054 0.24815 0)
(4.39921 0.379931 0)
(4.46392 0.454714 0)
(4.64355 0.567774 0)
(4.9056 0.653514 0)
(5.19577 0.618486 0)
(5.61149 0.617282 0)
(5.96902 0.503698 0)
(6.11204 0.275106 0)
(6.45011 0.173773 0)
(6.54832 0.0523854 0)
(6.63157 -0.178725 0)
(6.70488 -0.266285 0)
(6.63575 -0.349105 0)
(6.72188 -0.48269 0)
(6.65535 -0.563092 0)
(6.73661 -0.578828 0)
(6.75586 -0.572452 0)
(6.83706 -0.739192 0)
(7.00347 -0.681113 0)
(7.11131 -0.673212 0)
(7.44274 -0.864601 0)
(7.6989 -0.827548 0)
(7.93248 -1.02237 0)
(8.36159 -1.22807 0)
(8.59817 -1.35576 0)
(8.86181 -1.73654 0)
(9.11792 -1.86909 0)
(9.28176 -2.0046 0)
(9.47925 -2.26166 0)
(9.4948 -2.36988 0)
(9.50411 -2.35567 0)
(9.49787 -2.16767 0)
(9.4716 -1.91278 0)
(9.4969 -1.61269 0)
(9.62152 -1.31655 0)
(9.78864 -0.991074 0)
(10.0328 -0.615472 0)
(10.2797 -0.34054 0)
(10.4463 -0.123259 0)
(10.7279 0.111531 0)
(10.94 0.2357 0)
(11.0795 0.254921 0)
(11.3423 0.247113 0)
(11.5342 0.131885 0)
(11.656 -0.0833257 0)
(11.9045 -0.27122 0)
(12.1591 -0.578131 0)
(12.2983 -0.977399 0)
(12.5569 -1.26647 0)
(12.7958 -1.77444 0)
(13.0245 -2.20454 0)
(13.2685 -2.60381 0)
(13.5161 -3.12108 0)
(13.5747 -3.59128 0)
(13.7864 -3.91336 0)
(13.7237 -4.38421 0)
(13.9159 -4.48592 0)
(13.6693 -4.71357 0)
(13.8788 -4.77995 0)
(13.6512 -4.78625 0)
(13.8071 -4.69263 0)
(13.7457 -4.64264 0)
(13.8985 -4.42151 0)
(13.9345 -4.16808 0)
(14.0795 -3.95195 0)
(14.0589 -3.45271 0)
(14.0807 -3.08133 0)
(13.9276 -2.61996 0)
(13.8071 -2.00879 0)
(13.4313 -1.59305 0)
(13.1752 -1.08485 0)
(12.5387 -0.516866 0)
(12.1216 -0.151809 0)
(11.3258 0.0706805 0)
(10.7816 0.516267 0)
(10.0139 0.521044 0)
(9.61208 0.566996 0)
(8.83005 0.546492 0)
(8.70193 0.649506 0)
(8.16059 0.259965 0)
(8.14558 0.244409 0)
(7.78707 0.406166 0)
(7.41832 0.886345 0)
(7.23516 0.763968 0)
(6.70821 0.429103 0)
(6.71812 -0.164543 0)
(6.53691 -0.533265 0)
(6.29402 -0.684622 0)
(6.69059 -0.630705 0)
(7.03453 -1.6763 0)
(7.58475 -1.26089 0)
(7.07531 -1.89016 0)
(7.994 -2.44183 0)
(8.88546 -3.26253 0)
(9.23525 -4.29999 0)
(10.0166 -5.14018 0)
(10.6103 -4.96374 0)
(9.98718 -4.32217 0)
(9.57006 -4.27021 0)
(9.50293 -4.5097 0)
(9.41152 -4.55281 0)
(9.31733 -3.87526 0)
(8.94442 -3.00479 0)
(8.47764 -2.19001 0)
(8.37651 -0.818229 0)
(7.97744 0.770999 0)
(7.84531 2.45469 0)
(7.51168 4.4668 0)
(7.15254 6.28166 0)
(6.72671 7.55164 0)
(6.54492 9.17912 0)
(6.30742 10.1367 0)
(5.49851 9.72485 0)
(4.86143 8.76936 0)
(4.63044 8.10013 0)
(3.92409 7.21599 0)
(3.05966 6.62376 0)
(2.88277 6.20221 0)
(2.05156 5.2753 0)
(1.77589 5.00975 0)
(1.81958 4.86827 0)
(0.778599 4.24902 0)
(1.01984 4.52684 0)
(0.759812 3.81477 0)
(-0.479508 3.30788 0)
(2.19901 2.23084 0)
(-0.203392 1.9395 0)
(2.81146 1.28978 0)
(0.775201 1.57187 0)
(2.98164 1.32397 0)
(1.23816 1.742 0)
(3.16753 1.50034 0)
(1.50316 1.75565 0)
(3.34691 1.38032 0)
(1.92288 1.87476 0)
(4.00939 1.38259 0)
(2.3889 1.894 0)
(5.0075 1.3253 0)
(2.88228 1.78707 0)
(6.22414 1.32378 0)
(3.5779 1.61345 0)
(7.16103 0.907828 0)
(4.18233 1.64864 0)
(7.69291 0.73682 0)
(4.46178 1.98822 0)
(7.32536 0.724352 0)
(5.28223 4.30384 0)
(5.20783 -0.127381 0)
(5.25287 -0.104383 0)
(5.31727 -0.0899399 0)
(5.36819 -0.102043 0)
(5.44879 -0.0983276 0)
(5.51988 -0.107039 0)
(5.58151 -0.0950453 0)
(5.63383 -0.0873628 0)
(5.66475 -0.0862238 0)
(5.69399 -0.0681525 0)
(5.72045 -0.0791763 0)
(5.73642 -0.0629489 0)
(5.77052 -0.0643889 0)
(5.78099 -0.0590651 0)
(5.81838 -0.042908 0)
(5.83285 -0.049893 0)
(5.86573 -0.0287889 0)
(5.89271 -0.0296514 0)
(5.9185 -0.0248974 0)
(5.95791 -0.0167837 0)
(5.98144 -0.0241971 0)
(6.01805 -0.0119601 0)
(6.04184 -0.012774 0)
(6.0715 -0.011594 0)
(6.09811 -0.00139726 0)
(6.12577 -0.00926748 0)
(6.15357 -0.00521206 0)
(6.18254 -0.00424949 0)
(6.21265 -0.0143265 0)
(6.24185 -0.00678981 0)
(6.27823 -0.0185157 0)
(6.30482 -0.019991 0)
(6.34902 -0.0218997 0)
(6.37466 -0.0340677 0)
(6.42187 -0.0394356 0)
(6.45131 -0.0518396 0)
(6.49281 -0.0658404 0)
(6.53019 -0.0849527 0)
(6.56385 -0.100331 0)
(6.60188 -0.131137 0)
(6.62587 -0.148262 0)
(6.65777 -0.178405 0)
(6.6636 -0.200239 0)
(6.676 -0.208863 0)
(6.66519 -0.226907 0)
(6.65767 -0.205546 0)
(6.62995 -0.186102 0)
(6.62649 -0.160469 0)
(6.57112 -0.0936984 0)
(6.55184 -0.0340883 0)
(6.53138 0.0237576 0)
(6.51108 0.157322 0)
(6.47499 0.236141 0)
(6.51886 0.325529 0)
(6.59787 0.461117 0)
(6.5872 0.447452 0)
(6.74073 0.515055 0)
(6.92499 0.548148 0)
(6.99627 0.400528 0)
(7.3087 0.366433 0)
(7.36118 0.244559 0)
(7.5346 0.0329179 0)
(7.65708 -0.013993 0)
(7.7128 -0.215404 0)
(7.82726 -0.339923 0)
(7.85 -0.410879 0)
(7.93729 -0.601367 0)
(8.01448 -0.589487 0)
(8.13527 -0.703062 0)
(8.22317 -0.80964 0)
(8.38491 -0.78208 0)
(8.6131 -0.900753 0)
(8.75142 -0.909737 0)
(9.01756 -1.00779 0)
(9.37329 -1.15151 0)
(9.59905 -1.17723 0)
(9.93461 -1.44532 0)
(10.232 -1.62727 0)
(10.4721 -1.76247 0)
(10.7262 -2.04455 0)
(10.8059 -2.20115 0)
(10.8846 -2.39825 0)
(10.9437 -2.48801 0)
(10.8714 -2.35787 0)
(10.8483 -2.23133 0)
(10.8071 -2.01486 0)
(10.8497 -1.70529 0)
(10.9484 -1.39443 0)
(10.9534 -1.039 0)
(11.0098 -0.6979 0)
(11.1483 -0.404262 0)
(11.1909 -0.175341 0)
(11.3737 -0.010158 0)
(11.5976 0.120972 0)
(11.7277 0.141762 0)
(11.9397 0.110585 0)
(12.2127 0.00173991 0)
(12.3025 -0.217563 0)
(12.5518 -0.400349 0)
(12.7525 -0.743209 0)
(12.932 -1.11557 0)
(13.0703 -1.44014 0)
(13.3464 -1.89238 0)
(13.3463 -2.37807 0)
(13.6032 -2.75988 0)
(13.5415 -3.31524 0)
(13.6598 -3.66555 0)
(13.4987 -3.99571 0)
(13.6053 -4.31932 0)
(13.3851 -4.50334 0)
(13.4408 -4.67446 0)
(13.4004 -4.81636 0)
(13.486 -4.84307 0)
(13.6772 -4.77032 0)
(13.7713 -4.79958 0)
(14.0854 -4.51639 0)
(14.1375 -4.35355 0)
(14.4325 -4.04541 0)
(14.3318 -3.54724 0)
(14.4037 -3.12491 0)
(14.2889 -2.57911 0)
(14.0546 -1.93322 0)
(13.7682 -1.38361 0)
(13.3953 -0.804783 0)
(12.9013 -0.0738456 0)
(12.2617 0.33733 0)
(11.5849 0.76096 0)
(10.6955 1.10563 0)
(10.0034 1.07842 0)
(9.1613 1.00778 0)
(8.67401 1.03159 0)
(7.97044 0.935739 0)
(7.89126 0.572845 0)
(7.3573 0.431539 0)
(7.41971 0.716965 0)
(6.80265 1.07917 0)
(6.79459 1.17167 0)
(6.37903 0.468676 0)
(6.34992 0.107452 0)
(6.04963 -0.382699 0)
(5.89372 -0.744144 0)
(6.7545 -1.11179 0)
(6.09743 -1.65505 0)
(6.65601 -1.15257 0)
(6.4392 -2.37313 0)
(7.79193 -3.21545 0)
(8.39474 -3.73603 0)
(8.36276 -4.87781 0)
(9.31837 -5.38242 0)
(9.43639 -4.77237 0)
(9.19433 -4.17682 0)
(9.02996 -4.0626 0)
(9.05092 -4.60192 0)
(9.31693 -4.31998 0)
(8.6961 -3.79769 0)
(8.55279 -2.57192 0)
(7.84234 -1.88451 0)
(7.71164 -0.65787 0)
(7.173 1.23554 0)
(7.00759 3.24355 0)
(6.68403 4.6433 0)
(6.68955 6.25377 0)
(6.28591 7.65479 0)
(5.87065 9.25703 0)
(5.79312 10.5556 0)
(5.46547 10.3148 0)
(4.78859 9.18157 0)
(4.40105 8.54403 0)
(4.1266 7.8155 0)
(3.04247 6.9001 0)
(2.78711 6.60704 0)
(3.03353 5.93057 0)
(1.95967 5.23728 0)
(2.02414 5.24767 0)
(2.07176 4.53629 0)
(0.387085 4.66782 0)
(3.22727 3.86742 0)
(0.340967 3.33196 0)
(3.97837 1.87498 0)
(1.04738 2.10206 0)
(3.81222 0.777767 0)
(1.48342 1.41727 0)
(3.78243 0.744422 0)
(1.8841 1.65649 0)
(4.04833 1.19422 0)
(2.18548 2.01129 0)
(4.30621 1.23343 0)
(2.23146 1.98737 0)
(4.97301 0.975878 0)
(2.47617 1.87478 0)
(5.95288 0.569563 0)
(3.20751 1.748 0)
(7.00152 0.275489 0)
(4.33954 1.75535 0)
(7.76881 -0.0538775 0)
(5.25909 1.90289 0)
(8.24525 0.0633751 0)
(6.18913 2.64657 0)
(8.10023 0.59897 0)
(7.16217 3.94084 0)
(7.87247 -0.179513 0)
(7.86349 -0.187799 0)
(7.92313 -0.165545 0)
(7.96768 -0.161669 0)
(8.03902 -0.118411 0)
(8.11625 -0.124332 0)
(8.12905 -0.0944697 0)
(8.18104 -0.0867144 0)
(8.16072 -0.0972704 0)
(8.18407 -0.0667747 0)
(8.19522 -0.0985469 0)
(8.19034 -0.0667554 0)
(8.24384 -0.0758271 0)
(8.21704 -0.0751487 0)
(8.27583 -0.0459086 0)
(8.25989 -0.0724494 0)
(8.28521 -0.0342909 0)
(8.30832 -0.0494432 0)
(8.29767 -0.043332 0)
(8.35097 -0.0258392 0)
(8.33366 -0.0473095 0)
(8.38084 -0.0232672 0)
(8.38389 -0.0298584 0)
(8.40919 -0.0316096 0)
(8.42937 -0.0151746 0)
(8.44466 -0.0254846 0)
(8.46817 -0.026792 0)
(8.48284 -0.0121123 0)
(8.51033 -0.0407409 0)
(8.51413 -0.0231884 0)
(8.55864 -0.0310504 0)
(8.54868 -0.0581325 0)
(8.60159 -0.024183 0)
(8.60226 -0.0731283 0)
(8.637 -0.0625896 0)
(8.66757 -0.0616943 0)
(8.67947 -0.115156 0)
(8.72501 -0.0852152 0)
(8.73186 -0.133801 0)
(8.77232 -0.155809 0)
(8.77013 -0.143704 0)
(8.81168 -0.21266 0)
(8.78285 -0.187488 0)
(8.82051 -0.207356 0)
(8.77905 -0.230653 0)
(8.79179 -0.167903 0)
(8.74852 -0.192988 0)
(8.75523 -0.127159 0)
(8.70103 -0.0760408 0)
(8.68634 -0.0353055 0)
(8.69629 0.0795684 0)
(8.61633 0.116429 0)
(8.69682 0.242486 0)
(8.63137 0.310982 0)
(8.70368 0.344553 0)
(8.79505 0.449705 0)
(8.75118 0.409953 0)
(8.99107 0.41836 0)
(9.00272 0.393678 0)
(9.16153 0.228408 0)
(9.27736 0.175887 0)
(9.33429 0.0295715 0)
(9.48002 -0.147947 0)
(9.51627 -0.223469 0)
(9.56845 -0.378007 0)
(9.71296 -0.531484 0)
(9.75193 -0.579945 0)
(9.81387 -0.719096 0)
(9.98138 -0.812767 0)
(10.1315 -0.849819 0)
(10.2133 -0.962131 0)
(10.4267 -1.03052 0)
(10.6335 -1.09115 0)
(10.8099 -1.19634 0)
(11.1124 -1.30813 0)
(11.3065 -1.42561 0)
(11.5612 -1.61337 0)
(11.8193 -1.77823 0)
(11.9549 -1.92059 0)
(12.075 -2.18862 0)
(12.1231 -2.30177 0)
(12.1084 -2.35851 0)
(12.1133 -2.39335 0)
(11.9422 -2.26604 0)
(11.8243 -2.18286 0)
(11.6915 -1.96368 0)
(11.5138 -1.66849 0)
(11.4264 -1.39366 0)
(11.3239 -1.05081 0)
(11.3141 -0.755985 0)
(11.3912 -0.53537 0)
(11.4809 -0.321771 0)
(11.6025 -0.168663 0)
(11.8698 -0.103759 0)
(11.9906 -0.0391872 0)
(12.1968 -0.0656811 0)
(12.4354 -0.194165 0)
(12.5627 -0.378974 0)
(12.7024 -0.564274 0)
(12.9552 -0.887672 0)
(12.961 -1.22851 0)
(13.1572 -1.58438 0)
(13.1914 -2.02109 0)
(13.2318 -2.46578 0)
(13.2365 -2.84852 0)
(13.2452 -3.30232 0)
(13.1071 -3.65956 0)
(13.077 -3.96726 0)
(13.0773 -4.33579 0)
(13.0029 -4.53328 0)
(13.2159 -4.75463 0)
(13.2628 -4.94748 0)
(13.6082 -4.98997 0)
(13.7304 -5.003 0)
(14.0512 -5.02943 0)
(14.2108 -4.73051 0)
(14.3456 -4.55402 0)
(14.5363 -4.14868 0)
(14.4142 -3.62283 0)
(14.4705 -3.08492 0)
(14.279 -2.51531 0)
(14.1547 -1.74027 0)
(13.7042 -1.14015 0)
(13.5397 -0.445044 0)
(12.9584 0.377409 0)
(12.4792 0.813791 0)
(11.6733 1.43984 0)
(10.9184 1.81827 0)
(9.89299 1.86173 0)
(8.91552 1.61204 0)
(8.16167 1.57111 0)
(7.60136 1.2124 0)
(7.28269 0.951206 0)
(6.92492 0.575056 0)
(6.62599 1.10604 0)
(6.26669 1.2698 0)
(5.85348 1.25024 0)
(6.09429 0.64808 0)
(5.36659 0.297116 0)
(5.85536 -0.444178 0)
(5.48015 -0.966009 0)
(6.38234 -1.10951 0)
(4.67939 -1.42395 0)
(6.30885 -1.52784 0)
(6.13283 -3.17057 0)
(7.34356 -3.58924 0)
(7.28783 -4.09499 0)
(7.48041 -5.31362 0)
(8.35663 -5.54864 0)
(8.58159 -4.79027 0)
(8.54306 -4.25592 0)
(8.89324 -4.21484 0)
(8.97224 -4.57709 0)
(8.95186 -4.20788 0)
(8.42657 -3.40327 0)
(7.88811 -2.31135 0)
(7.38311 -1.38446 0)
(6.9797 -0.265584 0)
(6.50414 1.04796 0)
(6.32798 3.20568 0)
(5.97459 5.03251 0)
(5.81289 6.55658 0)
(5.79542 8.18188 0)
(5.38772 9.38133 0)
(5.18243 10.4436 0)
(5.22344 10.6554 0)
(5.03167 9.70248 0)
(4.31596 8.61721 0)
(4.13664 8.29355 0)
(4.02697 7.55983 0)
(3.30143 6.70295 0)
(3.42748 6.37974 0)
(3.19471 5.47519 0)
(1.79642 5.55646 0)
(4.02073 4.84518 0)
(0.896583 4.58752 0)
(4.41025 3.44438 0)
(1.45242 3.15262 0)
(4.07062 1.4749 0)
(1.52637 1.87683 0)
(3.65378 0.875396 0)
(1.23806 1.73805 0)
(3.28737 0.824931 0)
(1.15736 1.87995 0)
(3.32633 0.887745 0)
(1.43911 1.99355 0)
(3.65679 0.746193 0)
(1.73773 1.94664 0)
(4.37768 0.36423 0)
(2.34526 1.90882 0)
(5.34084 -0.198722 0)
(3.25256 1.78143 0)
(6.28183 -0.461039 0)
(4.56551 1.70056 0)
(7.24433 -0.448279 0)
(5.78896 1.79757 0)
(7.99548 -0.0780006 0)
(7.12359 2.35945 0)
(8.56356 0.742326 0)
(8.27016 2.81991 0)
(10.1304 -0.205929 0)
(10.0874 -0.328577 0)
(10.1684 -0.333798 0)
(10.2196 -0.32151 0)
(10.2326 -0.198012 0)
(10.3402 -0.17774 0)
(10.274 -0.114004 0)
(10.3609 -0.0821592 0)
(10.2902 -0.117445 0)
(10.3025 -0.0588463 0)
(10.329 -0.126647 0)
(10.2526 -0.0840635 0)
(10.3721 -0.0886212 0)
(10.2684 -0.112974 0)
(10.3678 -0.0427822 0)
(10.3466 -0.105022 0)
(10.3233 -0.0406346 0)
(10.4234 -0.0521757 0)
(10.3022 -0.0755061 0)
(10.4456 -0.0132374 0)
(10.3476 -0.0784663 0)
(10.4149 -0.0292977 0)
(10.4263 -0.0356761 0)
(10.3924 -0.0676658 0)
(10.4774 -0.0025424 0)
(10.4193 -0.0607387 0)
(10.4888 -0.0291175 0)
(10.4727 -0.0209359 0)
(10.5002 -0.0638908 0)
(10.5036 -0.019364 0)
(10.5287 -0.0570293 0)
(10.5245 -0.0623442 0)
(10.5443 -0.048744 0)
(10.567 -0.0815436 0)
(10.5499 -0.0881781 0)
(10.6111 -0.0810829 0)
(10.5837 -0.121249 0)
(10.626 -0.126775 0)
(10.6355 -0.122847 0)
(10.6419 -0.188836 0)
(10.6428 -0.148202 0)
(10.6801 -0.201224 0)
(10.6069 -0.213092 0)
(10.6896 -0.168914 0)
(10.5881 -0.235804 0)
(10.6231 -0.155966 0)
(10.6059 -0.146252 0)
(10.523 -0.148669 0)
(10.613 -0.0150779 0)
(10.464 -0.0327684 0)
(10.5752 0.0604946 0)
(10.5018 0.171666 0)
(10.4983 0.1614 0)
(10.594 0.298285 0)
(10.5276 0.333518 0)
(10.679 0.314846 0)
(10.6692 0.404394 0)
(10.803 0.338289 0)
(10.8893 0.263635 0)
(10.9425 0.231469 0)
(11.1304 0.0895296 0)
(11.1113 -0.0385973 0)
(11.2416 -0.156751 0)
(11.3577 -0.310733 0)
(11.3236 -0.421811 0)
(11.4826 -0.56152 0)
(11.507 -0.671665 0)
(11.6019 -0.776815 0)
(11.7016 -0.872128 0)
(11.7971 -0.976361 0)
(11.9385 -1.08018 0)
(12.0331 -1.13118 0)
(12.2192 -1.25365 0)
(12.36 -1.3431 0)
(12.5122 -1.44657 0)
(12.6984 -1.58636 0)
(12.827 -1.72135 0)
(12.9472 -1.88269 0)
(12.9868 -2.01742 0)
(12.9858 -2.19883 0)
(12.9685 -2.24014 0)
(12.8286 -2.24549 0)
(12.6719 -2.30051 0)
(12.4304 -2.1856 0)
(12.1677 -2.04199 0)
(11.9689 -1.81238 0)
(11.7563 -1.49007 0)
(11.6031 -1.23556 0)
(11.5685 -0.939101 0)
(11.4875 -0.657295 0)
(11.5202 -0.501974 0)
(11.578 -0.324064 0)
(11.6079 -0.227141 0)
(11.8018 -0.202274 0)
(11.9111 -0.165652 0)
(12.0678 -0.184144 0)
(12.242 -0.339494 0)
(12.3894 -0.460387 0)
(12.4816 -0.697912 0)
(12.6458 -0.972517 0)
(12.6348 -1.32568 0)
(12.7439 -1.67806 0)
(12.7006 -2.114 0)
(12.7334 -2.48762 0)
(12.632 -2.91295 0)
(12.7048 -3.30364 0)
(12.5268 -3.69448 0)
(12.7127 -4.03662 0)
(12.7174 -4.35883 0)
(12.9322 -4.64982 0)
(13.0613 -4.85634 0)
(13.3415 -5.15346 0)
(13.5174 -5.18458 0)
(13.7669 -5.28317 0)
(13.924 -5.21375 0)
(13.9881 -4.95314 0)
(14.086 -4.63482 0)
(14.0392 -4.23073 0)
(13.947 -3.60805 0)
(13.8433 -3.02213 0)
(13.6452 -2.38786 0)
(13.4566 -1.54837 0)
(13.0443 -0.958768 0)
(12.9671 -0.0940757 0)
(12.4599 0.648758 0)
(12.1963 1.32425 0)
(11.3607 1.85233 0)
(10.9789 2.5122 0)
(9.91221 2.60578 0)
(9.06868 2.53215 0)
(7.78395 2.16191 0)
(7.29388 1.70836 0)
(6.55378 1.18174 0)
(6.58881 0.987872 0)
(5.69102 1.2636 0)
(5.92948 1.6465 0)
(5.12146 1.15378 0)
(5.5443 0.901901 0)
(4.99229 0.227356 0)
(5.62368 -0.570204 0)
(5.05029 -0.949978 0)
(5.41276 -0.677044 0)
(4.03288 -1.66604 0)
(6.39414 -2.28356 0)
(5.45119 -3.56034 0)
(6.3822 -3.47411 0)
(6.06809 -4.53163 0)
(6.71682 -5.62361 0)
(7.20044 -5.83449 0)
(7.92161 -5.12807 0)
(8.18085 -4.60612 0)
(8.56358 -4.55616 0)
(8.92711 -4.36936 0)
(8.25026 -4.09474 0)
(8.03773 -2.84644 0)
(7.23453 -1.92723 0)
(6.62281 -1.06728 0)
(6.22846 0.399449 0)
(5.76047 1.85626 0)
(5.42853 3.25143 0)
(5.50276 5.01839 0)
(5.20107 6.43392 0)
(5.2214 8.28292 0)
(4.9803 9.82756 0)
(4.76995 10.4949 0)
(4.71584 10.6485 0)
(4.8696 10.0713 0)
(4.59038 8.78952 0)
(4.07198 8.40966 0)
(4.55364 7.97972 0)
(3.97634 6.68661 0)
(2.95244 6.49782 0)
(4.55999 5.68307 0)
(1.68259 5.44988 0)
(5.16623 4.61666 0)
(1.86893 4.61852 0)
(5.10795 3.28228 0)
(2.43053 3.17551 0)
(4.84493 1.95733 0)
(2.16299 2.16962 0)
(4.13475 1.20351 0)
(1.64156 1.72627 0)
(3.69337 0.853859 0)
(1.48514 1.77692 0)
(3.59427 0.955438 0)
(1.81619 1.91294 0)
(3.92496 0.780095 0)
(2.22685 1.7701 0)
(4.53242 0.0684863 0)
(2.97198 1.47625 0)
(5.26707 -0.50111 0)
(3.87364 1.15703 0)
(6.03382 -0.812443 0)
(5.08814 0.97717 0)
(6.84594 -0.688056 0)
(6.33025 1.11057 0)
(7.69805 -0.292284 0)
(7.62555 1.49602 0)
(8.72192 0.568203 0)
(8.94991 1.79661 0)
(11.6639 -0.211157 0)
(11.6621 -0.314213 0)
(11.7753 -0.346917 0)
(11.9144 -0.337569 0)
(11.8396 -0.195831 0)
(11.9668 -0.202207 0)
(11.8243 -0.0993044 0)
(11.8804 -0.103153 0)
(11.8384 -0.114679 0)
(11.7469 -0.0625282 0)
(11.8809 -0.141919 0)
(11.6939 -0.0768647 0)
(11.8756 -0.108706 0)
(11.7705 -0.103798 0)
(11.7956 -0.0563271 0)
(11.8995 -0.100363 0)
(11.7313 -0.0461087 0)
(11.9416 -0.053334 0)
(11.7679 -0.071834 0)
(11.8739 -0.0292394 0)
(11.8804 -0.0605678 0)
(11.7934 -0.0612054 0)
(11.9378 -0.0139831 0)
(11.8124 -0.0946368 0)
(11.8984 -0.0147165 0)
(11.8856 -0.0487949 0)
(11.8638 -0.0847981 0)
(11.918 0.00900712 0)
(11.9094 -0.105158 0)
(11.9034 -0.0240404 0)
(11.966 -0.0451722 0)
(11.9286 -0.10099 0)
(11.952 -0.0203969 0)
(11.9972 -0.107536 0)
(11.9294 -0.0944526 0)
(12.0137 -0.0749314 0)
(11.9727 -0.150445 0)
(11.9688 -0.12168 0)
(12.0127 -0.133355 0)
(11.9709 -0.199162 0)
(11.9598 -0.138655 0)
(12.0217 -0.199059 0)
(11.8868 -0.204541 0)
(11.9952 -0.149843 0)
(11.9058 -0.214617 0)
(11.8577 -0.150651 0)
(11.9623 -0.114568 0)
(11.7736 -0.131399 0)
(11.9116 -0.0281208 0)
(11.8197 0.0116123 0)
(11.8232 0.0198734 0)
(11.8779 0.161152 0)
(11.8298 0.166285 0)
(11.928 0.207051 0)
(11.9138 0.323215 0)
(12.0475 0.252377 0)
(12.0769 0.320734 0)
(12.1598 0.29818 0)
(12.305 0.1735 0)
(12.3231 0.198124 0)
(12.4745 0.019841 0)
(12.5001 -0.102516 0)
(12.5833 -0.156194 0)
(12.6626 -0.378571 0)
(12.6815 -0.472206 0)
(12.7539 -0.571421 0)
(12.801 -0.74466 0)
(12.845 -0.819772 0)
(12.883 -0.939346 0)
(12.9861 -1.05101 0)
(13.0347 -1.13559 0)
(13.0887 -1.23356 0)
(13.2094 -1.33753 0)
(13.2695 -1.42803 0)
(13.3265 -1.53901 0)
(13.4384 -1.66127 0)
(13.4475 -1.77944 0)
(13.4398 -1.91737 0)
(13.4225 -2.02989 0)
(13.3321 -2.10079 0)
(13.1758 -2.14872 0)
(12.9888 -2.15302 0)
(12.7191 -2.14572 0)
(12.4857 -1.96577 0)
(12.2248 -1.77402 0)
(12.0104 -1.56616 0)
(11.789 -1.27442 0)
(11.5908 -1.11737 0)
(11.5034 -0.879543 0)
(11.3823 -0.635394 0)
(11.396 -0.53925 0)
(11.4125 -0.388086 0)
(11.4562 -0.299393 0)
(11.5194 -0.334569 0)
(11.6742 -0.298462 0)
(11.7109 -0.347487 0)
(11.9043 -0.465128 0)
(11.9348 -0.597452 0)
(12.1115 -0.808363 0)
(12.0679 -1.09407 0)
(12.2047 -1.39299 0)
(12.0974 -1.76637 0)
(12.2458 -2.12414 0)
(12.084 -2.51847 0)
(12.2611 -2.91593 0)
(12.1812 -3.30535 0)
(12.3686 -3.69643 0)
(12.4102 -4.04931 0)
(12.6851 -4.45891 0)
(12.7334 -4.75751 0)
(12.9305 -5.08208 0)
(13.1165 -5.32765 0)
(13.1832 -5.43991 0)
(13.3684 -5.44313 0)
(13.3227 -5.36267 0)
(13.3314 -5.02776 0)
(13.259 -4.64135 0)
(13.1478 -4.23124 0)
(13.0424 -3.48556 0)
(12.7901 -2.89383 0)
(12.6559 -2.14937 0)
(12.2761 -1.32684 0)
(12.0735 -0.688253 0)
(11.8495 0.131238 0)
(11.5459 0.946388 0)
(11.2059 1.69797 0)
(10.6742 2.31099 0)
(10.2466 2.93518 0)
(9.56295 3.18602 0)
(8.73549 3.31255 0)
(7.89705 2.9599 0)
(7.14367 2.39017 0)
(6.48885 1.53694 0)
(6.18603 1.48279 0)
(5.36761 1.57915 0)
(5.28544 1.84159 0)
(5.15121 1.37341 0)
(4.84895 0.984869 0)
(5.25278 0.0782552 0)
(5.13957 -0.428287 0)
(4.67171 -0.585802 0)
(4.58272 -0.590923 0)
(4.27351 -2.09684 0)
(5.7761 -2.66112 0)
(4.53813 -3.14886 0)
(5.22994 -3.77593 0)
(5.30991 -4.90207 0)
(5.7143 -5.80734 0)
(6.10714 -6.3322 0)
(7.11133 -5.592 0)
(7.25787 -5.23796 0)
(7.70137 -4.80327 0)
(7.75066 -4.28583 0)
(7.50341 -3.66287 0)
(6.91113 -2.49785 0)
(6.47967 -1.29629 0)