/*--------------------------------*- C++ -*----------------------------------*\
| =========                 |                                                 |
| \\      /  F ield         | OpenFOAM: The Open Source CFD Toolbox           |
|  \\    /   O peration     | Version:  2.4.0                                 |
|   \\  /    A nd           | Web:      www.OpenFOAM.org                      |
|    \\/     M anipulation  |                                                 |
\*---------------------------------------------------------------------------*/
FoamFile
{
    version     2.0;
    format      ascii;
    class       volSymmTensorField;
    location    "0.76";
    object      UPrime2Mean;
}
// * * * * * * * * * * * * * * * * * * * * * * * * * * * * * * * * * * * * * //

dimensions      [0 2 -2 0 0 0 0];

internalField   nonuniform List<symmTensor> 
8800
(
(0.00220606 0.000134817 0 0.00025096 0 0)
(0.0421936 -0.00165218 0 9.16905e-05 0 0)
(0.0825323 -0.000143301 0 2.05002e-05 0 0)
(0.10349 0.000254794 0 7.28536e-06 0 0)
(0.117708 0.000202819 0 4.14246e-06 0 0)
(0.130673 0.000138304 0 4.57119e-06 0 0)
(0.137132 9.67471e-05 0 5.23349e-06 0 0)
(0.144781 1.59521e-05 0 6.38672e-06 0 0)
(0.147808 9.75988e-06 0 7.01297e-06 0 0)
(0.153307 -5.37979e-05 0 8.29064e-06 0 0)
(0.154796 -3.00458e-05 0 8.82605e-06 0 0)
(0.159867 -0.000110709 0 1.02896e-05 0 0)
(0.160581 -8.053e-05 0 1.05926e-05 0 0)
(0.167115 -0.000181287 0 1.21596e-05 0 0)
(0.168335 -0.000237241 0 1.29736e-05 0 0)
(0.178151 -0.000187841 0 1.50243e-05 0 0)
(0.188766 -0.00131751 0 2.83937e-05 0 0)
(0.196545 0.00232405 0 0.000107091 0 0)
(0.306681 -0.0223261 0 0.00228045 0 0)
(0.32706 0.0367352 0 0.00718971 0 0)
(0.0120171 0.00373956 0 0.00150156 0 0)
(0.00164189 -0.00141027 0 0.00198101 0 0)
(0.0135911 -0.0026463 0 0.000808099 0 0)
(0.0262206 -0.00253834 0 0.000304011 0 0)
(0.0392261 -0.00222975 0 0.000164953 0 0)
(0.0612215 -0.00211427 0 0.000130363 0 0)
(0.0758717 -0.00188558 0 0.000113753 0 0)
(0.097935 -0.00155374 0 8.89325e-05 0 0)
(0.110339 -0.00146954 0 8.20333e-05 0 0)
(0.127714 -0.00135781 0 7.45354e-05 0 0)
(0.137771 -0.00130391 0 7.62581e-05 0 0)
(0.153926 -0.00152946 0 8.05999e-05 0 0)
(0.160849 -0.00150426 0 9.30696e-05 0 0)
(0.181354 -0.00212154 0 0.000109138 0 0)
(0.185905 -0.00196031 0 0.000130587 0 0)
(0.215005 -0.00446213 0 0.000214056 0 0)
(0.229086 -0.00156827 0 0.000240103 0 0)
(0.270401 -0.0150561 0 0.00120564 0 0)
(0.354923 -0.00671628 0 0.000881748 0 0)
(0.46086 -0.0785567 0 0.0257396 0 0)
(0.0166965 0.00249222 0 0.000869389 0 0)
(0.00845477 0.000898759 0 0.0021802 0 0)
(0.021442 0.000646268 0 0.00135222 0 0)
(0.0242575 -0.000327746 0 0.000725551 0 0)
(0.0327163 -0.000471354 0 0.0005598 0 0)
(0.0407965 -0.00158295 0 0.000541823 0 0)
(0.0513182 -0.00233197 0 0.000506232 0 0)
(0.0648936 -0.00233891 0 0.000395815 0 0)
(0.0831578 -0.00326989 0 0.000354487 0 0)
(0.0943849 -0.00289956 0 0.000268867 0 0)
(0.119241 -0.00365239 0 0.000254929 0 0)
(0.127142 -0.00350573 0 0.000249051 0 0)
(0.157085 -0.00452708 0 0.000303979 0 0)
(0.160972 -0.004401 0 0.000345764 0 0)
(0.203047 -0.00653587 0 0.000514315 0 0)
(0.193508 -0.00608145 0 0.00059663 0 0)
(0.269771 -0.0105514 0 0.00107072 0 0)
(0.236333 -0.0110058 0 0.00145525 0 0)
(0.382364 -0.0263471 0 0.00517629 0 0)
(0.34779 -0.0564709 0 0.0281756 0 0)
(0.0477066 0.00132752 0 0.000516055 0 0)
(0.0481882 0.00026577 0 0.0015601 0 0)
(0.0769426 0.000601053 0 0.00123628 0 0)
(0.0838551 -5.03579e-05 0 0.000733001 0 0)
(0.105089 0.000930806 0 0.000677899 0 0)
(0.109896 -0.000450009 0 0.000775424 0 0)
(0.130672 -0.00090413 0 0.000834145 0 0)
(0.130992 -0.000931082 0 0.000764699 0 0)
(0.161723 -0.00347795 0 0.000755438 0 0)
(0.151616 -0.00275457 0 0.000601007 0 0)
(0.197944 -0.00524389 0 0.000560251 0 0)
(0.174816 -0.00467767 0 0.00057887 0 0)
(0.238709 -0.00729303 0 0.000615766 0 0)
(0.199915 -0.00645016 0 0.000752013 0 0)
(0.286865 -0.0108483 0 0.0009753 0 0)
(0.222197 -0.00824927 0 0.00118469 0 0)
(0.34753 -0.0162828 0 0.00171868 0 0)
(0.240558 -0.0120181 0 0.00293653 0 0)
(0.434718 -0.0286686 0 0.00690902 0 0)
(0.267211 -0.0342336 0 0.0263155 0 0)
(0.183117 0.00080863 0 0.000404348 0 0)
(0.173804 -0.000598694 0 0.0011871 0 0)
(0.197362 -0.00166107 0 0.00114437 0 0)
(0.193526 -0.00227367 0 0.000764982 0 0)
(0.214886 -0.00136822 0 0.000699138 0 0)
(0.208687 -0.00304906 0 0.000823551 0 0)
(0.235955 -0.0031012 0 0.000997016 0 0)
(0.221163 -0.00238644 0 0.000944475 0 0)
(0.261911 -0.00620807 0 0.00109994 0 0)
(0.233339 -0.00410856 0 0.000923879 0 0)
(0.289096 -0.00865898 0 0.000953662 0 0)
(0.246212 -0.00636455 0 0.000953967 0 0)
(0.315519 -0.0116541 0 0.00107879 0 0)
(0.259471 -0.00816876 0 0.00120579 0 0)
(0.34062 -0.0164165 0 0.00163721 0 0)
(0.269855 -0.00976325 0 0.00182846 0 0)
(0.365908 -0.0222562 0 0.00283414 0 0)
(0.273874 -0.0114539 0 0.00471768 0 0)
(0.395323 -0.0285896 0 0.00927758 0 0)
(0.267656 -0.0141153 0 0.0359019 0 0)
(0.240362 -0.00349821 0 0.000856316 0 0)
(0.19422 -0.00335224 0 0.00158565 0 0)
(0.188077 -0.00614454 0 0.00175678 0 0)
(0.165268 -0.00513937 0 0.00124537 0 0)
(0.174497 -0.00630101 0 0.00138406 0 0)
(0.158876 -0.00591564 0 0.00139858 0 0)
(0.170945 -0.00694664 0 0.0016899 0 0)
(0.155723 -0.00534837 0 0.0014801 0 0)
(0.172273 -0.00891542 0 0.00196312 0 0)
(0.158585 -0.00669715 0 0.00153993 0 0)
(0.175843 -0.0107633 0 0.00199947 0 0)
(0.166374 -0.0084435 0 0.00167577 0 0)
(0.180139 -0.0126233 0 0.00228448 0 0)
(0.177494 -0.00987427 0 0.00200264 0 0)
(0.183194 -0.0148048 0 0.00316745 0 0)
(0.190546 -0.0110583 0 0.00268077 0 0)
(0.183199 -0.0159635 0 0.00509259 0 0)
(0.204066 -0.0107658 0 0.00576402 0 0)
(0.180365 -0.0115545 0 0.014337 0 0)
(0.21848 -0.00265015 0 0.0311736 0 0)
(0.11398 -0.00631829 0 0.00190728 0 0)
(0.105046 -0.0076071 0 0.00299773 0 0)
(0.0921453 -0.00612572 0 0.00275751 0 0)
(0.097002 -0.00827354 0 0.00265174 0 0)
(0.102396 -0.00702918 0 0.00279312 0 0)
(0.101397 -0.00692273 0 0.00283012 0 0)
(0.110685 -0.00668891 0 0.00286512 0 0)
(0.106827 -0.00680178 0 0.0029308 0 0)
(0.116235 -0.00646596 0 0.0031613 0 0)
(0.118213 -0.00722453 0 0.00310911 0 0)
(0.120446 -0.00659356 0 0.00334783 0 0)
(0.131435 -0.00749423 0 0.00338112 0 0)
(0.128775 -0.00621617 0 0.00377796 0 0)
(0.1444 -0.00735586 0 0.00391479 0 0)
(0.139122 -0.00444434 0 0.00479884 0 0)
(0.15772 -0.00660386 0 0.00485279 0 0)
(0.149662 -2.22462e-05 0 0.0068705 0 0)
(0.17453 -0.00275784 0 0.00884268 0 0)
(0.160702 0.0124214 0 0.0157989 0 0)
(0.200379 0.0115036 0 0.032661 0 0)
(0.180049 -0.00629217 0 0.00280829 0 0)
(0.206867 -0.0132277 0 0.00630422 0 0)
(0.171232 -0.00440364 0 0.00436778 0 0)
(0.204463 -0.0102345 0 0.00414338 0 0)
(0.207273 -0.00662444 0 0.00436637 0 0)
(0.203496 -0.00696258 0 0.00464541 0 0)
(0.229811 -0.00507962 0 0.00409313 0 0)
(0.211744 -0.00707561 0 0.00485564 0 0)
(0.240707 -0.00305538 0 0.00445528 0 0)
(0.223982 -0.00650152 0 0.00509177 0 0)
(0.254564 -0.0013934 0 0.00460479 0 0)
(0.234244 -0.00494748 0 0.00535661 0 0)
(0.276647 0.00114529 0 0.00503797 0 0)
(0.243207 -0.00290203 0 0.00597435 0 0)
(0.297346 0.00582796 0 0.00574995 0 0)
(0.254831 0.000374847 0 0.00676683 0 0)
(0.31989 0.0133423 0 0.00732047 0 0)
(0.270011 0.00806512 0 0.0108079 0 0)
(0.344269 0.0294867 0 0.0149427 0 0)
(0.295892 0.0272288 0 0.0321027 0 0)
(0.290431 -0.0025063 0 0.00312752 0 0)
(0.297225 -0.00639985 0 0.00896609 0 0)
(0.272838 0.00149139 0 0.00476869 0 0)
(0.266516 -0.0023737 0 0.00495797 0 0)
(0.303416 -0.000141689 0 0.00482106 0 0)
(0.254525 -1.52798e-05 0 0.00550219 0 0)
(0.335364 0.00164432 0 0.00429554 0 0)
(0.251429 0.000558425 0 0.0057931 0 0)
(0.353753 0.00462945 0 0.00456506 0 0)
(0.255208 0.00167853 0 0.00598412 0 0)
(0.370649 0.00716953 0 0.00473259 0 0)
(0.26311 0.00425947 0 0.00618732 0 0)
(0.38917 0.010323 0 0.00525402 0 0)
(0.274414 0.00706288 0 0.00671103 0 0)
(0.406099 0.0153609 0 0.00553747 0 0)
(0.28894 0.0122664 0 0.00717295 0 0)
(0.420354 0.022794 0 0.00654226 0 0)
(0.308443 0.0226622 0 0.0104133 0 0)
(0.434327 0.0382605 0 0.0125895 0 0)
(0.346503 0.0451271 0 0.0269703 0 0)
(0.264895 0.00307198 0 0.00259959 0 0)
(0.261592 0.00654794 0 0.00726343 0 0)
(0.256279 0.00584141 0 0.0038121 0 0)
(0.225005 0.00731408 0 0.00403031 0 0)
(0.257742 0.0066821 0 0.00392304 0 0)
(0.221992 0.00743633 0 0.00459055 0 0)
(0.26529 0.00734699 0 0.00358129 0 0)
(0.217862 0.00967262 0 0.00469069 0 0)
(0.268052 0.00934077 0 0.0038241 0 0)
(0.223163 0.0104839 0 0.00492281 0 0)
(0.272178 0.01104 0 0.00394682 0 0)
(0.233984 0.0130232 0 0.00491058 0 0)
(0.278059 0.0129189 0 0.00425331 0 0)
(0.248359 0.0154453 0 0.00526523 0 0)
(0.281466 0.0160021 0 0.00438121 0 0)
(0.267462 0.0203365 0 0.00547261 0 0)
(0.281421 0.0208951 0 0.00516763 0 0)
(0.294823 0.0300066 0 0.00765707 0 0)
(0.280066 0.0314258 0 0.00986898 0 0)
(0.347664 0.0492205 0 0.0199567 0 0)
(0.127072 0.00305236 0 0.0023214 0 0)
(0.125124 0.00679711 0 0.00558139 0 0)
(0.107673 0.0041145 0 0.00344606 0 0)
(0.119391 0.00763689 0 0.00309304 0 0)
(0.10418 0.00574095 0 0.00348336 0 0)
(0.123941 0.00722594 0 0.00399861 0 0)
(0.105295 0.00518901 0 0.00326404 0 0)
(0.129717 0.00954324 0 0.00375766 0 0)
(0.101312 0.00601786 0 0.00326319 0 0)
(0.139576 0.00977756 0 0.00389384 0 0)
(0.101922 0.00646102 0 0.00334028 0 0)
(0.150972 0.0108893 0 0.00370027 0 0)
(0.104853 0.00726478 0 0.00333003 0 0)
(0.163435 0.0119928 0 0.00371784 0 0)
(0.106606 0.00864859 0 0.0033204 0 0)
(0.179163 0.0142996 0 0.00378992 0 0)
(0.109305 0.0114762 0 0.00371127 0 0)
(0.201489 0.0199437 0 0.00522335 0 0)
(0.1165 0.0195526 0 0.00707855 0 0)
(0.242577 0.0333672 0 0.0144408 0 0)
(0.0320086 0.000928408 0 0.00215576 0 0)
(0.0278302 0.00194655 0 0.00443998 0 0)
(0.020523 0.000820851 0 0.00307845 0 0)
(0.0338236 0.00325156 0 0.00260338 0 0)
(0.0221465 0.00163813 0 0.00312876 0 0)
(0.0404983 0.00283335 0 0.00321262 0 0)
(0.0263371 0.00103113 0 0.00285313 0 0)
(0.0457378 0.00358906 0 0.00304772 0 0)
(0.0279201 0.0013664 0 0.00272347 0 0)
(0.0522941 0.00369573 0 0.00294362 0 0)
(0.0315245 0.00134872 0 0.00268527 0 0)
(0.0595667 0.00386269 0 0.00264779 0 0)
(0.037103 0.00178039 0 0.00252912 0 0)
(0.0668442 0.00409436 0 0.0025123 0 0)
(0.0432666 0.00234776 0 0.00235597 0 0)
(0.0756871 0.00510966 0 0.00241175 0 0)
(0.0519027 0.00452857 0 0.00252953 0 0)
(0.0895014 0.00911143 0 0.00330416 0 0)
(0.067975 0.0121314 0 0.00504193 0 0)
(0.116323 0.021216 0 0.0101467 0 0)
(0.012415 -0.00118299 0 0.00172776 0 0)
(0.00424249 -0.00175212 0 0.00329864 0 0)
(0.00439003 -0.00152061 0 0.00243875 0 0)
(0.00581597 -0.000342741 0 0.00185641 0 0)
(0.00859516 -0.00109847 0 0.00233092 0 0)
(0.0115961 -0.000796714 0 0.00220677 0 0)
(0.0130696 -0.00129168 0 0.00211922 0 0)
(0.015833 -0.00071221 0 0.00208329 0 0)
(0.0162095 -0.000955094 0 0.00189835 0 0)
(0.0198631 -0.000477551 0 0.00191391 0 0)
(0.021047 -0.000935864 0 0.00180583 0 0)
(0.0249746 -0.000242293 0 0.00165947 0 0)
(0.0268941 -0.000586173 0 0.00160435 0 0)
(0.031168 -8.10059e-06 0 0.00145905 0 0)
(0.0335997 -8.61854e-05 0 0.00140441 0 0)
(0.0388994 0.000938886 0 0.00135875 0 0)
(0.0429105 0.00196975 0 0.00151999 0 0)
(0.0512811 0.00481862 0 0.00202243 0 0)
(0.0607954 0.00902452 0 0.00351449 0 0)
(0.0775346 0.0169496 0 0.0073035 0 0)
(0.0118499 -0.00137315 0 0.0014023 0 0)
(0.0030137 -0.00223509 0 0.00291966 0 0)
(0.00387662 -0.0022257 0 0.00234395 0 0)
(0.00490845 -0.00118382 0 0.00150307 0 0)
(0.0076438 -0.0012911 0 0.00177619 0 0)
(0.0106456 -0.00189023 0 0.00177341 0 0)
(0.0132454 -0.00185118 0 0.00181073 0 0)
(0.0146517 -0.0019745 0 0.00171902 0 0)
(0.0167909 -0.00169801 0 0.00152094 0 0)
(0.0187668 -0.00163667 0 0.00149828 0 0)
(0.0217221 -0.00166159 0 0.00144674 0 0)
(0.0241467 -0.00151492 0 0.00129563 0 0)
(0.0275381 -0.00138278 0 0.00120891 0 0)
(0.0305708 -0.00138871 0 0.00107342 0 0)
(0.034531 -0.000915367 0 0.000966442 0 0)
(0.0388603 -0.000511991 0 0.00090877 0 0)
(0.0445825 0.000879791 0 0.000986126 0 0)
(0.0525193 0.00278667 0 0.00133551 0 0)
(0.0642869 0.00696317 0 0.00236571 0 0)
(0.0808942 0.013635 0 0.00519875 0 0)
(0.0124235 -0.00130761 0 0.00104919 0 0)
(0.00278083 -0.00167685 0 0.00248447 0 0)
(0.00391736 -0.00222262 0 0.00217915 0 0)
(0.0053205 -0.00142991 0 0.00133456 0 0)
(0.00922962 -0.00128245 0 0.00145026 0 0)
(0.0106778 -0.00171782 0 0.00148548 0 0)
(0.0147527 -0.00206395 0 0.00161592 0 0)
(0.0153231 -0.00225752 0 0.00159546 0 0)
(0.0193507 -0.00204012 0 0.00140115 0 0)
(0.0196316 -0.0017335 0 0.0012967 0 0)
(0.0242732 -0.00175793 0 0.00118468 0 0)
(0.0246212 -0.00169824 0 0.00109349 0 0)
(0.0297741 -0.00152347 0 0.000955756 0 0)
(0.0303451 -0.0017227 0 0.000880077 0 0)
(0.0357302 -0.00106837 0 0.00072234 0 0)
(0.0371065 -0.00105118 0 0.000681504 0 0)
(0.0438755 0.000474755 0 0.000653534 0 0)
(0.0485819 0.00144248 0 0.000849309 0 0)
(0.0605106 0.00524631 0 0.00151699 0 0)
(0.0739279 0.00969801 0 0.00318827 0 0)
(0.01321 -0.00132159 0 0.000707005 0 0)
(0.00361131 -0.000717747 0 0.00191296 0 0)
(0.00388677 -0.00157788 0 0.00179251 0 0)
(0.00594705 -0.00121741 0 0.00111403 0 0)
(0.0114597 -0.00131704 0 0.0011852 0 0)
(0.0116402 -0.00144118 0 0.00119466 0 0)
(0.0164496 -0.00189742 0 0.00129569 0 0)
(0.0148215 -0.00178912 0 0.00130122 0 0)
(0.0190456 -0.00186674 0 0.00117612 0 0)
(0.0163913 -0.00125247 0 0.00102145 0 0)
(0.0206261 -0.00139735 0 0.000888496 0 0)
(0.0170528 -0.00104329 0 0.000811365 0 0)
(0.0211764 -0.00107049 0 0.000663137 0 0)
(0.0172164 -0.000941453 0 0.000646682 0 0)
(0.0210173 -0.000650103 0 0.000484386 0 0)
(0.0176707 -0.000493782 0 0.00050284 0 0)
(0.0219648 0.000441427 0 0.000407752 0 0)
(0.0211974 0.000969154 0 0.000557948 0 0)
(0.0289045 0.00336138 0 0.00092547 0 0)
(0.035737 0.00554232 0 0.0018206 0 0)
(0.012412 -0.00169824 0 0.000582292 0 0)
(0.00329746 -0.000629396 0 0.00177552 0 0)
(0.00373882 -0.0011939 0 0.00150418 0 0)
(0.00653879 -0.00110366 0 0.000896841 0 0)
(0.0102895 -0.00126292 0 0.00088805 0 0)
(0.00869842 -0.00105639 0 0.000931076 0 0)
(0.00973451 -0.00103236 0 0.000971686 0 0)
(0.00675926 -0.000390147 0 0.000902356 0 0)
(0.00671704 -0.000315489 0 0.000767974 0 0)
(0.00492077 0.000370128 0 0.000609854 0 0)
(0.00470686 0.000227703 0 0.00049604 0 0)
(0.00469294 0.000720837 0 0.00044767 0 0)
(0.00404227 0.000469177 0 0.000348097 0 0)
(0.00617371 0.000910747 0 0.000347777 0 0)
(0.00511558 0.000506011 0 0.000246748 0 0)
(0.00893852 0.00102521 0 0.000277418 0 0)
(0.00811546 0.000508875 0 0.000231947 0 0)
(0.012861 0.00129981 0 0.000309917 0 0)
(0.0142846 0.00123048 0 0.000624379 0 0)
(0.0207009 0.00285322 0 0.000875436 0 0)
(0.0120419 -0.00270658 0 0.000875043 0 0)
(0.00212605 -0.00110594 0 0.00220219 0 0)
(0.00178762 -0.000486597 0 0.00141387 0 0)
(0.0025194 -4.0482e-05 0 0.000771507 0 0)
(0.00240706 0.000424721 0 0.000617624 0 0)
(0.00324724 0.0011341 0 0.000566781 0 0)
(0.00580856 0.00148628 0 0.000517352 0 0)
(0.0124819 0.00185573 0 0.000421996 0 0)
(0.0166357 0.00167251 0 0.00032208 0 0)
(0.0270723 0.00177248 0 0.000234336 0 0)
(0.0294741 0.00144687 0 0.00017837 0 0)
(0.042325 0.00157971 0 0.000160733 0 0)
(0.0415581 0.00119362 0 0.000130483 0 0)
(0.0565212 0.00143655 0 0.000128171 0 0)
(0.0528499 0.000758572 0 9.64013e-05 0 0)
(0.0679666 0.00119518 0 0.00010915 0 0)
(0.0625318 -0.000116945 0 0.000104143 0 0)
(0.073601 0.000931355 0 0.00015007 0 0)
(0.0692865 -0.000993387 0 0.00029272 0 0)
(0.0718996 0.00186676 0 0.000579539 0 0)
(0.0116447 -0.00378212 0 0.00149997 0 0)
(0.00145909 0.00136131 0 0.00197414 0 0)
(0.0104134 0.00274687 0 0.00081797 0 0)
(0.020997 0.00242435 0 0.000315551 0 0)
(0.033137 0.00218968 0 0.000178144 0 0)
(0.0498684 0.00199178 0 0.000133501 0 0)
(0.0643287 0.00162986 0 0.000111179 0 0)
(0.0813926 0.00135379 0 8.67011e-05 0 0)
(0.0912112 0.00102207 0 6.86104e-05 0 0)
(0.106028 0.000910458 0 5.4929e-05 0 0)
(0.11062 0.000704317 0 4.74487e-05 0 0)
(0.124625 0.000742085 0 4.55111e-05 0 0)
(0.124961 0.000533179 0 4.16581e-05 0 0)
(0.139283 0.000639618 0 3.80483e-05 0 0)
(0.136006 0.000249442 0 3.24537e-05 0 0)
(0.149262 0.000387789 0 3.16357e-05 0 0)
(0.142646 -0.000442927 0 3.58185e-05 0 0)
(0.149478 0.000112094 0 4.58083e-05 0 0)
(0.143823 -0.00156309 0 0.000100544 0 0)
(0.133661 0.000768751 0 0.000345669 0 0)
(0.00219676 -0.000135764 0 0.000250942 0 0)
(0.0422505 0.00165094 0 9.08083e-05 0 0)
(0.0825486 0.00014687 0 2.04497e-05 0 0)
(0.102801 -0.000258377 0 7.66911e-06 0 0)
(0.117645 -0.000205961 0 4.64529e-06 0 0)
(0.129336 -0.00015697 0 4.36401e-06 0 0)
(0.136513 -0.00011321 0 4.90106e-06 0 0)
(0.142974 -5.98047e-05 0 4.92812e-06 0 0)
(0.146364 -4.67841e-05 0 5.13944e-06 0 0)
(0.150941 -1.50151e-05 0 4.8437e-06 0 0)
(0.152361 -2.68814e-05 0 4.98552e-06 0 0)
(0.15619 8.25308e-07 0 4.55539e-06 0 0)
(0.156366 -3.03405e-05 0 4.24312e-06 0 0)
(0.159931 -3.55899e-06 0 3.44167e-06 0 0)
(0.158759 -7.39828e-05 0 3.09837e-06 0 0)
(0.161282 -6.15436e-05 0 2.49968e-06 0 0)
(0.15771 -0.000196042 0 2.63013e-06 0 0)
(0.15673 -0.000161669 0 2.9715e-06 0 0)
(0.152104 -0.000563529 0 6.71374e-06 0 0)
(0.137671 0.000749405 0 5.11273e-05 0 0)
(0.620464 -0.313652 0 0.193853 0 0)
(0.703653 -0.372919 0 0.273242 0 0)
(0.703455 -0.358907 0 0.326696 0 0)
(0.731053 -0.312434 0 0.364021 0 0)
(0.735747 -0.262959 0 0.385931 0 0)
(0.84179 -0.227266 0 0.4013 0 0)
(0.909952 -0.218679 0 0.416283 0 0)
(1.10527 -0.240499 0 0.437819 0 0)
(1.2083 -0.272501 0 0.46322 0 0)
(1.41558 -0.316135 0 0.489078 0 0)
(1.47853 -0.344076 0 0.516789 0 0)
(1.66291 -0.383481 0 0.55163 0 0)
(1.6972 -0.3971 0 0.587753 0 0)
(1.87736 -0.432899 0 0.620486 0 0)
(1.91762 -0.450725 0 0.64135 0 0)
(2.1089 -0.50002 0 0.657691 0 0)
(2.14038 -0.540439 0 0.678997 0 0)
(2.34598 -0.613159 0 0.712291 0 0)
(2.35432 -0.659912 0 0.759866 0 0)
(2.6046 -0.735817 0 0.820354 0 0)
(2.64978 -0.772692 0 0.869957 0 0)
(2.96261 -0.856249 0 0.922285 0 0)
(3.02219 -0.908421 0 0.972258 0 0)
(3.36153 -1.00465 0 1.02703 0 0)
(3.42004 -1.06078 0 1.07926 0 0)
(3.78001 -1.16155 0 1.14015 0 0)
(3.84082 -1.21676 0 1.19783 0 0)
(4.22512 -1.33676 0 1.26139 0 0)
(4.29036 -1.40513 0 1.32309 0 0)
(4.69409 -1.54623 0 1.39767 0 0)
(4.75214 -1.62075 0 1.47248 0 0)
(5.19057 -1.77239 0 1.55406 0 0)
(5.24001 -1.84691 0 1.63219 0 0)
(5.74515 -2.01895 0 1.71404 0 0)
(5.77881 -2.10106 0 1.79285 0 0)
(6.33945 -2.29753 0 1.87343 0 0)
(6.31387 -2.37465 0 1.94429 0 0)
(6.88957 -2.57596 0 2.01694 0 0)
(6.77628 -2.63581 0 2.07613 0 0)
(7.3445 -2.82757 0 2.14546 0 0)
(7.13331 -2.853 0 2.19744 0 0)
(7.66895 -3.0242 0 2.26619 0 0)
(7.36719 -3.01153 0 2.31114 0 0)
(7.88567 -3.173 0 2.37947 0 0)
(7.53064 -3.13334 0 2.42526 0 0)
(8.05869 -3.30264 0 2.49818 0 0)
(7.69068 -3.24442 0 2.55125 0 0)
(8.24563 -3.42751 0 2.63913 0 0)
(7.89828 -3.36663 0 2.70806 0 0)
(8.4756 -3.55764 0 2.81992 0 0)
(8.14617 -3.50725 0 2.90794 0 0)
(8.72095 -3.68876 0 3.04236 0 0)
(8.35672 -3.63095 0 3.14142 0 0)
(8.89897 -3.77447 0 3.27481 0 0)
(8.43352 -3.66515 0 3.3536 0 0)
(8.93031 -3.75805 0 3.46318 0 0)
(8.34972 -3.57122 0 3.491 0 0)
(8.82809 -3.63176 0 3.56369 0 0)
(8.1909 -3.39858 0 3.55367 0 0)
(8.71654 -3.4824 0 3.6096 0 0)
(8.08027 -3.25345 0 3.60238 0 0)
(8.67556 -3.40259 0 3.67656 0 0)
(8.01925 -3.18788 0 3.70338 0 0)
(8.63155 -3.38947 0 3.81652 0 0)
(7.87679 -3.13503 0 3.85605 0 0)
(8.43369 -3.3078 0 3.96401 0 0)
(7.64063 -2.98553 0 3.93925 0 0)
(8.16644 -3.04788 0 3.95852 0 0)
(7.40367 -2.74154 0 3.90427 0 0)
(8.00027 -2.77651 0 3.94807 0 0)
(7.28468 -2.53119 0 3.96828 0 0)
(7.96675 -2.55515 0 4.01923 0 0)
(7.29315 -2.32204 0 4.03291 0 0)
(8.07472 -2.38203 0 4.08221 0 0)
(7.42092 -2.17572 0 4.14424 0 0)
(8.2719 -2.27689 0 4.25759 0 0)
(7.65884 -2.08814 0 4.38142 0 0)
(8.53345 -2.22809 0 4.56403 0 0)
(7.88798 -2.03799 0 4.72584 0 0)
(8.77465 -2.18317 0 4.95015 0 0)
(7.95726 -1.96158 0 5.09608 0 0)
(8.94185 -2.13225 0 5.28031 0 0)
(7.92089 -1.87533 0 5.37205 0 0)
(9.05515 -2.11632 0 5.51093 0 0)
(7.90606 -1.80503 0 5.5483 0 0)
(8.97261 -2.08303 0 5.6827 0 0)
(7.99076 -1.7425 0 5.7192 0 0)
(8.79766 -1.9878 0 5.92137 0 0)
(8.11581 -1.6886 0 6.01052 0 0)
(8.76996 -1.85594 0 6.24639 0 0)
(8.26869 -1.64782 0 6.35268 0 0)
(8.92107 -1.813 0 6.54236 0 0)
(8.54347 -1.67593 0 6.65083 0 0)
(9.25908 -1.83496 0 6.82777 0 0)
(8.87913 -1.73092 0 6.94995 0 0)
(9.57601 -1.86846 0 7.14555 0 0)
(9.17765 -1.78684 0 7.30748 0 0)
(9.83861 -1.86524 0 7.55061 0 0)
(9.37012 -1.7979 0 7.76012 0 0)
(9.85692 -1.79993 0 8.05365 0 0)
(9.28552 -1.71936 0 8.32776 0 0)
(9.67714 -1.73606 0 8.66702 0 0)
(8.94192 -1.64376 0 9.02 0 0)
(9.39541 -1.73882 0 9.4424 0 0)
(8.49557 -1.6188 0 9.65447 0 0)
(9.11329 -1.80421 0 10.01 0 0)
(8.08187 -1.52401 0 10.0844 0 0)
(8.92995 -1.77872 0 10.2884 0 0)
(7.80468 -1.37249 0 10.2748 0 0)
(8.76809 -1.74319 0 10.5149 0 0)
(7.63342 -1.30638 0 10.4181 0 0)
(8.51271 -1.66847 0 10.565 0 0)
(7.57773 -1.23223 0 10.3737 0 0)
(8.27034 -1.52675 0 10.5035 0 0)
(7.55927 -1.10173 0 10.3737 0 0)
(7.96955 -1.34281 0 10.5639 0 0)
(7.46029 -0.982769 0 10.5779 0 0)
(7.66309 -1.15728 0 10.8214 0 0)
(7.43414 -0.848694 0 10.8923 0 0)
(7.59739 -0.949223 0 11.1076 0 0)
(7.59587 -0.71707 0 11.2303 0 0)
(7.64827 -0.767309 0 11.4173 0 0)
(7.69124 -0.547261 0 11.5672 0 0)
(7.6265 -0.629414 0 11.7219 0 0)
(7.66687 -0.444757 0 11.8499 0 0)
(7.58835 -0.57722 0 11.9897 0 0)
(7.51452 -0.361636 0 12.1133 0 0)
(7.55214 -0.531801 0 12.245 0 0)
(7.47089 -0.283645 0 12.2869 0 0)
(7.55692 -0.503343 0 12.3023 0 0)
(7.6186 -0.297019 0 12.3716 0 0)
(7.66902 -0.500679 0 12.3917 0 0)
(7.89484 -0.357805 0 12.4804 0 0)
(7.78706 -0.495887 0 12.5436 0 0)
(8.06987 -0.431557 0 12.6493 0 0)
(7.83936 -0.47994 0 12.7632 0 0)
(8.16483 -0.417007 0 12.8899 0 0)
(7.8542 -0.378841 0 13.0991 0 0)
(8.13135 -0.325501 0 13.2596 0 0)
(7.81394 -0.207918 0 13.4412 0 0)
(7.98569 -0.221039 0 13.621 0 0)
(7.61146 -0.0279131 0 13.6835 0 0)
(7.84697 -0.0816355 0 13.8217 0 0)
(7.38506 0.148511 0 13.9069 0 0)
(7.57583 0.108906 0 14.216 0 0)
(7.10349 0.299899 0 14.2508 0 0)
(7.33363 0.300071 0 14.3868 0 0)
(6.90214 0.427211 0 14.3872 0 0)
(7.12053 0.470032 0 14.4989 0 0)
(6.68581 0.511532 0 14.4419 0 0)
(6.90152 0.633546 0 14.5575 0 0)
(6.45793 0.554967 0 14.4195 0 0)
(6.67091 0.76801 0 14.4882 0 0)
(6.29479 0.640061 0 14.343 0 0)
(6.46639 0.86443 0 14.3844 0 0)
(6.17538 0.699065 0 14.196 0 0)
(6.31835 0.916158 0 14.2539 0 0)
(6.13189 0.768249 0 14.073 0 0)
(6.20952 0.903828 0 14.1176 0 0)
(6.01739 0.752844 0 14.0294 0 0)
(5.97035 0.846596 0 14.2116 0 0)
(5.85355 0.604299 0 14.1775 0 0)
(5.74021 0.696099 0 14.2146 0 0)
(5.71345 0.441147 0 14.189 0 0)
(5.63415 0.551218 0 14.0443 0 0)
(5.63671 0.226362 0 13.9932 0 0)
(5.57934 0.386402 0 13.9351 0 0)
(5.57105 -0.0666057 0 13.7377 0 0)
(5.48981 0.137425 0 13.5843 0 0)
(5.53276 -0.264126 0 13.3845 0 0)
(5.33807 -0.181102 0 13.147 0 0)
(5.48411 -0.538304 0 12.8507 0 0)
(5.17762 -0.458968 0 12.392 0 0)
(5.43641 -0.85663 0 12.0749 0 0)
(5.1368 -0.640149 0 11.5833 0 0)
(5.40605 -1.02859 0 11.3613 0 0)
(5.13159 -0.761322 0 10.9213 0 0)
(5.3409 -1.18333 0 10.5693 0 0)
(5.07299 -0.865007 0 10.3285 0 0)
(5.29983 -1.16916 0 9.88985 0 0)
(5.095 -0.960443 0 9.78967 0 0)
(5.16931 -1.12215 0 9.09009 0 0)
(4.96074 -1.1223 0 9.13112 0 0)
(5.00546 -1.03086 0 8.20086 0 0)
(4.83629 -1.24753 0 8.53559 0 0)
(4.79874 -0.754084 0 7.4175 0 0)
(4.67272 -1.2793 0 8.2054 0 0)
(4.53778 -0.450955 0 6.86757 0 0)
(4.34061 -1.22857 0 8.16007 0 0)
(4.24167 -0.0348125 0 6.69033 0 0)
(3.90183 -1.05435 0 8.51798 0 0)
(3.86941 0.466312 0 6.87624 0 0)
(3.45928 -0.781114 0 9.34652 0 0)
(3.29633 1.01702 0 7.55485 0 0)
(3.06728 -0.327675 0 10.9237 0 0)
(2.83439 1.9883 0 9.36174 0 0)
(2.69762 0.163402 0 13.494 0 0)
(2.46932 3.42046 0 12.7388 0 0)
(2.75566 2.47939 0 19.5586 0 0)
(0.862592 0.78716 0 22.0564 0 0)
(0.533519 -0.259128 0 0.219813 0 0)
(0.526308 -0.275222 0 0.28616 0 0)
(0.515429 -0.25355 0 0.302374 0 0)
(0.492736 -0.225389 0 0.309535 0 0)
(0.497443 -0.200551 0 0.308545 0 0)
(0.514991 -0.193564 0 0.306727 0 0)
(0.555015 -0.205714 0 0.313815 0 0)
(0.61751 -0.235718 0 0.33166 0 0)
(0.674895 -0.260763 0 0.352428 0 0)
(0.745414 -0.294978 0 0.373712 0 0)
(0.783797 -0.311469 0 0.396398 0 0)
(0.84872 -0.345763 0 0.425511 0 0)
(0.878623 -0.357307 0 0.454809 0 0)
(0.961958 -0.393832 0 0.484822 0 0)
(1.00453 -0.407703 0 0.510283 0 0)
(1.12861 -0.457744 0 0.537386 0 0)
(1.19015 -0.489516 0 0.566939 0 0)
(1.36104 -0.567128 0 0.604693 0 0)
(1.42508 -0.610003 0 0.644422 0 0)
(1.62015 -0.697362 0 0.692981 0 0)
(1.66966 -0.733294 0 0.738515 0 0)
(1.88905 -0.820873 0 0.789824 0 0)
(1.93321 -0.85369 0 0.837779 0 0)
(2.18583 -0.949767 0 0.893541 0 0)
(2.22416 -0.981072 0 0.946205 0 0)
(2.517 -1.08751 0 1.01138 0 0)
(2.56106 -1.12011 0 1.07391 0 0)
(2.90501 -1.24336 0 1.14748 0 0)
(2.96497 -1.28934 0 1.21596 0 0)
(3.3527 -1.43625 0 1.29643 0 0)
(3.41275 -1.49589 0 1.37 0 0)
(3.82482 -1.65947 0 1.45356 0 0)
(3.85623 -1.71991 0 1.52693 0 0)
(4.28024 -1.89117 0 1.61018 0 0)
(4.25813 -1.94262 0 1.68005 0 0)
(4.68786 -2.11632 0 1.7611 0 0)
(4.58105 -2.14397 0 1.82483 0 0)
(5.01134 -2.31137 0 1.89871 0 0)
(4.80328 -2.30506 0 1.9531 0 0)
(5.24898 -2.47094 0 2.02035 0 0)
(4.955 -2.42661 0 2.06573 0 0)
(5.43092 -2.597 0 2.12958 0 0)
(5.08854 -2.52259 0 2.17132 0 0)
(5.60504 -2.70956 0 2.24119 0 0)
(5.25938 -2.62365 0 2.28587 0 0)
(5.80233 -2.83089 0 2.37445 0 0)
(5.48514 -2.75141 0 2.42966 0 0)
(6.02622 -2.9645 0 2.53911 0 0)
(5.73684 -2.89376 0 2.60694 0 0)
(6.24817 -3.08971 0 2.7317 0 0)
(5.94717 -3.01182 0 2.80772 0 0)
(6.42117 -3.17545 0 2.93453 0 0)
(6.05133 -3.0569 0 3.00593 0 0)
(6.50186 -3.18645 0 3.11805 0 0)
(6.02702 -2.99505 0 3.16781 0 0)
(6.49017 -3.11163 0 3.25561 0 0)
(5.93461 -2.84242 0 3.27644 0 0)
(6.44571 -2.98653 0 3.35227 0 0)
(5.88378 -2.67714 0 3.35862 0 0)
(6.43791 -2.88045 0 3.45804 0 0)
(5.93421 -2.589 0 3.47317 0 0)
(6.49134 -2.82595 0 3.59154 0 0)
(6.03402 -2.56704 0 3.61171 0 0)
(6.55211 -2.76824 0 3.71836 0 0)
(6.07162 -2.50638 0 3.72308 0 0)
(6.5164 -2.61859 0 3.77421 0 0)
(5.99518 -2.32859 0 3.7368 0 0)
(6.43337 -2.39136 0 3.76179 0 0)
(5.93362 -2.13142 0 3.74856 0 0)
(6.43011 -2.20786 0 3.82328 0 0)
(5.97993 -1.98749 0 3.84006 0 0)
(6.57703 -2.06684 0 3.93845 0 0)
(6.15412 -1.86697 0 3.95774 0 0)
(6.84951 -1.97999 0 4.0597 0 0)
(6.44294 -1.79423 0 4.12229 0 0)
(7.20123 -1.96335 0 4.27421 0 0)
(6.78434 -1.76012 0 4.40258 0 0)
(7.5331 -1.94693 0 4.60651 0 0)
(7.03875 -1.68129 0 4.74784 0 0)
(7.74847 -1.87028 0 4.97225 0 0)
(7.11484 -1.56515 0 5.08939 0 0)
(7.88611 -1.81071 0 5.2827 0 0)
(7.1915 -1.49572 0 5.36225 0 0)
(7.95384 -1.79197 0 5.50425 0 0)
(7.35994 -1.50086 0 5.51605 0 0)
(7.98623 -1.75793 0 5.67611 0 0)
(7.58645 -1.54167 0 5.71861 0 0)
(8.0573 -1.71181 0 5.922 0 0)
(7.86931 -1.55709 0 6.0199 0 0)
(8.25233 -1.66214 0 6.24356 0 0)
(8.15708 -1.58597 0 6.35177 0 0)
(8.54021 -1.70241 0 6.52765 0 0)
(8.45677 -1.63363 0 6.65841 0 0)
(8.88303 -1.74287 0 6.84312 0 0)
(8.74245 -1.68101 0 6.9802 0 0)
(9.19196 -1.79315 0 7.17249 0 0)
(8.99141 -1.72046 0 7.3564 0 0)
(9.44727 -1.79769 0 7.60288 0 0)
(9.11586 -1.71616 0 7.83479 0 0)
(9.52378 -1.7443 0 8.14134 0 0)
(9.07824 -1.63034 0 8.4244 0 0)
(9.41798 -1.70163 0 8.8043 0 0)
(8.80157 -1.52239 0 9.1336 0 0)
(9.21233 -1.67044 0 9.51201 0 0)
(8.3298 -1.43785 0 9.65948 0 0)
(8.95357 -1.67047 0 9.97934 0 0)
(7.8427 -1.27829 0 10.0402 0 0)
(8.74073 -1.60942 0 10.3008 0 0)
(7.51425 -1.10698 0 10.2752 0 0)
(8.61472 -1.49 0 10.4999 0 0)
(7.34716 -0.94605 0 10.3749 0 0)
(8.53289 -1.28219 0 10.5138 0 0)
(7.34691 -0.789535 0 10.3284 0 0)
(8.5004 -1.05404 0 10.5113 0 0)
(7.37247 -0.709199 0 10.4316 0 0)
(8.385 -0.949118 0 10.639 0 0)
(7.44559 -0.676469 0 10.6485 0 0)
(8.30579 -0.855054 0 10.8618 0 0)
(7.58584 -0.579228 0 10.9548 0 0)
(8.40141 -0.737555 0 11.1786 0 0)
(7.77749 -0.475058 0 11.3311 0 0)
(8.5707 -0.599515 0 11.5318 0 0)
(7.87348 -0.336396 0 11.7042 0 0)
(8.63843 -0.495881 0 11.924 0 0)
(7.84972 -0.170458 0 12.0913 0 0)
(8.60666 -0.439561 0 12.2577 0 0)
(7.77258 -0.0460069 0 12.3627 0 0)
(8.50917 -0.405666 0 12.4482 0 0)
(7.7804 -0.0628434 0 12.5302 0 0)
(8.49735 -0.425323 0 12.5284 0 0)
(7.92074 -0.235855 0 12.6032 0 0)
(8.55871 -0.457945 0 12.6285 0 0)
(8.13534 -0.380899 0 12.7317 0 0)
(8.5856 -0.456193 0 12.8167 0 0)
(8.2353 -0.482187 0 12.9363 0 0)
(8.65311 -0.440287 0 13.0029 0 0)
(8.28027 -0.482601 0 13.1171 0 0)
(8.66246 -0.333416 0 13.2582 0 0)
(8.21189 -0.384146 0 13.4534 0 0)
(8.57973 -0.144388 0 13.601 0 0)
(7.96254 -0.200708 0 13.844 0 0)
(8.38664 0.0446152 0 13.8247 0 0)
(7.7171 -0.0687861 0 13.9972 0 0)
(8.1657 0.234056 0 14.0871 0 0)
(7.36416 0.0883352 0 14.4111 0 0)
(7.95448 0.418121 0 14.4157 0 0)
(7.06987 0.212237 0 14.5606 0 0)
(7.72581 0.553317 0 14.5558 0 0)
(6.73672 0.320476 0 14.6974 0 0)
(7.37777 0.637017 0 14.6375 0 0)
(6.54365 0.516292 0 14.7723 0 0)
(7.06236 0.637569 0 14.5179 0 0)
(6.36155 0.597371 0 14.6226 0 0)
(6.93015 0.697735 0 14.4936 0 0)
(6.25793 0.686104 0 14.5145 0 0)
(6.88157 0.634354 0 14.2381 0 0)
(6.17593 0.781701 0 14.4043 0 0)
(6.82892 0.657129 0 14.2205 0 0)
(6.01475 0.751893 0 14.313 0 0)
(6.62063 0.645798 0 14.3502 0 0)
(5.81201 0.738256 0 14.4266 0 0)
(6.37432 0.506693 0 14.3753 0 0)
(5.65942 0.668174 0 14.4117 0 0)
(6.23521 0.402109 0 14.3075 0 0)
(5.45559 0.579332 0 14.327 0 0)
(6.04714 0.176704 0 14.1871 0 0)
(5.32436 0.471612 0 14.2096 0 0)
(5.89961 0.00876705 0 13.9979 0 0)
(5.27483 0.369964 0 13.8261 0 0)
(5.77822 -0.175725 0 13.7434 0 0)
(5.1704 0.201863 0 13.4414 0 0)
(5.54716 -0.396136 0 13.2398 0 0)
(5.15091 -0.00819411 0 12.7722 0 0)
(5.26756 -0.682472 0 12.4891 0 0)
(5.24957 -0.3561 0 11.9395 0 0)
(5.03706 -1.02373 0 11.585 0 0)
(5.44662 -0.603193 0 11.2826 0 0)
(4.90115 -1.24339 0 10.8471 0 0)
(5.51487 -0.906791 0 10.6325 0 0)
(4.80097 -1.32718 0 10.1403 0 0)
(5.41982 -1.1568 0 10.2109 0 0)
(4.74864 -1.28165 0 9.41847 0 0)
(5.2783 -1.4678 0 9.71128 0 0)
(4.60292 -1.17394 0 8.41472 0 0)
(5.08536 -1.75155 0 9.15831 0 0)
(4.48521 -0.91364 0 7.46579 0 0)
(4.81177 -1.85263 0 8.80671 0 0)
(4.47048 -0.553257 0 6.82419 0 0)
(4.41204 -1.84461 0 8.74711 0 0)
(4.30413 -0.189532 0 6.55609 0 0)
(4.03765 -1.68459 0 9.10826 0 0)
(3.84147 0.304178 0 6.71052 0 0)