/*--------------------------------*- C++ -*----------------------------------*\
| =========                 |                                                 |
| \\      /  F ield         | OpenFOAM: The Open Source CFD Toolbox           |
|  \\    /   O peration     | Version:  2.4.0                                 |
|   \\  /    A nd           | Web:      www.OpenFOAM.org                      |
|    \\/     M anipulation  |                                                 |
\*---------------------------------------------------------------------------*/
FoamFile
{
    version     2.0;
    format      ascii;
    class       volScalarField;
    location    "13";
    object      p;
}
// * * * * * * * * * * * * * * * * * * * * * * * * * * * * * * * * * * * * * //

dimensions      [0 2 -2 0 0 0 0];

internalField   nonuniform List<scalar> 
4400
(
-0.0875934
-0.0828046
-0.0809613
-0.0880328
-0.0848545
-0.0894896
-0.0913547
-0.0861166
-0.094796
-0.0907171
-0.089164
-0.0979234
-0.0913367
-0.0930778
-0.100869
-0.0940706
-0.0962174
-0.103991
-0.0980076
-0.0969799
-0.0876628
-0.0828307
-0.0806439
-0.0882318
-0.0848257
-0.0894414
-0.091628
-0.0858311
-0.0949256
-0.0908435
-0.0888089
-0.0981865
-0.0913112
-0.0928432
-0.101136
-0.0940408
-0.0960054
-0.104209
-0.0981416
-0.0966461
-0.0877897
-0.08277
-0.0804018
-0.0885828
-0.0847394
-0.0894561
-0.0919099
-0.0854368
-0.0951677
-0.0910143
-0.0884559
-0.0986222
-0.0912535
-0.0925692
-0.101545
-0.0939169
-0.0957856
-0.104535
-0.0982
-0.0960378
-0.0878873
-0.0825895
-0.0803016
-0.0889691
-0.0846215
-0.0895308
-0.0920497
-0.0850745
-0.0953923
-0.0911864
-0.0882229
-0.0993783
-0.091246
-0.0923342
-0.102169
-0.0937683
-0.0956037
-0.104864
-0.0981212
-0.0956489
-0.0878975
-0.0823214
-0.0804492
-0.089279
-0.084483
-0.0896635
-0.0919598
-0.0850067
-0.0954479
-0.0913015
-0.0883017
-0.0994999
-0.0914218
-0.0922619
-0.102421
-0.093789
-0.095476
-0.105105
-0.0980088
-0.0954881
-0.0877671
-0.0820927
-0.080898
-0.0894534
-0.0843855
-0.089865
-0.0916823
-0.0853343
-0.0952821
-0.09138
-0.0888211
-0.0992022
-0.0918526
-0.0924474
-0.102287
-0.0941856
-0.0954545
-0.105118
-0.0980928
-0.0955734
-0.0874281
-0.0820815
-0.0817108
-0.0894312
-0.0844572
-0.0900995
-0.0913119
-0.0861294
-0.0948595
-0.0914771
-0.0898228
-0.0984184
-0.0925499
-0.0929588
-0.101612
-0.0949935
-0.0956156
-0.104726
-0.0984864
-0.0959459
-0.0868236
-0.0824058
-0.082894
-0.0891149
-0.084822
-0.0902722
-0.0908822
-0.087415
-0.0941116
-0.0916427
-0.0912107
-0.0971482
-0.093472
-0.0937467
-0.10035
-0.0961465
-0.0960194
-0.103791
-0.0991897
-0.0966547
-0.0859426
-0.0830393
-0.0843646
-0.0884321
-0.0855363
-0.0902664
-0.0903546
-0.0891073
-0.0930001
-0.0918809
-0.09278
-0.0954689
-0.0945135
-0.0946707
-0.0986131
-0.0974815
-0.0966594
-0.102349
-0.100097
-0.0976988
-0.0848259
-0.0838512
-0.085962
-0.0874092
-0.0865617
-0.0899813
-0.0896853
-0.0910111
-0.0915767
-0.0921765
-0.0942755
-0.0935561
-0.0955674
-0.0955636
-0.0966528
-0.0987928
-0.0974658
-0.100569
-0.101035
-0.0990239
-0.0835679
-0.0846654
-0.0874826
-0.0861785
-0.0877645
-0.0893711
-0.0888747
-0.0928431
-0.0900005
-0.0925089
-0.0954641
-0.0916377
-0.0965277
-0.0963018
-0.0947428
-0.0999101
-0.0983378
-0.0986963
-0.101835
-0.100505
-0.0823117
-0.0853259
-0.0887266
-0.0849244
-0.0889545
-0.0885093
-0.0879917
-0.0943129
-0.0884711
-0.0928388
-0.0962109
-0.0899372
-0.0972931
-0.0968393
-0.0931093
-0.100731
-0.0991831
-0.096977
-0.102388
-0.101967
-0.0812205
-0.0857506
-0.0895643
-0.0838409
-0.0899442
-0.0875987
-0.0871455
-0.0952141
-0.0871427
-0.0931
-0.0965282
-0.0886341
-0.0977889
-0.097202
-0.0918883
-0.101217
-0.0999359
-0.0955879
-0.102669
-0.103254
-0.0804196
-0.085941
-0.0900032
-0.083076
-0.0904869
-0.086862
-0.0864561
-0.0955425
-0.0863229
-0.0932364
-0.0965505
-0.0878204
-0.0979903
-0.0974471
-0.0911191
-0.101393
-0.100551
-0.0946174
-0.102719
-0.104252
-0.0799456
-0.0859558
-0.0901668
-0.0826935
-0.0905231
-0.0864261
-0.0860117
-0.0954752
-0.0859876
-0.0932393
-0.0964463
-0.0874806
-0.0979394
-0.0976289
-0.0907697
-0.101331
-0.101001
-0.094095
-0.102613
-0.104899
-0.0797478
-0.0858659
-0.0901885
-0.0826723
-0.0905283
-0.0862776
-0.0858294
-0.0952206
-0.0860504
-0.0931551
-0.0963279
-0.087519
-0.0977416
-0.0977692
-0.0907531
-0.101125
-0.101276
-0.0939485
-0.102431
-0.105194
-0.0797278
-0.0857368
-0.0901208
-0.0829085
-0.0903888
-0.0862789
-0.0858642
-0.0949227
-0.0863251
-0.0930622
-0.0961939
-0.0877971
-0.0975027
-0.0978187
-0.0909688
-0.100871
-0.101362
-0.0940755
-0.10224
-0.105183
-0.0797907
-0.0856283
-0.0899337
-0.0832381
-0.0902038
-0.086282
-0.0860603
-0.0945242
-0.086622
-0.0930182
-0.0959425
-0.0881875
-0.0972884
-0.0976927
-0.0913305
-0.100636
-0.101236
-0.0943681
-0.102089
-0.104931
-0.0798698
-0.0855784
-0.0896656
-0.0835428
-0.0900408
-0.0862246
-0.0863408
-0.0941136
-0.0868385
-0.0930307
-0.0955971
-0.0885852
-0.0971291
-0.0974371
-0.0917261
-0.10044
-0.100977
-0.0947103
-0.101977
-0.104566
-0.0799122
-0.0855972
-0.0893233
-0.0837134
-0.0899808
-0.0861312
-0.0866046
-0.0938344
-0.0869139
-0.0931039
-0.0952295
-0.0888563
-0.0970952
-0.0971653
-0.0920221
-0.100366
-0.100702
-0.0949695
-0.101955
-0.104212
-0.108048
-0.0938955
-0.0982208
-0.184101
-0.256848
-0.266339
-0.261554
-0.256137
-0.21121
-0.137713
-0.073607
-0.032099
-0.00492301
0.0146287
0.0273318
0.0345125
0.0383065
0.0401125
0.0408061
0.0409433
0.0408138
0.0405523
0.0402239
0.0398608
0.0394794
0.0390875
0.0386892
0.0382865
0.0378802
0.0374707
0.0370582
0.0366428
0.0362244
0.0358031
0.0353789
0.0349517
0.0345214
0.0340881
0.0336519
0.0332125
0.0327701
0.0323245
0.0318758
0.031424
0.030969
0.0305108
0.0300494
0.0295848
0.0291169
0.0286457
0.0281711
0.0276933
0.0272121
0.0267275
0.0262395
0.0257481
0.0252532
0.0247548
0.0242529
0.0237476
0.0232386
0.0227262
0.0222101
0.0216903
0.0211669
0.0206398
0.020109
0.0195745
0.0190362
0.0184942
0.0179484
0.0173987
0.0168452
0.0162877
0.0157263
0.015161
0.0145917
0.0140184
0.0134411
0.0128598
0.0122744
0.0116849
0.0110912
0.0104934
0.00989118
0.00928508
0.00867427
0.00805965
0.00744029
0.00681679
0.00618908
0.00555632
0.00492018
0.00427839
0.00363296
0.00298281
0.00232761
0.00166852
0.00100444
0.000335534
-0.108744
-0.0948934
-0.0952069
-0.178104
-0.250206
-0.260034
-0.255299
-0.249662
-0.206947
-0.140276
-0.0825934
-0.042277
-0.0122365
0.0106071
0.0253505
0.0335258
0.0378036
0.0398519
0.0406692
0.0408716
0.0407772
0.0405346
0.0402159
0.0398578
0.0394788
0.0390879
0.03869
0.0382872
0.0378808
0.0374712
0.0370586
0.036643
0.0362246
0.0358032
0.0353789
0.0349517
0.0345214
0.0340882
0.0336519
0.0332125
0.0327701
0.0323245
0.0318758
0.031424
0.030969
0.0305108
0.0300494
0.0295848
0.0291169
0.0286457
0.0281711
0.0276933
0.0272121
0.0267275
0.0262395
0.0257481
0.0252532
0.0247548
0.0242529
0.0237476
0.0232386
0.0227262
0.0222101
0.0216903
0.0211669
0.0206398
0.020109
0.0195745
0.0190362
0.0184942
0.0179484
0.0173987
0.0168452
0.0162877
0.0157263
0.015161
0.0145917
0.0140184
0.0134412
0.0128598
0.0122744
0.0116849
0.0110912
0.0104934
0.00989118
0.00928508
0.00867427
0.00805965
0.00744029
0.00681679
0.00618908
0.00555633
0.00492018
0.00427839
0.00363296
0.00298281
0.00232761
0.00166851
0.00100443
0.000335535
-0.109016
-0.0957038
-0.0935616
-0.173162
-0.244451
-0.253048
-0.247346
-0.241135
-0.201807
-0.143127
-0.0922538
-0.0529783
-0.0197924
0.00650116
0.0233455
0.0325494
0.0373189
0.0396072
0.0405434
0.040807
0.0407448
0.040519
0.0402092
0.0398555
0.0394785
0.0390885
0.0386908
0.038288
0.0378815
0.0374717
0.0370589
0.0366433
0.0362248
0.0358033
0.035379
0.0349518
0.0345215
0.0340882
0.0336519
0.0332125
0.0327701
0.0323245
0.0318758
0.031424
0.030969
0.0305108
0.0300494
0.0295848
0.0291169
0.0286457
0.0281711
0.0276933
0.0272121
0.0267275
0.0262395
0.0257481
0.0252532
0.0247548
0.0242529
0.0237476
0.0232386
0.0227262
0.0222101
0.0216903
0.0211669
0.0206398
0.020109
0.0195745
0.0190362
0.0184942
0.0179484
0.0173987
0.0168451
0.0162877
0.0157263
0.015161
0.0145917
0.0140184
0.0134412
0.0128598
0.0122744
0.0116849
0.0110912
0.0104934
0.00989118
0.00928508
0.00867427
0.00805965
0.00744029
0.00681679
0.00618908
0.00555633
0.00492018
0.00427839
0.00363296
0.00298281
0.00232761
0.00166851
0.00100444
0.000335535
-0.108849
-0.0966965
-0.0939649
-0.168879
-0.236935
-0.244433
-0.237536
-0.230808
-0.19614
-0.146408
-0.10241
-0.063909
-0.0274225
0.00239062
0.0213483
0.0315968
0.0368606
0.0393816
0.0404299
0.04075
0.0407169
0.040506
0.0402038
0.0398539
0.0394786
0.0390892
0.0386917
0.0382889
0.0378821
0.0374722
0.0370593
0.0366436
0.036225
0.0358035
0.0353791
0.0349518
0.0345215
0.0340882
0.0336519
0.0332125
0.0327701
0.0323245
0.0318758
0.031424
0.030969
0.0305108
0.0300494
0.0295848
0.0291169
0.0286457
0.0281711
0.0276933
0.0272121
0.0267275
0.0262395
0.0257481
0.0252532
0.0247548
0.0242529
0.0237476
0.0232386
0.0227262
0.02221
0.0216903
0.0211669
0.0206398
0.020109
0.0195745
0.0190362
0.0184942
0.0179484
0.0173987
0.0168451
0.0162877
0.0157263
0.015161
0.0145917
0.0140184
0.0134412
0.0128598
0.0122744
0.0116849
0.0110912
0.0104934
0.00989118
0.00928508
0.00867427
0.00805965
0.00744029
0.00681679
0.00618908
0.00555633
0.00492018
0.00427839
0.00363296
0.00298281
0.00232761
0.00166851
0.00100444
0.000335536
-0.108511
-0.0982696
-0.0957273
-0.164063
-0.227358
-0.234049
-0.226292
-0.219226
-0.190185
-0.150128
-0.112897
-0.0747609
-0.034858
-0.00164879
0.0193934
0.0306852
0.0364355
0.039179
0.0403314
0.0407021
0.0406941
0.0404959
0.0401999
0.039853
0.039479
0.0390902
0.0386927
0.0382897
0.0378828
0.0374727
0.0370597
0.0366438
0.0362251
0.0358036
0.0353792
0.0349519
0.0345215
0.0340882
0.0336519
0.0332125
0.0327701
0.0323245
0.0318758
0.031424
0.030969
0.0305108
0.0300494
0.0295848
0.0291169
0.0286457
0.0281711
0.0276933
0.0272121
0.0267275
0.0262395
0.0257481
0.0252532
0.0247548
0.0242529
0.0237476
0.0232386
0.0227262
0.02221
0.0216903
0.0211669
0.0206398
0.020109
0.0195745
0.0190362
0.0184942
0.0179484
0.0173987
0.0168451
0.0162877
0.0157263
0.015161
0.0145917
0.0140184
0.0134412
0.0128598
0.0122744
0.0116849
0.0110912
0.0104934
0.00989118
0.00928508
0.00867427
0.00805965
0.00744029
0.00681679
0.00618908
0.00555633
0.00492018
0.00427839
0.00363296
0.00298281
0.00232761
0.00166851
0.00100444
0.000335536
-0.108093
-0.100187
-0.0978859
-0.158123
-0.215649
-0.222119
-0.213984
-0.206717
-0.184069
-0.154224
-0.123517
-0.0852684
-0.0419525
-0.0055334
0.0175169
0.0298294
0.0360499
0.0390022
0.040249
0.0406639
0.0406769
0.0404888
0.0401977
0.0398531
0.03948
0.0390913
0.0386937
0.0382906
0.0378835
0.0374732
0.0370601
0.0366441
0.0362253
0.0358037
0.0353793
0.0349519
0.0345216
0.0340883
0.0336519
0.0332125
0.0327701
0.0323245
0.0318758
0.031424
0.030969
0.0305108
0.0300494
0.0295848
0.0291169
0.0286457
0.0281711
0.0276933
0.0272121
0.0267275
0.0262395
0.0257481
0.0252532
0.0247548
0.0242529
0.0237476
0.0232386
0.0227262
0.02221
0.0216903
0.0211669
0.0206398
0.020109
0.0195745
0.0190362
0.0184942
0.0179484
0.0173987
0.0168451
0.0162877
0.0157263
0.015161
0.0145917
0.0140184
0.0134412
0.0128598
0.0122744
0.0116849
0.0110912
0.0104934
0.00989118
0.00928508
0.00867427
0.00805965
0.00744029
0.00681679
0.00618908
0.00555633
0.00492018
0.00427839
0.00363296
0.00298281
0.00232761
0.00166851
0.00100444
0.000335537
-0.107529
-0.102013
-0.0999742
-0.151246
-0.202274
-0.208956
-0.200905
-0.193712
-0.17796
-0.158637
-0.134012
-0.0952073
-0.0485655
-0.00917315
0.0157641
0.029048
0.0357111
0.0388544
0.0401844
0.040636
0.0406655
0.040485
0.0401972
0.039854
0.0394813
0.0390927
0.0386949
0.0382916
0.0378843
0.0374738
0.0370604
0.0366444
0.0362255
0.0358038
0.0353793
0.0349519
0.0345216
0.0340883
0.0336519
0.0332125
0.0327701
0.0323245
0.0318758
0.031424
0.030969
0.0305108
0.0300494
0.0295848
0.0291169
0.0286457
0.0281711
0.0276933
0.0272121
0.0267275
0.0262395
0.0257481
0.0252532
0.0247548
0.0242529
0.0237476
0.0232386
0.0227262
0.02221
0.0216903
0.0211669
0.0206398
0.020109
0.0195745
0.0190362
0.0184942
0.0179484
0.0173987
0.0168451
0.0162877
0.0157263
0.015161
0.0145917
0.0140185
0.0134412
0.0128598
0.0122744
0.0116849
0.0110911
0.0104934
0.00989117
0.00928508
0.00867427
0.00805965
0.00744029
0.00681679
0.00618908
0.00555633
0.00492018
0.00427839
0.00363296
0.00298282
0.00232761
0.00166851
0.00100444
0.000335537
-0.106683
-0.103476
-0.101848
-0.143821
-0.18784
-0.195005
-0.187467
-0.18069
-0.172014
-0.163241
-0.144143
-0.104364
-0.0545781
-0.0125057
0.0141683
0.0283598
0.0354295
0.0387408
0.0401396
0.0406195
0.0406604
0.0404845
0.0401985
0.0398558
0.0394831
0.0390942
0.0386962
0.0382925
0.037885
0.0374743
0.0370608
0.0366446
0.0362257
0.035804
0.0353794
0.034952
0.0345216
0.0340883
0.033652
0.0332126
0.0327701
0.0323245
0.0318758
0.031424
0.030969
0.0305108
0.0300494
0.0295848
0.0291169
0.0286457
0.0281711
0.0276933
0.0272121
0.0267275
0.0262395
0.0257481
0.0252532
0.0247548
0.024253
0.0237476
0.0232387
0.0227262
0.02221
0.0216903
0.0211669
0.0206398
0.020109
0.0195745
0.0190362
0.0184942
0.0179484
0.0173987
0.0168451
0.0162877
0.0157263
0.015161
0.0145917
0.0140185
0.0134412
0.0128598
0.0122744
0.0116849
0.0110911
0.0104934
0.00989117
0.00928508
0.00867427
0.00805965
0.00744029
0.00681679
0.00618908
0.00555632
0.00492018
0.0042784
0.00363296
0.00298282
0.00232761
0.00166851
0.00100445
0.000335538
-0.105467
-0.104411
-0.103441
-0.136231
-0.173011
-0.18077
-0.17405
-0.168019
-0.166357
-0.167819
-0.153671
-0.112624
-0.059908
-0.0154706
0.012764
0.0277798
0.0352106
0.0386634
0.0401158
0.0406147
0.0406618
0.0404875
0.0402017
0.0398586
0.0394854
0.0390961
0.0386976
0.0382936
0.0378857
0.0374748
0.0370612
0.0366449
0.0362259
0.0358041
0.0353795
0.034952
0.0345217
0.0340883
0.033652
0.0332126
0.0327701
0.0323245
0.0318759
0.031424
0.030969
0.0305108
0.0300494
0.0295848
0.0291169
0.0286456
0.0281711
0.0276933
0.0272121
0.0267275
0.0262395
0.0257481
0.0252532
0.0247548
0.024253
0.0237476
0.0232387
0.0227262
0.02221
0.0216903
0.0211669
0.0206398
0.020109
0.0195745
0.0190362
0.0184942
0.0179484
0.0173987
0.0168451
0.0162877
0.0157263
0.015161
0.0145917
0.0140185
0.0134412
0.0128598
0.0122744
0.0116849
0.0110911
0.0104934
0.00989117
0.00928508
0.00867427
0.00805965
0.00744029
0.00681679
0.00618909
0.00555632
0.00492018
0.0042784
0.00363296
0.00298282
0.00232761
0.00166851
0.00100445
0.000335539
-0.103926
-0.104734
-0.104717
-0.128843
-0.158398
-0.16671
-0.16098
-0.156012
-0.161029
-0.172107
-0.162286
-0.119824
-0.0645105
-0.018022
0.0115812
0.0273208
0.0350595
0.0386246
0.0401139
0.0406222
0.0406699
0.0404942
0.0402068
0.0398624
0.0394882
0.0390981
0.0386991
0.0382946
0.0378865
0.0374754
0.0370615
0.0366451
0.036226
0.0358042
0.0353796
0.0349521
0.0345217
0.0340883
0.033652
0.0332126
0.0327701
0.0323245
0.0318759
0.031424
0.030969
0.0305108
0.0300494
0.0295848
0.0291169
0.0286456
0.0281711
0.0276933
0.0272121
0.0267275
0.0262395
0.0257481
0.0252532
0.0247548
0.024253
0.0237476
0.0232387
0.0227262
0.02221
0.0216903
0.0211669
0.0206398
0.020109
0.0195745
0.0190363
0.0184942
0.0179484
0.0173987
0.0168451
0.0162877
0.0157263
0.015161
0.0145917
0.0140185
0.0134412
0.0128598
0.0122744
0.0116849
0.0110911
0.0104934
0.00989117
0.00928508
0.00867427
0.00805965
0.00744029
0.00681679
0.00618909
0.00555632
0.00492018
0.0042784
0.00363296
0.00298283
0.00232761
0.00166851
0.00100446
0.00033554
-0.102207
-0.104471
-0.105647
-0.121933
-0.144554
-0.153264
-0.148554
-0.144853
-0.155993
-0.175767
-0.169672
-0.125858
-0.0683303
-0.0201261
0.0106379
0.0269896
0.0349783
0.0386244
0.0401335
0.0406416
0.0406845
0.0405043
0.0402137
0.0398671
0.0394915
0.0391004
0.0387007
0.0382958
0.0378873
0.0374759
0.0370619
0.0366454
0.0362262
0.0358043
0.0353796
0.0349521
0.0345217
0.0340884
0.033652
0.0332126
0.0327701
0.0323245
0.0318759
0.031424
0.030969
0.0305108
0.0300494
0.0295848
0.0291169
0.0286456
0.0281711
0.0276933
0.0272121
0.0267275
0.0262395
0.0257481
0.0252532
0.0247548
0.024253
0.0237476
0.0232387
0.0227262
0.02221
0.0216903
0.0211669
0.0206398
0.020109
0.0195745
0.0190363
0.0184942
0.0179484
0.0173987
0.0168451
0.0162877
0.0157263
0.015161
0.0145917
0.0140185
0.0134412
0.0128598
0.0122744
0.0116849
0.0110911
0.0104934
0.00989117
0.00928507
0.00867427
0.00805965
0.00744029
0.00681679
0.00618909
0.00555632
0.00492018
0.0042784
0.00363295
0.00298283
0.00232761
0.00166851
0.00100446
0.000335542
-0.100497
-0.103729
-0.106202
-0.115698
-0.131972
-0.140818
-0.137069
-0.134647
-0.151133
-0.178386
-0.175485
-0.130624
-0.0713257
-0.0217608
0.00994382
0.026788
0.0349659
0.0386618
0.040174
0.0406727
0.0407056
0.0405179
0.0402224
0.0398728
0.0394952
0.0391029
0.0387024
0.0382969
0.037888
0.0374764
0.0370623
0.0366456
0.0362263
0.0358044
0.0353797
0.0349522
0.0345217
0.0340884
0.033652
0.0332126
0.0327701
0.0323245
0.0318759
0.031424
0.030969
0.0305108
0.0300494
0.0295848
0.0291169
0.0286456
0.0281711
0.0276933
0.0272121
0.0267275
0.0262395
0.0257481
0.0252532
0.0247548
0.024253
0.0237476
0.0232387
0.0227262
0.02221
0.0216903
0.0211669
0.0206398
0.020109
0.0195745
0.0190363
0.0184942
0.0179484
0.0173987
0.0168451
0.0162877
0.0157263
0.015161
0.0145917
0.0140185
0.0134412
0.0128598
0.0122744
0.0116849
0.0110911
0.0104934
0.00989117
0.00928507
0.00867427
0.00805965
0.00744029
0.00681679
0.00618909
0.00555632
0.00492019
0.0042784
0.00363295
0.00298283
0.0023276
0.00166851
0.00100447
0.000335543
-0.098975
-0.102669
-0.106379
-0.110274
-0.121049
-0.129698
-0.126819
-0.125537
-0.146283
-0.179546
-0.179401
-0.134028
-0.0734675
-0.0229181
0.00949608
0.0267098
0.0350174
0.0387336
0.0402336
0.0407145
0.0407325
0.0405347
0.0402328
0.0398793
0.0394994
0.0391056
0.0387041
0.0382981
0.0378888
0.0374769
0.0370626
0.0366458
0.0362265
0.0358045
0.0353797
0.0349522
0.0345218
0.0340884
0.033652
0.0332126
0.0327701
0.0323246
0.0318759
0.031424
0.030969
0.0305108
0.0300494
0.0295848
0.0291169
0.0286456
0.0281711
0.0276933
0.0272121
0.0267275
0.0262395
0.0257481
0.0252532
0.0247548
0.024253
0.0237476
0.0232387
0.0227262
0.02221
0.0216903
0.0211669
0.0206398
0.020109
0.0195745
0.0190363
0.0184942
0.0179484
0.0173987
0.0168451
0.0162877
0.0157263
0.015161
0.0145917
0.0140185
0.0134412
0.0128598
0.0122744
0.0116849
0.0110911
0.0104934
0.00989117
0.00928507
0.00867427
0.00805965
0.00744029
0.00681679
0.00618909
0.00555632
0.00492019
0.0042784
0.00363295
0.00298284
0.0023276
0.0016685
0.00100447
0.000335544
-0.0977623
-0.101495
-0.106205
-0.105684
-0.112041
-0.120195
-0.118093
-0.117759
-0.141428
-0.178991
-0.18123
-0.136033
-0.074757
-0.0236117
0.0092751
0.0267372
0.03512
0.0388316
0.0403075
0.0407643
0.040764
0.040554
0.0402446
0.0398865
0.0395039
0.0391084
0.038706
0.0382993
0.0378896
0.0374775
0.0370629
0.036646
0.0362266
0.0358046
0.0353798
0.0349522
0.0345218
0.0340884
0.033652
0.0332126
0.0327701
0.0323246
0.0318759
0.031424
0.030969
0.0305108
0.0300494
0.0295848
0.0291169
0.0286456
0.0281711
0.0276933
0.0272121
0.0267275
0.0262395
0.0257481
0.0252532
0.0247548
0.024253
0.0237476
0.0232387
0.0227262
0.02221
0.0216903
0.0211669
0.0206398
0.020109
0.0195745
0.0190363
0.0184942
0.0179484
0.0173987
0.0168451
0.0162877
0.0157263
0.015161
0.0145917
0.0140185
0.0134412
0.0128598
0.0122744
0.0116849
0.0110911
0.0104934
0.00989117
0.00928507
0.00867427
0.00805965
0.00744029
0.00681679
0.00618909
0.00555632
0.00492019
0.0042784
0.00363295
0.00298284
0.0023276
0.0016685
0.00100448
0.000335545
-0.0969019
-0.100408
-0.105737
-0.102081
-0.105055
-0.112535
-0.111168
-0.111633
-0.136831
-0.176913
-0.181056
-0.136696
-0.0752393
-0.0238774
0.00924236
0.0268387
0.0352516
0.0389426
0.0403884
0.0408183
0.040798
0.0405748
0.0402571
0.0398941
0.0395086
0.0391113
0.0387078
0.0383005
0.0378904
0.0374779
0.0370632
0.0366462
0.0362267
0.0358046
0.0353799
0.0349523
0.0345218
0.0340884
0.033652
0.0332126
0.0327701
0.0323246
0.0318759
0.031424
0.030969
0.0305108
0.0300494
0.0295848
0.0291169
0.0286456
0.0281711
0.0276933
0.0272121
0.0267275
0.0262395
0.0257481
0.0252532
0.0247548
0.024253
0.0237476
0.0232387
0.0227262
0.02221
0.0216903
0.0211669
0.0206398
0.020109
0.0195745
0.0190363
0.0184942
0.0179484
0.0173987
0.0168451
0.0162877
0.0157263
0.015161
0.0145917
0.0140185
0.0134412
0.0128598
0.0122744
0.0116849
0.0110911
0.0104934
0.00989117
0.00928507
0.00867427
0.00805965
0.00744029
0.00681679
0.00618909
0.00555632
0.00492019
0.0042784
0.00363294
0.00298285
0.00232759
0.0016685
0.00100448
0.000335547
-0.0963894
-0.0995436
-0.105042
-0.0995194
-0.100067
-0.106847
-0.106227
-0.107462
-0.132945
-0.173836
-0.179227
-0.136155
-0.075028
-0.0237882
0.00933612
0.0269698
0.0353841
0.0390497
0.0404664
0.0408707
0.040831
0.040595
0.0402694
0.0399015
0.0395131
0.0391142
0.0387096
0.0383016
0.0378911
0.0374784
0.0370635
0.0366464
0.0362268
0.0358047
0.0353799
0.0349523
0.0345218
0.0340884
0.033652
0.0332126
0.0327701
0.0323246
0.0318759
0.031424
0.030969
0.0305108
0.0300494
0.0295848
0.0291169
0.0286456
0.0281711
0.0276933
0.0272121
0.0267275
0.0262395
0.0257481
0.0252532
0.0247548
0.024253
0.0237476
0.0232387
0.0227262
0.02221
0.0216903
0.0211669
0.0206398
0.020109
0.0195745
0.0190363
0.0184942
0.0179484
0.0173987
0.0168451
0.0162877
0.0157263
0.015161
0.0145917
0.0140185
0.0134412
0.0128598
0.0122744
0.0116849
0.0110911
0.0104934
0.00989117
0.00928507
0.00867427
0.00805965
0.00744029
0.00681679
0.00618909
0.00555632
0.00492019
0.0042784
0.00363294
0.00298285
0.00232759
0.0016685
0.00100449
0.000335548
-0.0961965
-0.0989506
-0.104021
-0.0979789
-0.0969068
-0.103092
-0.103259
-0.105293
-0.130325
-0.170359
-0.176102
-0.134659
-0.0743697
-0.0234717
0.00947651
0.0270828
0.035488
0.0391345
0.0405295
0.0409137
0.0408585
0.040612
0.0402797
0.0399078
0.039517
0.0391166
0.0387111
0.0383025
0.0378917
0.0374788
0.0370638
0.0366465
0.0362269
0.0358048
0.0353799
0.0349523
0.0345218
0.0340884
0.033652
0.0332126
0.0327701
0.0323246
0.0318759
0.031424
0.030969
0.0305108
0.0300494
0.0295848
0.0291169
0.0286456
0.0281711
0.0276933
0.0272121
0.0267275
0.0262395
0.0257481
0.0252532
0.0247548
0.024253
0.0237476
0.0232387
0.0227262
0.02221
0.0216903
0.0211669
0.0206398
0.020109
0.0195745
0.0190363
0.0184942
0.0179484
0.0173987
0.0168451
0.0162877
0.0157263
0.015161
0.0145917
0.0140185
0.0134412
0.0128598
0.0122744
0.0116849
0.0110911
0.0104934
0.00989117
0.00928507
0.00867427
0.00805965
0.00744029
0.00681679
0.00618909
0.00555632
0.00492019
0.0042784
0.00363294
0.00298286
0.00232759
0.0016685
0.00100449
0.000335549
-0.0962474
-0.0986332
-0.103304
-0.0972374
-0.0953081
-0.101055
-0.102024
-0.104733
-0.129109
-0.167012
-0.172503
-0.132465
-0.0734149
-0.0231101
0.00958388
0.027137
0.0355368
0.0391791
0.0405659
0.0409398
0.0408757
0.0406229
0.0402865
0.0399121
0.0395196
0.0391182
0.0387121
0.0383032
0.0378921
0.037479
0.0370639
0.0366466
0.036227
0.0358048
0.03538
0.0349523
0.0345218
0.0340884
0.033652
0.0332126
0.0327701
0.0323246
0.0318759
0.031424
0.030969
0.0305108
0.0300494
0.0295848
0.0291169
0.0286456
0.0281711
0.0276933
0.0272121
0.0267275
0.0262395
0.0257481
0.0252532
0.0247548
0.024253
0.0237476
0.0232387
0.0227262
0.02221
0.0216903
0.0211669
0.0206398
0.020109
0.0195745
0.0190363
0.0184942
0.0179484
0.0173987
0.0168451
0.0162877
0.0157263
0.015161
0.0145917
0.0140185
0.0134412
0.0128598
0.0122744
0.0116849
0.0110911
0.0104934
0.00989117
0.00928507
0.00867427
0.00805965
0.00744029
0.00681679
0.00618909
0.00555632
0.00492019
0.0042784
0.00363294
0.00298286
0.00232759
0.0016685
0.0010045
0.00033555
-0.0964199
-0.0985429
-0.102789
-0.096974
-0.094919
-0.100327
-0.101972
-0.105312
-0.128751
-0.164446
-0.169285
-0.130337
-0.0725333
-0.0228846
0.00960731
0.0271179
0.0355231
0.0391798
0.0405735
0.0409481
0.0408823
0.0406275
0.0402896
0.0399141
0.0395209
0.0391191
0.0387127
0.0383035
0.0378923
0.0374792
0.037064
0.0366467
0.036227
0.0358048
0.03538
0.0349523
0.0345219
0.0340884
0.033652
0.0332126
0.0327701
0.0323246
0.0318759
0.031424
0.030969
0.0305108
0.0300494
0.0295848
0.0291169
0.0286456
0.0281711
0.0276933
0.0272121
0.0267275
0.0262395
0.0257481
0.0252532
0.0247548
0.024253
0.0237476
0.0232387
0.0227262
0.02221
0.0216903
0.0211669
0.0206398
0.020109
0.0195745
0.0190363
0.0184942
0.0179484
0.0173987
0.0168451
0.0162877
0.0157263
0.015161
0.0145917
0.0140185
0.0134412
0.0128598
0.0122744
0.0116849
0.0110911
0.0104934
0.00989117
0.00928507
0.00867427
0.00805965
0.00744029
0.00681679
0.00618909
0.00555632
0.00492019
0.0042784
0.00363294
0.00298286
0.00232759
0.0016685
0.0010045
0.000335551
-0.0965593
-0.0986056
-0.102529
-0.0970804
-0.0953734
-0.100484
-0.102233
-0.106116
-0.128941
-0.163307
-0.167526
-0.128958
-0.0719595
-0.0227553
0.00958604
0.0271078
0.0355036
0.039173
0.0405741
0.0409508
0.0408849
0.0406295
0.040291
0.039915
0.0395216
0.0391195
0.038713
0.0383037
0.0378924
0.0374792
0.0370641
0.0366467
0.036227
0.0358048
0.03538
0.0349524
0.0345219
0.0340884
0.033652
0.0332126
0.0327701
0.0323246
0.0318759
0.031424
0.030969
0.0305108
0.0300494
0.0295848
0.0291169
0.0286456
0.0281711
0.0276933
0.0272121
0.0267275
0.0262395
0.0257481
0.0252532
0.0247548
0.024253
0.0237476
0.0232387
0.0227262
0.02221
0.0216903
0.0211669
0.0206398
0.020109
0.0195745
0.0190363
0.0184942
0.0179484
0.0173987
0.0168451
0.0162877
0.0157263
0.015161
0.0145917
0.0140185
0.0134412
0.0128598
0.0122744
0.0116849
0.0110911
0.0104934
0.00989117
0.00928507
0.00867427
0.00805965
0.00744029
0.0068168
0.00618908
0.00555633
0.00492019
0.0042784
0.00363295
0.00298285
0.00232759
0.0016685
0.00100449
0.000335551
-0.127404
-0.14831
-0.163326
-0.173699
-0.202268
-0.229338
-0.238091
-0.210185
-0.145501
-0.0710303
-0.0103479
0.0267529
0.0431555
0.0482677
0.0486999
0.0474691
0.0458702
0.0443829
0.0431491
0.0421817
0.0414328
0.0408378
0.0403389
0.0398944
0.0394777
0.0390733
0.0386728
0.038272
0.0378687
0.0374622
0.0370522
0.0366386
0.0362216
0.0358013
0.0353777
0.0349509
0.0345209
0.0340879
0.0336517
0.0332124
0.03277
0.0323245
0.0318758
0.031424
0.0309691
0.0305109
0.0300494
0.0295848
0.0291169
0.0286457
0.0281711
0.0276933
0.0272121
0.0267275
0.0262395
0.025748
0.0252531
0.0247548
0.0242529
0.0237475
0.0232386
0.0227261
0.02221
0.0216903
0.0211669
0.0206398
0.020109
0.0195745
0.0190363
0.0184942
0.0179484
0.0173987
0.0168451
0.0162877
0.0157263
0.015161
0.0145917
0.0140185
0.0134411
0.0128598
0.0122744
0.0116849
0.0110912
0.0104934
0.00989119
0.00928507
0.00867426
0.00805964
0.00744029
0.0068168
0.00618909
0.00555633
0.00492019
0.0042784
0.00363295
0.00298285
0.00232759
0.0016685
0.0010045
0.00033555
-0.128206
-0.148974
-0.163687
-0.173272
-0.204394
-0.232039
-0.240538
-0.212139
-0.147309
-0.0719482
-0.0106725
0.0266585
0.0430482
0.0482031
0.0486527
0.047446
0.0458676
0.044386
0.0431535
0.0421853
0.0414354
0.0408396
0.0403401
0.0398952
0.0394782
0.0390737
0.0386731
0.0382721
0.0378688
0.0374622
0.0370522
0.0366386
0.0362216
0.0358013
0.0353777
0.0349509
0.0345209
0.0340879
0.0336517
0.0332124
0.03277
0.0323245
0.0318758
0.031424
0.0309691
0.0305109
0.0300494
0.0295848
0.0291169
0.0286457
0.0281711
0.0276933
0.0272121
0.0267275
0.0262395
0.025748
0.0252531
0.0247548
0.0242529
0.0237475
0.0232386
0.0227261
0.02221
0.0216903
0.0211669
0.0206398
0.020109
0.0195745
0.0190363
0.0184942
0.0179484
0.0173987
0.0168451
0.0162877
0.0157263
0.015161
0.0145917
0.0140185
0.0134411
0.0128598
0.0122744
0.0116849
0.0110912
0.0104934
0.00989119
0.00928508
0.00867426
0.00805964
0.00744029
0.00681679
0.00618909
0.00555633
0.00492019
0.0042784
0.00363294
0.00298286
0.00232759
0.0016685
0.0010045
0.00033555
-0.129336
-0.14966
-0.164521
-0.175607
-0.211039
-0.238047
-0.244902
-0.216013
-0.150703
-0.0737517
-0.0112878
0.0263972
0.0428631
0.0480355
0.0485166
0.0473588
0.0458196
0.0443631
0.0431449
0.0421837
0.0414367
0.0408417
0.0403421
0.0398968
0.0394794
0.0390745
0.0386736
0.0382725
0.037869
0.0374624
0.0370523
0.0366387
0.0362217
0.0358013
0.0353777
0.0349509
0.0345209
0.0340879
0.0336517
0.0332124
0.03277
0.0323245
0.0318758
0.031424
0.0309691
0.0305109
0.0300494
0.0295848
0.0291169
0.0286457
0.0281711
0.0276933
0.0272121
0.0267275
0.0262395
0.025748
0.0252531
0.0247548
0.0242529
0.0237475
0.0232386
0.0227261
0.02221
0.0216903
0.0211669
0.0206398
0.020109
0.0195745
0.0190363
0.0184942
0.0179484
0.0173987
0.0168451
0.0162877
0.0157263
0.015161
0.0145917
0.0140185
0.0134411
0.0128598
0.0122744
0.0116849
0.0110912
0.0104934
0.00989119
0.00928508
0.00867426
0.00805964
0.00744029
0.00681679
0.00618909
0.00555632
0.00492019
0.0042784
0.00363294
0.00298286
0.00232759
0.0016685
0.0010045
0.00033555
-0.130014
-0.149659
-0.164241
-0.180751
-0.220993
-0.246237
-0.250203
-0.221372
-0.155406
-0.0763899
-0.0122384
0.0258825
0.0425088
0.0477009
0.0482465
0.0471799
0.0457155
0.0443089
0.043121
0.042176
0.0414366
0.0408443
0.0403452
0.0398994
0.0394814
0.0390759
0.0386746
0.0382731
0.0378694
0.0374626
0.0370525
0.0366388
0.0362217
0.0358013
0.0353777
0.0349509
0.0345209
0.0340879
0.0336517
0.0332124
0.03277
0.0323245
0.0318758
0.031424
0.0309691
0.0305109
0.0300494
0.0295848
0.0291169
0.0286457
0.0281711
0.0276933
0.0272121
0.0267275
0.0262395
0.025748
0.0252531
0.0247548
0.0242529
0.0237475
0.0232386
0.0227261
0.02221
0.0216903
0.0211669
0.0206398
0.020109
0.0195745
0.0190363
0.0184942
0.0179484
0.0173987
0.0168451
0.0162877
0.0157263
0.015161
0.0145917
0.0140185
0.0134411
0.0128598
0.0122744
0.0116849
0.0110912
0.0104934
0.00989119
0.00928508
0.00867426
0.00805964
0.00744029
0.00681679
0.0061891
0.00555632
0.00492019
0.0042784
0.00363294
0.00298286
0.00232759
0.0016685
0.0010045
0.000335548
-0.129815
-0.148125
-0.163026
-0.187231
-0.232184
-0.25533
-0.255858
-0.227561
-0.161009
-0.0797061
-0.0134396
0.0251603
0.0419835
0.0471973
0.0478408
0.0469086
0.0455528
0.0442188
0.043076
0.0421575
0.0414317
0.0408453
0.0403481
0.0399024
0.0394839
0.0390777
0.0386759
0.038274
0.03787
0.037463
0.0370527
0.0366389
0.0362218
0.0358014
0.0353778
0.0349509
0.034521
0.0340879
0.0336517
0.0332124
0.03277
0.0323245
0.0318758
0.031424
0.0309691
0.0305109
0.0300494
0.0295848
0.0291169
0.0286457
0.0281711
0.0276933
0.0272121
0.0267275
0.0262395
0.025748
0.0252531
0.0247548
0.0242529
0.0237475
0.0232386
0.0227261
0.02221
0.0216903
0.0211669