/*--------------------------------*- C++ -*----------------------------------*\
| =========                 |                                                 |
| \\      /  F ield         | OpenFOAM: The Open Source CFD Toolbox           |
|  \\    /   O peration     | Version:  2.4.0                                 |
|   \\  /    A nd           | Web:      www.OpenFOAM.org                      |
|    \\/     M anipulation  |                                                 |
\*---------------------------------------------------------------------------*/
FoamFile
{
    version     2.0;
    format      ascii;
    class       volScalarField;
    location    "1.36";
    object      nuSgs;
}
// * * * * * * * * * * * * * * * * * * * * * * * * * * * * * * * * * * * * * //

dimensions      [0 2 -1 0 0 0 0];

internalField   nonuniform List<scalar> 
8800
(
0.00133857
0.00150696
0.00139269
0.0012295
0.00112042
0.00105097
0.000996886
0.000960508
0.000925221
0.000905597
0.000878674
0.000868966
0.000846672
0.000841855
0.000820966
0.000818214
0.000800014
0.000796489
0.000788196
0.000766426
0.000554098
0.000982137
0.00108294
0.00108135
0.00106287
0.0010344
0.00100167
0.000977697
0.000948633
0.00093233
0.0009064
0.000896672
0.000875512
0.000869365
0.000851482
0.000847396
0.000833112
0.000828135
0.00081575
0.000815049
0.000135618
0.000406279
0.000584179
0.000658021
0.000705373
0.000737606
0.00075082
0.00076084
0.000760349
0.000759191
0.00075441
0.000751832
0.00074402
0.000741617
0.000734721
0.000731945
0.000726468
0.000721865
0.000713932
0.000711247
2.69014e-05
0.000125544
0.000234026
0.000308002
0.000357088
0.000396537
0.000427597
0.000454286
0.000477507
0.000489877
0.000507092
0.000517806
0.000527459
0.000534983
0.000545379
0.000548136
0.000557439
0.000558017
0.000559711
0.000558364
5.1096e-06
3.34567e-05
7.28544e-05
0.000102756
0.000140514
0.000164408
0.00019071
0.000210201
0.000236516
0.000247299
0.000267665
0.000278802
0.000295359
0.000303525
0.000322131
0.000328069
0.000345281
0.000350615
0.000362456
0.000364251
2.34246e-06
8.39972e-06
1.94084e-05
2.78804e-05
4.05595e-05
5.19958e-05
6.18619e-05
7.31556e-05
8.95057e-05
9.67043e-05
0.000106705
0.000116859
0.000128356
0.000134093
0.000147121
0.000152714
0.000163824
0.000174885
0.000179883
0.000187504
2.21986e-06
3.1836e-06
5.57417e-06
7.40511e-06
1.00923e-05
1.40095e-05
1.62e-05
2.02197e-05
2.4158e-05
2.92647e-05
3.15937e-05
3.70851e-05
3.99378e-05
4.44861e-05
5.03521e-05
5.40255e-05
5.75243e-05
6.7709e-05
7.01748e-05
7.66954e-05
2.18929e-06
2.89582e-06
3.42722e-06
3.92856e-06
4.15558e-06
5.21404e-06
5.73794e-06
6.5322e-06
6.98475e-06
8.1159e-06
8.62352e-06
1.02072e-05
1.07568e-05
1.23469e-05
1.3151e-05
1.47916e-05
1.5449e-05
1.93957e-05
2.06094e-05
2.36526e-05
2.13501e-06
2.5153e-06
3.4694e-06
3.82892e-06
3.69778e-06
3.71682e-06
3.98883e-06
4.58823e-06
4.65241e-06
4.772e-06
4.73004e-06
4.90414e-06
4.89678e-06
5.33506e-06
5.43067e-06
5.78498e-06
5.90661e-06
6.57738e-06
6.68077e-06
7.8061e-06
2.13939e-06
2.41403e-06
2.85105e-06
3.85572e-06
4.08398e-06
4.05907e-06
3.92975e-06
3.85386e-06
3.86331e-06
4.0551e-06
4.20516e-06
4.28079e-06
4.27848e-06
4.22316e-06
4.27551e-06
4.31443e-06
4.40849e-06
4.56513e-06
4.69045e-06
4.86383e-06
2.13344e-06
2.44109e-06
3.25877e-06
3.41825e-06
3.48341e-06
3.82728e-06
3.95312e-06
4.11836e-06
4.12463e-06
4.10349e-06
4.02114e-06
4.05916e-06
4.09404e-06
4.1864e-06
4.3602e-06
4.3861e-06
4.41848e-06
4.38988e-06
4.39735e-06
4.53869e-06
2.14674e-06
2.61701e-06
2.96961e-06
3.39895e-06
4.06695e-06
4.14462e-06
4.15616e-06
4.13676e-06
4.1403e-06
4.19037e-06
4.4196e-06
4.72031e-06
4.77932e-06
4.9327e-06
4.97486e-06
5.14197e-06
5.26802e-06
5.46988e-06
5.9214e-06
6.94783e-06
2.16055e-06
2.58335e-06
3.0784e-06
4.31226e-06
4.72817e-06
5.06509e-06
5.36951e-06
6.06639e-06
6.60609e-06
7.96495e-06
8.6197e-06
9.92715e-06
1.06601e-05
1.22012e-05
1.29385e-05
1.48752e-05
1.60585e-05
1.8476e-05
2.00904e-05
2.43258e-05
2.18371e-06
3.06618e-06
5.19798e-06
9.30041e-06
1.09629e-05
1.38385e-05
1.62033e-05
2.07784e-05
2.35467e-05
2.9712e-05
3.23778e-05
3.77814e-05
4.05679e-05
4.64527e-05
4.91289e-05
5.55081e-05
5.91209e-05
6.66507e-05
7.10912e-05
8.24837e-05
2.35091e-06
8.21413e-06
1.80365e-05
3.37105e-05
4.08436e-05
5.26751e-05
6.12835e-05
7.64247e-05
8.42365e-05
0.000100413
0.000106955
0.000119817
0.000125815
0.000138495
0.000144002
0.000156959
0.00016355
0.000177932
0.000185516
0.000205354
5.23315e-06
3.29438e-05
6.96761e-05
0.000114902
0.000136679
0.000164216
0.000189234
0.000213977
0.000228446
0.000254623
0.000264257
0.000282799
0.00029143
0.000309475
0.000316688
0.000333898
0.00034191
0.000360201
0.000368747
0.000390271
2.72815e-05
0.000123741
0.000239651
0.000305869
0.000358133
0.000392943
0.00043109
0.000452576
0.000474411
0.000494021
0.000505442
0.000517825
0.000526936
0.00053772
0.000542158
0.000552281
0.000556527
0.000566524
0.000570597
0.00058031
0.000136665
0.000400337
0.000588913
0.000654479
0.000709568
0.00073255
0.000755576
0.000757266
0.000761476
0.000757844
0.000756128
0.000748868
0.000746733
0.000739406
0.000737186
0.000730895
0.0007295
0.000725231
0.000723532
0.000719423
0.000557183
0.000980091
0.00108435
0.00108054
0.00106478
0.00102942
0.00100659
0.000971941
0.000955329
0.000924195
0.000913663
0.000889124
0.000881827
0.0008623
0.000857801
0.000840832
0.000837109
0.000821585
0.000816327
0.000802447
0.00133919
0.00150563
0.00139408
0.0012266
0.00112388
0.00104655
0.00100114
0.000955228
0.000931579
0.000897468
0.000886243
0.000860124
0.000854197
0.000831892
0.000828397
0.000806365
0.000801941
0.000777398
0.000768765
0.000736908
0.000352934
0.00030206
0.000269713
0.000248799
0.000233644
0.000224711
0.000217443
0.000213401
0.000209019
0.00020606
0.000202701
0.000200103
0.000196991
0.000194153
0.000191044
0.000188467
0.000186504
0.000185223
0.000184741
0.000184106
0.000183946
0.000183486
0.000183316
0.000182848
0.000182786
0.000182357
0.00018226
0.000181709
0.000180926
0.000178797
0.000176454
0.000171246
0.00016771
0.000161853
0.000158161
0.000153825
0.000152317
0.000150677
0.000150767
0.000151177
0.000152233
0.000153152
0.000154248
0.000155216
0.000155675
0.00015685
0.00015722
0.000158127
0.000158011
0.000158296
0.000157893
0.000157826
0.00015694
0.000156468
0.000155047
0.000154681
0.000153887
0.000153968
0.000154161
0.000154872
0.000155545
0.000157009
0.000158631
0.000159932
0.000161992
0.000162283
0.000162487
0.000162045
0.000161337
0.000159655
0.000156367
0.000153426
0.000147406
0.000142376
0.000135324
0.000129871
0.000122988
0.000117238
0.00011227
0.00010687
0.000104352
9.96823e-05
9.79012e-05
9.52094e-05
9.40791e-05
9.24244e-05
9.19755e-05
9.05754e-05
9.01298e-05
8.90442e-05
8.90141e-05
8.89606e-05
8.96185e-05
9.09429e-05
9.37079e-05
9.75566e-05
9.99961e-05
0.000106407
0.000109396
0.000115274
0.000117908
0.000124226
0.000127238
0.000132216
0.00013526
0.000137859
0.000138236
0.000139208
0.000138516
0.000138445
0.000137617
0.000136082
0.000134552
0.000130676
0.000128002
0.000123784
0.000119784
0.00011626
0.000113365
0.000111008
0.000109487
0.000108916
0.000109217
0.000109855
0.000111989
0.000114752
0.00011955
0.000124234
0.000130099
0.000133915
0.000136593
0.000136714
0.000136902
0.000135781
0.000135071
0.000132505
0.000131501
0.000128901
0.000127746
0.000124867
0.000123769
0.000121181
0.000119865
0.000116959
0.000115225
0.000111607
0.000108658
0.000103711
9.92863e-05
8.96712e-05
8.10473e-05
6.8724e-05
5.55804e-05
4.47667e-05
3.55235e-05
2.90303e-05
2.44904e-05
2.1749e-05
2.07047e-05
2.01752e-05
1.99871e-05
1.9796e-05
1.98114e-05
2.00072e-05
2.04762e-05
2.175e-05
2.33432e-05
2.45723e-05
2.69616e-05
2.87957e-05
2.96261e-05
3.05031e-05
3.14547e-05
3.13072e-05
3.11988e-05
3.04365e-05
3.00834e-05
2.88597e-05
2.88506e-05
2.85155e-05
2.86203e-05
2.89893e-05
3.07321e-05
3.39613e-05
3.44677e-05
3.47839e-05
3.3667e-05
3.32516e-05
3.31601e-05
3.35139e-05
3.44151e-05
3.68756e-05
3.97866e-05
4.15867e-05
4.31466e-05
4.61324e-05
5.54927e-05
8.34421e-05
0.000137917
0.000268426
0.000412795
0.000375272
0.000343355
0.000318634
0.000298296
0.00028325
0.000270631
0.000261356
0.000253142
0.000246741
0.00024059
0.000235487
0.000230954
0.000226947
0.000223717
0.000220149
0.000217671
0.000214392
0.000212725
0.000209819
0.000208734
0.000206398
0.000205539
0.00020364
0.000203045
0.000201663
0.000201282
0.000200227
0.000199812
0.000198577
0.000197878
0.000196022
0.000194928
0.000192581
0.000191306
0.000188848
0.000187351
0.00018605
0.000184423
0.000183805
0.000182402
0.000182023
0.000181064
0.00018075
0.000179771
0.000179455
0.000178672
0.000178458
0.000177887
0.000177549
0.000177022
0.000176441
0.000176197
0.000175395
0.000175051
0.000173956
0.000173647
0.000172413
0.000172186
0.000171153
0.000171231
0.000170653
0.000170814
0.000170408
0.000170562
0.000170335
0.000170385
0.000170385
0.000170332
0.000170453
0.000170232
0.000169987
0.000169516
0.000168134
0.000167175
0.000164619
0.000163328
0.000159739
0.000158164
0.000154251
0.000152622
0.00014853
0.000146932
0.000143203
0.000141716
0.000138469
0.000137301
0.00013449
0.00013357
0.000130919
0.000130502
0.000128768
0.000128773
0.00012854
0.00012863
0.00012928
0.000130015
0.000131383
0.000133868
0.000135023
0.000137747
0.000139308
0.000140944
0.000141517
0.000141185
0.000141127
0.000140154
0.000139271
0.000137082
0.000134625
0.000130465
0.000127266
0.000119827
0.000115867
0.000108184
0.000102733
9.59418e-05
9.07335e-05
8.43309e-05
8.09617e-05
7.70345e-05
7.36202e-05
7.29855e-05
7.31649e-05
7.41853e-05
7.66609e-05
7.99881e-05
8.47153e-05
8.90886e-05
9.48012e-05
9.94741e-05
0.000104284
0.000108038
0.000110482
0.00011282
0.000113443
0.000113266
0.000112887
0.000112032
0.000109859
0.000107993
0.000104859
0.000100802
9.67827e-05
9.04276e-05
8.41167e-05
7.67887e-05
6.74478e-05
5.83673e-05
4.91719e-05
4.1542e-05
3.43646e-05
2.85851e-05
2.43214e-05
2.12165e-05
1.97632e-05
1.90608e-05
1.90491e-05
1.94062e-05
1.95949e-05
1.98709e-05
2.03665e-05
2.14389e-05
2.36215e-05
2.55321e-05
2.92613e-05
3.1109e-05
3.47812e-05
3.74663e-05
3.97821e-05
4.02871e-05
4.17528e-05
4.17544e-05
4.15631e-05
4.06447e-05
4.03987e-05
3.93453e-05
3.88799e-05
3.69891e-05
3.64751e-05
3.47051e-05
3.50718e-05
3.43807e-05
3.52975e-05
3.53969e-05
3.47725e-05
3.40161e-05
3.38706e-05
3.41884e-05
3.44308e-05
3.52498e-05
3.85264e-05
4.17626e-05
4.38882e-05
4.51543e-05
4.77009e-05
5.43786e-05
6.80183e-05
0.000116801
0.000197591
0.000370946
0.000350357
0.000330187
0.00031253
0.000296128
0.000282728
0.000270931
0.000262441
0.000254297
0.000248296
0.000242151
0.000236682
0.000231635
0.00022645
0.000222587
0.000218307
0.000215754
0.000212241
0.000210536
0.000207181
0.000205803
0.000202627
0.000201266
0.000198623
0.000197451
0.000195637
0.00019484
0.000193723
0.000193278
0.000192482
0.000191813
0.000191255
0.00018984
0.000189146
0.000187638
0.000186847
0.000185089
0.000184328
0.000182772
0.000182095
0.000180643
0.000180029
0.000178829
0.0001781
0.000177277
0.000176148
0.000175638
0.000174448
0.000173987
0.000172919
0.000172535
0.000171579
0.000171304
0.000170548
0.000170366
0.000169746
0.000169583
0.000169003
0.000168843
0.000168368
0.000168203
0.000167853
0.000167439
0.00016727
0.00016668
0.000166468
0.000165806
0.000165662
0.00016515
0.000165029
0.000164708
0.000164455
0.000164351
0.000163953
0.00016374
0.000163087
0.000162791
0.000161869
0.000161514
0.000160623
0.000160271
0.000159423
0.000158983
0.000158287
0.000157883
0.000156855
0.000156657
0.000155456
0.000155298
0.00015389
0.000153616
0.000152471
0.000151995
0.000150844
0.000150466
0.000149377
0.000149274
0.000148125
0.00014822
0.000147188
0.000146899
0.000145785
0.000144889
0.000142748
0.000141365
0.000137497
0.000134989
0.000129443
0.000125535
0.000117982
0.000111744
0.000103219
9.44744e-05
8.53458e-05
7.64861e-05
6.80069e-05
6.03594e-05
5.49919e-05
4.98816e-05
4.69886e-05
4.42576e-05
4.2814e-05
4.16207e-05
4.1577e-05
4.1737e-05
4.27219e-05
4.37504e-05
4.63299e-05
4.80369e-05
5.18135e-05
5.37409e-05
5.7761e-05
6.03483e-05
6.22485e-05
6.43554e-05
6.5373e-05
6.53238e-05
6.48386e-05
6.39655e-05
6.14784e-05
5.96237e-05
5.55532e-05
5.24628e-05
4.80524e-05
4.40466e-05
3.93919e-05
3.55379e-05
3.08093e-05
2.75614e-05
2.35748e-05
2.12699e-05
1.87882e-05
1.78208e-05
1.70336e-05
1.72825e-05
1.75473e-05
1.81681e-05
1.86113e-05
1.97211e-05
2.06847e-05
2.3069e-05
2.50019e-05
2.93478e-05
3.20764e-05
3.6888e-05
4.11953e-05
4.40461e-05
4.95323e-05
5.33249e-05
5.47453e-05
5.58179e-05
5.58114e-05
5.50859e-05
5.40417e-05
5.13851e-05
5.01662e-05
4.71161e-05
4.5411e-05
4.46785e-05
4.38495e-05
4.17479e-05
3.87343e-05
3.86598e-05
3.81361e-05
3.87637e-05
3.66848e-05
3.55077e-05
3.52579e-05
3.52876e-05
3.59572e-05
4.20686e-05
4.85636e-05
4.93974e-05
4.95307e-05
4.94903e-05
5.00105e-05
6.38326e-05
6.78007e-05
9.29613e-05
0.000145564
0.000296218
0.000285747
0.000275286
0.000265839
0.000255477
0.000246208
0.000235738
0.000228699
0.000220875
0.000216929
0.000212409
0.000209006
0.000205042
0.000200761
0.000196255
0.000192345
0.000188146
0.000185827
0.000183188
0.000181717
0.000179989
0.000178157
0.000175986
0.000173904
0.000170911
0.00016925
0.000166568
0.000165671
0.000164246
0.000163935
0.000163423
0.000163279
0.000162725
0.000162372
0.000161346
0.0001607
0.000159221
0.000158301
0.000157105
0.000155453
0.0001547
0.000153094
0.00015219
0.000150713
0.000150006
0.000148746
0.000148157
0.000146948
0.000146491
0.000145466
0.000144865
0.000143865
0.000143029
0.000142551
0.000141817
0.000141578
0.000141275
0.000141263
0.000141201
0.000141268
0.000141181
0.000141288
0.000141186
0.000141248
0.000141082
0.000141107
0.000140896
0.000140892
0.000140586
0.000140599
0.000140464
0.000140467
0.000140543
0.000140586
0.000140599
0.000140791
0.000140707
0.000140966
0.00014083
0.000141161
0.000141172
0.000141538
0.000141722
0.000142318
0.000142623
0.000143336
0.000143646
0.000144255
0.000144746
0.00014509
0.000145216
0.000145457
0.000145212
0.000145105
0.00014487
0.000143876
0.000143418
0.000141917
0.000140811
0.000139272
0.000136814
0.000133415
0.000131076
0.000126241
0.000121944
0.000115582
0.000109139
0.000100099
9.22364e-05
8.22391e-05
7.26012e-05
6.33058e-05
5.56155e-05
4.85738e-05
4.27999e-05
3.78157e-05
3.37841e-05
3.04246e-05
2.78866e-05
2.58838e-05
2.42978e-05
2.33378e-05
2.26241e-05
2.20943e-05
2.20077e-05
2.21009e-05
2.23464e-05
2.30466e-05
2.36919e-05
2.48858e-05
2.56641e-05
2.73221e-05
2.80813e-05
2.8908e-05
2.95917e-05
2.96659e-05
2.96168e-05
2.92345e-05
2.87758e-05
2.7561e-05
2.678e-05
2.49336e-05
2.37721e-05
2.16535e-05
2.05384e-05
1.84136e-05
1.76168e-05
1.59093e-05
1.55675e-05
1.47379e-05
1.4924e-05
1.50164e-05
1.55529e-05
1.59078e-05
1.7042e-05
1.78451e-05
1.98794e-05
2.14758e-05
2.48895e-05
2.73903e-05
3.27887e-05
3.59694e-05
4.27286e-05
4.65561e-05
5.32663e-05
5.89987e-05
6.41524e-05
7.14802e-05
7.46955e-05
7.66088e-05
7.68784e-05
7.62612e-05
7.4746e-05
7.09241e-05
6.79186e-05
6.25419e-05
6.00638e-05
5.3772e-05
5.16833e-05
4.94021e-05
4.8974e-05
4.69011e-05
4.54823e-05
4.28569e-05
3.99795e-05
3.92939e-05
3.84306e-05
3.90691e-05
4.40371e-05
5.1906e-05
5.55523e-05
5.65365e-05
5.90036e-05
5.92335e-05
6.65684e-05
6.14128e-05
8.0735e-05
7.30838e-05
7.89608e-05
0.000106926
0.000195914
0.000191337
0.000188647
0.000184054
0.000181203
0.000176524
0.000170119
0.000165113
0.000158641
0.000154769
0.000152014
0.000150129
0.000149434
0.000148542
0.000146438
0.000143858
0.000139238
0.000136526
0.000133019
0.00013145
0.000130223
0.000129973
0.000130044
0.000130119
0.000129537
0.000128349
0.00012497
0.000123149
0.000120506
0.000119107
0.000118108
0.000117373
0.0001172
0.000117052
0.000116845
0.000116595
0.000115968
0.000115184
0.000114627
0.00011316
0.00011247
0.00011104
0.000109923
0.000108324
0.000106516
0.000105203
0.000104137
0.000102663
0.000102296
0.000101562
0.000101375
0.000100946
0.000100077
9.96537e-05
9.84191e-05
9.76419e-05
9.69881e-05
9.68345e-05
9.68457e-05
9.71085e-05
9.73574e-05
9.79523e-05
9.82615e-05
9.85036e-05
9.86502e-05
9.86045e-05
9.85522e-05
9.8512e-05
9.82888e-05
9.82601e-05
9.81478e-05
9.81874e-05
9.82135e-05
9.84396e-05
9.85265e-05
9.90884e-05
9.92602e-05
9.99881e-05
0.000100271
0.000100803
0.000101314
0.000101783
0.000102289
0.000103288
0.00010368
0.000104794
0.00010532
0.000106597
0.000106879
0.000108228
0.000108419
0.000109417
0.000109553
0.000109839
0.000109814
0.000109545
0.000108501
0.000107632
0.000105165
0.000103442
9.93842e-05
9.52169e-05
9.09868e-05
8.49508e-05
7.78326e-05
7.13578e-05
6.39175e-05
5.72924e-05
5.07787e-05
4.46374e-05
3.91977e-05
3.42067e-05
2.9993e-05
2.62519e-05
2.31529e-05
2.06507e-05
1.84621e-05
1.68754e-05
1.54993e-05
1.44048e-05
1.36318e-05
1.29706e-05
1.25458e-05
1.23035e-05
1.2073e-05
1.19454e-05
1.19481e-05
1.20324e-05
1.21784e-05
1.24611e-05
1.27743e-05
1.33494e-05
1.35564e-05
1.39316e-05
1.40286e-05
1.40275e-05
1.39706e-05
1.38469e-05
1.35375e-05
1.33216e-05
1.28545e-05
1.26799e-05
1.22976e-05
1.22203e-05
1.21593e-05
1.23081e-05
1.24674e-05
1.2678e-05
1.31341e-05
1.3492e-05
1.43708e-05
1.51833e-05
1.68746e-05
1.8368e-05
2.14275e-05
2.357e-05
2.79945e-05
3.08002e-05
3.66516e-05
4.03002e-05
4.80646e-05
5.22112e-05
6.1589e-05
6.66447e-05
7.76255e-05
8.45721e-05
9.30838e-05
0.000100697
0.000102933
0.000103612
0.000103059
0.000101377
9.77003e-05
9.27112e-05
8.84512e-05
8.27113e-05
7.2977e-05
6.63323e-05
6.02062e-05
5.68031e-05
5.28918e-05
5.17646e-05
5.09605e-05
4.87353e-05
4.37707e-05
4.18668e-05
4.1634e-05
4.30984e-05
5.81448e-05
6.4038e-05
8.0349e-05
7.82726e-05
9.5145e-05
8.63331e-05
0.000106417
9.14729e-05
9.94404e-05
9.17914e-05
8.58726e-05
9.47028e-05
0.00010171
0.000100124
9.9569e-05
9.85611e-05
9.8242e-05
9.7548e-05
9.56119e-05
9.29786e-05
8.92115e-05
8.62553e-05
8.45529e-05
8.35143e-05
8.36171e-05
8.36138e-05
8.37405e-05
8.38048e-05
8.24419e-05
8.00226e-05
7.65248e-05
7.45398e-05
7.35251e-05
7.32802e-05
7.36943e-05
7.46123e-05
7.55635e-05
7.62832e-05
7.62724e-05
7.57833e-05
7.36939e-05
7.15531e-05
7.0209e-05
6.87471e-05
6.83962e-05
6.81415e-05
6.7927e-05
6.78709e-05
6.76461e-05
6.74536e-05
6.72486e-05
6.67241e-05
6.64225e-05
6.5745e-05
6.49649e-05
6.44599e-05
6.28774e-05
6.17097e-05
6.03961e-05
5.87471e-05
5.82443e-05
5.73034e-05
5.69889e-05
5.68886e-05
5.66882e-05
5.67284e-05
5.6593e-05
5.61744e-05
5.53659e-05
5.45886e-05
5.41607e-05
5.40994e-05
5.41257e-05
5.42809e-05
5.48205e-05
5.49733e-05
5.54899e-05
5.55136e-05
5.5639e-05
5.56429e-05
5.54279e-05
5.54249e-05
5.5284e-05
5.52754e-05
5.5314e-05
5.5322e-05
5.55064e-05
5.56522e-05
5.593e-05
5.6276e-05
5.67444e-05
5.69587e-05
5.75435e-05
5.78614e-05
5.86034e-05
5.89142e-05
5.9946e-05
6.04598e-05
6.15298e-05
6.21321e-05
6.23482e-05
6.32918e-05
6.31457e-05
6.32037e-05
6.31276e-05
6.25425e-05
6.2287e-05
6.17502e-05
6.04389e-05
5.97325e-05
5.78379e-05
5.61317e-05
5.39777e-05
5.06678e-05
4.80054e-05
4.4315e-05
4.07371e-05
3.69869e-05
3.33002e-05
2.96599e-05
2.62935e-05
2.32592e-05
2.03609e-05
1.80193e-05
1.58964e-05
1.40841e-05
1.28147e-05
1.15668e-05
1.07511e-05
1.00973e-05
9.51264e-06
9.08494e-06
8.72681e-06
8.42775e-06
8.22145e-06
8.07134e-06
7.98158e-06
7.90475e-06
7.78787e-06
7.74302e-06
7.74164e-06
7.77851e-06
7.82655e-06
7.98764e-06
8.0469e-06
8.17763e-06
8.2117e-06
8.28595e-06
8.29976e-06
8.41022e-06
8.50934e-06
8.82905e-06
9.01769e-06
9.50749e-06
9.80223e-06
1.0548e-05
1.10289e-05
1.21239e-05
1.29103e-05
1.45225e-05
1.60148e-05
1.78576e-05
2.08162e-05
2.31107e-05
2.66177e-05
2.94665e-05
3.38144e-05
3.70517e-05
4.25298e-05
4.63198e-05
5.37438e-05
5.84944e-05
6.74137e-05
7.33137e-05
8.66711e-05
9.46527e-05
0.000111857
0.000118524
0.000124416
0.000123649
0.000122512
0.000119647
0.000118047
0.000114654
0.000110717
0.000107881
0.000103479
9.72332e-05
9.07526e-05
8.45194e-05
7.6092e-05
6.49496e-05
5.96087e-05
5.90591e-05
5.57226e-05
5.29621e-05
5.03073e-05
4.93544e-05
5.20276e-05
6.07287e-05
7.77702e-05
7.74412e-05
9.11422e-05
8.57499e-05
0.000100992
9.51364e-05
0.000101132
9.74317e-05
9.78134e-05
9.80826e-05
9.52145e-05
9.6945e-05
4.15408e-05
4.07236e-05
4.04536e-05
4.04439e-05
4.06405e-05
4.09527e-05
4.09307e-05
4.05003e-05
3.87568e-05
3.72065e-05
3.61595e-05
3.551e-05
3.55082e-05
3.58663e-05
3.67713e-05
3.74008e-05
3.74608e-05
3.7157e-05
3.53855e-05
3.38095e-05
3.2748e-05
3.22317e-05
3.23445e-05
3.33313e-05
3.49188e-05
3.62764e-05
3.68304e-05
3.70916e-05
3.67642e-05
3.52593e-05
3.41896e-05
3.29288e-05
3.25295e-05
3.22575e-05
3.21311e-05
3.217e-05
3.21125e-05
3.20957e-05
3.20677e-05
3.19412e-05
3.19133e-05
3.18714e-05
3.18057e-05
3.17829e-05
3.16927e-05
3.13261e-05
3.0446e-05
2.92697e-05
2.85046e-05
2.78176e-05
2.75803e-05
2.75887e-05
2.771e-05
2.82196e-05
2.84655e-05
2.8573e-05
2.84551e-05
2.77682e-05
2.70865e-05
2.67486e-05
2.65419e-05
2.65491e-05
2.67707e-05
2.6977e-05
2.76579e-05
2.78225e-05
2.81407e-05
2.82127e-05
2.81728e-05
2.82275e-05
2.80304e-05
2.79844e-05
2.78901e-05
2.78494e-05
2.79265e-05
2.79273e-05
2.80722e-05
2.81975e-05
2.85905e-05
2.88676e-05
2.89963e-05
2.9495e-05
2.97804e-05
2.99307e-05
3.04663e-05
3.06877e-05
3.12573e-05
3.17339e-05
3.22147e-05
3.25894e-05
3.2571e-05
3.24943e-05
3.23166e-05
3.18379e-05
3.10114e-05
3.04868e-05
2.94257e-05
2.87306e-05
2.78343e-05
2.67002e-05
2.57125e-05
2.45156e-05
2.29778e-05
2.16087e-05
1.98616e-05
1.81122e-05
1.65328e-05
1.46915e-05
1.3289e-05
1.18029e-05
1.05568e-05
9.71312e-06
8.86258e-06
8.49092e-06
8.15246e-06
7.93156e-06
7.90751e-06
7.81028e-06
7.69944e-06
7.64561e-06
7.46732e-06
7.41732e-06
7.3076e-06
7.24855e-06
7.19788e-06
7.16522e-06
7.07859e-06
7.00903e-06
6.91203e-06
6.86575e-06
6.86724e-06
6.88235e-06
6.93601e-06
7.00356e-06
7.11258e-06
7.33589e-06
7.49872e-06
7.94194e-06
8.3503e-06
9.18567e-06
9.99125e-06
1.14033e-05
1.26072e-05
1.49174e-05
1.6437e-05
1.95491e-05
2.15788e-05
2.55094e-05
2.78715e-05
3.25804e-05
3.52796e-05
4.04917e-05
4.31975e-05
4.86245e-05
5.1451e-05
5.75717e-05
6.09672e-05
6.79134e-05
7.40839e-05
8.18244e-05
8.97112e-05
0.000103215
0.000120949
0.000132964
0.000137893
0.000134726
0.000133562
0.000128569
0.000126853
0.000122552
0.000120641
0.000117566
0.00011709
0.000114401
0.000112198
0.000104947
0.000100409
9.65872e-05
8.48678e-05
8.05516e-05
7.15264e-05
6.72224e-05
6.28225e-05
5.80054e-05
5.83963e-05
5.73355e-05
7.12286e-05
7.84193e-05
9.89179e-05
9.6506e-05
0.000112472
0.000102414
0.00010738
0.000101452
0.000102794
0.000101795
0.000102294
0.000105478
0.000102952
0.000101368
1.36542e-05
1.37736e-05
1.39663e-05
1.40382e-05
1.41696e-05
1.43207e-05
1.4334e-05
1.41411e-05
1.35113e-05
1.2956e-05
1.26717e-05
1.25022e-05
1.25256e-05
1.27602e-05
1.31501e-05
1.34021e-05
1.34303e-05
1.32808e-05
1.2646e-05
1.20965e-05
1.17181e-05
1.15344e-05
1.15736e-05
1.19956e-05
1.27146e-05
1.3326e-05
1.35717e-05
1.3724e-05
1.36262e-05
1.32443e-05
1.29794e-05
1.2655e-05
1.25261e-05
1.24389e-05
1.23048e-05
1.2246e-05
1.21055e-05
1.19625e-05
1.17716e-05
1.16337e-05
1.16054e-05
1.18064e-05
1.2337e-05
1.28298e-05
1.31179e-05
1.32075e-05
1.31381e-05
1.24868e-05
1.18122e-05
1.12133e-05
1.08646e-05
1.07823e-05
1.08212e-05
1.12195e-05
1.15651e-05
1.17866e-05
1.18741e-05
1.17717e-05
1.14899e-05
1.12329e-05
1.10924e-05
1.10855e-05
1.11569e-05
1.14107e-05
1.18427e-05
1.19864e-05
1.21592e-05
1.21568e-05
1.20006e-05
1.19336e-05
1.17184e-05
1.17323e-05
1.17044e-05
1.1719e-05
1.189e-05
1.20218e-05
1.24255e-05
1.26585e-05
1.29679e-05
1.32121e-05
1.33515e-05
1.35406e-05
1.35627e-05
1.35895e-05
1.3642e-05
1.37319e-05
1.41472e-05
1.46978e-05
1.52027e-05
1.54448e-05
1.55003e-05
1.54717e-05
1.53813e-05
1.51634e-05
1.43948e-05
1.39276e-05
1.32396e-05
1.26923e-05
1.23115e-05
1.1756e-05
1.13739e-05
1.09108e-05
1.03428e-05
9.81563e-06
9.13857e-06
8.57181e-06
7.93872e-06
7.44316e-06
7.04443e-06
6.79072e-06
6.78623e-06
6.80964e-06
6.89796e-06
7.16412e-06
7.31205e-06
7.64061e-06
7.83831e-06
8.10139e-06
8.21501e-06
8.36005e-06
8.38507e-06
8.43706e-06
8.43299e-06
8.44078e-06
8.49384e-06
8.60546e-06
8.6328e-06
8.71763e-06
8.73838e-06
8.76729e-06
8.81759e-06
8.89017e-06
9.07418e-06
9.29474e-06
9.82454e-06
1.04059e-05
1.12365e-05
1.28583e-05
1.41005e-05
1.60743e-05
1.91866e-05
2.09682e-05
2.46308e-05
2.82353e-05
3.1053e-05
3.65544e-05
3.97071e-05
4.56329e-05
4.89957e-05
5.5222e-05
5.87857e-05
6.47977e-05
6.75877e-05
7.29139e-05
7.54508e-05
8.1391e-05
8.467e-05
9.28506e-05
9.77357e-05
0.000108584
0.000120952
0.000145009
0.000147978
0.000147528
0.000143929
0.000136052
0.000132081
0.000122364
0.000120129
0.000115144
0.000115064
0.000114385
0.000114379
0.000114219
0.000114326
0.000111978
0.000108731
0.000102027
9.726e-05
8.87545e-05
8.56559e-05
7.59862e-05
7.57534e-05
6.86443e-05
7.71528e-05
7.53102e-05
8.51213e-05
9.10892e-05
9.1112e-05
9.5901e-05
9.20509e-05
9.83458e-05
9.44684e-05
9.84897e-05
9.70321e-05
0.000102311
0.000101697
0.000105929
0.000115155
0.000114898
4.24517e-06
4.23288e-06
4.26953e-06
4.33234e-06
4.44095e-06
4.45782e-06
4.46388e-06
4.47029e-06
4.4798e-06
4.43227e-06
4.35033e-06
4.2707e-06
4.25371e-06
4.26555e-06
4.32773e-06
4.38944e-06
4.43108e-06
4.46072e-06
4.48102e-06
4.4325e-06
4.32371e-06
4.23816e-06
4.21263e-06
4.21296e-06
4.21431e-06
4.21576e-06
4.26033e-06
4.42761e-06
4.59877e-06
4.68013e-06
4.71331e-06
4.66716e-06
4.58798e-06
4.44912e-06
4.314e-06
4.19497e-06
4.10914e-06
4.02127e-06
3.94134e-06
3.89065e-06
3.88708e-06
4.07873e-06
4.48044e-06
4.79343e-06
4.9483e-06
4.97221e-06
4.83283e-06
4.51364e-06
4.25683e-06
4.06518e-06
3.9306e-06
3.86408e-06
3.83512e-06
3.88869e-06
4.16832e-06
4.45394e-06
4.64903e-06
4.7061e-06
4.6793e-06
4.50267e-06
4.34354e-06
4.25862e-06
4.22802e-06
4.24285e-06
4.29409e-06
4.32762e-06
4.36008e-06
4.34399e-06
4.32078e-06
4.29933e-06
4.2969e-06
4.30756e-06
4.46769e-06
4.58928e-06
4.81942e-06
4.95418e-06
5.04907e-06
5.20345e-06
5.24358e-06
5.30204e-06
5.30195e-06
5.28577e-06
5.26066e-06
5.18198e-06
5.13097e-06
5.09173e-06
5.07757e-06
5.17427e-06
5.58163e-06
5.91152e-06
6.20951e-06
6.32968e-06
6.36448e-06
6.37105e-06
6.26443e-06
6.0069e-06
5.73545e-06
5.44977e-06
5.26435e-06
5.1145e-06
5.02839e-06
5.0216e-06
5.0556e-06
5.12275e-06
5.22401e-06
5.34132e-06
5.52279e-06
5.68023e-06
5.97975e-06
6.43191e-06
6.79351e-06
7.59343e-06
8.39488e-06
9.36378e-06
1.03329e-05
1.1345e-05
1.22e-05
1.27521e-05
1.31032e-05
1.32727e-05
1.33538e-05
1.33864e-05
1.34988e-05
1.3551e-05
1.37931e-05
1.39409e-05
1.41356e-05
1.43111e-05
1.43901e-05
1.44908e-05
1.46882e-05
1.49489e-05
1.53846e-05
1.60194e-05
1.73526e-05
1.86078e-05
2.05803e-05
2.34815e-05
2.69626e-05
2.98144e-05
3.56623e-05
3.92848e-05
4.59689e-05
5.00021e-05
5.73054e-05
6.30522e-05
6.90236e-05
7.55049e-05
8.20077e-05
8.71694e-05
9.34013e-05
9.71262e-05
0.000100489
0.00010286
0.000104561
0.000108548
0.000111342
0.000117868
0.0001252
0.000146019
0.000157045
0.000160336
0.000154191
0.000149053
0.000131754
0.000123761
0.000116555
0.000113867
0.000112674
0.00010904
0.000107397
0.000107626
0.000106487
0.000108274
0.000107901
0.000108574
0.000107866
0.000103309
0.000101629
9.37939e-05
9.19672e-05
8.29522e-05
9.79545e-05
9.16835e-05
9.7672e-05
9.70795e-05
9.47872e-05
9.35853e-05
8.75063e-05
9.11367e-05
8.55203e-05
8.98536e-05
8.96977e-05
9.7307e-05
9.63092e-05
0.000104181
0.000102172
0.00010405
0.000112127
0.000115318
2.6623e-06
2.67546e-06
2.7255e-06
2.74258e-06
2.74346e-06
2.75191e-06
2.76159e-06
2.76414e-06
2.74701e-06
2.73643e-06
2.7416e-06
2.73331e-06
2.71188e-06
2.69572e-06
2.70067e-06
2.74792e-06
2.76332e-06
2.76588e-06
2.74935e-06
2.74839e-06
2.76354e-06
2.76316e-06
2.73573e-06
2.71822e-06
2.735e-06
2.8074e-06
2.84789e-06
2.85346e-06
2.84508e-06
2.84289e-06
2.86646e-06
2.88996e-06
2.88587e-06
2.84505e-06
2.80034e-06
2.78212e-06
2.78559e-06
2.81756e-06
2.8506e-06
2.85983e-06
2.85713e-06
2.83856e-06
2.83329e-06
2.8324e-06
2.83256e-06
2.83441e-06
2.83694e-06
2.83873e-06
2.86723e-06
2.92659e-06
2.98522e-06
3.01822e-06
3.03006e-06
3.02745e-06
3.029e-06
2.99639e-06
2.94949e-06
2.90996e-06
2.90098e-06
2.91107e-06
2.98185e-06
3.00682e-06
3.0194e-06
3.00414e-06
2.95913e-06
2.93909e-06
2.93579e-06
2.95917e-06
2.99706e-06
3.0281e-06
3.02908e-06
3.00987e-06
2.98238e-06
2.96616e-06
2.96647e-06
2.97327e-06
2.97568e-06
2.9934e-06
2.98883e-06
2.99204e-06
2.98587e-06
2.97236e-06
2.96888e-06
2.94825e-06
2.93734e-06
2.93318e-06
2.93912e-06
2.95546e-06
2.99323e-06
3.04495e-06
3.10577e-06
3.25494e-06
3.31668e-06
3.45391e-06
3.52621e-06
3.62271e-06
3.68938e-06
3.81378e-06
3.93014e-06
4.09582e-06
4.45911e-06
4.72111e-06
5.21314e-06
5.79887e-06
6.33934e-06
7.13722e-06
8.20177e-06
8.85203e-06
1.01589e-05
1.13872e-05
1.25183e-05
1.43283e-05
1.5938e-05
1.74878e-05
1.91972e-05
2.04432e-05
2.16195e-05
2.22784e-05
2.25215e-05
2.26694e-05
2.26267e-05
2.26023e-05
2.27457e-05
2.29432e-05
2.33335e-05
2.35254e-05
2.37641e-05
2.39872e-05
2.41366e-05
2.44316e-05
2.47755e-05
2.55683e-05
2.64068e-05
2.81249e-05
2.99708e-05
3.31404e-05
3.66138e-05
4.19009e-05
4.68392e-05
5.44537e-05
6.15214e-05
6.91181e-05
7.8328e-05
8.6442e-05
9.41454e-05
0.000103271
0.000109855
0.000117965
0.000124672
0.000131164
0.000135685
0.00013841
0.000139293
0.000139076
0.000139064
0.00013942
0.000141411
0.000146305
0.000162076
0.000169981
0.000167799
0.000161399
0.000138071
0.00012475
0.000114572
0.000116113
0.000113632
0.00011461
0.000113917
0.000110604
0.000109204
0.000104435
0.000103057
0.00010398
0.000103843
0.000104052
0.000105241
0.000103315
0.000104744
0.00010213
0.000102158
9.63817e-05
0.000110349
0.000107494
0.000102484
9.81087e-05
9.2843e-05
9.22105e-05
8.43779e-05
8.36746e-05
8.27084e-05
9.10817e-05
9.00768e-05
9.62137e-05
9.6113e-05
0.000105823
0.000104729
0.00010468
0.000105983
0.000109732
2.50651e-06
2.51176e-06
2.54432e-06
2.56033e-06
2.56446e-06
2.59881e-06
2.65443e-06
2.72648e-06
2.76284e-06
2.7907e-06
2.80847e-06
2.82563e-06
2.82754e-06
2.81195e-06
2.7647e-06
2.73631e-06
2.73161e-06
2.79887e-06
2.92737e-06
3.02424e-06
3.07242e-06
3.08021e-06
3.07603e-06
3.007e-06
2.91656e-06
2.86598e-06
2.86401e-06
2.94021e-06
3.04061e-06
3.07494e-06
3.08056e-06
3.04058e-06
2.99326e-06
2.96383e-06
2.96279e-06
3.06243e-06
3.31182e-06
3.56547e-06
3.74182e-06
3.81319e-06
3.8043e-06
3.64795e-06
3.38397e-06
3.15165e-06
2.92698e-06
2.79056e-06
2.76155e-06
2.96518e-06
3.77346e-06
4.30595e-06
4.65365e-06
4.74163e-06