/*--------------------------------*- C++ -*----------------------------------*\
| =========                 |                                                 |
| \\      /  F ield         | OpenFOAM: The Open Source CFD Toolbox           |
|  \\    /   O peration     | Version:  2.4.0                                 |
|   \\  /    A nd           | Web:      www.OpenFOAM.org                      |
|    \\/     M anipulation  |                                                 |
\*---------------------------------------------------------------------------*/
FoamFile
{
    version     2.0;
    format      ascii;
    class       surfaceScalarField;
    location    "1.36";
    object      phi_0;
}
// * * * * * * * * * * * * * * * * * * * * * * * * * * * * * * * * * * * * * //

dimensions      [0 3 -1 0 0 0 0];

internalField   nonuniform List<scalar> 
17320
(
1.76396e-05
7.36039e-06
1.16181e-05
6.02153e-06
8.68159e-06
2.9365e-06
7.35568e-06
1.32591e-06
6.71998e-06
6.35706e-07
6.33987e-06
3.80104e-07
6.08003e-06
2.59845e-07
5.8728e-06
2.07223e-07
5.69994e-06
1.72868e-07
5.59031e-06
1.09626e-07
5.4788e-06
1.11513e-07
5.3889e-06
8.98969e-08
5.30131e-06
8.75863e-08
5.24255e-06
5.87614e-08
5.13268e-06
1.09877e-07
5.08043e-06
5.22414e-08
4.99086e-06
8.95719e-08
5.01888e-06
-2.80169e-08
4.77938e-06
2.39497e-07
-5.02708e-07
5.28209e-06
2.54651e-05
6.89528e-06
2.32473e-05
8.23938e-06
2.09902e-05
5.19359e-06
1.93203e-05
2.99581e-06
1.80763e-05
1.87966e-06
1.711e-05
1.3464e-06
1.6371e-05
9.98877e-07
1.57724e-05
8.05842e-07
1.53035e-05
6.41755e-07
1.4945e-05
4.68065e-07
1.46314e-05
4.25101e-07
1.43747e-05
3.46613e-07
1.41476e-05
3.14666e-07
1.39574e-05
2.48969e-07
1.37207e-05
3.46645e-07
1.35795e-05
1.93393e-07
1.33546e-05
3.14536e-07
1.33192e-05
7.32594e-09
1.31508e-05
4.07897e-07
-7.36824e-07
1.33849e-05
2.66258e-05
5.26947e-06
2.71534e-05
7.71181e-06
2.67815e-05
5.56548e-06
2.62544e-05
3.52291e-06
2.56041e-05
2.52993e-06
2.48704e-05
2.08008e-06
2.41701e-05
1.69922e-06
2.34971e-05
1.4788e-06
2.29321e-05
1.20681e-06
2.24559e-05
9.44246e-07
2.20329e-05
8.48071e-07
2.16723e-05
7.07211e-07
2.13653e-05
6.21678e-07
2.10856e-05
5.28669e-07
2.07832e-05
6.49111e-07
2.05748e-05
4.01797e-07
2.02924e-05
5.96851e-07
2.01639e-05
1.35838e-07
2.01247e-05
4.471e-07
-1.12203e-06
2.05099e-05
2.63299e-05
3.93959e-06
2.75332e-05
6.50848e-06
2.80773e-05
5.02144e-06
2.84647e-05
3.13542e-06
2.86522e-05
2.34252e-06
2.86222e-05
2.11007e-06
2.84897e-05
1.83165e-06
2.82251e-05
1.74345e-06
2.79672e-05
1.46464e-06
2.77001e-05
1.21138e-06
2.74341e-05
1.11403e-06
2.71559e-05
9.85456e-07
2.69345e-05
8.43115e-07
2.66791e-05
7.84041e-07
2.6421e-05
9.07161e-07
2.62073e-05
6.15541e-07
2.59803e-05
8.23795e-07
2.5675e-05
4.41146e-07
2.55784e-05
5.43762e-07
-7.18284e-07
2.51746e-05
2.60435e-05
2.89606e-06
2.72558e-05
5.29621e-06
2.80299e-05
4.24733e-06
2.85019e-05
2.66339e-06
2.89748e-05
1.86968e-06
2.93187e-05
1.76613e-06
2.96128e-05
1.53756e-06
2.97426e-05
1.61366e-06
2.98529e-05
1.35435e-06
2.98937e-05
1.17052e-06
2.9972e-05
1.0358e-06
2.99362e-05
1.02121e-06
2.99779e-05
8.01494e-07
2.99306e-05
8.31271e-07
2.98733e-05
9.64518e-07
2.98015e-05
6.8733e-07
2.9763e-05
8.62251e-07
2.93959e-05
8.08283e-07
2.9362e-05
5.77617e-07
-8.34439e-08
2.87272e-05
2.58183e-05
2.07777e-06
2.69529e-05
4.1616e-06
2.77853e-05
3.41493e-06
2.82435e-05
2.20521e-06
2.87351e-05
1.37803e-06
2.90746e-05
1.42667e-06
2.94512e-05
1.16097e-06
2.9702e-05
1.36281e-06
3.00345e-05
1.02187e-06
3.01384e-05
1.06657e-06
3.0439e-05
7.35207e-07
3.05026e-05
9.57609e-07
3.07209e-05
5.83181e-07
3.0829e-05
7.23257e-07
3.09928e-05
8.00662e-07
3.10363e-05
6.4387e-07
3.12885e-05
6.09991e-07
3.08908e-05
1.20602e-06
3.1042e-05
4.26408e-07
7.70723e-07
3.01878e-05
2.56819e-05
1.39591e-06
2.67832e-05
3.06026e-06
2.76117e-05
2.58639e-06
2.79813e-05
1.83563e-06
2.84602e-05
8.99173e-07
2.88647e-05
1.02213e-06
2.91863e-05
8.394e-07
2.9475e-05
1.07412e-06
2.98365e-05
6.60341e-07
2.99736e-05
9.29474e-07
3.02896e-05
4.19278e-07
3.03775e-05
8.69651e-07
3.06878e-05
2.7289e-07
3.06946e-05
7.16481e-07
3.10038e-05
4.91396e-07
3.10281e-05
6.19567e-07
3.13658e-05
2.7233e-07
3.11568e-05
1.41504e-06
3.0917e-05
6.66203e-07
1.53342e-06
3.01543e-05
2.55545e-05
8.41368e-07
2.66083e-05
2.0065e-06
2.75173e-05
1.67739e-06
2.79689e-05
1.38402e-06
2.83399e-05
5.28186e-07
2.86689e-05
6.93174e-07
2.90204e-05
4.87874e-07
2.93156e-05
7.78864e-07
2.95451e-05
4.3091e-07
2.98172e-05
6.57329e-07
3.00708e-05
1.65675e-07
3.02457e-05
6.94814e-07
3.05319e-05
-1.33273e-08
3.05737e-05
6.74664e-07
3.08127e-05
2.52424e-07
3.10479e-05
3.84342e-07
3.09917e-05
3.28514e-07
3.15265e-05
8.80276e-07
3.18109e-05
3.81759e-07
4.13849e-07
3.29305e-05
2.54211e-05
4.20256e-07
2.64731e-05
9.54468e-07
2.73551e-05
7.95448e-07
2.79941e-05
7.44971e-07
2.82801e-05
2.42254e-07
2.84678e-05
5.05456e-07
2.88884e-05
6.72216e-08
2.92243e-05
4.43027e-07
2.94679e-05
1.87259e-07
2.97756e-05
3.49671e-07
2.98772e-05
6.40737e-08
3.01815e-05
3.90454e-07
3.01726e-05
-4.4294e-09
3.06286e-05
2.18753e-07
3.06301e-05
2.50892e-07
3.0878e-05
1.36382e-07
3.11718e-05
3.47512e-08
3.13789e-05
6.73161e-07
3.17528e-05
7.89848e-09
9.50936e-08
3.20715e-05
2.54581e-05
-3.78268e-08
2.64006e-05
1.19058e-08
2.7176e-05
2.00844e-08
2.79028e-05
1.81963e-08
2.82097e-05
-6.47099e-08
2.85671e-05
1.48115e-07
2.8854e-05
-2.19729e-07
2.91597e-05
1.37333e-07
2.93963e-05
-4.92863e-08
2.97021e-05
4.38856e-08
2.98858e-05
-1.19626e-07
3.01179e-05
1.58356e-07
3.03181e-05
-2.04703e-07
3.0427e-05
1.09849e-07
3.06367e-05
4.1199e-08
3.08973e-05
-1.24186e-07
3.09661e-05
-3.40463e-08
3.14838e-05
1.55415e-07
3.14447e-05
4.70581e-08
-3.04125e-07
3.18439e-05
2.54275e-05
-4.65294e-07
2.64119e-05
-9.72486e-07
2.73056e-05
-8.73646e-07
2.78831e-05
-5.59315e-07
2.81683e-05
-3.4987e-07
2.85393e-05
-2.22913e-07
2.87789e-05
-4.59331e-07
2.91861e-05
-2.69869e-07
2.94374e-05
-3.00623e-07
2.97379e-05
-2.56612e-07
2.97981e-05
-1.79784e-07
3.01198e-05
-1.63323e-07
3.024e-05
-3.24927e-07
3.04451e-05
-9.52946e-08
3.06364e-05
-1.50037e-07
3.08687e-05
-3.56532e-07
3.11079e-05
-2.7322e-07
3.13204e-05
-5.7126e-08
3.16402e-05
-2.72749e-07
-6.40752e-07
3.19769e-05
2.54574e-05
-9.22721e-07
2.64922e-05
-2.00726e-06
2.73103e-05
-1.69176e-06
2.79082e-05
-1.15719e-06
2.82565e-05
-6.9821e-07
2.86037e-05
-5.70052e-07
2.88757e-05
-7.31352e-07
2.91995e-05
-5.93694e-07
2.94492e-05
-5.50294e-07
2.97399e-05
-5.47296e-07
2.99243e-05
-3.64253e-07
3.01799e-05
-4.18873e-07
3.02717e-05
-4.16762e-07
3.05499e-05
-3.73504e-07
3.0705e-05
-3.05136e-07
3.09065e-05
-5.58011e-07
3.10925e-05
-4.59165e-07
3.14251e-05
-3.89783e-07
3.17252e-05
-5.72858e-07
-6.78306e-07
3.17628e-05
2.55592e-05
-1.48189e-06
2.65944e-05
-3.04253e-06
2.73966e-05
-2.49389e-06
2.80286e-05
-1.78919e-06
2.83257e-05
-9.95311e-07
2.869e-05
-9.34392e-07
2.89914e-05
-1.03269e-06
2.93394e-05
-9.41768e-07
2.95701e-05
-7.80935e-07
2.98534e-05
-8.30643e-07
3.00429e-05
-5.53725e-07
3.02518e-05
-6.27749e-07
3.03967e-05
-5.61666e-07
3.06378e-05
-6.14636e-07
3.08191e-05
-4.86416e-07
3.10065e-05
-7.45438e-07
3.12088e-05
-6.61507e-07
3.15631e-05
-7.44071e-07
3.17569e-05
-7.66639e-07
-9.4578e-07
3.20244e-05
2.56779e-05
-2.15977e-06
2.67166e-05
-4.08121e-06
2.75919e-05
-3.36923e-06
2.80884e-05
-2.28568e-06
2.84716e-05
-1.37854e-06
2.88609e-05
-1.32371e-06
2.91758e-05
-1.3476e-06
2.94779e-05
-1.24379e-06
2.97328e-05
-1.03583e-06
3.00189e-05
-1.11682e-06
3.02097e-05
-7.44525e-07
3.043e-05
-8.47981e-07
3.0575e-05
-7.06741e-07
3.08104e-05
-8.49949e-07
3.09413e-05
-6.17339e-07
3.11595e-05
-9.63681e-07
3.13424e-05
-8.44387e-07
3.16442e-05
-1.04587e-06
3.19093e-05
-1.03176e-06
-1.20957e-06
3.21731e-05
2.58364e-05
-2.99622e-06
2.69443e-05
-5.18909e-06
2.78104e-05
-4.23534e-06
2.8246e-05
-2.72127e-06
2.87038e-05
-1.83628e-06
2.91088e-05
-1.72874e-06
2.94454e-05
-1.68423e-06
2.97111e-05
-1.50947e-06
2.99739e-05
-1.29858e-06
3.01797e-05
-1.32267e-06
3.03812e-05
-9.45973e-07
3.05426e-05
-1.00943e-06
3.07076e-05
-8.7172e-07
3.08429e-05
-9.85284e-07
3.09539e-05
-7.283e-07
3.10894e-05
-1.09915e-06
3.11881e-05
-9.43106e-07
3.14119e-05
-1.26965e-06
3.1548e-05
-1.16794e-06
-1.46068e-06
3.17991e-05
2.60219e-05
-4.01812e-06
2.72334e-05
-6.40062e-06
2.80516e-05
-5.05348e-06
2.85072e-05
-3.17693e-06
2.8975e-05
-2.30405e-06
2.93304e-05
-2.08418e-06
2.95739e-05
-1.92772e-06
2.9721e-05
-1.65652e-06
2.98579e-05
-1.43556e-06
2.98954e-05
-1.36008e-06
2.99611e-05
-1.0117e-06
2.99484e-05
-9.96698e-07
2.99543e-05
-8.77683e-07
2.98968e-05
-9.27758e-07
2.9874e-05
-7.05511e-07
2.97755e-05
-1.00069e-06
2.96894e-05
-8.56959e-07
2.96304e-05
-1.21068e-06
2.95431e-05
-1.08063e-06
-1.51812e-06
2.96006e-05
2.62995e-05
-5.31761e-06
2.75515e-05
-7.65262e-06
2.80806e-05
-5.58259e-06
2.84411e-05
-3.5374e-06
2.86443e-05
-2.50726e-06
2.86291e-05
-2.06899e-06
2.84613e-05
-1.75989e-06
2.8233e-05
-1.42829e-06
2.79738e-05
-1.17636e-06
2.76701e-05
-1.05633e-06
2.74327e-05
-7.74275e-07
2.71552e-05
-7.19262e-07
2.69091e-05
-6.31617e-07
2.66393e-05
-6.57871e-07
2.6427e-05
-4.93223e-07
2.61277e-05
-7.01428e-07
2.5885e-05
-6.14287e-07
2.55614e-05
-8.8708e-07
2.53138e-05
-8.33034e-07
-1.3644e-06
2.51601e-05
2.66012e-05
-6.91879e-06
2.71639e-05
-8.21533e-06
2.67764e-05
-5.19509e-06
2.62434e-05
-3.00446e-06
2.56058e-05
-1.86964e-06
2.4874e-05
-1.33713e-06
2.41465e-05
-1.03247e-06
2.35058e-05
-7.87588e-07
2.29363e-05
-6.06778e-07
2.24274e-05
-5.47499e-07
2.20336e-05
-3.80484e-07
2.16649e-05
-3.50559e-07
2.13473e-05
-3.14035e-07
2.1035e-05
-3.45513e-07
2.07857e-05
-2.43909e-07
2.04624e-05
-3.78107e-07
2.01919e-05
-3.43833e-07
1.97855e-05
-4.80702e-07
1.94216e-05
-4.69115e-07
-5.0485e-07
1.85621e-05
2.5449e-05
-7.3678e-06
2.32495e-05
-6.01582e-06
2.09865e-05
-2.93208e-06
1.93138e-05
-1.33176e-06
1.80779e-05
-6.33709e-07
1.71135e-05
-3.72775e-07
1.63559e-05
-2.74882e-07
1.57737e-05
-2.05341e-07
1.53137e-05
-1.46819e-07
1.49177e-05
-1.51452e-07
1.46296e-05
-9.24213e-08
1.43675e-05
-8.84778e-08
1.41378e-05
-8.43566e-08
1.39008e-05
-1.08485e-07
1.37194e-05
-6.25186e-08
1.34651e-05
-1.2373e-07
1.32347e-05
-1.13523e-07
1.29135e-05
-1.59495e-07
1.26492e-05
-2.0479e-07
-9.31668e-08
1.22375e-05
1.76322e-05
1.16164e-05
8.6843e-06
7.35254e-06
6.71883e-06
6.34606e-06
6.07117e-06
5.86583e-06
5.71901e-06
5.56756e-06
5.47514e-06
5.38666e-06
5.30231e-06
5.19382e-06
5.1313e-06
5.00757e-06
4.89405e-06
4.73455e-06
4.52976e-06
4.4366e-06
5.75779e-06
-3.30037e-07
-1.45663e-07
6.11412e-06
-1.65199e-07
-1.91126e-07
6.34904e-06
-2.10743e-08
-2.13847e-07
6.5177e-06
1.84003e-08
-1.87066e-07
6.67682e-06
-1.85468e-09
-1.5726e-07
6.85899e-06
-4.69051e-08
-1.35268e-07
7.04869e-06
-1.10419e-07
-7.92764e-08
7.2425e-06
-1.45422e-07
-4.83903e-08
7.41827e-06
-1.66567e-07
-9.20519e-09
7.56392e-06
-1.37077e-07
-8.5745e-09
7.6904e-06
-1.10608e-07
-1.58754e-08
7.82992e-06
-7.68743e-08
-6.26383e-08
7.97424e-06
-5.13786e-08
-9.29441e-08
8.12885e-06
-6.34794e-08
-9.11283e-08
8.26788e-06
-9.24128e-08
-4.66187e-08
8.37434e-06
-1.40628e-07
3.41675e-08
8.46017e-06
-2.02177e-07
1.16343e-07
8.52011e-06
-2.20016e-07
1.60076e-07
8.59037e-06
-2.40405e-07
1.70148e-07
8.65733e-06
-2.16114e-07
1.49151e-07
8.72231e-06
-2.01278e-07
1.36302e-07
8.78207e-06
-1.89708e-07
1.29949e-07
8.82385e-06
-1.68721e-07
1.26934e-07
8.85865e-06
-1.5553e-07
1.20736e-07
8.88276e-06
-1.27194e-07
1.03082e-07
8.89836e-06
-7.24254e-08
5.68269e-08
8.93968e-06
-1.53901e-08
-2.59357e-08
8.99438e-06
9.28238e-08
-1.47517e-07
9.09415e-06
1.72396e-07
-2.72171e-07
9.24875e-06
2.76633e-07
-4.3123e-07
9.40161e-06
3.41823e-07
-4.94685e-07
9.57635e-06
3.36867e-07
-5.11605e-07
9.77196e-06
3.39207e-07
-5.34814e-07
9.96864e-06
3.1241e-07
-5.09098e-07
1.0124e-05
2.41591e-07
-3.96932e-07
1.02505e-05
1.49108e-07
-2.75667e-07
1.03578e-05
7.34143e-08
-1.80715e-07
1.04266e-05
4.7036e-09
-7.34923e-08
1.0471e-05
-5.7477e-08
1.3117e-08
1.05249e-05
-1.18068e-07
6.41309e-08
1.05726e-05
-1.27469e-07
7.9786e-08
1.06353e-05
-1.56871e-07
9.42127e-08
1.07014e-05
-1.68433e-07
1.02302e-07
1.07532e-05
-2.00023e-07
1.48207e-07
1.083e-05
-2.32943e-07
1.56161e-07
1.08958e-05
-2.44567e-07
1.7881e-07
1.09609e-05
-2.5029e-07
1.85194e-07
1.10095e-05
-2.76462e-07
2.27824e-07
1.10633e-05
-2.90657e-07
2.36879e-07
1.11153e-05
-3.13947e-07
2.61908e-07
1.11668e-05
-3.21209e-07
2.69765e-07
1.12101e-05
-3.14071e-07
2.70693e-07
1.12707e-05
-3.15648e-07
2.55094e-07
1.13137e-05
-2.95099e-07
2.5208e-07
1.13639e-05
-2.93871e-07
2.43715e-07
1.13911e-05
-2.83989e-07
2.56757e-07
1.14e-05
-2.68251e-07
2.59326e-07
1.13849e-05
-2.5271e-07
2.67809e-07
1.13582e-05
-2.12695e-07
2.39381e-07
1.13174e-05
-1.41611e-07
1.8241e-07
1.13042e-05
-4.97371e-08
6.29507e-08
1.13264e-05
1.09497e-08
-3.31754e-08
1.13394e-05
1.0082e-07
-1.1377e-07
1.13679e-05
1.22865e-07
-1.51379e-07
1.13523e-05
1.64259e-07
-1.48685e-07
1.13479e-05
1.33174e-07
-1.28737e-07
1.13155e-05
1.37581e-07
-1.05149e-07
1.13012e-05
1.41653e-07
-1.27401e-07
1.13237e-05
1.54075e-07
-1.76614e-07
1.1342e-05
2.26326e-07
-2.44592e-07
1.14345e-05
2.2934e-07
-3.21831e-07
1.15081e-05
3.02531e-07
-3.7611e-07
1.16678e-05
3.0091e-07
-4.60635e-07
1.18038e-05
3.49559e-07
-4.85541e-07
1.19874e-05
2.89408e-07
-4.73018e-07
1.21562e-05
3.16631e-07
-4.85442e-07
1.23118e-05
2.41151e-07
-3.96729e-07
1.24719e-05
2.08106e-07
-3.68233e-07
1.25953e-05
1.8465e-07
-3.08063e-07
1.27158e-05
1.35024e-07
-2.55467e-07
1.28164e-05
1.17492e-07
-2.18133e-07
1.29107e-05
1.06861e-07
-2.01117e-07
1.29788e-05
1.24656e-07
-1.92774e-07
1.30794e-05
8.79845e-08
-1.8863e-07
1.3158e-05
1.64509e-07
-2.43053e-07
1.3234e-05
1.32887e-07
-2.08921e-07
1.33665e-05
2.01073e-07
-3.33542e-07
1.34438e-05
2.19301e-07
-2.9658e-07
1.36309e-05
2.03279e-07
-3.90424e-07
1.37339e-05
2.43552e-07
-3.46546e-07
1.39216e-05
1.99102e-07
-3.8681e-07
1.40478e-05
1.86215e-07
-3.12435e-07
1.41522e-05
2.04265e-07
-3.08632e-07
1.43139e-05
4.28657e-08
-2.04605e-07
1.44131e-05
1.78945e-07
-2.7812e-07
1.45244e-05
1.81569e-08
-1.29486e-07
1.47204e-05
4.06097e-08
-2.36568e-07
1.48804e-05
5.61716e-08
-2.16222e-07
1.51421e-05
-3.28695e-08
-2.28778e-07
1.55148e-05
-9.16339e-08
-2.81064e-07
1.58173e-05
-8.3654e-08
-2.18815e-07
1.63441e-05
-3.57159e-07
-1.69705e-07
1.68505e-05
-4.59784e-07
-4.65684e-08
1.73905e-05
-6.73663e-07
1.33641e-07
1.80649e-05
-1.15765e-06
4.83253e-07
1.86716e-05
-1.35628e-06
7.49579e-07
1.93268e-05
-1.90183e-06
1.24662e-06
2.00168e-05
-2.38467e-06
1.69468e-06
2.06237e-05
-2.75852e-06
2.15164e-06
2.12706e-05
-3.34654e-06
2.69959e-06
2.18182e-05
-3.7389e-06
3.19136e-06
2.23579e-05
-4.12839e-06
3.58871e-06
2.28129e-05
-4.48996e-06
4.03491e-06
2.31972e-05
-4.7576e-06
4.37333e-06
2.35277e-05
-4.85836e-06
4.52786e-06
2.37026e-05
-5.01132e-06
4.83642e-06
2.38933e-05
-4.91911e-06
4.72835e-06
2.39606e-05
-4.76417e-06
4.69686e-06
2.40233e-05
-4.59581e-06
4.53312e-06
2.40742e-05
-4.19101e-06
4.14014e-06
2.40163e-05
-3.76638e-06
3.82433e-06
2.40423e-05
-3.41917e-06
3.39311e-06
2.39354e-05
-2.71093e-06
2.81784e-06
2.39493e-05
-2.37563e-06
2.36173e-06
2.38965e-05
-1.74187e-06
1.79463e-06
2.39613e-05
-1.27034e-06
1.2056e-06
2.39821e-05
-8.31917e-07
8.1113e-07
2.41334e-05
-3.88347e-07
2.3698e-07
2.41795e-05
-8.71997e-08
4.11771e-08
2.439e-05
2.22994e-07
-4.33486e-07
2.4525e-05
3.47829e-07
-4.82859e-07
2.48199e-05
4.36481e-07
-7.31407e-07
2.50449e-05
5.09692e-07
-7.34647e-07
2.54692e-05
3.07731e-07
-7.32073e-07
2.58299e-05
2.83732e-07
-6.44408e-07
2.63641e-05
5.96797e-08
-5.9387e-07
2.67667e-05
-2.89895e-07
-1.12698e-07
2.74574e-05
-5.07142e-07
-1.8362e-07
2.78912e-05
-8.65242e-07
4.31509e-07
2.86466e-05
-1.41664e-06
6.6117e-07
2.91328e-05
-1.59953e-06
1.11341e-06
2.99262e-05
-2.33842e-06
1.545e-06
3.03807e-05
-2.59961e-06
2.1451e-06
3.11776e-05
-3.28188e-06
2.48499e-06
3.16666e-05
-3.76073e-06
3.27173e-06
3.23461e-05
-4.32143e-06
3.64194e-06
3.28578e-05
-4.91552e-06
4.40382e-06
3.34222e-05
-5.56e-06
4.99554e-06
3.38405e-05
-6.03865e-06
5.62033e-06
3.42896e-05
-6.88104e-06
6.43197e-06
3.44647e-05
-7.25263e-06
7.07759e-06
3.4785e-05
-8.04696e-06
7.72663e-06
3.46747e-05
-8.54108e-06
8.65131e-06
3.46523e-05
-8.95161e-06
8.97408e-06
3.4346e-05
-9.58867e-06
9.895e-06
3.39534e-05
-9.73337e-06
1.01259e-05
3.3327e-05
-1.01568e-05
1.07832e-05
3.27927e-05
-1.00615e-05
1.05957e-05
3.20615e-05
-1.04705e-05
1.12018e-05
3.12469e-05
-9.85734e-06
1.0672e-05
3.08549e-05
-1.00909e-05
1.04829e-05
3.02613e-05
-9.84152e-06
1.04351e-05
2.99746e-05
-9.39019e-06
9.67687e-06
2.97243e-05
-9.03502e-06
9.28535e-06
2.97877e-05
-8.5964e-06
8.53296e-06
2.97119e-05
-8.07604e-06
8.15187e-06
2.97062e-05
-7.17768e-06
7.18341e-06
2.96226e-05
-6.12528e-06
6.20889e-06
2.97477e-05
-5.62089e-06
5.49577e-06
2.93847e-05
-4.21537e-06
4.5784e-06
2.9209e-05
-3.07478e-06
3.25039e-06
2.88037e-05
-2.22136e-06
2.62674e-06
2.82505e-05
-8.14304e-07
1.36749e-06
2.75784e-05
1.68525e-07
5.03588e-07
2.68263e-05
1.17488e-06
-4.22809e-07
2.60058e-05
1.96103e-06
-1.14056e-06
2.4978e-05
3.0725e-06
-2.04466e-06
2.40059e-05
3.48637e-06
-2.51429e-06
2.28893e-05
4.21164e-06
-3.09508e-06
2.19005e-05
4.52348e-06
-3.53461e-06
2.09757e-05
5.12179e-06
-4.19705e-06
1.98873e-05
5.28721e-06
-4.19879e-06
1.91943e-05
5.69122e-06
-4.99823e-06
1.81732e-05
6.19259e-06
-5.17149e-06
1.7854e-05
6.80094e-06
-6.48176e-06
1.70706e-05
7.91785e-06
-7.13439e-06
1.70365e-05
7.92046e-06
-7.88642e-06
1.69156e-05
8.76086e-06
-8.63989e-06
1.69654e-05
8.85942e-06
-8.9092e-06
1.74453e-05
9.45309e-06
-9.93299e-06
1.74152e-05
1.04587e-05
-1.04287e-05
1.76882e-05
1.13979e-05
-1.16709e-05
1.76113e-05
1.30094e-05
-1.29325e-05
1.77785e-05
1.4568e-05
-1.47352e-05
1.66885e-05
1.70474e-05
-1.59574e-05
1.68786e-05
1.77242e-05
-1.79144e-05
1.83387e-05
2.10083e-05
-2.24684e-05
1.65793e-05
2.64115e-05
-2.46521e-05
1.59688e-05
2.72307e-05
-2.66203e-05
3.59187e-05
-3.56703e-05
1.57205e-05
1.34246e-05
-3.69747e-07
1.3428e-05
-1.68576e-07
1.33966e-05
1.0376e-08
1.34042e-05
1.07653e-08
1.34415e-05
-3.91676e-08
1.35385e-05
-1.43893e-07
1.36606e-05
-2.32481e-07
1.3776e-05
-2.60843e-07
1.38878e-05
-2.78401e-07
1.39704e-05
-2.19697e-07
1.404e-05
-1.80128e-07
1.41175e-05
-1.54435e-07
1.41878e-05
-1.2161e-07
1.42734e-05
-1.49175e-07
1.4349e-05
-1.67921e-07
1.44082e-05
-1.99922e-07
1.44663e-05
-2.60261e-07
1.44946e-05
-2.48276e-07
1.45401e-05
-2.85933e-07
1.45773e-05
-2.53317e-07
1.46081e-05
-2.32022e-07
1.46474e-05
-2.2906e-07
1.46593e-05
-1.80622e-07
1.46776e-05
-1.73831e-07
1.46888e-05
-1.38334e-07
1.46935e-05
-7.71443e-08
1.47205e-05
-4.24023e-08
1.47577e-05
5.56534e-08
1.48102e-05
1.19847e-07
1.49033e-05
1.83526e-07
1.49833e-05
2.61833e-07
1.50773e-05
2.42919e-07
1.51693e-05
2.4714e-07
1.52681e-05
2.13666e-07
1.53622e-05
1.47485e-07
1.54135e-05
9.78243e-08
1.54933e-05
-6.45831e-09
1.55468e-05
-4.87877e-08
1.55924e-05
-1.03084e-07
1.56462e-05
-1.71831e-07
1.56997e-05
-1.8097e-07
1.5758e-05
-2.1517e-07
1.58333e-05
-2.43726e-07
1.58781e-05
-2.44817e-07
1.59484e-05
-3.03282e-07
1.60099e-05
-3.06006e-07
1.60714e-05
-3.11836e-07
1.61351e-05
-3.40142e-07
1.61649e-05
-3.20496e-07
1.62114e-05
-3.60405e-07
1.62415e-05
-3.5133e-07
1.62692e-05
-3.41798e-07
1.62982e-05
-3.44646e-07
1.63193e-05
-3.16194e-07
1.63231e-05
-2.97624e-07
1.63309e-05
-2.91786e-07
1.63091e-05
-2.46492e-07
1.62887e-05
-2.32328e-07
1.62555e-05
-1.79506e-07
1.62374e-05
-1.23441e-07
1.62434e-05
-5.58107e-08
1.62499e-05
4.51314e-09
1.62734e-05
7.73497e-08
1.62991e-05
9.71026e-08
1.63163e-05
1.47084e-07
1.6308e-05
1.41496e-07
1.63135e-05
1.32083e-07
1.62832e-05
1.71956e-07
1.63087e-05
1.28569e-07
1.63104e-05
2.24622e-07
1.63444e-05
1.95292e-07
1.63832e-05
2.63726e-07
1.64225e-05
2.61681e-07
1.64816e-05
2.90424e-07
1.65135e-05
2.57512e-07
1.65688e-05
2.61301e-07
1.65882e-05
2.21754e-07
1.66005e-05
1.9581e-07
1.66211e-05
1.64063e-07
1.66078e-05
1.48284e-07
1.66113e-05
1.14049e-07
1.66005e-05
1.17598e-07
1.66121e-05
1.13139e-07
1.66016e-05
9.84032e-08
1.66385e-05
1.27616e-07
1.66526e-05
1.18773e-07
1.67251e-05
1.28577e-07
1.67656e-05
1.78817e-07
1.68858e-05
8.30752e-08
1.69695e-05
1.59892e-07
1.71075e-05
6.10895e-08
1.72443e-05
4.9467e-08
1.73897e-05
5.884e-08
1.75296e-05
-9.70698e-08
1.77827e-05
-7.41006e-08
1.79267e-05
-1.25926e-07
1.82104e-05
-2.43029e-07
1.85467e-05
-2.80179e-07
1.88356e-05
-3.21746e-07
1.93086e-05
-5.64595e-07
1.97895e-05
-5.64614e-07
2.02648e-05
-8.32429e-07
2.09212e-05
-1.11623e-06
2.15113e-05
-1.26374e-06
2.21441e-05
-1.79046e-06
2.28417e-05
-2.0539e-06
2.34643e-05
-2.52443e-06
2.41189e-05
-3.0392e-06
2.47107e-05
-3.35039e-06
2.52759e-05
-3.91169e-06
2.57604e-05
-4.22341e-06
2.61851e-05
-4.55312e-06
2.65488e-05
-4.85363e-06
2.67753e-05
-4.98406e-06
2.70097e-05
-5.0928e-06
2.70965e-05
-5.09813e-06
2.71803e-05
-5.00291e-06
2.7184e-05
-4.76786e-06
2.71479e-05
-4.55973e-06
2.70652e-05
-4.10822e-06
2.70218e-05
-3.72306e-06
2.69094e-05
-3.30676e-06
2.69148e-05
-2.71628e-06
2.68947e-05
-2.35558e-06
2.69301e-05
-1.77721e-06
2.70327e-05
-1.37294e-06
2.71091e-05
-9.08384e-07
2.73105e-05
-5.89758e-07
2.74592e-05
-2.35856e-07
2.77242e-05
-4.19944e-08
2.79805e-05
9.15515e-08
2.82824e-05
1.34534e-07
2.86212e-05
1.70856e-07
2.90032e-05
-7.42333e-08
2.93915e-05
-1.04578e-07
2.9912e-05
-4.60788e-07
3.02719e-05
-6.49829e-07
3.0916e-05
-1.15118e-06
3.13378e-05
-1.2871e-06
3.19578e-05
-2.03659e-06
3.24529e-05
-2.09468e-06
3.30838e-05
-2.96931e-06
3.35274e-05
-3.04318e-06
3.4137e-05
-3.89145e-06
3.45399e-05
-4.16369e-06
3.50319e-05
-4.81344e-06
3.53714e-05
-5.255e-06
3.56641e-05
-5.85268e-06
3.58738e-05
-6.24832e-06
3.594e-05
-6.94724e-06
3.58468e-05
-7.15945e-06
3.57371e-05
-7.93723e-06
3.52374e-05
-8.04137e-06
3.48767e-05
-8.59095e-06
3.4143e-05
-8.85493e-06
3.34851e-05
-9.07551e-06
3.26251e-05
-9.29678e-06
3.20037e-05
-9.44013e-06
3.11388e-05
-9.60564e-06
3.06551e-05
-9.37363e-06
3.03965e-05
-9.83236e-06
3.00661e-05
-9.51109e-06
3.00416e-05
-9.36571e-06
3.01259e-05
-9.11928e-06
3.03222e-05
-8.79266e-06
3.03936e-05
-8.14752e-06
3.04352e-05
-7.21922e-06
3.05702e-05
-6.26033e-06
3.06368e-05
-5.68751e-06
3.02881e-05
-3.86666e-06
3.02147e-05
-3.0014e-06
2.97168e-05
-1.72344e-06
2.92571e-05
-3.54597e-07
2.85332e-05
8.92462e-07
2.77575e-05
1.95059e-06
2.66179e-05
3.10059e-06
2.56768e-05
4.01366e-06
2.43662e-05
4.79689e-06
2.34179e-05
5.15998e-06
2.19835e-05
5.95794e-06
2.11719e-05
5.93331e-06
1.99446e-05
6.51452e-06
1.94468e-05
6.18908e-06
1.86218e-05
7.01754e-06
1.7855e-05
7.56774e-06
1.76033e-05
8.16952e-06
1.71211e-05
8.40272e-06
1.78679e-05
8.01401e-06
1.7775e-05
8.95232e-06
1.85689e-05
8.65922e-06
1.87756e-05
1.0252e-05
1.89675e-05
1.1206e-05
1.90814e-05
1.28955e-05
1.94784e-05
1.4171e-05
1.98868e-05
1.6639e-05
1.82363e-05
1.93747e-05
2.01512e-05
1.90935e-05
2.02927e-05
2.627e-05
2.4826e-05
2.26974e-05
3.69784e-05
2.37662e-05
2.03242e-05
-1.83998e-07
2.01116e-05
4.3986e-08
1.99259e-05
1.96109e-07
1.98737e-05
6.29867e-08
1.98812e-05
-4.66622e-08
1.99713e-05
-2.34072e-07
2.00855e-05
-3.46617e-07
2.01618e-05
-3.37151e-07
2.02447e-05
-3.61323e-07
2.02861e-05
-2.61047e-07
2.03033e-05
-1.9734e-07
2.03305e-05
-1.81623e-07
2.03344e-05
-1.25541e-07
2.03811e-05
-1.95871e-07
2.04297e-05
-2.16568e-07
2.04675e-05
-2.37708e-07
2.05223e-05
-3.1501e-07
2.05324e-05
-2.58458e-07
2.0557e-05
-3.10443e-07
2.05681e-05
-2.6443e-07
2.0563e-05
-2.26992e-07
2.05801e-05
-2.46139e-07
2.05596e-05
-1.60105e-07
2.05634e-05
-1.77628e-07
2.05645e-05
-1.39414e-07
2.05551e-05
-6.778e-08
2.05837e-05
-7.09902e-08
2.0599e-05
4.03159e-08
2.0642e-05
7.68839e-08
2.06968e-05
1.28713e-07
2.075e-05
2.08636e-07
2.08117e-05
1.81227e-07
2.08681e-05
1.90796e-07
2.09069e-05
1.74843e-07
2.09782e-05
7.61747e-08
2.09974e-05
7.86182e-08
2.10389e-05
-4.79366e-08
2.10813e-05
-9.11807e-08
2.11017e-05
-1.2354e-07
2.1148e-05
-2.18089e-07
2.1173e-05
-2.05995e-07
2.12173e-05
-2.59456e-07
2.12681e-05
-2.94589e-07
2.1303e-05
-2.7964e-07
2.13449e-05
-3.45243e-07
2.13911e-05
-3.52132e-07
2.14182e-05
-3.38984e-07
2.14787e-05
-4.00601e-07
2.14867e-05
-3.28551e-07
2.15179e-05
-3.91604e-07
2.15276e-05
-3.61055e-07
2.15385e-05
-3.52638e-07
2.15488e-05
-3.54943e-07
2.15487e-05
-3.16156e-07
2.15443e-05
-2.93156e-07
2.15235e-05
-2.7104e-07
2.15043e-05
-2.27243e-07
2.14616e-05
-1.89596e-07
2.14432e-05
-1.6117e-07
2.14017e-05
-8.19556e-08
2.13976e-05
-5.16359e-08
2.13871e-05
1.49948e-08
2.13845e-05
7.99635e-08
2.13991e-05
8.25095e-08
2.13929e-05
1.53192e-07
2.13952e-05
1.39224e-07
2.13836e-05
1.43661e-07
2.13653e-05
1.9029e-07
2.13667e-05
1.27143e-07
2.13678e-05
2.23503e-07
2.13732e-05
1.89893e-07
2.14064e-05
2.30543e-07
2.13991e-05
2.68992e-07
2.14461e-05
2.43411e-07
2.14317e-05
2.71985e-07
2.14474e-05
2.45551e-07
2.14506e-05
2.18546e-07
2.14082e-05
2.38206e-07
2.14162e-05
1.5606e-07
2.13644e-05
2.00152e-07
2.13353e-05
1.43122e-07
2.13094e-05
1.43435e-07
2.1259e-05
1.63588e-07
2.12487e-05
1.08661e-07
2.12072e-05
1.69148e-07
2.12009e-05
1.25032e-07
2.12163e-05
1.13217e-07
2.12095e-05
1.85606e-07
2.12708e-05
2.1752e-08
2.12893e-05
1.4148e-07
2.13988e-05
-4.84248e-08
2.1463e-05
-1.47664e-08
2.16226e-05
-1.00784e-07
2.17404e-05
-2.14836e-07
2.19196e-05
-2.53292e-07
2.21789e-05
-3.85282e-07
2.24075e-05
-4.71604e-07
2.27341e-05
-6.06724e-07
2.31614e-05
-7.49053e-07
2.35081e-05
-9.11317e-07
2.40658e-05
-1.12237e-06
2.45793e-05
-1.34593e-06
2.51001e-05
-1.63702e-06
2.57538e-05
-1.91736e-06
2.63122e-05
-2.34889e-06
2.69047e-05
-2.64639e-06
2.74983e-05
-3.11808e-06
2.80053e-05
-3.5462e-06
2.8494e-05
-3.83905e-06
2.89204e-05
-4.33806e-06
2.92363e-05
-4.53932e-06
2.9513e-05
-4.82988e-06
2.968e-05
-5.02064e-06
2.97762e-05
-5.08024e-06
2.98217e-05
-5.13829e-06
2.9773e-05
-5.04941e-06
2.96911e-05
-4.92103e-06
2.95722e-05
-4.64896e-06
2.94112e-05
-4.39872e-06
2.92784e-05
-3.97542e-06
2.91558e-05
-3.60049e-06
2.90194e-05
-3.17031e-06
2.89832e-05
-2.68005e-06
2.89298e-05
-2.30225e-06
2.89683e-05
-1.81571e-06
2.90409e-05
-1.44554e-06
2.92108e-05
-1.07822e-06
2.93583e-05
-7.37253e-07
2.96541e-05
-5.31696e-07
2.98913e-05
-2.79153e-07
3.02393e-05
-2.56512e-07
3.05429e-05
-1.69078e-07
3.09799e-05
-2.66144e-07
3.1304e-05
-3.98323e-07
3.17869e-05
-5.87414e-07
3.22136e-05
-8.87571e-07
3.2671e-05
-1.10718e-06
3.31389e-05
-1.61913e-06
3.36589e-05
-1.807e-06
3.40681e-05
-2.44586e-06
3.45981e-05
-2.62461e-06
3.4981e-05
-3.35224e-06
3.54292e-05
-3.49143e-06
3.57652e-05
-4.22746e-06
3.60544e-05
-4.45281e-06
3.63e-05
-5.05912e-06
3.64211e-05
-5.37601e-06
3.64313e-05
-5.86298e-06
3.64004e-05
-6.21742e-06
3.61072e-05
-6.65397e-06
3.58304e-05
-6.88272e-06
3.52952e-05
-7.40201e-06
3.46936e-05
-7.43977e-06
3.40439e-05
-7.94124e-06
3.3247e-05
-8.05801e-06
3.25133e-05
-8.34183e-06
3.18063e-05
-8.5898e-06
3.1218e-05
-8.85184e-06
3.06623e-05
-9.04996e-06
3.05351e-05
-9.24635e-06
3.04265e-05
-9.72381e-06
3.02934e-05
-9.37798e-06
3.05056e-05
-9.57789e-06
3.06843e-05
-9.29795e-06
3.07539e-05
-8.86231e-06
3.0911e-05
-8.30464e-06
3.08267e-05
-7.13492e-06
3.12006e-05
-6.63425e-06
3.08817e-05
-5.36861e-06
3.07243e-05
-3.70921e-06
3.05396e-05
-2.81674e-06
3.0156e-05
-1.33983e-06
2.96248e-05
1.76639e-07
2.90182e-05
1.49909e-06
2.82903e-05
2.67841e-06
2.73631e-05
4.02781e-06
2.6327e-05
5.04978e-06
2.51708e-05
5.95303e-06
2.38012e-05
6.52965e-06
2.26689e-05
7.09019e-06
2.13605e-05
7.2417e-06
2.06936e-05
7.18143e-06
1.94907e-05
7.39201e-06
1.90036e-05
7.50464e-06
1.7743e-05
8.82833e-06
1.80658e-05
7.84672e-06
1.79514e-05
8.5171e-06
1.852e-05
7.44544e-06
1.91491e-05
8.32318e-06
1.86886e-05
9.11975e-06
1.9773e-05
9.16768e-06
1.96481e-05
1.13308e-05
2.07014e-05
1.18423e-05
1.98389e-05
1.50335e-05
2.20936e-05
1.43844e-05
2.11589e-05
2.03093e-05
2.34335e-05
1.68189e-05
2.23332e-05
2.73703e-05
2.81988e-05
1.68319e-05
3.58051e-05
2.93721e-05
2.5184e-05
-1.93411e-07
2.52645e-05
-3.64248e-08
2.53592e-05
1.01386e-07
2.54302e-05
-8.07578e-09
2.54682e-05
-8.45787e-08
2.54898e-05
-2.55724e-07
2.5517e-05
-3.73835e-07
2.55285e-05
-3.48644e-07
2.55781e-05
-4.10941e-07
2.56339e-05
-3.16853e-07
2.56652e-05
-2.28618e-07
2.57149e-05
-2.31258e-07
2.56984e-05
-1.0907e-07
2.56995e-05
-1.9697e-07
2.56886e-05
-2.05661e-07
2.56793e-05
-2.28466e-07
2.57083e-05
-3.43928e-07
2.57187e-05
-2.68884e-07
2.5751e-05
-3.42761e-07
2.57663e-05
-2.79693e-07
2.57602e-05
-2.20901e-07
2.57527e-05
-2.38653e-07
2.57159e-05
-1.2331e-07
2.5684e-05
-1.45705e-07
2.56639e-05
-1.1934e-07
2.56364e-05
-4.03256e-08
2.56575e-05
-9.20621e-08
2.56683e-05
2.95689e-08
2.57154e-05
2.97899e-08
2.57683e-05
7.57461e-08
2.5817e-05
1.5992e-07
2.588e-05
1.18231e-07
2.59135e-05
1.57334e-07
2.59543e-05
1.34004e-07
2.5983e-05
4.75357e-08
2.60089e-05
5.26488e-08
2.60212e-05
-6.01971e-08
2.6039e-05
-1.08995e-07
2.60472e-05
-1.31697e-07
2.60728e-05
-2.4374e-07
2.60763e-05
-2.09437e-07
2.61039e-05
-2.87113e-07
2.61268e-05
-3.17422e-07
2.61465e-05
-2.99349e-07
2.61791e-05
-3.77892e-07
2.61903e-05
-3.6327e-07
2.62117e-05
-3.60386e-07
2.62367e-05
-4.25627e-07
2.62361e-05
-3.27977e-07
2.62499e-05
-4.05442e-07
2.62368e-05
-3.47927e-07
2.62275e-05
-3.43345e-07
2.6225e-05
-3.52388e-07
2.61998e-05
-2.91005e-07
2.61962e-05
-2.89586e-07
2.61647e-05
-2.39517e-07
2.61421e-05
-2.04662e-07
2.61093e-05
-1.56795e-07
2.60822e-05
-1.33996e-07
2.60534e-05
-5.3191e-08
2.6032e-05
-3.02221e-08
2.60315e-05
1.55322e-08
2.60116e-05
9.98599e-08
2.60303e-05
6.37842e-08
2.60063e-05
1.77167e-07
2.60244e-05
1.21167e-07
2.59952e-05
1.72808e-07
2.59901e-05
1.95432e-07
2.59714e-05
1.45784e-07
2.59703e-05
2.24593e-07
2.596e-05
2.0027e-07
2.59773e-05
2.13221e-07
2.59655e-05
2.80804e-07
2.59822e-05
2.26675e-07
2.59793e-05
2.74886e-07
2.59611e-05
2.63814e-07
2.5962e-05
2.17643e-07
2.59317e-05
2.68442e-07
2.59002e-05
1.87575e-07
2.58932e-05
2.07171e-07
2.58314e-05
2.04937e-07
2.58391e-05
1.35662e-07
2.57734e-05
2.29287e-07
2.57929e-05
8.91815e-08
2.57399e-05
2.2214e-07
2.57654e-05
9.95766e-08
2.5746e-05
1.32581e-07
2.57839e-05
1.47711e-07
2.58181e-05
-1.2458e-08
2.58341e-05
1.25525e-07
2.5942e-05
-1.5635e-07
2.59976e-05
-7.03981e-08
2.61019e-05
-2.05018e-07
2.62831e-05
-3.96114e-07
2.63771e-05
-3.47249e-07
2.66368e-05
-6.45025e-07
2.6891e-05
-7.25715e-07
2.71087e-05
-8.24441e-07
2.75449e-05
-1.18524e-06
2.78448e-05
-1.21122e-06
2.82684e-05
-1.54604e-06
2.87673e-05
-1.84482e-06
2.91363e-05
-2.00601e-06
2.96851e-05
-2.46616e-06