/*--------------------------------*- C++ -*----------------------------------*\
| =========                 |                                                 |
| \\      /  F ield         | OpenFOAM: The Open Source CFD Toolbox           |
|  \\    /   O peration     | Version:  2.4.0                                 |
|   \\  /    A nd           | Web:      www.OpenFOAM.org                      |
|    \\/     M anipulation  |                                                 |
\*---------------------------------------------------------------------------*/
FoamFile
{
    version     2.0;
    format      ascii;
    class       volScalarField;
    location    "1.36";
    object      pMean;
}
// * * * * * * * * * * * * * * * * * * * * * * * * * * * * * * * * * * * * * //

dimensions      [0 2 -2 0 0 0 0];

internalField   nonuniform List<scalar> 
8800
(
87.4155
74.9705
67.5568
63.9883
62.0872
60.6459
59.4264
58.2691
57.228
56.1885
55.2257
54.2309
53.3125
52.3619
51.5061
50.627
49.8523
49.068
48.369
47.6089
84.3052
74.6162
67.7253
64.1022
62.1471
60.6712
59.4339
58.2695
57.2259
56.186
55.2229
54.2287
53.3099
52.3601
51.5041
50.6249
49.8538
49.063
48.3711
47.5676
82.3406
74.6922
68.3265
64.4778
62.3144
60.7503
59.4804
58.3021
57.2502
56.2031
55.2331
54.2335
53.3113
52.3582
51.5026
50.6178
49.8564
49.0525
48.4276
47.6091
80.8057
74.7537
68.9126
64.9014
62.4978
60.8379
59.5427
58.3586
57.2987
56.242
55.2606
54.2512
53.3222
52.3622
51.5045
50.6115
49.855
49.0497
48.5085
47.8066
79.5574
74.7274
69.388
65.3076
62.6664
60.9056
59.5916
58.4166
57.3545
56.2943
55.2961
54.2791
53.3351
52.3729
51.5027
50.6117
49.8405
49.0567
48.4809
48.0766
78.5733
74.6311
69.7532
65.6544
62.8174
60.9492
59.6199
58.462
57.4047
56.3446
55.3316
54.3072
53.3468
52.3826
51.4981
50.61
49.8224
49.0624
48.5175
48.4615
77.8173
74.5162
70.0207
65.9345
62.9533
60.9759
59.6285
58.4941
57.4442
56.3866
55.3611
54.3307
53.3549
52.3888
51.4911
50.6057
49.8053
49.0677
48.5978
48.8113
77.2644
74.4162
70.2026
66.1467
63.0725
60.9951
59.6226
58.5175
57.4723
56.4201
55.3818
54.3506
53.3579
52.3951
51.4816
50.6065
49.7897
49.0757
48.6007
49.1038
76.9037
74.3449
70.3171
66.2912
63.1574
61.0077
59.6143
58.5324
57.4923
56.4443
55.3969
54.3648
53.3615
52.4004
51.4784
50.6091
49.7853
49.0946
48.6698
49.3592
76.7236
74.3105
70.374
66.3663
63.2012
61.0154
59.6088
58.5408
57.5038
56.4588
55.4058
54.3738
53.3652
52.406
51.4804
50.6158
49.7933
49.1176
48.7281
49.4692
76.7168
74.3185
70.3743
66.3699
63.2007
61.0179
59.6067
58.5435
57.5038
56.4623
55.4065
54.3782
53.3675
52.413
51.486
50.6274
49.8053
49.1418
48.7654
49.5488
76.8861
74.3663
70.3184
66.2995
63.1566
61.0138
59.6095
58.539
57.493
56.4532
55.3997
54.3771
53.3694
52.4197
51.4958
50.6416
49.8233
49.1616
48.7879
49.5713
77.238
74.4476
70.2032
66.1569
63.0701
61.0042
59.6147
58.5276
57.4722
56.4336
55.3852
54.3705
53.3695
52.4268
51.5092
50.6603
49.8472
49.1828
48.7896
49.5321
77.7847
74.5527
70.0202
65.944
62.9466
60.9865
59.6177
58.5062
57.4418
56.4033
55.3632
54.3571
53.367
52.4327
51.5246
50.6833
49.8784
49.2109
48.7756
49.4149
78.5389
74.6682
69.7543
65.6619
62.8079
60.9577
59.6104
58.473
57.4019
56.3624
55.3345
54.3367
53.3619
52.4348
51.5408
50.7079
49.9186
49.2497
48.7726
49.2144
79.521
74.7659
69.3906
65.3148
62.6553
60.9129
59.5843
58.4279
57.3529
56.3132
55.3014
54.3114
53.3551
52.4329
51.5568
50.7307
49.9659
49.2995
48.8
48.95
80.7677
74.7931
68.9174
64.9109
62.4859
60.8455
59.5368
58.3717
57.2979
56.263
55.2681
54.2866
53.3475
52.4287
51.5705
50.7479
50.0121
49.3474
48.8577
48.6734
82.3021
74.7303
68.334
64.4891
62.3025
60.7577
59.4753
58.3157
57.2508
56.2244
55.2434
54.2697
53.3423
52.427
51.5806
50.7609
50.0453
49.3842
48.9156
48.5297
84.2658
74.6519
67.7343
64.115
62.1358
60.6784
59.4291
58.2834
57.2273
56.2077
55.2342
54.2657
53.3428
52.4304
51.5873
50.7709
50.0609
49.4056
48.9123
48.4522
87.3755
75.0046
67.5656
64.0016
62.0765
60.653
59.4217
58.2833
57.2293
56.2106
55.237
54.2684
53.3455
52.4328
51.5905
50.7743
50.0645
49.4114
48.9136
48.5719
47.6298
47.5175
47.2588
46.9885
46.774
46.621
46.5243
46.4658
46.429
46.4046
46.3859
46.3632
46.3348
46.2988
46.2543
46.1996
46.1356
46.0595
45.9748
45.879
45.7772
45.6753
45.5797
45.4925
45.4194
45.3626
45.3226
45.2913
45.262
45.2238
45.1739
45.1121
45.0462
44.9828
44.927
44.8767
44.8294
44.7751
44.7125
44.6389
44.5592
44.4758
44.4011
44.3423
44.308
44.2967
44.3105
44.3402
44.3831
44.427
44.4649
44.4826
44.4763
44.4351
44.3638
44.2541
44.1182
43.9526
43.77
43.5626
43.3382
43.0916
42.8358
42.5743
42.327
42.108
41.9343
41.8205
41.7728
41.7815
41.8414
41.9332
42.0491
42.1677
42.287
42.386
42.469
42.5159
42.5359
42.516
42.4693
42.3903
42.2961
42.1768
42.0577
41.9328
41.8215
41.7278
41.6577
41.6203
41.618
41.6585
41.74
41.8577
42.0078
42.1807
42.3719
42.5706
42.7728
42.9691
43.1592
43.3366
43.5036
43.6419
43.7713
43.8753
43.9752
44.0581
44.1466
44.217
44.2852
44.3368
44.3817
44.4117
44.4334
44.4469
44.4585
44.466
44.4769
44.4837
44.4961
44.503
44.5215
44.5334
44.566
44.5852
44.636
44.6692
44.7388
44.8009
44.8955
44.9868
45.1011
45.2162
45.3513
45.4876
45.6411
45.7919
45.9547
46.1128
46.2834
46.4547
46.6381
46.822
47.0175
47.2099
47.4135
47.6196
47.8319
48.047
48.2631
48.4794
48.6978
48.9103
49.1243
49.3345
49.5555
49.7627
49.9844
50.1936
50.4208
50.6149
50.8343
51.0096
51.2052
51.354
51.5285
51.65
51.7956
51.8868
52.0226
52.0883
52.2295
52.2866
52.4603
52.5164
52.7369
52.8012
53.0553
53.1481
53.4185
53.5478
53.8481
54.0327
54.3631
54.6067
54.9619
55.2253
55.5933
55.8348
56.1716
56.3213
56.505
56.369
56.1315
55.2482
53.8824
50.4902
46.1985
25.642
47.4143
47.3648
47.2613
47.0693
46.8564
46.6791
46.5639
46.5025
46.4778
46.4681
46.4619
46.4475
46.4241
46.3894
46.346
46.2917
46.2287
46.1551
46.0742
45.9844
45.8904
45.7962
45.7085
45.6282
45.5605
45.5043
45.4614
45.4256
45.3939
45.3573
45.3138
45.2606
45.2034
45.1449
45.0906
45.0381
44.9876
44.9324
44.8721
44.803
44.7298
44.6546
44.5869
44.5314
44.4962
44.48
44.4856
44.5055
44.5368
44.568
44.5942
44.6024
44.5907
44.5477
44.478
44.3731
44.2421
44.0815
43.9022
43.7001
43.4825
43.2473
43.0038
42.7586
42.5251
42.3176
42.1494
42.0311
41.9704
41.9607
41.9988
42.0686
42.1637
42.2655
42.3679
42.4557
42.5253
42.5652
42.5764
42.5527
42.503
42.4251
42.3324
42.2245
42.114
42.0055
41.9051
41.8254
41.7645
41.734
41.7354
41.7767
41.8555
41.9674
42.1093
42.2743
42.4563
42.6463
42.8408
43.0326
43.2183
43.3925
43.5522
43.685
43.8066
43.905
43.9959
44.0696
44.1419
44.1998
44.2503
44.2877
44.3137
44.3251
44.3244
44.3169
44.3039
44.2891
44.2739
44.2543
44.2427
44.225
44.225
44.2199
44.2411
44.2521
44.2937
44.3241
44.3852
44.4418
44.5272
44.6108
44.7173
44.8242
44.952
45.0782
45.2224
45.3621
45.5129
45.657
45.8143
45.969
46.1366
46.3005
46.4804
46.6505
46.8402
47.0253
47.2255
47.4243
47.6292
47.8311
48.0434
48.2407
48.4528
48.6528
48.8766
49.0775
49.3062
49.5142
49.7483
49.941
50.1654
50.3342
50.5285
50.6699
50.8381
50.9459
51.0841
51.1552
51.2845
51.3203
51.4587
51.4786
51.6538
51.6791
51.8923
51.937
52.173
52.2501
52.4963
52.6066
52.8683
53.0268
53.3161
53.5006
53.8181
53.9837
54.2931
54.3927
54.6042
54.5265
54.499
53.9709
53.3658
51.6398
49.7903
43.9205
37.9919
19.0373
47.3881
47.3868
47.3899
47.2504
47.0091
46.7652
46.5945
46.509
46.4913
46.5032
46.5199
46.5226
46.5093
46.4778
46.434
46.3774
46.3129
46.2392
46.1605
46.0756
45.9896
45.9038
45.8247
45.7518
45.6898
45.6364
45.5936
45.5564
45.5239
45.4889
45.4506
45.4048
45.3555
45.3026
45.2511
45.1985
45.1466
45.091
45.0331
44.9694
44.9038
44.8373
44.7771
44.7263
44.6914
44.6714
44.6688
44.6776
44.6956
44.7126
44.7253
44.722
44.7017
44.6546
44.5831
44.481
44.3534
44.1987
44.0238
43.8293
43.6201
43.3987
43.1713
42.9454
42.7306
42.5382
42.38
42.2629
42.1938
42.1699
42.1892
42.2397
42.3149
42.3999
42.487
42.5624
42.6196
42.6508
42.6534
42.6266
42.5744
42.5012
42.4123
42.3157
42.214
42.1182
42.0295
41.9593
41.9052
41.8778
41.88
41.9193
41.992
42.0975
42.2301
42.3874
42.5593
42.7418
42.9284
43.1145
43.2948
43.4644
43.6168
43.7448
43.8606
43.9552
44.039
44.1061
44.1664
44.215
44.2525
44.2784
44.288
44.2823
44.262
44.2347
44.2014
44.1627
44.1261
44.0811
44.0518
44.012
44
43.9814
43.9954
44.0034
44.0381
44.0683
44.1214
44.1758
44.2525
44.3305
44.4299
44.5295
44.6495
44.7663
44.8999
45.0291
45.1684
45.2995
45.4449
45.5867
45.7418
45.8936
46.0603
46.217
46.3955
46.5651
46.7557
46.9346
47.1265
47.3099
47.5122
47.6921
47.9015
48.0916
48.313
48.5109
48.7452
48.9583
49.1944
49.391
49.617
49.7794
49.9735
50.1033
50.2655
50.3525
50.4859
50.5368
50.6628
50.6703
50.8125
50.8013
50.9775
50.9802
51.1704
51.2051
51.4015
51.4687
51.669
51.7615
51.983
52.0953
52.3544
52.4572
52.7326
52.7874
53.0176
52.9554
53.0558
52.6926
52.5157
51.4472
50.7319
47.8563
45.8722
38.6303
31.5
18.5913
47.3621
47.3601
47.4281
47.2838
47.0085
46.7332
46.5485
46.4721
46.481
46.5271
46.5775
46.6066
46.6098
46.5851
46.5408
46.4798
46.4106
46.3338
46.2552
46.1737
46.0942
46.0164
45.9457
45.881
45.8257
45.777
45.7368
45.7006
45.6688
45.6355
45.601
45.5607
45.5172
45.469
45.42
45.3684
45.317
45.2628
45.2081
45.1502
45.0927
45.0348
44.9825
44.936
44.9013
44.8768
44.8655
44.8618
44.8651
44.8668
44.8648
44.85
44.8206
44.7693
44.6961
44.5969
44.4739
44.3273
44.1611
43.978
43.7822
43.5777
43.3697
43.1647
42.9704
42.7953
42.6489
42.5359
42.4623
42.4269
42.4298
42.4621
42.5184
42.5864
42.6574
42.719
42.7641
42.7867
42.7828
42.7546
42.7027
42.6343
42.5507
42.4628
42.3706
42.2846
42.2052
42.1395
42.0875
42.0588
42.0584
42.0926
42.1583
42.2558
42.3804
42.5283
42.6915
42.8646
43.0446
43.2228
43.397
43.5597
43.705
43.8268
43.9373
44.029
44.1076
44.1713
44.2249
44.2675
44.2969
44.3117
44.3062
44.2837
44.2467
44.1993
44.1504
44.0902
44.0379
43.9735
43.9303
43.8739
43.8531
43.8254
43.8356
43.8405
43.8724
43.8995
43.951
44.0039
44.0788
44.1548
44.2491
44.3436
44.4561
44.5644
44.6885
44.8061
44.9347
45.0541
45.1903
45.3215
45.4687
45.6133
45.7719
45.924
46.0954
46.254
46.4352
46.5923
46.7724
46.9313
47.1224
47.2819
47.4874
47.6686
47.8888
48.0839
48.3267
48.5343
48.777
48.9678
49.2022
49.3463
49.5508
49.6589
49.8264
49.8846
50.0211
50.044
50.1723
50.1533
50.3046
50.2789
50.4412
50.4397
50.5881
50.6173
50.764
50.813
50.971
51.0307
51.2198
51.2719
51.4954
51.5089
51.7376
51.6459
51.8508
51.5262
51.6334
50.8364
50.7026
48.9096
48.2134
44.454
41.9287
35.1094
27.4904
18.8562
48.4228
48.2343
47.6688
47.1359
46.7263
46.4634
46.3549
46.3618
46.4384
46.5379
46.6311
46.6931
46.7174
46.7028
46.6597
46.5948
46.5196
46.4378
46.3568
46.2768
46.2024
46.1323
46.0704
46.0145
45.9671
45.9249
45.8893
45.8563
45.8265
45.7955
45.7637
45.7274
45.6884
45.6448
45.5996
45.5513
45.5027
45.4517
45.4009
45.3485
45.2973
45.2461
45.1988
45.155
45.1189
45.0892
45.068
45.052
45.0409
45.0289
45.0136
44.9887
44.9513
44.8967
44.8231
44.7285
44.6129
44.4776
44.3248
44.1576
43.9798
43.7951
43.6086
43.4253
43.2523
43.0953
42.962
42.856
42.7819
42.7395
42.7293
42.7464
42.785
42.836
42.8897
42.9368
42.9695
42.9839
42.9755
42.9466
42.8967
42.8318
42.7541
42.6718
42.5864
42.5048
42.4288
42.3621
42.3072
42.273
42.2671
42.2933
42.3518
42.4404
42.5581
42.6969
42.8521
43.0178
43.1905
43.3617
43.5301
43.6856
43.8248
43.9413
44.0473
44.1363
44.2108
44.2734
44.3218
44.3596
44.3812
44.3843
44.3653
44.3254
44.2741
44.2095
44.1482
44.0726
44.0073
43.9317
43.877
43.816
43.7898
43.763
43.7689
43.7738
43.8026
43.8285
43.883
43.9337
44.0135
44.0874
44.1831
44.2729
44.3821
44.4816
44.601
44.7058
44.8296
44.9386
45.0714
45.1915
45.3376
45.4757
45.6351
45.7844
45.9527
46.1005
46.2756
46.4094
46.5823
46.7135
46.8946
47.0322
47.2322
47.3975
47.623
47.8039
48.0587
48.2501
48.5012
48.6815
48.9254
49.0515
49.2707
49.3518
49.5267
49.555
49.695
49.6873
49.8179
49.7864
49.9371
49.92
50.0629
50.0601
50.1842
50.1844
50.3019
50.3036
50.445
50.4409
50.6233
50.5826
50.8047
50.665
50.9083
50.575
50.8128
50.1438
50.274
49.034
48.8405
46.59
45.5048
41.7408
38.436
33.0139
25.8197
19.4272
49.2077
48.9335
47.9412
47.0653
46.4726
46.1787
46.1331
46.233
46.3953
46.563
46.7058
46.8013
46.8444
46.8376
46.794
46.7242
46.6414
46.5532
46.4678
46.3875
46.316
46.2523
46.1981
46.151
46.1117
46.0768
46.0468
46.0182
45.9913
45.963
45.9335
45.9005
45.865
45.8255
45.7842
45.74
45.695
45.6481
45.6013
45.5537
45.5071
45.4605
45.4161
45.3737
45.3355
45.3012
45.2718
45.2456
45.222
45.1978
45.1706
45.1363
45.0918
45.0341
44.9613
44.8721
44.7659
44.6435
44.5063
44.3569
44.1987
44.0355
43.8717
43.7114
43.5604
43.4227
43.3043
43.2081
43.1377
43.0933
43.0761
43.0833
43.1086
43.1446
43.1823
43.2155
43.2367
43.243
43.2304
43.2004
43.1514
43.0881
43.0129
42.9315
42.8473
42.7655
42.6888
42.618
42.557
42.5124
42.4989
42.516
42.5661
42.6463
42.7575
42.8883
43.0353
43.1949
43.3615
43.5275
43.6908
43.8428
43.9779
44.0918
44.195
44.2811
44.3535
44.4145
44.4595
44.4901
44.503
44.4918
44.4594
44.4017
44.3397
44.2627
44.1914
44.1069
44.0318
43.9519
43.892
43.8374
43.8118
43.7937
43.7985
43.8079
43.8336
43.8661
43.9223
43.9809
44.0658
44.1406
44.2406
44.3251
44.4329
44.5248
44.642
44.7387
44.8624
44.9662
45.0975
45.2126
45.3619
45.4943
45.6615
45.8087
45.9773
46.1182
46.2851
46.3989
46.559
46.6677
46.8346
46.9469
47.1453
47.2838
47.5136
47.6748
47.9368
48.1081
48.3757
48.5357
48.7978
48.9002
49.1364
49.1927
49.3769
49.365
49.5186
49.4742
49.6182
49.5778
49.7381
49.72
49.874
49.8427
49.9749
49.9202
50.0325
49.9545
50.1018
50.0039
50.1902
50.0367
50.2505
49.9653
50.1727
49.6659
49.8052
48.934
48.8646
47.4337
46.897
44.6388
43.0675
39.8165
36.2172
32.1298
25.9247
20.6053
49.839
49.5077
48.184
47.0083
46.2358
45.897
45.9069
46.1035
46.3595
46.6009
46.7938
46.9208
46.9792
46.9763
46.9284
46.8507
46.7587
46.6632
46.573
46.4919
46.4224
46.364
46.3166
46.2776
46.2459
46.2187
46.1947
46.1714
46.1481
46.1228
46.0955
46.0648
46.0316
45.9952
45.9567
45.9162
45.8746
45.8317
45.7886
45.745
45.7016
45.6583
45.6157
45.5741
45.5342
45.4962
45.4604
45.4265
45.3934
45.3594
45.3225
45.2804
45.2305
45.1711
45.1002
45.0171
44.9208
44.8116
44.6905
44.5596
44.4215
44.2799
44.138
44
43.8697
43.7508
43.6471
43.5622
43.4988
43.4584
43.4409
43.4442
43.4623
43.4876
43.5127
43.5334
43.5448
43.5448
43.5286
43.496
43.4463
43.3824
43.306
43.2213
43.1345
43.0496
42.9693
42.8915
42.8217
42.7655
42.7414
42.7499
42.7936
42.8687
42.9756
43.1013
43.2436
43.3993
43.5606
43.7242
43.8839
44.0333
44.1657
44.2808
44.379
44.4616
44.5321
44.589
44.6293
44.6507
44.6554
44.6311
44.5866
44.5143
44.4411
44.3549
44.275
44.1873
44.1066
44.0308
43.9753
43.9361
43.9203
43.9168
43.9277
43.9443
43.9719
44.0119
44.0721
44.1432
44.2308
44.3164
44.4152
44.5034
44.6077
44.7006
44.8158
44.916
45.0414
45.1477
45.2798
45.3994
45.5494
45.6821
45.8492
45.9997
46.1691
46.3065
46.4625
46.5638
46.7035
46.8008
46.9456
47.0313
47.2232
47.3374
47.5533
47.7086
47.9709
48.1209
48.4112
48.5517
48.8249
48.9159
49.1566
49.2059
49.3928
49.3611
49.508
49.4516
49.5947
49.5685
49.7267
49.7215
49.8724
49.8383
49.9542
49.8664
49.9399
49.8118
49.9022
49.7472
49.8506
49.6407
49.752
49.3965
49.4766
48.8752
48.829
47.8834
47.5926
46.1219
45.3327
43.2205
41.4472
38.8471
35.4023
32.2245
27.0887
22.3528
50.6899
50.2439
48.453
46.929
45.9827
45.6058
45.6718
45.9709
46.3271
46.6437
46.8832
47.0371
47.1068
47.1048
47.05
46.9632
46.862
46.7603
46.6666
46.5856
46.5186
46.4655
46.4243
46.3929
46.3682
46.3481
46.3299
46.3119
46.2922
46.2703
46.2451
46.2169
46.1855
46.1515
46.1151
46.0773
46.0381
45.9982
45.9574
45.9164
45.8748
45.8333
45.7914
45.75
45.7085
45.668
45.6277
45.5881
45.5479
45.5069
45.4632
45.4161
45.3633
45.3044
45.2369
45.1608
45.0746
44.979
44.8737
44.761
44.642
44.5203
44.3982
44.2801
44.1682
44.067
43.9785
43.9067
43.8528
43.8195
43.8047
43.8073
43.8207
43.8383
43.8537
43.8653
43.869
43.8646
43.8463
43.8116
43.7598
43.6935
43.613
43.5231
43.4318
43.3417
43.2576
43.1731
43.0945
43.0295
42.9968
43.0003
43.041
43.1154
43.2185
43.3407
43.4796
43.6316
43.7905
43.9527
44.1123
44.2627
44.3932
44.5072
44.5988
44.6791
44.7453
44.7941
44.8262
44.8366
44.8323
44.7991
44.743
44.6608
44.5757
44.4852
44.4007
44.3155
44.2384
44.176
44.1345
44.1172
44.1188
44.135
44.1579
44.1865
44.2227
44.2739
44.3433
44.4244
44.5169
44.6092
44.7064
44.8046
44.9089
45.0099
45.1261
45.2368
45.3661
45.4824
45.6171
45.744
45.8934
46.0295
46.2
46.3486
46.5226
46.6558
46.8117
46.896
47.0177
47.1128
47.2348
47.3044
47.4835
47.5701
47.7716
47.9086
48.1744
48.3084
48.6092
48.7497
49.0225
49.1185
49.3651
49.4136
49.6062
49.5543
49.6834
49.6296
49.757
49.7554
49.9145
49.9303
50.0806
50.051
50.1601
50.0307
50.06
49.887
49.9031
49.6844
49.6884
49.4198
49.4315
48.9975
49.0012
48.2953
48.1458
47.1371
46.7274
45.285
44.3908
42.5364
40.7198
38.6863
35.5814
32.885
28.6332
24.3401
51.0712
50.608
48.6522
46.9525
45.891
45.467
45.5477
45.9033
46.3241
46.6964
46.9742
47.151
47.2295
47.2262
47.1629
47.0666
46.9571
46.8505
46.7547
46.6747
46.6107
46.5625
46.5271
46.5022
46.4838
46.4697
46.4564
46.4428
46.4264
46.4073
46.3841
46.3578
46.3279
46.2957
46.2609
46.225
46.1872
46.1489
46.1092
46.0694
46.0285
45.9876
45.9457
45.9039
45.8611
45.8186
45.775
45.7314
45.6864
45.6411
45.5936
45.5443
45.491
45.4342
45.3713
45.3029
45.2269
45.1442
45.0535
44.9575
44.8561
44.7531
44.6493
44.5495
44.4555
44.3717
44.299
44.241
44.1977
44.1721
44.1614
44.1645
44.1738
44.1855
44.1934
44.1975
44.1961
44.1892
44.1692
44.1337
44.0813
44.013
43.9283
43.8322
43.7335
43.6374
43.5484
43.4571
43.3761
43.3063
43.2714
43.2745
43.3172
43.3918
43.4921
43.6088
43.7453
43.8953
44.0558
44.2181
44.3807
44.536
44.6688
44.7801
44.8677
44.9433
45.0006
45.0371
45.0556
45.0547
45.0418
44.9998
44.9353
44.848
44.757
44.6666
44.5841
44.5065
44.4427
44.3996
44.381
44.3901
44.415
44.4556
44.4958
44.5412
44.5912
44.6543
44.7354
44.8251
44.9246
45.0209
45.1208
45.2283
45.3355
45.4449
45.567
45.6839
45.8214
45.9463
46.0863
46.226
46.3802
46.522
46.6998
46.8467
47.0359
47.1579
47.3328
47.3836
47.5046
47.5876
47.6873
47.752
47.9209
47.9717
48.1757
48.285
48.5603
48.678
48.9908
49.1215
49.4077
49.4916
49.7731
49.8146
50.0309
49.9157
50.0371
49.9973
50.1236
50.14
50.2988
50.3424
50.4999
50.4781
50.5964
50.3957
50.4031
50.1758
50.1373
49.8281
49.7835
49.4435
49.3599
48.9241
48.8537
48.1584
47.935
46.8776
46.3992
45.0099
44.0605
42.5005
40.7248
39.0632
36.333
33.8523
30.2463
26.3708
51.2752
50.8419
48.8382
47.0584
45.9254
45.4499
45.5155
45.8923
46.3496
46.7571
47.0608
47.2527
47.3363
47.3304
47.2601
47.1563
47.0409
46.9315
46.8354
46.7576
46.6972
46.654
46.624
46.6049
46.5918
46.5825
46.5731
46.5628
46.5488
46.5319
46.5104
46.4857
46.4572
46.4264
46.3928
46.358
46.3211
46.2838
46.2447
46.2054
46.1646
46.1236
46.0812
46.0386
45.9945
45.9504
45.9048
45.8593
45.8121
45.7649
45.7159
45.6665
45.6146
45.5614
45.5044
45.4442
45.3784
45.3077
45.2307
45.15
45.065
44.9789
44.8925
44.8105
44.7337
44.6665
44.6097
44.566
44.5342
44.5178
44.513
44.5167
44.5227
44.53
44.5335
44.5322
44.5264
44.5179
44.4981
44.464
44.4121
44.3417
44.2537
44.1534
44.0481
43.9433
43.8488
43.752
43.6717
43.6012
43.5699
43.5749
43.6252
43.7023
43.8025
43.9149
44.0525
44.2023
44.3638
44.5264
44.6959
44.8579
44.996
45.1038
45.1862
45.252
45.2968
45.319
45.3239
45.3126
45.2916
45.2421
45.1734
45.0849
44.995
44.9113
44.8384
44.7762
44.7328
44.7138
44.7251
44.7627
44.8176
44.8844
44.9471
45.0125
45.0793
45.1524
45.2428
45.3371
45.4437
45.5419
45.6505
45.7629
45.8791
45.9954
46.1291
46.2475
46.3983
46.5306
46.6815
46.8312
46.9968
47.1448
47.3403
47.4802
47.7012
47.8057
48.008
48.0083
48.156
48.2028
48.3133
48.3572
48.5193
48.5347
48.7607
48.842
49.1413
49.2184
49.5746
49.6704
50.02
50.0342
50.3934
50.4079
50.6838
50.4473
50.6041
50.5432
50.7025
50.7319
50.921
50.9632
51.1435
51.1069
51.2502
50.9454
50.9782
50.6929
50.638
50.2119
50.1181
49.7169
49.6398
49.2329
49.1222
48.3825
48.1184
47.0014
46.4622
45.1686
44.1733
42.8793
41.2306
39.7465
37.3343
34.9618
31.8026
28.323
51.4003
50.9806
48.961
47.1482
45.9867
45.4893
45.5505
45.9372
46.4112
46.8334
47.1466
47.3425
47.4247
47.4137
47.3379
47.2301
47.1134
47.0049
46.9117
46.8378
46.7822
46.7442
46.7194
46.705
46.6959
46.6898
46.6829
46.6745
46.6621
46.6465
46.6263
46.6029
46.5757
46.5461
46.5137
46.4798
46.4437
46.4069
46.3681
46.3288
46.2879
46.2465
46.2035
46.1602
46.1154
46.0704
46.024
45.9776
45.9302
45.8831
45.8351
45.7873
45.7383
45.6895
45.6389
45.5872
45.5318
45.4732
45.4101
45.3446
45.2756
45.2061
45.1373
45.0728
45.0125
44.9608
44.9198
44.8907
44.871
44.8633
44.8636
44.868
44.8722
44.8767
44.8766
44.8724
44.8653
44.8562
44.8381
44.8073
44.7577
44.6871
44.5971
44.4923
44.3822
44.2704
44.1716
44.0723
43.9963
43.9284
43.9092
43.918
43.9792
44.0595
44.1629
44.2717
44.4149
44.5646
44.7282
44.8885
45.0664
45.2319
45.3738
45.4751
45.549
45.5987
45.629
45.6361
45.6318
45.6128
45.5849
45.5301
45.4645
45.3788
45.3011
45.228
45.1773
45.1334
45.1222
45.1312
45.1789
45.2435
45.3328
45.4208
45.5144
45.5975
45.6867
45.769
45.8684
45.9599
46.0753
46.1696
46.292
46.4032
46.5367
46.6573
46.8051
46.9284
47.0954
47.2328
47.401
47.5569
47.7439
47.8913
48.1127
48.2433
48.5058
48.583
48.8174
48.7575
48.961
48.9622
49.1162
49.1082
49.2926
49.2775
49.5417
49.5802
49.9184
49.9466
50.3507
50.4212
50.8507
50.7951
51.2546
51.2054
51.5238
51.168
51.4215
51.2847
51.5311
51.5179
51.7676
51.7925
51.9985
51.9719
52.1255
51.688
51.7339
51.3966
51.2734
50.8432
50.7479
50.3629
50.2951
49.8251
49.6583
48.8392
48.6038
47.4251
46.826
45.6661
44.6566
43.5369
42.0587
40.5967
38.4022
36.1244
33.2817
30.1517
51.4392
51.016
48.9981
47.1994
46.0576
45.5813
45.6606
46.0551
46.5272
46.9405
47.2424
47.4261
47.497
47.4771
47.3972
47.2893
47.1761
47.0728
46.9857
46.918
46.8685
46.8356
46.8151
46.8038
46.797
46.7922
46.7864
46.7786
46.767
46.7521
46.7329
46.7105
46.6845
46.656
46.6247
46.5917
46.5565
46.5202
46.4823
46.4434
46.4028
46.3613
46.3183
46.2745
46.2295
46.1844
46.1385
46.0929
46.0472
46.002
45.9565
45.9118
45.8673
45.8239
45.7802
45.7365
45.6915
45.6452
45.5965
45.546
45.4931
45.4402
45.3894
45.3423
45.2993
45.2638
45.2386
45.2229
45.2134
45.2119
45.2159
45.2213
45.2243
45.2244
45.2195
45.2127
45.2058
45.1993
45.1864
45.1618
45.1178
45.0517
44.9635
44.8572
44.7435
44.6273
44.5255
44.4284
44.3589
44.3015
44.3001
44.3136
44.3872
44.4683
44.5752
44.6775
44.8279
44.9762
45.1429
45.2988
45.4867
45.6528
45.8
45.8924
45.9553
45.9785
45.9976
45.9852
45.9777
45.952
45.9236
45.8668
45.8117
45.7348
45.6816
45.6256
45.6094
45.5898
45.6211
45.6589
45.7482
45.84
45.9681
46.076
46.1977
46.2957
46.4108
46.5002
46.6121
46.7054
46.822
46.9157
47.0498
47.1623
47.3109
47.4422
47.5992
47.7374
47.9163
48.0583
48.2386
48.3991
48.6031
48.7611
48.9958
49.1292
49.4132
49.4939
49.7095
49.6272
49.9072
49.8401
50.0495
49.9778
50.2058
50.1609
50.4682
50.4957
50.852
50.854
51.3232
51.3805
51.8521
51.7799
52.2769
52.2059
52.4907
52.0766
52.368
52.1986
52.5497
52.531
52.8216
52.8185
53.0472
53.0563
53.0892
52.6469
52.6863
52.2452
52.1393
51.7251
51.588
51.2034
51.0892
50.6396
50.4166
49.5672
49.1831
48.0785
47.4736
46.4327
45.4752
44.3759
43.0199
41.5082
39.4786
37.3057
34.6998
31.8598
51.3733
50.9401
48.9575
47.2269
46.1549
45.7447
45.8626
46.2568
46.7026
47.08
47.3475
47.5011
47.5496
47.5176
47.4357
47.3325
47.2279
47.1344
47.0572
46.9981
46.9558
46.9282
46.9111
46.9014
46.8952
46.8902
46.8841
46.8759
46.8644
46.8497
46.8314
46.8099
46.7852
46.7579
46.7281
46.6964
46.6627
46.6277
46.591
46.5528
46.5129
46.4717
46.429
46.3857
46.3417
46.2978
46.2542
46.2113
46.1686
46.1266
46.0853
46.0452
46.0063
45.9695
45.9339
45.8992
45.8644
45.8297
45.7949
45.7599
45.7232
45.6866
45.6528
45.6229
45.5972
45.5789
45.5691
45.5652
45.5651
45.5698
45.5768
45.5814
45.5815
45.5769
45.5682
45.5604
45.5546
45.551
45.5449
45.5286
45.4932
45.4356
45.354
45.2506
45.1363
45.0221
44.9215
44.8301
44.7662
44.7242
44.7391
44.7622
44.8446
44.9231
45.028
45.1282
45.2888
45.4332
45.6004
45.7528
45.9528
46.1167
46.2703
46.35
46.4018
46.3989
46.4052
46.3766
46.3748
46.3411
46.3185
46.2628
46.2257
46.1666
46.1476
46.1177
46.1442
46.16
46.2402
46.3116
46.4456
46.5621
46.723
46.847
46.998
47.1086
47.2498
47.3488
47.475
47.5666
47.6883
47.7844
47.928
48.0527
48.217
48.3616
48.5285
48.6815
48.8616
49.0111
49.2036
49.3667
49.5763
49.7524
49.9892
50.1529
50.4153
50.5397
50.6988
50.6369
50.929
50.8272
51.0569
50.9943
51.2723
51.2136
51.5285
51.5778
51.8979
51.9224
52.4354
52.5376
53.0283
52.9997
53.4329
53.401
53.5518
53.1524
53.4821
53.2458
53.7173
53.6838
54.0126
54.0366
54.243
54.2265
54.2277
53.7949
53.7854
53.265
53.1877
52.7556
52.584
52.3295
52.1057
51.7727
51.2266
50.4562
49.9313
48.9577
48.3681
47.3875
46.5009
45.3314
44.0543
42.4554
40.5779
38.4974
36.0821
33.478
51.1582
50.7202
48.8431
47.2601
46.3178
46.0107
46.1685
46.539
46.9282
47.242
47.4527
47.5603
47.5791
47.5348
47.4544
47.3612
47.2704
47.1911
47.1267
47.0781
47.0436
47.0205
47.0055
46.9957
46.9885
46.9819
46.9743
46.9648
46.9527
46.9379
46.9199
46.8991
46.8755
46.8495
46.8215
46.7917
46.7601
46.727
46.6922
46.6557
46.6172
46.5771
46.5354
46.4934
46.4521
46.4118
46.3718
46.3323
46.2935
46.2561
46.2199
46.1854
46.1533
46.124
46.0969
46.0721
46.0492
46.0285
46.0088
45.9879
45.966
45.9458
45.9289
45.9156
45.9075
45.9056
45.9093
45.916
45.9246
45.9356
45.9459
45.9514
45.9499
45.9405
45.9271
45.9177
45.9139
45.9152
45.9168
45.9106
45.8878
45.843
45.7717
45.6766
45.5664
45.4592
45.3605
45.2784
45.2225
45.1996
45.2214
45.2489
45.3324
45.4084
45.5099
45.6248
45.7976
45.9427
46.1081
46.2644
46.4672
46.6219
46.7743
46.8456
46.8911
46.8709
46.8692
46.8329
46.8353
46.8008
46.7892
46.7395
46.7236
46.689
46.7068
46.7132
46.7872
46.8456
46.9741
47.0854
47.258
47.4013
47.5877
47.728
47.9015
48.0247
48.1866
48.3009
48.4406
48.5372
48.6664
48.7726
48.9305
49.0674
49.2502
49.412
49.5891
49.7558
49.923
50.0816
50.2685
50.445
50.6542
50.8641
51.0832
51.2849
51.5193
51.6797
51.7833
51.8342
52.0358
51.9313
52.1535
52.1467
52.4142
52.4155
52.6996
52.8188
53.0344
53.1519
53.6582
53.8055
54.298
54.3781
54.6923
54.6764
54.7838
54.4321
54.7187
54.5878
55.0008
54.9445
55.3006
55.3828
55.5494
55.521
55.3952
54.9776
54.9807
54.4379
54.3079
53.9698
53.7494
53.6284
53.1714
52.9397
52.1422
51.6389
50.8321
50.0456
49.4027
48.5086
47.6553
46.3861
45.1442
43.4495
41.7004
39.6819
37.4294
35.0083
50.687
50.2728
48.6624
47.3534
46.6133
46.4158
46.5806
46.8869
47.1847
47.4092
47.5453
47.5992
47.5881
47.5348
47.4604
47.3812
47.3075
47.2444
47.1938
47.1553
47.127
47.1067
47.0919
47.0806
47.071
47.0619
47.0521
47.041
47.028
47.0127
46.995
46.9749
46.9525
46.9281
46.9019
46.8742
46.8451
46.8145
46.7824
46.7483
46.712
46.6744
46.6359
46.5971
46.559
46.5227
46.4886
46.4553
46.4221
46.3895
46.3585
46.3307
46.307
46.2866
46.2689
46.255
46.2447
46.2374
46.2325
46.2283
46.2235
46.2191
46.2175
46.22
46.2271
46.2384
46.2533
46.2699
46.2871
46.3041
46.3176
46.3236
46.3202
46.3073
46.2896
46.2772
46.275
46.282
46.2925
46.2978
46.2896
46.2608
46.2035
46.1204
46.0211
45.927
45.8324
45.7651
45.7164
45.7071
45.7301
45.7663
45.8462
45.9163
46.0178
46.1599
46.3408
46.4905
46.6518
46.8234
47.0143
47.1621
47.3054
47.3753
47.4156
47.3991
47.3879
47.3568
47.3625
47.3408
47.3423
47.3125
47.3162
47.3127
47.3647
47.4217
47.5348
47.6454
47.8064
47.9634
48.1554
48.3282
48.5291
48.6932
48.8824
49.0258
49.2001
49.332
49.4904
49.5967
49.7443
49.8705
50.0393
50.1979
50.3887
50.5615
50.7444
50.9117
51.0657
51.235
51.4161
51.609
51.8316
52.0807
52.2809
52.5213
52.7055
52.878
52.9996
53.12
53.2053
53.2273
53.3642
53.4481
53.6838
53.7258
53.9473
54.1241
54.2998
54.5394
54.9055
55.2276
55.6575
55.7698
55.9798
55.9723
56.0503
55.8565
56.1193
56.1201
56.36
56.3925
56.6409
56.7834
56.8227
56.7717
56.6086
56.3453
56.2388
55.7545
55.5781
55.3396
55.0344
54.9292
54.3406
54.1366
53.1381
52.9247
51.8971
51.3029
50.5478
49.7871
48.8303
47.5286
46.2982
44.5245
42.8501
40.8674
38.758
36.4685
49.9233
49.6023
48.468
47.5587
47.0612
46.9438
47.0595
47.253
47.429
47.5502
47.6102
47.6162
47.5828
47.5267
47.4618
47.398
47.3408
47.2925
47.2531
47.2219
47.1973
47.1777
47.1617
47.148
47.1357
47.1241
47.1123
47.0999
47.0862
47.0709
47.0534
47.0339
47.0125
46.9895
46.965
46.9397
46.914
46.8871
46.8582
46.8273
46.7946
46.7604
46.7258
46.6923
46.6598
46.629
46.6007
46.5749
46.5499
46.5246
46.5005
46.4813
46.468
46.4586
46.4523
46.4498
46.452
46.4582
46.466
46.4737
46.4827
46.4941
46.5081
46.5251
46.545
46.5666
46.5894
46.6127
46.6361
46.6577
46.6733
46.6798
46.6752
46.6603
46.6403
46.626
46.6253
46.6367
46.6529
46.6662
46.6693
46.6556
46.6153
46.5491
46.4656
46.3896
46.3013
46.2575
46.2197
46.2221
46.2429
46.2956
46.3655
46.4429
46.5544
46.713
46.8853
47.0449
47.212
47.4023
47.576
47.7256
47.8508
47.9284
47.9634
47.9656
47.9491
47.9397
47.9438
47.9509
47.9628
47.972
47.9926
48.0347
48.1116
48.2244
48.3661
48.5264
48.7043
48.8984
49.0918
49.2972
49.4967
49.6859
49.8784
50.0562
50.2385
50.4126
50.5779
50.7215
50.8721
51.0318
51.2006
51.3884
51.5742
51.772
51.9458
52.1209
52.2692
52.4557
52.6299
52.8489
53.0729
53.3387
53.5407
53.8331
53.9404
54.1726
54.2306
54.3918
54.4478
54.5789
54.6589
54.8337
54.938
55.0597
55.2338
55.4636
55.575
55.9898
56.2468
56.7471
56.9104
57.1047
57.2145
57.2936
57.3877
57.4338
57.5596
57.6304
57.7127
57.8928
57.9787
58.1599
58.0948
58.0858
57.7815
57.7884
57.4159
57.2055
56.9113
56.7417
56.3559
56.2738
55.4743
55.2341
54.2508
54.1574
52.9916
52.6602
51.6951
51.0395
49.9097
48.7193
47.4303
45.6368
43.9958
42.0474
40.0467
37.841
49.0876
48.9201
48.3665
47.8938
47.6106
47.5044
47.5115
47.5642
47.6162
47.6453
47.6446
47.6174
47.5721
47.5182
47.4634
47.4125
47.3677
47.3294
47.2971
47.2697
47.2463
47.226
47.2083
47.1926
47.1783
47.1649
47.1517
47.1383
47.1241
47.1086
47.0914
47.0722
47.0517
47.0306
47.0089
46.986
46.9626
46.9391
46.9147
46.8879
46.8591
46.8303
46.8021
46.7742
46.7477
46.7251
46.706
46.6889
46.6724
46.6564
46.6434
46.6357
46.633
46.6341
46.6393
46.649
46.6624
46.6788
46.6977
46.7177
46.7375
46.7575
46.7799
46.8053
46.8325
46.86
46.8877
46.9151
46.9413
46.9635
46.9786
46.9863
46.9852
46.9743
46.9566
46.9429
46.9425
46.9542
46.9734
46.9917
47.0028
47.0004
46.9748
46.9268
46.8649
46.8178
46.7493
46.7295
46.7004
46.7197
46.7457
46.8206
46.8798
46.9767
47.0831