/*--------------------------------*- C++ -*----------------------------------*\
| =========                 |                                                 |
| \\      /  F ield         | OpenFOAM: The Open Source CFD Toolbox           |
|  \\    /   O peration     | Version:  2.4.0                                 |
|   \\  /    A nd           | Web:      www.OpenFOAM.org                      |
|    \\/     M anipulation  |                                                 |
\*---------------------------------------------------------------------------*/
FoamFile
{
    version     2.0;
    format      ascii;
    class       volVectorField;
    location    "1.36";
    object      U;
}
// * * * * * * * * * * * * * * * * * * * * * * * * * * * * * * * * * * * * * //

dimensions      [0 1 -1 0 0 0 0];

internalField   nonuniform List<vector> 
8800
(
(8.09294 0.387878 0)
(5.45205 0.242676 0)
(3.90861 0.0430603 0)
(3.16092 -0.0156398 0)
(2.79549 -0.0183779 0)
(2.60566 -0.0108244 0)
(2.47563 -0.00575143 0)
(2.39062 -0.00258496 0)
(2.30655 -0.000634551 0)
(2.26322 -0.00173064 0)
(2.20309 -5.91743e-05 0)
(2.18275 -0.000286521 0)
(2.12558 0.000330782 0)
(2.12233 -0.000855573 0)
(2.05858 0.00157726 0)
(2.05933 -0.000459148 0)
(1.99844 -0.000198751 0)
(2.00618 -0.00187963 0)
(1.98777 0.011503 0)
(1.78979 -0.0680206 0)
(10.082 0.837772 0)
(9.66844 0.868431 0)
(8.85806 0.50712 0)
(8.10213 0.261685 0)
(7.4724 0.138169 0)
(7.03032 0.0824182 0)
(6.67258 0.0536032 0)
(6.42881 0.0403105 0)
(6.18932 0.0320325 0)
(6.06645 0.0214222 0)
(5.88159 0.0204066 0)
(5.82882 0.0169841 0)
(5.66565 0.0161838 0)
(5.66175 0.0122478 0)
(5.48667 0.0197332 0)
(5.50648 0.0105522 0)
(5.34801 0.0175803 0)
(5.35065 -0.00506769 0)
(5.28562 0.032508 0)
(5.1682 -0.0416712 0)
(10.047 0.629594 0)
(10.6861 0.865225 0)
(10.8363 0.600885 0)
(10.7296 0.373079 0)
(10.4195 0.25553 0)
(10.1278 0.197635 0)
(9.79456 0.152636 0)
(9.54955 0.123795 0)
(9.25054 0.0965378 0)
(9.10935 0.0718264 0)
(8.84692 0.0623756 0)
(8.78499 0.0510745 0)
(8.54749 0.0449 0)
(8.55331 0.0367152 0)
(8.29873 0.0471925 0)
(8.34152 0.0289403 0)
(8.11555 0.0424785 0)
(8.12685 0.00490718 0)
(7.99462 0.040296 0)
(7.98978 -0.0984888 0)
(9.95472 0.453575 0)
(10.628 0.70985 0)
(11.1029 0.545339 0)
(11.4397 0.352696 0)
(11.4984 0.262085 0)
(11.5275 0.227718 0)
(11.4253 0.195886 0)
(11.3818 0.179533 0)
(11.2078 0.151883 0)
(11.179 0.120839 0)
(10.975 0.109877 0)
(10.9746 0.0922594 0)
(10.749 0.0819569 0)
(10.7991 0.0680195 0)
(10.5373 0.0859028 0)
(10.5976 0.0493201 0)
(10.3842 0.0830732 0)
(10.3759 0.0181237 0)
(10.2236 0.0617878 0)
(10.2953 -0.107052 0)
(9.94659 0.34089 0)
(10.5023 0.575154 0)
(10.9631 0.458702 0)
(11.3768 0.291214 0)
(11.5836 0.208427 0)
(11.7432 0.199785 0)
(11.8135 0.174162 0)
(11.9085 0.173363 0)
(11.9118 0.146559 0)
(11.9818 0.126765 0)
(11.9323 0.116584 0)
(12.0375 0.109134 0)
(11.9206 0.0909429 0)
(12.0455 0.0894074 0)
(11.9096 0.0969147 0)
(11.9625 0.0796315 0)
(11.909 0.0789201 0)
(11.8659 0.0793818 0)
(11.7628 0.0431808 0)
(11.9203 -0.0318175 0)
(9.96871 0.246754 0)
(10.3849 0.458301 0)
(10.8361 0.382449 0)
(11.2075 0.247932 0)
(11.513 0.161202 0)
(11.64 0.146527 0)
(11.773 0.134855 0)
(11.8402 0.149357 0)
(11.9773 0.130867 0)
(12.0371 0.109503 0)
(12.094 0.0932265 0)
(12.221 0.0966273 0)
(12.2173 0.0703988 0)
(12.3141 0.0756176 0)
(12.391 0.100884 0)
(12.3382 0.0533066 0)
(12.5491 0.10469 0)
(12.4028 0.0752814 0)
(12.5009 0.0843135 0)
(12.5423 0.01338 0)
(9.93693 0.177384 0)
(10.3739 0.35224 0)
(10.7235 0.294922 0)
(11.1386 0.192348 0)
(11.331 0.119204 0)
(11.5881 0.13393 0)
(11.6843 0.100094 0)
(11.7421 0.115305 0)
(11.916 0.0763693 0)
(11.9169 0.105345 0)
(12.0958 0.0581008 0)
(12.0802 0.0915644 0)
(12.2704 0.0549018 0)
(12.2189 0.0608827 0)
(12.4008 0.0647712 0)
(12.3214 0.0790113 0)
(12.5626 -0.000165457 0)
(12.4194 0.181148 0)
(12.6626 0.0166135 0)
(12.4338 0.174938 0)
(9.98757 0.103446 0)
(10.2816 0.253166 0)
(10.6792 0.208919 0)
(11.0881 0.179364 0)
(11.2516 0.0646267 0)
(11.5607 0.0737768 0)
(11.5555 0.0615787 0)
(11.7816 0.106282 0)
(11.736 0.0510107 0)
(11.9105 0.0851009 0)
(11.9108 0.0204498 0)
(12.1228 0.0882211 0)
(12.0356 -0.00584535 0)
(12.392 0.0872775 0)
(12.0404 0.0298172 0)
(12.6106 0.0513661 0)
(12.193 0.0521068 0)
(12.6079 0.0788808 0)
(12.3876 0.0902519 0)
(12.614 0.135192 0)
(10.0146 0.0691716 0)
(10.1906 0.140508 0)
(10.6669 0.117957 0)
(10.9585 0.102108 0)
(11.3524 0.0466275 0)
(11.4046 0.0651064 0)
(11.549 0.0323542 0)
(11.7039 0.0473371 0)
(11.7211 0.0359429 0)
(11.8816 0.0465407 0)
(11.8961 0.0135189 0)
(12.0029 0.0494249 0)
(12.1009 0.00482332 0)
(12.0557 0.0389153 0)
(12.4137 0.02697 0)
(12.1215 0.0218772 0)
(12.509 -0.000285226 0)
(12.3664 0.10813 0)
(12.455 0.00480691 0)
(12.5452 -0.0250073 0)
(9.98114 0.0176408 0)
(10.2764 0.0461249 0)
(10.534 0.0375685 0)
(10.9478 0.0470492 0)
(11.2702 0.00279616 0)
(11.4116 0.0348627 0)
(11.6161 -0.0168776 0)
(11.6279 0.0382344 0)
(11.7438 0.00210447 0)
(11.7935 0.0224175 0)
(11.9233 -0.00227328 0)
(11.9714 0.0280389 0)
(12.0779 -0.00506567 0)
(12.1865 0.00338466 0)
(12.1362 0.0216189 0)
(12.3611 0.00716598 0)
(12.2994 0.00558465 0)
(12.37 0.0260241 0)
(12.5585 0.00042179 0)
(12.1433 0.0375686 0)
(10.0107 -0.0252483 0)
(10.2256 -0.044214 0)
(10.5826 -0.0340619 0)
(11.0082 -0.0420684 0)
(11.1939 -0.0179445 0)
(11.4619 -0.00263892 0)
(11.5387 -0.02835 0)
(11.6501 -0.0121785 0)
(11.7244 -0.0117168 0)
(11.8551 -0.0122957 0)
(11.8914 -0.0217383 0)
(11.954 0.00289813 0)
(12.0956 -0.0320265 0)
(12.1167 0.0137357 0)
(12.2162 -0.0107057 0)
(12.2946 -0.0293534 0)
(12.3312 -0.0171874 0)
(12.4564 0.00502527 0)
(12.3354 0.00924512 0)
(12.4875 -0.083485 0)
(10.0138 -0.0682251 0)
(10.2262 -0.147197 0)
(10.6422 -0.136336 0)
(10.959 -0.0739344 0)
(11.2743 -0.0509598 0)
(11.4598 -0.0422637 0)
(11.5917 -0.0602353 0)
(11.669 -0.0433225 0)
(11.7288 -0.0477107 0)
(11.8521 -0.0409163 0)
(11.9002 -0.0159175 0)
(12.0256 -0.0323898 0)
(12.0817 -0.034452 0)
(12.1408 -0.0334518 0)
(12.2786 -0.0185084 0)
(12.2721 -0.0418367 0)
(12.3888 -0.0405278 0)
(12.3785 -0.016687 0)
(12.4892 -0.0590565 0)
(12.4246 -0.0270259 0)
(9.9882 -0.119763 0)
(10.2946 -0.247479 0)
(10.6478 -0.196936 0)
(11.0326 -0.157158 0)
(11.3268 -0.0921178 0)
(11.4859 -0.0692117 0)
(11.6283 -0.084063 0)
(11.7096 -0.0751632 0)
(11.8017 -0.0627124 0)
(11.8783 -0.0684808 0)
(11.9725 -0.0552631 0)
(12.0535 -0.050917 0)
(12.1145 -0.0486654 0)
(12.2089 -0.0439247 0)
(12.283 -0.039265 0)
(12.3645 -0.0683983 0)
(12.3799 -0.054501 0)
(12.4839 -0.0656733 0)
(12.5078 -0.0502591 0)
(12.4345 -0.10014 0)
(10.0305 -0.179527 0)
(10.2913 -0.351857 0)
(10.7375 -0.290527 0)
(11.1191 -0.201825 0)
(11.4038 -0.115782 0)
(11.5467 -0.113729 0)
(11.693 -0.118093 0)
(11.7702 -0.111366 0)
(11.8548 -0.0926244 0)
(11.9493 -0.098254 0)
(12.0468 -0.058888 0)
(12.1173 -0.0727137 0)
(12.2003 -0.0634306 0)
(12.268 -0.0769106 0)
(12.3652 -0.0573336 0)
(12.3921 -0.0788421 0)
(12.4815 -0.0808914 0)
(12.5199 -0.0830917 0)
(12.5531 -0.10671 0)
(12.5253 -0.0936118 0)
(10.069 -0.258189 0)
(10.3074 -0.448489 0)
(10.8948 -0.371724 0)
(11.1814 -0.25735 0)
(11.5364 -0.162432 0)
(11.6003 -0.147522 0)
(11.8168 -0.14666 0)
(11.8246 -0.138112 0)
(11.9833 -0.114285 0)
(11.9989 -0.125487 0)
(12.1498 -0.0899354 0)
(12.1466 -0.097768 0)
(12.2778 -0.0797356 0)
(12.2856 -0.0944352 0)
(12.3873 -0.0648009 0)
(12.3716 -0.108857 0)
(12.4657 -0.0891403 0)
(12.4463 -0.123311 0)
(12.484 -0.108507 0)
(12.3732 -0.147346 0)
(10.0652 -0.351076 0)
(10.3741 -0.562398 0)
(11.0633 -0.464118 0)
(11.2998 -0.296049 0)
(11.6678 -0.202861 0)
(11.6618 -0.191163 0)
(11.8948 -0.187836 0)
(11.8084 -0.165022 0)
(11.9955 -0.145825 0)
(11.8835 -0.144371 0)
(12.0486 -0.104782 0)
(11.9098 -0.106428 0)
(12.05 -0.0952088 0)
(11.9047 -0.10439 0)
(12.0218 -0.0783863 0)
(11.8627 -0.109185 0)
(11.9477 -0.095714 0)
(11.7828 -0.126869 0)
(11.8012 -0.119234 0)
(11.5625 -0.164659 0)
(10.0121 -0.459776 0)
(10.551 -0.701769 0)
(11.188 -0.546127 0)
(11.3559 -0.355255 0)
(11.5689 -0.260114 0)
(11.4491 -0.227399 0)
(11.5042 -0.204227 0)
(11.2836 -0.172677 0)
(11.3198 -0.146489 0)
(11.0503 -0.133911 0)
(11.1031 -0.101456 0)
(10.8335 -0.0950533 0)
(10.8938 -0.0822745 0)
(10.6221 -0.0856153 0)
(10.7035 -0.0623245 0)
(10.4184 -0.089999 0)
(10.4878 -0.0728941 0)
(10.2008 -0.110327 0)
(10.2161 -0.0885013 0)
(9.87233 -0.163033 0)
(10.0651 -0.633 0)
(10.6512 -0.862246 0)
(10.8776 -0.601938 0)
(10.6783 -0.374147 0)
(10.4681 -0.253984 0)
(10.0779 -0.195773 0)
(9.84451 -0.156971 0)
(9.48221 -0.121086 0)
(9.33494 -0.0934949 0)
(9.00455 -0.0810899 0)
(8.95269 -0.0573457 0)
(8.66705 -0.0511149 0)
(8.66735 -0.0451244 0)
(8.39933 -0.0478068 0)
(8.44382 -0.0359042 0)
(8.16429 -0.050833 0)
(8.21398 -0.0480616 0)
(7.91926 -0.0656126 0)
(7.92909 -0.0664127 0)
(7.58375 -0.0929993 0)
(10.0851 -0.838932 0)
(9.65399 -0.867218 0)
(8.87568 -0.50656 0)
(8.07571 -0.262357 0)
(7.49936 -0.137753 0)
(7.00215 -0.0816524 0)
(6.7006 -0.0559292 0)
(6.39048 -0.0399081 0)
(6.23842 -0.0285226 0)
(6.00327 -0.027196 0)
(5.94448 -0.0178095 0)
(5.75357 -0.0168248 0)
(5.74181 -0.0159311 0)
(5.55869 -0.0196658 0)
(5.57551 -0.0131792 0)
(5.38172 -0.0230129 0)
(5.39769 -0.0224187 0)
(5.17751 -0.0304396 0)
(5.17314 -0.035791 0)
(4.88213 -0.0203455 0)
(8.09155 -0.388019 0)
(5.44824 -0.242532 0)
(3.91251 -0.0428539 0)
(3.15538 0.0152819 0)
(2.80218 0.0183577 0)
(2.59721 0.0113536 0)
(2.48541 0.00505064 0)
(2.37591 0.00247114 0)
(2.32359 0.00214728 0)
(2.24381 -0.000377841 0)
(2.2197 0.00100004 0)
(2.15772 0.00035336 0)
(2.15131 1.5912e-05 0)
(2.08359 -0.00145921 0)
(2.08205 0.000485282 0)
(2.01024 -0.00240717 0)
(1.99957 -0.00151171 0)
(1.90917 -0.00330166 0)
(1.87685 -0.00365951 0)
(1.72652 0.0106687 0)
(2.25217 -0.15536 0)
(2.38241 -0.0691025 0)
(2.48906 0.000191616 0)
(2.56439 0.0203694 0)
(2.64722 0.0188147 0)
(2.70722 0.00802735 0)
(2.7868 -0.0104713 0)
(2.85861 -0.0190908 0)
(2.93435 -0.0274956 0)
(3.00143 -0.023999 0)
(3.05915 -0.0184951 0)
(3.11158 -0.00774699 0)
(3.1551 0.00124008 0)
(3.21016 -0.000582982 0)
(3.26128 -0.0122734 0)
(3.32093 -0.0342655 0)
(3.36506 -0.0583023 0)
(3.40888 -0.0687629 0)
(3.43486 -0.073429 0)
(3.46135 -0.0668682 0)
(3.48129 -0.0612202 0)
(3.50485 -0.0564501 0)
(3.52535 -0.0516584 0)
(3.54484 -0.0471903 0)
(3.55998 -0.0404337 0)
(3.57171 -0.0232558 0)
(3.58444 -0.0011828 0)
(3.59272 0.0378771 0)
(3.61779 0.0709251 0)
(3.64791 0.112067 0)
(3.69304 0.134235 0)
(3.77216 0.135817 0)
(3.85053 0.133571 0)
(3.92402 0.126685 0)
(4.00877 0.101166 0)
(4.08782 0.0660516 0)
(4.14287 0.0407636 0)
(4.16381 0.0149949 0)
(4.20642 -0.00729379 0)
(4.20801 -0.0282854 0)
(4.23726 -0.0318345 0)
(4.23444 -0.0411399 0)
(4.26776 -0.0411052 0)
(4.28804 -0.0552177 0)
(4.33077 -0.0632161 0)
(4.34749 -0.0739517 0)
(4.36643 -0.0716568 0)
(4.38448 -0.0831417 0)
(4.39766 -0.08823 0)
(4.44233 -0.0980145 0)
(4.43685 -0.101321 0)
(4.49681 -0.101753 0)
(4.46667 -0.101299 0)
(4.54486 -0.0964779 0)
(4.50028 -0.0969107 0)
(4.59195 -0.0932419 0)
(4.52879 -0.0931219 0)
(4.62108 -0.0827702 0)
(4.52761 -0.0738865 0)
(4.613 -0.0420309 0)
(4.49386 -0.0207433 0)
(4.58122 0.00583581 0)
(4.48703 0.0305254 0)
(4.55625 0.0405882 0)
(4.50112 0.0592041 0)
(4.52627 0.0429103 0)
(4.53279 0.0558794 0)
(4.5037 0.0451244 0)
(4.55892 0.0649507 0)
(4.48752 0.079976 0)
(4.58049 0.0831838 0)
(4.54923 0.109909 0)
(4.62522 0.102429 0)
(4.67387 0.123534 0)
(4.73828 0.0961332 0)
(4.84297 0.10767 0)
(4.85686 0.08333 0)
(5.02574 0.0663844 0)
(4.96965 0.0682363 0)
(5.14574 0.0488882 0)
(5.06646 0.0431732 0)
(5.23314 0.0518003 0)
(5.12728 0.0484616 0)
(5.28742 0.0406685 0)
(5.18968 0.0796693 0)
(5.33921 0.0508686 0)
(5.2319 0.0922315 0)
(5.41446 0.0894603 0)
(5.33126 0.0789597 0)
(5.5418 0.097611 0)
(5.42439 0.0802685 0)
(5.67237 0.0769413 0)
(5.55188 0.0879228 0)
(5.76054 0.0244409 0)
(5.67511 0.085137 0)
(5.83575 0.0173479 0)
(5.79087 0.0512717 0)
(5.98046 0.0598551 0)
(5.9011 0.0226424 0)
(6.20505 0.0630868 0)
(6.18772 0.0385508 0)
(6.42111 -0.0311926 0)
(6.64334 -0.0161665 0)
(6.77682 -0.128206 0)
(7.11908 -0.24114 0)
(7.28663 -0.298665 0)
(7.60912 -0.519867 0)
(7.84432 -0.625147 0)
(8.08884 -0.788698 0)
(8.40427 -0.992209 0)
(8.57243 -1.10608 0)
(8.82216 -1.29242 0)
(9.06543 -1.39885 0)
(9.1399 -1.50758 0)
(9.41669 -1.57885 0)
(9.42007 -1.6497 0)
(9.56283 -1.64561 0)
(9.59994 -1.62326 0)
(9.62505 -1.56748 0)
(9.66164 -1.43841 0)
(9.67825 -1.29489 0)
(9.62854 -1.18848 0)
(9.67195 -0.938184 0)
(9.5806 -0.83404 0)
(9.60852 -0.633754 0)
(9.55085 -0.441146 0)
(9.62828 -0.309528 0)
(9.53939 -0.119201 0)
(9.71727 -0.0206323 0)
(9.64046 0.114929 0)
(9.80679 0.13729 0)
(9.82375 0.205131 0)
(9.98295 0.1986 0)
(10.064 0.191735 0)
(10.2775 0.137746 0)
(10.3693 0.128614 0)
(10.676 -0.0414634 0)
(10.7516 -0.05578 0)
(11.1052 -0.199707 0)
(11.2403 -0.360735 0)
(11.5834 -0.439929 0)
(11.7122 -0.631623 0)
(12.172 -0.785165 0)
(12.1037 -0.929865 0)
(12.7966 -1.16146 0)
(12.5265 -1.29378 0)
(13.2923 -1.52316 0)
(13.0256 -1.73708 0)
(13.6698 -1.88867 0)
(13.4633 -2.18787 0)
(13.9209 -2.3368 0)
(13.7892 -2.59838 0)
(13.9655 -2.82847 0)
(13.9441 -2.96315 0)
(13.7572 -3.23175 0)
(13.8645 -3.29625 0)
(13.354 -3.52432 0)
(13.4181 -3.42772 0)
(12.905 -3.67255 0)
(12.797 -3.42657 0)
(12.3536 -3.44822 0)
(12.2766 -3.37355 0)
(12.0545 -3.19397 0)
(11.9021 -3.01582 0)
(11.9149 -2.8321 0)
(11.888 -2.67536 0)
(11.9421 -2.3967 0)
(11.8235 -2.03579 0)
(11.9587 -1.81785 0)
(11.8141 -1.48439 0)
(11.8075 -1.02459 0)
(11.5792 -0.798048 0)
(11.5421 -0.351694 0)
(11.1774 -0.0741214 0)
(10.9657 0.290352 0)
(10.621 0.519766 0)
(10.2465 0.867269 0)
(9.81604 0.964992 0)
(9.51178 1.24526 0)
(8.85607 1.31197 0)
(8.77846 1.63166 0)
(8.0649 1.48998 0)
(7.98583 1.88155 0)
(7.36633 1.81213 0)
(7.30654 2.23718 0)
(6.96327 2.48486 0)
(6.80987 2.65342 0)
(6.74836 2.92656 0)
(6.78472 2.89198 0)
(6.79215 3.449 0)
(6.99673 3.34496 0)
(7.02153 3.84328 0)
(7.01353 4.22052 0)
(7.25103 4.88473 0)
(6.99754 5.66174 0)
(6.59785 5.65796 0)
(7.21057 7.081 0)
(7.50455 8.58798 0)
(7.45317 9.10952 0)
(4.29394 11.895 0)
(5.32538 -0.104901 0)
(5.37769 -0.076513 0)
(5.38127 -0.027431 0)
(5.37258 -0.0140724 0)
(5.3637 -0.0197229 0)
(5.39245 -0.0388503 0)
(5.42598 -0.0597101 0)
(5.48811 -0.0696919 0)
(5.52915 -0.0792329 0)
(5.57944 -0.0667075 0)
(5.60673 -0.0538626 0)
(5.63984 -0.0434295 0)
(5.65662 -0.0339372 0)
(5.68736 -0.0387065 0)
(5.70869 -0.0477894 0)
(5.74387 -0.0595256 0)
(5.77112 -0.0800857 0)
(5.79561 -0.0831549 0)
(5.8212 -0.0915127 0)
(5.82747 -0.0833329 0)
(5.85319 -0.0758411 0)
(5.84857 -0.0721823 0)
(5.87649 -0.0604953 0)
(5.86663 -0.0550911 0)
(5.89421 -0.0457935 0)
(5.87701 -0.0254936 0)
(5.90925 -0.0100891 0)
(5.88584 0.0221263 0)
(5.92863 0.0465495 0)
(5.9092 0.0712628 0)
(5.96911 0.0956563 0)
(5.9647 0.094625 0)
(6.04696 0.095454 0)
(6.04946 0.0834031 0)
(6.13214 0.0652663 0)
(6.1399 0.0388096 0)
(6.21286 0.0108271 0)
(6.2049 -0.0109251 0)
(6.25297 -0.0267538 0)
(6.25444 -0.0486416 0)
(6.27974 -0.05488 0)
(6.3002 -0.0628895 0)
(6.30441 -0.0717457 0)
(6.35601 -0.0722705 0)
(6.34899 -0.0896411 0)
(6.42052 -0.091335 0)
(6.38722 -0.0989068 0)
(6.46624 -0.101639 0)
(6.41159 -0.102826 0)
(6.51174 -0.107852 0)
(6.44386 -0.113438 0)
(6.547 -0.110095 0)
(6.4708 -0.11268 0)
(6.56449 -0.105545 0)
(6.4953 -0.0998271 0)
(6.56917 -0.0987731 0)
(6.51459 -0.0857064 0)
(6.55806 -0.0853235 0)
(6.52085 -0.064432 0)
(6.5288 -0.053985 0)
(6.51071 -0.0172604 0)
(6.50141 -0.00194915 0)
(6.51314 0.0311288 0)
(6.48656 0.0387337 0)
(6.52331 0.0528317 0)
(6.47905 0.0543635 0)
(6.53644 0.042119 0)
(6.48477 0.0590707 0)
(6.54561 0.0421054 0)
(6.49078 0.0730117 0)
(6.5491 0.0733374 0)
(6.51615 0.0884835 0)
(6.56521 0.0967188 0)
(6.55196 0.106968 0)
(6.60765 0.0905621 0)
(6.60873 0.0982515 0)
(6.6384 0.0742958 0)
(6.66004 0.0675248 0)
(6.66497 0.0545385 0)
(6.6681 0.0410597 0)
(6.67953 0.0426414 0)
(6.65776 0.0223421 0)
(6.66631 0.0416351 0)
(6.66296 0.0252259 0)
(6.63463 0.0303678 0)
(6.68936 0.0424103 0)
(6.62981 0.0310682 0)
(6.71535 0.0507293 0)
(6.68514 0.0373865 0)
(6.79334 0.0377683 0)
(6.78217 0.0344253 0)
(6.86405 0.0165097 0)
(6.90554 0.0317029 0)
(6.99938 -0.0206203 0)
(6.99021 0.00403176 0)
(7.22474 -0.0115892 0)
(7.08468 -0.0489556 0)
(7.46382 -0.0357398 0)
(7.34984 -0.039789 0)
(7.67298 -0.135052 0)
(7.75161 -0.0751294 0)
(8.01484 -0.182658 0)
(8.17464 -0.274515 0)
(8.48653 -0.266924 0)
(8.69088 -0.482669 0)
(8.98738 -0.554169 0)
(9.20549 -0.682055 0)
(9.57733 -0.905689 0)
(9.64684 -0.98143 0)
(10.0809 -1.18676 0)
(10.1452 -1.33296 0)
(10.384 -1.42924 0)
(10.5843 -1.56206 0)
(10.6288 -1.65216 0)
(10.7856 -1.68669 0)
(10.8444 -1.73053 0)
(10.8619 -1.70319 0)
(10.9093 -1.63612 0)
(10.9235 -1.56317 0)
(10.8355 -1.45115 0)
(10.9082 -1.28735 0)
(10.7596 -1.18805 0)
(10.8477 -0.95483 0)
(10.7188 -0.836041 0)
(10.8267 -0.629383 0)
(10.7219 -0.465322 0)
(10.8905 -0.308228 0)
(10.7585 -0.179073 0)
(11.0391 -0.0479969 0)
(10.8849 0.0195829 0)
(11.2228 0.0912236 0)
(11.1218 0.0823578 0)
(11.4463 0.151041 0)
(11.4233 0.0331129 0)
(11.7313 0.0607481 0)
(11.7644 -0.0516146 0)
(12.0956 -0.122325 0)
(12.1319 -0.267187 0)
(12.5207 -0.306658 0)
(12.5452 -0.562256 0)
(12.9596 -0.564654 0)
(12.9853 -0.86895 0)
(13.4473 -0.874539 0)
(13.3309 -1.1794 0)
(13.9732 -1.25232 0)
(13.6391 -1.50029 0)
(14.3743 -1.62223 0)
(13.9344 -1.87405 0)
(14.6252 -1.97732 0)
(14.1215 -2.27171 0)
(14.6495 -2.34445 0)
(14.1679 -2.63307 0)
(14.4245 -2.73537 0)
(13.9639 -2.90196 0)
(13.9372 -3.06845 0)
(13.5807 -3.15374 0)
(13.2331 -3.23772 0)
(13.03 -3.27716 0)
(12.6112 -3.36302 0)
(12.409 -3.19132 0)
(12.1601 -3.30725 0)
(12.1428 -3.21104 0)
(11.9753 -3.10723 0)
(12.0258 -2.98563 0)
(12.0631 -2.89705 0)
(12.2009 -2.69537 0)
(12.1245 -2.45154 0)
(12.2362 -2.03338 0)
(12.2908 -1.93536 0)
(12.1768 -1.39392 0)
(12.2026 -1.03366 0)
(11.9508 -0.691338 0)
(11.9733 -0.232391 0)
(11.4859 0.160993 0)
(11.4848 0.505958 0)
(10.8534 0.794316 0)
(10.6001 1.23302 0)
(9.98254 1.35546 0)
(9.70568 1.60581 0)
(9.05103 1.67046 0)
(8.70026 1.82764 0)
(8.29865 2.04108 0)
(7.7162 1.9074 0)
(7.85801 2.30369 0)
(7.09526 2.21149 0)
(7.35622 2.84875 0)
(6.63471 2.5893 0)
(7.14999 3.06466 0)
(6.9174 3.02793 0)
(7.26524 2.85403 0)
(7.47612 3.61023 0)
(7.48774 3.58455 0)
(7.73221 4.32409 0)
(7.65255 4.59122 0)
(7.9638 5.31529 0)
(8.05948 6.30332 0)
(7.373 6.63905 0)
(7.61274 8.19351 0)
(10.5225 8.53314 0)
(7.56874 13.2362 0)
(7.99495 -0.0881321 0)
(8.0203 -0.0143811 0)
(8.01335 0.0320937 0)
(8.00133 0.0168947 0)
(7.95002 -0.0132579 0)
(7.96832 -0.0621837 0)
(7.97796 -0.0949137 0)
(8.04402 -0.0944231 0)
(8.07406 -0.0980401 0)
(8.11536 -0.0813345 0)
(8.13183 -0.0677114 0)
(8.13464 -0.0644328 0)
(8.13762 -0.0525527 0)
(8.1368 -0.0634732 0)
(8.1532 -0.070084 0)
(8.16486 -0.0745817 0)
(8.20042 -0.0961984 0)
(8.19549 -0.0851533 0)
(8.24563 -0.100348 0)
(8.20693 -0.0920356 0)
(8.26459 -0.08133 0)
(8.20949 -0.0841974 0)
(8.26271 -0.0637346 0)
(8.20801 -0.059969 0)
(8.26076 -0.0495478 0)
(8.20448 -0.0273291 0)
(8.26714 -0.017904 0)
(8.20457 0.0109742 0)
(8.28312 0.0322465 0)
(8.21813 0.0445552 0)
(8.30235 0.0739141 0)
(8.25876 0.0679398 0)
(8.33539 0.0703008 0)
(8.32154 0.0634682 0)
(8.37721 0.0329881 0)
(8.38319 0.0299096 0)
(8.42277 -0.0131266 0)
(8.43312 -0.0240239 0)
(8.44534 -0.0416351 0)
(8.4736 -0.0641358 0)
(8.4535 -0.0674352 0)
(8.51033 -0.079017 0)
(8.46785 -0.0921696 0)
(8.54065 -0.0892874 0)
(8.50376 -0.106058 0)
(8.57198 -0.113806 0)
(8.54128 -0.108105 0)
(8.59723 -0.13018 0)
(8.56255 -0.109179 0)
(8.61639 -0.127424 0)
(8.58492 -0.120339 0)
(8.62652 -0.118575 0)
(8.61204 -0.119296 0)
(8.62085 -0.110846 0)
(8.6319 -0.099463 0)
(8.60875 -0.0978245 0)
(8.6348 -0.0808808 0)
(8.58924 -0.0718242 0)
(8.62629 -0.0617814 0)
(8.56096 -0.0345558 0)
(8.60452 -0.0231287 0)
(8.53614 0.00410274 0)
(8.58102 0.0214675 0)
(8.52537 0.029389 0)
(8.56228 0.0450413 0)
(8.51985 0.0454343 0)
(8.55265 0.045401 0)
(8.52379 0.0577734 0)
(8.5551 0.0431134 0)
(8.526 0.0750346 0)
(8.55858 0.0594275 0)
(8.53169 0.0891353 0)
(8.57388 0.0828545 0)
(8.53204 0.093484 0)
(8.60757 0.092809 0)
(8.53506 0.078251 0)
(8.6359 0.0833748 0)
(8.537 0.0652668 0)
(8.63809 0.0557995 0)
(8.53149 0.0613604 0)
(8.61436 0.0315773 0)
(8.50896 0.0554439 0)
(8.57131 0.0308546 0)
(8.49135 0.0370449 0)
(8.51119 0.0472675 0)
(8.47964 0.0263347 0)
(8.48703 0.0362241 0)
(8.4538 0.0529707 0)
(8.5228 0.00113081 0)
(8.44502 0.0426114 0)
(8.61548 -0.00635197 0)
(8.47568 -0.0123236 0)
(8.65286 -0.0123543 0)
(8.67025 -0.0563407 0)
(8.6527 -0.0751222 0)
(8.89812 -0.087773 0)
(8.8189 -0.118433 0)
(9.04649 -0.173682 0)
(9.15091 -0.165244 0)
(9.30274 -0.242717 0)
(9.48029 -0.296972 0)
(9.72759 -0.32629 0)
(9.87687 -0.455843 0)
(10.1725 -0.513426 0)
(10.3723 -0.658434 0)
(10.6575 -0.767993 0)
(10.8074 -0.916765 0)
(11.1832 -1.07852 0)
(11.1944 -1.19276 0)
(11.5578 -1.3679 0)
(11.5871 -1.47549 0)
(11.7768 -1.56834 0)
(11.8325 -1.68841 0)
(11.9156 -1.71124 0)
(11.9071 -1.75063 0)
(11.9818 -1.73692 0)
(11.8663 -1.71399 0)
(11.9377 -1.61031 0)
(11.7833 -1.58006 0)
(11.7846 -1.39941 0)
(11.719 -1.29465 0)
(11.6318 -1.12766 0)
(11.6442 -0.95442 0)
(11.5613 -0.810572 0)
(11.5902 -0.627178 0)
(11.5671 -0.511804 0)
(11.6468 -0.333236 0)
(11.645 -0.249709 0)
(11.7996 -0.134846 0)
(11.8304 -0.0503451 0)
(12.0088 -0.0296815 0)
(12.1043 0.00984123 0)
(12.2754 -0.00720374 0)
(12.4223 -0.0548852 0)
(12.5886 -0.0929522 0)
(12.7882 -0.207531 0)
(12.9281 -0.244419 0)
(13.1662 -0.448151 0)
(13.3138 -0.469525 0)
(13.5604 -0.715667 0)
(13.6498 -0.751937 0)
(14.0025 -1.0103 0)
(13.9671 -1.06787 0)
(14.3214 -1.28705 0)
(14.3077 -1.43165 0)
(14.5178 -1.57758 0)
(14.5572 -1.75851 0)
(14.5635 -1.91024 0)
(14.6849 -2.05632 0)
(14.441 -2.26923 0)
(14.5575 -2.31524 0)
(14.1888 -2.59509 0)
(14.1481 -2.58239 0)
(13.745 -2.79813 0)
(13.5614 -2.84257 0)
(13.1984 -2.93975 0)
(12.8715 -2.98615 0)
(12.6935 -3.07794 0)
(12.333 -3.0893 0)
(12.2561 -3.09599 0)
(12.1886 -3.24183 0)
(12.154 -3.15494 0)
(12.0969 -3.14626 0)
(12.2644 -3.08867 0)
(12.2504 -2.9747 0)
(12.4267 -2.78714 0)
(12.2182 -2.45559 0)
(12.5732 -2.1471 0)
(12.3264 -1.96644 0)
(12.4617 -1.32249 0)
(12.1897 -1.02217 0)
(12.2806 -0.571273 0)
(11.9304 -0.0910383 0)
(11.8997 0.363422 0)
(11.4053 0.731564 0)
(11.3773 1.17374 0)
(10.6011 1.41341 0)
(10.6262 1.8957 0)
(9.58185 1.83573 0)
(9.65204 2.33543 0)
(8.49982 2.09988 0)
(8.79522 2.39187 0)
(7.71021 2.24971 0)
(8.00631 2.36935 0)
(7.28163 2.85145 0)
(6.94096 2.59277 0)
(7.49538 3.20971 0)
(6.70647 2.32237 0)
(8.12941 3.14729 0)
(7.05526 2.95841 0)
(7.98676 3.11807 0)
(7.86724 3.98876 0)
(7.98182 3.86676 0)
(8.55088 5.14742 0)
(7.96596 5.28168 0)
(8.6101 6.19143 0)
(9.79113 6.68166 0)
(7.21033 8.98102 0)
(12.1096 6.2363 0)
(9.6551 12.6004 0)
(10.286 -0.0793209 0)
(10.2787 -0.00496595 0)
(10.1991 0.0591078 0)
(10.181 0.0277003 0)
(10.1134 -0.00393536 0)
(10.1728 -0.0564769 0)
(10.1431 -0.113635 0)
(10.2133 -0.119722 0)
(10.2152 -0.142473 0)
(10.2504 -0.104998 0)
(10.2796 -0.0670396 0)
(10.2846 -0.0589423 0)
(10.2934 -0.0263705 0)
(10.2826 -0.0527655 0)
(10.2727 -0.0680059 0)
(10.2588 -0.0723452 0)
(10.2858 -0.10978 0)
(10.2465 -0.0872319 0)
(10.3361 -0.101169 0)
(10.2571 -0.0902732 0)
(10.3622 -0.0674153 0)
(10.2741 -0.0817143 0)
(10.3355 -0.0470654 0)
(10.2697 -0.0540072 0)
(10.3002 -0.0473703 0)
(10.2451 -0.0143476 0)
(10.2923 -0.0269672 0)
(10.2335 0.0143231 0)
(10.3026 0.0227321 0)
(10.2595 0.0365532 0)
(10.3114 0.061262 0)
(10.3182 0.057801 0)
(10.3279 0.0557981 0)
(10.3689 0.061647 0)
(10.3681 0.023022 0)
(10.3952 0.0246913 0)
(10.4131 -0.00688178 0)
(10.4201 -0.0358951 0)
(10.4252 -0.0334192 0)
(10.4533 -0.074949 0)
(10.4149 -0.0680548 0)
(10.4728 -0.0846042 0)
(10.4233 -0.102207 0)
(10.4723 -0.0948291 0)
(10.4528 -0.114327 0)
(10.4817 -0.121388 0)
(10.4698 -0.111987 0)
(10.5044 -0.139119 0)
(10.4679 -0.114539 0)
(10.5134 -0.130008 0)
(10.4741 -0.123371 0)
(10.5008 -0.114925 0)
(10.4902 -0.118814 0)
(10.4834 -0.103708 0)
(10.4935 -0.0990885 0)
(10.4723 -0.0850745 0)
(10.4818 -0.0762385 0)
(10.4532 -0.0556523 0)
(10.4693 -0.0515418 0)
(10.4264 -0.0226125 0)
(10.4474 -0.00925129 0)
(10.4069 0.00159253 0)
(10.4149 0.0363281 0)
(10.4052 0.0250404 0)
(10.3813 0.0540399 0)
(10.406 0.0522046 0)
(10.3658 0.047312 0)
(10.3963 0.0756293 0)
(10.3774 0.0470761 0)
(10.3738 0.0741316 0)
(10.4009 0.0768048 0)
(10.351 0.0633106 0)
(10.4243 0.103854 0)
(10.3388 0.0731257 0)
(10.4367 0.0922054 0)
(10.3487 0.0960626 0)
(10.4319 0.0590881 0)
(10.3608 0.103161 0)
(10.4162 0.0474928 0)
(10.3526 0.0730343 0)
(10.3986 0.0666974 0)
(10.3273 0.0345984 0)
(10.3617 0.0806104 0)
(10.3167 0.0271968 0)
(10.3131 0.0588719 0)
(10.2942 0.054353 0)
(10.3297 0.0199887 0)
(10.2255 0.0631227 0)
(10.4141 -0.00151017 0)
(10.1897 0.0342562 0)
(10.4779 -0.0301349 0)
(10.2773 -0.0198462 0)
(10.4576 -0.0570767 0)
(10.4593 -0.098359 0)
(10.4952 -0.0988853 0)
(10.6003 -0.17541 0)
(10.711 -0.194544 0)
(10.7093 -0.232168 0)
(11.006 -0.317281 0)
(10.9701 -0.338631 0)
(11.2556 -0.42735 0)
(11.3675 -0.516755 0)
(11.5824 -0.581477 0)
(11.7021 -0.709339 0)
(12.0374 -0.825435 0)
(12.0206 -0.935308 0)
(12.3733 -1.08497 0)
(12.4269 -1.22388 0)
(12.5471 -1.32578 0)
(12.7133 -1.48372 0)
(12.7168 -1.53651 0)
(12.7535 -1.66045 0)
(12.7989 -1.68827 0)
(12.7118 -1.71439 0)
(12.6748 -1.73292 0)
(12.6553 -1.68894 0)
(12.4323 -1.64743 0)
(12.4927 -1.58225 0)
(12.2305 -1.46007 0)
(12.246 -1.36012 0)
(12.0899 -1.20121 0)
(12.0391 -1.08325 0)
(11.9382 -0.915349 0)
(11.978 -0.79571 0)
(11.8235 -0.654537 0)
(12.0015 -0.507179 0)
(11.8762 -0.432832 0)
(12.0752 -0.273542 0)
(12.0621 -0.246147 0)
(12.256 -0.139799 0)
(12.3144 -0.129903 0)
(12.5097 -0.109948 0)
(12.6308 -0.136106 0)
(12.8122 -0.1718 0)
(12.9445 -0.244887 0)
(13.1921 -0.328939 0)
(13.2271 -0.418038 0)
(13.5738 -0.557694 0)
(13.5501 -0.655371 0)
(13.9292 -0.833258 0)
(13.8114 -0.904412 0)
(14.3065 -1.14297 0)
(14.0079 -1.17681 0)
(14.5893 -1.4313 0)
(14.1452 -1.4705 0)
(14.7544 -1.69869 0)
(14.2001 -1.77401 0)
(14.6989 -1.92549 0)
(14.1843 -2.06416 0)
(14.4511 -2.14528 0)
(13.968 -2.28102 0)
(14.119 -2.37325 0)
(13.5269 -2.43257 0)
(13.6813 -2.55567 0)
(13.023 -2.60063 0)
(13.1466 -2.68811 0)
(12.5631 -2.78215 0)
(12.7131 -2.86161 0)
(12.2123 -2.95008 0)
(12.4413 -3.04913 0)
(12.231 -3.21812 0)
(12.1856 -3.12513 0)
(12.2798 -3.23062 0)
(12.2135 -3.16946 0)
(12.3575 -2.98402 0)
(12.2227 -2.88301 0)
(12.2887 -2.3931 0)
(12.4621 -2.35658 0)
(12.1716 -1.80152 0)
(12.3388 -1.30298 0)
(12.0213 -0.945329 0)
(12.2158 -0.451593 0)
(11.6946 0.089602 0)
(11.7961 0.561832 0)
(11.2478 0.954647 0)
(11.2291 1.44523 0)
(10.5619 1.82627 0)
(10.401 1.98262 0)
(9.97305 2.47943 0)
(9.36438 2.36994 0)
(9.18132 2.84202 0)
(8.14156 2.41878 0)
(8.68935 2.6897 0)
(7.15453 2.62659 0)
(8.13967 3.05348 0)
(6.94446 2.86053 0)
(7.76621 2.60276 0)
(7.57626 3.02773 0)
(7.05908 2.27415 0)
(8.50421 3.42936 0)
(6.61407 2.75056 0)
(8.51205 3.85698 0)
(7.20937 4.03784 0)
(8.11443 4.568 0)
(9.44631 5.03995 0)
(7.40976 6.71215 0)
(12.1988 4.7254 0)
(8.38717 9.81948 0)
(12.7709 4.80518 0)
(11.1457 11.2046 0)
(11.8419 -0.0362173 0)
(11.8525 -0.0340314 0)
(11.7226 0.00931429 0)
(11.7581 -0.0351709 0)
(11.6491 -0.0412119 0)
(11.7751 -0.0729263 0)
(11.6999 -0.107899 0)
(11.7812 -0.107452 0)
(11.7527 -0.136855 0)
(11.7834 -0.13131 0)
(11.7937 -0.100116 0)
(11.8248 -0.113408 0)
(11.8119 -0.0590072 0)
(11.8516 -0.079313 0)
(11.8061 -0.0781905 0)
(11.8114 -0.075534 0)
(11.8067 -0.118474 0)
(11.7527 -0.0975056 0)
(11.8326 -0.123502 0)
(11.7648 -0.108778 0)
(11.854 -0.0857445 0)
(11.831 -0.0855779 0)
(11.8401 -0.0458095 0)
(11.8448 -0.0418677 0)
(11.8047 -0.0398619 0)
(11.7863 -0.0103728 0)
(11.7714 -0.033645 0)
(11.7322 -0.000237672 0)
(11.7514 0.00152192 0)
(11.7504 0.00708209 0)
(11.7548 0.0420159 0)
(11.8139 0.0221429 0)
(11.8003 0.0445191 0)
(11.8566 0.0320668 0)
(11.8648 0.0100923 0)
(11.878 0.00908255 0)
(11.9054 -0.0259367 0)
(11.9075 -0.0379576 0)
(11.9012 -0.0467292 0)
(11.9337 -0.0825026 0)
(11.8882 -0.0701732 0)
(11.9252 -0.0970355 0)
(11.8907 -0.108711 0)
(11.9 -0.101974 0)
(11.8939 -0.132278 0)
(11.8987 -0.124083 0)
(11.8861 -0.123952 0)
(11.9149 -0.148813 0)
(11.8802 -0.112903 0)
(11.9163 -0.141597 0)
(11.8813 -0.119982 0)
(11.8972 -0.115395 0)
(11.8759 -0.121573 0)
(11.8724 -0.0984319 0)
(11.8599 -0.100101 0)
(11.8518 -0.0831646 0)
(11.8481 -0.069612 0)
(11.8305 -0.0542552 0)
(11.8469 -0.0442103 0)
(11.8192 -0.0189591 0)
(11.8258 -0.0100615 0)
(11.8258 0.00287747 0)
(11.7836 0.0314095 0)
(11.8423 0.0169351 0)
(11.7456 0.0604764 0)
(11.8375 0.0321643 0)
(11.7492 0.0627177 0)
(11.8069 0.0592831 0)
(11.7773 0.0534227 0)
(11.7793 0.0721276 0)
(11.8012 0.0644538 0)
(11.7745 0.0724466 0)
(11.8091 0.0838806 0)
(11.7943 0.0811096 0)
(11.8011 0.0834391 0)
(11.826 0.088986 0)
(11.7959 0.0801754 0)
(11.8311 0.0767655 0)
(11.8044 0.0823663 0)
(11.8068 0.0554109 0)
(11.8051 0.0781924 0)
(11.7969 0.0440072 0)
(11.7623 0.0730478 0)
(11.8227 0.0286145 0)
(11.7163 0.0724482 0)
(11.8211 0.0195239 0)
(11.7624 0.0455684 0)
(11.7579 0.0332639 0)
(11.8809 -0.0172047 0)
(11.7346 0.0344401 0)
(11.9523 -0.0724234 0)
(11.852 -0.0419222 0)
(11.9302 -0.0790363 0)
(12.0413 -0.168823 0)
(11.9893 -0.125744 0)
(12.1361 -0.238963 0)
(12.2167 -0.286241 0)
(12.2214 -0.277043 0)
(12.4375 -0.443942 0)
(12.4694 -0.431411 0)
(12.5923 -0.528714 0)
(12.7709 -0.668463 0)
(12.8495 -0.680534 0)
(12.9491 -0.843979 0)
(13.1844 -0.958341 0)
(13.0978 -1.01666 0)
(13.3693 -1.21585 0)
(13.2864 -1.26706 0)
(13.3784 -1.39932 0)
(13.3739 -1.48954 0)
(13.3164 -1.5466 0)
(13.2432 -1.61064 0)
(13.2242 -1.63163 0)
(12.9777 -1.62948 0)
(13.0093 -1.63235 0)
(12.7386 -1.58291 0)
(12.6497 -1.51919 0)
(12.5266 -1.46318 0)
(12.3105 -1.32427 0)
(12.2468 -1.24652 0)
(12.095 -1.11838 0)
(11.9906 -0.976308 0)
(11.9341 -0.87222 0)
(11.9043 -0.741741 0)
(11.8166 -0.610659 0)
(11.9216 -0.542222 0)
(11.853 -0.413999 0)
(12.0028 -0.372396 0)
(12.0014 -0.280425 0)
(12.2143 -0.266398 0)
(12.2015 -0.225417 0)
(12.4832 -0.226615 0)
(12.4971 -0.279488 0)
(12.7519 -0.285081 0)
(12.8184 -0.392311 0)
(13.0658 -0.476321 0)
(13.1023 -0.549499 0)
(13.3848 -0.718762 0)
(13.3986 -0.788961 0)