/*--------------------------------*- C++ -*----------------------------------*\
| =========                 |                                                 |
| \\      /  F ield         | OpenFOAM: The Open Source CFD Toolbox           |
|  \\    /   O peration     | Version:  2.4.0                                 |
|   \\  /    A nd           | Web:      www.OpenFOAM.org                      |
|    \\/     M anipulation  |                                                 |
\*---------------------------------------------------------------------------*/
FoamFile
{
    version     2.0;
    format      ascii;
    class       volVectorField;
    location    "4";
    object      U;
}
// * * * * * * * * * * * * * * * * * * * * * * * * * * * * * * * * * * * * * //

dimensions      [0 1 -1 0 0 0 0];

internalField   nonuniform List<vector> 
4400
(
(0.0911347 -0.00022291 0)
(0.0990267 -0.00101695 0)
(0.101999 -0.000232054 0)
(0.104374 -6.92364e-05 0)
(0.10854 -0.000161323 0)
(0.117763 -0.000643009 0)
(0.135635 -0.00145915 0)
(0.164321 -0.00170947 0)
(0.194365 -0.00128484 0)
(0.224663 -0.000678788 0)
(0.242152 -0.000548944 0)
(0.260137 0.000375187 0)
(0.262917 -0.00104085 0)
(0.271258 0.00145505 0)
(0.275557 -0.00204325 0)
(0.259911 0.00147081 0)
(0.310038 -0.00126786 0)
(0.220426 0.000834669 0)
(0.335223 -0.00479626 0)
(0.367313 0.020765 0)
(0.272792 0.000464804 0)
(0.272502 -0.000924163 0)
(0.275335 -0.000910811 0)
(0.278895 -0.00126333 0)
(0.283383 -0.00261805 0)
(0.296062 -0.00511879 0)
(0.318382 -0.00911114 0)
(0.361746 -0.0111153 0)
(0.400991 -0.0114868 0)
(0.467911 -0.00857714 0)
(0.488533 -0.00706478 0)
(0.555262 -0.00331766 0)
(0.540059 -0.00249839 0)
(0.590219 -0.00159676 0)
(0.575296 0.00135014 0)
(0.574289 -0.00414345 0)
(0.621749 0.00334125 0)
(0.542975 -0.00145992 0)
(0.637711 -0.008461 0)
(0.644708 0.0408025 0)
(0.436553 0.000586739 0)
(0.431807 -0.000342232 0)
(0.435059 -0.00141047 0)
(0.440846 -0.00146935 0)
(0.440018 -0.00310032 0)
(0.440264 -0.0073741 0)
(0.444849 -0.0153867 0)
(0.469953 -0.0192432 0)
(0.491015 -0.023668 0)
(0.5538 -0.0177566 0)
(0.567517 -0.0194466 0)
(0.64744 -0.00805119 0)
(0.628127 -0.0104579 0)
(0.699978 -0.0025135 0)
(0.663779 -0.00267698 0)
(0.708713 -0.00302012 0)
(0.689603 -0.000318607 0)
(0.694477 0.000770248 0)
(0.722964 -0.00779288 0)
(0.683512 0.034202 0)
(0.578749 0.000515594 0)
(0.573531 0.000472199 0)
(0.573346 -0.00213448 0)
(0.580683 -0.00213628 0)
(0.582566 -0.00202471 0)
(0.580041 -0.00560235 0)
(0.575162 -0.0156569 0)
(0.58049 -0.0212986 0)
(0.581512 -0.029159 0)
(0.616412 -0.0239442 0)
(0.620853 -0.0271022 0)
(0.675779 -0.0140076 0)
(0.671363 -0.0156453 0)
(0.71169 -0.00493332 0)
(0.710503 -0.00609195 0)
(0.719606 -0.00159402 0)
(0.727064 -0.00311081 0)
(0.724173 0.000478793 0)
(0.735149 -0.00131099 0)
(0.732248 0.0162484 0)
(0.698883 0.000148943 0)
(0.695922 0.00133557 0)
(0.693328 -0.0019611 0)
(0.698577 -0.00301074 0)
(0.701625 -0.00205744 0)
(0.699396 -0.00425263 0)
(0.692456 -0.0146025 0)
(0.686056 -0.0203034 0)
(0.675651 -0.0304179 0)
(0.683022 -0.0257181 0)
(0.677612 -0.0308087 0)
(0.703625 -0.0179426 0)
(0.698131 -0.017783 0)
(0.723712 -0.00883313 0)
(0.718541 -0.00594345 0)
(0.729851 -0.00341446 0)
(0.732532 -0.0034035 0)
(0.72444 0.000740389 0)
(0.750197 -0.00120602 0)
(0.72964 0.00415969 0)
(0.79813 -0.000201229 0)
(0.797191 0.00172518 0)
(0.79444 -0.00139834 0)
(0.797436 -0.003442 0)
(0.799361 -0.00225171 0)
(0.797 -0.00324033 0)
(0.789168 -0.0126525 0)
(0.776889 -0.0177223 0)
(0.758429 -0.028313 0)
(0.747322 -0.024137 0)
(0.731155 -0.0312278 0)
(0.733423 -0.0173658 0)
(0.724439 -0.0205319 0)
(0.731736 -0.00734192 0)
(0.729262 -0.00922478 0)
(0.731936 -0.00246545 0)
(0.732878 -0.00367169 0)
(0.733434 -0.00363437 0)
(0.73918 0.00243628 0)
(0.743822 -0.00486243 0)
(0.877411 -0.000385457 0)
(0.877402 0.00164846 0)
(0.875312 -0.000843172 0)
(0.877145 -0.00324868 0)
(0.877609 -0.00219674 0)
(0.874414 -0.00234087 0)
(0.865514 -0.0104906 0)
(0.849887 -0.014298 0)
(0.826123 -0.0240895 0)
(0.802683 -0.0206729 0)
(0.777267 -0.0273589 0)
(0.7619 -0.0166282 0)
(0.746945 -0.017654 0)
(0.741271 -0.00850119 0)
(0.737175 -0.00766438 0)
(0.733078 -0.00238155 0)
(0.73738 -0.00530655 0)
(0.729456 -0.00160086 0)
(0.743173 0.000833945 0)
(0.744574 -0.0125419 0)
(0.936954 -0.000406406 0)
(0.937186 0.00129329 0)
(0.935703 -0.000430569 0)
(0.937057 -0.00258481 0)
(0.936444 -0.00190368 0)
(0.932488 -0.00147664 0)
(0.922265 -0.00805148 0)
(0.904734 -0.0101593 0)
(0.877176 -0.0187454 0)
(0.846171 -0.0149242 0)
(0.813207 -0.0223075 0)
(0.785936 -0.0120478 0)
(0.764746 -0.0153103 0)
(0.750125 -0.00617887 0)
(0.742739 -0.00653478 0)
(0.736406 -0.00346289 0)
(0.736406 -0.00167239 0)
(0.733323 -0.00531704 0)
(0.739648 0.000699408 0)
(0.742017 -0.013086 0)
(0.976714 -0.000296409 0)
(0.976926 0.000820347 0)
(0.975816 -0.000206422 0)
(0.976974 -0.00160379 0)
(0.975679 -0.00139257 0)
(0.971322 -0.000623568 0)
(0.959902 -0.00533439 0)
(0.941352 -0.00568051 0)
(0.911225 -0.0123404 0)
(0.875938 -0.00847535 0)
(0.837709 -0.0149484 0)
(0.803195 -0.00704676 0)
(0.776945 -0.010329 0)
(0.756882 -0.00386505 0)
(0.746605 -0.00495747 0)
(0.738246 -0.00175306 0)
(0.737349 -0.00292005 0)
(0.733093 -0.00514702 0)
(0.738377 0.000891964 0)
(0.744179 -0.0177904 0)
(0.996609 -0.000113688 0)
(0.996783 0.000307879 0)
(0.995816 -0.000122258 0)
(0.996941 -0.000421314 0)
(0.995244 -0.000738364 0)
(0.990831 0.000235931 0)
(0.978618 -0.00250406 0)
(0.959732 -0.000877338 0)
(0.928201 -0.00560132 0)
(0.89103 -0.00113727 0)
(0.850154 -0.00703564 0)
(0.812037 -0.000725562 0)
(0.783332 -0.00493668 0)
(0.760268 -0.000971282 0)
(0.748708 -0.00190609 0)
(0.739164 -0.0022295 0)
(0.737193 -0.000812728 0)
(0.734027 -0.00556746 0)
(0.736726 -0.00157264 0)
(0.740461 -0.0164388 0)
(0.996594 9.16093e-05 0)
(0.996811 -0.000213792 0)
(0.99577 -7.51378e-05 0)
(0.997012 0.00082276 0)
(0.995144 -2.07537e-05 0)
(0.990962 0.00106438 0)
(0.978464 0.000411984 0)
(0.959891 0.00396933 0)
(0.92806 0.00135497 0)
(0.891104 0.00633255 0)
(0.850133 0.00127357 0)
(0.811969 0.00581496 0)
(0.783306 0.000731547 0)
(0.760276 0.00243564 0)
(0.748364 0.000222031 0)
(0.73936 -0.000903342 0)
(0.736593 -0.000282613 0)
(0.73382 -0.00609323 0)
(0.735544 -0.00157448 0)
(0.738955 -0.0178858 0)
(0.976672 0.000274244 0)
(0.977009 -0.000729977 0)
(0.975684 2.27806e-05 0)
(0.977176 0.0019928 0)
(0.975389 0.000659814 0)
(0.971695 0.00187621 0)
(0.959465 0.00328996 0)
(0.941796 0.00872213 0)
(0.910853 0.00815066 0)
(0.876084 0.0136085 0)
(0.837761 0.00926181 0)
(0.802826 0.0120611 0)
(0.777097 0.0061931 0)
(0.756581 0.00540137 0)
(0.746042 0.00275938 0)
(0.738363 -0.000287548 0)
(0.735483 0.000371646 0)
(0.73366 -0.00558343 0)
(0.733871 -0.00332725 0)
(0.736457 -0.0167836 0)
(0.936891 0.000383339 0)
(0.93731 -0.00120491 0)
(0.935503 0.0002493 0)
(0.937365 0.00295458 0)
(0.935997 0.00120355 0)
(0.933062 0.00268786 0)
(0.921599 0.0060482 0)
(0.905387 0.0131915 0)
(0.876685 0.0145011 0)
(0.846222 0.0202183 0)
(0.813532 0.0163389 0)
(0.785067 0.0174596 0)
(0.765168 0.0107184 0)
(0.749526 0.00800876 0)
(0.7418 0.00457101 0)
(0.736421 0.000440638 0)
(0.734019 0.000875293 0)
(0.732918 -0.0055524 0)
(0.732603 -0.0038381 0)
(0.733998 -0.0163315 0)
(0.877335 0.000361286 0)
(0.877549 -0.00156503 0)
(0.875071 0.000672868 0)
(0.877519 0.00359112 0)
(0.877067 0.00154986 0)
(0.875103 0.00347381 0)
(0.86474 0.0085956 0)
(0.850561 0.0171833 0)
(0.825808 0.02006 0)
(0.802184 0.0256448 0)
(0.778478 0.0219042 0)
(0.759741 0.0213502 0)
(0.748438 0.0139152 0)
(0.739688 0.00966139 0)
(0.736082 0.00574725 0)
(0.733678 0.00094066 0)
(0.732225 0.000977954 0)
(0.732006 -0.00512636 0)
(0.731171 -0.00461953 0)
(0.731654 -0.0154759 0)
(0.798054 0.000179716 0)
(0.797338 -0.00164938 0)
(0.794194 0.00124655 0)
(0.797819 0.00374361 0)
(0.798812 0.00168111 0)
(0.797666 0.0042672 0)
(0.788505 0.010898 0)
(0.77722 0.0204675 0)
(0.758884 0.0243587 0)
(0.745377 0.0292484 0)
(0.734443 0.0252661 0)
(0.728613 0.0231588 0)
(0.728309 0.0152801 0)
(0.727961 0.0101502 0)
(0.729404 0.0060291 0)
(0.73035 0.00106165 0)
(0.730209 0.000882673 0)
(0.730783 -0.00484847 0)
(0.729686 -0.00503062 0)
(0.729293 -0.0144889 0)
(0.698812 -0.000169082 0)
(0.696051 -0.00126806 0)
(0.693107 0.00182993 0)
(0.698918 0.00327078 0)
(0.701154 0.00156319 0)
(0.699902 0.00516639 0)
(0.692141 0.0130231 0)
(0.685624 0.0228033 0)
(0.677585 0.026825 0)
(0.678542 0.0302837 0)
(0.684461 0.025742 0)
(0.694338 0.0223509 0)
(0.706627 0.0145015 0)
(0.715316 0.00926368 0)
(0.722151 0.00533889 0)
(0.726244 0.000792811 0)
(0.72758 0.000493434 0)
(0.728636 -0.00454234 0)
(0.727269 -0.00522017 0)
(0.72598 -0.0133826 0)
(0.57869 -0.000534011 0)
(0.573628 -0.000423248 0)
(0.573178 0.0020319 0)
(0.580923 0.00233498 0)
(0.582298 0.00164513 0)
(0.58012 0.00630106 0)
(0.575739 0.0144474 0)
(0.57831 0.0232352 0)
(0.586502 0.0263202 0)
(0.607404 0.0277136 0)
(0.633521 0.0226082 0)
(0.660459 0.0185524 0)
(0.68472 0.011487 0)
(0.701162 0.00700459 0)
(0.712467 0.00376953 0)
(0.718273 0.000160462 0)
(0.720896 -7.87624e-05 0)
(0.721393 -0.00419508 0)
(0.719453 -0.0051248 0)
(0.716426 -0.0118926 0)
(0.436507 -0.000601072 0)
(0.431873 0.00037594 0)
(0.434943 0.00133838 0)
(0.440997 0.00160459 0)
(0.439908 0.00284064 0)
(0.440037 0.00784749 0)
(0.446042 0.0145565 0)
(0.466646 0.0206119 0)
(0.497912 0.0215655 0)
(0.541904 0.0207138 0)
(0.585141 0.0156828 0)
(0.624497 0.0120047 0)
(0.654103 0.00678807 0)
(0.672986 0.00382719 0)
(0.685241 0.00175151 0)
(0.689446 -0.000551236 0)
(0.692379 -0.000623937 0)
(0.690166 -0.0035917 0)
(0.686641 -0.00457102 0)
(0.67932 -0.00971096 0)
(0.272757 -0.000474199 0)
(0.272542 0.000947157 0)
(0.275261 0.000870962 0)
(0.278991 0.00133379 0)
(0.283323 0.00249698 0)
(0.295852 0.00530982 0)
(0.319328 0.00882008 0)
(0.35925 0.0115313 0)
(0.406042 0.0109168 0)
(0.459183 0.00932569 0)
(0.501703 0.00611891 0)
(0.537653 0.00415438 0)
(0.559323 0.00184986 0)
(0.572114 0.000767396 0)
(0.579607 0.000153276 0)
(0.579129 -0.000869861 0)
(0.580355 -0.000827069 0)
(0.573791 -0.00252025 0)
(0.567159 -0.00337147 0)
(0.552589 -0.00652721 0)
(0.091111 0.000219982 0)
(0.0990434 0.0010243 0)
(0.101962 0.000219672 0)
(0.104429 9.10686e-05 0)
(0.108466 0.000128617 0)
(0.117804 0.000682518 0)
(0.135676 0.00141376 0)
(0.164102 0.00175475 0)
(0.194749 0.00123084 0)
(0.223808 0.000776488 0)
(0.243213 0.000270293 0)
(0.257712 0.000155715 0)
(0.264183 -7.39002e-05 0)
(0.267796 -0.000129597 0)
(0.268498 -0.000170852 0)
(0.26628 -0.000467754 0)
(0.264479 -0.000575563 0)
(0.257589 -0.00123065 0)
(0.249429 -0.00174592 0)
(0.233028 -0.0029823 0)
(-0.205102 0.144798 0)
(0.738745 -0.220985 0)
(0.688382 -0.305942 0)
(0.537244 -0.271169 0)
(0.449963 -0.212404 0)
(0.412333 -0.156 0)
(0.387617 -0.109035 0)
(0.371242 -0.0757364 0)
(0.36185 -0.0522013 0)
(0.356364 -0.0352373 0)
(0.353167 -0.0233363 0)
(0.351424 -0.0152393 0)
(0.350514 -0.00984514 0)
(0.350036 -0.00630937 0)
(0.349783 -0.00401953 0)
(0.349647 -0.00254855 0)
(0.349573 -0.00160898 0)
(0.349531 -0.00101176 0)
(0.349508 -0.000633666 0)
(0.349494 -0.000395265 0)
(0.349487 -0.000245653 0)
(0.349482 -0.000152015 0)
(0.349479 -9.36698e-05 0)
(0.349477 -5.75186e-05 0)
(0.349476 -3.51444e-05 0)
(0.349475 -2.13869e-05 0)
(0.349475 -1.29626e-05 0)
(0.349475 -7.81325e-06 0)
(0.349475 -4.69139e-06 0)
(0.349475 -2.8077e-06 0)
(0.349475 -1.662e-06 0)
(0.349474 -9.8086e-07 0)
(0.349474 -5.87291e-07 0)
(0.349475 -3.40559e-07 0)
(0.349475 -2.01169e-07 0)
(0.349474 -1.15034e-07 0)
(0.349475 -6.25401e-08 0)
(0.349475 -4.47433e-08 0)
(0.349474 -2.14856e-08 0)
(0.349474 -1.76198e-08 0)
(0.349475 -3.59491e-09 0)
(0.349475 1.31245e-09 0)
(0.349474 2.06618e-09 0)
(0.349474 -7.22399e-10 0)
(0.349475 2.24157e-09 0)
(0.349475 -3.98921e-09 0)
(0.349475 7.7685e-09 0)
(0.349475 -3.24265e-09 0)
(0.349475 -8.48675e-13 0)
(0.349475 4.90758e-09 0)
(0.349475 -1.04544e-08 0)
(0.349474 1.42699e-08 0)
(0.349475 -8.14724e-09 0)
(0.349475 9.73999e-09 0)
(0.349475 -1.19145e-09 0)
(0.349475 -2.43453e-09 0)
(0.349475 4.54993e-09 0)
(0.349475 -7.36706e-09 0)
(0.349475 1.06915e-08 0)
(0.349475 -6.03084e-09 0)
(0.349474 -3.13703e-09 0)
(0.349474 1.25854e-08 0)
(0.349475 -1.27279e-08 0)
(0.349475 3.40988e-09 0)
(0.349474 9.23736e-09 0)
(0.349474 -1.68367e-08 0)
(0.349474 8.66453e-09 0)
(0.349474 8.13956e-09 0)
(0.349475 -1.65991e-08 0)
(0.349475 4.85001e-09 0)
(0.349475 8.27415e-09 0)
(0.349474 -1.34588e-08 0)
(0.349474 -1.28478e-09 0)
(0.349475 1.11772e-08 0)
(0.349475 -6.73667e-09 0)
(0.349475 -9.55806e-09 0)
(0.349475 1.04352e-08 0)
(0.349474 5.88717e-09 0)
(0.349474 -1.26671e-08 0)
(0.349474 -4.49539e-09 0)
(0.349474 1.21346e-08 0)
(0.349474 3.11186e-09 0)
(0.349475 -1.2826e-08 0)
(0.349475 -8.00547e-09 0)
(0.349475 8.27358e-09 0)
(0.349475 9.61423e-09 0)
(0.349475 -8.51358e-10 0)
(0.349475 -8.97034e-09 0)
(0.349474 -1.69145e-09 0)
(0.349475 7.75833e-09 0)
(0.349474 1.14019e-08 0)
(0.349476 9.06082e-09 0)
(0.349471 -4.19819e-09 0)
(0.349482 9.78478e-10 0)
(0.349462 -1.23038e-08 0)
(0.349494 6.15548e-09 0)
(0.34945 -3.18618e-09 0)
(0.349496 -1.14537e-08 0)
(0.349466 1.52773e-08 0)
(0.349475 -1.10624e-08 0)
(0.444663 0.107585 0)
(0.85183 -0.223517 0)
(0.713909 -0.291869 0)
(0.549653 -0.25302 0)
(0.463739 -0.198671 0)
(0.424754 -0.14822 0)
(0.396132 -0.104656 0)
(0.376917 -0.0729288 0)
(0.365916 -0.0504497 0)
(0.359256 -0.0342074 0)
(0.355134 -0.0227524 0)
(0.352724 -0.0149173 0)
(0.351361 -0.0096698 0)
(0.350583 -0.00621345 0)
(0.350133 -0.00396633 0)
(0.34987 -0.00251857 0)
(0.349714 -0.00159177 0)
(0.349621 -0.0010017 0)
(0.349564 -0.000627718 0)
(0.349529 -0.000391728 0)
(0.349508 -0.000243512 0)
(0.349495 -0.000150707 0)
(0.349487 -9.28864e-05 0)
(0.349482 -5.70388e-05 0)
(0.349479 -3.48386e-05 0)
(0.349477 -2.12035e-05 0)
(0.349476 -1.28594e-05 0)
(0.349476 -7.73709e-06 0)
(0.349475 -4.65755e-06 0)
(0.349475 -2.79514e-06 0)
(0.349475 -1.63502e-06 0)
(0.349475 -9.69518e-07 0)
(0.349475 -5.89895e-07 0)
(0.349475 -3.42783e-07 0)
(0.349475 -1.91848e-07 0)
(0.349474 -1.12649e-07 0)
(0.349475 -6.96125e-08 0)
(0.349475 -3.61387e-08 0)
(0.349474 -1.64045e-08 0)
(0.349474 -2.59204e-08 0)
(0.349475 -7.62223e-09 0)
(0.349475 7.56139e-09 0)
(0.349474 6.97273e-09 0)
(0.349474 -8.14159e-09 0)
(0.349475 -8.49311e-09 0)
(0.349475 3.26602e-09 0)
(0.349474 1.2802e-08 0)
(0.349475 -4.90108e-09 0)
(0.349474 -6.78975e-10 0)
(0.349475 4.18212e-09 0)
(0.349474 -4.61296e-09 0)
(0.349475 7.95425e-09 0)
(0.349475 -1.42444e-08 0)
(0.349475 7.12373e-09 0)
(0.349475 9.56553e-09 0)
(0.349474 -1.3815e-09 0)
(0.349475 3.74592e-10 0)
(0.349475 -4.33601e-09 0)
(0.349475 8.15778e-09 0)
(0.349475 2.15133e-09 0)
(0.349474 1.78545e-09 0)
(0.349474 2.78765e-09 0)
(0.349475 -1.16648e-08 0)
(0.349474 6.20564e-09 0)
(0.349475 9.26769e-09 0)
(0.349474 -1.00328e-08 0)
(0.349474 3.36644e-09 0)
(0.349475 -9.83457e-10 0)
(0.349475 -1.53932e-08 0)
(0.349475 4.35277e-09 0)
(0.349475 1.0728e-08 0)
(0.349474 -4.59022e-09 0)
(0.349474 -2.5124e-09 0)
(0.349475 -1.00555e-09 0)
(0.349475 -1.10323e-08 0)
(0.349475 -4.9123e-09 0)
(0.349475 1.34102e-08 0)
(0.349475 1.11557e-08 0)
(0.349474 -1.77392e-09 0)
(0.349474 -2.13258e-09 0)
(0.349474 2.11087e-09 0)
(0.349475 -4.24885e-09 0)
(0.349475 -1.25964e-08 0)
(0.349475 -6.59893e-09 0)
(0.349475 6.43301e-09 0)
(0.349475 7.39577e-09 0)
(0.349475 -1.66495e-11 0)
(0.349475 -5.1708e-09 0)
(0.349474 1.38762e-09 0)
(0.349475 1.09081e-08 0)
(0.349474 9.99342e-09 0)
(0.349476 9.97612e-09 0)
(0.349471 -1.45692e-08 0)
(0.349482 9.44058e-09 0)
(0.349462 -2.84877e-08 0)
(0.349494 2.1348e-08 0)
(0.34945 1.51806e-09 0)
(0.349496 -2.8854e-08 0)
(0.349466 4.09915e-08 0)
(0.349475 -4.19567e-08 0)
(0.794556 0.0783267 0)
(0.869275 -0.221185 0)
(0.720167 -0.27572 0)
(0.564454 -0.23564 0)
(0.475999 -0.184673 0)
(0.435952 -0.139262 0)
(0.405163 -0.0994021 0)
(0.3829 -0.0696554 0)
(0.369891 -0.0484246 0)
(0.362004 -0.0329846 0)
(0.35701 -0.0220243 0)
(0.353975 -0.0144918 0)
(0.352182 -0.00942398 0)
(0.351116 -0.00607104 0)
(0.350476 -0.00388297 0)
(0.350088 -0.00246919 0)
(0.349853 -0.00156219 0)
(0.349708 -0.000983795 0)
(0.349619 -0.000616826 0)
(0.349564 -0.000385093 0)
(0.34953 -0.00023942 0)
(0.349509 -0.00014819 0)
(0.349495 -9.13577e-05 0)
(0.349487 -5.60939e-05 0)
(0.349482 -3.42535e-05 0)
(0.349479 -2.08473e-05 0)
(0.349477 -1.26478e-05 0)
(0.349476 -7.60183e-06 0)
(0.349476 -4.58142e-06 0)
(0.349475 -2.7545e-06 0)
(0.349475 -1.60104e-06 0)
(0.349475 -9.4737e-07 0)
(0.349475 -5.84526e-07 0)
(0.349475 -3.46003e-07 0)
(0.349475 -1.81288e-07 0)
(0.349475 -1.06553e-07 0)
(0.349475 -7.64125e-08 0)
(0.349475 -2.81833e-08 0)
(0.349474 -1.03268e-08 0)
(0.349475 -3.22134e-08 0)
(0.349475 -1.16424e-08 0)
(0.349475 1.37359e-08 0)
(0.349474 1.19515e-08 0)
(0.349475 -1.51966e-08 0)
(0.349475 -1.97521e-08 0)
(0.349475 1.25463e-08 0)
(0.349474 1.72716e-08 0)
(0.349475 -6.72614e-09 0)
(0.349474 -1.70165e-09 0)
(0.349475 3.594e-09 0)
(0.349474 8.56726e-10 0)
(0.349475 2.15917e-09 0)
(0.349475 -1.88957e-08 0)
(0.349475 3.21062e-09 0)
(0.349475 2.14473e-08 0)
(0.349474 -2.23146e-09 0)
(0.349475 -4.39054e-09 0)
(0.349475 3.03592e-10 0)
(0.349475 3.7633e-09 0)
(0.349475 1.06088e-08 0)
(0.349474 5.54554e-09 0)
(0.349475 -8.105e-09 0)
(0.349475 -9.2958e-09 0)
(0.349474 8.00943e-09 0)
(0.349475 8.25688e-09 0)
(0.349474 -2.17446e-09 0)
(0.349474 -1.96834e-09 0)
(0.349475 -9.32811e-09 0)
(0.349475 -1.26624e-08 0)
(0.349475 2.11372e-09 0)
(0.349475 1.13652e-08 0)
(0.349475 5.03134e-09 0)
(0.349474 -4.34697e-09 0)
(0.349475 -1.32959e-08 0)
(0.349475 -1.45422e-08 0)
(0.349475 -4.24143e-10 0)
(0.349475 1.43469e-08 0)
(0.349475 1.6269e-08 0)
(0.349474 1.02686e-08 0)
(0.349474 6.523e-10 0)
(0.349474 -8.14436e-09 0)
(0.349475 -1.20937e-08 0)
(0.349475 -1.15259e-08 0)
(0.349475 -4.82544e-09 0)
(0.349475 3.49624e-09 0)
(0.349475 5.07942e-09 0)
(0.349475 1.56562e-09 0)
(0.349475 -7.64398e-10 0)
(0.349474 3.83711e-09 0)
(0.349475 1.38742e-08 0)
(0.349474 7.99977e-09 0)
(0.349476 1.12809e-08 0)
(0.349471 -2.42683e-08 0)
(0.349482 1.97017e-08 0)
(0.349462 -4.40067e-08 0)
(0.349494 3.65597e-08 0)
(0.34945 5.01792e-09 0)
(0.349496 -4.71007e-08 0)
(0.349466 6.75428e-08 0)
(0.349475 -7.26136e-08 0)
(0.825371 0.0410128 0)
(0.853723 -0.185533 0)
(0.733945 -0.244861 0)
(0.579241 -0.216566 0)
(0.484132 -0.171177 0)
(0.442185 -0.130452 0)
(0.411696 -0.0938426 0)
(0.388215 -0.0659732 0)
(0.373684 -0.0460896 0)
(0.364648 -0.0315618 0)
(0.358811 -0.0211604 0)
(0.355178 -0.0139704 0)
(0.352974 -0.00911197 0)
(0.351632 -0.00588434 0)
(0.350808 -0.00377055 0)
(0.350301 -0.002401 0)
(0.349988 -0.00152056 0)
(0.349794 -0.000958242 0)
(0.349673 -0.000601097 0)
(0.349598 -0.000375396 0)
(0.349551 -0.000233422 0)
(0.349522 -0.000144493 0)
(0.349504 -8.90854e-05 0)
(0.349492 -5.46963e-05 0)
(0.349485 -3.33941e-05 0)
(0.349481 -2.03206e-05 0)
(0.349479 -1.23311e-05 0)
(0.349477 -7.4095e-06 0)
(0.349476 -4.46208e-06 0)
(0.349475 -2.68487e-06 0)
(0.349475 -1.55896e-06 0)
(0.349475 -9.23902e-07 0)
(0.349475 -5.74762e-07 0)
(0.349475 -3.38148e-07 0)
(0.349475 -1.75868e-07 0)
(0.349475 -1.03463e-07 0)
(0.349475 -7.5926e-08 0)
(0.349475 -2.70686e-08 0)
(0.349475 -1.09446e-08 0)
(0.349475 -3.2638e-08 0)
(0.349474 -9.87558e-09 0)
(0.349474 1.33499e-08 0)
(0.349475 9.47943e-09 0)
(0.349475 -1.54144e-08 0)
(0.349475 -2.10541e-08 0)
(0.349475 1.41683e-08 0)
(0.349474 1.64609e-08 0)
(0.349475 -7.19153e-09 0)
(0.349474 -5.8399e-11 0)
(0.349475 2.3647e-09 0)
(0.349474 7.17895e-10 0)
(0.349475 1.84489e-09 0)
(0.349475 -1.78491e-08 0)
(0.349475 1.61423e-09 0)
(0.349475 2.35814e-08 0)
(0.349474 -3.32987e-09 0)
(0.349475 -5.59255e-09 0)
(0.349475 3.87516e-09 0)
(0.349474 1.63473e-09 0)
(0.349475 1.10701e-08 0)
(0.349474 8.10507e-09 0)
(0.349475 -9.81084e-09 0)
(0.349475 -7.64505e-09 0)
(0.349474 8.15552e-09 0)
(0.349475 6.79728e-09 0)
(0.349475 -5.41053e-10 0)
(0.349474 -3.04557e-09 0)
(0.349475 -1.10441e-08 0)
(0.349475 -1.15135e-08 0)
(0.349475 1.54119e-09 0)
(0.349475 1.05465e-08 0)
(0.349475 7.0744e-09 0)
(0.349474 -4.9295e-09 0)
(0.349475 -1.57296e-08 0)
(0.349475 -1.35578e-08 0)
(0.349475 1.96902e-09 0)
(0.349475 1.39919e-08 0)
(0.349475 1.56033e-08 0)
(0.349475 1.15665e-08 0)
(0.349474 1.16188e-09 0)
(0.349474 -1.01838e-08 0)
(0.349475 -1.32547e-08 0)
(0.349475 -1.03627e-08 0)
(0.349475 -4.20601e-09 0)
(0.349475 2.44349e-09 0)
(0.349475 3.76535e-09 0)
(0.349475 1.21751e-09 0)
(0.349475 9.9663e-10 0)
(0.349474 5.28128e-09 0)
(0.349475 1.47757e-08 0)
(0.349474 5.02884e-09 0)
(0.349476 1.28964e-08 0)
(0.349471 -3.27894e-08 0)
(0.349482 3.22012e-08 0)
(0.349462 -5.854e-08 0)
(0.349494 5.34324e-08 0)
(0.34945 5.47799e-09 0)
(0.349496 -6.87204e-08 0)
(0.349466 9.30055e-08 0)
(0.349475 -1.04321e-07 0)
(0.81403 0.0254639 0)
(0.826819 -0.162119 0)
(0.707498 -0.229067 0)
(0.571589 -0.201841 0)
(0.487441 -0.157612 0)
(0.447528 -0.121182 0)
(0.417044 -0.0880415 0)
(0.39264 -0.0619874 0)
(0.376997 -0.0434372 0)
(0.367053 -0.0299089 0)
(0.360494 -0.020147 0)
(0.356317 -0.0133505 0)
(0.353731 -0.00873456 0)
(0.352127 -0.00565459 0)
(0.351129 -0.00363003 0)
(0.350507 -0.00231461 0)
(0.350119 -0.00146727 0)
(0.349877 -0.000925267 0)
(0.349725 -0.000580657 0)
(0.34963 -0.000362725 0)
(0.349571 -0.000225574 0)
(0.349534 -0.000139643 0)
(0.349511 -8.60931e-05 0)
(0.349497 -5.28564e-05 0)
(0.349488 -3.2266e-05 0)
(0.349483 -1.96275e-05 0)
(0.34948 -1.19127e-05 0)
(0.349478 -7.15692e-06 0)
(0.349476 -4.30297e-06 0)
(0.349476 -2.59111e-06 0)
(0.349475 -1.5064e-06 0)
(0.349475 -8.93426e-07 0)
(0.349475 -5.5459e-07 0)
(0.349475 -3.25024e-07 0)
(0.349475 -1.69145e-07 0)
(0.349475 -9.74003e-08 0)
(0.349475 -7.49105e-08 0)
(0.349475 -2.71058e-08 0)
(0.349475 -8.94778e-09 0)
(0.349475 -2.9732e-08 0)
(0.349474 -8.82304e-09 0)
(0.349474 1.11945e-08 0)
(0.349475 7.26307e-09 0)
(0.349475 -1.41754e-08 0)
(0.349474 -2.10524e-08 0)
(0.349475 1.44261e-08 0)
(0.349475 1.60897e-08 0)
(0.349475 -7.44778e-09 0)
(0.349475 8.36919e-10 0)
(0.349475 1.74621e-09 0)
(0.349475 1.974e-10 0)
(0.349475 2.08594e-09 0)
(0.349475 -1.68336e-08 0)
(0.349474 -1.86488e-10 0)
(0.349475 2.38916e-08 0)
(0.349475 -3.00288e-09 0)
(0.349475 -6.30532e-09 0)
(0.349475 6.3692e-09 0)
(0.349474 9.22707e-11 0)
(0.349475 1.00204e-08 0)
(0.349475 1.00618e-08 0)
(0.349475 -1.02196e-08 0)
(0.349475 -7.07821e-09 0)
(0.349474 8.06972e-09 0)
(0.349475 5.98053e-09 0)
(0.349475 6.06556e-10 0)
(0.349475 -2.47538e-09 0)
(0.349475 -1.15779e-08 0)
(0.349475 -1.13199e-08 0)
(0.349475 8.86952e-10 0)
(0.349475 9.46721e-09 0)
(0.349475 7.962e-09 0)
(0.349475 -3.98318e-09 0)
(0.349475 -1.64692e-08 0)
(0.349475 -1.29742e-08 0)
(0.349474 2.65601e-09 0)
(0.349474 1.3378e-08 0)
(0.349475 1.50014e-08 0)
(0.349475 1.23022e-08 0)
(0.349475 2.46155e-09 0)
(0.349475 -1.00608e-08 0)
(0.349475 -1.37968e-08 0)
(0.349475 -1.01987e-08 0)
(0.349475 -4.07376e-09 0)
(0.349475 1.63138e-09 0)
(0.349475 2.89371e-09 0)
(0.349474 1.00168e-09 0)
(0.349475 2.09231e-09 0)
(0.349474 6.20854e-09 0)
(0.349475 1.57444e-08 0)
(0.349474 2.8917e-09 0)
(0.349476 1.57836e-08 0)
(0.349471 -4.05413e-08 0)
(0.349482 4.48365e-08 0)
(0.349462 -7.47262e-08 0)
(0.349494 6.98515e-08 0)
(0.34945 4.94903e-09 0)
(0.349496 -9.11476e-08 0)
(0.349466 1.21668e-07 0)
(0.349475 -1.36008e-07 0)
(0.793294 0.005557 0)
(0.798505 -0.134124 0)
(0.729022 -0.201815 0)
(0.609212 -0.187471 0)
(0.515547 -0.147875 0)
(0.463848 -0.114097 0)
(0.42687 -0.0834536 0)
(0.398702 -0.0586085 0)
(0.380764 -0.0409313 0)
(0.369501 -0.0282115 0)
(0.362122 -0.0190503 0)
(0.3574 -0.0126555 0)
(0.354448 -0.00830047 0)
(0.352598 -0.00538534 0)
(0.351434 -0.00346308 0)
(0.350703 -0.00221092 0)
(0.350244 -0.00140279 0)
(0.349956 -0.000885145 0)
(0.349775 -0.000555683 0)
(0.349662 -0.000347196 0)
(0.349591 -0.000215935 0)
(0.349546 -0.000133677 0)
(0.349519 -8.24066e-05 0)
(0.349502 -5.05865e-05 0)
(0.349491 -3.08774e-05 0)
(0.349485 -1.87733e-05 0)
(0.349481 -1.13934e-05 0)
(0.349478 -6.84513e-06 0)
(0.349477 -4.10855e-06 0)
(0.349476 -2.47346e-06 0)
(0.349475 -1.44059e-06 0)
(0.349475 -8.55183e-07 0)
(0.349475 -5.28858e-07 0)
(0.349475 -3.07495e-07 0)
(0.349475 -1.59496e-07 0)
(0.349475 -9.21364e-08 0)
(0.349475 -7.24239e-08 0)
(0.349475 -2.58631e-08 0)
(0.349475 -6.82324e-09 0)
(0.349474 -2.70978e-08 0)
(0.349474 -8.04343e-09 0)
(0.349474 8.08437e-09 0)
(0.349475 3.61874e-09 0)
(0.349475 -1.2715e-08 0)
(0.349474 -1.89851e-08 0)
(0.349475 1.4844e-08 0)
(0.349475 1.51132e-08 0)
(0.349475 -8.08189e-09 0)
(0.349475 2.0196e-09 0)
(0.349475 1.66018e-09 0)
(0.349475 -1.50606e-09 0)
(0.349475 2.98241e-09 0)
(0.349475 -1.46645e-08 0)
(0.349474 -7.57803e-10 0)
(0.349475 2.33816e-08 0)
(0.349475 -3.77816e-09 0)
(0.349475 -6.67181e-09 0)
(0.349475 8.58842e-09 0)
(0.349474 -5.29913e-11 0)
(0.349475 8.08511e-09 0)
(0.349475 1.00544e-08 0)
(0.349475 -9.31561e-09 0)
(0.349475 -6.6385e-09 0)
(0.349475 7.77729e-09 0)
(0.349475 5.36065e-09 0)
(0.349475 -1.72225e-10 0)
(0.349475 -2.77053e-09 0)
(0.349475 -1.06954e-08 0)
(0.349474 -1.068e-08 0)
(0.349475 6.19446e-10 0)
(0.349475 8.91495e-09 0)
(0.349475 6.93962e-09 0)
(0.349475 -4.8182e-09 0)
(0.349475 -1.55347e-08 0)
(0.349475 -1.13762e-08 0)
(0.349474 3.68463e-09 0)
(0.349474 1.32648e-08 0)
(0.349475 1.37863e-08 0)
(0.349475 1.06964e-08 0)
(0.349475 2.05842e-09 0)
(0.349475 -9.43624e-09 0)
(0.349475 -1.33975e-08 0)
(0.349475 -1.012e-08 0)
(0.349475 -3.89413e-09 0)
(0.349474 1.65551e-09 0)
(0.349475 2.89767e-09 0)
(0.349474 8.9713e-10 0)
(0.349475 2.50153e-09 0)
(0.349474 6.3818e-09 0)
(0.349475 1.61798e-08 0)
(0.349474 1.8447e-10 0)
(0.349476 1.8752e-08 0)
(0.349471 -4.86846e-08 0)
(0.349482 5.92499e-08 0)
(0.349462 -9.1716e-08 0)
(0.349494 8.78852e-08 0)
(0.34945 3.5114e-09 0)
(0.349496 -1.15133e-07 0)
(0.349466 1.52911e-07 0)
(0.349475 -1.68818e-07 0)
(0.76976 -0.00268228 0)
(0.79199 -0.115279 0)
(0.708149 -0.183966 0)
(0.579396 -0.169181 0)
(0.492386 -0.128711 0)
(0.452394 -0.0989966 0)
(0.423897 -0.0740502 0)
(0.399639 -0.053009 0)
(0.382771 -0.0375117 0)
(0.371406 -0.0261281 0)
(0.363577 -0.0177724 0)
(0.358411 -0.0118616 0)
(0.355124 -0.00780588 0)
(0.353043 -0.0050772 0)
(0.351724 -0.00327079 0)
(0.35089 -0.00209075 0)
(0.350364 -0.00132768 0)
(0.350032 -0.000838211 0)
(0.349823 -0.000526382 0)
(0.349692 -0.000328935 0)
(0.349609 -0.000204583 0)
(0.349558 -0.000126645 0)
(0.349526 -7.80547e-05 0)
(0.349506 -4.79046e-05 0)
(0.349494 -2.92382e-05 0)
(0.349486 -1.77647e-05 0)
(0.349482 -1.07782e-05 0)
(0.349479 -6.47695e-06 0)
(0.349477 -3.87909e-06 0)
(0.349476 -2.33349e-06 0)
(0.349475 -1.36396e-06 0)
(0.349475 -8.10853e-07 0)
(0.349475 -4.978e-07 0)
(0.349475 -2.85903e-07 0)
(0.349475 -1.49316e-07 0)
(0.349475 -8.70505e-08 0)
(0.349475 -6.88161e-08 0)
(0.349475 -2.42734e-08 0)
(0.349475 -4.19e-09 0)
(0.349474 -2.4102e-08 0)
(0.349474 -8.41054e-09 0)
(0.349474 4.38463e-09 0)
(0.349475 7.93392e-10 0)
(0.349475 -1.036e-08 0)
(0.349474 -1.66065e-08 0)
(0.349475 1.43859e-08 0)
(0.349475 1.43491e-08 0)
(0.349475 -8.57235e-09 0)
(0.349475 2.86257e-09 0)
(0.349475 1.67367e-09 0)
(0.349474 -2.66051e-09 0)
(0.349475 3.68439e-09 0)
(0.349475 -1.2785e-08 0)
(0.349474 -2.10984e-09 0)
(0.349475 2.21255e-08 0)
(0.349475 -3.7196e-09 0)
(0.349475 -6.98157e-09 0)
(0.349475 1.02762e-08 0)
(0.349474 -4.34076e-10 0)
(0.349475 5.71424e-09 0)
(0.349475 1.07518e-08 0)
(0.349475 -7.77435e-09 0)
(0.349475 -6.53626e-09 0)
(0.349475 7.42748e-09 0)
(0.349475 4.91641e-09 0)
(0.349475 -2.62284e-10 0)
(0.349475 -2.1833e-09 0)
(0.349475 -9.74032e-09 0)
(0.349474 -1.03668e-08 0)
(0.349475 1.24158e-10 0)
(0.349475 7.95406e-09 0)
(0.349475 6.39676e-09 0)
(0.349475 -4.43613e-09 0)
(0.349475 -1.45126e-08 0)
(0.349475 -1.02509e-08 0)
(0.349474 4.12277e-09 0)
(0.349474 1.25329e-08 0)
(0.349475 1.23392e-08 0)
(0.349475 9.58955e-09 0)
(0.349475 2.63216e-09 0)
(0.349475 -7.9818e-09 0)
(0.349475 -1.29298e-08 0)
(0.349475 -9.93469e-09 0)
(0.349475 -3.46137e-09 0)
(0.349474 1.66328e-09 0)
(0.349475 2.35181e-09 0)
(0.349474 3.40613e-10 0)
(0.349475 2.89874e-09 0)
(0.349474 6.44284e-09 0)
(0.349475 1.64265e-08 0)
(0.349474 -2.63225e-09 0)
(0.349476 2.23235e-08 0)
(0.349471 -5.67018e-08 0)
(0.349482 7.44348e-08 0)
(0.349462 -1.10563e-07 0)
(0.349494 1.07814e-07 0)
(0.34945 9.42843e-10 0)
(0.349496 -1.40373e-07 0)
(0.349466 1.87754e-07 0)
(0.349475 -2.02746e-07 0)
(0.766987 -0.0154374 0)
(0.764562 -0.09981 0)
(0.708355 -0.161396 0)
(0.616604 -0.158696 0)
(0.533545 -0.126118 0)
(0.480082 -0.0973014 0)
(0.438878 -0.071859 0)
(0.406782 -0.0504119 0)
(0.386217 -0.0350736 0)
(0.373408 -0.0242681 0)
(0.364918 -0.0164929 0)
(0.359331 -0.0110191 0)
(0.355746 -0.00726508 0)
(0.353456 -0.00473488 0)
(0.351994 -0.00305519 0)
(0.351065 -0.00195518 0)
(0.350476 -0.00124256 0)
(0.350103 -0.000784849 0)
(0.349868 -0.000492992 0)
(0.34972 -0.00030809 0)
(0.349627 -0.000191609 0)
(0.349569 -0.000118601 0)
(0.349533 -7.3073e-05 0)
(0.34951 -4.48319e-05 0)
(0.349496 -2.73605e-05 0)
(0.349488 -1.66109e-05 0)
(0.349483 -1.00724e-05 0)
(0.349479 -6.05354e-06 0)
(0.349477 -3.61678e-06 0)
(0.349476 -2.1747e-06 0)
(0.349476 -1.27708e-06 0)
(0.349475 -7.59177e-07 0)
(0.349475 -4.611e-07 0)
(0.349475 -2.618e-07 0)
(0.349475 -1.38446e-07 0)
(0.349475 -8.15026e-08 0)
(0.349475 -6.44014e-08 0)
(0.349475 -2.16552e-08 0)
(0.349475 -9.44363e-10 0)
(0.349474 -2.15131e-08 0)
(0.349474 -9.63999e-09 0)
(0.349475 7.14983e-10 0)
(0.349475 -1.79563e-09 0)
(0.349475 -8.09523e-09 0)
(0.349474 -1.40711e-08 0)
(0.349475 1.41111e-08 0)
(0.349475 1.36695e-08 0)
(0.349475 -8.94351e-09 0)
(0.349475 3.38272e-09 0)
(0.349475 1.92683e-09 0)
(0.349474 -4.018e-09 0)
(0.349475 4.15736e-09 0)
(0.349475 -1.07551e-08 0)
(0.349474 -2.94741e-09 0)
(0.349475 2.10377e-08 0)
(0.349475 -3.40743e-09 0)
(0.349475 -7.07579e-09 0)
(0.349475 1.13667e-08 0)
(0.349474 -4.53521e-10 0)
(0.349475 3.87156e-09 0)
(0.349475 1.09748e-08 0)
(0.349475 -6.72722e-09 0)
(0.349475 -6.59367e-09 0)
(0.349475 7.02707e-09 0)
(0.349475 4.70837e-09 0)
(0.349475 -5.61249e-10 0)
(0.349475 -2.10612e-09 0)
(0.349475 -9.02077e-09 0)
(0.349475 -9.90426e-09 0)
(0.349475 1.08052e-11 0)
(0.349475 7.49994e-09 0)