/*--------------------------------*- C++ -*----------------------------------*\
| =========                 |                                                 |
| \\      /  F ield         | OpenFOAM: The Open Source CFD Toolbox           |
|  \\    /   O peration     | Version:  2.4.0                                 |
|   \\  /    A nd           | Web:      www.OpenFOAM.org                      |
|    \\/     M anipulation  |                                                 |
\*---------------------------------------------------------------------------*/
FoamFile
{
    version     2.0;
    format      ascii;
    class       volScalarField;
    location    "1.43";
    object      k;
}
// * * * * * * * * * * * * * * * * * * * * * * * * * * * * * * * * * * * * * //

dimensions      [0 2 -2 0 0 0 0];

internalField   nonuniform List<scalar> 
8800
(
8.10112
10.278
8.76359
6.86693
5.64374
5.06143
4.40914
4.27503
3.77871
3.79723
3.47341
3.44014
3.42356
2.95355
3.76032
2.50985
4.15797
2.5887
3.56641
3.04953
1.39087
4.36374
5.30213
5.29668
5.08215
4.90715
4.45838
4.38822
4.00611
3.97994
3.71851
3.6202
3.63038
3.18954
3.80728
2.86399
4.32325
3.06665
4.433
3.75199
0.0836152
0.741155
1.54962
1.95798
2.2348
2.4915
2.52849
2.63295
2.59707
2.61716
2.58255
2.51339
2.6127
2.33524
2.8119
2.23984
3.14511
2.49454
3.31001
2.89025
0.00331571
0.0705181
0.252981
0.43309
0.55791
0.730473
0.817338
0.938964
1.02532
1.08419
1.18778
1.18065
1.34465
1.23586
1.5407
1.35416
1.4297
1.49886
1.43675
1.31537
0.00012256
0.00501917
0.0229022
0.0587462
0.0809452
0.122657
0.168155
0.197159
0.262665
0.280441
0.337159
0.351053
0.434392
0.442512
0.470684
0.609458
0.525768
0.7411
0.65038
0.631524
2.43077e-05
0.000307383
0.00179212
0.0052332
0.00823857
0.0111972
0.0235205
0.0278027
0.0507285
0.0567375
0.0902704
0.110694
0.136485
0.252566
0.245678
0.390712
0.433046
0.587579
0.530338
0.512973
2.18546e-05
5.1789e-05
0.000210562
0.000515857
0.000677332
0.000827423
0.00194106
0.00213742
0.00670694
0.00802749
0.0340155
0.0418501
0.169456
0.240441
0.375421
0.47136
0.447086
0.479297
0.435721
0.485334
3.5654e-05
0.000106683
0.000137175
0.000339648
0.000349555
0.000455492
0.000567544
0.000701096
0.00122478
0.00139875
0.0042809
0.00502959
0.0711204
0.0591058
0.417527
0.429166
0.31756
0.380855
0.360305
0.42449
2.06786e-05
3.48542e-05
7.134e-05
0.000194455
0.000225202
0.000312198
0.000384177
0.000524842
0.00093524
0.00151258
0.00362797
0.00388635
0.00676298
0.00804656
0.0845609
0.139035
0.151324
0.303278
0.347967
0.420881
2.09082e-05
5.66556e-05
5.68032e-05
6.1968e-05
8.03734e-05
0.000122435
0.000203608
0.000395169
0.000827972
0.00190862
0.00704141
0.00961671
0.0270183
0.0272731
0.028581
0.0429981
0.106527
0.421504
0.388035
0.532252
2.15158e-05
3.05542e-05
4.48213e-05
8.21904e-05
8.57152e-05
0.000100178
0.000116382
0.000165565
0.000301473
0.000764109
0.00220204
0.00654909
0.0305211
0.0380113
0.152476
0.123311
0.133171
0.448152
0.536318
1.06318
2.04752e-05
3.04578e-05
6.29308e-05
6.32347e-05
7.16546e-05
7.58612e-05
7.91497e-05
8.78765e-05
0.000112481
0.000168031
0.000321407
0.0012508
0.00531789
0.019434
0.0999244
0.123979
0.299926
0.275079
0.303114
0.930868
2.09627e-05
3.19018e-05
4.718e-05
6.13206e-05
0.000114155
0.000121605
0.000180888
0.000183004
0.000313667
0.000294761
0.000689948
0.000662696
0.0012442
0.00280194
0.00729337
0.0229654
0.0617466
0.113549
0.116027
0.26039
2.16077e-05
4.30097e-05
0.000222548
0.000309402
0.000667891
0.000777629
0.00161859
0.00186058
0.00365797
0.00360088
0.00708152
0.00652228
0.0121184
0.0110235
0.0174816
0.0187101
0.0217214
0.0384554
0.0520089
0.0961337
2.49578e-05
0.00029866
0.00256479
0.00399139
0.00897876
0.0112956
0.0206489
0.0245475
0.0390468
0.0401779
0.0617626
0.060826
0.0869121
0.0839212
0.109617
0.1113
0.118692
0.158231
0.158063
0.168385
0.000124061
0.00483272
0.0309706
0.0483831
0.0949695
0.115917
0.172886
0.196317
0.258406
0.270454
0.342963
0.343884
0.415746
0.416255
0.471958
0.49007
0.513802
0.603943
0.604812
0.643646
0.0033769
0.0689149
0.27717
0.391055
0.608725
0.686034
0.848176
0.916039
1.03805
1.0748
1.18483
1.19869
1.28431
1.29051
1.34726
1.3659
1.3905
1.46402
1.46273
1.497
0.0845434
0.725559
1.5748
1.92788
2.29239
2.42566
2.57126
2.61177
2.60689
2.61169
2.56572
2.5658
2.50816
2.4992
2.45945
2.42756
2.41817
2.3774
2.36226
2.3327
1.40186
4.35651
5.3115
5.29197
5.10913
4.84072
4.52733
4.34468
4.03013
3.9759
3.65635
3.68292
3.42547
3.46135
3.27845
3.23929
3.20068
3.02414
3.02534
2.95276
8.10434
10.2755
8.76721
6.84948
5.66371
5.00832
4.47213
4.19829
3.82463
3.76881
3.40973
3.49401
3.16159
3.26544
3.00132
3.00281
2.92043
2.72307
2.71109
2.55847
2.14543
1.22175
0.753559
0.468675
0.455622
0.418762
0.477754
0.491319
0.588272
0.606052
0.688457
0.691698
0.745073
0.725013
0.756204
0.724455
0.744525
0.703036
0.709534
0.650824
0.64001
0.563897
0.554635
0.495619
0.500339
0.457403
0.474234
0.439305
0.466926
0.436805
0.473797
0.446147
0.491343
0.462966
0.512847
0.480812
0.532015
0.494462
0.545358
0.50103
0.547555
0.496507
0.536541
0.480728
0.51666
0.457604
0.491688
0.428462
0.462069
0.395305
0.43206
0.363164
0.405663
0.335128
0.382583
0.312875
0.36649
0.301562
0.361887
0.30376
0.367573
0.317112
0.37713
0.337733
0.386241
0.359258
0.390965
0.379437
0.395778
0.395737
0.401468
0.404538
0.40676
0.407948
0.407187
0.402016
0.400066
0.391613
0.392926
0.384386
0.390388
0.379073
0.38955
0.374353
0.38813
0.367859
0.380212
0.352726
0.357631
0.316849
0.311882
0.264096
0.26411
0.237347
0.253481
0.23968
0.261647
0.255392
0.271911
0.265859
0.274286
0.269049
0.26969
0.26133
0.235576
0.191924
0.176544
0.164754
0.168407
0.168609
0.179277
0.177835
0.18792
0.182157
0.194594
0.181841
0.196785
0.184675
0.220772
0.261509
0.48708
0.476486
0.533738
0.364753
0.36091
0.245342
0.266093
0.201926
0.221212
0.190104
0.194634
0.19394
0.183787
0.193031
0.182957
0.188672
0.180357
0.180343
0.172432
0.169588
0.159607
0.158022
0.151877
0.15515
0.155622
0.164783
0.166785
0.176345
0.175864
0.180428
0.176724
0.178386
0.172079
0.171768
0.164621
0.163289
0.154222
0.151085
0.139148
0.133663
0.118355
0.11157
0.0952766
0.0886304
0.0732845
0.0680002
0.0555618
0.051837
0.0426869
0.0380366
0.0327642
0.0298303
0.0279784
0.0267747
0.0270433
0.0266631
0.0279262
0.0281215
0.0289544
0.0289164
0.0294529
0.0267811
0.0242471
0.0222505
0.0221508
0.0247264
0.0354264
0.0666473
0.169904
0.25404
0.278333
0.269655
0.239168
0.146233
0.0970033
0.0611539
0.0644749
0.0645105
0.105169
0.46911
2.8574
2.28398
2.04494
1.48492
1.35422
1.08883
1.0732
0.970727
0.988244
0.928189
0.951052
0.88857
0.894536
0.830521
0.840606
0.791152
0.815449
0.778986
0.811166
0.77179
0.798571
0.747237
0.766235
0.705349
0.722001
0.659508
0.682284
0.624717
0.656171
0.603751
0.64251
0.593899
0.638118
0.592059
0.639401
0.594473
0.642458
0.597916
0.644779
0.600574
0.644932
0.600858
0.641847
0.598087
0.636429
0.593177
0.629948
0.586825
0.622001
0.578488
0.611543
0.567142
0.597153
0.550659
0.574741
0.527653
0.543628
0.50241
0.511315
0.482554
0.48482
0.473223
0.466891
0.468973
0.459555
0.471363
0.4571
0.471064
0.454272
0.46435
0.447105
0.452601
0.434148
0.435675
0.416831
0.416328
0.397019
0.395225
0.377044
0.375592
0.362703
0.363167
0.356939
0.359772
0.359574
0.362492
0.3698
0.371282
0.373867
0.363882
0.355059
0.320589
0.302472
0.258279
0.250598
0.236075
0.236506
0.237921
0.241192
0.243968
0.240882
0.237146
0.222275
0.204756
0.177181
0.1681
0.162741
0.16553
0.169462
0.183836
0.18558
0.186461
0.186086
0.183498
0.186128
0.179336
0.183085
0.169809
0.175626
0.172998
0.255455
0.322225
0.480045
0.461349
0.46873
0.412334
0.325992
0.274635
0.236583
0.229753
0.209843
0.213813
0.201517
0.203498
0.196817
0.196229
0.190703
0.189574
0.185391
0.186171
0.186372
0.192965
0.195542
0.204466
0.202535
0.206982
0.201298
0.202915
0.195845
0.195655
0.186942
0.184768
0.17381
0.170265
0.156949
0.152325
0.138124
0.132646
0.117706
0.111717
0.0970517
0.0915547
0.0782388
0.0730003
0.060297
0.0554091
0.0448839
0.0411164
0.0327943
0.029863
0.0243172
0.0225504
0.0215532
0.0214815
0.0215955
0.0220825
0.0235285
0.0245518
0.0280141
0.0287987
0.0308421
0.0326838
0.0331934
0.0285413
0.0250101
0.0226957
0.0247361
0.0317202
0.0593195
0.148361
0.240389
0.256368
0.253705
0.225248
0.168793
0.0954927
0.0750462
0.0710835
0.0775368
0.171895
2.50856
2.14365
2.0488
1.76966
1.68583
1.45264
1.41042
1.25832
1.23015
1.11231
1.08248
0.956727
0.918437
0.792487
0.756852
0.655947
0.661776
0.639489
0.682656
0.678709
0.733057
0.717763
0.756479
0.718834
0.740858
0.693552
0.710565
0.663621
0.681269
0.638364
0.656952
0.618312
0.636197
0.601157
0.616458
0.585054
0.596766
0.569192
0.57737
0.553794
0.559285
0.540339
0.544392
0.53066
0.534373
0.525888
0.529976
0.526463
0.530496
0.531592
0.533157
0.540145
0.540285
0.546913
0.541578
0.550739
0.537438
0.548455
0.52778
0.539914
0.514624
0.526963
0.499885
0.511644
0.484664
0.494783
0.468682
0.475851
0.450256
0.452937
0.427047
0.425845
0.39736
0.392451
0.360137
0.353162
0.319951
0.31261
0.281212
0.275109
0.248475
0.246835
0.234025
0.240024
0.235816
0.248572
0.251636
0.276032
0.286342
0.323412
0.330771
0.349
0.341418
0.338257
0.310079
0.295885
0.257204
0.249754
0.230421
0.227516
0.213
0.208237
0.191465
0.185811
0.179047
0.185841
0.187313
0.199999
0.196413
0.200876
0.191698
0.193089
0.179745
0.174933
0.15008
0.142109
0.130647
0.138573
0.141133
0.148726
0.155308
0.182837
0.241645
0.393511
0.420263
0.468669
0.424252
0.426702
0.363754
0.348919
0.30714
0.295768
0.271994
0.26385
0.253588
0.251288
0.246085
0.247105
0.245482
0.247629
0.243078
0.243749
0.234827
0.233008
0.220888
0.217638
0.204572
0.200147
0.185908
0.180556
0.165783
0.160522
0.146372
0.141617
0.129455
0.12509
0.113685
0.109481
0.098611
0.0941599
0.0832008
0.0781652
0.0659344
0.0597067
0.0457647
0.0392525
0.0294211
0.0255113
0.0199981
0.0183631
0.0169895
0.0172469
0.0173603
0.0180549
0.018422
0.0187115
0.0197122
0.0204632
0.0224993
0.0237938
0.0273245
0.0293773
0.0369455
0.0365608
0.0354157
0.0268275
0.0255947
0.025453
0.0314288
0.0524531
0.132875
0.210299
0.239583
0.232412
0.217737
0.171307
0.10947
0.0842895
0.0756404
0.0919872
1.29169
1.28936
1.31558
1.30325
1.2842
1.20643
1.1649
1.06708
1.01549
0.901451
0.82603
0.710959
0.617293
0.503876
0.423199
0.355301
0.323015
0.30542
0.307574
0.317415
0.366324
0.406708
0.491749
0.524399
0.560524
0.561369
0.564533
0.559781
0.543888
0.530933
0.505183
0.493645
0.467376
0.458164
0.433096
0.425776
0.400996
0.394751
0.369297
0.364168
0.340893
0.33805
0.317986
0.319029
0.305597
0.311338
0.301762
0.312373
0.306858
0.322708
0.320341
0.341682
0.340808
0.367341
0.365905
0.395141
0.390965
0.419909
0.410873
0.436059
0.421282
0.440547
0.420995
0.434091
0.410843
0.417648
0.391237
0.392344
0.364777
0.361197
0.329538
0.322368
0.288444
0.279153
0.244946
0.234721
0.202602
0.192987
0.165348
0.157746
0.135911
0.131248
0.116203
0.117245
0.113377
0.119935
0.120585
0.133319
0.139049
0.167635
0.182002
0.232379
0.249303
0.296089
0.29388
0.30463
0.290979
0.290603
0.271229
0.266749
0.246902
0.242775
0.227463
0.226998
0.219268
0.221286
0.213155
0.21405
0.203604
0.200498
0.179662
0.168121
0.131233
0.118245
0.0881027
0.0840155
0.0720572
0.0779239
0.0781683
0.0965087
0.104072
0.133916
0.150601
0.230806
0.275796
0.391487
0.400262
0.420464
0.410587
0.407815
0.393902
0.385839
0.366103
0.359233
0.340159
0.335291
0.319343
0.314723
0.297305
0.291953
0.273831
0.267105
0.246683
0.238567
0.217695
0.209576
0.190657
0.183445
0.167832
0.161738
0.148735
0.143302
0.132107
0.127256
0.116656
0.11166
0.100704
0.0950195
0.0833528
0.0756498
0.0621806
0.0524688
0.0398009
0.0302463
0.0224608
0.01946
0.0164618
0.0157762
0.014483
0.0145002
0.0145003
0.01529
0.015803
0.0169833
0.0173801
0.0182534
0.018537
0.0192087
0.0205181
0.0208883
0.0221246
0.0229876
0.0282722
0.034504
0.0396285
0.0384626
0.0338696
0.0273483
0.0277909
0.030935
0.0461948
0.103352
0.178115
0.213508
0.212087
0.201709
0.178856
0.123191
0.0875142
0.0857542
0.609275
0.615285
0.619085
0.63338
0.626792
0.626535
0.604145
0.588127
0.541677
0.514235
0.457259
0.418165
0.35757
0.318978
0.276547
0.259864
0.236146
0.227486
0.206139
0.200058
0.193197
0.198191
0.204056
0.233862
0.248212
0.290352
0.297141
0.312915
0.303702
0.308162
0.292538
0.290623
0.265556
0.258214
0.230295
0.223899
0.200558
0.195842
0.177059
0.173646
0.158233
0.155949
0.143036
0.142053
0.133859
0.135284
0.12985
0.133556
0.130585
0.137194
0.136264
0.146047
0.146418
0.160033
0.161297
0.178015
0.178935
0.195199
0.19459
0.209674
0.206972
0.219142
0.212917
0.220516
0.21021
0.212681
0.199735
0.198515
0.183198
0.178971
0.160754
0.154402
0.135039
0.128069
0.110019
0.103741
0.0890534
0.0841254
0.0732049
0.0698447
0.0620792
0.0601998
0.0547965
0.0543407
0.0528647
0.0547441
0.0550411
0.0596762
0.062106
0.0725324
0.0781852
0.0975232
0.108146
0.144203
0.162585
0.208831
0.220151
0.245277
0.243124
0.24525
0.238417
0.235735
0.22596
0.222149
0.210491
0.204124
0.187099
0.176171
0.150106
0.133705
0.0982815
0.0783661
0.0561839
0.0489956
0.037871
0.0359157
0.0334082
0.0359742
0.0370542
0.0455837
0.0519317
0.0725547
0.0848571
0.119516
0.144544
0.201697
0.268737
0.337226
0.362144
0.380641
0.378297
0.378213
0.367998
0.364215
0.348321
0.342723
0.324814
0.316951
0.294983
0.284408
0.257637
0.244398
0.216084
0.203101
0.180242
0.169796
0.153835
0.146054
0.134321
0.126948
0.118629
0.109221
0.101934
0.0923174
0.0835644
0.0727894
0.063268
0.0520812
0.0424197
0.0334585
0.0269824
0.0220918
0.0183355
0.0158409
0.0142206
0.0136869
0.0131295
0.0131599
0.013056
0.0134617
0.0136849
0.014881
0.0153862
0.0168572
0.0171586
0.0180886
0.0183701
0.0195734
0.0199695
0.0209509
0.021285
0.0219892
0.0227921
0.0256564
0.0305479
0.0375261
0.0394245
0.0386696
0.0336814
0.0326237
0.0341906
0.047458
0.0707705
0.14815
0.184371
0.193138
0.187233
0.172636
0.145391
0.103076
0.490486
0.480281
0.466207
0.463478
0.45592
0.454393
0.44676
0.440172
0.415818
0.388718
0.354433
0.32328
0.287952
0.264954
0.248664
0.24688
0.238485
0.231824
0.206033
0.190784
0.151486
0.138387
0.128176
0.130677
0.131592
0.141182
0.143245
0.149018
0.14637
0.148319
0.143902
0.143561
0.135722
0.131585
0.118351
0.112861
0.0995005
0.0948136
0.0840765
0.0808065
0.0729209
0.0708304
0.0649965
0.0636583
0.0592098
0.0587352
0.0569342
0.0577617
0.0570799
0.0590366
0.0590748
0.0622815
0.0630311
0.0681265
0.0694593
0.0757845
0.0772523
0.0836223
0.0846328
0.0893954
0.0891132
0.0919002
0.0903157
0.0913586
0.0884576
0.0881
0.0835923
0.081729
0.0752612
0.0723095
0.0649213
0.0615411
0.0542165
0.0510157
0.0448151
0.0418651
0.0376792
0.0350493
0.0326173
0.0305876
0.0289095
0.0281545
0.0263065
0.0258679
0.025194
0.0256181
0.0257983
0.027472
0.0286261
0.0327409
0.0352094
0.0424576
0.0468293
0.0588383
0.0659161
0.0839135
0.0925573
0.113233
0.123804
0.138442
0.14315
0.142898
0.139958
0.133931
0.123103
0.110899
0.0945252
0.0784215
0.0638223
0.0513198
0.0401912
0.0321937
0.0264192
0.0228289
0.0198559
0.0184916
0.0182326
0.0185465
0.0192898
0.0213829
0.0243469
0.032527
0.0401749
0.0568647
0.0715683
0.095926
0.123272
0.170403
0.203177
0.251625
0.269436
0.292209
0.293479
0.293712
0.286256
0.278622
0.257989
0.245411
0.216944
0.200936
0.172251
0.157787
0.136012
0.124327
0.108418
0.0988591
0.0876527
0.0787882
0.0709932
0.062949
0.0568444
0.050185
0.0453226
0.0394125
0.0348966
0.0295608
0.0258983
0.0218087
0.0193895
0.0168096
0.0153612
0.0138297
0.0130085
0.0123397
0.0122354
0.012277
0.0123608
0.0126975
0.0127268
0.0133979
0.01368
0.0149409
0.0154315
0.0168584
0.0169863
0.0178907
0.0181956
0.0198047
0.0199399
0.0210226
0.0211927
0.0226946
0.0232013
0.0256029
0.0267085
0.0324738
0.0347113
0.0400543
0.040337
0.0403459
0.0391208
0.0414958
0.0464503
0.0725568
0.103645
0.158776
0.17189
0.170941
0.165216
0.146861
0.470587
0.464159
0.444294
0.439657
0.420182
0.405294
0.374183
0.355621
0.339045
0.31753
0.292161
0.268781
0.259295
0.261708
0.270234
0.271489
0.258477
0.238508
0.1976
0.165591
0.13188
0.105848
0.0866057
0.0777336
0.0746114
0.0754105
0.0792825
0.0859052
0.0886192
0.090184
0.089469
0.0873669
0.07927
0.0738648
0.061759
0.0564969
0.0465394
0.0429421
0.0363303
0.0342475
0.0300617
0.0289174
0.026179
0.0255102
0.023516
0.023287
0.0225243
0.0228824
0.0225651
0.0233902
0.0233564
0.0245723
0.0249235
0.0269193
0.0276899
0.0302872
0.0312303
0.0338945
0.034605
0.0365347
0.0365627
0.0370717
0.0365804
0.0365823
0.0356154
0.035096
0.0332219
0.0321864
0.0296914
0.0282921
0.025699
0.0238332
0.0216759
0.0199352
0.0183844
0.0169418
0.0160686
0.0149249
0.0145704
0.0137563
0.0135335
0.0132585
0.0129829
0.0127995
0.012576
0.0126918
0.0127051
0.013084
0.0134017
0.0146419
0.0155856
0.0182879
0.0201028
0.0246805
0.02747
0.0338107
0.037695
0.0445297
0.0489539
0.0547845
0.0578465
0.0578521
0.0569446
0.054549
0.0502509
0.0441306
0.0383603
0.0319113
0.0269012
0.0219981
0.0184512
0.015392
0.0139664
0.0127046
0.0121818
0.0117994
0.0118866
0.0121042
0.0127862
0.0136265
0.0151479
0.017953
0.0205561
0.0279635
0.0341125
0.0472837
0.0566706
0.0794032
0.0932817
0.120889
0.13449
0.151718
0.158503
0.159756
0.157388
0.153439
0.142535
0.135236
0.11938
0.110662
0.0953168
0.0866977
0.0744036
0.0672158
0.057525
0.0515171
0.0441652
0.0394066
0.034635
0.0310349
0.0277663
0.0249284
0.0224447
0.0200289
0.0180913
0.0161347
0.014892
0.0136807
0.0130797
0.0124043
0.0121927
0.0118103
0.0118081
0.0117833
0.0119654
0.0121304
0.0123597
0.0129003
0.0131844
0.0140913
0.0145926
0.015965
0.0162632
0.0168863
0.0168988
0.0172834
0.0175677
0.0189766
0.018941
0.0194778
0.0191762
0.020131
0.0204032
0.0225928
0.0235412
0.0276989
0.0289033
0.0349509
0.0366013
0.04115
0.0418257
0.0440919
0.0455114
0.0528501
0.0615656
0.0897158
0.116009
0.147521
0.153751
0.151288
0.408378
0.384606
0.36321
0.344576
0.338466
0.334005
0.33712
0.330511
0.310784
0.283846
0.271857
0.275741
0.314712
0.335793
0.332343
0.293149
0.250445
0.202694
0.1763
0.136007
0.121048
0.0928138
0.0816932
0.0669447
0.0608417
0.0562074
0.0544663
0.0539655
0.052477
0.0513292
0.0470299
0.044247
0.0369901
0.0335744
0.0266925
0.0237177
0.0191323
0.0172867
0.0144989
0.0135922
0.0118788
0.0114275
0.0104069
0.0101551
0.00943738
0.00931655
0.00899828
0.00907525
0.00893718
0.00916466
0.0091363
0.00948479
0.00959051
0.0101842
0.0104612
0.011261
0.0116097
0.0124685
0.0127531
0.0134169
0.0135271
0.013674
0.0135833
0.0135255
0.0132401
0.0130257
0.0125142
0.0120822
0.011451
0.0107942
0.0101473
0.00952101
0.00897824
0.00850656
0.00814586
0.00784423
0.00763833
0.00748467
0.00740168
0.00732382
0.00732794
0.00731848
0.00735212
0.00737564
0.00742558
0.00745026
0.00746969
0.00749602
0.00754234
0.00765282
0.00783796
0.00845317
0.00902992
0.0104676
0.0115988
0.0136304
0.0156466
0.0177943
0.0194724
0.0214639
0.0222651
0.0222129
0.0218171
0.0207949
0.0191442
0.0170975
0.0152879
0.0133249
0.0118173
0.010487
0.00969101
0.00913283
0.00900763
0.00904248
0.00925624
0.00952253
0.00989425
0.0101086
0.0103564
0.0110274
0.0114287
0.012502
0.0134049
0.015804
0.0178748
0.0233614
0.0273126
0.0365679
0.0424843
0.0547197
0.0623793
0.0708875
0.0762264
0.0786186
0.0780175
0.0765142
0.072013
0.0686419
0.0616067
0.0570212
0.0498575
0.0450934
0.0389131
0.03459
0.0296992
0.0264794
0.0231106
0.0209809
0.0188019
0.0173382
0.0157944
0.014675
0.0135892
0.0127727
0.0121444
0.0116973
0.0114682
0.011371
0.0113955
0.0114364
0.0115485
0.0116139
0.0118196
0.0120361
0.0126137
0.01303
0.0140346
0.0145811
0.0158752
0.0169981
0.0185392
0.0198819
0.0201103
0.0200624
0.0197724
0.0194584
0.0196398
0.0195653
0.0194276
0.0192367
0.0178539
0.0173007
0.0168361
0.0172142
0.0174677
0.0194676
0.0202929
0.0237067
0.0254716
0.0320483
0.0350266
0.0412705
0.0430816
0.0484039
0.0520507
0.0622926
0.0713264
0.0932359
0.107874
0.128561
0.539798
0.554881
0.574258
0.549345
0.484009
0.405128
0.365979
0.340207
0.335907
0.356197
0.422981
0.479736
0.486857
0.439768
0.349801
0.290315
0.258358
0.212773
0.170929
0.119662
0.0992035
0.0700084
0.0612409
0.0469955
0.0417975
0.0362557
0.0320542
0.0303023
0.0266957
0.0251655
0.0214754
0.0198912
0.0165082
0.0150529
0.0125635
0.0116122
0.0100682
0.00957379
0.00861579
0.00832522
0.0076466
0.00741088
0.00682752
0.00660515
0.00612452
0.0059097
0.00560668
0.00552252
0.00541313
0.00542912
0.00540585
0.00546094
0.00547101
0.00558571
0.00564416
0.00578249
0.00586385
0.00595804
0.00601071
0.00610498
0.00616565
0.00623756
0.00629583
0.00629505
0.00628472
0.00625265
0.00615347
0.00604812
0.00594768
0.00586839
0.00581932
0.00579537
0.00579588
0.00580166
0.00582249
0.0058358
0.00587491
0.00590038
0.00596067
0.00596791
0.00598321
0.00596719
0.00596437
0.00594664
0.00596543
0.00595874
0.00601269
0.00602248
0.0060685
0.00607997
0.00610555
0.00613516
0.0061923
0.00637486
0.00657124
0.00691649
0.00745554
0.00798589
0.0084152
0.00887962
0.00900792
0.0089776
0.00886214
0.00863606
0.00837751
0.00813727
0.00790069
0.0076557
0.0074958
0.00748321
0.00751258
0.00765882
0.00784143
0.00826724
0.00857059
0.00946467
0.0100398
0.0108001
0.0109344
0.0112505
0.01131
0.0116852
0.0118839
0.012491
0.0129486
0.0143358
0.0155438
0.0183672
0.0204681
0.0248755
0.0281442
0.031832
0.0339694
0.0359193
0.0358758
0.0355117
0.0341076
0.0327005
0.0300597
0.0278366
0.0249251
0.0225513
0.0201142
0.0181731
0.0164814
0.0152392
0.0141925
0.0134601
0.0127125
0.012159
0.0115305
0.0112095
0.0108654
0.0107279
0.0107023
0.0107656
0.0108527
0.011093
0.0112758
0.0117285
0.0120672
0.0128476
0.0134691
0.0148687
0.0158682
0.0177602
0.019813
0.0211476
0.0248401
0.0265946
0.0294409
0.0309439
0.0313852
0.0318762
0.0318163
0.0316046
0.0311785
0.0297084
0.0288214
0.0261485
0.0248515
0.0223002
0.0202317
0.0189056
0.0179286
0.0178058
0.0176839
0.0182084
0.0185468
0.0203016
0.0217296
0.0268112
0.0297834
0.0362993
0.0393758
0.0465226
0.0509081
0.0601121
0.069098
0.0787551
0.585845
0.58215
0.592594
0.60711
0.666532
0.682145
0.725315
0.74504
0.770699
0.780742
0.734958
0.607618
0.515979
0.459543
0.387369
0.28197
0.194996
0.142917
0.115386
0.10534
0.088595
0.0825558
0.0654128
0.0577741
0.044393
0.038967
0.0315365
0.0288377
0.0243451
0.0226942
0.0196286
0.0184934
0.0162227
0.015409
0.0137585
0.0131497
0.0117463
0.0112016
0.0100061
0.00956753
0.00863067
0.00829389
0.00762972
0.00743369
0.00701925
0.00690178
0.00663915
0.00658261
0.00643614
0.00642245
0.00635663
0.00635947
0.00630408
0.00631756
0.00627321
0.00628617
0.00625153
0.00625783
0.00622872
0.00623384
0.00620919
0.00621018
0.00618777
0.00617435
0.00613014
0.0061098
0.00607373
0.00606543
0.00607357
0.0060777
0.00610603
0.00612193
0.006196
0.00625643
0.00642904
0.0065464
0.00686699
0.0070005
0.00732109
0.00740783
0.00763087
0.00764996
0.00772907
0.00771705
0.00778716
0.00779106
0.00792558
0.00798796
0.00819161
0.00827306
0.0082796
0.00825558
0.00817745
0.00798974
0.00767666
0.00749559
0.0073666
0.00734325
0.0073107
0.00730592
0.00727968
0.00727281
0.00727157
0.00729157
0.00730324
0.00732145
0.00733961
0.00733918
0.00735133
0.00740186
0.00750918
0.00780824
0.00810781
0.00896285
0.00936906
0.0102307
0.0106401
0.0117397
0.0122622
0.0129224
0.0129609
0.0130812
0.0130117
0.0130632
0.0130881
0.0132337
0.0133599
0.0137054
0.0140599
0.0148792
0.0156309
0.0167346
0.0174388
0.0183569
0.0184683
0.0184007
0.0181188
0.0174915
0.0166462
0.0156761
0.0147495
0.0138102
0.0131565
0.0125008
0.0121457
0.0117522
0.0115776
0.0112344
0.0109499
0.0107207
0.0105232
0.0104692
0.0104466
0.010501
0.0106251
0.010919
0.0115572
0.0122612
0.0132184
0.0148537
0.0162481
0.0190022
0.0210346
0.0252714
0.0279097
0.0334138
0.0367382
0.042496
0.0484671
0.0516934
0.0558262
0.0569156
0.0569604
0.0572673
0.0569074
0.0561623
0.0540093
0.0509798
0.0470914
0.0411555
0.039221
0.0350436
0.0331662
0.0288496
0.0258736
0.0226537
0.0209534
0.0198703
0.0193057
0.0195828
0.0199399
0.0212614
0.022299
0.025232
0.0269709
0.0308346
0.0338657
0.0372257
0.0429748
0.0462786
1.13877
1.21384
1.23005
1.25046
1.15808
1.04952
0.873761
0.765104
0.641083
0.52541
0.453619
0.407155
0.373345
0.316254
0.250922
0.20805
0.171424
0.159633
0.141782
0.136909
0.122539
0.114833
0.0967217
0.088982
0.0734207
0.0671446
0.0534678
0.0480074
0.0381421
0.0346166
0.0278503
0.025422
0.0205409
0.0186342
0.0149684
0.0132531
0.0110163
0.00980229
0.00861706
0.00802161
0.0075622
0.0074354
0.00733226
0.00736292
0.00735375
0.00744236
0.00748149
0.00765231
0.00770718
0.00787045
0.00790268
0.00798092
0.00797391
0.00799657
0.00797478
0.00797029
0.00794606
0.00793385
0.00790202
0.00789119
0.00786006
0.00785446
0.00782612
0.00782593
0.00781364
0.00780802
0.00777414
0.00773778
0.00763167
0.00756947
0.00745772
0.00742856
0.00739126
0.00739971
0.007425
0.00749561
0.00773749
0.00786849
0.00823258
0.00843894
0.0088658
0.00906436
0.00941681
0.0095094
0.00970989
0.0096751
0.00971394
0.00962172
0.00961525
0.0095319
0.00952598
0.00947078
0.00949283
0.00945608
0.00945167
0.00938218
0.00932374
0.00919501
0.00915726
0.00908788
0.00906787
0.00901151
0.00893991
0.0088097
0.00865386
0.00840719
0.00830687
0.00830656
0.00835356
0.00846615
0.00868629
0.00903289
0.00925601
0.0096251
0.00977794
0.0100478
0.0101745
0.0104978
0.0108051
0.011443
0.0117066
0.0122656
0.0124871
0.0127478
0.0128439
0.012856
0.0128209
0.0128588
0.0128748
0.0129113
0.0129727
0.0132803
0.0136799
0.0140019
0.0140523
0.0140222
0.0139217
0.013648
0.0132147
0.0125856
0.0121533
0.0116406
0.0114381
0.0111229
0.0110409
0.0108469
0.0107912
0.0106188
0.0105115
0.0104747
0.0105166
0.0106624
0.0109717
0.0115407
0.0128061
0.013983
0.0167362
0.0187243
0.0234688
0.0265964
0.0339877
0.0383814
0.0475017
0.054515
0.0631078
0.0730576
0.0815633
0.0923133
0.0979307
0.103772
0.105466
0.105297
0.10368
0.101974
0.097528
0.0946075
0.0866828
0.0819066
0.0717925
0.0666382
0.0633194
0.0554326
0.0531294
0.0473797
0.0447264
0.0382907
0.0352361
0.0312933
0.0293947
0.0273259
0.0259532
0.0254905
0.0254376
0.0261277
0.0269879
0.0288585
0.0302888
0.0314503
0.0336593
0.0348098
0.912321
0.870526
0.744436
0.612118
0.477634
0.369862
0.291765
0.251744
0.246853
0.254229
0.281335
0.282147
0.271961
0.242705
0.213701
0.193658
0.156634
0.136425
0.0975591
0.0804233
0.0582683
0.0476124
0.0388705
0.0321091
0.0292349
0.026877
0.0238823
0.0231315
0.0196049
0.0180273
0.0140377
0.0121258
0.00935036
0.00793118
0.0066428
0.00596477
0.00556305
0.00543888
0.00542454
0.00553196
0.00568385
0.00583459
0.00591398
0.00593567
0.00593375
0.00592457
0.00588189
0.00588015
0.00587368
0.00588133
0.00588844
0.00590401
0.00592333
0.00593726
0.00598428
0.00600552
0.00606614
0.00608933
0.00615409
0.00617458
0.00624978
0.00627175
0.00632753
0.00632217
0.00632741
0.00633868
0.00634183
0.00636642
0.00637922
0.00643336
0.00647135
0.00658987
0.00666694
0.00689916
0.00701063
0.00727857
0.00738147
0.00758161
0.00763395
0.00765897
0.00765243
0.00763013
0.00755328
0.00748599
0.00732157
0.00721406
0.00709515
0.00706443
0.00705342
0.00706267
0.00710007
0.00713668
0.0072816
0.00735763
0.00753551
0.00762452
0.00777102
0.0077858
0.00780799
0.00779665
0.00776327
0.00772237
0.00772881
0.00775711
0.00782494
0.00801529
0.00825935
0.00862647
0.0092387
0.0100372
0.010781
0.0116474
0.0124964
0.0128338
0.0128134
0.0126799
0.0123414
0.0118926
0.0115528
0.0113421
0.0112542
0.0111556
0.0110182
0.0109807
0.0109901
0.010985
0.0109702
0.0109513
0.0109454
0.0109976
0.0112029
0.0114756
0.0116289
0.0116676
0.0116532
0.0115683
0.0112962
0.0110004
0.0106857
0.0104744
0.0103221
0.010222
0.0102024
0.0102183
0.0102568
0.0103277
0.0104419
0.0107712
0.0111423
0.0121042
0.012958
0.0151072
0.0168356
0.0210293
0.0241737
0.0302235
0.0384062
0.0447184
0.0577535
0.0658938
0.0833228
0.092363
0.112654
0.121641
0.143342
0.151848
0.169533
0.176036
0.180993
0.183426
0.182184
0.18052
0.173373
0.168868
0.155779
0.149898
0.134663
0.128597
0.113642
0.108422
0.0983637
0.0904841
0.0874772
0.0782854
0.075962
0.0694586
0.0675596
0.0633871
0.0612262
0.0565593
0.0536847
0.05024
0.046202
0.0442503
0.0407488
0.0396379
0.0384962
0.0376347
0.0377875
0.0379135
0.25708
0.244228
0.225179
0.195652
0.171832
0.152253
0.133761
0.119127
0.107016
0.100677
0.099283
0.10045
0.107625
0.110133
0.105241
0.086911
0.0655591
0.0500659
0.0389497
0.0306258
0.0259055
0.0216794
0.0186289
0.0158023
0.0135485
0.0114686
0.0101047
0.00910159
0.00836933
0.00796462
0.00772428
0.00761794
0.00762409
0.0077736
0.00817772
0.00900216
0.0100924
0.0110415
0.0122323
0.0126719
0.0132366
0.0132376
0.0133035
0.0131266
0.0129933
0.0124905
0.0121794
0.0116716
0.0111595
0.0109552
0.0104719
0.0103081
0.0100245
0.00985994
0.00970889
0.00950336
0.00947765
0.00940759
0.00945355
0.00943548
0.00951847
0.00955388
0.00966768
0.00981037
0.00990718
0.0102503
0.0104084
0.0108057
0.010981
0.0115643
0.0118254
0.0124404
0.0127351
0.0134913
0.0138945
0.0144573
0.0148865
0.0151476
0.0153137
0.0152508
0.0152243
0.0149237
0.0147598
0.0141967
0.0138966
0.0131398
0.0127752
0.0119979
0.0115784
0.0108854
0.0105394
0.00999344
0.00981006
0.00945739
0.00936763
0.0092199
0.00923421
0.00924367
0.00931959
0.00944177
0.00979983
0.0101365
0.0109755
0.0116737
0.0130881
0.0147952
0.0167237
0.0190871
0.0224732
0.0253263
0.0282127
0.0313838
0.0326872
0.0326904
0.0321707
0.0308035
0.0283032
0.0253627
0.0221546
0.0191958
0.016848
0.014931
0.0134769
0.0123963
0.0116649
0.0112029
0.0109024
0.010675
0.0105704
0.0105479
0.0105633
0.0106103
0.010624
0.0106241
0.0105886
0.0105285
0.0104147
0.0103206
0.0102857
0.0103026
0.0103684
0.0105355
0.010865
0.0115649
0.0123234
0.014015
0.0153691
0.0185815
0.0209635
0.0262188
0.0299916
0.038782
0.0448148
0.0585319
0.0671002
0.0872456
0.09865
0.124192
0.13801
0.163157
0.186113
0.205316
0.234429
0.246908
0.275176
0.281868
0.300442
0.299721
0.304507
0.299559
0.297337
0.290588
0.276923
0.269371
0.24825
0.240275
0.217658
0.212038
0.193461
0.188256
0.169564
0.16413
0.154564
0.149269
0.15146
0.148398
0.156031
0.157115
0.161387
0.160358
0.158784
0.154288
0.144781
0.139568
0.12389
0.114716
0.102719
0.0946354
0.0859869
0.0768974
0.092908
0.0898845
0.0823952
0.0812965
0.0790968
0.0786637
0.0776557
0.0756146
0.0687166
0.0612645
0.0555794
0.0511028
0.0473842
0.044037
0.0414261
0.0398178
0.0394698
0.0395044
0.0436499
0.0458029
0.0482317
0.048311
0.0476782
0.0462858
0.0407257
0.0376083
0.0326967
0.0308027
0.0291152
0.0287736
0.0287251
0.0293871
0.0301579
0.0327781
0.0342722
0.0375411
0.0397161
0.0415908