/*--------------------------------*- C++ -*----------------------------------*\
| =========                 |                                                 |
| \\      /  F ield         | OpenFOAM: The Open Source CFD Toolbox           |
|  \\    /   O peration     | Version:  2.4.0                                 |
|   \\  /    A nd           | Web:      www.OpenFOAM.org                      |
|    \\/     M anipulation  |                                                 |
\*---------------------------------------------------------------------------*/
FoamFile
{
    version     2.0;
    format      ascii;
    class       surfaceScalarField;
    location    "1.43";
    object      phi_0;
}
// * * * * * * * * * * * * * * * * * * * * * * * * * * * * * * * * * * * * * //

dimensions      [0 3 -1 0 0 0 0];

internalField   nonuniform List<scalar> 
17320
(
1.7626e-05
7.37401e-06
1.16275e-05
5.99844e-06
8.6702e-06
2.95735e-06
7.38161e-06
1.28859e-06
6.67414e-06
7.07473e-07
6.40326e-06
2.70882e-07
6.00626e-06
3.96995e-07
5.95195e-06
5.43082e-08
5.67713e-06
2.74825e-07
5.6243e-06
5.2829e-08
5.58842e-06
3.5884e-08
5.28815e-06
3.00261e-07
5.63855e-06
-3.50395e-07
4.98756e-06
6.50988e-07
5.83354e-06
-8.45976e-07
4.57529e-06
1.25825e-06
5.71501e-06
-1.13972e-06
4.63719e-06
1.07782e-06
4.9029e-06
-2.65716e-07
-1.03903e-06
5.94193e-06
2.54478e-05
6.92626e-06
2.32574e-05
8.18883e-06
2.09756e-05
5.23908e-06
1.93414e-05
2.92279e-06
1.80348e-05
2.01406e-06
1.7172e-05
1.13369e-06
1.62905e-05
1.27851e-06
1.5881e-05
4.6382e-07
1.52507e-05
9.05108e-07
1.50529e-05
2.50676e-07
1.46808e-05
4.07971e-07
1.44045e-05
5.7661e-07
1.44184e-05
-3.64354e-07
1.38603e-05
1.20911e-06
1.46729e-05
-1.65857e-06
1.32969e-05
2.63419e-06
1.5312e-05
-3.15481e-06
1.33962e-05
2.99363e-06
1.43327e-05
-1.20224e-06
-1.73561e-06
1.50293e-05
2.66052e-05
5.3211e-06
2.71604e-05
7.63358e-06
2.67652e-05
5.63428e-06
2.62615e-05
3.42651e-06
2.55794e-05
2.69611e-06
2.49258e-05
1.78733e-06
2.40894e-05
2.11493e-06
2.36304e-05
9.22744e-07
2.28368e-05
1.69878e-06
2.26549e-05
4.32576e-07
2.19558e-05
1.10707e-06
2.19206e-05
6.1179e-07
2.13398e-05
2.16456e-07
2.1278e-05
1.2709e-06
2.15801e-05
-1.96067e-06
2.06249e-05
3.58934e-06
2.32252e-05
-5.7551e-06
2.10644e-05
5.15448e-06
2.27686e-05
-2.90646e-06
-1.36668e-06
2.23997e-05
2.6303e-05
4.01808e-06
2.75415e-05
6.39513e-06
2.80669e-05
5.10883e-06
2.84315e-05
3.06196e-06
2.8641e-05
2.48663e-06
2.86752e-05
1.75313e-06
2.83888e-05
2.40132e-06
2.84173e-05
8.94173e-07
2.77906e-05
2.3255e-06
2.80524e-05
1.70747e-07
2.71265e-05
2.03305e-06
2.77307e-05
7.59545e-09
2.63859e-05
1.56118e-06
2.71156e-05
5.41276e-07
2.66394e-05
-1.48453e-06
2.60622e-05
4.16661e-06
2.94138e-05
-9.10677e-06
2.64816e-05
8.08673e-06
2.91526e-05
-5.57749e-06
-9.02088e-07
2.8688e-05
2.59906e-05
3.0275e-06
2.72331e-05
5.15264e-06
2.811e-05
4.23185e-06
2.84434e-05
2.72862e-06
2.90249e-05
1.9051e-06
2.93869e-05
1.39111e-06
2.94868e-05
2.30142e-06
2.99919e-05
3.89108e-07
2.95969e-05
2.72047e-06
3.04894e-05
-7.2177e-07
2.93862e-05
3.13632e-06
3.10227e-05
-1.62892e-06
2.8941e-05
3.64284e-06
3.04287e-05
-9.46405e-07
3.01115e-05
-1.16737e-06
2.83617e-05
5.91648e-06
3.29036e-05
-1.36487e-05
2.89528e-05
1.20375e-05
3.01338e-05
-6.75845e-06
-1.21823e-06
3.04499e-05
2.58341e-05
2.19345e-06
2.67035e-05
4.28321e-06
2.7931e-05
3.00432e-06
2.80247e-05
2.63491e-06
2.87358e-05
1.19405e-06
2.90374e-05
1.08946e-06
2.93968e-05
1.94207e-06
2.99337e-05
-1.47755e-07
2.99115e-05
2.74267e-06
3.09544e-05
-1.76475e-06
3.00022e-05
4.08857e-06
3.23443e-05
-3.97106e-06
3.05746e-05
5.41261e-06
3.17673e-05
-2.13916e-06
3.31545e-05
-2.55456e-06
2.93941e-05
9.67688e-06
3.28458e-05
-1.71004e-05
2.99597e-05
1.49236e-05
2.91937e-05
-5.99241e-06
-1.15459e-06
2.913e-05
2.56552e-05
1.53827e-06
2.65847e-05
3.35368e-06
2.78009e-05
1.78817e-06
2.78537e-05
2.58207e-06
2.88422e-05
2.05576e-07
2.85872e-05
1.34444e-06
2.94464e-05
1.08288e-06
2.91824e-05
1.16262e-07
2.99076e-05
2.0174e-06
3.00042e-05
-1.86128e-06
3.02584e-05
3.83438e-06
3.19915e-05
-5.70425e-06
3.12049e-05
6.1992e-06
3.30303e-05
-3.96447e-06
3.31241e-05
-2.64844e-06
3.06952e-05
1.21058e-05
3.23391e-05
-1.87442e-05
3.07096e-05
1.6553e-05
3.00095e-05
-5.2923e-06
-6.80659e-07
2.95356e-05
2.59657e-05
5.72519e-07
2.66027e-05
2.71677e-06
2.7537e-05
8.53826e-07
2.81096e-05
2.00944e-06
2.85678e-05
-2.52569e-07
2.83119e-05
1.6003e-06
2.94916e-05
-9.67819e-08
2.84281e-05
1.17972e-06
3.007e-05
3.7556e-07
2.84591e-05
-2.50382e-07
3.00623e-05
2.23116e-06
2.93843e-05
-5.02628e-06
2.99973e-05
5.58627e-06
3.27073e-05
-6.67449e-06
3.0036e-05
2.27953e-08
3.14707e-05
1.06711e-05
3.19465e-05
-1.92201e-05
2.99924e-05
1.85072e-05
3.06158e-05
-5.91572e-06
-2.50456e-06
3.24397e-05
2.54035e-05
1.69054e-07
2.61757e-05
1.94452e-06
2.73023e-05
-2.72813e-07
2.76618e-05
1.64998e-06
2.83714e-05
-9.62132e-07
2.82997e-05
1.672e-06
2.92886e-05
-1.08575e-06
2.86279e-05
1.84045e-06
3.04332e-05
-1.42977e-06
2.81693e-05
2.01357e-06
3.0346e-05
5.44487e-08
2.77977e-05
-2.47799e-06
2.95813e-05
3.80262e-06
2.90152e-05
-6.10831e-06
2.73549e-05
1.68306e-06
3.30431e-05
4.98292e-06
2.70926e-05
-1.32696e-05
2.80498e-05
1.755e-05
3.38016e-05
-1.16675e-05
-8.83707e-07
3.21807e-05
2.53349e-05
-1.65885e-07
2.67837e-05
4.9572e-07
2.73339e-05
-8.22953e-07
2.79227e-05
1.06113e-06
2.83524e-05
-1.39184e-06
2.83405e-05
1.68391e-06
2.91024e-05
-1.84762e-06
2.8838e-05
2.10488e-06
2.99759e-05
-2.56773e-06
2.88121e-05
3.17742e-06
3.10521e-05
-2.18556e-06
2.78375e-05
7.36544e-07
3.04459e-05
1.19429e-06
2.72301e-05
-2.89255e-06
2.78203e-05
1.09288e-06
3.21652e-05
6.38023e-07
2.31622e-05
-4.26659e-06
3.12758e-05
9.43639e-06
3.225e-05
-1.26417e-05
7.40923e-06
2.39571e-05
2.55069e-05
-6.72787e-07
2.64057e-05
-4.03048e-07
2.71677e-05
-1.58495e-06
2.79726e-05
2.56153e-07
2.80072e-05
-1.42639e-06
2.86661e-05
1.02505e-06
2.88231e-05
-2.00466e-06
2.92164e-05
1.71156e-06
2.96573e-05
-3.00859e-06
2.94051e-05
3.42959e-06
3.11925e-05
-3.97289e-06
2.85923e-05
3.33674e-06
3.17463e-05
-1.95976e-06
2.80731e-05
7.80696e-07
2.96555e-05
-4.89505e-07
3.11079e-05
-8.1444e-07
2.62515e-05
5.89814e-07
3.51836e-05
5.0434e-07
2.96903e-05
-7.14844e-06
1.26154e-05
2.44841e-05
2.53264e-05
-9.99234e-07
2.65153e-05
-1.59192e-06
2.73581e-05
-2.42769e-06
2.80071e-05
-3.92934e-07
2.8188e-05
-1.60722e-06
2.87501e-05
4.62967e-07
2.86908e-05
-1.94544e-06
2.93965e-05
1.00593e-06
2.92957e-05
-2.90787e-06
3.00032e-05
2.72218e-06
3.01936e-05
-4.16337e-06
2.99878e-05
3.54258e-06
3.18833e-05
-3.8553e-06
2.9493e-05
3.17105e-06
3.2204e-05
-3.20052e-06
3.04448e-05
9.44794e-07
3.05339e-05
5.00655e-07
3.38688e-05
-2.8305e-06
2.85247e-05
-1.80434e-06
8.29314e-06
3.28469e-05
2.55412e-05
-1.54039e-06
2.66817e-05
-2.73248e-06
2.73235e-05
-3.06945e-06
2.80542e-05
-1.1236e-06
2.82531e-05
-1.8062e-06
2.87796e-05
-6.34876e-08
2.88519e-05
-2.01777e-06
2.96065e-05
2.51353e-07
2.92349e-05
-2.53625e-06
3.01648e-05
1.79221e-06
2.9783e-05
-3.78152e-06
3.04206e-05
2.90499e-06
3.04905e-05
-3.92527e-06
3.0883e-05
2.77861e-06
3.15301e-05
-3.84767e-06
3.07992e-05
1.67572e-06
3.23837e-05
-1.08384e-06
3.12885e-05
-1.73535e-06
3.05222e-05
-1.03795e-06
4.25003e-06
3.45653e-05
2.56224e-05
-2.1628e-06
2.67788e-05
-3.88889e-06
2.75663e-05
-3.85693e-06
2.81579e-05
-1.71518e-06
2.84045e-05
-2.05282e-06
2.89757e-05
-6.34709e-07
2.90123e-05
-2.05435e-06
2.96774e-05
-4.13804e-07
2.94547e-05
-2.31347e-06
3.03365e-05
9.10376e-07
2.98674e-05
-3.31237e-06
3.06851e-05
2.08726e-06
3.03616e-05
-3.60176e-06
3.11179e-05
2.02225e-06
3.05891e-05
-3.3188e-06
3.14047e-05
8.60111e-07
3.13869e-05
-1.06606e-06
3.13599e-05
-1.7084e-06
3.1242e-05
-9.20039e-07
2.54092e-06
3.29511e-05
2.5824e-05
-2.98677e-06
2.7015e-05
-5.07988e-06
2.7748e-05
-4.58994e-06
2.82947e-05
-2.26188e-06
2.86432e-05
-2.40132e-06
2.91715e-05
-1.16308e-06
2.93334e-05
-2.21621e-06
2.98685e-05
-9.48923e-07
2.97309e-05
-2.17588e-06
3.04755e-05
1.65805e-07
3.00218e-05
-2.8587e-06
3.08793e-05
1.22985e-06
3.03985e-05
-3.12104e-06
3.12153e-05
1.20551e-06
3.05819e-05
-2.68547e-06
3.13664e-05
7.56083e-08
3.11214e-05
-8.21027e-07
3.12884e-05
-1.87535e-06
3.10089e-05
-6.40621e-07
6.96555e-07
3.28533e-05
2.60354e-05
-4.02215e-06
2.72855e-05
-6.33e-06
2.79654e-05
-5.26984e-06
2.85599e-05
-2.85634e-06
2.89051e-05
-2.74652e-06
2.93881e-05
-1.64614e-06
2.94922e-05
-2.32024e-06
2.98048e-05
-1.26153e-06
2.96778e-05
-2.04893e-06
3.01396e-05
-2.95974e-07
2.96481e-05
-2.36718e-06
3.03216e-05
5.56285e-07
2.96279e-05
-2.42732e-06
3.02878e-05
5.4557e-07
2.95528e-05
-1.95039e-06
3.00111e-05
-3.82684e-07
2.96913e-05
-5.01241e-07
2.95346e-05
-1.71868e-06
2.95452e-05
-6.5125e-07
-8.10566e-08
3.03228e-05
2.63122e-05
-5.3343e-06
2.75668e-05
-7.58463e-06
2.80253e-05
-5.72834e-06
2.85071e-05
-3.33813e-06
2.85603e-05
-2.79971e-06
2.86832e-05
-1.76904e-06
2.83972e-05
-2.03425e-06
2.82662e-05
-1.13053e-06
2.78551e-05
-1.63782e-06
2.78609e-05
-3.01829e-07
2.71886e-05
-1.69486e-06
2.74712e-05
2.73694e-07
2.66318e-05
-1.58798e-06
2.69708e-05
2.06643e-07
2.61905e-05
-1.17016e-06
2.62646e-05
-4.56775e-07
2.59752e-05
-2.11863e-07
2.54922e-05
-1.23563e-06
2.54574e-05
-6.16437e-07
-2.58418e-07
2.56348e-05
2.66027e-05
-6.93698e-06
2.7179e-05
-8.16095e-06
2.67381e-05
-5.28739e-06
2.62872e-05
-2.88727e-06
2.55261e-05
-2.03867e-06
2.49223e-05
-1.16521e-06
2.40896e-05
-1.20155e-06
2.35378e-05
-5.78766e-07
2.28372e-05
-9.37174e-07
2.25795e-05
-4.41393e-08
2.18452e-05
-9.60515e-07
2.18966e-05
2.22215e-07
2.11398e-05
-8.31093e-07
2.1267e-05
7.9353e-08
2.06214e-05
-5.24509e-07
2.05228e-05
-3.58202e-07
2.03105e-05
4.28544e-10
1.97615e-05
-6.86634e-07
1.95661e-05
-4.21035e-07
3.13498e-07
1.89942e-05
2.54414e-05
-7.37839e-06
2.32676e-05
-5.98709e-06
2.09553e-05
-2.97511e-06
1.93475e-05
-1.27951e-06
1.80138e-05
-7.04993e-07
1.7151e-05
-3.02331e-07
1.62993e-05
-3.49906e-07
1.58212e-05
-1.00694e-07
1.52003e-05
-3.16203e-07
1.50665e-05
8.9664e-08
1.4459e-05
-3.53009e-07
1.45374e-05
1.43772e-07
1.39815e-05
-2.75186e-07
1.40351e-05
2.57517e-08
1.36251e-05
-1.14485e-07
1.34566e-05
-1.89681e-07
1.33642e-05
9.28008e-08
1.29288e-05
-2.51246e-07
1.27363e-05
-2.28555e-07
3.20795e-07
1.2729e-05
1.76216e-05
1.16345e-05
8.65941e-06
7.3799e-06
6.67491e-06
6.37257e-06
6.02267e-06
5.92197e-06
5.60577e-06
5.69543e-06
5.34243e-06
5.4862e-06
5.21101e-06
5.23676e-06
5.12228e-06
4.9326e-06
5.0254e-06
4.77415e-06
4.5456e-06
4.86639e-06
5.36593e-06
-6.43903e-07
1.2199e-06
5.06753e-06
7.70657e-08
2.21338e-07
5.18203e-06
4.58245e-07
-5.72741e-07
5.40325e-06
1.15745e-06
-1.37867e-06
5.77768e-06
1.45723e-06
-1.83167e-06
6.08317e-06
1.94909e-06
-2.25458e-06
6.49185e-06
1.85631e-06
-2.26499e-06
6.84061e-06
1.88164e-06
-2.23039e-06
7.28938e-06
1.2741e-06
-1.72287e-06
7.70072e-06
8.08547e-07
-1.21988e-06
8.19061e-06
-9.11741e-08
-3.98711e-07
8.61351e-06
-6.6527e-07
2.42363e-07
9.10182e-06
-1.46212e-06
9.73811e-07
9.46782e-06
-1.74836e-06
1.38236e-06
9.84721e-06
-2.20907e-06
1.82969e-06
1.00606e-05
-2.14818e-06
1.93478e-06
1.02718e-05
-2.28107e-06
2.06983e-06
1.03372e-05
-1.95501e-06
1.88963e-06
1.0398e-05
-1.84381e-06
1.78308e-06
1.03145e-05
-1.34745e-06
1.43088e-06
1.02483e-05
-1.13068e-06
1.19691e-06
1.00803e-05
-5.97314e-07
7.65301e-07
9.97684e-06
-4.22766e-07
5.26239e-07
9.80077e-06
4.56496e-08
1.30419e-07
9.71868e-06
9.40529e-08
-1.19626e-08
9.56668e-06
4.6455e-07
-3.12549e-07
9.54396e-06
3.67566e-07
-3.44845e-07
9.44879e-06
6.67166e-07
-5.7199e-07
9.49489e-06
4.57651e-07
-5.03756e-07
9.45408e-06
7.11226e-07
-6.70414e-07
9.54334e-06
4.3583e-07
-5.25093e-07
9.54177e-06
6.56083e-07
-6.54511e-07
9.66336e-06
3.42356e-07
-4.63941e-07
9.69425e-06
5.48326e-07
-5.79222e-07
9.85163e-06
2.03498e-07
-3.60878e-07
9.91713e-06
4.03501e-07
-4.69e-07
1.00794e-05
1.74274e-08
-1.79728e-07
1.01693e-05
2.2822e-07
-3.18109e-07
1.03485e-05
-1.63572e-07
-1.56007e-08
1.04573e-05
7.58645e-08
-1.84632e-07
1.0653e-05
-3.21187e-07
1.25487e-07
1.07426e-05
-7.10742e-08
-1.85253e-08
1.09021e-05
-4.7994e-07
3.20439e-07
1.09378e-05
-2.04397e-07
1.68691e-07
1.10272e-05
-6.24393e-07
5.34943e-07
1.09971e-05
-2.94739e-07
3.24892e-07
1.10115e-05
-7.00588e-07
6.86179e-07
1.09294e-05
-3.05426e-07
3.87485e-07
1.08821e-05
-6.85915e-07
7.33215e-07
1.0756e-05
-2.144e-07
3.40562e-07
1.06636e-05
-5.75252e-07
6.67582e-07
1.05266e-05
8.03206e-09
1.29038e-07
1.04459e-05
-3.2811e-07
4.0878e-07
1.03361e-05
3.71409e-07
-2.61671e-07
1.03072e-05
4.28472e-08
-1.39174e-08
1.02758e-05
8.03672e-07
-7.7225e-07
1.02729e-05
4.65064e-07
-4.62134e-07
1.03213e-05
1.20915e-06
-1.25757e-06
1.03332e-05
8.55078e-07
-8.67011e-07
1.04565e-05
1.54782e-06
-1.67111e-06
1.05098e-05
1.12595e-06
-1.17928e-06
1.06922e-05
1.80239e-06
-1.98472e-06
1.0862e-05
1.23416e-06
-1.40403e-06
1.1077e-05
1.94146e-06
-2.15638e-06
1.14585e-05
1.1865e-06
-1.56801e-06
1.16914e-05
1.94796e-06
-2.18086e-06
1.22917e-05
9.48351e-07
-1.54869e-06
1.25529e-05
1.7237e-06
-1.98487e-06
1.32335e-05
5.43073e-07
-1.22374e-06
1.35863e-05
1.22382e-06
-1.57655e-06
1.41358e-05
-8.74171e-08
-4.62137e-07
1.45612e-05
4.5489e-07
-8.80262e-07
1.49513e-05
-8.87939e-07
4.97885e-07
1.52851e-05
-4.90987e-07
1.57169e-07
1.5592e-05
-1.72036e-06
1.41342e-06
1.58114e-05
-1.34506e-06
1.12571e-06
1.60019e-05
-2.41299e-06
2.22242e-06
1.61269e-05
-1.96705e-06
1.84205e-06
1.62141e-05
-2.82752e-06
2.74031e-06
1.62255e-05
-2.25097e-06
2.23955e-06
1.62334e-05
-2.91967e-06
2.91182e-06
1.61048e-05
-2.22405e-06
2.35269e-06
1.60181e-05
-2.73926e-06
2.82596e-06
1.57387e-05
-1.96166e-06
2.24105e-06
1.55726e-05
-2.34141e-06
2.5075e-06
1.51828e-05
-1.48899e-06
1.87874e-06
1.49962e-05
-1.79628e-06
1.98294e-06
1.45715e-05
-8.37578e-07
1.26219e-06
1.44485e-05
-1.0595e-06
1.18259e-06
1.41115e-05
3.4168e-09
3.33563e-07
1.41174e-05
-1.03501e-07
9.76088e-08
1.40001e-05
1.13482e-06
-1.0176e-06
1.41602e-05
1.27483e-06
-1.43484e-06
1.42312e-05
2.54709e-06
-2.61815e-06
1.45221e-05
2.82301e-06
-3.11388e-06
1.45623e-05
3.83457e-06
-3.87475e-06
1.48722e-05
3.75642e-06
-4.06634e-06
1.52099e-05
4.60904e-06
-4.94678e-06
1.57206e-05
4.17209e-06
-4.68271e-06
1.62719e-05
4.38557e-06
-4.93692e-06
1.70223e-05
3.32952e-06
-4.07992e-06
1.77299e-05
2.85569e-06
-3.56325e-06
1.8429e-05
1.1961e-06
-1.89524e-06
1.88956e-05
3.07432e-07
-7.74025e-07
1.91478e-05
-1.49855e-06
1.24629e-06
1.90483e-05
-2.13476e-06
2.23431e-06
1.87448e-05
-3.37473e-06
3.67824e-06
1.82376e-05
-3.41151e-06
3.91873e-06
1.78466e-05
-4.33654e-06
4.72752e-06
1.7516e-05
-4.39129e-06
4.72182e-06
1.73736e-05
-5.45793e-06
5.60035e-06
1.70706e-05
-5.42857e-06
5.73156e-06
1.67319e-05
-6.16677e-06
6.50547e-06
1.60939e-05
-5.69998e-06
6.338e-06
1.54991e-05
-5.92619e-06
6.52102e-06
1.49481e-05
-5.0164e-06
5.5674e-06
1.49517e-05
-4.73937e-06
4.73578e-06
1.5001e-05
-3.18163e-06
3.13235e-06
1.49278e-05
-2.09297e-06
2.16608e-06
1.40045e-05
2.80493e-08
8.95348e-07
1.24282e-05
1.13179e-06
4.4446e-07
1.08088e-05
2.64668e-06
-1.02724e-06
9.59338e-06
2.69814e-06
-1.48276e-06
9.09109e-06
4.14894e-06
-3.64666e-06
8.80798e-06
4.35716e-06
-4.07405e-06
9.15062e-06
5.87758e-06
-6.22021e-06
9.13018e-06
6.28347e-06
-6.26304e-06
9.63143e-06
7.21481e-06
-7.71607e-06
1.00686e-05
7.3529e-06
-7.79004e-06
1.04378e-05
7.86791e-06
-8.23718e-06
1.13491e-05
7.29606e-06
-8.20731e-06
1.15983e-05
7.86572e-06
-8.11497e-06
1.24211e-05
6.62866e-06
-7.45141e-06
1.29251e-05
7.11472e-06
-7.61871e-06
1.33827e-05
5.66773e-06
-6.12534e-06
1.42024e-05
5.74491e-06
-6.56465e-06
1.45363e-05
4.29778e-06
-4.63167e-06
1.52527e-05
4.07689e-06
-4.79326e-06
1.56417e-05
2.5912e-06
-2.98017e-06
1.61072e-05
2.4219e-06
-2.88744e-06
1.65493e-05
8.40944e-07
-1.28302e-06
1.68982e-05
9.97189e-07
-1.34611e-06
1.73167e-05
-5.36348e-07
1.1787e-07
1.77854e-05
-9.12395e-08
-3.77496e-07
1.81884e-05
-1.46151e-06
1.05855e-06
1.8851e-05
-9.01897e-07
2.39222e-07
1.92775e-05
-2.13255e-06
1.70605e-06
2.00872e-05
-1.68096e-06
8.7129e-07
2.05029e-05
-2.81027e-06
2.39463e-06
2.13252e-05
-2.53836e-06
1.71602e-06
2.17249e-05
-3.66817e-06
3.26847e-06
2.24697e-05
-3.46277e-06
2.71796e-06
2.28321e-05
-4.71831e-06
4.35596e-06
2.35189e-05
-4.46831e-06
3.78149e-06
2.3841e-05
-5.8399e-06
5.51782e-06
2.44671e-05
-5.53562e-06
4.90946e-06
2.47508e-05
-7.03676e-06
6.75312e-06
2.52721e-05
-6.68068e-06
6.15935e-06
2.54215e-05
-8.2603e-06
8.11089e-06
2.57655e-05
-7.85384e-06
7.5098e-06
2.58089e-05
-9.4666e-06
9.42327e-06
2.59122e-05
-8.75509e-06
8.65174e-06
2.57911e-05
-1.0315e-05
1.04361e-05
2.57414e-05
-9.44197e-06
9.49167e-06
2.56022e-05
-1.09763e-05
1.11154e-05
2.53292e-05
-9.77646e-06
1.00495e-05
2.5199e-05
-1.08944e-05
1.10246e-05
2.46839e-05
-9.40888e-06
9.92395e-06
2.45068e-05
-1.0243e-05
1.04201e-05
2.37522e-05
-8.83971e-06
9.59427e-06
2.35583e-05
-9.35845e-06
9.55235e-06
2.27547e-05
-7.93567e-06
8.73934e-06
2.24828e-05
-7.87691e-06
8.14877e-06
2.16842e-05
-6.53852e-06
7.33708e-06
2.10863e-05
-6.18962e-06
6.78761e-06
2.04183e-05
-5.2391e-06
5.9071e-06
2.00894e-05
-4.85262e-06
5.18145e-06
1.91005e-05
-3.57452e-06
4.56342e-06
1.85898e-05
-3.41883e-06
3.92959e-06
1.81314e-05
-2.35148e-06
2.80988e-06
1.72337e-05
-1.96125e-06
2.85892e-06
1.69888e-05
-1.65546e-06
1.90039e-06
1.73884e-05
-7.00316e-07
3.00701e-07
1.72081e-05
8.76322e-07
-6.96027e-07
1.73719e-05
1.62318e-06
-1.78697e-06
1.85176e-05
3.17273e-06
-4.31845e-06
1.87768e-05
5.16216e-06
-5.42137e-06
1.76353e-05
6.3669e-06
-5.22543e-06
1.69158e-05
6.27518e-06
-5.55563e-06
1.7857e-05
6.96337e-06
-7.90459e-06
1.96284e-05
8.67963e-06
-1.0451e-05
2.11818e-05
1.11148e-05
-1.26682e-05
2.19551e-05
1.23812e-05
-1.31545e-05
2.18752e-05
1.34943e-05
-1.34144e-05
2.13623e-05
1.33421e-05
-1.28292e-05
1.96863e-05
1.3688e-05
-1.2012e-05
1.90996e-05
1.19787e-05
-1.13919e-05
1.62885e-05
1.45998e-05
-1.17887e-05
1.70986e-05
1.13647e-05
-1.21748e-05
1.83919e-05
-1.75879e-05
1.62946e-05
1.44337e-05
-4.82385e-08
1.35754e-05
9.35362e-07
1.27836e-05
1.24999e-06
1.2269e-05
1.67205e-06
1.23046e-05
1.42162e-06
1.24724e-05
1.78135e-06
1.28688e-05
1.45989e-06
1.32424e-05
1.50802e-06
1.37421e-05
7.74383e-07
1.41882e-05
3.62519e-07
1.47218e-05
-6.24856e-07
1.51501e-05
-1.09354e-06
1.56536e-05
-1.96558e-06
1.59781e-05
-2.07292e-06
1.6375e-05
-2.60595e-06
1.65723e-05
-2.34552e-06
1.68272e-05
-2.53592e-06
1.68877e-05
-2.01552e-06
1.69407e-05
-1.8968e-06
1.68023e-05
-1.20908e-06
1.66488e-05
-9.77143e-07
1.63622e-05
-3.10712e-07
1.6125e-05
-1.85593e-07
1.57981e-05
3.72507e-07
1.55927e-05
2.99471e-07
1.53299e-05
7.2739e-07
1.5235e-05
4.6242e-07
1.50765e-05
8.25672e-07
1.50987e-05
4.35492e-07
1.50481e-05
7.61766e-07
1.51507e-05
3.33292e-07
1.51777e-05
6.29027e-07
1.53285e-05
1.91609e-07
1.54054e-05
4.71433e-07
1.55824e-05
2.65187e-08
1.5686e-05
2.9984e-07
1.58682e-05
-1.64714e-07
1.59741e-05
1.22266e-07
1.61562e-05
-3.4567e-07
1.62552e-05
-2.30729e-08
1.64305e-05
-4.96564e-07
1.64922e-05
-1.3273e-07
1.66191e-05
-6.06895e-07
1.66199e-05
-2.05157e-07
1.66624e-05
-6.66932e-07
1.65903e-05
-2.22576e-07
1.65449e-05
-6.55207e-07
1.63943e-05
-1.54853e-07
1.62748e-05
-5.66426e-07
1.60526e-05
7.81565e-09
1.5883e-05
-4.05672e-07
1.56245e-05
2.66595e-07
1.54759e-05
-1.79542e-07
1.52279e-05
6.19434e-07
1.51414e-05
1.29327e-07
1.49567e-05
9.88335e-07
1.49784e-05
4.43412e-07
1.48647e-05
1.32285e-06
1.50255e-05
6.94281e-07
1.49776e-05
1.59569e-06
1.52643e-05
8.39218e-07
1.52896e-05
1.77718e-06
1.56694e-05
8.54275e-07
1.57899e-05
1.82098e-06
1.62233e-05
7.53141e-07
1.64845e-05
1.68674e-06
1.69117e-05
5.21199e-07
1.73211e-05
1.31423e-06
1.77301e-05
1.3411e-07
1.82299e-05
7.24009e-07
1.861e-05
-4.67484e-07
1.91052e-05
-4.03263e-08
1.94297e-05
-1.21248e-06
1.98255e-05
-8.86744e-07
2.0066e-05
-1.96091e-06
2.03523e-05
-1.63136e-06
2.04934e-05
-2.55409e-06
2.06579e-05
-2.13152e-06
2.07279e-05
-2.89751e-06
2.07666e-05
-2.28961e-06
2.07674e-05
-2.92051e-06
2.06647e-05
-2.12132e-06
2.05753e-05
-2.64985e-06
2.03079e-05
-1.69431e-06
2.00805e-05
-2.11406e-06
1.96527e-05
-1.06116e-06
1.92317e-05
-1.37528e-06
1.86699e-05
-2.7579e-07
1.81427e-05
-5.32275e-07
1.76049e-05
5.41227e-07
1.726e-05
2.41435e-07
1.70218e-05
1.37293e-06
1.71159e-05
1.18076e-06
1.7265e-05
2.39796e-06
1.77693e-05
2.31874e-06
1.81375e-05
3.4664e-06
1.86636e-05
3.2303e-06
1.92084e-05
4.06429e-06
1.98354e-05
3.54503e-06
2.04144e-05
3.80655e-06
2.10323e-05
2.71162e-06
2.15585e-05
2.32953e-06
2.19592e-05
7.95392e-07
2.21306e-05
1.3601e-07
2.20078e-05
-1.37568e-06
2.16623e-05
-1.78935e-06
2.12425e-05
-2.95489e-06
2.09133e-05
-3.08227e-06
2.06824e-05
-4.10569e-06
2.05184e-05
-4.22726e-06
2.02979e-05
-5.23742e-06
2.00972e-05
-5.2279e-06
1.99226e-05
-5.99213e-06
1.97938e-05
-5.57118e-06
1.95618e-05
-5.69425e-06
1.89967e-05
-4.4513e-06
1.81879e-05
-3.93056e-06
1.74572e-05
-2.45088e-06
1.71591e-05
-1.79496e-06
1.70445e-05
1.42698e-07
1.68293e-05
1.34697e-06
1.6098e-05
3.37802e-06
1.47445e-05
4.0516e-06
1.35619e-05
5.33153e-06
1.25225e-05
5.39659e-06
1.2086e-05
6.3141e-06
1.21399e-05
6.22956e-06
1.21965e-05
7.1582e-06
1.28118e-05
6.73763e-06
1.30546e-05
7.62513e-06
1.35881e-05
6.76248e-06
1.41758e-05
7.27806e-06
1.45241e-05
6.28038e-06
1.52812e-05
6.35764e-06
1.57292e-05
5.2197e-06
1.64004e-05
5.07368e-06
1.69647e-05
3.7335e-06
1.75006e-05
3.54097e-06
1.80974e-05
1.99438e-06
1.85927e-05
1.92666e-06
1.9094e-05
3.39583e-07
1.96458e-05
4.45427e-07
2.00835e-05
-9.7407e-07
2.0755e-05
-7.62689e-07
2.1182e-05
-1.88855e-06
2.19723e-05
-1.69216e-06
2.24094e-05
-2.5697e-06
2.32365e-05
-2.50808e-06
2.36718e-05
-3.24549e-06
2.44359e-05
-3.30253e-06
2.4834e-05
-4.06623e-06
2.55304e-05
-4.1592e-06
2.5834e-05
-5.02187e-06
2.64397e-05
-5.07406e-06
2.66639e-05
-6.06411e-06
2.72167e-05
-6.08835e-06
2.7295e-05
-7.11508e-06
2.77664e-05
-7.15213e-06
2.77385e-05
-8.23238e-06
2.80099e-05
-8.12522e-06
2.79026e-05
-9.3593e-06
2.79936e-05
-8.8461e-06
2.77868e-05
-1.01082e-05
2.77482e-05
-9.40341e-06
2.74597e-05
-1.06877e-05
2.71927e-05
-9.5095e-06
2.68996e-05
-1.06012e-05
2.64126e-05
-8.9219e-06
2.59267e-05
-9.7571e-06
2.53058e-05
-8.21879e-06
2.48382e-05
-8.89091e-06
2.40898e-05
-7.18719e-06
2.36631e-05
-7.45023e-06
2.27929e-05
-5.66832e-06
2.26875e-05
-6.08427e-06
2.17473e-05
-4.29886e-06
2.14536e-05
-4.55895e-06
2.08915e-05
-3.01237e-06
2.04385e-05
-2.96585e-06
1.97942e-05
-1.70719e-06
1.94424e-05
-1.60949e-06
1.84229e-05
-6.35877e-07
1.81869e-05
-4.64364e-07
1.80675e-05
9.95687e-07
1.80706e-05
1.62008e-06
1.84037e-05
2.83964e-06
1.95129e-05
4.05296e-06
1.97622e-05
6.11761e-06
1.91816e-05
6.85578e-06
1.84377e-05
7.70726e-06
1.92809e-05
7.83644e-06
2.04763e-05
9.91945e-06
2.24637e-05
1.03938e-05
2.28836e-05
1.30744e-05
2.41737e-05
1.20519e-05
2.26294e-05
1.52322e-05
2.28495e-05
1.17586e-05
2.0872e-05
1.65773e-05
2.21175e-05
1.01192e-05
1.77103e-05
2.27991e-05
2.20998e-05
2.51598e-07
2.16558e-05
1.37935e-06
2.13283e-05
1.5775e-06
2.08834e-05
2.11702e-06
2.07892e-05
1.5158e-06
2.07846e-05
1.78594e-06
2.1019e-05
1.22552e-06
2.11735e-05
1.35343e-06
2.14524e-05
4.95572e-07
2.1662e-05
1.52913e-07
2.20157e-05
-9.78605e-07
2.2204e-05
-1.28187e-06
2.24659e-05
-2.22745e-06
2.24942e-05
-2.1012e-06
2.26944e-05
-2.80616e-06
2.26956e-05
-2.34671e-06
2.29312e-05
-2.77148e-06
2.2979e-05
-2.06333e-06
2.31427e-05
-2.06056e-06
2.3083e-05
-1.14937e-06
2.30282e-05
-9.22301e-07
2.27694e-05
-5.1971e-08
2.25447e-05
3.91571e-08
2.21834e-05
7.33839e-07
2.19522e-05
5.30643e-07
2.16035e-05
1.07612e-06
2.14746e-05
5.91311e-07
2.1218e-05
1.08222e-06
2.12213e-05
4.32187e-07
2.10818e-05
9.01344e-07
2.11928e-05
2.22269e-07
2.11498e-05
6.71954e-07
2.13265e-05
1.49246e-08
2.13435e-05
4.54476e-07
2.1556e-05
-1.85966e-07
2.15953e-05
2.60557e-07
2.18258e-05
-3.95269e-07
2.18564e-05
9.16906e-08
2.20849e-05
-5.74161e-07
2.20947e-05
-3.28506e-08
2.23148e-05
-7.16701e-07
2.22781e-05
-9.59973e-08
2.2467e-05
-7.95849e-07
2.23634e-05
-1.01505e-07
2.24945e-05
-7.98087e-07
2.23173e-05
-4.53436e-08
2.23813e-05
-7.19229e-07
2.21459e-05
8.05835e-08
2.21407e-05
-5.61215e-07
2.18485e-05
2.99982e-07
2.17847e-05
-3.41921e-07
2.14644e-05
5.8698e-07
2.13515e-05
-6.66839e-08
2.10424e-05
9.28507e-07
2.09293e-05
2.42408e-07
2.06668e-05
1.25084e-06
2.05975e-05
5.12765e-07
2.04203e-05
1.50004e-06
2.04177e-05
6.96871e-07
2.03598e-05
1.65363e-06
2.04283e-05
7.70717e-07
2.05141e-05
1.69133e-06
2.06456e-05
7.22827e-07
2.08891e-05
1.57744e-06
2.10725e-05
5.69747e-07
2.1465e-05
1.29419e-06
2.17017e-05
2.8452e-07
2.21701e-05
8.45889e-07
2.24882e-05
-1.84031e-07
2.2963e-05
2.49255e-07
2.3309e-05
-8.13555e-07
2.37258e-05
-4.5708e-07
2.40244e-05
-1.51108e-06
2.43348e-05
-1.19717e-06
2.45316e-05
-2.15776e-06
2.47385e-05
-1.83821e-06
2.48054e-05
-2.62101e-06
2.49085e-05
-2.23456e-06
2.48518e-05
-2.84089e-06
2.48537e-05
-2.29147e-06
2.4718e-05
-2.78478e-06
2.462e-05
-2.02334e-06
2.4412e-05
-2.44183e-06
2.42188e-05
-1.50117e-06
2.39384e-05
-1.83358e-06
2.36856e-05
-8.08365e-07
2.33394e-05
-1.0291e-06
2.29991e-05
6.44511e-08
2.26209e-05
-1.54029e-07
2.21529e-05
1.00924e-06
2.16109e-05
7.83426e-07
2.11031e-05
1.8807e-06
2.06073e-05
1.67662e-06
2.03764e-05
2.6288e-06
2.03284e-05
2.36674e-06
2.05712e-05
3.22359e-06
2.09501e-05
2.8514e-06
2.15194e-05
3.49501e-06
2.21571e-05
2.90736e-06
2.27996e-05
3.16405e-06
2.33472e-05
2.16398e-06
2.38067e-05
1.87004e-06
2.40482e-05
5.53887e-07
2.41658e-05
1.84306e-08
2.40447e-05
-1.25455e-06
2.39213e-05
-1.666e-06
2.37578e-05
-2.79142e-06
2.37625e-05
-3.08695e-06
2.37063e-05
-4.04947e-06
2.3748e-05
-4.26893e-06
2.37101e-05
-5.1995e-06
2.3664e-05
-5.18188e-06
2.3429e-05
-5.75705e-06
2.29663e-05
-5.10856e-06
2.23524e-05
-5.08036e-06
2.18427e-05
-3.94152e-06
2.14453e-05
-3.53317e-06
2.08195e-05
-1.8251e-06
2.01469e-05
-1.12235e-06
1.95667e-05
7.22889e-07
1.93551e-05
1.55857e-06
1.92657e-05
3.46743e-06
1.90462e-05
4.27105e-06
1.85129e-05
5.86484e-06
1.77497e-05
6.15986e-06
1.69087e-05
7.15504e-06
1.63026e-05
6.83573e-06
1.59323e-05
7.52844e-06
1.57626e-05
6.90731e-06
1.60548e-05
7.33294e-06
1.61733e-05
6.64402e-06
1.67532e-05
6.69817e-06
1.71846e-05
5.849e-06
1.77791e-05
5.76313e-06
1.83837e-05
4.61509e-06
1.90202e-05
4.43714e-06
1.96595e-05
3.09421e-06
2.03177e-05
2.88277e-06
2.0899e-05
1.41308e-06
2.15745e-05
1.2512e-06
2.20573e-05
-1.433e-07
2.2759e-05
-2.5622e-07
2.31896e-05
-1.40467e-06
2.38946e-05
-1.46768e-06
2.43192e-05
-2.31321e-06
2.50254e-05
-2.39832e-06
2.54579e-05
-3.00224e-06
2.61298e-05
-3.17993e-06
2.65292e-05
-3.6449e-06
2.71664e-05
-3.93969e-06
2.74615e-05
-4.36137e-06
2.80672e-05
-4.76491e-06
2.82522e-05
-5.20686e-06
2.88004e-05
-5.62228e-06
2.89137e-05
-6.17734e-06
2.93634e-05
-6.53806e-06
2.94468e-05
-7.19847e-06
2.9812e-05
-7.51741e-06
2.97662e-05
-8.18649e-06
3.00768e-05
-8.43583e-06
2.98768e-05
-9.15934e-06
3.00098e-05
-8.97903e-06
2.97144e-05
-9.81283e-06
2.96794e-05
-9.36839e-06
2.9176e-05
-1.01843e-05
2.89919e-05
-9.32545e-06
2.83148e-05
-9.924e-06
2.78575e-05
-8.4646e-06
2.71672e-05
-9.06686e-06
2.65798e-05
-7.63138e-06
2.59384e-05
-8.24953e-06
2.52162e-05
-6.46495e-06
2.47663e-05
-7.00033e-06
2.41107e-05
-5.01268e-06
2.3583e-05
-5.55659e-06
2.29865e-05
-3.70236e-06
2.27274e-05
-4.29983e-06
2.20974e-05
-2.38238e-06
2.20015e-05
-2.86993e-06
2.13493e-05
-1.05499e-06
2.11037e-05
-1.36392e-06
2.02124e-05
2.55458e-07
1.97532e-05
-5.20756e-09
1.91125e-05
1.63637e-06
1.91556e-05
1.57699e-06
1.8707e-05
3.28827e-06
1.95674e-05
3.19257e-06
2.01095e-05
5.57552e-06
2.12389e-05
5.72638e-06
2.06685e-05
8.27759e-06
2.10721e-05
7.43284e-06
2.06823e-05
1.03093e-05
2.2434e-05
8.64213e-06
2.26425e-05
1.28659e-05
2.46091e-05
1.00854e-05
2.45269e-05
1.53144e-05
2.54464e-05
1.08391e-05
2.58115e-05
1.62122e-05
2.52322e-05
1.06986e-05
1.60349e-05
2.69076e-05
2.84769e-05
4.62732e-07
2.81891e-05
1.66715e-06
2.81529e-05
1.61369e-06
2.78605e-05
2.4094e-06
2.78783e-05
1.49805e-06
2.77409e-05
1.9233e-06
2.79898e-05
9.76655e-07
2.80372e-05
1.30604e-06
2.83247e-05
2.08057e-07
2.83453e-05
1.32261e-07
2.84767e-05
-1.10996e-06
2.82717e-05
-1.07691e-06
2.81503e-05
-2.10595e-06
2.77054e-05
-1.6563e-06
2.76147e-05
-2.71554e-06
2.73242e-05
-2.05615e-06
2.75958e-05
-3.04315e-06
2.76615e-05
-2.12897e-06
2.81172e-05
-2.5163e-06
2.82382e-05
-1.27037e-06
2.85225e-05
-1.20657e-06
2.83721e-05
9.84217e-08
2.83386e-05
7.26958e-08
2.79451e-05
1.12728e-06
2.7793e-05
6.82712e-07
2.73416e-05
1.52755e-06
2.72606e-05
6.72346e-07
2.68766e-05
1.46618e-06
2.69267e-05
3.82065e-07
2.66676e-05
1.16048e-06
2.68083e-05
8.15699e-08
2.66669e-05
8.1339e-07
2.68539e-05
-1.72134e-07
2.67715e-05
5.36893e-07
2.69772e-05
-3.91689e-07
2.68996e-05
3.38206e-07
2.71085e-05
-6.04156e-07
2.70252e-05
1.74988e-07
2.72197e-05
-7.68686e-07
2.71278e-05
5.90453e-08
2.7308e-05
-8.96924e-07
2.71911e-05
2.08916e-08
2.73546e-05
-9.59291e-07
2.72077e-05
4.53862e-08
2.73239e-05
-9.14311e-07
2.71571e-05
1.21504e-07
2.71944e-05
-7.56541e-07
2.70204e-05
2.54515e-07
2.69684e-05
-5.0913e-07
2.67886e-05
4.79787e-07
2.6673e-05
-2.26362e-07
2.64853e-05
7.74678e-07
2.63433e-05
7.53311e-08
2.61649e-05
1.10693e-06
2.60364e-05
3.70918e-07
2.58854e-05
1.40174e-06
2.57748e-05
6.23385e-07
2.56912e-05
1.58363e-06
2.55941e-05
7.93964e-07
2.56153e-05
1.63252e-06
2.55415e-05
8.44474e-07
2.56847e-05
1.54818e-06
2.56717e-05
7.35796e-07
2.59098e-05
1.33933e-06
2.60076e-05
4.71991e-07
2.63021e-05
9.99654e-07
2.65158e-05
7.0795e-08
2.68216e-05
5.40137e-07
2.71116e-05
-4.74028e-07
2.74095e-05
-4.87272e-08
2.76642e-05
-1.06824e-06
2.79222e-05
-7.15004e-07
2.80876e-05
-1.67657e-06
2.82552e-05
-1.3647e-06
2.82875e-05
-2.19007e-06
2.83676e-05
-1.9183e-06
2.82388e-05
-2.49224e-06
2.82543e-05
-2.25007e-06
2.79889e-05
-2.57548e-06
2.79436e-05
-2.24617e-06
2.76236e-05
-2.46475e-06
2.75083e-05
-1.90802e-06
2.71912e-05
-2.12478e-06
2.70401e-05
-1.35002e-06
2.67306e-05
-1.52417e-06
2.65571e-05
-6.34848e-07
2.6276e-05
-7.47942e-07
2.61023e-05
2.38154e-07
2.58307e-05
1.17533e-07
2.56585e-05
1.18147e-06
2.53894e-05
1.0525e-06
2.52198e-05
2.05033e-06
2.49336e-05
1.96279e-06
2.47725e-05
2.78993e-06
2.45337e-05
2.60548e-06
2.44964e-05
3.26086e-06
2.45034e-05
2.84445e-06
2.47042e-05
3.29423e-06
2.49923e-05
2.61924e-06
2.54534e-05
2.70291e-06
2.57925e-05
1.82496e-06
2.62401e-05
1.42243e-06
2.64125e-05
3.81427e-07
2.66746e-05
-2.43677e-07
2.67342e-05
-1.3141e-06
2.69165e-05
-1.84828e-06
2.69438e-05
-2.81874e-06
2.71218e-05