/*--------------------------------*- C++ -*----------------------------------*\
| =========                 |                                                 |
| \\      /  F ield         | OpenFOAM: The Open Source CFD Toolbox           |
|  \\    /   O peration     | Version:  2.4.0                                 |
|   \\  /    A nd           | Web:      www.OpenFOAM.org                      |
|    \\/     M anipulation  |                                                 |
\*---------------------------------------------------------------------------*/
FoamFile
{
    version     2.0;
    format      ascii;
    class       volSymmTensorField;
    location    "1.43";
    object      UPrime2Mean;
}
// * * * * * * * * * * * * * * * * * * * * * * * * * * * * * * * * * * * * * //

dimensions      [0 2 -2 0 0 0 0];

internalField   nonuniform List<symmTensor> 
8800
(
(0.00118949 6.8107e-05 0 0.000134317 0 0)
(0.0225034 -0.000876454 0 4.98107e-05 0 0)
(0.0441424 -7.75931e-05 0 1.19107e-05 0 0)
(0.0555837 0.000127011 0 5.01542e-06 0 0)
(0.0631413 9.10038e-05 0 3.81228e-06 0 0)
(0.0704956 5.05991e-05 0 4.4445e-06 0 0)
(0.0742886 1.72183e-05 0 5.25241e-06 0 0)
(0.0781933 -3.1198e-05 0 6.80602e-06 0 0)
(0.0808015 -4.66896e-05 0 7.4148e-06 0 0)
(0.0829069 -7.9356e-05 0 9.07027e-06 0 0)
(0.0853203 -8.50509e-05 0 9.37658e-06 0 0)
(0.0866167 -0.000122177 0 1.14008e-05 0 0)
(0.0890624 -0.000131767 0 1.1714e-05 0 0)
(0.0906905 -0.000172125 0 1.42391e-05 0 0)
(0.0939764 -0.000254356 0 1.64012e-05 0 0)
(0.0966971 -0.000204849 0 2.15049e-05 0 0)
(0.105715 -0.000877054 0 2.91556e-05 0 0)
(0.106316 0.00109957 0 8.24354e-05 0 0)
(0.169421 -0.0119099 0 0.00122917 0 0)
(0.179168 0.0202135 0 0.00401997 0 0)
(0.00681226 0.00192787 0 0.000811168 0 0)
(0.00143022 -0.000795525 0 0.00106959 0 0)
(0.0109287 -0.00140295 0 0.000445356 0 0)
(0.0185321 -0.00152363 0 0.000175959 0 0)
(0.0277906 -0.00139812 0 0.000103124 0 0)
(0.041742 -0.00130724 0 8.34564e-05 0 0)
(0.0530299 -0.0014591 0 8.90653e-05 0 0)
(0.0642294 -0.00109554 0 6.69524e-05 0 0)
(0.0784064 -0.00142995 0 8.19556e-05 0 0)
(0.0823349 -0.00113297 0 6.92323e-05 0 0)
(0.100545 -0.00151235 0 8.78044e-05 0 0)
(0.0981678 -0.00138975 0 8.61158e-05 0 0)
(0.119815 -0.00186583 0 0.000114722 0 0)
(0.114142 -0.00183829 0 0.000119155 0 0)
(0.140468 -0.00259017 0 0.000181313 0 0)
(0.13295 -0.00331316 0 0.000233885 0 0)
(0.172399 -0.00308254 0 0.00034715 0 0)
(0.162045 -0.00915833 0 0.00101748 0 0)
(0.246556 -0.00494 0 0.000812258 0 0)
(0.266944 -0.0404611 0 0.0145105 0 0)
(0.0136563 0.00104548 0 0.000502473 0 0)
(0.0113962 0.000321175 0 0.00121064 0 0)
(0.0294455 0.000185544 0 0.000766537 0 0)
(0.0320251 -0.00072462 0 0.000427494 0 0)
(0.044967 -0.000878277 0 0.000338897 0 0)
(0.0523669 -0.00147233 0 0.000327483 0 0)
(0.068589 -0.00273885 0 0.000357139 0 0)
(0.0741797 -0.00200113 0 0.000258878 0 0)
(0.103287 -0.00396653 0 0.000313495 0 0)
(0.0971055 -0.00275557 0 0.000218824 0 0)
(0.142038 -0.00483115 0 0.000296522 0 0)
(0.120076 -0.00366295 0 0.000249441 0 0)
(0.181375 -0.00623094 0 0.00039735 0 0)
(0.141854 -0.00465199 0 0.000360317 0 0)
(0.226932 -0.00902703 0 0.000699524 0 0)
(0.162966 -0.00636334 0 0.000679434 0 0)
(0.291442 -0.0141562 0 0.00151662 0 0)
(0.185196 -0.0103495 0 0.00198696 0 0)
(0.378097 -0.0228269 0 0.00426269 0 0)
(0.238653 -0.0336576 0 0.0174159 0 0)
(0.0579156 0.000131 0 0.000350113 0 0)
(0.0645941 -1.15275e-05 0 0.000919997 0 0)
(0.102515 -0.000562238 0 0.000734748 0 0)
(0.105583 -0.00140522 0 0.000473644 0 0)
(0.133576 -0.000992418 0 0.000449336 0 0)
(0.135157 -0.00189109 0 0.000508078 0 0)
(0.167628 -0.00375594 0 0.000631218 0 0)
(0.159866 -0.00216978 0 0.000509565 0 0)
(0.210037 -0.0068588 0 0.000694991 0 0)
(0.181981 -0.00396031 0 0.000479396 0 0)
(0.258059 -0.00930158 0 0.000694474 0 0)
(0.202907 -0.00623552 0 0.000555245 0 0)
(0.309662 -0.0123867 0 0.000912498 0 0)
(0.223722 -0.0083476 0 0.000770481 0 0)
(0.372624 -0.0178272 0 0.00151923 0 0)
(0.249437 -0.0112693 0 0.00132962 0 0)
(0.46443 -0.0278891 0 0.00305711 0 0)
(0.265832 -0.0177424 0 0.00394373 0 0)
(0.57638 -0.0398623 0 0.00704821 0 0)
(0.262289 -0.0341213 0 0.0228972 0 0)
(0.225896 -0.000793613 0 0.000356574 0 0)
(0.2124 -0.000667426 0 0.000801913 0 0)
(0.249256 -0.00375205 0 0.000847666 0 0)
(0.227366 -0.00397745 0 0.00065117 0 0)
(0.261005 -0.00403516 0 0.000637212 0 0)
(0.240145 -0.00521392 0 0.000708449 0 0)
(0.281337 -0.00722408 0 0.000961028 0 0)
(0.252322 -0.00490828 0 0.000785279 0 0)
(0.30929 -0.0113957 0 0.0012405 0 0)
(0.265075 -0.00685129 0 0.000890454 0 0)
(0.339825 -0.0146955 0 0.00137761 0 0)
(0.278394 -0.00980991 0 0.0010734 0 0)
(0.371026 -0.0186433 0 0.00179814 0 0)
(0.296305 -0.0122477 0 0.00139846 0 0)
(0.414171 -0.0251005 0 0.00265974 0 0)
(0.3318 -0.0158782 0 0.00203097 0 0)
(0.481924 -0.0389897 0 0.00509354 0 0)
(0.357809 -0.025266 0 0.00559547 0 0)
(0.548294 -0.0549802 0 0.0117279 0 0)
(0.353084 -0.0336234 0 0.0275497 0 0)
(0.274411 -0.00528909 0 0.00112022 0 0)
(0.223065 -0.00299541 0 0.00157934 0 0)
(0.222409 -0.00859695 0 0.00196611 0 0)
(0.183167 -0.00571432 0 0.00133992 0 0)
(0.197779 -0.00826217 0 0.00171076 0 0)
(0.175685 -0.00734702 0 0.00150727 0 0)
(0.186948 -0.00976397 0 0.00208589 0 0)
(0.171739 -0.00716535 0 0.00157829 0 0)
(0.183275 -0.0123208 0 0.00258141 0 0)
(0.174394 -0.00901772 0 0.00180445 0 0)
(0.18279 -0.0145537 0 0.00298178 0 0)
(0.181794 -0.011874 0 0.00224689 0 0)
(0.182119 -0.0165712 0 0.00369743 0 0)
(0.194696 -0.01398 0 0.0028473 0 0)
(0.190013 -0.01947 0 0.00497326 0 0)
(0.219619 -0.0179145 0 0.00370792 0 0)
(0.198929 -0.0283285 0 0.0094405 0 0)
(0.245986 -0.025948 0 0.00856503 0 0)
(0.195073 -0.0338629 0 0.0204562 0 0)
(0.28485 -0.0328084 0 0.0263394 0 0)
(0.115304 -0.00729617 0 0.00237545 0 0)
(0.0971983 -0.00713127 0 0.00335407 0 0)
(0.0883447 -0.00739622 0 0.00323082 0 0)
(0.0838342 -0.00772747 0 0.00277141 0 0)
(0.0839273 -0.00719061 0 0.00329386 0 0)
(0.0878709 -0.00785684 0 0.00309045 0 0)
(0.0840191 -0.00713037 0 0.00345292 0 0)
(0.093754 -0.00787746 0 0.00317389 0 0)
(0.0887739 -0.00763107 0 0.00387921 0 0)
(0.106874 -0.00909993 0 0.00347574 0 0)
(0.0967096 -0.00870001 0 0.00440384 0 0)
(0.124892 -0.011563 0 0.00421292 0 0)
(0.105473 -0.00971145 0 0.00538982 0 0)
(0.141101 -0.0139323 0 0.00529303 0 0)
(0.112631 -0.00870211 0 0.0068001 0 0)
(0.156042 -0.015012 0 0.00678553 0 0)
(0.120499 -0.00786418 0 0.0122696 0 0)
(0.176825 -0.0167621 0 0.014 0 0)
(0.12817 -5.01946e-05 0 0.0242986 0 0)
(0.213336 -0.01326 0 0.0374867 0 0)
(0.117242 -0.00719481 0 0.00310293 0 0)
(0.138312 -0.0119417 0 0.00607015 0 0)
(0.11218 -0.00585137 0 0.00455549 0 0)
(0.140012 -0.00938039 0 0.00415186 0 0)
(0.132006 -0.00671286 0 0.00461073 0 0)
(0.142493 -0.00769741 0 0.00478915 0 0)
(0.145245 -0.00515163 0 0.00445085 0 0)
(0.150606 -0.00750599 0 0.00488052 0 0)
(0.158593 -0.00398753 0 0.00490615 0 0)
(0.166494 -0.00742932 0 0.00519297 0 0)
(0.185295 -0.00381897 0 0.00542572 0 0)
(0.192527 -0.00865834 0 0.00600016 0 0)
(0.23079 -0.00474175 0 0.00639289 0 0)
(0.228309 -0.0121895 0 0.00756388 0 0)
(0.264309 -0.00212004 0 0.00777383 0 0)
(0.252199 -0.00985562 0 0.00934842 0 0)
(0.286674 0.00540917 0 0.0128299 0 0)
(0.270894 -0.00698728 0 0.0190271 0 0)
(0.308285 0.0191607 0 0.0247904 0 0)
(0.297844 0.00274617 0 0.0437077 0 0)
(0.212336 -0.00382797 0 0.00311278 0 0)
(0.23003 -0.00817479 0 0.0079567 0 0)
(0.204734 -0.00162031 0 0.00505456 0 0)
(0.206593 -0.00441095 0 0.00480439 0 0)
(0.227566 -0.00220271 0 0.00501319 0 0)
(0.197289 -0.0026105 0 0.00536535 0 0)
(0.251158 -0.00018987 0 0.00461803 0 0)
(0.195747 -0.0018187 0 0.00550912 0 0)
(0.26595 0.00255757 0 0.00496698 0 0)
(0.203512 -0.000711543 0 0.00593477 0 0)
(0.290297 0.00488263 0 0.00541792 0 0)
(0.229106 0.000288065 0 0.00643363 0 0)
(0.341595 0.00579791 0 0.00623535 0 0)
(0.275349 -0.00242433 0 0.00790293 0 0)
(0.417983 0.00685495 0 0.00727764 0 0)
(0.324419 0.000181302 0 0.00920803 0 0)
(0.457989 0.017953 0 0.0103461 0 0)
(0.352969 0.00452442 0 0.0188153 0 0)
(0.478502 0.0308854 0 0.0210775 0 0)
(0.405155 0.00989688 0 0.0377038 0 0)
(0.235168 6.39906e-05 0 0.00255955 0 0)
(0.246686 0.000256942 0 0.00694592 0 0)
(0.232134 0.00177758 0 0.00424934 0 0)
(0.209922 0.00213877 0 0.00439524 0 0)
(0.245435 0.00245092 0 0.00418761 0 0)
(0.199675 0.00281754 0 0.00484776 0 0)
(0.254132 0.00403887 0 0.00395415 0 0)
(0.197764 0.00416587 0 0.00503225 0 0)
(0.254547 0.00671502 0 0.00415919 0 0)
(0.203093 0.00550532 0 0.00543538 0 0)
(0.261527 0.00886938 0 0.00464365 0 0)
(0.222717 0.00773105 0 0.00573115 0 0)
(0.288757 0.0107225 0 0.00507088 0 0)
(0.26633 0.00767877 0 0.00655213 0 0)
(0.358834 0.0121683 0 0.00558769 0 0)
(0.332052 0.0105536 0 0.00738615 0 0)
(0.429147 0.0207925 0 0.00665246 0 0)
(0.380349 0.0196705 0 0.0115318 0 0)
(0.45474 0.0309672 0 0.012691 0 0)
(0.493493 0.0208197 0 0.02507 0 0)
(0.149046 0.002079 0 0.00209441 0 0)
(0.158274 0.00432904 0 0.00517082 0 0)
(0.137625 0.00387093 0 0.00339991 0 0)
(0.14449 0.00573279 0 0.00323509 0 0)
(0.142903 0.00489944 0 0.00348217 0 0)
(0.141147 0.00591256 0 0.00390813 0 0)
(0.145796 0.00565729 0 0.00335961 0 0)
(0.145594 0.00763115 0 0.00403992 0 0)
(0.142642 0.00739595 0 0.0034566 0 0)
(0.153154 0.00926613 0 0.00434988 0 0)
(0.143282 0.00880977 0 0.00387846 0 0)
(0.168281 0.0115612 0 0.00465107 0 0)
(0.153853 0.01122 0 0.00417018 0 0)
(0.201439 0.0139156 0 0.00509039 0 0)
(0.196595 0.01302 0 0.00446086 0 0)
(0.264341 0.0170262 0 0.00564453 0 0)
(0.260033 0.0167734 0 0.00507484 0 0)
(0.327573 0.0249527 0 0.00710807 0 0)
(0.273069 0.0243519 0 0.00816194 0 0)
(0.41273 0.0322866 0 0.0155975 0 0)
(0.0594447 0.00191956 0 0.00179061 0 0)
(0.0630043 0.00381185 0 0.00399351 0 0)
(0.0511117 0.0030532 0 0.00281304 0 0)
(0.0663344 0.00502464 0 0.00263431 0 0)
(0.0533334 0.00363468 0 0.00288431 0 0)
(0.0695828 0.00512258 0 0.00313057 0 0)
(0.0562207 0.00355664 0 0.00282815 0 0)
(0.0758399 0.00644262 0 0.0032607 0 0)
(0.056092 0.00425163 0 0.00280366 0 0)
(0.0840289 0.00765242 0 0.00335918 0 0)
(0.0559668 0.00471217 0 0.00308492 0 0)
(0.094511 0.00869544 0 0.00356217 0 0)
(0.058472 0.00554645 0 0.00332124 0 0)
(0.108909 0.0105021 0 0.00383796 0 0)
(0.066613 0.00660089 0 0.00345196 0 0)
(0.140688 0.0129031 0 0.00410635 0 0)
(0.0917629 0.00740016 0 0.00377628 0 0)
(0.194103 0.0149705 0 0.00495894 0 0)
(0.113244 0.0101829 0 0.0054931 0 0)
(0.256201 0.0216977 0 0.00979131 0 0)
(0.0179132 0.000567517 0 0.00144402 0 0)
(0.0166579 0.00122417 0 0.0030347 0 0)
(0.0133227 0.000772023 0 0.00236545 0 0)
(0.0211267 0.00222892 0 0.00207422 0 0)
(0.0157838 0.00111962 0 0.002245 0 0)
(0.0248062 0.00219459 0 0.00227475 0 0)
(0.0178029 0.000788148 0 0.00225425 0 0)
(0.0298949 0.00261025 0 0.00244035 0 0)
(0.0180451 0.0009351 0 0.00216074 0 0)
(0.0351421 0.00309135 0 0.00240536 0 0)
(0.0188347 0.000989021 0 0.0022965 0 0)
(0.0406604 0.00318165 0 0.00249488 0 0)
(0.0211259 0.00111582 0 0.00249292 0 0)
(0.0468367 0.0035087 0 0.00257639 0 0)
(0.0239512 0.00145815 0 0.00248412 0 0)
(0.054572 0.00439403 0 0.00271428 0 0)
(0.0289311 0.0024474 0 0.0026288 0 0)
(0.069734 0.00612395 0 0.0030482 0 0)
(0.0450441 0.00538296 0 0.00360922 0 0)
(0.101794 0.0115715 0 0.00578906 0 0)
(0.00702344 -0.000448778 0 0.00112378 0 0)
(0.0030273 -0.000878617 0 0.00243585 0 0)
(0.00358139 -0.00112085 0 0.00207089 0 0)
(0.00558454 -0.000166924 0 0.00153119 0 0)
(0.00562258 -0.000344404 0 0.00168018 0 0)
(0.0082594 -0.00041796 0 0.0016672 0 0)
(0.0085893 -0.000703068 0 0.00175521 0 0)
(0.0112532 -0.000484917 0 0.00179198 0 0)
(0.0105016 -0.000715131 0 0.00160688 0 0)
(0.0140516 -0.000164616 0 0.00167959 0 0)
(0.0126737 -0.000581724 0 0.00165319 0 0)
(0.0170973 -9.94439e-05 0 0.00169662 0 0)
(0.0157218 -0.000439149 0 0.00176036 0 0)
(0.020906 -2.28952e-05 0 0.00171744 0 0)
(0.0195565 -3.7281e-05 0 0.00163875 0 0)
(0.0255646 0.00058867 0 0.00161949 0 0)
(0.0248595 0.000913778 0 0.00156185 0 0)
(0.0332594 0.00224064 0 0.00172818 0 0)
(0.0356299 0.00401546 0 0.00209343 0 0)
(0.0502948 0.00791802 0 0.00368837 0 0)
(0.00734216 -0.000556408 0 0.000823536 0 0)
(0.00222719 -0.000984336 0 0.00193485 0 0)
(0.0031395 -0.00129943 0 0.00171429 0 0)
(0.00400665 -0.000829178 0 0.00118353 0 0)
(0.00601736 -0.000580486 0 0.00127709 0 0)
(0.00640523 -0.000805328 0 0.00127236 0 0)
(0.00868186 -0.000934381 0 0.00141202 0 0)
(0.00894388 -0.00120443 0 0.00145726 0 0)
(0.0113227 -0.00105154 0 0.00132959 0 0)
(0.0114572 -0.000817393 0 0.00129062 0 0)
(0.0138682 -0.000705886 0 0.00121999 0 0)
(0.0140427 -0.000592344 0 0.00121782 0 0)
(0.016751 -0.0005104 0 0.00123876 0 0)
(0.017235 -0.000569511 0 0.00119003 0 0)
(0.0200127 -0.000217331 0 0.00109895 0 0)
(0.0208877 -9.89385e-05 0 0.00103443 0 0)
(0.0242837 0.000593193 0 0.000934196 0 0)
(0.0270546 0.00120808 0 0.000992837 0 0)
(0.033184 0.00309219 0 0.00122155 0 0)
(0.041396 0.00563686 0 0.00212241 0 0)
(0.00850716 -0.000500231 0 0.000502625 0 0)
(0.0032925 -0.000259051 0 0.00133271 0 0)
(0.0035478 -0.000740735 0 0.00122471 0 0)
(0.00464281 -0.000565089 0 0.000834894 0 0)
(0.00740403 -0.000483281 0 0.000973122 0 0)
(0.00723388 -0.000506329 0 0.000927989 0 0)
(0.00986358 -0.000699437 0 0.00100409 0 0)
(0.00890595 -0.000716842 0 0.00105293 0 0)
(0.011191 -0.000768 0 0.000983051 0 0)
(0.00975214 -0.000396181 0 0.00091943 0 0)
(0.011975 -0.00039825 0 0.000829961 0 0)
(0.0101892 -0.000121955 0 0.000790125 0 0)
(0.0122952 -0.000123187 0 0.000755985 0 0)
(0.0102225 -4.32669e-05 0 0.000735398 0 0)
(0.0120532 5.25512e-05 0 0.000646376 0 0)
(0.0102458 0.000131499 0 0.000619203 0 0)
(0.0122983 0.000523161 0 0.000505787 0 0)
(0.0119576 0.00081969 0 0.000558741 0 0)
(0.0160047 0.00202047 0 0.000679115 0 0)
(0.0202477 0.00323843 0 0.00117881 0 0)
(0.00770321 -0.000763138 0 0.000360674 0 0)
(0.00285952 -0.000163497 0 0.0010751 0 0)
(0.00337644 -0.000466355 0 0.000887402 0 0)
(0.00490007 -0.000433785 0 0.000549358 0 0)
(0.00688359 -0.000389616 0 0.00062601 0 0)
(0.00589447 -0.000279558 0 0.000628911 0 0)
(0.00659563 -0.000246078 0 0.00065103 0 0)
(0.00493993 9.95005e-05 0 0.000637454 0 0)
(0.00483516 0.000137468 0 0.000564018 0 0)
(0.00387986 0.000530927 0 0.000489382 0 0)
(0.00362468 0.000462997 0 0.000427255 0 0)
(0.00374573 0.000766543 0 0.000399989 0 0)
(0.00326655 0.00064147 0 0.000367814 0 0)
(0.00434423 0.00086535 0 0.000360878 0 0)
(0.00355693 0.000601033 0 0.000307635 0 0)
(0.0054105 0.000822091 0 0.000311481 0 0)
(0.00475862 0.000470453 0 0.000259028 0 0)
(0.00721985 0.000861621 0 0.000291297 0 0)
(0.0079524 0.000773475 0 0.000428673 0 0)
(0.0115682 0.00162401 0 0.00059842 0 0)
(0.00676341 -0.00138321 0 0.000485603 0 0)
(0.00152314 -0.000503879 0 0.00122521 0 0)
(0.00164987 -0.000165766 0 0.000781143 0 0)
(0.00215938 5.11613e-05 0 0.000431973 0 0)
(0.00230582 0.000405815 0 0.000379777 0 0)
(0.00258319 0.000766347 0 0.000345935 0 0)
(0.00421913 0.000959147 0 0.000319631 0 0)
(0.00767531 0.00116598 0 0.000281146 0 0)
(0.00986538 0.00107694 0 0.000229242 0 0)
(0.0154287 0.00113985 0 0.000187409 0 0)
(0.0166157 0.000967986 0 0.000159594 0 0)
(0.0235316 0.00103949 0 0.000149884 0 0)
(0.023079 0.00084695 0 0.000142693 0 0)
(0.0309763 0.000950176 0 0.000138529 0 0)
(0.028936 0.0005742 0 0.000121674 0 0)
(0.0368153 0.000760432 0 0.000123615 0 0)
(0.0338116 2.92003e-05 0 0.000111655 0 0)
(0.0396256 0.000565814 0 0.000133454 0 0)
(0.037342 -0.000488744 0 0.00020059 0 0)
(0.0387581 0.0010308 0 0.000385207 0 0)
(0.00626938 -0.00200143 0 0.000802468 0 0)
(0.000871058 0.000740957 0 0.00106418 0 0)
(0.00573989 0.00149079 0 0.000442987 0 0)
(0.0114739 0.00130749 0 0.000174104 0 0)
(0.0181346 0.00123059 0 0.000107954 0 0)
(0.0269228 0.00111377 0 8.37395e-05 0 0)
(0.0348624 0.000920446 0 7.27219e-05 0 0)
(0.0438672 0.000776176 0 6.26065e-05 0 0)
(0.0491452 0.000606833 0 5.44705e-05 0 0)
(0.0570406 0.000544799 0 4.92031e-05 0 0)
(0.0595015 0.000439725 0 4.7216e-05 0 0)
(0.0669836 0.000451245 0 4.64294e-05 0 0)
(0.0671931 0.000350906 0 4.66594e-05 0 0)
(0.0747752 0.000390515 0 4.34197e-05 0 0)
(0.0730415 0.000183619 0 3.98463e-05 0 0)
(0.0800122 0.000237749 0 3.76124e-05 0 0)
(0.0764672 -0.000212755 0 3.74038e-05 0 0)
(0.0800345 7.77746e-05 0 4.14161e-05 0 0)
(0.0770831 -0.000829018 0 6.84385e-05 0 0)
(0.0715545 0.00041035 0 0.000216027 0 0)
(0.00117341 -7.07899e-05 0 0.000133827 0 0)
(0.0225177 0.000877488 0 4.89603e-05 0 0)
(0.0439823 7.86329e-05 0 1.1582e-05 0 0)
(0.0547776 -0.000137444 0 4.62765e-06 0 0)
(0.0627396 -0.000105118 0 3.2799e-06 0 0)
(0.0689422 -8.07797e-05 0 3.46501e-06 0 0)
(0.0728209 -5.66087e-05 0 4.04539e-06 0 0)
(0.076244 -2.82247e-05 0 4.20348e-06 0 0)
(0.0780803 -1.9574e-05 0 4.61326e-06 0 0)
(0.0805234 -4.31897e-06 0 4.65091e-06 0 0)
(0.0813016 -9.1207e-06 0 4.90281e-06 0 0)
(0.0833392 3.74896e-06 0 4.73603e-06 0 0)
(0.0834502 -1.05454e-05 0 4.66376e-06 0 0)
(0.0853336 9.3866e-07 0 4.1039e-06 0 0)
(0.0847163 -3.53181e-05 0 3.78423e-06 0 0)
(0.0860413 -3.13607e-05 0 3.23997e-06 0 0)
(0.0841302 -0.000102921 0 3.12443e-06 0 0)
(0.0835918 -8.52622e-05 0 3.07052e-06 0 0)
(0.0811421 -0.000303408 0 4.58368e-06 0 0)
(0.0733881 0.000405342 0 2.86746e-05 0 0)
(0.340488 -0.167893 0 0.104422 0 0)
(0.378229 -0.19942 0 0.146956 0 0)
(0.381948 -0.190068 0 0.174975 0 0)
(0.402611 -0.167546 0 0.195123 0 0)
(0.413341 -0.141336 0 0.206814 0 0)
(0.479126 -0.124369 0 0.214865 0 0)
(0.52358 -0.118847 0 0.222492 0 0)
(0.63021 -0.131036 0 0.233928 0 0)
(0.693791 -0.148757 0 0.247487 0 0)
(0.804412 -0.172882 0 0.261467 0 0)
(0.851597 -0.190625 0 0.276677 0 0)
(0.95174 -0.212186 0 0.295618 0 0)
(0.986892 -0.223188 0 0.315602 0 0)
(1.08724 -0.242791 0 0.333457 0 0)
(1.1259 -0.25607 0 0.34541 0 0)
(1.23394 -0.284124 0 0.354852 0 0)
(1.27115 -0.309507 0 0.367269 0 0)
(1.38894 -0.350844 0 0.386145 0 0)
(1.42222 -0.38044 0 0.41284 0 0)
(1.57003 -0.424211 0 0.446411 0 0)
(1.62881 -0.450383 0 0.474817 0 0)
(1.81526 -0.501459 0 0.505032 0 0)
(1.88229 -0.536791 0 0.534292 0 0)
(2.08432 -0.597509 0 0.566648 0 0)
(2.14992 -0.633982 0 0.597534 0 0)
(2.36018 -0.698687 0 0.633526 0 0)
(2.42937 -0.7321 0 0.667419 0 0)
(2.64943 -0.807898 0 0.704682 0 0)
(2.73083 -0.845999 0 0.740627 0 0)
(2.96294 -0.935845 0 0.784397 0 0)
(3.05916 -0.979627 0 0.82871 0 0)
(3.31673 -1.08128 0 0.87827 0 0)
(3.42666 -1.12885 0 0.925988 0 0)
(3.72343 -1.24757 0 0.978662 0 0)
(3.8336 -1.30112 0 1.02849 0 0)
(4.15783 -1.43637 0 1.08366 0 0)
(4.23812 -1.48637 0 1.13131 0 0)
(4.5659 -1.62577 0 1.18403 0 0)
(4.60066 -1.66279 0 1.22899 0 0)
(4.91583 -1.79985 0 1.28056 0 0)
(4.90531 -1.81172 0 1.32438 0 0)
(5.18892 -1.9363 0 1.37521 0 0)
(5.13812 -1.92453 0 1.41627 0 0)
(5.40781 -2.03985 0 1.46788 0 0)
(5.33173 -2.01619 0 1.50827 0 0)
(5.61991 -2.13196 0 1.56221 0 0)
(5.53063 -2.10283 0 1.60396 0 0)
(5.8644 -2.22813 0 1.6646 0 0)
(5.76834 -2.20034 0 1.7102 0 0)
(6.15701 -2.33681 0 1.78285 0 0)
(6.04133 -2.31592 0 1.83722 0 0)
(6.47897 -2.45867 0 1.92664 0 0)
(6.29959 -2.42949 0 1.99392 0 0)
(6.76495 -2.568 0 2.0928 0 0)
(6.4802 -2.49835 0 2.15575 0 0)
(6.94857 -2.62457 0 2.24791 0 0)
(6.55249 -2.50115 0 2.28722 0 0)
(7.029 -2.6203 0 2.35775 0 0)
(6.53999 -2.46339 0 2.37706 0 0)
(7.06785 -2.59668 0 2.43453 0 0)
(6.49221 -2.43361 0 2.45507 0 0)
(7.10163 -2.59485 0 2.51984 0 0)
(6.4206 -2.42215 0 2.55235 0 0)
(7.09336 -2.59858 0 2.63171 0 0)
(6.29703 -2.38494 0 2.65819 0 0)
(7.00939 -2.53854 0 2.72833 0 0)
(6.13515 -2.27668 0 2.7104 0 0)
(6.91981 -2.37593 0 2.72925 0 0)
(5.99769 -2.11382 0 2.68454 0 0)
(6.94078 -2.22052 0 2.71105 0 0)
(5.95583 -1.98268 0 2.69857 0 0)
(7.08878 -2.12736 0 2.73348 0 0)
(5.99892 -1.87714 0 2.71961 0 0)
(7.3345 -2.09379 0 2.76183 0 0)
(6.11319 -1.8214 0 2.77917 0 0)
(7.60983 -2.11484 0 2.86525 0 0)
(6.28941 -1.80754 0 2.91672 0 0)
(7.85566 -2.15706 0 3.05021 0 0)
(6.4625 -1.82148 0 3.11319 0 0)
(8.05426 -2.17661 0 3.27215 0 0)
(6.54944 -1.82476 0 3.3201 0 0)
(8.21213 -2.17721 0 3.4566 0 0)
(6.56868 -1.81653 0 3.47395 0 0)
(8.33899 -2.18816 0 3.58835 0 0)
(6.58299 -1.80311 0 3.57631 0 0)
(8.38161 -2.18267 0 3.68627 0 0)
(6.64681 -1.78549 0 3.67608 0 0)
(8.4145 -2.16542 0 3.82603 0 0)
(6.76231 -1.78924 0 3.84657 0 0)
(8.53188 -2.15911 0 4.02736 0 0)
(6.92222 -1.82622 0 4.06023 0 0)
(8.7167 -2.2247 0 4.23511 0 0)
(7.15233 -1.91384 0 4.27149 0 0)
(8.96289 -2.33925 0 4.46381 0 0)
(7.41147 -2.01608 0 4.50947 0 0)
(9.18069 -2.46738 0 4.73487 0 0)
(7.6604 -2.11733 0 4.80178 0 0)
(9.33901 -2.57183 0 5.07413 0 0)
(7.83497 -2.20093 0 5.17493 0 0)
(9.33259 -2.63523 0 5.49765 0 0)
(7.85581 -2.23468 0 5.63117 0 0)
(9.24404 -2.66103 0 5.9784 0 0)
(7.7336 -2.24389 0 6.13813 0 0)
(9.1329 -2.68441 0 6.51496 0 0)
(7.55094 -2.25237 0 6.58431 0 0)
(9.02962 -2.71347 0 6.91803 0 0)
(7.36901 -2.20119 0 6.91049 0 0)
(8.97497 -2.67759 0 7.16085 0 0)
(7.23671 -2.09061 0 7.1003 0 0)
(8.93498 -2.63139 0 7.37537 0 0)
(7.14805 -2.00075 0 7.27201 0 0)
(8.86405 -2.57595 0 7.51118 0 0)
(7.14652 -1.9009 0 7.3594 0 0)
(8.81026 -2.49036 0 7.61505 0 0)
(7.21023 -1.76471 0 7.47911 0 0)
(8.72467 -2.35773 0 7.7644 0 0)
(7.26145 -1.64624 0 7.68707 0 0)
(8.61505 -2.23334 0 8.03331 0 0)
(7.3493 -1.5698 0 8.00976 0 0)
(8.58513 -2.13001 0 8.39593 0 0)
(7.49593 -1.52919 0 8.43509 0 0)
(8.57173 -2.03498 0 8.81437 0 0)
(7.5487 -1.43697 0 8.88294 0 0)
(8.48399 -1.91035 0 9.21458 0 0)
(7.48931 -1.33887 0 9.25154 0 0)
(8.34494 -1.78324 0 9.52658 0 0)
(7.32495 -1.2279 0 9.56837 0 0)
(8.16075 -1.65727 0 9.82101 0 0)
(7.23207 -1.16246 0 9.86007 0 0)
(7.98479 -1.56956 0 10.0532 0 0)
(7.30041 -1.19501 0 10.1521 0 0)
(7.89317 -1.51859 0 10.3424 0 0)
(7.46754 -1.2681 0 10.4652 0 0)
(7.85666 -1.45736 0 10.6146 0 0)
(7.60176 -1.33044 0 10.7516 0 0)
(7.84719 -1.3806 0 10.8802 0 0)
(7.74888 -1.32589 0 11.0196 0 0)
(7.914 -1.27426 0 11.1738 0 0)
(7.87723 -1.27207 0 11.3693 0 0)
(7.96906 -1.15218 0 11.5325 0 0)
(7.93671 -1.19851 0 11.7594 0 0)
(7.9237 -1.00119 0 11.8732 0 0)
(7.97639 -1.08913 0 12.1088 0 0)
(7.82849 -0.841995 0 12.2548 0 0)
(7.8742 -0.907976 0 12.5402 0 0)
(7.65466 -0.647277 0 12.6116 0 0)
(7.74631 -0.680574 0 12.7686 0 0)
(7.52154 -0.477272 0 12.8283 0 0)
(7.64104 -0.434342 0 13.0102 0 0)
(7.38356 -0.326326 0 13.0523 0 0)
(7.50965 -0.240645 0 13.1724 0 0)
(7.23405 -0.196498 0 13.1543 0 0)
(7.36118 -0.0684701 0 13.2693 0 0)
(7.11218 -0.055639 0 13.2367 0 0)
(7.23497 0.0638346 0 13.3309 0 0)
(7.01871 0.0396066 0 13.2743 0 0)
(7.15668 0.155374 0 13.3805 0 0)
(7.00888 0.142057 0 13.3172 0 0)
(7.12469 0.215303 0 13.3999 0 0)
(6.934 0.181831 0 13.3524 0 0)
(7.02214 0.259139 0 13.4839 0 0)
(6.85467 0.177542 0 13.4916 0 0)
(6.87121 0.243594 0 13.5471 0 0)
(6.78807 0.140155 0 13.5401 0 0)
(6.8216 0.204567 0 13.4951 0 0)
(6.73043 0.041306 0 13.4563 0 0)
(6.80322 0.145349 0 13.4239 0 0)
(6.6505 -0.1428 0 13.3395 0 0)
(6.75152 0.0451993 0 13.2818 0 0)
(6.60083 -0.286151 0 13.0502 0 0)
(6.66377 -0.195943 0 12.9123 0 0)
(6.6082 -0.45498 0 12.6923 0 0)
(6.50248 -0.372071 0 12.3134 0 0)
(6.69178 -0.694838 0 12.0011 0 0)
(6.41572 -0.40377 0 11.5947 0 0)
(6.74405 -0.786469 0 11.2918 0 0)
(6.43434 -0.390167 0 10.9261 0 0)
(6.80722 -0.804498 0 10.5415 0 0)
(6.46275 -0.430142 0 10.384 0 0)
(6.7918 -0.703471 0 9.88626 0 0)
(6.49877 -0.535031 0 9.92838 0 0)
(6.61492 -0.621572 0 9.17848 0 0)
(6.36289 -0.698545 0 9.53713 0 0)
(6.37719 -0.516971 0 8.49087 0 0)
(6.17072 -0.853198 0 9.16613 0 0)
(6.10582 -0.309135 0 7.85234 0 0)
(5.9618 -0.947318 0 8.93474 0 0)
(5.75454 -0.0641835 0 7.43279 0 0)
(5.6151 -0.941365 0 8.93889 0 0)
(5.39199 0.309811 0 7.35047 0 0)
(5.13955 -0.825597 0 9.27828 0 0)
(5.01316 0.792204 0 7.59317 0 0)
(4.63156 -0.607848 0 10.1255 0 0)
(4.38123 1.32073 0 8.2501 0 0)
(4.20121 -0.183627 0 11.7223 0 0)
(3.72024 2.22677 0 9.92139 0 0)
(3.71353 0.198572 0 14.13 0 0)
(2.93286 3.45572 0 12.9557 0 0)
(3.36399 2.2162 0 19.5454 0 0)
(1.09095 0.471918 0 21.4212 0 0)
(0.30565 -0.137955 0 0.117887 0 0)
(0.287041 -0.148136 0 0.153581 0 0)
(0.291111 -0.133109 0 0.161858 0 0)
(0.268546 -0.121179 0 0.166129 0 0)
(0.281923 -0.107077 0 0.165785 0 0)
(0.28558 -0.106114 0 0.164708 0 0)
(0.321162 -0.111482 0 0.168131 0 0)
(0.343077 -0.128267 0 0.1777 0 0)
(0.390988 -0.142123 0 0.188959 0 0)
(0.412199 -0.160595 0 0.20068 0 0)
(0.455917 -0.172255 0 0.213493 0 0)
(0.471917 -0.190073 0 0.229575 0 0)
(0.516002 -0.200364 0 0.246161 0 0)
(0.54129 -0.219262 0 0.262704 0 0)
(0.59567 -0.23085 0 0.277168 0 0)
(0.64264 -0.257778 0 0.292347 0 0)
(0.710865 -0.279025 0 0.309203 0 0)
(0.782947 -0.321737 0 0.330462 0 0)
(0.856864 -0.349606 0 0.353239 0 0)
(0.943283 -0.398956 0 0.380753 0 0)
(1.01365 -0.423972 0 0.407252 0 0)
(1.11601 -0.476013 0 0.437075 0 0)
(1.18586 -0.499563 0 0.465516 0 0)
(1.3081 -0.558647 0 0.498363 0 0)
(1.3767 -0.580515 0 0.529608 0 0)
(1.5216 -0.647215 0 0.567822 0 0)
(1.59631 -0.668256 0 0.604197 0 0)
(1.77006 -0.74591 0 0.647153 0 0)
(1.85826 -0.773178 0 0.686792 0 0)
(2.05839 -0.86653 0 0.734428 0 0)
(2.154 -0.901844 0 0.777931 0 0)
(2.37173 -1.00904 0 0.82911 0 0)
(2.45924 -1.04612 0 0.874443 0 0)
(2.68599 -1.16262 0 0.927606 0 0)
(2.74878 -1.19505 0 0.973247 0 0)
(2.97751 -1.31619 0 1.0266 0 0)
(2.9955 -1.33461 0 1.07118 0 0)
(3.22004 -1.45366 0 1.12137 0 0)
(3.18347 -1.45258 0 1.16286 0 0)
(3.4097 -1.56989 0 1.21063 0 0)
(3.32734 -1.54853 0 1.24824 0 0)
(3.56809 -1.66447 0 1.29534 0 0)
(3.45557 -1.62728 0 1.33085 0 0)
(3.72953 -1.74896 0 1.38265 0 0)
(3.60278 -1.70384 0 1.41942 0 0)
(3.91916 -1.83903 0 1.48209 0 0)
(3.78474 -1.79165 0 1.52334 0 0)
(4.14249 -1.94132 0 1.59723 0 0)
(3.99075 -1.8896 0 1.64268 0 0)
(4.38405 -2.04812 0 1.72421 0 0)
(4.18583 -1.98096 0 1.77297 0 0)
(4.61269 -2.14371 0 1.85762 0 0)
(4.3326 -2.04103 0 1.90753 0 0)
(4.7893 -2.20521 0 1.98958 0 0)
(4.41117 -2.04979 0 2.03317 0 0)
(4.89621 -2.21782 0 2.10625 0 0)
(4.43824 -2.0135 0 2.1378 0 0)
(4.96109 -2.19663 0 2.20559 0 0)
(4.4579 -1.97058 0 2.22947 0 0)
(5.02627 -2.17767 0 2.31057 0 0)
(4.49773 -1.96165 0 2.33651 0 0)
(5.10811 -2.17507 0 2.4277 0 0)
(4.53811 -1.97028 0 2.44879 0 0)
(5.18242 -2.15125 0 2.52932 0 0)
(4.53118 -1.93336 0 2.53101 0 0)
(5.21821 -2.06419 0 2.57454 0 0)
(4.46664 -1.81458 0 2.54335 0 0)
(5.25709 -1.93752 0 2.56849 0 0)
(4.42834 -1.68253 0 2.54471 0 0)
(5.36667 -1.85148 0 2.5976 0 0)
(4.46861 -1.5857 0 2.58349 0 0)
(5.5679 -1.80462 0 2.65326 0 0)
(4.59729 -1.51734 0 2.64069 0 0)
(5.83213 -1.80647 0 2.7224 0 0)
(4.79655 -1.49433 0 2.73396 0 0)
(6.10843 -1.85284 0 2.85176 0 0)
(5.02512 -1.5069 0 2.89538 0 0)
(6.34345 -1.89126 0 3.04822 0 0)
(5.20692 -1.50307 0 3.09484 0 0)
(6.50862 -1.88432 0 3.25924 0 0)
(5.29729 -1.48158 0 3.29035 0 0)
(6.64828 -1.87809 0 3.43576 0 0)
(5.38803 -1.48219 0 3.44619 0 0)
(6.77523 -1.89119 0 3.56395 0 0)
(5.5255 -1.51624 0 3.53803 0 0)
(6.9038 -1.89866 0 3.6673 0 0)
(5.70271 -1.56732 0 3.6582 0 0)
(7.07097 -1.91266 0 3.81775 0 0)
(5.93232 -1.61395 0 3.83896 0 0)
(7.31102 -1.94507 0 4.0241 0 0)
(6.18623 -1.68142 0 4.05186 0 0)
(7.60147 -2.04555 0 4.23044 0 0)
(6.45813 -1.7678 0 4.27369 0 0)
(7.90929 -2.16538 0 4.47969 0 0)
(6.73637 -1.85875 0 4.52828 0 0)
(8.17939 -2.30224 0 4.76145 0 0)
(7.02113 -1.95354 0 4.83234 0 0)
(8.3962 -2.41283 0 5.11418 0 0)
(7.24591 -2.02828 0 5.20389 0 0)
(8.47867 -2.47059 0 5.53554 0 0)
(7.3359 -2.04364 0 5.64086 0 0)
(8.42354 -2.48673 0 6.01861 0 0)
(7.2297 -2.01045 0 6.13512 0 0)
(8.30552 -2.46769 0 6.51243 0 0)
(6.98474 -1.96545 0 6.52599 0 0)
(8.17369 -2.44304 0 6.86417 0 0)
(6.72256 -1.85256 0 6.82256 0 0)
(8.08988 -2.36878 0 7.12201 0 0)
(6.55601 -1.71227 0 7.03442 0 0)
(8.08274 -2.26981 0 7.32318 0 0)
(6.50391 -1.57651 0 7.18901 0 0)
(8.12293 -2.14642 0 7.45344 0 0)
(6.59072 -1.45029 0 7.28968 0 0)
(8.20567 -2.01136 0 7.58102 0 0)
(6.73617 -1.35509 0 7.45184 0 0)
(8.26234 -1.93865 0 7.75931 0 0)
(6.95169 -1.31686 0 7.69162 0 0)
(8.34266 -1.88754 0 8.04442 0 0)
(7.19765 -1.2891 0 8.05206 0 0)
(8.46948 -1.83782 0 8.44092 0 0)
(7.36838 -1.26099 0 8.49484 0 0)
(8.55057 -1.75553 0 8.87452 0 0)
(7.38667 -1.15812 0 8.93982 0 0)
(8.51616 -1.62979 0 9.29178 0 0)
(7.31102 -1.00466 0 9.34102 0 0)
(8.41303 -1.50321 0 9.63257 0 0)
(7.25249 -0.902373 0 9.67443 0 0)
(8.285 -1.4255 0 9.93048 0 0)
(7.28654 -0.947333 0 10.0125 0 0)
(8.21331 -1.41242 0 10.2095 0 0)
(7.43278 -1.10696 0 10.3202 0 0)
(8.22364 -1.40164 0 10.4905 0 0)
(7.65482 -1.23243 0 10.6138 0 0)
(8.26968 -1.35921 0 10.7712 0 0)
(7.8625 -1.31293 0 10.9209 0 0)
(8.43323 -1.3232 0 11.0175 0 0)
(8.11448 -1.34844 0 11.168 0 0)
(8.617 -1.25801 0 11.2969 0 0)
(8.30018 -1.32735 0 11.5308 0 0)
(8.71101 -1.13965 0 11.671 0 0)
(8.35171 -1.21404 0 11.95 0 0)
(8.68297 -0.983436 0 12.0304 0 0)
(8.30365 -1.07418 0 12.3025 0 0)
(8.53915 -0.778741 0 12.4289 0 0)
(8.09517 -0.84761 0 12.7539 0 0)
(8.34384 -0.535044 0 12.7835 0 0)
(7.88201 -0.644412 0 13.0035 0 0)
(8.15085 -0.33579 0 13.0279 0 0)
(7.65176 -0.437051 0 13.232 0 0)
(7.89101 -0.166325 0 13.2617 0 0)
(7.50755 -0.203904 0 13.4166 0 0)
(7.66723 -0.0602953 0 13.3334 0 0)
(7.39719 -0.0544779 0 13.4704 0 0)
(7.56607 0.0451337 0 13.4952 0 0)
(7.32742 0.0628415 0 13.556 0 0)
(7.51112 0.0510023 0 13.4817 0 0)
(7.3123 0.168192 0 13.601 0 0)
(7.44504 0.114611 0 13.5903 0 0)
(7.2735 0.226454 0 13.6283 0 0)
(7.2809 0.138061 0 13.7127 0 0)
(7.20871 0.309925 0 13.7369 0 0)
(7.16429 0.110474 0 13.7731 0 0)
(7.10611 0.31628 0 13.8159 0 0)
(7.07871 0.104704 0 13.8224 0 0)
(6.97967 0.280446 0 13.8131 0 0)
(6.9419 -0.00273725 0 13.7666 0 0)
(6.8755 0.232482 0 13.8042 0 0)
(6.83233 -0.0880725 0 13.7095 0 0)
(6.83089 0.148547 0 13.5801 0 0)
(6.74929 -0.191281 0 13.4718 0 0)
(6.68729 0.0589792 0 13.3398 0 0)
(6.65004 -0.364586 0 13.0712 0 0)
(6.56906 -0.0150559 0 12.7733 0 0)
(6.48054 -0.569601 0 12.3612 0 0)
(6.61853 -0.117674 0 11.953 0 0)
(6.33431 -0.746755 0 11.4925 0 0)
(6.73786 -0.247037 0 11.2638 0 0)
(6.2718 -0.825155 0 10.7779 0 0)
(6.78235 -0.489919 0 10.7149 0 0)
(6.273 -0.780205 0 10.049 0 0)
(6.74308 -0.713089 0 10.3889 0 0)
(6.23201 -0.694921 0 9.37511 0 0)
(6.59326 -1.0282 0 10.0608 0 0)
(6.00358 -0.576299 0 8.6291 0 0)
(6.37023 -1.33686 0 9.71909 0 0)
(5.77935 -0.37428 0 7.89212 0 0)
(6.07688 -1.52573 0 9.49093 0 0)
(5.68687 -0.117695 0 7.35455 0 0)