/*--------------------------------*- C++ -*----------------------------------*\
| =========                 |                                                 |
| \\      /  F ield         | OpenFOAM: The Open Source CFD Toolbox           |
|  \\    /   O peration     | Version:  2.4.0                                 |
|   \\  /    A nd           | Web:      www.OpenFOAM.org                      |
|    \\/     M anipulation  |                                                 |
\*---------------------------------------------------------------------------*/
FoamFile
{
    version     2.0;
    format      ascii;
    class       volScalarField;
    location    "0.93";
    object      k;
}
// * * * * * * * * * * * * * * * * * * * * * * * * * * * * * * * * * * * * * //

dimensions      [0 2 -2 0 0 0 0];

internalField   nonuniform List<scalar> 
8800
(
8.11657
10.2685
8.79053
6.82393
5.70696
4.96912
4.53307
4.13441
3.9274
3.65106
3.5618
3.34824
3.309
3.15289
3.10573
2.98779
2.92807
2.80952
2.75376
2.55389
1.40204
4.35396
5.31735
5.28851
5.13203
4.80537
4.58281
4.2741
4.13655
3.86177
3.78482
3.57157
3.52573
3.37671
3.32723
3.22771
3.17123
3.08727
3.01168
2.96709
0.0842614
0.732739
1.56143
1.9431
2.27703
2.43462
2.58135
2.5931
2.63133
2.58692
2.59482
2.53079
2.5244
2.47769
2.45852
2.42401
2.39895
2.3742
2.35261
2.29275
0.00334527
0.0699286
0.258489
0.416904
0.589397
0.695901
0.845863
0.914987
1.0439
1.08167
1.17406
1.20658
1.2532
1.30844
1.32991
1.36531
1.40676
1.41914
1.47241
1.45225
0.000121626
0.00492605
0.0243113
0.0487468
0.090945
0.121308
0.166507
0.197938
0.254237
0.278431
0.31719
0.366936
0.384559
0.423773
0.463024
0.482986
0.539821
0.562047
0.612242
0.64466
2.50162e-05
0.000309742
0.00153555
0.00385592
0.00759446
0.0124428
0.0179886
0.0247738
0.035449
0.0442217
0.0497991
0.0667874
0.0724683
0.0848498
0.0947529
0.107021
0.117263
0.142512
0.149555
0.173049
2.22471e-05
4.50941e-05
0.000122716
0.000288964
0.000544741
0.000775349
0.00139462
0.00179364
0.00297597
0.00400616
0.00462861
0.00713894
0.00790362
0.00934239
0.0120564
0.0130836
0.0153148
0.0205822
0.0225141
0.0279775
2.10532e-05
2.98208e-05
4.9348e-05
7.02313e-05
8.32964e-05
0.000115929
0.000149081
0.00016844
0.000240195
0.000290389
0.000327045
0.000504028
0.000557023
0.000655784
0.000912878
0.000980136
0.00109772
0.00163359
0.00185178
0.00222006
2.06282e-05
2.78571e-05
4.62759e-05
5.77479e-05
6.35986e-05
7.49936e-05
7.59601e-05
7.79653e-05
8.039e-05
9.7859e-05
0.000104295
0.000126061
0.000121523
0.00012656
0.000130013
0.000136401
0.00014163
0.000177164
0.000192456
0.000226558
2.07075e-05
2.70326e-05
4.2248e-05
5.65462e-05
6.0448e-05
6.3796e-05
6.90529e-05
7.18577e-05
7.16411e-05
7.22691e-05
7.40247e-05
8.38397e-05
8.72204e-05
8.61229e-05
8.68237e-05
8.53255e-05
8.82358e-05
9.05188e-05
9.5938e-05
0.00010231
2.06275e-05
2.67316e-05
4.18597e-05
5.93361e-05
6.13541e-05
6.12867e-05
6.73993e-05
7.05216e-05
7.21986e-05
7.31387e-05
7.18085e-05
7.5503e-05
7.71381e-05
8.25662e-05
8.44324e-05
8.48104e-05
8.71151e-05
8.91145e-05
9.09889e-05
9.96319e-05
2.07999e-05
2.80974e-05
4.53011e-05
6.21094e-05
6.31365e-05
6.78667e-05
7.51675e-05
7.72785e-05
8.25308e-05
8.26591e-05
8.81537e-05
9.2698e-05
9.91327e-05
0.000115352
0.000116247
0.000129004
0.00013851
0.000152607
0.000171526
0.000233178
2.11006e-05
2.94856e-05
4.35183e-05
8.06075e-05
9.38872e-05
0.000116655
0.000130586
0.000170235
0.000202351
0.000285585
0.000360911
0.000414714
0.000523499
0.000692143
0.000765288
0.00103312
0.00129279
0.00161642
0.00194097
0.00305813
2.16241e-05
4.27342e-05
0.000120294
0.000389777
0.000535541
0.000884343
0.00119809
0.00196483
0.00255203
0.00399819
0.00478986
0.00644954
0.00745689
0.00982352
0.0109756
0.0144152
0.0164817
0.0208886
0.0238941
0.0327687
2.50158e-05
0.000305885
0.00145485
0.00510922
0.00742017
0.0127859
0.0170452
0.0263364
0.0323919
0.0457345
0.0519604
0.064772
0.0716441
0.0872279
0.0944097
0.113698
0.123671
0.145989
0.159086
0.196975
0.000123857
0.00491374
0.0217986
0.0597028
0.0827852
0.125436
0.160223
0.205888
0.240045
0.292854
0.315908
0.361651
0.385003
0.435132
0.455972
0.510523
0.535069
0.59242
0.622559
0.700307
0.00336654
0.0693638
0.258745
0.424912
0.577782
0.702853
0.839236
0.926124
1.02529
1.1015
1.15778
1.21435
1.26058
1.31105
1.33348
1.3879
1.40875
1.45841
1.48197
1.53204
0.0845371
0.725863
1.56862
1.93998
2.27847
2.43167
2.58347
2.59633
2.62715
2.60025
2.5894
2.54025
2.52641
2.47673
2.46234
2.42216
2.41153
2.38189
2.3714
2.33986
1.40557
4.34798
5.32356
5.28556
5.13353
4.79683
4.58895
4.27836
4.12914
3.8696
3.77923
3.57761
3.51904
3.3639
3.3276
3.19471
3.16402
3.044
3.00142
2.89323
8.11982
10.2617
8.80032
6.80973
5.72123
4.956
4.53964
4.13122
3.92561
3.6483
3.55298
3.34604
3.29706
3.12485
3.09551
2.92684
2.88867
2.70781
2.64133
2.42069
1.7677
1.29978
1.05705
0.913939
0.835252
0.777676
0.739913
0.699323
0.673664
0.638287
0.620629
0.592067
0.580882
0.56002
0.551953
0.536335
0.527635
0.508556
0.493032
0.461203
0.444205
0.415681
0.404537
0.387818
0.383261
0.379437
0.380627
0.382103
0.384967
0.386771
0.391467
0.393881
0.398346
0.398114
0.397688
0.394612
0.3917
0.386832
0.385225
0.381122
0.381319
0.379684
0.382267
0.381301
0.388079
0.387628
0.397235
0.39605
0.409131
0.405681
0.42099
0.413863
0.432036
0.420937
0.442223
0.422819
0.440427
0.403524
0.397325
0.333609
0.299984
0.223568
0.191816
0.153827
0.138458
0.119044
0.113913
0.105431
0.10796
0.108521
0.11661
0.120573
0.135087
0.142835
0.158555
0.17964
0.188331
0.215523
0.223084
0.254143
0.256267
0.281904
0.280599
0.303179
0.296154
0.314742
0.30453
0.316512
0.303034
0.312143
0.294972
0.302886
0.285585
0.290443
0.276085
0.28151
0.268948
0.276968
0.267806
0.276665
0.270313
0.277967
0.274863
0.280846
0.279527
0.284853
0.284541
0.289646
0.289438
0.293108
0.291486
0.293514
0.290448
0.290507
0.28728
0.285359
0.280166
0.273139
0.267887
0.256076
0.250572
0.237527
0.232634
0.22002
0.216084
0.203915
0.19959
0.187542
0.18355
0.172373
0.167952
0.157472
0.153209
0.14459
0.136628
0.129932
0.11628
0.106796
0.0843777
0.0689619
0.0411047
0.026061
0.0165066
0.0104389
0.00812847
0.00642373
0.00626346
0.00639206
0.00705988
0.0087568
0.0132215
0.0216652
0.030283
0.0468316
0.0628052
0.0811634
0.0992787
0.128817
0.158863
0.191963
0.221228
0.226469
0.225012
0.217454
0.203982
0.192332
0.184219
0.16693
0.153413
0.137766
0.0977624
0.0623149
0.0400666
0.0344856
0.0387965
0.0629424
0.167426
0.277117
0.290141
0.28709
0.290111
0.267826
0.159123
0.0769412
0.0540784
0.0419756
0.0416939
0.0421923
0.0440917
0.0465463
0.0472661
0.0507126
0.0547065
0.066735
0.0760486
0.0870526
0.0941104
0.10214
0.11974
0.161209
2.51028
2.05074
1.71674
1.46886
1.30763
1.17243
1.09498
1.00885
0.966526
0.900019
0.873031
0.81994
0.80042
0.76165
0.748214
0.721656
0.711769
0.692107
0.682532
0.665401
0.650641
0.638571
0.616251
0.610083
0.59144
0.586313
0.570545
0.568304
0.555495
0.553861
0.544752
0.544128
0.537575
0.536467
0.531479
0.529216
0.524388
0.519058
0.517131
0.506922
0.506455
0.496694
0.497139
0.48693
0.48934
0.478727
0.482209
0.472143
0.476321
0.467964
0.472839
0.467159
0.473307
0.471568
0.478343
0.48104
0.485012
0.49211
0.482937
0.483284
0.460236
0.44707
0.402902
0.378001
0.331027
0.310163
0.282071
0.277782
0.265303
0.272302
0.269042
0.285859
0.282634
0.307375
0.301434
0.332012
0.32238
0.353872
0.342191
0.37058
0.357642
0.383388
0.3688
0.392283
0.375819
0.39754
0.380415
0.398454
0.381905
0.394931
0.379701
0.389303
0.375288
0.380889
0.36713
0.369837
0.356379
0.356543
0.345086
0.343611
0.335106
0.333242
0.326443
0.325508
0.320289
0.320506
0.316448
0.316464
0.311218
0.310237
0.303023
0.300631
0.29038
0.286446
0.272119
0.266354
0.249338
0.243953
0.228687
0.224766
0.214599
0.212958
0.207999
0.206284
0.200938
0.195677
0.18823
0.179631
0.169757
0.162353
0.148728
0.141873
0.126587
0.114986
0.0979745
0.0805629
0.0626891
0.0440491
0.0285568
0.0199873
0.0126417
0.00932757
0.00691597
0.00542264
0.00508656
0.00510755
0.00555806
0.00665925
0.0106989
0.016206
0.0310242
0.0419219
0.0650218
0.0902843
0.110892
0.146848
0.187245
0.250037
0.273044
0.276183
0.269051
0.260881
0.236153
0.213823
0.187053
0.168822
0.165001
0.160204
0.155326
0.151514
0.140091
0.107588
0.0629652
0.0411451
0.040159
0.0490588
0.100793
0.242652
0.283012
0.281492
0.282608
0.273148
0.222888
0.102185
0.0658936
0.0479507
0.0436169
0.0440169
0.0451146
0.0471275
0.0476586
0.0534977
0.0626572
0.0779022
0.084113
0.0926408
0.0992499
0.104306
0.115539
0.12652
2.04641
1.79242
1.60707
1.4166
1.30866
1.17514
1.11274
1.01847
0.97973
0.912938
0.884405
0.835426
0.806207
0.773899
0.73998
0.726032
0.692679
0.684503
0.661934
0.657592
0.635863
0.632249
0.611577
0.608721
0.587009
0.583728
0.564451
0.561682
0.54558
0.543081
0.532714
0.53043
0.524001
0.521028
0.51819
0.512059
0.511519
0.505969
0.50429
0.498746
0.496921
0.492048
0.486007
0.484142
0.474752
0.472501
0.461637
0.461377
0.448686
0.44954
0.437282
0.442486
0.429899
0.440904
0.429306
0.447137
0.437349
0.459187
0.450204
0.468253
0.455279
0.46465
0.446386
0.448777
0.42625
0.428846
0.405824
0.415436
0.393434
0.409899
0.389003
0.409414
0.389767
0.411518
0.393362
0.413399
0.396635
0.414049
0.397792
0.412679
0.396055
0.408952
0.391876
0.40256
0.386381
0.394341
0.379704
0.385107
0.373053
0.376176
0.366732
0.368845
0.36172
0.363854
0.358025
0.35967
0.35489
0.354836
0.350975
0.349352
0.344294
0.341596
0.334046
0.330857
0.321263
0.316765
0.30498
0.298961
0.284526
0.276772
0.259078
0.249712
0.228988
0.218481
0.195418
0.184607
0.161783
0.152924
0.134191
0.127057
0.113667
0.108269
0.0998824
0.0959342
0.0895193
0.086074
0.0795403
0.0758673
0.0685788
0.0644822
0.0558712
0.050937
0.0411853
0.0348114
0.0272664
0.0210642
0.016404
0.0118437
0.00929733
0.00698126
0.00536709
0.00476085
0.00410366
0.0040787
0.00427836
0.00482894
0.00712574
0.0112281
0.0245426
0.0365234
0.0668562
0.0854823
0.130895
0.154088
0.197025
0.271969
0.33742
0.334891
0.316444
0.298275
0.257506
0.208152
0.16652
0.15055
0.145898
0.136079
0.132874
0.133417
0.137678
0.143373
0.143734
0.135302
0.105216
0.0577072
0.0433548
0.0462308
0.0682691
0.171185
0.260953
0.271924
0.282226
0.27404
0.253343
0.167227
0.092196
0.0623473
0.0505409
0.0492881
0.0488244
0.0495204
0.0517048
0.0659314
0.0762922
0.087524
0.0926901
0.0969319
0.101965
0.105108
0.112781
0.117972
1.34004
1.21149
1.11899
1.01921
0.95923
0.887144
0.836965
0.789297
0.741414
0.717906
0.676062
0.661686
0.629321
0.618117
0.585052
0.574811
0.545013
0.537973
0.513252
0.509466
0.491875
0.490158
0.475272
0.472105
0.455338
0.449895
0.431805
0.424648
0.407213
0.400321
0.386794
0.381056
0.37228
0.369498
0.363462
0.363042
0.358892
0.360187
0.355524
0.358928
0.35234
0.357234
0.348381
0.354158
0.34304
0.34882
0.335674
0.340949
0.326724
0.331485
0.3176
0.322609
0.310521
0.317424
0.308515
0.319622
0.314696
0.331287
0.330332
0.351361
0.35161
0.374304
0.370656
0.386635
0.376939
0.388024
0.375709
0.384715
0.373076
0.381268
0.370898
0.37855
0.368375
0.374419
0.363942
0.367623
0.356147
0.357642
0.344988
0.344762
0.331657
0.328971
0.314253
0.309526
0.294333
0.288476
0.273659
0.267774
0.254014
0.248952
0.237385
0.233873
0.225647
0.223979
0.219771
0.219494
0.218559
0.218643
0.218259
0.218138
0.216443
0.215297
0.210888
0.207653
0.200286
0.193494
0.184349
0.172826
0.161913
0.146148
0.134194
0.117544
0.104227
0.0882652
0.0759975
0.065084
0.0556686
0.0485777
0.0425272
0.037335
0.0339173
0.0299443
0.0282926
0.0255734
0.0244532
0.0222573
0.0212319
0.0194242
0.0179848
0.0165221
0.0145977
0.0134092
0.011343
0.0101236
0.00843161
0.0071174
0.00600543
0.00472196
0.00431053
0.00343863
0.00331501
0.00329369
0.00344503
0.00381684
0.00493039
0.00747467
0.0165641
0.0270141
0.0594609
0.0826624
0.135206
0.161513
0.223193
0.260287
0.361838
0.406308
0.399102
0.355808
0.2764
0.196777
0.16084
0.145315
0.137726
0.13387
0.129935
0.128727
0.126173
0.123652
0.122338
0.123655
0.135349
0.137021
0.128289
0.0909735
0.053516
0.0494028
0.0559771
0.0970904
0.220805
0.253914
0.277489
0.269708
0.256513
0.212227
0.156084
0.102441
0.0746008
0.0631032
0.0629241
0.0662117
0.0749554
0.0848106
0.0913189
0.0950393
0.0989138
0.100303
0.103582
0.105487
0.110795
0.11487
0.613364
0.578308
0.526464
0.500817
0.463936
0.446351
0.415006
0.402625
0.377164
0.369539
0.354014
0.350303
0.341676
0.338766
0.329452
0.324338
0.310467
0.303587
0.288035
0.280884
0.271304
0.265814
0.262376
0.257776
0.254867
0.251122
0.245411
0.240562
0.229372
0.22438
0.211974
0.207051
0.196078
0.193255
0.18518
0.18417
0.179231
0.18031
0.176725
0.179162
0.1753
0.178284
0.174065
0.176556
0.172212
0.173513
0.168933
0.169159
0.164403
0.164276
0.159291
0.159254
0.155036
0.156068
0.15349
0.156754
0.156291
0.161825
0.162922
0.172255
0.174931
0.187232
0.191157
0.204925
0.208744
0.220136
0.222713
0.229124
0.230727
0.232435
0.232317
0.231372
0.230292
0.22711
0.224493
0.219716
0.213986
0.207018
0.201131
0.189298
0.18349
0.169927
0.163035
0.148443
0.142085
0.127809
0.121656
0.109644
0.104368
0.0956566
0.0913159
0.0856773
0.0829179
0.079067
0.0778889
0.0755747
0.0751236
0.0740656
0.0737673
0.0734011
0.072278
0.0715371
0.0698073
0.0679445
0.0651116
0.0610361
0.0573576
0.0522812
0.0479437
0.0424511
0.0379235
0.032846
0.028701
0.0246255
0.021186
0.0182177
0.0156604
0.01377
0.0120907
0.010908
0.00968265
0.00896605
0.00803805
0.0076866
0.00699352
0.00676985
0.00623005
0.00610141
0.00560475
0.0055521
0.00497576
0.00493278
0.00424484
0.0041263
0.00340978
0.0032912
0.00270204
0.00265955
0.00245286
0.00257023
0.0027255
0.00309125
0.00392351
0.00579074
0.0101733
0.0181213
0.0422008
0.0655551
0.135066
0.17352
0.23901
0.272433
0.361491
0.460945
0.465389
0.458466
0.36877
0.234959
0.176075
0.143739
0.134946
0.133497
0.132679
0.131364
0.126173
0.121984
0.121615
0.123694
0.120909
0.119551
0.120081
0.131677
0.130265
0.118792
0.0741654
0.0535242
0.05437
0.070309
0.160389
0.215325
0.256166
0.255296
0.249574
0.22669
0.203815
0.156995
0.127983
0.109332
0.102421
0.101168
0.101222
0.101713
0.102303
0.102627
0.102946
0.10328
0.104588
0.106547
0.11125
0.114458
0.168372
0.163749
0.153078
0.148818
0.139274
0.135723
0.127338
0.124222
0.116995
0.113716
0.110405
0.110385
0.110614
0.111298
0.112229
0.112142
0.111818
0.108458
0.105878
0.0978397
0.0954795
0.0901734
0.0897932
0.088234
0.0884047
0.0874574
0.0871255
0.0865897
0.0849144
0.0841456
0.0799608
0.0778123
0.0729216
0.0711813
0.0664859
0.0650869
0.0623321
0.0617523
0.060187
0.059836
0.0588579
0.0587883
0.0583196
0.0577538
0.0575711
0.0567968
0.0565405
0.0555137
0.0551791
0.0541783
0.0537453
0.052604
0.0522674
0.0518104
0.0517678
0.0519523
0.0525052
0.0534503
0.0555483
0.0572089
0.0608074
0.0629973
0.0681022
0.0704127
0.076063
0.0779179
0.0830384
0.0840363
0.0876294
0.0876248
0.088833
0.0876117
0.0876458
0.0857971
0.0849719
0.0816557
0.0800281
0.0752743
0.0730653
0.0672297
0.0646476
0.058302
0.0555838
0.0494536
0.0468535
0.0413657
0.0391071
0.0345366
0.0326791
0.029249
0.0277728
0.0253075
0.0243996
0.0225927
0.0220344
0.0209083
0.0205554
0.0199043
0.0194134
0.0191454
0.0185901
0.018263
0.0174853
0.016994
0.0159817
0.0152722
0.0140148
0.0130705
0.0117363
0.0107479
0.00943522
0.00852497
0.00744141
0.00660754
0.00582711
0.0050653
0.00457683
0.00400976
0.00373335
0.0033261
0.00315747
0.00282851
0.00273214
0.0025059
0.00245538
0.00230348
0.00226073
0.00215422
0.00208858
0.00203259
0.00188112
0.0018443
0.00164105
0.00165881
0.00155122
0.00166352
0.00168242
0.00192082
0.00206392
0.00266517
0.0032858
0.00518304
0.00799571
0.0144461
0.0252303
0.0475211
0.0972722
0.150397
0.277733
0.306015
0.358021
0.419329
0.563546
0.557833
0.494185
0.354086
0.232814
0.174435
0.157453
0.133867
0.131387
0.130604
0.132479
0.131765
0.127592
0.123381
0.124686
0.133337
0.133546
0.124405
0.116653
0.119937
0.126048
0.122209
0.101058
0.0623243
0.0570398
0.0616676
0.0972729
0.181567
0.217188
0.233323
0.230787
0.222467
0.207439
0.181296
0.158924
0.141633
0.130629
0.124261
0.117145
0.111821
0.109681
0.10782
0.107046
0.107214
0.108104
0.11031
0.11322
0.114496
0.0275232
0.0271218
0.0260522
0.0255891
0.0243573
0.0238742
0.0227235
0.0220371
0.0206528
0.0204323
0.0202797
0.0206128
0.0210533
0.0223926
0.0233577
0.0240815
0.0242548
0.0241618
0.0232703
0.0211062
0.0200397
0.0187258
0.0185168
0.0181785
0.0184078
0.019026
0.0198265
0.020301
0.0202305
0.0203048
0.0196981
0.0193143
0.0177914
0.0172343
0.0159022
0.0153814
0.0146751
0.0143154
0.0142163
0.0140444
0.0140537
0.0140303
0.0140818
0.0140727
0.014149
0.0141607
0.0141988
0.0142293
0.0142206
0.0142343
0.0142196
0.0142407
0.0142682
0.0143317
0.0145174
0.0146769
0.0150523
0.0153213
0.0159691
0.0164179
0.0175019
0.0181163
0.0196219
0.020343
0.0220879
0.0227907
0.0244585
0.0249692
0.0262041
0.0264616
0.0270791
0.0269993
0.0268863
0.0263777
0.0259593
0.024838
0.0241257
0.0225349
0.0215618
0.0197183
0.0184516
0.0166953
0.01535
0.0138797
0.0125338
0.0113924
0.0102048
0.0093424
0.00837919
0.00774886
0.00703277
0.00655095
0.0060721
0.0057442
0.0054029
0.00522009
0.00495752
0.00485904
0.00465258
0.00458021
0.00440294
0.0043255
0.00413157
0.0040229
0.00376689
0.00362071
0.00329186
0.0031232
0.00275966
0.00259727
0.00225507
0.0021119
0.00181948
0.00170179
0.00147208
0.00137097
0.00121595
0.00115464
0.00105454
0.00101343
0.000952587
0.000910372
0.000887297
0.000858562
0.000849089
0.000829756
0.000832128
0.000822702
0.000850932
0.000844714
0.000895036
0.000916613
0.000964994
0.00108244
0.00114817
0.00134764
0.00156588
0.00190753
0.00256552
0.00425836
0.00628558
0.0120584
0.0193113
0.0379652
0.0616623
0.12994
0.198209
0.345731
0.392929
0.406619
0.518046
0.584877
0.628108
0.522588
0.300885
0.250765
0.190515
0.161085
0.151521
0.135003
0.137077
0.139894
0.144359
0.143256
0.140059
0.141689
0.144649
0.18462
0.196644
0.166207
0.129616
0.119259
0.122925
0.12183
0.114891
0.0812595
0.0614578
0.0597055
0.07086
0.128861
0.1818
0.209376
0.208779
0.206616
0.200597
0.18449
0.168733
0.153144
0.141461
0.133289
0.12571
0.11822
0.114131
0.111972
0.111825
0.111888
0.112299
0.113061
0.113186
0.111571
0.00224426
0.00223846
0.002239
0.00222168
0.00219606
0.00216776
0.00209461
0.00202324
0.00196296
0.00194624
0.00194699
0.00198357
0.00204255
0.00222937
0.0023549
0.00245323
0.00245133
0.00241191
0.00225892
0.00212053
0.00202442
0.00195431
0.0019112
0.00189861
0.00189584
0.00201659
0.00210501
0.00224451
0.00224251
0.00226826
0.00221206
0.00219658
0.00207198
0.00202488
0.00191534
0.00187266
0.00182656
0.00179593
0.00179549
0.00179056
0.00179382
0.00180047
0.00180263
0.00182655
0.00182993
0.00185821
0.00185826
0.00189063
0.00189164
0.00190695
0.00191357
0.00193401
0.00195107
0.00199689
0.0020455
0.00214684
0.00223182
0.0023914
0.00251071
0.00272466
0.00295638
0.00317898
0.00351861
0.00380218
0.00421935
0.00454678
0.00490244
0.0052739
0.00550578
0.00579165
0.00594589
0.00598056
0.00595722
0.00588972
0.00571906
0.00551722
0.00520403
0.00489495
0.00450126
0.00416191
0.00374485
0.00343942
0.00305141
0.00278366
0.0024632
0.00224277
0.00197899
0.00182087
0.00160684
0.00148509
0.00133756
0.00122955
0.0011316
0.00105838
0.000979338
0.000937677
0.000871612
0.000844583
0.000793382
0.000773097
0.000730453
0.000712444
0.000673563
0.000655253
0.000617401
0.000594532
0.000558902
0.000535159
0.000504418
0.000483049
0.000461616
0.000448224
0.000435191
0.00043083
0.000431873
0.000438022
0.000441432
0.000453741
0.000457654
0.000470167
0.000474183
0.000492682
0.000498723
0.00052164
0.000531082
0.000548566
0.000576833
0.000593762
0.00065035
0.000685198
0.000778668
0.00085615
0.00101873
0.00122273
0.00145795
0.00208903
0.00295194
0.00407181
0.00650454
0.0106129
0.0161029
0.0282167
0.0458996
0.086198
0.141955
0.302686
0.373125
0.443101
0.427371
0.510032
0.618782
0.640992
0.411468
0.345117
0.214099
0.209936
0.183559
0.179512
0.174552
0.157539
0.157387
0.153199
0.151782
0.15475
0.152606
0.160351
0.169825
0.237461
0.347155
0.312057
0.19571
0.135392
0.126362
0.125129
0.12099
0.098947
0.0677516
0.0602532
0.0628225
0.083159
0.139017
0.183942
0.191027
0.189813
0.185304
0.178387
0.167887
0.155147
0.143995
0.135284
0.12981
0.122767
0.119709
0.116818
0.116273
0.114797
0.113899
0.110998
0.107423
0.0971174
0.000222049
0.000215505
0.000214464
0.000211582
0.000208075
0.000203895
0.000197285
0.000194511
0.000190389
0.000189959
0.000189373
0.000189886
0.000193083
0.000197709
0.000212989
0.000219631
0.000238745
0.00024016
0.00024745
0.000242154
0.000242658
0.000230247
0.000226214
0.000220194
0.000219512
0.000218873
0.000219399
0.000220896
0.000224381
0.000227355
0.000230074
0.000229766
0.000231496
0.000228319
0.000229019
0.000223761
0.000221695
0.00021555
0.000214483
0.000210636
0.00020957
0.000207832
0.000205852
0.000205691
0.000204371
0.000204993
0.000204475
0.000206243
0.000206909
0.000208613
0.000210237
0.000212301
0.000218297
0.000227836
0.000234791
0.000252869
0.000265122
0.000287777
0.000315719
0.000336582
0.000380067
0.000409033
0.000472878
0.00050872
0.0005823
0.00062675
0.000729419
0.000777759
0.000848568
0.000902446
0.000958969
0.000968352
0.00097021
0.000953955
0.000932956
0.000879595
0.000837474
0.00076552
0.000715185
0.000649625
0.000595279
0.000543861
0.000495731
0.000454527
0.000417417
0.000388163
0.000361361
0.000340209
0.000324236
0.000309752
0.000297907
0.000292543
0.000286533
0.000281181
0.000278588
0.000272521
0.000270231
0.000265295
0.000263484
0.000259026
0.000257256
0.00025654
0.000256539
0.000257745
0.000260132
0.000263979
0.000271445
0.00027696
0.000293905
0.000303341
0.000323794
0.000336974
0.000369746
0.000387603
0.000425642
0.000450815
0.000485616
0.000533796
0.000552047
0.000594374
0.00061322
0.000648048
0.000674041
0.000693614
0.000758156
0.000796132
0.000875147
0.000941157
0.00108704
0.0012024
0.00144911
0.00169983
0.00223999
0.00287338
0.00359028
0.00546157
0.00741835
0.0113585
0.016078
0.0266346
0.0413966
0.0629951
0.110573
0.189814
0.34696
0.450356
0.443518
0.447808
0.429535
0.623412
0.528613
0.516403
0.240346
0.203459
0.162274
0.171203
0.188142
0.218408
0.215972
0.198489
0.195015
0.180705
0.185352
0.181238
0.165694
0.180706
0.192405
0.21594
0.381358
0.430152
0.363279
0.19239
0.139967
0.12828
0.123353
0.112664
0.0809583
0.0626746
0.062351
0.0675655
0.0900502
0.141807
0.165755
0.173595
0.172656
0.169577
0.163458
0.154216
0.144205
0.135619
0.132176
0.126984
0.122587
0.118243
0.11673
0.1138
0.109917
0.0993758
0.0889611
0.0754314
0.000103068
0.000104214
0.00010835
0.000109373
0.000109758
0.000108666
0.000107657
0.000107653
0.000107881
0.000109509
0.000110011
0.000111273
0.000110748
0.000111097
0.000110189
0.000110145
0.000109413
0.000108352
0.000107971
0.000107008
0.000106821
0.000105632
0.000105194
0.000104542
0.000104753
0.000104737
0.000105691
0.000105854
0.000106858
0.000106945
0.000107438
0.000108625
0.000108984
0.000110012
0.000109764
0.000110273
0.000109667
0.000109684
0.00010913
0.000108903
0.000108287
0.000107924
0.000107874
0.000107989
0.000108332
0.000109024
0.00010969
0.000110858
0.000111198
0.000112213
0.000113717
0.000114983
0.000115655
0.0001174
0.000118139
0.000120222
0.000121319
0.000124441
0.000126137
0.000129336
0.000133729
0.000136595
0.000142871
0.000146466
0.000154048
0.000157822
0.000166874
0.000170546
0.000179365
0.000181749
0.00018781
0.000189376
0.000194609
0.000194834
0.000196465
0.000195641
0.000196077
0.000194867
0.000194838
0.000192336
0.000191959
0.000192019
0.000193382
0.00019728
0.000201553
0.000211908
0.000218242
0.000228885
0.000242334
0.000252257
0.000261349
0.000286338
0.000299528
0.000312776
0.000341411
0.000354093
0.000382233
0.00039532
0.000420064
0.000435525
0.000471289
0.000493441
0.000521218
0.000574367
0.000602276
0.000661589
0.00072464
0.000763705
0.000873141
0.000927751
0.00103354
0.00110258
0.00122499
0.0013224
0.00141669
0.00155861
0.00162246
0.00174306
0.00180616
0.00185819
0.00193102
0.00195735
0.00203354
0.00208498
0.00220762
0.00232368
0.00249113
0.00271302
0.00304385
0.00332591
0.00405146
0.00472392
0.00591566
0.00782631
0.00965676
0.0139007
0.0191754
0.0276939
0.0419248
0.0616844
0.0987639
0.14682
0.267065
0.394567
0.466882
0.480521
0.403618
0.328073
0.35429
0.476284
0.331628
0.279503
0.145122
0.157531
0.174083
0.251158
0.311146
0.309363
0.284945
0.235499
0.235174
0.205139
0.207138
0.179967
0.169643
0.163855
0.185728
0.184891
0.217504
0.38748
0.395894
0.289323
0.172852
0.135752
0.127246
0.116813
0.0965328
0.0694427
0.0637336
0.0644807
0.0713911
0.0957594
0.126032
0.1454
0.153015
0.154162
0.153124
0.149805
0.142668
0.134433
0.131061
0.125671
0.12238
0.116604
0.111255
0.100425
0.0901862
0.0801338
0.0700702
0.0626647
0.000101292
0.000102844
0.000106425
0.000108234
0.000109997
0.000110574
0.000110894
0.000111273
0.000111311
0.000110947
0.000110694
0.000110683
0.000111497
0.000112876
0.00011495
0.000114771
0.000115322
0.000113201
0.000112764
0.00011098
0.000111139
0.000111308
0.000113414
0.000115535
0.000121038
0.0001236
0.000129781
0.000131687
0.000135975
0.000137347
0.000138437
0.000141458
0.000141892
0.000146163
0.000147961
0.000155096
0.000158156
0.000161511
0.000167253
0.000166764
0.00016959
0.000168313
0.000170963
0.000170997
0.000171792
0.000174547
0.000173543
0.000174865
0.000173543
0.000173513
0.000173224
0.000171956
0.000172696
0.000173422
0.000176944
0.000181264
0.000186164
0.000190341
0.000191633
0.000191883
0.000191841
0.000191103
0.000188178
0.000186611
0.000185441
0.00018341
0.000182855
0.000182881
0.000182877
0.000183279
0.000184301
0.000186534
0.000190922
0.000194888
0.000202198
0.000213137
0.000222015
0.000244715
0.000262618
0.000298892
0.000330722
0.000385991
0.000455169
0.000512196
0.00059224
0.00068836
0.000737873
0.000830465
0.00092873
0.000988647
0.00108206
0.00122343
0.00129188
0.00138384
0.00153972
0.00160473
0.00172565
0.00178936
0.00191912
0.00200116
0.00215183
0.00226463
0.00237068
0.0026118
0.00274752
0.00294551
0.00323213
0.00336718
0.00370901
0.00389275
0.00417272
0.00443121
0.0046082
0.00495216
0.00506943
0.00534825
0.00546906
0.00557615
0.00568778
0.00569123
0.00575888
0.00577715
0.00583931
0.00594245
0.00604587
0.00630222
0.00666005
0.00704371
0.00793284
0.00868786
0.0103184
0.0123941
0.0147519
0.0200437
0.0253786
0.0337534
0.0494716
0.0655443
0.101727
0.142185
0.211686
0.347808
0.422379
0.483955
0.470656
0.357402
0.187574
0.185989
0.232516
0.264084
0.186337
0.163087
0.127501
0.195211
0.239901
0.422859
0.370944
0.347402
0.293437
0.263433
0.258145
0.209096
0.208353
0.159019
0.166598
0.174692
0.228278
0.204786
0.208065
0.29922
0.36354
0.327711
0.207923
0.150206
0.135198
0.121638
0.105544
0.0768314
0.0674742
0.065867
0.0681159
0.0753933
0.0933437
0.10941
0.124458
0.129574
0.13249
0.133518
0.132482
0.127919
0.122641
0.116225
0.110708
0.101973
0.0940277
0.0833047
0.0751131
0.0670913
0.061176
0.0542643
0.000261112
0.000266019
0.00026891
0.000268157
0.000265611
0.000265603
0.000268534
0.000284025
0.000299036
0.000333832
0.000354584
0.000378623
0.000393789
0.000400301
0.000398705
0.000397573
0.000392924
0.000392536
0.000393821
0.000398201
0.000414695
0.000431939
0.000485177
0.000511345
0.000572358
0.000594448
0.000636708
0.000654988
0.000670745
0.000695137
0.000700959
0.000728001
0.000739088
0.000790718
0.00081376
0.00086585
0.000922546
0.000934884
0.000980264
0.000979362
0.00100363
0.000999713
0.00101342
0.00102805
0.00103547
0.00107659
0.00107431
0.0010848
0.00108178
0.00107233
0.00107235
0.00106209
0.00106272
0.00105749
0.00106306
0.00107953
0.00108662
0.00108625
0.00108311
0.00106796
0.0010498
0.00102282
0.000997586
0.000961251
0.000945651
0.000925124
0.000907313
0.000900047
0.000901084
0.000906431
0.000918174
0.000941762
0.000973629
0.00100309
0.0010781
0.0011447
0.00122993
0.0013919
0.00150034
0.00175342
0.00195777
0.00222037
0.00262386
0.00283244
0.00323127
0.00360654
0.00384047
0.00427537
0.00460825
0.00492497
0.00533707
0.00575967
0.00600459
0.00638464
0.0068149
0.00700204
0.00738319
0.00762724
0.00802095
0.00843464
0.00868312
0.00929155
0.00961851
0.0102773
0.0108593
0.0114231
0.0122517
0.0127453
0.0137028
0.0141787
0.0147039
0.0154371
0.0157957
0.0163844
0.0165233
0.0166072
0.0166276
0.0164416
0.0163883
0.0160205
0.0158064
0.0156025
0.015536
0.0156323
0.0158106
0.0162566
0.0172094
0.0181693
0.0202401
0.0229682
0.0256774
0.0327423
0.0385613
0.0496377
0.0658824
0.0820264
0.116348
0.155643
0.211171
0.315477
0.403519
0.464063
0.471442
0.439431
0.267656
0.131525
0.102117
0.139552
0.167652
0.174824
0.127448
0.121932
0.13301
0.27356
0.327766
0.471089
0.372846
0.33029
0.247906
0.296936
0.277789
0.199497
0.19035
0.144503
0.175777
0.199649
0.270987
0.239651
0.257517
0.2887
0.333653
0.317969
0.250372
0.163348
0.145626
0.132402
0.119606
0.0856987
0.0733218
0.0685181
0.0695563
0.072171
0.080226
0.0877325
0.0991876
0.105714
0.108622
0.111151
0.111135
0.109706
0.105483
0.100399
0.0943055
0.0869117
0.0797052
0.0722448
0.0659473
0.0590338
0.0534008
0.0465579
0.00337408
0.00334919
0.00331543
0.00323409
0.00309392
0.00302205
0.00300297
0.00308552
0.00324202
0.00357352
0.00385939
0.0040083
0.0042275
0.00432693
0.0043614
0.00440351
0.00442123
0.00447305
0.00451883
0.00455636
0.00471467
0.00482074
0.0050583
0.00518702
0.00547853
0.00565896
0.00580477
0.00603303
0.00610249
0.00627104
0.00631402
0.00649233
0.00655509
0.00672125
0.00684729
0.00697149
0.00724146
0.00727216
0.00740466
0.00741317
0.00748213
0.00751714
0.00751729
0.00760619
0.00760988
0.00768064
0.00765102
0.00766125
0.00766052
0.00757723
0.00755654
0.00747971
0.00743005
0.00738157
0.00728885
0.00725548
0.00717551
0.00710017
0.00700213
0.00682779
0.006714
0.00648022
0.00632152
0.00613949
0.00603832
0.00587874
0.00581171
0.00575251
0.00575948
0.0057802
0.00582479
0.00592564
0.00606211
0.00620911
0.00660775
0.00688418
0.00735963
0.00797029
0.00858914
0.00948943
0.0104113
0.0113003
0.0125444
0.0134451
0.0145073
0.0157324
0.0166144
0.0179293
0.0187743
0.0200025
0.0209948
0.0220163
0.0227217
0.023871
0.0246593
0.0252872
0.0265659
0.0272202
0.0283248
0.0296676
0.0304888
0.0323195
0.0335349
0.0355686
0.0370091
0.0389538
0.0409885
0.0427742
0.0444834
0.0457636
0.0473735
0.0488482
0.0492827
0.0495742
0.0494004
0.0489939
0.0484005
0.0467447
0.0456507
0.0439526
0.0426014
0.0418538
0.0411395
0.0413106
0.0417052
0.0430896
0.0446583
0.0485323
0.0522031
0.0602218
0.0670158
0.0821382
0.0946958
0.124274
0.1458