/*--------------------------------*- C++ -*----------------------------------*\
| =========                 |                                                 |
| \\      /  F ield         | OpenFOAM: The Open Source CFD Toolbox           |
|  \\    /   O peration     | Version:  2.4.0                                 |
|   \\  /    A nd           | Web:      www.OpenFOAM.org                      |
|    \\/     M anipulation  |                                                 |
\*---------------------------------------------------------------------------*/
FoamFile
{
    version     2.0;
    format      ascii;
    class       surfaceScalarField;
    location    "0.93";
    object      phi_0;
}
// * * * * * * * * * * * * * * * * * * * * * * * * * * * * * * * * * * * * * //

dimensions      [0 3 -1 0 0 0 0];

internalField   nonuniform List<scalar> 
17320
(
1.7634e-05
7.36602e-06
1.16186e-05
6.01535e-06
8.68177e-06
2.93686e-06
7.35531e-06
1.32646e-06
6.7221e-06
6.33213e-07
6.33621e-06
3.85886e-07
6.08714e-06
2.49072e-07
5.86161e-06
2.25527e-07
5.71607e-06
1.45542e-07
5.57739e-06
1.38676e-07
5.48621e-06
9.11862e-08
5.38589e-06
1.00314e-07
5.30295e-06
8.29393e-08
5.24553e-06
5.74207e-08
5.1335e-06
1.12027e-07
5.04985e-06
8.36518e-08
4.99508e-06
5.4775e-08
4.85888e-06
1.36201e-07
4.6711e-06
1.8778e-07
-4.01513e-07
5.07261e-06
2.54539e-05
6.91211e-06
2.32499e-05
8.21937e-06
2.09857e-05
5.20106e-06
1.93196e-05
2.99252e-06
1.80762e-05
1.87661e-06
1.7109e-05
1.3531e-06
1.6374e-05
9.8407e-07
1.57662e-05
8.33342e-07
1.53158e-05
5.95922e-07
1.49333e-05
5.21183e-07
1.46401e-05
3.84435e-07
1.43681e-05
3.72274e-07
1.4158e-05
2.93013e-07
1.39507e-05
2.64722e-07
1.37368e-05
3.25935e-07
1.35391e-05
2.81389e-07
1.33656e-05
2.28243e-07
1.31043e-05
3.97531e-07
1.30083e-05
2.83817e-07
-3.28358e-07
1.29351e-05
2.66115e-05
5.30066e-06
2.71596e-05
7.67127e-06
2.67741e-05
5.58649e-06
2.62549e-05
3.51176e-06
2.55986e-05
2.53289e-06
2.48753e-05
2.07637e-06
2.41629e-05
1.69651e-06
2.35005e-05
1.4957e-06
2.29355e-05
1.16097e-06
2.24513e-05
1.00541e-06
2.20409e-05
7.9476e-07
2.16602e-05
7.52988e-07
2.13889e-05
5.64334e-07
2.10652e-05
5.88398e-07
2.08169e-05
5.74267e-07
2.05347e-05
5.63529e-07
2.03313e-05
4.31657e-07
1.99292e-05
7.99694e-07
1.98911e-05
3.21858e-07
2.97996e-07
1.92648e-05
2.63166e-05
3.9841e-06
2.75428e-05
6.44507e-06
2.80696e-05
5.05967e-06
2.84663e-05
3.11502e-06
2.8632e-05
2.36718e-06
2.86374e-05
2.07097e-06
2.84672e-05
1.86675e-06
2.82413e-05
1.72155e-06
2.79584e-05
1.44389e-06
2.76959e-05
1.26798e-06
2.74526e-05
1.03804e-06
2.71178e-05
1.08773e-06
2.69798e-05
7.02329e-07
2.66436e-05
9.24597e-07
2.64572e-05
7.60733e-07
2.61997e-05
8.20955e-07
2.60098e-05
6.21573e-07
2.56155e-05
1.19399e-06
2.53789e-05
5.58479e-07
1.2888e-06
2.43881e-05
2.60525e-05
2.93162e-06
2.72528e-05
5.24477e-06
2.80046e-05
4.30783e-06
2.85191e-05
2.60053e-06
2.89532e-05
1.93311e-06
2.93563e-05
1.66788e-06
2.95574e-05
1.66564e-06
2.97663e-05
1.51264e-06
2.98355e-05
1.37468e-06
2.9881e-05
1.22243e-06
3.00283e-05
8.90787e-07
2.98638e-05
1.25219e-06
3.00185e-05
5.47647e-07
2.99276e-05
1.01555e-06
2.98445e-05
8.43787e-07
2.98804e-05
7.85048e-07
2.9708e-05
7.93971e-07
2.97549e-05
1.14711e-06
2.97258e-05
5.87608e-07
9.39058e-07
3.00755e-05
2.5836e-05
2.09557e-06
2.69936e-05
4.08727e-06
2.78002e-05
3.50121e-06
2.82585e-05
2.14217e-06
2.86917e-05
1.49999e-06
2.91465e-05
1.21305e-06
2.9381e-05
1.43109e-06
2.97637e-05
1.12999e-06
2.99765e-05
1.1619e-06
3.01328e-05
1.06606e-06
3.04924e-05
5.31183e-07
3.04941e-05
1.25056e-06
3.06844e-05
3.57316e-07
3.09233e-05
7.76593e-07
3.08789e-05
8.88191e-07
3.11982e-05
4.65818e-07
3.1164e-05
8.28169e-07
3.14815e-05
8.296e-07
3.16765e-05
3.92593e-07
7.22891e-07
3.18927e-05
2.57081e-05
1.3875e-06
2.67847e-05
3.01062e-06
2.76271e-05
2.65879e-06
2.80154e-05
1.7539e-06
2.84808e-05
1.03457e-06
2.885e-05
8.43897e-07
2.91473e-05
1.13377e-06
2.9531e-05
7.46292e-07
2.96807e-05
1.01225e-06
3.00233e-05
7.23382e-07
3.02301e-05
3.24463e-07
3.04297e-05
1.05094e-06
3.06141e-05
1.72942e-07
3.07817e-05
6.08926e-07
3.09859e-05
6.83963e-07
3.11199e-05
3.3185e-07
3.14678e-05
4.80279e-07
3.1696e-05
6.01368e-07
3.17603e-05
3.28289e-07
1.15818e-07
3.23674e-05
2.55416e-05
8.45924e-07
2.65727e-05
1.97946e-06
2.7455e-05
1.77648e-06
2.7976e-05
1.23291e-06
2.83367e-05
6.73907e-07
2.86438e-05
5.36787e-07
2.909e-05
6.87548e-07
2.92336e-05
6.0267e-07
2.95927e-05
6.53196e-07
2.98804e-05
4.35631e-07
2.99684e-05
2.36456e-07
3.03427e-05
6.76696e-07
3.04329e-05
8.27136e-08
3.05517e-05
4.90128e-07
3.08102e-05
4.25509e-07
3.09782e-05
1.63786e-07
3.13163e-05
1.42174e-07
3.1502e-05
4.15754e-07
3.16484e-05
1.8183e-07
-3.21483e-07
3.20857e-05
2.54406e-05
4.0532e-07
2.64852e-05
9.34826e-07
2.73229e-05
9.38773e-07
2.79472e-05
6.08708e-07
2.8205e-05
4.16107e-07
2.86133e-05
1.28485e-07
2.89288e-05
3.72046e-07
2.91558e-05
3.75625e-07
2.95158e-05
2.93215e-07
2.96415e-05
3.09935e-07
3.00224e-05
-1.44426e-07
3.02709e-05
4.28188e-07
3.0204e-05
1.49595e-07
3.05713e-05
1.22835e-07
3.06022e-05
3.94637e-07
3.10389e-05
-2.72943e-07
3.1104e-05
7.7081e-08
3.13049e-05
2.14781e-07
3.18696e-05
-3.82787e-07
1.01731e-07
3.14464e-05
2.54319e-05
-2.661e-08
2.64225e-05
-5.57704e-08
2.72736e-05
8.76955e-08
2.78931e-05
-1.0771e-08
2.82174e-05
9.18147e-08
2.85152e-05
-1.69368e-07
2.88029e-05
8.43472e-08
2.92021e-05
-2.3564e-08
2.93885e-05
1.06837e-07
2.96962e-05
2.2254e-09
2.98808e-05
-3.29043e-07
3.0064e-05
2.44996e-07
3.03525e-05
-1.3886e-07
3.04205e-05
5.47847e-08
3.07461e-05
6.90664e-08
3.08158e-05
-3.42634e-07
3.10914e-05
-1.98565e-07
3.14362e-05
-1.30005e-07
3.13189e-05
-2.65456e-07
-3.43046e-07
3.17637e-05
2.54316e-05
-4.58244e-07
2.64156e-05
-1.03975e-06
2.725e-05
-7.46692e-07
2.78811e-05
-6.41912e-07
2.82382e-05
-2.65196e-07
2.84716e-05
-4.0277e-07
2.88422e-05
-2.86324e-07
2.91392e-05
-3.20522e-07
2.94685e-05
-2.2246e-07
2.9757e-05
-2.86294e-07
2.97938e-05
-3.65865e-07
3.01303e-05
-9.14753e-08
3.0248e-05
-2.56595e-07
3.0504e-05
-2.01211e-07
3.06844e-05
-1.11314e-07
3.08456e-05
-5.03849e-07
3.10786e-05
-4.31563e-07
3.12563e-05
-3.0769e-07
3.1528e-05
-5.37165e-07
-5.2158e-07
3.17065e-05
2.54529e-05
-9.11129e-07
2.64612e-05
-2.04805e-06
2.73271e-05
-1.61261e-06
2.79509e-05
-1.26575e-06
2.82524e-05
-5.66687e-07
2.85718e-05
-7.22172e-07
2.88837e-05
-5.98176e-07
2.91973e-05
-6.34121e-07
2.95194e-05
-5.44592e-07
2.97211e-05
-4.87937e-07
2.99114e-05
-5.56157e-07
3.01464e-05
-3.26497e-07
3.02989e-05
-4.09123e-07
3.05816e-05
-4.83924e-07
3.07265e-05
-2.56204e-07
3.09199e-05
-6.97294e-07
3.1098e-05
-6.0965e-07
3.13568e-05
-5.66475e-07
3.15775e-05
-7.57804e-07
-6.79044e-07
3.17349e-05
2.55618e-05
-1.47297e-06
2.65788e-05
-3.06498e-06
2.74147e-05
-2.44858e-06
2.80051e-05
-1.85615e-06
2.83452e-05
-9.06736e-07
2.86702e-05
-1.04719e-06
2.89892e-05
-9.17217e-07
2.93223e-05
-9.67192e-07
2.95826e-05
-8.04859e-07
2.98837e-05
-7.89084e-07
3.00292e-05
-7.01605e-07
3.02356e-05
-5.32889e-07
3.04305e-05
-6.04008e-07
3.06387e-05
-6.92178e-07
3.08164e-05
-4.33886e-07
3.10327e-05
-9.13624e-07
3.12041e-05
-7.80985e-07
3.14842e-05
-8.46629e-07
3.1629e-05
-9.02614e-07
-1.00511e-06
3.19551e-05
2.56777e-05
-2.15067e-06
2.67173e-05
-4.10456e-06
2.76001e-05
-3.33138e-06
2.80752e-05
-2.33132e-06
2.84823e-05
-1.31382e-06
2.88408e-05
-1.40566e-06
2.91944e-05
-1.27085e-06
2.94818e-05
-1.25453e-06
2.97588e-05
-1.08186e-06
3.0026e-05
-1.0563e-06
3.0169e-05
-8.44602e-07
3.04416e-05
-8.05524e-07
3.06001e-05
-7.62468e-07
3.07989e-05
-8.90993e-07
3.09555e-05
-5.90454e-07
3.11648e-05
-1.12294e-06
3.13238e-05
-9.3996e-07
3.15839e-05
-1.10679e-06
3.18374e-05
-1.15609e-06
-1.31064e-06
3.21429e-05
2.58379e-05
-2.9886e-06
2.69377e-05
-5.20434e-06
2.78214e-05
-4.21503e-06
2.82426e-05
-2.75258e-06
2.87119e-05
-1.78314e-06
2.90984e-05
-1.79208e-06
2.94509e-05
-1.62335e-06
2.97098e-05
-1.51347e-06
2.99857e-05
-1.35772e-06
3.01953e-05
-1.26592e-06
3.03684e-05
-1.01767e-06
3.05522e-05
-9.89394e-07
3.07014e-05
-9.11607e-07
3.08222e-05
-1.01186e-06
3.09686e-05
-7.36794e-07
3.10788e-05
-1.23317e-06
3.11489e-05
-1.01001e-06
3.13642e-05
-1.32211e-06
3.14919e-05
-1.28385e-06
-1.52642e-06
3.17077e-05
2.60257e-05
-4.0143e-06
2.7235e-05
-6.41366e-06
2.80542e-05
-5.03417e-06
2.84949e-05
-3.19328e-06
2.8983e-05
-2.27127e-06
2.9321e-05
-2.13006e-06
2.95868e-05
-1.88915e-06
2.97334e-05
-1.6601e-06
2.98596e-05
-1.48395e-06
2.99022e-05
-1.30847e-06
2.99459e-05
-1.06138e-06
2.99536e-05
-9.97101e-07
2.99465e-05
-9.04558e-07
2.98857e-05
-9.50998e-07
2.98707e-05
-7.21872e-07
2.97391e-05
-1.10151e-06
2.96329e-05
-9.03823e-07
2.95727e-05
-1.26192e-06
2.94621e-05
-1.17326e-06
-1.49302e-06
2.94287e-05
2.63004e-05
-5.31471e-06
2.75458e-05
-7.65902e-06
2.80826e-05
-5.57094e-06
2.84396e-05
-3.55036e-06
2.86557e-05
-2.48733e-06
2.86211e-05
-2.09543e-06
2.84709e-05
-1.73894e-06
2.82384e-05
-1.42768e-06
2.79665e-05
-1.21205e-06
2.76797e-05
-1.02165e-06
2.74224e-05
-8.04095e-07
2.71514e-05
-7.26029e-07
2.68958e-05
-6.48951e-07
2.66205e-05
-6.75763e-07
2.64065e-05
-5.07839e-07
2.60751e-05
-7.70068e-07
2.58182e-05
-6.46958e-07
2.54848e-05
-9.28567e-07
2.51942e-05
-8.82678e-07
-1.30462e-06
2.50058e-05
2.66021e-05
-6.91684e-06
2.71626e-05
-8.21948e-06
2.67797e-05
-5.18802e-06
2.62415e-05
-3.0122e-06
2.56131e-05
-1.85896e-06
2.48689e-05
-1.35117e-06
2.41534e-05
-1.02344e-06
2.3509e-05
-7.83292e-07
2.29274e-05
-6.30432e-07
2.24333e-05
-5.27629e-07
2.20241e-05
-3.94824e-07
2.16564e-05
-3.58345e-07
2.13312e-05
-3.23783e-07
2.10111e-05
-3.55599e-07
2.07556e-05
-2.52364e-07
2.04046e-05
-4.19131e-07
2.01204e-05
-3.62731e-07
1.96965e-05
-5.04638e-07
1.93009e-05
-4.8714e-07
-4.73333e-07
1.84697e-05
2.54499e-05
-7.36671e-06
2.32483e-05
-6.01786e-06
2.09897e-05
-2.92943e-06
1.93126e-05
-1.33514e-06
1.80827e-05
-6.29092e-07
1.71099e-05
-3.78281e-07
1.63589e-05
-2.72519e-07
1.57766e-05
-2.00938e-07
1.5305e-05
-1.58817e-07
1.49204e-05
-1.4311e-07
1.46221e-05
-9.64495e-08
1.4357e-05
-9.3242e-08
1.4121e-05
-8.7779e-08
1.38773e-05
-1.11898e-07
1.36898e-05
-6.48771e-08
1.34112e-05
-1.40508e-07
1.31685e-05
-1.20118e-07
1.28311e-05
-1.6721e-07
1.25505e-05
-2.06509e-07
-7.78818e-08
1.2155e-05
1.76333e-05
1.16154e-05
8.686e-06
7.35086e-06
6.72177e-06
6.34349e-06
6.07097e-06
5.87003e-06
5.71121e-06
5.5681e-06
5.47165e-06
5.37841e-06
5.29063e-06
5.17873e-06
5.11386e-06
4.97335e-06
4.85323e-06
4.68602e-06
4.47951e-06
4.40163e-06
5.5667e-06
-3.05618e-07
-1.88468e-07
5.94833e-06
-1.64582e-07
-2.17051e-07
6.25694e-06
-1.50579e-07
-1.58038e-07
6.52393e-06
-1.92131e-07
-7.48555e-08
6.78833e-06
-2.75925e-07
1.15234e-08
7.03033e-06
-2.92003e-07
5.00081e-08
7.23843e-06
-2.79762e-07
7.16602e-08
7.40131e-06
-2.18753e-07
5.58678e-08
7.52734e-06
-1.79369e-07
5.33414e-08
7.62417e-06
-1.35694e-07
3.88614e-08
7.70608e-06
-1.11637e-07
2.97352e-08
7.77526e-06
-7.96144e-08
1.04266e-08
7.84019e-06
-4.52815e-08
-1.96456e-08
7.89771e-06
3.97523e-10
-5.79171e-08
7.96467e-06
6.41955e-08
-1.31155e-07
8.05314e-06
1.38965e-07
-2.27432e-07
8.17291e-06
2.20325e-07
-3.40096e-07
8.33887e-06
2.90669e-07
-4.56636e-07
8.52866e-06
3.46276e-07
-5.36065e-07
8.74151e-06
3.51156e-07
-5.64e-07
8.9424e-06
3.35934e-07
-5.36826e-07
9.14346e-06
2.75156e-07
-4.76213e-07
9.31389e-06
2.14875e-07
-3.85309e-07
9.45909e-06
1.18469e-07
-2.63669e-07
9.57387e-06
2.03077e-08
-1.35086e-07
9.67543e-06
-6.79906e-08
-3.35664e-08
9.75765e-06
-1.55184e-07
7.29557e-08
9.81411e-06
-2.0744e-07
1.50983e-07
9.87796e-06
-2.91991e-07
2.28138e-07
9.91843e-06
-2.95239e-07
2.54769e-07
9.97331e-06
-3.51344e-07
2.96468e-07
1.00064e-05
-3.10551e-07
2.7749e-07
1.00637e-05
-3.4089e-07
2.8357e-07
1.00987e-05
-2.74969e-07
2.39971e-07
1.01673e-05
-2.93534e-07
2.24937e-07
1.02069e-05
-2.13809e-07
1.74162e-07
1.02816e-05
-2.37642e-07
1.62947e-07
1.03345e-05
-1.40189e-07
8.73148e-08
1.04216e-05
-1.73662e-07
8.65239e-08
1.0453e-05
-5.59105e-08
2.45382e-08
1.05485e-05
-1.30497e-07
3.50239e-08
1.05806e-05
1.52733e-08
-4.74308e-08
1.06837e-05
-8.58807e-08
-1.71753e-08
1.07156e-05
4.90398e-08
-8.0946e-08
1.08185e-05
-8.70582e-08
-1.5881e-08
1.08596e-05
6.57887e-09
-4.7673e-08
1.09275e-05
-1.57021e-07
8.91469e-08
1.09388e-05
-1.09757e-07
9.84674e-08
1.0966e-05
-2.92514e-07
2.65269e-07
1.09298e-05
-2.38155e-07
2.74369e-07
1.08815e-05
-4.39998e-07
4.88296e-07
1.07758e-05
-3.13483e-07
4.19228e-07
1.06349e-05
-5.08887e-07
6.49828e-07
1.04711e-05
-2.48303e-07
4.12084e-07
1.02958e-05
-3.45116e-07
5.20338e-07
1.016e-05
7.4283e-08
6.16096e-08
1.00142e-05
1.18871e-07
2.6842e-08
1.01067e-05
7.05454e-07
-7.97948e-07
1.01499e-05
7.82498e-07
-8.25634e-07
1.05332e-05
1.44852e-06
-1.83188e-06
1.11518e-05
1.38104e-06
-1.99958e-06
1.1614e-05
2.02857e-06
-2.49073e-06
1.25776e-05
1.42957e-06
-2.39324e-06
1.30018e-05
2.01687e-06
-2.44103e-06
1.34041e-05
9.76224e-07
-1.37852e-06
1.3625e-05
1.22957e-06
-1.45049e-06
1.34809e-05
2.98779e-07
-1.54711e-07
1.3406e-05
4.51012e-07
-3.76105e-07
1.30882e-05
-2.58478e-07
5.76329e-07
1.28833e-05
5.13947e-08
1.53474e-07
1.25983e-05
-5.20327e-07
8.05303e-07
1.23798e-05
6.08005e-10
2.17936e-07
1.22254e-05
-5.82726e-07
7.37056e-07
1.20422e-05
1.45178e-07
3.81045e-08
1.20827e-05
-5.65102e-07
5.24564e-07
1.19734e-05
3.71646e-07
-2.62382e-07
1.21806e-05
-5.25718e-07
3.18579e-07
1.21442e-05
5.21815e-07
-4.85396e-07
1.23944e-05
-4.75181e-07
2.24969e-07
1.24957e-05
5.0064e-07
-6.01958e-07
1.27037e-05
-4.95683e-07
2.8766e-07
1.28666e-05
3.47687e-07
-5.10601e-07
1.30295e-05
-6.23302e-07
4.60426e-07
1.33004e-05
1.77136e-07
-4.48025e-07
1.33867e-05
-7.38964e-07
6.52646e-07
1.36954e-05
-4.43363e-08
-2.6436e-07
1.38562e-05
-7.84426e-07
6.23668e-07
1.40896e-05
-1.42571e-07
-9.08239e-08
1.43477e-05
-8.60476e-07
6.02282e-07
1.45804e-05
-1.28945e-07
-1.03662e-07
1.47817e-05
-7.80704e-07
5.79334e-07
1.50614e-05
-1.09445e-07
-1.70279e-07
1.5201e-05
-5.76439e-07
4.36854e-07
1.54939e-05
-1.08974e-08
-2.81983e-07
1.56464e-05
-3.66337e-07
2.13889e-07
1.59651e-05
2.29124e-07
-5.47822e-07
1.61127e-05
-4.96292e-08
-9.806e-08
1.64323e-05
4.18563e-07
-7.38149e-07
1.65726e-05
1.91236e-07
-3.31498e-07
1.69153e-05
5.80792e-07
-9.23521e-07
1.70423e-05
4.13651e-07
-5.40648e-07
1.74438e-05
5.9742e-07
-9.98914e-07
1.75966e-05
5.13426e-07
-6.6618e-07
1.79972e-05
5.17869e-07
-9.18482e-07
1.82058e-05
3.86871e-07
-5.9549e-07
1.85754e-05
3.16303e-07
-6.85871e-07
1.88509e-05
9.96811e-08
-3.75236e-07
1.9197e-05
-4.17242e-08
-3.04321e-07
1.95272e-05
-3.32227e-07
2.04153e-09
1.98986e-05
-5.05791e-07
1.34329e-07
2.02281e-05
-8.64813e-07
5.35334e-07
2.0628e-05
-1.04887e-06
6.48978e-07
2.09268e-05
-1.45379e-06
1.15501e-06
2.13671e-05
-1.57738e-06
1.13706e-06
2.16426e-05
-2.0279e-06
1.75239e-06
2.20782e-05
-2.07912e-06
1.64348e-06
2.23138e-05
-2.48136e-06
2.24575e-06
2.26793e-05
-2.42644e-06
2.06093e-06
2.2871e-05
-2.71391e-06
2.52225e-06
2.31667e-05
-2.73098e-06
2.4353e-06
2.33056e-05
-2.85362e-06
2.71472e-06
2.35349e-05
-2.9573e-06
2.72798e-06
2.36008e-05
-3.06995e-06
3.00405e-06
2.38887e-05
-3.28044e-06
2.9925e-06
2.39292e-05
-3.49667e-06
3.45619e-06
2.42691e-05
-3.6617e-06
3.3218e-06
2.42888e-05
-4.11267e-06
4.09298e-06
2.47259e-05
-4.15834e-06
3.72122e-06
2.4767e-05
-4.90447e-06
4.86341e-06
2.52727e-05
-4.69411e-06
4.18845e-06
2.54457e-05
-5.85166e-06
5.67863e-06
2.59498e-05
-5.45579e-06
4.95163e-06
2.63167e-05
-6.9274e-06
6.56052e-06
2.68077e-05
-6.52899e-06
6.03803e-06
2.73095e-05
-8.10439e-06
7.60257e-06
2.78528e-05
-7.87842e-06
7.33506e-06
2.83791e-05
-9.49032e-06
8.96405e-06
2.89552e-05
-9.23624e-06
8.66019e-06
2.94676e-05
-1.10524e-05
1.05399e-05
2.98183e-05
-1.05542e-05
1.02035e-05
3.01589e-05
-1.23783e-05
1.20377e-05
3.01721e-05
-1.17378e-05
1.17246e-05
3.00458e-05
-1.32869e-05
1.34132e-05
2.94823e-05
-1.22721e-05
1.28356e-05
2.90417e-05
-1.35959e-05
1.40365e-05
2.80747e-05
-1.24323e-05
1.33993e-05
2.75577e-05
-1.3232e-05
1.3749e-05
2.70148e-05
-1.24889e-05
1.30318e-05
2.69583e-05
-1.31932e-05
1.32498e-05
2.68724e-05
-1.24079e-05
1.24939e-05
2.71247e-05
-1.29221e-05
1.26699e-05
2.71197e-05
-1.21348e-05
1.21397e-05
2.72067e-05
-1.19614e-05
1.18744e-05
2.70158e-05
-1.13225e-05
1.15134e-05
2.66997e-05
-1.05146e-05
1.08307e-05
2.63412e-05
-9.61486e-06
9.9734e-06
2.59499e-05
-8.85502e-06
9.24631e-06
2.53944e-05
-7.60031e-06
8.15582e-06
2.48882e-05
-6.50767e-06
7.01386e-06
2.4352e-05
-5.35369e-06
5.88982e-06
2.37311e-05
-4.07704e-06
4.69795e-06
2.2957e-05
-2.68322e-06
3.45733e-06
2.25479e-05
-2.01639e-06
2.42548e-06
2.24098e-05
-1.25837e-06
1.39652e-06
2.26177e-05
-4.83291e-07
2.75318e-07
2.31823e-05
3.38845e-07
-9.03357e-07
2.41033e-05
1.71933e-06
-2.64032e-06
2.4776e-05
3.77076e-06
-4.44346e-06
2.56919e-05
5.57273e-06
-6.48865e-06
2.63744e-05
8.31008e-06
-8.99257e-06
2.60862e-05
1.16148e-05
-1.13266e-05
2.47961e-05
1.34055e-05
-1.21154e-05
2.39949e-05
1.40636e-05
-1.32624e-05
2.34414e-05
1.62762e-05
-1.57227e-05
2.22917e-05
1.78801e-05
-1.67304e-05
2.10355e-05
1.85153e-05
-1.72591e-05
1.90408e-05
1.90999e-05
-1.71053e-05
1.61891e-05
1.77942e-05
-1.49424e-05
1.33801e-05
1.57266e-05
-1.29176e-05
1.23411e-05
1.39987e-05
-1.29597e-05
1.3051e-05
1.70375e-05
-1.77474e-05
1.29985e-05
2.12068e-05
-2.11544e-05
1.28003e-05
2.20875e-05
-2.18892e-05
1.27168e-05
2.25427e-05
-2.24592e-05
1.2551e-05
2.07178e-05
-2.0552e-05
1.22574e-05
1.99679e-05
-1.96742e-05
1.26072e-05
1.74001e-05
-1.775e-05
1.2658e-05
1.68267e-05
-1.68776e-05
1.3063e-05
1.27967e-05
-1.32016e-05
1.36988e-05
1.05697e-05
-1.12055e-05
1.38445e-05
6.43811e-06
-6.58373e-06
1.40688e-05
4.66914e-06
-4.89352e-06
1.35904e-05
2.74437e-06
-2.26589e-06
1.34571e-05
1.85089e-06
-1.71763e-06
1.26674e-05
6.57462e-07
1.32184e-07
1.22249e-05
-5.32132e-07
9.74656e-07
1.1095e-05
-1.38841e-06
2.51834e-06
1.02599e-05
-2.66257e-06
3.49767e-06
8.68891e-06
-2.79341e-06
4.3644e-06
-3.19468e-06
3.28816e-06
8.59543e-06
1.29069e-05
-2.77375e-07
1.29851e-05
-2.42832e-07
1.31637e-05
-3.29145e-07
1.33514e-05
-3.79817e-07
1.35396e-05
-4.64206e-07
1.36855e-05
-4.37814e-07
1.38036e-05
-3.97917e-07
1.38867e-05
-3.01795e-07
1.39427e-05
-2.35365e-07
1.3978e-05
-1.70997e-07
1.3994e-05
-1.27634e-07
1.40117e-05
-9.73524e-08
1.40113e-05
-4.48951e-08
1.40395e-05
-2.77819e-08
1.40535e-05
5.02021e-08
1.41148e-05
7.76312e-08
1.41721e-05
1.63043e-07
1.4277e-05
1.85729e-07
1.43764e-05
2.46889e-07
1.45028e-05
2.24804e-07
1.46069e-05
2.31773e-07
1.4722e-05
1.60064e-07
1.48248e-05
1.12142e-07
1.4911e-05
3.2205e-08
1.50039e-05
-7.25767e-08
1.50613e-05
-1.2535e-07
1.51564e-05
-2.50335e-07
1.5185e-05
-2.35997e-07
1.52704e-05
-3.77437e-07
1.52794e-05
-3.04245e-07
1.53605e-05
-4.32418e-07
1.5359e-05
-3.0909e-07
1.54288e-05
-4.10656e-07
1.54294e-05
-2.75602e-07
1.54831e-05
-3.47161e-07
1.54962e-05
-2.26977e-07
1.5533e-05
-2.74431e-07
1.55587e-05
-1.65867e-07
1.5599e-05
-2.13966e-07
1.56279e-05
-8.48308e-08
1.56725e-05
-1.75113e-07
1.57181e-05
-3.03325e-08
1.57775e-05
-1.45274e-07
1.58447e-05
-1.80814e-08
1.58976e-05
-1.40025e-07
1.59737e-05
-6.95425e-08
1.60092e-05
-1.9246e-07
1.60643e-05
-1.64907e-07
1.60699e-05
-2.98091e-07
1.6076e-05
-2.44231e-07
1.60383e-05
-4.0227e-07
1.59652e-05
-2.40382e-07
1.589e-05
-4.33708e-07
1.57188e-05
-7.70887e-08
1.5649e-05
-2.7539e-07
1.54304e-05
2.92961e-07
1.54045e-05
1.44736e-07
1.5243e-05
8.66923e-07
1.53326e-05
6.92878e-07
1.53228e-05
1.45833e-06
1.55689e-05
1.13498e-06
1.57766e-05
1.82085e-06
1.59532e-05
1.25302e-06
1.63147e-05
1.65535e-06
1.63024e-05
9.88484e-07
1.64478e-05
1.08419e-06
1.63711e-05
3.75487e-07
1.62409e-05
5.81219e-07
1.61654e-05
-1.82998e-07
1.59421e-05
2.74745e-07
1.59082e-05
-4.86441e-07
1.57158e-05
1.93008e-07
1.57468e-05
-6.13729e-07
1.56739e-05
2.18104e-07
1.57258e-05
-6.17085e-07
1.58397e-05
2.57773e-07
1.58567e-05
-5.42749e-07
1.61703e-05
2.08221e-07
1.61904e-05
-4.95205e-07
1.65941e-05
9.68654e-08
1.6669e-05
-5.70534e-07
1.70555e-05
-3.88759e-08
1.71777e-05
-7.45451e-07
1.75498e-05
-1.94988e-07
1.77035e-05
-8.92621e-07
1.80287e-05
-3.69537e-07
1.82026e-05
-9.58305e-07
1.85225e-05
-4.62538e-07
1.86117e-05
-9.49621e-07
1.89801e-05
-4.97383e-07
1.90262e-05
-8.2681e-07
1.9374e-05
-4.57267e-07
1.94097e-05
-6.12141e-07
1.97074e-05
-3.08585e-07
1.97396e-05
-3.98504e-07
2.00552e-05
-8.64959e-08
2.01219e-05
-1.1632e-07
2.04393e-05
1.01192e-07
2.05269e-05
1.0358e-07
2.08816e-05
2.26087e-07
2.10413e-05
2.54003e-07
2.13624e-05
2.76327e-07
2.16591e-05
2.16735e-07
2.19418e-05
2.35121e-07
2.22979e-05
3.08089e-08
2.2614e-05
1.97998e-10
2.29768e-05
-2.63134e-07
2.33154e-05
-3.80345e-07
2.36676e-05
-6.84384e-07
2.40611e-05
-8.99359e-07
2.43789e-05
-1.18257e-06
2.47858e-05
-1.45579e-06
2.50509e-05
-1.71888e-06
2.54532e-05
-1.97969e-06
2.56534e-05
-2.22807e-06
2.59806e-05
-2.40631e-06
2.61185e-05
-2.61926e-06
2.63877e-05
-2.69561e-06
2.649e-05
-2.81625e-06
2.67336e-05
-2.97457e-06
2.68231e-05
-2.94314e-06
2.71021e-05
-3.23626e-06
2.71597e-05
-3.12754e-06
2.74512e-05
-3.57193e-06
2.74592e-05
-3.50472e-06
2.78085e-05
-4.01101e-06
2.77292e-05
-4.03333e-06
2.81459e-05
-4.57501e-06
2.80265e-05
-4.7851e-06
2.85482e-05
-5.21584e-06
2.84846e-05
-5.78804e-06
2.90448e-05
-6.01597e-06
2.91333e-05
-7.0159e-06
2.96344e-05
-7.03012e-06
2.98388e-05
-8.30871e-06
3.0284e-05
-8.32368e-06
3.03915e-05
-9.5978e-06
3.07271e-05
-9.57187e-06
3.06454e-05
-1.09706e-05
3.05879e-05
-1.04967e-05
3.03415e-05
-1.2132e-05
2.97678e-05
-1.1164e-05
2.91767e-05
-1.26959e-05
2.83911e-05
-1.14865e-05
2.79004e-05
-1.31051e-05
2.71567e-05
-1.16887e-05
2.72586e-05
-1.33338e-05
2.71507e-05
-1.2381e-05
2.74382e-05
-1.34807e-05
2.74244e-05
-1.23942e-05
2.75909e-05
-1.30886e-05
2.71896e-05
-1.17335e-05
2.68996e-05
-1.16713e-05
2.62599e-05
-1.06827e-05
2.55622e-05
-9.81693e-06
2.48985e-05
-8.95123e-06
2.40859e-05
-8.0424e-06
2.33174e-05
-6.83175e-06
2.25065e-05
-5.69684e-06
2.15895e-05
-4.43665e-06
2.04861e-05
-2.97363e-06
1.95926e-05
-1.7897e-06
1.90897e-05
-1.51351e-06
1.9339e-05
-1.50764e-06
1.99673e-05
-1.11165e-06
2.06266e-05
-3.20407e-07
2.17277e-05
6.1815e-07
2.26689e-05
2.82959e-06
2.36461e-05
4.5955e-06
2.49601e-05
6.99611e-06
2.59367e-05
1.06382e-05
2.52501e-05
1.40921e-05
2.40431e-05
1.52706e-05
2.36492e-05
1.667e-05
2.27959e-05
1.87334e-05
2.16135e-05
1.96977e-05
2.00903e-05
2.06231e-05
1.78543e-05
2.00302e-05
1.51922e-05
1.83887e-05
1.31192e-05
1.60716e-05
1.36354e-05
1.65214e-05
1.45869e-05
2.02553e-05
1.49197e-05
2.17547e-05
1.47896e-05
2.26728e-05
1.48624e-05
2.06451e-05
1.463e-05
2.02003e-05
1.48393e-05
1.71909e-05
1.5481e-05
1.6185e-05
1.59119e-05
1.23658e-05
1.66423e-05
9.83927e-06
1.63267e-05
6.75377e-06
1.62713e-05
4.72453e-06
1.5493e-05
3.52266e-06
1.53313e-05
2.01261e-06
1.46067e-05
1.38206e-06
1.43972e-05
-3.22655e-07
1.3581e-05
-5.72193e-07
1.31489e-05
-2.23045e-06
1.2322e-05
-1.96658e-06
-3.1427e-06
1.227e-05
1.93004e-05
-3.12952e-07
1.9487e-05
-4.29466e-07
1.97216e-05
-5.63765e-07
1.99139e-05
-5.72071e-07
2.00375e-05
-5.87847e-07
2.00943e-05
-4.94624e-07
2.01303e-05
-4.33933e-07
2.01687e-05
-3.40148e-07
2.02144e-05
-2.81133e-07
2.02447e-05
-2.01229e-07
2.02427e-05
-1.25703e-07
2.02257e-05
-8.03527e-08
2.01928e-05
-1.19592e-08
2.01633e-05
1.72028e-09
2.01602e-05
5.32768e-08
2.01718e-05
6.60441e-08
2.02366e-05
9.82213e-08
2.03026e-05
1.19728e-07
2.04121e-05
1.37431e-07
2.04982e-05
1.38744e-07
2.05978e-05
1.32132e-07
2.06605e-05
9.742e-08
2.07332e-05
3.94122e-08
2.07707e-05
-5.35973e-09
2.08295e-05
-1.31288e-07
2.08328e-05
-1.28651e-07
2.08982e-05
-3.15802e-07
2.08904e-05
-2.28165e-07
2.09559e-05
-4.42927e-07
2.09447e-05
-2.93101e-07
2.10004e-05
-4.88032e-07
2.10076e-05
-3.16367e-07
2.10352e-05
-4.38217e-07
2.10703e-05
-3.10728e-07
2.10569e-05
-3.33744e-07
2.11163e-05
-2.86406e-07
2.10715e-05
-2.29564e-07
2.11373e-05
-2.31735e-07
2.10956e-05
-1.72287e-07
2.11478e-05
-1.36995e-07
2.11389e-05
-1.66165e-07
2.11596e-05
-5.10396e-08
2.12078e-05
-1.93452e-07
2.11958e-05
-6.12323e-09
2.12926e-05
-2.36814e-07
2.12417e-05
-1.86382e-08
2.13655e-05
-3.16265e-07
2.12801e-05
-7.9539e-08
2.13822e-05
-4.00201e-07
2.12697e-05
-1.31749e-07
2.13169e-05
-4.49402e-07
2.11757e-05
-9.92249e-08
2.11477e-05
-4.05714e-07
2.09898e-05
8.08397e-08
2.09076e-05
-1.93241e-07
2.07655e-05
4.35089e-07
2.06743e-05
2.35976e-07
2.06369e-05
9.04285e-07
2.05528e-05
7.77011e-07
2.06469e-05
1.36423e-06
2.06021e-05
1.17976e-06
2.07812e-05
1.64173e-06
2.07789e-05
1.25538e-06
2.08793e-05
1.5549e-06
2.09237e-05
9.44051e-07
2.08195e-05
1.18841e-06
2.07965e-05
3.98562e-07
2.0645e-05
7.32621e-07
2.05124e-05
-5.03086e-08
2.04225e-05
3.64649e-07
2.02497e-05
-3.1371e-07
2.03066e-05
1.36161e-07
2.01279e-05
-4.35042e-07
2.03426e-05
3.39859e-09
2.02066e-05
-4.81047e-07
2.05243e-05
-5.99661e-08
2.051e-05
-5.28479e-07
2.08619e-05
-1.43614e-07
2.09636e-05
-5.96969e-07
2.13324e-05
-2.71931e-07
2.14757e-05
-7.13801e-07
2.18788e-05
-4.41985e-07
2.19938e-05
-8.60412e-07
2.24266e-05
-6.27866e-07
2.25142e-05
-9.80187e-07
2.29288e-05
-7.84119e-07
2.29936e-05
-1.0231e-06
2.33959e-05
-8.64853e-07
2.34423e-05
-9.95985e-07
2.37833e-05
-8.38469e-07
2.3857e-05
-9.00507e-07
2.41101e-05
-7.10306e-07
2.42188e-05
-7.20882e-07
2.44111e-05
-5.00846e-07
2.45002e-05
-4.87668e-07
2.46976e-05
-2.83883e-07
2.48169e-05
-2.35623e-07
2.5002e-05
-8.38867e-08
2.51662e-05
-6.06041e-08
2.53413e-05
5.09334e-08
2.56038e-05
-8.45736e-09
2.57698e-05
1.10293e-07
2.60843e-05
-9.77517e-08
2.63258e-05
-6.3448e-09
2.66258e-05
-2.69232e-07
2.69281e-05
-3.02107e-07
2.72389e-05
-5.73924e-07
2.7557e-05
-6.98373e-07
2.78715e-05
-9.9888e-07
2.81753e-05
-1.2032e-06
2.84552e-05
-1.46245e-06
2.87298e-05
-1.73043e-06
2.89698e-05
-1.95883e-06
2.92003e-05
-2.21019e-06
2.93617e-05
-2.38947e-06
2.95095e-05
-2.55415e-06
2.96657e-05
-2.77542e-06
2.97606e-05
-2.79057e-06
2.98859e-05
-2.94152e-06
2.99346e-05
-3.02332e-06
3.00573e-05
-3.06584e-06
3.00852e-05
-3.26417e-06
3.018e-05
-3.22232e-06
3.02075e-05
-3.59949e-06
3.02784e-05
-3.57562e-06
3.03403e-05
-4.07283e-06
3.03726e-05
-4.06562e-06
3.05584e-05
-4.76081e-06
3.0513e-05
-4.73978e-06
3.08587e-05
-5.56152e-06
3.07412e-05
-5.67059e-06
3.1119e-05
-6.39377e-06
3.09949e-05
-6.89177e-06
3.12703e-05
-7.30548e-06
3.11248e-05
-8.16324e-06
3.11875e-05
-8.38638e-06
3.08784e-05
-9.28868e-06
3.07983e-05
-9.49183e-06
3.0137e-05
-1.03092e-05
2.9848e-05
-1.02078e-05
2.9074e-05
-1.13579e-05
2.84539e-05
-1.05439e-05
2.78621e-05
-1.21041e-05
2.75034e-05
-1.11278e-05
2.72861e-05
-1.28878e-05
2.72023e-05
-1.16049e-05
2.77263e-05
-1.38578e-05
2.75392e-05
-1.2194e-05
2.78375e-05
-1.37789e-05
2.74544e-05
-1.20112e-05
2.72602e-05
-1.28945e-05
2.62523e-05
-1.07256e-05
2.56304e-05
-1.10494e-05
2.44526e-05
-9.50487e-06
2.36367e-05
-9.00103e-06
2.23821e-05
-7.69661e-06
2.12649e-05
-6.92522e-06
2.02188e-05
-5.78568e-06
1.90133e-05
-4.49132e-06
1.7795e-05
-3.21831e-06
1.68556e-05
-2.03423e-06
1.67114e-05
-1.64556e-06
1.69508e-05
-1.75284e-06
1.78027e-05
-2.35956e-06
1.88665e-05
-2.17543e-06
1.97942e-05
-1.24813e-06
2.06026e-05
-1.90241e-07
2.15188e-05
1.91339e-06
2.20906e-05
4.02365e-06
2.30905e-05
5.99622e-06
2.45182e-05
9.2105e-06
2.52194e-05
1.33909e-05
2.42801e-05
1.62099e-05
2.36592e-05
1.72909e-05
2.31006e-05
1.9292e-05
2.22497e-05
2.05486e-05
2.12377e-05
2.1635e-05
1.9412e-05
2.1856e-05
1.7225e-05
2.05758e-05
1.4792e-05
1.85046e-05
1.43475e-05
1.69659e-05
1.52881e-05
1.93147e-05
1.66277e-05
2.0415e-05
1.71403e-05
2.21602e-05
1.74655e-05
2.03198e-05
1.76197e-05
2.00461e-05
1.77851e-05
1.70254e-05
1.85065e-05
1.54636e-05
1.86843e-05
1.21879e-05
1.90593e-05
9.46428e-06
1.85645e-05
7.24857e-06
1.82633e-05
5.02573e-06
1.75848e-05
4.20114e-06
1.72578e-05
2.3396e-06
1.68134e-05
1.82645e-06
1.66505e-05
-1.59711e-07
1.62658e-05
-1.87494e-07
1.59852e-05
-1.94987e-06
1.56501e-05
-1.63149e-06
-3.06742e-06
1.55748e-05
2.46688e-05
-5.93598e-07
2.51343e-05
-8.94984e-07
2.55337e-05
-9.63217e-07
2.56525e-05
-6.90816e-07
2.56902e-05
-6.25604e-07
2.56374e-05
-4.418e-07
2.56187e-05
-4.15233e-07
2.5555e-05
-2.76404e-07
2.55815e-05
-3.07668e-07
2.5552e-05
-1.71691e-07
2.56011e-05
-1.74888e-07
2.55553e-05
-3.44895e-08
2.55792e-05
-3.59325e-08
2.55123e-05
6.8689e-08
2.55237e-05
4.18808e-08
2.54764e-05
1.13274e-07
2.55165e-05
5.81846e-08
2.55348e-05
1.01366e-07
2.56041e-05
6.81764e-08
2.56865e-05
5.63578e-08
2.57443e-05
7.42761e-08
2.58436e-05
-1.81806e-09
2.58607e-05
2.23162e-08
2.59399e-05
-8.4564e-08
2.59247e-05
-1.16104e-07
2.59673e-05
-1.71256e-07
2.59435e-05
-2.91968e-07
2.59685e-05
-2.53243e-07
2.59481e-05
-4.22504e-07
2.59767e-05
-3.21719e-07
2.5956e-05
-4.67262e-07
2.59997e-05
-3.60078e-07
2.59814e-05
-4.19975e-07
2.60249e-05
-3.54146e-07
2.60188e-05
-3.27711e-07
2.60319e-05
-2.99486e-07
2.60585e-05
-2.5612e-07
2.60206e-05
-1.93885e-07
2.60982e-05
-2.49915e-07
2.60075e-05
-4.62232e-08
2.61283e-05
-2.87029e-07
2.60139e-05
6.33584e-08
2.61333e-05
-3.12822e-07
2.6053e-05
7.41988e-08
2.61306e-05
-3.14429e-07
2.60825e-05
2.94676e-08
2.61088e-05
-3.42598e-07
2.60731e-05
-4.37947e-08
2.60468e-05
-3.73887e-07
2.6009e-05
-9.39392e-08
2.59135e-05
-3.53901e-07
2.58917e-05
-7.7454e-08
2.57206e-05
-2.34601e-07
2.57231e-05
7.83135e-08
2.55165e-05
1.33831e-08
2.55262e-05
4.25398e-07
2.53787e-05
3.83465e-07
2.53903e-05
8.9262e-07
2.53615e-05
8.05858e-07
2.53915e-05
1.33424e-06
2.54398e-05
1.1315e-06
2.55132e-05
1.56826e-06
2.55538e-05
1.21484e-06
2.5615e-05
1.49368e-06
2.55711e-05
9.87892e-07
2.56206e-05
1.13891e-06
2.54186e-05
6.00571e-07
2.5501e-05
6.50286e-07
2.52181e-05
2.32515e-07
2.53313e-05
2.51467e-07
2.50879e-05
-7.0266e-08
2.52358e-05
-1.17319e-08
2.50773e-05
-2.76591e-07
2.52718e-05
-1.91078e-07
2.52028e-05
-4.12057e-07
2.54527e-05
-3.09864e-07
2.54831e-05
-5.5888e-07
2.57676e-05
-4.28114e-07
2.58618e-05
-6.91173e-07
2.61965e-05
-6.0666e-07
2.62904e-05
-8.07633e-07
2.66611e-05
-8.12679e-07
2.67354e-05
-9.34747e-07
2.70995e-05
-9.91969e-07
2.71728e-05
-1.05346e-06
2.74826e-05
-1.09399e-06
2.75704e-05
-1.1109e-06
2.78243e-05
-1.11871e-06
2.79308e-05
-1.10245e-06
2.81052e-05
-1.01289e-06
2.82268e-05
-1.02208e-06
2.83597e-05
-8.43215e-07
2.84884e-05
-8.49602e-07
2.86109e-05
-6.23381e-07
2.87318e-05
-6.08561e-07
2.88547e-05
-4.06731e-07
2.89996e-05
-3.80551e-07
2.91288e-05
-2.13038e-07
2.93116e-05
-2.43481e-07
2.94448e-05
-8.22092e-08
2.96649e-05
-2.28557e-07
2.98437e-05
-6.84886e-08
3.00665e-05