/*--------------------------------*- C++ -*----------------------------------*\
| =========                 |                                                 |
| \\      /  F ield         | OpenFOAM: The Open Source CFD Toolbox           |
|  \\    /   O peration     | Version:  2.4.0                                 |
|   \\  /    A nd           | Web:      www.OpenFOAM.org                      |
|    \\/     M anipulation  |                                                 |
\*---------------------------------------------------------------------------*/
FoamFile
{
    version     2.0;
    format      ascii;
    class       volScalarField;
    location    "0.99";
    object      p;
}
// * * * * * * * * * * * * * * * * * * * * * * * * * * * * * * * * * * * * * //

dimensions      [0 2 -2 0 0 0 0];

internalField   nonuniform List<scalar> 
8800
(
97.2729
84.8502
77.5392
73.9967
71.991
70.7711
69.4824
68.2543
67.4995
66.3927
65.3168
64.5972
63.6584
62.6058
61.8975
61.1318
60.2238
59.5874
59.0209
58.4883
94.1565
84.4953
77.7097
74.1145
72.0432
70.7993
69.4966
68.2411
67.5051
66.3964
65.3009
64.6012
63.6632
62.5944
61.8954
61.1372
60.2195
59.5779
59.0242
58.449
92.1857
84.5746
78.319
74.49
72.2061
70.8824
69.5414
68.2695
67.5353
66.4134
65.3038
64.6129
63.6679
62.5845
61.8955
61.1343
60.2145
59.5647
59.0938
58.5205
90.6478
84.6404
78.9089
74.9117
72.3934
70.9641
69.5993
68.3354
67.582
66.4487
65.3345
64.6325
63.6753
62.5882
61.8998
61.1253
60.2043
59.5586
59.1794
58.811
89.3987
84.6175
79.3864
75.3184
72.5706
71.0143
69.6481
68.4101
67.6192
66.5002
65.3881
64.6528
63.6801
62.6097
61.8949
61.117
60.1863
59.5568
59.1007
59.1526
88.4164
84.5183
79.7475
75.6683
72.7342
71.0363
69.6844
68.475
67.6453
66.5522
65.4435
64.6664
63.6876
62.6386
61.8855
61.1011
60.1804
59.5558
59.1198
59.6619
87.6561
84.3991
80.009
75.9509
72.88
71.0523
69.7059
68.5126
67.6684
66.6055
65.4896
64.6742
63.6959
62.6589
61.877
61.0899
60.1897
59.562
59.2194
59.8624
87.1025
84.3029
80.1842
76.1636
73.0111
71.0612
69.712
68.5433
67.682
66.6437
65.5271
64.6811
63.7046
62.6751
61.8658
61.0829
60.2047
59.5873
59.2997
60.0292
86.7454
84.2457
80.2898
76.3083
73.1032
71.0613
69.7153
68.5622
67.6874
66.6731
65.5588
64.6844
63.7088
62.6847
61.8672
61.0856
60.2246
59.6175
59.3557
60.1329
86.5748
84.2159
80.333
76.3834
73.151
71.0544
69.7215
68.5714
67.6796
66.6915
65.5791
64.6797
63.7126
62.6997
61.8658
61.0917
60.2507
59.6449
59.4116
60.2005
86.5803
84.2176
80.3198
76.3849
73.1557
71.0444
69.732
68.5752
67.6649
66.6981
65.5881
64.6741
63.7137
62.7149
61.873
61.1031
60.2762
59.6707
59.4363
60.2518
86.7595
84.2548
80.2529
76.3169
73.1162
71.0296
69.7472
68.5752
67.6359
66.6951
65.5899
64.6601
63.7429
62.7339
61.8801
61.1182
60.3067
59.6934
59.4296
60.2729
87.122
84.3213
80.1314
76.1796
73.0322
71.0091
69.7664
68.5662
67.5943
66.6844
65.5823
64.64
63.7393
62.7497
61.8927
61.1392
60.3385
59.7171
59.4094
60.2344
87.6781
84.4107
79.9438
75.9771
72.9098
70.9792
69.7833
68.5513
67.5418
66.6628
65.5664
64.6102
63.7419
62.7691
61.9025
61.1652
60.3793
59.7471
59.3808
60.1155
88.4372
84.5169
79.6773
75.7042
72.7696
70.9408
69.7898
68.5215
67.475
66.6381
65.5484
64.5693
63.7422
62.783
61.9118
61.1968
60.43
59.7799
59.375
59.9423
89.4219
84.6075
79.3137
75.3695
72.6118
70.8827
69.7836
68.4859
67.3953
66.6036
65.5282
64.5197
63.7409
62.7971
61.9198
61.221
60.4872
59.8244
59.399
59.6915
90.6721
84.633
78.8336
74.9764
72.4421
70.7998
69.7523
68.4416
67.3118
66.5634
65.5125
64.4763
63.7329
62.8048
61.9279
61.2384
60.542
59.8686
59.4537
59.417
92.2101
84.572
78.2411
74.5585
72.2605
70.7012
69.6967
68.3983
67.2532
66.5229
65.4981
64.453
63.723
62.8102
61.9388
61.2495
60.5784
59.904
59.5098
59.2716
94.1787
84.4993
77.6326
74.1791
72.0991
70.6237
69.6434
68.3711
67.2332
66.4986
65.4915
64.4532
63.7175
62.8148
61.9498
61.2566
60.593
59.926
59.5095
59.1844
97.2963
84.8547
77.4653
74.0617
72.0388
70.6074
69.6274
68.3678
67.2479
66.4936
65.4902
64.4645
63.7159
62.8152
61.9575
61.2578
60.5939
59.934
59.5131
59.3061
58.4975
58.4769
58.4486
58.4437
58.4684
58.5014
58.5005
58.4781
58.4161
58.307
58.1797
58.0432
57.9331
57.8445
57.7887
57.7862
57.8311
57.9506
58.1463
58.4208
58.7686
59.1291
59.4659
59.6998
59.7722
59.6948
59.439
59.0571
58.6718
58.3184
57.9999
57.692
57.388
57.0827
56.79
56.5275
56.2801
56.068
55.9181
55.8067
55.7549
55.7928
55.8949
56.085
56.3753
56.7579
57.2332
57.7802
58.3791
58.9911
59.5368
59.943
60.1559
60.1055
59.7287
59.0509
58.101
56.9154
55.6201
54.2887
52.999
51.8283
50.7261
49.6274
48.4511
47.2179
46.0226
45.0373
44.4891
44.5903
45.4557
47.0328
49.4452
52.5845
56.1355
59.9341
63.7017
67.379
70.7274
73.2555
74.8383
75.311
74.4912
72.5215
69.9116
66.9868
64.0051
61.1661
58.425
55.759
53.1584
50.6718
48.3173
46.2587
44.6677
43.6995
43.1968
42.7138
41.8404
40.2832
37.9706
35.0321
31.5702
28.0911
24.9188
22.2933
20.7556
19.8991
20.3256
21.6776
23.9155
27.1493
31.2772
35.9782
41.2046
46.5178
51.4002
56.0772
60.0688
63.4689
66.107
68.336
70.1538
71.6956
72.7951
73.4223
73.7424
73.485
72.9321
71.7831
70.2866
68.3509
65.9033
63.1717
60.1468
57.0365
53.7006
50.4709
47.3296
44.0247
41.198
38.3034
35.9138
33.8024
32.477
31.2049
31.0519
31.0789
31.635
32.5153
33.4925
34.3443
35.2491
35.948
36.4353
36.7594
36.9691
36.9204
36.8488
36.6662
36.5606
36.1677
36.1384
36.0078
35.6803
35.8067
35.9743
35.8763
36.5658
37.3157
37.8956
39.1082
40.8258
42.2214
44.2094
46.5196
48.8042
50.9726
53.7786
56.1267
58.6041
60.8658
63.1658
65.0297
67.0412
68.7432
70.4745
71.9075
73.4253
74.5539
75.7596
76.6755
77.5453
77.9351
78.0578
77.0189
74.8683
70.2707
63.9309
34.2043
58.307
58.2666
58.3372
58.4139
58.4473
58.4651
58.4364
58.4243
58.3833
58.2913
58.1845
58.0408
57.9404
57.8582
57.8129
57.838
57.8921
58.0232
58.2102
58.4555
58.7673
59.0693
59.3594
59.5684
59.6488
59.5979
59.3809
59.0551
58.6833
58.3108
57.9844
57.6664
57.3679
57.0783
56.7827
56.5245
56.2778
56.0631
55.9202
55.819
55.7884
55.8355
55.9492
56.1616
56.4543
56.8414
57.3116
57.8324
58.4018
58.9704
59.4835
59.8643
60.0425
59.9996
59.6434
58.9888
58.1147
57.0022
55.7593
54.4885
53.1988
51.977
50.7924
49.6213
48.4205
47.2118
46.1195
45.2597
44.8672
45.1117
45.9972
47.6855
50.1197
53.1199
56.4414
60.0663
63.7945
67.2611
70.2615
72.5221
73.929
74.3966
73.7794
72.0505
69.6338
66.951
64.1483
61.429
58.7955
56.2714
53.7785
51.3543
49.1502
47.1897
45.7115
44.6265
43.8733
43.0925
41.9438
40.3586
37.9902
35.1091
31.7847
28.3816
25.4106
22.8435
21.4873
20.7435
21.0827
22.6362
24.7578
28.0176
32.055
36.6703
41.692
46.9674
51.6654
56.0235
59.616
62.8529
65.4277
67.607
69.2129
70.5922
71.6198
72.2608
72.7079
72.4401
71.7695
70.7297
69.3011
67.4779
65.3017
62.7794
60.0045
57.0727
53.8576
50.7487
47.687
44.2644
41.5296
38.7161
36.0986
34.0023
32.8562
31.3191
31.238
31.3461
31.879
32.7341
33.5708
34.555
35.3686
35.9896
36.4656
36.7091
36.9527
36.893
36.7886
36.6458
36.6094
36.2823
36.2751
36.3393
36.1145
36.2077
36.7069
36.5633
37.2273
38.221
38.8311
39.9462
41.6271
43.054
44.7335
46.8274
48.9582
50.9836
53.1864
55.3913
57.4788
59.4738
61.5454
63.2944
65.0716
66.6722
68.2959
69.7178
70.8338
71.8515
72.6677
73.3011
73.6942
73.7422
73.1606
71.3817
68.9339
60.3075
52.7196
24.7014
58.2561
58.2325
58.3806
58.4691
58.4494
58.4238
58.3423
58.3326
58.3223
58.2565
58.1915
58.0526
57.9685
57.8968
57.862
57.9204
57.9728
58.1065
58.2696
58.4667
58.7346
58.9708
59.2164
59.3965
59.4589
59.4364
59.2538
58.9903
58.6583
58.2893
57.9723
57.645
57.3524
57.0815
56.7917
56.5504
56.314
56.1026
55.9776
55.8873
55.8807
55.9411
56.0644
56.2881
56.5784
56.9539
57.4023
57.8819
58.4021
58.9026
59.347
59.6774
59.813
59.7517
59.4191
58.8017
57.9817
56.9523
55.7925
54.5825
53.3222
52.1017
50.8914
49.7029
48.5573
47.425
46.4454
45.7671
45.5171
45.8754
46.875
48.5754
50.8954
53.6836
56.8825
60.3029
63.5871
66.5683
69.1841
71.3993
72.8568
73.2241
72.5808
71.0463
68.9659
66.6556
64.1223
61.5222
59.0107
56.5772
54.2537
51.9522
49.8924
48.0396
46.5732
45.3957
44.3917
43.4751
42.1366
40.4796
38.2269
35.3836
32.2436
29.0623
26.2445
23.8684
22.606
22.1256
22.3399
23.9997
26.1223
29.2503
33.2943
37.6786
42.474
47.2469
51.7003
55.776
59.192
62.1192
64.3925
66.3557
67.9509
69.2903
70.104
70.8269
71.1854
71.0055
70.6309
69.6975
68.3259
66.6125
64.7714
62.3789
59.8254
57.2341
54.107
51.1359
48.2583
44.8426
42.1224
39.4758
36.7818
34.6492
33.5391
32.0683
31.8077
31.9
32.3078
33.0683
33.7724
34.6144
35.3756
35.7124
36.2488
36.495
36.5563
36.6395
36.5718
36.4992
36.5408
36.4078
36.4028
36.5844
36.6467
36.6954
37.3233
37.4959
38.0278
39.1281
39.8966
40.9148
42.5126
43.8803
45.301
47.11
48.8283
50.6116
52.4045
54.4033
56.102
58.027
59.7499
61.5007
63.0355
64.4815
66.1329
67.4492
68.4397
69.553
69.6918
70.1177
69.8553
69.2543
69.0815
64.8556
63.6008
52.066
42.2016
23.1854
58.3878
58.2879
58.3826
58.3074
58.1466
58.141
58.1039
58.1683
58.2102
58.195
58.1989
58.0835
58.0446
57.9848
57.9496
58.0134
58.0384
58.1696
58.2985
58.4462
58.6728
58.8456
59.0488
59.1859
59.2229
59.2245
59.0746
58.8803
58.6043
58.2586
57.9706
57.6459
57.3601
57.1018
56.8183
56.6026
56.3901
56.2126
56.0926
56.0059
56.0266
56.1
56.2208
56.4409
56.7094
57.0655
57.4718
57.8831
58.3362
58.7503
59.1112
59.3915
59.4698
59.3892
59.0748
58.5061
57.764
56.8086
55.7415
54.6181
53.418
52.2572
51.0875
49.9445
48.8921
47.8993
47.0717
46.5743
46.4875
46.9496
48.0432
49.6528
51.7824
54.3647
57.2485
60.1529
62.9941
65.7345
68.1118
69.9113
71.0712
71.39
71.0122
69.928
68.2055
66.0847
63.7577
61.3909
59.062
56.7492
54.6051
52.4478
50.5312
48.77
47.2809
46.0966
44.8941
43.868
42.4941
40.7004
38.5885
35.895
32.8847
30.037
27.4591
25.3497
24.1679
23.8651
24.1214
25.7105
27.9424
30.8785
34.7925
38.8725
43.3513
47.7311
51.7594
55.3021
58.4296
61.1505
63.3517
65.1117
66.5883
67.8029
68.5831
69.3559
69.8346
69.5132
69.1956
68.5403
67.381
65.822
64.2657
62.1508
59.6711
57.4031
54.4
51.7034
49.0648
45.6093
43.003
40.6639
37.8436
35.7443
34.5997
33.2978
32.7868
32.7128
33.0201
33.5608
34.0612
34.5259
35.3127
35.3693
35.8447
36.0658
36.0306
36.2463
36.2982
36.3254
36.3265
36.5177
36.5383
36.7752
37.1734
37.156
38.0126
38.2988
38.8965
39.9152
40.907
41.7549
43.2293
44.3611
45.6816
46.8784
48.4569
49.7542
51.3217
52.8385
54.5752
56.0333
57.6228
59.1432
60.7109
62.221
63.4538
64.3983
65.7332
66.5749
67.3937
66.7138
67.3132
64.7457
65.1782
59.1483
56.9472
46.3899
35.4178
23.3069
59.9016
59.4746
58.5888
57.917
57.5051
57.5273
57.6549
57.8842
58.0371
58.1309
58.2236
58.137
58.1172
58.0788
58.0514
58.0901
58.0981
58.2192
58.3259
58.4211
58.571
58.6913
58.8431
58.9423
58.9657
58.9697
58.873
58.7377
58.5176
58.2221
57.956
57.6698
57.4038
57.1468
56.8807
56.6702
56.4823
56.3261
56.2257
56.1612
56.1953
56.2829
56.3994
56.5884
56.8304
57.153
57.5069
57.8389
58.2017
58.5258
58.8088
59.0222
59.0379
58.9264
58.628
58.1116
57.4615
56.6139
55.6616
54.6682
53.6043
52.5297
51.4709
50.4372
49.486
48.6695
48.0177
47.6425
47.7314
48.2629
49.3253
50.8307
52.7347
54.9919
57.4058
59.9141
62.4213
64.719
66.5862
68.1038
69.2499
69.595
69.3572
68.4694
67.0162
65.2596
63.2765
61.2334
59.0735
56.9379
54.9355
52.9181
51.1335
49.4229
47.9382
46.7731
45.4458
44.2895
42.9369
41.0473
39.0363
36.5921
33.7611
31.2497
28.9588
27.0838
26.0482
25.851
26.2998
27.7287
29.9791
32.7917
36.3886
40.2
44.168
48.1044
51.7157
54.9333
57.6955
60.1093
62.172
63.8337
65.3043
66.4133
67.2539
67.8927
68.38
68.1638
68.0131
67.6042
66.4481
65.0636
63.7594
61.8937
59.565
57.6688
54.8259
52.2111
49.9408
46.692
43.9152
41.9584
39.2876
37.1773
35.8975
34.7432
34.1299
33.798
33.9246
34.1352
34.4243
34.46
35.2184
35.0272
35.3558
35.5925
35.5316
35.8174
35.9878
36.1304
36.17
36.6468
36.6462
37.0182
37.5413
37.7476
38.5785
39.0017
39.7158
40.6331
41.5178
42.4366
43.5646
44.532
45.6772
46.4972
47.8139
48.8131
49.954
51.0745
52.6836
53.6009
54.9997
55.9715
57.5355
58.3848
59.8872
60.5596
62.2651
62.5221
63.6955
62.6675
62.9896
60.5823
59.7848
55.1634
50.1727
43.2474
32.8345
24.8677
60.9485
60.3851
58.8848
57.7249
57.04
56.9665
57.2107
57.5556
57.8157
58.0491
58.2266
58.217
58.1978
58.2078
58.2068
58.1804
58.1635
58.2331
58.3145
58.3714
58.4382
58.5456
58.6588
58.7363
58.752
58.7209
58.6827
58.5877
58.4167
58.1793
57.9169
57.6865
57.4491
57.1915
56.9671
56.7481
56.598
56.4739
56.3679
56.3452
56.3593
56.4655
56.5702
56.6941
56.9297
57.1932
57.4941
57.764
57.9915
58.2845
58.5036
58.6368
58.6329
58.4443
58.192
57.752
57.1483
56.4459
55.6002
54.7339
53.863
52.905
52.0045
51.1436
50.2519
49.6522
49.1394
48.9015
49.0817
49.6041
50.5832
51.9284
53.5505
55.4456
57.5045
59.6134
61.6806
63.5521
65.1088
66.4507
67.3437
67.7259
67.5759
66.9016
65.8045
64.4221
62.741
61.0207
59.1149
57.1992
55.3812
53.4343
51.7711
50.1819
48.5887
47.4947
46.0652
44.743
43.4745
41.539
39.6082
37.4271
34.8468
32.6261
30.6866
29.0606
28.207
28.1212
28.7334
30.0725
32.1176
34.7508
37.947
41.3325
44.8331
48.201
51.4154
54.4057
56.9623
59.221
61.1787
62.7412
64.1582
65.1791
66.0288
66.6957
67.0757
67.0162
67.009
66.6139
65.5604
64.5987
63.4774
61.6425
59.6274
58.0244
55.3917
52.796
50.8647
48.0181
45.0292
43.2784
41.0118
38.8921
37.4594
36.3567
35.6052
35.0539
34.7333
34.7156
34.7639
34.4144
35.01
34.7164
34.8944
35.1032
35.2161
35.289
35.6728
35.9838
35.9485
36.7625
36.6903
37.3133
37.7716
38.1663
39.1335
39.4729
40.3106
41.2827
41.8566
42.9483
43.839
44.6533
45.6532
46.1286
47.1805
47.9818
48.6366
49.4471
50.6676
51.1906
52.2452
52.8189
53.915
54.2036
55.6326
56.1802
57.5725
57.6669
58.5848
58.2619
57.9897
56.4691
54.353
51.3503
45.8635
41.3654
32.8664
26.4931
61.5687
61.0968
59.2651
57.7454
56.8398
56.6183
56.8939
57.2617
57.617
57.9753
58.2106
58.3108
58.276
58.3289
58.3498
58.2444
58.2238
58.2263
58.2976
58.3337
58.3092
58.4226
58.482
58.5416
58.5626
58.4989
58.5268
58.439
58.3109
58.1303
57.8634
57.7145
57.4912
57.2485
57.0604
56.8169
56.7179
56.6046
56.4881
56.5099
56.4921
56.6201
56.7101
56.764
57.015
57.2074
57.4627
57.672
57.77
58.0633
58.2211
58.2689
58.2678
58.0097
57.8005
57.4544
56.876
56.3223
55.5922
54.8337
54.1721
53.3364
52.6009
51.8568
51.1074
50.6372
50.2665
50.1044
50.3315
50.7693
51.6386
52.7659
54.1157
55.7473
57.4397
59.215
60.9824
62.5676
63.8687
64.993
65.7162
66.0492
66.0386
65.5089
64.7374
63.6061
62.1563
60.7517
59.1249
57.4471
55.8656
54.058
52.5401
51.0691
49.4674
48.3116
46.9035
45.4477
44.182
42.3553
40.457
38.5306
36.2642
34.3541
32.7332
31.4087
30.7528
30.6935
31.3249
32.4861
34.2128
36.5475
39.148
42.0046
45.1364
48.1126
51.0627
53.7953
56.0657
58.2614
60.1409
61.6673
63.0709
64.1331
64.8889
65.6254
65.9441
65.9869
66.1108
65.7683
64.8995
64.221
63.2714
61.5756
59.8954
58.4852
56.1913
53.7719
51.9583
49.6967
46.9458
44.9058
42.8603
40.8883
39.211
38.0131
36.9219
36.1812
35.4206
35.0913
34.9862
34.3511
34.7224
34.4387
34.4817
34.6222
34.8888
34.8813
35.2898
35.853
35.7869
36.7492
36.8371
37.5616
38.0209
38.5128
39.4999
39.894
40.8556
41.4518
42.3766
43.3884
44.202
44.9178
45.7931
45.8193
46.5602
47.193
47.4118
48.061
48.7469
49.0386
49.6533
50.1804
50.6546
50.833
51.7881
52.1393
52.6242
52.9433
53.4511
53.6145
53.5264
52.7637
50.7602
48.7264
44.4661
40.9318
34.8375
29.0912
61.992
61.5948
59.5627
57.838
56.805
56.4571
56.6727
57.0192
57.4652
57.8992
58.1816
58.3589
58.3345
58.4109
58.4419
58.3016
58.2678
58.2119
58.2746
58.2837
58.2074
58.3157
58.3299
58.3898
58.4033
58.3291
58.4003
58.3051
58.2154
58.0707
57.8085
57.7235
57.5127
57.3026
57.1319
56.8804
56.8329
56.7192
56.617
56.6478
56.6109
56.747
56.8038
56.8183
57.0564
57.1997
57.4106
57.5725
57.6013
57.8671
57.9739
57.9642
57.9565
57.6829
57.5145
57.241
56.7204
56.2669
55.627
54.9852
54.4455
53.7432
53.0963
52.4686
51.8462
51.536
51.2384
51.1343
51.3163
51.6665
52.4258
53.3692
54.5043
55.8857
57.2852
58.7984
60.3052
61.6132
62.7809
63.7671
64.3757
64.6911
64.7591
64.3748
63.7289
62.8676
61.6649
60.4686
59.1849
57.6872
56.3245
54.7701
53.3355
52.033
50.5421
49.2791
48.0127
46.5113
45.2408
43.6144
41.8486
40.0497
38.2109
36.4934
35.1546
34.0511
33.4383
33.3124
33.7913
34.6668
35.917
37.8086
40.0418
42.5186
45.1896
47.7454
50.4198
52.9692
55.1014
57.2732
59.0876
60.5296
61.9431
63.0466
63.7622
64.6008
65.0163
65.1185
65.2917
65.1305
64.4337
63.8541
63.1414
61.7906
60.2275
59.0669
57.1431
55.0353
53.1543
51.2851
48.6944
46.7174
44.6594
42.7906
40.9041
39.3578
38.0073
37.0212
35.9326
35.3128
35.0009
34.2845
34.3111
34.2042
33.9926
34.1989
34.4923
34.5469
35.0647
35.5491
35.8729
36.6076
37.0826
37.8059
38.2433
39.0172
39.8
40.2951
41.6357
42.1509
43.0446
44.1587
44.5562
45.3415
45.9343
45.675
46.2169
46.421
46.2699
46.9161
46.982
46.8798
47.2383
47.5109
47.6374
48.2214
48.9073
49.0928
49.2207
49.6938
49.7651
50.2117
50.0521
50.0549
48.9485
47.4344
44.5968
41.7079
36.7588
31.7217
62.2586
61.9134
59.7568
57.9442
56.8527
56.4033
56.5252
56.848
57.3702
57.8405
58.1568
58.3846
58.3829
58.465
58.4938
58.3554
58.2955
58.1977
58.2296
58.2166
58.1354
58.2198
58.211
58.2658
58.2719
58.203
58.2768
58.1903
58.1276
58.0043
57.7662
57.7159
57.5374
57.3536
57.1883
56.9542
56.9193
56.8095
56.7202
56.7365
56.7126
56.8292
56.8531
56.8728
57.068
57.1903
57.3638
57.4656
57.4823
57.6904
57.766
57.7545
57.6991
57.4693
57.3202
57.0756
56.6527
56.2295
55.6826
55.1641
54.6719
54.0894
53.5291
52.9894
52.5429
52.2517
52.0098
51.9155
52.0308
52.3441
52.9993
53.7869
54.7581
55.9344
57.0791
58.3643
59.6575
60.7917
61.8593
62.6883
63.2165
63.5593
63.6332
63.3927
62.9243
62.2402
61.3204
60.2934
59.2321
58.0065
56.7579
55.51
54.1734
53.0041
51.6944
50.4249
49.2457
47.8807
46.579
45.2349
43.5882
42.0805
40.3284
38.77
37.65
36.566
35.881
35.6395
35.7342
36.3731
37.2936
38.7833
40.64
42.6071
44.9153
47.3044
49.67
52.057
54.0572
56.0582
57.9211
59.3199
60.7907
62.0037
62.7495
63.658
64.238
64.3696
64.5616
64.6535
64.0801
63.5789
63.085
62.0732
60.5843
59.637
57.9788
56.1644
54.2805
52.6182
50.3455
48.3405
46.2434
44.3393
42.3134
40.5444
38.8876
37.7374
36.3342
35.4811
34.8482
34.0953
33.7879
33.686
33.5164
33.5498
34.137
34.0433
34.8649
35.3178
35.848
36.6774
37.093
38.1402
38.478
39.4171
40.3613
40.784
42.3668
43.031
43.7542
45.1091
45.0904
45.8477
46.2718
45.7949
46.2024
46.0488
45.3815
45.916
45.4406
45.0186
45.2046
44.9142
44.891
45.6674
46.1513
46.6062
46.9946
47.5465
47.6243
48.425
48.6423
48.7195
48.0525
47.232
45.1582
42.6609
38.6951
34.2064
62.4198
62.0792
59.863
58.03
56.916
56.3989
56.4564
56.7579
57.3401
57.8177
58.1493
58.4013
58.4074
58.4959
58.5028
58.3878
58.3085
58.1757
58.1795
58.1539
58.0987
58.147
58.1191
58.1632
58.1616
58.1077
58.1585
58.0935
58.0509
57.9352
57.7257
57.6844
57.5522
57.3977
57.2306
57.0235
56.9855
56.8882
56.8074
56.7983
56.7964
56.8842
56.8895
56.9213
57.0684
57.1757
57.3157
57.3588
57.3879
57.5405
57.5978
57.5817
57.4911
57.3019
57.1869
56.9448
56.6165
56.2235
55.7606
55.3518
54.8815
54.4096
53.9472
53.4595
53.1179
52.8383
52.613
52.5564
52.6057
52.8927
53.4388
54.0696
54.9064
55.8521
56.8165
57.9378
59.0248
60.0087
60.961
61.6153
62.1815
62.5662
62.611
62.5791
62.277
61.7238
61.0464
60.184
59.2965
58.294
57.2129
56.146
54.9846
53.9293
52.7769
51.5638
50.4571
49.2494
47.9759
46.7101
45.2111
43.7886
42.3536
40.9574
39.8129
38.7104
37.8563
37.4356
37.3906
37.7611
38.3253
39.3586
40.9129
42.5403
44.4859
46.6118
48.6408
50.8904
52.8808
54.8078
56.7475
58.2178
59.6903
61.0338
61.8758
62.7837
63.5271
63.7715
63.9873
64.2232
63.8804
63.377
63.0596
62.2916
60.9483
60.0914
58.7009
57.1774
55.3638
53.7991
51.7036
49.7631
47.5566
45.7069
43.5251
41.6766
39.7271
38.2761
36.6411
35.4535
34.542
33.632
33.1828
32.8714
32.8785
32.7619
33.5147
33.6514
34.4053
35.1798
35.6678
36.7296
37.1517
38.3173
38.7854
39.7913
40.8618
41.6559
43.0357
43.8153
44.7459
45.8887
45.9098
46.7618
46.844
46.2771
46.5876
45.5913
44.9776
45.3462
44.2092
43.8333
43.6523
42.9095
42.8445
43.3894
43.7592
44.6033
45.2026
45.9743
46.6634
47.7195
48.0499
48.2412
47.9328
47.5912
45.8427
43.4812
40.1244
35.9238
62.4705
62.0914
59.8829
58.0724
56.9792
56.4509
56.4652
56.767
57.3609
57.8403
58.167
58.4074
58.4251
58.4983
58.4867
58.3898
58.3076
58.156
58.1264
58.1021
58.0622
58.0839
58.0334
58.0625
58.0736
58.0286
58.0545
58.0157
57.99
57.8811
57.6895
57.6454
57.5646
57.4263
57.2506
57.0822
57.0391
56.9729
56.8876
56.8558
56.8647
56.9206
56.918
56.946
57.056
57.15
57.2499
57.2725
57.3067
57.4296
57.4623
57.4432
57.3374
57.1959
57.0933
56.883
56.6008
56.2568
55.8509
55.5232
55.1051
54.7081
54.3214
53.8849
53.6005
53.3468
53.1365
53.079
53.0787
53.2949
53.7249
54.2287
54.9246
55.7184
56.5526
57.5146
58.3722
59.2225
60.0575
60.6692
61.2663
61.6753
61.744
61.87
61.6931
61.2515
60.802
60.0835
59.392
58.5484
57.6099
56.7241
55.6984
54.755
53.7623
52.6098
51.6312
50.5006
49.264
48.1235
46.82
45.5005
44.2085
42.8201
41.6377
40.5307
39.6029
39.0774
38.76
38.7559
39.0251
39.7143
40.874
42.1154
43.7079
45.5631
47.4885
49.61
51.6232
53.5251
55.5036
57.1421
58.6275
60.1208
61.1294
62.0314
62.9401
63.3234
63.566
63.875
63.7332
63.3226
63.0483
62.4887
61.387
60.5203
59.3744
58.0112
56.3638
54.8553
52.9187
51.0401
48.8368
46.8997
44.612
42.6028
40.4008
38.6544
36.7797
35.3396
34.0523
33.0971
32.3722
32.0625
32.0057
32.0461
32.7135
33.1264
33.9472
34.7014
35.5699
36.447
37.1977
38.3899
39.0146
40.1916
41.2749
42.4303
43.6668
44.4395
45.6839
46.7732
46.8766
48.0772
47.6318
46.9167
46.9149
45.3796
44.8541
44.6924
43.501
43.1512
42.2342
41.1478
41.574
41.9281
42.0318
43.3122
43.757
44.334
45.6603
47.1683
47.482
47.905
48.2535
47.8576
46.2042
44.1458
41.0802
37.4014
62.4563
62.0141
59.8474
58.0883
57.039
56.5442
56.5265
56.8523
57.4196
57.8942
58.2005
58.403
58.4424
58.4679
58.4585
58.3678
58.2845
58.1362
58.062
58.0645
58.0311
58.0359
57.9792
57.9807
58.0083
57.9598
57.9589
57.9424
57.9264
57.8252
57.6533
57.5959
57.575
57.451
57.2702
57.137
57.0778
57.0457
56.9483
56.8908
56.9214
56.9375
56.94
56.964
57.036
57.1357
57.1829
57.1971
57.2465
57.3157
57.3602
57.3207
57.2231
57.1309
57.0338
56.8544
56.6144
56.2951
55.9795
55.6918
55.3381
54.9966
54.6448
54.2684
54.0065
53.767
53.5678
53.4838
53.4489
53.5935
53.9091
54.3097
54.8844
55.5251
56.2294
56.987
57.7194
58.474
59.2217
59.8532
60.4357
60.8464
61.0554
61.224
61.1505
60.9244
60.5625
60.0575
59.4951
58.7754
58.0257
57.2364
56.3478
55.5208
54.6341
53.6492
52.6842
51.7012
50.6088
49.5411
48.3877
47.0824
45.8237
44.5257
43.3394
42.2689
41.2041
40.4034
39.838
39.518
39.484
39.7457
40.4276
41.3927
42.6848
44.3457
46.138
48.1048
50.1766
52.1169
54.2227
56.0485
57.6496
59.266
60.4606
61.4613
62.4267
63.0056
63.3149
63.6321
63.6998
63.4183
63.1248
62.7442
61.836
61.016
60.0396
58.8431
57.3321
55.8444
54.0826
52.179
50.0594
47.9694
45.5941
43.4193
40.9704
38.9897
36.8456
35.2341
33.5893
32.6166
31.575
31.3124
31.1173
31.306
31.8846
32.4715
33.3853
34.1947
35.3242
36.1868
37.2206
38.353
39.225
40.3233
41.536
42.9799
44.1558
45.0932
46.3888
47.8273
47.8823
48.379
48.1093
47.3843
46.8563
45.5233
45.038
43.9257
42.8309
42.4416
41.2688
40.2497
40.4912
40.6196
41.0137
42.2157
42.5493
43.355
44.7691
46.3842
46.6176
47.1348
48.3711
47.9653
46.5861
45.127
42.1277
39.0258
62.3426
61.836
59.7373
58.0609
57.0888
56.6904
56.6833
57.0371
57.5509
57.9898
58.2604
58.3993
58.4438
58.4134
58.405
58.3309
58.2404
58.1157
58.008
58.0224
57.9963
57.9867
57.9493
57.9235
57.9531
57.9091
57.8797
57.8773
57.8569
57.7714
57.6259
57.5525
57.5616
57.4598
57.2826
57.1804
57.1159
57.1018
57.0128
56.9275
56.9678
56.9513
56.9498
56.9718
57.0037
57.1014
57.1179
57.1299
57.1918
57.2228
57.2798
57.2349
57.138
57.0947
56.9906
56.8514
56.648
56.3698
56.1302
55.8736
55.5617
55.2687
54.9371
54.6257
54.3717
54.1332
53.9461
53.8105
53.751
53.8021
53.9963
54.312
54.7261
55.2101
55.7832
56.4212
57.089
57.7571
58.4164
59.0876
59.6558
60.0831
60.4448
60.6344
60.7039
60.6615
60.4036
60.0673
59.648
59.0541
58.436
57.7527
57.0216
56.2644
55.4627
54.6322
53.7273
52.8981
51.9209
50.8568
49.7883
48.5734
47.3705
46.2119
44.9628
43.762
42.5737
41.5372
40.7663
40.0935
39.6855
39.5801
39.8576
40.4997
41.4605
42.8431
44.507
46.4203
48.5102
50.7398
52.948
54.9834
56.7856
58.4936
59.9252
61.0266
62.0689
62.8055
63.2112
63.5507
63.7404
63.5727
63.3095
63.0543
62.4312
61.6064
60.7136
59.6102
58.2359
56.8291
55.1307
53.2888
51.1997
49.0043
46.5592
44.1767
41.6036
39.2831
37.0639
35.1636
33.4251
32.2766
31.1407
30.7968
30.4839
30.7706
31.1428
32.0063
32.745
33.8723
34.9602
36.015
37.1581
38.2888
39.2718
40.3051
41.806
42.9323
44.4221
45.6904
46.8879
48.5221
48.5069
49.2147
48.766
47.4614
46.7904
45.442
44.778
43.898
42.7478
41.484
40.6163
39.8463
39.5621
39.4994
39.6596
41.0039
41.5402
42.1925
44.1566
45.9799
45.6926
46.734
48.6125
48.2168
47.4762
46.283
43.4228
41.0612
62.0593
61.558
59.5845
58.0486
57.1867
56.8936
56.957
57.2997
57.7349
58.0917
58.3099
58.3961
58.4092
58.3554
58.3286
58.2734
58.186
58.0838
57.9864
57.9833
57.9661
57.941
57.9114
57.8775
57.8928
57.8647
57.828
57.8239
57.7967
57.7174
57.5968
57.5227
57.5278
57.4537
57.3013
57.2105
57.1533
57.1339
57.0548
56.9713
56.9902
56.9679
56.9568
56.9677
56.9847
57.0551
57.0594
57.0755
57.1274
57.1536
57.1974
57.1604
57.0903
57.065
56.9763
56.87
56.7034
56.4745
56.2922
56.0549
55.8008
55.5346
55.2392
54.9736
54.7058
54.4771
54.2662
54.0815
53.9722
53.9357
54.0375
54.2186
54.4769
54.8552
55.3113
55.8249
56.3919
57.0139
57.6368
58.3178
58.8871
59.3772
59.8599
60.1193
60.3304
60.4485
60.3107
60.1479
59.829
59.3936
58.9202
58.3107
57.7386
57.0177
56.3027
55.6106
54.7111
53.9965
53.1118
52.0912
51.1604
50.0415
48.9212
47.7447
46.4282
45.1801
43.8785
42.6348
41.5446
40.5409
39.8066
39.3233
39.1691
39.476
40.1832
41.3674
42.9605
44.8988
47.122
49.4688
51.7857
54.0187
56.042
57.8948
59.4927
60.7608
61.8653
62.7018
63.2169
63.5958
63.8498
63.8183
63.5668
63.3799
62.8821
62.1786
61.3427
60.3545
59.0889
57.7072
56.1232
54.2673
52.1968
49.9081
47.4071
44.8454
42.2535
39.7576
37.4323
35.4071
33.5971
32.2688
31.1299
30.6282
30.2367
30.5076
30.7718
31.69
32.3659
33.6443
34.6157
35.9123
36.9663
38.147
39.0262
40.1824
41.8366
42.9212
44.2311
45.6979
47.4183
48.8012
48.9111
49.7511
48.9709
47.8125
47.1118
45.4685
44.5479
43.8861
42.483
40.9198
40.329
39.032
38.8552
38.723
38.3664
40.1979
40.5177
41.5313
44.6954
45.4712
44.813
47.3182
49.4682
49.3236
49.0885
47.7592
45.3597
43.4061
61.4746
61.0067
59.3611
58.092
57.4158
57.2332
57.3526
57.6405
57.9608
58.2081
58.3512
58.3868
58.3568
58.2971
58.2423
58.1952
58.1186
58.0345
57.9791
57.9574
57.9492
57.9162
57.8773
57.8471
57.8289
57.8134
57.7786
57.764
57.734
57.6606
57.5737
57.5105
57.4965
57.4361
57.3247
57.2417
57.1942
57.1605
57.0865
57.0193
56.9982
56.973
56.9548
56.9464
56.9673
56.998
57.0068
57.0255
57.0674
57.1007
57.1303
57.1088
57.0723
57.0515
56.9826
56.9069
56.7596
56.5999
56.4445
56.2328
56.0295
55.7905
55.5184
55.2847
55.0096
54.773
54.5369
54.3018
54.1579
54.0352
54.0259
54.0682
54.2151
54.4842
54.7884
55.2444
55.7336
56.3021
56.9385
57.5702
58.2035
58.7726
59.3106
59.7204
60.0376
60.2773
60.3025
60.2619
60.0912
59.7853
59.4078
58.9144
58.413
57.8071
57.1705
56.5593
55.8281
55.0414
54.2455
53.3705
52.4631
51.468
50.3559
49.1473
47.8621
46.4766
45.051
43.5851
42.2005
40.9335
39.8598
39.0845
38.6687
38.7345
39.2688
40.3268
41.8785
43.8199
46.0544
48.4771
50.9191
53.2981
55.5019
57.4726
59.184
60.5979
61.7727
62.687
63.3126
63.7276
64.0042
64.0893
63.9569
63.6822
63.2711
62.661
61.8941
60.9618
59.7974
58.4177
56.8251
54.9976
52.9272
50.6218
48.1045
45.4884
42.8578
40.3274
37.9679
35.8697
34.0392
32.5884
31.4371
30.7711
30.3534
30.4701
30.7201
31.4728
32.2113
33.437
34.4126
35.7536
36.7931
37.9248
38.6043
40.0436
41.5018
42.9934
44.1726
45.5127
47.307
48.8461
49.3114
50.2878
48.8987
48.083
47.1667
45.0627
44.4489
43.8156
42.0575
40.91
40.1827
38.1621
38.4514
37.3546
37.3719
39.6124
38.8807
41.2763
45.5075
45.0162
45.0451
48.5475
50.6046
50.9275
50.6728
49.2561
47.2983
45.3176
60.6492
60.2813
59.1522
58.2708
57.7962
57.6894
57.7975
57.9864
58.1775
58.3005
58.3656
58.3545
58.2933
58.2473
58.1775
58.1347
58.0696
57.9964
57.9699
57.9209
57.915
57.8825
57.8439
57.8335
57.7928
57.7843
57.747
57.7117
57.6815
57.6108
57.5587
57.5062
57.4687
57.4175
57.3349
57.267
57.2188
57.1669
57.1084
57.0549
57.0109
56.9843
56.95
56.9366
56.9419
56.9478
56.9695
56.9868
57.0216
57.0601
57.0755
57.0791
57.0652
57.0459
57.0083
56.9421
56.8465
56.713
56.5746
56.4028
56.2238
56.0027
55.7671
55.5376
55.2619
55.0105
54.7361
54.4742
54.2606
54.0638
53.9709
53.9198
53.9869
54.142
54.3697
54.7828
55.1964
55.743
56.3702
56.9657
57.6686
58.2949
58.8883
59.4418
59.8406
60.1933
60.3721
60.4222
60.3859
60.1779
59.9095
59.5176
59.0713
58.5793
58.0088
57.4235
56.749
56.0277
55.3194
54.5117
53.6394
52.6743
51.5972
50.391
49.0305
47.5266
45.924
44.293
42.722
41.2848
40.0555
39.1139
38.5449
38.46
38.8884
39.8611
41.3404
43.2299
45.4632
47.9192
50.4189
52.876
55.1705
57.2113
58.9953
60.4954
61.7184
62.6724
63.3678
63.8139
64.0811
64.2442
64.1215
63.9218
63.5707
62.9762
62.2053
61.2762
60.1543
58.8497
57.3004
55.4807
53.4052
51.0887
48.5895
45.9977
43.4055
40.9007
38.5619
36.4489
34.6052
33.0923
31.9121
31.1226
30.6715
30.6328
30.8473
31.4744
32.2193
33.3343
34.3974
35.6877
36.6915
37.7215
38.3947
39.7956
41.2151
42.6461
44.0223
45.6721
47.2284
48.5943
49.018
49.8725
48.4804
48.0479
47.0164
44.8502
44.18
43.0817
41.5353
41.216
39.8241
38.6014
38.7721
36.6003
37.6571
39.2704
37.8999
42.0652
46.6446
45.1856
46.432
50.3315
52.1516
52.4756
52.0949
50.8127
48.9216
46.9807
59.776
59.5804
59.0381
58.5732
58.2979
58.2078
58.2327
58.286
58.3439
58.3677
58.3597
58.3144
58.2375
58.1913
58.1228
58.0797
58.0407
57.9909
57.9756
57.92
57.8913
57.852
57.8052
57.7951
57.7566
57.7485
57.7239
57.6839
57.6519
57.5927
57.5476
57.5012
57.4469
57.3999
57.344
57.2842
57.2338
57.1723
57.1197
57.0732
57.0184
56.9865
56.9527
56.9329
56.9342
56.929
56.9482
56.9677
56.9923
57.027
57.0399
57.0556
57.0594
57.0464
57.0206
56.9697
56.8925
56.7927
56.6705
56.5207
56.3561
56.1553
55.937
55.7025
55.4287
55.1595
54.8654
54.5774
54.3243
54.0903
53.9352
53.8213
53.8239
53.9266
54.1113
54.4669
54.8462
55.3773
55.9968
56.607
57.3441
58.0153
58.667
59.2979
59.7682
60.206
60.4772
60.6136
60.6703
60.5383
60.3389
60.0326
59.6353
59.1976
58.6487
58.0778
57.475