/*--------------------------------*- C++ -*----------------------------------*\
| =========                 |                                                 |
| \\      /  F ield         | OpenFOAM: The Open Source CFD Toolbox           |
|  \\    /   O peration     | Version:  2.4.0                                 |
|   \\  /    A nd           | Web:      www.OpenFOAM.org                      |
|    \\/     M anipulation  |                                                 |
\*---------------------------------------------------------------------------*/
FoamFile
{
    version     2.0;
    format      ascii;
    class       volVectorField;
    location    "0.99";
    object      U;
}
// * * * * * * * * * * * * * * * * * * * * * * * * * * * * * * * * * * * * * //

dimensions      [0 1 -1 0 0 0 0];

internalField   nonuniform List<vector> 
8800
(
(8.09378 0.387627 0)
(5.44476 0.243244 0)
(3.91886 0.041827 0)
(3.15226 -0.0151234 0)
(2.80049 -0.0166263 0)
(2.6004 -0.0147406 0)
(2.48207 -0.00197112 0)
(2.37249 -0.00213648 0)
(2.3296 -0.00576357 0)
(2.24623 0.00366733 0)
(2.22056 -0.000591107 0)
(2.16125 -0.00313049 0)
(2.16402 0.00212033 0)
(2.08572 0.00171872 0)
(2.09374 -0.00248661 0)
(2.03095 0.00198012 0)
(2.02113 0.00229872 0)
(1.94494 -0.00193067 0)
(1.97923 0.00894676 0)
(1.68976 -0.070215 0)
(10.0943 0.838456 0)
(9.6358 0.869476 0)
(8.90506 0.502966 0)
(8.05265 0.264272 0)
(7.50655 0.140565 0)
(7.01332 0.072817 0)
(6.67676 0.065175 0)
(6.4002 0.0391469 0)
(6.25015 0.0182386 0)
(5.98783 0.0365276 0)
(5.96647 0.0178623 0)
(5.7526 0.00772918 0)
(5.75782 0.0221021 0)
(5.56463 0.020093 0)
(5.6014 0.00598101 0)
(5.4011 0.020224 0)
(5.43995 0.025134 0)
(5.23069 0.00491774 0)
(5.30893 0.0346195 0)
(4.98877 -0.0574523 0)
(10.0885 0.632774 0)
(10.6055 0.865057 0)
(10.9382 0.594326 0)
(10.6383 0.381636 0)
(10.4779 0.255551 0)
(10.1016 0.184253 0)
(9.80207 0.173315 0)
(9.49759 0.113476 0)
(9.35709 0.0805909 0)
(8.96332 0.0955016 0)
(8.99939 0.0540047 0)
(8.65695 0.038776 0)
(8.68654 0.054619 0)
(8.40012 0.0463079 0)
(8.48842 0.025548 0)
(8.16012 0.0447543 0)
(8.27567 0.0531085 0)
(7.96479 0.0244535 0)
(8.06158 0.0571756 0)
(7.73711 -0.0625997 0)
(10.0723 0.46352 0)
(10.45 0.701862 0)
(11.2798 0.530632 0)
(11.323 0.373442 0)
(11.5668 0.253681 0)
(11.4754 0.213158 0)
(11.4662 0.234368 0)
(11.2761 0.154315 0)
(11.3576 0.135797 0)
(10.9886 0.152867 0)
(11.1637 0.0912728 0)
(10.8124 0.079194 0)
(10.9254 0.0976115 0)
(10.5998 0.0786446 0)
(10.7786 0.0532031 0)
(10.3749 0.0815029 0)
(10.5653 0.0733245 0)
(10.2216 0.0685832 0)
(10.3312 0.0633842 0)
(9.97972 0.0599049 0)
(10.2104 0.358814 0)
(10.2018 0.565863 0)
(11.1335 0.42626 0)
(11.3275 0.336631 0)
(11.677 0.194073 0)
(11.6416 0.170322 0)
(11.8907 0.229525 0)
(11.7731 0.132867 0)
(11.9991 0.131356 0)
(11.8367 0.174258 0)
(12.1031 0.0880595 0)
(11.8739 0.0917715 0)
(12.1142 0.11291 0)
(11.8616 0.0959042 0)
(12.1101 0.0573271 0)
(11.8077 0.119369 0)
(11.9943 0.0738191 0)
(11.7863 0.0994602 0)
(11.8876 0.0694309 0)
(11.6253 0.118563 0)
(10.2284 0.267359 0)
(10.2401 0.471455 0)
(10.7831 0.299425 0)
(11.2984 0.29383 0)
(11.577 0.17097 0)
(11.5745 0.12431 0)
(11.7686 0.201133 0)
(11.8979 0.110941 0)
(11.8853 0.0974214 0)
(11.9871 0.145394 0)
(12.1486 0.0697951 0)
(12.0894 0.0708136 0)
(12.339 0.110528 0)
(12.2828 0.0836884 0)
(12.453 0.0500077 0)
(12.3714 0.115218 0)
(12.4553 0.0795961 0)
(12.4173 0.0680391 0)
(12.5035 0.0834747 0)
(12.4008 0.0328047 0)
(10.0327 0.161188 0)
(10.4571 0.426555 0)
(10.4304 0.196995 0)
(11.144 0.212328 0)
(11.4566 0.145237 0)
(11.6543 0.1051 0)
(11.5464 0.137576 0)
(11.9169 0.0902534 0)
(11.7721 0.093268 0)
(11.9922 0.120515 0)
(12.0519 0.0485856 0)
(12.041 0.0375357 0)
(12.1752 0.0716154 0)
(12.2856 0.0648894 0)
(12.4284 0.0315661 0)
(12.4563 0.11468 0)
(12.5223 0.0663326 0)
(12.4871 0.0413335 0)
(12.5489 0.0423626 0)
(12.4912 -0.0212276 0)
(9.94609 0.084811 0)
(10.2756 0.355929 0)
(10.6843 0.152214 0)
(10.9374 0.111815 0)
(11.3883 0.0817418 0)
(11.5531 0.0893751 0)
(11.5719 0.133063 0)
(11.7767 0.0445081 0)
(11.7611 0.0483928 0)
(11.9398 0.0877221 0)
(12.0891 0.0507126 0)
(12.0681 0.0361397 0)
(12.0474 0.0575937 0)
(12.2161 0.0199724 0)
(12.3529 -0.00524062 0)
(12.3777 0.0876138 0)
(12.455 0.0639408 0)
(12.4892 0.027416 0)
(12.4617 0.0202281 0)
(12.3841 -0.017755 0)
(10.0414 0.0606851 0)
(9.98645 0.2187 0)
(10.9031 0.0514627 0)
(10.9858 0.0901289 0)
(11.2295 0.0387802 0)
(11.4919 0.0551951 0)
(11.5504 0.0823988 0)
(11.6956 0.0239146 0)
(11.6988 0.0352649 0)
(11.7568 0.0445351 0)
(12.0804 0.0151401 0)
(12.0473 0.0380396 0)
(12.0018 0.0464767 0)
(12.2334 -0.0129177 0)
(12.2565 -0.011112 0)
(12.1691 0.0780137 0)
(12.376 0.0313586 0)
(12.4654 -0.00314441 0)
(12.3755 0.00890986 0)
(12.3794 -0.0259093 0)
(9.94911 0.0431274 0)
(10.1386 0.0925316 0)
(10.7204 -0.0769188 0)
(11.0334 0.0678733 0)
(11.201 0.0110393 0)
(11.4278 0.00935838 0)
(11.5184 0.0832403 0)
(11.6407 -0.0156271 0)
(11.682 0.0101992 0)
(11.8095 -0.0062625 0)
(11.947 -0.0237593 0)
(12.0027 0.0467096 0)
(12.0586 0.0271675 0)
(12.189 -0.0476947 0)
(12.1758 0.0026498 0)
(12.2091 0.0483424 0)
(12.392 -0.0166831 0)
(12.366 -0.0138336 0)
(12.3674 -0.00715654 0)
(12.4049 -0.0671974 0)
(9.80844 0.00995834 0)
(10.3128 -0.0226253 0)
(10.6714 -0.159511 0)
(10.9221 0.00584386 0)
(11.3271 0.00476365 0)
(11.3699 -0.0197548 0)
(11.5768 0.0282149 0)
(11.702 -0.0366137 0)
(11.7373 -0.0254868 0)
(11.7921 -0.0251161 0)
(11.8682 -0.0306745 0)
(11.9911 0.00404323 0)
(12.1131 0.00965009 0)
(12.1584 -0.0429444 0)
(12.1701 -0.0202787 0)
(12.2585 0.00964757 0)
(12.3418 -0.0166451 0)
(12.3706 -0.032691 0)
(12.4359 -0.0518074 0)
(12.3777 -0.055667 0)
(9.82847 -0.0175156 0)
(10.3823 -0.166659 0)
(10.7446 -0.213318 0)
(10.8555 -0.0579508 0)
(11.2898 -0.0388275 0)
(11.4918 -0.0463148 0)
(11.5228 -0.00275616 0)
(11.6878 -0.0725401 0)
(11.8214 -0.0387938 0)
(11.7573 -0.0366732 0)
(11.9652 -0.0748257 0)
(12.0413 -0.0213966 0)
(12.0622 -0.00380556 0)
(12.1582 -0.064066 0)
(12.2354 -0.0312459 0)
(12.2283 -0.00426972 0)
(12.3582 -0.0565351 0)
(12.4478 -0.0754335 0)
(12.4503 -0.0626244 0)
(12.3978 -0.0597767 0)
(9.89753 -0.0781093 0)
(10.4395 -0.293798 0)
(10.7078 -0.255652 0)
(10.9186 -0.0962313 0)
(11.2839 -0.0929846 0)
(11.5516 -0.0758834 0)
(11.4895 -0.0259855 0)
(11.7663 -0.12712 0)
(11.8489 -0.0645903 0)
(11.8586 -0.0637172 0)
(12.0009 -0.100035 0)
(12.0279 -0.0264463 0)
(12.1211 -0.0139777 0)
(12.2325 -0.0844278 0)
(12.2385 -0.0409694 0)
(12.2854 -0.0342753 0)
(12.4475 -0.0826013 0)
(12.4702 -0.0898729 0)
(12.4793 -0.0927108 0)
(12.45 -0.0955382 0)
(9.96762 -0.147389 0)
(10.4238 -0.403969 0)
(10.7467 -0.306842 0)
(10.9729 -0.156963 0)
(11.441 -0.141359 0)
(11.5698 -0.102038 0)
(11.5987 -0.0639903 0)
(11.8382 -0.169724 0)
(11.8919 -0.0855042 0)
(11.9382 -0.0792409 0)
(12.0445 -0.111205 0)
(12.0716 -0.0587811 0)
(12.197 -0.0415384 0)
(12.2697 -0.0960331 0)
(12.2985 -0.0471759 0)
(12.4037 -0.0667943 0)
(12.5203 -0.10817 0)
(12.5331 -0.119789 0)
(12.5522 -0.110485 0)
(12.4912 -0.113996 0)
(10.0665 -0.237138 0)
(10.3811 -0.503594 0)
(10.8526 -0.364026 0)
(11.0858 -0.21275 0)
(11.5717 -0.193595 0)
(11.5995 -0.125286 0)
(11.7751 -0.110215 0)
(11.9084 -0.205377 0)
(12.008 -0.10682 0)
(11.9696 -0.104673 0)
(12.1341 -0.128932 0)
(12.107 -0.0780614 0)
(12.2605 -0.0576245 0)
(12.2701 -0.113591 0)
(12.3688 -0.0704351 0)
(12.404 -0.10415 0)
(12.4891 -0.116457 0)
(12.4297 -0.137421 0)
(12.4616 -0.12265 0)
(12.351 -0.159967 0)
(10.0983 -0.340202 0)
(10.398 -0.600933 0)
(10.9856 -0.439874 0)
(11.261 -0.271689 0)
(11.6944 -0.243647 0)
(11.6629 -0.16586 0)
(11.9121 -0.162066 0)
(11.8466 -0.224223 0)
(11.9941 -0.127863 0)
(11.8645 -0.113538 0)
(12.014 -0.140926 0)
(11.8907 -0.0981988 0)
(12.0473 -0.0799124 0)
(11.8988 -0.120737 0)
(12.0219 -0.0842 0)
(11.8813 -0.108352 0)
(11.9304 -0.109622 0)
(11.7469 -0.144003 0)
(11.7852 -0.128781 0)
(11.5272 -0.168327 0)
(10.0548 -0.455167 0)
(10.5274 -0.723131 0)
(11.1376 -0.528285 0)
(11.3808 -0.34291 0)
(11.5645 -0.290546 0)
(11.4482 -0.208222 0)
(11.5376 -0.185966 0)
(11.2658 -0.213721 0)
(11.3133 -0.133579 0)
(11.0568 -0.110656 0)
(11.0728 -0.127635 0)
(10.8364 -0.0906955 0)
(10.8991 -0.0699461 0)
(10.6146 -0.0980043 0)
(10.6978 -0.070865 0)
(10.4166 -0.0873136 0)
(10.4572 -0.0831876 0)
(10.1659 -0.12448 0)
(10.1802 -0.0953332 0)
(9.79951 -0.150505 0)
(10.0913 -0.629862 0)
(10.6299 -0.871754 0)
(10.8636 -0.59468 0)
(10.7092 -0.367059 0)
(10.441 -0.272307 0)
(10.083 -0.185665 0)
(9.87204 -0.143536 0)
(9.45014 -0.146786 0)
(9.33471 -0.0872947 0)
(9.01699 -0.0624511 0)
(8.93083 -0.0746927 0)
(8.67334 -0.0518862 0)
(8.66898 -0.0361463 0)
(8.39137 -0.0558548 0)
(8.43249 -0.0421022 0)
(8.15346 -0.048748 0)
(8.18304 -0.0542816 0)
(7.88107 -0.0759312 0)
(7.87929 -0.0672752 0)
(7.52211 -0.0847524 0)
(10.098 -0.837592 0)
(9.6442 -0.87141 0)
(8.87055 -0.504454 0)
(8.09632 -0.25691 0)
(7.47829 -0.147209 0)
(7.00508 -0.0785424 0)
(6.71825 -0.0458935 0)
(6.36968 -0.0535269 0)
(6.23526 -0.0281505 0)
(6.01251 -0.015016 0)
(5.9358 -0.0274865 0)
(5.75443 -0.0190631 0)
(5.73921 -0.00982559 0)
(5.5537 -0.0238426 0)
(5.56226 -0.0173259 0)
(5.36757 -0.0212144 0)
(5.37158 -0.0252266 0)
(5.14164 -0.0361606 0)
(5.12678 -0.0355479 0)
(4.83716 -0.016403 0)
(8.09416 -0.387521 0)
(5.44766 -0.242885 0)
(3.90815 -0.0429899 0)
(3.16424 0.0171265 0)
(2.79707 0.0156839 0)
(2.59139 0.0116394 0)
(2.494 0.00876727 0)
(2.37477 -0.00165756 0)
(2.31371 0.00143051 0)
(2.2469 0.00371558 0)
(2.22341 -0.00181122 0)
(2.15258 -0.000499495 0)
(2.14742 0.00197569 0)
(2.08353 -0.00258065 0)
(2.07237 -0.000466188 0)
(1.99871 -0.001405 0)
(1.98622 -0.00183258 0)
(1.88747 -0.00456908 0)
(1.84848 -0.00314503 0)
(1.70711 0.0117435 0)
(2.25886 -0.136878 0)
(2.29925 -0.064235 0)
(2.47521 -0.0510997 0)
(2.50709 -0.0618031 0)
(2.72049 -0.073966 0)
(2.75096 -0.0627767 0)
(2.94772 -0.0425672 0)
(2.93529 -0.0176566 0)
(3.10252 0.00300226 0)
(3.059 0.0158328 0)
(3.21439 0.017307 0)
(3.15532 0.0150975 0)
(3.3156 0.00378581 0)
(3.25136 -0.00407394 0)
(3.42088 -0.0232459 0)
(3.34998 -0.0403011 0)
(3.52306 -0.0632282 0)
(3.43863 -0.0828191 0)
(3.6038 -0.103396 0)
(3.4876 -0.117245 0)
(3.63575 -0.127411 0)
(3.48768 -0.114575 0)
(3.63259 -0.0929749 0)
(3.47145 -0.0388898 0)
(3.63238 0.014442 0)
(3.47641 0.0694727 0)
(3.66684 0.106746 0)
(3.54577 0.119274 0)
(3.78746 0.111553 0)
(3.66776 0.119347 0)
(3.90729 0.116928 0)
(3.77428 0.129918 0)
(4.01403 0.126349 0)
(3.88379 0.127446 0)
(4.13925 0.115301 0)
(3.99067 0.109741 0)
(4.25623 0.0925862 0)
(4.09544 0.0748958 0)
(4.36318 0.0491707 0)
(4.17525 0.0240026 0)
(4.45721 -0.0147718 0)
(4.24243 -0.0438231 0)
(4.51973 -0.0936788 0)
(4.28457 -0.13138 0)
(4.55226 -0.179056 0)
(4.26931 -0.216747 0)
(4.54412 -0.258167 0)
(4.20243 -0.27921 0)
(4.49105 -0.296812 0)
(4.09979 -0.272079 0)
(4.3991 -0.247721 0)
(3.99872 -0.175109 0)
(4.35297 -0.0946151 0)
(3.96659 0.029437 0)
(4.42346 0.151324 0)
(4.11466 0.296883 0)
(4.60495 0.411492 0)
(4.36169 0.50628 0)
(4.85489 0.575669 0)
(4.61444 0.626455 0)
(5.06675 0.62647 0)
(4.81661 0.643044 0)
(5.18741 0.619716 0)
(4.96707 0.628767 0)
(5.33622 0.568786 0)
(5.26321 0.522001 0)
(5.63497 0.367004 0)
(5.63555 0.166773 0)
(6.01451 -0.0963513 0)
(5.96303 -0.446906 0)
(6.25106 -0.754092 0)
(6.13518 -1.05236 0)
(6.37526 -1.32538 0)
(6.0819 -1.5649 0)
(6.23157 -1.7408 0)
(5.97545 -1.75915 0)
(6.17708 -1.6893 0)
(5.88434 -1.48337 0)
(5.89197 -1.2204 0)
(5.52629 -0.897836 0)
(5.46347 -0.635357 0)
(4.97355 -0.293473 0)
(4.93163 0.0561789 0)
(4.9024 0.545023 0)
(5.29529 0.95639 0)
(5.5519 1.26679 0)
(6.07178 1.47975 0)
(6.28655 1.64231 0)
(6.67645 1.747 0)
(6.77144 1.79829 0)
(7.01539 1.75875 0)
(7.10971 1.69954 0)
(7.21129 1.52695 0)
(7.43349 1.28845 0)
(7.40446 0.921961 0)
(7.5466 0.60699 0)
(7.20053 0.43763 0)
(7.06751 0.477666 0)
(6.64898 0.82201 0)
(6.54771 1.17662 0)
(6.31239 1.59544 0)
(6.48568 1.85275 0)
(6.28729 1.7975 0)
(6.84884 1.6796 0)
(6.61785 1.20703 0)
(7.3112 0.707501 0)
(7.16581 0.159728 0)
(7.72691 -0.451284 0)
(7.73996 -0.988712 0)
(8.12362 -1.56057 0)
(8.19558 -2.05737 0)
(8.60406 -2.59348 0)
(8.54083 -2.99317 0)
(9.03869 -3.38362 0)
(8.82849 -3.65587 0)
(9.33323 -3.67913 0)
(9.04171 -3.56247 0)
(9.47135 -3.21138 0)
(8.96177 -2.82498 0)
(9.16189 -2.54725 0)
(8.52596 -2.15439 0)
(9.02318 -1.58479 0)
(8.53057 -0.94103 0)
(8.93519 -0.495699 0)
(7.85732 -0.293073 0)
(7.89881 -0.281493 0)
(6.80238 -0.0680039 0)
(7.33234 0.250513 0)
(6.81982 0.588344 0)
(7.47054 1.07828 0)
(7.29746 1.26474 0)
(7.56724 1.64018 0)
(7.57738 1.63438 0)
(7.5433 1.93789 0)
(7.75907 1.88029 0)
(7.52951 1.95445 0)
(7.76261 1.84412 0)
(7.64894 1.89095 0)
(7.66385 1.71508 0)
(7.86862 1.68469 0)
(7.41117 1.24791 0)
(8.20091 1.49501 0)
(7.56916 0.715984 0)
(8.33983 0.907371 0)
(7.99896 0.00512019 0)
(8.77353 0.395644 0)
(8.56022 -0.86289 0)
(9.24843 -0.268013 0)
(9.38549 -1.38358 0)
(9.85408 -0.759606 0)
(9.99656 -1.77171 0)
(10.5996 -0.893127 0)
(10.601 -1.77366 0)
(11.0531 -0.877129 0)
(11.1378 -1.55187 0)
(11.3626 -0.645116 0)
(11.4592 -1.30287 0)
(11.5402 -0.395986 0)
(11.6831 -1.00285 0)
(11.5627 -0.283313 0)
(11.8031 -0.826199 0)
(11.6035 -0.164298 0)
(11.8405 -0.829266 0)
(11.6346 -0.222338 0)
(11.9397 -0.782412 0)
(11.7208 -0.490517 0)
(11.9903 -0.932888 0)
(11.8889 -0.735728 0)
(12.1498 -1.27424 0)
(11.9667 -1.13951 0)
(12.3176 -1.5327 0)
(12.157 -1.68477 0)
(12.4037 -1.95642 0)
(12.2089 -2.11236 0)
(12.6161 -2.30391 0)
(12.0976 -2.57749 0)
(12.6737 -2.39452 0)
(11.9714 -2.89927 0)
(12.4994 -2.44075 0)
(11.4948 -2.79091 0)
(12.1544 -2.07644 0)
(10.7584 -2.42812 0)
(11.5417 -1.42471 0)
(10.0889 -1.70756 0)
(10.8868 -0.767424 0)
(9.48638 -0.948636 0)
(10.2336 0.0518768 0)
(8.92452 -0.221539 0)
(9.67245 0.733538 0)
(8.50705 0.623003 0)
(9.21341 1.72393 0)
(8.27573 1.52451 0)
(8.44428 2.34309 0)
(7.93535 2.7922 0)
(7.3523 3.16638 0)
(7.48283 4.66097 0)
(6.37026 4.74161 0)
(6.28904 6.60054 0)
(7.22033 8.15045 0)
(4.14939 11.3759 0)
(5.24218 -0.0804439 0)
(5.19467 -0.0517493 0)
(5.27982 -0.0733473 0)
(5.25896 -0.0989158 0)
(5.4207 -0.12236 0)
(5.42662 -0.114511 0)
(5.58617 -0.0949304 0)
(5.55264 -0.0725577 0)
(5.67398 -0.0448446 0)
(5.61193 -0.0235162 0)
(5.72587 -0.0149913 0)
(5.65774 -0.0157788 0)
(5.77899 -0.0340927 0)
(5.70829 -0.0418565 0)
(5.84528 -0.0651597 0)
(5.77125 -0.0788149 0)
(5.91556 -0.0948645 0)
(5.82786 -0.10866 0)
(5.96909 -0.117411 0)
(5.86242 -0.123768 0)
(5.99207 -0.122893 0)
(5.86501 -0.104112 0)
(5.99544 -0.0829746 0)
(5.8536 -0.0404369 0)
(5.99399 -0.00592959 0)
(5.84704 0.0350909 0)
(6.00471 0.0668622 0)
(5.86765 0.081546 0)
(6.05107 0.0857785 0)
(5.92324 0.0869228 0)
(6.11242 0.0830921 0)
(5.97988 0.0899799 0)
(6.17234 0.0844978 0)
(6.04014 0.0882565 0)
(6.24502 0.0776199 0)
(6.11408 0.0701845 0)
(6.321 0.0546858 0)
(6.1906 0.0371198 0)
(6.39767 0.0102675 0)
(6.26281 -0.00974439 0)
(6.4719 -0.0483675 0)
(6.33071 -0.0728407 0)
(6.53275 -0.110552 0)
(6.37846 -0.13781 0)
(6.56334 -0.174515 0)
(6.37459 -0.195951 0)
(6.54268 -0.227821 0)
(6.31444 -0.230737 0)
(6.46368 -0.244194 0)
(6.19662 -0.215966 0)
(6.3202 -0.185784 0)
(6.0272 -0.118802 0)
(6.16787 -0.0551251 0)
(5.86883 0.0485765 0)
(6.04518 0.129578 0)
(5.8011 0.23228 0)
(6.01777 0.314471 0)
(5.84577 0.401652 0)
(6.11352 0.442194 0)
(6.00692 0.505816 0)
(6.27369 0.510564 0)
(6.23029 0.532455 0)
(6.48259 0.520575 0)
(6.49652 0.506367 0)
(6.76385 0.448611 0)
(6.86236 0.352933 0)
(7.16059 0.208254 0)
(7.29866 -0.00793719 0)
(7.59384 -0.266357 0)
(7.67906 -0.549079 0)
(7.89987 -0.837115 0)
(7.94966 -1.08484 0)
(8.01422 -1.36342 0)
(8.00591 -1.50595 0)
(8.03211 -1.61099 0)
(7.94039 -1.59274 0)
(7.77483 -1.53318 0)
(7.54707 -1.42496 0)
(7.4667 -1.23338 0)
(7.3054 -0.891312 0)
(7.32221 -0.438947 0)
(6.99786 0.0326905 0)
(6.74506 0.399374 0)
(6.33478 0.599261 0)
(6.34999 0.777645 0)
(6.33383 0.975003 0)
(6.60338 1.153 0)
(6.89708 1.34047 0)
(7.10492 1.49914 0)
(7.51393 1.57821 0)
(7.51328 1.56193 0)
(7.95929 1.50762 0)
(7.82431 1.34636 0)
(8.18731 1.11795 0)
(7.96721 0.873955 0)
(8.05125 0.633196 0)
(7.68143 0.623579 0)
(7.51698 0.705478 0)
(7.26294 0.978402 0)
(7.16907 1.37073 0)
(7.14084 1.56725 0)
(7.35603 1.83604 0)
(7.4307 1.70407 0)
(7.8053 1.44678 0)
(8.07078 1.05147 0)
(8.32125 0.483618 0)
(8.74916 -0.083109 0)
(8.81015 -0.603438 0)
(9.36483 -1.28657 0)
(9.27263 -1.69639 0)
(9.83134 -2.33866 0)
(9.78656 -2.70306 0)
(10.1591 -3.26472 0)
(10.18 -3.42815 0)
(10.2966 -3.80276 0)
(10.2927 -3.61173 0)
(10.1229 -3.72011 0)
(10.1923 -3.32704 0)
(9.96515 -2.98445 0)
(10.1223 -2.26298 0)
(9.67544 -1.91039 0)
(9.6976 -1.42981 0)
(9.20699 -1.11224 0)
(9.63273 -0.499876 0)
(9.21706 0.00140789 0)
(9.36568 0.348954 0)
(8.38682 0.324633 0)
(8.19525 0.472044 0)
(7.68887 0.520996 0)
(7.71969 0.925603 0)
(7.92191 1.08118 0)
(7.92668 1.51169 0)
(8.49656 1.64812 0)
(8.1707 1.83137 0)
(8.72592 1.83642 0)
(8.5041 1.99356 0)
(8.77238 1.84785 0)
(8.70202 1.87251 0)
(8.63379 1.57819 0)
(9.2152 1.8616 0)
(8.52883 1.09575 0)
(9.41628 1.3479 0)
(8.97043 0.662076 0)
(9.82424 0.757531 0)
(9.2919 -0.216171 0)
(10.3439 0.166164 0)
(10.0799 -1.11359 0)
(10.7707 -0.468726 0)
(10.8213 -1.80106 0)
(11.4178 -0.943564 0)
(11.4264 -2.12132 0)
(12.0109 -1.10298 0)
(11.905 -2.05611 0)
(12.4085 -1.0617 0)
(12.2946 -1.74364 0)
(12.6715 -0.776817 0)
(12.5653 -1.45564 0)
(12.8007 -0.443848 0)
(12.8231 -1.12914 0)
(12.8649 -0.212085 0)
(12.97 -0.94229 0)
(12.8939 -0.00870495 0)
(13.0654 -0.962178 0)
(12.8798 -0.0338097 0)
(13.0921 -0.9157 0)
(12.9943 -0.324839 0)
(13.05 -1.09741 0)
(13.0677 -0.541765 0)
(13.1796 -1.50354 0)
(13.1113 -0.962576 0)
(13.1742 -1.73828 0)
(13.3073 -1.51966 0)
(13.1323 -2.17903 0)
(13.3127 -1.86389 0)
(13.0553 -2.54172 0)
(13.1645 -2.25283 0)
(12.8269 -2.65121 0)
(12.7526 -2.374 0)
(12.4188 -2.62524 0)
(12.0575 -2.0948 0)
(11.8367 -2.21915 0)
(11.2087 -1.60304 0)
(11.235 -1.61574 0)
(10.4447 -0.910617 0)
(10.7494 -0.954789 0)
(9.72281 -0.169704 0)
(10.2776 -0.215942 0)
(9.05274 0.580123 0)
(9.59433 0.274975 0)
(8.79195 1.35582 0)
(8.9743 1.01688 0)
(8.87293 2.44835 0)
(8.13273 2.09407 0)
(8.76593 3.3685 0)
(7.48465 3.38253 0)
(8.17077 4.60075 0)
(7.96216 5.38929 0)
(6.46589 6.3927 0)
(10.1573 6.83738 0)
(7.50665 12.4007 0)
(7.89969 -0.0855534 0)
(7.84376 -0.0801033 0)
(7.90229 -0.138279 0)
(7.85858 -0.160034 0)
(7.99471 -0.167663 0)
(7.98599 -0.139081 0)
(8.13842 -0.103738 0)
(8.10258 -0.0802284 0)
(8.19967 -0.04302 0)
(8.12667 -0.0354361 0)
(8.2015 -0.0277228 0)
(8.13153 -0.0274307 0)
(8.23003 -0.0493914 0)
(8.15999 -0.0491968 0)
(8.28348 -0.0777115 0)
(8.2016 -0.0870354 0)
(8.32719 -0.100115 0)
(8.2353 -0.116629 0)
(8.34381 -0.118815 0)
(8.24791 -0.125065 0)
(8.34396 -0.120577 0)
(8.23872 -0.099607 0)
(8.33717 -0.0857197 0)
(8.22121 -0.045077 0)
(8.33106 -0.0156252 0)
(8.21678 0.0231358 0)
(8.33161 0.0562072 0)
(8.23338 0.0714233 0)
(8.34759 0.080866 0)
(8.27089 0.0833544 0)
(8.38001 0.0740548 0)
(8.30629 0.0813112 0)
(8.41653 0.0662448 0)
(8.34054 0.0701682 0)
(8.45657 0.0573989 0)
(8.38748 0.0467172 0)
(8.49527 0.0356817 0)
(8.44001 0.0132986 0)
(8.54128 -0.0136477 0)
(8.49029 -0.0308333 0)
(8.58922 -0.0751911 0)
(8.5304 -0.0899 0)
(8.62892 -0.131203 0)
(8.55662 -0.151071 0)
(8.64047 -0.170467 0)
(8.5465 -0.191555 0)
(8.60754 -0.199806 0)
(8.48791 -0.196161 0)
(8.52966 -0.195722 0)
(8.37834 -0.154331 0)
(8.40606 -0.125459 0)
(8.22994 -0.0572366 0)
(8.26099 0.0158647 0)
(8.07103 0.0935894 0)
(8.10557 0.185553 0)
(7.94483 0.267508 0)
(7.99357 0.326837 0)
(7.87671 0.401486 0)
(7.95763 0.423822 0)
(7.89421 0.452576 0)
(8.00877 0.451817 0)
(8.01797 0.437053 0)
(8.16329 0.408116 0)
(8.25016 0.359939 0)
(8.43749 0.286977 0)
(8.593 0.17337 0)
(8.84092 0.0106648 0)
(9.02989 -0.172552 0)
(9.26509 -0.433232 0)
(9.42588 -0.671989 0)
(9.58754 -0.934766 0)
(9.66504 -1.17771 0)
(9.7207 -1.39055 0)
(9.72265 -1.52501 0)
(9.65862 -1.589 0)
(9.52861 -1.59846 0)
(9.41086 -1.51903 0)
(9.37128 -1.31481 0)
(9.17705 -1.01966 0)
(8.96571 -0.680525 0)
(8.59725 -0.333605 0)
(8.52143 0.123514 0)
(8.3269 0.51984 0)
(8.34224 0.873375 0)
(8.04741 1.00817 0)
(7.90678 1.10751 0)
(7.58437 1.09444 0)
(7.65063 1.18283 0)
(7.61574 1.20568 0)
(7.85277 1.34601 0)
(8.06091 1.37383 0)
(8.17739 1.37922 0)
(8.50768 1.27697 0)
(8.34601 1.15595 0)
(8.6211 0.934389 0)
(8.12674 0.877124 0)
(8.33577 0.762625 0)
(7.67701 0.932441 0)
(7.98918 1.01414 0)
(7.60234 1.32701 0)
(8.03188 1.47186 0)
(8.02845 1.54493 0)
(8.62913 1.50086 0)
(8.68742 1.11634 0)
(9.41478 0.776844 0)
(9.42233 0.209122 0)
(10.1356 -0.345377 0)
(10.0074 -0.848807 0)
(10.7725 -1.47783 0)
(10.5391 -1.96427 0)
(11.2562 -2.46369 0)
(11.031 -2.95452 0)
(11.5879 -3.32165 0)
(11.3041 -3.58327 0)
(11.6764 -3.81213 0)
(11.2608 -3.67044 0)
(11.4797 -3.45886 0)
(10.8512 -3.08981 0)
(10.9393 -2.74509 0)
(10.2903 -2.35539 0)
(10.5433 -1.84564 0)
(10.1724 -1.20025 0)
(10.1196 -0.854766 0)
(9.81819 -0.477125 0)
(9.88401 -0.0878978 0)
(9.79998 0.364448 0)
(9.92336 0.77732 0)
(9.40303 0.929053 0)
(9.09243 0.968496 0)
(8.43833 0.943681 0)
(8.64154 1.07528 0)
(8.12496 1.21245 0)
(8.90725 1.45516 0)
(8.68021 1.75516 0)
(9.21743 1.66335 0)
(9.25662 1.95171 0)
(9.5321 1.78277 0)
(9.78813 1.95033 0)
(9.52759 1.43341 0)
(10.3181 1.7753 0)
(9.79477 1.05723 0)
(10.6702 1.2269 0)
(10.1266 0.428844 0)
(11.3221 0.594857 0)
(10.5751 -0.484217 0)
(11.834 -0.0386276 0)
(11.418 -1.51079 0)
(12.2773 -0.673981 0)
(12.2001 -2.1931 0)
(12.7939 -1.10436 0)
(12.746 -2.46625 0)
(13.2271 -1.22738 0)
(13.0893 -2.29458 0)
(13.4708 -1.09982 0)
(13.3562 -1.93965 0)
(13.5144 -0.749421 0)
(13.5401 -1.62067 0)
(13.5298 -0.393014 0)
(13.6965 -1.26088 0)
(13.4945 -0.188309 0)
(13.883 -1.07511 0)
(13.4181 0.0331238 0)
(14.0821 -1.09187 0)
(13.4142 0.00597062 0)
(14.1653 -1.04442 0)
(13.514 -0.252824 0)
(14.216 -1.24531 0)
(13.5206 -0.393741 0)
(14.309 -1.68799 0)
(13.5699 -0.75462 0)
(14.1263 -1.91354 0)
(13.755 -1.32135 0)
(13.8044 -2.30079 0)
(13.6898 -1.63473 0)
(13.3469 -2.59158 0)
(13.6127 -2.02674 0)
(12.6027 -2.5497 0)
(13.3568 -2.07131 0)
(11.7191 -2.33146 0)
(12.9079 -1.82064 0)
(10.8834 -1.7673 0)
(12.4161 -1.42201 0)
(10.2119 -1.18127 0)
(12.0363 -0.80791 0)
(9.55945 -0.50129 0)
(11.5253 -0.167288 0)
(9.06493 0.348665 0)
(10.839 0.67246 0)
(8.29603 0.975522 0)
(9.88729 1.24978 0)
(7.65277 1.79253 0)
(9.20075 1.98154 0)
(7.50218 2.71429 0)
(8.81825 2.93908 0)
(8.19184 3.96805 0)
(7.71522 4.47526 0)
(9.90962 4.97052 0)
(6.70879 7.7985 0)
(10.7997 4.13767 0)
(9.37997 11.4122 0)
(10.0928 -0.120429 0)
(10.0747 -0.199304 0)
(10.1406 -0.274091 0)
(10.115 -0.267527 0)
(10.2427 -0.256173 0)
(10.203 -0.207551 0)
(10.3105 -0.150816 0)
(10.2755 -0.122167 0)
(10.337 -0.0615183 0)
(10.2983 -0.0384914 0)
(10.3235 -0.0287452 0)
(10.2714 -0.0281656 0)
(10.3149 -0.0639195 0)
(10.2409 -0.0705301 0)
(10.3267 -0.109532 0)
(10.2616 -0.117772 0)
(10.3584 -0.117684 0)
(10.314 -0.12569 0)
(10.3781 -0.111923 0)
(10.3376 -0.116122 0)
(10.3741 -0.10802 0)
(10.3065 -0.0874994 0)
(10.3492 -0.0843653 0)
(10.2676 -0.044906 0)
(10.3287 -0.0252704 0)
(10.2704 0.010893 0)
(10.3242 0.0448129 0)
(10.3056 0.056748 0)
(10.341 0.0757851 0)
(10.3431 0.0737805 0)
(10.3751 0.0683988 0)
(10.3563 0.0721542 0)
(10.4 0.0524748 0)
(10.3682 0.0556876 0)
(10.4125 0.0425497 0)
(10.3994 0.0324061 0)
(10.4282 0.0208252 0)
(10.4376 -0.00366898 0)
(10.4679 -0.0266111 0)
(10.4655 -0.0504958 0)
(10.5084 -0.0812125 0)
(10.4743 -0.104964 0)
(10.5247 -0.132645 0)
(10.4767 -0.154373 0)
(10.5003 -0.166572 0)
(10.4458 -0.177086 0)
(10.4415 -0.181327 0)
(10.3723 -0.168872 0)
(10.3679 -0.154688 0)
(10.2645 -0.112926 0)
(10.2692 -0.0676883 0)
(10.1546 -0.00153355 0)
(10.1586 0.0692617 0)
(10.0629 0.151499 0)
(10.0452 0.230464 0)
(9.97851 0.30795 0)
(9.96449 0.360623 0)
(9.92043 0.411432 0)
(9.93685 0.428268 0)
(9.92959 0.447623 0)
(9.96807 0.428196 0)
(10.0253 0.401463 0)
(10.09 0.355071 0)
(10.2056 0.277985 0)
(10.3225 0.18069 0)
(10.4706 0.0521927 0)
(10.6477 -0.132137 0)
(10.8197 -0.320748 0)
(10.9814 -0.557366 0)
(11.1157 -0.791616 0)
(11.2077 -1.02533 0)
(11.2338 -1.2348 0)
(11.2739 -1.41009 0)
(11.155 -1.49096 0)
(11.0921 -1.5549 0)
(10.9131 -1.48931 0)
(10.8318 -1.36064 0)
(10.5308 -1.16908 0)
(10.3786 -0.914369 0)
(10.1154 -0.607271 0)
(10.053 -0.196042 0)
(9.83804 0.198617 0)
(9.87258 0.595296 0)
(9.64347 0.887722 0)
(9.74312 1.12816 0)
(9.41644 1.28359 0)
(9.47065 1.36954 0)
(8.94959 1.35319 0)
(9.06842 1.33537 0)
(8.53172 1.26674 0)
(8.92315 1.26992 0)
(8.47763 1.24417 0)
(9.05446 1.15607 0)
(8.57194 1.13641 0)
(9.15069 0.995424 0)
(8.49271 0.99563 0)
(9.02185 0.937567 0)
(8.35235 1.03592 0)
(8.80833 1.08985 0)
(8.50488 1.23878 0)
(8.99794 1.32134 0)
(9.05465 1.30014 0)
(9.68496 1.18633 0)
(9.91536 0.826825 0)
(10.4666 0.449035 0)
(10.7639 -0.0529785 0)
(11.2238 -0.62295 0)
(11.4058 -1.0834 0)
(11.8642 -1.67667 0)
(12.0258 -2.21188 0)
(12.3267 -2.58843 0)
(12.4846 -3.12173 0)
(12.642 -3.39629 0)
(12.5536 -3.58835 0)
(12.5875 -3.66463 0)
(12.1556 -3.52907 0)
(12.0561 -3.32552 0)
(11.507 -3.01093 0)
(11.5651 -2.43374 0)
(10.8623 -2.00851 0)
(10.8623 -1.64688 0)
(10.3975 -1.18183 0)
(10.4967 -0.746264 0)
(10.2037 -0.423651 0)
(10.3196 0.141256 0)
(10.036 0.197859 0)
(10.2395 0.772004 0)
(10.2729 0.965957 0)
(10.2351 1.30132 0)
(9.95971 1.25574 0)
(9.76484 1.40764 0)
(9.31758 1.25061 0)
(9.27861 1.21945 0)
(9.35897 1.64014 0)
(9.37338 1.29528 0)
(9.83731 1.73666 0)
(9.77759 1.52969 0)
(10.62 1.79296 0)
(10.0081 1.26583 0)
(11.3581 1.63872 0)
(10.5159 0.819449 0)
(11.9122 1.11108 0)
(10.9749 0.173938 0)
(12.7863 0.349297 0)
(11.5395 -0.740091 0)
(13.4017 -0.355347 0)
(12.4897 -1.74406 0)
(13.8258 -0.947659 0)
(13.2902 -2.42664 0)
(14.1655 -1.24855 0)
(13.6996 -2.66474 0)
(14.3924 -1.25282 0)
(13.8796 -2.44952 0)
(14.3132 -1.0434 0)
(14.0856 -2.09142 0)
(14.0535 -0.651285 0)
(14.2508 -1.72599 0)
(13.8168 -0.326741 0)
(14.4035 -1.34275 0)
(13.5565 -0.132949 0)
(14.6458 -1.16068 0)
(13.3235 0.124049 0)
(14.8152 -1.22435 0)
(13.2673 0.134951 0)
(14.8186 -1.21148 0)
(13.2921 -0.124614 0)
(14.8684 -1.4054 0)
(13.062 -0.314857 0)
(15.08 -1.81131 0)
(12.7574 -0.663095 0)
(14.9898 -2.04357 0)
(12.6067 -1.19702 0)
(14.7528 -2.38619 0)
(12.1881 -1.38603 0)
(14.4556 -2.67179 0)
(11.8903 -1.64761 0)
(13.8435 -2.53962 0)
(11.614 -1.64758 0)
(13.1684 -2.34597 0)
(11.4708 -1.42257 0)
(12.4735 -1.79881 0)
(11.4901 -1.16416 0)
(11.9539 -1.23511 0)
(11.478 -0.495259 0)
(11.4304 -0.393495 0)
(11.2864 0.0853127 0)
(10.9176 0.498837 0)
(10.8408 1.02737 0)
(10.4926 1.27878 0)
(9.75576 1.80494 0)
(9.66927 1.99044 0)
(8.16191 2.76377 0)
(9.39092 2.39825 0)
(6.86662 3.70318 0)
(10.3857 2.792 0)
(6.67543 5.95853 0)
(11.1718 2.86167 0)
(7.99209 8.7783 0)
(10.8956 3.46217 0)
(9.58959 9.96536 0)
(11.5588 -0.0964696 0)
(11.5763 -0.220216 0)
(11.7195 -0.314505 0)
(11.7382 -0.287952 0)
(11.8669 -0.286425 0)
(11.8332 -0.218046 0)
(11.8852 -0.155783 0)
(11.8576 -0.134722 0)
(11.873 -0.0553473 0)
(11.853 -0.0544435 0)
(11.8513 -0.0201748 0)
(11.8173 -0.0278718 0)
(11.8368 -0.0565449 0)
(11.77 -0.0446099 0)
(11.803 -0.109441 0)
(11.7525 -0.106476 0)
(11.7868 -0.126595 0)
(11.7653 -0.139543 0)
(11.7882 -0.113151 0)
(11.7834 -0.132556 0)
(11.8044 -0.0976481 0)
(11.7726 -0.0802408 0)
(11.7848 -0.0765376 0)
(11.7427 -0.0310175 0)
(11.746 -0.0366634 0)
(11.7386 0.00292512 0)
(11.7332 0.0289203 0)
(11.7696 0.0313599 0)
(11.7781 0.0711355 0)
(11.8287 0.0583203 0)
(11.8524 0.0732826 0)
(11.8728 0.0801004 0)
(11.8885 0.0553758 0)
(11.8926 0.0633365 0)
(11.8865 0.0364713 0)
(11.8957 0.0197126 0)
(11.8761 0.0140897 0)
(11.887 -0.0270174 0)
(11.8888 -0.0320657 0)
(11.8849 -0.0634298 0)
(11.9068 -0.0900035 0)
(11.8853 -0.098075 0)
(11.9032 -0.134789 0)
(11.8895 -0.136565 0)
(11.8766 -0.143981 0)
(11.8538 -0.155053 0)
(11.8235 -0.136769 0)
(11.7742 -0.138797 0)
(11.7508 -0.110112 0)
(11.6633 -0.0711742 0)
(11.6404 -0.042002 0)
(11.5603 0.0241033 0)
(11.5345 0.0812141 0)
(11.515 0.154695 0)
(11.4963 0.247216 0)
(11.518 0.313361 0)
(11.5405 0.377648 0)
(11.5593 0.433235 0)
(11.6165 0.434686 0)
(11.6293 0.451567 0)
(11.6895 0.416421 0)
(11.7288 0.354388 0)
(11.8069 0.30862 0)
(11.8702 0.183093 0)
(11.9876 0.0872262 0)
(12.0684 -0.0723429 0)
(12.2024 -0.226558 0)
(12.3018 -0.43687 0)
(12.3935 -0.61951 0)
(12.4266 -0.86366 0)
(12.4544 -1.02924 0)
(12.3803 -1.22755 0)
(12.3388 -1.33211 0)
(12.1345 -1.42156 0)
(12.0688 -1.40781 0)
(11.7879 -1.34161 0)
(11.6782 -1.21312 0)
(11.3122 -1.03528 0)
(11.3251 -0.738245 0)
(10.9657 -0.398718 0)
(10.9976 -0.0790188 0)
(10.6466 0.270986 0)
(10.7846 0.553054 0)
(10.56 0.902062 0)
(10.7965 1.14589 0)
(10.627 1.38813 0)
(10.7798 1.50235 0)
(10.5302 1.56775 0)
(10.5268 1.54225 0)
(10.2373 1.4894 0)
(10.1005 1.36601 0)
(9.89572 1.30858 0)
(9.78214 1.15074 0)
(9.64199 1.10734 0)
(9.64217 0.966418 0)
(9.44432 0.969417 0)
(9.53617 0.907391 0)
(9.43172 0.963742 0)
(9.51478 1.00054 0)
(9.67937 1.03959 0)
(9.91116 1.05461 0)
(10.2436 0.978814 0)
(10.6586 0.813639 0)
(11.1428 0.446035 0)
(11.4825 0.108668 0)
(12.0082 -0.392845 0)
(12.3064 -0.917354 0)
(12.734 -1.35637 0)
(12.9878 -1.91939 0)
(13.39 -2.40451 0)
(13.3907 -2.73927 0)
(13.7186 -3.21352 0)
(13.5546 -3.34776 0)
(13.4514 -3.4986 0)
(13.1654 -3.49319 0)
(12.7519 -3.22441 0)
(12.4125 -2.88923 0)
(11.9039 -2.66294 0)
(11.6005 -2.19966 0)
(11.2003 -1.83948 0)
(11.0074 -1.3792 0)
(10.7074 -0.93532 0)
(10.4572 -0.580409 0)
(10.4171 -0.401061 0)
(10.2676 0.196757 0)
(10.4252 0.219852 0)
(10.1848 0.698654 0)
(10.7159 0.949302 0)
(10.3841 1.19066 0)
(10.9124 1.28854 0)
(10.506 1.51605 0)
(10.9389 1.56576 0)
(10.2297 1.26916 0)
(10.7046 1.68374 0)
(10.1841 1.23634 0)
(10.758 1.49761 0)
(10.3072 1.26771 0)
(11.4479 1.44507 0)
(10.6312 1.00526 0)
(12.1068 1.29789 0)
(11.4291 0.488275 0)
(12.8644 0.798313 0)
(11.976 -0.115218 0)
(14.0249 -0.0424586 0)
(12.5662 -0.96201 0)
(14.9037 -0.789985 0)
(13.3099 -1.85462 0)
(15.3784 -1.28744 0)
(13.912 -2.52474 0)
(15.4743 -1.35434 0)
(14.134 -2.71534 0)
(15.3935 -1.21206 0)
(14.0971 -2.4532 0)
(15.0367 -0.918451 0)
(14.176 -2.10004 0)
(14.5228 -0.483142 0)
(14.2694 -1.75125 0)
(14.1066 -0.201284 0)
(14.3354 -1.3527 0)
(13.7381 -0.0510546 0)
(14.5074 -1.17097 0)