/*--------------------------------*- C++ -*----------------------------------*\
| =========                 |                                                 |
| \\      /  F ield         | OpenFOAM: The Open Source CFD Toolbox           |
|  \\    /   O peration     | Version:  2.4.0                                 |
|   \\  /    A nd           | Web:      www.OpenFOAM.org                      |
|    \\/     M anipulation  |                                                 |
\*---------------------------------------------------------------------------*/
FoamFile
{
    version     2.0;
    format      ascii;
    class       volScalarField;
    location    "1.33";
    object      k;
}
// * * * * * * * * * * * * * * * * * * * * * * * * * * * * * * * * * * * * * //

dimensions      [0 2 -2 0 0 0 0];

internalField   nonuniform List<scalar> 
8800
(
8.11042
10.2799
8.78127
6.84356
5.67944
5.00777
4.48795
4.18786
3.86591
3.72137
3.48737
3.41989
3.24543
3.20784
3.05429
3.02868
2.90194
2.86718
2.81954
2.65057
1.38993
4.36607
5.309
5.29452
5.10892
4.8552
4.52749
4.34178
4.06205
3.94366
3.71515
3.63806
3.47205
3.41958
3.28786
3.24855
3.14638
3.1016
3.01817
3.00415
0.0832721
0.74752
1.54245
1.96696
2.24321
2.47012
2.54655
2.62355
2.61338
2.60986
2.57825
2.55768
2.51077
2.48582
2.45117
2.41671
2.3946
2.35467
2.31249
2.29267
0.00327995
0.0713575
0.24439
0.437596
0.569827
0.716087
0.826107
0.935995
1.02569
1.08889
1.17039
1.20652
1.2663
1.29195
1.347
1.36069
1.40518
1.409
1.42013
1.41239
0.000118565
0.00509684
0.0212572
0.0532318
0.0870855
0.121704
0.165023
0.199407
0.251981
0.27631
0.32694
0.350577
0.396705
0.418605
0.467607
0.487078
0.533816
0.555897
0.590655
0.605972
2.62079e-05
0.000327135
0.00143962
0.00371574
0.00773982
0.01131
0.0187242
0.0240462
0.0355559
0.0414975
0.054091
0.0617551
0.0740826
0.0815588
0.0989775
0.10725
0.11738
0.136926
0.146851
0.162239
2.16279e-05
4.55402e-05
0.000118483
0.000322888
0.000469928
0.000764585
0.00124824
0.00166457
0.00282748
0.0036049
0.00444916
0.00646962
0.00737805
0.00936462
0.0109607
0.0135724
0.0150295
0.0193569
0.0212215
0.0270706
2.11743e-05
3.20897e-05
4.622e-05
7.51768e-05
0.000102294
0.000108919
0.00013741
0.000159997
0.000194942
0.000309169
0.000339221
0.000460599
0.000504965
0.000679738
0.000765825
0.00103927
0.00113857
0.00156143
0.00175718
0.00284055
2.10205e-05
3.01519e-05
4.81487e-05
5.64939e-05
6.21811e-05
7.76629e-05
8.08771e-05
9.32205e-05
8.94638e-05
9.70911e-05
0.000100166
0.000109257
0.000113937
0.000127497
0.000129269
0.000137684
0.000141475
0.000168173
0.000178372
0.000240025
2.06695e-05
2.69907e-05
3.80205e-05
6.08273e-05
6.34084e-05
6.35839e-05
6.2621e-05
6.49023e-05
7.64814e-05
7.74238e-05
7.82382e-05
7.83654e-05
7.72305e-05
7.86989e-05
8.04959e-05
8.23926e-05
8.36951e-05
8.68055e-05
8.7083e-05
9.0463e-05
2.05893e-05
2.77961e-05
4.33031e-05
5.21504e-05
5.87988e-05
6.39671e-05
6.96047e-05
7.24832e-05
7.04108e-05
7.11578e-05
7.08749e-05
7.22565e-05
7.75857e-05
7.98709e-05
7.91155e-05
7.93696e-05
7.91807e-05
8.0611e-05
8.17449e-05
8.5824e-05
2.07756e-05
2.9788e-05
3.81488e-05
5.94538e-05
7.08248e-05
7.24722e-05
7.48605e-05
7.50594e-05
7.8779e-05
8.54266e-05
8.92094e-05
9.80405e-05
0.000101948
0.000104397
0.000106789
0.000116139
0.000129723
0.000155245
0.00017131
0.000202642
2.11029e-05
2.98357e-05
4.46215e-05
7.83231e-05
9.28571e-05
0.000115479
0.00013025
0.000173808
0.000202588
0.000288614
0.000336773
0.000444959
0.000510886
0.000653427
0.000739902
0.000982193
0.00117351
0.00158913
0.00193013
0.00261777
2.15135e-05
4.33714e-05
0.000119498
0.000361189
0.000515455
0.000844181
0.00117643
0.00201794
0.00257291
0.00402138
0.00475133
0.00640657
0.00738063
0.00960815
0.0108059
0.0139401
0.015907
0.0205362
0.0232936
0.030431
2.5148e-05
0.000305549
0.0014535
0.00478876
0.00719664
0.0124665
0.0169653
0.0269715
0.0325077
0.0455548
0.0515963
0.0646196
0.0713393
0.0863476
0.0936045
0.111764
0.121533
0.144556
0.156937
0.190164
0.000123262
0.00492251
0.0219218
0.0574793
0.083508
0.123436
0.160897
0.210311
0.236631
0.292568
0.315545
0.361608
0.384235
0.432739
0.453978
0.506067
0.530367
0.589415
0.617165
0.687482
0.0033717
0.0694667
0.261398
0.418381
0.584242
0.700227
0.837453
0.930522
1.01917
1.10391
1.15588
1.21252
1.25671
1.30915
1.33179
1.38246
1.40337
1.45417
1.47344
1.52343
0.0846086
0.727143
1.56924
1.93708
2.28179
2.42857
2.58356
2.59591
2.6252
2.59948
2.58763
2.53874
2.52457
2.47548
2.46109
2.41916
2.40928
2.38077
2.36916
2.34296
1.4063
4.34907
5.32135
5.28566
5.13224
4.79713
4.58839
4.27321
4.13374
3.86604
3.77833
3.57952
3.52058
3.36662
3.33081
3.20039
3.1719
3.05461
3.01586
2.91504
8.11957
10.2628
8.79557
6.81389
5.71499
4.95894
4.53841
4.12924
3.93038
3.64499
3.55595
3.34958
3.30261
3.13326
3.10565
2.94301
2.91085
2.73473
2.67326
2.45762
1.85727
1.36923
1.10045
0.934244
0.825117
0.761193
0.716766
0.691172
0.667212
0.651412
0.631907
0.618574
0.600775
0.589204
0.573994
0.563731
0.550361
0.540125
0.527323
0.517617
0.506546
0.499217
0.490214
0.483474
0.474372
0.467412
0.456449
0.447541
0.434925
0.423335
0.409697
0.397686
0.388073
0.37866
0.374318
0.372717
0.374143
0.375999
0.382178
0.384979
0.392246
0.393982
0.399347
0.400145
0.403138
0.402943
0.403929
0.403164
0.403199
0.40229
0.402037
0.400655
0.399123
0.395473
0.389077
0.383443
0.371593
0.355639
0.335742
0.313486
0.290225
0.266352
0.246209
0.223202
0.204691
0.188794
0.175958
0.166883
0.166976
0.169351
0.177751
0.186789
0.201726
0.21721
0.227483
0.245948
0.253869
0.270423
0.278824
0.296032
0.305252
0.319501
0.326548
0.337403
0.340823
0.348077
0.350371
0.357783
0.36041
0.369564
0.371658
0.381427
0.382154
0.383567
0.381085
0.377301
0.36954
0.352159
0.334425
0.307135
0.288208
0.268277
0.260298
0.249323
0.246896
0.246869
0.245112
0.249679
0.249112
0.256978
0.258827
0.265697
0.264168
0.268963
0.261084
0.263164
0.252565
0.250118
0.232047
0.225639
0.204888
0.19753
0.180608
0.173674
0.162636
0.156413
0.152254
0.144308
0.140337
0.131986
0.127012
0.116013
0.108885
0.0937559
0.0825481
0.0671645
0.0530624
0.0393054
0.0287804
0.0209762
0.014994
0.010832
0.00811492
0.00634633
0.00547451
0.00553257
0.00591379
0.00681473
0.00894103
0.0134199
0.0222092
0.0352168
0.0529796
0.0715131
0.0870087
0.101388
0.112268
0.116493
0.115806
0.113139
0.106773
0.101612
0.0946218
0.0900817
0.083993
0.0805195
0.0735608
0.0635855
0.0554759
0.0529865
0.0527418
0.0536225
0.0568754
0.0655957
0.0809014
0.0894947
0.0900574
0.0880487
0.082846
0.0708774
0.0589873
0.046886
0.0393623
0.0327316
0.027438
0.0245917
0.020008
0.0151746
0.0133822
0.0137492
0.0159505
0.0240204
0.0443894
0.0939304
0.14444
0.176933
0.204174
0.200627
0.26153
0.651113
2.56307
2.10839
1.76757
1.53081
1.34982
1.21488
1.1072
1.02892
0.964207
0.915162
0.871541
0.837958
0.806948
0.783225
0.759385
0.741216
0.721311
0.7061
0.688659
0.676225
0.66153
0.651832
0.639943
0.63229
0.622684
0.615173
0.608351
0.598745
0.593464
0.581464
0.575707
0.563379
0.557822
0.545466
0.540641
0.530222
0.526513
0.518051
0.515322
0.509306
0.507265
0.502723
0.500937
0.497272
0.495718
0.492289
0.490831
0.487449
0.486185
0.483234
0.482428
0.480518
0.479794
0.477963
0.4766
0.473515
0.47121
0.464752
0.460424
0.450191
0.444362
0.430984
0.423865
0.407731
0.399954
0.382869
0.375404
0.361253
0.354912
0.347979
0.347291
0.347778
0.350139
0.352271
0.356381
0.358541
0.362071
0.362696
0.365217
0.363908
0.363649
0.362838
0.359684
0.358489
0.353705
0.351924
0.345497
0.342479
0.334519
0.32936
0.323735
0.320483
0.319447
0.321437
0.323381
0.332424
0.341844
0.350904
0.356946
0.357551
0.357873
0.355143
0.341512
0.332557
0.312393
0.304723
0.288154
0.283419
0.274614
0.270955
0.266378
0.263511
0.256164
0.251977
0.23995
0.232485
0.214594
0.204451
0.180436
0.170832
0.147879
0.137221
0.114193
0.105713
0.0868991
0.0796059
0.0646931
0.0570448
0.0491248
0.0426991
0.0376059
0.0320972
0.0279579
0.0227947
0.0191071
0.01533
0.0122551
0.0097157
0.00760147
0.00616695
0.00488991
0.00421532
0.00386734
0.00399998
0.00434088
0.00514712
0.00703703
0.0117236
0.0216469
0.0403653
0.069075
0.100917
0.136852
0.166073
0.187398
0.203774
0.207457
0.205704
0.200322
0.188042
0.16776
0.157275
0.138837
0.123774
0.113443
0.102455
0.0886399
0.0765608
0.0719875
0.071769
0.0742069
0.0819064
0.105098
0.138229
0.154224
0.155884
0.154612
0.149626
0.14092
0.127899
0.110302
0.0895545
0.0690582
0.0509581
0.0375425
0.031215
0.0254324
0.0196634
0.0154739
0.0141857
0.0145613
0.0167084
0.0240607
0.0444448
0.092983
0.146069
0.211783
0.20787
0.265111
0.433331
2.07757
1.848
1.63131
1.45949
1.31877
1.20958
1.11851
1.04598
0.982058
0.928197
0.879764
0.83941
0.802981
0.774019
0.746285
0.72576
0.703771
0.687575
0.669043
0.654427
0.638496
0.625095
0.612682
0.600724
0.593583
0.582528
0.578264
0.569432
0.565754
0.557009
0.553084
0.544117
0.539652
0.530143
0.524972
0.516831
0.510112
0.505172
0.496915
0.49346
0.486392
0.483291
0.476683
0.473991
0.468827
0.465763
0.462003
0.458797
0.456369
0.453849
0.452722
0.451495
0.451456
0.451048
0.451737
0.451373
0.452043
0.451109
0.450567
0.44825
0.446992
0.44342
0.44147
0.436832
0.433853
0.427692
0.424146
0.416515
0.413375
0.405506
0.403138
0.397618
0.396287
0.392922
0.391451
0.387205
0.385809
0.380298
0.377637
0.371229
0.363096
0.358381
0.345686
0.338539
0.322996
0.314936
0.297546
0.289007
0.271682
0.26144
0.250408
0.241577
0.231237
0.228114
0.224207
0.224568
0.227009
0.229203
0.2392
0.245987
0.259873
0.27543
0.28833
0.291326
0.293578
0.290054
0.288365
0.277713
0.273316
0.257409
0.251448
0.232884
0.223916
0.199888
0.188874
0.158338
0.144353
0.113914
0.0978459
0.0732048
0.0594912
0.0459853
0.0376035
0.0313
0.0256156
0.0224319
0.0189083
0.0166044
0.0145192
0.0124889
0.011197
0.0093194
0.00850452
0.00686531
0.00615599
0.00495897
0.00438007
0.00361701
0.00324308
0.00293267
0.00283043
0.00294697
0.00320664
0.00380869
0.00526624
0.00884825
0.017066
0.0372263
0.0686008
0.124681
0.181086
0.229128
0.249338
0.259433
0.262851
0.263511
0.26281
0.260451
0.255167
0.246445
0.233486
0.205015
0.183205
0.160659
0.149402
0.129389
0.10711
0.0988722
0.0984996
0.103108
0.120549
0.172477
0.201038
0.202325
0.198028
0.191866
0.181736
0.173492
0.163048
0.155042
0.142806
0.127981
0.110903
0.090888
0.0661408
0.0482677
0.035918
0.0260293
0.019612
0.0158309
0.0148066
0.0151246
0.0170952
0.0244966
0.0474739
0.0818961
0.188317
0.20332
0.23616
0.321036
1.3269
1.23509
1.13625
1.0479
0.969398
0.904369
0.846002
0.80106
0.757644
0.721064
0.686091
0.653313
0.623812
0.599016
0.575299
0.558893
0.541928
0.529667
0.516476
0.504044
0.491671
0.477045
0.465465
0.450802
0.440876
0.430886
0.422318
0.417555
0.411439
0.408572
0.403807
0.401374
0.395432
0.392189
0.384213
0.380457
0.37154
0.36757
0.359179
0.35568
0.348351
0.345406
0.3392
0.336795
0.331804
0.329868
0.325627
0.324212
0.321001
0.320219
0.318353
0.318252
0.318469
0.319388
0.321329
0.323959
0.327223
0.332167
0.334471
0.34029
0.342411
0.346263
0.347941
0.349253
0.349393
0.348382
0.346969
0.343137
0.340662
0.33476
0.332014
0.32559
0.322983
0.316254
0.313617
0.306307
0.302538
0.294437
0.287112
0.279823
0.270624
0.255117
0.247519
0.231729
0.217851
0.204765
0.183992
0.173559
0.156639
0.144815
0.131242
0.123217
0.113721
0.106711
0.102023
0.101179
0.101814
0.103261
0.108951
0.113423
0.123233
0.132696
0.139953
0.153161
0.161882
0.166427
0.166633
0.164384
0.159921
0.152641
0.138248
0.126998
0.108724
0.0911194
0.0741176
0.0574529
0.0463234
0.0353784
0.028096
0.0215381
0.0171937
0.0134772
0.0109705
0.00915251
0.00747168
0.00664807
0.00549983
0.00505171
0.00422928
0.00394132
0.00344381
0.00307484
0.00290192
0.00252744
0.00242264
0.00211896
0.00211795
0.00201341
0.00210384
0.00220451
0.00245024
0.00287167
0.00389718
0.00642577
0.0124461
0.0263105
0.0563929
0.118647
0.204041
0.26773
0.286794
0.290186
0.28454
0.282364
0.276029
0.276612
0.274169
0.274167
0.268954
0.266431
0.256146
0.247851
0.225081
0.207674
0.178011
0.15603
0.133171
0.13818
0.143855
0.182274
0.240896
0.248281
0.24223
0.222551
0.192494
0.165804
0.146151
0.141554
0.142138
0.142044
0.139713
0.132993
0.124785
0.113196
0.0956518
0.07635
0.0592924
0.0424679
0.0283977
0.0204663
0.0162219
0.015359
0.0159321
0.0179242
0.0281092
0.0485634
0.126742
0.18476
0.201671
0.249344
0.585707
0.561452
0.535214
0.503394
0.476057
0.452349
0.428937
0.412873
0.397779
0.382125
0.37051
0.354264
0.339603
0.327113
0.310934
0.302199
0.290403
0.284307
0.277082
0.272226
0.267559
0.26205
0.257213
0.250603
0.243419
0.238495
0.229398
0.225503
0.21886
0.216169
0.212262
0.210717
0.207779
0.206637
0.203599
0.201711
0.196682
0.193614
0.187866
0.18299
0.177622
0.173797
0.168932
0.167003
0.163635
0.162733
0.160792
0.160617
0.159789
0.159846
0.159335
0.159473
0.159556
0.159828
0.160319
0.161551
0.162498
0.165196
0.166637
0.1703
0.172051
0.1757
0.177869
0.18023
0.181953
0.182951
0.182729
0.182094
0.180131
0.178272
0.174478
0.169776
0.16765
0.16205
0.158987
0.153383
0.147809
0.144619
0.135656
0.129306
0.123972
0.110385
0.10484
0.0927661
0.0845402
0.0754551
0.0652738
0.0601102
0.0516016
0.0469977
0.0425365
0.0382671
0.0360455
0.0336798
0.0314984
0.0305434
0.0301361
0.0303867
0.0309601
0.0323253
0.0347409
0.0376279
0.0397422
0.0447182
0.0468956
0.0497796
0.0497331
0.0490284
0.0471745
0.0441587
0.0389768
0.0350347
0.0288392
0.0242941
0.0194874
0.0155252
0.0123939
0.00966315
0.00778835
0.00599469
0.00498188
0.00384312
0.00327759
0.0027219
0.00233336
0.00208643
0.00182925
0.00173371
0.00151996
0.00149289
0.00137176
0.0013806
0.00130963
0.00136379
0.00134202
0.00139326
0.00152157
0.00164658
0.00188948
0.00225508
0.00308582
0.00487147
0.00892833
0.0182867
0.0394057
0.0865004
0.191037
0.286743
0.32143
0.320305
0.309252
0.296942
0.270882
0.252066
0.238188
0.240414
0.241403
0.251708
0.25809
0.264796
0.261641
0.265155
0.246209
0.237051
0.204769
0.203192
0.195744
0.214409
0.246877
0.303424
0.297878
0.279297
0.218093
0.172182
0.137643
0.119178
0.10303
0.0968233
0.097071
0.100286
0.110693
0.120808
0.12013
0.115505
0.10803
0.0940764
0.0768507
0.0632354
0.0457852
0.0315428
0.0209695
0.0170036
0.0172221
0.0182737
0.0240358
0.0319367
0.0537646
0.12979
0.162642
0.197545
0.159307
0.154585
0.149756
0.142072
0.135703
0.131418
0.126622
0.124777
0.122813
0.120692
0.119262
0.115578
0.111545
0.107255
0.102062
0.0983138
0.0949586
0.0924026
0.0915562
0.0903936
0.0901912
0.0898059
0.0894984
0.0889728
0.0870226
0.0855093
0.081668
0.0792365
0.0761246
0.0730852
0.0714953
0.0697825
0.0691853
0.0689993
0.0687653
0.0686761
0.0685416
0.0680019
0.067215
0.0645511
0.062374
0.0593902
0.0567298
0.0547948
0.0529358
0.0516752
0.0509878
0.0509568
0.0510474
0.0515932
0.052054
0.0529739
0.0536902
0.0543929
0.0549734
0.055369
0.0558139
0.0566077
0.0569562
0.0579913
0.0585775
0.0598824
0.0604711
0.0616014
0.0624092
0.0628935
0.0628173
0.0625599
0.0615393
0.0607127
0.058685
0.0572145
0.055344
0.0522435
0.0509234
0.048838
0.0455839
0.0442201
0.0407995
0.0387806
0.0360646
0.0324287
0.0307862
0.026555
0.0243864
0.0214497
0.0184409
0.0167807
0.0141663
0.0128239
0.0117276
0.0103483
0.00992264
0.00915646
0.00878828
0.00837844
0.00786947
0.00784478
0.00785232
0.00792618
0.00829248
0.00860609
0.00911323
0.00983955
0.0102938
0.0107221
0.0107252
0.0106062
0.0102025
0.00976263
0.00862913
0.00786374
0.00661486
0.00562689
0.00464909
0.0038255
0.0030946
0.00256745
0.0020955
0.00172735
0.00150379
0.00124613
0.00117228
0.00102628
0.000997445
0.000924643
0.000922484
0.00089343
0.000909141
0.000898517
0.000936034
0.000948152
0.000978747
0.00106965
0.00114931
0.00133718
0.00155174
0.00206641
0.00283808
0.00438394
0.007245
0.0132133
0.0263911
0.0575755
0.123747
0.272736
0.355118
0.357369
0.347778
0.319896
0.260014
0.213665
0.179968
0.166608
0.163056
0.163832
0.165849
0.179936
0.209781
0.243541
0.255655
0.265902
0.265582
0.269621
0.245755
0.243893
0.246651
0.314126
0.347436
0.34872
0.289918
0.232932
0.178566
0.148715
0.125725
0.110237
0.101308
0.0934253
0.0885943
0.0890739
0.0895618
0.0925413
0.103203
0.108268
0.106449
0.100408
0.0899949
0.0762646
0.06653
0.0463428
0.0316819
0.0219229
0.0217754
0.0201104
0.02382
0.0262791
0.0320296
0.0746471
0.097384
0.145816
0.0267783
0.0260609
0.0250047
0.023793
0.0228932
0.0224842
0.0220809
0.0220346
0.0219222
0.0218422
0.0216993
0.0213264
0.0210316
0.0205686
0.0199868
0.0194115
0.0189322
0.0186174
0.0185694
0.0185625
0.0187304
0.0188705
0.0190394
0.0191596
0.0191808
0.0192431
0.0190032
0.0184227
0.0175194
0.0164735
0.0158046
0.0151425
0.0148052
0.0146778
0.0146687
0.0150118
0.0155055
0.0157307
0.0159878
0.0160017
0.0159551
0.0155118
0.0144752
0.0137461
0.0128168
0.0122503
0.0118778
0.0117569
0.0117717
0.0118598
0.0121024
0.0125546
0.0129684
0.0135274
0.0139954
0.0142358
0.0144952
0.0146243
0.0147006
0.0149217
0.015
0.0152207
0.0154595
0.0156705
0.0160909
0.0162144
0.0164464
0.0164081
0.0161921
0.0159996
0.015424
0.0148486
0.0143712
0.0133165
0.012877
0.0119935
0.0113674
0.010816
0.00984993
0.00944385
0.00867451
0.00796206
0.00734837
0.00655208
0.00590018
0.00524533
0.00454216
0.00404383
0.00349339
0.00310107
0.00285809
0.00257729
0.002468
0.00234211
0.00221803
0.0021505
0.00199357
0.00194417
0.00193878
0.00193787
0.00196259
0.00206818
0.00211565
0.00224978
0.00233544
0.00237893
0.00237928
0.00234421
0.00224862
0.00215387
0.00187465
0.001746
0.00148781
0.00133469
0.00114246
0.00101309
0.000896046
0.00083073
0.000762405
0.000750197
0.000738694
0.000751996
0.000754994
0.00076822
0.000773255
0.000787111
0.000796
0.000817331
0.000849088
0.000880492
0.00095909
0.00103067
0.00123339
0.00141548
0.00186491
0.00232036
0.00333907
0.00477782
0.00751208
0.0119229
0.0200805
0.0375639
0.0789762
0.179373
0.33799
0.397955
0.39504
0.366222
0.293322
0.206002
0.174345
0.157478
0.151741
0.149546
0.15013
0.150581
0.153738
0.160401
0.186365
0.228876
0.247945
0.262966
0.279278
0.26811
0.267015
0.272695
0.370986
0.407428
0.410189
0.314007
0.241551
0.213495
0.180932
0.145529
0.135991
0.110394
0.117721
0.114366
0.102484
0.0940175
0.0946839
0.0910778
0.0912781
0.0926821
0.098831
0.0979718
0.0925776
0.0863333
0.0751993
0.0693657
0.0605953
0.0364507
0.0319332
0.0232665
0.0225889
0.0239001
0.0253166
0.0470798
0.0611971
0.0947805
0.00293736
0.00290202
0.00281462
0.00269481
0.00260534
0.00255172
0.00252756
0.00253465
0.00254029
0.00256105
0.00257057
0.00256649
0.00255614
0.00249986
0.00242844
0.00234785
0.00230127
0.00227234
0.00226834
0.00227145
0.00232765
0.0024198
0.00251905
0.00261754
0.0026854
0.00274578
0.00276119
0.00274005
0.00260194
0.00237574
0.00219586
0.00202555
0.00191877
0.00187761
0.00187392
0.00198556
0.00216885
0.00232321
0.00245699
0.00251483
0.00253712
0.00252365
0.00236883
0.0022049
0.00199635
0.0018637
0.00176256
0.00172133
0.00172074
0.00174819
0.00186595
0.00199871
0.00214059
0.00233556
0.00243625
0.00253197
0.00257038
0.00259702
0.00260923
0.00263648
0.00264723
0.00270333
0.00275276
0.00285352
0.00296402
0.00308231
0.0031654
0.0031794
0.00315525
0.00311134
0.00301389
0.00284195
0.00275182
0.00254243
0.00238445
0.00227623
0.00209059
0.0020019
0.00185
0.00169609
0.00161493
0.00143689
0.00135367
0.00124022
0.00111499
0.00102806
0.000889224
0.000798894
0.000711056
0.000635525
0.000601767
0.000562853
0.00054708
0.000538564
0.000516809
0.000510232
0.000491826
0.000473605
0.000470587
0.000465295
0.000466819
0.00047235
0.000475827
0.00048251
0.000498235
0.000493252
0.000497157
0.000487319
0.00048269
0.000466723
0.000464201
0.000457422
0.000468015
0.000475058
0.000492417
0.000507542
0.00054509
0.000574824
0.000634722
0.000676048
0.000759555
0.000825783
0.000932341
0.00104038
0.00110584
0.00122552
0.0012939
0.00144209
0.00155126
0.00179372
0.00197523
0.00233774
0.00285149
0.00352779
0.00458211
0.00602994
0.00857265
0.0126826
0.0195359
0.0306322
0.0528385
0.103067
0.238576
0.394029
0.433535
0.422366
0.362758
0.23746
0.180783
0.161702
0.157755
0.153141
0.15497
0.154061
0.156301
0.156552
0.160604
0.164808
0.202256
0.229416
0.252121
0.263908
0.282269
0.269484
0.301264
0.356938
0.5202
0.414357
0.370285
0.256768
0.26696
0.230383
0.213551
0.164488
0.152569
0.124746
0.200982
0.194286
0.158321
0.120566
0.131357
0.1168
0.0983127
0.0924725
0.0914675
0.0920036
0.089749
0.0913131
0.0870917
0.0808927
0.0818928
0.0665562
0.0590899
0.0358055
0.0274745
0.0249719
0.025298
0.0303601
0.0403659
0.0650342
0.000240931
0.000244267
0.000247695
0.000254106
0.000256683
0.000259656
0.000262334
0.000266906
0.000269378
0.000271112
0.000271475
0.000269453
0.00026338
0.000254424
0.000247976
0.000245129
0.000244528
0.000245006
0.000246413
0.000247209
0.000249593
0.000259379
0.000282299
0.000305988
0.000327815
0.000342339
0.000347996
0.000344066
0.000329478
0.000305088
0.000289618
0.000273853
0.000259271
0.000249659
0.000239786
0.000236074
0.000235734
0.000245308
0.000267633
0.0002843
0.000297965
0.000304732
0.000305876
0.000301194
0.000288804
0.000273452
0.000265545
0.000254121
0.000251728
0.000249033
0.000250074
0.000252992
0.000260179
0.000275669
0.000281779
0.000294028
0.000297138
0.000301602
0.000304021
0.000309069
0.00031576
0.00032179
0.000347078
0.000359524
0.000381223
0.000406114
0.000416398
0.000425859
0.000421969
0.000418893
0.000406785
0.000389455
0.000378927
0.000349286
0.000334522
0.000324243
0.000302189
0.000295027
0.000279169
0.000271853
0.000261584
0.000252968
0.000250185
0.000244067
0.000243623
0.000240241
0.000239298
0.000239763
0.000240414
0.000247337
0.000251287
0.000258976
0.000267166
0.000269446
0.000278996
0.000282082
0.000284337
0.000284756
0.000283766
0.000281434
0.000274017
0.00027339
0.000271785
0.00027288
0.000275483
0.000278994
0.000286959
0.000298557
0.000311042
0.000332056
0.000360253
0.000408033
0.000447048
0.000559679
0.00064276
0.000793771
0.000963604
0.00124232
0.00140557
0.00169289
0.00199104
0.00220239
0.00260505
0.00279785
0.00313324
0.00332915
0.0036176
0.00381265
0.00432137
0.00467514
0.00529044
0.00612426
0.00704646
0.00917107
0.0110289
0.0155745
0.0207992
0.0309946
0.0466138
0.0768814
0.135964
0.298308
0.443235
0.474477
0.443689
0.322021
0.216109
0.170902
0.155566
0.155953
0.160602
0.162464
0.166757
0.168411
0.174371
0.174389
0.177318
0.184001
0.220136
0.233504
0.26284
0.266867
0.279092
0.288683
0.399936
0.492695
0.480213
0.315396
0.290023
0.275145
0.272622
0.231128
0.209847
0.168209
0.14638
0.142274
0.269423
0.291665
0.262598
0.185594
0.247066
0.192147
0.147125
0.108521
0.0937971
0.095901
0.092859
0.0931551
0.0916344
0.0855166
0.0841046
0.0747616
0.0712323
0.061933
0.0457322
0.0321867
0.0271144
0.0276009
0.0296794
0.041077
9.07628e-05
9.18144e-05
9.44507e-05
9.78633e-05
9.79824e-05
9.76068e-05
9.75128e-05
9.76876e-05
9.83861e-05
9.88666e-05
9.9295e-05
9.96645e-05
0.000101193
0.000103517
0.000105749
0.000106841
0.000106896
0.0001055
0.000103563
0.000102892
0.00010328
0.000105179
0.000106715
0.000106808
0.000105694
0.000104409
0.000104404
0.000108048
0.000114611
0.000119265
0.000121459
0.000121438
0.000118439
0.000114737
0.000112497
0.000111624
0.000111621
0.000112061
0.000112137
0.000111341
0.000110115
0.000109058
0.000108155
0.000107968
0.000107711
0.000107784
0.000108163
0.000109341
0.000109571
0.000110187
0.000110196
0.0001102
0.000110415
0.000110327
0.000110455
0.000110455
0.000110314
0.000110394
0.000110373
0.000110402
0.000110943
0.000111036
0.000112506
0.000112952
0.000114642
0.000115004
0.00011609
0.000116477
0.000117352
0.000117777
0.000118463
0.000121137
0.000122784
0.000125331
0.000129064
0.000131913
0.000138873
0.000144887
0.000152167
0.000164685
0.000172459
0.00018458
0.000201169
0.000210879
0.000231957
0.000247798
0.000280094
0.000317415
0.00034063
0.000406439
0.000442529
0.000476691
0.000527476
0.000539244
0.000568064
0.00059019
0.000617013
0.000641896
0.000638192
0.000639193
0.000636987
0.000635736
0.000639904
0.000647989
0.000669659
0.000693192
0.000752889
0.000802885
0.000909802
0.00100145
0.00119339
0.00140949
0.00164682
0.00214748
0.00253253
0.00306667
0.00374859
0.00445582
0.0050228
0.00583284
0.00633202
0.00705897
0.00755353
0.00818624
0.00858123
0.00900791
0.00960525
0.0100364
0.0107689
0.0117092
0.0127641
0.0150513
0.0170824
0.0216775
0.0268896
0.0362963
0.0506751
0.0714778
0.115028
0.187194
0.362976
0.476826
0.50148
0.44212
0.276078
0.209489
0.171358
0.150129
0.150276
0.1527
0.15851
0.160492
0.163474
0.16801
0.178126
0.182553
0.203692
0.217181
0.234305
0.239057
0.26303
0.260509
0.282378
0.355701
0.486464
0.506547
0.33188
0.273986
0.284425
0.274734
0.241586
0.218321
0.177903
0.163421
0.119452
0.151816
0.220813
0.324896
0.264226
0.224431
0.491631
0.342669
0.325516
0.186099
0.110159
0.104161
0.101897
0.102104
0.101585
0.0907564
0.0894118
0.0805229
0.0783265
0.070864
0.0679504
0.0575405
0.0402225
0.0313253
0.0298704
0.0312895
8.6746e-05
8.77201e-05
9.02902e-05
9.41411e-05
9.784e-05
0.000102093
0.000104494
0.000106272
0.0001063
0.00010536
0.000104466
0.000103841
0.000103604
0.000103493
0.000103133
0.000102981
0.000102997
0.000104378
0.000109148
0.000114899
0.000119463
0.000121491
0.000122592
0.000122086
0.00012185
0.000121704
0.000121906
0.000124817
0.000126387
0.000128999
0.000131508
0.000135647
0.000142372
0.00014704
0.000153132
0.000156147
0.000157508
0.000158175
0.000156255
0.000155394
0.000154009
0.00015316
0.000155151
0.000156849
0.000166013
0.000171285
0.000180868
0.000188471
0.000189912
0.000195717
0.000196716
0.000197185
0.000197423
0.000195915
0.000195646
0.000193022
0.000190216
0.00018682
0.000179152
0.000176647
0.000171412
0.000169049
0.000166762
0.000162355
0.000162228
0.000160337
0.000161775
0.000164681
0.000170972
0.000191466
0.00020458
0.000236525
0.000270878
0.000289984
0.000331856
0.00036333
0.00040534
0.000463951
0.000494689
0.000562146
0.00061736
0.000682727
0.000789972
0.000845932
0.000983793
0.00109718
0.00123735
0.00145966
0.00155733
0.00180467
0.00193809
0.00205958
0.00222528
0.00226274
0.00235922
0.00240118
0.00244868
0.00250318
0.00249675
0.00251
0.00251937
0.00253118
0.0025654
0.00263092
0.00271262
0.0028449
0.00310028
0.00329563
0.00377076
0.00421983
0.00491747
0.00586777
0.00671771
0.00830171
0.00953362
0.0111622
0.0128589
0.0145393
0.0160452
0.0174974
0.0187195
0.0196883
0.0207686
0.0213763
0.0221388
0.0226664
0.0234431
0.0243928
0.0255298
0.0279426
0.030014
0.0353961
0.0409216
0.0503643
0.0642401
0.0824531
0.119162
0.166654
0.285493
0.402996
0.499088
0.508973
0.399313
0.244849
0.20362
0.183409
0.158168
0.14125
0.135386
0.133821
0.134072
0.139341
0.15512
0.16248
0.173226
0.182225
0.202552
0.213726
0.234919
0.239006
0.253371
0.259992
0.307297
0.419107
0.491331
0.389556
0.259131
0.258751
0.258628
0.223142
0.232149
0.204565
0.173184
0.153106
0.162853
0.19235
0.347413
0.306215
0.236883
0.374715
0.532882
0.463221
0.563318
0.433286
0.208857
0.129259
0.124605
0.107775
0.122836
0.102488
0.105053
0.0936163
0.0904099
0.0800274
0.0742991
0.0667249
0.0615939
0.0509017
0.0379501
0.0330155
0.000203332
0.000205374
0.000215337
0.000226107
0.00025918
0.000279186
0.000305417
0.000326259
0.000335428
0.000343794
0.000344945
0.000345012
0.000344257
0.000345047
0.00034889
0.000364003
0.00040062
0.000437391
0.000480499
0.000514853
0.000539867
0.00055148
0.000560049
0.000561964
0.00056448
0.000573206
0.000586052
0.000631922
0.00066152
0.00070753
0.000753226
0.000777704
0.000817617
0.000831485
0.000851993
0.000862662
0.000866139
0.000881383
0.000884726
0.000900962
0.000919538
0.00094975
0.00100511
0.00101846
0.00105394
0.0010643
0.00107357
0.00109808
0.00109604
0.00113666
0.00115302
0.00116558
0.0011702
0.00115922
0.00115691
0.00113275
0.00111087
0.00108367
0.00105339
0.00105121
0.00103844
0.00104148
0.00103819
0.00102219
0.0010271
0.00101972
0.00103837
0.0010608
0.00111217
0.00124771
0.0013205
0.0015153
0.00168309
0.00178492
0.00201821
0.002143
0.00237447
0.00261149
0.0027438
0.0030821
0.00331392
0.00363099
0.00408143
0.00432449
0.00497531
0.00537983
0.00587655
0.00656618
0.00685722
0.00756085
0.00788261
0.00817373
0.00855703
0.00862787
0.00882981
0.00889304
0.00890676
0.00895002
0.00891318
0.008927
0.00895867
0.00901804
0.00915335
0.00944916
0.00978089
0.0103061
0.0113481
0.0120958
0.013864
0.0155704
0.0178441
0.0213819
0.0236869
0.0282931
0.0316625
0.0358756
0.0397931
0.0433648
0.0465312
0.0489324
0.0510613
0.0520605
0.0534113
0.0538885
0.054458
0.0551455
0.0561068
0.0575266
0.0598076
0.0650052
0.069973
0.0807161
0.0937502
0.111091
0.144407
0.180908
0.26555
0.367697
0.435109
0.495891
0.487118
0.342741
0.199248
0.192041
0.190213
0.17555
0.150722
0.136286
0.129638
0.128672
0.12995
0.135887
0.155451
0.166815
0.175201
0.183774
0.203701
0.217201
0.229021
0.225752
0.235623
0.267492
0.358216
0.413624
0.426011
0.301008
0.248048
0.228572
0.204593
0.197713
0.204246
0.232203
0.238124
0.217572
0.265697
0.339965
0.352968
0.282807
0.280859
0.462228
0.41535
0.537126
0.649263
0.437385
0.414435
0.194315
0.283877
0.154587
0.32406
0.175392
0.190257
0.146279
0.137866
0.113135
0.0936333
0.0772863
0.0692526
0.0588724
0.0548682
0.0432151
0.0026076
0.0026088
0.00269501
0.00283177
0.00314316
0.00327711
0.00351793
0.00366248
0.0037509
0.00380394
0.00379266
0.00378587
0.00375693
0.0037568
0.0037849
0.00386386
0.00423223
0.00450678
0.00492282
0.00522376
0.00544518
0.00562716
0.00568843
0.00574187
0.00578507
0.00580939
0.00585074
0.0059413
0.0060409
0.0061295
0.006296
0.00637253
0.00650037
0.00657848
0.00665948
0.00679745
0.0068951
0.00711545
0.00723236
0.00743695
0.00752405
0.00761971
0.00766867
0.00764436
0.00764698
0.00759102
0.00757072
0.00756678
0.00754176
0.0076546
0.0076636
0.00768196
0.00768384
0.00760862
0.00759325
0.00749024
0.00741293
0.00732701
0.00720373
0.00720011
0.00711067
0.00710519
0.00706829
0.00699694
0.00701308
0.00699951
0.00708998
0.00719623
0.0073953
0.00787479
0.00811958
0.00872825
0.00926672
0.00965107
0.0104494
0.0108593
0.0116019
0.0124088
0.0128867
0.0141192
0.0149003
0.0160138
0.017477
0.0182649
0.0202643
0.0212949
0.0226163
0.0242735
0.0249288
0.0264483
0.0271042
0.0276055
0.0283424
0.0284287
0.0286823
0.028669
0.0284917
0.0285114
0.0284264
0.0284844
0.0286649
0.0290603
0.0296611
0.030834
0.0323446
0.034353
0.0379359
0.0407026
0.0470691
0.0521877
0.0590673
0.0687121
0.0753334
0.0856239
0.0944525
0.102398
0.111462
0.116379
0.121924
0.125546
0.127049
0.127253
0.126986
0.126102
0.125749
0.125986
0.126884
0.129516
0.133338
0.143379
0.152909
0.169644