/*--------------------------------*- C++ -*----------------------------------*\
| =========                 |                                                 |
| \\      /  F ield         | OpenFOAM: The Open Source CFD Toolbox           |
|  \\    /   O peration     | Version:  2.4.0                                 |
|   \\  /    A nd           | Web:      www.OpenFOAM.org                      |
|    \\/     M anipulation  |                                                 |
\*---------------------------------------------------------------------------*/
FoamFile
{
    version     2.0;
    format      ascii;
    class       volScalarField;
    location    "1.33";
    object      p;
}
// * * * * * * * * * * * * * * * * * * * * * * * * * * * * * * * * * * * * * //

dimensions      [0 2 -2 0 0 0 0];

internalField   nonuniform List<scalar> 
8800
(
89.4278
77.0673
69.6641
66.1467
64.2397
62.8604
61.646
60.5505
59.5257
58.558
57.614
56.6849
55.7754
54.935
54.0504
53.2499
52.4901
51.7727
50.978
50.2919
86.3179
76.7125
69.8336
66.2612
64.2995
62.8852
61.6536
60.5507
59.5244
58.5552
57.6118
56.6823
55.7726
54.9342
54.0501
53.2463
52.4949
51.7671
50.9726
50.2449
84.3528
76.7849
70.4392
66.6359
64.4693
62.9632
61.6996
60.5828
59.5484
58.5718
57.6239
56.6859
55.7741
54.9329
54.0509
53.2418
52.509
51.7679
50.9925
50.2588
82.819
76.8413
71.0312
67.0596
64.6536
63.0462
61.7634
60.6382
59.6006
58.6063
57.6545
56.7015
55.7879
54.9341
54.0595
53.2372
52.5384
51.7991
51.1396
50.3158
81.5633
76.8128
71.5179
67.4625
64.8302
63.109
61.8126
60.6907
59.6571
58.6641
57.6937
56.724
55.8082
54.932
54.069
53.2383
52.5665
51.8571
51.2805
50.3777
80.5788
76.7098
71.8944
67.8119
64.9785
63.1498
61.8469
60.7328
59.716
58.7013
57.7441
56.748
55.8294
54.9332
54.0765
53.2331
52.574
51.8952
51.3976
50.4491
79.8181
76.6009
72.1652
68.0893
65.1261
63.1671
61.8603
60.7573
59.762
58.7526
57.7698
56.773
55.8399
54.9302
54.0768
53.2382
52.548
51.8822
51.4692
50.9132
79.268
76.5018
72.3477
68.3081
65.2418
63.1918
61.8483
60.787
59.7847
58.7802
57.7933
56.7991
55.8441
54.9396
54.0589
53.237
52.5037
51.8241
51.2355
51.4098
78.905
76.4335
72.4549
68.4541
65.3334
63.207
61.8354
60.7999
59.8116
58.8081
57.8058
56.8158
55.8489
54.9385
54.0541
53.2323
52.459
51.7902
51.3024
51.9164
78.7296
76.3923
72.5085
68.5316
65.3783
63.2135
61.8279
60.8123
59.8196
58.8168
57.8132
56.8231
55.856
54.9344
54.0527
53.2198
52.4503
51.7757
51.3608
52.0158
78.7259
76.3979
72.5024
68.5349
65.379
63.2189
61.8221
60.8106
59.8253
58.8181
57.8116
56.8262
55.8561
54.9357
54.0475
53.2203
52.4465
51.7667
51.3912
52.1201
78.8975
76.441
72.4471
68.4611
65.3367
63.2106
61.8294
60.8066
59.8118
58.8075
57.8007
56.8248
55.8601
54.9296
54.0577
53.2281
52.4407
51.7818
51.4078
52.1625
79.256
76.5178
72.3297
68.3163
65.2495
63.205
61.8337
60.7875
59.7951
58.7845
57.784
56.818
55.8539
54.9338
54.0627
53.2349
52.4586
51.7775
51.4022
52.131
79.8011
76.6208
72.1469
68.1002
65.126
63.1831
61.8455
60.7681
59.7613
58.7536
57.7536
56.8037
55.855
54.9294
54.0728
53.2611
52.4629
51.797
51.3967
51.9988
80.5631
76.7311
71.8786
67.8144
64.9832
63.1618
61.8369
60.7282
59.7253
58.7102
57.7205
56.7863
55.8421
54.9274
54.0895
53.2767
52.4993
51.8345
51.3731
51.7655
81.5427
76.8313
71.5126
67.4627
64.831
63.1134
61.8144
60.6861
59.6753
58.6604
57.6781
56.76
55.838
54.9185
54.0974
53.306
52.5371
51.8696
51.4024
51.4691
82.7958
76.8581
71.0325
67.0546
64.6601
63.0507
61.7669
60.6251
59.623
58.6102
57.6395
56.7376
55.8277
54.9076
54.1107
53.3209
52.5752
51.918
51.4541
51.1763
84.3306
76.7943
70.4477
66.6306
64.4766
62.9621
61.7056
60.5716
59.5758
58.5708
57.6122
56.7184
55.8215
54.9047
54.1174
53.3322
52.6061
51.9519
51.5112
51.0353
86.2987
76.7165
69.8442
66.254
64.309
62.8837
61.6605
60.5397
59.5507
58.5535
57.603
56.7128
55.8209
54.9085
54.1227
53.3404
52.6205
51.9736
51.5004
50.962
89.4122
77.0695
69.6747
66.1402
64.25
62.8579
61.6527
60.5404
59.5517
58.5555
57.6076
56.7141
55.8222
54.9124
54.1257
53.3424
52.6244
51.9796
51.4982
51.0839
50.2576
50.244
50.218
50.1862
50.16
50.1369
50.1304
50.1333
50.1216
50.107
50.0924
50.1013
50.1313
50.1657
50.1907
50.1874
50.1437
50.0705
49.9822
49.9103
49.8742
49.8771
49.9127
49.9628
50.0117
50.0284
49.998
49.9082
49.7498
49.5345
49.2762
49.0081
48.7649
48.5669
48.4565
48.4422
48.4986
48.6162
48.7871
48.9828
49.1808
49.3643
49.5416
49.7096
49.8639
50.0112
50.1471
50.2816
50.4186
50.553
50.6714
50.7438
50.7525
50.6739
50.5031
50.2254
49.809
49.2895
48.7263
48.134
47.516
46.8878
46.2298
45.5505
44.8525
44.162
43.5319
43.04
42.7939
42.8242
43.0962
43.5449
44.0196
44.4767
44.8436
45.1102
45.3308
45.4172
45.4532
45.4172
45.3487
45.3075
45.294
45.3564
45.5968
45.8501
46.3423
46.8572
47.3518
47.9723
48.3647
48.7762
48.9551
48.9761
48.9237
48.7192
48.4844
48.3557
48.2574
48.2315
48.2098
47.8734
47.4494
46.6389
45.6181
44.8088
43.745
43.1431
42.6761
42.2773
42.4158
42.3237
42.3729
42.8145
42.8152
43.13
43.6043
43.5554
43.8466
44.1416
44.0819
44.1151
44.223
43.9702
43.9862
43.9425
43.7207
43.7344
43.6636
43.592
43.7589
43.8608
43.9295
44.2514
44.6555
44.8122
45.1991
45.7515
45.9661
46.0018
46.2422
46.3066
45.8184
45.1641
44.5097
43.4744
41.847
40.1363
38.5504
36.5695
34.6047
32.9492
31.7648
30.9263
30.5466
30.7211
31.6809
33.3123
35.8647
39.4513
43.8766
48.7909
53.6504
57.9399
61.5556
64.0232
65.6398
66.5298
66.8183
66.4307
65.7995
64.7572
63.6871
62.5571
61.4276
60.5143
59.8
59.4841
59.2035
59.0584
59.3502
59.8421
60.3273
60.7821
61.4409
62.1073
62.4197
62.7721
63.2134
63.3304
63.2681
63.2308
62.5826
61.9039
60.6643
58.4423
55.3837
50.5432
43.7477
19.1949
50.0066
49.9654
50.0112
50.0963
50.1649
50.1745
50.1573
50.1329
50.0892
50.0655
50.0527
50.0677
50.1139
50.1535
50.1866
50.1891
50.1525
50.0917
50.0116
49.9425
49.8982
49.8871
49.9087
49.9405
49.9755
49.9778
49.9418
49.8578
49.7016
49.5086
49.2755
49.0285
48.816
48.6349
48.5286
48.5031
48.5461
48.6509
48.7952
48.9693
49.1603
49.3384
49.5126
49.6842
49.8375
49.9919
50.1317
50.2628
50.3948
50.5102
50.609
50.6676
50.6522
50.572
50.3918
50.1205
49.7459
49.2531
48.7123
48.1257
47.5315
46.9128
46.2659
45.6259
44.9508
44.3249
43.7559
43.3008
43.0827
43.0808
43.2988
43.7128
44.1016
44.5265
44.8621
45.0521
45.2878
45.3049
45.338
45.3432
45.2022
45.2303
45.2017
45.2455
45.5502
45.7412
46.2376
46.7684
47.2
47.8873
48.2768
48.6805
48.997
49.0404
49.0678
48.9477
48.7223
48.6099
48.4681
48.349
48.3183
47.8436
47.4118
46.6677
45.6543
44.9358
43.9089
43.268
42.9119
42.3442
42.4894
42.502
42.3626
42.8302
43.013
43.1553
43.6575
43.8307
44.0724
44.3599
44.4066
44.5408
44.6479
44.5684
44.6729
44.7209
44.5975
44.7399
44.7921
44.7652
45.054
45.3161
45.3834
45.7319
46.2871
46.5154
46.7877
47.365
47.5517
47.5317
47.5113
47.4296
46.9372
45.9496
44.8795
43.6782
41.6541
39.509
37.3701
35.0227
32.6528
30.4571
28.8927
27.7213
27.0318
26.902
27.6064
29.2408
31.7965
35.4598
40.409
46.1229
51.72
56.6665
60.7953
63.6849
65.4619
66.2458
66.493
65.8311
64.8039
63.4346
61.881
60.3455
58.7874
57.5876
56.6841
56.0295
55.796
55.8341
56.1009
56.5178
57.1141
57.674
58.6219
59.4075
60.0324
60.6527
61.07
61.2586
61.3127
61.0852
60.1521
59.1255
57.2499
54.2693
50.4366
42.4261
34.366
11.7446
50.0789
49.9971
50.0226
50.1417
50.2528
50.2603
50.2027
50.1234
50.0301
49.995
49.983
50.0124
50.0831
50.1332
50.1808
50.1929
50.1628
50.1121
50.035
49.9659
49.9137
49.8864
49.8922
49.902
49.9228
49.9076
49.8656
49.7858
49.6416
49.4791
49.2769
49.0593
48.8782
48.7163
48.6171
48.5878
48.6107
48.7034
48.8256
48.9761
49.1536
49.3185
49.4869
49.6543
49.8017
49.9532
50.0925
50.2122
50.3349
50.427
50.5031
50.5422
50.5033
50.4238
50.2399
49.9758
49.6408
49.1796
48.6832
48.1211
47.5384
46.9644
46.3319
45.7365
45.1145
44.5282
44.0344
43.6106
43.4034
43.3818
43.5155
43.8934
44.2023
44.5767
44.9188
45.0085
45.2706
45.2508
45.2321
45.3466
45.1233
45.2159
45.227
45.2098
45.6005
45.7493
46.2268
46.738
47.1278
47.8021
48.1216
48.5912
48.913
48.9342
49.1193
49.0018
48.8517
48.7894
48.542
48.3891
48.2067
47.7418
47.3162
46.6617
45.7154
45.0984
44.2032
43.5306
43.2311
42.744
42.7634
42.7911
42.7355
43.0656
43.2321
43.4507
43.9323
44.0843
44.3772
44.7001
44.7512
45.0324
45.1885
45.1472
45.3879
45.5506
45.4742
45.7233
45.9714
45.9705
46.3024
46.8116
46.9835
47.2741
47.8797
48.2293
48.4259
48.8869
49.1475
49.0811
48.8464
48.5848
48.0269
46.8203
45.444
43.8184
41.5264
38.9326
36.1614
33.3568
30.504
27.8539
25.845
24.2847
23.226
22.9033
23.2571
24.5483
26.9947
30.882
36.139
42.6962
49.277
55.2536
60.1475
63.546
65.6557
66.7678
66.4784
65.5023
64.0206
62.1491
60.0702
57.9364
56.0549
54.558
53.4982
52.6393
52.1187
52.3918
52.8712
53.276
53.961
54.7941
55.6577
56.537
57.5421
58.4979
59.1704
59.4152
59.4848
58.9549
57.7423
56.4701
54.263
50.1537
46.3282
36.5261
26.6021
10.8328
49.3907
49.4652
50.0162
50.4352
50.5875
50.4784
50.2684
50.0806
49.9285
49.8936
49.8982
49.9533
50.0613
50.1277
50.1902
50.2061
50.1737
50.1263
50.042
49.9701
49.9131
49.8728
49.8705
49.8544
49.8679
49.8395
49.7928
49.7286
49.5953
49.4637
49.2857
49.1018
48.9516
48.8049
48.7176
48.6882
48.69
48.7722
48.8728
48.999
49.1619
49.3035
49.4626
49.6179
49.7529
49.8942
50.0226
50.1264
50.2351
50.3031
50.3509
50.3711
50.3173
50.2332
50.0523
49.8079
49.4977
49.0835
48.6355
48.1119
47.5711
47.0346
46.4411
45.9019
45.3353
44.799
44.3776
43.9712
43.7832
43.7415
43.791
44.1299
44.3564
44.665
45.0211
45.0279
45.2891
45.2842
45.1987
45.4087
45.161
45.2731
45.3588
45.2825
45.7345
45.8467
46.2649
46.7768
47.0458
47.7136
47.9843
48.4182
48.7691
48.7741
49.0623
48.9172
48.8386
48.8184
48.452
48.3938
48.1615
47.6306
47.3869
46.6769
45.8775
45.3964
44.5297
44.0065
43.7607
43.2673
43.3029
43.3333
43.2449
43.5372
43.675
43.9411
44.3283
44.4424
44.8073
45.1635
45.1561
45.466
45.7356
45.7283
46.014
46.368
46.4115
46.6919
47.139
47.2567
47.589
48.2203
48.5483
48.8045
49.3922
49.8399
50.0566
50.385
50.6968
50.6575
50.263
49.8782
49.2112
47.9064
46.2692
44.214
41.5766
38.4769
35.0972
31.6599
28.3691
25.3682
22.9681
21.1341
19.8476
19.2857
19.2757
20.2368
22.2915
26.1866
31.861
38.9572
46.5513
53.699
59.565
63.6091
66.0494
67.0387
66.6018
65.3453
63.3835
60.7626
58.1635
55.3624
52.905
51.2144
49.8204
48.9289
48.444
48.5541
49.1519
49.9448
50.7459
51.7948
52.9163
54.0337
55.2374
56.289
57.216
57.7004
57.7683
57.2492
56.0397
54.0975
52.1969
46.63
42.8088
33.3381
22.2705
11.0999
49.1509
49.401
50.3743
50.8827
50.9604
50.6936
50.3048
49.9953
49.7868
49.7516
49.7857
49.8761
50.0129
50.0985
50.179
50.193
50.1682
50.1341
50.0498
49.9786
49.9138
49.86
49.8424
49.796
49.7904
49.7581
49.6972
49.6476
49.5242
49.4303
49.288
49.1402
49.0255
48.8996
48.8335
48.8018
48.7902
48.857
48.9348
49.0338
49.1763
49.2889
49.4309
49.5635
49.6777
49.8044
49.9098
49.9936
50.0918
50.1271
50.162
50.1672
50.1007
50.0245
49.8391
49.6267
49.3455
48.9661
48.5858
48.0976
47.6215
47.1277
46.5859
46.1247
45.6004
45.1446
44.7719
44.3845
44.2237
44.1334
44.1397
44.4092
44.5613
44.8389
45.1319
45.1491
45.3762
45.3664
45.3159
45.48
45.3151
45.4328
45.5006
45.4963
45.8936
45.9703
46.3919
46.8046
47.0015
47.6787
47.8204
48.2119
48.6292
48.4969
48.8893
48.7739
48.6219
48.7939
48.341
48.2802
48.1766
47.556
47.4041
46.8575
46.068
45.7292
45.0387
44.5806
44.346
43.9834
43.9566
43.9904
43.8734
44.1687
44.2758
44.3769
44.8117
44.9151
45.1778
45.5928
45.6186
45.8894
46.3128
46.3972
46.6987
47.1744
47.3726
47.6478
48.1756
48.5172
48.7899
49.4683
49.9655
50.2943
50.8413
51.3583
51.6808
51.8847
52.2184
52.2212
51.8202
51.4076
50.6041
49.2523
47.4208
44.8876
41.8692
38.275
34.2904
30.3184
26.6444
23.2731
20.7192
18.652
17.2567
16.5963
16.404
17.0363
18.7969
22.6254
28.2576
35.8508
44.1632
52.1031
58.9972
63.8164
66.7227
68.2572
67.0075
65.2529
62.5595
59.2929
55.9184
52.4609
49.6119
47.7116
46.2462
45.0244
44.6204
44.7836
45.2813
46.2149
47.3199
48.6473
50.1102
51.555
53.1102
54.5365
55.5739
56.275
56.3494
55.7042
54.9901
51.7563
50.4755
44.7376
39.863
32.1303
21.6588
12.7966
49.2034
49.5678
50.6166
51.0925
51.0728
50.7265
50.2525
49.8912
49.6847
49.6635
49.756
49.8822
50.0117
50.1194
50.1997
50.2031
50.1748
50.1246
50.0335
49.9512
49.8776
49.8216
49.7979
49.7468
49.7328
49.7206
49.6515
49.5983
49.5085
49.4192
49.3023
49.1908
49.0771
48.9851
48.9313
48.885
48.8861
48.9155
48.9941
49.0669
49.1849
49.2907
49.3982
49.5225
49.608
49.7168
49.798
49.8515
49.9392
49.9449
49.9539
49.9642
49.8819
49.8037
49.6381
49.437
49.1997
48.8491
48.5301
48.1013
47.6738
47.2625
46.7469
46.383
45.9129
45.4893
45.2149
44.8052
44.6732
44.5876
44.4908
44.7455
44.8237
45.0415
45.3131
45.3029
45.5258
45.5207
45.4745
45.6304
45.5145
45.6234
45.7104
45.7127
46.063
46.1331
46.48
46.8682
46.9953
47.593
47.7161
47.9948
48.456
48.2811
48.6386
48.6677
48.4087
48.7005
48.3032
48.1368
48.2055
47.5783
47.411
47.0595
46.3266
46.0886
45.601
45.1248
45.0208
44.6479
44.6016
44.6471
44.5188
44.7174
44.7949
44.8275
45.2226
45.3658
45.514
46.0137
46.1504
46.3219
46.8704
47.0862
47.355
47.9169
48.2908
48.5759
49.1831
49.6895
50.0407
50.6786
51.3126
51.7351
52.2192
52.8311
53.2508
53.5004
53.7981
53.8794
53.6344
53.1995
52.341
50.9112
48.8668
45.9348
42.5002
38.4522
33.9695
29.6288
25.4951
21.7562
18.9755
16.7546
15.3911
14.56
14.2496
14.7817
16.5169
19.9768
25.5066
33.3477
42.3228
50.9008
58.5996
63.8536
67.0368
68.2737
66.8539
64.8966
61.2846
57.5261
53.5049
49.4429
46.6856
44.6214
43.2701
42.0396
41.3884
41.4525
41.9121
42.8574
44.0818
45.3583
47.182
49.2557
51.1986
53.177
54.3874
55.0405
55.7519
54.1484
54.1631
50.3277
48.5436
43.813
38.2222
32.1649
23.4182
15.5907
49.9208
50.0792
50.6161
50.7238
50.5363
50.261
49.9336
49.7258
49.6344
49.6606
49.8063
49.9395
50.0309
50.1313
50.1929
50.1805
50.1627
50.1047
50.0179
49.9389
49.8613
49.81
49.7685
49.7064
49.6683
49.6625
49.593
49.5272
49.4868
49.3911
49.3123
49.2342
49.1199
49.0683
49.0246
48.9651
48.9842
48.9848
49.0474
49.1093
49.1793
49.2824
49.3478
49.4568
49.5217
49.6055
49.6751
49.7044
49.7812
49.7765
49.764
49.7782
49.6865
49.5947
49.4718
49.2731
49.0718
48.7738
48.4715
48.1321
47.7419
47.3885
46.9477
46.6063
46.2387
45.8244
45.6117
45.2508
45.0706
45.0336
44.8688
45.0608
45.1337
45.2514
45.5088
45.4895
45.6754
45.7101
45.6423
45.8045
45.7184
45.8055
45.9091
45.8925
46.2011
46.2694
46.5292
46.9141
46.996
47.465
47.6538
47.8008
48.2689
48.1614
48.3835
48.5922
48.2869
48.5387
48.3753
48.0492
48.2275
47.7456
47.4353
47.3018
46.6603
46.4404
46.1073
45.6661
45.5917
45.2528
45.1504
45.2182
45.0418
45.125
45.2626
45.2518
45.5425
45.7652
45.9098
46.3565
46.6287
46.8111
47.333
47.743
48.0046
48.6519
49.1637
49.5306
50.1485
50.7576
51.2538
51.8524
52.5724
53.0977
53.624
54.2853
54.7976
55.2129
55.5373
55.6971
55.6213
55.1994
54.3158
52.8041
50.4902
47.3538
43.3791
38.8563
33.9852
29.1064
24.666
20.5391
17.2874
15.0608
13.7064
12.8228
12.5525
13.0371
14.7104
18.1878
23.7964
31.7867
41.0148
49.9892
57.9724
63.3751
66.8142
67.6755
66.3445
64.0329
59.9288
55.6614
50.8469
46.8881
44.1634
42.2234
41.2982
39.756
38.8485
38.9632
39.7654
40.0759
40.8063
42.3285
44.5303
47.0942
49.5583
51.9581
53.8501
54.0026
55.5942
53.2026
53.1641
50.1088
47.1707
43.4378
37.9915
33.3404
26.5874
19.7183
52.3597
51.9092
50.7983
49.9204
49.3871
49.2625
49.2888
49.4394
49.5865
49.7063
49.9122
50.0501
50.103
50.1688
50.1884
50.1523
50.1303
50.0584
49.9664
49.8913
49.8109
49.7657
49.7201
49.6584
49.6277
49.6412
49.5665
49.5049
49.4863
49.3878
49.3277
49.2572
49.1486
49.1134
49.0727
49.015
49.0319
49.0264
49.0666
49.1346
49.1721
49.2737
49.3213
49.4012
49.4698
49.5157
49.5701
49.5894
49.6342
49.6222
49.5877
49.6058
49.5137
49.4241
49.3196
49.1366
48.9741
48.7005
48.4423
48.1711
47.8107
47.5211
47.1402
46.8233
46.5297
46.1335
45.9575
45.6455
45.4425
45.4188
45.2499
45.3618
45.4411
45.4875
45.7026
45.7001
45.827
45.9001
45.8153
45.9635
45.9107
45.9553
46.0609
46.0286
46.2893
46.3629
46.554
46.9136
46.99
47.3626
47.5859
47.6861
48.0959
48.089
48.2078
48.4792
48.2457
48.4078
48.4266
48.0807
48.2316
47.9397
47.5722
47.5344
47.0452
46.7822
46.56
46.1582
46.0261
45.799
45.5954
45.6547
45.4987
45.5036
45.686
45.6374
45.8589
46.1395
46.2685
46.6656
47.0602
47.2999
47.7876
48.3226
48.7074
49.3005
49.982
50.4425
51.0433
51.7953
52.3658
53.0255
53.7653
54.4433
55.0529
55.6903
56.3768
56.8954
57.3365
57.5793
57.5964
57.2989
56.3542
54.782
52.3054
48.8693
44.4637
39.2417
33.8546
28.526
23.5839
19.1843
15.5655
13.1511
11.9602
11.1984
10.9903
11.5666
13.4779
17.1101
22.8759
30.9029
40.0289
49.2403
56.9922
62.7606
65.987
66.4866
65.2298
62.5413
58.6137
54.0041
48.479
44.8042
42.0755
40.7159
40.7777
38.2877
36.754
37.717
39.1236
37.8359
37.7984
39.3664
42.0336
45.3516
49.0187
51.0794
53.6924
53.2295
55.0179
53.1426
52.3185
50.3602
46.9755
43.8432
39.0901
35.0667
29.6485
23.9956
53.2037
52.6117
50.908
49.5401
48.7725
48.6526
48.8737
49.2718
49.5778
49.7742
50.0264
50.1784
50.2082
50.2152
50.1897
50.1298
50.0967
50.022
49.9225
49.8589
49.7823
49.7369
49.6972
49.6215
49.6022
49.6106
49.535
49.4886
49.4681
49.3839
49.3402
49.2813
49.1881
49.1696
49.1242
49.0738
49.0821
49.0676
49.0888
49.151
49.1603
49.245
49.2861
49.325
49.4096
49.4178
49.4702
49.4892
49.5144
49.508
49.459
49.466
49.3785
49.2895
49.2009
49.0405
48.9001
48.655
48.4312
48.2192
47.8786
47.6428
47.3219
47.0164
46.7869
46.4208
46.2544
46.012
45.7833
45.7787
45.6156
45.6467
45.7415
45.7134
45.8931
45.9088
45.964
46.0791
45.976
46.0884
46.0889
46.0581
46.1885
46.1367
46.3394
46.4563
46.5506
46.9215
46.9872
47.2751
47.5427
47.5781
47.9625
48.0141
48.0749
48.3773
48.2288
48.3393
48.4308
48.1768
48.2655
48.1014
47.8212
47.7472
47.4091
47.1262
46.9522
46.5813
46.4302
46.2578
46.0191
46.0501
45.9566
45.8686
46.0376
46.0214
46.1251
46.4532
46.5836
46.9781
47.4189
47.7236
48.237
48.8345
49.3338
49.9515
50.718
51.3065
51.9548
52.7626
53.4562
54.1227
54.9199
55.6951
56.4012
57.1277
57.8592
58.5077
59.0241
59.3936
59.5639
59.3079
58.4433
56.7843
54.1548
50.3032
45.4263
39.6584
33.7545
28.1472
22.7532
18.0992
14.3562
11.6748
10.3709
9.78243
9.68061
10.4132
12.7798
16.6871
22.6928
30.6211
39.4198
48.284
55.6087
61.3513
64.0104
64.3182
63.1795
60.7881
57.2617
52.6848
46.9284
43.0476
40.1611
40.1099
41.4488
36.9108
35.8959
38.3066
39.3288
34.7484
36.546
36.7152
39.5464
43.3228
48.7975
50.5315
53.7268
53.2971
54.2038
53.331
52.1199
50.7469
47.55
44.8774
41.088
37.2496
32.7032
28.1124
53.5312
53.0385
51.1917
49.5885
48.6412
48.407
48.6431
49.1342
49.5471
49.8143
50.0905
50.2717
50.2925
50.2625
50.1941
50.1062
50.053
49.9613
49.855
49.8015
49.7346
49.6986
49.672
49.5997
49.5906
49.5985
49.5219
49.4848
49.4654
49.3895
49.3586
49.2925
49.2089
49.1899
49.1389
49.1021
49.1031
49.0835
49.1047
49.1509
49.1581
49.2205
49.2575
49.2788
49.3509
49.3489
49.3708
49.398
49.3955
49.3796
49.3506
49.326
49.2598
49.1734
49.0881
48.9695
48.8277
48.6287
48.4336
48.2526
47.9642
47.739
47.4875
47.1939
46.9979
46.6899
46.5127
46.343
46.1128
46.095
45.9563
45.9299
46.0084
45.9547
46.0774
46.11
46.1139
46.2256
46.137
46.188
46.236
46.1604
46.2775
46.2619
46.3751
46.5393
46.5762
46.8855
47.012
47.1768
47.4859
47.5142
47.8047
47.9633
47.9673
48.2708
48.2459
48.2878
48.4485
48.3006
48.3381
48.2905
48.0598
48.0036
47.7194
47.4883
47.3211
46.9907
46.8696
46.6775
46.4595
46.4439
46.3245
46.2172
46.3125
46.3197
46.3725
46.6677
46.885
47.202
47.7096
48.097
48.6374
49.3145
49.8966
50.6011
51.3892
52.1174
52.8468
53.6579
54.4805
55.1991
56.0246
56.8899
57.6546
58.4823
59.2551
59.9286
60.5737
61.0199
61.3152
61.1361
60.2644
58.6101
55.6194
51.4115
46.2705
40.3095
34.1069
28.3848
22.934
17.9094
14.0806
11.3815
9.61629
8.7685
8.94977
10.0769
12.6958
16.8363
23.119
30.7789
38.9944
47.0474
53.8278
58.7882
60.8173
61.1026
60.4033
58.4598
55.6356
51.2664
45.8373
42.4907
38.6347
39.574
41.011
36.4597
35.6844
40.9527
39.2235
30.8844
36.7827
33.684
38.6454
42.4314
48.5163
50.0253
53.0192
53.6184
54.121
53.9197
52.9219
51.7913
48.7702
46.2188
43.1218
39.7093
35.8647
32.008
53.7361
53.3088
51.435
49.7127
48.6408
48.294
48.5015
49.0072
49.4736
49.8003
50.0932
50.3027
50.3277
50.2846
50.1975
50.0938
50.0348
49.9239
49.8221
49.7679
49.7001
49.6735
49.6379
49.5742
49.5677
49.5686
49.5063
49.4638
49.4559
49.3896
49.36
49.3108
49.2246
49.2213
49.1667
49.1327
49.1413
49.0915
49.1237
49.14
49.1406
49.1928
49.2021
49.2327
49.2813
49.2806
49.2905
49.3166
49.3147
49.2819
49.2609
49.2273
49.1599
49.0885
48.9947
48.9095
48.7766
48.5987
48.4542
48.2801
48.0412
47.8418
47.6257
47.3783
47.1995
46.9677
46.7915
46.6323
46.4337
46.3922
46.2676
46.2178
46.2595
46.1954
46.2761
46.2887
46.2749
46.3664
46.2658
46.3171
46.3436
46.2763
46.3716
46.3546
46.4435
46.567
46.6074
46.8296
46.9878
47.1031
47.3713
47.4729
47.6518
47.8931
47.9191
48.1519
48.2856
48.2779
48.4769
48.4606
48.4455
48.4935
48.3168
48.2472
48.0718
47.8351
47.7148
47.4348
47.276
47.1021
46.8388
46.7767
46.6114
46.5003
46.5376
46.5127
46.6107
46.8193
47.0782
47.4281
47.9159
48.437
48.9965
49.7216
50.4228
51.1565
52.035
52.8525
53.6636
54.5288
55.4212
56.2517
57.0194
57.9663
58.8064
59.5845
60.4461
61.134
61.8022
62.3173
62.5648
62.498
61.6048
59.7734
56.7653
52.4014
46.9603
41.004
34.9119
29.108
23.6937
18.6764
14.5653
11.6927
9.90772
8.95981
9.19228
10.705
13.6
17.906
24.0315
31.194
38.5639
45.5256
51.4005
55.2792
56.9977
57.4645
56.9746
55.5342
53.1341
49.7212
45.4777
42.6822
38.8489
39.6712
41.8309
36.339
34.0106
41.8041
36.8035
31.1724
34.0265
28.78
37.864
42.1321
48.6422
49.9742
52.5441
53.8928
54.8856
55.3342
54.4434
53.1301
50.1474
47.5806
44.8787
41.9024
38.7014
35.5956
53.8284
53.4095
51.519
49.753
48.653
48.2659
48.4682
48.9831
49.47
49.8368
50.1195
50.3357
50.3649
50.2999
50.1918
50.0567
49.9952
49.8704
49.7708
49.7277
49.6538
49.6578
49.6158
49.5691
49.5758
49.5583
49.5201
49.4629
49.4557
49.3985
49.359
49.319
49.2293
49.235
49.1659
49.1461
49.1535
49.0903
49.1335
49.1263
49.1322
49.169
49.1629
49.1898
49.2225
49.2145
49.2111
49.2408
49.2169
49.1919
49.1726
49.1315
49.0948
49.0107
48.9299
48.8637
48.7349
48.5856
48.4739
48.3184
48.1152
47.9485
47.7519
47.5577
47.384
47.1877
47.0562
46.8872
46.7378
46.6656
46.5587
46.492
46.4987
46.4429
46.4692
46.484
46.4464
46.508
46.4217
46.438
46.4598
46.3808
46.4491
46.4242
46.4747
46.5734
46.5961
46.7764
46.9305
47.0319
47.2667
47.3998
47.5455
47.7994
47.8845
48.0808
48.284
48.3311
48.5201
48.6062
48.6139
48.6871
48.6127
48.5356
48.4437
48.2386
48.1045
47.8949
47.6488
47.4712
47.2081
47.0328
46.9036
46.7237
46.7014
46.6883
46.7323
46.9403
47.1837
47.584
48.0725
48.6466
49.3031
50.0357
50.8542
51.69
52.6013
53.5351
54.3948
55.2941
56.2615
57.147
57.9027
58.7666
59.7575
60.4656
61.1762
61.9751
62.5345
63.0255
63.2724
63.0624
62.334
60.6692
57.5561
53.1422
47.6807
41.682
35.7596
30.168
24.8037
19.8677
15.7564
12.6853
10.7673
9.95692
10.4528
12.2681
15.3836
19.7245
25.4007
31.8406
38.2823
43.9368
48.4303
51.4424
52.9881
53.7095
53.2186
51.9399
50.4326
48.4682
45.7501
43.4604
40.2594
42.3902
42.2232
37.0877
35.5076
40.8928
34.5836
34.1189
35.2501
26.7064
38.2927
42.2886
46.3287
48.8209
52.933
54.0497
56.3528
57.2475
56.4623
54.6974
51.5716
48.7203
46.1673
43.7167
41.3853
39.2579
53.801
53.3793
51.5037
49.7786
48.7274
48.3657
48.5697
49.0611
49.5212
49.8831
50.131
50.3189
50.3463
50.2724
50.1765
50.034
49.9806
49.859
49.7565
49.7246
49.6397
49.6514
49.6
49.5503
49.5632
49.5268
49.5065
49.4476
49.4332
49.401
49.3513
49.3259
49.2498
49.2421
49.191
49.1591
49.1685
49.1028
49.1236
49.1226
49.102
49.1423
49.1185
49.1388
49.1717
49.1392
49.1551
49.1612
49.151
49.1188
49.0896
49.0698
49.0113
48.951
48.8645
48.8189
48.7168
48.5695
48.5007
48.3426
48.1877
48.0556
47.8753
47.7497
47.5653
47.4115
47.2941
47.1325
47.0248
46.9252
46.837
46.7692
46.7318
46.6996
46.6739
46.6705
46.6392
46.6314
46.5863
46.5551
46.5462
46.5017
46.4911
46.4897
46.5061
46.5505
46.6063
46.7035
46.8561
46.9575
47.133
47.3152
47.438
47.6969
47.8471
48.0246
48.288
48.395
48.5967
48.7468
48.8104
48.9241
48.9049
48.8909
48.8126
48.6649
48.5141
48.2965
48.0635
47.8109
47.5785
47.3348
47.126
46.9524
46.813
46.7836
46.8053
46.9608
47.2369
47.6229
48.1609
48.7784
49.5092
50.3026
51.1879
52.1254
53.0819
54.0866
55.0161
55.893
56.8683
57.835
58.6053
59.2988
60.2298
61.0968
61.5389
62.1699
62.8083
63.0033
63.2423
63.2552
62.6413
61.047
58.0908
53.837
48.567
42.7078
36.8358
31.4292
26.3653
21.68
17.7038
14.6605
12.7091
11.9058
12.724
14.7476
17.9214
22.0656
27.2673
32.9174
38.1606
42.5658
45.6793
48.1489
49.7535
50.4073
49.7382
48.6707
48.0399
47.5158
46.5552
44.7258
42.1882
42.6395
41.7162
39.4575
37.0737
40.1509
34.4633
39.4266
33.04
30.1474
38.1819
44.2932
47.7995
45.1567
52.1283
53.5788
58.0669
58.9363
58.1854
55.9684
52.5072
49.4484
47.2249
45.3026
43.861
42.7591
53.6267
53.1885
51.3798
49.8162
48.8778
48.5901
48.8026
49.248
49.6651
49.9767
50.1763
50.3077
50.3135
50.2326
50.1273
49.9926
49.9199
49.8135
49.7227
49.684
49.6253
49.6242
49.5925
49.5522
49.5557
49.5308
49.5024
49.4537
49.4269
49.3984
49.3514
49.3183
49.2606
49.237
49.1975
49.1628
49.164
49.1088
49.1153
49.1103
49.0865
49.1148
49.0805
49.0997
49.1092
49.079
49.0909
49.0727
49.0606
49.0348
49.0117
48.9968
48.9425
48.9062
48.8384
48.7879
48.7062
48.5783
48.5346
48.405
48.2726
48.1608
48.0038
47.9054
47.746
47.6191
47.5134
47.3733
47.2879
47.1724
47.1047
47.0285
46.9678
46.9444
46.8786
46.8648
46.8197
46.7791
46.7369
46.6809
46.6423
46.5964
46.5509
46.5294
46.5319
46.5287
46.5885
46.6465
46.7517
46.8854
47.0017
47.2037
47.3591
47.5715
47.8083
47.9856
48.2756
48.4688
48.6701
48.9065
49.0171
49.1573
49.2204
49.2147
49.1877
49.0647
48.906
48.7027
48.4517
48.181
47.9016
47.5989
47.3205
47.1013
46.907
46.8233
46.8434
46.953
47.2319
47.6468
48.1844
48.8676
49.6345
50.4805
51.4297
52.406
53.436
54.4853
55.41
56.3209
57.2454
58.106
58.9773
59.6897
60.211
60.9949
61.6915
61.957
62.3199
62.761
63.0399
62.9046
62.3936
61.0491
58.4858
54.5686
49.5719
43.9845
38.3267
33.0898
28.3094
24.0187
20.3477
17.5178
15.7869
15.3831
16.1995
18.1205
21.0753
24.8509
29.3803
34.2397
38.401
41.6147
43.81
45.8141
47.0612
47.5342
47.3092
46.6204
46.4425
46.8364
47.0712
46.2217
44.2349
43.2764
41.8662
40.8282
39.1251
40.9791
35.3959
37.7636
33.1391
36.362
40.1639
45.8073
45.7637
40.8419
54.3793
56.0731
59.5222
60.177
59.0357
56.4739
52.6692
49.5001
47.8291
46.8115
46.3814
45.9222
53.2375
52.8434
51.2342
49.9182
49.1708
48.9722
49.1707
49.5027
49.83
50.0512
50.181
50.2458
50.2219
50.1562
50.0517
49.9619
49.885
49.8035
49.7374
49.684
49.647
49.6244
49.5899
49.5564
49.5394
49.5138
49.4835
49.4415
49.4124
49.3862
49.347
49.313
49.2707
49.2417
49.2039
49.1776
49.1571
49.1162
49.1102
49.0874
49.0742
49.076
49.0442
49.06
49.0449
49.0244
49.0316
48.9971
49.0035
48.9747
48.9474
48.945
48.8842
48.8651
48.8021
48.752
48.7016
48.5899
48.5544
48.4454
48.3396
48.2653
48.1179
48.0552
47.9123
47.8037
47.7321
47.5838
47.5369
47.4135
47.3447
47.2868
47.186
47.1692
47.0803
47.0362
46.9953
46.9112
46.871
46.7977
46.7234
46.6836
46.6021
46.5705
46.5493
46.5142
46.5662
46.5845
46.6722
46.7958
46.8938
47.097
47.265
47.4801
47.7529
47.9746
48.2747
48.5369
48.7785
49.0461
49.2191
49.3832
49.4922
49.5209
49.5054
49.4163
49.254
49.0449
48.7877
48.4625
48.1446
47.7943
47.466
47.2057
46.9708
46.8679
46.8626
46.9715
47.251
47.6738
48.2367
48.9318
49.7311
50.6039
51.5532
52.56
53.6266
54.6603
55.5774
56.511
57.4213
58.126
58.8374
59.6393
60.2221
60.6177
61.1252
61.643
61.9892
62.243
62.307
62.3175
61.9486
60.7839
58.5316
55.1189
50.7016
45.5266
40.1733
35.1191
30.554
26.5826
23.2335
20.7217
19.2922
19.0969
20.1046
21.9734
24.5341
27.8008
31.6318
35.6269
39.0511
41.5618
43.2496
44.5962
45.6133
46.368
46.2022
45.7171
45.6494
46.3721
47.165
47.0375
44.9067
43.9315
42.9568
41.9941
40.8363
42.5599
38.6294
38.6375
36.5584
39.654
44.1203
39.2062
40.3066
50.2191
58.9618
60.0017
60.0258
60.4871
58.671
55.8334
51.7907
49.0094
47.9834
47.7707
48.4931
48.8008
52.4664
52.2039
51.0466
50.1208
49.6148
49.4799
49.6122
49.7998
49.9958
50.1133
50.1769
50.1998
50.1632
50.1074
50.0106
49.9365
49.8542
49.778
49.7268
49.6652
49.6412
49.6084
49.5754
49.5569
49.5231
49.5044
49.4725
49.4373
49.4136
49.378
49.3513
49.3093
49.2756
49.2443
49.2018
49.185
49.1459
49.1194
49.1026
49.0689
49.0633
49.0427
49.0202
49.026
48.9968
48.9834
48.9789
48.9379
48.9423
48.911
48.8888
48.8892
48.8328
48.8265
48.777
48.729
48.7011
48.6113
48.5817
48.4947
48.4112
48.351
48.227
48.1748
48.056
47.9705
47.9022
47.7729
47.7293
47.6146
47.5413
47.4834
47.3787
47.3408
47.2548
47.1856
47.1305
47.0368
46.9691
46.8915
46.7942
46.7354
46.6492
46.5879
46.5549
46.5041
46.5296
46.5444
46.6049
46.7228
46.8255
47.0159
47.2126
47.4331
47.7236
47.9803
48.2885
48.5902
48.8621
49.1495
49.3665
49.5555
49.69
49.7389
49.738
49.6529
49.4907
49.2704
48.9847
48.6474
48.2966
47.9341
47.5819
47.2962
47.0636
46.938
46.9335
47.0408
47.3166
47.7452
48.31
48.9951
49.7831
50.6699
51.6019
52.6009
53.679
54.6558
55.5103
56.4201
57.3456
58.0755
58.6502
59.2855
59.942
60.5054
60.9048
61.2412
61.5214
61.7104
61.7502
61.6668
61.2608
60.3124
58.5271
55.6029
51.7785
47.1971
42.2826
37.4826
33.1015
29.3086
26.1763
23.9425
22.7953
22.9352
24.1938
26.0919
28.2809
30.8164
33.7106
36.8098
39.5763
41.5846
42.9687
43.9286
44.8199
45.6138
45.8809
45.5974
45.6556
46.393
47.1887
47.138
45.0875
44.2338
43.5417
43.0373
41.8255
41.7075
41.0185
40.1598
40.2952
42.1749
40.523
36.616
45.5219
59.5162
59.195
61.4462
60.2311
59.8153
57.5088
54.1792
50.3754
48.1865
47.6945
48.5851
50.4312
51.3784
51.6407
51.5224
50.9526
50.478
50.1816
50.0343
50.0334
50.0664
50.1237
50.1515
50.1556
50.1432
50.0932
50.0418
49.9617
49.9017
49.8325
49.7679
49.7271
49.6673
49.6443
49.6089
49.576
49.5599
49.5201
49.498
49.4647
49.4318
49.4048
49.3697
49.3444
49.3052
49.277
49.2436
49.2067
49.1844
49.1441
49.1198
49.0946
49.0605
49.0473
49.0213
48.9978
48.992
48.9612
48.9473
48.9372
48.9025
48.9061
48.8774
48.8582
48.8543
48.8087
48.8024
48.762
48.7195
48.696
48.6292
48.5962
48.5284
48.4615
48.4082
48.308
48.2565
48.1661
48.0854
48.0239
47.9143
47.8622
47.7638
47.6817
47.6211
47.5156
47.4589
47.371
47.2848
47.2159
47.1146
47.0335
46.9453
46.8426
46.7668
46.6762
46.6041
46.555
46.5057
46.5122
46.5261
46.5801
46.6868
46.8013
46.984
47.191
47.4238
47.7125
47.9959
48.3089