/*--------------------------------*- C++ -*----------------------------------*\
| =========                 |                                                 |
| \\      /  F ield         | OpenFOAM: The Open Source CFD Toolbox           |
|  \\    /   O peration     | Version:  2.4.0                                 |
|   \\  /    A nd           | Web:      www.OpenFOAM.org                      |
|    \\/     M anipulation  |                                                 |
\*---------------------------------------------------------------------------*/
FoamFile
{
    version     2.0;
    format      ascii;
    class       surfaceScalarField;
    location    "1.33";
    object      phi;
}
// * * * * * * * * * * * * * * * * * * * * * * * * * * * * * * * * * * * * * //

dimensions      [0 3 -1 0 0 0 0];

internalField   nonuniform List<scalar> 
17320
(
1.76388e-05
7.36122e-06
1.1618e-05
6.02073e-06
8.68249e-06
2.93556e-06
7.35492e-06
1.32757e-06
6.71774e-06
6.37176e-07
6.34587e-06
3.7187e-07
6.0748e-06
2.7107e-07
5.87187e-06
2.02934e-07
5.70722e-06
1.6465e-07
5.58504e-06
1.22177e-07
5.47844e-06
1.06596e-07
5.39029e-06
8.81487e-08
5.30237e-06
8.79202e-08
5.24103e-06
6.13406e-08
5.13097e-06
1.10061e-07
5.08358e-06
4.73923e-08
4.98894e-06
9.46374e-08
5.01492e-06
-2.59802e-08
4.80238e-06
2.12548e-07
-4.36126e-07
5.2385e-06
2.54638e-05
6.89741e-06
2.32477e-05
8.23685e-06
2.09924e-05
5.1909e-06
1.93171e-05
3.00281e-06
1.80766e-05
1.87767e-06
1.71148e-05
1.33372e-06
1.63639e-05
1.02199e-06
1.57753e-05
7.91457e-07
1.53091e-05
6.30856e-07
1.49392e-05
4.92076e-07
1.46311e-05
4.14704e-07
1.43785e-05
3.40809e-07
1.41457e-05
3.20629e-07
1.39578e-05
2.49297e-07
1.37183e-05
3.4952e-07
1.35827e-05
1.83014e-07
1.33513e-05
3.2608e-07
1.33203e-05
5.01153e-09
1.31775e-05
3.55286e-07
-5.93994e-07
1.33354e-05
2.66237e-05
5.27369e-06
2.71521e-05
7.70843e-06
2.67856e-05
5.55743e-06
2.62473e-05
3.54117e-06
2.56086e-05
2.51632e-06
2.48739e-05
2.06841e-06
2.41609e-05
1.73503e-06
2.35036e-05
1.44869e-06
2.29344e-05
1.20014e-06
2.2454e-05
9.72408e-07
2.20303e-05
8.38425e-07
2.16799e-05
6.9124e-07
2.1359e-05
6.41464e-07
2.10888e-05
5.1953e-07
2.07794e-05
6.58918e-07
2.05765e-05
3.85938e-07
2.02922e-05
6.10343e-07
2.0161e-05
1.36251e-07
2.01527e-05
3.63566e-07
-9.47451e-07
2.05062e-05
2.63308e-05
3.94286e-06
2.75338e-05
6.50544e-06
2.80917e-05
4.99958e-06
2.84546e-05
3.17821e-06
2.86529e-05
2.31804e-06
2.86239e-05
2.09738e-06
2.84761e-05
1.88288e-06
2.82378e-05
1.68693e-06
2.79646e-05
1.47338e-06
2.7704e-05
1.23306e-06
2.74266e-05
1.11576e-06
2.7167e-05
9.50822e-07
2.69273e-05
8.81241e-07
2.66821e-05
7.64647e-07
2.64206e-05
9.20445e-07
2.62024e-05
6.04184e-07
2.59794e-05
8.33285e-07
2.56841e-05
4.31534e-07
2.55893e-05
4.58431e-07
-5.60714e-07
2.52025e-05
2.60361e-05
2.90674e-06
2.7242e-05
5.29954e-06
2.805e-05
4.19163e-06
2.84945e-05
2.73366e-06
2.89904e-05
1.82221e-06
2.93284e-05
1.75929e-06
2.95922e-05
1.61913e-06
2.97435e-05
1.53567e-06
2.98334e-05
1.38348e-06
2.99195e-05
1.14693e-06
2.99657e-05
1.06952e-06
2.99503e-05
9.6622e-07
2.99784e-05
8.53178e-07
2.99229e-05
8.20186e-07
2.98779e-05
9.65369e-07
2.97882e-05
6.93901e-07
2.97558e-05
8.65728e-07
2.9434e-05
7.53301e-07
2.93292e-05
5.63224e-07
2.93908e-09
2.87656e-05
2.58503e-05
2.05644e-06
2.69375e-05
4.21238e-06
2.78371e-05
3.292e-06
2.82195e-05
2.35129e-06
2.87226e-05
1.31911e-06
2.90999e-05
1.38191e-06
2.94457e-05
1.27339e-06
2.97279e-05
1.25344e-06
2.99932e-05
1.11822e-06
3.0154e-05
9.86065e-07
3.04352e-05
7.88335e-07
3.04936e-05
9.07849e-07
3.07682e-05
5.78543e-07
3.07998e-05
7.88598e-07
3.10254e-05
7.39737e-07
3.09898e-05
7.29573e-07
3.1236e-05
6.19452e-07
3.09493e-05
1.04005e-06
3.0993e-05
5.19518e-07
7.6295e-07
3.0233e-05
2.56441e-05
1.41235e-06
2.67272e-05
3.12922e-06
2.761e-05
2.40923e-06
2.80573e-05
1.90405e-06
2.843e-05
9.46372e-07
2.88639e-05
9.48026e-07
2.92394e-05
8.97904e-07
2.94007e-05
1.09209e-06
2.98891e-05
6.29838e-07
2.9898e-05
9.77201e-07
3.02543e-05
4.32009e-07
3.03761e-05
7.86049e-07
3.06821e-05
2.72577e-07
3.0697e-05
7.73696e-07
3.1089e-05
3.47723e-07
3.10335e-05
7.85068e-07
3.12966e-05
3.56294e-07
3.11353e-05
1.2014e-06
3.10331e-05
6.21752e-07
1.61888e-06
3.01771e-05
2.55381e-05
8.74244e-07
2.66126e-05
2.05478e-06
2.74213e-05
1.60049e-06
2.79751e-05
1.35025e-06
2.84236e-05
4.97909e-07
2.86239e-05
7.47722e-07
2.90313e-05
4.9045e-07
2.92841e-05
8.39261e-07
2.95635e-05
3.50437e-07
2.99372e-05
6.03518e-07
3.00405e-05
3.28752e-07
3.02583e-05
5.68241e-07
3.042e-05
1.10897e-07
3.06435e-05
5.50194e-07
3.07484e-05
2.42831e-07
3.09882e-05
5.45246e-07
3.11431e-05
2.01422e-07
3.15029e-05
8.41563e-07
3.18149e-05
3.09758e-07
7.46697e-07
3.26871e-05
2.54745e-05
3.99723e-07
2.64704e-05
1.05886e-06
2.73543e-05
7.1666e-07
2.79438e-05
7.6072e-07
2.8221e-05
2.20711e-07
2.85457e-05
4.22988e-07
2.88999e-05
1.36302e-07
2.93199e-05
4.19276e-07
2.93862e-05
2.84141e-07
2.97022e-05
2.87509e-07
2.99402e-05
9.07382e-08
3.01372e-05
3.71261e-07
3.03526e-05
-1.04542e-07
3.05591e-05
3.43742e-07
3.06108e-05
1.91114e-07
3.09031e-05
2.52964e-07
3.10492e-05
5.52818e-08
3.14858e-05
4.04943e-07
3.16615e-05
1.34048e-07
1.91842e-07
3.22164e-05
2.54388e-05
-3.90968e-08
2.64379e-05
5.98268e-08
2.72396e-05
-8.50382e-08
2.78995e-05
1.00795e-07
2.81873e-05
-6.71188e-08
2.85767e-05
3.3636e-08
2.87756e-05
-6.2597e-08
2.90731e-05
1.21736e-07
2.95018e-05
-1.44569e-07
2.96974e-05
9.19413e-08
2.98826e-05
-9.45066e-08
3.0144e-05
1.09877e-07
3.02001e-05
-1.6068e-07
3.04709e-05
7.29792e-08
3.06645e-05
-2.49802e-09
3.08614e-05
5.60925e-08
3.10911e-05
-1.74438e-07
3.13444e-05
1.51693e-07
3.15724e-05
-9.39552e-08
-2.65714e-07
3.20299e-05
2.54127e-05
-4.51844e-07
2.64211e-05
-9.48516e-07
2.7277e-05
-9.40924e-07
2.78812e-05
-5.03448e-07
2.82249e-05
-4.10826e-07
2.84833e-05
-2.24709e-07
2.88222e-05
-4.01504e-07
2.9249e-05
-3.05082e-07
2.93486e-05
-2.44181e-07
2.97411e-05
-3.00557e-07
2.98353e-05
-1.88696e-07
3.00739e-05
-1.28714e-07
3.02674e-05
-3.54206e-07
3.05113e-05
-1.70878e-07
3.06109e-05
-1.02136e-07
3.08738e-05
-2.06819e-07
3.10098e-05
-3.10463e-07
3.13873e-05
-2.25807e-07
3.16396e-05
-3.46202e-07
-3.99955e-07
3.17738e-05
2.54717e-05
-9.23591e-07
2.65001e-05
-1.97685e-06
2.72888e-05
-1.7296e-06
2.7947e-05
-1.16166e-06
2.82364e-05
-7.00257e-07
2.85974e-05
-5.85701e-07
2.88548e-05
-6.5889e-07
2.91991e-05
-6.49364e-07
2.94923e-05
-5.37378e-07
2.97422e-05
-5.5048e-07
2.99376e-05
-3.84145e-07
3.01679e-05
-3.59011e-07
3.02741e-05
-4.60347e-07
3.05145e-05
-4.11301e-07
3.07037e-05
-2.91363e-07
3.09394e-05
-4.42528e-07
3.11219e-05
-4.92897e-07
3.14024e-05
-5.06297e-07
3.16337e-05
-5.77593e-07
-6.35882e-07
3.18697e-05
2.55404e-05
-1.46395e-06
2.65886e-05
-3.02513e-06
2.74266e-05
-2.5676e-06
2.80105e-05
-1.74557e-06
2.83244e-05
-1.01411e-06
2.86847e-05
-9.45962e-07
2.90041e-05
-9.78306e-07
2.9336e-05
-9.81298e-07
2.95505e-05
-7.51899e-07
2.98394e-05
-8.39317e-07
3.00302e-05
-5.74976e-07
3.02968e-05
-6.25647e-07
3.04198e-05
-5.83298e-07
3.05927e-05
-5.84237e-07
3.07884e-05
-4.87052e-07
3.10472e-05
-7.01272e-07
3.124e-05
-6.85776e-07
3.15242e-05
-7.90419e-07
3.17494e-05
-8.02861e-07
-8.9739e-07
3.20109e-05
2.56739e-05
-2.1379e-06
2.67407e-05
-4.09184e-06
2.75772e-05
-3.40418e-06
2.80825e-05
-2.25088e-06
2.84873e-05
-1.41884e-06
2.88493e-05
-1.30797e-06
2.9165e-05
-1.29403e-06
2.94879e-05
-1.30417e-06
2.97446e-05
-1.00858e-06
3.00257e-05
-1.12044e-06
3.02112e-05
-7.60529e-07
3.04204e-05
-8.34837e-07
3.05635e-05
-7.26344e-07
3.08013e-05
-8.22097e-07
3.0939e-05
-6.24735e-07
3.1189e-05
-9.51222e-07
3.13396e-05
-8.36391e-07
3.16522e-05
-1.103e-06
3.18976e-05
-1.04833e-06
-1.16262e-06
3.21629e-05
2.58388e-05
-2.97668e-06
2.69542e-05
-5.2073e-06
2.78137e-05
-4.26361e-06
2.82439e-05
-2.68106e-06
2.86952e-05
-1.87018e-06
2.91037e-05
-1.71648e-06
2.94524e-05
-1.64272e-06
2.97076e-05
-1.55936e-06
2.99766e-05
-1.2776e-06
3.01787e-05
-1.32252e-06
3.03822e-05
-9.64018e-07
3.05441e-05
-9.96818e-07
3.06954e-05
-8.77643e-07
3.08362e-05
-9.62842e-07
3.09645e-05
-7.53094e-07
3.10994e-05
-1.08613e-06
3.11953e-05
-9.32224e-07
3.14173e-05
-1.32501e-06
3.15404e-05
-1.1714e-06
-1.39033e-06
3.17681e-05
2.60303e-05
-4.00701e-06
2.72399e-05
-6.41686e-06
2.80364e-05
-5.06007e-06
2.85049e-05
-3.14964e-06
2.89732e-05
-2.33847e-06
2.93256e-05
-2.06883e-06
2.95818e-05
-1.89892e-06
2.97212e-05
-1.69876e-06
2.98628e-05
-1.41919e-06
2.98938e-05
-1.35356e-06
2.99534e-05
-1.02361e-06
2.99445e-05
-9.87875e-07
2.99518e-05
-8.84951e-07
2.99033e-05
-9.14419e-07
2.98741e-05
-7.23826e-07
2.97834e-05
-9.95428e-07
2.9698e-05
-8.46849e-07
2.96169e-05
-1.24389e-06
2.95197e-05
-1.07423e-06
-1.51781e-06
2.96472e-05
2.63066e-05
-5.31358e-06
2.75499e-05
-7.6602e-06
2.80752e-05
-5.58533e-06
2.84476e-05
-3.52209e-06
2.8636e-05
-2.52683e-06
2.86298e-05
-2.06265e-06
2.84694e-05
-1.73847e-06
2.82254e-05
-1.45481e-06
2.79757e-05
-1.16948e-06
2.76701e-05
-1.04795e-06
2.74295e-05
-7.83064e-07
2.7157e-05
-7.15378e-07
2.6908e-05
-6.35881e-07
2.66429e-05
-6.49344e-07
2.64259e-05
-5.06874e-07
2.61285e-05
-6.97998e-07
2.58871e-05
-6.05434e-07
2.55497e-05
-9.06525e-07
2.53112e-05
-8.35729e-07
-1.37836e-06
2.51718e-05
2.66042e-05
-6.91781e-06
2.71608e-05
-8.21679e-06
2.67735e-05
-5.19799e-06
2.62477e-05
-2.99634e-06
2.55998e-05
-1.87893e-06
2.48744e-05
-1.33718e-06
2.41523e-05
-1.01645e-06
2.35009e-05
-8.03329e-07
2.29374e-05
-6.06046e-07
2.24284e-05
-5.38877e-07
2.20324e-05
-3.87074e-07
2.16663e-05
-3.49318e-07
2.13462e-05
-3.15779e-07
2.10373e-05
-3.40452e-07
2.07826e-05
-2.52169e-07
2.04611e-05
-3.76533e-07
2.01924e-05
-3.36695e-07
1.97781e-05
-4.92248e-07
1.94176e-05
-4.75174e-07
-5.07267e-07
1.85465e-05
2.545e-05
-7.36777e-06
2.32487e-05
-6.01557e-06
2.09849e-05
-2.9342e-06
1.93166e-05
-1.32803e-06
1.80741e-05
-6.36355e-07
1.71123e-05
-3.75393e-07
1.63617e-05
-2.65912e-07
1.57707e-05
-2.12274e-07
1.53129e-05
-1.48238e-07
1.49199e-05
-1.4593e-07
1.46289e-05
-9.60582e-08
1.43677e-05
-8.80815e-08
1.41366e-05
-8.4709e-08
1.39023e-05
-1.06153e-07
1.37163e-05
-6.61273e-08
1.34632e-05
-1.23495e-07
1.3236e-05
-1.09474e-07
1.29084e-05
-1.64623e-07
1.26418e-05
-2.08566e-07
-9.23987e-08
1.22269e-05
1.76322e-05
1.16167e-05
8.68246e-06
7.35443e-06
6.71808e-06
6.34268e-06
6.07677e-06
5.8645e-06
5.71626e-06
5.57033e-06
5.47427e-06
5.38619e-06
5.30148e-06
5.19533e-06
5.1292e-06
5.00571e-06
4.89623e-06
4.73161e-06
4.52304e-06
4.43065e-06
5.71413e-06
-2.60504e-07
-2.1513e-07
6.08072e-06
-1.54234e-07
-2.1235e-07
6.34214e-06
-7.83863e-08
-1.83036e-07
6.53984e-06
-4.88212e-08
-1.48877e-07
6.70625e-06
-5.80902e-08
-1.08317e-07
6.87353e-06
-8.83653e-08
-7.89202e-08
7.04577e-06
-1.36238e-07
-3.59975e-08
7.22432e-06
-1.48176e-07
-3.03763e-08
7.38633e-06
-1.36327e-07
-2.56833e-08
7.5323e-06
-1.14646e-07
-3.13248e-08
7.6538e-06
-1.01518e-07
-1.99795e-08
7.76446e-06
-1.08468e-07
-2.19008e-09
7.86931e-06
-1.13027e-07
8.16961e-09
7.97513e-06
-1.05566e-07
-2.54364e-10
8.08192e-06
-9.75214e-08
-9.26298e-09
8.20104e-06
-7.54999e-08
-4.36224e-08
8.32318e-06
-5.67656e-08
-6.53764e-08
8.44526e-06
-4.58791e-08
-7.61958e-08
8.55178e-06
-4.70258e-08
-5.94926e-08
8.64594e-06
-6.60559e-08
-2.81065e-08
8.72907e-06
-8.3535e-08
4.01854e-10
8.80439e-06
-1.00322e-07
2.50007e-08
8.87189e-06
-1.03221e-07
3.57289e-08
8.93947e-06
-9.5747e-08
2.81612e-08
9.01516e-06
-6.86181e-08
-7.06693e-09
9.0952e-06
-2.7267e-08
-5.27767e-08
9.19393e-06
1.4367e-08
-1.13096e-07
9.30601e-06
6.41501e-08
-1.76227e-07
9.43965e-06
1.08282e-07
-2.41923e-07
9.58523e-06
1.36305e-07
-2.81889e-07
9.73552e-06
1.45155e-07
-2.95442e-07
9.88862e-06
1.30427e-07
-2.83532e-07
1.00233e-05
9.62308e-08
-2.30919e-07
1.0129e-05
4.1377e-08
-1.47079e-07
1.02179e-05
-2.72815e-08
-6.16448e-08
1.0291e-05
-8.16191e-08
8.54278e-09
1.03325e-05
-1.35511e-07
9.40287e-08
1.03715e-05
-1.91916e-07
1.52875e-07
1.0409e-05
-2.18111e-07
1.80678e-07
1.04505e-05
-2.39153e-07
1.97612e-07
1.04897e-05
-2.45885e-07
2.06685e-07
1.05308e-05
-2.54238e-07
2.13145e-07
1.05787e-05
-2.58139e-07
2.10221e-07
1.06178e-05
-2.50249e-07
2.11215e-07
1.06623e-05
-2.46571e-07
2.0207e-07
1.06913e-05
-2.35058e-07
2.06055e-07
1.07177e-05
-2.26614e-07
2.00143e-07
1.07208e-05
-2.08445e-07
2.05423e-07
1.0721e-05
-1.85473e-07
1.85275e-07
1.07017e-05
-1.47324e-07
1.66578e-07
1.0685e-05
-9.53906e-08
1.12108e-07
1.06527e-05
-2.06609e-08
5.29519e-08
1.06429e-05
6.48457e-08
-5.50912e-08
1.0617e-05
1.58695e-07
-1.32777e-07
1.06615e-05
2.68013e-07
-3.12478e-07
1.06981e-05
3.91212e-07
-4.27834e-07
1.07543e-05
4.62598e-07
-5.18813e-07
1.08544e-05
5.31378e-07
-6.31451e-07
1.09831e-05
5.83679e-07
-7.12401e-07
1.11087e-05
6.3538e-07
-7.60968e-07
1.1266e-05
6.40449e-07
-7.97773e-07
1.14353e-05
6.67125e-07
-8.36375e-07
1.1653e-05
6.55938e-07
-8.73623e-07
1.18976e-05
6.52442e-07
-8.97116e-07
1.21549e-05
6.08152e-07
-8.65393e-07
1.24196e-05
5.20153e-07
-7.84867e-07
1.26229e-05
3.85885e-07
-5.89165e-07
1.27792e-05
1.87587e-07
-3.43918e-07
1.28504e-05
-1.10461e-09
-7.01226e-08
1.28294e-05
-1.86676e-07
2.07736e-07
1.27828e-05
-3.25721e-07
3.72309e-07
1.27081e-05
-4.20384e-07
4.95107e-07
1.2674e-05
-4.18863e-07
4.52908e-07
1.26854e-05
-4.60604e-07
4.4926e-07
1.27494e-05
-3.74476e-07
3.10428e-07
1.28599e-05
-3.62222e-07
2.51703e-07
1.30533e-05
-3.0666e-07
1.13265e-07
1.32657e-05
-2.43561e-07
3.12046e-08
1.35131e-05
-2.45573e-07
-1.81941e-09
1.38163e-05
-2.88596e-07
-1.46557e-08
1.41026e-05
-2.90228e-07
3.9206e-09
1.44521e-05
-4.8973e-07
1.40261e-07
1.4748e-05
-5.45766e-07
2.49888e-07
1.50578e-05
-7.93903e-07
4.84074e-07
1.53679e-05
-9.82168e-07
6.72066e-07
1.56119e-05
-1.11909e-06
8.75134e-07
1.59235e-05
-1.41429e-06
1.10266e-06
1.61373e-05
-1.38445e-06
1.17059e-06
1.64434e-05
-1.64975e-06
1.34369e-06
1.66612e-05
-1.53806e-06
1.3203e-06
1.68686e-05
-1.60433e-06
1.3969e-06
1.71224e-05
-1.50436e-06
1.2506e-06
1.72043e-05
-1.38054e-06
1.29858e-06
1.73475e-05
-1.23903e-06
1.09585e-06
1.73587e-05
-1.10077e-06
1.08961e-06
1.73481e-05
-9.52237e-07
9.62821e-07
1.73313e-05
-8.95861e-07
9.12636e-07
1.72504e-05
-8.04841e-07
8.85771e-07
1.72209e-05
-6.0373e-07
6.33217e-07
1.72684e-05
-5.65676e-07
5.18191e-07
1.72806e-05
-1.21674e-07
1.09449e-07
1.7443e-05
-4.45486e-08
-1.17859e-07
1.77436e-05
2.92278e-07
-5.92916e-07
1.79488e-05
5.57904e-07
-7.6307e-07
1.83623e-05
4.74879e-07
-8.88359e-07
1.87032e-05
4.81436e-07
-8.22361e-07
1.89057e-05
3.95499e-07
-5.97958e-07
1.93152e-05
-1.60345e-07
-2.49235e-07
1.94874e-05
-2.05014e-07
3.28711e-08
1.97854e-05
-7.24621e-07
4.26618e-07
2.0111e-05
-1.08874e-06
7.6313e-07
2.04686e-05
-1.37357e-06
1.016e-06
2.08362e-05
-1.73832e-06
1.37068e-06
2.13791e-05
-2.26343e-06
1.72056e-06
2.17922e-05
-2.2802e-06
1.86713e-06
2.23297e-05
-2.90615e-06
2.36857e-06
2.27628e-05
-2.95875e-06
2.52565e-06
2.34208e-05
-3.30237e-06
2.64438e-06
2.3755e-05
-3.43407e-06
3.09994e-06
2.4286e-05
-3.58657e-06
3.0555e-06
2.47764e-05
-3.63389e-06
3.14354e-06
2.52626e-05
-3.80899e-06
3.32278e-06
2.57284e-05
-3.86235e-06
3.39659e-06
2.61478e-05
-3.84252e-06
3.42307e-06
2.66514e-05
-4.04703e-06
3.54349e-06
2.69455e-05
-4.07768e-06
3.78353e-06
2.73913e-05
-4.20594e-06
3.7602e-06
2.77156e-05
-4.48788e-06
4.16357e-06
2.80606e-05
-4.60358e-06
4.25858e-06
2.83993e-05
-5.02522e-06
4.68649e-06
2.86839e-05
-5.26127e-06
4.97668e-06
2.89901e-05
-5.77647e-06
5.47028e-06
2.93513e-05
-6.1752e-06
5.81401e-06
2.96996e-05
-6.83931e-06
6.49097e-06
2.99791e-05
-7.24075e-06
6.96127e-06
3.03844e-05
-7.95779e-06
7.55245e-06
3.06607e-05
-8.52519e-06
8.24897e-06
3.0967e-05
-9.07193e-06
8.76557e-06
3.1234e-05
-9.69122e-06
9.42422e-06
3.14796e-05
-1.02214e-05
9.97583e-06
3.17284e-05
-1.08431e-05
1.05942e-05
3.18365e-05
-1.11012e-05
1.09931e-05
3.21221e-05
-1.17781e-05
1.14925e-05
3.21925e-05
-1.20597e-05
1.19893e-05
3.24683e-05
-1.23808e-05
1.2105e-05
3.27373e-05
-1.27153e-05
1.24462e-05
3.30402e-05
-1.29388e-05
1.26359e-05
3.34375e-05
-1.2975e-05
1.25777e-05
3.39669e-05
-1.30752e-05
1.25458e-05
3.44661e-05
-1.28322e-05
1.23329e-05
3.49823e-05
-1.25071e-05
1.19909e-05
3.54702e-05
-1.20374e-05
1.15495e-05
3.58382e-05
-1.12682e-05
1.09002e-05
3.60794e-05
-1.04713e-05
1.02301e-05
3.61164e-05
-9.30661e-06
9.26955e-06
3.60734e-05
-8.33604e-06
8.37908e-06
3.57105e-05
-6.82661e-06
7.18954e-06
3.52419e-05
-5.52878e-06
5.99734e-06
3.43322e-05
-3.77891e-06
4.6886e-06
3.3223e-05
-2.32771e-06
3.43691e-06
3.16345e-05
-5.72884e-07
2.16141e-06
2.99554e-05
3.89514e-07
1.28959e-06
2.80722e-05
1.27049e-06
6.12648e-07
2.62809e-05
1.47547e-06
3.15891e-07
2.46904e-05
1.43875e-06
1.51727e-07
2.34063e-05
8.7454e-07
4.09575e-07
2.23762e-05
6.57581e-07
3.72535e-07
2.18433e-05
-1.30675e-07
6.63505e-07
2.17211e-05
-7.44771e-07
8.66974e-07
2.18897e-05
-1.48231e-06
1.31376e-06
2.231e-05
-1.73956e-06
1.31929e-06
2.2735e-05
-1.93662e-06
1.51159e-06
2.33853e-05
-1.76766e-06
1.11734e-06
2.38063e-05
-1.20665e-06
7.85705e-07
2.43236e-05
-3.22816e-07
-1.94481e-07
2.47097e-05
6.99612e-07
-1.08578e-06
2.51284e-05
2.03155e-06
-2.45026e-06
2.52769e-05
3.56273e-06
-3.7112e-06
2.56037e-05
5.08751e-06
-5.41433e-06
2.55957e-05
6.8017e-06
-6.79366e-06
2.57015e-05
8.18177e-06
-8.28762e-06
2.56666e-05
9.76796e-06
-9.73301e-06
2.55762e-05
1.11183e-05
-1.10279e-05
2.52781e-05
1.23421e-05
-1.2044e-05
2.50813e-05
1.36568e-05
-1.346e-05
2.45461e-05
1.45428e-05
-1.40076e-05
2.39557e-05
1.53328e-05
-1.47425e-05
2.35041e-05
1.61109e-05
-1.56593e-05
2.31167e-05
1.65501e-05
-1.61627e-05
2.27958e-05
1.71459e-05
-1.6825e-05
2.29158e-05
1.76714e-05
-1.77915e-05
2.34128e-05
1.86569e-05
-1.91539e-05
2.30867e-05
1.97199e-05
-1.93938e-05
2.21872e-05
2.01224e-05
-1.92229e-05
2.08762e-05
2.086e-05
-1.95489e-05
1.89753e-05
2.0392e-05
-1.84912e-05
1.72606e-05
1.99446e-05
-1.82298e-05
1.42552e-05
2.21286e-05
-1.91232e-05
1.35487e-05
2.209e-05
-2.13835e-05
3.07312e-05
-3.05299e-05
1.33474e-05
1.33533e-05
-2.78394e-07
1.33605e-05
-1.61452e-07
1.33795e-05
-9.73872e-08
1.34216e-05
-9.08664e-08
1.34976e-05
-1.34148e-07
1.35895e-05
-1.80286e-07
1.3692e-05
-2.38726e-07
1.37878e-05
-2.43992e-07
1.3869e-05
-2.17527e-07
1.39469e-05
-1.92453e-07
1.40073e-05
-1.61924e-07
1.407e-05
-1.71172e-07
1.41271e-05
-1.70152e-07
1.41894e-05
-1.6789e-07
1.42572e-05
-1.6532e-07
1.43256e-05
-1.43912e-07
1.43966e-05
-1.27731e-07
1.44648e-05
-1.14094e-07
1.45247e-05
-1.06895e-07
1.45743e-05
-1.1565e-07
1.46131e-05
-1.22323e-07
1.46492e-05
-1.36461e-07
1.46828e-05
-1.3679e-07
1.47148e-05
-1.27764e-07
1.47561e-05
-1.09965e-07
1.47976e-05
-6.87271e-08
1.48535e-05
-4.15419e-08
1.49167e-05
9.18368e-10
1.49863e-05
3.86864e-08
1.50745e-05
4.81148e-08
1.51538e-05
6.58429e-08
1.52455e-05
3.87267e-08
1.53265e-05
1.52944e-08
1.53977e-05
-2.98219e-08
1.54599e-05
-8.94755e-08
1.55173e-05
-1.39074e-07
1.55637e-05
-1.81934e-07
1.56028e-05
-2.30943e-07
1.56424e-05
-2.57735e-07
1.56825e-05
-2.79229e-07
1.57294e-05
-2.92826e-07
1.5763e-05
-2.87809e-07
1.5808e-05
-3.03172e-07
1.58388e-05
-2.81096e-07
1.58725e-05
-2.80268e-07
1.58925e-05
-2.54975e-07
1.59047e-05
-2.38874e-07
1.58997e-05
-2.03395e-07
1.58903e-05
-1.76089e-07
1.58604e-05
-1.17404e-07
1.58368e-05
-7.1852e-08
1.5796e-05
2.01872e-08
1.57672e-05
9.36202e-08
1.57348e-05
1.91056e-07
1.57198e-05
2.83098e-07
1.57325e-05
3.78476e-07
1.57304e-05
4.64651e-07
1.57432e-05
5.18657e-07
1.5774e-05
5.52795e-07
1.58161e-05
5.93298e-07
1.5866e-05
5.90549e-07
1.59317e-05
6.01471e-07
1.602e-05
5.67639e-07
1.61325e-05
5.39927e-07
1.62633e-05
4.7733e-07
1.64006e-05
3.82917e-07
1.65276e-05
2.58865e-07
1.66108e-05
1.0437e-07
1.66998e-05
-9.00668e-08
1.6719e-05
-2.05905e-07
1.67628e-05
-3.69491e-07
1.67881e-05
-4.45771e-07
1.68296e-05
-4.60326e-07
1.69296e-05
-5.60596e-07
1.70298e-05
-4.74723e-07
1.72068e-05
-5.39132e-07
1.74196e-05
-5.19515e-07
1.76521e-05
-4.76082e-07
1.79667e-05
-5.60178e-07
1.82655e-05
-5.87382e-07
1.85946e-05
-6.19352e-07
1.89778e-05
-8.72896e-07
1.92851e-05
-8.53092e-07
1.96387e-05
-1.14746e-06
1.99724e-05
-1.3159e-06
2.02167e-05
-1.3634e-06
2.05463e-05
-1.74385e-06
2.07652e-05
-1.60336e-06
2.09674e-05
-1.85194e-06
2.12383e-05
-1.809e-06
2.13354e-05
-1.70139e-06
2.15591e-05
-1.72811e-06
2.16964e-05
-1.51779e-06
2.17855e-05
-1.32817e-06
2.19931e-05
-1.30832e-06
2.19752e-05
-9.34412e-07
2.19892e-05
-9.09833e-07
2.19727e-05
-7.88308e-07
2.17662e-05
-3.97221e-07
2.1698e-05
-4.9748e-07
2.16832e-05
-1.06859e-07
2.1542e-05
9.65708e-08
2.17677e-05
6.66551e-08
2.189e-05
4.35589e-07
2.21091e-05
2.55724e-07
2.2468e-05
1.2253e-07
2.27585e-05
1.05069e-07
2.30221e-05
-4.23938e-07
2.34201e-05
-6.03084e-07
2.36955e-05
-1.00001e-06
2.41053e-05
-1.49854e-06
2.44254e-05
-1.69365e-06
2.49351e-05
-2.24796e-06
2.52658e-05
-2.59415e-06
2.57487e-05
-2.76312e-06
2.62011e-05
-3.35857e-06
2.66129e-05
-3.37053e-06
2.70195e-05
-3.70901e-06
2.73929e-05
-3.80747e-06
2.78274e-05
-4.02102e-06
2.81509e-05
-3.95737e-06
2.85127e-05
-4.17088e-06
2.87142e-05
-4.06377e-06
2.9016e-05
-4.14437e-06
2.91907e-05
-4.2217e-06
2.93401e-05
-4.22708e-06
2.95836e-05
-4.44951e-06
2.96784e-05
-4.58264e-06
2.99029e-05
-4.82809e-06
3.00295e-05
-5.15184e-06
3.02906e-05
-5.52232e-06
3.03809e-05
-5.86674e-06
3.0645e-05
-6.43936e-06
3.06989e-05
-6.89317e-06
3.0873e-05
-7.41492e-06
3.09314e-05
-8.01616e-06
3.09476e-05
-8.54138e-06
3.10352e-05
-9.15949e-06
3.09531e-05
-9.6091e-06
3.0976e-05
-1.02443e-05
3.08867e-05
-1.07538e-05
3.0949e-05
-1.11635e-05
3.1007e-05
-1.1836e-05
3.10669e-05
-1.21196e-05
3.14595e-05
-1.27735e-05
3.18378e-05
-1.30936e-05
3.23755e-05
-1.34765e-05
3.30458e-05
-1.36453e-05
3.38116e-05
-1.38411e-05
3.44268e-05
-1.34474e-05
3.50677e-05
-1.3148e-05
3.55248e-05
-1.24946e-05
3.58075e-05
-1.15509e-05
3.58999e-05
-1.05637e-05
3.593e-05
-9.33666e-06
3.56664e-05
-8.07246e-06
3.53386e-05
-6.49881e-06
3.4719e-05
-4.90917e-06
3.39188e-05
-2.97872e-06
3.27225e-05
-1.13141e-06
3.12681e-05
8.8155e-07
2.92853e-05
2.37234e-06
2.7437e-05
3.11872e-06
2.55067e-05
3.40584e-06
2.39363e-05
3.00917e-06
2.25547e-05
2.25607e-06
2.16656e-05
1.5467e-06
2.11939e-05
3.40984e-07
2.13281e-05
-8.78954e-07
2.14423e-05
-1.59647e-06
2.19074e-05
-2.20463e-06
2.22619e-05
-2.29115e-06
2.28259e-05
-2.33172e-06
2.32702e-05
-1.65088e-06
2.39008e-05
-9.53438e-07
2.42625e-05
3.37872e-07
2.47471e-05
1.54703e-06
2.49431e-05
3.36669e-06
2.51495e-05
4.88106e-06
2.53283e-05
6.62291e-06
2.53098e-05
8.20033e-06
2.54018e-05
9.67591e-06
2.5483e-05
1.10371e-05
2.53501e-05
1.2475e-05
2.53444e-05
1.36625e-05
2.5186e-05
1.47012e-05
2.48185e-05
1.57003e-05
2.43727e-05
1.65567e-05
2.41972e-05
1.67256e-05
2.40397e-05
1.73034e-05
2.37501e-05
1.7961e-05
2.39124e-05
1.84947e-05
2.41715e-05
1.94608e-05
2.3871e-05
2.04229e-05
2.28031e-05
2.19279e-05
2.07511e-05
2.2444e-05
1.96937e-05
2.10021e-05
1.7776e-05
2.40463e-05
2.08195e-05
1.90465e-05
3.16714e-05
1.98792e-05
2.02822e-05
-5.44317e-08
2.00177e-05
1.03015e-07
1.98544e-05
6.5906e-08
1.98505e-05
-8.69359e-08
1.99475e-05
-2.31137e-07
2.00646e-05
-2.97439e-07
2.01585e-05
-3.32564e-07
2.02005e-05
-2.86002e-07
2.02161e-05
-2.33081e-07
2.02325e-05
-2.08918e-07
2.02398e-05
-1.69229e-07
2.0263e-05
-1.94365e-07
2.02921e-05
-1.99237e-07
2.0332e-05
-2.07776e-07
2.0385e-05
-2.18304e-07
2.04355e-05
-1.94416e-07
2.04845e-05
-1.76789e-07
2.05249e-05
-1.54464e-07
2.05539e-05
-1.35842e-07
2.05748e-05
-1.36558e-07
2.05849e-05
-1.32456e-07
2.05959e-05
-1.47423e-07
2.06052e-05
-1.46121e-07
2.06211e-05
-1.43687e-07
2.06393e-05
-1.28124e-07
2.06652e-05
-9.46914e-08
2.06967e-05
-7.30313e-08
2.07365e-05
-3.88553e-08
2.07724e-05
2.80655e-09
2.08291e-05
-8.55944e-09
2.08723e-05
2.25628e-08
2.0925e-05
-1.39405e-08
2.09764e-05
-3.60883e-08
2.10138e-05
-6.72818e-08
2.10532e-05
-1.28883e-07
2.10805e-05
-1.66364e-07
2.11114e-05
-2.12824e-07
2.11325e-05
-2.52e-07
2.11549e-05
-2.80158e-07
2.11732e-05
-2.97515e-07
2.12033e-05
-3.22929e-07
2.12182e-05
-3.02718e-07
2.12403e-05
-3.25307e-07
2.12573e-05
-2.98096e-07
2.12631e-05
-2.86051e-07
2.12739e-05
-2.65798e-07
2.12649e-05
-2.2981e-07
2.12489e-05
-1.87417e-07
2.12303e-05
-1.57532e-07
2.11894e-05
-7.64933e-08
2.1163e-05
-4.54568e-08
2.11207e-05
6.25746e-08
2.10791e-05
1.352e-07
2.10596e-05
2.10532e-07
2.10132e-05
3.2953e-07
2.10148e-05
3.7687e-07
2.09987e-05
4.80715e-07
2.09864e-05
5.31008e-07
2.09955e-05
5.43635e-07
2.0987e-05
6.01824e-07
2.10277e-05
5.49875e-07
2.10438e-05
5.85291e-07
2.10878e-05
5.2366e-07
2.11577e-05
4.70077e-07
2.12103e-05
4.24703e-07
2.12996e-05
2.9364e-07
2.13788e-05
1.79636e-07
2.14135e-05
6.97151e-08
2.14907e-05
-1.67342e-07
2.15147e-05
-2.29834e-07
2.15563e-05
-4.11141e-07
2.16349e-05
-5.24338e-07
2.16582e-05
-4.83626e-07
2.17913e-05
-6.93757e-07
2.18971e-05
-5.80485e-07
2.20309e-05
-6.72922e-07
2.22732e-05
-7.61804e-07
2.24391e-05
-6.4202e-07
2.27421e-05
-8.63163e-07
2.30161e-05
-8.61411e-07
2.32775e-05
-8.80684e-07
2.3644e-05
-1.23944e-06
2.38903e-05
-1.09942e-06
2.42066e-05
-1.46372e-06
2.44829e-05
-1.59218e-06
2.47062e-05
-1.58675e-06
2.4939e-05
-1.97663e-06
2.51551e-05
-1.81948e-06
2.52772e-05
-1.97399e-06
2.5481e-05
-2.01282e-06
2.55937e-05
-1.81405e-06
2.56808e-05
-1.81522e-06
2.58415e-05
-1.67845e-06
2.58667e-05
-1.35342e-06
2.59345e-05
-1.37616e-06
2.59998e-05
-9.99641e-07
2.59528e-05
-8.62814e-07
2.59365e-05
-7.7203e-07
2.59542e-05
-4.14935e-07
2.58398e-05
-3.8307e-07
2.59144e-05
-1.81455e-07
2.59235e-05
8.74417e-08
2.59881e-05
2.02834e-09
2.61659e-05
2.57808e-07
2.63449e-05
7.67258e-08
2.65349e-05
-6.74501e-08
2.6822e-05
-1.82079e-07
2.70914e-05
-6.933e-07
2.7356e-05
-8.67705e-07
2.7671e-05
-1.31499e-06
2.80099e-05
-1.8374e-06
2.82998e-05
-1.98361e-06
2.86784e-05
-2.62658e-06
2.89337e-05
-2.8494e-06
2.93497e-05
-3.17907e-06
2.95312e-05
-3.5401e-06
2.98416e-05
-3.68097e-06
3.00195e-05
-3.88689e-06
3.02602e-05
-4.04819e-06
3.03146e-05
-4.07538e-06
3.05018e-05
-4.14457e-06
3.05447e-05
-4.21378e-06
3.05837e-05
-4.1028e-06
3.07286e-05
-4.28922e-06
3.0689e-05
-4.18209e-06
3.0839e-05
-4.37715e-06
3.08072e-05
-4.41767e-06
3.09342e-05
-4.70965e-06
3.08988e-05
-4.79263e-06
3.09589e-05
-5.21202e-06
3.09174e-05
-5.4808e-06
3.09096e-05
-5.85889e-06
3.0799e-05
-6.32876e-06
3.07085e-05
-6.80269e-06
3.06332e-05
-7.33965e-06
3.04286e-05
-7.81151e-06
3.03105e-05
-8.42333e-06
3.01622e-05
-9.01124e-06
3.00055e-05
-9.45235e-06
2.99242e-05
-1.01631e-05
2.98431e-05
-1.06727e-05
3.00077e-05
-1.1328e-05
3.01075e-05
-1.19359e-05
3.05177e-05
-1.25298e-05
3.10374e-05
-1.32932e-05
3.16636e-05
-1.37197e-05
3.23604e-05
-1.41733e-05
3.3151e-05
-1.44359e-05
3.37684e-05
-1.44584e-05
3.425e-05
-1.3929e-05
3.46262e-05
-1.35242e-05
3.46562e-05
-1.25245e-05
3.46179e-05
-1.15126e-05
3.44267e-05
-1.03725e-05
3.40772e-05
-8.98721e-06
3.36069e-05
-7.60213e-06
3.32096e-05
-6.10154e-06
3.26527e-05
-4.3522e-06
3.20504e-05
-2.37647e-06
3.09944e-05
-7.53901e-08
2.97006e-05
2.1753e-06
2.80117e-05
4.06124e-06
2.61574e-05
4.97303e-06
2.43016e-05
5.26168e-06
2.26643e-05
4.64646e-06
2.13885e-05
3.53191e-06
2.04532e-05
2.48201e-06
2.04687e-05
3.25406e-07
2.0354e-05
-7.64234e-07
2.05027e-05
-1.74517e-06
2.07135e-05
-2.41538e-06
2.12378e-05
-2.81549e-06
2.19535e-05
-3.04739e-06
2.27244e-05
-2.42176e-06
2.34356e-05
-1.66464e-06
2.41582e-05
-3.84782e-07
2.46096e-05
1.0957e-06
2.51534e-05
2.8229e-06
2.52147e-05
4.81969e-06
2.5417e-05
6.42062e-06
2.52107e-05
8.40664e-06
2.4988e-05
9.89862e-06
2.49444e-05
1.10807e-05
2.49719e-05
1.24475e-05
2.49145e-05
1.37198e-05
2.50188e-05
1.4597e-05
2.48513e-05
1.58678e-05
2.45319e-05
1.68761e-05
2.38954e-05
1.73622e-05
2.35636e-05
1.76352e-05
2.34496e-05
1.80751e-05
2.35929e-05
1.83513e-05
2.41219e-05
1.89317e-05
2.48052e-05
1.97396e-05
2.58915e-05
2.08415e-05
2.46716e-05
2.3664e-05
2.45465e-05
2.11272e-05
2.16839e-05
2.69089e-05
2.4363e-05
1.63674e-05
3.03941e-05
2.56403e-05
2.51777e-05
-2.95869e-08
2.5219e-05
6.17578e-08
2.52967e-05
-1.17936e-08
2.5391e-05
-1.81267e-07
2.54741e-05
-3.14229e-07
2.55449e-05
-3.68227e-07
2.55995e-05
-3.87169e-07
2.56164e-05
-3.02925e-07
2.56273e-05
-2.43984e-07
2.56296e-05
-2.11241e-07
2.56197e-05
-1.59332e-07
2.56202e-05
-1.94881e-07
2.56152e-05
-1.9418e-07
2.56198e-05
-2.12413e-07
2.56396e-05
-2.38056e-07
2.56667e-05
-2.21527e-07
2.57014e-05
-2.11543e-07
2.57392e-05
-1.92261e-07
2.57621e-05
-1.58745e-07
2.57849e-05
-1.59301e-07
2.57812e-05
-1.28787e-07
2.57794e-05
-1.45667e-07
2.57648e-05
-1.31432e-07
2.57583e-05
-1.37222e-07
2.57565e-05
-1.26293e-07
2.57619e-05
-1.00094e-07
2.57881e-05
-9.92468e-08
2.58127e-05
-6.3451e-08
2.58521e-05
-3.66307e-08
2.58927e-05
-4.91328e-08
2.59309e-05
-1.56963e-08
2.59639e-05
-4.69008e-08
2.59998e-05
-7.20322e-08
2.60113e-05
-7.8717e-08
2.60365e-05
-1.54125e-07
2.60398e-05
-1.69654e-07
2.60475e-05
-2.20469e-07
2.60576e-05
-2.62111e-07
2.60521e-05
-2.74707e-07
2.60657e-05
-3.11109e-07
2.60615e-05
-3.18714e-07
2.60734e-05
-3.14585e-07
2.60684e-05
-3.20341e-07
2.60732e-05
-3.02883e-07
2.60609e-05
-2.73724e-07
2.60524e-05
-2.57359e-07
2.60342e-05
-2.11556e-07
2.60056e-05
-1.58819e-07
2.59803e-05
-1.32243e-07
2.59433e-05
-3.9553e-08
2.5909e-05
-1.10966e-08
2.58753e-05
9.6254e-08
2.58377e-05
1.7281e-07
2.58231e-05
2.25133e-07
2.57942e-05
3.58454e-07
2.57884e-05
3.82621e-07
2.57918e-05
4.77284e-07
2.57853e-05
5.37597e-07
2.57991e-05
5.29783e-07
2.58089e-05
5.92068e-07
2.58212e-05
5.37495e-07
2.587e-05
5.3651e-07
2.58853e-05
5.08426e-07
2.59427e-05
4.12591e-07
2.59923e-05
3.75107e-07
2.60373e-05
2.4873e-07
2.61019e-05
1.14943e-07
2.61358e-05
3.58163e-08
2.61713e-05
-2.02791e-07
2.62148e-05
-2.73366e-07
2.6244e-05
-4.40352e-07
2.63002e-05
-5.80531e-07
2.63612e-05
-5.44609e-07
2.6442e-05
-7.74544e-07
2.65511e-05
-6.89539e-07
2.66585e-05
-7.804e-07
2.68362e-05
-9.39486e-07
2.69739e-05
-7.79699e-07
2.7208e-05
-1.09731e-06
2.73947e-05
-1.04803e-06
2.76156e-05
-1.10165e-06
2.78571e-05
-1.48096e-06
2.80281e-05
-1.27039e-06
2.82766e-05
-1.71218e-06
2.84016e-05
-1.71724e-06
2.85976e-05
-1.78277e-06
2.87016e-05
-2.08054e-06
2.88006e-05
-1.91849e-06
2.89102e-05
-2.08362e-06
2.89379e-05
-2.04055e-06
2.8983e-05
-1.85911e-06
2.90556e-05
-1.8878e-06
2.8988e-05
-1.61092e-06
2.91024e-05
-1.46773e-06
2.90436e-05
-1.31737e-06
2.9068e-05
-1.0241e-06
2.91244e-05
-9.19136e-07
2.90519e-05
-6.99568e-07
2.91251e-05
-4.88109e-07
2.91456e-05
-4.03575e-07
2.9129e-05
-1.64861e-07
2.93299e-05
-1.13523e-07
2.93676e-05