/*--------------------------------*- C++ -*----------------------------------*\
| =========                 |                                                 |
| \\      /  F ield         | OpenFOAM: The Open Source CFD Toolbox           |
|  \\    /   O peration     | Version:  2.4.0                                 |
|   \\  /    A nd           | Web:      www.OpenFOAM.org                      |
|    \\/     M anipulation  |                                                 |
\*---------------------------------------------------------------------------*/
FoamFile
{
    version     2.0;
    format      ascii;
    class       volVectorField;
    location    "1.33";
    object      U;
}
// * * * * * * * * * * * * * * * * * * * * * * * * * * * * * * * * * * * * * //

dimensions      [0 1 -1 0 0 0 0];

internalField   nonuniform List<vector> 
8800
(
(8.09283 0.38778 0)
(5.45168 0.242624 0)
(3.90888 0.0430764 0)
(3.16114 -0.0155867 0)
(2.79402 -0.0181934 0)
(2.60829 -0.0113116 0)
(2.47283 -0.00523588 0)
(2.39279 -0.0027549 0)
(2.30481 -0.00105948 0)
(2.2659 -0.00110235 0)
(2.20025 -0.000317683 0)
(2.18431 -0.000285672 0)
(2.12517 0.000190252 0)
(2.12238 -0.000601353 0)
(2.0585 0.00152196 0)
(2.05835 -0.00068933 0)
(2.00034 9.21415e-05 0)
(2.00245 -0.00216064 0)
(1.99545 0.0105592 0)
(1.78748 -0.0654302 0)
(10.0817 0.838138 0)
(9.66802 0.868369 0)
(8.8586 0.506811 0)
(8.10307 0.261971 0)
(7.4682 0.137987 0)
(7.0384 0.0813469 0)
(6.66205 0.0554094 0)
(6.43866 0.0396955 0)
(6.18222 0.0309532 0)
(6.07285 0.0231324 0)
(5.87539 0.0197189 0)
(5.83317 0.0166652 0)
(5.66481 0.016366 0)
(5.65926 0.0126975 0)
(5.4913 0.0198699 0)
(5.49992 0.00980332 0)
(5.35558 0.0179948 0)
(5.34038 -0.00388516 0)
(5.30503 0.0282276 0)
(5.15164 -0.0323653 0)
(10.0469 0.62915 0)
(10.6851 0.864844 0)
(10.8357 0.600843 0)
(10.7331 0.374262 0)
(10.41 0.25608 0)
(10.1441 0.195844 0)
(9.77462 0.154695 0)
(9.5681 0.12175 0)
(9.23662 0.0955842 0)
(9.12022 0.0757992 0)
(8.83949 0.0610357 0)
(8.78841 0.0498205 0)
(8.55081 0.0455974 0)
(8.54318 0.0361412 0)
(8.31294 0.0481421 0)
(8.32461 0.0269664 0)
(8.13272 0.0454577 0)
(8.10723 0.00429645 0)
(8.02486 0.0335957 0)
(7.95924 -0.0823454 0)
(9.95351 0.456357 0)
(10.6302 0.708595 0)
(11.1005 0.542715 0)
(11.4532 0.354931 0)
(11.4771 0.257061 0)
(11.5526 0.228549 0)
(11.3942 0.202047 0)
(11.4094 0.176044 0)
(11.1878 0.150026 0)
(11.193 0.119555 0)
(10.9702 0.111548 0)
(10.9697 0.0887191 0)
(10.7644 0.0857433 0)
(10.7762 0.0675317 0)
(10.5635 0.0854389 0)
(10.5724 0.0487626 0)
(10.4035 0.0811406 0)
(10.3544 0.0239331 0)
(10.2632 0.0499792 0)
(10.244 -0.0967686 0)
(9.94147 0.335417 0)
(10.5033 0.58068 0)
(10.9495 0.455507 0)
(11.4053 0.297943 0)
(11.55 0.211487 0)
(11.7902 0.188989 0)
(11.7711 0.179548 0)
(11.9409 0.166379 0)
(11.8781 0.151362 0)
(11.9951 0.135712 0)
(11.9443 0.108727 0)
(12.0193 0.106352 0)
(11.9486 0.089395 0)
(12.0202 0.0873092 0)
(11.9264 0.10105 0)
(11.9522 0.0749753 0)
(11.9087 0.0904412 0)
(11.853 0.0691602 0)
(11.8228 0.0456173 0)
(11.8115 -0.0213938 0)
(9.98154 0.257262 0)
(10.3973 0.448895 0)
(10.812 0.37894 0)
(11.2718 0.250412 0)
(11.4323 0.147954 0)
(11.7123 0.16321 0)
(11.7142 0.142244 0)
(11.8998 0.142991 0)
(11.9387 0.12476 0)
(12.0406 0.0929465 0)
(12.1075 0.115163 0)
(12.1995 0.0824225 0)
(12.2338 0.0870854 0)
(12.3323 0.0736563 0)
(12.3518 0.0939985 0)
(12.4043 0.0599373 0)
(12.4473 0.0887715 0)
(12.4626 0.0886276 0)
(12.4879 0.0723982 0)
(12.5146 0.0167823 0)
(10.0114 0.159031 0)
(10.2738 0.379013 0)
(10.7758 0.266165 0)
(11.0836 0.224269 0)
(11.4408 0.119386 0)
(11.461 0.10284 0)
(11.8076 0.117451 0)
(11.6646 0.0999812 0)
(11.9361 0.106923 0)
(11.9373 0.105659 0)
(12.0186 0.0372864 0)
(12.1262 0.103013 0)
(12.2244 0.0248531 0)
(12.2602 0.0857313 0)
(12.3536 0.0576533 0)
(12.4439 0.0867964 0)
(12.4391 0.0298332 0)
(12.4874 0.121607 0)
(12.5901 0.0501822 0)
(12.5697 0.164734 0)
(9.95511 0.128439 0)
(10.3023 0.234757 0)
(10.6643 0.207717 0)
(11.0243 0.154747 0)
(11.3183 0.0732574 0)
(11.5614 0.0924624 0)
(11.518 0.0542236 0)
(11.8301 0.125084 0)
(11.6604 0.0111753 0)
(11.9961 0.0914243 0)
(11.93 0.0510134 0)
(12.071 0.0568495 0)
(12.1137 0.0285194 0)
(12.2109 0.0733751 0)
(12.2825 0.00626996 0)
(12.3157 0.0742519 0)
(12.4342 0.037831 0)
(12.4768 0.103915 0)
(12.5087 0.0426712 0)
(12.4895 0.152623 0)
(10.0039 0.0474671 0)
(10.2458 0.173062 0)
(10.6097 0.102145 0)
(11.0209 0.120344 0)
(11.2472 0.029225 0)
(11.4562 0.0558815 0)
(11.5575 0.0408114 0)
(11.7108 0.0411539 0)
(11.7908 0.0638708 0)
(11.7438 0.0283236 0)
(11.9763 0.0135777 0)
(11.9683 0.057197 0)
(12.0991 -0.00630227 0)
(12.2052 0.0353995 0)
(12.2077 0.0450699 0)
(12.3159 0.0326971 0)
(12.3299 -0.00249931 0)
(12.4501 0.0687795 0)
(12.4683 0.0352152 0)
(12.4483 0.0272614 0)
(9.99898 0.0352441 0)
(10.2433 0.0323091 0)
(10.5894 0.0430824 0)
(10.9468 0.0295286 0)
(11.2711 0.0154515 0)
(11.3934 0.0274127 0)
(11.6449 -0.0118759 0)
(11.5335 0.0423919 0)
(11.7683 -0.0106225 0)
(11.8496 0.0295211 0)
(11.8683 0.00489763 0)
(12.0184 0.0157307 0)
(12.0607 -0.0132876 0)
(12.1012 0.0304733 0)
(12.2537 -0.00645687 0)
(12.2716 0.014106 0)
(12.3538 0.0159153 0)
(12.4155 0.0132357 0)
(12.4104 -0.00594737 0)
(12.3682 -0.00430603 0)
(10.0023 -0.0434628 0)
(10.2222 -0.019419 0)
(10.5931 -0.0616049 0)
(10.9776 -0.00814949 0)
(11.2179 -0.0294221 0)
(11.4836 -0.0196512 0)
(11.4734 -0.00208074 0)
(11.749 -0.0185095 0)
(11.6802 -0.0157214 0)
(11.8268 -0.0117193 0)
(11.9201 -0.0231654 0)
(11.9504 0.00527608 0)
(12.0686 -0.0199629 0)
(12.1648 -0.0140934 0)
(12.2156 0.00556852 0)
(12.2867 -0.0021642 0)
(12.3373 -0.0517589 0)
(12.3701 0.014869 0)
(12.4818 -0.0127024 0)
(12.3454 -0.0428 0)
(9.9954 -0.0494956 0)
(10.258 -0.165418 0)
(10.6139 -0.123042 0)
(10.9718 -0.0953324 0)
(11.29 -0.0515409 0)
(11.4302 -0.0277999 0)
(11.6182 -0.0735422 0)
(11.6214 -0.043606 0)
(11.7769 -0.0355325 0)
(11.8372 -0.0467075 0)
(11.9164 -0.0159843 0)
(12.0225 -0.0291962 0)
(12.0727 -0.0495038 0)
(12.1534 -0.022485 0)
(12.2348 -0.0234789 0)
(12.3196 -0.0412318 0)
(12.362 -0.0122717 0)
(12.4272 -0.0547864 0)
(12.4357 -0.0595339 0)
(12.3917 -0.0323942 0)
(10.0033 -0.135762 0)
(10.2647 -0.226663 0)
(10.6703 -0.216043 0)
(11.0358 -0.13921 0)
(11.3097 -0.0902464 0)
(11.5004 -0.0869646 0)
(11.6121 -0.0614042 0)
(11.734 -0.0834619 0)
(11.7774 -0.0702611 0)
(11.8833 -0.0655081 0)
(11.9593 -0.0584449 0)
(12.0536 -0.0451457 0)
(12.1522 -0.0433198 0)
(12.1897 -0.055917 0)
(12.2661 -0.0383064 0)
(12.3594 -0.0460504 0)
(12.4143 -0.0821182 0)
(12.472 -0.0547207 0)
(12.4998 -0.0521051 0)
(12.4225 -0.0891843 0)
(10.025 -0.163922 0)
(10.2942 -0.364337 0)
(10.7513 -0.289339 0)
(11.0986 -0.207766 0)
(11.4149 -0.120383 0)
(11.5475 -0.101784 0)
(11.6858 -0.125542 0)
(11.7639 -0.114773 0)
(11.8702 -0.0819151 0)
(11.9451 -0.100917 0)
(12.0546 -0.0597055 0)
(12.1135 -0.0767825 0)
(12.1927 -0.0720624 0)
(12.2705 -0.0637627 0)
(12.3512 -0.0555123 0)
(12.4087 -0.0930106 0)
(12.4841 -0.0623826 0)
(12.5155 -0.0964815 0)
(12.5687 -0.113804 0)
(12.4983 -0.0932521 0)
(10.0643 -0.264945 0)
(10.3129 -0.442831 0)
(10.8978 -0.378146 0)
(11.1813 -0.248008 0)
(11.5339 -0.162404 0)
(11.5964 -0.155243 0)
(11.8181 -0.135515 0)
(11.8245 -0.143234 0)
(11.984 -0.118784 0)
(11.9989 -0.125379 0)
(12.1497 -0.09134 0)
(12.147 -0.0938114 0)
(12.2787 -0.0757502 0)
(12.2772 -0.0961364 0)
(12.3859 -0.0710897 0)
(12.3835 -0.0973806 0)
(12.4635 -0.0972857 0)
(12.4492 -0.129099 0)
(12.4914 -0.106123 0)
(12.3518 -0.135946 0)
(10.063 -0.343579 0)
(10.3834 -0.568051 0)
(11.0591 -0.46682 0)
(11.2944 -0.293934 0)
(11.6686 -0.209008 0)
(11.6597 -0.185704 0)
(11.8957 -0.186665 0)
(11.8075 -0.171392 0)
(12.0008 -0.140728 0)
(11.8832 -0.142933 0)
(12.0455 -0.105893 0)
(11.9085 -0.106263 0)
(12.047 -0.0987247 0)
(11.9068 -0.100385 0)
(12.0224 -0.077791 0)
(11.8653 -0.114458 0)
(11.95 -0.0914851 0)
(11.786 -0.13008 0)
(11.7896 -0.122765 0)
(11.5506 -0.162176 0)
(10.0127 -0.461202 0)
(10.5564 -0.703177 0)
(11.1811 -0.545198 0)
(11.3597 -0.352 0)
(11.5676 -0.261233 0)
(11.4456 -0.228416 0)
(11.51 -0.20129 0)
(11.2792 -0.174172 0)
(11.3221 -0.146859 0)
(11.0496 -0.133611 0)
(11.1012 -0.101965 0)
(10.835 -0.0946701 0)
(10.8923 -0.0819958 0)
(10.6244 -0.0843393 0)
(10.7024 -0.0658081 0)
(10.4196 -0.0881968 0)
(10.4884 -0.0724533 0)
(10.1994 -0.11362 0)
(10.2094 -0.0869798 0)
(9.87449 -0.165766 0)
(10.0661 -0.63222 0)
(10.6529 -0.861948 0)
(10.8729 -0.602601 0)
(10.6825 -0.373559 0)
(10.4651 -0.255799 0)
(10.0767 -0.19538 0)
(9.84884 -0.154858 0)
(9.47784 -0.1233 0)
(9.33794 -0.093331 0)
(9.00353 -0.0800087 0)
(8.95194 -0.0578691 0)
(8.66861 -0.0511231 0)
(8.66583 -0.0457651 0)
(8.40125 -0.0470458 0)
(8.4421 -0.0364966 0)
(8.1646 -0.05102 0)
(8.21376 -0.0470887 0)
(7.91764 -0.0665614 0)
(7.92591 -0.0680694 0)
(7.58253 -0.0935008 0)
(10.0852 -0.839086 0)
(9.65484 -0.867454 0)
(8.87356 -0.506799 0)
(8.07847 -0.261624 0)
(7.49704 -0.137996 0)
(7.00171 -0.0820145 0)
(6.703 -0.0546929 0)
(6.3883 -0.0407886 0)
(6.24022 -0.028805 0)
(6.00218 -0.0265021 0)
(5.94484 -0.0181575 0)
(5.75427 -0.0168528 0)
(5.74057 -0.0160883 0)
(5.5598 -0.0191177 0)
(5.57419 -0.0137408 0)
(5.38147 -0.0230669 0)
(5.39743 -0.0217542 0)
(5.17678 -0.0312369 0)
(5.17036 -0.0361828 0)
(4.87916 -0.0204503 0)
(8.0914 -0.387938 0)
(5.44855 -0.242372 0)
(3.91172 -0.0429791 0)
(3.15604 0.0153851 0)
(2.80184 0.0182426 0)
(2.59673 0.0111776 0)
(2.48605 0.0054928 0)
(2.37605 0.00214623 0)
(2.32368 0.0020691 0)
(2.24319 -0.000104856 0)
(2.22021 0.000857123 0)
(2.15772 0.000390115 0)
(2.15071 -5.65743e-05 0)
(2.08398 -0.0012958 0)
(2.08173 0.000339624 0)
(2.00974 -0.00246174 0)
(1.99951 -0.00127162 0)
(1.90924 -0.00350105 0)
(1.87492 -0.00386628 0)
(1.72387 0.0105757 0)
(2.23454 -0.128261 0)
(2.3646 -0.0605599 0)
(2.48167 -0.0138984 0)
(2.56399 0.00293015 0)
(2.65358 -0.00146533 0)
(2.71511 -0.0116413 0)
(2.7954 -0.0250136 0)
(2.85678 -0.0250885 0)
(2.93109 -0.0214324 0)
(2.98119 -0.0162527 0)
(3.03866 -0.016092 0)
(3.08081 -0.0198309 0)
(3.13159 -0.0228189 0)
(3.17162 -0.0212079 0)
(3.21756 -0.0183788 0)
(3.25967 -0.00996752 0)
(3.30155 -0.00310429 0)
(3.34748 0.00136513 0)
(3.38776 -0.00044052 0)
(3.4362 -0.00786141 0)
(3.46973 -0.0160105 0)
(3.51272 -0.0227292 0)
(3.53538 -0.0248018 0)
(3.57673 -0.022918 0)
(3.59291 -0.013666 0)
(3.63526 0.000786424 0)
(3.65326 0.0172435 0)
(3.70827 0.0345477 0)
(3.7349 0.0512385 0)
(3.80413 0.0618338 0)
(3.84438 0.0650244 0)
(3.9218 0.0611564 0)
(3.96129 0.0486419 0)
(4.03315 0.0280908 0)
(4.06526 0.00176607 0)
(4.10895 -0.0189123 0)
(4.12463 -0.0404032 0)
(4.15324 -0.0609577 0)
(4.16802 -0.070267 0)
(4.1759 -0.0763184 0)
(4.19873 -0.0765956 0)
(4.20187 -0.0791132 0)
(4.23613 -0.0785119 0)
(4.23122 -0.0770928 0)
(4.26921 -0.0750309 0)
(4.25848 -0.0736745 0)
(4.29495 -0.0709971 0)
(4.2819 -0.0674502 0)
(4.30744 -0.0617309 0)
(4.28528 -0.0519742 0)
(4.29588 -0.0333958 0)
(4.27123 -0.0116738 0)
(4.27956 0.0236789 0)
(4.25088 0.0524195 0)
(4.2725 0.0921887 0)
(4.2397 0.131857 0)
(4.28008 0.162375 0)
(4.30313 0.1803 0)
(4.35679 0.199294 0)
(4.39963 0.216422 0)
(4.45217 0.217539 0)
(4.53575 0.236444 0)
(4.58314 0.225058 0)
(4.71256 0.239454 0)
(4.76617 0.220352 0)
(4.92258 0.191867 0)
(4.98526 0.154815 0)
(5.12829 0.0766361 0)
(5.13824 0.0204088 0)
(5.20639 -0.057069 0)
(5.11041 -0.104977 0)
(5.14873 -0.137067 0)
(5.01659 -0.135707 0)
(5.10809 -0.14766 0)
(5.01005 -0.108266 0)
(5.17847 -0.0995815 0)
(5.09107 -0.0745987 0)
(5.33684 -0.0400913 0)
(5.26635 -0.0397034 0)
(5.53609 -0.0453582 0)
(5.54304 -0.0429562 0)
(5.73239 -0.105418 0)
(5.86053 -0.125461 0)
(5.94974 -0.206291 0)
(6.14818 -0.265653 0)
(6.16557 -0.325804 0)
(6.41261 -0.403449 0)
(6.338 -0.410905 0)
(6.64242 -0.495928 0)
(6.52464 -0.4471 0)
(6.79978 -0.499841 0)
(6.70081 -0.442041 0)
(6.9031 -0.42483 0)
(6.83253 -0.375762 0)
(6.93021 -0.33918 0)
(6.90224 -0.344983 0)
(6.90114 -0.304729 0)
(6.97764 -0.308662 0)
(6.84115 -0.264685 0)
(6.98933 -0.188828 0)
(6.86372 -0.0662376 0)
(6.95828 -0.0269538 0)
(7.05158 0.168301 0)
(7.07804 0.211929 0)
(7.34029 0.209751 0)
(7.34828 0.25669 0)
(7.60396 0.162748 0)
(7.63 0.0218685 0)
(7.77051 2.02669e-05 0)
(7.91489 -0.198143 0)
(7.92753 -0.281403 0)
(8.12419 -0.374075 0)
(8.30983 -0.516946 0)
(8.32253 -0.654274 0)
(8.71567 -0.667772 0)
(8.75847 -0.895476 0)
(9.01029 -0.89972 0)
(9.16051 -1.0127 0)
(9.58989 -1.07421 0)
(9.35537 -1.14317 0)
(10.0499 -1.12326 0)
(9.77831 -1.25066 0)
(10.4117 -1.19626 0)
(10.1509 -1.26498 0)
(10.8141 -1.2521 0)
(10.4551 -1.35728 0)
(11.136 -1.28293 0)
(10.7895 -1.49513 0)
(11.3756 -1.41646 0)
(11.1105 -1.6411 0)
(11.6161 -1.63258 0)
(11.3538 -1.89862 0)
(11.8415 -1.93889 0)
(11.7131 -2.23161 0)
(12.011 -2.2945 0)
(12.0246 -2.59311 0)
(12.3008 -2.7441 0)
(12.2684 -2.95117 0)
(12.4632 -3.15893 0)
(12.5715 -3.33524 0)
(12.6359 -3.56226 0)
(12.698 -3.64591 0)
(12.7523 -3.8508 0)
(12.9305 -4.00978 0)
(12.8001 -4.03839 0)
(13.0919 -4.16529 0)
(13.0292 -4.24223 0)
(13.3668 -4.20921 0)
(13.3709 -4.23233 0)
(13.7081 -4.14034 0)
(13.9159 -4.00636 0)
(14.0732 -3.88808 0)
(14.3777 -3.61079 0)
(14.327 -3.40974 0)
(14.586 -3.01545 0)
(14.3957 -2.75563 0)
(14.5292 -2.25294 0)
(14.1588 -1.88475 0)
(14.1296 -1.35885 0)
(13.4971 -0.937336 0)
(13.1385 -0.436504 0)
(12.271 -0.177553 0)
(11.6503 0.128914 0)
(10.8104 0.149955 0)
(10.1165 0.239073 0)
(9.5417 0.0619549 0)
(9.08998 0.0517784 0)
(8.70823 -0.139874 0)
(8.6401 -0.21434 0)
(8.64023 -0.479819 0)
(8.8171 -0.460775 0)
(8.96533 -0.569577 0)
(9.24669 -0.448831 0)
(9.4189 -0.353193 0)
(9.68881 -0.0181446 0)
(9.80851 0.264465 0)
(10.0666 0.731355 0)
(10.0881 1.19444 0)
(10.1744 1.7655 0)
(10.342 2.18155 0)
(10.2466 2.71753 0)
(10.2807 3.20086 0)
(10.2803 3.65034 0)
(10.1559 4.02624 0)
(10.1042 4.55687 0)
(9.91618 4.77724 0)
(9.70139 4.9562 0)
(9.51964 5.26699 0)
(9.28596 5.48458 0)
(9.23871 5.66181 0)
(9.07244 5.8848 0)
(9.29041 6.25272 0)
(9.50623 6.54785 0)
(9.14725 6.38408 0)
(8.6554 6.59868 0)
(8.26693 6.5046 0)
(7.23011 6.39828 0)
(6.3048 6.84052 0)
(6.47088 7.33132 0)
(3.63656 10.1175 0)
(5.3121 -0.0831514 0)
(5.34722 -0.070577 0)
(5.36251 -0.0560428 0)
(5.36395 -0.0459724 0)
(5.37951 -0.0444076 0)
(5.40948 -0.0519432 0)
(5.45068 -0.0685095 0)
(5.49388 -0.0715241 0)
(5.53466 -0.0664777 0)
(5.56776 -0.0568552 0)
(5.5935 -0.0482342 0)
(5.62034 -0.0496604 0)
(5.63861 -0.0505071 0)
(5.66877 -0.0499901 0)
(5.68733 -0.0479363 0)
(5.72135 -0.0418446 0)
(5.73871 -0.0353102 0)
(5.77224 -0.0312798 0)
(5.78674 -0.0294901 0)
(5.81992 -0.0337741 0)
(5.82849 -0.0369737 0)
(5.86001 -0.0414735 0)
(5.86249 -0.0420063 0)
(5.89361 -0.0392938 0)
(5.89279 -0.0324819 0)
(5.92541 -0.0194996 0)
(5.92434 -0.00792403 0)
(5.9622 0.00863566 0)
(5.96861 0.0194788 0)
(6.01058 0.0277881 0)
(6.03046 0.0305913 0)
(6.07292 0.0253354 0)
(6.10436 0.0160306 0)
(6.13556 -0.000337901 0)
(6.17675 -0.0199565 0)
(6.18879 -0.0390221 0)
(6.23245 -0.0538538 0)
(6.22286 -0.0702299 0)
(6.27746 -0.0787119 0)
(6.25149 -0.0871183 0)
(6.31088 -0.0892241 0)
(6.27894 -0.090424 0)
(6.34358 -0.092449 0)
(6.30772 -0.0879719 0)
(6.36942 -0.0874711 0)
(6.33129 -0.0795262 0)
(6.38383 -0.0763152 0)
(6.34583 -0.0670012 0)
(6.38368 -0.0581053 0)
(6.34324 -0.0433898 0)
(6.36471 -0.0270233 0)
(6.32404 -0.000271841 0)
(6.33181 0.0225631 0)
(6.3002 0.0584347 0)
(6.29868 0.0855351 0)
(6.27979 0.123108 0)
(6.27395 0.149253 0)
(6.2786 0.173591 0)
(6.29197 0.18213 0)
(6.29866 0.19565 0)
(6.32759 0.201481 0)
(6.3303 0.195938 0)
(6.38919 0.203371 0)
(6.39716 0.182285 0)
(6.47697 0.169507 0)
(6.51166 0.143981 0)
(6.58377 0.0920829 0)
(6.65014 0.048987 0)
(6.67323 -0.0216617 0)
(6.74142 -0.0734612 0)
(6.68787 -0.116399 0)
(6.75834 -0.151256 0)
(6.66813 -0.152523 0)
(6.79867 -0.1677 0)
(6.70501 -0.153061 0)
(6.91182 -0.151616 0)
(6.83811 -0.138071 0)
(7.07437 -0.134459 0)
(7.06598 -0.124967 0)
(7.27828 -0.152966 0)
(7.35924 -0.152908 0)
(7.52459 -0.219828 0)
(7.66871 -0.240607 0)
(7.79745 -0.311652 0)
(7.95114 -0.379227 0)
(8.04684 -0.406296 0)
(8.21497 -0.522645 0)
(8.22431 -0.494042 0)
(8.44903 -0.588436 0)
(8.35194 -0.561621 0)
(8.60512 -0.558035 0)
(8.47733 -0.555815 0)
(8.69327 -0.474176 0)
(8.61709 -0.45517 0)
(8.73177 -0.407111 0)
(8.78882 -0.295035 0)
(8.73281 -0.316513 0)
(8.84434 -0.230238 0)
(8.73178 -0.138283 0)
(8.72948 -0.197309 0)
(8.66785 -0.0083687 0)
(8.66642 -0.00284601 0)
(8.62633 0.019049 0)
(8.74365 0.166391 0)
(8.80363 0.101986 0)
(8.92299 0.0578183 0)
(9.01215 0.103032 0)
(9.30223 -0.136667 0)
(9.08702 -0.135408 0)
(9.69003 -0.306152 0)
(9.33424 -0.433307 0)
(9.87325 -0.543694 0)
(9.7056 -0.665578 0)
(10.2447 -0.852929 0)
(9.8911 -0.846892 0)
(10.7067 -1.09053 0)
(10.225 -1.0603 0)
(10.9847 -1.18308 0)
(10.6459 -1.24283 0)
(11.2082 -1.25724 0)
(11.0503 -1.29603 0)
(11.4458 -1.28503 0)
(11.3698 -1.37049 0)
(11.5705 -1.26284 0)
(11.6953 -1.42966 0)
(11.5974 -1.32957 0)
(11.9284 -1.49129 0)
(11.7232 -1.45791 0)
(12.0473 -1.61296 0)
(11.873 -1.67073 0)
(12.2268 -1.82425 0)
(11.9666 -1.90271 0)
(12.3948 -2.11404 0)
(12.1601 -2.24986 0)
(12.4307 -2.42956 0)
(12.2626 -2.61613 0)
(12.5383 -2.83648 0)
(12.2593 -2.9878 0)
(12.5145 -3.19907 0)
(12.3124 -3.37521 0)
(12.4467 -3.59627 0)
(12.2845 -3.68329 0)
(12.405 -3.95174 0)
(12.3696 -4.0178 0)
(12.4618 -4.20453 0)
(12.6455 -4.30073 0)
(12.7131 -4.38717 0)
(13.1844 -4.40992 0)
(13.1955 -4.47228 0)
(13.803 -4.35222 0)
(13.7486 -4.29542 0)
(14.3039 -4.10305 0)
(14.2174 -3.86239 0)
(14.4182 -3.5528 0)
(14.3958 -3.16385 0)
(14.3745 -2.78926 0)
(14.2975 -2.25722 0)
(14.0397 -1.76181 0)
(13.8856 -1.13795 0)
(13.3862 -0.578123 0)
(12.9696 0.066141 0)
(12.107 0.472464 0)
(11.3593 0.71857 0)
(10.5468 0.81687 0)
(9.80926 0.710944 0)
(9.18686 0.526708 0)
(8.79273 0.382796 0)
(8.37572 0.0533568 0)
(8.45763 -0.257531 0)
(8.43772 -0.485623 0)
(8.69958 -0.661382 0)
(8.71574 -0.66019 0)
(9.12182 -0.693053 0)
(9.08498 -0.397087 0)
(9.59622 -0.190232 0)
(9.56677 0.232822 0)
(9.93405 0.642104 0)
(9.93894 1.19137 0)
(10.1305 1.69693 0)
(10.0335 2.33587 0)
(10.26 2.66582 0)
(10.0294 3.2164 0)
(10.2607 3.64137 0)
(10.1687 4.0927 0)
(10.1167 4.44428 0)
(10.1496 4.9018 0)
(9.99682 5.1826 0)
(9.87543 5.35317 0)
(9.67689 5.43562 0)
(9.68769 5.6576 0)
(9.64795 5.9131 0)
(9.38875 6.1273 0)
(9.79577 6.56538 0)
(9.79318 6.94957 0)
(9.30225 7.05042 0)
(8.99559 6.95717 0)
(8.33158 6.68316 0)
(6.56297 7.23518 0)
(9.13897 6.93457 0)
(6.33167 11.3946 0)
(8.00029 -0.0473571 0)
(8.00078 -0.00152171 0)
(7.97525 0.00556076 0)
(7.96466 -0.0237042 0)
(7.96067 -0.0579743 0)
(7.9922 -0.0792112 0)
(8.02558 -0.0946807 0)
(8.06174 -0.0878395 0)
(8.08624 -0.0770888 0)
(8.09984 -0.0735979 0)
(8.10232 -0.0632759 0)
(8.1125 -0.06766 0)
(8.10753 -0.0658903 0)
(8.13184 -0.0636434 0)
(8.13532 -0.0634178 0)
(8.16866 -0.0543235 0)
(8.17485 -0.0503287 0)
(8.20556 -0.0455138 0)
(8.20356 -0.0428048 0)
(8.23131 -0.045066 0)
(8.21931 -0.0463486 0)
(8.24675 -0.0512901 0)
(8.23183 -0.0512891 0)
(8.25905 -0.0481217 0)
(8.24904 -0.0439155 0)
(8.27033 -0.0293857 0)
(8.27437 -0.0223389 0)
(8.28298 -0.0090171 0)
(8.30681 0.00433632 0)
(8.3023 0.00234284 0)
(8.3461 0.0133448 0)
(8.33437 0.000963107 0)
(8.39143 -0.00536082 0)
(8.37115 -0.0186024 0)
(8.43423 -0.0383411 0)
(8.40375 -0.0524649 0)
(8.4677 -0.0682632 0)
(8.42726 -0.0819773 0)
(8.48901 -0.0912258 0)
(8.44988 -0.0978683 0)
(8.50201 -0.106309 0)
(8.46961 -0.100159 0)
(8.51506 -0.108715 0)
(8.48383 -0.0978909 0)
(8.52824 -0.0977243 0)
(8.48897 -0.0884846 0)
(8.53378 -0.0800382 0)
(8.48515 -0.0667404 0)
(8.52426 -0.0571496 0)
(8.47221 -0.0335459 0)
(8.49855 -0.0199039 0)
(8.44659 0.0120447 0)
(8.46666 0.0370554 0)
(8.41238 0.0649835 0)
(8.43775 0.0991854 0)
(8.37579 0.122315 0)
(8.41672 0.154004 0)
(8.34893 0.168723 0)
(8.41424 0.184763 0)
(8.34769 0.192757 0)
(8.41971 0.183936 0)
(8.36866 0.201004 0)
(8.43483 0.167069 0)
(8.41147 0.173777 0)
(8.48072 0.142314 0)
(8.47499 0.103774 0)
(8.54577 0.0764839 0)
(8.56579 0.017924 0)
(8.59445 -0.042597 0)
(8.6442 -0.0707301 0)
(8.61497 -0.141473 0)
(8.67494 -0.15667 0)
(8.62518 -0.165649 0)
(8.72235 -0.214829 0)
(8.66672 -0.170407 0)
(8.83715 -0.217119 0)
(8.78985 -0.210639 0)
(8.98029 -0.191473 0)
(9.01301 -0.249066 0)
(9.15186 -0.234831 0)
(9.26189 -0.263199 0)
(9.40698 -0.353629 0)
(9.48493 -0.32814 0)
(9.68969 -0.447891 0)
(9.70893 -0.489849 0)
(9.89025 -0.497346 0)
(9.95971 -0.642819 0)
(9.98638 -0.580267 0)
(10.1949 -0.649379 0)
(10.0399 -0.669198 0)
(10.3206 -0.581182 0)
(10.1751 -0.603354 0)
(10.2822 -0.5565 0)
(10.3649 -0.421146 0)
(10.2659 -0.468062 0)
(10.405 -0.325226 0)
(10.3563 -0.274138 0)
(10.3672 -0.29045 0)
(10.3802 -0.125679 0)
(10.4069 -0.133586 0)
(10.2926 -0.0666711 0)
(10.4426 0.0579843 0)
(10.3463 0.00983088 0)
(10.4243 0.110695 0)
(10.5338 0.0551662 0)
(10.5814 0.0203635 0)
(10.6275 -0.0325439 0)
(10.902 -0.162037 0)
(10.7779 -0.263188 0)
(11.1135 -0.358455 0)
(11.0759 -0.595789 0)
(11.2831 -0.581275 0)
(11.3607 -0.845341 0)
(11.5798 -0.913549 0)
(11.5088 -1.01093 0)
(11.9673 -1.14455 0)
(11.6206 -1.21186 0)
(12.1954 -1.29141 0)
(11.8233 -1.29948 0)
(12.3312 -1.4102 0)
(11.9059 -1.33395 0)
(12.5022 -1.46526 0)
(11.8961 -1.33619 0)
(12.5877 -1.47593 0)
(12.0185 -1.366 0)
(12.5098 -1.47099 0)
(12.1783 -1.4496 0)
(12.5091 -1.55224 0)
(12.2375 -1.55936 0)
(12.4995 -1.71423 0)
(12.3568 -1.78444 0)
(12.3609 -1.91414 0)
(12.4046 -2.09506 0)
(12.2666 -2.25656 0)
(12.3741 -2.42537 0)
(12.0892 -2.6326 0)
(12.3356 -2.79372 0)
(11.9265 -3.05197 0)
(12.198 -3.16488 0)
(11.8204 -3.44047 0)
(12.0926 -3.60239 0)
(11.8352 -3.80044 0)
(12.0792 -4.00579 0)
(11.9904 -4.12972 0)
(12.3743 -4.38861 0)
(12.4039 -4.49449 0)
(12.7883 -4.61312 0)
(13.0848 -4.72428 0)
(13.3392 -4.77818 0)
(13.6711 -4.65282 0)
(13.6879 -4.54888 0)
(14.0567 -4.30642 0)
(13.7182 -3.97215 0)
(13.9898 -3.6212 0)
(13.6196 -3.21093 0)
(13.6834 -2.7275 0)
(13.3164 -2.21228 0)
(13.3537 -1.64594 0)
(12.9493 -0.926401 0)
(12.8251 -0.215875 0)
(12.2093 0.447015 0)
(11.6663 1.09771 0)
(10.8015 1.35741 0)
(10.1143 1.49008 0)
(9.26211 1.28274 0)
(8.77013 0.98381 0)
(8.2015 0.66971 0)
(8.05979 0.188019 0)
(8.06808 -0.295675 0)
(8.13511 -0.524102 0)
(8.14966 -0.766697 0)
(8.34554 -0.80441 0)
(8.59775 -0.830778 0)
(8.98212 -0.660869 0)
(9.23991 -0.396717 0)
(9.63073 0.0252291 0)
(9.74821 0.456097 0)
(10.0352 1.07444 0)
(10.1812 1.58134 0)
(10.1592 2.20576 0)
(10.0951 2.85289 0)
(10.1269 3.25755 0)
(9.83904 3.69445 0)
(10.1441 4.16074 0)
(9.81742 4.53541 0)
(10.1422 4.81051 0)
(9.93513 5.32228 0)
(9.94841 5.65205 0)
(9.75494 5.71077 0)
(9.37624 5.77163 0)
(9.48771 5.90149 0)
(9.38952 6.09868 0)
(9.44187 6.19309 0)
(10.0586 6.72256 0)
(10.1891 7.42521 0)
(9.89431 7.66253 0)
(10.9662 7.38002 0)
(7.5662 8.43871 0)
(10.7616 5.19682 0)
(8.56784 10.4287 0)
(10.3044 -0.014034 0)
(10.2797 0.0413894 0)
(10.1794 0.0248206 0)
(10.1433 -0.0255386 0)
(10.1175 -0.0768451 0)
(10.1527 -0.101255 0)
(10.1934 -0.114807 0)
(10.2312 -0.0960379 0)
(10.2589 -0.0748469 0)
(10.2744 -0.06313 0)
(10.2629 -0.0478637 0)
(10.2758 -0.0585544 0)
(10.2411 -0.0623123 0)
(10.2597 -0.070254 0)
(10.2358 -0.0777524 0)
(10.2645 -0.0724982 0)
(10.2583 -0.0672348 0)
(10.2906 -0.0579328 0)
(10.2878 -0.0488573 0)
(10.3161 -0.0454914 0)
(10.3035 -0.0402835 0)
(10.3212 -0.0442483 0)
(10.3036 -0.0423045 0)
(10.3109 -0.0442705 0)
(10.3075 -0.0374424 0)
(10.2977 -0.0312776 0)
(10.3271 -0.0228654 0)
(10.3001 -0.0149178 0)
(10.3535 -0.00195681 0)
(10.3212 -0.00663506 0)
(10.3801 0.00187567 0)
(10.3526 -0.00885081 0)
(10.4042 -0.0180542 0)
(10.3815 -0.0250072 0)
(10.4217 -0.0454424 0)
(10.4022 -0.0549086 0)
(10.4324 -0.0700274 0)
(10.4151 -0.0810737 0)
(10.4343 -0.0904921 0)
(10.4234 -0.0946282 0)
(10.437 -0.104736 0)
(10.4238 -0.0983005 0)
(10.4454 -0.105155 0)
(10.4166 -0.0985735 0)
(10.4505 -0.0909978 0)
(10.4069 -0.0877895 0)
(10.4424 -0.0720909 0)
(10.3941 -0.0583189 0)
(10.4226 -0.0487534 0)
(10.3721 -0.0179805 0)
(10.4 -0.0112942 0)
(10.3403 0.02687 0)
(10.3754 0.0491989 0)
(10.3056 0.0692381 0)
(10.3542 0.115713 0)
(10.2799 0.122558 0)
(10.334 0.158624 0)
(10.2739 0.180457 0)
(10.3223 0.173738 0)
(10.2826 0.209636 0)
(10.3368 0.179358 0)
(10.2886 0.190321 0)
(10.3731 0.181912 0)
(10.314 0.142429 0)
(10.4051 0.143685 0)
(10.3813 0.0922728 0)
(10.436 0.0466785 0)
(10.4499 0.0259769 0)
(10.4929 -0.0654572 0)
(10.474 -0.0791709 0)
(10.5439 -0.132112 0)
(10.5006 -0.191836 0)
(10.5322 -0.159694 0)
(10.5891 -0.246455 0)
(10.5279 -0.210671 0)
(10.6869 -0.232132 0)
(10.6582 -0.288146 0)
(10.7492 -0.229396 0)
(10.8707 -0.323096 0)
(10.8871 -0.323723 0)
(11.0026 -0.320515 0)
(11.1645 -0.459853 0)
(11.0838 -0.398192 0)
(11.4036 -0.530722 0)
(11.2585 -0.567067 0)
(11.4578 -0.574265 0)
(11.5094 -0.686019 0)
(11.4369 -0.64727 0)
(11.6516 -0.692062 0)
(11.4976 -0.684828 0)
(11.6145 -0.643559 0)
(11.6101 -0.622729 0)
(11.54 -0.571828 0)
(11.6434 -0.48523 0)
(11.577 -0.463639 0)
(11.5765 -0.351112 0)
(11.6762 -0.303795 0)
(11.5511 -0.242749 0)
(11.6962 -0.156743 0)
(11.629 -0.116481 0)
(11.6697 -0.0603304 0)
(11.6819 0.00617858 0)
(11.8193 -0.000577349 0)
(11.6462 0.0456417 0)
(12.0988 -0.00122605 0)
(11.7389 -0.0614751 0)
(12.2529 -0.0810256 0)
(12.0144 -0.268955 0)
(12.3628 -0.29489 0)
(12.1791 -0.497362 0)
(12.6532 -0.592282 0)
(12.1798 -0.728761 0)
(12.9332 -0.878366 0)
(12.2945 -0.978136 0)
(13.0032 -1.09043 0)
(12.4608 -1.21364 0)
(12.9941 -1.25805 0)
(12.5158 -1.29977 0)
(13.0062 -1.39601 0)
(12.4421 -1.32457 0)
(12.9162 -1.44181 0)
(12.4994 -1.34943 0)
(12.6807 -1.39529 0)
(12.556 -1.37231 0)
(12.5174 -1.39229 0)
(12.4951 -1.40094 0)
(12.3537 -1.44829 0)
(12.4813 -1.52628 0)
(12.1455 -1.5665 0)
(12.4286 -1.69628 0)
(12.0303 -1.79641 0)
(12.2963 -1.93081 0)
(11.8959 -2.05291 0)
(12.1681 -2.23925 0)
(11.836 -2.41862 0)
(11.8997 -2.55431 0)
(11.8135 -2.80632 0)
(11.6988 -2.98447 0)
(11.7519 -3.1657 0)
(11.5345 -3.40633 0)
(11.8253 -3.60497 0)
(11.5962 -3.84813 0)
(11.9413 -4.0423 0)
(11.8603 -4.29193 0)
(12.3648 -4.54837 0)
(12.2282 -4.69862 0)
(12.8237 -4.91009 0)
(12.7755 -4.97792 0)
(13.0734 -4.97451 0)
(12.9839 -4.79444 0)
(13.0587 -4.62316 0)
(12.8311 -4.22405 0)
(12.7014 -3.90782 0)
(12.5221 -3.48184 0)
(12.1603 -2.98959 0)
(12.0834 -2.53559 0)
(11.7833 -2.04159 0)
(11.7532 -1.40334 0)
(11.4919 -0.752302 0)
(11.4821 0.102125 0)
(10.8634 0.883736 0)
(10.7153 1.51461 0)
(9.78282 1.94998 0)
(9.22635 2.0378 0)
(8.48679 1.85585 0)
(7.79469 1.36524 0)
(7.62105 0.995452 0)
(7.34947 0.0225396 0)
(7.36821 -0.176759 0)
(7.29025 -0.608956 0)
(7.34483 -0.82071 0)
(8.01735 -1.11708 0)
(8.18776 -1.2153 0)
(8.95341 -1.01859 0)
(9.13615 -0.781789 0)
(9.55863 -0.301646 0)
(9.73312 0.187253 0)
(9.94473 0.750615 0)
(10.1226 1.52715 0)
(10.2783 1.979 0)
(10.1059 2.77008 0)
(10.2744 3.34215 0)
(9.94619 3.72983 0)
(9.86872 4.14462 0)
(9.82445 4.62801 0)
(9.76482 4.79536 0)
(9.99859 5.11198 0)
(9.82299 5.49001 0)
(10.3389 5.80525 0)
(10.0091 6.0833 0)
(9.7556 6.0984 0)
(9.93322 6.25717 0)
(9.48606 6.28006 0)
(9.28789 6.24512 0)
(10.4287 6.71041 0)
(8.92374 7.81143 0)
(12.4048 6.61801 0)
(8.91963 9.85649 0)
(11.6137 5.75885 0)
(9.55714 9.82027 0)
(11.8816 0.00168708 0)
(11.871 0.0099976 0)
(11.7496 -0.0231872 0)
(11.7265 -0.0703409 0)
(11.708 -0.105288 0)
(11.7376 -0.122073 0)
(11.7757 -0.134029 0)
(11.8035 -0.115573 0)
(11.8143 -0.101353 0)
(11.8274 -0.0915626 0)
(11.7987 -0.0723279 0)
(11.8157 -0.0857062 0)
(11.7708 -0.0788729 0)
(11.7971 -0.0803889 0)
(11.7624 -0.0836065 0)
(11.8013 -0.0750637 0)
(11.7848 -0.0693796 0)
(11.823 -0.0651277 0)
(11.8177 -0.0528431 0)
(11.8477 -0.0585769 0)
(11.8375 -0.0467522 0)
(11.8499 -0.0561228 0)
(11.8284 -0.0504134 0)
(11.8271 -0.0543619 0)
(11.8072 -0.0540778 0)
(11.7939 -0.0427032 0)
(11.7926 -0.0504788 0)
(11.7866 -0.0318335 0)
(11.7968 -0.0271062 0)
(11.8126 -0.0268489 0)
(11.8209 -0.0127142 0)
(11.8593 -0.020547 0)
(11.8525 -0.0263794 0)
(11.9006 -0.024146 0)
(11.8717 -0.0519577 0)
(11.917 -0.0548334 0)
(11.8749 -0.0740288 0)
(11.9086 -0.0920016 0)
(11.8654 -0.0942478 0)
(11.8891 -0.11333 0)
(11.8579 -0.111986 0)
(11.8688 -0.116853 0)
(11.8549 -0.114256 0)
(11.8543 -0.111528 0)
(11.8468 -0.0982247 0)
(11.8456 -0.0916423 0)
(11.8301 -0.0759439 0)
(11.8333 -0.0535565 0)
(11.8143 -0.0444362 0)
(11.8051 -0.0117112 0)
(11.8081 0.00327576 0)
(11.7674 0.031368 0)
(11.7941 0.0610552 0)
(11.7428 0.0742687 0)
(11.7736 0.114542 0)
(11.7388 0.126576 0)
(11.7631 0.14948 0)
(11.7488 0.170548 0)
(11.7834 0.173298 0)
(11.7654 0.183807 0)
(11.8289 0.182649 0)
(11.7927 0.168649 0)
(11.8763 0.167025 0)
(11.8368 0.137477 0)
(11.9166 0.114965 0)
(11.8916 0.082945 0)
(11.9676 0.0324426 0)
(11.9277 -1.52144e-05 0)
(12.0347 -0.0662939 0)
(11.946 -0.0971955 0)
(12.0692 -0.150278 0)
(11.9875 -0.194885 0)
(12.0406 -0.191252 0)
(12.0574 -0.263694 0)
(12.0379 -0.241724 0)
(12.0979 -0.268587 0)
(12.1503 -0.331838 0)
(12.1141 -0.270622 0)
(12.2932 -0.391574 0)
(12.2186 -0.367121 0)
(12.3352 -0.387448 0)
(12.4282 -0.521695 0)
(12.3309 -0.434921 0)
(12.5765 -0.601713 0)
(12.4024 -0.588067 0)
(12.5513 -0.614146 0)
(12.5401 -0.712078 0)
(12.4486 -0.651781 0)
(12.5896 -0.707858 0)
(12.4304 -0.695302 0)
(12.4627 -0.626586 0)
(12.4918 -0.653996 0)
(12.3163 -0.529533 0)
(12.4407 -0.527508 0)
(12.3527 -0.431705 0)
(12.2738 -0.360956 0)
(12.4498 -0.325049 0)
(12.2571 -0.225355 0)
(12.4017 -0.186984 0)
(12.4505 -0.154899 0)
(12.3333 -0.0447971 0)
(12.5857 -0.0894955 0)
(12.5102 -0.0237706 0)
(12.6005 -0.0111837 0)
(12.7661 -0.10811 0)
(12.7748 -0.0752858 0)
(12.8508 -0.204776 0)
(13.077 -0.301998 0)
(12.8806 -0.391073 0)
(13.2745 -0.522207 0)
(12.9842 -0.691402 0)
(13.2879 -0.719048 0)
(13.1093 -0.963073 0)
(13.2582 -0.945901 0)
(13.071 -1.15004 0)
(13.2393 -1.15418 0)
(12.9659 -1.23677 0)
(13.0541 -1.25942 0)
(12.9243 -1.30604 0)
(12.7335 -1.25998 0)
(12.843 -1.32901 0)
(12.4803 -1.28875 0)
(12.6685 -1.31411 0)
(12.2515 -1.3026 0)
(12.5403 -1.35041 0)
(12.0332 -1.34812 0)
(12.3505 -1.39884 0)
(11.9458 -1.48126 0)
(12.1435 -1.53162 0)
(11.8373 -1.61606 0)
(11.9689 -1.77298 0)
(11.7824 -1.86632 0)
(11.6583 -2.0067 0)
(11.7813 -2.21904 0)
(11.4238 -2.3704 0)
(11.6643 -2.57346 0)
(11.3033 -2.77992 0)
(11.5723 -2.99963 0)
(11.2694 -3.19579 0)
(11.5006 -3.43995 0)
(11.4572 -3.66294 0)