/*--------------------------------*- C++ -*----------------------------------*\
| =========                 |                                                 |
| \\      /  F ield         | OpenFOAM: The Open Source CFD Toolbox           |
|  \\    /   O peration     | Version:  2.4.0                                 |
|   \\  /    A nd           | Web:      www.OpenFOAM.org                      |
|    \\/     M anipulation  |                                                 |
\*---------------------------------------------------------------------------*/
FoamFile
{
    version     2.0;
    format      ascii;
    class       volScalarField;
    location    "1.16";
    object      k;
}
// * * * * * * * * * * * * * * * * * * * * * * * * * * * * * * * * * * * * * //

dimensions      [0 2 -2 0 0 0 0];

internalField   nonuniform List<scalar> 
8800
(
8.11052
10.2811
8.77709
6.8476
5.68
5.00284
4.49438
4.1851
3.86381
3.72055
3.49196
3.41877
3.2415
3.21064
3.05485
3.02742
2.89665
2.87055
2.81794
2.64383
1.39027
4.36713
5.30684
5.29411
5.11194
4.85046
4.53431
4.33848
4.06095
3.94332
3.71731
3.63741
3.46903
3.42194
3.28823
3.24742
3.1446
3.10451
3.01062
3.00563
0.0833037
0.748817
1.54281
1.96037
2.24762
2.47345
2.54364
2.62415
2.6179
2.60919
2.57294
2.55755
2.51105
2.48417
2.45423
2.41884
2.39276
2.3572
2.31058
2.29133
0.00327792
0.0714681
0.247312
0.429642
0.571115
0.722938
0.821915
0.931424
1.03831
1.0873
1.15895
1.21119
1.269
1.28956
1.34731
1.36375
1.4063
1.40834
1.42182
1.41394
0.000118067
0.00507781
0.0238253
0.0489596
0.0840306
0.128476
0.163935
0.197514
0.2562
0.279145
0.322424
0.349888
0.397113
0.41665
0.466583
0.489306
0.538726
0.555749
0.59276
0.607564
2.56071e-05
0.000324719
0.00168176
0.00357645
0.00649683
0.0131138
0.018397
0.0237215
0.036712
0.0431088
0.0518439
0.0610562
0.0746964
0.0812096
0.0942992
0.109407
0.121165
0.136548
0.145853
0.162897
2.24174e-05
4.60568e-05
0.000142034
0.000280838
0.000415634
0.000866179
0.0012278
0.0018862
0.00286864
0.00394562
0.00455332
0.00613323
0.00708782
0.00900171
0.0103929
0.0138659
0.0155856
0.0198248
0.0216962
0.0273291
2.13063e-05
3.01253e-05
4.51255e-05
8.01073e-05
9.01179e-05
0.000115448
0.000131182
0.000179319
0.000214583
0.000308392
0.000337449
0.000449879
0.00048623
0.000625049
0.000705083
0.00101952
0.00113136
0.00163502
0.0018858
0.00300686
2.08136e-05
2.83454e-05
3.86394e-05
6.27045e-05
7.19363e-05
7.31916e-05
7.15664e-05
7.30321e-05
7.91528e-05
9.48995e-05
9.71869e-05
0.000103021
0.000102318
0.000105092
0.000107059
0.000124267
0.000131817
0.00016197
0.000172556
0.000230146
2.06001e-05
2.77839e-05
4.68365e-05
5.00747e-05
5.30275e-05
6.67914e-05
7.32847e-05
7.33827e-05
7.15292e-05
7.09019e-05
7.09134e-05
7.43268e-05
7.82464e-05
7.96494e-05
7.89949e-05
7.96203e-05
8.21732e-05
8.49396e-05
8.47733e-05
8.58589e-05
2.05255e-05
3.02332e-05
4.20305e-05
4.67726e-05
6.05215e-05
7.24506e-05
7.27812e-05
6.97103e-05
6.78158e-05
7.06957e-05
7.25641e-05
7.69328e-05
8.01588e-05
8.11199e-05
7.91762e-05
7.85714e-05
7.88256e-05
8.18381e-05
8.30881e-05
8.69333e-05
2.07655e-05
2.93333e-05
3.81903e-05
5.80751e-05
7.14371e-05
7.23635e-05
7.21195e-05
7.43229e-05
8.3616e-05
8.85942e-05
8.93631e-05
9.10961e-05
9.49619e-05
0.000106344
0.000111268
0.000120643
0.000134131
0.000144779
0.000155391
0.000179533
2.10492e-05
2.9856e-05
4.41773e-05
8.00494e-05
0.000109948
0.000124322
0.000136612
0.000167403
0.000188572
0.000258118
0.000325162
0.000474322
0.000547647
0.000722088
0.000787192
0.000941998
0.00111309
0.00153783
0.00183635
0.00247163
2.16421e-05
4.29721e-05
0.000121224
0.000394306
0.000656144
0.000898924
0.00120051
0.00194697
0.00242501
0.00382396
0.00487591
0.00670186
0.00761388
0.00992856
0.0109763
0.0134678
0.0154481
0.0203344
0.0231156
0.0298344
2.50255e-05
0.000303728
0.00146513
0.00514206
0.00854112
0.0119022
0.0168132
0.0270194
0.0319933
0.0445842
0.0526308
0.0655707
0.071855
0.0873934
0.0941849
0.10994
0.11988
0.144385
0.156723
0.190236
0.000124357
0.00488803
0.0218543
0.0592127
0.0902325
0.116159
0.162366
0.211413
0.235205
0.288795
0.320657
0.361445
0.38272
0.434684
0.45574
0.502266
0.527
0.589495
0.61718
0.688283
0.00337157
0.0691509
0.257782
0.428366
0.582149
0.691156
0.843305
0.933793
1.01089
1.10333
1.16812
1.20758
1.25035
1.31404
1.33486
1.37648
1.39884
1.45635
1.47576
1.52282
0.084538
0.724248
1.56912
1.94457
2.27567
2.42656
2.58717
2.59746
2.62302
2.60079
2.58992
2.53618
2.5218
2.47729
2.46211
2.41553
2.40755
2.38404
2.37108
2.34231
1.40497
4.34777
5.32389
5.28629
5.1312
4.79943
4.58479
4.27478
4.13616
3.86498
3.77592
3.58154
3.52231
3.36266
3.33019
3.20465
3.17306
3.05399
3.01703
2.91736
8.11737
10.262
8.79979
6.80997
5.71668
4.9619
4.53433
4.13006
3.93207
3.64536
3.55236
3.35153
3.30669
3.13099
3.10397
2.94838
2.91511
2.73377
2.67432
2.4632
1.85265
1.33337
1.01945
0.833086
0.721133
0.66531
0.626729
0.608187
0.587775
0.578535
0.561531
0.553933
0.537813
0.530994
0.516066
0.510056
0.497428
0.492143
0.482285
0.477084
0.469801
0.464921
0.45947
0.455036
0.450698
0.446979
0.443669
0.440131
0.438153
0.435477
0.434735
0.432771
0.432599
0.431904
0.431888
0.431667
0.430764
0.42849
0.425016
0.418728
0.405478
0.39435
0.373458
0.350343
0.327055
0.310016
0.297148
0.294547
0.29666
0.303181
0.313703
0.328094
0.345339
0.361764
0.377912
0.389072
0.400561
0.41015
0.415937
0.414849
0.409376
0.396052
0.371374
0.341249
0.306361
0.276704
0.250287
0.231066
0.220333
0.222062
0.227205
0.239477
0.25282
0.261117
0.276887
0.287125
0.292721
0.300407
0.303665
0.309917
0.314268
0.328047
0.335391
0.344533
0.356097
0.376301
0.399347
0.465552
0.467657
0.470301
0.454526
0.433886
0.390044
0.367719
0.33067
0.320999
0.298249
0.293717
0.28971
0.291946
0.292376
0.290473
0.285054
0.272318
0.26033
0.244027
0.218481
0.186457
0.141905
0.0874341
0.0477299
0.0263512
0.0157103
0.00987205
0.00764142
0.00707993
0.00649463
0.0065549
0.00675767
0.00722988
0.00900286
0.0136801
0.0208573
0.0348775
0.0690538
0.15684
0.248478
0.269768
0.260263
0.238188
0.202377
0.166587
0.136079
0.117178
0.107083
0.101482
0.0970523
0.094449
0.0948488
0.0973196
0.10525
0.112136
0.112072
0.109804
0.105801
0.0963877
0.0891929
0.0767935
0.0595782
0.0430423
0.0341061
0.0315255
0.0315154
0.0329626
0.0372072
0.0510722
0.0614398
0.0753879
0.0839572
0.0912783
0.0923822
0.0917425
0.0895034
0.0857976
0.0772
0.0740138
0.0678257
0.0626588
0.056985
0.0509669
0.0493965
0.053862
0.0650819
0.0630078
0.0597658
0.0753911
0.180708
0.272717
0.301997
0.296725
0.260335
0.206327
0.156424
0.12474
0.106066
0.0914752
0.0913211
0.0897291
0.0923803
0.103414
0.150882
0.212331
0.219135
0.199031
0.127315
0.114018
0.110524
0.123278
0.206461
1.74412
2.56552
2.11473
1.76895
1.51968
1.33127
1.19256
1.08564
1.00957
0.945353
0.898075
0.853644
0.820746
0.788593
0.763907
0.739995
0.720025
0.700358
0.683144
0.668095
0.653761
0.642127
0.630095
0.62126
0.611275
0.603468
0.593997
0.587739
0.578716
0.57263
0.565381
0.558761
0.554288
0.546954
0.543831
0.538376
0.535834
0.532404
0.531387
0.529023
0.527616
0.52431
0.518436
0.512486
0.500591
0.486555
0.474257
0.459139
0.449664
0.440045
0.435453
0.431286
0.431476
0.431992
0.434075
0.435742
0.439968
0.443219
0.45032
0.455275
0.462423
0.47056
0.476046
0.474794
0.470792
0.459275
0.44337
0.4188
0.404931
0.377695
0.36494
0.349362
0.338771
0.331108
0.32698
0.323668
0.32388
0.322701
0.324439
0.323308
0.326456
0.328809
0.333567
0.342115
0.352949
0.364242
0.383641
0.388083
0.410587
0.41748
0.440119
0.441359
0.438614
0.42733
0.419241
0.401496
0.38691
0.371719
0.36562
0.346967
0.337851
0.319992
0.306576
0.284344
0.257376
0.231028
0.187017
0.140247
0.0861451
0.0501367
0.0286391
0.0164302
0.0106683
0.0076265
0.00602022
0.00597956
0.00600592
0.00610198
0.00656
0.00751455
0.00977793
0.0164606
0.0267236
0.0392943
0.0679817
0.154903
0.272914
0.299384
0.287611
0.257029
0.207677
0.156417
0.128383
0.112753
0.102643
0.098687
0.0946465
0.0921315
0.0884592
0.0854893
0.0853839
0.0868807
0.0918739
0.102707
0.105673
0.104429
0.100398
0.092868
0.086485
0.0725748
0.0568005
0.041658
0.0341702
0.0322191
0.0323635
0.0334303
0.0381413
0.0456076
0.0521168
0.0631911
0.0668412
0.0708333
0.0714664
0.0709589
0.0695774
0.0642986
0.0624006
0.0590359
0.0575534
0.0550398
0.0521101
0.0504206
0.0525778
0.0613913
0.0625014
0.0635369
0.0982011
0.225127
0.294961
0.319972
0.3035
0.255407
0.204944
0.152513
0.123031
0.103089
0.0928263
0.0913153
0.0854042
0.0845965
0.0886433
0.104181
0.174357
0.210002
0.205576
0.161082
0.120658
0.11667
0.119994
0.198655
0.937918
2.07703
1.84868
1.6423
1.46975
1.32567
1.20833
1.11274
1.03914
0.976634
0.924675
0.879834
0.839173
0.80374
0.772358
0.744005
0.720867
0.701374
0.681391
0.665568
0.647488
0.631965
0.618257
0.605495
0.595771
0.587266
0.578519
0.570172
0.56385
0.553018
0.548038
0.538686
0.533116
0.526974
0.521608
0.515295
0.51206
0.507209
0.504275
0.502504
0.500898
0.500325
0.499701
0.49848
0.496181
0.491345
0.485808
0.479427
0.472994
0.465356
0.460712
0.453378
0.450511
0.445349
0.442063
0.439146
0.435885
0.434373
0.43335
0.430587
0.430352
0.429733
0.42986
0.430015
0.429018
0.426354
0.420049
0.410491
0.399444
0.383268
0.369199
0.357152
0.339458
0.331215
0.31766
0.305366
0.298275
0.283855
0.276542
0.269292
0.263818
0.264183
0.265359
0.272227
0.27827
0.292262
0.305249
0.320435
0.336503
0.356201
0.36331
0.378544
0.385726
0.385485
0.382467
0.377816
0.363221
0.354302
0.334077
0.318647
0.293549
0.264474
0.23792
0.196653
0.156422
0.108693
0.0694764
0.0431803
0.0257624
0.0160255
0.00990476
0.0068468
0.00571485
0.0049414
0.0050034
0.00542952
0.00572486
0.00659937
0.00861023
0.0115727
0.0182637
0.0340138
0.0465872
0.0707333
0.135823
0.294869
0.332301
0.31892
0.282094
0.212566
0.161957
0.129599
0.113384
0.103193
0.0978803
0.0961032
0.0934173
0.0904426
0.0876461
0.0857667
0.0822389
0.0813722
0.0821868
0.0855216
0.0966883
0.099687
0.0991018
0.0950928
0.0912199
0.0839844
0.0697856
0.0533349
0.0398458
0.034741
0.0329099
0.0332203
0.0348035
0.0378797
0.0419297
0.0477464
0.0519531
0.0551561
0.0573435
0.0588695
0.0581607
0.0573256
0.0564289
0.0537351
0.0526473
0.0524147
0.0524812
0.0525402
0.0557658
0.0620139
0.0620618
0.0661623
0.11953
0.25253
0.319149
0.333817
0.30742
0.253773
0.200672
0.152433
0.124449
0.105169
0.103008
0.101965
0.0985653
0.0861702
0.0855585
0.0910015
0.120824
0.187225
0.198177
0.184971
0.130711
0.121582
0.117171
0.17006
0.470724
1.3272
1.23143
1.14085
1.05702
0.978654
0.91036
0.847162
0.792724
0.751319
0.715006
0.684792
0.658342
0.629533
0.604037
0.580589
0.556542
0.541857
0.525993
0.512493
0.503371
0.488953
0.474505
0.46281
0.446579
0.437253
0.429073
0.42108
0.417741
0.412962
0.406138
0.402664
0.393707
0.38901
0.382851
0.378721
0.374959
0.373566
0.370676
0.369841
0.368166
0.368032
0.36841
0.369054
0.368899
0.369826
0.369656
0.369119
0.367947
0.365175
0.362419
0.359404
0.350285
0.346543
0.338075
0.333735
0.327769
0.324868
0.322974
0.321975
0.31798
0.316561
0.311405
0.308461
0.302104
0.298029
0.291989
0.283949
0.273703
0.267047
0.251756
0.240695
0.226827
0.20802
0.199089
0.179039
0.164496
0.15343
0.134495
0.128345
0.117535
0.112423
0.112463
0.114034
0.119105
0.12929
0.137754
0.159102
0.170663
0.195254
0.208276
0.222995
0.241236
0.249075
0.249678
0.248679
0.241693
0.230942
0.209684
0.188399
0.159472
0.1303
0.0975755
0.0690511
0.0473434
0.0307856
0.020094
0.0126243
0.00833883
0.00603626
0.00454515
0.00421152
0.00421926
0.004317
0.00485524
0.0055334
0.00699046
0.0109121
0.015139
0.0223195
0.0407589
0.0561845
0.0761421
0.127194
0.289759
0.363979
0.354211
0.31271
0.22873
0.17638
0.139969
0.117778
0.105569
0.0984748
0.0963595
0.0947428
0.0930075
0.0903829
0.0875142
0.0855916
0.0831782
0.0805016
0.0797836
0.0801909
0.0846308
0.0939932
0.0964647
0.0955248
0.0919335
0.0890731
0.079871
0.0692888
0.0509185
0.0401664
0.0356867
0.033758
0.035334
0.0359583
0.0396556
0.0416223
0.0463006
0.047117
0.0492715
0.0501455
0.0506018
0.0505869
0.0498714
0.0496998
0.0488184
0.0498696
0.0504421
0.0516064
0.0583394
0.0630251
0.0623272
0.0707706
0.131221
0.286529
0.327539
0.348281
0.313537
0.250195
0.197943
0.165419
0.127423
0.115368
0.107933
0.107412
0.107706
0.0935962
0.0860452
0.0888513
0.0985205
0.146089
0.184233
0.182509
0.146001
0.129892
0.117475
0.148326
0.277425
0.586349
0.561597
0.533116
0.510127
0.483873
0.458044
0.436317
0.411151
0.39227
0.375181
0.358733
0.349152
0.340294
0.329133
0.321883
0.307035
0.294704
0.284312
0.274589
0.270256
0.267596
0.264193
0.261571
0.252353
0.242448
0.232781
0.222781
0.218516
0.215439
0.213004
0.212694
0.211518
0.208506
0.205376
0.199647
0.19773
0.195172
0.193384
0.1934
0.193691
0.195009
0.196333
0.196773
0.196038
0.195507
0.194575
0.191621
0.190143
0.188578
0.187355
0.186941
0.18549
0.184675
0.182607
0.175694
0.170438
0.160815
0.155083
0.151727
0.150543
0.151561
0.153029
0.154249
0.15424
0.148532
0.141043
0.131314
0.118377
0.112329
0.100496
0.0925856
0.0864522
0.0766331
0.0730349
0.0665272
0.0606047
0.0568844
0.0485618
0.0455959
0.0410058
0.0373124
0.0361899
0.0355182
0.0364119
0.0380875
0.0401686
0.0462087
0.0498887
0.0562083
0.0657055
0.0696279
0.0782502
0.0835619
0.0853428
0.0842772
0.0813289
0.0744175
0.0647838
0.0540777
0.0429617
0.0329231
0.024089
0.0172384
0.011961
0.00823624
0.00593167
0.00423932
0.00364544
0.00329486
0.0033609
0.00363789
0.00396949
0.00478046
0.00680077
0.00889386
0.0140526
0.0218229
0.0291286
0.047442
0.0705772
0.0872307
0.126002
0.266802
0.393437
0.392239
0.353243
0.25649
0.200148
0.154957
0.125311
0.110677
0.0995174
0.0964221
0.095758
0.0937326
0.093532
0.0921277
0.091034
0.0875567
0.084577
0.0810638
0.0796184
0.0782579
0.0793753
0.0840841
0.0905414
0.094666
0.0921242
0.0916891
0.0880021
0.0763236
0.0662034
0.0478652
0.0414099
0.0356393
0.0366246
0.0363312
0.0376783
0.0397355
0.0411715
0.0431705
0.0438514
0.0452546
0.0455909
0.0462444
0.0460589
0.0461456
0.0460501
0.048115
0.04832
0.0493133
0.0581477
0.0610696
0.062492
0.0774764
0.139578
0.29873
0.327111
0.355046
0.322525
0.244248
0.204953
0.168582
0.134623
0.123474
0.108485
0.107628
0.107713
0.0998042
0.0862397
0.0860882
0.0906447
0.113353
0.163918
0.177295
0.156668
0.148138
0.121009
0.126506
0.18698
0.159877
0.156307
0.149552
0.144568
0.140057
0.133969
0.130483
0.12573
0.121703
0.118634
0.113542
0.110779
0.108111
0.106057
0.10523
0.103122
0.0993913
0.0956596
0.0907971
0.088986
0.0881142
0.087928
0.0886696
0.0891957
0.0891995
0.0871008
0.0802418
0.0759099
0.0726533
0.0707962
0.0707207
0.0707354
0.0708643
0.0713559
0.071038
0.0703121
0.068529
0.066535
0.0660281
0.0659824
0.0660729
0.0667373
0.0692821
0.070987
0.0718201
0.0718788
0.0705122
0.0687579
0.0654678
0.0632496
0.0630157
0.0627021
0.0629192
0.0629813
0.0627249
0.0624146
0.0590975
0.0549612
0.0510128
0.0475987
0.046817
0.0464784
0.0464885
0.0473764
0.0472296
0.0467892
0.0451666
0.0393288
0.035669
0.030127
0.0263787
0.0236639
0.0210111
0.0201249
0.0187526
0.0179687
0.0174614
0.0160052
0.0149642
0.0130333
0.0118138
0.011016
0.0101806
0.0101703
0.0102727
0.0105313
0.0114567
0.0121291
0.0132771
0.0148004
0.0161077
0.0177468
0.0186004
0.0185334
0.0180565
0.0169938
0.0154901
0.0136458
0.0114088
0.00932891
0.00733506
0.00565952
0.00435908
0.0033429
0.00283597
0.00246846
0.00250325
0.00264554
0.00286583
0.0035315
0.00447964
0.00601031
0.00982744
0.0139528
0.0190664
0.0320112
0.0410265
0.0550111
0.0886507
0.106993
0.136062
0.226609
0.416814
0.438304
0.403625
0.2917
0.228298
0.174665
0.137867
0.118361
0.104345
0.0976595
0.0960409
0.0944075
0.0936844
0.0936826
0.0920532
0.0921615
0.0890887
0.0877835
0.084507
0.081388
0.0788841
0.0792674
0.0816823
0.084591
0.0916848
0.0917235
0.0911681
0.0914061
0.083871
0.078476
0.060222
0.0523167
0.040951
0.0385794
0.0380234
0.0380624
0.0402457
0.0402462
0.0423945
0.0425919
0.0445324
0.044441
0.0451588
0.0451019
0.0454203
0.0464527
0.048348
0.0482108
0.0487261
0.0537826
0.0562219
0.0586171
0.0797834
0.16392
0.291898
0.329567
0.351622
0.324605
0.24926
0.207423
0.16234
0.13565
0.124941
0.10927
0.109632
0.110406
0.103606
0.0871601
0.0857166
0.0871113
0.0948649
0.131987
0.167956
0.162143
0.166228
0.135168
0.12521
0.151136
0.0269253
0.0262683
0.0249059
0.0239115
0.0232333
0.0225299
0.0221941
0.0221229
0.0221182
0.0220069
0.0212592
0.0204883
0.0199799
0.0197955
0.0199005
0.0201031
0.0201807
0.0199932
0.0188718
0.0181275
0.017797
0.0177667
0.0184831
0.0193648
0.0198969
0.019975
0.0190285
0.0173712
0.0161684
0.0154968
0.0154293
0.0156667
0.016035
0.0164062
0.0163967
0.0163168
0.0160585
0.0157004
0.0156866
0.015676
0.0157438
0.0158245
0.0160478
0.0169259
0.0179529
0.0186361
0.0186454
0.0185645
0.0177938
0.0161958
0.0153738
0.0148776
0.0151065
0.0160376
0.0165415
0.0170914
0.0171256
0.016354
0.0142197
0.0120127
0.0108833
0.01037
0.0104115
0.0114946
0.012487
0.0129812
0.0130003
0.0123162
0.0102448
0.0082556
0.00656457
0.00553949
0.00521925
0.005109
0.00517175
0.00515741
0.0051279
0.00503993
0.00456277
0.00405903
0.0035797
0.00324515
0.00300364
0.00283073
0.0027877
0.00279512
0.00284486
0.00297654
0.00313408
0.00327282
0.00356312
0.00369988
0.00381698
0.00380894
0.00376691
0.00360725
0.00344504
0.00305442
0.00273953
0.00230436
0.0020349
0.00180252
0.00169773
0.0017263
0.00182385
0.00202725
0.00256085
0.00323308
0.00450116
0.00745689
0.00996872
0.0150678
0.0236926
0.0303586
0.0449726
0.0623552
0.0753287
0.105307
0.136445
0.161671
0.215997
0.411167
0.491725
0.459401
0.331853
0.255069
0.205569
0.159841
0.130734
0.112936
0.10068
0.097337
0.0939924
0.0927577
0.0948182
0.0943875
0.0939199
0.0934262
0.0893438
0.088849
0.086999
0.0829365
0.0803148
0.080103
0.0826576
0.0849284
0.0902351
0.0926824
0.0914505
0.0940489
0.0865631
0.083294
0.0735741
0.0608392
0.0531319
0.043379
0.042286
0.0401041
0.0418134
0.0413857
0.0427989
0.0433846
0.0442903
0.0454185
0.0456982
0.0471206
0.0476374
0.0492638
0.0499815
0.0495023
0.0485548
0.050006
0.0513191
0.0525317
0.0689337
0.172267
0.279762
0.34215
0.352164
0.326282
0.260198
0.197288
0.158255
0.132864
0.12533
0.119287
0.17038
0.171201
0.140169
0.0980982
0.0880657
0.0844738
0.088539
0.110022
0.155636
0.159775
0.16177
0.148081
0.130711
0.138532
0.0029946
0.00294393
0.00282
0.00269298
0.00259644
0.00253736
0.00253617
0.00255474
0.00255936
0.00253631
0.00244775
0.00237876
0.00234237
0.0023444
0.00242253
0.00250089
0.00252841
0.0025095
0.00236428
0.0022524
0.00220529
0.00221263
0.00238378
0.00257532
0.00267922
0.00269487
0.00258034
0.0023736
0.00224697
0.0021889
0.00218659
0.00221853
0.00223624
0.00224026
0.00223455
0.00223729
0.0022538
0.00228639
0.00233573
0.00233998
0.00234151
0.00232001
0.00230745
0.00233964
0.00263346
0.0030582
0.0032099
0.00325843
0.00319216
0.00283205
0.00254234
0.00240141
0.0024555
0.00279645
0.00310554
0.00329698
0.00332158
0.003113
0.00254131
0.00212219
0.00192886
0.00191914
0.00217754
0.00258636
0.00288163
0.00297797
0.00296171
0.00264592
0.00212475
0.00175546
0.00148791
0.00147113
0.00147401
0.00151255
0.00151061
0.00148709
0.00147413
0.00140555
0.0013152
0.00122917
0.00111183
0.00102534
0.000954204
0.000883906
0.000855431
0.000839217
0.000840473
0.000853032
0.000865423
0.000887068
0.000905204
0.000955179
0.000978003
0.00102175
0.00104268
0.00106783
0.00106964
0.00108485
0.00110372
0.00112162
0.00118329
0.0013304
0.00151047
0.00198824
0.00262493
0.00394858
0.00618969
0.00843233
0.0134681
0.0191231
0.0249946
0.0389654
0.0501377
0.0638765
0.0947241
0.111941
0.135807
0.178315
0.204798
0.24381
0.38605
0.530318
0.520095
0.386494
0.280388
0.239005
0.195609
0.153028
0.127166
0.109301
0.0985174
0.0958608
0.0932457
0.0933812
0.0949289
0.0938006
0.0949617
0.0926113
0.0936193
0.0929279
0.0894468
0.082989
0.0823449
0.0812196
0.0857393
0.0866296
0.0896854
0.0960552
0.0936901
0.0976376
0.0924356
0.0906671
0.0843835
0.0676091
0.0630536
0.0536547
0.0517209
0.0461698
0.0456295
0.0448099
0.044889
0.0465993
0.0462508
0.0485677
0.0485992
0.052037
0.0518395
0.0542153
0.0534776
0.050952
0.0487132
0.0489374
0.0502691
0.0514579
0.0669061
0.168667
0.271459
0.342626
0.350813
0.320728
0.280612
0.201973
0.16138
0.13084
0.124722
0.135007
0.282659
0.447339
0.381437
0.18668
0.114507
0.0879377
0.0882222
0.0946389
0.142261
0.154506
0.154366
0.152579
0.134981
0.133466
0.000232837
0.000236149
0.000244617
0.000249493
0.000249533
0.000249193
0.000249555
0.000249315
0.000248645
0.000246256
0.000243815
0.000242476
0.000242455
0.000243925
0.000246018
0.000247389
0.000247209
0.000241726
0.000235055
0.000231077
0.000229941
0.000230933
0.00023983
0.000249189
0.000256297
0.000262057
0.000268353
0.000272609
0.000273305
0.000269865
0.000262327
0.000254222
0.000247128
0.000242528
0.000241743
0.000246568
0.00026073
0.000271755
0.000275206
0.000269596
0.000257583
0.00024275
0.000237376
0.000241469
0.000286529
0.000344644
0.0003708
0.000374465
0.000365001
0.000332109
0.000308006
0.000305666
0.000323409
0.000359771
0.000384716
0.000391232
0.000385618
0.000339811
0.000302659
0.000280627
0.000276695
0.000309512
0.000384995
0.000419296
0.000433563
0.000427655
0.000426086
0.000430266
0.000494863
0.00050355
0.000511495
0.00051386
0.000532504
0.000543737
0.000561033
0.000582728
0.000592543
0.000597834
0.000615474
0.00061025
0.000577988
0.000545208
0.000522341
0.000513253
0.000518476
0.000517433
0.000521446
0.000539689
0.00055377
0.000579603
0.000613111
0.000650701
0.000688874
0.000742612
0.000779181
0.000849551
0.000913211
0.00106362
0.00124821
0.00147534
0.00213423
0.0030256
0.00398588
0.00623145
0.00840811
0.0133726
0.0172977
0.0240727
0.0353452
0.0445965
0.0626074
0.0846532
0.101964
0.136938
0.175808
0.196702
0.239434
0.279233
0.30247
0.36933
0.545976
0.563063
0.433874
0.308684
0.261507
0.234423
0.192226
0.149993
0.125933
0.107603
0.0970824
0.0939418
0.0928235
0.0940874
0.0940198
0.0938892
0.0929008
0.0891854
0.0944773
0.0934553
0.0930053
0.0849433
0.0854622
0.0833534
0.0877352
0.0901299
0.0914159
0.101516
0.0980263
0.101112
0.0994297
0.093523
0.0912926
0.0801106
0.0765635
0.0654919
0.0613167
0.0590463
0.0549812
0.0539295
0.0516558
0.0529874
0.0520751
0.0531656
0.052335
0.0535051
0.052473
0.0537659
0.052265
0.0473494
0.042376
0.0424458
0.0450918
0.0496927
0.0686051
0.16114
0.239015
0.324084
0.335621
0.322627
0.30791
0.23128
0.175282
0.141451
0.136663
0.179449
0.280559
0.589556
0.798992
0.547562
0.234493
0.111666
0.0921482
0.0900907
0.119606
0.145163
0.149187
0.151373
0.1411
0.129378
8.67135e-05
8.77821e-05
9.23988e-05
9.46995e-05
9.46462e-05
9.48082e-05
9.60813e-05
9.68062e-05
9.76751e-05
9.8747e-05
9.92548e-05
9.95421e-05
9.95295e-05
9.95686e-05
9.94859e-05
9.90159e-05
9.87326e-05
9.87107e-05
9.87163e-05
9.82816e-05
9.73465e-05
9.69808e-05
9.66341e-05
9.6614e-05
9.85975e-05
0.000100916
0.000101498
0.000101498
0.000102107
0.000105963
0.0001078
0.000108204
0.000107981
0.00010671
0.000105912
0.000105815
0.000106414
0.000107196
0.000106858
0.000106388
0.000106563
0.000107758
0.000107882
0.000108842
0.00011239
0.00011391
0.000115273
0.000114861
0.000113764
0.000110971
0.00011043
0.000110664
0.000116365
0.000121911
0.000126367
0.000129355
0.000130404
0.000131661
0.000131867
0.000134019
0.000135908
0.000139829
0.000139818
0.000147079
0.000174464
0.000209102
0.000211148
0.000213192
0.000219919
0.000299738
0.000386154
0.000460329
0.000488833
0.000502269
0.000523992
0.000597377
0.000609635
0.000607912
0.000586373
0.000581242
0.000581265
0.000596211
0.000600164
0.000606702
0.000630344
0.000687314
0.000819293
0.000911605
0.00104835
0.00116643
0.0013242
0.00145773
0.00156054
0.00176643
0.00191841
0.00221965
0.00255731
0.00340739
0.004349
0.0053123
0.00822963
0.0105139
0.0147884
0.0191053
0.0260454
0.0369386
0.0455411
0.0632861
0.0788035
0.103596
0.139575
0.169718
0.210732
0.267075
0.298913
0.336651
0.364765
0.374001
0.395286
0.498995
0.572345
0.485525
0.329913
0.28264
0.258026
0.239127
0.192523
0.149924
0.126309
0.106828
0.0966393
0.0935201
0.0926772
0.0941181
0.0942606
0.0956121
0.0923217
0.0927235
0.0921924
0.0908813
0.0966052
0.0871765
0.0933262
0.0895469
0.0912132
0.0964749
0.0959817
0.105425
0.104537
0.104777
0.10594
0.0981699
0.0978646
0.0882004
0.0853006
0.0791877
0.0759527
0.0739445
0.0667307
0.0650225
0.0611078
0.0602692
0.0577919
0.0566647
0.0533984
0.0526965
0.0511631
0.0509461
0.0482644
0.0385986
0.033249
0.0330114
0.0348117
0.0432466
0.061801
0.13132
0.17621
0.295653
0.324124
0.345414
0.325816
0.242313
0.185058
0.146662
0.135582
0.153654
0.292605
0.466665
0.982004
0.942139
0.527299
0.181961
0.107533
0.091219
0.100266
0.130918
0.141032
0.150069
0.147563
0.132179
8.85925e-05
8.99207e-05
9.47135e-05
9.9601e-05
0.000102631
0.000103329
0.000103719
0.000103884
0.000104247
0.000106
0.000106686
0.000107661
0.00010785
0.000107655
0.00010746
0.000106877
0.0001068
0.00010684
0.000107034
0.000108976
0.000110484
0.000112848
0.000115163
0.000115272
0.000115413
0.000115217
0.000115822
0.000122016
0.000133003
0.000145097
0.000156329
0.000164012
0.000166082
0.000165174
0.00015948
0.000146152
0.000137411
0.00013075
0.000127775
0.000128546
0.000131782
0.000140024
0.00014989
0.000156045
0.000166428
0.000166053
0.00016523
0.000160322
0.000154837
0.000154495
0.000154818
0.000158473
0.000165587
0.000171797
0.000185689
0.000205989
0.000227173
0.000257645
0.000286039
0.000310639
0.000325282
0.000328913
0.000324785
0.000297621
0.000270334
0.000259944
0.000280162
0.000386498
0.000547753
0.000699596
0.000839119
0.00105741
0.00124076
0.00134946
0.00139263
0.00138952
0.00139443
0.00141217
0.00152131
0.00160586
0.0016432
0.00172126
0.00176823
0.00184494
0.00208386
0.00243888
0.00302954
0.00344086
0.00404816
0.00447935
0.00489951
0.00535023
0.00569319
0.00652743
0.00721507
0.00868481
0.0100585
0.0131897
0.016543
0.0195744
0.0278378
0.0337928
0.0439965
0.0552209
0.0721626
0.0896475
0.114267
0.144963
0.178099
0.226378
0.27303
0.333842
0.38961
0.42245
0.427711
0.422669
0.409379
0.408563
0.437421
0.549348
0.533693
0.364109
0.291237
0.272411
0.269979
0.260209
0.21381
0.164226
0.134743
0.108584
0.0971542
0.0943583
0.0942502
0.0942916
0.0946152
0.0968264
0.0974148
0.0970966
0.0945771
0.0950844
0.0953267
0.0899583
0.0946809
0.0931023
0.0928009
0.102281
0.100818
0.112803
0.112659
0.1078
0.10845
0.100512
0.100502
0.0955501
0.0944322
0.0919325
0.0863648
0.0846599
0.0808448
0.0750009
0.0681164
0.0660192
0.0608529
0.0581766
0.0531422
0.0524054
0.0508314
0.0491945
0.0404531
0.0311832
0.0280064
0.0280274
0.0288108
0.0326177
0.0428748
0.0746552
0.109824
0.244358
0.314021
0.371588
0.328264
0.246755
0.189883
0.140822
0.140393
0.141608
0.466755
0.583084
0.692906
0.924609
0.793949
0.299638
0.137283
0.0942417
0.0963582
0.122904
0.140756
0.148493
0.148352
0.137545
0.000211015
0.000233929
0.000258714
0.000277528
0.000291892
0.00029575
0.000303159
0.000309282
0.000314953
0.000336943
0.000347899
0.000367815
0.000381373
0.000383622
0.000388981
0.000390068
0.000392352
0.000412872
0.000428554
0.000469029
0.000495251
0.000509363
0.000538864
0.000547944
0.000570662
0.00058133
0.000582786
0.000589746
0.000632982
0.000714809
0.000805113
0.000883146
0.00092053
0.000933033
0.000917416
0.00080119
0.000694308
0.000610261
0.000570494
0.000579403
0.000645306
0.000810206
0.000918716
0.000975543
0.00100867
0.000990371
0.000938619
0.000865148
0.000816809
0.000800683
0.000794797
0.000798167
0.000812376
0.000831782
0.000853599
0.00094445
0.00120232
0.00152888
0.00185344
0.00205248
0.00216737
0.00216384
0.00207803
0.00197313
0.00188377
0.00187505
0.00186925
0.00192347
0.00242277
0.00302279
0.00361645
0.00406481
0.00444091
0.00485806
0.00519781
0.00557728
0.00588286
0.00601043
0.00627645
0.00641498
0.00651759
0.00673112
0.00690544
0.00740931
0.00851935
0.0100645
0.0117679
0.0125371
0.0141658
0.0150582
0.0168222
0.0180711
0.0197586
0.0234133
0.0258393
0.0312763
0.0357375
0.0446167
0.0541082
0.0621228
0.0815918
0.0958248
0.116375
0.147323
0.169873
0.215651
0.250724
0.306784
0.361478
0.420527
0.464883
0.491781
0.492242
0.481751
0.466296
0.432223
0.408295
0.418221
0.503031
0.533092
0.409292
0.283334
0.277579
0.28353
0.303002
0.294603
0.25535
0.194394
0.154958
0.118231
0.10276
0.0980244
0.0964156
0.0958187
0.0962863
0.0981321
0.0990394
0.0993541
0.0994156
0.0984972
0.0976746
0.0982855
0.0950012
0.0979026
0.0964423
0.109311
0.108048
0.122904
0.121385
0.108243
0.108827
0.10064
0.101939
0.0990343
0.0982626
0.0962917
0.094849
0.0949987
0.088901
0.0794659
0.0721344
0.0685354
0.0607317
0.0575009
0.0529153
0.0519615
0.0501852
0.0442268
0.0329112
0.0261234
0.0243767
0.024475
0.0252423
0.0278587
0.0329245
0.0448119
0.0633199
0.166737
0.305466
0.36979
0.324292
0.286851
0.207006
0.139274
0.172515
0.158831
0.499773
0.694461
0.583176
0.722711
0.720328
0.427823
0.190335
0.103615
0.101612
0.124667
0.144146
0.145896
0.146987
0.138912
0.00281155
0.00302285
0.00313888
0.00319763
0.00322715
0.00323385
0.00326499
0.00332953
0.00340016
0.00362674
0.00373389
0.00392498
0.00409901
0.00415043
0.00427099
0.00433038
0.00437735
0.00456123
0.00465817
0.00487059
0.00505166
0.00521517
0.00542338
0.00551595
0.00561424
0.00562082
0.00560463
0.00564227
0.00590365
0.00630018
0.00662693
0.00687903
0.00696478
0.00694358
0.0066946
0.00618558
0.00587741
0.00573316
0.00571747
0.00610366
0.00646776
0.00683203
0.00705688
0.00707504
0.00706934
0.00685231
0.00665865
0.00658911
0.0064483
0.0063709
0.0061636
0.00606803
0.0060025
0.00596795
0.00604235
0.00678789
0.00811537
0.0095314
0.0105843
0.0112393
0.0114599
0.0113144
0.0108897
0.010453
0.0102527
0.0102613
0.0103329
0.0109998
0.0119866
0.013125
0.0144898
0.0155052
0.017051
0.0179805
0.0190062
0.0197684
0.0205288
0.0209529
0.0215993
0.0222043
0.0227031
0.0241587
0.0255534
0.0287642
0.030853
0.0346285
0.0379089
0.039737
0.0443386
0.0472122
0.0528916
0.0567652
0.0651493
0.0743079
0.0814403
0.0989769
0.110047
0.129715
0.151684
0.173508
0.207767
0.234614
0.284972
0.321189
0.377657
0.42189
0.464244
0.501794
0.521243
0.539681
0.538371
0.532851
0.516224
0.478294
0.434625
0.406778
0.411964
0.461365
0.493128
0.431399
0.285038
0.259222
0.276211
0.313658
0.345459
0.35312
0.325169
0.252913
0.201102
0.146878
0.113933
0.101561
0.0984819
0.0995086
0.100269
0.100139
0.100565
0.103269
0.103554
0.101631
0.10117
0.103207
0.101887
0.111084
0.108518
0.131349
0.123436
0.123567
0.123189
0.104715
0.106587
0.100049
0.101857
0.100859
0.10201
0.10528
0.105218
0.100468
0.0882427
0.0804799