/*--------------------------------*- C++ -*----------------------------------*\
| =========                 |                                                 |
| \\      /  F ield         | OpenFOAM: The Open Source CFD Toolbox           |
|  \\    /   O peration     | Version:  2.4.0                                 |
|   \\  /    A nd           | Web:      www.OpenFOAM.org                      |
|    \\/     M anipulation  |                                                 |
\*---------------------------------------------------------------------------*/
FoamFile
{
    version     2.0;
    format      ascii;
    class       volScalarField;
    location    "1.16";
    object      k_0;
}
// * * * * * * * * * * * * * * * * * * * * * * * * * * * * * * * * * * * * * //

dimensions      [0 2 -2 0 0 0 0];

internalField   nonuniform List<scalar> 
8800
(
8.11066
10.2809
8.77714
6.84779
5.67961
5.00311
4.49449
4.18469
3.864
3.72079
3.49172
3.41861
3.24181
3.21077
3.05452
3.02739
2.89687
2.87058
2.81791
2.644
1.39036
4.36698
5.30683
5.29424
5.11174
4.85062
4.5345
4.33802
4.06115
3.94352
3.71702
3.63732
3.46938
3.42203
3.2879
3.24741
3.14472
3.10455
3.01059
3.00561
0.0833088
0.748883
1.54248
1.96058
2.24801
2.47301
2.54372
2.62433
2.61769
2.60896
2.57319
2.55771
2.51078
2.48442
2.45433
2.41866
2.39258
2.35731
2.3106
2.29116
0.00327817
0.0714726
0.247044
0.429533
0.571877
0.7226
0.821481
0.932281
1.0381
1.08642
1.15949
1.21145
1.26859
1.28947
1.34775
1.36391
1.40599
1.40815
1.42189
1.41388
0.000118083
0.005077
0.0237225
0.0486805
0.0846668
0.128503
0.163477
0.197996
0.256169
0.278832
0.322382
0.34999
0.396886
0.416604
0.466948
0.48951
0.538583
0.555602
0.592674
0.607421
2.56158e-05
0.000324725
0.00166624
0.0035281
0.00660552
0.0131585
0.0182796
0.0237616
0.0368295
0.0429551
0.0517668
0.0611643
0.0746231
0.0811626
0.0944478
0.109553
0.121128
0.136453
0.145756
0.162841
2.24273e-05
4.60562e-05
0.000141494
0.000275598
0.000416135
0.000875694
0.00123147
0.00190033
0.00287174
0.00391982
0.00453139
0.00612878
0.00708302
0.00900468
0.0104127
0.0139101
0.0156172
0.0198128
0.021666
0.0272812
2.13053e-05
3.00311e-05
4.5278e-05
8.02125e-05
9.00576e-05
0.00011553
0.00013134
0.000180153
0.000215274
0.000307611
0.000336213
0.000448233
0.000484625
0.00062524
0.000706791
0.00102242
0.00113445
0.00163806
0.00188548
0.00299787
2.08101e-05
2.82101e-05
3.88829e-05
6.32116e-05
7.17478e-05
7.26352e-05
7.11398e-05
7.29657e-05
8.02794e-05
9.52543e-05
9.72115e-05
0.000102577
0.000101801
0.000104716
0.000106957
0.000124817
0.000132368
0.000162112
0.000172188
0.000229179
2.05984e-05
2.80186e-05
4.64272e-05
4.93859e-05
5.33014e-05
6.78335e-05
7.33141e-05
7.31629e-05
7.11581e-05
7.06959e-05
7.08399e-05
7.47932e-05
7.8378e-05
7.95467e-05
7.8871e-05
7.96709e-05
8.23595e-05
8.47918e-05
8.45777e-05
8.58088e-05
2.05255e-05
3.03674e-05
4.13741e-05
4.66844e-05
6.16631e-05
7.25771e-05
7.2556e-05
6.91333e-05
6.76355e-05
7.08209e-05
7.28327e-05
7.73127e-05
8.02694e-05
8.09456e-05
7.88738e-05
7.84062e-05
7.87691e-05
8.19747e-05
8.31917e-05
8.71468e-05
2.07632e-05
2.91934e-05
3.8126e-05
5.87176e-05
7.13576e-05
7.1968e-05
7.1787e-05
7.46317e-05
8.40955e-05
8.84005e-05
8.91143e-05
9.09398e-05
9.50721e-05
0.000106552
0.000111333
0.000120933
0.000133888
0.000144032
0.000155095
0.000180816
2.10482e-05
2.9787e-05
4.42233e-05
8.10831e-05
0.000109936
0.0001235
0.000135629
0.000165873
0.00018753
0.00025993
0.000329283
0.000476749
0.000548458
0.000717975
0.000781524
0.000939074
0.00111289
0.0015412
0.00184219
0.00247833
2.16409e-05
4.29894e-05
0.000121778
0.000401343
0.000652134
0.000891604
0.00119452
0.00193498
0.00242024
0.00385685
0.00490381
0.00669764
0.00760569
0.00989911
0.0109392
0.0134612
0.0154652
0.0203692
0.0231452
0.0298771
2.50213e-05
0.00030394
0.00147212
0.00521252
0.00846505
0.0118401
0.0168868
0.0269279
0.0319349
0.0447671
0.0527223
0.0655204
0.0718152
0.0873221
0.0940798
0.109929
0.11995
0.14449
0.156788
0.190246
0.000124331
0.00489068
0.0219116
0.0596145
0.0895535
0.116062
0.162925
0.210963
0.234897
0.289542
0.320646
0.361154
0.382648
0.434812
0.455697
0.502177
0.527076
0.589679
0.617247
0.688226
0.00337104
0.0691485
0.258259
0.428341
0.581057
0.691675
0.843969
0.93279
1.0111
1.10439
1.16737
1.20689
1.25113
1.31414
1.33464
1.37633
1.39897
1.45651
1.47574
1.52269
0.0845314
0.724188
1.56961
1.94418
2.27515
2.42726
2.58716
2.59721
2.62311
2.60097
2.58976
2.53593
2.52191
2.47747
2.46204
2.41548
2.40768
2.38407
2.37095
2.34216
1.40485
4.34803
5.32386
5.28612
5.13122
4.79941
4.58471
4.27524
4.13586
3.86475
3.77609
3.58172
3.52214
3.36271
3.33039
3.20449
3.17293
3.05407
3.01708
2.91737
8.11722
10.2623
8.79961
6.80986
5.71709
4.96155
4.53427
4.13048
3.93183
3.64507
3.55255
3.35185
3.30646
3.13076
3.10422
2.94852
2.91488
2.73362
2.67452
2.46341
1.85281
1.33345
1.01955
0.833202
0.721246
0.665313
0.626526
0.607872
0.587554
0.578463
0.561572
0.554012
0.537947
0.531125
0.516164
0.510139
0.497466
0.492214
0.482266
0.477089
0.469801
0.464916
0.459476
0.455077
0.450754
0.447099
0.443772
0.440271
0.438335
0.43568
0.43493
0.432954
0.432771
0.432036
0.432001
0.431712
0.430717
0.428325
0.424792
0.418184
0.404964
0.393778
0.37286
0.349994
0.326941
0.310108
0.297419
0.294877
0.297009
0.303524
0.314003
0.328552
0.345911
0.362396
0.378473
0.389568
0.401114
0.410563
0.415854
0.414562
0.408654
0.394634
0.369333
0.338856
0.304118
0.274992
0.248969
0.230104
0.220067
0.221887
0.226909
0.239194
0.251661
0.260223
0.276408
0.285853
0.291953
0.299448
0.302981
0.308968
0.313554
0.328206
0.334653
0.343968
0.356275
0.376136
0.40329
0.467441
0.467816
0.470026
0.453432
0.433174
0.389851
0.368137
0.332196
0.322696
0.300134
0.296418
0.292282
0.294327
0.294084
0.290968
0.284843
0.270994
0.259324
0.241552
0.215793
0.182792
0.13748
0.083086
0.0453758
0.0252531
0.0151219
0.00960812
0.0075535
0.00699721
0.00643037
0.00649528
0.00669312
0.00719599
0.00908485
0.0137834
0.021229
0.0361756
0.0727067
0.165914
0.251046
0.26901
0.259096
0.235429
0.199865
0.164595
0.134789
0.116823
0.107008
0.101657
0.0970854
0.0950132
0.0956529
0.0983516
0.107367
0.112643
0.112222
0.109403
0.105234
0.0955011
0.0883631
0.0753433
0.0579476
0.0419461
0.0336514
0.0314552
0.0315342
0.0331338
0.0376671
0.0516464
0.0614447
0.0751123
0.0833936
0.0903389
0.0912019
0.0905793
0.0883765
0.0842038
0.0760521
0.0730821
0.0666993
0.0615153
0.0555815
0.0503841
0.0495364
0.0562407
0.0652736
0.0617182
0.0600604
0.0870222
0.205751
0.284121
0.302943
0.293825
0.249948
0.195225
0.148398
0.119761
0.102561
0.0901183
0.0903779
0.0891393
0.0927606
0.105943
0.16209
0.215998
0.218454
0.190185
0.12211
0.111894
0.109454
0.122152
0.203794
1.70703
2.56573
2.11509
1.76864
1.51948
1.33133
1.1928
1.08598
1.00966
0.945183
0.897797
0.853428
0.820751
0.788723
0.764126
0.740196
0.720018
0.7002
0.683038
0.667955
0.653706
0.642124
0.630169
0.621415
0.611332
0.603479
0.594023
0.587727
0.578638
0.572646
0.565294
0.558844
0.554236
0.546941
0.543872
0.538357
0.535861
0.532543
0.531563
0.529239
0.5278
0.524267
0.518429
0.512385
0.500146
0.486312
0.473919
0.458815
0.449506
0.439936
0.435304
0.431248
0.431449
0.431965
0.434099
0.435813
0.4402
0.443529
0.450796
0.455707
0.463081
0.471372
0.476189
0.474736
0.470464
0.458387
0.442044
0.418127
0.403112
0.376128
0.364075
0.347959
0.338203
0.330743
0.326751
0.32399
0.32426
0.323348
0.325142
0.32415
0.327613
0.329755
0.334973
0.343161
0.353911
0.365571
0.383306
0.388054
0.410874
0.417669
0.44017
0.44078
0.437953
0.426814
0.418664
0.401126
0.386206
0.372653
0.365901
0.345762
0.336988
0.318943
0.305152
0.281182
0.255056
0.227143
0.182324
0.135043
0.0818067
0.0477517
0.0272695
0.0157769
0.0103677
0.00744043
0.00596091
0.00595432
0.00596193
0.00606339
0.00652948
0.00749033
0.00991839
0.0169537
0.0267943
0.0399944
0.0716944
0.165844
0.275784
0.298106
0.285805
0.253646
0.203969
0.154142
0.127404
0.112314
0.102665
0.0988414
0.0947179
0.0921787
0.0882958
0.0857226
0.0857854
0.0876258
0.0934215
0.103678
0.105712
0.104079
0.0998519
0.092299
0.085716
0.0713029
0.0554471
0.0407786
0.0338845
0.0322285
0.03239
0.0336617
0.0385344
0.0455273
0.0522711
0.0628617
0.0659443
0.0700457
0.0705852
0.070051
0.0684802
0.0632458
0.061771
0.0586165
0.0571564
0.0544213
0.0516187
0.0503867
0.054218
0.0619077
0.0621462
0.0657462
0.11874
0.246772
0.304388
0.319855
0.297281
0.245343
0.193947
0.144033
0.117713
0.0999944
0.0913887
0.0893886
0.0838426
0.0838171
0.0890833
0.108695
0.184711
0.210653
0.202867
0.153085
0.116777
0.114605
0.117954
0.195752
0.923231
2.07695
1.84936
1.64267
1.46933
1.32518
1.20788
1.11301
1.03973
0.976946
0.924946
0.879682
0.838741
0.803477
0.772019
0.74406
0.721428
0.701654
0.681593
0.665402
0.646833
0.631574
0.617925
0.605491
0.596206
0.587608
0.578728
0.570496
0.563603
0.552879
0.547935
0.538419
0.53318
0.52693
0.521417
0.515238
0.511929
0.507007
0.504326
0.502582
0.501141
0.500711
0.500127
0.498932
0.496576
0.491444
0.486001
0.479464
0.472895
0.46544
0.460615
0.453371
0.450553
0.445106
0.441952
0.438819
0.435673
0.434244
0.432855
0.430144
0.429845
0.42916
0.42939
0.429473
0.428439
0.425747
0.41916
0.409966
0.398565
0.382246
0.36904
0.356289
0.339364
0.331444
0.317457
0.306463
0.299043
0.285061
0.278955
0.271908
0.267583
0.268134
0.269532
0.276707
0.282583
0.296693
0.308482
0.323663
0.339379
0.35736
0.364014
0.378996
0.384979
0.384565
0.381442
0.376473
0.36131
0.352183
0.331218
0.316211
0.289083
0.261144
0.233098
0.191536
0.151204
0.103565
0.0662099
0.0410949
0.0245762
0.0153661
0.00951445
0.00670519
0.00562269
0.00490117
0.00498875
0.00542448
0.00571055
0.00663896
0.00858065
0.0116143
0.0191426
0.0343453
0.0471713
0.0724598
0.148768
0.299548
0.331095
0.316533
0.277483
0.208267
0.159513
0.128127
0.112978
0.103231
0.0981535
0.0964541
0.0935138
0.0904279
0.0878026
0.0856921
0.0822808
0.0817141
0.0827179
0.0866251
0.0979923
0.0998266
0.0989855
0.0947752
0.0906945
0.0832984
0.0684263
0.0521902
0.0392541
0.0345856
0.0329103
0.0332769
0.0350704
0.0377902
0.0422137
0.0474571
0.0517346
0.0547332
0.0571165
0.0584077
0.0576667
0.0569979
0.0560766
0.0532248
0.0526403
0.0525345
0.0526181
0.0527802
0.0571893
0.0622691
0.0620952
0.0702238
0.145134
0.272647
0.327234
0.333544
0.297421
0.244554
0.19122
0.143738
0.119111
0.102791
0.101821
0.100645
0.0947524
0.0841728
0.0844868
0.0917931
0.130554
0.189905
0.196078
0.178566
0.124196
0.118074
0.114779
0.166978
0.463469
1.32709
1.2316
1.14189
1.05724
0.978512
0.909581
0.845817
0.79252
0.751933
0.715832
0.685895
0.658423
0.628909
0.603489
0.579561
0.556499
0.542621
0.526553
0.513715
0.503836
0.488142
0.473734
0.461351
0.445404
0.437203
0.429175
0.421885
0.418811
0.413272
0.406553
0.402556
0.393084
0.388779
0.382666
0.378782
0.375238
0.373748
0.370835
0.36977
0.368079
0.368032
0.368533
0.369107
0.369117
0.370694
0.370728
0.370248
0.369085
0.366068
0.363346
0.359257
0.349925
0.346248
0.337392
0.333405
0.327689
0.325295
0.323432
0.321911
0.317401
0.31575
0.309663
0.306669
0.300465
0.296713
0.290863
0.282908
0.273872
0.267387
0.251254
0.241166
0.226448
0.208933
0.199896
0.178215
0.165642
0.153459
0.135775
0.130242
0.119749
0.116064
0.116381
0.118276
0.124151
0.133725
0.142679
0.164135
0.175055
0.198918
0.210814
0.225892
0.242712
0.248589
0.248746
0.247219
0.239528
0.227583
0.2062
0.184293
0.155371
0.126018
0.0936899
0.0661417
0.0451818
0.0293839
0.0191921
0.0120649
0.00805981
0.00585741
0.00445711
0.0041853
0.00418957
0.00430445
0.00486869
0.00554812
0.00706788
0.0110528
0.0152639
0.0226558
0.041728
0.0564506
0.0780203
0.13222
0.302249
0.365428
0.352478
0.306498
0.224059
0.173461
0.138238
0.116568
0.105531
0.0987578
0.096709
0.095227
0.0931715
0.0904334
0.0877017
0.0857572
0.0833338
0.0806936
0.0800837
0.0806737
0.0858712
0.0945784
0.0965517
0.0955359
0.0916491
0.0887404
0.0792344
0.0679568
0.0499685
0.0395109
0.0355479
0.0337673
0.0355233
0.0360124
0.0399462
0.0417486
0.0460441
0.0467555
0.0490782
0.0498236
0.0504168
0.0503911
0.0497048
0.0495482
0.0489564
0.0503048
0.0509321
0.0521649
0.0599681
0.062982
0.0622333
0.077829
0.158995
0.304953
0.336679
0.346931
0.300625
0.242914
0.189442
0.15622
0.121985
0.112369
0.107231
0.107233
0.105507
0.0889603
0.0843565
0.0879306
0.100865
0.154338
0.185534
0.181153
0.139682
0.125104
0.114845
0.145849
0.273122
0.586234
0.561328
0.533853
0.510878
0.483817
0.458134
0.435606
0.410192
0.391915
0.374692
0.359268
0.350481
0.341003
0.329821
0.321386
0.305556
0.293795
0.283774
0.275179
0.271726
0.269157
0.265548
0.261786
0.250326
0.240633
0.230894
0.222008
0.218704
0.215973
0.214109
0.213848
0.211847
0.208494
0.204709
0.199281
0.197597
0.195001
0.193658
0.193774
0.194311
0.195733
0.196714
0.196836
0.195855
0.195393
0.194285
0.191415
0.190459
0.189382
0.188573
0.188169
0.186721
0.185672
0.182133
0.174666
0.168664
0.159195
0.154385
0.151787
0.151208
0.152687
0.154026
0.154781
0.154023
0.145748
0.138583
0.128423
0.117
0.111472
0.0999934
0.0933521
0.0870619
0.0780584
0.0746659
0.0675626
0.0617902
0.0571236
0.048815
0.046054
0.041211
0.0379454
0.0370427
0.0366427
0.0377602
0.0393924
0.0418355
0.0479509
0.0513666
0.0581127
0.0668183
0.0705803
0.0794142
0.0838514
0.0848854
0.0835891
0.0803298
0.072701
0.0630767
0.0522913
0.0414593
0.0316215
0.0231055
0.0165129
0.0114425
0.00791969
0.00570805
0.00412664
0.00359008
0.00326508
0.00334048
0.00362877
0.0039597
0.00485184
0.00677909
0.00892396
0.0144311
0.0218861
0.0295471
0.0489104
0.0704953
0.0879386
0.130662
0.282291
0.397007
0.390691
0.346366
0.250642
0.196297
0.152256
0.123616
0.109809
0.0993076
0.0966908
0.0961403
0.0941997
0.0939881
0.0925072
0.0912923
0.0873978
0.0845957
0.0812311
0.079714
0.0786262
0.0799354
0.0848553
0.0910653
0.0946997
0.0921505
0.0915611
0.087564
0.0749484
0.0652369
0.0469705
0.0410617
0.035597
0.0366417
0.0363984
0.037763
0.0398553
0.0410863
0.0430704
0.0437466
0.0451598
0.0456238
0.0462603
0.0461118
0.0462224
0.0464052
0.048627
0.0487424
0.0498072
0.0598055
0.0613632
0.0621812
0.0882005
0.166424
0.316416
0.336791
0.354983
0.310756
0.235199
0.197269
0.161731
0.130048
0.11998
0.107423
0.107571
0.107107
0.0950079
0.0838306
0.0844926
0.0902793
0.121166
0.167036
0.175772
0.152144
0.142725
0.117777
0.124388
0.18542
0.159842
0.156234
0.149613
0.144923
0.140045
0.134017
0.130545
0.125557
0.121647
0.11825
0.113285
0.110872
0.108342
0.106639
0.10574
0.102714
0.09881
0.0948185
0.090511
0.0893184
0.0887746
0.0887596
0.089699
0.0899913
0.0894673
0.085474
0.0787136
0.0749791
0.0722482
0.0710309
0.0711305
0.0712054
0.0714196
0.0717562
0.0710999
0.0700216
0.067986
0.0662923
0.066031
0.0660466
0.0662186
0.0675228
0.0700909
0.0714995
0.0720241
0.0719146
0.0699393
0.068057
0.0649837
0.0635293
0.0636271
0.0634842
0.0637618
0.0637531
0.06336
0.0625093
0.05783
0.0538683
0.0500449
0.0473235
0.0469589
0.0467849
0.0470143
0.0478723
0.0476194
0.0469129
0.0440156
0.0382185
0.034619
0.0293112
0.026144
0.0236723
0.0214083
0.0206625
0.019323
0.0186229
0.0179487
0.0161864
0.0150189
0.0129989
0.0119137
0.0111009
0.010395
0.0104366
0.0105749
0.0108688
0.0118865
0.0125015
0.0136792
0.0151286
0.0164488
0.017954
0.0185493
0.018405
0.0178629
0.0167152
0.0152293
0.0133092
0.0110731
0.00903642
0.00706424
0.00546985
0.0041926
0.00325246
0.00276617
0.00243516
0.00248093
0.00263542
0.00286728
0.00355809
0.00447634
0.00604777
0.00997608
0.0138531
0.0192
0.0323975
0.0409907
0.056944
0.0892262
0.106941
0.138132
0.244333
0.422876
0.435351
0.397298
0.283801
0.223493
0.171142
0.135445
0.116801
0.103929
0.0974872
0.0962606
0.0949663
0.0941219
0.094166
0.0925009
0.0924645
0.0891397
0.0878795
0.0846125
0.0813646
0.0792297
0.0796882
0.0823206
0.0852068
0.0918718
0.0918728
0.0911388
0.0913039
0.0830429
0.0773744
0.0592586
0.0515299
0.0408729
0.0385234
0.038173
0.038175
0.0403503
0.0402952
0.0425283
0.0427263
0.0446288
0.0445595
0.0453136
0.0452777
0.0457376
0.0471346
0.0487156
0.0485442
0.0490644
0.0548465
0.0566064
0.0585012
0.0939767
0.190962
0.310002
0.337856
0.35342
0.314228
0.237522
0.199672
0.157533
0.132882
0.121763
0.107916
0.108278
0.108826
0.0989107
0.0845328
0.0840244
0.0855149
0.0975311
0.138256
0.168168
0.159829
0.162237
0.1321
0.123634
0.150196
0.0268879
0.0262404
0.0248737
0.0239213
0.0232068
0.0225197
0.0222568
0.0222139
0.0221834
0.0219101
0.0210236
0.0203638
0.0199912
0.0199089
0.0200959
0.0202603
0.0202634
0.0197632
0.0186083
0.0180439
0.0178567
0.0179752
0.018976
0.0197004
0.0200416
0.0199218
0.018413
0.0168922
0.0158963
0.015468
0.0155041
0.0158796
0.0162284
0.0164939
0.0164074
0.0162561
0.0159327
0.0156474
0.0156527
0.0156583
0.0157497
0.015835
0.0162759
0.0173117
0.0182664
0.0187329
0.0186872
0.0184695
0.0173078
0.0158831
0.0152815
0.0150261
0.0156277
0.0165192
0.0169717
0.0173602
0.0172291
0.015748
0.0134841
0.0115322
0.0106972
0.0104198
0.0107611
0.0121029
0.0129041
0.0132202
0.0131128
0.0118283
0.00966768
0.00777387
0.0062746
0.00551403
0.00535834
0.0053232
0.00540651
0.0053819
0.00534755
0.00513935
0.00454593
0.00403011
0.00356246
0.00325006
0.00302178
0.00287052
0.00284339
0.00285596
0.00290973
0.00305516
0.00319276
0.00334487
0.00361345
0.00373758
0.00382327
0.00380774
0.00375492
0.00358028
0.00340722
0.00297524
0.00266564
0.00223295
0.00198551
0.00175062
0.00167323
0.00171
0.0018207
0.00203413
0.00257771
0.0032527
0.0045991
0.0074457
0.00997314
0.0153659
0.0236378
0.03046
0.0455148
0.061974
0.0751061
0.107383
0.136698
0.163189
0.222112
0.42785
0.489689
0.452898
0.322883
0.250031
0.201008
0.156342
0.128369
0.111682
0.100346
0.0972174
0.094115
0.0931304
0.0953452
0.0949504
0.0943268
0.0936917
0.0894814
0.0890406
0.0870398
0.0827628
0.0806086
0.0804857
0.0833726
0.0855654
0.0904987
0.0928986
0.0915857
0.0937314
0.085911
0.0828188
0.0730829
0.0598333
0.0529556
0.0433697
0.0424461
0.0403496
0.0419501
0.0415193
0.0430383
0.0436699
0.0444807
0.0456567
0.0459884
0.0475993
0.0481478
0.0499047
0.0503604
0.0494725
0.0487519
0.0504171
0.0514523
0.0531859
0.0793128
0.202367
0.299532
0.350421
0.355131
0.316522
0.246484
0.187676
0.153312
0.131148
0.123279
0.117405
0.16288
0.159886
0.127217
0.0923555
0.085412
0.0828104
0.0880603
0.116786
0.157343
0.158395
0.159074
0.144299
0.128655
0.1369
0.00298641
0.00293628
0.00281172
0.0026873
0.00259314
0.00254404
0.00254676
0.00256147
0.00255532
0.00250923
0.00242231
0.00236766
0.00234752
0.00237086
0.00246596
0.00252398
0.00253441
0.00247412
0.00231695
0.00223243
0.00220767
0.00225403
0.00247382
0.00262945
0.00269523
0.00268294
0.00249693
0.00231399
0.00221662
0.00218262
0.0021935
0.00222922
0.00223904
0.00223846
0.00223239
0.00223707
0.00225958
0.00229339
0.00232882
0.00232655
0.002324
0.00230081
0.00229888
0.00240126
0.00279462
0.00314803
0.0032424
0.00325912
0.00308998
0.00271334
0.00248231
0.00240844
0.00258893
0.00295786
0.00323083
0.00335978
0.00333402
0.0029347
0.00237529
0.00203446
0.00192135
0.00198058
0.00237121
0.00274861
0.00298125
0.00303074
0.00294774
0.00247972
0.00199429
0.00166987
0.00148019
0.00149877
0.00153191
0.0015683
0.00156258
0.00154072
0.00152007
0.00141613
0.00132275
0.00122351
0.00110339
0.00101609
0.000948141
0.000880992
0.00085808
0.000843907
0.000845946
0.000858703
0.00087121
0.000890693
0.000911947
0.000962597
0.000982623
0.00102393
0.00103968
0.00105884
0.00105676
0.00107025
0.00108419
0.0011038
0.00118126
0.00131727
0.00150577
0.00202671
0.00268914
0.00404787
0.00622957
0.00849259
0.0136969
0.0189127
0.0249584
0.0393356
0.0496184
0.0649668
0.0946536
0.110808
0.136865
0.178741
0.20503
0.247539
0.402734
0.532428
0.51509
0.373644
0.275086
0.234206
0.19099
0.149603
0.124866
0.108265
0.0983171
0.0960318
0.0934061
0.0935785
0.0955396
0.0943804
0.0954737
0.0931491
0.0940689
0.0932318
0.0893763
0.0829645
0.0826232
0.0816252
0.086254
0.0871426
0.0901485
0.096662
0.0941609
0.0976471
0.0930239
0.0901698
0.0836323
0.0669784
0.062982
0.054077
0.0519993
0.0465591
0.0459255
0.0451112
0.045275
0.0470414
0.0466536
0.0490352
0.0491248
0.0525868
0.0522402
0.0544893
0.0535186
0.0501268
0.0488144
0.0490794
0.0501845
0.0530174
0.0764086
0.197814
0.291815
0.351579
0.354285
0.312905
0.266036
0.18947
0.153861
0.12831
0.122277
0.132963
0.308341
0.434774
0.334019
0.161652
0.104672
0.0849225
0.0857004
0.0975851
0.146976
0.154637
0.15352
0.149081
0.131256
0.131015
0.000232665
0.000236265
0.000246177
0.000250763
0.000250712
0.000249967
0.000249983
0.000249028
0.000247753
0.000245177
0.000243219
0.000242538
0.000243132
0.000245112
0.000246946
0.000247724
0.000246202
0.000239001
0.000233373
0.000230533
0.000229993
0.000233369
0.000243946
0.000252074
0.000258528
0.000264401
0.000270035
0.000272799
0.00027209
0.000266788
0.00025903
0.000250959
0.000244587
0.000241638
0.000241804
0.000251155
0.000263951
0.000272167
0.000272907
0.00026284
0.000250463
0.000238765
0.000236387
0.000251317
0.000310186
0.00035824
0.000374138
0.00037376
0.000353715
0.000321579
0.000304883
0.000308619
0.000339283
0.000373456
0.000392234
0.000393879
0.000376015
0.000323362
0.000292734
0.000278518
0.00028248
0.000339912
0.000406727
0.000430178
0.000435173
0.00042913
0.000430325
0.000446015
0.000507196
0.000506581
0.000510364
0.000519477
0.000542227
0.000552619
0.000568066
0.000588358
0.000594731
0.000600605
0.000613211
0.000603063
0.000559243
0.000532866
0.000513915
0.000508567
0.000513818
0.000514173
0.000520523
0.000542426
0.000556739
0.000584467
0.000617947
0.000652585
0.000691545
0.000739668
0.000773731
0.000845248
0.000913369
0.00106817
0.00124129
0.00149156
0.00225488
0.00304573
0.00404995
0.0064211
0.00859428
0.0134771
0.0172846
0.0244424
0.0353771
0.0446315
0.0629652
0.0838331
0.101583
0.138066
0.174341
0.194864
0.240398
0.278349
0.302953
0.384696
0.552921
0.559132
0.418547
0.30335
0.257503
0.229636
0.187523
0.146546
0.123666
0.106764
0.0969375
0.0940785
0.0930139
0.0943957
0.0945833
0.0944429
0.0933756
0.0895816
0.0949537
0.0938341
0.0931603
0.08504
0.0858628
0.0838269
0.0879671
0.0906518
0.0918814
0.101768
0.0983192
0.101181
0.0996984
0.0931556
0.0910382
0.080082
0.0765005
0.0654471
0.0619955
0.0599022
0.0554957
0.0544186
0.05231
0.0534597
0.0524832
0.0534328
0.0525543
0.05361
0.0525755
0.053746
0.0517795
0.0455544
0.0419915
0.0422935
0.0451562
0.0527027
0.0784856
0.184933
0.259827
0.335649
0.341285
0.318084
0.296933
0.214527
0.165568
0.137003
0.135277
0.181992
0.306651
0.641348
0.759523
0.464225
0.196724
0.101508
0.0887557
0.0903147
0.12543
0.146028
0.148185
0.148615
0.137206
0.1271
8.67164e-05
8.7848e-05
9.2634e-05
9.44832e-05
9.45484e-05
9.50775e-05
9.64362e-05
9.70262e-05
9.79847e-05
9.89689e-05
9.93518e-05
9.95335e-05
9.95007e-05
9.95385e-05
9.92925e-05
9.88288e-05
9.86707e-05
9.86848e-05
9.85955e-05
9.79114e-05
9.70544e-05
9.67883e-05
9.65269e-05
9.6927e-05
9.96097e-05
0.000101297
0.000101475
0.000101545
0.000103103
0.000106916
0.000107998
0.000108089
0.000107475
0.000106217
0.000105753
0.00010579
0.000106599
0.000106927
0.000106472
0.000106214
0.00010691
0.000107867
0.000107911
0.000109826
0.000113168
0.000114326
0.000115094
0.000114196
0.00011261
0.000110196
0.000109961
0.000111811
0.000118905
0.000123673
0.000127137
0.000129726
0.000130397
0.000131255
0.000131276
0.000134411
0.000136021
0.000138373
0.000140387
0.000155347
0.000185866
0.00021084
0.000209471
0.000209921
0.000235503
0.000335934
0.000411748
0.000467684
0.000485773
0.0004956
0.000532465
0.000592941
0.000596776
0.000585189
0.000568436
0.000566213
0.000567149
0.000582159
0.000586216
0.000594159
0.000635146
0.000707892
0.000840774
0.000932718
0.00106846
0.00118488
0.00133675
0.00144955
0.00155939
0.00175285
0.00190118
0.00222027
0.00260043
0.00350494
0.00434445
0.00550339
0.008544
0.0106778
0.0149609
0.0192919
0.0266282
0.0369501
0.0453832
0.0633909
0.0785648
0.104564
0.139237
0.168241
0.211347
0.26506
0.29602
0.335633
0.364406
0.374282
0.398566
0.512547
0.571033
0.47001
0.323555
0.279873
0.254239
0.234054
0.187634
0.146301
0.123922
0.106078
0.0965155
0.0936279
0.0928206
0.0944377
0.0947142
0.0960455
0.0926657
0.0931458
0.0926958
0.0913568
0.0968315
0.0876866
0.0936695
0.0900658
0.091171
0.0966864
0.0962917
0.105692
0.104964
0.104622
0.105624
0.097786
0.0972791
0.0877979
0.0852232
0.0799461
0.0767152
0.0743265
0.0669179
0.065228
0.0612354
0.0603171
0.057698
0.0563549
0.0531527
0.0525348
0.0511218
0.0508038
0.0467542
0.0367748
0.0328482
0.0328572
0.0349788
0.0464325
0.0674628
0.1465
0.196783
0.314084
0.333806
0.342898
0.31502
0.2273
0.17742
0.143599
0.13534
0.157192
0.299801
0.510587
0.99876
0.898197
0.435402
0.154709
0.0992204
0.0902276
0.105015
0.132658
0.14113
0.148381
0.145204
0.129821
8.88823e-05
9.0289e-05
9.54317e-05
0.000100096
0.000102689
0.000103035
0.000103318
0.000103529
0.00010425
0.00010602
0.000106577
0.000107312
0.000107323
0.000107038
0.000106813
0.00010636
0.000106351
0.000106487
0.000106914
0.0001094
0.000110802
0.000113214
0.000114932
0.000114859
0.000114916
0.000114886
0.000116807
0.00012582
0.000137144
0.000148974
0.000159058
0.000164588
0.0001653
0.000162783
0.000154249
0.000141687
0.000133976
0.000128929
0.000127296
0.000129566
0.000133543
0.000144058
0.000152731
0.000159109
0.000166669
0.000164887
0.000162655
0.000156966
0.000153197
0.000153293
0.00015444
0.000158956
0.000166414
0.00017338
0.000190939
0.00021125
0.000233646
0.000263223
0.00028926
0.0003097
0.000319131
0.000319612
0.000307388
0.000277946
0.000256039
0.000252801
0.000302763
0.000434808
0.000588656
0.000733788
0.000879253
0.00109116
0.00123797
0.00131035
0.00132805
0.00132352
0.00133186
0.00136641
0.00148432
0.00155147
0.0015872
0.00166775
0.00172049
0.001832
0.00213452
0.00253684
0.00311641
0.00352665
0.00411313
0.00449957
0.00489458
0.00531709
0.00567563
0.00655139
0.00724047
0.00879061
0.0102525
0.0136076
0.0165473
0.0201272
0.0284773
0.033951
0.0444862
0.0555098
0.0725352
0.0894555
0.114703
0.144387
0.177972
0.225962
0.271473
0.332825
0.3872
0.419443
0.425603
0.4209
0.409154
0.409803
0.44762
0.554184
0.525464
0.35149
0.289051
0.270641
0.266495
0.25544
0.207756
0.159192
0.131468
0.107605
0.0968482
0.0942279
0.0942322
0.0945482
0.0949553
0.0972053
0.0978213
0.0976276
0.0950002
0.0956867
0.0957632
0.0906157
0.0946299
0.0934382
0.0927767
0.102243
0.101098
0.11318
0.112846
0.107211
0.107575
0.0998228
0.0998476
0.0953455
0.0943121
0.0917913
0.0865896
0.0849541
0.0806976
0.0741577
0.0676853
0.0656004
0.060123
0.0574174
0.0528136
0.0522036
0.0507209
0.0483238
0.03806
0.030016
0.0277382
0.0280039
0.0290186
0.0337912
0.0456249
0.0827045
0.127237
0.275187
0.332206
0.372397
0.318853
0.233374
0.181283
0.138949
0.136632
0.141863
0.486822
0.594238
0.781251
0.94068
0.727675
0.25328
0.1217
0.0927012
0.0980119
0.127655
0.141337
0.14694
0.146234
0.135249
0.000216543
0.000239398
0.000261838
0.000279138
0.000290823
0.000293952
0.000300691
0.00030622
0.000313342
0.00033758
0.000347183
0.000366002
0.000376075
0.000377797
0.000382874
0.000384579
0.000388825
0.000416346
0.000433086
0.00047595
0.000496533
0.000511377
0.000538464
0.000548083
0.000569812
0.000576928
0.000578714
0.000595113
0.000658235
0.000744431
0.000831507
0.000896421
0.00092127
0.000925164
0.000880873
0.000748354
0.000654434
0.00058688
0.000564398
0.000598392
0.000697506
0.000859207
0.000945176
0.000986109
0.00100326
0.00096239
0.000903363
0.000832564
0.000795199
0.000784492
0.000781741
0.00078835
0.000805121
0.000823634
0.000854852
0.00101303
0.00129623
0.00162422
0.00190994
0.0020632
0.002133
0.00209247
0.00198772
0.00188698
0.00181781
0.00181389
0.00181578
0.00196431
0.00260789
0.0031532
0.00368681
0.00406922
0.00443278
0.00482233
0.00513954
0.00548607
0.005729
0.00584283
0.00610179
0.00621428
0.00632931
0.00654341
0.00676083
0.00751679
0.00875743
0.0103619
0.0118802
0.0126227
0.0142728
0.0151391
0.0168651
0.018049
0.020059
0.0235989
0.0260212
0.031814
0.0363856
0.0455635
0.054107
0.0631496
0.0827634
0.0958344
0.117601
0.147075
0.170022
0.215798
0.249647
0.305634
0.359836
0.417968
0.462544
0.489374
0.489743
0.479614
0.46442
0.42963
0.40983
0.42375
0.51242
0.531317
0.392626
0.279932
0.277748
0.283105
0.300677
0.290239
0.248379
0.18772
0.149824
0.115599
0.101695
0.0977384
0.0965155
0.0959928
0.0964763
0.0984029
0.0993816
0.0997525
0.0999224
0.0990637
0.0980677
0.0990502
0.0950732
0.0984071
0.0966188
0.109757
0.108964
0.122136
0.12067
0.107359
0.107715
0.0999182
0.101271
0.0985867
0.097924
0.096273
0.0953456
0.0951263
0.0871787
0.0780895
0.0714735
0.0674207
0.0598522
0.0567342
0.0526414
0.0517417
0.0497707
0.0419068
0.0310241
0.0253578
0.0242055
0.0244666
0.0254615
0.0284313
0.034325
0.0477399
0.0728645
0.206641
0.330539
0.37505
0.316709
0.269697
0.192165
0.134646
0.168883
0.156046
0.52809
0.696751
0.58034
0.749028
0.718507
0.375305
0.166093
0.100941
0.102578
0.129854
0.144648
0.145114
0.145343
0.136861
0.00285022
0.00305603
0.00315192
0.00319652
0.00321052
0.00321339
0.00324511
0.0033056
0.00339174
0.00362888
0.0037257
0.00392544
0.00407422
0.00412319
0.00424915
0.00430098
0.00436682
0.00457695
0.00467176
0.00490751
0.00507294
0.00524481
0.0054315
0.00551019
0.00558707
0.00558313
0.00557564
0.00568089
0.00602958
0.00641694
0.00671141
0.0069069
0.0069487
0.006865
0.00649475
0.00602637
0.00579134
0.00571245
0.00577356
0.00629973
0.00661311
0.0069325
0.00707837
0.00706276
0.00700714
0.00672679
0.00657677
0.0065078
0.00636179
0.0062567
0.00605547
0.00597846
0.00592274
0.00590585
0.00613413
0.00721945
0.00857199
0.00989398
0.0107789
0.0112512
0.0113361
0.0110089
0.0105594
0.0101708
0.0100453
0.0100751
0.010223
0.0111838
0.0121342
0.0133091
0.0146056
0.0156283
0.0170821
0.0178833
0.0188218
0.0194929
0.0201592
0.0205417
0.0211847
0.0217598
0.0223069
0.0241124
0.0256447
0.0290082
0.0311662
0.0350463
0.0379091
0.0398475
0.0447398
0.0475664
0.0531478
0.0571682
0.0664936
0.074595
0.0829174
0.100282
0.110829
0.131493
0.152311
0.175084
0.208436
0.235716
0.285002
0.320732
0.37724
0.419469
0.462221
0.499597
0.51928
0.53769
0.536305
0.530673
0.513776
0.476022
0.433255
0.408517
0.416306
0.468463
0.4945
0.416792
0.278313
0.260134
0.277986
0.314797
0.344855
0.349022
0.31763
0.242681
0.191647
0.141861
0.112375
0.101216
0.0984109
0.099558
0.100399
0.100257
0.10071
0.103684
0.104149
0.102448
0.101794
0.103934
0.10234
0.112382
0.109607
0.133334
0.124215
0.122256
0.121817
0.10368
0.105525
0.099542
0.101387
0.100714
0.102477
0.105787
0.105227
0.0988085