/*--------------------------------*- C++ -*----------------------------------*\
| =========                 |                                                 |
| \\      /  F ield         | OpenFOAM: The Open Source CFD Toolbox           |
|  \\    /   O peration     | Version:  2.4.0                                 |
|   \\  /    A nd           | Web:      www.OpenFOAM.org                      |
|    \\/     M anipulation  |                                                 |
\*---------------------------------------------------------------------------*/
FoamFile
{
    version     2.0;
    format      ascii;
    class       volVectorField;
    location    "1.16";
    object      U;
}
// * * * * * * * * * * * * * * * * * * * * * * * * * * * * * * * * * * * * * //

dimensions      [0 1 -1 0 0 0 0];

internalField   nonuniform List<vector> 
8800
(
(8.09262 0.387896 0)
(5.4522 0.242569 0)
(3.90778 0.0432288 0)
(3.16168 -0.0156937 0)
(2.79543 -0.0184471 0)
(2.60605 -0.0106063 0)
(2.47376 -0.00589449 0)
(2.39388 -0.00300057 0)
(2.3041 -5.5828e-05 0)
(2.2633 -0.00149207 0)
(2.20271 -0.00107382 0)
(2.1857 0.000352667 0)
(2.12228 0.000828775 0)
(2.12196 -0.00143242 0)
(2.06071 0.0013175 0)
(2.05945 0.00017467 0)
(1.99501 0.000223799 0)
(2.0024 -0.00314618 0)
(2.00023 0.0113362 0)
(1.76331 -0.0733316 0)
(10.0814 0.837938 0)
(9.66956 0.868227 0)
(8.85498 0.507352 0)
(8.10554 0.261046 0)
(7.47056 0.138138 0)
(7.03217 0.0833483 0)
(6.66824 0.0530735 0)
(6.4375 0.039486 0)
(6.17929 0.0337009 0)
(6.07168 0.0216542 0)
(5.88012 0.017535 0)
(5.83135 0.0190126 0)
(5.66075 0.0177871 0)
(5.66394 0.00980088 0)
(5.4907 0.0195349 0)
(5.50065 0.0125559 0)
(5.34836 0.0190421 0)
(5.34485 -0.00866893 0)
(5.29918 0.0325119 0)
(5.14778 -0.0344381 0)
(10.0464 0.629591 0)
(10.6884 0.864967 0)
(10.8295 0.601722 0)
(10.736 0.372403 0)
(10.4153 0.255928 0)
(10.1343 0.198775 0)
(9.7842 0.150294 0)
(9.56569 0.122993 0)
(9.23358 0.100163 0)
(9.11825 0.0712585 0)
(8.84528 0.0584617 0)
(8.78557 0.0547525 0)
(8.54424 0.0467422 0)
(8.55288 0.0318742 0)
(8.31042 0.048069 0)
(8.32442 0.0314493 0)
(8.12507 0.0451759 0)
(8.11658 -9.05372e-05 0)
(8.01366 0.0385907 0)
(7.95249 -0.0758404 0)
(9.95264 0.453888 0)
(10.6372 0.710088 0)
(11.0917 0.545217 0)
(11.4479 0.3494 0)
(11.4859 0.262255 0)
(11.5442 0.23255 0)
(11.4057 0.194013 0)
(11.4064 0.177852 0)
(11.1896 0.156665 0)
(11.1878 0.117327 0)
(10.9728 0.105315 0)
(10.9707 0.0973492 0)
(10.7556 0.0860105 0)
(10.7827 0.0594012 0)
(10.566 0.088678 0)
(10.5713 0.0556644 0)
(10.3942 0.0807346 0)
(10.3686 0.0172334 0)
(10.2506 0.0596846 0)
(10.2379 -0.0881544 0)
(9.94011 0.338901 0)
(10.5177 0.577204 0)
(10.9433 0.462066 0)
(11.3926 0.290835 0)
(11.5608 0.205388 0)
(11.7756 0.200599 0)
(11.7842 0.168872 0)
(11.9278 0.172095 0)
(11.896 0.159322 0)
(11.9945 0.123279 0)
(11.9346 0.110259 0)
(12.0169 0.114628 0)
(11.9544 0.0948552 0)
(12.0038 0.0763789 0)
(11.9409 0.100492 0)
(11.9556 0.0851069 0)
(11.9006 0.0868967 0)
(11.8614 0.0636174 0)
(11.8166 0.0579032 0)
(11.8136 -0.00831798 0)
(9.96024 0.245283 0)
(10.4058 0.460082 0)
(10.8347 0.382673 0)
(11.2335 0.242356 0)
(11.4716 0.161018 0)
(11.6673 0.156811 0)
(11.7517 0.136312 0)
(11.868 0.138188 0)
(11.9562 0.136788 0)
(12.0561 0.101758 0)
(12.0957 0.0958443 0)
(12.1895 0.0958713 0)
(12.25 0.0860159 0)
(12.2984 0.0620279 0)
(12.3623 0.0939807 0)
(12.4104 0.0786188 0)
(12.4643 0.0846691 0)
(12.466 0.0771747 0)
(12.4806 0.08575 0)
(12.5238 0.0165245 0)
(9.98323 0.172152 0)
(10.334 0.352899 0)
(10.7344 0.298649 0)
(11.1161 0.202481 0)
(11.3814 0.112582 0)
(11.5763 0.126486 0)
(11.6779 0.0944783 0)
(11.7592 0.119278 0)
(11.8739 0.0938963 0)
(11.9826 0.0945178 0)
(12.0177 0.0601819 0)
(12.1268 0.0943003 0)
(12.2043 0.0450122 0)
(12.2747 0.0692105 0)
(12.3339 0.0443183 0)
(12.4119 0.0913461 0)
(12.4756 0.0347445 0)
(12.5265 0.116821 0)
(12.5558 0.066091 0)
(12.5988 0.174335 0)
(9.99188 0.101565 0)
(10.2922 0.261208 0)
(10.6463 0.205694 0)
(11.0354 0.162254 0)
(11.301 0.0659421 0)
(11.5468 0.101305 0)
(11.6041 0.0552671 0)
(11.6807 0.0997986 0)
(11.8004 0.0432973 0)
(11.8979 0.0895494 0)
(11.9421 0.0266976 0)
(12.0738 0.0845426 0)
(12.158 0.0143308 0)
(12.2154 0.0681014 0)
(12.2372 0.0183828 0)
(12.3606 0.0863454 0)
(12.4202 0.00847085 0)
(12.4682 0.112393 0)
(12.4958 0.0506514 0)
(12.4909 0.167866 0)
(9.99568 0.0598022 0)
(10.2519 0.150924 0)
(10.6081 0.139595 0)
(10.9868 0.0882741 0)
(11.2805 0.0293319 0)
(11.4733 0.0563927 0)
(11.5556 0.0495699 0)
(11.6605 0.0503468 0)
(11.7676 0.0316248 0)
(11.8328 0.044903 0)
(11.9148 0.0206723 0)
(12.0319 0.0340942 0)
(12.1064 0.0213402 0)
(12.1288 0.0362807 0)
(12.2126 0.020717 0)
(12.3208 0.0238254 0)
(12.3861 0.0250494 0)
(12.4505 0.0584198 0)
(12.4393 0.0557205 0)
(12.4076 0.0055847 0)
(9.99966 0.00598756 0)
(10.2209 0.0627629 0)
(10.5955 0.0426404 0)
(11.0009 0.0336812 0)
(11.2273 -0.00470468 0)
(11.4052 0.044121 0)
(11.5675 0.00161382 0)
(11.6741 0.0208606 0)
(11.7368 -0.00552125 0)
(11.7973 0.0358582 0)
(11.9063 -0.0156965 0)
(11.9796 0.0277511 0)
(12.0568 0.00440218 0)
(12.1567 0.029363 0)
(12.2356 -0.0158268 0)
(12.2591 0.019011 0)
(12.3293 -0.0160167 0)
(12.4156 0.0424178 0)
(12.4573 0.00875591 0)
(12.3973 0.00636841 0)
(10.0032 -0.0255166 0)
(10.213 -0.0449821 0)
(10.6147 -0.0371141 0)
(10.9723 -0.0318298 0)
(11.2166 -0.0197554 0)
(11.424 -0.0106049 0)
(11.5879 -0.0238682 0)
(11.6743 -0.0172874 0)
(11.6943 -0.00696118 0)
(11.8133 -0.00988941 0)
(11.9202 -0.0183951 0)
(11.9698 -0.00802911 0)
(12.0389 -0.0128374 0)
(12.1753 -0.0112649 0)
(12.2451 -0.00223535 0)
(12.2621 -0.0125785 0)
(12.324 -0.0247378 0)
(12.4027 -0.0117151 0)
(12.4508 -0.00209159 0)
(12.3799 -0.022888 0)
(10.0042 -0.073897 0)
(10.2393 -0.142594 0)
(10.6235 -0.125277 0)
(10.9815 -0.0844865 0)
(11.2744 -0.0570986 0)
(11.451 -0.0394916 0)
(11.576 -0.0587608 0)
(11.6683 -0.0397463 0)
(11.7391 -0.0406675 0)
(11.854 -0.0430036 0)
(11.9451 -0.039389 0)
(11.9976 -0.0156222 0)
(12.0607 -0.0291287 0)
(12.1629 -0.0345225 0)
(12.2503 -0.0265849 0)
(12.3152 -0.0244425 0)
(12.3555 -0.0539455 0)
(12.4267 -0.0358116 0)
(12.4302 -0.0371926 0)
(12.3869 -0.0279482 0)
(10.0106 -0.12092 0)
(10.2649 -0.245768 0)
(10.6666 -0.200432 0)
(11.0291 -0.154912 0)
(11.321 -0.086699 0)
(11.4963 -0.0723345 0)
(11.6138 -0.0831513 0)
(11.7177 -0.0821415 0)
(11.8052 -0.0623703 0)
(11.8734 -0.0712488 0)
(11.9592 -0.0493977 0)
(12.0453 -0.0422384 0)
(12.1238 -0.0464166 0)
(12.2098 -0.0598114 0)
(12.2969 -0.0395364 0)
(12.3524 -0.0526295 0)
(12.4118 -0.0636845 0)
(12.4452 -0.0666177 0)
(12.4943 -0.0560848 0)
(12.4422 -0.0664964 0)
(10.0304 -0.182258 0)
(10.286 -0.349085 0)
(10.7545 -0.285531 0)
(11.1045 -0.204861 0)
(11.4068 -0.123139 0)
(11.5461 -0.110745 0)
(11.6876 -0.115939 0)
(11.7809 -0.113715 0)
(11.8686 -0.0834258 0)
(11.9237 -0.0972468 0)
(12.0519 -0.0727918 0)
(12.1284 -0.0680167 0)
(12.1958 -0.0595733 0)
(12.2696 -0.08241 0)
(12.3644 -0.0566962 0)
(12.4071 -0.0708891 0)
(12.4567 -0.0828662 0)
(12.5236 -0.0964299 0)
(12.5639 -0.094779 0)
(12.5124 -0.0847414 0)
(10.0708 -0.258523 0)
(10.3083 -0.449734 0)
(10.8859 -0.371322 0)
(11.1825 -0.254689 0)
(11.5479 -0.162067 0)
(11.6006 -0.146117 0)
(11.8097 -0.14993 0)
(11.829 -0.143912 0)
(11.9797 -0.107658 0)
(11.9864 -0.126879 0)
(12.1616 -0.0966583 0)
(12.1562 -0.0870028 0)
(12.2687 -0.0747462 0)
(12.2804 -0.107736 0)
(12.3991 -0.0686238 0)
(12.3747 -0.0919704 0)
(12.4509 -0.0939853 0)
(12.4529 -0.131198 0)
(12.4869 -0.109474 0)
(12.3727 -0.129422 0)
(10.0657 -0.353249 0)
(10.3724 -0.559391 0)
(11.0583 -0.459849 0)
(11.3107 -0.301151 0)
(11.6679 -0.207632 0)
(11.6544 -0.185973 0)
(11.8968 -0.18845 0)
(11.8091 -0.168052 0)
(11.9936 -0.136067 0)
(11.884 -0.145369 0)
(12.0505 -0.116924 0)
(11.9119 -0.0984646 0)
(12.0475 -0.089703 0)
(11.9037 -0.114931 0)
(12.0254 -0.0790714 0)
(11.8644 -0.0967002 0)
(11.9423 -0.0977493 0)
(11.7884 -0.138534 0)
(11.7987 -0.114852 0)
(11.574 -0.155077 0)
(10.0117 -0.460239 0)
(10.5478 -0.700721 0)
(11.1893 -0.546977 0)
(11.3636 -0.357251 0)
(11.5627 -0.257336 0)
(11.449 -0.224377 0)
(11.5074 -0.207948 0)
(11.2766 -0.174831 0)
(11.324 -0.141124 0)
(11.0547 -0.136327 0)
(11.0958 -0.107584 0)
(10.8372 -0.0872004 0)
(10.8984 -0.0781628 0)
(10.6172 -0.094486 0)
(10.7021 -0.0644876 0)
(10.4257 -0.0787752 0)
(10.487 -0.0754213 0)
(10.2008 -0.118382 0)
(10.2149 -0.0870969 0)
(9.88354 -0.156128 0)
(10.064 -0.633579 0)
(10.6506 -0.861272 0)
(10.8799 -0.601383 0)
(10.6788 -0.375248 0)
(10.4636 -0.254103 0)
(10.0824 -0.195069 0)
(9.84426 -0.15776 0)
(9.4771 -0.122199 0)
(9.34145 -0.0903165 0)
(9.00524 -0.081002 0)
(8.9452 -0.0621555 0)
(8.67224 -0.0475112 0)
(8.67157 -0.0415584 0)
(8.39483 -0.0534241 0)
(8.44239 -0.0378413 0)
(8.17131 -0.0433379 0)
(8.21454 -0.0489118 0)
(7.91863 -0.0718988 0)
(7.92791 -0.0656881 0)
(7.58791 -0.0844468 0)
(10.0844 -0.839017 0)
(9.65353 -0.866974 0)
(8.87713 -0.50667 0)
(8.07539 -0.26284 0)
(7.49733 -0.137478 0)
(7.00541 -0.0809053 0)
(6.69935 -0.0562963 0)
(6.388 -0.0411841 0)
(6.24222 -0.0267389 0)
(6.00389 -0.0266679 0)
(5.94005 -0.0211262 0)
(5.75575 -0.0148391 0)
(5.74542 -0.0130783 0)
(5.5579 -0.0230934 0)
(5.57245 -0.0149552 0)
(5.38559 -0.0181718 0)
(5.40118 -0.0225785 0)
(5.17735 -0.0345391 0)
(5.17022 -0.035392 0)
(4.88506 -0.0156141 0)
(8.09142 -0.38808 0)
(5.44801 -0.242476 0)
(3.91313 -0.0427877 0)
(3.15527 0.0151977 0)
(2.80136 0.0182498 0)
(2.59818 0.0115487 0)
(2.48561 0.00504453 0)
(2.37464 0.00200316 0)
(2.32378 0.00273116 0)
(2.24596 -8.70018e-05 0)
(2.21829 -0.000115617 0)
(2.15582 0.000841552 0)
(2.15443 0.00096467 0)
(2.08617 -0.00242895 0)
(2.07806 -0.000121896 0)
(2.01016 -0.00096192 0)
(2.00451 -0.0014348 0)
(1.90985 -0.00457066 0)
(1.87221 -0.00367003 0)
(1.7282 0.0110717 0)
(2.28185 -0.12278 0)
(2.37526 0.016302 0)
(2.51156 0.0600506 0)
(2.63206 0.0416399 0)
(2.75146 0.00289975 0)
(2.83077 -0.0357295 0)
(2.91191 -0.058107 0)
(2.9559 -0.0603431 0)
(3.02125 -0.0496106 0)
(3.05212 -0.0329706 0)
(3.11442 -0.0188742 0)
(3.14194 -0.00456113 0)
(3.20427 0.00140965 0)
(3.23757 0.0064277 0)
(3.29909 0.00451273 0)
(3.34152 0.00506799 0)
(3.39453 0.00119051 0)
(3.44103 -0.000323873 0)
(3.48635 -0.00463723 0)
(3.53022 -0.00443196 0)
(3.56791 -0.0041868 0)
(3.60935 -0.00491311 0)
(3.6405 -0.00120325 0)
(3.68027 0.000348691 0)
(3.7067 0.00121328 0)
(3.74686 0.00356967 0)
(3.76958 0.000309585 0)
(3.81028 -0.00101356 0)
(3.82661 -0.0034434 0)
(3.8605 -0.0117306 0)
(3.87576 -0.0152723 0)
(3.89821 -0.0247294 0)
(3.91598 -0.030211 0)
(3.92052 -0.0316022 0)
(3.93258 -0.0319646 0)
(3.92115 -0.0213138 0)
(3.93067 -0.00434956 0)
(3.91325 0.01748 0)
(3.93679 0.0489362 0)
(3.93382 0.0931095 0)
(3.98276 0.135293 0)
(4.03169 0.189453 0)
(4.10204 0.227127 0)
(4.22514 0.226268 0)
(4.32331 0.202488 0)
(4.41951 0.139453 0)
(4.49456 0.0485767 0)
(4.51815 -0.0408351 0)
(4.52019 -0.127084 0)
(4.48388 -0.188727 0)
(4.44287 -0.22582 0)
(4.39914 -0.240205 0)
(4.35712 -0.230884 0)
(4.32364 -0.211872 0)
(4.30401 -0.188613 0)
(4.2834 -0.163013 0)
(4.2646 -0.131906 0)
(4.2623 -0.0909902 0)
(4.25609 -0.0294132 0)
(4.2781 0.0311371 0)
(4.30022 0.122569 0)
(4.37246 0.226244 0)
(4.52855 0.326764 0)
(4.69276 0.421738 0)
(5.05072 0.47385 0)
(5.39831 0.435656 0)
(5.8015 0.309269 0)
(6.09451 0.113525 0)
(6.36099 -0.126227 0)
(6.48213 -0.386112 0)
(6.55252 -0.634425 0)
(6.52591 -0.80008 0)
(6.54623 -0.968766 0)
(6.41151 -1.0673 0)
(6.46914 -1.1646 0)
(6.31462 -1.22506 0)
(6.3753 -1.26382 0)
(6.22365 -1.33648 0)
(6.24938 -1.345 0)
(6.10516 -1.32377 0)
(6.03811 -1.30332 0)
(5.9003 -1.14167 0)
(5.77028 -1.01212 0)
(5.53497 -0.813222 0)
(5.45481 -0.587123 0)
(5.24697 -0.298607 0)
(5.38691 0.0174391 0)
(5.14488 0.318292 0)
(5.48374 0.553564 0)
(5.46898 0.896953 0)
(5.89373 0.977809 0)
(6.05631 1.17414 0)
(6.78655 1.21265 0)
(7.01751 1.16411 0)
(7.5272 1.06229 0)
(8.06139 0.824424 0)
(8.43211 0.66871 0)
(8.88487 0.343299 0)
(9.44521 -0.0612831 0)
(9.63682 -0.314994 0)
(10.2282 -0.79141 0)
(10.5099 -1.20607 0)
(10.9454 -1.62018 0)
(11.3968 -2.15979 0)
(11.6933 -2.48196 0)
(12.1206 -3.05699 0)
(12.5893 -3.5135 0)
(12.7169 -3.88768 0)
(13.1658 -4.41244 0)
(13.2258 -4.7699 0)
(13.2817 -5.10053 0)
(13.2838 -5.44279 0)
(13.0014 -5.57448 0)
(12.6017 -5.62998 0)
(12.3141 -5.75881 0)
(11.6873 -5.60705 0)
(11.1975 -5.47391 0)
(10.9631 -5.47613 0)
(10.4767 -5.33612 0)
(10.2999 -5.30871 0)
(10.2684 -5.51013 0)
(10.2056 -5.631 0)
(9.887 -5.57428 0)
(9.68591 -5.68517 0)
(9.76009 -5.94064 0)
(9.60912 -5.87146 0)
(9.16254 -5.56143 0)
(8.80513 -5.20958 0)
(8.53625 -5.06725 0)
(8.82281 -5.07995 0)
(9.23967 -5.06635 0)
(9.66728 -4.86211 0)
(10.1569 -4.46767 0)
(10.4329 -3.89438 0)
(10.743 -3.03398 0)
(10.9037 -2.21446 0)
(11.2062 -1.25331 0)
(11.1475 -0.215744 0)
(11.4077 0.784119 0)
(11.2302 1.67781 0)
(11.2309 2.65811 0)
(10.876 3.36633 0)
(10.7408 4.05819 0)
(10.531 4.5898 0)
(10.4976 5.04352 0)
(10.7228 5.54662 0)
(10.537 6.07754 0)
(10.746 6.31974 0)
(10.4534 6.46591 0)
(10.4206 6.46781 0)
(10.0181 6.13167 0)
(9.94888 6.03073 0)
(9.78284 5.82744 0)
(9.89824 5.61076 0)
(10.1657 5.54732 0)
(10.1772 5.25696 0)
(10.4173 4.69358 0)
(10.2206 4.28916 0)
(10.3719 3.78892 0)
(10.1228 3.1186 0)
(10.0282 2.49923 0)
(9.87669 2.01858 0)
(9.62409 1.37026 0)
(9.35847 0.908861 0)
(9.04032 0.277969 0)
(8.9512 0.0894991 0)
(8.33575 -0.640574 0)
(8.34785 -0.751853 0)
(7.7186 -1.12847 0)
(7.38161 -1.05709 0)
(7.37355 -1.19306 0)
(6.90439 -1.26661 0)
(6.68486 -0.524476 0)
(6.32754 0.554203 0)
(6.05368 0.835354 0)
(5.93527 0.45095 0)
(6.03665 -0.395171 0)
(6.05607 -1.87227 0)
(6.44539 -3.8492 0)
(6.6932 -5.37061 0)
(7.72571 -5.36495 0)
(8.03855 -4.96778 0)
(8.58515 -4.13076 0)
(8.33421 -3.21318 0)
(8.89459 -2.20207 0)
(8.86935 -1.57168 0)
(9.38048 -0.351898 0)
(9.93129 0.909281 0)
(9.98806 2.09613 0)
(10.2353 3.60804 0)
(10.5838 5.17596 0)
(9.99103 6.11195 0)
(9.40822 6.36249 0)
(8.57715 7.00739 0)
(8.11417 7.5629 0)
(7.77247 8.53844 0)
(6.79368 8.96257 0)
(6.68605 9.91146 0)
(6.41771 11.6835 0)
(3.86192 14.431 0)
(5.32429 -0.0844428 0)
(5.35495 -0.0509298 0)
(5.35604 -0.0202898 0)
(5.35719 -0.0215189 0)
(5.38624 -0.0470854 0)
(5.42198 -0.0813789 0)
(5.47095 -0.107087 0)
(5.51029 -0.112847 0)
(5.54975 -0.100105 0)
(5.57431 -0.0763002 0)
(5.6017 -0.056526 0)
(5.62113 -0.039137 0)
(5.64586 -0.0296193 0)
(5.67096 -0.0270504 0)
(5.69719 -0.0276452 0)
(5.72942 -0.0302314 0)
(5.75614 -0.0322406 0)
(5.78923 -0.0320355 0)
(5.81359 -0.035706 0)
(5.8428 -0.032484 0)
(5.86468 -0.0300219 0)
(5.89127 -0.031553 0)
(5.91039 -0.0251409 0)
(5.93615 -0.0253022 0)
(5.95269 -0.0224192 0)
(5.97772 -0.0192918 0)
(5.99571 -0.0214053 0)
(6.01619 -0.0211926 0)
(6.03574 -0.0202647 0)
(6.04837 -0.0274675 0)
(6.06566 -0.0294564 0)
(6.07415 -0.032604 0)
(6.08632 -0.0377154 0)
(6.0893 -0.0335432 0)
(6.09463 -0.0307817 0)
(6.08771 -0.0189123 0)
(6.08729 -0.00218183 0)
(6.07858 0.0212295 0)
(6.07486 0.0454215 0)
(6.08207 0.080842 0)
(6.08787 0.114186 0)
(6.11927 0.144756 0)
(6.14197 0.171371 0)
(6.19192 0.164047 0)
(6.2464 0.142289 0)
(6.28756 0.0934135 0)
(6.33061 0.0232065 0)
(6.34359 -0.0457764 0)
(6.35251 -0.115742 0)
(6.3347 -0.175944 0)
(6.32759 -0.208067 0)
(6.31268 -0.234443 0)
(6.30496 -0.235729 0)
(6.30067 -0.220327 0)
(6.30363 -0.21308 0)
(6.30579 -0.177694 0)
(6.32193 -0.148456 0)
(6.33508 -0.109847 0)
(6.36359 -0.0466423 0)
(6.39594 -0.00179418 0)
(6.43944 0.079586 0)
(6.50914 0.153256 0)
(6.61236 0.213542 0)
(6.75468 0.27624 0)
(6.92685 0.275827 0)
(7.19865 0.232002 0)
(7.42419 0.130409 0)
(7.68301 -0.0717228 0)
(7.84008 -0.213109 0)
(8.04618 -0.464211 0)
(8.05711 -0.659468 0)
(8.1688 -0.775749 0)
(8.16695 -0.989682 0)
(8.12418 -1.05769 0)
(8.19313 -1.11112 0)
(8.13495 -1.23114 0)
(8.13293 -1.20328 0)
(8.14455 -1.25866 0)
(8.02417 -1.26101 0)
(8.05529 -1.21562 0)
(7.84539 -1.18643 0)
(7.81588 -1.04485 0)
(7.63964 -0.915287 0)
(7.5113 -0.734635 0)
(7.42508 -0.44013 0)
(7.31709 -0.278801 0)
(7.21252 0.0240436 0)
(7.40259 0.2538 0)
(7.23494 0.455421 0)
(7.62257 0.669855 0)
(7.76387 0.844295 0)
(7.97666 0.901267 0)
(8.37795 0.881004 0)
(8.79632 0.8552 0)
(8.99133 0.781265 0)
(9.67666 0.467716 0)
(9.80965 0.357229 0)
(10.4012 0.0175829 0)
(10.7279 -0.336058 0)
(11.1309 -0.656613 0)
(11.5773 -1.1075 0)
(11.8858 -1.44739 0)
(12.3363 -1.9386 0)
(12.7557 -2.40107 0)
(12.9626 -2.7419 0)
(13.4032 -3.30935 0)
(13.5936 -3.66662 0)
(13.713 -4.10415 0)
(13.9168 -4.51634 0)
(13.6718 -4.7698 0)
(13.6468 -5.0687 0)
(13.326 -5.28314 0)
(12.818 -5.24988 0)
(12.433 -5.36826 0)
(12.0218 -5.35814 0)
(11.368 -5.14847 0)
(11.1939 -5.19446 0)
(10.8644 -5.16895 0)
(10.4516 -5.06582 0)
(10.4421 -5.24331 0)
(10.2791 -5.45099 0)
(9.94429 -5.36053 0)
(9.50797 -5.36343 0)
(9.54727 -5.64883 0)
(9.3306 -5.73606 0)
(8.72135 -5.38461 0)
(8.09391 -5.1141 0)
(7.7737 -5.07441 0)
(7.94029 -5.35447 0)
(8.41152 -5.54442 0)
(8.73936 -5.53105 0)
(9.23595 -5.23391 0)
(9.41443 -4.67335 0)
(9.76126 -4.02583 0)
(9.89368 -3.16319 0)
(10.0944 -2.237 0)
(10.3494 -1.27416 0)
(10.4827 -0.297345 0)
(10.5758 0.750778 0)
(10.7381 1.6934 0)
(10.6237 2.68069 0)
(10.6379 3.45812 0)
(10.3568 4.1462 0)
(10.2836 4.68382 0)
(9.67765 5.02293 0)
(10.1039 5.55534 0)
(10.015 5.97324 0)
(10.0247 6.30597 0)
(10.2632 6.48269 0)
(9.94501 6.69102 0)
(10.0719 6.34986 0)
(9.6634 6.19053 0)
(9.67144 5.92103 0)
(9.45515 5.45808 0)
(9.84338 5.41985 0)
(9.61191 5.0324 0)
(10.0963 4.63554 0)
(9.90082 4.29173 0)
(10.2523 3.76119 0)
(10.0401 3.21052 0)
(10.0354 2.61046 0)
(9.9012 2.15838 0)
(9.72608 1.49115 0)
(9.64197 1.18429 0)
(9.21371 0.361732 0)
(9.32612 0.430164 0)
(8.49057 -0.314321 0)
(8.6892 -0.403357 0)
(7.85872 -0.768762 0)
(7.78315 -0.711801 0)
(7.38704 -1.12314 0)
(7.21368 -1.16448 0)
(7.09828 -0.455896 0)
(6.71628 0.91886 0)
(6.23739 1.01487 0)
(6.25006 0.580533 0)
(5.94044 -0.662969 0)
(6.35389 -1.93839 0)
(6.33052 -4.23159 0)
(6.85349 -5.79682 0)
(7.46715 -5.93395 0)
(7.98427 -5.19707 0)
(8.23621 -4.03532 0)
(7.80708 -3.25113 0)
(8.64198 -2.28365 0)
(8.30101 -1.64234 0)
(9.25917 -0.77975 0)
(9.53254 0.611772 0)
(9.92355 1.94142 0)
(10.1231 3.26456 0)
(10.6266 5.09898 0)
(10.4623 6.36689 0)
(9.74121 7.09513 0)
(9.43251 7.53616 0)
(8.54965 8.09094 0)
(8.59815 8.74483 0)
(7.73159 9.43344 0)
(7.32433 10.0749 0)
(8.88046 11.0971 0)
(6.54918 15.3843 0)
(7.99571 -0.0561851 0)
(8.00168 0.000950619 0)
(8.0001 0.0184531 0)
(7.97609 -0.00188381 0)
(7.96877 -0.0467518 0)
(7.98257 -0.0968061 0)
(8.01481 -0.122323 0)
(8.05422 -0.123778 0)
(8.08268 -0.108362 0)
(8.10137 -0.0839237 0)
(8.10703 -0.0697822 0)
(8.10578 -0.0552168 0)
(8.1095 -0.0450635 0)
(8.12194 -0.0457791 0)
(8.13543 -0.038434 0)
(8.16174 -0.0426024 0)
(8.17639 -0.0486673 0)
(8.19669 -0.0426978 0)
(8.21331 -0.0529394 0)
(8.22096 -0.0502959 0)
(8.23553 -0.0433744 0)
(8.24494 -0.0511527 0)
(8.25269 -0.0370006 0)
(8.27435 -0.0354035 0)
(8.27822 -0.0400308 0)
(8.29595 -0.0305633 0)
(8.30661 -0.0387286 0)
(8.31287 -0.0386655 0)
(8.32243 -0.028398 0)
(8.3313 -0.0386105 0)
(8.32836 -0.0354786 0)
(8.3433 -0.0333418 0)
(8.33347 -0.0431286 0)
(8.33891 -0.0317338 0)
(8.33527 -0.0331372 0)
(8.32673 -0.022962 0)
(8.31511 0.0042196 0)
(8.31126 0.0196471 0)
(8.2989 0.0459714 0)
(8.30368 0.074795 0)
(8.30771 0.101164 0)
(8.31755 0.119316 0)
(8.33524 0.141973 0)
(8.36034 0.132006 0)
(8.37846 0.105186 0)
(8.41447 0.0783393 0)
(8.4182 0.0092606 0)
(8.43081 -0.0386827 0)
(8.42432 -0.0921888 0)
(8.42608 -0.157079 0)
(8.39897 -0.178526 0)
(8.42405 -0.217507 0)
(8.38068 -0.225994 0)
(8.41706 -0.213952 0)
(8.39157 -0.21841 0)
(8.41925 -0.184163 0)
(8.42133 -0.160139 0)
(8.45056 -0.136877 0)
(8.45811 -0.072003 0)
(8.52479 -0.0509912 0)
(8.52368 0.0121094 0)
(8.64164 0.077893 0)
(8.6833 0.0848678 0)
(8.82965 0.147958 0)
(8.96909 0.127792 0)
(9.13915 0.0430985 0)
(9.31474 -0.00258403 0)
(9.55621 -0.195582 0)
(9.59404 -0.345973 0)
(9.85651 -0.498484 0)
(9.85056 -0.695562 0)
(9.9238 -0.81603 0)
(10.0141 -0.964151 0)
(9.90895 -1.04577 0)
(10.0312 -1.12601 0)
(9.97122 -1.20114 0)
(9.89041 -1.19326 0)
(10.0094 -1.25432 0)
(9.75984 -1.22396 0)
(9.87899 -1.14647 0)
(9.71766 -1.12616 0)
(9.60483 -0.96514 0)
(9.63354 -0.813923 0)
(9.37728 -0.668227 0)
(9.37108 -0.42496 0)
(9.36011 -0.222158 0)
(9.09765 -0.00199485 0)
(9.44975 0.173359 0)
(9.21226 0.435758 0)
(9.53296 0.502184 0)
(9.70557 0.613246 0)
(9.84194 0.735058 0)
(10.1988 0.617704 0)
(10.5384 0.573705 0)
(10.7282 0.4946 0)
(11.2808 0.192773 0)
(11.4221 0.0278282 0)
(11.9945 -0.317271 0)
(12.1513 -0.587292 0)
(12.6644 -0.990518 0)
(12.9624 -1.38913 0)
(13.2392 -1.69903 0)
(13.6117 -2.21687 0)
(13.8601 -2.5867 0)
(14.0101 -3.00459 0)
(14.2642 -3.45522 0)
(14.1482 -3.75277 0)
(14.2678 -4.19769 0)
(14.0688 -4.44212 0)
(13.718 -4.63926 0)
(13.5479 -4.881 0)
(13.0103 -4.93079 0)
(12.5394 -4.89852 0)
(12.245 -5.0129 0)
(11.7523 -4.86666 0)
(11.3645 -4.79535 0)
(11.2693 -4.93608 0)
(10.758 -4.81677 0)
(10.5974 -4.8873 0)
(10.4805 -5.16121 0)
(10.0549 -5.09129 0)
(9.49616 -4.95974 0)
(9.25453 -5.24546 0)
(9.14259 -5.44685 0)
(8.26251 -5.20651 0)
(7.51344 -4.80155 0)
(7.03774 -4.85271 0)
(7.04913 -5.29208 0)
(7.45227 -5.6377 0)
(7.67819 -5.84383 0)
(8.00646 -5.71463 0)
(8.3368 -5.29382 0)
(8.41323 -4.78264 0)
(8.71626 -4.01429 0)
(8.81379 -3.24459 0)
(9.20797 -2.35782 0)
(9.25909 -1.36345 0)
(9.54737 -0.344492 0)
(9.49223 0.631902 0)
(9.8632 1.60524 0)
(9.65839 2.58431 0)
(9.91096 3.53357 0)
(9.69416 4.3031 0)
(9.72946 4.94541 0)
(9.2681 5.11868 0)
(9.21235 5.53739 0)
(9.41766 5.9518 0)
(9.1965 6.14724 0)
(9.83966 6.43906 0)
(9.53405 6.56145 0)
(9.73345 6.47748 0)
(9.55177 6.20496 0)
(9.3221 6.09349 0)
(9.2926 5.40093 0)
(9.25037 5.41118 0)
(9.36627 4.88827 0)
(9.45656 4.50547 0)
(9.62038 4.0584 0)
(9.65853 3.69611 0)
(9.86852 3.17479 0)
(9.70868 2.65195 0)
(9.89346 2.20729 0)
(9.3176 1.60619 0)
(9.76689 1.31841 0)
(8.949 0.480685 0)
(9.4654 0.743547 0)
(8.43399 -0.215093 0)
(9.07271 -0.0344791 0)
(7.86852 -0.532098 0)
(8.20886 -0.341566 0)
(7.34741 -0.911036 0)
(7.45137 -0.896527 0)
(6.90775 -0.24784 0)
(6.61661 1.29421 0)
(6.1962 1.16292 0)
(6.30664 0.824363 0)
(5.96669 -0.743974 0)
(6.55173 -1.92404 0)
(6.41469 -4.42039 0)
(6.84733 -6.02286 0)
(6.97985 -6.45063 0)
(7.97921 -5.28042 0)
(7.42654 -4.23308 0)
(7.91551 -3.31472 0)
(7.95772 -2.61109 0)
(8.39016 -1.92009 0)
(8.82906 -1.30453 0)
(9.34299 0.240978 0)
(9.74516 1.84896 0)
(9.89622 2.89375 0)
(10.4276 4.97999 0)
(10.7718 6.50657 0)
(10.3122 7.44033 0)
(9.75083 7.8545 0)
(9.2927 8.55556 0)
(9.08065 9.2039 0)
(9.12241 9.69669 0)
(7.87774 10.8084 0)
(10.8784 10.0668 0)
(8.81889 15.445 0)
(10.2974 -0.0382976 0)
(10.2573 0.0230844 0)
(10.204 0.0418209 0)
(10.1555 0.00610107 0)
(10.149 -0.0489246 0)
(10.1732 -0.0950141 0)
(10.1914 -0.132311 0)
(10.2245 -0.141094 0)
(10.2423 -0.126164 0)
(10.2501 -0.0960354 0)
(10.2667 -0.0658091 0)
(10.2607 -0.0454703 0)
(10.2511 -0.0386898 0)
(10.2517 -0.0469814 0)
(10.2355 -0.0529404 0)
(10.2506 -0.0585072 0)
(10.2619 -0.0572218 0)
(10.2713 -0.0504507 0)
(10.3058 -0.0521772 0)
(10.3049 -0.0414114 0)
(10.3115 -0.0405471 0)
(10.3176 -0.0501968 0)
(10.2978 -0.0440107 0)
(10.3156 -0.0502028 0)
(10.3129 -0.0437295 0)
(10.3205 -0.0343485 0)
(10.3361 -0.0374062 0)
(10.3458 -0.0245617 0)
(10.3321 -0.0269229 0)
(10.3589 -0.0321046 0)
(10.3319 -0.0346181 0)
(10.346 -0.0374751 0)
(10.3398 -0.0325222 0)
(10.329 -0.0263801 0)
(10.3273 -0.016128 0)
(10.3183 0.00308249 0)
(10.302 0.0227993 0)
(10.3014 0.0315191 0)
(10.2957 0.0503925 0)
(10.287 0.065908 0)
(10.2916 0.087168 0)
(10.3074 0.108267 0)
(10.3069 0.117423 0)
(10.345 0.122362 0)
(10.3543 0.103641 0)
(10.3647 0.0767746 0)
(10.3948 0.0237767 0)
(10.3719 -0.0276552 0)
(10.3838 -0.0814203 0)
(10.38 -0.14308 0)
(10.3461 -0.161325 0)
(10.3716 -0.198289 0)
(10.334 -0.209592 0)
(10.3437 -0.194768 0)
(10.3589 -0.218515 0)
(10.3264 -0.182406 0)
(10.3736 -0.177403 0)
(10.3757 -0.161293 0)
(10.3715 -0.107292 0)
(10.4584 -0.0925642 0)
(10.4365 -0.0496976 0)
(10.5118 0.00153069 0)
(10.6099 0.00634983 0)
(10.6273 0.0414981 0)
(10.8164 0.00423279 0)
(10.909 -0.039841 0)
(11.0228 -0.135739 0)
(11.2498 -0.280641 0)
(11.2479 -0.385428 0)
(11.443 -0.592317 0)
(11.4752 -0.707837 0)
(11.435 -0.817918 0)
(11.5897 -1.01774 0)
(11.3938 -0.991455 0)
(11.49 -1.15509 0)
(11.4286 -1.1861 0)
(11.2503 -1.15297 0)
(11.3899 -1.25365 0)
(11.1307 -1.1386 0)
(11.1516 -1.1051 0)
(11.1349 -1.06882 0)
(10.8594 -0.868305 0)
(11.0774 -0.821772 0)
(10.7502 -0.568088 0)
(10.8581 -0.439279 0)
(10.8492 -0.217817 0)
(10.7184 0.00345221 0)
(10.9779 0.115627 0)
(10.9417 0.335671 0)
(11.1 0.435286 0)
(11.4165 0.428566 0)
(11.4572 0.560712 0)
(11.868 0.428204 0)
(12.0329 0.37964 0)
(12.4006 0.193172 0)
(12.6379 0.00932472 0)
(12.9594 -0.26113 0)
(13.3225 -0.559497 0)
(13.4687 -0.813725 0)
(13.8748 -1.23679 0)
(14.0449 -1.55903 0)
(14.2429 -1.93386 0)
(14.4512 -2.35993 0)
(14.4762 -2.68416 0)
(14.5821 -3.12798 0)
(14.5024 -3.42885 0)
(14.2763 -3.72242 0)
(14.2537 -4.0772 0)
(13.7655 -4.2165 0)
(13.5051 -4.41088 0)
(13.1673 -4.57676 0)
(12.6532 -4.5238 0)
(12.3959 -4.60448 0)
(12.1044 -4.64472 0)
(11.6393 -4.48386 0)
(11.5347 -4.66079 0)
(11.2216 -4.66924 0)
(10.7722 -4.57475 0)
(10.6914 -4.78593 0)
(10.2358 -4.83437 0)
(9.56796 -4.57316 0)
(9.1311 -4.71157 0)
(8.95827 -5.01747 0)
(8.10878 -4.74096 0)
(6.98205 -4.35923 0)
(6.45958 -4.36508 0)
(6.1616 -4.86784 0)
(6.35748 -5.50282 0)
(6.59428 -5.85117 0)
(6.72593 -6.06703 0)
(7.16795 -5.89252 0)
(7.2359 -5.45486 0)
(7.46616 -4.99739 0)
(7.74689 -4.2322 0)
(7.77805 -3.51957 0)
(8.29568 -2.56277 0)
(8.20737 -1.56459 0)
(8.35179 -0.410791 0)
(8.34289 0.601538 0)
(8.68359 1.67437 0)
(8.58366 2.59448 0)
(8.82134 3.43325 0)
(8.90133 4.33487 0)
(8.76198 5.06802 0)
(8.79927 5.30435 0)
(8.3375 5.50042 0)
(8.71102 5.89056 0)
(8.46519 5.96205 0)
(8.84712 6.40802 0)
(9.14686 6.45677 0)
(9.05091 6.53686 0)
(9.38172 6.3244 0)
(9.01793 6.18603 0)
(9.04817 5.53407 0)
(8.91001 5.31392 0)
(8.82646 4.81787 0)
(9.04144 4.42144 0)
(9.0002 3.96052 0)
(9.22796 3.62196 0)
(9.33122 2.99204 0)
(9.28882 2.70132 0)
(9.61132 2.26163 0)
(8.96062 1.72359 0)
(9.7611 1.33307 0)
(8.47439 0.730971 0)
(9.42253 0.922281 0)
(8.01057 -0.0608494 0)
(9.05331 0.250234 0)
(7.65525 -0.374867 0)
(8.3248 0.0404272 0)
(7.34982 -0.74476 0)
(7.49727 -0.510184 0)
(6.72292 0.198061 0)
(6.49362 1.57803 0)
(6.2068 1.28085 0)
(6.42777 0.853799 0)
(5.85741 -1.06111 0)
(6.66322 -2.19758 0)
(6.54 -4.62091 0)
(6.49351 -6.22576 0)
(6.92116 -6.77234 0)
(7.34646 -5.35161 0)
(7.21906 -4.35036 0)
(7.92239 -3.41541 0)
(7.58039 -2.93008 0)
(8.62447 -2.28503 0)
(8.61401 -1.72157 0)
(9.24628 -0.174369 0)
(9.57243 1.53545 0)
(9.7402 2.68778 0)
(10.2391 4.5227 0)
(10.4961 6.71754 0)
(10.7115 7.74615 0)
(10.1944 8.47212 0)
(9.78862 8.64617 0)
(9.44373 9.44207 0)
(10.2508 9.43583 0)
(8.09027 11.1219 0)
(11.6284 8.04941 0)
(10.3662 14.7595 0)
(11.8982 -0.00825392 0)
(11.832 -0.0168509 0)
(11.7509 -0.0379849 0)
(11.7155 -0.0558181 0)
(11.7076 -0.0955201 0)
(11.7551 -0.119044 0)
(11.7911 -0.127532 0)
(11.8055 -0.138857 0)
(11.8219 -0.117828 0)
(11.8046 -0.104338 0)
(11.8013 -0.102258 0)
(11.8071 -0.0722025 0)
(11.793 -0.0651428 0)
(11.8011 -0.0653703 0)
(11.7951 -0.0489012 0)
(11.7845 -0.0683931 0)
(11.7931 -0.0718643 0)
(11.7785 -0.0628271 0)
(11.8074 -0.0910322 0)
(11.8207 -0.0575695 0)
(11.8352 -0.0509683 0)
(11.8497 -0.0605904 0)
(11.8404 -0.0284727 0)
(11.8242 -0.0529755 0)
(11.8091 -0.0557256 0)
(11.7797 -0.0424016 0)
(11.7869 -0.0752457 0)
(11.7977 -0.0478622 0)
(11.8106 -0.0362903 0)
(11.8252 -0.0562414 0)
(11.8509 -0.0172649 0)
(11.8175 -0.0319473 0)
(11.8389 -0.0324064 0)
(11.7923 -0.00771326 0)
(11.7976 -0.0303045 0)
(11.7827 -0.00618946 0)
(11.7929 0.0153816 0)
(11.7771 0.0139226 0)
(11.8083 0.048094 0)
(11.8014 0.0744593 0)
(11.8085 0.0809845 0)
(11.8243 0.102078 0)
(11.8195 0.104437 0)
(11.8217 0.0809021 0)
(11.8501 0.0669969 0)
(11.8318 0.0479484 0)
(11.8776 -0.0158623 0)
(11.8749 -0.0189171 0)
(11.8842 -0.0745253 0)
(11.9086 -0.117225 0)
(11.886 -0.121075 0)
(11.8822 -0.187814 0)
(11.8812 -0.188306 0)
(11.8145 -0.199139 0)
(11.8666 -0.233497 0)
(11.7846 -0.186473 0)
(11.8336 -0.205223 0)
(11.837 -0.173872 0)
(11.8404 -0.123384 0)
(11.9092 -0.135438 0)
(11.9348 -0.0634946 0)
(11.9508 -0.0640068 0)
(12.078 -0.0707974 0)
(12.0167 -0.0220844 0)
(12.1935 -0.134742 0)
(12.1993 -0.127189 0)
(12.275 -0.222861 0)
(12.4565 -0.392847 0)
(12.394 -0.395628 0)
(12.5754 -0.652269 0)
(12.5938 -0.719797 0)
(12.5033 -0.779272 0)
(12.6694 -1.03078 0)
(12.418 -0.934681 0)
(12.4918 -1.11085 0)
(12.3703 -1.15024 0)
(12.1854 -1.05887 0)
(12.2516 -1.20771 0)
(11.9703 -1.04922 0)
(11.9923 -1.0429 0)
(11.9206 -1.00802 0)
(11.7071 -0.792563 0)
(11.9101 -0.796904 0)
(11.6015 -0.536753 0)
(11.7851 -0.429418 0)
(11.7311 -0.269664 0)
(11.733 -0.0489151 0)
(11.9145 0.0240435 0)
(11.9926 0.186189 0)
(12.1429 0.29243 0)
(12.4304 0.274914 0)
(12.564 0.323134 0)
(12.903 0.245772 0)
(13.0354 0.155459 0)
(13.461 -0.0645562 0)
(13.5123 -0.161456 0)
(13.9497 -0.496549 0)
(14.0525 -0.723384 0)
(14.2797 -1.02067 0)
(14.4494 -1.38073 0)
(14.5345 -1.67229 0)
(14.633 -2.07869 0)
(14.6179 -2.3777 0)
(14.5163 -2.71893 0)
(14.5146 -3.10873 0)
(14.184 -3.2988 0)
(14.0139 -3.64708 0)
(13.7883 -3.85013 0)
(13.3448 -3.98852 0)
(13.2103 -4.19282 0)
(12.8023 -4.22559 0)
(12.5429 -4.24046 0)
(12.4218 -4.38331 0)
(12.0265 -4.29672 0)
(11.7974 -4.3126 0)
(11.671 -4.48725 0)
(11.1395 -4.29567 0)
(10.8782 -4.3427 0)
(10.5633 -4.47229 0)
(9.80378 -4.21064 0)
(9.17706 -4.11721 0)
(8.79369 -4.41143 0)
(8.06181 -4.33014 0)
(6.7418 -3.91093 0)
(5.91469 -3.7874 0)
(5.41022 -4.1411 0)
(5.33465 -4.84823 0)
(5.46194 -5.56848 0)
(5.5832 -6.02895 0)
(5.92269 -6.24882 0)
(6.07548 -6.07057 0)
(6.12214 -5.62777 0)
(6.39617 -5.11344 0)
(6.43919 -4.38523 0)
(6.64675 -3.58074 0)
(6.89109 -2.59947 0)
(6.96306 -1.64129 0)
(7.27975 -0.558412 0)
(7.29524 0.290097 0)
(7.61571 1.4064 0)
(7.54154 2.41245 0)
(7.61714 3.31405 0)
(8.03123 4.23498 0)
(7.73337 5.03943 0)
(7.86657 5.52504 0)
(7.57898 5.60607 0)
(7.64141 5.87377 0)
(7.86644 5.89717 0)
(7.77163 6.12548 0)
(8.47864 6.21332 0)
(8.36495 6.33974 0)
(8.71076 6.36077 0)
(8.82546 6.16855 0)
(8.40167 5.7075 0)
(8.95573 5.41541 0)