/*--------------------------------*- C++ -*----------------------------------*\
| =========                 |                                                 |
| \\      /  F ield         | OpenFOAM: The Open Source CFD Toolbox           |
|  \\    /   O peration     | Version:  2.4.0                                 |
|   \\  /    A nd           | Web:      www.OpenFOAM.org                      |
|    \\/     M anipulation  |                                                 |
\*---------------------------------------------------------------------------*/
FoamFile
{
    version     2.0;
    format      ascii;
    class       volVectorField;
    location    "1.16";
    object      U_0;
}
// * * * * * * * * * * * * * * * * * * * * * * * * * * * * * * * * * * * * * //

dimensions      [0 1 -1 0 0 0 0];

internalField   nonuniform List<vector> 
8800
(
(8.09263 0.387893 0)
(5.45216 0.242574 0)
(3.90776 0.0432281 0)
(3.16179 -0.0157105 0)
(2.79532 -0.0184183 0)
(2.60604 -0.0106198 0)
(2.4739 -0.00593651 0)
(2.3938 -0.00293149 0)
(2.30396 -5.80044e-05 0)
(2.26345 -0.00157648 0)
(2.2028 -0.00100896 0)
(2.18547 0.000399923 0)
(2.12226 0.000736275 0)
(2.12222 -0.00142685 0)
(2.06062 0.00139574 0)
(2.05924 0.000141342 0)
(1.99511 0.000171232 0)
(2.00255 -0.003105 0)
(2.00008 0.0113661 0)
(1.76364 -0.0735313 0)
(10.0814 0.83794 0)
(9.66942 0.868246 0)
(8.85498 0.507315 0)
(8.10579 0.261023 0)
(7.47021 0.138243 0)
(7.03231 0.0832752 0)
(6.66851 0.0529784 0)
(6.43705 0.0396938 0)
(6.17936 0.0336572 0)
(6.07203 0.0214198 0)
(5.87987 0.0177569 0)
(5.83119 0.0191289 0)
(5.66103 0.0174872 0)
(5.66404 0.00983861 0)
(5.49041 0.0197966 0)
(5.50069 0.0124255 0)
(5.34845 0.0188699 0)
(5.34491 -0.00848952 0)
(5.29904 0.0326261 0)
(5.1483 -0.0350043 0)
(10.0466 0.629592 0)
(10.6881 0.865032 0)
(10.8295 0.601632 0)
(10.7365 0.372378 0)
(10.4149 0.2561 0)
(10.1344 0.198582 0)
(9.78466 0.150217 0)
(9.56501 0.123361 0)
(9.23365 0.0999865 0)
(9.11881 0.0709447 0)
(8.84479 0.0588764 0)
(8.78541 0.0548296 0)
(8.54481 0.0462687 0)
(8.55285 0.0320195 0)
(8.30991 0.0484411 0)
(8.32475 0.0311978 0)
(8.12511 0.0449462 0)
(8.11651 0.000189234 0)
(8.01356 0.0387862 0)
(7.95262 -0.0769106 0)
(9.95298 0.453912 0)
(10.6368 0.71017 0)
(11.0912 0.54497 0)
(11.4487 0.349441 0)
(11.4858 0.26265 0)
(11.544 0.232159 0)
(11.4063 0.193909 0)
(11.4059 0.178447 0)
(11.1893 0.156264 0)
(11.1882 0.116904 0)
(10.9725 0.106019 0)
(10.9705 0.0973668 0)
(10.7561 0.0853018 0)
(10.7829 0.0597423 0)
(10.5655 0.089185 0)
(10.5717 0.0552013 0)
(10.3941 0.0804838 0)
(10.3684 0.0176438 0)
(10.2508 0.0600443 0)
(10.2378 -0.0900025 0)
(9.94047 0.338911 0)
(10.5178 0.577562 0)
(10.9422 0.461627 0)
(11.3928 0.290562 0)
(11.5614 0.205971 0)
(11.7754 0.200178 0)
(11.7846 0.168712 0)
(11.9282 0.173041 0)
(11.8959 0.158851 0)
(11.9939 0.122595 0)
(11.9344 0.111167 0)
(12.0172 0.114644 0)
(11.9543 0.0938595 0)
(12.004 0.0768546 0)
(11.941 0.101156 0)
(11.956 0.0845601 0)
(11.9002 0.0866092 0)
(11.8607 0.0639491 0)
(11.8171 0.0584479 0)
(11.8152 -0.00866446 0)
(9.9602 0.245179 0)
(10.4066 0.460525 0)
(10.8338 0.382387 0)
(11.2332 0.241991 0)
(11.4722 0.161633 0)
(11.6669 0.156351 0)
(11.7513 0.135949 0)
(11.8689 0.139092 0)
(11.9573 0.136539 0)
(12.055 0.101158 0)
(12.095 0.0966335 0)
(12.19 0.095967 0)
(12.2491 0.0849924 0)
(12.2983 0.0623954 0)
(12.3632 0.0946945 0)
(12.4115 0.0780513 0)
(12.4643 0.0845693 0)
(12.4647 0.077498 0)
(12.4802 0.0858226 0)
(12.5262 0.0159413 0)
(9.98359 0.171938 0)
(10.3342 0.353553 0)
(10.7332 0.298465 0)
(11.1161 0.201733 0)
(11.3823 0.113273 0)
(11.5765 0.126276 0)
(11.6763 0.0939978 0)
(11.7597 0.120043 0)
(11.8766 0.0937522 0)
(11.9809 0.0942152 0)
(12.0164 0.0608818 0)
(12.1281 0.0942593 0)
(12.2039 0.0439896 0)
(12.2738 0.0693505 0)
(12.3339 0.0448267 0)
(12.4128 0.090968 0)
(12.476 0.0349651 0)
(12.5264 0.117313 0)
(12.5551 0.0661146 0)
(12.6015 0.173199 0)
(9.99264 0.101323 0)
(10.2913 0.262053 0)
(10.645 0.205459 0)
(11.0358 0.161408 0)
(11.304 0.0665829 0)
(11.5467 0.101409 0)
(11.5997 0.0547207 0)
(11.6817 0.0996895 0)
(11.8029 0.0436708 0)
(11.8961 0.0898187 0)
(11.9428 0.0268281 0)
(12.0768 0.0844594 0)
(12.157 0.0137724 0)
(12.2113 0.068452 0)
(12.2377 0.0186867 0)
(12.3637 0.0855945 0)
(12.4195 0.00851408 0)
(12.4665 0.112893 0)
(12.4945 0.0506708 0)
(12.4941 0.166934 0)
(9.99594 0.0596216 0)
(10.2513 0.152159 0)
(10.6076 0.139034 0)
(10.9882 0.086361 0)
(11.2814 0.0302784 0)
(11.4712 0.0579955 0)
(11.5545 0.0487686 0)
(11.6627 0.0495397 0)
(11.7676 0.032074 0)
(11.8315 0.0449775 0)
(11.9168 0.0202886 0)
(12.0334 0.034475 0)
(12.1027 0.0219836 0)
(12.1264 0.0360301 0)
(12.2159 0.0194858 0)
(12.3232 0.0237622 0)
(12.3867 0.0265282 0)
(12.4479 0.0590791 0)
(12.4367 0.0547969 0)
(12.4103 0.00439012 0)
(9.9992 0.00584106 0)
(10.2209 0.0637373 0)
(10.598 0.0418951 0)
(11 0.0326793 0)
(11.2235 -0.00318034 0)
(11.4069 0.0446927 0)
(11.5708 1.16863e-05 0)
(11.6737 0.0205154 0)
(11.7341 -0.00430501 0)
(11.7973 0.0355744 0)
(11.9071 -0.0161961 0)
(11.9789 0.02907 0)
(12.0581 0.0048053 0)
(12.1584 0.0279835 0)
(12.2332 -0.0167752 0)
(12.2569 0.0189311 0)
(12.3318 -0.0146253 0)
(12.418 0.0434937 0)
(12.4566 0.00818666 0)
(12.397 0.00567332 0)
(10.0025 -0.0255897 0)
(10.2138 -0.0444345 0)
(10.616 -0.0374269 0)
(10.9698 -0.0321344 0)
(11.2155 -0.0194283 0)
(11.4274 -0.0108027 0)
(11.59 -0.0241765 0)
(11.6703 -0.0165404 0)
(11.6927 -0.00662407 0)
(11.8165 -0.0106776 0)
(11.9193 -0.0186339 0)
(11.9673 -0.00781378 0)
(12.042 -0.0127132 0)
(12.1785 -0.0106583 0)
(12.2417 -0.0025625 0)
(12.259 -0.0137552 0)
(12.3255 -0.0244334 0)
(12.4052 -0.0103647 0)
(12.4505 -0.00176429 0)
(12.3793 -0.0227691 0)
(10.0043 -0.0740781 0)
(10.2392 -0.142151 0)
(10.6233 -0.125166 0)
(10.9817 -0.0849029 0)
(11.2744 -0.0571511 0)
(11.4505 -0.039745 0)
(11.5763 -0.0584724 0)
(11.6676 -0.0392282 0)
(11.7401 -0.0413485 0)
(11.856 -0.0433841 0)
(11.9435 -0.0384452 0)
(11.9951 -0.0153715 0)
(12.0613 -0.0300127 0)
(12.1652 -0.0342811 0)
(12.251 -0.026067 0)
(12.3137 -0.0256646 0)
(12.3549 -0.0540163 0)
(12.4261 -0.0345544 0)
(12.4293 -0.0364451 0)
(12.3911 -0.0273956 0)
(10.0109 -0.121013 0)
(10.2644 -0.245133 0)
(10.6662 -0.200805 0)
(11.0295 -0.155448 0)
(11.3215 -0.0862386 0)
(11.4958 -0.0725161 0)
(11.6143 -0.0833687 0)
(11.7184 -0.0816897 0)
(11.8043 -0.062612 0)
(11.8723 -0.0712785 0)
(11.9594 -0.048681 0)
(12.0457 -0.0426035 0)
(12.1243 -0.047331 0)
(12.211 -0.059254 0)
(12.2971 -0.03907 0)
(12.3515 -0.0533347 0)
(12.4101 -0.0635324 0)
(12.4449 -0.0655444 0)
(12.4955 -0.0565522 0)
(12.4445 -0.0662284 0)
(10.0305 -0.182393 0)
(10.2856 -0.348509 0)
(10.7549 -0.285639 0)
(11.105 -0.205409 0)
(11.4065 -0.122985 0)
(11.5456 -0.111 0)
(11.6885 -0.115933 0)
(11.7808 -0.112936 0)
(11.8668 -0.0836396 0)
(11.9244 -0.0977564 0)
(12.0539 -0.0723095 0)
(12.1276 -0.0679827 0)
(12.1949 -0.060372 0)
(12.2706 -0.0821197 0)
(12.3644 -0.0559082 0)
(12.4052 -0.0714578 0)
(12.4567 -0.0830089 0)
(12.525 -0.0960272 0)
(12.5644 -0.0946562 0)
(12.513 -0.0841959 0)
(10.0709 -0.258534 0)
(10.3074 -0.449175 0)
(10.8865 -0.371863 0)
(11.1838 -0.255147 0)
(11.5473 -0.161475 0)
(11.5997 -0.146448 0)
(11.81 -0.150096 0)
(11.8286 -0.142979 0)
(11.979 -0.108094 0)
(11.9877 -0.127688 0)
(12.1625 -0.0957635 0)
(12.1549 -0.0867256 0)
(12.2684 -0.0759087 0)
(12.2815 -0.107433 0)
(12.3987 -0.0675686 0)
(12.3735 -0.0925455 0)
(12.4516 -0.0945523 0)
(12.454 -0.130623 0)
(12.4865 -0.109292 0)
(12.3738 -0.129243 0)
(10.0652 -0.353173 0)
(10.3725 -0.559035 0)
(11.0599 -0.46047 0)
(11.3105 -0.301286 0)
(11.6665 -0.206984 0)
(11.6544 -0.186478 0)
(11.897 -0.188543 0)
(11.8089 -0.167135 0)
(11.9938 -0.136642 0)
(11.8845 -0.146123 0)
(12.0505 -0.115936 0)
(11.9114 -0.0981903 0)
(12.0472 -0.0908376 0)
(11.904 -0.114702 0)
(12.0254 -0.0780266 0)
(11.8639 -0.0972504 0)
(11.9428 -0.098379 0)
(11.7888 -0.13805 0)
(11.7985 -0.114675 0)
(11.575 -0.154926 0)
(10.0113 -0.460156 0)
(10.5485 -0.700645 0)
(11.1897 -0.547379 0)
(11.3627 -0.357071 0)
(11.5627 -0.256923 0)
(11.4493 -0.224917 0)
(11.5069 -0.207967 0)
(11.2771 -0.174181 0)
(11.3242 -0.141614 0)
(11.0541 -0.1368 0)
(11.0961 -0.106782 0)
(10.8375 -0.0870259 0)
(10.8977 -0.0790616 0)
(10.6173 -0.0943215 0)
(10.7026 -0.0636569 0)
(10.4254 -0.0792088 0)
(10.487 -0.0759594 0)
(10.2009 -0.117956 0)
(10.2149 -0.0868886 0)
(9.88374 -0.155784 0)
(10.0638 -0.633563 0)
(10.651 -0.861208 0)
(10.8798 -0.601529 0)
(10.6783 -0.375201 0)
(10.4641 -0.253935 0)
(10.0822 -0.195333 0)
(9.84385 -0.157772 0)
(9.47782 -0.121818 0)
(9.34131 -0.0905428 0)
(9.00459 -0.0813469 0)
(8.94568 -0.0617056 0)
(8.67255 -0.0473093 0)
(8.67096 -0.0421509 0)
(8.39486 -0.0534095 0)
(8.44286 -0.0372408 0)
(8.17113 -0.0435733 0)
(8.21443 -0.0493317 0)
(7.91864 -0.0716271 0)
(7.92792 -0.0654634 0)
(7.58831 -0.0842673 0)
(10.0844 -0.83901 0)
(9.65378 -0.866949 0)
(8.877 -0.50674 0)
(8.07519 -0.262834 0)
(7.49774 -0.137357 0)
(7.00517 -0.0810286 0)
(6.69912 -0.0563704 0)
(6.38847 -0.0409487 0)
(6.24211 -0.0268072 0)
(6.00348 -0.0269352 0)
(5.94028 -0.0208806 0)
(5.75606 -0.0146426 0)
(5.74514 -0.0134539 0)
(5.55769 -0.023136 0)
(5.57271 -0.0145576 0)
(5.38574 -0.0182926 0)
(5.40105 -0.0228768 0)
(5.17717 -0.0343704 0)
(5.17032 -0.0352356 0)
(4.88551 -0.0155471 0)
(8.0914 -0.388084 0)
(5.44809 -0.242468 0)
(3.9131 -0.0427941 0)
(3.15516 0.0151836 0)
(2.8015 0.0182861 0)
(2.59818 0.0115206 0)
(2.48545 0.00500878 0)
(2.37474 0.00208222 0)
(2.32395 0.002721 0)
(2.24577 -0.00018288 0)
(2.21813 -4.79193e-05 0)
(2.15614 0.000916135 0)
(2.15451 0.000854272 0)
(2.08578 -0.0024517 0)
(2.0781 -4.6982e-06 0)
(2.01053 -0.000991311 0)
(2.00444 -0.00152639 0)
(1.90957 -0.00452357 0)
(1.87231 -0.00363355 0)
(1.72866 0.0111046 0)
(2.28293 -0.122931 0)
(2.37583 0.0167653 0)
(2.51159 0.0605209 0)
(2.63178 0.0418984 0)
(2.75131 0.00273973 0)
(2.83084 -0.0361398 0)
(2.91239 -0.0582973 0)
(2.9565 -0.0601027 0)
(3.02174 -0.0491019 0)
(3.0524 -0.0326823 0)
(3.11451 -0.0188368 0)
(3.14187 -0.00465005 0)
(3.20433 0.00100553 0)
(3.23761 0.00604071 0)
(3.29939 0.00421617 0)
(3.34169 0.00475479 0)
(3.39475 0.00120616 0)
(3.44114 -0.000371738 0)
(3.48645 -0.00458132 0)
(3.53029 -0.00403167 0)
(3.56801 -0.00416127 0)
(3.60946 -0.00467214 0)
(3.64079 -0.000868514 0)
(3.68051 0.000283407 0)
(3.70716 0.00143104 0)
(3.74728 0.00357053 0)
(3.77007 0.000185825 0)
(3.81073 -0.000792828 0)
(3.82669 -0.00387134 0)
(3.86088 -0.0123376 0)
(3.87561 -0.0159063 0)
(3.89836 -0.0259188 0)
(3.91546 -0.0312035 0)
(3.9199 -0.0328329 0)
(3.93115 -0.0332181 0)
(3.91952 -0.02201 0)
(3.92817 -0.00535043 0)
(3.91067 0.0165301 0)
(3.93375 0.048931 0)
(3.93027 0.0934858 0)
(3.98013 0.136736 0)
(4.02777 0.192557 0)
(4.0997 0.230584 0)
(4.22307 0.230594 0)
(4.3203 0.208068 0)
(4.41754 0.145014 0)
(4.49278 0.0546359 0)
(4.51749 -0.0348058 0)
(4.52031 -0.122246 0)
(4.48473 -0.184342 0)
(4.44495 -0.223147 0)
(4.40163 -0.239303 0)
(4.3594 -0.231156 0)
(4.32582 -0.214227 0)
(4.30562 -0.191344 0)
(4.28407 -0.16601 0)
(4.2653 -0.135375 0)
(4.26239 -0.0932326 0)
(4.25688 -0.031531 0)
(4.27935 0.0305791 0)
(4.30373 0.124153 0)
(4.38134 0.227098 0)
(4.53789 0.328012 0)
(4.70795 0.421737 0)
(5.07068 0.46895 0)
(5.41582 0.426534 0)
(5.81596 0.295422 0)
(6.1031 0.0981628 0)
(6.36422 -0.141953 0)
(6.47744 -0.401463 0)
(6.54331 -0.642598 0)
(6.51461 -0.808187 0)
(6.52742 -0.97187 0)
(6.39422 -1.06579 0)
(6.44375 -1.16456 0)
(6.28634 -1.21513 0)
(6.34791 -1.25494 0)
(6.18933 -1.32343 0)
(6.2234 -1.32192 0)
(6.07108 -1.30309 0)
(6.01231 -1.27381 0)
(5.86866 -1.11088 0)
(5.73775 -0.985201 0)
(5.51011 -0.779448 0)
(5.43319 -0.554436 0)
(5.23892 -0.26222 0)
(5.37713 0.0469196 0)
(5.15134 0.341118 0)
(5.49686 0.58084 0)
(5.49666 0.902454 0)
(5.9127 0.980426 0)
(6.10469 1.17611 0)
(6.82646 1.19891 0)
(7.04128 1.14465 0)
(7.57368 1.02983 0)
(8.09813 0.795731 0)
(8.45857 0.640187 0)
(8.93759 0.294476 0)
(9.46539 -0.0911643 0)
(9.67247 -0.352751 0)
(10.2714 -0.838867 0)
(10.5308 -1.24016 0)
(10.9972 -1.67169 0)
(11.4203 -2.19207 0)
(11.7218 -2.51876 0)
(12.1634 -3.10741 0)
(12.601 -3.53609 0)
(12.7334 -3.9202 0)
(13.1823 -4.44416 0)
(13.2118 -4.78146 0)
(13.2795 -5.12108 0)
(13.2621 -5.44778 0)
(12.958 -5.56571 0)
(12.5782 -5.63182 0)
(12.2708 -5.752 0)
(11.6413 -5.58783 0)
(11.17 -5.4714 0)
(10.941 -5.46828 0)
(10.4477 -5.32962 0)
(10.3087 -5.3221 0)
(10.275 -5.5275 0)
(10.1958 -5.63565 0)
(9.8776 -5.58636 0)
(9.69772 -5.72091 0)
(9.77905 -5.96022 0)
(9.60165 -5.86585 0)
(9.15514 -5.54307 0)
(8.80938 -5.20268 0)
(8.56669 -5.06779 0)
(8.87206 -5.08162 0)
(9.29763 -5.04628 0)
(9.71154 -4.82386 0)
(10.21 -4.41964 0)
(10.4614 -3.81198 0)
(10.7772 -2.94721 0)
(10.9421 -2.13091 0)
(11.2213 -1.14894 0)
(11.1682 -0.115303 0)
(11.4218 0.865503 0)
(11.2272 1.7649 0)
(11.2119 2.73849 0)
(10.8604 3.42368 0)
(10.7268 4.1112 0)
(10.5508 4.62171 0)
(10.5123 5.07032 0)
(10.7591 5.59624 0)
(10.5487 6.09143 0)
(10.7535 6.31883 0)
(10.4748 6.45282 0)
(10.3875 6.42931 0)
(10.0434 6.08241 0)
(9.92919 6.00762 0)
(9.80703 5.77265 0)
(9.91496 5.5663 0)
(10.1999 5.5118 0)
(10.1684 5.15229 0)
(10.4337 4.60598 0)
(10.1962 4.22666 0)
(10.3814 3.6937 0)
(10.0883 3.02102 0)
(10.027 2.43057 0)
(9.84588 1.94641 0)
(9.58544 1.29497 0)
(9.31128 0.835053 0)
(9.01412 0.232292 0)
(8.8871 0.0245548 0)
(8.28494 -0.70564 0)
(8.29524 -0.780786 0)
(7.62793 -1.14942 0)
(7.36752 -1.05609 0)
(7.34006 -1.21782 0)
(6.83839 -1.20663 0)
(6.62434 -0.350022 0)
(6.25109 0.668924 0)
(5.99363 0.790102 0)
(5.91447 0.290838 0)
(6.03733 -0.663017 0)
(6.0846 -2.26242 0)
(6.51962 -4.21244 0)
(6.84978 -5.48357 0)
(7.87149 -5.30137 0)
(8.14435 -4.86582 0)
(8.61178 -4.01617 0)
(8.42364 -3.0709 0)
(8.95784 -2.1179 0)
(8.95719 -1.4531 0)
(9.53522 -0.156891 0)
(10.0071 1.0868 0)
(10.0499 2.29711 0)
(10.3205 3.84111 0)
(10.5883 5.34813 0)
(9.89533 6.16227 0)
(9.31331 6.38484 0)
(8.52753 7.03432 0)
(8.03284 7.58924 0)
(7.74584 8.55479 0)
(6.70358 8.95045 0)
(6.67476 9.90983 0)
(6.40479 11.6668 0)
(3.87515 14.3419 0)
(5.32564 -0.0844504 0)
(5.35582 -0.0498854 0)
(5.35592 -0.0194471 0)
(5.35654 -0.0212265 0)
(5.38598 -0.0472287 0)
(5.42206 -0.0820853 0)
(5.47143 -0.107837 0)
(5.51069 -0.112892 0)
(5.54996 -0.0993433 0)
(5.57437 -0.0756258 0)
(5.60172 -0.0561798 0)
(5.62123 -0.0390056 0)
(5.64621 -0.0301897 0)
(5.67116 -0.0277252 0)
(5.69758 -0.0281728 0)
(5.72974 -0.0306219 0)
(5.75635 -0.0319248 0)
(5.78938 -0.0320625 0)
(5.81336 -0.0355344 0)
(5.84279 -0.0317887 0)
(5.86465 -0.0303379 0)
(5.89128 -0.031365 0)
(5.91075 -0.024923 0)
(5.93638 -0.0256217 0)
(5.95319 -0.0219046 0)
(5.97857 -0.0193472 0)
(5.99622 -0.0215001 0)
(6.01704 -0.0206876 0)
(6.03608 -0.0208295 0)
(6.04858 -0.0281974 0)
(6.06605 -0.0298567 0)
(6.07414 -0.0336628 0)
(6.08616 -0.0382672 0)
(6.08898 -0.0341277 0)
(6.09356 -0.0315714 0)
(6.08624 -0.0192226 0)
(6.08519 -0.00278699 0)
(6.07549 0.0205315 0)
(6.07209 0.0455316 0)
(6.0786 0.0818043 0)
(6.08432 0.115845 0)
(6.11533 0.147875 0)
(6.13754 0.174633 0)
(6.18851 0.167831 0)
(6.24264 0.147098 0)
(6.28458 0.097619 0)
(6.32832 0.0280248 0)
(6.34241 -0.0409068 0)
(6.3521 -0.112688 0)
(6.33527 -0.172365 0)
(6.33027 -0.206051 0)
(6.31535 -0.234395 0)
(6.30889 -0.2352 0)
(6.30444 -0.222997 0)
(6.30727 -0.215653 0)
(6.30977 -0.179976 0)
(6.32585 -0.152709 0)
(6.33896 -0.110962 0)
(6.36873 -0.0485663 0)
(6.40048 -0.00296652 0)
(6.44612 0.0811573 0)
(6.51754 0.152096 0)
(6.62219 0.213725 0)
(6.76439 0.274035 0)
(6.94053 0.269773 0)
(7.21168 0.226182 0)
(7.43366 0.115546 0)
(7.68667 -0.0816994 0)
(7.8451 -0.223182 0)
(8.0381 -0.481001 0)
(8.04515 -0.65928 0)
(8.16033 -0.783731 0)
(8.13897 -0.994747 0)
(8.10595 -1.04671 0)
(8.16919 -1.11299 0)
(8.09934 -1.21963 0)
(8.11011 -1.18696 0)
(8.10053 -1.24762 0)
(7.99314 -1.23697 0)
(8.01263 -1.19797 0)
(7.80337 -1.16073 0)
(7.78565 -1.01574 0)
(7.59922 -0.892142 0)
(7.48691 -0.696828 0)
(7.40358 -0.415264 0)
(7.2899 -0.254342 0)
(7.21852 0.055494 0)
(7.39774 0.266901 0)
(7.23974 0.472399 0)
(7.66361 0.679507 0)
(7.77229 0.844306 0)
(8.01209 0.889599 0)
(8.42485 0.86737 0)
(8.8202 0.84372 0)
(9.04291 0.744796 0)
(9.71474 0.438852 0)
(9.84166 0.330313 0)
(10.454 -0.0289428 0)
(10.7524 -0.367889 0)
(11.1809 -0.701189 0)
(11.6086 -1.14467 0)
(11.9183 -1.48468 0)
(12.3865 -1.98904 0)
(12.7702 -2.42634 0)
(12.9934 -2.78063 0)
(13.4277 -3.34673 0)
(13.5944 -3.68569 0)
(13.7237 -4.13565 0)
(13.9018 -4.53082 0)
(13.6462 -4.77795 0)
(13.6319 -5.08627 0)
(13.2704 -5.27157 0)
(12.7741 -5.24676 0)
(12.4006 -5.37448 0)
(11.9639 -5.34205 0)
(11.3318 -5.14379 0)
(11.1752 -5.19925 0)
(10.8294 -5.16051 0)
(10.4353 -5.07287 0)
(10.4521 -5.26943 0)
(10.2621 -5.45676 0)
(9.9214 -5.35887 0)
(9.51651 -5.3878 0)
(9.55714 -5.68117 0)
(9.3213 -5.73548 0)
(8.68789 -5.37502 0)
(8.08298 -5.12268 0)
(7.80378 -5.09564 0)
(7.98548 -5.38338 0)
(8.46975 -5.54691 0)
(8.79876 -5.51196 0)
(9.28057 -5.19242 0)
(9.46976 -4.61783 0)
(9.80282 -3.959 0)
(9.92907 -3.07273 0)
(10.1396 -2.14954 0)
(10.395 -1.18761 0)
(10.5092 -0.200329 0)
(10.6108 0.843704 0)
(10.7633 1.78159 0)
(10.6249 2.75207 0)
(10.6486 3.51186 0)
(10.3466 4.18747 0)
(10.2538 4.70793 0)
(9.68388 5.04828 0)
(10.1441 5.60186 0)
(10.027 5.99448 0)
(10.0296 6.30052 0)
(10.3032 6.49055 0)
(9.92225 6.64668 0)
(10.0967 6.30221 0)
(9.64586 6.15265 0)
(9.66812 5.85499 0)
(9.48066 5.39712 0)
(9.82794 5.38807 0)
(9.62578 4.93869 0)
(10.09 4.5747 0)
(9.90441 4.21674 0)
(10.2446 3.67138 0)
(10.0071 3.1234 0)
(10.0129 2.54326 0)
(9.86885 2.08273 0)
(9.69595 1.43215 0)
(9.59478 1.10185 0)
(9.18753 0.325136 0)
(9.25147 0.397616 0)
(8.42622 -0.384289 0)
(8.62916 -0.428623 0)
(7.76334 -0.791445 0)
(7.73744 -0.749068 0)
(7.34208 -1.17247 0)
(7.18585 -1.09034 0)
(7.03684 -0.245371 0)
(6.6076 1.05569 0)
(6.16247 0.94055 0)
(6.20106 0.375669 0)
(5.93955 -0.955706 0)
(6.36436 -2.35342 0)
(6.38738 -4.63336 0)
(6.96014 -5.9579 0)
(7.64993 -5.82385 0)
(8.0399 -5.03823 0)
(8.26663 -3.89606 0)
(7.85356 -3.14401 0)
(8.71749 -2.19081 0)
(8.37246 -1.57061 0)
(9.42345 -0.597663 0)
(9.60062 0.830032 0)
(9.99516 2.13417 0)
(10.2092 3.50082 0)
(10.6598 5.33633 0)
(10.395 6.46615 0)
(9.6592 7.13381 0)
(9.34625 7.52761 0)
(8.48795 8.11495 0)
(8.51966 8.71795 0)
(7.70887 9.39312 0)
(7.30028 10.023 0)
(8.88734 11.0548 0)
(6.58351 15.3017 0)
(7.99749 -0.0563773 0)
(8.00458 0.0019591 0)
(8.00056 0.0194679 0)
(7.9741 -0.00155342 0)
(7.96734 -0.0480576 0)
(7.98195 -0.0981214 0)
(8.01603 -0.122134 0)
(8.05596 -0.122855 0)
(8.08387 -0.107 0)
(8.1016 -0.0839788 0)
(8.10548 -0.0707106 0)
(8.10434 -0.0553905 0)
(8.10954 -0.0458523 0)
(8.12251 -0.0454572 0)
(8.13732 -0.037847 0)
(8.16316 -0.0435807 0)
(8.17666 -0.0479034 0)
(8.19729 -0.0429474 0)
(8.21198 -0.0538341 0)
(8.21986 -0.0489643 0)
(8.23501 -0.0441281 0)
(8.24373 -0.0507433 0)
(8.25386 -0.0356623 0)
(8.27507 -0.0369291 0)
(8.27877 -0.0398406 0)
(8.29765 -0.0309325 0)
(8.30668 -0.0400509 0)
(8.31317 -0.0369714 0)
(8.32336 -0.028423 0)
(8.3307 -0.0393019 0)
(8.32915 -0.034686 0)
(8.34352 -0.0350729 0)
(8.3325 -0.0438342 0)
(8.33943 -0.0322812 0)
(8.33377 -0.0348927 0)
(8.32442 -0.0217704 0)
(8.3132 0.00464564 0)
(8.3087 0.0192888 0)
(8.29642 0.0472142 0)
(8.30174 0.076171 0)
(8.30445 0.10265 0)
(8.31398 0.122776 0)
(8.33227 0.1453 0)
(8.3558 0.133967 0)
(8.3753 0.110447 0)
(8.41148 0.0819548 0)
(8.41459 0.0130018 0)
(8.4297 -0.0323794 0)
(8.42423 -0.0907549 0)
(8.42514 -0.154236 0)
(8.40227 -0.177088 0)
(8.42498 -0.219444 0)
(8.38305 -0.224898 0)
(8.42145 -0.217352 0)
(8.39337 -0.221196 0)
(8.42491 -0.185457 0)
(8.42508 -0.165675 0)
(8.45423 -0.137354 0)
(8.46503 -0.0748321 0)
(8.52778 -0.0550914 0)
(8.5308 0.0146681 0)
(8.64984 0.0728749 0)
(8.68812 0.0839608 0)
(8.84206 0.148329 0)
(8.97567 0.116489 0)
(9.14512 0.041449 0)
(9.32932 -0.0110568 0)
(9.55074 -0.209053 0)
(9.59817 -0.347722 0)
(9.85814 -0.507369 0)
(9.82968 -0.698008 0)
(9.92637 -0.815559 0)
(9.98694 -0.962635 0)
(9.89256 -1.038 0)
(10.0197 -1.1219 0)
(9.93045 -1.18623 0)
(9.88241 -1.17972 0)
(9.97315 -1.24164 0)
(9.73126 -1.19453 0)
(9.86669 -1.12813 0)
(9.67139 -1.10139 0)
(9.59784 -0.931735 0)
(9.60103 -0.794418 0)
(9.34685 -0.640663 0)
(9.37309 -0.398589 0)
(9.32156 -0.203934 0)
(9.10546 0.0131824 0)
(9.45198 0.190073 0)
(9.20416 0.443629 0)
(9.5708 0.494791 0)
(9.7133 0.618403 0)
(9.86997 0.720081 0)
(10.2427 0.593903 0)
(10.5574 0.563675 0)
(10.7789 0.458212 0)
(11.3103 0.161531 0)
(11.4642 -0.00591219 0)
(12.0322 -0.354189 0)
(12.1785 -0.620702 0)
(12.7176 -1.03911 0)
(12.9762 -1.4154 0)
(13.2744 -1.73941 0)
(13.6397 -2.25926 0)
(13.8673 -2.61195 0)
(14.0304 -3.04219 0)
(14.2548 -3.47584 0)
(14.1426 -3.77587 0)
(14.2615 -4.22135 0)
(14.0256 -4.44073 0)
(13.6903 -4.65035 0)
(13.515 -4.88298 0)
(12.9447 -4.91528 0)
(12.509 -4.90028 0)
(12.2023 -5.00941 0)
(11.7021 -4.85129 0)
(11.3413 -4.80313 0)
(11.2372 -4.93829 0)
(10.7242 -4.81349 0)
(10.5968 -4.91875 0)
(10.4694 -5.17498 0)
(10.0106 -5.08086 0)
(9.47991 -4.98182 0)
(9.26183 -5.28855 0)
(9.12411 -5.46916 0)
(8.2198 -5.19308 0)
(7.49088 -4.79926 0)
(7.05471 -4.89408 0)
(7.09625 -5.32703 0)
(7.49831 -5.66855 0)
(7.7349 -5.84712 0)
(8.04845 -5.68575 0)
(8.3811 -5.25623 0)
(8.44437 -4.71503 0)
(8.74865 -3.93793 0)
(8.86258 -3.16399 0)
(9.24158 -2.26835 0)
(9.29822 -1.26237 0)
(9.57233 -0.25003 0)
(9.53031 0.719059 0)
(9.88747 1.70084 0)
(9.67142 2.67801 0)
(9.93053 3.61089 0)
(9.70138 4.36891 0)
(9.69719 4.96427 0)
(9.27802 5.1231 0)
(9.21561 5.57054 0)
(9.44025 5.9687 0)
(9.23538 6.13199 0)
(9.85854 6.45446 0)
(9.55601 6.52017 0)
(9.72803 6.44356 0)
(9.56115 6.17623 0)
(9.29876 6.02448 0)
(9.31398 5.35135 0)
(9.23355 5.37349 0)
(9.37993 4.79156 0)
(9.44656 4.43229 0)
(9.61463 3.98847 0)
(9.65143 3.63203 0)
(9.85242 3.08594 0)
(9.6874 2.5922 0)
(9.83532 2.13523 0)
(9.29043 1.55421 0)
(9.73062 1.22757 0)
(8.90724 0.465746 0)
(9.41358 0.704033 0)
(8.39539 -0.277455 0)
(9.01626 -0.0388488 0)
(7.77029 -0.555258 0)
(8.15514 -0.380651 0)
(7.26434 -0.973981 0)
(7.3978 -0.817698 0)
(6.79953 -0.0176039 0)
(6.51945 1.42868 0)
(6.13472 1.07235 0)
(6.26103 0.594242 0)
(5.9766 -1.06122 0)
(6.56681 -2.35027 0)
(6.41366 -4.86612 0)
(6.93104 -6.23701 0)
(7.12821 -6.32061 0)
(8.0366 -5.08623 0)
(7.45143 -4.08136 0)
(7.93584 -3.22095 0)
(8.02716 -2.5317 0)
(8.44983 -1.86538 0)
(8.93826 -1.12866 0)
(9.43368 0.514947 0)
(9.78238 2.03028 0)
(9.96205 3.13582 0)
(10.5081 5.26575 0)
(10.7267 6.67669 0)
(10.2411 7.46693 0)
(9.62882 7.88839 0)
(9.25463 8.5601 0)
(9.0018 9.19605 0)
(9.08223 9.64598 0)
(7.85447 10.7538 0)
(10.8416 10.0157 0)
(8.82872 15.4003 0)
(10.2961 -0.0403505 0)
(10.2597 0.0260729 0)
(10.2078 0.0469502 0)
(10.1556 0.00782354 0)
(10.1493 -0.0489698 0)
(10.1706 -0.0980861 0)
(10.1893 -0.136088 0)
(10.2254 -0.141642 0)
(10.2428 -0.123843 0)
(10.2536 -0.0922709 0)
(10.2694 -0.0632275 0)
(10.2596 -0.0455667 0)
(10.2505 -0.0414367 0)
(10.2485 -0.0500165 0)
(10.2336 -0.054781 0)
(10.2523 -0.0587413 0)
(10.2623 -0.0551253 0)
(10.2754 -0.0489507 0)
(10.3079 -0.050447 0)
(10.3031 -0.0399425 0)
(10.3109 -0.042736 0)
(10.3129 -0.0515962 0)
(10.2957 -0.0452405 0)
(10.3164 -0.0513043 0)
(10.3128 -0.0419612 0)
(10.3237 -0.0338516 0)
(10.3395 -0.0361158 0)
(10.3452 -0.0234465 0)
(10.334 -0.0284255 0)
(10.3588 -0.0334724 0)
(10.33 -0.0360634 0)
(10.3478 -0.0379507 0)
(10.3378 -0.0320372 0)
(10.3284 -0.025812 0)
(10.3268 -0.0144484 0)
(10.3156 0.00440886 0)
(10.3002 0.0215194 0)
(10.3003 0.0301123 0)
(10.2922 0.0494023 0)
(10.2836 0.0662761 0)
(10.2904 0.0903228 0)
(10.3037 0.112079 0)
(10.3057 0.122697 0)
(10.3446 0.127536 0)
(10.3498 0.108516 0)
(10.3656 0.0799415 0)
(10.3923 0.0254093 0)
(10.3696 -0.0254149 0)
(10.3865 -0.0823379 0)
(10.3766 -0.140804 0)
(10.3489 -0.159107 0)
(10.3733 -0.19945 0)
(10.3334 -0.206441 0)
(10.3514 -0.198632 0)
(10.3584 -0.221967 0)
(10.3315 -0.184007 0)
(10.3813 -0.185229 0)
(10.3741 -0.162232 0)
(10.3813 -0.110563 0)
(10.4612 -0.0976948 0)
(10.435 -0.0478592 0)
(10.5243 -0.00188071 0)
(10.6062 0.00574558 0)
(10.6342 0.039994 0)
(10.8277 -0.00179743 0)
(10.9036 -0.042921 0)
(11.0388 -0.14634 0)
(11.246 -0.283928 0)
(11.2451 -0.393183 0)
(11.4513 -0.599134 0)
(11.4501 -0.699551 0)
(11.4391 -0.825953 0)
(11.5677 -1.00634 0)
(11.37 -0.981255 0)
(11.4883 -1.15628 0)
(11.3857 -1.16117 0)
(11.2463 -1.1463 0)
(11.3713 -1.23609 0)
(11.0994 -1.10912 0)
(11.1636 -1.09341 0)
(11.0971 -1.03716 0)
(10.867 -0.845881 0)
(11.0717 -0.798691 0)
(10.7292 -0.540382 0)
(10.8823 -0.424031 0)
(10.8296 -0.192844 0)
(10.7347 0.0108947 0)
(10.9966 0.124482 0)
(10.9409 0.345093 0)
(11.1399 0.420872 0)
(11.4297 0.426824 0)
(11.4863 0.545971 0)
(11.9011 0.405066 0)
(12.0594 0.357563 0)
(12.4388 0.160213 0)
(12.6588 -0.0197332 0)
(13.0059 -0.301554 0)
(13.3385 -0.586993 0)
(13.4957 -0.85245 0)
(13.9077 -1.27676 0)
(14.0479 -1.58645 0)
(14.2675 -1.97456 0)
(14.4489 -2.38704 0)
(14.4786 -2.71417 0)
(14.5791 -3.15623 0)
(14.4703 -3.43964 0)
(14.268 -3.74453 0)
(14.2222 -4.08788 0)
(13.7178 -4.21195 0)
(13.4816 -4.42274 0)
(13.1163 -4.5647 0)
(12.6069 -4.514 0)
(12.3712 -4.61066 0)
(12.0507 -4.62872 0)
(11.6046 -4.48425 0)
(11.5096 -4.67386 0)
(11.175 -4.66363 0)
(10.7456 -4.58841 0)
(10.6768 -4.81353 0)
(10.179 -4.82653 0)
(9.52688 -4.57523 0)
(9.13492 -4.75591 0)
(8.93389 -5.03461 0)
(8.04843 -4.72322 0)
(6.93089 -4.36497 0)
(6.4607 -4.41046 0)
(6.18077 -4.93634 0)
(6.40057 -5.55137 0)
(6.63687 -5.87658 0)
(6.76367 -6.06447 0)
(7.20594 -5.85144 0)
(7.267 -5.40725 0)
(7.50041 -4.9321 0)
(7.77326 -4.15612 0)
(7.82178 -3.43666 0)
(8.3333 -2.46199 0)
(8.20832 -1.45099 0)
(8.3671 -0.302465 0)
(8.38505 0.697935 0)
(8.71367 1.76365 0)
(8.61261 2.66032 0)
(8.85981 3.50145 0)
(8.93063 4.41135 0)
(8.75272 5.09072 0)
(8.79636 5.31382 0)
(8.34275 5.52194 0)
(8.71373 5.89736 0)
(8.50019 5.97286 0)
(8.85104 6.41767 0)
(9.19604 6.42961 0)
(9.04572 6.506 0)
(9.39165 6.3062 0)
(9.01429 6.10917 0)
(9.0235 5.48432 0)
(8.92501 5.26467 0)
(8.78887 4.74166 0)
(9.08113 4.35554 0)
(8.95348 3.8975 0)
(9.26167 3.54206 0)
(9.28616 2.91916 0)
(9.30535 2.66836 0)
(9.53922 2.18743 0)
(8.96932 1.65953 0)
(9.68992 1.25796 0)
(8.41776 0.733568 0)
(9.37356 0.861449 0)
(7.96525 -0.114397 0)
(9.01784 0.246338 0)
(7.56596 -0.387839 0)
(8.2938 0.00455879 0)
(7.25146 -0.805982 0)
(7.42085 -0.395014 0)
(6.59181 0.424854 0)
(6.43274 1.67735 0)
(6.15906 1.16541 0)
(6.37484 0.582158 0)
(5.87848 -1.40546 0)
(6.67626 -2.61288 0)
(6.52306 -5.07937 0)
(6.51751 -6.48434 0)
(7.00383 -6.64849 0)
(7.44889 -5.11452 0)
(7.21611 -4.18738 0)
(7.95015 -3.33738 0)
(7.6091 -2.87284 0)
(8.69343 -2.24501 0)
(8.64631 -1.5635 0)
(9.32852 0.103473 0)
(9.58085 1.73355 0)
(9.78249 2.91539 0)
(10.2867 4.84547 0)
(10.5067 6.95783 0)
(10.6404 7.80442 0)
(10.0971 8.48821 0)
(9.68111 8.61795 0)
(9.37203 9.4129 0)
(10.1524 9.38366 0)
(8.05487 11.0337 0)
(11.5597 7.99734 0)
(10.3311 14.7048 0)
(11.8945 -0.0116764 0)
(11.8283 -0.0180867 0)
(11.754 -0.0331156 0)
(11.7161 -0.0527796 0)
(11.7096 -0.0952608 0)
(11.7579 -0.118458 0)
(11.7881 -0.130102 0)
(11.8036 -0.139734 0)
(11.8195 -0.116932 0)
(11.803 -0.106652 0)
(11.8058 -0.100629 0)
(11.8099 -0.0695704 0)
(11.7954 -0.0661296 0)
(11.8027 -0.0634345 0)
(11.7916 -0.0502164 0)
(11.7828 -0.0724239 0)
(11.7905 -0.0707123 0)
(11.7794 -0.0656739 0)
(11.8129 -0.0896027 0)
(11.8242 -0.0512824 0)
(11.8388 -0.0520334 0)
(11.8486 -0.0574356 0)
(11.8344 -0.0291768 0)
(11.8172 -0.0591687 0)
(11.8011 -0.0554632 0)
(11.7764 -0.0469197 0)
(11.7905 -0.0764958 0)
(11.8032 -0.0423831 0)
(11.8168 -0.0379872 0)
(11.8327 -0.0527258 0)
(11.8501 -0.0144245 0)
(11.8162 -0.0356853 0)
(11.8355 -0.0301297 0)
(11.7862 -0.0105251 0)
(11.7968 -0.033151 0)
(11.7825 -0.00344401 0)
(11.7928 0.0135739 0)
(11.7791 0.015402 0)
(11.8106 0.0530156 0)
(11.798 0.0759957 0)
(11.8076 0.0834419 0)
(11.8195 0.105183 0)
(11.8117 0.104128 0)
(11.8195 0.0814077 0)
(11.8451 0.0720337 0)
(11.8321 0.048626 0)
(11.8831 -0.0103828 0)
(11.8769 -0.0115779 0)
(11.8932 -0.0748727 0)
(11.913 -0.111133 0)
(11.8866 -0.122741 0)
(11.886 -0.192058 0)
(11.8739 -0.187531 0)
(11.8165 -0.207608 0)
(11.8648 -0.235061 0)
(11.7828 -0.188221 0)
(11.8447 -0.211341 0)
(11.8382 -0.170182 0)
(11.8517 -0.128242 0)
(11.9195 -0.136437 0)
(11.9327 -0.0620548 0)
(11.9613 -0.07377 0)
(12.0686 -0.0675827 0)
(12.0124 -0.0310428 0)
(12.1953 -0.142648 0)
(12.1815 -0.123095 0)
(12.2883 -0.240311 0)
(12.4471 -0.385675 0)
(12.3937 -0.399437 0)
(12.5926 -0.662152 0)
(12.5732 -0.698561 0)
(12.5164 -0.791877 0)
(12.6549 -1.01771 0)
(12.3962 -0.918592 0)
(12.4919 -1.11948 0)
(12.3301 -1.11922 0)
(12.1825 -1.05656 0)
(12.2328 -1.19383 0)
(11.9502 -1.01961 0)
(12.0084 -1.03869 0)
(11.8978 -0.973676 0)
(11.7303 -0.775372 0)
(11.9142 -0.777459 0)
(11.6012 -0.507258 0)
(11.8193 -0.422089 0)
(11.7279 -0.246298 0)
(11.7625 -0.0428392 0)
(11.9397 0.0265948 0)
(12.0093 0.193771 0)
(12.1818 0.280069 0)
(12.4541 0.266019 0)
(12.6001 0.308634 0)
(12.9259 0.226373 0)
(13.0746 0.125511 0)
(13.4832 -0.0858115 0)
(13.5378 -0.190715 0)
(13.9836 -0.535458 0)
(14.0555 -0.746448 0)
(14.3045 -1.06123 0)
(14.4517 -1.40917 0)
(14.5379 -1.70492 0)
(14.6323 -2.11027 0)
(14.596 -2.39616 0)
(14.5125 -2.75328 0)
(14.4873 -3.12118 0)
(14.1493 -3.31247 0)
(13.9999 -3.66641 0)
(13.7458 -3.84758 0)
(13.3133 -3.99453 0)
(13.1846 -4.19144 0)
(12.7539 -4.21007 0)
(12.5263 -4.24351 0)
(12.383 -4.37673 0)
(11.9805 -4.28235 0)
(11.7803 -4.32796 0)
(11.6254 -4.48876 0)
(11.0904 -4.28967 0)
(10.8582 -4.37545 0)
(10.5145 -4.47875 0)
(9.73633 -4.1973 0)
(9.15262 -4.14993 0)
(8.76789 -4.44719 0)
(7.99033 -4.32944 0)
(6.66582 -3.90567 0)
(5.88425 -3.8208 0)
(5.42062 -4.20361 0)
(5.35406 -4.92403 0)
(5.49878 -5.62556 0)
(5.62291 -6.05346 0)
(5.94838 -6.25151 0)
(6.11414 -6.03316 0)
(6.13905 -5.58205 0)
(6.4259 -5.05602 0)
(6.47629 -4.30294 0)
(6.67117 -3.49602 0)
(6.93178 -2.50144 0)
(7.0018 -1.546 0)
(7.31802 -0.480577 0)
(7.33782 0.371942 0)
(7.64104 1.5145 0)
(7.55177 2.49807 0)
(7.67202 3.39161 0)
(8.06563 4.31819 0)
(7.729 5.08705 0)
(7.88445 5.5261 0)
(7.6009 5.61327 0)
(7.63703 5.8721 0)
(7.92494 5.89458 0)
(7.78156 6.10717 0)
(8.50642 6.20293 0)
(8.40146 6.32416 0)
(8.69186 6.34392 0)
(8.8613 6.1055 0)
(8.36455 5.66008 0)