/*--------------------------------*- C++ -*----------------------------------*\
| =========                 |                                                 |
| \\      /  F ield         | OpenFOAM: The Open Source CFD Toolbox           |
|  \\    /   O peration     | Version:  2.4.0                                 |
|   \\  /    A nd           | Web:      www.OpenFOAM.org                      |
|    \\/     M anipulation  |                                                 |
\*---------------------------------------------------------------------------*/
FoamFile
{
    version     2.0;
    format      ascii;
    class       volSymmTensorField;
    location    "1.16";
    object      UPrime2Mean;
}
// * * * * * * * * * * * * * * * * * * * * * * * * * * * * * * * * * * * * * //

dimensions      [0 2 -2 0 0 0 0];

internalField   nonuniform List<symmTensor> 
8800
(
(0.00146625 8.4067e-05 0 0.000165455 0 0)
(0.027733 -0.00108036 0 6.14e-05 0 0)
(0.0543406 -9.5206e-05 0 1.46752e-05 0 0)
(0.06852 0.000156419 0 6.13601e-06 0 0)
(0.0776671 0.000113126 0 4.67049e-06 0 0)
(0.0868987 6.28984e-05 0 5.39615e-06 0 0)
(0.0912365 2.64968e-05 0 6.30962e-06 0 0)
(0.0963803 -3.67137e-05 0 8.10145e-06 0 0)
(0.0990824 -4.76841e-05 0 8.7903e-06 0 0)
(0.10218 -9.47585e-05 0 1.07085e-05 0 0)
(0.104457 -9.13366e-05 0 1.11081e-05 0 0)
(0.106735 -0.000146287 0 1.33842e-05 0 0)
(0.108887 -0.000143082 0 1.34397e-05 0 0)
(0.111708 -0.000200441 0 1.56942e-05 0 0)
(0.114647 -0.000268892 0 1.62361e-05 0 0)
(0.118851 -0.000200815 0 1.86379e-05 0 0)
(0.128901 -0.00100045 0 2.73863e-05 0 0)
(0.130453 0.00146125 0 8.13196e-05 0 0)
(0.208528 -0.0146355 0 0.0015054 0 0)
(0.220108 0.024947 0 0.00490097 0 0)
(0.00838751 0.00237922 0 0.000999293 0 0)
(0.00169209 -0.000987804 0 0.00131776 0 0)
(0.0131431 -0.00171612 0 0.000548422 0 0)
(0.0225623 -0.00188 0 0.000216773 0 0)
(0.0334017 -0.00170534 0 0.000126522 0 0)
(0.0508635 -0.00160544 0 0.000102386 0 0)
(0.0636872 -0.00174841 0 0.00010767 0 0)
(0.0782949 -0.00133087 0 8.09682e-05 0 0)
(0.0938374 -0.00167928 0 9.73412e-05 0 0)
(0.100279 -0.00135452 0 8.22658e-05 0 0)
(0.119727 -0.001747 0 0.000103352 0 0)
(0.119435 -0.00164354 0 0.000101121 0 0)
(0.142136 -0.00212109 0 0.000132096 0 0)
(0.138707 -0.00213428 0 0.000134349 0 0)
(0.165613 -0.00280941 0 0.000189344 0 0)
(0.160189 -0.00363554 0 0.000229366 0 0)
(0.201637 -0.00293188 0 0.000310827 0 0)
(0.195056 -0.0101753 0 0.000976236 0 0)
(0.298004 -0.00521938 0 0.000751966 0 0)
(0.325034 -0.0500763 0 0.017269 0 0)
(0.0165182 0.00128951 0 0.000619269 0 0)
(0.0132927 0.000356993 0 0.00149003 0 0)
(0.0349478 0.00025828 0 0.00094395 0 0)
(0.0376527 -0.000912941 0 0.00052629 0 0)
(0.0530002 -0.00104323 0 0.000416455 0 0)
(0.0615783 -0.00181582 0 0.000402316 0 0)
(0.0804344 -0.00324979 0 0.000434757 0 0)
(0.0872562 -0.00243309 0 0.000315264 0 0)
(0.120736 -0.00465553 0 0.000374896 0 0)
(0.114304 -0.00327774 0 0.000261229 0 0)
(0.165565 -0.00561076 0 0.000348819 0 0)
(0.141567 -0.00428907 0 0.000294197 0 0)
(0.211153 -0.00715935 0 0.000462891 0 0)
(0.167126 -0.00532086 0 0.000415714 0 0)
(0.26195 -0.0100056 0 0.000770491 0 0)
(0.187265 -0.00646882 0 0.000689448 0 0)
(0.328248 -0.0141461 0 0.00138291 0 0)
(0.210709 -0.00882096 0 0.00155049 0 0)
(0.434251 -0.0238947 0 0.00410093 0 0)
(0.279416 -0.0374741 0 0.0195543 0 0)
(0.0686437 0.000104228 0 0.000429985 0 0)
(0.075561 -0.000183485 0 0.00112574 0 0)
(0.121226 -0.00066478 0 0.000903902 0 0)
(0.123799 -0.00178686 0 0.000581694 0 0)
(0.157976 -0.00118335 0 0.000551306 0 0)
(0.158228 -0.00234542 0 0.000623061 0 0)
(0.197852 -0.0044178 0 0.000768806 0 0)
(0.186571 -0.00260427 0 0.000620138 0 0)
(0.247164 -0.00800409 0 0.000831958 0 0)
(0.211944 -0.0046302 0 0.000570333 0 0)
(0.303083 -0.0107799 0 0.000813585 0 0)
(0.236436 -0.00718804 0 0.000649762 0 0)
(0.36333 -0.0142382 0 0.00105494 0 0)
(0.259395 -0.00944083 0 0.000888715 0 0)
(0.430594 -0.0197831 0 0.00169694 0 0)
(0.274429 -0.0110741 0 0.00138036 0 0)
(0.511834 -0.0266251 0 0.00271265 0 0)
(0.279053 -0.0126834 0 0.00304926 0 0)
(0.626989 -0.0364225 0 0.00618511 0 0)
(0.280144 -0.025076 0 0.0207968 0 0)
(0.266499 -0.00123611 0 0.000430414 0 0)
(0.249698 -0.00127314 0 0.000964322 0 0)
(0.294575 -0.00465994 0 0.00103754 0 0)
(0.267991 -0.00501208 0 0.000794919 0 0)
(0.309182 -0.00495272 0 0.000777983 0 0)
(0.282958 -0.00642117 0 0.000864721 0 0)
(0.333637 -0.00859831 0 0.00116876 0 0)
(0.296968 -0.00585183 0 0.000948758 0 0)
(0.366811 -0.0133621 0 0.00147899 0 0)
(0.311711 -0.00793888 0 0.00104487 0 0)
(0.403306 -0.0171263 0 0.00160524 0 0)
(0.327742 -0.0112694 0 0.00121991 0 0)
(0.440138 -0.0217953 0 0.00204411 0 0)
(0.345128 -0.014274 0 0.0015576 0 0)
(0.477975 -0.0291014 0 0.00303853 0 0)
(0.359546 -0.016836 0 0.0022019 0 0)
(0.521313 -0.0379422 0 0.00464094 0 0)
(0.365602 -0.0189115 0 0.00451453 0 0)
(0.58136 -0.0480013 0 0.00948698 0 0)
(0.350084 -0.0199343 0 0.0268749 0 0)
(0.326063 -0.00667387 0 0.00137311 0 0)
(0.265213 -0.00395498 0 0.0019251 0 0)
(0.265113 -0.0104665 0 0.00240252 0 0)
(0.21866 -0.00702126 0 0.00163698 0 0)
(0.236267 -0.0100111 0 0.00209 0 0)
(0.209317 -0.00893107 0 0.00184001 0 0)
(0.222966 -0.0116312 0 0.00252758 0 0)
(0.203503 -0.00846962 0 0.00190302 0 0)
(0.217396 -0.0144217 0 0.00307679 0 0)
(0.205019 -0.0102551 0 0.00209636 0 0)
(0.215633 -0.0167643 0 0.00346776 0 0)
(0.212676 -0.0132142 0 0.00245065 0 0)
(0.213883 -0.0193146 0 0.00412719 0 0)
(0.225745 -0.0160422 0 0.00297623 0 0)
(0.210935 -0.0228618 0 0.00562622 0 0)
(0.243953 -0.0191071 0 0.0038034 0 0)
(0.20577 -0.0263252 0 0.00823319 0 0)
(0.266932 -0.0222925 0 0.00647238 0 0)
(0.199854 -0.0271945 0 0.0161004 0 0)
(0.286987 -0.0235362 0 0.0251164 0 0)
(0.139795 -0.00880136 0 0.00289323 0 0)
(0.117779 -0.00864068 0 0.00407596 0 0)
(0.107304 -0.00900476 0 0.00391927 0 0)
(0.10157 -0.00948428 0 0.00336763 0 0)
(0.101581 -0.00883836 0 0.00398969 0 0)
(0.105141 -0.00964763 0 0.00374917 0 0)
(0.0993399 -0.00871555 0 0.00418946 0 0)
(0.108699 -0.0094687 0 0.00383634 0 0)
(0.0991979 -0.00887372 0 0.00467209 0 0)
(0.117104 -0.0102029 0 0.00413231 0 0)
(0.0987582 -0.00916446 0 0.0052059 0 0)
(0.127704 -0.0113109 0 0.00468179 0 0)
(0.101581 -0.00895265 0 0.00602993 0 0)
(0.139693 -0.0124324 0 0.00549798 0 0)
(0.10599 -0.00744007 0 0.00769334 0 0)
(0.154855 -0.0136411 0 0.00680436 0 0)
(0.110081 -0.00366524 0 0.0106904 0 0)
(0.176073 -0.0142436 0 0.0108339 0 0)
(0.11529 0.00641905 0 0.0191584 0 0)
(0.201752 -0.0122447 0 0.0329464 0 0)
(0.143464 -0.00878231 0 0.00379541 0 0)
(0.168906 -0.0145979 0 0.00742311 0 0)
(0.136975 -0.0071852 0 0.0055657 0 0)
(0.170764 -0.0114938 0 0.00505671 0 0)
(0.160751 -0.00825209 0 0.00562091 0 0)
(0.173446 -0.00953914 0 0.00581641 0 0)
(0.175679 -0.00637324 0 0.00541369 0 0)
(0.181084 -0.00928519 0 0.00591955 0 0)
(0.18604 -0.00476766 0 0.00595771 0 0)
(0.190549 -0.00860971 0 0.00626936 0 0)
(0.198274 -0.00337364 0 0.00652983 0 0)
(0.197953 -0.00755176 0 0.00695519 0 0)
(0.21649 -0.000804315 0 0.00731942 0 0)
(0.207257 -0.00684248 0 0.00806332 0 0)
(0.232532 0.00393927 0 0.00885308 0 0)
(0.22007 -0.0053679 0 0.00959846 0 0)
(0.251137 0.0113063 0 0.0114761 0 0)
(0.236446 -0.00198248 0 0.0145533 0 0)
(0.271566 0.0258719 0 0.0192397 0 0)
(0.256248 0.00712666 0 0.0360581 0 0)
(0.25936 -0.00485292 0 0.00379579 0 0)
(0.280723 -0.0101974 0 0.00971408 0 0)
(0.249858 -0.00211491 0 0.00613108 0 0)
(0.252154 -0.00545532 0 0.00584425 0 0)
(0.277266 -0.00281576 0 0.00607898 0 0)
(0.24074 -0.00328858 0 0.0065 0 0)
(0.305477 -0.000368216 0 0.00557916 0 0)
(0.237408 -0.00240095 0 0.00666763 0 0)
(0.320622 0.00283597 0 0.00598726 0 0)
(0.239878 -0.00136362 0 0.00715957 0 0)
(0.333825 0.00550521 0 0.00651388 0 0)
(0.246313 0.000972487 0 0.00767521 0 0)
(0.347349 0.00929819 0 0.00729199 0 0)
(0.25644 0.00303059 0 0.00874508 0 0)
(0.361482 0.0147727 0 0.00825163 0 0)
(0.269771 0.00666063 0 0.0100809 0 0)
(0.374285 0.0228451 0 0.0099066 0 0)
(0.287236 0.0133757 0 0.0142664 0 0)
(0.387563 0.0376969 0 0.0158833 0 0)
(0.31662 0.0279037 0 0.0291762 0 0)
(0.286646 0.000131812 0 0.00313873 0 0)
(0.300842 0.0003527 0 0.00852318 0 0)
(0.2829 0.00227196 0 0.00519747 0 0)
(0.255857 0.00274067 0 0.00537535 0 0)
(0.298954 0.00315184 0 0.00509357 0 0)
(0.243492 0.00355649 0 0.00587639 0 0)
(0.309264 0.00509032 0 0.00475975 0 0)
(0.240893 0.00514834 0 0.00607185 0 0)
(0.30837 0.00818815 0 0.00496979 0 0)
(0.244567 0.00627248 0 0.006486 0 0)
(0.310975 0.0102151 0 0.00547568 0 0)
(0.255189 0.00877378 0 0.00677218 0 0)
(0.315492 0.0134085 0 0.00590618 0 0)
(0.269633 0.0112579 0 0.00753013 0 0)
(0.31793 0.0179094 0 0.00636608 0 0)
(0.288943 0.0155187 0 0.00848574 0 0)
(0.320211 0.024186 0 0.00733513 0 0)
(0.315402 0.0239294 0 0.0113168 0 0)
(0.320494 0.035719 0 0.0116153 0 0)
(0.365656 0.0397742 0 0.0220784 0 0)
(0.182113 0.00243592 0 0.00256015 0 0)
(0.193581 0.00517317 0 0.00632524 0 0)
(0.168231 0.00464483 0 0.00414858 0 0)
(0.176693 0.00693395 0 0.00394285 0 0)
(0.174628 0.00588921 0 0.00423875 0 0)
(0.172726 0.00714062 0 0.00474276 0 0)
(0.178021 0.00682817 0 0.00404146 0 0)
(0.178261 0.00924302 0 0.00484476 0 0)
(0.174032 0.00887719 0 0.0040975 0 0)
(0.187169 0.0110109 0 0.00508078 0 0)
(0.17393 0.0102507 0 0.00442065 0 0)
(0.201528 0.013047 0 0.00522999 0 0)
(0.176444 0.0125089 0 0.00460089 0 0)
(0.217454 0.0157722 0 0.00560702 0 0)
(0.177992 0.0151932 0 0.00479673 0 0)
(0.238001 0.0198762 0 0.00611198 0 0)
(0.1809 0.0185768 0 0.00533534 0 0)
(0.269109 0.0273505 0 0.00767653 0 0)
(0.182406 0.0255585 0 0.00808948 0 0)
(0.327587 0.0406982 0 0.0145468 0 0)
(0.0727265 0.00235804 0 0.0021976 0 0)
(0.0771006 0.00467969 0 0.00489496 0 0)
(0.0624973 0.00376924 0 0.00343709 0 0)
(0.0811851 0.00617486 0 0.00321657 0 0)
(0.0652251 0.00446507 0 0.003515 0 0)
(0.0852314 0.00629511 0 0.00380734 0 0)
(0.0686772 0.0043587 0 0.0034315 0 0)
(0.0929332 0.00788633 0 0.00394612 0 0)
(0.0685283 0.00518253 0 0.00335218 0 0)
(0.102968 0.00931089 0 0.00394485 0 0)
(0.0683685 0.00566659 0 0.00349718 0 0)
(0.11556 0.0103534 0 0.00391211 0 0)
(0.0709243 0.00640045 0 0.00352816 0 0)
(0.129459 0.0117948 0 0.0039698 0 0)
(0.0730083 0.0069163 0 0.00348944 0 0)
(0.146745 0.0138513 0 0.0040456 0 0)
(0.0747544 0.0080097 0 0.00365338 0 0)
(0.172134 0.0177815 0 0.00466187 0 0)
(0.0787327 0.0123667 0 0.00519443 0 0)
(0.216788 0.0246823 0 0.00891973 0 0)
(0.0219577 0.000681263 0 0.00176927 0 0)
(0.0203865 0.00149053 0 0.00371338 0 0)
(0.0162826 0.00094499 0 0.00288936 0 0)
(0.0258625 0.00272716 0 0.0025267 0 0)
(0.019314 0.00136469 0 0.00273531 0 0)
(0.030433 0.00269276 0 0.00276316 0 0)
(0.0217571 0.00095461 0 0.0027243 0 0)
(0.036687 0.00318755 0 0.00294167 0 0)
(0.0220324 0.00110715 0 0.00258076 0 0)
(0.0431314 0.00375259 0 0.00282849 0 0)
(0.0229988 0.0011516 0 0.00261519 0 0)
(0.049895 0.00381859 0 0.002744 0 0)
(0.0257836 0.00122037 0 0.00262493 0 0)
(0.0572958 0.00401225 0 0.00257888 0 0)
(0.029028 0.00141793 0 0.00237029 0 0)
(0.0657368 0.00464894 0 0.00243439 0 0)
(0.0338527 0.00242919 0 0.00235798 0 0)
(0.0779978 0.00688387 0 0.0026958 0 0)
(0.04435 0.00671895 0 0.00339645 0 0)
(0.101647 0.0126737 0 0.00583932 0 0)
(0.00863603 -0.000556855 0 0.00137915 0 0)
(0.00370871 -0.00108318 0 0.00298365 0 0)
(0.00437984 -0.00137926 0 0.00253672 0 0)
(0.00684183 -0.000210015 0 0.00187083 0 0)
(0.00688047 -0.000435729 0 0.00205032 0 0)
(0.0101519 -0.000520272 0 0.00202993 0 0)
(0.0105174 -0.000886482 0 0.00213677 0 0)
(0.0138272 -0.000609745 0 0.00217353 0 0)
(0.0128282 -0.000916857 0 0.00194143 0 0)
(0.0172113 -0.00025478 0 0.00199448 0 0)
(0.0154702 -0.000814401 0 0.00190819 0 0)
(0.0209234 -0.000271843 0 0.00187288 0 0)
(0.0191482 -0.000759745 0 0.0018498 0 0)
(0.0254844 -0.000322076 0 0.00170525 0 0)
(0.0236795 -0.000428206 0 0.00155091 0 0)
(0.031058 0.000273643 0 0.00144767 0 0)
(0.0301555 0.00069605 0 0.00140724 0 0)
(0.0403847 0.00229881 0 0.00159235 0 0)
(0.0430359 0.00460733 0 0.00208635 0 0)
(0.0600636 0.00907175 0 0.0039353 0 0)
(0.00902793 -0.000689214 0 0.00101092 0 0)
(0.00273055 -0.00120995 0 0.00237035 0 0)
(0.00384335 -0.00159458 0 0.00209937 0 0)
(0.00491799 -0.00101675 0 0.00144319 0 0)
(0.00737757 -0.000722863 0 0.00155898 0 0)
(0.00787331 -0.000993195 0 0.00154987 0 0)
(0.0106351 -0.00116931 0 0.00171704 0 0)
(0.0109627 -0.00148941 0 0.00176781 0 0)
(0.0138111 -0.00132968 0 0.0016093 0 0)
(0.0139367 -0.00105777 0 0.00154157 0 0)
(0.0168317 -0.000983523 0 0.00142793 0 0)
(0.0169537 -0.000909866 0 0.00136981 0 0)
(0.0202401 -0.000886241 0 0.0013292 0 0)
(0.0207004 -0.00104148 0 0.00120489 0 0)
(0.0241179 -0.000642039 0 0.00105361 0 0)
(0.0250871 -0.000555543 0 0.000936101 0 0)
(0.0294001 0.000376607 0 0.000855887 0 0)
(0.0326369 0.00107299 0 0.000919698 0 0)
(0.0402702 0.0035113 0 0.00126055 0 0)
(0.0498538 0.00653629 0 0.002339 0 0)
(0.0104436 -0.000618818 0 0.000617754 0 0)
(0.00403124 -0.000321528 0 0.00163458 0 0)
(0.00432836 -0.000907335 0 0.00150308 0 0)
(0.00569942 -0.000694482 0 0.00102103 0 0)
(0.00906834 -0.000605031 0 0.00118952 0 0)
(0.00889995 -0.0006305 0 0.00113151 0 0)
(0.0120686 -0.000877521 0 0.00122503 0 0)
(0.0109198 -0.000893387 0 0.00128083 0 0)
(0.0136213 -0.000971031 0 0.00119606 0 0)
(0.0118007 -0.000535867 0 0.00110503 0 0)
(0.0143965 -0.000594282 0 0.000979624 0 0)
(0.0120478 -0.00032001 0 0.000902547 0 0)
(0.0145512 -0.000393842 0 0.000823092 0 0)
(0.0119007 -0.000346398 0 0.000768581 0 0)
(0.0142391 -0.000230355 0 0.00064184 0 0)
(0.0120059 -0.000144417 0 0.000595316 0 0)
(0.014741 0.000423703 0 0.000488888 0 0)
(0.014238 0.000767536 0 0.000546896 0 0)
(0.0193061 0.00231446 0 0.000737644 0 0)
(0.0242073 0.0037634 0 0.00132111 0 0)
(0.00946622 -0.000941637 0 0.000444249 0 0)
(0.00350607 -0.000205832 0 0.00132137 0 0)
(0.00412649 -0.000573256 0 0.00109154 0 0)
(0.00602128 -0.000538765 0 0.000673839 0 0)
(0.00843058 -0.00048842 0 0.000767753 0 0)
(0.00724484 -0.000352996 0 0.000769164 0 0)
(0.00805122 -0.00031415 0 0.000796046 0 0)
(0.00604056 0.000108296 0 0.000776495 0 0)
(0.00583297 0.000149818 0 0.000686556 0 0)
(0.00460346 0.000612978 0 0.000588807 0 0)
(0.00415124 0.000497072 0 0.000505434 0 0)
(0.0041479 0.000823969 0 0.000458883 0 0)
(0.00343998 0.000625456 0 0.000404163 0 0)
(0.00472231 0.000872283 0 0.000382468 0 0)
(0.00382901 0.000549222 0 0.000310659 0 0)
(0.00623332 0.000835033 0 0.000308653 0 0)
(0.00560211 0.000457769 0 0.000261255 0 0)
(0.00868231 0.000947936 0 0.00029534 0 0)
(0.00962586 0.000870675 0 0.000483072 0 0)
(0.0139567 0.00191349 0 0.000669689 0 0)
(0.00832386 -0.00170459 0 0.0005985 0 0)
(0.00187154 -0.000623393 0 0.00150739 0 0)
(0.0020189 -0.000203624 0 0.000961957 0 0)
(0.00264569 5.92325e-05 0 0.000531288 0 0)
(0.00282012 0.000496082 0 0.000466803 0 0)
(0.0031595 0.000937515 0 0.000424084 0 0)
(0.00517187 0.00117633 0 0.000391601 0 0)
(0.00941111 0.00142421 0 0.000342691 0 0)
(0.0121042 0.0013146 0 0.000278854 0 0)
(0.0188759 0.00137756 0 0.000224601 0 0)
(0.0202849 0.00115278 0 0.000187023 0 0)
(0.028676 0.00122002 0 0.000170174 0 0)
(0.0280398 0.000962202 0 0.0001558 0 0)
(0.0377517 0.00108368 0 0.000147163 0 0)
(0.0352588 0.000619285 0 0.000125348 0 0)
(0.0451086 0.000865414 0 0.000125533 0 0)
(0.0415119 -1.24362e-05 0 0.000117118 0 0)
(0.0487579 0.000656967 0 0.00014078 0 0)
(0.0459802 -0.000629767 0 0.00022944 0 0)
(0.0476632 0.00122765 0 0.0004391 0 0)
(0.00772243 -0.00246584 0 0.00098887 0 0)
(0.00107097 0.000911801 0 0.00131023 0 0)
(0.00707232 0.00183683 0 0.000545739 0 0)
(0.0141131 0.00160941 0 0.000214302 0 0)
(0.0223446 0.00151577 0 0.000132696 0 0)
(0.0331415 0.00136908 0 0.000102566 0 0)
(0.0429536 0.00113155 0 8.88953e-05 0 0)
(0.0539894 0.000949663 0 7.60682e-05 0 0)
(0.0605166 0.000742209 0 6.58936e-05 0 0)
(0.0701572 0.000661304 0 5.8543e-05 0 0)
(0.0731956 0.000528119 0 5.481e-05 0 0)
(0.0823358 0.000538069 0 5.25288e-05 0 0)
(0.0825818 0.00040699 0 5.13168e-05 0 0)
(0.0919244 0.000458965 0 4.70368e-05 0 0)
(0.0897923 0.000201377 0 4.27606e-05 0 0)
(0.0984689 0.000277158 0 3.98087e-05 0 0)
(0.0941485 -0.000272486 0 4.09263e-05 0 0)
(0.0986064 8.7395e-05 0 4.52924e-05 0 0)
(0.0949951 -0.0010272 0 7.9485e-05 0 0)
(0.0881447 0.000484691 0 0.000252207 0 0)
(0.00144648 -8.73e-05 0 0.000164917 0 0)
(0.0277445 0.00108107 0 6.03238e-05 0 0)
(0.0541897 9.76604e-05 0 1.42503e-05 0 0)
(0.0674817 -0.000168932 0 5.6809e-06 0 0)
(0.0773096 -0.000129283 0 4.00032e-06 0 0)
(0.084938 -9.98814e-05 0 4.21519e-06 0 0)
(0.0897284 -6.98645e-05 0 4.91096e-06 0 0)
(0.0939164 -3.51778e-05 0 5.08786e-06 0 0)
(0.0961868 -2.42592e-05 0 5.54781e-06 0 0)
(0.0991679 -5.82835e-06 0 5.50749e-06 0 0)
(0.100136 -1.24634e-05 0 5.67872e-06 0 0)
(0.102633 3.49528e-06 0 5.34652e-06 0 0)
(0.102778 -1.56331e-05 0 5.15045e-06 0 0)
(0.105107 -1.74054e-07 0 4.46871e-06 0 0)
(0.104353 -4.60439e-05 0 4.12468e-06 0 0)
(0.106008 -3.95508e-05 0 3.4694e-06 0 0)
(0.103667 -0.000127653 0 3.36887e-06 0 0)
(0.103021 -0.000105656 0 3.35594e-06 0 0)
(0.10001 -0.00037392 0 5.35975e-06 0 0)
(0.0904388 0.000496464 0 3.46158e-05 0 0)
(0.417127 -0.205803 0 0.12776 0 0)
(0.463065 -0.244472 0 0.180178 0 0)
(0.468578 -0.23366 0 0.215081 0 0)
(0.493393 -0.205179 0 0.239608 0 0)
(0.498098 -0.171699 0 0.253767 0 0)
(0.580214 -0.151005 0 0.263754 0 0)
(0.621693 -0.144076 0 0.273406 0 0)
(0.760511 -0.159997 0 0.287727 0 0)
(0.826257 -0.181203 0 0.30453 0 0)
(0.973248 -0.211225 0 0.321774 0 0)
(1.01614 -0.231228 0 0.340257 0 0)
(1.15137 -0.258463 0 0.363478 0 0)
(1.17505 -0.269304 0 0.387691 0 0)
(1.31197 -0.294634 0 0.409687 0 0)
(1.33647 -0.307925 0 0.424115 0 0)
(1.48504 -0.343805 0 0.435787 0 0)
(1.50406 -0.371509 0 0.450745 0 0)
(1.66703 -0.423864 0 0.473989 0 0)
(1.67595 -0.45638 0 0.506541 0 0)
(1.8781 -0.512258 0 0.548002 0 0)
(1.91305 -0.540112 0 0.582591 0 0)
(2.16546 -0.604818 0 0.619773 0 0)
(2.2049 -0.64328 0 0.655343 0 0)
(2.47942 -0.719916 0 0.695158 0 0)
(2.51077 -0.758679 0 0.732589 0 0)
(2.79855 -0.839753 0 0.776594 0 0)
(2.82773 -0.87289 0 0.817258 0 0)
(3.13207 -0.967614 0 0.862463 0 0)
(3.17007 -1.005 0 0.905263 0 0)
(3.4936 -1.11797 0 0.958427 0 0)
(3.5435 -1.16115 0 1.0114 0 0)
(3.90125 -1.28948 0 1.07185 0 0)
(3.96012 -1.33528 0 1.12873 0 0)
(4.36822 -1.48463 0 1.19282 0 0)
(4.42046 -1.53603 0 1.25196 0 0)
(4.86688 -1.70669 0 1.31909 0 0)
(4.87651 -1.75316 0 1.37557 0 0)
(5.33236 -1.93006 0 1.43977 0 0)
(5.27861 -1.95981 0 1.493 0 0)
(5.72351 -2.13452 0 1.55593 0 0)
(5.60661 -2.13301 0 1.60816 0 0)
(6.01694 -2.29295 0 1.67048 0 0)
(5.84397 -2.26153 0 1.71933 0 0)
(6.24058 -2.40979 0 1.78236 0 0)
(6.03094 -2.36263 0 1.82993 0 0)
(6.45338 -2.51111 0 1.89532 0 0)
(6.22154 -2.45533 0 1.94368 0 0)
(6.70129 -2.61528 0 2.01676 0 0)
(6.45542 -2.55876 0 2.06875 0 0)
(7.00206 -2.73213 0 2.15611 0 0)
(6.72841 -2.68188 0 2.21767 0 0)
(7.33517 -2.8626 0 2.32469 0 0)
(6.98046 -2.80105 0 2.40075 0 0)
(7.62539 -2.97776 0 2.51829 0 0)
(7.13881 -2.86692 0 2.58842 0 0)
(7.7951 -3.0312 0 2.69832 0 0)
(7.16968 -2.85487 0 2.74066 0 0)
(7.84155 -3.0114 0 2.82534 0 0)
(7.10229 -2.7929 0 2.84399 0 0)
(7.84135 -2.96647 0 2.91318 0 0)
(7.00115 -2.74058 0 2.93293 0 0)
(7.83671 -2.94721 0 3.00994 0 0)
(6.87463 -2.70989 0 3.04289 0 0)
(7.77296 -2.93376 0 3.13731 0 0)
(6.68531 -2.65077 0 3.16235 0 0)
(7.61107 -2.84236 0 3.24322 0 0)
(6.4577 -2.50804 0 3.21475 0 0)
(7.45619 -2.63086 0 3.2337 0 0)
(6.27245 -2.30624 0 3.17755 0 0)
(7.443 -2.43215 0 3.20775 0 0)
(6.20172 -2.13904 0 3.19216 0 0)
(7.58323 -2.30291 0 3.2323 0 0)
(6.23572 -1.99591 0 3.21298 0 0)
(7.85282 -2.24424 0 3.26064 0 0)
(6.35932 -1.90973 0 3.27686 0 0)
(8.16755 -2.25429 0 3.37664 0 0)
(6.57029 -1.87551 0 3.43223 0 0)
(8.45117 -2.29573 0 3.59009 0 0)
(6.78924 -1.88601 0 3.66094 0 0)
(8.68533 -2.32201 0 3.85487 0 0)
(6.89629 -1.89643 0 3.91201 0 0)
(8.86245 -2.33135 0 4.08173 0 0)
(6.89806 -1.89415 0 4.1029 0 0)
(8.98643 -2.34677 0 4.244 0 0)
(6.87548 -1.87681 0 4.22622 0 0)
(8.98625 -2.32887 0 4.35734 0 0)
(6.91089 -1.83996 0 4.33681 0 0)
(8.95385 -2.27543 0 4.51166 0 0)
(7.0138 -1.81213 0 4.52614 0 0)
(9.02958 -2.21555 0 4.73344 0 0)
(7.18759 -1.81063 0 4.76138 0 0)
(9.22149 -2.23493 0 4.956 0 0)
(7.48698 -1.87336 0 4.98942 0 0)
(9.54419 -2.3257 0 5.20038 0 0)
(7.86953 -1.97617 0 5.25107 0 0)
(9.86636 -2.46218 0 5.50468 0 0)
(8.25505 -2.10823 0 5.5932 0 0)
(10.1154 -2.60016 0 5.9116 0 0)
(8.53353 -2.23467 0 6.04962 0 0)
(10.1222 -2.69118 0 6.43076 0 0)
(8.59422 -2.29884 0 6.61227 0 0)
(9.99997 -2.73319 0 7.01979 0 0)
(8.4622 -2.3285 0 7.2353 0 0)
(9.82965 -2.76746 0 7.67572 0 0)
(8.24557 -2.35273 0 7.78174 0 0)
(9.65213 -2.80133 0 8.16402 0 0)
(8.02235 -2.29478 0 8.17278 0 0)
(9.51592 -2.73709 0 8.44237 0 0)
(7.85161 -2.14906 0 8.38078 0 0)
(9.37558 -2.63401 0 8.66581 0 0)
(7.72183 -2.01165 0 8.54714 0 0)
(9.17927 -2.49378 0 8.76664 0 0)
(7.68155 -1.84815 0 8.58722 0 0)
(8.99133 -2.29835 0 8.80341 0 0)
(7.70353 -1.63561 0 8.65172 0 0)
(8.77265 -2.04448 0 8.88051 0 0)
(7.69699 -1.44478 0 8.81623 0 0)
(8.55066 -1.81931 0 9.1029 0 0)
(7.72621 -1.30548 0 9.11521 0 0)
(8.44051 -1.64142 0 9.43959 0 0)
(7.82894 -1.2132 0 9.53191 0 0)
(8.37096 -1.49261 0 9.84028 0 0)
(7.8492 -1.069 0 9.96628 0 0)
(8.25221 -1.33548 0 10.2252 0 0)
(7.78343 -0.946318 0 10.3124 0 0)
(8.11273 -1.20344 0 10.5142 0 0)
(7.61606 -0.827317 0 10.5969 0 0)
(7.96162 -1.08431 0 10.7805 0 0)
(7.52512 -0.764354 0 10.846 0 0)
(7.86671 -1.01793 0 10.9577 0 0)
(7.60687 -0.80965 0 11.0904 0 0)
(7.88812 -1.00101 0 11.2036 0 0)
(7.79453 -0.898322 0 11.3749 0 0)
(7.94484 -0.989917 0 11.4742 0 0)
(7.92806 -0.995892 0 11.6813 0 0)
(7.97046 -0.971472 0 11.7929 0 0)
(8.01422 -1.02596 0 12.0223 0 0)
(7.98593 -0.909894 0 12.1933 0 0)
(8.03485 -0.980631 0 12.441 0 0)
(8.00211 -0.804275 0 12.5824 0 0)
(8.01299 -0.900957 0 12.8368 0 0)
(7.89649 -0.666443 0 12.9222 0 0)
(7.96188 -0.775868 0 13.1781 0 0)
(7.74799 -0.519713 0 13.2961 0 0)
(7.76451 -0.574527 0 13.616 0 0)
(7.51652 -0.344776 0 13.6366 0 0)
(7.56664 -0.334145 0 13.7707 0 0)
(7.34514 -0.221145 0 13.7706 0 0)
(7.41687 -0.104914 0 13.9296 0 0)
(7.19679 -0.125645 0 13.8913 0 0)
(7.25912 0.0583567 0 13.9814 0 0)
(7.04406 -0.0364072 0 13.9055 0 0)
(7.09845 0.214766 0 13.9776 0 0)
(6.93154 0.0926995 0 13.9067 0 0)
(6.96255 0.3359 0 13.9767 0 0)
(6.84556 0.171946 0 13.8825 0 0)
(6.86925 0.410094 0 13.9729 0 0)
(6.84418 0.268068 0 13.8911 0 0)
(6.8247 0.437116 0 13.9548 0 0)
(6.76659 0.291301 0 13.9142 0 0)
(6.70309 0.42571 0 14.06 0 0)
(6.66816 0.247151 0 14.108 0 0)
(6.58213 0.363835 0 14.1154 0 0)
(6.60634 0.139559 0 14.1425 0 0)
(6.57192 0.286363 0 14.0723 0 0)
(6.61624 -0.0453269 0 14.0754 0 0)
(6.57289 0.148718 0 14.0415 0 0)
(6.61376 -0.290083 0 13.9754 0 0)
(6.55099 -0.0441283 0 13.8471 0 0)
(6.63955 -0.481869 0 13.6416 0 0)
(6.43869 -0.331582 0 13.4796 0 0)
(6.66964 -0.740567 0 13.2437 0 0)
(6.24219 -0.582062 0 12.8035 0 0)
(6.72007 -1.04452 0 12.5177 0 0)
(6.16758 -0.701366 0 12.0023 0 0)
(6.73705 -1.18516 0 11.7344 0 0)
(6.23746 -0.733897 0 11.287 0 0)
(6.7822 -1.25545 0 10.9493 0 0)
(6.3522 -0.783258 0 10.72 0 0)
(6.76857 -1.18339 0 10.2402 0 0)
(6.48145 -0.876803 0 10.2254 0 0)
(6.57827 -1.08658 0 9.46184 0 0)
(6.40492 -1.03791 0 9.76808 0 0)
(6.34552 -0.94847 0 8.70122 0 0)
(6.22169 -1.20582 0 9.31997 0 0)
(6.09555 -0.663436 0 8.00396 0 0)
(5.97466 -1.30911 0 8.99975 0 0)
(5.74484 -0.35762 0 7.48505 0 0)
(5.60079 -1.27373 0 8.93664 0 0)
(5.33167 0.0466048 0 7.28921 0 0)
(5.13116 -1.08547 0 9.25994 0 0)
(4.85913 0.54354 0 7.46535 0 0)
(4.60249 -0.816398 0 10.0856 0 0)
(4.1808 1.15233 0 8.20548 0 0)
(4.15602 -0.325817 0 11.693 0 0)
(3.56673 2.15374 0 10.0269 0 0)
(3.74469 0.197364 0 14.1964 0 0)
(2.83903 3.43859 0 13.1695 0 0)
(3.53896 2.36865 0 19.9057 0 0)
(1.12502 0.690337 0 22.322 0 0)
(0.375473 -0.169962 0 0.144453 0 0)
(0.348016 -0.180631 0 0.188238 0 0)
(0.358441 -0.163802 0 0.198892 0 0)
(0.328058 -0.14895 0 0.20408 0 0)
(0.343175 -0.130169 0 0.203244 0 0)
(0.348226 -0.129285 0 0.201959 0 0)
(0.383906 -0.135102 0 0.206348 0 0)
(0.417946 -0.156982 0 0.218351 0 0)
(0.467977 -0.172866 0 0.232197 0 0)
(0.504018 -0.196875 0 0.246627 0 0)
(0.546182 -0.208349 0 0.261908 0 0)
(0.577051 -0.232342 0 0.281579 0 0)
(0.615806 -0.240901 0 0.301382 0 0)
(0.659995 -0.266974 0 0.321793 0 0)
(0.707766 -0.276782 0 0.339175 0 0)
(0.780991 -0.312982 0 0.357993 0 0)
(0.842612 -0.334594 0 0.378356 0 0)
(0.949064 -0.390143 0 0.404572 0 0)
(1.01459 -0.419742 0 0.432161 0 0)
(1.14062 -0.483387 0 0.466012 0 0)
(1.19833 -0.509193 0 0.498129 0 0)
(1.34572 -0.575968 0 0.5347 0 0)
(1.39908 -0.599398 0 0.569115 0 0)
(1.57297 -0.674793 0 0.609323 0 0)
(1.62045 -0.695216 0 0.64701 0 0)
(1.8247 -0.779923 0 0.69356 0 0)
(1.87452 -0.797884 0 0.737174 0 0)
(2.11752 -0.896403 0 0.789257 0 0)
(2.17829 -0.92039 0 0.836487 0 0)
(2.45766 -1.03908 0 0.894192 0 0)
(2.5215 -1.07131 0 0.945943 0 0)
(2.82656 -1.20808 0 1.00805 0 0)
(2.87432 -1.2407 0 1.06182 0 0)
(3.19418 -1.38966 0 1.12627 0 0)
(3.20608 -1.4151 0 1.18021 0 0)
(3.53218 -1.5707 0 1.24494 0 0)
(3.48505 -1.57845 0 1.29766 0 0)
(3.80914 -1.73224 0 1.35867 0 0)
(3.69219 -1.716 0 1.40775 0 0)
(4.01972 -1.86764 0 1.4659 0 0)
(3.84479 -1.82673 0 1.51038 0 0)
(4.18948 -1.97603 0 1.56779 0 0)
(3.97658 -1.91594 0 1.60969 0 0)
(4.35966 -2.07113 0 1.67269 0 0)
(4.1287 -2.00126 0 1.71576 0 0)
(4.56029 -2.17181 0 1.79174 0 0)
(4.3202 -2.09859 0 1.83951 0 0)
(4.79824 -2.28565 0 1.92871 0 0)
(4.53812 -2.20615 0 1.98066 0 0)
(5.05566 -2.40294 0 2.0786 0 0)
(4.73999 -2.30361 0 2.13369 0 0)
(5.29659 -2.50503 0 2.23482 0 0)
(4.88119 -2.3616 0 2.29042 0 0)
(5.47496 -2.5651 0 2.38807 0 0)
(4.93926 -2.35724 0 2.43573 0 0)
(5.57032 -2.56637 0 2.52313 0 0)
(4.93658 -2.29914 0 2.55704 0 0)
(5.61665 -2.52692 0 2.63894 0 0)
(4.9281 -2.23287 0 2.66423 0 0)
(5.66436 -2.48905 0 2.76243 0 0)
(4.94913 -2.20812 0 2.79014 0 0)
(5.73427 -2.47065 0 2.89935 0 0)
(4.97769 -2.20632 0 2.92013 0 0)
(5.79488 -2.42701 0 3.01493 0 0)
(4.95385 -2.15298 0 3.01191 0 0)
(5.80407 -2.30706 0 3.06022 0 0)
(4.8613 -2.00328 0 3.0184 0 0)
(5.81403 -2.14062 0 3.04486 0 0)
(4.80055 -1.84057 0 3.01529 0 0)
(5.9091 -2.0241 0 3.07649 0 0)
(4.83095 -1.71921 0 3.06109 0 0)
(6.12195 -1.95518 0 3.14231 0 0)
(4.96725 -1.62689 0 3.12847 0 0)
(6.42317 -1.94573 0 3.22174 0 0)
(5.19689 -1.58481 0 3.23519 0 0)
(6.74924 -1.99297 0 3.37128 0 0)
(5.47603 -1.58745 0 3.42169 0 0)
(7.02722 -2.03357 0 3.6006 0 0)
(5.70737 -1.57615 0 3.65529 0 0)
(7.21709 -2.0223 0 3.8504 0 0)
(5.82302 -1.54916 0 3.88943 0 0)
(7.36527 -2.01263 0 4.06312 0 0)
(5.92662 -1.54894 0 4.07758 0 0)
(7.48112 -2.02042 0 4.21579 0 0)
(6.07583 -1.58426 0 4.18398 0 0)
(7.58326 -2.01201 0 4.33232 0 0)
(6.26576 -1.63186 0 4.31832 0 0)
(7.7232 -2.00022 0 4.49931 0 0)
(6.51961 -1.66663 0 4.52102 0 0)
(7.96028 -2.00154 0 4.72827 0 0)
(6.80807 -1.72333 0 4.75845 0 0)
(8.28193 -2.0851 0 4.95209 0 0)
(7.13515 -1.8074 0 5.00355 0 0)
(8.65627 -2.20017 0 5.22699 0 0)
(7.49195 -1.9115 0 5.29116 0 0)
(9.01087 -2.35351 0 5.54786 0 0)
(7.86458 -2.03627 0 5.65052 0 0)
(9.30389 -2.49226 0 5.96933 0 0)
(8.15592 -2.14354 0 6.10492 0 0)
(9.41011 -2.56952 0 6.48386 0 0)
(8.26837 -2.17583 0 6.64498 0 0)
(9.32098 -2.59108 0 7.0761 0 0)
(8.13005 -2.14464 0 7.25497 0 0)
(9.13135 -2.5628 0 7.67835 0 0)
(7.81121 -2.09185 0 7.73278 0 0)
(8.89819 -2.51576 0 8.09849 0 0)
(7.45562 -1.94557 0 8.08474 0 0)
(8.69296 -2.38866 0 8.38938 0 0)
(7.19715 -1.75202 0 8.31708 0 0)
(8.55598 -2.20792 0 8.58949 0 0)
(7.06017 -1.54745 0 8.4595 0 0)
(8.46665 -1.97794 0 8.67913 0 0)
(7.07649 -1.34143 0 8.51598 0 0)
(8.44142 -1.72879 0 8.74685 0 0)
(7.1634 -1.17379 0 8.63537 0 0)
(8.41388 -1.56867 0 8.86696 0 0)
(7.34642 -1.0827 0 8.84222 0 0)
(8.4427 -1.45245 0 9.11506 0 0)
(7.58301 -1.00826 0 9.18624 0 0)
(8.54547 -1.3563 0 9.49875 0 0)
(7.74905 -0.945401 0 9.62473 0 0)
(8.60506 -1.24325 0 9.93066 0 0)
(7.74945 -0.814793 0 10.074 0 0)
(8.54272 -1.10613 0 10.3595 0 0)
(7.64004 -0.638308 0 10.4736 0 0)
(8.42432 -0.97927 0 10.6841 0 0)
(7.54578 -0.52166 0 10.7734 0 0)
(8.3065 -0.920092 0 10.9432 0 0)
(7.54973 -0.576242 0 11.0608 0 0)
(8.26645 -0.942281 0 11.169 0 0)
(7.68027 -0.771284 0 11.3131 0 0)
(8.31657 -0.968379 0 11.4119 0 0)
(7.89457 -0.938339 0 11.5846 0 0)
(8.37928 -0.968137 0 11.7041 0 0)
(8.05819 -1.05825 0 11.9207 0 0)
(8.50424 -0.971941 0 11.9999 0 0)
(8.20236 -1.11121 0 12.2279 0 0)
(8.62013 -0.92986 0 12.3301 0 0)
(8.32543 -1.09264 0 12.6112 0 0)
(8.68495 -0.821929 0 12.7159 0 0)
(8.31058 -0.976194 0 13.0435 0 0)
(8.61442 -0.682172 0 13.0694 0 0)
(8.20982 -0.836797 0 13.3662 0 0)
(8.43809 -0.495639 0 13.4513 0 0)
(7.93018 -0.605341 0 13.8082 0 0)
(8.23294 -0.266005 0 13.7829 0 0)
(7.65839 -0.398096 0 13.9985 0 0)
(8.02984 -0.102353 0 13.9854 0 0)
(7.36932 -0.204667 0 14.1708 0 0)
(7.76395 0.00462892 0 14.1286 0 0)
(7.17591 0.00687533 0 14.2488 0 0)
(7.53549 0.0599497 0 14.0827 0 0)
(7.02453 0.136915 0 14.1818 0 0)
(7.44767 0.142803 0 14.1678 0 0)
(6.93668 0.255703 0 14.201 0 0)
(7.40583 0.105469 0 14.0735 0 0)
(6.89596 0.362142 0 14.2115 0 0)
(7.36408 0.153407 0 14.1507 0 0)
(6.80509 0.376466 0 14.2124 0 0)
(7.19042 0.181101 0 14.3034 0 0)
(6.67515 0.405196 0 14.3514 0 0)
(7.03633 0.125059 0 14.3922 0 0)
(6.59113 0.378618 0 14.4101 0 0)
(6.97388 0.054892 0 14.3907 0 0)
(6.49076 0.324059 0 14.4243 0 0)
(6.90991 -0.110553 0 14.3801 0 0)
(6.40172 0.206681 0 14.4328 0 0)
(6.90464 -0.224809 0 14.3739 0 0)
(6.41355 0.112926 0 14.1694 0 0)
(6.90661 -0.385215 0 14.0947 0 0)
(6.32818 0.00482339 0 13.8971 0 0)
(6.78573 -0.572731 0 13.7138 0 0)
(6.26136 -0.137307 0 13.2406 0 0)
(6.54927 -0.848397 0 12.9463 0 0)
(6.32714 -0.297285 0 12.4306 0 0)
(6.32339 -1.13129 0 11.9873 0 0)
(6.50467 -0.476015 0 11.6828 0 0)
(6.18422 -1.28951 0 11.2278 0 0)
(6.66945 -0.756784 0 11.0737 0 0)
(6.12376 -1.29755 0 10.4549 0 0)
(6.7357 -1.01858 0 10.6783 0 0)
(6.0696 -1.18459 0 9.72745 0 0)
(6.61798 -1.37187 0 10.2855 0 0)
(5.89078 -0.999278 0 8.88311 0 0)
(6.39861 -1.71015 0 9.87861 0 0)
(5.70939 -0.718548 0 8.03885 0 0)
(6.11726 -1.87057 0 9.62569 0 0)
(5.60578 -0.42056 0 7.38674 0 0)
(5.69307 -1.90084 0 9.59305 0 0)
(5.40569 -0.082963 0 7.10509 0 0)