/*--------------------------------*- C++ -*----------------------------------*\
| =========                 |                                                 |
| \\      /  F ield         | OpenFOAM: The Open Source CFD Toolbox           |
|  \\    /   O peration     | Version:  2.4.0                                 |
|   \\  /    A nd           | Web:      www.OpenFOAM.org                      |
|    \\/     M anipulation  |                                                 |
\*---------------------------------------------------------------------------*/
FoamFile
{
    version     2.0;
    format      ascii;
    class       volScalarField;
    location    "0.22";
    object      nuSgs;
}
// * * * * * * * * * * * * * * * * * * * * * * * * * * * * * * * * * * * * * //

dimensions      [0 2 -1 0 0 0 0];

internalField   nonuniform List<scalar> 
8800
(
0.00133933
0.00150563
0.0013941
0.00122676
0.00112413
0.00104596
0.00100212
0.000954795
0.000931964
0.000897756
0.000886937
0.00086041
0.000854443
0.000834173
0.00082858
0.000810001
0.000803456
0.000786703
0.000772721
0.000759715
0.000557217
0.000980202
0.00108423
0.00108049
0.00106505
0.001029
0.00100751
0.000971508
0.000955448
0.000924491
0.000914099
0.00088912
0.000881989
0.000863619
0.000857771
0.000841965
0.00083781
0.00082303
0.000817541
0.000808378
0.000136649
0.000401164
0.000588602
0.000653808
0.000710535
0.000732628
0.000755193
0.000757144
0.000761737
0.000757445
0.000756033
0.000749459
0.000746996
0.000739005
0.000737292
0.000730471
0.000728967
0.000722692
0.000722699
0.000715934
2.72548e-05
0.000124043
0.000240377
0.000303484
0.000358707
0.000395149
0.000429456
0.000452079
0.000476745
0.000491768
0.000504205
0.000519712
0.000527213
0.000535136
0.000544124
0.000551612
0.00055493
0.000561631
0.000571515
0.000573292
5.21991e-06
3.30865e-05
7.14908e-05
0.000112713
0.000132993
0.000168222
0.000187275
0.000214412
0.000230571
0.000253324
0.000262355
0.000283336
0.000291922
0.00030828
0.00031645
0.000334585
0.000340569
0.00035723
0.000365716
0.000386204
2.34288e-06
8.25426e-06
1.83518e-05
3.27135e-05
3.94605e-05
5.31664e-05
6.15009e-05
7.69857e-05
8.48853e-05
0.000100111
0.000105833
0.000119821
0.000125976
0.000137802
0.000143847
0.000157902
0.00016295
0.00017681
0.000183083
0.000199886
2.1819e-06
3.09029e-06
5.2319e-06
8.96027e-06
1.05336e-05
1.38798e-05
1.63484e-05
2.12049e-05
2.39536e-05
2.97946e-05
3.1877e-05
3.77038e-05
4.06494e-05
4.59094e-05
4.90249e-05
5.62838e-05
5.92166e-05
6.62802e-05
6.94891e-05
7.73759e-05
2.15748e-06
2.54525e-06
3.18804e-06
4.22788e-06
4.46818e-06
4.98616e-06
5.39002e-06
6.29631e-06
6.85191e-06
8.17313e-06
8.43646e-06
9.54445e-06
1.09074e-05
1.17616e-05
1.27698e-05
1.55492e-05
1.64884e-05
1.81438e-05
1.89062e-05
2.20455e-05
2.14148e-06
2.46685e-06
3.23855e-06
3.7415e-06
3.75044e-06
3.79593e-06
3.86902e-06
4.13842e-06
4.42858e-06
4.52425e-06
4.47172e-06
4.51601e-06
4.6036e-06
4.66502e-06
4.85416e-06
5.45653e-06
5.62757e-06
5.69713e-06
5.80356e-06
6.36479e-06
2.13329e-06
2.45399e-06
2.95075e-06
3.45142e-06
3.73889e-06
3.87738e-06
3.84731e-06
3.82178e-06
3.88744e-06
4.05954e-06
4.07617e-06
4.08669e-06
4.05645e-06
4.01367e-06
4.03053e-06
4.17615e-06
4.23997e-06
4.27187e-06
4.31793e-06
4.39584e-06
2.1347e-06
2.54126e-06
2.85825e-06
3.39215e-06
3.80825e-06
3.86643e-06
3.82927e-06
3.8009e-06
3.8499e-06
4.08586e-06
4.12243e-06
4.13143e-06
4.10066e-06
4.04822e-06
4.0801e-06
4.22587e-06
4.23969e-06
4.25884e-06
4.37243e-06
4.53543e-06
2.14361e-06
2.64151e-06
2.94393e-06
3.45588e-06
3.8054e-06
3.85238e-06
3.93697e-06
4.23633e-06
4.5347e-06
4.5956e-06
4.51953e-06
4.51353e-06
4.52917e-06
4.60911e-06
5.04466e-06
5.44682e-06
5.5007e-06
5.76904e-06
6.6319e-06
7.32333e-06
2.15729e-06
2.65498e-06
3.14512e-06
3.93004e-06
4.57979e-06
4.98343e-06
5.3606e-06
6.43974e-06
7.22709e-06
8.01428e-06
8.32802e-06
9.63547e-06
1.05322e-05
1.16301e-05
1.35717e-05
1.55791e-05
1.63921e-05
1.90152e-05
2.15484e-05
2.50429e-05
2.18509e-06
3.11658e-06
5.13035e-06
7.52312e-06
1.14679e-05
1.39292e-05
1.61857e-05
2.17187e-05
2.43727e-05
2.93729e-05
3.18721e-05
3.752e-05
4.02155e-05
4.62569e-05
4.96365e-05
5.62756e-05
5.95727e-05
6.8006e-05
7.3038e-05
8.32443e-05
2.34813e-06
8.31306e-06
1.82299e-05
2.7544e-05
4.39008e-05
5.26789e-05
6.04017e-05
7.80867e-05
8.58117e-05
9.96107e-05
0.000106092
0.000119435
0.000125279
0.00013852
0.000144958
0.000157603
0.000163766
0.000179876
0.000188193
0.000207342
5.20804e-06
3.31297e-05
7.22186e-05
0.000101174
0.000145548
0.000164813
0.000184872
0.000218145
0.000230556
0.000251586
0.00026375
0.000283377
0.000291086
0.000309159
0.000317663
0.000334497
0.000342102
0.000362369
0.000371432
0.000392182
2.7258e-05
0.000124511
0.000238646
0.000300792
0.000363913
0.000391966
0.000428374
0.000456377
0.000474257
0.000491195
0.000507142
0.000518398
0.000524888
0.000538092
0.0005438
0.000552582
0.000556756
0.000568379
0.000572464
0.000581391
0.000136796
0.000402381
0.000587551
0.000653743
0.000711443
0.000731442
0.000755359
0.000757795
0.000761464
0.000757496
0.000756227
0.000749071
0.000746651
0.000739587
0.000737741
0.000731144
0.000729699
0.000726008
0.000724215
0.000719754
0.000557947
0.000980191
0.00108393
0.00108065
0.00106468
0.00102975
0.0010069
0.00097097
0.000955878
0.000924465
0.000913382
0.000889012
0.000882177
0.000862188
0.000857455
0.000841091
0.000836974
0.000820494
0.000815219
0.000801252
0.0013399
0.00150548
0.00139368
0.00122744
0.00112281
0.00104735
0.00100126
0.000954647
0.00093197
0.000897614
0.000886081
0.000859791
0.000854334
0.000831729
0.00082738
0.000805567
0.000800908
0.000774902
0.000765058
0.000732944
0.00034424
0.000275394
0.00023317
0.000209248
0.000195456
0.000189585
0.000187798
0.000188759
0.000191721
0.000196119
0.000201673
0.000204675
0.000207096
0.000209641
0.000214849
0.00022883
0.000235422
0.000232405
0.000215175
0.000185544
0.00015208
0.000123039
0.000106201
9.53546e-05
9.24474e-05
9.1267e-05
9.15903e-05
9.15595e-05
9.12575e-05
9.04642e-05
8.87272e-05
8.58778e-05
8.31061e-05
8.13457e-05
7.94969e-05
7.85183e-05
7.8753e-05
8.09616e-05
8.76557e-05
9.84072e-05
0.000109436
0.000121333
0.000130132
0.000135023
0.000138108
0.0001402
0.000140377
0.00013991
0.000138322
0.000133704
0.000128202
0.000121859
0.000113505
0.000105569
9.9821e-05
9.28259e-05
8.50523e-05
8.11712e-05
7.63787e-05
7.12884e-05
6.89088e-05
6.42375e-05
6.03115e-05
5.76657e-05
5.42784e-05
5.17041e-05
4.90151e-05
4.70583e-05
4.54852e-05
4.30772e-05
4.07237e-05
3.91826e-05
3.76602e-05
3.66585e-05
3.56695e-05
3.43714e-05
3.30763e-05
3.15667e-05
3.04146e-05
2.90334e-05
2.86903e-05
2.90749e-05
3.05132e-05
3.223e-05
3.44441e-05
3.58541e-05
3.65266e-05
3.65735e-05
3.63589e-05
3.5116e-05
3.34689e-05
3.2211e-05
3.16794e-05
3.18423e-05
3.28067e-05
3.27561e-05
3.18211e-05
3.16555e-05
3.12053e-05
2.94933e-05
2.90266e-05
2.96472e-05
2.99342e-05
2.97149e-05
2.98756e-05
3.10302e-05
3.17702e-05
3.30311e-05
3.5632e-05
3.98694e-05
4.89801e-05
6.6046e-05
9.86027e-05
0.000115195
0.000118044
0.000117046
0.000114031
0.00010828
9.85263e-05
8.89707e-05
8.23773e-05
7.85211e-05
7.51486e-05
7.36512e-05
7.25118e-05
7.15778e-05
7.09528e-05
6.97601e-05
6.76699e-05
6.62208e-05
6.58351e-05
6.60583e-05
6.66993e-05
6.76824e-05
6.95261e-05
6.99101e-05
6.98593e-05
7.21536e-05
7.6709e-05
9.02733e-05
0.000122934
0.000131779
0.000128811
0.000122795
0.000121643
0.000120519
0.000113181
9.30194e-05
7.25178e-05
5.96853e-05
5.3839e-05
5.33625e-05
5.58813e-05
5.82392e-05
5.77137e-05
5.57293e-05
5.55654e-05
5.44077e-05
5.44611e-05
5.30872e-05
5.24257e-05
5.0132e-05
4.78532e-05
4.57754e-05
4.49794e-05
4.49133e-05
4.49755e-05
4.58539e-05
4.89606e-05
5.7232e-05
6.77547e-05
7.24402e-05
7.65801e-05
7.44233e-05
6.77566e-05
5.64463e-05
5.16393e-05
4.79277e-05
4.42653e-05
4.30648e-05
3.95182e-05
3.91773e-05
3.82276e-05
3.7706e-05
3.69913e-05
3.66867e-05
3.65567e-05
3.53407e-05
3.43293e-05
3.42847e-05
3.52951e-05
3.81059e-05
4.01306e-05
4.37966e-05
5.02813e-05
6.39952e-05
6.95638e-05
7.35681e-05
0.000107994
0.000235645
0.000406435
0.000367614
0.000334843
0.00030932
0.000289168
0.000273134
0.000261767
0.000251765
0.000243536
0.0002363
0.00023009
0.000224414
0.00021953
0.000217209
0.000211923
0.000210292
0.000212104
0.000222929
0.000232733
0.000230615
0.000222954
0.000201308
0.000173216
0.000141961
0.000120481
0.000107657
0.00010015
9.55373e-05
9.2663e-05
9.02638e-05
8.8111e-05
8.50623e-05
8.19815e-05
8.12507e-05
8.15999e-05
8.35901e-05
8.81399e-05
9.88793e-05
0.000111708
0.000122617
0.00012908
0.000132009
0.000135373
0.000137048
0.000136913
0.00013575
0.000132553
0.000127283
0.000118959
0.000107637
9.65484e-05
8.33781e-05
7.15507e-05
6.23426e-05
5.55896e-05
4.94936e-05
4.44613e-05
4.15011e-05
3.83606e-05
3.55925e-05
3.39476e-05
3.17468e-05
2.98139e-05
2.83493e-05
2.68338e-05
2.54318e-05
2.42045e-05
2.33937e-05
2.25427e-05
2.1661e-05
2.10288e-05
2.05926e-05
2.04681e-05
2.04982e-05
2.06248e-05
2.08053e-05
2.10445e-05
2.14039e-05
2.19459e-05
2.32385e-05
2.4222e-05
2.60139e-05
2.91581e-05
3.03238e-05
3.20561e-05
3.40551e-05
3.51294e-05
3.59217e-05
3.61006e-05
3.52859e-05
3.42223e-05
3.40683e-05
3.399e-05
3.47918e-05
3.59894e-05
3.58377e-05
3.54316e-05
3.56439e-05
3.57178e-05
3.48539e-05
3.45532e-05
3.43304e-05
3.26553e-05
3.24639e-05
3.34942e-05
3.52054e-05
3.64866e-05
3.888e-05
4.35772e-05
5.35368e-05
7.4092e-05
0.00010956
0.000122389
0.000122311
0.000120066
0.000114483
0.000102216
9.07016e-05
8.28832e-05
7.79007e-05
7.47013e-05
7.29816e-05
7.13033e-05
7.04288e-05
6.9826e-05
6.87116e-05
6.69418e-05
6.53518e-05
6.42889e-05
6.41949e-05
6.44169e-05
6.47782e-05
6.5251e-05
6.60788e-05
6.77757e-05
6.84026e-05
6.87599e-05
7.2204e-05
7.70361e-05
9.82568e-05
0.000127377
0.000132042
0.000127589
0.000121536
0.000118744
0.000114539
0.000102542
8.38417e-05
6.66343e-05
5.64247e-05
5.25916e-05
5.27389e-05
5.55358e-05
5.8008e-05
5.74777e-05
5.55093e-05
5.49891e-05
5.39215e-05
5.37005e-05
5.25883e-05
5.19029e-05
4.99481e-05
4.79945e-05
4.52033e-05
4.41852e-05
4.40691e-05
4.42386e-05
4.54421e-05
4.62053e-05
5.28735e-05
6.46629e-05
7.42074e-05
7.88979e-05
8.00022e-05
7.52135e-05
6.39673e-05
5.78668e-05
4.98181e-05
4.92817e-05
4.59693e-05
4.54743e-05
4.2975e-05
4.22494e-05
3.97402e-05
3.80629e-05
3.67933e-05
3.63482e-05
3.52669e-05
3.47836e-05
3.4767e-05
3.48894e-05
3.71498e-05
3.82438e-05
4.21254e-05
4.89167e-05
5.57129e-05
7.18751e-05
7.45933e-05
0.000106268
0.000172243
0.000370695
0.00034769
0.000327982
0.00031085
0.000296973
0.000284179
0.000272657
0.000262358
0.000251363
0.000242698
0.00023307
0.000226461
0.000218226
0.000213175
0.000205891
0.000203418
0.000202945
0.000202805
0.000204227
0.000209472
0.000214859
0.000214144
0.000210555
0.000202234
0.000186931
0.000168375
0.000149969
0.000132326
0.000119494
0.00011173
0.000105087
0.000101555
0.000101654
0.000103471
0.00010738
0.000115582
0.000124336
0.000129304
0.000131364
0.000132776
0.00013371
0.000133498
0.000132097
0.000128013
0.000123393
0.000115998
0.000105232
9.39934e-05
8.05183e-05
6.78924e-05
5.74316e-05
4.85556e-05
4.09465e-05
3.48307e-05
3.01707e-05
2.62179e-05
2.32514e-05
2.13644e-05
1.98599e-05
1.87648e-05
1.82584e-05
1.77173e-05
1.72724e-05
1.70855e-05
1.68836e-05
1.67195e-05
1.67105e-05
1.67133e-05
1.67328e-05
1.67976e-05
1.69802e-05
1.74212e-05
1.79413e-05
1.84966e-05
1.88981e-05
1.9472e-05
1.99423e-05
2.04318e-05
2.15201e-05
2.27385e-05
2.37293e-05
2.59311e-05
2.85781e-05
2.97681e-05
3.1614e-05
3.34455e-05
3.4932e-05
3.71002e-05
3.79731e-05
3.81506e-05
3.84976e-05
3.86938e-05
3.86911e-05
3.96893e-05
4.08226e-05
4.07196e-05
4.02343e-05
3.97126e-05
3.82343e-05
3.78705e-05
3.93191e-05
4.00753e-05
3.87858e-05
3.88038e-05
4.00426e-05
4.11179e-05
4.31652e-05
4.75987e-05
5.7143e-05
7.80004e-05
0.00011745
0.000128249
0.000127279
0.000122973
0.000112453
9.6003e-05
8.64727e-05
7.98457e-05
7.59302e-05
7.31865e-05
7.15694e-05
7.06708e-05
7.004e-05
6.90796e-05
6.7196e-05
6.62176e-05
6.55372e-05
6.53355e-05
6.58801e-05
6.76074e-05
6.77204e-05
6.64423e-05
6.58198e-05
6.61375e-05
6.75119e-05
6.79328e-05
6.85526e-05
7.28041e-05
7.9101e-05
0.000106522
0.000129686
0.00013155
0.000124773
0.000118267
0.000113422
0.000106102
9.26822e-05
7.54789e-05
6.25214e-05
5.47333e-05
5.14012e-05
5.2149e-05
5.5631e-05
5.78012e-05
5.73624e-05
5.49479e-05
5.39727e-05
5.27185e-05
5.25186e-05
5.19261e-05
5.1673e-05
5.08146e-05
4.92321e-05
4.57592e-05
4.40861e-05
4.38831e-05
4.39325e-05
4.54127e-05
4.54173e-05
4.82473e-05
6.16897e-05
7.34173e-05
8.16609e-05
8.46512e-05
7.81346e-05
7.26763e-05
5.80704e-05
5.61875e-05
5.0474e-05
4.95392e-05
4.51632e-05
4.32653e-05
4.13091e-05
4.05359e-05
4.02132e-05
3.96933e-05
4.15736e-05
4.13745e-05
4.25218e-05
4.1545e-05
3.79883e-05
3.711e-05
3.73504e-05
3.83705e-05
5.00237e-05
5.34507e-05
8.58082e-05
8.2685e-05
9.72324e-05
0.000136472
0.000303043
0.000290273
0.000276297
0.000265372
0.000255812
0.000247941
0.000238969
0.000231982
0.000222119
0.000213674
0.00020384
0.000196513
0.000189455
0.000182788
0.000179962
0.000174538
0.000168923
0.000166473
0.000166902
0.000168896
0.000173198
0.000181932
0.000191073
0.000192816
0.000191791
0.00018867
0.000183828
0.000177626
0.000169506
0.00016279
0.00015567
0.000150078
0.000147918
0.000146535
0.000144487
0.000142038
0.000140673
0.000137762
0.000134911
0.000131256
0.000126127
0.000118221
0.000107009
9.47351e-05
8.25254e-05
7.09526e-05
6.10564e-05
5.26267e-05
4.53054e-05
3.85228e-05
3.26797e-05
2.76965e-05
2.34716e-05
2.01425e-05
1.76175e-05
1.57383e-05
1.46443e-05
1.39977e-05
1.39173e-05
1.40319e-05
1.4326e-05
1.48117e-05
1.5064e-05
1.55883e-05
1.61127e-05
1.65244e-05
1.71179e-05
1.77466e-05
1.86572e-05
1.95524e-05
2.10879e-05
2.25821e-05
2.37186e-05
2.47019e-05
2.54768e-05
2.62367e-05
2.67055e-05
2.69805e-05
2.76561e-05
2.82757e-05
2.882e-05
3.03293e-05
3.19544e-05
3.27993e-05
3.47359e-05
3.7287e-05
3.99099e-05
4.29609e-05
4.42023e-05
4.44589e-05
4.49182e-05
4.51856e-05
4.52473e-05
4.58833e-05
4.59457e-05
4.54396e-05
4.53896e-05
4.55372e-05
4.40994e-05
4.2882e-05
4.35037e-05
4.36806e-05
4.38624e-05
4.57261e-05
4.69293e-05
4.84954e-05
5.20037e-05
6.04003e-05
7.87245e-05
0.000120217
0.000133647
0.000132486
0.000126273
0.000109006
9.41967e-05
8.43301e-05
7.93444e-05
7.47037e-05
7.28129e-05
7.09415e-05
7.03199e-05
6.96105e-05
6.84053e-05
6.60634e-05
6.53329e-05
6.5497e-05
6.60047e-05
6.81924e-05
7.13677e-05
7.17716e-05
7.04674e-05
6.72185e-05
6.61214e-05
6.63568e-05
6.72623e-05
6.7442e-05
6.91712e-05
7.43134e-05
8.21656e-05
0.000115053
0.000129949
0.000129239
0.000119869
0.000112831
0.0001068
9.65685e-05
8.44407e-05
7.15165e-05
6.07315e-05
5.38956e-05
5.08643e-05
5.13101e-05
5.53329e-05
5.6812e-05
5.65027e-05
5.42241e-05
5.33318e-05
5.2494e-05
5.19894e-05
5.14643e-05
5.11289e-05
5.09427e-05
4.96545e-05
4.64229e-05
4.38498e-05
4.2985e-05
4.27112e-05
4.34439e-05
4.45127e-05
4.73047e-05
5.79061e-05
6.99597e-05
8.42806e-05
8.42008e-05
8.34349e-05
7.10073e-05
6.2726e-05
5.66324e-05
5.17233e-05
5.17749e-05
4.86989e-05
4.8258e-05
4.45921e-05
4.40475e-05
4.16114e-05
4.05886e-05
4.06463e-05
4.09877e-05
4.28228e-05
4.24733e-05
4.38037e-05
4.23535e-05
4.57629e-05
4.61266e-05
6.32472e-05
6.02328e-05
8.10394e-05
8.22691e-05
8.4453e-05
0.000105197
0.000207016
0.000201879
0.000193874
0.000187234
0.000180418
0.000175647
0.000170497
0.00016532
0.000160622
0.000153132
0.000144246
0.000136321
0.000129629
0.000123764
0.00012209
0.000122433
0.000122028
0.000118906
0.000118385
0.000119141
0.000121221
0.000125978
0.000134811
0.000144439
0.000153525
0.000161434
0.00016655
0.000166934
0.000166088
0.000163823
0.000161121
0.000158423
0.000154705
0.000151475
0.00014728
0.000141593
0.00013536
0.000127067
0.00011608
0.00010354
8.74034e-05
7.25548e-05
6.01466e-05
5.04369e-05
4.2982e-05
3.72402e-05
3.27553e-05
2.8684e-05
2.50123e-05
2.16542e-05
1.88702e-05
1.66189e-05
1.49404e-05
1.38341e-05
1.32198e-05
1.28426e-05
1.2854e-05
1.30161e-05
1.34385e-05
1.42114e-05
1.5258e-05
1.72826e-05
1.83702e-05
2.01233e-05
2.23433e-05
2.40877e-05
2.63334e-05
2.87229e-05
3.121e-05
3.33941e-05
3.5816e-05
3.77941e-05
3.94233e-05
4.07972e-05
4.15769e-05
4.19627e-05
4.20133e-05
4.19611e-05
4.15952e-05
4.14618e-05
4.14728e-05
4.14949e-05
4.16836e-05
4.24517e-05
4.36715e-05
4.51933e-05
4.90212e-05
5.20485e-05
5.25193e-05
5.25522e-05
5.27057e-05
5.25722e-05
5.21492e-05
5.19827e-05
5.15679e-05
5.03449e-05
5.02497e-05
5.03058e-05
4.99576e-05
5.03111e-05
5.04482e-05
4.98494e-05
5.04646e-05
5.3302e-05
5.45965e-05
5.76009e-05
6.45583e-05
7.95059e-05
0.000118421
0.000138433
0.000137566
0.000130405
0.000108492
9.4603e-05
8.52787e-05
7.90129e-05
7.58473e-05
7.18227e-05
7.08374e-05
6.92701e-05
6.83553e-05
6.57147e-05
6.31417e-05
6.10712e-05
6.09675e-05
6.12893e-05
6.26767e-05
6.63559e-05
6.93408e-05
6.94781e-05
6.83097e-05
6.5911e-05
6.54254e-05
6.61139e-05
6.67457e-05
6.72561e-05
7.1996e-05
7.57855e-05
8.97293e-05
0.000122422
0.000129793
0.000125052
0.000113111
0.000105222
9.88119e-05
8.86344e-05
7.59467e-05
6.6494e-05
5.97408e-05
5.26649e-05
5.06861e-05
5.13693e-05
5.53734e-05
5.62056e-05
5.60883e-05
5.42532e-05
5.33792e-05
5.25127e-05
5.16097e-05
5.10923e-05
5.09068e-05
5.07193e-05
4.91839e-05
4.6419e-05
4.36737e-05
4.31449e-05
4.23134e-05
4.2676e-05
4.39656e-05
4.69432e-05
5.36949e-05
7.21711e-05
8.21069e-05
8.4959e-05
8.46628e-05
7.36803e-05
6.7486e-05
5.7021e-05
5.57142e-05
5.37621e-05
5.7998e-05
5.67805e-05
6.30633e-05
5.92043e-05
6.61227e-05
6.0182e-05
7.18061e-05
6.67574e-05
8.59285e-05
7.82034e-05
0.000100275
8.76239e-05
9.99953e-05
8.84719e-05
9.66037e-05
8.4828e-05
8.6114e-05
8.55267e-05
8.47668e-05
9.16624e-05
0.000108514
0.000107475
0.000105568
0.000102985
9.97303e-05
9.68398e-05
9.38366e-05
9.13124e-05
8.93257e-05
8.4852e-05
7.96191e-05
7.4655e-05
7.01479e-05
6.7064e-05
6.65768e-05
6.69513e-05
6.83945e-05
6.86899e-05
6.90201e-05
6.96661e-05
7.10991e-05
7.40026e-05
7.88877e-05
8.79327e-05
9.46991e-05
0.000100001
0.000106782
0.000112169
0.000118645
0.000123866
0.000125106
0.000124526
0.000122423
0.000118544
0.000112738
0.000105435
9.55219e-05
8.334e-05
7.13078e-05
5.96568e-05
4.90177e-05
3.99161e-05
3.23502e-05
2.69451e-05
2.28646e-05
1.9996e-05
1.78525e-05
1.5894e-05
1.4361e-05
1.32848e-05
1.27357e-05
1.26037e-05
1.25055e-05
1.25992e-05
1.28623e-05
1.34077e-05
1.47389e-05
1.60996e-05
1.78551e-05
2.09208e-05
2.33794e-05
2.72401e-05
2.96394e-05
3.3454e-05
3.80109e-05
4.16657e-05
4.62214e-05
5.02116e-05
5.36932e-05
5.69043e-05
5.95361e-05
6.15159e-05
6.3319e-05
6.41159e-05
6.40748e-05
6.37431e-05
6.30055e-05
6.15453e-05
5.98e-05
5.82592e-05
5.64495e-05
5.51177e-05
5.47742e-05
5.48403e-05
5.52488e-05
5.69709e-05
5.98727e-05
6.12485e-05
6.12483e-05
6.11254e-05
6.08096e-05
5.94926e-05
5.85686e-05
5.82898e-05
5.75549e-05
5.69773e-05
5.7095e-05
5.67715e-05
5.64829e-05
5.79557e-05
5.90299e-05
5.90862e-05
6.00908e-05
6.1229e-05
6.35396e-05
6.93875e-05
8.01755e-05
0.000111667
0.000142833
0.000143934
0.000136855
0.000113778
9.77902e-05
8.8325e-05
8.07622e-05
7.63774e-05
7.24984e-05
6.84145e-05
6.67036e-05
6.38222e-05
6.26873e-05
6.03673e-05
5.87906e-05
5.66824e-05
5.58723e-05
5.47588e-05
5.48855e-05
5.58631e-05
5.81081e-05
5.88704e-05
5.9524e-05
6.19645e-05
6.42152e-05
6.54292e-05
6.62679e-05
6.83396e-05
7.51417e-05
7.83118e-05
0.000103574
0.000126994
0.000128968
0.000118515
0.000105121
9.65985e-05
9.01454e-05
8.09689e-05
7.15618e-05
6.12525e-05
5.7228e-05
5.24187e-05
5.11356e-05
5.22997e-05
5.73221e-05
5.67045e-05
5.67749e-05
5.48479e-05
5.38331e-05
5.25017e-05
5.18926e-05
5.12714e-05
5.1121e-05
5.05892e-05
4.83745e-05
4.57593e-05
4.39643e-05
4.28762e-05
4.21726e-05
4.21965e-05
4.32404e-05
4.63354e-05
5.35803e-05
7.27908e-05
8.27846e-05
8.87422e-05
8.84327e-05
7.93101e-05
6.78067e-05
5.57137e-05
4.84025e-05
4.46811e-05
4.42846e-05
4.58251e-05
4.9617e-05
5.32092e-05
6.0949e-05
6.01764e-05
6.24893e-05
6.39526e-05
6.6729e-05
7.04866e-05
7.24391e-05
8.04574e-05
8.36726e-05
8.73622e-05
8.95196e-05
9.10661e-05
9.40459e-05
9.41362e-05
9.08114e-05
9.2244e-05
4.33506e-05
4.36729e-05
4.35957e-05
4.31558e-05
4.19741e-05
4.03996e-05
3.90636e-05
3.81216e-05
3.72909e-05
3.55579e-05
3.33857e-05
3.137e-05
2.98666e-05
2.94755e-05
2.95842e-05
3.03567e-05
3.1869e-05
3.26275e-05
3.30833e-05
3.35418e-05
3.43146e-05
3.59594e-05
3.83251e-05
4.45896e-05
4.96039e-05
5.40074e-05
5.84932e-05
6.17245e-05
6.32458e-05
6.42089e-05
6.76253e-05
6.86445e-05
6.82545e-05
6.71592e-05
6.48411e-05
6.109e-05
5.54966e-05
4.85032e-05
4.09837e-05
3.35232e-05
2.69453e-05
2.16093e-05
1.73654e-05
1.44291e-05
1.23634e-05
1.11798e-05
1.04328e-05
1.04529e-05
1.0732e-05
1.10202e-05
1.16343e-05
1.23512e-05
1.31977e-05
1.51456e-05
1.69789e-05
1.96796e-05
2.32279e-05
2.60494e-05
2.88913e-05
3.52605e-05
3.87514e-05
4.43192e-05
4.94221e-05
5.68586e-05
6.42814e-05
7.06953e-05
7.76662e-05
8.29629e-05
8.75663e-05
9.08031e-05
9.31844e-05
9.54159e-05
9.57874e-05
9.55151e-05
9.46808e-05
9.29225e-05
8.97984e-05
8.64057e-05
8.27219e-05
7.93586e-05
7.6014e-05
7.2392e-05
6.98246e-05
6.91861e-05
6.94287e-05
7.07922e-05
7.17944e-05
7.17388e-05
7.05314e-05
6.96042e-05
6.78427e-05
6.61454e-05
6.57302e-05
6.54396e-05
6.50245e-05
6.50759e-05
6.63807e-05
6.67826e-05
6.77782e-05
6.95478e-05
6.93561e-05
6.96512e-05
7.14473e-05
7.3112e-05
7.69689e-05
8.37867e-05
9.90064e-05
0.000142388
0.00015194
0.000146154
0.000122953
0.000105027
9.34922e-05
8.53181e-05
7.78678e-05
7.34421e-05
6.7522e-05
6.46881e-05
6.16585e-05
6.03731e-05
6.01012e-05
5.83534e-05
5.70548e-05
5.458e-05
5.28574e-05
5.12454e-05
5.10915e-05
5.1248e-05
5.20446e-05
5.39315e-05
5.83333e-05
6.20336e-05
6.39451e-05
6.49211e-05
6.62718e-05
7.03918e-05
7.5756e-05
8.4097e-05
0.00011611
0.000128776
0.000126292
0.000109966
9.73295e-05
8.822e-05
8.20958e-05
7.4127e-05
6.68418e-05
5.88663e-05
5.47115e-05
5.22058e-05
5.50446e-05
5.60682e-05
6.04449e-05
5.91097e-05
5.82721e-05
5.57423e-05
5.41349e-05
5.28832e-05
5.25532e-05
5.21566e-05
5.21824e-05
5.07922e-05
4.83534e-05
4.57235e-05
4.47846e-05
4.30804e-05
4.27593e-05
4.25988e-05
4.43988e-05
4.76787e-05
6.00437e-05
7.19994e-05
8.58476e-05
8.93819e-05
8.95533e-05
8.44188e-05
7.2983e-05
6.26979e-05
5.16546e-05
4.58958e-05
4.04212e-05
3.9828e-05
3.98814e-05
4.21678e-05
4.80596e-05
5.40114e-05
5.4867e-05
5.6447e-05
5.5651e-05
5.84412e-05
5.82007e-05
6.45886e-05
6.75415e-05
7.99631e-05
8.21108e-05
8.83649e-05
8.97248e-05
9.46545e-05
9.31065e-05
9.31969e-05
1.29857e-05
1.32957e-05
1.33232e-05
1.32116e-05
1.27312e-05
1.19924e-05
1.14661e-05
1.09738e-05
1.07108e-05
1.04065e-05
1.00139e-05
9.69811e-06
9.54885e-06
9.53877e-06
9.76441e-06
1.03349e-05
1.08945e-05
1.11749e-05
1.14439e-05
1.1785e-05
1.23847e-05
1.33935e-05
1.4655e-05
1.8038e-05
2.13587e-05
2.40548e-05
2.63193e-05
2.83697e-05
2.95672e-05
2.94524e-05
2.86632e-05
3.00026e-05
3.25449e-05
3.29442e-05
3.26715e-05
3.18248e-05
2.90688e-05
2.50292e-05
2.08422e-05
1.69394e-05
1.36564e-05
1.12704e-05
9.51743e-06
8.54696e-06
8.37175e-06
8.47562e-06
8.8983e-06
9.80563e-06
1.13354e-05
1.23946e-05
1.47073e-05
1.70788e-05
2.00771e-05
2.45385e-05
2.79132e-05
3.32143e-05
3.69983e-05
4.2045e-05
4.78006e-05
5.60741e-05
6.19765e-05
7.09148e-05
8.1577e-05
9.37822e-05
0.000103426
0.000113489
0.00012176
0.000127455
0.000131303
0.000133814
0.00013579
0.000135824
0.000135373
0.000134181
0.000131679
0.00012757
0.000121717
0.00011601
0.000110041
0.000103538
9.72088e-05
9.14826e-05
8.69816e-05
8.48016e-05
8.41471e-05
8.41668e-05
8.41181e-05
8.21941e-05
7.90119e-05
7.6445e-05
7.45204e-05
7.41565e-05
7.47259e-05
7.55983e-05
7.58657e-05
7.75492e-05
7.88053e-05
7.85838e-05
7.86221e-05
7.83275e-05
7.60103e-05
7.61791e-05
7.77466e-05
7.98118e-05
8.468e-05
9.2697e-05
0.000130419
0.000157357
0.000155202
0.000136555
0.000115658
0.000102079
9.21062e-05
8.39293e-05
7.63658e-05
7.02183e-05
6.50554e-05
6.27447e-05
5.94163e-05
5.9439e-05
5.92137e-05
5.75898e-05
5.7099e-05
5.5857e-05
5.53151e-05
5.38363e-05
5.30548e-05
5.2881e-05
5.38737e-05
5.81788e-05
6.18174e-05
6.33e-05
6.40391e-05
6.49052e-05
6.87069e-05
7.21067e-05
7.5172e-05
9.23777e-05
0.000121537
0.000127582
0.000119243
0.000101426
8.96922e-05
8.05071e-05
7.32374e-05
6.70096e-05
6.08938e-05
5.55456e-05
5.42012e-05
5.21481e-05
5.75315e-05
5.87407e-05
6.14546e-05
6.01331e-05
5.93241e-05
5.65472e-05
5.56509e-05
5.43244e-05
5.47039e-05
5.4355e-05
5.42306e-05
5.17183e-05
4.95799e-05
4.73271e-05
4.63625e-05
4.53548e-05
4.49937e-05
4.48104e-05
4.70877e-05
5.10336e-05
6.64335e-05
7.94797e-05
9.65688e-05
9.70802e-05
9.72431e-05
8.82922e-05
7.52164e-05
6.25548e-05
5.15184e-05
4.61451e-05
4.03191e-05
3.93573e-05
3.68248e-05
3.80089e-05
3.70778e-05
4.1071e-05
3.99006e-05
4.36206e-05
4.19693e-05
4.56583e-05
4.33914e-05
4.99021e-05
5.09661e-05
6.33524e-05
6.75306e-05
8.0071e-05
8.29407e-05
9.04405e-05
9.2002e-05
9.21173e-05
3.57327e-06
3.6253e-06
3.67772e-06
3.66637e-06
3.59389e-06
3.50309e-06
3.43632e-06
3.41821e-06
3.3928e-06
3.35429e-06
3.32853e-06
3.28886e-06
3.27962e-06
3.28744e-06
3.33602e-06
3.40083e-06
3.51539e-06
3.59075e-06
3.73027e-06
3.91107e-06
4.17284e-06
4.60239e-06
5.10469e-06
6.32715e-06
7.96102e-06
8.82605e-06
9.78367e-06
1.09507e-05
1.13136e-05
1.10832e-05
1.05223e-05
1.10971e-05
1.30823e-05
1.37127e-05
1.37141e-05
1.35373e-05
1.25204e-05
1.10849e-05
9.65609e-06
8.50367e-06
7.76146e-06
7.38817e-06
7.47912e-06
7.89164e-06
8.76704e-06
1.05476e-05
1.24254e-05
1.48059e-05
1.83539e-05
2.05102e-05
2.52531e-05
2.88391e-05
3.4792e-05
3.99332e-05
4.571e-05
5.18325e-05
5.69683e-05
6.62094e-05
7.39148e-05
8.5243e-05
9.7801e-05
0.000112219
0.000131488
0.000143863
0.000154342
0.000159132
0.00016054
0.000161676
0.000161701
0.000161653
0.000161559
0.000161249
0.000160786
0.00015984
0.0001585
0.000155272
0.00015147
0.00014579
0.000137406
0.000130245
0.000122679
0.000113823
0.000106506
0.000103025
9.99588e-05
9.62519e-05
9.27441e-05
8.91024e-05
8.66013e-05
8.53523e-05
8.52675e-05
8.58034e-05
8.80322e-05
8.9415e-05
8.92675e-05
8.86997e-05
8.72546e-05
8.40844e-05
8.32463e-05
8.11222e-05
7.85008e-05
7.8606e-05
8.10329e-05
8.825e-05
9.51512e-05
0.000111105
0.000157216
0.00016281
0.00015251
0.000131111
0.000113929
0.000101591
9.21173e-05
8.34555e-05
7.44446e-05
6.80083e-05
6.35681e-05
5.99169e-05
5.84005e-05
5.91237e-05
5.87521e-05
5.96113e-05
6.01628e-05
6.00674e-05
6.14224e-05
6.23373e-05
6.26801e-05
6.3507e-05
6.38933e-05
6.41447e-05
6.36514e-05
6.3387e-05
6.38983e-05
6.54602e-05
7.20448e-05
7.34473e-05
7.75014e-05
0.000107561
0.000123731
0.00012465
0.000112238
9.55182e-05
8.38411e-05
7.40331e-05
6.63287e-05
6.06383e-05
5.79429e-05
5.4729e-05
5.48003e-05
5.34408e-05
6.0079e-05
6.06535e-05
6.34199e-05
6.1404e-05
6.14414e-05
5.94762e-05
5.93852e-05
5.89192e-05
5.92868e-05
5.84343e-05
5.77136e-05
5.42577e-05
5.26765e-05
4.97048e-05
4.91604e-05
4.80338e-05
4.825e-05
4.82061e-05
5.24674e-05
5.7447e-05
7.28057e-05
8.3175e-05
0.0001006
0.000103527
0.000103782
9.72387e-05
8.36918e-05
6.69755e-05
5.44538e-05
4.59269e-05
4.08908e-05
3.9044e-05
3.57642e-05
3.51115e-05
3.40546e-05
3.50634e-05
3.44061e-05
3.59234e-05
3.51363e-05
3.69992e-05
3.68134e-05
4.13506e-05
4.17188e-05
4.93612e-05
5.21386e-05
6.33126e-05
6.98383e-05
7.96147e-05
8.7388e-05
8.88057e-05
2.41564e-06
2.43137e-06
2.46966e-06
2.51086e-06
2.54105e-06
2.55776e-06
2.55532e-06
2.5567e-06
2.55623e-06
2.56197e-06
2.58389e-06
2.60468e-06
2.61071e-06
2.60589e-06
2.60567e-06
2.60353e-06
2.60482e-06
2.63871e-06
2.67401e-06
2.73573e-06
2.85292e-06
3.03523e-06
3.14155e-06
3.37012e-06
3.67792e-06
3.81963e-06
3.97236e-06
4.27417e-06
4.43137e-06
4.43282e-06
4.40194e-06
4.63039e-06
5.5245e-06
5.93275e-06
6.09887e-06
6.25794e-06
6.42282e-06
6.44862e-06
6.49901e-06
6.75916e-06
7.37242e-06
8.6192e-06
1.10711e-05
1.35615e-05
1.63519e-05
2.02825e-05
2.33329e-05
2.67119e-05
3.30584e-05
3.64599e-05
4.2791e-05
4.77036e-05
5.63577e-05
6.24237e-05
6.94272e-05
7.63103e-05
8.63076e-05
9.8497e-05
0.000111184
0.000131692
0.000153021
0.000167907
0.000174667
0.000174667
0.0001737
0.000171945
0.000169963
0.000169404
0.000168018
0.000167908
0.000167559
0.000167352
0.000167526
0.000166978
0.00016684
0.000166199
0.000164043
0.000161589
0.000156036
0.000149778
0.000142194
0.000132391
0.00012537
0.000118958
0.000112183
0.00010649
0.000101678
9.87269e-05
9.77622e-05
9.77191e-05
9.87645e-05
0.000101528
0.000101029
9.93442e-05
9.65156e-05
9.31036e-05
8.90857e-05
8.44983e-05
8.11213e-05
7.98141e-05
8.08112e-05
8.54103e-05
8.80815e-05
9.26724e-05
0.000100383
0.000138747
0.000167042
0.00016439
0.000150028
0.000130093
0.00011466
0.000104178
9.56156e-05
8.34041e-05
7.2906e-05
6.5906e-05
6.17568e-05
5.87326e-05
5.80094e-05
5.83586e-05
5.81255e-05
6.09163e-05
6.07237e-05
6.16523e-05
6.3076e-05
6.36115e-05
6.53121e-05
6.49242e-05
6.42715e-05
6.3648e-05
6.25364e-05
6.26516e-05
6.44097e-05
6.74319e-05
7.31369e-05
7.57082e-05
9.78043e-05
0.000125913
0.000126992
0.000121733
0.000107702
9.16359e-05
8.01881e-05
6.9272e-05
6.26582e-05
5.81894e-05
5.76174e-05
5.57123e-05
5.94883e-05
5.87851e-05
6.62707e-05
6.53862e-05
6.72395e-05
6.50969e-05
6.48735e-05
6.39457e-05
6.37856e-05
6.42855e-05
6.43414e-05
6.35083e-05
6.23918e-05
5.84697e-05
5.6066e-05
5.37336e-05
5.2513e-05
5.24206e-05
5.25961e-05
5.35213e-05
6.03301e-05
6.6551e-05
8.63193e-05
9.89644e-05
0.000110598
0.000110185
0.000108842
9.92286e-05
8.59805e-05
6.69787e-05
5.73625e-05
4.66754e-05
4.18809e-05
3.74074e-05
3.63843e-05
3.47239e-05
3.43877e-05
3.37707e-05
3.39494e-05
3.39375e-05
3.39478e-05
3.60967e-05
3.6118e-05
3.78562e-05
3.84554e-05
4.27521e-05
4.43997e-05
5.13392e-05
5.53286e-05
6.31517e-05
7.45318e-05
7.97468e-05
2.48854e-06
2.49813e-06
2.53629e-06
2.57305e-06
2.57543e-06
2.57709e-06
2.58592e-06
2.60724e-06
2.65082e-06
2.69896e-06
2.77501e-06
2.8501e-06
2.91615e-06
2.94676e-06
2.96524e-06
2.96056e-06
2.95109e-06
2.95619e-06
3.01623e-06
3.08088e-06
3.10943e-06
3.12909e-06
3.13528e-06
3.08895e-06
3.03966e-06
3.03606e-06
3.04189e-06
3.06486e-06
3.14571e-06
3.24871e-06
3.41249e-06
3.8462e-06
4.2494e-06
4.72434e-06
5.30316e-06
5.78709e-06
6.53335e-06
7.8909e-06
9.2083e-06
1.19208e-05
1.45301e-05
1.82579e-05
2.29105e-05
2.60339e-05
3.21105e-05
3.59753e-05
4.13026e-05
4.75897e-05
5.5893e-05
6.05718e-05
6.79086e-05
7.68533e-05
8.43579e-05
9.29677e-05
9.91353e-05