/*--------------------------------*- C++ -*----------------------------------*\
| =========                 |                                                 |
| \\      /  F ield         | OpenFOAM: The Open Source CFD Toolbox           |
|  \\    /   O peration     | Version:  2.4.0                                 |
|   \\  /    A nd           | Web:      www.OpenFOAM.org                      |
|    \\/     M anipulation  |                                                 |
\*---------------------------------------------------------------------------*/
FoamFile
{
    version     2.0;
    format      ascii;
    class       surfaceScalarField;
    location    "0.22";
    object      phi;
}
// * * * * * * * * * * * * * * * * * * * * * * * * * * * * * * * * * * * * * //

dimensions      [0 3 -1 0 0 0 0];

internalField   nonuniform List<scalar> 
17320
(
1.76339e-05
7.36615e-06
1.16146e-05
6.01928e-06
8.68555e-06
2.92902e-06
7.35313e-06
1.33242e-06
6.72204e-06
6.31088e-07
6.33974e-06
3.82299e-07
6.0778e-06
2.61945e-07
5.87055e-06
2.07254e-07
5.71512e-06
1.55426e-07
5.56773e-06
1.47391e-07
5.49344e-06
7.42879e-08
5.38559e-06
1.07852e-07
5.29896e-06
8.66267e-08
5.22472e-06
7.42409e-08
5.15379e-06
7.09331e-08
5.01447e-06
1.39321e-07
4.97141e-06
4.30602e-08
4.84528e-06
1.26129e-07
4.63764e-06
2.07632e-07
-2.42912e-07
4.88056e-06
2.54512e-05
6.91492e-06
2.32455e-05
8.22499e-06
2.09893e-05
5.18524e-06
1.93174e-05
3.00428e-06
1.80798e-05
1.86873e-06
1.71069e-05
1.35515e-06
1.63679e-05
1.00101e-06
1.57749e-05
8.00252e-07
1.53132e-05
6.1707e-07
1.49235e-05
5.371e-07
1.46517e-05
3.46161e-07
1.43641e-05
3.95385e-07
1.41494e-05
3.01314e-07
1.39351e-05
2.88625e-07
1.37498e-05
2.5616e-07
1.34868e-05
4.0239e-07
1.33405e-05
1.8937e-07
1.30404e-05
4.26157e-07
1.28064e-05
4.41668e-07
-6.60727e-08
1.26295e-05
2.66062e-05
5.3087e-06
2.71587e-05
7.67252e-06
2.6776e-05
5.56789e-06
2.625e-05
3.5303e-06
2.56091e-05
2.50967e-06
2.48659e-05
2.09832e-06
2.41624e-05
1.70453e-06
2.35044e-05
1.45827e-06
2.29353e-05
1.18618e-06
2.24367e-05
1.0357e-06
2.20577e-05
7.25161e-07
2.16589e-05
7.94132e-07
2.1367e-05
5.9319e-07
2.10712e-05
5.84511e-07
2.08109e-05
5.16438e-07
2.04898e-05
7.23447e-07
2.02892e-05
3.90009e-07
1.98835e-05
8.31812e-07
1.96709e-05
6.54296e-07
5.46427e-07
1.90584e-05
2.63059e-05
4.00284e-06
2.75518e-05
6.42656e-06
2.80779e-05
5.0418e-06
2.84518e-05
3.15636e-06
2.86567e-05
2.30477e-06
2.86161e-05
2.13892e-06
2.8478e-05
1.84264e-06
2.82319e-05
1.70444e-06
2.79685e-05
1.4495e-06
2.76747e-05
1.32953e-06
2.74617e-05
9.38123e-07
2.71455e-05
1.1104e-06
2.69292e-05
8.09438e-07
2.66803e-05
8.33422e-07
2.64446e-05
7.52179e-07
2.615e-05
1.018e-06
2.59731e-05
5.66896e-07
2.55528e-05
1.25214e-06
2.51623e-05
1.04479e-06
1.45397e-06
2.42548e-05
2.60221e-05
2.98076e-06
2.72501e-05
5.19854e-06
2.80479e-05
4.24399e-06
2.85023e-05
2.70199e-06
2.90018e-05
1.8052e-06
2.93323e-05
1.80846e-06
2.95839e-05
1.59106e-06
2.97321e-05
1.55618e-06
2.98533e-05
1.32833e-06
2.9874e-05
1.30885e-06
2.99839e-05
8.28228e-07
2.99523e-05
1.142e-06
2.99557e-05
8.05979e-07
2.99435e-05
8.45666e-07
2.98872e-05
8.08516e-07
2.98046e-05
1.10059e-06
2.96991e-05
6.72317e-07
2.96373e-05
1.31401e-06
2.97072e-05
9.7488e-07
1.03942e-06
3.01217e-05
2.58196e-05
2.16118e-06
2.69454e-05
4.07272e-06
2.78321e-05
3.35726e-06
2.82391e-05
2.29502e-06
2.87324e-05
1.31195e-06
2.91302e-05
1.41066e-06
2.94473e-05
1.27396e-06
2.97213e-05
1.2821e-06
2.99891e-05
1.06054e-06
3.0137e-05
1.16103e-06
3.0388e-05
5.7715e-07
3.05684e-05
9.61653e-07
3.06858e-05
6.88582e-07
3.08643e-05
6.67175e-07
3.09846e-05
6.88243e-07
3.11201e-05
9.65013e-07
3.11635e-05
6.28901e-07
3.13985e-05
1.07904e-06
3.16221e-05
7.51269e-07
4.08623e-07
3.22529e-05
2.56617e-05
1.49949e-06
2.67357e-05
2.99876e-06
2.76173e-05
2.47559e-06
2.80528e-05
1.85952e-06
2.84855e-05
8.79283e-07
2.88735e-05
1.02263e-06
2.91682e-05
9.79266e-07
2.95165e-05
9.338e-07
2.97844e-05
7.926e-07
2.99524e-05
9.93064e-07
3.01853e-05
3.44281e-07
3.04583e-05
6.8868e-07
3.05809e-05
5.65902e-07
3.07823e-05
4.65809e-07
3.09912e-05
4.79392e-07
3.12086e-05
7.47529e-07
3.13205e-05
5.17053e-07
3.16273e-05
7.72265e-07
3.19855e-05
3.93026e-07
-1.34622e-08
3.24076e-05
2.55479e-05
9.51571e-07
2.65741e-05
1.97253e-06
2.74254e-05
1.62434e-06
2.80174e-05
1.2675e-06
2.83606e-05
5.36109e-07
2.86889e-05
6.94311e-07
2.89544e-05
7.13788e-07
2.93391e-05
5.49117e-07
2.96029e-05
5.28764e-07
2.98125e-05
7.83511e-07
3.00168e-05
1.39891e-07
3.02962e-05
4.0935e-07
3.03837e-05
4.78407e-07
3.06121e-05
2.37417e-07
3.08544e-05
2.37056e-07
3.10799e-05
5.22077e-07
3.11448e-05
4.52094e-07
3.15363e-05
3.80776e-07
3.18726e-05
5.67274e-08
-4.97231e-08
3.19089e-05
2.54599e-05
4.91628e-07
2.64533e-05
9.79181e-07
2.73399e-05
7.37704e-07
2.79628e-05
6.44665e-07
2.82433e-05
2.55626e-07
2.85757e-05
3.61848e-07
2.88547e-05
4.34764e-07
2.91889e-05
2.1492e-07
2.94789e-05
2.38791e-07
2.97582e-05
5.04192e-07
2.99413e-05
-4.31877e-08
3.01751e-05
1.75604e-07
3.03077e-05
3.45754e-07
3.05189e-05
2.62252e-08
3.0711e-05
4.50024e-08
3.09272e-05
3.05785e-07
3.11116e-05
2.67735e-07
3.14742e-05
1.81461e-08
3.16339e-05
-1.02945e-07
-1.08662e-07
3.16928e-05
2.54223e-05
6.92937e-08
2.6425e-05
-2.3502e-08
2.72862e-05
-1.2351e-07
2.78744e-05
5.64671e-08
2.81694e-05
-3.93575e-08
2.85523e-05
-2.0992e-08
2.88479e-05
1.3915e-07
2.91224e-05
-5.95906e-08
2.94051e-05
-4.39399e-08
2.97241e-05
1.85165e-07
2.99048e-05
-2.23869e-07
3.01259e-05
-4.55114e-08
3.03165e-05
1.55151e-07
3.04323e-05
-8.95807e-08
3.05841e-05
-1.06776e-07
3.08919e-05
-1.97529e-09
3.11547e-05
4.86523e-09
3.13446e-05
-1.71681e-07
3.14648e-05
-2.23191e-07
-3.87397e-07
3.17436e-05
2.54238e-05
-3.54494e-07
2.64506e-05
-1.05033e-06
2.72753e-05
-9.48168e-07
2.78608e-05
-5.29076e-07
2.82023e-05
-3.80834e-07
2.85333e-05
-3.52023e-07
2.88466e-05
-1.74088e-07
2.91202e-05
-3.33222e-07
2.93783e-05
-3.02041e-07
2.97433e-05
-1.79797e-07
2.98812e-05
-3.61811e-07
3.01218e-05
-2.8614e-07
3.03239e-05
-4.69111e-08
3.04042e-05
-1.69925e-07
3.05929e-05
-2.95479e-07
3.09414e-05
-3.50418e-07
3.11338e-05
-1.87528e-07
3.12527e-05
-2.90606e-07
3.15459e-05
-5.16436e-07
-6.63462e-07
3.1822e-05
2.54641e-05
-8.18566e-07
2.65261e-05
-2.11237e-06
2.73224e-05
-1.74442e-06
2.79153e-05
-1.12197e-06
2.82526e-05
-7.18221e-07
2.85313e-05
-6.30636e-07
2.88761e-05
-5.18937e-07
2.91893e-05
-6.46455e-07
2.94505e-05
-5.63195e-07
2.98377e-05
-5.66966e-07
2.99283e-05
-4.52403e-07
3.01111e-05
-4.68978e-07
3.0366e-05
-3.01809e-07
3.05147e-05
-3.18639e-07
3.06846e-05
-4.6536e-07
3.09636e-05
-6.29439e-07
3.11006e-05
-3.2454e-07
3.13592e-05
-5.49233e-07
3.16923e-05
-8.49536e-07
-7.79945e-07
3.18088e-05
2.55464e-05
-1.36497e-06
2.66171e-05
-3.18302e-06
2.74248e-05
-2.55213e-06
2.80012e-05
-1.69838e-06
2.83462e-05
-1.06323e-06
2.86215e-05
-9.05996e-07
2.89683e-05
-8.65655e-07
2.93548e-05
-1.03297e-06
2.96118e-05
-8.20179e-07
2.9906e-05
-8.6122e-07
3.00192e-05
-5.65551e-07
3.02139e-05
-6.6375e-07
3.04204e-05
-5.08273e-07
3.06617e-05
-5.5997e-07
3.08123e-05
-6.15933e-07
3.09727e-05
-7.89865e-07
3.1207e-05
-5.58828e-07
3.15758e-05
-9.18004e-07
3.17592e-05
-1.03292e-06
-8.97146e-07
3.18764e-05
2.56804e-05
-2.04536e-06
2.67615e-05
-4.26412e-06
2.75888e-05
-3.37938e-06
2.80479e-05
-2.15757e-06
2.84794e-05
-1.49467e-06
2.88156e-05
-1.24221e-06
2.91857e-05
-1.23574e-06
2.95567e-05
-1.40398e-06
2.97626e-05
-1.02605e-06
2.9963e-05
-1.06161e-06
3.02118e-05
-8.14428e-07
3.04289e-05
-8.80806e-07
3.05409e-05
-6.20328e-07
3.08224e-05
-8.41411e-07
3.09716e-05
-7.65127e-07
3.11155e-05
-9.33815e-07
3.13474e-05
-7.90656e-07
3.17014e-05
-1.2721e-06
3.18732e-05
-1.20466e-06
-1.17086e-06
3.21469e-05
2.58633e-05
-2.90867e-06
2.69615e-05
-5.36228e-06
2.77784e-05
-4.19629e-06
2.82211e-05
-2.60029e-06
2.8711e-05
-1.98453e-06
2.9099e-05
-1.63025e-06
2.94708e-05
-1.60756e-06
2.97465e-05
-1.67968e-06
2.99629e-05
-1.24246e-06
3.01495e-05
-1.24819e-06
3.03942e-05
-1.05916e-06
3.0539e-05
-1.02558e-06
3.06762e-05
-7.5751e-07
3.08581e-05
-1.0233e-06
3.09696e-05
-8.76607e-07
3.10657e-05
-1.02998e-06
3.11926e-05
-9.1749e-07
3.14082e-05
-1.48777e-06
3.1513e-05
-1.30942e-06
-1.447e-06
3.17891e-05
2.60593e-05
-3.96801e-06
2.72183e-05
-6.52122e-06
2.80126e-05
-4.99061e-06
2.8516e-05
-3.10371e-06
2.89747e-05
-2.44325e-06
2.93327e-05
-1.98821e-06
2.96045e-05
-1.87942e-06
2.97229e-05
-1.79805e-06
2.98493e-05
-1.3688e-06
2.98942e-05
-1.29309e-06
2.99524e-05
-1.11743e-06
2.9932e-05
-1.0051e-06
2.99563e-05
-7.81857e-07
2.9907e-05
-9.74033e-07
2.98589e-05
-8.28424e-07
2.97649e-05
-9.36056e-07
2.96915e-05
-8.44032e-07
2.95957e-05
-1.39198e-06
2.9477e-05
-1.19076e-06
-1.51436e-06
2.95444e-05
2.63236e-05
-5.29158e-06
2.75208e-05
-7.71844e-06
2.80753e-05
-5.54511e-06
2.84677e-05
-3.49616e-06
2.86206e-05
-2.59613e-06
2.86379e-05
-2.00553e-06
2.84816e-05
-1.72311e-06
2.82093e-05
-1.5257e-06
2.79773e-05
-1.1368e-06
2.76853e-05
-1.00113e-06
2.74151e-05
-8.47226e-07
2.71461e-05
-7.36084e-07
2.69262e-05
-5.61967e-07
2.66362e-05
-6.83986e-07
2.63979e-05
-5.9016e-07
2.61212e-05
-6.5936e-07
2.58736e-05
-5.96388e-07
2.54989e-05
-1.01727e-06
2.52336e-05
-9.25487e-07
-1.34991e-06
2.50691e-05
2.66156e-05
-6.90717e-06
2.71424e-05
-8.24529e-06
2.67786e-05
-5.18122e-06
2.62587e-05
-2.97628e-06
2.55816e-05
-1.91908e-06
2.48872e-05
-1.3111e-06
2.4162e-05
-9.97881e-07
2.34842e-05
-8.47967e-07
2.29413e-05
-5.93894e-07
2.2442e-05
-5.01792e-07
2.20195e-05
-4.24755e-07
2.16563e-05
-3.7283e-07
2.13598e-05
-2.65542e-07
2.10294e-05
-3.53533e-07
2.07539e-05
-3.14688e-07
2.04484e-05
-3.53811e-07
2.01726e-05
-3.20612e-07
1.97196e-05
-5.64281e-07
1.93281e-05
-5.33993e-07
-4.83003e-07
1.84612e-05
2.54565e-05
-7.36371e-06
2.32361e-05
-6.02482e-06
2.09866e-05
-2.93174e-06
1.93265e-05
-1.31614e-06
1.8061e-05
-6.5364e-07
1.7119e-05
-3.69078e-07
1.6372e-05
-2.5087e-07
1.57578e-05
-2.33815e-07
1.53119e-05
-1.48023e-07
1.49337e-05
-1.23516e-07
1.46209e-05
-1.11977e-07
1.4353e-05
-1.0496e-07
1.41468e-05
-5.93327e-08
1.38999e-05
-1.0665e-07
1.36852e-05
-9.99067e-08
1.3445e-05
-1.13668e-07
1.32199e-05
-9.54921e-08
1.28527e-05
-1.97044e-07
1.25536e-05
-2.34986e-07
-7.78144e-08
1.21485e-05
1.76363e-05
1.16115e-05
8.67973e-06
7.36359e-06
6.70995e-06
6.34087e-06
6.09e-06
5.85619e-06
5.70816e-06
5.58465e-06
5.47267e-06
5.36771e-06
5.30838e-06
5.20173e-06
5.10182e-06
4.98815e-06
4.89266e-06
4.69562e-06
4.46063e-06
4.38282e-06
5.34084e-06
1.23619e-07
-5.839e-07
5.8197e-06
4.47329e-07
-9.26193e-07
6.35202e-06
4.5311e-07
-9.85428e-07
6.98239e-06
4.79672e-07
-1.11004e-06
7.66858e-06
4.74207e-07
-1.1604e-06
8.3105e-06
5.1648e-07
-1.15841e-06
8.95064e-06
3.48637e-07
-9.88771e-07
9.58979e-06
6.00118e-08
-6.99164e-07
1.00166e-05
-4.91903e-07
6.50696e-08
1.01916e-05
-1.18991e-06
1.01489e-06
1.01382e-05
-1.9882e-06
2.04169e-06
9.84285e-06
-2.66951e-06
2.96481e-06
9.38877e-06
-3.1396e-06
3.59369e-06
9.11266e-06
-3.45804e-06
3.73414e-06
8.94694e-06
-3.57501e-06
3.74073e-06
8.28981e-06
-3.02806e-06
3.68519e-06
7.15254e-06
-2.00378e-06
3.14105e-06
6.18597e-06
-1.08389e-06
2.05046e-06
6.54764e-06
-4.14876e-07
5.32091e-08
7.96144e-06
6.74751e-07
-2.08855e-06
9.47407e-06
1.43593e-06
-2.94856e-06
1.09702e-05
2.25529e-06
-3.75142e-06
1.24304e-05
3.47145e-06
-4.9317e-06
1.36145e-05
4.33438e-06
-5.51841e-06
1.46449e-05
5.12086e-06
-6.15129e-06
1.55472e-05
5.6231e-06
-6.52537e-06
1.65115e-05
5.92848e-06
-6.89278e-06
1.74325e-05
5.91404e-06
-6.83509e-06
1.84315e-05
5.3697e-06
-6.36871e-06
1.93904e-05
4.55156e-06
-5.51041e-06
2.02246e-05
3.59837e-06
-4.43253e-06
2.08965e-05
2.24181e-06
-2.91377e-06
2.14278e-05
7.59593e-07
-1.29083e-06
2.18492e-05
-5.45184e-07
1.23771e-07
2.21199e-05
-1.94659e-06
1.67582e-06
2.22976e-05
-3.55866e-06
3.38099e-06
2.20768e-05
-4.72643e-06
4.94721e-06
2.13358e-05
-5.6096e-06
6.35062e-06
2.04832e-05
-6.1712e-06
7.02379e-06
1.97629e-05
-5.98001e-06
6.70037e-06
1.93169e-05
-5.76156e-06
6.20753e-06
1.93013e-05
-5.74248e-06
5.75809e-06
1.96825e-05
-5.78385e-06
5.40259e-06
2.0371e-05
-6.16388e-06
5.47538e-06
2.12776e-05
-6.32149e-06
5.41496e-06
2.21978e-05
-6.37481e-06
5.45455e-06
2.31014e-05
-6.69234e-06
5.78876e-06
2.41173e-05
-6.74768e-06
5.73183e-06
2.51062e-05
-6.79532e-06
5.80635e-06
2.59263e-05
-6.85448e-06
6.0344e-06
2.67389e-05
-6.6651e-06
5.85252e-06
2.75856e-05
-6.60068e-06
5.75397e-06
2.83806e-05
-6.46762e-06
5.6726e-06
2.91596e-05
-6.26469e-06
5.48572e-06
2.99719e-05
-5.91437e-06
5.1021e-06
3.08232e-05
-5.69789e-06
4.84657e-06
3.15542e-05
-5.57543e-06
4.84445e-06
3.23344e-05
-5.15837e-06
4.37817e-06
3.31414e-05
-5.07454e-06
4.26752e-06
3.38651e-05
-5.03734e-06
4.31361e-06
3.46262e-05
-4.76147e-06
4.00042e-06
3.53004e-05
-4.85312e-06
4.17887e-06
3.59228e-05
-4.82104e-06
4.19871e-06
3.65556e-05
-4.70061e-06
4.06778e-06
3.70731e-05
-4.69385e-06
4.17628e-06
3.76045e-05
-4.64765e-06
4.11631e-06
3.80013e-05
-4.56547e-06
4.16863e-06
3.82983e-05
-4.35782e-06
4.06081e-06
3.87222e-05
-4.38604e-06
3.9622e-06
3.89706e-05
-4.3647e-06
4.1163e-06
3.90365e-05
-4.29266e-06
4.22675e-06
3.91702e-05
-4.20941e-06
4.07567e-06
3.91715e-05
-4.12386e-06
4.12253e-06
3.90467e-05
-4.15866e-06
4.2835e-06
3.89563e-05
-4.17036e-06
4.26074e-06
3.86443e-05
-4.39316e-06
4.70522e-06
3.82369e-05
-4.64993e-06
5.05729e-06
3.76645e-05
-4.75682e-06
5.32925e-06
3.68329e-05
-5.33485e-06
6.1664e-06
3.58851e-05
-5.71209e-06
6.65989e-06
3.46645e-05
-5.99883e-06
7.21942e-06
3.31482e-05
-6.76167e-06
8.27799e-06
3.15206e-05
-6.97456e-06
8.60221e-06
2.96797e-05
-7.0942e-06
8.93502e-06
2.78435e-05
-7.48394e-06
9.32019e-06
2.62581e-05
-7.32976e-06
8.91511e-06
2.48349e-05
-7.08701e-06
8.51023e-06
2.36686e-05
-7.46023e-06
8.62652e-06
2.28373e-05
-7.00941e-06
7.84075e-06
2.2213e-05
-6.49757e-06
7.12186e-06
2.16926e-05
-6.64818e-06
7.16856e-06
2.13335e-05
-6.25658e-06
6.61572e-06
2.10939e-05
-5.61574e-06
5.85538e-06
2.08785e-05
-6.01923e-06
6.23461e-06
2.05604e-05
-5.79024e-06
6.10834e-06
2.02515e-05
-4.48069e-06
4.78962e-06
2.00485e-05
-4.38762e-06
4.59059e-06
1.95431e-05
-4.58459e-06
5.09002e-06
1.90036e-05
-3.60287e-06
4.14231e-06
1.90434e-05
-3.15387e-06
3.11411e-06
1.92476e-05
-4.07388e-06
3.86967e-06
1.86459e-05
-3.78807e-06
4.38973e-06
1.80146e-05
-2.75406e-06
3.3854e-06
1.81211e-05
-3.01429e-06
2.90778e-06
1.82496e-05
-4.2796e-06
4.15107e-06
1.76546e-05
-4.50692e-06
5.10191e-06
1.74429e-05
-4.88499e-06
5.09672e-06
1.79649e-05
-6.01532e-06
5.49333e-06
1.88918e-05
-7.35153e-06
6.42462e-06
1.93428e-05
-8.14683e-06
7.69583e-06
1.97287e-05
-8.7897e-06
8.40375e-06
2.0472e-05
-9.62557e-06
8.88234e-06
2.18586e-05
-1.04616e-05
9.07494e-06
2.36482e-05
-1.14005e-05
9.61092e-06
2.54673e-05
-1.17911e-05
9.972e-06
2.70617e-05
-1.18566e-05
1.02621e-05
2.82066e-05
-1.11644e-05
1.00194e-05
2.89848e-05
-1.03496e-05
9.57139e-06
2.93126e-05
-9.10697e-06
8.77919e-06
2.9591e-05
-8.09745e-06
7.81912e-06
2.96632e-05
-6.60424e-06
6.53194e-06
2.95964e-05
-5.19654e-06
5.26344e-06
2.93938e-05
-4.01544e-06
4.21798e-06
2.93616e-05
-2.39519e-06
2.42736e-06
2.95568e-05
-8.45206e-07
6.5009e-07
2.98259e-05
2.96631e-07
-5.65804e-07
2.96381e-05
1.9645e-06
-1.77662e-06
2.94301e-05
3.88017e-06
-3.67225e-06
2.94041e-05
5.26156e-06
-5.23551e-06
2.91984e-05
6.06078e-06
-5.85513e-06
2.84477e-05
7.43037e-06
-6.67967e-06
2.75045e-05
9.16383e-06
-8.22055e-06
2.63502e-05
1.04656e-05
-9.31134e-06
2.49496e-05
1.16616e-05
-1.02611e-05
2.34379e-05
1.33293e-05
-1.18175e-05
2.21825e-05
1.39699e-05
-1.27145e-05
2.09662e-05
1.424e-05
-1.30237e-05
1.92374e-05
1.60119e-05
-1.42831e-05
1.75032e-05
1.96669e-05
-1.79327e-05
1.63404e-05
2.23146e-05
-2.11518e-05
1.58534e-05
2.08404e-05
-2.03535e-05
1.54112e-05
1.70587e-05
-1.66165e-05
1.43303e-05
1.48149e-05
-1.37339e-05
1.31003e-05
1.56007e-05
-1.43707e-05
1.19475e-05
1.85459e-05
-1.73931e-05
1.11268e-05
2.20154e-05
-2.11946e-05
1.0866e-05
2.46044e-05
-2.43436e-05
1.09109e-05
2.61345e-05
-2.61795e-05
1.13321e-05
2.60733e-05
-2.64945e-05
1.20763e-05
2.47559e-05
-2.55001e-05
1.28285e-05
2.26486e-05
-2.34007e-05
1.31301e-05
2.08461e-05
-2.11477e-05
1.40414e-05
1.6963e-05
-1.78743e-05
1.39721e-05
1.5187e-05
-1.51177e-05
1.47311e-05
8.97167e-06
-9.73065e-06
1.47185e-05
9.02739e-06
-9.01479e-06
1.57915e-05
3.9501e-06
-5.02311e-06
1.57845e-05
6.64143e-06
-6.63444e-06
1.67919e-05
1.30338e-06
-2.3108e-06
1.65136e-05
4.63003e-06
-4.35174e-06
1.74078e-05
-1.58932e-06
6.95172e-07
1.72398e-05
1.67257e-06
-1.50461e-06
1.81828e-05
-5.14214e-06
4.19917e-06
1.76555e-05
-1.93522e-06
2.46254e-06
1.81779e-05
-8.38605e-06
7.86362e-06
1.71453e-05
-4.77872e-06
5.81131e-06
1.72684e-05
-1.10498e-05
1.09268e-05
1.58337e-05
-8.14459e-06
9.57923e-06
1.57464e-05
-1.39485e-05
1.40358e-05
1.4711e-05
-1.2073e-05
1.31084e-05
1.51035e-05
-1.50712e-05
1.46787e-05
1.492e-05
-1.39087e-05
1.40921e-05
1.53926e-05
-1.36623e-05
1.31897e-05
1.52706e-05
-1.1422e-05
1.1544e-05
1.52429e-05
-9.71059e-06
9.73821e-06
1.5678e-05
-8.86148e-06
8.42639e-06
1.54093e-05
-7.36819e-06
7.6369e-06
1.6361e-05
-6.1619e-06
5.21018e-06
1.64202e-05
-3.76894e-06
3.70979e-06
1.74248e-05
-1.99281e-06
9.88175e-07
1.72788e-05
-9.35104e-08
2.39546e-07
1.85846e-05
3.14962e-07
-1.62084e-06
1.87536e-05
2.17782e-06
-2.34678e-06
1.97887e-05
3.07811e-06
-4.11321e-06
1.94057e-05
5.18893e-06
-4.80589e-06
1.99269e-05
5.31071e-06
-5.83198e-06
1.92007e-05
5.97979e-06
-5.25351e-06
1.93429e-05
4.65204e-06
-4.79426e-06
1.89402e-05
4.19071e-06
-3.78804e-06
1.95212e-05
4.70959e-06
-5.29063e-06
1.87851e-05
6.70224e-06
-5.96608e-06
1.82031e-05
6.94118e-06
-6.35923e-06
1.8011e-05
7.4544e-06
-7.26224e-06
1.72562e-05
8.53401e-06
-7.77925e-06
1.74421e-05
1.01297e-05
-1.03157e-05
1.63352e-05
1.26544e-05
-1.15475e-05
1.59479e-05
1.45859e-05
-1.41986e-05
1.39544e-05
1.87343e-05
-1.67407e-05
1.44967e-05
2.00682e-05
-2.06105e-05
3.16652e-05
-3.18406e-05
1.46721e-05
1.27248e-05
2.83616e-08
1.29738e-05
1.98383e-07
1.32164e-05
2.1051e-07
1.35298e-05
1.66197e-07
1.39162e-05
8.78415e-08
1.4426e-05
6.63153e-09
1.49123e-05
-1.37588e-07
1.53815e-05
-4.09241e-07
1.57283e-05
-8.38657e-07
1.59305e-05
-1.39211e-06
1.59694e-05
-2.0271e-06
1.58315e-05
-2.53168e-06
1.55767e-05
-2.88476e-06
1.51288e-05
-3.01015e-06
1.44164e-05
-2.8626e-06
1.37676e-05
-2.37923e-06
1.35422e-05
-1.77842e-06
1.33157e-05
-8.57359e-07
1.28998e-05
9.66883e-10
1.27995e-05
7.75098e-07
1.27655e-05
1.46995e-06
1.30626e-05
1.95816e-06
1.4006e-05
2.52804e-06
1.51198e-05
3.22062e-06
1.63689e-05
3.87172e-06
1.77196e-05
4.27237e-06
1.904e-05
4.60811e-06
2.02792e-05
4.67485e-06
2.13759e-05
4.27303e-06
2.23062e-05
3.6212e-06
2.31405e-05
2.76406e-06
2.3722e-05
1.66034e-06
2.41402e-05
3.41384e-07
2.44018e-05
-8.06803e-07
2.43797e-05
-1.92449e-06
2.40451e-05
-3.22406e-06
2.3516e-05
-4.19727e-06
2.28304e-05
-4.92401e-06
2.22528e-05
-5.59362e-06
2.2147e-05
-5.87424e-06
2.24747e-05
-6.08919e-06
2.30992e-05
-6.36702e-06
2.39179e-05
-6.60252e-06
2.47823e-05
-7.02832e-06
2.56624e-05
-7.20153e-06
2.65695e-05
-7.28193e-06
2.74117e-05
-7.5346e-06
2.81596e-05
-7.49559e-06
2.87996e-05
-7.43527e-06
2.9346e-05
-7.40093e-06
2.99097e-05
-7.2288e-06
3.04102e-05
-7.1011e-06
3.09499e-05
-7.00741e-06
3.14888e-05
-6.80359e-06
3.20246e-05
-6.45017e-06
3.26139e-05
-6.28718e-06
3.31206e-05
-6.08212e-06
3.37112e-05
-5.7489e-06
3.43331e-05
-5.69642e-06
3.48241e-05
-5.52843e-06
3.54605e-05
-5.39782e-06
3.6044e-05
-5.4366e-06
3.655e-05
-5.32703e-06
3.70816e-05
-5.23225e-06
3.75384e-05
-5.15062e-06
3.79295e-05
-5.03876e-06
3.81981e-05
-4.83405e-06
3.85157e-05
-4.67545e-06
3.88034e-05
-4.6737e-06
3.89324e-05
-4.49376e-06
3.89922e-05
-4.35241e-06
3.89965e-05
-4.21371e-06
3.89226e-05
-4.04995e-06
3.87624e-05
-3.99851e-06
3.85027e-05
-3.91066e-06
3.80466e-05
-3.93705e-06
3.74019e-05
-4.00519e-06
3.6711e-05
-4.0659e-06
3.5776e-05
-4.39992e-06
3.45618e-05
-4.49785e-06
3.33726e-05
-4.80963e-06
3.19113e-05
-5.30043e-06
3.03294e-05
-5.39259e-06
2.88694e-05
-5.63417e-06
2.74041e-05
-6.01868e-06
2.60114e-05
-5.9371e-06
2.49603e-05
-6.03589e-06
2.40081e-05
-6.50797e-06
2.31354e-05
-6.13678e-06
2.2594e-05
-5.9562e-06
2.23185e-05
-6.37266e-06
2.20481e-05
-5.98618e-06
2.17418e-05
-5.30947e-06
2.13598e-05
-5.63715e-06
2.0803e-05
-5.23349e-06
2.05121e-05
-4.18972e-06
2.05189e-05
-4.39443e-06
2.0182e-05
-4.24774e-06
1.94724e-05
-2.8933e-06
1.90806e-05
-2.76201e-06
1.85788e-05
-3.5721e-06
1.77725e-05
-2.98174e-06
1.75244e-05
-2.50595e-06
1.77927e-05
-3.28262e-06
1.74416e-05
-3.92852e-06
1.69206e-05
-3.98591e-06
1.71435e-05
-5.10784e-06
1.7623e-05
-6.49483e-06
1.78457e-05
-7.57428e-06
1.79531e-05
-8.2542e-06
1.87516e-05
-9.58827e-06
2.01782e-05
-1.10521e-05
2.21376e-05
-1.2421e-05
2.39323e-05
-1.31951e-05
2.53565e-05
-1.32153e-05
2.63347e-05
-1.28348e-05
2.68159e-05
-1.16455e-05
2.70851e-05
-1.06188e-05
2.7074e-05
-9.09594e-06
2.69413e-05
-7.96471e-06
2.68673e-05
-6.53024e-06
2.69119e-05
-5.24113e-06
2.69326e-05
-4.0361e-06
2.72671e-05
-2.7297e-06
2.7642e-05
-1.22014e-06
2.7813e-05
1.25623e-07
2.76439e-05
2.13359e-06
2.77334e-05
3.79064e-06
2.7808e-05
5.18696e-06
2.74808e-05
6.38802e-06
2.65916e-05
8.31954e-06
2.55946e-05
1.01608e-05
2.43994e-05
1.16608e-05
2.30247e-05
1.30364e-05
2.16874e-05
1.46666e-05
2.04986e-05
1.51587e-05
1.92257e-05
1.55128e-05
1.73776e-05
1.786e-05
1.55877e-05
2.14568e-05
1.48057e-05
2.30965e-05
1.45487e-05
2.10974e-05
1.41564e-05
1.74511e-05
1.31603e-05
1.5811e-05
1.18811e-05
1.68799e-05
1.09377e-05
1.94893e-05
1.05712e-05
2.23819e-05
1.05737e-05
2.4602e-05
1.0963e-05
2.57452e-05
1.173e-05
2.53063e-05
1.24067e-05
2.40791e-05
1.36337e-05
2.14217e-05
1.38677e-05
2.0612e-05
1.49958e-05
1.58349e-05
1.5301e-05
1.48817e-05
1.63344e-05
7.93835e-06
1.64806e-05
8.88115e-06
1.74582e-05
2.9725e-06
1.73854e-05
6.71423e-06
1.84142e-05
2.74626e-07
1.80825e-05
4.96174e-06
1.89535e-05
-2.46031e-06
1.8868e-05
1.75798e-06
1.98848e-05
-6.15887e-06
1.95403e-05
-1.59075e-06
2.02742e-05
-9.11992e-06
1.93378e-05
-3.84235e-06
1.92712e-05
-1.09833e-05
1.78133e-05
-6.68663e-06
1.78288e-05
-1.39641e-05
1.655e-05
-1.07942e-05
1.68239e-05
-1.5345e-05
1.62123e-05
-1.32971e-05
1.66348e-05
-1.40847e-05
1.64899e-05
-1.12771e-05
1.66676e-05
-9.8882e-06
1.64643e-05
-8.65823e-06
1.66806e-05
-7.58451e-06
1.64459e-05
-5.92715e-06
1.66606e-05
-3.98365e-06
1.71456e-05
-2.47785e-06
1.75372e-05
-4.85106e-07
1.8066e-05
-2.13786e-07
1.8323e-05
1.92078e-06
1.87175e-05
2.68366e-06
1.89693e-05
4.93714e-06
1.89717e-05
5.30827e-06
1.94644e-05
5.48708e-06
1.90832e-05
5.03327e-06
1.93266e-05
3.94735e-06
1.86149e-05
5.42123e-06
1.91112e-05
6.20598e-06
1.77811e-05
8.2712e-06
1.72239e-05
8.01168e-06
1.64169e-05
9.34095e-06
1.64293e-05
1.01174e-05
1.58945e-05
1.31892e-05
1.69844e-05
1.34959e-05
1.61219e-05
1.95968e-05
2.15601e-05
1.463e-05
3.17911e-05
2.14342e-05
1.91759e-05
-8.91247e-08
1.95032e-05
-1.28907e-07
1.98793e-05
-1.6566e-07
2.02357e-05
-1.90159e-07
2.0546e-05
-2.2243e-07
2.08261e-05
-2.73517e-07
2.11019e-05
-4.13371e-07
2.1364e-05
-6.71292e-07
2.15664e-05
-1.04111e-06
2.16681e-05
-1.49381e-06
2.16725e-05
-2.03152e-06
2.15127e-05
-2.37186e-06
2.12249e-05
-2.59695e-06
2.08324e-05
-2.61768e-06
2.03896e-05
-2.41979e-06
2.00249e-05
-2.01454e-06
1.96041e-05
-1.35755e-06
1.94048e-05
-6.58113e-07
1.92371e-05
1.68703e-07
1.90305e-05
9.81707e-07
1.88778e-05
1.62264e-06
1.86344e-05
2.2015e-06
1.85325e-05
2.62999e-06
1.87166e-05
3.03655e-06
1.91627e-05
3.4256e-06
1.98269e-05
3.60812e-06
2.0718e-05
3.71703e-06
2.17322e-05
3.6607e-06
2.27044e-05
3.3008e-06
2.36038e-05
2.72178e-06
2.43479e-05
2.02002e-06
2.48632e-05
1.14502e-06
2.52092e-05
-4.67152e-09
2.54055e-05
-1.00307e-06
2.54945e-05
-2.01346e-06
2.54646e-05
-3.19417e-06
2.54159e-05
-4.14854e-06
2.55458e-05
-5.05397e-06
2.57533e-05
-5.80111e-06
2.6121e-05
-6.24196e-06
2.67411e-05
-6.70924e-06
2.74826e-05
-7.1085e-06
2.8257e-05
-7.37693e-06
2.89799e-05
-7.75127e-06
2.96411e-05
-7.86268e-06
3.02072e-05
-7.84807e-06
3.0644e-05
-7.97137e-06
3.10315e-05
-7.88313e-06
3.1245e-05
-7.64879e-06
3.14313e-05
-7.58722e-06
3.16824e-05
-7.47983e-06
3.18703e-05
-7.28907e-06
3.2076e-05
-7.21309e-06
3.22834e-05
-7.01093e-06
3.25554e-05
-6.72216e-06
3.29162e-05
-6.64804e-06
3.32334e-05
-6.39928e-06
3.36616e-05
-6.17717e-06
3.41225e-05
-6.15731e-06
3.45445e-05
-5.95037e-06
3.51043e-05
-5.95767e-06
3.56103e-05
-5.94254e-06
3.60834e-05
-5.80012e-06
3.65578e-05
-5.7067e-06
3.69985e-05
-5.59134e-06
3.74147e-05
-5.45496e-06
3.77812e-05
-5.20054e-06
3.81443e-05
-5.03851e-06
3.83833e-05
-4.91278e-06
3.84474e-05
-4.55782e-06
3.84706e-05
-4.37561e-06
3.84656e-05
-4.20869e-06
3.83472e-05
-3.93153e-06
3.81047e-05
-3.75607e-06
3.7731e-05
-3.53693e-06
3.72664e-05
-3.47242e-06
3.6622e-05
-3.36088e-06
3.57834e-05
-3.22725e-06
3.4774e-05
-3.3905e-06
3.36606e-05
-3.38449e-06
3.24342e-05
-3.58322e-06
3.10638e-05
-3.93001e-06
2.96608e-05
-3.98958e-06
2.83231e-05
-4.29647e-06
2.70852e-05
-4.7808e-06
2.59544e-05
-4.80632e-06
2.50993e-05
-5.18079e-06
2.43123e-05
-5.72092e-06
2.36307e-05
-5.45522e-06
2.31285e-05
-5.45402e-06
2.2655e-05
-5.89909e-06
2.20922e-05
-5.42341e-06
2.18185e-05
-5.03583e-06
2.16146e-05
-5.43323e-06
2.11351e-05
-4.75402e-06
2.07448e-05
-3.79933e-06
2.04699e-05
-4.11955e-06
1.99675e-05
-3.74536e-06
1.95598e-05
-2.48563e-06
1.93625e-05
-2.56473e-06
1.84289e-05
-2.63843e-06
1.72842e-05
-1.83703e-06
1.69445e-05
-2.16625e-06
1.66821e-05
-3.02025e-06
1.59256e-05
-3.17206e-06
1.58808e-05
-3.94109e-06
1.62669e-05
-5.49397e-06
1.62675e-05
-6.49536e-06
1.60804e-05
-7.38719e-06
1.67057e-05
-8.8795e-06
1.83077e-05
-1.11903e-05
2.01099e-05
-1.28544e-05
2.17558e-05
-1.40668e-05
2.29683e-05
-1.44077e-05
2.37391e-05
-1.39861e-05
2.41176e-05
-1.32133e-05
2.43428e-05
-1.18708e-05
2.44047e-05
-1.06807e-05
2.44466e-05
-9.13784e-06
2.43709e-05
-7.88894e-06
2.4428e-05
-6.58742e-06
2.48197e-05
-5.63284e-06
2.50879e-05
-4.30427e-06
2.53786e-05
-3.02036e-06
2.56001e-05
-1.44167e-06
2.56109e-05
1.14807e-07
2.55567e-05
2.18783e-06
2.57357e-05
3.61162e-06
2.56126e-05
5.31006e-06
2.49448e-05
7.05585e-06
2.40025e-05
9.2618e-06
2.31518e-05
1.10116e-05
2.21206e-05
1.26919e-05
2.082e-05
1.4337e-05
1.96458e-05
1.58408e-05
1.85661e-05
1.62384e-05
1.72087e-05
1.68703e-05
1.5379e-05
1.96897e-05
1.36457e-05
2.319e-05
1.3138e-05
2.36042e-05
1.32509e-05
2.09846e-05
1.28443e-05
1.78576e-05
1.20048e-05
1.66505e-05
1.10127e-05
1.7872e-05
1.0231e-05
2.0271e-05
1.01073e-05
2.25056e-05
1.05808e-05
2.41284e-05
1.10235e-05
2.53025e-05
1.21947e-05
2.41351e-05
1.30178e-05
2.32561e-05
1.4265e-05
2.01745e-05
1.4722e-05
2.01551e-05
1.61376e-05
1.44193e-05
1.6708e-05
1.43113e-05
1.79365e-05
6.70986e-06
1.79259e-05
8.89178e-06
1.8984e-05
1.91435e-06
1.86733e-05
7.02499e-06
1.97377e-05
-7.89837e-07
1.94448e-05
5.25468e-06
2.03125e-05
-3.32805e-06
2.02176e-05
1.85295e-06
2.11367e-05
-7.078e-06
2.08953e-05
-1.34932e-06
2.17201e-05
-9.94471e-06
2.09975e-05
-3.11974e-06
2.115e-05
-1.11358e-05
1.98248e-05
-5.36147e-06
2.00572e-05
-1.41965e-05
1.83267e-05
-9.06365e-06
1.89141e-05
-1.59324e-05
1.73285e-05
-1.17116e-05
1.82934e-05
-1.50496e-05
1.74613e-05
-1.0445e-05
1.79675e-05
-1.03945e-05
1.7731e-05
-8.42171e-06
1.77063e-05
-7.55975e-06
1.71347e-05
-5.35563e-06
1.73883e-05
-4.23719e-06
1.74449e-05
-2.53451e-06
1.80601e-05
-1.10024e-06
1.78195e-05
2.6796e-08
1.86289e-05
1.11133e-06
1.86666e-05
2.64603e-06
1.9595e-05
4.00871e-06
1.94386e-05
5.46469e-06
2.03083e-05
4.61738e-06
1.97456e-05
5.59599e-06
1.99763e-05
3.71661e-06
1.96336e-05
5.76391e-06
2.01602e-05
5.67942e-06
2.02174e-05
8.21399e-06
2.07676e-05
7.46151e-06
1.99857e-05
1.01228e-05
2.11684e-05
8.93471e-06
1.92066e-05
1.5151e-05
2.21265e-05
1.0576e-05
1.91429e-05
2.25804e-05
2.38905e-05
9.88241e-06
2.93091e-05
2.63725e-05
2.45247e-05
-3.59006e-07
2.5038e-05
-6.42265e-07
2.55577e-05
-6.85335e-07
2.58912e-05
-5.23689e-07
2.61467e-05
-4.77896e-07
2.6338e-05
-4.64797e-07
2.64992e-05
-5.74574e-07
2.66258e-05
-7.97916e-07
2.66687e-05
-1.08403e-06
2.6635e-05
-1.4601e-06
2.65091e-05
-1.90567e-06
2.63085e-05
-2.17122e-06
2.59796e-05
-2.26807e-06
2.56941e-05
-2.33219e-06
2.52476e-05
-1.97326e-06
2.47998e-05
-1.5667e-06
2.44869e-05
-1.04465e-06
2.42696e-05
-4.4083e-07
2.41935e-05
2.44836e-07
2.41172e-05
1.05794e-06
2.41008e-05
1.63906e-06
2.40648e-05
2.23754e-06
2.3967e-05
2.7278e-06
2.39752e-05
3.02834e-06
2.40966e-05
3.30415e-06
2.42802e-05
3.42456e-06
2.46544e-05
3.34277e-06
2.51512e-05
3.16393e-06
2.56818e-05
2.77022e-06
2.62833e-05
2.12022e-06
2.68563e-05
1.44702e-06
2.7329e-05
6.72369e-07
2.77503e-05
-4.25975e-07
2.80706e-05
-1.32334e-06
2.83991e-05
-2.34199e-06
2.87343e-05
-3.52937e-06
2.90386e-05
-4.45283e-06
2.93597e-05
-5.37504e-06
2.96942e-05
-6.1357e-06
3.01462e-05
-6.69395e-06
3.06699e-05
-7.23289e-06
3.11304e-05
-7.56898e-06
3.15908e-05
-7.83734e-06
3.19176e-05
-8.0781e-06
3.21715e-05
-8.11663e-06
3.23641e-05
-8.04063e-06
3.23858e-05
-7.99302e-06
3.23306e-05
-7.82799e-06
3.21925e-05
-7.51069e-06
3.21299e-05
-7.52459e-06
3.212e-05
-7.46998e-06
3.20583e-05
-7.22738e-06
3.20686e-05
-7.22331e-06
3.21516e-05
-7.09396e-06
3.22782e-05
-6.84881e-06
3.24534e-05
-6.82325e-06
3.26453e-05
-6.59109e-06
3.29743e-05
-6.50619e-06
3.33951e-05
-6.57814e-06
3.38788e-05
-6.43408e-06
3.44211e-05
-6.49997e-06
3.49824e-05
-6.50383e-06
3.55393e-05
-6.35698e-06
3.61007e-05
-6.26807e-06
3.6667e-05
-6.15766e-06
3.71199e-05
-5.90791e-06
3.75516e-05
-5.63225e-06
3.79475e-05
-5.4344e-06
3.81637e-05
-5.12892e-06
3.83603e-05
-4.75443e-06
3.85422e-05
-4.55753e-06
3.84955e-05
-4.16197e-06
3.83495e-05
-3.78555e-06
3.81429e-05
-3.54944e-06
3.77344e-05
-3.12847e-06
3.71253e-05
-2.86327e-06
3.64064e-05
-2.64196e-06
3.55684e-05
-2.38935e-06
3.4487e-05
-2.30904e-06
3.33972e-05
-2.2947e-06
3.22331e-05
-2.41916e-06
3.08475e-05
-2.54435e-06
2.95216e-05
-2.66367e-06
2.83517e-05
-3.12663e-06
2.71007e-05
-3.52974e-06
2.59974e-05
-3.70303e-06
2.52238e-05
-4.40718e-06
2.44591e-05
-4.95625e-06
2.37829e-05
-4.77905e-06
2.33724e-05
-5.04347e-06
2.2959e-05
-5.48569e-06
2.24049e-05
-4.86934e-06
2.20679e-05
-4.69887e-06
2.16526e-05
-5.01791e-06
2.10905e-05
-4.19189e-06
2.07523e-05
-3.4611e-06
2.0224e-05
-3.59126e-06
1.928e-05
-2.80142e-06
1.88246e-05
-2.03024e-06
1.86324e-05
-2.37252e-06
1.78134e-05
-1.81944e-06
1.70656e-05
-1.08919e-06
1.66127e-05
-1.71331e-06
1.56758e-05
-2.08336e-06