/*--------------------------------*- C++ -*----------------------------------*\
| =========                 |                                                 |
| \\      /  F ield         | OpenFOAM: The Open Source CFD Toolbox           |
|  \\    /   O peration     | Version:  2.4.0                                 |
|   \\  /    A nd           | Web:      www.OpenFOAM.org                      |
|    \\/     M anipulation  |                                                 |
\*---------------------------------------------------------------------------*/
FoamFile
{
    version     2.0;
    format      ascii;
    class       volVectorField;
    location    "0.22";
    object      U_0;
}
// * * * * * * * * * * * * * * * * * * * * * * * * * * * * * * * * * * * * * //

dimensions      [0 1 -1 0 0 0 0];

internalField   nonuniform List<vector> 
8800
(
(8.09194 0.387969 0)
(5.44835 0.242601 0)
(3.91263 0.0427185 0)
(3.15552 -0.0152006 0)
(2.80368 -0.0185506 0)
(2.59485 -0.010779 0)
(2.48774 -0.00567418 0)
(2.37613 -0.0024933 0)
(2.32479 -0.00155625 0)
(2.24267 0.000105169 0)
(2.22413 -0.00184296 0)
(2.1603 0.000623289 0)
(2.14986 0.000264001 0)
(2.09242 -0.00022581 0)
(2.08638 0.000419558 0)
(2.02336 0.00265511 0)
(2.00651 -0.00111668 0)
(1.95867 0.00137237 0)
(1.90551 0.0085465 0)
(1.82152 -0.0478795 0)
(10.0859 0.838683 0)
(9.65378 0.867797 0)
(8.87574 0.506247 0)
(8.07649 0.262384 0)
(7.50339 0.137262 0)
(6.99502 0.0830126 0)
(6.70906 0.0538495 0)
(6.38746 0.0403087 0)
(6.24034 0.0298802 0)
(6.00462 0.02641 0)
(5.95125 0.0150412 0)
(5.75497 0.0201109 0)
(5.74126 0.0154988 0)
(5.57975 0.0148741 0)
(5.56694 0.0143414 0)
(5.417 0.0248806 0)
(5.39553 0.0100104 0)
(5.2594 0.0263705 0)
(5.19314 0.0294132 0)
(5.06835 -0.0135237 0)
(10.0668 0.632521 0)
(10.6522 0.86323 0)
(10.876 0.60015 0)
(10.6774 0.374287 0)
(10.4768 0.254502 0)
(10.0664 0.198468 0)
(9.85685 0.15231 0)
(9.47769 0.122834 0)
(9.33659 0.0945378 0)
(9.0057 0.0795538 0)
(8.96295 0.0529942 0)
(8.66544 0.0576049 0)
(8.6682 0.0422931 0)
(8.4266 0.0413649 0)
(8.429 0.0372377 0)
(8.20061 0.052641 0)
(8.22074 0.0301221 0)
(7.98023 0.0601024 0)
(7.97601 0.0592333 0)
(7.74531 -0.0035048 0)
(10.0097 0.458555 0)
(10.5574 0.704772 0)
(11.1864 0.546016 0)
(11.35 0.352424 0)
(11.5865 0.259125 0)
(11.4357 0.231137 0)
(11.5155 0.197867 0)
(11.2786 0.176795 0)
(11.3243 0.14881 0)
(11.0431 0.130493 0)
(11.1195 0.0959439 0)
(10.828 0.103145 0)
(10.8983 0.0775423 0)
(10.6441 0.0756935 0)
(10.6994 0.0691962 0)
(10.435 0.0879305 0)
(10.5167 0.0502279 0)
(10.212 0.107591 0)
(10.2988 0.0855878 0)
(9.95173 0.116653 0)
(10.0585 0.348834 0)
(10.3792 0.563821 0)
(11.0773 0.462116 0)
(11.2776 0.296084 0)
(11.6885 0.203888 0)
(11.6569 0.199123 0)
(11.9081 0.174078 0)
(11.7957 0.170724 0)
(12.0172 0.147172 0)
(11.8606 0.140516 0)
(12.0582 0.0958223 0)
(11.9093 0.124566 0)
(12.0585 0.083359 0)
(11.909 0.0958203 0)
(12.0368 0.0801227 0)
(11.8648 0.118172 0)
(11.9901 0.0576672 0)
(11.7411 0.139992 0)
(11.8963 0.0960181 0)
(11.6234 0.169527 0)
(10.0679 0.256886 0)
(10.2925 0.449092 0)
(10.9157 0.37747 0)
(11.1743 0.250595 0)
(11.5424 0.154312 0)
(11.6125 0.158293 0)
(11.8284 0.140696 0)
(11.8061 0.141597 0)
(12.0102 0.122449 0)
(11.9855 0.123938 0)
(12.131 0.0731819 0)
(12.1662 0.108855 0)
(12.2828 0.0775001 0)
(12.2745 0.0742273 0)
(12.3969 0.0833229 0)
(12.3998 0.0991658 0)
(12.4782 0.0729601 0)
(12.4159 0.117391 0)
(12.5151 0.101696 0)
(12.4706 0.06974 0)
(10.0226 0.181289 0)
(10.2837 0.347006 0)
(10.7647 0.283797 0)
(11.1093 0.212325 0)
(11.3932 0.109952 0)
(11.5627 0.120569 0)
(11.6944 0.108219 0)
(11.7545 0.113412 0)
(11.9043 0.0917607 0)
(11.9391 0.106889 0)
(12.0078 0.0448504 0)
(12.1305 0.0871278 0)
(12.2181 0.0590627 0)
(12.2587 0.0578791 0)
(12.3418 0.0578448 0)
(12.4632 0.0883407 0)
(12.4623 0.052812 0)
(12.5048 0.0985778 0)
(12.5755 0.0578756 0)
(12.617 0.00250348 0)
(10.0002 0.12183 0)
(10.2725 0.242164 0)
(10.654 0.202133 0)
(11.0452 0.159997 0)
(11.3181 0.0731034 0)
(11.5156 0.0832988 0)
(11.603 0.0814082 0)
(11.6983 0.071692 0)
(11.8178 0.0690157 0)
(11.8885 0.0904621 0)
(11.9308 0.0218635 0)
(12.0729 0.0551171 0)
(12.134 0.0516929 0)
(12.1871 0.0329049 0)
(12.2742 0.0391105 0)
(12.4173 0.0590787 0)
(12.384 0.052 0)
(12.4181 0.0593594 0)
(12.575 0.0183099 0)
(12.4712 -0.00173952 0)
(9.99852 0.0717385 0)
(10.2429 0.144045 0)
(10.5966 0.117522 0)
(11.0247 0.0954472 0)
(11.2615 0.0374916 0)
(11.4554 0.0559952 0)
(11.5816 0.0573148 0)
(11.6485 0.034269 0)
(11.7497 0.0421223 0)
(11.8569 0.0631697 0)
(11.9157 0.00402791 0)
(12.0176 0.0301582 0)
(12.0912 0.0424838 0)
(12.1602 0.0106594 0)
(12.225 0.0104137 0)
(12.3323 0.0480056 0)
(12.3471 0.0382875 0)
(12.4181 0.0131789 0)
(12.5127 -0.00503276 0)
(12.3272 0.00766457 0)
(9.99704 0.0287016 0)
(10.2349 0.0457704 0)
(10.5877 0.0285708 0)
(10.9821 0.0342953 0)
(11.2201 0.0146975 0)
(11.4286 0.018327 0)
(11.5963 0.0266446 0)
(11.6298 0.00601167 0)
(11.7164 0.0101335 0)
(11.8246 0.0361459 0)
(11.9199 -0.0159752 0)
(11.9794 0.00981516 0)
(12.0919 0.0251656 0)
(12.1553 -0.00910153 0)
(12.1566 0.00222632 0)
(12.295 0.0170362 0)
(12.3618 0.0127849 0)
(12.4271 -0.0125083 0)
(12.3904 -0.0110533 0)
(12.3192 -0.0247066 0)
(9.99214 -0.0141879 0)
(10.2412 -0.0527229 0)
(10.6019 -0.0525991 0)
(10.9573 -0.0219675 0)
(11.2361 -0.0234366 0)
(11.4392 -0.020631 0)
(11.5693 0.00107288 0)
(11.6552 -0.0200024 0)
(11.6901 -0.0164091 0)
(11.8301 -0.00129291 0)
(11.9288 -0.0306111 0)
(11.9511 -0.0146615 0)
(12.1186 0.00568502 0)
(12.1306 -0.0114498 0)
(12.1609 -0.022107 0)
(12.3 -0.0150527 0)
(12.3922 -0.0131916 0)
(12.3725 -0.0236888 0)
(12.377 -0.0308727 0)
(12.4025 -0.049791 0)
(9.98537 -0.0581936 0)
(10.2602 -0.154872 0)
(10.6386 -0.133142 0)
(10.9627 -0.084184 0)
(11.2869 -0.0553672 0)
(11.4398 -0.0475112 0)
(11.5627 -0.0343119 0)
(11.6826 -0.0473645 0)
(11.7199 -0.0433471 0)
(11.8638 -0.0368438 0)
(11.9693 -0.0442514 0)
(11.9483 -0.0388199 0)
(12.1122 -0.0131818 0)
(12.1777 -0.0247902 0)
(12.2051 -0.0391701 0)
(12.3272 -0.0526365 0)
(12.3757 -0.0225503 0)
(12.3709 -0.0386293 0)
(12.4705 -0.0756579 0)
(12.419 -0.0782254 0)
(9.98981 -0.108535 0)
(10.2803 -0.261831 0)
(10.6839 -0.207528 0)
(11.0114 -0.142584 0)
(11.3392 -0.0927662 0)
(11.4848 -0.0753948 0)
(11.5818 -0.065991 0)
(11.7278 -0.081629 0)
(11.8102 -0.070828 0)
(11.9024 -0.0767197 0)
(11.9863 -0.0469811 0)
(12.0123 -0.0541861 0)
(12.1314 -0.0439738 0)
(12.2082 -0.0398647 0)
(12.2979 -0.055789 0)
(12.3388 -0.069275 0)
(12.3733 -0.0414614 0)
(12.4816 -0.0782934 0)
(12.5314 -0.0987468 0)
(12.4082 -0.065722 0)
(10.0149 -0.168619 0)
(10.3038 -0.365632 0)
(10.7668 -0.290849 0)
(11.0829 -0.19751 0)
(11.4132 -0.127996 0)
(11.5424 -0.10197 0)
(11.6678 -0.103446 0)
(11.7934 -0.12328 0)
(11.9034 -0.0936715 0)
(11.9203 -0.0951224 0)
(12.0284 -0.0668393 0)
(12.1387 -0.0785691 0)
(12.1818 -0.0571257 0)
(12.2528 -0.0700481 0)
(12.3885 -0.0687173 0)
(12.3907 -0.0835374 0)
(12.4458 -0.0703282 0)
(12.5505 -0.111683 0)
(12.5766 -0.115319 0)
(12.481 -0.10496 0)
(10.0626 -0.246944 0)
(10.3298 -0.469876 0)
(10.8912 -0.37169 0)
(11.1543 -0.239465 0)
(11.542 -0.171712 0)
(11.6051 -0.14082 0)
(11.8089 -0.141093 0)
(11.8415 -0.156218 0)
(12.0008 -0.110992 0)
(11.9721 -0.11908 0)
(12.1457 -0.0978449 0)
(12.1656 -0.0987876 0)
(12.2604 -0.0680172 0)
(12.2719 -0.09862 0)
(12.4081 -0.083315 0)
(12.3701 -0.0984899 0)
(12.4481 -0.087104 0)
(12.456 -0.143978 0)
(12.4803 -0.131137 0)
(12.3536 -0.137363 0)
(10.0685 -0.345244 0)
(10.3944 -0.575805 0)
(11.0376 -0.455338 0)
(11.2912 -0.289013 0)
(11.676 -0.221971 0)
(11.6602 -0.179158 0)
(11.9009 -0.179843 0)
(11.8141 -0.180902 0)
(12.0004 -0.138262 0)
(11.8743 -0.136195 0)
(12.0462 -0.118033 0)
(11.9089 -0.10838 0)
(12.0456 -0.0842666 0)
(11.903 -0.108817 0)
(12.0246 -0.0905458 0)
(11.8609 -0.103209 0)
(11.9404 -0.0929373 0)
(11.7793 -0.14902 0)
(11.7808 -0.129986 0)
(11.5439 -0.163406 0)
(10.0222 -0.456114 0)
(10.5549 -0.711296 0)
(11.1662 -0.541712 0)
(11.3724 -0.349888 0)
(11.5627 -0.269552 0)
(11.4465 -0.218755 0)
(11.5163 -0.201671 0)
(11.273 -0.184505 0)
(11.3226 -0.141094 0)
(11.0543 -0.128709 0)
(11.0974 -0.109492 0)
(10.8294 -0.0954024 0)
(10.901 -0.0745516 0)
(10.6203 -0.0895828 0)
(10.694 -0.0734995 0)
(10.4192 -0.0841736 0)
(10.4824 -0.0722324 0)
(10.1822 -0.125369 0)
(10.1896 -0.0984086 0)
(9.84945 -0.163121 0)
(10.0735 -0.631533 0)
(10.65 -0.866158 0)
(10.8678 -0.599229 0)
(10.6932 -0.371228 0)
(10.4536 -0.2607 0)
(10.0828 -0.191922 0)
(9.85367 -0.153546 0)
(9.46965 -0.127847 0)
(9.34088 -0.0912953 0)
(9.00845 -0.0763873 0)
(8.94646 -0.062602 0)
(8.66516 -0.0532928 0)
(8.67331 -0.039917 0)
(8.39576 -0.049325 0)
(8.43342 -0.043616 0)
(8.16348 -0.0479788 0)
(8.20486 -0.0462156 0)
(7.8985 -0.0761464 0)
(7.90065 -0.0745824 0)
(7.55068 -0.0891891 0)
(10.0892 -0.838285 0)
(9.65278 -0.8689 0)
(8.87125 -0.506113 0)
(8.0853 -0.260283 0)
(7.48916 -0.140732 0)
(7.00684 -0.0803418 0)
(6.70498 -0.0530809 0)
(6.38363 -0.0440365 0)
(6.24166 -0.0282958 0)
(6.00521 -0.0235761 0)
(5.94216 -0.0207986 0)
(5.75112 -0.0187614 0)
(5.74343 -0.0123733 0)
(5.55748 -0.0200638 0)
(5.56676 -0.0183484 0)
(5.37598 -0.0212371 0)
(5.38915 -0.0204751 0)
(5.16066 -0.0367132 0)
(5.14382 -0.040331 0)
(4.84805 -0.0182131 0)
(8.09235 -0.387872 0)
(5.44867 -0.242667 0)
(3.91011 -0.0428919 0)
(3.15872 0.0159615 0)
(2.7999 0.0174379 0)
(2.59695 0.011464 0)
(2.4874 0.00625513 0)
(2.37587 0.00110391 0)
(2.32166 0.00212837 0)
(2.24457 0.000902788 0)
(2.22153 0.000101576 0)
(2.15418 -0.000311096 0)
(2.14969 0.00115352 0)
(2.08556 -0.00143472 0)
(2.0771 -0.000993835 0)
(2.00216 -0.00175992 0)
(1.99525 -0.000540287 0)
(1.90091 -0.00491325 0)
(1.85556 -0.00468339 0)
(1.7047 0.0109428 0)
(2.09831 0.00726063 0)
(2.10407 0.123745 0)
(2.44876 0.145896 0)
(2.64059 0.182858 0)
(2.98304 0.206365 0)
(3.15051 0.251608 0)
(3.43746 0.193562 0)
(3.64872 0.102155 0)
(3.88051 -0.081345 0)
(4.00288 -0.339534 0)
(4.09685 -0.643366 0)
(4.06002 -0.933465 0)
(3.91716 -1.1337 0)
(3.73798 -1.26871 0)
(3.68738 -1.23183 0)
(3.60008 -0.930988 0)
(3.14523 -0.643475 0)
(2.40684 -0.532305 0)
(2.30827 -0.302993 0)
(2.84005 0.285635 0)
(3.36451 0.668791 0)
(4.26629 1.05399 0)
(4.70934 1.56491 0)
(5.28536 1.82845 0)
(5.65147 2.09192 0)
(6.04693 2.23274 0)
(6.4037 2.23256 0)
(6.80137 2.18711 0)
(7.2215 1.99545 0)
(7.65358 1.6827 0)
(7.9798 1.34842 0)
(8.30135 0.856109 0)
(8.54551 0.312696 0)
(8.72033 -0.144822 0)
(8.86932 -0.633595 0)
(8.95899 -1.17363 0)
(8.99493 -1.62309 0)
(8.70625 -2.04639 0)
(8.29898 -2.20606 0)
(7.99526 -2.03984 0)
(7.73221 -1.9571 0)
(7.65154 -1.87552 0)
(7.77872 -1.81783 0)
(8.00537 -1.94473 0)
(8.35184 -1.95943 0)
(8.7549 -1.95235 0)
(9.08709 -2.09494 0)
(9.45801 -2.13839 0)
(9.92554 -2.1454 0)
(10.2507 -2.17374 0)
(10.5016 -2.13269 0)
(10.9129 -2.12502 0)
(11.1969 -2.05849 0)
(11.4483 -1.99021 0)
(11.8281 -1.87653 0)
(12.1422 -1.78876 0)
(12.4146 -1.75574 0)
(12.7645 -1.60503 0)
(13.0682 -1.58272 0)
(13.3657 -1.56978 0)
(13.6948 -1.4586 0)
(13.9724 -1.51566 0)
(14.2276 -1.50883 0)
(14.5131 -1.46097 0)
(14.7256 -1.4664 0)
(14.9488 -1.4416 0)
(15.17 -1.43797 0)
(15.2784 -1.36765 0)
(15.4087 -1.36714 0)
(15.6482 -1.40199 0)
(15.6004 -1.39644 0)
(15.6709 -1.32069 0)
(15.7716 -1.35087 0)
(15.6525 -1.43005 0)
(15.6595 -1.35334 0)
(15.6145 -1.50366 0)
(15.4008 -1.65748 0)
(15.2439 -1.65561 0)
(14.9102 -1.95933 0)
(14.5703 -2.13604 0)
(14.0944 -2.22522 0)
(13.4827 -2.62031 0)
(12.8641 -2.68331 0)
(12.1019 -2.68519 0)
(11.349 -2.8702 0)
(10.6787 -2.76188 0)
(10.104 -2.58961 0)
(9.55686 -2.67073 0)
(9.25781 -2.46877 0)
(8.9533 -2.25493 0)
(8.76321 -2.25045 0)
(8.54847 -2.08005 0)
(8.48063 -1.92081 0)
(8.38518 -2.06557 0)
(8.27468 -1.91619 0)
(8.11786 -1.44225 0)
(8.08503 -1.46555 0)
(7.96624 -1.59947 0)
(7.63993 -1.28323 0)
(7.62521 -1.08292 0)
(7.76577 -1.37129 0)
(7.70847 -1.29869 0)
(7.18973 -0.936556 0)
(7.23666 -1.01559 0)
(7.32281 -1.52663 0)
(7.2163 -1.63801 0)
(6.85937 -1.62932 0)
(7.03502 -1.92585 0)
(7.4166 -2.35938 0)
(7.67209 -2.70889 0)
(7.76975 -2.86378 0)
(7.90841 -3.03297 0)
(8.47258 -3.20489 0)
(8.99687 -3.55752 0)
(9.91308 -3.73022 0)
(10.4666 -3.81284 0)
(11.1154 -3.68616 0)
(11.4687 -3.43983 0)
(11.6995 -3.08028 0)
(11.7613 -2.7303 0)
(11.9122 -2.21577 0)
(11.811 -1.76414 0)
(11.8109 -1.3289 0)
(11.7288 -0.69719 0)
(11.7486 -0.192163 0)
(12.0073 0.160984 0)
(11.9568 0.660435 0)
(11.7931 1.2799 0)
(11.8461 1.68589 0)
(11.7833 1.92869 0)
(11.5727 2.36722 0)
(11.1383 2.90423 0)
(10.7383 3.25407 0)
(10.1625 3.66461 0)
(9.56588 4.23986 0)
(8.90624 4.43993 0)
(8.60068 4.59616 0)
(7.95778 5.28543 0)
(7.06786 6.60953 0)
(6.51807 7.38133 0)
(6.24587 6.64978 0)
(6.0848 5.39597 0)
(5.8111 4.72875 0)
(5.22915 5.18139 0)
(4.82811 6.29288 0)
(4.36372 7.49893 0)
(4.21404 8.36077 0)
(4.25148 8.78397 0)
(4.36152 8.64084 0)
(4.59319 8.21628 0)
(4.99921 7.51491 0)
(5.10616 6.75987 0)
(5.61385 5.62788 0)
(5.4271 4.79432 0)
(6.09141 2.95449 0)
(5.52023 2.85806 0)
(6.6297 1.42074 0)
(5.75909 2.16631 0)
(7.24739 0.570283 0)
(5.85896 1.46574 0)
(7.65499 -0.464522 0)
(6.07193 0.469174 0)
(7.97125 -1.67653 0)
(6.38532 -0.822895 0)
(7.91317 -2.88117 0)
(6.36621 -1.82807 0)
(7.43414 -3.83897 0)
(6.11909 -2.95881 0)
(6.55752 -4.84616 0)
(5.85366 -4.10552 0)
(5.92781 -5.09803 0)
(6.18735 -4.35604 0)
(5.71463 -4.5177 0)
(6.70614 -3.56683 0)
(5.31478 -3.26624 0)
(7.04211 -2.89706 0)
(5.36725 -2.50913 0)
(7.15653 -1.73341 0)
(5.88212 -1.21112 0)
(7.48445 -0.318124 0)
(6.3695 -0.0438752 0)
(7.72319 0.401607 0)
(7.08551 0.68794 0)
(8.15123 1.32034 0)
(7.53715 1.69363 0)
(8.11513 1.79541 0)
(7.63991 1.8599 0)
(7.77429 1.47074 0)
(7.60727 1.35577 0)
(7.66427 1.51273 0)
(7.96056 2.31723 0)
(7.05227 1.83806 0)
(7.51958 2.684 0)
(6.85848 2.49835 0)
(7.08511 3.22274 0)
(7.03556 4.1573 0)
(6.28985 4.14911 0)
(6.06945 5.52262 0)
(6.61698 7.04316 0)
(3.98661 10.6832 0)
(5.18558 0.045868 0)
(5.10573 0.128195 0)
(5.19176 0.122989 0)
(5.28838 0.0993399 0)
(5.48866 0.0680023 0)
(5.64816 0.0468338 0)
(5.86207 0.00651066 0)
(6.00725 -0.0823186 0)
(6.1988 -0.240176 0)
(6.28947 -0.432433 0)
(6.41143 -0.657488 0)
(6.40143 -0.848886 0)
(6.38705 -0.980295 0)
(6.2147 -1.0441 0)
(6.07165 -1.0345 0)
(5.64259 -0.946884 0)
(5.39712 -0.729043 0)
(5.38389 -0.262839 0)
(5.1706 0.0260788 0)
(5.04396 0.23374 0)
(4.93273 0.425767 0)
(5.08417 0.566482 0)
(5.41644 0.84605 0)
(5.85297 1.18236 0)
(6.27768 1.45805 0)
(6.82423 1.63797 0)
(7.36874 1.82251 0)
(7.89689 1.84066 0)
(8.41064 1.65473 0)
(8.78452 1.41938 0)
(9.16485 1.08295 0)
(9.45517 0.634692 0)
(9.58552 0.163026 0)
(9.78371 -0.230536 0)
(9.8572 -0.676069 0)
(9.7021 -1.20689 0)
(9.53361 -1.58311 0)
(9.26653 -1.81274 0)
(8.92348 -1.99511 0)
(8.82925 -1.98019 0)
(8.91594 -1.9309 0)
(9.0984 -1.99652 0)
(9.44939 -2.09089 0)
(9.76752 -2.21121 0)
(10.1122 -2.27431 0)
(10.4978 -2.34653 0)
(10.8566 -2.42957 0)
(11.1301 -2.40688 0)
(11.4402 -2.44299 0)
(11.65 -2.45174 0)
(11.8256 -2.36963 0)
(12.0814 -2.34665 0)
(12.2754 -2.30524 0)
(12.42 -2.21632 0)
(12.7136 -2.09325 0)
(12.9016 -2.04183 0)
(13.0823 -1.9639 0)
(13.3624 -1.84084 0)
(13.5899 -1.82591 0)
(13.7918 -1.76914 0)
(14.0676 -1.70419 0)
(14.2884 -1.73254 0)
(14.5327 -1.67987 0)
(14.7418 -1.6425 0)
(14.9609 -1.6258 0)
(15.1104 -1.59504 0)
(15.258 -1.54365 0)
(15.3911 -1.48979 0)
(15.4961 -1.51735 0)
(15.6154 -1.46264 0)
(15.6291 -1.42233 0)
(15.6504 -1.4185 0)
(15.6477 -1.3607 0)
(15.6023 -1.31893 0)
(15.5194 -1.38499 0)
(15.3837 -1.41605 0)
(15.1179 -1.44786 0)
(14.8607 -1.57782 0)
(14.5295 -1.69189 0)
(14.0557 -1.75392 0)
(13.5332 -1.95025 0)
(13.0246 -2.08544 0)
(12.3359 -2.09197 0)
(11.7213 -2.2052 0)
(11.1568 -2.24447 0)
(10.5415 -2.16295 0)
(10.0879 -2.20372 0)
(9.72602 -2.31684 0)
(9.36113 -2.12772 0)
(9.04604 -2.0876 0)
(8.99825 -2.21338 0)
(8.85804 -2.03653 0)
(8.76288 -1.81738 0)
(8.60646 -1.96624 0)
(8.40349 -1.84793 0)
(8.19652 -1.49176 0)
(8.27248 -1.51014 0)
(8.24446 -1.40065 0)
(7.89078 -1.00406 0)
(7.71435 -1.05039 0)
(7.58557 -1.39418 0)
(7.30474 -1.1407 0)
(6.94837 -0.861122 0)
(7.20257 -1.09526 0)
(7.09354 -1.39895 0)
(6.86768 -1.33694 0)
(6.65979 -1.63043 0)
(7.05308 -2.13713 0)
(7.07748 -2.5687 0)
(7.13374 -2.72394 0)
(7.19879 -3.00664 0)
(7.71914 -3.45165 0)
(8.47497 -3.88758 0)
(9.18705 -4.23136 0)
(9.94768 -4.33056 0)
(10.2885 -4.26361 0)
(10.6949 -3.89768 0)
(10.7253 -3.54505 0)
(10.8951 -3.0614 0)
(10.7214 -2.70724 0)
(10.798 -2.16278 0)
(10.6942 -1.69526 0)
(10.791 -1.31579 0)
(10.8078 -0.845122 0)
(11.0609 -0.379205 0)
(11.1977 0.0529162 0)
(11.1286 0.701901 0)
(11.082 1.25438 0)
(11.271 1.6254 0)
(11.0684 1.96473 0)
(10.8615 2.59961 0)
(10.3478 3.23819 0)
(9.97716 3.7327 0)
(9.36177 4.19747 0)
(8.84857 4.71693 0)
(8.24087 4.84908 0)
(7.88809 5.03226 0)
(7.26593 5.93205 0)
(6.30341 7.14649 0)
(5.75869 7.6266 0)
(5.74345 6.81517 0)
(5.61077 5.5749 0)
(5.29234 5.14201 0)
(4.81857 5.56125 0)
(4.33379 6.55541 0)
(4.12938 7.60856 0)
(4.11014 8.30724 0)
(4.14298 8.66179 0)
(4.53659 8.48686 0)
(4.78455 7.9586 0)
(5.24146 7.2404 0)
(5.37936 6.7873 0)
(6.03851 5.28558 0)
(5.73644 4.86158 0)
(6.93426 2.64836 0)
(5.98699 2.92434 0)
(7.58314 1.11047 0)
(6.12113 2.18933 0)
(8.1594 0.221207 0)
(6.24946 1.53531 0)
(8.485 -0.733033 0)
(6.51716 0.430667 0)
(8.85855 -1.91766 0)
(6.87783 -0.646531 0)
(9.00506 -2.81956 0)
(6.95589 -1.53201 0)
(8.56923 -3.76979 0)
(6.51852 -2.79522 0)
(7.76953 -4.70132 0)
(6.17736 -4.11818 0)
(7.22392 -4.83476 0)
(5.95788 -4.80143 0)
(7.29153 -4.13592 0)
(5.78304 -3.78375 0)
(7.47317 -2.9228 0)
(5.79586 -2.89912 0)
(7.28912 -2.30462 0)
(6.10232 -2.14166 0)
(6.92625 -1.08008 0)
(6.59021 -0.795727 0)
(7.10572 0.119106 0)
(7.0761 -0.0518832 0)
(7.35506 0.948974 0)
(7.37991 0.903553 0)
(7.62868 1.9349 0)
(7.50359 1.67788 0)
(7.79439 2.03047 0)
(7.626 1.31238 0)
(7.83216 1.4418 0)
(7.40679 1.69254 0)
(7.66187 2.3188 0)
(7.49986 2.86274 0)
(6.70416 2.30675 0)
(7.26412 3.4605 0)
(6.01284 3.34211 0)
(6.78019 4.46551 0)
(6.87886 5.52002 0)
(5.5314 6.13619 0)
(9.04804 5.99114 0)
(6.69511 11.6066 0)
(7.83003 -0.00972381 0)
(7.79186 0.0345764 0)
(7.87977 0.0462917 0)
(7.92936 0.0374385 0)
(8.12485 -0.000198153 0)
(8.22478 -0.0477669 0)
(8.4 -0.104525 0)
(8.4619 -0.199416 0)
(8.58792 -0.318792 0)
(8.62705 -0.483275 0)
(8.69644 -0.65834 0)
(8.69043 -0.783193 0)
(8.6365 -0.900308 0)
(8.53524 -0.923751 0)
(8.29486 -0.916727 0)
(8.17084 -0.730123 0)
(7.92083 -0.457276 0)
(7.80235 -0.215617 0)
(7.64531 0.0477426 0)
(7.52162 0.288449 0)
(7.49359 0.518095 0)
(7.38903 0.726185 0)
(7.39104 0.831018 0)
(7.42387 0.968304 0)
(7.51424 1.10424 0)
(7.77839 1.18073 0)
(8.08424 1.25906 0)
(8.48927 1.24824 0)
(8.94372 1.1304 0)
(9.30935 0.942286 0)
(9.64852 0.681747 0)
(9.91344 0.359965 0)
(10.0522 -0.0179406 0)
(10.1473 -0.389317 0)
(10.2451 -0.766734 0)
(10.2359 -1.15667 0)
(10.1739 -1.41244 0)
(10.2387 -1.63943 0)
(10.2399 -1.8253 0)
(10.3782 -1.95468 0)
(10.6013 -2.12369 0)
(10.8604 -2.25462 0)
(11.2022 -2.35292 0)
(11.5031 -2.50088 0)
(11.7336 -2.52906 0)
(12.0238 -2.5522 0)
(12.2134 -2.63006 0)
(12.3412 -2.59989 0)
(12.4668 -2.56029 0)
(12.5433 -2.52424 0)
(12.5878 -2.48156 0)
(12.7072 -2.44219 0)
(12.7872 -2.41036 0)
(12.7964 -2.32107 0)
(12.952 -2.22129 0)
(13.0672 -2.18607 0)
(13.1705 -2.08902 0)
(13.38 -1.98806 0)
(13.5288 -1.97926 0)
(13.7072 -1.8934 0)
(13.9461 -1.87962 0)
(14.1478 -1.86435 0)
(14.3452 -1.82025 0)
(14.5583 -1.80524 0)
(14.7628 -1.75912 0)
(14.8897 -1.70717 0)
(15.101 -1.62518 0)
(15.2556 -1.59962 0)
(15.3355 -1.56587 0)
(15.4291 -1.47605 0)
(15.4115 -1.44131 0)
(15.4337 -1.3743 0)
(15.4456 -1.30839 0)
(15.3303 -1.32054 0)
(15.2193 -1.26675 0)
(15.0542 -1.27458 0)
(14.8288 -1.27973 0)
(14.5033 -1.24054 0)
(14.0952 -1.35989 0)
(13.6764 -1.38156 0)
(13.1637 -1.45684 0)
(12.6396 -1.58662 0)
(12.041 -1.59657 0)
(11.4843 -1.68341 0)
(10.9842 -1.83729 0)
(10.5013 -1.82345 0)
(10.1208 -1.90136 0)
(9.85536 -2.05306 0)
(9.51156 -1.92669 0)
(9.28065 -1.92188 0)
(9.1725 -2.04443 0)
(8.89784 -1.88918 0)
(8.73684 -1.763 0)
(8.7003 -1.88211 0)
(8.56622 -1.61972 0)
(8.32598 -1.30689 0)
(8.32178 -1.45267 0)
(8.13864 -1.30761 0)
(7.89141 -0.81572 0)
(7.87104 -0.865563 0)
(7.6504 -1.0195 0)
(7.06161 -0.759418 0)
(6.78935 -0.786517 0)
(6.87589 -1.11323 0)
(6.49991 -1.16859 0)
(6.30291 -1.27836 0)
(6.43288 -1.82452 0)
(6.64995 -2.22504 0)
(6.33617 -2.47482 0)
(6.47439 -2.8059 0)
(6.86055 -3.49608 0)
(7.76749 -4.08263 0)
(8.33611 -4.59119 0)
(8.98642 -4.75137 0)
(9.37373 -4.62791 0)
(9.51193 -4.37606 0)
(9.74748 -3.88819 0)
(9.65421 -3.54251 0)
(9.84813 -3.00588 0)
(9.67939 -2.6169 0)
(9.77542 -2.20294 0)
(9.7842 -1.85784 0)
(10.0664 -1.45211 0)
(10.035 -1.03174 0)
(10.2939 -0.489112 0)
(10.283 0.0441562 0)
(10.2776 0.702257 0)
(10.2502 1.14623 0)
(10.4231 1.6347 0)
(9.99228 2.18439 0)
(9.77977 2.95069 0)
(9.32022 3.53855 0)
(9.03906 4.07484 0)
(8.48457 4.61999 0)
(7.95116 5.13773 0)
(7.49893 5.25687 0)
(7.07503 5.5376 0)
(6.45706 6.58556 0)
(5.51636 7.71933 0)
(5.05336 7.79577 0)
(5.14821 6.89004 0)
(5.16991 5.78215 0)
(4.77328 5.49457 0)
(4.43333 6.03473 0)
(4.10696 6.83842 0)
(3.89345 7.62978 0)
(4.09619 8.25515 0)
(4.22729 8.57245 0)
(4.62114 8.23829 0)
(5.06555 7.85172 0)
(5.65356 6.82508 0)
(5.45896 6.71805 0)
(6.72507 4.86174 0)
(6.05405 4.62169 0)
(7.78185 2.32659 0)
(6.38743 2.79518 0)
(8.32021 0.836711 0)
(6.56147 2.20788 0)
(8.75097 -0.0872645 0)
(6.71859 1.63337 0)
(9.09947 -1.02971 0)
(6.98991 0.486421 0)
(9.47765 -2.24597 0)
(7.26353 -0.552267 0)
(9.73078 -3.31281 0)
(7.40664 -1.21988 0)
(9.46518 -3.90967 0)
(7.19058 -2.10492 0)
(8.65912 -5.10734 0)
(7.14651 -3.42305 0)
(7.57712 -5.62666 0)
(7.26674 -4.04015 0)
(6.84036 -4.91331 0)
(7.41756 -3.35285 0)
(6.84113 -3.24045 0)
(7.1272 -2.67641 0)
(7.35886 -2.36497 0)
(6.39467 -1.65916 0)
(7.50627 -1.3183 0)
(6.21083 -0.699614 0)
(7.93691 -0.332637 0)
(6.37315 0.00211476 0)
(8.05852 0.452845 0)
(6.78033 1.00424 0)
(8.29751 1.41506 0)
(7.31448 1.81744 0)
(8.32356 1.42146 0)
(7.79676 1.86318 0)
(7.94842 0.991188 0)
(7.9808 2.03176 0)
(7.65111 1.66617 0)
(8.44609 2.68804 0)
(7.89697 2.67677 0)
(8.28452 2.93561 0)
(8.58547 3.72764 0)
(7.11583 4.09937 0)
(9.78912 4.24375 0)
(6.27334 7.26228 0)
(10.3166 3.28284 0)
(8.47268 10.5068 0)
(10.061 -0.0770107 0)
(10.0382 -0.151107 0)
(10.139 -0.181453 0)
(10.1786 -0.15884 0)
(10.367 -0.133525 0)
(10.4584 -0.118609 0)
(10.5887 -0.156571 0)
(10.6502 -0.231151 0)
(10.6484 -0.354651 0)
(10.6943 -0.495788 0)
(10.6224 -0.663562 0)
(10.6432 -0.748989 0)
(10.5074 -0.810995 0)
(10.4488 -0.836327 0)
(10.243 -0.717608 0)
(10.0842 -0.600241 0)
(9.87176 -0.407132 0)
(9.70344 -0.205472 0)
(9.66387 0.0654494 0)
(9.54004 0.365793 0)
(9.56287 0.562599 0)
(9.54707 0.760702 0)
(9.53662 0.9286 0)
(9.56073 1.02061 0)
(9.57503 1.11742 0)
(9.64715 1.1453 0)
(9.75748 1.1131 0)
(9.94411 1.0605 0)
(10.1739 0.916143 0)
(10.4363 0.706392 0)
(10.6562 0.504562 0)
(10.9178 0.248606 0)
(11.0865 -0.0994899 0)
(11.1602 -0.40567 0)
(11.3474 -0.744798 0)
(11.5093 -1.12145 0)
(11.5827 -1.4082 0)
(11.7519 -1.73363 0)
(11.8062 -2.00309 0)
(11.9809 -2.1802 0)
(12.2291 -2.35357 0)
(12.4044 -2.45936 0)
(12.5745 -2.53797 0)
(12.7556 -2.65813 0)
(12.8243 -2.67051 0)
(12.9408 -2.65985 0)
(12.9826 -2.68602 0)
(12.9384 -2.62185 0)
(12.8766 -2.52748 0)
(12.87 -2.55055 0)
(12.8233 -2.50427 0)
(12.8152 -2.42887 0)
(12.7962 -2.41978 0)
(12.7892 -2.3485 0)
(12.8698 -2.2508 0)
(12.8984 -2.2248 0)
(12.9617 -2.12218 0)
(13.1082 -2.0844 0)
(13.242 -2.07839 0)
(13.4384 -2.0219 0)
(13.6681 -2.05574 0)
(13.9027 -2.03055 0)
(14.1094 -1.97284 0)
(14.357 -1.93467 0)
(14.624 -1.88984 0)
(14.7751 -1.83308 0)
(14.9798 -1.75284 0)
(15.1807 -1.69805 0)
(15.2409 -1.63127 0)
(15.3522 -1.50405 0)
(15.4457 -1.44684 0)
(15.4779 -1.36854 0)
(15.3869 -1.28162 0)
(15.3507 -1.20497 0)
(15.2539 -1.09143 0)
(14.9635 -1.05697 0)
(14.748 -1.00006 0)
(14.4074 -0.97541 0)
(13.9794 -0.98656 0)
(13.5465 -0.956409 0)
(13.0847 -1.03169 0)
(12.5336 -1.11153 0)
(11.9585 -1.13089 0)
(11.481 -1.27634 0)
(10.9988 -1.42205 0)
(10.4777 -1.45531 0)
(10.1647 -1.66868 0)
(9.93083 -1.78669 0)
(9.54403 -1.67661 0)
(9.37486 -1.7657 0)
(9.29164 -1.90363 0)
(9.03233 -1.67639 0)
(8.83081 -1.62098 0)
(8.77558 -1.7274 0)
(8.52621 -1.4127 0)
(8.35987 -1.17352 0)
(8.29029 -1.30492 0)
(7.87102 -1.11513 0)
(7.58617 -0.805829 0)
(7.61557 -0.880804 0)
(7.38587 -0.682269 0)
(6.90652 -0.398229 0)
(6.83125 -0.672245 0)
(6.5182 -0.878885 0)
(6.04396 -0.903095 0)
(6.01109 -1.37309 0)
(6.08945 -1.85501 0)
(5.8071 -2.07447 0)
(5.61485 -2.47866 0)
(6.1032 -3.2483 0)
(6.66288 -4.16633 0)
(7.47603 -4.68644 0)
(7.78184 -4.97985 0)
(8.20098 -4.96246 0)
(8.35574 -4.74934 0)
(8.52155 -4.44979 0)
(8.68172 -4.01139 0)
(8.68204 -3.59184 0)
(8.83269 -3.10293 0)
(8.72487 -2.68652 0)
(8.86631 -2.28375 0)
(8.85445 -2.01098 0)
(9.05545 -1.5139 0)
(8.99369 -1.0553 0)
(9.1474 -0.481987 0)
(8.96461 0.0730548 0)
(9.02636 0.727616 0)
(8.86319 1.21041 0)
(8.78643 1.92652 0)
(8.28339 2.59554 0)
(8.25659 3.29072 0)
(8.00359 3.81661 0)
(7.80864 4.44606 0)
(7.38687 5.05882 0)
(6.90206 5.46649 0)
(6.67811 5.59841 0)
(6.18363 6.05913 0)
(5.51158 7.19636 0)
(4.70302 8.21812 0)
(4.47716 7.86264 0)
(4.57958 6.77442 0)
(4.65792 5.96359 0)
(4.41071 5.7683 0)
(4.00719 6.2754 0)
(3.92953 7.03375 0)
(3.88563 7.62487 0)
(4.00663 7.92128 0)
(4.33976 8.24708 0)
(5.06706 7.67312 0)
(5.19386 7.4405 0)
(6.20834 6.32384 0)
(5.8053 6.427 0)
(7.25889 4.32883 0)
(6.53424 4.43159 0)
(8.17093 1.83768 0)
(6.95768 2.90698 0)
(8.65812 0.402292 0)
(7.16008 2.36822 0)
(9.23039 -0.503103 0)
(7.27422 1.75569 0)
(9.61241 -1.35374 0)
(7.35333 0.499389 0)
(10.1023 -2.61329 0)
(7.6259 -0.514592 0)
(10.4624 -3.36491 0)
(7.53922 -0.878355 0)
(10.3799 -3.71503 0)
(7.09618 -1.72997 0)
(9.83767 -4.77979 0)
(6.72701 -3.00155 0)
(9.13386 -5.40254 0)
(7.31739 -4.02035 0)
(8.11096 -5.18302 0)
(8.10957 -3.38848 0)
(7.1396 -3.60351 0)
(8.65912 -2.62316 0)
(6.30326 -2.37922 0)
(8.29077 -1.56203 0)
(6.10441 -1.16601 0)
(8.09889 -0.702816 0)
(6.31167 -0.191969 0)
(7.82014 0.194088 0)
(6.22637 0.509109 0)
(7.9619 1.0895 0)
(6.13745 1.416 0)
(8.17951 1.96505 0)
(5.73799 1.53271 0)
(7.94821 1.84522 0)
(5.54011 1.35928 0)
(7.22158 1.93097 0)
(6.33199 2.28384 0)
(6.94178 2.68029 0)
(7.55767 2.58805 0)
(6.1424 3.31785 0)
(9.28391 2.68454 0)
(6.5062 5.66805 0)
(10.9754 2.42343 0)
(8.01778 8.13515 0)
(11.202 3.05264 0)
(9.38763 8.92329 0)
(11.6106 -0.0698209 0)
(11.6213 -0.177412 0)
(11.7651 -0.254546 0)
(11.8032 -0.244269 0)
(11.9167 -0.230401 0)
(11.9707 -0.222072 0)
(12.042 -0.245482 0)
(12.1288 -0.296207 0)
(12.0897 -0.365192 0)
(12.1236 -0.481338 0)
(12.0281 -0.602297 0)
(11.9839 -0.685952 0)
(11.8614 -0.704319 0)
(11.7918 -0.726778 0)
(11.6411 -0.58616 0)
(11.4758 -0.453263 0)
(11.3342 -0.311348 0)
(11.1543 -0.0888638 0)
(11.0482 0.110498 0)
(10.9724 0.33874 0)
(11.0001 0.522049 0)
(11.0563 0.714933 0)
(11.12 0.885319 0)
(11.2249 0.989759 0)
(11.3349 1.07538 0)
(11.4398 1.11549 0)
(11.5969 1.07587 0)
(11.7664 1.01148 0)
(11.9299 0.877819 0)
(12.1359 0.650298 0)
(12.275 0.425135 0)
(12.4469 0.129418 0)
(12.6161 -0.232346 0)
(12.6648 -0.522946 0)
(12.8752 -0.857394 0)
(12.9973 -1.22555 0)
(13.0213 -1.53064 0)
(13.1253 -1.84456 0)
(13.1551 -2.06117 0)
(13.1707 -2.21781 0)
(13.2462 -2.39817 0)
(13.2439 -2.51845 0)
(13.2921 -2.62723 0)
(13.3072 -2.67965 0)
(13.2413 -2.67806 0)
(13.1972 -2.63929 0)
(13.0867 -2.59917 0)
(12.8903 -2.5509 0)
(12.8403 -2.46914 0)
(12.802 -2.48963 0)
(12.7123 -2.46602 0)
(12.7002 -2.37634 0)
(12.6601 -2.37979 0)
(12.6321 -2.32544 0)
(12.675 -2.25796 0)
(12.6885 -2.25716 0)
(12.7558 -2.19779 0)
(12.9442 -2.20987 0)
(13.1228 -2.23239 0)
(13.3205 -2.18846 0)
(13.575 -2.22618 0)
(13.8641 -2.22362 0)
(14.1081 -2.16285 0)
(14.3363 -2.14934 0)
(14.638 -2.12353 0)
(14.8433 -2.00834 0)
(15.0737 -1.90893 0)
(15.2553 -1.85011 0)
(15.3844 -1.72048 0)
(15.5496 -1.59531 0)
(15.5559 -1.52549 0)
(15.5712 -1.36381 0)
(15.5548 -1.22122 0)
(15.4688 -1.10892 0)
(15.3005 -0.963512 0)
(15.1109 -0.864088 0)
(14.8707 -0.749616 0)
(14.4643 -0.632596 0)
(14.114 -0.572442 0)
(13.6318 -0.572625 0)
(13.0691 -0.601975 0)
(12.5706 -0.613726 0)
(12.0258 -0.699465 0)
(11.4589 -0.903494 0)
(11.0014 -0.994383 0)
(10.5781 -1.06675 0)
(10.3107 -1.33716 0)
(9.90109 -1.50138 0)
(9.48666 -1.48931 0)
(9.3518 -1.63243 0)
(9.17716 -1.70958 0)
(8.86378 -1.50449 0)
(8.72766 -1.55555 0)
(8.67296 -1.60552 0)
(8.37853 -1.29097 0)
(8.36107 -1.13637 0)
(8.33343 -1.07298 0)
(7.97695 -0.660283 0)
(7.72169 -0.53846 0)
(7.56168 -0.685259 0)
(7.06328 -0.416608 0)
(6.80111 -0.282411 0)
(6.68048 -0.483549 0)
(6.08812 -0.483304 0)
(5.77184 -0.752001 0)
(5.69876 -1.33288 0)
(5.33736 -1.60202 0)
(4.92413 -1.94914 0)
(5.17272 -2.80024 0)
(5.77854 -3.81923 0)
(6.26756 -4.60923 0)
(6.69612 -5.02001 0)
(6.89083 -5.17433 0)
(7.18222 -5.12679 0)
(7.30117 -4.93428 0)
(7.54521 -4.54955 0)
(7.60916 -4.14427 0)
(7.66775 -3.60184 0)
(7.66458 -3.0991 0)
(7.66132 -2.69896 0)
(7.67141 -2.29089 0)
(7.63683 -1.97046 0)
(7.70971 -1.47824 0)
(7.5633 -1.00354 0)
(7.65473 -0.385261 0)
(7.38384 0.213417 0)
(7.29607 0.925433 0)
(7.06057 1.49724 0)
(6.83901 2.20767 0)
(6.6278 2.78226 0)
(6.77107 3.35891 0)
(6.68707 3.96471 0)
(6.49633 4.68757 0)
(6.27809 5.36785 0)
(5.9014 5.68617 0)
(5.75751 5.95223 0)
(5.17318 6.61438 0)
(4.46179 7.80496 0)
(3.92481 8.48989 0)
(3.9067 7.85041 0)
(4.12023 6.708 0)
(4.12087 6.05493 0)
(4.03907 6.04767 0)
(3.72823 6.40459 0)
(3.68274 6.97441 0)
(3.81408 7.64249 0)
(4.22746 7.63849 0)
(4.31588 7.82183 0)
(5.36383 7.118 0)
(5.58924 7.19181 0)
(6.43097 5.83558 0)
(6.21954 6.32747 0)
(7.71779 3.80042 0)
(6.92044 4.36975 0)
(8.62822 1.42499 0)
(7.47692 2.86993 0)
(9.20221 0.101494 0)
(7.77578 2.29713 0)
(9.83329 -0.640245 0)
(7.71038 1.74476 0)
(10.2402 -1.44282 0)
(7.86366 0.401079 0)
(10.5653 -2.71143 0)
(8.0699 -0.537681 0)
(10.7139 -3.41262 0)
(8.0872 -0.885401 0)
(10.7009 -3.55909 0)
(7.54613 -1.54803 0)
(10.4117 -4.7238 0)
(6.57563 -2.58039 0)
(10.305 -5.82847 0)
(6.24222 -2.95372 0)
(9.79746 -5.60201 0)
(6.34743 -2.37666 0)
(9.24356 -4.13264 0)
(6.91451 -1.99577 0)
(8.41248 -2.85254 0)
(7.42226 -1.23137 0)
(7.78143 -1.91568 0)
(8.02432 -0.451788 0)
(7.52102 -0.56258 0)