/*--------------------------------*- C++ -*----------------------------------*\
| =========                 |                                                 |
| \\      /  F ield         | OpenFOAM: The Open Source CFD Toolbox           |
|  \\    /   O peration     | Version:  2.4.0                                 |
|   \\  /    A nd           | Web:      www.OpenFOAM.org                      |
|    \\/     M anipulation  |                                                 |
\*---------------------------------------------------------------------------*/
FoamFile
{
    version     2.0;
    format      ascii;
    class       volVectorField;
    location    "0.22";
    object      UMean;
}
// * * * * * * * * * * * * * * * * * * * * * * * * * * * * * * * * * * * * * //

dimensions      [0 1 -1 0 0 0 0];

internalField   nonuniform List<vector> 
8800
(
(8.09554 0.384604 0)
(5.49528 0.241442 0)
(3.97862 0.0436901 0)
(3.2338 -0.0147049 0)
(2.88317 -0.0178573 0)
(2.68761 -0.0108568 0)
(2.57868 -0.00554148 0)
(2.48163 -0.0021931 0)
(2.4261 -0.00145526 0)
(2.36206 -0.000443933 0)
(2.33407 -0.000699104 0)
(2.28641 0.000123704 0)
(2.26969 -0.000269827 0)
(2.2277 0.0006415 0)
(2.2122 -8.54235e-05 0)
(2.173 0.0013552 0)
(2.15556 -0.000733521 0)
(2.11255 0.0025811 0)
(2.12925 -0.00196758 0)
(1.95938 -0.0312679 0)
(10.0658 0.829587 0)
(9.66473 0.856301 0)
(8.89923 0.499305 0)
(8.12852 0.257085 0)
(7.54791 0.134765 0)
(7.07846 0.0790665 0)
(6.77877 0.0510774 0)
(6.49688 0.0378462 0)
(6.33684 0.0271456 0)
(6.14673 0.0223106 0)
(6.06462 0.0163943 0)
(5.9228 0.0162491 0)
(5.87912 0.0126503 0)
(5.76129 0.0147946 0)
(5.72927 0.0124588 0)
(5.62636 0.0139622 0)
(5.5913 0.0169049 0)
(5.49553 0.00589836 0)
(5.47413 0.0265452 0)
(5.36134 -0.0613732 0)
(10.0441 0.625609 0)
(10.6518 0.850882 0)
(10.8619 0.590841 0)
(10.6949 0.365483 0)
(10.4592 0.248953 0)
(10.1025 0.189637 0)
(9.85889 0.146218 0)
(9.53406 0.115947 0)
(9.36518 0.0872239 0)
(9.10101 0.0706577 0)
(9.00767 0.0528615 0)
(8.79232 0.0481122 0)
(8.75014 0.0370623 0)
(8.56281 0.0391584 0)
(8.54698 0.0312086 0)
(8.37405 0.0363674 0)
(8.36692 0.0321097 0)
(8.19843 0.0349237 0)
(8.18809 0.0310416 0)
(8.03286 -0.0403223 0)
(9.98343 0.453218 0)
(10.5641 0.695653 0)
(11.153 0.536121 0)
(11.3636 0.344516 0)
(11.5304 0.254719 0)
(11.4399 0.219942 0)
(11.4633 0.191438 0)
(11.2821 0.167438 0)
(11.2777 0.137562 0)
(11.0713 0.11782 0)
(11.0776 0.095029 0)
(10.8682 0.0862629 0)
(10.8931 0.0707373 0)
(10.6839 0.0702956 0)
(10.7228 0.0584278 0)
(10.5133 0.0640973 0)
(10.558 0.0525555 0)
(10.3451 0.0673377 0)
(10.373 0.0401915 0)
(10.1518 0.0483148 0)
(10.0228 0.344123 0)
(10.4031 0.559235 0)
(11.031 0.453617 0)
(11.2945 0.287203 0)
(11.6264 0.203788 0)
(11.6466 0.186036 0)
(11.8402 0.171016 0)
(11.7831 0.161828 0)
(11.9369 0.136028 0)
(11.8473 0.12517 0)
(11.983 0.10053 0)
(11.873 0.0998282 0)
(11.9949 0.0790119 0)
(11.8692 0.0884985 0)
(11.9764 0.0675578 0)
(11.8394 0.0861361 0)
(11.9292 0.0603101 0)
(11.7831 0.090708 0)
(11.8385 0.0450923 0)
(11.6486 0.0665943 0)
(10.0361 0.250821 0)
(10.3184 0.448511 0)
(10.8867 0.371707 0)
(11.1709 0.241526 0)
(11.5045 0.157988 0)
(11.5803 0.146147 0)
(11.768 0.137068 0)
(11.7842 0.135631 0)
(11.9383 0.112801 0)
(11.9458 0.106792 0)
(12.0846 0.0841168 0)
(12.0876 0.0856877 0)
(12.2103 0.0680059 0)
(12.2081 0.0772154 0)
(12.3129 0.0623287 0)
(12.3056 0.0758004 0)
(12.3898 0.0606702 0)
(12.3764 0.0737538 0)
(12.4232 0.0433767 0)
(12.3375 0.00226579 0)
(9.9905 0.174233 0)
(10.3034 0.347522 0)
(10.7419 0.286211 0)
(11.1069 0.199356 0)
(11.3686 0.117114 0)
(11.5339 0.11077 0)
(11.6435 0.102982 0)
(11.7375 0.108638 0)
(11.8173 0.0858111 0)
(11.9052 0.0853061 0)
(11.9779 0.0624888 0)
(12.0635 0.0673584 0)
(12.1272 0.0496236 0)
(12.2081 0.0600768 0)
(12.2622 0.0459034 0)
(12.3382 0.0580143 0)
(12.381 0.0432195 0)
(12.4482 0.0489644 0)
(12.4606 0.0156462 0)
(12.4351 -0.0383573 0)
(9.9966 0.114843 0)
(10.2526 0.245978 0)
(10.6799 0.20378 0)
(11.0186 0.147763 0)
(11.3111 0.0823024 0)
(11.4585 0.0757528 0)
(11.5967 0.0729676 0)
(11.6586 0.0777367 0)
(11.7677 0.0621472 0)
(11.8227 0.0602103 0)
(11.9294 0.0444558 0)
(11.9802 0.0462637 0)
(12.0816 0.0348547 0)
(12.1249 0.0400495 0)
(12.2202 0.031508 0)
(12.2549 0.0361224 0)
(12.3426 0.0251085 0)
(12.3631 0.0200146 0)
(12.421 -0.00904756 0)
(12.3329 -0.0650374 0)
(9.97479 0.0643569 0)
(10.2475 0.14666 0)
(10.612 0.121846 0)
(10.9901 0.090479 0)
(11.2437 0.0483517 0)
(11.441 0.0453329 0)
(11.5364 0.0428665 0)
(11.6401 0.0476113 0)
(11.7039 0.0371071 0)
(11.8031 0.0364473 0)
(11.8646 0.0256214 0)
(11.961 0.0272517 0)
(12.0165 0.0192184 0)
(12.1064 0.0221426 0)
(12.1539 0.0150902 0)
(12.2362 0.0160005 0)
(12.2734 0.00456084 0)
(12.3412 -0.00456066 0)
(12.3416 -0.0321922 0)
(12.2977 -0.0808302 0)
(9.9854 0.0214015 0)
(10.2238 0.047898 0)
(10.6006 0.0413169 0)
(10.9535 0.0296143 0)
(11.2333 0.016609 0)
(11.4097 0.0142968 0)
(11.5302 0.0147042 0)
(11.6079 0.0151189 0)
(11.6964 0.0127172 0)
(11.7697 0.010934 0)
(11.8574 0.00807452 0)
(11.9274 0.00700565 0)
(12.01 0.00455927 0)
(12.0723 0.00282871 0)
(12.1471 -0.000680089 0)
(12.201 -0.0058814 0)
(12.2651 -0.0147274 0)
(12.3023 -0.0289633 0)
(12.3269 -0.0520072 0)
(12.2497 -0.0924472 0)
(9.98389 -0.0221343 0)
(10.2254 -0.0471227 0)
(10.599 -0.0422552 0)
(10.9551 -0.0286885 0)
(11.2318 -0.0178725 0)
(11.4113 -0.0134942 0)
(11.5286 -0.0162196 0)
(11.6098 -0.0146958 0)
(11.6944 -0.0148276 0)
(11.7718 -0.0116271 0)
(11.8553 -0.0123696 0)
(11.9294 -0.0101321 0)
(12.0078 -0.0131518 0)
(12.0737 -0.0133222 0)
(12.1443 -0.0196548 0)
(12.2012 -0.024112 0)
(12.2607 -0.0366567 0)
(12.2995 -0.048946 0)
(12.3196 -0.0734521 0)
(12.2412 -0.0980678 0)
(9.97843 -0.0646435 0)
(10.2437 -0.146485 0)
(10.6158 -0.12208 0)
(10.9855 -0.090296 0)
(11.2483 -0.0488269 0)
(11.4361 -0.0453906 0)
(11.5413 -0.0435643 0)
(11.6352 -0.0482114 0)
(11.7085 -0.038195 0)
(11.798 -0.0382686 0)
(11.8691 -0.0288422 0)
(11.955 -0.031703 0)
(12.0209 -0.0266187 0)
(12.0988 -0.0338917 0)
(12.1561 -0.0340278 0)
(12.2253 -0.046739 0)
(12.2709 -0.0537582 0)
(12.3225 -0.0740965 0)
(12.3282 -0.090042 0)
(12.2633 -0.109496 0)
(9.99004 -0.115888 0)
(10.2596 -0.244805 0)
(10.6724 -0.204867 0)
(11.0259 -0.146531 0)
(11.3034 -0.0837004 0)
(11.4659 -0.0745247 0)
(11.5889 -0.0747652 0)
(11.6664 -0.0768493 0)
(11.7591 -0.0645274 0)
(11.8304 -0.0604193 0)
(11.9199 -0.0489258 0)
(11.9871 -0.0490888 0)
(12.0709 -0.0437692 0)
(12.1302 -0.0497877 0)
(12.2055 -0.051746 0)
(12.2551 -0.0639018 0)
(12.3196 -0.0747357 0)
(12.3516 -0.0942676 0)
(12.3779 -0.113143 0)
(12.2957 -0.11783 0)
(10.0016 -0.174591 0)
(10.2929 -0.347245 0)
(10.7515 -0.286486 0)
(11.0975 -0.199189 0)
(11.3779 -0.11758 0)
(11.5246 -0.110522 0)
(11.6528 -0.103801 0)
(11.7286 -0.108996 0)
(11.8258 -0.0871977 0)
(11.8959 -0.0868132 0)
(11.9859 -0.065694 0)
(12.0531 -0.0715544 0)
(12.1336 -0.0572329 0)
(12.1949 -0.071191 0)
(12.264 -0.0642536 0)
(12.3166 -0.086085 0)
(12.3712 -0.0890868 0)
(12.4074 -0.120362 0)
(12.422 -0.131556 0)
(12.3511 -0.142122 0)
(10.0371 -0.251376 0)
(10.3173 -0.448056 0)
(10.8874 -0.372054 0)
(11.17 -0.241571 0)
(11.5053 -0.158357 0)
(11.5794 -0.146217 0)
(11.7687 -0.137634 0)
(11.7835 -0.136642 0)
(11.9381 -0.113649 0)
(11.9445 -0.10921 0)
(12.0834 -0.086299 0)
(12.0848 -0.0909351 0)
(12.2065 -0.074086 0)
(12.201 -0.0895451 0)
(12.3013 -0.0777513 0)
(12.2862 -0.104094 0)
(12.3585 -0.100375 0)
(12.3257 -0.141675 0)
(12.3424 -0.145071 0)
(12.2134 -0.172755 0)
(10.0304 -0.344913 0)
(10.396 -0.558211 0)
(11.0365 -0.454544 0)
(11.289 -0.286453 0)
(11.631 -0.204963 0)
(11.6416 -0.185097 0)
(11.8439 -0.172745 0)
(11.7784 -0.161246 0)
(11.939 -0.138429 0)
(11.8423 -0.125499 0)
(11.9823 -0.104484 0)
(11.8662 -0.102213 0)
(11.9882 -0.0871139 0)
(11.8561 -0.0967009 0)
(11.9552 -0.0848029 0)
(11.808 -0.107426 0)
(11.8726 -0.10055 0)
(11.705 -0.144169 0)
(11.699 -0.141638 0)
(11.4548 -0.187392 0)
(9.98883 -0.453632 0)
(10.5575 -0.695178 0)
(11.1592 -0.53654 0)
(11.3562 -0.344226 0)
(11.5372 -0.255328 0)
(11.4316 -0.219591 0)
(11.4708 -0.192442 0)
(11.2716 -0.167378 0)
(11.2857 -0.139096 0)
(11.0572 -0.118718 0)
(11.0841 -0.0975686 0)
(10.848 -0.0893445 0)
(10.8938 -0.0759722 0)
(10.6503 -0.0793471 0)
(10.7063 -0.069686 0)
(10.4496 -0.0861182 0)
(10.4964 -0.0795189 0)
(10.2139 -0.119504 0)
(10.2022 -0.112184 0)
(9.85508 -0.173457 0)
(10.0454 -0.625908 0)
(10.6492 -0.850604 0)
(10.8647 -0.59108 0)
(10.6908 -0.365279 0)
(10.4633 -0.249396 0)
(10.0966 -0.189383 0)
(9.86442 -0.146988 0)
(9.52446 -0.1158 0)
(9.3725 -0.088553 0)
(9.08472 -0.0709788 0)
(9.0158 -0.0552413 0)
(8.76501 -0.049593 0)
(8.75526 -0.0418952 0)
(8.51407 -0.0442969 0)
(8.53743 -0.0409799 0)
(8.28212 -0.0504324 0)
(8.31252 -0.0523306 0)
(8.01623 -0.0739618 0)
(8.00544 -0.0824394 0)
(7.63302 -0.104042 0)
(10.066 -0.829662 0)
(9.6637 -0.856232 0)
(8.90019 -0.499344 0)
(8.12664 -0.257044 0)
(7.54977 -0.134934 0)
(7.07511 -0.0790525 0)
(6.78134 -0.0513503 0)
(6.49064 -0.0379597 0)
(6.34026 -0.0276434 0)
(6.13472 -0.0227174 0)
(6.06805 -0.0174152 0)
(5.90002 -0.01741 0)
(5.87987 -0.0148575 0)
(5.71627 -0.0181935 0)
(5.71725 -0.0168786 0)
(5.53553 -0.0234537 0)
(5.53842 -0.0247444 0)
(5.30888 -0.0355107 0)
(5.29049 -0.0456566 0)
(4.95257 -0.0343768 0)
(8.09542 -0.384627 0)
(5.495 -0.24142 0)
(3.97873 -0.0436874 0)
(3.23343 0.0147 0)
(2.88348 0.0178139 0)
(2.68642 0.0108716 0)
(2.5791 0.00550693 0)
(2.47911 0.00216475 0)
(2.42623 0.00143759 0)
(2.35693 0.0003264 0)
(2.33267 0.000623606 0)
(2.27591 -0.000352406 0)
(2.26442 5.76374e-05 0)
(2.20491 -0.00123123 0)
(2.19539 -0.000574517 0)
(2.12368 -0.00252372 0)
(2.10646 -0.00165603 0)
(2.00882 -0.00446081 0)
(1.96492 -0.00632355 0)
(1.78251 0.0131324 0)
(2.37401 -0.138494 0)
(2.58256 -0.0622156 0)
(2.90125 -0.0661334 0)
(3.16025 -0.0853865 0)
(3.42141 -0.0982906 0)
(3.62942 -0.10196 0)
(3.87043 -0.112083 0)
(4.05066 -0.120854 0)
(4.26077 -0.155776 0)
(4.43491 -0.192362 0)
(4.6273 -0.228122 0)
(4.78006 -0.259077 0)
(4.95354 -0.291898 0)
(5.09589 -0.318456 0)
(5.25144 -0.345883 0)
(5.39178 -0.366572 0)
(5.54742 -0.391505 0)
(5.72048 -0.416725 0)
(5.93168 -0.443083 0)
(6.14879 -0.470965 0)
(6.37909 -0.523232 0)
(6.59498 -0.582629 0)
(6.80259 -0.65268 0)
(6.99128 -0.724317 0)
(7.1733 -0.801185 0)
(7.33273 -0.874003 0)
(7.49609 -0.948037 0)
(7.6327 -1.01518 0)
(7.78773 -1.08155 0)
(7.92484 -1.13963 0)
(8.08447 -1.19869 0)
(8.24004 -1.25418 0)
(8.40994 -1.31323 0)
(8.58377 -1.37241 0)
(8.74885 -1.43547 0)
(8.92153 -1.49852 0)
(9.06481 -1.55776 0)
(9.22241 -1.61488 0)
(9.341 -1.67025 0)
(9.48485 -1.72499 0)
(9.58311 -1.77312 0)
(9.70415 -1.81971 0)
(9.78486 -1.86117 0)
(9.88109 -1.90163 0)
(9.94799 -1.93699 0)
(10.0233 -1.96973 0)
(10.0822 -2.00087 0)
(10.1474 -2.02753 0)
(10.2021 -2.05672 0)
(10.2637 -2.07946 0)
(10.3111 -2.10839 0)
(10.3667 -2.12672 0)
(10.3969 -2.15235 0)
(10.4349 -2.16246 0)
(10.4387 -2.17964 0)
(10.4448 -2.17893 0)
(10.4192 -2.18384 0)
(10.3864 -2.17212 0)
(10.3373 -2.16704 0)
(10.2728 -2.14922 0)
(10.2141 -2.14349 0)
(10.1383 -2.12562 0)
(10.0732 -2.12205 0)
(10.0067 -2.10172 0)
(9.92045 -2.09037 0)
(9.85929 -2.05761 0)
(9.74333 -2.01822 0)
(9.66511 -1.95958 0)
(9.53972 -1.89557 0)
(9.45121 -1.82714 0)
(9.33656 -1.76253 0)
(9.2433 -1.68238 0)
(9.10979 -1.61196 0)
(9.02137 -1.52336 0)
(8.88256 -1.45543 0)
(8.80971 -1.36756 0)
(8.67389 -1.302 0)
(8.62139 -1.22977 0)
(8.5048 -1.17472 0)
(8.45679 -1.10694 0)
(8.37276 -1.04732 0)
(8.31685 -0.957609 0)
(8.25245 -0.872868 0)
(8.18741 -0.767334 0)
(8.14171 -0.659787 0)
(8.06197 -0.544873 0)
(8.02876 -0.439816 0)
(7.95809 -0.332328 0)
(7.91744 -0.236698 0)
(7.85054 -0.13279 0)
(7.80452 -0.0396913 0)
(7.74138 0.0755761 0)
(7.67712 0.175536 0)
(7.60183 0.288943 0)
(7.52587 0.383658 0)
(7.46748 0.488307 0)
(7.38761 0.566602 0)
(7.34859 0.648804 0)
(7.28365 0.69776 0)
(7.29439 0.737745 0)
(7.24144 0.745037 0)
(7.29873 0.768108 0)
(7.25571 0.735417 0)
(7.34262 0.747359 0)
(7.28873 0.746588 0)
(7.37523 0.77713 0)
(7.30551 0.783153 0)
(7.38826 0.823887 0)
(7.30275 0.836569 0)
(7.37376 0.878144 0)
(7.26491 0.88976 0)
(7.33058 0.925066 0)
(7.19075 0.918184 0)
(7.27004 0.941868 0)
(7.11131 0.910937 0)
(7.22571 0.944813 0)
(7.04576 0.913186 0)
(7.18979 0.948225 0)
(6.99571 0.911689 0)
(7.13843 0.947725 0)
(6.95177 0.901282 0)
(7.09864 0.940147 0)
(6.90873 0.882602 0)
(7.07994 0.919861 0)
(6.87587 0.846413 0)
(7.05575 0.885874 0)
(6.84776 0.800096 0)
(7.01319 0.84597 0)
(6.81808 0.759492 0)
(6.9644 0.789576 0)
(6.77941 0.700244 0)
(6.92785 0.715168 0)
(6.73943 0.61899 0)
(6.89731 0.625685 0)
(6.69819 0.513648 0)
(6.86495 0.52327 0)
(6.67425 0.40605 0)
(6.83315 0.429505 0)
(6.66224 0.318235 0)
(6.81477 0.337306 0)
(6.65687 0.238126 0)
(6.81406 0.247622 0)
(6.63774 0.166839 0)
(6.81789 0.174935 0)
(6.60735 0.0951727 0)
(6.82367 0.10363 0)
(6.57192 0.0222403 0)
(6.82364 0.0340709 0)
(6.5425 -0.0491787 0)
(6.80411 -0.0372885 0)
(6.5087 -0.115571 0)
(6.77739 -0.095345 0)
(6.47647 -0.16956 0)
(6.73924 -0.132812 0)
(6.4435 -0.193518 0)
(6.6789 -0.157082 0)
(6.42198 -0.197565 0)
(6.62992 -0.162629 0)
(6.41561 -0.186304 0)
(6.62058 -0.148703 0)
(6.45263 -0.159784 0)
(6.62836 -0.123572 0)
(6.48509 -0.118847 0)
(6.62603 -0.0624282 0)
(6.49861 -0.0416355 0)
(6.59367 0.011277 0)
(6.53345 0.0408595 0)
(6.56387 0.0899968 0)
(6.57009 0.14016 0)
(6.50852 0.191015 0)
(6.60883 0.254239 0)
(6.43183 0.314117 0)
(6.63696 0.377228 0)
(6.38662 0.467743 0)
(6.65763 0.506975 0)
(6.36153 0.64569 0)
(6.68163 0.660351 0)
(6.34609 0.849589 0)
(6.68778 0.831915 0)
(6.35304 1.08496 0)
(6.6622 1.01589 0)
(6.37958 1.34194 0)
(6.61888 1.22821 0)
(6.40963 1.61649 0)
(6.55234 1.48374 0)
(6.42899 1.91051 0)
(6.46091 1.8031 0)
(6.39178 2.21285 0)
(6.36912 2.20448 0)
(6.24572 2.52328 0)
(6.29407 2.69609 0)
(5.97807 2.88874 0)
(6.20039 3.27038 0)
(5.7357 3.4767 0)
(5.99197 3.91674 0)
(5.71832 4.55256 0)
(5.62998 4.8042 0)
(5.48016 6.17609 0)
(6.31242 7.12376 0)
(3.92321 10.1327 0)
(5.48227 -0.125209 0)
(5.4875 -0.11186 0)
(5.55642 -0.136836 0)
(5.66612 -0.175728 0)
(5.80659 -0.203737 0)
(5.93354 -0.215963 0)
(6.06145 -0.2283 0)
(6.16667 -0.242902 0)
(6.2681 -0.268551 0)
(6.35715 -0.301258 0)
(6.45178 -0.338103 0)
(6.54108 -0.373411 0)
(6.6444 -0.407804 0)
(6.74715 -0.438082 0)
(6.8637 -0.46681 0)
(6.98096 -0.494678 0)
(7.11545 -0.522834 0)
(7.24972 -0.554668 0)
(7.40231 -0.594307 0)
(7.55801 -0.636309 0)
(7.7261 -0.688655 0)
(7.89289 -0.747793 0)
(8.05419 -0.810302 0)
(8.2083 -0.875706 0)
(8.35815 -0.942373 0)
(8.49785 -1.00952 0)
(8.64132 -1.07516 0)
(8.77055 -1.14025 0)
(8.91116 -1.20363 0)
(9.03562 -1.26542 0)
(9.17957 -1.32578 0)
(9.30321 -1.38437 0)
(9.45156 -1.44428 0)
(9.57292 -1.50106 0)
(9.71546 -1.56015 0)
(9.8266 -1.61196 0)
(9.94888 -1.66624 0)
(10.0443 -1.71075 0)
(10.1369 -1.76067 0)
(10.2177 -1.80063 0)
(10.2851 -1.84662 0)
(10.3553 -1.88086 0)
(10.4063 -1.92047 0)
(10.4692 -1.94891 0)
(10.514 -1.98224 0)
(10.5691 -2.00703 0)
(10.6121 -2.03638 0)
(10.6548 -2.05907 0)
(10.6937 -2.08559 0)
(10.7167 -2.10505 0)
(10.7434 -2.12666 0)
(10.74 -2.13878 0)
(10.7454 -2.15216 0)
(10.7124 -2.15262 0)
(10.6905 -2.15582 0)
(10.631 -2.145 0)
(10.5823 -2.13796 0)
(10.5068 -2.12217 0)
(10.4435 -2.11053 0)
(10.3617 -2.09879 0)
(10.2987 -2.08768 0)
(10.2037 -2.07874 0)
(10.1418 -2.06513 0)
(10.0198 -2.04604 0)
(9.94858 -2.01918 0)
(9.80419 -1.97604 0)
(9.70562 -1.92186 0)
(9.55808 -1.8583 0)
(9.44935 -1.79783 0)
(9.31746 -1.73877 0)
(9.20182 -1.66412 0)
(9.06863 -1.59077 0)
(8.95135 -1.5109 0)
(8.82349 -1.43691 0)
(8.70123 -1.36817 0)
(8.596 -1.29057 0)
(8.46845 -1.23204 0)
(8.39678 -1.15951 0)
(8.26306 -1.10809 0)
(8.21979 -1.04229 0)
(8.09912 -0.983961 0)
(8.06427 -0.896283 0)
(7.96486 -0.821664 0)
(7.9348 -0.709676 0)
(7.84369 -0.609138 0)
(7.81631 -0.494304 0)
(7.73761 -0.399377 0)
(7.71262 -0.28385 0)
(7.62638 -0.200261 0)
(7.60801 -0.0893423 0)
(7.53069 0.000144937 0)
(7.49234 0.130626 0)
(7.40772 0.22636 0)
(7.34347 0.34886 0)
(7.26624 0.435642 0)
(7.19249 0.54654 0)
(7.1306 0.612843 0)
(7.06679 0.69103 0)
(7.05883 0.716146 0)
(7.02455 0.748208 0)
(7.05663 0.736195 0)
(7.05289 0.748195 0)
(7.11313 0.709906 0)
(7.10076 0.72599 0)
(7.17946 0.731934 0)
(7.14733 0.760566 0)
(7.23313 0.777642 0)
(7.17986 0.817395 0)
(7.26084 0.841851 0)
(7.17822 0.887136 0)
(7.26341 0.912367 0)
(7.15216 0.951823 0)
(7.23015 0.954034 0)
(7.09842 0.96931 0)
(7.17324 0.945949 0)
(7.03028 0.965526 0)
(7.11511 0.937687 0)
(6.98086 0.959457 0)
(7.07353 0.935102 0)
(6.93032 0.954465 0)
(7.04916 0.926852 0)
(6.8795 0.944604 0)
(7.03434 0.903858 0)
(6.84653 0.92301 0)
(7.02025 0.870982 0)
(6.81269 0.895808 0)
(7.01442 0.82812 0)
(6.77561 0.850276 0)
(7.00262 0.783454 0)
(6.74623 0.791524 0)
(6.97894 0.711206 0)
(6.72509 0.717904 0)
(6.96133 0.621822 0)
(6.70307 0.628973 0)
(6.96215 0.524983 0)
(6.65918 0.52327 0)
(6.96761 0.4242 0)
(6.60853 0.41642 0)
(6.97333 0.340557 0)
(6.57639 0.316685 0)
(6.98333 0.257957 0)
(6.57147 0.233825 0)
(6.99022 0.188541 0)
(6.56882 0.171087 0)
(6.98507 0.115761 0)
(6.55065 0.102218 0)
(6.96851 0.0382766 0)
(6.52478 0.0356116 0)
(6.95128 -0.0364058 0)
(6.50072 -0.0252712 0)
(6.92578 -0.106993 0)
(6.47122 -0.0804336 0)
(6.8949 -0.160326 0)
(6.42421 -0.110415 0)
(6.86856 -0.190097 0)
(6.36634 -0.120792 0)
(6.84479 -0.209231 0)
(6.32728 -0.119228 0)
(6.84119 -0.216465 0)
(6.32402 -0.117208 0)
(6.85252 -0.215683 0)
(6.35132 -0.0770038 0)
(6.84592 -0.171304 0)
(6.3619 -0.00676764 0)
(6.84197 -0.106984 0)
(6.38279 0.0703352 0)
(6.85102 -0.0398209 0)
(6.38317 0.174633 0)
(6.84413 0.0502659 0)
(6.38063 0.301115 0)
(6.83253 0.144126 0)
(6.39363 0.431446 0)
(6.81005 0.247202 0)
(6.42486 0.578147 0)
(6.7775 0.382005 0)
(6.46741 0.748515 0)
(6.75 0.542478 0)
(6.52297 0.942509 0)
(6.72542 0.730784 0)
(6.57717 1.14557 0)
(6.71858 0.955126 0)
(6.59946 1.35491 0)
(6.74179 1.22352 0)
(6.5843 1.57852 0)
(6.79287 1.52977 0)
(6.52973 1.82699 0)
(6.87178 1.8839 0)
(6.43604 2.12981 0)
(6.94709 2.2726 0)
(6.34434 2.54426 0)
(6.93138 2.66295 0)
(6.34073 3.12228 0)
(6.72958 3.06679 0)
(6.43429 3.90262 0)
(6.4342 3.71334 0)
(6.37145 4.82292 0)
(6.72184 4.96053 0)
(5.62462 6.26099 0)
(8.64575 6.20724 0)
(6.4644 10.98 0)
(8.07313 -0.147321 0)
(8.08804 -0.175808 0)
(8.13518 -0.209607 0)
(8.21906 -0.236878 0)
(8.31664 -0.252413 0)
(8.40216 -0.25999 0)
(8.46643 -0.269505 0)
(8.51095 -0.284611 0)
(8.54237 -0.308411 0)
(8.57267 -0.340419 0)
(8.60685 -0.378788 0)
(8.65067 -0.419412 0)
(8.70183 -0.460251 0)
(8.76299 -0.499467 0)
(8.83087 -0.536913 0)
(8.90823 -0.572751 0)
(8.99094 -0.60924 0)
(9.07921 -0.64717 0)
(9.16923 -0.689249 0)
(9.26565 -0.736054 0)
(9.3597 -0.78926 0)
(9.46313 -0.848969 0)
(9.55789 -0.911193 0)
(9.66356 -0.976054 0)
(9.75735 -1.04037 0)
(9.86583 -1.10593 0)
(9.95836 -1.16802 0)
(10.0676 -1.2313 0)
(10.156 -1.28995 0)
(10.2569 -1.3505 0)
(10.3379 -1.4064 0)
(10.4246 -1.4654 0)
(10.4991 -1.51957 0)
(10.5677 -1.57649 0)
(10.6359 -1.62756 0)
(10.6847 -1.67927 0)
(10.747 -1.72414 0)
(10.7787 -1.76772 0)
(10.8334 -1.80609 0)
(10.8518 -1.84165 0)
(10.8989 -1.87569 0)
(10.9141 -1.90557 0)
(10.9529 -1.93743 0)
(10.97 -1.96421 0)
(10.9977 -1.99438 0)
(11.0147 -2.01944 0)
(11.0251 -2.04723 0)
(11.0332 -2.06895 0)
(11.021 -2.09142 0)
(11.0119 -2.10665 0)
(10.9754 -2.11955 0)
(10.9436 -2.12525 0)
(10.8854 -2.1267 0)
(10.8296 -2.12102 0)
(10.7561 -2.11335 0)
(10.6842 -2.09911 0)
(10.6041 -2.08897 0)
(10.5308 -2.07309 0)
(10.4493 -2.0649 0)
(10.3809 -2.0481 0)
(10.2858 -2.03409 0)
(10.2125 -2.01181 0)
(10.0883 -1.98487 0)
(9.99221 -1.95332 0)
(9.83816 -1.90771 0)
(9.70945 -1.85972 0)
(9.54492 -1.8008 0)
(9.40868 -1.74618 0)
(9.26395 -1.6877 0)
(9.12345 -1.62931 0)
(8.9818 -1.55971 0)
(8.84049 -1.4867 0)
(8.7104 -1.40424 0)
(8.56753 -1.33667 0)
(8.45275 -1.26319 0)
(8.30663 -1.19769 0)
(8.20033 -1.13503 0)
(8.06824 -1.06941 0)
(7.97189 -1.02623 0)
(7.8748 -0.967465 0)
(7.79093 -0.917847 0)
(7.71554 -0.839945 0)
(7.65586 -0.772231 0)
(7.58158 -0.655845 0)
(7.53787 -0.571702 0)
(7.47408 -0.45114 0)
(7.43454 -0.361024 0)
(7.36577 -0.240158 0)
(7.3385 -0.16392 0)
(7.26556 -0.0443035 0)
(7.2409 0.054999 0)
(7.14751 0.198084 0)
(7.11242 0.286442 0)
(7.00971 0.418456 0)
(6.97468 0.49633 0)
(6.86919 0.606708 0)
(6.83064 0.65182 0)
(6.75951 0.718907 0)
(6.77443 0.720851 0)
(6.74045 0.747235 0)
(6.79241 0.71102 0)
(6.79983 0.719243 0)
(6.85235 0.665664 0)
(6.87681 0.697728 0)
(6.92618 0.694213 0)
(6.95689 0.741925 0)
(6.99039 0.747585 0)
(7.02875 0.811623 0)
(7.03538 0.819941 0)
(7.06919 0.897176 0)
(7.05422 0.903011 0)
(7.0727 0.979434 0)
(7.03583 0.959453 0)
(7.05525 1.00799 0)
(6.99537 0.969355 0)
(7.00904 1.01198 0)
(6.92937 0.954254 0)
(6.95706 1.00086 0)
(6.86549 0.940984 0)
(6.92967 0.988411 0)
(6.82283 0.92594 0)
(6.90296 0.966338 0)
(6.79986 0.89325 0)
(6.88302 0.943507 0)
(6.77487 0.860571 0)
(6.86699 0.920398 0)
(6.74949 0.820383 0)
(6.85532 0.883383 0)
(6.73457 0.770668 0)
(6.85869 0.833058 0)
(6.72647 0.694112 0)
(6.85532 0.762032 0)
(6.73348 0.597417 0)
(6.84888 0.672364 0)
(6.75659 0.51098 0)
(6.82898 0.577025 0)
(6.75316 0.419824 0)
(6.80576 0.465725 0)
(6.72663 0.319853 0)
(6.80716 0.357399 0)
(6.69925 0.218557 0)
(6.82871 0.275722 0)
(6.67841 0.143813 0)
(6.84475 0.21807 0)
(6.65026 0.0754948 0)
(6.85411 0.158274 0)
(6.61014 -0.000503007 0)
(6.85002 0.0995212 0)
(6.57311 -0.0731628 0)
(6.83778 0.0440637 0)
(6.53008 -0.145235 0)
(6.8186 -0.00476994 0)
(6.46377 -0.200755 0)
(6.8025 -0.0276275 0)
(6.39156 -0.235552 0)
(6.79103 -0.0353009 0)
(6.341 -0.261466 0)
(6.76631 -0.0537138 0)
(6.32513 -0.283001 0)
(6.76322 -0.0511328 0)
(6.30248 -0.275753 0)
(6.75837 -0.00183154 0)
(6.27692 -0.22288 0)
(6.7609 0.0643245 0)
(6.26427 -0.180384 0)
(6.7805 0.140686 0)
(6.25479 -0.099602 0)
(6.75982 0.247204 0)
(6.26707 0.00142093 0)
(6.72958 0.361497 0)
(6.30318 0.114168 0)
(6.69624 0.471686 0)
(6.37152 0.234938 0)
(6.6492 0.593962 0)
(6.46351 0.384023 0)
(6.60256 0.743074 0)
(6.5814 0.56148 0)
(6.54782 0.911818 0)
(6.72943 0.768332 0)
(6.47933 1.09535 0)
(6.88783 1.00275 0)
(6.40992 1.31129 0)
(7.01309 1.25459 0)
(6.36386 1.58 0)
(7.08027 1.51677 0)
(6.3536 1.90421 0)
(7.06869 1.78576 0)
(6.42109 2.30249 0)
(6.94025 2.07861 0)
(6.60328 2.77483 0)
(6.73095 2.44632 0)
(6.81594 3.2955 0)
(6.66691 2.98602 0)
(6.81486 3.84102 0)
(7.15442 3.7693 0)
(6.38323 4.77533 0)
(8.46739 4.42457 0)
(6.0232 7.0001 0)
(9.85766 4.09127 0)
(8.24349 10.0531 0)
(10.1619 -0.176221 0)
(10.1905 -0.299271 0)
(10.2559 -0.356952 0)
(10.332 -0.361132 0)
(10.405 -0.343765 0)
(10.4559 -0.324541 0)
(10.4871 -0.315793 0)
(10.5009 -0.318926 0)
(10.5105 -0.336031 0)
(10.5207 -0.363469 0)
(10.5366 -0.400853 0)
(10.5578 -0.442275 0)
(10.5828 -0.487238 0)
(10.6116 -0.530384 0)
(10.6422 -0.573543 0)
(10.676 -0.613685 0)
(10.7106 -0.654693 0)
(10.7474 -0.694557 0)
(10.7864 -0.738671 0)
(10.8284 -0.785026 0)
(10.874 -0.838389 0)
(10.9206 -0.894551 0)
(10.9699 -0.957306 0)
(11.0178 -1.01984 0)
(11.0663 -1.08637 0)
(11.1146 -1.14992 0)
(11.1581 -1.21455 0)
(11.2047 -1.27425 0)
(11.2387 -1.33395 0)
(11.2806 -1.38911 0)
(11.299 -1.44347 0)
(11.3329 -1.49501 0)
(11.3346 -1.54487 0)
(11.3596 -1.59469 0)
(11.3487 -1.64062 0)
(11.3638 -1.68803 0)
(11.3465 -1.72843 0)
(11.353 -1.77265 0)
(11.3383 -1.80722 0)
(11.337 -1.846 0)
(11.3295 -1.87537 0)
(11.32 -1.91054 0)
(11.3178 -1.93778 0)
(11.2976 -1.96947 0)
(11.2929 -1.99457 0)
(11.2584 -2.02142 0)
(11.2421 -2.04202 0)
(11.1916 -2.06061 0)
(11.1587 -2.07333 0)
(11.0946 -2.08143 0)
(11.0428 -2.08375 0)
(10.9671 -2.08084 0)
(10.8979 -2.07204 0)
(10.8136 -2.06097 0)
(10.7372 -2.04661 0)
(10.6519 -2.03491 0)
(10.5786 -2.02117 0)
(10.4909 -2.00786 0)
(10.4168 -1.99119 0)
(10.3119 -1.96748 0)
(10.2234 -1.94256 0)
(10.0936 -1.90552 0)
(9.97791 -1.86998 0)
(9.82592 -1.81872 0)
(9.6712 -1.76873 0)
(9.51071 -1.71356 0)
(9.33635 -1.66801 0)
(9.18981 -1.62172 0)
(9.00967 -1.56449 0)
(8.87192 -1.5057 0)
(8.68737 -1.43851 0)
(8.54817 -1.36612 0)
(8.37442 -1.28661 0)
(8.25347 -1.22153 0)
(8.08247 -1.14557 0)
(7.95813 -1.08874 0)
(7.80065 -1.02044 0)
(7.69599 -0.979077 0)
(7.57455 -0.936756 0)
(7.50919 -0.897375 0)
(7.40371 -0.84238 0)
(7.36799 -0.786543 0)
(7.26346 -0.70278 0)
(7.23856 -0.607593 0)
(7.14792 -0.519197 0)
(7.12779 -0.403675 0)
(7.04064 -0.306724 0)
(7.0196 -0.209399 0)
(6.94589 -0.115949 0)
(6.92238 0.00135782 0)
(6.82843 0.114561 0)
(6.81035 0.25328 0)
(6.69714 0.349815 0)
(6.6817 0.483024 0)
(6.57146 0.557972 0)
(6.55798 0.667343 0)
(6.45701 0.689794 0)
(6.4752 0.744694 0)
(6.42536 0.717131 0)
(6.46952 0.744436 0)
(6.46973 0.682728 0)
(6.52759 0.703276 0)
(6.54246 0.620018 0)
(6.61667 0.679335 0)
(6.64287 0.637704 0)
(6.72269 0.717243 0)
(6.7369 0.693512 0)
(6.81719 0.795578 0)
(6.82161 0.778736 0)
(6.88768 0.894788 0)
(6.87124 0.88096 0)
(6.91042 0.986061 0)
(6.88176 0.94241 0)
(6.91662 1.02391 0)
(6.87008 0.972703 0)
(6.89808 1.04571 0)
(6.82374 0.971726 0)
(6.84643 1.03862 0)
(6.76254 0.949921 0)
(6.81329 1.0197 0)
(6.71918 0.924613 0)
(6.79203 0.993198 0)
(6.69942 0.891553 0)
(6.76593 0.970766 0)
(6.69621 0.854891 0)
(6.7414 0.938757 0)
(6.68755 0.80103 0)
(6.73096 0.901817 0)
(6.70032 0.736851 0)
(6.74688 0.853701 0)
(6.73226 0.661627 0)
(6.75952 0.780903 0)
(6.76946 0.565143 0)
(6.7764 0.688141 0)
(6.80643 0.483297 0)
(6.80077 0.598797 0)
(6.81369 0.403514 0)
(6.81376 0.491968 0)
(6.80004 0.298583 0)
(6.82613 0.384126 0)
(6.78971 0.194389 0)
(6.83675 0.300679 0)
(6.78549 0.117382 0)
(6.84077 0.240402 0)
(6.79254 0.0588754 0)
(6.83811 0.184713 0)
(6.79924 -0.00403603 0)
(6.81958 0.120461 0)
(6.80092 -0.0686937 0)
(6.78667 0.0624146 0)
(6.78587 -0.131067 0)
(6.74179 0.0194946 0)
(6.7565 -0.174646 0)
(6.69302 -0.00497723 0)
(6.7298 -0.209353 0)
(6.64281 -0.0170499 0)
(6.72739 -0.239968 0)
(6.58968 -0.036564 0)
(6.73446 -0.273035 0)
(6.51376 -0.0356722 0)
(6.73392 -0.266159 0)
(6.43101 0.00254014 0)
(6.75432 -0.232185 0)
(6.36351 0.0564022 0)
(6.80225 -0.17469 0)
(6.26908 0.14644 0)
(6.84846 -0.0932226 0)
(6.18477 0.247129 0)
(6.90342 -0.0194447 0)
(6.12471 0.355046 0)
(6.95657 0.0743287 0)
(6.07197 0.464774 0)
(7.02332 0.191414 0)
(6.02238 0.593858 0)
(7.09054 0.331068 0)
(6.00338 0.746078 0)
(7.15298 0.492644 0)
(6.03068 0.930892 0)
(7.20457 0.66825 0)
(6.12187 1.15327 0)
(7.22322 0.855582 0)
(6.28978 1.42217 0)
(7.18981 1.06391 0)
(6.5169 1.73262 0)
(7.10518 1.31681 0)
(6.7701 2.07773 0)
(7.00944 1.62494 0)
(6.98332 2.44902 0)
(6.9937 2.00631 0)
(7.03913 2.85379 0)
(7.19215 2.44533 0)
(6.82358 3.36225 0)
(7.75937 2.89093 0)
(6.36575 4.14552 0)
(8.75003 3.11328 0)
(6.12401 5.53359 0)
(9.89784 2.91665 0)
(6.93778 7.47656 0)
(10.2456 3.06417 0)
(8.92367 8.71671 0)
(11.578 -0.162829 0)
(11.6182 -0.300689 0)
(11.738 -0.363982 0)
(11.8321 -0.369391 0)
(11.8974 -0.349383 0)
(11.9234 -0.325932 0)
(11.9331 -0.313986 0)
(11.9239 -0.317205 0)
(11.9184 -0.336102 0)
(11.9069 -0.366515 0)
(11.905 -0.406104 0)
(11.8985 -0.449593 0)
(11.9004 -0.49534 0)
(11.8975 -0.539853 0)
(11.9016 -0.583553 0)
(11.9016 -0.62545 0)
(11.9078 -0.666978 0)
(11.9116 -0.708669 0)
(11.9216 -0.752945 0)
(11.9294 -0.800514 0)
(11.9423 -0.853066 0)
(11.9493 -0.909909 0)
(11.9602 -0.971442 0)
(11.9598 -1.03492 0)
(11.9642 -1.10056 0)
(11.9532 -1.16452 0)
(11.9506 -1.22837 0)
(11.9298 -1.28705 0)
(11.9214 -1.34569 0)
(11.8944 -1.39699 0)
(11.8797 -1.44917 0)
(11.8494 -1.49363 0)
(11.8269 -1.54194 0)
(11.7974 -1.58226 0)
(11.7657 -1.62818 0)
(11.7397 -1.6665 0)
(11.6982 -1.71072 0)
(11.6772 -1.74787 0)
(11.6276 -1.7891 0)
(11.6101 -1.82453 0)
(11.5544 -1.86214 0)
(11.5356 -1.89536 0)
(11.4755 -1.92769 0)
(11.4498 -1.95658 0)
(11.3861 -1.98201 0)
(11.3484 -2.00335 0)
(11.2814 -2.01969 0)
(11.2294 -2.0307 0)
(11.1579 -2.03634 0)
(11.0896 -2.03503 0)
(11.0093 -2.02984 0)
(10.9272 -2.01734 0)
(10.8402 -2.00654 0)
(10.7547 -1.99146 0)
(10.6668 -1.98149 0)
(10.5821 -1.96709 0)
(10.486 -1.95308 0)
(10.3909 -1.93193 0)
(10.274 -1.90694 0)
(10.1584 -1.87683 0)
(10.0232 -1.84237 0)
(9.88014 -1.79929 0)
(9.73036 -1.75003 0)
(9.556 -1.69045 0)
(9.40261 -1.63668 0)
(9.21815 -1.58059 0)
(9.07237 -1.53723 0)
(8.87457 -1.481 0)
(8.71225 -1.42949 0)
(8.51279 -1.35727 0)
(8.34232 -1.29377 0)
(8.14605 -1.2145 0)
(7.98957 -1.15104 0)
(7.81307 -1.07513 0)
(7.65718 -1.01246 0)
(7.49184 -0.95318 0)
(7.35476 -0.911008 0)
(7.23668 -0.882611 0)
(7.1471 -0.862592 0)
(7.06231 -0.824744 0)
(6.98721 -0.786469 0)
(6.92334 -0.722834 0)
(6.84067 -0.646445 0)
(6.80408 -0.557954 0)
(6.72595 -0.470676 0)
(6.68132 -0.355079 0)
(6.62559 -0.267114 0)
(6.57614 -0.163451 0)
(6.52547 -0.0771484 0)
(6.48856 0.0614793 0)
(6.41719 0.158722 0)
(6.37243 0.310051 0)
(6.3091 0.383821 0)
(6.25336 0.538593 0)
(6.209 0.578525 0)
(6.14725 0.719817 0)
(6.13421 0.685911 0)
(6.10082 0.782044 0)
(6.11316 0.686806 0)
(6.10331 0.751322 0)
(6.16836 0.633236 0)
(6.16024 0.69677 0)
(6.26892 0.557022 0)
(6.25831 0.663209 0)
(6.38684 0.570716 0)
(6.36863 0.695059 0)
(6.507 0.627659 0)
(6.48578 0.778663 0)
(6.6176 0.721108 0)
(6.57947 0.896337 0)
(6.68914 0.84473 0)
(6.62534 1.00098 0)
(6.72983 0.909511 0)
(6.64464 1.05228 0)
(6.74078 0.952028 0)
(6.63823 1.09412 0)
(6.71262 0.970098 0)
(6.59595 1.10043 0)
(6.66638 0.942145 0)
(6.54915 1.07518 0)
(6.63349 0.896836 0)
(6.52273 1.0435 0)
(6.62444 0.86144 0)
(6.50238 1.01968 0)
(6.63111 0.830608 0)
(6.48707 0.987109 0)
(6.63083 0.765828 0)
(6.49651 0.943358 0)
(6.64886 0.686138 0)
(6.53266 0.890876 0)
(6.70234 0.610432 0)
(6.56981 0.810946 0)
(6.75218 0.514483 0)
(6.60897 0.722472 0)
(6.79333 0.428743 0)
(6.66282 0.646009 0)
(6.82776 0.353728 0)
(6.69829 0.553473 0)
(6.85785 0.248806 0)
(6.71281 0.448877 0)
(6.88825 0.147018 0)
(6.70288 0.364774 0)
(6.9043 0.065295 0)
(6.69634 0.298341 0)
(6.92381 0.0043909 0)
(6.68571 0.246407 0)
(6.94181 -0.0522506 0)
(6.66699 0.190103 0)
(6.94418 -0.117428 0)
(6.64867 0.136016 0)
(6.926 -0.170711 0)
(6.60399 0.100856 0)
(6.90517 -0.217562 0)
(6.55073 0.0786701 0)
(6.88231 -0.268706 0)
(6.51868 0.0594386 0)
(6.8483 -0.313487 0)
(6.49517 0.0558519 0)
(6.80336 -0.330737 0)
(6.43049 0.0799829 0)
(6.75766 -0.320189 0)
(6.37671 0.115027 0)
(6.74047 -0.301921 0)
(6.32819 0.171556 0)
(6.73069 -0.249179 0)