/*--------------------------------*- C++ -*----------------------------------*\
| =========                 |                                                 |
| \\      /  F ield         | OpenFOAM: The Open Source CFD Toolbox           |
|  \\    /   O peration     | Version:  2.4.0                                 |
|   \\  /    A nd           | Web:      www.OpenFOAM.org                      |
|    \\/     M anipulation  |                                                 |
\*---------------------------------------------------------------------------*/
FoamFile
{
    version     2.0;
    format      ascii;
    class       volScalarField;
    location    "1.04";
    object      pPrime2Mean;
}
// * * * * * * * * * * * * * * * * * * * * * * * * * * * * * * * * * * * * * //

dimensions      [0 4 -4 0 0 0 0];

internalField   nonuniform List<scalar> 
8800
(
621835
606149
589318
572632
556172
539952
523972
508230
492728
477464
462437
447644
433082
418743
404612
390663
376842
363044
349017
333981
621857
606151
589317
572631
556172
539952
523972
508230
492728
477464
462437
447645
433083
418745
404616
390671
376857
363075
349095
334236
621870
606150
589313
572628
556171
539951
523971
508230
492728
477464
462437
447646
433085
418749
404623
390686
376886
363136
349236
334731
621881
606150
589309
572625
556170
539951
523971
508230
492728
477464
462438
447648
433089
418755
404635
390707
376928
363223
349433
335307
621890
606150
589305
572622
556169
539951
523971
508230
492728
477465
462439
447650
433093
418763
404649
390735
376981
363330
349671
335903
621897
606150
589303
572620
556168
539950
523971
508230
492728
477465
462441
447652
433098
418772
404667
390767
377044
363454
349931
336485
621902
606151
589301
572618
556167
539950
523971
508230
492728
477466
462442
447655
433104
418783
404687
390804
377114
363589
350203
337038
621906
606152
589299
572616
556166
539950
523971
508230
492729
477467
462444
447659
433110
418795
404708
390844
377189
363731
350477
337554
621909
606152
589299
572615
556165
539950
523971
508230
492729
477468
462446
447662
433117
418807
404731
390886
377267
363876
350745
338028
621910
606153
589298
572615
556165
539950
523972
508231
492730
477469
462448
447666
433124
418820
404755
390929
377345
364019
351003
338460
621910
606153
589298
572615
556165
539951
523972
508231
492730
477470
462450
447670
433131
418833
404778
390972
377423
364158
351245
338850
621909
606152
589299
572616
556166
539951
523972
508231
492731
477471
462452
447674
433138
418846
404802
391013
377498
364289
351468
339198
621906
606152
589300
572617
556166
539951
523972
508232
492732
477472
462454
447678
433145
418858
404824
391053
377568
364411
351670
339505
621902
606151
589301
572618
556167
539951
523972
508232
492733
477474
462456
447681
433151
418869
404844
391089
377632
364521
351850
339772
621897
606150
589303
572620
556168
539951
523972
508233
492733
477475
462458
447684
433157
418879
404862
391122
377690
364619
352006
340000
621890
606150
589306
572623
556169
539952
523973
508233
492734
477476
462460
447687
433162
418888
404878
391150
377739
364701
352137
340189
621881
606150
589309
572626
556171
539952
523973
508234
492735
477477
462461
447690
433166
418896
404892
391174
377779
364768
352241
340339
621871
606150
589313
572629
556172
539953
523974
508234
492736
477478
462463
447692
433169
418902
404902
391192
377810
364819
352320
340451
621857
606151
589317
572631
556173
539954
523974
508235
492736
477478
462463
447693
433171
418905
404909
391204
377831
364854
352373
340525
621835
606148
589319
572632
556174
539954
523974
508235
492736
477479
462464
447693
433172
418907
404912
391210
377841
364871
352400
340562
320355
316685
313885
311464
309219
307083
305024
303021
301064
299141
297247
295378
293528
291696
289879
288074
286280
284496
282719
280951
279190
277437
275691
273952
272221
270495
268776
267062
265355
263655
261961
260275
258596
256925
255262
253607
251959
250318
248685
247058
245438
243822
242212
240606
239005
237409
235817
234230
232649
231074
229503
227938
226377
224820
223269
221722
220181
218646
217116
215591
214070
212554
211041
209533
208028
206529
205036
203548
202068
200593
199125
197662
196206
194755
193310
191872
190439
189013
187593
186180
184774
183375
181983
180597
179217
177842
176471
175106
173744
172387
171035
169686
168341
166998
165660
164324
162992
161664
160339
159019
157704
156394
155090
153793
152501
151218
149941
148672
147409
146154
144905
143663
142427
141197
139972
138754
137541
136333
135132
133936
132746
131562
130384
129212
128046
126886
125730
124582
123436
122297
121160
120027
118897
117771
116648
115528
114411
113299
112190
111086
109987
108892
107803
106719
105640
104567
103500
102438
101382
100332
99287.8
98248.9
97215
96186.6
95163.6
94145.9
93133.2
92126.4
91124.8
90129.2
89138.9
88155.6
87177.5
86207.3
85242.1
84285.1
83332.7
82389.1
81450.7
80521.2
79596.5
78681.2
77769.8
76869.1
75970.6
75084.9
74198.1
73327
72451.8
71593.1
70730.9
69883.6
69032.6
68192.2
67348.1
66509
65664.9
64822.3
63970.2
63115.9
62246.9
61368.7
60468.8
59549.3
58596.4
57607.3
56561.8
55437.8
54225.6
52759.4
322968
319058
315870
313124
310640
308318
306108
303981
301916
299902
297928
295988
294077
292190
290323
288475
286641
284821
283013
281216
279429
277652
275886
274128
272378
270637
268904
267178
265460
263749
262046
260352
258665
256987
255317
253656
252002
250356
248717
247086
245460
243841
242227
240618
239015
237416
235822
234234
232651
231074
229502
227936
226374
224818
223266
221720
220179
218643
217113
215588
214068
212552
211040
209532
208029
206531
205038
203552
202071
200596
199128
197666
196209
194759
193314
191875
190443
189017
187597
186185
184779
183381
181989
180603
179223
177848
176478
175112
173752
172395
171042
169693
168347
167005
165665
164330
162998
161670
160346
159027
157713
156404
155102
153805
152515
151232
149956
148687
147425
146169
144920
143677
142440
141209
139984
138764
137550
136342
135140
133945
132755
131572
130394
129223
128057
126898
125743
124595
123450
122311
121175
120042
118913
117786
116663
115544
114427
113315
112207
111104
110005
108911
107822
106738
105660
104587
103520
102459
101403
100353
99308.8
98270
97236.3
96208.1
95184.9
94166.6
93153.4
92145.4
91142.3
90144.8
89152.6
88166.9
87186.5
86212.9
85244.6
84283.1
83326.5
82377.1
81432.9
80495.9
79563.4
78639
77718
76806.6
75896.4
74998.7
74098.9
73213
72324.3
71448.2
70570.4
69702.5
68833.7
67969.7
67105
66240.1
65371.1
64499.1
63618.6
62729.1
61826.2
60904.5
59961.2
58985.3
57974.2
56903.3
55785.7
54515.7
53185.8
51649.9
324782
320903
317566
314626
311963
309487
307146
304905
302742
300641
298592
296585
294614
292673
290759
288867
286995
285140
283301
281476
279664
277864
276077
274300
272534
270777
269030
267292
265563
263842
262130
260427
258733
257048
255372
253704
252044
250393
248749
247112
245483
243859
242242
240630
239024
237423
235827
234237
232653
231074
229501
227933
226371
224814
223263
221716
220176
218640
217110
215585
214065
212550
211039
209532
208030
206533
205042
203556
202075
200601
199133
197670
196214
194763
193319
191880
190448
189021
187602
186190
184784
183387
181995
180610
179230
177856
176486
175120
173760
172403
171050
169701
168355
167012
165673
164337
163006
161678
160356
159038
157725
156418
155117
153822
152533
151251
149976
148707
147445
146189
144940
143696
142458
141225
139998
138777
137563
136355
135153
133957
132768
131585
130408
129238
128073
126914
125760
124612
123468
122328
121192
120059
118930
117804
116681
115561
114445
113333
112225
111122
110024
108930
107842
106759
105681
104609
103542
102481
101425
100375
99331.2
98292.6
97259.1
96231.2
95207.7
94188.7
93174.5
92165.1
91160.3
90160.7
89166.8
88178.7
87195.9
86219.2
85248.1
84282.3
83321.6
82367
81416.5
80472.1
79531.3
78597.8
77666.5
76744.3
75822.7
74911.4
74000.3
73098.5
72197.8
71303.4
70411.5
69522.4
68636.4
67749.2
66863.9
65973.5
65081.9
64180
63274.6
62350.4
61417.6
60454.2
59475.5
58444.3
57397.5
56246
55091.7
53745.8
52360.1
50860.4
326163
322386
319008
315960
313172
310576
308124
305784
303532
301352
299232
297162
295134
293142
291182
289249
287339
285451
283582
281730
279893
278071
276263
274468
272685
270914
269154
267404
265663
263933
262212
260502
258800
257108
255425
253751
252086
250429
248780
247139
245505
243877
242256
240641
239032
237429
235832
234240
232654
231074
229500
227931
226368
224811
223259
221713
220172
218637
217107
215582
214063
212548
211038
209532
208031
206536
205045
203560
202081
200607
199139
197677
196220
194769
193325
191886
190453
189027
187607
186195
184790
183393
182002
180617
179238
177863
176494
175129
173768
172412
171059
169709
168363
167020
165681
164346
163016
161689
160368
159052
157741
156435
155136
153842
152555
151274
149999
148731
147469
146212
144962
143716
142477
141243
140016
138794
137579
136370
135168
133973
132784
131601
130425
129255
128091
126932
125780
124632
123488
122348
121212
120078
118948
117821
116698
115578
114462
113350
112243
111140
110042
108949
107862
106779
105702
104630
103564
102503
101448
100398
99354.9
98316.5
97283.5
96255.5
95231.8
94211.5
93196.1
92184.7
91177.7
90176.1
89180.3
88189.6
87204.6
86224.8
85251
84281
83316.6
82356.6
81400.4
80448.4
79499.9
78557.1
77615.9
76681.8
75750
74824.7
73903.1
72985.7
72072.8
71161.2
70254.6
69345.7
68441.7
67532.4
66627.1
65711.3
64799.4
63867.7
62941
61981.1
61027.1
60018.1
59020.9
57931
56864.5
55653.5
54459.3
53110.9
51719.6
50273.5
327273
323600
320232
317133
314263
311577
309035
306610
304280
302029
299844
297715
295634
293594
291590
289618
287673
285753
283854
281976
280116
278273
276445
274633
272834
271048
269275
267513
265763
264023
262294
260575
258866
257168
255478
253799
252128
250466
248812
247166
245527
243896
242271
240653
239042
237436
235837
234244
232656
231075
229500
227930
226367
224809
223257
221711
220170
218635
217105
215581
214061
212547
211038
209533
208034
206539
205050
203566
202087
200614
199146
197684
196227
194776
193331
191891
190458
189032
187612
186201
184796
183399
182008
180624
179245
177871
176502
175138
173777
172421
171069
169719
168373
167030
165692
164357
163027
161702
160383
159068
157759
156456
155158
153866
152579
151299
150025
148757
147494
146237
144986
143739
142499
141263
140035
138812
137597
136387
135185
133990
132802
131619
130444
129274
128110
126952
125800
124652
123508
122367
121231
120096
118966
117838
116715
115594
114479
113366
112259
111156
110059
108966
107880
106797
105722
104650
103586
102525
101471
100421
99379.1
98340.4
97308.2
96279.7
95255.6
94233.9
93217.2
92203.1
91194.2
90189.9
89192.2
88198.3
87211.3
86228.4
85252
84278.4
83310.3
82345.1
81383.6
80424.4
79468.8
78516
77566.5
76620.2
75678.8
74740.4
73807.9
72876
71950.5
71022.2
70100.8
69172.5
68252.2
67319.7
66398.3
65454.8
64527.1
63563.7
62621.6
61624.3
60654.5
59604.8
58586.9
57459.6
56360
55134.7
53902.5
52584.7
51215.9
49812
328207
324624
321281
318161
315240
312487
309875
307379
304982
302668
300424
298242
296112
294027
291982
289973
287994
286044
284118
282214
280332
278468
276622
274793
272979
271179
269393
267621
265860
264111
262374
260648
258932
257227
255531
253846
252170
250502
248844
247193
245551
243915
242288
240667
239053
237445
235844
234249
232660
231078
229502
227931
226367
224809
223257
221711
220170
218635
217105
215581
214062
212549
211040
209536
208038
206544
205056
203573
202095
200622
199154
197691
196234
194782
193336
191896
190463
189036
187617
186205
184801
183404
182013
180629
179251
177878
176509
175145
173786
172431
171079
169729
168384
167042
165704
164370
163041
161717
160399
159086
157780
156478
155182
153891
152605
151325
150052
148783
147521
146262
145010
143762
142520
141284
140055
138831
137615
136405
135203
134008
132819
131637
130462
129291
128128
126970
125818
124669
123526
122384
121247
120112
118981
117853
116729
115608
114492
113379
112272
111169
110072
108980
107895
106813
105739
104668
103604
102544
101491
100443
99401.2
98361.7
97330.4
96300.7
95276.3
94253.1
93235.7
92218.7
91208.4
90201.2
89201.2
88204
87215.1
86228.7
85250.4
84272.7
83301.7
82331.5
81365.3
80398.2
79436.6
78473.6
77516.8
76559
75609
74657.3
73715.4
72767.8
71831.7
70885.4
69951.3
69002.5
68068.7
67113.5
66177.1
65209.9
64265.1
63277.1
62314.7
61293.1
60297
59226.6
58175.8
57037.3
55904.3
54687.8
53441.1
52149.6
50805.4
49430.8
329013
325502
322188
319061
316108
313308
310641
308088
305634
303265
300970
298739
296564
294439
292356
290312
288302
286323
284371
282444
280540
278657
276794
274948
273120
271307
269509
267726
265956
264198
262453
260719
258997
257285
255584
253893
252212
250539
248876
247221
245575
243936
242305
240682
239065
237455
235852
234256
232666
231083
229506
227935
226370
224812
223259
221713
220172
218637
217108
215584
214065
212552
211044
209541
208043
206550
205062
203579
202101
200628
199160
197697
196239
194787
193340
191899
190466
189039
187620
186208
184804
183407
182017
180633
179255
177883
176515
175152
173794
172440
171089
169741
168396
167054
165717
164383
163055
161732
160415
159104
157800
156500
155205
153915
152631
151351
150078
148809
147546
146286
145032
143783
142541
141304
140074
138850
137633
136423
135220
134024
132836
131653
130477
129306
128143
126984
125832
124684
123540
122398
121260
120124
118992
117863
116738
115617
114501
113388
112280
111177
110081
108990
107905
106826
105752
104682
103619
102560
101508
100459
99418.3
98377.9
97347.2
96316.6
95291.4
94267.2
93249
92229.6
91217.6
90207.9
89205.2
88205.3
87213.9
86225.1
85243.8
84262.7
83288.5
82313.8
81342.9
80369
79400.4
78429.3
77464.2
76496.9
75537.3
74574.9
73622.2
72662
71713.2
70752.7
69803.4
68839.3
67887.9
66917.6
65961.2
64979.8
64013
63010.8
62023.1
60989.4
59966
58885.2
57809.5
56667.8
55516.1
54311.5
53064.5
51787.8
50460.3
49106.5
329715
326263
322977
319851
316878
314045
311336
308737
306235
303819
301479
299205
296990
294827
292710
290634
288595
286589
284613
282664
280740
278839
276958
275098
273256
271431
269622
267828
266048
264282
262529
260789
259060
257342
255636
253939
252253
250576
248909
247251
245601
243959
242325
240698
239080
237468
235863
234265
232674
231090
229512
227940
226375
224816
223263
221717
220176
218641
217111
215588
214069
212556
211048
209545
208047
206554
205067
203584
202106
200632
199164
197700
196242
194789
193342
191901
190467
189040
187621
186209
184805
183408
182019
180636
179258
177887
176520
175158
173802
172449
171099
169752
168408
167066
165729
164395
163068
161746
160430
159121
157817
156519
155226
153937
152653
151374
150101
148831
147567
146306
145051
143801
142558
141320
140090
138865
137648
136438
135235
134038
132849
131665
130488
129317
128153
126994
125842
124692
123547
122405
121266
120130
118998
117867
116742
115620
114503
113391
112283
111181
110085
108995
107912
106834
105761
104693
103630
102571
101519
100470
99430
98388.3
97357.5
96326.5
95299.7
94275.5
93255.8
92235.2
91221.5
90209.5
89203.8
88201.7
87206.9
86216.8
85231.2
84248.2
83270.3
82291.7
81315.5
80336.6
79361.2
78384
77409.9
76434.4
75465.2
74494
73529.9
72560.2
71597.3
70626
69660.8
68684.7
67714.9
66733.1
65758.7
64766.3
63780.2
62768
61759.7
60716.2
59673.6
58585.4
57494.1
56354.4
55191.7
53995.3
52750.1
51479.9
50164.9
48827.8
330332
326926
323666
320545
317561
314703
311962
309326
306785
304329
301949
299638
297387
295190
293042
290937
288871
286840
284842
282872
280929
279011
277115
275240
273385
271548
269729
267925
266137
264363
262603
260856
259121
257397
255686
253984
252294
250613
248942
247280
245626
243982
242345
240716
239095
237482
235875
234276
232684
231098
229519
227947
226381
224822
223269
221721
220180
218645
217115
215591
214072
212559
211050
209547
208049
206556
205068
203585
202106
200633
199164
197700
196241
194788
193341
191900
190466
189039
187620
186208
184804
183408
182019
180636
179259
177888
176523
175162
173807
172455
171107
169761
168417
167076
165739
164406
163078
161757
160442
159133
157831
156533
155241
153953
152670
151392
150118
148848
147583
146321
145065
143814
142570
141332
140101
138877
137660
136449
135246
134048
132857
131672
130494
129321
128156
126996
125843
124693
123548
122404
121265
120128
118995
117865
116739
115617
114501
113388
112281
111179
110085
108996
107914
106837
105765
104698
103635
102576
101524
100476
99434.9
98392.7
97362.2
96329.7
95301.2
94278.2
93256.3
92235.4
91219.2
90206.8
89196.6
88194
87194.2
86204.2
85213.3
84229.7
83247.4
82266.9
81284.1
80301.6
79318.1
78336.3
77354.3
76372.5
75393.7
74417
73440.3
72465.3
71487.1
70508.6
69527.9
68541.8
67556.4
66563.7
65575.2
64574.8
63572.4
62553.5
61529
60478.6
59422
58329.4
57226.4
56089.9
54918.1
53724
52480.9
51214.7
49911.6
48589.1
330874
327506
324268
321154
318163
315288
312522
309856
307283
304793
302380
300035
297753
295526
293350
291219
289128
287075
285056
283067
281107
279173
277262
275374
273507
271660
269830
268018
266221
264440
262673
260919
259178
257450
255733
254028
252333
250649
248974
247309
245652
244005
242366
240735
239112
237496
235888
234288
232694
231107
229527
227954
226387
224827
223273
221725
220184
218648
217117
215593
214073
212559
211051
209547
208048
206555
205066
203582
202103
200629
199160
197696
196237
194784
193337
191896
190462
189035
187616
186204
184800
183404
182015
180633
179257
177887
176523
175164
173811
172460
171113
169767
168424
167083
165745
164412
163085
161763
160449
159141
157839
156542
155251
153963
152681
151402
150128
148857
147591
146329
145072
143820
142576
141337
140106
138882
137665
136454
135251
134052
132860
131674
130493
129319
128152
126991
125837
124687
123540
122397
121257
120119
118986
117856
116731
115609
114493
113382
112276
111175
110081
108993
107912
106836
105765
104698
103636
102576
101524
100476
99433
98392.6
97360.2
96327.4
95298.1
94276.7
93251.7
92231.7
91212.4
90201.2
89184.7
88183.4
87176.1
86188.5
85190.4
84209.1
83220.1
82240
81248.2
80265.6
79273.2
78288.2
77297.5
76312.8
75324.1
74346.6
73356.2
72379.6
71387
70403.5
69409.3
68413.3
67417.6
66416.9
65415.5
64409.2
63392.4
62368.5
61331
60275.2
59205.2
58111.5
56996.2
55860.1
54681.3
53485.7
52246.9
50986.1
49695
48386.1
331351
328013
324794
321687
318693
315806
313020
310331
307730
305213
302771
300398
298087
295834
293633
291478
289366
287292
285254
283248
281272
279323
277399
275499
273621
271763
269925
268104
266300
264511
262738
260979
259233
257500
255779
254069
252370
250682
249005
247336
245678
244028
242386
240753
239128
237511
235901
234299
232704
231116
229534
227960
226392
224831
223276
221728
220185
218648
217117
215592
214072
212557
211048
209543
208044
206550
205060
203576
202097
200623
199153
197689
196230
194777
193330
191890
190456
189030
187610
186198
184794
183397
182009
180627
179252
177884
176521
175163
173811
172462
171115
169769
168425
167084
165746
164412
163085
161764
160449
159141
157840
156544
155253
153966
152683
151404
150129
148858
147591
146328
145071
143820
142575
141336
140105
138881
137664
136453
135249
134051
132857
131669
130487
129310
128141
126978
125823
124672
123526
122382
121242
120104
118972
117842
116718
115598
114483
113373
112268
111168
110076
108988
107907
106830
105760
104692
103631
102569
101518
100470
99425.2
98387.4
97352.2
96320.8
95291.6
94270.5
93243.1
92224.6
91202.4
90192.2
89171.3
88169.3
87155.3
86168.4
85161.5
84182.1
83186.8
82209.7
81207.5
80225.8
79225.3
78241.3
77243
76256.4
75258.9
74282.3
73280.2
72302
71298.9
70309
69306.4
68300.1
67296.3
66289.4
65276.7
64271.7
63240.2
62213.9
61160.1
60101.2
59018.5
57923.7
56796.5
55656
54474.3
53277.9
52044.7
50790.7
49511.4
48215
331768
328456
325253
322152
319156
316260
313459
310751
308128
305587
303121
300724
298390
296113
293890
291714
289582
287490
285435
283413
281423
279461
277525
275614
273726
271859
270012
268183
266372
264578
262799
261034
259284
257546
255821
254108
252406
250714
249034
247363
245702
244049
242406
240771
239143
237524
235913
234309
232712
231123
229540
227965
226396
224833
223277
221728
220184
218646
217115
215588
214067
212552
211042
209536
208037
206542
205052
203568
202088
200614
199144
197680
196222
194769
193323
191883
190450
189023
187603
186190
184786
183389
182000
180619
179245
177877
176516
175160
173808
172459
171112
169765
168421
167079
165741
164406
163079
161758
160443
159134
157833
156537
155247
153959
152677
151397
150121
148850
147584
146321
145065
143813
142568
141329
140098
138874
137657
136446
135242
134042
132849
131658
130474
129296
128125
126961
125804
124651
123504
122360
121221
120084
118952
117824
116702
115583
114470
113361
112257
111159
110067
108979
107899
106821
105752
104682
103621
102558
101507
100458
99411.9
98376.4
97340.3
96310.8
95282.4
94261.5
93234.2
92213.8
91191.3
90179.4
89156.5
88150.9
87134.3
86144.2
85133.1
84149.4
83152.1
82174.9
81168.4
80184.8
79179.3
78192.4
77188.5
76201.4
75198.9
74220.3
73210.8
72229.2
71219
70225.1
69215
68203.2
67192.2
66180.7
65161.2
64151.5
63105.9
62076.6
61012.3
59949.9
58858.9
57757.8
56622.2
55477.3
54295
53100.1
51872.9
50626
49357.4
48072.5
332131
328838
325649
322554
319557
316654
313842
311118
308478
305918
303431
301013
298659
296362
294120
291925
289776
287668
285598
283562
281559
279585
277639
275718
273821
271946
270091
268256
266439
264638
262854
261085
259330
257588
255860
254143
252438
250744
249061
247387
245723
244069
242423
240786
239157
237536
235923
234317
232719
231128
229544
227967
226397
224833
223276
221725
220180
218642
217109
215582
214060
212544
211033
209527
208027
206532
205042
203558
202078
200604
199135
197671
196213
194761
193315
191876
190442
189015
187595
186182
184777
183379
181990
180608
179234
177868
176507
175152
173800
172450
171102
169754
168410
167067
165729
164394
163068
161745
160431
159121
157820
156524
155234
153946
152663
151382
150107
148836
147570
146308
145052
143801
142556
141317
140086
138861
137645
136433
135230
134029
132835
131643
130458
129277
128106
126939
125781
124626
123479
122334
121195
120059
118929
117802
116682
115565
114454
113345
112243
111145
110053
108966
107887
106808
105741
104668
103606
102542
101491
100441
99397.3
98360.4
97326.7
96295.4
95268
94248.6
93222.6
92199.3
91180.6
90163.4
89140.2
88126.5
87112.6
86113.1
85101.9
84111.9
83114.8
82135.3
81125.5
80146.5
79135.8
78146.1
77136.2
76143.7
75139.2
74155.4
73144.4
72160.1
71145.7
70150.5
69134.3
68119.2
67102
66087.6
65059.9
64040.7
62993.1
61955.9
60885.2
59814.6
58720.3
57611
56471.7
55324.5
54143
52950.8
51728.9
50489.1
49230.1
47955.3
332443
329167
325987
322898
319900
316992
314171
311435
308781
306205
303702
301267
298895
296581
294322
292112
289948
287826
285742
283694
281680
279696
277740
275810
273905
272023
270162
268321
266498
264693
262904
261131
259372
257627
255895
254175
252467
250770
249084
247409
245743
244086
242438
240799
239168
237545
235930
234323
232723
231130
229545
227966
226395
224830
223272
221720
220174
218635
217101
215573
214051
212534
211023
209517
208017
206522
205032
203547
202068
200594
199125
197661
196204
194752
193307
191868
190435
189008
187587
186173
184767
183369
181979
180596
179222
177856
176495
175139
173786
172435
171087
169738
168394
167050
165712
164377
163051
161728
160413
159103
157803
156506
155216
153927
152645
151364
150089
148817
147553
146291
145036
143785
142541
141301
140070
138845
137629
136417
135213
134011
132816
131623
130438
129256
128083
126915
125756
124600
123452
122306
121168
120033
118904
117779
116660
115544
114434
113326
112225
111127
110037
108950
107871
106793
105725
104652
103589
102523
101473
100418
99378.9
98342
97310.1
96277.1
95251.6
94230.7
93206.8
92179.2
91167.3
90143.3
89121
88104.1
87091.5
86074.5
85069.1
84070.1
83071
82091.3
81084
80099.4
79089.4
78098.9
77082.7
76082.5
75079.9
74087.8
73080.1
72094.5
71076
70081.5
69062.2
68044.5
67024.6
66005.8
64973.5
63946.4
62894.3
61844.3
60775.4
59694.7
58600.1
57484.7
56345
55197.2
54017.3
52827.2
51609.9
50377
49126.1
47860.1
332708
329444
326272
323186
320188
317275
314447
311702
309038
306449
303932
301483
299097
296770
294496
292273
290096
287962
285867
283809
281784
279791
277828
275891
273979
272090
270224
268377
266550
264740
262947
261170
259408
257660
255925
254202
252492
250793
249105
247427
245759
244100
242450
240809
239176
237552
235935
234326
232724
231130
229543
227964
226391
224825
223266
221713
220167
218627
217093
215564
214042
212525
211013
209507
208007
206511
205021
203537
202058
200584
199115
197652
196195
194744
193299
191861
190428
189000
187579
186164
184758
183358
181967
180584
179209
177841
176480
175123
173768
172416
171066
169718
168374
167030
165691
164357
163030
161707
160392
159083
157783
156486
155196
153908
152625
151344
150070
148798
147534
146273
145019
143767
142523
141284
140052
138827
137610
136398
135193
133992
132795
131602
130416
129234
128060
126891
125731
124574
123425
122279
121141
120007
118879
117754
116636
115522
114413
113307
112207
111109
110020
108932
107854
106775
105707
104632
103571
102505
101450
100396
99359.2
98319
97289.9
96256.1
95229.6
94209
93189.2
92160
91146.9
90113.8
89103.7
88076.6
87058.2
86036.4
85038.9
84033.2
83033.5
82043.9
81037.9
80044.8
79041.6
78042.5
77029.3
76023.3
75024.6
74023.6
73020.7
72026.6
71013.9
70015.7
68998
67980.2
66961.7
65936.9
64896
63860.5
62806.6
61748.6
60679.3
59592.2
58499.8
57380.5
56241.9
55093.5
53915.3
52726.9
51513.8
50286.8
49042.1
47784.1
332928
329674
326506
323422
320423
317507
314675
311923
309250
306652
304124
301664
299266
296927
294642
292408
290220
288076
285972
283905
281873
279872
277902
275958
274041
272147
270276
268425
266594
264780
262984
261204
259439
257688
255950
254225
252512
250811
249121
247441
245771
244111
242459
240816
239182
237556
235938
234327
232724
231129
229541
227960
226386
224819
223260
221706
220160
218619
217084
215556
214033
212516
211004
209498
207997
206502
205012
203527
202048
200574
199106
197644
196187
194736
193292
191854
190420
188993
187571
186156
184748
183348
181956
180572
179195
177826
176462
175104
173747
172394
171043
169696
168351
167008
165669
164336
163008
161686
160371
159064
157763
156467
155177
153889
152606
151326
150050
148780
147515
146255
145000
143749
142504
141265
140032
138808
137590
136380
135173
133972
132775
131583
130395
129213
128039
126870
125708
124552
123401
122256
121117
119983
118854
117731
116613
115500
114391
113287
112187
111091
110001
108914
107834
106756
105685
104611
103549
102484
101432
100379
99336.9
98297.7
97267.2
96232.4
95208.8
94186.2
93165
92135.7
91123.4
90086.7
89072.7
88035.7
87028.1
86005.5
85006.2
83998.6
82993.9
81988.3
80989.9
79993.8
78992
77981.8
76981.3
75973.7
74972.3
73968.2
72969
71965
70963
69954.1
68941.9
67924.2
66905.5
65872.8
64830.2
63789.4
62728.6
61666.7
60598.2
59510.5
58416.3
57297.9
56160.8
55011.5
53835.2
52647.5
51438.7
50215.4
48975.6
47724.3
333103
329856
326691
323607
320607
317690
314854
312098
309419
306813
304277
301808
299401
297053
294759
292516
290320
288168
286056
283982
281944
279937
277961
276013
274091
272193
270318
268463
266629
264812
263013
261230
259463
257709
255970
254243
252528
250825
249133
247452
245780
244118
242465
240821
239186
237558
235939
234327
232723
231127
229538
227956
226382
224815
223254
221700
220153
218612
217077
215548
214025
212508
210996
209490
207989
206493
205003
203519
202040
200566
199098
197636
196180
194729
193285
191847
190414
188986
187564
186149
184741
183340
181947
180561
179182
177812
176445
175086
173727
172374
171022
169675
168329
166987
165649
164317
162989
161668
160353
159046
157745
156450
155159
153872
152588
151310
150033
148764
147498
146239
144983
143733
142487
141249
140015
138791
137572
136362
135155
133955
132756
131565
130377
129196
128021
126854
125690
124534
123382
122237
121096
119962
118832
117710
116590
115479
114370
113268
112167
111072
109980
108894
107812
106734
105661
104590
103527
102467
101411
100358
99316.8
98274.5
97241.3
96210.3
95186.3
94158.3
93135.3
92108.2
91090.5
90053.1
89039.6
88007.8
87003.4
85967.9
84971
83954.5
82948.1
81949.1
80950.6
79942.2
78941.5
77929.9
76935
75925.5
74928.1
73922.8
72924.5
71915.9
70919.2
69899.8
68893.6
67872.9
66858.3
65816.2
64774.9
63726.6
62666.9
61604
60533.7
59446.2
58351.6
57236.9
56099.2
54949.8
53774.5
52587
51381.3
50160.5
48924.9
47678.6
333234
329992
326827
323744
320744
317826
314988
312228
309545
306933
304392
301916
299503
297147
294847
292597
290395
288237
286120
284041
281997
279986
278006
276054
274129
272228
270349
268492
266655
264836
263035
261250
259480
257725
255984
254256
252540
250835
249142
247459
245786
244123
242469
240824
239188
237560
235939
234327
232722
231125
229536
227954
226379
224811
223250
221696
220149
218607
217072
215543
214020
212502
210990
209483
207982
206487
204997
203512
202033
200559
199091
197629
196173
194723
193279
191841
190408
188980
187558
186143
184734
183334
181940
180553
179173
177800
176431
175070
173710
172357
171004
169658
168311
166971
165632
164302
162973
161654
160338
159032
157729
156436
155143
153859
152574
151297
150020
148751
147484
146226
144969
143721
142473
141236
140001
138778
137557
136348
135140
133941
132743
131554
130365
129186
128009
126843
125678
124523
123369
122224
121080
119946
118814
117692
116571
115460
114351
113250
112148
111054
109961
108876
107791
106714
105638
104572
103506
102449
101391
100341
99294.7
98253
97218.8
96186.6
95158.5
94130.3
93107.3
92078.7
91057.2
90026.8
89010.2
87977.8
86973.9
85935.7
84937.7
83913.3
82914.2
81908.9
80906.4
79899
78900.7
77889.1
76895
75886
74892.1
73884.1
72887.8
71877.1
70879.7
69858.8
68856.1
67830.5
66815.2
65768
64733.2
63679.1
62620.9
61556.3
60485.6
59404.1
58305.8
57194.9
56055.5
54906.9
53730.8
52544.4
51340.4
50121.1
48888.4
47645.3
333318
330079
326918
323835
320836
317917
315077
312315
309628
307014
304468
301988
299570
297210
294905
292651
290445
288283
286162
284080
282033
280019
278036
276082
274154
272250
270370
268511
266672
264852
263049
261263
259492
257736
255993
254264
252547
250842
249147
247464
245790
244127
242472
240826
239189
237561
235940
234327
232722
231125
229535
227953
226377
224809
223248
221694
220146