/*--------------------------------*- C++ -*----------------------------------*\
| =========                 |                                                 |
| \\      /  F ield         | OpenFOAM: The Open Source CFD Toolbox           |
|  \\    /   O peration     | Version:  2.4.0                                 |
|   \\  /    A nd           | Web:      www.OpenFOAM.org                      |
|    \\/     M anipulation  |                                                 |
\*---------------------------------------------------------------------------*/
FoamFile
{
    version     2.0;
    format      ascii;
    class       volScalarField;
    location    "0.45";
    object      nuSgs;
}
// * * * * * * * * * * * * * * * * * * * * * * * * * * * * * * * * * * * * * //

dimensions      [0 2 -1 0 0 0 0];

internalField   nonuniform List<scalar> 
8800
(
0.00133936
0.0015058
0.00139379
0.00122735
0.00112307
0.00104772
0.00100038
0.000956102
0.000930487
0.000899848
0.000884738
0.000862351
0.00085378
0.000835042
0.000827495
0.000811313
0.000803155
0.000786921
0.000776442
0.000751315
0.000556995
0.000980388
0.001084
0.00108077
0.00106468
0.00103044
0.00100559
0.000972756
0.000954094
0.000926212
0.000912731
0.000890214
0.000881952
0.000863481
0.000857365
0.000842469
0.000837466
0.000823967
0.000815767
0.000809341
0.000136543
0.000402089
0.000587368
0.00065515
0.000709225
0.000733439
0.00075463
0.00075812
0.000760943
0.000757908
0.000756391
0.000748982
0.000746461
0.000739175
0.000737591
0.000729672
0.000729054
0.000722842
0.000720651
0.000714977
2.721e-05
0.00012431
0.00023816
0.000304577
0.000359793
0.000393488
0.000429786
0.000454133
0.000475589
0.000489851
0.000508971
0.000516475
0.000526644
0.000534833
0.000545967
0.0005492
0.000556799
0.000561826
0.000567755
0.000569771
5.21217e-06
3.31077e-05
6.93969e-05
0.000108652
0.000138968
0.00016674
0.000187087
0.000216325
0.000229937
0.000250377
0.000266049
0.000282965
0.000290291
0.00030664
0.00031693
0.000333459
0.0003407
0.000358133
0.000364861
0.000380426
2.35578e-06
8.29679e-06
1.77698e-05
3.13543e-05
3.97515e-05
5.33968e-05
6.17208e-05
7.78481e-05
8.51519e-05
9.88024e-05
0.000106388
0.000120024
0.000125115
0.000136679
0.000143029
0.000156623
0.000162522
0.000177247
0.000183108
0.000196663
2.18423e-06
3.11156e-06
5.10606e-06
8.69703e-06
1.05831e-05
1.40898e-05
1.64637e-05
2.14613e-05
2.40346e-05
2.92863e-05
3.21769e-05
3.80348e-05
4.02818e-05
4.50052e-05
4.81265e-05
5.48549e-05
5.82443e-05
6.6834e-05
7.03254e-05
7.66957e-05
2.15636e-06
2.62421e-06
3.15017e-06
4.08278e-06
4.45892e-06
5.14902e-06
5.5092e-06
6.42501e-06
6.80289e-06
7.49918e-06
8.26658e-06
1.03852e-05
1.10074e-05
1.19057e-05
1.25156e-05
1.40284e-05
1.52585e-05
1.88935e-05
2.04891e-05
2.16734e-05
2.1468e-06
2.51722e-06
2.88938e-06
3.64354e-06
4.0284e-06
4.06187e-06
4.04104e-06
4.03559e-06
4.08921e-06
4.22883e-06
4.57292e-06
4.88552e-06
4.90227e-06
4.82693e-06
4.79299e-06
4.8474e-06
5.04595e-06
5.81322e-06
6.19889e-06
6.36098e-06
2.13302e-06
2.53908e-06
2.93881e-06
3.36739e-06
3.6681e-06
3.8668e-06
3.90244e-06
3.89296e-06
3.88656e-06
3.90683e-06
3.95893e-06
4.01492e-06
4.17865e-06
4.30776e-06
4.35644e-06
4.35793e-06
4.33832e-06
4.28964e-06
4.28131e-06
4.32551e-06
2.13211e-06
2.44111e-06
3.21044e-06
3.55079e-06
3.49474e-06
3.54653e-06
3.91275e-06
4.09204e-06
4.07818e-06
3.95864e-06
3.94249e-06
4.1025e-06
4.29698e-06
4.29298e-06
4.21754e-06
4.1928e-06
4.18962e-06
4.214e-06
4.33707e-06
4.67223e-06
2.14199e-06
2.46361e-06
3.03851e-06
3.49592e-06
3.88238e-06
4.14828e-06
4.18849e-06
4.15889e-06
4.12324e-06
4.21362e-06
4.5801e-06
4.85566e-06
4.90865e-06
4.96242e-06
5.02326e-06
5.23319e-06
5.43429e-06
5.84928e-06
6.28215e-06
7.23814e-06
2.15836e-06
2.53309e-06
3.25736e-06
4.65918e-06
4.84977e-06
4.88938e-06
5.04e-06
5.52015e-06
6.44537e-06
8.90573e-06
9.63667e-06
1.03921e-05
1.08579e-05
1.1994e-05
1.27318e-05
1.47183e-05
1.60899e-05
1.89788e-05
2.10066e-05
2.53204e-05
2.18548e-06
3.09597e-06
5.62664e-06
1.00575e-05
1.10786e-05
1.30246e-05
1.54773e-05
2.03724e-05
2.38784e-05
3.13976e-05
3.38517e-05
3.82519e-05
4.0731e-05
4.60122e-05
4.86358e-05
5.5225e-05
5.93708e-05
6.81727e-05
7.30749e-05
8.45542e-05
2.34734e-06
8.28055e-06
1.9574e-05
3.50663e-05
4.03635e-05
5.09109e-05
6.02317e-05
7.5711e-05
8.49991e-05
0.000103255
0.000108851
0.000119531
0.000125459
0.000138045
0.00014365
0.000157113
0.000164291
0.00018007
0.000187981
0.000207633
5.21158e-06
3.30654e-05
7.4877e-05
0.000115007
0.000133031
0.00016272
0.000190588
0.000212262
0.000230194
0.000256695
0.00026527
0.000281778
0.000290986
0.000309499
0.000316735
0.000334475
0.000343083
0.000362521
0.00037108
0.000392022
2.72249e-05
0.000123843
0.000242434
0.0003051
0.00035481
0.000394171
0.000431612
0.000451244
0.000475765
0.000495909
0.000504957
0.000516563
0.000527619
0.000537973
0.000542456
0.000552906
0.000557617
0.000568247
0.000571968
0.000580814
0.000136554
0.000400465
0.000589903
0.000653759
0.000708637
0.000733383
0.000755643
0.000757171
0.000761928
0.000758308
0.000756139
0.000748466
0.000746768
0.000739804
0.000737524
0.000731185
0.000729931
0.00072559
0.000723545
0.000718877
0.000556848
0.000980609
0.00108431
0.0010804
0.00106478
0.0010294
0.00100689
0.00097229
0.000955238
0.000924043
0.000913701
0.000889201
0.000881638
0.000862231
0.000857606
0.000840311
0.000836324
0.000820353
0.00081472
0.000800348
0.0013391
0.00150611
0.00139389
0.00122664
0.00112425
0.0010463
0.00100125
0.000955574
0.000931469
0.000897073
0.000886127
0.000860226
0.000853636
0.000831053
0.000827329
0.000805009
0.000799747
0.00077436
0.000765288
0.000733558
0.000342588
0.000290736
0.000256929
0.00023584
0.000222611
0.000214512
0.000209066
0.000205242
0.000202209
0.000200091
0.000198117
0.00019696
0.000196115
0.000196289
0.000196813
0.000198109
0.000200621
0.000204178
0.000208098
0.000207907
0.000205009
0.000196446
0.000181449
0.000166288
0.000153324
0.000142385
0.000130151
0.000119067
0.000111105
0.000104595
9.93161e-05
9.85512e-05
9.93804e-05
0.000102146
0.000108021
0.000114615
0.00012179
0.000129392
0.000135319
0.000140545
0.000144411
0.000148088
0.000149686
0.000152041
0.000152091
0.000152536
0.000151645
0.0001515
0.000150389
0.000150079
0.000149281
0.000149066
0.000148675
0.000148636
0.000148816
0.000149212
0.000149612
0.000150479
0.000151617
0.000152183
0.000153546
0.000154039
0.000155137
0.000155984
0.00015623
0.000157239
0.000157323
0.000157355
0.000157465
0.000156921
0.000155273
0.00015384
0.000149989
0.000146056
0.000141929
0.000137014
0.000131992
0.00012935
0.000126466
0.000123359
0.000121676
0.000122197
0.000123004
0.00012363
0.00012554
0.000127909
0.00012919
0.000131348
0.000134258
0.000134747
0.000135557
0.000135577
0.000135641
0.000134616
0.00013408
0.000132675
0.000131688
0.00012883
0.000126786
0.000122814
0.000117534
0.000110838
0.000102924
9.07002e-05
7.82549e-05
6.44339e-05
5.27844e-05
4.29511e-05
3.4954e-05
2.85532e-05
2.34195e-05
1.97158e-05
1.69755e-05
1.52328e-05
1.42416e-05
1.39791e-05
1.40499e-05
1.42712e-05
1.49189e-05
1.63966e-05
1.78246e-05
2.07124e-05
2.25456e-05
2.59693e-05
2.77075e-05
3.01004e-05
3.10331e-05
3.14459e-05
3.11055e-05
3.0439e-05
2.88064e-05
2.7428e-05
2.56865e-05
2.3778e-05
2.31292e-05
2.30183e-05
2.34276e-05
2.47861e-05
2.79165e-05
2.93352e-05
3.51875e-05
3.82371e-05
4.12264e-05
4.65248e-05
4.99095e-05
4.97188e-05
4.58107e-05
4.38905e-05
4.3308e-05
4.744e-05
6.84488e-05
0.000113512
0.00013261
0.000136253
0.000135939
0.00013407
0.000129732
0.000124691
0.000120427
0.000116119
0.00011552
0.000116309
0.00011696
0.000116179
0.000114384
0.000110376
0.000103252
8.41307e-05
7.0621e-05
6.69148e-05
6.70966e-05
7.03736e-05
7.84073e-05
9.11722e-05
0.000101725
0.000105856
0.000105154
0.00010171
9.86882e-05
9.7169e-05
9.55722e-05
9.26778e-05
8.69464e-05
8.06598e-05
7.72438e-05
7.68998e-05
7.6637e-05
7.1538e-05
6.41167e-05
6.4089e-05
6.69604e-05
7.2575e-05
7.61143e-05
8.16599e-05
8.32736e-05
9.23142e-05
0.000124059
0.000133956
0.000162485
0.000245744
0.000406944
0.000367446
0.000335931
0.000311977
0.000293301
0.000278982
0.000267404
0.000258062
0.000250042
0.000243265
0.000237373
0.000232265
0.000227754
0.000223677
0.000220372
0.000217322
0.000215605
0.000214147
0.000213581
0.000213408
0.000213502
0.000213065
0.000211652
0.000208366
0.000204638
0.000200012
0.000196224
0.000191373
0.000185963
0.000180913
0.00017593
0.000171953
0.000168735
0.000167272
0.000167308
0.000167935
0.00016868
0.000170274
0.000170931
0.000172355
0.000172736
0.00017372
0.000173854
0.00017446
0.000174428
0.000174563
0.000174344
0.000174126
0.000173534
0.000173154
0.000172207
0.000171817
0.000170904
0.000170217
0.00016994
0.000169161
0.000168824
0.000168381
0.000167851
0.000167734
0.000167227
0.000167078
0.000166795
0.000166749
0.000166645
0.000166675
0.000166866
0.000166928
0.00016698
0.000167335
0.000167046
0.000166861
0.00016635
0.000165493
0.000164499
0.000162503
0.000161527
0.000159437
0.000157312
0.000156517
0.000155198
0.000152955
0.000151983
0.000151273
0.000149316
0.000148199
0.000147399
0.000145836
0.000143637
0.00014281
0.000140726
0.000138368
0.000136237
0.000133619
0.000128115
0.000125157
0.000119196
0.000112153
0.000103092
9.32967e-05
8.18754e-05
6.93474e-05
5.83912e-05
4.86199e-05
4.03034e-05
3.328e-05
2.74221e-05
2.2828e-05
1.8998e-05
1.65065e-05
1.45399e-05
1.35632e-05
1.29579e-05
1.30103e-05
1.31625e-05
1.37263e-05
1.46766e-05
1.62196e-05
2.01707e-05
2.29317e-05
2.77533e-05
3.19878e-05
3.69699e-05
4.07144e-05
4.49572e-05
4.75463e-05
4.89623e-05
4.89195e-05
4.83994e-05
4.64583e-05
4.47564e-05
4.22173e-05
3.83148e-05
3.48141e-05
3.23823e-05
2.93417e-05
2.87144e-05
2.90377e-05
3.03181e-05
3.13474e-05
3.69576e-05
3.83207e-05
4.28896e-05
4.91472e-05
5.07497e-05
4.852e-05
4.6166e-05
4.64866e-05
4.94633e-05
6.86971e-05
0.000117613
0.00013922
0.000140898
0.00013913
0.000134649
0.000125118
0.000115719
0.000106691
0.00010246
9.80947e-05
9.56696e-05
9.59217e-05
9.7702e-05
0.000102155
0.00010773
0.000107776
0.000106253
0.00010197
9.12503e-05
7.56206e-05
6.90577e-05
6.78094e-05
6.87399e-05
7.21399e-05
7.87459e-05
8.90191e-05
9.53296e-05
9.55455e-05
9.44326e-05
9.30919e-05
9.11295e-05
8.94465e-05
8.40994e-05
7.86614e-05
7.31722e-05
7.24685e-05
7.19595e-05
6.95816e-05
6.30998e-05
6.20515e-05
6.47449e-05
6.74667e-05
7.05194e-05
7.17816e-05
7.82361e-05
8.05094e-05
0.000116822
0.000126896
0.000183772
0.000219918
0.000370173
0.000346492
0.000325154
0.000307714
0.000293466
0.000281265
0.000271095
0.000261886
0.000254108
0.000246719
0.000240564
0.00023443
0.000229566
0.000224319
0.000220605
0.000216178
0.000213539
0.000210178
0.000208465
0.000206353
0.000205368
0.000204155
0.000203417
0.000202008
0.000200583
0.000198956
0.000197087
0.000195639
0.000193547
0.000191735
0.000189566
0.000187425
0.000185306
0.000183273
0.00018173
0.000180505
0.000179495
0.000178786
0.000178151
0.00017767
0.00017722
0.000176832
0.000176175
0.000175946
0.000175167
0.000174852
0.000174202
0.000173742
0.000173105
0.00017235
0.000171906
0.000170841
0.000170373
0.000169481
0.000168798
0.000168047
0.000167085
0.000166613
0.000165505
0.000164918
0.000163984
0.000163422
0.000162697
0.000161824
0.00016161
0.000160812
0.000160593
0.000160283
0.000159859
0.000159984
0.000159813
0.00015957
0.000159621
0.000159077
0.000158831
0.000158211
0.000157156
0.000156458
0.000155412
0.000153139
0.000152081
0.000150326
0.000148104
0.000146417
0.000143626
0.000140669
0.000138823
0.000134909
0.000130257
0.00012796
0.000122472
0.00011707
0.000111341
0.000103168
9.49146e-05
8.67436e-05
7.55852e-05
6.63858e-05
5.75962e-05
4.9572e-05
4.22922e-05
3.58887e-05
3.02355e-05
2.54705e-05
2.13961e-05
1.80737e-05
1.56665e-05
1.38041e-05
1.26606e-05
1.20384e-05
1.19956e-05
1.21266e-05
1.24332e-05
1.32114e-05
1.4584e-05
1.76726e-05
2.06765e-05
2.46712e-05
3.22538e-05
3.66621e-05
4.52227e-05
5.07724e-05
5.92348e-05
6.40756e-05
6.98076e-05
7.24728e-05
7.29678e-05
7.24055e-05
7.11086e-05
6.69758e-05
6.43781e-05
5.98855e-05
5.39045e-05
5.09709e-05
4.65811e-05
4.19658e-05
4.12391e-05
3.7887e-05
3.73079e-05
3.74466e-05
4.08934e-05
4.08047e-05
4.73538e-05
4.90641e-05
5.06509e-05
4.87757e-05
5.02582e-05
5.13933e-05
6.73696e-05
0.000113849
0.000141691
0.00014625
0.000143343
0.000134186
0.000121902
0.000109432
0.00010041
9.56151e-05
9.17775e-05
8.99877e-05
8.73929e-05
8.57569e-05
8.57634e-05
8.65936e-05
8.9398e-05
9.60938e-05
0.00010124
0.000100675
9.81376e-05
9.23308e-05
7.78928e-05
7.05916e-05
6.78655e-05
6.76522e-05
6.86842e-05
7.24506e-05
7.8557e-05
8.13079e-05
8.15512e-05
8.14295e-05
8.04323e-05
7.98079e-05
7.67712e-05
7.40212e-05
6.86891e-05
6.67233e-05
6.71541e-05
6.59284e-05
6.81415e-05
6.50617e-05
7.29887e-05
6.95627e-05
7.68624e-05
7.31898e-05
8.90406e-05
8.54889e-05
0.000118588
0.000125721
0.000150593
0.000192888
0.000301032
0.000287467
0.000273974
0.000262579
0.000253418
0.000244854
0.000237693
0.000230606
0.000224614
0.000218408
0.000213193
0.000207615
0.000203056
0.000198215
0.000194315
0.000190351
0.000187245
0.000184211
0.000181923
0.000179675
0.000178048
0.000176598
0.0001755
0.000174563
0.000173799
0.00017287
0.000172313
0.000171187
0.000170463
0.000168871
0.000167809
0.00016571
0.00016417
0.000162353
0.000160466
0.000159264
0.000157544
0.000156485
0.000155458
0.000154197
0.000153696
0.000152728
0.000151998
0.000151584
0.0001506
0.000150208
0.000149432
0.000148838
0.000148214
0.000147322
0.000146889
0.000145827
0.00014532
0.000144338
0.00014364
0.00014293
0.000141649
0.000141105
0.00014014
0.000138955
0.000138421
0.000137111
0.000136406
0.000135631
0.000134486
0.000134151
0.000133243
0.00013298
0.000132183
0.000132078
0.000131892
0.000131474
0.000131489
0.000131377
0.000130783
0.000130627
0.000129648
0.000128921
0.000127596
0.000125528
0.000124079
0.000122029
0.000118001
0.000115826
0.000112469
0.000106931
0.000103945
9.79253e-05
9.17539e-05
8.65974e-05
7.88232e-05
7.16205e-05
6.55649e-05
5.81657e-05
5.19337e-05
4.61025e-05
4.01319e-05
3.50119e-05
3.01996e-05
2.60297e-05
2.22151e-05
1.90824e-05
1.64087e-05
1.43538e-05
1.26346e-05
1.16593e-05
1.09559e-05
1.09027e-05
1.09902e-05
1.12459e-05
1.17336e-05
1.30995e-05
1.47182e-05
1.82206e-05
2.16585e-05
2.81149e-05
3.29418e-05
4.15491e-05
5.02696e-05
5.81075e-05
7.26608e-05
8.12505e-05
9.1611e-05
9.81238e-05
0.000103819
0.000104579
0.000104197
0.000102776
9.96723e-05
9.42182e-05
9.01632e-05
8.16652e-05
7.38247e-05
6.63772e-05
5.87296e-05
5.35107e-05
4.95195e-05
4.65542e-05
4.81317e-05
4.89548e-05
4.86909e-05
4.70229e-05
5.03116e-05
4.91228e-05
5.02832e-05
4.93773e-05
5.28617e-05
5.67743e-05
0.000105212
0.000137946
0.000151003
0.000148743
0.000137755
0.000120774
0.00010941
9.88211e-05
9.23404e-05
8.99223e-05
8.74589e-05
8.52311e-05
8.40081e-05
8.21826e-05
8.00455e-05
7.98781e-05
8.04033e-05
8.23599e-05
8.69984e-05
9.50278e-05
9.57921e-05
9.43246e-05
9.04765e-05
7.91804e-05
7.11705e-05
6.83313e-05
6.64253e-05
6.66075e-05
6.84054e-05
7.10677e-05
7.10412e-05
7.14069e-05
7.05346e-05
7.1191e-05
6.95035e-05
6.99165e-05
6.91944e-05
6.72825e-05
7.11566e-05
6.95913e-05
7.86802e-05
7.77971e-05
9.59972e-05
8.83721e-05
0.000109052
9.42699e-05
0.000110936
0.000102705
0.000107811
0.00012256
0.000129234
0.000155813
0.000203645
0.000197358
0.000189797
0.000183215
0.000178172
0.000173728
0.000170018
0.000166581
0.000163113
0.000159992
0.000156329
0.000153231
0.000149553
0.000146422
0.000143273
0.000140257
0.00013801
0.000135623
0.00013411
0.00013259
0.000131368
0.000130416
0.000129361
0.000128683
0.000127931
0.000127297
0.000126995
0.000126331
0.000125954
0.000125166
0.00012445
0.000123033
0.000121417
0.000120086
0.000117779
0.000116538
0.000114614
0.000113036
0.000112081
0.00011041
0.000109722
0.000108646
0.000107942
0.000107272
0.000106731
0.000106222
0.000105804
0.000105301
0.000104932
0.000104258
0.000103746
0.000102996
0.000102057
0.000101598
0.000100445
9.95287e-05
9.88368e-05
9.74147e-05
9.68411e-05
9.54866e-05
9.46815e-05
9.38671e-05
9.22735e-05
9.18387e-05
9.08754e-05
9.0055e-05
8.9618e-05
8.86531e-05
8.82182e-05
8.79859e-05
8.73609e-05
8.67194e-05
8.65971e-05
8.61233e-05
8.54703e-05
8.50968e-05
8.4063e-05
8.30904e-05
8.19868e-05
7.95578e-05
7.7846e-05
7.55244e-05
7.17598e-05
6.93998e-05
6.57261e-05
6.15516e-05
5.83793e-05
5.4041e-05
4.97614e-05
4.60921e-05
4.18401e-05
3.77622e-05
3.41611e-05
3.04282e-05
2.69342e-05
2.38536e-05
2.09195e-05
1.82369e-05
1.58989e-05
1.40591e-05
1.22209e-05
1.11522e-05
1.02131e-05
9.72946e-06
9.64065e-06
9.78863e-06
1.00067e-05
1.06046e-05
1.14383e-05
1.3147e-05
1.52497e-05
1.96606e-05
2.29913e-05
2.9427e-05
3.49047e-05
4.47222e-05
5.24316e-05
6.68493e-05
7.81697e-05
9.67848e-05
0.000112388
0.000122369
0.000128188
0.00012791
0.000127213
0.000124848
0.000123524
0.000121144
0.000118526
0.000115876
0.000112961
0.000105373
9.99796e-05
9.04932e-05
7.85889e-05
7.02541e-05
6.25971e-05
5.89504e-05
5.80193e-05
5.51413e-05
5.3795e-05
5.61852e-05
5.6651e-05
5.27791e-05
5.14935e-05
5.11831e-05
5.49006e-05
7.10119e-05
0.000134694
0.000150982
0.000154595
0.000145056
0.000126198
0.000111213
0.000100005
9.20854e-05
8.89964e-05
8.67695e-05
8.54712e-05
8.31269e-05
8.06784e-05
7.91744e-05
7.84079e-05
7.63728e-05
7.5463e-05
7.5756e-05
7.72433e-05
8.12696e-05
8.96381e-05
9.18138e-05
9.07056e-05
8.76993e-05
7.96143e-05
7.2062e-05
6.74268e-05
6.62943e-05
6.61012e-05
6.72041e-05
6.64769e-05
6.74626e-05
6.64849e-05
6.90925e-05
6.82607e-05
7.06545e-05
7.0563e-05
7.00818e-05
7.2683e-05
7.12592e-05
7.70512e-05
7.92108e-05
9.69409e-05
9.99381e-05
0.000110803
0.000108338
0.000110642
0.000110314
0.000108796
0.00011623
0.000121352
0.000134769
0.000106459
0.0001048
0.000101898
9.90699e-05
9.70164e-05
9.49919e-05
9.3747e-05
9.26624e-05
9.13682e-05
9.0476e-05
8.88588e-05
8.74882e-05
8.57724e-05
8.40353e-05
8.25154e-05
8.08905e-05
7.9708e-05
7.8604e-05
7.7937e-05
7.74592e-05
7.7037e-05
7.70216e-05
7.68702e-05
7.66536e-05
7.64994e-05
7.62392e-05
7.61254e-05
7.59347e-05
7.58114e-05
7.55558e-05
7.52742e-05
7.47156e-05
7.39327e-05
7.31172e-05
7.14879e-05
7.05556e-05
6.87598e-05
6.76985e-05
6.64364e-05
6.52967e-05
6.45244e-05
6.3431e-05
6.28997e-05
6.21074e-05
6.17535e-05
6.11356e-05
6.09129e-05
6.06751e-05
6.03711e-05
6.02361e-05
5.9835e-05
5.9557e-05
5.88424e-05
5.84608e-05
5.77344e-05
5.69954e-05
5.65184e-05
5.5288e-05
5.48286e-05
5.37737e-05
5.31337e-05
5.24409e-05
5.11735e-05
5.08002e-05
5.01733e-05
4.92764e-05
4.89905e-05
4.82631e-05
4.79898e-05
4.76599e-05
4.70512e-05
4.67796e-05
4.64794e-05
4.55824e-05
4.51895e-05
4.43728e-05
4.37754e-05
4.28677e-05
4.18498e-05
4.0735e-05
3.93279e-05
3.80855e-05
3.62544e-05
3.44991e-05
3.28258e-05
3.05939e-05
2.87271e-05
2.68015e-05
2.45688e-05
2.26782e-05
2.07965e-05
1.8721e-05
1.70536e-05
1.52885e-05
1.37535e-05
1.22287e-05
1.1056e-05
9.88422e-06
9.2098e-06
8.584e-06
8.43664e-06
8.44846e-06
8.55516e-06
8.87509e-06
9.36432e-06
1.05067e-05
1.18966e-05
1.43594e-05
1.67922e-05
2.14931e-05
2.50764e-05
3.16334e-05
3.72219e-05
4.687e-05
5.48078e-05
6.91469e-05
8.28536e-05
0.000105836
0.000125295
0.000140737
0.000142769
0.000141651
0.00013915
0.00013387
0.000131802
0.000127217
0.000126062
0.000123759
0.000123338
0.000121999
0.000121059
0.000118206
0.00011434
0.000106735
9.77004e-05
8.68819e-05
7.34643e-05
6.71943e-05
6.459e-05
6.44595e-05
6.40103e-05
6.53582e-05
6.08485e-05
5.90973e-05
5.60992e-05
5.80736e-05
6.44278e-05
0.000116159
0.000149069
0.000157951
0.000156147
0.000135895
0.000120005
0.000102748
9.45662e-05
8.94465e-05
8.80041e-05
8.56795e-05
8.36877e-05
8.11347e-05
7.97368e-05
7.84494e-05
7.76202e-05
7.65187e-05
7.50505e-05
7.37635e-05
7.37705e-05
7.46817e-05
7.78615e-05
8.6412e-05
8.86421e-05
8.77816e-05
8.5514e-05
7.99236e-05
7.11886e-05
6.77633e-05
6.6171e-05
6.72989e-05
6.5832e-05
6.65811e-05
6.56493e-05
6.73329e-05
6.79421e-05
6.8727e-05
7.3566e-05
7.08874e-05
8.0424e-05
7.68211e-05
8.66218e-05
8.60401e-05
9.37342e-05
9.64387e-05
0.000109682
0.000109894
0.000114931
0.000114712
0.000113923
0.000117807
0.000119061
0.000123824
4.17725e-05
4.14788e-05
4.08591e-05
4.02461e-05
3.97067e-05
3.91125e-05
3.88125e-05
3.85954e-05
3.83152e-05
3.81546e-05
3.7841e-05
3.737e-05
3.70217e-05
3.64e-05
3.61104e-05
3.57052e-05
3.54026e-05
3.52862e-05
3.51927e-05
3.52331e-05
3.53087e-05
3.55248e-05
3.57408e-05
3.58715e-05
3.61124e-05
3.61571e-05
3.62876e-05
3.63298e-05
3.6365e-05
3.678e-05
3.70005e-05
3.70081e-05
3.69514e-05
3.66265e-05
3.62602e-05
3.53358e-05
3.4447e-05
3.36943e-05
3.25866e-05
3.2189e-05
3.14737e-05
3.10624e-05
3.06911e-05
3.02565e-05
3.01787e-05
2.99338e-05
2.99311e-05
2.99513e-05
2.99455e-05
3.0063e-05
3.00565e-05
3.00414e-05
2.99552e-05
2.96167e-05
2.92911e-05
2.88384e-05
2.83325e-05
2.78124e-05
2.75231e-05
2.67913e-05
2.64011e-05
2.59661e-05
2.53345e-05
2.51159e-05
2.46342e-05
2.42718e-05
2.41256e-05
2.37258e-05
2.36138e-05
2.3456e-05
2.3195e-05
2.30956e-05
2.27317e-05
2.23173e-05
2.19937e-05
2.13357e-05
2.10166e-05
2.03317e-05
1.98357e-05
1.92201e-05
1.83512e-05
1.7796e-05
1.6766e-05
1.59113e-05
1.51642e-05
1.40784e-05
1.32433e-05
1.24251e-05
1.14448e-05
1.0688e-05
9.84599e-06
9.142e-06
8.42652e-06
7.91226e-06
7.50742e-06
7.12127e-06
7.09612e-06
7.16739e-06
7.29325e-06
7.50775e-06
8.13091e-06
8.70207e-06
9.912e-06
1.17002e-05
1.33699e-05
1.6689e-05
1.9828e-05
2.34523e-05
2.82636e-05
3.48255e-05
4.03532e-05
4.90724e-05
5.8667e-05
7.06152e-05
8.41977e-05
0.000106299
0.000132912
0.000153867
0.000156129
0.000154712
0.000149181
0.000143984
0.000134513
0.000127074
0.000121615
0.000117035
0.000115246
0.000115158
0.000116531
0.000118506
0.000120006
0.000119666
0.000118781
0.000115867
0.000110721
0.000102402
8.79163e-05
7.96067e-05
7.2819e-05
7.14329e-05
6.92499e-05
6.88379e-05
6.20707e-05
6.04343e-05
5.88876e-05
6.38225e-05
7.82667e-05
0.000144705
0.000155137
0.000162317
0.000152222
0.000130796
0.000113456
9.7156e-05
9.24806e-05
8.85648e-05
8.70853e-05
8.47363e-05
8.19806e-05
8.06622e-05
8.09642e-05
8.09568e-05
8.04285e-05
7.85327e-05
7.5733e-05
7.39406e-05
7.3306e-05
7.33284e-05
7.41001e-05
7.72854e-05
8.35922e-05
8.62425e-05
8.58923e-05
8.47985e-05
7.98269e-05
7.25512e-05
6.80226e-05
6.80843e-05
6.66357e-05
6.5719e-05
6.55904e-05
6.57607e-05
7.07966e-05
7.08817e-05
7.70006e-05
7.38834e-05
7.84231e-05
7.83462e-05
8.27678e-05
8.51995e-05
9.04756e-05
9.34665e-05
0.000104835
0.000114849
0.0001182
0.000128806
0.000126812
0.000126372
0.000124508
0.00012494
1.18429e-05
1.18082e-05
1.17468e-05
1.16491e-05
1.15139e-05
1.13507e-05
1.12217e-05
1.11607e-05
1.11198e-05
1.11061e-05
1.10986e-05
1.10762e-05
1.10612e-05
1.10149e-05
1.09929e-05
1.09892e-05
1.09963e-05
1.10828e-05
1.11467e-05
1.12855e-05
1.13673e-05
1.15314e-05
1.17699e-05
1.18933e-05
1.22376e-05
1.23965e-05
1.26857e-05
1.28641e-05
1.29155e-05
1.32915e-05
1.34955e-05
1.35612e-05
1.35593e-05
1.34186e-05
1.32572e-05
1.27813e-05
1.23871e-05
1.19868e-05
1.15272e-05
1.13904e-05
1.11237e-05
1.1038e-05
1.09334e-05
1.08689e-05
1.08957e-05
1.08986e-05
1.09934e-05
1.1173e-05
1.13216e-05
1.16001e-05
1.16723e-05
1.17694e-05
1.17989e-05
1.17486e-05
1.16715e-05
1.14553e-05
1.12344e-05
1.10801e-05
1.08963e-05
1.06715e-05
1.05498e-05
1.02884e-05
1.01223e-05
9.95104e-06
9.77607e-06
9.70509e-06
9.59262e-06
9.46589e-06
9.4282e-06
9.34407e-06
9.2487e-06
9.20235e-06
9.03668e-06
8.92866e-06
8.6847e-06
8.47637e-06
8.22869e-06
7.93858e-06
7.69199e-06
7.4155e-06
7.09668e-06
6.85659e-06
6.57744e-06
6.27381e-06
6.11457e-06
5.86873e-06
5.66507e-06
5.58348e-06
5.4914e-06
5.44842e-06
5.49166e-06
5.61245e-06
5.68659e-06
5.87481e-06
6.09448e-06
6.43647e-06
6.84837e-06
7.8142e-06
8.74032e-06
9.97999e-06
1.24508e-05
1.40012e-05
1.71914e-05
2.00035e-05
2.35152e-05
2.83653e-05
3.29976e-05
3.76624e-05
4.63621e-05
5.24892e-05
6.26718e-05
7.25451e-05
8.68717e-05
0.000103842
0.000132084
0.000161992
0.000170264
0.000168831
0.000162266
0.000153859
0.000135924
0.00012566
0.00011742
0.000114598
0.000110101
0.000108094
0.000103416
0.000100711
0.00010074
0.000102336
0.00010751
0.000114379
0.000116238
0.000115701
0.000113249
0.000109568
9.75476e-05
8.92294e-05
8.02294e-05
7.61476e-05
7.36617e-05
7.11692e-05
6.4691e-05
6.36937e-05
6.393e-05
7.0335e-05
0.000101683
0.000152966
0.000157747
0.000163405
0.000149208
0.000130952
0.000106114
9.49147e-05
9.18247e-05
8.77211e-05
8.64268e-05
8.43665e-05
8.24399e-05
8.2486e-05
8.2424e-05
8.06718e-05
7.95361e-05
7.96389e-05
7.86855e-05
7.54896e-05
7.39034e-05
7.31983e-05
7.33044e-05
7.49285e-05
7.87402e-05
8.26387e-05
8.47771e-05
8.54566e-05
8.39759e-05
7.88178e-05
7.48369e-05
7.03266e-05
6.98223e-05
6.65544e-05
6.82907e-05
6.78074e-05
7.09384e-05
7.11025e-05
7.05609e-05
7.07055e-05
7.30141e-05
7.47182e-05
8.05932e-05
8.33604e-05
9.20383e-05
0.000103496
0.000111315
0.000125669
0.00012355
0.000132438
0.000134402
0.000132592
0.000131057
0.00012773
3.47131e-06
3.4706e-06
3.49585e-06
3.49954e-06
3.49014e-06
3.46461e-06
3.42851e-06
3.40403e-06
3.37757e-06
3.35549e-06
3.33276e-06
3.30304e-06
3.28302e-06
3.25985e-06
3.24984e-06
3.249e-06
3.25292e-06
3.30618e-06
3.35063e-06
3.44026e-06
3.50276e-06
3.56257e-06
3.67914e-06
3.72133e-06
3.84284e-06
3.90849e-06
4.02398e-06
4.12863e-06
4.1301e-06
4.21449e-06
4.24657e-06
4.26044e-06
4.259e-06
4.22488e-06
4.19079e-06
4.09013e-06
3.98667e-06
3.88314e-06
3.74839e-06
3.69796e-06
3.61242e-06
3.57708e-06
3.54409e-06
3.50746e-06
3.50263e-06
3.49231e-06
3.50315e-06
3.56736e-06
3.68129e-06
3.80299e-06
3.89496e-06
3.9691e-06
4.01592e-06
4.03652e-06
4.03697e-06
4.02989e-06
4.0039e-06
3.96997e-06
3.95449e-06
3.915e-06
3.87325e-06
3.84039e-06
3.7735e-06
3.745e-06
3.70791e-06
3.67831e-06
3.65527e-06
3.63624e-06
3.60386e-06
3.58955e-06
3.55909e-06
3.53816e-06
3.52264e-06
3.48566e-06
3.4449e-06
3.42705e-06
3.41607e-06
3.4165e-06
3.42491e-06
3.451e-06
3.4841e-06
3.56373e-06
3.64086e-06
3.71191e-06
3.89578e-06
4.02314e-06
4.20856e-06
4.40862e-06
4.82704e-06
5.09933e-06
5.52145e-06
6.21511e-06
6.71564e-06
7.771e-06
8.64318e-06
1.01333e-05
1.14583e-05
1.35894e-05
1.62192e-05
1.81219e-05
2.22867e-05
2.48929e-05
2.97851e-05
3.34898e-05
3.89764e-05
4.61813e-05
5.07595e-05
6.0834e-05
6.83377e-05
7.81087e-05
9.18971e-05
0.000105841
0.000124534
0.000161533
0.000182168
0.000182433
0.000178036
0.000164986
0.000141124
0.000126399
0.000118236
0.000116437
0.00011372
0.000113497
0.000111034
0.000109005
0.000103669
0.000100802
9.57098e-05
9.50783e-05
9.53037e-05
0.000100496
0.000107915
0.00011251
0.000111834
0.000110175
0.000102235
9.75187e-05
8.72126e-05
8.18262e-05
7.84868e-05
7.45592e-05
6.73098e-05
6.4872e-05
6.54243e-05
7.48126e-05
0.000121121
0.000154662
0.000162138
0.000162504
0.00014886
0.000130013
0.00010317
9.54059e-05
9.08701e-05
8.76e-05
8.72751e-05
8.5756e-05
8.53697e-05
8.4475e-05
8.35489e-05
8.39223e-05
8.39911e-05
8.25176e-05
7.86216e-05
7.71831e-05
7.64144e-05
7.46145e-05
7.35981e-05
7.45472e-05
7.60262e-05
8.06606e-05
8.45159e-05
8.58169e-05
8.54308e-05
8.13169e-05
8.00753e-05
7.53935e-05
7.63362e-05
7.12499e-05
7.08287e-05
6.86613e-05
6.88972e-05
6.91149e-05
6.98938e-05
6.97249e-05
7.49264e-05
7.57531e-05
7.95096e-05
9.29186e-05
0.000102611
0.00012119
0.000119116
0.000125434
0.000121575
0.000121029
0.000125789
0.000127303
0.000127929
0.000127119
2.38094e-06
2.39566e-06
2.44403e-06
2.49883e-06
2.53854e-06
2.56018e-06
2.57082e-06
2.57855e-06
2.58249e-06
2.58335e-06
2.58183e-06
2.57779e-06
2.57462e-06
2.57169e-06
2.57027e-06
2.56817e-06
2.56299e-06
2.55049e-06
2.5405e-06
2.52755e-06
2.51929e-06
2.51229e-06
2.51166e-06
2.51041e-06
2.51509e-06
2.52481e-06
2.54492e-06
2.581e-06
2.5943e-06
2.62704e-06
2.64492e-06
2.68415e-06
2.70802e-06
2.72848e-06
2.73804e-06
2.73869e-06
2.7363e-06
2.7231e-06
2.71303e-06
2.69167e-06
2.68377e-06
2.66973e-06
2.65451e-06
2.64441e-06
2.63175e-06
2.6287e-06
2.62666e-06
2.6261e-06
2.6271e-06
2.63389e-06
2.64855e-06
2.69496e-06
2.72827e-06
2.76114e-06
2.80508e-06
2.82517e-06
2.87262e-06
2.90672e-06
2.9344e-06
2.97485e-06
2.98956e-06
3.02037e-06
3.04254e-06
3.04996e-06
3.06208e-06
3.06258e-06
3.0612e-06
3.06225e-06
3.06048e-06
3.06533e-06
3.08092e-06
3.09806e-06
3.1673e-06
3.20919e-06
3.29309e-06
3.3513e-06
3.46888e-06
3.58088e-06
3.75155e-06
4.01959e-06
4.25532e-06
4.67326e-06
4.92399e-06
5.34518e-06
5.86351e-06
6.23744e-06
6.94598e-06
7.47107e-06
8.54891e-06
9.2634e-06
1.05041e-05
1.18158e-05
1.29422e-05
1.52189e-05
1.67142e-05
1.90805e-05
2.2053e-05
2.44324e-05
2.92306e-05
3.2177e-05
3.75658e-05
4.13982e-05
4.8707e-05
5.39861e-05
6.08348e-05
7.13077e-05
7.782e-05
9.03559e-05
9.93001e-05
0.000114287
0.000127497
0.000149246
0.00018319
0.000195038
0.000192952
0.00018168
0.000151334
0.000131024
0.000120103
0.000115339
0.000114019
0.000114662
0.000115621
0.000118601
0.000118343
0.000118348
0.000115393
0.000110758
0.000100979
9.8125e-05
9.37604e-05
9.42413e-05
9.57102e-05
0.000104389
0.000107902
0.000108552
0.000106007
0.000101408
8.99365e-05
8.52304e-05
8.16378e-05
7.48472e-05
6.84032e-05
6.66704e-05
6.80151e-05
8.5972e-05
0.000134651
0.000155993
0.000164817
0.000164656
0.000154225
0.00012799
0.000102827
9.73454e-05
8.9337e-05
8.99374e-05
9.16892e-05
8.85387e-05
8.84249e-05
8.72427e-05
8.92875e-05
8.78386e-05
8.47529e-05
8.26478e-05
7.94496e-05
7.95272e-05
7.95096e-05
7.66772e-05
7.55379e-05
7.62519e-05
7.64781e-05
7.85396e-05
8.46382e-05
8.7325e-05
8.83496e-05
8.55216e-05
8.57837e-05
8.36207e-05
8.24519e-05
7.41209e-05
7.2094e-05
6.89794e-05
7.06587e-05
6.96915e-05
7.44636e-05
7.35678e-05
8.01325e-05
8.33202e-05
8.9152e-05
0.000110433
0.000116029
0.000121244
0.00011816
0.000119083
0.000115561
0.000105084
0.000104504
0.000107165
0.000113473
0.000118109
2.59095e-06
2.61303e-06
2.6597e-06
2.71428e-06
2.7402e-06
2.74263e-06
2.74275e-06
2.73695e-06
2.73541e-06
2.73303e-06
2.73105e-06
2.7285e-06
2.71192e-06
2.70681e-06
2.69918e-06
2.69795e-06
2.70001e-06
2.70172e-06
2.7169e-06
2.73266e-06
2.75384e-06
2.7837e-06
2.80737e-06
2.84743e-06
2.86702e-06
2.90029e-06
2.92124e-06
2.94275e-06
2.96586e-06
2.97478e-06
2.9977e-06
3.01202e-06
3.02185e-06
3.03991e-06
3.04753e-06
3.07114e-06
3.08817e-06
3.11865e-06
3.17039e-06
3.19227e-06
3.25206e-06
3.27891e-06
3.32504e-06
3.34878e-06
3.377e-06
3.43644e-06
3.46524e-06
3.54813e-06
3.63516e-06
3.73416e-06
3.85661e-06
3.91765e-06
4.07147e-06
4.16187e-06
4.26444e-06
4.39845e-06