/*--------------------------------*- C++ -*----------------------------------*\
| =========                 |                                                 |
| \\      /  F ield         | OpenFOAM: The Open Source CFD Toolbox           |
|  \\    /   O peration     | Version:  2.4.0                                 |
|   \\  /    A nd           | Web:      www.OpenFOAM.org                      |
|    \\/     M anipulation  |                                                 |
\*---------------------------------------------------------------------------*/
FoamFile
{
    version     2.0;
    format      ascii;
    class       volVectorField;
    location    "1.26";
    object      U_0;
}
// * * * * * * * * * * * * * * * * * * * * * * * * * * * * * * * * * * * * * //

dimensions      [0 1 -1 0 0 0 0];

internalField   nonuniform List<vector> 
8800
(
(8.09302 0.387897 0)
(5.4506 0.242738 0)
(3.91033 0.04286 0)
(3.16084 -0.0153752 0)
(2.79326 -0.0181392 0)
(2.60948 -0.0118522 0)
(2.47312 -0.00476287 0)
(2.39025 -0.00224568 0)
(2.30728 -0.00234685 0)
(2.26601 -0.000375142 0)
(2.19921 0.00048248 0)
(2.1844 -0.00186924 0)
(2.12867 0.000906623 0)
(2.12144 0.000100286 0)
(2.05762 0.000565677 0)
(2.06525 -0.00108995 0)
(2.00044 0.00127649 0)
(2.00621 -0.00268419 0)
(2.00512 0.00986504 0)
(1.77844 -0.0658327 0)
(10.0812 0.838141 0)
(9.66554 0.868151 0)
(8.86213 0.506158 0)
(8.1006 0.262988 0)
(7.46804 0.138162 0)
(7.0416 0.0798408 0)
(6.65969 0.05695 0)
(6.43543 0.0407221 0)
(6.19073 0.0271321 0)
(6.06476 0.0256475 0)
(5.87906 0.0216927 0)
(5.83483 0.0117966 0)
(5.66447 0.0184171 0)
(5.66113 0.0150333 0)
(5.49076 0.0162764 0)
(5.51003 0.00853351 0)
(5.34996 0.0220529 0)
(5.35553 -0.0085437 0)
(5.30995 0.0265189 0)
(5.15872 -0.0334572 0)
(10.0452 0.630576 0)
(10.6812 0.864224 0)
(10.8416 0.599292 0)
(10.7305 0.376684 0)
(10.409 0.254539 0)
(10.1485 0.193676 0)
(9.7725 0.158171 0)
(9.56074 0.122442 0)
(9.25308 0.0902437 0)
(9.10363 0.0794845 0)
(8.84667 0.0630072 0)
(8.79306 0.0432233 0)
(8.54395 0.0492367 0)
(8.54925 0.0396065 0)
(8.31219 0.0420808 0)
(8.33689 0.0255768 0)
(8.11843 0.0505955 0)
(8.13587 -0.00275954 0)
(8.01884 0.0300033 0)
(7.97008 -0.081339 0)
(9.9515 0.456137 0)
(10.6217 0.707301 0)
(11.1073 0.541243 0)
(11.4555 0.358913 0)
(11.4726 0.258441 0)
(11.5555 0.22409 0)
(11.4011 0.207795 0)
(11.3922 0.174297 0)
(11.2099 0.142659 0)
(11.1741 0.131843 0)
(10.9768 0.109444 0)
(10.9768 0.0809745 0)
(10.7546 0.0913085 0)
(10.7828 0.0705488 0)
(10.5622 0.0777455 0)
(10.5867 0.0492717 0)
(10.3819 0.0879207 0)
(10.3896 0.0127446 0)
(10.2584 0.0453734 0)
(10.2313 -0.0921396 0)
(9.94491 0.344412 0)
(10.4936 0.572708 0)
(10.944 0.451375 0)
(11.4269 0.304986 0)
(11.5578 0.203754 0)
(11.7616 0.187754 0)
(11.7969 0.189685 0)
(11.9144 0.167597 0)
(11.8939 0.138066 0)
(11.9862 0.142568 0)
(11.9532 0.115609 0)
(12.012 0.0932388 0)
(11.9475 0.101124 0)
(12.0233 0.0914007 0)
(11.9284 0.0878765 0)
(11.9638 0.0764148 0)
(11.8861 0.096511 0)
(11.8799 0.0559107 0)
(11.8363 0.0454422 0)
(11.7669 -0.0188041 0)
(9.96595 0.252312 0)
(10.4087 0.458276 0)
(10.7853 0.363128 0)
(11.2661 0.25649 0)
(11.5065 0.168017 0)
(11.6397 0.139713 0)
(11.7636 0.154882 0)
(11.8811 0.139106 0)
(11.9216 0.114537 0)
(12.0334 0.118042 0)
(12.1317 0.102139 0)
(12.1799 0.0763785 0)
(12.2318 0.0898796 0)
(12.3439 0.0779577 0)
(12.3583 0.0813662 0)
(12.4113 0.0691768 0)
(12.4314 0.0945823 0)
(12.4814 0.0644899 0)
(12.498 0.0784644 0)
(12.4926 0.0210838 0)
(9.98997 0.175811 0)
(10.3524 0.362432 0)
(10.6712 0.27837 0)
(11.1358 0.196243 0)
(11.4129 0.127989 0)
(11.5665 0.116921 0)
(11.6568 0.108914 0)
(11.8251 0.125003 0)
(11.8406 0.0762848 0)
(11.9404 0.101673 0)
(12.0598 0.0625532 0)
(12.1204 0.0802597 0)
(12.1753 0.040995 0)
(12.2898 0.0845934 0)
(12.3659 0.0398975 0)
(12.4115 0.089933 0)
(12.4534 0.0410737 0)
(12.5365 0.0986698 0)
(12.5541 0.0562063 0)
(12.6065 0.186721 0)
(9.99826 0.102684 0)
(10.2832 0.277361 0)
(10.6838 0.183721 0)
(10.9814 0.156204 0)
(11.3231 0.0786028 0)
(11.5361 0.0941058 0)
(11.5966 0.0573623 0)
(11.7227 0.105994 0)
(11.7818 0.0435303 0)
(11.8947 0.0902408 0)
(11.9783 0.0258632 0)
(12.0552 0.0776123 0)
(12.0962 0.0175236 0)
(12.2148 0.0667744 0)
(12.3128 0.00834476 0)
(12.3439 0.0878914 0)
(12.4158 0.0193707 0)
(12.4371 0.0958107 0)
(12.5277 0.0383123 0)
(12.5018 0.203796 0)
(9.97338 0.0637167 0)
(10.2627 0.153219 0)
(10.6486 0.129694 0)
(10.9435 0.0869852 0)
(11.2838 0.0348417 0)
(11.4794 0.0514836 0)
(11.5626 0.0545081 0)
(11.6159 0.0581171 0)
(11.7938 0.0203859 0)
(11.8644 0.0428585 0)
(11.921 0.0284548 0)
(11.9744 0.0398284 0)
(12.0935 0.0140586 0)
(12.1852 0.0199632 0)
(12.2124 0.0191143 0)
(12.3291 0.0428341 0)
(12.3594 0.0342375 0)
(12.4155 0.0319851 0)
(12.4659 0.0288484 0)
(12.3295 0.0587284 0)
(9.9852 0.0105253 0)
(10.2253 0.0626504 0)
(10.6218 0.0342511 0)
(10.9901 0.0378456 0)
(11.1877 -0.00572885 0)
(11.4654 0.0342505 0)
(11.5568 0.0191748 0)
(11.63 0.0227847 0)
(11.7473 -0.0272787 0)
(11.8414 0.0445656 0)
(11.8937 0.00494439 0)
(11.942 0.0217144 0)
(12.1014 -0.0160812 0)
(12.1528 0.022752 0)
(12.1819 -0.0162077 0)
(12.2782 0.027232 0)
(12.363 0.00817334 0)
(12.4533 0.0107392 0)
(12.3652 0.0102623 0)
(12.3412 0.0177376 0)
(9.99557 -0.0189858 0)
(10.2043 -0.052871 0)
(10.647 -0.0451461 0)
(10.9731 -0.014643 0)
(11.2072 -0.0320622 0)
(11.4345 -0.023493 0)
(11.5758 0.00769547 0)
(11.657 -0.0137042 0)
(11.6951 -0.0441223 0)
(11.8324 -0.00241684 0)
(11.9106 0.0101541 0)
(11.9722 -0.0185193 0)
(12.0737 -0.0276768 0)
(12.1687 -0.00284185 0)
(12.2081 -0.00995912 0)
(12.2313 -0.0133111 0)
(12.3797 -0.0225392 0)
(12.4195 -0.00242309 0)
(12.3941 -0.00974809 0)
(12.4019 -0.0294382 0)
(9.99768 -0.065464 0)
(10.2484 -0.152006 0)
(10.6206 -0.136294 0)
(10.9719 -0.0696025 0)
(11.2891 -0.0607618 0)
(11.4375 -0.0496617 0)
(11.5672 -0.0339819 0)
(11.6972 -0.0412046 0)
(11.7672 -0.0726632 0)
(11.7887 -0.0284868 0)
(11.9286 -0.0154084 0)
(12.0497 -0.0343818 0)
(12.0677 -0.0435065 0)
(12.1538 -0.0255764 0)
(12.2371 -0.021359 0)
(12.3099 -0.0389517 0)
(12.359 -0.0420491 0)
(12.4135 -0.0371024 0)
(12.4452 -0.0352246 0)
(12.4477 -0.0709138 0)
(9.99642 -0.114998 0)
(10.2911 -0.254743 0)
(10.6527 -0.204397 0)
(11.0173 -0.141104 0)
(11.3396 -0.0973187 0)
(11.4934 -0.0803595 0)
(11.5836 -0.0622813 0)
(11.7588 -0.0867718 0)
(11.8068 -0.0770247 0)
(11.8249 -0.0534343 0)
(11.9787 -0.0497092 0)
(12.0832 -0.059402 0)
(12.1164 -0.0447859 0)
(12.1851 -0.0484896 0)
(12.2977 -0.047821 0)
(12.3477 -0.0567549 0)
(12.4009 -0.0602308 0)
(12.4549 -0.0631589 0)
(12.517 -0.0779337 0)
(12.4536 -0.0609787 0)
(10.0306 -0.177352 0)
(10.2979 -0.356697 0)
(10.733 -0.288138 0)
(11.102 -0.198591 0)
(11.4335 -0.129346 0)
(11.5273 -0.109594 0)
(11.6733 -0.101185 0)
(11.8056 -0.121568 0)
(11.8541 -0.0936176 0)
(11.917 -0.0865746 0)
(12.0733 -0.0730508 0)
(12.1262 -0.0796493 0)
(12.1827 -0.0561894 0)
(12.2753 -0.0773053 0)
(12.3556 -0.0596279 0)
(12.3964 -0.0777966 0)
(12.4677 -0.0778543 0)
(12.5315 -0.102304 0)
(12.5629 -0.0994478 0)
(12.4968 -0.102288 0)
(10.0684 -0.25541 0)
(10.3118 -0.453913 0)
(10.8894 -0.372674 0)
(11.1836 -0.251882 0)
(11.5434 -0.16688 0)
(11.5826 -0.144119 0)
(11.8122 -0.140456 0)
(11.8435 -0.149656 0)
(11.9764 -0.114376 0)
(11.9905 -0.118101 0)
(12.1704 -0.0967086 0)
(12.1432 -0.09679 0)
(12.2647 -0.0729359 0)
(12.2862 -0.0998738 0)
(12.3865 -0.0715834 0)
(12.3691 -0.100029 0)
(12.4632 -0.0946013 0)
(12.456 -0.128389 0)
(12.4736 -0.120229 0)
(12.3636 -0.135177 0)
(10.0666 -0.349549 0)
(10.3809 -0.566738 0)
(11.0572 -0.461557 0)
(11.2955 -0.29402 0)
(11.666 -0.209737 0)
(11.655 -0.18655 0)
(11.8994 -0.181912 0)
(11.8164 -0.173091 0)
(11.994 -0.142879 0)
(11.8827 -0.138326 0)
(12.0519 -0.11417 0)
(11.9038 -0.106402 0)
(12.0469 -0.0898969 0)
(11.9079 -0.108677 0)
(12.0191 -0.0801891 0)
(11.862 -0.106295 0)
(11.9473 -0.0979063 0)
(11.7818 -0.136727 0)
(11.7817 -0.119226 0)
(11.5662 -0.163568 0)
(10.0167 -0.459306 0)
(10.5508 -0.704573 0)
(11.1798 -0.544353 0)
(11.3595 -0.353041 0)
(11.5671 -0.263482 0)
(11.4465 -0.224676 0)
(11.5099 -0.201809 0)
(11.2819 -0.179133 0)
(11.3182 -0.145072 0)
(11.0531 -0.129944 0)
(11.1017 -0.106221 0)
(10.8301 -0.0940292 0)
(10.8961 -0.0786886 0)
(10.6221 -0.0889451 0)
(10.6988 -0.0654703 0)
(10.4195 -0.086771 0)
(10.485 -0.0756367 0)
(10.1929 -0.114594 0)
(10.2012 -0.0928281 0)
(9.87597 -0.165317 0)
(10.0682 -0.632831 0)
(10.6496 -0.863193 0)
(10.8741 -0.600936 0)
(10.6827 -0.373431 0)
(10.4638 -0.25661 0)
(10.0778 -0.194403 0)
(9.84958 -0.154772 0)
(9.47809 -0.124609 0)
(9.33466 -0.0926461 0)
(9.00754 -0.0780835 0)
(8.94992 -0.0606907 0)
(8.66529 -0.0513025 0)
(8.66993 -0.0428267 0)
(8.39773 -0.0497892 0)
(8.43955 -0.0376718 0)
(8.16458 -0.0491487 0)
(8.20913 -0.0492798 0)
(7.91108 -0.069327 0)
(7.91592 -0.0694932 0)
(7.57232 -0.0888731 0)
(10.0863 -0.838902 0)
(9.65279 -0.867683 0)
(8.87423 -0.506296 0)
(8.07876 -0.261651 0)
(7.49613 -0.138823 0)
(7.00243 -0.0812504 0)
(6.70368 -0.0545146 0)
(6.38769 -0.0418674 0)
(6.2381 -0.0285632 0)
(6.00508 -0.0252922 0)
(5.94296 -0.0194402 0)
(5.75234 -0.0172145 0)
(5.74289 -0.0144743 0)
(5.55745 -0.0205222 0)
(5.57206 -0.0145217 0)
(5.38024 -0.0220129 0)
(5.3934 -0.0228832 0)
(5.17015 -0.0325481 0)
(5.16014 -0.0376342 0)
(4.87037 -0.0183278 0)
(8.09164 -0.38799 0)
(5.44794 -0.242516 0)
(3.91179 -0.042862 0)
(3.1566 0.0154593 0)
(2.80141 0.0180203 0)
(2.59655 0.0113713 0)
(2.48673 0.00560511 0)
(2.3758 0.00190287 0)
(2.32224 0.00207282 0)
(2.24438 0.000282556 0)
(2.2202 0.000524364 0)
(2.1563 0.00016769 0)
(2.15108 0.000503619 0)
(2.08376 -0.00167438 0)
(2.07968 7.48794e-05 0)
(2.00779 -0.00204671 0)
(1.99747 -0.00152067 0)
(1.90461 -0.00390607 0)
(1.86691 -0.0040911 0)
(1.71861 0.010765 0)
(2.25686 -0.154028 0)
(2.38938 -0.076368 0)
(2.50028 -0.0221901 0)
(2.58626 -0.000340743 0)
(2.67143 -0.00169583 0)
(2.74586 -0.0168952 0)
(2.82971 -0.0322473 0)
(2.90546 -0.0405141 0)
(2.98173 -0.0446188 0)
(3.04108 -0.0449886 0)
(3.09595 -0.0473364 0)
(3.13624 -0.049447 0)
(3.17289 -0.0503563 0)
(3.20056 -0.0454304 0)
(3.22912 -0.0345944 0)
(3.25855 -0.01443 0)
(3.28888 0.00728652 0)
(3.32593 0.023317 0)
(3.37606 0.0339877 0)
(3.43854 0.0418722 0)
(3.4976 0.0490525 0)
(3.58149 0.0423693 0)
(3.64805 0.0272391 0)
(3.7278 0.00654497 0)
(3.77227 -0.0227297 0)
(3.82894 -0.0491214 0)
(3.84 -0.0685361 0)
(3.86603 -0.0781757 0)
(3.85601 -0.0751348 0)
(3.88134 -0.072958 0)
(3.87414 -0.0672069 0)
(3.91103 -0.0603881 0)
(3.90458 -0.0516295 0)
(3.94409 -0.040708 0)
(3.9377 -0.0233827 0)
(3.97844 -0.00948247 0)
(3.97822 0.00992746 0)
(4.03061 0.0277041 0)
(4.04077 0.0414333 0)
(4.10122 0.0593114 0)
(4.11364 0.0652784 0)
(4.17407 0.0681807 0)
(4.19276 0.0708211 0)
(4.23798 0.0583663 0)
(4.27264 0.0637821 0)
(4.28165 0.0603305 0)
(4.33336 0.0741043 0)
(4.32631 0.0958141 0)
(4.39088 0.115775 0)
(4.42971 0.135815 0)
(4.53652 0.137415 0)
(4.6538 0.103195 0)
(4.77357 0.0552134 0)
(4.88845 0.00386972 0)
(4.95055 -0.0519999 0)
(5.02026 -0.109388 0)
(5.06738 -0.142617 0)
(5.07483 -0.157453 0)
(5.1629 -0.147995 0)
(5.207 -0.175828 0)
(5.30018 -0.284007 0)
(5.32029 -0.436962 0)
(5.26315 -0.560327 0)
(5.21384 -0.584456 0)
(5.28932 -0.568557 0)
(5.43785 -0.57491 0)
(5.41614 -0.595746 0)
(5.39729 -0.609257 0)
(5.16328 -0.540222 0)
(4.957 -0.468897 0)
(4.67639 -0.371237 0)
(4.61716 -0.199042 0)
(4.63589 -0.0168879 0)
(4.72287 0.213982 0)
(4.97318 0.50136 0)
(5.28982 0.696113 0)
(5.58956 0.775196 0)
(5.83932 0.915643 0)
(6.04974 0.965342 0)
(6.30916 0.925752 0)
(6.45617 0.8956 0)
(6.64933 0.795091 0)
(6.78186 0.652161 0)
(6.89607 0.533117 0)
(7.06499 0.353869 0)
(7.26321 0.157866 0)
(7.32826 -0.0722125 0)
(7.53564 -0.351716 0)
(7.54248 -0.509215 0)
(7.71463 -0.854344 0)
(7.66002 -1.00952 0)
(7.61146 -1.08791 0)
(7.71933 -1.3494 0)
(7.55162 -1.39152 0)
(7.57712 -1.33623 0)
(7.75167 -1.51348 0)
(7.72921 -1.5398 0)
(7.84018 -1.52493 0)
(8.20557 -1.56848 0)
(8.20222 -1.58501 0)
(8.61794 -1.68548 0)
(8.8456 -1.67183 0)
(9.10059 -1.61282 0)
(9.47596 -1.70747 0)
(9.76745 -1.69057 0)
(10.0557 -1.65969 0)
(10.4333 -1.6354 0)
(10.7818 -1.71388 0)
(10.971 -1.62623 0)
(11.4373 -1.69711 0)
(11.7528 -1.67517 0)
(11.9994 -1.67987 0)
(12.4225 -1.75566 0)
(12.6256 -1.79777 0)
(12.9931 -1.8891 0)
(13.21 -1.89671 0)
(13.565 -2.05612 0)
(13.7018 -2.09694 0)
(14.0025 -2.20939 0)
(14.0811 -2.30196 0)
(14.3523 -2.47722 0)
(14.3894 -2.46002 0)
(14.412 -2.63779 0)
(14.6496 -2.80168 0)
(14.2256 -2.79874 0)
(14.6112 -2.95505 0)
(14.0317 -3.06249 0)
(14.3083 -3.06843 0)
(13.5806 -3.23156 0)
(14.0622 -3.27496 0)
(12.978 -3.28991 0)
(13.5258 -3.30971 0)
(12.7629 -3.49227 0)
(12.985 -3.27972 0)
(12.573 -3.45306 0)
(12.7891 -3.46902 0)
(12.6835 -3.41735 0)
(12.7279 -3.4312 0)
(13.1177 -3.4191 0)
(13.0175 -3.3255 0)
(13.2783 -3.04686 0)
(13.6166 -3.01107 0)
(13.5641 -2.65793 0)
(13.9091 -2.31329 0)
(13.9082 -2.06139 0)
(14.0894 -1.54907 0)
(14.0966 -1.19505 0)
(14.174 -0.707216 0)
(14.2231 -0.293651 0)
(14.0976 0.2006 0)
(14.1922 0.589875 0)
(13.8755 1.00114 0)
(13.9098 1.4001 0)
(13.4775 1.63935 0)
(13.3914 1.9755 0)
(12.9787 2.11709 0)
(12.798 2.27676 0)
(12.433 2.34956 0)
(12.0891 2.36655 0)
(11.7648 2.34065 0)
(11.2534 2.2591 0)
(10.9733 2.03308 0)
(10.4861 1.90686 0)
(10.158 1.51976 0)
(9.80819 1.30704 0)
(9.52766 0.920369 0)
(9.0164 0.527347 0)
(8.95719 0.289299 0)
(8.34765 -0.389936 0)
(8.34544 -0.560657 0)
(7.94501 -0.830938 0)
(7.88841 -1.12669 0)
(7.69705 -1.49684 0)
(8.13768 -1.5601 0)
(8.04032 -2.11936 0)
(8.6254 -2.12427 0)
(8.79405 -2.22762 0)
(9.13995 -1.74948 0)
(9.25763 -1.54305 0)
(9.55706 -0.900996 0)
(9.50215 -0.35512 0)
(9.77996 0.545346 0)
(9.66033 1.21276 0)
(9.90545 2.27592 0)
(9.50935 2.90914 0)
(9.49967 3.71068 0)
(9.04881 4.22461 0)
(8.94343 4.68207 0)
(8.4557 5.04417 0)
(8.17259 5.43442 0)
(8.31853 5.99505 0)
(7.74215 6.0607 0)
(7.69648 6.28335 0)
(7.44525 6.79617 0)
(7.31425 7.86217 0)
(7.6393 8.63728 0)
(6.74978 8.98008 0)
(6.42173 9.32119 0)
(6.67153 10.6746 0)
(3.83252 13.6025 0)
(5.32468 -0.103285 0)
(5.3675 -0.0921672 0)
(5.38918 -0.0669744 0)
(5.38649 -0.0527386 0)
(5.40041 -0.048117 0)
(5.43217 -0.0653183 0)
(5.47418 -0.0858463 0)
(5.52514 -0.0914393 0)
(5.57169 -0.0880666 0)
(5.611 -0.0766025 0)
(5.64067 -0.0729335 0)
(5.66176 -0.068359 0)
(5.67889 -0.0662579 0)
(5.69473 -0.0611085 0)
(5.70952 -0.0555296 0)
(5.7267 -0.0435452 0)
(5.74155 -0.0275177 0)
(5.76205 -0.0131061 0)
(5.78272 0.00274328 0)
(5.82122 0.0024012 0)
(5.84523 0.00980026 0)
(5.89848 0.00177771 0)
(5.92269 -0.011953 0)
(5.97928 -0.0263363 0)
(5.99481 -0.0493824 0)
(6.03942 -0.0634589 0)
(6.04013 -0.0764447 0)
(6.07101 -0.0856123 0)
(6.05539 -0.0813617 0)
(6.08545 -0.0802801 0)
(6.0651 -0.0762057 0)
(6.10121 -0.0662787 0)
(6.08198 -0.0641363 0)
(6.1171 -0.0517944 0)
(6.10069 -0.0374028 0)
(6.13425 -0.028376 0)
(6.12414 -0.00400604 0)
(6.15892 0.00673413 0)
(6.16442 0.0230657 0)
(6.19191 0.0353799 0)
(6.21215 0.0450277 0)
(6.22809 0.0451619 0)
(6.25346 0.0525917 0)
(6.26662 0.0459603 0)
(6.28739 0.0445752 0)
(6.30464 0.0512638 0)
(6.31973 0.0473045 0)
(6.34592 0.0597231 0)
(6.3696 0.0748587 0)
(6.41181 0.0703815 0)
(6.48595 0.0701188 0)
(6.54301 0.0430036 0)
(6.6723 -0.00550141 0)
(6.72161 -0.0478984 0)
(6.84018 -0.0976856 0)
(6.86261 -0.136206 0)
(6.99195 -0.186477 0)
(6.96858 -0.206185 0)
(7.10772 -0.254751 0)
(7.09813 -0.31693 0)
(7.20993 -0.394838 0)
(7.23708 -0.472043 0)
(7.30935 -0.493074 0)
(7.27785 -0.490182 0)
(7.3407 -0.536105 0)
(7.37163 -0.589087 0)
(7.3172 -0.670243 0)
(7.21379 -0.65202 0)
(7.13892 -0.569586 0)
(7.07288 -0.440355 0)
(6.9867 -0.214189 0)
(6.92254 -0.0465975 0)
(6.82717 0.100979 0)
(6.69514 0.286654 0)
(6.61234 0.408932 0)
(6.68827 0.502153 0)
(6.703 0.58352 0)
(6.86857 0.653451 0)
(7.03786 0.69697 0)
(7.19651 0.67882 0)
(7.43063 0.688923 0)
(7.60105 0.6191 0)
(7.78638 0.472253 0)
(7.91786 0.411346 0)
(8.1088 0.240236 0)
(8.25091 -0.0161056 0)
(8.31204 -0.142653 0)
(8.53679 -0.415372 0)
(8.472 -0.648464 0)
(8.53783 -0.830907 0)
(8.54639 -1.03351 0)
(8.54208 -1.20541 0)
(8.59444 -1.33755 0)
(8.60674 -1.4131 0)
(8.68932 -1.52504 0)
(8.97806 -1.66953 0)
(9.03743 -1.64385 0)
(9.26838 -1.70006 0)
(9.62141 -1.88691 0)
(9.78547 -1.83771 0)
(10.139 -1.84141 0)
(10.459 -1.97243 0)
(10.6395 -1.91456 0)
(10.9489 -1.94763 0)
(11.3336 -1.95858 0)
(11.4963 -1.91913 0)
(11.7996 -1.94365 0)
(12.0987 -1.95565 0)
(12.2723 -1.89885 0)
(12.6469 -1.91087 0)
(12.8009 -1.91848 0)
(13.0719 -1.97269 0)
(13.2934 -1.97775 0)
(13.5271 -1.99063 0)
(13.7584 -2.11944 0)
(13.8802 -2.072 0)
(14.1186 -2.22576 0)
(14.1829 -2.2743 0)
(14.3957 -2.31756 0)
(14.3193 -2.41116 0)
(14.5918 -2.49265 0)
(14.3515 -2.55814 0)
(14.4709 -2.63668 0)
(14.3603 -2.76957 0)
(14.2078 -2.74722 0)
(14.1282 -2.83749 0)
(13.8079 -2.94557 0)
(13.8343 -2.93896 0)
(13.2656 -3.04449 0)
(13.5264 -3.06087 0)
(12.7514 -3.15564 0)
(13.2101 -3.18362 0)
(12.4871 -3.26436 0)
(12.9232 -3.31069 0)
(12.4272 -3.43181 0)
(12.8932 -3.46986 0)
(12.6349 -3.58054 0)
(12.8941 -3.57787 0)
(13.077 -3.59092 0)
(13.0259 -3.46755 0)
(13.3553 -3.3051 0)
(13.4194 -3.14338 0)
(13.4583 -2.78911 0)
(13.6997 -2.47743 0)
(13.6607 -2.12649 0)
(13.8454 -1.63996 0)
(13.7875 -1.22789 0)
(13.936 -0.732996 0)
(13.8133 -0.244602 0)
(13.8976 0.202502 0)
(13.8203 0.698907 0)
(13.6798 1.08294 0)
(13.7267 1.5026 0)
(13.386 1.79634 0)
(13.4285 2.09638 0)
(13.0076 2.31802 0)
(12.8962 2.46623 0)
(12.4594 2.64376 0)
(12.1556 2.68056 0)
(11.7103 2.74197 0)
(11.1311 2.63659 0)
(10.8081 2.47518 0)
(10.1723 2.2161 0)
(9.89917 1.91144 0)
(9.27455 1.52652 0)
(9.22435 1.18808 0)
(8.47176 0.823281 0)
(8.59821 0.495725 0)
(7.98667 -0.0603241 0)
(7.99574 -0.356031 0)
(7.6627 -0.685432 0)
(7.65121 -1.0754 0)
(7.65621 -1.58709 0)
(7.93571 -1.79695 0)
(8.05925 -2.25907 0)
(8.52564 -2.47062 0)
(8.75809 -2.28033 0)
(9.03511 -1.9527 0)
(9.12539 -1.55494 0)
(9.38139 -1.05932 0)
(9.2058 -0.351708 0)
(9.53027 0.495426 0)
(9.26156 1.39332 0)
(9.51724 2.27552 0)
(9.3498 3.2023 0)
(9.29078 3.76058 0)
(9.06768 4.46719 0)
(8.87978 5.0282 0)
(8.95955 5.36025 0)
(8.26903 5.39004 0)
(8.44441 5.85768 0)
(8.29583 6.67903 0)
(7.84189 6.603 0)
(7.80598 6.75916 0)
(7.81507 7.73126 0)
(7.98442 8.31841 0)
(7.77968 8.97846 0)
(7.25414 9.93499 0)
(9.00041 10.0824 0)
(6.47104 14.602 0)
(8.02041 -0.0753374 0)
(8.01363 -0.0267829 0)
(8.01483 -0.00410772 0)
(7.98977 -0.029947 0)
(7.9827 -0.0587316 0)
(8.00957 -0.0917195 0)
(8.03787 -0.107778 0)
(8.07944 -0.105717 0)
(8.10895 -0.107464 0)
(8.12482 -0.0955778 0)
(8.13725 -0.0894699 0)
(8.13351 -0.0826502 0)
(8.14245 -0.0768689 0)
(8.14751 -0.068164 0)
(8.16364 -0.0643277 0)
(8.17293 -0.0513501 0)
(8.19237 -0.039041 0)
(8.19651 -0.0328772 0)
(8.20581 -0.0165557 0)
(8.22621 -0.0272682 0)
(8.22164 -0.017922 0)
(8.27345 -0.0223108 0)
(8.26432 -0.0359168 0)
(8.32485 -0.035401 0)
(8.32161 -0.0629102 0)
(8.35556 -0.0715749 0)
(8.34875 -0.0817548 0)
(8.37113 -0.0988922 0)
(8.34764 -0.0885571 0)
(8.37466 -0.0911988 0)
(8.34889 -0.0854631 0)
(8.36803 -0.0694729 0)
(8.35853 -0.0653682 0)
(8.36393 -0.0569218 0)
(8.36327 -0.0392068 0)
(8.37037 -0.0392034 0)
(8.36853 -0.0173533 0)
(8.3802 -0.00407303 0)
(8.38811 0.0011175 0)
(8.39365 0.0259626 0)
(8.41437 0.0276013 0)
(8.41961 0.0296525 0)
(8.42485 0.0501804 0)
(8.45028 0.0276134 0)
(8.43835 0.0432843 0)
(8.47094 0.0338934 0)
(8.46731 0.0282782 0)
(8.49303 0.0392385 0)
(8.51395 0.0280457 0)
(8.54476 0.034301 0)
(8.59453 0.0143129 0)
(8.64213 -0.00376414 0)
(8.73198 -0.0507898 0)
(8.76617 -0.0928774 0)
(8.88888 -0.13207 0)
(8.87145 -0.193245 0)
(9.0149 -0.225857 0)
(8.97559 -0.274877 0)
(9.09277 -0.332529 0)
(9.07935 -0.358559 0)
(9.17328 -0.440177 0)
(9.2084 -0.45484 0)
(9.24289 -0.516779 0)
(9.19243 -0.550435 0)
(9.22056 -0.579709 0)
(9.20044 -0.63542 0)
(9.2253 -0.596024 0)
(9.09498 -0.527487 0)
(9.09346 -0.422462 0)
(8.98569 -0.309611 0)
(8.88642 -0.179502 0)
(8.77413 0.00511179 0)
(8.73824 0.144073 0)
(8.64132 0.283836 0)
(8.56854 0.470214 0)
(8.61159 0.52367 0)
(8.51446 0.6017 0)
(8.52082 0.61133 0)
(8.56025 0.60622 0)
(8.57838 0.577579 0)
(8.62268 0.514167 0)
(8.76565 0.43967 0)
(8.83743 0.335074 0)
(8.93054 0.227507 0)
(9.0812 0.0510499 0)
(9.21966 -0.0870217 0)
(9.25461 -0.278125 0)
(9.45217 -0.544583 0)
(9.45711 -0.687287 0)
(9.59763 -0.873641 0)
(9.66588 -1.12285 0)
(9.73188 -1.18304 0)
(9.94973 -1.40124 0)
(10.0426 -1.54883 0)
(10.1964 -1.59845 0)
(10.5266 -1.75359 0)
(10.6219 -1.88238 0)
(10.8927 -1.90579 0)
(11.139 -2.02047 0)
(11.4026 -2.05899 0)
(11.5507 -2.09604 0)
(11.8005 -2.16646 0)
(11.9787 -2.15345 0)
(12.233 -2.11593 0)
(12.3761 -2.15495 0)
(12.5394 -2.15616 0)
(12.7553 -2.10054 0)
(12.8804 -2.10847 0)
(13.0947 -2.08233 0)
(13.2217 -2.10079 0)
(13.3435 -2.07656 0)
(13.5343 -2.12118 0)
(13.6712 -2.07461 0)
(13.7891 -2.15455 0)
(13.9063 -2.19112 0)
(13.9865 -2.24113 0)
(14.0968 -2.25874 0)
(14.1408 -2.35026 0)
(14.2265 -2.38036 0)
(14.1509 -2.41292 0)
(14.252 -2.53455 0)
(14.093 -2.53072 0)
(14.145 -2.56847 0)
(13.9551 -2.62667 0)
(13.9259 -2.68365 0)
(13.6316 -2.70003 0)
(13.6059 -2.75306 0)
(13.4063 -2.81677 0)
(13.1138 -2.8414 0)
(13.1656 -2.92458 0)
(12.8186 -3.06094 0)
(12.9032 -3.04997 0)
(12.4942 -3.20473 0)
(12.9158 -3.35931 0)
(12.3469 -3.38209 0)
(12.8563 -3.55295 0)
(12.4724 -3.70887 0)
(12.7988 -3.61423 0)
(12.6647 -3.71394 0)
(12.7552 -3.55762 0)
(12.8655 -3.39535 0)
(12.8022 -3.19718 0)
(12.9262 -2.85688 0)
(13.0122 -2.55824 0)
(12.9561 -2.16506 0)
(13.1003 -1.65383 0)
(13.0849 -1.27498 0)
(13.087 -0.692463 0)
(13.091 -0.230063 0)
(13.1355 0.2581 0)
(13.0195 0.729476 0)
(13.0941 1.13034 0)
(12.982 1.57211 0)
(12.9478 1.84375 0)
(12.8281 2.254 0)
(12.713 2.41673 0)
(12.5118 2.72433 0)
(12.2695 2.86833 0)
(11.9102 3.00347 0)
(11.6319 3.0901 0)
(11.0622 3.02488 0)
(10.5918 2.87117 0)
(10.093 2.64665 0)
(9.48221 2.38734 0)
(9.14504 1.83109 0)
(8.55918 1.54373 0)
(8.31116 1.01978 0)
(7.94263 0.589871 0)
(8.01528 0.195546 0)
(7.40241 -0.319601 0)
(7.68458 -0.496708 0)
(7.24303 -1.14175 0)
(7.69057 -1.53126 0)
(7.43367 -2.05936 0)
(8.22906 -2.4179 0)
(8.19208 -2.85499 0)
(8.89866 -2.39882 0)
(8.78276 -2.22634 0)
(9.25869 -1.60296 0)
(8.9785 -1.17094 0)
(9.25396 -0.321267 0)
(8.96507 0.395805 0)
(9.31638 1.45732 0)
(8.84075 2.20884 0)
(9.09811 3.23431 0)
(8.84433 3.94702 0)
(8.99295 4.4493 0)
(8.73059 5.01318 0)
(8.86272 5.62901 0)
(8.72061 5.85801 0)
(8.39731 5.81692 0)
(8.69877 6.45158 0)
(8.54513 6.92703 0)
(7.91722 6.75808 0)
(8.11186 7.7963 0)
(8.56022 8.86071 0)
(8.52048 8.99932 0)
(7.58374 10.2651 0)
(10.8164 9.18885 0)
(8.43043 14.5597 0)
(10.3399 -0.0514754 0)
(10.2809 0.00493363 0)
(10.2211 0.0167219 0)
(10.1701 -0.0313183 0)
(10.1499 -0.0658878 0)
(10.1845 -0.108152 0)
(10.2032 -0.126231 0)
(10.2439 -0.1248 0)
(10.2732 -0.117294 0)
(10.2803 -0.0859074 0)
(10.2921 -0.0793923 0)
(10.273 -0.0630954 0)
(10.2697 -0.0780602 0)
(10.2408 -0.0741939 0)
(10.2548 -0.0809105 0)
(10.2331 -0.07648 0)
(10.2828 -0.0462136 0)
(10.2858 -0.0392343 0)
(10.3011 -0.00524053 0)
(10.3447 -0.0174717 0)
(10.2938 -0.0119573 0)
(10.352 -0.0254669 0)
(10.2961 -0.0551535 0)
(10.3373 -0.0546696 0)
(10.3309 -0.079364 0)
(10.357 -0.0727908 0)
(10.3654 -0.0802905 0)
(10.398 -0.0825208 0)
(10.3806 -0.0750942 0)
(10.3958 -0.0788488 0)
(10.3801 -0.0775723 0)
(10.3513 -0.0656031 0)
(10.3602 -0.0686938 0)
(10.3245 -0.0584348 0)
(10.3322 -0.0397687 0)
(10.3385 -0.0496171 0)
(10.3326 -0.00765583 0)
(10.3602 -0.0146231 0)
(10.3581 0.00321907 0)
(10.3845 0.0295752 0)
(10.3684 0.0140084 0)
(10.4146 0.0446409 0)
(10.3577 0.0354193 0)
(10.4361 0.0344153 0)
(10.3641 0.0404093 0)
(10.4406 0.02625 0)
(10.3964 0.0293905 0)
(10.4497 0.00937482 0)
(10.4445 0.0245832 0)
(10.4864 -0.0170745 0)
(10.5151 -0.00336659 0)
(10.553 -0.0454112 0)
(10.625 -0.0870555 0)
(10.6507 -0.0984647 0)
(10.7313 -0.181549 0)
(10.7474 -0.199524 0)
(10.8037 -0.2591 0)
(10.8137 -0.310994 0)
(10.854 -0.348275 0)
(10.8461 -0.399694 0)
(10.9027 -0.441269 0)
(10.8843 -0.495168 0)
(10.8947 -0.536472 0)
(10.8272 -0.583048 0)
(10.8395 -0.570184 0)
(10.7971 -0.558061 0)
(10.798 -0.547029 0)
(10.7034 -0.443107 0)
(10.6106 -0.387283 0)
(10.5558 -0.284613 0)
(10.4614 -0.132557 0)
(10.4105 0.0345216 0)
(10.3351 0.200187 0)
(10.3244 0.339524 0)
(10.2531 0.476516 0)
(10.314 0.577567 0)
(10.2689 0.628268 0)
(10.2586 0.653574 0)
(10.2993 0.660992 0)
(10.2816 0.600479 0)
(10.3027 0.53348 0)
(10.3424 0.454011 0)
(10.4236 0.294201 0)
(10.3973 0.198549 0)
(10.5947 0.0289086 0)
(10.5755 -0.177022 0)
(10.7034 -0.33367 0)
(10.8579 -0.561736 0)
(10.8926 -0.755208 0)
(11.043 -0.954418 0)
(11.1783 -1.14219 0)
(11.2623 -1.32036 0)
(11.458 -1.50181 0)
(11.5549 -1.66944 0)
(11.7463 -1.76653 0)
(11.8678 -1.93217 0)
(12.0412 -2.03787 0)
(12.1916 -2.09943 0)
(12.3221 -2.1399 0)
(12.4206 -2.26359 0)
(12.5575 -2.24997 0)
(12.6491 -2.23678 0)
(12.7588 -2.26529 0)
(12.8106 -2.26273 0)
(12.9039 -2.25396 0)
(12.9738 -2.22434 0)
(13.0757 -2.20426 0)
(13.122 -2.16037 0)
(13.2041 -2.22444 0)
(13.2898 -2.14986 0)
(13.3648 -2.16369 0)
(13.441 -2.17097 0)
(13.5442 -2.20626 0)
(13.5624 -2.22767 0)
(13.6478 -2.26464 0)
(13.7753 -2.31755 0)
(13.7322 -2.29351 0)
(13.8539 -2.4056 0)
(13.8781 -2.41679 0)
(13.8314 -2.44868 0)
(13.9095 -2.4731 0)
(13.9205 -2.51936 0)
(13.7979 -2.50934 0)
(13.7331 -2.56064 0)
(13.7713 -2.60611 0)
(13.4742 -2.54093 0)
(13.5491 -2.63555 0)
(13.2624 -2.68228 0)
(13.1781 -2.69413 0)
(13.03 -2.80596 0)
(12.8469 -2.9056 0)
(12.7265 -2.95943 0)
(12.5688 -3.12171 0)
(12.5631 -3.23913 0)
(12.1856 -3.37377 0)
(12.447 -3.5403 0)
(11.9817 -3.61372 0)
(12.2242 -3.63863 0)
(11.8558 -3.68382 0)
(12.03 -3.51358 0)
(11.8487 -3.41862 0)
(11.8083 -3.13317 0)
(11.928 -2.88907 0)
(11.8379 -2.55185 0)
(11.8254 -2.09129 0)
(12.0239 -1.70695 0)
(11.8568 -1.23601 0)
(12.0035 -0.713134 0)
(11.9895 -0.256969 0)
(11.9757 0.265801 0)
(11.9601 0.731076 0)
(11.9987 1.1793 0)
(11.9389 1.56052 0)
(11.9448 1.95393 0)
(11.9852 2.23789 0)
(11.8068 2.56233 0)
(11.8857 2.80309 0)
(11.6456 3.04173 0)
(11.4656 3.25421 0)
(11.1726 3.32093 0)
(10.8067 3.49208 0)
(10.2897 3.19176 0)
(9.84117 3.18028 0)
(9.12302 2.73812 0)
(8.90426 2.35227 0)
(8.1743 2.0165 0)
(7.90797 1.40242 0)
(7.5001 0.885932 0)
(7.42644 0.386603 0)
(6.96654 -0.103439 0)
(7.12767 -0.453998 0)
(6.95126 -1.17384 0)
(7.11321 -1.69922 0)
(7.37491 -2.28898 0)
(7.86506 -2.82614 0)
(8.18941 -3.0687 0)
(8.72824 -2.76571 0)
(8.73144 -2.33201 0)
(9.08216 -1.7653 0)
(8.88251 -1.05727 0)
(8.97017 -0.362011 0)
(8.70154 0.516924 0)
(8.93779 1.38042 0)
(8.72602 2.39169 0)
(8.71036 3.07732 0)
(8.67891 4.0168 0)
(8.60352 4.50462 0)
(8.74555 4.88707 0)
(8.71109 5.4534 0)
(8.87256 5.95438 0)
(8.74237 6.17185 0)
(8.45502 6.62079 0)
(8.91558 7.19521 0)
(8.7044 7.18294 0)
(8.19064 7.19161 0)
(8.84417 8.5943 0)
(10.2067 8.91408 0)
(7.66844 10.8404 0)
(11.7562 7.1033 0)
(10.0427 13.796 0)
(11.9207 -0.0384333 0)
(11.8638 -0.0319238 0)
(11.7763 -0.0382496 0)
(11.7567 -0.0838373 0)
(11.7247 -0.0996964 0)
(11.78 -0.127447 0)
(11.784 -0.133917 0)
(11.8085 -0.128325 0)
(11.8256 -0.130295 0)
(11.8036 -0.10168 0)
(11.8284 -0.108041 0)
(11.7888 -0.085223 0)
(11.832 -0.0834443 0)
(11.7682 -0.0736719 0)
(11.8142 -0.0700582 0)
(11.7518 -0.0802244 0)
(11.782 -0.071072 0)
(11.7946 -0.0701905 0)
(11.7615 -0.0527443 0)
(11.8718 -0.0520058 0)
(11.7975 -0.0293492 0)
(11.8909 -0.0290238 0)
(11.8324 -0.041375 0)
(11.836 -0.0398463 0)
(11.8303 -0.0802341 0)
(11.7824 -0.0846532 0)
(11.8183 -0.101641 0)
(11.7918 -0.128695 0)
(11.8574 -0.0825369 0)
(11.8276 -0.105791 0)
(11.9066 -0.0676134 0)
(11.8452 -0.0428672 0)
(11.8753 -0.0613932 0)
(11.8226 -0.0277342 0)
(11.7776 -0.0482246 0)
(11.7837 -0.0557573 0)
(11.7253 -0.0353786 0)
(11.7692 -0.0320584 0)
(11.7591 -0.0352489 0)
(11.8269 0.0259277 0)
(11.8203 -0.00218102 0)
(11.9005 0.0294131 0)
(11.8566 0.0528772 0)
(11.9141 -0.000211844 0)
(11.8699 0.0505223 0)
(11.889 0.00072066 0)
(11.8581 0.00253697 0)
(11.8988 -0.00114915 0)
(11.8625 -0.0191261 0)
(11.9491 -0.0342209 0)
(11.9286 -0.0406898 0)
(12.0099 -0.0673221 0)
(12.0409 -0.114955 0)
(12.0865 -0.116208 0)
(12.1177 -0.202714 0)
(12.1523 -0.226029 0)
(12.1407 -0.274161 0)
(12.1625 -0.344074 0)
(12.1287 -0.364042 0)
(12.1202 -0.414837 0)
(12.0951 -0.469146 0)
(12.0629 -0.489966 0)
(12.0161 -0.548973 0)
(11.9754 -0.545918 0)
(11.9427 -0.53729 0)
(11.8896 -0.489302 0)
(11.8718 -0.488797 0)
(11.7653 -0.405843 0)
(11.705 -0.321419 0)
(11.6238 -0.232948 0)
(11.6049 -0.0554651 0)
(11.5042 0.04742 0)
(11.5036 0.211993 0)
(11.452 0.342095 0)
(11.4854 0.463379 0)
(11.4956 0.538196 0)
(11.5689 0.614384 0)
(11.5916 0.63965 0)
(11.6501 0.646775 0)
(11.735 0.588807 0)
(11.7373 0.554612 0)
(11.8349 0.433035 0)
(11.8899 0.289897 0)
(11.9216 0.183534 0)
(12.0336 -0.0425016 0)
(12.0638 -0.214468 0)
(12.1742 -0.399721 0)
(12.2564 -0.610734 0)
(12.305 -0.83751 0)
(12.4567 -0.994029 0)
(12.4665 -1.23006 0)
(12.5892 -1.41407 0)
(12.6427 -1.57189 0)
(12.737 -1.72637 0)
(12.7487 -1.91099 0)
(12.8607 -1.95233 0)
(12.8397 -2.10295 0)
(12.9446 -2.15445 0)
(12.878 -2.21175 0)
(12.9361 -2.2572 0)
(12.9652 -2.25945 0)
(12.9274 -2.25411 0)
(12.8914 -2.30407 0)
(12.9535 -2.26971 0)
(12.9185 -2.23923 0)
(12.9617 -2.25303 0)
(12.9743 -2.22556 0)
(12.9809 -2.24904 0)
(13.0287 -2.18631 0)
(13.1234 -2.23002 0)
(13.1405 -2.20415 0)
(13.1709 -2.2241 0)
(13.3327 -2.31409 0)
(13.3395 -2.24355 0)
(13.4441 -2.31514 0)
(13.5588 -2.37168 0)
(13.5756 -2.36413 0)
(13.6755 -2.43713 0)
(13.7667 -2.43781 0)
(13.7984 -2.44832 0)
(13.8496 -2.47023 0)
(13.8821 -2.52145 0)
(13.8003 -2.47561 0)
(13.8553 -2.45709 0)
(13.7664 -2.47902 0)
(13.5831 -2.46666 0)
(13.5435 -2.48166 0)
(13.2808 -2.51234 0)
(13.1355 -2.56144 0)
(12.8609 -2.61997 0)
(12.6951 -2.72465 0)
(12.3911 -2.82853 0)
(12.1534 -2.93333 0)
(11.8935 -3.08648 0)
(11.6805 -3.24323 0)
(11.4662 -3.35108 0)
(11.1328 -3.48244 0)
(11.1297 -3.54695 0)
(10.6853 -3.51525 0)
(10.8269 -3.4163 0)
(10.4239 -3.29948 0)
(10.5339 -3.0363 0)
(10.4714 -2.80785 0)
(10.3779 -2.43925 0)
(10.572 -2.08248 0)
(10.6022 -1.63941 0)
(10.5267 -1.17109 0)
(10.6834 -0.65346 0)
(10.6634 -0.23281 0)
(10.5958 0.31353 0)
(10.6114 0.708873 0)
(10.6424 1.20112 0)
(10.5162 1.54424 0)
(10.7104 1.89761 0)