/*--------------------------------*- C++ -*----------------------------------*\
| =========                 |                                                 |
| \\      /  F ield         | OpenFOAM: The Open Source CFD Toolbox           |
|  \\    /   O peration     | Version:  2.4.0                                 |
|   \\  /    A nd           | Web:      www.OpenFOAM.org                      |
|    \\/     M anipulation  |                                                 |
\*---------------------------------------------------------------------------*/
FoamFile
{
    version     2.0;
    format      ascii;
    class       volScalarField;
    location    "0.85";
    object      k;
}
// * * * * * * * * * * * * * * * * * * * * * * * * * * * * * * * * * * * * * //

dimensions      [0 2 -2 0 0 0 0];

internalField   nonuniform List<scalar> 
8800
(
8.12225
10.2653
8.79284
6.82157
5.70834
4.96782
4.5335
4.13834
3.9179
3.66323
3.54924
3.3628
3.29821
3.15853
3.10116
2.98333
2.91648
2.81177
2.73542
2.56062
1.40543
4.35159
5.31893
5.28791
5.13182
4.80516
4.58003
4.28374
4.12087
3.88057
3.77633
3.58403
3.51906
3.3782
3.32668
3.21638
3.1724
3.07986
3.00854
2.9613
0.084452
0.732818
1.56227
1.9393
2.28139
2.43493
2.57387
2.60343
2.62471
2.59834
2.58765
2.54196
2.52429
2.47226
2.45874
2.4149
2.40514
2.36541
2.35024
2.30637
0.00335147
0.0700675
0.258418
0.414667
0.589318
0.703098
0.832024
0.930808
1.03304
1.08621
1.16349
1.21091
1.26245
1.29316
1.34088
1.36619
1.40511
1.42293
1.46436
1.46417
0.000122409
0.00496477
0.0230518
0.0506418
0.087536
0.128141
0.157074
0.208605
0.245548
0.286501
0.311833
0.362714
0.384674
0.429529
0.452117
0.50085
0.524125
0.57569
0.59992
0.654991
2.50621e-05
0.000312648
0.00147241
0.00422839
0.00700556
0.0130836
0.017284
0.0271992
0.0331403
0.0451642
0.0509239
0.0645385
0.0709192
0.0854737
0.0929772
0.110417
0.119036
0.140023
0.14941
0.173633
2.17642e-05
4.36604e-05
0.000118322
0.000326693
0.00049023
0.000878624
0.00121919
0.00209014
0.0026788
0.00401494
0.00468123
0.00637321
0.00723892
0.00939871
0.0106962
0.0136946
0.0153914
0.019507
0.0214461
0.0260919
2.10679e-05
3.18002e-05
4.62834e-05
7.8157e-05
8.94145e-05
0.000111173
0.000129866
0.000179869
0.000214565
0.000301005
0.000337922
0.000437573
0.000490976
0.000643618
0.000730967
0.000938059
0.00109279
0.00148749
0.00166818
0.00199398
2.07615e-05
2.89618e-05
3.89595e-05
6.2763e-05
7.07441e-05
7.09914e-05
6.96794e-05
7.29523e-05
8.18529e-05
8.96706e-05
9.30565e-05
9.61822e-05
9.71614e-05
0.000103826
0.000107785
0.00011127
0.000118809
0.000145839
0.000151999
0.000158609
2.05822e-05
2.93018e-05
3.68422e-05
5.32906e-05
6.43527e-05
6.76706e-05
6.74978e-05
6.62864e-05
6.69748e-05
7.12297e-05
7.27282e-05
7.44088e-05
7.45652e-05
7.49712e-05
7.72513e-05
7.74414e-05
7.76866e-05
7.9524e-05
8.0153e-05
8.22177e-05
2.05941e-05
2.94123e-05
3.69635e-05
5.32557e-05
6.6584e-05
6.9089e-05
6.81575e-05
6.64613e-05
6.53507e-05
6.69748e-05
7.39315e-05
7.5799e-05
7.83169e-05
7.92481e-05
7.7656e-05
7.56288e-05
7.56835e-05
7.84237e-05
8.05184e-05
8.6684e-05
2.0751e-05
2.78713e-05
4.02367e-05
6.53694e-05
6.9157e-05
6.91323e-05
6.90925e-05
7.17586e-05
7.63946e-05
9.16069e-05
9.46399e-05
9.70029e-05
0.000100261
0.000104135
0.00010693
0.000118947
0.000132431
0.000151867
0.000174084
0.000228757
2.10111e-05
3.06112e-05
4.63034e-05
8.05655e-05
9.16077e-05
0.000114567
0.000131528
0.000171581
0.000201375
0.000284934
0.000329351
0.000446618
0.00052332
0.000700865
0.000798279
0.0010518
0.0012167
0.00161607
0.00195139
0.00282591
2.16565e-05
4.27581e-05
0.000118946
0.00038757
0.000548292
0.000887518
0.00119581
0.00194757
0.0024961
0.00394261
0.00474316
0.00656756
0.00760069
0.00998276
0.0112056
0.014246
0.0161209
0.0207457
0.0237422
0.0318211
2.4987e-05
0.000305506
0.00146365
0.00516336
0.00756725
0.0125704
0.0169525
0.0264458
0.0320325
0.0453991
0.0518239
0.0654233
0.0722082
0.0876414
0.0949426
0.11268
0.122247
0.145866
0.159024
0.194215
0.000123604
0.00491124
0.0218874
0.0597287
0.084941
0.121846
0.161601
0.208213
0.235305
0.292511
0.31657
0.363608
0.385998
0.435134
0.456509
0.50752
0.531986
0.592956
0.622215
0.695746
0.00336221
0.0693145
0.259284
0.425405
0.580276
0.69784
0.841401
0.928503
1.01797
1.10286
1.16045
1.2152
1.25765
1.31189
1.33485
1.38409
1.40561
1.45995
1.48134
1.52818
0.0844633
0.725374
1.56985
1.94159
2.27817
2.42895
2.58483
2.59635
2.62507
2.60068
2.59006
2.5403
2.5256
2.47693
2.46256
2.41984
2.41061
2.38328
2.37111
2.33957
1.40466
4.34893
5.32437
5.28633
5.13266
4.79789
4.58692
4.27654
4.1328
3.86751
3.77887
3.57902
3.51995
3.36413
3.32747
3.19712
3.1666
3.0448
3.00378
2.89899
8.11889
10.264
8.80049
6.8102
5.71899
4.95899
4.53693
4.13069
3.92926
3.64639
3.5536
3.34679
3.29931
3.12667
3.09585
2.9313
2.89492
2.71199
2.64688
2.43159
1.77669
1.28951
1.02798
0.883121
0.800403
0.747949
0.711163
0.680392
0.653451
0.628813
0.606337
0.587961
0.569387
0.557693
0.544408
0.53686
0.526946
0.522244
0.51598
0.512746
0.508153
0.502227
0.494394
0.482463
0.464179
0.445199
0.425487
0.414529
0.405999
0.405287
0.406891
0.410739
0.415461
0.420578
0.424677
0.42865
0.432318
0.436465
0.43966
0.439996
0.439222
0.436375
0.429666
0.417389
0.39965
0.377262
0.349622
0.323843
0.294648
0.268342
0.243738
0.221697
0.203783
0.186997
0.174705
0.162007
0.152512
0.143563
0.137646
0.132548
0.129711
0.130099
0.132484
0.139748
0.148002
0.164704
0.181709
0.203331
0.222989
0.245987
0.266485
0.287837
0.300724
0.314049
0.322037
0.328303
0.333224
0.336349
0.336087
0.33686
0.336148
0.333462
0.33102
0.323886
0.318444
0.306671
0.29808
0.27851
0.267362
0.245106
0.22584
0.208966
0.183338
0.161189
0.149789
0.120763
0.10957
0.0990599
0.0867267
0.0851546
0.0855544
0.0880541
0.0973076
0.105716
0.120834
0.143026
0.148627
0.163535
0.170724
0.168926
0.166467
0.161242
0.146373
0.134679
0.117751
0.0975447
0.0777993
0.0583131
0.0429688
0.0301611
0.0211407
0.0145935
0.0106716
0.00833501
0.00770472
0.00783322
0.0089354
0.0097753
0.0118001
0.0132563
0.0136827
0.0141892
0.0143441
0.0145865
0.0168858
0.0260691
0.0530651
0.145189
0.21394
0.21753
0.212392
0.228191
0.254964
0.249546
0.196666
0.133131
0.106853
0.0931013
0.090296
0.0919567
0.102686
0.107826
0.10957
0.110411
0.1092
0.108841
0.115081
0.118885
0.11901
0.113477
0.0989399
0.0897276
0.0877851
0.08707
0.0848203
0.0774997
0.0737597
0.0751817
0.0863594
0.124832
0.164804
0.173684
0.170944
0.163213
0.144885
0.134128
0.121471
0.113536
0.109888
0.106637
0.105993
0.104467
0.103563
0.100588
0.0976584
0.0937468
0.0863171
0.07877
0.0730651
0.0718456
0.0671724
0.0679631
0.0633085
0.064877
0.0646917
0.0678716
0.0885576
0.10934
0.222225
0.720148
2.49994
2.0406
1.70583
1.47038
1.30021
1.17758
1.08316
1.0109
0.951151
0.901991
0.859076
0.824471
0.791624
0.765772
0.741034
0.723047
0.705186
0.690635
0.676657
0.665826
0.655355
0.645027
0.635765
0.626358
0.616364
0.604937
0.593565
0.582503
0.572417
0.562294
0.555075
0.548466
0.544161
0.53887
0.535219
0.530733
0.528015
0.524312
0.522827
0.520444
0.519864
0.518516
0.517727
0.516097
0.51345
0.509295
0.502112
0.493597
0.484266
0.470444
0.456921
0.441735
0.423281
0.40598
0.386741
0.369846
0.352321
0.341587
0.325244
0.320557
0.311832
0.310466
0.31079
0.313882
0.317363
0.324825
0.329189
0.336402
0.339357
0.344029
0.345138
0.347393
0.347129
0.347356
0.346387
0.345139
0.340859
0.337888
0.329797
0.323353
0.310612
0.301813
0.280595
0.269279
0.246545
0.228286
0.212644
0.179944
0.163102
0.142051
0.114462
0.100511
0.0803452
0.0639938
0.0551677
0.0423272
0.0373995
0.0328306
0.0278036
0.0269698
0.0256627
0.0254489
0.0269375
0.0281094
0.03054
0.0352643
0.0363435
0.0389648
0.0411887
0.0405362
0.0396198
0.0380036
0.0337023
0.0301973
0.0254583
0.0208656
0.0166848
0.0129187
0.0100595
0.00764931
0.00634841
0.00526517
0.00498489
0.00513315
0.00556911
0.00642619
0.00785161
0.00867956
0.0108792
0.0119869
0.012926
0.0136902
0.0145884
0.0162313
0.0214509
0.0347164
0.0779358
0.184541
0.222671
0.216815
0.226848
0.275443
0.296471
0.277533
0.195654
0.1324
0.107803
0.0933161
0.0898055
0.0918908
0.103975
0.106786
0.108637
0.110654
0.109586
0.108621
0.110535
0.114136
0.115607
0.112263
0.100886
0.0896463
0.0847192
0.0841922
0.0833288
0.0784146
0.0737943
0.0724119
0.075721
0.0896558
0.123975
0.15609
0.164007
0.162154
0.155419
0.143485
0.138561
0.128435
0.124123
0.117253
0.114818
0.110024
0.105861
0.103536
0.0971046
0.0929119
0.0812265
0.0779715
0.0701614
0.0701852
0.066445
0.0674532
0.0645724
0.0597148
0.0631723
0.0623313
0.0930638
0.101828
0.196234
0.428479
2.05852
1.80515
1.59023
1.42536
1.29378
1.18893
1.10286
1.0305
0.970519
0.919649
0.87236
0.834751
0.799376
0.769227
0.741172
0.716881
0.69585
0.678036
0.661409
0.64944
0.63772
0.626111
0.615237
0.604221
0.593716
0.58361
0.572154
0.563705
0.554539
0.545498
0.538752
0.529752
0.524868
0.517983
0.512142
0.506371
0.500623
0.494896
0.490592
0.487212
0.485745
0.484698
0.484545
0.484493
0.483594
0.483233
0.481671
0.480522
0.478304
0.476123
0.474107
0.470122
0.468018
0.464548
0.457389
0.453008
0.443199
0.438533
0.427847
0.422989
0.415451
0.408112
0.403619
0.395016
0.387885
0.383783
0.374506
0.368617
0.362944
0.353327
0.348472
0.340947
0.330325
0.322065
0.31012
0.300097
0.285275
0.26755
0.257221
0.231906
0.217493
0.193416
0.165385
0.149937
0.120181
0.100371
0.0830416
0.0643851
0.0535924
0.042971
0.0336941
0.0285991
0.0226972
0.018703
0.0161736
0.0128638
0.0111689
0.00986452
0.00805497
0.0075517
0.00694038
0.00641747
0.00647396
0.0065885
0.00674386
0.00724707
0.00753315
0.0077635
0.00792345
0.00785716
0.00764685
0.00739891
0.00663061
0.00623168
0.00535094
0.00485932
0.00416555
0.00386436
0.00343359
0.00332991
0.0033667
0.00349686
0.00373713
0.00445731
0.00501252
0.00618311
0.00716506
0.00843606
0.0105352
0.0117293
0.0128509
0.0152944
0.0169761
0.0202275
0.0287667
0.0476709
0.115553
0.207357
0.225248
0.218861
0.247584
0.310815
0.326281
0.300436
0.205126
0.141293
0.115339
0.100925
0.0954272
0.0989293
0.104406
0.104965
0.105571
0.106196
0.105829
0.105399
0.106571
0.10886
0.110852
0.109667
0.100156
0.0909375
0.082789
0.0824708
0.0818377
0.0792684
0.0743126
0.0723241
0.0719435
0.0762743
0.0903169
0.117141
0.14543
0.15401
0.152559
0.146206
0.140537
0.1347
0.126901
0.123411
0.116575
0.113415
0.106553
0.102762
0.0935872
0.0888501
0.079478
0.0743133
0.0720285
0.0672547
0.0682023
0.0627139
0.0657324
0.0585655
0.0713156
0.0671599
0.127849
0.115181
0.143287
0.255398
1.36129
1.24175
1.12718
1.03332
0.960547
0.898652
0.84233
0.797298
0.752108
0.716237
0.682899
0.651541
0.628134
0.605171
0.581683
0.563105
0.541482
0.524714
0.508724
0.494837
0.485237
0.477147
0.466067
0.460664
0.449225
0.441389
0.430331
0.42052
0.411649
0.402463
0.393723
0.387914
0.380282
0.37572
0.370828
0.365375
0.361614
0.356643
0.350734
0.346745
0.342548
0.34038
0.340249
0.340644
0.342866
0.345588
0.349516
0.351406
0.354954
0.356651
0.360267
0.361882
0.365285
0.367124
0.370957
0.373017
0.372779
0.371862
0.370262
0.365263
0.361895
0.352773
0.34601
0.334546
0.322915
0.310703
0.297776
0.282094
0.270695
0.252879
0.238334
0.219779
0.205502
0.187418
0.172706
0.159317
0.142095
0.128327
0.115668
0.0962993
0.0847373
0.069946
0.0582938
0.0486723
0.0384031
0.0310227
0.0244739
0.0189581
0.01505
0.0117567
0.00950257
0.00777642
0.00645864
0.00551832
0.00472714
0.00403105
0.00353868
0.00310845
0.00265517
0.00241396
0.00221581
0.0019832
0.00191626
0.00192114
0.00192215
0.00197815
0.00205667
0.00210838
0.00223356
0.00226106
0.00231634
0.00233152
0.00234429
0.00235857
0.00239738
0.00243958
0.0024736
0.00258929
0.00266158
0.00279027
0.00313321
0.00341581
0.00382689
0.00489499
0.00555963
0.00691201
0.00818441
0.0101012
0.0123562
0.0137705
0.015805
0.0202624
0.0225216
0.0269715
0.0380826
0.0653329
0.150283
0.221013
0.21778
0.223092
0.26389
0.315255
0.352403
0.336418
0.247629
0.16191
0.129253
0.120701
0.111374
0.107808
0.106561
0.105978
0.105032
0.104182
0.102612
0.102848
0.104155
0.105855
0.106794
0.106814
0.0981945
0.0910594
0.0833081
0.0800011
0.0813359
0.0796253
0.0744974
0.074209
0.072495
0.0723272
0.0771317
0.0899384
0.105452
0.12944
0.141073
0.140556
0.138755
0.134022
0.130106
0.123472
0.117856
0.114153
0.106496
0.0968753
0.0919139
0.0823311
0.0796709
0.0729867
0.0752312
0.0705117
0.077719
0.0696373
0.0831503
0.0714419
0.0987038
0.086598
0.115874
0.121106
0.126273
0.173514
0.625074
0.58494
0.545601
0.5051
0.474592
0.454826
0.428859
0.414324
0.396256
0.378817
0.368022
0.350265
0.339633
0.330428
0.318031
0.311615
0.301137
0.290919
0.282693
0.271471
0.265129
0.259943
0.253484
0.251087
0.24692
0.244015
0.239601
0.232728
0.227392
0.220049
0.211622
0.205591
0.198435
0.19346
0.189365
0.186936
0.185955
0.185634
0.184065
0.182646
0.17891
0.173788
0.170596
0.169366
0.169768
0.170905
0.174265
0.179001
0.184185
0.188473
0.19095
0.193247
0.193672
0.194651
0.194616
0.19471
0.19463
0.193247
0.193986
0.193476
0.192799
0.191267
0.187519
0.18332
0.177775
0.16706
0.155435
0.141186
0.123345
0.109112
0.093717
0.0807878
0.0692093
0.0585502
0.0502923
0.0444308
0.0381108
0.0345263
0.0305435
0.0273031
0.0246608
0.0213525
0.0183433
0.0150762
0.0121435
0.00953179
0.00734293
0.00575047
0.00437074
0.00353679
0.00290911
0.00241256
0.00216236
0.00192929
0.00174969
0.00163869
0.00153268
0.00144631
0.00134772
0.00128702
0.00123118
0.00115683
0.00115326
0.00115398
0.00115616
0.00121195
0.00125657
0.00131165
0.00144206
0.00150723
0.00162306
0.00175491
0.00193076
0.00204934
0.00232641
0.00254954
0.00286565
0.00350708
0.00389433
0.00463674
0.00573417
0.00636909
0.00769775
0.00928861
0.0102233
0.0121599
0.0141851
0.0157896
0.0185501
0.0200238
0.0236823
0.0269766
0.0296028
0.0358974
0.0496471
0.0838968
0.17424
0.219857
0.210906
0.222701
0.264426
0.3123
0.362527
0.386631
0.299704
0.178641
0.149085
0.146012
0.125575
0.11455
0.110099
0.109158
0.108199
0.103356
0.101741
0.1022
0.104932
0.107168
0.105579
0.104697
0.0977179
0.0887831
0.0855671
0.080268
0.0810873
0.081533
0.0760687
0.0737903
0.0762059
0.0730742
0.073771
0.0825749
0.0869004
0.0959114
0.11312
0.117174
0.126036
0.124989
0.122208
0.118845
0.109496
0.106412
0.0962014
0.0940043
0.0891451
0.0812176
0.0812479
0.078148
0.0840885
0.0820437
0.0918156
0.0879744
0.0957271
0.0906539
0.0945516
0.0926405
0.0918444
0.11333
0.115109
0.137656
0.169807
0.163564
0.157479
0.148179
0.140144
0.136616
0.130405
0.127683
0.124489
0.120435
0.118613
0.114172
0.111881
0.109927
0.106602
0.105283
0.103355
0.10083
0.0989383
0.0943744
0.0922269
0.089755
0.0876748
0.0870437
0.0862479
0.0853888
0.0848066
0.0835247
0.0825114
0.0804943
0.0771162
0.0741173
0.0704799
0.0673197
0.065
0.0632189
0.0620292
0.061782
0.061713
0.0620127
0.0624854
0.0624803
0.0610159
0.0589049
0.0585674
0.0585699
0.0590477
0.0606107
0.0623263
0.0652996
0.0664814
0.0693406
0.07
0.0713762
0.0714247
0.0711209
0.0707915
0.0695142
0.0685751
0.0665319
0.0640676
0.0624806
0.0600152
0.0581755
0.0567278
0.0538343
0.0514436
0.0481135
0.0437382
0.0390898
0.0328433
0.0270899
0.0214339
0.0165931
0.0130548
0.0105218
0.00896636
0.00794058
0.00731777
0.00701873
0.00670028
0.00628506
0.00545679
0.00457366
0.00370836
0.00291551
0.00235379
0.00186752
0.00153408
0.00135289
0.00119376
0.00111061
0.00111209
0.00112764
0.00115837
0.00117335
0.0012023
0.00122345
0.00121762
0.00121783
0.00122387
0.00122934
0.00125168
0.00129968
0.00134631
0.00147766
0.00160792
0.0017325
0.00204809
0.00231878
0.00260871
0.00326883
0.0037794
0.00444101
0.00580559
0.00674231
0.00796987
0.0102053
0.0113564
0.0137581
0.0154017
0.0169264
0.0195321
0.0206528
0.0217252
0.0238393
0.0248072
0.0263575
0.0287328
0.0296962
0.0317838
0.033521
0.0379754
0.0496741
0.0652258
0.0999868
0.187601
0.211741
0.208135
0.218418
0.253915
0.300633
0.354584
0.440989
0.359858
0.217387
0.177838
0.163734
0.135064
0.116969
0.110212
0.110913
0.108994
0.10324
0.098767
0.10041
0.103408
0.106169
0.104832
0.101713
0.0970664
0.0855789
0.086352
0.0834985
0.0806436
0.0868801
0.0825686
0.0742887
0.0776999
0.0769221
0.073939
0.0770154
0.0839648
0.0849833
0.0955073
0.0972112
0.0989838
0.103004
0.0991105
0.101893
0.0957482
0.0963221
0.0913708
0.0900526
0.0854286
0.0832103
0.0826684
0.0835827
0.0835498
0.0860287
0.0848148
0.0877214
0.0854596
0.0870638
0.0838957
0.0876829
0.0862363
0.100301
0.101247
0.113571
0.0259429
0.0256818
0.0251901
0.0244582
0.0235021
0.0230268
0.022373
0.0221851
0.0220203
0.0218959
0.0218308
0.0214194
0.0211695
0.0209594
0.0206946
0.0206645
0.020606
0.0205544
0.0204889
0.0198192
0.0191497
0.018555
0.0182519
0.018221
0.0182506
0.0183944
0.0184502
0.0184221
0.0183888
0.0182868
0.0181096
0.0176217
0.0168244
0.0159629
0.0150503
0.0142766
0.013785
0.0136816
0.013691
0.0140677
0.0146689
0.0151409
0.0153724
0.0151223
0.0146373
0.0142242
0.014205
0.0142708
0.01451
0.0157818
0.0167957
0.0184749
0.0193253
0.0203212
0.0206434
0.0206152
0.0204834
0.0195897
0.018425
0.0168199
0.0150864
0.013328
0.0122818
0.0121321
0.0127697
0.0134262
0.0135298
0.0134557
0.0132555
0.012483
0.0103225
0.00795713
0.00581798
0.00413173
0.00289392
0.00226364
0.0019181
0.00181066
0.00179901
0.00177882
0.00177554
0.00175756
0.00159766
0.00142152
0.00122628
0.00111965
0.00102396
0.000958935
0.000924818
0.00091345
0.000920291
0.000945893
0.00105799
0.00115914
0.00137459
0.00148649
0.00168846
0.00189843
0.00199071
0.00214398
0.00238263
0.00250996
0.00267389
0.00303858
0.00326112
0.00375729
0.00423838
0.00471171
0.00593284
0.00670057
0.00809209
0.0102402
0.011675
0.0145735
0.0179992
0.0205748
0.0251233
0.0295418
0.0327655
0.0373898
0.0398697
0.0427073
0.0442392
0.0443306
0.044151
0.0438158
0.0435462
0.0435043
0.0426126
0.0424436
0.0433165
0.0464538
0.0493426
0.0547891
0.0662075
0.105722
0.192044
0.206638
0.201027
0.20921
0.233212
0.28264
0.338664
0.487417
0.45545
0.282264
0.217073
0.190623
0.151216
0.118302
0.109773
0.111383
0.108561
0.103055
0.0944597
0.0950311
0.0991225
0.0987163
0.099247
0.0942944
0.0936776
0.0849632
0.0850615
0.0922013
0.0843506
0.0860227
0.0988891
0.0828646
0.0773868
0.0875007
0.0791388
0.0763928
0.0872973
0.0853225
0.0866052
0.0929522
0.0901285
0.0980995
0.0937901
0.0966295
0.0920169
0.0907513
0.0875815
0.0856953
0.0826298
0.0808132
0.0783787
0.0778128
0.0750321
0.0772827
0.0757432
0.0792136
0.0778574
0.0803399
0.0804925
0.0837972
0.0827257
0.092334
0.092605
0.0983193
0.00202619
0.0020294
0.00201947
0.0020048
0.00197137
0.00194079
0.00193823
0.00194349
0.00195831
0.00196084
0.00195369
0.00194547
0.0019415
0.00194073
0.00195883
0.00200544
0.00203752
0.00205184
0.0020488
0.00198732
0.00192026
0.00186779
0.00184943
0.00185391
0.00190214
0.00197693
0.00203481
0.00207456
0.00211654
0.002127
0.0021285
0.00211591
0.00202413
0.00188857
0.0017383
0.00162455
0.00154925
0.00153267
0.00156023
0.00170638
0.00187882
0.00198613
0.00205606
0.00203459
0.00196247
0.00190224
0.00189818
0.00190668
0.00198055
0.00235257
0.00272769
0.00313795
0.0033405
0.00345665
0.00346279
0.00341751
0.00325169
0.00309243
0.00298867
0.00279419
0.00242555
0.00205034
0.00183951
0.00184293
0.00221328
0.00261175
0.00278342
0.00282926
0.00282583
0.00263513
0.00211842
0.00156642
0.00114665
0.000809
0.00062335
0.000543152
0.000525465
0.000545688
0.000585522
0.000652682
0.000708583
0.000744293
0.000784229
0.000807284
0.000834686
0.000875073
0.000899748
0.000954486
0.00102486
0.00117595
0.00140711
0.00164009
0.0022901
0.00265555
0.00334145
0.00374755
0.00442186
0.00501822
0.00533678
0.0059431
0.00667453
0.00704628
0.00771219
0.00879236
0.0094397
0.0110507
0.0123656
0.0143316
0.0175893
0.0197093
0.0248249
0.0294419
0.0344205
0.0440703
0.049446
0.0594924
0.0694836
0.0783174
0.0858905
0.0928333
0.0967671
0.0966841
0.0951511
0.0904613
0.0849938
0.0812313
0.0721364
0.065523
0.0634453
0.0604574
0.0574027
0.0570551
0.0573701
0.0610067
0.0719228
0.129654
0.194821
0.198306
0.186288
0.19119
0.210456
0.255692
0.31184
0.495691
0.552091
0.367801
0.283508
0.241462
0.168788
0.119079
0.110447
0.10976
0.108233
0.104393
0.0925774
0.091489
0.093416
0.0890909
0.0959528
0.0894538
0.0888084
0.0862403
0.0846636
0.0981401
0.0960696
0.0884866
0.0959561
0.106878
0.0855689
0.0867572
0.0932497
0.0814135
0.0860861
0.0891185
0.0859398
0.09555
0.0915207
0.0949809
0.0944455
0.0912059
0.0914189
0.0882679
0.0890227
0.0852304
0.0854418
0.0822065
0.0823828
0.079573
0.07511
0.0730541
0.0731876
0.0738231
0.0747912
0.0754872
0.0754257
0.078687
0.0777508
0.0836188
0.0845792
0.0872687
0.00016074
0.000164832
0.000167755
0.000175118
0.000176498
0.000175738
0.000175255
0.000174118
0.000172505
0.000171503
0.000170632
0.000170574
0.000172051
0.000174089
0.000177353
0.000179054
0.000179882
0.000180113
0.000178781
0.000175862
0.000173886
0.000171607
0.000171004
0.000171127
0.000173259
0.000178955
0.000183043
0.00018688
0.000190129
0.000191043
0.000191498
0.000190546
0.000185744
0.000181255
0.000178494
0.000178529
0.000183243
0.000190389
0.000194133
0.000196052
0.00019882
0.000199327
0.000199501
0.000192702
0.000188628
0.000188647
0.000190451
0.00019745
0.000210585
0.000247462
0.000277252
0.000315142
0.000339054
0.000347369
0.000362978
0.000377492
0.000384196
0.000385778
0.000381869
0.000374011
0.000356032
0.000316472
0.000283889
0.000267514
0.000271051
0.000297816
0.000322902
0.000336841
0.000341019
0.000346415
0.000327769
0.000318458
0.000296564
0.000285236
0.000284566
0.000292166
0.000322876
0.00043622
0.00050668
0.000647434
0.000733298
0.000863103
0.00107112
0.00118754
0.00139616
0.00167787
0.00189529
0.00242323
0.00281161
0.00358231
0.00432376
0.00518671
0.00688262
0.00773216
0.00936006
0.0105063
0.0121683
0.0133408
0.0144683
0.0163069
0.0177454
0.0187118
0.0212988
0.023686
0.0255011
0.0303732
0.0336725
0.0400554
0.0472158
0.0537498
0.0692204
0.0784305
0.0948667
0.114462
0.129661
0.15471
0.174244
0.187987
0.205157
0.210065
0.20867
0.203408
0.192018
0.176506
0.155992
0.13389
0.114303
0.0996141
0.0857102
0.0760291
0.0732424
0.0733132
0.0735329
0.0757839
0.0840581
0.142165
0.191587
0.185792
0.168797
0.168439
0.19036
0.221374
0.284425
0.489495
0.649221
0.475685
0.371635
0.301719
0.18131
0.121018
0.107942
0.109287
0.107607
0.105088
0.0947941
0.0921957
0.0974391
0.087019
0.0884821
0.0905675
0.0908873
0.0898903
0.0873589
0.096508
0.128265
0.107774
0.0973709
0.126746
0.10702
0.0895364
0.105117
0.0933641
0.086802
0.0981714
0.0909818
0.099235
0.0985824
0.0941602
0.09662
0.0925508
0.0944648
0.0903166
0.0921676
0.0886572
0.089396
0.0861754
0.0857295
0.0815331
0.0792194
0.072837
0.0714649
0.0703805
0.0709796
0.0711588
0.0709064
0.0727639
0.073018
0.0745018
0.0778736
0.0788978
8.22097e-05
8.27779e-05
8.43605e-05
8.81499e-05
9.03387e-05
9.06382e-05
9.04742e-05
9.01775e-05
8.99398e-05
9.00373e-05
9.0419e-05
9.08753e-05
9.16354e-05
9.22913e-05
9.3108e-05
9.32479e-05
9.32352e-05
9.31685e-05
9.30528e-05
9.2591e-05
9.19367e-05
9.13417e-05
9.10564e-05
9.08947e-05
9.08727e-05
9.08645e-05
9.09453e-05
9.12427e-05
9.13514e-05
9.13445e-05
9.14449e-05
9.26849e-05
9.60577e-05
9.94905e-05
0.000101192
0.000101356
0.000101013
0.00010089
0.000102532
0.000105225
0.000106318
0.000105978
0.000104982
0.000102466
0.000100826
9.98683e-05
9.92995e-05
9.94021e-05
9.9421e-05
0.000100679
0.000103555
0.000107665
0.000109585
0.000109629
0.000109329
0.000113989
0.000128572
0.000140988
0.000147331
0.000146574
0.000142527
0.000140017
0.00014026
0.000142464
0.000148361
0.000168198
0.000184313
0.000204032
0.000219781
0.000239453
0.000252826
0.000278133
0.000311419
0.000378069
0.000464291
0.000701159
0.00087621
0.00126277
0.00151546
0.00204332
0.00242603
0.00291696
0.00360895
0.0040169
0.00492084
0.0058424
0.00685395
0.00831455
0.00931078
0.011615
0.0131965
0.015593
0.01895
0.0206361
0.0242075
0.0271099
0.030251
0.0330635
0.0361068
0.040232
0.0434756
0.0467497
0.0539779
0.0586844
0.0659771
0.0774682
0.0857658
0.104334
0.12085
0.142188
0.173834
0.195948
0.238522
0.273991
0.314179
0.354012
0.378369
0.399893
0.407625
0.404324
0.392345
0.372486
0.344442
0.303562
0.265203
0.219509
0.178525
0.151556
0.123185
0.0969209
0.0846848
0.0798298
0.0785882
0.0790233
0.0904385
0.156164
0.184562
0.168345
0.149662
0.15259
0.179675
0.208042
0.264235
0.469926
0.717345
0.606328
0.476991
0.378347
0.195395
0.12124
0.106181
0.107975
0.106851
0.109922
0.105885
0.0981492
0.0950862
0.0939711
0.0914158
0.094603
0.0897089
0.0986812
0.102122
0.10153
0.14052
0.139265
0.108923
0.118625
0.153181
0.110999
0.107109
0.116925
0.0985254
0.103369
0.0992705
0.0979865
0.106948
0.0980668
0.100829
0.0951865
0.099754
0.0957539
0.10013
0.0960067
0.0981428
0.0938671
0.0943352
0.0891362
0.0875806
0.0795208
0.0761082
0.0711619
0.070576
0.0700264
0.0693759
0.0679849
0.0678798
0.0683937
0.073083
0.0746141
8.69819e-05
8.76523e-05
8.95646e-05
9.39834e-05
9.55103e-05
9.61676e-05
9.62781e-05
9.67863e-05
9.75138e-05
9.87922e-05
0.00010134
0.000102861
0.000104588
0.000105639
0.00010566
0.000105191
0.000104199
0.000103086
0.000102537
0.000102072
0.000102033
0.000104215
0.000109598
0.00011555
0.000119174
0.000121789
0.000123041
0.000123555
0.000123879
0.000124159
0.000124468
0.000124579
0.000124507
0.000124138
0.000126886
0.000137378
0.000149354
0.000158772
0.000160272
0.000161958
0.000160617
0.000156517
0.000150442
0.000142224
0.000137099
0.000133994
0.000133698
0.000136003
0.000139857
0.000142366
0.000143501
0.000147039
0.000149404
0.000154367
0.000158384
0.000161666
0.000165342
0.000167099
0.000172175
0.000180527
0.000206962
0.000228752
0.000265689
0.00030804
0.000363411
0.000457666
0.000511952
0.00061058
0.000677964
0.000833697
0.000955645
0.00116382
0.00147394
0.00180208
0.00234109
0.00321984
0.0037984
0.00522054
0.00604366
0.0076163
0.00875348
0.0101511
0.0125511
0.0138707
0.0166246
0.0185916
0.0221304
0.0245642
0.0282314
0.0331031
0.0362023
0.0418691
0.048166
0.0518441
0.0595961
0.0656183
0.0701052
0.0794429
0.084355
0.0936824
0.102753
0.110951
0.127691
0.140379
0.160405
0.186332
0.211949
0.247303
0.293857
0.336881
0.384697
0.436231
0.477438
0.508238
0.527779
0.53856
0.538044
0.533007
0.523346
0.503483
0.481834
0.466813
0.434229
0.395084
0.364486
0.31415
0.254105
0.206391
0.167805
0.132352
0.106459
0.0902772
0.0828538
0.0826972
0.101065
0.163626
0.17617
0.155037
0.142834
0.148595
0.179581
0.200445
0.242075
0.422406
0.723812
0.77378
0.621612
0.492514
0.22286
0.121622
0.105567
0.104779
0.106085
0.112669
0.113293
0.104925
0.102615
0.103268
0.098481
0.103905
0.0951949
0.109148
0.108756
0.12266
0.14329
0.205198
0.15577
0.122984
0.16365
0.145612
0.114195
0.130932
0.125291
0.10953
0.116043
0.104316
0.118893
0.107359
0.116805
0.106075
0.116105
0.109336
0.121462
0.114215
0.12518
0.119284
0.125753
0.115602
0.11369
0.0985443
0.0910476
0.0769476
0.0728323
0.0704418
0.0694565
0.0658259
0.0632135
0.0628801
0.0645196
0.0663831
0.000232775
0.000233006
0.000235449
0.000237355
0.000244952
0.000257767
0.000265688
0.000287076
0.000304837
0.000330783
0.000356969
0.000368738
0.000388205
0.000400825
0.000403466
0.000402179
0.000401395
0.00040173
0.000405115
0.000408291
0.000412657
0.000448814
0.000506895
0.000569198
0.000613328
0.000641059
0.00064862
0.000650908
0.000649567
0.000646401
0.000646539
0.000642897
0.000642737
0.000645407
0.000708505
0.000808804
0.000901769
0.000966654
0.000974005
0.000980896
0.000956626
0.000924746
0.000872235
0.00080538
0.000764597
0.000734992
0.000733617
0.00076775
0.000834919
0.000887256
0.000918881
0.000944667
0.000934052
0.000890195
0.000809894
0.00077218
0.000772031
0.000780892
0.000823156
0.000916602
0.00119577
0.00142718
0.00175078
0.00205583
0.00225902
0.00267122
0.00293424
0.00338796
0.00371919
0.00443685
0.00508642
0.00585803
0.00737013
0.00837495
0.0104348
0.0126636
0.014682
0.0182889
0.0204424
0.0247873
0.0280843
0.0322577
0.0376794
0.040984
0.0481057
0.0529531
0.0601783
0.066897
0.0746487
0.0847842
0.0938851
0.103967
0.116412
0.125409
0.138461
0.148449
0.158028
0.17513
0.185365
0.20533
0.222202
0.248291
0.278385
0.314246
0.353545
0.395756
0.440219
0.477092
0.509787
0.532764
0.554013
0.568634
0.575973
0.583548
0.582587
0.57728
0.563698
0.547882
0.527975
0.505917
0.484934
0.469461
0.446377
0.416238
0.380544
0.344465
0.302957
0.250942
0.199807
0.160339
0.128701
0.10546
0.093617
0.0931347
0.118976
0.168761
0.17307
0.148389
0.143065
0.163192
0.187163
0.190161
0.213832
0.347751
0.69803
0.943488
0.82483
0.653265
0.28936
0.135038
0.105508
0.102864
0.105081
0.113953
0.115727
0.10972
0.104973
0.104505
0.113166
0.121646
0.115018
0.131548
0.132143
0.142935
0.161365
0.243808
0.360943
0.18192
0.186103
0.171713
0.129221
0.131531
0.160017
0.132643
0.152516
0.131186
0.155701
0.13696
0.157411
0.137708
0.148486
0.135838
0.15909
0.154594
0.182826
0.187574
0.214367
0.20196
0.196284
0.153922
0.123365
0.091382
0.0805201
0.0730313
0.0715315
0.0675685
0.0627206
0.0585993
0.0580153
0.0589403
0.00303058
0.00301735
0.00301738
0.00301932
0.00305605
0.003132
0.00319051
0.00333797
0.00346681
0.00371609
0.00396187
0.00411067
0.0043176
0.00445017
0.00449037
0.00448902
0.0044674
0.00441251
0.00437833
0.00435906
0.00436002
0.0045781
0.00506905
0.00554446
0.00593022
0.00615177
0.00620327
0.00620391
0.00610339
0.00595365
0.00586444
0.00575306
0.00572695
0.00572544
0.00601598
0.00655648
0.00707138
0.00748417
0.00760513
0.00766172
0.00758551
0.00724382
0.00682264
0.00635661
0.00605027
0.00585685
0.00585208
0.00600843
0.00637684
0.0066779
0.00683741
0.00698454
0.00692498
0.00657759
0.00619389
0.00599943
0.00600035
0.00604669
0.00638004
0.00696544
0.0081864
0.00900334
0.00990132
0.0111374
0.0118236
0.0130294
0.0142401
0.0155551
0.01742
0.019007
0.0220826
0.0243003
0.0283193
0.0323374
0.0368026
0.0427776
0.0486591
0.0557694
0.062622
0.0720465
0.0788587
0.0900673
0.0993471
0.108888
0.121412
0.133891
0.1464
0.166195
0.180156
0.200357
0.218984
0.233612
0.253196
0.266433
0.283658
0.301844
0.322495
0.345579
0.373542
0.401265
0.432577
0.461028
0.485253
0.508064
0.526322
0.541022
0.55364
0.562678
0.572204
0.577213
0.578203
0.576537
0.570255
0.554172
0.532656
0.5091
0.47611
0.457367
0.436807
0.423753
0.415414
0.409629
0.402761
0.390741
0.365721
0.336284
0.297288
0.254974
0.212621
0.172239
0.135424
0.108291
0.0954283
0.0955842
0.129451
0.171794
0.17016
0.145554
0.154068
0.183929
0.180326
0.178988
0.202623
0.296536
0.617477
0.988996
1.04956
0.891168
0.45887
0.185202
0.115462
0.104336
0.104793
0.114346
0.120127
0.121882
0.112279
0.109093
0.114859