/*--------------------------------*- C++ -*----------------------------------*\
| =========                 |                                                 |
| \\      /  F ield         | OpenFOAM: The Open Source CFD Toolbox           |
|  \\    /   O peration     | Version:  2.4.0                                 |
|   \\  /    A nd           | Web:      www.OpenFOAM.org                      |
|    \\/     M anipulation  |                                                 |
\*---------------------------------------------------------------------------*/
FoamFile
{
    version     2.0;
    format      ascii;
    class       volScalarField;
    location    "1.47";
    object      k;
}
// * * * * * * * * * * * * * * * * * * * * * * * * * * * * * * * * * * * * * //

dimensions      [0 2 -2 0 0 0 0];

internalField   nonuniform List<scalar> 
8800
(
8.13091
10.2386
8.88051
6.69523
5.78409
4.85859
4.62941
3.99776
4.01952
3.58566
3.66827
3.27973
3.43015
3.05541
3.24118
2.85974
3.14928
2.67649
3.15492
2.54923
1.46234
4.27953
5.40629
5.25198
5.14418
4.72145
4.6299
4.18423
4.17532
3.83231
3.84307
3.55422
3.59368
3.31634
3.4163
3.13962
3.30498
3.0059
3.21853
3.07026
0.0894916
0.640841
1.66676
1.91985
2.34741
2.38586
2.59242
2.55062
2.61817
2.54495
2.62457
2.53114
2.56048
2.44932
2.49371
2.35366
2.42591
2.32412
2.37286
2.34472
0.00384991
0.0616554
0.294886
0.405728
0.633058
0.694456
0.857891
0.92683
0.994068
1.03677
1.20275
1.24866
1.32804
1.33029
1.36528
1.3273
1.3487
1.36691
1.3838
1.41879
0.000163377
0.00432484
0.0334657
0.054742
0.103853
0.122843
0.163432
0.225905
0.23928
0.256194
0.313246
0.376687
0.426022
0.490928
0.523555
0.521368
0.508756
0.527267
0.523865
0.564879
2.68791e-05
0.000273128
0.00297844
0.00519462
0.0118417
0.0142885
0.0191354
0.0344876
0.0364442
0.0379244
0.0467177
0.0703646
0.0865535
0.123534
0.139452
0.147457
0.138045
0.141667
0.134107
0.146137
2.68702e-05
8.76959e-05
0.000548381
0.00076982
0.00169051
0.00225159
0.00319935
0.00515487
0.00575368
0.00589486
0.00797063
0.0170305
0.0291911
0.0353521
0.0380524
0.0414941
0.0384737
0.0389577
0.0359912
0.0391632
2.0409e-05
4.08903e-05
0.000197056
0.000229626
0.000262177
0.000329123
0.000843105
0.00195341
0.00201778
0.00225687
0.00265023
0.00402111
0.00962967
0.0130912
0.0167182
0.0169552
0.0164361
0.0166838
0.0160303
0.016756
2.26089e-05
3.74094e-05
0.000187224
0.000271278
0.000358058
0.000581406
0.000837884
0.00263703
0.00268038
0.00266616
0.00286949
0.00321796
0.00384345
0.00572061
0.0140621
0.0159453
0.0156472
0.0151547
0.0146986
0.0149343
2.56656e-05
2.65316e-05
7.21728e-05
0.000495992
0.000669256
0.000554139
0.000605936
0.00112883
0.00252092
0.00266339
0.00274607
0.00285425
0.00306837
0.00384588
0.00785286
0.0113588
0.0125383
0.013387
0.0131915
0.0133521
2.2679e-05
2.90344e-05
0.000114148
0.000388917
0.000784065
0.000895265
0.00098507
0.00302678
0.00351155
0.00316906
0.00289036
0.00289863
0.00333477
0.00491006
0.010247
0.0128238
0.0131535
0.012714
0.011451
0.0110102
2.99056e-05
8.45309e-05
0.000369281
0.000269429
0.000271275
0.00042683
0.0013434
0.00215491
0.00188955
0.00259404
0.00350608
0.00415655
0.00461113
0.00563056
0.008365
0.00806351
0.00767798
0.00901883
0.00994761
0.0107299
2.74199e-05
0.000161581
0.000142472
0.000125527
0.000272283
0.000735519
0.000974765
0.000991591
0.00110011
0.00116741
0.00184841
0.00314961
0.00389621
0.00442519
0.00557952
0.00549829
0.00532255
0.00569353
0.00571187
0.00658456
2.16202e-05
6.76091e-05
0.000131338
0.000360554
0.00223824
0.00262276
0.00314107
0.0045947
0.00388662
0.00359563
0.00600904
0.00990062
0.0127948
0.0183006
0.0249143
0.0241401
0.0224923
0.0235587
0.0235237
0.0277565
2.61143e-05
0.000320844
0.00124331
0.00438514
0.0166063
0.0183981
0.0236664
0.0354914
0.0332369
0.034028
0.0508623
0.070613
0.0802943
0.103982
0.129071
0.126293
0.125173
0.136489
0.143567
0.175003
0.000117182
0.00491795
0.0192341
0.0558953
0.125402
0.13685
0.169218
0.228014
0.22736
0.238766
0.319677
0.378443
0.399553
0.458657
0.505962
0.500068
0.501377
0.547668
0.577704
0.659177
0.00324029
0.0692233
0.216302
0.463806
0.666634
0.70615
0.819964
0.951039
0.964594
1.01049
1.18201
1.24832
1.26687
1.32745
1.35449
1.33399
1.3378
1.40574
1.44001
1.4968
0.0825469
0.727093
1.52864
2.05415
2.32579
2.38387
2.55621
2.58665
2.57343
2.55958
2.59665
2.56855
2.50501
2.47331
2.44879
2.36088
2.36134
2.36107
2.35665
2.32955
1.38671
4.34746
5.36369
5.3432
5.06904
4.85941
4.52333
4.22079
4.13281
3.87926
3.74885
3.58962
3.50878
3.3416
3.29143
3.1838
3.15968
3.02751
3.00131
2.90933
8.11184
10.2972
8.83267
6.82366
5.60214
5.04198
4.47431
4.09424
3.92692
3.66896
3.53082
3.34429
3.29922
3.13857
3.05889
2.93476
2.91456
2.71145
2.6486
2.44452
1.63134
1.24373
1.06061
0.870823
0.805308
0.706107
0.678076
0.621604
0.608407
0.576854
0.569866
0.549676
0.54663
0.531704
0.525697
0.503883
0.493534
0.465833
0.456156
0.433144
0.431984
0.429276
0.435747
0.440499
0.456088
0.464739
0.484729
0.486277
0.489192
0.482531
0.479596
0.463601
0.461572
0.449726
0.45677
0.463452
0.517754
0.538344
0.560148
0.528014
0.421641
0.219688
0.143949
0.112623
0.116321
0.115489
0.126455
0.125316
0.130723
0.13138
0.134359
0.134642
0.138736
0.140701
0.144482
0.144596
0.144517
0.140314
0.136568
0.132775
0.135429
0.139753
0.150482
0.150375
0.153178
0.147939
0.145004
0.126854
0.122674
0.109177
0.110464
0.110122
0.122109
0.137764
0.184816
0.227001
0.280669
0.285627
0.294083
0.283266
0.281331
0.264153
0.25628
0.232425
0.21834
0.185518
0.167408
0.134815
0.125503
0.108264
0.101781
0.09639
0.093706
0.090992
0.0934431
0.0938731
0.0947019
0.094864
0.0975816
0.113604
0.125851
0.132764
0.158313
0.17398
0.195202
0.231956
0.271679
0.257549
0.200141
0.143596
0.104035
0.092057
0.0830736
0.0870453
0.0877763
0.0939605
0.100678
0.104128
0.10817
0.108047
0.10903
0.108339
0.108161
0.108697
0.108464
0.107897
0.104943
0.104956
0.10465
0.110008
0.11782
0.132779
0.138836
0.140837
0.139126
0.13097
0.113565
0.0809615
0.0657151
0.0567331
0.053208
0.0527486
0.0513135
0.0511654
0.0503119
0.0504989
0.050047
0.0483725
0.044877
0.0427362
0.0418772
0.0419507
0.044649
0.0507431
0.055975
0.0569493
0.0591922
0.0599477
0.0592263
0.0560852
0.0531894
0.0514704
0.0497777
0.044305
0.0382583
0.0358956
0.0350734
0.0360889
0.0386123
0.059395
0.079059
0.0916142
0.106059
0.131673
0.133816
0.130298
0.118165
0.107809
0.104486
0.104489
0.108616
0.116666
0.137695
0.151545
0.140398
0.124536
0.122549
0.170399
0.271094
0.29174
0.222889
0.122408
0.0918454
0.0939486
0.102604
0.0971995
0.0888903
0.107757
0.307395
0.481414
2.54289
2.08527
1.75849
1.52958
1.34158
1.22774
1.11087
1.05383
0.971414
0.94015
0.879402
0.859067
0.815685
0.801925
0.770983
0.760773
0.735587
0.72488
0.700606
0.68907
0.662738
0.650039
0.628359
0.61011
0.597146
0.57951
0.566296
0.537965
0.523202
0.497287
0.485417
0.455619
0.438031
0.403572
0.381472
0.344526
0.340549
0.341904
0.380659
0.466146
0.52518
0.501756
0.365641
0.202331
0.155826
0.134911
0.136288
0.138015
0.143097
0.14251
0.141368
0.140642
0.142055
0.14281
0.144764
0.144449
0.143662
0.135858
0.129008
0.127683
0.131637
0.138116
0.149663
0.149696
0.149632
0.136584
0.129701
0.108002
0.102744
0.0897197
0.0908781
0.087957
0.0927267
0.0962623
0.11709
0.134289
0.17722
0.202243
0.23417
0.236983
0.236548
0.227049
0.216023
0.190208
0.170414
0.146107
0.130847
0.111743
0.101558
0.0970769
0.0929516
0.0860031
0.0884277
0.0870425
0.0883934
0.0888269
0.0921083
0.0932132
0.096364
0.103331
0.120814
0.131652
0.140776
0.172866
0.184223
0.206909
0.21508
0.243026
0.22511
0.196456
0.144432
0.123845
0.112704
0.105586
0.105704
0.105062
0.108246
0.107328
0.110482
0.109091
0.1107
0.110425
0.113315
0.113368
0.112773
0.108235
0.106257
0.105498
0.106652
0.115816
0.12248
0.133038
0.131954
0.128911
0.117458
0.0902833
0.0701738
0.0585906
0.0550814
0.0524502
0.0526349
0.0533202
0.0550342
0.056901
0.0600105
0.0625809
0.0626469
0.0611307
0.0567772
0.0538417
0.0527369
0.0545145
0.0628205
0.066266
0.0656633
0.0632613
0.0620031
0.0614329
0.0606959
0.0607756
0.0592136
0.0596042
0.0603166
0.0567791
0.047748
0.0424364
0.0396916
0.0405497
0.0497481
0.0744888
0.0873371
0.114158
0.144601
0.151773
0.144828
0.120461
0.103654
0.0992461
0.0991794
0.10611
0.119577
0.132098
0.14087
0.152331
0.133156
0.108581
0.112037
0.190294
0.271404
0.2812
0.216535
0.122057
0.0937145
0.0954875
0.0967678
0.0981847
0.0990103
0.113675
0.255433
0.392372
2.11426
1.88531
1.65379
1.50902
1.34354
1.25825
1.14085
1.09085
1.0046
0.972979
0.908902
0.885274
0.836075
0.818933
0.781355
0.768513
0.739781
0.729859
0.706245
0.697668
0.676776
0.666781
0.64431
0.631635
0.602041
0.584147
0.550167
0.522825
0.480707
0.451424
0.419297
0.37615
0.327528
0.303449
0.295694
0.280195
0.257686
0.245554
0.246749
0.256923
0.301503
0.406625
0.440008
0.42066
0.320032
0.211394
0.17078
0.15657
0.152739
0.148173
0.145754
0.144399
0.143056
0.140815
0.139739
0.138307
0.132798
0.126092
0.124839
0.12584
0.135018
0.148422
0.152378
0.149722
0.143756
0.11882
0.109828
0.0907906
0.0888749
0.0802661
0.0818975
0.0774219
0.0822609
0.0815814
0.0877346
0.0937677
0.104176
0.12046
0.142506
0.158876
0.159885
0.158684
0.151732
0.144943
0.129538
0.118136
0.102282
0.0965485
0.0857778
0.0785157
0.0763037
0.072347
0.0715379
0.0719445
0.0739974
0.0758207
0.0820377
0.0867964
0.0929638
0.0986673
0.109323
0.12776
0.135213
0.15935
0.177461
0.200385
0.207219
0.209322
0.21232
0.197364
0.180794
0.146893
0.139348
0.12228
0.121216
0.114715
0.11649
0.11422
0.116114
0.115991
0.11849
0.118966
0.119745
0.117938
0.113245
0.108638
0.108926
0.110108
0.116492
0.121765
0.125095
0.123435
0.115981
0.0973966
0.0733487
0.061684
0.0554531
0.0532164
0.053113
0.0543972
0.0592209
0.0650747
0.0724517
0.0766592
0.0817342
0.0833287
0.0831407
0.0812095
0.0772418
0.0748616
0.0753579
0.0826669
0.0853455
0.0852372
0.0837994
0.0793438
0.0713841
0.0663161
0.0657159
0.0689481
0.0690071
0.0692618
0.0704626
0.0692394
0.0622639
0.0530132
0.0495107
0.0500414
0.0629717
0.0773728
0.104092
0.149418
0.178261
0.171759
0.139772
0.10885
0.0994443
0.0976168
0.101496
0.129708
0.158101
0.164003
0.158641
0.153631
0.123069
0.091979
0.0981886
0.199618
0.275712
0.270126
0.191794
0.116993
0.0935273
0.0959056
0.0975631
0.0964312
0.099728
0.116936
0.222329
0.337232
1.3375
1.25708
1.14342
1.08447
0.987239
0.944659
0.868431
0.839489
0.78071
0.759163
0.713973
0.697122
0.660324
0.647343
0.617501
0.606871
0.581641
0.572417
0.549387
0.540811
0.520049
0.510052
0.486267
0.474342
0.446175
0.429908
0.395063
0.375611
0.331239
0.301662
0.263391
0.232668
0.194224
0.177308
0.155683
0.133727
0.119323
0.119521
0.123638
0.131306
0.145273
0.17863
0.289406
0.367562
0.375566
0.361907
0.295659
0.218683
0.183484
0.166719
0.156606
0.150472
0.145453
0.142618
0.136269
0.129659
0.126032
0.126016
0.128519
0.142234
0.156473
0.157307
0.154612
0.144141
0.123928
0.0957423
0.0868263
0.0713744
0.0688581
0.0640138
0.0666995
0.0646885
0.0676025
0.0671995
0.0696238
0.0716649
0.0741667
0.0799584
0.0855101
0.0995961
0.107843
0.108572
0.10742
0.104689
0.0964674
0.0905508
0.0779316
0.0722936
0.0659001
0.0642366
0.0604076
0.0602182
0.0588236
0.058867
0.0601613
0.060676
0.0615511
0.0629633
0.0685938
0.0745136
0.0926424
0.102833
0.124716
0.135574
0.172124
0.184714
0.216459
0.208816
0.218908
0.202615
0.198197
0.174471
0.168047
0.148073
0.144242
0.133023
0.131662
0.128238
0.128073
0.126858
0.126564
0.125852
0.121385
0.117165
0.11626
0.116561
0.11804
0.11998
0.122388
0.122121
0.119118
0.108377
0.0828127
0.0662437
0.057368
0.0543881
0.0530743
0.0541445
0.0586968
0.0703482
0.0881453
0.103731
0.114862
0.12256
0.124716
0.123519
0.12035
0.114002
0.110935
0.110267
0.115139
0.117812
0.11714
0.114945
0.109769
0.103888
0.0983644
0.0876107
0.0819686
0.0813825
0.0812163
0.082599
0.0845441
0.0775049
0.0751011
0.0688825
0.061628
0.0649194
0.0783221
0.0875114
0.125742
0.196686
0.207429
0.179089
0.133071
0.106159
0.100991
0.102472
0.120708
0.166106
0.194126
0.198372
0.192957
0.164891
0.119241
0.0866938
0.0966489
0.2148
0.281631
0.260303
0.162011
0.109922
0.0914467
0.0917392
0.0975319
0.0942219
0.0974043
0.113512
0.187028
0.338776
0.54773
0.534113
0.505434
0.492557
0.465158
0.453363
0.428109
0.418751
0.398469
0.391375
0.376011
0.370429
0.356656
0.352102
0.341015
0.336901
0.326664
0.322571
0.31091
0.304833
0.290971
0.283001
0.263545
0.253179
0.233583
0.215528
0.191674
0.173561
0.14929
0.132047
0.11488
0.103592
0.0910874
0.0840929
0.0775183
0.0733282
0.0687444
0.0682769
0.0683923
0.0697561
0.0733881
0.0823467
0.103044
0.148485
0.253257
0.31264
0.312503
0.303952
0.275572
0.235116
0.198377
0.177223
0.165265
0.153715
0.145297
0.144243
0.145981
0.153891
0.165846
0.168033
0.165911
0.1609
0.145208
0.116134
0.0883527
0.0728064
0.0619757
0.0581146
0.0556887
0.055085
0.0550486
0.0557303
0.0558346
0.0565026
0.0569186
0.0583408
0.0593472
0.0603922
0.0635209
0.0656203
0.0715911
0.0732404
0.0750304
0.0728821
0.071124
0.0650622
0.0623715
0.059995
0.056547
0.0555202
0.05396
0.0545794
0.0546252
0.0553001
0.0554193
0.0570451
0.0565242
0.0531333
0.0527806
0.0531687
0.0630103
0.0722798
0.0998076
0.108238
0.140561
0.155196
0.198655
0.202605
0.213993
0.209725
0.20552
0.195794
0.183961
0.17435
0.162258
0.156918
0.149624
0.147933
0.143251
0.141344
0.135396
0.133226
0.127778
0.125084
0.122327
0.122463
0.121952
0.12245
0.121129
0.116449
0.100295
0.0760881
0.0624958
0.0568327
0.0540851
0.0541897
0.0573066
0.066774
0.0909024
0.126483
0.160513
0.182314
0.196493
0.199446
0.197887
0.191646
0.181186
0.172991
0.169188
0.170204
0.16904
0.167047
0.162057
0.156526
0.152778
0.148279
0.143471
0.134219
0.120757
0.107244
0.102259
0.101811
0.0970758
0.091645
0.0885004
0.0780688
0.0754739
0.076458
0.0815867
0.10308
0.21695
0.250479
0.222733
0.171578
0.130472
0.112644
0.108397
0.115214
0.156364
0.196477
0.218625
0.226528
0.220953
0.191084
0.135124
0.111673
0.146844
0.257231
0.29248
0.253155
0.141541
0.0964183
0.090885
0.0875735
0.0911034
0.0880387
0.087982
0.0983857
0.134577
0.301998
0.143966
0.141905
0.137769
0.13636
0.133737
0.13284
0.130681
0.129813
0.127687
0.12674
0.124737
0.12384
0.121648
0.120911
0.119352
0.118804
0.117564
0.117016
0.115377
0.112303
0.110069
0.105499
0.0994215
0.0942495
0.0887112
0.0823954
0.0771258
0.0720087
0.0680241
0.0642027
0.0613566
0.0588642
0.0570243
0.0547905
0.053129
0.0517186
0.0498449
0.0489325
0.048708
0.0489126
0.0494521
0.0516162
0.0558961
0.0648758
0.0842034
0.135581
0.209747
0.259938
0.260852
0.258559
0.246272
0.236964
0.218504
0.206183
0.196394
0.194221
0.189906
0.188079
0.18293
0.174585
0.161187
0.135117
0.0956598
0.0761472
0.0595864
0.0555107
0.0504957
0.0515341
0.050025
0.0518965
0.0504422
0.0526951
0.0509473
0.0519412
0.0507715
0.0512751
0.0518823
0.0521392
0.0539596
0.0536542
0.0557661
0.0548762
0.0566894
0.0546709
0.0547331
0.0524639
0.0518043
0.0492473
0.04928
0.0492275
0.0498032
0.0499336
0.0501313
0.0510117
0.0521634
0.0552281
0.0554866
0.0527205
0.0475646
0.0455689
0.0462014
0.0482485
0.0582391
0.0721462
0.0829185
0.102025
0.123399
0.168191
0.183997
0.200621
0.197428
0.196847
0.187412
0.185404
0.175227
0.17286
0.163905
0.161272
0.15306
0.149923
0.141864
0.138445
0.130805
0.127617
0.123065
0.122052
0.120165
0.117233
0.110263
0.0894056
0.0697561
0.0602039
0.0564081
0.0551726
0.0567277
0.0627773
0.0819166
0.118646
0.188223
0.245425
0.293792
0.316226
0.319305
0.313815
0.30355
0.280126
0.273321
0.262618
0.25919
0.25351
0.243505
0.239495
0.234944
0.23479
0.23391
0.230236
0.22072
0.209854
0.194086
0.161471
0.145952
0.133524
0.115099
0.106038
0.0890945
0.0849355
0.0976482
0.0987209
0.098307
0.134848
0.270769
0.277058
0.217967
0.187888
0.163821
0.140559
0.130107
0.135678
0.180016
0.212417
0.237411
0.245617
0.246719
0.233787
0.19587
0.193055
0.237071
0.291381
0.301451
0.246468
0.135238
0.0886198
0.0894063
0.0861139
0.0853711
0.082074
0.0819791
0.0851804
0.0962841
0.169451
0.041208
0.0419128
0.0419945
0.0421953
0.0425742
0.0429712
0.0433455
0.0436728
0.043827
0.0438215
0.0438172
0.0437167
0.0435151
0.0434279
0.0434504
0.043493
0.043652
0.0438461
0.0441821
0.0442774
0.0445257
0.0445742
0.0446831
0.0446768
0.0449407
0.0452641
0.0460634
0.0462073
0.0464559
0.04625
0.0461359
0.0455378
0.0449551
0.0442441
0.0433411
0.0425741
0.0419286
0.0419644
0.0417996
0.0420384
0.0421895
0.0434648
0.044464
0.0467838
0.0502682
0.0610963
0.0773324
0.116348
0.15932
0.201353
0.214635
0.217463
0.214167
0.209228
0.202657
0.197606
0.186543
0.176116
0.157978
0.12862
0.0949259
0.0739052
0.058268
0.0509274
0.0449598
0.0446335
0.0433092
0.044911
0.0437614
0.0467659
0.0463924
0.0490482
0.0486347
0.0497292
0.0494568
0.0479287
0.0481346
0.0474228
0.049307
0.0481999
0.0499356
0.0484227
0.0496951
0.0476643
0.0478261
0.0454704
0.0454963
0.044043
0.0439239
0.0433369
0.0425794
0.0427402
0.0427749
0.0447845
0.0454368
0.0489572
0.0498614
0.0509955
0.0493874
0.0485375
0.0469217
0.0474496
0.0492431
0.0579762
0.0637019
0.0801776
0.0890981
0.117821
0.129968
0.162572
0.169045
0.182673
0.179043
0.178829
0.172781
0.169866
0.161718
0.157659
0.149959
0.146432
0.139491
0.133463
0.125715
0.121374
0.116678
0.112322
0.106531
0.0963611
0.0768138
0.063909
0.0582954
0.0560959
0.0565108
0.0598589
0.0711423
0.0973011
0.170398
0.260682
0.376368
0.446335
0.490187
0.494111
0.489096
0.46073
0.427631
0.400098
0.392312
0.374291
0.364082
0.344489
0.342411
0.339988
0.334351
0.323785
0.313996
0.291523
0.280688
0.266352
0.246834
0.222908
0.208656
0.178433
0.148359
0.120929
0.104749
0.0993492
0.0997203
0.10297
0.154324
0.258111
0.253683
0.203256
0.187875
0.186902
0.190526
0.183654
0.158233
0.158177
0.194333
0.227571
0.250648
0.258575
0.272187
0.266996
0.25392
0.269766
0.292016
0.308195
0.293085
0.217588
0.132451
0.0865368
0.0827714
0.0808748
0.079321
0.0758306
0.0745237
0.0757124
0.0777555
0.0909202
0.017248
0.017847
0.0183054
0.0189148
0.0194499
0.0199189
0.0201989
0.0205328
0.0207981
0.0215114
0.0221209
0.0234669
0.0242625
0.0255338
0.0263319
0.0274783
0.0283317
0.0297158
0.0308897
0.032045
0.03332
0.0345296
0.0355149
0.0364045
0.0373742
0.0381884
0.0389196
0.0390921
0.0391093
0.039026
0.0387357
0.0385793
0.0383281
0.0383258
0.0382289
0.0384666
0.0385263
0.0391623
0.0391956
0.0397726
0.039921
0.0412415
0.0417315
0.0432061
0.0442321
0.0473817
0.0509173
0.0600761
0.0694925
0.0903868
0.109454
0.131683
0.141012
0.141231
0.138064
0.131288
0.115967
0.0963465
0.0797009
0.0656763
0.0552818
0.0480617
0.0425653
0.0398984
0.037948
0.0387276
0.0385289
0.0406533
0.0410039
0.0448529
0.0456869
0.04803
0.0470752
0.0470047
0.0463629
0.0442195
0.0435936
0.0424965
0.0433411
0.0422862
0.042532
0.0412143
0.0416853
0.0400431
0.0397124
0.0381673
0.038152
0.0371421
0.0370665
0.0367475
0.0364421
0.036264
0.0354933
0.0367762
0.0365697
0.0394571
0.0399217
0.0451487
0.0455137
0.0489833
0.0479287
0.049669
0.0498735
0.055471
0.0594412
0.0723884
0.0778885
0.0937148
0.100655
0.118641
0.125435
0.139469
0.145894
0.148441
0.148056
0.145848
0.143297
0.137535
0.134637
0.128987
0.124524
0.117888
0.111965
0.106545
0.0992626
0.0939624
0.0816828
0.0674477
0.0584962
0.0554545
0.0555936
0.0571175
0.0627038
0.0804814
0.124365
0.204315
0.380148
0.513749
0.585039
0.597674
0.608884
0.605387
0.605586
0.591096
0.572196
0.556717
0.530933
0.490031
0.475105
0.4464
0.430262
0.396179
0.362979
0.349509
0.322043
0.303825
0.294993
0.288101
0.266346
0.254412
0.238461
0.203569
0.168311
0.133961
0.110478
0.108428
0.104812
0.111008
0.186819
0.245534
0.217509
0.195045
0.196197
0.195592
0.197102
0.209932
0.20205
0.198493
0.220347
0.236816
0.247939
0.271087
0.283851
0.284616
0.302313
0.3036
0.299513
0.311151
0.275856
0.17326
0.123659
0.0867714
0.0797178
0.0797282
0.0772288
0.0728442
0.0688178
0.0698856
0.0701029
0.0724705
0.0148254
0.0147087
0.0145144
0.0142853
0.0141573
0.0140181
0.0139079
0.0138409
0.0139335
0.0150248
0.0164305
0.018515
0.0201936
0.0223333
0.0241476
0.0262585
0.027773
0.0294607
0.0304461
0.0313698
0.03175
0.0322461
0.032411
0.0327327
0.0329334
0.0332925
0.0335604
0.0340224
0.0342649
0.0346856
0.0349308
0.0352781
0.0353807
0.0357527
0.0358708
0.0360705
0.0358688
0.0359479
0.0353877
0.0352849
0.0351261
0.0355933
0.0357914
0.0365745
0.0372212
0.039007
0.0404196
0.0438007
0.0468008
0.0508171
0.0562607
0.0660012
0.0695498
0.0695688
0.0681543
0.0646285
0.0591872
0.0542428
0.0494479
0.044769
0.0409088
0.0377538
0.0359094
0.0354347
0.0354817
0.0365749
0.0374233
0.0402553
0.0413539
0.0457122
0.0459253
0.0469869
0.0458729
0.0461125
0.0454971
0.0440006
0.0423663
0.0398016
0.0383587
0.0353891
0.0343479
0.0325832
0.0321713
0.031248
0.0309881
0.0300196
0.0297695
0.029421
0.0291013
0.0289086
0.0289401
0.0296445
0.0300055
0.0317994
0.03201
0.0341808
0.0341563
0.0371885
0.0381576
0.0425943
0.0423496
0.0443788
0.0443376
0.0470001
0.0494225
0.0573756
0.0622055
0.0739038
0.0793913
0.0905659
0.0960616
0.105195
0.10817
0.114597
0.117457
0.118144
0.117243
0.115497
0.110732
0.107593
0.100978
0.0977543
0.091124
0.086702
0.0778397
0.0680971
0.0573793
0.0528805
0.0516559
0.0531385
0.0562783
0.0658265
0.0906349
0.158455
0.278649
0.492477
0.597349
0.63922
0.646723
0.635327
0.637026
0.628616
0.635355
0.629062
0.633102
0.616227
0.599702
0.556226
0.527738
0.479665
0.448303
0.380362
0.348783
0.317229
0.286152
0.279867
0.278215
0.276339
0.26431
0.26252
0.251701
0.230642
0.199556
0.150763
0.119156
0.113501
0.109146
0.129218
0.192751
0.20716
0.198168
0.237605
0.247441
0.224762
0.194639
0.209794
0.219173
0.225846
0.24231
0.242561
0.241681
0.279214
0.290581
0.291734
0.306816
0.320447
0.280362
0.291127
0.264318
0.160558
0.120597
0.0962181
0.08184
0.0815959
0.0778262
0.0718872
0.0668571
0.0664773
0.0659517
0.0666246
0.0132064
0.0130391
0.0127479
0.012434
0.0122109
0.012131
0.012134
0.0121735
0.012617
0.014056
0.0158067
0.0175372
0.0192912
0.0208686
0.0223629
0.0236563
0.0247951
0.0257948
0.0266465
0.0273748
0.0280246
0.0286612
0.0293136
0.0300554
0.0307575
0.0312623
0.0314744
0.031507
0.0314802
0.0313843
0.0311226
0.0308433
0.0301605
0.0294906
0.0287676
0.0281529
0.027432
0.0270095
0.0268612
0.0268845
0.0269419
0.027266
0.027598
0.0285008
0.0289882
0.0300894
0.0309302
0.0330609
0.0344828
0.0360854
0.0371562
0.0400886
0.0416356
0.0429838
0.042909
0.0426651
0.0418099
0.0406204
0.0382083
0.0363171
0.0350001
0.0341207
0.0341822
0.0346784
0.0361985
0.0394647
0.0430886
0.0467477
0.0481424
0.0488564
0.0481858
0.0474901
0.045695
0.0453731
0.0447491
0.0435576
0.041293
0.0386783
0.0359129
0.0330813
0.0308496
0.028951
0.0282837
0.0275115
0.0269644
0.0263211
0.0260387
0.025752
0.0257648
0.0260528
0.0265623
0.0279049
0.0289509
0.0314156
0.032515
0.033968
0.0336054
0.0336188
0.0341882
0.0374776
0.0383138
0.0374682
0.0356951
0.0356753
0.0363284
0.0386154
0.0429191
0.0541892
0.0632518
0.0720542
0.0765002
0.081869
0.0840146
0.0884563
0.0906498
0.0919482
0.0916247
0.0906352
0.0879594
0.085114
0.0815408
0.0785508
0.0729028
0.0635847
0.0550932
0.0491087
0.046906
0.0476879
0.0497077
0.0551736
0.0696495
0.106571
0.192345
0.411599
0.551584
0.638321
0.657078
0.658747
0.635138
0.604563
0.603963
0.60379
0.622567
0.614757
0.630375
0.607769
0.597492
0.54848
0.516941
0.441407
0.392005
0.346591
0.330763
0.292058
0.278976
0.25656
0.257636
0.255598
0.269627
0.262826
0.26484
0.247997
0.217513
0.172127
0.145177
0.134496
0.132497
0.145488
0.165286
0.180482
0.207692
0.33023
0.271507
0.221885
0.191437
0.184803
0.198518
0.226385
0.259622
0.248835
0.254295
0.272286
0.306272
0.290241
0.277728
0.33249
0.263847
0.225304
0.225972
0.140899
0.114992
0.106205
0.0928148
0.0871453
0.079108
0.0717978
0.0666582
0.065623
0.0662045
0.0675585
0.0108304
0.0107565
0.010747
0.010746
0.010813
0.0109136
0.011109
0.0121896
0.0136241
0.0154584
0.0170028
0.0187787
0.020136
0.0216497
0.0227905
0.0240737
0.0250983
0.0262238
0.027047
0.027875
0.028353
0.0286762
0.0287219
0.0287137
0.0285829
0.0283433
0.0274877
0.0266012
0.0254377
0.0244875
0.0234056
0.0227089
0.0221402
0.0217797
0.0216304
0.0216282
0.021666
0.0217729
0.0219867
0.0222379
0.0224946
0.0228086
0.0230682
0.023789
0.0243301
0.0247995
0.0252106
0.0269039
0.0279328
0.0292393
0.0299631
0.0309259
0.0319624
0.0342501
0.0351957
0.0352498
0.0349026
0.0339832
0.0333164
0.0332116
0.0336
0.0349546
0.0389567
0.0438413
0.0547103
0.0629495
0.0699279
0.0704248
0.0695668
0.064852
0.0596885
0.0535786
0.0494173
0.0463067
0.0439919
0.0421987
0.0398523
0.0381022
0.0349365
0.033102
0.0307586
0.0300519
0.0286619
0.0277984
0.0264819
0.025768
0.0251707
0.0250074
0.0251807
0.0257841
0.0279014
0.0296118
0.0342283
0.0358173
0.0375089
0.037467
0.0372901
0.0353221
0.0352741
0.0358562
0.037713
0.0372554
0.0351552
0.0317212
0.0309346
0.0311851
0.0321761
0.0355762
0.0439217
0.0524077
0.0579945
0.0612934
0.0632412
0.0650989
0.066065
0.0659857
0.0655069
0.0638036
0.0622688
0.0597186
0.057708
0.0527489
0.0482039
0.0435297
0.0420515
0.0423691
0.0438816
0.0471062
0.0553637
0.0762708
0.131599
0.252389
0.489847
0.615708
0.64791
0.657333
0.591042
0.52902
0.432138
0.447015
0.444456
0.484698
0.507587
0.5254
0.523357
0.507771
0.487823
0.449293
0.405841
0.387827
0.371134
0.351332
0.337367
0.318922
0.290445
0.266461
0.26695
0.258143
0.265553
0.256702
0.256741
0.240913
0.203177
0.181522
0.156832
0.178064
0.160167
0.162745
0.154998
0.166598
0.214611
0.244635
0.231844
0.217001
0.19849
0.177036
0.183916
0.208167
0.259254
0.243317
0.283711
0.23921
0.307132
0.276991
0.230316
0.315777
0.264837
0.189627
0.177891
0.117671
0.099743
0.101421
0.0967442
0.0908662
0.0819655
0.0731981
0.0682725
0.0669434
0.0686126
0.0714128
0.0109287
0.0109947
0.0111634
0.0113629
0.0115593
0.0119972
0.0130528
0.0143878
0.0157502
0.0172454
0.0185444
0.0200309
0.0212213
0.022519
0.0233773
0.024233
0.0246112
0.0249238
0.0249442
0.0249818
0.0249435
0.0247711
0.0238628
0.0228594
0.0218414
0.0209575
0.0202366
0.0196225
0.019185
0.01888
0.0187419
0.0186854
0.0187011
0.0188479
0.0190779
0.0193676
0.0195657
0.0197971
0.0201003
0.0204594
0.0206146
0.0209134
0.0211016
0.0214815
0.0217826
0.0222818
0.0226128
0.0231196
0.0243946
0.0260009
0.0267806
0.0272563
0.028467
0.0292632
0.0294568
0.0298295
0.0303535
0.0310234
0.0328311
0.0360035
0.0436984
0.0554398
0.0735555
0.0934786
0.119862
0.132951
0.134027
0.130914
0.123122
0.102776
0.0866128
0.0722538
0.0613652
0.0527064
0.0466152
0.0433961
0.0404149
0.0390565
0.0362932
0.0347711
0.0324998
0.0317572
0.030066
0.0285566
0.0266699
0.0257662
0.0255046
0.0256512
0.0267375
0.0290205
0.0348742
0.0393618
0.0464619
0.0487549
0.0492665
0.0481032
0.0468497
0.042969
0.0402275
0.0377814
0.0379233
0.0375244
0.0361591
0.0323919
0.0298766
0.0292458
0.0293148
0.0299616
0.0339321
0.0405685
0.0453372
0.0479609
0.0492125
0.0496306
0.049618
0.0491255
0.0476671
0.0462419
0.0445286
0.0427529
0.040816
0.0388264
0.0381855
0.0383523
0.0391132
0.0414464
0.0468837
0.060163
0.0919061
0.168122
0.357829
0.549778
0.640713
0.660258
0.619865
0.49123
0.370544
0.330689
0.286972
0.286773
0.283165
0.32905
0.325124
0.390752
0.341065
0.401043
0.311583
0.387311
0.323103
0.382124
0.3655
0.35903
0.367545
0.358106
0.317178
0.301397
0.260277
0.259825
0.234565
0.24884
0.219122
0.227819
0.192733
0.194254
0.175546
0.186645
0.16947
0.160079
0.139807
0.141669
0.168609
0.175541
0.249887
0.262804
0.2145
0.169112
0.166583
0.185174
0.248262
0.230305
0.274853
0.216301
0.255182
0.250025
0.211035
0.234435
0.241675
0.186829
0.164745
0.117607
0.0974687
0.0957876
0.0944794
0.0897299
0.0839594
0.0770835
0.0743543
0.0731228
0.074713
0.0768357
0.00732306
0.00773628
0.00840363
0.00899625
0.0098333
0.0104808
0.0115255
0.0122566
0.0132862
0.0139575
0.0149008
0.0154471
0.0162876
0.0167127
0.0174361
0.0178646
0.0184736
0.0188596
0.0192685
0.0195477
0.0197652
0.0198908
0.019893
0.019875
0.0198661
0.0198957
0.0199327
0.0200536
0.0202708
0.0203453
0.0203591
0.0203528
0.0206765
0.0212954
0.0219945
0.022328
0.0224496
0.0224399
0.0223964
0.0222615
0.0219583
0.0217606
0.0215903
0.0214748
0.0214289
0.0214398
0.0214803
0.0216337
0.0218512
0.0223635
0.0229487
0.0237149
0.0245042
0.0251533
0.0263568
0.0283671
0.0316045
0.0377204
0.0539855
0.069259
0.104417
0.143741
0.189578
0.235486
0.268467
0.274347
0.26978
0.25504
0.221625
0.179298
0.141667
0.111988
0.0887469
0.0710901
0.0583924
0.0513209
0.0468908
0.0447235
0.0415514
0.0392447
0.0366906
0.0345505
0.0318469
0.0297004
0.0288185
0.0289148
0.0297441
0.0322146
0.0376077
0.0502706
0.0650393
0.0813014
0.0967352
0.100421
0.0991949
0.0942467
0.0842316
0.0713769
0.0597991
0.0492799
0.0428168
0.0400003
0.0380447
0.0349493
0.031759
0.0299446
0.0296829
0.0300037
0.0321031
0.0370407
0.0409071
0.0426022
0.0430054
0.0429299
0.0425423
0.0416301
0.040491
0.0388416
0.0373287
0.0362975
0.0358928
0.036024
0.0367651
0.0386719
0.0428599
0.0518601
0.0723683
0.125564
0.24189
0.485562
0.609114
0.667835
0.652876
0.543219
0.414708
0.349213
0.304687
0.28186
0.244526
0.231183
0.231944
0.260863
0.251925
0.283559
0.242377
0.300114
0.22797
0.30775
0.265724
0.352988
0.300801
0.360961
0.364606
0.317454
0.32954
0.317051
0.251021
0.28833
0.231577
0.263525
0.223148
0.243587
0.253591
0.234516
0.304515
0.241792
0.225274
0.177653
0.146848
0.141695
0.159007
0.189464
0.338368
0.302496
0.2043
0.156629
0.150958
0.166906
0.212294
0.213147
0.232741
0.212361
0.193342
0.227406
0.212183
0.187904
0.180512
0.174531
0.156581
0.135369
0.111145
0.100106
0.0953644
0.0876545
0.0834272
0.0814491
0.0841668
0.0876323
0.0897916
0.0896384
0.0281992
0.0288574
0.029302
0.0300517
0.0310918
0.0317471
0.0333288
0.0342339
0.0356232
0.0362367
0.0372772
0.0376535
0.0384169
0.0387979
0.0398715
0.0407333
0.0426697
0.0442397
0.0460807
0.047779
0.0488379
0.0501033
0.0506274
0.0514266
0.051705
0.0523477
0.0526307
0.0531705
0.0535914
0.0538273
0.0544555
0.0555842
0.0561431
0.0559458
0.0554577
0.0539405
0.0526194
0.0496975
0.0465911
0.0425224
0.038755
0.0351359
0.0319486
0.029525
0.0277456
0.0264539
0.0253398
0.0248732
0.0248431
0.0249519
0.0253652
0.0263294
0.028614
0.0320267
0.0387052
0.0501884
0.0657461
0.102027
0.149287
0.203714
0.298317
0.376027
0.444212
0.489582
0.490901
0.483247
0.459729
0.424702
0.370349
0.312957
0.254465
0.201946
0.156959
0.120213
0.0958709
0.0804751
0.0702456
0.0624966
0.0559253
0.0507617
0.0447135
0.0395765
0.0372602
0.0372433
0.038501
0.0421586
0.0510475
0.0670289
0.0997725
0.137058
0.179095
0.220821
0.243608
0.244457
0.239212
0.224957
0.1935