/*--------------------------------*- C++ -*----------------------------------*\
| =========                 |                                                 |
| \\      /  F ield         | OpenFOAM: The Open Source CFD Toolbox           |
|  \\    /   O peration     | Version:  2.4.0                                 |
|   \\  /    A nd           | Web:      www.OpenFOAM.org                      |
|    \\/     M anipulation  |                                                 |
\*---------------------------------------------------------------------------*/
FoamFile
{
    version     2.0;
    format      ascii;
    class       volScalarField;
    location    "1.47";
    object      p;
}
// * * * * * * * * * * * * * * * * * * * * * * * * * * * * * * * * * * * * * //

dimensions      [0 2 -2 0 0 0 0];

internalField   nonuniform List<scalar> 
8800
(
91.9876
79.7599
72.2898
68.6886
66.8053
65.4788
64.4147
63.0659
62.0553
61.3951
60.3141
59.1287
58.4103
57.4992
56.4382
55.6428
55.0553
54.2326
53.3281
52.6716
88.8673
79.4168
72.4573
68.7966
66.8648
65.4996
64.4337
63.0633
62.0393
61.4058
60.3208
59.1096
58.412
57.507
56.4309
55.6318
55.0699
54.2287
53.331
52.6367
86.8925
79.5161
73.0464
69.1714
67.0298
65.5779
64.4859
63.0946
62.0566
61.4355
60.3355
59.0975
58.4189
57.5135
56.4259
55.6181
55.0932
54.2146
53.3815
52.7193
85.3605
79.5939
73.6102
69.6053
67.22
65.6575
64.5367
63.1548
62.1131
61.4856
60.3641
59.1011
58.4315
57.5139
56.4303
55.6111
55.1255
54.2438
53.4918
52.845
84.118
79.5669
74.0656
70.0176
67.4054
65.7246
64.5747
63.2231
62.1734
61.5357
60.4035
59.124
58.4487
57.5117
56.4417
55.6185
55.139
54.3117
53.6485
52.9356
83.1415
79.4559
74.4189
70.3742
67.5693
65.7572
64.6006
63.3007
62.2329
61.5822
60.4334
59.1351
58.4573
57.5077
56.4611
55.6414
55.1351
54.3558
53.7804
53.0293
82.3923
79.3231
74.6756
70.6611
67.7245
65.7752
64.5998
63.3573
62.2741
61.6436
60.4552
59.1353
58.4577
57.5082
56.461
55.6615
55.1037
54.3491
53.8306
53.4512
81.8413
79.1995
74.8505
70.8874
67.8501
65.77
64.5706
63.4002
62.2957
61.701
60.4598
59.1458
58.4427
57.5364
56.4485
55.6888
55.0529
54.3018
53.5994
53.9086
81.4848
79.0876
74.9526
71.0509
67.9499
65.7616
64.5416
63.2786
62.316
61.755
60.4622
59.1411
58.4239
57.54
56.4272
55.6977
55.022
54.2904
53.6661
54.3603
81.3122
79.017
75.0094
71.1433
68.0072
65.7592
64.547
63.2959
62.3504
61.811
60.4764
59.1411
58.4154
57.5466
56.4216
55.7097
55.0183
54.2988
53.7377
54.5001
81.3202
79.0054
75.013
71.1393
67.9918
65.7366
64.5363
63.2752
62.328
61.8225
60.462
59.1472
58.4134
57.5565
56.4175
55.7318
55.0329
54.3132
53.7843
54.5718
81.5061
79.0462
74.9669
71.05
67.9137
65.7363
64.5635
63.2456
62.2552
61.7072
60.4372
59.1554
58.4146
57.568
56.4138
55.7047
55.0515
54.3015
53.807
54.6036
81.8743
79.1097
74.8595
70.8993
67.8164
65.7605
64.6052
63.2328
62.2145
61.7118
60.4261
59.1549
58.4201
57.5887
56.4061
55.6852
55.0991
54.3039
53.8253
54.58
82.4389
79.1829
74.6871
70.6988
67.6675
65.7608
64.6391
63.2068
62.166
61.7118
60.4104
59.1279
58.4309
57.6141
56.3973
55.6621
55.1625
54.3176
53.8088
54.4882
83.2189
79.2742
74.4189
70.4472
67.4992
65.7362
64.6492
63.1568
62.1094
61.707
60.3793
59.0854
58.4477
57.6427
56.3866
55.6379
55.2482
54.3572
53.7755
54.3134
84.2167
79.3719
74.054
70.1257
67.3031
65.7059
64.6716
63.0819
62.0282
61.6975
60.3485
59.0243
58.4695
57.6802
56.3788
55.6091
55.3372
54.4221
53.7644
54.0634
85.4696
79.4092
73.5716
69.7425
67.0985
65.6321
64.677
63.0005
61.9396
61.6807
60.3301
58.9661
58.4716
57.7032
56.3779
55.5938
55.4146
54.4931
53.7945
53.7977
87.0067
79.3619
72.971
69.3141
66.8976
65.546
64.651
62.9409
61.8756
61.6437
60.3133
58.9446
58.4686
57.7061
56.3899
55.6043
55.4459
54.5406
53.8502
53.6645
88.9692
79.2941
72.359
68.9348
66.7414
65.4685
64.5961
62.9145
61.864
61.6054
60.3037
58.9611
58.4636
57.6928
56.4087
55.6287
55.4391
54.5639
53.8602
53.5804
92.0774
79.6481
72.1935
68.8173
66.684
65.4579
64.5686
62.9178
61.8938
61.5846
60.2935
58.9896
58.4642
57.6754
56.4208
55.6509
55.4152
54.5656
53.8755
53.7098
52.97
53.0571
53.0603
53.0023
52.92
52.8134
52.6956
52.582
52.52
52.5235
52.5902
52.7126
52.8774
53.0451
53.1726
53.2182
53.1354
52.9015
52.5127
51.9209
51.1077
50.0903
48.9115
47.5767
46.2358
45.0477
44.1713
43.7392
44.1332
45.2789
46.956
49.2054
52.1147
55.2545
57.9249
60.1057
62.3528
64.7063
66.5202
67.4883
67.8056
67.5444
66.5912
65.03
62.7655
59.7007
55.6561
50.3369
43.9447
36.4958
28.7934
21.2928
14.8592
9.6088
5.88661
3.32755
2.0795
2.39045
4.84806
9.18113
14.592
20.364
26.6987
33.8274
41.6211
49.6067
57.0293
63.1177
67.4832
70.6074
72.4062
73.1941
72.8763
71.7037
69.6595
66.9002
63.4157
59.3203
54.7655
49.9338
45.4161
41.4594
38.2379
36.3431
35.9606
36.7041
38.6412
42.0064
46.0437
50.2216
54.5046
58.768
62.7635
66.2523
69.3836
72.3045
75.0168
77.4903
79.6983
81.6065
83.0634
84.2265
85.2621
85.9373
86.0141
85.5552
84.2482
82.0425
78.9629
75.3176
71.569
67.8201
63.8017
59.7338
55.5801
51.6744
47.6153
43.8717
40.4574
37.2567
34.4691
32.1041
30.2897
28.8939
27.9211
27.5034
27.3032
27.2623
27.5053
27.7949
28.194
28.7243
29.2325
29.6142
29.6728
29.7337
30.1373
30.3973
30.6753
31.4061
32.1189
33.1444
34.2722
35.0688
36.172
37.3272
38.1351
38.8779
39.3472
39.7425
40.1625
40.6427
41.4835
42.4825
43.8314
45.247
47.0763
49.215
51.0311
53.5375
56.1822
58.3441
60.9274
63.2635
65.18
67.3551
69.1504
70.7466
72.1313
72.7811
72.9928
72.7299
71.7115
69.9811
67.8845
65.5784
63.1803
60.7645
58.2533
55.9486
53.7501
52.2462
51.4597
51.3562
52.1504
53.8763
55.7271
56.9667
57.8891
58.0693
57.1408
55.6501
52.8882
49.7985
46.7328
43.6373
41.509
39.5778
38.1231
24.896
52.6395
52.765
52.941
53.0032
52.9529
52.843
52.7138
52.6026
52.542
52.5458
52.6101
52.7211
52.8749
53.0173
53.1269
53.1534
53.0504
52.7786
52.3619
51.7501
50.9183
49.908
48.7874
47.5145
46.2651
45.2389
44.4879
44.175
44.6679
45.856
47.4327
49.5261
52.3541
55.4233
58.0857
60.288
62.465
64.4583
66.0467
67.263
68.0336
67.5263
66.4201
64.8119
62.6765
59.8211
56.0757
51.1287
45.0881
38.0444
30.8349
23.8423
17.6857
12.5674
8.99973
6.55603
5.38998
5.67652
7.93906
11.9034
16.8794
22.2529
28.1478
34.8171
42.2035
49.6902
56.4122
61.9268
65.8697
68.67
70.2869
71.0344
70.8398
69.9177
68.2339
65.8831
62.8495
59.3412
55.5685
51.6133
47.8909
44.6452
42.0079
40.4809
39.9826
40.7562
42.6436
45.2862
48.435
52.2137
56.3363
60.0798
63.419
66.5957
69.7035
72.4125
74.9778
77.4672
79.6798
81.438
82.9223
84.1854
85.0441
85.5567
85.7694
85.4023
84.1282
82.0736
79.1424
75.7155
71.955
68.2955
64.2916
60.3354
56.2973
52.394
48.5991
44.9409
41.7041
38.5931
35.995
33.8075
32.0284
30.8405
29.9822
29.5156
29.3333
29.2289
29.2666
29.5635
29.8987
30.3287
30.7391
31.0426
31.2872
31.0705
31.0798
31.0544
30.8981
31.0417
31.1843
31.788
32.6086
33.0989
34.0991
35.1085
35.79
36.4145
36.7416
37.0461
37.3174
37.6992
38.3023
39.0602
40.2232
41.6663
43.5425
45.9261
48.4618
51.1313
54.1619
56.7465
59.7632
62.5719
64.7508
67.1371
69.1541
71.0221
72.3386
73.0594
73.4016
73.0274
71.8404
70.0547
67.7953
65.19
62.5611
60.0067
57.5302
55.0551
52.8613
51.2898
50.8952
51.1617
52.1876
53.5103
55.0033
56.2305
56.6283
56.332
56.0742
54.1394
50.8989
47.8648
44.0744
40.0579
37.7764
34.1675
31.4527
19.4308
52.4479
52.5011
52.8382
53.0758
53.097
52.9646
52.778
52.6149
52.5332
52.529
52.5895
52.6933
52.8457
52.9607
53.0242
53.0234
52.8903
52.5732
52.1431
51.5384
50.7175
49.7539
48.7556
47.6137
46.5147
45.6896
45.1468
44.977
45.5089
46.6633
48.2216
50.2506
52.8926
55.6757
57.9649
59.7798
61.8638
64.1688
65.7962
66.4367
66.5039
66.6391
65.9757
64.3673
62.3347
59.6022
56.078
51.5514
46.1595
39.933
33.4433
26.8939
21.0516
16.175
12.5723
10.0885
9.26679
9.65311
11.6623
15.1657
19.5852
24.2819
29.7138
36.0992
43.0683
49.8073
55.757
60.6098
64.1148
66.6332
68.1551
68.8955
68.7303
68.0713
66.7227
64.8241
62.3529
59.6177
56.7192
53.6724
50.6825
48.0775
45.8236
44.4369
44.1192
44.823
46.1985
48.4064
51.1553
54.1772
57.2008
60.3746
63.6771
66.7537
69.6206
72.2858
74.8196
77.0365
79.0732
80.9426
82.4041
83.483
84.3707
85.0145
85.2089
84.7238
83.5054
81.6082
78.9649
75.7587
72.2103
68.6009
64.8671
60.9665
57.1353
53.3265
49.7641
46.2267
43.1768
40.3668
37.9095
35.916
34.2408
33.1581
32.4324
31.8434
31.6016
31.5166
31.3108
31.4775
31.7903
32.2605
32.5448
32.5732
32.7309
32.3822
32.0346
31.5752
30.9089
30.515
30.0351
30.1573
30.5586
30.9342
31.8248
32.6899
33.3779
33.8817
34.0886
34.2808
34.2988
34.4089
34.839
35.4623
36.4342
37.8677
39.8645
42.3443
45.0936
48.3464
51.7255
54.9785
58.5165
61.5042
64.308
67.1413
69.1474
71.0369
72.6105
73.4486
73.9243
73.4893
72.1356
70.1983
67.7398
65.0154
62.3411
59.5853
56.8712
54.1915
51.7033
49.9127
49.4403
49.9813
51.1593
52.4364
54.2515
55.4347
56.1643
55.9585
55.0497
52.8279
49.8442
46.2417
42.3183
38.1895
34.7139
30.2972
26.3512
17.0481
51.965
52.0621
52.7679
53.263
53.363
53.1661
52.8737
52.6207
52.4852
52.4586
52.5301
52.6347
52.7824
52.8741
52.8961
52.8512
52.6942
52.357
51.9169
51.3529
50.6077
49.7402
48.8942
47.9465
47.03
46.4176
46.0863
46.0446
46.611
47.7657
49.2616
51.0631
53.2447
55.4824
57.5702
59.5774
61.6191
63.2734
64.2901
65.0018
65.5791
65.5443
64.5953
63.1928
61.6277
59.1483
55.8537
51.8097
47.1398
41.6024
35.7834
30.0264
24.8193
20.4672
17.1665
15.1167
13.8696
14.1197
15.8282
18.62
22.3112
26.6548
31.7826
37.5386
43.7842
49.7208
54.9978
59.1957
62.4314
64.6672
66.1139
66.8517
66.8687
66.3644
65.2861
63.811
61.9062
59.883
57.7011
55.4222
53.0182
51.1041
49.3544
48.4027
48.0021
48.5871
49.4924
51.1188
53.2467
55.7763
58.4196
61.196
63.7852
66.2746
68.9729
71.5776
73.9124
76.1672
78.2936
80.0314
81.4138
82.5311
83.4841
84.0459
84.2168
83.8388
82.7985
81.0317
78.6469
75.623
72.4229
68.9047
65.4366
61.6872
58.1458
54.4956
51.1245
47.9311
45.0407
42.4864
40.0931
38.3406
36.8058
35.6358
35.0329
34.5355
34.14
34.0639
33.8125
33.7997
34.0578
34.4709
34.6648
34.4747
34.239
33.6569
32.8701
31.9002
30.7734
29.6482
28.5577
28.1679
28.0733
28.4954
29.3216
30.0418
30.9135
31.2494
31.4495
31.3654
31.1118
31.0118
31.1871
31.6768
32.4482
33.942
35.7705
38.3233
41.4233
45.1362
49.1661
52.7575
56.7569
60.5218
63.6741
66.6818
69.1441
71.1255
72.4824
73.5039
74.4353
73.9902
72.5029
70.4638
67.9215
65.1521
62.333
59.4749
56.4984
53.5127
50.5659
48.3401
47.4669
48.0425
49.3093
51.1575
53.0368
54.3883
55.6318
55.9236
54.5656
52.0453
49.2125
44.8514
40.6884
36.4951
32.5238
28.0434
22.8794
17.1939
51.6914
51.9367
52.964
53.6089
53.6853
53.3704
52.9513
52.6068
52.4197
52.3642
52.4312
52.5566
52.7103
52.7697
52.7574
52.6976
52.5225
52.1519
51.7288
51.2481
50.5863
49.8492
49.1536
48.4185
47.742
47.2967
47.1231
47.2635
47.844
48.8888
50.2447
51.7197
53.4568
55.5057
57.5163
59.0701
60.4929
61.8851
63.0402
63.7087
63.9568
63.8326
63.2117
62.1264
60.5753
58.2939
55.4136
51.9007
47.7799
42.9977
38.0428
33.0479
28.4656
24.7212
21.6
19.4835
18.4129
18.4572
19.5124
21.8545
25.2797
29.2247
33.7286
38.9571
44.4774
49.4905
54.0546
57.7011
60.6779
62.7532
64.1877
64.9258
65.0971
64.7709
64.0276
63.013
61.6331
60.1159
58.3759
56.7397
55.005
53.5284
52.243
51.6148
51.0872
51.3085
52.1235
53.4716
55.1065
57.068
59.2106
61.46
63.8232
66.1965
68.4921
70.7104
72.8945
74.9449
76.9031
78.6135
80.1468
81.3343
82.2518
82.7816
82.9883
82.6613
81.7866
80.2098
78.1574
75.4294
72.4975
69.1681
65.9566
62.4899
59.1543
55.848
52.6774
49.8618
47.1283
44.7503
42.5352
40.8516
39.5209
38.4561
37.7402
37.3403
36.8937
36.8882
36.8202
36.7029
36.8135
36.9692
37.1134
36.8025
36.1752
35.1097
33.8339
32.2784
30.4497
28.5492
26.8594
25.8272
25.3802
25.7284
26.7187
27.6188
28.5381
28.7624
28.8206
28.5393
27.8884
27.6372
27.3295
27.5275
28.195
29.5628
31.5481
34.1173
37.4628
41.5167
46.1397
50.4323
54.6733
58.9646
62.852
66.1415
68.6373
70.9281
72.5309
73.5637
74.3093
73.8963
72.5752
70.526
68.0883
65.4474
62.6351
59.7397
56.6209
53.2765
49.951
47.1369
45.828
45.9972
47.4133
49.7982
51.6192
54.1971
55.3568
55.8958
54.974
51.3664
47.9426
43.97
39.1143
34.7239
30.7878
26.1794
21.2792
18.7153
51.8133
52.1412
53.1685
53.7626
53.7625
53.3816
52.936
52.5863
52.391
52.3198
52.3938
52.5294
52.6564
52.6839
52.6498
52.5708
52.3857
52.0461
51.6331
51.2044
50.6913
50.0889
49.5097
48.9859
48.5006
48.2115
48.1759
48.3804
48.9633
49.8942
50.9698
52.2241
53.8477
55.5216
56.967
58.2615
59.6473
60.9162
61.8737
62.3712
62.5759
62.4186
61.8909
60.942
59.5561
57.5136
54.8976
51.8584
48.3562
44.2795
39.9737
35.7037
31.6075
28.0983
25.322
23.5653
22.4457
22.3264
23.3468
25.3975
28.2096
31.8194
35.8402
40.3039
44.9018
49.1452
52.9598
56.1496
58.8707
60.8608
62.3387
63.2021
63.5283
63.404
62.9159
62.242
61.2725
60.2161
59.0268
57.8872
56.5007
55.3935
54.397
53.8264
53.4845
53.8134
54.339
55.103
56.3902
58.0454
59.8493
61.7905
63.8659
65.8337
67.9688
70.1018
72.0754
73.8512
75.7143
77.2928
78.7373
79.9148
80.8783
81.4551
81.7271
81.447
80.7184
79.3876
77.6233
75.2097
72.5264
69.5785
66.5094
63.4472
60.2916
57.3807
54.416
51.8159
49.4284
47.2873
45.3365
43.672
42.4972
41.5765
40.8046
40.4498
40.0562
39.9289
40.0047
39.9638
40.0568
39.9844
39.7272
39.1907
38.386
37.0091
35.0611
32.8314
29.9821
27.2735
24.8521
23.1329
22.4535
22.8429
24.1065
25.5383
26.5684
26.7917
26.6219
25.9375
24.9552
24.2348
23.4468
23.1855
23.6858
24.8136
26.8989
29.731
33.2728
37.8478
42.832
47.4644
52.4796
57.2866
61.4164
65.3654
68.3104
70.5775
72.0366
73.3503
74.3622
74.3706
72.5293
70.3358
68.2033
65.8334
63.2682
60.4186
57.3012
53.8825
50.2522
47.1072
45.1953
44.7839
46.304
49.3396
51.5187
54.9762
56.69
57.1362
56.1482
52.2375
47.8083
44.0472
38.8214
33.8675
29.8732
25.5913
21.18
18.8485
52.5992
52.7081
53.152
53.3361
53.1842
52.8854
52.6234
52.4427
52.3649
52.3395
52.4202
52.5492
52.636
52.6159
52.5394
52.4463
52.2715
51.9423
51.5671
51.2072
50.8071
50.3448
49.89
49.5091
49.1905
49.0252
49.038
49.3072
49.8632
50.5742
51.4996
52.6572
53.9276
55.1759
56.5148
57.8376
59.022
59.9758
60.7567
61.2289
61.446
61.2828
60.7834
59.8928
58.6367
56.9139
54.6915
52.0107
48.9216
45.5441
41.9186
38.1443
34.5387
31.675
29.4101
27.5999
26.6379
26.7345
27.5068
28.975
31.1891
34.2552
37.4878
41.0696
44.8294
48.5416
51.8912
54.769
57.246
59.1537
60.5337
61.4686
61.984
62.0973
61.8544
61.4719
60.9439
60.3102
59.491
58.7084
57.8171
56.9745
56.2057
55.8702
55.5852
55.5528
55.8808
56.6039
57.617
58.8431
60.3471
61.8797
63.6248
65.4414
67.4168
69.3429
71.2986
73.0436
74.7816
76.2767
77.6052
78.6948
79.6181
80.1948
80.5225
80.3785
79.8199
78.7356
77.1796
75.2019
72.7302
70.1805
67.3723
64.6573
61.7622
59.0895
56.4627
54.0622
51.9552
50.0431
48.3205
46.7745
45.6366
44.8549
44.2835
43.8944
43.6072
43.3511
43.4586
43.4879
43.3949
43.2637
42.7
41.7728
40.4758
38.8739
36.4624
33.6139
29.7428
25.8262
22.5762
20.2906
19.3306
19.9709
21.7345
23.6858
25.1737
25.3197
24.9964
23.7248
22.361
21.0603
19.5719
19.0515
19.0796
20.0463
22.3163
25.4614
29.4059
34.1685
39.4796
44.6054
49.9139
55.2202
60.1977
64.3939
67.342
69.9993
71.9234
73.0336
73.127
72.3981
71.4049
69.9441
68.3489
66.4151
64.1842
61.529
58.5801
55.2543
51.48
48.3655
45.9559
45.5444
47.2308
50.6504
53.6803
56.5749
59.6618
59.9032
57.8393
54.8741
49.5568
44.82
39.7259
34.2906
30.055
26.1767
21.6637
18.285
54.8384
54.4254
53.3337
52.5737
52.1263
51.98
52.0469
52.1862
52.3287
52.4052
52.5198
52.6305
52.6609
52.5844
52.4764
52.361
52.1767
51.8693
51.5466
51.2336
50.9228
50.5889
50.241
49.9756
49.7546
49.643
49.7025
49.9609
50.429
51.0665
51.8627
52.7549
53.8163
55.0109
56.2467
57.3702
58.3513
59.169
59.851
60.2847
60.4706
60.2706
59.7704
59.051
58.0429
56.5621
54.5727
52.279
49.7388
46.9511
43.848
40.8035
38.0191
35.4672
33.2737
31.7709
30.9886
30.7488
31.0249
32.1582
33.8557
36.0828
38.5053
41.4261
44.5804
47.7187
50.5783
53.1904
55.5092
57.4762
58.9729
60.0227
60.7283
61.0026
61.0601
60.9566
60.7433
60.4151
59.9405
59.4781
58.8456
58.2214
57.774
57.4278
57.0524
57.079
57.3933
57.7862
58.4475
59.3842
60.5647
61.8388
63.3668
64.9768
66.7498
68.537
70.4066
72.101
73.7631
75.3349
76.681
77.735
78.5899
79.1936
79.5445
79.5396
79.0672
78.2386
76.8899
75.2618
73.1732
70.9645
68.5457
66.1092
63.5997
61.1453
58.8628
56.6519
54.744
52.9826
51.4628
50.1402
49.0816
48.3025
47.8178
47.5797
47.4653
47.1781
47.0997
46.9816
46.7254
46.4374
45.712
44.609
42.934
40.9038
38.1679
34.6597
30.0674
25.0138
20.8555
18.1152
16.9968
17.6787
19.9533
22.4094
24.1904
24.4563
23.7957
21.9324
19.9916
17.9575
16.0326
15.2976
14.9914
15.9489
18.5934
21.9385
25.98
31.084
36.5439
41.9055
47.606
53.5293
58.5116
62.9105
66.5942
69.5225
71.0485
71.3712
71.3075
70.5499
71.0206
70.2088
68.9608
67.6009
65.7537
63.4023
60.7993
57.5664
54.7315
51.5993
49.489
49.0614
50.7501
53.3565
58.0995
59.9778
63.3415
63.825
60.5182
57.7362
52.2584
46.4313
41.3731
36.0309
31.3752
27.3089
22.5701
18.4614
55.7678
55.1938
53.4669
52.1804
51.5146
51.4156
51.6737
52.0036
52.3017
52.4907
52.6417
52.7166
52.7022
52.5822
52.4466
52.3022
52.1114
51.8347
51.5459
51.2885
51.0495
50.8035
50.5427
50.3544
50.172
50.0966
50.1685
50.402
50.8374
51.401
52.0265
52.8013
53.8213
54.8696
55.8795
56.8322
57.6995
58.4503
59.0361
59.4047
59.4843
59.3651
59.0251
58.4339
57.4882
56.2627
54.6644
52.7487
50.6207
48.371
45.9325
43.4588
41.0026
38.7607
36.9802
35.6072
34.5956
34.1419
34.1941
34.758
35.7787
37.4305
39.3112
41.4839
43.8823
46.4695
49.0862
51.5957
53.8238
55.7479
57.3449
58.5738
59.531
60.1593
60.5027
60.6258
60.6509
60.5921
60.3654
60.0925
59.7056
59.3467
58.9399
58.6325
58.4352
58.4218
58.464
58.6443
59.1385
59.773
60.6498
61.7193
62.9859
64.3729
65.9361
67.5552
69.2309
70.9504
72.6833
74.3295
75.7269
76.8489
77.7488
78.4533
78.8325
78.9198
78.5864
77.9384
76.8372
75.469
73.7782
71.8842
69.8774
67.7174
65.5919
63.4343
61.3784
59.4683
57.7657
56.1175
54.7619
53.7435
52.8975
52.0881
51.451
51.2668
51.2304
50.9441
50.7325
50.4368
50.0214
49.5415
48.7669
47.4676
45.825
43.5949
40.5432
36.7011
31.4131
25.7177
20.8085
17.6518
16.4077
17.0849
19.321
22.039
23.8898
24.0716
23.0892
20.5964
17.8436
14.8937
12.8498
11.8448
11.543
12.8204
15.8566
19.4229
23.5122
28.8046
34.256
39.7559
45.7305
51.8592
57.07
61.9482
65.8183
68.2215
69.7151
70.2956
71.3087
72.0904
72.386
71.119
69.4192
68.4567
67.3864
65.817
64.0334
62.0656
59.5895
56.9459
55.7068
54.9466
56.6217
58.1596
64.3016
65.8021
67.4558
68.3997
64.8242
60.9376
55.7902
49.5203
43.8985
38.5745
33.4
28.8027
24.1197
19.7437
56.1642
55.6716
53.7417
52.1764
51.3417
51.1757
51.4731
51.8876
52.2754
52.5474
52.732
52.7869
52.7453
52.6023
52.4529
52.2911
52.082
51.8326
51.5701
51.3543
51.1495
50.978
50.779
50.6368
50.4956
50.4415
50.5074
50.7537
51.1586
51.6311
52.1795
52.8667
53.7346
54.5787
55.4403
56.2908
57.0852
57.7355
58.2102
58.5723
58.7089
58.6856
58.3444
57.8455
57.1285
56.1614
54.8106
53.2505
51.5893
49.7627
47.7273
45.5716
43.5224
41.6917
40.1608
38.8496
37.8158
37.1528
36.82
36.8986
37.362
38.2795
39.5005
41.1244
43.0381
45.1604
47.3366
49.5596
51.7536
53.819
55.6428
57.1246
58.353
59.2895
59.9214
60.3485
60.6199
60.7851
60.7974
60.7529
60.5716
60.3316
60.0913
59.8658
59.5367
59.3297
59.3632
59.462
59.7099
60.0329
60.6163
61.4157
62.3787
63.5427
64.9125
66.4256
68.0356
69.7358
71.5475
73.2589
74.7359
75.9986
76.9982
77.7776
78.2946
78.5162
78.367
77.8819
77.0458
75.8671
74.4351
72.8406
71.0909
69.2388
67.4367
65.6108
63.8328
62.2439
60.7447
59.179
57.8856
57.0392
56.4589
55.8942
55.2
54.7454
54.6396
54.4714
54.2113
53.8124
53.3392
52.8198
52.1646
50.6818
48.7676
46.6404
43.5131
39.3736
33.8728
27.9063
22.6373
19.2415
17.7295
18.38
20.212
22.621
24.2358
24.3525
22.7259
19.5704
15.8029
12.0127
9.73824
8.53744
8.68151
10.4973
13.9604
17.7214
22.1146
27.4195
32.9047
38.2433
44.6861
50.5856
56.09
60.9368
64.6551
66.8128
69.1449
70.5545
72.173
72.4747
72.3787
71.4464
69.8207
69.0565
68.3844
67.7611
66.7831
65.5839
64.1095
62.7854
62.4187
62.1487
64.5955
65.9144
70.5134
72.4897
71.7138
71.9932
69.3001
64.5833
59.4122
53.1482
46.8845
41.1949
35.7949
30.8724
26.234
21.8453
56.4134
55.9933
54.0283
52.3091
51.3416
51.0757
51.3543
51.811
52.2505
52.5706
52.7722
52.8178
52.7679
52.6261
52.4677
52.3026
52.088
51.8662
51.611
51.4299
51.2516
51.1276
50.9758
50.8817
50.7717
50.7191
50.7917
51.0373
51.3997
51.8133
52.2904
52.8266
53.5375
54.2454
55.0279
55.8013
56.4817
57.0397
57.4985
57.9261
58.0561
58.0376
57.7708
57.4589
56.8822
56.0951
55.0666
53.7869
52.4133
50.9585
49.3138
47.4577
45.8333
44.378
42.9726
41.6181
40.4789
39.6848
39.058
38.5935
38.4591
38.8587
39.5162
40.4928
41.751
43.3285
45.1277
47.2055
49.425
51.5709
53.676
55.5258
57.1123
58.3748
59.3749
60.1615
60.7017
61.088
61.3369
61.4916
61.4907
61.3926
61.221
60.9154
60.6134
60.3906
60.2202
60.0037
59.999
60.1127
60.4175
60.9187
61.5223
62.4111
63.5442
64.9795
66.5709
68.3338
70.2134
72.0548
73.7173
75.174
76.3364
77.2192
77.8918
78.2685
78.268
77.9581
77.3364
76.3474
75.1071
73.7788
72.2985
70.6998
69.1458
67.6302
66.0625
64.6092
63.3779
62.1361
60.9238
60.0005
59.4299
59.0718
58.6289
58.2004
57.8048
57.5504
57.4412
57.0254
56.4991
55.9594
55.4086
54.0851
51.8546
49.3473
46.2286
41.9405
36.655
30.8506
25.7113
22.3046
20.5102
20.8329
22.1574
24.0734
25.1298
24.8145
22.6056
18.7305
13.8145
9.48022
6.64737
5.41171
5.96118
8.54446
12.6164
16.9175
21.7402
26.8989
32.5067
37.5472
44.5372
49.3691
56.0074
60.2384
63.7677
66.1085
69.0998
71.0251
72.3004
71.998
71.5005
71.5783
70.4396
69.9979
69.399
69.157
68.9083
68.7552
68.336
68.2901
68.6999
70.1025
71.9122
74.7935
76.1952
78.1504
76.3261
74.7675
72.5167
67.8683
62.388
56.2902
49.9484
44.046
38.6725
33.4626
28.5283
24.0587
56.5246
56.1351
54.1932
52.4266
51.3882
51.0529
51.3012
51.7673
52.2292
52.5785
52.7854
52.8407
52.7912
52.6478
52.4855
52.325
52.1107
51.9195
51.6758
51.5133
51.3572
51.2605
51.1503
51.0864
51.0089
50.9559
51.0177
51.2366
51.565
51.9057
52.2949
52.7086
53.3064
53.954
54.6584
55.3079
55.9112
56.4417
56.8991
57.3081
57.4489
57.5174
57.3685
57.1709
56.7436
56.1249
55.2973
54.2962
53.2562
52.066
50.7686
49.4226
48.0353
46.6351
45.2863
44.0749
42.9046
41.7576
40.6988
39.9917
39.5822
39.3668
39.2226
39.4698
40.1272
41.2428
42.6926
44.4411
46.6231
48.9993
51.5366
53.8302
55.8332
57.5482
58.9642
60.1225
60.9492
61.5834
62.0584
62.3509
62.4953
62.4404
62.2955
61.9928
61.6978
61.3269
60.9631
60.6075
60.3127
60.0625
59.939
60.0293
60.2923
60.8725
61.6951
62.9272
64.5836
66.5432
68.6362
70.7409
72.6618
74.3866
75.7918
76.8422
77.644
78.1527
78.2726
78.0783
77.6349
76.8716
75.8602
74.7697
73.5311
72.1599
70.8149
69.5169
68.0783
66.7138
65.6731
64.7458
63.8518
62.9721
62.2814
61.8142
61.545
61.407
60.9099
60.3369
60.1496
59.9508
59.4658
58.7321
58.061
56.8155
54.5033
51.5684
48.2469
44.0876
39.3125
33.9533
29.1496
25.8418
23.9521
23.7654
24.4541
25.7234
26.3216
25.4359
22.7064
18.1798
12.2733
7.40243
4.15286
3.02578
4.19888
7.61778
12.0567
16.7268
21.886
27.1197
32.8138
37.3265
45.3455
48.5161
57.1318
60.043
63.4978
66.001
68.7915
71.1801
72.6385
73.3106
73.2652
72.901
71.787
70.9681
70.4528
70.7162
70.9769
71.5993
72.3201
73.1926
74.3205
77.1891
78.0563
81.3377
81.8492
82.928
81.1641
78.3967
75.5724
71.1699
65.442
59.3134
53.1964
47.2217
41.7639
36.3298
31.0917
26.4472
56.4951
56.1154
54.2289
52.5042
51.4758
51.1338
51.365
51.8309
52.2794
52.6345
52.8276
52.8707
52.8078
52.6662
52.4991
52.3459
52.1499
51.9783
51.7613
51.6128
51.481
51.39
51.3167
51.2624
51.208
51.1535
51.1949
51.3752
51.6539
51.9191
52.218
52.56
53.068
53.6516
54.2553
54.8636
55.3932
55.8801
56.3198
56.734
56.9813
57.1243
57.0665
56.9554
56.695
56.2766
55.6677
54.8965
54.0426
53.149
52.2289
51.0452
49.7963
48.6315
47.5202
46.3275
44.9826
43.7026
42.5597
41.4491
40.3803
39.4757
38.8245
38.4597
38.3654
38.8135
39.9038
41.5308
43.8139
46.4761
49.3864
52.1426
54.6327
56.8466
58.7045
60.238
61.3919
62.2581
62.8735
63.2959
63.5324
63.5615
63.4471
63.1141
62.7064
62.2267
61.7446
61.2073
60.5482
59.8913
59.3101
58.8804
58.699
58.8836
59.4088
60.4881
62.2488
64.4441
66.8104
69.2299
71.5384
73.624
75.3603
76.6847
77.6418
78.2269
78.4423
78.3512
78.0268
77.4534
76.693
75.7971
74.7712
73.5781
72.3528
71.1911
69.9653
68.816
67.8126
66.8833
66.1019
65.6515
65.2421
64.5124
64.0487
64.101
63.7825
63.067
62.7399
62.5004
61.9962
61.102
59.9623
58.5164
56.1904
53.1657
49.7438
45.7015
41.2073
36.5952
32.3837
29.096
27.114
26.5794
26.786
27.2872
27.2988
25.9574
23.0185
18.152
11.7987
6.83175
3.49201
2.53255
3.39317
7.68864
12.3714
17.1622
22.4336
27.9853
33.7765
38.0048
46.5723
48.5236
58.5601
59.4599
63.5133
66.0313
68.6229
71.8691
74.4169
76.7101
76.7564
74.9398
73.3193
71.912
71.7767
72.1842
73.0256
74.3387
75.9011
77.4499
78.992
82.6142
83.4096
85.9436
86.7996
87.1692
85.3972
82.5565
79.1482
74.7834
68.9543
62.5653
56.4209
50.3202
44.6683
39.1683
33.8977
29.2074
56.3229
55.9487
54.135
52.5625
51.6252
51.3541
51.5756
51.9993
52.3975
52.7086
52.8568
52.8718
52.7931
52.655
52.5043
52.3664
52.1971
52.0379
51.8631
51.7208
51.6153
51.538
51.4772
51.4161
51.3665
51.3031
51.312
51.4571
51.6596
51.8633
52.1092
52.4126
52.8054
53.2894
53.8231
54.3665
54.8549
55.312
55.8013
56.2457
56.5663
56.7503
56.8297
56.8676
56.7903
56.5336
56.0949
55.5643
54.9443
54.1877
53.4463
52.6056
51.6397
50.5587
49.408
48.3358
47.2161
45.8322
44.2239
42.609
41.2225
39.7944
38.4137
37.3307
36.7354
36.7563
37.4943
39.0746
41.3385
44.1721
47.3612
50.5917
53.626
56.326
58.638
60.4991
61.9474
63.0146
63.7533
64.2686
64.5545
64.6804
64.6139
64.2982
63.7937
63.1473
62.5031
61.7546
60.7689
59.716
58.6247
57.6052
56.9323
56.7458
57.0568
58.0051
59.7609
62.1542
64.8664
67.7366
70.5224
73.0021
75.1194
76.7558
77.8404
78.5017
78.8231
78.8193
78.5778
78.1585
77.542
76.7691
75.8471
74.7476
73.6238
72.5918
71.6341
70.7442
69.9607
69.0385
68.0284
67.651
67.734
67.2906
66.5324
66.3931
66.3355
65.6124
64.9443
64.5443
63.8591
62.7185
61.2008
59.6027
57.4509
54.3488
50.8717
47.0309
42.6298
38.3418
34.8131
31.9181
29.8469
28.9406
28.6113
28.513
27.9812
26.5244
23.4977
18.6886
12.8446
7.76772
4.4436
4.18348
5.71328
8.99624
13.328
18.2147
23.4324
29.4835
34.9512
40.8115
48.0085
49.5425
59.1449
57.7322
63.1644
65.1039
68.5333
72.8207
76.5979
79.857
79.2669
76.6643
74.3343
72.4855
73.2137
73.436
75.0733
76.9344
79.0734
81.2425
83.1113
86.8871
88.462
90.1344
90.7827
90.8471
88.7813
85.918
82.2584
78.0347
72.3835
65.8401
59.3928
53.268
47.6262
42.0622
36.7156
32.004
55.8826
55.5345
53.9677
52.6773
51.9328
51.7458
51.9305
52.2589
52.5665
52.7816
52.8686
52.8514
52.7592
52.6367
52.5153
52.3878
52.2549
52.1107
51.9636
51.8332
51.744
51.6735
51.6088
51.5462
51.4848
51.4254
51.4143
51.5078
51.633
51.7891
51.9636
52.2027
52.5168
52.9134
53.3875
53.8849
54.3659
54.8321
55.3326
55.7844
56.1702
56.4696
56.7124
56.8645
56.9074
56.816
56.596
56.284
55.8731
55.4099
54.7515
54.0578
53.2441
52.3951
51.4562
50.3943
49.0919
47.5001
45.7236
43.8267
41.9957
40.0731
38.2704
36.7215
35.7152
35.4489
35.9861
37.4392
39.6948
42.6153
45.9949
49.5566
52.9819
56.0573
58.7178
60.8292
62.5098
63.7556
64.6201
65.1993
65.4993
65.6907
65.6738
65.4475
64.9583
64.205
63.3232
62.2712
61.003
59.6114
58.1097
56.6498
55.5287
54.9248
55.0098
55.811
57.5428
60.0943
63.1589
66.4441
69.6428
72.5551
75.0916
77.0437
78.2991
79.019
79.3895
79.4479
79.2504
78.8686
78.3067
77.6001
76.7671
75.8215
74.8582
73.967
73.0913
72.3683
71.9183
71.272
70.2898
69.6652
69.5617
69.3735
68.9342
68.5645
68.2536
67.6666
66.783
65.7617
64.8022
63.7878
62.2426
60.4983
58.3779
55.2107
51.634
48.0427
44.0025
39.864
36.605
34.013
31.9563
30.7068
30.0233
29.4423
28.5833
26.9451
24.1449
19.8119
14.4439
10.0626
7.83205
6.72742
7.68687
11.6686
15.4563
19.6708
25.0734
31.4026
36.4062
42.857
48.451
49.4766
55.5998
57.2114
62.8623
63.7706
68.6604
72.9168
77.5974
81.1648
79.9294
77.771
75.3876
72.2431
73.6356
74.6009
76.782
79.2562
81.9997
84.4533
86.954
90.4983
92.7916
94.3484
94.3856
93.9721
91.9483
88.7753
85.013
80.8237
75.4218
69.0667
62.5141
56.408
50.6923
45.0181
39.5463
34.7281
55.1466
54.9031
53.7981
52.903
52.4011
52.2729
52.3707
52.5528
52.7302
52.8339
52.8577
52.8131
52.7205
52.6151
52.5148
52.4035
52.2938
52.1693
52.0543
51.9473
51.8651
51.7992
51.7198
51.6407
51.5695
51.5092
51.4777
51.527
51.5946
51.6852
51.8079
52.0072
52.2629
52.5901
53.023
53.4852
53.9472
54.4139
54.925
55.4325
55.8998
56.2889
56.6259
56.9065
57.0896
57.1431
57.0836
56.9712
56.7424
56.3725
55.8552
55.3332
54.7356
53.9867
53.0709
52.0163
50.684
48.8945
46.786
44.6514
42.6282
40.5326
38.4886
36.6709
35.4668
35.0208
35.4328
36.8158
39.006
41.9702
45.4366
49.1468
52.7532
56.0234
58.872
61.1911
63.0533
64.4348
65.3751
65.9713
66.2891
66.5877
66.5932
66.3017
65.7645
65.0417
64.1137
62.8709
61.3242
59.5996
57.8289
56.1576
54.777
53.9017
53.7855
54.4704
56.1173
58.7185
61.9873
65.5521
69.1016
72.4344
75.3411
77.5606
78.9939
79.7921
80.1851
80.2463
80.0383
79.6541
79.146
78.4895
77.7203
76.8873
76.0598
75.2788
74.4674
73.923
73.6106
72.8971
71.9642
71.5903
71.5005
71.0731
70.7969
70.5237
69.6839
68.7936
67.9081
66.6043
65.2879
64.1759
62.7472
61.0345
58.9008
55.7716
52.1223
48.5347
44.8384
41.1991
38.1288
35.6621
33.6236
32.0758
30.8859
29.8768
28.7736
27.2626
24.8776
21.3959
17.2461
13.3002
11.2734
10.9646
11.7937
14.2925
18.1912
22.3203
26.591
32.7232
38.1628
42.6637
45.16
48.6234
54.4485
57.9121
61.2576
64.039
69.0808
71.8946
77.5085
80.5316
79.4918
78.11
76.3489
74.8461
75.8366
76.676
78.6117
81.689
84.5527
87.1789
90.3742
93.7088
96.1614
98.0323
97.95
96.9765
95.1631
91.8205
87.7888
83.2576
78.1391
72.1077
65.5806
59.458
53.6251
47.886
42.3214
37.3998
54.327
54.2228
53.7001
53.2505
52.9658
52.8263
52.7916
52.8146
52.8559
52.8613
52.8312
52.7717
52.6868
52.5976
52.5149
52.4174
52.3181
52.2155
52.1241
52.0341
51.9563
51.8884
51.7997
51.7119
51.6318
51.5636
51.514
51.5199
51.5435
51.5953
51.6942
51.8721
52.1049
52.3947
52.779
53.1989
53.659
54.1521
54.6863
55.2186
55.721
56.183
56.6141
56.9945
57.2603
57.4194
57.4905
57.4909
57.3724
57.0883
56.7074
56.2912
55.7638
55.0295
54.0972
53.0173
51.6735
49.857
47.6486
45.3757
43.1941
41.01
38.9007
37.0662
35.8165
35.283
35.6299
36.9457
39.0912
42.0253
45.478
49.1697
52.8013
56.1419
59.0659
61.4739
63.4031
64.8795
65.8893
66.5126
67.0288
67.2558
67.3641
67.0494
66.3172
65.423
64.4804
63.3234
61.78
59.9256
57.9808
56.1316
54.5822