/*--------------------------------*- C++ -*----------------------------------*\
| =========                 |                                                 |
| \\      /  F ield         | OpenFOAM: The Open Source CFD Toolbox           |
|  \\    /   O peration     | Version:  2.4.0                                 |
|   \\  /    A nd           | Web:      www.OpenFOAM.org                      |
|    \\/     M anipulation  |                                                 |
\*---------------------------------------------------------------------------*/
FoamFile
{
    version     2.0;
    format      ascii;
    class       surfaceScalarField;
    location    "1.47";
    object      phi_0;
}
// * * * * * * * * * * * * * * * * * * * * * * * * * * * * * * * * * * * * * //

dimensions      [0 3 -1 0 0 0 0];

internalField   nonuniform List<scalar> 
17320
(
1.76168e-05
7.38316e-06
1.16495e-05
5.96737e-06
8.67134e-06
2.97813e-06
7.33697e-06
1.33437e-06
6.6884e-06
6.48561e-07
6.35893e-06
3.29476e-07
6.10361e-06
2.55322e-07
5.8042e-06
2.99408e-07
5.70296e-06
1.01239e-07
5.66343e-06
3.95342e-08
5.48654e-06
1.76889e-07
5.37961e-06
1.06929e-07
5.36644e-06
1.31648e-08
5.23334e-06
1.33104e-07
5.10629e-06
1.27045e-07
5.08979e-06
1.65051e-08
5.02925e-06
6.05347e-08
5.03181e-06
-2.55471e-09
4.68476e-06
3.4705e-07
-1.00155e-06
5.68631e-06
2.54085e-05
6.97469e-06
2.33146e-05
8.06125e-06
2.09599e-05
5.33282e-06
1.92868e-05
3.00742e-06
1.80249e-05
1.91054e-06
1.7139e-05
1.21535e-06
1.63433e-05
1.05098e-06
1.57004e-05
9.42375e-07
1.53178e-05
4.83816e-07
1.50105e-05
3.46794e-07
1.46322e-05
5.55245e-07
1.43842e-05
3.54862e-07
1.41973e-05
2.00077e-07
1.39463e-05
3.84148e-07
1.36781e-05
3.95228e-07
1.36173e-05
7.73487e-08
1.33843e-05
2.9349e-07
1.33554e-05
2.63239e-08
1.32047e-05
4.97768e-07
-1.22919e-06
1.34324e-05
2.65396e-05
5.43508e-06
2.72622e-05
7.33871e-06
2.67844e-05
5.81056e-06
2.62334e-05
3.55839e-06
2.55084e-05
2.63563e-06
2.48987e-05
1.82501e-06
2.40844e-05
1.86529e-06
2.33976e-05
1.62916e-06
2.29371e-05
9.44339e-07
2.25047e-05
7.79201e-07
2.20542e-05
1.00577e-06
2.17092e-05
6.99803e-07
2.13865e-05
5.2279e-07
2.10656e-05
7.05085e-07
2.07083e-05
7.52474e-07
2.05766e-05
2.09018e-07
2.03561e-05
5.1399e-07
2.01557e-05
2.26724e-07
2.02847e-05
3.68849e-07
-1.22775e-06
2.02832e-05
2.6278e-05
4.1571e-06
2.76527e-05
5.96402e-06
2.81724e-05
5.29081e-06
2.85132e-05
3.21763e-06
2.85086e-05
2.64016e-06
2.8601e-05
1.73264e-06
2.83646e-05
2.10174e-06
2.8011e-05
1.98272e-06
2.79011e-05
1.05426e-06
2.77126e-05
9.67718e-07
2.74949e-05
1.22347e-06
2.7257e-05
9.37672e-07
2.69781e-05
8.01651e-07
2.66626e-05
1.02059e-06
2.63312e-05
1.08388e-06
2.60952e-05
4.45082e-07
2.60345e-05
5.74614e-07
2.56665e-05
5.94807e-07
2.59584e-05
7.68557e-08
-7.6355e-07
2.54942e-05
2.61769e-05
2.98016e-06
2.74137e-05
4.72731e-06
2.81877e-05
4.51672e-06
2.87332e-05
2.67222e-06
2.911e-05
2.26332e-06
2.94041e-05
1.43858e-06
2.96137e-05
1.89208e-06
2.93968e-05
2.19961e-06
2.95259e-05
9.2518e-07
2.99023e-05
5.91308e-07
3.02292e-05
8.96618e-07
3.03057e-05
8.61189e-07
3.02567e-05
8.50637e-07
3.00732e-05
1.20409e-06
2.98573e-05
1.29971e-06
2.95013e-05
8.01074e-07
2.9639e-05
4.36925e-07
2.92533e-05
9.80506e-07
2.95553e-05
-2.25112e-07
-8.3538e-08
2.88753e-05
2.58805e-05
2.09967e-06
2.71292e-05
3.47856e-06
2.81493e-05
3.49668e-06
2.84774e-05
2.3441e-06
2.88294e-05
1.9113e-06
2.91853e-05
1.08267e-06
3.00007e-05
1.07669e-06
3.00351e-05
2.16522e-06
2.95547e-05
1.40564e-06
2.98318e-05
3.14127e-07
3.05591e-05
1.6935e-07
3.10076e-05
4.12749e-07
3.13837e-05
4.74523e-07
3.15195e-05
1.06827e-06
3.16047e-05
1.21448e-06
3.09415e-05
1.46428e-06
3.09847e-05
3.93718e-07
3.04075e-05
1.55773e-06
3.08362e-05
-6.53811e-07
8.54618e-07
2.9898e-05
2.54333e-05
1.66632e-06
2.68034e-05
2.10851e-06
2.80908e-05
2.2093e-06
2.829e-05
2.14485e-06
2.8131e-05
2.07034e-06
2.83882e-05
8.25405e-07
2.98135e-05
-3.48554e-07
3.06515e-05
1.32718e-06
2.98311e-05
2.22607e-06
2.93669e-05
7.78288e-07
2.97444e-05
-2.08082e-07
3.00657e-05
9.14592e-08
3.07644e-05
-2.24202e-07
3.14444e-05
3.88209e-07
3.21045e-05
5.54406e-07
3.16062e-05
1.9626e-06
3.14105e-05
5.8939e-07
3.06904e-05
2.27789e-06
3.05245e-05
-4.87911e-07
1.99303e-06
2.9386e-05
2.52329e-05
1.43341e-06
2.65622e-05
7.79222e-07
2.78137e-05
9.57835e-07
2.82747e-05
1.6838e-06
2.80154e-05
2.32963e-06
2.79986e-05
8.42249e-07
2.90573e-05
-1.40726e-06
3.03626e-05
2.18548e-08
3.03892e-05
2.1995e-06
2.98551e-05
1.31239e-06
2.95006e-05
1.46442e-07
2.92901e-05
3.01911e-07
2.98262e-05
-7.60339e-07
3.08192e-05
-6.04771e-07
3.16701e-05
-2.96459e-07
3.19466e-05
1.68614e-06
3.16245e-05
9.11472e-07
3.16359e-05
2.2665e-06
3.14018e-05
-2.53824e-07
1.21785e-06
3.2177e-05
2.54306e-05
1.0028e-06
2.64291e-05
-2.19228e-07
2.70483e-05
3.38567e-07
2.77463e-05
9.85785e-07
2.84781e-05
1.5979e-06
2.85521e-05
7.68245e-07
2.84489e-05
-1.30406e-06
2.92986e-05
-8.27917e-07
3.02962e-05
1.20195e-06
3.02321e-05
1.3765e-06
2.96072e-05
7.7131e-07
2.93213e-05
5.8783e-07
2.98786e-05
-1.31768e-06
3.0475e-05
-1.2011e-06
3.09255e-05
-7.46991e-07
3.1388e-05
1.22358e-06
3.14193e-05
8.80174e-07
3.19635e-05
1.72239e-06
3.15022e-05
2.07433e-07
5.80297e-07
3.21397e-05
2.57846e-05
2.18243e-07
2.5995e-05
-4.29618e-07
2.60257e-05
3.07791e-07
2.755e-05
-5.3851e-07
2.94444e-05
-2.96444e-07
2.91026e-05
1.11e-06
2.74656e-05
3.32997e-07
2.8004e-05
-1.36637e-06
2.99318e-05
-7.25786e-07
3.06127e-05
6.95584e-07
3.02448e-05
1.13914e-06
3.01272e-05
7.05436e-07
3.02011e-05
-1.39157e-06
2.94907e-05
-4.90707e-07
2.94776e-05
-7.33892e-07
3.02112e-05
4.90052e-07
3.11928e-05
-1.01463e-07
3.22968e-05
6.18403e-07
3.20778e-05
4.26453e-07
9.93059e-08
3.25588e-05
2.56962e-05
-4.78e-07
2.58867e-05
-6.2005e-07
2.6453e-05
-2.58574e-07
2.77689e-05
-1.85434e-06
2.90379e-05
-1.5655e-06
2.87112e-05
1.43671e-06
2.76987e-05
1.34553e-06
2.85737e-05
-2.24139e-06
3.02694e-05
-2.42147e-06
3.08109e-05
1.54106e-07
3.06168e-05
1.33324e-06
3.0595e-05
7.27174e-07
3.03191e-05
-1.11564e-06
2.93713e-05
4.57063e-07
2.95172e-05
-8.7976e-07
3.04212e-05
-4.13971e-07
3.14919e-05
-1.17213e-06
3.25377e-05
-4.27389e-07
3.24967e-05
4.67457e-07
-1.82753e-07
3.27787e-05
2.52941e-05
-7.72125e-07
2.63364e-05
-1.66233e-06
2.76324e-05
-1.55459e-06
2.77219e-05
-1.94383e-06
2.77138e-05
-1.55743e-06
2.81336e-05
1.01694e-06
2.90699e-05
4.09236e-07
3.0043e-05
-3.21447e-06
3.0229e-05
-2.60742e-06
2.98796e-05
5.03473e-07
3.00192e-05
1.19365e-06
3.03e-05
4.46344e-07
3.02047e-05
-1.02037e-06
3.02321e-05
4.29748e-07
3.08485e-05
-1.49621e-06
3.13348e-05
-9.00265e-07
3.15803e-05
-1.41762e-06
3.19989e-05
-8.45969e-07
3.2124e-05
3.42351e-07
-4.41563e-07
3.23828e-05
2.51948e-05
-9.66958e-07
2.68864e-05
-3.35386e-06
2.8009e-05
-2.67723e-06
2.75828e-05
-1.5176e-06
2.74809e-05
-1.45555e-06
2.841e-05
8.78566e-08
2.99922e-05
-1.17303e-06
3.01318e-05
-3.35402e-06
2.90024e-05
-1.478e-06
2.88135e-05
6.92341e-07
2.98312e-05
1.7592e-07
3.03158e-05
-3.82843e-08
3.00855e-05
-7.90021e-07
3.076e-05
-2.44711e-07
3.12677e-05
-2.00392e-06
3.11931e-05
-8.25736e-07
3.08026e-05
-1.02708e-06
3.10883e-05
-1.13162e-06
3.14955e-05
-6.48976e-08
-7.6446e-07
3.18184e-05
2.56627e-05
-1.62963e-06
2.71076e-05
-4.79875e-06
2.75765e-05
-3.1462e-06
2.77449e-05
-1.68597e-06
2.8328e-05
-2.03867e-06
2.89672e-05
-5.51335e-07
2.98702e-05
-2.07596e-06
2.95117e-05
-2.99554e-06
2.86455e-05
-6.11804e-07
2.91727e-05
1.65137e-07
3.02881e-05
-9.39535e-07
3.06086e-05
-3.5876e-07
3.04043e-05
-5.85752e-07
3.10856e-05
-9.2596e-07
3.11044e-05
-2.02275e-06
3.09011e-05
-6.22388e-07
3.06367e-05
-7.62722e-07
3.1086e-05
-1.58092e-06
3.15906e-05
-5.6952e-07
-1.07871e-06
3.19049e-05
2.60883e-05
-2.71791e-06
2.70197e-05
-5.73014e-06
2.74534e-05
-3.57989e-06
2.82137e-05
-2.44633e-06
2.89917e-05
-2.81664e-06
2.93992e-05
-9.5889e-07
2.97052e-05
-2.38195e-06
2.93075e-05
-2.59783e-06
2.91359e-05
-4.40184e-07
2.98042e-05
-5.03199e-07
3.04374e-05
-1.57267e-06
3.07323e-05
-6.53668e-07
3.07971e-05
-6.5054e-07
3.11782e-05
-1.30705e-06
3.0893e-05
-1.73762e-06
3.07684e-05
-4.97774e-07
3.06954e-05
-6.89653e-07
3.10013e-05
-1.88688e-06
3.13252e-05
-8.9344e-07
-1.2919e-06
3.15384e-05
2.6187e-05
-3.90492e-06
2.7044e-05
-6.58716e-06
2.80235e-05
-4.5594e-06
2.89067e-05
-3.32951e-06
2.91509e-05
-3.0608e-06
2.94629e-05
-1.27087e-06
2.95085e-05
-2.42755e-06
2.92552e-05
-2.34455e-06
2.94228e-05
-6.07828e-07
2.97874e-05
-8.67808e-07
2.99616e-05
-1.74687e-06
3.01003e-05
-7.92317e-07
3.00488e-05
-5.99115e-07
2.99779e-05
-1.23612e-06
2.96077e-05
-1.36737e-06
2.95214e-05
-4.11521e-07
2.94246e-05
-5.92831e-07
2.93383e-05
-1.80056e-06
2.93806e-05
-9.35758e-07
-1.34681e-06
2.94355e-05
2.63359e-05
-5.24082e-06
2.74367e-05
-7.68795e-06
2.8351e-05
-5.47369e-06
2.87124e-05
-3.69091e-06
2.85228e-05
-2.87121e-06
2.87266e-05
-1.47467e-06
2.83157e-05
-2.01665e-06
2.78892e-05
-1.91801e-06
2.79119e-05
-6.3058e-07
2.77392e-05
-6.95127e-07
2.73741e-05
-1.38177e-06
2.72003e-05
-6.1848e-07
2.69452e-05
-3.44016e-07
2.65775e-05
-8.68484e-07
2.61555e-05
-9.45336e-07
2.60256e-05
-2.81632e-07
2.58191e-05
-3.86267e-07
2.53602e-05
-1.34169e-06
2.52199e-05
-7.95505e-07
-1.20759e-06
2.50807e-05
2.66221e-05
-6.86288e-06
2.71701e-05
-8.23598e-06
2.69191e-05
-5.22268e-06
2.62634e-05
-3.03527e-06
2.54421e-05
-2.04989e-06
2.49919e-05
-1.02446e-06
2.40554e-05
-1.08014e-06
2.32865e-05
-1.14907e-06
2.29793e-05
-3.23397e-07
2.25277e-05
-2.43502e-07
2.19412e-05
-7.95359e-07
2.16515e-05
-3.28732e-07
2.13855e-05
-7.80107e-08
2.09739e-05
-4.56906e-07
2.05777e-05
-5.49104e-07
2.04335e-05
-1.37483e-07
2.02058e-05
-1.58567e-07
1.96456e-05
-7.81516e-07
1.93426e-05
-4.92455e-07
-3.73299e-07
1.85083e-05
2.54801e-05
-7.34298e-06
2.32698e-05
-6.02572e-06
2.10126e-05
-2.96549e-06
1.92859e-05
-1.30849e-06
1.79548e-05
-7.18847e-07
1.71922e-05
-2.61816e-07
1.63447e-05
-2.32607e-07
1.56025e-05
-4.06899e-07
1.53316e-05
-5.25396e-08
1.50499e-05
3.81811e-08
1.45424e-05
-2.87836e-07
1.43241e-05
-1.1036e-07
1.42005e-05
4.55081e-08
1.38845e-05
-1.40868e-07
1.35555e-05
-2.20128e-07
1.34508e-05
-3.27802e-08
1.32927e-05
-4.88497e-10
1.28132e-05
-3.02021e-07
1.25548e-05
-2.34004e-07
-1.63978e-08
1.21979e-05
1.7657e-05
1.16313e-05
8.66581e-06
7.35731e-06
6.63847e-06
6.37665e-06
6.14404e-06
5.73714e-06
5.68461e-06
5.72279e-06
5.43495e-06
5.32459e-06
5.3701e-06
5.22923e-06
5.0091e-06
4.97632e-06
4.97583e-06
4.67381e-06
4.43981e-06
4.42341e-06
6.06543e-06
-2.82943e-07
-9.61764e-08
6.26742e-06
-3.78962e-08
-1.64098e-07
6.34548e-06
5.21841e-08
-1.30243e-07
6.49887e-06
7.522e-08
-2.28605e-07
6.69576e-06
-5.24419e-09
-1.91648e-07
6.95555e-06
-2.1295e-08
-2.38499e-07
7.20804e-06
-7.99206e-08
-1.7257e-07
7.44398e-06
-8.11048e-08
-1.54827e-07
7.63785e-06
-1.42283e-07
-5.15869e-08
7.80099e-06
-1.15451e-07
-4.76899e-08
7.91571e-06
-1.55438e-07
4.07122e-08
8.00522e-06
-1.14625e-07
2.51223e-08
8.08025e-06
-1.42036e-07
6.7003e-08
8.16917e-06
-4.50302e-08
-4.38919e-08
8.27949e-06
-2.12749e-08
-8.90445e-08
8.41819e-06
1.46868e-07
-2.85572e-07
8.59944e-06
2.20757e-07
-4.02008e-07
8.8554e-06
4.24361e-07
-6.80312e-07
9.17702e-06
5.31549e-07
-8.53178e-07
9.58008e-06
7.65238e-07
-1.1683e-06
1.00448e-05
8.42884e-07
-1.30763e-06
1.05938e-05
9.76995e-07
-1.52592e-06
1.11692e-05
9.11197e-07
-1.48667e-06
1.18028e-05
8.6354e-07
-1.49716e-06
1.24323e-05
4.91095e-07
-1.12059e-06
1.30763e-05
1.29449e-07
-7.73396e-07
1.36126e-05
-5.02423e-07
-3.38616e-08
1.40929e-05
-1.17542e-06
6.95108e-07
1.44482e-05
-2.05585e-06
1.70057e-06
1.47015e-05
-2.606e-06
2.35272e-06
1.47702e-05
-3.24523e-06
3.17651e-06
1.48903e-05
-3.81637e-06
3.69626e-06
1.50396e-05
-4.45377e-06
4.30446e-06
1.52457e-05
-4.33077e-06
4.12465e-06
1.52847e-05
-4.01669e-06
3.97768e-06
1.51145e-05
-3.51482e-06
3.68505e-06
1.45326e-05
-3.38823e-06
3.97014e-06
1.3522e-05
-2.87e-06
3.88056e-06
1.23744e-05
-2.50234e-06
3.64999e-06
1.16449e-05
-1.83454e-06
2.564e-06
1.17282e-05
-1.47275e-06
1.38946e-06
1.2376e-05
-2.1528e-07
-4.32537e-07
1.32926e-05
1.17281e-06
-2.0894e-06
1.41424e-05
3.25134e-06
-4.10112e-06
1.49024e-05
5.04033e-06
-5.80035e-06
1.57442e-05
7.0538e-06
-7.89565e-06
1.66654e-05
8.68333e-06
-9.60448e-06
1.76582e-05
1.03042e-05
-1.1297e-05
1.86681e-05
1.10342e-05
-1.20441e-05
1.95434e-05
1.12878e-05
-1.2163e-05
2.02743e-05
1.03558e-05
-1.10867e-05
2.08093e-05
9.21441e-06
-9.74944e-06
2.13302e-05
7.03025e-06
-7.55107e-06
2.17982e-05
5.10085e-06
-5.56891e-06
2.23439e-05
2.48582e-06
-3.03149e-06
2.27815e-05
7.7829e-07
-1.21593e-06
2.31853e-05
-1.95451e-06
1.55072e-06
2.34068e-05
-4.14461e-06
3.92315e-06
2.35608e-05
-7.25766e-06
7.10367e-06
2.35246e-05
-8.95658e-06
8.99278e-06
2.34361e-05
-1.07339e-05
1.08224e-05
2.32468e-05
-1.12905e-05
1.14798e-05
2.31434e-05
-1.28267e-05
1.29301e-05
2.30271e-05
-1.37218e-05
1.38381e-05
2.29271e-05
-1.49254e-05
1.50254e-05
2.25805e-05
-1.44548e-05
1.48014e-05
2.21641e-05
-1.3524e-05
1.39404e-05
2.16022e-05
-1.11556e-05
1.17175e-05
2.12904e-05
-9.33864e-06
9.65043e-06
2.10476e-05
-6.63311e-06
6.87591e-06
2.11028e-05
-4.39968e-06
4.34443e-06
2.12476e-05
-1.61323e-06
1.4685e-06
2.18736e-05
4.30037e-07
-1.05605e-06
2.24928e-05
3.10847e-06
-3.72773e-06
2.31309e-05
4.86246e-06
-5.50053e-06
2.34411e-05
6.70435e-06
-7.01453e-06
2.40114e-05
6.86675e-06
-7.43707e-06
2.44113e-05
7.48519e-06
-7.88506e-06
2.48667e-05
7.00264e-06
-7.45811e-06
2.53776e-05
6.59211e-06
-7.10298e-06
2.6191e-05
4.74198e-06
-5.5554e-06
2.67186e-05
3.82529e-06
-4.35281e-06
2.71384e-05
1.62003e-06
-2.03986e-06
2.75619e-05
-3.24939e-07
-9.85594e-08
2.79204e-05
-2.80695e-06
2.4484e-06
2.80047e-05
-4.35135e-06
4.26708e-06
2.79677e-05
-6.46959e-06
6.5066e-06
2.73257e-05
-7.29559e-06
7.93755e-06
2.64694e-05
-8.48975e-06
9.34605e-06
2.57883e-05
-9.02917e-06
9.71027e-06
2.48054e-05
-8.85439e-06
9.83737e-06
2.32563e-05
-8.27382e-06
9.82285e-06
2.21926e-05
-8.21124e-06
9.27502e-06
2.12295e-05
-7.33794e-06
8.30104e-06
2.00273e-05
-6.49629e-06
7.69843e-06
1.88737e-05
-5.99834e-06
7.15197e-06
1.78575e-05
-5.63523e-06
6.65143e-06
1.71442e-05
-4.70913e-06
5.42236e-06
1.60347e-05
-3.25424e-06
4.36383e-06
1.4655e-05
-2.10142e-06
3.48109e-06
1.33838e-05
-1.31269e-06
2.58388e-06
1.23258e-05
-5.70054e-07
1.62805e-06
1.07714e-05
5.89538e-07
9.64894e-07
9.25619e-06
1.19366e-06
3.21523e-07
7.98458e-06
2.07263e-06
-8.01016e-07
7.32072e-06
3.23343e-06
-2.56957e-06
6.8876e-06
5.22698e-06
-4.79385e-06
6.74069e-06
7.06831e-06
-6.92141e-06
6.69892e-06
8.82084e-06
-8.77906e-06
6.7858e-06
9.62826e-06
-9.71514e-06
7.05973e-06
1.01999e-05
-1.04738e-05
7.62806e-06
1.05755e-05
-1.11438e-05
8.44604e-06
1.07898e-05
-1.16078e-05
9.24984e-06
1.06857e-05
-1.14895e-05
1.04178e-05
1.01511e-05
-1.13191e-05
1.13632e-05
9.76448e-06
-1.07098e-05
1.26312e-05
8.60905e-06
-9.87714e-06
1.36691e-05
7.65864e-06
-8.69648e-06
1.49861e-05
6.15826e-06
-7.47531e-06
1.58541e-05
5.11513e-06
-5.98308e-06
1.71142e-05
3.15623e-06
-4.41631e-06
1.80095e-05
2.05275e-06
-2.94808e-06
1.90552e-05
-1.98897e-08
-1.02582e-06
2.00221e-05
-1.3025e-06
3.35616e-07
2.0983e-05
-3.28095e-06
2.32007e-06
2.17005e-05
-4.23324e-06
3.51568e-06
2.2516e-05
-5.75071e-06
4.93523e-06
2.29926e-05
-6.40649e-06
5.9299e-06
2.38051e-05
-7.77155e-06
6.95903e-06
2.45169e-05
-8.35318e-06
7.64139e-06
2.56145e-05
-1.01052e-05
9.00761e-06
2.69134e-05
-1.06103e-05
9.31143e-06
2.83464e-05
-1.23525e-05
1.09196e-05
2.99642e-05
-1.28421e-05
1.12243e-05
3.14615e-05
-1.43231e-05
1.28259e-05
3.28576e-05
-1.53729e-05
1.39768e-05
3.40155e-05
-1.59879e-05
1.483e-05
3.50162e-05
-1.67712e-05
1.57705e-05
3.56535e-05
-1.67965e-05
1.61592e-05
3.6089e-05
-1.68139e-05
1.63784e-05
3.62125e-05
-1.66171e-05
1.64936e-05
3.60596e-05
-1.55692e-05
1.57221e-05
3.59109e-05
-1.48946e-05
1.50434e-05
3.53646e-05
-1.36605e-05
1.42068e-05
3.50062e-05
-1.31515e-05
1.35099e-05
3.43545e-05
-1.21954e-05
1.28471e-05
3.39822e-05
-1.12638e-05
1.16361e-05
3.369e-05
-9.94174e-06
1.02339e-05
3.36105e-05
-9.00064e-06
9.0801e-06
3.37927e-05
-8.33943e-06
8.15725e-06
3.38275e-05
-8.11393e-06
8.07913e-06
3.36948e-05
-8.14489e-06
8.27763e-06
3.30931e-05
-7.09878e-06
7.70048e-06
3.24163e-05
-6.25562e-06
6.93236e-06
3.16125e-05
-4.11155e-06
4.91538e-06
3.09418e-05
-2.99588e-06
3.66654e-06
2.9802e-05
-1.49646e-06
2.63626e-06
2.86925e-05
1.30322e-07
9.79186e-07
2.76947e-05
5.1491e-08
9.46282e-07
2.68397e-05
6.54419e-07
2.00654e-07
2.58574e-05
1.32787e-06
-3.45631e-07
2.50588e-05
4.62041e-07
3.36594e-07
2.40962e-05
9.90387e-07
-2.77848e-08
2.32098e-05
1.23047e-06
-3.44041e-07
2.25973e-05
7.90007e-07
-1.77545e-07
2.19365e-05
7.93386e-07
-1.32575e-07
2.14166e-05
1.17568e-06
-6.55811e-07
2.12688e-05
-1.0765e-07
2.55461e-07
2.08847e-05
-1.48348e-06
1.8676e-06
1.98538e-05
-2.0421e-06
3.07299e-06
1.88959e-05
-2.93619e-06
3.8941e-06
1.87806e-05
-4.25829e-06
4.37353e-06
1.8952e-05
-5.2711e-06
5.09974e-06
1.91425e-05
-5.85128e-06
5.66078e-06
1.87586e-05
-6.07177e-06
6.45568e-06
1.82258e-05
-5.73155e-06
6.26437e-06
1.76599e-05
-5.06045e-06
5.62632e-06
1.75486e-05
-4.15362e-06
4.26495e-06
1.70634e-05
-2.74622e-06
3.23142e-06
1.69309e-05
-1.30265e-06
1.43513e-06
1.62129e-05
1.68025e-06
-9.62251e-07
1.55265e-05
4.73756e-06
-4.05117e-06
1.41893e-05
9.29237e-06
-7.95511e-06
1.27305e-05
1.37647e-05
-1.2306e-05
1.25719e-05
1.91656e-05
-1.9007e-05
1.25304e-05
2.29278e-05
-2.28863e-05
1.22939e-05
2.45063e-05
-2.42698e-05
1.25311e-05
2.68333e-05
-2.70705e-05
1.27212e-05
2.95461e-05
-2.97362e-05
1.20148e-05
3.30599e-05
-3.23535e-05
1.15694e-05
3.19549e-05
-3.15095e-05
1.11251e-05
2.94831e-05
-2.90388e-05
1.10062e-05
2.62932e-05
-2.61744e-05
1.0026e-05
2.31732e-05
-2.21929e-05
8.9639e-06
1.99939e-05
-1.89318e-05
8.3653e-06
1.44122e-05
-1.38136e-05
7.94481e-06
1.00094e-05
-9.58893e-06
8.09258e-06
9.47153e-06
-9.6193e-06
8.33534e-06
1.32149e-05
-1.34577e-05
2.18448e-05
-2.167e-05
8.16059e-06
1.3494e-05
-3.44596e-07
1.35125e-05
-5.63755e-08
1.35108e-05
5.38398e-08
1.35325e-05
5.35866e-08
1.35946e-05
-6.7391e-08
1.37172e-05
-1.43893e-07
1.38575e-05
-2.20204e-07
1.39897e-05
-2.13327e-07
1.40899e-05
-2.4243e-07
1.41753e-05
-2.00932e-07
1.42334e-05
-2.13517e-07
1.42862e-05
-1.67449e-07
1.43213e-05
-1.77076e-07
1.43764e-05
-1.00142e-07
1.44317e-05
-7.65676e-08
1.45329e-05
4.56495e-08
1.46381e-05
1.15579e-07
1.48045e-05
2.57922e-07
1.50167e-05
3.19381e-07
1.53134e-05
4.68519e-07
1.5666e-05
4.90285e-07
1.61318e-05
5.1119e-07
1.66362e-05
4.06756e-07
1.71976e-05
3.022e-07
1.77887e-05
-1.00013e-07
1.84012e-05
-4.83052e-07
1.89101e-05
-1.01133e-06
1.93641e-05
-1.6294e-06
1.97224e-05
-2.4142e-06
2.0001e-05
-2.88456e-06
2.02089e-05
-3.45319e-06
2.03424e-05
-3.9498e-06
2.01744e-05
-4.28576e-06
1.97832e-05
-3.93963e-06
1.93533e-05
-3.58679e-06
1.92063e-05
-3.36777e-06
1.92572e-05
-3.43915e-06
1.91755e-05
-2.78827e-06
1.84366e-05
-1.76341e-06
1.71292e-05
-5.27139e-07
1.55685e-05
8.79004e-08
1.47044e-05
6.48843e-07
1.48183e-05
1.05885e-06
1.56921e-05
2.37757e-06
1.68518e-05
3.88062e-06
1.79375e-05
5.96817e-06
1.90245e-05
7.59631e-06
2.01238e-05
9.20491e-06
2.13331e-05
9.82485e-06
2.23363e-05
1.02845e-05
2.32319e-05
9.46023e-06
2.39241e-05
8.5222e-06
2.45614e-05
6.39303e-06
2.50948e-05
4.56742e-06
2.56861e-05
1.89455e-06
2.61921e-05
2.72288e-07
2.66644e-05
-2.42682e-06
2.70104e-05
-4.49068e-06
2.71114e-05
-7.35867e-06
2.68157e-05
-8.66082e-06
2.65133e-05
-1.04316e-05
2.62626e-05
-1.10397e-05
2.62376e-05
-1.28016e-05
2.61598e-05
-1.3644e-05
2.58419e-05
-1.46075e-05
2.51387e-05
-1.37516e-05
2.45072e-05
-1.28924e-05
2.37329e-05
-1.03813e-05
2.31437e-05
-8.74942e-06
2.26006e-05
-6.08997e-06
2.25457e-05
-4.34475e-06
2.25397e-05
-1.60732e-06
2.29634e-05
6.33004e-09
2.34549e-05
2.61699e-06
2.43622e-05
3.95522e-06
2.52869e-05
5.77959e-06
2.63216e-05
5.83203e-06
2.69955e-05
6.81138e-06
2.78093e-05
6.18879e-06
2.84973e-05
5.90408e-06
2.90123e-05
4.22699e-06
2.95321e-05
3.30553e-06
3.0019e-05
1.1331e-06
2.99809e-05
-2.86824e-07
3.01534e-05
-2.97942e-06
2.99559e-05
-4.15385e-06
2.95002e-05
-6.01397e-06
2.90919e-05
-6.88724e-06
2.83802e-05
-7.77806e-06
2.67556e-05
-7.4046e-06
2.57003e-05
-7.79903e-06
2.47413e-05
-7.31488e-06
2.36669e-05
-7.13677e-06
2.26438e-05
-6.31492e-06
2.17536e-05
-5.60601e-06
2.06238e-05
-4.86857e-06
1.95214e-05
-4.53283e-06
1.84866e-05
-3.67434e-06
1.77586e-05
-2.52619e-06
1.67921e-05
-1.13492e-06
1.55334e-05
-5.40378e-08
1.42642e-05
6.99194e-07
1.33144e-05
1.53933e-06
1.21266e-05
2.38144e-06
1.08576e-05
3.34165e-06
9.86111e-06
4.22987e-06
9.5902e-06
5.49789e-06
9.70463e-06
6.95388e-06
1.01333e-05
8.39217e-06
1.02789e-05
9.48269e-06
1.06477e-05
9.83109e-06
1.09617e-05
1.02614e-05
1.17781e-05
9.97351e-06
1.23062e-05
1.01576e-05
1.33834e-05
9.07391e-06
1.42973e-05
8.85062e-06
1.54808e-05
7.42556e-06
1.63418e-05
6.79764e-06
1.76624e-05
4.8376e-06
1.85064e-05
4.27116e-06
1.96005e-05
2.06214e-06
2.04813e-05
1.17192e-06
2.16307e-05
-1.16929e-06
2.24645e-05
-2.13631e-06
2.339e-05
-4.2064e-06
2.38953e-05
-4.73855e-06
2.46426e-05
-6.49803e-06
2.49971e-05
-6.76103e-06
2.57406e-05
-8.51503e-06
2.65834e-05
-9.19598e-06
2.77163e-05
-1.12381e-05
2.9189e-05
-1.2083e-05
3.05803e-05
-1.37438e-05
3.2172e-05
-1.44338e-05
3.36711e-05
-1.58223e-05
3.47908e-05
-1.64926e-05
3.58635e-05
-1.70606e-05
3.64559e-05
-1.73636e-05
3.69821e-05
-1.73227e-05
3.73385e-05
-1.71703e-05
3.7247e-05
-1.65257e-05
3.7222e-05
-1.55442e-05
3.69108e-05
-1.45834e-05
3.65543e-05
-1.3304e-05
3.61362e-05
-1.27334e-05
3.53138e-05
-1.1373e-05
3.47343e-05
-1.06843e-05
3.41566e-05
-9.36408e-06
3.40986e-05
-8.94263e-06
3.40658e-05
-8.30662e-06
3.41044e-05
-8.15246e-06
3.36052e-05
-7.64571e-06
3.28144e-05
-6.308e-06
3.19733e-05
-5.41454e-06
3.15974e-05
-3.73564e-06
3.08975e-05
-2.29601e-06
3.01347e-05
-7.33618e-07
2.92081e-05
1.05694e-06
2.82055e-05
1.05411e-06
2.71148e-05
1.74504e-06
2.64904e-05
1.95231e-06
2.52242e-05
1.7282e-06
2.39527e-05
2.26196e-06
2.2884e-05
2.29913e-06
2.20336e-05
1.64039e-06
2.09725e-05
1.85451e-06
2.04977e-05
1.65052e-06
1.99747e-05
4.1535e-07
1.91703e-05
-6.79117e-07
1.82363e-05
-1.10807e-06
1.75974e-05
-2.2973e-06
1.72112e-05
-3.87214e-06
1.68985e-05
-4.95831e-06
1.66866e-05
-5.63939e-06
1.63633e-05
-5.74845e-06
1.60698e-05
-5.43807e-06
1.58001e-05
-4.7908e-06
1.58634e-05
-4.21695e-06
1.59143e-05
-2.79708e-06
1.60236e-05
-1.4119e-06
1.59801e-05
1.72369e-06
1.53131e-05
5.40459e-06
1.46289e-05
9.9766e-06
1.3091e-05
1.53026e-05
1.29297e-05
1.9327e-05
1.33676e-05
2.24898e-05
1.2742e-05
2.51319e-05
1.16615e-05
2.79138e-05
1.14166e-05
2.9791e-05
1.16286e-05
3.2848e-05
1.1564e-05
3.20195e-05
1.07346e-05
3.03125e-05
1.08899e-05
2.61379e-05
1.13661e-05
2.2697e-05
1.07184e-05
2.06416e-05
9.92201e-06
1.52085e-05
8.68594e-06
1.12455e-05
9.18085e-06
8.97662e-06
1.28749e-05
9.52084e-06
2.21115e-05
1.26081e-05
2.01172e-05
-1.78558e-07
2.00643e-05
-3.44871e-09
2.00645e-05
5.36162e-08
2.01201e-05
-2.02791e-09
2.02011e-05
-1.48405e-07
2.03057e-05
-2.48454e-07
2.03901e-05
-3.04609e-07
2.04788e-05
-3.02085e-07
2.05352e-05
-2.9879e-07
2.05915e-05
-2.57191e-07
2.06148e-05
-2.36855e-07
2.06574e-05
-2.10081e-07
2.06768e-05
-1.96473e-07
2.07079e-05
-1.31231e-07
2.07419e-05
-1.10518e-07
2.08246e-05
-3.70775e-08
2.08995e-05
4.06619e-08
2.10415e-05
1.15887e-07
2.12206e-05
1.40373e-07
2.14676e-05
2.21516e-07
2.17363e-05
2.21563e-07
2.21137e-05
1.33733e-07
2.25117e-05
8.78359e-09
2.29415e-05
-1.2763e-07
2.33837e-05
-5.4216e-07
2.38484e-05
-9.47767e-07
2.42433e-05
-1.40625e-06
2.45604e-05
-1.94651e-06
2.47824e-05
-2.63613e-06
2.49529e-05
-3.05515e-06
2.49769e-05
-3.47715e-06
2.48204e-05
-3.79328e-06
2.45518e-05
-4.01717e-06
2.43596e-05
-3.74739e-06
2.43304e-05
-3.5576e-06
2.41945e-05
-3.23191e-06
2.3583e-05
-2.82767e-06
2.26468e-05
-1.85209e-06
2.19412e-05
-1.05782e-06
2.15917e-05
-1.77564e-07
2.10571e-05
6.22466e-07
1.96466e-05
2.05936e-06
1.81111e-05
2.59437e-06
1.75054e-05
2.98324e-06
1.82205e-05
3.16556e-06
1.94967e-05
4.69188e-06
2.11824e-05
5.91067e-06
2.27325e-05
7.65479e-06
2.40983e-05
8.45904e-06
2.52369e-05
9.14594e-06
2.63094e-05
8.38771e-06
2.72455e-05
7.5861e-06
2.80446e-05
5.59401e-06
2.86802e-05
3.9318e-06
2.91643e-05
1.41039e-06
2.9674e-05
-2.37336e-07
3.0031e-05
-2.78385e-06
3.01239e-05
-4.58362e-06
2.99918e-05
-7.2265e-06
2.9618e-05
-8.28709e-06
2.92947e-05
-1.01082e-05
2.92121e-05
-1.09571e-05
2.91309e-05
-1.27205e-05
2.8787e-05
-1.33001e-05
2.83038e-05
-1.41243e-05
2.73985e-05
-1.28463e-05
2.63727e-05
-1.18667e-05
2.53946e-05
-9.40324e-06
2.46038e-05
-7.95858e-06
2.38135e-05
-5.29966e-06
2.35122e-05
-4.04342e-06
2.34899e-05
-1.58502e-06
2.38919e-05
-3.95662e-07
2.43801e-05
2.12876e-06
2.5175e-05
3.16033e-06
2.60702e-05
4.88432e-06
2.70092e-05
4.89312e-06
2.78678e-05
5.95269e-06
2.89898e-05
5.06685e-06
2.97422e-05
5.1517e-06
3.04927e-05
3.47646e-06
3.08802e-05
2.91801e-06
3.13913e-05
6.21987e-07
3.1497e-05
-3.92495e-07
3.1585e-05
-3.06745e-06
3.12474e-05
-3.81627e-06
3.08617e-05
-5.62823e-06
2.97026e-05
-5.7281e-06
2.91107e-05
-7.1862e-06
2.82329e-05
-6.52685e-06
2.74396e-05
-7.00569e-06
2.63021e-05
-6.17742e-06
2.52833e-05
-6.11796e-06
2.4084e-05
-5.11558e-06
2.34443e-05
-4.9663e-06
2.21631e-05
-3.58739e-06
2.10398e-05
-3.4095e-06
1.99793e-05
-2.6139e-06
1.93194e-05
-1.86622e-06
1.82547e-05
-7.02973e-08
1.73829e-05
8.17812e-07
1.6243e-05
1.83905e-06
1.5376e-05
2.40637e-06
1.42472e-05
3.5102e-06
1.34077e-05
4.18122e-06
1.23379e-05
5.29962e-06
1.19441e-05
5.89173e-06
1.17438e-05
7.15415e-06
1.23171e-05
7.81891e-06
1.26964e-05
9.10342e-06
1.35479e-05
8.97951e-06
1.39233e-05
9.88606e-06
1.48514e-05
9.04544e-06
1.55434e-05
9.4655e-06
1.65238e-05
8.09353e-06
1.72601e-05
8.11434e-06
1.84205e-05
6.26521e-06
1.9197e-05
6.02115e-06
2.01853e-05
3.84928e-06
2.10765e-05
3.37991e-06
2.2106e-05
1.03265e-06
2.2943e-05
3.34951e-07
2.38788e-05
-2.10514e-06
2.46066e-05
-2.86404e-06
2.53419e-05
-4.94168e-06
2.57945e-05
-5.19115e-06
2.64135e-05
-7.11711e-06
2.69543e-05
-7.3018e-06
2.79041e-05
-9.46483e-06
2.89359e-05
-1.02278e-05
3.019e-05
-1.24922e-05
3.15313e-05
-1.34243e-05
3.28202e-05
-1.50327e-05
3.42219e-05
-1.58355e-05
3.52979e-05
-1.68983e-05
3.6128e-05
-1.73227e-05
3.69166e-05
-1.78492e-05
3.73163e-05
-1.77633e-05
3.78602e-05
-1.78666e-05
3.79932e-05
-1.73033e-05
3.80338e-05
-1.65663e-05
3.7926e-05
-1.54363e-05
3.75461e-05
-1.42035e-05
3.72843e-05
-1.30422e-05
3.66928e-05
-1.21419e-05
3.59983e-05
-1.06785e-05
3.52695e-05
-9.95551e-06
3.47241e-05
-8.81876e-06
3.44165e-05
-8.63497e-06
3.42183e-05
-8.10848e-06
3.37259e-05
-7.65998e-06
3.28639e-05
-6.78378e-06
3.23029e-05
-5.747e-06
3.15667e-05
-4.6783e-06
3.10886e-05
-3.25755e-06
3.03702e-05
-1.57765e-06
3.01322e-05
-4.95589e-07
2.97238e-05
1.46539e-06
2.89426e-05
1.83526e-06
2.76773e-05
3.01034e-06
2.67608e-05
2.86881e-06
2.55247e-05
2.96428e-06
2.41026e-05
3.68409e-06
2.27754e-05
3.62635e-06
2.13421e-05
3.07368e-06
2.00829e-05
3.11366e-06
1.93825e-05
2.35091e-06
1.85418e-05
1.25604e-06
1.7408e-05
4.54677e-07
1.66073e-05
-3.07306e-07
1.618e-05
-1.86998e-06
1.55623e-05
-3.25451e-06
1.49006e-05
-4.2966e-06
1.45337e-05
-5.27248e-06
1.45648e-05
-5.77956e-06
1.46359e-05
-5.50913e-06
1.47099e-05
-4.86482e-06
1.4692e-05
-4.19909e-06
1.50014e-05
-3.10644e-06
1.51044e-05
-1.51489e-06
1.52845e-05
1.54354e-06
1.51193e-05
5.56984e-06
1.47268e-05
1.0369e-05
1.41278e-05
1.59016e-05
1.36957e-05
1.97591e-05
1.38188e-05
2.23666e-05
1.35671e-05
2.53836e-05
1.22966e-05
2.91844e-05
1.06663e-05
3.14212e-05
1.07902e-05
3.27241e-05
1.152e-05
3.12898e-05
1.12378e-05
3.05946e-05
1.06642e-05
2.67115e-05
1.1106e-05
2.22551e-05
1.14617e-05
2.02859e-05
1.15545e-05
1.51157e-05
1.06557e-05
1.21443e-05
9.24829e-06
1.03841e-05
1.21498e-05
6.61932e-06
1.99142e-05
1.43471e-05
2.54279e-05
-1.12176e-07
2.5462e-05
-3.76345e-08
2.55802e-05
-6.45753e-08
2.57345e-05
-1.56264e-07
2.5847e-05
-2.60915e-07
2.59471e-05
-3.48561e-07
2.60041e-05
-3.61655e-07
2.60467e-05
-3.44636e-07
2.60767e-05
-3.28762e-07
2.61134e-05
-2.93925e-07
2.61217e-05
-2.4514e-07
2.61514e-05
-2.3981e-07
2.61877e-05
-2.32751e-07
2.62188e-05
-1.62378e-07
2.62521e-05
-1.43744e-07
2.63236e-05
-1.0862e-07
2.64008e-05
-3.65677e-08
2.65013e-05
1.54513e-08
2.66497e-05
-8.09395e-09
2.68536e-05
1.7643e-08
2.70552e-05
1.99274e-08
2.73203e-05
-1.31351e-07
2.76478e-05
-3.18676e-07
2.79739e-05
-4.53727e-07
2.82511e-05
-8.19341e-07
2.85423e-05
-1.23902e-06
2.8816e-05
-1.67992e-06
2.89417e-05
-2.07217e-06
2.89541e-05
-2.64858e-06
2.89445e-05
-3.0455e-06
2.88039e-05
-3.33662e-06
2.84673e-05
-3.4567e-06
2.81934e-05
-3.74325e-06
2.78987e-05
-3.45271e-06
2.7369e-05
-3.02783e-06
2.67068e-05
-2.56978e-06
2.62834e-05
-2.40424e-06
2.58227e-05
-1.39141e-06
2.53413e-05
-5.76346e-07
2.47624e-05
4.01307e-07
2.44248e-05
9.60055e-07
2.4025e-05
2.45918e-06
2.34358e-05
3.18353e-06
2.2428e-05
3.99102e-06
2.15232e-05
4.07041e-06
2.12732e-05
4.94186e-06
2.20231e-05
5.16079e-06
2.34881e-05
6.18982e-06
2.52376e-05
6.70948e-06
2.69632e-05
7.42038e-06
2.84239e-05
6.92696e-06
2.95732e-05
6.43678e-06
3.05744e-05
4.5928e-06
3.12714e-05
3.23482e-06
3.17385e-05
9.43325e-07
3.21434e-05
-6.42297e-07
3.24161e-05
-3.05651e-06
3.23176e-05
-4.48514e-06
3.20621e-05
-6.97096e-06
3.18875e-05
-8.11254e-06
3.17284e-05
-9.94909e-06
3.1603e-05
-1.08318e-05
3.16314e-05
-1.27489e-05
3.1153e-05
-1.28218e-05
3.01644e-05
-1.31357e-05
2.89403e-05
-1.16222e-05
2.76668e-05
-1.05931e-05
2.64552e-05
-8.19168e-06
2.56447e-05
-7.14805e-06
2.49834e-05
-4.63842e-06
2.45581e-05
-3.61806e-06
2.43142e-05
-1.34113e-06
2.44648e-05
-5.46252e-07
2.48011e-05
1.79243e-06
2.56341e-05
2.32731e-06
2.62911e-05
4.22736e-06
2.71134e-05
4.07081e-06
2.77396e-05
5.32655e-06
2.87436e-05
4.06286e-06
2.94522e-05
4.44303e-06
3.05973e-05
2.33137e-06
3.101e-05
2.50537e-06
3.14257e-05
2.06275e-07
3.15151e-05
-4.81905e-07
3.14735e-05
-3.02582e-06
3.09259e-05
-3.2687e-06
3.08579e-05
-5.56026e-06
3.01702e-05
-5.04038e-06
2.93309e-05
-6.34694e-06
2.8419e-05
-5.61492e-06
2.76476e-05
-6.23431e-06
2.66759e-05
-5.20568e-06
2.64015e-05
-5.84356e-06
2.56411e-05
-4.35518e-06
2.48562e-05
-4.18145e-06
2.39958e-05
-2.72699e-06
2.30552e-05
-2.4689e-06
2.1645e-05
-1.20366e-06
2.083e-05
-1.05122e-06
2.0065e-05
6.94662e-07
1.93605e-05
1.52237e-06
1.83223e-05
2.87719e-06
1.76907e-05
3.03805e-06
1.69379e-05
4.26294e-06
1.63828e-05
4.73633e-06
1.53787e-05
6.30374e-06