/*--------------------------------*- C++ -*----------------------------------*\
| =========                 |                                                 |
| \\      /  F ield         | OpenFOAM: The Open Source CFD Toolbox           |
|  \\    /   O peration     | Version:  2.4.0                                 |
|   \\  /    A nd           | Web:      www.OpenFOAM.org                      |
|    \\/     M anipulation  |                                                 |
\*---------------------------------------------------------------------------*/
FoamFile
{
    version     2.0;
    format      ascii;
    class       volScalarField;
    location    "1.42";
    object      nuSgs;
}
// * * * * * * * * * * * * * * * * * * * * * * * * * * * * * * * * * * * * * //

dimensions      [0 2 -1 0 0 0 0];

internalField   nonuniform List<scalar> 
8800
(
0.00133891
0.00150658
0.00139318
0.00122933
0.00112031
0.00105172
0.00099554
0.000962173
0.000923357
0.00090726
0.000877996
0.000868293
0.000848338
0.000840835
0.000822536
0.000818712
0.000799727
0.000798386
0.000791969
0.0007672
0.00055512
0.000981346
0.00108339
0.00108161
0.00106262
0.00103574
0.000999362
0.000980224
0.000946236
0.000933384
0.000906652
0.000895216
0.000878443
0.000866818
0.000853865
0.000847962
0.000830625
0.000829451
0.000815245
0.000815256
0.000135896
0.000404742
0.000584556
0.000658269
0.000705366
0.00073901
0.000749071
0.000762127
0.00075936
0.000758883
0.000755648
0.000749922
0.000747174
0.000738651
0.000735983
0.000732704
0.000723236
0.000723385
0.000712011
0.000710887
2.70063e-05
0.000125128
0.000233494
0.000309513
0.000355446
0.000400314
0.000423405
0.000457561
0.00047588
0.00048836
0.000509531
0.000515834
0.000529624
0.000534993
0.0005416
0.000554091
0.000552822
0.000560454
0.000555504
0.00056041
5.16326e-06
3.34009e-05
6.82371e-05
0.000111155
0.000135607
0.00017113
0.000186712
0.000212878
0.000236021
0.000245946
0.000267356
0.000281451
0.000289731
0.000310585
0.000316587
0.000335889
0.00033975
0.000357877
0.000356404
0.000374811
2.45158e-06
8.51552e-06
1.74574e-05
3.28062e-05
4.03816e-05
5.51306e-05
6.35519e-05
7.29633e-05
9.06973e-05
9.6274e-05
0.000106951
0.000120097
0.000124817
0.000139363
0.00014501
0.000158136
0.000164088
0.000176928
0.000180455
0.000200625
2.23595e-06
3.46692e-06
5.14179e-06
1.00788e-05
1.14975e-05
1.61378e-05
1.8481e-05
2.25875e-05
2.82888e-05
3.01192e-05
3.40847e-05
4.01461e-05
4.15217e-05
4.89921e-05
5.08559e-05
5.77365e-05
6.23088e-05
6.74019e-05
6.99313e-05
8.12896e-05
2.20161e-06
3.12923e-06
5.79329e-06
6.30949e-06
8.1861e-06
8.60533e-06
9.27573e-06
1.0036e-05
1.04104e-05
1.12345e-05
1.1836e-05
1.47325e-05
1.50137e-05
1.8314e-05
1.84839e-05
2.158e-05
2.26528e-05
2.71438e-05
2.89552e-05
4.15856e-05
2.23393e-06
2.43043e-06
3.20966e-06
4.07464e-06
4.12974e-06
4.3692e-06
4.52445e-06
4.85728e-06
5.66312e-06
6.13108e-06
6.17047e-06
6.6449e-06
6.76476e-06
7.57467e-06
7.6459e-06
8.73645e-06
8.74726e-06
9.77153e-06
1.0049e-05
1.73378e-05
2.18565e-06
3.25006e-06
3.64414e-06
4.84657e-06
4.98273e-06
5.31809e-06
5.88373e-06
6.19713e-06
6.57577e-06
6.57506e-06
6.54173e-06
6.67159e-06
6.85845e-06
7.23671e-06
7.261e-06
7.32444e-06
7.55829e-06
7.70659e-06
7.70225e-06
9.58119e-06
2.16691e-06
2.78579e-06
3.24533e-06
4.07411e-06
4.26181e-06
4.96637e-06
5.07564e-06
5.37287e-06
5.33333e-06
5.31887e-06
5.47968e-06
5.53769e-06
5.69514e-06
5.99318e-06
5.97001e-06
6.09391e-06
6.12722e-06
6.24466e-06
6.37666e-06
6.91517e-06
2.14156e-06
2.62479e-06
3.03908e-06
3.292e-06
4.05171e-06
4.145e-06
4.25197e-06
4.26012e-06
4.22221e-06
4.43655e-06
4.58506e-06
4.65588e-06
5.09259e-06
5.08755e-06
5.33219e-06
5.40762e-06
5.60963e-06
5.64737e-06
6.4899e-06
6.68548e-06
2.14449e-06
2.53998e-06
3.30205e-06
4.42547e-06
4.59583e-06
4.88739e-06
5.24546e-06
6.12636e-06
6.76886e-06
7.90822e-06
9.27566e-06
9.8377e-06
1.14072e-05
1.20201e-05
1.35478e-05
1.42483e-05
1.60462e-05
1.72925e-05
2.09959e-05
2.19718e-05
2.19358e-06
3.1122e-06
5.26056e-06
8.77698e-06
1.04729e-05
1.36807e-05
1.59232e-05
2.11572e-05
2.38165e-05
2.97222e-05
3.32365e-05
3.71665e-05
4.19565e-05
4.60956e-05
4.88722e-05
5.44743e-05
5.85026e-05
6.57539e-05
7.17922e-05
7.89964e-05
2.34483e-06
8.20283e-06
1.86971e-05
3.2529e-05
3.96349e-05
5.25559e-05
6.06717e-05
7.72043e-05
8.48416e-05
0.000100319
0.000107961
0.000119072
0.00012696
0.000138153
0.000143733
0.000155958
0.00016297
0.000177309
0.000186181
0.000204017
5.22015e-06
3.28974e-05
7.36532e-05
0.000111385
0.000134254
0.000166854
0.000185506
0.000216614
0.000229378
0.000253592
0.000265765
0.000281706
0.000292563
0.000309
0.00031637
0.000333234
0.000341594
0.000360022
0.000369226
0.000390249
2.72854e-05
0.000123712
0.000242147
0.000302882
0.000358481
0.000394012
0.000428551
0.000454577
0.000474086
0.000493672
0.000507542
0.000516522
0.000527793
0.000537181
0.000541827
0.000552147
0.000556518
0.000566464
0.000570856
0.000580501
0.000136691
0.000400358
0.000589472
0.000653579
0.000709852
0.000732509
0.000755189
0.000757352
0.000761772
0.000758244
0.000756395
0.000748744
0.000746659
0.000739196
0.000737121
0.000731038
0.000729414
0.000725175
0.000723645
0.000719199
0.000557188
0.000980317
0.00108414
0.00108049
0.00106476
0.00102922
0.00100731
0.000971335
0.000955812
0.000924478
0.000913202
0.000889637
0.000881589
0.000862211
0.00085757
0.000840945
0.000836866
0.000821615
0.000815913
0.000802499
0.00133904
0.00150591
0.00139374
0.00122705
0.00112369
0.00104639
0.00100174
0.000954712
0.00093203
0.000897472
0.000885695
0.000860886
0.000853627
0.000832164
0.000827877
0.000806425
0.000801653
0.000777611
0.000768259
0.000738422
0.000353307
0.000304774
0.000274735
0.000253758
0.000238871
0.000227113
0.000218169
0.000209835
0.000203177
0.000196751
0.000192698
0.00018851
0.000187141
0.000185254
0.000185652
0.000184962
0.000185989
0.000185103
0.00018652
0.000185132
0.000186491
0.000184492
0.000185748
0.000183062
0.000184094
0.000180901
0.000181985
0.000178505
0.000179786
0.000176132
0.000177727
0.000174077
0.000176104
0.000172379
0.000174814
0.000170741
0.000173232
0.000168536
0.000171094
0.000165575
0.000167999
0.000161929
0.000164684
0.000158694
0.000162458
0.000157167
0.000162435
0.000157654
0.000164416
0.000159787
0.000167551
0.000162573
0.000170967
0.000165238
0.000174047
0.00016732
0.000176385
0.000168373
0.000177637
0.00016782
0.000177236
0.000164918
0.000174156
0.000159069
0.000168141
0.000150376
0.000159782
0.00014016
0.000150507
0.00013103
0.000142336
0.000124727
0.000135899
0.000121227
0.000132413
0.000121092
0.000132766
0.000124829
0.000136502
0.000131717
0.000142362
0.000139604
0.000148341
0.00014659
0.000153036
0.000151063
0.000155441
0.000152611
0.000155225
0.000151332
0.000153718
0.000149845
0.00015329
0.00015035
0.000156871
0.000156557
0.000165842
0.000166258
0.00017575
0.000174108
0.000183497
0.000178864
0.000186634
0.000179545
0.00018645
0.000177637
0.000183377
0.000174037
0.000179401
0.000172558
0.000178997
0.00017487
0.000181204
0.000178378
0.000181101
0.000177584
0.00017804
0.00017546
0.000176354
0.000176327
0.000178265
0.000177897
0.000177236
0.000175662
0.000169179
0.000167631
0.000159798
0.00015797
0.000149871
0.00014761
0.000139478
0.000137209
0.00012985
0.00012846
0.000122738
0.000122032
0.000117257
0.000116623
0.00011229
0.000111714
0.000107718
0.000107339
0.000104064
0.000104295
0.000101761
0.00010233
9.97465e-05
0.000100692
9.81949e-05
9.95156e-05
9.71875e-05
9.88903e-05
9.67455e-05
9.86046e-05
9.65829e-05
9.81558e-05
9.6157e-05
9.74444e-05
9.54778e-05
9.64693e-05
9.44753e-05
9.49834e-05
9.30795e-05
9.34014e-05
9.17288e-05
9.18885e-05
9.05326e-05
9.08745e-05
9.03063e-05
9.113e-05
9.23903e-05
9.47132e-05
9.80734e-05
0.000103749
0.000112216
0.000112472
0.000111356
9.76622e-05
9.38239e-05
9.43927e-05
0.000101784
0.000110797
0.000126254
0.000130274
0.000129782
0.000127222
0.000121612
0.000117673
0.000110097
0.000105681
9.92568e-05
9.74152e-05
9.38653e-05
9.35727e-05
9.23457e-05
9.34038e-05
9.17635e-05
9.59468e-05
9.52592e-05
0.00015665
0.000413453
0.000375836
0.000344371
0.000319667
0.000299694
0.000283836
0.000271365
0.000261332
0.00025346
0.000245971
0.000240771
0.000233726
0.000230863
0.0002241
0.000222616
0.000217457
0.000216656
0.000211954
0.000212071
0.000208131
0.000208869
0.000204912
0.00020654
0.000202502
0.000204777
0.000200559
0.000203222
0.000198748
0.000201697
0.000196906
0.000200145
0.000195061
0.000198753
0.000193388
0.000197488
0.000191861
0.000196304
0.00019038
0.000195176
0.00018891
0.000193956
0.000187309
0.000192651
0.000185718
0.000191563
0.000184504
0.000190998
0.000183844
0.000190904
0.000183674
0.000191312
0.000183848
0.000192019
0.000184292
0.000193056
0.00018509
0.000194495
0.000186223
0.00019636
0.000187691
0.000198582
0.000189391
0.000200558
0.00019058
0.000201517
0.000190517
0.000200383
0.000188376
0.000196053
0.000183464
0.00018767
0.000175597
0.000176469
0.000166793
0.000165649
0.000159204
0.000157769
0.000154442
0.000152051
0.000152173
0.000150705
0.000151992
0.000150276
0.000151231
0.000149042
0.000149176
0.000146457
0.000145744
0.000141443
0.000139812
0.000134243
0.000132065
0.000126317
0.000123998
0.000119077
0.000117785
0.000117213
0.000118145
0.000120388
0.000126472
0.000130997
0.000141437
0.000147327
0.000155317
0.000157927
0.000162285
0.000162697
0.000163858
0.000162605
0.000163402
0.000160495
0.000160901
0.00015608
0.000155345
0.000147647
0.000146125
0.000137231
0.000136432
0.000130005
0.000131892
0.000128341
0.000134754
0.000133667
0.000141866
0.000141291
0.00014729
0.000145352
0.000148184
0.000144479
0.000144845
0.00014031
0.000140154
0.000135242
0.000135059
0.000130221
0.000130034
0.000125467
0.000124905
0.000120071
0.000119039
0.000114104
0.000112946
0.000108446
0.000107615
0.000103724
0.000103296
0.000100215
0.000100368
9.77706e-05
9.83146e-05
9.58772e-05
9.69002e-05
9.45018e-05
9.55079e-05
9.31669e-05
9.38386e-05
9.13078e-05
9.13203e-05
8.86582e-05
8.80499e-05
8.4993e-05
8.38711e-05
7.99334e-05
7.86159e-05
7.48612e-05
7.35326e-05
6.95462e-05
6.81475e-05
6.42307e-05
6.361e-05
6.35898e-05
6.50365e-05
6.89966e-05
7.47024e-05
8.71027e-05
9.57465e-05
0.000114837
0.000116273
0.000116044
0.000106174
0.000102276
0.000102084
0.000104488
0.000110829
0.000114453
0.000119243
0.000118303
0.000116892
0.000113028
0.000111221
0.000107542
0.000104664
0.000101179
9.81698e-05
9.76662e-05
9.67072e-05
9.48461e-05
9.10931e-05
8.95053e-05
9.80849e-05
0.000371659
0.000351857
0.000330803
0.000313988
0.000297279
0.000284798
0.000272341
0.000263345
0.000254785
0.000247645
0.000242621
0.000235345
0.000232917
0.000225637
0.000223754
0.000217358
0.000216476
0.000209965
0.000209912
0.000204434
0.000205275
0.000199869
0.000201926
0.000196596
0.00019966
0.000194472
0.000198322
0.000193239
0.000197665
0.000192555
0.000197362
0.000192109
0.000197126
0.000191669
0.000196683
0.000191077
0.000195968
0.000190267
0.000195113
0.000189332
0.000194167
0.00018826
0.000193007
0.000186965
0.000191619
0.000185491
0.000190061
0.000183928
0.000188392
0.000182311
0.000186688
0.000180726
0.000185017
0.000179304
0.000183464
0.000178252
0.000182295
0.000177809
0.000181695
0.000178143
0.000181734
0.000179281
0.000182372
0.000181042
0.00018344
0.000183058
0.000184438
0.000184659
0.000184533
0.000185128
0.000183138
0.000183941
0.0001797
0.000180409
0.000174691
0.000175459
0.000169281
0.000170362
0.000164376
0.000165516
0.00016008
0.000160831
0.000155784
0.000155896
0.000151077
0.000150619
0.000145038
0.000143671
0.000136665
0.000134648
0.00012667
0.000124258
0.000116097
0.000113658
0.000106374
0.00010448
9.87179e-05
9.84949e-05
9.71882e-05
9.90787e-05
9.94977e-05
0.00010491
0.000107612
0.000117675
0.000120947
0.000131631
0.000133454
0.000139452
0.000137958
0.000140393
0.000137136
0.000137837
0.000133471
0.000133098
0.00012734
0.000126309
0.00011985
0.000119269
0.000114652
0.000115374
0.000111928
0.000113751
0.000111275
0.000114632
0.000113176
0.00011731
0.000116527
0.000120842
0.000120659
0.000124506
0.00012383
0.000126355
0.000124704
0.000125831
0.000123492
0.000123457
0.000120981
0.000120226
0.00011707
0.000115583
0.000111794
0.000109942
0.000105899
0.000103982
0.000100002
9.79997e-05
9.40062e-05
9.19659e-05
8.80474e-05
8.60884e-05
8.22589e-05
8.03253e-05
7.62615e-05
7.43951e-05
7.01914e-05
6.85789e-05
6.47018e-05
6.3025e-05
5.87091e-05
5.69759e-05
5.30738e-05
5.16025e-05
4.83322e-05
4.72007e-05
4.47686e-05
4.40011e-05
4.22146e-05
4.17359e-05
4.06845e-05
4.04097e-05
4.04902e-05
4.10002e-05
4.21614e-05
4.46499e-05
4.86309e-05
5.58854e-05
6.80886e-05
9.01232e-05
0.00010662
0.000112051
0.000111785
0.000110144
0.000106145
0.000105674
0.000105884
0.000106708
0.000107104
0.000108438
0.000107723
0.00010776
0.000106242
0.000105146
0.00010197
0.000100624
0.000100076
9.95758e-05
9.57631e-05
9.35489e-05
9.14652e-05
9.27933e-05
0.000297426
0.000288203
0.000273812
0.000266666
0.000253318
0.000247597
0.000236191
0.000231575
0.000222596
0.000218776
0.000212654
0.000208741
0.000205788
0.000200138
0.000198799
0.000193521
0.000191829
0.000185347
0.000184567
0.000178364
0.00017768
0.00017218
0.000172517
0.000168054
0.000169123
0.000165355
0.000167079
0.000164086
0.000166269
0.000163959
0.000166319
0.000164485
0.000166765
0.000165148
0.000167069
0.000165438
0.000166831
0.000165068
0.00016584
0.000164048
0.000164182
0.000162548
0.000162235
0.000160442
0.000159811
0.000157761
0.000156836
0.00015463
0.000153115
0.00015148
0.000148184
0.00014727
0.000143981
0.000143164
0.000139191
0.000138939
0.000135708
0.000136035
0.000133298
0.000134859
0.000132558
0.000135669
0.000133783
0.000138415
0.000137044
0.000143049
0.000142047
0.000149264
0.000148153
0.000155948
0.00015427
0.00016165
0.000159078
0.00016474
0.000161198
0.000165002
0.000160864
0.000163107
0.000158631
0.000159569
0.000154779
0.000154801
0.000149594
0.000148885
0.000142399
0.000140657
0.000132412
0.000129734
0.000120113
0.00011689
0.000106774
0.000103471
9.38436e-05
9.10355e-05
8.32222e-05
8.17165e-05
7.68972e-05
7.69421e-05
7.50753e-05
7.67631e-05
7.63413e-05
7.94281e-05
8.03731e-05
8.70443e-05
8.95735e-05
9.91881e-05
0.000102071
0.000111545
0.000113185
0.000119602
0.000119024
0.000121696
0.000119574
0.000120808
0.00011793
0.000118607
0.000115397
0.000116086
0.000113122
0.000114084
0.000111311
0.000112453
0.000109793
0.000111074
0.000108666
0.000109639
0.000107569
0.000108312
0.000106739
0.000107299
0.000106157
0.000106521
0.000105536
0.000105531
0.000104799
0.0001044
0.000103212
0.0001022
0.000100467
9.81365e-05
9.64637e-05
9.25392e-05
9.06763e-05
8.57912e-05
8.34277e-05
7.7706e-05
7.47402e-05
6.84712e-05
6.50233e-05
5.92625e-05
5.57155e-05
5.16199e-05
4.88265e-05
4.63319e-05
4.42748e-05
4.28584e-05
4.1559e-05
4.0524e-05
3.92956e-05
3.8325e-05
3.72919e-05
3.6464e-05
3.56875e-05
3.50803e-05
3.45905e-05
3.43233e-05
3.40121e-05
3.39967e-05
3.40077e-05
3.42994e-05
3.46006e-05
3.54682e-05
3.61149e-05
3.78328e-05
3.89028e-05
4.16092e-05
4.47709e-05
5.47221e-05
6.53319e-05
8.89793e-05
9.9876e-05
0.00010896
0.000109099
0.000109225
0.000107429
0.000106463
0.000103716
0.000102761
0.000100523
9.97734e-05
9.83093e-05
9.80454e-05
9.63734e-05
9.56423e-05
9.49949e-05
9.44594e-05
9.02967e-05
8.95793e-05
8.82324e-05
9.12717e-05
0.000199989
0.000196532
0.000188767
0.000185744
0.000178532
0.000175739
0.00016891
0.000166461
0.000160322
0.000158329
0.000153418
0.000152143
0.000148831
0.000148095
0.000145723
0.000145137
0.000142398
0.000141467
0.000137491
0.000136184
0.0001311
0.000129691
0.000124303
0.0001232
0.000118449
0.000118008
0.00011478
0.000115386
0.000113171
0.000114393
0.000112751
0.000114363
0.000113193
0.000114988
0.00011401
0.000115773
0.000114623
0.000116135
0.000114422
0.000115667
0.000113207
0.000114197
0.00011115
0.000111886
0.000108582
0.000109073
0.000105693
0.000106083
0.000102622
0.00010312
9.95451e-05
0.000100274
9.65909e-05
9.75468e-05
9.38903e-05
9.49468e-05
9.15606e-05
9.26643e-05
8.97533e-05
9.11133e-05
8.87543e-05
9.07168e-05
8.89481e-05
9.17627e-05
9.06629e-05
9.44892e-05
9.39955e-05
9.89879e-05
9.89047e-05
0.000104885
0.000104977
0.000111494
0.000111505
0.000118194
0.000117793
0.000123701
0.00012244
0.000126748
0.000124302
0.000126667
0.000122842
0.000123383
0.000118658
0.000117916
0.000111246
0.000109171
0.000100594
9.7726e-05
8.82515e-05
8.50669e-05
7.58565e-05
7.29402e-05
6.51399e-05
6.31655e-05
5.74394e-05
5.66937e-05
5.40861e-05
5.52025e-05
5.4186e-05
5.62246e-05
5.60519e-05
5.85904e-05
5.91572e-05
6.34513e-05
6.51843e-05
7.17848e-05
7.43548e-05
8.22389e-05
8.47562e-05
9.20049e-05
9.37064e-05
9.87174e-05
9.93978e-05
0.000101756
0.000101332
0.000102796
0.000102273
0.00010382
0.000103168
0.000104586
0.00010361
0.000104686
0.000103361
0.0001038
0.000102324
0.000102344
0.000100964
0.0001006
9.89078e-05
9.80751e-05
9.5862e-05
9.47718e-05
9.23845e-05
9.11281e-05
8.87114e-05
8.71008e-05
8.51426e-05
8.26585e-05
8.11438e-05
7.78388e-05
7.56062e-05
7.16945e-05
6.87176e-05
6.39815e-05
6.09084e-05
5.62198e-05
5.27826e-05
4.86752e-05
4.56115e-05
4.24043e-05
4.01483e-05
3.81005e-05
3.65627e-05
3.5429e-05
3.46152e-05
3.40885e-05
3.37241e-05
3.34601e-05
3.31358e-05
3.29199e-05
3.27557e-05
3.2601e-05
3.25664e-05
3.25347e-05
3.25962e-05
3.26242e-05
3.2692e-05
3.29411e-05
3.31184e-05
3.38886e-05
3.42888e-05
3.58447e-05
3.64218e-05
3.84298e-05
3.91267e-05
4.1908e-05
4.27822e-05
4.66027e-05
4.90319e-05
5.82233e-05
6.6001e-05
8.53041e-05
9.57301e-05
0.000105194
0.000106158
0.000106531
0.000105298
0.000103648
0.000100575
9.8183e-05
9.53072e-05
9.27778e-05
9.00652e-05
8.90274e-05
8.71127e-05
8.65661e-05
8.42707e-05
8.43271e-05
8.44921e-05
8.78123e-05
0.000107987
0.000106317
0.000102703
0.000101305
9.8192e-05
9.70032e-05
9.41364e-05
9.30164e-05
9.02062e-05
8.93401e-05
8.68057e-05
8.66273e-05
8.5339e-05
8.62632e-05
8.48801e-05
8.62926e-05
8.42203e-05
8.57835e-05
8.28511e-05
8.4313e-05
8.06562e-05
8.18068e-05
7.77967e-05
7.87246e-05
7.49116e-05
7.59849e-05
7.27874e-05
7.41496e-05
7.17294e-05
7.327e-05
7.16058e-05
7.31717e-05
7.2165e-05
7.36981e-05
7.31181e-05
7.45863e-05
7.40863e-05
7.5402e-05
7.45561e-05
7.56857e-05
7.42728e-05
7.51289e-05
7.32454e-05
7.37469e-05
7.16366e-05
7.18044e-05
6.96191e-05
6.96619e-05
6.74337e-05
6.76044e-05
6.53571e-05
6.57775e-05
6.35522e-05
6.41682e-05
6.20917e-05
6.27209e-05
6.09424e-05
6.14799e-05
6.00413e-05
6.06059e-05
5.94524e-05
6.0304e-05
5.94394e-05
6.08078e-05
6.03256e-05
6.23646e-05
6.22523e-05
6.49701e-05
6.511e-05
6.87081e-05
6.91255e-05
7.33314e-05
7.38697e-05
7.81637e-05
7.86128e-05
8.20967e-05
8.18632e-05
8.41599e-05
8.30382e-05
8.41611e-05
8.19715e-05
8.20113e-05
7.90268e-05
7.81294e-05
7.34837e-05
7.18607e-05
6.60904e-05
6.41657e-05
5.83718e-05
5.65133e-05
5.14049e-05
4.99042e-05
4.56184e-05
4.46712e-05
4.13458e-05
4.13256e-05
4.00561e-05
4.13181e-05
4.09991e-05
4.28285e-05
4.29557e-05
4.5008e-05
4.54232e-05
4.80137e-05
4.90202e-05
5.27303e-05
5.4469e-05
5.94021e-05
6.15888e-05
6.68881e-05
6.89772e-05
7.33596e-05
7.48968e-05
7.76622e-05
7.86108e-05
7.9964e-05
8.01506e-05
8.0572e-05
8.05236e-05
8.10489e-05
8.10867e-05
8.18205e-05
8.18155e-05
8.23313e-05
8.21942e-05
8.23347e-05
8.20537e-05
8.1858e-05
8.11939e-05
8.07343e-05
7.96389e-05
7.88236e-05
7.71846e-05
7.57655e-05
7.38792e-05
7.20056e-05
7.00907e-05
6.76189e-05
6.5517e-05
6.25044e-05
6.00303e-05
5.66365e-05
5.38571e-05
5.02314e-05
4.73064e-05
4.36942e-05
4.07977e-05
3.80946e-05
3.60951e-05
3.43709e-05
3.31798e-05
3.23164e-05
3.18152e-05
3.14349e-05
3.13952e-05
3.12974e-05
3.13202e-05
3.13272e-05
3.14188e-05
3.14964e-05
3.1661e-05
3.19038e-05
3.20895e-05
3.2543e-05
3.27582e-05
3.3223e-05
3.34125e-05
3.41796e-05
3.45192e-05
3.61165e-05
3.66426e-05
3.89854e-05
3.97333e-05
4.26973e-05
4.33948e-05
4.64393e-05
4.70217e-05
4.95676e-05
5.01513e-05
5.28947e-05
5.45638e-05
6.08723e-05
6.66094e-05
8.0204e-05
9.20627e-05
0.000100429
0.000102556
0.000102626
0.000101844
0.000100417
9.69199e-05
9.38121e-05
9.04564e-05
8.87377e-05
8.57086e-05
8.43991e-05
8.33132e-05
8.36448e-05
8.64038e-05
8.86699e-05
4.44483e-05
4.40938e-05
4.32107e-05
4.28438e-05
4.20877e-05
4.17537e-05
4.15026e-05
4.06896e-05
4.05351e-05
3.97876e-05
3.96924e-05
3.9743e-05
3.98355e-05
4.09003e-05
4.10036e-05
4.29639e-05
4.28143e-05
4.48106e-05
4.36409e-05
4.55106e-05
4.35414e-05
4.51075e-05
4.27146e-05
4.39568e-05
4.15505e-05
4.26574e-05
4.05599e-05
4.16962e-05
4.00962e-05
4.12756e-05
4.02265e-05
4.13742e-05
4.08662e-05
4.1973e-05
4.18859e-05
4.29809e-05
4.30457e-05
4.42008e-05
4.39962e-05
4.50299e-05
4.43295e-05
4.51353e-05
4.39786e-05
4.44358e-05
4.30448e-05
4.31895e-05
4.17231e-05
4.17531e-05
4.02748e-05
4.04047e-05
3.89809e-05
3.93082e-05
3.80288e-05
3.85186e-05
3.74877e-05
3.80161e-05
3.72602e-05
3.77399e-05
3.71729e-05
3.76444e-05
3.71565e-05
3.77788e-05
3.73622e-05
3.8308e-05
3.80705e-05
3.94219e-05
3.93708e-05
4.11534e-05
4.13519e-05
4.37695e-05
4.41999e-05
4.69156e-05
4.74884e-05
5.01464e-05
5.06684e-05
5.29268e-05
5.30969e-05
5.42216e-05
5.37217e-05
5.41295e-05
5.31109e-05
5.29226e-05
5.11683e-05
5.03689e-05
4.74326e-05
4.62779e-05
4.2814e-05
4.15965e-05
3.84272e-05
3.73952e-05
3.48334e-05
3.4111e-05
3.21057e-05
3.17955e-05
3.05275e-05
3.07733e-05
3.02633e-05
3.09912e-05
3.09193e-05
3.19329e-05
3.21667e-05
3.36168e-05
3.40095e-05
3.561e-05
3.61792e-05
3.81193e-05
3.90993e-05
4.18178e-05
4.32648e-05
4.65918e-05
4.83614e-05
5.11536e-05
5.35533e-05
5.48331e-05
5.68694e-05
5.75734e-05
5.85042e-05
5.8623e-05
5.87816e-05
5.87657e-05
5.88543e-05
5.89289e-05
5.90542e-05
5.91226e-05
5.92123e-05
5.91834e-05
5.9162e-05
5.90421e-05
5.89455e-05
5.87151e-05
5.83393e-05
5.79926e-05
5.73451e-05
5.64503e-05
5.56577e-05
5.43778e-05
5.31775e-05
5.14316e-05
4.97926e-05
4.77403e-05
4.56544e-05
4.32045e-05
4.09761e-05
3.87802e-05
3.68145e-05
3.50394e-05
3.35454e-05
3.23364e-05
3.15062e-05
3.09322e-05
3.05736e-05
3.04296e-05
3.0463e-05
3.05689e-05
3.08653e-05
3.09728e-05
3.1191e-05
3.12893e-05
3.15515e-05
3.19794e-05
3.24403e-05
3.32771e-05
3.35977e-05
3.41156e-05
3.42685e-05
3.46001e-05
3.471e-05
3.51793e-05
3.54347e-05
3.65969e-05
3.72273e-05
3.91521e-05
3.99989e-05
4.2522e-05
4.33098e-05
4.58032e-05
4.647e-05
4.87015e-05
4.92573e-05
5.09865e-05
5.1431e-05
5.32755e-05
5.49316e-05
5.98352e-05
6.4972e-05
7.54438e-05
8.7092e-05
9.54484e-05
9.84473e-05
9.87641e-05
9.78571e-05
9.67355e-05
9.43939e-05
9.21978e-05
8.90329e-05
8.73012e-05
8.68833e-05
8.71626e-05
8.87348e-05
8.90884e-05
2.23169e-05
2.18324e-05
2.07259e-05
1.99776e-05
1.91222e-05
1.85437e-05
1.80782e-05
1.7377e-05
1.72095e-05
1.65726e-05
1.65189e-05
1.63742e-05
1.66128e-05
1.68767e-05
1.7274e-05
1.8439e-05
1.86159e-05
2.0261e-05
2.01513e-05
2.16349e-05
2.09281e-05
2.22068e-05
2.11734e-05
2.21671e-05
2.11732e-05
2.20565e-05
2.11546e-05
2.19838e-05
2.11818e-05
2.1901e-05
2.13178e-05
2.1946e-05
2.16269e-05
2.22598e-05
2.22217e-05
2.28917e-05
2.29919e-05
2.39023e-05
2.38914e-05
2.47071e-05
2.441e-05
2.51369e-05
2.45541e-05
2.5057e-05
2.43377e-05
2.45866e-05
2.38749e-05
2.39769e-05
2.33376e-05
2.34474e-05
2.29053e-05
2.31088e-05
2.2694e-05
2.29904e-05
2.27483e-05
2.30845e-05
2.29995e-05
2.33504e-05
2.33339e-05
2.37161e-05
2.36698e-05
2.41341e-05
2.40409e-05
2.46497e-05
2.45611e-05
2.53738e-05
2.53498e-05
2.6444e-05
2.65453e-05
2.78983e-05
2.81007e-05
2.95395e-05
2.98487e-05
3.12428e-05
3.16247e-05
3.29193e-05
3.32161e-05
3.41647e-05
3.40305e-05
3.41899e-05
3.37369e-05
3.35562e-05
3.25398e-05
3.19809e-05
3.03892e-05
2.97595e-05
2.82428e-05
2.77419e-05
2.66567e-05
2.63371e-05
2.5614e-05
2.54668e-05
2.51405e-05
2.52945e-05
2.53222e-05
2.5756e-05
2.58464e-05
2.63368e-05
2.63277e-05
2.67149e-05
2.67591e-05
2.72734e-05
2.74264e-05
2.81013e-05
2.83602e-05
2.91825e-05
2.96016e-05
3.07832e-05
3.14101e-05
3.29067e-05
3.37058e-05
3.50903e-05
3.65102e-05
3.71032e-05
3.86084e-05
3.90556e-05
4.01451e-05
4.04091e-05
4.09765e-05
4.09701e-05
4.12047e-05
4.11627e-05
4.13378e-05
4.12125e-05
4.12549e-05
4.10687e-05
4.10569e-05
4.08634e-05
4.08443e-05
4.07263e-05
4.05962e-05
4.03732e-05
4.01631e-05
3.96766e-05
3.92635e-05
3.84367e-05
3.76286e-05
3.6694e-05
3.58139e-05
3.5015e-05
3.42214e-05
3.35858e-05
3.29273e-05
3.24983e-05
3.1857e-05
3.13658e-05
3.08738e-05
3.05306e-05
3.025e-05
3.01207e-05
3.00798e-05
3.01211e-05
3.02375e-05
3.06616e-05
3.10516e-05
3.13629e-05
3.15548e-05
3.19853e-05
3.22829e-05
3.29994e-05
3.32302e-05
3.38089e-05
3.39601e-05
3.41885e-05
3.42154e-05
3.43041e-05
3.43489e-05
3.44976e-05
3.49646e-05
3.5664e-05
3.72827e-05
3.85366e-05
4.11524e-05
4.33533e-05
4.53791e-05
4.80026e-05
4.93088e-05
5.04556e-05
5.0603e-05
5.1031e-05
5.1115e-05
5.15717e-05
5.17634e-05
5.25963e-05
5.37491e-05
5.69874e-05
6.13882e-05
6.99411e-05
8.07723e-05
8.9321e-05
9.31101e-05
9.42111e-05
9.39705e-05
9.32752e-05
9.2404e-05
9.02924e-05
8.91786e-05
8.87186e-05
8.8905e-05
8.68408e-05
8.97479e-06
8.23931e-06
8.0229e-06
7.43947e-06
7.36943e-06
7.11507e-06
7.07463e-06
6.99558e-06
6.95058e-06
6.97494e-06
6.92502e-06
6.93647e-06
6.9184e-06
6.90256e-06
6.98921e-06
7.13273e-06
7.40321e-06
7.99687e-06
8.47808e-06
9.73327e-06
1.0341e-05
1.21359e-05
1.25963e-05
1.44635e-05
1.44879e-05
1.54916e-05
1.54067e-05
1.57357e-05
1.57586e-05
1.58174e-05
1.60634e-05
1.61122e-05
1.62665e-05
1.63117e-05
1.63893e-05
1.65759e-05
1.66343e-05
1.68471e-05
1.71186e-05
1.73352e-05
1.75637e-05
1.76579e-05
1.77183e-05
1.76925e-05
1.76698e-05
1.75667e-05
1.75434e-05
1.74308e-05
1.74398e-05
1.74022e-05
1.7435e-05
1.74457e-05
1.74886e-05
1.76463e-05
1.77447e-05
1.79756e-05
1.80893e-05
1.83506e-05
1.84566e-05
1.87552e-05
1.88354e-05
1.91837e-05
1.92269e-05
1.96142e-05
1.9635e-05
2.00593e-05
2.0075e-05
2.05162e-05
2.0519e-05
2.09762e-05
2.09929e-05
2.14536e-05
2.15353e-05
2.19954e-05
2.21698e-05
2.27203e-05
2.28896e-05
2.34147e-05
2.34804e-05
2.36332e-05
2.35759e-05
2.35244e-05
2.33394e-05
2.3122e-05
2.2963e-05
2.28972e-05
2.28918e-05
2.29769e-05
2.30406e-05
2.32873e-05
2.3366e-05
2.36811e-05
2.3811e-05
2.42981e-05
2.45082e-05
2.52388e-05
2.54755e-05
2.62747e-05
2.64114e-05
2.67623e-05
2.6679e-05
2.68249e-05
2.67625e-05
2.68937e-05
2.68858e-05
2.70744e-05
2.70888e-05
2.72529e-05
2.72838e-05
2.73716e-05
2.74228e-05
2.75641e-05
2.77147e-05
2.79152e-05
2.84297e-05
2.8628e-05
2.93092e-05
2.94764e-05
2.98485e-05
2.98281e-05
2.99941e-05
2.98834e-05
2.99816e-05
2.98335e-05
2.98535e-05
2.97519e-05
2.98329e-05
2.98235e-05
3.01406e-05
3.0343e-05
3.08485e-05
3.10959e-05
3.12111e-05
3.11714e-05
3.10703e-05
3.07824e-05
3.05076e-05
3.03313e-05
3.0288e-05
3.03265e-05
3.04781e-05
3.06368e-05
3.07477e-05
3.07723e-05
3.07255e-05
3.06348e-05
3.04457e-05
3.03876e-05
3.0276e-05
3.02875e-05
3.02771e-05
3.04515e-05
3.05616e-05
3.09624e-05
3.11762e-05
3.15174e-05
3.16172e-05
3.19557e-05
3.21949e-05
3.27981e-05
3.30413e-05
3.35287e-05
3.37329e-05
3.39055e-05
3.40232e-05
3.42562e-05
3.48864e-05
3.5721e-05
3.79629e-05
4.00675e-05
4.52608e-05
4.87144e-05
5.65065e-05
6.03933e-05
6.74773e-05
7.17165e-05
7.58217e-05
7.54933e-05
7.42817e-05
7.06476e-05
6.68665e-05
6.24132e-05
5.88972e-05
5.60651e-05
5.46356e-05
5.46249e-05
5.49923e-05
5.63561e-05
5.94052e-05
6.51733e-05
7.32899e-05
7.96644e-05
8.58063e-05
8.83061e-05
8.87687e-05
8.81738e-05
8.72021e-05
8.63788e-05
8.39189e-05
7.43881e-05
5.08434e-06
4.79571e-06
4.83194e-06
4.7604e-06
4.85094e-06
4.96558e-06
5.1482e-06
5.50622e-06
5.69608e-06
6.01545e-06
6.40006e-06
6.63762e-06
7.13773e-06
7.2427e-06
7.60813e-06
7.61211e-06
7.75864e-06
7.72883e-06
7.74884e-06
7.87771e-06
8.06805e-06
8.66777e-06
9.19113e-06
1.09945e-05
1.17594e-05
1.44457e-05
1.50228e-05
1.76025e-05
1.78135e-05
1.91506e-05
1.91108e-05
1.95258e-05
1.95388e-05
1.96352e-05
1.98472e-05
1.99256e-05
2.01464e-05
2.02097e-05
2.04305e-05
2.0436e-05
2.0602e-05
2.05378e-05
2.07152e-05
2.05991e-05
2.07399e-05
2.06454e-05
2.07308e-05
2.07497e-05
2.07755e-05
2.09198e-05
2.09737e-05
2.12068e-05
2.12646e-05
2.15051e-05
2.1535e-05
2.17575e-05
2.17094e-05
2.19639e-05
2.185e-05
2.21533e-05
2.20087e-05
2.23128e-05
2.21855e-05
2.24427e-05
2.23428e-05
2.2542e-05
2.24716e-05
2.2641e-05
2.25961e-05
2.27863e-05
2.27556e-05
2.30048e-05
2.30016e-05
2.32575e-05
2.32859e-05
2.3496e-05
2.34854e-05
2.35902e-05
2.35248e-05
2.35616e-05
2.35041e-05
2.35259e-05
2.35093e-05
2.35929e-05
2.36315e-05
2.38988e-05
2.39794e-05
2.42839e-05
2.43148e-05
2.45746e-05
2.46327e-05
2.50142e-05
2.51569e-05
2.57141e-05
2.59542e-05
2.6605e-05
2.68876e-05
2.75912e-05
2.78303e-05
2.84837e-05
2.86006e-05
2.8932e-05
2.8958e-05
2.90853e-05
2.90557e-05
2.9132e-05
2.89875e-05
2.89731e-05
2.88037e-05
2.85723e-05
2.83619e-05
2.82301e-05
2.81725e-05
2.82237e-05
2.84984e-05
2.87137e-05
2.92646e-05
2.93481e-05
2.95446e-05
2.94736e-05
2.95168e-05
2.93425e-05
2.93246e-05
2.92149e-05
2.92429e-05
2.92562e-05
2.95626e-05
2.9761e-05
3.03297e-05
3.06625e-05
3.10722e-05
3.10965e-05
3.11459e-05
3.10522e-05
3.10117e-05
3.08734e-05
3.08874e-05
3.08728e-05
3.10659e-05
3.11301e-05
3.1189e-05
3.1136e-05
3.10281e-05
3.06653e-05
3.03544e-05
3.00831e-05
2.99778e-05
2.99162e-05
2.99113e-05
2.99862e-05
3.00539e-05
3.02891e-05
3.03776e-05
3.05621e-05
3.05917e-05
3.07543e-05
3.08636e-05
3.11935e-05
3.17739e-05
3.22746e-05
3.32046e-05
3.39016e-05
3.50222e-05
3.57746e-05
3.72986e-05
3.87238e-05
4.22321e-05
4.51163e-05
5.17765e-05
5.68975e-05
6.78343e-05
7.49942e-05
8.88368e-05
9.63918e-05
0.000107928
0.000112776
0.000116088
0.000115236
0.000113876
0.000109792
0.000105898
9.83187e-05
8.95678e-05
7.9075e-05
7.02064e-05
6.39788e-05
5.94982e-05
5.77778e-05
5.7759e-05
5.81942e-05
6.00563e-05
6.18761e-05
6.57284e-05
7.06725e-05
7.40077e-05
7.42302e-05
7.40112e-05
7.21974e-05
6.78609e-05
6.26438e-05
3.75485e-06
3.7566e-06
3.76857e-06
3.76471e-06
3.78665e-06
3.81079e-06
3.88598e-06
3.97075e-06
4.21846e-06
4.38637e-06
4.85788e-06
5.1298e-06
5.91668e-06
6.27487e-06
7.32003e-06
7.71914e-06
8.91983e-06
9.29274e-06
1.04793e-05
1.07382e-05
1.16632e-05
1.17341e-05
1.21556e-05
1.21349e-05
1.21607e-05
1.24275e-05
1.27139e-05
1.36499e-05
1.4208e-05
1.61778e-05
1.68434e-05
1.90009e-05
1.94331e-05
2.12307e-05
2.14456e-05
2.26087e-05
2.2684e-05
2.34492e-05
2.34045e-05
2.39248e-05
2.37993e-05
2.42705e-05
2.40402e-05
2.44561e-05
2.41365e-05
2.44449e-05
2.41283e-05
2.43527e-05
2.41202e-05
2.43265e-05
2.42046e-05