/*--------------------------------*- C++ -*----------------------------------*\
| =========                 |                                                 |
| \\      /  F ield         | OpenFOAM: The Open Source CFD Toolbox           |
|  \\    /   O peration     | Version:  2.4.0                                 |
|   \\  /    A nd           | Web:      www.OpenFOAM.org                      |
|    \\/     M anipulation  |                                                 |
\*---------------------------------------------------------------------------*/
FoamFile
{
    version     2.0;
    format      ascii;
    class       volScalarField;
    location    "1.42";
    object      p;
}
// * * * * * * * * * * * * * * * * * * * * * * * * * * * * * * * * * * * * * //

dimensions      [0 2 -2 0 0 0 0];

internalField   nonuniform List<scalar> 
8800
(
55.4641
43.0981
35.6925
32.2017
30.2643
28.8985
27.6941
26.5851
25.5575
24.5853
23.6853
22.7076
21.7731
21.0341
19.9823
19.3294
18.4343
17.6583
16.7999
15.9704
52.353
42.7437
35.8609
32.3169
30.3243
28.9226
27.7029
26.5845
25.5561
24.5815
23.6851
22.7064
21.7643
21.0418
19.9771
19.3262
18.4436
17.6479
16.7947
15.9699
50.3869
42.8168
36.4684
32.6921
30.4926
28.9998
27.7495
26.6165
25.5803
24.5981
23.6978
22.7116
21.7618
21.0494
19.9715
19.3306
18.4601
17.6607
16.8318
16.0384
48.852
42.8745
37.0579
33.1165
30.6796
29.0854
27.8094
26.6717
25.6304
24.635
23.7273
22.7287
21.7754
21.0541
19.9798
19.3353
18.4906
17.722
16.9791
16.1831
47.5972
42.8464
37.546
33.5129
30.8588
29.1463
27.8631
26.7245
25.6904
24.6863
23.7583
22.7584
21.798
21.0534
19.9954
19.3428
18.5307
17.8181
17.1195
16.378
46.6111
42.7447
37.917
33.8615
31.0088
29.1916
27.8854
26.7725
25.749
24.7349
23.7944
22.7832
21.8212
21.0479
20.0158
19.3446
18.5562
17.9417
17.25
16.6328
45.8519
42.6352
38.1892
34.135
31.1568
29.2006
27.9106
26.7838
25.8054
24.7723
23.8222
22.8172
21.8255
21.0473
20.0198
19.339
18.5577
17.969
17.3399
17.2362
45.3064
42.5406
38.364
34.3571
31.2702
29.2319
27.8804
26.83
25.825
24.814
23.8327
22.8395
21.8288
21.0493
20.0121
19.3431
18.5075
17.939
17.0549
17.7782
44.9384
42.4727
38.4741
34.5004
31.3684
29.237
27.8834
26.8371
25.8594
24.8395
23.84
22.8629
21.8209
21.051
20.004
19.3354
18.4676
17.9371
17.0012
18.3258
44.7707
42.4276
38.5298
34.5788
31.4105
29.2503
27.8664
26.8509
25.8619
24.8508
23.8461
22.8651
21.8414
21.0359
20.0184
19.3154
18.4602
17.9375
17.0621
18.5233
44.7586
42.4458
38.5224
34.5804
31.4136
29.249
27.8721
26.8477
25.8637
24.8576
23.8362
22.8804
21.8426
21.0421
20.0284
19.3088
18.4571
17.9569
17.126
18.5945
44.9378
42.4872
38.4681
34.5049
31.3718
29.2466
27.8745
26.8394
25.8561
24.845
23.8265
22.8739
21.8534
21.0278
20.0449
19.3079
18.4578
17.9939
17.1488
18.5982
45.2878
42.5744
38.3493
34.3559
31.2882
29.2347
27.8808
26.8278
25.8283
24.83
23.8049
22.8692
21.8598
21.0166
20.0652
19.3071
18.471
17.9418
17.1819
18.4842
45.8394
42.6711
38.1741
34.1386
31.1667
29.217
27.8868
26.8012
25.7964
24.8055
23.7709
22.8596
21.8625
21.0044
20.0845
19.3216
18.4851
17.9631
17.1764
18.3172
46.5953
42.7896
37.9023
33.8515
31.0292
29.184
27.8815
26.7698
25.7547
24.7648
23.7372
22.8338
21.8641
20.9899
20.1041
19.3391
18.5121
17.9847
17.1831
18.0389
47.579
42.8826
37.54
33.4981
30.8756
29.1397
27.8566
26.7251
25.7018
24.7239
23.6905
22.8065
21.8684
20.9669
20.1232
19.3581
18.5471
18.0186
17.2116
17.718
48.8286
42.9133
37.0628
33.0859
30.7086
29.0713
27.8092
26.6727
25.6456
24.6739
23.6523
22.7781
21.8656
20.9515
20.1379
19.3699
18.5874
18.0424
17.2805
17.3456
50.3649
42.8472
36.4792
32.6622
30.5253
28.9846
27.7474
26.6182
25.5959
24.635
23.6274
22.7565
21.8643
20.9439
20.1464
19.3784
18.6196
18.0567
17.3509
17.1476
52.3315
42.7693
35.8779
32.2848
30.3576
28.9063
27.7006
26.587
25.5722
24.6157
23.6205
22.7497
21.8645
20.9467
20.1526
19.3843
18.6377
18.0602
17.3579
17.0155
55.4452
43.1209
35.7085
32.1721
30.2976
28.8812
27.6934
26.5862
25.5748
24.6159
23.6258
22.7519
21.8649
20.9509
20.1557
19.3852
18.6438
18.0558
17.3662
17.1206
15.8688
15.8804
15.8512
15.7864
15.7246
15.6782
15.6492
15.5963
15.5355
15.4461
15.3871
15.3068
15.2639
15.17
15.0948
14.9499
14.8552
14.748
14.7257
14.7368
14.8418
14.9925
15.1918
15.4166
15.6488
15.8701
16.0704
16.2446
16.3828
16.4893
16.5607
16.6041
16.6
16.5343
16.4108
16.1939
15.9304
15.579
15.2227
14.7695
14.3517
13.8719
13.4713
13.0748
12.7968
12.5703
12.4771
12.4248
12.5102
12.6108
12.8244
13.0107
13.2962
13.5393
13.8492
14.1213
14.4214
14.679
14.9517
15.1595
15.4054
15.545
15.7013
15.7451
15.8229
15.7275
15.6676
15.3458
15.055
14.443
13.8691
12.9032
12.119
11.064
10.3105
9.44331
8.87492
8.27037
7.87159
7.41853
7.05923
6.58484
6.1871
5.75488
5.51776
5.4464
5.68205
6.23899
7.12549
8.3996
9.88361
11.5441
13.1552
14.7438
16.2148
17.3767
18.1875
18.8049
19.1445
19.5084
19.807
20.0709
20.0669
19.9813
19.6978
19.2339
18.4654
17.3682
16.0868
14.5744
13.1206
11.6821
10.6383
9.88172
9.65354
9.72927
10.0916
10.4164
10.6299
10.4892
10.0865
9.28631
8.30244
6.94694
5.35812
3.55764
1.50939
-0.519145
-2.60421
-4.63794
-6.60511
-8.41022
-10.1036
-11.5795
-13.1045
-14.2518
-15.5867
-16.5902
-17.709
-18.2836
-18.7876
-18.5444
-18.0194
-16.9691
-15.6417
-13.9722
-12.2362
-10.374
-8.47945
-6.75041
-5.06099
-3.45729
-1.99543
-0.683609
0.656165
1.80575
2.91122
4.0586
5.20614
6.46429
7.73941
9.08844
10.672
12.4373
14.3882
16.406
18.7274
21.1731
23.8085
26.5679
29.3229
31.9133
34.2681
36.3484
37.7608
38.3877
38.1611
36.7459
34.3404
30.7171
26.3938
21.3674
16.2339
11.1506
6.55438
2.23207
-1.27851
-4.09571
-5.95223
-6.94802
-7.18584
-6.53972
-5.06689
-2.56245
0.799763
5.0106
9.32904
13.7449
17.5843
19.4161
15.693
15.6412
15.6478
15.6596
15.6627
15.6398
15.6224
15.5632
15.5394
15.4556
15.4319
15.3293
15.2976
15.1505
15.0838
14.8968
14.8267
14.6961
14.7031
14.7197
14.8304
14.9925
15.1899
15.43
15.6656
15.9005
16.1013
16.2834
16.4143
16.5211
16.5734
16.5987
16.5703
16.481
16.3433
16.1083
15.8532
15.4775
15.149
14.6815
14.3072
13.8286
13.4668
13.0789
12.8203
12.5891
12.5036
12.4355
12.5201
12.588
12.8137
12.973
13.2744
13.5027
13.817
14.0968
14.3932
14.6592
14.9411
15.1445
15.4048
15.5279
15.7127
15.7308
15.8297
15.7066
15.6637
15.3232
15.0537
14.4543
13.9345
13.0647
12.2776
11.3704
10.5437
9.7987
9.09727
8.53989
7.97047
7.48637
7.02923
6.49949
6.08116
5.69825
5.45037
5.49666
5.71702
6.36278
7.23764
8.50899
9.86586
11.4544
12.9975
14.5071
15.9079
17.0187
17.9051
18.5182
18.8933
19.1775
19.4413
19.6919
19.7593
19.6342
19.3339
18.8185
18.0451
16.9996
15.7639
14.3279
12.9902
11.699
10.6745
9.99702
9.71242
9.72421
9.88651
10.1159
10.1948
9.98434
9.56848
8.76077
7.76843
6.56461
5.01117
3.36497
1.4334
-0.428872
-2.39715
-4.27571
-6.14764
-7.85209
-9.53655
-10.9029
-12.3998
-13.5036
-14.7686
-15.6573
-16.6352
-17.1643
-17.4797
-17.3291
-16.7497
-15.7925
-14.5791
-13.0536
-11.3832
-9.70701
-7.91875
-6.22315
-4.61907
-3.09274
-1.59525
-0.373156
1.01975
2.2193
3.35075
4.51251
5.68782
6.86907
8.24205
9.56037
11.095
12.7521
14.6404
16.5371
18.674
20.9255
23.3647
25.7383
28.2045
30.4163
32.4862
34.1681
35.4978
35.9622
35.7299
34.4424
32.4178
29.1472
25.2622
20.753
16.2317
11.7166
7.49753
3.53953
0.358112
-2.12334
-3.90275
-4.93882
-5.25523
-4.63782
-3.304
-0.940635
2.06
5.84136
9.2185
12.3719
14.2095
15.6315
15.7518
15.6639
15.6086
15.6325
15.6851
15.6565
15.614
15.4955
15.4857
15.3829
15.4216
15.2859
15.326
15.1218
15.1099
14.8605
14.8467
14.6766
14.7177
14.7242
14.8369
15.0063
15.1857
15.4365
15.651
15.8968
16.0827
16.2763
16.3866
16.5024
16.5219
16.5408
16.4794
16.3762
16.2287
15.9741
15.748
15.3414
15.0739
14.5814
14.28
13.8033
13.4954
13.1284
12.8855
12.667
12.5776
12.5054
12.5854
12.6328
12.8573
12.9985
13.2931
13.5186
13.8106
14.0951
14.3732
14.6338
14.9138
15.0994
15.355
15.4719
15.6402
15.6675
15.7348
15.62
15.5391
15.2395
14.9065
14.433
13.8043
13.1692
12.3037
11.5937
10.7002
10.0452
9.27699
8.70369
8.10483
7.52626
7.08404
6.50166
6.11563
5.805
5.5868
5.69713
5.95893
6.63806
7.46116
8.70842
9.93403
11.4441
12.8733
14.2555
15.5601
16.578
17.4766
18.0884
18.4893
18.8025
18.9929
19.1695
19.2158
19.0938
18.7367
18.2307
17.4991
16.5052
15.4194
14.1343
12.8872
11.8054
10.7987
10.2011
9.83278
9.73632
9.74243
9.80982
9.80476
9.48996
9.06164
8.29075
7.2855
6.17026
4.6924
3.16838
1.38382
-0.32312
-2.14469
-3.87854
-5.62939
-7.21402
-8.80265
-10.1303
-11.5336
-12.6129
-13.7518
-14.6079
-15.3161
-15.8636
-16.0449
-15.8746
-15.3272
-14.4431
-13.3075
-11.9923
-10.3989
-8.85247
-7.25123
-5.62567
-4.0819
-2.67682
-1.11843
0.0498278
1.36691
2.57885
3.74997
4.9215
6.16142
7.24405
8.62007
9.93306
11.4559
13.0222
14.7534
16.5211
18.5512
20.5186
22.7171
24.7005
26.8033
28.6143
30.3817
31.7377
32.7697
33.0603
32.8703
31.8493
29.9589
27.0417
23.7087
19.8738
15.8066
11.7602
8.00474
4.71957
1.93336
-0.334758
-2.01679
-2.89267
-3.04013
-2.51467
-1.39502
0.70436
3.38739
6.49971
9.07446
11.0889
12.3189
13.0481
15.0923
15.0742
15.5588
15.9048
15.9818
15.8089
15.6466
15.4142
15.3963
15.2391
15.3595
15.2121
15.3626
15.1079
15.1756
14.8607
14.9106
14.6953
14.7635
14.7477
14.8545
15.0162
15.1696
15.4121
15.6108
15.8405
16.019
16.1979
16.2921
16.4095
16.3988
16.4298
16.3281
16.2406
16.0704
15.8251
15.6208
15.2098
14.9999
14.5046
14.2699
13.8235
13.5493
13.2337
12.9914
12.8137
12.7079
12.6448
12.7116
12.7416
12.9489
13.0687
13.3286
13.554
13.7844
14.0989
14.2893
14.6093
14.7873
15.0248
15.2029
15.3242
15.468
15.4758
15.5326
15.4113
15.3056
15.046
14.7003
14.3177
13.7099
13.1612
12.3679
11.7111
10.8613
10.2271
9.48281
8.85442
8.30235
7.665
7.2487
6.72054
6.33479
6.10438
5.94898
6.08777
6.38498
7.08845
7.80868
9.01691
10.1081
11.4672
12.793
13.9771
15.2186
16.1486
16.9989
17.6194
17.9878
18.3002
18.4331
18.5638
18.5558
18.4258
18.0964
17.6085
16.9465
16.0821
15.0948
14.0392
12.8589
11.9207
10.9887
10.384
9.95167
9.74046
9.65137
9.53206
9.46109
9.07117
8.60001
7.88358
6.87414
5.80571
4.44693
3.03665
1.40202
-0.189749
-1.8329
-3.45517
-5.06518
-6.56378
-7.98741
-9.29703
-10.5542
-11.589
-12.5402
-13.4006
-13.9344
-14.3764
-14.5161
-14.2985
-13.7891
-13.0216
-11.9161
-10.765
-9.30519
-7.82093
-6.37507
-4.89354
-3.39361
-2.1044
-0.630284
0.584924
1.8476
2.99769
4.13631
5.25547
6.56975
7.6448
8.93108
10.2492
11.7082
13.2178
14.8269
16.482
18.3349
20.0258
21.8787
23.6264
25.3453
26.9389
28.2845
29.2611
30.0488
30.349
29.9931
28.9417
27.181
24.7914
21.903
18.5473
14.926
11.5507
8.32741
5.52538
3.00278
1.15554
-0.135552
-0.715788
-0.845692
-0.397929
0.606476
2.44598
4.63332
6.87592
8.65181
9.78881
10.5147
10.9382
14.7538
14.8451
15.6996
16.2444
16.3051
15.9553
15.6364
15.3044
15.2598
15.0444
15.2439
15.1107
15.3913
15.1233
15.2857
14.918
15.0257
14.7453
14.8413
14.7673
14.871
14.9863
15.1186
15.3253
15.4872
15.7166
15.8509
16.0399
16.0794
16.233
16.1782
16.251
16.1132
16.0617
15.889
15.6581
15.4902
15.1048
14.9298
14.4754
14.271
13.8882
13.6208
13.375
13.1204
13.0022
12.8611
12.834
12.8577
12.8943
13.045
13.1754
13.3637
13.5897
13.7527
14.0612
14.1844
14.5059
14.6183
14.8524
14.9985
15.0798
15.2335
15.1838
15.246
15.1288
14.9948
14.7698
14.4421
14.0924
13.559
13.0716
12.3511
11.7667
11.0212
10.3747
9.75984
9.08481
8.61576
8.00583
7.57421
7.1799
6.80461
6.61494
6.50365
6.67014
6.95041
7.64351
8.27005
9.33898
10.3609
11.4712
12.7196
13.7168
14.8385
15.7458
16.4289
17.1113
17.4079
17.7191
17.8505
17.9271
17.8984
17.752
17.4593
16.9973
16.4104
15.6892
14.8062
13.927
12.8867
12.0403
11.1915
10.5766
10.1264
9.77067
9.62173
9.3529
9.13143
8.75617
8.18889
7.49851
6.54074
5.48897
4.26795
2.9199
1.48409
-0.0282038
-1.52483
-3.05375
-4.49101
-5.91416
-7.24344
-8.41468
-9.57239
-10.5514
-11.3343
-12.1245
-12.5979
-12.8811
-12.9678
-12.7504
-12.2349
-11.5388
-10.5119
-9.43488
-8.15305
-6.78772
-5.44078
-4.11708
-2.72069
-1.49029
-0.160704
1.0443
2.27894
3.44715
4.54192
5.5735
6.86087
8.05049
9.24026
10.545
11.867
13.3754
14.8482
16.3639
17.9381
19.5133
21.0443
22.5959
23.9522
25.2762
26.3119
27.179
27.6531
27.6935
27.0962
26.1159
24.567
22.4449
19.7709
16.9951
13.9375
11.0263
8.17647
5.8432
3.8053
2.44384
1.45626
1.05816
0.982522
1.4806
2.39126
3.83817
5.4514
7.01443
8.15716
8.80448
9.26528
9.70236
14.7179
14.8495
15.7844
16.3686
16.3978
15.9733
15.5565
15.2114
15.1572
14.9885
15.1693
15.0731
15.4116
15.1804
15.3849
15.039
15.1312
14.8425
14.8821
14.7838
14.834
14.8903
14.9836
15.1494
15.2791
15.4821
15.6135
15.7731
15.8198
15.9664
15.9206
16.0097
15.8505
15.8658
15.6592
15.4996
15.3181
15.0251
14.8384
14.4696
14.2845
13.9526
13.7278
13.4955
13.2791
13.1741
13.0195
13.024
12.988
13.0493
13.1241
13.2794
13.3865
13.6119
13.7234
13.9941
14.1042
14.3591
14.4764
14.648
14.8071
14.8313
15.0082
14.9053
14.9761
14.8648
14.7185
14.5134
14.1983
13.881
13.3913
12.9764
12.3297
11.8238
11.1712
10.5768
10.0556
9.4219
8.99432
8.45907
8.05615
7.74132
7.39897
7.25189
7.12837
7.34047
7.57917
8.16043
8.76856
9.60432
10.578
11.4877
12.5581
13.5191
14.3997
15.3247
15.8753
16.5326
16.861
17.1129
17.2839
17.3428
17.2958
17.1612
16.8902
16.4672
15.9713
15.3129
14.6025
13.7761
12.9433
12.1453
11.3692
10.7886
10.2795
9.89027
9.56455
9.27413
8.88349
8.47556
7.86769
7.1538
6.27255
5.21231
4.11522
2.8448
1.54033
0.120818
-1.19692
-2.64915
-3.92635
-5.20449
-6.47044
-7.50921
-8.53996
-9.47448
-10.1496
-10.8124
-11.2599
-11.4465
-11.4583
-11.2272
-10.7424
-10.1085
-9.21255
-8.18382
-7.07563
-5.88666
-4.59854
-3.38274
-2.10645
-0.875575
0.323666
1.50919
2.63985
3.83092
5.00508
5.98383
7.06715
8.34894
9.45516
10.7669
12.0054
13.4047
14.7631
16.1894
17.5186
18.9471
20.2562
21.5198
22.6182
23.6827
24.4489
25.0353
25.1942
25.0682
24.3841
23.2974
21.7132
19.8348
17.5446
15.2609
12.6574
10.1791
7.85037
6.00563
4.3772
3.25281
2.4793
2.26198
2.34734
2.87425
3.71423
4.91076
6.16013
7.26677
7.95022
8.34348
8.72037
9.27683
15.2042
15.1514
15.5948
15.882
15.8141
15.5092
15.2299
15.0131
15.0568
14.9995
15.1616
15.1216
15.4069
15.2474
15.4355
15.1833
15.2049
14.9373
14.8993
14.7587
14.7657
14.7263
14.8111
14.8902
15.0108
15.1653
15.3142
15.429
15.5129
15.6465
15.6456
15.7343
15.5979
15.6583
15.4559
15.3484
15.1859
14.9588
14.7698
14.4706
14.3013
14.0094
13.8082
13.603
13.3945
13.329
13.1371
13.1914
13.0951
13.1792
13.1936
13.3676
13.4126
13.6314
13.7222
13.9319
14.0758
14.233
14.3849
14.5059
14.6443
14.6809
14.7973
14.7193
14.7525
14.6434
14.498
14.2858
14.0062
13.7211
13.2785
12.9234
12.3497
11.9401
11.3636
10.8343
10.3694
9.79776
9.39813
8.90498
8.57331
8.26685
7.95657
7.8715
7.71981
7.97435
8.14156
8.60903
9.1698
9.81251
10.6857
11.4703
12.3719
13.2974
14.0069
14.8695
15.3902
15.9363
16.3213
16.5557
16.7143
16.8145
16.7767
16.5974
16.4504
16.0101
15.6028
15.018
14.4196
13.635
13.0146
12.2111
11.5092
11.0042
10.3642
9.99736
9.53183
9.17596
8.68904
8.25159
7.58971
6.86952
6.05772
5.023
3.97665
2.85485
1.6162
0.289908
-0.849059
-2.19123
-3.3907
-4.48149
-5.63479
-6.63058
-7.4797
-8.33184
-8.96906
-9.4834
-9.8648
-10.0371
-9.97579
-9.7477
-9.32153
-8.73828
-7.97014
-7.02545
-5.99346
-4.96976
-3.78548
-2.62299
-1.50225
-0.286417
0.835712
2.02135
3.08589
4.15067
5.32073
6.41355
7.37668
8.56056
9.61618
10.9053
12.1544
13.364
14.6365
15.9912
17.147
18.3302
19.4548
20.4206
21.3015
21.9791
22.345
22.6288
22.4937
22.06
21.3186
20.0499
18.4354
16.8777
15.0661
13.1566
11.0033
9.04849
7.28289
5.86709
4.63902
3.78911
3.28163
3.23737
3.50508
4.06648
4.88305
5.9228
6.92067
7.76979
8.2754
8.62323
9.08739
9.65926
17.5548
16.9591
15.7207
15.0499
14.707
14.6124
14.6058
14.7501
14.968
15.0835
15.2439
15.2467
15.3985
15.2768
15.4087
15.2519
15.2406
15.0208
14.9719
14.8177
14.8223
14.676
14.767
14.7058
14.8325
14.9041
15.0683
15.1254
15.2437
15.3754
15.4024
15.5109
15.3804
15.4948
15.2863
15.2235
15.0802
14.8981
14.7113
14.4687
14.3012
14.0587
13.8532
13.7024
13.48
13.4718
13.2432
13.3448
13.2172
13.2894
13.3055
13.4311
13.4882
13.6468
13.7446
13.9071
14.04
14.1598
14.2847
14.4098
14.4921
14.5705
14.6303
14.5632
14.5991
14.4612
14.3401
14.1263
13.8813
13.6321
13.231
12.9323
12.417
12.0717
11.5687
11.0894
10.6691
10.1701
9.80268
9.33813
9.06254
8.73442
8.46143
8.41939
8.23226
8.48566
8.58832
8.95907
9.4798
9.97142
10.7388
11.4447
12.1721
13.0344
13.6412
14.3901
14.961
15.3633
15.8093
16.0453
16.1925
16.2951
16.3082
16.0862
16.0361
15.6327
15.2495
14.7822
14.2436
13.5139
13.026
12.2428
11.5995
11.1171
10.4419
10.0298
9.5471
9.07219
8.56196
8.08629
7.3779
6.66267
5.87621
4.94244
3.85207
2.91238
1.73362
0.524557
-0.530377
-1.67966
-2.83676
-3.82452
-4.80812
-5.75838
-6.46601
-7.20786
-7.78594
-8.20911
-8.48842
-8.64364
-8.57616
-8.35863
-7.98287
-7.45421
-6.75818
-5.93422
-4.95714
-4.00155
-2.98114
-1.88946
-0.876966
0.264598
1.34091
2.48264
3.58771
4.58627
5.58598
6.68454
7.72105
8.81995
9.80447
10.9608
12.2883
13.4018
14.5164
15.7348
16.8293
17.8218
18.6757
19.3141
19.8994
20.1894
20.1506
20.0079
19.4411
18.5774
17.5639
16.5234
14.9524
13.5686
12.1342
10.6041
8.93718
7.51515
6.23906
5.22808
4.4761
4.07685
3.99255
4.22127
4.72373
5.37708
6.20489
7.1659
8.03848
8.76219
9.23169
9.57615
10.111
10.6822
18.4747
17.6151
15.7053
14.6044
14.0595
14.0617
14.2293
14.5531
14.9115
15.1821
15.3859
15.4059
15.4275
15.3233
15.3457
15.2547
15.2086
15.0694
15.0368
14.9597
15.0045
14.8836
14.981
14.8607
14.9578
14.9225
15.0412
14.976
15.0756
15.1526
15.195
15.2961
15.1811
15.333
15.1258
15.1228
14.9681
14.8584
14.654
14.471
14.3211
14.0807
13.931
13.7538
13.5882
13.579
13.3655
13.4803
13.3572
13.3929
13.4518
13.4826
13.5796
13.6539
13.7452
13.892
13.9733
14.1072
14.1793
14.3307
14.3668
14.4551
14.5066
14.4365
14.4746
14.3507
14.2201
14.0424
13.8037
13.6012
13.2335
12.9702
12.5204
12.2093
11.7579
11.3323
10.9559
10.4927
10.1742
9.71859
9.49184
9.14862
8.92931
8.87819
8.68566
8.88864
8.94208
9.24378
9.67226
10.0729
10.7304
11.3616
11.9544
12.7356
13.2908
13.8812
14.5375
14.7961
15.3867
15.5266
15.6984
15.8161
15.8369
15.6752
15.5844
15.3036
14.9175
14.5486
14.0557
13.4267
12.9668
12.2565
11.6879
11.1388
10.5445
10.0256
9.57348
8.97622
8.49894
7.93965
7.2166
6.55344
5.71299
4.8913
3.84017
2.96026
1.86224
0.838281
-0.23301
-1.20116
-2.25449
-3.19003
-4.04528
-4.86625
-5.52616
-6.15461
-6.62662
-6.99385
-7.20243
-7.31351
-7.27056
-7.08912
-6.71787
-6.2336
-5.59136
-4.8653
-3.98797
-3.10083
-2.17645
-1.16927
-0.243782
0.818314
1.87697
2.86614
3.99658
5.05957
5.9322
6.90137
7.93173
9.10898
10.1355
11.0787
12.3357
13.5252
14.5682
15.5317
16.4585
17.4131
17.9964
18.2724
18.4972
18.4624
18.0436
17.3811
16.4131
15.2631
14.2339
13.0538
11.4456
10.1101
8.95204
7.79774
6.58851
5.66276
4.84534
4.31668
4.10363
4.19
4.52844
5.09195
5.87538
6.76142
7.71962
8.70522
9.56138
10.2765
10.8082
11.2112
11.7373
12.2821
18.9235
17.9828
15.8767
14.5554
13.8489
13.7927
13.9827
14.4037
14.8069
15.2096
15.4381
15.5395
15.4648
15.3804
15.3271
15.3191
15.1651
15.1118
14.9938
15.052
15.0638
15.0426
15.1921
15.0761
15.2726
15.1933
15.3636
15.2106
15.2763
15.2242
15.2101
15.1977
15.0422
15.1957
14.9747
15.0348
14.8722
14.8159
14.6375
14.4763
14.3926
14.1368
14.0571
13.8373
13.7253
13.6771
13.4881
13.5906
13.4639
13.4903
13.5561
13.5464
13.6603
13.6501
13.7733
13.8268
13.9414
14.0032
14.0792
14.1549
14.2189
14.3496
14.3418
14.3434
14.3398
14.2755
14.1399
13.9956
13.7758
13.6
13.2848
13.0133
12.6381
12.3451
11.9452
11.5412
11.2528
10.7733
10.5307
10.0693
9.87523
9.56663
9.31115
9.27383
9.04581
9.20669
9.22395
9.47245
9.79847
10.1368
10.6831
11.1525
11.7156
12.3295
12.9092
13.4038
14.0413
14.2651
14.8313
15.0031
15.1635
15.3849
15.3095
15.3225
15.1923
14.9421
14.7133
14.3155
13.8831
13.4176
12.8721
12.2743
11.7835
11.1128
10.6438
10.034
9.58359
8.92651
8.44133
7.83757
7.09333
6.49134
5.61268
4.80874
3.89904
2.98295
1.9949
1.118
0.0933433
-0.793257
-1.68542
-2.52073
-3.34346
-3.97108
-4.61931
-5.13776
-5.50178
-5.81453
-6.01425
-6.06344
-6.02763
-5.86215
-5.50012
-5.02956
-4.4362
-3.78296
-3.01086
-2.23212
-1.36681
-0.424958
0.429633
1.36509
2.42618
3.30233
4.319
5.42031
6.32822
7.26355
8.192
9.30722
10.4325
11.3951
12.4238
13.5535
14.6772
15.566
16.2056
16.9892
17.4572
17.58
17.3832
16.9911
16.2294
15.1069
13.7942
12.3427
11.0364
9.68007
8.17107
6.91054
5.90366
4.9819
4.15062
3.64702
3.2998
3.32765
3.60289
4.1136
4.85501
5.87963
7.02705
8.21874
9.37043
10.4743
11.4434
12.2938
12.9458
13.404
13.8052
14.1998
19.2319
18.3416
16.152
14.681
13.8226
13.6957
13.841
14.2854
14.6826
15.159
15.4232
15.5852
15.4624
15.3777
15.2905
15.2531
15.134
15.0764
14.9728
15.0501
15.0577
15.1292
15.1904
15.2077
15.2966
15.3439
15.4822
15.3794
15.4809
15.3825
15.3703
15.2903
15.0782
15.1746
14.9517
14.9856
14.8595
14.7952
14.6829
14.5166
14.4928
14.2506
14.2054
13.9785
13.8769
13.8049
13.6248
13.6993
13.5851
13.5698
13.6466
13.572
13.726
13.6282
13.7847
13.7571
13.891
13.9064
14.007
14.1282
14.1031
14.2599
14.1858
14.2516
14.1797
14.1933
14.028
13.9411
13.767
13.5824
13.3586
13.0551
12.7946
12.4791
12.1482
11.76
11.5346
11.0697
10.8204
10.4443
10.1921
9.98099
9.63987
9.62337
9.38926
9.4818
9.48078
9.62956
9.87972
10.1189
10.5942
10.9153
11.4753
11.9089
12.4615
12.9183
13.411
13.7674
14.1946
14.4758
14.6257
14.9253
14.815
14.9616
14.8312
14.5914
14.5492
14.0874
13.7544
13.4176
12.8248
12.3094
11.8986
11.1373
10.7217
10.1382
9.54853
8.94737
8.40759
7.73005
7.02258
6.41081
5.55024
4.7422
3.96499
3.03355
2.16169
1.33691
0.448622
-0.419648
-1.16296
-1.86518
-2.63483
-3.13589
-3.70743
-4.12893
-4.44338
-4.65716
-4.86417
-4.86606
-4.79985
-4.62167
-4.29367
-3.84286
-3.31223
-2.69794
-2.03381
-1.34908
-0.539688
0.302789
1.1094
1.94821
2.95087
3.7638
4.68794
5.71701
6.62779
7.63028
8.59433
9.5119
10.5741
11.7456
12.6523
13.5154
14.6707
15.7128
16.2401
16.7295
17.0197
17.1073
16.671
15.9457
14.8134
13.3914
11.7616
9.99118
8.31903
6.616
5.31349
4.12535
3.16827
2.34798
1.85112
1.67605
1.73734
2.17467
2.8499
3.8426
5.11537
6.64546
8.17917
9.7196
11.1725
12.5159
13.7001
14.676
15.3334
15.741
15.9953
16.1597
19.4654
18.5988
16.351
14.7652
13.8259
13.6718
13.8037
14.2425
14.643
15.1192
15.4205
15.5971
15.4611
15.387
15.258
15.2378
15.1026
15.0725
14.9646
15.0427
15.0662
15.118
15.2113
15.182
15.2798
15.3238
15.3705
15.3358
15.3247
15.3888
15.3353
15.3208
15.1573
15.1816
15.0344
15.003
14.9069
14.8166
14.7326
14.5681
14.5553
14.3298
14.3065
14.0639
14.0139
13.8842
13.7561
13.7794
13.6617
13.6486
13.6453
13.6299
13.705
13.6371
13.7616
13.6901
13.8443
13.7987
13.9192
13.9963
13.9751
14.1386
14.0515
14.1222
14.0655
14.0697
13.9793
13.8671
13.7639
13.5796
13.4082
13.1384
12.9152
12.6245
12.3706
11.9882
11.8078
11.3912
11.1123
10.8572
10.4918
10.3651
10.0025
9.90274
9.74642
9.6908
9.67533
9.78144
9.89271
10.0953
10.4613
10.6415
11.1878
11.4479
11.9625
12.4232
12.7327
13.292
13.557
13.928
14.1403
14.3944
14.4146
14.5813
14.4959
14.3529
14.3513
13.9347
13.6829
13.3813
12.8268
12.374
11.9858
11.2344
10.807
10.262
9.51189
9.04922
8.38422
7.62531
7.03402
6.31327
5.48507
4.75436
3.98689
3.06642
2.34671
1.52204
0.744359
-0.00926767
-0.669558
-1.28042
-1.89259
-2.38885
-2.80553
-3.15896
-3.42362
-3.56501
-3.73553
-3.68312
-3.60649
-3.41996
-3.12987
-2.70582
-2.25399
-1.66801
-1.078
-0.460802
0.254504
0.996886
1.72133
2.50184
3.41756
4.18636
5.08147
6.0664
6.85482
7.78551
9.00038
9.89611
10.6255
11.8148
12.9431
13.6754
14.5385
15.6598
16.4002
16.7493
16.7658
16.721
16.2553
15.3488
13.8423
12.2139
10.2902
8.28187
6.38694
4.48807
3.10623
1.89292
0.977579
0.24342
-0.0149078
-0.0454875
0.309687
0.989901
2.05922
3.45622
5.23631
7.20426
9.23568
11.2132
13.0665
14.6485
16.0004
17.0257
17.7001
18.1152
18.2052
18.1109
19.4953
18.6802
16.4463
14.8521
13.8967
13.7888
13.9249
14.3498
14.7348
15.1687
15.4593
15.6258
15.5009
15.4154
15.2872
15.2418
15.1248
15.0787
14.9926
15.0355
15.0587
15.1105
15.1861
15.165
15.2322
15.275
15.3016
15.2528
15.236
15.2526
15.2703
15.2458
15.1418
15.1565
15.0674
15.0131
14.9447
14.817
14.7617
14.5848
14.565
14.3652
14.3321
14.1339
14.0736
13.9494
13.8408
13.8177
13.6815
13.6846
13.6144
13.6545
13.626
13.6219
13.6892
13.6447
13.7722
13.7129
13.8368
13.8681
13.8898
14.0112
13.9487
14.0103
13.9775
13.9715
13.9317
13.8132
13.7527
13.5988
13.4516
13.2457
13.0407
12.7939
12.598
12.2244
12.0855
11.6931
11.4319
11.2162
10.8046
10.7196
10.3346
10.1862
10.0427
9.86519
9.85089
9.83878
9.85407
10.0044
10.2343
10.359
10.8413
11.0043
11.4595
11.9381
12.1319
12.8098
12.995
13.387
13.7501
13.8726
14.1348
14.2271
14.2265
14.2102
14.1303
13.8813
13.6483
13.3597
12.903
12.4938
12.0597
11.387
10.9277
10.3528
9.54238
9.13718
8.35803
7.54907
7.05314
6.19255
5.39152
4.79215
3.93273
3.10646
2.51005
1.71256
0.985169
0.431914
-0.20863
-0.744823
-1.17048
-1.65125
-1.92607
-2.25509
-2.43582
-2.56948
-2.64386
-2.57868
-2.50433
-2.31303
-2.03928
-1.66334
-1.2556
-0.726325
-0.194907
0.378586
0.996294
1.64634
2.24645
2.97443
3.78478
4.53414
5.44168
6.42931
7.14042
7.88544
9.13267
10.2036
10.8659
11.7396
12.9201
13.9156
14.6846
15.4806
16.2875
16.9171
16.9419
16.5675
15.9541
15.0508
13.4127
11.5663
9.29003
7.1711
5.04837
3.0785
1.56566
0.227762
-0.586286
-1.25519
-1.36348
-1.30655
-0.751908
0.0637987
1.4385
3.10012
5.31112
7.66503
10.2384
12.565
14.7788
16.5748
18.1682
19.2962
20.0176
20.3738
20.2666
19.8955
19.3185
18.5745
16.4792
14.9487
14.0694
13.9498
14.1615
14.5348
14.8832
15.2378
15.4695
15.6088
15.4951
15.4243
15.2897
15.2522
15.1471
15.0999
15.0433
15.0287
15.082
15.0643
15.1655
15.1036
15.1768
15.2062
15.2052
15.2084
15.1467
15.2578
15.1885
15.1791
15.1132
15.077
15.0658
14.946
14.9336
14.7916
14.7577
14.6103
14.5379
14.397
14.2882
14.1781
14.098
13.9718
13.9079
13.8185
13.7295
13.697
13.6044
13.6594
13.5496
13.603
13.5926
13.6031
13.6884
13.6481
13.7646
13.7499
13.8062
13.8838
13.8589
13.9262
13.885
13.9149
13.8724
13.7992
13.7658
13.6272
13.5277
13.3584
13.1712
12.9956
12.7735
12.501
12.3258
12.0005
11.7705
11.485
11.177
10.9864
10.6523
10.4471
10.2561
10.0327
9.94976
9.8524
9.79431
9.88732
9.96169
10.1107
10.4098
10.6077
10.9809
11.3845
11.6466
12.2519
12.5041
12.9229
13.3244
13.4649
13.8823
13.9044
14.056
14.1056
13.9836
13.911
13.6711
13.3854
13.0304
12.6404
12.1106
11.5671
11.0422
10.3703
9.66778
9.13675
8.33496
7.5498
7.00963
6.08405
5.35739
4.76997
3.86297
3.16627
2.61673
1.87323
1.21731
0.833164
0.206129
-0.222434
-0.532777
-0.931066
-1.19098
-1.40328
-1.53774
-1.65666
-1.64981
-1.59869
-1.50331
-1.30629
-1.05419
-0.722649
-0.322844
0.130774
0.628599
1.12221
1.69848
2.27787
2.74201
3.37667
4.10278
4.7825
5.69711
6.72669
7.41151
8.09058
9.17007
10.1859
11.0655
11.9434
12.7064
13.7612
15.0296
15.7619
16.0362
16.6476
17.2043
16.8657
15.986
14.7742
13.0603
11.0856
8.63039
6.37028
3.91521
1.95019
0.24068
-1.01543
-1.71698
-2.37854
-2.38325
-2.25218
-1.53104
-0.574133
1.0435
2.9485
5.50308
8.13118
11.0701
13.6909
16.2689
18.2876
20.0811
21.2322
21.9388
22.1908
21.9388
21.3922
18.8736
18.193
16.4164
15.1061
14.4002
14.3102
14.5052
14.82
15.081
15.3346
15.4769
15.5621
15.4686
15.3994
15.2814
15.2264
15.1584
15.0817
15.0745
15.0091
15.0773
15.0298
15.1112
15.0625
15.1148
15.1383
15.1203
15.1522
15.0827
15.1743
15.1103
15.1148
15.0698
15.0216
15.033
14.9125
14.9046
14.7819
14.7475
14.6313
14.5292
14.4499
14.3029
14.233
14.1242
14.0049
13.9606
13.8256
13.7705
13.7128
13.5965
13.6635
13.4925
13.5978
13.5129
13.5459
13.6344
13.5353
13.7371
13.6176
13.7635
13.7593
13.7591
13.873
13.7819
13.8852
13.831
13.7954
13.7902
13.6722
13.5974
13.4843
13.2887
13.1992
12.9415
12.766
12.5608
12.259
12.0932
11.7256
11.5327
11.2189
10.9373
10.6882
10.4068
10.2065
9.98989
9.86342
9.72097
9.74119
9.70442
9.84758
10.0089
10.2032
10.5655
10.8347
11.2764
11.7057
12.0609
12.5544
12.8771
13.2226
13.5825
13.687
13.9521
13.9707
13.9601
13.9189
13.7103
13.4649
13.1431
12.749
12.2254
11.7325
11.1329
10.4348
9.80179
9.12347
8.31404
7.6154
6.87644
6.02862
5.37646
4.64884
3.84814
3.23677
2.67291
1.97139
1.49754
1.0823
0.583733
0.251266
-0.00854685
-0.297474
-0.53387
-0.619847
-0.772357
-0.80155
-0.795659
-0.722744
-0.619701
-0.414847
-0.189438
0.117331
0.488738
0.90945
1.35684
1.7671
2.31043
2.79612
3.21085
3.72263
4.36139
4.98002
5.85427
6.8501
7.52719
8.28093
9.35469
10.1256
10.8813
12.0381
12.8805
13.4674
14.5414
15.9028
16.4426
16.6452
16.7668
16.5286
15.7406
14.521
12.8453
10.8057
8.34487
5.92452
3.34991
1.34367
-0.579674
-1.77389
-2.77027
-3.11616
-3.10623
-2.85935
-2.0272
-0.946983
0.874492
2.97763
5.75284
8.5935
11.7835
14.6658
17.4541
19.6408
21.5348
22.6695
23.3597
23.5301
23.2035
22.5507
18.188
17.6084
16.342
15.3858
14.8925
14.7916
14.9132
15.1211
15.2655
15.4124
15.4632
15.4961
15.4141
15.358
15.2611
15.2083
15.1597
15.0849
15.0913
15.0093
15.0654
15.0037
15.0601
15.0237
15.0533
15.0764
15.0383
15.0978
15.0246
15.1094
15.0525
15.0559
15.0438
14.971
15.014
14.8919
14.9319
14.7911
14.7367
14.6628
14.5241
14.4883
14.3175
14.2632
14.144
14.0297
13.9771
13.835
13.7846
13.7113
13.596
13.6378
13.473
13.5638
13.4692
13.4987
13.5736
13.4686
13.6794
13.5293
13.6967
13.6771
13.6835
13.81
13.7255
13.8446
13.8056
13.7996
13.808
13.7258
13.6651
13.591
13.4231
13.3445
13.1223
12.9644
12.7614
12.5021
12.3133
11.9846
11.7737
11.4287
11.1741
10.8447
10.5707
10.3047
10.0308
9.86718
9.63513
9.61914
9.49831
9.6008
9.70205
9.84356
10.2234
10.4719
10.9228
11.3121
11.7499
12.2123
12.5953
13.0344
13.3174
13.6002
13.8493
13.8782
14.004
13.9176
13.7525
13.5843
13.2191
12.8507
12.3653
11.8374
11.2215
10.5252
9.87238
9.11317
8.32296
7.59998
6.75897
6.02147
5.32296
4.54281
3.87346
3.29725
2.65533
2.10032
1.71841
1.24904
0.926826
0.643878
0.428416
0.211637
0.0712652
-0.0144038
-0.116081
-0.103936
-0.100535
-0.00860278
0.105899
0.281101
0.517658
0.798341
1.11998
1.53316
1.93201
2.31609
2.75623
3.16548
3.54385
3.98527
4.51692
5.12652
5.97986
6.87681
7.45999
8.23875
9.46209
10.2516
10.7248
11.6468
12.7242
13.5402
14.4047
15.3412
16.0691
16.6066
16.8529
16.5223
15.654
14.3098
12.5626
10.5139
8.15094
5.74047
3.31378
1.23141
-0.695366
-1.92658
-3.04319
-3.31116
-3.47956
-3.02018
-2.20482
-0.948751
0.98012
3.23819
6.15283
9.14582
12.4807
15.4945
18.3864
20.659
22.5492
23.6612
24.3268
24.4148
24.0138
23.2793
17.3811
17.0143
16.347
15.7959
15.4779
15.343
15.3246
15.3834
15.4128
15.4592
15.454
15.4415
15.3772
15.324
15.2474
15.1917
15.1492
15.0824
15.0806
15.0126
15.0385
14.9935
15.0181
15.0034