/*--------------------------------*- C++ -*----------------------------------*\
| =========                 |                                                 |
| \\      /  F ield         | OpenFOAM: The Open Source CFD Toolbox           |
|  \\    /   O peration     | Version:  2.4.0                                 |
|   \\  /    A nd           | Web:      www.OpenFOAM.org                      |
|    \\/     M anipulation  |                                                 |
\*---------------------------------------------------------------------------*/
FoamFile
{
    version     2.0;
    format      ascii;
    class       surfaceScalarField;
    location    "1.42";
    object      phi_0;
}
// * * * * * * * * * * * * * * * * * * * * * * * * * * * * * * * * * * * * * //

dimensions      [0 3 -1 0 0 0 0];

internalField   nonuniform List<scalar> 
17320
(
1.7639e-05
7.36105e-06
1.16171e-05
6.02183e-06
8.68107e-06
2.93606e-06
7.36084e-06
1.32022e-06
6.71058e-06
6.50261e-07
6.35039e-06
3.60195e-07
6.07627e-06
2.74116e-07
5.87067e-06
2.05597e-07
5.70468e-06
1.65997e-07
5.58316e-06
1.21514e-07
5.49273e-06
9.04312e-08
5.37647e-06
1.16265e-07
5.3028e-06
7.36672e-08
5.26827e-06
3.45267e-08
5.09955e-06
1.68723e-07
5.14229e-06
-4.27414e-08
4.97424e-06
1.68053e-07
5.05892e-06
-8.46826e-08
4.86944e-06
1.89484e-07
-5.61262e-07
5.4307e-06
2.54625e-05
6.89859e-06
2.32452e-05
8.23903e-06
2.09937e-05
5.18766e-06
1.93226e-05
2.99123e-06
1.80704e-05
1.90252e-06
1.71215e-05
1.30912e-06
1.63642e-05
1.0314e-06
1.57736e-05
7.9622e-07
1.53048e-05
6.34728e-07
1.49443e-05
4.82038e-07
1.46384e-05
3.9638e-07
1.43682e-05
3.86458e-07
1.41502e-05
2.91639e-07
1.39781e-05
2.06605e-07
1.36955e-05
4.51303e-07
1.36446e-05
8.16954e-09
1.33293e-05
4.83356e-07
1.34022e-05
-1.57597e-07
1.32723e-05
3.19456e-07
-8.15238e-07
1.35262e-05
2.66204e-05
5.27815e-06
2.71466e-05
7.71284e-06
2.67923e-05
5.54199e-06
2.62518e-05
3.53177e-06
2.56064e-05
2.54786e-06
2.48789e-05
2.03667e-06
2.41629e-05
1.74734e-06
2.35034e-05
1.45569e-06
2.29235e-05
1.2147e-06
2.24693e-05
9.36262e-07
2.2025e-05
8.40589e-07
2.16789e-05
7.32631e-07
2.13664e-05
6.04155e-07
2.10962e-05
4.76787e-07
2.07773e-05
7.70164e-07
2.06222e-05
1.63268e-07
2.02711e-05
8.34451e-07
2.02652e-05
-1.51709e-07
2.02046e-05
3.80133e-07
-1.34694e-06
2.07363e-05
2.63239e-05
3.95422e-06
2.75221e-05
6.51464e-06
2.81015e-05
4.96264e-06
2.84544e-05
3.17889e-06
2.86639e-05
2.33836e-06
2.8628e-05
2.07257e-06
2.84783e-05
1.897e-06
2.82493e-05
1.68467e-06
2.79333e-05
1.53067e-06
2.77375e-05
1.13215e-06
2.74035e-05
1.17453e-06
2.71731e-05
9.63093e-07
2.69471e-05
8.30131e-07
2.66537e-05
7.7016e-07
2.64649e-05
9.58946e-07
2.6216e-05
4.1223e-07
2.59495e-05
1.10091e-06
2.58306e-05
-3.28316e-08
2.55838e-05
6.26924e-07
-1.1188e-06
2.53557e-05
2.60422e-05
2.91204e-06
2.71847e-05
5.37217e-06
2.80602e-05
4.08713e-06
2.84775e-05
2.76151e-06
2.90274e-05
1.78847e-06
2.93239e-05
1.77612e-06
2.95844e-05
1.63646e-06
2.97766e-05
1.49255e-06
2.97836e-05
1.52361e-06
2.99548e-05
9.60977e-07
2.99321e-05
1.19718e-06
2.99307e-05
9.64549e-07
3.00645e-05
6.9627e-07
2.97995e-05
1.03516e-06
3.00078e-05
7.50733e-07
2.97694e-05
6.50582e-07
2.96863e-05
1.18402e-06
2.95674e-05
8.60604e-08
2.93605e-05
8.33808e-07
-6.19711e-07
2.88614e-05
2.59297e-05
1.9823e-06
2.692e-05
4.38194e-06
2.78368e-05
3.17025e-06
2.81539e-05
2.44442e-06
2.87618e-05
1.18065e-06
2.91062e-05
1.43172e-06
2.9419e-05
1.3236e-06
2.97866e-05
1.12494e-06
2.99369e-05
1.37335e-06
3.01987e-05
6.99147e-07
3.04056e-05
9.90336e-07
3.04246e-05
9.45471e-07
3.09083e-05
2.12625e-07
3.06054e-05
1.33805e-06
3.11879e-05
1.68179e-07
3.09394e-05
8.99162e-07
3.12228e-05
9.00617e-07
3.07952e-05
5.13579e-07
3.11418e-05
4.87235e-07
6.16831e-07
2.99053e-05
2.55912e-05
1.39107e-06
2.67387e-05
3.23443e-06
2.76594e-05
2.24964e-06
2.79522e-05
2.15154e-06
2.85801e-05
5.52751e-07
2.87712e-05
1.24069e-06
2.93269e-05
7.67812e-07
2.93672e-05
1.0847e-06
2.98994e-05
8.41186e-07
2.9881e-05
7.17512e-07
3.0304e-05
5.67361e-07
3.03344e-05
9.15027e-07
3.07049e-05
-1.57822e-07
3.05733e-05
1.4696e-06
3.12535e-05
-5.11964e-07
3.07933e-05
1.35934e-06
3.16145e-05
7.94163e-08
3.06845e-05
1.44359e-06
3.13885e-05
-2.16787e-07
2.72627e-06
2.9279e-05
2.54596e-05
9.31438e-07
2.65506e-05
2.14342e-06
2.73239e-05
1.47638e-06
2.79768e-05
1.49865e-06
2.82645e-05
2.65059e-07
2.87571e-05
7.48051e-07
2.89374e-05
5.87528e-07
2.92335e-05
7.88572e-07
2.97542e-05
3.20475e-07
2.9603e-05
8.68711e-07
3.01809e-05
-1.05151e-08
3.01209e-05
9.75008e-07
3.04266e-05
-4.63529e-07
3.07945e-05
1.10173e-06
3.07117e-05
-4.292e-07
3.09995e-05
1.07159e-06
3.12559e-05
-1.76929e-07
3.11993e-05
1.50018e-06
3.23796e-05
-1.39708e-06
3.14049e-06
3.19653e-05
2.56987e-05
2.32703e-07
2.64307e-05
1.41142e-06
2.73598e-05
5.47271e-07
2.79807e-05
8.77834e-07
2.82299e-05
1.58222e-08
2.87246e-05
2.53359e-07
2.86665e-05
6.45574e-07
2.93794e-05
7.56867e-08
2.93473e-05
3.52633e-07
2.99063e-05
3.09701e-07
2.98129e-05
8.29092e-08
3.00996e-05
6.88282e-07
3.04482e-05
-8.12199e-07
3.0439e-05
1.11096e-06
3.06371e-05
-6.27256e-07
3.1033e-05
6.75613e-07
3.10654e-05
-2.09282e-07
3.13407e-05
1.22484e-06
3.18251e-05
-1.88142e-06
3.53621e-06
3.14294e-05
2.53289e-05
-9.62363e-08
2.65168e-05
2.23608e-07
2.72197e-05
-1.55662e-07
2.79689e-05
1.28633e-07
2.82535e-05
-2.68773e-07
2.834e-05
1.66847e-07
2.90275e-05
-4.18925e-08
2.89981e-05
1.05047e-07
2.9481e-05
-1.30263e-07
2.97009e-05
8.9807e-08
2.98303e-05
-4.65352e-08
3.03066e-05
2.12048e-07
3.00592e-05
-5.64873e-07
3.05358e-05
6.34422e-07
3.06747e-05
-7.66182e-07
3.07402e-05
6.10142e-07
3.11163e-05
-5.85398e-07
3.14169e-05
9.24202e-07
3.13707e-05
-1.83515e-06
2.84031e-06
3.20666e-05
2.54142e-05
-5.10461e-07
2.6394e-05
-7.56187e-07
2.72763e-05
-1.03797e-06
2.79297e-05
-5.24715e-07
2.81072e-05
-4.46259e-07
2.85764e-05
-3.02351e-07
2.87608e-05
-2.26295e-07
2.92579e-05
-3.92054e-07
2.94052e-05
-2.77624e-07
2.96062e-05
-1.11157e-07
2.99504e-05
-3.90766e-07
3.0071e-05
9.14949e-08
3.01565e-05
-6.50438e-07
3.06231e-05
1.67883e-07
3.04616e-05
-6.0469e-07
3.0906e-05
1.65696e-07
3.09679e-05
-6.47243e-07
3.15015e-05
3.90576e-07
3.12378e-05
-1.5714e-06
1.73165e-06
3.23464e-05
2.54571e-05
-9.67538e-07
2.65787e-05
-1.87786e-06
2.73287e-05
-1.78791e-06
2.79142e-05
-1.11023e-06
2.82732e-05
-8.05251e-07
2.8524e-05
-5.53191e-07
2.89031e-05
-6.05372e-07
2.92544e-05
-7.433e-07
2.93987e-05
-4.21985e-07
2.98096e-05
-5.21993e-07
2.99469e-05
-5.28089e-07
3.01583e-05
-1.19932e-07
3.03334e-05
-8.25558e-07
3.0527e-05
-2.56552e-08
3.06078e-05
-6.85522e-07
3.10267e-05
-2.53205e-07
3.10796e-05
-7.00177e-07
3.14694e-05
7.64054e-10
3.14251e-05
-1.52702e-06
1.2277e-06
3.1929e-05
2.55132e-05
-1.4807e-06
2.65449e-05
-2.90965e-06
2.74364e-05
-2.67932e-06
2.80608e-05
-1.7347e-06
2.83019e-05
-1.04629e-06
2.87196e-05
-9.70894e-07
2.89873e-05
-8.73089e-07
2.93e-05
-1.05597e-06
2.95713e-05
-6.93338e-07
2.98361e-05
-7.86798e-07
3.00052e-05
-6.97215e-07
3.03204e-05
-4.35125e-07
3.03273e-05
-8.32424e-07
3.0691e-05
-3.89319e-07
3.0775e-05
-7.69579e-07
3.10156e-05
-4.93782e-07
3.11663e-05
-8.50888e-07
3.16295e-05
-4.62422e-07
3.14724e-05
-1.36989e-06
4.65952e-07
3.22341e-05
2.5671e-05
-2.15169e-06
2.67786e-05
-4.01729e-06
2.7602e-05
-3.5027e-06
2.80645e-05
-2.19721e-06
2.84506e-05
-1.43232e-06
2.88355e-05
-1.35582e-06
2.91812e-05
-1.21876e-06
2.9491e-05
-1.36585e-06
2.97399e-05
-9.42213e-07
3.00385e-05
-1.0854e-06
3.02234e-05
-8.82089e-07
3.04553e-05
-6.67042e-07
3.05736e-05
-9.50672e-07
3.08531e-05
-6.68875e-07
3.08645e-05
-7.80949e-07
3.1184e-05
-8.13311e-07
3.12926e-05
-9.59488e-07
3.16941e-05
-8.63904e-07
3.17265e-05
-1.40227e-06
-2.024e-07
3.23948e-05
2.58247e-05
-2.97635e-06
2.69699e-05
-5.16256e-06
2.78078e-05
-4.3406e-06
2.82496e-05
-2.63901e-06
2.8711e-05
-1.89371e-06
2.91e-05
-1.74483e-06
2.94393e-05
-1.55802e-06
2.96975e-05
-1.62405e-06
2.99825e-05
-1.2272e-06
3.01943e-05
-1.29726e-06
3.03896e-05
-1.07737e-06
3.05726e-05
-8.50063e-07
3.0672e-05
-1.05005e-06
3.0858e-05
-8.54812e-07
3.09127e-05
-8.35743e-07
3.1105e-05
-1.00557e-06
3.11652e-05
-1.01968e-06
3.14073e-05
-1.10597e-06
3.14852e-05
-1.48017e-06
-7.35654e-07
3.20184e-05
2.60313e-05
-4.00764e-06
2.72557e-05
-6.38697e-06
2.80294e-05
-5.1143e-06
2.85036e-05
-3.11319e-06
2.89595e-05
-2.3496e-06
2.9312e-05
-2.09735e-06
2.9589e-05
-1.83505e-06
2.97144e-05
-1.74942e-06
2.98753e-05
-1.38811e-06
2.99144e-05
-1.33642e-06
2.99494e-05
-1.11229e-06
2.99769e-05
-8.7755e-07
2.99234e-05
-9.96586e-07
2.99116e-05
-8.4302e-07
2.98457e-05
-7.69879e-07
2.97904e-05
-9.50194e-07
2.96651e-05
-8.94377e-07
2.96463e-05
-1.08721e-06
2.9508e-05
-1.34187e-06
-9.26161e-07
2.96985e-05
2.63062e-05
-5.31381e-06
2.75621e-05
-7.64294e-06
2.80646e-05
-5.61672e-06
2.84508e-05
-3.49949e-06
2.86318e-05
-2.53056e-06
2.86191e-05
-2.08464e-06
2.8481e-05
-1.69694e-06
2.82189e-05
-1.48733e-06
2.79901e-05
-1.15928e-06
2.76811e-05
-1.02742e-06
2.74143e-05
-8.45508e-07
2.71781e-05
-6.41364e-07
2.68823e-05
-7.00824e-07
2.66494e-05
-6.10111e-07
2.64129e-05
-5.33389e-07
2.61337e-05
-6.71006e-07
2.58691e-05
-6.29681e-07
2.55901e-05
-8.08215e-07
2.52673e-05
-1.01914e-06
-8.94912e-07
2.52361e-05
2.66055e-05
-6.91926e-06
2.71682e-05
-8.20564e-06
2.6765e-05
-5.21357e-06
2.62519e-05
-2.98639e-06
2.55991e-05
-1.87775e-06
2.4869e-05
-1.35456e-06
2.41638e-05
-9.91729e-07
2.34955e-05
-8.19048e-07
2.2943e-05
-6.06722e-07
2.24344e-05
-5.18831e-07
2.20174e-05
-4.28474e-07
2.16817e-05
-3.05749e-07
2.13287e-05
-3.47808e-07
2.10421e-05
-3.23506e-07
2.07752e-05
-2.66491e-07
2.04639e-05
-3.59682e-07
2.01842e-05
-3.50002e-07
1.98113e-05
-4.35266e-07
1.93614e-05
-5.69229e-07
-1.99318e-07
1.86658e-05
2.54494e-05
-7.36869e-06
2.32546e-05
-6.01083e-06
2.09808e-05
-2.93971e-06
1.932e-05
-1.32568e-06
1.80759e-05
-6.33641e-07
1.71063e-05
-3.84973e-07
1.63697e-05
-2.55065e-07
1.57678e-05
-2.17164e-07
1.53129e-05
-1.51774e-07
1.49268e-05
-1.32777e-07
1.46155e-05
-1.17139e-07
1.43789e-05
-6.91576e-08
1.41265e-05
-9.54606e-08
1.39052e-05
-1.02231e-07
1.37099e-05
-7.11862e-08
1.34663e-05
-1.16011e-07
1.32313e-05
-1.14992e-07
1.29342e-05
-1.38189e-07
1.26163e-05
-2.51374e-07
5.3346e-08
1.23637e-05
1.76313e-05
1.16205e-05
8.68077e-06
7.35509e-06
6.72145e-06
6.33648e-06
6.08141e-06
5.86425e-06
5.71247e-06
5.5797e-06
5.46256e-06
5.3934e-06
5.29794e-06
5.19571e-06
5.12452e-06
5.00851e-06
4.89352e-06
4.75533e-06
4.50396e-06
4.5573e-06
5.88175e-06
-3.88931e-07
-6.21154e-08
6.2277e-06
-2.38014e-07
-1.07943e-07
6.45106e-06
-1.17367e-07
-1.05986e-07
6.60388e-06
-6.79071e-08
-8.49144e-08
6.75425e-06
-8.89926e-08
-6.1375e-08
6.94422e-06
-1.31901e-07
-5.80771e-08
7.16959e-06
-1.63746e-07
-6.16225e-08
7.39491e-06
-1.43999e-07
-8.13233e-08
7.61748e-06
-1.33871e-07
-8.86935e-08
7.79206e-06
-6.87778e-08
-1.05805e-07
7.94817e-06
-6.76362e-08
-8.84698e-08
8.03956e-06
1.64497e-08
-1.07847e-07
8.15973e-06
-2.07343e-08
-9.9436e-08
8.23484e-06
8.44729e-08
-1.59577e-07
8.3827e-06
-1.06168e-08
-1.37248e-07
8.45971e-06
9.71073e-08
-1.74117e-07
8.62282e-06
-8.43112e-08
-7.8795e-08
8.6945e-06
1.14616e-08
-8.31389e-08
8.86331e-06
-2.34647e-07
6.58349e-08
8.90161e-06
-1.1863e-07
8.03266e-08
9.05205e-06
-3.71683e-07
2.21249e-07
9.08369e-06
-2.3039e-07
1.98749e-07
9.21597e-06
-4.45469e-07
3.13186e-07
9.23684e-06
-2.80657e-07
2.5979e-07
9.34556e-06
-4.43794e-07
3.35074e-07
9.35151e-06
-2.56605e-07
2.50652e-07
9.4345e-06
-3.84024e-07
3.01031e-07
9.42167e-06
-1.78278e-07
1.9111e-07
9.48232e-06
-2.83205e-07
2.22555e-07
9.44481e-06
-6.71967e-08
1.04705e-07
9.48506e-06
-1.60717e-07
1.20472e-07
9.43576e-06
6.76315e-08
-1.83291e-08
9.47859e-06
-1.13011e-08
-3.15369e-08
9.44056e-06
2.34836e-07
-1.96798e-07
9.52214e-06
1.55897e-07
-2.37478e-07
9.51704e-06
4.13434e-07
-4.08338e-07
9.62857e-06
2.96014e-07
-4.07541e-07
9.66986e-06
5.5743e-07
-5.98726e-07
9.83173e-06
3.88656e-07
-5.50527e-07
9.90069e-06
6.56018e-07
-7.24978e-07
1.01112e-05
3.98243e-07
-6.08745e-07
1.02038e-05
6.68502e-07
-7.61141e-07
1.04372e-05
3.20047e-07
-5.53409e-07
1.0521e-05
5.79269e-07
-6.6306e-07
1.07505e-05
1.58592e-07
-3.88071e-07
1.08092e-05
4.19796e-07
-4.78577e-07
1.10161e-05
-3.93336e-08
-1.67537e-07
1.10407e-05
2.36176e-07
-2.60802e-07
1.12373e-05
-2.48176e-07
5.16176e-08
1.12405e-05
7.00052e-08
-7.32051e-08
1.14302e-05
-4.33217e-07
2.43485e-07
1.14177e-05
-5.84299e-08
7.09485e-08
1.1598e-05
-5.91716e-07
4.11454e-07
1.15619e-05
-1.54559e-07
1.90678e-07
1.17268e-05
-7.09307e-07
5.44401e-07
1.16588e-05
-2.17046e-07
2.84995e-07
1.17905e-05
-7.80888e-07
6.49244e-07
1.17046e-05
-2.27762e-07
3.13614e-07
1.17891e-05
-8.04924e-07
7.2046e-07
1.16629e-05
-1.79929e-07
3.06079e-07
1.17157e-05
-7.8275e-07
7.29974e-07
1.15609e-05
-5.37203e-08
2.08493e-07
1.15814e-05
-7.07376e-07
6.86922e-07
1.14443e-05
1.0419e-07
3.29052e-08
1.14764e-05
-5.73481e-07
5.41331e-07
1.13773e-05
3.50076e-07
-2.50971e-07
1.14656e-05
-3.72151e-07
2.83867e-07
1.14713e-05
6.95791e-07
-7.01488e-07
1.15951e-05
-8.34998e-08
-4.03156e-08
1.17278e-05
1.09382e-06
-1.22645e-06
1.19516e-05
2.6986e-07
-4.93715e-07
1.21421e-05
1.47875e-06
-1.66924e-06
1.24423e-05
5.38251e-07
-8.38418e-07
1.25654e-05
1.72423e-06
-1.84739e-06
1.2923e-05
5.91384e-07
-9.48971e-07
1.29372e-05
1.82795e-06
-1.84214e-06
1.33233e-05
4.94228e-07
-8.80317e-07
1.32847e-05
1.86113e-06
-1.82248e-06
1.37182e-05
3.45122e-07
-7.7869e-07
1.37069e-05
1.85836e-06
-1.84705e-06
1.42644e-05
1.17106e-07
-6.74611e-07
1.4355e-05
1.7177e-06
-1.80828e-06
1.499e-05
-2.88696e-07
-3.46247e-07
1.51827e-05
1.18739e-06
-1.38018e-06
1.58667e-05
-1.01656e-06
3.32607e-07
1.60634e-05
2.87761e-07
-4.84416e-07
1.67289e-05
-1.99939e-06
1.33385e-06
1.69007e-05
-8.21641e-07
6.49884e-07
1.7431e-05
-2.87704e-06
2.34674e-06
1.7564e-05
-1.74728e-06
1.61428e-06
1.80726e-05
-3.45334e-06
2.94472e-06
1.81011e-05
-2.21369e-06
2.18516e-06
1.85802e-05
-3.49768e-06
3.01854e-06
1.85246e-05
-2.05625e-06
2.11191e-06
1.90207e-05
-3.03206e-06
2.53597e-06
1.88717e-05
-1.42232e-06
1.57128e-06
1.90903e-05
-2.18176e-06
1.96323e-06
1.87901e-05
-6.06298e-07
9.06423e-07
1.86921e-05
-1.27092e-06
1.36891e-06
1.81717e-05
1.34671e-07
3.85758e-07
1.80591e-05
-5.41284e-07
6.53933e-07
1.74688e-05
9.29882e-07
-3.39602e-07
1.72236e-05
1.69926e-07
7.52952e-08
1.66303e-05
1.59631e-06
-1.00302e-06
1.64133e-05
9.0351e-07
-6.86567e-07
1.58933e-05
2.35114e-06
-1.83112e-06
1.57965e-05
1.64466e-06
-1.54785e-06
1.54613e-05
3.01915e-06
-2.68391e-06
1.55584e-05
2.13444e-06
-2.23162e-06
1.53923e-05
3.31118e-06
-3.14503e-06
1.55783e-05
2.11905e-06
-2.30507e-06
1.54592e-05
3.0248e-06
-2.90566e-06
1.56724e-05
1.49872e-06
-1.71194e-06
1.55557e-05
2.21536e-06
-2.09864e-06
1.57754e-05
5.84899e-07
-8.04646e-07
1.56649e-05
1.50271e-06
-1.39217e-06
1.5916e-05
7.82201e-08
-3.29365e-07
1.58094e-05
1.42255e-06
-1.31593e-06
1.61982e-05
1.8606e-07
-5.74832e-07
1.60709e-05
1.95468e-06
-1.82746e-06
1.64922e-05
7.46226e-07
-1.16745e-06
1.64178e-05
2.64052e-06
-2.56621e-06
1.68409e-05
1.39382e-06
-1.81688e-06
1.67924e-05
3.31346e-06
-3.26492e-06
1.71255e-05
1.88239e-06
-2.21554e-06
1.72237e-05
3.71716e-06
-3.81531e-06
1.74381e-05
2.18141e-06
-2.39583e-06
1.77458e-05
3.73375e-06
-4.04144e-06
1.78075e-05
2.26901e-06
-2.33071e-06
1.82896e-05
3.46434e-06
-3.94643e-06
1.83575e-05
2.06199e-06
-2.12996e-06
1.88565e-05
3.03532e-06
-3.53425e-06
1.89899e-05
1.63724e-06
-1.77066e-06
1.95573e-05
2.51321e-06
-3.08062e-06
1.9734e-05
1.11174e-06
-1.28844e-06
2.03378e-05
1.84858e-06
-2.4524e-06
2.06342e-05
4.6918e-07
-7.65554e-07
2.12749e-05
9.28312e-07
-1.56902e-06
2.15704e-05
-5.45482e-07
2.49989e-07
2.21731e-05
-4.24782e-07
-1.77896e-07
2.22538e-05
-1.92666e-06
1.84596e-06
2.2674e-05
-2.11869e-06
1.69844e-06
2.25259e-05
-3.40675e-06
3.5549e-06
2.27507e-05
-3.61615e-06
3.39131e-06
2.25034e-05
-4.69295e-06
4.94023e-06
2.26658e-05
-4.74529e-06
4.58292e-06
2.23501e-05
-5.56497e-06
5.88072e-06
2.25302e-05
-5.42849e-06
5.24839e-06
2.22049e-05
-5.99391e-06
6.31922e-06
2.23861e-05
-5.61056e-06
5.4293e-06
2.21342e-05
-6.18908e-06
6.44101e-06
2.2327e-05
-5.5591e-06
5.36629e-06
2.21428e-05
-6.22404e-06
6.40822e-06
2.23894e-05
-5.48206e-06
5.23543e-06
2.22701e-05
-6.23983e-06
6.35922e-06
2.25074e-05
-5.38413e-06
5.14677e-06
2.2482e-05
-6.25109e-06
6.27655e-06
2.26583e-05
-5.34425e-06
5.16794e-06
2.26372e-05
-6.36365e-06
6.38469e-06
2.27965e-05
-5.36019e-06
5.20089e-06
2.28019e-05
-6.3319e-06
6.32649e-06
2.29065e-05
-5.436e-06
5.33144e-06
2.29103e-05
-6.46836e-06
6.46458e-06
2.2883e-05
-5.52233e-06
5.54965e-06
2.2902e-05
-6.4799e-06
6.46088e-06
2.27619e-05
-5.44467e-06
5.58476e-06
2.27066e-05
-6.38039e-06
6.43571e-06
2.23832e-05
-5.21657e-06
5.53994e-06
2.22163e-05
-5.86085e-06
6.02777e-06
2.16316e-05
-4.39001e-06
4.97471e-06
2.12777e-05
-4.7131e-06
5.06697e-06
2.06221e-05
-3.02702e-06
3.68259e-06
2.00716e-05
-2.9422e-06
3.49272e-06
1.91464e-05
-1.0832e-06
2.00846e-06
1.86177e-05
-7.96459e-07
1.32507e-06
1.8111e-05
1.1413e-06
-6.34574e-07
1.80328e-05
1.8153e-06
-1.73704e-06
1.84466e-05
3.62437e-06
-4.03825e-06
2.01432e-05
4.22754e-06
-5.92415e-06
2.19555e-05
6.65428e-06
-8.46653e-06
2.4259e-05
7.4259e-06
-9.72946e-06
2.54432e-05
9.87063e-06
-1.10548e-05
2.65058e-05
9.62688e-06
-1.06894e-05
2.62616e-05
1.12741e-05
-1.10299e-05
2.63072e-05
9.662e-06
-9.70758e-06
2.55288e-05
1.07058e-05
-9.9274e-06
2.55215e-05
7.93858e-06
-7.93133e-06
2.47669e-05
8.95841e-06
-8.20379e-06
2.46932e-05
5.57045e-06
-5.49681e-06
2.38332e-05
6.88141e-06
-6.02133e-06
2.34232e-05
3.06595e-06
-2.65596e-06
2.22149e-05
4.70283e-06
-3.49457e-06
2.14776e-05
4.11157e-07
3.262e-07
2.01287e-05
2.20879e-06
-8.59961e-07
1.93249e-05
-2.39527e-06
3.19911e-06
1.76066e-05
4.43049e-07
1.27528e-06
1.62912e-05
-3.40104e-06
4.71639e-06
1.39691e-05
9.69252e-07
1.35287e-06
1.29907e-05
-2.39447e-06
3.37289e-06
4.27374e-06
-5.15301e-06
1.38699e-05
1.35284e-05
-3.91138e-07
1.35275e-05
-2.37115e-07
1.35159e-05
-1.05701e-07
1.35183e-05
-7.03069e-08
1.35662e-05
-1.36926e-07
1.36488e-05
-2.1448e-07
1.37603e-05
-2.75223e-07
1.38697e-05
-2.53416e-07
1.39993e-05
-2.63517e-07
1.4074e-05
-1.43435e-07
1.41796e-05
-1.73229e-07
1.41952e-05
8.28975e-10
1.42983e-05
-1.2381e-07
1.42925e-05
9.02908e-08
1.44401e-05
-1.58234e-07
1.44344e-05
1.02806e-07
1.46283e-05
-2.78193e-07
1.46154e-05
2.43216e-08
1.48197e-05
-4.3895e-07
1.4789e-05
-8.79432e-08
1.49747e-05
-5.57414e-07
1.49364e-05
-1.92031e-07
1.50922e-05
-6.01276e-07
1.50484e-05
-2.36829e-07
1.51721e-05
-5.67491e-07
1.51145e-05
-1.99074e-07
1.52082e-05
-4.77735e-07
1.51291e-05
-9.91309e-08
1.519e-05
-3.44102e-07
1.50958e-05
2.69941e-08
1.5132e-05
-1.96948e-07
1.50396e-05
1.60092e-07
1.50771e-05
-4.88151e-08
1.50038e-05
3.08098e-07
1.50669e-05
9.28684e-08
1.50285e-05
4.51766e-07
1.51244e-05
2.00136e-07
1.51136e-05
5.68246e-07
1.52678e-05
2.344e-07
1.52712e-05
6.5263e-07
1.548e-05
1.89515e-07
1.54945e-05
6.53971e-07
1.5739e-05
7.55167e-08
1.57637e-05
5.54628e-07
1.601e-05
-8.77557e-08
1.60443e-05
3.8549e-07
1.62823e-05
-2.77347e-07
1.63139e-05
2.04575e-07
1.65447e-05
-4.7893e-07
1.65691e-05
4.56339e-08
1.67981e-05
-6.62261e-07
1.68027e-05
-6.30263e-08
1.70212e-05
-8.10193e-07
1.70008e-05
-1.34233e-07
1.7188e-05
-8.96427e-07
1.71549e-05
-1.8401e-07
1.72758e-05
-9.01794e-07
1.72312e-05
-1.83111e-07
1.7276e-05
-8.49711e-07
1.71905e-05
-9.44788e-08
1.71754e-05
-7.67617e-07
1.70361e-05
8.55418e-08
1.69727e-05
-6.43961e-07
1.67754e-05
3.01531e-07
1.66824e-05
-4.80496e-07
1.64496e-05
5.82877e-07
1.63754e-05
-2.97933e-07
1.6147e-05
9.24142e-07
1.61781e-05
-1.14539e-07
1.59916e-05
1.28025e-06
1.61971e-05
6.43782e-08
1.60745e-05
1.60133e-06
1.6466e-05
1.46732e-07
1.63748e-05
1.81546e-06
1.6851e-05
1.15205e-07
1.67599e-05
1.91904e-06
1.72468e-05
7.27706e-09
1.71763e-05
1.93165e-06
1.76403e-05
-1.18873e-07
1.76791e-05
1.81961e-06
1.81234e-05
-3.27281e-07
1.83007e-05
1.54048e-06
1.88265e-05
-8.14571e-07
1.90439e-05
9.70072e-07
1.96271e-05
-1.59977e-06
1.9858e-05
5.68697e-08
2.03434e-05
-2.48486e-06
2.05369e-05
-1.0151e-06
2.09278e-05
-3.26795e-06
2.10378e-05
-1.85728e-06
2.13954e-05
-3.81099e-06
2.13742e-05
-2.19243e-06
2.17198e-05
-3.84331e-06
2.16776e-05
-2.01401e-06
2.20126e-05
-3.36711e-06
2.19978e-05
-1.40747e-06
2.23275e-05
-2.51152e-06
2.22862e-05
-5.6499e-07
2.25333e-05
-1.51805e-06
2.23056e-05
3.62448e-07
2.23341e-05
-5.6977e-07
2.19495e-05
1.31446e-06
2.17365e-05
3.82911e-07
2.11833e-05
2.14955e-06
2.09985e-05
1.08827e-06
2.05197e-05
2.8299e-06
2.04892e-05
1.67521e-06
2.02041e-05
3.30425e-06
2.03178e-05
2.02077e-06
2.01977e-05
3.43123e-06
2.03856e-05
1.93113e-06
2.02936e-05
3.11684e-06
2.04242e-05
1.36808e-06
2.02502e-05
2.38936e-06
2.02385e-05
5.96665e-07
1.99746e-05
1.76662e-06
1.99081e-05
1.44696e-07
1.97022e-05
1.62839e-06
1.95991e-05
2.89241e-07
1.96066e-05
1.94719e-06
1.95373e-05
8.15481e-07
1.97521e-05
2.4257e-06
1.97907e-05
1.35525e-06
2.01541e-05
2.95003e-06
2.02396e-05
1.79695e-06
2.07089e-05
3.24782e-06
2.07761e-05
2.11421e-06
2.12708e-05
3.23901e-06
2.13363e-05
2.20358e-06
2.17734e-05
3.02719e-06
2.18748e-05
1.96063e-06
2.22476e-05
2.66252e-06
2.2357e-05
1.52782e-06
2.27615e-05
2.10872e-06
2.28853e-05
9.87965e-07
2.33702e-05
1.36364e-06
2.35605e-05
2.78916e-07
2.41115e-05
3.77331e-07
2.42706e-05
-7.04646e-07
2.47953e-05
-9.49489e-07
2.48279e-05
-1.95923e-06
2.51785e-05
-2.46934e-06
2.5076e-05
-3.30424e-06
2.52585e-05
-3.79859e-06
2.50446e-05
-4.47904e-06
2.51852e-05
-4.88594e-06
2.49008e-05
-5.28053e-06
2.50455e-05
-5.57323e-06
2.47917e-05
-5.74006e-06
2.49828e-05
-5.80174e-06
2.47656e-05
-5.97184e-06
2.50781e-05
-5.87159e-06
2.49211e-05
-6.06707e-06
2.52652e-05
-5.82612e-06
2.5163e-05
-6.13766e-06
2.54846e-05
-5.70569e-06
2.53992e-05
-6.16576e-06
2.56891e-05
-5.63408e-06
2.55304e-05
-6.20498e-06
2.57592e-05
-5.58897e-06
2.5619e-05
-6.1917e-06
2.5803e-05
-5.61999e-06
2.56427e-05
-6.30807e-06
2.56886e-05
-5.56826e-06
2.54836e-05
-6.27487e-06
2.54576e-05
-5.41867e-06
2.52138e-05
-6.13662e-06
2.49955e-05
-4.99826e-06
2.4708e-05
-5.57339e-06
2.44428e-05
-4.12479e-06
2.41677e-05
-4.43796e-06
2.38182e-05
-2.67757e-06
2.36933e-05
-2.81723e-06
2.33527e-05
-7.42632e-07
2.3084e-05
-5.27771e-07
2.25403e-05
1.685e-06
2.25442e-05
1.81145e-06
2.1906e-05
4.26254e-06
2.18948e-05
4.23867e-06
2.19557e-05
6.5934e-06
2.35777e-05
5.8039e-06
2.49614e-05
8.48693e-06
2.70413e-05
7.54703e-06
2.80784e-05
1.0237e-05
2.9085e-05
8.65537e-06
2.90674e-05
1.07235e-05
2.87501e-05
8.25589e-06
2.80668e-05
9.64167e-06
2.71332e-05
6.50405e-06
2.63953e-05
7.61929e-06
2.51585e-05
4.30281e-06
2.44275e-05
5.43383e-06
2.30313e-05
1.80731e-06
2.24947e-05
2.74544e-06
2.0786e-05
-6.86654e-07
1.98387e-05
1.39035e-06
1.75301e-05
-1.09243e-06
1.67302e-05
1.76915e-06
1.49019e-05
-5.66137e-07
2.47714e-06
1.66985e-05
2.05055e-05
-1.60382e-07
2.02554e-05
1.30158e-08
2.00635e-05
8.61206e-08
2.00166e-05
-2.33609e-08
2.00459e-05
-1.66223e-07
2.00974e-05
-2.66007e-07
2.0154e-05
-3.31812e-07
2.01888e-05
-2.88176e-07
2.02659e-05
-3.40592e-07
2.02902e-05
-1.67747e-07
2.0395e-05
-2.78078e-07
2.03746e-05
2.11947e-08
2.05045e-05
-2.53684e-07
2.04347e-05
1.60062e-07
2.06061e-05
-3.29569e-07
2.05028e-05
2.06108e-07
2.07299e-05
-5.0536e-07
2.06025e-05
1.5176e-07
2.08503e-05
-6.86755e-07
2.07151e-05
4.73051e-08
2.09507e-05
-7.93011e-07
2.0821e-05
-6.23573e-08
2.10306e-05
-8.10874e-07
2.0914e-05
-1.20241e-07
2.10955e-05
-7.4903e-07
2.09768e-05
-8.03653e-08
2.11204e-05
-6.21256e-07
2.10016e-05
1.96362e-08
2.10977e-05
-4.40208e-07
2.09748e-05
1.49844e-07
2.10295e-05
-2.51647e-07
2.09183e-05
2.71371e-07
2.09521e-05
-8.26949e-08
2.08664e-05
3.9381e-07
2.09136e-05
4.56833e-08
2.08566e-05
5.08732e-07
2.09489e-05
1.07912e-07
2.09022e-05
6.14893e-07
2.10623e-05
7.43017e-08
2.10166e-05
6.98336e-07
2.12387e-05
-3.25737e-08
2.11971e-05
6.95602e-07
2.14567e-05
-1.84071e-07
2.14272e-05
5.8413e-07
2.16921e-05
-3.52719e-07
2.16777e-05
3.99869e-07
2.19414e-05
-5.40962e-07
2.19283e-05
2.17623e-07
2.21918e-05
-7.42385e-07
2.21686e-05
6.8813e-08
2.24304e-05
-9.24072e-07
2.2385e-05
-1.76689e-08
2.26404e-05
-1.06557e-06
2.25678e-05
-6.16672e-08
2.27987e-05
-1.12732e-06
2.27065e-05
-9.1774e-08
2.28894e-05
-1.08472e-06
2.27685e-05
-6.21729e-08
2.29128e-05
-9.94057e-07
2.27307e-05
8.76095e-08
2.28583e-05
-8.95208e-07
2.25977e-05
3.46216e-07
2.27169e-05
-7.63196e-07
2.23777e-05
6.40771e-07
2.2483e-05
-5.85846e-07
2.20898e-05
9.76112e-07
2.21916e-05
-3.99805e-07
2.17685e-05
1.34731e-06
2.18797e-05
-2.25785e-07
2.14578e-05
1.70216e-06
2.16091e-05
-8.68971e-08
2.12439e-05
1.96651e-06
2.1404e-05
-1.3306e-08
2.11413e-05
2.07809e-06
2.12888e-05
-3.22643e-08
2.11559e-05
2.05188e-06
2.12602e-05
-9.69519e-08
2.13048e-05
1.88706e-06
2.1384e-05
-1.98121e-07
2.16097e-05
1.59392e-06
2.17705e-05
-4.88104e-07
2.21099e-05
1.20111e-06
2.23858e-05
-1.09052e-06
2.27491e-05
6.06824e-07
2.30473e-05
-1.89799e-06
2.33991e-05
-2.94965e-07
2.36509e-05
-2.73665e-06
2.38855e-05
-1.2497e-06
2.40995e-05
-3.48193e-06
2.41932e-05
-1.95098e-06
2.42941e-05
-3.9119e-06
2.43063e-05
-2.2046e-06
2.43095e-05
-3.84648e-06
2.4313e-05
-2.01751e-06
2.42909e-05
-3.34499e-06
2.42862e-05
-1.40285e-06
2.43196e-05
-2.54485e-06
2.42878e-05
-5.33219e-07
2.43816e-05
-1.61188e-06
2.43063e-05
4.37769e-07
2.43908e-05
-6.54276e-07
2.42959e-05
1.40937e-06
2.43361e-05
3.42726e-07
2.41334e-05
2.35223e-06
2.40223e-05
1.19933e-06
2.38071e-05
3.04513e-06
2.36154e-05
1.86693e-06
2.34868e-05
3.43281e-06
2.33377e-05
2.16991e-06
2.33148e-05
3.45412e-06
2.32137e-05
2.03219e-06
2.32437e-05
3.08687e-06
2.3065e-05
1.54675e-06
2.30343e-05
2.42013e-06
2.26888e-05
9.42175e-07
2.25781e-05
1.87726e-06
2.21032e-05
6.19623e-07
2.20779e-05
1.65363e-06
2.16363e-05
7.30851e-07
2.17539e-05
1.82963e-06
2.15424e-05
1.02699e-06
2.17526e-05
2.21551e-06
2.17367e-05
1.37117e-06
2.21194e-05
2.56726e-06
2.21944e-05
1.72193e-06
2.27042e-05
2.73811e-06
2.28783e-05
1.9401e-06
2.34123e-05
2.70494e-06
2.36453e-05
1.97066e-06
2.41594e-05
2.51306e-06
2.43703e-05
1.74971e-06
2.48581e-05
2.17478e-06
2.50296e-05
1.35627e-06
2.55184e-05
1.61997e-06
2.56595e-05
8.4678e-07
2.61639e-05
8.59328e-07
2.62868e-05
1.55981e-07
2.67884e-05
-1.24267e-07
2.68866e-05
-8.02909e-07
2.73057e-05
-1.36851e-06
2.73424e-05
-1.99599e-06
2.75877e-05
-2.71465e-06
2.75468e-05
-3.26329e-06
2.77151e-05
-3.96691e-06
2.75681e-05
-4.33204e-06
2.77185e-05
-5.0363e-06
2.7562e-05
-5.12406e-06
2.76995e-05
-5.71076e-06
2.75806e-05
-5.62111e-06
2.77957e-05
-6.01691e-06
2.76676e-05
-5.84366e-06
2.79282e-05
-6.13223e-06
2.78348e-05
-5.97364e-06
2.8074e-05
-6.06531e-06
2.798e-05
-6.04366e-06
2.81481e-05
-5.87387e-06
2.79744e-05
-5.99201e-06
2.80963e-05
-5.75598e-06
2.78386e-05
-5.94727e-06
2.78934e-05
-5.64384e-06
2.76408e-05
-5.93909e-06
2.76086e-05
-5.58774e-06
2.73509e-05
-6.05039e-06
2.72778e-05
-5.49512e-06
2.69866e-05
-5.98371e-06
2.68284e-05
-5.26045e-06
2.64645e-05
-5.77268e-06
2.62159e-05
-4.74973e-06
2.58573e-05
-5.2148e-06
2.55507e-05
-3.81816e-06
2.54309e-05
-4.31812e-06
2.51833e-05
-2.43004e-06
2.51721e-05
-2.80605e-06
2.50084e-05
-5.78872e-07
2.54421e-05
-9.61474e-07
2.53422e-05
1.7849e-06
2.56448e-05
1.50886e-06
2.54016e-05
4.50569e-06
2.56397e-05
4.00061e-06
2.53417e-05
6.89134e-06
2.5436e-05
5.70961e-06
2.55515e-05
8.37148e-06
2.64611e-05
6.63744e-06
2.75297e-05
9.16843e-06
2.881e-05
7.37502e-06
2.98492e-05
9.68429e-06
3.03934e-05
7.71166e-06
3.0669e-05
9.36609e-06
3.0097e-05
7.07603e-06
2.96087e-05
8.1076e-06
2.83173e-05
5.59416e-06
2.7739e-05
6.01221e-06
2.63713e-05
3.17495e-06
2.57744e-05
3.34234e-06
2.38005e-05
1.2873e-06
2.28504e-05
2.3404e-06
2.04416e-05
1.31636e-06
2.00195e-05
2.19127e-06
1.82452e-05
1.20812e-06
1.40485e-06
1.93175e-05
2.53822e-05
-1.86921e-07
2.5442e-05
-4.67108e-08
2.55158e-05
1.23032e-08
2.5602e-05
-1.09621e-07
2.56415e-05
-2.05686e-07
2.568e-05
-3.04502e-07
2.56759e-05
-3.27692e-07
2.56611e-05
-2.73367e-07
2.5661e-05
-3.40568e-07
2.56387e-05
-1.45425e-07
2.56963e-05
-3.35693e-07
2.56524e-05
6.50832e-08
2.57737e-05
-3.74909e-07
2.56882e-05
2.45534e-07
2.58661e-05
-5.0746e-07
2.57254e-05
3.4683e-07
2.59559e-05
-7.35936e-07
2.57718e-05
3.35943e-07
2.60436e-05
-9.58595e-07
2.58425e-05
2.48435e-07
2.61304e-05
-1.08099e-06
2.59294e-05
1.38729e-07
2.62057e-05
-1.08717e-06
2.60012e-05
8.41767e-08
2.6265e-05
-1.0128e-06
2.60541e-05
1.30586e-07
2.6308e-05
-8.75177e-07
2.60928e-05
2.34813e-07
2.63293e-05
-6.76754e-07
2.61276e-05
3.51587e-07
2.63319e-05
-4.55975e-07
2.61519e-05
4.51404e-07
2.63162e-05
-2.46992e-07
2.61558e-05
5.54232e-07
2.63045e-05
-1.0301e-07
2.61636e-05
6.49643e-07
2.63238e-05
-5.2301e-08
2.61956e-05
7.43045e-07
2.64082e-05
-1.38283e-07
2.62782e-05
8.28377e-07
2.65563e-05
-3.10723e-07
2.64246e-05
8.27277e-07
2.67386e-05
-4.98081e-07
2.66161e-05
7.06657e-07
2.69227e-05
-6.59267e-07
2.68152e-05
5.07288e-07
2.70983e-05
-8.24061e-07
2.69898e-05
3.2617e-07
2.72637e-05
-1.01633e-06
2.71258e-05
2.06804e-07
2.74123e-05
-1.21057e-06
2.72274e-05
1.67144e-07
2.75397e-05
-1.37782e-06
2.73026e-05
1.7542e-07
2.76317e-05
-1.45644e-06
2.73536e-05
1.86369e-07
2.76734e-05
-1.40452e-06
2.73812e-05
2.30053e-07
2.7661e-05
-1.2739e-06
2.73573e-05
3.91275e-07
2.75914e-05
-1.12929e-06
2.72699e-05
6.67786e-07
2.74532e-05
-9.46519e-07
2.71216e-05
9.72351e-07
2.72392e-05
-7.03478e-07
2.69091e-05
1.30619e-06
2.69746e-05
-4.6523e-07
2.66482e-05
1.67373e-06
2.66661e-05
-2.43741e-07
2.6375e-05
1.99324e-06
2.63214e-05
-3.33151e-08
2.61e-05
2.18799e-06
2.59599e-05
1.26748e-07
2.58406e-05
2.19737e-06
2.56349e-05
1.73437e-07
2.56581e-05
2.0287e-06
2.54307e-05
1.30423e-07
2.55954e-05
1.72244e-06
2.54612e-05
-6.39864e-08
2.57174e-05
1.33775e-06
2.57576e-05
-5.28264e-07
2.60738e-05
8.84862e-07
2.62357e-05
-1.25237e-06
2.65566e-05
2.85891e-07
2.67425e-05
-2.08391e-06
2.69842e-05
-5.36688e-07
2.71492e-05
-2.90161e-06
2.72467e-05
-1.3472e-06
2.72887e-05
-3.52392e-06
2.73012e-05
-1.96348e-06
2.71335e-05
-3.74417e-06
2.71117e-05
-2.18285e-06
2.68205e-05
-3.5553e-06
2.67542e-05
-1.95118e-06
2.64902e-05
-3.08098e-06
2.6375e-05
-1.28762e-06
2.62232e-05
-2.39309e-06
2.60869e-05
-3.96962e-07
2.6045e-05
-1.5699e-06
2.59712e-05
5.11566e-07
2.5967e-05
-6.50084e-07
2.59879e-05
1.3884e-06
2.6014e-05
3.16658e-07
2.61017e-05
2.26457e-06
2.6084e-05
1.21695e-06
2.61902e-05
2.93897e-06
2.61222e-05