/*--------------------------------*- C++ -*----------------------------------*\
| =========                 |                                                 |
| \\      /  F ield         | OpenFOAM: The Open Source CFD Toolbox           |
|  \\    /   O peration     | Version:  2.4.0                                 |
|   \\  /    A nd           | Web:      www.OpenFOAM.org                      |
|    \\/     M anipulation  |                                                 |
\*---------------------------------------------------------------------------*/
FoamFile
{
    version     2.0;
    format      ascii;
    class       volScalarField;
    location    "1.42";
    object      pPrime2Mean;
}
// * * * * * * * * * * * * * * * * * * * * * * * * * * * * * * * * * * * * * //

dimensions      [0 4 -4 0 0 0 0];

internalField   nonuniform List<scalar> 
8800
(
455501
444013
431687
419465
407411
395531
383827
372298
360944
349765
338759
327925
317260
306758
296408
286193
276070
265964
255691
244679
455518
444015
431686
419465
407411
395531
383827
372298
360944
349765
338759
327926
317261
306760
296411
286198
276081
265987
255748
244865
455528
444014
431683
419463
407410
395531
383827
372298
360944
349765
338760
327926
317262
306763
296417
286209
276102
266032
255852
245228
455536
444014
431680
419461
407409
395530
383827
372298
360944
349765
338760
327928
317265
306767
296425
286225
276133
266095
255996
245650
455542
444014
431677
419458
407408
395530
383827
372298
360944
349766
338761
327929
317268
306773
296436
286245
276172
266174
256170
246087
455547
444014
431675
419457
407407
395530
383827
372298
360945
349766
338762
327931
317271
306780
296449
286269
276218
266265
256361
246513
455551
444015
431674
419455
407407
395530
383827
372298
360945
349766
338763
327933
317276
306787
296463
286296
276269
266364
256560
246918
455554
444015
431673
419454
407406
395530
383827
372298
360945
349767
338764
327936
317280
306796
296479
286325
276324
266468
256760
247295
455556
444016
431672
419453
407406
395530
383827
372298
360945
349768
338766
327938
317285
306805
296496
286356
276381
266574
256957
247643
455557
444016
431672
419453
407405
395530
383827
372298
360946
349768
338767
327941
317290
306814
296513
286387
276439
266679
257145
247959
455557
444016
431672
419453
407405
395530
383827
372299
360946
349769
338769
327944
317296
306824
296531
286418
276496
266780
257323
248245
455556
444016
431672
419454
407406
395530
383827
372299
360947
349770
338770
327947
317301
306833
296547
286449
276550
266876
257486
248500
455554
444016
431673
419454
407406
395530
383828
372299
360947
349771
338772
327950
317306
306842
296564
286478
276602
266966
257634
248725
455551
444015
431674
419456
407407
395530
383828
372300
360948
349772
338774
327952
317310
306851
296578
286505
276649
267047
257766
248920
455547
444015
431675
419457
407408
395531
383828
372300
360948
349773
338775
327955
317315
306858
296592
286529
276691
267118
257880
249087
455542
444014
431677
419459
407409
395531
383828
372300
360949
349774
338776
327957
317318
306865
296604
286549
276727
267178
257976
249225
455535
444014
431680
419461
407409
395531
383828
372301
360949
349775
338777
327959
317321
306870
296613
286567
276756
267227
258053
249336
455528
444014
431683
419463
407410
395532
383829
372301
360950
349775
338778
327960
317324
306874
296621
286580
276779
267265
258111
249418
455517
444015
431686
419465
407411
395532
383829
372301
360950
349776
338779
327961
317325
306877
296626
286589
276794
267290
258149
249472
455501
444013
431687
419466
407412
395532
383829
372302
360950
349776
338779
327961
317326
306879
296628
286593
276802
267303
258169
249498
234699
232011
229960
228187
226543
224979
223470
222004
220570
219162
217775
216406
215052
213710
212379
211058
209744
208437
207136
205841
204552
203268
201989
200716
199447
198183
196924
195668
194418
193172
191931
190695
189465
188242
187024
185812
184606
183405
182210
181020
179835
178654
177476
176303
175132
173965
172801
171641
170485
169333
168184
167038
165896
164756
163620
162487
161359
160235
159115
157999
156886
155777
154670
153566
152465
151369
150276
149189
148107
147029
145955
144885
143819
142757
141698
140643
139592
138545
137503
136466
135434
134408
133387
132371
131359
130351
129347
128345
127347
126352
125360
124370
123383
122399
121416
120437
119459
118485
117514
116546
115583
114624
113669
112720
111777
110839
109907
108982
108061
107147
106237
105333
104433
103538
102647
101760
100877
99998.1
99123.2
98252.6
97385.7
96523.3
95664.2
94809.6
93957.4
93109.6
92263.7
91422.1
90582.1
89745.9
88910.9
88079
87248.6
86420.7
85594.9
84772
83951.7
83134.7
82321
81511.3
80705.4
79904.1
79106.9
78314.6
77526.6
76743.5
75964.9
75191
74421
73655.2
72892.8
72134
71378
70625
69874.8
69127.5
68382.9
67641.9
66904
66170
65439.6
64714.5
63993.1
63278.4
62567.8
61864.1
61164.7
60473
59786.2
59107.4
58433
57767.1
57104.5
56451.5
55799.3
55158.9
54515.8
53886.7
53252.6
52632.3
52007.3
51394.5
50776.9
50167.8
49554
48943.6
48328.2
47712.6
47088.3
46461
45820.2
45170.8
44502.4
43817.1
43103.3
42360.1
41570.3
40717.9
39804.1
38700.4
236613
233750
231414
229403
227584
225883
224265
222706
221195
219719
218274
216854
215454
214072
212705
211351
210008
208675
207351
206035
204727
203426
202132
200844
199563
198287
197017
195753
194494
193241
191993
190752
189516
188287
187064
185848
184637
183433
182234
181040
179851
178667
177487
176311
175138
173969
172804
171643
170485
169331
168181
167035
165891
164751
163615
162483
161354
160230
159110
157994
156882
155772
154666
153563
152463
151367
150275
149188
148105
147027
145953
144884
143817
142755
141696
140642
139591
138544
137502
136466
135435
134409
133389
132373
131361
130353
129348
128347
127349
126354
125361
124372
123384
122399
121417
120437
119460
118486
117515
116549
115586
114628
113675
112727
111784
110848
109917
108991
108072
107157
106248
105343
104443
103547
102656
101768
100885
100006
99130.8
98260.3
97393.6
96531.6
95673.1
94819
93967.8
93120.9
92276.3
91435.4
90596.5
89760.5
88926.3
88094.4
87264.4
86436.5
85611
84788.2
83968.4
83151.9
82339.1
81530.4
80725.7
79925.5
79129.9
78338.9
77552.6
76770.7
75993.7
75221
74452.3
73687.3
72926.2
72168
71412.7
70660
69909.9
69162.1
68416.8
67674.4
66935.1
66199
65466.7
64739.1
64015.5
63297.5
62584
61876.1
61172.9
60476
59784
59098.6
58417.6
57744
57073.3
56411.4
55749.6
55098.9
54445.6
53803.7
53158.5
52523.4
51885.5
51255.2
50622.9
49993.7
49363.1
48731.4
48095.9
47456.8
46810.4
46155.8
45489.6
44806.9
44106.6
43378.5
42622.7
41816.9
40978.5
40011.8
39017.8
37891.6
237941
235100
232656
230503
228553
226740
225025
223384
221799
220261
218760
217290
215847
214426
213024
211638
210267
208909
207562
206226
204899
203581
202271
200970
199676
198389
197109
195836
194569
193309
192054
190807
189566
188332
187104
185883
184669
183460
182257
181060
179867
178680
177497
176318
175143
173973
172806
171643
170484
169329
168178
167030
165887
164747
163610
162478
161349
160225
159105
157989
156876
155767
154662
153559
152460
151365
150274
149187
148104
147026
145952
144883
143816
142754
141695
140641
139590
138544
137502
136466
135435
134410
133390
132374
131363
130355
129350
128349
127351
126356
125364
124374
123386
122401
121418
120438
119462
118488
117519
116553
115592
114635
113683
112737
111796
110860
109930
109005
108086
107172
106263
105357
104457
103560
102668
101780
100896
100017
99142
98271.8
97405.6
96544
95686.4
94832.8
93982.9
93136.5
92293.2
91452.9
90614.9
89779
88945.3
88113.2
87283.3
86455.3
85629.9
84807.1
83987.6
83171.6
82359.5
81551.8
80748.4
79949.8
79155.9
78366.6
77581.9
76801.8
76026.3
75254.6
74487
73722.9
72962.7
72205.3
71450.4
70698
69947.7
69199.1
68453
67709.2
66968
66229.9
65495.7
64765.6
64039.7
63318.7
62602.3
61890.3
61183.2
60481.4
59784
59092.1
58404
57722.6
57043
56371.7
55700.4
55038.1
54375.4
53720.1
53064.9
52414.3
51764.7
51116.5
50470.1
49821.5
49173.9
48521.3
47867.4
47204.3
46538.9
45856.7
45168.9
44453.7
43728.7
42957.7
42178.9
41309.5
40450.5
39427.2
38395.2
37303.8
238953
236187
233713
231480
229438
227537
225741
224027
222378
220782
219229
217713
216228
214769
213334
211918
210520
209137
207768
206411
205066
203732
202408
201093
199787
198489
197200
195918
194643
193375
192115
190861
189615
188376
187144
185918
184699
183486
182280
181078
179883
178692
177506
176325
175148
173976
172807
171643
170483
169327
168174
167026
165882
164742
163605
162473
161344
160220
159100
157984
156872
155763
154658
153556
152458
151364
150273
149187
148105
147027
145953
144883
143816
142754
141695
140641
139590
138544
137503
136467
135436
134411
133391
132376
131365
130357
129353
128352
127354
126359
125367
124377
123389
122404
121421
120442
119466
118494
117525
116561
115601
114646
113696
112750
111811
110876
109947
109023
108104
107189
106280
105374
104473
103575
102683
101794
100910
100030
99155.8
98285.8
97420.5
96559.3
95702.6
94849.6
94000.7
93154.9
92312.7
91472.8
90635.6
89799.7
88966.1
88133.6
87303.7
86475.4
85650
84827.2
84008
83192.3
82381.2
81574.2
80772.2
79974.8
79182.7
78395.1
77612.3
76833.8
76060.1
75289.5
74523.3
73760.1
73001
72244
71489.7
70737.2
69986.7
69237.2
68489.8
67744.1
67000.9
66260.6
65524.6
64791.9
64063.7
63339.9
62620.7
61904.9
61194.3
60487.6
59785
59086.4
58391.3
57701.6
57013.6
56331.8
55651.9
54977.6
54305.9
53637.4
52972
52307
51645.3
50980.6
50319.3
49652.2
48988.5
48314.4
47645
46956.9
46276
45565
44862.5
44111.4
43375.2
42557.7
41769.3
40852.2
39965.8
38949.2
37916.8
36865.1
239768
237077
234609
232339
230238
228270
226409
224632
222926
221277
219677
218118
216594
215100
213633
212188
210764
209357
207967
206591
205229
203879
202541
201213
199895
198587
197288
195998
194715
193441
192174
190915
189664
188420
187183
185953
184730
183513
182302
181098
179899
178705
177516
176333
175154
173979
172809
171644
170482
169325
168172
167023
165878
164738
163601
162468
161340
160216
159096
157980
156868
155759
154655
153554
152456
151363
150273
149188
148106
147028
145954
144883
143817
142754
141695
140640
139590
138544
137503
136467
135437
134412
133393
132378
131367
130360
129356
128355
127358
126363
125371
124381
123393
122408
121427
120448
119473
118501
117534
116572
115614
114660
113711
112767
111828
110895
109966
109042
108124
107209
106299
105392
104490
103592
102699
101809
100925
100045
99171.3
98301.4
97436.8
96576.1
95720.1
94867.5
94019.2
93173.9
92332.4
91493
90656.2
89820.2
88986.6
88153.8
87323.7
86495.1
85669.7
84846.8
84028.1
83212.6
82402.3
81595.8
80795.2
79998.8
79208.5
78422.3
77641.7
76864.8
76093.1
75324
74559.3
73797
73039.2
72282
71528.5
70775.7
70025
69274.2
68525.9
67777.8
67032.7
66289.8
65552.1
64816
64086.2
63359.3
62637.6
61918.5
61204.5
60492.9
59785.5
59080.1
58378.7
57679.8
56984.6
56292
55603.8
54918.3
54237.2
53556.8
52881.1
52202.2
51528.5
50847.4
50173.1
49486
48809.9
48112.2
47430.8
46716.8
46024.6
45283.6
44570.6
43786.7
43038
42190
41378.8
40453.9
39537.7
38555
37543.9
36521.4
240453
237828
235378
233092
230954
228938
227024
225196
223440
221745
220102
218504
216944
215417
213920
212448
210999
209570
208160
206766
205387
204022
202670
201330
200001
198683
197375
196076
194787
193506
192233
190969
189712
188463
187222
185988
184760
183540
182326
181117
179915
178719
177528
176342
175160
173984
172813
171646
170483
169325
168171
167022
165876
164735
163598
162466
161338
160213
159093
157978
156866
155758
154654
153553
152457
151364
150275
149189
148108
147030
145955
144885
143818
142754
141695
140640
139589
138543
137502
136467
135438
134413
133394
132379
131369
130362
129359
128359
127362
126368
125377
124387
123400
122416
121435
120456
119482
118512
117546
116585
115629
114676
113729
112786
111848
110915
109987
109063
108145
107229
106319
105411
104509
103610
102716
101826
100941
100061
99187.1
98317.1
97452.8
96592.2
95736.6
94884.1
94036.3
93191.2
92350.3
91511
90674.4
89838.4
89004.6
88171.7
87341.3
86512.3
85686.9
84864
84045.5
83230.3
82420.5
81614.4
80814.9
80019.8
79231.1
78446.6
77668.2
76892.8
76123.1
75355.3
74592.2
73831
73074.1
72316.7
71563.9
70810.4
70059.7
69307.6
68558.8
67808.3
67062.1
66316.4
65576.9
64837.3
64105.8
63375.7
62651.9
61928.9
61212.3
60496
59784.1
59071.6
58364.6
57656.3
56954.5
56251.7
55555.9
54859
54169.9
53476.7
52792.6
52098.8
51415.1
50716.8
50031.8
49325.5
48637.2
47919.8
47224.5
46491.2
45783.4
45023.3
44291.1
43490.6
42717.9
41862.7
41024.7
40114
39187.9
38232.2
37241.9
36238.2
241043
238471
236042
233751
231589
229539
227585
225715
223918
222183
220502
218868
217275
215719
214194
212697
211225
209775
208345
206934
205539
204160
202795
201444
200104
198777
197460
196154
194857
193570
192291
191021
189760
188506
187261
186022
184791
183567
182349
181138
179933
178734
177540
176352
175169
173991
172818
171649
170486
169327
168172
167022
165876
164735
163598
162466
161337
160213
159093
157978
156866
155758
154654
153554
152458
151365
150276
149191
148110
147031
145957
144886
143818
142754
141694
140639
139588
138542
137502
136467
135438
134414
133395
132381
131371
130365
129362
128363
127368
126375
125384
124395
123409
122425
121444
120467
119493
118524
117559
116599
115644
114694
113748
112806
111869
110936
110008
109084
108165
107249
106338
105430
104526
103627
102732
101842
100957
100076
99201.6
98331.2
97466.6
96605.7
95749.7
94897.2
94049.6
93204.8
92364.2
91524.9
90688.4
89852.4
89018.4
88185.2
87354.5
86525.2
85699.5
84876.7
84058.1
83243.3
82433.5
81628.4
80829.8
80036.2
79249.2
78466.8
77690.3
76916.5
76148.1
75381.4
74619.5
73858.9
73102.7
72345.1
71592.9
70839
70087.9
69335.3
68585.9
67833.4
67085.9
66338.2
65596.2
64853.9
64120.2
63387.3
62661.2
61935
61215.6
60495
59778.8
59060
58346.6
57631.1
56921.3
56209.9
55505.5
54799.2
54101.2
53397.8
52703.9
51998.6
51302.8
50592.2
49892.4
49173.8
48468.3
47739.5
47025.8
46282.2
45554.4
44786
44032.8
43226.3
42432.8
41580
40727.1
39832
38907.9
37966.5
36988.9
35997.5
241555
239026
236620
234330
232153
230078
228094
226190
224358
222589
220875
219209
217587
216003
214453
212932
211439
209970
208522
207095
205686
204293
202916
201553
200204
198867
197542
196228
194925
193631
192347
191072
189806
188548
187299
186056
184822
183594
182374
181159
179952
178750
177554
176364
175179
173999
172825
171655
170491
169331
168175
167025
165879
164737
163600
162467
161339
160215
159095
157979
156867
155760
154656
153556
152459
151367
150278
149193
148111
147032
145957
144885
143817
142753
141693
140638
139587
138541
137501
136466
135437
134414
133395
132382
131372
130367
129366
128367
127373
126381
125392
124404
123419
122435
121455
120477
119504
118536
117572
116613
115660
114710
113765
112824
111887
110955
110027
109103
108183
107267
106354
105445
104541
103641
102746
101855
100969
100089
99213.2
98342.3
97476.8
96615
95758.2
94905.2
94057.3
93212.4
92371.8
91532.5
90695.8
89859.6
89025.5
88192.1
87361.2
86531.6
85705.6
84882.7
84064.4
83250
82440.7
81636.8
80839.3
80047.3
79262
78481.9
77706.6
76934.7
76167
75401
74639.6
73879.7
73123.9
72365.5
71613.5
70859.8
70107.9
69355.8
68605.4
67852
67102.7
66353.3
65608.3
64864.3
64127.5
63393
62663.8
61936.1
61213.4
60489.3
59768.2
59045
58325
57604.1
56885.6
56166.9
55453.9
54739.7
54032.2
53321.7
52616.6
51902.8
51194
50474.3
49759.2
49031.3
48309.9
47572.8
46843.2
46093
45349.1
44575.3
43806.3
42998
42191.4
41345
40484.3
39599.6
38677.9
37741.7
36772.5
35790.8
242006
239512
237124
234838
232653
230560
228552
226622
224760
222962
221219
219526
217878
216269
214695
213154
211641
210154
208690
207247
205824
204419
203031
201658
200299
198953
197621
196300
194990
193691
192401
191122
189851
188589
187335
186090
184852
183621
182398
181181
179970
178766
177569
176376
175190
174009
172833
171662
170497
169336
168180
167029
165882
164740
163603
162470
161341
160217
159097
157981
156869
155761
154657
153556
152460
151367
150278
149192
148110
147031
145955
144883
143815
142751
141691
140635
139585
138539
137499
136465
135436
134413
133395
132382
131373
130369
129368
128371
127378
126388
125400
124413
123428
122445
121465
120487
119515
118546
117583
116625
115672
114724
113779
112839
111903
110970
110042
109118
108197
107280
106366
105457
104552
103651
102755
101864
100978
100096
99220
98348.2
97481.5
96618.4
95760.5
94906.5
94057.8
93212.6
92371.6
91532.2
90695.2
89858.7
89024.3
88190.9
87360
86530.4
85704.7
84882.1
84064.3
83250.7
82442.5
81639.7
80843.5
80053
79269.3
78491
77716.9
76946.3
76179.3
75413.6
74652
73892.5
73135.9
72377.5
71626
70871.5
70119.2
69368.1
68616.2
67863.2
67111.6
66362.4
65613
64869.1
64127.9
63392.9
62659.7
61932.1
61205.4
60479.8
59752.5
59026.4
58298.9
57573.7
56847.9
56122.8
55401.7
54682
53964
53250.7
52532.6
51813.7
51092.3
50365.5
49637
48900.8
48167.2
47424
46682.1
45928
45171.9
44396.4
43615.4
42808.1
41991.5
41151.4
40284.1
39403.6
38483.5
37549.2
36587.5
35614.7
242403
239937
237565
235284
233094
230989
228963
227010
225125
223302
221535
219817
218146
216515
214921
213360
211829
210326
208847
207390
205954
204538
203139
201756
200388
199035
197695
196367
195051
193747
192453
191168
189893
188628
187371
186122
184881
183647
182421
181202
179989
178783
177584
176390
175202
174019
172842
171670
170503
169342
168185
167033
165886
164743
163606
162472
161343
160218
159098
157981
156869
155761
154656
153555
152458
151365
150275
149189
148106
147027
145951
144879
143811
142747
141687
140631
139581
138536
137496
136461
135433
134410
133392
132380
131372
130369
129370
128374
127383
126393
125406
124420
123435
122453
121472
120495
119522
118554
117592
116634
115681
114733
113789
112849
111913
110980
110052
109127
108205
107287
106373
105462
104556
103655
102758
101866
100980
100098
99220.9
98348.2
97480
96615.6
95755.9
94900.2
94050.2
93204.1
92362.7
91523.3
90686.1
89849.8
89015.3
88181.9
87351.3
86522.3
85697.4
84875.8
84059.2
83247
82440.2
81638.7
80843.8
80054.3
79272
78494.5
77721.4
76951.7
76185
75418.3
74656.9
73897.6
73138.6
72382.3
71629.3
70875.2
70122.6
69372.7
68618.4
67866.2
67112.1
66365.3
65610
64868.6
64120.4
63388.3
62649.2
61923.9
61191.4
60466.8
59731.6
59004.4
58269.3
57540.4
56808
56078.9
55350.2
54628.7
53899.6
53186.4
52456.1
51733.3
51001.3
50267.6
49529.4
48787.8
48044.1
47295.7
46543.9
45788.5
45021.7
44248.5
43454.9
42650.5
41823.4
40985.9
40113.7
39232.9
38315.7
37384.3
36430.8
35466.6
242753
240308
237951
235675
233482
231367
229327
227358
225453
223609
221821
220083
218391
216741
215128
213550
212003
210484
208992
207522
206075
204648
203239
201847
200472
199111
197764
196430
195109
193799
192501
191212
189933
188664
187404
186152
184908
183672
182444
181222
180008
178800
177598
176403
175213
174029
172851
171678
170510
169347
168190
167037
165889
164746
163607
162473
161343
160218
159097
157980
156867
155758
154653
153552
152454
151360
150270
149183
148101
147021
145945
144873
143805
142741
141681
140626
139576
138531
137491
136457
135428
134405
133388
132376
131370
130367
129370
128376
127386
126397
125411
124424
123440
122457
121477
120499
119527
118558
117596
116637
115685
114737
113794
112853
111917
110984
110055
109129
108207
107288
106373
105462
104555
103652
102755
101863
100976
100093
99215.4
98341.7
97472.2
96606.1
95744.6
94887.2
94035.4
93188.2
92346
91505.8
90668.8
89832.8
88998.7
88165.9
87336.2
86508.5
85685.2
84865
84050.3
83239.7
82434.6
81634.6
80840.7
80052.3
79270.5
78493
77720.9
76950.1
76183.5
75415.9
74653.9
73894.2
73133.6
72379.1
71623.5
70871.3
70118.5
69368.8
68613.2
67862.1
67105.9
66359.5
65601.4
64860.9
64106.3
63377.1
62630.7
61908.3
61170.2
60448.6
59704.4
58977.8
58235.9
57505.8
56768.5
56036.5
55301.7
54578.1
53840.3
53128.4
52388.7
51661.7
50923.1
50181.4
49437.2
48691.2
47938
47190.8
46429.8
45675.8
44894.5
44124.2
43318.2
42514.7
41678.6
40839.9
39965.8
39084.9
38171.7
37244.9
36299.9
35344.1
243058
240632
238286
236016
233821
231700
229649
227665
225745
223884
222077
220322
218612
216945
215316
213723
212162
210629
209124
207644
206186
204749
203331
201931
200548
199181
197828
196489
195162
193848
192545
191253
189971
188698
187435
186180
184934
183696
182465
181242
180025
178815
177612
176415
175224
174039
172859
171684
170516
169352
168193
167040
165891
164747
163608
162473
161342
160216
159095
157977
156864
155754
154648
153546
152448
151354
150264
149177
148094
147014
145938
144866
143798
142734
141675
140621
139571
138526
137486
136451
135422
134399
133382
132371
131365
130364
129368
128375
127386
126397
125411
124425
123440
122457
121476
120498
119526
118558
117595
116636
115683
114735
113792
112851
111914
110980
110051
109124
108202
107282
106367
105456
104549
103645
102748
101854
100967
100083
99204.8
98329.6
97458.8
96590.9
95727.7
94868.4
94015
93166.3
92323
91482.2
90645.2
89809.2
88976.3
88144.4
87316.2
86490.2
85668.9
84850.3
84037.5
83228.2
82425
81626.3
80834.1
80046.7
79265.8
78487.3
77716.3
76943.3
76175.8
75406
74644.1
73882.4
73121.1
72367.4
71611.4
70860.3
70107.5
69358.6
68603.2
67850.9
67095.5
66347.9
65588
64845.5
64089.3
63359.3
62608.7
61884.9
61144
60423.9
59675.4
58947.4
58202.1
57468.5
56729
55994.7
55256.5
54528.6
53789
53073.7
52327.2
51600
50854.1
50108.5
49357.5
48609.8
47851.7
47102.9
46332.5
45578.4
44787.7
44013.7
43200.8
42393.3
41552.2
40712.1
39838.2
38959.2
38050.3
37129.4
36193
35245.4
243324
240912
238576
236310
234115
231989
229929
227934
226001
224126
222305
220534
218809
217127
215485
213878
212304
210760
209244
207753
206285
204840
203414
202007
200618
199244
197886
196542
195211
193893
192586
191290
190005
188729
187463
186206
184958
183717
182485
181259
180041
178830
177625
176426
175233
174047
172866
171690
170520
169355
168195
167041
165891
164746
163606
162471
161340
160213
159091
157972
156858
155748
154642
153540
152441
151347
150256
149169
148086
147007
145931
144859
143791
142728
141669
140615
139566
138520
137480
136445
135416
134393
133376
132364
131359
130359
129363
128371
127382
126394
125407
124420
123435
122452
121471
120493
119521
118552
117589
116629
115677
114728
113785
112843
111906
110971
110041
109113
108191
107272
106357
105445
104538
103634
102736
101842
100954
100069
99189.7
98313
97441.3
96571.4
95707
94845.8
93991.4
93140.9
92296.7
91454.9
90617.8
89782.1
88950.5
88119.7
87293.6
86468.9
85649.5
84832.4
84021.4
83213.1
82411.4
81614
80823.3
80036.8
79257.2
78478
77707
76931
76161.8
75389.3
74626.7
73863
73104.2
72348.5
71593.9
70841.4
70089.6
69341.3
68587.7
67833.1
67081.6
66330.5
65570.8
64823.3
64068.4
63333.3
62582.4
61854.1
61114
60392.2
59642
58917.6
58168
57432.4
56688.7
55950.3
55210.5
54479.9
53738.7
53020.8
52273.1
51546.1
50793.5
50046.1
49291.3
48540.8
47779.4
47021.6
46252.9
45490.3
44694.3
43913.3
43098.1
42285.7
41443.9
40603.2
39730.4
38854.9
37950.5
37036.3
36108
35167.9
243553
241153
238824
236562
234366
232236
230170
228166
226222
224336
222503
220719
218982
217288
215633
214015
212429
210875
209349
207849
206374
204921
203488
202075
200680
199301
197938
196590
195255
193933
192622
191324
190035
188757
187489
186230
184979
183737
182502
181275
180055
178842
177636
176435
175241
174053
172871
171694
170523
169357
168196
167040
165890
164744
163603
162467
161335
160208
159085
157966
156852
155741
154635
153532
152434
151339
150249
149162
148078
146999
145924
144852
143785
142722
141664
140610
139560
138515
137475
136440
135410
134386
133369
132357
131351
130351
129356
128364
127374
126385
125398
124410
123426
122442
121461
120483
119511
118542
117578
116619
115666
114717
113773
112831
111893
110957
110027
109099
108177
107257
106343
105431
104523
103619
102721
101826
100937
100052
99171.7
98293.5
97420.6
96549.2
95683.7
94821.1
93965.9
93114.3
92269.5
91427
90589.8
89754.4
88923.7
88094.4
87269.7
86446.5
85628.5
84812.8
84002.8
83195.5
82395.3
81599
80810.1
80024.1
79245
78465
77692.5
76914.6
76142.9
75367.8
74605
73837
73081.5
72326
71572.2
70818.1
70067.8
69317.6
68566.7
67808.3
67063.7
66307.8
65550.5
64800.5
64047.3
63300.4
62553.6
61818.8
61077.8
60354.9
59608.2
58878.7
58131.3
57395.2
56646.7
55902.8
55165.7
54430.1
53694.4
52974.2
52221
51496.4
50743
49993
49235.8
48479.3
47718.4
46951.3
46182.1
45405.6
44612.5
43822.1
43008.9
42191.5
41353.1
40512.1
39641.6
38769.6
37870.2
36963.1
36041.5
35108.3
243747
241356
239033
236773
234577
232444
230373
228362
226411
224515
222672
220878
219130
217426
215761
214132
212538
210975
209441
207933
206451
204991
203553
202134
200734
199351
197983
196631
195293
193967
192654
191353
190062
188782
187511
186250
184997
183753
182517
181288
180067
178852
177644
176443
175247
174058
172874
171696
170524
169356
168195
167038
165887
164740
163599
162462
161330
160202
159079
157960
156845
155734
154628
153525
152427
151332
150241
149154
148071
146992
145917
144846
143779
142716
141658
140605
139555
138510
137469
136434
135404
134379
133361
132349
131342
130342
129345
128353
127362
126372
125384
124397
123413
122429
121448
120470
119498
118528
117564
116605
115653
114703
113759
112817
111878
110942
110011
109083
108161
107241
106326
105414
104506
103602
102703
101808
100919
100034
99152.5
98273.4
97398.8
96526.5
95659.9
94796.4
93940.7
93088.7
92243.4
91400.6
90563.4
89728.1
88897.9
88069.6
87245.5
86423.9
85607
84792.7
83983.6
83177.9
82378.8
81583.8
80795.7
80009.2
79229.7
78448.2
77673.3
76893.3
76121.1
75346.1
74578.9
73810.3
73056.4
72298.1
71546.8
70792.3
70041.2
69291
68544
67783.9
67040.7
66278.9
65530.7
64772.6
64017.1
63264.5
62526.6
61788
61045.7
60315.5
59570
58833.4
58092.4
57350.4
56604.1
55857.3
55125.8
54385.7
53653
52922.9
52176.5
51449.7
50697.6
49945.1
49190.8
48427.6
47661.3
46887.8
46117.4
45330.8
44538.6
43742.2
42936.3
42113.4
41280.8
40437.8
39570.7
38700.9
37807.9
36906.5
35990
35063.4
243908
241524
239205
236946
234749
232614
230539
228524
226566
224663
222812
221010
219254
217541
215868
214231
212629
211058
209517
208004
206515
205050
203607
202184
200779
199392
198022
196666
195325
193997
192681
191377
190085
188802
187530
186267
185012
183767
182529
181299
180076
178860
177651
176448
175251
174061
172876
171697
170523
169355
168192
167035
165883
164736
163594
162457
161324
160196
159073
157954
156839
155728
154621
153518
152420
151325
150234
149147
148064
146985
145911
144840
143773
142711
141653
140600
139551
138505
137464
136428
135398
134373
133354
132340
131333
130331
129333
128340
127347
126357
125368
124382
123397
122413
121432
120455
119482
118513
117549
116592
115639
114690
113745
112803
111864
110928
109996
109067
108144
107224
106308
105396
104488
103585
102685
101791
100901
100016
99133.9
98254.9
97378.6
96506.4
95638.4
94775.1
93918.6
93067.4
92221
91378.7
90540.4
89705.8
88875
88047.7
87223.2
86403
85585.9
84773.3
83964.6
83160.6
82361.8
81567.9
80778.8
79992.2
79210.3
78427.7
77649.7
76869.3
76095.3
75320.7
74555.1
73787.2
73028.8
72270.9
71519.5
70763.9
70015.3
69264.2
68515.9
67757.8
67015.5
66250.8
65501.7
64735.4
63989.1
63234
62497.9
61756.6
61011.3
60269.9
59529.6
58791.4
58051.9
57301.9
56565.1
55819.3
55086.5
54345.9
53617.8
52876.8
52141
51400
50657.5
49903.3
49148.7
48379.6
47612.7
46834.9
46055.6
45267.1
44478.8
43680.2
42876.8
42054.4
41225.5
40380.3
39517.6
38647.7
37760.9
36862.8
35950.9
35030.4
244036
241658
239340
237081
234884
232748
230671
228652
226690
224781
222924
221116
219353
217633
215953
214310
212702
211126
209579
208060
206567
205098
203651
202224
200816
199426
198053
196694
195351
194020
192703
191397
190102
188818
187544
186280
185024
183777
182538
181306
180082
178866
177655
176452
175254
174062
172877
171697
170522
169354
168190
167032
165880
164732
163590
162452
161320
160191
159068
157949
156833
155723
154616
153513
152414
151319
150228
149141
148058
146980
145905
144834
143768
142706
141648
140595
139546
138500
137459
136423
135392
134367
133347
132333
131324
130321
129321
128326
127332
126341
125352
124366
123380
122397
121417
120441
119467
118499
117535
116578
115625
114677
113731
112789
111850
110914
109981
109053
108129
107209
106292
105381
104472
103569
102668
101775
100885
100001
99117.6
98239.2
97361.9
96490.3
95621.5
94758.9
93901.9
93051
92203.7
91362
90522.5
89688.4
88856.2
88029.3
87204
86384.7
85566.9
84755.4
83946.6
83143.9
82344.1
81550.6
80759.4
79972.5
79187.5
78404.4
77623.4
76845
76069.2
75298.5
74529.3
73762.6
73003.5
72244.7
71489.9
70737.3
69988.6
69234.9
68486.4
67731.4
66984.3
66219
65471
64708.1
63965.1
63201.3
62467.4
61716.7
60973.2
60235.2
59495.1
58749.6
58010.2
57260.1
56527.9
55781.4
55053.2
54315.3
53585.6
52836.3
52107.3
51355.4
50619
49861.8
49113.9
48338.3
47572.6
46788.4
46008.3
45221.8
44431.5
43633.3
42831.1
42013.2
41183
40339.1
39479
38609.3
37726.1
36829.8
35922.2
35006.1
244132
241757
239440
237181
234984
232847
230769
228748
226782
224870
223008
221195
219427
217702
216017
214370
212757
211176
209626
208103
206607
205134
203684
202254
200844
199451
198076
196716
195370
194038
192719
191411
190115
188830
187555
186289
185032
183784
182544
181312
180087
178869
177658
176454
175256
174063
172877
171697
170522
169353
168189
167031
165878
164730
163587
162449
161316
160188
159064
157945
156829
155718
154611
153508
152409
151314
150223
149136
148053
146975
145900
144830
143763
142702
141644
140591
139542
138496
137455
136418
135387
134362
133341
132326
131316
130312
129310
128314
127319
126328
125338
124353
123366
122385
121404
120429
119455
118488
117524
116567
115613
114666
113719
112779
111838
110904
109970
109042
108116
107197
106279
105369
104458
103556
102655
101763
100872
99988.6
99105.1
98228.1
97350.8
96480.8
95610.9
94749.4
93890.8
93040.5
92191.9
91351
90510.5
89676.9
88843
88016.1
87189.2
86369.9
85550.9
84740
83930.2
83128.1
82326.8
81533.2
80739.9
79952.5
79164.5
78381.8
77598.5
76823.5
76045.1
75277.3
74505.7
73742.5
72978.4
72221.5
71463.7
70712.8
69959.7
69208
68458.2
67704.2
66952.8
66192.2
65442.9
64680
63938.5
63172.9
62437.9
61680.5
60943.1
60200
59457.8
58713.4
57974.5
57226.1
56495.5
55749.3
55023.3
54283.3
53553.5
52803.7
52073.3
51321.9
50588.4
49827.8
49080.8
48301.9
47540.3
46752.1
45973.2
45188
44397.9
43605.9
42800.1
41986.7
41151.7
40312.6
39452.2
38583.4
37701
36806.6