/*--------------------------------*- C++ -*----------------------------------*\
| =========                 |                                                 |
| \\      /  F ield         | OpenFOAM: The Open Source CFD Toolbox           |
|  \\    /   O peration     | Version:  2.4.0                                 |
|   \\  /    A nd           | Web:      www.OpenFOAM.org                      |
|    \\/     M anipulation  |                                                 |
\*---------------------------------------------------------------------------*/
FoamFile
{
    version     2.0;
    format      ascii;
    class       volVectorField;
    location    "1.08";
    object      U;
}
// * * * * * * * * * * * * * * * * * * * * * * * * * * * * * * * * * * * * * //

dimensions      [0 1 -1 0 0 0 0];

internalField   nonuniform List<vector> 
4400
(
(10.569 0.124687 0)
(8.92378 -0.187766 0)
(9.41047 0.0255837 0)
(10.0211 0.270168 0)
(7.73084 -0.184383 0)
(11.2995 0.19843 0)
(7.30171 0.127735 0)
(11.0317 -0.175161 0)
(8.38302 0.220243 0)
(9.73358 0.0406092 0)
(8.45103 -0.0796015 0)
(10.1019 0.151679 0)
(6.7855 0.00189072 0)
(10.7153 -0.00133039 0)
(6.54283 0.0831711 0)
(10.1142 -0.0670049 0)
(6.65561 0.143509 0)
(9.83925 -0.0168105 0)
(6.87749 0.0375274 0)
(7.56637 0.0424933 0)
(11.9036 -0.0722966 0)
(9.70779 0.467941 0)
(8.24787 -0.263406 0)
(10.6406 0.0155312 0)
(7.78738 0.00635398 0)
(10.393 -0.196707 0)
(8.89314 0.00408023 0)
(10.9128 -0.0654706 0)
(9.14048 0.038325 0)
(11.0656 0.000171496 0)
(9.75642 -0.0539439 0)
(10.5344 0.177993 0)
(9.49908 -0.0489435 0)
(10.8477 -0.0723788 0)
(8.5909 0.136306 0)
(11.2325 -0.00569253 0)
(8.2401 -0.0831076 0)
(10.8823 0.0102381 0)
(9.37334 0.276734 0)
(9.08907 -0.380847 0)
(10.3238 -0.226425 0)
(9.98561 0.57429 0)
(10.8926 -0.129532 0)
(10.2086 0.285962 0)
(8.75416 -0.0663799 0)
(10.7646 -0.135947 0)
(8.82794 0.104848 0)
(10.0883 -0.2979 0)
(9.93555 0.137807 0)
(10.7293 -0.00331377 0)
(10.2953 -0.0389342 0)
(10.3381 0.200195 0)
(10.8704 0.0374786 0)
(10.8563 0.0588006 0)
(9.05865 0.105289 0)
(12.1208 -0.0495159 0)
(9.10187 0.228094 0)
(10.5327 -0.193396 0)
(11.0007 0.251751 0)
(9.34449 -0.0327124 0)
(10.0684 -0.198397 0)
(9.44979 0.52181 0)
(10.8413 -0.2926 0)
(10.2237 0.378138 0)
(10.1466 0.00886699 0)
(10.4506 -0.272488 0)
(9.32874 0.195258 0)
(10.6513 -0.291019 0)
(8.94457 -0.0699675 0)
(10.7014 -0.0336562 0)
(10.4748 -0.0271067 0)
(9.508 0.0802053 0)
(11.1103 -0.0747063 0)
(10.9807 0.160236 0)
(8.65554 -0.00718288 0)
(12.2801 -0.0666562 0)
(9.55063 0.277244 0)
(9.82891 -0.380736 0)
(11.3227 0.407651 0)
(9.56036 0.0594243 0)
(9.69722 -0.149985 0)
(9.75591 0.449195 0)
(10.8074 -0.3104 0)
(9.76081 0.366156 0)
(10.3953 -0.0348368 0)
(10.3472 -0.0906422 0)
(9.49922 0.157265 0)
(10.5515 -0.255604 0)
(9.39249 0.0787765 0)
(10.3249 -0.222445 0)
(10.1791 0.142164 0)
(9.50078 0.0408357 0)
(10.8075 -0.175152 0)
(10.5733 0.425824 0)
(8.65836 -0.0940649 0)
(11.9763 -0.263828 0)
(9.78505 0.657154 0)
(9.24607 -0.515955 0)
(11.029 0.189566 0)
(10.327 0.364319 0)
(9.71904 -0.133993 0)
(9.7584 0.355541 0)
(10.5806 -0.304539 0)
(9.91947 0.401653 0)
(10.2141 -0.0151985 0)
(10.4721 -0.162629 0)
(9.78731 0.195929 0)
(10.3218 -0.284621 0)
(10.2125 -0.0331522 0)
(9.83893 -0.169428 0)
(10.4689 0.109399 0)
(9.98135 -0.0406158 0)
(10.2371 -0.208563 0)
(10.7708 0.495273 0)
(9.44641 -0.188139 0)
(10.9799 -0.335274 0)
(10.4828 0.840848 0)
(9.32639 -0.594221 0)
(10.8149 0.0832915 0)
(10.6878 0.619394 0)
(9.69827 -0.0786219 0)
(9.99282 0.319158 0)
(10.5519 -0.328784 0)
(9.65237 0.396006 0)
(10.3737 -0.0632766 0)
(10.1634 -0.109528 0)
(9.75703 0.255752 0)
(10.3722 -0.356469 0)
(9.91394 0.106446 0)
(9.90405 -0.196122 0)
(10.2671 0.0637614 0)
(9.92385 0.0614072 0)
(9.97598 -0.265972 0)
(10.5863 0.492582 0)
(9.7523 -0.0733069 0)
(10.2312 -0.496768 0)
(10.6889 0.92526 0)
(9.69138 -0.485764 0)
(10.3866 -0.165349 0)
(10.7469 0.771755 0)
(10.0121 -0.0985202 0)
(9.87425 0.227326 0)
(10.3692 -0.221097 0)
(9.74738 0.352667 0)
(10.3466 -0.0431714 0)
(9.96661 -0.0981716 0)
(10.0471 0.193468 0)
(10.2306 -0.307071 0)
(9.88555 0.057162 0)
(10.0356 -0.184427 0)
(9.91973 0.0718225 0)
(10.2202 0.0183037 0)
(9.6852 -0.267629 0)
(10.2354 0.460394 0)
(10.3672 -0.0495184 0)
(9.73588 -0.513624 0)
(10.3181 0.933582 0)
(10.5504 -0.416748 0)
(9.89144 -0.216101 0)
(10.5667 0.871538 0)
(10.0666 -0.0871936 0)
(9.93923 0.289395 0)
(10.162 -0.293923 0)
(9.89367 0.330929 0)
(10.2342 -0.0179406 0)
(10.017 -0.130641 0)
(10.0596 0.23695 0)
(10.2233 -0.311508 0)
(10.0661 0.0655135 0)
(9.88286 -0.144132 0)
(10.1543 -0.00740782 0)
(10.0716 0.0785761 0)
(9.87256 -0.213212 0)
(10.042 0.304634 0)
(10.5087 0.0549985 0)
(9.79313 -0.474674 0)
(10.1128 0.75213 0)
(10.7454 -0.309109 0)
(9.77517 -0.262366 0)
(10.3607 0.769392 0)
(10.0778 -0.119227 0)
(10.0001 0.235814 0)
(10.0786 -0.18817 0)
(10.0377 0.268365 0)
(10.1435 -0.00573359 0)
(10.1446 -0.115106 0)
(10.0409 0.188911 0)
(10.3537 -0.306169 0)
(9.99261 0.0955942 0)
(10.0889 -0.146425 0)
(10.2058 -0.00540738 0)
(9.96247 0.0798916 0)
(10.2771 -0.20645 0)
(9.79463 0.264872 0)
(10.6828 0.0229819 0)
(9.88343 -0.406104 0)
(10.0055 0.662544 0)
(10.8117 -0.294972 0)
(9.88623 -0.213974 0)
(10.0445 0.729686 0)
(10.1378 -0.128355 0)
(9.7936 0.31275 0)
(10.232 -0.258524 0)
(9.99795 0.23473 0)
(10.1152 0.0415988 0)
(10.2439 -0.169533 0)
(9.99328 0.206914 0)
(10.3243 -0.264596 0)
(9.98188 0.0464496 0)
(10.1497 -0.12959 0)
(10.0381 -0.00901687 0)
(10.1245 0.040409 0)
(10.0801 -0.139295 0)
(9.98747 0.18394 0)
(10.4379 0.036512 0)
(9.84419 -0.302867 0)
(10.2166 0.487793 0)
(10.5324 -0.222612 0)
(9.88097 -0.171968 0)
(10.0806 0.622038 0)
(10.102 -0.120834 0)
(9.8134 0.239594 0)
(10.2657 -0.184046 0)
(9.89197 0.222632 0)
(10.1972 0.00650367 0)
(10.1265 -0.130676 0)
(10.0004 0.186534 0)
(10.3185 -0.271332 0)
(9.90851 0.077895 0)
(10.122 -0.0957503 0)
(10.0372 -0.0291701 0)
(10.0289 0.0608577 0)
(10.0354 -0.128591 0)
(10.0591 0.147113 0)
(10.1946 0.048771 0)
(10.1154 -0.294348 0)
(9.93292 0.431835 0)
(10.6223 -0.17718 0)
(9.96986 -0.153423 0)
(10.0003 0.562797 0)
(10.1297 -0.128815 0)
(9.80017 0.276217 0)
(10.1901 -0.209549 0)
(10.0322 0.15612 0)
(10.0687 0.059934 0)
(10.1986 -0.162338 0)
(10.0759 0.155997 0)
(10.1667 -0.19946 0)
(10.1077 0.0230869 0)
(10.0704 -0.108123 0)
(10.025 -0.0106444 0)
(10.1278 0.0225051 0)
(10.0905 -0.111669 0)
(9.9708 0.130167 0)
(10.3272 0.0105123 0)
(10.0912 -0.203343 0)
(9.97023 0.339111 0)
(10.5849 -0.17365 0)
(9.90332 -0.0866853 0)
(10.2067 0.472956 0)
(10.1346 -0.119509 0)
(9.78698 0.230588 0)
(10.2248 -0.174291 0)
(10.0123 0.164113 0)
(10.0455 0.0318609 0)
(10.273 -0.164524 0)
(9.96073 0.184742 0)
(10.2694 -0.226114 0)
(10.106 0.017976 0)
(9.98382 -0.0251443 0)
(10.1915 -0.0581601 0)
(10.0279 0.0245125 0)
(10.0569 -0.0510476 0)
(10.0929 0.0720934 0)
(10.2501 0.00519833 0)
(10.0408 -0.15223 0)
(10.0791 0.258603 0)
(10.455 -0.126704 0)
(10.1183 -0.057275 0)
(10.0215 0.38967 0)
(10.1545 -0.120999 0)
(9.76007 0.234325 0)
(10.2105 -0.167595 0)
(10.0339 0.10216 0)
(10.0476 0.056245 0)
(10.2489 -0.150543 0)
(10.0075 0.126434 0)
(10.2423 -0.16431 0)
(10.0537 0.0204615 0)
(10.0922 -0.0776363 0)
(10.06 -0.0298027 0)
(10.0679 0.0258627 0)
(10.1408 -0.0865357 0)
(9.94541 0.0736613 0)
(10.2839 -0.00108547 0)
(10.1294 -0.119953 0)
(9.99774 0.208538 0)
(10.4026 -0.146741 0)
(10.1391 -0.0107945 0)
(10.2387 0.350901 0)
(10.1497 -0.111172 0)
(9.76043 0.205296 0)
(10.213 -0.153467 0)
(10.0489 0.108061 0)
(10.0107 0.0418799 0)
(10.2847 -0.17273 0)
(9.99935 0.154269 0)
(10.2101 -0.16658 0)
(10.15 -0.0289418 0)
(10.0087 0.0187704 0)
(10.1123 -0.058919 0)
(10.1392 -0.0230422 0)
(9.97323 0.0164185 0)
(10.1331 0.016985 0)
(10.2546 -0.0502785 0)
(9.96346 -0.0273939 0)
(10.205 0.134942 0)
(10.3969 -0.131752 0)
(9.99942 0.0159959 0)
(10.3132 0.26502 0)
(10.1555 -0.104735 0)
(9.74924 0.179757 0)
(10.2081 -0.124991 0)
(10.0652 0.051821 0)
(10.0122 0.0476334 0)
(10.2956 -0.137686 0)
(10.0036 0.0898003 0)
(10.2189 -0.117113 0)
(10.151 -0.00998091 0)
(10.0061 -0.0291558 0)
(10.1403 -0.0502991 0)
(10.1017 0.0158858 0)
(10.0345 -0.0410019 0)
(10.1106 0.00308607 0)
(10.1715 0.00489502 0)
(10.1814 -0.0611798 0)
(10.0174 0.087761 0)
(10.3411 -0.0869348 0)
(10.3112 0.0102713 0)
(10.1126 0.213072 0)
(10.1373 -0.0940092 0)
(9.70266 0.162866 0)
(10.2686 -0.127333 0)
(10.0426 0.0613329 0)
(10.0208 0.0339746 0)
(10.3345 -0.162407 0)
(9.96902 0.118751 0)
(10.2191 -0.122747 0)
(10.177 -0.0538383 0)
(9.94772 0.0548162 0)
(10.1765 -0.0751842 0)
(10.0817 -0.0383743 0)
(9.97471 0.0585892 0)
(10.2011 -0.0354738 0)
(10.0749 -0.076578 0)
(10.1477 0.0616078 0)
(10.1052 0.0317897 0)
(10.2741 -0.160392 0)
(10.1976 0.114206 0)
(10.248 0.151497 0)
(9.99152 -0.0752656 0)
(9.70347 0.108616 0)
(10.4266 -0.0897934 0)
(9.88149 0.008091 0)
(10.2317 0.0255877 0)
(10.2532 -0.114863 0)
(9.89584 0.0558474 0)
(10.3086 -0.0739957 0)
(10.0025 -0.0322125 0)
(9.89037 0.00677005 0)
(10.2161 -0.0618132 0)
(9.87749 0.00615919 0)
(9.9552 -0.0165131 0)
(10.178 -0.0293494 0)
(9.87556 -0.0152477 0)
(10.0765 -0.0165297 0)
(10.0408 0.0319886 0)
(10.099 -0.107292 0)
(10.0294 0.0313961 0)
(10.1585 0.160947 0)
(9.83776 -0.023339 0)
(9.64067 0.0312414 0)
(10.2835 -0.0526238 0)
(9.41802 0.017293 0)
(9.97367 -0.012512 0)
(9.61018 -0.0603144 0)
(9.21649 0.0382804 0)
(9.74189 -0.0563996 0)
(8.95366 -0.0292097 0)
(9.10206 0.0353202 0)
(9.28543 -0.0517645 0)
(8.6334 -0.0274902 0)
(8.92577 0.0421788 0)
(8.98827 -0.0443245 0)
(8.47308 -0.061083 0)
(8.49764 0.0759705 0)
(9.00608 -0.0354441 0)
(8.25445 -0.108436 0)
(7.97717 0.14199 0)
(9.25214 -0.00250717 0)
(9.98025 -0.221869 0)
(4.92066 -0.00632496 0)
(6.10904 2.37013 0)
(6.30799 2.58915 0)
(7.89556 0.0334454 0)
(11.4955 -2.79888 0)
(9.65996 -1.79694 0)
(9.91112 -2.05385 0)
(9.60442 -3.47703 0)
(8.88089 -3.75166 0)
(7.54509 -3.16375 0)
(6.78817 -2.3469 0)
(6.36449 -1.52426 0)
(5.88773 -0.949429 0)
(5.40705 -0.615777 0)
(5.27913 -0.362665 0)
(5.41349 -0.180891 0)
(5.52416 -0.111312 0)
(5.51022 -0.121775 0)
(5.41285 -0.153063 0)
(5.30315 -0.169308 0)
(5.22074 -0.16065 0)
(5.16958 -0.133096 0)
(5.13924 -0.0988649 0)
(5.12039 -0.0677978 0)
(5.10818 -0.044078 0)
(5.10038 -0.0277093 0)
(5.09562 -0.0170643 0)
(5.09288 -0.0103729 0)
(5.09137 -0.00624758 0)
(5.09059 -0.00373423 0)
(5.09019 -0.00221591 0)
(5.09 -0.00130543 0)
(5.0899 -0.00076353 0)
(5.08986 -0.000443284 0)
(5.08983 -0.000255476 0)
(5.08982 -0.000146053 0)
(5.08982 -8.28693e-05 0)
(5.08982 -4.6604e-05 0)
(5.08981 -2.59436e-05 0)
(5.08981 -1.43146e-05 0)
(5.08981 -7.78832e-06 0)
(5.08981 -4.22592e-06 0)
(5.08981 -2.16878e-06 0)
(5.08981 -1.22354e-06 0)
(5.08981 -5.02593e-07 0)
(5.08981 -3.26556e-07 0)
(5.08981 -1.38516e-07 0)
(5.08981 -9.51041e-09 0)
(5.08981 -1.10267e-07 0)
(5.08981 6.86879e-08 0)
(5.08981 -5.6721e-08 0)
(5.08981 1.02695e-08 0)
(5.08981 3.35403e-08 0)
(5.08981 -7.38262e-08 0)
(5.08981 6.87203e-08 0)
(5.08981 -4.50639e-08 0)
(5.08981 -2.69466e-08 0)
(5.08981 9.4884e-08 0)
(5.08981 -9.32981e-08 0)
(5.08981 2.09003e-08 0)
(5.08981 6.21784e-08 0)
(5.08981 -1.046e-07 0)
(5.08981 5.7415e-08 0)
(5.08981 3.86377e-08 0)
(5.08981 -9.29118e-08 0)
(5.08981 7.65919e-08 0)
(5.08981 1.98944e-08 0)
(5.08981 -9.91838e-08 0)
(5.08981 1.03729e-07 0)
(5.08981 1.56286e-08 0)
(5.08981 -1.16243e-07 0)
(5.08981 8.84206e-08 0)
(5.08981 5.96794e-08 0)
(5.08981 -1.14857e-07 0)
(5.08981 1.00117e-08 0)
(5.08981 1.13586e-07 0)
(5.08981 -6.85762e-08 0)
(5.08981 -6.81376e-08 0)
(5.08981 8.27734e-08 0)
(5.08981 3.53099e-08 0)
(5.08981 -6.79437e-08 0)
(5.08981 -2.85831e-08 0)
(5.08982 6.41425e-08 0)
(5.08981 2.81852e-08 0)
(5.08982 -3.89525e-08 0)
(5.0898 -5.92177e-08 0)
(5.08982 3.71369e-08 0)
(5.0898 5.14639e-08 0)
(5.08982 -3.88223e-08 0)
(5.0898 -9.59613e-08 0)
(5.08981 -1.84599e-08 0)
(5.08982 7.43942e-08 0)
(5.0898 2.07156e-08 0)
(5.08982 -7.65244e-08 0)
(5.08981 -4.40034e-08 0)
(5.08981 2.7419e-08 0)
(5.08982 2.92708e-08 0)
(5.08981 2.69033e-08 0)
(5.08981 5.98736e-09 0)
(10.0866 -0.0546097 0)
(7.91537 0.925621 0)
(7.26448 2.33503 0)
(5.4245 2.67804 0)
(10.3443 -0.644183 0)
(12.3909 -2.72361 0)
(11.0206 -1.50493 0)
(10.6286 -1.81375 0)
(9.8575 -3.34629 0)
(8.9379 -3.70184 0)
(8.00752 -3.05287 0)
(7.02771 -2.24686 0)
(6.60808 -1.45995 0)
(6.23213 -0.864935 0)
(5.75706 -0.523144 0)
(5.40781 -0.325145 0)
(5.35799 -0.190264 0)
(5.43956 -0.123589 0)
(5.47264 -0.11837 0)
(5.42195 -0.138193 0)
(5.33276 -0.152442 0)
(5.25067 -0.147409 0)
(5.19217 -0.124449 0)
(5.15415 -0.0936487 0)
(5.12955 -0.0647081 0)
(5.11358 -0.0422487 0)
(5.10349 -0.0266318 0)
(5.0974 -0.0164409 0)
(5.0939 -0.0100217 0)
(5.09197 -0.00605532 0)
(5.09093 -0.00363169 0)
(5.09039 -0.00216231 0)
(5.09012 -0.00127792 0)
(5.08997 -0.000749436 0)
(5.0899 -0.000436069 0)
(5.08986 -0.000251775 0)
(5.08984 -0.000144106 0)
(5.08983 -8.18701e-05 0)
(5.08982 -4.60915e-05 0)
(5.08982 -2.56297e-05 0)
(5.08981 -1.41911e-05 0)
(5.08981 -7.6828e-06 0)
(5.08981 -4.12791e-06 0)
(5.08981 -2.26108e-06 0)
(5.08981 -1.14388e-06 0)
(5.08981 -4.81113e-07 0)
(5.08981 -2.93074e-07 0)
(5.08981 -1.20305e-07 0)
(5.08981 -4.38469e-08 0)
(5.08981 -8.57259e-08 0)
(5.08981 3.55122e-08 0)
(5.08981 -3.65537e-08 0)
(5.08981 -3.09434e-08 0)
(5.08981 4.08897e-08 0)
(5.08981 -5.90366e-09 0)
(5.08981 1.00514e-08 0)
(5.08981 -3.15751e-08 0)
(5.08981 -1.90134e-08 0)
(5.08981 3.30831e-08 0)
(5.08981 -1.78379e-08 0)
(5.08981 3.82858e-09 0)
(5.08981 -4.73348e-09 0)
(5.08981 -3.80889e-08 0)
(5.08981 3.23294e-08 0)
(5.08981 2.69628e-08 0)
(5.08981 -2.9373e-08 0)
(5.08981 6.44732e-09 0)
(5.08981 -3.75299e-10 0)
(5.08981 -1.03294e-08 0)
(5.08981 6.32538e-08 0)
(5.08981 1.81709e-08 0)
(5.08981 -4.19482e-08 0)
(5.08981 7.10652e-09 0)
(5.08981 1.22129e-08 0)
(5.08981 -1.28568e-08 0)
(5.08981 1.33148e-08 0)
(5.08981 2.27575e-08 0)
(5.08981 -2.84038e-08 0)
(5.08981 -2.9532e-08 0)
(5.08981 4.56759e-09 0)
(5.08981 -1.51243e-10 0)
(5.08981 1.5932e-09 0)
(5.08981 1.22395e-08 0)
(5.08982 2.36696e-08 0)
(5.08981 -9.20451e-09 0)
(5.08982 -1.78452e-08 0)
(5.0898 -1.29747e-08 0)
(5.08982 1.75989e-08 0)
(5.0898 2.15704e-08 0)
(5.08982 -5.08873e-08 0)
(5.0898 -3.40648e-08 0)
(5.08981 -3.29409e-08 0)
(5.08982 2.32859e-09 0)
(5.0898 5.34649e-08 0)
(5.08982 -5.91425e-08 0)
(5.08981 -5.44358e-09 0)
(5.08981 3.41529e-08 0)
(5.08982 -3.46531e-08 0)
(5.08981 2.76274e-08 0)
(5.08981 3.23231e-08 0)
(10.0409 0.070471 0)
(10.4267 0.768383 0)
(7.96404 2.73375 0)
(6.69451 2.45502 0)
(11.6346 -1.34403 0)
(11.5149 -2.99581 0)
(10.3857 -1.62367 0)
(10.6184 -1.72727 0)
(10.3089 -3.1225 0)
(8.76009 -3.58422 0)
(7.879 -2.92971 0)
(6.92413 -2.12896 0)
(6.56876 -1.38898 0)
(6.39521 -0.829375 0)
(6.06119 -0.478891 0)
(5.66738 -0.280297 0)
(5.4335 -0.173259 0)
(5.38039 -0.123131 0)
(5.38514 -0.111262 0)
(5.36549 -0.121913 0)
(5.31402 -0.134926 0)
(5.25405 -0.133169 0)
(5.2028 -0.113962 0)
(5.16438 -0.0861278 0)
(5.13707 -0.0594797 0)
(5.11847 -0.038817 0)
(5.10648 -0.0245267 0)
(5.09916 -0.0152305 0)
(5.09492 -0.00936233 0)
(5.09256 -0.00571028 0)
(5.09128 -0.00345565 0)
(5.0906 -0.00207358 0)
(5.09023 -0.0012333 0)
(5.09004 -0.000726665 0)
(5.08994 -0.000424263 0)
(5.08988 -0.000245644 0)
(5.08985 -0.000140821 0)
(5.08983 -8.00474e-05 0)
(5.08982 -4.51188e-05 0)
(5.08982 -2.51319e-05 0)
(5.08982 -1.39297e-05 0)
(5.08981 -7.44492e-06 0)
(5.08981 -3.99538e-06 0)
(5.08981 -2.31917e-06 0)
(5.08981 -1.09286e-06 0)
(5.08981 -3.79788e-07 0)
(5.08981 -2.45594e-07 0)
(5.08981 -1.50994e-07 0)
(5.08981 -8.0492e-08 0)
(5.08981 -7.1146e-08 0)
(5.08981 3.64085e-08 0)
(5.08981 -6.07664e-08 0)
(5.08981 -6.98067e-08 0)
(5.08981 1.05602e-07 0)
(5.08981 8.7943e-08 0)
(5.08981 -4.22271e-08 0)
(5.08981 -1.04166e-07 0)
(5.08981 -6.09562e-08 0)
(5.08981 3.30112e-08 0)
(5.08981 4.66063e-08 0)
(5.08981 -3.18346e-08 0)
(5.08981 -8.02222e-08 0)
(5.08981 -2.75079e-08 0)
(5.08981 6.87916e-08 0)
(5.08981 5.94775e-08 0)
(5.08981 -3.70962e-08 0)
(5.08981 -7.74551e-08 0)
(5.08981 -2.09222e-08 0)
(5.08981 8.18695e-08 0)
(5.08981 1.28371e-07 0)
(5.08981 5.20204e-08 0)
(5.08981 -5.9272e-08 0)
(5.08981 -7.85228e-08 0)
(5.08981 -1.24874e-08 0)
(5.08981 5.79406e-08 0)
(5.08981 5.60701e-08 0)
(5.08981 -5.62397e-09 0)
(5.08981 -5.35216e-08 0)
(5.08981 -7.38123e-08 0)
(5.08981 -6.11786e-08 0)
(5.08981 -7.24441e-09 0)
(5.08981 7.36332e-08 0)
(5.08981 7.09155e-08 0)
(5.08982 2.32978e-08 0)
(5.08981 -5.54045e-08 0)
(5.08982 -3.73791e-08 0)
(5.0898 4.34806e-09 0)
(5.08982 3.72541e-08 0)
(5.0898 3.84378e-08 0)
(5.08982 -7.60324e-08 0)
(5.08981 -3.46188e-08 0)
(5.08981 -8.84896e-08 0)
(5.08982 -2.60971e-08 0)
(5.0898 8.51503e-08 0)
(5.08982 -5.08968e-08 0)
(5.08981 3.90818e-08 0)
(5.08981 3.96471e-08 0)
(5.08982 -4.806e-08 0)
(5.08981 3.90589e-08 0)
(5.08981 2.75866e-08 0)
(9.8255 -0.162607 0)
(10.9027 0.783703 0)
(9.09746 3.12335 0)
(9.33935 2.26642 0)
(12.4893 -1.55674 0)
(11.3062 -2.74575 0)
(10.071 -1.32837 0)
(10.6394 -1.74041 0)
(10.5753 -2.98705 0)
(8.85824 -3.29755 0)
(7.7852 -2.72173 0)
(6.87584 -1.99634 0)
(6.36678 -1.32354 0)
(6.33565 -0.74312 0)
(6.18585 -0.395554 0)
(5.86663 -0.222769 0)
(5.59861 -0.144238 0)
(5.46796 -0.120678 0)
(5.41675 -0.128052 0)
(5.37447 -0.138726 0)
(5.31999 -0.142664 0)
(5.26262 -0.134992 0)
(5.21247 -0.113816 0)
(5.17269 -0.0855531 0)
(5.14302 -0.0587876 0)
(5.12232 -0.0381043 0)
(5.10884 -0.0238877 0)
(5.1006 -0.0147304 0)
(5.09579 -0.00901164 0)
(5.09308 -0.00548421 0)
(5.09159 -0.00331854 0)
(5.09078 -0.00199363 0)
(5.09035 -0.00118779 0)
(5.09011 -0.000701193 0)
(5.08998 -0.000410065 0)
(5.0899 -0.000237673 0)
(5.08986 -0.000136367 0)
(5.08984 -7.76306e-05 0)
(5.08983 -4.37554e-05 0)
(5.08982 -2.42929e-05 0)
(5.08982 -1.3467e-05 0)
(5.08982 -7.27734e-06 0)
(5.08981 -3.88734e-06 0)
(5.08981 -2.185e-06 0)
(5.08981 -1.04735e-06 0)
(5.08981 -4.18694e-07 0)
(5.08981 -2.69211e-07 0)
(5.08981 -1.25133e-07 0)
(5.08981 -6.02717e-08 0)
(5.08981 -7.57332e-08 0)
(5.08981 2.21764e-08 0)
(5.08981 -3.07868e-08 0)
(5.08981 -4.56001e-08 0)
(5.08981 5.72984e-08 0)
(5.08981 2.8375e-08 0)
(5.08981 -2.23673e-08 0)
(5.08981 -4.17551e-08 0)
(5.08981 -2.75865e-08 0)
(5.08981 1.10092e-08 0)
(5.08981 8.89681e-09 0)
(5.08981 -7.43199e-09 0)
(5.08981 -3.20943e-08 0)
(5.08981 -2.17687e-08 0)
(5.08981 3.3652e-08 0)
(5.08981 2.7675e-08 0)
(5.08981 -1.73193e-08 0)
(5.08981 -2.13441e-08 0)
(5.08981 -9.83933e-09 0)
(5.08981 3.3931e-08 0)
(5.08981 6.82841e-08 0)
(5.08981 2.32895e-08 0)
(5.08981 -2.98125e-08 0)
(5.08981 -2.59005e-08 0)
(5.08981 -1.85713e-09 0)
(5.08981 2.04761e-08 0)
(5.08981 2.24809e-08 0)
(5.08981 -8.43261e-09 0)
(5.08981 -2.80466e-08 0)
(5.08981 -3.07558e-08 0)
(5.08981 -2.84176e-08 0)
(5.08981 -1.1979e-08 0)
(5.08981 3.54239e-08 0)
(5.08981 3.13456e-08 0)
(5.08982 2.14018e-08 0)
(5.08981 -3.38783e-08 0)
(5.08982 -1.27892e-08 0)
(5.0898 3.16844e-09 0)
(5.08982 1.1619e-08 0)
(5.0898 3.02279e-08 0)
(5.08982 -9.29932e-08 0)
(5.08981 -1.47006e-09 0)
(5.08981 -5.69508e-08 0)
(5.08982 -2.80897e-08 0)
(5.0898 1.15498e-07 0)
(5.08982 -1.03978e-07 0)
(5.08981 2.50949e-08 0)
(5.08981 6.49416e-08 0)
(5.08982 -1.0584e-07 0)
(5.08981 4.78474e-08 0)
(5.08981 6.35575e-08 0)
(9.1687 -0.152832 0)
(10.6541 0.756156 0)
(9.80473 3.1035 0)
(11.27 2.03634 0)
(13.1785 -1.66383 0)
(11.2213 -2.51076 0)
(9.95958 -1.40393 0)
(10.7602 -1.77705 0)
(10.8917 -2.76378 0)
(9.12627 -2.99933 0)
(7.82869 -2.5034 0)
(6.8441 -1.8157 0)
(6.14395 -1.31454 0)
(6.08397 -0.795666 0)
(6.20263 -0.364641 0)
(6.00647 -0.159345 0)
(5.69315 -0.103373 0)
(5.4981 -0.0847963 0)
(5.42029 -0.0721435 0)
(5.37898 -0.0780123 0)
(5.33086 -0.0942013 0)
(5.2768 -0.0998658 0)
(5.22637 -0.0886761 0)
(5.18382 -0.0679955 0)
(5.15062 -0.0472378 0)
(5.12693 -0.0310684 0)
(5.11144 -0.0198977 0)
(5.10203 -0.0125942 0)
(5.09659 -0.00791289 0)
(5.09354 -0.00493177 0)
(5.09187 -0.00304258 0)
(5.09095 -0.00185492 0)
(5.09045 -0.00111705 0)
(5.09017 -0.000664299 0)
(5.09001 -0.000390399 0)
(5.08993 -0.000227075 0)
(5.08988 -0.000130568 0)
(5.08985 -7.43657e-05 0)
(5.08983 -4.19259e-05 0)
(5.08982 -2.3297e-05 0)
(5.08982 -1.29499e-05 0)
(5.08982 -6.96288e-06 0)
(5.08981 -3.70271e-06 0)
(5.08981 -2.13262e-06 0)
(5.08981 -9.90506e-07 0)
(5.08981 -3.58487e-07 0)
(5.08981 -2.40327e-07 0)
(5.08981 -1.34113e-07 0)
(5.08981 -6.40761e-08 0)
(5.08981 -6.18217e-08 0)
(5.08981 2.67747e-08 0)
(5.08981 -4.10335e-08 0)
(5.08981 -5.74546e-08 0)
(5.08981 9.35472e-08 0)
(5.08981 6.75053e-08 0)
(5.08981 -3.90829e-08 0)
(5.08981 -8.1269e-08 0)
(5.08981 -4.87516e-08 0)
(5.08981 1.69969e-08 0)
(5.08981 3.0289e-08 0)
(5.08981 -2.23391e-08 0)
(5.08981 -6.67179e-08 0)
(5.08981 -2.19493e-08 0)
(5.08981 5.41645e-08 0)
(5.08981 4.49147e-08 0)
(5.08981 -2.50674e-08 0)
(5.08981 -6.23414e-08 0)
(5.08981 -1.70991e-08 0)
(5.08981 7.33945e-08 0)
(5.08981 1.0682e-07 0)
(5.08981 4.31001e-08 0)
(5.08981 -4.19409e-08 0)
(5.08981 -6.2758e-08 0)
(5.08981 -9.70915e-09 0)
(5.08981 4.94835e-08 0)
(5.08981 4.10166e-08 0)
(5.08981 -1.11709e-08 0)
(5.08981 -4.06076e-08 0)
(5.08981 -6.21248e-08 0)
(5.08981 -5.63999e-08 0)
(5.08981 -1.03107e-08 0)
(5.08981 6.75571e-08 0)
(5.08981 5.83726e-08 0)
(5.08982 2.75414e-08 0)
(5.08981 -5.18423e-08 0)
(5.08982 -2.26997e-08 0)
(5.0898 5.44598e-09 0)
(5.08982 2.30924e-08 0)
(5.0898 4.89087e-08 0)
(5.08982 -1.10101e-07 0)
(5.08981 2.94472e-09 0)
(5.08981 -9.48096e-08 0)
(5.08982 -3.59079e-08 0)
(5.0898 1.47316e-07 0)
(5.08982 -1.23063e-07 0)
(5.08981 5.8085e-08 0)
(5.08981 7.76216e-08 0)
(5.08982 -1.19402e-07 0)
(5.08981 6.39589e-08 0)
(5.08981 6.45304e-08 0)
(9.13681 -0.178172 0)
(10.8483 0.455406 0)
(10.1563 2.8844 0)
(12.3537 1.76093 0)
(13.5594 -1.48949 0)
(10.8356 -2.23225 0)
(10.1109 -1.36391 0)
(10.8526 -1.73071 0)
(10.8526 -2.65191 0)
(9.30458 -2.87994 0)
(8.2134 -2.33042 0)
(7.25209 -1.60301 0)
(6.2498 -1.11359 0)
(5.73767 -0.781622 0)
(5.88761 -0.40939 0)
(6.10008 -0.110668 0)
(5.94518 -0.0225624 0)
(5.64252 -0.0718385 0)
(5.42239 -0.136332 0)
(5.31086 -0.158191 0)
(5.26123 -0.151979 0)
(5.23298 -0.13515 0)
(5.20639 -0.109162 0)
(5.1777 -0.0791609 0)
(5.15046 -0.0526598 0)
(5.12854 -0.0332739 0)
(5.11313 -0.0205378 0)
(5.1033 -0.0126064 0)
(5.09742 -0.00774361 0)
(5.09405 -0.00475589 0)
(5.09217 -0.00290929 0)
(5.09112 -0.00176581 0)
(5.09055 -0.00106114 0)
(5.09023 -0.000630577 0)
(5.09005 -0.000370543 0)
(5.08995 -0.000215495 0)
(5.08989 -0.000123874 0)
(5.08986 -7.05805e-05 0)
(5.08984 -3.97967e-05 0)
(5.08983 -2.20509e-05 0)
(5.08982 -1.22372e-05 0)
(5.08982 -6.62243e-06 0)
(5.08981 -3.49415e-06 0)
(5.08981 -1.94817e-06 0)
(5.08981 -9.19353e-07 0)
(5.08981 -3.72641e-07 0)
(5.08981 -2.60606e-07 0)
(5.08981 -1.21595e-07 0)
(5.08981 -4.53628e-08 0)
(5.08981 -6.1538e-08 0)
(5.08981 2.0903e-08 0)
(5.08981 -2.03957e-08 0)
(5.08981 -3.56925e-08 0)
(5.08981 5.50632e-08 0)
(5.08981 2.19078e-08 0)
(5.08981 -2.7462e-08 0)
(5.08981 -3.75146e-08 0)
(5.08981 -2.42278e-08 0)
(5.08981 4.1153e-09 0)
(5.08981 1.61333e-09 0)
(5.08981 -6.11569e-09 0)
(5.08981 -2.6408e-08 0)
(5.08981 -2.04385e-08 0)
(5.08981 2.93259e-08 0)
(5.08981 2.39427e-08 0)
(5.08981 -1.54983e-08 0)
(5.08981 -1.76479e-08 0)
(5.08981 -5.9036e-09 0)
(5.08981 3.66471e-08 0)
(5.08981 6.46331e-08 0)
(5.08981 2.04292e-08 0)
(5.08981 -2.63008e-08 0)
(5.08981 -2.19563e-08 0)
(5.08981 -4.86505e-10 0)
(5.08981 1.96871e-08 0)
(5.08981 1.67512e-08 0)
(5.08981 -1.0952e-08 0)
(5.08981 -2.49077e-08 0)
(5.08981 -3.14871e-08 0)
(5.08981 -2.8576e-08 0)
(5.08981 -1.29234e-08 0)
(5.08981 3.96048e-08 0)
(5.08981 2.69022e-08 0)
(5.08982 2.80238e-08 0)
(5.08981 -3.8779e-08 0)
(5.08982 -4.00991e-09 0)
(5.0898 4.25459e-09 0)
(5.08982 4.82301e-09 0)
(5.0898 4.5505e-08 0)
(5.08982 -1.32253e-07 0)
(5.08981 3.41415e-08 0)
(5.08981 -7.4014e-08 0)
(5.08982 -3.3891e-08 0)
(5.0898 1.77136e-07 0)
(5.08982 -1.74342e-07 0)
(5.08981 5.41164e-08 0)
(5.08981 9.97478e-08 0)
(5.08982 -1.7511e-07 0)
(5.08981 7.03562e-08 0)
(5.08981 9.47816e-08 0)
(9.7484 -0.143643 0)
(10.5815 0.276061 0)
(10.2307 2.7064 0)
(13.0333 1.54251 0)
(13.7757 -1.31676 0)
(10.8108 -1.89691 0)
(10.3768 -1.33679 0)
(10.7776 -1.90129 0)
(10.5448 -2.4757 0)
(9.50264 -2.60073 0)
(8.25574 -2.14497 0)
(7.86027 -1.46703 0)
(6.89631 -0.982192 0)
(6.03877 -0.649844 0)
(5.53873 -0.41168 0)
(5.64007 -0.18817 0)
(6.00744 -0.038953 0)
(6.17484 0.0140273 0)
(6.01665 0.0232381 0)
(5.72333 -0.00350221 0)
(5.4805 -0.045016 0)
(5.33271 -0.067073 0)
(5.24867 -0.0648819 0)
(5.19483 -0.0501228 0)
(5.15676 -0.0343477 0)
(5.13047 -0.022453 0)
(5.11363 -0.0145349 0)
(5.10348 -0.00944462 0)
(5.0976 -0.00613859 0)
(5.09424 -0.00395884 0)
(5.09233 -0.00251614 0)
(5.09125 -0.00157051 0)
(5.09063 -0.000962442 0)
(5.09028 -0.000579435 0)
(5.09008 -0.000343294 0)
(5.08997 -0.000200704 0)
(5.0899 -0.000115734 0)
(5.08986 -6.60051e-05 0)
(5.08984 -3.71942e-05 0)
(5.08983 -2.05991e-05 0)
(5.08982 -1.14512e-05 0)
(5.08982 -6.17266e-06 0)
(5.08982 -3.23116e-06 0)
(5.08981 -1.83475e-06 0)
(5.08981 -8.4833e-07 0)
(5.08981 -3.28375e-07 0)
(5.08981 -2.37897e-07 0)
(5.08981 -1.2062e-07 0)
(5.08981 -3.73342e-08 0)
(5.08981 -3.75961e-08 0)
(5.08981 2.14329e-08 0)
(5.08981 -2.3155e-08 0)
(5.08981 -4.34779e-08 0)
(5.08981 7.72568e-08 0)
(5.08981 4.82672e-08 0)
(5.08981 -3.65751e-08 0)
(5.08981 -6.05059e-08 0)
(5.08981 -3.96755e-08 0)
(5.08981 7.51917e-09 0)
(5.08981 1.48801e-08 0)
(5.08981 -1.58438e-08 0)
(5.08981 -4.8811e-08 0)
(5.08981 -2.06893e-08 0)
(5.08981 4.21316e-08 0)
(5.08981 3.3241e-08 0)
(5.08981 -1.90476e-08 0)
(5.08981 -4.50771e-08 0)
(5.08981 -1.36944e-08 0)
(5.08981 6.0926e-08 0)
(5.08981 8.7794e-08 0)
(5.08981 3.27286e-08 0)
(5.08981 -2.94631e-08 0)
(5.08981 -4.49715e-08 0)
(5.08981 -7.96907e-09 0)
(5.08981 3.8034e-08 0)
(5.08981 2.94371e-08 0)
(5.08981 -1.37113e-08 0)
(5.08981 -3.06638e-08 0)
(5.08981 -5.00773e-08 0)
(5.08981 -4.85998e-08 0)
(5.08981 -1.35976e-08 0)
(5.08981 6.0336e-08 0)
(5.08981 4.37408e-08 0)
(5.08982 3.23442e-08 0)
(5.08981 -5.04383e-08 0)
(5.08982 -8.08315e-09 0)
(5.0898 3.28545e-09 0)
(5.08982 1.07081e-08 0)
(5.0898 6.15279e-08 0)
(5.08982 -1.4426e-07 0)
(5.08981 5.06241e-08 0)
(5.08981 -1.08952e-07 0)
(5.08982 -3.98705e-08 0)
(5.0898 2.04321e-07 0)
(5.08982 -2.04124e-07 0)
(5.08981 8.92387e-08 0)
(5.08981 1.11225e-07 0)
(5.08982 -1.92952e-07 0)
(5.08981 9.15638e-08 0)
(5.08981 9.95901e-08 0)
(10.4869 -0.0887981 0)
(10.1896 0.234019 0)
(10.0949 2.40527 0)
(13.2071 1.24658 0)
(13.4685 -1.06971 0)
(11.3976 -1.61755 0)
(10.6624 -1.33932 0)
(10.7718 -1.77078 0)
(9.88631 -2.407 0)
(9.39 -2.39221 0)
(7.83222 -2.07286 0)
(7.67904 -1.35795 0)
(7.24274 -0.864758 0)
(6.5717 -0.592452 0)
(6.08998 -0.308238 0)
(5.60528 -0.150222 0)
(5.38027 -0.0952861 0)
(5.39375 -0.0775487 0)
(5.42701 -0.0830388 0)
(5.39159 -0.102816 0)
(5.32519 -0.117059 0)
(5.26897 -0.117748 0)
(5.22794 -0.0986247 0)
(5.19335 -0.0701269 0)
(5.16178 -0.0448628 0)
(5.13574 -0.0273898 0)
(5.11718 -0.0166173 0)
(5.10541 -0.0101994 0)
(5.09853 -0.00632461 0)
(5.09467 -0.00393397 0)
(5.09254 -0.00243594 0)
(5.09136 -0.0014936 0)
(5.0907 -0.000904721 0)
(5.09032 -0.000540751 0)
(5.09011 -0.000319054 0)
(5.08998 -0.000186084 0)
(5.08991 -0.000107089 0)
(5.08987 -6.09782e-05 0)
(5.08984 -3.43377e-05 0)
(5.08983 -1.89692e-05 0)
(5.08982 -1.0534e-05 0)
(5.08982 -5.70192e-06 0)
(5.08982 -2.95783e-06 0)
(5.08981 -1.63049e-06 0)
(5.08981 -7.61765e-07 0)
(5.08981 -3.19188e-07 0)
(5.08981 -2.47108e-07 0)
(5.08981 -1.12373e-07 0)
(5.08981 -1.6201e-08 0)
(5.08981 -3.37666e-08 0)
(5.08981 2.07814e-08 0)
(5.08981 -9.36507e-09 0)
(5.08981 -2.57236e-08 0)
(5.08981 5.03754e-08 0)
(5.08981 1.42105e-08 0)
(5.08981 -3.07067e-08 0)
(5.08981 -3.29664e-08 0)
(5.08981 -2.15926e-08 0)
(5.08981 1.11718e-09 0)
(5.08981 -4.77341e-09 0)
(5.08981 -6.21963e-09 0)
(5.08981 -1.9485e-08 0)
(5.08981 -1.85711e-08 0)
(5.08981 2.52821e-08 0)
(5.08981 2.08438e-08 0)
(5.08981 -1.4235e-08 0)
(5.08981 -1.428e-08 0)
(5.08981 -1.62817e-09 0)
(5.08981 3.74156e-08 0)
(5.08981 5.96793e-08 0)
(5.08981 1.66072e-08 0)
(5.08981 -2.20089e-08 0)
(5.08981 -1.72347e-08 0)
(5.08981 -1.79917e-10 0)
(5.08981 1.83359e-08 0)
(5.08981 1.28104e-08 0)
(5.08981 -1.41817e-08 0)
(5.08981 -2.08917e-08 0)
(5.08981 -3.02333e-08 0)
(5.08981 -2.78338e-08 0)
(5.08981 -1.33641e-08 0)
(5.08981 4.36453e-08 0)
(5.08981 2.00341e-08 0)
(5.08982 3.41353e-08 0)
(5.08981 -4.43811e-08 0)
(5.08982 7.65529e-09 0)
(5.0898 1.30229e-09 0)
(5.08982 -1.1278e-09 0)
(5.0898 5.98787e-08 0)
(5.08982 -1.68397e-07 0)
(5.08981 7.80994e-08 0)
(5.08981 -1.02418e-07 0)
(5.08982 -3.3496e-08 0)
(5.0898 2.34112e-07 0)
(5.08982 -2.5418e-07 0)
(5.08981 9.93308e-08 0)
(5.08981 1.27425e-07 0)
(5.08982 -2.45091e-07 0)
(5.08981 9.74767e-08 0)
(5.08981 1.23022e-07 0)
(10.8418 -0.0175506 0)
(9.83732 0.198179 0)
(10.2681 2.02202 0)
(12.8949 0.966332 0)
(12.7124 -0.938632 0)
(11.7885 -1.41142 0)
(10.8127 -1.28432 0)
(10.6262 -1.605 0)
(9.4666 -2.28748 0)
(9.03967 -2.27974 0)
(8.20878 -1.79339 0)
(7.28747 -1.31921 0)
(7.32765 -0.68752 0)
(6.58149 -0.443339 0)
(5.97378 -0.293307 0)
(5.9401 -0.096277 0)
(6.00979 -0.01201 0)
(5.97734 0.0172642 0)
(5.86312 0.0485087 0)
(5.70001 0.0528904 0)
(5.51737 0.0111568 0)
(5.36129 -0.0265176 0)
(5.25548 -0.0385812 0)
(5.191 -0.0327403 0)
(5.15223 -0.0224333 0)
(5.12846 -0.0140703 0)
(5.11363 -0.0089446 0)
(5.10431 -0.00602649 0)
(5.0985 -0.00417899 0)
(5.09493 -0.00287529 0)
(5.09279 -0.00192462 0)
(5.09154 -0.00124629 0)
(5.0908 -0.000782487 0)
(5.09038 -0.000478255 0)
(5.09014 -0.00028589 0)
(5.09 -0.000167939 0)
(5.08992 -9.69776e-05 0)
(5.08987 -5.52785e-05 0)
(5.08985 -3.10983e-05 0)
(5.08983 -1.7165e-05 0)
(5.08982 -9.53235e-06 0)
(5.08982 -5.12583e-06 0)
(5.08982 -2.61788e-06 0)
(5.08981 -1.45928e-06 0)
(5.08981 -6.77162e-07 0)
(5.08981 -2.82658e-07 0)
(5.08981 -2.231e-07 0)
(5.08981 -1.03695e-07 0)
(5.08981 -4.05188e-09 0)
(5.08981 -5.70855e-09 0)
(5.08981 1.82692e-08 0)
(5.08981 -1.06277e-08 0)
(5.08981 -2.94713e-08 0)
(5.08981 5.99099e-08 0)
(5.08981 3.28529e-08 0)
(5.08981 -3.37383e-08 0)
(5.08981 -4.42505e-08 0)
(5.08981 -3.24295e-08 0)
(5.08981 2.57379e-09 0)
(5.08981 4.89591e-09 0)
(5.08981 -1.27831e-08 0)
(5.08981 -3.23807e-08 0)
(5.08981 -1.91413e-08 0)
(5.08981 3.08162e-08 0)
(5.08981 2.55631e-08 0)