/*--------------------------------*- C++ -*----------------------------------*\
| =========                 |                                                 |
| \\      /  F ield         | OpenFOAM: The Open Source CFD Toolbox           |
|  \\    /   O peration     | Version:  2.4.0                                 |
|   \\  /    A nd           | Web:      www.OpenFOAM.org                      |
|    \\/     M anipulation  |                                                 |
\*---------------------------------------------------------------------------*/
FoamFile
{
    version     2.0;
    format      ascii;
    class       volScalarField;
    location    "1.72";
    object      nuSgs;
}
// * * * * * * * * * * * * * * * * * * * * * * * * * * * * * * * * * * * * * //

dimensions      [0 2 -1 0 0 0 0];

internalField   nonuniform List<scalar> 
8800
(
0.00133849
0.00150707
0.00139267
0.00122951
0.00112048
0.00105089
0.000996811
0.000960767
0.000924644
0.000905729
0.000878342
0.000868372
0.000846314
0.000840662
0.00082018
0.000815744
0.000797057
0.000792284
0.000781785
0.000759567
0.000554172
0.000982152
0.00108295
0.00108138
0.00106286
0.00103455
0.00100146
0.000978185
0.000947973
0.000932809
0.000906164
0.000896221
0.000875739
0.000868798
0.000851732
0.000846454
0.00083231
0.00082641
0.000814295
0.000810939
0.000135655
0.000406195
0.0005843
0.000658128
0.000704787
0.000738467
0.000750231
0.000761159
0.000760468
0.000759325
0.000754274
0.000751746
0.00074474
0.000740928
0.000736452
0.000731185
0.000727406
0.000722137
0.000716128
0.000712695
2.69098e-05
0.000125484
0.000234518
0.000308249
0.000354852
0.000399227
0.000426044
0.000454377
0.000478137
0.000490139
0.000506947
0.000517792
0.000529082
0.00053391
0.00054603
0.000549438
0.000558241
0.000559486
0.000563722
0.000563025
5.11195e-06
3.3452e-05
7.30689e-05
0.000105108
0.000134984
0.000168946
0.000189367
0.000209913
0.000237509
0.000247928
0.000267194
0.000279132
0.00029635
0.000304005
0.000321447
0.000329047
0.000344842
0.000352408
0.000364722
0.000372861
2.36558e-06
8.47698e-06
1.92512e-05
2.9207e-05
3.71986e-05
5.37547e-05
6.35224e-05
7.28457e-05
9.01799e-05
9.73672e-05
0.000106651
0.000117324
0.000128736
0.000134534
0.000144996
0.000155926
0.000162816
0.000175283
0.000181766
0.000195079
2.20602e-06
3.21429e-06
5.59026e-06
8.10211e-06
9.51735e-06
1.37456e-05
1.64588e-05
2.0912e-05
2.49423e-05
2.92789e-05
3.16759e-05
3.72868e-05
4.0218e-05
4.58691e-05
4.87789e-05
5.51344e-05
5.85095e-05
6.65852e-05
7.02269e-05
8.05182e-05
2.1678e-06
2.61071e-06
3.62137e-06
4.00543e-06
4.11053e-06
4.91309e-06
5.46578e-06
6.56259e-06
7.03849e-06
8.15457e-06
8.49984e-06
9.94377e-06
1.04826e-05
1.23917e-05
1.29775e-05
1.51201e-05
1.60298e-05
1.93047e-05
2.07404e-05
2.69454e-05
2.14332e-06
2.47628e-06
3.36507e-06
3.77795e-06
3.70092e-06
3.75433e-06
3.97341e-06
4.29097e-06
4.3934e-06
4.51457e-06
4.47817e-06
4.58831e-06
4.67317e-06
4.95017e-06
5.007e-06
5.27625e-06
5.44635e-06
6.05405e-06
6.27431e-06
7.79291e-06
2.13722e-06
2.43598e-06
2.89918e-06
3.75834e-06
3.8434e-06
3.78586e-06
3.74136e-06
3.7825e-06
4.00168e-06
4.10325e-06
4.0733e-06
4.04506e-06
4.10077e-06
4.15656e-06
4.14204e-06
4.15034e-06
4.2256e-06
4.31293e-06
4.33082e-06
4.36871e-06
2.13779e-06
2.41434e-06
2.86541e-06
3.90233e-06
3.93141e-06
3.79229e-06
3.74501e-06
3.83988e-06
3.94393e-06
4.1133e-06
4.12183e-06
4.1078e-06
4.10918e-06
4.15394e-06
4.18919e-06
4.26779e-06
4.27978e-06
4.29066e-06
4.27213e-06
4.30993e-06
2.14615e-06
2.45712e-06
3.26695e-06
3.69489e-06
3.65511e-06
3.79325e-06
4.22819e-06
4.29668e-06
4.30413e-06
4.3861e-06
4.38893e-06
4.41671e-06
4.709e-06
5.04829e-06
5.08934e-06
5.15076e-06
5.29838e-06
5.60287e-06
5.75189e-06
6.11178e-06
2.15918e-06
2.5918e-06
3.1183e-06
3.95021e-06
4.70451e-06
5.34026e-06
5.6497e-06
6.01338e-06
6.43142e-06
7.85921e-06
8.5077e-06
9.53198e-06
1.11546e-05
1.24883e-05
1.29724e-05
1.44761e-05
1.56336e-05
1.80647e-05
1.92664e-05
2.21676e-05
2.18706e-06
3.06919e-06
5.13156e-06
9.17886e-06
1.0963e-05
1.39821e-05
1.63428e-05
2.07532e-05
2.34215e-05
2.95148e-05
3.20961e-05
3.76828e-05
4.07193e-05
4.64573e-05
4.9048e-05
5.52159e-05
5.84515e-05
6.54022e-05
6.90717e-05
7.85784e-05
2.34895e-06
8.19567e-06
1.78843e-05
3.32182e-05
4.06667e-05
5.30386e-05
6.15699e-05
7.63907e-05
8.40054e-05
9.99467e-05
0.000106427
0.000119839
0.000126089
0.000138218
0.000143632
0.000156507
0.000162475
0.00017588
0.000182537
0.000199938
5.23842e-06
3.28663e-05
6.93653e-05
0.000113887
0.000137227
0.000164981
0.000188892
0.000213855
0.000228302
0.000254094
0.000263661
0.000283191
0.000291831
0.000308645
0.000315961
0.000333453
0.000340552
0.000357596
0.000365357
0.000385083
2.73004e-05
0.000123681
0.000239177
0.000305995
0.000358857
0.000392664
0.000430816
0.000452474
0.000474522
0.000493379
0.000504797
0.000518927
0.000526734
0.00053663
0.000541567
0.000552003
0.000555337
0.000564441
0.000568131
0.000576734
0.000136713
0.000400243
0.000588654
0.000654861
0.000709626
0.000732301
0.000755496
0.000757131
0.000761475
0.000757641
0.000756069
0.000749126
0.000746722
0.000738913
0.000736945
0.000730654
0.000728971
0.000724552
0.000722923
0.000718631
0.000557302
0.000979985
0.00108437
0.00108059
0.00106474
0.00102947
0.00100653
0.00097178
0.000955639
0.000924071
0.000913795
0.000889212
0.000882055
0.000862707
0.000858205
0.00084148
0.000838259
0.000823136
0.000818643
0.000805787
0.00133917
0.00150555
0.00139413
0.0012266
0.0011238
0.00104671
0.00100108
0.000955259
0.000931837
0.000897519
0.000886722
0.000860307
0.000854886
0.000833092
0.00082979
0.000808283
0.000805148
0.000781836
0.000774862
0.000745256
0.000345588
0.000291296
0.000257334
0.000234524
0.00022039
0.00021084
0.000205615
0.000201309
0.000199371
0.000196791
0.000195405
0.000193523
0.000191856
0.000191045
0.000189415
0.000188158
0.000185276
0.000179383
0.000165807
0.000144058
0.000128395
0.000118101
0.000111731
0.000106257
0.000100775
9.61911e-05
9.24253e-05
8.87531e-05
8.8935e-05
9.06295e-05
9.5017e-05
0.00010187
0.000108662
0.000120437
0.00012739
0.000137481
0.000141109
0.000147296
0.000149464
0.000152922
0.000154864
0.000155418
0.000157311
0.000157928
0.000159228
0.000159912
0.000160448
0.000162646
0.000163019
0.000163402
0.000163423
0.000162951
0.000162688
0.000161889
0.000161207
0.000160727
0.00015989
0.000159692
0.000159296
0.000158728
0.000158966
0.000159247
0.000160338
0.000160081
0.000160164
0.000160164
0.00015903
0.000156881
0.00015581
0.000153527
0.000149044
0.000146908
0.000143586
0.000137841
0.000134054
0.000130542
0.000121553
0.000113008
0.000100641
8.71109e-05
7.18886e-05
5.86719e-05
4.73536e-05
3.83108e-05
3.0968e-05
2.55877e-05
2.17591e-05
1.94013e-05
1.80966e-05
1.79533e-05
1.80661e-05
1.85038e-05
1.98828e-05
2.30601e-05
2.66655e-05
3.28634e-05
3.97045e-05
4.47122e-05
5.13699e-05
5.59643e-05
5.88603e-05
6.20201e-05
6.38232e-05
6.50684e-05
6.56046e-05
6.52703e-05
6.39528e-05
6.30754e-05
6.30781e-05
6.44245e-05
6.52557e-05
6.4924e-05
6.47763e-05
6.50696e-05
6.57955e-05
6.74478e-05
7.06549e-05
7.72625e-05
8.91675e-05
0.000108927
0.000124031
0.00012673
0.000126068
0.000123904
0.000121584
0.000117824
0.00011505
0.00011174
0.000109168
0.000105914
0.000103796
9.8622e-05
9.36534e-05
8.80624e-05
7.58751e-05
6.25501e-05
5.18594e-05
4.5623e-05
4.3575e-05
4.18807e-05
3.74865e-05
3.31178e-05
2.98065e-05
2.82197e-05
2.79326e-05
2.83528e-05
2.9615e-05
3.40963e-05
4.53662e-05
6.12865e-05
7.0333e-05
7.32944e-05
7.32526e-05
7.10036e-05
6.83281e-05
6.68309e-05
6.4897e-05
6.11689e-05
5.5923e-05
5.18148e-05
4.80017e-05
4.45271e-05
4.17361e-05
3.91406e-05
3.8039e-05
3.70202e-05
3.69068e-05
3.65384e-05
3.66631e-05
3.65924e-05
3.63603e-05
3.63817e-05
3.73706e-05
3.81443e-05
4.08948e-05
4.13716e-05
4.21875e-05
4.33111e-05
4.72399e-05
5.41176e-05
6.0227e-05
6.23016e-05
6.38804e-05
6.57912e-05
7.0189e-05
8.54821e-05
0.000102403
0.000105806
0.000105241
9.55748e-05
8.15022e-05
6.94632e-05
6.08029e-05
5.02097e-05
4.56932e-05
4.59191e-05
4.70014e-05
5.22831e-05
9.48567e-05
0.000260195
0.000409793
0.000371209
0.000339658
0.000315207
0.000295795
0.000279823
0.000266926
0.000256997
0.000248278
0.000242336
0.000236209
0.000232776
0.000227751
0.000225003
0.000221293
0.000218978
0.000217792
0.00021623
0.000214313
0.000210194
0.000200791
0.000187437
0.000172504
0.000158417
0.000147316
0.000138985
0.000133247
0.000133308
0.000134927
0.000139181
0.00014517
0.000153312
0.000157793
0.000164006
0.000166779
0.00017004
0.000171828
0.000173227
0.000174718
0.000175075
0.000175646
0.00017571
0.000175916
0.00017561
0.000174896
0.000174567
0.000173317
0.000172029
0.000170889
0.00016862
0.000166432
0.000164676
0.000160892
0.000158718
0.00015479
0.000150946
0.000147119
0.000143835
0.000139105
0.000134744
0.000133208
0.00012994
0.000127666
0.000127184
0.000125612
0.000125081
0.000125145
0.000124397
0.000122788
0.000121462
0.000117553
0.000113862
0.000110361
0.000102711
9.46606e-05
8.50472e-05
7.343e-05
6.28636e-05
5.32043e-05
4.43331e-05
3.66937e-05
3.03799e-05
2.5228e-05
2.15794e-05
1.9021e-05
1.74406e-05
1.68344e-05
1.69122e-05
1.71965e-05
1.79404e-05
1.9732e-05
2.29932e-05
2.95521e-05
3.68464e-05
4.47016e-05
5.64759e-05
6.40399e-05
7.21764e-05
7.94884e-05
8.4444e-05
8.72811e-05
9.03032e-05
9.18511e-05
9.16755e-05
9.07558e-05
8.75735e-05
8.3916e-05
8.2677e-05
8.11058e-05
7.85551e-05
7.6836e-05
7.66706e-05
7.74622e-05
7.73182e-05
7.79224e-05
8.06936e-05
8.791e-05
0.000104916
0.000129257
0.000137277
0.000136431
0.00013304
0.000126827
0.000120416
0.000112478
0.000107704
0.000104124
0.000103139
0.000103136
0.00010278
0.000102085
9.99772e-05
9.67397e-05
9.43698e-05
8.9664e-05
7.84996e-05
6.55055e-05
5.37939e-05
4.74978e-05
4.40777e-05
4.01526e-05
3.52111e-05
3.13501e-05
2.88903e-05
2.75343e-05
2.75283e-05
2.78825e-05
2.94671e-05
3.48914e-05
4.73184e-05
6.39198e-05
7.13975e-05
7.30521e-05
7.26373e-05
7.06627e-05
6.74833e-05
6.51624e-05
6.11344e-05
5.66122e-05
5.25765e-05
4.95882e-05
4.58668e-05
4.28767e-05
3.98259e-05
3.89026e-05
3.77323e-05
3.75887e-05
3.67996e-05
3.65115e-05
3.64403e-05
3.65671e-05
3.65378e-05
3.73662e-05
3.83342e-05
4.1133e-05
4.19467e-05
4.26286e-05
4.41018e-05
4.9018e-05
5.60841e-05
6.23722e-05
6.45677e-05
6.64618e-05
6.84612e-05
7.33142e-05
8.84375e-05
0.000106604
0.000109475
0.000110093
9.82981e-05
8.02735e-05
6.60475e-05
5.90032e-05
5.23416e-05
4.60616e-05
4.52693e-05
4.80656e-05
5.23719e-05
9.16162e-05
0.000179335
0.000371451
0.000350479
0.000328589
0.000310453
0.000295569
0.000283581
0.000272812
0.000263563
0.00025418
0.000246777
0.000239611
0.000234398
0.000230947
0.000227049
0.00022489
0.000221422
0.00021881
0.000217016
0.000214777
0.000213852
0.000212453
0.00020986
0.000207419
0.000201744
0.000197479
0.000191478
0.000187139
0.000183359
0.00018033
0.000178838
0.000177194
0.000177354
0.000177475
0.000177691
0.000178418
0.000178383
0.000178502
0.000178474
0.000177989
0.000177355
0.000176206
0.000175278
0.000173429
0.00017223
0.000170749
0.000167771
0.000166126
0.000162918
0.000159928
0.000155827
0.000151551
0.000146877
0.000140296
0.000136284
0.000128557
0.000123008
0.000117831
0.000109045
0.000105409
9.90768e-05
9.2996e-05
9.03796e-05
8.42384e-05
8.19312e-05
7.9365e-05
7.62716e-05
7.54325e-05
7.36684e-05
7.05867e-05
6.90577e-05
6.59778e-05
6.22714e-05
5.85172e-05
5.37936e-05
4.85574e-05
4.34298e-05
3.81802e-05
3.30023e-05
2.82356e-05
2.39856e-05
2.0529e-05
1.8065e-05
1.61102e-05
1.54393e-05
1.55335e-05
1.5718e-05
1.62098e-05
1.72785e-05
1.98278e-05
2.3381e-05
2.98616e-05
3.7345e-05
5.00649e-05
6.15904e-05
7.57282e-05
8.91288e-05
9.82235e-05
0.000108093
0.000115807
0.000119089
0.000122401
0.000124122
0.000123885
0.000122588
0.000119092
0.000112419
0.000109366
0.000102172
9.58334e-05
9.32245e-05
9.13536e-05
8.90073e-05
8.77031e-05
8.76607e-05
9.07318e-05
9.96672e-05
0.000120966
0.000146168
0.000148377
0.000145437
0.000137641
0.000122974
0.000107567
9.64387e-05
8.72542e-05
8.19535e-05
8.03938e-05
8.08864e-05
8.31437e-05
8.65971e-05
9.28015e-05
9.57777e-05
9.5388e-05
9.4344e-05
9.24276e-05
8.81439e-05
7.81125e-05
6.45278e-05
5.39969e-05
4.70504e-05
4.20448e-05
3.81825e-05
3.37509e-05
3.05507e-05
2.80331e-05
2.74475e-05
2.73905e-05
2.76503e-05
2.98206e-05
3.65683e-05
5.27448e-05
6.59699e-05
7.14561e-05
7.23656e-05
7.21381e-05
7.01573e-05
6.62647e-05
6.17035e-05
5.76257e-05
5.39256e-05
5.09669e-05
4.73786e-05
4.40877e-05
4.08453e-05
3.95703e-05
3.89219e-05
3.81407e-05
3.71092e-05
3.68752e-05
3.70897e-05
3.77748e-05
3.79072e-05
3.88368e-05
3.94683e-05
4.14398e-05
4.22979e-05
4.39459e-05
4.69603e-05
5.41915e-05
6.38045e-05
6.69404e-05
7.00972e-05
7.07351e-05
7.34062e-05
7.67745e-05
9.91145e-05
0.000106059
0.000116443
0.000112761
0.000103076
8.16894e-05
6.71628e-05
5.79167e-05
5.03958e-05
4.98937e-05
4.92703e-05
6.43222e-05
5.82795e-05
8.15943e-05
0.000131558
0.000299377
0.000290152
0.000277512
0.00026524
0.000254466
0.000244916
0.000238859
0.000233678
0.000227728
0.000222266
0.000215343
0.000208629
0.000204982
0.000201871
0.000200451
0.000200251
0.000199394
0.000197363
0.000195011
0.000193996
0.000193751
0.000193819
0.00019366
0.000193014
0.000191967
0.000190056
0.000187181
0.000184813
0.000180428
0.000177657
0.00017438
0.000170583
0.000169256
0.000166482
0.00016529
0.000164371
0.000162485
0.000161769
0.000160024
0.000158666
0.000155043
0.000152774
0.000149218
0.00014586
0.000142402
0.000137977
0.000135375
0.000129408
0.000125873
0.000120334
0.000113806
0.000108491
0.000100375
9.36953e-05
8.62811e-05
7.87239e-05
7.32172e-05
6.64858e-05
6.27785e-05
5.80744e-05
5.42451e-05
5.26027e-05
4.89395e-05
4.70514e-05
4.5442e-05
4.27695e-05
4.13782e-05
3.98714e-05
3.77253e-05
3.6081e-05
3.42652e-05
3.21517e-05
3.00559e-05
2.78581e-05
2.5583e-05
2.32495e-05
2.08336e-05
1.84415e-05
1.61963e-05
1.44782e-05
1.35269e-05
1.31992e-05
1.3463e-05
1.40074e-05
1.51481e-05
1.6614e-05
1.93723e-05
2.32916e-05
3.04805e-05
3.79155e-05
4.94976e-05
6.392e-05
8.32115e-05
0.000100529
0.000118612
0.00013046
0.000138531
0.000142274
0.000143171
0.000143517
0.000143458
0.0001432
0.000142477
0.000141022
0.000137689
0.000135044
0.000131741
0.000120797
0.000116518
0.000107119
0.000104783
0.000103091
0.000103036
0.00010465
0.000113424
0.0001356
0.000160404
0.000160024
0.000153591
0.000136879
0.000110706
9.24177e-05
8.0476e-05
7.46396e-05
7.00701e-05
6.72464e-05
6.70736e-05
6.75238e-05
6.88198e-05
7.18582e-05
7.56627e-05
8.27863e-05
8.96396e-05
9.22384e-05
9.18895e-05
9.02128e-05
8.60853e-05
7.53791e-05
6.18535e-05
5.11693e-05
4.42652e-05
3.99744e-05
3.70576e-05
3.34621e-05
2.97675e-05
2.7932e-05
2.74319e-05
2.72902e-05
2.77803e-05
3.10147e-05
4.1448e-05
5.80034e-05
6.75376e-05
7.1158e-05
7.19258e-05
7.16852e-05
6.95011e-05
6.41807e-05
5.95453e-05
5.67507e-05
5.35744e-05
5.01165e-05
4.64925e-05
4.27708e-05
4.0827e-05
4.0251e-05
3.97835e-05
3.85686e-05
3.84207e-05
3.86341e-05
3.93387e-05
3.92861e-05
3.96887e-05
4.0094e-05
4.16119e-05
4.28321e-05
4.6138e-05
5.10051e-05
6.26701e-05
6.80319e-05
7.20543e-05
7.32083e-05
7.40341e-05
7.64285e-05
8.2013e-05
0.000100574
0.000117712
0.000120574
0.000117933
9.97694e-05
8.80223e-05
6.97792e-05
7.62418e-05
6.31382e-05
8.64429e-05
6.75181e-05
9.86617e-05
7.62645e-05
7.88008e-05
0.000102244
0.000200989
0.000198116
0.000193676
0.000187119
0.000181905
0.000174994
0.000170623
0.000168649
0.000166826
0.000165937
0.000163636
0.000158203
0.000153425
0.000149539
0.000148544
0.000148828
0.000150292
0.000153145
0.000154732
0.000154292
0.000152244
0.000150495
0.000149338
0.000149221
0.000149674
0.000151661
0.000151845
0.000151427
0.000150483
0.000147809
0.000144133
0.000138294
0.000133108
0.000128159
0.000122962
0.000119671
0.000117613
0.00011576
0.000114664
0.000114026
0.000112021
0.000110438
0.000106797
0.000102928
9.746e-05
9.19482e-05
8.65814e-05
8.08279e-05
7.60603e-05
7.09334e-05
6.59087e-05
6.16138e-05
5.64791e-05
5.21424e-05
4.78447e-05
4.34965e-05
4.01193e-05
3.65588e-05
3.37618e-05
3.14956e-05
2.9628e-05
2.83912e-05
2.70922e-05
2.58771e-05
2.46883e-05
2.33419e-05
2.19524e-05
2.09012e-05
1.95193e-05
1.86381e-05
1.75398e-05
1.64327e-05
1.55736e-05
1.47498e-05
1.39209e-05
1.29044e-05
1.19956e-05
1.08271e-05
1.05352e-05
1.0672e-05
1.12818e-05
1.20638e-05
1.35258e-05
1.52972e-05
1.93273e-05
2.34756e-05
3.019e-05
3.7383e-05
4.95513e-05
6.2785e-05
8.24943e-05
0.000106899
0.000130389
0.000146021
0.000151862
0.000152825
0.000151707
0.000150546
0.000148631
0.000147903
0.000147134
0.000146582
0.000146005
0.000144487
0.000142272
0.000141275
0.000138084
0.000133603
0.000129641
0.000122524
0.000121209
0.000118368
0.00011947
0.000126184
0.000150925
0.000175235
0.000173644
0.000162988
0.000131602
0.000101056
8.44686e-05
7.49555e-05
6.8953e-05
6.61959e-05
6.37646e-05
6.19952e-05
6.1877e-05
6.20538e-05
6.27026e-05
6.44783e-05
6.68755e-05
7.06354e-05
7.70186e-05
8.62492e-05
8.98253e-05
8.95763e-05
8.79832e-05
8.30107e-05
7.07492e-05
5.74378e-05
4.76287e-05
4.1743e-05
3.92859e-05
3.70893e-05
3.30641e-05
2.98173e-05
2.80675e-05
2.74456e-05
2.73597e-05
2.84425e-05
3.34498e-05
4.73837e-05
6.10646e-05
6.83228e-05
7.10787e-05
7.16385e-05
7.12596e-05
6.96241e-05
6.41364e-05
6.05469e-05
5.80192e-05
5.54295e-05
5.24514e-05
4.6972e-05
4.44044e-05
4.27681e-05
4.24167e-05
4.0567e-05
4.00389e-05
3.99115e-05
3.99822e-05
3.99108e-05
4.03428e-05
4.10471e-05
4.37415e-05
4.56204e-05
5.21777e-05
6.08689e-05
7.11046e-05
7.40417e-05
7.49009e-05
7.50784e-05
7.58523e-05
7.77695e-05
8.77861e-05
9.87742e-05
0.000123871
0.000124426
0.000127733
0.000109478
0.000102389
8.46587e-05
9.4862e-05
8.68958e-05
0.000109862
0.000100332
0.000109942
0.000103471
9.10826e-05
9.79115e-05
0.000106106
0.000105688
0.000105139
0.000103008
0.000101197
9.71427e-05
9.46391e-05
9.40368e-05
9.38352e-05
9.44207e-05
9.48398e-05
9.44562e-05
9.1956e-05
8.82934e-05
8.67895e-05
8.67741e-05
8.75095e-05
9.14523e-05
9.69338e-05
9.94529e-05
0.000100247
9.99665e-05
9.71657e-05
9.62074e-05
9.44698e-05
9.3627e-05
9.46474e-05
9.55713e-05
9.58883e-05
9.55749e-05
9.46174e-05
9.27507e-05
8.80721e-05
8.31526e-05
7.74325e-05
7.17996e-05
6.8341e-05
6.50565e-05
6.38575e-05
6.30094e-05
6.2336e-05
6.20078e-05
6.13776e-05
6.0051e-05
5.68393e-05
5.33505e-05
4.94381e-05
4.54545e-05
4.16985e-05
3.85632e-05
3.54962e-05
3.30082e-05
3.06193e-05
2.8073e-05
2.59027e-05
2.34749e-05
2.12699e-05
1.93727e-05
1.76127e-05
1.63753e-05
1.56018e-05
1.50941e-05
1.45781e-05
1.4108e-05
1.34476e-05
1.27372e-05
1.18917e-05
1.12454e-05
1.06065e-05
1.00321e-05
9.52445e-06
9.08715e-06
8.76951e-06
8.63027e-06
8.37986e-06
8.13258e-06
8.18482e-06
8.37869e-06
9.02779e-06
1.00078e-05
1.1811e-05
1.43812e-05
1.90505e-05
2.32298e-05
3.06023e-05
3.75629e-05
4.83854e-05
6.0088e-05
7.95851e-05
0.000102599
0.00013456
0.000154656
0.00016165
0.000161132
0.000159121
0.00015594
0.00015112
0.00014668
0.000142897
0.000140214
0.000137425
0.000137213
0.000137664
0.000139368
0.000140496
0.000140061
0.000138576
0.000139129
0.000135937
0.00013103
0.000130009
0.000131349
0.000139512
0.000160954
0.00018977
0.000187642
0.000171242
0.000126399
9.90347e-05
8.04605e-05
7.32224e-05
6.74328e-05
6.45214e-05
6.31155e-05
6.17729e-05
6.02344e-05
5.9951e-05
5.99169e-05
6.01818e-05
6.1208e-05
6.32157e-05
6.48289e-05
6.82411e-05
7.55858e-05
8.45755e-05
8.77176e-05
8.73948e-05
8.51737e-05
7.7262e-05
6.4291e-05
5.26465e-05
4.57407e-05
4.12579e-05
4.02102e-05
3.84821e-05
3.49397e-05
3.0569e-05
2.84977e-05
2.76847e-05
2.8083e-05
3.01313e-05
3.7716e-05
5.04781e-05
6.18383e-05
6.82679e-05
7.09269e-05
7.12392e-05
7.09259e-05
6.96782e-05
6.56038e-05
6.15411e-05
5.93944e-05
5.8158e-05
5.40372e-05
5.10025e-05
4.77165e-05
4.64384e-05
4.36891e-05
4.24994e-05
4.19834e-05
4.20944e-05
4.20518e-05
4.35068e-05
4.46875e-05
4.97987e-05
5.27503e-05
6.36868e-05
7.17614e-05
7.56537e-05
7.67238e-05
7.67595e-05
7.67461e-05
7.88759e-05
8.21167e-05
8.98741e-05
0.000102962
0.00011949
0.000123985
0.000124514
0.000110565
9.83269e-05
8.92788e-05
8.98017e-05
8.97842e-05
9.52423e-05
9.97321e-05
0.000111312
0.000118635
0.000123001
0.000113637
4.4682e-05
4.4678e-05
4.46187e-05
4.40477e-05
4.33463e-05
4.15433e-05
4.05266e-05
4.03679e-05
4.03021e-05
4.13376e-05
4.23398e-05
4.24876e-05
4.2174e-05
4.01767e-05
3.88932e-05
3.86657e-05
3.88921e-05
4.17767e-05
4.88691e-05
5.31559e-05
5.53302e-05
5.56846e-05
5.35527e-05
5.11924e-05
4.81784e-05
4.53099e-05
4.40542e-05
4.44291e-05
4.87848e-05
5.23264e-05
5.35344e-05
5.38416e-05
5.32647e-05
4.96798e-05
4.44809e-05
3.90126e-05
3.48349e-05
3.18793e-05
3.0859e-05
3.08332e-05
3.1494e-05
3.21936e-05
3.24758e-05
3.24753e-05
3.14875e-05
2.8889e-05
2.62706e-05
2.36435e-05
2.12566e-05
1.95605e-05
1.79912e-05
1.68205e-05
1.57061e-05
1.43852e-05
1.31411e-05
1.1841e-05
1.06078e-05
9.66819e-06
8.93837e-06
8.43888e-06
8.22138e-06
8.07971e-06
7.82632e-06
7.73008e-06
7.62476e-06
7.59513e-06
7.6217e-06
7.63611e-06
7.51879e-06
7.3671e-06
7.30544e-06
7.17243e-06
7.16973e-06
7.20083e-06
7.30681e-06
7.56271e-06
8.01997e-06
8.99459e-06
1.13404e-05
1.41376e-05
1.77756e-05
2.37214e-05
3.12164e-05
3.76914e-05
4.77446e-05
5.89934e-05
7.41345e-05
9.50413e-05
0.000128019
0.000159409
0.000170626
0.000170245
0.000167697
0.000161996
0.000150088
0.000137187
0.000126836
0.000121009
0.000117247
0.00011365
0.000112425
0.000112638
0.000113504
0.000116046
0.000126171
0.000132094
0.000136876
0.000140802
0.000139701
0.000140018
0.000140339
0.000147142
0.000159861
0.000198175
0.000200852
0.000181458
0.000131097
0.000101472
8.27563e-05
7.17166e-05
6.84915e-05
6.40282e-05
6.3009e-05
6.2158e-05
6.05644e-05
6.01451e-05
5.9693e-05
5.90244e-05
5.93194e-05
5.97946e-05
6.14695e-05
6.27449e-05
6.46139e-05
6.8432e-05
7.7143e-05
8.35567e-05
8.53854e-05
8.46694e-05
8.09277e-05
7.04215e-05
5.65305e-05
4.85705e-05
4.47972e-05
4.47911e-05
4.43456e-05
4.30414e-05
3.70297e-05
3.22047e-05
2.9308e-05
2.90004e-05
3.02341e-05
3.37549e-05
4.34486e-05
5.41584e-05
6.21714e-05
6.70302e-05
7.01281e-05
7.06374e-05
7.05005e-05
6.95155e-05
6.50519e-05
6.27884e-05
6.04319e-05
5.73027e-05
5.52714e-05
5.14515e-05
5.03508e-05
4.69078e-05
4.62522e-05
4.52607e-05
4.59405e-05
4.59206e-05
4.87623e-05
5.07498e-05
5.78129e-05
6.22439e-05
7.37711e-05
7.62554e-05
7.72675e-05
7.76654e-05
7.75322e-05
7.77179e-05
8.29955e-05
8.78023e-05
9.26344e-05
0.000103605
0.000116095
0.000122498
0.000120298
0.000109294
9.52106e-05
8.95961e-05
8.82578e-05
8.89591e-05
9.17915e-05
0.000100389
0.000105684
0.000119718
0.000124232
0.000137512
1.54163e-05
1.54216e-05
1.53934e-05
1.52172e-05
1.49754e-05
1.44081e-05
1.41524e-05
1.41539e-05
1.4168e-05
1.47368e-05
1.53165e-05
1.54578e-05
1.54186e-05
1.47775e-05
1.43602e-05
1.42485e-05
1.4355e-05
1.63187e-05
2.07677e-05
2.33826e-05
2.44408e-05
2.44767e-05
2.28451e-05
2.07461e-05
1.88014e-05
1.6988e-05
1.62191e-05
1.76698e-05
2.31463e-05
2.67301e-05
2.79633e-05
2.81611e-05
2.72869e-05
2.41123e-05
2.07212e-05
1.74676e-05
1.50976e-05
1.40027e-05
1.38513e-05
1.45502e-05
1.53018e-05
1.57701e-05
1.58998e-05
1.5738e-05
1.47354e-05
1.33422e-05
1.21264e-05
1.09109e-05
1.00392e-05
9.33455e-06
8.67835e-06
8.13575e-06
7.58896e-06
7.0318e-06
6.62261e-06
6.28433e-06
6.12446e-06
6.09961e-06
6.09699e-06
6.10572e-06
6.07117e-06
5.91602e-06
5.81804e-06
5.79247e-06
5.99501e-06
6.68677e-06
7.25282e-06
7.76338e-06
8.11931e-06
8.36665e-06
8.61107e-06
8.853e-06
9.08714e-06
9.4715e-06
1.02258e-05
1.12317e-05
1.26149e-05
1.56592e-05
1.99066e-05
2.46697e-05
2.93836e-05
3.98768e-05
4.80706e-05
5.92105e-05
7.07145e-05
8.97047e-05
0.000113434
0.000153187
0.000176172
0.000180366
0.000178188
0.000171123
0.000153619
0.000131263
0.000120207
0.000115413
0.000113458
0.000112015
0.000110183
0.000108297
0.000106828
0.000106388
0.000106466
0.000107415
0.000113891
0.000125108
0.000134389
0.000139331
0.000145254
0.000147278
0.000150181
0.000159691
0.000193261
0.000213973
0.000198088
0.000147446
0.000109876
8.81599e-05
7.43239e-05
6.82423e-05
6.5162e-05
6.25159e-05
6.25359e-05
6.15621e-05
6.02786e-05
5.9828e-05
5.99021e-05
5.96187e-05
5.9572e-05
5.97004e-05
6.0467e-05
6.18483e-05
6.35414e-05
6.64275e-05
7.33144e-05
8.01786e-05
8.29136e-05
8.32568e-05
8.13785e-05
7.41891e-05
6.16718e-05
5.19564e-05
4.95402e-05
4.94877e-05
5.00054e-05
4.87346e-05
4.26007e-05
3.56465e-05
3.32355e-05
3.21231e-05
3.26157e-05
3.46148e-05
4.2036e-05
5.04728e-05
5.85704e-05
6.29487e-05
6.65882e-05
6.90939e-05
6.98582e-05
6.97845e-05
6.81978e-05
6.57541e-05
6.35724e-05
5.99476e-05
5.88181e-05
5.54514e-05
5.44193e-05
5.08541e-05
5.08091e-05
5.01438e-05
5.14418e-05
5.1628e-05
5.69491e-05
5.97276e-05
6.85256e-05
7.23188e-05
7.7775e-05
7.79976e-05
7.7614e-05
7.74106e-05
7.81201e-05
7.94622e-05
8.79255e-05
9.35172e-05
9.76106e-05
0.000106169
0.000109791
0.000118856
0.000116867
0.000107289
9.93942e-05
9.09921e-05
9.07666e-05
9.0158e-05
9.39585e-05
0.000104752
0.000109089
0.000123207
0.000126043
0.00013199
4.34714e-06
4.40279e-06
4.51896e-06
4.60355e-06
4.66854e-06
4.68426e-06
4.67804e-06
4.63664e-06
4.59369e-06
4.66478e-06
4.72597e-06
4.73832e-06
4.74846e-06
4.65953e-06
4.65434e-06
4.67957e-06
4.80916e-06
5.73616e-06
7.01509e-06
7.70501e-06
7.86356e-06
7.76289e-06
7.32243e-06
6.86924e-06
6.34321e-06
5.8073e-06
5.82622e-06
8.10561e-06
1.0512e-05
1.16076e-05
1.18087e-05
1.14177e-05
1.01799e-05
8.99757e-06
8.05062e-06
7.37959e-06
6.8601e-06
6.57711e-06
6.4846e-06
6.55905e-06
6.64229e-06
6.71832e-06
6.66278e-06
6.49678e-06
6.26453e-06
6.1527e-06
6.06172e-06
5.93941e-06
5.76205e-06
5.6375e-06
5.44705e-06
5.29734e-06
5.26252e-06
5.28571e-06
5.41448e-06
5.64094e-06
5.94065e-06
6.33257e-06
6.63071e-06
6.88918e-06
6.99499e-06
6.98546e-06
6.93876e-06
6.94088e-06
7.53074e-06
9.59214e-06
1.13143e-05
1.26202e-05
1.35825e-05
1.42724e-05
1.46761e-05
1.54376e-05
1.60729e-05
1.68098e-05
1.85404e-05
2.04924e-05
2.28455e-05
2.85887e-05
3.33122e-05
4.1442e-05
4.8792e-05
6.03902e-05
7.34404e-05
8.76503e-05
0.000105937
0.000135428
0.00017487
0.000188972
0.000188692
0.000183155
0.000164797
0.000135145
0.000120426
0.000114882
0.000112889
0.00011303
0.000113676
0.000113693
0.000112931
0.000112208
0.00010996
0.000108346
0.000108363
0.000109288
0.000116644
0.000127897
0.000134892
0.00014057
0.000146201
0.000147776
0.000155841
0.000180754
0.000219638
0.000213485
0.000178216
0.000132592
9.99526e-05
8.10798e-05
7.08667e-05
6.63613e-05
6.20573e-05
6.19225e-05
6.23799e-05
6.02985e-05
6.08888e-05
6.00561e-05
5.9813e-05
6.01376e-05
6.01257e-05
5.99909e-05
6.04957e-05
6.19965e-05
6.33209e-05
6.53939e-05
7.10974e-05
7.75793e-05
8.21096e-05
8.28883e-05
8.21078e-05
7.70917e-05
6.47842e-05
5.51561e-05
5.41144e-05
5.3934e-05
5.39589e-05
5.14059e-05
4.36416e-05
3.68161e-05
3.52396e-05
3.48629e-05
3.51743e-05
3.68075e-05
4.1298e-05
5.03412e-05
5.77762e-05
6.24884e-05
6.52634e-05
6.8367e-05
6.98364e-05
6.96456e-05
6.96025e-05
6.85567e-05
6.73784e-05
6.43189e-05
6.33906e-05
6.09921e-05
6.03615e-05
5.77174e-05
5.83626e-05
5.78407e-05
5.9726e-05
6.00582e-05
6.7745e-05
7.05338e-05
7.54437e-05
7.67141e-05
7.86879e-05
7.84573e-05
7.55823e-05
7.54776e-05
7.8152e-05
8.51525e-05
8.98727e-05
9.87816e-05
0.000101375
0.000109397
0.000111307
0.00011423
0.000109711
0.000101035
9.65877e-05
9.08977e-05
9.1613e-05
9.42166e-05
9.89061e-05
0.000107253
0.000113576
0.00012801
0.00014174
0.000140794
2.40055e-06
2.4189e-06
2.47204e-06
2.56367e-06
2.58496e-06
2.589e-06
2.58127e-06
2.59235e-06
2.61337e-06
2.6942e-06
2.69671e-06
2.68606e-06
2.68073e-06
2.68604e-06
2.70295e-06
2.71506e-06
2.72865e-06
2.76321e-06
2.90436e-06
3.00907e-06
3.05745e-06
3.06222e-06
2.99932e-06
2.93689e-06
2.89267e-06
3.02175e-06
3.63721e-06
3.99166e-06
4.1249e-06
4.13427e-06
4.15066e-06
4.24488e-06
4.38647e-06
4.37292e-06
4.15981e-06
3.96615e-06
3.91677e-06
3.96406e-06
4.07326e-06
4.07997e-06
4.01711e-06
4.00991e-06
4.2002e-06
4.6511e-06
4.92798e-06
5.04412e-06
5.20858e-06
5.41213e-06
5.65468e-06
5.94637e-06
6.13602e-06
6.4197e-06
6.76284e-06
7.40659e-06
8.54087e-06
9.41705e-06
1.0296e-05
1.11483e-05
1.17583e-05
1.22864e-05
1.26753e-05
1.28125e-05
1.28575e-05
1.30738e-05
1.48023e-05
1.76048e-05
2.02102e-05
2.18066e-05
2.31654e-05
2.42375e-05
2.49073e-05
2.63053e-05
2.75146e-05
2.88766e-05
3.22821e-05
3.52288e-05
4.00768e-05
4.7904e-05
5.43363e-05
6.59381e-05
7.76201e-05
8.94439e-05
0.000109395
0.000127972
0.00016062
0.000188643
0.00019717
0.000194949
0.000181709
0.000146745
0.000125859
0.000116188
0.000111958
0.000111549
0.000112624
0.000115168
0.000117278
0.000117627
0.000118632
0.000118739
0.000118088
0.000117226
0.000117035
0.000117323
0.000123385
0.000132242
0.000136042
0.000141319
0.000144589
0.000148811
0.000166639
0.000205568
0.000218476
0.000199985
0.000171995
0.000127756
9.62529e-05
7.863e-05
6.95732e-05
6.40427e-05
6.12643e-05
6.17357e-05
6.0846e-05
6.00771e-05
6.158e-05
5.93041e-05
6.04401e-05
5.97619e-05
6.05024e-05
6.04421e-05
6.13778e-05
6.24293e-05
6.35391e-05
6.53748e-05
7.12211e-05
7.76995e-05
8.25607e-05
8.32698e-05
8.25196e-05
7.82756e-05
6.70941e-05
5.89699e-05
5.64504e-05
5.61293e-05
5.55422e-05
5.15455e-05
4.39292e-05
3.7753e-05
3.59238e-05
3.57751e-05
3.61208e-05
3.76042e-05
4.01885e-05
4.82496e-05
5.62139e-05
6.13789e-05
6.5868e-05
6.87671e-05
6.99154e-05
6.97328e-05
7.02699e-05
6.97634e-05
6.88245e-05
6.80309e-05
6.74831e-05
6.54886e-05
6.56053e-05
6.50354e-05
6.6057e-05
6.59232e-05
6.77378e-05
7.0355e-05
7.59076e-05
7.61777e-05
7.71336e-05
7.75918e-05
7.68018e-05
7.41168e-05
7.30378e-05
7.31816e-05
8.14842e-05
8.95722e-05
9.44865e-05
9.56122e-05
0.000101727
0.00010491
0.000113268
0.000112685
0.000112331
0.000100531
9.50678e-05
9.38961e-05
9.91971e-05
9.91373e-05
0.000100469
0.000107891
0.000114473
0.000120919
0.000135397
0.000139498
2.36341e-06
2.37122e-06
2.39533e-06
2.44931e-06
2.53543e-06
2.56301e-06
2.60628e-06
2.61018e-06
2.60879e-06
2.61244e-06
2.60998e-06
2.60209e-06
2.58587e-06
2.57282e-06
2.57055e-06
2.58506e-06
2.59392e-06
2.60928e-06
2.61133e-06
2.60949e-06
2.6146e-06
2.61735e-06
2.62578e-06
2.63312e-06
2.63505e-06
2.64422e-06
2.65441e-06
2.715e-06
2.80564e-06
2.93185e-06
2.99153e-06
3.02356e-06
3.15372e-06
3.4249e-06
3.60981e-06
3.84194e-06
3.99946e-06
4.10411e-06
4.34443e-06
4.62612e-06
5.15466e-06
5.71923e-06
6.07114e-06
6.80959e-06
7.56786e-06
8.04386e-06
9.03553e-06
9.67157e-06
1.04964e-05
1.13491e-05
1.18503e-05