/*--------------------------------*- C++ -*----------------------------------*\
| =========                 |                                                 |
| \\      /  F ield         | OpenFOAM: The Open Source CFD Toolbox           |
|  \\    /   O peration     | Version:  2.4.0                                 |
|   \\  /    A nd           | Web:      www.OpenFOAM.org                      |
|    \\/     M anipulation  |                                                 |
\*---------------------------------------------------------------------------*/
FoamFile
{
    version     2.0;
    format      ascii;
    class       volVectorField;
    location    "1.72";
    object      U_0;
}
// * * * * * * * * * * * * * * * * * * * * * * * * * * * * * * * * * * * * * //

dimensions      [0 1 -1 0 0 0 0];

internalField   nonuniform List<vector> 
8800
(
(8.09256 0.387906 0)
(5.4524 0.24258 0)
(3.9086 0.0431739 0)
(3.16048 -0.0155585 0)
(2.79587 -0.0185837 0)
(2.60545 -0.0105891 0)
(2.47489 -0.00583321 0)
(2.39153 -0.00288846 0)
(2.30535 -0.000194306 0)
(2.26192 -0.00165342 0)
(2.20279 -0.000665961 0)
(2.1805 0.000562715 0)
(2.1231 -2.83112e-05 0)
(2.11695 -0.000727549 0)
(2.05477 0.00193609 0)
(2.0482 -0.000458818 0)
(1.98632 0.00028675 0)
(1.98645 -0.00142088 0)
(1.96081 0.0107222 0)
(1.78724 -0.0639421 0)
(10.0813 0.837893 0)
(9.66949 0.868049 0)
(8.85754 0.50751 0)
(8.10215 0.261671 0)
(7.473 0.137459 0)
(7.02958 0.0833659 0)
(6.67186 0.0534171 0)
(6.43139 0.0396682 0)
(6.18485 0.0333588 0)
(6.067 0.0214564 0)
(5.88043 0.0188646 0)
(5.82306 0.0197127 0)
(5.66576 0.0155521 0)
(5.64881 0.0127493 0)
(5.48471 0.0216224 0)
(5.48519 0.0123557 0)
(5.32988 0.0188811 0)
(5.31776 0.00117834 0)
(5.24617 0.0288496 0)
(5.11382 -0.0165462 0)
(10.0469 0.62966 0)
(10.6875 0.864515 0)
(10.8348 0.601821 0)
(10.7303 0.373344 0)
(10.4196 0.254745 0)
(10.1286 0.19906 0)
(9.79182 0.151091 0)
(9.55568 0.123147 0)
(9.24222 0.0993871 0)
(9.11304 0.0716005 0)
(8.84553 0.0602985 0)
(8.77577 0.055418 0)
(8.55415 0.0439267 0)
(8.53096 0.0373838 0)
(8.30592 0.0503499 0)
(8.3111 0.031998 0)
(8.10428 0.0475223 0)
(8.08218 0.0126174 0)
(7.97182 0.0424932 0)
(7.89072 -0.0639366 0)
(9.95523 0.453717 0)
(10.632 0.708887 0)
(11.101 0.5467 0)
(11.4419 0.351516 0)
(11.4942 0.259888 0)
(11.5324 0.231904 0)
(11.4166 0.195444 0)
(11.3946 0.178066 0)
(11.1965 0.154598 0)
(11.1851 0.119151 0)
(10.9753 0.108817 0)
(10.9596 0.0967718 0)
(10.7683 0.0825472 0)
(10.7614 0.0686623 0)
(10.561 0.0900149 0)
(10.5622 0.0562448 0)
(10.375 0.0851778 0)
(10.3365 0.0350756 0)
(10.2197 0.0680155 0)
(10.1888 -0.0784864 0)
(9.94411 0.340204 0)
(10.5129 0.574452 0)
(10.9589 0.460903 0)
(11.3786 0.293268 0)
(11.5671 0.205594 0)
(11.7676 0.200887 0)
(11.7926 0.169038 0)
(11.9221 0.174819 0)
(11.8994 0.154423 0)
(11.9897 0.123719 0)
(11.9388 0.115042 0)
(12.0131 0.11461 0)
(11.9622 0.0894297 0)
(11.9881 0.0899604 0)
(11.937 0.101703 0)
(11.9506 0.0844982 0)
(11.8826 0.0968375 0)
(11.8369 0.0802913 0)
(11.8003 0.0705509 0)
(11.7761 0.00335295 0)
(9.96838 0.244366 0)
(10.3845 0.457361 0)
(10.8562 0.386963 0)
(11.2314 0.246859 0)
(11.458 0.153838 0)
(11.6731 0.158294 0)
(11.7608 0.135338 0)
(11.8631 0.140388 0)
(11.9547 0.136059 0)
(12.043 0.102584 0)
(12.096 0.10134 0)
(12.1999 0.0925104 0)
(12.2652 0.0844124 0)
(12.2862 0.0733713 0)
(12.3552 0.0969873 0)
(12.4162 0.0760602 0)
(12.4336 0.0956908 0)
(12.4495 0.0963148 0)
(12.4673 0.0997983 0)
(12.5177 0.0156937 0)
(9.98158 0.177949 0)
(10.2937 0.34553 0)
(10.7874 0.29232 0)
(11.1376 0.215013 0)
(11.3484 0.111451 0)
(11.5735 0.119789 0)
(11.687 0.099166 0)
(11.7496 0.123586 0)
(11.8876 0.0904014 0)
(11.974 0.0926495 0)
(12.0083 0.0598791 0)
(12.1254 0.0924053 0)
(12.2179 0.0426609 0)
(12.276 0.0917865 0)
(12.322 0.041754 0)
(12.4331 0.0941037 0)
(12.4517 0.0537158 0)
(12.5109 0.125108 0)
(12.5533 0.0776713 0)
(12.6141 0.17451 0)
(9.98598 0.110076 0)
(10.2751 0.245591 0)
(10.6795 0.195236 0)
(11.0588 0.188484 0)
(11.2877 0.0614567 0)
(11.4947 0.0964765 0)
(11.6137 0.0524747 0)
(11.7297 0.10255 0)
(11.8086 0.0429237 0)
(11.8867 0.0964273 0)
(11.9207 0.0305356 0)
(12.0722 0.0759859 0)
(12.1422 0.0112903 0)
(12.2063 0.0845659 0)
(12.2674 0.0185197 0)
(12.3462 0.0869064 0)
(12.4308 0.0222682 0)
(12.4566 0.138098 0)
(12.5259 0.0477949 0)
(12.4942 0.186041 0)
(10.0046 0.0718103 0)
(10.2315 0.133194 0)
(10.6039 0.122669 0)
(11.0256 0.113488 0)
(11.2611 0.0475626 0)
(11.4366 0.042817 0)
(11.5939 0.0308954 0)
(11.6798 0.0531558 0)
(11.725 0.0451147 0)
(11.8386 0.0468347 0)
(11.9529 0.0205556 0)
(11.9885 0.031316 0)
(12.0913 0.0198054 0)
(12.1626 0.0477997 0)
(12.2558 0.0226395 0)
(12.3029 0.0283957 0)
(12.3352 0.047506 0)
(12.4335 0.0579275 0)
(12.4724 0.0676718 0)
(12.3567 0.0354844 0)
(9.99987 0.0180247 0)
(10.2429 0.0489136 0)
(10.5806 0.0197706 0)
(10.9473 0.0625821 0)
(11.2634 0.00894149 0)
(11.444 0.0257603 0)
(11.5625 -0.0159429 0)
(11.6387 0.0428657 0)
(11.7081 0.000107684 0)
(11.8531 0.0196136 0)
(11.9201 0.00314327 0)
(11.9696 0.0294155 0)
(12.0143 -0.0152783 0)
(12.1928 0.0255323 0)
(12.2312 0.00269529 0)
(12.2554 0.0390516 0)
(12.318 -0.000129397 0)
(12.4201 0.0475215 0)
(12.4588 0.0158407 0)
(12.3885 0.0226565 0)
(10.0068 -0.0191702 0)
(10.2549 -0.0583765 0)
(10.5485 -0.0366644 0)
(10.9447 -0.0176226 0)
(11.2919 -0.0254844 0)
(11.4348 -0.0130376 0)
(11.539 -0.025064 0)
(11.6598 -0.00740279 0)
(11.7285 -0.0164364 0)
(11.7989 -0.018991 0)
(11.9339 -0.00435773 0)
(11.9881 0.00832115 0)
(12.0364 -0.0314173 0)
(12.1272 -0.00573874 0)
(12.2331 0.00818629 0)
(12.2959 -0.00199352 0)
(12.3411 -0.00947565 0)
(12.4146 -0.00854177 0)
(12.4327 0.00734073 0)
(12.3834 -0.000670202 0)
(10.0094 -0.0728054 0)
(10.2422 -0.139454 0)
(10.5947 -0.129983 0)
(11.011 -0.0929504 0)
(11.273 -0.0525486 0)
(11.4223 -0.0260131 0)
(11.5855 -0.0694466 0)
(11.6899 -0.0410888 0)
(11.7492 -0.0326531 0)
(11.8302 -0.0540459 0)
(11.9236 -0.0301229 0)
(12.0134 -0.00863267 0)
(12.0831 -0.0307327 0)
(12.1504 -0.0388842 0)
(12.2391 -0.026262 0)
(12.317 -0.0133064 0)
(12.3803 -0.0327144 0)
(12.42 -0.0221584 0)
(12.444 -0.0212147 0)
(12.3866 -0.0235347 0)
(10.0042 -0.117577 0)
(10.2787 -0.24978 0)
(10.6619 -0.206904 0)
(11.0284 -0.147974 0)
(11.2993 -0.0775264 0)
(11.5047 -0.0762469 0)
(11.6429 -0.097559 0)
(11.693 -0.0738497 0)
(11.7945 -0.0574944 0)
(11.9045 -0.0757749 0)
(11.9408 -0.043784 0)
(12.0295 -0.0368598 0)
(12.1658 -0.0562101 0)
(12.223 -0.0501313 0)
(12.246 -0.0304567 0)
(12.3528 -0.0492963 0)
(12.4286 -0.0511726 0)
(12.4731 -0.0575404 0)
(12.4925 -0.0454025 0)
(12.459 -0.0454893 0)
(10.0302 -0.18259 0)
(10.2907 -0.346934 0)
(10.7445 -0.286126 0)
(11.1055 -0.208689 0)
(11.4049 -0.121666 0)
(11.5603 -0.109948 0)
(11.6953 -0.118552 0)
(11.7454 -0.105484 0)
(11.8752 -0.0881472 0)
(11.9554 -0.104844 0)
(12.0261 -0.0563882 0)
(12.118 -0.0711247 0)
(12.2311 -0.0684642 0)
(12.253 -0.0671093 0)
(12.3361 -0.0518591 0)
(12.4339 -0.0762882 0)
(12.4914 -0.0683945 0)
(12.5162 -0.0806167 0)
(12.5577 -0.0747009 0)
(12.5142 -0.0784906 0)
(10.0686 -0.256473 0)
(10.307 -0.451315 0)
(10.8951 -0.376272 0)
(11.1836 -0.251619 0)
(11.5345 -0.155955 0)
(11.6066 -0.150505 0)
(11.8137 -0.151934 0)
(11.8141 -0.137556 0)
(11.9935 -0.116746 0)
(11.994 -0.125493 0)
(12.1352 -0.0807289 0)
(12.1602 -0.0969102 0)
(12.2953 -0.0812474 0)
(12.2704 -0.085597 0)
(12.3887 -0.0690266 0)
(12.3969 -0.101318 0)
(12.4669 -0.0780503 0)
(12.4464 -0.110424 0)
(12.4951 -0.0969262 0)
(12.3876 -0.117877 0)
(10.0668 -0.35259 0)
(10.3768 -0.560555 0)
(11.0598 -0.460877 0)
(11.2979 -0.298139 0)
(11.669 -0.207626 0)
(11.6638 -0.190262 0)
(11.8949 -0.185792 0)
(11.8023 -0.163586 0)
(12.0013 -0.14436 0)
(11.8763 -0.142392 0)
(12.0484 -0.103569 0)
(11.9181 -0.110788 0)
(12.0548 -0.0938564 0)
(11.905 -0.0949683 0)
(12.0304 -0.0802025 0)
(11.8749 -0.105698 0)
(11.9576 -0.0813917 0)
(11.7983 -0.120451 0)
(11.831 -0.10395 0)
(11.5903 -0.146723 0)
(10.0137 -0.45979 0)
(10.5489 -0.70186 0)
(11.1863 -0.547421 0)
(11.36 -0.355207 0)
(11.569 -0.257762 0)
(11.448 -0.226403 0)
(11.5042 -0.205668 0)
(11.2794 -0.172771 0)
(11.324 -0.146852 0)
(11.0465 -0.133246 0)
(11.1107 -0.0991795 0)
(10.8348 -0.0960876 0)
(10.8978 -0.0802615 0)
(10.6298 -0.0795082 0)
(10.7116 -0.0647183 0)
(10.4292 -0.085683 0)
(10.5104 -0.0624788 0)
(10.2245 -0.104387 0)
(10.2599 -0.0758716 0)
(9.92082 -0.150024 0)
(10.0652 -0.633561 0)
(10.6505 -0.861602 0)
(10.878 -0.601312 0)
(10.679 -0.374481 0)
(10.4664 -0.254408 0)
(10.0789 -0.196119 0)
(9.84494 -0.156633 0)
(9.48067 -0.120669 0)
(9.33842 -0.0933407 0)
(9.00258 -0.0800781 0)
(8.95983 -0.0563871 0)
(8.66677 -0.0523069 0)
(8.67285 -0.0441349 0)
(8.40868 -0.0434305 0)
(8.45268 -0.0366119 0)
(8.17773 -0.0484716 0)
(8.24022 -0.0406238 0)
(7.9483 -0.0613544 0)
(7.97764 -0.0587214 0)
(7.64465 -0.0842492 0)
(10.0848 -0.838982 0)
(9.65337 -0.86711 0)
(8.87606 -0.506771 0)
(8.07597 -0.262445 0)
(7.49863 -0.137436 0)
(7.00303 -0.0815501 0)
(6.70062 -0.0558391 0)
(6.39038 -0.0400286 0)
(6.24035 -0.0284736 0)
(6.00297 -0.0267773 0)
(5.94987 -0.0172558 0)
(5.75394 -0.0172664 0)
(5.74691 -0.0155171 0)
(5.56724 -0.0170733 0)
(5.5851 -0.0136239 0)
(5.39449 -0.0220855 0)
(5.42122 -0.0181809 0)
(5.20671 -0.0283177 0)
(5.21736 -0.0319165 0)
(4.93931 -0.0150606 0)
(8.0914 -0.388088 0)
(5.44801 -0.242457 0)
(3.91265 -0.0428124 0)
(3.1554 0.0152537 0)
(2.80209 0.0183081 0)
(2.59752 0.0113238 0)
(2.48554 0.00512504 0)
(2.37618 0.00243215 0)
(2.32411 0.00218341 0)
(2.24418 -0.000314927 0)
(2.22247 0.00117415 0)
(2.15902 0.000144928 0)
(2.15354 -5.80832e-05 0)
(2.08881 -0.000753177 0)
(2.08926 0.000195203 0)
(2.01737 -0.00246908 0)
(2.01255 -0.000620232 0)
(1.92783 -0.003225 0)
(1.90211 -0.00350669 0)
(1.75605 0.0102457 0)
(2.16794 -0.0768892 0)
(2.30267 0.0154044 0)
(2.43729 0.0308588 0)
(2.54834 0.015776 0)
(2.62393 -0.00472722 0)
(2.69019 -0.0245395 0)
(2.74456 -0.0379907 0)
(2.79381 -0.0531265 0)
(2.84177 -0.0675388 0)
(2.85793 -0.0822002 0)
(2.89864 -0.0986839 0)
(2.86991 -0.118541 0)
(2.89055 -0.129529 0)
(2.82129 -0.135834 0)
(2.79381 -0.130657 0)
(2.69925 -0.0820176 0)
(2.62555 -0.0106028 0)
(2.59349 0.128849 0)
(2.58854 0.318214 0)
(2.7678 0.510502 0)
(3.10382 0.705016 0)
(3.58548 0.863163 0)
(4.14067 0.908569 0)
(4.69156 0.825764 0)
(5.11553 0.63848 0)
(5.38823 0.375299 0)
(5.53689 0.0847183 0)
(5.5031 -0.200862 0)
(5.34209 -0.445511 0)
(5.03893 -0.607987 0)
(4.73013 -0.654738 0)
(4.41714 -0.614177 0)
(4.22181 -0.526565 0)
(4.08448 -0.437273 0)
(4.04936 -0.338566 0)
(4.05884 -0.246019 0)
(4.12355 -0.194346 0)
(4.20338 -0.114082 0)
(4.3262 -0.0525542 0)
(4.47074 0.00232334 0)
(4.62288 0.0347129 0)
(4.79712 0.0997598 0)
(4.99247 0.101862 0)
(5.1681 0.0788343 0)
(5.43879 0.0805882 0)
(5.63785 0.0136529 0)
(5.87258 -0.071319 0)
(6.14362 -0.174356 0)
(6.33737 -0.269843 0)
(6.63359 -0.411168 0)
(6.80413 -0.550452 0)
(7.03722 -0.693031 0)
(7.26341 -0.860026 0)
(7.37887 -0.950063 0)
(7.62878 -1.09076 0)
(7.65901 -1.18778 0)
(7.81352 -1.18459 0)
(7.96567 -1.27566 0)
(7.95616 -1.23754 0)
(8.20413 -1.14153 0)
(8.16794 -1.14228 0)
(8.30411 -0.976266 0)
(8.52252 -0.818472 0)
(8.51127 -0.767445 0)
(8.8287 -0.668806 0)
(8.98258 -0.555539 0)
(9.01151 -0.50398 0)
(9.53611 -0.625038 0)
(9.59364 -0.599213 0)
(9.83304 -0.658246 0)
(10.3628 -0.946695 0)
(10.3675 -0.957735 0)
(10.618 -1.1709 0)
(11.1675 -1.57473 0)
(11.2349 -1.66 0)
(11.5515 -1.89279 0)
(12.0407 -2.31062 0)
(12.0754 -2.52417 0)
(12.3967 -2.78269 0)
(12.634 -3.15186 0)
(12.7845 -3.35559 0)
(13.012 -3.61467 0)
(13.139 -3.7586 0)
(13.2384 -3.95157 0)
(13.3016 -4.11527 0)
(13.2213 -4.13217 0)
(13.2294 -4.27483 0)
(13.3596 -4.37692 0)
(13.1623 -4.27973 0)
(13.2916 -4.29527 0)
(13.3697 -4.38477 0)
(13.4333 -4.19938 0)
(13.5231 -4.07189 0)
(13.7629 -4.02361 0)
(13.8985 -3.82448 0)
(14.1248 -3.6728 0)
(14.2525 -3.47056 0)
(14.4082 -3.15973 0)
(14.6008 -2.96552 0)
(14.5652 -2.65911 0)
(14.6867 -2.36588 0)
(14.5413 -1.99294 0)
(14.4556 -1.63203 0)
(14.2843 -1.34939 0)
(14.1542 -1.09803 0)
(13.412 -0.587436 0)
(13.1465 -0.47628 0)
(12.3742 -0.327902 0)
(11.8106 -0.282562 0)
(10.8375 -0.282117 0)
(10.2355 -0.485107 0)
(9.51354 -0.705571 0)
(9.26755 -1.04878 0)
(8.71095 -1.07075 0)
(8.7435 -1.55834 0)
(8.68229 -1.90899 0)
(8.98876 -2.23405 0)
(8.98993 -2.4298 0)
(9.1816 -2.45976 0)
(9.2325 -2.21241 0)
(9.73463 -2.17935 0)
(10.1061 -1.9851 0)
(10.4708 -1.65065 0)
(10.8897 -1.10824 0)
(11.1119 -0.764553 0)
(11.277 0.0730198 0)
(11.3912 0.543433 0)
(11.2546 1.26899 0)
(11.2027 1.93193 0)
(10.7962 2.55145 0)
(10.4893 2.95499 0)
(10.0245 3.47562 0)
(9.80256 3.78293 0)
(9.14125 3.82487 0)
(9.03811 4.00677 0)
(8.6391 4.19527 0)
(8.55529 4.19735 0)
(8.18865 4.25951 0)
(8.11398 4.2441 0)
(7.59602 4.04324 0)
(7.46477 4.03911 0)
(7.04338 3.89161 0)
(6.88893 3.9376 0)
(6.86836 3.73187 0)
(6.72415 3.53418 0)
(7.10364 3.81653 0)
(7.27887 4.08806 0)
(7.23832 4.01711 0)
(6.88285 3.79163 0)
(6.81541 3.72614 0)
(6.55661 3.47315 0)
(6.21249 3.45568 0)
(6.0255 3.66907 0)
(6.26563 4.04465 0)
(6.34056 4.50178 0)
(6.44623 4.9005 0)
(6.57846 5.19192 0)
(6.61053 5.32779 0)
(6.63992 5.43719 0)
(6.77156 5.10724 0)
(7.01122 4.67918 0)
(7.14561 4.11782 0)
(7.42596 3.51628 0)
(7.40563 2.96759 0)
(7.67847 2.11467 0)
(7.58124 1.65357 0)
(7.60255 0.548363 0)
(7.43565 0.343064 0)
(7.64987 -0.950401 0)
(7.50242 -0.743558 0)
(7.9902 -1.74541 0)
(7.44046 -1.81599 0)
(7.68193 -2.85352 0)
(7.56887 -2.43133 0)
(8.04244 -3.61331 0)
(8.00336 -3.08052 0)
(8.44277 -4.7289 0)
(8.59801 -4.46182 0)
(8.40318 -5.17122 0)
(8.82372 -4.58616 0)
(8.4458 -4.86024 0)
(8.61305 -4.14131 0)
(8.26237 -4.43214 0)
(8.51148 -3.90233 0)
(7.83501 -4.06673 0)
(8.29295 -2.62613 0)
(7.45669 -2.26934 0)
(7.8914 -0.487965 0)
(6.8184 0.115586 0)
(7.71502 1.6486 0)
(6.38439 2.44374 0)
(7.35433 3.14284 0)
(6.80964 4.52659 0)
(6.21104 3.70114 0)
(6.74761 5.46717 0)
(6.41836 5.56276 0)
(5.99577 5.5396 0)
(6.34886 7.47586 0)
(6.95861 8.5703 0)
(4.40745 11.5356 0)
(5.25099 -0.0537312 0)
(5.26105 -0.0274343 0)
(5.26565 -0.0245639 0)
(5.2594 -0.0299983 0)
(5.28797 -0.0391371 0)
(5.29598 -0.0707243 0)
(5.33427 -0.0814502 0)
(5.34524 -0.0831521 0)
(5.37625 -0.0944117 0)
(5.3748 -0.0893394 0)
(5.38512 -0.106613 0)
(5.3648 -0.109194 0)
(5.33803 -0.104089 0)
(5.2967 -0.0975266 0)
(5.22763 -0.065583 0)
(5.16616 -0.0134063 0)
(5.08051 0.0659615 0)
(5.02121 0.171637 0)
(4.96598 0.308957 0)
(4.96178 0.438081 0)
(5.03469 0.53556 0)
(5.17794 0.613584 0)
(5.39877 0.616743 0)
(5.66901 0.55436 0)
(5.93665 0.430178 0)
(6.1283 0.269781 0)
(6.26977 0.0788624 0)
(6.2878 -0.108108 0)
(6.26159 -0.276392 0)
(6.14977 -0.419445 0)
(6.0516 -0.480901 0)
(5.95484 -0.521494 0)
(5.88051 -0.485167 0)
(5.91811 -0.445346 0)
(5.88745 -0.4175 0)
(6.00749 -0.328723 0)
(6.06183 -0.28547 0)
(6.17657 -0.256867 0)
(6.31517 -0.176302 0)
(6.45637 -0.143717 0)
(6.6238 -0.127239 0)
(6.76735 -0.0810861 0)
(7.02145 -0.0930638 0)
(7.13058 -0.0769745 0)
(7.41494 -0.149676 0)
(7.6256 -0.198248 0)
(7.81718 -0.219591 0)
(8.15091 -0.401867 0)
(8.26903 -0.463107 0)
(8.58487 -0.572844 0)
(8.78195 -0.749814 0)
(8.95359 -0.838031 0)
(9.23362 -0.99143 0)
(9.27385 -1.11803 0)
(9.5334 -1.1938 0)
(9.57901 -1.27521 0)
(9.66039 -1.34032 0)
(9.85174 -1.31238 0)
(9.76696 -1.2981 0)
(9.94993 -1.31708 0)
(10.029 -1.15982 0)
(10.0057 -1.06407 0)
(10.2905 -1.04169 0)
(10.2269 -0.833225 0)
(10.4953 -0.809786 0)
(10.6967 -0.799887 0)
(10.6552 -0.631659 0)
(11.1347 -0.762937 0)
(11.2634 -0.824501 0)
(11.3804 -0.808946 0)
(11.7205 -1.10941 0)
(11.8617 -1.21613 0)
(12.0675 -1.33424 0)
(12.401 -1.62291 0)
(12.5171 -1.87453 0)
(12.6795 -2.10657 0)
(12.8672 -2.40826 0)
(12.9495 -2.71553 0)
(13.154 -2.94051 0)
(13.1135 -3.15649 0)
(13.2687 -3.42613 0)
(13.2356 -3.63181 0)
(13.1352 -3.73252 0)
(13.1444 -3.99347 0)
(13.0012 -4.12755 0)
(12.9165 -4.09206 0)
(12.9419 -4.3165 0)
(12.9053 -4.34958 0)
(12.8434 -4.31873 0)
(13.0564 -4.42034 0)
(13.1434 -4.39515 0)
(13.3163 -4.32265 0)
(13.5811 -4.31282 0)
(13.8444 -4.22029 0)
(14.0054 -4.08925 0)
(14.3894 -3.93024 0)
(14.4607 -3.62578 0)
(14.6061 -3.35851 0)
(14.7943 -3.1355 0)
(14.798 -2.76192 0)
(14.7068 -2.30866 0)
(14.6622 -1.95458 0)
(14.6604 -1.64962 0)
(14.3822 -1.21131 0)
(14.0323 -0.704894 0)
(13.5517 -0.275302 0)
(13.315 -0.0508369 0)
(12.2235 0.287881 0)
(11.6387 0.304593 0)
(10.7118 0.264187 0)
(10.1604 0.134287 0)
(9.36386 -0.15048 0)
(8.96214 -0.556553 0)
(8.26244 -0.941431 0)
(8.55641 -1.66474 0)
(8.34126 -2.14424 0)
(8.525 -2.28501 0)
(8.38859 -2.45375 0)
(8.8669 -2.61029 0)
(9.11326 -2.57295 0)
(9.85216 -2.65098 0)
(10.3003 -2.45794 0)
(10.6573 -2.1013 0)
(10.9655 -1.38535 0)
(11.194 -0.998373 0)
(11.2315 -0.0839182 0)
(11.4322 0.578764 0)
(11.2726 1.28188 0)
(11.3049 2.03045 0)
(10.9623 2.73456 0)
(10.7758 3.208 0)
(10.196 3.74968 0)
(9.95892 4.17945 0)
(9.25639 4.18999 0)
(8.85121 4.30444 0)
(8.42528 4.39459 0)
(8.25363 4.40668 0)
(7.96251 4.44155 0)
(7.89244 4.4639 0)
(7.50776 4.31042 0)
(7.28785 4.2491 0)
(7.09536 4.12178 0)
(6.76281 4.00978 0)
(6.89321 3.78382 0)
(6.65921 3.45482 0)
(6.95879 3.59825 0)
(7.21297 3.86589 0)
(7.3629 4.08264 0)
(7.21912 3.90782 0)
(7.02875 3.85556 0)
(7.0562 3.66711 0)
(6.64835 3.70219 0)
(6.5328 3.77129 0)
(6.39092 3.9217 0)
(6.68107 4.3859 0)
(6.76661 4.8419 0)
(7.03386 5.11071 0)
(7.10883 5.2844 0)
(7.23181 5.25749 0)
(7.46188 4.93839 0)
(7.70079 4.43539 0)
(7.91688 4.02452 0)
(8.14925 3.32219 0)
(8.15225 3.05405 0)
(8.46133 1.85546 0)
(8.41069 1.71642 0)
(8.71153 0.641681 0)
(8.24277 0.427197 0)
(8.60862 -1.01736 0)
(8.08895 -0.902622 0)
(8.85178 -1.81852 0)
(8.09791 -1.71778 0)
(8.71258 -2.97324 0)
(8.28022 -2.52616 0)
(8.97082 -3.83577 0)
(8.8131 -3.16667 0)
(9.38144 -4.83185 0)
(9.24549 -4.50209 0)
(9.35833 -5.07632 0)
(9.1854 -4.63322 0)
(9.28952 -4.64856 0)
(8.82078 -4.09675 0)
(9.02756 -4.05556 0)
(8.46727 -3.95554 0)
(8.59735 -3.44202 0)
(8.11596 -3.08928 0)
(8.15673 -1.34055 0)
(7.2838 -0.868776 0)
(7.8528 1.12959 0)
(5.93288 1.41738 0)
(7.37009 2.90796 0)
(5.52987 3.27063 0)
(7.24732 4.08461 0)
(6.42106 5.11373 0)
(6.09013 4.26939 0)
(7.55171 6.30434 0)
(6.9095 6.17539 0)
(6.31648 7.09407 0)
(9.87547 7.85223 0)
(7.14191 13.1087 0)
(7.93649 -0.0210586 0)
(7.91862 0.0425035 0)
(7.8889 0.0234568 0)
(7.85427 -0.0209512 0)
(7.87254 -0.0396806 0)
(7.89194 -0.0734222 0)
(7.90176 -0.080238 0)
(7.91623 -0.0809021 0)
(7.89271 -0.109165 0)
(7.8751 -0.0927447 0)
(7.86253 -0.0958483 0)
(7.84631 -0.0935014 0)
(7.82169 -0.0478687 0)
(7.79663 -0.0402665 0)
(7.72788 -0.0115787 0)
(7.6588 0.0476323 0)
(7.58472 0.101237 0)
(7.51525 0.19362 0)
(7.47503 0.326516 0)
(7.47972 0.402915 0)
(7.47984 0.494331 0)
(7.55248 0.555988 0)
(7.64643 0.501776 0)
(7.74283 0.483236 0)
(7.91336 0.351514 0)
(7.98068 0.200886 0)
(8.10745 0.0773938 0)
(8.11059 -0.129643 0)
(8.1445 -0.25116 0)
(8.11641 -0.376918 0)
(8.06266 -0.476913 0)
(8.10353 -0.490337 0)
(7.99776 -0.520899 0)
(8.12541 -0.497997 0)
(8.09476 -0.449743 0)
(8.17886 -0.446526 0)
(8.30301 -0.35327 0)
(8.35549 -0.351991 0)
(8.49188 -0.309462 0)
(8.63644 -0.234693 0)
(8.76617 -0.293383 0)
(8.88501 -0.206141 0)
(9.13716 -0.250428 0)
(9.20864 -0.27894 0)
(9.46374 -0.285533 0)
(9.66572 -0.379437 0)
(9.78563 -0.426211 0)
(10.1301 -0.552199 0)
(10.186 -0.623476 0)
(10.4574 -0.774601 0)
(10.6324 -0.868932 0)
(10.7396 -0.990078 0)
(10.9452 -1.15506 0)
(10.9934 -1.1816 0)
(11.1405 -1.33986 0)
(11.1863 -1.35912 0)
(11.1949 -1.36491 0)
(11.3287 -1.45189 0)
(11.1988 -1.31022 0)
(11.3723 -1.34515 0)
(11.3688 -1.25535 0)
(11.3071 -1.11137 0)
(11.5498 -1.13928 0)
(11.4933 -0.923261 0)
(11.6212 -0.913458 0)
(11.8388 -0.928542 0)
(11.8262 -0.765167 0)
(12.1294 -0.883203 0)
(12.2282 -0.998593 0)
(12.3884 -1.01243 0)
(12.5482 -1.17489 0)
(12.773 -1.35432 0)
(12.8558 -1.48937 0)
(12.9753 -1.73173 0)
(13.0968 -2.02907 0)
(13.1351 -2.20734 0)
(13.1942 -2.43806 0)
(13.1961 -2.7369 0)
(13.1765 -2.95289 0)
(13.0437 -3.18703 0)
(13.0191 -3.42015 0)
(12.8535 -3.64269 0)
(12.7764 -3.76182 0)
(12.6716 -3.90586 0)
(12.5979 -4.05746 0)
(12.598 -4.14989 0)
(12.5189 -4.27738 0)
(12.6262 -4.37912 0)
(12.8265 -4.51151 0)
(12.9496 -4.56461 0)
(13.1181 -4.55549 0)
(13.4895 -4.6411 0)
(13.7129 -4.60735 0)
(13.8889 -4.41465 0)
(14.1651 -4.30389 0)
(14.3708 -4.08287 0)
(14.2857 -3.76409 0)
(14.5544 -3.54 0)
(14.4463 -3.16986 0)
(14.3186 -2.70051 0)
(14.3148 -2.36236 0)
(14.2472 -2.01672 0)
(14.0569 -1.52412 0)
(13.796 -0.992893 0)
(13.5304 -0.412221 0)
(13.2637 -0.0128291 0)
(12.7188 0.471378 0)
(11.881 0.904106 0)
(11.4236 0.979434 0)
(10.2716 0.996222 0)
(9.69917 0.639573 0)
(8.91497 0.224763 0)
(8.44527 -0.107632 0)
(8.02726 -0.791039 0)
(8.2328 -1.56168 0)
(7.52242 -2.01064 0)
(7.79906 -2.24921 0)
(7.88 -2.75386 0)
(8.73331 -3.1126 0)
(9.08889 -3.17944 0)
(9.83453 -3.1333 0)
(10.0662 -2.75258 0)
(10.2768 -2.23903 0)
(10.4391 -1.49046 0)
(10.5993 -0.994406 0)
(10.6206 -0.141382 0)
(10.8335 0.604768 0)
(10.6859 1.33399 0)
(10.863 2.11322 0)
(10.6055 2.85731 0)
(10.6109 3.45626 0)
(10.1604 3.97638 0)
(9.96525 4.48101 0)
(9.33587 4.618 0)
(8.81888 4.681 0)
(8.33997 4.67905 0)
(8.00127 4.6087 0)
(7.70139 4.56811 0)
(7.57512 4.63879 0)
(7.36014 4.54601 0)
(7.11014 4.42862 0)
(7.06894 4.33166 0)
(6.72268 4.14185 0)
(6.70243 3.85485 0)
(6.66153 3.45324 0)
(6.71989 3.39852 0)
(7.16499 3.68016 0)
(7.26572 4.02121 0)
(7.43353 4.04938 0)
(7.06048 3.908 0)
(7.27503 3.83671 0)
(6.95222 3.86282 0)
(7.03757 3.86327 0)
(6.75861 3.98271 0)
(6.94912 4.20273 0)
(7.06735 4.61467 0)
(7.3211 4.89016 0)
(7.56331 5.14171 0)
(7.80085 5.06204 0)
(8.09541 4.76482 0)
(8.50806 4.25595 0)
(8.57944 3.84791 0)
(8.99734 3.18939 0)
(8.77425 2.8333 0)
(9.27473 1.754 0)
(8.88721 1.55415 0)
(9.47518 0.727799 0)
(9.02893 0.425007 0)
(9.36999 -0.973395 0)
(8.78684 -0.936525 0)
(9.53153 -1.87224 0)
(8.96405 -1.57126 0)
(9.53121 -3.21552 0)
(9.3283 -2.4475 0)
(9.68321 -4.18636 0)
(9.79122 -3.25673 0)
(10.0182 -5.1118 0)
(10.0023 -4.43632 0)
(9.93633 -5.15322 0)
(9.71227 -4.38949 0)
(9.5723 -4.54735 0)
(9.17554 -3.84155 0)
(9.21328 -4.05993 0)
(8.75026 -3.66995 0)
(8.92697 -3.51493 0)
(8.04117 -2.436 0)
(8.46459 -1.63587 0)
(7.48289 -0.122009 0)
(7.27905 0.943557 0)
(7.06965 2.26349 0)
(6.09167 2.46891 0)
(7.17215 3.81122 0)
(5.24847 3.43338 0)
(7.66728 4.77656 0)
(6.01544 4.82635 0)
(6.29401 5.08617 0)
(9.0664 5.75065 0)
(5.76085 8.27049 0)
(10.8288 4.26057 0)
(9.33425 11.8294 0)
(10.2375 0.00726986 0)
(10.195 0.114636 0)
(10.1102 0.0794165 0)
(10.0159 -0.0107466 0)
(10.0141 -0.0516926 0)
(10.0553 -0.109903 0)
(10.0836 -0.0789527 0)
(10.1631 -0.0388802 0)
(10.144 -0.0571806 0)
(10.0947 -0.0302616 0)
(10.0504 -0.0808993 0)
(9.95472 -0.0951864 0)
(9.9393 -0.0456795 0)
(9.91731 -0.035716 0)
(9.90965 0.061967 0)
(9.89378 0.121795 0)
(9.8484 0.181057 0)
(9.79822 0.266339 0)
(9.70901 0.312178 0)
(9.74638 0.387249 0)
(9.70809 0.447039 0)
(9.77265 0.474366 0)
(9.90825 0.463906 0)
(9.91316 0.422034 0)
(10.1114 0.306957 0)
(10.1002 0.199335 0)
(10.2108 0.0493862 0)
(10.2212 -0.0899006 0)
(10.1908 -0.226502 0)
(10.2586 -0.347376 0)
(10.1258 -0.413322 0)
(10.2261 -0.51068 0)
(10.1311 -0.486796 0)
(10.1894 -0.526697 0)
(10.2545 -0.506301 0)
(10.2544 -0.462805 0)
(10.3637 -0.453004 0)
(10.4886 -0.414375 0)
(10.4779 -0.394427 0)
(10.6521 -0.358888 0)
(10.7814 -0.383248 0)
(10.7669 -0.334216 0)
(11.0395 -0.393701 0)
(11.0697 -0.390833 0)
(11.2512 -0.441302 0)
(11.4053 -0.520333 0)
(11.5374 -0.556853 0)
(11.7421 -0.700897 0)
(11.8083 -0.751366 0)
(12.0207 -0.877987 0)
(12.0986 -0.998986 0)
(12.1507 -1.06896 0)
(12.3164 -1.21615 0)
(12.2469 -1.25293 0)
(12.3658 -1.35408 0)
(12.3201 -1.38927 0)
(12.2936 -1.37743 0)
(12.3333 -1.44129 0)
(12.2397 -1.30172 0)
(12.2631 -1.33684 0)
(12.2417 -1.27349 0)
(12.209 -1.10953 0)
(12.2969 -1.14845 0)
(12.2415 -1.02939 0)
(12.334 -0.9387 0)
(12.4142 -0.986003 0)
(12.4831 -0.949426 0)
(12.5617 -0.942554 0)
(12.6869 -1.08993 0)
(12.8562 -1.15404 0)
(12.8413 -1.20855 0)
(13.0154 -1.47347 0)
(13.0507 -1.62706 0)
(13.0457 -1.76776 0)
(13.1635 -2.01228 0)
(13.0463 -2.20939 0)
(13.0283 -2.43612 0)
(12.874 -2.69882 0)
(12.8201 -2.93589 0)
(12.6843 -3.15415 0)
(12.5843 -3.35162 0)
(12.4332 -3.52297 0)
(12.4389 -3.67745 0)
(12.2515 -3.86608 0)
(12.2703 -4.04063 0)
(12.4047 -4.23124 0)
(12.3759 -4.3766 0)
(12.6243 -4.52877 0)
(12.7847 -4.68237 0)
(12.9136 -4.74436 0)
(13.1476 -4.79601 0)
(13.3531 -4.81545 0)
(13.4975 -4.74841 0)
(13.6184 -4.59785 0)
(13.6505 -4.44354 0)
(13.7271 -4.17148 0)
(13.6312 -3.88169 0)
(13.6156 -3.4861 0)
(13.343 -3.04055 0)
(13.3545 -2.71807 0)
(13.1504 -2.28685 0)
(12.9811 -1.79046 0)
(12.8061 -1.26713 0)
(12.6393 -0.759621 0)
(12.4334 -0.240901 0)
(12.279 0.332957 0)
(11.6518 1.06235 0)
(11.063 1.3914 0)
(10.3379 1.61173 0)
(9.5235 1.62366 0)
(8.91285 1.25332 0)
(8.01845 0.866921 0)
(7.5992 0.163207 0)
(7.44437 -0.706542 0)
(7.04291 -1.23671 0)
(6.56412 -1.8269 0)
(7.27915 -2.51401 0)
(7.58147 -3.30712 0)
(8.48482 -3.63086 0)
(8.59635 -3.57253 0)
(9.13476 -3.29024 0)
(9.06808 -2.83654 0)
(9.25522 -2.28216 0)
(9.33805 -1.59702 0)
(9.56254 -1.0659 0)
(9.51915 -0.2226 0)
(9.81165 0.601843 0)
(9.69996 1.28573 0)
(9.96486 2.14739 0)
(9.75847 2.96943 0)
(9.90807 3.62155 0)
(9.61659 4.18778 0)
(9.56656 4.77006 0)
(9.17544 4.94708 0)
(8.70401 5.03769 0)
(8.20346 5.01342 0)
(7.83597 4.86308 0)
(7.47242 4.707 0)
(7.31778 4.77875 0)
(7.18347 4.72477 0)
(6.97367 4.59146 0)
(6.85347 4.51138 0)
(6.65517 4.31491 0)
(6.52372 3.8787 0)
(6.67185 3.46948 0)
(6.58026 3.23396 0)
(7.02422 3.46535 0)
(7.15933 3.86517 0)
(7.41153 4.10798 0)
(7.21035 3.97055 0)
(7.22694 3.83756 0)
(7.11712 3.86489 0)
(7.27295 3.84985 0)
(7.17079 4.06977 0)
(7.28676 4.02759 0)
(7.3704 4.42774 0)
(7.64581 4.66112 0)
(7.8472 4.81991 0)
(8.33211 4.80095 0)
(8.57847 4.46646 0)
(8.98889 3.92447 0)
(9.26271 3.66176 0)
(9.67484 3.03864 0)
(9.69075 2.95489 0)
(9.85839 1.50457 0)
(9.71015 1.57806 0)
(9.96401 0.441892 0)
(9.92168 0.667561 0)
(10.0303 -1.16459 0)
(9.77784 -0.715978 0)
(10.1481 -2.27444 0)
(9.9621 -1.32025 0)
(10.2272 -3.69194 0)
(10.276 -2.33467 0)
(10.3862 -4.73648 0)
(10.6207 -3.09567 0)
(10.5806 -5.57847 0)
(10.6436 -4.00683 0)
(10.3513 -5.46729 0)
(10.1197 -3.80624 0)
(9.86607 -4.88141 0)
(9.72263 -3.1354 0)
(9.11086 -4.36062 0)
(9.73612 -3.11773 0)
(8.18233 -3.3662 0)
(9.34738 -2.11076 0)
(7.09273 -1.17715 0)
(8.31231 0.588611 0)
(5.77859 1.33451 0)
(7.32482 2.63022 0)
(5.16361 2.79341 0)
(6.17141 3.97183 0)
(6.4984 3.56662 0)
(4.8761 5.3931 0)
(9.15259 3.74915 0)
(5.10289 7.02731 0)
(10.7865 2.8907 0)
(7.31035 9.34378 0)
(10.7496 3.15804 0)
(9.41491 10.1438 0)
(11.8732 0.0219578 0)
(11.8461 0.0858522 0)
(11.7404 0.0298848 0)
(11.6329 -0.0605025 0)
(11.5855 -0.0823069 0)
(11.6198 -0.151628 0)
(11.6202 -0.146202 0)
(11.7144 -0.0792743 0)
(11.7348 -0.0794575 0)
(11.7039 0.00463062 0)
(11.7333 -0.00382292 0)
(11.6126 -0.0400541 0)
(11.594 0.0106275 0)
(11.568 -0.0220806 0)
(11.4961 0.0170992 0)
(11.5738 0.115328 0)
(11.5135 0.161292 0)
(11.5255 0.26512 0)
(11.4881 0.36242 0)
(11.4796 0.355905 0)
(11.4621 0.420145 0)
(11.5024 0.431546 0)
(11.6205 0.336487 0)
(11.6395 0.369766 0)
(11.8828 0.225842 0)
(11.8556 0.1496 0)
(11.9987 0.0555223 0)
(12.0198 -0.123738 0)
(11.9431 -0.186056 0)
(12.0073 -0.345128 0)
(11.8698 -0.408229 0)
(11.8703 -0.485753 0)
(11.8422 -0.526986 0)
(11.7876 -0.527881 0)
(11.8681 -0.560698 0)
(11.8778 -0.516522 0)
(11.926 -0.488137 0)
(12.0865 -0.50675 0)
(12.0412 -0.433356 0)
(12.2053 -0.43611 0)
(12.2743 -0.458817 0)
(12.2385 -0.418627 0)
(12.4428 -0.481296 0)
(12.3937 -0.492737 0)
(12.5251 -0.561702 0)
(12.6073 -0.602584 0)
(12.657 -0.685636 0)
(12.8045 -0.778536 0)
(12.8357 -0.828494 0)
(12.9344 -0.961068 0)
(12.9799 -1.0347 0)
(12.9858 -1.09743 0)
(13.0031 -1.22879 0)
(12.9365 -1.25525 0)
(12.914 -1.31429 0)
(12.821 -1.3815 0)
(12.7493 -1.33078 0)
(12.7024 -1.36069 0)
(12.6038 -1.34276 0)
(12.5652 -1.25583 0)
(12.5343 -1.23115 0)
(12.5087 -1.15254 0)
(12.4247 -1.08867 0)
(12.4942 -1.03935 0)
(12.4182 -1.00746 0)
(12.4588 -0.977745 0)
(12.5232 -1.03982 0)
(12.5321 -1.03652 0)
(12.6285 -1.10872 0)
(12.7129 -1.22806 0)
(12.7012 -1.36939 0)
(12.7477 -1.48622 0)
(12.8218 -1.62314 0)
(12.7833 -1.83394 0)
(12.7139 -1.9686 0)
(12.6579 -2.21444 0)
(12.6085 -2.42772 0)
(12.4126 -2.60101 0)
(12.4849 -2.86786 0)
(12.3014 -3.08812 0)
(12.1925 -3.24504 0)
(12.1779 -3.52255 0)
(12.1477 -3.70433 0)
(12.0502 -3.85254 0)
(12.2363 -4.11323 0)
(12.3419 -4.31204 0)
(12.3075 -4.46829 0)
(12.5154 -4.66351 0)
(12.5501 -4.81545 0)
(12.6826 -4.89909 0)
(12.7531 -4.96426 0)
(12.8223 -4.92367 0)
(12.7939 -4.85627 0)
(12.7961 -4.70215 0)
(12.6526 -4.41108 0)
(12.5304 -4.06496 0)
(12.3012 -3.73265 0)
(12.1171 -3.29846 0)
(11.87 -2.94023 0)
(11.7199 -2.54232 0)
(11.4391 -2.00113 0)
(11.3075 -1.62004 0)
(11.1491 -1.23882 0)
(11.0396 -0.649239 0)
(10.9182 0.0126263 0)
(10.6955 0.710297 0)
(10.1109 1.36154 0)
(9.85272 1.83753 0)
(8.94223 2.30318 0)
(8.40452 2.14864 0)
(7.41101 1.88518 0)
(6.79821 1.28838 0)
(6.43613 0.277219 0)
(6.10592 -0.331603 0)
(5.39282 -1.02791 0)
(5.82647 -2.16352 0)
(6.62506 -3.09684 0)
(6.95583 -3.77184 0)
(7.59836 -3.82564 0)
(7.57321 -3.67606 0)
(7.99783 -3.30555 0)
(7.83751 -2.83925 0)
(8.18454 -2.3293 0)
(8.22556 -1.75943 0)
(8.38767 -1.10219 0)
(8.32115 -0.261619 0)
(8.63857 0.48988 0)
(8.47864 1.22535 0)
(8.81382 2.13284 0)
(8.66858 2.91073 0)
(8.87396 3.72023 0)
(8.6425 4.32634 0)
(8.71999 4.95183 0)
(8.47067 5.34136 0)
(8.13833 5.50833 0)
(7.87133 5.37769 0)
(7.41257 5.22665 0)
(7.22808 5.00916 0)
(6.90706 4.87818 0)
(6.98349 4.75383 0)
(6.65769 4.70384 0)
(6.71308 4.6373 0)
(6.41414 4.37181 0)
(6.432 3.88211 0)
(6.4209 3.45553 0)
(6.58539 3.1027 0)
(6.78107 3.27097 0)
(7.12612 3.66781 0)
(7.30229 4.02204 0)
(7.30525 4.0603 0)
(7.24503 3.87432 0)
(7.18603 3.90075 0)
(7.3994 3.78545 0)
(7.35944 3.98962 0)
(7.71456 4.02282 0)
(7.72969 4.32394 0)
(8.05961 4.52959 0)
(8.40711 4.59154 0)
(8.64658 4.60161 0)
(9.26021 4.17637 0)
(9.24593 3.64825 0)
(9.96625 3.45245 0)
(10.0452 2.76829 0)
(10.5391 2.96846 0)
(10.6266 1.52359 0)
(10.5931 1.55802 0)
(10.7753 0.359393 0)
(10.7976 0.70725 0)
(11.0067 -1.20716 0)
(10.692 -0.566448 0)
(10.9609 -2.36684 0)
(10.857 -1.26097 0)