/*--------------------------------*- C++ -*----------------------------------*\
| =========                 |                                                 |
| \\      /  F ield         | OpenFOAM: The Open Source CFD Toolbox           |
|  \\    /   O peration     | Version:  2.4.0                                 |
|   \\  /    A nd           | Web:      www.OpenFOAM.org                      |
|    \\/     M anipulation  |                                                 |
\*---------------------------------------------------------------------------*/
FoamFile
{
    version     2.0;
    format      ascii;
    class       volScalarField;
    location    "1.96";
    object      k_0;
}
// * * * * * * * * * * * * * * * * * * * * * * * * * * * * * * * * * * * * * //

dimensions      [0 2 -2 0 0 0 0];

internalField   nonuniform List<scalar> 
8800
(
8.11111
10.2787
8.77777
6.84697
5.68012
5.00696
4.49141
4.18558
3.86978
3.71352
3.49107
3.41944
3.24426
3.20262
3.05882
3.02456
2.89623
2.86215
2.81226
2.6421
1.39126
4.36642
5.30584
5.29333
5.11007
4.85502
4.53355
4.338
4.06853
3.9368
3.71732
3.63829
3.47044
3.41607
3.29286
3.24657
3.14327
3.10174
3.01039
3.00091
0.0833899
0.749181
1.5418
1.96248
2.24252
2.47161
2.55046
2.6231
2.61779
2.61252
2.57641
2.55522
2.51316
2.47932
2.45418
2.41475
2.39626
2.36019
2.30862
2.29323
0.00328409
0.0715378
0.244873
0.434537
0.568927
0.713746
0.831803
0.932589
1.02831
1.09832
1.16727
1.20075
1.27055
1.2917
1.34369
1.36009
1.40613
1.41187
1.42512
1.41703
0.000118172
0.0050996
0.0221633
0.0520522
0.0859749
0.117739
0.169591
0.200159
0.250825
0.280785
0.327981
0.349213
0.39685
0.417903
0.463802
0.485876
0.536512
0.555594
0.596902
0.611953
2.5852e-05
0.000326895
0.00157153
0.0035876
0.00751734
0.0109286
0.018896
0.0244384
0.0359267
0.0423803
0.0549305
0.0610666
0.0735942
0.0839297
0.0927066
0.107397
0.119455
0.135193
0.147869
0.165343
2.26241e-05
4.65798e-05
0.000145665
0.000259858
0.000474909
0.000691436
0.00108194
0.00208745
0.00275122
0.00400738
0.00476793
0.00618998
0.00718416
0.0094994
0.0105556
0.0134091
0.0149771
0.0189714
0.0213948
0.0281514
2.11072e-05
2.89606e-05
5.24243e-05
9.92346e-05
0.000103066
0.000102175
0.000106941
0.000177534
0.000227469
0.000338558
0.000366977
0.000459348
0.00050442
0.000672162
0.00071825
0.000991541
0.0010858
0.00152646
0.00181811
0.00308445
2.07147e-05
3.05729e-05
3.84655e-05
6.29266e-05
8.3322e-05
8.32792e-05
7.63882e-05
7.74097e-05
8.66641e-05
9.92349e-05
9.97199e-05
0.000103067
0.000103831
0.000107122
0.000105272
0.00011622
0.00012411
0.000156828
0.000176553
0.000263468
2.06521e-05
3.01225e-05
3.63403e-05
5.13591e-05
6.76613e-05
7.04587e-05
6.87678e-05
6.61657e-05
6.64391e-05
7.25925e-05
8.04929e-05
8.49146e-05
8.67256e-05
8.6347e-05
8.10858e-05
7.74152e-05
7.66248e-05
7.70957e-05
7.85893e-05
8.48546e-05
2.0653e-05
3.03714e-05
3.59867e-05
4.97985e-05
6.83201e-05
7.59079e-05
7.47493e-05
7.0929e-05
7.00434e-05
7.30006e-05
7.92498e-05
8.12255e-05
8.09135e-05
8.03349e-05
7.94869e-05
8.09475e-05
8.16723e-05
8.40437e-05
8.49378e-05
8.79351e-05
2.07066e-05
2.76011e-05
4.45437e-05
6.44317e-05
7.17509e-05
7.28408e-05
7.20353e-05
7.38373e-05
8.16717e-05
9.2565e-05
9.3963e-05
9.47053e-05
9.66259e-05
0.000103233
0.000116153
0.000125516
0.000129924
0.000140839
0.000156565
0.000173628
2.10067e-05
2.99184e-05
4.59602e-05
8.39574e-05
9.70608e-05
0.000108754
0.000124373
0.000172299
0.000208238
0.000288181
0.000324023
0.000433458
0.000510496
0.000683431
0.000783937
0.00101529
0.00116324
0.00154296
0.00180899
0.00235533
2.16125e-05
4.29516e-05
0.000124238
0.000374114
0.000511794
0.000834885
0.00117168
0.00201846
0.00257884
0.00391854
0.00465689
0.00650608
0.00751164
0.00981858
0.0110941
0.0140792
0.015796
0.0200517
0.0226338
0.0289668
2.49917e-05
0.000306366
0.00152482
0.00501451
0.00722365
0.0123829
0.0168856
0.026899
0.0325123
0.045128
0.0512677
0.0651988
0.0719195
0.0870119
0.0944472
0.111775
0.120687
0.142925
0.154922
0.18773
0.000123672
0.00493512
0.0228221
0.0591868
0.0812999
0.123846
0.160222
0.209975
0.236945
0.290966
0.314624
0.363783
0.385631
0.433412
0.454884
0.504737
0.527748
0.58599
0.613369
0.684733
0.00336926
0.0694167
0.262262
0.420345
0.580541
0.700685
0.837963
0.92938
1.02008
1.10007
1.15721
1.21794
1.25572
1.3086
1.33166
1.38012
1.39984
1.45131
1.47122
1.52017
0.0845749
0.726685
1.57028
1.93734
2.28016
2.42814
2.58392
2.59584
2.62484
2.59955
2.58894
2.54044
2.52471
2.47381
2.45967
2.41748
2.40774
2.38008
2.3688
2.34221
1.40546
4.34988
5.32157
5.28518
5.13222
4.79586
4.59038
4.2731
4.13266
3.86874
3.7792
3.57714
3.52095
3.36654
3.33006
3.2019
3.17406
3.05637
3.01899
2.91982
8.11819
10.2633
8.79561
6.81267
5.71705
4.95797
4.53932
4.12856
3.93042
3.64711
3.55594
3.34784
3.30412
3.13508
3.10725
2.94557
2.91567
2.74066
2.68135
2.4685
1.83307
1.31873
1.03422
0.86638
0.770366
0.713132
0.675495
0.658344
0.645993
0.639967
0.623873
0.608287
0.580457
0.5527
0.530097
0.510987
0.4991
0.483664
0.473939
0.460973
0.450879
0.440933
0.434223
0.426444
0.422228
0.413305
0.408259
0.398164
0.394834
0.390218
0.390519
0.391464
0.393916
0.39591
0.400224
0.401322
0.404395
0.403718
0.403011
0.396508
0.392778
0.38089
0.373711
0.35812
0.345826
0.336501
0.320895
0.304147
0.28371
0.267214
0.243966
0.233568
0.223461
0.217676
0.218442
0.222557
0.233596
0.245173
0.270746
0.288537
0.315473
0.333119
0.355363
0.363216
0.375407
0.381621
0.385482
0.390198
0.390998
0.39154
0.386036
0.376332
0.349333
0.319205
0.264035
0.22084
0.174698
0.147414
0.134497
0.128053
0.127639
0.127863
0.131274
0.135394
0.144828
0.152711
0.169798
0.176904
0.19243
0.198378
0.212186
0.216508
0.226245
0.229123
0.236929
0.238566
0.246256
0.24796
0.25769
0.260813
0.270534
0.270199
0.270979
0.266796
0.262689
0.248438
0.236663
0.20878
0.186288
0.150366
0.126476
0.0976628
0.0765094
0.0551952
0.0405879
0.030531
0.0224569
0.0175462
0.0128771
0.0102512
0.008156
0.00632309
0.00536937
0.00444791
0.00360793
0.00337147
0.00291852
0.0025792
0.00250765
0.00234626
0.00219413
0.00224316
0.0022424
0.00228704
0.00253117
0.00270841
0.00326487
0.00451792
0.00717873
0.0124185
0.0267468
0.0676585
0.168568
0.24177
0.269885
0.312021
0.322809
0.316233
0.290648
0.254201
0.220508
0.180777
0.166105
0.167648
0.186029
0.2038
0.201928
0.170638
0.142784
0.133301
0.123874
0.0975365
0.0746839
0.0661353
0.0635295
0.0688193
0.117843
0.244761
0.323187
0.326141
0.260365
0.146114
0.0798086
0.0569644
0.0511325
0.0447064
0.0408571
0.0425342
0.0523105
0.05233
0.0638678
0.0601926
0.0641604
0.0664074
0.068041
0.0704914
0.0665467
0.0620105
0.0567405
0.0582847
0.0633844
0.070016
0.0884435
0.0998558
0.115246
0.115054
0.118735
0.137383
0.185381
0.650448
2.56087
2.10759
1.76471
1.52126
1.33356
1.19639
1.09066
1.01462
0.953626
0.907813
0.869414
0.835394
0.80616
0.77655
0.751474
0.727724
0.70874
0.691012
0.676838
0.660911
0.649904
0.634392
0.625028
0.611465
0.604464
0.592901
0.585718
0.57427
0.567279
0.556585
0.550492
0.541525
0.537811
0.530934
0.528849
0.52423
0.522827
0.519163
0.51817
0.515098
0.513616
0.51108
0.505218
0.501634
0.491874
0.487312
0.475581
0.468101
0.452497
0.44413
0.428211
0.417714
0.408377
0.399039
0.397335
0.392534
0.393768
0.394517
0.397972
0.399342
0.40242
0.40305
0.403457
0.405278
0.405765
0.408909
0.411403
0.414668
0.418999
0.423557
0.428059
0.429236
0.431549
0.427779
0.425438
0.411766
0.397386
0.361386
0.325586
0.276489
0.240189
0.206861
0.189884
0.175183
0.170407
0.169212
0.171519
0.173656
0.179541
0.183389
0.19196
0.197584
0.208824
0.213216
0.223528
0.228408
0.245091
0.255048
0.270582
0.271629
0.272789
0.269371
0.264789
0.251058
0.237913
0.211783
0.184249
0.15169
0.118361
0.087901
0.0629101
0.0432111
0.0306295
0.0216137
0.0157453
0.0115837
0.0085203
0.00687366
0.00509914
0.00459626
0.0037152
0.0032389
0.00302789
0.00255868
0.0023789
0.0022594
0.00200067
0.00199604
0.00198364
0.00192679
0.00198201
0.00204959
0.00210257
0.002239
0.00264922
0.00338024
0.00501574
0.00890574
0.0144884
0.0284537
0.0665277
0.195784
0.260803
0.304732
0.341707
0.34115
0.329914
0.301969
0.235572
0.183459
0.148744
0.128354
0.121193
0.122488
0.136517
0.164194
0.171728
0.167074
0.149751
0.134703
0.118057
0.0987791
0.0821035
0.0719222
0.0708229
0.0777606
0.154996
0.254131
0.312744
0.317667
0.243178
0.132722
0.0767332
0.0573272
0.049964
0.0502648
0.0540599
0.0574863
0.0643278
0.0593224
0.0612543
0.060179
0.0602567
0.0608378
0.0581406
0.0565097
0.0510507
0.050656
0.0522767
0.0638853
0.0750164
0.0905137
0.0993064
0.10635
0.11327
0.106916
0.110698
0.11159
0.127246
0.25964
2.08124
1.8514
1.63951
1.46622
1.32655
1.21078
1.1169
1.03901
0.975188
0.921679
0.878028
0.841014
0.809013
0.779818
0.753136
0.728577
0.707301
0.685971
0.671381
0.653693
0.643485
0.629123
0.619509
0.608137
0.597504
0.589101
0.577612
0.570789
0.559083
0.55349
0.543522
0.537771
0.531122
0.524148
0.520596
0.513539
0.511349
0.506861
0.504787
0.503567
0.501302
0.501535
0.49999
0.500088
0.497905
0.497224
0.494513
0.492244
0.487406
0.481704
0.478184
0.468207
0.464334
0.456218
0.452969
0.445451
0.441299
0.43514
0.429352
0.424633
0.415616
0.411505
0.403225
0.39761
0.389819
0.383446
0.377572
0.369364
0.366544
0.363986
0.365839
0.366604
0.373483
0.377965
0.391269
0.396326
0.404607
0.405057
0.403106
0.398824
0.38763
0.373553
0.35533
0.339128
0.317325
0.304478
0.287448
0.278681
0.26931
0.266265
0.265887
0.266842
0.269143
0.274378
0.280837
0.286791
0.287743
0.287292
0.284994
0.279516
0.268822
0.248728
0.227054
0.201033
0.16626
0.130527
0.0952903
0.0646159
0.044053
0.0297803
0.0203359
0.0145287
0.0101045
0.00773745
0.00567998
0.00448584
0.00362392
0.00303508
0.00254006
0.00243562
0.0020783
0.00209474
0.001941
0.00186385
0.00184268
0.00175432
0.00174764
0.00184171
0.00185023
0.00188142
0.0020472
0.00215238
0.00245585
0.00304483
0.00399178
0.00603538
0.0110092
0.0175166
0.0300998
0.0660187
0.188424
0.282971
0.339927
0.375823
0.370831
0.348439
0.290433
0.225236
0.181958
0.150368
0.123631
0.108209
0.105614
0.106083
0.114601
0.148587
0.156054
0.153948
0.147405
0.134012
0.11136
0.0957829
0.0838921
0.0786902
0.0782465
0.0892735
0.175995
0.273949
0.304285
0.305214
0.230556
0.118508
0.0762597
0.0603693
0.0551966
0.0695603
0.0700908
0.0634441
0.0661573
0.0632247
0.0614095
0.0592793
0.0590069
0.058606
0.0547346
0.0502208
0.0468446
0.0477316
0.0527268
0.0612294
0.083182
0.0845801
0.103358
0.105336
0.131342
0.130081
0.147862
0.150913
0.151379
0.175358
1.33038
1.23429
1.13888
1.05156
0.97628
0.91203
0.853581
0.805257
0.758904
0.719188
0.683886
0.654349
0.629364
0.60801
0.589327
0.570387
0.555047
0.535272
0.521518
0.505085
0.492622
0.482687
0.47235
0.466299
0.457701
0.45148
0.442504
0.435002
0.425195
0.416969
0.40846
0.400217
0.395091
0.388095
0.385056
0.380617
0.377783
0.375527
0.372636
0.370799
0.37019
0.370849
0.371891
0.375048
0.377782
0.383078
0.388033
0.391589
0.396008
0.396556
0.396531
0.394857
0.392106
0.389064
0.381551
0.37733
0.368186
0.363143
0.351693
0.344932
0.332976
0.322962
0.311017
0.29975
0.289049
0.2768
0.267563
0.258802
0.252247
0.243957
0.241592
0.24113
0.241821
0.245026
0.24946
0.261899
0.272882
0.294496
0.308574
0.325389
0.33605
0.343213
0.342967
0.343099
0.340591
0.339204
0.334841
0.332485
0.32728
0.324752
0.318903
0.316951
0.311303
0.307999
0.298248
0.291982
0.277207
0.264008
0.242001
0.221874
0.187734
0.158174
0.123464
0.0895042
0.0627493
0.0431989
0.0298042
0.0200251
0.0141336
0.00961339
0.00704775
0.00526752
0.00393015
0.00340688
0.00264685
0.00241508
0.00212932
0.00184245
0.00178675
0.00166919
0.001568
0.00161685
0.00154006
0.00161367
0.00162921
0.00163857
0.00172932
0.00184265
0.00195553
0.00229711
0.00259299
0.0030388
0.0042315
0.0053621
0.0076315
0.0130581
0.0219954
0.0336481
0.0649752
0.179636
0.316774
0.365333
0.401108
0.395876
0.368303
0.286785
0.227067
0.191077
0.164738
0.139254
0.115994
0.101093
0.100641
0.10119
0.104431
0.123577
0.146619
0.147324
0.140836
0.126835
0.108966
0.100251
0.0874844
0.0830159
0.0841667
0.117909
0.199623
0.276505
0.299349
0.291959
0.211318
0.115824
0.0745196
0.0860037
0.0756691
0.0708383
0.0715661
0.066581
0.0667262
0.0641594
0.0591088
0.0584273
0.0574337
0.055038
0.0519805
0.0461351
0.0461055
0.0458294
0.0505145
0.0537998
0.0704295
0.116501
0.136006
0.176683
0.160682
0.182397
0.167424
0.188275
0.181438
0.192714
0.590213
0.564475
0.534311
0.507309
0.479541
0.459774
0.438715
0.420912
0.404782
0.386075
0.369959
0.355192
0.340186
0.331134
0.320584
0.313971
0.307066
0.300198
0.292025
0.285409
0.275332
0.268646
0.260621
0.25454
0.250617
0.245814
0.243748
0.240709
0.238219
0.233867
0.228393
0.221568
0.215537
0.2088
0.20387
0.200252
0.198191
0.198005
0.19819
0.199394
0.199585
0.198951
0.199012
0.199162
0.200302
0.201273
0.204314
0.206477
0.211628
0.215832
0.219896
0.221261
0.220919
0.220052
0.216305
0.213123
0.206157
0.199592
0.192605
0.18217
0.174848
0.163634
0.156144
0.145487
0.13808
0.130651
0.124573
0.118345
0.114902
0.113112
0.109938
0.108369
0.108059
0.108827
0.110283
0.114434
0.118415
0.126662
0.135913
0.14905
0.164884
0.182344
0.200236
0.215224
0.228252
0.237253
0.246103
0.248516
0.24854
0.247491
0.243333
0.23745
0.226865
0.214118
0.199593
0.178625
0.158262
0.136086
0.10973
0.0861877
0.0646183
0.0482891
0.0345186
0.0246231
0.0171192
0.0119922
0.00846308
0.00594371
0.0045758
0.00328454
0.00285296
0.00226046
0.00209563
0.00192391
0.00178379
0.00177495
0.00170549
0.0016005
0.00158587
0.00147581
0.00149534
0.00147232
0.00146994
0.00155535
0.00162603
0.00177163
0.00215832
0.0024241
0.00283696
0.0037461
0.00441959
0.00586102
0.00816985
0.0105171
0.0161805
0.0286351
0.0417076
0.069441
0.156643
0.356347
0.398449
0.425223
0.420083
0.388862
0.302248
0.247643
0.210635
0.181853
0.162051
0.137232
0.114531
0.102489
0.0974383
0.100111
0.107267
0.117766
0.129495
0.137716
0.133121
0.117165
0.107434
0.102132
0.0981402
0.0947705
0.100667
0.151652
0.219017
0.277761
0.290793
0.269994
0.190026
0.116546
0.0779505
0.0907423
0.086674
0.0746643
0.0707782
0.0674789
0.0650959
0.0625844
0.0599432
0.0558749
0.054652
0.050431
0.0499781
0.0473915
0.0500763
0.0512885
0.0611619
0.100399
0.114382
0.173463
0.156855
0.178498
0.148074
0.152235
0.132714
0.14357
0.136048
0.146038
0.161795
0.157066
0.150033
0.144298
0.138087
0.135202
0.132648
0.129703
0.128081
0.123893
0.120021
0.1159
0.111272
0.108812
0.10576
0.104611
0.103104
0.102425
0.101215
0.100299
0.0976029
0.0952243
0.0924024
0.0892183
0.0875858
0.0851096
0.0843012
0.083308
0.0829488
0.082761
0.0825111
0.0822957
0.08042
0.077643
0.0741672
0.071491
0.0690957
0.0682774
0.0682197
0.0684019
0.0694286
0.0710338
0.0731176
0.0735788
0.074355
0.0744959
0.0749989
0.0754022
0.0762482
0.0772679
0.0784088
0.0808051
0.0814059
0.0814373
0.080815
0.0796855
0.077362
0.0741341
0.0707346
0.065713
0.0617898
0.0563881
0.0523776
0.0475753
0.0441547
0.0405002
0.0377618
0.0356422
0.0339967
0.0331681
0.0330805
0.0334583
0.0340362
0.034913
0.035463
0.0366553
0.0376248
0.0396786
0.0417925
0.0451995
0.0498401
0.0545691
0.0628065
0.068747
0.0764808
0.0814629
0.0883124
0.0916173
0.0920244
0.0917421
0.0898464
0.0860802
0.0799974
0.0714418
0.0633815
0.0531378
0.0444098
0.0352671
0.027619
0.0208781
0.0155654
0.0113206
0.0082345
0.00592842
0.00432943
0.00325606
0.00244993
0.00206077
0.00172744
0.0015919
0.00155323
0.00154708
0.00159984
0.00161124
0.00164478
0.00170773
0.00169672
0.00174765
0.00172881
0.00174317
0.00181398
0.00184291
0.00195379
0.00218745
0.0023803
0.00299595
0.00350545
0.00437083
0.00541068
0.00680079
0.00810805
0.0113469
0.0153169
0.0206893
0.0360775
0.0554083
0.0830748
0.148224
0.347316
0.428088
0.423458
0.439651
0.400737
0.327024
0.276343
0.243149
0.208968
0.18281
0.171397
0.141474
0.116456
0.10419
0.0917735
0.092454
0.1026
0.121549
0.12445
0.126719
0.123954
0.113681
0.113831
0.106131
0.102674
0.103064
0.121436
0.177062
0.237415
0.276376
0.2827
0.255414
0.163001
0.13313
0.0943903
0.0927807
0.0876668
0.0751622
0.0721938
0.0674807
0.0662091
0.0610057
0.0609693
0.0575505
0.058683
0.0552778
0.0553783
0.0555033
0.0605646
0.0882834
0.0951483
0.136111
0.132655
0.149564
0.130011
0.127425
0.105455
0.107279
0.101805
0.113692
0.114786
0.122307
0.0276607
0.0267672
0.0253392
0.0241282
0.0233413
0.0232229
0.0233172
0.0234205
0.0234665
0.0233066
0.0228782
0.0221211
0.021366
0.0209487
0.0206738
0.0206624
0.0206676
0.0207491
0.0207953
0.0208386
0.0208114
0.0204708
0.0198963
0.0191759
0.0188591
0.0183918
0.0182724
0.0181678
0.0181898
0.018481
0.0187667
0.0190068
0.0190512
0.0190711
0.0185421
0.0177946
0.0168999
0.0164952
0.0163542
0.0163717
0.0165678
0.0170722
0.0183106
0.0187834
0.0194613
0.0196386
0.0198014
0.0198999
0.0199427
0.0200614
0.0200327
0.0203491
0.0211929
0.0217438
0.0217484
0.0216318
0.0212193
0.0206911
0.0194946
0.0183677
0.0169473
0.0155585
0.0141316
0.0126099
0.0113837
0.0102141
0.00935999
0.00857737
0.0081313
0.00801018
0.00802645
0.00812906
0.0085964
0.00924953
0.00964089
0.0100987
0.0103157
0.0107367
0.0110281
0.0115948
0.0124008
0.0129252
0.0145579
0.0156076
0.0177342
0.0194061
0.0218881
0.023244
0.0233249
0.0232096
0.0224306
0.0214388
0.0193506
0.0171168
0.0145435
0.0120097
0.00955892
0.00750055
0.00566988
0.00430113
0.00321234
0.00241304
0.00192557
0.00152211
0.00134459
0.00120143
0.00118335
0.00119315
0.00121474
0.00132223
0.00140105
0.00159081
0.00176737
0.00188538
0.00220491
0.00234801
0.00262717
0.00285045
0.00294033
0.00314109
0.00321845
0.00333621
0.00364551
0.00392685
0.00438989
0.0056126
0.006554
0.00823084
0.0103372
0.0127479
0.0155252
0.0224185
0.030729
0.0428521
0.0756053
0.107201
0.163094
0.323024
0.435619
0.426805
0.428455
0.411223
0.336698
0.307153
0.280529
0.261472
0.215724
0.195387
0.1815
0.140887
0.112433
0.0976661
0.0896978
0.0899357
0.0961203
0.115989
0.124592
0.121062
0.120947
0.116074
0.121253
0.114685
0.110851
0.122225
0.15931
0.20414
0.24239
0.263196
0.279748
0.246491
0.155455
0.141601
0.114622
0.0941988
0.089206
0.0761427
0.0764601
0.0703052
0.0693213
0.0625599
0.062495
0.0602353
0.0596319
0.0610053
0.062209
0.0745476
0.0784787
0.0987033
0.0974144
0.106903
0.100402
0.0980283
0.0864933
0.0824998
0.075036
0.075182
0.0749458
0.0767203
0.0779224
0.0802739
0.00306849
0.00300591
0.00287742
0.00275308
0.00269441
0.00269873
0.00272818
0.00276578
0.002805
0.00280191
0.00277163
0.00270125
0.00262305
0.00258521
0.00255956
0.00256162
0.00256906
0.00259549
0.00261396
0.00262111
0.00261306
0.00255776
0.00250193
0.00244994
0.00243058
0.00240905
0.00240969
0.0024264
0.0025161
0.00260051
0.00267478
0.00272185
0.00274228
0.00275173
0.0027177
0.00265543
0.00256619
0.00253147
0.00252242
0.00252895
0.00257423
0.00263284
0.00282264
0.00293798
0.00311454
0.00319711
0.0032936
0.00339443
0.00342596
0.00348585
0.00352876
0.00357882
0.00373728
0.00383578
0.00385764
0.00384585
0.00380073
0.00372117
0.00355511
0.00344332
0.00325998
0.00308041
0.0028046
0.00250174
0.00218851
0.00188009
0.00165129
0.00148789
0.00141929
0.00140444
0.00140805
0.0014417
0.00157305
0.00177929
0.00194655
0.00209314
0.00214919
0.00223842
0.0022782
0.00233612
0.00243758
0.00251297
0.00267412
0.00275365
0.00291634
0.00337412
0.00411794
0.00455455
0.00465221
0.00465039
0.00456961
0.00436399
0.00394536
0.00336995
0.00275956
0.00225628
0.00174551
0.00143223
0.00112863
0.000989464
0.000892888
0.000872335
0.000873037
0.000894837
0.000957618
0.00104614
0.00123608
0.00139379
0.00172283
0.00217206
0.0025303
0.00325729
0.0035497
0.0041442
0.00444056
0.00481238
0.005498
0.00572502
0.00616879
0.0064568
0.00658699
0.00694692
0.00722023
0.0077302
0.00866315
0.0101461
0.0123147
0.015068
0.0193647
0.0237807
0.0300954
0.046902
0.0631218
0.0934994
0.156947
0.202718
0.314677
0.414953
0.405792
0.394915
0.418548
0.381299
0.320831
0.325638
0.335747
0.274226
0.214075
0.189693
0.168773
0.121417
0.0920435
0.0789926
0.0830634
0.0860739
0.105721
0.110726
0.116386
0.116345
0.117455
0.124567
0.120314
0.123672
0.132004
0.153901
0.178373
0.21315
0.246021
0.256838
0.262834
0.245102
0.160799
0.138646
0.118848
0.0938727
0.0934981
0.0815951
0.0820425
0.0751043
0.0740959
0.0681526
0.0659286
0.0658424
0.0645573
0.0680749
0.0691245
0.0724032
0.0719006
0.0750784
0.0725937
0.0738881
0.0736036
0.0729655
0.0709059
0.0701241
0.0698618
0.0699146
0.0709775
0.0725462
0.0743933
0.0749638
0.000269822
0.00027077
0.000272853
0.000271478
0.000269099
0.000269015
0.000270438
0.000273458
0.000278395
0.000279275
0.000279187
0.000277145
0.000271415
0.000267316
0.000262001
0.000258789
0.000256914
0.000255097
0.000253885
0.000250665
0.000247693
0.000244931
0.000242862
0.000242336
0.000242006
0.000242873
0.000246273
0.000252046
0.000258198
0.000261364
0.00026661
0.000268891
0.000273843
0.000277875
0.000282225
0.000286888
0.000288312
0.000291657
0.000291108
0.000289593
0.000290483
0.000291249
0.000295909
0.0003008
0.000312599
0.000327697
0.000357988
0.000387871
0.000414795
0.000441274
0.000455734
0.000456083
0.000453441
0.000433305
0.000418211
0.000416283
0.000424567
0.000429672
0.00043005
0.000427725
0.000421305
0.000413539
0.000383669
0.000343253
0.000299643
0.000263564
0.000238666
0.000221665
0.000214681
0.000212382
0.000214457
0.000227793
0.00024059
0.000259957
0.000277012
0.000304438
0.000318122
0.000336667
0.000348674
0.000355488
0.000369382
0.00037848
0.000400298
0.000401314
0.000403469
0.000454599
0.000548866
0.000620686
0.000641382
0.000649377
0.000643677
0.000630368
0.000576942
0.000525746
0.000516616
0.000518533
0.000527727
0.000550665
0.00061647
0.000700248
0.00082753
0.00108144
0.00131293
0.00178149
0.00216083
0.0028849
0.0034904
0.00420239
0.00531042
0.00619163
0.00729972
0.00826989
0.00879449
0.00962226
0.00995353
0.0106648
0.0109621
0.011462
0.0120342
0.0122284
0.0125924
0.01296
0.013573
0.0144407
0.0167341
0.0193091
0.023381
0.0300962
0.0370392
0.0468334
0.065631
0.102704
0.134446
0.20815
0.292005
0.318912
0.388906
0.382429
0.340293
0.389415
0.426094
0.374016
0.354588
0.426236
0.374065
0.252355
0.191328
0.125541
0.138713
0.113944
0.0818064
0.0775843
0.080823
0.0877712
0.109481
0.117099
0.113001
0.131025
0.122043
0.134901
0.124697
0.13143
0.144245
0.169745
0.193851
0.218829
0.258509
0.259091
0.257682
0.245552
0.170844
0.128067
0.121623
0.0983065
0.0980252
0.0890315
0.088563
0.0790125
0.0747974
0.072707
0.0670423
0.0669778
0.0666468
0.0651919
0.0658676
0.0658667
0.0648002
0.0649409
0.0649738
0.0666786
0.0685467
0.0691696
0.0691866
0.0694315
0.0697121
0.0705216
0.0738717
0.0763306
0.0808971
0.0851695
8.82818e-05
9.02627e-05
9.4751e-05
9.77702e-05
9.96311e-05
0.000101661
0.000103876
0.000105742
0.000107515
0.000108345
0.000108648
0.000108738
0.000108546
0.00010808
0.000107775
0.000107649
0.000107401
0.000107198
0.000106664
0.000105945
0.000105176
0.000104478
0.000103926
0.000103675
0.000103559
0.000103606
0.000103649
0.000103612
0.000102987
0.000102468
0.00010221
0.000102068
0.000102066
0.000102162
0.000102959
0.000104003
0.000104845
0.000105659
0.000105761
0.000105649
0.000105161
0.000104246
0.000104072
0.000103812
0.000103865
0.000104073
0.000106188
0.000109877
0.000114637
0.000118101
0.000118787
0.000118903
0.00011795
0.000116313
0.000114137
0.000113473
0.000113943
0.000117527
0.000122382
0.000125457
0.000126996
0.000126737
0.000125097
0.00012418
0.000124262
0.000125195
0.000128219
0.000130787
0.000132225
0.000131886
0.000132869
0.000134159
0.000138691
0.000139876
0.000140161
0.00014126
0.000141566
0.000141337
0.000141494
0.000140879
0.000141505
0.000141332
0.000141825
0.000142812
0.000143951
0.000150818
0.000156884
0.000178146
0.00018767
0.000208622
0.000222612
0.00025017
0.000289586
0.000366609
0.000458256
0.000672752
0.00087829
0.00124138
0.00187217
0.00233715
0.00338569
0.00413103
0.00566945
0.00678156
0.00845695
0.0103118
0.0116724
0.0139468
0.0154264
0.0171178
0.018883
0.0194613
0.0207585
0.0210228
0.0215199
0.0216506
0.0216446
0.0219449
0.0220532
0.0223812
0.0230507
0.0237334
0.0254983
0.0276415
0.0325367
0.0381518
0.0458041
0.0586503
0.0716585
0.0996055
0.151623
0.211055
0.268502
0.322116
0.355708
0.356244
0.353451
0.288853
0.307153
0.439888
0.434664
0.383082
0.453936
0.51715
0.376654
0.242934
0.149885
0.103619
0.132011
0.126678
0.0902456
0.0927934
0.0856821
0.0939007
0.108745
0.11109
0.106957
0.125833
0.138219
0.133702
0.147715
0.15388
0.174426
0.189569
0.225619
0.228181
0.267791
0.281884
0.258043
0.236358
0.176264
0.126573
0.128608
0.111524
0.110244
0.0984614
0.0920953
0.0852143
0.0751609
0.073318
0.0687811
0.0659042
0.0654666
0.063398
0.0638006
0.0630446
0.0626721
0.0635929
0.0644641
0.0666368
0.068574
0.0695756
0.0699781
0.0716809
0.0734721
0.0778004
0.0835934
0.0900761
0.0975246
0.105003
8.85482e-05
8.96212e-05
9.21336e-05
9.54388e-05
9.62283e-05
9.71886e-05
9.88182e-05
9.95445e-05
0.000101746
0.000102354
0.0001035
0.000103716
0.000104028
0.000104858
0.000105371
0.000107462
0.000108558
0.000111418
0.000112362
0.000113427
0.000113504
0.000113392
0.000113986
0.000114401
0.000116493
0.000117181
0.000118332
0.000118611
0.000118552
0.000118725
0.000117732
0.000117264
0.00011603
0.000116078
0.000117976
0.000123217
0.000127958
0.000129301
0.000130074
0.000130079
0.000128975
0.000126518
0.00012328
0.000121237
0.000119623
0.000119146
0.000119483
0.000121912
0.00012354
0.000125337
0.0001266
0.000128339
0.000131315
0.000137522
0.000144344
0.000153627
0.000159712
0.000166107
0.000171716
0.000175126
0.000180715
0.000185419
0.000201019
0.0002136
0.000231161
0.000255184
0.000276312
0.000309251
0.000324605
0.000329614
0.000328565
0.000323327
0.000334515
0.000347157
0.000352076
0.000352244
0.000350127
0.000345597
0.000328105
0.000317124
0.000304995
0.000283894
0.000276925
0.000274232
0.000277073
0.00028897
0.000305568
0.000347021
0.000393844
0.000481925
0.00064608
0.000808627
0.00124957
0.00165377
0.00241358
0.00343271
0.00431776
0.00634793
0.00795109
0.0105081
0.0134005
0.0160881
0.0203842
0.0236954
0.0279258
0.031596
0.0352342
0.0388088
0.0410543
0.0432666
0.044409
0.0447285
0.0446879
0.044281
0.0438827
0.0429646
0.0419093
0.041253
0.0413273
0.0416625
0.0429411
0.0448458
0.0489848
0.0541668
0.0629859
0.0760898
0.08966
0.110099
0.144282
0.229126
0.30095
0.318648
0.334064
0.353269
0.334019
0.260852
0.218293
0.207543
0.297042
0.448126
0.445373
0.484072
0.648256
0.5397
0.3437
0.225674
0.147131
0.110276
0.149076
0.147613
0.0942585
0.0918143
0.0997469
0.113662
0.105931
0.136167
0.131256
0.123903
0.195423
0.148092
0.170502
0.170237
0.195713
0.200247
0.241284
0.244878
0.280668
0.28895
0.253706
0.202616
0.179705
0.132712
0.134912
0.121618
0.113986
0.100772
0.0904672
0.0874504
0.0780639
0.0754652
0.0699467
0.0673503
0.0661345
0.0651169
0.0652227
0.065046
0.0656166
0.0662471
0.0687229
0.0707279
0.072369
0.0733891
0.0752317
0.0803423
0.0862393
0.0952031
0.105858
0.122328
0.140267
0.150698
0.000189518
0.000209286
0.000218683
0.000233714
0.000240084
0.00024551
0.000257835
0.000265474
0.000293156
0.000310711
0.00034136
0.000353139
0.000365842
0.000375697
0.000377283
0.000383741
0.000386745
0.000401871
0.000411338
0.000433016
0.000456577
0.000472927
0.000491705
0.000494969
0.000501683
0.000501114
0.000505118
0.000508322
0.000511704
0.000527436
0.00053355
0.000548556
0.000553623
0.000563793
0.000583778
0.000618086
0.000657723
0.000673017
0.00068437
0.000685015
0.000684682
0.000674624
0.00063042
0.000585641
0.000545227
0.000518897
0.000508906
0.000515568
0.000567923
0.000630557
0.000700593
0.000758186
0.000831046
0.000883818
0.000911824
0.000915469
0.000916922
0.000920671
0.000929226
0.000949058
0.000971387
0.00101137
0.00115919
0.0013179
0.00148931
0.00166959
0.00180239
0.00190626
0.00192426
0.00191974
0.00186247
0.00179434
0.00179784
0.00187781
0.0019707
0.00201187
0.0020143
0.00201684
0.00200466
0.00197349
0.00185691
0.00172651
0.00169095
0.00168959
0.00171459
0.00179385
0.00191202
0.0022084
0.00250526
0.00314407
0.00376913
0.00495903
0.00700972
0.00850517
0.0118909
0.0144829
0.0197725
0.0249592
0.0299352
0.0392358
0.0445396
0.0551434
0.0629516
0.0721134
0.079843
0.0867741
0.0928791
0.0974317
0.0993537
0.0993739
0.0986467
0.0971425
0.09301
0.0902427
0.0857033
0.0831343
0.0801019
0.0785514
0.078851
0.079614
0.0814961
0.0866417
0.0942989
0.103223
0.123635
0.142149
0.168406
0.22182
0.323592
0.363428
0.361547
0.348004
0.30051
0.214184
0.178565
0.167681
0.155371
0.169044
0.290632
0.502407
0.536565
0.629718
0.696607
0.496809
0.343458
0.238181
0.184406
0.148496
0.157049
0.140393
0.123903
0.108334
0.117054
0.111273
0.116126
0.138994
0.202283
0.124417
0.165385
0.147659
0.191889
0.180895
0.241628
0.229397
0.273393
0.2856
0.273805
0.27486
0.2432
0.178151
0.175196
0.147578
0.140937
0.121558
0.113454
0.104066
0.0913824
0.0897761
0.0818339
0.0783111
0.0718011
0.0695203
0.0677511
0.0679353
0.0678128
0.0680034
0.0694435
0.0714203
0.0742808
0.0753641
0.0774838
0.0809991
0.088028
0.102293
0.111858
0.128885
0.159214
0.191813
0.216176
0.221825
0.00257316
0.0027249
0.00281135
0.00288514
0.00291195
0.00293519
0.00300218
0.00307319
0.00327033
0.00339801
0.00367557
0.00381234
0.00392823
0.00402854
0.00403826
0.00407039
0.00406429
0.00409044
0.0041717
0.00437938
0.00467774
0.00488398
0.00505712
0.00513166
0.00516497
0.00514787
0.0051332
0.00507747
0.00506053
0.00505855
0.00505079
0.00510169
0.00516651
0.00532733
0.00551551
0.00568462
0.00587475
0.00592064
0.00596288
0.0059586
0.0059467
0.00582932
0.00554774
0.00530289
0.00508067
0.00496913
0.00492921
0.00497788
0.00523697
0.00548845
0.00583419
0.00609967
0.00638162
0.00653079
0.00655638
0.00656076
0.00657
0.0065956
0.00666972
0.00675131
0.00689745
0.00739669
0.00799049
0.00859296
0.00912766
0.00962858
0.00997672
0.0101047
0.0101117
0.0100341
0.0097906
0.0096064
0.00959852
0.0096763
0.00969857
0.00969866
0.00965776
0.00962339
0.00957406
0.00929838
0.00906404
0.00902819
0.00906707
0.00920703
0.00959584
0.0100761
0.0111815
0.0121642
0.0137858
0.0170727
0.0193507
0.0244518
0.029017
0.0370784
0.0467274
0.0535718
0.0706703
0.081916
0.0991473
0.119168
0.132666
0.157535
0.17022
0.186875
0.199652
0.207679
0.214038
0.213642
0.211981
0.209095
0.198992
0.192967
0.181004
0.170198
0.164443
0.153805
0.149499
0.145567
0.144343
0.146694
0.149214
0.158996
0.171687
0.185845
0.221225
0.253224
0.32002
0.412263
0.420481
0.39642
0.298691
0.190456
0.145179
0.125302
0.128174
0.132947
0.132312
0.156266
0.303678
0.571583
0.579894
0.65714
0.607126
0.459218