/*--------------------------------*- C++ -*----------------------------------*\
| =========                 |                                                 |
| \\      /  F ield         | OpenFOAM: The Open Source CFD Toolbox           |
|  \\    /   O peration     | Version:  2.4.0                                 |
|   \\  /    A nd           | Web:      www.OpenFOAM.org                      |
|    \\/     M anipulation  |                                                 |
\*---------------------------------------------------------------------------*/
FoamFile
{
    version     2.0;
    format      ascii;
    class       volScalarField;
    location    "1.96";
    object      p;
}
// * * * * * * * * * * * * * * * * * * * * * * * * * * * * * * * * * * * * * //

dimensions      [0 2 -2 0 0 0 0];

internalField   nonuniform List<scalar> 
8800
(
62.4789
50.1204
42.7162
39.2018
37.2984
35.9061
34.6997
33.6104
32.5843
31.6024
30.6543
29.7541
28.8375
27.9552
27.1118
26.3484
25.5118
24.8218
24.1179
23.3213
59.3683
49.7657
42.8857
39.3156
37.3588
35.9309
34.707
33.6109
32.583
31.5996
30.6511
29.7523
28.8361
27.9521
27.1108
26.3483
25.5145
24.8106
24.1172
23.2467
57.404
49.8375
43.4915
39.6914
37.5278
36.0089
34.7532
33.643
32.608
31.616
30.6618
29.7571
28.8383
27.9492
27.1116
26.3469
25.5257
24.8066
24.1365
23.2307
55.8686
49.8947
44.0844
40.112
37.7125
36.0944
34.8167
33.6966
32.6584
31.6536
30.6933
29.7717
28.8519
27.9502
27.1204
26.3412
25.5543
24.8342
24.2735
23.2662
54.6155
49.8633
44.5705
40.5195
37.8828
36.1591
34.8677
33.748
32.7161
31.7018
30.7346
29.7933
28.8693
27.9562
27.1303
26.3367
25.5827
24.8943
24.4025
23.2878
53.6268
49.7676
44.9463
40.8629
38.0377
36.1987
34.9009
33.7873
32.7711
31.7511
30.7806
29.8134
28.8869
27.9613
27.134
26.3242
25.5968
24.9267
24.5145
23.3983
52.8696
49.6497
45.2237
41.1448
38.1781
36.2225
34.9124
33.8157
32.8135
31.7912
30.8182
29.8357
28.8978
27.9699
27.132
26.3174
25.5813
24.9088
24.5668
23.852
52.3141
49.5555
45.4015
41.3576
38.3004
36.2478
34.9007
33.8426
32.8383
31.8295
30.8404
29.859
28.8983
27.9807
27.107
26.3123
25.5359
24.8523
24.3189
24.3553
51.9549
49.4842
45.5122
41.504
38.39
36.265
34.8885
33.8594
32.8556
31.8528
30.8582
29.8737
28.9023
27.9864
27.1059
26.2964
25.501
24.8212
24.3648
24.9
51.7796
49.4499
45.5638
41.5754
38.4381
36.2743
34.8806
33.8665
32.8806
31.8666
30.8678
29.8775
28.906
27.9873
27.1007
26.2805
25.4927
24.8097
24.4229
24.9966
51.7761
49.4536
45.5616
41.5828
38.4369
36.2776
34.8748
33.8676
32.8782
31.869
30.8684
29.8797
28.906
27.9887
27.1006
26.2751
25.4869
24.8144
24.439
25.1182
51.9492
49.499
45.5066
41.5058
38.3932
36.2738
34.8806
33.8596
32.8672
31.8582
30.8603
29.8747
28.9061
27.9906
27.1044
26.2741
25.4919
24.8174
24.4545
25.1789
52.3041
49.5744
45.3912
41.3639
38.3045
36.2626
34.8874
33.846
32.8448
31.8362
30.8435
29.8656
28.9026
27.9927
27.1104
26.2834
25.5023
24.8289
24.4456
25.1612
52.8534
49.678
45.2092
41.1462
38.1796
36.2464
34.8908
33.8223
32.8151
31.8038
30.8178
29.8509
28.8963
27.994
27.1205
26.2976
25.522
24.8506
24.4206
25.05
53.6116
49.7892
44.939
40.8643
38.04
36.2154
34.8858
33.7889
32.7756
31.7625
30.7849
29.8286
28.8863
27.9917
27.1308
26.3172
25.5533
24.8836
24.4098
24.8474
54.5949
49.8884
44.5744
40.5091
37.8846
36.1751
34.8596
33.741
32.7297
31.7113
30.7458
29.8034
28.8762
27.9861
27.1433
26.3351
25.5919
24.9287
24.4313
24.5678
55.8456
49.9138
44.0939
40.1036
37.717
36.1085
34.812
33.6856
32.6758
31.6599
30.7082
29.7767
28.8654
27.9787
27.1533
26.3486
25.6329
24.9733
24.4856
24.2814
57.3817
49.8509
43.5094
39.6775
37.5308
36.0233
34.7521
33.6282
32.6284
31.6209
30.6802
29.7584
28.859
27.9749
27.1615
26.3597
25.6625
25.0079
24.5426
24.1362
59.3493
49.7717
42.905
39.302
37.3647
35.9441
34.7064
33.5963
32.6038
31.6038
30.6701
29.7531
28.859
27.9777
27.1671
26.3687
25.6765
25.0285
24.5361
24.0557
62.4629
50.1252
42.7356
39.1882
37.3055
35.9177
34.6995
33.5968
32.6043
31.6067
30.6734
29.7548
28.8617
27.9801
27.1699
26.3722
25.6798
25.0339
24.5366
24.1781
23.3715
23.3003
23.1613
23.0989
23.1533
23.304
23.4936
23.6747
23.8208
23.9092
23.9179
23.835
23.6608
23.467
23.3164
23.2207
23.1435
23.0639
22.9785
22.8826
22.7628
22.6301
22.5037
22.3661
22.1818
21.9521
21.7151
21.5242
21.4342
21.4428
21.5613
21.7704
22.0418
22.3472
22.6432
22.9168
23.1392
23.314
23.4235
23.4642
23.4597
23.3663
23.1975
22.9263
22.5825
22.1385
21.5085
20.7433
19.8949
18.9765
18.0659
17.241
16.5893
16.142
15.9008
15.9076
16.1015
16.4459
16.8744
17.3228
17.7924
18.2802
18.8036
19.3519
19.9373
20.5899
21.233
21.8685
22.4863
22.9915
23.3603
23.6221
23.706
23.6531
23.4797
23.1861
22.824
22.3404
21.8051
21.2268
20.6323
20.0119
19.4671
18.8414
18.0904
17.2555
16.2281
14.9653
13.5764
12.0833
10.3455
8.58797
6.6864
4.7951
2.96248
1.11627
-0.440358
-1.94581
-3.27367
-4.26289
-5.18002
-5.72374
-5.93545
-6.03968
-5.65119
-4.95646
-4.07659
-2.75833
-1.26324
0.353957
2.15248
3.99443
5.75676
7.57087
9.21873
10.8881
12.6006
14.1301
15.8036
17.4996
18.9987
20.7472
22.3629
23.8809
25.4184
26.9515
28.1232
29.6814
30.7695
31.8944
33.1382
33.8971
34.9587
35.4869
36.1364
36.8856
36.7984
36.8123
36.6552
36.1746
35.1054
33.437
31.5504
29.5608
27.1153
24.3218
21.7877
19.4099
16.976
14.8022
12.813
11.7117
11.2629
11.0816
13.0637
15.8575
17.8107
18.753
19.7441
21.2904
23.4935
26.2855
28.5618
30.4136
31.7529
32.6551
33.4293
33.8289
33.8595
33.0471
31.196
28.292
24.3378
19.9914
15.1911
11.067
6.87094
1.70321
0.882422
-5.4033
-5.51504
-8.60377
-9.32911
-9.97244
-9.7381
-8.66706
-7.76471
-5.92486
-3.73676
-0.453608
2.73555
6.2059
10.1452
13.0523
18.1
21.5551
27.5207
31.8587
38.2868
38.2319
23.0533
23.0266
23.0625
23.1315
23.2396
23.3703
23.4978
23.6204
23.7225
23.7992
23.8309
23.7832
23.6662
23.503
23.3452
23.226
23.1315
23.049
22.9639
22.8648
22.7453
22.6172
22.4735
22.3299
22.1623
21.9686
21.7787
21.6109
21.5318
21.5344
21.6284
21.8089
22.0433
22.3167
22.5936
22.8543
23.0763
23.2504
23.3657
23.4174
23.3845
23.2919
23.1114
22.8402
22.4806
22.0221
21.4514
20.7307
19.9302
19.0812
18.24
17.4614
16.8562
16.4305
16.1565
16.1073
16.2337
16.5049
16.8567
17.2618
17.6971
18.1736
18.6952
19.2599
19.8518
20.4846
21.1384
21.7761
22.384
22.9098
23.3295
23.5814
23.7172
23.7058
23.567
23.293
22.9721
22.5086
21.961
21.4281
20.7999
20.1402
19.5322
18.8412
18.0619
17.166
16.1215
14.9086
13.532
12.0633
10.3823
8.67742
6.87866
5.01115
3.29387
1.54731
0.057699
-1.33319
-2.59618
-3.4799
-4.27436
-4.75402
-4.88195
-4.84678
-4.43878
-3.661
-2.67607
-1.39165
0.154984
1.73462
3.48015
5.25519
6.96739
8.72877
10.3953
12.0282
13.7133
15.2229
16.9237
18.5147
20.0531
21.6799
23.1837
24.6995
26.1309
27.4776
28.7893
30.1357
31.1159
32.2791
33.4267
34.1115
35.2613
35.7133
36.4292
37.3036
37.2792
37.2957
37.0965
36.5787
35.5228
33.6916
31.4332
29.1185
26.2293
22.9972
19.6232
16.4849
13.6159
10.5347
8.39409
6.90351
6.14171
6.09277
8.30692
11.726
14.8011
16.6505
18.051
19.4849
21.9984
24.7694
27.1907
28.7697
30.0572
30.9445
31.5738
32.1336
32.0765
31.5902
30.3574
27.313
23.3479
20.0817
14.8189
9.65066
8.5392
1.08492
1.245
-3.83448
-5.39458
-7.14747
-8.60208
-8.91689
-8.98683
-7.59344
-6.69719
-4.56197
-3.0784
-0.263934
1.06781
3.60073
6.96382
10.6028
14.4457
19.0985
22.5788
27.6467
29.3563
31.3945
23.1446
23.1104
23.144
23.2479
23.377
23.4787
23.5275
23.5568
23.5862
23.6318
23.6805
23.6696
23.6135
23.5046
23.3664
23.2422
23.1204
23.0165
22.926
22.8252
22.7141
22.5975
22.4415
22.2983
22.1429
21.9808
21.8496
21.7111
21.655
21.6458
21.7175
21.8664
22.0552
22.2961
22.5362
22.7826
22.9856
23.1566
23.2592
23.2979
23.2648
23.1568
22.9764
22.6989
22.341
21.8825
21.3517
20.6983
19.9666
19.1871
18.4313
17.7151
17.1508
16.7292
16.4549
16.3802
16.4314
16.6433
16.9313
17.3064
17.7015
18.1617
18.6679
19.208
19.8149
20.4008
21.0517
21.6897
22.2785
22.7857
23.2363
23.4769
23.6136
23.65
23.5087
23.3017
22.9621
22.549
22.0014
21.4542
20.8805
20.1885
19.514
18.8051
18.0119
17.1073
16.0603
14.8741
13.5371
12.0707
10.4706
8.84378
7.14303
5.39055
3.78164
2.16363
0.747899
-0.528127
-1.67014
-2.44872
-3.1294
-3.50122
-3.57935
-3.42102
-2.93012
-2.18461
-1.10616
0.125994
1.60138
3.21504
4.83689
6.49588
8.22784
9.91584
11.548
13.1781
14.7921
16.2893
17.9753
19.4973
21.0192
22.5749
23.9585
25.4472
26.7982
28.0889
29.3553
30.5788
31.507
32.7295
33.7407
34.3683
35.6584
36.0769
36.8662
37.761
37.8363
38.0862
37.6706
36.9718
36.007
34.2845
32.0183
29.1069
25.5999
21.3146
16.8886
12.8556
9.81823
6.65137
4.2271
2.92944
1.7946
2.36517
4.95285
8.54412
11.7513
13.9212
15.9333
18.1113
21.1601
23.8022
26.0797
27.4968
28.4502
29.3872
30.092
30.7962
31.1724
30.3955
29.6905
27.8711
23.2237
19.3568
16.6318
8.48767
9.7653
3.40665
1.6921
-1.64113
-4.35001
-5.77041
-7.14856
-7.1747
-7.28114
-6.03981
-5.05133
-3.27235
-1.86036
0.38252
1.96801
3.56044
6.28754
9.67491
12.3981
18.3888
20.8835
26.6392
27.3427
29.374
22.4208
22.5865
23.1815
23.5984
23.7636
23.7238
23.5823
23.4663
23.41
23.4288
23.5021
23.5358
23.5486
23.5022
23.3962
23.2788
23.1428
23.0169
22.904
22.7929
22.6753
22.5669
22.4137
22.2854
22.1489
22.0147
21.9296
21.8172
21.7857
21.7732
21.8206
21.9363
22.0788
22.2738
22.477
22.6896
22.8644
23.0197
23.0926
23.1314
23.0822
22.9741
22.7892
22.5102
22.1777
21.7283
21.2507
20.6522
20.0189
19.3183
18.6465
18.0184
17.4797
17.0985
16.8168
16.7339
16.7256
16.8819
17.1225
17.455
17.8217
18.2332
18.7177
19.2211
19.815
20.3679
20.9802
21.5671
22.1161
22.594
22.999
23.2666
23.3929
23.4508
23.3272
23.1641
22.8488
22.4649
21.9758
21.4048
20.8488
20.1821
19.4642
18.7555
17.9612
17.0555
16.0362
14.8498
13.5809
12.2076
10.6696
9.17718
7.5832
5.96196
4.46407
2.9601
1.65043
0.552706
-0.500405
-1.1921
-1.7061
-2.03203
-2.00218
-1.79445
-1.28529
-0.540159
0.464251
1.70813
3.10828
4.64306
6.19522
7.78435
9.39863
11.0521
12.6387
14.2332
15.79
17.285
18.9031
20.3937
21.8678
23.4276
24.7131
26.1628
27.4501
28.6268
29.8326
31.026
31.8869
33.0423
34.0451
34.7753
36.0223
36.498
37.4691
38.2715
38.4506
38.894
38.4565
37.6932
36.702
35.0954
32.7111
29.0144
24.6552
19.4137
14.0532
9.62083
5.99567
3.22769
0.601499
-0.86531
-1.52913
-1.14504
1.84805
6.12084
9.7765
12.131
14.0557
16.9962
20.2456
23.25
25.1411
26.4687
27.3893
28.2361
29.1263
29.6631
30.9818
30.6136
28.7876
28.5555
24.9549
18.1211
19.5765
10.8383
10.1448
5.9973
2.86565
0.290641
-2.35673
-3.78116
-4.96905
-4.99309
-5.00612
-4.39571
-3.58714
-2.07687
-0.582074
1.00339
2.85975
4.50825
5.99244
10.1868
12.1301
18.1495
21.1326
26.0854
27.5543
28.7591
22.2559
22.5935
23.5479
24.0746
24.1687
23.9387
23.5884
23.3247
23.1898
23.18
23.2734
23.3533
23.44
23.4571
23.3967
23.2988
23.1643
23.0274
22.8789
22.7522
22.6255
22.524
22.382
22.2693
22.1617
22.0487
21.9988
21.9047
21.8965
21.8904
21.9203
22.0123
22.1094
22.2563
22.4079
22.5723
22.7035
22.8334
22.8797
22.9145
22.8636
22.7516
22.5734
22.2969
21.9982
21.5721
21.1462
20.6135
20.0667
19.478
18.8869
18.3623
17.8676
17.5353
17.2638
17.1531
17.1212
17.2107
17.4191
17.6943
18.0297
18.3946
18.8358
19.3013
19.8375
20.3501
20.878
21.3981
21.8858
22.3325
22.6788
22.9529
23.0835
23.1264
23.0617
22.8849
22.622
22.2786
21.8365
21.3197
20.7409
20.1289
19.4539
18.7439
17.9796
17.0688
16.0997
14.9864
13.7827
12.5367
11.0773
9.71291
8.27013
6.75582
5.37754
4.02197
2.84155
1.84679
0.904314
0.289642
-0.13986
-0.351687
-0.335356
-0.106259
0.393373
1.07246
2.03158
3.19899
4.48931
5.91818
7.43585
8.93889
10.4453
12.0717
13.6368
15.2291
16.8095
18.2674
19.9094
21.2977
22.7063
24.2336
25.4832
26.7979
28.1005
29.2422
30.3439
31.4525
32.3699
33.4331
34.3723
35.2198
36.4763
37.0144
38.1561
38.9161
39.2924
39.8965
39.4435
38.7214
37.826
36.3074
33.0274
28.7544
23.1624
17.3214
11.2869
6.5822
3.0573
0.215744
-2.16251
-3.9542
-4.20623
-3.04981
-0.105009
4.249
7.96326
10.8789
13.4508
16.8993
20.1014
23.0741
24.6772
25.7214
26.6035
27.2827
28.7508
29.678
30.5945
31.9679
29.8858
27.7711
27.7637
18.3697
20.656
14.7644
11.6505
8.03088
4.58299
2.50651
0.13959
-1.15648
-2.974
-3.08548
-3.29973
-2.95076
-2.50043
-1.1477
0.0106094
1.73119
2.7703
4.86882
5.48009
9.64149
12.295
16.8794
20.7372
23.9525
25.7211
25.2054
22.3268
22.7743
23.7884
24.292
24.3084
23.9692
23.5137
23.1694
23.0163
23.0314
23.1417
23.2557
23.37
23.4148
23.3858
23.2983
23.1791
23.0471
22.875
22.7408
22.6055
22.495
22.3663
22.2566
22.1761
22.0891
22.0535
21.9859
21.9915
21.9923
22.0169
22.0786
22.1373
22.2412
22.3376
22.4663
22.5406
22.6421
22.6627
22.679
22.6452
22.4992
22.3546
22.0872
21.8141
21.4518
21.0512
20.6045
20.1342
19.6597
19.1485
18.7192
18.2904
17.9936
17.7645
17.5928
17.5743
17.6005
17.7753
18.0022
18.2758
18.6186
18.9782
19.4024
19.8585
20.3121
20.7691
21.2196
21.6409
22.0362
22.3431
22.5688
22.7134
22.7725
22.718
22.5623
22.3464
22.0424
21.6546
21.1977
20.6383
20.0694
19.4652
18.7737
18.0591
17.2026
16.2884
15.3096
14.2069
13.0799
11.8509
10.4663
9.16519
7.79034
6.515
5.30525
4.18421
3.27874
2.43
1.8345
1.47354
1.27598
1.25829
1.49665
1.92466
2.53108
3.4168
4.42597
5.67009
7.03223
8.49576
10.019
11.4679
13.0585
14.6502
16.1654
17.7263
19.2012
20.7501
22.1434
23.5616
25.0143
26.2663
27.5366
28.7827
29.84
30.9137
31.9622
32.8851
33.8359
34.7307
35.598
36.7033
37.5086
38.8731
39.6925
40.3316
41.0052
40.599
40.0781
39.2363
37.2292
33.1754
28.1765
21.7034
14.9396
8.70567
3.68867
0.670531
-2.26542
-4.47198
-5.74491
-6.09027
-3.88635
-0.50321
3.14341
6.66973
10.107
13.5584
17.3097
20.7213
22.9011
24.4317
25.1664
26.1468
27.1825
28.8664
30.4634
30.7821
33.1399
33.0746
27.2495
30.9582
22.792
22.1754
17.9525
13.8098
10.5378
6.87164
5.06533
2.26565
1.02821
-0.926167
-1.44227
-1.97869
-1.94273
-1.62549
-0.741349
0.166189
1.7266
2.74433
4.41599
5.82478
8.78559
12.1129
15.3564
18.9803
21.4934
23.0582
23.2185
23.0354
23.2827
23.7703
23.891
23.7436
23.4673
23.1874
22.9757
22.9382
23.0036
23.1052
23.2279
23.3368
23.3797
23.364
23.275
23.1735
23.0429
22.856
22.7307
22.5892
22.4769
22.3639
22.2483
22.1962
22.123
22.0924
22.0459
22.0444
22.0624
22.0747
22.1251
22.1519
22.2187
22.2777
22.3593
22.4026
22.4534
22.4765
22.4498
22.4416
22.2751
22.1439
21.9236
21.648
21.3673
20.9874
20.6161
20.2196
19.8346
19.4042
19.0382
18.6872
18.4167
18.2225
18.0265
17.9924
18.0088
18.1237
18.3164
18.5312
18.8304
19.1262
19.4725
19.8666
20.2529
20.6531
21.0475
21.4058
21.7513
22.0207
22.214
22.3626
22.4352
22.3907
22.2599
22.0803
21.809
21.4779
21.0848
20.5821
20.0528
19.5092
18.8672
18.2214
17.4518
16.5986
15.7447
14.7558
13.6585
12.5514
11.3429
10.1221
8.92975
7.72946
6.58403
5.57519
4.66441
3.88491
3.31985
2.87947
2.72365
2.68802
2.82647
3.24768
3.7089
4.56504
5.57438
6.65919
8.07207
9.4894
10.9362
12.4321
13.9053
15.4721
17.0326
18.5617
20.133
21.6755
23.081
24.432
25.7913
27.0081
28.2175
29.393
30.462
31.4584
32.4715
33.4443
34.2867
35.0305
35.8594
36.8609
37.767
39.3058
40.3968
41.3127
42.0093
41.8078
41.562
40.6307
37.6245
33.2466
27.5332
20.6438
12.9682
6.59697
1.65405
-1.25285
-4.11587
-5.87609
-6.62597
-5.94965
-3.98668
-0.301699
3.34875
6.87031
10.3029
14.3857
18.0344
21.4312
23.2571
24.421
25.2415
26.2845
27.8433
28.9724
32.0426
33.2994
33.6719
36.7724
29.5461
34.243
28.3113
24.6971
20.6594
16.1607
13.4895
9.59081
7.60426
4.3459
3.05528
0.844423
-0.25312
-0.794622
-1.40647
-1.31625
-0.441766
0.501746
1.59381
2.82038
4.43636
6.13864
8.46665
11.6883
14.4853
16.9545
19.1038
20.1569
20.0781
25.4937
25.1376
24.003
23.1331
22.6168
22.4729
22.5265
22.63
22.8538
23.044
23.1533
23.2648
23.3488
23.3668
23.3217
23.2254
23.1323
23.0002
22.8202
22.7061
22.5762
22.4677
22.3642
22.245
22.2078
22.1457
22.118
22.0853
22.0758
22.1064
22.11
22.1544
22.1557
22.1971
22.226
22.2626
22.2868
22.2888
22.3105
22.2634
22.2473
22.0972
21.9563
21.7931
21.5258
21.3091
20.9713
20.6482
20.3311
19.9944
19.6435
19.3148
19.0214
18.7587
18.5916
18.4251
18.3534
18.3795
18.4415
18.583
18.7701
18.9879
19.2494
19.5191
19.8571
20.2028
20.5314
20.8968
21.2029
21.4885
21.7581
21.9077
22.0735
22.1328
22.0918
22.0235
21.8291
21.6377
21.3427
21.0109
20.5992
20.0764
19.6219
19.004
18.4302
17.7598
16.9685
16.2143
15.2593
14.2854
13.2924
12.2173
11.1391
9.98441
8.9102
7.83019
6.82637
5.98848
5.1393
4.58395
4.16886
3.8666
3.93121
3.95391
4.30943
4.85045
5.55948
6.57683
7.60811
8.87874
10.3102
11.7219
13.2152
14.7309
16.2971
17.8875
19.4061
21.0152
22.5159
23.8626
25.2658
26.5167
27.7328
29.0112
30.0815
31.121
32.0451
32.9846
33.8335
34.598
35.3392
36.0677
36.9641
38.0438
39.6415
40.77
41.82
42.7054
42.9768
43.0315
41.6434
37.9633
33.1043
27.1499
19.6157
11.9987
5.85195
1.16841
-1.90774
-4.78867
-6.08541
-6.40269
-5.30079
-3.14112
-0.0970715
3.63569
7.62449
11.5302
15.8945
19.5277
22.1602
23.8377
24.6891
25.8138
26.6443
28.9731
30.8468
34.2061
37.39
34.2783
41.339
35.1026
36.9082
32.3784
27.1727
23.9614
19.2479
16.5683
12.2997
10.0563
6.27314
4.38021
2.40234
1.0185
0.0107263
-0.563581
-0.34721
-0.0119457
1.00343
2.15699
3.12037
4.74957
6.55654
8.59951
11.2515
13.482
15.1506
16.8872
17.7323
17.2342
26.3679
25.8453
24.0867
22.7118
21.9636
21.8592
22.1263
22.4492
22.8167
23.1032
23.2346
23.3505
23.405
23.3867
23.2948
23.1861
23.0921
22.9507
22.7866
22.676
22.5622
22.4638
22.3606
22.2527
22.2234
22.1761
22.1456
22.1179
22.0978
22.1295
22.1251
22.1538
22.146
22.1642
22.1868
22.1792
22.2002
22.1675
22.172
22.1293
22.0771
21.9668
21.8112
21.688
21.4516
21.2594
20.9811
20.6808
20.4433
20.1271
19.8465
19.5471
19.2945
19.0771
18.9037
18.7763
18.6782
18.7015
18.7195
18.8131
18.971
19.113
19.3476
19.5607
19.8335
20.1547
20.4162
20.7515
21.0325
21.2644
21.5389
21.6642
21.8141
21.8916
21.8293
21.8372
21.6455
21.5029
21.2719
20.9512
20.6641
20.1288
19.7525
19.1983
18.6477
18.0904
17.2507
16.6775
15.7995
14.9278
14.0767
13.0082
12.0818
10.9769
9.94671
8.98599
7.95339
7.11765
6.30418
5.69227
5.3015
4.91231
4.96441
5.05259
5.25594
5.80816
6.43086
7.32547
8.36145
9.54092
10.985
12.4843
13.9276
15.5264
17.0452
18.5936
20.2156
21.7065
23.2986
24.7102
26.0343
27.3742
28.5037
29.7297
30.8095
31.7543
32.6409
33.455
34.2114
34.8519
35.5179
36.1529
36.9017
38.2746
39.8947
40.8836
41.9007
43.0041
43.8879
44.2859
42.4995
38.376
33.1109
26.9524
18.6528
12.1747
6.3498
2.02748
-1.05212
-4.24269
-5.19579
-4.86709
-3.80023
-1.73105
1.81992
5.25438
9.14571
13.4955
17.7564
21.0682
23.0378
24.5845
25.3525
26.7158
28.3857
31.1944
34.81
35.382
42.2633
37.956
46.4083
41.8113
39.5769
36.5118
30.4815
27.7139
22.5551
19.1059
14.6135
11.7609
8.324
6.07035
3.98095
2.51212
1.33561
0.87233
0.780215
0.867688
2.12897
3.00601
3.75402
5.42851
6.95361
8.53737
10.7889
12.3603
13.39
14.6768
15.2049
14.7138
26.7097
26.2558
24.3243
22.7503
21.8455
21.6155
21.8839
22.2789
22.7196
23.0789
23.2636
23.3982
23.4303
23.3955
23.2746
23.146
23.0504
22.8913
22.7444
22.6316
22.5376
22.4551
22.3536
22.2575
22.2356
22.1976
22.1639
22.1364
22.1082
22.1408
22.1262
22.137
22.1291
22.1289
22.1493
22.1033
22.1192
22.0622
22.0533
22.0177
21.9358
21.8534
21.7
21.597
21.4058
21.2248
20.9945
20.7352
20.5346
20.2561
20.0148
19.7467
19.5283
19.345
19.18
19.0669
18.9604
18.9597
18.9508
19.0112
19.1224
19.2367
19.4272
19.5987
19.8322
20.0983
20.333
20.622
20.8738
21.0952
21.3249
21.4596
21.5801
21.6558
21.6358
21.6394
21.5259
21.3854
21.2131
20.9463
20.6955
20.2722
19.8769
19.4359
18.8765
18.4021
17.7206
17.1324
16.3892
15.5845
14.781
13.7793
12.9483
11.91
10.9372
10.0044
9.01251
8.18188
7.36123
6.76802
6.25975
5.92966
5.83325
5.93354
6.05836
6.45092
7.1599
7.89409
8.96677
10.1877
11.5222
13.1511
14.5029
16.1157
17.738
19.1702
20.9683
22.4654
24.001
25.5465
26.7403
28.0908
29.3035
30.4326
31.5613
32.3998
33.279
34.0022
34.5854
35.1279
35.4852
35.9277
36.6229
38.1093
39.9437
40.905
41.7245
43.0346
44.5344
44.9927
42.995
38.9346
33.6548
27.0997
18.5667
12.9494
7.22048
3.4425
0.471533
-2.60001
-3.75341
-4.20998
-2.80751
-0.106319
3.61258
7.5599
11.7793
15.4668
19.9815
22.0093
24.5501
25.3478
27.5721
28.6181
32.0973
33.0668
39.5101
37.5518
48.3357
45.0236
50.1194
47.193
41.9885
40.9012
34.4842
31.0882
25.7986
21.6622
17.382
13.9403
10.7837
8.05807
5.81876
4.50936
2.61342
2.60487
2.4372
2.05335
3.3634
3.98159
4.74173
6.36404
7.43374
8.64451
10.5633
11.3342
11.8098
12.7184
12.7879
11.9788
26.9269
26.5063
24.5436
22.8464
21.8219
21.4729
21.7019
22.1373
22.6225
23.0324
23.2609
23.4149
23.437
23.3899
23.2557
23.1079
23.0109
22.8462
22.7091
22.5969
22.5149
22.4556
22.3478
22.2679
22.2467
22.2175
22.1817
22.1449
22.1146
22.1416
22.1237
22.1085
22.099
22.094
22.1058
22.0514
22.0396
21.9966
21.9618
21.9337
21.8379
21.7566
21.6286
21.5279
21.3765
21.2015
21.0095
20.7868
20.6096
20.3713
20.1509
19.9385
19.7335
19.5797
19.43
19.3044
19.2136
19.1771
19.1595
19.1891
19.2618
19.3597
19.5025
19.6411
19.8367
20.0402
20.2594
20.4958
20.7087
20.942
21.1056
21.27
21.3881
21.4378
21.5076
21.4611
21.4286
21.3187
21.1455
21.0075
20.7206
20.4612
20.0791
19.6609
19.2696
18.7179
18.2434
17.6077
16.928
16.2991
15.4051
14.5824
13.7856
12.8191
11.9331
10.9219
10.0455
9.20634
8.28662
7.77026
7.08708
6.75335
6.58312
6.46892
6.76037
6.93937
7.6939
8.48233
9.35543
10.7088
11.921
13.4762
15.0561
16.5394
18.323
19.8564
21.5178
23.208
24.6259
26.1928
27.5102
28.749
30.127
31.1609
32.1565
33.0611
33.7492
34.4575
34.9729
35.2877
35.3724
35.4764
36.1323
37.6862
39.5489
40.7012
41.6505
42.9089
44.6949
45.1296
43.2785
39.5454
34.7335
27.7628
18.657
13.6112
8.26886
5.11837
2.38585
-0.206533
-2.35078
-0.216108
-0.149008
3.1949
6.03181
9.75041
14.7905
17.4979
22.3544
22.5141
27.018
25.9341
30.7271
29.9351
36.1888
35.0113
45.4074
43.3053
53.6351
52.0659
52.4259
52.2438
45.6919
45.3425
38.8739
34.7199
29.246
24.6536
20.5972
16.407
13.4443
10.4959
8.08728
6.69516
4.40221
4.56989
4.42668
3.61846
4.69714
5.23912
5.90975
7.36265
8.45492
9.3134
10.4185
10.5562
10.5932
10.7834
10.2707
9.37114
27.001
26.5818
24.6171
22.8816
21.8211
21.4341
21.6387
22.1005
22.5882
23.0094
23.2595
23.412
23.4305
23.3646
23.2315
23.0746
22.9714
22.814
22.681
22.5672
22.4944
22.4507
22.3428
22.2742
22.2525
22.2317
22.1987
22.1492
22.1204
22.135
22.1175
22.0785
22.0606
22.0597
22.0566
22.0018
21.9655
21.921
21.8899
21.8544
21.7572
21.6816
21.5714
21.4799
21.3577
21.1846
21.0332
20.8372
20.6819
20.4859
20.2717
20.1099
19.9131
19.7781
19.6465
19.5038
19.4341
19.3724
19.3462
19.3571
19.3887
19.4694
19.5644
19.6736
19.8302
19.9871
20.1837
20.3735
20.5585
20.7816
20.913
21.0879
21.2097
21.254
21.3667
21.3322
21.3292
21.2796
21.1299
21.0642
20.8125
20.6344
20.3371
19.9075
19.6798
19.1236
18.7099
18.1804
17.4809
17.026
16.1049
15.3861
14.6542
13.6721
12.8923
11.8296
10.998
10.1521
9.14597
8.58825
7.84099
7.36426
7.22856
6.94011
7.26099
7.42653
7.96006
8.88415
9.56669
10.9462
12.2355
13.665
15.4759
16.9321
18.6807
20.4215
21.952
23.7761
25.329
26.708
28.2172
29.4001
30.6402
31.8591
32.7109
33.6242
34.3508
34.7914
35.1439
35.2341
34.9848
34.9341
35.6669
37.2358
38.9593
40.2627
41.3599
42.5941
44.3717
45.0118
43.3865
39.9422
35.4742
28.068
18.661
14.3982
9.97202
7.20309
4.61791
1.2665
-0.137787
-0.657706
2.72321
5.88658
9.67819
13.0634
17.6123
18.9582
23.4302
23.1917
29.008
27.0999
33.365
31.8478
40.8755
39.6045
50.9475
50.7066
57.0361
57.3244
55.3319
57.4019
51.0048
49.4227
43.1655
38.6548
32.7737
27.9964
24.1182
19.4762
16.3544
13.197
10.6109
9.27048
6.92066
6.39305
5.99348
5.70354
6.29896
6.82411
7.59881
8.5217
9.54108
10.2277
10.7039
10.1725
9.73887
9.27827
8.02219
6.91195
26.9609
26.5185
24.5851
22.8914
21.8678
21.5154
21.7129
22.1763
22.6324
23.0253
23.2695
23.3951
23.4011
23.3157
23.1886
23.0347
22.9259
22.7809
22.659
22.5522
22.4829
22.4547
22.3509
22.2877
22.2637
22.2399
22.2081
22.1473
22.1167
22.1175
22.1024
22.0479
22.0228
22.0195
22.0062
21.9574
21.9041
21.8674
21.838
21.7903
21.7007
21.6259
21.5275
21.4521
21.3437
21.1846
21.0627
20.8905
20.7545
20.5876
20.3904
20.262
20.0791
19.9548
19.8359
19.6922
19.6318
19.5568
19.5122
19.509
19.5047
19.5547
19.6234
19.6972
19.8172
19.9418
20.0971
20.2576
20.4139
20.6129
20.745
20.9043
21.0404
21.0993
21.2271
21.2396
21.2548
21.2528
21.1677
21.126
20.9572
20.8354
20.5906
20.2526
20.0304
19.5984
19.2095
18.7559
18.1649
17.6709
16.9126
16.222
15.481
14.561
13.7661
12.7551
11.9054
10.9626
9.99072
9.29664
8.48209
8.01056
7.6666
7.41814
7.54177
7.70295
8.1578
8.94676
9.78735
11.0103
12.4045
13.8623
15.5939
17.2407
18.9155
20.798
22.4767
24.1429
25.889
27.1504
28.5559
30.0514
30.9845
32.2279
33.3436
33.8694
34.786
35.2721
35.0418
34.9503
34.6674
34.3732
34.8981
36.5471
38.3429
39.777
40.8621
42.0129
43.6586
44.451
42.5621
39.1975
34.4752
27.7152
20.5063
16.19
12.4856
10.0957
7.76659
5.70121
4.25196
3.32072
5.66947
8.56952
13.0176
14.1658
18.1314
19.6029
25.1543
24.4858
31.42
29.9639
37.3355
36.4273
45.6861
46.3932
54.642
56.1969
59.5992
62.2615
60.0457
62.0054
56.9493
53.574
47.6659
43.0939
37.107
31.9439
27.6414
22.9198
19.304
15.8802
13.1314
11.2824
9.49012
8.48607
7.86768
7.99014
8.02574
8.6732
9.57244
10.0096
10.7066
10.9257
11.134
10.5539
9.3813
8.12706
6.57381
5.13159
26.7732
26.3188
24.4703
22.909
21.9828
21.7206
21.9279
22.353
22.7482
23.07
23.2756
23.3529
23.3399
23.2445
23.1283
22.9918
22.8746
22.7549
22.641
22.546
22.479
22.4478
22.3591
22.2979
22.2687
22.2403
22.2054
22.1433
22.1112
22.0982
22.0778
22.0227
21.983
21.9798
21.9519
21.9112
21.8513
21.8108
21.7865
21.7288
21.6567
21.5788
21.4983
21.429
21.3314
21.1986
21.0857
20.9506
20.8233
20.6862
20.5217
20.3902
20.2444
20.1168
20.0007
19.8783
19.7988
19.7186
19.6677
19.6369
19.6146
19.6362
19.6724
19.7166
19.7945
19.8938
20.0008
20.1419
20.2784
20.4391
20.5886
20.7308
20.8743
20.9597
21.0944
21.1577
21.1974
21.2554
21.2198
21.2024
21.124
21.042
20.8525
20.6093
20.424
20.0711
19.7509
19.3259
18.8536
18.3377
17.6736
17.0667
16.273
15.4587
14.5971
13.6205
12.7605
11.6916
10.7665
9.94207
9.05192
8.57518
7.97557
7.73511
7.76607
7.79313
8.40981
8.97303
9.944
11.1487
12.3751
14.0783
15.6042
17.3825
19.2183
20.8854
22.843
24.4473
26.0172
27.5524
28.6947
30.2584
31.4391
32.2382
33.6078
34.2643
34.7278
35.558
35.3202
34.5581
33.8602
33.5479
34.3355
35.9608
37.7419
39.0844
40.0948
41.0517
42.2241
42.4435
40.4692
36.6538
31.8659
27.0961
23.0858
19.073
16.3254
13.2488
10.3661
9.18399
7.74862
7.33168
10.0812
11.8011
14.0429
15.2386
20.5907
21.6316
26.35
26.789
32.7981
33.1304
41.397
41.6229
49.91
52.6809
57.9624
61.6575
63.2201
68.6837
66.0532
66.5695
62.8732
58.148
52.4439
47.377
41.4311
35.6135
30.7395
26.2274
22.128
18.7624
15.8364
13.4894
12.2292
10.679
9.96474
10.3844
10.0396
10.3399
10.8891
11.692
12.3644
11.8636
11.6303
10.9739
9.44987
7.46544
5.67269
4.19121
26.3281
25.8886
24.2811
22.9805
22.241
22.0747
22.2686
22.6087
22.9098
23.13
23.2694
23.2918
23.2548
23.1594
23.0503
22.9387
22.8259
22.7317
22.631
22.5453
22.4845
22.4371
22.3689
22.3106
22.2732
22.2395
22.2001
22.1398
22.1076
22.0756
22.0466
21.9958
21.9483
21.939
21.8981
21.8611
21.8047
21.7618
21.7408
21.6818
21.6259
21.5489
21.4819
21.4173
21.3251
21.2243
21.1144
21.0173
20.8913
20.7696
20.6385
20.5042
20.3903
20.262
20.1513
20.0448
19.9462
19.8673
19.802
19.75
19.7112
19.7048
19.7117
19.7262
19.7782
19.8443
19.9167
20.0364
20.1502
20.2777
20.4355
20.5684
20.7116
20.8374
20.9818
21.0927
21.1657
21.2743
21.2876
21.3205
21.3059
21.24
21.1463
20.9572
20.8231
20.5433
20.2259
19.9019
19.464
19.0008
18.3859
17.7692
17.0276
16.228
15.3578
14.3685
13.446
12.3712
11.4162
10.4717
9.55516
8.95132
8.30657
8.03113
8.00373
8.02104
8.58073
9.14485
10.0285
11.2819
12.454
14.1213
15.718
17.39
19.3503
20.9931
22.917
24.6651
26.0141
27.609
28.8482
30.0049
31.4632
32.3828
33.2582
34.3876
35.1047
35.3353
35.0735
34.1158
32.8647
31.986
32.4052
34.4983
36.8867
38.725
39.3126
39.8569
40.0381
39.5681
37.6385
33.3361
29.0056
27.2642
25.6799
23.1562
20.1888
16.5752
13.9916
11.3768
8.68393
9.48804
11.9836
14.5035
15.4116
17.3536
22.695
24.8114
28.334
29.0542
34.3429
35.628
43.1188
44.5267
53.6648
57.5289
61.992
68.272
68.9482
75.2847
72.3866
71.3136
67.7979
62.7297
56.878
50.8664
45.3477
39.4038
34.0537
29.6457
25.256
21.7157
18.4833
15.9298
14.5942
13.1239
12.1452
11.9032
12.1195
12.5033
12.2764
12.8943
13.483
13.1896
12.6466
11.3014
9.62235
7.34863
5.29077
3.84466
25.5475
25.2247
24.0788
23.1691
22.6655
22.5678
22.695
22.8971
23.0768
23.1816
23.2428
23.2223
23.1651
23.0785
22.9765
22.888
22.7893
22.7105
22.6262
22.5521
22.4945
22.4357
22.3759
22.322
22.2729
22.2309
22.1877
22.1307
22.0986
22.0555
22.0152
21.9739
21.9252
21.9036
21.858
21.8187
21.7709
21.7278
21.6973
21.6397
21.5925
21.525
21.4703
21.4054
21.3243
21.2519
21.1472
21.0617
20.9568
20.8425
20.7362
20.613
20.5043
20.3913
20.2778
20.1769
20.0781
19.9861
19.9137
19.845
19.7889
19.7597
19.7338
19.7305
19.7507
19.7892
19.8451
19.9352
20.0404
20.1531
20.3015
20.4443
20.5896
20.7437
20.9074
21.0374
21.1575
21.2926
21.362
21.4173
21.4418
21.4399
21.3719
21.2434
21.141
20.9246
20.6345
20.3296
19.975
19.5282
18.9306
18.3047
17.6019
16.8054
15.9273
14.9469
13.9651
12.9084
11.8893
10.906
10.0008
9.30846
8.67355
8.36692
8.24786
8.31593
8.80224
9.34184
10.25
11.42
12.6204
14.1823
15.7513
17.4189
19.2709
21.0227
22.8641
24.5563
25.987
27.4894
28.7812
29.7867
30.9385
32.2247
33.1983
34.008
34.8138
35.2784
34.9621
33.656
32.0531
30.8832
31.3765
33.7783
36.3125
38.4836
38.6974
38.6531
37.9771
36.7128
35.5899
31.0888
28.267
28.591
28.2394
27.6263
24.4425
20.4429
17.5659
14.4169
11.9289
12.1856
14.8779
18.6551
16.1314
20.9808
24.478
25.1114
30.9884
30.1784
37.7109
38.9145
44.6056
48.1338
56.7387
62.718
66.2018
75.019
75.6472
80.0464
77.9636
75.9542
71.8891
67.0042
61.0149
54.6047
49.0101
43.1286
37.4454
32.3608
28.0994
24.3839
20.7837
18.382
16.4701
15.3224
14.8633
13.5229
13.0961
13.8052
14.1575
14.2958
13.866
14.0192
13.7268
12.0825
10.0591
7.51943
5.25637
3.57559
24.7046
24.5344
23.9689
23.4934
23.2065
23.1053
23.1093
23.1561
23.2038
23.2122
23.2027
23.1548
23.0904
23.0134
22.9298
22.8565
22.7718
22.6994
22.6231
22.5541
22.4944
22.4307
22.3779
22.3276
22.2751
22.2282
22.1814
22.1293
22.0908
22.0407
21.9944
21.9538
21.9061
21.8714
21.8243
21.7859
21.7445
21.7043
21.669
21.6188
21.5751
21.5171
21.4641
21.4018
21.3291
21.2645
21.173
21.0946
21.0011
20.8982
20.8064
20.6917
20.5891
20.4832
20.3688
20.2708
20.1678
20.0675
19.9875
19.9068
19.8383
19.7924
19.7502
19.7308
19.7342
19.7547
19.7954
19.8701
19.9661
20.0672