/*--------------------------------*- C++ -*----------------------------------*\
| =========                 |                                                 |
| \\      /  F ield         | OpenFOAM: The Open Source CFD Toolbox           |
|  \\    /   O peration     | Version:  2.4.0                                 |
|   \\  /    A nd           | Web:      www.OpenFOAM.org                      |
|    \\/     M anipulation  |                                                 |
\*---------------------------------------------------------------------------*/
FoamFile
{
    version     2.0;
    format      ascii;
    class       volVectorField;
    location    "1.96";
    object      U;
}
// * * * * * * * * * * * * * * * * * * * * * * * * * * * * * * * * * * * * * //

dimensions      [0 1 -1 0 0 0 0];

internalField   nonuniform List<vector> 
8800
(
(8.09266 0.387855 0)
(5.45143 0.242566 0)
(3.90821 0.043147 0)
(3.16188 -0.0155626 0)
(2.7947 -0.0183058 0)
(2.60758 -0.0110469 0)
(2.47348 -0.00550611 0)
(2.39232 -0.00272379 0)
(2.30681 -0.00110491 0)
(2.26332 -0.000854874 0)
(2.20022 -0.000347788 0)
(2.184 -0.000759816 0)
(2.12675 0.00058142 0)
(2.11778 -3.22356e-05 0)
(2.0593 0.000597664 0)
(2.05853 -0.000710646 0)
(1.99722 0.00136219 0)
(1.99749 -0.00307767 0)
(1.99541 0.010554 0)
(1.77464 -0.0660454 0)
(10.0817 0.838126 0)
(9.66795 0.86847 0)
(8.85591 0.506625 0)
(8.10502 0.261352 0)
(7.46937 0.138303 0)
(7.03657 0.0820801 0)
(6.66587 0.0545207 0)
(6.43583 0.0398085 0)
(6.18747 0.0310134 0)
(6.06567 0.0241362 0)
(5.87829 0.0192745 0)
(5.83109 0.0153654 0)
(5.66624 0.0176742 0)
(5.6507 0.0141601 0)
(5.49855 0.0169348 0)
(5.49373 0.010197 0)
(5.35126 0.0223741 0)
(5.33696 -0.00731556 0)
(5.29949 0.0278441 0)
(5.13423 -0.0186653 0)
(10.0475 0.629662 0)
(10.6865 0.864966 0)
(10.8299 0.600908 0)
(10.7347 0.373667 0)
(10.4117 0.255894 0)
(10.1406 0.196744 0)
(9.78286 0.15349 0)
(9.56167 0.122244 0)
(9.24726 0.0958934 0)
(9.10951 0.0763835 0)
(8.84394 0.0599101 0)
(8.78527 0.0485541 0)
(8.55222 0.0483552 0)
(8.53019 0.0381667 0)
(8.32747 0.0432254 0)
(8.31266 0.0291032 0)
(8.12739 0.0509528 0)
(8.11098 -3.14793e-05 0)
(8.01306 0.0340674 0)
(7.9394 -0.0618893 0)
(9.95243 0.45491 0)
(10.6362 0.711039 0)
(11.0952 0.542381 0)
(11.4508 0.35078 0)
(11.4765 0.260979 0)
(11.5469 0.228254 0)
(11.4096 0.200106 0)
(11.3982 0.176217 0)
(11.2043 0.151027 0)
(11.1836 0.127662 0)
(10.9746 0.10719 0)
(10.9653 0.0869363 0)
(10.7701 0.0900669 0)
(10.7531 0.0676459 0)
(10.5855 0.0787079 0)
(10.5575 0.0531174 0)
(10.393 0.0887342 0)
(10.3732 0.0171156 0)
(10.2443 0.0520135 0)
(10.2205 -0.0699733 0)
(9.9398 0.337934 0)
(10.5141 0.57699 0)
(10.9381 0.461738 0)
(11.4087 0.297232 0)
(11.555 0.20578 0)
(11.7671 0.192651 0)
(11.7975 0.176077 0)
(11.9233 0.168856 0)
(11.8967 0.147732 0)
(11.9996 0.134249 0)
(11.9486 0.11454 0)
(12.0001 0.101204 0)
(11.972 0.102462 0)
(11.9766 0.089658 0)
(11.9539 0.0894836 0)
(11.9415 0.0846939 0)
(11.8867 0.0933598 0)
(11.8824 0.0634232 0)
(11.8189 0.052805 0)
(11.767 -0.00539359 0)
(9.95871 0.249066 0)
(10.4109 0.461656 0)
(10.8179 0.370877 0)
(11.2532 0.245128 0)
(11.475 0.16615 0)
(11.6447 0.146856 0)
(11.7688 0.145621 0)
(11.8996 0.140729 0)
(11.9375 0.1277 0)
(12.0575 0.113483 0)
(12.1174 0.102551 0)
(12.1659 0.0788667 0)
(12.2633 0.0911563 0)
(12.2825 0.0735353 0)
(12.3705 0.0750269 0)
(12.3911 0.0786806 0)
(12.4336 0.0923199 0)
(12.4814 0.0705832 0)
(12.4949 0.0939164 0)
(12.4908 0.0348534 0)
(9.99078 0.168706 0)
(10.3382 0.356786 0)
(10.7152 0.297233 0)
(11.1328 0.204183 0)
(11.4202 0.122072 0)
(11.5194 0.11363 0)
(11.65 0.088234 0)
(11.8078 0.12351 0)
(11.8678 0.085793 0)
(11.9791 0.0973655 0)
(12.0374 0.0716541 0)
(12.1327 0.0843636 0)
(12.2134 0.05327 0)
(12.2554 0.0901446 0)
(12.3435 0.0349919 0)
(12.395 0.0987565 0)
(12.4481 0.0334994 0)
(12.5302 0.100397 0)
(12.5312 0.0643445 0)
(12.604 0.192065 0)
(10.0133 0.104614 0)
(10.2524 0.269456 0)
(10.6088 0.186602 0)
(11.0725 0.152904 0)
(11.3424 0.0895699 0)
(11.5278 0.107716 0)
(11.5968 0.0400074 0)
(11.6642 0.0969256 0)
(11.8189 0.0486859 0)
(11.9172 0.0966055 0)
(11.9366 0.0290077 0)
(12.0452 0.0681623 0)
(12.1419 0.0246258 0)
(12.2131 0.0758773 0)
(12.2525 -0.00258011 0)
(12.3396 0.0931914 0)
(12.4423 0.0170808 0)
(12.4621 0.109407 0)
(12.5098 0.0539266 0)
(12.4993 0.188943 0)
(9.99172 0.0596017 0)
(10.2454 0.169265 0)
(10.6491 0.121628 0)
(10.9543 0.0720678 0)
(11.2316 0.0512974 0)
(11.5257 0.0545781 0)
(11.5701 0.0443046 0)
(11.6276 0.0461229 0)
(11.7651 0.0136428 0)
(11.866 0.0537846 0)
(11.9345 0.045589 0)
(11.9851 0.0279783 0)
(12.101 0.0231578 0)
(12.1836 0.0536174 0)
(12.227 0.0173545 0)
(12.2882 0.0272659 0)
(12.3621 0.0212711 0)
(12.4134 0.0415139 0)
(12.4443 0.0444739 0)
(12.4318 0.0118512 0)
(9.98842 0.0134011 0)
(10.2444 0.0587125 0)
(10.6274 0.0273371 0)
(10.931 0.0465373 0)
(11.2535 -0.00279006 0)
(11.4383 0.0352124 0)
(11.5618 0.0100981 0)
(11.6486 0.020805 0)
(11.7045 -0.0148843 0)
(11.8 0.0371007 0)
(11.8889 0.00492523 0)
(11.9758 0.0166475 0)
(12.0568 -0.0102125 0)
(12.1815 0.0286939 0)
(12.2466 -0.0141148 0)
(12.2833 0.0329496 0)
(12.3526 -0.00244119 0)
(12.425 0.0325846 0)
(12.4336 -0.00184216 0)
(12.3693 0.015583 0)
(9.97526 -0.0290665 0)
(10.2703 -0.038626 0)
(10.6157 -0.0305935 0)
(10.9391 -0.0442515 0)
(11.2187 -0.0269954 0)
(11.4217 -0.0028293 0)
(11.5937 -0.0149753 0)
(11.6392 -0.015832 0)
(11.7097 -0.0328042 0)
(11.7978 -0.00387203 0)
(11.9017 0.00649315 0)
(12.0077 -0.0151524 0)
(12.0595 -0.0206678 0)
(12.1604 0.00391992 0)
(12.2068 -0.00263998 0)
(12.2854 -0.012702 0)
(12.3549 -0.0252326 0)
(12.4151 -0.0168419 0)
(12.4311 -0.00662205 0)
(12.3831 -0.0278685 0)
(10.0107 -0.0730849 0)
(10.2267 -0.152093 0)
(10.6051 -0.120598 0)
(11.0164 -0.0727021 0)
(11.2472 -0.0630374 0)
(11.4536 -0.0479869 0)
(11.5895 -0.0424697 0)
(11.681 -0.0429184 0)
(11.7365 -0.0523283 0)
(11.8164 -0.0326763 0)
(11.9486 -0.0343116 0)
(12.0195 -0.0341856 0)
(12.0658 -0.0305884 0)
(12.1478 -0.022521 0)
(12.2474 -0.0337724 0)
(12.3413 -0.0291645 0)
(12.3871 -0.0363887 0)
(12.402 -0.0313765 0)
(12.4471 -0.0424156 0)
(12.4046 -0.031863 0)
(10.0088 -0.123228 0)
(10.2585 -0.236465 0)
(10.657 -0.202051 0)
(11.0425 -0.161816 0)
(11.3295 -0.0889758 0)
(11.4905 -0.0742163 0)
(11.6095 -0.0765288 0)
(11.7237 -0.0789721 0)
(11.7973 -0.07435 0)
(11.8891 -0.0693069 0)
(11.9679 -0.0399648 0)
(12.0409 -0.0475355 0)
(12.1268 -0.0456751 0)
(12.2021 -0.0458926 0)
(12.2839 -0.0471458 0)
(12.3485 -0.0602227 0)
(12.4028 -0.0552441 0)
(12.4624 -0.0662366 0)
(12.5035 -0.0699293 0)
(12.4298 -0.0557613 0)
(10.0315 -0.179206 0)
(10.2806 -0.353152 0)
(10.7437 -0.290207 0)
(11.1256 -0.199055 0)
(11.4097 -0.123478 0)
(11.5257 -0.113992 0)
(11.6943 -0.104933 0)
(11.7842 -0.114704 0)
(11.8718 -0.0956899 0)
(11.9296 -0.0911537 0)
(12.0368 -0.0656502 0)
(12.1201 -0.0802948 0)
(12.2083 -0.0603121 0)
(12.2682 -0.0697149 0)
(12.3595 -0.0633572 0)
(12.4106 -0.0772362 0)
(12.4743 -0.0716369 0)
(12.5238 -0.0962071 0)
(12.5582 -0.0931655 0)
(12.4957 -0.0833161 0)
(10.065 -0.259061 0)
(10.3065 -0.442113 0)
(10.9023 -0.37642 0)
(11.1831 -0.260549 0)
(11.5309 -0.158285 0)
(11.5996 -0.147626 0)
(11.8187 -0.147406 0)
(11.8274 -0.144098 0)
(11.9819 -0.116629 0)
(11.9903 -0.121599 0)
(12.1502 -0.0866386 0)
(12.152 -0.0974722 0)
(12.2799 -0.075391 0)
(12.2818 -0.0921662 0)
(12.3916 -0.0750501 0)
(12.3791 -0.10269 0)
(12.4621 -0.0862809 0)
(12.4456 -0.125395 0)
(12.4795 -0.113276 0)
(12.3676 -0.127822 0)
(10.0597 -0.349331 0)
(10.3806 -0.564567 0)
(11.0667 -0.466746 0)
(11.2967 -0.291511 0)
(11.6679 -0.206019 0)
(11.6567 -0.193781 0)
(11.8989 -0.18075 0)
(11.8094 -0.166618 0)
(11.9934 -0.14627 0)
(11.8809 -0.138336 0)
(12.0485 -0.10856 0)
(11.9098 -0.112197 0)
(12.0536 -0.0913567 0)
(11.9087 -0.101433 0)
(12.0222 -0.0842305 0)
(11.865 -0.10643 0)
(11.9483 -0.0891268 0)
(11.7841 -0.132403 0)
(11.7991 -0.115533 0)
(11.5696 -0.152806 0)
(10.0099 -0.460199 0)
(10.5575 -0.700847 0)
(11.1838 -0.546051 0)
(11.3561 -0.355289 0)
(11.5715 -0.260294 0)
(11.4429 -0.226425 0)
(11.5091 -0.203009 0)
(11.2808 -0.175785 0)
(11.3169 -0.146879 0)
(11.0537 -0.13146 0)
(11.1052 -0.102352 0)
(10.831 -0.0963891 0)
(10.8983 -0.0793004 0)
(10.6252 -0.0835105 0)
(10.6998 -0.0673617 0)
(10.4213 -0.0872076 0)
(10.4925 -0.0691106 0)
(10.2011 -0.112778 0)
(10.2191 -0.0876567 0)
(9.88634 -0.155884 0)
(10.0643 -0.632834 0)
(10.6538 -0.862197 0)
(10.8745 -0.602748 0)
(10.68 -0.373664 0)
(10.4677 -0.253827 0)
(10.0745 -0.196826 0)
(9.84993 -0.155553 0)
(9.47889 -0.121294 0)
(9.33462 -0.0942011 0)
(9.00809 -0.0791786 0)
(8.95284 -0.0577303 0)
(8.66481 -0.0534185 0)
(8.67102 -0.0435664 0)
(8.40134 -0.0456763 0)
(8.44135 -0.0389775 0)
(8.16802 -0.0497226 0)
(8.21855 -0.0446959 0)
(7.92167 -0.0673178 0)
(7.93484 -0.0661352 0)
(7.59607 -0.0865379 0)
(10.0845 -0.839123 0)
(9.65491 -0.867021 0)
(8.87402 -0.506562 0)
(8.07683 -0.262294 0)
(7.49897 -0.137558 0)
(7.00085 -0.0821096 0)
(6.70342 -0.0551689 0)
(6.38852 -0.0401689 0)
(6.23897 -0.0293719 0)
(6.0049 -0.0260408 0)
(5.94513 -0.017754 0)
(5.75226 -0.0182318 0)
(5.74324 -0.0149265 0)
(5.56091 -0.0181544 0)
(5.57535 -0.0151176 0)
(5.38377 -0.0225466 0)
(5.40174 -0.0202349 0)
(5.1816 -0.0315254 0)
(5.1782 -0.0359582 0)
(4.89256 -0.0168617 0)
(8.09126 -0.388008 0)
(5.44832 -0.24247 0)
(3.91215 -0.042951 0)
(3.15552 0.0152648 0)
(2.80227 0.0184682 0)
(2.59686 0.0111128 0)
(2.48602 0.00533475 0)
(2.37592 0.00244269 0)
(2.32351 0.00186881 0)
(2.24383 3.12491e-05 0)
(2.22117 0.00105956 0)
(2.15728 -0.000145155 0)
(2.15075 0.000261777 0)
(2.0857 -0.000990855 0)
(2.08327 -0.000105885 0)
(2.00998 -0.00234988 0)
(2.00191 -0.000876983 0)
(1.91266 -0.00375274 0)
(1.87868 -0.00383318 0)
(1.73173 0.0109279 0)
(2.22891 -0.0937643 0)
(2.34803 -0.00810834 0)
(2.52013 0.00874989 0)
(2.61287 -0.00440867 0)
(2.7215 -0.0288854 0)
(2.75677 -0.050487 0)
(2.82336 -0.0712023 0)
(2.84466 -0.0728334 0)
(2.90974 -0.0561449 0)
(2.92495 -0.014155 0)
(2.98218 0.0125504 0)
(3.00873 0.0477235 0)
(3.06177 0.0496675 0)
(3.13509 0.0358498 0)
(3.19857 0.0235565 0)
(3.24872 0.0218984 0)
(3.28418 0.0275733 0)
(3.32591 0.0279497 0)
(3.36852 0.0304338 0)
(3.41125 0.0343949 0)
(3.45484 0.0356335 0)
(3.51405 0.0371035 0)
(3.55522 0.0487068 0)
(3.59046 0.0593703 0)
(3.61802 0.0672942 0)
(3.67109 0.0629916 0)
(3.71478 0.0469529 0)
(3.78285 0.0208568 0)
(3.80984 -0.0102182 0)
(3.86427 -0.0401684 0)
(3.86701 -0.0700708 0)
(3.89941 -0.0889935 0)
(3.88148 -0.101647 0)
(3.89912 -0.106858 0)
(3.87067 -0.0992357 0)
(3.89024 -0.091761 0)
(3.8534 -0.0738231 0)
(3.8862 -0.0583664 0)
(3.83624 -0.0313701 0)
(3.88284 -0.0223864 0)
(3.8393 0.0189534 0)
(3.86775 0.0338041 0)
(3.87018 0.0828527 0)
(3.88066 0.105311 0)
(3.93738 0.15188 0)
(3.91493 0.214179 0)
(3.98916 0.249772 0)
(4.04947 0.284331 0)
(4.13534 0.30943 0)
(4.22021 0.310244 0)
(4.32797 0.293755 0)
(4.43302 0.261858 0)
(4.49034 0.206422 0)
(4.55493 0.15755 0)
(4.57729 0.0712255 0)
(4.64047 0.0258366 0)
(4.61255 -0.015464 0)
(4.66155 -0.0668814 0)
(4.62712 -0.0910993 0)
(4.68909 -0.116708 0)
(4.6888 -0.140006 0)
(4.76466 -0.186375 0)
(4.79638 -0.192438 0)
(4.83806 -0.257963 0)
(4.88749 -0.279696 0)
(4.89661 -0.308072 0)
(4.88887 -0.3374 0)
(4.92388 -0.357369 0)
(4.85837 -0.332707 0)
(4.91222 -0.336722 0)
(4.84065 -0.296438 0)
(4.91699 -0.256205 0)
(4.80783 -0.216228 0)
(4.98576 -0.171685 0)
(4.8403 -0.0773684 0)
(5.09181 -0.0582193 0)
(4.95601 0.0624434 0)
(5.23084 0.077858 0)
(5.22897 0.245619 0)
(5.47731 0.256032 0)
(5.49061 0.377891 0)
(5.69847 0.396449 0)
(5.69417 0.454084 0)
(5.8092 0.511101 0)
(5.86979 0.536689 0)
(5.93634 0.639424 0)
(6.01544 0.676546 0)
(6.12769 0.751381 0)
(6.25043 0.724191 0)
(6.34952 0.794121 0)
(6.51786 0.730016 0)
(6.70126 0.750182 0)
(6.83446 0.669196 0)
(7.16127 0.586261 0)
(7.23875 0.506442 0)
(7.65106 0.34214 0)
(7.76021 0.215265 0)
(8.14774 0.0375516 0)
(8.35174 -0.159452 0)
(8.7447 -0.333011 0)
(8.92845 -0.57272 0)
(9.45044 -0.82912 0)
(9.54414 -1.05371 0)
(10.1067 -1.31018 0)
(10.2751 -1.62699 0)
(10.6838 -1.77516 0)
(10.9294 -2.1517 0)
(11.2569 -2.27555 0)
(11.3349 -2.51896 0)
(11.7567 -2.67938 0)
(11.5276 -2.78939 0)
(12.0699 -2.87187 0)
(11.6205 -2.94114 0)
(12.1531 -2.93363 0)
(11.7222 -3.02708 0)
(12.1332 -2.90339 0)
(11.6416 -3.12174 0)
(12.1685 -2.94786 0)
(11.3713 -3.11417 0)
(12.0256 -3.12303 0)
(11.1414 -3.13574 0)
(11.572 -3.11512 0)
(10.8999 -3.31788 0)
(11.159 -3.06182 0)
(10.4496 -3.36661 0)
(10.9285 -3.2045 0)
(9.93027 -3.30795 0)
(10.6322 -3.26727 0)
(9.6046 -3.51949 0)
(10.2352 -3.0981 0)
(9.2016 -3.69639 0)
(10.2011 -3.35598 0)
(8.72615 -3.37693 0)
(9.70755 -3.54994 0)
(9.43552 -3.73587 0)
(9.00588 -3.48933 0)
(9.36236 -3.54141 0)
(9.72372 -4.26263 0)
(9.53362 -4.12817 0)
(9.05587 -3.65666 0)
(9.61793 -4.30661 0)
(10.1452 -4.89214 0)
(9.50119 -4.62699 0)
(9.14162 -3.69794 0)
(8.19175 -3.4105 0)
(8.32469 -3.28435 0)
(9.00493 -3.10956 0)
(9.76797 -3.3743 0)
(10.4217 -3.61019 0)
(10.4295 -3.35271 0)
(11.105 -2.47606 0)
(10.7665 -2.08105 0)
(10.8042 -1.37812 0)
(10.6426 -0.294321 0)
(10.574 0.901341 0)
(9.7945 1.55539 0)
(9.14497 1.53058 0)
(8.34858 1.17967 0)
(8.3116 1.78848 0)
(8.01961 2.86432 0)
(8.06759 4.48384 0)
(7.47715 4.9714 0)
(7.27779 5.20863 0)
(7.11932 4.9383 0)
(6.88588 4.77338 0)
(7.098 5.1143 0)
(6.69564 5.44855 0)
(6.49801 7.02559 0)
(5.94248 8.37818 0)
(5.08443 9.66737 0)
(5.10163 10.9299 0)
(5.09807 11.5587 0)
(4.30136 11.0638 0)
(4.24542 10.144 0)
(4.73686 9.65202 0)
(4.95466 8.62569 0)
(4.55677 6.66523 0)
(4.3491 6.72562 0)
(6.72546 4.98569 0)
(2.73145 5.3265 0)
(8.6271 2.61674 0)
(3.13129 3.99011 0)
(9.37231 0.548905 0)
(3.80494 2.46319 0)
(9.47155 -1.08055 0)
(4.8601 1.03853 0)
(9.63924 -2.0514 0)
(5.65158 0.00174452 0)
(9.84408 -3.1278 0)
(5.56442 -1.23512 0)
(9.47808 -3.36574 0)
(5.14052 -0.710046 0)
(8.91698 -2.37307 0)
(4.58643 0.0704667 0)
(8.53502 -2.69419 0)
(4.27126 0.207062 0)
(8.308 -3.0568 0)
(4.54644 0.143008 0)
(8.3422 -1.44626 0)
(5.66203 3.38888 0)
(5.29716 -0.0716541 0)
(5.31983 -0.0606507 0)
(5.35324 -0.0567703 0)
(5.35801 -0.0596215 0)
(5.38572 -0.0779725 0)
(5.40044 -0.0951854 0)
(5.43752 -0.102696 0)
(5.46052 -0.0922407 0)
(5.49386 -0.0739765 0)
(5.5076 -0.0494209 0)
(5.5273 -0.0258023 0)
(5.54322 -0.00264786 0)
(5.56329 0.00835741 0)
(5.59031 0.00856704 0)
(5.62121 0.000798727 0)
(5.64717 -0.00272996 0)
(5.66852 -0.00186185 0)
(5.68685 0.000621652 0)
(5.70788 0.003468 0)
(5.73016 0.00733508 0)
(5.75563 0.0106543 0)
(5.7813 0.0125575 0)
(5.80878 0.0186243 0)
(5.83052 0.0224419 0)
(5.85128 0.0326442 0)
(5.877 0.0274124 0)
(5.90508 0.0195532 0)
(5.93991 -0.00296087 0)
(5.96544 -0.0275755 0)
(5.99169 -0.0498883 0)
(6.00584 -0.0738782 0)
(6.01807 -0.0867064 0)
(6.01912 -0.09661 0)
(6.02069 -0.0970619 0)
(6.01244 -0.0897716 0)
(6.00856 -0.0828945 0)
(5.99703 -0.0613303 0)
(5.98795 -0.0521291 0)
(5.97755 -0.0212969 0)
(5.95588 -0.00857641 0)
(5.95667 0.0234879 0)
(5.92737 0.0509788 0)
(5.92695 0.0787522 0)
(5.90984 0.117055 0)
(5.90566 0.142965 0)
(5.91464 0.185911 0)
(5.89756 0.221699 0)
(5.94809 0.24241 0)
(5.96002 0.252276 0)
(6.03375 0.258168 0)
(6.05583 0.235157 0)
(6.15719 0.209158 0)
(6.1743 0.162919 0)
(6.23798 0.1127 0)
(6.28309 0.0620173 0)
(6.3208 0.00280698 0)
(6.37184 -0.0380539 0)
(6.4017 -0.0909173 0)
(6.46337 -0.116417 0)
(6.50709 -0.161727 0)
(6.58382 -0.192767 0)
(6.64573 -0.231985 0)
(6.70375 -0.2717 0)
(6.78223 -0.305098 0)
(6.80459 -0.335604 0)
(6.89622 -0.363244 0)
(6.87911 -0.355711 0)
(6.97261 -0.360468 0)
(6.90447 -0.343158 0)
(7.00359 -0.313189 0)
(6.88236 -0.270877 0)
(6.97232 -0.245993 0)
(6.84029 -0.159889 0)
(6.87767 -0.135876 0)
(6.75299 -0.047174 0)
(6.77689 -0.0245685 0)
(6.66933 0.0630397 0)
(6.64587 0.0824352 0)
(6.64741 0.143597 0)
(6.61672 0.215897 0)
(6.67829 0.25835 0)
(6.70745 0.320349 0)
(6.77505 0.345691 0)
(6.79273 0.429472 0)
(6.93925 0.459396 0)
(6.92955 0.538484 0)
(7.15657 0.551723 0)
(7.16797 0.628032 0)
(7.46198 0.583722 0)
(7.49064 0.636893 0)
(7.79644 0.57842 0)
(7.92846 0.552148 0)
(8.1914 0.496593 0)
(8.44867 0.379695 0)
(8.7183 0.304112 0)
(8.9555 0.137901 0)
(9.33769 -0.0407287 0)
(9.47919 -0.189427 0)
(9.98582 -0.441794 0)
(10.1323 -0.60867 0)
(10.5922 -0.863584 0)
(10.8609 -1.12861 0)
(11.2082 -1.3237 0)
(11.501 -1.62887 0)
(11.8744 -1.84651 0)
(11.9987 -2.06625 0)
(12.4028 -2.34767 0)
(12.3884 -2.43778 0)
(12.6457 -2.69895 0)
(12.6748 -2.75203 0)
(12.6606 -2.82857 0)
(12.7573 -2.9466 0)
(12.577 -2.849 0)
(12.6572 -2.95174 0)
(12.4183 -2.90983 0)
(12.4366 -2.86254 0)
(12.1827 -2.96227 0)
(12.189 -2.81241 0)
(11.7829 -2.92039 0)
(11.9439 -2.90894 0)
(11.2189 -2.8156 0)
(11.5703 -3.03818 0)
(10.8072 -2.94551 0)
(10.9786 -2.94257 0)
(10.4588 -3.21519 0)
(10.5954 -2.97948 0)
(9.8781 -3.18748 0)
(10.4135 -3.24885 0)
(9.47378 -3.26487 0)
(10.1049 -3.13615 0)
(9.34141 -3.58618 0)
(9.89996 -3.15137 0)
(9.00864 -3.34834 0)
(9.94883 -3.65521 0)
(9.34717 -3.428 0)
(9.07739 -3.38249 0)
(9.71894 -3.91192 0)
(9.63863 -4.11434 0)
(8.94779 -3.66707 0)
(8.96912 -3.86768 0)
(9.7897 -4.656 0)
(9.27457 -4.65267 0)
(8.31054 -3.8601 0)
(7.78831 -3.3355 0)
(8.06427 -3.65386 0)
(8.80087 -3.81492 0)
(9.38307 -4.05517 0)
(10.1123 -3.93915 0)
(10.3462 -3.80346 0)
(10.2265 -3.406 0)
(10.4111 -2.32317 0)
(10.2796 -1.88318 0)
(10.0617 -1.19969 0)
(9.88015 -0.0718435 0)
(9.84051 1.16187 0)
(9.19835 1.62393 0)
(8.87496 2.0523 0)
(8.0953 2.103 0)
(7.5146 2.47003 0)
(6.96703 3.18163 0)
(6.74618 4.10537 0)
(6.88567 4.83003 0)
(6.93121 4.5376 0)
(7.39168 4.65922 0)
(7.07249 4.3591 0)
(7.08242 4.92699 0)
(6.61705 5.78486 0)
(6.04672 7.08442 0)
(5.91136 9.01358 0)
(5.42181 10.0554 0)
(4.69102 10.7317 0)
(4.87469 11.5066 0)
(5.29346 11.6895 0)
(4.62788 10.2741 0)
(4.2799 8.75605 0)
(5.18692 8.75033 0)
(6.65694 6.57269 0)
(2.84381 7.01408 0)
(9.15844 4.28339 0)
(3.17464 5.69794 0)
(9.87328 1.81927 0)
(4.11364 3.97973 0)
(9.65709 0.283239 0)
(4.80467 2.55311 0)
(9.41597 -1.43534 0)
(5.6013 1.03121 0)
(9.31767 -2.30305 0)
(5.79022 0.0800712 0)
(9.10114 -3.40162 0)
(5.43994 -0.46115 0)
(8.1333 -3.90825 0)
(4.39994 0.533632 0)
(7.17355 -3.36429 0)
(3.65565 0.999331 0)
(6.86551 -3.40181 0)
(3.60417 0.257161 0)
(7.19597 -3.5913 0)
(4.45614 0.511425 0)
(7.18112 -2.80945 0)
(6.68767 2.38943 0)
(7.98736 -0.0428091 0)
(7.97271 -0.0046111 0)
(7.9691 -0.00370551 0)
(7.95832 -0.0316923 0)
(7.96744 -0.0703408 0)
(7.97299 -0.0966734 0)
(7.99701 -0.10815 0)
(8.01211 -0.103474 0)
(8.03132 -0.0833793 0)
(8.03516 -0.0629913 0)
(8.03989 -0.0403811 0)
(8.04529 -0.0172694 0)
(8.05526 -0.00542128 0)
(8.06491 0.000810184 0)
(8.08213 -0.00553117 0)
(8.08814 -0.00917777 0)
(8.10301 -0.0121475 0)
(8.10592 -0.0135165 0)
(8.12515 -0.0113878 0)
(8.12706 -0.00769766 0)
(8.15175 -0.00323887 0)
(8.15333 -0.00096447 0)
(8.17868 0.00501953 0)
(8.1846 0.00295498 0)
(8.19756 0.00867521 0)
(8.21181 0.00190448 0)
(8.2179 -0.00480292 0)
(8.24383 -0.0175624 0)
(8.25069 -0.0397557 0)
(8.27021 -0.0529473 0)
(8.27762 -0.073995 0)
(8.27713 -0.0847619 0)
(8.28203 -0.0931308 0)
(8.2669 -0.0943398 0)
(8.2644 -0.091674 0)
(8.24558 -0.078503 0)
(8.23423 -0.0671122 0)
(8.21861 -0.042752 0)
(8.19915 -0.0216081 0)
(8.1899 0.00402731 0)
(8.16045 0.0387831 0)
(8.16153 0.0551778 0)
(8.11631 0.100749 0)
(8.13491 0.115151 0)
(8.07784 0.154936 0)
(8.1178 0.178452 0)
(8.05781 0.204264 0)
(8.10903 0.227852 0)
(8.08181 0.226557 0)
(8.13684 0.230547 0)
(8.14601 0.201999 0)
(8.1843 0.179775 0)
(8.23951 0.127972 0)
(8.22896 0.0833711 0)
(8.32901 0.0347466 0)
(8.29835 -0.0308276 0)
(8.40504 -0.0736936 0)
(8.40103 -0.130234 0)
(8.48651 -0.165651 0)
(8.52119 -0.214183 0)
(8.59156 -0.252761 0)
(8.6612 -0.292897 0)
(8.70047 -0.326045 0)
(8.79209 -0.355235 0)
(8.79227 -0.374252 0)
(8.88833 -0.39261 0)
(8.86363 -0.391808 0)
(8.92098 -0.385728 0)
(8.89198 -0.361714 0)
(8.911 -0.332515 0)
(8.88592 -0.273366 0)
(8.85872 -0.223964 0)
(8.8753 -0.157366 0)
(8.78503 -0.0830051 0)
(8.81839 -0.0248358 0)
(8.69308 0.0567674 0)
(8.70537 0.0937884 0)
(8.57936 0.174482 0)
(8.57775 0.200536 0)
(8.47186 0.242848 0)
(8.45519 0.298176 0)
(8.39162 0.311745 0)
(8.42021 0.34371 0)
(8.34542 0.380987 0)
(8.44552 0.391096 0)
(8.40322 0.454457 0)
(8.57816 0.431042 0)
(8.57782 0.474008 0)
(8.82833 0.439304 0)
(8.90061 0.456555 0)
(9.19218 0.399984 0)
(9.33605 0.359169 0)
(9.64935 0.27196 0)
(9.85527 0.156773 0)
(10.2393 0.0438235 0)
(10.3929 -0.123934 0)
(10.918 -0.295526 0)
(10.9648 -0.45513 0)
(11.6033 -0.721382 0)
(11.6102 -0.870789 0)
(12.1943 -1.14773 0)
(12.3132 -1.36566 0)
(12.6933 -1.58191 0)
(12.9167 -1.84504 0)
(13.1382 -2.0279 0)
(13.2568 -2.25193 0)
(13.5011 -2.41278 0)
(13.3003 -2.53851 0)
(13.6655 -2.69245 0)
(13.1767 -2.70116 0)
(13.4553 -2.81062 0)
(13.0489 -2.80469 0)
(12.9743 -2.7536 0)
(12.7776 -2.86405 0)
(12.4574 -2.70403 0)
(12.3029 -2.80357 0)
(12.0178 -2.78543 0)
(11.7725 -2.67778 0)
(11.5677 -2.84695 0)
(11.3724 -2.69929 0)
(10.9673 -2.76429 0)
(11.1684 -2.88047 0)
(10.3164 -2.73098 0)
(10.8231 -2.92127 0)
(9.97835 -2.97876 0)
(10.3308 -2.82643 0)
(9.66622 -3.18485 0)
(10.2675 -3.00483 0)
(9.13486 -3.12612 0)
(10.2778 -3.11163 0)
(9.00441 -3.39431 0)
(9.98703 -2.92519 0)
(9.03897 -3.48205 0)
(9.96479 -3.433 0)
(8.92231 -3.20105 0)
(9.37283 -3.62181 0)
(9.58362 -3.9603 0)
(8.8747 -3.59858 0)
(8.59407 -3.65024 0)
(9.3411 -4.40096 0)
(9.1375 -4.52519 0)
(7.94971 -3.68159 0)
(7.28881 -3.22113 0)
(7.13711 -3.78273 0)
(8.32497 -4.17765 0)
(8.83103 -4.57766 0)
(9.49261 -4.372 0)
(10.0178 -4.12731 0)
(9.57981 -3.73817 0)
(9.69481 -2.98401 0)
(9.30897 -2.47556 0)
(9.44775 -1.47783 0)
(9.25442 -1.10406 0)
(8.8434 0.135106 0)
(8.67681 1.58293 0)
(8.21429 2.22996 0)
(7.82187 1.94661 0)
(8.02901 2.15165 0)
(7.50805 2.54514 0)
(7.16067 3.87798 0)
(6.094 4.48577 0)
(6.16757 5.17098 0)
(6.06782 4.80081 0)
(6.5507 4.65794 0)
(6.86775 4.78158 0)
(6.6022 5.09869 0)
(6.58122 6.40986 0)
(5.78279 7.42005 0)
(5.58808 8.92334 0)
(5.44188 10.807 0)
(5.09641 11.1904 0)
(4.59823 10.9295 0)
(4.71339 11.3973 0)
(5.8581 11.0839 0)
(5.86612 8.52769 0)
(3.33671 8.77662 0)
(9.25725 5.97347 0)
(3.12165 7.15849 0)
(9.87691 3.32241 0)
(4.28481 5.47006 0)
(9.82318 1.49439 0)
(5.0681 4.11278 0)
(9.51465 0.268028 0)
(5.62179 2.34387 0)
(9.72743 -1.28444 0)
(5.59005 0.95235 0)
(9.39968 -1.94106 0)
(5.55506 0.0362213 0)
(8.99367 -2.61671 0)
(4.46311 -0.0598867 0)
(7.75217 -2.38032 0)
(2.48106 0.873219 0)
(7.15329 -2.01737 0)
(2.11408 0.970625 0)
(7.2947 -2.68892 0)
(3.70573 0.443281 0)
(7.39972 -3.2187 0)
(5.35609 0.328851 0)
(7.98373 -1.62728 0)
(6.21506 0.528041 0)
(10.3066 -0.0121039 0)
(10.2526 0.0295938 0)
(10.1857 0.012316 0)
(10.133 -0.0345432 0)
(10.1333 -0.0799328 0)
(10.1452 -0.106683 0)
(10.182 -0.107755 0)
(10.2019 -0.0964846 0)
(10.2118 -0.0751466 0)
(10.2089 -0.0600938 0)
(10.1953 -0.0443527 0)
(10.1896 -0.0248523 0)
(10.1874 -0.018479 0)
(10.1861 -0.00405953 0)
(10.2059 -0.00635186 0)
(10.2034 -0.00330213 0)
(10.2284 -0.00578097 0)
(10.2153 -0.0118983 0)
(10.2402 -0.015326 0)
(10.2224 -0.0123249 0)
(10.2462 -0.0128874 0)
(10.2406 -0.00688713 0)
(10.2575 0.00243514 0)
(10.274 -0.00251973 0)
(10.2684 0.00981702 0)
(10.2999 -0.00488512 0)
(10.2743 -0.00959492 0)
(10.3079 -0.0206579 0)
(10.2843 -0.0446121 0)
(10.3017 -0.0469993 0)
(10.2979 -0.0739188 0)
(10.2898 -0.0708442 0)
(10.3024 -0.0850888 0)
(10.2732 -0.0800965 0)
(10.2891 -0.0750106 0)
(10.2454 -0.0712983 0)
(10.2574 -0.0435106 0)
(10.214 -0.0403859 0)
(10.2109 0.00174033 0)
(10.1932 0.0144698 0)
(10.152 0.0529665 0)
(10.1854 0.0805246 0)
(10.1023 0.106752 0)
(10.1798 0.143737 0)
(10.0783 0.164875 0)
(10.1652 0.190131 0)
(10.0828 0.21276 0)
(10.146 0.21744 0)
(10.1173 0.230508 0)
(10.1432 0.208558 0)
(10.1841 0.19961 0)
(10.1607 0.157716 0)
(10.2582 0.117309 0)
(10.2069 0.0770706 0)
(10.3095 0.00492378 0)
(10.2836 -0.0295197 0)
(10.3525 -0.107554 0)
(10.3782 -0.14425 0)
(10.4066 -0.200936 0)
(10.467 -0.25025 0)
(10.4775 -0.285314 0)
(10.5602 -0.340341 0)
(10.5509 -0.358353 0)
(10.6338 -0.398647 0)
(10.6051 -0.409999 0)
(10.6667 -0.422429 0)
(10.6443 -0.419861 0)
(10.6492 -0.40508 0)
(10.6558 -0.366797 0)
(10.6007 -0.326554 0)
(10.6372 -0.277377 0)
(10.5371 -0.18945 0)
(10.609 -0.152914 0)
(10.4738 -0.0474341 0)
(10.5558 0.00473236 0)
(10.434 0.0847082 0)
(10.4634 0.153579 0)
(10.3933 0.202293 0)
(10.3662 0.269911 0)
(10.3475 0.290204 0)
(10.2767 0.33605 0)
(10.2845 0.361994 0)
(10.2352 0.373749 0)
(10.2553 0.391918 0)
(10.2241 0.394068 0)
(10.2798 0.397758 0)
(10.3262 0.399437 0)
(10.4081 0.380951 0)
(10.5452 0.343545 0)
(10.6566 0.325344 0)
(10.871 0.237786 0)
(11.0571 0.169457 0)
(11.2881 0.0749732 0)
(11.5557 -0.083652 0)
(11.8285 -0.178075 0)
(12.0763 -0.374886 0)
(12.4636 -0.538149 0)
(12.591 -0.70611 0)
(13.071 -0.974513 0)
(13.1401 -1.08566 0)
(13.5508 -1.39499 0)
(13.6556 -1.5293 0)
(13.9022 -1.77673 0)
(14.0056 -1.98165 0)
(14.1033 -2.09773 0)
(14.1074 -2.34691 0)
(14.1417 -2.37516 0)
(13.9139 -2.53914 0)
(13.9798 -2.5962 0)
(13.454 -2.58978 0)
(13.6273 -2.69572 0)
(12.9283 -2.58199 0)
(13.0525 -2.65586 0)
(12.4954 -2.56621 0)
(12.3472 -2.52224 0)
(12.0828 -2.58104 0)
(11.8097 -2.49329 0)
(11.5378 -2.5173 0)
(11.5105 -2.61029 0)
(10.9489 -2.4528 0)
(11.119 -2.6685 0)
(10.6105 -2.58053 0)
(10.4381 -2.65116 0)
(10.4708 -2.80954 0)
(9.8673 -2.79788 0)
(10.187 -2.84364 0)
(9.6515 -3.12419 0)
(9.951 -2.84275 0)
(9.24299 -3.18184 0)
(10.1982 -3.11841 0)
(8.77131 -3.12934 0)
(10.095 -3.11424 0)
(8.9782 -3.48946 0)
(9.69364 -3.21561 0)
(8.79446 -3.27801 0)
(9.48418 -3.8321 0)
(9.01069 -3.59165 0)
(8.39835 -3.39317 0)
(8.85767 -4.00481 0)
(9.03361 -4.33438 0)
(7.78979 -3.66994 0)
(6.92244 -2.96468 0)
(6.47743 -3.32117 0)
(7.32705 -4.31207 0)
(8.07226 -4.8294 0)
(8.53552 -4.98234 0)
(9.029 -4.6797 0)
(9.17696 -4.07404 0)
(8.68688 -3.63215 0)
(8.87888 -2.8007 0)
(8.26493 -2.45447 0)
(8.56394 -1.63303 0)
(8.09009 -0.697441 0)
(7.8113 0.221614 0)
(7.28332 1.65327 0)
(7.38792 2.67081 0)
(6.55924 2.47757 0)
(6.5083 2.47939 0)
(6.10554 3.00837 0)
(6.14168 4.09713 0)
(5.90035 4.81572 0)
(6.18944 4.64165 0)
(6.55635 4.55398 0)
(6.51442 4.16306 0)
(6.70938 4.77135 0)
(6.29869 5.2511 0)
(6.2584 6.3153 0)
(5.94398 8.16377 0)
(5.19367 8.99524 0)
(5.27303 10.3946 0)
(5.26452 11.9557 0)
(5.25846 11.4015 0)
(4.65027 10.1636 0)
(4.58855 10.9584 0)
(8.42446 8.1989 0)
(2.96574 8.85576 0)
(9.89636 4.78834 0)
(4.16231 7.15144 0)
(9.77583 3.13204 0)
(5.3404 5.36951 0)
(9.97095 1.73705 0)
(5.46737 3.76106 0)
(10.1148 0.574564 0)
(5.88348 1.69197 0)
(10.2158 -0.780566 0)
(5.3958 0.793765 0)
(9.88441 -1.6537 0)
(4.77123 0.151776 0)
(9.29915 -2.09135 0)
(3.48318 0.451761 0)
(8.3703 -2.04344 0)
(2.76679 1.03265 0)
(8.08805 -2.24129 0)
(3.9797 0.251499 0)
(8.82583 -2.85826 0)
(5.68926 -1.16477 0)
(9.78037 -2.79715 0)
(6.82327 -1.546 0)
(10.0712 -1.78199 0)
(8.05584 -0.605882 0)
(11.9079 0.00137205 0)
(11.8483 -0.010139 0)
(11.7693 -0.0430509 0)
(11.7228 -0.0803796 0)
(11.7174 -0.114629 0)
(11.7442 -0.123485 0)
(11.7695 -0.121081 0)
(11.7991 -0.104454 0)
(11.7939 -0.0782336 0)
(11.7925 -0.0664801 0)
(11.7733 -0.0525502 0)
(11.7537 -0.0370467 0)
(11.751 -0.038013 0)
(11.7272 -0.024012 0)
(11.7569 -0.0263432 0)
(11.7384 -0.021871 0)
(11.7798 -0.0170399 0)
(11.7587 -0.0206899 0)
(11.796 -0.0219206 0)
(11.7739 -0.0151345 0)
(11.7917 -0.0232614 0)
(11.7842 -0.0171701 0)
(11.783 -0.0161666 0)
(11.8098 -0.0229387 0)
(11.7871 -0.00989873 0)
(11.8381 -0.0239359 0)
(11.8075 -0.0202647 0)
(11.8459 -0.0264078 0)
(11.8337 -0.0416142 0)
(11.8207 -0.0441344 0)
(11.8404 -0.0656328 0)
(11.7836 -0.0701849 0)
(11.8172 -0.0814938 0)
(11.7562 -0.0797332 0)
(11.781 -0.0794704 0)
(11.7429 -0.0603079 0)
(11.745 -0.050905 0)
(11.7432 -0.0165826 0)
(11.7041 0.000539198 0)
(11.7477 0.033377 0)
(11.6575 0.0598194 0)
(11.7386 0.0747552 0)
(11.6305 0.120077 0)
(11.7189 0.116533 0)
(11.637 0.171058 0)
(11.7082 0.163084 0)
(11.677 0.201844 0)
(11.7176 0.201184 0)
(11.739 0.208477 0)
(11.7426 0.20351 0)
(11.8068 0.168964 0)
(11.782 0.157929 0)
(11.8592 0.0842211 0)
(11.8338 0.0679487 0)
(11.8899 -0.0212178 0)
(11.8927 -0.0548731 0)
(11.9187 -0.119897 0)
(11.9545 -0.180275 0)
(11.9479 -0.211224 0)
(12.0051 -0.286357 0)
(11.9736 -0.297899 0)
(12.0487 -0.366514 0)
(11.9924 -0.373887 0)
(12.0589 -0.41714 0)
(11.9996 -0.42012 0)
(12.0238 -0.428894 0)
(11.9983 -0.419717 0)
(11.9622 -0.394508 0)
(11.9682 -0.361403 0)
(11.8862 -0.308443 0)
(11.914 -0.262423 0)
(11.8149 -0.182512 0)
(11.8491 -0.128722 0)
(11.7682 -0.0414154 0)
(11.7883 0.0153381 0)
(11.7501 0.0986629 0)
(11.7488 0.155567 0)
(11.7629 0.221345 0)
(11.7361 0.277462 0)
(11.7997 0.313234 0)
(11.7475 0.354441 0)
(11.8398 0.374572 0)
(11.7796 0.393015 0)
(11.8756 0.379021 0)
(11.8523 0.394934 0)
(11.9288 0.35328 0)
(12.0039 0.354712 0)
(12.067 0.305273 0)
(12.2084 0.248572 0)
(12.3287 0.196249 0)
(12.4682 0.0977383 0)
(12.7098 -0.00595047 0)
(12.8067 -0.0981234 0)
(13.1537 -0.278957 0)
(13.2456 -0.366949 0)
(13.585 -0.597718 0)
(13.7347 -0.717034 0)
(13.9556 -0.942244 0)
(14.1951 -1.11717 0)
(14.2646 -1.29109 0)
(14.5194 -1.51964 0)
(14.4794 -1.64346 0)
(14.6264 -1.87811 0)
(14.5748 -1.97445 0)
(14.4916 -2.14056 0)
(14.4733 -2.25791 0)
(14.1758 -2.29496 0)
(14.0853 -2.42321 0)
(13.7633 -2.36591 0)
(13.4845 -2.42944 0)
(13.309 -2.39927 0)
(12.7985 -2.34659 0)
(12.8422 -2.39341 0)
(12.202 -2.28857 0)
(12.2581 -2.32906 0)
(11.7685 -2.37446 0)
(11.6154 -2.29874 0)
(11.358 -2.48385 0)
(11.2225 -2.38008 0)
(10.778 -2.46409 0)
(11.1403 -2.49855 0)
(10.3261 -2.46487 0)
(10.8502 -2.53023 0)
(10.2727 -2.66108 0)
(10.3674 -2.56083 0)
(10.1542 -2.78771 0)
(10.1012 -2.83347 0)
(9.87684 -2.74138 0)
(9.84964 -3.08784 0)
(9.87488 -2.86917 0)
(9.25201 -3.11684 0)
(10.1167 -3.11087 0)
(8.82651 -3.28726 0)
(9.67937 -3.00909 0)
(8.84845 -3.44413 0)
(9.30822 -3.54966 0)
(8.42198 -3.15189 0)
(8.41056 -3.54837 0)
(8.66543 -3.98913 0)
(7.83165 -3.65477 0)
(6.25618 -2.66031 0)
(5.79866 -2.68712 0)
(6.16305 -3.99591 0)
(7.28515 -4.74418 0)
(7.41081 -5.50137 0)
(8.07747 -5.1261 0)
(8.25842 -4.69563 0)
(8.0263 -3.90312 0)
(8.06211 -3.22954 0)
(7.51501 -2.85685 0)
(7.52206 -2.03355 0)
(7.09197 -1.62241 0)
(6.87599 -0.281727 0)
(6.3207 0.889163 0)
(5.82618 1.54366 0)