/*--------------------------------*- C++ -*----------------------------------*\
| =========                 |                                                 |
| \\      /  F ield         | OpenFOAM: The Open Source CFD Toolbox           |
|  \\    /   O peration     | Version:  2.4.0                                 |
|   \\  /    A nd           | Web:      www.OpenFOAM.org                      |
|    \\/     M anipulation  |                                                 |
\*---------------------------------------------------------------------------*/
FoamFile
{
    version     2.0;
    format      ascii;
    class       volScalarField;
    location    "66";
    object      p;
}
// * * * * * * * * * * * * * * * * * * * * * * * * * * * * * * * * * * * * * //

dimensions      [0 2 -2 0 0 0 0];

internalField   nonuniform List<scalar> 
4400
(
-0.0978145
-0.100382
-0.115909
-0.105787
-0.0941308
-0.107342
-0.106587
-0.104785
-0.113616
-0.105495
-0.10811
-0.113621
-0.106892
-0.11269
-0.116353
-0.112631
-0.117438
-0.117901
-0.116866
-0.121432
-0.0978197
-0.100092
-0.116252
-0.10617
-0.0936566
-0.107437
-0.106808
-0.104383
-0.113888
-0.105543
-0.107917
-0.114107
-0.10674
-0.11261
-0.116653
-0.112463
-0.117455
-0.118008
-0.116828
-0.121482
-0.0978025
-0.0997533
-0.116802
-0.106563
-0.0930673
-0.10775
-0.106999
-0.103997
-0.114326
-0.105494
-0.107733
-0.114495
-0.106466
-0.112587
-0.11692
-0.112193
-0.117531
-0.118043
-0.116881
-0.121442
-0.0977899
-0.0995175
-0.117216
-0.106788
-0.0927077
-0.108142
-0.107022
-0.10368
-0.114728
-0.105366
-0.107655
-0.11482
-0.106203
-0.112625
-0.117084
-0.11188
-0.117672
-0.117911
-0.116961
-0.121278
-0.0978473
-0.0994924
-0.117267
-0.106901
-0.0928495
-0.108507
-0.106855
-0.103544
-0.114892
-0.105233
-0.107737
-0.114983
-0.106085
-0.112702
-0.11709
-0.111605
-0.117884
-0.117689
-0.116872
-0.121227
-0.0980744
-0.0997347
-0.116806
-0.107099
-0.0937527
-0.108754
-0.106654
-0.103707
-0.114851
-0.105237
-0.10799
-0.114993
-0.106236
-0.112797
-0.116942
-0.111485
-0.118026
-0.117521
-0.116643
-0.121361
-0.0985738
-0.10027
-0.115661
-0.10741
-0.095477
-0.108761
-0.106602
-0.104242
-0.114413
-0.105529
-0.108402
-0.11479
-0.106751
-0.11287
-0.116599
-0.111623
-0.117741
-0.117459
-0.116383
-0.121459
-0.0993527
-0.101093
-0.113623
-0.107682
-0.0980272
-0.108405
-0.10674
-0.105151
-0.113438
-0.106184
-0.108936
-0.114278
-0.107709
-0.112883
-0.116007
-0.112066
-0.117189
-0.117455
-0.116248
-0.121232
-0.100336
-0.102144
-0.110694
-0.107734
-0.101265
-0.107631
-0.106999
-0.106337
-0.111876
-0.107184
-0.109521
-0.113388
-0.109343
-0.11281
-0.115149
-0.112798
-0.116415
-0.11738
-0.116332
-0.120543
-0.101407
-0.103313
-0.107095
-0.107424
-0.104884
-0.106485
-0.107229
-0.10762
-0.109831
-0.108412
-0.110057
-0.112109
-0.11097
-0.112637
-0.114067
-0.113716
-0.115515
-0.117111
-0.116637
-0.119483
-0.102438
-0.10444
-0.103178
-0.106713
-0.108482
-0.105135
-0.107291
-0.108785
-0.107548
-0.109661
-0.110443
-0.110555
-0.112567
-0.112371
-0.11286
-0.11465
-0.114611
-0.11662
-0.117072
-0.118213
-0.103329
-0.105367
-0.0993715
-0.105677
-0.111677
-0.10384
-0.107134
-0.109643
-0.10533
-0.110735
-0.110627
-0.108937
-0.113967
-0.112059
-0.111664
-0.115439
-0.113811
-0.115982
-0.117518
-0.116954
-0.104024
-0.105998
-0.0960759
-0.10446
-0.114183
-0.10285
-0.106793
-0.110112
-0.10346
-0.111516
-0.110652
-0.107478
-0.115027
-0.111784
-0.1106
-0.115989
-0.113197
-0.115303
-0.11789
-0.115884
-0.104514
-0.106321
-0.0935909
-0.103256
-0.115859
-0.102305
-0.106374
-0.110237
-0.102111
-0.111967
-0.110626
-0.106348
-0.115645
-0.111612
-0.109751
-0.116267
-0.112804
-0.114677
-0.118142
-0.115087
-0.104821
-0.106401
-0.0920425
-0.102269
-0.116751
-0.102189
-0.105982
-0.110155
-0.101324
-0.112123
-0.110647
-0.105635
-0.115927
-0.111566
-0.109158
-0.116315
-0.112615
-0.114172
-0.118285
-0.114562
-0.104985
-0.106351
-0.0913306
-0.101637
-0.117031
-0.102378
-0.105691
-0.110013
-0.101037
-0.112064
-0.110734
-0.105343
-0.11595
-0.111615
-0.108833
-0.116192
-0.112577
-0.11382
-0.118267
-0.114275
-0.105055
-0.106211
-0.0912122
-0.101372
-0.116911
-0.102695
-0.105542
-0.109833
-0.101146
-0.111882
-0.110787
-0.1054
-0.115773
-0.11167
-0.10876
-0.115958
-0.112621
-0.113634
-0.118129
-0.114181
-0.105065
-0.105935
-0.0914282
-0.101393
-0.116359
-0.102971
-0.105537
-0.10954
-0.101479
-0.111652
-0.110695
-0.105693
-0.115478
-0.111656
-0.108896
-0.115665
-0.112684
-0.113602
-0.117909
-0.114223
-0.10506
-0.105564
-0.091757
-0.101596
-0.115649
-0.103123
-0.105656
-0.109176
-0.101869
-0.111466
-0.110482
-0.106071
-0.115175
-0.11156
-0.109148
-0.11539
-0.112727
-0.11368
-0.117673
-0.114308
-0.105082
-0.105239
-0.0919826
-0.101866
-0.115156
-0.103108
-0.10582
-0.108804
-0.102131
-0.11142
-0.110263
-0.106507
-0.115013
-0.111431
-0.109463
-0.115223
-0.112726
-0.113797
-0.11751
-0.114373
-0.127517
-0.118389
-0.120689
-0.129967
-0.118122
-0.120707
-0.109266
-0.118298
-0.107411
-0.108303
-0.134208
-0.139515
-0.183149
-0.179967
-0.095696
-0.0606889
-0.122293
-0.154466
-0.142972
-0.140983
-0.140507
-0.133764
-0.119047
-0.0833885
-0.0325886
0.0138044
0.00393612
-0.0940794
-0.161145
-0.186739
-0.202823
-0.18738
-0.121556
-0.0699291
-0.0662998
-0.0769032
-0.0709537
-0.049577
-0.0274123
-0.00828713
0.00190164
-0.0160731
-0.0496993
-0.0560086
-0.0287238
-0.00211651
0.0026635
-0.0117125
-0.0344404
-0.052847
-0.0505555
-0.0275509
-0.0104524
-0.00754274
-0.00737858
-0.0036837
-0.000785344
-0.00175195
-0.00342345
-0.00305646
-0.00681444
-0.0156776
-0.0194624
-0.0133551
-0.00487491
0.000179399
0.00149542
0.00109196
0.00093736
0.00170489
0.00289156
0.00402443
0.00501326
0.00584016
0.0064492
0.00681582
0.00696702
0.0069538
0.00682675
0.00662574
0.00637853
0.00610297
0.00581002
0.00550618
0.00519528
0.00487947
0.00455998
0.00423747
0.00391229
0.00358462
0.00325454
0.00292208
0.00258726
0.00225007
0.0019105
0.00156854
0.00122417
0.00087738
0.000528145
0.000176458
-0.127747
-0.118204
-0.120436
-0.130771
-0.119114
-0.120656
-0.108813
-0.117883
-0.107203
-0.108215
-0.135832
-0.136906
-0.176504
-0.177502
-0.100626
-0.0669225
-0.117148
-0.146148
-0.139244
-0.137445
-0.139427
-0.137299
-0.123091
-0.0872312
-0.0353851
0.0139813
0.00263489
-0.097854
-0.167383
-0.194623
-0.212383
-0.19404
-0.12242
-0.0655654
-0.0581613
-0.0673421
-0.062786
-0.0442424
-0.0237487
-0.00554212
0.00257043
-0.0183772
-0.054493
-0.0603824
-0.0309366
-0.00294808
0.00343441
-0.00901023
-0.0301921
-0.047698
-0.046144
-0.0259737
-0.0121839
-0.011077
-0.0105006
-0.00500275
5.12055e-05
0.000773553
-0.000717609
-0.00172688
-0.0076564
-0.0181459
-0.0219286
-0.0144704
-0.00463193
0.00113527
0.00256065
0.00195364
0.00145043
0.00186109
0.0028024
0.00384228
0.0048477
0.00573194
0.00639332
0.00679266
0.00695968
0.0069525
0.00682702
0.00662607
0.00637858
0.00610283
0.0058098
0.00550598
0.00519511
0.00487935
0.0045599
0.00423742
0.00391227
0.0035846
0.00325453
0.00292207
0.00258726
0.00225006
0.0019105
0.00156854
0.00122418
0.000877378
0.000528146
0.000176458
-0.127318
-0.118792
-0.119933
-0.130758
-0.119953
-0.119418
-0.108845
-0.117251
-0.106692
-0.108553
-0.136957
-0.134302
-0.168514
-0.173507
-0.105821
-0.0737612
-0.112201
-0.13737
-0.134649
-0.133877
-0.138667
-0.141019
-0.12789
-0.0920536
-0.0388832
0.0131223
0.000867749
-0.100738
-0.172634
-0.201399
-0.220506
-0.199241
-0.122212
-0.0606565
-0.0495208
-0.0570491
-0.0539112
-0.038555
-0.0199058
-0.00243543
0.00376293
-0.0200422
-0.0584592
-0.0640675
-0.0327304
-0.00346052
0.00465057
-0.00603156
-0.0257436
-0.0423018
-0.0414875
-0.0241561
-0.0137119
-0.014349
-0.0133874
-0.0061957
0.000942485
0.0032923
0.00195908
-0.000371096
-0.00836199
-0.0203708
-0.0241801
-0.0154806
-0.00436258
0.00211628
0.00366738
0.00285007
0.00197831
0.00201602
0.00270671
0.00365571
0.00468079
0.00562404
0.00633834
0.00677054
0.00695325
0.00695191
0.00682783
0.00662677
0.00637889
0.00610285
0.00580968
0.00550583
0.00519498
0.00487925
0.00455983
0.00423738
0.00391224
0.00358459
0.00325452
0.00292207
0.00258726
0.00225006
0.0019105
0.00156854
0.00122417
0.000877377
0.000528146
0.000176458
-0.126009
-0.120112
-0.119005
-0.129195
-0.120903
-0.11751
-0.109123
-0.116643
-0.10613
-0.10913
-0.137025
-0.131915
-0.159943
-0.168059
-0.110844
-0.0807049
-0.107604
-0.128514
-0.129379
-0.130249
-0.138108
-0.144723
-0.133216
-0.0976229
-0.0429765
0.0110234
-0.00149408
-0.10282
-0.176721
-0.20667
-0.227052
-0.202921
-0.121018
-0.0553485
-0.0405286
-0.046173
-0.0444675
-0.0326042
-0.0159542
0.000951679
0.00545149
-0.0210177
-0.0615148
-0.0669765
-0.0340739
-0.00362684
0.006293
-0.00283427
-0.0211476
-0.0367339
-0.036674
-0.0221375
-0.0150202
-0.0173212
-0.0160075
-0.00724529
0.00187576
0.00574588
0.00455487
0.000984787
-0.00892336
-0.022323
-0.0261816
-0.0163641
-0.00406519
0.00311011
0.00479678
0.00376273
0.00250856
0.00216517
0.00260601
0.00346866
0.00451618
0.00551885
0.00628559
0.0067499
0.0069479
0.0069521
0.0068292
0.00662785
0.00637946
0.00610304
0.00580967
0.00550574
0.00519488
0.00487918
0.00455978
0.00423734
0.00391222
0.00358457
0.00325452
0.00292207
0.00258726
0.00225006
0.0019105
0.00156853
0.00122417
0.000877377
0.000528145
0.000176458
-0.12415
-0.121507
-0.118142
-0.126608
-0.12205
-0.115719
-0.109221
-0.11619
-0.105828
-0.109416
-0.135618
-0.129767
-0.151576
-0.161503
-0.115362
-0.0874103
-0.10348
-0.119901
-0.123678
-0.126563
-0.137575
-0.148155
-0.138769
-0.103603
-0.047474
0.00754955
-0.00457694
-0.104258
-0.179537
-0.210531
-0.231954
-0.205078
-0.118959
-0.0497763
-0.0313224
-0.0348834
-0.0341851
-0.0264896
-0.0119653
0.00453884
0.00759492
-0.0212783
-0.0636042
-0.0690482
-0.0349456
-0.00342473
0.00832191
0.000520398
-0.0164556
-0.031085
-0.0317874
-0.0199602
-0.0160952
-0.0199643
-0.018339
-0.00813419
0.00283488
0.0080816
0.00701901
0.00231673
-0.00933784
-0.0239811
-0.0279053
-0.0171031
-0.00373798
0.00410386
0.00592849
0.00467212
0.00302865
0.00230452
0.00250228
0.00328532
0.00435773
0.00541848
0.00623607
0.00673121
0.00694379
0.00695313
0.00683114
0.00662933
0.00638029
0.0061034
0.00580977
0.00550572
0.00519482
0.00487912
0.00455973
0.00423731
0.0039122
0.00358456
0.00325451
0.00292206
0.00258725
0.00225006
0.0019105
0.00156853
0.00122417
0.000877376
0.000528145
0.000176458
-0.122244
-0.122339
-0.117753
-0.123602
-0.123003
-0.114535
-0.109095
-0.115691
-0.105858
-0.109217
-0.132727
-0.127779
-0.143927
-0.154282
-0.119136
-0.0936242
-0.0999066
-0.111804
-0.117842
-0.122896
-0.136913
-0.151032
-0.144131
-0.110361
-0.0521417
0.00283764
-0.00843444
-0.105252
-0.181058
-0.213074
-0.23523
-0.205785
-0.116171
-0.044048
-0.0220222
-0.0234011
-0.0243182
-0.0203147
-0.00800847
0.00824255
0.0101432
-0.0208222
-0.064711
-0.0702538
-0.0353343
-0.00283938
0.0106779
0.00396992
-0.0117131
-0.0254529
-0.0269073
-0.0176679
-0.0169255
-0.0222569
-0.0203664
-0.00884886
0.00380529
0.0102501
0.00930727
0.00360389
-0.00960529
-0.025334
-0.0293315
-0.0176831
-0.00337937
0.00508442
0.00704138
0.00555834
0.00352684
0.00243079
0.00239788
0.00310997
0.00420906
0.00532577
0.00619088
0.00671494
0.00694108
0.00695502
0.00683364
0.00663118
0.00638137
0.00610391
0.00580996
0.00550575
0.0051948
0.00487908
0.0045597
0.00423729
0.00391218
0.00358455
0.0032545
0.00292206
0.00258725
0.00225006
0.0019105
0.00156853
0.00122417
0.000877376
0.000528145
0.000176458
-0.120663
-0.12241
-0.117882
-0.120798
-0.123335
-0.11409
-0.108959
-0.114883
-0.106157
-0.108578
-0.128596
-0.125789
-0.137236
-0.146853
-0.122051
-0.0991921
-0.0969293
-0.104422
-0.112153
-0.119374
-0.13602
-0.153087
-0.14876
-0.115748
-0.0567383
-0.00294585
-0.0130005
-0.105986
-0.181293
-0.214477
-0.23699
-0.205181
-0.112791
-0.0382443
-0.0127393
-0.0119548
-0.0145397
-0.0141824
-0.00414913
0.0119718
0.0130402
-0.0196665
-0.0648628
-0.0706027
-0.0352413
-0.00186421
0.0132809
0.00745827
-0.00696762
-0.0199349
-0.0221072
-0.0153055
-0.0175026
-0.0241836
-0.0220792
-0.00937943
0.0047696
0.0122077
0.011385
0.00482842
-0.0097279
-0.0263786
-0.0304498
-0.0180944
-0.00298866
0.00603916
0.00811406
0.00640198
0.0039925
0.00254167
0.00229547
0.00294663
0.00407331
0.00524224
0.00615096
0.00670143
0.00693982
0.00695774
0.00683667
0.00663337
0.00638266
0.00610456
0.00581023
0.00550584
0.00519481
0.00487907
0.00455968
0.00423727
0.00391217
0.00358454
0.0032545
0.00292206
0.00258725
0.00225006
0.0019105
0.00156853
0.00122417
0.000877376
0.000528145
0.000176458
-0.119564
-0.121897
-0.118305
-0.11864
-0.122772
-0.114202
-0.108966
-0.11366
-0.106597
-0.107616
-0.123589
-0.123652
-0.131598
-0.13966
-0.124102
-0.10404
-0.0945764
-0.097893
-0.106832
-0.116124
-0.134843
-0.154119
-0.152232
-0.120028
-0.0610198
-0.00960558
-0.01817
-0.106416
-0.180234
-0.214906
-0.237389
-0.203446
-0.108935
-0.0324008
-0.00357187
-0.000755459
-0.00504292
-0.00821181
-0.000449981
0.0156296
0.0162136
-0.0178521
-0.0641272
-0.0701471
-0.0346793
-0.000507064
0.0160378
0.0109338
-0.00226762
-0.0146237
-0.0174551
-0.0129194
-0.0178212
-0.0257337
-0.0234702
-0.00971841
0.00570634
0.0139245
0.0132246
0.00597415
-0.00971101
-0.0271191
-0.0312588
-0.0183325
-0.00256609
0.00695581
0.00912544
0.00718533
0.00441687
0.00263593
0.00219778
0.0027987
0.00395291
0.00516927
0.00611695
0.00669086
0.00693998
0.0069612
0.00684012
0.00663582
0.0063841
0.00610531
0.00581057
0.00550597
0.00519484
0.00487906
0.00455967
0.00423726
0.00391216
0.00358454
0.00325449
0.00292205
0.00258725
0.00225006
0.0019105
0.00156853
0.00122417
0.000877375
0.000528145
0.000176458
-0.118901
-0.121005
-0.118711
-0.117301
-0.121404
-0.114541
-0.109174
-0.112046
-0.10702
-0.106482
-0.118109
-0.121271
-0.127012
-0.13307
-0.125297
-0.108134
-0.0928711
-0.0923454
-0.102048
-0.113238
-0.13339
-0.15406
-0.154274
-0.122795
-0.064745
-0.0169533
-0.0238872
-0.106115
-0.177885
-0.214438
-0.236567
-0.20076
-0.104706
-0.0265298
0.00538571
0.0100095
0.00398837
-0.00252277
0.00303153
0.0191191
0.019564
-0.0154583
-0.0626119
-0.0689824
-0.0336715
0.00120583
0.0188452
0.0143482
0.00233884
-0.00960491
-0.0130142
-0.0105587
-0.0178813
-0.0269001
-0.0245324
-0.00986314
0.00659721
0.0153823
0.0148076
0.007027
-0.00956271
-0.0275672
-0.0317654
-0.0183984
-0.00211302
0.00782219
0.0100553
0.00789409
0.00479388
0.00271352
0.00210735
0.00266863
0.00384949
0.00510766
0.00608908
0.00668315
0.00694141
0.00696523
0.00684384
0.0066384
0.00638563
0.00610611
0.00581094
0.00550612
0.00519489
0.00487907
0.00455967
0.00423725
0.00391215
0.00358453
0.00325449
0.00292205
0.00258725
0.00225006
0.0019105
0.00156853
0.00122417
0.000877375
0.000528145
0.000176458
-0.118517
-0.119979
-0.118816
-0.116694
-0.1195
-0.114793
-0.10956
-0.110167
-0.107238
-0.105312
-0.112551
-0.118604
-0.123411
-0.127392
-0.125707
-0.11143
-0.0918245
-0.087921
-0.0979663
-0.110775
-0.131745
-0.153
-0.154776
-0.123831
-0.0676898
-0.0247466
-0.0299699
-0.104651
-0.174201
-0.213079
-0.234591
-0.197236
-0.100169
-0.0206262
0.0140402
0.0201768
0.0124003
0.00278264
0.00624871
0.0223597
0.0229674
-0.0126037
-0.0604711
-0.0672413
-0.0322552
0.00323095
0.021596
0.0176626
0.00679309
-0.00495074
-0.00884549
-0.00827616
-0.0176922
-0.0276808
-0.025259
-0.00981437
0.00742657
0.016572
0.0161253
0.00797555
-0.00929442
-0.0277405
-0.0319855
-0.0182981
-0.00163248
0.00862619
0.010886
0.00851472
0.00511969
0.00277548
0.00202642
0.00255785
0.00376363
0.00505748
0.00606713
0.006678
0.00694377
0.00696953
0.0068476
0.00664095
0.00638712
0.00610689
0.00581131
0.00550627
0.00519494
0.00487908
0.00455966
0.00423725
0.00391215
0.00358453
0.00325449
0.00292205
0.00258725
0.00225006
0.0019105
0.00156853
0.00122417
0.000877375
0.000528144
0.000176458
-0.118241
-0.119003
-0.118494
-0.116588
-0.117399
-0.114753
-0.110092
-0.108221
-0.107133
-0.103825
-0.107276
-0.115699
-0.120669
-0.122838
-0.125513
-0.113917
-0.0914268
-0.0847568
-0.0947605
-0.10878
-0.130023
-0.15112
-0.153791
-0.123132
-0.0696527
-0.0326105
-0.0360828
-0.101897
-0.169254
-0.210788
-0.231524
-0.19294
-0.0953853
-0.0147171
0.0222913
0.0296051
0.0200718
0.00762137
0.00916199
0.0252979
0.0263048
-0.00943604
-0.0578884
-0.0650839
-0.0304826
0.00550513
0.0241933
0.0208448
0.0110249
-0.000715722
-0.00501089
-0.00612884
-0.0172756
-0.0280827
-0.0256465
-0.00957655
0.00817701
0.0174963
0.0171781
0.00881098
-0.00892177
-0.0276633
-0.0319423
-0.018043
-0.00112965
0.00935565
0.0116029
0.00904065
0.00539321
0.00282394
0.00195689
0.00246686
0.0036949
0.00501805
0.00605048
0.00667488
0.00694663
0.00697375
0.00685112
0.00664329
0.00638846
0.00610757
0.00581162
0.0055064
0.00519499
0.0048791
0.00455966
0.00423725
0.00391215
0.00358453
0.00325449
0.00292205
0.00258725
0.00225006
0.0019105
0.00156853
0.00122417
0.000877375
0.000528144
0.000176458
-0.117946
-0.118105
-0.117804
-0.116695
-0.115482
-0.114378
-0.110686
-0.10643
-0.106714
-0.102908
-0.10261
-0.112686
-0.118605
-0.11946
-0.124952
-0.115643
-0.0916296
-0.0829228
-0.0925417
-0.10728
-0.128337
-0.148641
-0.151201
-0.120851
-0.0705074
-0.0400348
-0.0418613
-0.0981671
-0.163199
-0.207578
-0.227439
-0.187832
-0.0903914
-0.00886912
0.0300316
0.0381911
0.0269229
0.0119317
0.0117364
0.0278987
0.0295029
-0.00612168
-0.0550436
-0.0626698
-0.0284194
0.00794517
0.0265609
0.0238666
0.014946
0.00306643
-0.00157103
-0.00417578
-0.0166705
-0.0281257
-0.0257002
-0.00916464
0.0088312
0.0181693
0.0179754
0.00952645
-0.0084641
-0.0273668
-0.0316651
-0.0176494
-0.000612458
0.00999814
0.0121952
0.00946975
0.0056166
0.00286202
0.00190042
0.00239534
0.00364205
0.00498813
0.00603814
0.00667305
0.00694941
0.00697745
0.00685411
0.00664523
0.00638954
0.0061081
0.00581185
0.00550649
0.00519501
0.0048791
0.00455966
0.00423724
0.00391214
0.00358453
0.00325449
0.00292205
0.00258725
0.00225006
0.0019105
0.00156853
0.00122417
0.000877374
0.000528144
0.000176458
-0.117586
-0.11759
-0.116919
-0.11683
-0.113982
-0.113759
-0.111254
-0.104988
-0.106022
-0.102216
-0.0988228
-0.109753
-0.116999
-0.117138
-0.124189
-0.116675
-0.0923097
-0.082359
-0.0913046
-0.106262
-0.126774
-0.145818
-0.147765
-0.117276
-0.0702166
-0.0465049
-0.0469414
-0.0937582
-0.156235
-0.203534
-0.222372
-0.181883
-0.0852909
-0.00323082
0.0371623
0.0458771
0.0329062
0.0156728
0.0139401
0.0301235
0.0325142
-0.00277267
-0.0520772
-0.0601201
-0.0261468
0.0104477
0.0286542
0.0266992
0.0184493
0.00638014
0.00141579
-0.00247366
-0.0159356
-0.0278507
-0.025445
-0.00861026
0.00937621
0.0186159
0.0185353
0.0101166
-0.00794532
-0.0268872
-0.031188
-0.0171387
-9.26237e-05
0.0105412
0.0126576
0.00980496
0.00579441
0.00289362
0.00185854
0.00234258
0.00360341
0.00496612
0.00602891
0.00667163
0.00695149
0.00698023
0.00685632
0.00664661
0.00639027
0.00610843
0.00581198
0.00550652
0.00519502
0.00487909
0.00455965
0.00423724
0.00391214
0.00358452
0.00325448
0.00292205
0.00258725
0.00225006
0.0019105
0.00156853
0.00122417
0.000877374
0.000528144
0.000176458
-0.117163
-0.117251
-0.116053
-0.116899
-0.11294
-0.113037
-0.111732
-0.103991
-0.105173
-0.101691
-0.0960774
-0.107114
-0.115641
-0.115651
-0.123299
-0.117045
-0.093281
-0.0828452
-0.0909175
-0.105679
-0.125415
-0.142938
-0.143604
-0.112595
-0.0688686
-0.0515744
-0.0509999
-0.0886645
-0.148645
-0.198645
-0.216476
-0.175153
-0.0802083
0.00200597
0.0436124
0.0526403
0.0380054
0.0188277
0.0157474
0.0319178
0.0352292
0.00063322
-0.0490761
-0.0574647
-0.0237509
0.0128902
0.0304724
0.0293154
0.0214259
0.00921629
0.0038977
-0.0010701
-0.0151462
-0.0273295
-0.0249367
-0.00796462
0.00980653
0.0188706
0.0188849
0.0105786
-0.00739551
-0.0262663
-0.0305494
-0.0165379
0.000413072
0.0109735
0.0129918
0.0100533
0.00593267
0.00292317
0.00183269
0.00230894
0.00357709
0.00495028
0.00602151
0.00666977
0.00695232
0.00698174
0.00685757
0.00664738
0.00639065
0.00610858
0.00581201
0.00550652
0.005195
0.00487908
0.00455964
0.00423723
0.00391214
0.00358452
0.00325448
0.00292205
0.00258725
0.00225006
0.0019105
0.00156853
0.00122417
0.000877374
0.000528144
0.000176458
-0.116722
-0.117026
-0.115359
-0.116865
-0.112283
-0.112357
-0.112037
-0.103427
-0.104333
-0.101274
-0.0944072
-0.104982
-0.11442
-0.114769
-0.122351
-0.116818
-0.0943186
-0.0840226
-0.0911544
-0.105461
-0.124321
-0.140121
-0.1393
-0.107543
-0.0662519
-0.0549805
-0.0538357
-0.0827869
-0.140847
-0.192952
-0.209999
-0.167949
-0.0750687
0.00663525
0.0493559
0.0584841
0.042225
0.0214017
0.0171374
0.0332237
0.0374408
0.00412233
-0.046021
-0.054645
-0.0213343
0.0151298
0.032051
0.0316896
0.0237884
0.0115622
0.00583915
5.67232e-06
-0.0143838
-0.0266648
-0.0242696
-0.00729611
0.0101254
0.0189753
0.0190587
0.0109122
-0.00685075
-0.0255545
-0.0297959
-0.0158842
0.000881477
0.0112865
0.0132069
0.0102246
0.0060381
0.00295491
0.00182386
0.00229059
0.00356112
0.00493891
0.0060148
0.00666677
0.00695155
0.00698187
0.00685785
0.00664755
0.0063907
0.00610855
0.00581197
0.00550647
0.00519497
0.00487906
0.00455963
0.00423722
0.00391213
0.00358452
0.00325448
0.00292205
0.00258725
0.00225006
0.0019105
0.00156853
0.00122417
0.000877374
0.000528144
0.000176458
-0.116326
-0.116853
-0.114903
-0.116724
-0.111924
-0.111827
-0.11212
-0.103213
-0.103649
-0.100952
-0.0937081
-0.103501
-0.11334
-0.114286
-0.121435
-0.116154
-0.0951148
-0.0854811
-0.0917474
-0.105526
-0.123409
-0.137582
-0.135188
-0.102626
-0.0627271
-0.0566496
-0.0554449
-0.0765179
-0.133113
-0.186702
-0.203407
-0.160834
-0.0701743
0.0104781
0.0543854
0.063425
0.0455792
0.0234297
0.018104
0.0340086
0.0389378
0.00746072
-0.0428295
-0.0514948
-0.018966
0.0169985
0.0334324
0.0337737
0.025511
0.0133986
0.00723268
0.00075097
-0.013717
-0.0259732
-0.0235631
-0.00667685
0.0103452
0.0189767
0.0190969
0.0111208
-0.00635196
-0.0248126
-0.0289894
-0.0152316
0.00128249
0.0114785
0.0133193
0.01033
0.00611683
0.00299152
0.00183161
0.00228669
0.00355348
0.00493064
0.00600804
0.00666236
0.00694915
0.0069807
0.00685729
0.00664724
0.0063905
0.00610841
0.00581186
0.0055064
0.00519492
0.00487903
0.00455961
0.00423721
0.00391213
0.00358452
0.00325448
0.00292205
0.00258724
0.00225006
0.0019105
0.00156853
0.00122417
0.000877374
0.000528144
0.000176458
-0.116027
-0.116699
-0.11468
-0.11651
-0.111786
-0.111499
-0.112
-0.103261
-0.103209
-0.100719
-0.0937456
-0.102692
-0.112449
-0.114018
-0.120642
-0.115271
-0.0957061
-0.0868822
-0.0925386
-0.105662
-0.122682
-0.135453
-0.131539
-0.0983211
-0.0588428
-0.0568297
-0.0559254
-0.0709101
-0.125694
-0.180261
-0.1973
-0.154626
-0.0661574
0.0136196
0.0586868
0.0675049
0.0480909
0.0249645
0.018681
0.0343172
0.0396424
0.010269
-0.0397281
-0.0480987
-0.0167488
0.0183968
0.0346184
0.0354468
0.0266572
0.0147031
0.00810717
0.00118991
-0.0131834
-0.025351
-0.0229195
-0.00616171
0.0104873
0.0189221
0.0190434
0.0112111
-0.0059412
-0.0241126
-0.0282165
-0.0146508
0.00158486
0.011561
0.0133497
0.0103807
0.00617319
0.00303251
0.00185298
0.00229429
0.00355215
0.00492459
0.00600111
0.00665681
0.00694552
0.0069786
0.00685614
0.00664661
0.00639014
0.0061082
0.00581173
0.00550632
0.00519487
0.004879
0.0045596
0.00423721
0.00391212
0.00358451
0.00325448
0.00292205
0.00258724
0.00225006
0.0019105
0.00156853
0.00122417
0.000877374
0.000528144
0.000176458
-0.11585
-0.116558
-0.114642
-0.116276
-0.111798
-0.111364
-0.111756
-0.103479
-0.103017
-0.100552
-0.094208
-0.102428
-0.111793
-0.113841
-0.120043
-0.1144
-0.0961611
-0.0882559
-0.0932612
-0.105843
-0.122165
-0.133842
-0.128662
-0.0950789
-0.0552608
-0.0559912
-0.0556276
-0.0669408
-0.11935
-0.1742
-0.191973
-0.149743
-0.0632357
0.0162176
0.0623067
0.0706265
0.0498361
0.0260706
0.0189478
0.0342687
0.039701
0.0120377
-0.0371027
-0.0453622
-0.0149823
0.0193897
0.0355804
0.0365617
0.0273639
0.0154776
0.00854049
0.00136868
-0.0127966
-0.0248565
-0.0223928
-0.00577391
0.0105763
0.0188499
0.0189407
0.0111978
-0.00565897
-0.0235315
-0.0275695
-0.0142041
0.00177371
0.0115596
0.0133218
0.010389
0.00620922
0.003073
0.00188178
0.00230905
0.00355519
0.00492051
0.00599467
0.00665102
0.00694145
0.00697612
0.00685475
0.00664586
0.00638974
0.00610797
0.00581161
0.00550625
0.00519483
0.00487897
0.00455958
0.0042372
0.00391212
0.00358451
0.00325448
0.00292205
0.00258724
0.00225006
0.0019105
0.00156853
0.00122417
0.000877374
0.000528144
0.000176458
-0.115793
-0.116443
-0.114713
-0.116083
-0.111858
-0.111374
-0.111496
-0.103745
-0.103007
-0.10042
-0.0947216
-0.102492
-0.11141
-0.113726
-0.119648
-0.113745
-0.0964213
-0.0889719
-0.0937913
-0.106012
-0.121881
-0.132814
-0.126888
-0.093256
-0.0527315
-0.0550796
-0.0550666
-0.0651882
-0.115394
-0.169403
-0.187554
-0.146115
-0.0611291
0.0184504
0.0650082
0.0725741
0.0509081
0.0267774
0.0190828
0.0341016
0.0393793
0.0127728
-0.0353368
-0.0435283
-0.0137734
0.0200452
0.0362298
0.0370865
0.0276741
0.0157985
0.00866772
0.00135339
-0.0125718
-0.0245337
-0.0220122
-0.00551139
0.0106366
0.0187854
0.0188314
0.0111058
-0.00554611
-0.023146
-0.0271017
-0.0139218
0.00186914
0.0115145
0.0132664
0.0103698
0.00622383
0.00310311
0.00190852
0.00232463
0.00356082
0.00491906
0.00599031
0.00664663
0.00693819
0.00697408
0.0068536
0.00664524
0.00638941
0.0061078
0.00581151
0.00550619
0.0051948
0.00487896
0.00455957
0.00423719
0.00391211
0.00358451
0.00325448
0.00292205
0.00258724
0.00225006
0.0019105
0.00156853
0.00122417
0.000877374
0.000528144
0.000176458
-0.11582
-0.116376
-0.114838
-0.115995
-0.111894
-0.111462
-0.111347
-0.103833
-0.103097
-0.100344
-0.0950344
-0.102697
-0.111279
-0.113719
-0.119456
-0.113327
-0.0964788
-0.0893429
-0.094106
-0.106161
-0.12184
-0.132373
-0.126118
-0.0922942
-0.0518511
-0.0546265
-0.0548906
-0.0662246
-0.114327
-0.167251
-0.185096
-0.143975
-0.0598348
0.0198235
0.0664641
0.073366
0.0511428
0.0270123
0.0191962
0.034078
0.0386408
0.0124738
-0.0345392
-0.0425968
-0.0130956
0.0204318
0.036528
0.0371883
0.027584
0.0157556
0.00859313
0.0011836
-0.0125257
-0.0244408
-0.0217049
-0.00537031
0.0107168
0.0187718
0.0187632
0.0109256
-0.00564206
-0.0230184
-0.0268565
-0.0137446
0.00193486
0.0114959
0.0132266
0.0103321
0.00621133
0.00310999
0.0019208
0.00233979
0.00356874
0.00492221
0.0059907
0.00664594
0.00693737
0.00697348
0.00685323
0.00664504
0.0063893
0.00610774
0.00581147
0.00550617
0.00519479
0.00487895
0.00455957
0.00423719
0.00391211
0.00358451
0.00325448
0.00292205
0.00258724
0.00225006
0.0019105
0.00156853
0.00122417
0.000877374
0.000528144
0.000176458
-0.122406
-0.121646
-0.121793
-0.121445
-0.118706
-0.120904
-0.118431
-0.121738
-0.121432
-0.124371
-0.130536
-0.136152
-0.135186
-0.126027
-0.122841
-0.113159
-0.135019
-0.147247
-0.162627
-0.168002
-0.123291
-0.116317
-0.103095
-0.030132
0.0245542
0.0437385
0.0480022
0.0332825
0.00534438
-0.0105648
-0.020098
-0.0379374
-0.0478408
-0.0549662
-0.0843076
-0.100325
-0.0909044
-0.0628698
-0.0266497
0.0136139
0.0531161
0.0621768
0.0431816
0.0225515
0.0131252
0.017831
0.0156449
-0.00327478
-0.0404079
-0.0610758
-0.049023
-0.00395792
0.0304017
0.0384787
0.0322154
0.0191123
0.000636979
-0.015676
-0.0187623
-0.00330896
0.0127064
0.0171666
0.0112617
0.00200781
-0.00450362
-0.00604238
-0.00516322
-0.00365115
-0.00156079
0.00108116
0.00357381
0.00533756
0.00631503
0.0067786
0.00698606
0.00706864
0.00706678
0.00698831
0.00684001
0.00663441
0.00638665
0.00611044
0.00581618
0.00551075
0.00519839
0.00488145
0.00456117
0.00423816
0.00391268
0.00358482
0.00325463
0.00292212
0.00258726
0.00225007
0.00191049
0.00156854
0.00122417
0.000877379
0.000528144
0.000176459
-0.122437
-0.121662
-0.121753
-0.121476
-0.118729
-0.120922
-0.118479
-0.121699
-0.121346
-0.124371
-0.130651
-0.136245
-0.135364
-0.126785
-0.123048
-0.112801
-0.13536
-0.147723
-0.16301
-0.169533
-0.124674
-0.115818
-0.104805
-0.0321644
0.0237409
0.0432569
0.0470439
0.0327587
0.00468164
-0.0105037
-0.0196819
-0.0379606
-0.0479977
-0.0545354
-0.0845837
-0.101101
-0.0918138
-0.0633397
-0.027167
0.0129021
0.0523788
0.0622401
0.0432429
0.0224669
0.0129765
0.0177765
0.0158483
-0.0028772
-0.040733
-0.0617499
-0.0498568
-0.00461057
0.0301751
0.0385046
0.0323392
0.0192652
0.000676789
-0.0158233
-0.0191336
-0.00349191
0.0126788
0.0172507
0.0113556
0.00203058
-0.0045369
-0.00607168
-0.00517395
-0.00366371
-0.00157909
0.00106656
0.00356887
0.00533778
0.00631611
0.006779
0.00698599
0.00706854
0.00706683
0.00698847
0.0068402
0.00663457
0.00638677
0.00611052
0.00581622
0.00551078
0.00519841
0.00488146
0.00456118
0.00423816
0.00391268
0.00358482
0.00325463
0.00292212
0.00258726
0.00225007
0.00191049
0.00156854
0.00122417
0.000877379
0.000528144
0.000176459
-0.12248
-0.121697
-0.121777
-0.121514
-0.118735
-0.12092
-0.118536
-0.121723
-0.121213
-0.124264
-0.131051
-0.13676
-0.135875
-0.128048
-0.123096
-0.112031
-0.139118
-0.15003
-0.163555
-0.171709
-0.126557
-0.115333
-0.108062
-0.0354516
0.0221133
0.0421402
0.0452461
0.0300531
0.00214118
-0.0124157
-0.0202814
-0.0381422
-0.0481081
-0.0542462
-0.085696
-0.102899
-0.0932355
-0.0641738
-0.0281344
0.01142
0.0503934
0.0618583
0.0426121
0.0220183
0.012816
0.0178304
0.016127
-0.00323669
-0.041697
-0.0632642
-0.0515072
-0.00593074
0.0296624
0.0384756
0.0323107
0.0191886
0.000449081
-0.0162103
-0.0195919
-0.00384977
0.012668
0.0173653
0.0113872
0.00196138
-0.00464471
-0.00613427
-0.00518976
-0.00367831
-0.00159917
0.00105566
0.00357139
0.00534485
0.00632137
0.00678149
0.00698715
0.00706949
0.00706785
0.00698946
0.00684103
0.00663517
0.00638716
0.00611075
0.00581635
0.00551085
0.00519844
0.00488147
0.00456118
0.00423816
0.00391268
0.00358482
0.00325463
0.00292212
0.00258726
0.00225007
0.00191049
0.00156854
0.00122417
0.000877379
0.000528144
0.000176459
-0.12254
-0.121757
-0.121843
-0.121563
-0.118731
-0.120912
-0.118578
-0.121756
-0.120995
-0.124044
-0.131502
-0.137526
-0.13674
-0.129717
-0.122794
-0.110633
-0.145562
-0.153854
-0.164055
-0.172971
-0.128173
-0.115116
-0.112111
-0.0396194
0.0197396
0.0401442
0.0425804
0.0255406
-0.00217853
-0.0163311
-0.0221204
-0.0386691
-0.0480618
-0.0540626
-0.0874339
-0.105478
-0.095157
-0.0653824
-0.0292921
0.00940841
0.0472308
0.0607138
0.0413293
0.0211622
0.0126186
0.0179589
0.016436
-0.00413182
-0.0432858
-0.0654032
-0.0538741
-0.00789133
0.0286915
0.0383071
0.0321414
0.0188896
-6.84318e-06
-0.0167778
-0.0202478
-0.0044565
0.0125506
0.0174298
0.0113326
0.00180682
-0.00480231
-0.00620986
-0.0052039
-0.00369456
-0.00162381
0.0010426
0.00357388