/*--------------------------------*- C++ -*----------------------------------*\
| =========                 |                                                 |
| \\      /  F ield         | OpenFOAM: The Open Source CFD Toolbox           |
|  \\    /   O peration     | Version:  2.4.0                                 |
|   \\  /    A nd           | Web:      www.OpenFOAM.org                      |
|    \\/     M anipulation  |                                                 |
\*---------------------------------------------------------------------------*/
FoamFile
{
    version     2.0;
    format      ascii;
    class       volVectorField;
    location    "66";
    object      U;
}
// * * * * * * * * * * * * * * * * * * * * * * * * * * * * * * * * * * * * * //

dimensions      [0 1 -1 0 0 0 0];

internalField   nonuniform List<vector> 
4400
(
(0.106792 -0.00107801 0)
(0.103548 0.000766491 0)
(0.0810631 0.00238697 0)
(0.0913904 -0.00245069 0)
(0.111192 -0.00136231 0)
(0.0992016 0.00239993 0)
(0.0994303 -0.00115366 0)
(0.0989158 0.000182056 0)
(0.0940187 0.00128393 0)
(0.101134 -0.00196209 0)
(0.101615 0.00121789 0)
(0.0968097 0.000364815 0)
(0.106184 -0.00158891 0)
(0.101281 0.00147791 0)
(0.100678 -0.000423609 0)
(0.103881 -0.00078844 0)
(0.105161 0.000853157 0)
(0.106851 -0.0013225 0)
(0.11254 0.000708328 0)
(0.120751 -6.43764e-05 0)
(0.290661 -0.00330995 0)
(0.273392 0.00279786 0)
(0.260293 0.00695984 0)
(0.28019 -0.00856939 0)
(0.287401 -0.00356369 0)
(0.277639 0.0074328 0)
(0.285797 -0.00385713 0)
(0.268832 0.000788608 0)
(0.281058 0.00348641 0)
(0.282462 -0.00636954 0)
(0.277777 0.00388002 0)
(0.285812 0.00013637 0)
(0.285844 -0.00450967 0)
(0.280892 0.00444147 0)
(0.286223 -0.00147924 0)
(0.285655 -0.00262161 0)
(0.284282 0.00240874 0)
(0.307487 -0.00305761 0)
(0.270081 -0.00279208 0)
(0.357867 0.00760955 0)
(0.45512 -0.0054789 0)
(0.42364 0.00572459 0)
(0.426305 0.010499 0)
(0.453274 -0.0155002 0)
(0.440057 -0.00421014 0)
(0.441161 0.0119863 0)
(0.457903 -0.00651741 0)
(0.418077 0.00204265 0)
(0.452043 0.00439321 0)
(0.448024 -0.0104064 0)
(0.428603 0.00662693 0)
(0.465764 -0.00107905 0)
(0.438446 -0.00657728 0)
(0.449248 0.00761489 0)
(0.44821 -0.00344595 0)
(0.453873 -0.00289082 0)
(0.433858 0.0013351 0)
(0.490087 -0.00195054 0)
(0.411851 -0.00851984 0)
(0.529597 0.0110156 0)
(0.602833 -0.00690852 0)
(0.55161 0.00861317 0)
(0.561965 0.0122336 0)
(0.612585 -0.0210952 0)
(0.573788 -0.00361709 0)
(0.582321 0.0150948 0)
(0.616443 -0.00792753 0)
(0.549396 0.00407584 0)
(0.595142 0.00384613 0)
(0.604352 -0.0123301 0)
(0.549382 0.00844721 0)
(0.627864 -0.00232969 0)
(0.572954 -0.00754044 0)
(0.59327 0.0100772 0)
(0.594914 -0.00506959 0)
(0.600466 -0.00214476 0)
(0.568373 0.000184166 0)
(0.638224 -0.00239507 0)
(0.558598 -0.00914405 0)
(0.647994 0.0062017 0)
(0.731256 -0.00815635 0)
(0.671809 0.0142591 0)
(0.658612 0.0102446 0)
(0.739161 -0.0290258 0)
(0.692882 -0.000482107 0)
(0.691623 0.0156603 0)
(0.752568 -0.00941707 0)
(0.670088 0.00915877 0)
(0.700967 0.000167122 0)
(0.742552 -0.0127214 0)
(0.649967 0.0111386 0)
(0.750739 -0.00648586 0)
(0.694404 -0.00638352 0)
(0.705846 0.0117388 0)
(0.715294 -0.00804264 0)
(0.723807 -0.000214071 0)
(0.683489 -4.64772e-05 0)
(0.75268 -0.00578129 0)
(0.691463 -0.00549022 0)
(0.740516 -0.00136507 0)
(0.830871 -0.0112038 0)
(0.786688 0.0230137 0)
(0.743542 0.00953752 0)
(0.826409 -0.0407099 0)
(0.793938 0.00378364 0)
(0.774309 0.0148751 0)
(0.851362 -0.014241 0)
(0.779783 0.0174281 0)
(0.782191 -0.00458537 0)
(0.848727 -0.0142441 0)
(0.742139 0.0163264 0)
(0.836261 -0.0130432 0)
(0.793497 -0.00513447 0)
(0.795819 0.0140832 0)
(0.805297 -0.0122893 0)
(0.819824 0.00113846 0)
(0.778181 0.00153151 0)
(0.837566 -0.0116445 0)
(0.796965 -0.000491416 0)
(0.816975 -0.00774933 0)
(0.903926 -0.015456 0)
(0.879082 0.0316118 0)
(0.828406 0.0123675 0)
(0.893407 -0.052409 0)
(0.87615 0.00853595 0)
(0.843907 0.0150583 0)
(0.917374 -0.0218713 0)
(0.867443 0.0263053 0)
(0.851955 -0.00833422 0)
(0.924536 -0.0170321 0)
(0.82539 0.023427 0)
(0.900669 -0.0195063 0)
(0.870523 -0.00428735 0)
(0.868257 0.0170693 0)
(0.874657 -0.016451 0)
(0.891363 0.001537 0)
(0.854528 0.00424872 0)
(0.900997 -0.0182567 0)
(0.876339 0.00457248 0)
(0.87878 -0.0124192 0)
(0.955832 -0.0194838 0)
(0.943115 0.0384116 0)
(0.902672 0.0164808 0)
(0.945628 -0.0622217 0)
(0.93863 0.0130908 0)
(0.904206 0.0163504 0)
(0.961815 -0.0297971 0)
(0.930315 0.034182 0)
(0.910414 -0.0108579 0)
(0.97349 -0.0205221 0)
(0.894148 0.0307505 0)
(0.949064 -0.0249229 0)
(0.928114 -0.00351857 0)
(0.924602 0.020124 0)
(0.927988 -0.0197984 0)
(0.942536 0.00144383 0)
(0.913893 0.00719972 0)
(0.947218 -0.0240434 0)
(0.933252 0.00847035 0)
(0.927325 -0.0143464 0)
(0.988074 -0.0225109 0)
(0.981324 0.0431085 0)
(0.95867 0.0201428 0)
(0.98007 -0.0691199 0)
(0.97969 0.0168989 0)
(0.951531 0.01799 0)
(0.988626 -0.0360064 0)
(0.970448 0.0402212 0)
(0.95481 -0.0122932 0)
(0.998017 -0.0237419 0)
(0.944604 0.0368743 0)
(0.980091 -0.0289411 0)
(0.965366 -0.00291167 0)
(0.964081 0.0225406 0)
(0.964422 -0.0220944 0)
(0.974755 0.00121906 0)
(0.955764 0.00949369 0)
(0.977061 -0.0279549 0)
(0.968699 0.0104583 0)
(0.962639 -0.0137955 0)
(1.00041 -0.024096 0)
(0.996765 0.0454983 0)
(0.994222 0.0224745 0)
(0.995158 -0.0721908 0)
(0.999381 0.0194852 0)
(0.9822 0.0192249 0)
(0.997615 -0.0392223 0)
(0.989589 0.0437147 0)
(0.982823 -0.0125977 0)
(1.00089 -0.0256951 0)
(0.97549 0.0407903 0)
(0.993351 -0.0310614 0)
(0.981662 -0.00236431 0)
(0.986307 0.023789 0)
(0.982133 -0.0231141 0)
(0.988596 0.00105701 0)
(0.979165 0.0105624 0)
(0.990141 -0.0293685 0)
(0.983217 0.0104872 0)
(0.983312 -0.0119331 0)
(0.992541 -0.0240053 0)
(0.991661 0.0455003 0)
(1.00901 0.0228113 0)
(0.990571 -0.071167 0)
(0.998384 0.0203196 0)
(0.994056 0.0194817 0)
(0.987762 -0.0388321 0)
(0.988842 0.0442 0)
(0.992439 -0.0118577 0)
(0.983953 -0.0257367 0)
(0.986656 0.0416628 0)
(0.988972 -0.0309404 0)
(0.977411 -0.00164205 0)
(0.991434 0.023517 0)
(0.980086 -0.0226358 0)
(0.984617 0.00106159 0)
(0.98361 0.0101894 0)
(0.985436 -0.0282602 0)
(0.978098 0.00898315 0)
(0.987258 -0.00977448 0)
(0.964385 -0.0222404 0)
(0.967884 0.0430713 0)
(1.00303 0.0211934 0)
(0.966105 -0.0662415 0)
(0.977102 0.0190939 0)
(0.985761 0.0187792 0)
(0.957679 -0.0349941 0)
(0.968997 0.0416399 0)
(0.981722 -0.0104795 0)
(0.948209 -0.0237702 0)
(0.978603 0.0391228 0)
(0.966314 -0.0285855 0)
(0.953814 -0.00109923 0)
(0.979295 0.0216493 0)
(0.957863 -0.0206172 0)
(0.96345 0.000925039 0)
(0.968876 0.00876248 0)
(0.961848 -0.02526 0)
(0.955456 0.00648103 0)
(0.972035 -0.0076983 0)
(0.916085 -0.0190579 0)
(0.927443 0.0383074 0)
(0.976071 0.0181109 0)
(0.920856 -0.0580179 0)
(0.93605 0.0161333 0)
(0.955726 0.0171955 0)
(0.905886 -0.0285696 0)
(0.931555 0.0362958 0)
(0.948484 -0.00855772 0)
(0.89547 -0.0204751 0)
(0.952462 0.0335251 0)
(0.924184 -0.0243785 0)
(0.91333 -0.00109945 0)
(0.948965 0.018533 0)
(0.915701 -0.0173341 0)
(0.926004 0.000252159 0)
(0.934606 0.00689988 0)
(0.919245 -0.0212271 0)
(0.917389 0.00341747 0)
(0.935446 -0.00571888 0)
(0.848136 -0.0149565 0)
(0.872923 0.0313034 0)
(0.926827 0.0143849 0)
(0.853168 -0.0474099 0)
(0.877092 0.0118827 0)
(0.900941 0.0155637 0)
(0.832838 -0.020728 0)
(0.880202 0.0287055 0)
(0.891247 -0.00599224 0)
(0.830391 -0.0169197 0)
(0.909264 0.0259128 0)
(0.861946 -0.0188364 0)
(0.859059 -0.00185106 0)
(0.898869 0.0149573 0)
(0.854759 -0.0131971 0)
(0.873259 -0.00105999 0)
(0.880229 0.00525841 0)
(0.859054 -0.017005 0)
(0.864114 0.000436882 0)
(0.8766 -0.00375324 0)
(0.762378 -0.0108257 0)
(0.806459 0.0224125 0)
(0.850395 0.0114952 0)
(0.76281 -0.0360136 0)
(0.803887 0.00656882 0)
(0.81831 0.0150824 0)
(0.745947 -0.0136465 0)
(0.818815 0.0193999 0)
(0.810342 -0.00279444 0)
(0.758433 -0.0144591 0)
(0.845958 0.0179751 0)
(0.779477 -0.0125732 0)
(0.791747 -0.00343129 0)
(0.826328 0.0117921 0)
(0.776476 -0.00892549 0)
(0.804267 -0.00279994 0)
(0.804332 0.00425803 0)
(0.782398 -0.013217 0)
(0.792341 -0.00185116 0)
(0.796287 -0.0019539 0)
(0.663652 -0.0080457 0)
(0.721372 0.0135298 0)
(0.738702 0.0112771 0)
(0.656905 -0.026249 0)
(0.716298 0.000825625 0)
(0.709208 0.0154244 0)
(0.656545 -0.00981487 0)
(0.738364 0.0104928 0)
(0.705332 0.000908401 0)
(0.676752 -0.0134622 0)
(0.751552 0.011965 0)
(0.677176 -0.00663816 0)
(0.706125 -0.00542915 0)
(0.726178 0.00969327 0)
(0.680654 -0.00542323 0)
(0.713417 -0.00433153 0)
(0.704279 0.00397817 0)
(0.687436 -0.0101262 0)
(0.696813 -0.00312018 0)
(0.694847 -0.000619995 0)
(0.552596 -0.00699153 0)
(0.600592 0.00816097 0)
(0.599092 0.0125652 0)
(0.546633 -0.0197957 0)
(0.601272 -0.00306227 0)
(0.579315 0.0151088 0)
(0.558015 -0.0084366 0)
(0.61719 0.00551092 0)
(0.579338 0.00386956 0)
(0.571962 -0.0125047 0)
(0.618447 0.00884777 0)
(0.558247 -0.00251896 0)
(0.591883 -0.00661997 0)
(0.595949 0.00867651 0)
(0.5663 -0.00319948 0)
(0.594006 -0.00488006 0)
(0.579842 0.00393208 0)
(0.570562 -0.00763817 0)
(0.574202 -0.00329476 0)
(0.570695 0.000365174 0)
(0.418837 -0.00560683 0)
(0.448196 0.00567958 0)
(0.452845 0.0107227 0)
(0.421924 -0.0144798 0)
(0.448499 -0.00331578 0)
(0.434624 0.0125625 0)
(0.430556 -0.00665158 0)
(0.459694 0.00339918 0)
(0.439855 0.00416547 0)
(0.434604 -0.00989487 0)
(0.458806 0.00667806 0)
(0.424019 -0.000654988 0)
(0.446221 -0.00597893 0)
(0.444867 0.00705144 0)
(0.432223 -0.00210589 0)
(0.446193 -0.00413432 0)
(0.434993 0.00340443 0)
(0.429868 -0.00532628 0)
(0.427288 -0.00261907 0)
(0.425117 0.000839566 0)
(0.260994 -0.00331922 0)
(0.279179 0.00285803 0)
(0.294599 0.00691563 0)
(0.271097 -0.00809045 0)
(0.271511 -0.00297347 0)
(0.275527 0.00781534 0)
(0.274966 -0.0040458 0)
(0.285599 0.00137167 0)
(0.283109 0.00331413 0)
(0.272853 -0.00598834 0)
(0.285587 0.0037432 0)
(0.271866 0.000439522 0)
(0.278056 -0.00430083 0)
(0.278722 0.00433963 0)
(0.276519 -0.000967534 0)
(0.277516 -0.002755 0)
(0.27333 0.00238847 0)
(0.268936 -0.00292995 0)
(0.262988 -0.00167449 0)
(0.262053 0.00103804 0)
(0.0852621 -0.000992917 0)
(0.0921641 0.00075489 0)
(0.113037 0.00224321 0)
(0.101311 -0.00246683 0)
(0.0851069 -0.00133363 0)
(0.0974576 0.00242613 0)
(0.0989688 -0.00132872 0)
(0.0976441 0.000300041 0)
(0.105341 0.00126575 0)
(0.0959834 -0.00191573 0)
(0.0982206 0.00109301 0)
(0.100147 0.000360164 0)
(0.0944828 -0.0015034 0)
(0.0963439 0.0014099 0)
(0.100705 -0.000265087 0)
(0.0952647 -0.000915726 0)
(0.0956542 0.000858607 0)
(0.093854 -0.000868262 0)
(0.0872597 -0.000491414 0)
(0.0877692 0.000558035 0)
(0.0602649 -0.00425731 0)
(0.314407 -0.0130492 0)
(-0.0611076 0.00920855 0)
(0.369532 -0.0272562 0)
(0.235937 0.0069404 0)
(0.168073 -0.0368669 0)
(0.385177 -0.0109812 0)
(0.190151 -0.000161277 0)
(0.415975 -0.0520866 0)
(0.253484 0.0344381 0)
(0.473632 0.00734077 0)
(0.469967 -0.00235371 0)
(0.538145 -0.0606197 0)
(0.71864 -0.156005 0)
(0.753775 -0.182855 0)
(0.65938 -0.025972 0)
(0.767889 -0.0307427 0)
(0.868119 -0.151193 0)
(0.845757 -0.15416 0)
(0.945701 -0.187931 0)
(0.947909 -0.240679 0)
(0.925687 -0.195691 0)
(0.904638 -0.153387 0)
(0.787984 -0.134971 0)
(0.60409 -0.0485371 0)
(0.3968 -0.0329978 0)
(0.338129 -0.195835 0)
(0.35695 -0.256826 0)
(0.538307 -0.0952352 0)
(0.528401 0.00546595 0)
(0.542161 0.123143 0)
(0.712084 0.35468 0)
(0.788949 0.445551 0)
(0.703336 0.384094 0)
(0.637448 0.266571 0)
(0.591494 0.13637 0)
(0.552225 -0.018528 0)
(0.531578 -0.106935 0)
(0.516145 -0.138003 0)
(0.476513 -0.211402 0)
(0.452145 -0.279166 0)
(0.433513 -0.273281 0)
(0.458869 -0.132475 0)
(0.516841 0.102557 0)
(0.53538 0.209962 0)
(0.515241 0.211523 0)
(0.449369 0.215113 0)
(0.48831 0.161612 0)
(0.497857 0.0989157 0)
(0.515492 0.00263855 0)
(0.58055 -0.147738 0)
(0.578908 -0.230322 0)
(0.540883 -0.197907 0)
(0.49661 -0.0900937 0)
(0.491901 0.032643 0)
(0.516702 0.104928 0)
(0.513716 0.113287 0)
(0.512563 0.0514135 0)
(0.531589 -0.0482043 0)
(0.532936 -0.114958 0)
(0.512211 -0.121422 0)
(0.505945 -0.0596563 0)
(0.528051 0.0392198 0)
(0.54025 0.09975 0)
(0.531654 0.0991032 0)
(0.511234 0.0699762 0)
(0.49217 0.0373095 0)
(0.485824 0.00600061 0)
(0.488676 -0.0181526 0)
(0.491179 -0.0285972 0)
(0.489438 -0.0263145 0)
(0.483694 -0.0180044 0)
(0.475014 -0.00984973 0)
(0.464729 -0.00453872 0)
(0.454213 -0.00198109 0)
(0.444515 -0.001091 0)
(0.436236 -0.000913692 0)
(0.429598 -0.000916907 0)
(0.424556 -0.000893665 0)
(0.420911 -0.000803571 0)
(0.418391 -0.000667365 0)
(0.416722 -0.000516686 0)
(0.415661 -0.000375934 0)
(0.415012 -0.000258586 0)
(0.41463 -0.00016889 0)
(0.414412 -0.000105092 0)
(0.414293 -6.24756e-05 0)
(0.41423 -3.55656e-05 0)
(0.414197 -1.9429e-05 0)
(0.414181 -1.02013e-05 0)
(0.414173 -5.1626e-06 0)
(0.41417 -2.51398e-06 0)
(0.414168 -1.19263e-06 0)
(0.414167 -5.3624e-07 0)
(0.414167 -2.43498e-07 0)
(0.414167 -9.85394e-08 0)
(0.414167 -4.60518e-08 0)
(0.414167 -1.32584e-08 0)
(0.414167 -7.59982e-09 0)
(0.414167 -9.02043e-10 0)
(0.195858 -0.0180761 0)
(0.483209 -0.00919931 0)
(0.173515 0.013686 0)
(0.411143 -0.05299 0)
(0.388147 0.0131704 0)
(0.336035 -0.0373002 0)
(0.48253 -0.0209815 0)
(0.353532 0.0030629 0)
(0.529691 -0.0571294 0)
(0.356381 0.0270669 0)
(0.571214 -0.0121951 0)
(0.605766 -0.0216941 0)
(0.652994 -0.0673814 0)
(0.817587 -0.169354 0)
(0.826476 -0.188646 0)
(0.740717 -0.0336875 0)
(0.844351 -0.0405169 0)
(0.906857 -0.15266 0)
(0.885318 -0.161305 0)
(0.965406 -0.197416 0)
(0.939081 -0.238951 0)
(0.911005 -0.188765 0)
(0.87223 -0.1397 0)
(0.748032 -0.107122 0)
(0.554918 -0.0130386 0)
(0.360501 -0.0160203 0)
(0.275677 -0.197595 0)
(0.325733 -0.264563 0)
(0.46846 -0.110233 0)
(0.480976 5.85888e-05 0)
(0.494892 0.11318 0)
(0.664414 0.337777 0)
(0.761072 0.439225 0)
(0.706614 0.38899 0)
(0.65836 0.276666 0)
(0.617793 0.146803 0)
(0.577225 -0.0128483 0)
(0.552027 -0.104176 0)
(0.532017 -0.133035 0)
(0.484217 -0.2062 0)
(0.448949 -0.278092 0)
(0.419924 -0.272514 0)
(0.437528 -0.134331 0)
(0.489443 0.0978669 0)
(0.517446 0.207102 0)
(0.507743 0.215353 0)
(0.454414 0.216143 0)
(0.503409 0.15769 0)
(0.510914 0.0976708 0)
(0.535004 -0.00111539 0)
(0.600789 -0.151668 0)
(0.585834 -0.228971 0)
(0.537496 -0.191883 0)
(0.488397 -0.0851751 0)
(0.482553 0.0316596 0)
(0.509075 0.102715 0)
(0.509109 0.113114 0)
(0.51404 0.0503877 0)
(0.531769 -0.0493834 0)
(0.526323 -0.11416 0)
(0.501053 -0.119226 0)
(0.491279 -0.0593077 0)
(0.512049 0.0372817 0)
(0.527662 0.0985626 0)
(0.524893 0.100173 0)
(0.510124 0.0722255 0)
(0.495582 0.0389019 0)
(0.492214 0.00627216 0)
(0.495886 -0.018448 0)
(0.497222 -0.0285867 0)
(0.493442 -0.0257485 0)
(0.485875 -0.0170115 0)
(0.476059 -0.00861756 0)
(0.465256 -0.0032294 0)
(0.454576 -0.000724297 0)
(0.444853 1.7817e-05 0)
(0.436576 2.72787e-06 0)
(0.429927 -0.000201713 0)
(0.424855 -0.000363118 0)
(0.421161 -0.000427705 0)
(0.418584 -0.000412232 0)
(0.416858 -0.000350357 0)
(0.415744 -0.0002716 0)
(0.415052 -0.000195525 0)
(0.414637 -0.000132114 0)
(0.414397 -8.43777e-05 0)
(0.414262 -5.11939e-05 0)
(0.414189 -2.9618e-05 0)
(0.414151 -1.63905e-05 0)
(0.414132 -8.69765e-06 0)
(0.414122 -4.43771e-06 0)
(0.414118 -2.17735e-06 0)
(0.414115 -1.03624e-06 0)
(0.414114 -4.7136e-07 0)
(0.414114 -2.12353e-07 0)
(0.414114 -8.84913e-08 0)
(0.414114 -3.85622e-08 0)
(0.414114 -1.32978e-08 0)
(0.414114 -6.95638e-09 0)
(0.414114 -1.29614e-09 0)
(0.397998 -0.0183178 0)
(0.583899 -0.0194088 0)
(0.421555 0.0219262 0)
(0.532413 -0.0549372 0)
(0.528447 0.00838445 0)
(0.516701 -0.0346307 0)
(0.588907 -0.0290243 0)
(0.507234 0.00130133 0)
(0.667863 -0.0564434 0)
(0.493418 0.0237545 0)
(0.677599 -0.0320179 0)
(0.7304 -0.0434525 0)
(0.758182 -0.0715863 0)
(0.902378 -0.178049 0)
(0.878534 -0.191695 0)
(0.798382 -0.0398013 0)
(0.899197 -0.0487661 0)
(0.92555 -0.151836 0)
(0.905633 -0.165799 0)
(0.966769 -0.203319 0)
(0.915765 -0.233862 0)
(0.881799 -0.179795 0)
(0.825759 -0.124635 0)
(0.698019 -0.0778221 0)
(0.499482 0.0220478 0)
(0.322916 0.00135147 0)
(0.216775 -0.19915 0)
(0.294795 -0.271597 0)
(0.395873 -0.123171 0)
(0.424117 -0.00724733 0)
(0.443808 0.103385 0)
(0.612463 0.319214 0)
(0.725222 0.428777 0)
(0.700611 0.390138 0)
(0.671716 0.284632 0)
(0.638518 0.156383 0)
(0.597893 -0.00659056 0)
(0.568835 -0.10037 0)
(0.545223 -0.127233 0)
(0.489544 -0.199727 0)
(0.443473 -0.275338 0)
(0.403695 -0.270267 0)
(0.412761 -0.134806 0)
(0.459146 0.0928958 0)
(0.496758 0.202627 0)
(0.496709 0.217591 0)
(0.45678 0.215394 0)
(0.515517 0.153211 0)
(0.520651 0.0960999 0)
(0.551912 -0.00567443 0)
(0.617303 -0.154834 0)
(0.588358 -0.225828 0)
(0.529844 -0.184605 0)
(0.477306 -0.0798175 0)
(0.47077 0.0306231 0)
(0.498048 0.100179 0)
(0.501161 0.112196 0)
(0.512235 0.0489398 0)
(0.528241 -0.0500254 0)
(0.515999 -0.112543 0)
(0.486459 -0.11641 0)
(0.473586 -0.0585835 0)
(0.492925 0.035236 0)
(0.511689 0.0967145 0)
(0.514655 0.100436 0)
(0.505644 0.0737885 0)
(0.495913 0.0399869 0)
(0.495787 0.00628721 0)
(0.500317 -0.0187148 0)
(0.500401 -0.0283585 0)
(0.494529 -0.0249323 0)
(0.48518 -0.0158387 0)
(0.474377 -0.00729686 0)
(0.463303 -0.00189443 0)
(0.452782 0.000520749 0)
(0.443396 0.00110586 0)
(0.435486 0.000898616 0)
(0.429163 0.000497427 0)
(0.424345 0.000156869 0)
(0.420832 -5.74418e-05 0)
(0.41837 -0.000158963 0)
(0.416707 -0.000183549 0)
(0.415623 -0.000165657 0)
(0.414941 -0.000130572 0)
(0.414526 -9.36408e-05 0)
(0.414282 -6.23457e-05 0)
(0.414144 -3.8988e-05 0)
(0.414067 -2.30708e-05 0)
(0.414027 -1.29881e-05 0)
(0.414006 -6.98439e-06 0)
(0.413995 -3.59797e-06 0)
(0.41399 -1.7812e-06 0)
(0.413988 -8.50657e-07 0)
(0.413987 -3.91564e-07 0)
(0.413986 -1.73595e-07 0)
(0.413986 -7.54521e-08 0)
(0.413986 -3.01932e-08 0)
(0.413986 -1.28668e-08 0)
(0.413986 -5.8766e-09 0)
(0.413986 -1.62106e-09 0)
(0.583887 -0.0133996 0)
(0.666941 -0.0279568 0)
(0.598582 0.0210698 0)
(0.657166 -0.049942 0)
(0.647893 -0.00233263 0)
(0.666621 -0.0335781 0)
(0.691121 -0.0304872 0)
(0.640619 -0.00485346 0)
(0.772358 -0.0574963 0)
(0.629705 0.0237343 0)
(0.785957 -0.047587 0)
(0.832901 -0.0632494 0)
(0.842969 -0.0733899 0)
(0.965648 -0.181863 0)
(0.911908 -0.190783 0)
(0.837929 -0.0439955 0)
(0.931538 -0.0551412 0)
(0.925467 -0.148491 0)
(0.910624 -0.168154 0)
(0.951364 -0.20564 0)
(0.877547 -0.225596 0)
(0.836039 -0.169135 0)
(0.764889 -0.108426 0)
(0.638712 -0.0477358 0)
(0.439529 0.055887 0)
(0.281983 0.0186288 0)
(0.166014 -0.201042 0)
(0.25991 -0.27765 0)
(0.325165 -0.133056 0)
(0.360863 -0.0163067 0)
(0.38891 0.0934388 0)
(0.556751 0.299356 0)
(0.682275 0.414548 0)
(0.685846 0.387405 0)
(0.677552 0.290011 0)
(0.653393 0.164665 0)
(0.6139 -0.000135568 0)
(0.58176 -0.0956756 0)
(0.555664 -0.120624 0)
(0.492755 -0.192056 0)
(0.435633 -0.270797 0)
(0.385094 -0.266396 0)
(0.384586 -0.134083 0)
(0.426084 0.0875819 0)
(0.47346 0.196678 0)
(0.48222 0.218263 0)
(0.456516 0.212798 0)
(0.524571 0.148288 0)
(0.527126 0.0942017 0)
(0.566394 -0.0108622 0)
(0.629886 -0.157093 0)
(0.586374 -0.22084 0)
(0.517958 -0.1762 0)
(0.463454 -0.0741912 0)
(0.456675 0.0295407 0)
(0.483763 0.0974456 0)
(0.490053 0.110475 0)
(0.507216 0.0471461 0)
(0.521071 -0.0500751 0)
(0.502166 -0.110145 0)
(0.468621 -0.113039 0)
(0.453025 -0.0575136 0)
(0.470873 0.0330858 0)
(0.492519 0.0942363 0)
(0.501085 0.0998942 0)
(0.497867 0.0746327 0)
(0.493186 0.0405367 0)
(0.496522 0.00603361 0)
(0.501894 -0.018943 0)
(0.500616 -0.0279011 0)
(0.492616 -0.023866 0)
(0.481566 -0.0144996 0)
(0.469957 -0.0059119 0)
(0.458877 -0.000574572 0)
(0.44884 0.00171076 0)
(0.44015 0.00212884 0)
(0.432965 0.00173171 0)
(0.427295 0.00114325 0)
(0.42301 0.000635703 0)
(0.419896 0.000283649 0)
(0.417711 7.52794e-05 0)
(0.416228 -2.81442e-05 0)
(0.415252 -6.59539e-05 0)
(0.414631 -6.86925e-05 0)
(0.414248 -5.64858e-05 0)
(0.41402 -4.0761e-05 0)
(0.413888 -2.68539e-05 0)
(0.413814 -1.64664e-05 0)
(0.413775 -9.50775e-06 0)
(0.413754 -5.20718e-06 0)
(0.413743 -2.71758e-06 0)
(0.413738 -1.35844e-06 0)
(0.413736 -6.53441e-07 0)
(0.413734 -3.02136e-07 0)
(0.413734 -1.35075e-07 0)
(0.413734 -5.91424e-08 0)
(0.413734 -2.29117e-08 0)
(0.413734 -9.66161e-09 0)
(0.413734 -4.85224e-09 0)
(0.413734 -1.51164e-09 0)
(0.724512 -0.00941067 0)
(0.748299 -0.0306398 0)
(0.728281 0.0132638 0)
(0.76255 -0.0406364 0)
(0.744266 -0.0121375 0)
(0.781229 -0.0347968 0)
(0.773665 -0.0273553 0)
(0.753374 -0.0128348 0)
(0.850994 -0.0589406 0)
(0.739799 0.0233039 0)
(0.877803 -0.0606105 0)
(0.901483 -0.0799183 0)
(0.903431 -0.0737914 0)
(1.00586 -0.181596 0)
(0.925172 -0.186637 0)
(0.863657 -0.0474609 0)
(0.943426 -0.0593889 0)
(0.911135 -0.142913 0)
(0.903985 -0.168632 0)
(0.919741 -0.203731 0)
(0.82364 -0.213684 0)
(0.773402 -0.156673 0)
(0.690104 -0.091184 0)
(0.571175 -0.0168197 0)
(0.376944 0.0878115 0)
(0.2379 0.0350585 0)
(0.126535 -0.20318 0)
(0.21696 -0.282691 0)
(0.260383 -0.140039 0)
(0.295501 -0.0261995 0)
(0.33135 0.0827692 0)
(0.49753 0.2784 0)
(0.632747 0.397271 0)
(0.662496 0.381247 0)
(0.675481 0.292782 0)
(0.661746 0.171431 0)
(0.625008 0.00672088 0)
(0.59082 -0.0901926 0)
(0.563229 -0.113353 0)
(0.494117 -0.183233 0)
(0.425325 -0.264478 0)
(0.364467 -0.260884 0)
(0.353188 -0.132087 0)
(0.390521 0.0818484 0)
(0.447726 0.189338 0)
(0.464312 0.217281 0)
(0.453729 0.208305 0)
(0.53043 0.142923 0)
(0.530419 0.0918952 0)
(0.578646 -0.0166391 0)
(0.638317 -0.158282 0)
(0.579802 -0.21398 0)
(0.501908 -0.166821 0)
(0.446944 -0.0684655 0)
(0.440372 0.0285007 0)
(0.466376 0.0945237 0)
(0.476027 0.108045 0)
(0.499101 0.04491 0)
(0.510428 -0.0495791 0)
(0.485077 -0.107007 0)
(0.447779 -0.109187 0)
(0.429782 -0.056053 0)
(0.446108 0.0308974 0)
(0.470366 0.091182 0)
(0.484356 0.098566 0)
(0.486901 0.0747366 0)
(0.487478 0.0405228 0)
(0.494449 0.00550059 0)
(0.500573 -0.0191226 0)
(0.497797 -0.0272065 0)
(0.487665 -0.0225549 0)
(0.475041 -0.0130132 0)
(0.462847 -0.00449194 0)
(0.452046 0.000692466 0)
(0.442824 0.00280904 0)
(0.435181 0.00304419 0)
(0.429063 0.0024616 0)
(0.42435 0.00170053 0)
(0.420848 0.0010448 0)
(0.418328 0.000573789 0)
(0.416563 0.000274769 0)
(0.41536 0.000105026 0)
(0.41456 2.03537e-05 0)
(0.414043 -1.4435e-05 0)
(0.413719 -2.34315e-05 0)
(0.413523 -2.12651e-05 0)
(0.413407 -1.57274e-05 0)
(0.413342 -1.03221e-05 0)
(0.413306 -6.22515e-06 0)
(0.413287 -3.50977e-06 0)
(0.413277 -1.86698e-06 0)
(0.413273 -9.45918e-07 0)
(0.41327 -4.59093e-07 0)
(0.413269 -2.13318e-07 0)
(0.413269 -9.60664e-08 0)
(0.413268 -4.21014e-08 0)
(0.413268 -1.55654e-08 0)
(0.413268 -6.84652e-09 0)
(0.413268 -4.07362e-09 0)
(0.413268 -1.29897e-09 0)
(0.828361 -0.00740394 0)
(0.821052 -0.0283602 0)
(0.826042 0.00168281 0)
(0.847189 -0.0310224 0)
(0.822056 -0.02006 0)
(0.87049 -0.0386835 0)
(0.837518 -0.0211536 0)
(0.843758 -0.0207257 0)
(0.90821 -0.060709 0)
(0.821417 0.0217237 0)
(0.947087 -0.0702898 0)
(0.940522 -0.0917285 0)
(0.944269 -0.0737775 0)
(1.02626 -0.177273 0)
(0.923617 -0.179048 0)
(0.878503 -0.0506316 0)
(0.935153 -0.0615052 0)
(0.885727 -0.136222 0)
(0.884598 -0.16748 0)
(0.868794 -0.197191 0)
(0.752205 -0.198285 0)
(0.692913 -0.142739 0)
(0.602208 -0.0733038 0)
(0.496699 0.011817 0)
(0.312978 0.116665 0)
(0.1928 0.0498428 0)
(0.0977005 -0.205074 0)
(0.16344 -0.287009 0)
(0.203266 -0.145388 0)
(0.232258 -0.0364079 0)
(0.272603 0.0716417 0)
(0.435553 0.256591 0)
(0.577549 0.377215 0)
(0.631364 0.371574 0)
(0.665961 0.292551 0)
(0.663662 0.176255 0)
(0.631125 0.0139848 0)
(0.595923 -0.0840603 0)
(0.567821 -0.105535 0)
(0.493973 -0.173227 0)
(0.412565 -0.256321 0)
(0.342199 -0.253678 0)
(0.31897 -0.128914 0)
(0.352825 0.0756991 0)
(0.419778 0.180792 0)
(0.443099 0.214664 0)
(0.448647 0.2019 0)
(0.532926 0.137303 0)
(0.530736 0.0889865 0)
(0.588859 -0.0229415 0)
(0.642355 -0.158206 0)
(0.568593 -0.205244 0)
(0.481811 -0.156622 0)
(0.427825 -0.0627909 0)
(0.421878 0.0275269 0)
(0.446048 0.0914555 0)
(0.459361 0.104863 0)
(0.488068 0.0423993 0)
(0.496507 -0.0484701 0)
(0.465011 -0.103147 0)
(0.424178 -0.104887 0)
(0.404028 -0.0542902 0)
(0.418838 0.0286718 0)
(0.445461 0.0875915 0)
(0.464663 0.0964701 0)
(0.472887 0.0740953 0)
(0.478925 0.0399096 0)
(0.489638 0.00469769 0)
(0.496332 -0.0192345 0)
(0.49191 -0.0262653 0)
(0.479688 -0.0210102 0)
(0.46568 -0.0114043 0)
(0.453166 -0.00307426 0)
(0.442952 0.00187332 0)
(0.434878 0.00377318 0)
(0.428617 0.00381073 0)
(0.423874 0.00305079 0)
(0.42038 0.00213779 0)
(0.417868 0.00135954 0)
(0.416093 0.000794793 0)
(0.414856 0.000426674 0)
(0.414004 0.000207249 0)
(0.413428 8.75457e-05 0)
(0.413047 2.85646e-05 0)
(0.412802 3.27665e-06 0)
(0.41265 -5.20694e-06 0)
(0.412559 -6.38676e-06 0)
(0.412506 -5.07408e-06 0)
(0.412476 -3.3775e-06 0)
(0.41246 -2.01704e-06 0)
(0.412452 -1.11015e-06 0)
(0.412448 -5.75104e-07 0)
(0.412446 -2.82875e-07 0)
(0.412445 -1.32081e-07 0)
(0.412444 -6.00739e-08 0)
(0.412444 -2.64343e-08 0)
(0.412444 -8.8545e-09 0)
(0.412444 -4.2882e-09 0)
(0.412444 -3.15577e-09 0)
(0.412444 -1.0338e-09 0)
(0.904249 -0.00842453 0)
(0.881026 -0.0220897 0)
(0.898923 -0.0110256 0)
(0.910404 -0.0223148 0)
(0.883806 -0.0243478 0)
(0.936495 -0.0446085 0)
(0.884979 -0.0138839 0)
(0.913379 -0.0274599 0)
(0.944613 -0.0614905 0)
(0.879288 0.0192462 0)
(0.992027 -0.0762802 0)
(0.956674 -0.0988001 0)
(0.968816 -0.0740987 0)
(1.02633 -0.169693 0)
(0.91085 -0.169072 0)
(0.882279 -0.0533632 0)
(0.908622 -0.0611317 0)
(0.853074 -0.128812 0)
(0.849268 -0.163851 0)
(0.796692 -0.18568 0)
(0.664354 -0.179906 0)
(0.597388 -0.127752 0)
(0.504312 -0.0556998 0)
(0.417635 0.037031 0)
(0.249958 0.141844 0)
(0.15017 0.0623431 0)
(0.0765974 -0.205211 0)
(0.100676 -0.291175 0)
(0.15225 -0.150518 0)
(0.17372 -0.0462933 0)
(0.21449 0.0599468 0)
(0.371038 0.234472 0)
(0.517256 0.355296 0)
(0.592805 0.358925 0)
(0.648866 0.289388 0)
(0.658677 0.179106 0)
(0.632071 0.021035 0)
(0.597218 -0.0774587 0)
(0.569458 -0.0973145 0)
(0.492589 -0.162112 0)
(0.397446 -0.246297 0)
(0.318667 -0.244824 0)
(0.282583 -0.124651 0)
(0.313551 0.069051 0)
(0.389831 0.171155 0)
(0.418622 0.210296 0)
(0.441563 0.193596 0)
(0.531775 0.131437 0)
(0.52835 0.0853955 0)
(0.597128 -0.0295406 0)
(0.641724 -0.156632 0)
(0.552732 -0.19465 0)
(0.457826 -0.145769 0)
(0.406043 -0.0573215 0)
(0.401072 0.026627 0)
(0.422911 0.0882957 0)
(0.440401 0.100898 0)
(0.474325 0.0397325 0)
(0.479536 -0.046746 0)
(0.442285 -0.0986165 0)
(0.398094 -0.100196 0)
(0.375947 -0.0522594 0)
(0.389273 0.0264218 0)
(0.418049 0.0835055 0)
(0.442217 0.0936366 0)
(0.455999 0.0726976 0)
(0.467722 0.0386794 0)
(0.482184 0.00361997 0)
(0.489161 -0.0192528 0)
(0.482952 -0.0250715 0)
(0.468756 -0.019251 0)
(0.453626 -0.00970667 0)
(0.44111 -0.00169763 0)
(0.431813 0.00292625 0)
(0.425213 0.00456183 0)
(0.420636 0.00439084 0)
(0.417525 0.00346737 0)
(0.415445 0.00243012 0)
(0.414058 0.00156181 0)
(0.413118 0.000934143 0)
(0.412464 0.000522626 0)
(0.412 0.000273037 0)
(0.41167 0.000132079 0)
(0.411439 5.80485e-05 0)
(0.411283 2.22246e-05 0)
(0.411181 6.55663e-06 0)
(0.411117 6.486e-07 0)
(0.411079 -1.02564e-06 0)
(0.411057 -1.13436e-06 0)
(0.411045 -8.2097e-07 0)
(0.411039 -4.95286e-07 0)
(0.411035 -2.70467e-07 0)
(0.411034 -1.36833e-07 0)
(0.411033 -6.43215e-08 0)
(0.411033 -2.98914e-08 0)
(0.411032 -1.31608e-08 0)
(0.411032 -3.22232e-09 0)
(0.411032 -2.14311e-09 0)
(0.411032 -2.35788e-09 0)
(0.411032 -7.9408e-10 0)
(0.956394 -0.0119193 0)
(0.92718 -0.0143306 0)
(0.950608 -0.0226678 0)
(0.951744 -0.0152505 0)
(0.930722 -0.0252008 0)
(0.977975 -0.0503017 0)
(0.916247 -0.00753704 0)
(0.962225 -0.0326176 0)
(0.960124 -0.0609014 0)
(0.917493 0.0155135 0)
(1.01362 -0.0788866 0)
(0.955302 -0.102101 0)
(0.978296 -0.0751346 0)
(1.00894 -0.159458 0)
(0.88851 -0.157661 0)
(0.869292 -0.0551551 0)
(0.866241 -0.0585067 0)
(0.812493 -0.12073 0)
(0.79245 -0.156526 0)
(0.704028 -0.169479 0)
(0.563928 -0.1595 0)
(0.491659 -0.11216 0)
(0.40158 -0.0392659 0)
(0.337045 0.0599603 0)
(0.18968 0.162967 0)
(0.113557 0.0718388 0)
(0.0594677 -0.20214 0)
(0.0333666 -0.295144 0)
(0.103316 -0.156277 0)
(0.119224 -0.0553574 0)
(0.157596 0.048564 0)
(0.304663 0.212319 0)
(0.452683 0.331738 0)
(0.547815 0.343282 0)
(0.625047 0.283108 0)
(0.647187 0.17987 0)
(0.628065 0.0274031 0)
(0.594949 -0.0706544 0)
(0.568219 -0.0888554 0)
(0.490197 -0.149911 0)
(0.380322 -0.234364 0)
(0.29419 -0.234313 0)
(0.244984 -0.119381 0)
(0.273401 0.0619578 0)
(0.358162 0.160704 0)
(0.391047 0.204146 0)
(0.432909 0.183508 0)
(0.526678 0.125363 0)
(0.52376 0.0809798 0)
(0.603472 -0.0362992 0)
(0.636126 -0.153369 0)
(0.532244 -0.182263 0)
(0.430158 -0.134415 0)
(0.381409 -0.0521513 0)
(0.377646 0.0258273 0)
(0.39707 0.0849755 0)
(0.419525 0.0962407 0)
(0.45806 0.0368912 0)
(0.459823 -0.0444677 0)
(0.417267 -0.0934581 0)
(0.369811 -0.0951404 0)
(0.345724 -0.0499928 0)
(0.357615 0.0241545 0)
(0.388389 0.0789647 0)
(0.41723 0.0900978 0)
(0.436453 0.0705309 0)
(0.45412 0.0368212 0)
(0.472192 0.00230676 0)
(0.479068 -0.0191483 0)
(0.470963 -0.0236285 0)
(0.454999 -0.0173076 0)
(0.439099 -0.0079619 0)
(0.426952 -0.000400683 0)
(0.418918 0.00381066 0)
(0.414097 0.00513799 0)
(0.411449 0.00475365 0)
(0.41014 0.00368841 0)
(0.409571 0.00256244 0)
(0.40935 0.00164275 0)
(0.409252 0.000987079 0)
(0.409174 0.000560187 0)
(0.409087 0.000301109 0)
(0.408994 0.000153197 0)
(0.408909 7.35074e-05 0)
(0.408838 3.30481e-05 0)
(0.408785 1.37621e-05 0)
(0.408749 5.19472e-06 0)
(0.408726 1.70395e-06 0)
(0.408712 4.27026e-07 0)
(0.408704 3.22839e-08 0)
(0.4087 -4.84284e-08 0)
(0.408697 -4.6131e-08 0)
(0.408696 -2.82659e-08 0)
(0.408696 -1.36296e-08 0)
(0.408695 -7.1671e-09 0)
(0.408695 -3.06667e-09 0)
(0.408695 9.78342e-10 0)
(0.408695 -5.79925e-10 0)
(0.408695 -1.73685e-09 0)
(0.408695 -5.78162e-10 0)
(0.98588 -0.0161966 0)
(0.958376 -0.00738364 0)
(0.982923 -0.0314538 0)
(0.971378 -0.0105522 0)
(0.96337 -0.0236349 0)
(0.99453 -0.0541767 0)
(0.931622 -0.00267084 0)
(0.989463 -0.0353996 0)
(0.955719 -0.0586376 0)
(0.938325 0.010591 0)
(1.01332 -0.0781289 0)
(0.940174 -0.102378 0)
(0.972173 -0.0767282 0)
(0.975775 -0.147095 0)
(0.855049 -0.144768 0)
(0.835421 -0.0548515 0)
(0.811955 -0.0541033 0)
(0.759001 -0.110982 0)
(0.711442 -0.144314 0)
(0.595735 -0.149639 0)
(0.456881 -0.13807 0)
(0.382002 -0.0966593 0)
(0.299163 -0.0250787 0)
(0.257904 0.0786206 0)
(0.134618 0.179715 0)
(0.0860109 0.0783239 0)