/*--------------------------------*- C++ -*----------------------------------*\
| =========                 |                                                 |
| \\      /  F ield         | OpenFOAM: The Open Source CFD Toolbox           |
|  \\    /   O peration     | Version:  2.4.0                                 |
|   \\  /    A nd           | Web:      www.OpenFOAM.org                      |
|    \\/     M anipulation  |                                                 |
\*---------------------------------------------------------------------------*/
FoamFile
{
    version     2.0;
    format      ascii;
    class       volScalarField;
    location    "0.88";
    object      p;
}
// * * * * * * * * * * * * * * * * * * * * * * * * * * * * * * * * * * * * * //

dimensions      [0 2 -2 0 0 0 0];

internalField   nonuniform List<scalar> 
4400
(
-22.3855
-22.001
-22.3995
-22.6071
-22.164
-23.569
-22.4048
-23.2465
-23.463
-22.4377
-24.131
-22.8908
-23.7265
-24.0996
-22.9411
-24.0675
-24.4258
-23.0253
-23.524
-23.9258
-22.5106
-21.9758
-22.4138
-22.7771
-22.3476
-23.6537
-22.4227
-23.2809
-23.61
-22.5425
-24.1509
-22.7924
-23.7061
-24.1231
-22.9623
-24.0943
-24.4948
-23.0664
-23.4678
-24.0973
-22.353
-22.129
-22.6513
-23.0965
-22.6098
-23.7038
-22.3944
-23.3141
-23.7742
-22.6562
-24.2003
-22.9418
-23.6133
-24.2041
-23.1522
-24.0413
-24.5307
-23.1277
-23.5209
-24.4912
-22.4245
-22.3746
-22.825
-23.1469
-22.5409
-23.4156
-22.4727
-23.1642
-23.7913
-22.7568
-24.1087
-22.9844
-23.5725
-24.2047
-23.1395
-24.0125
-24.4906
-23.3545
-23.5347
-24.6153
-22.5465
-22.5485
-22.6846
-23.0209
-22.4268
-23.3474
-22.5404
-23.0758
-23.7783
-22.774
-24.0413
-23.1838
-23.497
-24.1697
-23.359
-23.9725
-24.5254
-23.6678
-23.7313
-24.9628
-22.6688
-22.5815
-22.4932
-22.9214
-22.3851
-23.3793
-22.6435
-22.9755
-23.707
-22.7859
-23.9656
-23.2381
-23.4298
-24.1876
-23.3728
-23.9748
-24.5514
-23.9594
-23.9217
-25.2728
-22.6525
-22.5841
-22.3714
-22.8448
-22.4064
-23.2217
-22.7184
-22.8851
-23.6548
-22.7856
-23.8736
-23.3617
-23.3694
-24.1813
-23.5185
-23.9584
-24.5603
-24.1445
-24.0317
-25.4987
-22.6184
-22.5668
-22.3045
-22.8241
-22.4266
-23.1903
-22.7859
-22.8357
-23.607
-22.7863
-23.8024
-23.4221
-23.3203
-24.1822
-23.4911
-23.9356
-24.5693
-24.1907
-24.1177
-25.629
-22.5611
-22.5583
-22.2692
-22.8095
-22.4728
-23.134
-22.8601
-22.799
-23.5919
-22.8228
-23.7103
-23.5059
-23.2952
-24.1674
-23.6342
-23.9196
-24.5401
-24.2258
-24.1696
-25.6481
-22.491
-22.5643
-22.2349
-22.8029
-22.5004
-23.0784
-22.9264
-22.7799
-23.5944
-22.8554
-23.634
-23.5767
-23.2642
-24.1536
-23.6162
-23.8874
-24.53
-24.269
-24.2435
-25.6732
-22.4157
-22.5715
-22.2115
-22.782
-22.5394
-23.0129
-22.9928
-22.7638
-23.5832
-22.9105
-23.542
-23.6387
-23.2541
-24.1243
-23.6958
-23.8768
-24.5217
-24.3367
-24.3558
-25.6937
-22.3316
-22.5825
-22.1921
-22.7581
-22.5691
-22.9579
-23.0508
-22.7327
-23.5716
-22.9519
-23.4568
-23.7024
-23.2399
-24.0896
-23.766
-23.8455
-24.5261
-24.411
-24.4353
-25.7551
-22.248
-22.5962
-22.1744
-22.7261
-22.603
-22.8946
-23.1004
-22.7148
-23.5505
-22.9989
-23.3831
-23.7543
-23.2342
-24.0606
-23.8205
-23.8273
-24.5324
-24.4779
-24.5393
-25.8015
-22.1622
-22.6077
-22.1627
-22.6967
-22.6309
-22.8396
-23.1489
-22.6854
-23.536
-23.0542
-23.2944
-23.8047
-23.2398
-24.0237
-23.8937
-23.8153
-24.5365
-24.541
-24.6193
-25.8434
-22.0792
-22.6212
-22.154
-22.6643
-22.6599
-22.7843
-23.1833
-22.6668
-23.5175
-23.0989
-23.2975
-23.8451
-23.2356
-23.9901
-23.954
-23.7996
-24.541
-24.6004
-24.6998
-25.8695
-21.9989
-22.6309
-22.1471
-22.6368
-22.6831
-22.7335
-23.2178
-22.6403
-23.4985
-23.1482
-23.2166
-23.8828
-23.2445
-23.9486
-24.0138
-23.7958
-24.5395
-24.6506
-24.7735
-25.8973
-21.9252
-22.6378
-22.1436
-22.6089
-22.7071
-22.6906
-23.2392
-22.6225
-23.4799
-23.1873
-23.1636
-23.9097
-23.2479
-23.9127
-24.067
-23.7908
-24.5281
-24.7002
-24.8443
-25.9045
-21.8598
-22.6422
-22.1374
-22.5889
-22.7208
-22.6548
-23.2595
-22.5979
-23.4633
-23.2235
-23.1143
-23.9332
-23.2521
-23.8794
-24.1119
-23.791
-24.5266
-24.7348
-24.904
-25.906
-21.7999
-22.6459
-22.1335
-22.568
-22.736
-22.6104
-23.2721
-22.5767
-23.4386
-23.2526
-23.062
-23.9502
-23.2551
-23.8346
-24.1631
-23.7929
-24.4866
-24.7904
-24.9704
-25.8557
-21.746
-22.641
-22.1276
-22.5545
-22.736
-22.5982
-23.2765
-22.5637
-23.417
-23.26
-23.0644
-23.9416
-23.2551
-23.8166
-24.1613
-23.7997
-24.4808
-24.7779
-25.0005
-25.8548
-20.5366
-20.8365
-32.9554
-51.1665
-56.6227
-54.2266
-48.7217
-36.6559
-21.1878
-9.50339
-3.74687
-1.15059
0.164462
0.898173
1.35258
1.6635
1.87696
2.01996
2.10626
2.14657
2.15727
2.15232
2.13936
2.12231
2.1032
2.08299
2.06213
2.04087
2.01933
1.99757
1.97562
1.9535
1.93121
1.90875
1.88614
1.86336
1.84042
1.81733
1.79406
1.77064
1.74704
1.72329
1.69936
1.67527
1.65101
1.62658
1.60197
1.5772
1.55225
1.52712
1.50182
1.47634
1.45068
1.42484
1.39882
1.37261
1.34623
1.31965
1.29289
1.26594
1.2388
1.21147
1.18395
1.15623
1.12832
1.10021
1.07191
1.0434
1.0147
0.985796
0.956689
0.927378
0.897862
0.86814
0.838209
0.808069
0.777719
0.747157
0.716381
0.685391
0.654183
0.622757
0.59111
0.559242
0.52715
0.494834
0.46229
0.429521
0.396521
0.363288
0.329828
0.296122
0.262192
0.228014
0.193599
0.158954
0.124045
0.088909
0.0535279
0.0178821
-21.3135
-21.0522
-33.3254
-50.928
-54.9361
-51.5503
-46.2389
-35.1817
-20.8348
-9.94079
-4.31883
-1.56994
-0.151919
0.663467
1.19822
1.56457
1.81049
1.97582
2.07864
2.12964
2.14663
2.14554
2.13502
2.11957
2.10149
2.08193
2.06149
2.04048
2.0191
1.99743
1.97554
1.95345
1.93118
1.90874
1.88613
1.86336
1.84042
1.81732
1.79406
1.77064
1.74704
1.72329
1.69936
1.67527
1.65101
1.62658
1.60197
1.5772
1.55225
1.52712
1.50182
1.47634
1.45068
1.42484
1.39882
1.37261
1.34623
1.31965
1.29289
1.26594
1.2388
1.21147
1.18395
1.15623
1.12832
1.10021
1.07191
1.0434
1.0147
0.985796
0.95669
0.927378
0.897863
0.86814
0.838209
0.80807
0.777718
0.747158
0.716381
0.68539
0.654184
0.622756
0.59111
0.559243
0.527149
0.494835
0.462291
0.429521
0.396522
0.363288
0.329827
0.296122
0.262192
0.228014
0.193599
0.158954
0.124045
0.088909
0.0535277
0.0178821
-21.9615
-21.3396
-33.9215
-50.2708
-52.9704
-48.9104
-43.7382
-33.7426
-20.7514
-10.3661
-4.9
-2.03748
-0.451705
0.464217
1.06116
1.47339
1.74861
1.93373
2.05145
2.11275
2.13619
2.13903
2.13091
2.11697
2.09986
2.08092
2.06087
2.0401
2.01886
1.99729
1.97545
1.9534
1.93115
1.90872
1.88612
1.86335
1.84042
1.81732
1.79406
1.77064
1.74704
1.72329
1.69936
1.67527
1.65101
1.62658
1.60197
1.5772
1.55225
1.52712
1.50182
1.47634
1.45068
1.42484
1.39882
1.37261
1.34623
1.31965
1.29289
1.26594
1.2388
1.21147
1.18395
1.15623
1.12832
1.10021
1.07191
1.0434
1.0147
0.985796
0.95669
0.927378
0.897863
0.86814
0.838209
0.808071
0.777718
0.747158
0.716381
0.68539
0.654184
0.622757
0.59111
0.559243
0.527149
0.494835
0.462291
0.429521
0.396522
0.363288
0.329827
0.296122
0.262192
0.228014
0.193599
0.158954
0.124045
0.088909
0.0535278
0.0178821
-22.7384
-22.0497
-34.1708
-49.0764
-51.0005
-46.6776
-41.6004
-32.2305
-20.5607
-10.8268
-5.36895
-2.48039
-0.784897
0.256867
0.930623
1.38356
1.68691
1.8935
2.02614
2.0965
2.12558
2.13222
2.1266
2.11429
2.09822
2.07991
2.06025
2.03973
2.01864
1.99716
1.97537
1.95335
1.93112
1.9087
1.88611
1.86335
1.84042
1.81732
1.79406
1.77063
1.74704
1.72329
1.69936
1.67527
1.65101
1.62658
1.60197
1.5772
1.55225
1.52712
1.50182
1.47634
1.45068
1.42484
1.39882
1.37261
1.34623
1.31965
1.29289
1.26594
1.2388
1.21147
1.18395
1.15623
1.12832
1.10021
1.07191
1.0434
1.0147
0.985796
0.95669
0.927378
0.897863
0.86814
0.838209
0.808071
0.777718
0.747158
0.716382
0.68539
0.654184
0.622757
0.59111
0.559243
0.527149
0.494835
0.462291
0.429521
0.396522
0.363288
0.329827
0.296122
0.262192
0.228014
0.193599
0.158954
0.124045
0.088909
0.0535278
0.0178821
-23.5474
-22.8604
-33.9605
-47.1549
-48.6005
-44.4419
-39.7541
-31.054
-20.2134
-11.1957
-5.85073
-2.84393
-1.07153
0.0515253
0.799399
1.29933
1.62915
1.85667
2.00537
2.08482
2.11829
2.12732
2.12324
2.11204
2.09676
2.07899
2.05967
2.03937
2.01842
1.99702
1.9753
1.9533
1.93109
1.90869
1.8861
1.86334
1.84041
1.81732
1.79406
1.77063
1.74704
1.72329
1.69936
1.67527
1.65101
1.62658
1.60197
1.5772
1.55225
1.52712
1.50182
1.47634
1.45068
1.42484
1.39882
1.37261
1.34623
1.31965
1.29289
1.26594
1.2388
1.21147
1.18395
1.15623
1.12832
1.10021
1.07191
1.0434
1.0147
0.985796
0.95669
0.927378
0.897863
0.86814
0.838209
0.808071
0.777719
0.747158
0.716382
0.68539
0.654184
0.622757
0.59111
0.559243
0.527149
0.494835
0.462291
0.429521
0.396522
0.363288
0.329827
0.296122
0.262192
0.228014
0.193599
0.158954
0.124046
0.0889091
0.0535278
0.0178821
-24.2365
-23.896
-33.5474
-44.5864
-45.9432
-42.3175
-38.085
-30.2315
-20.0822
-11.4056
-6.33473
-3.30305
-1.32758
-0.11254
0.690156
1.21824
1.56475
1.80871
1.9738
2.06511
2.10621
2.12013
2.11895
2.10948
2.09522
2.07805
2.0591
2.03902
2.01821
1.9969
1.97522
1.95326
1.93107
1.90867
1.88609
1.86334
1.84041
1.81732
1.79406
1.77063
1.74704
1.72329
1.69936
1.67527
1.65101
1.62658
1.60197
1.5772
1.55225
1.52712
1.50182
1.47634
1.45068
1.42484
1.39882
1.37261
1.34623
1.31965
1.29289
1.26594
1.2388
1.21147
1.18395
1.15623
1.12832
1.10021
1.07191
1.0434
1.0147
0.985796
0.95669
0.927378
0.897863
0.86814
0.838209
0.808071
0.777719
0.747158
0.716382
0.68539
0.654184
0.622757
0.59111
0.559243
0.527149
0.494835
0.462291
0.429521
0.396522
0.363288
0.329827
0.296122
0.262193
0.228014
0.193599
0.158954
0.124046
0.0889091
0.0535278
0.0178821
-24.8456
-24.9521
-32.8725
-42.0023
-43.4239
-40.4378
-36.5137
-29.3011
-20.0576
-11.7763
-6.71684
-3.79191
-1.76414
-0.357749
0.59208
1.17907
1.54368
1.7971
1.96851
2.06143
2.10249
2.11676
2.11625
2.10756
2.09394
2.07723
2.05859
2.03871
2.01802
1.99678
1.97515
1.95322
1.93104
1.90866
1.88608
1.86333
1.84041
1.81732
1.79406
1.77063
1.74704
1.72329
1.69936
1.67527
1.65101
1.62658
1.60197
1.5772
1.55225
1.52712
1.50182
1.47634
1.45068
1.42484
1.39882
1.37261
1.34623
1.31965
1.29289
1.26594
1.2388
1.21147
1.18395
1.15623
1.12832
1.10021
1.07191
1.0434
1.0147
0.985796
0.95669
0.927378
0.897863
0.86814
0.83821
0.808071
0.777719
0.747158
0.716382
0.685391
0.654184
0.622757
0.59111
0.559243
0.527149
0.494835
0.462291
0.429521
0.396522
0.363288
0.329827
0.296122
0.262193
0.228015
0.193599
0.158954
0.124046
0.0889092
0.0535278
0.0178821
-25.2936
-25.6234
-32.0887
-39.8972
-41.2286
-38.7296
-35.1285
-28.3814
-19.6897
-12.1537
-7.25528
-4.14166
-2.03824
-0.577508
0.427212
1.0493
1.44333
1.73148
1.93187
2.04189
2.09167
2.11066
2.11261
2.10537
2.09261
2.07642
2.05809
2.0384
2.01783
1.99667
1.97508
1.95318
1.93102
1.90865
1.88608
1.86333
1.84041
1.81731
1.79406
1.77063
1.74704
1.72329
1.69936
1.67527
1.65101
1.62658
1.60197
1.5772
1.55225
1.52712
1.50182
1.47634
1.45068
1.42484
1.39882
1.37261
1.34623
1.31965
1.29289
1.26594
1.2388
1.21147
1.18395
1.15623
1.12832
1.10021
1.07191
1.0434
1.0147
0.985796
0.95669
0.927379
0.897863
0.86814
0.83821
0.808071
0.777719
0.747158
0.716382
0.685391
0.654184
0.622757
0.59111
0.559243
0.527149
0.494835
0.462291
0.429521
0.396522
0.363288
0.329827
0.296122
0.262193
0.228015
0.193599
0.158954
0.124046
0.0889092
0.0535278
0.0178821
-25.6513
-26.0369
-31.495
-38.1779
-39.395
-37.2601
-33.8667
-27.6516
-19.4841
-12.3043
-7.7459
-4.70633
-2.36512
-0.655984
0.383388
1.03257
1.45238
1.73933
1.93418
2.03963
2.08709
2.10676
2.10982
2.10358
2.09149
2.07571
2.05765
2.03813
2.01767
1.99657
1.97502
1.95314
1.931
1.90863
1.88607
1.86332
1.8404
1.81731
1.79406
1.77063
1.74704
1.72329
1.69936
1.67527
1.65101
1.62658
1.60197
1.5772
1.55225
1.52712
1.50182
1.47634
1.45068
1.42484
1.39882
1.37261
1.34623
1.31965
1.29289
1.26594
1.2388
1.21147
1.18395
1.15623
1.12832
1.10021
1.07191
1.0434
1.0147
0.985796
0.95669
0.927379
0.897863
0.868141
0.83821
0.808071
0.777719
0.747158
0.716382
0.685391
0.654184
0.622757
0.59111
0.559243
0.52715
0.494835
0.462291
0.429521
0.396522
0.363288
0.329827
0.296122
0.262193
0.228015
0.193599
0.158954
0.124046
0.0889092
0.0535278
0.0178822
-25.9153
-26.4011
-31.0634
-36.8084
-37.8933
-35.9706
-32.7296
-26.8071
-19.4053
-12.6212
-8.00807
-4.99709
-2.74334
-0.915845
0.23406
0.90785
1.33902
1.67179
1.90728
2.03005
2.08497
2.10519
2.10783
2.10207
2.09046
2.07505
2.05723
2.03787
2.01751
1.99648
1.97497
1.95311
1.93098
1.90862
1.88606
1.86332
1.8404
1.81731
1.79406
1.77063
1.74704
1.72329
1.69936
1.67527
1.65101
1.62658
1.60197
1.5772
1.55225
1.52712
1.50182
1.47634
1.45068
1.42484
1.39882
1.37261
1.34623
1.31965
1.29289
1.26594
1.2388
1.21147
1.18395
1.15623
1.12832
1.10021
1.07191
1.0434
1.0147
0.985797
0.95669
0.927379
0.897863
0.868141
0.83821
0.808071
0.77772
0.747158
0.716382
0.685391
0.654184
0.622757
0.591111
0.559243
0.52715
0.494835
0.462291
0.429522
0.396522
0.363289
0.329827
0.296122
0.262193
0.228015
0.1936
0.158954
0.124046
0.0889092
0.0535278
0.0178822
-26.1759
-26.6907
-30.7181
-35.6645
-36.6154
-34.8229
-31.7108
-26.1013
-19.0959
-12.8073
-8.49586
-5.24157
-2.75817
-1.00672
0.164381
0.897743
1.36054
1.67569
1.90038
2.01775
2.07152
2.09726
2.10426
2.10038
2.08951
2.07448
2.05688
2.03766
2.01738
1.9964
1.97492
1.95308
1.93097
1.90861
1.88606
1.86332
1.8404
1.81731
1.79406
1.77063
1.74704
1.72329
1.69936
1.67527
1.65101
1.62658
1.60197
1.5772
1.55225
1.52712
1.50182
1.47634
1.45068
1.42484
1.39882
1.37261
1.34623
1.31965
1.29289
1.26594
1.2388
1.21147
1.18395
1.15623
1.12832
1.10021
1.07191
1.0434
1.0147
0.985797
0.95669
0.927379
0.897863
0.868141
0.83821
0.808071
0.77772
0.747158
0.716382
0.685391
0.654184
0.622757
0.591111
0.559243
0.52715
0.494835
0.462291
0.429522
0.396522
0.363289
0.329828
0.296122
0.262193
0.228015
0.1936
0.158955
0.124046
0.0889092
0.0535277
0.0178822
-26.3785
-26.8973
-30.4608
-34.7266
-35.5593
-33.8067
-30.6925
-25.4865
-18.9956
-12.9707
-8.84001
-5.82297
-3.14004
-1.1154
0.0971311
0.804016
1.26016
1.63325
1.89139
2.02688
2.08158
2.10184
2.10431
2.09948
2.08879
2.07398
2.05656
2.03746
2.01726
1.99633
1.97488
1.95306
1.93095
1.90861
1.88605
1.86331
1.8404
1.81731
1.79405
1.77063
1.74704
1.72329
1.69936
1.67527
1.65101
1.62658
1.60197
1.5772
1.55225
1.52712
1.50182
1.47634
1.45068
1.42484
1.39882
1.37261
1.34623
1.31965
1.29289
1.26594
1.2388
1.21147
1.18395
1.15623
1.12832
1.10021
1.07191
1.0434
1.0147
0.985797
0.95669
0.927379
0.897863
0.868141
0.83821
0.808071
0.77772
0.747158
0.716382
0.685391
0.654184
0.622757
0.591111
0.559243
0.52715
0.494835
0.462291
0.429522
0.396522
0.363289
0.329828
0.296122
0.262193
0.228015
0.1936
0.158955
0.124046
0.0889092
0.0535277
0.0178822
-26.5387
-27.1622
-30.24
-33.9028
-34.6496
-32.9641
-29.8326
-24.7477
-18.7735
-13.4101
-9.2951
-6.05954
-3.44017
-1.43911
-0.0388788
0.806075
1.29692
1.62005
1.87115
2.0013
2.06007
2.09019
2.09974
2.09806
2.08807
2.07357
2.05631
2.03731
2.01717
1.99627
1.97485
1.95304
1.93094
1.9086
1.88605
1.86331
1.8404
1.81731
1.79405
1.77063
1.74704
1.72329
1.69936
1.67527
1.65101
1.62658
1.60197
1.5772
1.55225
1.52712
1.50182
1.47634
1.45068
1.42484
1.39882
1.37261
1.34623
1.31965
1.29289
1.26594
1.2388
1.21147
1.18395
1.15623
1.12832
1.10021
1.07191
1.0434
1.0147
0.985797
0.95669
0.927379
0.897864
0.868141
0.83821
0.808071
0.77772
0.747158
0.716383
0.685391
0.654184
0.622757
0.591111
0.559243
0.52715
0.494835
0.462291
0.429522
0.396522
0.363289
0.329828
0.296122
0.262193
0.228015
0.1936
0.158955
0.124046
0.0889092
0.0535277
0.0178822
-26.6593
-27.3084
-30.0331
-33.1615
-33.8319
-32.1954
-29.0494
-24.1342
-18.5511
-13.6533
-9.82556
-6.40231
-3.3265
-1.28496
-0.0424102
0.734128
1.18313
1.60477
1.89512
2.02759
2.07876
2.09654
2.10294
2.09791
2.08764
2.07325
2.0561
2.03718
2.01709
1.99623
1.97482
1.95303
1.93093
1.9086
1.88605
1.86331
1.8404
1.81731
1.79405
1.77063
1.74704
1.72329
1.69936
1.67527
1.65101
1.62658
1.60197
1.5772
1.55225
1.52712
1.50182
1.47634
1.45068
1.42484
1.39882
1.37261
1.34623
1.31965
1.29289
1.26594
1.2388
1.21147
1.18395
1.15623
1.12832
1.10021
1.07191
1.0434
1.0147
0.985797
0.95669
0.927379
0.897864
0.868141
0.83821
0.808071
0.77772
0.747158
0.716383
0.685391
0.654184
0.622757
0.591111
0.559243
0.52715
0.494835
0.462291
0.429522
0.396522
0.363289
0.329828
0.296122
0.262193
0.228015
0.1936
0.158955
0.124046
0.0889092
0.0535276
0.0178822
-26.7522
-27.5047
-29.8656
-32.713
-33.219
-31.5215
-28.258
-23.5306
-18.3879
-13.9168
-10.271
-6.85872
-4.00639
-1.67957
-0.109574
0.75433
1.23647
1.58507
1.84204
1.98539
2.05474
2.08703
2.09893
2.09679
2.08721
2.07301
2.05596
2.03709
2.01704
1.99619
1.9748
1.95302
1.93093
1.90859
1.88605
1.86331
1.8404
1.81731
1.79405
1.77063
1.74704
1.72329
1.69936
1.67527
1.65101
1.62658
1.60197
1.5772
1.55225
1.52712
1.50182
1.47634
1.45068
1.42484
1.39882
1.37261
1.34623
1.31965
1.29289
1.26594
1.2388
1.21147
1.18395
1.15623
1.12832
1.10021
1.07191
1.0434
1.0147
0.985797
0.95669
0.927379
0.897864
0.868141
0.83821
0.808071
0.77772
0.747158
0.716383
0.685391
0.654184
0.622758
0.591111
0.559243
0.52715
0.494835
0.462291
0.429522
0.396522
0.363289
0.329828
0.296122
0.262193
0.228015
0.1936
0.158955
0.124046
0.0889092
0.0535276
0.0178822
-26.8183
-27.6489
-29.7456
-32.1626
-32.6991
-31.0405
-27.5613
-22.8577
-18.1607
-14.269
-10.7557
-7.02811
-3.73712
-1.54085
-0.149416
0.682604
1.21228
1.60342
1.87627
2.01466
2.07222
2.09431
2.10102
2.09728
2.08712
2.07287
2.05586
2.03703
2.017
1.99617
1.97479
1.95301
1.93092
1.90859
1.88605
1.86331
1.8404
1.81731
1.79405
1.77063
1.74704
1.72329
1.69936
1.67527
1.65101
1.62658
1.60197
1.5772
1.55225
1.52712
1.50182
1.47634
1.45068
1.42484
1.39882
1.37261
1.34623
1.31965
1.29289
1.26594
1.2388
1.21147
1.18395
1.15623
1.12832
1.10021
1.07191
1.0434
1.0147
0.985797
0.95669
0.927379
0.897864
0.868141
0.83821
0.808071
0.77772
0.747159
0.716383
0.685391
0.654184
0.622758
0.591111
0.559243
0.52715
0.494835
0.462291
0.429522
0.396522
0.363289
0.329828
0.296122
0.262193
0.228015
0.1936
0.158955
0.124046
0.0889092
0.0535275
0.0178823
-26.8559
-27.7888
-29.6176
-31.6913
-32.2944
-30.6061
-26.9161
-22.2192
-17.9527
-14.6905
-11.1956
-7.37178
-4.24247
-1.78084
-0.184343
0.721926
1.22048
1.58185
1.83776
1.98293
2.05413
2.08665
2.09832
2.09648
2.0869
2.0728
2.05582
2.03701
2.01699
1.99617
1.97479
1.95301
1.93092
1.90859
1.88605
1.86331
1.8404
1.81731
1.79406
1.77063
1.74704
1.72329
1.69936
1.67527
1.65101
1.62658
1.60197
1.5772
1.55225
1.52712
1.50182
1.47634
1.45068
1.42484
1.39882
1.37261
1.34623
1.31965
1.29289
1.26594
1.2388
1.21147
1.18395
1.15623
1.12832
1.10021
1.07191
1.0434
1.0147
0.985797
0.95669
0.927379
0.897864
0.868141
0.83821
0.808071
0.77772
0.747159
0.716383
0.685391
0.654184
0.622758
0.591111
0.559243
0.52715
0.494835
0.462291
0.429522
0.396522
0.363289
0.329828
0.296122
0.262193
0.228015
0.1936
0.158955
0.124047
0.0889091
0.0535275
0.0178823
-26.89
-27.9105
-29.4939
-31.3178
-32.0271
-30.2733
-26.2946
-21.5566
-17.732
-15.0908
-11.8039
-7.61
-4.08495
-1.72571
-0.221046
0.666346
1.21751
1.60906
1.8728
2.01056
2.07035
2.094
2.10087
2.0972
2.0871
2.07285
2.05584
2.03701
2.01699
1.99617
1.97479
1.95301
1.93093
1.90859
1.88605
1.86331
1.8404
1.81731
1.79406
1.77063
1.74704
1.72329
1.69936
1.67527
1.65101
1.62658
1.60197
1.5772
1.55225
1.52712
1.50182
1.47634
1.45068
1.42484
1.39882
1.37261
1.34623
1.31965
1.29289
1.26594
1.2388
1.21147
1.18395
1.15623
1.12832
1.10021
1.07191
1.0434
1.0147
0.985797
0.95669
0.927379
0.897864
0.868141
0.83821
0.808071
0.77772
0.747159
0.716383
0.685391
0.654184
0.622758
0.591111
0.559243
0.52715
0.494835
0.462291
0.429522
0.396522
0.363289
0.329828
0.296122
0.262193
0.228015
0.1936
0.158955
0.124047
0.0889091
0.0535275
0.0178823
-26.9047
-28.0765
-29.3797
-30.9928
-31.8348
-30.1103
-25.709
-20.7846
-17.4508
-15.3641
-12.024
-7.73765
-4.36266
-1.77881
-0.188598
0.707569
1.23016
1.59675
1.84961
1.9912
2.05921
2.08933
2.09948
2.09707
2.0872
2.07297
2.05593
2.03708
2.01704
1.9962
1.97481
1.95302
1.93093
1.9086
1.88605
1.86331
1.8404
1.81731
1.79406
1.77063
1.74704
1.72329
1.69936
1.67527
1.65101
1.62658
1.60197
1.5772
1.55225
1.52712
1.50182
1.47634
1.45068
1.42484
1.39882
1.37261
1.34623
1.31965
1.29289
1.26594
1.2388
1.21147
1.18395
1.15623
1.12832
1.10021
1.07191
1.0434
1.0147
0.985797
0.95669
0.927379
0.897864
0.868141
0.83821
0.808071
0.77772
0.747159
0.716383
0.685392
0.654184
0.622758
0.591111
0.559243
0.52715
0.494835
0.462291
0.429522
0.396522
0.363289
0.329828
0.296122
0.262193
0.228016
0.1936
0.158955
0.124047
0.0889089
0.0535275
0.0178824
-26.8732
-28.1198
-29.3018
-30.81
-31.7212
-29.8923
-25.4121
-20.3503
-17.0643
-15.3557
-12.1812
-7.74186
-4.25686
-1.77446
-0.214136
0.694428
1.2343
1.61429
1.87075
2.00857
2.07013
2.09477
2.10168
2.09788
2.08752
2.07311
2.05599
2.03711
2.01706
1.99621
1.97482
1.95303
1.93094
1.9086
1.88605
1.86332
1.8404
1.81731
1.79406
1.77063
1.74704
1.72329
1.69936
1.67527
1.65101
1.62658
1.60197
1.5772
1.55225
1.52712
1.50182
1.47634
1.45068
1.42484
1.39882
1.37261
1.34623
1.31965
1.29289
1.26594
1.2388
1.21147
1.18395
1.15623
1.12832
1.10021
1.07191
1.0434
1.0147
0.985797
0.95669
0.927379
0.897864
0.868141
0.83821
0.808071
0.77772
0.747159
0.716383
0.685392
0.654184
0.622758
0.591111
0.559243
0.52715
0.494835
0.462292
0.429522
0.396522
0.363289
0.329828
0.296122
0.262193
0.228016
0.1936
0.158955
0.124047
0.0889089
0.0535274
0.0178824
-19.8549
-22.2497
-27.5722
-47.0163
-59.7085
-58.0625
-45.8642
-27.0869
-10.3469
-0.239732
4.36249
4.75831
4.64437
4.11864
3.61239
3.21189
2.92097
2.7071
2.54454
2.42015
2.32603
2.25531
2.20163
2.15974
2.12556
2.09629
2.07001
2.04553
2.02207
1.99917
1.97655
1.95403
1.93151
1.90892
1.88623
1.86341
1.84045
1.81734
1.79407
1.77064
1.74705
1.72329
1.69936
1.67527
1.65101
1.62658
1.60197
1.5772
1.55225
1.52712
1.50182
1.47634
1.45068
1.42484
1.39882
1.37261
1.34622
1.31965
1.29289
1.26594
1.2388
1.21147
1.18395
1.15623
1.12832
1.10021
1.07191
1.0434
1.0147
0.985797
0.95669
0.92738
0.897863
0.868141
0.838211
0.808071
0.777721
0.747158
0.716383
0.685392
0.654184
0.622758
0.591111
0.559243
0.527151
0.494835
0.462292
0.429522
0.396521
0.363289
0.329828
0.296122
0.262193
0.228016
0.1936
0.158955
0.124047
0.088909
0.0535275
0.0178824
-20.1962
-22.0965
-27.9124
-47.5556
-60.4857
-58.6545
-46.4529
-27.4027
-10.5285
-0.31761
4.31601
4.72241
4.61113
4.09418
3.59548
3.20084
2.91384
2.70246
2.54152
2.41823
2.32489
2.2547
2.20133
2.15963
2.12554
2.0963
2.07003
2.04555
2.02209
1.99918
1.97656
1.95404
1.93151
1.90893
1.88623
1.86341
1.84045
1.81734
1.79407
1.77064
1.74705
1.72329
1.69936
1.67527
1.65101
1.62658
1.60197
1.5772
1.55225
1.52712
1.50182
1.47634
1.45068
1.42484
1.39882
1.37261
1.34622
1.31965
1.29289
1.26594
1.2388
1.21147
1.18395
1.15623
1.12832
1.10021
1.07191
1.0434
1.0147
0.985797
0.95669
0.92738
0.897863
0.868141
0.838211
0.808071
0.777721
0.747158
0.716383
0.685392
0.654184
0.622758
0.591111
0.559243
0.527151
0.494835
0.462292
0.429522
0.396521
0.363289
0.329828
0.296122
0.262193
0.228016
0.193599
0.158955
0.124047
0.088909
0.0535275
0.0178824
-20.006
-22.4836
-28.6699
-48.6
-61.7149
-59.7405
-47.4097
-28.0738
-10.8503
-0.460719
4.21237
4.65365
4.5438
4.04399
3.5603
3.17734
2.89839
2.69243
2.53519
2.41447
2.32291
2.25383
2.20109
2.15959
2.1256
2.09638
2.0701
2.0456
2.02213
1.99921
1.97658
1.95405
1.93152
1.90893
1.88624
1.86342
1.84045
1.81734
1.79407
1.77064
1.74705
1.72329
1.69936
1.67527
1.65101
1.62658
1.60197
1.5772
1.55225
1.52712
1.50182
1.47634
1.45068
1.42484
1.39882
1.37261
1.34622
1.31965
1.29289
1.26594
1.2388
1.21147
1.18395
1.15623
1.12832
1.10021
1.07191
1.0434
1.0147
0.985797
0.95669
0.92738
0.897863
0.868141
0.838211
0.808071
0.777721
0.747158
0.716383
0.685392
0.654184
0.622758
0.591111
0.559243
0.527151
0.494835
0.462292
0.429522
0.396521
0.363289
0.329828
0.296122
0.262193
0.228016
0.1936
0.158955
0.124047
0.0889091
0.0535276
0.0178823
-20.3246
-22.7232
-29.9585
-50.1833
-63.1148
-61.2338
-48.7051
-29.2173
-11.3114
-0.652686
4.07453
4.55269
4.44276
3.96825
3.50732
3.14211
2.87555
2.67797
2.52623
2.4091
2.31982
2.25211
2.20015
2.1591
2.12535
2.09625
2.07005
2.04558
2.02211
1.99921
1.97658
1.95405
1.93152
1.90893
1.88624
1.86342
1.84045
1.81734
1.79407
1.77064
1.74705
1.72329
1.69936
1.67527
1.65101
1.62658
1.60197
1.5772
1.55225
1.52712
1.50182
1.47634
1.45068
1.42484
1.39882
1.37261
1.34622
1.31965
1.29289
1.26594
1.2388
1.21147
1.18395
1.15623
1.12832
1.10021
1.07191
1.0434
1.0147
0.985797
0.95669
0.92738
0.897863
0.868141
0.838211
0.808071
0.777721
0.747158
0.716383
0.685392
0.654184
0.622758
0.591111
0.559243
0.527151
0.494835
0.462292
0.429522
0.396521
0.363289
0.329828
0.296122
0.262193
0.228016
0.1936
0.158955
0.124047
0.0889092
0.0535276
0.0178823
-20.7049
-23.3619
-31.4044
-51.7217
-64.7693
-63.0399
-50.4165
-30.8722
-12.0278
-0.919533
3.88999
4.42193
4.31083
3.86802
3.4372
3.09548
2.8452
2.65861
2.51414
2.40173
2.31547
2.24964
2.19879
2.15838
2.12497
2.09606
2.06996
2.04553
2.0221
1.9992
1.97658
1.95405
1.93152
1.90893
1.88624
1.86342
1.84045
1.81734
1.79407
1.77064
1.74705
1.72329
1.69936
1.67527
1.65101
1.62658
1.60197
1.5772
1.55225
1.52712
1.50182
1.47634
1.45068
1.42484
1.39882
1.37261
1.34622
1.31965
1.29289
1.26594
1.2388
1.21147
1.18395
1.15623
1.12832
1.10021
1.07191
1.0434
1.0147
0.985797
0.95669
0.92738
0.897863
0.868141
0.838211
0.808071
0.777721
0.747158
0.716383
0.685392
0.654183
0.622758
0.591111
0.559243
0.527151
0.494835
0.462291
0.429522
0.396521
0.363289
0.329828
0.296122
0.262193
0.228015
0.1936
0.158955
0.124046
0.0889092
0.0535276
0.0178822
-20.7553
-24.0029
-33.0192
-53.4419
-66.4552
-65.0584
-52.483
-32.7976
-13.0731
-1.36526
3.65035
4.26096
4.15216
3.74564
3.35102
3.03812
2.80793
2.63491
2.49939
2.39274
2.31012
2.24654
2.19704
2.15741
2.12443
2.09577
2.06979
2.04544
2.02205
1.99917
1.97656
1.95404
1.93152
1.90893
1.88624
1.86342
1.84045
1.81734
1.79407
1.77064
1.74705
1.72329
1.69936
1.67527
1.65101
1.62658
1.60197
1.5772
1.55225
1.52712
1.50182
1.47634
1.45068
1.42484
1.39882
1.37261
1.34622
1.31965
1.29289
1.26594
1.2388
1.21147
1.18395
1.15623
1.12832
1.10021
1.07191
1.0434
1.0147
0.985797
0.95669
0.92738
0.897863
0.868141
0.838211
0.808071
0.777721
0.747158
0.716383
0.685392
0.654183
0.622758
0.591111
0.559243
0.527151
0.494835
0.462291
0.429522
0.396521
0.363289
0.329828
0.296122
0.262193
0.228015
0.1936
0.158955
0.124046
0.0889093
0.0535277
0.0178822
-21.049
-24.55
-34.3167
-55.3274
-68.1288
-67.1659
-54.4236
-34.7082
-14.3651
-1.99113
3.37049
4.06588
3.96975
3.60417
3.25056
2.97083
2.76406
2.60699
2.48197
2.38208
2.30372
2.24278
2.19486
2.15616
2.12372
2.09536
2.06956
2.04532
2.02197
1.99913
1.97654
1.95403
1.93152
1.90893
1.88624
1.86342
1.84045
1.81734
1.79407
1.77064
1.74705
1.72329
1.69936
1.67527
1.65101
1.62658
1.60197
1.5772
1.55225
1.52712
1.50182
1.47634
1.45068
1.42484
1.39882
1.37261
1.34622
1.31965
1.29289
1.26594
1.2388
1.21147
1.18395
1.15623
1.12832
1.10021
1.07191
1.0434
1.0147
0.985797
0.95669
0.92738
0.897863
0.868141
0.838211
0.808071
0.777721
0.747158
0.716383
0.685392
0.654183
0.622758
0.591111
0.559243
0.527151
0.494835
0.462291
0.429522
0.396521
0.363289
0.329828
0.296122
0.262193
0.228015
0.1936
0.158955
0.124046
0.0889093
0.0535277
0.0178822
-20.8348
-24.9202
-35.4065
-56.8103
-69.7643
-68.9791
-56.4051
-36.6742
-15.6737
-2.7829
3.02366
3.8347
3.76604
3.44699
3.13823
2.89494
2.71437
2.5753
2.4622
2.36995
2.29639
2.23843
2.19232
2.15468
2.12287
2.09487
2.06928
2.04515
2.02188
1.99908
1.97651
1.95402
1.93151
1.90892
1.88623
1.86342
1.84045
1.81734
1.79407
1.77064
1.74705
1.72329
1.69936
1.67527
1.65101
1.62658
1.60197
1.5772
1.55225
1.52712
1.50182
1.47634
1.45068
1.42484
1.39882
1.37261
1.34622
1.31965
1.29289
1.26594
1.2388
1.21147
1.18395
1.15623
1.12832
1.10021
1.07191
1.0434
1.0147
0.985797
0.95669
0.92738
0.897863
0.868141
0.838211
0.80807
0.777721
0.747158
0.716383
0.685392
0.654183
0.622758
0.591111
0.559243
0.527151
0.494835
0.462291
0.429522
0.396521
0.363289
0.329828
0.296122
0.262193
0.228015
0.1936
0.158955
0.124046
0.0889093
0.0535278
0.0178822
-21.2065
-25.1878
-36.2131
-57.9382
-71.0269
-70.7295
-58.1813
-38.5791
-16.9767
-3.65873
2.60448
3.57954
3.54531
3.27758
3.01661
2.81183
2.65949
2.54017
2.44023
2.35643
2.28818
2.23351
2.18941
2.15297
2.12187
2.09429
2.06894
2.04496
2.02177
1.99902
1.97647
1.95399
1.93149
1.90892
1.88623
1.86341
1.84045
1.81734
1.79407
1.77064
1.74705
1.72329
1.69936
1.67527
1.65101
1.62658
1.60197
1.5772
1.55225
1.52712
1.50182
1.47634
1.45068
1.42484
1.39882
1.37261
1.34622
1.31965
1.29289
1.26594
1.2388
1.21147
1.18395
1.15623
1.12832
1.10021
1.07191
1.0434
1.0147
0.985797
0.95669
0.92738
0.897863
0.868141
0.838211
0.80807
0.777721
0.747158
0.716383
0.685392
0.654183
0.622758
0.591111
0.559243
0.527151
0.494835
0.462291
0.429522
0.396521
0.363289
0.329828
0.296122
0.262193
0.228015
0.1936
0.158955
0.124046
0.0889093
0.0535278
0.0178821
-21.4197
-25.7835
-36.8005
-58.7306
-71.7912
-71.8137
-59.6179
-40.2187
-18.1708
-4.49144
2.10713
3.30608
3.31448
3.09907
2.88831
2.72325
2.60042
2.50212
2.41638
2.3417
2.2792
2.2281
2.18618
2.15106
2.12073
2.09362
2.06855
2.04473
2.02163
1.99894
1.97643
1.95397
1.93148
1.90891
1.88623
1.86341
1.84045
1.81734
1.79407
1.77064
1.74705
1.72329
1.69936
1.67527
1.65101
1.62658
1.60197
1.5772
1.55225
1.52712
1.50182
1.47634
1.45068
1.42484
1.39882
1.37261
1.34622
1.31965
1.29289
1.26594
1.2388
1.21147
1.18395
1.15623
1.12832
1.10021
1.07191
1.0434
1.0147
0.985797
0.95669
0.92738
0.897863
0.868141
0.838211
0.80807
0.777721
0.747158
0.716382
0.685392
0.654183
0.622758
0.591111
0.559243
0.527151
0.494835
0.462291
0.429522
0.396521
0.363289
0.329828
0.296122
0.262193
0.228015
0.193599
0.158955
0.124046
0.0889093
0.0535279
0.0178821
-21.2256
-25.844
-37.0718
-58.9066
-72.1817
-72.3642
-60.589
-41.5428
-19.2523
-5.24557
1.59297
3.0117
3.08185
2.91585
2.75547
2.63073
2.53804
2.46161
2.39087
2.32592
2.26952
2.22223
2.18265
2.14895
2.11948
2.09288
2.06811
2.04447
2.02148
1.99885
1.97638
1.95394
1.93146
1.9089
1.88622
1.86341
1.84045
1.81734
1.79407
1.77064
1.74705
1.72329
1.69936
1.67527
1.65101
1.62658
1.60197
1.5772
1.55225
1.52712
1.50182
1.47634
1.45068
1.42484
1.39882
1.37261
1.34622
1.31965
1.29289
1.26594
1.2388
1.21147
1.18395
1.15623
1.12832