/*--------------------------------*- C++ -*----------------------------------*\
| =========                 |                                                 |
| \\      /  F ield         | OpenFOAM: The Open Source CFD Toolbox           |
|  \\    /   O peration     | Version:  2.4.0                                 |
|   \\  /    A nd           | Web:      www.OpenFOAM.org                      |
|    \\/     M anipulation  |                                                 |
\*---------------------------------------------------------------------------*/
FoamFile
{
    version     2.0;
    format      ascii;
    class       volScalarField;
    location    "1.35";
    object      k;
}
// * * * * * * * * * * * * * * * * * * * * * * * * * * * * * * * * * * * * * //

dimensions      [0 2 -2 0 0 0 0];

internalField   nonuniform List<scalar> 
8800
(
8.10986
10.2793
8.78071
6.84555
5.67753
5.01072
4.4862
4.18748
3.86743
3.71809
3.48822
3.4212
3.24614
3.20381
3.0592
3.02677
2.90192
2.86193
2.8192
2.6517
1.39023
4.36512
5.30839
5.29559
5.10681
4.86002
4.52605
4.34033
4.06573
3.93912
3.71508
3.63998
3.47231
3.41623
3.29443
3.24702
3.14609
3.09738
3.01928
3.00134
0.0833052
0.747363
1.54034
1.96969
2.23946
2.47304
2.54809
2.62328
2.61385
2.61036
2.57728
2.55647
2.51275
2.48178
2.45691
2.41175
2.39594
2.35456
2.31413
2.28955
0.00328234
0.0713034
0.240483
0.441177
0.57023
0.71423
0.827952
0.936734
1.02197
1.0943
1.16857
1.2022
1.2703
1.29373
1.34721
1.36054
1.40675
1.40865
1.42177
1.41161
0.000117794
0.00506228
0.0207869
0.0542565
0.09042
0.117595
0.166058
0.20194
0.247718
0.278058
0.327366
0.348808
0.395774
0.418697
0.465542
0.487019
0.538138
0.555544
0.591555
0.60611
2.57994e-05
0.000323109
0.00139288
0.00379968
0.00854054
0.0117293
0.0188191
0.0240266
0.0346652
0.041032
0.0546144
0.0607926
0.0723576
0.0857517
0.0932808
0.107083
0.120381
0.137611
0.14519
0.16169
2.28347e-05
4.75832e-05
0.000116472
0.000340203
0.000519295
0.000900219
0.0012587
0.00202635
0.00255732
0.00374826
0.00472951
0.00595316
0.00696536
0.00965141
0.0108061
0.0134325
0.0152082
0.0195942
0.0212774
0.0269634
2.10869e-05
3.61236e-05
4.82866e-05
8.58326e-05
9.39339e-05
0.00010205
0.000119398
0.000189147
0.000221604
0.00031673
0.000358433
0.000454937
0.000487894
0.000693565
0.000742374
0.000980666
0.00111503
0.00163898
0.00185156
0.00279586
2.07273e-05
2.90636e-05
3.86374e-05
5.71499e-05
9.13556e-05
8.75601e-05
8.16691e-05
8.07624e-05
8.06656e-05
8.56039e-05
0.000102977
0.000112233
0.000116636
0.00013416
0.000136778
0.000146863
0.000150119
0.000179267
0.000189686
0.000241109
2.06242e-05
2.74602e-05
5.13557e-05
5.24149e-05
5.28674e-05
6.47744e-05
7.09733e-05
7.85241e-05
7.89584e-05
7.7947e-05
7.64688e-05
7.56903e-05
7.51408e-05
7.63183e-05
8.03342e-05
8.77331e-05
8.99463e-05
9.11202e-05
9.18162e-05
9.4495e-05
2.06452e-05
2.73028e-05
3.63545e-05
6.12453e-05
7.11263e-05
7.05977e-05
6.74122e-05
6.61019e-05
6.62297e-05
7.26135e-05
7.84003e-05
8.06829e-05
8.42272e-05
8.35845e-05
8.30524e-05
8.43843e-05
8.41843e-05
8.43386e-05
8.44048e-05
8.90625e-05
2.06913e-05
2.82693e-05
4.84364e-05
6.15081e-05
6.05557e-05
6.41304e-05
7.23616e-05
8.05781e-05
8.5572e-05
9.25707e-05
9.22917e-05
9.59854e-05
9.73378e-05
9.8964e-05
0.000105853
0.000119957
0.000129072
0.000139336
0.000166958
0.000230051
2.10016e-05
3.08046e-05
4.58177e-05
7.72164e-05
8.73093e-05
0.000115468
0.000132913
0.000174696
0.000210215
0.000289334
0.000327092
0.000450281
0.000508397
0.000644661
0.000753896
0.00102161
0.00118221
0.00152423
0.00189419
0.00280891
2.16634e-05
4.32295e-05
0.000121972
0.000341036
0.000484933
0.00086961
0.00120416
0.0020369
0.00265899
0.00400037
0.00468923
0.00651349
0.00740989
0.00949725
0.0108757
0.0141267
0.0159224
0.0203447
0.0230932
0.030651
2.48695e-05
0.000307125
0.00152354
0.00457315
0.0068515
0.012915
0.017291
0.0269117
0.0331042
0.0452798
0.0510036
0.0651405
0.0715839
0.0860888
0.0939771
0.112194
0.121224
0.143993
0.156547
0.190202
0.000123853
0.00491851
0.0235648
0.0551706
0.079571
0.130116
0.159676
0.206804
0.244027
0.289647
0.312024
0.363788
0.385556
0.432002
0.454619
0.506119
0.528987
0.58799
0.616165
0.687948
0.00337229
0.0695322
0.262528
0.415436
0.580759
0.709192
0.832071
0.926799
1.03158
1.09469
1.15263
1.22372
1.25334
1.30603
1.33266
1.38248
1.40168
1.45371
1.47378
1.52264
0.0846977
0.72753
1.56924
1.9338
2.28308
2.43191
2.5792
2.59536
2.62853
2.5979
2.58767
2.54205
2.52518
2.47345
2.46035
2.41885
2.40852
2.38084
2.36954
2.34288
1.40732
4.34907
5.32028
5.2843
5.13299
4.79505
4.59174
4.2752
4.12791
3.87113
3.7807
3.57419
3.52079
3.36804
3.32938
3.2014
3.17315
3.05437
3.01621
2.91532
8.12065
10.2617
8.79449
6.81417
5.71798
4.95448
4.54247
4.12973
3.9249
3.64996
3.55735
3.34521
3.30319
3.13499
3.10554
2.94292
2.91205
2.73652
2.67463
2.45772
1.85896
1.36649
1.09934
0.934961
0.827993
0.76143
0.715069
0.683703
0.65867
0.636913
0.618582
0.601332
0.586224
0.57048
0.557061
0.543542
0.533053
0.524394
0.519271
0.516773
0.515126
0.514777
0.513864
0.513191
0.511673
0.509953
0.50577
0.50065
0.489722
0.476297
0.454016
0.432736
0.407251
0.388941
0.37277
0.361113
0.35435
0.350302
0.349308
0.349522
0.350205
0.351184
0.354869
0.357075
0.363309
0.36475
0.369101
0.370246
0.374992
0.376025
0.380694
0.381609
0.385981
0.386962
0.391224
0.392098
0.394961
0.394678
0.395568
0.393888
0.39027
0.383408
0.366172
0.351626
0.316974
0.295103
0.249001
0.231539
0.196592
0.184152
0.16516
0.156348
0.148269
0.148102
0.149806
0.154676
0.168324
0.17808
0.19954
0.215657
0.239394
0.256874
0.276555
0.296262
0.305771
0.322717
0.327075
0.337849
0.339349
0.341339
0.342784
0.339694
0.34024
0.336406
0.336517
0.332306
0.331811
0.32771
0.327452
0.323856
0.323347
0.320819
0.32036
0.318495
0.319575
0.318042
0.319333
0.319468
0.317278
0.318312
0.313011
0.308574
0.292567
0.283981
0.261378
0.254155
0.238786
0.238469
0.237301
0.239936
0.239951
0.24207
0.239834
0.240095
0.238722
0.236849
0.23175
0.22727
0.217432
0.206779
0.192886
0.173261
0.158593
0.139476
0.124655
0.106742
0.0976457
0.0829521
0.0769449
0.0670174
0.0600768
0.0534148
0.0466548
0.0417859
0.0365297
0.0325686
0.0277003
0.0239305
0.0199587
0.0165461
0.0135215
0.0108225
0.00876243
0.00702311
0.00590616
0.00512323
0.00501169
0.00513489
0.00549319
0.00668606
0.00790399
0.00903868
0.0120637
0.0144457
0.0162274
0.0187749
0.0261318
0.0359523
0.0481099
0.0726196
0.140753
0.213727
0.232141
0.228794
0.212283
0.20766
0.203019
0.207008
0.20933
0.217568
0.21516
0.208926
0.182598
0.136356
0.0995558
0.0799251
0.0576918
0.0365393
0.0248334
0.0210147
0.0205866
0.0214081
0.027106
0.0460101
0.0995272
0.167422
0.19424
0.213513
0.333853
0.895649
2.56103
2.1089
1.77136
1.52702
1.34521
1.20828
1.10608
1.02704
0.966086
0.915977
0.874068
0.838788
0.806769
0.78154
0.755147
0.73635
0.71359
0.699915
0.680513
0.670993
0.65523
0.648807
0.636519
0.631621
0.621993
0.618566
0.611574
0.608474
0.60222
0.5976
0.588612
0.579841
0.570349
0.556941
0.549457
0.536425
0.530548
0.519567
0.515768
0.50767
0.504728
0.498017
0.495848
0.490602
0.489238
0.484634
0.48306
0.477561
0.475947
0.470514
0.469076
0.464017
0.463097
0.459111
0.459111
0.457217
0.458455
0.458235
0.460317
0.461363
0.463367
0.463181
0.461512
0.457066
0.449594
0.436946
0.423532
0.404148
0.391479
0.369417
0.360354
0.341603
0.336576
0.324817
0.324352
0.322201
0.325857
0.327405
0.334911
0.338321
0.346312
0.350784
0.354688
0.358848
0.360801
0.362365
0.364705
0.364251
0.365021
0.362336
0.362122
0.358013
0.357207
0.351949
0.350467
0.345359
0.343321
0.337047
0.33561
0.330018
0.329145
0.324878
0.324829
0.322559
0.323702
0.322818
0.324328
0.325284
0.328411
0.329248
0.33162
0.329833
0.329473
0.326115
0.318865
0.314082
0.301624
0.294601
0.28059
0.274938
0.261984
0.256573
0.244299
0.237102
0.221435
0.212442
0.190943
0.179837
0.156455
0.137297
0.1128
0.0939314
0.0747671
0.0593754
0.0470758
0.038053
0.032112
0.026395
0.0233001
0.0197168
0.0173895
0.0151535
0.0131731
0.0116949
0.0100914
0.00912448
0.00780853
0.00703096
0.00601551
0.00537859
0.00469346
0.00425342
0.00395281
0.00376762
0.00381769
0.00398479
0.00440573
0.00485215
0.00567512
0.00797179
0.00947834
0.0118455
0.016375
0.0202828
0.0233823
0.0304675
0.0434305
0.0564029
0.0772782
0.142192
0.231321
0.254678
0.248393
0.204579
0.164053
0.139537
0.139391
0.144686
0.168992
0.195592
0.218546
0.220033
0.216853
0.195166
0.140667
0.0991909
0.0780603
0.0585685
0.0365194
0.0251155
0.0215351
0.0208714
0.0218529
0.027774
0.0476947
0.101019
0.177762
0.196555
0.293494
0.559738
2.07379
1.84571
1.63684
1.46533
1.32419
1.20968
1.11574
1.04138
0.977074
0.927711
0.879068
0.845511
0.80497
0.781563
0.74595
0.729056
0.699559
0.685668
0.662948
0.650135
0.633228
0.621641
0.608567
0.598804
0.587845
0.57965
0.573101
0.564602
0.561465
0.55468
0.551382
0.544628
0.540863
0.533244
0.52865
0.520887
0.516635
0.509092
0.505339
0.499378
0.495115
0.49173
0.485865
0.483511
0.478681
0.475522
0.470192
0.466701
0.461233
0.455318
0.451803
0.444521
0.441573
0.435219
0.43319
0.428177
0.427509
0.426032
0.427183
0.42851
0.432196
0.434689
0.439427
0.441973
0.442786
0.441063
0.439973
0.434362
0.432152
0.423671
0.421071
0.411744
0.408722
0.400562
0.397676
0.391577
0.388456
0.385904
0.380061
0.378206
0.37366
0.371416
0.364979
0.362192
0.355295
0.351491
0.345195
0.335665
0.33086
0.323528
0.313741
0.309411
0.299203
0.294172
0.284946
0.279962
0.273203
0.266408
0.261175
0.255518
0.252207
0.246086
0.244091
0.23981
0.238665
0.236301
0.236314
0.236531
0.239328
0.240162
0.245588
0.246627
0.250855
0.250603
0.250865
0.248222
0.245874
0.238183
0.23184
0.222261
0.207875
0.191928
0.177618
0.154047
0.135901
0.113977
0.0936252
0.0747183
0.0574197
0.0451675
0.0347012
0.0272556
0.0211824
0.0170611
0.013651
0.0112225
0.00933644
0.00778779
0.00681537
0.00572784
0.0052663
0.00448614
0.00420952
0.00376119
0.00351728
0.00332753
0.00315777
0.00303022
0.00294055
0.00292345
0.00291132
0.00300733
0.00316251
0.00335603
0.0036724
0.00446425
0.00554432
0.00687538
0.0102086
0.0140524
0.0166032
0.0221578
0.0284321
0.0328162
0.0383026
0.0532284
0.0685769
0.0864353
0.128252
0.237841
0.275288
0.264714
0.192239
0.103827
0.0812923
0.0700173
0.0713434
0.0772698
0.100218
0.120516
0.17347
0.203481
0.219572
0.216986
0.197635
0.140787
0.0978034
0.0763143
0.05762
0.0357317
0.025135
0.022018
0.0212052
0.022235
0.0281864
0.0483729
0.129695
0.173179
0.218937
0.354532
1.32404
1.22938
1.13697
1.05148
0.973923
0.909611
0.846423
0.801332
0.752401
0.720156
0.684087
0.658382
0.62864
0.608772
0.581028
0.565309
0.541598
0.525948
0.510819
0.492431
0.483834
0.467796
0.45835
0.448746
0.43631
0.430501
0.420957
0.413721
0.409861
0.40265
0.398919
0.396672
0.390281
0.388611
0.383517
0.381609
0.375922
0.373591
0.368217
0.365907
0.358866
0.356853
0.350857
0.34925
0.344074
0.342135
0.33789
0.335762
0.330157
0.327772
0.32119
0.318954
0.312785
0.310495
0.305617
0.304181
0.300812
0.300784
0.300221
0.302137
0.30358
0.308517
0.313014
0.320622
0.330589
0.336204
0.347538
0.351446
0.357687
0.359615
0.360273
0.359587
0.358125
0.355243
0.350468
0.347259
0.339214
0.33473
0.324849
0.319778
0.308093
0.301812
0.288412
0.281597
0.266869
0.25891
0.244804
0.235479
0.222479
0.214463
0.20041
0.194046
0.181139
0.17523
0.164061
0.158358
0.149369
0.143902
0.137931
0.131061
0.127933
0.121882
0.118311
0.11513
0.110277
0.109048
0.105931
0.104614
0.10444
0.104517
0.105172
0.107354
0.107916
0.108383
0.108163
0.106125
0.104239
0.0989986
0.0930462
0.0851823
0.0742128
0.0644328
0.0549022
0.0447354
0.0371464
0.029175
0.0234447
0.0182122
0.0142397
0.0111339
0.00866501
0.00696809
0.00564936
0.00466822
0.00406892
0.00344867
0.00312493
0.0027633
0.00256807
0.00234936
0.00227937
0.00211386
0.00211375
0.0020468
0.00209352
0.00208272
0.00216735
0.0022149
0.00238137
0.00251405
0.00267451
0.00295875
0.00370904
0.00456496
0.00632688
0.00943587
0.0122167
0.0172588
0.0251743
0.0294168
0.0347166
0.0431881
0.0493509
0.054589
0.0665091
0.0841073
0.0996698
0.124324
0.214289
0.292697
0.284236
0.191429
0.0934014
0.0653595
0.0576113
0.057685
0.0587
0.0656903
0.0800648
0.105431
0.121523
0.165967
0.19428
0.213709
0.207931
0.188167
0.131043
0.0931041
0.0747924
0.057261
0.0353949
0.0257356
0.0221941
0.0220769
0.0257357
0.0340546
0.0648304
0.129823
0.156746
0.232589
0.585916
0.560637
0.535661
0.5109
0.479176
0.462763
0.432757
0.415126
0.396894
0.37539
0.367114
0.350007
0.341237
0.331357
0.318279
0.31161
0.296675
0.286595
0.279024
0.265542
0.261004
0.253282
0.248736
0.243757
0.23682
0.233874
0.227103
0.220595
0.218653
0.212812
0.21051
0.206764
0.204342
0.203097
0.199215
0.197176
0.196208
0.193257
0.192595
0.190485
0.189293
0.187553
0.182853
0.181631
0.178086
0.174885
0.171217
0.168665
0.164624
0.162723
0.157038
0.155395
0.151004
0.149733
0.146489
0.145894
0.145612
0.146422
0.146888
0.149288
0.150615
0.153547
0.156385
0.158728
0.165096
0.168446
0.173764
0.180869
0.184485
0.192144
0.195177
0.199027
0.201211
0.200969
0.200062
0.198153
0.193511
0.18836
0.184472
0.174324
0.168465
0.158228
0.148973
0.139269
0.129604
0.117565
0.110813
0.0981881
0.0921414
0.0827243
0.0762562
0.0703856
0.0639377
0.060338
0.0547225
0.0515833
0.0480257
0.0448798
0.0430782
0.0400631
0.0389209
0.0371679
0.0359198
0.0352774
0.0334834
0.0329112
0.0316498
0.0307138
0.0297401
0.028736
0.0279302
0.0277567
0.0271705
0.0269825
0.0266394
0.0257774
0.0251947
0.0237974
0.0222763
0.0202738
0.0178198
0.0155318
0.012947
0.0107664
0.00861523
0.00694183
0.00551338
0.00439863
0.00354743
0.00294101
0.00245247
0.00225126
0.00197925
0.00192166
0.00179392
0.00176627
0.00171996
0.0016995
0.00167369
0.00167996
0.00166229
0.00169368
0.00169677
0.00172457
0.00178757
0.00186339
0.00202096
0.00218399
0.00254857
0.00309962
0.00387128
0.00555236
0.00832133
0.0114531
0.018577
0.0248688
0.0338442
0.0468923
0.0561918
0.0618895
0.0711211
0.0785034
0.0828081
0.0903803
0.105154
0.119255
0.133126
0.182377
0.283336
0.307088
0.217289
0.109948
0.0659423
0.0569138
0.0546297
0.0566931
0.0578435
0.0650063
0.0794656
0.107708
0.119432
0.141967
0.160714
0.196495
0.204096
0.198125
0.17379
0.115727
0.086164
0.0701836
0.0532134
0.0369216
0.0278167
0.0251361
0.0279581
0.0300364
0.0384422
0.0793593
0.098413
0.144636
0.159209
0.155538
0.149748
0.146676
0.139079
0.136218
0.130859
0.126727
0.123226
0.116443
0.114686
0.110921
0.109664
0.107445
0.105037
0.104193
0.1007
0.0964383
0.0943045
0.0886463
0.0869907
0.0838535
0.0825176
0.0822794
0.0806665
0.0802138
0.0795895
0.076978
0.0760165
0.073336
0.0724742
0.0711225
0.0698842
0.0695498
0.0685107
0.0673698
0.0670419
0.0654227
0.06528
0.0643969
0.0641801
0.0639322
0.0630604
0.0627218
0.0622986
0.0603866
0.0597704
0.0579555
0.0570611
0.0549381
0.0532655
0.0523775
0.0497043
0.0482094
0.0466116
0.045294
0.0451532
0.0452861
0.0456811
0.0471971
0.0483987
0.0505652
0.0528923
0.0540427
0.0568409
0.058489
0.0599668
0.0627968
0.0638565
0.0665494
0.0680953
0.0692267
0.0705335
0.0705028
0.0702137
0.069486
0.0676811
0.0655492
0.0627361
0.0590084
0.055344
0.0517676
0.047231
0.0439922
0.0400677
0.036091
0.0334376
0.0293025
0.0269987
0.0239924
0.0214922
0.0196693
0.0174893
0.0161998
0.0146114
0.0135071
0.0124681
0.0115061
0.0109209
0.01014
0.0098394
0.00935234
0.00918707
0.00898558
0.00875347
0.00867639
0.0083898
0.00800914
0.00752775
0.00696619
0.00654296
0.00610101
0.00585648
0.00559524
0.0054746
0.00526983
0.00511647
0.00487173
0.00465118
0.00429449
0.00400265
0.00345776
0.00306746
0.00254465
0.00216929
0.00185513
0.00161487
0.00145896
0.00133627
0.00131738
0.00132912
0.00134201
0.00137918
0.00141736
0.00143917
0.00150521
0.00153749
0.00159001
0.00164545
0.00166993
0.00172064
0.0017928
0.00186683
0.00205597
0.00223175
0.00266582
0.00307447
0.00385541
0.00527479
0.00718441
0.010116
0.0161254
0.0227804
0.0361921
0.0497855
0.067939
0.0891449
0.106285
0.116025
0.1239
0.129111
0.129489
0.131007
0.136873
0.148606
0.156943
0.172236
0.258052
0.306794
0.263211
0.134931
0.0799513
0.0601843
0.0548559
0.0570831
0.0600214
0.0624996
0.0666178
0.0845112
0.104906
0.120866
0.128815
0.150726
0.1612
0.197681
0.196396
0.189517
0.157132
0.10928
0.0837067
0.0663949
0.0486162
0.0428356
0.0308971
0.031842
0.0306695
0.0317911
0.050069
0.0620001
0.0886202
0.0267425
0.0261532
0.024812
0.024463
0.0234516
0.0232581
0.0228631
0.022617
0.0222769
0.0211446
0.0209386
0.0205058
0.0205413
0.0206655
0.0206199
0.0207516
0.0205835
0.0202481
0.019641
0.0180785
0.0176241
0.0169731
0.0168535
0.0170557
0.0170848
0.0174715
0.0175603
0.0176101
0.0176179
0.0169377
0.0166073
0.0162221
0.0157961
0.0157948
0.0155879
0.0155345
0.0154855
0.0152683
0.0153153
0.0152145
0.0152105
0.0152416
0.0150906
0.015101
0.0149916
0.0147782
0.0147073
0.0143223
0.0141498
0.0139261
0.013616
0.0134754
0.0129697
0.0122792
0.011647
0.0109913
0.0107914
0.010752
0.010795
0.0111864
0.0117047
0.0125263
0.013779
0.0142976
0.015275
0.0158865
0.0163389
0.0171434
0.0173962
0.0179003
0.0183603
0.018657
0.0189805
0.0189295
0.0187012
0.0183909
0.0175885
0.0169048
0.0160009
0.0151036
0.0140605
0.0132848
0.0121588
0.0113137
0.0104129
0.00925394
0.00855357
0.00744986
0.00668866
0.00599319
0.00521941
0.0048143
0.00426344
0.00392574
0.00357756
0.00325659
0.00300589
0.00274623
0.00254677
0.00238818
0.00226118
0.00218542
0.00215643
0.00215052
0.00216181
0.0021802
0.0021771
0.00213577
0.00193697
0.00179146
0.00158033
0.0014057
0.00129813
0.00120369
0.00115671
0.00114282
0.00111235
0.00110754
0.00109633
0.0010828
0.00106372
0.00103331
0.000988964
0.000988237
0.000993377
0.00100248
0.00103171
0.00107186
0.00112195
0.00125974
0.00135705
0.00152073
0.00172915
0.00184517
0.00209506
0.00230173
0.00247037
0.00273719
0.00289208
0.00303978
0.00333189
0.00351675
0.00393216
0.00444737
0.00502724
0.00637773
0.00762011
0.0105211
0.0135437
0.0200256
0.0290873
0.0447513
0.0652503
0.099836
0.126533
0.165545
0.194557
0.210006
0.21801
0.216375
0.208512
0.195905
0.193968
0.189041
0.18959
0.189688
0.235915
0.305242
0.297498
0.175798
0.105192
0.0716793
0.0628366
0.0582902
0.0709784
0.0706449
0.0776623
0.0802732
0.0962439
0.107445
0.135424
0.139154
0.157204
0.159579
0.186518
0.190811
0.186253
0.17662
0.133958
0.107454
0.0939902
0.0731492
0.0680094
0.0486032
0.0442682
0.0352126
0.0329969
0.0397706
0.0436408
0.0548082
0.00292912
0.00290494
0.0028336
0.00282462
0.00279884
0.00281764
0.00282483
0.00280122
0.00272592
0.0025545
0.00251163
0.00242917
0.00242397
0.00246329
0.00249918
0.00260511
0.0026112
0.00261596
0.00258451
0.00241156
0.00232452
0.00222739
0.00221092
0.00223164
0.00225894
0.00240047
0.00242621
0.00244712
0.00244752
0.00230209
0.00223683
0.00214567
0.00211561
0.00212286
0.00213781
0.00218803
0.00227648
0.00229188
0.00233062
0.00232429
0.00232199
0.00232028
0.00229053
0.00227781
0.00226402
0.00223162
0.00223734
0.00221978
0.00222871
0.00222909
0.0022244
0.00222934
0.00221273
0.00211471
0.00199657
0.00185494
0.00177925
0.00175271
0.0017485
0.00180572
0.00195932
0.00219226
0.00257319
0.0027489
0.002992
0.00322584
0.00331274
0.00349294
0.00354915
0.00366169
0.00375841
0.00378733
0.0037946
0.00376221
0.00367367
0.00358564
0.00341679
0.00331061
0.0031361
0.00303597
0.00281759
0.00270135
0.00247508
0.00227926
0.00211172
0.00184813
0.00173157
0.00151245
0.00137103
0.00124566
0.0010856
0.0010086
0.000887634
0.000817164
0.000745106
0.000676349
0.000631259
0.000572599
0.00053902
0.000507218
0.000492307
0.000492761
0.000497832
0.000522901
0.000543349
0.000557469
0.000568659
0.000571153
0.000548904
0.000524453
0.000485012
0.000451546
0.000435595
0.000429736
0.000429412
0.000435549
0.000449463
0.000484094
0.000537607
0.000573791
0.000663625
0.00074417
0.000816055
0.000979849
0.00112363
0.00131971
0.0017093
0.00194995
0.00245003
0.00289771
0.00340118
0.00401851
0.00446516
0.00497391
0.00553536
0.00585499
0.0063522
0.00671595
0.00696639
0.00753593
0.00791323
0.00839238
0.00960719
0.0105328
0.0125267
0.0153921
0.0187417
0.0258519
0.0344334
0.0525465
0.0814475
0.11774
0.179235
0.232279
0.277443
0.306287
0.315542
0.315265
0.311514
0.29976
0.284763
0.271148
0.245697
0.24066
0.237224
0.242293
0.298795
0.307325
0.219452
0.12798
0.0892843
0.0774057
0.0688979
0.0709192
0.0740087
0.0794222
0.0858327
0.0976459
0.10715
0.120165
0.141367
0.14529
0.157987
0.159905
0.163839
0.205261
0.205367
0.187563
0.182071
0.136068
0.123202
0.0883882
0.0806759
0.0580811
0.0550556
0.0461197
0.0401299
0.0410793
0.0426282
0.0459895
0.000248339
0.000261884
0.000278424
0.000292018
0.000294376
0.000294804
0.000293819
0.000286376
0.000272425
0.000256434
0.000251226
0.000243821
0.000241657
0.000241069
0.00024447
0.000272617
0.000302885
0.000318601
0.000322078
0.000306937
0.000279308
0.000256422
0.000249745
0.000247846
0.000248592
0.000256002
0.00025777
0.000260833
0.000261424
0.000261348
0.000261472
0.000264358
0.00026488
0.000273377
0.000278242
0.000287744
0.000290555
0.000290686
0.000288342
0.000276912
0.000264436
0.000255812
0.000245735
0.000241945
0.000238403
0.000236967
0.000239838
0.000243256
0.000254003
0.000264563
0.000274409
0.000281455
0.000284877
0.000284178
0.000278633
0.000263758
0.000254058
0.000246664
0.000243106
0.000245089
0.00024892
0.00025849
0.000295106
0.000323198
0.000370572
0.000416585
0.000441712
0.000486
0.000505177
0.000527123
0.000552023
0.000557706
0.000572547
0.0005675
0.000561415
0.000543946
0.000529918
0.000499001
0.00047425
0.000439458
0.000404142
0.000379898
0.000347417
0.000334319
0.000315498
0.000304592
0.000294779
0.000282702
0.000272997
0.000261475
0.000256622
0.00025101
0.000247947
0.00024382
0.000241314
0.000241652
0.000241783
0.000244684
0.00024749
0.000253314
0.000262583
0.000266951
0.000279098
0.000285242
0.000295822
0.000303477
0.000316683
0.000334162
0.000343144
0.000363974
0.000378186
0.000403184
0.000426438
0.000472319
0.000511026
0.000580946
0.000675446
0.000788853
0.000985921
0.00113832
0.00154314
0.00186197
0.00232541
0.00308186
0.00365614
0.00476615
0.00581715
0.00687063
0.00847897
0.00958618
0.0110667
0.0121385
0.0131408
0.0142629
0.0146862
0.0152877
0.0158093
0.0160622
0.0165967
0.017261
0.0178619
0.0193732
0.0211489
0.0233677
0.0286391
0.0338621
0.0455762
0.0600882
0.0866566
0.138245
0.215416
0.293755
0.334125
0.351784
0.359074
0.358417
0.353637
0.348881
0.34002
0.322979
0.314383
0.298038
0.281348
0.270529
0.262553
0.281096
0.303808
0.265292
0.13817
0.0977931
0.0842747
0.0839402
0.0777824
0.0812129
0.0749184
0.0887458
0.0997
0.129756
0.124544
0.126518
0.121625
0.130151
0.13543
0.166496
0.168145
0.199341
0.484771
0.288309
0.30981
0.198975
0.214346
0.138506
0.119393
0.079216
0.0684613
0.0567688
0.0473656
0.0444436
0.0444737
0.0459223
9.75369e-05
9.90976e-05
0.000101776
0.000103636
0.000104377
0.000104147
0.000104319
0.000104328
0.000103484
0.00010252
0.000101999
0.00010215
0.000102451
0.000106829
0.000109803
0.000112583
0.000112698
0.000110439
0.00010835
0.000108486
0.000108719
0.000110878
0.000111064
0.000109877
0.000107741
0.000106741
0.000108161
0.00011276
0.000119135
0.00012057
0.000121539
0.00011896
0.00011462
0.000111754
0.00010994
0.000109584
0.000109513
0.000109534
0.000109432
0.000108095
0.000106488
0.000105257
0.000104785
0.000104576
0.000104598
0.000105011
0.000105256
0.000106601
0.0001071
0.000108197
0.00010836
0.000108593
0.000109464
0.000110365
0.000111314
0.000111578
0.000111961
0.000111729
0.000112134
0.000112124
0.000112526
0.000112881
0.000113957
0.000115096
0.000117257
0.000120441
0.000122085
0.000125258
0.000127259
0.000130124
0.000132097
0.000132617
0.000136921
0.000139233
0.000144476
0.000146299
0.000147691
0.000147837
0.000147653
0.000147521
0.000148274
0.000148766
0.000150203
0.000153696
0.000159649
0.000166665
0.00018138
0.000190899
0.000213168
0.000224014
0.000245452
0.000257805
0.000278385
0.000294955
0.000304586
0.00032944
0.000344316
0.000373018
0.000392809
0.000423237
0.000467114
0.000491856
0.000537836
0.000572825
0.000618397
0.000649321
0.000675864
0.000743881
0.00079378
0.000890487
0.000970338
0.00116864
0.0013073
0.00157875
0.00188013
0.00214861
0.00276897
0.00315851
0.00410097
0.00478339
0.0062755
0.00749222
0.00924677
0.0115827
0.013922
0.0167924
0.0195107
0.0230664
0.0256887
0.0289399
0.0313202
0.0329789
0.0348757
0.0356361
0.0362165
0.0362842
0.036101
0.0361141
0.0363046
0.0368284
0.0379343
0.0407019
0.0440888
0.0512656
0.0612596
0.0747092
0.104316
0.146077
0.240146
0.332367
0.377883
0.381519
0.380198
0.37711
0.369509
0.35666
0.350679
0.344571
0.332615
0.327143
0.322582
0.308076
0.294811
0.282085
0.280564
0.295645
0.283565
0.171243
0.100316
0.0824412
0.0846824
0.0880083
0.0859306
0.0739576
0.0754956
0.0847778
0.127656
0.152148
0.152872
0.144227
0.119518
0.11528
0.124289
0.154794
0.185448
0.271075
0.950556
0.539692
1.39064
0.644477
0.991488
0.48116
0.428133
0.214894
0.143726
0.0946057
0.0695983
0.0555198
0.0500201
0.0477158
9.05293e-05
9.24379e-05
9.57858e-05
0.00010067
0.000100441
9.92142e-05
9.76631e-05
9.75391e-05
9.87689e-05
0.000108212
0.000116044
0.000120626
0.000121061
0.000117154
0.000111175
0.000107312
0.000106672
0.000105907
0.000106398
0.000111074
0.000122145
0.000138296
0.000145806
0.00014974
0.000150164
0.000144912
0.0001382
0.000129139
0.000126336
0.000125702
0.000129045
0.000141934
0.000149823
0.000157271
0.000157679
0.000157027
0.000150575
0.000144275
0.000141892
0.000140533
0.000141575
0.000146758
0.000153559
0.000161383
0.000164707
0.000170359
0.00017227
0.000176606
0.000177804
0.000180227
0.000181973
0.00018313
0.000185974
0.000186695
0.000187174
0.000187652
0.000190768
0.000195728
0.000198052
0.00019837
0.000198202
0.00019696
0.000195111
0.000188711
0.000181743
0.000174177
0.000169302
0.000166611
0.000166264
0.000168716
0.000175704
0.000181094
0.00018996
0.000200865
0.00020868
0.000216264
0.000223164
0.000228227
0.000237021
0.000247871
0.00025756
0.000285811
0.000307466
0.00036639
0.000437034
0.000541071
0.000658621
0.000728448
0.000872073
0.000932646
0.00102987
0.00108447
0.00115468
0.00123917
0.00127453
0.00136013
0.00143272
0.00156635
0.00168644
0.00179912
0.00201627
0.00210975
0.00227675
0.00239309
0.00257114
0.00274752
0.00284248
0.00310323
0.00336807
0.00374943
0.004016
0.00464669
0.00531915
0.00587056
0.00723259
0.00816339
0.0100756
0.0116567
0.0148321
0.0172558
0.021721
0.0259786
0.0311232
0.038113
0.0442611
0.0517699
0.0586746
0.06631
0.0722155
0.0772417
0.0811818
0.0838181
0.0843781
0.083786
0.0828655
0.0812823
0.078581
0.0767856
0.0766975
0.0773332
0.079442
0.0839015
0.0944791
0.106377
0.132085
0.166961
0.241698
0.358009
0.416119
0.421587
0.412843
0.3804
0.341738
0.309753
0.282123
0.270795
0.27
0.277305
0.292777
0.302946
0.304893
0.297776
0.288693
0.279919
0.285011
0.286679
0.206172
0.122623
0.0891702
0.084661
0.0874477
0.0949364
0.0880439
0.0732836
0.0756659
0.0895809
0.138233
0.149113
0.160324
0.149072
0.115063
0.114532
0.127981
0.15543
0.185888
0.317779
0.74652
0.517238
0.627048
0.625057
0.855864
0.657327
0.767307
0.600751
0.487311
0.281263
0.178201
0.111822
0.0882406
0.064906
0.000238993
0.000236179
0.000231925
0.000220597
0.00021302
0.000209136
0.000209504
0.000219
0.000272723
0.000360786
0.000433168
0.000473014
0.000482241
0.000466419
0.000426181
0.000386753
0.000367355
0.00035935
0.000369155
0.000449853
0.000540535
0.000648573
0.000685784
0.000709813
0.000709736
0.000684909
0.000667047
0.000648357
0.000656084
0.000691856
0.000752193
0.000803884
0.00081635
0.000828202
0.000817921
0.000790098
0.000767574
0.000748741
0.000754455
0.000765145
0.000819867
0.000878993
0.0009481
0.00100295
0.00103981
0.00106357
0.00107446
0.00109091
0.00109328
0.00110264
0.0011069
0.00111779
0.00114843
0.00115442
0.00117096
0.00117784
0.0011762
0.00120553
0.00122322
0.0012419
0.00124256
0.00123777
0.0012331
0.00119691
0.00111786
0.00103867
0.000967014
0.000930342
0.000914861
0.000916065
0.000948383
0.000980775
0.00106552
0.00114948
0.00122513
0.00129568
0.00136543
0.00140742
0.00148649
0.00155704
0.00162835
0.00181759
0.0019414
0.00225175
0.00256038
0.002954
0.00345295
0.00368673
0.00419533
0.00444372
0.00476566
0.00500498
0.00517779
0.00551103
0.00565658
0.0059691
0.00616332
0.00658066
0.00692173
0.00717209
0.0077935
0.00805584
0.00859002
0.00892306
0.00947336
0.0102533
0.0106623
0.0115309
0.012465
0.0138501
0.0148374
0.0164347
0.0192565
0.0210188
0.0246127
0.0283248
0.0336908
0.0399699
0.046307
0.0574002
0.0663373
0.0790846
0.0934466
0.108433
0.12464
0.139587
0.156002
0.166758
0.176308
0.184581
0.186547
0.186555
0.185213
0.180385
0.176463
0.169612
0.162164
0.156433
0.155671
0.156638
0.160185
0.168305
0.189041
0.214911
0.26438
0.366869
0.442102
0.464421
0.45202
0.409115
0.314242
0.261625
0.244894
0.243442
0.243794
0.240799
0.241734
0.254254
0.266554
0.270585
0.271181
0.271579
0.27265
0.271936
0.276332
0.227422
0.139533
0.110874
0.102391
0.0985047
0.0984251
0.096512
0.0888349
0.0781898
0.077575
0.0955518
0.130816
0.154479
0.163301
0.146602
0.113872
0.128907
0.151038
0.150919
0.198249
0.608614
0.782902
0.496814
0.493208
0.544352
0.41423
0.733176
0.710514
0.691039
0.699083
0.648228
0.559002
0.367036
0.280773
0.186015
0.00282055
0.00275792
0.00265441
0.00256395
0.00254415
0.00262097
0.00285264
0.0033554
0.00371167
0.00407354
0.00428069
0.00432147
0.0043199
0.0042437
0.0041705
0.0041206
0.00417946
0.00444107
0.00487892
0.00528591
0.00556233
0.00584319
0.0059027
0.00593716
0.00593044
0.00587613
0.00588276
0.00591337
0.00618346
0.00639741
0.00655008
0.0066425
0.00660823
0.00659076
0.00644832
0.00632734
0.00630062
0.00628587
0.0065234
0.00680027
0.00711792
0.00740023
0.00748341
0.00758508
0.007593
0.00754459
0.00752977
0.00749173
0.0074651
0.00747847
0.00749223
0.00757626
0.00772482
0.00776078
0.00794314
0.00798767
0.00801752
0.00802078
0.00796863
0.00792372
0.0078126
0.00764619
0.00754095
0.00720952
0.00694525
0.00665802
0.00637068
0.00625738
0.00619372
0.00620303
0.00628229
0.00638843
0.00671363
0.00704017
0.00729823
0.00763511
0.00792207
0.00810507
0.00849415
0.00883083
0.00915969
0.00996087
0.0104231
0.0115296
0.0125133
0.0135033
0.0150262
0.0156502
0.0168512
0.0176379
0.0184757
0.0192632
0.0197767
0.0206608
0.02109
0.0219907
0.0225501
0.0233418
0.0244532
0.0250224
0.0263131
0.027081
0.0286614
0.0300158
0.0310353
0.033703
0.035347
0.0375826
0.0408686
0.0436325
0.04871
0.0522353
0.0601341
0.0665613
0.0759651
0.0886721
0.0996118
0.120209
0.135603
0.162358
0.182521