/*--------------------------------*- C++ -*----------------------------------*\
| =========                 |                                                 |
| \\      /  F ield         | OpenFOAM: The Open Source CFD Toolbox           |
|  \\    /   O peration     | Version:  2.4.0                                 |
|   \\  /    A nd           | Web:      www.OpenFOAM.org                      |
|    \\/     M anipulation  |                                                 |
\*---------------------------------------------------------------------------*/
FoamFile
{
    version     2.0;
    format      ascii;
    class       volScalarField;
    location    "1.35";
    object      nuSgs;
}
// * * * * * * * * * * * * * * * * * * * * * * * * * * * * * * * * * * * * * //

dimensions      [0 2 -1 0 0 0 0];

internalField   nonuniform List<scalar> 
8800
(
0.00133846
0.00150688
0.00139272
0.00122971
0.0011199
0.00105208
0.000995491
0.000961777
0.000924291
0.00090627
0.000877808
0.000869335
0.000846801
0.000841262
0.000822057
0.000817688
0.000800645
0.00079511
0.000789152
0.00076535
0.000554168
0.000981965
0.00108288
0.00108157
0.00106212
0.00103614
0.000999902
0.000979173
0.000947691
0.000932819
0.000905904
0.0008967
0.000875804
0.000868703
0.000853077
0.000846916
0.00083365
0.00082717
0.000816676
0.000814245
0.000135654
0.000406316
0.00058332
0.000659625
0.000703347
0.000739118
0.000750249
0.000761237
0.000759868
0.000759361
0.000754534
0.000751481
0.000745027
0.000740423
0.000736703
0.0007299
0.000727505
0.000721196
0.000714976
0.000711169
2.69271e-05
0.000125503
0.000230484
0.000312179
0.000354914
0.000397207
0.000427662
0.00045489
0.000475135
0.000491661
0.000508073
0.000515331
0.000529725
0.000534589
0.000545527
0.000548217
0.00055745
0.000557826
0.000560419
0.000558412
5.10105e-06
3.34404e-05
6.7763e-05
0.000109477
0.000141329
0.000161173
0.000191526
0.000211207
0.000233925
0.000247837
0.000268915
0.000277582
0.00029568
0.000304122
0.000320684
0.000327998
0.000344782
0.000350314
0.000361489
0.00036591
2.38728e-06
8.44836e-06
1.7541e-05
2.89715e-05
4.34351e-05
5.09019e-05
6.44759e-05
7.28525e-05
8.75074e-05
9.52048e-05
0.000109838
0.000115884
0.000126427
0.000137632
0.000143547
0.0001538
0.000163071
0.000174351
0.000179088
0.00018899
2.24593e-06
3.24209e-06
5.07233e-06
8.66896e-06
1.07104e-05
1.41017e-05
1.66747e-05
2.1157e-05
2.37679e-05
2.87748e-05
3.23226e-05
3.62637e-05
3.92256e-05
4.61735e-05
4.88576e-05
5.44724e-05
5.79611e-05
6.57903e-05
6.85578e-05
7.71765e-05
2.15826e-06
2.82484e-06
3.26596e-06
4.35436e-06
4.55522e-06
4.74793e-06
5.13567e-06
6.46394e-06
6.9966e-06
8.36455e-06
8.8982e-06
1.00248e-05
1.03815e-05
1.23777e-05
1.28059e-05
1.47183e-05
1.56943e-05
1.90276e-05
2.0224e-05
2.48517e-05
2.13978e-06
2.5338e-06
2.92147e-06
3.55308e-06
4.49226e-06
4.39796e-06
4.24743e-06
4.22379e-06
4.22126e-06
4.34855e-06
4.76944e-06
4.97919e-06
5.07592e-06
5.44389e-06
5.49675e-06
5.6958e-06
5.75858e-06
6.29285e-06
6.47314e-06
7.29801e-06
2.13445e-06
2.46291e-06
3.36816e-06
3.40271e-06
3.41737e-06
3.78268e-06
3.95955e-06
4.16485e-06
4.17635e-06
4.14952e-06
4.10998e-06
4.08901e-06
4.07414e-06
4.10594e-06
4.21258e-06
4.4023e-06
4.45748e-06
4.48647e-06
4.50358e-06
4.5688e-06
2.13554e-06
2.45585e-06
2.83385e-06
3.67819e-06
3.96381e-06
3.94905e-06
3.85893e-06
3.82124e-06
3.82494e-06
4.00504e-06
4.16157e-06
4.22171e-06
4.31344e-06
4.29695e-06
4.28325e-06
4.31746e-06
4.31235e-06
4.31629e-06
4.31799e-06
4.43553e-06
2.13792e-06
2.49894e-06
3.27102e-06
3.68607e-06
3.65742e-06
3.76383e-06
3.99808e-06
4.21897e-06
4.34774e-06
4.52204e-06
4.51522e-06
4.60469e-06
4.63702e-06
4.67559e-06
4.83559e-06
5.14767e-06
5.33967e-06
5.5479e-06
6.07298e-06
7.12869e-06
2.15389e-06
2.60859e-06
3.18137e-06
4.13002e-06
4.39165e-06
5.05044e-06
5.41853e-06
6.21211e-06
6.81443e-06
7.99462e-06
8.50028e-06
9.97332e-06
1.05974e-05
1.19334e-05
1.29049e-05
1.50224e-05
1.61602e-05
1.83494e-05
2.04555e-05
2.49096e-05
2.18757e-06
3.09021e-06
5.19073e-06
8.67957e-06
1.035e-05
1.38599e-05
1.63095e-05
2.12121e-05
2.42357e-05
2.97268e-05
3.21846e-05
3.79319e-05
4.04579e-05
4.58033e-05
4.90147e-05
5.58622e-05
5.93064e-05
6.70384e-05
7.14233e-05
8.22849e-05
2.34386e-06
8.23674e-06
1.83453e-05
3.17838e-05
3.89037e-05
5.34127e-05
6.18028e-05
7.71025e-05
8.55145e-05
0.000100012
0.000106145
0.000119956
0.000125749
0.000137902
0.000144082
0.000157428
0.000163641
0.000178348
0.00018596
0.000204977
5.2306e-06
3.29621e-05
7.21489e-05
0.000110396
0.000132579
0.000169537
0.00018781
0.000213736
0.000232176
0.000252949
0.000262538
0.00028348
0.000291838
0.000308916
0.0003169
0.000334368
0.000341838
0.000360398
0.000368932
0.00038983
2.72936e-05
0.000123934
0.000240816
0.000302935
0.000358175
0.000395804
0.000428724
0.000452471
0.000477363
0.000491748
0.000504596
0.000519923
0.000526177
0.000537123
0.000542573
0.000552622
0.000556445
0.000566678
0.000570578
0.000579958
0.000136783
0.000400888
0.000588767
0.000653587
0.000710164
0.000732945
0.000754814
0.000757176
0.000761999
0.000757546
0.000756053
0.000749359
0.000746868
0.000739179
0.000737219
0.000730974
0.000729413
0.000725209
0.000723486
0.000719404
0.000557564
0.000980158
0.00108409
0.00108042
0.00106484
0.00102919
0.00100713
0.000971798
0.000954911
0.000924734
0.000913869
0.00088856
0.000881897
0.000862554
0.00085759
0.000840945
0.000837226
0.000821408
0.00081626
0.000802492
0.00133935
0.00150559
0.00139381
0.00122689
0.00112388
0.00104616
0.00100171
0.000955122
0.000931134
0.000897929
0.000886464
0.000859625
0.000854209
0.000832178
0.000828259
0.000806283
0.000802042
0.000777494
0.000768651
0.000736825
0.000350989
0.000300928
0.000269914
0.000248917
0.000234246
0.000224633
0.000217687
0.000212859
0.000208926
0.000205446
0.000202468
0.000199625
0.000197102
0.000194437
0.000192136
0.000189791
0.000187951
0.000186418
0.000185505
0.000185058
0.000184763
0.000184701
0.000184537
0.000184416
0.000184143
0.000183833
0.000183078
0.000182149
0.00018015
0.000177663
0.000173458
0.000169344
0.000164282
0.000160546
0.000157173
0.000154696
0.000153241
0.000152363
0.000152147
0.000152193
0.000152342
0.000152555
0.000153353
0.000153829
0.000155166
0.000155473
0.000156398
0.00015664
0.000157641
0.000157858
0.000158835
0.000159026
0.000159934
0.000160137
0.000161017
0.000161196
0.000161784
0.000161726
0.000161908
0.000161564
0.00016082
0.0001594
0.000155776
0.000152651
0.000144934
0.000139845
0.000128457
0.000123871
0.000114141
0.00011047
0.000104619
0.00010179
9.91251e-05
9.90693e-05
9.96375e-05
0.000101244
0.000105617
0.000108634
0.000114994
0.000119547
0.000125955
0.000130472
0.000135378
0.000140119
0.00014235
0.000146241
0.000147225
0.00014963
0.000149962
0.000150401
0.000150719
0.000150038
0.000150159
0.000149311
0.000149335
0.000148398
0.000148287
0.000147368
0.00014731
0.000146499
0.000146384
0.00014581
0.000145706
0.000145281
0.000145527
0.000145178
0.000145472
0.000145503
0.000145003
0.00014524
0.000144025
0.000143001
0.000139242
0.000137184
0.000131611
0.00012978
0.000125795
0.000125711
0.000125403
0.000126097
0.000126101
0.000126657
0.000126071
0.000126139
0.000125778
0.000125284
0.000123928
0.000122724
0.000120038
0.000117061
0.00011306
0.000107154
0.000102518
9.61409e-05
9.08895e-05
8.41056e-05
8.04424e-05
7.41433e-05
7.14083e-05
6.66426e-05
6.30975e-05
5.94962e-05
5.56041e-05
5.26228e-05
4.92019e-05
4.64578e-05
4.2845e-05
3.9823e-05
3.63685e-05
3.31136e-05
2.99344e-05
2.67808e-05
2.40974e-05
2.15736e-05
1.97839e-05
1.8426e-05
1.82243e-05
1.84469e-05
1.90797e-05
2.10496e-05
2.28866e-05
2.44743e-05
2.82747e-05
3.09406e-05
3.27931e-05
3.52734e-05
4.16144e-05
4.88115e-05
5.64645e-05
6.93722e-05
9.65801e-05
0.000119011
0.000124032
0.000123135
0.000118609
0.00011731
0.000115992
0.000117126
0.000117781
0.000120076
0.00011941
0.000117667
0.000110003
9.50597e-05
8.12254e-05
7.2778e-05
6.18323e-05
4.92083e-05
4.05673e-05
3.73182e-05
3.69361e-05
3.76658e-05
4.23829e-05
5.52186e-05
8.12137e-05
0.000105333
0.000113456
0.000118952
0.000148743
0.000243628
0.00041197
0.000373841
0.000342619
0.000318113
0.000298575
0.000282971
0.00027074
0.000260887
0.000253027
0.000246377
0.000240675
0.000235768
0.000231224
0.00022758
0.000223704
0.000220902
0.000217462
0.000215368
0.000212362
0.000210871
0.00020838
0.000207356
0.000205383
0.000204591
0.000203026
0.000202466
0.000201318
0.000200807
0.000199773
0.000199005
0.000197503
0.000196026
0.000194414
0.000192116
0.000190821
0.000188544
0.000187508
0.000185558
0.000184878
0.000183421
0.000182889
0.000181669
0.000181273
0.000180311
0.000180061
0.000179211
0.00017892
0.000177899
0.000177598
0.000176581
0.000176311
0.000175358
0.000175184
0.000174428
0.000174428
0.000174068
0.000174304
0.000174262
0.000174657
0.000174856
0.000175235
0.0001752
0.000174884
0.00017404
0.000172611
0.000170166
0.000167533
0.000163655
0.000161069
0.000156465
0.000154534
0.000150459
0.000149348
0.000146716
0.000146611
0.000146124
0.000146951
0.000147299
0.000148978
0.000149735
0.000151493
0.000152468
0.000153314
0.00015421
0.000154629
0.000154964
0.000155464
0.000155367
0.000155531
0.000154958
0.000154912
0.000154031
0.000153857
0.000152721
0.000152399
0.000151284
0.000150837
0.000149453
0.000149134
0.000147886
0.00014769
0.00014673
0.000146719
0.000146205
0.000146464
0.000146264
0.000146606
0.000146822
0.000147526
0.000147713
0.000148245
0.000147845
0.000147764
0.000147009
0.000145366
0.000144271
0.000141381
0.000139726
0.000136362
0.000134982
0.000131764
0.000130396
0.000127239
0.000125351
0.000121138
0.000118653
0.000112489
0.000109169
0.000101825
9.5387e-05
8.64594e-05
7.88976e-05
7.03905e-05
6.27281e-05
5.58544e-05
5.02172e-05
4.61309e-05
4.18234e-05
3.9295e-05
3.61473e-05
3.39471e-05
3.16895e-05
2.95463e-05
2.78393e-05
2.58604e-05
2.45902e-05
2.2748e-05
2.15857e-05
1.99662e-05
1.88796e-05
1.76362e-05
1.67891e-05
1.6185e-05
1.58013e-05
1.59059e-05
1.62503e-05
1.70871e-05
1.79319e-05
1.9393e-05
2.29846e-05
2.50625e-05
2.80179e-05
3.2942e-05
3.66625e-05
3.93643e-05
4.49342e-05
5.36483e-05
6.11377e-05
7.15627e-05
9.70724e-05
0.000123813
0.000129914
0.000128301
0.000116436
0.000104268
9.61618e-05
9.61117e-05
9.79201e-05
0.000105826
0.00011385
0.000120346
0.000120754
0.000119878
0.000113726
9.65504e-05
8.10764e-05
7.19239e-05
6.23003e-05
4.91949e-05
4.07971e-05
3.77774e-05
3.71907e-05
3.80552e-05
4.2902e-05
5.62203e-05
8.18202e-05
0.000108537
0.00011413
0.000139463
0.000192598
0.000370715
0.000349736
0.000329353
0.000311621
0.000296233
0.000283136
0.000271919
0.000262702
0.000254462
0.00024795
0.000241362
0.000236711
0.000230966
0.000227583
0.000222338
0.000219806
0.000215313
0.000213165
0.000209603
0.000207568
0.000204851
0.000202968
0.000200823
0.000199205
0.000197374
0.000195993
0.000194883
0.000193433
0.000192895
0.000191725
0.000191155
0.00018998
0.000189323
0.000187984
0.000187173
0.000185793
0.000185034
0.000183678
0.000183
0.000181917
0.000181139
0.000180518
0.000179439
0.000179004
0.000178107
0.000177519
0.000176521
0.000175864
0.000174831
0.000173706
0.000173035
0.000171634
0.000171064
0.000169829
0.000169433
0.00016845
0.000168318
0.000168027
0.000168254
0.000168515
0.000169238
0.000169726
0.000170648
0.000171142
0.000171299
0.000170966
0.000170754
0.000169662
0.00016923
0.000167561
0.000167046
0.000165186
0.000164578
0.000162927
0.000162339
0.000161089
0.000160446
0.000159918
0.000158703
0.000158315
0.000157361
0.000156888
0.000155522
0.000154927
0.000153445
0.000152621
0.000151248
0.000149146
0.000148075
0.000146425
0.000144193
0.000143194
0.000140813
0.000139624
0.000137417
0.00013621
0.000134556
0.000132872
0.00013156
0.000130128
0.000129282
0.000127703
0.000127185
0.000126064
0.000125763
0.000125139
0.000125142
0.000125199
0.000125937
0.000126157
0.000127574
0.000127844
0.000128935
0.00012887
0.000128937
0.000128256
0.000127648
0.000125636
0.000123952
0.000121364
0.000117371
0.000112779
0.000108493
0.000101038
9.49009e-05
8.69096e-05
7.87689e-05
7.03675e-05
6.16864e-05
5.47106e-05
4.79547e-05
4.24998e-05
3.74667e-05
3.3625e-05
3.00774e-05
2.72711e-05
2.48742e-05
2.27178e-05
2.12522e-05
1.94829e-05
1.86815e-05
1.72423e-05
1.67022e-05
1.57878e-05
1.52673e-05
1.48498e-05
1.4466e-05
1.41708e-05
1.39596e-05
1.39189e-05
1.389e-05
1.41172e-05
1.44769e-05
1.49132e-05
1.56003e-05
1.72002e-05
1.91683e-05
2.13455e-05
2.60101e-05
3.05164e-05
3.31706e-05
3.83197e-05
4.34073e-05
4.6634e-05
5.03817e-05
5.93923e-05
6.74136e-05
7.5684e-05
9.21914e-05
0.000125546
0.000135068
0.000132448
0.00011287
8.29495e-05
7.33978e-05
6.81179e-05
6.87599e-05
7.15589e-05
8.14951e-05
8.93676e-05
0.000107219
0.000116124
0.000120628
0.000119915
0.000114443
9.65917e-05
8.05073e-05
7.1115e-05
6.17938e-05
4.86615e-05
4.0813e-05
3.81986e-05
3.74869e-05
3.83863e-05
4.32194e-05
5.66186e-05
9.27086e-05
0.000107129
0.000120453
0.00015328
0.000296217
0.000285431
0.000274495
0.000263973
0.000254051
0.00024552
0.000236838
0.000230444
0.000223297
0.00021846
0.000212919
0.00020888
0.000204108
0.000200856
0.000196226
0.000193554
0.000189451
0.000186694
0.000183989
0.000180647
0.000179063
0.000176071
0.000174284
0.000172448
0.000170042
0.000168906
0.000167023
0.000165582
0.000164807
0.000163351
0.000162593
0.000162134
0.000160823
0.000160478
0.000159423
0.000159026
0.000157837
0.000157346
0.000156211
0.00015572
0.000154214
0.000153781
0.000152484
0.000152134
0.000151003
0.000150577
0.000149639
0.000149167
0.000147917
0.000147382
0.000145895
0.000145386
0.000143973
0.000143445
0.000142314
0.000141979
0.000141191
0.000141184
0.000141052
0.000141501
0.000141839
0.000142987
0.000144026
0.000145766
0.000148014
0.000149266
0.000151761
0.000152612
0.000153961
0.000154375
0.000154516
0.000154369
0.000154055
0.000153434
0.000152399
0.0001517
0.000149932
0.000148938
0.000146723
0.000145574
0.000142889
0.000141425
0.00013825
0.000136607
0.000132986
0.000130988
0.00012737
0.000124921
0.000121424
0.000119216
0.000115244
0.000113399
0.000109563
0.000107761
0.00010427
0.000102442
9.9492e-05
9.76543e-05
9.56071e-05
9.31957e-05
9.20768e-05
8.98729e-05
8.85466e-05
8.73478e-05
8.5487e-05
8.50094e-05
8.37857e-05
8.32632e-05
8.31941e-05
8.32247e-05
8.34851e-05
8.43467e-05
8.4567e-05
8.47498e-05
8.46639e-05
8.38624e-05
8.31138e-05
8.09977e-05
7.8525e-05
7.51334e-05
7.0129e-05
6.53449e-05
6.03189e-05
5.44483e-05
4.96155e-05
4.39707e-05
3.94168e-05
3.47408e-05
3.07191e-05
2.71633e-05
2.39631e-05
2.1489e-05
1.9349e-05
1.75887e-05
1.64209e-05
1.51177e-05
1.43906e-05
1.35323e-05
1.30455e-05
1.24777e-05
1.22904e-05
1.18358e-05
1.18355e-05
1.16465e-05
1.17787e-05
1.17483e-05
1.19846e-05
1.21153e-05
1.25624e-05
1.29076e-05
1.33131e-05
1.40027e-05
1.5678e-05
1.73931e-05
2.04764e-05
2.50063e-05
2.84535e-05
3.38192e-05
4.08449e-05
4.41526e-05
4.79653e-05
5.34984e-05
5.71881e-05
6.01466e-05
6.63894e-05
7.46578e-05
8.12719e-05
9.07686e-05
0.000119168
0.000139273
0.000137246
0.000112632
7.86747e-05
6.58132e-05
6.17892e-05
6.18287e-05
6.23702e-05
6.59795e-05
7.28416e-05
8.35877e-05
8.97403e-05
0.000104874
0.000113468
0.000119006
0.000117387
0.000111668
9.31891e-05
7.85494e-05
7.04023e-05
6.1601e-05
4.84316e-05
4.12977e-05
3.83511e-05
3.82497e-05
4.12977e-05
4.75058e-05
6.55462e-05
9.27543e-05
0.000101919
0.000124152
0.00019705
0.000192752
0.00018841
0.000184004
0.000178199
0.000175121
0.000169348
0.000165863
0.000162179
0.000157725
0.000155976
0.000152299
0.000150379
0.000148186
0.000145232
0.000143702
0.000140216
0.000137814
0.000135981
0.000132655
0.000131517
0.000129557
0.000128389
0.000127097
0.000125276
0.000124494
0.000122679
0.000120908
0.000120375
0.000118756
0.000118112
0.000117057
0.000116369
0.000116014
0.0001149
0.00011431
0.00011403
0.000113169
0.000112975
0.000112354
0.000112002
0.000111486
0.00011008
0.000109712
0.000108636
0.000107655
0.00010652
0.000105723
0.000104449
0.000103844
0.000102014
0.000101479
0.000100035
9.96133e-05
9.85281e-05
9.83281e-05
9.8233e-05
9.85058e-05
9.86622e-05
9.94652e-05
9.99063e-05
0.000100874
0.000101802
0.000102562
0.000104599
0.000105655
0.00010731
0.000109481
0.00011057
0.000112842
0.000113729
0.000114846
0.000115474
0.000115405
0.000115144
0.000114593
0.000113243
0.000111726
0.000110566
0.000107482
0.000105661
0.0001024
9.93601e-05
9.60696e-05
9.2676e-05
8.82667e-05
8.56947e-05
8.06655e-05
7.81423e-05
7.40415e-05
7.1088e-05
6.82968e-05
6.50934e-05
6.32345e-05
6.02201e-05
5.84673e-05
5.64151e-05
5.45361e-05
5.34303e-05
5.15265e-05
5.07867e-05
4.96298e-05
4.87894e-05
4.83511e-05
4.71057e-05
4.67014e-05
4.57977e-05
4.51155e-05
4.43946e-05
4.36387e-05
4.30225e-05
4.28887e-05
4.24334e-05
4.22863e-05
4.20166e-05
4.13312e-05
4.08614e-05
3.97121e-05
3.8422e-05
3.66544e-05
3.43645e-05
3.20826e-05
2.92916e-05
2.67113e-05
2.38942e-05
2.14484e-05
1.91147e-05
1.70733e-05
1.53326e-05
1.39607e-05
1.27485e-05
1.22144e-05
1.14527e-05
1.12849e-05
1.09033e-05
1.0819e-05
1.06762e-05
1.06125e-05
1.05316e-05
1.05514e-05
1.04957e-05
1.05943e-05
1.0604e-05
1.06905e-05
1.0884e-05
1.11125e-05
1.15728e-05
1.20305e-05
1.29959e-05
1.43322e-05
1.60172e-05
1.91821e-05
2.34831e-05
2.75499e-05
3.5087e-05
4.05963e-05
4.73588e-05
5.57455e-05
6.10232e-05
6.40423e-05
6.86527e-05
7.21278e-05
7.4079e-05
7.73919e-05
8.34778e-05
8.8899e-05
9.39269e-05
0.000109937
0.000137028
0.000142656
0.000119999
8.53594e-05
6.61059e-05
6.1414e-05
6.0169e-05
6.12948e-05
6.19135e-05
6.56351e-05
7.25685e-05
8.44857e-05
8.89648e-05
9.69956e-05
0.000103201
0.000114113
0.000116299
0.000114585
0.000107318
8.7574e-05
7.55651e-05
6.81987e-05
5.9384e-05
4.94651e-05
4.29349e-05
4.08138e-05
4.30439e-05
4.46152e-05
5.04734e-05
7.25199e-05
8.07579e-05
9.79033e-05
0.000102717
0.000101526
9.96183e-05
9.8591e-05
9.60039e-05
9.50115e-05
9.31236e-05
9.16419e-05
9.03671e-05
8.78447e-05
8.71793e-05
8.57365e-05
8.52494e-05
8.43824e-05
8.34315e-05
8.30957e-05
8.16906e-05
7.99435e-05
7.90541e-05
7.66459e-05
7.59268e-05
7.45451e-05
7.39489e-05
7.38421e-05
7.31148e-05
7.29093e-05
7.2625e-05
7.14236e-05
7.09762e-05
6.97135e-05
6.93027e-05
6.86534e-05
6.80531e-05
6.78901e-05
6.73811e-05
6.68176e-05
6.66548e-05
6.5845e-05
6.57731e-05
6.53268e-05
6.52167e-05
6.50906e-05
6.46453e-05
6.44715e-05
6.42536e-05
6.32599e-05
6.29363e-05
6.19735e-05
6.14934e-05
6.03386e-05
5.9413e-05
5.89157e-05
5.73926e-05
5.65229e-05
5.55784e-05
5.47872e-05
5.47019e-05
5.47824e-05
5.50208e-05
5.59263e-05
5.66338e-05
5.78874e-05
5.92045e-05
5.98449e-05
6.13747e-05
6.22581e-05
6.30397e-05
6.451e-05
6.5052e-05
6.64096e-05
6.71764e-05
6.77322e-05
6.83685e-05
6.83536e-05
6.82134e-05
6.7859e-05
6.69719e-05
6.59086e-05
6.44788e-05
6.25339e-05
6.05611e-05
5.85717e-05
5.59464e-05
5.39941e-05
5.15294e-05
4.89056e-05
4.70735e-05
4.40667e-05
4.2299e-05
3.98745e-05
3.77398e-05
3.61038e-05
3.40443e-05
3.27652e-05
3.11175e-05
2.99185e-05
2.87448e-05
2.76136e-05
2.69022e-05
2.59225e-05
2.55354e-05
2.48954e-05
2.46744e-05
2.44023e-05
2.40851e-05
2.39788e-05
2.35795e-05
2.30383e-05
2.23353e-05
2.1486e-05
2.08231e-05
2.01076e-05
1.97005e-05
1.92561e-05
1.90474e-05
1.86877e-05
1.84138e-05
1.7968e-05
1.75566e-05
1.687e-05
1.62867e-05
1.51376e-05
1.42577e-05
1.29859e-05
1.19899e-05
1.10878e-05
1.03449e-05
9.83286e-06
9.41035e-06
9.3436e-06
9.38514e-06
9.43055e-06
9.56023e-06
9.69166e-06
9.76597e-06
9.98751e-06
1.0094e-05
1.0265e-05
1.04424e-05
1.05198e-05
1.06783e-05
1.09e-05
1.11227e-05
1.16726e-05
1.21613e-05
1.32915e-05
1.42739e-05
1.59843e-05
1.86965e-05
2.182e-05
2.58918e-05
3.26899e-05
3.88543e-05
4.8974e-05
5.74394e-05
6.70993e-05
7.68611e-05
8.39255e-05
8.76866e-05
9.06138e-05
9.24996e-05
9.2635e-05
9.31763e-05
9.52395e-05
9.92376e-05
0.000101983
0.000106837
0.000130771
0.000142588
0.000132072
9.45616e-05
7.27899e-05
6.31539e-05
6.02934e-05
6.15052e-05
6.30683e-05
6.43572e-05
6.64437e-05
7.48369e-05
8.33794e-05
8.94975e-05
9.23936e-05
9.9943e-05
0.000103357
0.000114457
0.000114084
0.000112068
0.000102045
8.50998e-05
7.44798e-05
6.63324e-05
5.67608e-05
5.32796e-05
4.52499e-05
4.59366e-05
4.50829e-05
4.58999e-05
5.76027e-05
6.40995e-05
7.66346e-05
4.20978e-05
4.16314e-05
4.05498e-05
4.02636e-05
3.94225e-05
3.92596e-05
3.89248e-05
3.87147e-05
3.84225e-05
3.74333e-05
3.72505e-05
3.68635e-05
3.68954e-05
3.70067e-05
3.6966e-05
3.70838e-05
3.69333e-05
3.66311e-05
3.60778e-05
3.46131e-05
3.41753e-05
3.35381e-05
3.34198e-05
3.36196e-05
3.36484e-05
3.4027e-05
3.41133e-05
3.41617e-05
3.41693e-05
3.35032e-05
3.31748e-05
3.27878e-05
3.23544e-05
3.2353e-05
3.21404e-05
3.20853e-05
3.20347e-05
3.18093e-05
3.18582e-05
3.17532e-05
3.17491e-05
3.17814e-05
3.16236e-05
3.16346e-05
3.15198e-05
3.12946e-05
3.12194e-05
3.08081e-05
3.0622e-05
3.03789e-05
3.00388e-05
2.98833e-05
2.93172e-05
2.85262e-05
2.77822e-05
2.69888e-05
2.67422e-05
2.66933e-05
2.67467e-05
2.72273e-05
2.78509e-05
2.88117e-05
3.02181e-05
3.07815e-05
3.18163e-05
3.24468e-05
3.29056e-05
3.3706e-05
3.39536e-05
3.4442e-05
3.48817e-05
3.51625e-05
3.5466e-05
3.54183e-05
3.52041e-05
3.49108e-05
3.41407e-05
3.34706e-05
3.25635e-05
3.16372e-05
3.05252e-05
2.96712e-05
2.83859e-05
2.73818e-05
2.62691e-05
2.47641e-05
2.38085e-05
2.22194e-05
2.10537e-05
1.99291e-05
1.85981e-05
1.78618e-05
1.68089e-05
1.61294e-05
1.53976e-05
1.46906e-05
1.41138e-05
1.34905e-05
1.29913e-05
1.25803e-05
1.22413e-05
1.20344e-05
1.19544e-05
1.1938e-05
1.19692e-05
1.20201e-05
1.20115e-05
1.18969e-05
1.13298e-05
1.08959e-05
1.02337e-05
9.65173e-06
9.27508e-06
8.93131e-06
8.75531e-06
8.70256e-06
8.58578e-06
8.56718e-06
8.52373e-06
8.47097e-06
8.39599e-06
8.2751e-06
8.09559e-06
8.09262e-06
8.11364e-06
8.15074e-06
8.26868e-06
8.42806e-06
8.62273e-06
9.13689e-06
9.48322e-06
1.00388e-05
1.07047e-05
1.1058e-05
1.1783e-05
1.23505e-05
1.2795e-05
1.34683e-05
1.38441e-05
1.41932e-05
1.48595e-05
1.52661e-05
1.61426e-05
1.71676e-05
1.82525e-05
2.05585e-05
2.24719e-05
2.64052e-05
2.9959e-05
3.64293e-05
4.39046e-05
5.44579e-05
6.57582e-05
8.13396e-05
9.15714e-05
0.000104741
0.000113549
0.000117971
0.000120198
0.000119746
0.00011755
0.000113941
0.000113377
0.000111928
0.00011209
0.000112119
0.000125036
0.000142226
0.000140411
0.000107936
8.34929e-05
6.89216e-05
6.45305e-05
6.21522e-05
6.85838e-05
6.84225e-05
7.17404e-05
7.29363e-05
7.98629e-05
8.43823e-05
9.47342e-05
9.603e-05
0.000102068
0.000102836
0.000111178
0.00011245
0.000111099
0.000108188
9.42198e-05
8.43857e-05
7.89223e-05
6.96247e-05
6.71341e-05
5.67533e-05
5.41632e-05
4.83067e-05
4.67622e-05
5.1338e-05
5.37781e-05
6.02672e-05
1.39324e-05
1.38748e-05
1.37034e-05
1.36817e-05
1.36191e-05
1.36647e-05
1.36822e-05
1.36249e-05
1.34405e-05
1.3011e-05
1.29014e-05
1.26878e-05
1.26742e-05
1.27766e-05
1.28694e-05
1.31393e-05
1.31546e-05
1.31666e-05
1.30872e-05
1.26418e-05
1.24115e-05
1.21495e-05
1.21045e-05
1.2161e-05
1.22352e-05
1.26127e-05
1.26801e-05
1.27346e-05
1.27357e-05
1.23515e-05
1.21752e-05
1.19245e-05
1.18407e-05
1.18609e-05
1.19026e-05
1.20416e-05
1.22826e-05
1.23241e-05
1.24278e-05
1.24109e-05
1.24048e-05
1.24002e-05
1.23204e-05
1.22862e-05
1.22489e-05
1.2161e-05
1.21766e-05
1.21287e-05
1.2153e-05
1.21541e-05
1.21413e-05
1.21548e-05
1.21094e-05
1.18382e-05
1.15027e-05
1.10873e-05
1.08587e-05
1.07774e-05
1.07644e-05
1.09391e-05
1.13949e-05
1.20533e-05
1.30585e-05
1.3497e-05
1.40812e-05
1.46211e-05
1.48167e-05
1.52144e-05
1.53363e-05
1.55775e-05
1.57819e-05
1.58426e-05
1.58577e-05
1.57899e-05
1.5603e-05
1.54149e-05
1.50476e-05
1.4812e-05
1.44163e-05
1.41843e-05
1.36646e-05
1.33798e-05
1.28072e-05
1.22901e-05
1.18298e-05
1.10669e-05
1.07122e-05
1.00115e-05
9.53195e-06
9.08571e-06
8.48189e-06
8.17557e-06
7.66965e-06
7.3589e-06
7.02696e-06
6.6949e-06
6.46788e-06
6.16004e-06
5.97669e-06
5.7977e-06
5.71185e-06
5.71448e-06
5.74381e-06
5.88665e-06
6.00064e-06
6.07811e-06
6.13881e-06
6.15226e-06
6.03124e-06
5.89538e-06
5.66937e-06
5.47028e-06
5.37279e-06
5.33653e-06
5.33452e-06
5.37251e-06
5.45765e-06
5.664e-06
5.96886e-06
6.16645e-06
6.63162e-06
7.02254e-06
7.35391e-06
8.0582e-06
8.62919e-06
9.35186e-06
1.06431e-05
1.13676e-05
1.27422e-05
1.38575e-05
1.50132e-05
1.63189e-05
1.72019e-05
1.81555e-05
1.91528e-05
1.9698e-05
2.05173e-05
2.10966e-05
2.14863e-05
2.23474e-05
2.29e-05
2.35831e-05
2.52323e-05
2.64199e-05
2.88123e-05
3.1938e-05
3.52422e-05
4.13909e-05
4.77693e-05
5.90106e-05
7.34679e-05
8.83324e-05
0.000108986
0.000124069
0.000135595
0.00014247
0.000144606
0.000144543
0.00014368
0.000140943
0.000137373
0.000134048
0.000127602
0.000126287
0.000125383
0.000126715
0.000140716
0.000142711
0.000120595
9.20935e-05
7.69212e-05
7.16218e-05
6.75712e-05
6.85552e-05
7.00325e-05
7.25487e-05
7.54197e-05
8.04425e-05
8.42665e-05
8.92375e-05
9.67904e-05
9.81244e-05
0.000102322
0.000102941
0.0001042
0.00011663
0.00011666
0.000111489
0.000109845
9.4959e-05
9.03582e-05
7.65342e-05
7.3119e-05
6.20406e-05
6.04031e-05
5.52843e-05
5.15695e-05
5.21759e-05
5.31504e-05
5.52062e-05
4.05678e-06
4.16594e-06
4.29548e-06
4.39909e-06
4.41682e-06
4.42003e-06
4.41264e-06
4.35639e-06
4.24895e-06
4.12236e-06
4.08029e-06
4.01971e-06
4.00183e-06
3.99695e-06
4.02505e-06
4.25045e-06
4.4802e-06
4.59496e-06
4.61997e-06
4.51007e-06
4.30229e-06
4.12226e-06
4.06824e-06
4.05274e-06
4.05884e-06
4.11889e-06
4.13308e-06
4.15757e-06
4.16228e-06
4.16167e-06
4.16266e-06
4.18557e-06
4.1897e-06
4.25637e-06
4.29408e-06
4.36678e-06
4.38806e-06
4.38905e-06
4.37132e-06
4.2838e-06
4.18619e-06
4.11736e-06
4.03545e-06
4.00421e-06
3.9748e-06
3.9628e-06
3.98674e-06
4.01505e-06
4.10277e-06
4.18719e-06
4.2644e-06
4.3188e-06
4.34498e-06
4.33964e-06
4.29709e-06
4.18082e-06
4.10322e-06
4.04307e-06
4.0138e-06
4.03015e-06
4.06152e-06
4.13886e-06
4.4223e-06
4.628e-06
4.95558e-06
5.25425e-06
5.41038e-06
5.67514e-06
5.78602e-06
5.91037e-06
6.04835e-06
6.07941e-06
6.15976e-06
6.13255e-06
6.09959e-06
6.00394e-06
5.92602e-06
5.75055e-06
5.60612e-06
5.39656e-06
5.17518e-06
5.01755e-06
4.79826e-06
4.70695e-06
4.57253e-06
4.49281e-06
4.41985e-06
4.32836e-06
4.25341e-06
4.16269e-06
4.12387e-06
4.07853e-06
4.05357e-06
4.01969e-06
3.99898e-06
4.00178e-06
4.00287e-06
4.02681e-06
4.04984e-06
4.0972e-06
4.1715e-06
4.20605e-06
4.30068e-06
4.34775e-06
4.42765e-06
4.48458e-06
4.58111e-06
4.70584e-06
4.76866e-06
4.91127e-06
5.00623e-06
5.16904e-06
5.31602e-06
5.59469e-06
5.81943e-06
6.20478e-06
6.69042e-06
7.2303e-06
8.08313e-06
8.68542e-06
1.01126e-05
1.11082e-05
1.24139e-05
1.42911e-05
1.55658e-05
1.77723e-05
1.96342e-05
2.13382e-05
2.37045e-05
2.52047e-05
2.70812e-05
2.83623e-05
2.95101e-05
3.07442e-05
3.11971e-05
3.18295e-05
3.23679e-05
3.26257e-05
3.31642e-05
3.38214e-05
3.4405e-05
3.58311e-05
3.74371e-05
3.9352e-05
4.35651e-05
4.73713e-05
5.49576e-05
6.31035e-05
7.57808e-05
9.57156e-05
0.000119481
0.000139525
0.000148803
0.000152685
0.000154259
0.000154118
0.000153087
0.000152054
0.00015011
0.0001463
0.00014434
0.000140538
0.000136547
0.000133895
0.000131907
0.000136485
0.000141892
0.000132593
9.56897e-05
8.05031e-05
7.47321e-05
7.45836e-05
7.17958e-05
7.3362e-05
7.04617e-05
7.66889e-05
8.12842e-05
9.27303e-05
9.08489e-05
9.15662e-05
8.9778e-05
9.28715e-05
9.47362e-05
0.000105041
0.00010556
0.000114936
0.000179237
0.000138225
0.000143287
0.000114831
0.000119183
9.58061e-05
8.89503e-05
7.24544e-05
6.73567e-05
6.13357e-05
5.60261e-05
5.42704e-05
5.42888e-05
5.51659e-05
2.54239e-06
2.56265e-06
2.59705e-06
2.62068e-06
2.63003e-06
2.62713e-06
2.62931e-06
2.62941e-06
2.61876e-06
2.60653e-06
2.5999e-06
2.60182e-06
2.60565e-06
2.66075e-06
2.69752e-06
2.73145e-06
2.73285e-06
2.70533e-06
2.67962e-06
2.6813e-06
2.68418e-06
2.71069e-06
2.71297e-06
2.69844e-06
2.67207e-06
2.65965e-06
2.67728e-06
2.7336e-06
2.80982e-06
2.82669e-06
2.83803e-06
2.80775e-06
2.75607e-06
2.72139e-06
2.6992e-06
2.69483e-06
2.69396e-06
2.69421e-06
2.69297e-06
2.67647e-06
2.6565e-06
2.6411e-06
2.63516e-06
2.63254e-06
2.63282e-06
2.638e-06
2.64109e-06
2.6579e-06
2.66411e-06
2.67773e-06
2.67975e-06
2.68263e-06
2.69336e-06
2.70442e-06
2.71602e-06
2.71924e-06
2.72391e-06
2.72109e-06
2.72601e-06
2.72589e-06
2.73077e-06
2.73507e-06
2.74808e-06
2.76178e-06
2.78758e-06
2.82518e-06
2.84439e-06
2.88111e-06
2.90404e-06
2.93655e-06
2.95873e-06
2.96454e-06
3.01227e-06
3.03759e-06
3.09426e-06
3.11372e-06
3.12849e-06
3.13004e-06
3.12809e-06
3.12669e-06
3.13467e-06
3.13986e-06
3.15499e-06
3.19146e-06
3.25268e-06
3.32338e-06
3.46699e-06
3.55681e-06
3.75855e-06
3.85297e-06
4.03312e-06
4.13337e-06
4.29518e-06
4.42116e-06
4.49276e-06
4.67247e-06
4.7768e-06
4.97191e-06
5.1021e-06
5.29603e-06
5.56378e-06
5.70923e-06
5.97013e-06
6.16126e-06
6.40165e-06
6.55976e-06
6.6925e-06
7.02118e-06
7.25285e-06
7.68196e-06
8.019e-06
8.80032e-06
9.30778e-06
1.02286e-05
1.11623e-05
1.19327e-05
1.35462e-05
1.44677e-05
1.64855e-05
1.78044e-05
2.03931e-05
2.22825e-05
2.47545e-05
2.77054e-05
3.03745e-05
3.33591e-05
3.59579e-05
3.90974e-05
4.126e-05
4.37933e-05
4.55586e-05
4.67495e-05
4.80751e-05
4.85964e-05
4.89905e-05
4.90363e-05
4.89123e-05
4.89212e-05
4.905e-05
4.94026e-05
5.01389e-05
5.19357e-05
5.40534e-05
5.8287e-05
6.37156e-05
7.03632e-05
8.31445e-05
9.83895e-05
0.000126153
0.000148411
0.000158248
0.000159007
0.000158732
0.000158086
0.000156484
0.00015374
0.000152445
0.000151112
0.000148467
0.000147241
0.000146211
0.000142885
0.000139775
0.000136725
0.000136356
0.000139973
0.000137083
0.000106528
8.15347e-05
7.39147e-05
7.49126e-05
7.63695e-05
7.54627e-05
7.00084e-05
7.07326e-05
7.49548e-05
9.19769e-05
0.000100413
0.000100652
9.77648e-05
8.89971e-05
8.74049e-05
9.07558e-05
0.000101283
0.000110859
0.00013403
0.000250985
0.000189117
0.000303575
0.000206663
0.000256332
0.000178568
0.000168441
0.000119336
9.75947e-05
7.91803e-05
6.79138e-05
6.06572e-05
5.75746e-05
5.62328e-05
2.44936e-06
2.47505e-06
2.51947e-06
2.58291e-06
2.57997e-06
2.56416e-06
2.54404e-06
2.54242e-06
2.5584e-06
2.67791e-06
2.77313e-06
2.82734e-06
2.83243e-06
2.78636e-06
2.71432e-06
2.66675e-06
2.65878e-06
2.64923e-06
2.65538e-06
2.71309e-06
2.84509e-06
3.02736e-06
3.10847e-06
3.15012e-06
3.15458e-06
3.09892e-06
3.0263e-06
2.92541e-06
2.89349e-06
2.88622e-06
2.92435e-06
3.06692e-06
3.151e-06
3.22837e-06
3.23255e-06
3.22586e-06
3.1589e-06
3.0921e-06
3.06646e-06
3.05174e-06
3.06303e-06
3.1186e-06
3.19004e-06
3.2703e-06
3.30381e-06
3.36001e-06
3.3788e-06
3.42106e-06
3.43265e-06
3.45596e-06
3.47265e-06
3.48368e-06