/*--------------------------------*- C++ -*----------------------------------*\
| =========                 |                                                 |
| \\      /  F ield         | OpenFOAM: The Open Source CFD Toolbox           |
|  \\    /   O peration     | Version:  2.4.0                                 |
|   \\  /    A nd           | Web:      www.OpenFOAM.org                      |
|    \\/     M anipulation  |                                                 |
\*---------------------------------------------------------------------------*/
FoamFile
{
    version     2.0;
    format      ascii;
    class       volScalarField;
    location    "1.35";
    object      p;
}
// * * * * * * * * * * * * * * * * * * * * * * * * * * * * * * * * * * * * * //

dimensions      [0 2 -2 0 0 0 0];

internalField   nonuniform List<scalar> 
8800
(
81.7307
69.375
61.9683
58.4541
56.5438
55.1613
53.9583
52.8491
51.8298
50.8749
49.9038
48.988
48.1101
47.2117
46.3425
45.5922
44.781
44.0474
43.2767
42.6075
78.62
69.0206
62.138
58.5679
56.6039
55.1858
53.9665
52.8492
51.8274
50.8737
49.901
48.9841
48.1101
47.2096
46.34
45.5918
44.7853
44.0407
43.2711
42.5606
76.6563
69.0927
62.743
58.9439
56.7736
55.2635
54.0125
52.8811
51.8521
50.8908
49.9115
48.988
48.114
47.207
46.3398
45.59
44.798
44.0396
43.2928
42.5698
75.1207
69.15
63.3361
59.3643
56.9585
55.3481
54.0763
52.9357
51.9039
50.9285
49.942
49.0029
48.1273
47.2068
46.3497
45.5858
44.8269
44.0721
43.4419
42.6238
73.8688
69.1175
63.8201
59.775
57.1324
55.409
54.1248
52.9898
51.9624
50.974
49.9847
49.0296
48.1439
47.2118
46.3618
45.5806
44.8538
44.1367
43.5814
42.6856
72.8802
69.0214
64.1939
60.117
57.2891
55.4491
54.1583
53.0301
52.0203
51.0204
50.0269
49.0524
48.1572
47.2154
46.3738
45.5733
44.864
44.1747
43.7019
42.7633
72.1215
68.9041
64.4718
60.3994
57.4288
55.4694
54.171
53.061
52.0623
51.0578
50.0685
49.0782
48.1654
47.2223
46.3729
45.5647
44.8451
44.1691
43.7712
43.2208
71.567
68.8101
64.6478
60.6142
57.553
55.4937
54.1584
53.0874
52.0904
51.0931
50.0885
49.1049
48.1596
47.2335
46.3576
45.5657
44.7946
44.112
43.5352
43.712
71.2058
68.7396
64.7609
60.7622
57.641
55.5085
54.1463
53.1072
52.1092
51.1123
50.1091
49.1221
48.162
47.24
46.3523
45.5471
44.7604
44.0807
43.604
44.2104
71.0312
68.7021
64.8105
60.8372
57.6902
55.5157
54.1377
53.1161
52.1211
51.123
50.1194
49.1272
48.163
47.241
46.3529
45.53
44.7528
44.0671
43.6721
44.2886
71.0254
68.7061
64.8092
60.8402
57.6887
55.5186
54.1316
53.1203
52.1212
51.1212
50.1212
49.13
48.1604
47.2451
46.353
45.5239
44.7486
44.0712
43.6819
44.3685
71.201
68.749
64.7499
60.7669
57.6482
55.5124
54.1369
53.114
52.1089
51.1084
50.1176
49.1247
48.1567
47.248
46.3605
45.5242
44.7513
44.0735
43.7073
44.4125
71.5536
68.8282
64.6356
60.62
57.5607
55.5022
54.1416
53.1041
52.0885
51.0827
50.1022
49.1185
48.1505
47.2521
46.3678
45.5298
44.7647
44.0846
43.7082
44.3841
72.1063
68.9272
64.45
60.405
57.4377
55.4831
54.1459
53.0844
52.054
51.0489
50.0839
49.1006
48.1384
47.259
46.3806
45.545
44.7838
44.1064
43.691
44.262
72.8612
69.042
64.1845
60.1175
57.297
55.4547
54.138
53.0553
52.0152
51.0024
50.0543
49.0792
48.1262
47.2603
46.3918
45.5613
44.8152
44.1435
43.6867
44.0674
73.8485
69.1355
63.8138
59.7683
57.147
55.4091
54.111
53.0156
51.9623
50.9466
50.0265
49.0512
48.1073
47.26
46.4079
45.577
44.8559
44.1903
43.7127
43.795
75.0958
69.1631
63.3411
59.3565
56.9754
55.3433
54.0618
52.9634
51.9088
50.8911
49.9923
49.0256
48.0943
47.2549
46.4188
45.5895
44.8965
44.2375
43.7709
43.5165
76.6351
69.0992
62.7506
58.9318
56.7939
55.2572
53.9994
52.9092
51.8611
50.8491
49.9667
49.0088
48.0859
47.2507
46.4281
45.6012
44.9257
44.2746
43.8266
43.3709
78.6009
69.0207
62.1499
58.5562
56.6254
55.1788
53.9538
52.8763
51.8373
50.833
49.955
49.004
48.0873
47.252
46.4335
45.6116
44.9391
44.2963
43.8189
43.2948
81.7162
69.3739
61.9794
58.4425
56.566
55.1531
53.9477
52.8747
51.8384
50.8381
49.956
49.0053
48.0924
47.2531
46.4355
45.6164
44.9421
44.3021
43.8171
43.4125
42.645
42.6566
42.622
42.5526
42.4997
42.4681
42.446
42.4359
42.4175
42.4107
42.3953
42.3657
42.3191
42.2283
42.1259
42.0211
41.9478
41.9476
42.0049
42.1325
42.2961
42.4662
42.6471
42.8029
42.9485
43.0591
43.0962
43.0613
42.8973
42.6115
42.2299
41.7862
41.3725
41.0315
40.8029
40.6828
40.6525
40.7401
40.8654
40.9945
41.1229
41.213
41.3192
41.4022
41.4105
41.3539
41.2285
41.0967
41.0063
40.936
40.9597
41.057
41.2539
41.5685
41.9652
42.451
42.9906
43.54
44.05
44.46
44.6819
44.7015
44.4548
43.968
43.2644
42.4035
41.4698
40.534
39.624
38.7824
37.9905
37.3046
36.7294
36.2785
36.0133
35.8842
35.9508
36.0948
36.3696
36.6236
36.8851
37.0861
37.1916
37.2471
37.2053
37.1455
36.9548
36.7755
36.5344
36.2538
36.0419
35.8183
35.6805
35.5989
35.6489
35.7439
35.8995
36.2596
36.6493
37.1076
37.6796
38.255
38.9115
39.552
40.2142
40.7925
41.2605
41.6719
41.7748
41.6582
41.23
40.4459
39.5277
38.4454
37.3594
36.4126
35.6039
34.9352
34.6158
34.4685
34.3473
34.5768
34.6098
34.6729
35.0324
34.976
35.0342
35.0533
34.7613
34.8078
34.6763
34.5397
34.7234
34.6455
34.568
34.755
34.6159
34.4684
34.479
34.2385
34.004
33.7875
33.4192
33.1735
32.8541
32.4766
32.1802
31.8793
31.6223
31.4318
31.3636
31.3974
31.6836
32.2312
33.1048
34.3943
36.0542
38.1997
40.6932
43.5822
46.6986
49.8281
52.8816
55.6712
58.1162
60.2266
61.8692
63.2334
64.0485
64.3618
64.2634
63.6459
62.7335
61.2438
59.4098
58.033
56.1529
54.2146
52.1825
49.9899
48.2262
46.8849
46.0397
45.9964
46.6012
47.3903
48.6913
50.1716
51.2961
52.2254
52.7284
53.1229
53.0483
52.5085
51.4843
49.8852
46.4687
41.1414
33.988
5.89642
42.4166
42.4002
42.4338
42.4679
42.4894
42.4799
42.4445
42.4244
42.3866
42.381
42.3679
42.3361
42.31
42.2236
42.1483
42.0642
41.9957
42.0047
42.0364
42.1489
42.2969
42.4413
42.6222
42.7547
42.8845
42.981
42.9901
42.9584
42.7939
42.5444
42.2182
41.8149
41.4593
41.1304
40.903
40.7967
40.733
40.8006
40.8989
41.0003
41.1408
41.1972
41.289
41.3461
41.3396
41.3241
41.2117
41.1026
41.0376
40.9755
41.0303
41.142
41.3356
41.6647
42.034
42.5006
43.0118
43.5038
43.9693
44.3299
44.5083
44.5264
44.2828
43.8341
43.1797
42.3757
41.4918
40.5827
39.7044
38.879
38.1225
37.4319
36.8819
36.4291
36.1522
35.9973
36.0101
36.1194
36.3007
36.521
36.7442
36.9162
37.0143
37.0845
37.0455
37.0241
36.8659
36.6901
36.5715
36.308
36.184
36.0511
35.9089
35.9115
35.9685
36.0871
36.2688
36.5963
36.9601
37.4153
37.9398
38.442
39.0673
39.6117
40.1897
40.7618
41.1004
41.4986
41.588
41.3994
41.1168
40.3701
39.4941
38.6056
37.5279
36.6691
35.9713
35.2616
34.9311
34.7042
34.4661
34.6003
34.5931
34.5795
34.8465
34.8587
34.8802
34.9478
34.7678
34.8263
34.8307
34.7025
34.9174
34.9311
34.9117
35.1002
35.112
35.0512
35.0661
35.0015
34.8413
34.7477
34.4886
34.313
34.0786
33.7529
33.4806
33.1696
32.8397
32.5653
32.3708
32.3002
32.3851
32.7738
33.4679
34.4705
35.9464
37.948
40.2971
43.0624
46.0942
49.234
52.3063
55.1457
57.8168
59.9986
61.7711
63.146
63.8938
64.1728
63.9482
63.1248
62.1184
60.1785
58.3624
56.7031
54.7709
52.4002
50.1416
47.5585
45.2421
43.2002
42.0519
41.5125
42.0881
43.0719
44.3575
46.0953
47.677
48.917
49.4814
49.6987
49.3051
48.5349
46.9444
44.4337
40.3158
31.5869
22.4765
-3.18524
42.4792
42.4378
42.4392
42.4873
42.5554
42.5453
42.4581
42.3975
42.3128
42.3101
42.3088
42.2836
42.3032
42.2249
42.1865
42.1233
42.0493
42.0766
42.0724
42.171
42.2993
42.4026
42.5859
42.6784
42.7919
42.8772
42.847
42.8379
42.6708
42.4574
42.2059
41.8331
41.5549
41.2449
41.0155
40.9274
40.8171
40.8757
40.939
41.0004
41.1551
41.1741
41.2617
41.31
41.2744
41.3041
41.2052
41.1232
41.1038
41.0332
41.1241
41.2421
41.4238
41.7608
42.091
42.5219
42.9876
43.4114
43.8168
44.1262
44.2476
44.2666
44.0249
43.6193
43.0292
42.2778
41.4871
40.6077
39.7865
38.9971
38.2618
37.6179
37.0637
36.6265
36.3409
36.1518
36.1196
36.1894
36.3006
36.4949
36.6659
36.8184
36.9302
36.9836
36.9751
36.9617
36.8455
36.7092
36.6183
36.4499
36.3691
36.2956
36.2104
36.2435
36.3205
36.4544
36.6528
36.9703
37.2887
37.7072
38.2007
38.6245
39.1917
39.6665
40.1535
40.6677
40.949
41.2541
41.3646
41.1692
40.9401
40.2867
39.4646
38.7396
37.7427
36.941
36.365
35.6876
35.2943
35.0395
34.7598
34.7388
34.7466
34.7206
34.8354
34.8725
34.8825
34.9453
34.8443
34.9014
34.9455
34.8952
35.1092
35.1819
35.2639
35.4549
35.556
35.6328
35.735
35.7729
35.7714
35.7386
35.6274
35.4941
35.3355
35.0601
34.7452
34.3716
34.0157
33.596
33.2392
33.0089
32.882
32.9841
33.4446
34.2372
35.499
37.2528
39.4938
42.1548
45.1646
48.3842
51.6017
54.6441
57.4628
59.8383
61.7191
63.1172
63.7565
64.0554
63.6843
62.7002
61.4012
59.1667
57.4371
55.6141
53.3128
51.043
48.4718
45.525
42.8312
40.3036
38.6544
37.7521
37.6511
38.812
40.5802
42.374
44.09
45.5241
46.2854
46.4176
45.9123
44.9058
42.8452
39.0766
35.311
24.6241
13.6996
-3.84913
41.796
41.8804
42.4409
42.8002
42.8963
42.761
42.5102
42.3528
42.1942
42.1965
42.2238
42.2204
42.303
42.2412
42.2474
42.2043
42.1135
42.1602
42.1197
42.1966
42.3033
42.3472
42.5365
42.5763
42.6726
42.755
42.6885
42.7107
42.5403
42.3679
42.186
41.841
41.6455
41.3626
41.1354
41.0798
40.9076
40.9678
40.9951
41.0074
41.1812
41.1503
41.2428
41.2976
41.2274
41.3046
41.211
41.1578
41.197
41.1066
41.2327
41.3467
41.5004
41.8478
42.1108
42.4998
42.9112
43.2464
43.5939
43.8399
43.9229
43.9388
43.706
43.3326
42.8312
42.1378
41.4492
40.636
39.8745
39.1534
38.4357
37.8618
37.3194
36.8841
36.6061
36.3967
36.3166
36.3549
36.421
36.5613
36.7132
36.8358
36.9429
36.9956
37.0045
36.9841
36.8926
36.8114
36.7183
36.6279
36.5942
36.5369
36.5667
36.5782
36.667
36.8651
37.0035
37.3201
37.6264
37.9748
38.4382
38.8073
39.3024
39.7198
40.1086
40.5656
40.7874
41.0142
41.1459
40.9418
40.7239
40.2389
39.4805
38.8544
38.0428
37.2824
36.7672
36.1909
35.7505
35.4644
35.2148
35.0757
35.0471
34.9734
34.9772
34.9847
34.9609
34.9892
34.9015
35.0026
35.0568
35.0688
35.3096
35.4246
35.6029
35.8798
36.0495
36.265
36.448
36.588
36.6994
36.7387
36.7682
36.6526
36.5269
36.3407
35.9831
35.529
35.0983
34.5474
33.9335
33.4498
33.0684
32.9232
33.1329
33.7082
34.7304
36.2444
38.2363
40.818
43.8897
47.2127
50.613
54.012
57.0393
59.5753
61.5035
62.9563
63.5843
63.8389
63.2829
61.9837
60.3217
58.1746
56.3063
54.473
51.801
49.6308
46.648
43.652
40.573
38.1683
35.7394
34.5446
34.1579
34.8877
36.9016
38.9879
41.0593
42.525
43.1828
43.4659
42.9048
41.4512
39.9321
34.7781
31.2629
21.0924
9.60423
-2.87106
41.5479
41.7921
42.748
43.2436
43.2842
42.967
42.5341
42.2755
42.0458
42.0434
42.1013
42.1443
42.2896
42.2511
42.3079
42.2797
42.1847
42.2358
42.1659
42.2255
42.2903
42.292
42.4626
42.4637
42.533
42.6014
42.5181
42.571
42.3947
42.2748
42.1452
41.8426
41.7054
41.4582
41.2605
41.2105
41.0205
41.0579
41.0649
41.0334
41.207
41.1376
41.2309
41.2863
41.2121
41.3156
41.2214
41.2125
41.2788
41.1938
41.3402
41.4268
41.5723
41.8944
42.0822
42.4397
42.7645
43.0307
43.3314
43.4831
43.5782
43.5661
43.3317
43.0317
42.5812
41.9664
41.3901
40.6597
39.9669
39.3397
38.676
38.1515
37.6579
37.2331
36.957
36.7302
36.6197
36.6034
36.6554
36.747
36.8614
36.9605
37.0634
37.1073
37.1059
37.1211
37.0096
36.9621
36.9109
36.8216
36.834
36.8182
36.8738
36.9144
37.0154
37.2084
37.3521
37.6285
37.9415
38.2434
38.6485
38.9968
39.383
39.791
40.0702
40.4533
40.6876
40.7837
40.9595
40.7744
40.5366
40.2369
39.5593
39.01
38.3951
37.6882
37.1829
36.725
36.2747
35.9681
35.7038
35.4858
35.3485
35.1981
35.159
35.0446
35.0191
35.0564
34.9688
35.0977
35.1826
35.2257
35.5136
35.714
35.9298
36.304
36.5715
36.8638
37.1886
37.4096
37.6411
37.8023
37.9189
37.8766
37.7167
37.5921
37.1879
36.6307
36.0775
35.3424
34.4841
33.7395
33.0685
32.7035
32.6541
32.8981
33.5455
34.752
36.5343
38.9551
42.054
45.6125
49.38
53.1002
56.3556
58.9852
61.0344
62.506
63.1731
63.3133
62.5927
61.0673
59.21
57.1451
55.2842
53.1288
50.5224
48.1118
44.7928
41.6779
38.6884
35.8637
33.4027
31.6674
31.3145
32.1003
33.9159
36.1142
38.2272
39.753
40.3359
40.6523
40.5621
38.1245
37.664
32.5055
27.9815
19.8982
9.67439
-0.221449
41.5953
41.9495
42.9868
43.4771
43.4349
43.0159
42.4948
42.1859
41.965
41.9718
42.0508
42.1328
42.2859
42.2898
42.3654
42.3415
42.2547
42.2838
42.2164
42.2497
42.2638
42.2475
42.38
42.3565
42.4156
42.4472
42.3924
42.4431
42.2824
42.1919
42.0977
41.8511
41.7509
41.5289
41.3727
41.3317
41.1291
41.1514
41.1262
41.0972
41.2172
41.1621
41.232
41.2798
41.2461
41.3164
41.2519
41.2743
41.3287
41.2984
41.4071
41.4902
41.6395
41.8822
42.0547
42.3318
42.5867
42.809
43.0448
43.1507
43.2134
43.1822
42.9878
42.7209
42.3213
41.8248
41.3027
40.6932
40.0858
39.5223
38.9627
38.4766
38.0267
37.6612
37.3657
37.1405
37.0132
36.9368
36.9931
37.0267
37.0929
37.1893
37.244
37.2718
37.285
37.2736
37.1858
37.1515
37.1101
37.0694
37.0713
37.1122
37.181
37.2337
37.3678
37.5075
37.6772
37.9256
38.2034
38.4953
38.8281
39.1677
39.4557
39.8487
40.0795
40.3555
40.6461
40.6518
40.8167
40.7138
40.4456
40.2653
39.7095
39.1943
38.7523
38.0883
37.6072
37.2281
36.7797
36.448
36.1128
35.8394
35.5725
35.3602
35.28
35.0807
35.0722
35.0655
34.9745
35.1222
35.2445
35.3445
35.6667
35.9622
36.2267
36.7339
37.1301
37.5068
37.9914
38.3011
38.6086
38.8647
39.0711
39.0845
38.9746
38.8418
38.3289
37.7202
37.0424
36.0844
35.0359
33.9951
33.061
32.3128
31.8547
31.645
31.9117
32.7006
34.1954
36.5689
39.7712
43.5698
47.682
51.7895
55.3691
58.0717
60.179
61.746
62.3321
62.3256
61.4901
60.0087
58.2771
56.09
54.4647
51.9106
49.3289
46.5911
43.4309
39.6828
37.175
33.5944
31.4351
29.4776
29.126
29.9416
31.9015
34.2299
35.9816
37.34
38.5117
37.9198
38.9421
36.1604
35.5938
31.534
26.384
20.3686
11.7848
3.18348
42.2693
42.4339
42.9527
43.0924
42.9131
42.5689
42.2061
42.0088
41.9302
41.9742
42.0897
42.1821
42.2974
42.3406
42.4061
42.3818
42.3085
42.3044
42.2493
42.2606
42.2196
42.2168
42.2868
42.2666
42.3047
42.3101
42.2824
42.323
42.1849
42.123
42.0399
41.8836
41.7763
41.5858
41.4702
41.377
41.2428
41.2213
41.1868
41.1667
41.2289
41.1904
41.2425
41.273
41.2885
41.3297
41.2691
41.3395
41.3599
41.3726
41.4645
41.5049
41.6847
41.8435
41.9901
42.2285
42.3946
42.6013
42.7853
42.8371
42.89
42.8352
42.6858
42.44
42.0951
41.7045
41.2312
40.7386
40.2253
39.6983
39.2502
38.8028
38.3768
38.0802
37.7519
37.5484
37.3998
37.3035
37.3426
37.3189
37.3676
37.4495
37.4401
37.495
37.4943
37.4366
37.4244
37.3413
37.3
37.3262
37.2838
37.3507
37.4718
37.506
37.6599
37.8006
37.9552
38.2084
38.4405
38.7201
39.0367
39.3104
39.5847
39.91
40.1188
40.3616
40.5888
40.6433
40.7268
40.6993
40.4822
40.2876
39.9334
39.4078
39.0613
38.522
37.9918
37.6886
37.2232
36.8178
36.4521
36.1005
35.7725
35.5326
35.3694
35.1118
35.0733
34.9729
34.9068
35.0958
35.2023
35.4183
35.7888
36.1774
36.5771
37.1479
37.6748
38.1569
38.7193
39.2033
39.5763
39.9684
40.2809
40.3318
40.3197
40.1721
39.6201
38.9114
38.0648
36.9185
35.6011
34.1897
32.8867
31.7321
30.7786
30.1204
29.8355
30.2496
31.4424
33.6524
36.9757
41.0714
45.6721
50.1398
53.8847
56.7951
59.0389
60.5054
61.0077
60.9684
60.1565
58.8584
57.1253
55.2326
53.5033
51.0326
48.384
45.3142
41.9658
38.1629
35.5721
31.8827
29.6725
28.0572
27.714
28.7797
31.3743
32.3778
34.3534
34.5507
36.9976
35.7691
37.046
35.1309
34.0977
31.7495
27.1153
22.3869
15.4433
7.93619
44.7489
44.3044
43.1286
42.253
41.76
41.5721
41.568
41.7175
41.8837
42.041
42.2118
42.294
42.356
42.4008
42.4292
42.3961
42.3204
42.2948
42.2458
42.2354
42.1789
42.1771
42.2151
42.1899
42.2175
42.2003
42.1982
42.1854
42.1196
42.0573
41.9933
41.8836
41.7667
41.6219
41.5277
41.437
41.3363
41.2759
41.2363
41.2451
41.2371
41.234
41.253
41.2712
41.3388
41.3201
41.2963
41.3858
41.3748
41.4331
41.4839
41.512
41.703
41.7894
41.9223
42.1268
42.2258
42.4349
42.5555
42.5633
42.6347
42.5423
42.4325
42.2259
41.9068
41.6203
41.1942
40.786
40.3687
39.8649
39.512
39.1036
38.6976
38.4472
38.1123
37.9248
37.7996
37.6457
37.6702
37.6237
37.6119
37.6968
37.6507
37.679
37.6929
37.601
37.6165
37.5364
37.4718
37.5721
37.4957
37.5823
37.744
37.7655
37.9184
38.0733
38.2226
38.4202
38.6728
38.9074
39.2155
39.4615
39.7097
40.0176
40.1852
40.4404
40.5996
40.6895
40.7687
40.7208
40.6059
40.3828
40.141
39.6889
39.3261
38.926
38.352
38.0418
37.577
37.0764
36.735
36.3182
35.9814
35.7024
35.3734
35.129
35.0273
34.8858
34.857
35.0477
35.1562
35.4527
35.8906
36.2943
36.8391
37.4605
38.1204
38.7687
39.4467
40.1362
40.6309
41.1416
41.5906
41.7046
41.7274
41.5936
41.1071
40.285
39.2215
37.8206
36.1273
34.3438
32.5748
31.0952
29.7319
28.5149
27.7252
27.5769
28.4282
30.496
33.8497
38.2358
43.2662
48.1468
52.1428
55.2134
57.4992
59.0039
59.3554
59.388
58.7044
57.5299
55.789
54.2106
52.5366
50.2746
47.3687
44.545
40.1133
36.927
33.9807
30.5902
28.3532
26.742
27.5378
28.7727
32.8865
29.6736
34.4518
31.9529
35.3192
34.354
35.0006
34.702
33.6222
32.4589
28.9257
25.1519
19.4198
12.7823
45.5747
44.9953
43.22
41.8606
41.1404
41.0074
41.1956
41.5421
41.8724
42.111
42.3378
42.4321
42.454
42.4773
42.4534
42.39
42.3217
42.2749
42.2372
42.2021
42.1392
42.1387
42.1509
42.1302
42.1504
42.1384
42.1355
42.1197
42.0681
42.0092
41.9493
41.8835
41.7686
41.6556
41.5754
41.4799
41.4147
41.3214
41.2908
41.3018
41.2623
41.2713
41.2711
41.2839
41.3706
41.3254
41.3187
41.416
41.382
41.4638
41.4873
41.5093
41.7006
41.7303
41.8608
42.0263
42.0727
42.2989
42.3402
42.3468
42.4329
42.2945
42.246
42.0662
41.7559
41.5792
41.1747
40.8294
40.5046
40.006
39.7444
39.3648
38.9722
38.788
38.4456
38.2801
38.1781
37.9479
37.9849
37.9129
37.837
37.9374
37.8538
37.8373
37.8958
37.7731
37.7862
37.7484
37.6511
37.7761
37.7095
37.7915
37.962
37.985
38.156
38.2999
38.4557
38.6436
38.8811
39.1264
39.376
39.6605
39.8432
40.1391
40.3143
40.4872
40.7168
40.7346
40.8554
40.8362
40.688
40.5956
40.3167
39.977
39.6532
39.2316
38.7781
38.3507
37.8914
37.4177
37.0096
36.5673
36.1417
35.776
35.3511
35.0983
34.9272
34.7597
34.7536
34.8727
35.04
35.3467
35.8454
36.3386
36.9884
37.7803
38.5451
39.3759
40.2164
41.0265
41.7215
42.3399
42.9256
43.189
43.2765
43.1475
42.6672
41.8155
40.4619
38.7462
36.6451
34.5153
32.4527
30.5426
28.9554
27.252
25.8414
25.229
25.5757
27.511
30.8518
35.4554
40.8111
45.9686
50.2219
53.422
55.767
57.2413
57.7097
57.6597
57.1395
56.1658
54.581
53.1717
51.6189
49.4967
46.2421
43.4467
38.3691
35.4909
33.1286
29.9225
27.854
26.0759
27.6433
31.1767
33.6186
25.256
32.0336
28.1198
32.8646
31.8156
33.8704
35.6942
35.2503
34.6426
31.801
28.2671
23.3439
17.5745
45.9441
45.4459
43.5304
41.9425
41.0119
40.7704
40.9822
41.3901
41.8385
42.1542
42.4098
42.5288
42.5261
42.5423
42.4703
42.3701
42.3049
42.2317
42.1815
42.1456
42.0927
42.0948
42.0925
42.0805
42.0956
42.0791
42.0785
42.0556
42.0249
41.9715
41.9006
41.8823
41.7534
41.6733
41.6075
41.4967
41.4752
41.3657
41.3194
41.3614
41.2807
41.3084
41.3006
41.2831
41.4037
41.3171
41.3396
41.4313
41.3845
41.4754
41.489
41.494
41.6855
41.6736
41.7911
41.9351
41.9301
42.1604
42.1677
42.1546
42.2507
42.1039
42.0777
41.9392
41.6398
41.5312
41.1682
40.8699
40.6111
40.1534
39.9391
39.6064
39.2412
39.0807
38.7671
38.6035
38.4934
38.2497
38.2616
38.1739
38.0742
38.1596
38.0479
38.0223
38.0796
37.9378
37.9565
37.9376
37.8216
37.9588
37.9272
37.9617
38.1893
38.1894
38.3755
38.5289
38.6439
38.8778
39.0511
39.3108
39.5456
39.8125
40.019
40.2551
40.4862
40.6069
40.846
40.9014
40.9402
41.03
40.8215
40.7743
40.5707
40.187
40.0047
39.5263
39.1344
38.7224
38.1971
37.837
37.2642
36.7832
36.3025
35.7748
35.3952
35.0081
34.7499
34.5434
34.4506
34.5641
34.7568
35.1366
35.7221
36.3342
37.1132
38.0266
38.9212
39.9167
40.9225
41.8689
42.7794
43.5851
44.2534
44.746
44.9268
44.7196
44.2649
43.3616
41.7437
39.6792
37.2765
34.822
32.5439
30.3659
28.4709
26.5808
24.669
23.5398
23.6908
25.1754
28.4323
33.1437
38.5138
43.7145
48.2146
51.6178
54.0678
55.594
56.1814
56.0281
55.5461
54.8001
53.7074
52.3287
50.8293
48.5617
45.6435
42.2391
37.0546
34.6719
32.3025
29.7735
28.026
26.7006
27.9877
33.5362
29.242
23.9527
28.7735
20.7769
28.4554
26.0939
33.7504
37.167
37.5651
37.5381
35.2516
31.9153
27.5
22.2398
46.153
45.7463
43.7828
42.0525
40.9854
40.6355
40.8319
41.2804
41.7759
42.1397
42.4247
42.5745
42.5756
42.5874
42.4885
42.3722
42.2959
42.2075
42.1409
42.1002
42.0617
42.0523
42.0496
42.0373
42.0474
42.0355
42.0284
42.0116
41.992
41.9298
41.8747
41.8609
41.75
41.6792
41.6294
41.5229
41.5218
41.409
41.3541
41.4116
41.3013
41.3465
41.3189
41.3021
41.4195
41.3234
41.3561
41.449
41.3722
41.4877
41.4715
41.4795
41.6629
41.6058
41.7358
41.8367
41.8178
42.0318
42.0229
41.9944
42.1006
41.9473
41.9438
41.8269
41.5662
41.4803
41.1839
40.9177
40.6977
40.3205
40.103
39.8276
39.4845
39.3412
39.0728
38.9072
38.7735
38.5521
38.5313
38.4107
38.318
38.3553
38.2241
38.218
38.2373
38.0996
38.1521
38.0989
37.9982
38.1588
38.0931
38.1323
38.3761
38.3676
38.5308
38.7477
38.8174
39.0608
39.272
39.4514
39.7587
39.9728
40.1909
40.4397
40.6236
40.7991
40.9691
41.0877
41.1044
41.1888
41.0971
40.9532
40.8765
40.524
40.3081
39.9354
39.4833
39.1363
38.5532
38.1296
37.5183
36.9135
36.4475
35.784
35.3504
34.8497
34.4332
34.2592
34.0517
34.2106
34.4364
34.838
35.5164
36.1789
37.1265
38.1325
39.1918
40.3937
41.5428
42.6659
43.7553
44.7291
45.5512
46.1804
46.4332
46.2896
45.8212
44.7525
42.9973
40.6463
37.8681
35.1961
32.8373
30.5421
28.4153
26.2863
24.217
22.8726
22.828
24.2006
27.294
31.7391
36.8632
41.954
46.4007
49.8854
52.5537
54.1869
54.9148
54.7487
54.3636
53.7076
52.7989
51.5297
50.0974
48.1009
45.3839
41.896
37.0997
34.6744
31.5907
29.3286
27.7
27.042
27.785
34.0983
28.131
28.2748
25.4119
16.6384
27.1509
22.359
35.5547
38.4023
39.6124
40.203
38.3361
35.3351
31.6089
26.8167
46.235
45.8369
43.8458
42.0952
41.0095
40.628
40.8133
41.256
41.7712
42.1387
42.4392
42.6106
42.606
42.6162
42.494
42.3631
42.2806
42.1852
42.1219
42.0576
42.0384
42.0272
42.0156
42.0132
42.0022
42.0095
41.986
41.9786
41.9612
41.8946
41.8496
41.8379
41.7512
41.6787
41.6407
41.5448
41.542
41.4422
41.3889
41.4348
41.3443
41.3607
41.3498
41.3188
41.4242
41.3286
41.3658
41.4454
41.3656
41.4801
41.4448
41.4702
41.6164
41.5547
41.675
41.7469
41.7104
41.9096
41.8706
41.872
41.9505
41.8191
41.8294
41.7261
41.52
41.4366
41.2053
40.9776
40.7826
40.4723
40.282
40.0297
39.7593
39.6106
39.3458
39.2023
39.0476
38.8293
38.7928
38.6499
38.5449
38.556
38.4236
38.3889
38.3967
38.2594
38.2959
38.2529
38.1537
38.3087
38.246
38.3017
38.5265
38.5386
38.7026
38.9117
39.0174
39.2155
39.462
39.6329
39.9014
40.1771
40.3415
40.6218
40.8106
40.9611
41.1796
41.2612
41.3463
41.4065
41.3603
41.2719
41.1563
40.9495
40.6513
40.3524
39.9496
39.4892
38.9656
38.3887
37.7891
37.1358
36.5191
35.8328
35.1959
34.637
34.1527
33.8868
33.7207
33.7725
34.037
34.4762
35.1518
35.9801
36.999
38.1489
39.3772
40.7105
42.0686
43.2995
44.5472
45.7104
46.601
47.3805
47.6945
47.5318
47.1621
45.9081
43.888
41.4845
38.4082
35.4435
33.2386
31.0405
28.7263
26.4648
24.3262
22.9246
22.7726
24.1035
27.1108
31.358
36.177
40.9232
45.131
48.6266
51.3341
53.0828
53.818
53.863
53.5358
52.9726
52.1048
50.9361
49.5613
47.8292
45.2588
42.2717
37.8686
35.0728
31.7232
29.3907
26.1239
26.2169
26.7716
29.8359
23.0215
25.026
22.4282
19.7053
28.6328
29.327
39.9768
40.3105
41.7316
42.6205
40.6447
38.7223
35.9165
31.2612
46.1815
45.7677
43.8179
42.1062
41.0831
40.7366
40.9148
41.3495
41.846
42.1933
42.4763
42.6296
42.611
42.6014
42.474
42.346
42.2594
42.166
42.1071
42.0265
42.0191
42.0034
41.9931
41.9959
41.9685
41.9877
41.9503
41.9389
41.9302
41.8536
41.8205
41.8066
41.7394
41.6797
41.6401
41.5746
41.5527
41.4898
41.4216
41.4653
41.3827
41.3804
41.378
41.3375
41.425
41.338
41.3747
41.4328
41.3716
41.455
41.4267
41.4463
41.5592
41.4998
41.6063
41.6584
41.6464
41.7884
41.7523
41.7669
41.8159
41.7248
41.7248
41.6524
41.4873
41.4069
41.2322
41.0488
40.8656
40.6337
40.4637
40.2289
40.0286
39.8504
39.6139
39.4832
39.3055
39.1056
39.0458
38.8853
38.7706
38.7517
38.6117
38.5569
38.5473
38.426
38.424
38.4124
38.3112
38.4168
38.4217
38.4262
38.6451
38.69
38.8274
39.0517
39.1688
39.3855
39.6102
39.834
40.0704
40.3426
40.5702
40.769
41.0294
41.1711
41.3615
41.514
41.564
41.6806
41.6397
41.6037
41.512
41.2952
41.0933
40.7397
40.3793
39.8927
39.3241
38.7699
38.0587
37.3743
36.608
35.8336
35.1463
34.4359
33.9237
33.5204
33.3125
33.3698
33.5897
34.1464
34.8337
35.7443
36.8986
38.0617
39.4454
40.8862
42.3184
43.7421
45.0095
46.2638
47.3136
48.1191
48.5946
48.4332
47.9181
46.7342
44.4623
41.8144
38.9099
35.8414
33.4835
31.6233
29.4524
27.0656
24.9983
23.6849
23.5505
24.8974
27.7899
31.8123
36.2664
40.6463
44.5158
47.84
50.3218
51.9574
52.7716
52.978
52.7863
52.4233
51.5875
50.609
49.3358
47.506
45.0978
42.5383
38.4232
35.3896
31.8415
29.1353
25.7573
24.0165
23.4681
23.64
16.41
21.2868
18.6576
24.1163
32.4635
37.9196
42.3015
42.416
43.6251
43.3441
41.8092
41.7773
39.452
34.9237
45.9662
45.5885
43.726
42.1473
41.2367
40.9569
41.1563
41.5551
41.9872
42.2859
42.4936
42.6137
42.5799
42.5509
42.4375
42.3125
42.2306
42.1409
42.0913
42.013
42.0029
41.9893
41.9708
41.9748
41.9388
41.9555
41.9186
41.9002
41.8977
41.819
41.8001
41.7728
41.7274
41.6818
41.638
41.5986
41.5654
41.5143
41.4638
41.4689
41.4194
41.4015
41.3903
41.3728
41.4044
41.3599
41.3749
41.4087
41.3715
41.4195
41.3993
41.4266
41.4887
41.4632
41.5407
41.5611
41.5715
41.6569
41.651
41.657
41.6919
41.6409
41.6343
41.5825
41.4749
41.3903
41.2728
41.1253
40.9559
40.7982
40.6225
40.4476
40.2677
40.0758
39.8942
39.7456
39.5642
39.399
39.2839
39.1193
39.0134
38.9223
38.7934
38.7294
38.6573
38.5758
38.5449
38.5076
38.4656
38.511
38.5453
38.5794
38.7348
38.8365
38.9582
39.1711
39.3213
39.5269
39.7632
39.9851
40.2377
40.494
40.7443
40.9563
41.2013
41.3978
41.5644
41.7482
41.8435
41.9265
41.9708
41.9293
41.8358
41.6881
41.4562
41.1211
40.7396
40.2658
39.6955
39.0653
38.3342
37.5634
36.7494
35.9224
35.1246
34.3489
33.7368
33.2826
33.0386
33.082
33.3274
33.8703
34.6151
35.5669
36.7669
37.9902
39.3902
40.9194
42.3885
43.8636
45.2128
46.4226
47.4574
48.291
48.8817
48.9126
48.2905
46.9856
44.8218
42.0344
39.1604
36.4676
34.0868
32.1261
30.2569
28.1955
26.3075
25.1115
25.2269
26.5457
29.3077
33.1614
37.2773
41.3171
44.778
47.4979
49.4739
50.7241
51.5797
51.9321
52.0152
51.8436
51.1728
50.3176
49.3623
47.5071
45.0927
42.58
39.4851
36.3138
32.0517
30.3954
26.5702
25.5202
25.194
23.6972
11.183
18.4161
21.6576
31.451
39.4405
42.5658
43.0745
43.4126
44.025
42.5604
42.5659
43.2951
40.491
36.4072
45.4818
45.1357
43.5515
42.2335
41.5277
41.3285
41.5305
41.8496
42.1517
42.3773
42.4968
42.568
42.539
42.4806
42.3852
42.274
42.1941
42.1245
42.0731
42.0137
41.9967
41.978
41.9606
41.9527
41.9206
41.922
41.8848
41.8686
41.8502
41.7916
41.778
41.7411
41.7161
41.681
41.6319
41.6191
41.5697
41.5361
41.5043
41.4692
41.4591
41.4189
41.4091
41.4046
41.392
41.3818
41.3839
41.3784
41.3795
41.382
41.3677
41.4044
41.4063
41.4204
41.4643
41.4724
41.5128
41.5481
41.5534
41.5923
41.5799
41.5828
41.5679
41.5188
41.4733
41.3852
41.31
41.2
41.0653
40.9403
40.7967
40.6444
40.4816
40.3124
40.1509
39.9832
39.8105
39.6516
39.4919
39.3404
39.2231
39.075
38.9817
38.8847
38.7725
38.735
38.6493
38.6074
38.6045
38.5932
38.6411
38.7025
38.8039
38.9224
39.0715
39.2473
39.4358
39.6633
39.8788
40.1457
40.3928
40.6428
40.9195
41.1255
41.3742
41.582
41.7575
41.9427
42.0595
42.1645
42.2052
42.195
42.1164
41.9674
41.7532
41.429
41.0582
40.567
39.967
39.3018
38.5344
37.7281
36.8748
36.0123
35.1778
34.3754
33.7334
33.252
32.997
33.0172
33.2556
33.7903
34.5325
35.4786
36.6584
37.8976
39.2897
40.814
42.2842
43.6388
44.942
46.2086
47.301
48.0869
48.5382
48.6656
48.1928
47.0013
45.0147
42.3851
39.5222
37.0492
35.0275
33.1522
31.3277
29.5836
28.157
27.5117
27.7111
29.1062
31.8065
35.422
39.1493
42.7094
45.5057
47.3244
48.5108
49.3244
50.07
50.8467
51.2789
51.3062
50.8055
50.1068
49.2567
47.697
45.5181
43.046
40.5184
37.8467
33.4799
32.9883
28.7632
28.3449
27.7025
25.3801
17.4224
22.782
28.2553
35.8364
42.5555
42.9211
41.5078
43.0859
43.9065
42.1633
42.8363
42.4119
39.8233
36.7338
44.7235
44.4674
43.3695
42.4515
41.9885
41.8509
41.9709
42.1564
42.3143
42.4476
42.4911
42.5148
42.4837
42.4129
42.3327
42.2432
42.172
42.1074
42.0592
42.0099
41.9889
41.9683
41.9474
41.9384
41.9062
41.8951
41.8643
41.837
41.8156
41.7651
41.7528
41.7181
41.6951
41.6813
41.6328
41.6318
41.5889
41.5523
41.5367
41.483
41.4758
41.444
41.4149
41.4226
41.3881
41.3869
41.3857
41.3558
41.3723
41.3547
41.3453
41.3771
41.3523
41.3799
41.4012
41.375
41.4509
41.4398
41.4748
41.5204
41.4925
41.5315
41.5151
41.4787
41.4736
41.3977
41.3446
41.2764
41.161
41.0787
40.9393
40.7972
40.6712
40.5058
40.3548
40.1966
40.0178
39.8605
39.6899
39.5248
39.3854
39.2274
39.1075
38.9942
38.8734
38.8143
38.7302
38.6831
38.6887
38.6693
38.7262
38.7998
38.8775
39.0191
39.1635
39.333
39.5389
39.7571
39.9848
40.2437
40.4991
40.7458
41.0212
41.2469
41.4822
41.715
41.8918
42.0812
42.2213
42.3181
42.3768
42.3657
42.2893
42.1434
41.9294
41.6141
41.2234
40.7375
40.1413
39.4705
38.7034
37.8802
37.0191
36.1426
35.2946
34.493
33.8348
33.3588
33.1025
33.1109
33.3564
33.8632
34.6007
35.5071
36.601
37.8218
39.1946
40.6559
42.0874
43.4198
44.6405
45.8018
46.8394
47.6029
48.0643
48.1428
47.6553
46.5816
44.8748
42.6932
40.1975
37.8536
35.9216
34.2458
32.6833
31.2893
30.3271
30.1098
30.6827
32.2078
34.7137
37.9855
41.2281
44.0467
45.9949
47.0576
47.7641
48.3803
49.2978
50.2268
50.9389
51.1136
50.5548
49.9391
49.1711
47.7806
45.6543
43.2676
40.6609
38.1911
34.6824
34.655
28.1443
28.4434
28.0966
29.1168
22.97
28.2125
32.9361
40.0218
42.9652
43.2329
41.5745
43.2398
43.6848
42.0942
42.3264
40.4574
38.9394
36.2269
43.8745
43.7623
43.2609
42.7952
42.5374
42.3962
42.3885
42.4271
42.4535
42.497
42.4854
42.4656
42.4247
42.3511
42.2838
42.2143
42.1538
42.1016
42.0597
42.0199
41.9911
41.9638
41.9375
41.9175
41.8868
41.8681
41.8408
41.8146
41.7895
41.7535
41.7381
41.7056
41.6881
41.6761
41.6398
41.6327
41.5974
41.5653
41.5466
41.4979
41.4864
41.4584
41.4309
41.4288
41.3976
41.3917
41.3813
41.3515
41.3555
41.3369
41.3257
41.341
41.3195
41.3436
41.3564
41.3556
41.4037
41.4034
41.4273
41.4669
41.4522
41.4878
41.4821
41.4591
41.466
41.4115
41.3742
41.3257
41.2337
41.159
41.0413
40.9186
40.7989
40.6426
40.4953
40.3363
40.1583
39.9984
39.8218
39.6454
39.4997
39.3324
39.1975
39.0807
38.9528
38.8792
38.8009
38.7485
38.7445
38.7384
38.7838
38.8573
38.9429
39.0745
39.2274
39.3997
39.6052
39.8292
40.06
40.3163
40.5702