/*--------------------------------*- C++ -*----------------------------------*\
| =========                 |                                                 |
| \\      /  F ield         | OpenFOAM: The Open Source CFD Toolbox           |
|  \\    /   O peration     | Version:  2.4.0                                 |
|   \\  /    A nd           | Web:      www.OpenFOAM.org                      |
|    \\/     M anipulation  |                                                 |
\*---------------------------------------------------------------------------*/
FoamFile
{
    version     2.0;
    format      ascii;
    class       surfaceScalarField;
    location    "1.35";
    object      phi;
}
// * * * * * * * * * * * * * * * * * * * * * * * * * * * * * * * * * * * * * //

dimensions      [0 3 -1 0 0 0 0];

internalField   nonuniform List<scalar> 
17320
(
1.76381e-05
7.36186e-06
1.16186e-05
6.01955e-06
8.68247e-06
2.93612e-06
7.35615e-06
1.32632e-06
6.71742e-06
6.38726e-07
6.34511e-06
3.72311e-07
6.07762e-06
2.67498e-07
5.86759e-06
2.10026e-07
5.70874e-06
1.58852e-07
5.58721e-06
1.2153e-07
5.47139e-06
1.15816e-07
5.39356e-06
7.78321e-08
5.31141e-06
8.21445e-08
5.22594e-06
8.54784e-08
5.13426e-06
9.16793e-08
5.09443e-06
3.9829e-08
4.97894e-06
1.15492e-07
5.00696e-06
-2.80227e-08
4.80386e-06
2.03095e-07
-4.42756e-07
5.24662e-06
2.54625e-05
6.89937e-06
2.32483e-05
8.23378e-06
2.09928e-05
5.19157e-06
1.93184e-05
3.00073e-06
1.80763e-05
1.88087e-06
1.71158e-05
1.33281e-06
1.63651e-05
1.01816e-06
1.57715e-05
8.03634e-07
1.53112e-05
6.19158e-07
1.49381e-05
4.94662e-07
1.46255e-05
4.28363e-07
1.43847e-05
3.18594e-07
1.41495e-05
3.17372e-07
1.39437e-05
2.91247e-07
1.37266e-05
3.08856e-07
1.35878e-05
1.78626e-07
1.334e-05
3.63237e-07
1.33126e-05
-5.62119e-10
1.31755e-05
3.40177e-07
-6.19653e-07
1.33524e-05
2.66222e-05
5.27717e-06
2.71503e-05
7.70566e-06
2.67866e-05
5.55527e-06
2.625e-05
3.53733e-06
2.56074e-05
2.52347e-06
2.48785e-05
2.06171e-06
2.416e-05
1.73669e-06
2.35006e-05
1.46306e-06
2.29391e-05
1.18063e-06
2.24478e-05
9.85984e-07
2.20253e-05
8.5082e-07
2.16903e-05
6.53646e-07
2.1356e-05
6.5163e-07
2.10784e-05
5.68834e-07
2.07918e-05
5.95498e-07
2.05757e-05
3.94752e-07
2.02822e-05
6.56685e-07
2.01577e-05
1.23927e-07
2.01416e-05
3.56245e-07
-9.9363e-07
2.05156e-05
2.63312e-05
3.94595e-06
2.75302e-05
6.50667e-06
2.80913e-05
4.99414e-06
2.84535e-05
3.17518e-06
2.86457e-05
2.33124e-06
2.86346e-05
2.07281e-06
2.84778e-05
1.89348e-06
2.8232e-05
1.70891e-06
2.79748e-05
1.43781e-06
2.76978e-05
1.26302e-06
2.74166e-05
1.13197e-06
2.71856e-05
8.84619e-07
2.69156e-05
9.21648e-07
2.66716e-05
8.1288e-07
2.644e-05
8.27105e-07
2.61956e-05
6.39118e-07
2.59716e-05
8.80693e-07
2.56877e-05
4.07852e-07
2.55761e-05
4.67758e-07
-6.03842e-07
2.51864e-05
2.60502e-05
2.8958e-06
2.7216e-05
5.34084e-06
2.80426e-05
4.16754e-06
2.85271e-05
2.69064e-06
2.89857e-05
1.8727e-06
2.93293e-05
1.72922e-06
2.95814e-05
1.64139e-06
2.9727e-05
1.56323e-06
2.98487e-05
1.31617e-06
2.99173e-05
1.19435e-06
2.9944e-05
1.10532e-06
2.99787e-05
8.49907e-07
2.99711e-05
9.29199e-07
2.99103e-05
8.73769e-07
2.9912e-05
8.25372e-07
2.97805e-05
7.7059e-07
2.97377e-05
9.23487e-07
2.94464e-05
6.99143e-07
2.93375e-05
5.76659e-07
-2.9206e-08
2.87629e-05
2.58669e-05
2.02891e-06
2.69786e-05
4.22916e-06
2.77938e-05
3.35236e-06
2.82118e-05
2.27257e-06
2.87104e-05
1.37416e-06
2.91297e-05
1.30988e-06
2.94978e-05
1.27331e-06
2.96954e-05
1.36563e-06
2.99966e-05
1.015e-06
3.0134e-05
1.05686e-06
3.0363e-05
8.76381e-07
3.0497e-05
7.15913e-07
3.07512e-05
6.75008e-07
3.07779e-05
8.47006e-07
3.10407e-05
5.62631e-07
3.10307e-05
7.80528e-07
3.12263e-05
7.27903e-07
3.095e-05
9.75458e-07
3.10107e-05
5.15942e-07
7.02298e-07
3.02792e-05
2.57141e-05
1.31476e-06
2.67344e-05
3.20889e-06
2.76025e-05
2.48427e-06
2.80709e-05
1.80414e-06
2.8434e-05
1.01109e-06
2.87806e-05
9.63282e-07
2.92612e-05
7.92657e-07
2.94629e-05
1.16393e-06
2.98664e-05
6.11551e-07
3.0006e-05
9.17304e-07
3.02954e-05
5.86909e-07
3.03206e-05
6.90779e-07
3.06852e-05
3.10367e-07
3.06797e-05
8.52522e-07
3.10198e-05
2.22483e-07
3.10552e-05
7.45206e-07
3.13805e-05
4.02596e-07
3.11486e-05
1.20734e-06
3.09665e-05
6.97989e-07
1.51417e-06
3.01547e-05
2.55017e-05
8.13025e-07
2.66087e-05
2.10197e-06
2.7447e-05
1.64597e-06
2.80324e-05
1.21868e-06
2.83854e-05
6.58108e-07
2.86008e-05
7.47887e-07
2.89851e-05
4.08358e-07
2.92897e-05
8.59309e-07
2.95705e-05
3.30735e-07
2.98157e-05
6.72183e-07
3.00532e-05
3.49417e-07
3.02798e-05
4.64153e-07
3.0479e-05
1.11127e-07
3.06359e-05
6.95626e-07
3.08114e-05
4.70012e-08
3.09804e-05
5.76236e-07
3.11187e-05
2.64223e-07
3.15263e-05
7.99795e-07
3.17521e-05
4.72138e-07
4.5746e-07
3.28088e-05
2.54675e-05
3.45522e-07
2.64924e-05
1.07711e-06
2.72614e-05
8.76912e-07
2.78737e-05
6.06398e-07
2.83197e-05
2.12073e-07
2.86245e-05
4.43151e-07
2.8871e-05
1.61789e-07
2.92251e-05
5.05272e-07
2.94679e-05
8.79342e-08
2.9748e-05
3.92091e-07
2.98908e-05
2.06571e-07
3.01837e-05
1.71312e-07
3.02068e-05
8.79709e-08
3.0547e-05
3.55396e-07
3.06984e-05
-1.04385e-07
3.09283e-05
3.46329e-07
3.10508e-05
1.41802e-07
3.13796e-05
4.7092e-07
3.15854e-05
2.66396e-07
-3.22576e-07
3.23654e-05
2.54059e-05
-6.04121e-08
2.64017e-05
8.13809e-08
2.73709e-05
-9.23245e-08
2.78916e-05
8.57297e-08
2.81524e-05
-4.88041e-08
2.85386e-05
5.69615e-08
2.87676e-05
-6.72147e-08
2.91758e-05
9.70613e-08
2.9449e-05
-1.85179e-07
2.9687e-05
1.54088e-07
2.99188e-05
-2.52618e-08
3.01513e-05
-6.12038e-08
3.02604e-05
-2.1141e-08
3.05048e-05
1.11061e-07
3.05648e-05
-1.64432e-07
3.085e-05
6.11719e-08
3.10623e-05
-7.05614e-08
3.13517e-05
1.81576e-07
3.16462e-05
-2.81363e-08
-5.64232e-07
3.18879e-05
2.54417e-05
-5.02138e-07
2.64309e-05
-9.07784e-07
2.72101e-05
-8.71526e-07
2.78957e-05
-5.99891e-07
2.82272e-05
-3.80265e-07
2.85527e-05
-2.68538e-07
2.88191e-05
-3.33648e-07
2.91789e-05
-2.62763e-07
2.93718e-05
-3.78081e-07
2.97009e-05
-1.74928e-07
2.98484e-05
-1.7277e-07
3.00514e-05
-2.64217e-07
3.02639e-05
-2.33676e-07
3.04874e-05
-1.12396e-07
3.05794e-05
-2.56501e-07
3.08924e-05
-2.51781e-07
3.10936e-05
-2.71822e-07
3.13972e-05
-1.21928e-07
3.15985e-05
-2.29443e-07
-5.79598e-07
3.16138e-05
2.54289e-05
-9.31072e-07
2.64912e-05
-1.9701e-06
2.73439e-05
-1.72418e-06
2.7955e-05
-1.21098e-06
2.82212e-05
-6.46476e-07
2.85644e-05
-6.11754e-07
2.88725e-05
-6.41697e-07
2.92197e-05
-6.10013e-07
2.94512e-05
-6.09528e-07
2.97706e-05
-4.94345e-07
2.99471e-05
-3.49273e-07
3.01823e-05
-4.99402e-07
3.03244e-05
-3.75776e-07
3.052e-05
-3.0799e-07
3.06872e-05
-4.23771e-07
3.09084e-05
-4.72916e-07
3.11031e-05
-4.66588e-07
3.14036e-05
-4.22359e-07
3.16522e-05
-4.78083e-07
-8.22089e-07
3.18947e-05
2.55406e-05
-1.47167e-06
2.65652e-05
-2.99467e-06
2.74339e-05
-2.59287e-06
2.80245e-05
-1.80165e-06
2.83176e-05
-9.39592e-07
2.87048e-05
-9.98934e-07
2.89865e-05
-9.23406e-07
2.93086e-05
-9.32063e-07
2.95748e-05
-8.75732e-07
2.98401e-05
-7.59631e-07
3.00262e-05
-5.35394e-07
3.0273e-05
-7.4617e-07
3.03895e-05
-4.92334e-07
3.06382e-05
-5.56676e-07
3.081e-05
-5.95597e-07
3.10358e-05
-6.98699e-07
3.11896e-05
-6.20394e-07
3.15321e-05
-7.64858e-07
3.18331e-05
-7.7906e-07
-1.06321e-06
3.20742e-05
2.56668e-05
-2.13848e-06
2.67572e-05
-4.08512e-06
2.76018e-05
-3.43742e-06
2.8057e-05
-2.25683e-06
2.84667e-05
-1.34933e-06
2.88552e-05
-1.3874e-06
2.91665e-05
-1.23476e-06
2.94928e-05
-1.25828e-06
2.9754e-05
-1.13701e-06
3.00098e-05
-1.01538e-06
3.02207e-05
-7.46336e-07
3.04398e-05
-9.65223e-07
3.05758e-05
-6.28335e-07
3.07967e-05
-7.77652e-07
3.09361e-05
-7.34917e-07
3.11669e-05
-9.29549e-07
3.13301e-05
-7.83612e-07
3.16846e-05
-1.11929e-06
3.19357e-05
-1.03016e-06
-1.22743e-06
3.20999e-05
2.58301e-05
-2.96854e-06
2.69565e-05
-5.21151e-06
2.78161e-05
-4.29707e-06
2.82299e-05
-2.6706e-06
2.86998e-05
-1.81929e-06
2.91018e-05
-1.78936e-06
2.94368e-05
-1.56974e-06
2.9721e-05
-1.5425e-06
2.99911e-05
-1.40712e-06
3.01795e-05
-1.20382e-06
3.03812e-05
-9.48007e-07
3.05397e-05
-1.12375e-06
3.06945e-05
-7.83055e-07
3.08475e-05
-9.30705e-07
3.09649e-05
-8.52307e-07
3.10914e-05
-1.05601e-06
3.11887e-05
-8.80991e-07
3.14151e-05
-1.3456e-06
3.15385e-05
-1.15361e-06
-1.48005e-06
3.17911e-05
2.60383e-05
-4.00685e-06
2.72532e-05
-6.42643e-06
2.80211e-05
-5.06489e-06
2.84799e-05
-3.12941e-06
2.89804e-05
-2.31983e-06
2.93236e-05
-2.1326e-06
2.95893e-05
-1.83542e-06
2.97393e-05
-1.69244e-06
2.98481e-05
-1.51598e-06
2.98941e-05
-1.24978e-06
2.99657e-05
-1.01965e-06
2.99377e-05
-1.09567e-06
2.99568e-05
-8.02231e-07
2.99113e-05
-8.8521e-07
2.98656e-05
-8.06581e-07
2.97755e-05
-9.65855e-07
2.96998e-05
-8.05309e-07
2.96248e-05
-1.27066e-06
2.95342e-05
-1.06295e-06
-1.5506e-06
2.96047e-05
2.63061e-05
-5.31298e-06
2.75431e-05
-7.66342e-06
2.80656e-05
-5.58735e-06
2.84498e-05
-3.51362e-06
2.86485e-05
-2.51858e-06
2.86143e-05
-2.09836e-06
2.84786e-05
-1.69972e-06
2.82348e-05
-1.44864e-06
2.79548e-05
-1.23596e-06
2.76873e-05
-9.82284e-07
2.74378e-05
-7.70205e-07
2.71365e-05
-7.94386e-07
2.69198e-05
-5.85515e-07
2.66518e-05
-6.17151e-07
2.64107e-05
-5.65538e-07
2.61295e-05
-6.84578e-07
2.58955e-05
-5.71352e-07
2.55507e-05
-9.25879e-07
2.53174e-05
-8.29648e-07
-1.39118e-06
2.5158e-05
2.66056e-05
-6.91862e-06
2.71604e-05
-8.21817e-06
2.67698e-05
-5.19673e-06
2.62493e-05
-2.99319e-06
2.56044e-05
-1.87368e-06
2.4864e-05
-1.35796e-06
2.41625e-05
-9.98198e-07
2.35058e-05
-7.91967e-07
2.29193e-05
-6.49445e-07
2.24422e-05
-5.05123e-07
2.20392e-05
-3.67267e-07
2.16485e-05
-4.03685e-07
2.13542e-05
-2.91155e-07
2.1046e-05
-3.09012e-07
2.07725e-05
-2.91985e-07
2.04622e-05
-3.74305e-07
2.02012e-05
-3.10332e-07
1.97798e-05
-5.04486e-07
1.94227e-05
-4.72596e-07
-5.16006e-07
1.85476e-05
2.54494e-05
-7.36801e-06
2.32471e-05
-6.01586e-06
2.09842e-05
-2.9338e-06
1.93187e-05
-1.32769e-06
1.80777e-05
-6.3267e-07
1.71046e-05
-3.84875e-07
1.63669e-05
-2.60503e-07
1.5777e-05
-2.02066e-07
1.5298e-05
-1.70469e-07
1.49271e-05
-1.3418e-07
1.46397e-05
-7.98731e-08
1.43523e-05
-1.16322e-07
1.41384e-05
-7.72788e-08
1.3915e-05
-8.56235e-08
1.37091e-05
-8.60714e-08
1.34604e-05
-1.25598e-07
1.32451e-05
-9.49766e-08
1.29109e-05
-1.7036e-07
1.26467e-05
-2.08338e-07
-9.7278e-08
1.22279e-05
1.7632e-05
1.16161e-05
8.68233e-06
7.35463e-06
6.72196e-06
6.33709e-06
6.07658e-06
5.87452e-06
5.70405e-06
5.56987e-06
5.48999e-06
5.37367e-06
5.29639e-06
5.21077e-06
5.1247e-06
4.9991e-06
4.90412e-06
4.73376e-06
4.52543e-06
4.42815e-06
5.71556e-06
-2.77401e-07
-1.91536e-07
6.07279e-06
-1.56192e-07
-2.01046e-07
6.31929e-06
-5.66438e-08
-1.89857e-07
6.49596e-06
-2.08979e-08
-1.55771e-07
6.65597e-06
-4.69518e-08
-1.13054e-07
6.83121e-06
-8.04236e-08
-9.4818e-08
7.01927e-06
-1.22056e-07
-6.60012e-08
7.21572e-06
-1.35508e-07
-6.0943e-08
7.38055e-06
-1.25451e-07
-3.93819e-08
7.53592e-06
-1.09821e-07
-4.55509e-08
7.65597e-06
-7.25526e-08
-4.7491e-08
7.78375e-06
-5.2508e-08
-7.52767e-08
7.91546e-06
-2.51566e-08
-1.06554e-07
8.05598e-06
-1.33721e-08
-1.27143e-07
8.20366e-06
-2.96702e-08
-1.18017e-07
8.33967e-06
-4.79391e-08
-8.80679e-08
8.46153e-06
-9.92707e-08
-2.25846e-08
8.55943e-06
-1.49303e-07
5.13971e-08
8.63732e-06
-1.8829e-07
1.10406e-07
8.71353e-06
-2.28801e-07
1.52591e-07
8.77784e-06
-2.30205e-07
1.65888e-07
8.84112e-06
-2.33678e-07
1.70398e-07
8.89451e-06
-2.20052e-07
1.66663e-07
8.93258e-06
-1.88967e-07
1.50896e-07
8.97669e-06
-1.64728e-07
1.20617e-07
9.01457e-06
-1.03667e-07
6.57882e-08
9.06896e-06
-3.86352e-08
-1.57539e-08
9.16213e-06
4.15586e-08
-1.34721e-07
9.28154e-06
1.3707e-07
-2.56487e-07
9.44526e-06
1.87452e-07
-3.51167e-07
9.62649e-06
2.34777e-07
-4.16014e-07
9.80208e-06
2.23369e-07
-3.98951e-07
9.96038e-06
1.67433e-07
-3.2574e-07
1.00882e-05
1.15296e-07
-2.43119e-07
1.01961e-05
3.90846e-08
-1.4695e-07
1.02523e-05
-2.16534e-08
-3.46176e-08
1.02927e-05
-8.73476e-08
4.70117e-08
1.03293e-05
-1.31362e-07
9.47839e-08
1.0355e-05
-1.28271e-07
1.02509e-07
1.03924e-05
-1.44274e-07
1.06877e-07
1.04226e-05
-1.35165e-07
1.05024e-07
1.04398e-05
-1.21362e-07
1.04107e-07
1.04864e-05
-1.17754e-07
7.11829e-08
1.05521e-05
-6.04924e-08
-5.18196e-09
1.06337e-05
-2.87728e-08
-5.28978e-08
1.07294e-05
-1.57534e-08
-7.98883e-08
1.08203e-05
-9.20661e-09
-8.17212e-08
1.09212e-05
-5.41295e-08
-4.68203e-08
1.10165e-05
-8.53502e-08
-9.90455e-09
1.10871e-05
-1.44483e-07
7.39225e-08
1.11522e-05
-2.4034e-07
1.75236e-07
1.11819e-05
-3.01588e-07
2.71888e-07
1.1182e-05
-4.07912e-07
4.07728e-07
1.11562e-05
-4.76268e-07
5.02093e-07
1.1096e-05
-5.30401e-07
5.90623e-07
1.10051e-05
-5.63439e-07
6.54309e-07
1.08957e-05
-5.56864e-07
6.66336e-07
1.0767e-05
-4.94816e-07
6.23519e-07
1.06498e-05
-4.03591e-07
5.20726e-07
1.05549e-05
-2.41695e-07
3.36629e-07
1.04982e-05
-3.89075e-08
9.56173e-08
1.04871e-05
1.76923e-07
-1.65888e-07
1.05513e-05
4.07512e-07
-4.71637e-07
1.06634e-05
5.99213e-07
-7.11303e-07
1.08561e-05
7.94222e-07
-9.86979e-07
1.1052e-05
8.99213e-07
-1.09513e-06
1.12951e-05
9.79484e-07
-1.22255e-06
1.15263e-05
1.01959e-06
-1.25084e-06
1.17714e-05
1.01087e-06
-1.2559e-06
1.1989e-05
9.79986e-07
-1.1976e-06
1.2199e-05
9.25263e-07
-1.13528e-06
1.23975e-05
8.06661e-07
-1.00513e-06
1.25155e-05
7.22689e-07
-8.40695e-07
1.26365e-05
5.22628e-07
-6.43695e-07
1.26726e-05
4.20771e-07
-4.5685e-07
1.27072e-05
2.14599e-07
-2.49184e-07
1.26815e-05
1.29076e-07
-1.03391e-07
1.26917e-05
-2.59259e-08
1.57953e-08
1.27045e-05
-6.86791e-08
5.58306e-08
1.27551e-05
-1.52636e-07
1.02074e-07
1.28651e-05
-1.85882e-07
7.58272e-08
1.30047e-05
-2.16585e-07
7.69946e-08
1.32101e-05
-2.90262e-07
8.49129e-08
1.3412e-05
-2.90611e-07
8.86501e-08
1.36971e-05
-4.12407e-07
1.27355e-07
1.39518e-05
-3.8805e-07
1.33363e-07
1.4296e-05
-5.23759e-07
1.79509e-07
1.46214e-05
-5.45349e-07
2.19945e-07
1.49398e-05
-6.3589e-07
3.17493e-07
1.53024e-05
-7.3795e-07
3.75358e-07
1.55925e-05
-8.32258e-07
5.42164e-07
1.59128e-05
-9.50177e-07
6.29892e-07
1.61962e-05
-1.06847e-06
7.85065e-07
1.63994e-05
-1.20706e-06
1.00388e-06
1.66811e-05
-1.31293e-06
1.03121e-06
1.68142e-05
-1.44372e-06
1.31059e-06
1.7015e-05
-1.53993e-06
1.33913e-06
1.71287e-05
-1.66527e-06
1.55158e-06
1.72503e-05
-1.70606e-06
1.58449e-06
1.73086e-05
-1.81651e-06
1.75818e-06
1.73617e-05
-1.82097e-06
1.76789e-06
1.73807e-05
-1.85787e-06
1.83881e-06
1.7387e-05
-1.83981e-06
1.83358e-06
1.73774e-05
-1.80296e-06
1.81252e-06
1.7395e-05
-1.72581e-06
1.70824e-06
1.73625e-05
-1.63929e-06
1.67178e-06
1.74243e-05
-1.47118e-06
1.40937e-06
1.7425e-05
-1.35507e-06
1.35439e-06
1.75622e-05
-1.10508e-06
9.67873e-07
1.77236e-05
-9.47937e-07
7.8655e-07
1.79996e-05
-7.3402e-07
4.57988e-07
1.83847e-05
-5.63906e-07
1.78818e-07
1.87675e-05
-3.91101e-07
8.27751e-09
1.9287e-05
-4.45013e-07
-7.44454e-08
1.98155e-05
-3.3922e-07
-1.89321e-07
2.03514e-05
-5.52763e-07
1.68947e-08
2.08187e-05
-6.48888e-07
1.81563e-07
2.13061e-05
-9.04893e-07
4.1756e-07
2.16953e-05
-1.27827e-06
8.89022e-07
2.2115e-05
-1.37804e-06
9.58377e-07
2.25475e-05
-1.80721e-06
1.37464e-06
2.30058e-05
-2.01658e-06
1.55836e-06
2.34511e-05
-2.18531e-06
1.73999e-06
2.39972e-05
-2.63713e-06
2.091e-06
2.44846e-05
-2.67384e-06
2.18646e-06
2.50282e-05
-2.93835e-06
2.39473e-06
2.5603e-05
-3.20373e-06
2.62892e-06
2.61405e-05
-3.21334e-06
2.6759e-06
2.67284e-05
-3.54091e-06
2.95296e-06
2.72438e-05
-3.62063e-06
3.10519e-06
2.77259e-05
-3.78162e-06
3.29957e-06
2.81586e-05
-3.93657e-06
3.50382e-06
2.85888e-05
-4.01479e-06
3.58465e-06
2.88546e-05
-4.01599e-06
3.75017e-06
2.91988e-05
-4.11803e-06
3.77381e-06
2.94144e-05
-4.03008e-06
3.81449e-06
2.96276e-05
-4.00525e-06
3.79209e-06
2.9866e-05
-4.09755e-06
3.85911e-06
3.00463e-05
-4.00901e-06
3.82874e-06
3.0302e-05
-4.19225e-06
3.93651e-06
3.05399e-05
-4.31831e-06
4.08043e-06
3.08131e-05
-4.43546e-06
4.16231e-06
3.11214e-05
-4.81112e-06
4.50278e-06
3.14381e-05
-5.00819e-06
4.6915e-06
3.1765e-05
-5.41061e-06
5.08373e-06
3.21158e-05
-5.75167e-06
5.40086e-06
3.24312e-05
-6.23584e-06
5.92046e-06
3.27159e-05
-6.58708e-06
6.30234e-06
3.30366e-05
-7.10497e-06
6.78425e-06
3.32039e-05
-7.48118e-06
7.31391e-06
3.34403e-05
-7.92617e-06
7.68981e-06
3.34736e-05
-8.27614e-06
8.24285e-06
3.35203e-05
-8.64969e-06
8.60298e-06
3.32905e-05
-8.79116e-06
9.02093e-06
3.30995e-05
-9.08327e-06
9.27428e-06
3.25613e-05
-9.14564e-06
9.68378e-06
3.19679e-05
-9.06458e-06
9.65804e-06
3.11219e-05
-8.99174e-06
9.83773e-06
3.01699e-05
-8.70484e-06
9.65689e-06
2.90056e-05
-8.30133e-06
9.46558e-06
2.78044e-05
-7.78334e-06
8.98455e-06
2.66542e-05
-7.45581e-06
8.60605e-06
2.53973e-05
-6.78917e-06
8.04605e-06
2.44364e-05
-6.51992e-06
7.48078e-06
2.35424e-05
-6.22195e-06
7.11598e-06
2.29917e-05
-6.46107e-06
7.0118e-06
2.21907e-05
-6.42536e-06
7.22635e-06
2.16328e-05
-6.65547e-06
7.21334e-06
2.08104e-05
-6.72161e-06
7.54405e-06
2.01412e-05
-6.70898e-06
7.37819e-06
1.93695e-05
-6.79071e-06
7.56234e-06
1.85392e-05
-6.15459e-06
6.98488e-06
1.78124e-05
-6.21752e-06
6.94435e-06
1.74402e-05
-6.02459e-06
6.39679e-06
1.71091e-05
-5.5293e-06
5.86037e-06
1.77122e-05
-5.83439e-06
5.23136e-06
1.81594e-05
-5.1222e-06
4.67494e-06
1.94597e-05
-4.73095e-06
3.43071e-06
2.07108e-05
-3.52677e-06
2.2756e-06
2.273e-05
-2.14898e-06
1.29836e-07
2.41774e-05
6.26203e-07
-2.07363e-06
2.61943e-05
2.91562e-06
-4.93252e-06
2.71921e-05
6.66044e-06
-7.65824e-06
2.82158e-05
9.32907e-06
-1.03528e-05
2.87416e-05
1.22867e-05
-1.28124e-05
2.84545e-05
1.48805e-05
-1.45935e-05
2.85578e-05
1.62499e-05
-1.63532e-05
2.76908e-05
1.81983e-05
-1.73313e-05
2.72587e-05
1.87028e-05
-1.82707e-05
2.65773e-05
1.95224e-05
-1.8841e-05
2.5805e-05
2.01391e-05
-1.93667e-05
2.58874e-05
2.03786e-05
-2.04611e-05
2.55313e-05
2.15964e-05
-2.12403e-05
2.51779e-05
2.22774e-05
-2.1924e-05
2.40432e-05
2.35737e-05
-2.24389e-05
2.17108e-05
2.40565e-05
-2.17241e-05
1.99839e-05
2.39889e-05
-2.22621e-05
1.72859e-05
2.54426e-05
-2.27447e-05
1.64208e-05
2.52631e-05
-2.43979e-05
3.30133e-05
-3.25005e-05
1.59079e-05
1.3367e-05
-2.91989e-07
1.33653e-05
-1.54541e-07
1.33679e-05
-5.9207e-08
1.33864e-05
-3.94381e-08
1.34449e-05
-1.05472e-07
1.35319e-05
-1.67355e-07
1.36405e-05
-2.30692e-07
1.37568e-05
-2.51834e-07
1.38481e-05
-2.16726e-07
1.39403e-05
-2.02051e-07
1.40029e-05
-1.35123e-07
1.4078e-05
-1.27589e-07
1.41529e-05
-1.00054e-07
1.42247e-05
-8.5197e-08
1.43162e-05
-1.21156e-07
1.43892e-05
-1.20928e-07
1.44685e-05
-1.78583e-07
1.45329e-05
-2.13672e-07
1.4581e-05
-2.36401e-07
1.46401e-05
-2.87935e-07
1.468e-05
-2.70119e-07
1.47206e-05
-2.74289e-07
1.47618e-05
-2.61248e-07
1.47798e-05
-2.06932e-07
1.48177e-05
-2.02632e-07
1.48357e-05
-1.21682e-07
1.48722e-05
-7.5141e-08
1.4932e-05
-1.82547e-08
1.49931e-05
7.59956e-08
1.50852e-05
9.541e-08
1.51716e-05
1.48325e-07
1.52581e-05
1.36865e-07
1.53317e-05
9.38491e-08
1.53755e-05
7.15182e-08
1.54252e-05
-1.06824e-08
1.54545e-05
-5.09134e-08
1.54571e-05
-8.99126e-08
1.54894e-05
-1.63732e-07
1.54888e-05
-1.27617e-07
1.5521e-05
-1.76475e-07
1.55426e-05
-1.56799e-07
1.55558e-05
-1.34529e-07
1.56058e-05
-1.67724e-07
1.56474e-05
-1.02187e-07
1.5723e-05
-1.0433e-07
1.58072e-05
-9.99383e-08
1.58791e-05
-8.10831e-08
1.59682e-05
-1.43293e-07
1.60544e-05
-1.71506e-07
1.61156e-05
-2.05671e-07
1.61898e-05
-3.14541e-07
1.62056e-05
-3.17398e-07
1.62297e-05
-4.32063e-07
1.62041e-05
-4.506e-07
1.61652e-05
-4.91519e-07
1.60942e-05
-4.92428e-07
1.60048e-05
-4.67523e-07
1.58887e-05
-3.78669e-07
1.57861e-05
-3.01038e-07
1.56643e-05
-1.19841e-07
1.55819e-05
4.35098e-08
1.55166e-05
2.42162e-07
1.54807e-05
4.43432e-07
1.54747e-05
6.05171e-07
1.55103e-05
7.58629e-07
1.5551e-05
8.58511e-07
1.56245e-05
9.05985e-07
1.57023e-05
9.41801e-07
1.57925e-05
9.20707e-07
1.59113e-05
8.61185e-07
1.6001e-05
8.35518e-07
1.61348e-05
6.72859e-07
1.62291e-05
6.28407e-07
1.63354e-05
4.16375e-07
1.64293e-05
3.26811e-07
1.65093e-05
1.34608e-07
1.66139e-05
2.45474e-08
1.67023e-05
-1.14319e-07
1.6852e-05
-2.18442e-07
1.69928e-05
-2.93426e-07
1.72129e-05
-4.06016e-07
1.74182e-05
-4.2188e-07
1.76992e-05
-5.71227e-07
1.79583e-05
-5.4969e-07
1.82547e-05
-7.08809e-07
1.85997e-05
-7.33029e-07
1.888e-05
-8.04113e-07
1.9253e-05
-9.18359e-07
1.95658e-05
-9.48646e-07
1.98788e-05
-1.05097e-06
2.02002e-05
-1.15366e-06
2.0467e-05
-1.21701e-06
2.07564e-05
-1.35784e-06
2.0952e-05
-1.40268e-06
2.12007e-05
-1.56159e-06
2.13405e-05
-1.58351e-06
2.15052e-05
-1.70468e-06
2.16279e-05
-1.7879e-06
2.17164e-05
-1.79464e-06
2.17822e-05
-1.88231e-06
2.18492e-05
-1.8879e-06
2.18597e-05
-1.86845e-06
2.1928e-05
-1.90802e-06
2.19026e-05
-1.77762e-06
2.19733e-05
-1.79653e-06
2.19581e-05
-1.62405e-06
2.20296e-05
-1.54269e-06
2.20771e-05
-1.40257e-06
2.21757e-05
-1.20364e-06
2.23206e-05
-1.09286e-06
2.24928e-05
-9.06256e-07
2.27181e-05
-7.89197e-07
2.30754e-05
-7.48442e-07
2.33705e-05
-7.40025e-07
2.37692e-05
-7.37945e-07
2.422e-05
-1.00361e-06
2.45857e-05
-1.0146e-06
2.50654e-05
-1.38451e-06
2.54564e-05
-1.66927e-06
2.58883e-05
-1.80998e-06
2.63597e-05
-2.2786e-06
2.68218e-05
-2.47874e-06
2.72944e-05
-2.65787e-06
2.77996e-05
-3.14229e-06
2.82373e-05
-3.11155e-06
2.87816e-05
-3.48272e-06
2.91897e-05
-3.61174e-06
2.96798e-05
-3.70346e-06
3.00306e-05
-3.89171e-06
3.04083e-05
-3.99838e-06
3.06765e-05
-4.04976e-06
3.09456e-05
-4.20574e-06
3.10902e-05
-4.15932e-06
3.12084e-05
-4.13426e-06
3.12782e-05
-4.18779e-06
3.13128e-05
-4.0647e-06
3.14253e-05
-4.11771e-06
3.14644e-05
-4.13668e-06
3.16025e-05
-4.14708e-06
3.17293e-05
-4.31906e-06
3.18068e-05
-4.39589e-06
3.20025e-05
-4.63112e-06
3.20861e-05
-4.89469e-06
3.22843e-05
-5.20641e-06
3.23903e-05
-5.51665e-06
3.26134e-05
-5.97473e-06
3.26713e-05
-6.29373e-06
3.28972e-05
-6.813e-06
3.29294e-05
-7.13717e-06
3.30529e-05
-7.60469e-06
3.30416e-05
-7.91491e-06
3.3032e-05
-8.26652e-06
3.28691e-05
-8.48679e-06
3.26693e-05
-8.59135e-06
3.24003e-05
-8.81425e-06
3.1887e-05
-8.63233e-06
3.13578e-05
-8.53545e-06
3.06385e-05
-8.27243e-06
2.984e-05
-7.90626e-06
2.88478e-05
-7.30921e-06
2.79116e-05
-6.84711e-06
2.68299e-05
-6.37408e-06
2.57401e-05
-5.6994e-06
2.47638e-05
-5.5436e-06
2.3879e-05
-5.33719e-06
2.29811e-05
-5.56312e-06
2.18822e-05
-5.32654e-06
2.08517e-05
-5.6249e-06
1.96919e-05
-5.56187e-06
1.85894e-05
-5.60648e-06
1.71624e-05
-5.36364e-06
1.56959e-05
-4.68816e-06
1.48061e-05
-5.32766e-06
1.41973e-05
-5.41583e-06
1.41146e-05
-5.44663e-06
1.44708e-05
-6.19053e-06
1.50464e-05
-5.69785e-06
1.6286e-05
-5.97052e-06
1.78171e-05
-5.05792e-06
1.94565e-05
-3.78836e-06
2.1491e-05
-1.40829e-06
2.32226e-05
1.18401e-06
2.54304e-05
4.45272e-06
2.65002e-05
8.25923e-06
2.77548e-05
1.10321e-05
2.80598e-05
1.45756e-05
2.81332e-05
1.61764e-05
2.81655e-05
1.81659e-05
2.74162e-05
1.94521e-05
2.71069e-05
1.98318e-05
2.64565e-05
2.07894e-05
2.58118e-05
2.10233e-05
2.58582e-05
2.15501e-05
2.57086e-05
2.2427e-05
2.56807e-05
2.36015e-05
2.47052e-05
2.5032e-05
2.40002e-05
2.46939e-05
2.16183e-05
2.78246e-05
2.44943e-05
2.2387e-05
3.46574e-05
2.28503e-05
2.02975e-05
-7.3858e-08
2.00382e-05
1.04706e-07
1.9875e-05
1.03996e-07
1.98379e-05
-2.34389e-09
1.9909e-05
-1.76486e-07
1.9994e-05
-2.52395e-07
2.00784e-05
-3.1513e-07
2.01397e-05
-3.13111e-07
2.01733e-05
-2.50308e-07
2.02327e-05
-2.61452e-07
2.02586e-05
-1.61049e-07
2.03043e-05
-1.73295e-07
2.03511e-05
-1.46825e-07
2.03808e-05
-1.14943e-07
2.04475e-05
-1.87778e-07
2.04779e-05
-1.51323e-07
2.0529e-05
-2.29677e-07
2.0568e-05
-2.52751e-07
2.05835e-05
-2.51852e-07
2.06268e-05
-3.31223e-07
2.0632e-05
-2.75341e-07
2.0654e-05
-2.9624e-07
2.06748e-05
-2.82097e-07
2.06694e-05
-2.01571e-07
2.0699e-05
-2.3219e-07
2.0703e-05
-1.25716e-07
2.07187e-05
-9.0774e-08
2.07713e-05
-7.09214e-08
2.07867e-05
6.05925e-08
2.0868e-05
1.41756e-08
2.09046e-05
1.11743e-07
2.09534e-05
8.80573e-08
2.10042e-05
4.30288e-08
2.10051e-05
7.055e-08
2.10318e-05
-3.73308e-08
2.1037e-05
-5.61547e-08
2.10165e-05
-6.93703e-08
2.10379e-05
-1.85169e-07
2.10136e-05
-1.0329e-07
2.10288e-05
-1.91653e-07
2.1043e-05
-1.71015e-07
2.10327e-05
-1.24224e-07
2.10767e-05
-2.11696e-07
2.10838e-05
-1.09304e-07
2.11337e-05
-1.54287e-07
2.11969e-05
-1.63126e-07
2.12319e-05
-1.16095e-07
2.13009e-05
-2.12236e-07
2.13465e-05
-2.17168e-07
2.13869e-05
-2.46017e-07
2.14344e-05
-3.61999e-07
2.14358e-05
-3.18878e-07
2.14363e-05
-4.3257e-07
2.14143e-05
-4.28556e-07
2.13553e-05
-4.32522e-07
2.12951e-05
-4.32209e-07
2.1212e-05
-3.84451e-07
2.11039e-05
-2.70579e-07
2.10338e-05
-2.30965e-07
2.09124e-05
1.55606e-09
2.08469e-05
1.09042e-07
2.07725e-05
3.16595e-07
2.07184e-05
4.97526e-07
2.06885e-05
6.35082e-07
2.0666e-05
7.811e-07
2.06645e-05
8.59967e-07
2.06592e-05
9.11361e-07
2.06834e-05
9.17549e-07
2.07059e-05
8.98197e-07
2.07418e-05
8.25297e-07
2.07997e-05
7.77599e-07
2.0847e-05
6.25641e-07
2.09316e-05
5.43723e-07
2.09921e-05
3.5589e-07
2.1088e-05
2.30889e-07
2.11652e-05
5.74177e-08
2.12877e-05
-9.79597e-08
2.14063e-05
-2.32832e-07
2.15538e-05
-3.65971e-07
2.17499e-05
-4.89554e-07
2.19465e-05
-6.02628e-07
2.2185e-05
-6.60385e-07
2.2428e-05
-8.14214e-07
2.27149e-05
-8.36524e-07
2.29607e-05
-9.54622e-07
2.32781e-05
-1.05046e-06
2.35456e-05
-1.07159e-06
2.38418e-05
-1.21461e-06
2.41337e-05
-1.24056e-06
2.43886e-05
-1.30586e-06
2.46721e-05
-1.43714e-06
2.4884e-05
-1.42886e-06
2.51144e-05
-1.58826e-06
2.53054e-05
-1.59365e-06
2.54595e-05
-1.71573e-06
2.56119e-05
-1.7359e-06
2.57186e-05
-1.81144e-06
2.58109e-05
-1.88012e-06
2.58848e-05
-1.86854e-06
2.59516e-05
-1.94911e-06
2.5977e-05
-1.91334e-06
2.60205e-05
-1.91198e-06
2.60414e-05
-1.92887e-06
2.60417e-05
-1.77797e-06
2.61031e-05
-1.85788e-06
2.60965e-05
-1.61744e-06
2.61756e-05
-1.62183e-06
2.62467e-05
-1.47361e-06
2.63433e-05
-1.30024e-06
2.64907e-05
-1.24034e-06
2.67123e-05
-1.12784e-06
2.68723e-05
-9.49166e-07
2.72399e-05
-1.11601e-06
2.74731e-05
-9.73261e-07
2.78501e-05
-1.11496e-06
2.82023e-05
-1.35578e-06
2.85698e-05
-1.38218e-06
2.89373e-05
-1.752e-06
2.932e-05
-2.05196e-06
2.96739e-05
-2.16381e-06
3.01053e-05
-2.71003e-06
3.0415e-05
-2.78847e-06
3.08522e-05
-3.09504e-06
3.115e-05
-3.44006e-06
3.14851e-05
-3.44665e-06
3.18399e-05
-3.83752e-06
3.20281e-05
-3.79998e-06
3.23141e-05
-3.98943e-06
3.24704e-05
-4.04803e-06
3.25973e-05
-4.12531e-06
3.26757e-05
-4.1281e-06
3.26796e-05
-4.20968e-06
3.26112e-05
-4.09091e-06
3.25701e-05
-4.09317e-06
3.24498e-05
-4.06745e-06
3.23426e-05
-3.95752e-06
3.23005e-05
-4.07557e-06
3.21401e-05
-3.97633e-06
3.21147e-05
-4.12167e-06
3.20336e-05
-4.23799e-06
3.1928e-05
-4.29026e-06
3.19639e-05
-4.66699e-06
3.1875e-05
-4.80582e-06
3.1901e-05
-5.23246e-06
3.19782e-05
-5.59376e-06
3.19648e-05
-5.96141e-06
3.20873e-05
-6.41624e-06
3.21422e-05
-6.86781e-06
3.2185e-05
-7.18001e-06
3.22503e-05
-7.67e-06
3.22607e-05
-7.92533e-06
3.22564e-05
-8.26221e-06
3.21652e-05
-8.39562e-06
3.21429e-05
-8.56903e-06
3.19175e-05
-8.58884e-06
3.1669e-05
-8.38378e-06
3.13189e-05
-8.18542e-06
3.08351e-05
-7.78861e-06
3.01424e-05
-7.21357e-06
2.93412e-05
-6.50797e-06
2.84442e-05
-5.9501e-06
2.72495e-05
-5.17941e-06
2.61633e-05
-4.6132e-06
2.49762e-05
-4.35651e-06
2.38682e-05
-4.22917e-06
2.24046e-05
-4.09953e-06
2.10006e-05
-3.92255e-06
1.95328e-05
-4.15709e-06
1.81679e-05
-4.19691e-06
1.63493e-05
-3.78792e-06
1.43539e-05
-3.3682e-06
1.27781e-05
-3.11238e-06
1.24408e-05
-4.9904e-06
1.19378e-05
-4.91277e-06
1.24609e-05
-5.96973e-06
1.25755e-05
-6.30514e-06
1.33857e-05
-6.5081e-06
1.43598e-05
-6.94455e-06
1.59264e-05
-6.62456e-06
1.69801e-05
-4.84209e-06
1.8937e-05
-3.3652e-06
2.04423e-05
-3.21235e-07
2.26338e-05
2.26123e-06
2.45797e-05
6.31332e-06
2.57232e-05
9.88853e-06
2.70643e-05
1.32345e-05
2.71562e-05
1.60845e-05
2.76271e-05
1.7695e-05
2.77016e-05
1.93776e-05
2.72281e-05
2.03053e-05
2.71684e-05
2.08491e-05
2.66251e-05
2.15667e-05
2.61377e-05
2.20375e-05
2.59692e-05
2.25955e-05
2.69334e-05
2.26372e-05
2.64076e-05
2.55579e-05
2.77049e-05
2.33966e-05
2.5371e-05
3.01585e-05
2.82455e-05
1.95125e-05
3.38295e-05
2.90734e-05
2.51681e-05
-5.56392e-08
2.52258e-05
4.7045e-08
2.53167e-05
1.31473e-08
2.54009e-05
-8.65648e-08
2.54935e-05
-2.69133e-07
2.55359e-05
-2.94792e-07
2.5573e-05
-3.52264e-07
2.55775e-05
-3.17569e-07
2.55725e-05
-2.45302e-07
2.56004e-05
-2.89373e-07
2.56007e-05
-1.61313e-07
2.56352e-05
-2.07797e-07
2.56636e-05
-1.75262e-07
2.56773e-05
-1.28633e-07
2.57213e-05
-2.3178e-07
2.57315e-05
-1.61502e-07
2.57536e-05
-2.5179e-07
2.57814e-05
-2.80573e-07
2.57651e-05
-2.35534e-07
2.5806e-05
-3.72143e-07
2.57886e-05
-2.57871e-07
2.57989e-05
-3.06539e-07
2.5814e-05
-2.97238e-07
2.57845e-05
-1.72079e-07
2.58131e-05
-2.60803e-07
2.57916e-05
-1.04203e-07
2.58005e-05
-9.96399e-08
2.58325e-05
-1.02902e-07
2.58387e-05
5.4352e-08
2.58925e-05
-3.96316e-08
2.5928e-05
7.62305e-08
2.59443e-05
7.17241e-08
2.60077e-05
-2.03236e-08
2.59859e-05
9.23937e-08
2.60182e-05
-6.96852e-08
2.60099e-05
-4.78149e-08
2.59871e-05
-4.65829e-08
2.6004e-05
-2.0204e-07
2.59601e-05
-5.94579e-08
2.59721e-05
-2.03654e-07
2.59635e-05
-1.62391e-07
2.59544e-05
-1.15126e-07
2.5973e-05
-2.30318e-07
2.59782e-05
-1.1446e-07
2.5993e-05
-1.69101e-07
2.60537e-05
-2.23837e-07
2.60471e-05
-1.09495e-07
2.61137e-05
-2.78866e-07
2.6113e-05
-2.16421e-07
2.61341e-05
-2.67131e-07
2.6153e-05
-3.80942e-07
2.61269e-05
-2.927e-07
2.61168e-05
-4.22479e-07
2.60791e-05
-3.90928e-07
2.60077e-05
-3.61108e-07
2.59603e-05
-3.84793e-07
2.58631e-05
-2.87253e-07
2.57817e-05
-1.89135e-07
2.57026e-05
-1.51912e-07
2.56105e-05
9.36566e-08
2.55543e-05
1.65238e-07
2.5511e-05
3.59923e-07
2.54572e-05
5.51321e-07
2.54721e-05
6.20222e-07
2.54389e-05
8.14228e-07
2.54551e-05
8.43808e-07
2.54719e-05
8.94548e-07
2.54654e-05
9.24025e-07
2.55168e-05
8.46868e-07
2.5522e-05
8.20064e-07
2.55768e-05
7.22772e-07
2.56162e-05
5.86279e-07
2.56753e-05
4.84573e-07
2.57303e-05
3.00873e-07
2.58036e-05
1.57675e-07
2.58696e-05
-8.671e-09
2.59719e-05
-2.00238e-07
2.60799e-05
-3.40825e-07
2.61946e-05
-4.80643e-07
2.63659e-05
-6.60858e-07
2.65033e-05
-7.40008e-07
2.67145e-05
-8.71595e-07
2.68899e-05
-9.89594e-07
2.7111e-05
-1.05762e-06
2.73127e-05
-1.15635e-06
2.75341e-05
-1.27187e-06
2.77355e-05
-1.27299e-06
2.79558e-05
-1.43487e-06
2.81361e-05
-1.42091e-06
2.8353e-05
-1.52273e-06
2.85062e-05
-1.5904e-06
2.86804e-05
-1.60299e-06
2.88166e-05
-1.72446e-06
2.89392e-05
-1.71629e-06
2.90397e-05
-1.81628e-06
2.91216e-05
-1.81778e-06
2.91763e-05
-1.86611e-06
2.92312e-05
-1.93499e-06
2.92231e-05
-1.86049e-06
2.92863e-05
-2.0123e-06
2.92296e-05