/*--------------------------------*- C++ -*----------------------------------*\
| =========                 |                                                 |
| \\      /  F ield         | OpenFOAM: The Open Source CFD Toolbox           |
|  \\    /   O peration     | Version:  2.4.0                                 |
|   \\  /    A nd           | Web:      www.OpenFOAM.org                      |
|    \\/     M anipulation  |                                                 |
\*---------------------------------------------------------------------------*/
FoamFile
{
    version     2.0;
    format      ascii;
    class       volVectorField;
    location    "1.35";
    object      UMean;
}
// * * * * * * * * * * * * * * * * * * * * * * * * * * * * * * * * * * * * * //

dimensions      [0 1 -1 0 0 0 0];

internalField   nonuniform List<vector> 
8800
(
(8.0933 0.387217 0)
(5.45739 0.242574 0)
(3.92614 0.0429935 0)
(3.1632 -0.0152148 0)
(2.82034 -0.0184202 0)
(2.60336 -0.0108443 0)
(2.50995 -0.00588453 0)
(2.38568 -0.00196139 0)
(2.35087 -0.00180965 0)
(2.25625 -0.000149225 0)
(2.25375 -0.0010773 0)
(2.17293 0.000490149 0)
(2.18542 -0.000597939 0)
(2.10643 0.00103989 0)
(2.12301 -0.000244324 0)
(2.04244 0.00152061 0)
(2.05823 -0.00027993 0)
(1.97212 0.000982656 0)
(2.0168 0.00738741 0)
(1.74033 -0.0606032 0)
(10.0877 0.836344 0)
(9.65144 0.866445 0)
(8.89418 0.505603 0)
(8.06985 0.261577 0)
(7.52731 0.136981 0)
(6.98852 0.0821152 0)
(6.7453 0.0526453 0)
(6.37803 0.0407882 0)
(6.2894 0.0281146 0)
(6.00207 0.0248744 0)
(6.0052 0.016739 0)
(5.75711 0.0186 0)
(5.811 0.0129049 0)
(5.57557 0.0175898 0)
(5.65326 0.0126899 0)
(5.41731 0.0177832 0)
(5.50726 0.0163154 0)
(5.25318 0.010879 0)
(5.3916 0.0307884 0)
(5.03152 -0.0423053 0)
(10.0817 0.629966 0)
(10.6309 0.861758 0)
(10.9083 0.599296 0)
(10.6484 0.373031 0)
(10.5099 0.253861 0)
(10.033 0.196307 0)
(9.90578 0.15055 0)
(9.43564 0.122773 0)
(9.40176 0.0907707 0)
(8.97164 0.0768069 0)
(9.03275 0.0550412 0)
(8.63527 0.0534102 0)
(8.76587 0.0388433 0)
(8.37978 0.0443525 0)
(8.55441 0.0338812 0)
(8.16238 0.0410682 0)
(8.36683 0.0377963 0)
(7.94949 0.0349363 0)
(8.1941 0.0449949 0)
(7.7383 -0.0413975 0)
(10.0574 0.456557 0)
(10.5029 0.703722 0)
(11.2433 0.543568 0)
(11.2928 0.352199 0)
(11.642 0.25938 0)
(11.3671 0.227754 0)
(11.5883 0.19661 0)
(11.1987 0.176373 0)
(11.4083 0.142769 0)
(10.9709 0.126855 0)
(11.2086 0.0989218 0)
(10.7486 0.0946175 0)
(11.0229 0.0740626 0)
(10.543 0.0787399 0)
(10.8506 0.0624737 0)
(10.3468 0.0729055 0)
(10.6824 0.0596986 0)
(10.1472 0.0739745 0)
(10.4991 0.0513877 0)
(9.9384 0.0515039 0)
(10.1634 0.346206 0)
(10.286 0.566274 0)
(11.1691 0.457989 0)
(11.1843 0.295352 0)
(11.7812 0.205474 0)
(11.5503 0.194526 0)
(12.0107 0.173604 0)
(11.6945 0.172001 0)
(12.1197 0.138984 0)
(11.7614 0.13623 0)
(12.1755 0.102276 0)
(11.7864 0.111133 0)
(12.1954 0.0800119 0)
(11.7781 0.101309 0)
(12.182 0.0684754 0)
(11.7382 0.102097 0)
(12.1344 0.0627174 0)
(11.6647 0.112401 0)
(12.039 0.0492481 0)
(11.5345 0.108929 0)
(10.1836 0.249772 0)
(10.2081 0.455916 0)
(11.0087 0.371875 0)
(11.0841 0.249884 0)
(11.6309 0.15587 0)
(11.5148 0.154386 0)
(11.9015 0.136063 0)
(11.7346 0.145643 0)
(12.0773 0.112343 0)
(11.908 0.117704 0)
(12.229 0.0827421 0)
(12.0595 0.0970925 0)
(12.36 0.0661327 0)
(12.1874 0.0906969 0)
(12.465 0.0606268 0)
(12.2878 0.0937466 0)
(12.5388 0.0615927 0)
(12.3536 0.103236 0)
(12.5623 0.0561105 0)
(12.3268 0.0610847 0)
(10.0696 0.169131 0)
(10.2594 0.358491 0)
(10.7897 0.28095 0)
(11.0841 0.210899 0)
(11.4178 0.109583 0)
(11.5302 0.122532 0)
(11.698 0.0955232 0)
(11.7475 0.123567 0)
(11.8747 0.0777791 0)
(11.9256 0.102013 0)
(12.0386 0.0527466 0)
(12.0925 0.0859643 0)
(12.1915 0.0380407 0)
(12.2445 0.08275 0)
(12.328 0.0330721 0)
(12.3781 0.0884418 0)
(12.4448 0.0327543 0)
(12.4858 0.0990711 0)
(12.5163 0.0255813 0)
(12.483 0.0719054 0)
(9.97453 0.105713 0)
(10.2986 0.261303 0)
(10.6366 0.193396 0)
(11.0728 0.16257 0)
(11.2723 0.0704079 0)
(11.5272 0.0906867 0)
(11.5644 0.0606271 0)
(11.7368 0.0965564 0)
(11.7383 0.0488263 0)
(11.9078 0.0806908 0)
(11.9032 0.0299466 0)
(12.0716 0.0688918 0)
(12.0588 0.0187323 0)
(12.2221 0.0668149 0)
(12.1995 0.0148323 0)
(12.3555 0.0711999 0)
(12.3221 0.0136179 0)
(12.4648 0.0779136 0)
(12.4006 0.00459124 0)
(12.4455 0.054237 0)
(9.91377 0.0565594 0)
(10.3239 0.160539 0)
(10.5363 0.112279 0)
(11.0656 0.102955 0)
(11.1756 0.0376075 0)
(11.527 0.0577012 0)
(11.4758 0.0319191 0)
(11.7325 0.063208 0)
(11.6466 0.0255023 0)
(11.8999 0.053037 0)
(11.8114 0.013443 0)
(12.0633 0.0453782 0)
(11.9682 0.00656274 0)
(12.2144 0.0433967 0)
(12.1101 0.00374178 0)
(12.3489 0.0444446 0)
(12.234 0.00163332 0)
(12.4591 0.0438821 0)
(12.3086 -0.0106799 0)
(12.4251 0.00392052 0)
(9.89859 0.0111016 0)
(10.3234 0.0639238 0)
(10.5023 0.0287456 0)
(11.0506 0.0443464 0)
(11.1453 0.00321899 0)
(11.517 0.0293407 0)
(11.4524 0.00088839 0)
(11.7219 0.0323428 0)
(11.624 -0.00156971 0)
(11.8891 0.0288949 0)
(11.7909 -0.00649459 0)
(12.0542 0.0261793 0)
(11.9501 -0.00989679 0)
(12.2079 0.024872 0)
(12.0943 -0.0129098 0)
(12.3457 0.0231584 0)
(12.2205 -0.01767 0)
(12.459 0.0173274 0)
(12.2946 -0.0315496 0)
(12.4247 -0.0124463 0)
(9.92046 -0.0292483 0)
(10.3031 -0.0362659 0)
(10.5255 -0.0524264 0)
(11.0339 -0.0190499 0)
(11.1705 -0.0280217 0)
(11.503 -0.0034276 0)
(11.4798 -0.0267627 0)
(11.7106 -0.00400954 0)
(11.6534 -0.0255485 0)
(11.8809 -0.000372466 0)
(11.8225 -0.0228992 0)
(12.0491 0.00188959 0)
(11.9841 -0.0231692 0)
(12.2061 0.000890936 0)
(12.1306 -0.0267316 0)
(12.3476 -0.00377001 0)
(12.2593 -0.0341762 0)
(12.4645 -0.013342 0)
(12.3351 -0.0474957 0)
(12.4311 -0.0324746 0)
(9.95656 -0.0733166 0)
(10.2823 -0.136396 0)
(10.5829 -0.134335 0)
(11.0302 -0.0811775 0)
(11.228 -0.0600033 0)
(11.4963 -0.0355086 0)
(11.5346 -0.0552157 0)
(11.7067 -0.0390909 0)
(11.7112 -0.0500045 0)
(11.8799 -0.0287446 0)
(11.8821 -0.0401222 0)
(12.0494 -0.0216042 0)
(12.0452 -0.0371403 0)
(12.2073 -0.0220966 0)
(12.1937 -0.0411898 0)
(12.3493 -0.0295634 0)
(12.3243 -0.0515055 0)
(12.4661 -0.0433436 0)
(12.4025 -0.0648124 0)
(12.4319 -0.0518495 0)
(9.98432 -0.121929 0)
(10.2829 -0.240004 0)
(10.6539 -0.214755 0)
(11.0579 -0.142967 0)
(11.2972 -0.0916146 0)
(11.5138 -0.0698973 0)
(11.5963 -0.0831414 0)
(11.7257 -0.0741256 0)
(11.7762 -0.0731639 0)
(11.9003 -0.0575287 0)
(11.9476 -0.0570068 0)
(12.0688 -0.0456292 0)
(12.1103 -0.0506499 0)
(12.2248 -0.044964 0)
(12.2583 -0.0552072 0)
(12.3645 -0.0544935 0)
(12.3885 -0.0692621 0)
(12.4791 -0.0728007 0)
(12.4684 -0.0865224 0)
(12.4469 -0.0704578 0)
(10.0174 -0.181384 0)
(10.2948 -0.344228 0)
(10.7525 -0.29696 0)
(11.1094 -0.198024 0)
(11.3906 -0.125516 0)
(11.5519 -0.108133 0)
(11.6775 -0.112102 0)
(11.7671 -0.109195 0)
(11.8597 -0.0960133 0)
(11.9447 -0.0871457 0)
(12.0294 -0.0738249 0)
(12.1124 -0.0712676 0)
(12.1883 -0.0638865 0)
(12.2661 -0.0694801 0)
(12.3311 -0.0677301 0)
(12.4019 -0.0803218 0)
(12.4539 -0.0846378 0)
(12.5106 -0.103991 0)
(12.5271 -0.108561 0)
(12.4796 -0.100469 0)
(10.057 -0.256876 0)
(10.3145 -0.448467 0)
(10.8935 -0.380908 0)
(11.1771 -0.243669 0)
(11.5237 -0.164677 0)
(11.6017 -0.14738 0)
(11.7983 -0.144376 0)
(11.8172 -0.140425 0)
(11.9764 -0.121186 0)
(11.9883 -0.113413 0)
(12.1302 -0.0930862 0)
(12.1389 -0.0947176 0)
(12.2627 -0.0791204 0)
(12.2658 -0.0919599 0)
(12.3678 -0.0798356 0)
(12.3636 -0.103097 0)
(12.4381 -0.0955763 0)
(12.4204 -0.131521 0)
(12.4433 -0.124913 0)
(12.336 -0.139568 0)
(10.0521 -0.350898 0)
(10.391 -0.560611 0)
(11.0477 -0.463649 0)
(11.2943 -0.290255 0)
(11.6562 -0.212031 0)
(11.6612 -0.188481 0)
(11.8797 -0.18027 0)
(11.8073 -0.166961 0)
(11.9811 -0.146832 0)
(11.8766 -0.131631 0)
(12.0278 -0.111883 0)
(11.904 -0.107804 0)
(12.0356 -0.0925373 0)
(11.8964 -0.100951 0)
(12.0042 -0.0872804 0)
(11.8521 -0.108682 0)
(11.9257 -0.0968973 0)
(11.7593 -0.137636 0)
(11.7659 -0.125485 0)
(11.536 -0.162247 0)
(10.0048 -0.459278 0)
(10.5583 -0.700724 0)
(11.1692 -0.545851 0)
(11.3648 -0.350231 0)
(11.5588 -0.263 0)
(11.4459 -0.225183 0)
(11.4952 -0.200348 0)
(11.2828 -0.174267 0)
(11.3045 -0.147247 0)
(11.0583 -0.125285 0)
(11.0927 -0.1041 0)
(10.8368 -0.0949285 0)
(10.8911 -0.0802065 0)
(10.6281 -0.0836645 0)
(10.6939 -0.0707519 0)
(10.4206 -0.0882554 0)
(10.48 -0.0746688 0)
(10.1887 -0.116355 0)
(10.1959 -0.0960057 0)
(9.85799 -0.160165 0)
(10.0599 -0.632604 0)
(10.6541 -0.859177 0)
(10.8671 -0.600413 0)
(10.6888 -0.371805 0)
(10.4596 -0.256294 0)
(10.0813 -0.19473 0)
(9.84567 -0.153174 0)
(9.48824 -0.120978 0)
(9.33326 -0.0940777 0)
(9.02481 -0.0751194 0)
(8.95633 -0.0591163 0)
(8.68449 -0.0526289 0)
(8.67915 -0.0440905 0)
(8.41867 -0.0462884 0)
(8.44924 -0.0410642 0)
(8.17976 -0.0507466 0)
(8.21965 -0.0485252 0)
(7.92117 -0.0701746 0)
(7.92394 -0.0711742 0)
(7.57572 -0.0894356 0)
(10.0808 -0.837685 0)
(9.65639 -0.864906 0)
(8.87562 -0.505902 0)
(8.08957 -0.260972 0)
(7.5017 -0.138356 0)
(7.01364 -0.0814631 0)
(6.71121 -0.0538516 0)
(6.4061 -0.0399371 0)
(6.24974 -0.0296598 0)
(6.02929 -0.0241066 0)
(5.96108 -0.0186425 0)
(5.77867 -0.0183239 0)
(5.76107 -0.0153738 0)
(5.58474 -0.018669 0)
(5.59106 -0.016391 0)
(5.40151 -0.0231073 0)
(5.41117 -0.0221479 0)
(5.18761 -0.0329433 0)
(5.17641 -0.0384687 0)
(4.88031 -0.0198707 0)
(8.09166 -0.38757 0)
(5.4558 -0.242092 0)
(3.92239 -0.0432097 0)
(3.1697 0.0152748 0)
(2.81328 0.018046 0)
(2.61031 0.0111144 0)
(2.49889 0.00561442 0)
(2.3935 0.0022674 0)
(2.33781 0.00147992 0)
(2.26341 0.000418294 0)
(2.23842 0.000710823 0)
(2.17713 -0.000261425 0)
(2.16686 0.000193672 0)
(2.1036 -0.00111031 0)
(2.09707 -0.0003295 0)
(2.02381 -0.00229657 0)
(2.01159 -0.00113617 0)
(1.91966 -0.00385396 0)
(1.88171 -0.00428608 0)
(1.72947 0.0114011 0)
(2.25813 -0.107015 0)
(2.32105 -0.0193463 0)
(2.55849 -0.00680874 0)
(2.64641 -0.0176003 0)
(2.87412 -0.0384418 0)
(2.92439 -0.0447774 0)
(3.11899 -0.0519654 0)
(3.12844 -0.0460153 0)
(3.29266 -0.0500667 0)
(3.27733 -0.0479646 0)
(3.43318 -0.0546702 0)
(3.40567 -0.0540134 0)
(3.56418 -0.0631203 0)
(3.53232 -0.0631861 0)
(3.6942 -0.0720744 0)
(3.65949 -0.0716827 0)
(3.82785 -0.0805856 0)
(3.79241 -0.0806207 0)
(3.97334 -0.0897456 0)
(3.9383 -0.0880353 0)
(4.12629 -0.0994241 0)
(4.08573 -0.101439 0)
(4.2762 -0.116127 0)
(4.22701 -0.120381 0)
(4.41801 -0.137828 0)
(4.3584 -0.143881 0)
(4.54894 -0.161693 0)
(4.47859 -0.16495 0)
(4.67056 -0.179352 0)
(4.59571 -0.179199 0)
(4.79403 -0.193636 0)
(4.72175 -0.194795 0)
(4.92911 -0.212298 0)
(4.85753 -0.215257 0)
(5.06886 -0.233657 0)
(4.99215 -0.235823 0)
(5.20637 -0.253267 0)
(5.12347 -0.253653 0)
(5.34339 -0.270973 0)
(5.25482 -0.272022 0)
(5.48064 -0.291511 0)
(5.38621 -0.295529 0)
(5.61556 -0.319807 0)
(5.51271 -0.326922 0)
(5.74117 -0.353762 0)
(5.62697 -0.360203 0)
(5.8544 -0.386405 0)
(5.73117 -0.388273 0)
(5.96027 -0.412491 0)
(5.83304 -0.408779 0)
(6.0665 -0.430168 0)
(5.9375 -0.420632 0)
(6.18112 -0.438556 0)
(6.04829 -0.424937 0)
(6.30909 -0.441919 0)
(6.16847 -0.426886 0)
(6.45086 -0.444901 0)
(6.29822 -0.430063 0)
(6.60075 -0.449534 0)
(6.43232 -0.436051 0)
(6.7525 -0.460123 0)
(6.57488 -0.450665 0)
(6.9085 -0.483034 0)
(6.73261 -0.479766 0)
(7.06697 -0.522289 0)
(6.89682 -0.524438 0)
(7.21751 -0.572197 0)
(7.04436 -0.57658 0)
(7.34917 -0.62267 0)
(7.16602 -0.624106 0)
(7.46489 -0.669182 0)
(7.27092 -0.6631 0)
(7.57032 -0.703503 0)
(7.366 -0.689797 0)
(7.68026 -0.727498 0)
(7.4691 -0.708338 0)
(7.80476 -0.744741 0)
(7.59414 -0.722607 0)
(7.95048 -0.763399 0)
(7.74122 -0.738753 0)
(8.1169 -0.783244 0)
(7.90248 -0.755994 0)
(8.29492 -0.799341 0)
(8.06921 -0.772827 0)
(8.47404 -0.818561 0)
(8.2433 -0.793807 0)
(8.64123 -0.848598 0)
(8.42148 -0.82653 0)
(8.79402 -0.887877 0)
(8.58853 -0.867676 0)
(8.93207 -0.929912 0)
(8.73595 -0.907948 0)
(9.05019 -0.968127 0)
(8.85649 -0.944967 0)
(9.14921 -1.00446 0)
(8.95879 -0.977224 0)
(9.23412 -1.0342 0)
(9.04949 -1.0038 0)
(9.31501 -1.05887 0)
(9.14712 -1.02817 0)
(9.40543 -1.08499 0)
(9.25254 -1.05287 0)
(9.50731 -1.11459 0)
(9.36129 -1.07735 0)
(9.60748 -1.13655 0)
(9.45835 -1.08761 0)
(9.69021 -1.14883 0)
(9.52725 -1.09392 0)
(9.74639 -1.15634 0)
(9.56842 -1.09275 0)
(9.77511 -1.15422 0)
(9.58276 -1.08434 0)
(9.76896 -1.1417 0)
(9.57065 -1.06536 0)
(9.74007 -1.12189 0)
(9.55683 -1.04024 0)
(9.71679 -1.09303 0)
(9.55385 -1.008 0)
(9.69964 -1.05804 0)
(9.5489 -0.969137 0)
(9.68379 -1.01461 0)
(9.54428 -0.925126 0)
(9.67452 -0.971768 0)
(9.5361 -0.881681 0)
(9.66283 -0.931032 0)
(9.51209 -0.840488 0)
(9.64932 -0.887252 0)
(9.47695 -0.790776 0)
(9.63015 -0.832 0)
(9.44157 -0.733087 0)
(9.60126 -0.770459 0)
(9.41029 -0.672491 0)
(9.56123 -0.71009 0)
(9.38046 -0.612945 0)
(9.51593 -0.65288 0)
(9.34845 -0.554556 0)
(9.46519 -0.590206 0)
(9.31038 -0.488493 0)
(9.41821 -0.520962 0)
(9.27784 -0.422818 0)
(9.37405 -0.456977 0)
(9.24764 -0.361713 0)
(9.32265 -0.387633 0)
(9.21684 -0.298853 0)
(9.27151 -0.322371 0)
(9.18529 -0.238063 0)
(9.20907 -0.246072 0)
(9.14591 -0.161537 0)
(9.13918 -0.166197 0)
(9.10649 -0.0802967 0)
(9.06549 -0.0837297 0)
(9.06077 0.00846396 0)
(8.99899 0.0139834 0)
(9.01304 0.107173 0)
(8.93836 0.111047 0)
(8.96784 0.214221 0)
(8.88901 0.223671 0)
(8.90842 0.322574 0)
(8.84594 0.333748 0)
(8.85472 0.43595 0)
(8.80769 0.427177 0)
(8.79485 0.536374 0)
(8.77785 0.519173 0)
(8.72362 0.630527 0)
(8.73837 0.607616 0)
(8.64518 0.729261 0)
(8.70411 0.696436 0)
(8.565 0.824984 0)
(8.6631 0.788472 0)
(8.47927 0.932024 0)
(8.59827 0.87195 0)
(8.36697 1.03179 0)
(8.52922 0.961912 0)
(8.21054 1.14214 0)
(8.45619 1.05501 0)
(8.04629 1.28084 0)
(8.38431 1.15771 0)
(7.87992 1.42301 0)
(8.32195 1.26106 0)
(7.74054 1.5808 0)
(8.24243 1.38316 0)
(7.6165 1.74691 0)
(8.15031 1.5246 0)
(7.49294 1.91858 0)
(8.02014 1.67801 0)
(7.35846 2.09212 0)
(7.84328 1.86068 0)
(7.19744 2.28154 0)
(7.64823 2.08823 0)
(6.99568 2.50211 0)
(7.44058 2.36375 0)
(6.74008 2.77988 0)
(7.17042 2.71307 0)
(6.43134 3.17275 0)
(6.77002 3.16554 0)
(6.07421 3.83518 0)
(6.25968 3.87234 0)
(5.40036 4.95252 0)
(6.36022 5.50761 0)
(4.06687 8.44616 0)
(5.3132 -0.0703721 0)
(5.24413 -0.0364165 0)
(5.35886 -0.042871 0)
(5.32642 -0.0653756 0)
(5.50288 -0.0958504 0)
(5.4857 -0.106086 0)
(5.65892 -0.112796 0)
(5.6109 -0.103921 0)
(5.76208 -0.102982 0)
(5.68738 -0.0960186 0)
(5.83515 -0.101547 0)
(5.75212 -0.100343 0)
(5.91022 -0.110427 0)
(5.82661 -0.110865 0)
(5.99665 -0.121285 0)
(5.91144 -0.121159 0)
(6.09165 -0.131555 0)
(6.00297 -0.130788 0)
(6.19195 -0.141843 0)
(6.09975 -0.140803 0)
(6.29602 -0.153034 0)
(6.1986 -0.15387 0)
(6.39935 -0.168497 0)
(6.2941 -0.170904 0)
(6.49891 -0.18763 0)
(6.38525 -0.190929 0)
(6.59486 -0.208065 0)
(6.47316 -0.209877 0)
(6.68814 -0.226136 0)
(6.55972 -0.226408 0)
(6.78233 -0.24298 0)
(6.6492 -0.243562 0)
(6.88065 -0.262361 0)
(6.74223 -0.263789 0)
(6.9801 -0.283564 0)
(6.83404 -0.28361 0)
(7.0762 -0.30273 0)
(6.92255 -0.300974 0)
(7.16853 -0.320488 0)
(7.00901 -0.318854 0)
(7.25891 -0.34084 0)
(7.09538 -0.340982 0)
(7.34885 -0.366655 0)
(7.18131 -0.368589 0)
(7.43753 -0.396563 0)
(7.26408 -0.397936 0)
(7.52246 -0.426088 0)
(7.3415 -0.424723 0)
(7.60295 -0.451349 0)
(7.41312 -0.446226 0)
(7.68137 -0.470053 0)
(7.48004 -0.460493 0)
(7.76044 -0.481639 0)
(7.54587 -0.468029 0)
(7.84267 -0.488186 0)
(7.61571 -0.472355 0)
(7.93069 -0.493476 0)
(7.69421 -0.47796 0)
(8.02637 -0.50225 0)
(7.78424 -0.48855 0)
(8.12944 -0.517808 0)
(7.88549 -0.507391 0)
(8.23798 -0.543577 0)
(7.99544 -0.537472 0)
(8.34781 -0.58058 0)
(8.10878 -0.57759 0)
(8.45423 -0.623636 0)
(8.21627 -0.621954 0)
(8.55602 -0.669956 0)
(8.31498 -0.667544 0)
(8.65294 -0.712633 0)
(8.40311 -0.703356 0)
(8.74559 -0.7455 0)
(8.48805 -0.730479 0)
(8.83848 -0.773137 0)
(8.57916 -0.752294 0)
(8.93668 -0.796863 0)
(8.68108 -0.77254 0)
(9.04329 -0.819846 0)
(8.79142 -0.794487 0)
(9.16092 -0.843168 0)
(8.90869 -0.814458 0)
(9.2835 -0.864402 0)
(9.03373 -0.832517 0)
(9.40273 -0.884093 0)
(9.16375 -0.853308 0)
(9.51713 -0.911183 0)
(9.29333 -0.882666 0)
(9.6219 -0.945097 0)
(9.41126 -0.918665 0)
(9.71671 -0.980289 0)
(9.51229 -0.950453 0)
(9.79442 -1.01089 0)
(9.59126 -0.979559 0)
(9.8539 -1.03908 0)
(9.65268 -1.00491 0)
(9.90063 -1.0638 0)
(9.7059 -1.02953 0)
(9.94751 -1.09067 0)
(9.76428 -1.05771 0)
(10.0002 -1.12221 0)
(9.82853 -1.08659 0)
(10.0593 -1.15404 0)
(9.88531 -1.10849 0)
(10.1107 -1.16644 0)
(9.92547 -1.11135 0)
(10.1437 -1.1671 0)
(9.94459 -1.10714 0)
(10.1518 -1.16661 0)
(9.94032 -1.09835 0)
(10.1335 -1.15328 0)
(9.91176 -1.07379 0)
(10.0879 -1.12792 0)
(9.8654 -1.0484 0)
(10.0365 -1.10709 0)
(9.82524 -1.02687 0)
(9.99147 -1.08471 0)
(9.79025 -0.997317 0)
(9.95251 -1.04941 0)
(9.75174 -0.959134 0)
(9.91872 -1.00731 0)
(9.71179 -0.916151 0)
(9.88853 -0.964012 0)
(9.67209 -0.867217 0)
(9.85713 -0.919337 0)
(9.62254 -0.818719 0)
(9.82055 -0.875088 0)
(9.56658 -0.76926 0)
(9.77916 -0.820069 0)
(9.51026 -0.711096 0)
(9.72883 -0.760714 0)
(9.45429 -0.649728 0)
(9.67175 -0.698231 0)
(9.40145 -0.588548 0)
(9.612 -0.637012 0)
(9.33966 -0.526069 0)
(9.54731 -0.573564 0)
(9.28064 -0.465803 0)
(9.48846 -0.509963 0)
(9.23352 -0.40438 0)
(9.43611 -0.446637 0)
(9.18642 -0.340363 0)
(9.38244 -0.378891 0)
(9.13698 -0.272861 0)
(9.32926 -0.312019 0)
(9.08268 -0.203962 0)
(9.269 -0.232633 0)
(9.03041 -0.128019 0)
(9.20801 -0.152029 0)
(8.99443 -0.0479131 0)
(9.14203 -0.0662373 0)
(8.957 0.0384406 0)
(9.07369 0.0237506 0)
(8.91631 0.135294 0)
(9.01748 0.120004 0)
(8.86854 0.240415 0)
(8.97236 0.227273 0)
(8.81697 0.353359 0)
(8.94073 0.33161 0)
(8.77201 0.470813 0)
(8.91789 0.422301 0)
(8.71715 0.575893 0)
(8.89579 0.516144 0)
(8.66746 0.674005 0)
(8.87125 0.600474 0)
(8.62594 0.771622 0)
(8.8445 0.679288 0)
(8.58207 0.878972 0)
(8.79504 0.765703 0)
(8.524 1.00151 0)
(8.75873 0.855567 0)
(8.41834 1.11691 0)
(8.72367 0.953628 0)
(8.28602 1.24455 0)
(8.66956 1.04165 0)
(8.14418 1.3784 0)
(8.63156 1.13269 0)
(8.00996 1.51783 0)
(8.60009 1.23077 0)
(7.88591 1.67138 0)
(8.56874 1.36355 0)
(7.77996 1.83692 0)
(8.51365 1.51981 0)
(7.68509 2.00895 0)
(8.43063 1.69198 0)
(7.57161 2.1822 0)
(8.33135 1.88337 0)
(7.42287 2.37928 0)
(8.21447 2.10566 0)
(7.26982 2.63755 0)
(8.05166 2.37367 0)
(7.1371 2.98059 0)
(7.82047 2.70844 0)
(6.98606 3.45743 0)
(7.55057 3.17749 0)
(6.6926 4.1338 0)
(7.5418 3.97024 0)
(6.01503 5.36091 0)
(8.45376 4.80384 0)
(6.47122 8.9258 0)
(7.99087 -0.0874791 0)
(7.88435 -0.0743822 0)
(8.00457 -0.0898229 0)
(7.92774 -0.103846 0)
(8.10575 -0.124496 0)
(8.04476 -0.125475 0)
(8.21862 -0.129259 0)
(8.12295 -0.117694 0)
(8.27379 -0.117789 0)
(8.1509 -0.109307 0)
(8.30045 -0.116864 0)
(8.17211 -0.115428 0)
(8.33466 -0.128958 0)
(8.20756 -0.130329 0)
(8.38381 -0.145167 0)
(8.25635 -0.145604 0)
(8.44303 -0.159565 0)
(8.31203 -0.158229 0)
(8.50554 -0.171654 0)
(8.36917 -0.169757 0)
(8.56804 -0.184124 0)
(8.42591 -0.183269 0)
(8.62965 -0.199488 0)
(8.48133 -0.199756 0)
(8.69011 -0.217611 0)
(8.53572 -0.21839 0)
(8.74993 -0.236856 0)
(8.58944 -0.236923 0)
(8.80893 -0.255177 0)
(8.64132 -0.254274 0)
(8.86617 -0.272926 0)
(8.69117 -0.272119 0)
(8.92182 -0.2923 0)
(8.73885 -0.29185 0)
(8.97486 -0.312971 0)
(8.7835 -0.311476 0)
(9.02499 -0.332361 0)
(8.82656 -0.329094 0)
(9.07375 -0.350314 0)
(8.87021 -0.346415 0)
(9.12315 -0.369809 0)
(8.91683 -0.366979 0)
(9.17469 -0.393862 0)
(8.9658 -0.39251 0)
(9.22703 -0.421933 0)
(9.01383 -0.420572 0)
(9.2772 -0.450257 0)
(9.05659 -0.446745 0)
(9.32252 -0.474634 0)
(9.09174 -0.467434 0)
(9.36298 -0.492624 0)
(9.12055 -0.481157 0)
(9.40018 -0.504387 0)
(9.14659 -0.489241 0)
(9.43659 -0.512512 0)
(9.17576 -0.495488 0)
(9.47649 -0.521594 0)
(9.2147 -0.504921 0)
(9.52367 -0.535614 0)
(9.26581 -0.52016 0)
(9.57741 -0.554623 0)
(9.32485 -0.541106 0)
(9.63419 -0.579631 0)
(9.38521 -0.570042 0)
(9.69087 -0.612938 0)
(9.44156 -0.606871 0)
(9.74601 -0.654124 0)
(9.49551 -0.650721 0)
(9.80355 -0.701308 0)
(9.54783 -0.696359 0)
(9.85778 -0.744814 0)
(9.59601 -0.73348 0)
(9.9105 -0.777976 0)
(9.64357 -0.762224 0)
(9.96355 -0.80672 0)
(9.69342 -0.78641 0)
(10.0166 -0.832051 0)
(9.74813 -0.808209 0)
(10.0729 -0.85749 0)
(9.81171 -0.832688 0)
(10.1357 -0.883026 0)
(9.88332 -0.854441 0)
(10.2035 -0.905538 0)
(9.96119 -0.871305 0)
(10.2701 -0.923809 0)
(10.0418 -0.891003 0)
(10.3329 -0.946037 0)
(10.1144 -0.915795 0)
(10.3877 -0.975432 0)
(10.1761 -0.947132 0)
(10.4315 -1.00465 0)
(10.2232 -0.972392 0)
(10.4578 -1.03008 0)
(10.2533 -0.995201 0)
(10.4684 -1.05252 0)
(10.2723 -1.01611 0)
(10.4668 -1.07613 0)
(10.2853 -1.04094 0)
(10.4691 -1.10565 0)
(10.3005 -1.07085 0)
(10.4744 -1.13978 0)
(10.3136 -1.10094 0)
(10.4748 -1.16994 0)
(10.3114 -1.11794 0)
(10.4654 -1.17618 0)
(10.2988 -1.11457 0)
(10.4452 -1.17043 0)
(10.277 -1.10176 0)
(10.4083 -1.15723 0)
(10.2339 -1.07881 0)
(10.3437 -1.13124 0)
(10.1683 -1.04494 0)
(10.2655 -1.10175 0)
(10.1075 -1.02198 0)
(10.1988 -1.08446 0)
(10.0484 -1.00105 0)
(10.1246 -1.06199 0)
(9.97824 -0.971429 0)
(10.052 -1.03011 0)
(9.90939 -0.933074 0)
(9.99071 -0.991464 0)
(9.84493 -0.888527 0)
(9.93387 -0.948348 0)
(9.78192 -0.839008 0)
(9.8781 -0.901691 0)
(9.7176 -0.788446 0)
(9.81839 -0.855946 0)
(9.64644 -0.737307 0)
(9.74763 -0.800741 0)
(9.57052 -0.674493 0)
(9.67065 -0.737803 0)
(9.48578 -0.609763 0)
(9.59889 -0.677136 0)
(9.4035 -0.549162 0)
(9.52699 -0.613041 0)
(9.3183 -0.485067 0)
(9.4526 -0.553596 0)
(9.24298 -0.431163 0)
(9.38081 -0.495266 0)
(9.17355 -0.371689 0)
(9.31511 -0.437263 0)
(9.11374 -0.303257 0)
(9.2433 -0.368525 0)
(9.05399 -0.233337 0)
(9.18073 -0.300583 0)
(8.99765 -0.160305 0)
(9.12231 -0.219569 0)
(8.94529 -0.082691 0)
(9.07309 -0.143513 0)
(8.90921 -0.00484624 0)
(9.02028 -0.0624494 0)
(8.89063 0.0868651 0)
(8.96554 0.0197971 0)
(8.85589 0.180008 0)
(8.92284 0.117224 0)
(8.8088 0.291784 0)
(8.87751 0.214422 0)
(8.76489 0.403136 0)
(8.84047 0.312882 0)
(8.72054 0.517512 0)
(8.81387 0.411803 0)
(8.67667 0.623198 0)
(8.79314 0.497325 0)
(8.65209 0.7178 0)
(8.7793 0.57668 0)
(8.62825 0.818839 0)
(8.75842 0.660272 0)
(8.59771 0.935528 0)
(8.74058 0.756223 0)
(8.53654 1.05793 0)
(8.74879 0.850036 0)
(8.43714 1.18872 0)
(8.75575 0.950213 0)
(8.31225 1.33191 0)
(8.77109 1.043 0)
(8.17339 1.4643 0)
(8.79177 1.12497 0)
(8.05239 1.59696 0)
(8.79657 1.221 0)
(7.94557 1.74125 0)
(8.78415 1.34196 0)
(7.86753 1.91194 0)
(8.75311 1.49318 0)
(7.78982 2.10016 0)
(8.70999 1.66337 0)
(7.70095 2.30435 0)
(8.64462 1.84337 0)
(7.62125 2.53743 0)
(8.53382 2.04496 0)
(7.56762 2.81251 0)
(8.40056 2.30642 0)
(7.50742 3.16914 0)
(8.31755 2.65935 0)
(7.37171 3.63601 0)
(8.43315 3.1495 0)
(7.04811 4.36681 0)
(8.97309 3.64664 0)
(6.74385 5.91159 0)
(9.70774 3.70001 0)
(8.11049 8.21105 0)
(10.2264 -0.107491 0)
(10.1063 -0.170496 0)
(10.2439 -0.209604 0)
(10.1472 -0.201885 0)
(10.3253 -0.193686 0)
(10.2329 -0.165501 0)
(10.4008 -0.154852 0)
(10.2748 -0.132797 0)
(10.4234 -0.132522 0)
(10.2757 -0.120387 0)
(10.4245 -0.130272 0)
(10.2731 -0.126238 0)
(10.4331 -0.143076 0)
(10.2832 -0.142551 0)
(10.4549 -0.161341 0)
(10.3047 -0.159963 0)
(10.4846 -0.177659 0)
(10.331 -0.173959 0)
(10.5166 -0.190488 0)
(10.3582 -0.185534 0)
(10.5487 -0.202457 0)
(10.3852 -0.197881 0)
(10.5801 -0.216529 0)
(10.4113 -0.212935 0)
(10.61 -0.233366 0)
(10.4362 -0.230295 0)
(10.6381 -0.251659 0)
(10.4594 -0.248075 0)
(10.6639 -0.269561 0)
(10.4803 -0.265132 0)
(10.6866 -0.286808 0)
(10.4981 -0.281977 0)
(10.7061 -0.304425 0)
(10.5127 -0.29976 0)
(10.7228 -0.32308 0)
(10.5243 -0.318117 0)
(10.7376 -0.341816 0)
(10.5345 -0.336425 0)
(10.7532 -0.360886 0)
(10.5459 -0.355468 0)
(10.7712 -0.381703 0)
(10.5597 -0.377366 0)
(10.7915 -0.406386 0)
(10.5746 -0.40306 0)
(10.8113 -0.43413 0)
(10.5874 -0.430264 0)
(10.8274 -0.461389 0)
(10.5957 -0.454663 0)
(10.8379 -0.484002 0)
(10.599 -0.472814 0)
(10.8434 -0.499812 0)
(10.5992 -0.484159 0)
(10.8454 -0.50951 0)
(10.5986 -0.490975 0)
(10.8472 -0.517064 0)
(10.602 -0.498245 0)
(10.8528 -0.527724 0)
(10.6119 -0.509981 0)
(10.8628 -0.543133 0)
(10.6252 -0.526309 0)
(10.8736 -0.562875 0)
(10.6381 -0.547575 0)
(10.8828 -0.587989 0)
(10.6487 -0.575284 0)
(10.8887 -0.619594 0)
(10.6556 -0.611264 0)
(10.8942 -0.661893 0)
(10.6618 -0.657958 0)
(10.9006 -0.709827 0)
(10.6647 -0.70321 0)
(10.9036 -0.753488 0)
(10.6618 -0.741074 0)
(10.903 -0.787407 0)
(10.6602 -0.7713 0)
(10.902 -0.816035 0)
(10.6576 -0.796688 0)
(10.9007 -0.84136 0)
(10.6617 -0.821242 0)
(10.9078 -0.87011 0)
(10.6806 -0.848544 0)
(10.9234 -0.896732 0)
(10.7089 -0.872427 0)
(10.9423 -0.918297 0)
(10.7384 -0.889107 0)
(10.9612 -0.936913 0)
(10.7659 -0.906795 0)
(10.9745 -0.955912 0)
(10.7855 -0.931248 0)
(10.9823 -0.983695 0)
(10.7985 -0.957255 0)
(10.9771 -1.00702 0)
(10.7962 -0.974317 0)
(10.9556 -1.0252 0)
(10.7806 -0.990443 0)
(10.9245 -1.04396 0)
(10.7583 -1.00803 0)
(10.8852 -1.06787 0)
(10.7317 -1.03459 0)
(10.8476 -1.09955 0)
(10.7006 -1.06403 0)
(10.8083 -1.13123 0)
(10.6611 -1.08984 0)
(10.7592 -1.15789 0)
(10.6129 -1.10342 0)
(10.7058 -1.16442 0)
(10.5606 -1.09953 0)
(10.6453 -1.15665 0)
(10.4994 -1.07944 0)
(10.5689 -1.13288 0)
(10.42 -1.0458 0)
(10.4686 -1.09501 0)
(10.325 -1.00929 0)
(10.3734 -1.07305 0)
(10.2478 -0.992769 0)
(10.2815 -1.05448 0)
(10.1586 -0.965309 0)
(10.1768 -1.02599 0)
(10.0541 -0.931818 0)
(10.067 -0.998066 0)
(9.95358 -0.893355 0)
(9.97231 -0.965036 0)
(9.86048 -0.850718 0)
(9.89372 -0.923027 0)
(9.77143 -0.805746 0)
(9.82143 -0.878484 0)
(9.68602 -0.759272 0)
(9.74133 -0.828942 0)
(9.59616 -0.701215 0)
(9.6492 -0.767806 0)
(9.50017 -0.635425 0)
(9.55439 -0.703957 0)
(9.39929 -0.572097 0)
(9.46531 -0.645249 0)
(9.29754 -0.510199 0)
(9.37984 -0.580868 0)
(9.19517 -0.448371 0)
(9.29958 -0.524203 0)
(9.0977 -0.395511 0)
(9.21568 -0.469503 0)
(9.00669 -0.337471 0)
(9.13771 -0.41423 0)
(8.91977 -0.26461 0)
(9.06023 -0.345668 0)
(8.84697 -0.196673 0)
(9.0036 -0.285252 0)
(8.788 -0.123331 0)
(8.95062 -0.210355 0)
(8.74128 -0.0511105 0)
(8.91827 -0.143666 0)
(8.70497 0.0225068 0)
(8.89377 -0.0720166 0)
(8.67497 0.114937 0)
(8.88263 0.0184063 0)
(8.62583 0.210744 0)
(8.86408 0.11726 0)
(8.58451 0.327809 0)
(8.82454 0.216285 0)
(8.54793 0.44909 0)
(8.7898 0.318008 0)
(8.49624 0.549009 0)
(8.77404 0.402209 0)
(8.46574 0.65144 0)
(8.77939 0.472043 0)
(8.42631 0.74291 0)
(8.80633 0.553119 0)
(8.37868 0.847663 0)
(8.82046 0.638575 0)
(8.32751 0.969471 0)
(8.85026 0.734232 0)
(8.26893 1.10281 0)
(8.88234 0.821361 0)
(8.20006 1.25094 0)
(8.91941 0.913831 0)
(8.10894 1.39365 0)
(8.96775 0.997638 0)
(8.03371 1.52162 0)
(8.98093 1.08377 0)
(7.98847 1.65389 0)
(8.96222 1.18468 0)
(7.9596 1.80612 0)
(8.92914 1.29939 0)
(7.93719 1.99009 0)
(8.9065 1.43932 0)
(7.91602 2.19494 0)
(8.88101 1.59827 0)
(7.90236 2.41491 0)
(8.84833 1.77224 0)
(7.88861 2.65117 0)
(8.83892 1.98656 0)
(7.8367 2.93405 0)
(8.88775 2.24363 0)
(7.74036 3.30838 0)
(9.06559 2.55504 0)
(7.56522 3.83646 0)
(9.45858 2.83947 0)
(7.39889 4.74456 0)
(10.0581 2.94437 0)
(7.71106 6.15256 0)
(10.3147 3.11974 0)
(9.1028 7.20754 0)
(11.7174 -0.0915296 0)
(11.6297 -0.188712 0)
(11.8005 -0.247912 0)
(11.7438 -0.236032 0)
(11.9011 -0.221316 0)
(11.8111 -0.177621 0)
(11.9409 -0.161992 0)
(11.8184 -0.132322 0)
(11.9336 -0.135118 0)
(11.797 -0.120417 0)
(11.9138 -0.135573 0)
(11.7762 -0.129183 0)
(11.9024 -0.150649 0)
(11.7679 -0.147001 0)
(11.904 -0.169921 0)
(11.7709 -0.165218 0)
(11.914 -0.186965 0)
(11.7791 -0.179882 0)
(11.9267 -0.200293 0)
(11.7882 -0.191733 0)
(11.9389 -0.21228 0)
(11.7957 -0.203801 0)
(11.9486 -0.225868 0)
(11.8003 -0.218166 0)
(11.955 -0.241945 0)
(11.8016 -0.234645 0)
(11.958 -0.259445 0)
(11.8001 -0.251638 0)
(11.9586 -0.276748 0)
(11.7971 -0.267913 0)
(11.9576 -0.293097 0)
(11.7934 -0.283377 0)
(11.9555 -0.309228 0)
(11.7894 -0.299209 0)
(11.9526 -0.326074 0)
(11.7849 -0.316028 0)
(11.9492 -0.344065 0)
(11.7801 -0.334302 0)
(11.9461 -0.363647 0)
(11.7752 -0.354539 0)
(11.9434 -0.385673 0)
(11.7699 -0.377606 0)
(11.9403 -0.410668 0)
(11.7627 -0.403108 0)
(11.935 -0.437393 0)
(11.7524 -0.428797 0)
(11.9255 -0.462762 0)
(11.7381 -0.451315 0)
(11.9109 -0.483485 0)
(11.7198 -0.467868 0)
(11.8909 -0.497784 0)
(11.6989 -0.478197 0)
(11.8678 -0.507154 0)
(11.679 -0.485874 0)
(11.8458 -0.516182 0)
(11.6629 -0.495096 0)
(11.8259 -0.52742 0)
(11.6475 -0.507034 0)
(11.8054 -0.541315 0)
(11.6287 -0.522615 0)
(11.7832 -0.55991 0)
(11.6053 -0.543086 0)
(11.7586 -0.583223 0)
(11.5767 -0.56816 0)
(11.7318 -0.613119 0)
(11.5467 -0.602883 0)
(11.7051 -0.654334 0)
(11.5138 -0.646583 0)
(11.6702 -0.699492 0)
(11.4734 -0.688693 0)
(11.6272 -0.739795 0)
(11.4267 -0.724758 0)
(11.5801 -0.774086 0)
(11.3816 -0.755308 0)
(11.5312 -0.802579 0)
(11.3369 -0.782537 0)
(11.4849 -0.831744 0)
(11.3033 -0.814067 0)
(11.4537 -0.866399 0)
(11.2834 -0.846099 0)
(11.43 -0.895972 0)
(11.2684 -0.871977 0)
(11.4068 -0.916819 0)
(11.2535 -0.890359 0)
(11.3854 -0.935261 0)
(11.2338 -0.906585 0)
(11.3625 -0.953799 0)
(11.2124 -0.929344 0)
(11.3338 -0.978189 0)
(11.1841 -0.9466 0)
(11.2912 -0.992409 0)
(11.1396 -0.957314 0)
(11.2404 -1.00811 0)
(11.089 -0.971253 0)
(11.1852 -1.02699 0)
(11.0352 -0.987641 0)
(11.1233 -1.05157 0)
(10.9791 -1.01203 0)
(11.054 -1.08181 0)
(10.9165 -1.03984 0)
(10.9827 -1.11041 0)
(10.8489 -1.06211 0)
(10.9077 -1.13404 0)
(10.7763 -1.0738 0)
(10.8255 -1.13648 0)
(10.6924 -1.06668 0)
(10.7276 -1.12305 0)
(10.5949 -1.04034 0)
(10.6107 -1.09219 0)
(10.4805 -0.997483 0)
(10.4786 -1.05034 0)
(10.375 -0.968514 0)
(10.3658 -1.03637 0)
(10.2684 -0.947299 0)
(10.2392 -1.00968 0)
(10.1457 -0.910117 0)
(10.1033 -0.976478 0)
(10.0105 -0.87207 0)
(9.96909 -0.951515 0)
(9.87967 -0.838707 0)
(9.84886 -0.926203 0)
(9.75709 -0.802462 0)
(9.74857 -0.889395 0)
(9.64496 -0.760822 0)
(9.65336 -0.845468 0)
(9.53746 -0.712201 0)
(9.54576 -0.794643 0)
(9.42891 -0.650997 0)
(9.43647 -0.731831 0)
(9.31635 -0.583594 0)
(9.32992 -0.667295 0)
(9.20428 -0.522237 0)
(9.2226 -0.606853 0)
(9.09033 -0.458167 0)
(9.12012 -0.547039 0)
(8.97958 -0.398764 0)
(9.02872 -0.489831 0)
(8.86272 -0.342335 0)
(8.93373 -0.438949 0)
(8.74908 -0.283205 0)
(8.84348 -0.382672 0)
(8.63733 -0.215487 0)
(8.77077 -0.325809 0)
(8.56282 -0.159728 0)
(8.71128 -0.272824 0)
(8.49883 -0.0813336 0)
(8.66168 -0.211695 0)
(8.45795 -0.0144466 0)