/*--------------------------------*- C++ -*----------------------------------*\
| =========                 |                                                 |
| \\      /  F ield         | OpenFOAM: The Open Source CFD Toolbox           |
|  \\    /   O peration     | Version:  2.4.0                                 |
|   \\  /    A nd           | Web:      www.OpenFOAM.org                      |
|    \\/     M anipulation  |                                                 |
\*---------------------------------------------------------------------------*/
FoamFile
{
    version     2.0;
    format      ascii;
    class       volScalarField;
    location    "0.64";
    object      p;
}
// * * * * * * * * * * * * * * * * * * * * * * * * * * * * * * * * * * * * * //

dimensions      [0 2 -2 0 0 0 0];

internalField   nonuniform List<scalar> 
4400
(
-20.3745
-20.7036
-20.8469
-20.7409
-20.8453
-20.9766
-21.3653
-21.2139
-22.0912
-21.2708
-21.8799
-21.9294
-20.7125
-24.4063
-20.877
-22.2503
-24.4894
-18.9976
-23.448
-24.1212
-20.4642
-20.7026
-20.8539
-20.7536
-20.8723
-21.0391
-21.4029
-21.2373
-22.1518
-21.2057
-21.7688
-22.365
-21.1592
-24.5935
-21.0269
-22.4061
-24.9936
-19.1926
-23.3659
-24.2425
-20.4654
-20.7049
-20.8771
-20.802
-21.0301
-21.1937
-21.5884
-21.3321
-21.9795
-21.3203
-22.1396
-23.0639
-21.6461
-24.6812
-21.0351
-22.556
-25.2194
-19.4811
-23.1203
-24.506
-20.5424
-20.708
-20.9056
-20.8644
-21.185
-21.3411
-21.6531
-21.2809
-21.8297
-21.6632
-22.5899
-23.1865
-21.39
-23.7511
-21.416
-22.2859
-24.9465
-19.9069
-22.8551
-24.6773
-20.5428
-20.7092
-20.9264
-20.8855
-21.2781
-21.3342
-21.6143
-21.2723
-21.7658
-22.0504
-22.5408
-22.9733
-21.1856
-23.752
-21.6766
-22.0378
-24.706
-20.3365
-22.6626
-24.942
-20.6032
-20.7079
-20.9302
-20.8803
-21.2822
-21.2798
-21.5558
-21.2905
-21.8291
-22.1891
-22.2714
-22.758
-21.2044
-23.5141
-21.8922
-21.8578
-24.3221
-20.6649
-22.4739
-24.923
-20.607
-20.7026
-20.9254
-20.861
-21.2538
-21.2293
-21.518
-21.3558
-21.7709
-22.2263
-21.9712
-22.6049
-21.3142
-23.3264
-22.099
-21.7034
-24.0326
-21.0067
-22.3683
-24.8533
-20.6493
-20.7005
-20.9177
-20.8425
-21.219
-21.1936
-21.4903
-21.3905
-21.6991
-22.1723
-21.7821
-22.5363
-21.3989
-23.1977
-22.2088
-21.668
-23.8598
-21.2905
-22.3164
-24.7473
-20.6632
-20.6884
-20.905
-20.8275
-21.1832
-21.1704
-21.4655
-21.4206
-21.6284
-22.1179
-21.655
-22.479
-21.5238
-23.0012
-22.3729
-21.6845
-23.7053
-21.6113
-22.3078
-24.6714
-20.6817
-20.6858
-20.8936
-20.8159
-21.1532
-21.1608
-21.4382
-21.4494
-21.5554
-22.082
-21.5608
-22.4227
-21.6128
-22.8544
-22.4817
-21.7385
-23.6076
-21.85
-22.3151
-24.6434
-20.6959
-20.676
-20.8786
-20.8127
-21.1267
-21.1614
-21.415
-21.4668
-21.4909
-22.0508
-21.488
-22.3465
-21.7165
-22.6834
-22.5689
-21.7853
-23.4781
-22.1084
-22.3368
-24.5874
-20.6999
-20.6695
-20.8672
-20.8097
-21.1063
-21.1711
-21.3863
-21.4853
-21.4334
-22.0177
-21.4393
-22.274
-21.7998
-22.5452
-22.6519
-21.7973
-23.3711
-22.345
-22.3574
-24.5377
-20.706
-20.664
-20.8516
-20.8145
-21.0858
-21.1829
-21.362
-21.4974
-21.3792
-21.993
-21.4045
-22.1921
-21.9053
-22.4084
-22.703
-21.8372
-23.2622
-22.5357
-22.3937
-24.4903
-20.7011
-20.6565
-20.8413
-20.8178
-21.0699
-21.2004
-21.3332
-21.5085
-21.336
-21.9635
-21.3838
-22.1218
-21.9749
-22.2821
-22.7568
-21.8593
-23.1476
-22.7424
-22.4081
-24.4055
-20.6954
-20.6519
-20.8282
-20.827
-21.0542
-21.2158
-21.3088
-21.5157
-21.2939
-21.9406
-21.3754
-22.0468
-22.105
-22.1666
-22.7836
-21.8998
-23.0405
-22.8904
-22.4418
-24.3487
-20.6821
-20.6447
-20.8207
-20.8332
-21.0411
-21.2333
-21.2794
-21.5216
-21.2617
-21.9147
-21.3726
-21.9842
-22.0822
-22.0625
-22.8142
-21.9211
-22.9292
-23.0525
-22.457
-24.2582
-20.6653
-20.6399
-20.8125
-20.8436
-21.0298
-21.2467
-21.2604
-21.5257
-21.2325
-21.8939
-21.377
-21.9262
-22.2637
-21.9783
-22.8192
-21.9608
-22.8318
-23.1526
-22.4871
-24.2041
-20.6412
-20.6328
-20.8093
-20.848
-21.0199
-21.2585
-21.2391
-21.5294
-21.2104
-21.8767
-21.3787
-21.8811
-22.2533
-21.9016
-22.8322
-21.9785
-22.7436
-23.2636
-22.5023
-24.1276
-20.6163
-20.6324
-20.8089
-20.8559
-21.0133
-21.2662
-21.2257
-21.5366
-21.1925
-21.8648
-21.3845
-21.8362
-22.3366
-21.8518
-22.8274
-22.0006
-22.6617
-23.3262
-22.5199
-24.0687
-20.5668
-20.6231
-20.8084
-20.8561
-21.009
-21.2691
-21.2193
-21.5377
-21.1892
-21.8571
-21.3822
-21.8161
-22.311
-21.8258
-22.8245
-22.006
-22.6182
-23.3574
-22.5345
-24.0142
-15.2552
-20.5999
-46.4727
-62.4867
-54.4338
-37.9809
-25.8605
-16.5142
-8.72987
-3.7789
-1.03092
0.610117
1.53355
2.01527
2.24926
2.35168
2.38958
2.39715
2.39034
2.37643
2.35876
2.33897
2.31796
2.29619
2.27392
2.25128
2.22835
2.20519
2.18183
2.15827
2.13454
2.11064
2.08655
2.0623
2.03787
2.01327
1.98849
1.96354
1.93841
1.91311
1.88762
1.86196
1.83612
1.81009
1.78388
1.75749
1.73091
1.70414
1.67719
1.65005
1.62271
1.59519
1.56747
1.53956
1.51145
1.48314
1.45463
1.42592
1.39702
1.3679
1.33859
1.30907
1.27934
1.2494
1.21925
1.18889
1.15832
1.12753
1.09652
1.0653
1.03386
1.00219
0.970308
0.938199
0.905864
0.873301
0.84051
0.807488
0.774235
0.740748
0.707025
0.673066
0.638868
0.60443
0.569749
0.534826
0.499656
0.464241
0.428574
0.39266
0.356491
0.320068
0.283394
0.24645
0.209264
0.171801
0.134077
0.0961057
0.0578403
0.0193195
-16.9848
-21.9915
-45.1543
-59.5833
-51.1452
-36.1613
-24.8244
-16.1993
-9.04154
-4.27648
-1.44143
0.311782
1.3208
1.86556
2.14851
2.28501
2.34527
2.36767
2.37086
2.36364
2.35041
2.33354
2.31445
2.29392
2.27246
2.25034
2.22775
2.20481
2.18158
2.15812
2.13445
2.11057
2.08652
2.06228
2.03786
2.01326
1.98849
1.96354
1.93841
1.91311
1.88762
1.86196
1.83612
1.81009
1.78388
1.75749
1.73091
1.70414
1.67719
1.65005
1.62271
1.59519
1.56747
1.53956
1.51145
1.48314
1.45463
1.42592
1.39702
1.3679
1.33859
1.30907
1.27934
1.2494
1.21925
1.18889
1.15832
1.12753
1.09652
1.0653
1.03386
1.00219
0.970309
0.938199
0.905863
0.873302
0.84051
0.807488
0.774236
0.740747
0.707025
0.673066
0.638868
0.604429
0.56975
0.534826
0.499656
0.464241
0.428575
0.39266
0.356491
0.320068
0.283394
0.24645
0.209264
0.171801
0.134077
0.0961059
0.0578399
0.0193197
-17.0493
-22.9275
-42.9702
-55.8259
-47.4182
-34.3807
-24.0505
-15.8102
-9.03944
-4.56127
-1.77611
0.0312311
1.11919
1.72541
2.05133
2.2191
2.3013
2.33859
2.3517
2.35107
2.34219
2.32819
2.31097
2.29168
2.27101
2.24941
2.22716
2.20443
2.18135
2.15797
2.13435
2.11051
2.08648
2.06225
2.03784
2.01325
1.98848
1.96354
1.93841
1.91311
1.88762
1.86196
1.83612
1.81009
1.78388
1.75749
1.73091
1.70414
1.67719
1.65005
1.62271
1.59519
1.56747
1.53956
1.51145
1.48314
1.45463
1.42592
1.39702
1.3679
1.33859
1.30907
1.27934
1.2494
1.21925
1.18889
1.15832
1.12753
1.09652
1.0653
1.03386
1.00219
0.970309
0.938199
0.905863
0.873302
0.84051
0.807488
0.774236
0.740747
0.707025
0.673066
0.638868
0.604429
0.56975
0.534826
0.499656
0.464241
0.428575
0.39266
0.356491
0.320068
0.283394
0.24645
0.209264
0.171801
0.134077
0.0961059
0.0578399
0.0193197
-18.1499
-23.4563
-40.5106
-51.4181
-44.0642
-32.4795
-23.1157
-15.5464
-9.27547
-4.94106
-2.12681
-0.2594
0.907221
1.58589
1.95983
2.15685
2.25859
2.30986
2.33272
2.33864
2.33408
2.32292
2.30756
2.28947
2.26959
2.2485
2.22658
2.20406
2.18111
2.15782
2.13426
2.11046
2.08644
2.06223
2.03783
2.01324
1.98848
1.96353
1.93841
1.9131
1.88762
1.86196
1.83612
1.81009
1.78388
1.75749
1.73091
1.70414
1.67719
1.65005
1.62271
1.59519
1.56747
1.53956
1.51145
1.48314
1.45463
1.42592
1.39702
1.3679
1.33859
1.30907
1.27934
1.2494
1.21925
1.18889
1.15832
1.12753
1.09652
1.0653
1.03386
1.00219
0.970309
0.938199
0.905863
0.873302
0.84051
0.807488
0.774235
0.740747
0.707025
0.673066
0.638868
0.60443
0.56975
0.534826
0.499656
0.464241
0.428575
0.39266
0.356491
0.320068
0.283394
0.24645
0.209264
0.171801
0.134077
0.0961059
0.0578399
0.0193197
-19.5451
-24.0468
-38.0298
-46.9385
-41.364
-31.253
-22.3637
-15.097
-9.27291
-5.21365
-2.43889
-0.513131
0.713519
1.44614
1.86698
2.09684
2.21868
2.28299
2.31474
2.32673
2.32625
2.3178
2.30423
2.28732
2.2682
2.24761
2.22601
2.2037
2.18088
2.15768
2.13416
2.1104
2.0864
2.06221
2.03781
2.01323
1.98847
1.96353
1.93841
1.9131
1.88762
1.86196
1.83612
1.81009
1.78388
1.75749
1.73091
1.70414
1.67719
1.65005
1.62271
1.59519
1.56747
1.53956
1.51145
1.48314
1.45463
1.42592
1.39702
1.3679
1.33859
1.30907
1.27934
1.2494
1.21925
1.18889
1.15832
1.12753
1.09652
1.0653
1.03386
1.00219
0.970309
0.938199
0.905863
0.873302
0.84051
0.807488
0.774235
0.740747
0.707025
0.673066
0.638868
0.60443
0.56975
0.534826
0.499656
0.464241
0.428575
0.39266
0.356491
0.320068
0.283394
0.24645
0.209264
0.171801
0.134077
0.0961059
0.05784
0.0193197
-20.5836
-24.0501
-35.9384
-43.1949
-38.2972
-29.96
-22.1488
-15.1802
-9.45234
-5.46986
-2.75092
-0.788052
0.526238
1.3217
1.77655
2.03307
2.17593
2.25509
2.29665
2.31497
2.3186
2.31283
2.301
2.28523
2.26686
2.24675
2.22546
2.20335
2.18066
2.15753
2.13408
2.11034
2.08637
2.06218
2.0378
2.01323
1.98847
1.96353
1.9384
1.9131
1.88762
1.86196
1.83611
1.81009
1.78388
1.75749
1.73091
1.70414
1.67719
1.65005
1.62271
1.59519
1.56747
1.53956
1.51145
1.48314
1.45463
1.42592
1.39702
1.3679
1.33859
1.30907
1.27934
1.2494
1.21925
1.18889
1.15832
1.12753
1.09652
1.0653
1.03386
1.00219
0.970309
0.938199
0.905863
0.873302
0.84051
0.807488
0.774235
0.740747
0.707025
0.673066
0.638868
0.60443
0.56975
0.534826
0.499656
0.464241
0.428575
0.39266
0.356491
0.320068
0.283394
0.24645
0.209264
0.171801
0.134077
0.0961058
0.05784
0.0193197
-21.1547
-23.8932
-34.2923
-40.3108
-36.1758
-28.6972
-21.5589
-15.1751
-9.73898
-5.76199
-2.9982
-1.03074
0.327608
1.20395
1.71052
1.98828
2.14241
2.23098
2.28011
2.30392
2.31132
2.30807
2.29791
2.28323
2.26557
2.24592
2.22493
2.20301
2.18044
2.1574
2.13399
2.11029
2.08634
2.06216
2.03779
2.01322
1.98846
1.96352
1.9384
1.9131
1.88762
1.86196
1.83611
1.81009
1.78388
1.75749
1.73091
1.70414
1.67719
1.65005
1.62271
1.59519
1.56747
1.53956
1.51145
1.48314
1.45463
1.42592
1.39702
1.3679
1.33859
1.30907
1.27934
1.2494
1.21925
1.18889
1.15832
1.12753
1.09652
1.0653
1.03386
1.00219
0.970309
0.938199
0.905863
0.873302
0.84051
0.807488
0.774235
0.740747
0.707025
0.673066
0.638868
0.60443
0.56975
0.534826
0.499656
0.464241
0.428575
0.39266
0.356491
0.320068
0.283394
0.24645
0.209264
0.171801
0.134077
0.0961058
0.05784
0.0193197
-21.7545
-23.9391
-32.6162
-37.7674
-34.31
-27.5076
-20.8075
-14.6745
-9.66283
-5.97322
-3.2428
-1.21613
0.16128
1.05302
1.60287
1.92173
2.10182
2.20553
2.26374
2.29325
2.30434
2.30351
2.29495
2.28131
2.26433
2.24512
2.22442
2.20269
2.18024
2.15727
2.13391
2.11024
2.0863
2.06214
2.03777
2.01321
1.98846
1.96352
1.9384
1.9131
1.88762
1.86196
1.83611
1.81009
1.78388
1.75749
1.73091
1.70414
1.67719
1.65005
1.62271
1.59519
1.56747
1.53956
1.51145
1.48314
1.45463
1.42592
1.39702
1.3679
1.33859
1.30907
1.27934
1.2494
1.21925
1.18889
1.15832
1.12753
1.09652
1.0653
1.03386
1.00219
0.970308
0.938199
0.905863
0.873302
0.84051
0.807488
0.774235
0.740747
0.707025
0.673066
0.638868
0.60443
0.56975
0.534826
0.499656
0.464241
0.428575
0.39266
0.356491
0.320068
0.283394
0.24645
0.209264
0.171801
0.134077
0.0961058
0.0578401
0.0193197
-22.2657
-23.9
-31.4659
-35.5845
-32.2443
-26.3362
-20.3863
-14.7311
-9.81701
-6.18749
-3.49612
-1.4363
0.0549583
1.01108
1.56791
1.88513
2.07054
2.18301
2.24853
2.28325
2.2978
2.29924
2.29217
2.27951
2.26317
2.24438
2.22394
2.20238
2.18004
2.15715
2.13383
2.11019
2.08627
2.06212
2.03776
2.0132
1.98845
1.96352
1.9384
1.9131
1.88762
1.86196
1.83611
1.81009
1.78388
1.75749
1.73091
1.70414
1.67719
1.65005
1.62271
1.59519
1.56747
1.53956
1.51145
1.48314
1.45463
1.42592
1.39702
1.3679
1.33859
1.30907
1.27934
1.2494
1.21925
1.18889
1.15832
1.12753
1.09652
1.0653
1.03386
1.00219
0.970308
0.938199
0.905863
0.873302
0.84051
0.807488
0.774235
0.740747
0.707025
0.673066
0.638868
0.60443
0.569749
0.534826
0.499656
0.464241
0.428575
0.39266
0.356491
0.320068
0.283394
0.24645
0.209264
0.171801
0.134077
0.0961057
0.0578401
0.0193197
-22.6925
-23.9811
-30.4269
-33.8176
-30.9263
-25.6262
-19.9366
-14.4283
-9.86449
-6.41584
-3.69721
-1.64313
-0.1793
0.845328
1.47764
1.8348
2.03933
2.16223
2.23456
2.27389
2.29162
2.2952
2.28954
2.27781
2.26207
2.24367
2.22349
2.2021
2.17986
2.15703
2.13376
2.11014
2.08624
2.06211
2.03775
2.01319
1.98845
1.96351
1.9384
1.9131
1.88762
1.86196
1.83611
1.81009
1.78388
1.75749
1.73091
1.70414
1.67719
1.65005
1.62271
1.59519
1.56747
1.53956
1.51145
1.48314
1.45463
1.42592
1.39702
1.3679
1.33859
1.30907
1.27934
1.2494
1.21925
1.18889
1.15832
1.12753
1.09652
1.0653
1.03386
1.00219
0.970308
0.938199
0.905863
0.873302
0.84051
0.807488
0.774235
0.740748
0.707025
0.673066
0.638868
0.60443
0.569749
0.534826
0.499656
0.464241
0.428575
0.39266
0.356491
0.320068
0.283394
0.24645
0.209264
0.171801
0.134077
0.0961057
0.0578401
0.0193197
-23.0757
-24.0444
-29.5942
-32.4683
-29.6793
-24.7828
-19.6045
-14.3133
-9.84997
-6.61369
-3.97392
-1.81624
-0.181769
0.819385
1.42407
1.78058
2.0044
2.14118
2.22123
2.26534
2.28603
2.29153
2.28714
2.27625
2.26107
2.24302
2.22307
2.20183
2.1797
2.15693
2.13369
2.1101
2.08622
2.06209
2.03774
2.01319
1.98844
1.96351
1.93839
1.9131
1.88762
1.86196
1.83611
1.81009
1.78388
1.75749
1.73091
1.70414
1.67719
1.65005
1.62271
1.59519
1.56747
1.53956
1.51145
1.48314
1.45463
1.42592
1.39702
1.3679
1.33859
1.30907
1.27934
1.2494
1.21925
1.18889
1.15832
1.12753
1.09652
1.0653
1.03386
1.00219
0.970308
0.938199
0.905863
0.873302
0.84051
0.807488
0.774235
0.740748
0.707025
0.673066
0.638868
0.60443
0.569749
0.534826
0.499656
0.464241
0.428575
0.39266
0.356491
0.320068
0.283394
0.24645
0.209264
0.171801
0.134077
0.0961057
0.0578402
0.0193197
-23.4082
-24.0855
-28.8674
-31.2753
-28.6837
-24.1657
-19.2096
-14.1899
-9.94005
-6.69518
-4.1088
-2.09378
-0.467059
0.712521
1.43104
1.78292
1.98722
2.12489
2.20956
2.25738
2.28077
2.28811
2.28492
2.27482
2.26014
2.24243
2.2227
2.20159
2.17954
2.15683
2.13363
2.11006
2.08619
2.06207
2.03773
2.01318
1.98844
1.96351
1.93839
1.9131
1.88762
1.86196
1.83611
1.81009
1.78388
1.75749
1.73091
1.70414
1.67719
1.65005
1.62271
1.59519
1.56747
1.53956
1.51145
1.48314
1.45463
1.42592
1.39702
1.3679
1.33859
1.30907
1.27934
1.2494
1.21925
1.18889
1.15832
1.12753
1.09652
1.0653
1.03386
1.00219
0.970308
0.938199
0.905863
0.873301
0.84051
0.807488
0.774235
0.740748
0.707025
0.673066
0.638868
0.60443
0.569749
0.534826
0.499656
0.464241
0.428574
0.39266
0.356491
0.320068
0.283394
0.24645
0.209264
0.171801
0.134077
0.0961056
0.0578402
0.0193197
-23.6849
-24.0957
-28.2612
-30.2755
-27.704
-23.5738
-18.9174
-14.0111
-10.0043
-6.95592
-4.27527
-2.08416
-0.5217
0.557132
1.23367
1.67572
1.95023
2.1073
2.1988
2.25049
2.27624
2.28511
2.28296
2.27354
2.25931
2.2419
2.22235
2.20137
2.1794
2.15674
2.13358
2.11003
2.08617
2.06206
2.03772
2.01318
1.98844
1.96351
1.93839
1.91309
1.88762
1.86196
1.83611
1.81009
1.78388
1.75749
1.73091
1.70414
1.67719
1.65005
1.62271
1.59519
1.56747
1.53956
1.51145
1.48314
1.45463
1.42592
1.39702
1.3679
1.33859
1.30907
1.27934
1.2494
1.21925
1.18889
1.15832
1.12753
1.09652
1.0653
1.03386
1.00219
0.970308
0.938199
0.905863
0.873301
0.84051
0.807488
0.774235
0.740748
0.707025
0.673066
0.638868
0.60443
0.569749
0.534826
0.499656
0.464241
0.428574
0.39266
0.356491
0.320068
0.283394
0.24645
0.209264
0.171801
0.134077
0.0961056
0.0578402
0.0193197
-23.9332
-24.1321
-27.7205
-29.4164
-26.9818
-23.0617
-18.5824
-13.8699
-9.99484
-7.0982
-4.56786
-2.31485
-0.539968
0.704725
1.37494
1.72201
1.94332
2.09493
2.18966
2.24423
2.27211
2.28241
2.28121
2.27241
2.25858
2.24143
2.22205
2.20118
2.17928
2.15666
2.13353
2.11
2.08615
2.06205
2.03771
2.01317
1.98843
1.9635
1.93839
1.91309
1.88762
1.86196
1.83611
1.81009
1.78388
1.75749
1.73091
1.70414
1.67719
1.65005
1.62271
1.59519
1.56747
1.53956
1.51145
1.48314
1.45463
1.42592
1.39702
1.36791
1.33859
1.30907
1.27934
1.2494
1.21925
1.18889
1.15832
1.12753
1.09652
1.0653
1.03386
1.00219
0.970308
0.938199
0.905863
0.873301
0.84051
0.807488
0.774235
0.740748
0.707025
0.673066
0.638868
0.60443
0.569749
0.534826
0.499656
0.464241
0.428574
0.39266
0.356491
0.320068
0.283394
0.24645
0.209264
0.171801
0.134077
0.0961055
0.0578403
0.0193198
-24.1049
-24.1304
-27.3393
-28.7078
-26.3491
-22.6772
-18.3251
-13.697
-10.0911
-7.31704
-4.7071
-2.4007
-0.770302
0.351099
1.11664
1.60844
1.90834
2.08111
2.18146
2.239
2.26867
2.28015
2.27972
2.27144
2.25795
2.24102
2.22179
2.20102
2.17918
2.1566
2.13349
2.10997
2.08614
2.06204
2.03771
2.01317
1.98843
1.9635
1.93839
1.91309
1.88762
1.86195
1.83611
1.81009
1.78388
1.75749
1.73091
1.70414
1.67719
1.65005
1.62271
1.59519
1.56747
1.53956
1.51145
1.48314
1.45463
1.42592
1.39702
1.36791
1.33859
1.30907
1.27934
1.2494
1.21925
1.18889
1.15832
1.12753
1.09652
1.0653
1.03386
1.00219
0.970308
0.938199
0.905863
0.873301
0.84051
0.807488
0.774235
0.740748
0.707025
0.673066
0.638868
0.60443
0.569749
0.534826
0.499656
0.464241
0.428574
0.39266
0.356491
0.320068
0.283394
0.24645
0.209264
0.171801
0.134077
0.0961055
0.0578403
0.0193198
-24.3098
-24.1496
-26.862
-28.1122
-25.8415
-22.3186
-18.0697
-13.5518
-10.0813
-7.47142
-4.89435
-2.49115
-0.677243
0.553419
1.25957
1.66493
1.91077
2.07395
2.17533
2.23473
2.2658
2.27825
2.27848
2.27063
2.25743
2.24069
2.22158
2.20088
2.17909
2.15654
2.13345
2.10995
2.08612
2.06203
2.0377
2.01317
1.98843
1.9635
1.93839
1.91309
1.88761
1.86195
1.83611
1.81009
1.78388
1.75749
1.73091
1.70414
1.67719
1.65005
1.62271
1.59519
1.56747
1.53956
1.51145
1.48314
1.45463
1.42592
1.39702
1.36791
1.33859
1.30907
1.27934
1.2494
1.21925
1.18889
1.15832
1.12753
1.09652
1.0653
1.03386
1.00219
0.970308
0.938199
0.905863
0.873301
0.84051
0.807488
0.774235
0.740748
0.707025
0.673066
0.638868
0.60443
0.569749
0.534826
0.499656
0.464241
0.428574
0.39266
0.356491
0.320068
0.283394
0.24645
0.209264
0.171801
0.134077
0.0961054
0.0578404
0.0193198
-24.3756
-24.1715
-26.5985
-27.6117
-25.4414
-22.0889
-17.8106
-13.3583
-10.1673
-7.69427
-5.01098
-2.58403
-0.857388
0.320996
1.10007
1.5961
1.88871
2.06374
2.16994
2.23131
2.26355
2.27677
2.27751
2.27
2.25702
2.24043
2.22141
2.20077
2.17902
2.1565
2.13342
2.10993
2.08611
2.06202
2.0377
2.01316
1.98843
1.9635
1.93839
1.91309
1.88761
1.86195
1.83611
1.81009
1.78388
1.75749
1.73091
1.70414
1.67719
1.65005
1.62271
1.59519
1.56747
1.53956
1.51145
1.48314
1.45463
1.42592
1.39702
1.36791
1.33859
1.30907
1.27934
1.2494
1.21925
1.18889
1.15832
1.12753
1.09652
1.0653
1.03386
1.00219
0.970308
0.938199
0.905863
0.873301
0.84051
0.807488
0.774235
0.740748
0.707025
0.673066
0.638868
0.60443
0.569749
0.534826
0.499656
0.464241
0.428574
0.39266
0.356491
0.320068
0.283394
0.24645
0.209264
0.171802
0.134077
0.0961054
0.0578405
0.0193198
-24.5757
-24.1881
-26.2631
-27.2267
-25.1756
-21.9021
-17.5973
-13.1889
-10.1914
-7.87026
-5.28279
-2.75241
-0.829279
0.430352
1.17884
1.62041
1.89154
2.0607
2.16681
2.22897
2.26193
2.27569
2.27679
2.26953
2.25672
2.24023
2.22129
2.20069
2.17897
2.15647
2.1334
2.10992
2.0861
2.06202
2.0377
2.01316
1.98843
1.9635
1.93839
1.91309
1.88761
1.86195
1.83611
1.81009
1.78388
1.75749
1.73091
1.70414
1.67719
1.65005
1.62271
1.59519
1.56747
1.53956
1.51145
1.48314
1.45463
1.42592
1.39702
1.36791
1.33859
1.30907
1.27934
1.2494
1.21925
1.18889
1.15832
1.12753
1.09652
1.0653
1.03386
1.00219
0.970308
0.938199
0.905863
0.873301
0.84051
0.807488
0.774235
0.740748
0.707025
0.673066
0.638868
0.60443
0.569749
0.534826
0.499656
0.464241
0.428574
0.39266
0.356491
0.320068
0.283394
0.24645
0.209264
0.171802
0.134077
0.0961053
0.0578405
0.0193199
-24.6374
-24.2134
-26.0665
-26.8915
-24.9913
-21.837
-17.3264
-12.9726
-10.2613
-8.02647
-5.29213
-2.76316
-0.89692
0.322882
1.10533
1.58967
1.88036
2.05666
2.16464
2.22757
2.26101
2.27506
2.27638
2.26926
2.25654
2.24012
2.22121
2.20065
2.17894
2.15645
2.13339
2.10991
2.0861
2.06201
2.03769
2.01316
1.98843
1.9635
1.93839
1.91309
1.88761
1.86195
1.83611
1.81009
1.78388
1.75749
1.73091
1.70414
1.67719
1.65005
1.62271
1.59519
1.56747
1.53956
1.51145
1.48314
1.45463
1.42592
1.39702
1.36791
1.33859
1.30907
1.27934
1.2494
1.21925
1.18889
1.15832
1.12753
1.09652
1.0653
1.03386
1.00219
0.970308
0.938199
0.905863
0.873301
0.84051
0.807488
0.774235
0.740748
0.707025
0.673066
0.638868
0.60443
0.569749
0.534826
0.499656
0.464241
0.428574
0.39266
0.356491
0.320068
0.283394
0.24645
0.209264
0.171802
0.134077
0.0961053
0.0578406
0.0193199
-24.6709
-24.2382
-25.9239
-26.723
-24.9155
-21.752
-17.2112
-12.8535
-10.1791
-8.06854
-5.41807
-2.81807
-0.888706
0.37022
1.14084
1.60417
1.88409
2.0569
2.16409
2.22702
2.26058
2.27476
2.27617
2.26912
2.25645
2.24006
2.22118
2.20062
2.17893
2.15644
2.13339
2.10991
2.0861
2.06201
2.03769
2.01316
1.98842
1.9635
1.93839
1.91309
1.88761
1.86195
1.83611
1.81009
1.78388
1.75749
1.73091
1.70414
1.67719
1.65005
1.62271
1.59519
1.56747
1.53956
1.51145
1.48314
1.45463
1.42592
1.39702
1.36791
1.33859
1.30907
1.27934
1.2494
1.21925
1.18889
1.15832
1.12753
1.09652
1.0653
1.03386
1.00219
0.970308
0.938199
0.905863
0.873301
0.84051
0.807488
0.774235
0.740748
0.707025
0.673066
0.638868
0.60443
0.569749
0.534826
0.499656
0.464241
0.428574
0.39266
0.356491
0.320068
0.283394
0.246451
0.209264
0.171802
0.134077
0.0961052
0.0578407
0.0193199
-23.3444
-26.556
-35.3493
-46.5477
-47.063
-36.6724
-21.1665
-7.79564
1.27817
4.95671
5.97657
5.67018
4.98429
4.29964
3.74098
3.3255
3.02584
2.81198
2.65988
2.55105
2.47158
2.41171
2.36476
2.32624
2.29318
2.26359
2.2362
2.21019
2.185
2.16028
2.13581
2.11143
2.08705
2.06261
2.03807
2.01339
1.98857
1.96359
1.93844
1.91312
1.88763
1.86197
1.83612
1.81009
1.78388
1.75749
1.73091
1.70414
1.67719
1.65005
1.62271
1.59519
1.56747
1.53956
1.51145
1.48314
1.45463
1.42593
1.39702
1.36791
1.33859
1.30907
1.27934
1.2494
1.21925
1.18889
1.15832
1.12753
1.09652
1.0653
1.03386
1.00219
0.970308
0.938199
0.905864
0.873301
0.84051
0.807488
0.774235
0.740748
0.707025
0.673066
0.638868
0.60443
0.569749
0.534826
0.499656
0.464241
0.428574
0.39266
0.356491
0.320068
0.283394
0.24645
0.209264
0.171802
0.134077
0.0961051
0.0578409
0.0193198
-22.9725
-26.6703
-35.6179
-46.8966
-47.6163
-36.9749
-21.398
-7.94647
1.20101
4.88672
5.93419
5.64074
4.96366
4.28536
3.7312
3.31885
3.02139
2.80906
2.65811
2.54996
2.47091
2.4113
2.3645
2.32608
2.29308
2.26352
2.23616
2.21017
2.18498
2.16027
2.1358
2.11143
2.08705
2.06261
2.03807
2.01339
1.98857
1.96359
1.93844
1.91312
1.88763
1.86197
1.83612
1.81009
1.78388
1.75749
1.73091
1.70414
1.67719
1.65005
1.62271
1.59519
1.56747
1.53956
1.51145
1.48314
1.45463
1.42593
1.39702
1.36791
1.33859
1.30907
1.27934
1.2494
1.21925
1.18889
1.15832
1.12753
1.09652
1.0653
1.03386
1.00219
0.970308
0.938199
0.905864
0.873301
0.84051
0.807488
0.774235
0.740748
0.707025
0.673066
0.638868
0.60443
0.569749
0.534826
0.499656
0.464241
0.428574
0.39266
0.356491
0.320068
0.283394
0.24645
0.209264
0.171802
0.134077
0.0961051
0.0578408
0.0193198
-23.6858
-27.1953
-35.9957
-48.0349
-48.525
-37.6663
-21.8565
-8.22892
1.02981
4.76061
5.84946
5.58043
4.92145
4.25648
3.71179
3.30596
3.01299
2.80371
2.65475
2.54788
2.46963
2.41052
2.36403
2.32579
2.29288
2.2634
2.23609
2.21012
2.18495
2.16025
2.13579
2.11142
2.08705
2.06261
2.03806
2.01339
1.98857
1.96359
1.93844
1.91312
1.88763
1.86197
1.83612
1.81009
1.78388
1.75749
1.73091
1.70414
1.67719
1.65005
1.62271
1.59519
1.56747
1.53956
1.51145
1.48314
1.45463
1.42593
1.39702
1.36791
1.33859
1.30907
1.27934
1.2494
1.21925
1.18889
1.15832
1.12753
1.09652
1.0653
1.03386
1.00219
0.970308
0.938199
0.905864
0.873301
0.84051
0.807488
0.774235
0.740748
0.707025
0.673066
0.638868
0.60443
0.569749
0.534826
0.499656
0.464241
0.428574
0.39266
0.356491
0.320068
0.283394
0.24645
0.209264
0.171802
0.134077
0.0961052
0.0578408
0.0193198
-22.7805
-28.6278
-36.9885
-49.2043
-50.1062
-38.6818
-22.5885
-8.64252
0.750561
4.5826
5.72176
5.48891
4.85771
4.21351
3.68348
3.28743
3.00096
2.79598
2.64982
2.54475
2.46766
2.40927
2.36324
2.32529
2.29256
2.2632
2.23596
2.21004
2.1849
2.16022
2.13577
2.11141
2.08704
2.0626
2.03806
2.01339
1.98857
1.96359
1.93844
1.91312
1.88763
1.86197
1.83612
1.81009
1.78388
1.75749
1.73091
1.70414
1.67719
1.65005
1.62271
1.59519
1.56747
1.53956
1.51145
1.48314
1.45463
1.42593
1.39702
1.36791
1.33859
1.30907
1.27934
1.2494
1.21925
1.18889
1.15832
1.12753
1.09652
1.0653
1.03386
1.00219
0.970308
0.938199
0.905864
0.873301
0.84051
0.807488
0.774235
0.740748
0.707025
0.673066
0.638868
0.60443
0.569749
0.534826
0.499656
0.464241
0.428574
0.39266
0.356491
0.320068
0.283394
0.24645
0.209264
0.171802
0.134077
0.0961052
0.0578407
0.0193197
-23.3069
-28.3593
-37.9191
-50.9192
-52.1248
-40.1387
-23.4826
-9.23586
0.371228
4.34933
5.55093
5.36668
4.77272
4.15634
3.64592
3.26294
2.98508
2.78575
2.64327
2.54059
2.46501
2.40759
2.36217
2.32461
2.29213
2.26293
2.23579
2.20993
2.18483
2.16018
2.13574
2.11139
2.08703
2.0626
2.03806
2.01338
1.98856
1.96358
1.93844
1.91312
1.88763
1.86197
1.83612
1.81009
1.78388
1.75749
1.73091
1.70414
1.67719
1.65005
1.62271
1.59519
1.56747
1.53956
1.51145
1.48314
1.45463
1.42593
1.39702
1.36791
1.33859
1.30907
1.27934
1.2494
1.21925
1.18889
1.15832
1.12753
1.09652
1.0653
1.03386
1.00219
0.970308
0.938199
0.905864
0.873301
0.84051
0.807488
0.774235
0.740748
0.707025
0.673066
0.638868
0.60443
0.569749
0.534826
0.499656
0.464241
0.428574
0.39266
0.356491
0.320068
0.283394
0.24645
0.209264
0.171801
0.134077
0.0961053
0.0578406
0.0193197
-23.6226
-29.0571
-38.957
-53.4456
-53.6537
-41.7305
-24.5686
-9.95627
-0.105439
4.05527
5.33661
5.21408
4.6671
4.08562
3.59966
3.23286
2.96562
2.77322
2.63522
2.53544
2.46172
2.40549
2.36083
2.32376
2.29159
2.26258
2.23557
2.20979
2.18475
2.16012
2.13571
2.11137
2.08701
2.06259
2.03805
2.01338
1.98856
1.96358
1.93844
1.91312
1.88763
1.86197
1.83612
1.81009
1.78388
1.75749
1.73091
1.70414
1.67719
1.65005
1.62271
1.59519
1.56747
1.53956
1.51145
1.48314
1.45463
1.42593
1.39702
1.36791
1.33859
1.30907
1.27934
1.2494
1.21925
1.18889
1.15832
1.12753
1.09652
1.0653
1.03386
1.00219
0.970308
0.938199
0.905864
0.873301
0.84051
0.807488
0.774235
0.740748
0.707025
0.673066
0.638868
0.60443
0.569749
0.534826
0.499656
0.464241
0.428574
0.39266
0.356491
0.320068
0.283394
0.24645
0.209264
0.171801
0.134077
0.0961053
0.0578406
0.0193197
-23.9595
-29.4273
-40.3934
-55.8202
-56.6931
-43.3009
-25.6079
-10.7682
-0.664235
3.70292
5.07884
5.03159
4.54137
4.00165
3.54485
3.19731
2.94264
2.7584
2.6257
2.52933
2.45781
2.40299
2.35924
2.32274
2.29094
2.26217
2.2353
2.20962
2.18464
2.16005
2.13566
2.11134
2.087
2.06258
2.03804
2.01338
1.98856
1.96358
1.93844
1.91312
1.88763
1.86197
1.83612
1.81009
1.78388
1.75749
1.73091
1.70414
1.67719
1.65005
1.62271
1.59519
1.56747
1.53956
1.51145
1.48314
1.45463
1.42593
1.39702
1.36791
1.33859
1.30907
1.27934
1.2494
1.21925
1.18889
1.15832
1.12753
1.09652
1.0653
1.03386
1.00219
0.970308
0.938199
0.905864
0.873301
0.84051
0.807488
0.774235
0.740748
0.707025
0.673066
0.638868
0.60443
0.569749
0.534826
0.499656
0.464241
0.428574
0.39266
0.356491
0.320068
0.283394
0.24645
0.209264
0.171801
0.134077
0.0961053
0.0578406
0.0193196
-24.2927
-29.8407
-42.0446
-58.6008
-58.6855
-44.8845
-26.5845
-11.5417
-1.27326
3.29387
4.7779
4.82002
4.3966
3.90531
3.48206
3.15662
2.91634
2.74144
2.61478
2.5223
2.45331
2.4001
2.35739
2.32155
2.29019
2.26169
2.235
2.20943
2.18452
2.15998
2.13562
2.11131
2.08698
2.06256
2.03804
2.01337
1.98856
1.96358
1.93844
1.91312
1.88763
1.86197
1.83612
1.81009
1.78388
1.75749
1.73091
1.70414
1.67719
1.65005
1.62271
1.59519
1.56747
1.53956
1.51145
1.48314
1.45463
1.42593
1.39702
1.36791
1.33859
1.30907
1.27934
1.2494
1.21925
1.18889
1.15832
1.12753
1.09652
1.0653
1.03386
1.00219
0.970308
0.938199
0.905864
0.873301
0.84051
0.807488
0.774235
0.740748
0.707025
0.673066
0.638868
0.60443
0.569749
0.534826
0.499656
0.464241
0.428574
0.39266
0.356491
0.320068
0.283394
0.24645
0.209264
0.171801
0.134077
0.0961054
0.0578405
0.0193196
-24.228
-30.2607
-43.5552
-61.2884
-61.1131
-46.0469
-27.3863
-12.2325
-1.90572
2.8383
4.4357
4.58004
4.23369
3.79733
3.41175
3.11106
2.88689
2.72244
2.60253
2.51442
2.44823
2.39685
2.3553
2.32022
2.28933
2.26114
2.23465
2.2092
2.18438
2.15989
2.13556
2.11128
2.08696
2.06255
2.03803
2.01337
1.98855
1.96358
1.93844
1.91312
1.88763
1.86197
1.83612
1.81009
1.78388
1.75749
1.73091
1.70414
1.67719
1.65005
1.62271
1.59519
1.56747
1.53956
1.51145
1.48314
1.45463
1.42593
1.39702
1.36791
1.33859
1.30907
1.27934
1.2494
1.21925
1.18889
1.15832
1.12753
1.09652
1.0653
1.03386
1.00219
0.970308
0.938199
0.905864
0.873301
0.84051
0.807488
0.774235
0.740748
0.707025
0.673066
0.638868
0.60443
0.569749
0.534826
0.499656
0.464241
0.428574
0.39266
0.356491
0.320068
0.283394
0.24645
0.209264
0.171801
0.134077
0.0961054
0.0578405
0.0193196
-24.2263
-30.678
-45.146
-63.5729
-62.8118
-46.6566
-27.9063
-12.8033
-2.53295
2.34205
4.05562
4.31317
4.0539
3.67876
3.33463
3.06107
2.85455
2.70155
2.58904
2.50572
2.44263
2.39325
2.35299
2.31874
2.28839
2.26054
2.23427
2.20896
2.18422
2.15979
2.1355
2.11124
2.08693
2.06254
2.03802
2.01336
1.98855
1.96358
1.93843
1.91312
1.88763
1.86197
1.83612
1.81009
1.78388
1.75749
1.73091
1.70414
1.67719
1.65005
1.62271
1.59519
1.56747
1.53956
1.51145
1.48314
1.45463
1.42593
1.39702
1.36791
1.33859
1.30907
1.27934
1.2494
1.21925
1.18889
1.15832
1.12753
1.09652
1.0653
1.03386
1.00219
0.970308
0.938199
0.905864
0.873301
0.84051
0.807488
0.774235
0.740748
0.707025
0.673066
0.638868
0.60443
0.569749
0.534826
0.499656
0.464241
0.428574
0.392661
0.356491
0.320068
0.283394
0.24645
0.209264
0.171801
0.134077
0.0961054
0.0578405
0.0193195
-23.9499
-30.6964
-46.6354
-65.5435
-63.935
-46.9136
-28.1289
-13.2545
-3.132
1.80949
3.63956
4.02122
3.85846
3.55055
3.25137
3.00707
2.81956
2.67891
2.5744
2.49627
2.43654
2.38933
2.35047
2.31712
2.28735
2.25988
2.23384
2.20869
2.18405
2.15968
2.13543
2.11119
2.0869
2.06252
2.03801
2.01335
1.98855
1.96357
1.93843
1.91312
1.88763
1.86196
1.83612
1.81009
1.78388
1.75749
1.73091
1.70414
1.67719
1.65005
1.62271
1.59519
1.56747
1.53956
1.51145
1.48314
1.45463
1.42593
1.39702
1.36791
1.33859
1.30907
1.27934
1.2494
1.21925
1.18889
1.15832
1.12753
1.09652
1.0653
1.03386
1.00219
0.970308
0.938199
0.905864
0.873301
0.84051
0.807488