/*--------------------------------*- C++ -*----------------------------------*\
| =========                 |                                                 |
| \\      /  F ield         | OpenFOAM: The Open Source CFD Toolbox           |
|  \\    /   O peration     | Version:  2.4.0                                 |
|   \\  /    A nd           | Web:      www.OpenFOAM.org                      |
|    \\/     M anipulation  |                                                 |
\*---------------------------------------------------------------------------*/
FoamFile
{
    version     2.0;
    format      ascii;
    class       volVectorField;
    location    "1.82";
    object      U;
}
// * * * * * * * * * * * * * * * * * * * * * * * * * * * * * * * * * * * * * //

dimensions      [0 1 -1 0 0 0 0];

internalField   nonuniform List<vector> 
4400
(
(8.67846 -0.0224596 0)
(11.9746 0.101818 0)
(7.18193 -0.0355079 0)
(12.0511 0.0412094 0)
(7.10062 0.0452982 0)
(11.5789 -0.0775216 0)
(7.25013 0.0699685 0)
(11.0702 0.0182332 0)
(7.09221 -0.0151413 0)
(10.5373 0.0770584 0)
(8.01218 0.0205305 0)
(9.01138 -0.140293 0)
(9.6931 0.145995 0)
(8.02474 -0.1161 0)
(8.91166 0.0544295 0)
(9.59879 0.158136 0)
(4.90985 -0.145656 0)
(12.3389 0.0643753 0)
(2.26903 -0.0796863 0)
(12.8349 -0.183209 0)
(7.54112 -0.0938432 0)
(12.8182 0.128688 0)
(7.4087 0.0756626 0)
(12.5184 -0.066202 0)
(8.27312 0.0857139 0)
(11.872 0.0300949 0)
(7.90877 0.0217746 0)
(11.8515 0.0490826 0)
(8.21845 0.0930267 0)
(10.4464 -0.238996 0)
(10.2048 0.279821 0)
(9.7116 -0.178988 0)
(9.198 0.027023 0)
(11.4305 0.275881 0)
(7.79948 -0.295285 0)
(11.1335 0.465108 0)
(8.17129 -0.261799 0)
(12.6918 0.225225 0)
(6.05292 0.212703 0)
(12.9619 -0.403203 0)
(7.60953 -0.0727658 0)
(12.2618 0.078712 0)
(8.20041 0.100637 0)
(12.306 -0.170529 0)
(8.98429 0.220815 0)
(11.6322 -0.0229526 0)
(8.56719 0.041556 0)
(11.493 0.00607457 0)
(9.51254 0.227852 0)
(9.32513 -0.3114 0)
(10.8798 0.17741 0)
(9.69285 0.0622626 0)
(8.11294 -0.213815 0)
(12.7874 0.176827 0)
(7.08765 0.1613 0)
(11.3906 0.0277176 0)
(9.6396 -0.204178 0)
(10.5658 0.343793 0)
(8.61501 0.134899 0)
(11.6386 -0.451591 0)
(8.65023 -0.0257579 0)
(11.2833 -0.0446574 0)
(8.48693 0.103903 0)
(11.525 -0.264401 0)
(9.66845 0.239682 0)
(11.3649 0.0881734 0)
(9.2902 0.0474764 0)
(10.9208 -0.10309 0)
(10.118 0.468076 0)
(9.09931 -0.488786 0)
(10.7906 0.16243 0)
(10.4757 0.404201 0)
(7.98745 -0.655654 0)
(12.9093 0.413893 0)
(7.62471 0.113825 0)
(11.5552 -0.261831 0)
(10.2388 0.0603466 0)
(9.6749 0.215509 0)
(9.85029 0.166964 0)
(11.043 -0.301289 0)
(9.66407 -0.0346238 0)
(10.487 0.0357779 0)
(8.90697 0.119569 0)
(10.6127 -0.455739 0)
(10.1886 0.28365 0)
(10.5188 0.0510078 0)
(9.86969 0.0943229 0)
(10.6191 -0.114199 0)
(10.2198 0.548068 0)
(9.38671 -0.433436 0)
(10.5387 -0.0917127 0)
(10.8814 0.61942 0)
(8.72033 -0.74899 0)
(12.1945 0.270615 0)
(9.33342 0.480457 0)
(11.0115 -0.618727 0)
(10.4997 0.293346 0)
(9.92457 0.201371 0)
(10.301 0.0972881 0)
(10.761 -0.312171 0)
(10.0411 -0.0273804 0)
(10.3624 0.047959 0)
(9.24132 0.118504 0)
(10.1443 -0.54215 0)
(10.2247 0.29842 0)
(9.84806 0.11827 0)
(10.1705 0.0270958 0)
(10.5001 -0.129957 0)
(10.0212 0.664218 0)
(9.94725 -0.481157 0)
(10.4131 -0.18212 0)
(10.5576 0.809591 0)
(9.47776 -0.934908 0)
(11.1914 0.289769 0)
(10.6916 0.484106 0)
(10.2132 -0.691402 0)
(10.5972 0.462175 0)
(10.4643 0.121612 0)
(10.4345 0.136952 0)
(10.5094 -0.23119 0)
(10.0592 -0.0887649 0)
(10.4905 0.124896 0)
(9.39118 0.211203 0)
(9.99951 -0.679174 0)
(10.1254 0.365573 0)
(9.58761 0.0599553 0)
(10.2924 -0.0692822 0)
(10.3667 -0.0375694 0)
(9.82202 0.64081 0)
(10.2704 -0.486098 0)
(10.2329 -0.230343 0)
(10.1932 0.835756 0)
(10.0066 -0.883736 0)
(10.3257 0.0508432 0)
(11.2349 0.672953 0)
(9.77107 -0.67947 0)
(10.0519 0.412619 0)
(11.2474 0.0997779 0)
(10.0756 0.234269 0)
(10.5265 -0.230773 0)
(9.92268 -0.109199 0)
(10.4069 0.127786 0)
(9.7745 0.249374 0)
(9.979 -0.702454 0)
(9.93641 0.406703 0)
(9.75995 0.0568562 0)
(10.217 -0.136932 0)
(10.0516 0.00843314 0)
(9.97475 0.606464 0)
(10.4524 -0.482392 0)
(9.97076 -0.207582 0)
(10.0623 0.849033 0)
(10.315 -0.890401 0)
(9.72679 -0.0116778 0)
(10.864 0.682488 0)
(10.0307 -0.590331 0)
(9.59021 0.320568 0)
(11.6429 0.0280949 0)
(9.6159 0.332407 0)
(10.7692 -0.200571 0)
(9.88093 -0.12755 0)
(10.1749 0.097542 0)
(10.0294 0.334773 0)
(10.0581 -0.712072 0)
(9.69302 0.430417 0)
(10.1739 0.00669486 0)
(10.036 -0.156175 0)
(9.92611 0.0568148 0)
(10.1433 0.523475 0)
(10.465 -0.45442 0)
(9.71859 -0.175214 0)
(10.2333 0.798415 0)
(10.3343 -0.826473 0)
(9.64441 -0.0529862 0)
(10.2032 0.660033 0)
(10.64 -0.498598 0)
(9.08747 0.178519 0)
(11.8072 0.0268218 0)
(9.06102 0.415869 0)
(11.2426 -0.17671 0)
(9.93066 -0.0938612 0)
(9.9161 0.0530688 0)
(10.1979 0.303557 0)
(10.1079 -0.638578 0)
(9.59439 0.401391 0)
(10.4176 -0.0169923 0)
(9.86805 -0.101573 0)
(9.88545 0.0413111 0)
(10.2109 0.438144 0)
(10.5014 -0.353245 0)
(9.54855 -0.194376 0)
(10.5013 0.723365 0)
(10.2384 -0.76342 0)
(9.79622 -0.00268059 0)
(9.73508 0.556706 0)
(11.0324 -0.429197 0)
(8.79093 0.128372 0)
(11.6928 0.0321096 0)
(8.7506 0.39903 0)
(11.4609 -0.160127 0)
(9.91463 -0.072042 0)
(9.91212 -0.00338262 0)
(10.1826 0.310513 0)
(10.139 -0.584073 0)
(9.59788 0.362799 0)
(10.4092 -0.0384025 0)
(9.882 -0.0729467 0)
(9.87497 0.0213436 0)
(10.2903 0.356291 0)
(10.4617 -0.290119 0)
(9.50676 -0.201415 0)
(10.5974 0.66882 0)
(10.0917 -0.712322 0)
(10.0131 0.0451745 0)
(9.45853 0.436727 0)
(11.203 -0.360869 0)
(8.76179 0.0764409 0)
(11.27 0.0604714 0)
(8.96955 0.392153 0)
(11.1994 -0.124013 0)
(9.90264 -0.0370536 0)
(9.91752 -0.047773 0)
(10.1464 0.274358 0)
(10.1514 -0.505343 0)
(9.68994 0.322927 0)
(10.33 -0.0676407 0)
(9.94864 -0.0199043 0)
(9.7768 -0.00296113 0)
(10.3185 0.274402 0)
(10.3453 -0.170258 0)
(9.50809 -0.244644 0)
(10.6922 0.605222 0)
(10.0722 -0.668186 0)
(10.0723 0.103257 0)
(9.77162 0.327762 0)
(10.8895 -0.326736 0)
(9.28622 0.0982995 0)
(10.6173 0.0504861 0)
(9.66909 0.303332 0)
(10.6768 -0.0810955 0)
(9.93717 -0.0161484 0)
(9.92915 -0.0860889 0)
(10.1697 0.25925 0)
(10.0469 -0.456687 0)
(9.81459 0.294859 0)
(10.0554 -0.0684346 0)
(10.0848 0.0123148 0)
(9.64255 -0.0156079 0)
(10.3551 0.209369 0)
(10.2788 -0.103927 0)
(9.6056 -0.28342 0)
(10.4852 0.561895 0)
(10.4889 -0.582664 0)
(9.52386 0.11053 0)
(10.6068 0.289995 0)
(10.3277 -0.266369 0)
(10.0218 0.0993225 0)
(9.86282 0.0683388 0)
(10.9395 0.287978 0)
(9.60329 -0.0644913 0)
(10.0322 0.00909043 0)
(9.8699 -0.129599 0)
(10.2127 0.247311 0)
(9.83271 -0.390809 0)
(10.0631 0.276252 0)
(9.74926 -0.093236 0)
(10.3335 0.0342981 0)
(9.52666 -0.0288759 0)
(10.3967 0.126327 0)
(10.0624 -0.0104294 0)
(9.99323 -0.279673 0)
(9.90708 0.438085 0)
(10.9395 -0.449572 0)
(9.07182 0.0891137 0)
(11.0505 0.17993 0)
(9.57257 -0.193701 0)
(10.8642 0.148707 0)
(8.97075 -0.027788 0)
(11.7242 0.257049 0)
(9.09506 0.0268971 0)
(10.1368 0.0188435 0)
(9.73362 -0.141918 0)
(10.4248 0.239353 0)
(9.60689 -0.373757 0)
(10.3143 0.261347 0)
(9.58404 -0.0959208 0)
(10.4312 0.0294338 0)
(9.43592 -1.73707e-05 0)
(10.6332 0.0803088 0)
(9.71979 -0.0237648 0)
(10.4377 -0.234608 0)
(9.703 0.352768 0)
(10.7718 -0.407663 0)
(9.08934 0.0668482 0)
(11.0561 0.180495 0)
(9.1297 -0.215291 0)
(11.107 0.128042 0)
(9.00817 0.000424959 0)
(11.5278 0.155428 0)
(9.30607 0.0742122 0)
(10.2632 0.0501327 0)
(9.68368 -0.21513 0)
(10.4128 0.253516 0)
(9.6268 -0.310262 0)
(10.2864 0.230742 0)
(9.72388 -0.078593 0)
(10.4727 0.0436352 0)
(9.57643 -0.055089 0)
(10.6701 0.0747445 0)
(9.96722 0.00560126 0)
(10.2378 -0.236825 0)
(10.0109 0.320369 0)
(10.473 -0.298451 0)
(9.47489 0.000610498 0)
(10.4947 0.172829 0)
(9.96667 -0.146944 0)
(10.332 0.0802715 0)
(9.88414 0.00766097 0)
(10.9031 0.117955 0)
(9.89783 0.114594 0)
(10.1288 0.0394237 0)
(9.90862 -0.177152 0)
(10.0501 0.206992 0)
(10.1494 -0.26917 0)
(9.91254 0.18421 0)
(10.2979 -0.100669 0)
(10.0696 0.0403479 0)
(10.3568 -0.0286523 0)
(9.94106 0.00748819 0)
(10.9015 0.0303162 0)
(9.54925 -0.196333 0)
(10.7704 0.253563 0)
(9.80038 -0.257125 0)
(10.5415 0.0472735 0)
(9.29473 0.08859 0)
(11.3333 -0.13238 0)
(9.08189 0.059913 0)
(10.8658 0.00631596 0)
(10.1417 0.0445985 0)
(10.4222 0.110832 0)
(9.61766 0.0555954 0)
(10.6117 -0.209726 0)
(9.25912 0.184869 0)
(10.9546 -0.211993 0)
(8.9969 0.150991 0)
(11.2677 -0.0794058 0)
(8.96187 0.0173803 0)
(11.4437 -0.0360525 0)
(8.84257 -0.0015938 0)
(11.8132 0.0261237 0)
(8.49108 -0.14875 0)
(11.7357 0.217394 0)
(8.88086 -0.22614 0)
(11.401 0.0858433 0)
(8.63016 0.00650949 0)
(12.0097 -0.0401147 0)
(8.31151 0.0435401 0)
(11.5059 -0.0790751 0)
(9.5459 0.121065 0)
(10.7991 0.0510921 0)
(9.38625 -0.00101726 0)
(10.8865 -0.104729 0)
(8.71438 0.0843089 0)
(11.4333 -0.123571 0)
(8.22889 0.049346 0)
(11.8341 -0.0541053 0)
(8.08749 -0.00538489 0)
(11.9285 -0.0148345 0)
(7.98708 -0.0331025 0)
(12.1733 0.040755 0)
(7.7667 -0.107629 0)
(12.0748 0.104049 0)
(8.52401 -0.134146 0)
(11.2694 0.0718649 0)
(9.08646 -0.0559365 0)
(11.297 -0.00380557 0)
(8.9679 0.0712592 0)
(11.1513 -0.125328 0)
(9.46515 0.102013 0)
(10.99 0.0348827 0)
(9.8085 0.00984513 0)
(10.2443 -0.0720043 0)
(8.94808 0.0245473 0)
(10.4986 -0.0396942 0)
(8.54639 0.0086524 0)
(10.4633 -0.0261471 0)
(8.30145 -0.00411798 0)
(10.4066 -0.0358179 0)
(7.93973 0.00321917 0)
(10.5015 -0.00795889 0)
(7.73775 -0.0344671 0)
(10.1752 0.00559387 0)
(7.92589 -0.0207239 0)
(9.61241 -0.0371941 0)
(8.01163 -0.0163445 0)
(9.12103 0.0515265 0)
(8.64977 -0.0592279 0)
(8.62115 -0.039006 0)
(8.37217 0.0814944 0)
(9.16915 -0.0344966 0)
(4.13271 0.541754 0)
(9.36772 -0.425976 0)
(3.49117 1.665 0)
(4.72088 1.04632 0)
(8.9825 0.300991 0)
(6.78622 0.842332 0)
(11.3283 -2.10293 0)
(8.85287 -2.65013 0)
(9.9029 -2.91614 0)
(12.3349 -4.11176 0)
(10.2367 -4.18165 0)
(10.0796 -3.53294 0)
(10.7924 -2.93705 0)
(11.1985 -1.46208 0)
(10.3851 -0.0803963 0)
(8.62145 0.283595 0)
(7.20486 0.17058 0)
(6.3755 0.0986282 0)
(5.97867 0.0760551 0)
(5.90937 0.0741397 0)
(5.84412 0.0365945 0)
(5.64031 -0.0356973 0)
(5.4456 -0.0766085 0)
(5.36505 -0.0635053 0)
(5.33744 -0.0184646 0)
(5.29999 0.0345796 0)
(5.26987 0.082842 0)
(5.28299 0.106177 0)
(5.33189 0.0921211 0)
(5.3734 0.047624 0)
(5.37662 -0.0087797 0)
(5.34554 -0.0600442 0)
(5.3007 -0.0954518 0)
(5.25722 -0.111403 0)
(5.22111 -0.109801 0)
(5.19343 -0.0959298 0)
(5.17335 -0.0761986 0)
(5.15945 -0.0560418 0)
(5.15024 -0.0387616 0)
(5.14438 -0.0255522 0)
(5.14081 -0.0162338 0)
(5.13872 -0.0100295 0)
(5.13755 -0.00606759 0)
(5.13691 -0.00361331 0)
(5.13658 -0.00212626 0)
(5.13641 -0.00123947 0)
(5.13632 -0.000717251 0)
(5.13628 -0.000412419 0)
(5.13626 -0.000235793 0)
(5.13625 -0.000134285 0)
(5.13624 -7.59972e-05 0)
(5.13624 -4.29114e-05 0)
(5.13624 -2.41572e-05 0)
(5.13624 -1.34184e-05 0)
(5.13624 -7.55654e-06 0)
(5.13624 -4.18564e-06 0)
(5.13624 -2.24489e-06 0)
(5.13624 -1.33176e-06 0)
(5.13624 -6.83435e-07 0)
(5.13624 -3.43641e-07 0)
(5.13624 -2.74582e-07 0)
(5.13624 -8.25592e-08 0)
(5.13624 -5.05242e-08 0)
(5.13624 -1.03901e-07 0)
(5.13624 2.35939e-08 0)
(5.13624 -5.27766e-10 0)
(5.13624 -6.21373e-08 0)
(5.13624 4.55284e-08 0)
(5.13624 1.6112e-08 0)
(5.13624 -7.7182e-08 0)
(5.13624 4.04967e-08 0)
(5.13624 4.33678e-08 0)
(5.13624 -7.41381e-08 0)
(5.13624 6.48616e-09 0)
(5.13624 6.32926e-08 0)
(5.13624 -2.78282e-08 0)
(5.13623 -4.72707e-08 0)
(5.13625 6.63629e-08 0)
(5.13623 1.83212e-08 0)
(5.13625 -4.76264e-08 0)
(5.13623 1.95716e-09 0)
(5.13625 4.94186e-08 0)
(5.13623 2.3061e-09 0)
(5.13624 -4.72024e-08 0)
(5.13624 1.85302e-08 0)
(5.13624 2.96501e-08 0)
(5.13625 -3.39817e-09 0)
(5.13623 -1.74721e-08 0)
(5.13625 -5.78643e-08 0)
(5.13624 1.10467e-07 0)
(5.13624 -2.78949e-08 0)
(5.13624 -5.22347e-08 0)
(5.13624 1.35974e-08 0)
(5.13624 3.48188e-08 0)
(5.13624 5.08282e-09 0)
(5.13624 1.23234e-08 0)
(5.13624 -1.24685e-07 0)
(5.13624 4.30409e-08 0)
(5.13624 1.57467e-08 0)
(5.13624 -1.47122e-08 0)
(6.31841 0.862918 0)
(11.6182 0.0198061 0)
(5.69243 2.17564 0)
(6.65634 1.08493 0)
(9.23743 0.059415 0)
(6.37674 0.606746 0)
(11.8796 -2.42268 0)
(9.45273 -2.73053 0)
(10.9696 -3.06079 0)
(12.5346 -3.77933 0)
(9.98771 -3.88779 0)
(10.1495 -3.50901 0)
(11.0561 -2.95476 0)
(11.6115 -1.42278 0)
(10.784 0.180842 0)
(8.80515 0.622268 0)
(7.3347 0.415642 0)
(6.38241 0.260864 0)
(5.75895 0.156477 0)
(5.61547 0.0906568 0)
(5.68154 0.0531132 0)
(5.626 0.0105955 0)
(5.4658 -0.0353205 0)
(5.36041 -0.0515759 0)
(5.32632 -0.0243019 0)
(5.3046 0.0324795 0)
(5.29532 0.0883715 0)
(5.3186 0.114002 0)
(5.3537 0.0952234 0)
(5.3642 0.0430204 0)
(5.34304 -0.0187908 0)
(5.30718 -0.0699764 0)
(5.27157 -0.102351 0)
(5.2413 -0.114902 0)
(5.21614 -0.110862 0)
(5.19507 -0.0956808 0)
(5.17767 -0.0754481 0)
(5.16396 -0.0552372 0)
(5.15385 -0.0380948 0)
(5.1469 -0.0250683 0)
(5.14243 -0.0159116 0)
(5.13971 -0.00982814 0)
(5.13813 -0.00594789 0)
(5.13725 -0.00354499 0)
(5.13677 -0.00208851 0)
(5.13652 -0.00121924 0)
(5.13638 -0.000706579 0)
(5.13632 -0.000406887 0)
(5.13628 -0.000232933 0)
(5.13626 -0.000132733 0)
(5.13625 -7.52685e-05 0)
(5.13625 -4.25239e-05 0)
(5.13624 -2.39088e-05 0)
(5.13624 -1.33361e-05 0)
(5.13624 -7.46913e-06 0)
(5.13624 -4.12851e-06 0)
(5.13624 -2.24216e-06 0)
(5.13624 -1.26809e-06 0)
(5.13624 -6.92695e-07 0)
(5.13624 -3.99152e-07 0)
(5.13624 -2.42078e-07 0)
(5.13624 -7.91051e-08 0)
(5.13624 -4.62146e-08 0)
(5.13624 -6.98875e-08 0)
(5.13624 -2.01215e-08 0)
(5.13624 -9.00719e-09 0)
(5.13624 -9.82075e-09 0)
(5.13624 1.20821e-08 0)
(5.13624 -1.6686e-08 0)
(5.13624 -4.57444e-08 0)
(5.13624 1.62834e-08 0)
(5.13624 3.76199e-08 0)
(5.13624 -2.30984e-08 0)
(5.13624 -1.57266e-08 0)
(5.13624 -2.70555e-09 0)
(5.13624 3.3747e-09 0)
(5.13623 1.84929e-09 0)
(5.13625 5.39611e-08 0)
(5.13623 2.71996e-09 0)
(5.13625 -2.27863e-08 0)
(5.13623 5.88959e-09 0)
(5.13625 -1.62692e-09 0)
(5.13623 4.65409e-08 0)
(5.13624 -4.30903e-08 0)
(5.13624 4.90432e-08 0)
(5.13624 -3.23878e-08 0)
(5.13625 -4.672e-08 0)
(5.13623 5.72588e-08 0)
(5.13625 -1.12368e-07 0)
(5.13624 1.60332e-07 0)
(5.13624 -5.19776e-08 0)
(5.13624 -8.35314e-08 0)
(5.13624 1.36108e-07 0)
(5.13624 -9.56779e-08 0)
(5.13624 4.53e-08 0)
(5.13624 8.19692e-08 0)
(5.13624 -1.89204e-07 0)
(5.13624 3.57641e-08 0)
(5.13624 2.39988e-08 0)
(5.13624 -3.2832e-08 0)
(7.37469 1.19221 0)
(11.666 -0.155285 0)
(6.52639 2.50721 0)
(8.94546 0.838809 0)
(11.0933 0.0268677 0)
(8.62586 0.531418 0)
(13.2886 -2.3574 0)
(10.3685 -2.65383 0)
(11.3895 -3.34238 0)
(11.894 -3.77773 0)
(9.41614 -3.93799 0)
(10.5121 -3.80132 0)
(11.8241 -3.03461 0)
(11.8403 -1.33194 0)
(11.0342 0.382622 0)
(9.11413 0.840111 0)
(7.33782 0.600403 0)
(6.32024 0.382699 0)
(5.75242 0.200978 0)
(5.5886 0.0797197 0)
(5.70692 0.0304145 0)
(5.74209 -0.0001126 0)
(5.57205 -0.0320979 0)
(5.38689 -0.0375593 0)
(5.3217 -0.00522526 0)
(5.33371 0.0439379 0)
(5.35625 0.0812655 0)
(5.37052 0.0931752 0)
(5.37247 0.0797772 0)
(5.35995 0.0473826 0)
(5.33591 0.00460461 0)
(5.306 -0.0410003 0)
(5.27541 -0.0766858 0)
(5.24723 -0.0957224 0)
(5.22251 -0.097578 0)
(5.20123 -0.0866745 0)
(5.18321 -0.0693696 0)
(5.16852 -0.0511937 0)
(5.15728 -0.0354901 0)
(5.14927 -0.0234616 0)
(5.14397 -0.0149651 0)
(5.14066 -0.00929403 0)
(5.1387 -0.00565756 0)
(5.13758 -0.0033918 0)
(5.13696 -0.00200939 0)
(5.13663 -0.00117899 0)
(5.13645 -0.000686232 0)
(5.13635 -0.000396595 0)
(5.1363 -0.000227639 0)
(5.13627 -0.000129954 0)
(5.13626 -7.38865e-05 0)
(5.13625 -4.17924e-05 0)
(5.13625 -2.34674e-05 0)
(5.13624 -1.31188e-05 0)
(5.13624 -7.34336e-06 0)
(5.13624 -4.0489e-06 0)
(5.13624 -2.19031e-06 0)
(5.13624 -1.2005e-06 0)
(5.13624 -7.15109e-07 0)
(5.13624 -4.6619e-07 0)
(5.13624 -2.28094e-07 0)
(5.13624 -4.1422e-08 0)
(5.13624 -1.87738e-08 0)
(5.13624 -6.95719e-08 0)
(5.13624 -7.19721e-08 0)
(5.13624 -1.43737e-08 0)
(5.13624 3.34478e-08 0)
(5.13624 -1.08055e-08 0)
(5.13624 -7.03706e-08 0)
(5.13624 -4.99501e-08 0)
(5.13624 1.72959e-08 0)
(5.13624 6.58073e-08 0)
(5.13624 4.98917e-09 0)
(5.13624 -6.10834e-08 0)
(5.13624 -7.12559e-08 0)
(5.13624 3.43162e-08 0)
(5.13623 6.6313e-08 0)
(5.13625 7.96035e-08 0)
(5.13623 -6.35268e-09 0)
(5.13625 -2.71658e-08 0)
(5.13623 -4.81318e-09 0)
(5.13625 -2.97948e-08 0)
(5.13623 1.12863e-07 0)
(5.13624 -3.99534e-08 0)
(5.13624 7.97088e-08 0)
(5.13624 -1.17432e-07 0)
(5.13625 -1.02579e-07 0)
(5.13623 1.18718e-07 0)
(5.13625 -1.59729e-07 0)
(5.13624 2.49571e-07 0)
(5.13624 -8.34157e-08 0)
(5.13624 -1.33832e-07 0)
(5.13624 2.55437e-07 0)
(5.13624 -2.32077e-07 0)
(5.13624 1.1644e-07 0)
(5.13624 1.50177e-07 0)
(5.13624 -2.62845e-07 0)
(5.13624 2.76729e-08 0)
(5.13624 3.04868e-08 0)
(5.13624 -5.48329e-08 0)
(8.19664 1.04892 0)
(11.9223 0.100397 0)
(7.48456 2.66784 0)
(10.5889 0.571689 0)
(11.5839 -0.189059 0)
(11.0152 0.290555 0)
(13.9991 -2.2435 0)
(10.3293 -2.54614 0)
(11.0409 -3.44265 0)
(11.2135 -3.33235 0)
(9.28338 -3.67872 0)
(10.944 -4.00845 0)
(12.529 -3.05919 0)
(12.5248 -1.19842 0)
(11.4145 0.67923 0)
(9.19744 1.23402 0)
(7.49016 0.907706 0)
(6.66665 0.583077 0)
(6.01626 0.316726 0)
(5.60626 0.112094 0)
(5.59968 0.0352851 0)
(5.69361 0.0417626 0)
(5.6139 0.0304552 0)
(5.42831 -0.00787825 0)
(5.30669 -0.0171291 0)
(5.29512 0.0223821 0)
(5.34192 0.080373 0)
(5.39434 0.114144 0)
(5.42446 0.102098 0)
(5.42194 0.0516757 0)
(5.39226 -0.0136372 0)
(5.34977 -0.0682104 0)
(5.30631 -0.102425 0)
(5.26773 -0.114727 0)
(5.23598 -0.109547 0)
(5.21036 -0.0933154 0)
(5.1896 -0.0725704 0)
(5.17301 -0.0524321 0)
(5.16035 -0.0357593 0)
(5.1513 -0.0233422 0)
(5.14526 -0.0147478 0)
(5.14146 -0.00909702 0)
(5.13919 -0.00551298 0)
(5.13787 -0.00329671 0)
(5.13713 -0.00195094 0)
(5.13673 -0.00114459 0)
(5.13651 -0.000666517 0)
(5.13639 -0.000385496 0)
(5.13632 -0.000221489 0)
(5.13628 -0.000126556 0)
(5.13626 -7.19885e-05 0)
(5.13625 -4.07385e-05 0)
(5.13625 -2.28971e-05 0)
(5.13624 -1.28137e-05 0)
(5.13624 -7.15785e-06 0)
(5.13624 -3.94863e-06 0)
(5.13624 -2.1614e-06 0)
(5.13624 -1.1902e-06 0)
(5.13624 -6.83415e-07 0)
(5.13624 -4.28839e-07 0)
(5.13624 -2.17015e-07 0)
(5.13624 -6.54255e-08 0)
(5.13624 -3.76062e-08 0)
(5.13624 -5.1404e-08 0)
(5.13624 -5.17232e-08 0)
(5.13624 -1.62211e-08 0)
(5.13624 2.07321e-08 0)
(5.13624 -7.03797e-09 0)
(5.13624 -4.67877e-08 0)
(5.13624 -3.09531e-08 0)
(5.13624 6.00905e-09 0)
(5.13624 4.14898e-08 0)
(5.13624 1.22517e-09 0)
(5.13624 -3.26818e-08 0)
(5.13624 -5.05661e-08 0)
(5.13624 3.21301e-08 0)
(5.13623 3.18366e-08 0)
(5.13625 5.8267e-08 0)
(5.13623 -5.04595e-09 0)
(5.13625 -1.14717e-08 0)
(5.13623 1.50698e-08 0)
(5.13625 -5.00898e-08 0)
(5.13623 1.15428e-07 0)
(5.13624 -8.36588e-08 0)
(5.13624 1.12371e-07 0)
(5.13624 -1.09286e-07 0)
(5.13625 -9.29839e-08 0)
(5.13623 1.66444e-07 0)
(5.13625 -2.46279e-07 0)
(5.13624 3.00439e-07 0)
(5.13624 -1.14897e-07 0)
(5.13624 -1.61399e-07 0)
(5.13624 3.5669e-07 0)
(5.13624 -3.20959e-07 0)
(5.13624 1.30087e-07 0)
(5.13624 1.90085e-07 0)
(5.13624 -3.38305e-07 0)
(5.13624 6.38132e-08 0)
(5.13624 6.7189e-08 0)
(5.13624 -6.88992e-08 0)
(9.35453 1.02441 0)
(11.7062 0.0813034 0)
(8.6887 2.53579 0)
(12.0067 0.411651 0)
(11.7867 -0.420832 0)
(12.4313 0.118032 0)
(13.526 -2.08163 0)
(10.8702 -2.39346 0)
(11.1885 -3.4685 0)
(10.3716 -3.20975 0)
(9.41002 -4.0275 0)
(11.455 -4.56145 0)
(12.8121 -3.27454 0)
(12.5206 -1.10394 0)
(11.4518 0.93077 0)
(9.09694 1.52259 0)
(7.30131 1.09275 0)
(6.46194 0.67913 0)
(5.85839 0.387856 0)
(5.43887 0.14854 0)
(5.39064 0.0120857 0)
(5.56462 -0.00778091 0)
(5.63924 0.0126541 0)
(5.54332 0.0167721 0)
(5.4162 0.0215305 0)
(5.36405 0.0436299 0)
(5.38183 0.0673431 0)
(5.41796 0.0780339 0)
(5.43367 0.0719018 0)
(5.4241 0.0509242 0)
(5.40117 0.0191932 0)
(5.36952 -0.0181334 0)
(5.32994 -0.0521537 0)
(5.28822 -0.0742386 0)
(5.25087 -0.080872 0)
(5.22062 -0.0743673 0)
(5.19677 -0.0604833 0)
(5.17805 -0.0448984 0)
(5.1638 -0.0311826 0)
(5.15357 -0.0206474 0)
(5.14668 -0.0132137 0)
(5.14232 -0.00825141 0)
(5.13969 -0.00505946 0)
(5.13817 -0.00305848 0)
(5.13731 -0.00182742 0)
(5.13683 -0.00108091 0)
(5.13656 -0.000633634 0)
(5.13642 -0.000368393 0)
(5.13634 -0.00021249 0)
(5.13629 -0.000121762 0)
(5.13627 -6.94335e-05 0)
(5.13626 -3.93457e-05 0)
(5.13625 -2.21216e-05 0)
(5.13625 -1.23901e-05 0)
(5.13624 -6.93055e-06 0)
(5.13624 -3.82101e-06 0)
(5.13624 -2.08401e-06 0)
(5.13624 -1.14003e-06 0)
(5.13624 -6.70159e-07 0)
(5.13624 -4.37943e-07 0)
(5.13624 -2.08131e-07 0)
(5.13624 -4.34295e-08 0)
(5.13624 -2.25698e-08 0)
(5.13624 -5.26238e-08 0)
(5.13624 -6.65606e-08 0)
(5.13624 -1.77995e-08 0)
(5.13624 2.92164e-08 0)
(5.13624 -1.39846e-08 0)
(5.13624 -6.53025e-08 0)
(5.13624 -3.90952e-08 0)
(5.13624 9.90284e-09 0)
(5.13624 5.60437e-08 0)
(5.13624 9.6701e-10 0)
(5.13624 -4.84746e-08 0)
(5.13624 -6.98552e-08 0)
(5.13624 4.17566e-08 0)
(5.13623 4.87035e-08 0)
(5.13625 7.83379e-08 0)
(5.13623 -9.46825e-09 0)
(5.13625 -1.71111e-08 0)
(5.13623 1.35991e-08 0)
(5.13625 -6.26791e-08 0)
(5.13623 1.54224e-07 0)
(5.13624 -1.06896e-07 0)
(5.13624 1.43775e-07 0)
(5.13624 -1.52466e-07 0)
(5.13625 -1.16605e-07 0)
(5.13623 2.11043e-07 0)
(5.13625 -3.14742e-07 0)
(5.13624 3.95007e-07 0)
(5.13624 -1.57719e-07 0)
(5.13624 -1.95692e-07 0)
(5.13624 4.50564e-07 0)
(5.13624 -4.22262e-07 0)
(5.13624 1.77372e-07 0)
(5.13624 2.43023e-07 0)
(5.13624 -4.24257e-07 0)
(5.13624 8.74376e-08 0)
(5.13624 8.00174e-08 0)
(5.13624 -8.85319e-08 0)
(9.96589 0.888282 0)
(11.5333 0.215971 0)
(9.49416 2.29359 0)
(12.9836 0.263796 0)
(12.1346 -0.478641 0)
(12.7685 -0.0877283 0)
(13.0812 -1.74802 0)
(11.5295 -2.18655 0)
(10.7713 -3.4536 0)
(9.52618 -2.92737 0)
(10.1849 -4.18073 0)
(12.0533 -4.8051 0)
(12.9372 -3.15417 0)
(12.4477 -0.872026 0)
(11.4953 1.21396 0)
(9.56455 1.83088 0)
(7.60465 1.34315 0)
(6.47942 0.857425 0)
(5.93539 0.502292 0)
(5.56157 0.194408 0)
(5.38495 0.0153073 0)
(5.48286 0.00391862 0)
(5.59872 0.0399419 0)
(5.54459 0.0316455 0)
(5.42365 0.0100707 0)
(5.37823 0.0223288 0)
(5.41267 0.0665745 0)
(5.45357 0.1041 0)
(5.47302 0.102467 0)
(5.48962 0.0583431 0)
(5.50125 -0.00629531 0)
(5.48284 -0.0653077 0)
(5.42734 -0.101241 0)
(5.35449 -0.113071 0)
(5.28815 -0.106894 0)
(5.23869 -0.0899195 0)
(5.20477 -0.0688639 0)
(5.18165 -0.0488948 0)
(5.16568 -0.0327858 0)
(5.15474 -0.021106 0)
(5.14749 -0.0132132 0)
(5.14288 -0.00811704 0)
(5.14006 -0.00492039 0)
(5.13841 -0.00295236 0)
(5.13745 -0.00175623 0)
(5.13692 -0.00103635 0)
(5.13662 -0.000606859 0)
(5.13645 -0.000352717 0)
(5.13636 -0.000203488 0)
(5.13631 -0.000116657 0)
(5.13628 -6.65214e-05 0)
(5.13626 -3.76959e-05 0)
(5.13625 -2.12076e-05 0)
(5.13625 -1.1885e-05 0)
(5.13624 -6.64499e-06 0)
(5.13624 -3.66894e-06 0)
(5.13624 -2.02175e-06 0)
(5.13624 -1.11366e-06 0)
(5.13624 -6.32025e-07 0)
(5.13624 -3.96521e-07 0)
(5.13624 -1.97681e-07 0)
(5.13624 -6.00535e-08 0)
(5.13624 -3.71912e-08 0)
(5.13624 -4.34824e-08 0)
(5.13624 -4.69623e-08 0)
(5.13624 -2.03084e-08 0)
(5.13624 1.52727e-08 0)
(5.13624 -8.89851e-09 0)
(5.13624 -4.62191e-08 0)
(5.13624 -2.55924e-08 0)
(5.13624 4.13503e-09 0)
(5.13624 3.76739e-08 0)
(5.13624 -6.707e-09 0)
(5.13624 -2.3556e-08 0)
(5.13624 -4.94837e-08 0)
(5.13624 4.23554e-08 0)
(5.13623 1.78754e-08 0)
(5.13625 6.47336e-08 0)
(5.13623 -1.30008e-08 0)
(5.13625 -3.95123e-09 0)
(5.13623 2.92864e-08 0)
(5.13625 -7.91676e-08 0)
(5.13623 1.62133e-07 0)
(5.13624 -1.52415e-07 0)
(5.13624 1.78811e-07 0)
(5.13624 -1.53248e-07 0)
(5.13625 -1.00526e-07 0)
(5.13623 2.5069e-07 0)
(5.13625 -3.94632e-07 0)
(5.13624 4.56182e-07 0)
(5.13624 -2.0339e-07 0)
(5.13624 -2.10158e-07 0)
(5.13624 5.41139e-07 0)
(5.13624 -5.12626e-07 0)
(5.13624 2.02866e-07 0)
(5.13624 2.73506e-07 0)
(5.13624 -4.97389e-07 0)
(5.13624 1.28656e-07 0)
(5.13624 1.1046e-07 0)
(5.13624 -1.02049e-07 0)
(9.98407 0.775508 0)
(11.82 0.302062 0)
(9.7003 1.98151 0)
(13.5648 0.17097 0)
(11.6593 -0.547493 0)
(12.6181 -0.106484 0)
(12.3376 -1.59899 0)
(11.3305 -2.1281 0)
(10.6191 -3.20018 0)
(9.44715 -2.84502 0)
(10.9725 -4.67325 0)
(11.9886 -5.21609 0)
(12.7524 -3.20457 0)
(11.8913 -0.754066 0)
(11.071 1.45165 0)
(9.06667 2.17438 0)
(7.04003 1.6456 0)
(6.45792 1.00696 0)
(6.32156 0.579416 0)
(6.0286 0.264735 0)
(5.61625 0.0314827 0)
(5.45749 -0.0465271 0)
(5.59685 -0.00187382 0)
(5.71121 0.0506656 0)
(5.61648 0.0595332 0)
(5.42897 0.0531084 0)
(5.32434 0.0596867 0)
(5.3507 0.0717154 0)
(5.47016 0.0677857 0)
(5.61743 0.0465721 0)
(5.71383 0.0224493 0)
(5.70776 0.00246817 0)
(5.61269 -0.0187834 0)
(5.48458 -0.0397307 0)
(5.37039 -0.0532786 0)
(5.287 -0.0552763 0)
(5.23145 -0.0480521 0)
(5.19556 -0.0368807 0)
(5.17257 -0.0260067 0)
(5.15806 -0.0173417 0)
(5.14908 -0.0111528 0)
(5.14367 -0.00700512 0)
(5.14048 -0.00432825 0)
(5.13864 -0.00264053 0)
(5.13759 -0.0015932 0)
(5.137 -0.000951297 0)
(5.13666 -0.000562359 0)
(5.13648 -0.000329262 0)
(5.13637 -0.000191005 0)
(5.13631 -0.000109938 0)
(5.13628 -6.28798e-05 0)
(5.13626 -3.56967e-05 0)
(5.13625 -2.00983e-05 0)
(5.13625 -1.12794e-05 0)
(5.13624 -6.31687e-06 0)
(5.13624 -3.49201e-06 0)
(5.13624 -1.91858e-06 0)
(5.13624 -1.04831e-06 0)
(5.13624 -6.02883e-07 0)
(5.13624 -3.89295e-07 0)
(5.13624 -1.838e-07 0)
(5.13624 -4.12164e-08 0)
(5.13624 -2.5281e-08 0)
(5.13624 -4.11627e-08 0)
(5.13624 -5.496e-08 0)
(5.13624 -2.11384e-08 0)
(5.13624 2.13446e-08 0)
(5.13624 -1.3405e-08 0)
(5.13624 -5.80631e-08 0)
(5.13624 -2.96863e-08 0)
(5.13624 5.69014e-09 0)
(5.13624 4.6141e-08 0)
(5.13624 -6.59786e-09 0)
(5.13624 -3.20909e-08 0)
(5.13624 -6.34388e-08 0)
(5.13624 4.85398e-08 0)
(5.13623 2.40396e-08 0)
(5.13625 7.82131e-08 0)
(5.13623 -1.56523e-08 0)
(5.13625 -6.17161e-09 0)
(5.13623 2.68244e-08 0)
(5.13625 -9.04322e-08 0)
(5.13623 1.93471e-07 0)
(5.13624 -1.79498e-07 0)
(5.13624 2.15834e-07 0)
(5.13624 -1.95289e-07 0)
(5.13625 -1.06729e-07 0)
(5.13623 2.84945e-07 0)
(5.13625 -4.62773e-07 0)
(5.13624 5.48629e-07 0)
(5.13624 -2.57807e-07 0)
(5.13624 -2.24481e-07 0)
(5.13624 6.1965e-07 0)
(5.13624 -6.12144e-07 0)
(5.13624 2.56786e-07 0)
(5.13624 3.11681e-07 0)
(5.13624 -5.71221e-07 0)
(5.13624 1.60519e-07 0)
(5.13624 1.21603e-07 0)
(5.13624 -1.21038e-07 0)
(9.74637 0.561683 0)
(12.1721 0.37083 0)
(9.49908 1.74029 0)
(13.6435 0.0334184 0)
(10.8451 -0.375424 0)
(12.3892 -0.2587 0)
(11.4341 -1.38585 0)
(11.5868 -1.98684 0)
(10.3957 -3.14206 0)
(9.33566 -2.80399 0)
(11.5361 -4.93445 0)
(11.6205 -5.23654 0)
(12.1745 -2.95747 0)
(11.3517 -0.42684 0)
(10.6164 1.66254 0)
(8.79998 2.42079 0)
(7.43086 1.81475 0)
(6.58276 1.06957 0)
(6.12842 0.609235 0)
(5.91049 0.322395 0)
(5.63108 0.118342 0)
(5.38805 0.0138959 0)
(5.37478 -2.75302e-05 0)
(5.53471 0.0235851 0)
(5.65998 0.0488295 0)
(5.63486 0.0652379 0)
(5.52511 0.076255 0)
(5.44561 0.0779797 0)
(5.42302 0.0578962 0)
(5.41949 0.0190683 0)
(5.40407 -0.0226459 0)
(5.37245 -0.055434 0)
(5.33313 -0.0752461 0)
(5.29436 -0.0843065 0)
(5.26028 -0.0832365 0)
(5.23143 -0.072955 0)
(5.20696 -0.057304 0)
(5.18642 -0.0411131 0)
(5.17003 -0.0276158 0)
(5.15788 -0.017759 0)
(5.14952 -0.0111203 0)
(5.14413 -0.00685254 0)
(5.14081 -0.00417787 0)
(5.13885 -0.00252553 0)
(5.13772 -0.00151431 0)
(5.13707 -0.000900357 0)
(5.13671 -0.000530718 0)
(5.1365 -0.000310152 0)
(5.13639 -0.000179725 0)
(5.13632 -0.000103391 0)
(5.13629 -5.90939e-05 0)
(5.13627 -3.35278e-05 0)
(5.13625 -1.88799e-05 0)
(5.13625 -1.05989e-05 0)
(5.13624 -5.93859e-06 0)
(5.13624 -3.28898e-06 0)
(5.13624 -1.82179e-06 0)
(5.13624 -9.9971e-07 0)
(5.13624 -5.58076e-07 0)
(5.13624 -3.4858e-07 0)
(5.13624 -1.7064e-07 0)
(5.13624 -5.04708e-08 0)
(5.13624 -3.48762e-08 0)
(5.13624 -3.63141e-08 0)
(5.13624 -4.14025e-08 0)
(5.13624 -2.26823e-08 0)
(5.13624 1.0771e-08 0)
(5.13624 -9.64141e-09 0)
(5.13624 -4.46822e-08 0)
(5.13624 -1.96071e-08 0)
(5.13624 3.01493e-09 0)
(5.13624 3.38097e-08 0)
(5.13624 -1.38154e-08 0)
(5.13624 -1.35807e-08 0)
(5.13624 -4.99423e-08 0)
(5.13624 5.22259e-08 0)
(5.13623 1.04047e-09 0)
(5.13625 7.15191e-08 0)
(5.13623 -2.28985e-08 0)
(5.13625 6.71974e-09 0)
(5.13623 3.47195e-08 0)
(5.13625 -1.02692e-07 0)
(5.13623 2.05447e-07 0)
(5.13624 -2.2222e-07 0)
(5.13624 2.52589e-07 0)
(5.13624 -2.11792e-07 0)
(5.13625 -8.25974e-08 0)
(5.13623 3.12865e-07 0)
(5.13625 -5.31937e-07 0)
(5.13624 6.17505e-07 0)
(5.13624 -3.19264e-07 0)
(5.13624 -2.19069e-07 0)
(5.13624 6.91769e-07 0)
(5.13624 -7.01559e-07 0)
(5.13624 2.9831e-07 0)
(5.13624 3.26819e-07 0)
(5.13624 -6.35923e-07 0)
(5.13624 2.02446e-07 0)
(5.13624 1.43457e-07 0)
(5.13624 -1.3439e-07 0)
(9.36264 0.347919 0)
(12.2236 0.431733 0)
(9.30564 1.48344 0)
(13.4369 0.0377284 0)
(9.97632 -0.310248 0)
(12.6516 -0.344446 0)
(10.6521 -1.18493 0)
(11.934 -2.07357 0)
(9.88454 -2.82172 0)
(9.44174 -2.86892 0)
(11.6082 -5.33377 0)
(11.1 -5.43587 0)
(11.216 -2.96938 0)
(10.351 -0.368406 0)
(9.37001 1.90449 0)
(8.31766 2.65978 0)
(6.90934 2.03485 0)
(6.31996 1.24642 0)
(6.22633 0.684737 0)
(5.95884 0.350348 0)
(5.61487 0.126231 0)
(5.39906 -0.000844263 0)
(5.40559 -0.0284648 0)
(5.52727 0.00622445 0)
(5.57724 0.054916 0)
(5.53857 0.085531 0)
(5.49799 0.0931088 0)
(5.49821 0.0859947 0)
(5.53715 0.0679583 0)
(5.59882 0.0455444 0)
(5.64937 0.0299295 0)
(5.64909 0.0187574 0)
(5.58604 0.00255032 0)
(5.48493 -0.0184953 0)
(5.3818 -0.0354972 0)
(5.29859 -0.0417158 0)
(5.23963 -0.0381059 0)
(5.20054 -0.0297791 0)
(5.1755 -0.0210566 0)
(5.15984 -0.0139854 0)
(5.15024 -0.00896297 0)
(5.14445 -0.00563599 0)
(5.14101 -0.00350505 0)
(5.13899 -0.00216076 0)
(5.13781 -0.00131961 0)
(5.13714 -0.000797321 0)
(5.13675 -0.000476261 0)
(5.13653 -0.000281227 0)
(5.1364 -0.000164228 0)
(5.13633 -9.49965e-05 0)
(5.13629 -5.44982e-05 0)
(5.13627 -3.09913e-05 0)
(5.13626 -1.74729e-05 0)
(5.13625 -9.82828e-06 0)
(5.13625 -5.51866e-06 0)
(5.13624 -3.06345e-06 0)
(5.13624 -1.69392e-06 0)
(5.13624 -9.19311e-07 0)
(5.13624 -5.18036e-07 0)
(5.13624 -3.30522e-07 0)
(5.13624 -1.53923e-07 0)
(5.13624 -3.57365e-08 0)
(5.13624 -2.43839e-08 0)
(5.13624 -3.23909e-08 0)
(5.13624 -4.50194e-08 0)
(5.13624 -2.22789e-08 0)
(5.13624 1.47896e-08 0)
(5.13624 -1.19014e-08 0)
(5.13624 -5.12944e-08 0)
(5.13624 -2.1017e-08 0)
(5.13624 3.18195e-09 0)
(5.13624 3.79205e-08 0)
(5.13624 -1.33308e-08 0)
(5.13624 -1.62622e-08 0)
(5.13624 -6.03286e-08 0)
(5.13624 5.54334e-08 0)
(5.13623 1.26079e-09 0)
(5.13625 8.10807e-08 0)
(5.13623 -2.62789e-08 0)