/*--------------------------------*- C++ -*----------------------------------*\
| =========                 |                                                 |
| \\      /  F ield         | OpenFOAM: The Open Source CFD Toolbox           |
|  \\    /   O peration     | Version:  2.4.0                                 |
|   \\  /    A nd           | Web:      www.OpenFOAM.org                      |
|    \\/     M anipulation  |                                                 |
\*---------------------------------------------------------------------------*/
FoamFile
{
    version     2.0;
    format      ascii;
    class       volScalarField;
    location    "1.98";
    object      k_0;
}
// * * * * * * * * * * * * * * * * * * * * * * * * * * * * * * * * * * * * * //

dimensions      [0 2 -2 0 0 0 0];

internalField   nonuniform List<scalar> 
8800
(
8.11045
10.2792
8.78303
6.84072
5.68523
5.00058
4.49396
4.18216
3.87204
3.71193
3.49491
3.41844
3.24258
3.20356
3.05405
3.02107
2.88965
2.86236
2.79721
2.64623
1.3907
4.36468
5.31054
5.29379
5.11419
4.84712
4.5347
4.33428
4.07025
3.93464
3.72033
3.6402
3.4677
3.41877
3.28857
3.24539
3.1416
3.10219
3.00958
2.99618
0.0833456
0.744903
1.54601
1.96272
2.24718
2.46881
2.55028
2.6201
2.61681
2.61086
2.57477
2.55801
2.50909
2.48903
2.44895
2.42027
2.39486
2.36055
2.31128
2.29648
0.00328413
0.0711043
0.246806
0.43514
0.570087
0.71511
0.831314
0.929579
1.02742
1.0969
1.15916
1.21139
1.26815
1.29118
1.3472
1.36381
1.4035
1.41305
1.4304
1.42223
0.000119223
0.00507387
0.022586
0.0537712
0.0853451
0.120017
0.169208
0.197046
0.250838
0.280839
0.324279
0.349611
0.398472
0.418389
0.466424
0.490545
0.53338
0.555011
0.602213
0.617742
2.52914e-05
0.000322767
0.00164453
0.00392751
0.00758805
0.0110728
0.0188241
0.0240695
0.0344825
0.0435858
0.0528167
0.0605781
0.0756666
0.0822177
0.0941241
0.111106
0.120641
0.131713
0.150216
0.169969
2.23363e-05
4.61373e-05
0.000127681
0.000333288
0.000482252
0.000775063
0.00111939
0.00187609
0.00248838
0.00398359
0.00469391
0.00610579
0.00761768
0.00895634
0.0102264
0.014387
0.015877
0.0187026
0.0211941
0.0292925
2.1326e-05
3.19527e-05
4.79725e-05
8.18257e-05
9.88664e-05
0.000117172
0.000129331
0.000164588
0.000187349
0.000300722
0.000346142
0.000467276
0.000523647
0.000633775
0.000688373
0.00110974
0.00120836
0.00150482
0.00180258
0.00332698
2.06733e-05
2.88567e-05
4.69631e-05
5.25183e-05
6.13451e-05
7.82856e-05
8.28369e-05
8.41165e-05
8.02669e-05
8.22791e-05
8.88433e-05
0.000107122
0.000109946
0.000111008
0.000110203
0.00013259
0.000139391
0.000158303
0.000178294
0.000273279
2.06644e-05
2.96681e-05
3.72605e-05
5.12757e-05
6.06685e-05
6.90814e-05
7.12951e-05
7.11481e-05
6.82356e-05
6.70769e-05
6.78978e-05
7.65191e-05
8.17722e-05
8.12541e-05
7.8419e-05
7.92016e-05
7.95051e-05
8.11932e-05
8.55509e-05
9.15257e-05
2.0568e-05
2.91292e-05
4.0755e-05
5.1239e-05
5.95914e-05
6.63574e-05
6.92612e-05
7.25572e-05
7.1474e-05
7.14525e-05
7.07943e-05
7.37942e-05
7.76036e-05
7.74684e-05
7.72441e-05
7.87871e-05
7.83405e-05
7.98343e-05
8.61749e-05
9.21562e-05
2.08326e-05
2.96288e-05
3.80654e-05
6.1306e-05
7.12059e-05
7.10562e-05
7.13347e-05
7.31186e-05
8.01923e-05
8.68451e-05
8.9646e-05
9.53444e-05
9.57895e-05
9.70064e-05
0.000102017
0.000123114
0.00013574
0.000159405
0.000172452
0.000190891
2.1023e-05
3.08037e-05
4.52897e-05
7.8677e-05
9.00206e-05
0.000113939
0.000131151
0.000177451
0.000208957
0.000288716
0.000336434
0.000445908
0.000496161
0.000623759
0.000729344
0.0010047
0.0011925
0.00159542
0.00182671
0.00241092
2.1617e-05
4.35683e-05
0.000118457
0.00033552
0.000501977
0.000880853
0.00121364
0.00208586
0.00263899
0.00398339
0.00469962
0.00633348
0.00722681
0.00949583
0.0108339
0.0140655
0.0159609
0.0203118
0.0226998
0.0289175
2.49507e-05
0.000308218
0.00143648
0.00446329
0.00714832
0.0129732
0.0172502
0.0272379
0.0327838
0.0451679
0.0511842
0.0643508
0.0708548
0.0862163
0.0939029
0.111885
0.121182
0.14326
0.154651
0.186406
0.00012362
0.0049298
0.0219487
0.0539586
0.0862069
0.127182
0.157343
0.211542
0.238376
0.290776
0.313996
0.361395
0.383426
0.433
0.454855
0.505339
0.528526
0.585684
0.61176
0.682231
0.00337357
0.0696277
0.259929
0.414941
0.588561
0.701612
0.833844
0.93281
1.02233
1.09921
1.15588
1.2146
1.25409
1.30922
1.33211
1.38033
1.40005
1.44971
1.46887
1.51915
0.0847277
0.728492
1.56685
1.93563
2.2851
2.42798
2.58195
2.59618
2.62652
2.5982
2.58733
2.53962
2.52441
2.47492
2.46051
2.41736
2.40756
2.37898
2.36834
2.34263
1.40825
4.34788
5.32058
5.28571
5.13217
4.79759
4.58934
4.27188
4.13393
3.86717
3.77819
3.57865
3.5219
3.36725
3.33141
3.20285
3.17513
3.05826
3.02209
2.92392
8.12259
10.2606
8.79473
6.81542
5.71387
4.9596
4.53969
4.1283
3.92949
3.64686
3.55701
3.34928
3.30534
3.13655
3.10945
2.94893
2.9198
2.74575
2.68895
2.47929
1.80782
1.28459
1.01168
0.857693
0.759629
0.700601
0.662777
0.647548
0.634498
0.622508
0.607984
0.590494
0.575274
0.558816
0.546864
0.529186
0.516601
0.501764
0.491285
0.478778
0.466563
0.453599
0.4404
0.423087
0.4104
0.396643
0.389812
0.382407
0.382919
0.38435
0.389513
0.39301
0.400745
0.404318
0.410848
0.415864
0.419452
0.423787
0.427372
0.430223
0.433252
0.433636
0.433628
0.431347
0.424868
0.405924
0.378225
0.328235
0.283326
0.233295
0.19712
0.167683
0.148422
0.135804
0.126649
0.124799
0.126588
0.131055
0.143786
0.153946
0.176561
0.188131
0.212545
0.221506
0.239765
0.245815
0.259262
0.264986
0.277832
0.286255
0.290118
0.302384
0.304383
0.315039
0.316425
0.326841
0.326921
0.333581
0.333695
0.337659
0.337992
0.339089
0.340663
0.338362
0.335873
0.330304
0.321732
0.315735
0.302797
0.297419
0.281254
0.274148
0.248314
0.242238
0.231016
0.232629
0.236384
0.250776
0.263702
0.288212
0.29357
0.304159
0.312422
0.313423
0.312347
0.304907
0.299471
0.296751
0.284326
0.277513
0.267909
0.259723
0.246153
0.241765
0.231937
0.214105
0.197904
0.186144
0.15934
0.134911
0.111425
0.0840461
0.0606866
0.0412743
0.0273994
0.0183895
0.0122102
0.00850785
0.00619778
0.00501962
0.00466293
0.00479603
0.00527742
0.00651369
0.0097995
0.0163276
0.0303875
0.0506864
0.0779604
0.10911
0.133929
0.16313
0.182501
0.196945
0.202479
0.200879
0.195822
0.181652
0.169855
0.150825
0.132603
0.1216
0.116072
0.107674
0.10105
0.0980345
0.0885154
0.0757879
0.0642019
0.0624919
0.063249
0.0749639
0.0986845
0.115702
0.118163
0.117189
0.112085
0.106507
0.100886
0.0950659
0.0882012
0.0830826
0.0787226
0.0741881
0.0705725
0.0669564
0.0638842
0.0612178
0.0584744
0.0570861
0.0571354
0.0577496
0.0591387
0.0594801
0.0590959
0.0565279
0.0492716
0.0327964
0.021912
0.0174452
0.0160204
0.0156693
0.0164742
0.0206674
0.0314074
0.0456783
0.076991
0.130932
0.265517
1.28245
2.5582
2.10576
1.75998
1.5109
1.33006
1.19662
1.09702
1.01809
0.958728
0.906649
0.867087
0.828983
0.800099
0.770064
0.74869
0.725822
0.710277
0.692076
0.680462
0.667163
0.656646
0.643809
0.632255
0.618553
0.606786
0.591985
0.582994
0.569764
0.563361
0.551959
0.548086
0.540058
0.537483
0.53153
0.52953
0.524725
0.523012
0.518518
0.517534
0.514203
0.51462
0.513406
0.515886
0.515274
0.516889
0.513925
0.510783
0.498817
0.48766
0.461659
0.443725
0.412866
0.38825
0.366947
0.350417
0.339876
0.332802
0.333252
0.335169
0.341751
0.346084
0.355698
0.359082
0.366969
0.368255
0.372978
0.372451
0.376106
0.37503
0.379155
0.377107
0.380688
0.377997
0.380645
0.37743
0.378821
0.375333
0.374192
0.372734
0.368904
0.367877
0.366019
0.363182
0.362228
0.360706
0.355728
0.355631
0.35157
0.347828
0.348087
0.341533
0.340958
0.333942
0.328474
0.316985
0.309037
0.301036
0.299505
0.295649
0.296236
0.29339
0.292318
0.289806
0.281433
0.273226
0.266926
0.250819
0.238931
0.229756
0.206768
0.193499
0.184147
0.160375
0.148007
0.129687
0.108551
0.0883241
0.0704942
0.053062
0.0394842
0.0295786
0.0212233
0.0153382
0.0109822
0.00784159
0.00593639
0.0046091
0.0039526
0.00363661
0.00381548
0.00415996
0.00504659
0.00737731
0.0130192
0.0263805
0.047304
0.0895387
0.127588
0.183872
0.223465
0.254565
0.268536
0.273819
0.272529
0.270069
0.264626
0.257636
0.245885
0.233509
0.202485
0.188908
0.168133
0.157058
0.135204
0.125927
0.114193
0.0975234
0.0784072
0.0756597
0.0760784
0.089178
0.121502
0.130888
0.129576
0.124872
0.116616
0.10747
0.103608
0.0987175
0.0969296
0.0945101
0.0916975
0.0892001
0.0857027
0.0783009
0.071322
0.0663094
0.0622485
0.0590554
0.0561898
0.0539232
0.0538223
0.0548844
0.0579788
0.0588486
0.0583564
0.0562024
0.0490271
0.0349288
0.0235242
0.0180302
0.0161853
0.0157544
0.0167189
0.02001
0.0272027
0.0454934
0.0814068
0.210716
0.686918
2.08689
1.85882
1.64642
1.46731
1.32451
1.20812
1.11768
1.04179
0.981691
0.929787
0.88637
0.846191
0.81173
0.779482
0.751806
0.725947
0.703352
0.685445
0.667468
0.656297
0.642005
0.633627
0.622242
0.612476
0.603337
0.590561
0.58365
0.569563
0.563422
0.550502
0.544778
0.533026
0.528287
0.51877
0.51469
0.507367
0.503513
0.499557
0.494779
0.493625
0.490255
0.489174
0.489377
0.489346
0.491509
0.491805
0.49366
0.493303
0.490448
0.488321
0.479712
0.475789
0.464395
0.459755
0.448907
0.443486
0.43782
0.431792
0.428738
0.427971
0.426002
0.428655
0.426956
0.429273
0.427418
0.426131
0.424687
0.421452
0.417021
0.414877
0.407222
0.404483
0.396316
0.389992
0.383991
0.372295
0.362493
0.356478
0.341226
0.33476
0.321628
0.313704
0.303983
0.294508
0.287905
0.284791
0.280935
0.28175
0.283244
0.285671
0.295758
0.298731
0.304766
0.305162
0.30563
0.304861
0.298339
0.294456
0.283341
0.2776
0.271505
0.253231
0.241136
0.231158
0.207928
0.197259
0.176239
0.153008
0.142394
0.119553
0.100853
0.088047
0.0698468
0.0560777
0.0446648
0.0350489
0.0267983
0.0206594
0.0157334
0.0117089
0.00903346
0.00651429
0.00532547
0.00404081
0.00341363
0.00297202
0.00289566
0.00299751
0.00323356
0.00385083
0.00546361
0.00946942
0.0185869
0.0388464
0.0759258
0.140704
0.208552
0.269306
0.299508
0.306066
0.306599
0.301826
0.298174
0.289161
0.286465
0.278892
0.275034
0.264762
0.256787
0.239556
0.225596
0.200682
0.192683
0.167526
0.156086
0.131074
0.1135
0.0930592
0.0973981
0.105786
0.143627
0.144945
0.143911
0.129687
0.121
0.112185
0.107888
0.107267
0.1068
0.106114
0.104348
0.102186
0.100092
0.0974256
0.0928474
0.085044
0.07622
0.0686434
0.0629246
0.0580525
0.0544543
0.0519577
0.0516883
0.0528749
0.0568273
0.0579022
0.0574547
0.0551909
0.0467124
0.0369704
0.0250792
0.0187353
0.0160924
0.0155781
0.0177829
0.0199651
0.0279187
0.0483577
0.134086
0.376536
1.33638
1.24272
1.14899
1.05968
0.980421
0.913642
0.854227
0.807456
0.763134
0.73011
0.695926
0.668794
0.640269
0.616748
0.591398
0.571165
0.547076
0.531677
0.511569
0.501537
0.487767
0.481974
0.472719
0.46834
0.461114
0.455251
0.448523
0.438747
0.431987
0.420245
0.411835
0.402643
0.390728
0.38603
0.374387
0.370565
0.362231
0.36017
0.355228
0.353764
0.352808
0.353015
0.354767
0.356375
0.360863
0.36371
0.369088
0.375273
0.378454
0.387044
0.388172
0.390985
0.390927
0.389788
0.388832
0.3848
0.383442
0.379799
0.378484
0.37585
0.374666
0.372709
0.372322
0.370565
0.369348
0.366368
0.36468
0.358422
0.355243
0.347318
0.342401
0.329816
0.322726
0.309672
0.299778
0.283188
0.274507
0.255624
0.244727
0.230854
0.213715
0.206054
0.188363
0.181659
0.16864
0.162673
0.153997
0.147662
0.143897
0.142756
0.144141
0.144915
0.149921
0.152361
0.156828
0.159281
0.158526
0.159173
0.157762
0.15083
0.145836
0.132841
0.121189
0.110567
0.0899763
0.0781777
0.0644012
0.051786
0.0434637
0.0351926
0.0281658
0.0231181
0.018467
0.0148483
0.0117697
0.0095343
0.00753896
0.00613944
0.00473882
0.00399411
0.00322635
0.00266774
0.00246796
0.00219656
0.00221927
0.00230851
0.00254044
0.00299139
0.00407958
0.00677313
0.0130217
0.0270968
0.0572905
0.120067
0.210466
0.290854
0.322417
0.331847
0.329338
0.32124
0.311667
0.292178
0.281961
0.262698
0.259752
0.25664
0.260876
0.260385
0.260306
0.250649
0.244509
0.224605
0.214151
0.189359
0.184851
0.145602
0.122876
0.110305
0.126065
0.145151
0.163681
0.150689
0.141864
0.122127
0.121931
0.119048
0.119143
0.118131
0.116318
0.112808
0.108276
0.103704
0.0995335
0.096977
0.0947413
0.0919395
0.0889999
0.0810043
0.0709629
0.0640732
0.05778
0.0534037
0.0511705
0.0509384
0.0522421
0.056281
0.0570822
0.0565976
0.0538892
0.0443303
0.0321943
0.0222286
0.0169682
0.0150556
0.0160125
0.0188647
0.0345833
0.0416931
0.0736717
0.206195
0.595889
0.570311
0.541891
0.511014
0.483646
0.458073
0.435616
0.41891
0.400966
0.390613
0.376382
0.368274
0.355904
0.347355
0.33511
0.325192
0.311746
0.300167
0.287307
0.275809
0.265901
0.257939
0.252296
0.248883
0.246467
0.245512
0.243632
0.242544
0.239782
0.237406
0.231241
0.226979
0.219216
0.213342
0.206069
0.199223
0.193267
0.187104
0.183642
0.179417
0.178546
0.178505
0.179836
0.181575
0.18563
0.190034
0.193351
0.20053
0.203822
0.208388
0.212637
0.213964
0.217288
0.21791
0.218997
0.218833
0.217881
0.217645
0.216678
0.216073
0.215968
0.214359
0.214175
0.212818
0.212068
0.210857
0.207113
0.205501
0.201466
0.196786
0.191106
0.180536
0.175526
0.161585
0.153968
0.137879
0.13063
0.115445
0.105733
0.0945882
0.085117
0.0780293
0.0697337
0.0653692
0.059196
0.0563669
0.0521947
0.0504531
0.0474437
0.0465052
0.0460486
0.0459381
0.0467857
0.0469191
0.0472729
0.0476609
0.0470878
0.0467684
0.0457062
0.0423436
0.0403792
0.0359369
0.0315949
0.0276499
0.0232007
0.0193416
0.0162174
0.0132406
0.0109172
0.00899958
0.00737987
0.00610322
0.00494726
0.00422917
0.00346841
0.00293833
0.00254886
0.00222321
0.00188736
0.00179152
0.00163336
0.00165437
0.00168974
0.00179527
0.00197626
0.00234339
0.00318378
0.00500907
0.00912377
0.0183955
0.0386184
0.0830583
0.177151
0.289282
0.335547
0.351661
0.348755
0.338951
0.314995
0.279414
0.237206
0.215599
0.199681
0.190855
0.189294
0.190629
0.19856
0.222175
0.241537
0.242413
0.245597
0.238251
0.231742
0.219396
0.19057
0.149099
0.134414
0.14453
0.164978
0.177121
0.172118
0.146511
0.136684
0.132301
0.138708
0.136036
0.136169
0.133197
0.130443
0.121979
0.114678
0.104689
0.0970189
0.0924508
0.091447
0.0915426
0.0905219
0.0875838
0.0784289
0.0705818
0.0626751
0.0574517
0.0526631
0.0508426
0.0508385
0.0526796
0.0560341
0.0563025
0.0556304
0.0502532
0.0353271
0.0247634
0.0181991
0.0162179
0.0194484
0.0211227
0.0574378
0.0507338
0.0560062
0.113527
0.166224
0.16099
0.154747
0.145672
0.140128
0.133545
0.129178
0.125922
0.122753
0.121526
0.119525
0.118903
0.117827
0.117014
0.11633
0.114813
0.112733
0.108181
0.104716
0.0989143
0.0948672
0.0894331
0.0856649
0.0826106
0.0807486
0.0801811
0.0798728
0.0806999
0.0812198
0.0818116
0.0818682
0.0817572
0.0816386
0.0795963
0.0780075
0.073808
0.0717078
0.0674114
0.0653142
0.0626556
0.0604721
0.0604107
0.0603193
0.0614494
0.0624982
0.0652747
0.0676629
0.0699961
0.0745987
0.0762428
0.0796805
0.0810138
0.083138
0.0842548
0.0837726
0.0838582
0.082774
0.0823129
0.0814738
0.0798832
0.0797626
0.0786694
0.0784292
0.0776476
0.0765343
0.0763491
0.0739834
0.0728992
0.0700942
0.0687898
0.0655781
0.0614161
0.0592665
0.0535637
0.0504167
0.044623
0.0409963
0.0356671
0.0318313
0.0278213
0.0251135
0.0218745
0.0201968
0.0182614
0.0169212
0.0160169
0.014892
0.0143982
0.0134899
0.0131204
0.0126353
0.0123681
0.0122441
0.012188
0.0120515
0.011983
0.0118105
0.0113855
0.0110877
0.0103741
0.00949958
0.00862695
0.00751306
0.00650138
0.00554345
0.00469249
0.00391709
0.00332269
0.00285006
0.00232215
0.00210265
0.001748
0.00157326
0.00140453
0.0013124
0.00121148
0.00118536
0.00116688
0.00119169
0.00122527
0.00131
0.00146185
0.00164387
0.00200948
0.00273621
0.00429574
0.00714272
0.0129693
0.0257215
0.0544161
0.114462
0.249964
0.335994
0.366576
0.366647
0.357689
0.32705
0.267553
0.208674
0.186921
0.179385
0.179437
0.176568
0.176939
0.17617
0.177474
0.178896
0.198325
0.218994
0.23731
0.241076
0.242839
0.236096
0.232872
0.188487
0.182539
0.178384
0.203184
0.194539
0.196804
0.163304
0.161861
0.155447
0.163445
0.165093
0.158809
0.1574
0.146744
0.142402
0.12898
0.122989
0.11011
0.103759
0.0948358
0.0911246
0.0903833
0.0889763
0.0869186
0.0784801
0.075026
0.0659837
0.059425
0.0542863
0.0511009
0.0505369
0.0517897
0.0545777
0.056232
0.0558789
0.0517808
0.041406
0.0292913
0.0216282
0.0215608
0.0578301
0.0365652
0.0437711
0.0532946
0.0554284
0.0775677
0.0288615
0.0280453
0.0265414
0.0248087
0.0238925
0.0229728
0.0223475
0.0220277
0.0219649
0.0220288
0.0220992
0.0224114
0.0226998
0.0231495
0.0233142
0.0233764
0.0233786
0.023222
0.0229739
0.0220612
0.0214094
0.0199519
0.0189885
0.0178597
0.0170941
0.0166666
0.016308
0.0163416
0.0164072
0.0172483
0.0178705
0.0186292
0.0190728
0.0191337
0.0193094
0.0190941
0.0188634
0.0177933
0.0169939
0.0158524
0.0146159
0.0144634
0.0141768
0.0145103
0.0147582
0.0155151
0.0168621
0.01748
0.0195174
0.0203444
0.022034
0.0225924
0.0234541
0.0243811
0.0242513
0.0243124
0.0239712
0.0236382
0.0234072
0.0225122
0.0223785
0.0218566
0.0217246
0.0214471
0.0208915
0.0207629
0.0200693
0.0196644
0.0186058
0.0181286
0.0172818
0.0161691
0.0153399
0.0144007
0.013104
0.0121222
0.010668
0.00936987
0.00828
0.00704601
0.00628987
0.00547702
0.00495726
0.00455136
0.00419966
0.00402555
0.003851
0.00362417
0.00350365
0.00327671
0.00315382
0.00304541
0.00293189
0.00290022
0.00283282
0.0027967
0.00270002
0.00262663
0.00247831
0.00234511
0.0021203
0.00188857
0.00170488
0.00144632
0.00128084
0.00114373
0.000993477
0.000926992
0.000835415
0.000793475
0.000761896
0.000767531
0.000790446
0.000808324
0.000853219
0.000887
0.000953866
0.00103495
0.00118082
0.0013491
0.00164152
0.00228833
0.00311181
0.00434985
0.0069333
0.011249
0.018856
0.0351401
0.0731445
0.15856
0.31124
0.376406
0.386094
0.379118
0.349161
0.280177
0.200773
0.173588
0.164578
0.167431
0.173529
0.177205
0.17965
0.184677
0.183704
0.186426
0.189183
0.209303
0.218301
0.240002
0.237352
0.246864
0.239866
0.240437
0.207245
0.218743
0.213459
0.220401
0.204736
0.182079
0.154595
0.174519
0.171507
0.187352
0.176667
0.17322
0.16449
0.147911
0.142492
0.128581
0.123168
0.113747
0.111136
0.100337
0.095781
0.0888578
0.0884489
0.084127
0.0803528
0.0731428
0.0690296
0.061237
0.0560082
0.0521805
0.0508277
0.0523444
0.0545917
0.0559983
0.057019
0.0545031
0.0429622
0.036334
0.0351047
0.0299263
0.0535236
0.0513118
0.0508527
0.0574051
0.0577765
0.0654444
0.00331148
0.00323664
0.00305412
0.00284537
0.00263358
0.00247607
0.0024324
0.0024312
0.00245896
0.00253224
0.00264211
0.00276989
0.0028779
0.00299671
0.00303987
0.0030739
0.00307266
0.00304665
0.00300599
0.0029708
0.00294898
0.00282989
0.00270537
0.00246478
0.00229881
0.00213178
0.002005
0.00195071
0.00191703
0.00198135
0.0021417
0.00248308
0.00276858
0.00297852
0.00319185
0.00323634
0.00325897
0.00313073
0.0028466
0.00258013
0.00222512
0.00216369
0.00204168
0.00209768
0.00214608
0.00227065
0.00276606
0.00297741
0.00353091
0.00380444
0.0043584
0.00465238
0.00475913
0.0051471
0.00513718
0.00516854
0.00511522
0.00494989
0.0048954
0.00466727
0.00458843
0.00443863
0.00437582
0.00435224
0.00426248
0.00421903
0.00414506
0.00398054
0.00388179
0.0036407
0.00347894
0.00330441
0.00302845
0.00290451
0.0026524
0.00246388
0.00218098
0.00189483
0.00167239
0.00142794
0.00124225
0.00111379
0.000984597
0.000922551
0.000859122
0.000829337
0.000802296
0.000773164
0.000741581
0.000701267
0.000665731
0.000645154
0.000620101
0.000606105
0.000595906
0.000578515
0.000568651
0.000553552
0.000525838
0.000505584
0.000486389
0.000469626
0.000461415
0.000463858
0.000469249
0.000482337
0.000505696
0.000519456
0.0005525
0.000595149
0.000632435
0.000731046
0.000799281
0.000952117
0.00105958
0.00128718
0.00154643
0.00187459
0.00251499
0.00305965
0.00411691
0.00588599
0.00793015
0.0116487
0.0176772
0.027273
0.0471875
0.0941767
0.210415
0.359201
0.408712
0.407819
0.382269
0.304842
0.217633
0.171576
0.153035
0.152939
0.157421
0.169239
0.181713
0.189903
0.206419
0.209855
0.215996
0.22158
0.219638
0.231365
0.23171
0.241945
0.23828
0.250898
0.240363
0.235935
0.227555
0.224085
0.227334
0.216289
0.197629
0.161097
0.172356
0.181213
0.185843
0.198733
0.183072
0.182387
0.158581
0.148218
0.135215
0.122604
0.116518
0.11423
0.108457
0.105766
0.0980992
0.093786
0.0918218
0.0845442
0.083422
0.0749111
0.0743093
0.0673341
0.0590247
0.0545778
0.0525003
0.0536785
0.0561029
0.0564968
0.057677
0.0580604
0.0488
0.0457909
0.0612401
0.0477948
0.0500263
0.0531057
0.0564607
0.0660896
0.0693016
0.0700208
0.000274045
0.000273622
0.000271419
0.000266105
0.000255253
0.000243145
0.00023729
0.000236518
0.000237372
0.000239779
0.000250477
0.000255893
0.000268754
0.000273987
0.0002863
0.000290731
0.000298884
0.000300632
0.000303944
0.00030429
0.000305373
0.000303838
0.000296453
0.00027688
0.000258553
0.000239528
0.00022272
0.000211779
0.000204384
0.000202789
0.000210126
0.000247557
0.000305401
0.00034143
0.000380114
0.00038771
0.000389729
0.000365342
0.000321885
0.000291995
0.000253464
0.000245618
0.000231819
0.000233766
0.000243869
0.000257883
0.000336946
0.000388255
0.000496383
0.000549829
0.000614809
0.000695827
0.000701252
0.000728092
0.000716068
0.000714287
0.000704736
0.000666038
0.000650227
0.000615675
0.000596876
0.000586488
0.000576089
0.000576682
0.000572934
0.000570699
0.000567747
0.000546273
0.000529405
0.000492487
0.000467334
0.000442402
0.000405023
0.000390628
0.000372079
0.000349604
0.000333697
0.000303862
0.000283914
0.000263356
0.000247234
0.000236783
0.000229784
0.000229012
0.000229669
0.000231745
0.000236574
0.000240959
0.000242912
0.000243838
0.000243955
0.000244298
0.000245127
0.000248409
0.000252015
0.000259418
0.000265109
0.000276769
0.000291454
0.000305343
0.000332282
0.000366837
0.000412803
0.000462148
0.000529495
0.000643221
0.000782999
0.000867428
0.00108099
0.00124436
0.00152519
0.00174768
0.00208984
0.00257021
0.00291091
0.00367395
0.00426875
0.00540246
0.00674603
0.00801738
0.0110277
0.0140039
0.0195725
0.0280571
0.0404858
0.0649678
0.119677
0.268163
0.408153
0.438487
0.426534
0.364345
0.238454
0.189223
0.163435
0.145307
0.14269
0.149217
0.16079
0.175657
0.185081
0.206097
0.218169
0.234783
0.238304
0.239597
0.244211
0.241186
0.242286
0.243573
0.239737
0.249527
0.231657
0.237556
0.232959
0.235669
0.231743
0.194407
0.164307
0.166633
0.183449
0.188781
0.196296
0.20112
0.190308
0.184213
0.145173
0.147276
0.125222
0.121249
0.116862
0.107542
0.0977487
0.101385
0.098172
0.100822
0.0942442
0.0970953
0.0883007
0.0855155
0.0771848
0.0741704
0.0660351
0.0596633
0.0583796
0.0570161
0.0597821
0.0595628
0.0602749
0.0652324
0.074315
0.0548162
0.0556241
0.0505602
0.0523157
0.0570167
0.0584342
0.0637991
0.0767034
0.0803258
9.35315e-05
9.48434e-05
9.75656e-05
0.000101076
0.000102674
0.000102875
0.000103024
0.00010293
0.00010173
0.000100478
9.97115e-05
9.95211e-05
9.91003e-05
9.8189e-05
9.722e-05
9.70168e-05
9.74175e-05
0.000100178
0.00010274
0.000105331
0.000106018
0.000106082
0.000105197
0.000104458
0.000104122
0.000104331
0.000104446
0.000104692
0.000104622
0.000104587
0.000105249
0.000107327
0.000110102
0.000110652
0.000111246
0.000109844
0.000108899
0.000108587
0.000108504
0.000109056
0.000110035
0.000110132
0.00011001
0.000109984
0.000111476
0.000112674
0.000119595
0.000125756
0.000137409
0.000145954
0.000149092
0.000154849
0.00015381
0.000154243
0.000153179
0.000150011
0.00014882
0.00014559
0.000142329
0.000139799
0.000136825
0.000135892
0.000135032
0.000134925
0.000135163
0.000135523
0.000136146
0.000135996
0.000134641
0.000133979
0.000134042
0.000134306
0.000136079
0.000137672
0.000142504
0.000145634
0.000151934
0.000157438
0.000164857
0.000171628
0.000182468
0.000195136
0.000205173
0.000221257
0.000234613
0.000252128
0.000271955
0.000286775
0.000310654
0.000328758
0.000354193
0.000369855
0.000388661
0.00043351
0.000461154
0.000513701
0.000555683
0.000649495
0.000721904
0.000872481
0.000978597
0.00120853
0.00142372
0.00164373
0.00211512
0.00239188
0.00296248
0.00331877
0.00398132
0.00450067
0.00524056
0.0058729
0.00678036
0.00762984
0.00874133
0.0102587
0.0116322
0.0139506
0.0166053
0.0204677
0.0257907
0.0323669
0.0453352
0.0617818
0.0937848
0.157446
0.327913
0.453836
0.473823
0.444324
0.31502
0.204496
0.1742
0.163171
0.148277
0.138307
0.139852
0.150065
0.165104
0.172816
0.187253
0.213294
0.219925
0.244097
0.243126
0.235861
0.240897
0.238132
0.238147
0.238397
0.236951
0.244595
0.227861
0.238203
0.23859
0.235178
0.210342
0.164286
0.15349
0.175855
0.169916
0.190173
0.194796
0.20186
0.191753
0.177523
0.142814
0.14036
0.107722
0.122854
0.112794
0.093774
0.092146
0.0911123
0.0912217
0.0986168
0.0894144
0.0992606
0.0898449
0.0899382
0.0783355
0.0752774
0.0676384
0.0639064
0.0681981
0.0640252
0.0650368
0.0770541
0.0809718
0.0727531
0.0990664
0.0757724
0.0659735
0.0536669
0.0558924
0.0631216
0.0634931
0.0642674
0.0722547
0.0789081
9.23948e-05
9.31134e-05
9.55091e-05
9.77307e-05
9.96853e-05
0.000100704
0.000101636
0.000101613
0.000101389
0.000100129
9.76931e-05
9.63174e-05
9.58487e-05
9.57551e-05
9.92618e-05
0.000102308
0.000110609
0.000114682
0.000120876
0.000123318
0.000123826
0.000124349
0.000122873
0.000120301
0.00011724
0.000115935
0.000116639
0.000118145
0.000122701
0.00012456
0.000125749
0.000125991
0.000126259
0.000129515
0.00013625
0.000138794
0.000144071
0.000147525
0.000161459
0.000173716
0.000187925
0.000196601
0.000198322
0.000195726
0.000176562
0.000154528
0.000138828
0.000126441
0.00012175
0.000119506
0.00012027
0.000127002
0.000137843
0.000150606
0.000156798
0.000165947
0.00016676
0.000168016
0.000167269
0.000157625
0.000153167
0.000142887
0.000140917
0.000139314
0.000139385
0.00014386
0.000151166
0.000163627
0.000192158
0.000207302
0.000241009
0.000262275
0.000289618
0.000332279
0.000355053
0.000403647
0.000436258
0.000496097
0.000543972
0.000599567
0.000660384
0.000744173
0.000796295
0.000881784
0.000954159
0.00103875
0.00114947
0.00121171
0.00133521
0.00142437
0.00154379
0.00163215
0.00172036
0.00193203
0.00207268
0.00224206
0.00256614
0.00283187
0.00326737
0.00381136
0.00432532
0.00515674
0.00586173
0.00685586
0.00813771
0.00898464
0.0105371
0.0117171
0.012989
0.0147339
0.0159422
0.0179663
0.0191737
0.0213136
0.02369
0.0255952
0.0299128
0.0331973
0.0401654
0.0472388
0.0573677
0.0743388
0.0969002
0.137042
0.217603
0.391614
0.48907
0.499399
0.449703
0.279886
0.184766
0.162475
0.161267
0.157093
0.144988
0.137267
0.142938
0.162973
0.170973
0.178726
0.191929
0.214871
0.207485
0.218613
0.229304
0.232031
0.227896
0.229074
0.229024
0.228908
0.228295
0.222252
0.224353
0.233601
0.237164
0.220704
0.173072
0.149959
0.152271
0.163436
0.15194
0.166122
0.189214
0.195688
0.191419
0.172964
0.162163
0.128608
0.106556
0.11564
0.0941273
0.101859
0.112303
0.0927321
0.108051
0.092097
0.0961608
0.0953402
0.0949171
0.0878977
0.0918294
0.0805682
0.0811364
0.073852
0.0776583
0.0826491
0.0809322
0.0894146
0.171267
0.098438
0.104677
0.0838906
0.0757066
0.0598412
0.0597669
0.061574
0.0661536
0.0652736
0.0662186
0.0706004
0.000187554
0.000188806
0.000197354
0.000205817
0.000233845
0.000243245
0.000263412
0.000267566
0.000269022
0.000269994
0.000267554
0.000272632
0.000278618
0.0002984
0.000319229
0.000341063
0.000394989
0.000432393
0.000492411
0.000522115
0.000538251
0.000542939
0.000537169
0.000521406
0.000495129
0.000478773
0.000474438
0.000473522
0.000478176
0.000517101
0.000538241
0.000581744
0.000605466
0.00065031
0.000699123
0.000727741
0.000814889
0.000833177
0.000886258
0.00090431
0.000914906
0.00092262
0.000911022
0.000867467
0.000743803
0.000641119
0.000552611
0.000480931
0.000459558
0.000453953
0.000493042
0.000563917
0.000634834
0.000724271
0.00075019
0.000808073
0.000811916
0.000813488
0.000806752
0.000723388
0.000701647
0.00066024
0.000656664
0.000664768
0.000677132
0.000739372
0.000841116
0.000932684
0.00115703
0.00126125
0.00148087
0.00161293
0.00176576
0.00198713
0.002097
0.00229114
0.00250906
0.0027089
0.00294578
0.00321273
0.00343463
0.00376805
0.00393673
0.00426943
0.0044603
0.00475888
0.00515206
0.00536661
0.00581815
0.00614173
0.00646985
0.00695371
0.00724364
0.007816
0.00854855
0.00904301
0.0102567
0.0111451
0.0128785
0.0143527
0.0165831
0.0185093
0.0215869
0.023907
0.0271682
0.0300201
0.0328431
0.0363842
0.0385798
0.0423066
0.0447967
0.0479582
0.0511612
0.0538328
0.0590958
0.0627178
0.0703317
0.0772819
0.0896487
0.103925
0.120775
0.158732
0.202037
0.307117
0.436663
0.515903
0.516718
0.431451
0.272153
0.180343
0.152941
0.154409
0.160915
0.160506
0.14669
0.141211
0.152907
0.168372
0.168002
0.17781
0.175336
0.173391
0.201066
0.205905
0.20131
0.210187
0.211664
0.211619
0.210708
0.206233
0.20244
0.213057
0.229473
0.232619
0.219461
0.190139
0.12824
0.125223
0.123588
0.129826
0.138774
0.157089
0.189228
0.194126
0.191977
0.189623
0.177511
0.128993
0.114261
0.0969323
0.0863245
0.0905185
0.101184
0.0992673
0.110555
0.0872015
0.106564
0.102405
0.10902
0.0864071
0.125574
0.0848543
0.123926
0.101913
0.100074
0.0993564
0.138311
0.111353
0.258893
0.161826
0.158745
0.106576
0.0973236
0.0753402
0.0670907
0.0623832
0.0649007
0.0666733
0.0648966
0.0649431
0.00245094
0.00249013
0.00259749
0.00270488
0.00285249
0.00290107
0.00302068
0.00307497
0.00315978
0.00324548
0.00327345
0.0033854
0.00345132
0.00358664
0.00372317
0.00394943
0.00418041
0.0044182
0.0047565
0.00498852
0.00514435
0.00520013
0.00520447
0.00511678
0.005037
0.00492146
0.00490746
0.00489641
0.00490974
0.00507601
0.00513972
0.00534218
0.00548081
0.00580415
0.00615704
0.00640101
0.00677184
0.00677729
0.00682596
0.00679739
0.00660159
0.00646963
0.00601831
0.00582819
0.00544556
0.00512788
0.0048961
0.00467055
0.00468687
0.00470095
0.00490431
0.0051775
0.00534337
0.00563574
0.00566727
0.00574679
0.00575482
0.00561987
0.00547185
0.00514643
0.00512794
0.00511407
0.00513502
0.00529763
0.005461
0.00589309
0.00638643
0.00675826
0.00761619
0.00801667
0.00869373
0.00934603
0.00971508
0.0105114
0.0109435
0.0115109
0.0122991
0.0127255
0.013621
0.0142695
0.015008
0.0159351
0.01639
0.0173466
0.0178465
0.0186489
0.0195156
0.0200436
0.0212024
0.0221706
0.022945
0.0245829
0.0255843
0.0275564
0.0296366
0.0317996
0.0351956
0.0388897
0.0425883
0.0485988
0.0532732
0.0599577
0.0670326
0.0734314
0.0803947
0.0877138
0.0931936
0.0999184
0.104501
0.109676
0.114708
0.117831
0.124016
0.127796
0.135347
0.141222
0.153903
0.164744
0.182082
0.210222
0.240886
0.303138
0.391513
0.477655
0.523403
0.504851
0.373386
0.272346
0.192988
0.146431
0.144053
0.160766
0.189908
0.171473
0.13969
0.129986
0.141822
0.138611
0.132342
0.139608
0.149642
0.15097
0.15783
0.171404