/*--------------------------------*- C++ -*----------------------------------*\
| =========                 |                                                 |
| \\      /  F ield         | OpenFOAM: The Open Source CFD Toolbox           |
|  \\    /   O peration     | Version:  2.4.0                                 |
|   \\  /    A nd           | Web:      www.OpenFOAM.org                      |
|    \\/     M anipulation  |                                                 |
\*---------------------------------------------------------------------------*/
FoamFile
{
    version     2.0;
    format      ascii;
    class       volScalarField;
    location    "1.71";
    object      k_0;
}
// * * * * * * * * * * * * * * * * * * * * * * * * * * * * * * * * * * * * * //

dimensions      [0 2 -2 0 0 0 0];

internalField   nonuniform List<scalar> 
8800
(
8.11267
10.2777
8.7804
6.84464
5.67912
5.00732
4.49133
4.18048
3.87345
3.71099
3.48901
3.41843
3.23956
3.1954
3.04768
3.01046
2.86919
2.83268
2.75443
2.60027
1.39163
4.36499
5.30821
5.29434
5.10891
4.8539
4.53428
4.3317
4.07364
3.93432
3.71498
3.64079
3.46929
3.41393
3.29088
3.24327
3.13181
3.09206
2.9961
2.97879
0.0833863
0.748032
1.54118
1.9652
2.24565
2.46617
2.55289
2.62233
2.61481
2.61126
2.5772
2.55689
2.51315
2.48578
2.45363
2.42098
2.39905
2.36225
2.31869
2.30188
0.0032834
0.0714351
0.243172
0.434848
0.576754
0.707776
0.829971
0.941554
1.01798
1.09774
1.17088
1.2008
1.2698
1.29669
1.34661
1.36508
1.4165
1.42021
1.43694
1.4366
0.000118546
0.00508854
0.0209935
0.0511703
0.0926176
0.11805
0.163494
0.207287
0.245098
0.278888
0.330588
0.350066
0.395389
0.420953
0.465076
0.488751
0.547375
0.566481
0.595279
0.630923
2.579e-05
0.000326859
0.00140105
0.00352942
0.00839348
0.0121063
0.0165363
0.0272988
0.0337811
0.0410611
0.0557435
0.061575
0.0717123
0.0864464
0.0944079
0.10586
0.126788
0.14078
0.149365
0.170412
2.23382e-05
4.54558e-05
0.000120114
0.000249703
0.000569465
0.00088407
0.00115038
0.0020839
0.00267006
0.00361665
0.00522614
0.00597296
0.00690389
0.00994487
0.0110816
0.0134902
0.0156499
0.0208468
0.0229248
0.0270521
2.10721e-05
3.13953e-05
4.72947e-05
8.01463e-05
0.000100371
0.000116039
0.000126128
0.000183232
0.000212461
0.000294811
0.000355237
0.000440665
0.000478976
0.000721312
0.000774849
0.00100244
0.00116974
0.00180433
0.00203559
0.00297717
2.08306e-05
3.15287e-05
3.9601e-05
5.71741e-05
7.10909e-05
7.23606e-05
7.26618e-05
8.00625e-05
8.40287e-05
8.9792e-05
9.0794e-05
9.20841e-05
9.41404e-05
0.000112433
0.000115125
0.000126034
0.000137325
0.000176181
0.000187397
0.00027475
2.06282e-05
2.94156e-05
3.80504e-05
4.96518e-05
6.59001e-05
7.04345e-05
6.838e-05
6.70625e-05
6.73809e-05
7.16492e-05
7.4723e-05
7.52552e-05
7.77916e-05
8.2067e-05
8.0601e-05
7.84938e-05
7.99902e-05
8.20268e-05
8.2561e-05
8.95529e-05
2.05219e-05
3.0938e-05
3.87294e-05
4.83215e-05
6.76068e-05
7.22939e-05
6.88637e-05
6.73039e-05
6.71114e-05
6.90035e-05
7.71937e-05
8.16389e-05
8.06131e-05
7.99658e-05
7.82079e-05
7.78486e-05
7.87404e-05
8.51742e-05
8.75438e-05
9.03234e-05
2.07689e-05
2.78677e-05
3.87067e-05
6.81899e-05
7.40088e-05
7.09725e-05
6.88932e-05
7.31669e-05
7.7881e-05
9.01382e-05
9.87796e-05
9.91723e-05
9.93571e-05
0.000106636
0.000110651
0.000112093
0.000123904
0.000156604
0.000160406
0.000163948
2.09855e-05
2.92367e-05
5.56948e-05
8.38557e-05
8.67593e-05
0.00010009
0.000122706
0.000180322
0.000215109
0.000300356
0.000339412
0.000421833
0.000487566
0.000678227
0.000759364
0.000875707
0.00114351
0.00156459
0.00168351
0.00200527
2.16246e-05
4.34251e-05
0.000128032
0.000350956
0.00048458
0.000843561
0.00117557
0.00201481
0.00261707
0.0040214
0.00471755
0.00642024
0.00735915
0.00957283
0.0107361
0.01357
0.0154418
0.0197233
0.0215444
0.0264616
2.49279e-05
0.000306034
0.00165329
0.00479272
0.0068803
0.012551
0.0170115
0.0269026
0.03287
0.045546
0.051289
0.0646701
0.0712981
0.0860608
0.0930739
0.110195
0.119525
0.140989
0.150249
0.177587
0.000123303
0.00492379
0.0260459
0.0557031
0.0782338
0.127934
0.15975
0.207817
0.240678
0.291352
0.313434
0.36184
0.384301
0.431559
0.451928
0.502416
0.525287
0.579044
0.601675
0.665605
0.00336564
0.0694533
0.265662
0.415309
0.578396
0.70748
0.834456
0.926127
1.02617
1.09935
1.15183
1.21821
1.25595
1.30462
1.32729
1.37808
1.39612
1.43998
1.45657
1.50358
0.084566
0.726835
1.57277
1.9332
2.28083
2.43166
2.58123
2.59401
2.62675
2.59835
2.58702
2.54009
2.52445
2.47221
2.45801
2.41593
2.40496
2.37402
2.36311
2.33557
1.40541
4.35145
5.32085
5.28462
5.13272
4.79436
4.59252
4.27273
4.13171
3.8688
3.78047
3.5777
3.52215
3.36961
3.33407
3.20616
3.18127
3.06727
3.03575
2.94418
8.1182
10.266
8.79315
6.81436
5.71798
4.95525
4.54207
4.12915
3.92968
3.6479
3.5597
3.35126
3.30857
3.1425
3.11897
2.96124
2.93891
2.77322
2.72991
2.53555
1.79154
1.25705
0.966939
0.801325
0.699641
0.638245
0.594495
0.563594
0.538336
0.516956
0.498533
0.480609
0.463174
0.447224
0.431636
0.414199
0.400925
0.379467
0.361049
0.325238
0.287326
0.244292
0.209821
0.183171
0.1653
0.155155
0.14872
0.1502
0.156321
0.168034
0.188065
0.216196
0.242405
0.275276
0.299901
0.3207
0.349995
0.368415
0.383147
0.389659
0.39932
0.401068
0.406877
0.406846
0.404314
0.399594
0.392519
0.373772
0.362047
0.356282
0.350595
0.348792
0.345659
0.34164
0.339739
0.337361
0.333138
0.326705
0.324842
0.320002
0.309484
0.309948
0.308929
0.303837
0.300337
0.300643
0.305291
0.304644
0.300554
0.30268
0.300918
0.29478
0.296032
0.29381
0.28199
0.275538
0.269288
0.251659
0.238998
0.218471
0.18446
0.153511
0.109494
0.0722235
0.0455979
0.0286092
0.0186125
0.0127733
0.0105156
0.00961592
0.00990311
0.0109363
0.0111038
0.0118787
0.0132678
0.0132204
0.0136056
0.0140125
0.0139922
0.0146293
0.0166635
0.0176206
0.0194107
0.0232346
0.0269528
0.0314545
0.0415404
0.0677882
0.138115
0.213773
0.24036
0.23615
0.226402
0.207155
0.186697
0.178976
0.163942
0.155053
0.150504
0.145949
0.144352
0.14252
0.138944
0.131157
0.11201
0.0745209
0.055752
0.0443356
0.03922
0.0379878
0.0388389
0.0386909
0.0360645
0.0326434
0.0324487
0.0431722
0.0932468
0.122386
0.125264
0.109496
0.0754282
0.0521847
0.0408053
0.0338606
0.0302392
0.0278298
0.0270367
0.0266862
0.0262898
0.0253783
0.0236506
0.022158
0.0216447
0.0208794
0.0208409
0.0208156
0.0209098
0.0211015
0.0218886
0.0235513
0.0308858
0.0397302
0.0456102
0.0569689
0.0953888
0.119199
0.124956
0.121241
0.112596
0.101378
0.0955056
0.088871
0.0828771
0.0798307
0.0811269
0.0878001
0.0942123
0.0986707
0.0967042
0.0920805
0.0926594
0.0885684
0.084473
0.0842946
0.0839501
0.0834407
0.0830439
0.0820959
0.0790807
0.069287
0.0503759
0.0417268
0.0382251
0.0370906
0.0374528
0.0412387
0.0507889
0.0759469
0.214906
1.61907
2.53695
2.08832
1.73995
1.48687
1.30446
1.16858
1.0679
0.991533
0.930726
0.880898
0.840833
0.799774
0.770857
0.736726
0.71502
0.691371
0.669315
0.653798
0.63098
0.615409
0.587738
0.563312
0.529352
0.499139
0.465945
0.439498
0.427845
0.419918
0.420404
0.425217
0.431507
0.440412
0.448291
0.452159
0.456791
0.459433
0.463378
0.464956
0.46894
0.471066
0.474647
0.478828
0.479244
0.485022
0.484937
0.48097
0.478591
0.472246
0.461335
0.456835
0.443076
0.437671
0.433604
0.424951
0.419554
0.415405
0.413445
0.408595
0.397533
0.395264
0.392152
0.384238
0.372447
0.36784
0.36345
0.350481
0.343561
0.337642
0.321736
0.312119
0.306624
0.292285
0.270267
0.260411
0.240553
0.213012
0.191237
0.155049
0.126843
0.0909236
0.0636304
0.0439064
0.0289044
0.0196977
0.0133382
0.0102386
0.00815817
0.00768817
0.0080191
0.0083819
0.00946468
0.0102957
0.0108728
0.0131801
0.0139699
0.0144935
0.0161581
0.0173274
0.0183349
0.0216449
0.0233435
0.0252091
0.0305882
0.0340522
0.037596
0.0466614
0.0743814
0.158264
0.248418
0.269205
0.261643
0.238063
0.200686
0.166591
0.136539
0.125029
0.112341
0.101853
0.102125
0.104977
0.110611
0.125637
0.133221
0.132101
0.127534
0.114013
0.0797083
0.0537646
0.0422598
0.0385578
0.0372734
0.0371899
0.0357431
0.0332232
0.0325983
0.0371276
0.0726345
0.109785
0.119748
0.114689
0.0873633
0.0598984
0.0445438
0.0358264
0.0310997
0.0285243
0.0272536
0.0271816
0.0275692
0.0276159
0.0268257
0.0252392
0.0240979
0.0231836
0.0226028
0.0223866
0.0224329
0.0226246
0.0233352
0.0251271
0.0328344
0.0404094
0.0467744
0.0613913
0.104343
0.129281
0.134054
0.129893
0.12398
0.121162
0.115054
0.101829
0.0938334
0.0931581
0.0969076
0.101305
0.102182
0.104043
0.100889
0.0964971
0.0978856
0.0968523
0.0886501
0.0819956
0.0778747
0.0769071
0.078773
0.0809483
0.0810538
0.0796636
0.0716347
0.0528396
0.041862
0.0380147
0.0376472
0.0397393
0.0542271
0.070714
0.186681
0.809215
2.08899
1.86345
1.65733
1.47512
1.32753
1.20642
1.11307
1.03915
0.979755
0.932236
0.892199
0.85514
0.822959
0.78873
0.767953
0.739593
0.718615
0.708308
0.683063
0.674625
0.661565
0.642569
0.63374
0.612999
0.598312
0.583388
0.564075
0.55529
0.53696
0.526321
0.514918
0.502731
0.494135
0.483537
0.475173
0.464428
0.459957
0.449583
0.443984
0.441724
0.433179
0.431402
0.428872
0.424027
0.423754
0.418967
0.413736
0.411492
0.403226
0.397734
0.389915
0.38227
0.379068
0.369545
0.36405
0.360712
0.352461
0.345034
0.34165
0.334082
0.327335
0.317028
0.309634
0.297784
0.289237
0.279283
0.256899
0.242966
0.231253
0.200424
0.183461
0.16273
0.131902
0.114747
0.0885733
0.068144
0.0521049
0.0383579
0.0285291
0.0205243
0.014845
0.0108803
0.00843422
0.0070063
0.00635951
0.00640406
0.00645426
0.00690769
0.00784073
0.00855235
0.0108451
0.0121356
0.0139854
0.0172187
0.0183434
0.02103
0.0245376
0.0254325
0.0283656
0.0308262
0.031884
0.0370773
0.0420444
0.0443485
0.0511727
0.0763977
0.164262
0.276911
0.297949
0.284907
0.245066
0.175026
0.128786
0.105942
0.0904988
0.084745
0.0813037
0.0749275
0.0728393
0.073651
0.0761257
0.0839302
0.108147
0.124045
0.125609
0.123342
0.113079
0.0806313
0.053025
0.0418081
0.0379467
0.0369044
0.0346774
0.032936
0.0322191
0.0342088
0.0559926
0.0979001
0.112982
0.112767
0.101346
0.0702904
0.0509385
0.0406
0.033683
0.0305188
0.0287732
0.0286463
0.0290351
0.0292676
0.0287713
0.027558
0.0265158
0.025589
0.0248525
0.0245067
0.0245213
0.0246466
0.025346
0.0272097
0.0350442
0.0425537
0.0499656
0.0710269
0.116537
0.138723
0.143985
0.143038
0.142879
0.141099
0.13294
0.115537
0.108081
0.107272
0.107918
0.110538
0.109907
0.107171
0.105358
0.103302
0.105263
0.104901
0.097143
0.0888763
0.0787462
0.0729606
0.0733101
0.074528
0.0795522
0.080607
0.0784618
0.0713711
0.0504777
0.0401692
0.0389159
0.0387725
0.0527974
0.0632098
0.1383
0.413894
1.35638
1.26743
1.18457
1.09763
1.01911
0.936972
0.870854
0.818358
0.77044
0.743025
0.712937
0.691249
0.67495
0.650126
0.639235
0.621713
0.607275
0.600369
0.583497
0.577332
0.566182
0.554799
0.54805
0.531199
0.523582
0.511009
0.495272
0.487225
0.469222
0.45367
0.443481
0.418924
0.407664
0.387965
0.368543
0.357846
0.333072
0.320792
0.310368
0.292069
0.28605
0.277457
0.267755
0.264835
0.259868
0.255619
0.249821
0.246317
0.241183
0.231891
0.227815
0.223168
0.213718
0.208901
0.203343
0.193885
0.185581
0.181959
0.173642
0.16585
0.160788
0.14908
0.142443
0.132516
0.116245
0.108652
0.0941692
0.0810092
0.0722055
0.0587587
0.0490301
0.0403854
0.0317818
0.0253814
0.0195514
0.0151142
0.0115959
0.0089412
0.00700639
0.00592678
0.00517455
0.00500936
0.00508579
0.00523932
0.00570449
0.00634492
0.00716042
0.009338
0.0112368
0.0142275
0.0178887
0.0200105
0.024824
0.0290082
0.0304283
0.0344574
0.0356167
0.0369335
0.0417347
0.0419379
0.0435847
0.0518556
0.0529433
0.0569679
0.0757771
0.148735
0.298833
0.333458
0.314548
0.251934
0.167075
0.12215
0.0978198
0.0844896
0.075676
0.0723122
0.0697052
0.0660762
0.0618233
0.060718
0.0610764
0.063931
0.0727593
0.100633
0.118797
0.122841
0.122033
0.111737
0.0796846
0.0529138
0.0413713
0.0375073
0.0339742
0.0321713
0.0314544
0.032485
0.0433403
0.083032
0.104579
0.109696
0.106185
0.0874855
0.0614364
0.0471331
0.0381474
0.0335382
0.0310044
0.0299237
0.0296597
0.0298421
0.0295791
0.0287214
0.0284262
0.0281737
0.0273384
0.026936
0.0267852
0.0269252
0.0276795
0.0300889
0.0385462
0.0456522
0.0543806
0.0840247
0.132735
0.154097
0.158118
0.159061
0.163807
0.163158
0.152625
0.133267
0.123728
0.117605
0.117237
0.113215
0.112679
0.107046
0.108602
0.108612
0.110064
0.107926
0.0980034
0.0910149
0.0806362
0.0718469
0.0699776
0.0698278
0.0712723
0.0796678
0.0794382
0.0768912
0.0680004
0.0465855
0.0420899
0.0399933
0.0561573
0.0630998
0.0974994
0.236775
0.609881
0.593365
0.574062
0.549446
0.534776
0.497973
0.474511
0.445589
0.417473
0.406547
0.390721
0.38444
0.381238
0.37401
0.372523
0.368538
0.363765
0.361671
0.355268
0.352774
0.349523
0.342613
0.337159
0.329302
0.318932
0.311438
0.301089
0.288059
0.280438
0.263981
0.254901
0.238753
0.222256
0.214146
0.192744
0.181262
0.168255
0.151836
0.145286
0.129869
0.122872
0.116648
0.107891
0.105682
0.101092
0.0987767
0.0972772
0.0926344
0.090128
0.0861475
0.081667
0.0788218
0.0742635
0.071065
0.0685434
0.0635235
0.0594697
0.0571827
0.0517432
0.048841
0.046284
0.0415502
0.0392357
0.0360697
0.0318737
0.0289178
0.0250467
0.0213844
0.0181392
0.0148723
0.0120668
0.0096576
0.00760998
0.00611217
0.00491002
0.00402128
0.00360511
0.00344388
0.00351291
0.00374466
0.00405298
0.00475755
0.00558166
0.00671145
0.00975158
0.0121166
0.0151525
0.0215193
0.0247179
0.031351
0.0346573
0.0393025
0.046338
0.0477242
0.0486205
0.0509511
0.0513322
0.0556834
0.0572412
0.0568023
0.0607831
0.0621921
0.0644409
0.0775959
0.124629
0.290237
0.366644
0.353655
0.278566
0.182631
0.131309
0.101777
0.0855454
0.075099
0.0698983
0.0667686
0.063564
0.0602741
0.056578
0.0542426
0.0535105
0.0543284
0.0582306
0.0700452
0.102837
0.119578
0.123912
0.120203
0.10191
0.0668014
0.0474505
0.0389179
0.0340415
0.0320629
0.0313841
0.0318945
0.0375808
0.0702641
0.0993382
0.107463
0.107467
0.101615
0.0791558
0.0583035
0.045759
0.0389053
0.0348402
0.0320267
0.0310944
0.0308589
0.0301748
0.0296304
0.0296052
0.0297532
0.029555
0.0291692
0.0291377
0.0294138
0.0305679
0.0347604
0.043206
0.0504535
0.0614456
0.10334
0.154046
0.173894
0.176604
0.178931
0.186467
0.185036
0.16559
0.14804
0.129699
0.125606
0.119969
0.111027
0.111688
0.110656
0.111324
0.116677
0.116246
0.112274
0.0960451
0.0903769
0.0865227
0.0743966
0.0701891
0.0707252
0.0700282
0.0748943
0.0802365
0.0784573
0.0752293
0.0601354
0.0540224
0.0450969
0.0745168
0.0682838
0.0738496
0.136666
0.167059
0.167414
0.168638
0.168196
0.168606
0.163309
0.158336
0.14843
0.13799
0.13448
0.129015
0.129632
0.130526
0.130991
0.133959
0.134502
0.13576
0.136971
0.137471
0.140286
0.140802
0.141003
0.140728
0.139008
0.135572
0.128965
0.120588
0.114892
0.107148
0.099465
0.0942152
0.0858497
0.0789239
0.0741523
0.0653298
0.0612733
0.056253
0.0496807
0.0472551
0.0422745
0.0389581
0.0366268
0.03296
0.0316788
0.0302891
0.0292416
0.0288378
0.0278893
0.027051
0.0260407
0.0238229
0.0226176
0.0213336
0.0195781
0.0188141
0.0175944
0.0159279
0.0151617
0.0134192
0.012301
0.0112755
0.0103366
0.00943699
0.00854748
0.0079049
0.00691704
0.00602223
0.00530364
0.00435598
0.00367432
0.00308362
0.00263747
0.00228746
0.00214579
0.00218463
0.00226957
0.00256861
0.00298402
0.00363348
0.00505821
0.00665929
0.0104851
0.0133325
0.018526
0.0265353
0.0313287
0.0407853
0.0492178
0.0557072
0.0643448
0.0674343
0.073932
0.0774323
0.0769514
0.0768603
0.0755961
0.0749012
0.0750898
0.0719363
0.0716147
0.0755878
0.0763245
0.0832324
0.112389
0.237671
0.385086
0.392618
0.331328
0.220289
0.153595
0.115011
0.0918937
0.0794863
0.0709903
0.0680334
0.0641826
0.0600669
0.0562905
0.053526
0.0513102
0.0507011
0.050896
0.0527767
0.0585482
0.0786732
0.110559
0.124527
0.125426
0.118365
0.0905642
0.0585888
0.0419573
0.0345386
0.0320749
0.0316197
0.0318415
0.0351053
0.0560136
0.0920018
0.105334
0.108867
0.107347
0.0998742
0.0773568
0.0593356
0.0480981
0.0404354
0.035737
0.03377
0.0327982
0.031871
0.0312714
0.0312341
0.0315377
0.031728
0.0318847
0.0321196
0.0327525
0.0344896
0.0408767
0.0478331
0.0560089
0.0718987
0.13145
0.182728
0.196323
0.198207
0.205343
0.212999
0.205732
0.176445
0.157707
0.134933
0.127726
0.117846
0.113563
0.115504
0.115631
0.113873
0.117526
0.115807
0.111613
0.0960529
0.0926266
0.089398
0.0789528
0.0719119
0.0696743
0.0706173
0.0704367
0.076638
0.0772723
0.0779995
0.0693723
0.078068
0.0611811
0.0732352
0.0750586
0.07542
0.098396
0.0295915
0.0318674
0.0322544
0.0323115
0.0327975
0.0313198
0.0304974
0.0284738
0.0264103
0.0260651
0.0254672
0.026179
0.0268307
0.0279849
0.0301932
0.0305433
0.0316075
0.0323971
0.0328583
0.034749
0.0353466
0.036876
0.037189
0.0367683
0.0361673
0.0342445
0.0319336
0.0301215
0.0270386
0.0255676
0.0235238
0.0213576
0.0201965
0.0183078
0.0169759
0.0160138
0.0145826
0.013295
0.0122727
0.0107985
0.00982409
0.00889805
0.00794253
0.00757496
0.00714975
0.00701565
0.00702745
0.00701092
0.00695356
0.00675809
0.00603406
0.00550653
0.00517068
0.00460755
0.00434857
0.00409406
0.0036971
0.00338165
0.00307406
0.00273617
0.0024199
0.00227991
0.00206578
0.00184591
0.00176469
0.00162832
0.00144466
0.001397
0.00131708
0.0013268
0.00136406
0.00143996
0.00157143
0.00182142
0.00225673
0.00291518
0.00488062
0.00662067
0.0103618
0.014508
0.0207918
0.0316978
0.0388879
0.0533791
0.0659534
0.0782339
0.0955192
0.106243
0.115418
0.1217
0.125682
0.126948
0.12541
0.119417
0.11518
0.105368
0.101661
0.0972008
0.0880396
0.0895248
0.089653
0.090177
0.104462
0.163028
0.357329
0.436224
0.405085
0.288392
0.1979
0.13951
0.106451
0.086643
0.0764631
0.0695268
0.0671066
0.0624415
0.0590095
0.054668
0.0528973
0.0496545
0.0486714
0.0486489
0.0499727
0.0533973
0.0645397
0.0983719
0.122502
0.129627
0.126386
0.110249
0.0717077
0.0481584
0.0362121
0.0323353
0.032206
0.0322568
0.0346371
0.0454823
0.0772246
0.10056
0.108956
0.109749
0.107839
0.0986746
0.0759198
0.0603598
0.0489575
0.0420203
0.039017
0.0370399
0.0353565
0.0348637
0.0350045
0.0354877
0.0356586
0.0359065
0.0363611
0.0374799
0.0404611
0.0480464
0.054072
0.065212
0.0938003
0.173694
0.215551
0.222805
0.225049
0.232786
0.231125
0.213295
0.183745
0.15024
0.141647
0.128267
0.127664
0.118079
0.125456
0.120463
0.115808
0.116357
0.114987
0.110321
0.101619
0.0938693
0.0885137
0.0738878
0.0725473
0.0689296
0.0698366
0.0701518
0.0723126
0.0779155
0.0941415
0.0844042
0.0952859
0.0826381
0.0755667
0.0774608
0.0771748
0.0855787
0.00380475
0.00395189
0.00390866
0.00390926
0.00394489
0.00368456
0.00360902
0.00343767
0.00342848
0.00356001
0.00363773
0.00391524
0.00405226
0.00419729
0.00442297
0.00438374
0.00452601
0.00454377
0.00455712
0.0048428
0.00501788
0.00582264
0.00639897
0.00647268
0.00649809
0.00626126
0.00565325
0.00516583
0.00439232
0.00398438
0.00358393
0.00325492
0.00313928
0.00298347
0.00288387
0.00282122
0.00265007
0.00246796
0.00218828
0.00187928
0.00167875
0.00147285
0.00131656
0.00124387
0.00121526
0.00121628
0.00126186
0.00130688
0.00131525
0.00129261
0.00116082
0.000995347
0.000921574
0.000825555
0.000752095
0.000731177
0.000699685
0.000651982
0.000645903
0.000624452
0.000593019
0.00059552
0.000604336
0.000615272
0.000645765
0.000702801
0.000749277
0.000864742
0.000996259
0.00123733
0.0015876
0.00211328
0.00317925
0.00450671
0.00674233
0.00977305
0.0167852
0.0221067
0.0335979
0.0445791
0.0629576
0.0825688
0.102894
0.130109
0.150152
0.175285
0.197379
0.208382
0.217793
0.217234
0.213244
0.206673
0.191519
0.176273
0.163276
0.141843
0.133787
0.119825
0.10763
0.106616
0.101461
0.103291
0.130837
0.256741
0.449499
0.46343
0.379223
0.271781
0.188491
0.132921
0.101999
0.0834695
0.0748452
0.0690705
0.0665349
0.0617515
0.0589222
0.05556
0.0539461
0.0493594
0.0480731
0.0478288
0.0487979
0.0509458
0.058286
0.0846652
0.116454
0.130353
0.129607
0.120432
0.0841485
0.0526774
0.0379382
0.0334072
0.0338612
0.0341997
0.0361271
0.0439705
0.0679813
0.0951495
0.106773
0.1124
0.112744
0.109517
0.0979269
0.0802879
0.0639132
0.0540744
0.0506051
0.0470525
0.0443799
0.0435465
0.0433386
0.0422434
0.0416808
0.0417796
0.0421596
0.0433995
0.0481467
0.0539166
0.0615679
0.0784147
0.138768
0.21697
0.251441
0.254073
0.247912
0.243886
0.238016
0.22053
0.175654
0.153653
0.137152
0.136702
0.134993
0.136108
0.14161
0.130009
0.131076
0.127926
0.123617
0.109207
0.102493
0.087318
0.0851496
0.0763892
0.0718936
0.0716735
0.0730448
0.0760941
0.116976
0.0977433
0.123043
0.0984837
0.095704
0.0868439
0.084034
0.0829153
0.079585
0.0817735
0.00033286
0.000360637
0.000361802
0.000355631
0.000348198
0.000359867
0.000410397
0.000443834
0.000444525
0.000447213
0.000442159
0.000462246
0.00046069
0.000462849
0.000452171
0.000395065
0.000387856
0.000385017
0.000390332
0.00045182
0.000525282
0.000705358
0.000855363
0.000883929
0.000898305
0.000861259
0.00070208
0.000584411
0.000471133
0.000390693
0.000359045
0.000347691
0.000359705
0.000370621
0.0003774
0.000377798
0.000369886
0.000339715
0.000302961
0.000275516
0.000263313
0.000262974
0.00026486
0.000267782
0.0002747
0.000279626
0.00028612
0.000289636
0.00028958
0.000283446
0.000269878
0.000252545
0.000243447
0.00023938
0.000238336
0.000243159
0.000259259
0.0003086
0.000364562
0.000424753
0.000497354
0.000541173
0.000638058
0.00071448
0.000874837
0.00107156
0.00137212
0.00193698
0.00254873
0.00392158
0.00522069
0.00801902
0.0114423
0.0157931
0.0247325
0.0327809
0.0503282
0.0664732
0.0931406
0.121402
0.159005
0.194741
0.237306
0.273895
0.307871
0.342866
0.361972
0.371782
0.370032
0.358423
0.342283
0.319253
0.279705
0.257727
0.223954
0.188071
0.174543
0.147499
0.131222
0.13306
0.132047
0.137575
0.179318
0.382677
0.506387
0.47171
0.362508
0.267774
0.186329
0.13129
0.100424
0.0824642
0.0743222
0.0697217
0.0664448
0.0619833
0.0588464
0.0557885
0.0556309
0.0512162
0.0486803
0.0480034
0.0490432
0.0502659
0.0551943
0.0769511
0.111002
0.130669
0.132346
0.126573
0.0943543
0.0575565
0.0406734
0.0366221
0.0370188
0.0382711
0.0402615
0.0468034
0.0693562
0.0952078
0.106744
0.119187
0.125152
0.124531
0.12048
0.107527
0.0879814
0.0751114
0.0687423
0.0612788
0.0569208
0.0541154
0.0524212
0.0497124
0.0483825
0.0483108
0.0487435
0.0503643
0.0558972
0.0617955
0.0740416
0.10632
0.204582
0.271565
0.290282
0.275589
0.256104
0.245681
0.237129
0.210095
0.161914
0.148884
0.141449
0.156054
0.154162
0.162319
0.159448
0.144771
0.149822
0.14819
0.136759
0.106048
0.0960077
0.0818664
0.0755411
0.0743722
0.0700191
0.0786787
0.188792
0.125051
0.460016
0.243476
0.364346
0.198105
0.129001
0.0968123
0.0879839
0.0865311
0.0831413
0.0828097
9.23859e-05
9.22785e-05
9.68524e-05
0.000121208
0.000144814
0.000145711
0.000139887
0.00013551
0.000141421
0.000156875
0.000162627
0.000159921
0.000143764
0.000133539
0.00013103
0.000130787
0.000128859
0.000127398
0.000123927
0.000124708
0.000129804
0.000144971
0.000162611
0.000165445
0.000164016
0.000163861
0.000154234
0.00014435
0.000137478
0.000130365
0.000128707
0.000129122
0.000129489
0.000130581
0.000131901
0.000131727
0.000131781
0.000132143
0.000133002
0.000142822
0.00017826
0.000210477
0.000246813
0.000267255
0.000278271
0.000283345
0.000281019
0.000281327
0.000279831
0.000272951
0.000273368
0.000274477
0.000275439
0.000285515
0.000303725
0.000341917
0.00043195
0.000724122
0.000925983
0.00122092
0.00157765
0.0018065
0.00227459
0.00265214
0.00338338
0.00417634
0.00573562
0.00728214
0.0097385
0.0142556
0.0185509
0.0273729
0.0352937
0.0532185
0.0701699
0.0970192
0.133941
0.176715
0.226325
0.287492
0.350972
0.407821
0.460351
0.501183
0.530335
0.547902
0.546637
0.538842
0.519728
0.488759
0.461443
0.42057
0.378152
0.337688
0.281991
0.247895
0.220691
0.18014
0.157207
0.14494
0.145549
0.175931
0.30947
0.490147
0.515984
0.453967
0.364481
0.28783
0.20337
0.139513
0.102813
0.0836786
0.0750185
0.0710969
0.0692952
0.0648243
0.0587818
0.0545469
0.0546793
0.051572
0.0504108
0.0491644
0.0499269
0.0506013
0.0545096
0.072463
0.108596
0.130215
0.134033
0.128222
0.0995771
0.0597716
0.0426353
0.0389585
0.0395412
0.0412631
0.0450223
0.0542804
0.0775197
0.0958158
0.108457
0.125447
0.135323
0.136454
0.134699
0.127462
0.109203
0.096073
0.0861444
0.0777416
0.0719733
0.0659505
0.0620039
0.0585036
0.0558734
0.0556588
0.0563264
0.0584011
0.0628415
0.0719628
0.0938891
0.172028
0.281802
0.323684
0.316217
0.279503
0.254716
0.237835
0.225019
0.181575
0.152634
0.142106
0.147905
0.159446
0.166291
0.174884
0.174671
0.17167
0.179081
0.175993
0.155618
0.118647
0.0971381
0.0799236
0.0736887
0.0724359
0.071605
0.089646
0.446055
0.258697
0.665951
0.527477
0.962336
0.573539
0.286051
0.13644
0.100733
0.0898967
0.085179
0.082961
9.86217e-05
0.00010205
0.000103001
0.000101645
0.00010374
0.000123822
0.00014164
0.000145955
0.000139482
0.000130343
0.000128347
0.000131785
0.000135165
0.00013208
0.000122349
0.000118574
0.000121566
0.000132035
0.000140033
0.000141082
0.000133812
0.000121926
0.000115433
0.000114622
0.000117576
0.000137459
0.000168351
0.000189197
0.000206256
0.000210811
0.000204987
0.000191691
0.000174934
0.000164969
0.000162766
0.000162762
0.000167906
0.000182737
0.000220371
0.000312048
0.000509194
0.000643715
0.000842358
0.00103534
0.00112974
0.00118841
0.00119351
0.00116397
0.00115416
0.0011234
0.00112102
0.00112615
0.00113544
0.0011931
0.00131803
0.00172398
0.00222076
0.00341541
0.00405208
0.00520897
0.00596183
0.00717391
0.00853007
0.00992894
0.0117912
0.0157797
0.0195053
0.0239107
0.0340343
0.0422384
0.0597322
0.0773285
0.101351
0.147883
0.182861
0.252988
0.320994
0.403442
0.475087
0.534299
0.566989
0.592458
0.610816
0.61947
0.626187
0.62176
0.609436
0.587302
0.55274
0.521379
0.481858
0.438423
0.405392
0.360392
0.313901
0.27753
0.233513
0.199296
0.179194
0.165485
0.169475
0.222821
0.390707
0.492971
0.489587
0.457581
0.410786
0.3351
0.238848
0.159314
0.113864
0.0902361
0.0785859
0.0734647
0.0717568
0.0683961
0.0615016
0.0584228
0.0569796
0.0532514
0.054779
0.052209
0.0519672
0.0515872
0.0552661
0.073408
0.10726
0.127609
0.133831
0.127288
0.099601
0.0620444
0.0467069
0.0435654
0.0442405
0.0472659
0.0536633
0.0612412
0.0775889
0.0911274
0.108553
0.125214
0.132597
0.135099
0.134575
0.129094
0.117588
0.112245
0.102217
0.0938951
0.0875764
0.0803804
0.0732046
0.0681575
0.0640853
0.0632258
0.0634536
0.0652619
0.0712483
0.0892363
0.140302
0.284758
0.353996
0.349317
0.316667
0.253259
0.21767
0.208546
0.18732
0.15329
0.140067
0.135811
0.142145
0.149108
0.162086
0.174236
0.178211
0.193874
0.213695
0.214305
0.188249
0.143628
0.106401
0.0843633
0.0759188
0.0725123
0.0741398
0.110425
0.330746
0.292843
0.326443
0.492795
0.695089
1.01875
0.753372
0.270206
0.142572
0.100241
0.0900714
0.0836937
0.00016672
0.000171433
0.000199037
0.000235076
0.000247831
0.000246437
0.000233844
0.000226192
0.00022346
0.000221413
0.000216609
0.000207079
0.000203514
0.000206454
0.000227026
0.0002422
0.000248747
0.000246337
0.000240679
0.000236587
0.000235249
0.000233044
0.00021593
0.000208731
0.000229456
0.000389236
0.000684754
0.000930829
0.0010832
0.00113908
0.00110762
0.000984796
0.000877344
0.000805823
0.000789808
0.000793981
0.00083424
0.000943675
0.00134889
0.00184493
0.00277586
0.00344281
0.0041895
0.00495608
0.00528115
0.00551642
0.0055729
0.00551527
0.00550714
0.00547623
0.0054675
0.00551606
0.00565866
0.0060419
0.00695839
0.00875306
0.0105712
0.0135149
0.0154821
0.0181177
0.0200362
0.024173
0.0269202
0.0327126
0.0376717
0.0476586
0.0572883
0.0748973
0.0927194
0.117085
0.162428
0.198112
0.274284
0.344801
0.43488
0.50923
0.561011
0.593239
0.611114
0.624318
0.628951
0.6384
0.642175
0.641919
0.641265
0.627196
0.60388
0.573688
0.515154
0.472355
0.442499
0.401422
0.367042
0.341236
0.311082
0.273341
0.236026
0.208125
0.182794
0.174226
0.189967
0.289247
0.417586
0.465341
0.454276
0.481324
0.473151
0.405049
0.301765
0.197137
0.130972
0.100178
0.0871073
0.0799247
0.0749494
0.0716914
0.0687981
0.0665372
0.060203
0.0568655
0.0599074
0.0540686
0.0539147
0.0536187
0.057869
0.0768068
0.107085
0.121899
0.128468
0.121896
0.0976014
0.070592
0.0585489
0.0562157
0.0589964
0.0645521
0.0685903
0.0715667
0.0779561
0.0884875
0.105074
0.111115
0.112499
0.116999
0.121485
0.120563
0.115404
0.11302
0.109127
0.105906
0.100161
0.0920683
0.0834452
0.0755788
0.0710369
0.0707646
0.0712055
0.0749627
0.088297
0.128273
0.270529
0.380137
0.386884
0.351838
0.255582
0.194757
0.177801
0.172143
0.15468
0.136138
0.128913
0.127398
0.128758
0.130348
0.138209
0.157603
0.170584
0.210179
0.256313
0.251954
0.211467
0.167367
0.112818
0.095273
0.0834153
0.0834367
0.081523
0.158983
0.298777
0.314199
0.341928
0.491884
0.578664
1.11905
1.05983
0.562467
0.246103
0.129188
0.101739
0.0868577
0.00236321
0.00246684
0.0024728
0.00245801
0.00241657
0.00235673
0.00233304
0.00231078
0.00231095
0.0023389
0.00241728
0.00253882
0.0026034
0.00276306
0.00288779
0.00294515
0.00297692
0.00292135
0.00275634
0.00259583
0.00242604
0.00237113
0.00235572
0.00239071
0.00288003
0.00395262
0.00518461
0.00633272
0.00700055
0.0072467
0.00712467
0.00661743
0.00638941
0.00627904
0.00628555
0.00648197
0.00694137
0.00804275
0.0101711
0.0115567
0.0141516
0.0160138
0.0175778
0.0194694
0.0201876
0.0208643
0.0213542
0.0214249
0.0215621
0.0217532
0.0220406
0.0226894
0.0239949
0.0257791
0.0297837
0.0334693
0.0392581
0.0429516
0.0494902
0.0537434
0.059507
0.0695935
0.0774852
0.0895879
0.108985
0.12567
0.157781
0.190098
0.237085
0.297871
0.378819
0.461806
0.527838
0.571494
0.603689
0.614301
0.630166
0.63125
0.629897
0.623363
0.608225
0.605936
0.600758
0.602292
0.591036
0.55548
0.499992
0.438747
0.394187
0.366153
0.351485
0.337811
0.315872
0.297355
0.28189
0.256856
0.227991
0.202182
0.179131
0.177699
0.212893
0.325355
0.41492
0.405438
0.40852
0.488467
0.557783
0.510135
0.404593
0.272591
0.1713
0.120488
0.0990357
0.0890104
0.0828665
0.0790085
0.0754525
0.0711233
0.0674734
0.0658937
0.0611051
0.0567716
0.0561698
0.058653
0.0638031
0.0860315
0.108405
0.122522
0.122887
0.116461
0.0966051
0.0777981
0.0720164
0.0761727
0.0812271
0.0821284
0.082588
0.0843288
0.085438
0.0902
0.0958192
0.0953215
0.0938736
0.0943503
0.0957434
0.101446
0.106739
0.108881
0.108279
0.106948
0.103867
0.0934046
0.085717
0.0800708
0.0775181
0.0779989
0.0808909
0.0908419
0.123781
0.257313
0.396194
0.420266
0.397192
0.276339
0.195562
0.157405
0.148103
0.144312
0.133339
0.121853
0.120541
0.119082
0.118254
0.110467
0.102626
0.106432
0.131218
0.215316
0.271589
0.271046
0.24669
0.208659
0.118643
0.099127
0.0891828
0.0914373
0.12341
0.169546
0.279241
0.301384
0.380616
0.552869
0.68476
0.998771
1.11915
0.863756
0.424803