/*--------------------------------*- C++ -*----------------------------------*\
| =========                 |                                                 |
| \\      /  F ield         | OpenFOAM: The Open Source CFD Toolbox           |
|  \\    /   O peration     | Version:  2.4.0                                 |
|   \\  /    A nd           | Web:      www.OpenFOAM.org                      |
|    \\/     M anipulation  |                                                 |
\*---------------------------------------------------------------------------*/
FoamFile
{
    version     2.0;
    format      ascii;
    class       volScalarField;
    location    "1.71";
    object      nuSgs;
}
// * * * * * * * * * * * * * * * * * * * * * * * * * * * * * * * * * * * * * //

dimensions      [0 2 -1 0 0 0 0];

internalField   nonuniform List<scalar> 
8800
(
0.00133869
0.00150677
0.00139268
0.00122964
0.00112005
0.00105171
0.000996091
0.00096095
0.000925011
0.000905435
0.000877877
0.000868968
0.000845983
0.00084014
0.000820494
0.000815498
0.00079612
0.000791039
0.000779995
0.000757771
0.000554444
0.000981964
0.00108285
0.00108144
0.00106234
0.00103545
0.00100085
0.000978181
0.000948599
0.0009323
0.000905857
0.000896776
0.000875477
0.000868401
0.000852596
0.000846447
0.000831732
0.000826447
0.000813532
0.000811141
0.000135719
0.000406519
0.000583492
0.000658839
0.000704352
0.000738062
0.000750931
0.000761123
0.000760001
0.000759486
0.000754551
0.000751547
0.000745081
0.000741022
0.000736195
0.000731289
0.000727986
0.000722396
0.000715657
0.000713018
2.69304e-05
0.000125626
0.000231859
0.000309797
0.000357004
0.000395483
0.000427986
0.000456174
0.000474252
0.000492278
0.000508714
0.000515125
0.000529495
0.000535183
0.000545431
0.00054911
0.000559389
0.000560177
0.000563395
0.000563164
5.11633e-06
3.35259e-05
6.8215e-05
0.000106037
0.000143071
0.000161735
0.000189749
0.000214067
0.000232838
0.000247983
0.000270329
0.0002782
0.000295464
0.000304951
0.000320576
0.000328511
0.000347619
0.000353932
0.000362711
0.000373099
2.38634e-06
8.49903e-06
1.76042e-05
2.78575e-05
4.29252e-05
5.19232e-05
6.04171e-05
7.74734e-05
8.66343e-05
9.50256e-05
0.00011099
0.000116783
0.000125731
0.000138206
0.000144613
0.000152634
0.000167233
0.000176596
0.000181898
0.000193972
2.22255e-06
3.17012e-06
5.16565e-06
7.40634e-06
1.11285e-05
1.4035e-05
1.59642e-05
2.13998e-05
2.43209e-05
2.81454e-05
3.40395e-05
3.64971e-05
3.90595e-05
4.67392e-05
4.94744e-05
5.4619e-05
5.87453e-05
6.78749e-05
7.1315e-05
7.74244e-05
2.15786e-06
2.62721e-06
3.22501e-06
4.19643e-06
4.71216e-06
5.08388e-06
5.28894e-06
6.34702e-06
6.84189e-06
8.04558e-06
8.86879e-06
9.91261e-06
1.02948e-05
1.26048e-05
1.30962e-05
1.48766e-05
1.60436e-05
1.99862e-05
2.13055e-05
2.53612e-05
2.14471e-06
2.64365e-06
2.9638e-06
3.53902e-06
3.96387e-06
4.00697e-06
4.01134e-06
4.19483e-06
4.30294e-06
4.45743e-06
4.48781e-06
4.5194e-06
4.56124e-06
4.97338e-06
5.04186e-06
5.27111e-06
5.49636e-06
6.24958e-06
6.44624e-06
7.761e-06
2.13471e-06
2.55117e-06
2.91409e-06
3.2933e-06
3.79969e-06
3.94949e-06
3.9e-06
3.85675e-06
3.86074e-06
3.96738e-06
4.06199e-06
4.07588e-06
4.13512e-06
4.26061e-06
4.22919e-06
4.16853e-06
4.20155e-06
4.26202e-06
4.2746e-06
4.43617e-06
2.12902e-06
2.6162e-06
2.94358e-06
3.24459e-06
3.8458e-06
4.0034e-06
3.91556e-06
3.86534e-06
3.85657e-06
3.89487e-06
4.10774e-06
4.24613e-06
4.22629e-06
4.20998e-06
4.1644e-06
4.15047e-06
4.16755e-06
4.32375e-06
4.39362e-06
4.46794e-06
2.14192e-06
2.48653e-06
2.91317e-06
3.86093e-06
4.05878e-06
3.98082e-06
3.9111e-06
4.01569e-06
4.13479e-06
4.43933e-06
4.6744e-06
4.69145e-06
4.6926e-06
4.85303e-06
4.95672e-06
4.98301e-06
5.20023e-06
5.87321e-06
5.97271e-06
6.03197e-06
2.15329e-06
2.53935e-06
3.48761e-06
4.33456e-06
4.40794e-06
4.69772e-06
5.18707e-06
6.29034e-06
6.88122e-06
8.14922e-06
8.66976e-06
9.6756e-06
1.03688e-05
1.2222e-05
1.29918e-05
1.391e-05
1.57833e-05
1.86408e-05
1.93502e-05
2.09093e-05
2.18555e-06
3.09606e-06
5.32045e-06
8.84749e-06
1.03757e-05
1.36409e-05
1.61009e-05
2.10671e-05
2.40178e-05
2.9811e-05
3.22928e-05
3.76619e-05
4.03213e-05
4.60035e-05
4.87221e-05
5.4713e-05
5.83548e-05
6.60575e-05
6.9063e-05
7.6304e-05
2.34672e-06
8.2199e-06
1.90869e-05
3.2702e-05
3.90907e-05
5.25845e-05
6.12489e-05
7.70336e-05
8.51723e-05
0.000100344
0.000106474
0.000119508
0.000125489
0.00013791
0.000143413
0.000155959
0.000162436
0.000176557
0.000182277
0.000197954
5.21982e-06
3.29782e-05
7.55955e-05
0.000111443
0.000131621
0.000167742
0.000187909
0.000214217
0.000230512
0.000253763
0.000263178
0.000282675
0.000291337
0.000308801
0.000315979
0.000333077
0.000340617
0.000357737
0.000364623
0.000383337
2.7267e-05
0.000123844
0.00024219
0.000303111
0.000357356
0.000395222
0.000429455
0.000452271
0.000476034
0.000492878
0.000504423
0.000518676
0.000526755
0.000536871
0.000541478
0.000551694
0.000555345
0.000564059
0.000567221
0.00057621
0.000136672
0.000400643
0.00058944
0.000653553
0.00070976
0.000732894
0.000755146
0.000756986
0.000761721
0.00075762
0.000755957
0.000749052
0.000746758
0.000739007
0.00073687
0.000730527
0.000728881
0.000724173
0.000722488
0.00071827
0.000557162
0.000980419
0.00108416
0.00108045
0.00106481
0.00102911
0.0010072
0.000971537
0.000955351
0.00092444
0.000913839
0.000889012
0.000882067
0.00086275
0.000858197
0.000841574
0.0008383
0.000823135
0.000818891
0.000806466
0.00133913
0.00150591
0.00139373
0.00122687
0.0011239
0.00104624
0.00100165
0.000955065
0.000931709
0.000897664
0.000886752
0.00086042
0.000854909
0.000833165
0.000830046
0.000808796
0.00080574
0.000782679
0.000776526
0.000748429
0.000344662
0.000288823
0.000253176
0.0002304
0.000215259
0.000205656
0.000198556
0.000193372
0.000189021
0.000185205
0.000181872
0.000178552
0.000175273
0.000172192
0.000169167
0.000165657
0.000162957
0.000158452
0.000154506
0.000146518
0.000137536
0.000126656
0.000117435
0.000109798
0.000104275
0.000101048
9.8987e-05
9.94889e-05
0.000101516
0.000105416
0.000111521
0.000119778
0.000126922
0.000135363
0.000141492
0.000146227
0.000152806
0.000156789
0.000159844
0.00016121
0.000163112
0.000163408
0.000164469
0.00016447
0.000163946
0.000162935
0.000161535
0.000157843
0.000155131
0.000153923
0.00015268
0.000152278
0.000151662
0.000150747
0.000150295
0.00014982
0.000149025
0.000147441
0.000146973
0.000146247
0.000143593
0.000143592
0.000143416
0.000142404
0.000141391
0.000141351
0.000142324
0.000142326
0.000141262
0.000141619
0.000141254
0.000139693
0.00013989
0.000139468
0.000136912
0.000135016
0.000133525
0.000129196
0.000125649
0.000120862
0.00011087
0.000101619
8.65728e-05
7.03289e-05
5.61498e-05
4.44082e-05
3.58338e-05
2.95719e-05
2.65812e-05
2.52694e-05
2.55772e-05
2.6982e-05
2.72478e-05
2.79462e-05
2.98427e-05
2.98795e-05
3.02451e-05
3.08474e-05
3.07525e-05
3.12357e-05
3.3293e-05
3.43226e-05
3.59789e-05
3.92713e-05
4.23736e-05
4.55437e-05
5.18862e-05
6.55964e-05
9.28632e-05
0.000117958
0.000126058
0.000125217
0.000122655
0.000117737
0.000111347
0.000109011
0.00010472
0.000101628
0.000100163
9.84578e-05
9.77104e-05
9.70656e-05
9.58633e-05
9.33445e-05
8.73572e-05
7.12037e-05
6.15941e-05
5.4982e-05
5.13709e-05
5.03009e-05
5.08537e-05
5.08042e-05
4.93765e-05
4.66758e-05
4.60985e-05
5.13551e-05
7.50448e-05
8.90891e-05
9.1219e-05
8.68383e-05
7.26197e-05
6.01393e-05
5.29124e-05
4.79617e-05
4.51492e-05
4.30852e-05
4.23371e-05
4.20001e-05
4.17217e-05
4.10946e-05
3.97474e-05
3.8412e-05
3.79741e-05
3.72752e-05
3.72137e-05
3.71822e-05
3.72757e-05
3.73886e-05
3.79523e-05
3.91171e-05
4.36177e-05
5.00741e-05
5.3715e-05
5.93161e-05
7.64141e-05
8.81114e-05
9.1374e-05
9.04482e-05
8.76375e-05
8.32946e-05
8.06393e-05
7.76989e-05
7.47456e-05
7.29766e-05
7.31197e-05
7.55909e-05
7.84852e-05
8.07625e-05
8.0187e-05
7.80837e-05
7.84019e-05
7.69894e-05
7.48899e-05
7.47352e-05
7.45631e-05
7.42695e-05
7.40384e-05
7.35932e-05
7.23212e-05
6.85843e-05
5.85146e-05
5.2911e-05
5.06757e-05
4.99447e-05
5.01201e-05
5.22307e-05
5.70317e-05
6.94926e-05
0.000118475
0.000325971
0.000409967
0.000371994
0.000339689
0.000314013
0.000294038
0.000278256
0.00026595
0.000256264
0.000248317
0.000241573
0.000236102
0.000230267
0.000226089
0.000221029
0.000217696
0.000214105
0.000210617
0.000208135
0.000204453
0.000201906
0.000197225
0.000193084
0.00018704
0.000181515
0.000175491
0.000170298
0.000167992
0.000166587
0.00016671
0.000167662
0.000168998
0.000170721
0.000172372
0.000173143
0.000174054
0.000174548
0.000175326
0.00017562
0.000176384
0.000176803
0.000177365
0.000178261
0.000178289
0.000179214
0.000179295
0.000178613
0.000178111
0.00017707
0.000174842
0.000174002
0.000171588
0.000170372
0.000169593
0.000167917
0.000166802
0.000165862
0.000165473
0.000164695
0.000162354
0.000161764
0.000161164
0.000159758
0.000157158
0.000156
0.000155127
0.000152544
0.000150759
0.000149497
0.000146184
0.00014349
0.000142281
0.000139377
0.000133527
0.000131034
0.00012619
0.000118304
0.000112352
0.000101242
9.1701e-05
7.79922e-05
6.52061e-05
5.44388e-05
4.42451e-05
3.65709e-05
3.01195e-05
2.62816e-05
2.35262e-05
2.25721e-05
2.30404e-05
2.35509e-05
2.49535e-05
2.62281e-05
2.69075e-05
2.94822e-05
3.07082e-05
3.12644e-05
3.28901e-05
3.41349e-05
3.50549e-05
3.78722e-05
3.95166e-05
4.09846e-05
4.50005e-05
4.77504e-05
4.99497e-05
5.5154e-05
6.87281e-05
9.89139e-05
0.000126993
0.000133424
0.000131776
0.000126245
0.000115733
0.000105585
9.52502e-05
9.08463e-05
8.68233e-05
8.24802e-05
8.25164e-05
8.35603e-05
8.55861e-05
9.06414e-05
9.36925e-05
9.33707e-05
9.19736e-05
8.73222e-05
7.41108e-05
6.07473e-05
5.34636e-05
5.07627e-05
4.98766e-05
4.9777e-05
4.9061e-05
4.71792e-05
4.64027e-05
4.85563e-05
6.55803e-05
8.36702e-05
8.88124e-05
8.75249e-05
7.81448e-05
6.45094e-05
5.5318e-05
4.93313e-05
4.57806e-05
4.36363e-05
4.2482e-05
4.22901e-05
4.25228e-05
4.26367e-05
4.22549e-05
4.10472e-05
4.01255e-05
3.93779e-05
3.88523e-05
3.86102e-05
3.86437e-05
3.87579e-05
3.92312e-05
4.03988e-05
4.51645e-05
5.06223e-05
5.44062e-05
6.11847e-05
8.00813e-05
9.17476e-05
9.45082e-05
9.36333e-05
9.15745e-05
9.0583e-05
8.86625e-05
8.32409e-05
7.92145e-05
7.84921e-05
7.95982e-05
8.15786e-05
8.20319e-05
8.29843e-05
8.19647e-05
7.99746e-05
8.06122e-05
8.03871e-05
7.75237e-05
7.43234e-05
7.21887e-05
7.1443e-05
7.2013e-05
7.30499e-05
7.31183e-05
7.2684e-05
6.96313e-05
6.03121e-05
5.34263e-05
5.07562e-05
5.03419e-05
5.15005e-05
5.92462e-05
6.74618e-05
0.000110651
0.000230518
0.000371995
0.000351247
0.000331398
0.000312823
0.000296777
0.000282911
0.000271602
0.000262358
0.000254664
0.000248373
0.000243057
0.000237959
0.000233612
0.000228638
0.000225631
0.000221596
0.000218149
0.000216731
0.000212918
0.000211419
0.000209498
0.000206299
0.000204841
0.000201619
0.000198948
0.000196613
0.000193228
0.00019171
0.000188675
0.000186649
0.000184721
0.000182524
0.000180939
0.000179009
0.000177509
0.000175391
0.000174532
0.000172639
0.000171339
0.000170924
0.00016933
0.000168851
0.000168427
0.000167352
0.000167329
0.000166557
0.000165352
0.000164935
0.000163382
0.000162154
0.000160671
0.000158938
0.000158265
0.000156434
0.000155074
0.000154364
0.000152716
0.000150892
0.000150119
0.000148517
0.00014704
0.000144638
0.000142972
0.000140161
0.000137919
0.000135765
0.000130369
0.000126202
0.000123197
0.000115228
0.00010951
0.000103587
9.28781e-05
8.64099e-05
7.62498e-05
6.67447e-05
5.85082e-05
5.02056e-05
4.33392e-05
3.68836e-05
3.1401e-05
2.69414e-05
2.37236e-05
2.16282e-05
2.05698e-05
2.06804e-05
2.07696e-05
2.12982e-05
2.28135e-05
2.3828e-05
2.66929e-05
2.84751e-05
3.03546e-05
3.40352e-05
3.51664e-05
3.7293e-05
4.06347e-05
4.13687e-05
4.34871e-05
4.5579e-05
4.62183e-05
4.93913e-05
5.30913e-05
5.43938e-05
5.79746e-05
6.9648e-05
0.000100371
0.000134162
0.000140538
0.000137647
0.000128666
0.000108947
9.30487e-05
8.4159e-05
7.7548e-05
7.47076e-05
7.34788e-05
7.07806e-05
6.96501e-05
7.00218e-05
7.10879e-05
7.42383e-05
8.34612e-05
9.01307e-05
9.10567e-05
9.02615e-05
8.67671e-05
7.42951e-05
6.00331e-05
5.30417e-05
5.03583e-05
4.9654e-05
4.83054e-05
4.6995e-05
4.62791e-05
4.71442e-05
5.72185e-05
7.85541e-05
8.60932e-05
8.64863e-05
8.31638e-05
7.00408e-05
5.91927e-05
5.24673e-05
4.76036e-05
4.50799e-05
4.35585e-05
4.33525e-05
4.36101e-05
4.39132e-05
4.37099e-05
4.28534e-05
4.20558e-05
4.13539e-05
4.07609e-05
4.04409e-05
4.04544e-05
4.04918e-05
4.09174e-05
4.20651e-05
4.67316e-05
5.19731e-05
5.62288e-05
6.50412e-05
8.53688e-05
9.52608e-05
9.79829e-05
9.79183e-05
9.8044e-05
9.76147e-05
9.52975e-05
8.85602e-05
8.48675e-05
8.41721e-05
8.43144e-05
8.53104e-05
8.53068e-05
8.42962e-05
8.36379e-05
8.2781e-05
8.36315e-05
8.37292e-05
8.11254e-05
7.77715e-05
7.31492e-05
6.97603e-05
6.97558e-05
7.01461e-05
7.21926e-05
7.30011e-05
7.22608e-05
6.94368e-05
5.92593e-05
5.24387e-05
5.13715e-05
5.10399e-05
5.89205e-05
6.40625e-05
9.52775e-05
0.000165212
0.000299681
0.000289538
0.000280016
0.000269716
0.000260147
0.000249655
0.000240506
0.000233105
0.000225907
0.000221643
0.000217203
0.000213681
0.0002114
0.000207487
0.000205688
0.000203103
0.000200529
0.000199529
0.000196857
0.000195733
0.000193996
0.000191891
0.000190783
0.000187846
0.0001863
0.000184114
0.00018103
0.000179514
0.000176424
0.000173202
0.000171374
0.000166747
0.000164329
0.000160511
0.000156176
0.000154008
0.000148847
0.000145627
0.000143488
0.000139046
0.000137407
0.000135443
0.000132875
0.000132064
0.000130879
0.000129848
0.000128353
0.000127433
0.000126275
0.000123713
0.000122454
0.00012133
0.000118753
0.000117251
0.00011582
0.000113244
0.000110425
0.000109249
0.000106922
0.000104198
0.000102642
9.89146e-05
9.64528e-05
9.34573e-05
8.72758e-05
8.42619e-05
7.88281e-05
7.27873e-05
6.8837e-05
6.22747e-05
5.66675e-05
5.15539e-05
4.5702e-05
4.08074e-05
3.58381e-05
3.14613e-05
2.75795e-05
2.42237e-05
2.14495e-05
1.97143e-05
1.84683e-05
1.82064e-05
1.83553e-05
1.86458e-05
1.94125e-05
2.0603e-05
2.1844e-05
2.4849e-05
2.73146e-05
3.07174e-05
3.46843e-05
3.66373e-05
4.04691e-05
4.42154e-05
4.53636e-05
4.81227e-05
4.90456e-05
4.97634e-05
5.28855e-05
5.31724e-05
5.39358e-05
5.87331e-05
5.95939e-05
6.15122e-05
6.98435e-05
9.47302e-05
0.00013883
0.000148607
0.000144862
0.000130936
0.000106754
9.09988e-05
8.11543e-05
7.51487e-05
7.09309e-05
6.91397e-05
6.79719e-05
6.64726e-05
6.43018e-05
6.36293e-05
6.37579e-05
6.49645e-05
6.8883e-05
8.01342e-05
8.79712e-05
8.97867e-05
8.96091e-05
8.62114e-05
7.39937e-05
6.0176e-05
5.28264e-05
5.01852e-05
4.78359e-05
4.64314e-05
4.57261e-05
4.61556e-05
5.13627e-05
7.12794e-05
8.21532e-05
8.50039e-05
8.40907e-05
7.76943e-05
6.50439e-05
5.66878e-05
5.07572e-05
4.7338e-05
4.53412e-05
4.445e-05
4.41785e-05
4.43336e-05
4.42559e-05
4.36505e-05
4.33564e-05
4.32492e-05
4.27371e-05
4.24163e-05
4.22672e-05
4.23147e-05
4.27663e-05
4.41325e-05
4.92089e-05
5.38891e-05
5.86075e-05
7.03772e-05
9.14277e-05
0.000100753
0.000102804
0.00010313
0.000104722
0.000104743
0.000102007
9.49618e-05
9.08264e-05
8.82466e-05
8.80576e-05
8.64315e-05
8.64263e-05
8.43189e-05
8.47835e-05
8.50075e-05
8.57306e-05
8.51101e-05
8.14283e-05
7.85026e-05
7.4114e-05
6.95157e-05
6.81949e-05
6.80017e-05
6.84811e-05
7.23111e-05
7.23882e-05
7.156e-05
6.83173e-05
5.67408e-05
5.35101e-05
5.18722e-05
6.10514e-05
6.43754e-05
7.9624e-05
0.000124601
0.000200858
0.000197746
0.000194873
0.000190514
0.000188164
0.000182312
0.000177771
0.000172629
0.000166633
0.00016421
0.000160851
0.000159232
0.000158661
0.000157147
0.000156826
0.000156211
0.000155165
0.000154827
0.000153598
0.000152955
0.000152423
0.000150962
0.000149794
0.000148155
0.000145668
0.000143862
0.000141479
0.000138169
0.00013629
0.000132212
0.000129814
0.000125928
0.00012102
0.000118818
0.000113298
0.000109396
0.000105726
0.000100158
9.79928e-05
9.29762e-05
8.99723e-05
8.78433e-05
8.42664e-05
8.33287e-05
8.15e-05
8.04065e-05
7.98831e-05
7.82276e-05
7.70791e-05
7.54624e-05
7.34029e-05
7.20696e-05
7.00091e-05
6.83074e-05
6.71746e-05
6.48654e-05
6.25148e-05
6.13325e-05
5.84815e-05
5.64953e-05
5.51262e-05
5.21404e-05
5.04801e-05
4.85452e-05
4.56159e-05
4.34244e-05
4.05462e-05
3.74398e-05
3.45362e-05
3.13296e-05
2.82108e-05
2.52707e-05
2.24249e-05
2.00606e-05
1.80091e-05
1.62687e-05
1.53401e-05
1.50349e-05
1.51869e-05
1.5654e-05
1.62932e-05
1.77085e-05
1.9336e-05
2.1164e-05
2.53183e-05
2.86855e-05
3.16884e-05
3.79421e-05
4.07306e-05
4.59465e-05
4.852e-05
5.10792e-05
5.58347e-05
5.70007e-05
5.74508e-05
5.87098e-05
5.88055e-05
6.08266e-05
6.21568e-05
6.18831e-05
6.38347e-05
6.46905e-05
6.55966e-05
7.10978e-05
8.83907e-05
0.000134674
0.000154964
0.000153243
0.000138104
0.000111839
9.46602e-05
8.29874e-05
7.58751e-05
7.08562e-05
6.82102e-05
6.65775e-05
6.50084e-05
6.34538e-05
6.15239e-05
6.02074e-05
5.96589e-05
5.99991e-05
6.17956e-05
6.69866e-05
8.08896e-05
8.82114e-05
9.02485e-05
8.91245e-05
8.32751e-05
6.75847e-05
5.68706e-05
5.13976e-05
4.79346e-05
4.6319e-05
4.56507e-05
4.58343e-05
4.86526e-05
6.48613e-05
7.95689e-05
8.38973e-05
8.41675e-05
8.23277e-05
7.39517e-05
6.31742e-05
5.56047e-05
5.10087e-05
4.82438e-05
4.61578e-05
4.5282e-05
4.51346e-05
4.47415e-05
4.42567e-05
4.41806e-05
4.42941e-05
4.42989e-05
4.40705e-05
4.40451e-05
4.41869e-05
4.48899e-05
4.70725e-05
5.24126e-05
5.66426e-05
6.20982e-05
7.80817e-05
9.90071e-05
0.000107251
0.000108608
0.000109338
0.000111681
0.000111522
0.00010639
0.000100015
9.30108e-05
9.12793e-05
8.91717e-05
8.57247e-05
8.59848e-05
8.56586e-05
8.57063e-05
8.7967e-05
8.80329e-05
8.69477e-05
8.08635e-05
7.77995e-05
7.64421e-05
7.11089e-05
6.82899e-05
6.84712e-05
6.79648e-05
6.985e-05
7.30573e-05
7.22673e-05
7.10507e-05
6.39994e-05
6.07879e-05
5.51078e-05
7.05161e-05
6.71276e-05
6.9631e-05
9.46003e-05
0.000104965
0.000104756
0.000105144
0.000105073
0.000105393
0.000104323
0.000102991
0.000100164
9.6175e-05
9.4889e-05
9.24883e-05
9.24623e-05
9.28124e-05
9.29236e-05
9.39388e-05
9.42496e-05
9.47199e-05
9.52548e-05
9.53714e-05
9.62416e-05
9.65917e-05
9.66946e-05
9.66307e-05
9.62094e-05
9.51535e-05
9.31244e-05
8.98501e-05
8.75146e-05
8.45751e-05
8.11489e-05
7.89625e-05
7.54898e-05
7.20456e-05
7.00501e-05
6.57557e-05
6.34041e-05
6.10769e-05
5.7266e-05
5.58017e-05
5.29922e-05
5.0672e-05
4.92975e-05
4.66934e-05
4.55962e-05
4.45577e-05
4.36783e-05
4.33707e-05
4.27455e-05
4.2118e-05
4.1499e-05
3.97938e-05
3.86275e-05
3.75982e-05
3.59312e-05
3.51486e-05
3.41196e-05
3.24026e-05
3.16147e-05
2.98739e-05
2.84582e-05
2.72021e-05
2.59998e-05
2.48195e-05
2.35404e-05
2.26611e-05
2.12596e-05
1.98056e-05
1.86534e-05
1.69494e-05
1.55675e-05
1.42845e-05
1.32308e-05
1.23314e-05
1.19047e-05
1.20135e-05
1.22273e-05
1.29213e-05
1.40157e-05
1.54585e-05
1.81978e-05
2.0849e-05
2.63653e-05
2.9994e-05
3.48726e-05
4.22648e-05
4.60596e-05
5.22584e-05
5.77489e-05
6.13334e-05
6.61055e-05
6.76784e-05
7.05331e-05
7.25071e-05
7.23489e-05
7.22498e-05
7.16432e-05
7.10595e-05
7.12019e-05
6.98148e-05
6.94022e-05
7.1157e-05
7.14881e-05
7.41084e-05
8.48938e-05
0.000120587
0.000158161
0.000161505
0.000150523
0.000123096
0.000102592
8.85337e-05
7.87841e-05
7.30873e-05
6.88709e-05
6.72982e-05
6.541e-05
6.33609e-05
6.1299e-05
5.97656e-05
5.8481e-05
5.80433e-05
5.80879e-05
5.89738e-05
6.1667e-05
7.04026e-05
8.43082e-05
9.00213e-05
9.06446e-05
8.85212e-05
7.86062e-05
6.35673e-05
5.36457e-05
4.83605e-05
4.63216e-05
4.581e-05
4.58609e-05
4.7512e-05
5.77805e-05
7.63843e-05
8.27934e-05
8.4647e-05
8.42448e-05
8.17875e-05
7.30114e-05
6.3656e-05
5.71766e-05
5.23513e-05
4.89511e-05
4.73295e-05
4.66e-05
4.59736e-05
4.54751e-05
4.53983e-05
4.55748e-05
4.58131e-05
4.60015e-05
4.62023e-05
4.65915e-05
4.76049e-05
5.10872e-05
5.53126e-05
5.95425e-05
6.67453e-05
8.84306e-05
0.000108481
0.000114204
0.000115033
0.000116932
0.000119371
0.000117828
0.000109768
0.000103104
9.50993e-05
9.21415e-05
8.84198e-05
8.66695e-05
8.74754e-05
8.75237e-05
8.67942e-05
8.83122e-05
8.78047e-05
8.66174e-05
8.07118e-05
7.87658e-05
7.74959e-05
7.32198e-05
6.93894e-05
6.79828e-05
6.84566e-05
6.82461e-05
7.12729e-05
7.17575e-05
7.24571e-05
6.85271e-05
7.26823e-05
6.40275e-05
6.9751e-05
7.06428e-05
7.05488e-05
8.02651e-05
4.3571e-05
4.53257e-05
4.5869e-05
4.60735e-05
4.66343e-05
4.59478e-05
4.54599e-05
4.41816e-05
4.2222e-05
4.1843e-05
4.10998e-05
4.1487e-05
4.19929e-05
4.26292e-05
4.45947e-05
4.4963e-05
4.57166e-05
4.64061e-05
4.66729e-05
4.78644e-05
4.83264e-05
4.93424e-05
4.97469e-05
4.95498e-05
4.91781e-05
4.8137e-05
4.63625e-05
4.5098e-05
4.26092e-05
4.1243e-05
3.96018e-05
3.75736e-05
3.64688e-05
3.47565e-05
3.33164e-05
3.23808e-05
3.10079e-05
2.95786e-05
2.85241e-05
2.68186e-05
2.55323e-05
2.43719e-05
2.29344e-05
2.23052e-05
2.16105e-05
2.1296e-05
2.12996e-05
2.12799e-05
2.12469e-05
2.10969e-05
2.01766e-05
1.91411e-05
1.8568e-05
1.74921e-05
1.69041e-05
1.64405e-05
1.56429e-05
1.49566e-05
1.42825e-05
1.34873e-05
1.26192e-05
1.22064e-05
1.16311e-05
1.0951e-05
1.06918e-05
1.03116e-05
9.71901e-06
9.54286e-06
9.30538e-06
9.35091e-06
9.48693e-06
9.76563e-06
1.02093e-05
1.09403e-05
1.22655e-05
1.37946e-05
1.77149e-05
2.09041e-05
2.61064e-05
3.10874e-05
3.66891e-05
4.59855e-05
5.11131e-05
5.969e-05
6.68268e-05
7.25639e-05
8.02635e-05
8.503e-05
8.87269e-05
9.11065e-05
9.24362e-05
9.29339e-05
9.24371e-05
9.03399e-05
8.86865e-05
8.4754e-05
8.28836e-05
8.13657e-05
7.70931e-05
7.74559e-05
7.76082e-05
7.75954e-05
8.25349e-05
0.000100549
0.000149744
0.000169434
0.000164844
0.000141001
0.000116808
9.78106e-05
8.50888e-05
7.64002e-05
7.1592e-05
6.81212e-05
6.6882e-05
6.45174e-05
6.28129e-05
6.03692e-05
5.93931e-05
5.7545e-05
5.68761e-05
5.67905e-05
5.74456e-05
5.9106e-05
6.41766e-05
7.87759e-05
8.91006e-05
9.22332e-05
9.13266e-05
8.63443e-05
7.05258e-05
5.77803e-05
4.97048e-05
4.64845e-05
4.621e-05
4.61294e-05
4.73774e-05
5.28835e-05
6.91837e-05
8.04091e-05
8.44872e-05
8.50993e-05
8.45905e-05
8.17746e-05
7.2439e-05
6.43308e-05
5.78122e-05
5.31544e-05
5.09229e-05
4.96152e-05
4.84412e-05
4.79938e-05
4.80397e-05
4.84272e-05
4.86361e-05
4.88645e-05
4.91688e-05
4.98225e-05
5.12814e-05
5.55652e-05
5.88458e-05
6.41325e-05
7.49038e-05
0.00010306
0.000118605
0.000121804
0.00012256
0.00012456
0.000124293
0.000120509
0.000111743
0.000100728
9.72993e-05
9.20475e-05
9.20446e-05
8.8559e-05
9.13191e-05
8.94782e-05
8.78455e-05
8.80339e-05
8.7657e-05
8.59138e-05
8.28068e-05
7.92414e-05
7.73335e-05
7.07699e-05
6.98697e-05
6.77222e-05
6.80347e-05
6.81746e-05
6.9334e-05
7.20615e-05
7.9781e-05
7.54058e-05
8.01184e-05
7.47814e-05
7.10482e-05
7.18173e-05
7.14831e-05
7.49022e-05
1.57509e-05
1.61138e-05
1.60579e-05
1.60683e-05
1.62419e-05
1.58297e-05
1.57239e-05
1.52234e-05
1.50961e-05
1.52954e-05
1.54703e-05
1.59948e-05
1.63469e-05
1.66172e-05
1.72259e-05
1.71731e-05
1.74248e-05
1.7509e-05
1.74951e-05
1.79173e-05
1.81455e-05
1.9206e-05
2.04595e-05
2.06889e-05
2.08158e-05
2.06174e-05
1.96832e-05
1.88793e-05
1.73804e-05
1.64343e-05
1.55431e-05
1.46694e-05
1.43258e-05
1.39273e-05
1.36469e-05
1.35055e-05
1.3168e-05
1.27673e-05
1.21237e-05
1.12425e-05
1.06134e-05
9.95358e-06
9.35898e-06
9.02489e-06
8.86265e-06
8.84508e-06
8.94764e-06
9.14513e-06
9.21095e-06
9.20575e-06
8.89e-06
8.20971e-06
7.86413e-06
7.43428e-06
7.05095e-06
6.92645e-06
6.77644e-06
6.53412e-06
6.50723e-06
6.43475e-06
6.27199e-06
6.28206e-06
6.33149e-06
6.38275e-06
6.50978e-06
6.81367e-06
7.0303e-06
7.52099e-06
8.08541e-06
9.01645e-06
1.01992e-05
1.17518e-05
1.44477e-05
1.71287e-05
2.12667e-05
2.49683e-05
3.30185e-05
3.83175e-05
4.69836e-05
5.42947e-05
6.44982e-05
7.43131e-05
8.2946e-05
9.35581e-05
0.000100763
0.000108709
0.000115807
0.000119264
0.000122021
0.000121906
0.000120762
0.000118884
0.000114657
0.000109646
0.000105788
9.8333e-05
9.51971e-05
9.03523e-05
8.51324e-05
8.46241e-05
8.24603e-05
8.26792e-05
9.15127e-05
0.000124874
0.000170488
0.000175296
0.000160553
0.000136612
0.000114057
9.55341e-05
8.3241e-05
7.49514e-05
7.07322e-05
6.7875e-05
6.65762e-05
6.41803e-05
6.26865e-05
6.07803e-05
5.99578e-05
5.74214e-05
5.64946e-05
5.62582e-05
5.67819e-05
5.78492e-05
6.13246e-05
7.29987e-05
8.66566e-05
9.24128e-05
9.2359e-05
8.97421e-05
7.66464e-05
6.07209e-05
5.09696e-05
4.70969e-05
4.7204e-05
4.72908e-05
4.83147e-05
5.23812e-05
6.43005e-05
7.77095e-05
8.3387e-05
8.58734e-05
8.626e-05
8.52628e-05
8.13805e-05
7.39939e-05
6.60745e-05
6.01208e-05
5.78017e-05
5.59235e-05
5.4285e-05
5.36576e-05
5.36198e-05
5.3193e-05
5.27676e-05
5.28143e-05
5.29868e-05
5.36129e-05
5.58429e-05
5.90393e-05
6.26428e-05
6.98178e-05
9.03318e-05
0.000117024
0.000128629
0.000130346
0.00012893
0.000127622
0.000126118
0.000122386
0.000109478
0.000101774
9.54308e-05
9.49738e-05
9.44182e-05
9.49516e-05
9.70292e-05
9.31488e-05
9.38252e-05
9.29116e-05
9.143e-05
8.57818e-05
8.3101e-05
7.65223e-05
7.54591e-05
7.17161e-05
6.91003e-05
6.92541e-05
7.01148e-05
7.13068e-05
8.8998e-05
8.10065e-05
9.20546e-05
8.18761e-05
8.06033e-05
7.63307e-05
7.48463e-05
7.43677e-05
7.26373e-05
7.34184e-05
4.62327e-06
4.87847e-06
4.92524e-06
4.91668e-06
4.82297e-06
4.82467e-06
5.0873e-06
5.40923e-06
5.45289e-06
5.4938e-06
5.45714e-06
5.55679e-06
5.57141e-06
5.60184e-06
5.60317e-06
5.27302e-06
5.16585e-06
5.10801e-06
5.09777e-06
5.3554e-06
5.69291e-06
6.52662e-06
7.40773e-06
7.61823e-06
7.74031e-06
7.69e-06
7.10861e-06
6.47228e-06
5.8063e-06
5.22397e-06
4.92338e-06
4.77057e-06
4.79962e-06
4.87528e-06
4.93502e-06
4.94744e-06
4.92647e-06
4.78812e-06
4.52565e-06
4.29516e-06
4.17212e-06
4.16034e-06
4.17384e-06
4.19909e-06
4.25383e-06
4.28881e-06
4.33799e-06
4.37748e-06
4.38276e-06
4.36305e-06
4.28358e-06
4.14196e-06
4.04866e-06
4.00276e-06
3.98705e-06
4.00536e-06
4.08966e-06
4.4021e-06
4.82168e-06
5.23297e-06
5.73325e-06
5.99989e-06
6.54521e-06
6.928e-06
7.62785e-06
8.47442e-06
9.51722e-06
1.12851e-05
1.29025e-05
1.60208e-05
1.84657e-05
2.27993e-05
2.74583e-05
3.20595e-05
4.02165e-05
4.63738e-05
5.72579e-05
6.62027e-05
7.83031e-05
8.96913e-05
0.000102931
0.000114109
0.000126161
0.000135866
0.00014409
0.000152518
0.000157018
0.000159319
0.000159043
0.000156685
0.00015283
0.000148051
0.000138435
0.000132531
0.000124176
0.000113158
0.000108711
0.000100293
9.37016e-05
9.42201e-05
9.37575e-05
9.50475e-05
0.000106669
0.000154332
0.000182371
0.000177693
0.000157131
0.000135626
0.000113487
9.50027e-05
8.25893e-05
7.44937e-05
7.04631e-05
6.81672e-05
6.65386e-05
6.42887e-05
6.2578e-05
6.07881e-05
6.0766e-05
5.84883e-05
5.68436e-05
5.6334e-05
5.69335e-05
5.7535e-05
5.98892e-05
6.95917e-05
8.43194e-05
9.24711e-05
9.33472e-05
9.18484e-05
8.10691e-05
6.35778e-05
5.27464e-05
4.91918e-05
4.93501e-05
5.00685e-05
5.11375e-05
5.41833e-05
6.48579e-05
7.78173e-05
8.29845e-05
8.77951e-05
9.0526e-05
9.05108e-05
8.93281e-05
8.54909e-05
7.75394e-05
7.10418e-05
6.78774e-05
6.42469e-05
6.18019e-05
6.01378e-05
5.93426e-05
5.7903e-05
5.69448e-05
5.68115e-05
5.69727e-05
5.76139e-05
6.0217e-05
6.30753e-05
6.83784e-05
7.9815e-05
0.000111116
0.000132404
0.0001391
0.000136425
0.000131119
0.000128065
0.000126051
0.00011993
0.00010483
9.98528e-05
9.63746e-05
0.000101129
0.000100692
0.00010363
0.000102888
9.85052e-05
0.000100472
0.000100125
9.67662e-05
8.5215e-05
8.0635e-05
7.41531e-05
7.07177e-05
7.03951e-05
6.83092e-05
7.2228e-05
0.000116829
9.35244e-05
0.000175328
0.00012736
0.00016684
0.000121446
9.60394e-05
8.11285e-05
7.68525e-05
7.60108e-05
7.41591e-05
7.3921e-05
2.48958e-06
2.48151e-06
2.50698e-06
2.70716e-06
3.05804e-06
3.11626e-06
3.09059e-06
3.01696e-06
3.02931e-06
3.18877e-06
3.29122e-06
3.30294e-06
3.17112e-06
3.0207e-06
2.96429e-06
2.95165e-06
2.93582e-06
2.92733e-06
2.87955e-06
2.87694e-06
2.90634e-06
3.03281e-06
3.25275e-06
3.31068e-06
3.3067e-06
3.31861e-06
3.25801e-06
3.14548e-06
3.07353e-06
2.97684e-06
2.94205e-06
2.93872e-06
2.93659e-06
2.94568e-06
2.96371e-06
2.96426e-06
2.96587e-06
2.97034e-06
2.9744e-06
3.02099e-06
3.33045e-06
3.64844e-06
3.99277e-06
4.21383e-06
4.33258e-06
4.39809e-06
4.38739e-06
4.39417e-06
4.38941e-06
4.33558e-06
4.33411e-06
4.34188e-06
4.3425e-06
4.39687e-06
4.52126e-06
4.72703e-06
5.17555e-06
6.59924e-06
7.64997e-06
8.82404e-06
1.01929e-05
1.09516e-05
1.23268e-05
1.33257e-05
1.49717e-05
1.65894e-05
1.94709e-05
2.19355e-05
2.51291e-05
3.04758e-05
3.47957e-05
4.23545e-05
4.8012e-05
5.88516e-05
6.77737e-05
7.9695e-05
9.36357e-05
0.000108137
0.000122095
0.000138296
0.000153156
0.0001652
0.000175664
0.000183426
0.000188648
0.000191845
0.000191646
0.00019032
0.000187076
0.000181313
0.000176266
0.000168773
0.000160043
0.000151805
0.000138889
0.000129402
0.000122457
0.000110722
0.000102903
9.8378e-05
9.8098e-05
0.000106337
0.000138494
0.00017811
0.00018476
0.000174487
0.000157054
0.000140608
0.000118856
9.81766e-05
8.36716e-05
7.50975e-05
7.08209e-05
6.87993e-05
6.79178e-05
6.5778e-05
6.25564e-05
6.0168e-05
6.02023e-05
5.85379e-05
5.77849e-05
5.69827e-05
5.74732e-05
5.77401e-05
5.95952e-05
6.77308e-05
8.34173e-05
9.23864e-05
9.41422e-05
9.2544e-05
8.32442e-05
6.47609e-05
5.38191e-05
5.06871e-05
5.09478e-05
5.19205e-05
5.37357e-05
5.80879e-05
6.94068e-05
7.84935e-05
8.34441e-05
8.99682e-05
9.43161e-05
9.51286e-05
9.47356e-05
9.28896e-05
8.65908e-05
8.0709e-05
7.63537e-05
7.24554e-05
6.97798e-05
6.68315e-05
6.47887e-05
6.30082e-05
6.12915e-05
6.09436e-05
6.11986e-05
6.19707e-05
6.38528e-05
6.76722e-05
7.61655e-05
9.99866e-05
0.000133305
0.000146271
0.000145432
0.000137974
0.000130894
0.000126104
0.000123061
0.000111856
0.000101393
9.69354e-05
9.81307e-05
0.000102009
0.00010406
0.000106831
0.000106983
0.000107013
0.000109814
0.000109195
0.000103885
9.10375e-05
8.16536e-05
7.33972e-05
7.00633e-05
6.9085e-05
6.86544e-05
7.75643e-05
0.000170084
0.000131994
0.000205126
0.000184318
0.000253311
0.000203907
0.000145584
9.86486e-05
8.31019e-05
7.76572e-05
7.52297e-05
7.41325e-05
2.53076e-06
2.60051e-06
2.62555e-06
2.61488e-06
2.60321e-06
2.76614e-06
3.01906e-06
3.11697e-06
3.09225e-06
2.98136e-06
2.92782e-06
2.94046e-06
2.99419e-06
2.98908e-06
2.89111e-06
2.81751e-06
2.81751e-06
2.91242e-06
3.02726e-06
3.06441e-06
3.03062e-06
2.89401e-06
2.79193e-06
2.76222e-06
2.76979e-06
2.90707e-06
3.25907e-06
3.49982e-06
3.71585e-06
3.80278e-06
3.7905e-06
3.69973e-06
3.53285e-06
3.40101e-06
3.35804e-06
3.34675e-06
3.37287e-06
3.48001e-06
3.74383e-06
4.2602e-06
5.57429e-06
6.35143e-06
7.29009e-06
8.23406e-06
8.70602e-06
9.0258e-06
9.09836e-06
9.01759e-06
8.97747e-06
8.86304e-06
8.83539e-06
8.85083e-06
8.87016e-06