/*--------------------------------*- C++ -*----------------------------------*\
| =========                 |                                                 |
| \\      /  F ield         | OpenFOAM: The Open Source CFD Toolbox           |
|  \\    /   O peration     | Version:  2.4.0                                 |
|   \\  /    A nd           | Web:      www.OpenFOAM.org                      |
|    \\/     M anipulation  |                                                 |
\*---------------------------------------------------------------------------*/
FoamFile
{
    version     2.0;
    format      ascii;
    class       volScalarField;
    location    "1.71";
    object      pMean;
}
// * * * * * * * * * * * * * * * * * * * * * * * * * * * * * * * * * * * * * //

dimensions      [0 2 -2 0 0 0 0];

internalField   nonuniform List<scalar> 
8800
(
87.1633
74.7195
67.3161
63.7535
61.8625
60.4274
59.219
58.067
57.0371
56.0017
55.0507
54.059
53.1536
52.2051
51.364
50.4847
49.7224
48.9297
48.2306
47.4418
84.052
74.3652
67.4845
63.8673
61.9225
60.4526
59.2266
58.0673
57.035
55.9993
55.0478
54.0568
53.151
52.2034
51.3621
50.4827
49.7242
48.9239
48.2317
47.3999
82.087
74.4412
68.0861
64.243
62.0901
60.5319
59.2732
58.1
57.0594
56.0163
55.0581
54.0615
53.1525
52.2015
51.3612
50.4764
49.7287
48.9146
48.2835
47.4344
80.5516
74.5029
68.6723
64.6665
62.2739
60.6198
59.3358
58.1566
57.108
56.0551
55.0857
54.0788
53.1637
52.2053
51.3644
50.4711
49.7329
48.9179
48.3753
47.6051
79.303
74.4764
69.1473
65.0721
62.4425
60.6874
59.3851
58.2144
57.1637
56.1069
55.121
54.1059
53.1766
52.2154
51.3637
50.4721
49.7257
48.9374
48.3799
47.8335
78.3179
74.3795
69.5118
65.4179
62.5928
60.7301
59.4135
58.2589
57.2138
56.1565
55.156
54.1327
53.1878
52.2242
51.3593
50.4712
49.7112
48.9522
48.4291
48.1618
77.5614
74.2628
69.779
65.6974
62.7279
60.7558
59.4222
58.2903
57.253
56.1982
55.1847
54.1557
53.1945
52.2306
51.3512
50.4685
49.6915
48.957
48.5043
48.5344
77.0078
74.1624
69.9597
65.9099
62.8457
60.7753
59.4147
58.3143
57.2798
56.2324
55.2037
54.1767
53.1953
52.2388
51.3388
50.4716
49.6682
48.9554
48.4539
48.8665
76.6474
74.0921
70.0732
66.0546
62.9305
60.7888
59.4056
58.3304
57.3
56.2571
55.2185
54.1919
53.1989
52.2455
51.3351
50.4744
49.6581
48.9699
48.5236
49.1799
76.4679
74.0604
70.1311
66.1318
62.9757
60.7988
59.401
58.3413
57.3131
56.2737
55.2285
54.2032
53.2043
52.2536
51.3383
50.4821
49.6662
48.9927
48.5876
49.297
76.4609
74.0713
70.1319
66.137
62.9753
60.8025
59.3985
58.3454
57.3131
56.2785
55.2292
54.209
53.2064
52.2618
51.3432
50.4939
49.676
49.0165
48.6253
49.3914
76.6298
74.12
70.0758
66.0656
62.9305
60.7975
59.4006
58.3397
57.3014
56.2686
55.2217
54.2072
53.2074
52.2676
51.3514
50.5063
49.6917
49.0339
48.6494
49.4238
76.9806
74.2025
69.9607
65.9232
62.8442
60.7885
59.4059
58.3286
57.2805
56.2498
55.2075
54.2015
53.2077
52.2751
51.3643
50.5248
49.7147
49.0552
48.6538
49.3925
77.5267
74.3087
69.7784
65.7106
62.721
60.771
59.4092
58.3074
57.25
56.2199
55.1859
54.1888
53.2055
52.2812
51.3794
50.5474
49.7455
49.0833
48.6428
49.2813
78.2802
74.425
69.5132
65.4286
62.5821
60.742
59.4018
58.274
57.2098
56.179
55.1573
54.1685
53.2005
52.283
51.3954
50.5712
49.7855
49.1217
48.6427
49.0853
79.2621
74.523
69.1503
65.0815
62.4293
60.697
59.3758
58.2288
57.1606
56.1299
55.1244
54.1433
53.1938
52.2808
51.4112
50.5932
49.8328
49.1715
48.6726
48.8249
80.5087
74.5502
68.6776
64.678
62.2597
60.6294
59.3282
58.1724
57.1057
56.0797
55.0914
54.1186
53.1864
52.2763
51.4248
50.6098
49.8792
49.2194
48.7324
48.5506
82.0431
74.487
68.0946
64.2563
62.0762
60.5414
59.2666
58.1163
57.0585
56.041
55.0669
54.1017
53.1813
52.2744
51.4348
50.6225
49.9125
49.2563
48.7917
48.4085
84.0073
74.4083
67.495
63.8823
61.9093
60.4618
59.2202
58.0839
57.035
56.0243
55.0577
54.0977
53.1818
52.2776
51.4414
50.6323
49.9281
49.2778
48.7887
48.3325
87.1177
74.7607
67.3263
63.7688
61.8501
60.4364
59.2129
58.0838
57.037
56.0273
55.0605
54.1004
53.1845
52.2801
51.4446
50.6357
49.9316
49.2835
48.79
48.4524
47.5097
47.4348
47.224
46.9895
46.7924
46.6393
46.5298
46.4534
46.4022
46.3706
46.3544
46.3431
46.3327
46.3174
46.2949
46.2616
46.2182
46.1598
46.0893
46.0033
45.9072
45.805
45.7028
45.6025
45.5108
45.4309
45.3656
45.3103
45.261
45.2089
45.1508
45.0847
45.0146
44.9432
44.8725
44.7984
44.7194
44.6269
44.5218
44.3995
44.267
44.1241
43.9876
43.8633
43.7648
43.6911
43.6482
43.629
43.6319
43.6445
43.6588
43.6591
43.6419
43.5971
43.5305
43.4318
43.3121
43.1679
43.0131
42.8403
42.6583
42.4618
42.2634
42.0641
41.8822
41.7263
41.6117
41.5465
41.5377
41.5749
41.6565
41.7658
41.9013
42.0421
42.1926
42.3325
42.4679
42.5783
42.6732
42.736
42.7778
42.7901
42.789
42.7637
42.7366
42.7006
42.6731
42.6535
42.6481
42.6598
42.6915
42.7438
42.8171
42.904
43.0054
43.1133
43.2338
43.3557
43.4848
43.6083
43.7313
43.84
43.9433
44.0179
44.0876
44.1298
44.1695
44.19
44.2161
44.2258
44.2403
44.243
44.2524
44.2523
44.2624
44.2712
44.2957
44.3217
44.3644
44.4066
44.4611
44.5109
44.5741
44.6275
44.6979
44.7512
44.8293
44.8884
44.9772
45.0601
45.1712
45.2828
45.4133
45.5422
45.6846
45.8226
45.9724
46.1127
46.2587
46.3948
46.5382
46.6788
46.8295
46.9783
47.1361
47.2898
47.4518
47.6139
47.7811
47.9474
48.1159
48.2811
48.449
48.6085
48.7694
48.9251
49.0916
49.2455
49.4151
49.5733
49.7531
49.9044
50.084
50.2242
50.392
50.5146
50.67
50.7738
50.9118
50.9849
51.1195
51.165
51.3119
51.3537
51.5273
51.5765
51.7894
51.8513
52.1037
52.2014
52.4881
52.6338
52.9668
53.1781
53.5525
53.8312
54.2377
54.5512
54.9781
55.2864
55.6909
55.9175
56.1794
56.1296
55.9779
55.1806
53.8994
50.579
46.3205
25.7458
47.2813
47.2537
47.1887
47.0395
46.8583
46.6913
46.5679
46.4882
46.4454
46.4245
46.4178
46.4128
46.4062
46.3917
46.3699
46.3362
46.2925
46.2355
46.1685
46.0887
46.001
45.9075
45.8151
45.7246
45.6423
45.5683
45.5063
45.4523
45.4054
45.3579
45.3078
45.2506
45.1893
45.1232
45.056
44.9825
44.9043
44.8139
44.7135
44.5981
44.4749
44.3447
44.2195
44.1044
44.0101
43.9372
43.8908
43.8652
43.8587
43.8597
43.8641
43.8569
43.8369
43.7921
43.7285
43.6365
43.5251
43.3896
43.2416
43.0771
42.9044
42.7204
42.5345
42.3499
42.1795
42.0323
41.9211
41.8508
41.83
41.8511
41.914
42.0037
42.1197
42.2442
42.3757
42.4999
42.6159
42.7103
42.7858
42.8335
42.8611
42.8628
42.8515
42.8236
42.7914
42.7557
42.7237
42.7019
42.691
42.6964
42.7204
42.7645
42.829
42.9081
43.0032
43.1075
43.2233
43.341
43.4641
43.583
43.701
43.8063
43.9021
43.9718
44.0329
44.0707
44.1014
44.1144
44.1268
44.1269
44.1283
44.1231
44.1215
44.1159
44.1163
44.1227
44.1404
44.166
44.2029
44.2397
44.2883
44.3314
44.3893
44.4377
44.5032
44.5546
44.6259
44.6835
44.7615
44.8355
44.9317
45.0287
45.1451
45.2595
45.3889
45.5114
45.6464
45.772
45.9023
46.0228
46.1508
46.2748
46.4069
46.5361
46.6765
46.8069
46.9533
47.0933
47.2475
47.3965
47.5531
47.7043
47.8678
48.0155
48.1784
48.3267
48.5013
48.6494
48.8261
48.98
49.1604
49.3015
49.4786
49.6073
49.7715
49.8826
50.0311
50.1127
50.245
50.2858
50.4107
50.4218
50.5552
50.5593
50.723
50.7361
50.9362
50.9703
51.2045
51.2795
51.5398
51.6624
51.9552
52.1372
52.4671
52.688
53.0512
53.2699
53.6319
53.7992
54.0777
54.0791
54.1268
53.6794
53.1541
51.5019
49.7102
43.9155
37.9739
18.9924
47.2615
47.2679
47.2846
47.1866
46.9937
46.7769
46.6046
46.4979
46.4559
46.4508
46.4638
46.4744
46.478
46.467
46.4449
46.4083
46.3621
46.3038
46.2379
46.1622
46.0821
45.9975
45.9153
45.8347
45.7616
45.6943
45.6371
45.5859
45.5418
45.4977
45.4537
45.4032
45.3494
45.2887
45.2255
45.1542
45.0779
44.9908
44.8961
44.7901
44.6785
44.5621
44.45
44.3461
44.2587
44.1885
44.1398
44.1079
44.0926
44.0831
44.077
44.0615
44.0362
43.9904
43.9276
43.8409
43.7359
43.6094
43.4689
43.3142
43.1512
42.9808
42.8096
42.6415
42.4863
42.3505
42.2456
42.1748
42.145
42.1527
42.198
42.27
42.366
42.4728
42.5854
42.6917
42.7878
42.8645
42.9207
42.9534
42.9664
42.9601
42.9395
42.9089
42.8717
42.8344
42.7997
42.7745
42.758
42.7559
42.7709
42.8059
42.8604
42.9331
43.0229
43.1257
43.2376
43.3535
43.4727
43.5886
43.7015
43.8038
43.8925
43.959
44.0142
44.0499
44.0742
44.0828
44.0861
44.081
44.074
44.0658
44.0569
44.0487
44.0436
44.0487
44.064
44.0867
44.1207
44.1529
44.2005
44.2394
44.2971
44.3441
44.4089
44.463
44.5292
44.5871
44.656
44.7242
44.8067
44.8908
44.9933
45.0943
45.2098
45.3174
45.4353
45.5457
45.6596
45.7638
45.8763
45.9847
46.101
46.2151
46.3402
46.4544
46.5881
46.7105
46.8527
46.9806
47.1228
47.2557
47.4107
47.5455
47.7109
47.8542
48.0334
48.1807
48.3648
48.5206
48.6989
48.8344
49.0072
49.1217
49.2826
49.3731
49.5163
49.5668
49.6937
49.7043
49.8173
49.7982
49.9245
49.8949
50.0522
50.0373
50.2138
50.2298
50.4248
50.4837
50.697
50.7946
51.0443
51.1754
51.4701
51.6099
51.9267
52.0337
52.3145
52.313
52.477
52.1879
52.0819
51.0925
50.4473
47.6584
45.7048
38.5429
31.4245
18.4899
47.1134
47.1396
47.3131
47.2719
47.0618
46.7989
46.5893
46.4715
46.4424
46.4638
46.5073
46.544
46.5648
46.5615
46.5395
46.4986
46.4468
46.3839
46.3167
46.243
46.1689
46.0925
46.0203
45.95
45.8868
45.8278
45.777
45.7301
45.6894
45.6484
45.6084
45.563
45.5147
45.4589
45.3993
45.3313
45.2584
45.1763
45.0887
44.9931
44.8943
44.7922
44.6943
44.6016
44.522
44.4547
44.4045
44.3665
44.3419
44.3219
44.3054
44.2822
44.2515
44.2047
44.1431
44.0617
43.9633
43.8466
43.7165
43.574
43.424
43.2687
43.1137
42.9625
42.823
42.6999
42.6021
42.5325
42.4962
42.4915
42.5199
42.5732
42.6483
42.7346
42.8264
42.9122
42.9877
43.0463
43.0855
43.1054
43.1068
43.0929
43.0651
43.0308
42.9907
42.9515
42.9143
42.8835
42.8593
42.8474
42.8524
42.8783
42.9254
42.9932
43.0804
43.1813
43.2913
43.4048
43.522
43.6351
43.7437
43.8417
43.9245
43.987
44.0381
44.0725
44.0939
44.1016
44.1015
44.0956
44.0866
44.0775
44.0654
44.0556
44.0505
44.0545
44.072
44.0934
44.1288
44.1601
44.2082
44.2455
44.3048
44.3532
44.4211
44.4768
44.5421
44.5971
44.6632
44.7262
44.8018
44.8766
44.9656
45.0549
45.1556
45.2501
45.352
45.4463
45.5433
45.631
45.7291
45.8225
45.9272
46.0302
46.144
46.2504
46.374
46.4822
46.611
46.7169
46.8442
46.9547
47.1005
47.2192
47.3861
47.528
47.712
47.8619
48.0557
48.205
48.3829
48.5078
48.6841
48.7714
48.9393
48.9949
49.1414
49.1555
49.279
49.2582
49.3626
49.3151
49.441
49.3938
49.5319
49.5077
49.6419
49.6494
49.7909
49.8286
49.9939
50.0556
50.263
50.331
50.5792
50.6296
50.8913
50.8542
51.0993
50.8418
50.9912
50.2714
50.1851
48.4805
47.8307
44.1718
41.6965
34.9382
27.3766
18.7235
47.9049
47.8144
47.5572
47.2389
46.9141
46.6303
46.4514
46.3815
46.3983
46.4627
46.546
46.6157
46.6587
46.6666
46.6463
46.6013
46.5429
46.4739
46.4029
46.3295
46.2595
46.1909
46.1283
46.0688
46.0162
45.9669
45.924
45.8833
45.8469
45.8098
45.7734
45.7324
45.6888
45.6384
45.5838
45.5218
45.4549
45.3806
45.3019
45.2174
45.131
45.0423
44.9567
44.8743
44.801
44.7362
44.6835
44.6401
44.6068
44.578
44.5523
44.5227
44.4869
44.4396
44.3795
44.304
44.2139
44.1088
43.9915
43.8636
43.729
43.5899
43.4518
43.3169
43.1924
43.0816
42.9915
42.924
42.8837
42.869
42.8817
42.9166
42.9703
43.0345
43.1029
43.1672
43.2221
43.2638
43.2889
43.2978
43.2906
43.2701
43.2379
43.1994
43.1561
43.112
43.0691
43.0288
42.9936
42.9696
42.9648
42.9819
43.0243
43.0887
43.1757
43.2765
43.3866
43.5009
43.6175
43.7294
43.836
43.9305
44.0097
44.0698
44.1185
44.1522
44.1717
44.1814
44.1801
44.1758
44.1677
44.1583
44.146
44.1353
44.1335
44.1396
44.1627
44.1878
44.2268
44.2624
44.3126
44.3556
44.4172
44.4726
44.5421
44.6009
44.6661
44.7204
44.7877
44.8454
44.9201
44.9862
45.0671
45.1435
45.2322
45.3128
45.4037
45.4801
45.5663
45.6374
45.7249
45.803
45.9019
45.9951
46.1055
46.2071
46.3236
46.4179
46.5358
46.6179
46.7346
46.8204
46.9568
47.0611
47.2271
47.3634
47.555
47.6987
47.9052
48.0375
48.2214
48.328
48.5106
48.5711
48.7484
48.7655
48.9131
48.8924
49.0123
48.9577
49.0544
48.9919
49.1097
49.0678
49.1808
49.1515
49.2532
49.2355
49.3385
49.3333
49.4675
49.4703
49.6512
49.6307
49.8561
49.7638
50.0175
49.7554
50.0113
49.4251
49.5808
48.4222
48.2658
46.0935
45.0708
41.3822
38.1606
32.7792
25.6504
19.2625
48.5422
48.3999
47.8156
47.2208
46.7374
46.414
46.2745
46.2749
46.3611
46.4848
46.6131
46.7138
46.774
46.7888
46.7674
46.7174
46.6511
46.5753
46.4993
46.4251
46.3575
46.2953
46.241
46.1919
46.1493
46.11
46.0753
46.0418
46.0106
45.9781
45.9454
45.909
45.8698
45.8252
45.7766
45.7218
45.6625
45.5974
45.5285
45.4554
45.3805
45.3038
45.2286
45.1555
45.088
45.0263
44.9726
44.9255
44.8855
44.8492
44.8153
44.7792
44.7384
44.6898
44.6312
44.561
44.4792
44.3853
44.281
44.1679
44.0487
43.9262
43.8048
43.6866
43.5772
43.479
43.3974
43.3336
43.2914
43.2698
43.2702
43.29
43.3248
43.368
43.414
43.4576
43.4937
43.5195
43.5321
43.5318
43.5173
43.4911
43.4541
43.4093
43.3594
43.3069
43.2547
43.2024
43.1546
43.1169
43.1033
43.1138
43.1525
43.2161
43.3051
43.4076
43.5189
43.6358
43.754
43.8682
43.9761
44.0727
44.1524
44.214
44.2628
44.296
44.3157
44.3274
44.3272
44.3239
44.3164
44.3057
44.2938
44.2823
44.2861
44.2984
44.329
44.3625
44.4072
44.4518
44.5082
44.5633
44.6312
44.6978
44.7703
44.835
44.8997
44.9597
45.0276
45.089
45.164
45.2253
45.3022
45.3649
45.4435
45.5093
45.5909
45.653
45.7327
45.7915
45.8704
45.9378
46.0346
46.1198
46.2341
46.3321
46.4441
46.5285
46.6346
46.6944
46.7964
46.8629
46.9866
47.0739
47.2417
47.3638
47.5629
47.6925
47.906
48.0171
48.2188
48.2985
48.4975
48.5256
48.713
48.6969
48.8466
48.7841
48.9078
48.8126
48.9129
48.8399
48.958
48.913
49.0264
48.9699
49.0672
49.0001
49.0878
49.0101
49.1348
49.0516
49.2131
49.0849
49.2815
49.0448
49.2564
48.8184
48.9798
48.1848
48.1516
46.7836
46.2997
44.0993
42.5959
39.4021
35.8935
31.8339
25.6847
20.4009
49.1872
48.9557
48.0006
47.0936
46.4414
46.0998
46.0392
46.1499
46.3347
46.5315
46.7051
46.8313
46.9009
46.9156
46.8874
46.8284
46.7524
46.6693
46.5884
46.5134
46.448
46.3915
46.3445
46.3048
46.2714
46.2418
46.2151
46.189
46.1633
46.1359
46.1069
46.0747
46.0394
46
45.9569
45.9092
45.8577
45.8017
45.7424
45.6798
45.6153
45.5492
45.4835
45.4188
45.3569
45.2987
45.2452
45.1965
45.1522
45.1108
45.0708
45.0299
44.9854
44.9361
44.8793
44.8144
44.7403
44.6571
44.565
44.4661
44.3622
44.2557
44.1499
44.0475
43.9517
43.8653
43.7915
43.7323
43.69
43.6657
43.6587
43.6675
43.6879
43.7139
43.7405
43.7653
43.7845
43.7969
43.7991
43.7903
43.7688
43.7363
43.6922
43.6384
43.5792
43.5174
43.455
43.3906
43.3303
43.2803
43.2575
43.2638
43.3024
43.37
43.4638
43.5704
43.6859
43.8078
43.9296
44.0504
44.1633
44.2652
44.3497
44.4178
44.4668
44.5007
44.5227
44.5354
44.5363
44.5324
44.5266
44.5157
44.5054
44.4949
44.5028
44.522
44.5605
44.6059
44.6588
44.7173
44.7866
44.86
44.941
45.0233
45.1045
45.1773
45.2447
45.3099
45.3794
45.4478
45.5216
45.5871
45.6574
45.7154
45.7841
45.8416
45.9139
45.9705
46.0432
46.0975
46.1717
46.2373
46.3303
46.4137
46.5251
46.6245
46.7328
46.8112
46.9031
46.9472
47.028
47.0837
47.1892
47.2586
47.4245
47.5328
47.7257
47.855
48.0688
48.1538
48.3776
48.4358
48.6488
48.6567
48.8398
48.8051
48.9487
48.8652
48.9739
48.8579
48.9525
48.8914
49.0022
48.9622
49.0642
49.0007
49.078
48.9783
49.0264
48.9022
48.97
48.8308
48.9058
48.7068
48.8009
48.4772
48.5686
48.023
48.0104
47.1211
46.8715
45.4482
44.709
42.6579
40.9494
38.3836
35.0206
31.8713
26.7731
22.0887
50.3487
49.9143
48.255
46.8718
46.0195
45.6819
45.7369
45.997
46.3097
46.5916
46.8098
46.9554
47.028
47.037
46.9972
46.9264
46.8399
46.7504
46.6662
46.5921
46.5298
46.4795
46.4395
46.4084
46.3831
46.362
46.3426
46.3232
46.3027
46.2803
46.2548
46.2266
46.1948
46.1599
46.1214
46.0797
46.0344
45.9861
45.9344
45.8804
45.824
45.7664
45.7081
45.6503
45.5935
45.5393
45.4874
45.4388
45.3925
45.3486
45.3053
45.2623
45.2167
45.1685
45.115
45.056
44.9899
44.9172
44.8371
44.7518
44.6617
44.5695
44.4772
44.3883
44.304
44.2281
44.1619
44.1082
44.0675
44.0424
44.0302
44.0309
44.0391
44.0509
44.0612
44.07
44.0749
44.0762
44.0696
44.053
44.0243
43.9844
43.932
43.8695
43.8021
43.7315
43.6611
43.5872
43.5166
43.4585
43.4297
43.4362
43.4788
43.5542
43.6531
43.7655
43.8859
44.0134
44.142
44.2713
44.3938
44.5067
44.6
44.677
44.7285
44.767
44.7915
44.8033
44.8036
44.7982
44.7938
44.7853
44.7767
44.7695
44.7799
44.8083
44.8556
44.9144
44.9799
45.0577
45.1467
45.2439
45.3438
45.446
45.5394
45.6233
45.6989
45.7715
45.8462
45.9188
45.9925
46.059
46.1233
46.1842
46.2467
46.3034
46.3708
46.4279
46.4956
46.5517
46.6221
46.69
46.7808
46.8652
46.9782
47.0749
47.1831
47.256
47.3425
47.3668
47.4284
47.4801
47.5679
47.628
47.7879
47.8803
48.0618
48.1792
48.4017
48.463
48.7005
48.7511
48.973
48.9737
49.1516
49.118
49.2476
49.1514
49.2335
49.108
49.1861
49.1449
49.2537
49.2256
49.3147
49.2498
49.3122
49.1742
49.1809
49.0162
49.0155
48.8123
48.7941
48.5195
48.5177
48.1001
48.1081
47.4483
47.3269
46.3624
45.9884
44.5956
43.749
41.9491
40.2138
38.1892
35.1428
32.4793
28.2601
24.0229
50.8319
50.3508
48.4381
46.8145
45.8245
45.4591
45.5657
45.9152
46.3133
46.6605
46.9184
47.0825
47.1565
47.1565
47.1022
47.0181
46.9212
46.8263
46.7403
46.668
46.6096
46.5654
46.5323
46.5088
46.491
46.477
46.4637
46.4501
46.4339
46.4156
46.3933
46.3685
46.3398
46.3085
46.2738
46.2368
46.1964
46.1538
46.1079
46.0602
46.01
45.9588
45.9061
45.8539
45.8014
45.7508
45.7008
45.6532
45.6066
45.5622
45.518
45.4749
45.4301
45.3844
45.3349
45.2822
45.2238
45.161
45.0916
45.0184
44.9408
44.8618
44.7817
44.7049
44.6318
44.5662
44.5083
44.461
44.4231
44.3979
44.3822
44.3758
44.3726
44.371
44.3662
44.3603
44.3525
44.3446
44.3304
44.3084
44.2751
44.2304
44.1719
44.1026
44.0272
43.9496
43.8723
43.7905
43.7161
43.6541
43.6255
43.6367
43.6879
43.7719
43.8775
43.994
44.1202
44.254
44.3928
44.5328
44.6699
44.7996
44.9083
44.9954
45.0541
45.0986
45.1246
45.1338
45.1312
45.1248
45.1221
45.1152
45.11
45.1089
45.1255
45.1644
45.2223
45.2943
45.3769
45.4764
45.5901
45.7148
45.8386
45.9641
46.0734
46.1723
46.2596
46.3404
46.4225
46.4971
46.5718
46.6377
46.6987
46.7638
46.8231
46.8818
46.9489
47.0044
47.0725
47.1299
47.1992
47.2742
47.3663
47.4547
47.5751
47.6679
47.7893
47.8511
47.9517
47.9404
48.0012
48.0379
48.1111
48.1681
48.3245
48.3875
48.581
48.6707
48.9123
48.9307
49.2016
49.2389
49.4768
49.4437
49.6541
49.6036
49.7562
49.6074
49.6825
49.549
49.6348
49.6055
49.7118
49.6976
49.7808
49.7171
49.7706
49.5718
49.5592
49.3438
49.2945
49.0114
48.9395
48.5649
48.483
48.0226
47.953
47.283
47.1091
46.0749
45.6483
44.3155
43.4255
41.8971
40.2004
38.532
35.8273
33.3936
29.8305
26.0121
51.0735
50.6297
48.6447
46.9115
45.8295
45.4049
45.5036
45.8887
46.3364
46.7274
47.0148
47.1935
47.2687
47.2611
47.195
47.0996
46.9946
46.8957
46.8091
46.7395
46.6856
46.6475
46.621
46.6044
46.5929
46.5848
46.5763
46.567
46.5543
46.5393
46.5199
46.4979
46.472
46.4439
46.4126
46.3793
46.3428
46.3047
46.2635
46.2209
46.1757
46.1296
46.0816
46.0338
45.9848
45.9373
45.8897
45.8439
45.7986
45.7553
45.7119
45.6703
45.6278
45.5856
45.5411
45.4948
45.4441
45.3901
45.3305
45.2681
45.2018
45.1345
45.0658
45.0004
44.9379
44.8821
44.8328
44.7924
44.7586
44.7348
44.7168
44.7029
44.6879
44.6733
44.6557
44.6371
44.6186
44.6038
44.5855
44.5613
44.5265
44.48
44.4195
44.3477
44.2676
44.1827
44.0997
44.0117
43.9366
43.8743
43.851
43.8688
43.9327
44.0268
44.141
44.2622
44.3975
44.5393
44.6889
44.8403
44.995
45.1439
45.2715
45.3706
45.4398
45.4892
45.5165
45.5236
45.52
45.5138
45.5128
45.5073
45.5071
45.5136
45.5397
45.5909
45.6623
45.7506
45.8538
45.9769
46.1181
46.2711
46.4241
46.5736
46.7038
46.8207
46.9217
47.0103
47.0968
47.1718
47.2482
47.3113
47.3748
47.4411
47.5016
47.5614
47.632
47.6844
47.7598
47.8173
47.892
47.9733
48.0741
48.1681
48.3052
48.391
48.5399
48.5862
48.7118
48.6429
48.7358
48.7339
48.8225
48.8622
49.0221
49.0432
49.268
49.3166
49.5972
49.5481
49.888
49.8697
50.1801
50.0525
50.3528
50.2665
50.4866
50.2294
50.3361
50.1577
50.2956
50.2641
50.4041
50.3732
50.4705
50.3826
50.4453
50.1556
50.1625
49.8899
49.814
49.4322
49.3105
48.8542
48.7614
48.294
48.2163
47.4532
47.2856
46.166
45.7286
44.4748
43.5611
42.263
40.6573
39.1707
36.7782
34.4669
31.3611
27.9354
51.2226
50.7993
48.7911
47.0069
45.8795
45.4195
45.5104
45.9111
46.3841
46.7979
47.1003
47.2857
47.3592
47.3442
47.2694
47.167
47.0583
46.959
46.8746
46.8089
46.7603
46.7282
46.7079
46.6969
46.6904
46.6863
46.6812
46.6748
46.6646
46.6518
46.6349
46.6153
46.5921
46.5668
46.5384
46.5084
46.4755
46.4412
46.404
46.3654
46.3243
46.2824
46.2385
46.1945
46.1493
46.1049
46.0602
46.0168
45.9739
45.9329
45.8921
45.853
45.8136
45.7752
45.7358
45.696
45.6529
45.6075
45.558
45.5062
45.4509
45.3947
45.3378
45.2836
45.2313
45.1844
45.1438
45.1107
45.0814
45.0582
45.0367
45.0146
44.9888
44.9627
44.9336
44.905
44.8796
44.8602
44.8408
44.8194
44.7886
44.7452
44.6872
44.6163
44.5359
44.4469
44.3602
44.2691
44.1965
44.1367
44.1253
44.1492
44.2268
44.3301
44.4539
44.58
44.7285
44.8797
45.0413
45.2016
45.376
45.5422
45.6893
45.7999
45.8792
45.9313
45.9601
45.9668
45.9671
45.9641
45.9663
45.9642
45.9738
45.9879
46.0287
46.0914
46.1829
46.287
46.4164
46.5637
46.7361
46.9142
47.0986
47.2679
47.4263
47.5598
47.6793
47.7751
47.8665
47.9372
48.0156
48.0716
48.1425
48.2034
48.2732
48.3324
48.4083
48.4627
48.5468
48.6071
48.6947
48.782
48.9012
48.9967
49.157
49.2341
49.4187
49.4436
49.5912
49.4566
49.6128
49.5602
49.6956
49.6892
49.8777
49.8581
50.119
50.118
50.4161
50.3137
50.7299
50.6506
51.0184
50.8383
51.2503
51.1055
51.4017
51.0312
51.2108
50.9565
51.1977
51.1067
51.3131
51.2474
51.3743
51.2695
51.3409
50.9325
50.95
50.6381
50.4904
50.0766
49.9159
49.484
49.4113
48.8357
48.7319
47.8718
47.7688
46.5759
46.1154
44.9515
44.0258
42.8847
41.4235
39.9823
37.8262
35.6185
32.8309
29.7483
51.2788
50.8536
48.8427
47.0614
45.9422
45.493
45.5964
46.0061
46.4828
46.8939
47.1902
47.3666
47.4301
47.4058
47.3253
47.2209
47.1137
47.018
46.9389
46.8791
46.8368
46.8103
46.795
46.788
46.7846
46.7829
46.7798
46.775
46.7666
46.7555
46.7407
46.7233
46.7027
46.6801
46.6548
46.6278
46.5982
46.5672
46.5338
46.499
46.4619
46.4235
46.3833
46.3427
46.3009
46.2597
46.2184
46.1783
46.139
46.1013
46.0639
46.0281
45.9929
45.9589
45.9248
45.8908
45.8552
45.8185
45.7791
45.7377
45.6935
45.6486
45.6039
45.5613
45.5201
45.4833
45.4521
45.4254
45.3993
45.3749
45.3491
45.319
45.2829
45.2439
45.2029
45.1659
45.1362
45.1173
45.1039
45.0911
45.07
45.037
44.9884
44.9238
44.8457
44.756
44.6678
44.5785
44.5118
44.4623
44.4677
44.4984
44.5892
44.6961
44.8269
44.9537
45.1154
45.2744
45.4484
45.6165
45.8124
45.9941
46.161
46.2811
46.3689
46.4157
46.4494
46.4539
46.4644
46.4668
46.4781
46.4823
46.5065
46.5321
46.5948
46.6706
46.7881
46.909
47.0702
47.2395
47.4443
47.6455
47.8642
48.0521
48.2362
48.3838
48.5255
48.6283
48.7286
48.799
48.8742
48.9263
49.0023
49.0582
49.1359
49.1997
49.2796
49.343
49.4348
49.501
49.5982
49.6926
49.8279
49.9355
50.1065
50.1876
50.3899
50.4198
50.5312
50.3751
50.6187
50.4891
50.6891
50.6244
50.8527
50.8098
51.0856
51.0805
51.34
51.2174
51.7007
51.5903
51.9749
51.8101
52.287
52.1145
52.4317
51.9991
52.2184
51.918
52.2921
52.1635
52.4214
52.3099
52.4669
52.3664
52.346
51.914
51.9224
51.5028
51.3601
50.9607
50.7667
50.3024
50.1519
49.5554
49.4533
48.615
48.3517
47.2372
46.7453
45.6798
44.7872
43.6819
42.3573
40.8896
38.9207
36.819
34.2638
31.4631
51.2285
50.7942
48.8147
47.0948
46.0381
45.6471
45.7836
46.1914
46.6441
47.023
47.2884
47.4375
47.4807
47.4451
47.3622
47.2612
47.1612
47.0739
47.0036
46.9518
46.9165
46.8954
46.884
46.8792
46.8773
46.8763
46.8739
46.8696
46.8624
46.8527
46.8398
46.8246
46.8067
46.7868
46.7645
46.7406
46.7147
46.6872
46.6577
46.6265
46.5931
46.5582
46.5216
46.4845
46.4467
46.4092
46.3723
46.3365
46.3014
46.2676
46.2346
46.2031
46.1728
46.1441
46.1161
46.0885
46.0603
46.0316
46.002
45.9715
45.9387
45.9051
45.8725
45.8419
45.8129
45.7876
45.766
45.7454
45.7226
45.6977
45.667
45.6276
45.5806
45.5303
45.4808
45.4397
45.4099
45.3941
45.3896
45.3892
45.3832
45.3671
45.3344
45.2808
45.2085
45.1239
45.0391
44.956
44.8961
44.8617
44.8842
44.9269
45.0278
45.1332
45.2631
45.3908
45.5668
45.7306
45.9145
46.0909
46.3096
46.5026
46.6889
46.8137
46.9077
46.9474
46.9842
46.9894
47.0173
47.0247
47.05
47.0626
47.1062
47.1489
47.2388
47.3327
47.4801
47.6236
47.8196
48.0117
48.2489
48.4682
48.714
48.9162
49.1265
49.2866
49.4512
49.5632
49.6758
49.7453
49.8246
49.8769
49.9568
50.0172
50.1048
50.1751
50.26
50.3338
50.4268
50.4992
50.6089
50.7096
50.8518
50.9787
51.1513
51.2609
51.4435
51.5102
51.5514
51.4295
51.6879
51.5142
51.7618
51.6932
51.962
51.9042
52.1539
52.1717
52.376
52.2799
52.7575
52.6647
53.1104
53.0128
53.4478
53.3492
53.5555
53.123
53.3998
53.0316
53.5263
53.3552
53.6571
53.5415
53.6918
53.5505
53.5105
53.0744
53.0323
52.5279
52.4222
51.9663
51.7083
51.3339
51.0866
50.6709
50.2546
49.5407
49.0838
48.1079
47.5903
46.5956
45.7638
44.6188
43.4044
41.8629
40.059
38.0471
35.6722
33.0991
51.0243
50.5853
48.7095
47.1331
46.2013
45.9081
46.0797
46.4613
46.8574
47.1743
47.3851
47.4906
47.5065
47.46
47.3791
47.2876
47.2003
47.1261
47.0677
47.0256
46.9976
46.9808
46.9717
46.9673
46.965
46.9632
46.9603
46.9559
46.9493
46.9405
46.9293
46.9161
46.9006
46.8835
46.8646
46.8443
46.8221
46.7985
46.7731
46.7458
46.7164
46.6853
46.6524
46.6191
46.5861
46.5539
46.5221
46.4909
46.4605
46.4315
46.4035
46.377
46.3522
46.3296
46.3082
46.2881
46.2688
46.2505
46.2321
46.2119
46.1898
46.1682
46.1483
46.13
46.114
46.1003
46.0878
46.0735
46.0545
46.0293
45.9949
45.9503
45.8966
45.8377
45.7811
45.7375
45.7115
45.705
45.7137
45.7299
45.744
45.7487
45.7345
45.6951
45.6318
45.5575
45.4779
45.4048
45.3558
45.3424
45.3771
45.4285
45.533
45.6367
45.7634
45.9037
46.093
46.2642
46.4565
46.6465
46.8778
47.0745
47.2711
47.3997
47.4987
47.5352
47.5779
47.5898
47.6338
47.652
47.6954
47.7193
47.7837
47.8467
47.9634
48.0805
48.2585
48.4286
48.6572
48.8749
49.1377
49.3751
49.6389
49.8538
50.0826
50.2539
50.4371
50.565
50.6907
50.7666
50.855
50.9153
51.0058
51.0743
51.1764
51.2567
51.3487
51.4318
51.5141
51.5941
51.7029
51.8171
51.9626
52.1222
52.2801
52.4258
52.5821
52.674
52.6691
52.6644
52.8228
52.6547
52.9271
52.8792
53.1474
53.1057
53.3266
53.3948
53.5008
53.5317
53.8864
53.8784
54.3575
54.3974
54.737
54.6774
54.8064
54.4442
54.6918
54.4577
54.8492
54.6527
54.9633
54.8816
55.0047
54.845
54.6994
54.2751
54.2377
53.6928
53.5166
53.1033
52.7941
52.5835
52.1193
51.9043
51.1888
50.7323
49.9581
49.1839
48.5814
47.6959
46.9047
45.6882
44.5416
42.9031
41.2325
39.2708
37.047
34.6527
50.56
50.1457
48.535
47.2301
46.4977
46.3106
46.4859
46.8007
47.1041
47.3318
47.4692
47.5228
47.5108
47.4569
47.383
47.3056
47.2349
47.1762
47.1309
47.0982
47.076
47.0618
47.0529
47.0473
47.0433
47.0397
47.0357
47.0307
47.0243
47.0164
47.0068
46.9955
46.9826
46.9683
46.9527
46.9358
46.9176
46.8981
46.877
46.8539
46.8286
46.8018
46.774
46.7455
46.7173
46.6905
46.6652
46.6406
46.616
46.5918
46.5688
46.5483
46.5306
46.5152
46.5014
46.4899
46.4805
46.4726
46.4657
46.4583
46.4494
46.4399
46.4317
46.4256
46.4216
46.4183
46.4139
46.4057
46.3912
46.3682
46.333
46.2848
46.2273
46.1643
46.1044
46.0623
46.0453
46.0527
46.0784
46.1141
46.1493
46.1741
46.1764
46.1515
46.1013
46.0415
45.97
45.9151
45.8792
45.8858
45.9314
45.997
46.1014
46.1997
46.3256
46.4889
46.6885
46.87
47.0668
47.2775
47.5077
47.7067
47.9018
48.0338
48.1344
48.1822
48.2282
48.2563
48.3151
48.3547
48.4184
48.4648
48.5472
48.6332
48.7714
48.9196
49.1177
49.3194
49.5655
49.8114
50.0834
50.3396
50.6108
50.8428
51.0829
51.2707
51.4659
51.611
51.7539
51.8415
51.9492
52.0261
52.1274
52.2149
52.3243
52.4123
52.5092
52.5923
52.6653
52.7557
52.8642
52.9956
53.1534
53.3484
53.4911
53.6714
53.7836
53.8819
53.9021
53.9712
54.006
53.9978
54.1777
54.1829
54.4293
54.3969
54.5714
54.6753
54.7613
54.9088
55.0816
55.3226
55.7318
55.8224
56.0464
56.0128
56.0841
55.8942
56.0988
56.0296
56.2145
56.1226
56.296
56.2627
56.2771
56.1036
55.9294
55.6275
55.4787
54.9772
54.7384
54.4114
54.0057
53.8983
53.3184
53.1754
52.192
51.9987
50.9797
50.4389
49.6822
48.9749
48.0967
46.8644
45.7419
44.0247
42.4327
40.4868
38.4033
36.143
49.8004
49.4793
48.3458
47.4398
46.948
46.8377
46.9604
47.1599
47.3402
47.4644
47.5265
47.5336
47.5009
47.4455
47.382
47.3203
47.2662
47.2219
47.1874
47.1616
47.1427
47.129
47.1189
47.1113
47.1051
47.0998
47.0946
47.0893
47.0833
47.0763
47.068
47.0585
47.0477
47.0359
47.023
47.0095
46.9956
46.9806
46.9637
46.945
46.9244
46.9022
46.8793
46.8569
46.835
46.814
46.7948
46.7774
46.7605
46.7431
46.7264
46.7134
46.7045
46.6983
46.6937
46.6916
46.6924
46.6953
46.6984
46.7003
46.7023
46.706
46.711
46.7167
46.7224
46.727
46.7295
46.7266
46.7165
46.6967
46.6636
46.6182
46.5619
46.4998
46.4446
46.4115
46.4079
46.4305
46.471
46.5214
46.572
46.6118
46.6283
46.618
46.5851
46.5464
46.4874
46.4621
46.4476
46.4754
46.5274
46.6092
46.7062
46.8108
46.9466
47.1259
47.3237
47.5185
47.7252
47.9553
48.1758
48.3785
48.5605
48.7004
48.801
48.8698
48.9198
48.9751
49.0426
49.115
49.1948
49.2769
49.3731
49.4912
49.641
49.8233
50.033
50.2633
50.5126
50.7786
51.0445
51.3199
51.5843
51.833
52.0734
52.2877
52.4897
52.6693
52.8191
52.9416
53.0569
53.1622
53.2682
53.3817
53.4862
53.5961
53.6878
53.7808
53.8532
53.9618
54.0689
54.2256
54.3869
54.5971
54.7385
54.9644
55.0098
55.1527
55.1408
55.258
55.2743
55.3991
55.4657
55.5715
55.6787
55.7262
55.8758
56.012
56.0449
56.3303
56.4187
56.8782
57.0236
57.196
57.2988
57.3653
57.412
57.4469
57.5076
57.523
57.5406
57.6121
57.6036
57.6299
57.5331
57.4105
57.1133
57.0256
56.6442
56.3775
55.9804
55.7663
55.3098
55.2799
54.4741
54.3067
53.2854
53.2161
52.0338
51.8048
50.8187
50.2545
49.1955
48.0858
46.9053
45.1731
43.5995
41.6823
39.7166
37.5412
48.967
48.8006
48.2491
47.7795
47.4999
47.3975
47.4088
47.4655
47.5211
47.5533
47.5551
47.5299
47.4863
47.4342
47.3815
47.3333
47.2919
47.2577
47.23
47.2077
47.1898
47.1754
47.1637
47.1542
47.1464
47.1398
47.1339
47.1284
47.1226
47.1164
47.1091
47.1007
47.0916
47.0822
47.0726
47.062
47.051
47.0398
47.0277
47.0135
46.9973
46.9807
46.9642
46.9474
46.9314
46.9182
46.9074
46.8978
46.8885
46.8793
46.8721
46.8688
46.869
46.8715
46.8767
46.8844
46.8944
46.906
46.9187
46.9311
46.942
46.9527
46.9649
46.9787
46.9917
47.0014
47.0072
47.0083
47.0027
46.9873
46.9603
46.9235
46.8783
46.8295
46.7884
46.7694
46.7794
46.8138
46.8646
46.9219
46.9779
47.0262
47.0558
47.063
47.0512
47.0445
47.0149
47.0219
47.026
47.0762
47.1374