/*--------------------------------*- C++ -*----------------------------------*\
| =========                 |                                                 |
| \\      /  F ield         | OpenFOAM: The Open Source CFD Toolbox           |
|  \\    /   O peration     | Version:  2.4.0                                 |
|   \\  /    A nd           | Web:      www.OpenFOAM.org                      |
|    \\/     M anipulation  |                                                 |
\*---------------------------------------------------------------------------*/
FoamFile
{
    version     2.0;
    format      ascii;
    class       surfaceScalarField;
    location    "10";
    object      phi;
}
// * * * * * * * * * * * * * * * * * * * * * * * * * * * * * * * * * * * * * //

dimensions      [0 3 -1 0 0 0 0];

internalField   nonuniform List<scalar> 
8640
(
0.000494105
-6.60506e-06
0.000485092
9.01335e-06
0.000511895
-2.6803e-05
0.000489015
2.28799e-05
0.000505183
-1.61679e-05
0.000499859
5.32398e-06
0.000476877
2.2982e-05
0.000525237
-4.83599e-05
0.000467783
5.74537e-05
0.000515414
-4.76313e-05
0.000507567
7.84718e-06
0.000448561
5.90059e-05
0.000539338
-9.07767e-05
0.000448755
9.05827e-05
0.000471718
-2.29633e-05
0.000579518
-0.0001078
0.000411383
0.000168135
0.000533355
-0.000121972
0.000513698
1.96574e-05
0.000190167
0.000323531
0.00139095
-1.00502e-05
0.00137677
2.31847e-05
0.00140822
-5.8245e-05
0.00138173
4.93624e-05
0.0014041
-3.85363e-05
0.00138711
2.23165e-05
0.00138245
2.76377e-05
0.00140677
-7.26767e-05
0.00138023
8.39939e-05
0.00138455
-5.19561e-05
0.00142009
-2.76878e-05
0.00133193
0.000147163
0.00139598
-0.000154823
0.00144996
3.66044e-05
0.00130857
0.000118421
0.00153345
-0.000332675
0.00145406
0.000247527
0.00144559
-0.00011351
0.00165868
-0.000193429
0.000359559
0.00148929
0.00219161
-1.41637e-05
0.0021788
3.59936e-05
0.00220102
-8.04579e-05
0.00218182
6.85561e-05
0.00220389
-6.06066e-05
0.00217568
5.05288e-05
0.00220276
5.5639e-07
0.00217269
-4.26052e-05
0.00220302
5.36662e-05
0.00217003
-1.89679e-05
0.0021789
-3.65592e-05
0.00223357
9.24947e-05
0.00213245
-5.37025e-05
0.00228732
-0.000118262
0.00222047
0.000185272
0.00222255
-0.000334757
0.0022988
0.000171275
0.00232664
-0.000141347
0.00241162
-0.000278412
0.000448888
0.00232229
0.00288685
-1.35127e-05
0.00288652
3.63251e-05
0.00289483
-8.87751e-05
0.00288255
8.08456e-05
0.00290708
-8.51431e-05
0.00286539
9.22248e-05
0.00291697
-5.10316e-05
0.00286618
8.18504e-06
0.00289004
2.98054e-05
0.00292085
-4.97687e-05
0.00283429
4.99977e-05
0.00299237
-6.55901e-05
0.00288183
5.68436e-05
0.00290252
-0.000138955
0.00299414
9.3654e-05
0.00290935
-0.000249967
0.00294936
0.000131261
0.00298851
-0.000180497
0.00301227
-0.000302173
0.000492809
0.00296835
0.00347852
-4.53334e-06
0.00349324
2.16074e-05
0.00348971
-8.5243e-05
0.00348205
8.85041e-05
0.00350922
-0.00011232
0.00345843
0.000143024
0.00351852
-0.000111123
0.00347214
5.45604e-05
0.00346923
3.27147e-05
0.00355167
-0.000132203
0.00341836
0.000183305
0.00357366
-0.000220892
0.00351371
0.000116796
0.00344343
-6.86747e-05
0.00360729
-7.02099e-05
0.0034831
-0.000125773
0.00349392
0.000120436
0.00356757
-0.000254142
0.00351677
-0.000251371
0.000514342
0.00349523
0.00397219
1.0781e-05
0.00399466
-8.70513e-07
0.00398963
-8.02097e-05
0.00397576
0.000102375
0.00401494
-0.000151499
0.00395079
0.000207174
0.00401242
-0.000172757
0.00398295
8.40359e-05
0.00394003
7.56333e-05
0.00407683
-0.000268999
0.00389882
0.000361308
0.00404377
-0.000365842
0.00403976
0.000120812
0.00387968
9.14058e-05
0.00411164
-0.00030217
0.00396778
1.80846e-05
0.00391857
0.000169642
0.00405223
-0.000387794
0.00394411
-0.000143258
0.000554255
0.0039042
0.00437205
2.6232e-05
0.00439105
-1.9867e-05
0.0043943
-8.34626e-05
0.00436798
0.000128689
0.00441745
-0.000200963
0.00435289
0.000271729
0.0043954
-0.000215265
0.00440649
7.2948e-05
0.00431079
0.000171335
0.00449132
-0.000449531
0.00429771
0.000554918
0.00439602
-0.000464151
0.00447235
4.44762e-05
0.00423544
0.00032832
0.00449259
-0.000559322
0.00437221
0.000138467
0.00425573
0.000286122
0.00443
-0.000562069
0.00430285
-1.61037e-05
0.000622524
0.00423458
0.00467657
3.71646e-05
0.00468704
-3.03435e-05
0.0046977
-9.41142e-05
0.00466617
0.00016021
0.00471104
-0.000245833
0.00466645
0.000316326
0.00467599
-0.000224811
0.00472865
2.02873e-05
0.00460011
0.000299881
0.00478175
-0.000631171
0.00461982
0.000716848
0.00465243
-0.000496763
0.00479268
-9.57712e-05
0.00452504
0.000595955
0.00475733
-0.000791608
0.00468148
0.000214313
0.00452213
0.000445476
0.00470257
-0.000742516
0.0045798
0.000106672
0.000704001
0.00449832
0.00488229
4.23736e-05
0.00488533
-3.33832e-05
0.00489681
-0.000105598
0.00487129
0.000185737
0.00489852
-0.000273062
0.00488378
0.000331062
0.00486241
-0.000203437
0.00493649
-5.3793e-05
0.00481011
0.000426254
0.00495377
-0.000774826
0.004852
0.000818619
0.0048267
-0.000471463
0.00499137
-0.00026044
0.00474171
0.000845612
0.00491762
-0.000967514
0.00488229
0.000249639
0.004717
0.000610767
0.00487143
-0.000896951
0.00476191
0.000216197
0.000775681
0.00469023
0.00498712
4.27569e-05
0.00498558
-3.18501e-05
0.00499254
-0.000112551
0.00498006
0.000198217
0.00498468
-0.000277689
0.00499797
0.00031778
0.00495704
-0.000162512
0.00502878
-0.000125535
0.00493462
0.000520415
0.00501766
-0.00085786
0.00498311
0.000853166
0.00491928
-0.000407636
0.0050684
-0.000409557
0.00487641
0.0010376
0.00498058
-0.00107168
0.00497166
0.000258562
0.00483421
0.000748213
0.00493818
-0.00100092
0.00484615
0.000308225
0.000820852
0.00480098
0.00499052
3.9737e-05
0.00498673
-2.80641e-05
0.00498653
-0.000112348
0.00498934
0.000195405
0.00497227
-0.00026062
0.00500646
0.000283592
0.00495861
-0.000114655
0.00501058
-0.00017751
0.00496708
0.000563919
0.00497986
-0.000870644
0.00500821
0.000824817
0.00492639
-0.000325817
0.00502839
-0.000511561
0.00492273
0.00114327
0.00494895
-0.0010979
0.00495325
0.000254256
0.00486918
0.000832287
0.00490404
-0.00103578
0.00483458
0.000377681
0.000829989
0.00482545
0.0048928
3.44328e-05
0.00488774
-2.29999e-05
0.00488043
-0.000105037
0.00489686
0.000178978
0.00486259
-0.000226352
0.0049099
0.000236276
0.00486426
-6.90134e-05
0.00488884
-0.000202093
0.0049013
0.000551465
0.00484489
-0.000814234
0.00492654
0.000743164
0.00484292
-0.000242199
0.00487993
-0.000548569
0.00487708
0.00114612
0.00482233
-0.00104315
0.00483432
0.000242269
0.00481824
0.000848363
0.00477121
-0.000988754
0.00473303
0.000415867
0.000802177
0.00476084
0.00469413
2.78068e-05
0.00468788
-1.67501e-05
0.00467551
-9.26735e-05
0.00470126
0.00015323
0.00465654
-0.000181631
0.0047101
0.00018272
0.00467128
-3.01936e-05
0.00466993
-0.000200743
0.00473077
0.000490619
0.00461759
-0.00070105
0.00473892
0.00062183
0.0046632
-0.000166474
0.00463223
-0.000517597
0.00473587
0.00104248
0.00459866
-0.000905947
0.00462236
0.000218575
0.00467612
0.000794602
0.00454358
-0.000856215
0.00454818
0.000411266
0.000745411
0.00460495
0.00439436
2.09424e-05
0.00438707
-9.45078e-06
0.00437239
-7.79965e-05
0.00440243
0.000123185
0.00435465
-0.000133846
0.00440877
0.000128597
0.00437739
1.18558e-06
0.00435907
-0.00018242
0.00444913
0.000400559
0.00430211
-0.000554027
0.00444722
0.000476713
0.00437879
-9.80355e-05
0.00430122
-0.000440033
0.00448384
0.000859856
0.00428409
-0.000706196
0.00432554
0.000177125
0.00442799
0.000692151
0.00423619
-0.000664415
0.00428188
0.000365581
0.00067279
0.0043545
0.00399338
1.50594e-05
0.00398581
-1.88054e-06
0.00397132
-6.35062e-05
0.00400105
9.34602e-05
0.00395708
-8.98776e-05
0.00400655
7.91242e-05
0.00398176
2.59773e-05
0.00395749
-0.000158147
0.00405415
0.000303895
0.0039
-0.000399881
0.00405194
0.00032478
0.00398541
-3.15086e-05
0.00389622
-0.000350846
0.00410971
0.000646366
0.00388524
-0.000481725
0.00394558
0.000116782
0.00406305
0.00057468
0.00386224
-0.000463597
0.00392724
0.000300575
0.000587537
0.0040125
0.0034915
1.10571e-05
0.00348524
4.38591e-06
0.00347205
-5.03176e-05
0.00349824
6.72661e-05
0.00346315
-5.47817e-05
0.00350294
3.93259e-05
0.00348561
4.33126e-05
0.0034619
-0.000134443
0.00354703
0.000218767
0.00341127
-0.000264117
0.00354957
0.000186479
0.00348764
3.04265e-05
0.00341211
-0.000275324
0.00361028
0.000448196
0.00340483
-0.000276269
0.00347277
4.88431e-05
0.00358557
0.000461879
0.00341328
-0.000291312
0.00347265
0.000241207
0.000476805
0.00358338
0.0028898
8.75615e-06
0.00288601
8.17528e-06
0.00287351
-3.7813e-05
0.00289539
4.53784e-05
0.00287082
-3.02055e-05
0.00289731
1.28342e-05
0.00289064
4.99795e-05
0.00286654
-0.00011034
0.0029342
0.000151104
0.00283089
-0.000160801
0.00293584
8.15277e-05
0.00289282
7.34438e-05
0.00283242
-0.000214919
0.00299208
0.000288536
0.00283704
-0.000121233
0.0028934
-7.5175e-06
0.00300766
0.000347621
0.00286601
-0.000149661
0.00292859
0.000178628
0.000336355
0.00306904
0.00218916
7.0977e-06
0.00218748
9.85035e-06
0.00217499
-2.53183e-05
0.00219361
2.67614e-05
0.00217756
-1.4158e-05
0.00219152
-1.13129e-06
0.00219776
4.37406e-05
0.00216798
-8.05601e-05
0.00222337
9.57129e-05
0.00215016
-8.75831e-05
0.0022143
1.73833e-05
0.00220398
8.37642e-05
0.00214612
-0.000157059
0.00226847
0.00016619
0.00217347
-2.6232e-05
0.00221748
-5.15269e-05
0.0023315
0.000233596
0.00223404
-5.22013e-05
0.00233768
7.49837e-05
0.000212248
0.00246179
0.00138922
5.37738e-06
0.00139066
8.40567e-06
0.0013786
-1.32507e-05
0.00139413
1.12281e-05
0.00138442
-4.44598e-06
0.00138882
-5.53423e-06
0.00140697
2.5588e-05
0.00136793
-4.15147e-05
0.00141964
4.39981e-05
0.00136586
-3.3801e-05
0.00139186
-8.61941e-06
0.00142088
5.47446e-05
0.00134847
-8.46445e-05
0.0014479
6.67596e-05
0.00141687
4.79474e-06
0.00142417
-5.88236e-05
0.00154305
0.000114711
0.00151379
-2.2939e-05
0.00159828
-9.50411e-06
0.000112096
0.00169843
0.000492877
0.000501283
0.000488032
0.000499261
0.000494815
0.00048928
0.000514868
0.000473354
0.000517352
0.000483551
0.000474931
0.000529676
0.000445031
0.000511791
0.000516586
0.000457762
0.000572473
0.000549534
0.00054003
0.000652126
0.000819081
0.000857688
-0.00135324
0.00156131
0.000657048
-0.00139927
0.00216355
0.00254065
-0.0031429
0.00272559
0.000868887
-0.00143093
0.00323655
-0.00360947
0.00309851
0.00335228
-0.0062384
0.00612267
0.0032129
-0.00622192
0.0063613
0.00304315
-0.00552547
0.00569522
0.00287497
-0.00480454
0.00497272
0.0026655
-0.00395268
0.00416215
0.00243236
-0.00311335
0.00334649
0.00222446
-0.0023123
0.0025202
0.00206662
-0.0015727
0.00173054
0.00195982
-0.000988549
0.00109535
0.00189334
-0.000593426
0.000659905
0.00185406
-0.000350589
0.000389872
0.00183157
-0.000207806
0.00023029
0.00181902
-0.000124249
0.000136801
0.00181219
-7.42474e-05
8.10772e-05
0.00180859
-4.35992e-05
4.72058e-05
0.00180674
-2.4735e-05
2.65766e-05
0.00180584
-1.33423e-05
1.42509e-05
0.0018054
-6.7082e-06
7.14164e-06
0.0018052
-3.03034e-06
3.23064e-06
0.00180511
-1.11465e-06
1.20487e-06
0.00180507
-1.98831e-07
2.38287e-07
0.00180506
1.83082e-07
-1.66383e-07
0.00180505
2.99564e-07
-2.92616e-07
0.00180505
2.95215e-07
-2.92535e-07
0.00180505
2.46634e-07
-2.45817e-07
0.00180504
1.89089e-07
-1.88764e-07
0.00180504
1.37378e-07
-1.37154e-07
0.00180504
9.61163e-08
-9.62315e-08
0.00180505
6.50458e-08
-6.52583e-08
0.00180505
4.36399e-08
-4.36018e-08
0.00180505
2.84646e-08
-2.84889e-08
0.00180505
1.8324e-08
-1.84686e-08
0.00180505
1.16254e-08
-1.16584e-08
0.00180505
7.06344e-09
-7.03854e-09
0.00180505
4.39171e-09
-4.47639e-09
0.00180505
2.70238e-09
-2.85362e-09
0.00180505
1.57664e-09
-1.50809e-09
0.00180505
1.03876e-09
-8.99002e-10
0.00180505
2.74763e-10
-3.7084e-10
0.00180505
-2.1474e-11
-6.40062e-11
0.00180505
5.63324e-10
-4.6159e-10
0.00180505
-1.47349e-10
2.15137e-10
0.00180505
4.50003e-10
-5.11033e-10
0.00180505
-5.05647e-11
-7.75395e-11
0.00180505
-1.27353e-10
9.06183e-11
0.00180505
3.86977e-10
-3.2972e-10
0.00180505
-7.1437e-11
-4.08378e-12
0.00180505
7.89448e-11
-1.44661e-10
0.00180505
1.53992e-10
-3.18493e-11
0.00180505
-2.13134e-11
1.24017e-10
0.00180505
-5.62585e-11
7.34353e-12
0.00180505
-6.19571e-11
-8.07586e-11
0.00180505
2.06901e-10
-3.06788e-10
0.00180505
-5.00586e-11
9.77269e-11
0.00180505
7.3894e-11
1.49051e-11
0.00180505
2.20059e-10
-2.43464e-10
0.00180505
-3.09629e-10
2.26998e-10
0.00180505
1.47553e-10
-1.00878e-10
0.00180505
2.25488e-10
-7.14406e-11
0.00180505
-1.76433e-10
2.61137e-10
0.00180505
3.30046e-11
-6.5282e-11
0.00180505
2.10521e-10
-2.79205e-10
0.00180505
-2.54145e-10
2.50992e-10
0.00180505
-2.36975e-11
1.43013e-10
0.00180505
2.63453e-10
-1.24847e-10
0.00180505
-1.39017e-10
1.41739e-10
0.00180505
-1.91977e-10
2.93841e-11
0.00180505
6.1291e-11
-2.64552e-10
0.00180505
-9.28913e-11
2.09816e-11
0.00180505
-1.45261e-10
2.81328e-10
0.00180505
1.48549e-10
4.34459e-11
0.00180505
9.4237e-11
-8.23038e-11
0.00180505
-2.40817e-10
7.07129e-11
0.00180505
-2.08955e-10
-8.10469e-12
0.00180505
5.7386e-11
-1.44725e-10
0.00180505
1.29804e-10
-2.01207e-11
0.00180505
-1.42933e-11
2.69109e-10
0.00180505
-7.20659e-11
2.4938e-10
0.00180505
1.97047e-10
-7.70994e-11
0.00180505
1.07228e-10
-2.69248e-10
0.00180505
-9.48567e-11
1.26844e-10
0.00180505
-6.19573e-10
2.07586e-10
0.00180505
4.67482e-10
-5.80813e-11
0.00180505
-5.59784e-10
-6.66139e-11
0.00180505
9.30435e-10
-1.4719e-10
0.00180505
-8.96905e-10
5.74137e-11
0.00180505
3.63243e-10
1.8096e-10
0.00180505
2.50654e-10
-9.78617e-11
0.00180505
-5.42176e-10
-2.85265e-10
0.00180504
2.12385e-09
-1.40161e-10
0.00180505
-1.9044e-09
-1.42738e-10
0.00180505
1.10729e-09
-1.18335e-10
0.00180504
3.41924e-10
-1.6521e-10
0.00180505
-1.35456e-09
-4.34383e-11
-2.90979e-10
1.62106e-10
0.00163114
0.000715838
0.00199591
0.000292279
0.00254572
0.00199084
0.00318788
0.00022673
0.00360335
-0.00402494
0.00356912
-0.00620417
0.00334281
-0.0059956
0.00315544
-0.00533811
0.00298616
-0.00463526
0.00276562
-0.00373213
0.00251153
-0.00285927
0.0022801
-0.00208087
0.0021024
-0.00139501
0.00198149
-0.000867639
0.001906
-0.000517932
0.00186135
-0.000305949
0.0018358
-0.000182256
0.0018215
-0.000109944
0.00181365
-6.63964e-05
0.00180944
-3.9386e-05
0.00180723
-2.25306e-05
0.00180611
-1.22183e-05
0.00180555
-6.14934e-06
0.00180528
-2.75907e-06
0.00180515
-9.85524e-07
0.00180509
-1.39104e-07
0.00180506
2.09924e-07
0.00180505
3.11203e-07
0.00180505
2.99691e-07
0.00180504
2.47929e-07
0.00180504
1.89367e-07
0.00180504
1.37353e-07
0.00180504
9.56282e-08
0.00180504
6.45952e-08
0.00180504
4.35733e-08
0.00180504
2.83057e-08
0.00180505
1.80339e-08
0.00180505
1.1529e-08
0.00180505
7.07045e-09
0.00180505
4.17685e-09
0.00180505
2.52782e-09
0.00180505
1.6587e-09
0.00180505
1.1949e-09
0.00180505
1.30448e-10
0.00180505
-1.7429e-10
0.00180505
5.81455e-10
0.00180505
5.93693e-11
0.00180505
3.4719e-10
0.00180505
-1.7056e-10
0.00180505
-2.72871e-10
0.00180505
4.30361e-10
0.00180505
-6.11609e-11
0.00180505
1.15766e-10
0.00180505
2.8783e-10
0.00180505
2.9355e-11
0.00180505
-1.18622e-10
0.00180505
-1.13526e-10
0.00180505
1.11161e-10
0.00180505
8.28355e-11
0.00180505
1.81608e-10
0.00180505
4.08592e-11
0.00180505
-3.44637e-10
0.00180505
1.11726e-10
0.00180505
3.5026e-10
0.00180505
-5.5614e-11
0.00180505
6.01685e-11
0.00180505
6.98507e-11
0.00180505
-2.42799e-10
0.00180505
3.85778e-11
0.00180505
2.95909e-10
0.00180505
-6.84656e-11
0.00180505
-2.75265e-10
0.00180505
-1.22262e-10
0.00180505
-1.02305e-10
0.00180505
1.09634e-11
0.00180505
2.3908e-10
0.00180505
3.82528e-11
0.00180505
-4.33591e-10
0.00180505
-4.1822e-10
0.00180505
-2.33546e-11
0.00180505
2.44663e-10
0.00180505
2.62764e-10
0.00180505
2.03495e-10
0.00180505
3.27155e-10
0.00180505
-1.79326e-10
0.00180505
2.35817e-11
0.00180505
-1.01937e-09
0.00180505
7.12413e-10
0.00180505
-1.2312e-09
0.00180505
1.59554e-09
0.00180505
-1.81706e-09
0.00180505
1.06513e-09
0.00180505
3.7926e-10
0.00180505
-1.42361e-09
0.00180504
4.20648e-09
0.00180505
-3.96358e-09
0.00180505
2.21308e-09
0.00180504
6.24754e-10
0.00180505
-2.8146e-09
-3.47635e-10
0.00246987
0.000568264
0.00269293
6.9218e-05
0.00316719
0.00151658
0.00369347
-0.000299554
0.00391656
-0.00424803
0.00376777
-0.00605537
0.00349553
-0.00572337
0.00329632
-0.0051389
0.00311161
-0.00445056
0.002867
-0.00348751
0.00258656
-0.00257882
0.00233073
-0.00182503
0.00213412
-0.0011984
0.00200045
-0.00073397
0.00191701
-0.000434494
0.0018677
-0.000256638
0.00183949
-0.00015405
0.00182368
-9.41252e-05
0.00181494
-5.76606e-05
0.0018102
-3.46432e-05
0.00180767
-2.00057e-05
0.00180636
-1.09016e-05
0.00180568
-5.47677e-06
0.00180535
-2.42257e-06
0.00180518
-8.20576e-07
0.0018051
-6.03824e-08
0.00180507
2.46324e-07
0.00180505
3.27083e-07
0.00180504
3.05935e-07
0.00180504
2.49861e-07
0.00180504
1.89552e-07
0.00180504
1.36984e-07
0.00180504
9.49756e-08
0.00180504
6.39711e-08
0.00180504
4.3217e-08
0.00180504
2.8003e-08
0.00180504
1.77285e-08
0.00180505
1.138e-08
0.00180505
6.94514e-09
0.00180505
4.1171e-09
0.00180505
2.3993e-09
0.00180505
1.67176e-09
0.00180505
1.26197e-09
0.00180505
3.32901e-11
0.00180505
-1.70773e-10
0.00180505
6.19053e-10
0.00180505
1.16957e-10
0.00180505
2.63364e-10
0.00180505
-2.15758e-10
0.00180505
-3.28901e-10
0.00180505
4.64542e-10
0.00180505
-5.76712e-11
0.00180505
-2.88982e-12
0.00180505
4.25416e-10
0.00180505
6.50399e-11
0.00180505
-1.97901e-10
0.00180505
-1.06408e-10
0.00180505
-7.1703e-12
0.00180505
1.02597e-10
0.00180505
2.83009e-10
0.00180505
-3.54458e-11
0.00180505
-3.50005e-10
0.00180505
1.6421e-10
0.00180505
3.77502e-10
0.00180505
4.45968e-11
0.00180505
5.66719e-11
0.00180505
-2.59515e-11
0.00180505
-1.91304e-10
0.00180505
1.20162e-10
0.00180505
3.11183e-10
0.00180505
-2.77877e-11
0.00180505
-3.26423e-10
0.00180505
-3.16655e-10
0.00180505
-1.55574e-10
0.00180505
1.61417e-10
0.00180505
3.18119e-10
0.00180505
-1.70642e-11
0.00180505
-4.8576e-10
0.00180505
-4.96527e-10
0.00180505
-1.15423e-10
0.00180505
2.63971e-10
0.00180505
4.75034e-10
0.00180505
3.39874e-10
0.00180505
3.81039e-10
0.00180505
-3.68839e-10
0.00180505
1.43166e-10
0.00180505
-1.33308e-09
0.00180505
1.14393e-09
0.00180505
-1.93302e-09
0.00180505
2.35665e-09
0.00180505
-2.63778e-09
0.00180505
1.70853e-09
0.00180505
5.15247e-10
0.00180505
-2.33782e-09
0.00180504
6.10782e-09
0.00180505
-6.1292e-09
0.00180505
3.32514e-09
0.00180504
9.2952e-10
0.00180505
-4.15109e-09
-4.54716e-10
0.00308809
0.000448527
0.00328575
-0.000128444
0.00371865
0.00108367
0.00407998
-0.000660883
0.00416159
-0.00432964
0.00395414
-0.00584792
0.00365371
-0.00542294
0.00343609
-0.00492127
0.00322819
-0.00424266
0.00295695
-0.00321627
0.00265146
-0.00227333
0.00237386
-0.00154744
0.00216074
-0.000985278
0.00201624
-0.000589464
0.00192618
-0.000344436
0.001873
-0.000203457
0.0018426
-0.000123648
0.00182553
-7.70539e-05
0.00181605
-4.81882e-05
0.00181086
-2.94534e-05
0.00180806
-1.72056e-05
0.00180658
-9.41636e-06
0.0018058
-4.70324e-06
0.00180541
-2.02748e-06
0.00180521
-6.23028e-07
0.00180512
3.5655e-08
0.00180507
2.91452e-07
0.00180505
3.4688e-07
0.00180504
3.13721e-07
0.00180504
2.52222e-07
0.00180504
1.89601e-07
0.00180504
1.36251e-07
0.00180504
9.40545e-08
0.00180504
6.31598e-08
0.00180504
4.26444e-08
0.00180504
2.75465e-08
0.00180504
1.73508e-08
0.00180504
1.11613e-08
0.00180505
6.77264e-09
0.00180505
4.06405e-09
0.00180505
2.30923e-09
0.00180505
1.6366e-09
0.00180505
1.27573e-09
0.00180505
-1.58191e-11
0.00180505
-1.27414e-10
0.00180505
6.26834e-10
0.00180505
1.23343e-10
0.00180505
1.93179e-10
0.00180505
-2.21085e-10
0.00180505
-3.70098e-10
0.00180505
4.76404e-10
0.00180505
-3.63937e-11
0.00180505
-9.50604e-11
0.00180505
5.13555e-10
0.00180505
7.23366e-11
0.00180505
-2.56586e-10
0.00180505
-6.29159e-11
0.00180505
-8.14932e-11
0.00180505
9.41156e-11
0.00180505
3.42804e-10
0.00180505
-7.83987e-11
0.00180505
-3.32467e-10
0.00180505
1.96786e-10
0.00180505
3.6893e-10
0.00180505
1.04414e-10
0.00180505
6.53992e-11
0.00180505
-8.07073e-11
0.00180505
-1.51103e-10
0.00180505
1.61357e-10
0.00180505
2.96688e-10
0.00180505
1.56491e-12
0.00180505
-3.36965e-10
0.00180505
-4.29258e-10
0.00180505
-1.86328e-10
0.00180505
2.47048e-10
0.00180505
3.45392e-10
0.00180505
-6.67128e-11
0.00180505
-4.97436e-10
0.00180505
-5.06447e-10
0.00180505
-1.57218e-10
0.00180505
2.55419e-10
0.00180505
5.92077e-10
0.00180505
3.99527e-10
0.00180505
4.27146e-10
0.00180505
-5.2661e-10
0.00180505
3.02409e-10
0.00180505
-1.62486e-09
0.00180505
1.59988e-09
0.00180505
-2.63531e-09
0.00180505
3.14585e-09
0.00180505
-3.48471e-09
0.00180505
2.37961e-09
0.00180505
5.88978e-10
0.00180505
-3.2825e-09
0.00180504
8.00109e-09
0.00180505
-8.36961e-09
0.00180505
4.54847e-09
0.00180504
1.28293e-09
0.00180505
-5.50615e-09
-5.57781e-10
0.00362641
0.000317347
0.00378296
-0.000284989
0.00412757
0.000739059
0.00437392
-0.00090723
0.00436877
-0.00432449
0.00409501
-0.00557416
0.00376362
-0.00509154
0.00353973
-0.00469738
0.00332064
-0.00402357
0.00302963
-0.00292527
0.00270338
-0.00194708
0.00240789
-0.00125195
0.0021814
-0.000758791
0.00202838
-0.000436443
0.00193327
-0.000249322
0.00187715
-0.000147341
0.00184507
-9.15677e-05
0.00182703
-5.90126e-05
0.00181698
-3.81352e-05
0.00181143
-2.39032e-05
0.0018084
-1.41779e-05
0.00180677
-7.78848e-06
0.00180591
-3.84239e-06
0.00180547
-1.58091e-06
0.00180524
-3.96601e-07
0.00180513
1.47282e-07
0.00180507
3.44257e-07
0.00180505
3.70151e-07
0.00180504
3.22812e-07
0.00180504
2.54884e-07
0.00180504
1.89472e-07
0.00180504
1.35156e-07
0.00180504
9.28562e-08
0.00180504
6.21519e-08
0.00180504
4.18612e-08
0.00180504
2.69332e-08
0.00180504
1.68897e-08
0.00180504
1.0878e-08
0.00180505
6.56993e-09
0.00180505
4.00143e-09
0.00180505
2.24127e-09
0.00180505
1.56298e-09
0.00180505
1.25497e-09
0.00180505
-1.56952e-11
0.00180505
-6.35048e-11
0.00180505
6.14048e-10
0.00180505
8.13453e-11
0.00180505
1.34287e-10
0.00180505
-2.01499e-10
0.00180505
-3.938e-10
0.00180505
4.71412e-10
0.00180505
-9.47131e-12
0.00180505
-1.49345e-10
0.00180505
5.5293e-10
0.00180505
6.32243e-11
0.00180505
-2.92893e-10
0.00180505
-8.49031e-12
0.00180505
-1.10435e-10
0.00180505
6.45044e-11
0.00180505
3.60648e-10
0.00180505
-8.63831e-11
0.00180505
-3.04355e-10
0.00180505
2.0964e-10
0.00180505
3.44979e-10
0.00180505
1.26456e-10
0.00180505
7.73782e-11
0.00180505
-9.51649e-11
0.00180505
-1.25609e-10
0.00180505
1.70569e-10
0.00180505
2.73656e-10
0.00180505
1.66525e-11
0.00180505
-3.26973e-10
0.00180505
-4.69722e-10
0.00180505
-1.97464e-10
0.00180505
2.74764e-10
0.00180505
3.38086e-10
0.00180505
-1.01105e-10
0.00180505
-4.88761e-10
0.00180505
-4.76452e-10
0.00180505
-1.51133e-10
0.00180505
2.35917e-10
0.00180505
6.28844e-10
0.00180505
3.95591e-10
0.00180505
4.74624e-10
0.00180505
-6.54326e-10
0.00180505
4.84637e-10
0.00180505
-1.91089e-09
0.00180505
2.07956e-09
0.00180505
-3.33743e-09
0.00180504
3.97619e-09
0.00180505
-4.3735e-09
0.00180505
3.08797e-09
0.00180505
5.88457e-10
0.00180505
-4.23949e-09
0.00180504
9.92112e-09
0.00180505
-1.07042e-08
0.00180505
5.90329e-09
0.00180504
1.66018e-09
0.00180505
-6.91277e-09
-6.52892e-10
0.00407286
0.000148685
0.0041846
-0.000396723
0.00442291
0.000500745
0.00459664
-0.00108096
0.00452599
-0.00425384
0.00421331
-0.00526148
0.00387988
-0.00475811
0.00365234
-0.00446985
0.00341239
-0.00378363
0.00309492
-0.00260779
0.00274558
-0.00159774
0.00243343
-0.000939797
0.00219604
-0.000521402
0.00203667
-0.000277071
0.00193809
-0.00015074
0.00188006
-8.93132e-05
0.00184688
-5.83916e-05
0.00182818
-4.03103e-05
0.00181771
-2.76646e-05
0.00181189
-1.80806e-05
0.00180868
-1.09708e-05
0.00180694
-6.04419e-06
0.001806
-2.90839e-06
0.00180551
-1.09039e-06
0.00180526
-1.45225e-07
0.00180514
2.72383e-07
0.00180508
4.03689e-07
0.00180505
3.96358e-07
0.00180504
3.32943e-07
0.00180504
2.5769e-07
0.00180504
1.89111e-07
0.00180504
1.33704e-07
0.00180504
9.13729e-08
0.00180504
6.09306e-08
0.00180504
4.08721e-08
0.00180504
2.6166e-08
0.00180504
1.63394e-08
0.00180504
1.05369e-08
0.00180505
6.34416e-09
0.00180505
3.91533e-09
0.00180505
2.17394e-09
0.00180505
1.46754e-09
0.00180505
1.22143e-09
0.00180505
1.9796e-11
0.00180505
4.6292e-12
0.00180505
5.85148e-10
0.00180505
8.03975e-12
0.00180505
8.04775e-11
0.00180505
-1.70013e-10
0.00180505
-4.0165e-10
0.00180505
4.56484e-10
0.00180505
1.84365e-11
0.00180505
-1.76437e-10
0.00180505
5.60073e-10
0.00180505
4.68023e-11
0.00180505
-3.12206e-10
0.00180505
4.36069e-11
0.00180505
-1.10932e-10
0.00180505
2.62785e-11
0.00180505
3.50842e-10
0.00180505
-7.17959e-11
0.00180505
-2.72791e-10
0.00180505
2.07815e-10
0.00180505
3.17535e-10
0.00180505
1.25936e-10
0.00180505
8.68551e-11
0.00180505
-8.5773e-11
0.00180505
-1.10034e-10
0.00180505
1.62056e-10
0.00180505
2.51082e-10
0.00180505
2.15578e-11
0.00180505
-3.1034e-10
0.00180505
-4.6611e-10
0.00180505
-1.94374e-10
0.00180505
2.68541e-10
0.00180505
3.1322e-10
0.00180505
-1.22955e-10
0.00180505
-4.71871e-10
0.00180505
-4.28147e-10
0.00180505
-1.15443e-10
0.00180505
2.13087e-10
0.00180505
6.18021e-10
0.00180505
3.53279e-10
0.00180505
5.23621e-10
0.00180505
-7.65809e-10
0.00180505
6.80554e-10
0.00180505
-2.1975e-09
0.00180505
2.58197e-09
0.00180505
-4.04896e-09
0.00180504
4.85122e-09
0.00180505
-5.31387e-09
0.00180505
3.85062e-09
0.00180505
5.06199e-10
0.00180505
-5.194e-09
0.00180504
1.18896e-08
0.00180505
-1.31601e-08
0.00180505
7.41058e-09
0.00180504
2.03885e-09
0.00180505
-8.39358e-09
-7.28664e-10
0.00441736
-3.4096e-05
0.00448476
-0.000464118
0.0046453
0.000340198
0.00477709
-0.00121275
0.00464267
-0.00411943
0.00427105
-0.00488986
0.00391429
-0.00440135
0.0036826
-0.00423816
0.00343704
-0.00353806
0.00311156
-0.00228231
0.00275546
-0.00124163
0.00243981
-0.000624153
0.00220054
-0.000282126
0.00203974
-0.000116274
0.00194016
-5.11556e-05
0.00188152
-3.0674e-05
0.00184794
-2.48202e-05
0.00182895
-2.13126e-05
0.00181824
-1.69618e-05
0.00181224
-1.20797e-05
0.00180891
-7.63342e-06
0.00180707
-4.20981e-06
0.00180608
-1.91553e-06
0.00180555
-5.63655e-07
0.00180528
1.26999e-07
0.00180514
4.0869e-07
0.00180508
4.68585e-07
0.00180505
4.24913e-07
0.00180504
3.43812e-07
0.00180504
2.60479e-07
0.00180504
1.88451e-07
0.00180504
1.31892e-07
0.00180504
8.95937e-08
0.00180504
5.94785e-08
0.00180504
3.96781e-08
0.00180504
2.52501e-08
0.00180504
1.5702e-08
0.00180504
1.01442e-08
0.00180505
6.09462e-09
0.00180505
3.79635e-09
0.00180505
2.09345e-09
0.00180505
1.36453e-09
0.00180505
1.18813e-09
0.00180505
7.50826e-11
0.00180505
6.56904e-11
0.00180505
5.4157e-10
0.00180505
-7.92071e-11
0.00180505
2.89846e-11
0.00180505
-1.34376e-10
0.00180505
-3.97229e-10
0.00180505
4.37316e-10
0.00180505
4.51255e-11
0.00180505
-1.8755e-10
0.00180505
5.48378e-10
0.00180505
2.90164e-11
0.00180505
-3.20044e-10
0.00180505
8.8537e-11
0.00180505
-9.92058e-11
0.00180505
-1.21278e-11
0.00180505
3.28649e-10
0.00180505
-4.76002e-11
0.00180505
-2.41684e-10
0.00180505
1.97107e-10
0.00180505
2.90799e-10
0.00180505
1.16585e-10
0.00180505
9.20932e-11
0.00180505
-6.82535e-11
0.00180505
-9.90916e-11
0.00180505
1.47083e-10
0.00180505
2.30645e-10
0.00180505
2.07526e-11
0.00180505
-2.93461e-10
0.00180505
-4.41908e-10
0.00180505
-1.81146e-10
0.00180505
2.48836e-10
0.00180505
2.80398e-10
0.00180505
-1.37622e-10
0.00180505
-4.50896e-10
0.00180505
-3.7376e-10
0.00180505
-6.76148e-11
0.00180505
1.89464e-10
0.00180505
5.86421e-10
0.00180505
2.92292e-10
0.00180505
5.7167e-10
0.00180505
-8.72728e-10
0.00180505
8.86665e-10
0.00180505
-2.48719e-09
0.00180505
3.10537e-09
0.00180505
-4.78033e-09
0.00180504
5.77394e-09
0.00180505
-6.31419e-09
0.00180504
4.68563e-09
0.00180505
3.33289e-10
0.00180505
-6.1332e-09
0.00180504
1.39219e-08
0.00180505
-1.57671e-08
0.00180505
9.0957e-09
0.00180504
2.40192e-09
0.00180505
-9.96769e-09
-7.73243e-10
0.00467079
-0.000206561
0.00470275
-0.000496085
0.00480464
0.000238316
0.00489227
-0.00130039
0.0047087
-0.00393585
0.00430801
-0.00448917
0.00395551
-0.00404885
0.00372787
-0.00401053
0.00347254
-0.00328273
0.00313102
-0.0019408
0.00275938
-0.000869995
0.00243644
-0.000301212
0.00219704
-4.27285e-05
0.00203789
4.28735e-05
0.00193946
4.72808e-05
0.00188144
2.73409e-05
0.00184818
8.44649e-06
0.00182928
-2.41154e-06
0.00181855
-6.23763e-06
0.00181248
-6.00948e-06
0.00180907
-4.22122e-06
0.00180717
-2.31392e-06
0.00180614
-8.78903e-07
0.00180558
-8.82591e-09
0.00180529
4.15837e-07
0.00180515
5.5377e-07
0.00180508
5.37721e-07
0.00180505
4.55161e-07
0.00180504
3.55084e-07
0.00180503
2.63082e-07
0.00180503
1.87418e-07
0.00180504
1.29703e-07
0.00180504
8.75037e-08
0.00180504
5.77796e-08
0.00180504
3.82777e-08
0.00180504
2.41933e-08
0.00180504
1.4985e-08
0.00180504
9.70343e-09
0.00180504
5.8167e-09
0.00180504
3.63998e-09
0.00180505
1.99528e-09
0.00180505
1.26252e-09
0.00180505
1.15842e-09
0.00180505
1.3742e-10
0.00180505
1.12772e-10
0.00180505
4.84246e-10
0.00180505
-1.67606e-10
0.00180505
-1.82328e-11
0.00180505
-9.80982e-11
0.00180505
-3.83584e-10
0.00180505
4.16109e-10
0.00180505
6.99781e-11
0.00180505
-1.89969e-10
0.00180505
5.25305e-10
0.00180505
1.22604e-11
0.00180505
-3.19055e-10
0.00180505
1.25123e-10
0.00180505
-8.5012e-11
0.00180505
-4.60053e-11
0.00180505
3.0294e-10
0.00180505
-2.1645e-11
0.00180505
-2.12725e-10
0.00180505
1.81412e-10
0.00180505
2.65682e-10
0.00180505
1.05646e-10
0.00180505
9.30173e-11
0.00180505
-5.10964e-11
0.00180505
-8.9794e-11
0.00180505
1.31577e-10
0.00180505
2.12051e-10
0.00180505
1.65339e-11
0.00180505
-2.7869e-10
0.00180505
-4.09017e-10
0.00180505
-1.59959e-10
0.00180505
2.25905e-10
0.00180505
2.43283e-10
0.00180505
-1.47978e-10
0.00180505
-4.25747e-10
0.00180505
-3.18949e-10
0.00180505
-1.89916e-11
0.00180505
1.65845e-10
0.00180505
5.49354e-10
0.00180505
2.224e-10
0.00180505
6.1653e-10
0.00180505
-9.80245e-10
0.00180505
1.10319e-09
0.00180505
-2.7826e-09
0.00180504
3.64801e-09
0.00180505
-5.53835e-09
0.00180504
6.75008e-09
0.00180505
-7.38443e-09
0.00180504
5.60879e-09
0.00180505
5.7716e-11
0.00180505
-7.04472e-09
0.00180504
1.603e-08
0.00180505
-1.85554e-08
0.00180504
1.09885e-08
0.00180504
2.73609e-09
0.00180505
-1.16534e-08
-7.76301e-10
0.00483223
-0.000348559
0.00483003
-0.000493885
0.00489667
0.000171677
0.00494636
-0.00135008
0.00470463
-0.00369412
0.00425923
-0.00404377
0.00390966
-0.00369928
0.00369243
-0.00379329
0.00343788
-0.00302819
0.0030971
-0.00160001
0.00272725
-0.000500153
0.0024098
1.62411e-05
0.00217979
0.000187287
0.00202895