/*--------------------------------*- C++ -*----------------------------------*\
| =========                 |                                                 |
| \\      /  F ield         | OpenFOAM: The Open Source CFD Toolbox           |
|  \\    /   O peration     | Version:  2.4.0                                 |
|   \\  /    A nd           | Web:      www.OpenFOAM.org                      |
|    \\/     M anipulation  |                                                 |
\*---------------------------------------------------------------------------*/
FoamFile
{
    version     2.0;
    format      ascii;
    class       volScalarField;
    location    "0.66";
    object      p;
}
// * * * * * * * * * * * * * * * * * * * * * * * * * * * * * * * * * * * * * //

dimensions      [0 2 -2 0 0 0 0];

internalField   nonuniform List<scalar> 
4400
(
-22.0148
-22.2809
-22.4488
-22.3543
-22.4624
-22.6361
-23.2151
-22.9092
-23.7292
-22.8182
-23.015
-24.1119
-22.124
-25.9165
-23.6421
-22.902
-26.4624
-21.9273
-23.4309
-26.8037
-22.0902
-22.2819
-22.4609
-22.3808
-22.4925
-22.6946
-23.255
-22.9024
-23.7547
-22.8882
-23.1153
-24.5832
-22.5011
-25.8552
-23.8056
-23.1937
-26.7125
-21.9595
-23.4564
-26.7109
-22.1039
-22.2934
-22.5138
-22.4639
-22.6811
-22.8411
-23.3377
-22.9409
-23.5403
-23.1929
-23.7781
-25.1579
-22.6627
-25.6957
-23.961
-23.3884
-26.7934
-22.2339
-23.3731
-26.6146
-22.1628
-22.3085
-22.5744
-22.5652
-22.8533
-22.935
-23.2649
-22.7627
-23.5805
-23.6513
-24.0351
-24.999
-22.4232
-25.1069
-24.1639
-23.2977
-26.4203
-22.5955
-23.3364
-26.3731
-22.1973
-22.3171
-22.6156
-22.5888
-22.9359
-22.8892
-23.1276
-22.922
-23.6435
-23.8923
-23.7704
-24.6521
-22.4936
-24.9941
-24.2573
-23.1398
-26.2142
-23.2528
-23.3316
-26.37
-22.2403
-22.3169
-22.6189
-22.5704
-22.923
-22.8339
-23.0855
-23.0288
-23.6688
-23.935
-23.4756
-24.4189
-22.6747
-24.7534
-24.2706
-23.0157
-25.8828
-23.2646
-23.231
-26.1198
-22.2687
-22.3098
-22.6059
-22.5357
-22.8819
-22.8042
-23.0729
-23.1246
-23.5096
-23.9045
-23.2822
-24.2726
-22.9547
-24.5648
-24.3332
-22.9363
-25.5745
-23.5824
-23.1388
-25.9128
-22.2964
-22.3027
-22.5879
-22.5045
-22.8383
-22.7919
-23.0709
-23.1511
-23.3596
-23.8358
-23.1778
-24.2121
-23.0651
-24.4323
-24.3428
-22.9419
-25.3734
-23.6998
-23.1184
-25.6731
-22.3191
-22.2916
-22.5649
-22.48
-22.7971
-22.7884
-23.0614
-23.1705
-23.2346
-23.773
-23.1294
-24.1481
-23.2066
-24.2491
-24.4186
-23.0346
-25.1696
-23.9786
-23.1429
-25.4945
-22.3346
-22.2836
-22.5449
-22.4632
-22.7628
-22.7946
-23.0414
-23.189
-23.1253
-23.7278
-23.0978
-24.0824
-23.2997
-24.1327
-24.4739
-23.1292
-25.0335
-24.1215
-23.1867
-25.3816
-22.3483
-22.2761
-22.5224
-22.4569
-22.7348
-22.8038
-23.0203
-23.1964
-23.036
-23.6859
-23.0794
-23.9843
-23.4198
-23.999
-24.4929
-23.2329
-24.8493
-24.2507
-23.2594
-25.2549
-22.3529
-22.2672
-22.5053
-22.4541
-22.7112
-22.8213
-22.9893
-23.2006
-22.9678
-23.6436
-23.0674
-23.8979
-23.5161
-23.8779
-24.5126
-23.3
-24.6985
-24.384
-23.3286
-25.1481
-22.3556
-22.2631
-22.4847
-22.4586
-22.6905
-22.8362
-22.9602
-23.2019
-22.9061
-23.6078
-23.0714
-23.7976
-23.6223
-23.78
-24.5065
-23.386
-24.5617
-24.4765
-23.399
-25.119
-22.3514
-22.2557
-22.4705
-22.4644
-22.6714
-22.8563
-22.927
-23.1983
-22.8616
-23.5707
-23.0784
-23.7105
-23.7073
-23.6779
-24.5078
-23.4585
-24.4097
-24.5827
-23.4755
-24.9365
-22.3428
-22.2528
-22.4544
-22.4743
-22.6551
-22.8721
-22.8963
-23.1949
-22.8203
-23.5383
-23.0988
-23.6172
-23.7943
-23.5994
-24.4886
-23.5338
-24.2877
-24.6516
-23.5393
-24.9805
-22.3294
-22.2462
-22.4441
-22.4835
-22.639
-22.8901
-22.8651
-23.1889
-22.7902
-23.5062
-23.1165
-23.5391
-23.861
-23.5179
-24.4768
-23.5985
-24.1491
-24.7338
-23.6133
-24.7491
-22.3104
-22.2436
-22.4343
-22.4945
-22.6265
-22.9034
-22.839
-23.1847
-22.764
-23.4781
-23.1405
-23.4623
-23.9226
-23.4589
-24.448
-23.6669
-24.0501
-24.779
-23.6673
-24.7824
-22.2864
-22.236
-22.4294
-22.5013
-22.6147
-22.9149
-22.8164
-23.1815
-22.7439
-23.4563
-23.156
-23.4054
-23.9715
-23.3972
-24.4319
-23.7205
-23.948
-24.8389
-23.7267
-24.6418
-22.2604
-22.24
-22.4279
-22.5096
-22.6071
-22.9232
-22.799
-23.1847
-22.7289
-23.4357
-23.172
-23.3517
-24.0102
-23.3579
-24.4006
-23.7654
-23.867
-24.866
-23.7641
-24.5865
-22.2114
-22.2294
-22.4267
-22.5109
-22.6023
-22.926
-22.7922
-23.1832
-22.7254
-23.4258
-23.1726
-23.3291
-24.0293
-23.3357
-24.3807
-23.7843
-23.8289
-24.8694
-23.79
-24.5052
-17.5797
-16.7866
-40.0561
-63.0118
-61.5331
-41.9256
-26.4521
-16.8107
-9.66414
-4.48342
-1.46002
0.306468
1.33608
1.89289
2.17628
2.3078
2.36032
2.37477
2.37134
2.35919
2.34248
2.32324
2.30257
2.28104
2.25896
2.23649
2.21373
2.19073
2.16753
2.14414
2.12056
2.09681
2.07289
2.04879
2.02453
2.00008
1.97547
1.95068
1.92572
1.90057
1.87526
1.84976
1.82409
1.79823
1.77219
1.74597
1.71957
1.69298
1.6662
1.63924
1.61208
1.58474
1.5572
1.52947
1.50154
1.47342
1.4451
1.41658
1.38786
1.35894
1.32982
1.30049
1.27095
1.24121
1.21126
1.1811
1.15073
1.12014
1.08934
1.05832
1.02708
0.995627
0.963951
0.932052
0.899928
0.867579
0.835003
0.802198
0.769162
0.735895
0.702393
0.668656
0.634683
0.60047
0.566017
0.531322
0.496383
0.4612
0.425766
0.390088
0.354156
0.317971
0.281538
0.244836
0.207893
0.170677
0.133198
0.0954766
0.0574638
0.0191937
-18.4685
-18.2485
-39.4877
-60.2873
-57.7372
-39.9247
-25.4245
-16.1582
-9.53563
-4.81032
-1.84612
-2.45084e-05
1.11391
1.7351
2.06911
2.23695
2.3134
2.34357
2.35071
2.34565
2.33364
2.3175
2.29886
2.27865
2.25742
2.2355
2.2131
2.19033
2.16727
2.14398
2.12046
2.09675
2.07285
2.04877
2.02451
2.00007
1.97546
1.95068
1.92571
1.90057
1.87526
1.84976
1.82409
1.79823
1.77219
1.74597
1.71957
1.69298
1.6662
1.63924
1.61208
1.58474
1.5572
1.52947
1.50154
1.47342
1.4451
1.41658
1.38786
1.35894
1.32982
1.30049
1.27095
1.24121
1.21126
1.1811
1.15073
1.12014
1.08934
1.05832
1.02708
0.995627
0.963951
0.932051
0.899928
0.867579
0.835003
0.802198
0.769162
0.735894
0.702393
0.668656
0.634683
0.60047
0.566017
0.531323
0.496383
0.4612
0.425766
0.390088
0.354156
0.317971
0.281537
0.244836
0.207893
0.170677
0.133198
0.0954768
0.0574634
0.0191939
-19.1643
-19.0289
-38.3926
-57.3033
-53.6215
-37.5318
-24.5825
-15.9483
-9.51571
-4.99885
-2.15019
-0.280567
0.902813
1.58742
1.96717
2.1675
2.26692
2.31277
2.33044
2.33236
2.32495
2.31185
2.29519
2.27628
2.2559
2.23453
2.21248
2.18993
2.16702
2.14382
2.12036
2.09669
2.07281
2.04875
2.0245
2.00007
1.97546
1.95067
1.92571
1.90057
1.87526
1.84976
1.82409
1.79823
1.77219
1.74597
1.71957
1.69298
1.6662
1.63924
1.61208
1.58474
1.5572
1.52947
1.50154
1.47342
1.4451
1.41658
1.38786
1.35894
1.32982
1.30049
1.27095
1.24121
1.21126
1.1811
1.15073
1.12014
1.08934
1.05832
1.02708
0.995627
0.963951
0.932051
0.899928
0.867579
0.835003
0.802198
0.769162
0.735894
0.702393
0.668656
0.634683
0.60047
0.566017
0.531323
0.496383
0.4612
0.425766
0.390088
0.354156
0.317971
0.281537
0.244836
0.207893
0.170677
0.133198
0.0954767
0.0574635
0.0191939
-20.8557
-19.9228
-36.6721
-53.5074
-49.791
-35.5644
-23.6631
-15.578
-9.6653
-5.34477
-2.49217
-0.574521
0.678844
1.43589
1.86985
2.10251
2.22225
2.28249
2.31036
2.3192
2.31638
2.30628
2.29158
2.27395
2.2544
2.23357
2.21186
2.18955
2.16678
2.14366
2.12026
2.09662
2.07277
2.04872
2.02448
2.00006
1.97545
1.95067
1.92571
1.90057
1.87525
1.84976
1.82409
1.79823
1.77219
1.74597
1.71957
1.69298
1.6662
1.63924
1.61208
1.58474
1.5572
1.52947
1.50154
1.47342
1.4451
1.41658
1.38786
1.35894
1.32982
1.30049
1.27095
1.24121
1.21126
1.1811
1.15073
1.12014
1.08934
1.05832
1.02708
0.995627
0.963951
0.932051
0.899928
0.867579
0.835003
0.802198
0.769162
0.735894
0.702393
0.668656
0.634683
0.60047
0.566017
0.531323
0.496383
0.4612
0.425766
0.390088
0.354156
0.317971
0.281537
0.244836
0.207893
0.170677
0.133198
0.0954767
0.0574635
0.0191938
-21.7661
-21.4022
-34.968
-48.9603
-45.8471
-34.0123
-23.4319
-15.4146
-9.53621
-5.49786
-2.76451
-0.821128
0.482855
1.28875
1.77069
2.03902
2.18052
2.2544
2.29152
2.30669
2.30814
2.30089
2.28808
2.27169
2.25294
2.23263
2.21127
2.18917
2.16654
2.14351
2.12017
2.09656
2.07273
2.0487
2.02447
2.00005
1.97545
1.95067
1.92571
1.90057
1.87525
1.84976
1.82408
1.79823
1.77219
1.74597
1.71957
1.69298
1.6662
1.63924
1.61208
1.58474
1.5572
1.52947
1.50154
1.47342
1.4451
1.41658
1.38786
1.35894
1.32982
1.30049
1.27095
1.24121
1.21126
1.1811
1.15073
1.12014
1.08934
1.05832
1.02708
0.995627
0.963951
0.932051
0.899928
0.867579
0.835003
0.802198
0.769162
0.735894
0.702393
0.668656
0.634683
0.60047
0.566017
0.531323
0.496383
0.4612
0.425766
0.390088
0.354156
0.317971
0.281537
0.244836
0.207893
0.170677
0.133198
0.0954767
0.0574635
0.0191938
-22.518
-22.2385
-33.1717
-45.0899
-42.2934
-32.1539
-22.9437
-15.6576
-9.87044
-5.79691
-3.06763
-1.09331
0.284306
1.15668
1.67716
1.97228
2.13516
2.22466
2.27229
2.29424
2.30006
2.29564
2.28468
2.26949
2.25153
2.23173
2.21069
2.1888
2.1663
2.14336
2.12007
2.09651
2.0727
2.04867
2.02445
2.00004
1.97544
1.95066
1.9257
1.90057
1.87525
1.84976
1.82408
1.79823
1.77219
1.74597
1.71957
1.69298
1.6662
1.63924
1.61208
1.58474
1.5572
1.52947
1.50154
1.47342
1.4451
1.41658
1.38786
1.35894
1.32982
1.30049
1.27095
1.24121
1.21126
1.1811
1.15073
1.12014
1.08934
1.05832
1.02708
0.995627
0.963951
0.932051
0.899928
0.867579
0.835003
0.802198
0.769162
0.735894
0.702393
0.668656
0.634683
0.60047
0.566017
0.531323
0.496383
0.4612
0.425766
0.390088
0.354156
0.317971
0.281537
0.244836
0.207893
0.170677
0.133198
0.0954766
0.0574636
0.0191938
-22.8933
-22.4859
-31.6775
-41.6992
-39.6648
-30.7885
-22.0621
-15.1828
-9.95714
-6.06488
-3.31179
-1.31391
0.0873677
1.02528
1.60637
1.92775
2.10204
2.20014
2.25516
2.28269
2.29242
2.29063
2.28142
2.26738
2.25017
2.23086
2.21013
2.18844
2.16608
2.14322
2.11998
2.09645
2.07266
2.04865
2.02444
2.00003
1.97544
1.95066
1.9257
1.90057
1.87525
1.84976
1.82408
1.79823
1.77219
1.74597
1.71957
1.69298
1.6662
1.63924
1.61208
1.58474
1.5572
1.52947
1.50154
1.47342
1.4451
1.41658
1.38786
1.35894
1.32982
1.30049
1.27095
1.24121
1.21126
1.1811
1.15073
1.12014
1.08934
1.05832
1.02708
0.995627
0.963951
0.932051
0.899928
0.867579
0.835003
0.802198
0.769162
0.735894
0.702393
0.668656
0.634683
0.60047
0.566017
0.531323
0.496383
0.4612
0.425766
0.390088
0.354156
0.317971
0.281537
0.244836
0.207893
0.170677
0.133198
0.0954766
0.0574636
0.0191938
-23.3366
-22.8583
-30.5163
-38.7073
-36.9995
-29.3352
-21.4491
-14.777
-9.74172
-6.21574
-3.55201
-1.4962
-0.0650198
0.876684
1.4933
1.85484
2.05768
2.17275
2.23778
2.27144
2.28507
2.28584
2.27831
2.26537
2.24888
2.23003
2.2096
2.18811
2.16586
2.14308
2.1199
2.0964
2.07263
2.04863
2.02442
2.00002
1.97543
1.95066
1.9257
1.90057
1.87525
1.84976
1.82408
1.79823
1.77219
1.74597
1.71957
1.69298
1.6662
1.63924
1.61208
1.58474
1.5572
1.52947
1.50154
1.47342
1.4451
1.41658
1.38786
1.35894
1.32982
1.30049
1.27095
1.24121
1.21126
1.1811
1.15073
1.12014
1.08934
1.05832
1.02708
0.995627
0.963951
0.932051
0.899928
0.867579
0.835003
0.802198
0.769162
0.735894
0.702393
0.668656
0.634683
0.60047
0.566017
0.531323
0.496383
0.4612
0.425766
0.390088
0.354156
0.317971
0.281537
0.244836
0.207893
0.170677
0.133198
0.0954766
0.0574636
0.0191938
-23.7176
-23.0793
-29.6652
-36.4396
-34.7684
-27.9982
-20.9207
-14.9255
-9.99282
-6.44357
-3.80221
-1.72473
-0.195721
0.827005
1.46567
1.82405
2.02762
2.14982
2.22199
2.26096
2.27821
2.28136
2.27539
2.26348
2.24766
2.22924
2.2091
2.18779
2.16566
2.14295
2.11982
2.09634
2.0726
2.04861
2.02441
2.00001
1.97543
1.95065
1.9257
1.90056
1.87525
1.84976
1.82408
1.79823
1.77219
1.74597
1.71957
1.69298
1.6662
1.63924
1.61208
1.58474
1.5572
1.52947
1.50154
1.47342
1.4451
1.41658
1.38786
1.35894
1.32982
1.30049
1.27095
1.24121
1.21126
1.1811
1.15073
1.12014
1.08934
1.05832
1.02708
0.995627
0.963951
0.932051
0.899928
0.867579
0.835003
0.802198
0.769162
0.735894
0.702393
0.668656
0.634683
0.60047
0.566017
0.531322
0.496383
0.4612
0.425766
0.390088
0.354156
0.317971
0.281537
0.244836
0.207893
0.170677
0.133198
0.0954766
0.0574636
0.0191939
-24.0393
-23.3598
-29.028
-34.495
-33.1106
-27.1775
-20.5242
-14.5198
-9.94481
-6.6483
-3.99598
-1.90543
-0.420655
0.641796
1.36034
1.77067
1.99482
2.12826
2.2075
2.25124
2.27174
2.27712
2.27264
2.2617
2.24651
2.22851
2.20863
2.18749
2.16547
2.14283
2.11974
2.0963
2.07257
2.04859
2.0244
2.00001
1.97542
1.95065
1.9257
1.90056
1.87525
1.84976
1.82408
1.79823
1.77219
1.74597
1.71957
1.69298
1.6662
1.63924
1.61208
1.58474
1.5572
1.52947
1.50154
1.47342
1.4451
1.41658
1.38786
1.35894
1.32982
1.30049
1.27095
1.24121
1.21126
1.1811
1.15073
1.12014
1.08934
1.05832
1.02708
0.995627
0.963951
0.932051
0.899928
0.867579
0.835003
0.802198
0.769162
0.735894
0.702393
0.668656
0.634683
0.60047
0.566017
0.531322
0.496383
0.4612
0.425766
0.390088
0.354156
0.317971
0.281537
0.244836
0.207893
0.170677
0.133198
0.0954765
0.0574637
0.0191939
-24.3428
-23.622
-28.4429
-33.1761
-31.6648
-26.1276
-20.0878
-14.4687
-9.96395
-6.79845
-4.26419
-2.12195
-0.458946
0.635566
1.31944
1.71481
1.95552
2.10532
2.19338
2.24222
2.2659
2.27329
2.27013
2.26007
2.24546
2.22783
2.2082
2.18721
2.16529
2.14272
2.11967
2.09625
2.07254
2.04857
2.02439
2
1.97542
1.95065
1.9257
1.90056
1.87525
1.84976
1.82408
1.79823
1.77219
1.74597
1.71957
1.69298
1.6662
1.63924
1.61208
1.58474
1.5572
1.52947
1.50154
1.47342
1.4451
1.41658
1.38786
1.35894
1.32982
1.30049
1.27095
1.24121
1.21126
1.1811
1.15073
1.12014
1.08934
1.05832
1.02708
0.995627
0.963951
0.932051
0.899928
0.867579
0.835003
0.802198
0.769162
0.735894
0.702393
0.668656
0.634683
0.60047
0.566017
0.531322
0.496383
0.4612
0.425766
0.390088
0.354156
0.317971
0.281537
0.244836
0.207893
0.170677
0.133198
0.0954765
0.0574637
0.0191939
-24.6009
-23.8501
-27.9457
-31.8857
-30.3954
-25.4422
-19.6936
-14.2982
-10.0373
-6.91328
-4.38629
-2.31245
-0.732721
0.504851
1.30547
1.73607
1.94853
2.09033
2.1817
2.23405
2.26042
2.2697
2.26781
2.25857
2.24449
2.22721
2.2078
2.18696
2.16513
2.14262
2.11961
2.09621
2.07251
2.04856
2.02438
1.99999
1.97541
1.95064
1.92569
1.90056
1.87525
1.84976
1.82408
1.79823
1.77219
1.74597
1.71957
1.69298
1.6662
1.63924
1.61208
1.58474
1.5572
1.52947
1.50154
1.47342
1.4451
1.41658
1.38786
1.35894
1.32982
1.30049
1.27095
1.24121
1.21126
1.1811
1.15073
1.12014
1.08934
1.05832
1.02708
0.995627
0.963951
0.932051
0.899928
0.867579
0.835003
0.802198
0.769162
0.735894
0.702393
0.668656
0.634683
0.60047
0.566017
0.531322
0.496383
0.4612
0.425766
0.390088
0.354156
0.317971
0.281537
0.244836
0.207893
0.170677
0.133198
0.0954765
0.0574637
0.0191939
-24.8111
-24.0403
-27.5075
-30.8207
-29.2379
-24.656
-19.3739
-14.1396
-10.0499
-7.20256
-4.62421
-2.33309
-0.74983
0.404725
1.13067
1.59421
1.89074
2.06952
2.17013
2.22682
2.25572
2.2666
2.26577
2.25724
2.24363
2.22666
2.20745
2.18673
2.16499
2.14253
2.11955
2.09618
2.07249
2.04854
2.02437
1.99999
1.97541
1.95064
1.92569
1.90056
1.87525
1.84976
1.82408
1.79823
1.77219
1.74597
1.71957
1.69298
1.6662
1.63924
1.61208
1.58474
1.5572
1.52947
1.50154
1.47342
1.4451
1.41658
1.38786
1.35894
1.32982
1.30049
1.27095
1.24121
1.21126
1.1811
1.15073
1.12014
1.08934
1.05832
1.02708
0.995627
0.963951
0.932051
0.899928
0.867579
0.835003
0.802198
0.769162
0.735894
0.702393
0.668656
0.634683
0.60047
0.566017
0.531322
0.496383
0.4612
0.425766
0.390088
0.354156
0.317971
0.281537
0.244836
0.207893
0.170677
0.133198
0.0954764
0.0574638
0.0191939
-25.0185
-24.2207
-27.1675
-29.9018
-28.386
-24.0925
-19.0341
-13.9915
-10.0669
-7.31137
-4.83848
-2.65333
-0.862812
0.496228
1.27625
1.68033
1.90526
2.06001
2.16123
2.22047
2.25144
2.26379
2.26394
2.25606
2.24287
2.22617
2.20713
2.18653
2.16487
2.14245
2.1195
2.09614
2.07247
2.04853
2.02436
1.99998
1.97541
1.95064
1.92569
1.90056
1.87525
1.84976
1.82408
1.79823
1.77219
1.74597
1.71957
1.69298
1.6662
1.63924
1.61208
1.58474
1.5572
1.52947
1.50154
1.47342
1.4451
1.41658
1.38786
1.35894
1.32982
1.30049
1.27095
1.24121
1.21126
1.1811
1.15073
1.12014
1.08934
1.05832
1.02708
0.995627
0.963951
0.932051
0.899928
0.867579
0.835003
0.802198
0.769162
0.735894
0.702393
0.668656
0.634683
0.60047
0.566017
0.531322
0.496383
0.4612
0.425766
0.390088
0.354156
0.317971
0.281537
0.244836
0.207893
0.170677
0.133198
0.0954764
0.0574638
0.0191939
-25.036
-24.3454
-26.8517
-29.1713
-27.6009
-23.6155
-18.7866
-13.8348
-10.1105
-7.51517
-5.02308
-2.71519
-0.976396
0.202125
1.01204
1.53543
1.84344
2.0417
2.15246
2.21499
2.24789
2.26145
2.26241
2.25506
2.24222
2.22575
2.20687
2.18636
2.16476
2.14238
2.11946
2.09612
2.07245
2.04852
2.02436
1.99998
1.9754
1.95064
1.92569
1.90056
1.87525
1.84976
1.82408
1.79823
1.77219
1.74597
1.71957
1.69298
1.6662
1.63924
1.61208
1.58474
1.5572
1.52947
1.50154
1.47342
1.4451
1.41658
1.38786
1.35894
1.32982
1.30049
1.27095
1.24121
1.21126
1.1811
1.15073
1.12014
1.08934
1.05832
1.02708
0.995627
0.963951
0.932051
0.899928
0.867579
0.835003
0.802198
0.769162
0.735894
0.702393
0.668656
0.634683
0.60047
0.566017
0.531322
0.496383
0.4612
0.425766
0.390088
0.354156
0.317971
0.281537
0.244836
0.207893
0.170677
0.133198
0.0954763
0.0574638
0.019194
-25.3043
-24.4895
-26.5484
-28.5244
-26.9792
-23.1943
-18.5138
-13.6863
-10.1161
-7.66535
-5.22452
-2.82965
-0.965491
0.352917
1.14103
1.59327
1.8766
2.03895
2.1468
2.21075
2.24497
2.25951
2.26113
2.25422
2.24168
2.2254
2.20665
2.18622
2.16467
2.14233
2.11942
2.0961
2.07244
2.04851
2.02435
1.99998
1.9754
1.95064
1.92569
1.90056
1.87525
1.84976
1.82408
1.79823
1.77219
1.74597
1.71957
1.69298
1.6662
1.63924
1.61208
1.58474
1.5572
1.52947
1.50154
1.47342
1.4451
1.41658
1.38786
1.35894
1.32982
1.30049
1.27095
1.24121
1.21126
1.1811
1.15073
1.12014
1.08934
1.05832
1.02708
0.995627
0.963951
0.932051
0.899928
0.867579
0.835003
0.802198
0.769162
0.735894
0.702393
0.668656
0.634683
0.60047
0.566017
0.531322
0.496383
0.4612
0.425766
0.390088
0.354156
0.317971
0.281537
0.244836
0.207893
0.170677
0.133198
0.0954763
0.0574639
0.019194
-25.3686
-24.5836
-26.3599
-27.9948
-26.4748
-22.9136
-18.2981
-13.4884
-10.1621
-7.90033
-5.39224
-2.91513
-1.07548
0.15493
0.983528
1.51036
1.8382
2.02714
2.14075
2.20726
2.24269
2.258
2.26014
2.25358
2.24126
2.22513
2.20647
2.18611
2.1646
2.14228
2.11939
2.09608
2.07243
2.04851
2.02435
1.99997
1.9754
1.95064
1.92569
1.90056
1.87525
1.84976
1.82408
1.79823
1.77219
1.74597
1.71957
1.69298
1.6662
1.63924
1.61208
1.58474
1.5572
1.52947
1.50154
1.47342
1.4451
1.41658
1.38786
1.35894
1.32982
1.30049
1.27095
1.24121
1.21126
1.1811
1.15073
1.12014
1.08934
1.05832
1.02708
0.995627
0.963951
0.932051
0.899928
0.867579
0.835003
0.802198
0.769162
0.735894
0.702393
0.668656
0.634683
0.60047
0.566017
0.531322
0.496383
0.4612
0.425766
0.390088
0.354156
0.317971
0.281537
0.244836
0.207893
0.170677
0.133198
0.0954762
0.0574639
0.019194
-25.4481
-24.6917
-26.127
-27.5565
-26.1159
-22.7005
-18.0869
-13.3216
-10.1692
-8.04958
-5.61755
-3.11193
-1.10328
0.24548
1.07137
1.5541
1.84809
2.02683
2.13821
2.20505
2.24109
2.25691
2.25941
2.2531
2.24095
2.22494
2.20635
2.18603
2.16455
2.14225
2.11937
2.09606
2.07242
2.0485
2.02434
1.99997
1.9754
1.95064
1.92569
1.90056
1.87525
1.84976
1.82408
1.79823
1.77219
1.74597
1.71957
1.69298
1.6662
1.63924
1.61208
1.58474
1.5572
1.52947
1.50154
1.47342
1.4451
1.41658
1.38786
1.35894
1.32982
1.30049
1.27095
1.24121
1.21126
1.1811
1.15073
1.12014
1.08934
1.05832
1.02708
0.995627
0.963951
0.932051
0.899928
0.867579
0.835003
0.802198
0.769162
0.735894
0.702393
0.668656
0.634683
0.60047
0.566017
0.531322
0.496383
0.4612
0.425766
0.390088
0.354156
0.317971
0.281537
0.244836
0.207893
0.170677
0.133198
0.0954762
0.057464
0.0191941
-25.4843
-24.7653
-25.9907
-27.1788
-25.8286
-22.6402
-17.884
-13.0721
-10.2054
-8.24017
-5.69311
-3.07356
-1.13236
0.154757
0.988557
1.51067
1.8318
2.02132
2.13597
2.20369
2.24021
2.25632
2.25902
2.25284
2.24078
2.22483
2.20628
2.18599
2.16452
2.14223
2.11936
2.09606
2.07242
2.0485
2.02434
1.99997
1.9754
1.95064
1.92569
1.90056
1.87525
1.84976
1.82408
1.79823
1.77219
1.74597
1.71957
1.69298
1.6662
1.63924
1.61208
1.58474
1.5572
1.52947
1.50154
1.47342
1.4451
1.41658
1.38786
1.35894
1.32982
1.30049
1.27095
1.24121
1.21126
1.1811
1.15073
1.12014
1.08934
1.05832
1.02708
0.995627
0.963951
0.932051
0.899928
0.867579
0.835003
0.802198
0.769162
0.735894
0.702393
0.668656
0.634683
0.60047
0.566017
0.531322
0.496383
0.4612
0.425766
0.390088
0.354156
0.317971
0.281537
0.244836
0.207893
0.170677
0.133198
0.0954761
0.0574641
0.0191941
-25.4862
-24.8275
-25.8928
-26.9758
-25.7007
-22.5535
-17.7796
-12.9702
-10.1133
-8.24411
-5.78444
-3.1735
-1.14769
0.194022
1.03193
1.534
1.83949
2.02301
2.13591
2.20328
2.23984
2.25604
2.25882
2.25271
2.2407
2.22477
2.20624
2.18596
2.1645
2.14222
2.11936
2.09605
2.07241
2.0485
2.02434
1.99997
1.9754
1.95064
1.92569
1.90056
1.87525
1.84976
1.82408
1.79823
1.77219
1.74597
1.71957
1.69298
1.6662
1.63924
1.61208
1.58474
1.5572
1.52947
1.50154
1.47342
1.4451
1.41658
1.38786
1.35894
1.32982
1.30049
1.27095
1.24121
1.21126
1.1811
1.15073
1.12014
1.08934
1.05832
1.02708
0.995627
0.963951
0.932051
0.899928
0.867579
0.835003
0.802198
0.769162
0.735894
0.702393
0.668656
0.634683
0.60047
0.566017
0.531322
0.496383
0.4612
0.425766
0.390088
0.354156
0.317971
0.281537
0.244836
0.207893
0.170677
0.133198
0.095476
0.0574642
0.0191941
-22.3134
-25.1407
-33.8254
-47.2277
-49.3427
-38.9184
-22.6449
-8.44527
1.13069
5.23798
6.2579
5.89078
5.14282
4.40632
3.8078
3.36489
3.04699
2.82063
2.66001
2.54556
2.46249
2.40037
2.35204
2.31275
2.27924
2.24943
2.22197
2.19596
2.17084
2.14623
2.12188
2.09764
2.07341
2.04912
2.02473
2.00021
1.97554
1.95073
1.92574
1.90059
1.87527
1.84977
1.82409
1.79823
1.77219
1.74597
1.71957
1.69298
1.6662
1.63924
1.61208
1.58474
1.5572
1.52947
1.50154
1.47342
1.4451
1.41658
1.38786
1.35894
1.32982
1.30049
1.27095
1.24121
1.21126
1.1811
1.15073
1.12014
1.08934
1.05832
1.02708
0.995627
0.96395
0.932052
0.899928
0.867579
0.835003
0.802198
0.769162
0.735895
0.702393
0.668656
0.634682
0.60047
0.566017
0.531322
0.496383
0.4612
0.425767
0.390088
0.354156
0.317971
0.281538
0.244836
0.207893
0.170677
0.133198
0.0954759
0.0574644
0.019194
-21.8483
-25.221
-34.0932
-47.5484
-49.948
-39.2631
-22.8946
-8.59945
1.02671
5.17235
6.20928
5.85667
5.11934
4.39041
3.79708
3.35767
3.04218
2.81749
2.65811
2.5444
2.46178
2.39994
2.35177
2.31259
2.27913
2.24937
2.22193
2.19594
2.17083
2.14622
2.12188
2.09764
2.07341
2.04912
2.02472
2.00021
1.97554
1.95073
1.92574
1.90059
1.87527
1.84977
1.82409
1.79823
1.77219
1.74597
1.71957
1.69298
1.6662
1.63924
1.61208
1.58474
1.5572
1.52947
1.50154
1.47342
1.4451
1.41658
1.38786
1.35894
1.32982
1.30049
1.27095
1.24121
1.21126
1.1811
1.15073
1.12014
1.08934
1.05832
1.02708
0.995627
0.96395
0.932052
0.899928
0.867579
0.835003
0.802198
0.769162
0.735895
0.702393
0.668656
0.634682
0.60047
0.566017
0.531322
0.496383
0.4612
0.425767
0.390088
0.354156
0.317971
0.281538
0.244836
0.207893
0.170677
0.133198
0.0954759
0.0574643
0.019194
-22.7232
-25.5696
-34.2692
-48.7919
-51.0323
-40.0501
-23.3653
-8.88978
0.828423
5.02238
6.11169
5.78698
5.07129
4.35805
3.77563
3.34354
3.03302
2.81169
2.6545
2.54219
2.46045
2.39915
2.35133
2.31228
2.27894
2.24925
2.22186
2.19589
2.1708
2.1462
2.12186
2.09763
2.0734
2.04911
2.02472
2.00021
1.97554
1.95073
1.92574
1.90059
1.87527
1.84977
1.82409
1.79823
1.77219
1.74597
1.71957
1.69298
1.6662
1.63924
1.61208
1.58474
1.5572
1.52947
1.50154
1.47342
1.4451
1.41658
1.38786
1.35894
1.32982
1.30049
1.27095
1.24121
1.21126
1.1811
1.15073
1.12014
1.08934
1.05832
1.02708
0.995627
0.96395
0.932052
0.899928
0.867579
0.835003
0.802198
0.769162
0.735895
0.702393
0.668656
0.634682
0.60047
0.566017
0.531322
0.496383
0.4612
0.425767
0.390088
0.354156
0.317971
0.281538
0.244836
0.207893
0.170677
0.133198
0.095476
0.0574642
0.0191939
-21.5747
-27.1287
-35.1748
-50.1067
-52.7564
-41.209
-24.1119
-9.32002
0.520726
4.79878
5.96263
5.68135
4.99873
4.30976
3.7442
3.32319
3.01991
2.80332
2.6492
2.53886
2.45836
2.39783
2.3505
2.31176
2.27861
2.24904
2.22172
2.19581
2.17075
2.14617
2.12184
2.09762
2.07339
2.04911
2.02472
2.0002
1.97554
1.95072
1.92574
1.90059
1.87527
1.84977
1.82409
1.79823
1.77219
1.74597
1.71957
1.69298
1.6662
1.63924
1.61208
1.58474
1.5572
1.52947
1.50154
1.47342
1.4451
1.41658
1.38786
1.35894
1.32982
1.30049
1.27095
1.24121
1.21126
1.1811
1.15073
1.12014
1.08934
1.05832
1.02708
0.995627
0.96395
0.932052
0.899928
0.867579
0.835003
0.802198
0.769162
0.735895
0.702393
0.668656
0.634682
0.60047
0.566017
0.531322
0.496383
0.4612
0.425767
0.390088
0.354156
0.317971
0.281538
0.244836
0.207893
0.170677
0.133198
0.095476
0.0574642
0.0191939
-21.9763
-26.7413
-36.02
-51.8932
-55.1852
-42.7673
-25.0055
-9.93975
0.12618
4.49224
5.76062
5.5403
4.90208
4.24554
3.70248
3.29623
3.00257
2.79224
2.64215
2.5344
2.45555
2.39606
2.34937
2.31105
2.27816
2.24876
2.22154
2.1957
2.17067
2.14612
2.12182
2.0976
2.07338
2.0491
2.02472
2.0002
1.97554
1.95072
1.92574
1.90059
1.87527
1.84977
1.82409
1.79823
1.77219
1.74597
1.71957
1.69298
1.6662
1.63924
1.61208
1.58474
1.5572
1.52947
1.50154
1.47342
1.4451
1.41658
1.38786
1.35894
1.32982
1.30049
1.27095
1.24121
1.21126
1.1811
1.15073
1.12014
1.08934
1.05832
1.02708
0.995627
0.96395
0.932052
0.899928
0.867579
0.835003
0.802198
0.769162
0.735895
0.702393
0.668656
0.634682
0.60047
0.566017
0.531322
0.496383
0.4612
0.425767
0.390088
0.354156
0.317971
0.281538
0.244836
0.207893
0.170677
0.133198
0.0954761
0.0574641
0.0191939
-22.4613
-27.217
-36.8529
-54.5997
-57.4707
-44.5625
-26.0416
-10.6599
-0.381207
4.12513
5.50611
5.36408
4.78205
4.16611
3.65109
3.26314
2.98133
2.77864
2.63347
2.52888
2.45205
2.39384
2.34796
2.31016
2.2776
2.2484
2.22132
2.19555
2.17058
2.14607
2.12178
2.09758
2.07337
2.04909
2.02471
2.0002
1.97554
1.95072
1.92574
1.90059
1.87527
1.84977
1.82409
1.79823
1.77219
1.74597
1.71957
1.69298
1.6662
1.63924
1.61208
1.58474
1.5572
1.52947
1.50154
1.47342
1.4451
1.41658
1.38786
1.35894
1.32982
1.30049
1.27095
1.24121
1.21126
1.1811
1.15073
1.12014
1.08934
1.05832
1.02708
0.995627
0.96395
0.932052
0.899928
0.867579
0.835003
0.802198
0.769162
0.735895
0.702393
0.668656
0.634682
0.60047
0.566017
0.531322
0.496383
0.4612
0.425767
0.390088
0.354156
0.317971
0.281538
0.244836
0.207893
0.170677
0.133198
0.0954761
0.0574641
0.0191939
-22.7752
-27.4989
-37.9083
-57.1399
-60.4019
-46.2644
-27.0103
-11.4289
-0.967756
3.69825
5.19993
5.15326
4.63925
4.0719
3.59024
3.22402
2.95623
2.76258
2.62321
2.52233
2.44788
2.39118
2.34627
2.30909
2.27692
2.24796
2.22104
2.19538
2.17047
2.146
2.12174
2.09755
2.07335
2.04908
2.0247
2.00019
1.97554
1.95072
1.92574
1.90059
1.87527
1.84977
1.82409
1.79823
1.77219
1.74597
1.71957
1.69298
1.6662
1.63924
1.61208
1.58474
1.5572
1.52947
1.50154
1.47342
1.4451
1.41658
1.38786
1.35894
1.32982
1.30049
1.27095
1.24121
1.21126
1.1811
1.15073
1.12014
1.08934
1.05832
1.02708
0.995627
0.96395
0.932052
0.899928
0.867579
0.835003
0.802198
0.769162
0.735895
0.702393
0.668656
0.634682
0.60047
0.566017
0.531322
0.496383
0.4612
0.425767
0.390088
0.354156
0.317971
0.281538
0.244836
0.207893
0.170677
0.133198
0.0954761
0.0574641
0.0191938
-23.1927
-27.7598
-39.2921
-59.9724
-63.1434
-47.9869
-27.866
-12.1089
-1.59933
3.21609
4.84383
4.90867
4.4749
3.96392
3.52059
3.17928
2.92754
2.74419
2.61144
2.51481
2.44307
2.38812
2.34432
2.30784
2.27612
2.24746
2.22072
2.19518
2.17035
2.14592
2.12168
2.09752
2.07333
2.04907
2.0247
2.00019
1.97553
1.95072
1.92574
1.90059
1.87527
1.84977
1.82409
1.79823
1.77219
1.74597
1.71957
1.69298
1.6662
1.63924
1.61208
1.58474
1.5572
1.52947
1.50154
1.47342
1.4451
1.41658
1.38786
1.35894
1.32982
1.30049
1.27095
1.24121
1.21126
1.1811
1.15073
1.12014
1.08934
1.05832
1.02708
0.995627
0.96395
0.932052
0.899928
0.867579
0.835003
0.802198
0.769162
0.735895
0.702393
0.668656
0.634682
0.60047
0.566017
0.531322
0.496383
0.4612
0.425767
0.390088
0.354156
0.317971
0.281538
0.244836
0.207893
0.170677
0.133198
0.0954762
0.057464
0.0191938
-23.2755
-27.983
-40.5208
-62.8364
-66.1072
-49.2346
-28.5052
-12.6999
-2.24999
2.69085
4.44198
4.63144
4.29001
3.84303
3.44271
3.12926
2.89543
2.72361
2.59824
2.50635
2.43766
2.38466
2.34211
2.30643
2.27522
2.24689
2.22036
2.19495
2.1702
2.14582
2.12163
2.09748
2.07331
2.04905
2.02469
2.00018
1.97553
1.95072
1.92574
1.90059
1.87527
1.84977
1.82409
1.79823
1.77219
1.74597
1.71957
1.69298
1.6662
1.63924
1.61208
1.58474
1.5572
1.52947
1.50154
1.47342
1.4451
1.41658
1.38786
1.35894
1.32982
1.30049
1.27095
1.24121
1.21126
1.1811
1.15073
1.12014
1.08934
1.05832
1.02708
0.995627
0.96395
0.932052
0.899928
0.867579
0.835003
0.802198
0.769162
0.735895
0.702393
0.668657
0.634682
0.60047
0.566017
0.531322
0.496383
0.4612
0.425767
0.390088
0.354156
0.317971
0.281538
0.244836
0.207893
0.170677
0.133198
0.0954762
0.057464
0.0191938
-23.3276
-28.2956
-41.6864
-65.195
-68.081
-49.949
-28.8818
-13.1902
-2.89242
2.12543
3.99838
4.32383
4.08608
3.71042
3.35741
3.07445
2.86021
2.70099
2.58372
2.49703
2.43169
2.38083
2.33966
2.30487
2.27423
2.24625
2.21995
2.19469
2.17004
2.14572
2.12156
2.09744
2.07328
2.04904
2.02468
2.00018
1.97553
1.95071
1.92574
1.90059
1.87527
1.84977
1.82409
1.79823
1.77219
1.74597
1.71957
1.69298
1.6662
1.63924
1.61208
1.58474
1.5572
1.52947
1.50154
1.47342
1.4451
1.41658
1.38786
1.35894
1.32982
1.30049
1.27095
1.24121
1.21126
1.1811
1.15073
1.12014
1.08934
1.05832
1.02708
0.995627
0.96395
0.932052
0.899928
0.867579
0.835003
0.802198
0.769162
0.735895
0.702393
0.668657
0.634682
0.60047
0.566017
0.531322
0.496383
0.4612
0.425766
0.390088
0.354156
0.317971
0.281538
0.244836
0.207894
0.170677
0.133198
0.0954763
0.057464
0.0191937
-23.2365
-28.243
-42.7151
-67.1725
-69.6557
-50.3775
-29.046
-13.5877
-3.51574
1.52704
3.51566
3.98822
3.86471
3.56719
3.26545
3.01534
2.82217
2.67651
2.56797
2.48691
2.42519
2.37667
2.33699
2.30316
2.27314
2.24556
2.21951
2.19441
2.16986
2.14561
2.12149
2.0974
2.07326
2.04902
2.02467
2.00017
1.97552
1.95071
1.92574
1.90059
1.87526
1.84977
1.82409
1.79823
1.77219
1.74597
1.71957
1.69298
1.6662
1.63924
1.61208
1.58474
1.5572
1.52947
1.50154
1.47342
1.4451
1.41658
1.38786
1.35894
1.32982
1.30049
1.27095
1.24121
1.21126
1.1811
1.15073
1.12014
1.08934
1.05832
1.02708
0.995627
0.96395
0.932052
0.899928