/*--------------------------------*- C++ -*----------------------------------*\
| =========                 |                                                 |
| \\      /  F ield         | OpenFOAM: The Open Source CFD Toolbox           |
|  \\    /   O peration     | Version:  2.4.0                                 |
|   \\  /    A nd           | Web:      www.OpenFOAM.org                      |
|    \\/     M anipulation  |                                                 |
\*---------------------------------------------------------------------------*/
FoamFile
{
    version     2.0;
    format      ascii;
    class       volVectorField;
    location    "0.54";
    object      U;
}
// * * * * * * * * * * * * * * * * * * * * * * * * * * * * * * * * * * * * * //

dimensions      [0 1 -1 0 0 0 0];

internalField   nonuniform List<vector> 
8800
(
(8.09176 0.388015 0)
(5.44928 0.2425 0)
(3.91109 0.0429983 0)
(3.15763 -0.0156521 0)
(2.80077 -0.0180625 0)
(2.59788 -0.0111008 0)
(2.48628 -0.00602689 0)
(2.37753 -0.00159586 0)
(2.32173 -0.00204488 0)
(2.24648 -0.000399436 0)
(2.2208 -0.000772329 0)
(2.16192 -2.70414e-05 0)
(2.14817 -0.0001654 0)
(2.09535 0.000595614 0)
(2.08245 -0.000115492 0)
(2.03046 0.00184957 0)
(2.00408 0.000708098 0)
(1.95563 -0.000243628 0)
(1.93912 0.00843735 0)
(1.70733 -0.0633279 0)
(10.0857 0.838512 0)
(9.65602 0.867717 0)
(8.8715 0.506928 0)
(8.08433 0.261201 0)
(7.49155 0.13894 0)
(7.00714 0.0817587 0)
(6.70248 0.0532965 0)
(6.39023 0.0426979 0)
(6.23656 0.0282647 0)
(6.01189 0.0250532 0)
(5.93998 0.0184226 0)
(5.76532 0.0180326 0)
(5.7322 0.0143917 0)
(5.58607 0.0172715 0)
(5.56154 0.0131044 0)
(5.42641 0.0208296 0)
(5.39018 0.0187517 0)
(5.26086 0.0136021 0)
(5.22651 0.0349167 0)
(5.01459 -0.0374161 0)
(10.0664 0.632406 0)
(10.6557 0.863145 0)
(10.8675 0.601296 0)
(10.6938 0.372602 0)
(10.4554 0.256601 0)
(10.085 0.195053 0)
(9.84745 0.153219 0)
(9.48101 0.126523 0)
(9.33285 0.0913174 0)
(9.01586 0.0781685 0)
(8.94521 0.0581569 0)
(8.68177 0.0534355 0)
(8.65542 0.0416302 0)
(8.43287 0.0446512 0)
(8.42398 0.0357103 0)
(8.21228 0.0458704 0)
(8.20796 0.0433455 0)
(7.99706 0.0400224 0)
(7.97891 0.0587236 0)
(7.75312 -0.021658 0)
(10.0103 0.456881 0)
(10.5627 0.706775 0)
(11.1659 0.545464 0)
(11.377 0.351517 0)
(11.5583 0.265832 0)
(11.4559 0.223591 0)
(11.5068 0.199473 0)
(11.2822 0.181103 0)
(11.3195 0.143494 0)
(11.0555 0.130412 0)
(11.1005 0.103618 0)
(10.8428 0.0962868 0)
(10.8887 0.0776666 0)
(10.6451 0.0800459 0)
(10.6993 0.0644969 0)
(10.4413 0.0812311 0)
(10.5066 0.0654846 0)
(10.2394 0.0847342 0)
(10.2668 0.0707094 0)
(9.97847 0.107883 0)
(10.0589 0.349099 0)
(10.3964 0.565608 0)
(11.0428 0.461983 0)
(11.2997 0.290602 0)
(11.665 0.211683 0)
(11.6614 0.189888 0)
(11.912 0.179087 0)
(11.8007 0.177046 0)
(12.0148 0.138573 0)
(11.8701 0.139533 0)
(12.0501 0.106201 0)
(11.9038 0.113834 0)
(12.0616 0.0851854 0)
(11.9 0.102552 0)
(12.0475 0.0756058 0)
(11.8538 0.108653 0)
(11.9888 0.0723512 0)
(11.786 0.120386 0)
(11.8593 0.0773475 0)
(11.5633 0.156646 0)
(10.0746 0.248358 0)
(10.3258 0.464192 0)
(10.8792 0.372662 0)
(11.1913 0.246776 0)
(11.532 0.168718 0)
(11.5823 0.137474 0)
(11.8253 0.144595 0)
(11.8166 0.148637 0)
(11.9993 0.114813 0)
(12.0073 0.124696 0)
(12.1481 0.0895959 0)
(12.1321 0.0949179 0)
(12.2882 0.0756571 0)
(12.2684 0.0829171 0)
(12.407 0.0703322 0)
(12.374 0.0988682 0)
(12.4876 0.0771101 0)
(12.4592 0.0971192 0)
(12.5189 0.101086 0)
(12.3313 0.0755099 0)
(9.98096 0.173689 0)
(10.3421 0.35319 0)
(10.7232 0.297511 0)
(11.1165 0.189632 0)
(11.3995 0.136128 0)
(11.5652 0.10884 0)
(11.6775 0.103295 0)
(11.7963 0.124761 0)
(11.8319 0.0762513 0)
(11.9682 0.0991329 0)
(12.0668 0.0720205 0)
(12.1055 0.0764782 0)
(12.2002 0.0541734 0)
(12.2848 0.0695555 0)
(12.3451 0.0536699 0)
(12.39 0.0746696 0)
(12.4714 0.0556424 0)
(12.5545 0.0748114 0)
(12.5477 0.068637 0)
(12.4808 0.0517197 0)
(10.0189 0.106934 0)
(10.2641 0.263837 0)
(10.6563 0.202912 0)
(11.0363 0.150235 0)
(11.3346 0.0873385 0)
(11.5005 0.0699022 0)
(11.5706 0.0732683 0)
(11.775 0.0965231 0)
(11.7609 0.0614657 0)
(11.8944 0.0611023 0)
(11.9789 0.0518332 0)
(12.0502 0.0601114 0)
(12.1135 0.0311806 0)
(12.1798 0.0443373 0)
(12.2993 0.0396246 0)
(12.347 0.0676097 0)
(12.4258 0.0191647 0)
(12.4858 0.0517487 0)
(12.491 0.0516339 0)
(12.4586 0.00182188 0)
(9.99545 0.0618182 0)
(10.2411 0.150572 0)
(10.6525 0.138563 0)
(10.9662 0.0611879 0)
(11.2627 0.0707416 0)
(11.468 0.0522157 0)
(11.5642 0.0278985 0)
(11.6885 0.0558232 0)
(11.7622 0.0391591 0)
(11.8019 0.0320839 0)
(11.9246 0.0375522 0)
(12.0468 0.0362895 0)
(12.0551 0.0320178 0)
(12.1871 0.018523 0)
(12.2199 0.0149073 0)
(12.3025 0.0274482 0)
(12.3894 0.0138159 0)
(12.3536 0.0202624 0)
(12.4937 0.0114938 0)
(12.4097 -0.00286674 0)
(10.0308 0.0151756 0)
(10.1633 0.0546957 0)
(10.632 0.0395126 0)
(10.9777 0.0416544 0)
(11.1717 0.00882339 0)
(11.5348 0.00926564 0)
(11.5028 0.0113065 0)
(11.699 0.0237099 0)
(11.6802 0.0238201 0)
(11.8291 0.0087659 0)
(11.8965 -0.0049193 0)
(12 0.0223855 0)
(12.0477 0.00534602 0)
(12.1803 -0.00347165 0)
(12.2042 0.0122219 0)
(12.2935 0.0144709 0)
(12.3418 -0.00633671 0)
(12.3688 -0.0125587 0)
(12.439 -0.0141782 0)
(12.2984 0.0215245 0)
(10.0196 -0.0156893 0)
(10.2398 -0.0496913 0)
(10.548 -0.0433805 0)
(11.0223 -0.0389597 0)
(11.2157 -0.012387 0)
(11.4254 -0.0147177 0)
(11.5591 -0.0196991 0)
(11.6589 -0.0111671 0)
(11.7072 -0.00607271 0)
(11.8537 -0.0305397 0)
(11.8784 -0.00588783 0)
(12.0162 -0.00156802 0)
(12.0319 -0.00882926 0)
(12.1485 -0.0206486 0)
(12.2078 -0.0177018 0)
(12.2818 -0.0155766 0)
(12.3322 -0.0228163 0)
(12.4264 -0.0294932 0)
(12.3887 -0.0346037 0)
(12.3062 -0.000723648 0)
(9.99168 -0.0765593 0)
(10.2477 -0.128248 0)
(10.6378 -0.136877 0)
(10.9509 -0.0876848 0)
(11.2798 -0.0397281 0)
(11.466 -0.058654 0)
(11.5742 -0.0532268 0)
(11.6632 -0.0380538 0)
(11.7798 -0.0356079 0)
(11.8317 -0.0459768 0)
(11.9183 -0.0416488 0)
(11.9949 -0.0202565 0)
(12.0755 -0.0190305 0)
(12.1786 -0.0530184 0)
(12.2453 -0.0223314 0)
(12.3045 -0.0289725 0)
(12.373 -0.0542805 0)
(12.4057 -0.0611078 0)
(12.4278 -0.0416114 0)
(12.3792 -0.0449949 0)
(9.99794 -0.110979 0)
(10.2714 -0.254905 0)
(10.6686 -0.198088 0)
(11.038 -0.158603 0)
(11.316 -0.0898759 0)
(11.5153 -0.0765259 0)
(11.6045 -0.0754175 0)
(11.7096 -0.0836673 0)
(11.8003 -0.0601185 0)
(11.8809 -0.0729559 0)
(11.9692 -0.0493567 0)
(12.0205 -0.0409496 0)
(12.1549 -0.0494348 0)
(12.2235 -0.0641315 0)
(12.2658 -0.0501365 0)
(12.342 -0.0586031 0)
(12.4291 -0.0624995 0)
(12.4436 -0.0762072 0)
(12.4767 -0.0846706 0)
(12.4302 -0.0454823 0)
(10.0324 -0.183433 0)
(10.2836 -0.338938 0)
(10.7515 -0.297331 0)
(11.1081 -0.205451 0)
(11.4136 -0.113808 0)
(11.5403 -0.12226 0)
(11.6966 -0.10978 0)
(11.7693 -0.110483 0)
(11.8569 -0.0851744 0)
(11.956 -0.0990344 0)
(12.0429 -0.0720019 0)
(12.1054 -0.0738092 0)
(12.2214 -0.0621847 0)
(12.2885 -0.0842923 0)
(12.333 -0.0540653 0)
(12.389 -0.0785335 0)
(12.4798 -0.0893613 0)
(12.5165 -0.106715 0)
(12.5456 -0.100505 0)
(12.4708 -0.0845707 0)
(10.0649 -0.250947 0)
(10.3065 -0.45256 0)
(10.9052 -0.37624 0)
(11.1891 -0.25469 0)
(11.533 -0.163341 0)
(11.5992 -0.150502 0)
(11.8124 -0.142205 0)
(11.8139 -0.140081 0)
(11.9835 -0.116041 0)
(12.0086 -0.127323 0)
(12.1563 -0.0881637 0)
(12.1441 -0.092158 0)
(12.2883 -0.0851826 0)
(12.2781 -0.101025 0)
(12.3746 -0.0682542 0)
(12.3737 -0.108241 0)
(12.4637 -0.0989532 0)
(12.4394 -0.130053 0)
(12.4603 -0.120082 0)
(12.351 -0.126828 0)
(10.06 -0.350982 0)
(10.3852 -0.558452 0)
(11.0693 -0.468979 0)
(11.2974 -0.296669 0)
(11.6627 -0.20072 0)
(11.6561 -0.195644 0)
(11.8949 -0.182225 0)
(11.8081 -0.164235 0)
(12.0012 -0.145775 0)
(11.8874 -0.143694 0)
(12.0475 -0.109349 0)
(11.9083 -0.107706 0)
(12.0534 -0.0966474 0)
(11.9 -0.107051 0)
(12.0165 -0.0794573 0)
(11.86 -0.109934 0)
(11.9391 -0.101993 0)
(11.7676 -0.137726 0)
(11.7757 -0.120159 0)
(11.5514 -0.155399 0)
(10.0099 -0.45717 0)
(10.5601 -0.70311 0)
(11.1862 -0.549845 0)
(11.3558 -0.352038 0)
(11.5686 -0.259083 0)
(11.4456 -0.230681 0)
(11.5069 -0.201318 0)
(11.2829 -0.173626 0)
(11.3215 -0.148131 0)
(11.0528 -0.134396 0)
(11.1026 -0.102034 0)
(10.8327 -0.0932602 0)
(10.8932 -0.0841142 0)
(10.6172 -0.0888613 0)
(10.6965 -0.0644759 0)
(10.4122 -0.0904942 0)
(10.4758 -0.0785437 0)
(10.1796 -0.115559 0)
(10.1905 -0.091882 0)
(9.85267 -0.155709 0)
(10.064 -0.632755 0)
(10.6572 -0.861701 0)
(10.8747 -0.6031 0)
(10.6793 -0.373673 0)
(10.4692 -0.253218 0)
(10.0754 -0.197869 0)
(9.84787 -0.155102 0)
(9.48201 -0.120873 0)
(9.3357 -0.0944237 0)
(9.00566 -0.0809155 0)
(8.95064 -0.0581865 0)
(8.66636 -0.0512222 0)
(8.6654 -0.0463884 0)
(8.39375 -0.0495739 0)
(8.43512 -0.0371245 0)
(8.15697 -0.0513821 0)
(8.19874 -0.051137 0)
(7.89729 -0.0698018 0)
(7.90191 -0.0675264 0)
(7.55903 -0.084872 0)
(10.0844 -0.838593 0)
(9.65725 -0.867158 0)
(8.87403 -0.507432 0)
(8.07654 -0.261904 0)
(7.50048 -0.13697 0)
(7.00068 -0.08303 0)
(6.70243 -0.0551191 0)
(6.39039 -0.039687 0)
(6.23891 -0.0292519 0)
(6.00332 -0.027198 0)
(5.94249 -0.0181747 0)
(5.75273 -0.0166845 0)
(5.73918 -0.0164307 0)
(5.55326 -0.0206419 0)
(5.56715 -0.0140479 0)
(5.37371 -0.0231508 0)
(5.38337 -0.0238842 0)
(5.15796 -0.0325862 0)
(5.14796 -0.0360757 0)
(4.86327 -0.0160535 0)
(8.09139 -0.388084 0)
(5.44958 -0.242452 0)
(3.912 -0.0429661 0)
(3.15502 0.0152573 0)
(2.80302 0.0185966 0)
(2.59689 0.0109272 0)
(2.48527 0.00531373 0)
(2.37614 0.00259888 0)
(2.32395 0.00193948 0)
(2.24327 -0.000319802 0)
(2.2184 0.000909392 0)
(2.15668 0.000413174 0)
(2.14954 -2.10945e-05 0)
(2.08024 -0.0016542 0)
(2.07643 0.000293211 0)
(2.00428 -0.00226674 0)
(1.99144 -0.00168051 0)
(1.89742 -0.00374024 0)
(1.86121 -0.00360938 0)
(1.71751 0.0110955 0)
(2.19151 -0.114145 0)
(2.26331 -0.00574758 0)
(2.41193 0.0167378 0)
(2.55718 -0.00198659 0)
(2.73096 -0.0299271 0)
(2.85134 -0.0502849 0)
(2.96826 -0.0558754 0)
(3.00697 -0.0522783 0)
(3.0602 -0.0467751 0)
(3.0605 -0.0423574 0)
(3.10875 -0.0376812 0)
(3.10732 -0.0272693 0)
(3.1677 -0.0172391 0)
(3.17378 -0.0043702 0)
(3.23994 0.00355923 0)
(3.2562 0.00652605 0)
(3.32971 0.0129069 0)
(3.34299 0.0171428 0)
(3.41705 0.0220786 0)
(3.42827 0.0277365 0)
(3.5082 0.0287388 0)
(3.5184 0.0359755 0)
(3.59706 0.0347275 0)
(3.60467 0.0374609 0)
(3.67997 0.0297037 0)
(3.68763 0.017582 0)
(3.758 -0.00418253 0)
(3.75775 -0.0303243 0)
(3.81402 -0.0579102 0)
(3.79517 -0.0789117 0)
(3.83282 -0.100126 0)
(3.79715 -0.107829 0)
(3.82124 -0.118644 0)
(3.77638 -0.109877 0)
(3.79231 -0.107326 0)
(3.74463 -0.0879595 0)
(3.76371 -0.0672855 0)
(3.70816 -0.0353043 0)
(3.74618 -0.00154545 0)
(3.67048 0.0497172 0)
(3.74269 0.0870865 0)
(3.64918 0.154949 0)
(3.73516 0.192499 0)
(3.67632 0.254801 0)
(3.724 0.318138 0)
(3.72657 0.312889 0)
(3.83919 0.325897 0)
(3.79173 0.349401 0)
(3.85807 0.334283 0)
(3.87907 0.341664 0)
(3.98454 0.305654 0)
(4.0452 0.309862 0)
(4.14028 0.298618 0)
(4.22268 0.293062 0)
(4.34663 0.298134 0)
(4.40459 0.259876 0)
(4.5544 0.252295 0)
(4.62861 0.228923 0)
(4.74304 0.175742 0)
(4.81533 0.178249 0)
(4.94127 0.123661 0)
(4.97942 0.0797683 0)
(5.1229 0.0844546 0)
(5.17576 0.0417426 0)
(5.29705 0.00810976 0)
(5.36488 0.0246664 0)
(5.50801 -0.0236369 0)
(5.54147 -0.0443484 0)
(5.72322 -0.0312479 0)
(5.82658 -0.0596747 0)
(5.92992 -0.109138 0)
(6.00343 -0.133306 0)
(6.05666 -0.159946 0)
(6.16475 -0.216774 0)
(6.16939 -0.238962 0)
(6.22139 -0.245627 0)
(6.17427 -0.2604 0)
(6.24282 -0.255676 0)
(6.24996 -0.215891 0)
(6.32476 -0.180674 0)
(6.38996 -0.0734396 0)
(6.46351 -0.018699 0)
(6.71843 0.0648517 0)
(6.85568 0.138016 0)
(7.00904 0.133369 0)
(7.20904 0.138001 0)
(7.36813 0.159809 0)
(7.7028 0.165704 0)
(7.8607 0.180326 0)
(8.07759 -0.00339957 0)
(8.21543 -0.187598 0)
(8.32771 -0.394442 0)
(8.50431 -0.50057 0)
(8.65032 -0.598008 0)
(8.92933 -0.715254 0)
(9.00041 -0.915736 0)
(9.35874 -1.17532 0)
(9.25301 -1.36579 0)
(9.48252 -1.42345 0)
(9.28764 -1.35164 0)
(9.42186 -1.17725 0)
(9.37317 -1.05944 0)
(9.5535 -0.944093 0)
(9.54141 -0.851186 0)
(9.78051 -0.698992 0)
(9.69841 -0.514075 0)
(9.84186 -0.29017 0)
(9.62677 -0.206985 0)
(9.67066 -0.0882222 0)
(9.55444 -0.0789853 0)
(9.5088 -0.0345566 0)
(9.53827 0.0287542 0)
(9.47946 0.0232962 0)
(9.54875 0.0636879 0)
(9.44582 -0.0291489 0)
(9.51246 -0.107141 0)
(9.45838 -0.316724 0)
(9.50613 -0.49476 0)
(9.4867 -0.683557 0)
(9.61866 -0.996125 0)
(9.55465 -1.15731 0)
(9.75879 -1.48644 0)
(9.68551 -1.70596 0)
(9.90726 -1.91904 0)
(9.85293 -2.17132 0)
(10.1466 -2.3991 0)
(10.224 -2.8396 0)
(10.4091 -3.14104 0)
(10.3686 -3.47692 0)
(10.3691 -3.65749 0)
(10.3699 -3.82157 0)
(10.4569 -4.09067 0)
(10.6585 -4.24883 0)
(10.8075 -4.47089 0)
(10.8198 -4.38459 0)
(11.004 -4.40829 0)
(11.063 -4.30978 0)
(11.4363 -4.11364 0)
(11.7913 -4.00751 0)
(12.1752 -3.53582 0)
(12.7477 -3.17212 0)
(13.0042 -2.50075 0)
(13.6054 -1.82169 0)
(13.7629 -1.01549 0)
(14.3186 -0.225436 0)
(14.258 0.567674 0)
(14.804 1.39992 0)
(14.516 2.18607 0)
(14.9913 2.84859 0)
(14.6058 3.48256 0)
(14.98 4.00111 0)
(14.5834 4.46856 0)
(14.7708 4.8052 0)
(14.3713 5.0232 0)
(14.2211 5.04556 0)
(13.8362 4.98477 0)
(13.2877 4.68307 0)
(12.9701 4.41665 0)
(12.2681 4.12526 0)
(12.1078 3.64504 0)
(11.3442 3.34126 0)
(11.2694 2.85689 0)
(10.6716 2.34556 0)
(10.5459 2.03164 0)
(10.2193 1.48239 0)
(10.191 1.23018 0)
(9.96685 0.655852 0)
(10.1862 0.305754 0)
(9.99718 -0.307124 0)
(10.3008 -0.562948 0)
(10.3805 -1.33929 0)
(10.7232 -1.51945 0)
(10.8248 -2.23496 0)
(11.3289 -2.43646 0)
(11.4331 -3.03279 0)
(11.9501 -3.05784 0)
(11.8198 -3.45424 0)
(12.3687 -3.28597 0)
(12.0233 -3.45968 0)
(12.3738 -3.03436 0)
(11.9875 -3.12622 0)
(12.2984 -2.39475 0)
(11.7821 -2.64933 0)
(12.1213 -1.62192 0)
(11.5754 -1.75338 0)
(11.834 -0.868119 0)
(11.3409 -0.831143 0)
(11.5857 0.0694584 0)
(10.9381 0.246607 0)
(10.9886 1.02401 0)
(10.5897 1.60217 0)
(10.2365 1.65694 0)
(9.9366 2.8123 0)
(9.54509 3.1372 0)
(9.26686 4.10249 0)
(8.99082 4.5922 0)
(8.22373 5.84701 0)
(7.80123 7.85679 0)
(8.15721 9.39697 0)
(4.6328 13.0965 0)
(5.16281 -0.0626296 0)
(5.16566 -0.0271163 0)
(5.20856 -0.0266575 0)
(5.25599 -0.0551303 0)
(5.36438 -0.0861643 0)
(5.43905 -0.107441 0)
(5.52204 -0.111224 0)
(5.54472 -0.0986773 0)
(5.57977 -0.0781056 0)
(5.57257 -0.0582222 0)
(5.597 -0.0523357 0)
(5.58635 -0.044094 0)
(5.62008 -0.0410613 0)
(5.62159 -0.0351716 0)
(5.66332 -0.0276962 0)
(5.67067 -0.0247078 0)
(5.71244 -0.0173379 0)
(5.72376 -0.0143555 0)
(5.76231 -0.0117906 0)
(5.77521 -0.00468322 0)
(5.81848 -0.00580568 0)
(5.82912 0.00474242 0)
(5.8775 0.00223532 0)
(5.88098 0.00581591 0)
(5.92985 -4.77768e-05 0)
(5.92696 -0.0104541 0)
(5.9712 -0.0244011 0)
(5.96736 -0.0470619 0)
(5.99894 -0.0632117 0)
(5.98555 -0.080959 0)
(6.00478 -0.0939485 0)
(5.97418 -0.0985828 0)
(5.98753 -0.105283 0)
(5.93986 -0.0961419 0)
(5.94947 -0.087526 0)
(5.89402 -0.0688968 0)
(5.90088 -0.0438327 0)
(5.84315 -0.0152317 0)
(5.84942 0.0217788 0)
(5.78259 0.0657091 0)
(5.8074 0.101767 0)
(5.73746 0.154952 0)
(5.76421 0.19244 0)
(5.73573 0.239062 0)
(5.74558 0.276587 0)
(5.74259 0.298615 0)
(5.79433 0.303404 0)
(5.7908 0.309744 0)
(5.82095 0.308725 0)
(5.84091 0.309461 0)
(5.8847 0.288309 0)
(5.93264 0.272772 0)
(6.00948 0.26888 0)
(6.0134 0.253012 0)
(6.14154 0.234611 0)
(6.12683 0.233369 0)
(6.24461 0.196521 0)
(6.2876 0.170974 0)
(6.37423 0.151829 0)
(6.3974 0.101793 0)
(6.53101 0.082366 0)
(6.52955 0.0603186 0)
(6.64451 -0.00190916 0)
(6.68499 0.00421633 0)
(6.77826 -0.0342483 0)
(6.81301 -0.0634905 0)
(6.95122 -0.0705269 0)
(6.9484 -0.0894987 0)
(7.08627 -0.130835 0)
(7.15671 -0.134276 0)
(7.21008 -0.163168 0)
(7.32391 -0.211986 0)
(7.34378 -0.227488 0)
(7.43424 -0.252732 0)
(7.42839 -0.281462 0)
(7.50964 -0.287181 0)
(7.5036 -0.297689 0)
(7.5641 -0.318162 0)
(7.63711 -0.239894 0)
(7.67587 -0.209144 0)
(7.78357 -0.185768 0)
(7.81642 -0.131695 0)
(8.00393 -0.118873 0)
(8.2034 -0.0171778 0)
(8.33077 0.0278521 0)
(8.55295 -0.058066 0)
(8.6346 -0.0507379 0)
(8.95318 -0.107859 0)
(9.14282 -0.0749134 0)
(9.41125 -0.162452 0)
(9.61051 -0.307675 0)
(9.84386 -0.49986 0)
(9.99887 -0.583174 0)
(10.1628 -0.693628 0)
(10.4526 -0.869572 0)
(10.5125 -1.08594 0)
(10.7638 -1.37077 0)
(10.647 -1.4959 0)
(10.697 -1.47357 0)
(10.5943 -1.41568 0)
(10.6372 -1.23817 0)
(10.7367 -1.14672 0)
(10.8048 -0.95503 0)
(10.7531 -0.814134 0)
(10.752 -0.662588 0)
(10.5952 -0.537979 0)
(10.5797 -0.358394 0)
(10.6232 -0.209549 0)
(10.5491 -0.0267695 0)
(10.6988 0.116232 0)
(10.4503 0.171291 0)
(10.5092 0.179028 0)
(10.1947 0.13406 0)
(10.3173 -0.0165314 0)
(10.0819 -0.0889284 0)
(10.2867 -0.264317 0)
(10.1081 -0.354558 0)
(10.3986 -0.539516 0)
(10.2471 -0.673768 0)
(10.4844 -0.871842 0)
(10.4099 -1.08403 0)
(10.6241 -1.35795 0)
(10.4957 -1.62901 0)
(10.6781 -1.86923 0)
(10.5969 -2.2193 0)
(10.8397 -2.49252 0)
(10.6963 -2.87741 0)
(10.9027 -3.1726 0)
(10.6866 -3.43152 0)
(10.7495 -3.61322 0)
(10.7208 -3.92767 0)
(10.8471 -4.1457 0)
(10.8992 -4.42049 0)
(10.7131 -4.36309 0)
(10.6736 -4.45927 0)
(10.7237 -4.46771 0)
(10.8537 -4.51972 0)
(11.571 -4.58323 0)
(11.5144 -4.33931 0)
(12.6018 -4.17101 0)
(12.4284 -3.57899 0)
(13.4559 -3.09455 0)
(13.3344 -2.24036 0)
(14.2056 -1.44825 0)
(13.9612 -0.463095 0)
(14.7705 0.333069 0)
(14.4869 1.29449 0)
(15.1609 2.04272 0)
(14.7163 2.902 0)
(15.2727 3.46199 0)
(14.7244 4.12253 0)
(15.2192 4.47363 0)
(14.5657 4.90772 0)
(15.0995 5.10326 0)
(14.3162 5.29988 0)
(14.7571 5.22849 0)
(13.8164 5.17601 0)
(13.998 4.74837 0)
(12.9574 4.594 0)
(13.072 4.01906 0)
(12.1174 3.6713 0)
(12.0954 3.15819 0)
(11.4766 2.62811 0)
(11.3308 2.20158 0)
(11.0655 1.65756 0)
(10.9399 1.26918 0)
(10.8603 0.742597 0)
(10.8967 0.218793 0)
(10.9705 -0.273198 0)
(11.0059 -0.847614 0)
(11.4169 -1.31746 0)
(11.3272 -1.98632 0)
(11.9345 -2.15432 0)
(11.8137 -2.95516 0)
(12.4265 -2.92761 0)
(12.2262 -3.45903 0)
(12.5482 -3.35966 0)
(12.4142 -3.52166 0)
(12.4256 -3.22452 0)
(12.2213 -3.23784 0)
(12.2938 -2.73134 0)
(12.0333 -2.69122 0)
(12.0095 -2.0989 0)
(11.8875 -1.94602 0)
(11.7553 -1.15889 0)
(11.6125 -1.20955 0)
(11.7119 -0.215986 0)
(11.2851 -0.282489 0)
(11.4144 0.99953 0)
(10.9208 0.782173 0)
(10.8967 2.04415 0)
(10.6088 2.08793 0)
(10.1428 2.67831 0)
(10.2548 3.67104 0)
(9.22783 4.27186 0)
(9.6216 5.84953 0)
(9.21734 5.97368 0)
(7.96703 7.05298 0)
(11.6234 8.05752 0)
(8.31844 14.4772 0)
(7.80539 -0.0913147 0)
(7.78664 -0.0971924 0)
(7.82162 -0.10926 0)
(7.85525 -0.119074 0)
(7.95057 -0.115016 0)
(8.01339 -0.113868 0)
(8.07178 -0.101345 0)
(8.08384 -0.0882076 0)
(8.09099 -0.0773571 0)
(8.07612 -0.0571088 0)
(8.08408 -0.0547061 0)
(8.07036 -0.0443488 0)
(8.09262 -0.0445889 0)
(8.08135 -0.0442196 0)
(8.10784 -0.0336674 0)
(8.10791 -0.0395614 0)
(8.13004 -0.0247535 0)
(8.14123 -0.0279175 0)
(8.15713 -0.0247173 0)
(8.16755 -0.0171824 0)
(8.19147 -0.0236882 0)
(8.19088 -0.00675116 0)
(8.23223 -0.0147182 0)
(8.22021 -0.00711899 0)
(8.26734 -0.0122104 0)
(8.25077 -0.0226712 0)
(8.28172 -0.0302937 0)
(8.27104 -0.0534874 0)
(8.28097 -0.0616661 0)
(8.27059 -0.0765414 0)
(8.2717 -0.0853941 0)
(8.24529 -0.0817191 0)
(8.25074 -0.0928654 0)
(8.20158 -0.0702417 0)
(8.20791 -0.0712692 0)
(8.15283 -0.0461815 0)
(8.14801 -0.0211023 0)
(8.09879 0.00296594 0)
(8.0847 0.0482091 0)
(8.03193 0.0826762 0)
(8.03594 0.124432 0)
(7.97636 0.172121 0)
(7.98622 0.205655 0)
(7.95204 0.240479 0)
(7.94756 0.271962 0)
(7.94501 0.28485 0)
(7.94183 0.293585 0)
(7.96251 0.291647 0)
(7.97081 0.284156 0)
(7.97563 0.283042 0)
(8.0361 0.267254 0)
(8.0239 0.251319 0)
(8.13285 0.2364 0)
(8.11074 0.213417 0)
(8.20279 0.198526 0)
(8.22767 0.180161 0)
(8.26675 0.144832 0)
(8.33145 0.134795 0)
(8.38107 0.0752088 0)
(8.41478 0.0714893 0)
(8.50273 0.0193923 0)
(8.50993 -0.0125658 0)
(8.61439 -0.0181628 0)
(8.6211 -0.0745596 0)
(8.72539 -0.0860987 0)
(8.74048 -0.0881519 0)
(8.82903 -0.143459 0)
(8.88268 -0.138755 0)
(8.93573 -0.159949 0)
(9.02821 -0.193425 0)
(9.06451 -0.214482 0)
(9.14434 -0.248813 0)
(9.16847 -0.263954 0)
(9.25924 -0.29758 0)
(9.2304 -0.314154 0)
(9.32255 -0.336763 0)
(9.37847 -0.30634 0)
(9.362 -0.32219 0)
(9.44633 -0.343462 0)
(9.48201 -0.269165 0)
(9.61657 -0.237589 0)
(9.6968 -0.224454 0)
(9.76538 -0.207897 0)
(9.90779 -0.18539 0)
(10.0871 -0.141691 0)
(10.2615 -0.177047 0)
(10.389 -0.200656 0)
(10.6333 -0.256261 0)
(10.7524 -0.251875 0)
(11.0488 -0.341102 0)
(11.2134 -0.46643 0)
(11.4248 -0.643197 0)
(11.5319 -0.762244 0)
(11.6554 -0.863771 0)
(11.8617 -1.07355 0)
(11.9349 -1.24575 0)
(11.9868 -1.37756 0)
(11.9202 -1.41003 0)
(11.8307 -1.41035 0)
(11.8622 -1.36226 0)
(11.6814 -1.21893 0)
(11.7147 -1.12188 0)
(11.445 -0.969053 0)
(11.4294 -0.847829 0)
(11.3048 -0.647813 0)
(11.3253 -0.433813 0)
(11.1956 -0.307256 0)
(11.2612 -0.155892 0)
(11.1132 -0.0924267 0)
(11.2306 0.0139571 0)
(11.1307 0.100474 0)
(11.2371 0.152337 0)
(11.2176 0.142166 0)
(11.2594 0.108142 0)
(11.1737 -0.0172682 0)
(11.1684 -0.136553 0)
(11.0502 -0.31958 0)
(11.0362 -0.536229 0)
(11.0124 -0.841234 0)
(10.9538 -0.94742 0)
(10.9896 -1.36839 0)
(11.0274 -1.50574 0)
(10.9442 -1.91296 0)
(11.0461 -1.99576 0)
(11.0497 -2.46424 0)
(11.157 -2.57167 0)
(11.038 -2.93338 0)
(11.2424 -3.16135 0)
(10.9666 -3.36889 0)
(11.0903 -3.65929 0)
(10.9578 -3.91959 0)
(10.9691 -4.23441 0)
(10.6363 -4.1639 0)
(10.1701 -4.3152 0)
(10.4802 -4.40396 0)
(10.215 -4.73916 0)
(11.2902 -4.96127 0)
(10.8994 -4.86598 0)
(11.9563 -4.87258 0)
(11.8185 -4.35034 0)
(12.5208 -4.01508 0)
(12.8549 -3.31681 0)
(13.1863 -2.63733 0)
(13.7949 -1.74002 0)
(13.7335 -0.821978 0)
(14.4077 0.139719 0)
(14.2146 1.01271 0)
(14.9811 1.86988 0)
(14.5485 2.72505 0)
(15.3472 3.48161 0)
(14.7348 4.11948 0)
(15.3528 4.61615 0)
(14.694 4.95347 0)
(15.0774 5.20668 0)
(14.5925 5.36966 0)
(14.7691 5.39372 0)
(14.4312 5.42524 0)
(14.2909 5.15404 0)
(13.9464 4.9112 0)
(13.4649 4.54414 0)
(13.2996 3.99712 0)
(12.5716 3.55208 0)
(12.5847 2.93374 0)
(11.9283 2.41553 0)
(11.9916 1.82383 0)
(11.6949 1.30732 0)
(11.6524 0.74399 0)
(11.7926 0.234531 0)
(11.5978 -0.482795 0)
(12.0878 -0.815197 0)
(11.8645 -1.71548 0)
(12.3721 -1.79892 0)
(12.3016 -2.71661 0)
(12.6268 -2.76871 0)
(12.5672 -3.25872 0)
(12.7061 -3.40484 0)
(12.5716 -3.35002 0)
(12.4503 -3.39342 0)
(12.4291 -3.09433 0)
(12.091 -3.05528 0)
(12.3784 -2.64038 0)
(11.8066 -2.50669 0)
(12.2171 -2.07576 0)
(11.6702 -1.75751 0)
(11.9989 -1.23399 0)
(11.5808 -1.02659 0)
(11.8088 -0.320887 0)
(11.5593 0.184066 0)
(11.4126 0.572946 0)
(11.4802 1.60768 0)
(10.9477 1.6324 0)
(11.1514 2.85936 0)
(10.0963 2.71004 0)
(10.5765 4.10208 0)
(10.0812 4.21942 0)
(9.35821 5.2145 0)
(11.7795 6.52945 0)
(8.03294 9.14686 0)
(12.8689 5.58108 0)
(10.4847 13.7138 0)
(10.046 -0.115898 0)
(10.0134 -0.237461 0)
(10.0751 -0.278546 0)
(10.1065 -0.264546 0)
(10.1819 -0.207999 0)
(10.2275 -0.162042 0)
(10.2552 -0.120751 0)
(10.2652 -0.0891243 0)
(10.2592 -0.0744921 0)
(10.2351 -0.0554122 0)
(10.2354 -0.0620803 0)
(10.1983 -0.0557173 0)
(10.2182 -0.0595545 0)
(10.1976 -0.0597588 0)
(10.2173 -0.045823 0)
(10.2298 -0.0509222 0)
(10.2291 -0.0316454 0)
(10.2589 -0.033143 0)
(10.2448 -0.0313869 0)
(10.2625 -0.021768 0)
(10.266 -0.0370893 0)
(10.2552 -0.0168315 0)
(10.2914 -0.0331717 0)
(10.2663 -0.0220979 0)
(10.3178 -0.0265534 0)
(10.2953 -0.0324116 0)
(10.3251 -0.0280262 0)
(10.3123 -0.0546091 0)
(10.3094 -0.0468762 0)
(10.2937 -0.0707812 0)
(10.2785 -0.0711706 0)
(10.2472 -0.0706616 0)
(10.2506 -0.0857016 0)
(10.1972 -0.0492389 0)
(10.2227 -0.0622605 0)
(10.157 -0.0176229 0)
(10.1863 0.00387004 0)
(10.1189 0.0282036 0)
(10.1321 0.0872021 0)
(10.0699 0.0953973 0)
(10.0727 0.157904 0)
(10.0297 0.178273 0)
(10.0124 0.212937 0)
(10.0174 0.254869 0)
(9.97806 0.252608 0)
(10.0206 0.300242 0)
(9.98799 0.282133 0)
(10.0214 0.293379 0)
(10.0407 0.292841 0)
(10.019 0.256484 0)
(10.1002 0.277114 0)
(10.0629 0.225771 0)
(10.1313 0.205573 0)
(10.1802 0.201962 0)
(10.1468 0.13668 0)
(10.2742 0.149381 0)
(10.2334 0.106864 0)
(10.2945 0.0717074 0)
(10.3622 0.0612323 0)
(10.3484 0.00887426 0)
(10.438 0.000735395 0)
(10.4462 -0.050751 0)
(10.5047 -0.0686253 0)
(10.5424 -0.0794077 0)
(10.5836 -0.143389 0)
(10.6235 -0.132879 0)
(10.6889 -0.15704 0)
(10.7183 -0.201982 0)
(10.7587 -0.209842 0)
(10.8477 -0.224373 0)
(10.8623 -0.260479 0)
(10.9234 -0.298771 0)
(10.9366 -0.296792 0)
(11.021 -0.332504 0)
(11.0319 -0.34082 0)
(11.0464 -0.363622 0)
(11.1054 -0.369661 0)
(11.1334 -0.346426 0)
(11.2001 -0.36404 0)
(11.2276 -0.341672 0)
(11.3318 -0.295171 0)
(11.3997 -0.323707 0)
(11.5071 -0.300155 0)
(11.591 -0.266325 0)
(11.7593 -0.276506 0)
(11.8761 -0.289519 0)
(12.0405 -0.33747 0)
(12.1802 -0.370462 0)
(12.3082 -0.390275 0)
(12.5332 -0.508716 0)
(12.6389 -0.633269 0)
(12.7458 -0.730786 0)
(12.8355 -0.856564 0)
(12.9017 -0.964745 0)
(13.0089 -1.09909 0)
(12.9579 -1.16493 0)
(12.8941 -1.26964 0)
(12.7661 -1.31368 0)
(12.6239 -1.33824 0)
(12.427 -1.27669 0)
(12.159 -1.15923 0)
(11.9931 -1.03388 0)
(11.8517 -0.851264 0)
(11.7065 -0.676494 0)
(11.6681 -0.56028 0)
(11.5082 -0.369303 0)
(11.5667 -0.297267 0)
(11.4089 -0.129444 0)
(11.5516 -0.0505934 0)
(11.3601 0.0930691 0)
(11.6077 0.13083 0)
(11.4018 0.214793 0)
(11.6907 0.134835 0)
(11.4828 0.109487 0)
(11.719 -0.0174411 0)
(11.5815 -0.148558 0)
(11.6925 -0.288941 0)
(11.6341 -0.478976 0)
(11.742 -0.703112 0)
(11.6438 -0.887169 0)
(11.7295 -1.18595 0)
(11.7333 -1.45981 0)
(11.6308 -1.67345 0)
(11.7746 -1.99779 0)
(11.6385 -2.24937 0)
(11.7386 -2.48023 0)
(11.4496 -2.78101 0)
(11.7704 -3.05511 0)
(10.9799 -3.24301 0)
(11.4105 -3.51215 0)
(10.5593 -3.9126 0)
(10.8833 -3.79159 0)
(9.48678 -3.99606 0)
(10.3203 -4.08657 0)
(9.79598 -4.74639 0)
(10.8082 -5.01491 0)
(10.4813 -5.11669 0)
(10.7926 -5.08347 0)
(11.1207 -4.85973 0)
(11.0902 -4.50564 0)
(12.0039 -4.09314 0)
(11.9079 -3.41785 0)
(12.8039 -2.75265 0)
(12.8801 -1.76678 0)
(13.4055 -0.981895 0)
(13.4823 0.0445646 0)
(13.8358 0.76556 0)
(14.0245 1.71773 0)
(14.3311 2.43638 0)
(14.4451 3.34089 0)
(14.8589 4.01456 0)
(14.7026 4.63997 0)
(15.0707 5.04657 0)
(14.6615 5.32452 0)
(14.9397 5.45333 0)
(14.4377 5.51663 0)
(14.7917 5.4908 0)
(14.1161 5.35347 0)
(14.5312 5.11774 0)
(13.7669 4.83378 0)
(13.9378 4.37203 0)
(13.4108 3.87297 0)
(13.0917 3.21351 0)
(13.0767 2.72347 0)
(12.3752 1.91437 0)
(12.9249 1.57761 0)
(12.0097 0.58934 0)
(12.9435 0.428185 0)
(11.9322 -0.714485 0)
(13.1509 -0.816092 0)
(12.0377 -1.83754 0)
(13.2153 -1.89234 0)
(12.3664 -2.93306 0)
(13.1457 -2.6305 0)
(12.3858 -3.51904 0)
(13.0226 -3.02745 0)
(12.0574 -3.49576 0)
(12.766 -2.99618 0)
(11.8049 -3.31119 0)
(12.6418 -2.67926 0)
(11.7504 -3.01255 0)
(12.4338 -2.06958 0)
(11.7667 -2.4534 0)
(12.2718 -1.36195 0)
(11.622 -1.61929 0)
(12.3437 -0.610404 0)
(11.3601 -0.686794 0)
(12.4552 0.565888 0)
(11.1879 0.572412 0)
(12.3206 1.46943 0)
(11.1958 2.03261 0)
(11.6774 2.87683 0)
(11.1187 3.46857 0)
(9.96008 4.0928 0)
(11.9197 4.95073 0)
(8.22273 6.30765 0)
(12.9265 3.69842 0)
(9.18037 9.93295 0)
(13.2471 4.11479 0)
(11.8025 12.2309 0)
(11.5798 -0.0928491 0)
(11.5872 -0.236228 0)
(11.7093 -0.302459 0)
(11.797 -0.290939 0)
(11.8327 -0.230537 0)
(11.8692 -0.177398 0)
(11.8386 -0.126725 0)
(11.8387 -0.0934772 0)
(11.8098 -0.0792934 0)
(11.7799 -0.0512 0)
(11.7856 -0.0662895 0)
(11.7449 -0.0474796 0)
(11.7685 -0.054718 0)
(11.7434 -0.0594837 0)
(11.745 -0.0392173 0)
(11.7645 -0.0674204 0)
(11.7326 -0.0302301 0)
(11.7856 -0.0486245 0)
(11.7468 -0.0375748 0)
(11.7899 -0.0208814 0)
(11.7907 -0.0478547 0)
(11.782 -0.00729593 0)
(11.831 -0.0440238 0)
(11.7782 -0.0222965 0)
(11.8469 -0.0315412 0)
(11.7929 -0.0459399 0)
(11.8224 -0.0211813 0)
(11.8075 -0.0649017 0)
(11.7828 -0.0292925 0)
(11.8002 -0.0596524 0)
(11.7483 -0.0541265 0)
(11.7514 -0.0397473 0)
(11.7372 -0.0800819 0)
(11.6777 -0.0182838 0)
(11.7287 -0.058569 0)
(11.6207 -0.00564546 0)
(11.704 0.0162053 0)
(11.6152 0.0268654 0)
(11.6545 0.106405 0)
(11.6409 0.107265 0)
(11.6036 0.170357 0)
(11.6601 0.205268 0)
(11.5747 0.215199 0)
(11.6449 0.26619 0)
(11.5861 0.252342 0)
(11.6153 0.277644 0)
(11.626 0.281272 0)
(11.6109 0.261681 0)
(11.6769 0.27924 0)
(11.6649 0.243404 0)
(11.7109 0.2449 0)
(11.7716 0.232256 0)
(11.7361 0.18454 0)
(11.8771 0.182749 0)
(11.8046 0.146374 0)
(11.9072 0.102223 0)
(11.897 0.0990766 0)
(11.9039 0.0421495 0)
(11.9663 0.0195698 0)
(11.9332 -0.0161874 0)
(11.9929 -0.0438134 0)
(12.0042 -0.0817819 0)
(12.0139 -0.106965 0)
(12.0698 -0.112506 0)
(12.0817 -0.16322 0)
(12.1195 -0.165177 0)
(12.1555 -0.18057 0)
(12.1859 -0.219412 0)
(12.2376 -0.230847 0)
(12.2423 -0.250954 0)
(12.2942 -0.281844 0)
(12.331 -0.319828 0)
(12.3119 -0.325252 0)
(12.3748 -0.343556 0)
(12.381 -0.392104 0)
(12.3775 -0.391099 0)
(12.4275 -0.380673 0)
(12.4495 -0.394912 0)
(12.4878 -0.392728 0)
(12.5168 -0.396534 0)
(12.5909 -0.348461 0)
(12.6602 -0.381107 0)
(12.7429 -0.365968 0)
(12.7923 -0.338764 0)
(12.9458 -0.380171 0)
(13.0289 -0.37706 0)
(13.1349 -0.43634 0)
(13.2288 -0.470392 0)
(13.3671 -0.521149 0)
(13.4476 -0.617532 0)
(13.514 -0.697612 0)
(13.5629 -0.788557 0)
(13.6235 -0.87137 0)
(13.5809 -0.950445 0)
(13.5349 -1.03645 0)
(13.4142 -1.10414 0)
(13.3285 -1.18348 0)
(12.9942 -1.2087 0)
(12.8271 -1.18954 0)
(12.4861 -1.08217 0)
(12.3643 -0.918069 0)
(12.0077 -0.800165 0)
(11.9193 -0.702901 0)
(11.567 -0.576655 0)
(11.6252 -0.506876 0)
(11.3331 -0.342704 0)
(11.4648 -0.249235 0)
(11.2325 -0.123896 0)
(11.4159 -0.0194695 0)
(11.2444 0.0334868 0)
(11.4222 0.111041 0)
(11.3464 0.0708851 0)
(11.5482 0.0918649 0)
(11.5437 0.0050109 0)
(11.6721 -0.0141498 0)
(11.7661 -0.218075 0)
(11.7601 -0.257372 0)
(11.9287 -0.546877 0)
(11.8425 -0.673635 0)
(11.9529 -0.961987 0)
(11.9424 -1.22487 0)
(11.9871 -1.41376 0)
(11.8607 -1.69314 0)
(12.0129 -1.93898 0)
(11.7457 -2.15806 0)
(11.6583 -2.32063 0)
(11.5385 -2.79029 0)
(11.3232 -2.79762 0)
(10.677 -3.09153 0)
(10.8551 -3.35905 0)
(10.0317 -3.53229 0)
(10.0531 -3.4165 0)
(9.14414 -3.7844 0)
(10.4329 -4.41779 0)
(9.67886 -4.94863 0)
(10.4541 -4.92166 0)
(9.28714 -5.04051 0)
(10.0993 -5.02582 0)
(9.92781 -5.07845 0)
(10.7121 -4.96449 0)
(11.1893 -4.50498 0)
(11.4987 -3.99853 0)
(12.2175 -3.0599 0)
(12.2402 -2.10199 0)
(12.8604 -1.0136 0)
(12.6499 -0.221223 0)
(13.2982 0.766917 0)
(13.063 1.50445 0)
(13.7769 2.39307 0)