/*--------------------------------*- C++ -*----------------------------------*\
| =========                 |                                                 |
| \\      /  F ield         | OpenFOAM: The Open Source CFD Toolbox           |
|  \\    /   O peration     | Version:  2.4.0                                 |
|   \\  /    A nd           | Web:      www.OpenFOAM.org                      |
|    \\/     M anipulation  |                                                 |
\*---------------------------------------------------------------------------*/
FoamFile
{
    version     2.0;
    format      ascii;
    class       volSymmTensorField;
    location    "0.54";
    object      UPrime2Mean;
}
// * * * * * * * * * * * * * * * * * * * * * * * * * * * * * * * * * * * * * //

dimensions      [0 2 -2 0 0 0 0];

internalField   nonuniform List<symmTensor> 
8800
(
(0.00307293 0.000195904 0 0.000351678 0 0)
(0.0591983 -0.00232461 0 0.000126445 0 0)
(0.11589 -0.000199416 0 2.62694e-05 0 0)
(0.144373 0.000369412 0 7.22485e-06 0 0)
(0.165099 0.000303546 0 1.82116e-06 0 0)
(0.181448 0.000227073 0 1.20958e-06 0 0)
(0.191589 0.000170415 0 1.33262e-06 0 0)
(0.200584 9.02837e-05 0 1.36605e-06 0 0)
(0.205642 6.8052e-05 0 1.6927e-06 0 0)
(0.211942 1.69715e-05 0 1.60609e-06 0 0)
(0.214505 3.10203e-05 0 1.67992e-06 0 0)
(0.220274 -3.44227e-05 0 1.85318e-06 0 0)
(0.221734 -1.41487e-05 0 1.94843e-06 0 0)
(0.229357 -0.000109755 0 2.17484e-06 0 0)
(0.231359 -0.000194954 0 2.72136e-06 0 0)
(0.244043 -0.000100485 0 3.65526e-06 0 0)
(0.25806 -0.00167594 0 2.28566e-05 0 0)
(0.269139 0.00347403 0 0.000127519 0 0)
(0.420898 -0.0314913 0 0.00318823 0 0)
(0.436861 0.0493226 0 0.00974186 0 0)
(0.0161397 0.00534763 0 0.00209164 0 0)
(0.00140023 -0.00185285 0 0.00273878 0 0)
(0.0141726 -0.00376879 0 0.00109702 0 0)
(0.0289733 -0.00330499 0 0.000395373 0 0)
(0.045751 -0.00290854 0 0.000199394 0 0)
(0.0691212 -0.00265955 0 0.000142462 0 0)
(0.0895661 -0.00214584 0 0.000104894 0 0)
(0.113099 -0.00179483 0 7.56674e-05 0 0)
(0.127987 -0.00132344 0 4.53799e-05 0 0)
(0.148081 -0.00127716 0 3.73971e-05 0 0)
(0.155344 -0.000938767 0 1.9086e-05 0 0)
(0.177078 -0.0012183 0 2.45004e-05 0 0)
(0.17602 -0.000944897 0 1.8657e-05 0 0)
(0.206605 -0.00183085 0 4.3658e-05 0 0)
(0.196836 -0.000974721 0 2.44626e-05 0 0)
(0.246108 -0.00496595 0 0.000153725 0 0)
(0.237262 0.000355226 0 9.06831e-05 0 0)
(0.315711 -0.0196584 0 0.00142384 0 0)
(0.382497 -0.00838319 0 0.000887365 0 0)
(0.549623 -0.110887 0 0.0353208 0 0)
(0.0160027 0.00394342 0 0.00114083 0 0)
(0.00139799 0.00178581 0 0.00290211 0 0)
(0.00145269 0.000939516 0 0.00177906 0 0)
(0.00209384 0.000398 0 0.000933704 0 0)
(0.00158171 -0.000133133 0 0.000692688 0 0)
(0.00306331 -0.00113542 0 0.000645521 0 0)
(0.00661836 -0.00163159 0 0.000554853 0 0)
(0.0157173 -0.00217254 0 0.000436531 0 0)
(0.0228729 -0.0019869 0 0.000306916 0 0)
(0.0367571 -0.00224106 0 0.000218211 0 0)
(0.0409143 -0.00185171 0 0.000119108 0 0)
(0.0607795 -0.00213488 0 0.000134815 0 0)
(0.0588587 -0.00203225 0 9.98631e-05 0 0)
(0.0848255 -0.00263362 0 0.000195586 0 0)
(0.0823461 -0.00273776 0 0.000191975 0 0)
(0.110893 -0.00461073 0 0.000401544 0 0)
(0.122729 -0.00595684 0 0.000608477 0 0)
(0.156828 -0.0114786 0 0.00128996 0 0)
(0.206111 -0.0292351 0 0.0061794 0 0)
(0.295642 -0.0741956 0 0.0375687 0 0)
(0.0155122 0.00270687 0 0.000563478 0 0)
(0.00146547 0.00119448 0 0.00191094 0 0)
(0.00347667 0.00188501 0 0.00154268 0 0)
(0.00736145 0.00206897 0 0.000865512 0 0)
(0.0121246 0.00247597 0 0.00072623 0 0)
(0.0108597 0.00224242 0 0.000841145 0 0)
(0.0117045 0.00218744 0 0.000876136 0 0)
(0.00790321 0.00126812 0 0.000847247 0 0)
(0.00826377 0.000992382 0 0.000680096 0 0)
(0.00579877 3.21274e-05 0 0.000553957 0 0)
(0.00575504 0.00018837 0 0.000316345 0 0)
(0.00629434 -0.000744381 0 0.000436334 0 0)
(0.00552847 -0.000322906 0 0.000227388 0 0)
(0.00872284 -0.00158568 0 0.000540701 0 0)
(0.00903482 -0.000760908 0 0.000312933 0 0)
(0.0142793 -0.00284921 0 0.000899957 0 0)
(0.0176964 -0.00233464 0 0.000654934 0 0)
(0.0289482 -0.00664187 0 0.00295772 0 0)
(0.042997 -0.0135881 0 0.00726833 0 0)
(0.069686 -0.0320143 0 0.0346227 0 0)
(0.0167374 0.00208761 0 0.000329994 0 0)
(0.00145731 0.000581071 0 0.00125054 0 0)
(0.00318272 0.00139343 0 0.00115274 0 0)
(0.00701042 0.0016483 0 0.000655102 0 0)
(0.0145953 0.00217762 0 0.000505265 0 0)
(0.0156883 0.00241128 0 0.000645305 0 0)
(0.0222187 0.00298026 0 0.000749109 0 0)
(0.019856 0.00274427 0 0.000821628 0 0)
(0.0261476 0.00279301 0 0.000698095 0 0)
(0.0223728 0.0021558 0 0.000729549 0 0)
(0.0282977 0.0022475 0 0.000372981 0 0)
(0.0234809 0.00189497 0 0.000653902 0 0)
(0.0287004 0.00181619 0 0.000312173 0 0)
(0.0227739 0.00208133 0 0.00081995 0 0)
(0.0265372 0.00176896 0 0.000457461 0 0)
(0.0197946 0.00263723 0 0.00139316 0 0)
(0.020886 0.00264811 0 0.00104022 0 0)
(0.0140163 0.00435876 0 0.00489356 0 0)
(0.013834 0.00552956 0 0.0082823 0 0)
(0.0151997 0.0079688 0 0.0471975 0 0)
(0.0173131 0.00149246 0 0.000201472 0 0)
(0.00158324 0.00035233 0 0.000884141 0 0)
(0.00248861 0.000898655 0 0.000852823 0 0)
(0.00588154 0.00122605 0 0.0005197 0 0)
(0.0121525 0.00147084 0 0.000337692 0 0)
(0.0143344 0.0017455 0 0.000442689 0 0)
(0.01988 0.00224629 0 0.000553662 0 0)
(0.0202576 0.0024178 0 0.000659379 0 0)
(0.0262049 0.00230789 0 0.000567416 0 0)
(0.0268238 0.00221834 0 0.000618021 0 0)
(0.0329939 0.00207205 0 0.000353976 0 0)
(0.033975 0.00238587 0 0.000558005 0 0)
(0.0402047 0.00209695 0 0.000365708 0 0)
(0.0406677 0.00310758 0 0.000659009 0 0)
(0.0457856 0.00300391 0 0.000540284 0 0)
(0.0452962 0.00467401 0 0.0011131 0 0)
(0.0475919 0.00641892 0 0.00144171 0 0)
(0.0455649 0.0105154 0 0.00429268 0 0)
(0.0457438 0.0184558 0 0.0112484 0 0)
(0.0497981 0.0319316 0 0.036377 0 0)
(0.0165624 0.000957246 0 0.000133837 0 0)
(0.00185096 0.000238244 0 0.000636252 0 0)
(0.00224617 0.000444505 0 0.000592192 0 0)
(0.00562988 0.000929617 0 0.000433791 0 0)
(0.010233 0.000931455 0 0.000254812 0 0)
(0.0137571 0.00125649 0 0.000350538 0 0)
(0.0167793 0.00147322 0 0.000437678 0 0)
(0.0193362 0.00188812 0 0.000507451 0 0)
(0.0223622 0.00150563 0 0.000372399 0 0)
(0.0256761 0.00182459 0 0.000536794 0 0)
(0.0289107 0.00127869 0 0.000274685 0 0)
(0.0332552 0.0021742 0 0.000519783 0 0)
(0.0367207 0.00126822 0 0.000308657 0 0)
(0.0413417 0.0030166 0 0.000643297 0 0)
(0.0442187 0.00210382 0 0.000466009 0 0)
(0.0488417 0.00534084 0 0.00119659 0 0)
(0.050354 0.0057532 0 0.0014387 0 0)
(0.0546855 0.0131964 0 0.00481988 0 0)
(0.0565811 0.0193304 0 0.0103634 0 0)
(0.0687792 0.0389324 0 0.0325379 0 0)
(0.0165305 0.000640134 0 9.78731e-05 0 0)
(0.00201897 0.000147376 0 0.000426465 0 0)
(0.00219899 0.000218843 0 0.000412059 0 0)
(0.00520964 0.000555625 0 0.00031368 0 0)
(0.00939472 0.000554637 0 0.000213311 0 0)
(0.0127666 0.000777932 0 0.000303491 0 0)
(0.0157546 0.000954638 0 0.000361721 0 0)
(0.0178224 0.00120973 0 0.000387557 0 0)
(0.0207534 0.000984097 0 0.000331849 0 0)
(0.0234575 0.00112215 0 0.000426118 0 0)
(0.0269595 0.000838034 0 0.000324003 0 0)
(0.0302198 0.00130137 0 0.000433956 0 0)
(0.0343786 0.000946816 0 0.000355906 0 0)
(0.0380247 0.0018809 0 0.000510662 0 0)
(0.0421647 0.00189639 0 0.000460071 0 0)
(0.0454109 0.00399512 0 0.000984851 0 0)
(0.0492539 0.00569994 0 0.00143432 0 0)
(0.0530236 0.0118758 0 0.00432827 0 0)
(0.0595261 0.0191815 0 0.0095269 0 0)
(0.0723877 0.0377673 0 0.02815 0 0)
(0.0160563 0.000282363 0 7.5315e-05 0 0)
(0.00163819 -4.22858e-05 0 0.000259508 0 0)
(0.00195788 -8.37543e-06 0 0.000258814 0 0)
(0.00465718 0.000222603 0 0.000210604 0 0)
(0.00838591 0.000212371 0 0.000184719 0 0)
(0.0119296 0.000332682 0 0.000252839 0 0)
(0.0143494 0.000439486 0 0.000289997 0 0)
(0.0165536 0.000633359 0 0.000293318 0 0)
(0.0186782 0.000443297 0 0.000255408 0 0)
(0.0216723 0.000592849 0 0.000330053 0 0)
(0.0244692 0.000369945 0 0.000281623 0 0)
(0.0283305 0.000816699 0 0.000346176 0 0)
(0.0315817 0.000566883 0 0.000278051 0 0)
(0.0358931 0.00136949 0 0.00039186 0 0)
(0.0388608 0.00153364 0 0.000403754 0 0)
(0.0434827 0.00329401 0 0.000859623 0 0)
(0.0466887 0.00540155 0 0.00132474 0 0)
(0.0529572 0.0104866 0 0.0037601 0 0)
(0.0600708 0.0190534 0 0.00848368 0 0)
(0.0760989 0.0344702 0 0.0232537 0 0)
(0.0157937 6.71417e-05 0 6.18747e-05 0 0)
(0.00129576 -9.61876e-05 0 0.000178956 0 0)
(0.00173162 -0.000105206 0 0.000194536 0 0)
(0.00414096 6.40154e-07 0 0.000152033 0 0)
(0.00769963 -5.1192e-06 0 0.000173637 0 0)
(0.0111249 -5.06815e-06 0 0.000246697 0 0)
(0.013592 2.28684e-05 0 0.00026258 0 0)
(0.01565 0.000136426 0 0.000233879 0 0)
(0.0177605 7.98789e-05 0 0.000230901 0 0)
(0.0205429 0.000101169 0 0.000288078 0 0)
(0.0235107 -5.16887e-05 0 0.000298632 0 0)
(0.0271661 0.000231133 0 0.000309048 0 0)
(0.0304479 0.000134313 0 0.000295335 0 0)
(0.0344399 0.000776268 0 0.000340816 0 0)
(0.0378902 0.000990289 0 0.000373429 0 0)
(0.042609 0.00282236 0 0.000658626 0 0)
(0.0467795 0.00447983 0 0.00121952 0 0)
(0.0537466 0.0101743 0 0.00310884 0 0)
(0.0623667 0.017168 0 0.00745054 0 0)
(0.0806581 0.0331642 0 0.018856 0 0)
(0.0156073 -0.000185763 0 5.86778e-05 0 0)
(0.00103988 -0.000159934 0 0.000167065 0 0)
(0.00143793 -0.000167242 0 0.000197406 0 0)
(0.00373495 -0.000211715 0 0.000182497 0 0)
(0.00740461 -0.000227153 0 0.000203217 0 0)
(0.010863 -0.000278062 0 0.000254952 0 0)
(0.0134383 -0.000346647 0 0.000267777 0 0)
(0.0154374 -0.000313653 0 0.00024029 0 0)
(0.0177127 -0.000321996 0 0.000224327 0 0)
(0.0204091 -0.000271298 0 0.00024006 0 0)
(0.0234654 -0.000357196 0 0.000275178 0 0)
(0.0268796 -0.000163959 0 0.000307064 0 0)
(0.0303783 -0.00016144 0 0.00028161 0 0)
(0.0342493 0.000302218 0 0.00030374 0 0)
(0.0380188 0.000726934 0 0.000300826 0 0)
(0.0428129 0.0020981 0 0.000582459 0 0)
(0.0480251 0.00417445 0 0.000951837 0 0)
(0.0557861 0.00886905 0 0.00267142 0 0)
(0.0668388 0.0163048 0 0.00595069 0 0)
(0.085417 0.0300693 0 0.0153284 0 0)
(0.0154049 -0.000398776 0 5.22809e-05 0 0)
(0.000725875 -0.000164921 0 0.000201136 0 0)
(0.00117598 -0.000173829 0 0.000206257 0 0)
(0.00375768 -0.000363874 0 0.000158922 0 0)
(0.0075483 -0.000355661 0 0.000125185 0 0)
(0.0109975 -0.00049894 0 0.000180246 0 0)
(0.0134117 -0.000625546 0 0.000225616 0 0)
(0.0155646 -0.000762463 0 0.000243197 0 0)
(0.0178155 -0.000665787 0 0.000221436 0 0)
(0.0207483 -0.000691556 0 0.000214138 0 0)
(0.0237436 -0.000610071 0 0.00022655 0 0)
(0.0274036 -0.000542766 0 0.000232674 0 0)
(0.0309064 -0.000399466 0 0.000206532 0 0)
(0.0352639 -0.000216041 0 0.000210207 0 0)
(0.039248 0.000305739 0 0.000237222 0 0)
(0.0446645 0.00144573 0 0.000384993 0 0)
(0.0504858 0.00350476 0 0.000777569 0 0)
(0.0598286 0.00770708 0 0.00197806 0 0)
(0.0722149 0.0146797 0 0.00479432 0 0)
(0.0927932 0.0272977 0 0.0115839 0 0)
(0.0154137 -0.000697354 0 7.28169e-05 0 0)
(0.000656719 -0.000274516 0 0.0003457 0 0)
(0.00113936 -0.000331212 0 0.000325866 0 0)
(0.00388796 -0.000660952 0 0.000246695 0 0)
(0.00795532 -0.000685582 0 0.000161924 0 0)
(0.0115245 -0.000930132 0 0.000230447 0 0)
(0.014291 -0.0011462 0 0.00029093 0 0)
(0.0165033 -0.00133884 0 0.00032466 0 0)
(0.019088 -0.00118337 0 0.000284811 0 0)
(0.0220525 -0.00122763 0 0.00027501 0 0)
(0.0253728 -0.00106114 0 0.00024799 0 0)
(0.0290056 -0.00107958 0 0.000267822 0 0)
(0.0329954 -0.000859683 0 0.000214729 0 0)
(0.0374402 -0.000840954 0 0.000219657 0 0)
(0.0421232 -0.00024314 0 0.000220096 0 0)
(0.0478202 0.000611983 0 0.000330334 0 0)
(0.0549028 0.00258502 0 0.000617186 0 0)
(0.0650962 0.00619289 0 0.00147703 0 0)
(0.0798526 0.0125286 0 0.0036732 0 0)
(0.101618 0.0239276 0 0.00872015 0 0)
(0.0156134 -0.00105259 0 0.00011346 0 0)
(0.000522413 -0.000362302 0 0.000575366 0 0)
(0.00121013 -0.000554221 0 0.000534703 0 0)
(0.00440101 -0.000968135 0 0.000367988 0 0)
(0.00916292 -0.00102406 0 0.000206918 0 0)
(0.0125263 -0.00134789 0 0.000282836 0 0)
(0.0159376 -0.00162061 0 0.00036161 0 0)
(0.0180737 -0.00194051 0 0.000447978 0 0)
(0.0214782 -0.00171478 0 0.00037436 0 0)
(0.0242841 -0.00181184 0 0.000370099 0 0)
(0.0283591 -0.00150335 0 0.000264176 0 0)
(0.031898 -0.00171107 0 0.000315965 0 0)
(0.036573 -0.00130552 0 0.00021296 0 0)
(0.0409702 -0.001619 0 0.000256314 0 0)
(0.0465357 -0.000766349 0 0.000206014 0 0)
(0.0525124 -0.000450606 0 0.000311817 0 0)
(0.0605895 0.00171437 0 0.000454015 0 0)
(0.0716091 0.00424222 0 0.00108193 0 0)
(0.0880748 0.0101972 0 0.00258325 0 0)
(0.111203 0.0194809 0 0.00632303 0 0)
(0.0163575 -0.00155589 0 0.000195008 0 0)
(0.000610152 -0.000435497 0 0.000867619 0 0)
(0.00178897 -0.000982129 0 0.000832969 0 0)
(0.00516435 -0.00129057 0 0.000506632 0 0)
(0.0115371 -0.00156821 0 0.000331248 0 0)
(0.0136658 -0.00185827 0 0.000428172 0 0)
(0.019279 -0.00233118 0 0.000536863 0 0)
(0.019578 -0.00252626 0 0.000654113 0 0)
(0.0256833 -0.00249388 0 0.000565849 0 0)
(0.0260264 -0.00236575 0 0.000552477 0 0)
(0.0328523 -0.00215343 0 0.000373224 0 0)
(0.033318 -0.00227571 0 0.000440353 0 0)
(0.040601 -0.00187399 0 0.000272832 0 0)
(0.0412365 -0.00228248 0 0.000357893 0 0)
(0.0490935 -0.00130125 0 0.000244087 0 0)
(0.0508151 -0.00139782 0 0.000353133 0 0)
(0.0604684 0.00085862 0 0.000376171 0 0)
(0.0666839 0.00217455 0 0.000763548 0 0)
(0.0832231 0.00754601 0 0.00176305 0 0)
(0.101233 0.0136343 0 0.00402682 0 0)
(0.0163732 -0.00215474 0 0.000337994 0 0)
(0.000951736 -0.000636808 0 0.00125089 0 0)
(0.00272731 -0.00151469 0 0.00117903 0 0)
(0.0063963 -0.00170407 0 0.000658217 0 0)
(0.0142018 -0.00231076 0 0.00052544 0 0)
(0.0150278 -0.00248629 0 0.000646327 0 0)
(0.0218057 -0.00312842 0 0.000769317 0 0)
(0.0191091 -0.002811 0 0.000840187 0 0)
(0.0257165 -0.00299226 0 0.000742904 0 0)
(0.021566 -0.00228148 0 0.000655498 0 0)
(0.028012 -0.00236498 0 0.000458031 0 0)
(0.0229873 -0.00189613 0 0.00049191 0 0)
(0.0289545 -0.00182594 0 0.000303627 0 0)
(0.0234195 -0.00159355 0 0.000395828 0 0)
(0.0290166 -0.00109972 0 0.000237412 0 0)
(0.0242747 -0.000849795 0 0.000363937 0 0)
(0.0304315 0.000530791 0 0.000284916 0 0)
(0.0292191 0.00130739 0 0.000569093 0 0)
(0.0397351 0.00468191 0 0.00113951 0 0)
(0.0485833 0.00765719 0 0.00239305 0 0)
(0.0154044 -0.00273307 0 0.000565203 0 0)
(0.00124616 -0.00119504 0 0.00190873 0 0)
(0.00323536 -0.00194573 0 0.00155497 0 0)
(0.00688083 -0.0020688 0 0.000873492 0 0)
(0.0118457 -0.00254908 0 0.000743921 0 0)
(0.0101744 -0.00224753 0 0.000851397 0 0)
(0.0113946 -0.00226554 0 0.000899479 0 0)
(0.0071229 -0.00124524 0 0.000850321 0 0)
(0.00771986 -0.0011325 0 0.000683218 0 0)
(0.00497828 -0.00012458 0 0.000530789 0 0)
(0.00512954 -0.000282693 0 0.000354515 0 0)
(0.00535197 0.000500045 0 0.000345719 0 0)
(0.00460321 0.000193548 0 0.000211019 0 0)
(0.00785443 0.000922249 0 0.000264092 0 0)
(0.00655751 0.000411682 0 0.000149641 0 0)
(0.0120005 0.00121874 0 0.000236318 0 0)
(0.0108996 0.000542856 0 0.00019626 0 0)
(0.0174909 0.00168816 0 0.000335491 0 0)
(0.0192859 0.0016272 0 0.000798404 0 0)
(0.0279596 0.00385286 0 0.00111188 0 0)
(0.0159842 -0.00395412 0 0.00114284 0 0)
(0.00135243 -0.00177868 0 0.00289616 0 0)
(0.00135162 -0.000954776 0 0.00178217 0 0)
(0.00195496 -0.000387862 0 0.000931746 0 0)
(0.00138602 0.000110529 0 0.0006968 0 0)
(0.00289845 0.00113971 0 0.000644809 0 0)
(0.00618483 0.00160243 0 0.000559725 0 0)
(0.0156936 0.00219816 0 0.000442594 0 0)
(0.0217384 0.00194391 0 0.000301471 0 0)
(0.0365124 0.00215533 0 0.000205991 0 0)
(0.0399355 0.00168773 0 0.000121126 0 0)
(0.0583388 0.00195419 0 0.000114503 0 0)
(0.0571592 0.00140847 0 7.2723e-05 0 0)
(0.0783952 0.00182075 0 8.86573e-05 0 0)
(0.0731499 0.000882602 0 5.50783e-05 0 0)
(0.0943709 0.00154539 0 9.04705e-05 0 0)
(0.0865573 -0.000280226 0 9.19547e-05 0 0)
(0.10198 0.00121242 0 0.000169231 0 0)
(0.0955617 -0.00146736 0 0.000371852 0 0)
(0.0991349 0.00256149 0 0.000741619 0 0)
(0.0161356 -0.00534902 0 0.00209215 0 0)
(0.00140636 0.00185593 0 0.0027369 0 0)
(0.0141321 0.00376654 0 0.00109727 0 0)
(0.0289955 0.00330668 0 0.000394877 0 0)
(0.0456068 0.00290801 0 0.000199816 0 0)
(0.0692357 0.00265878 0 0.000142471 0 0)
(0.0892151 0.00214146 0 0.000105025 0 0)
(0.113409 0.0017906 0 7.47745e-05 0 0)
(0.127079 0.0013199 0 4.62078e-05 0 0)
(0.148099 0.00119541 0 3.29066e-05 0 0)
(0.154361 0.000887943 0 2.02485e-05 0 0)
(0.174261 0.000972063 0 2.21655e-05 0 0)
(0.17448 0.000664182 0 1.77954e-05 0 0)
(0.19467 0.000840158 0 1.96824e-05 0 0)
(0.189818 0.000290366 0 1.60681e-05 0 0)
(0.208368 0.000502595 0 2.1544e-05 0 0)
(0.198784 -0.000659589 0 3.06106e-05 0 0)
(0.208331 0.000123377 0 4.95802e-05 0 0)
(0.19991 -0.0022121 0 0.000127085 0 0)
(0.185967 0.00112105 0 0.000454159 0 0)
(0.00307319 -0.000195556 0 0.000351735 0 0)
(0.0592088 0.00232425 0 0.000126409 0 0)
(0.115877 0.000200422 0 2.62249e-05 0 0)
(0.14438 -0.000370016 0 7.19864e-06 0 0)
(0.165054 -0.000302394 0 1.78761e-06 0 0)
(0.181505 -0.000228263 0 1.22e-06 0 0)
(0.191479 -0.000170933 0 1.36401e-06 0 0)
(0.200663 -9.18367e-05 0 1.40298e-06 0 0)
(0.205341 -7.56162e-05 0 1.48001e-06 0 0)
(0.211855 -2.59639e-05 0 1.42445e-06 0 0)
(0.213765 -4.65755e-05 0 1.63257e-06 0 0)
(0.219188 -2.9e-06 0 1.56811e-06 0 0)
(0.219332 -4.93288e-05 0 1.42606e-06 0 0)
(0.224327 -6.70651e-06 0 1.12266e-06 0 0)
(0.222581 -0.000106896 0 1.14681e-06 0 0)
(0.226084 -8.52357e-05 0 1.04524e-06 0 0)
(0.220972 -0.000276155 0 1.67277e-06 0 0)
(0.219573 -0.000226555 0 2.6433e-06 0 0)
(0.212923 -0.000782985 0 8.2786e-06 0 0)
(0.192887 0.0010392 0 7.07351e-05 0 0)
(0.862784 -0.440624 0 0.271406 0 0)
(0.975521 -0.52454 0 0.383071 0 0)
(0.98002 -0.504758 0 0.458028 0 0)
(0.984747 -0.443668 0 0.51065 0 0)
(1.01394 -0.371531 0 0.54115 0 0)
(1.10801 -0.321995 0 0.563028 0 0)
(1.24319 -0.308293 0 0.584017 0 0)
(1.44487 -0.333401 0 0.613928 0 0)
(1.64299 -0.379262 0 0.649253 0 0)
(1.84417 -0.42753 0 0.683923 0 0)
(1.99757 -0.471787 0 0.722214 0 0)
(2.15556 -0.510995 0 0.769063 0 0)
(2.27966 -0.538721 0 0.819428 0 0)
(2.42348 -0.571067 0 0.86294 0 0)
(2.56543 -0.606715 0 0.891956 0 0)
(2.71505 -0.65748 0 0.912102 0 0)
(2.85112 -0.725259 0 0.941448 0 0)
(2.9978 -0.806324 0 0.984703 0 0)
(3.10456 -0.882462 0 1.05042 0 0)
(3.2752 -0.963803 0 1.13114 0 0)
(3.44954 -1.02508 0 1.198 0 0)
(3.67201 -1.10785 0 1.26457 0 0)
(3.89299 -1.1934 0 1.33017 0 0)
(4.12808 -1.28637 0 1.39795 0 0)
(4.37336 -1.38378 0 1.46522 0 0)
(4.62167 -1.47573 0 1.53875 0 0)
(4.88655 -1.57867 0 1.61196 0 0)
(5.15747 -1.69117 0 1.68587 0 0)
(5.43367 -1.81831 0 1.76319 0 0)
(5.713 -1.95282 0 1.84832 0 0)
(5.97824 -2.08902 0 1.93965 0 0)
(6.27408 -2.22562 0 2.02882 0 0)
(6.53215 -2.3621 0 2.11863 0 0)
(6.88658 -2.51384 0 2.20192 0 0)
(7.14281 -2.66547 0 2.28947 0 0)
(7.54364 -2.84482 0 2.36796 0 0)
(7.74959 -2.99437 0 2.44519 0 0)
(8.12797 -3.1719 0 2.51152 0 0)
(8.24947 -3.29659 0 2.57512 0 0)
(8.55753 -3.4392 0 2.63229 0 0)
(8.5896 -3.51598 0 2.68594 0 0)
(8.80534 -3.60602 0 2.73593 0 0)
(8.78303 -3.64103 0 2.7755 0 0)
(8.94772 -3.69812 0 2.82221 0 0)
(8.9316 -3.72885 0 2.86193 0 0)
(9.08986 -3.78443 0 2.91831 0 0)
(9.10222 -3.83139 0 2.97436 0 0)
(9.29053 -3.90533 0 3.05202 0 0)
(9.32616 -3.96774 0 3.13494 0 0)
(9.5462 -4.06302 0 3.24225 0 0)
(9.57774 -4.13225 0 3.35356 0 0)
(9.79418 -4.22298 0 3.48187 0 0)
(9.75841 -4.25629 0 3.60018 0 0)
(9.92728 -4.29686 0 3.71646 0 0)
(9.78074 -4.25008 0 3.80061 0 0)
(9.88189 -4.21816 0 3.87509 0 0)
(9.64608 -4.08906 0 3.89315 0 0)
(9.70269 -4.00479 0 3.92047 0 0)
(9.46412 -3.86163 0 3.89938 0 0)
(9.53178 -3.78125 0 3.91265 0 0)
(9.34051 -3.69106 0 3.91151 0 0)
(9.44867 -3.66201 0 3.95546 0 0)
(9.25234 -3.61713 0 4.0147 0 0)
(9.33003 -3.62999 0 4.11417 0 0)
(9.0259 -3.53383 0 4.19981 0 0)
(8.99415 -3.51276 0 4.29911 0 0)
(8.68345 -3.31612 0 4.29951 0 0)
(8.59134 -3.18029 0 4.28984 0 0)
(8.34538 -2.98841 0 4.25392 0 0)
(8.30928 -2.85479 0 4.29513 0 0)
(8.12036 -2.71067 0 4.35721 0 0)
(8.13888 -2.57105 0 4.41184 0 0)
(8.01644 -2.42172 0 4.46385 0 0)
(8.12334 -2.33404 0 4.51225 0 0)
(8.04014 -2.20692 0 4.63234 0 0)
(8.19274 -2.17029 0 4.77203 0 0)
(8.19069 -2.0609 0 4.98097 0 0)
(8.28592 -2.03267 0 5.20999 0 0)
(8.30631 -1.92537 0 5.48145 0 0)
(8.27184 -1.83784 0 5.74869 0 0)
(8.23943 -1.70722 0 6.0053 0 0)
(8.10237 -1.57914 0 6.19817 0 0)
(8.1223 -1.46983 0 6.36778 0 0)
(7.94633 -1.36055 0 6.49944 0 0)
(8.02753 -1.28478 0 6.57484 0 0)
(7.85683 -1.16743 0 6.67609 0 0)
(7.98093 -1.10144 0 6.75273 0 0)
(7.81469 -0.983584 0 6.91892 0 0)
(7.98659 -0.906276 0 7.05607 0 0)
(7.87385 -0.778391 0 7.26419 0 0)
(8.08091 -0.730913 0 7.39796 0 0)
(8.03423 -0.661471 0 7.55213 0 0)
(8.31351 -0.623766 0 7.66047 0 0)
(8.33288 -0.565458 0 7.79443 0 0)
(8.59914 -0.520415 0 7.90498 0 0)
(8.58764 -0.446022 0 8.05457 0 0)
(8.8291 -0.400204 0 8.20317 0 0)
(8.80026 -0.288841 0 8.40525 0 0)
(8.89488 -0.233975 0 8.61835 0 0)
(8.74415 -0.108693 0 8.88564 0 0)
(8.7161 1.40114e-05 0 9.18553 0 0)
(8.50601 0.0303934 0 9.50108 0 0)
(8.37994 0.146268 0 9.91722 0 0)
(8.22476 0.090759 0 10.2953 0 0)
(8.10281 0.10337 0 10.566 0 0)
(8.04238 -0.0337491 0 10.8553 0 0)
(7.93859 9.80157e-05 0 11.0657 0 0)
(7.91247 -0.164032 0 11.2846 0 0)
(7.79637 -0.111423 0 11.4116 0 0)
(7.78217 -0.246124 0 11.5615 0 0)
(7.64683 -0.211603 0 11.5736 0 0)
(7.61933 -0.346028 0 11.6371 0 0)
(7.52904 -0.324046 0 11.59 0 0)
(7.49007 -0.435932 0 11.6464 0 0)
(7.50482 -0.380509 0 11.6443 0 0)
(7.36345 -0.510677 0 11.7651 0 0)
(7.4745 -0.433638 0 11.8328 0 0)
(7.32749 -0.559847 0 11.9617 0 0)
(7.62894 -0.477903 0 12.0105 0 0)
(7.60533 -0.570311 0 12.0994 0 0)
(8.0448 -0.522372 0 12.1871 0 0)
(7.99533 -0.595558 0 12.33 0 0)
(8.3788 -0.497512 0 12.5269 0 0)
(8.17868 -0.615733 0 12.6626 0 0)
(8.51714 -0.483127 0 12.821 0 0)
(8.18021 -0.650112 0 12.8747 0 0)
(8.49644 -0.521589 0 13.01 0 0)
(8.10693 -0.72338 0 13.0842 0 0)
(8.47882 -0.571613 0 13.1864 0 0)
(8.06972 -0.804 0 13.1874 0 0)
(8.5255 -0.618322 0 13.2924 0 0)
(8.07789 -0.803665 0 13.2801 0 0)
(8.57428 -0.589471 0 13.313 0 0)
(8.08236 -0.714801 0 13.3238 0 0)
(8.55256 -0.521313 0 13.2864 0 0)
(7.99499 -0.549857 0 13.3685 0 0)
(8.44593 -0.335381 0 13.3212 0 0)
(7.83632 -0.31109 0 13.5305 0 0)
(8.26435 -0.0505873 0 13.5482 0 0)
(7.56629 0.0188327 0 13.7572 0 0)
(8.00973 0.21488 0 13.7582 0 0)
(7.24909 0.337954 0 13.8151 0 0)
(7.79212 0.560399 0 13.7972 0 0)
(6.94464 0.68552 0 13.8696 0 0)
(7.51406 0.922178 0 14.0337 0 0)
(6.59006 0.995499 0 14.0735 0 0)
(7.221 1.21732 0 14.1446 0 0)
(6.34288 1.29605 0 14.1857 0 0)
(6.96159 1.49255 0 14.3108 0 0)
(6.06307 1.42473 0 14.2753 0 0)
(6.64021 1.70836 0 14.5231 0 0)
(5.80185 1.47797 0 14.3683 0 0)
(6.29992 1.82474 0 14.4674 0 0)
(5.61323 1.52663 0 14.3182 0 0)
(6.0162 1.88048 0 14.4466 0 0)
(5.51237 1.51395 0 14.1785 0 0)
(5.79251 1.85849 0 14.2828 0 0)
(5.49419 1.59431 0 14.1049 0 0)
(5.64288 1.77923 0 14.1258 0 0)
(5.33655 1.57154 0 14.0709 0 0)
(5.3786 1.67724 0 14.2629 0 0)
(5.09833 1.37095 0 14.2502 0 0)
(5.12729 1.47365 0 14.3571 0 0)
(4.91322 1.16888 0 14.2863 0 0)
(4.91034 1.18529 0 14.2773 0 0)
(4.79906 0.962473 0 14.2064 0 0)
(4.67821 0.830536 0 14.2169 0 0)
(4.71795 0.602084 0 14.0572 0 0)
(4.42823 0.451555 0 13.9182 0 0)
(4.60912 0.189189 0 13.6446 0 0)
(4.22774 0.0840414 0 13.3495 0 0)
(4.4392 -0.349079 0 12.8658 0 0)
(4.00381 -0.315621 0 12.37 0 0)
(4.29439 -0.856505 0 11.9508 0 0)
(3.93398 -0.641761 0 11.339 0 0)
(4.22531 -1.07366 0 11.0504 0 0)
(3.96468 -0.855215 0 10.3837 0 0)
(4.15449 -1.22557 0 10.041 0 0)
(3.91766 -0.945245 0 9.57237 0 0)
(4.13797 -1.24098 0 9.03567 0 0)
(3.98166 -0.910598 0 8.85759 0 0)
(4.0508 -1.06555 0 8.12129 0 0)
(3.90606 -0.889842 0 8.15104 0 0)
(3.97393 -0.641073 0 7.35067 0 0)
(3.79631 -0.707522 0 7.6834 0 0)
(3.9717 -0.136456 0 6.79366 0 0)
(3.67043 -0.459944 0 7.47443 0 0)
(3.80888 0.24454 0 6.41044 0 0)
(3.40709 -0.278437 0 7.50551 0 0)
(3.59867 0.668444 0 6.31359 0 0)
(3.03548 -0.108232 0 7.83985 0 0)
(3.27828 1.14485 0 6.47282 0 0)
(2.61669 0.033951 0 8.57008 0 0)
(2.74869 1.56807 0 6.96581 0 0)
(2.23905 0.316362 0 9.97829 0 0)
(2.46109 2.35456 0 8.48581 0 0)
(1.84463 0.619578 0 12.2543 0 0)
(2.19992 3.50167 0 11.6018 0 0)
(1.94991 2.54209 0 17.8018 0 0)
(0.615528 0.949032 0 20.2558 0 0)
(0.724198 -0.364195 0 0.308333 0 0)
(0.728668 -0.385742 0 0.401503 0 0)
(0.69768 -0.355642 0 0.424566 0 0)
(0.675355 -0.31612 0 0.434753 0 0)
(0.671672 -0.280719 0 0.433311 0 0)
(0.698198 -0.270139 0 0.430577 0 0)
(0.752219 -0.288375 0 0.440279 0 0)
(0.831984 -0.325211 0 0.464377 0 0)
(0.918159 -0.365708 0 0.493015 0 0)
(0.999267 -0.401926 0 0.520714 0 0)
(1.0649 -0.435188 0 0.552027 0 0)
(1.1299 -0.46612 0 0.590076 0 0)
(1.18903 -0.496243 0 0.631156 0 0)
(1.2705 -0.526496 0 0.670254 0 0)
(1.35474 -0.562063 0 0.706224 0 0)
(1.47983 -0.608368 0 0.740911 0 0)
(1.60145 -0.670228 0 0.782359 0 0)
(1.77226 -0.751573 0 0.831273 0 0)
(1.91193 -0.830186 0 0.886289 0 0)
(2.08917 -0.919279 0 0.949006 0 0)
(2.2271 -0.990281 0 1.01124 0 0)
(2.40702 -1.07134 0 1.07533 0 0)
(2.55989 -1.14193 0 1.14014 0 0)
(2.75708 -1.22692 0 1.2083 0 0)
(2.92497 -1.30077 0 1.27933 0 0)
(3.14898 -1.39224 0 1.35858 0 0)
(3.34819 -1.47349 0 1.4427 0 0)
(3.60986 -1.57933 0 1.53136 0 0)
(3.85792 -1.68491 0 1.62178 0 0)
(4.14138 -1.81179 0 1.71631 0 0)
(4.42024 -1.9423 0 1.81039 0 0)
(4.69326 -2.07718 0 1.90337 0 0)
(4.96776 -2.21577 0 1.9933 0 0)
(5.21246 -2.34572 0 2.07863 0 0)
(5.45408 -2.48137 0 2.16125 0 0)
(5.66397 -2.60247 0 2.23837 0 0)
(5.83371 -2.71761 0 2.31216 0 0)
(5.99762 -2.81602 0 2.37535 0 0)
(6.07222 -2.8964 0 2.43571 0 0)
(6.20501 -2.97163 0 2.48582 0 0)
(6.20426 -3.01156 0 2.53088 0 0)
(6.33084 -3.06642 0 2.57259 0 0)
(6.30625 -3.08262 0 2.6099 0 0)
(6.4586 -3.13648 0 2.65649 0 0)
(6.46524 -3.16014 0 2.70268 0 0)
(6.65142 -3.23186 0 2.77234 0 0)
(6.70474 -3.27785 0 2.84346 0 0)
(6.9026 -3.36642 0 2.94153 0 0)
(6.98153 -3.42309 0 3.03817 0 0)
(7.13964 -3.50349 0 3.15676 0 0)
(7.20118 -3.5433 0 3.26496 0 0)
(7.27778 -3.58074 0 3.38118 0 0)
(7.2776 -3.56881 0 3.47824 0 0)
(7.26843 -3.53975 0 3.5636 0 0)
(7.19184 -3.455 0 3.62849 0 0)
(7.1475 -3.37454 0 3.67276 0 0)
(7.0383 -3.23506 0 3.69991 0 0)
(7.02872 -3.15212 0 3.72658 0 0)
(6.9563 -3.0167 0 3.74813 0 0)
(7.01416 -2.98404 0 3.80464 0 0)
(7.00919 -2.90282 0 3.85108 0 0)
(7.10825 -2.91148 0 3.93605 0 0)
(7.12723 -2.87195 0 3.99558 0 0)
(7.21068 -2.85144 0 4.07111 0 0)
(7.15928 -2.77662 0 4.11058 0 0)
(7.16172 -2.67203 0 4.12257 0 0)
(7.03971 -2.52303 0 4.10834 0 0)
(7.02877 -2.39286 0 4.09926 0 0)
(6.93492 -2.25217 0 4.12268 0 0)
(6.96963 -2.1663 0 4.19278 0 0)
(6.95059 -2.0598 0 4.26379 0 0)
(7.07727 -1.98049 0 4.36995 0 0)
(7.10243 -1.89418 0 4.44617 0 0)
(7.31743 -1.8471 0 4.55692 0 0)
(7.37642 -1.78559 0 4.69323 0 0)
(7.62533 -1.78732 0 4.87232 0 0)
(7.7 -1.71734 0 5.1084 0 0)
(7.85625 -1.6926 0 5.34836 0 0)
(7.89354 -1.55814 0 5.60687 0 0)
(7.88511 -1.46747 0 5.85667 0 0)
(7.85188 -1.31833 0 6.07949 0 0)
(7.81637 -1.23673 0 6.27093 0 0)
(7.80177 -1.1225 0 6.43651 0 0)
(7.78127 -1.07771 0 6.54169 0 0)
(7.84259 -1.00605 0 6.6154 0 0)
(7.85468 -0.947193 0 6.73022 0 0)
(7.95248 -0.91345 0 6.83337 0 0)
(8.00327 -0.833548 0 7.01048 0 0)
(8.18192 -0.79024 0 7.15565 0 0)
(8.24847 -0.702986 0 7.36954 0 0)
(8.46522 -0.697048 0 7.48972 0 0)
(8.5853 -0.66762 0 7.63252 0 0)
(8.7984 -0.626355 0 7.75153 0 0)
(8.96252 -0.589619 0 7.9003 0 0)
(9.11266 -0.54028 0 8.01263 0 0)
(9.28097 -0.511997 0 8.16844 0 0)
(9.3771 -0.453242 0 8.33596 0 0)
(9.52745 -0.388345 0 8.55634 0 0)
(9.45373 -0.319008 0 8.78655 0 0)
(9.51603 -0.216318 0 9.0792 0 0)
(9.30728 -0.109626 0 9.39629 0 0)
(9.28349 -0.0974244 0 9.76829 0 0)
(8.94502 0.0420248 0 10.2125 0 0)
(9.02335 -0.0535878 0 10.5395 0 0)
(8.58222 0.0216348 0 10.7984 0 0)
(8.79346 -0.146401 0 11.0149 0 0)
(8.2707 -0.00801912 0 11.1998 0 0)
(8.61632 -0.191126 0 11.3467 0 0)
(8.0253 -0.0013129 0 11.4662 0 0)
(8.53326 -0.165415 0 11.5633 0 0)
(7.86417 0.0154053 0 11.5866 0 0)
(8.55165 -0.140598 0 11.6517 0 0)
(7.8595 -0.0065221 0 11.6149 0 0)
(8.64043 -0.153293 0 11.7404 0 0)
(7.83322 -0.114242 0 11.7717 0 0)
(8.56746 -0.308801 0 11.9172 0 0)
(7.88963 -0.268102 0 11.9505 0 0)
(8.70863 -0.467654 0 12.038 0 0)
(8.23831 -0.355292 0 12.0941 0 0)
(9.13425 -0.570565 0 12.1919 0 0)
(8.68236 -0.448093 0 12.3337 0 0)
(9.49811 -0.592817 0 12.4955 0 0)
(8.91064 -0.43431 0 12.7256 0 0)
(9.66303 -0.548013 0 12.9271 0 0)
(8.89192 -0.341003 0 13.1453 0 0)
(9.60338 -0.533173 0 13.2524 0 0)
(8.71188 -0.309611 0 13.4078 0 0)
(9.42944 -0.588114 0 13.432 0 0)
(8.51738 -0.370877 0 13.5655 0 0)
(9.2499 -0.642154 0 13.5379 0 0)
(8.32565 -0.466593 0 13.6333 0 0)
(9.07462 -0.63313 0 13.5893 0 0)
(8.16221 -0.452119 0 13.5907 0 0)
(8.90084 -0.514887 0 13.6054 0 0)
(7.95284 -0.362166 0 13.5704 0 0)
(8.73101 -0.341106 0 13.608 0 0)
(7.71732 -0.179359 0 13.5011 0 0)
(8.54199 -0.093003 0 13.6715 0 0)
(7.49388 0.120401 0 13.684 0 0)
(8.25645 0.238664 0 13.9018 0 0)
(7.23802 0.47913 0 13.909 0 0)
(7.94135 0.558661 0 13.9325 0 0)
(7.01383 0.783215 0 13.9059 0 0)
(7.67614 0.929903 0 14.0297 0 0)
(6.69721 1.03971 0 14.1896 0 0)
(7.45839 1.24825 0 14.2515 0 0)
(6.40198 1.22886 0 14.3036 0 0)
(7.27718 1.46749 0 14.3872 0 0)
(6.06208 1.4496 0 14.5541 0 0)
(6.94432 1.54595 0 14.5373 0 0)
(5.80312 1.68273 0 14.7306 0 0)
(6.65164 1.57638 0 14.514 0 0)
(5.529 1.79062 0 14.6569 0 0)
(6.4664 1.62797 0 14.5206 0 0)
(5.34493 1.86277 0 14.6012 0 0)
(6.34716 1.54515 0 14.277 0 0)
(5.22329 1.86604 0 14.4053 0 0)
(6.20026 1.53224 0 14.2437 0 0)
(5.05972 1.78701 0 14.3345 0 0)
(5.8751 1.46195 0 14.4116 0 0)
(4.80249 1.67375 0 14.5755 0 0)
(5.55892 1.31934 0 14.4864 0 0)
(4.56907 1.46621 0 14.5936 0 0)
(5.38091 1.27483 0 14.3889 0 0)
(4.29558 1.25381 0 14.5435 0 0)
(5.15178 1.04142 0 14.3611 0 0)
(4.17114 1.02594 0 14.5163 0 0)
(4.92091 0.755214 0 14.3433 0 0)
(4.17517 0.88265 0 14.2427 0 0)
(4.68829 0.344714 0 14.0327 0 0)
(4.12782 0.633912 0 13.7104 0 0)
(4.45586 0.0298034 0 13.4173 0 0)
(4.04829 0.205259 0 12.8243 0 0)
(4.17844 -0.448688 0 12.4709 0 0)
(4.07996 -0.270863 0 11.744 0 0)
(3.93566 -0.978978 0 11.3172 0 0)
(4.21929 -0.53594 0 10.8513 0 0)
(3.77587 -1.34895 0 10.3416 0 0)
(4.26573 -0.832728 0 9.99187 0 0)
(3.64195 -1.42552 0 9.39866 0 0)