/*--------------------------------*- C++ -*----------------------------------*\
| =========                 |                                                 |
| \\      /  F ield         | OpenFOAM: The Open Source CFD Toolbox           |
|  \\    /   O peration     | Version:  2.4.0                                 |
|   \\  /    A nd           | Web:      www.OpenFOAM.org                      |
|    \\/     M anipulation  |                                                 |
\*---------------------------------------------------------------------------*/
FoamFile
{
    version     2.0;
    format      ascii;
    class       volVectorField;
    location    "82";
    object      U;
}
// * * * * * * * * * * * * * * * * * * * * * * * * * * * * * * * * * * * * * //

dimensions      [0 1 -1 0 0 0 0];

internalField   nonuniform List<vector> 
4400
(
(0.0722244 0.00168779 0)
(0.100902 -0.00224038 0)
(0.111341 -0.00160905 0)
(0.098236 0.00352536 0)
(0.0860588 -0.00133762 0)
(0.0948569 0.000485039 0)
(0.0912067 8.21056e-05 0)
(0.109617 -0.00199103 0)
(0.0961833 0.00211404 0)
(0.0979294 -0.000582925 0)
(0.0998663 -0.000848707 0)
(0.0963354 0.00137679 0)
(0.104884 -0.00143976 0)
(0.0970545 0.00048568 0)
(0.111264 0.000374325 0)
(0.0888423 -0.000839446 0)
(0.126142 2.68171e-05 0)
(0.0783039 0.00124004 0)
(0.147886 0.00469837 0)
(-0.074676 -0.0120497 0)
(0.238396 0.00534479 0)
(0.307706 -0.00823005 0)
(0.276203 -0.0042406 0)
(0.285335 0.011554 0)
(0.264267 -0.0049555 0)
(0.269863 0.00138045 0)
(0.281324 -0.000852658 0)
(0.289814 -0.00590325 0)
(0.275052 0.00694499 0)
(0.282395 -0.00262521 0)
(0.281685 -0.00177541 0)
(0.26886 0.00322152 0)
(0.308426 -0.00381667 0)
(0.25051 0.000671605 0)
(0.331193 0.00224362 0)
(0.228059 -0.00405786 0)
(0.35605 0.00350827 0)
(0.192173 -0.00372662 0)
(0.402727 0.0186026 0)
(0.0888784 -0.0264141 0)
(0.386855 0.00861224 0)
(0.496175 -0.0151111 0)
(0.414309 -0.00523649 0)
(0.456505 0.0194376 0)
(0.444386 -0.00825693 0)
(0.412597 0.00221554 0)
(0.474858 -0.00265804 0)
(0.437047 -0.00912675 0)
(0.453021 0.012573 0)
(0.444796 -0.00588454 0)
(0.455232 -0.000727328 0)
(0.41758 0.00297439 0)
(0.501156 -0.00480219 0)
(0.38197 -0.000144281 0)
(0.529864 0.00460542 0)
(0.365766 -0.00758462 0)
(0.544579 0.00712598 0)
(0.347092 -0.00576302 0)
(0.576554 0.0169151 0)
(0.350927 -0.0190813 0)
(0.51095 0.0101396 0)
(0.669526 -0.0204885 0)
(0.544622 -0.00343228 0)
(0.585225 0.023423 0)
(0.624841 -0.00843048 0)
(0.513866 0.00242311 0)
(0.651413 -0.0050871 0)
(0.565658 -0.0106645 0)
(0.606173 0.0168769 0)
(0.599241 -0.0080668 0)
(0.606776 0.00162035 0)
(0.553961 0.00190264 0)
(0.663117 -0.005197 0)
(0.514322 5.26599e-05 0)
(0.681092 0.00458099 0)
(0.520257 -0.00797749 0)
(0.682245 0.00658278 0)
(0.519848 -0.00352454 0)
(0.695881 0.00622506 0)
(0.560583 -0.0135947 0)
(0.610807 0.0102735 0)
(0.803752 -0.0294103 0)
(0.688753 0.00526911 0)
(0.670764 0.0229906 0)
(0.782955 -0.00805415 0)
(0.599069 0.00538623 0)
(0.76858 -0.012867 0)
(0.683679 -0.00973858 0)
(0.712418 0.0187396 0)
(0.730885 -0.0115931 0)
(0.730703 0.00618229 0)
(0.672533 0.000456128 0)
(0.783936 -0.00652084 0)
(0.640477 0.00262469 0)
(0.785721 0.00183289 0)
(0.656891 -0.00690668 0)
(0.782592 0.0037518 0)
(0.665707 0.000767017 0)
(0.779114 -0.00689612 0)
(0.715943 -0.00525437 0)
(0.705023 0.0127567 0)
(0.881772 -0.0454363 0)
(0.822059 0.0163129 0)
(0.741903 0.0230177 0)
(0.896509 -0.0104823 0)
(0.697573 0.0143832 0)
(0.838903 -0.0236357 0)
(0.78348 -0.00853588 0)
(0.784832 0.0200896 0)
(0.820601 -0.0186552 0)
(0.821311 0.0107846 0)
(0.768891 -5.9431e-05 0)
(0.86615 -0.00933567 0)
(0.7478 0.00697767 0)
(0.858644 -0.0015093 0)
(0.761791 -0.00573582 0)
(0.852738 0.000131931 0)
(0.77539 0.00574389 0)
(0.839739 -0.0178927 0)
(0.821678 0.0009632 0)
(0.796677 0.0181509 0)
(0.927482 -0.0642762 0)
(0.918856 0.0260389 0)
(0.813587 0.025932 0)
(0.967418 -0.0164686 0)
(0.796254 0.0266464 0)
(0.894371 -0.0330976 0)
(0.866841 -0.00725104 0)
(0.845399 0.0229692 0)
(0.884724 -0.026515 0)
(0.883487 0.0142088 0)
(0.844182 0.000109879 0)
(0.920671 -0.0131549 0)
(0.832423 0.0117526 0)
(0.912012 -0.00436495 0)
(0.842792 -0.00435726 0)
(0.904527 -0.00297652 0)
(0.855004 0.0103342 0)
(0.88882 -0.0257365 0)
(0.893064 0.00406504 0)
(0.877315 0.0244343 0)
(0.960298 -0.0810757 0)
(0.978595 0.0339077 0)
(0.881565 0.0304788 0)
(1.00567 -0.0240249 0)
(0.877277 0.038718 0)
(0.939082 -0.0406851 0)
(0.929852 -0.00565664 0)
(0.899206 0.0267966 0)
(0.934347 -0.0329497 0)
(0.927892 0.0169174 0)
(0.902441 0.000677861 0)
(0.955387 -0.0171571 0)
(0.895634 0.0158768 0)
(0.949002 -0.00644456 0)
(0.903135 -0.00351645 0)
(0.943229 -0.00457784 0)
(0.911945 0.0129893 0)
(0.929455 -0.0296739 0)
(0.9402 0.0044439 0)
(0.941312 0.0297504 0)
(0.982994 -0.0932014 0)
(1.00752 0.0399296 0)
(0.938413 0.0350025 0)
(1.01749 -0.0307152 0)
(0.936097 0.0488118 0)
(0.968959 -0.0461821 0)
(0.96824 -0.00411721 0)
(0.941659 0.0300606 0)
(0.967186 -0.0371371 0)
(0.95756 0.0188821 0)
(0.944913 0.00160046 0)
(0.974068 -0.0203453 0)
(0.939523 0.0189141 0)
(0.970645 -0.00755021 0)
(0.943169 -0.00371699 0)
(0.967848 -0.00463908 0)
(0.948735 0.0134334 0)
(0.958919 -0.0306606 0)
(0.966616 0.00317918 0)
(0.986251 0.0328255 0)
(0.992252 -0.0991582 0)
(1.01075 0.0437392 0)
(0.979422 0.0385981 0)
(1.00643 -0.0349882 0)
(0.97317 0.05534 0)
(0.982657 -0.0489085 0)
(0.983455 -0.00264533 0)
(0.969712 0.0318506 0)
(0.980807 -0.0384813 0)
(0.97246 0.0198038 0)
(0.970236 0.00251846 0)
(0.978505 -0.0220311 0)
(0.964912 0.0204667 0)
(0.978304 -0.00755873 0)
(0.964024 -0.0047449 0)
(0.977883 -0.00351388 0)
(0.966738 0.0121442 0)
(0.974233 -0.0298066 0)
(0.974183 0.00121882 0)
(1.01115 0.0328945 0)
(0.983983 -0.0980399 0)
(0.991713 0.0451687 0)
(1.00147 0.0406961 0)
(0.974904 -0.0350621 0)
(0.990054 0.0572605 0)
(0.97966 -0.0485968 0)
(0.978575 -0.000738253 0)
(0.982126 0.0314359 0)
(0.975207 -0.0370179 0)
(0.972671 0.0195178 0)
(0.977172 0.00330789 0)
(0.969257 -0.0219254 0)
(0.971686 0.0204534 0)
(0.972512 -0.00661492 0)
(0.96658 -0.00602082 0)
(0.973321 -0.00177849 0)
(0.967597 0.00980065 0)
(0.973593 -0.0277318 0)
(0.965345 -0.000670668 0)
(1.01527 0.0300144 0)
(0.954532 -0.0902913 0)
(0.953149 0.0439083 0)
(1.0016 0.0402318 0)
(0.925382 -0.0311619 0)
(0.988669 0.0536026 0)
(0.959475 -0.0454786 0)
(0.956213 0.000783723 0)
(0.978062 0.0289175 0)
(0.950974 -0.0331463 0)
(0.957866 0.0180534 0)
(0.964919 0.0038593 0)
(0.945625 -0.0201913 0)
(0.959546 0.0190974 0)
(0.952709 -0.00512199 0)
(0.951089 -0.00711322 0)
(0.954051 -4.50608e-05 0)
(0.952396 0.00703009 0)
(0.955932 -0.0247676 0)
(0.942137 -0.00226221 0)
(0.997348 0.0249413 0)
(0.900651 -0.0771919 0)
(0.898627 0.0395224 0)
(0.976441 0.0376515 0)
(0.860672 -0.0246842 0)
(0.971013 0.0446286 0)
(0.92091 -0.0401257 0)
(0.918588 0.0011902 0)
(0.955911 0.0249246 0)
(0.90808 -0.0273787 0)
(0.926911 0.0154516 0)
(0.932492 0.0040129 0)
(0.906347 -0.017453 0)
(0.928764 0.0166507 0)
(0.917893 -0.00367311 0)
(0.918112 -0.00767652 0)
(0.920014 0.00113645 0)
(0.921434 0.00430477 0)
(0.920664 -0.0212425 0)
(0.905242 -0.00360259 0)
(0.95449 0.0188944 0)
(0.820156 -0.0607235 0)
(0.834221 0.0323748 0)
(0.923959 0.0340936 0)
(0.786236 -0.0174776 0)
(0.939343 0.0320398 0)
(0.861856 -0.0330083 0)
(0.868033 0.000544137 0)
(0.912422 0.0204002 0)
(0.845802 -0.0202836 0)
(0.879048 0.0120669 0)
(0.879388 0.00426896 0)
(0.85174 -0.0142994 0)
(0.881376 0.013433 0)
(0.868044 -0.00245218 0)
(0.868831 -0.00761177 0)
(0.871025 0.00151279 0)
(0.874378 0.00208675 0)
(0.866937 -0.0173591 0)
(0.854609 -0.00477924 0)
(0.880824 0.0136899 0)
(0.715406 -0.0434248 0)
(0.770333 0.0219521 0)
(0.845944 0.0302338 0)
(0.711412 -0.0123603 0)
(0.891862 0.0183145 0)
(0.778117 -0.0242505 0)
(0.805206 -0.00117134 0)
(0.842062 0.016746 0)
(0.764943 -0.0128744 0)
(0.816292 0.00775089 0)
(0.807559 0.00470159 0)
(0.784383 -0.0116175 0)
(0.818891 0.00959268 0)
(0.80222 -0.00141366 0)
(0.801808 -0.00698667 0)
(0.805169 0.00117417 0)
(0.808335 0.000856443 0)
(0.793115 -0.0133998 0)
(0.789188 -0.00603058 0)
(0.769009 0.0112009 0)
(0.603332 -0.0291206 0)
(0.708139 0.00843286 0)
(0.741582 0.0269323 0)
(0.639641 -0.0105856 0)
(0.809535 0.00757422 0)
(0.665383 -0.0145041 0)
(0.725227 -0.00393032 0)
(0.73839 0.0149571 0)
(0.671905 -0.00723663 0)
(0.736525 0.00253864 0)
(0.715288 0.00510133 0)
(0.700801 -0.00983685 0)
(0.733117 0.00597821 0)
(0.712699 -7.60853e-05 0)
(0.710628 -0.00588551 0)
(0.7168 0.000423802 0)
(0.716204 0.00074659 0)
(0.697575 -0.0100423 0)
(0.702352 -0.00698154 0)
(0.624205 0.0108924 0)
(0.505259 -0.0209688 0)
(0.61244 -0.00183411 0)
(0.604189 0.0245536 0)
(0.552948 -0.0100112 0)
(0.668082 0.00357041 0)
(0.536535 -0.00643419 0)
(0.615405 -0.00692954 0)
(0.601198 0.0141053 0)
(0.568655 -0.00486525 0)
(0.620666 -0.00111416 0)
(0.593837 0.00584819 0)
(0.58857 -0.00824956 0)
(0.610804 0.00383241 0)
(0.592238 0.00138067 0)
(0.590883 -0.00481447 0)
(0.598686 -0.000213505 0)
(0.592843 0.00131585 0)
(0.578642 -0.00760231 0)
(0.583498 -0.00655475 0)
(0.467875 0.00904049 0)
(0.399653 -0.0156644 0)
(0.454219 -0.00392462 0)
(0.447323 0.020379 0)
(0.430844 -0.00793066 0)
(0.487949 0.00299512 0)
(0.407439 -0.00277711 0)
(0.462703 -0.0071653 0)
(0.444264 0.0118452 0)
(0.440318 -0.00383673 0)
(0.461793 -0.00154739 0)
(0.448112 0.0054606 0)
(0.444063 -0.00626892 0)
(0.457144 0.00260553 0)
(0.445779 0.00189237 0)
(0.445478 -0.00377842 0)
(0.450722 -0.000368231 0)
(0.443717 0.00163663 0)
(0.436199 -0.00555667 0)
(0.433598 -0.00479582 0)
(0.301796 0.00534064 0)
(0.259392 -0.0087871 0)
(0.265364 -0.00383341 0)
(0.282168 0.0123858 0)
(0.277882 -0.00452708 0)
(0.299917 0.00154499 0)
(0.263427 -0.000928241 0)
(0.280722 -0.00525567 0)
(0.277297 0.0071853 0)
(0.282095 -0.0021191 0)
(0.283502 -0.0015409 0)
(0.284756 0.00373115 0)
(0.277747 -0.00379062 0)
(0.284967 0.00121565 0)
(0.280815 0.00171595 0)
(0.280671 -0.00256733 0)
(0.280338 -0.000304276 0)
(0.277899 0.00142015 0)
(0.272784 -0.00319744 0)
(0.263891 -0.00260787 0)
(0.116523 0.00158702 0)
(0.0962482 -0.00263684 0)
(0.0732604 -0.00172991 0)
(0.0980591 0.00376298 0)
(0.103907 -0.0015106 0)
(0.106028 0.000260862 0)
(0.0979928 -0.000191 0)
(0.0899396 -0.00186884 0)
(0.0955246 0.00220869 0)
(0.102906 -0.000686561 0)
(0.0965089 -0.000740091 0)
(0.102556 0.00126573 0)
(0.0981359 -0.0012368 0)
(0.0976328 0.00030726 0)
(0.100166 0.000669508 0)
(0.0991711 -0.000887641 0)
(0.0951912 -6.8654e-05 0)
(0.0973917 0.000558827 0)
(0.0943681 -0.000917634 0)
(0.0855763 -0.000684432 0)
(0.357471 -0.00163623 0)
(-0.123606 -0.0028968 0)
(0.444549 -0.030151 0)
(0.0951283 0.00410494 0)
(0.281154 -0.023297 0)
(0.299456 0.0226875 0)
(0.276293 -0.0147362 0)
(0.375743 -0.000136353 0)
(0.260185 0.0102563 0)
(0.547489 -0.0588468 0)
(0.307689 -0.0274787 0)
(0.573373 -0.0782942 0)
(0.412575 -0.00117793 0)
(0.45411 -0.0360054 0)
(0.700158 -0.16643 0)
(0.442518 -0.0324927 0)
(0.441143 0.0600818 0)
(0.783045 -0.195475 0)
(0.905059 -0.408837 0)
(0.780774 -0.401116 0)
(0.781012 -0.109588 0)
(0.885569 0.0849961 0)
(1.00843 0.109595 0)
(0.934321 0.105331 0)
(0.938087 -0.0356397 0)
(0.90091 -0.228472 0)
(0.713505 -0.237863 0)
(0.456696 -0.145495 0)
(0.369502 -0.197404 0)
(0.343498 -0.247623 0)
(0.511709 -0.0998081 0)
(0.525909 0.050647 0)
(0.515969 0.120005 0)
(0.590724 0.250418 0)
(0.605819 0.306835 0)
(0.538603 0.18976 0)
(0.588454 0.0354682 0)
(0.70641 -0.0633046 0)
(0.707364 -0.0671138 0)
(0.728785 0.0658558 0)
(0.706773 0.206457 0)
(0.581479 0.218922 0)
(0.500523 0.163977 0)
(0.421539 0.160783 0)
(0.465386 0.0673941 0)
(0.521322 -0.0281193 0)
(0.483291 -0.0439937 0)
(0.566969 -0.151818 0)
(0.635936 -0.258051 0)
(0.577817 -0.264487 0)
(0.505786 -0.213908 0)
(0.482878 -0.139573 0)
(0.490238 -0.0391252 0)
(0.496579 0.055698 0)
(0.51268 0.0999446 0)
(0.524816 0.127776 0)
(0.511492 0.160889 0)
(0.508221 0.167047 0)
(0.497086 0.134895 0)
(0.510598 0.0387162 0)
(0.546208 -0.0926543 0)
(0.530912 -0.168147 0)
(0.505899 -0.160165 0)
(0.485655 -0.109739 0)
(0.481854 -0.0286006 0)
(0.502535 0.067908 0)
(0.509104 0.122962 0)
(0.497597 0.105746 0)
(0.501088 0.0348856 0)
(0.51481 -0.0412864 0)
(0.508608 -0.0774027 0)
(0.501684 -0.0508284 0)
(0.517358 0.0162496 0)
(0.529359 0.0669894 0)
(0.522984 0.0746798 0)
(0.514248 0.0495945 0)
(0.514055 0.0124419 0)
(0.517288 -0.0170543 0)
(0.518311 -0.0290413 0)
(0.515954 -0.0265624 0)
(0.510708 -0.0180975 0)
(0.503857 -0.00980355 0)
(0.49683 -0.00396745 0)
(0.490377 -0.000721742 0)
(0.484455 0.000530234 0)
(0.478632 0.000582497 0)
(0.472494 0.000140567 0)
(0.465884 -0.000333496 0)
(0.458959 -0.000649251 0)
(0.452096 -0.000795871 0)
(0.445732 -0.000826199 0)
(0.440212 -0.000789099 0)
(0.435722 -0.000714846 0)
(0.432274 -0.00061703 0)
(0.429769 -0.000510671 0)
(0.428022 -0.000398628 0)
(0.42688 -0.000303253 0)
(0.426118 -0.000208077 0)
(0.425712 -0.000154722 0)
(0.425358 -8.10542e-05 0)
(0.519561 0.00457173 0)
(0.156636 -0.00404026 0)
(0.481238 -0.0500194 0)
(0.29527 0.0131493 0)
(0.374205 -0.0316427 0)
(0.390496 0.020075 0)
(0.413135 -0.014698 0)
(0.463123 -0.0104774 0)
(0.382512 0.00224991 0)
(0.651989 -0.0667699 0)
(0.443558 -0.0331218 0)
(0.660845 -0.0796891 0)
(0.538842 -0.00596824 0)
(0.56517 -0.0435137 0)
(0.786009 -0.162441 0)
(0.502163 -0.0245918 0)
(0.527388 0.0304958 0)
(0.847677 -0.221696 0)
(0.925796 -0.404282 0)
(0.757304 -0.400034 0)
(0.764883 -0.12423 0)
(0.885161 0.0727271 0)
(1.00126 0.105692 0)
(0.955929 0.107185 0)
(0.944659 -0.0288881 0)
(0.881961 -0.20618 0)
(0.672089 -0.199895 0)
(0.418936 -0.118722 0)
(0.316508 -0.194093 0)
(0.322551 -0.256318 0)
(0.460642 -0.111031 0)
(0.494543 0.0471182 0)
(0.478414 0.118037 0)
(0.5441 0.246277 0)
(0.576311 0.304781 0)
(0.507367 0.187283 0)
(0.588434 0.0234265 0)
(0.703051 -0.0719666 0)
(0.692586 -0.0668143 0)
(0.719328 0.0680231 0)
(0.7085 0.215293 0)
(0.595494 0.232051 0)
(0.530029 0.173577 0)
(0.445219 0.165255 0)
(0.497786 0.0624956 0)
(0.544569 -0.03126 0)
(0.506254 -0.0473842 0)
(0.594294 -0.159582 0)
(0.646593 -0.258262 0)
(0.568826 -0.256637 0)
(0.483296 -0.206665 0)
(0.455547 -0.135706 0)
(0.457895 -0.0387263 0)
(0.465476 0.0534746 0)
(0.487045 0.0976474 0)
(0.504998 0.12732 0)
(0.500947 0.160427 0)
(0.508084 0.166456 0)
(0.501277 0.135137 0)
(0.519241 0.0369973 0)
(0.555813 -0.0937546 0)
(0.532801 -0.166348 0)
(0.497995 -0.157308 0)
(0.472373 -0.107011 0)
(0.464377 -0.0282815 0)
(0.485053 0.0660031 0)
(0.496633 0.121824 0)
(0.490108 0.105706 0)
(0.4982 0.0341459 0)
(0.512636 -0.0418463 0)
(0.504245 -0.0766505 0)
(0.494554 -0.0507753 0)
(0.508241 0.0148776 0)
(0.522189 0.0661014 0)
(0.52062 0.0749898 0)
(0.51676 0.0499844 0)
(0.519274 0.0123433 0)
(0.522496 -0.0172401 0)
(0.522157 -0.0288973 0)
(0.518269 -0.0260321 0)
(0.51178 -0.0173229 0)
(0.50408 -0.00895673 0)
(0.496549 -0.00316295 0)
(0.489839 3.11933e-06 0)
(0.48383 0.00120767 0)
(0.478019 0.00126371 0)
(0.471941 0.000859065 0)
(0.465412 0.00042358 0)
(0.458584 0.000117494 0)
(0.451828 -6.37804e-05 0)
(0.445569 -0.000171092 0)
(0.440138 -0.000239154 0)
(0.435708 -0.00027982 0)
(0.432287 -0.000291295 0)
(0.429782 -0.000278158 0)
(0.428014 -0.00024057 0)
(0.426845 -0.000198932 0)
(0.42605 -0.000144005 0)
(0.425624 -0.000112892 0)
(0.425239 -6.14642e-05 0)
(0.619593 -0.0185024 0)
(0.427252 0.000896998 0)
(0.56354 -0.049987 0)
(0.483615 0.0148572 0)
(0.524812 -0.0304868 0)
(0.494169 0.0126612 0)
(0.570478 -0.0150804 0)
(0.584503 -0.016339 0)
(0.519709 -0.00500043 0)
(0.741916 -0.0755319 0)
(0.577347 -0.0390902 0)
(0.744003 -0.0781204 0)
(0.645649 -0.0132224 0)
(0.665283 -0.0498763 0)
(0.837486 -0.156789 0)
(0.574698 -0.0180418 0)
(0.636527 0.00607033 0)
(0.901999 -0.239283 0)
(0.924879 -0.393611 0)
(0.724125 -0.392544 0)
(0.726732 -0.13943 0)
(0.86585 0.0593742 0)
(0.978006 0.101099 0)
(0.955012 0.107414 0)
(0.930827 -0.0202786 0)
(0.848851 -0.179942 0)
(0.623797 -0.159975 0)
(0.377861 -0.0916081 0)
(0.26617 -0.191908 0)
(0.305356 -0.265336 0)
(0.40669 -0.121586 0)
(0.459641 0.0425902 0)
(0.437684 0.117094 0)
(0.496685 0.24205 0)
(0.53956 0.301603 0)
(0.475979 0.181558 0)
(0.585981 0.00936929 0)
(0.69246 -0.0788998 0)
(0.66754 -0.0654358 0)
(0.699696 0.0693953 0)
(0.702453 0.222154 0)
(0.602976 0.24255 0)
(0.555445 0.18247 0)
(0.466664 0.169503 0)
(0.530195 0.0576337 0)
(0.56649 -0.0334883 0)
(0.529812 -0.0510736 0)
(0.619245 -0.166286 0)
(0.65213 -0.255764 0)
(0.555327 -0.24629 0)
(0.457529 -0.198138 0)
(0.426376 -0.131197 0)
(0.424197 -0.0380523 0)
(0.432394 0.0507717 0)
(0.459035 0.0945484 0)
(0.482262 0.125877 0)
(0.487259 0.158645 0)
(0.504798 0.164878 0)
(0.502089 0.134699 0)
(0.525182 0.0347991 0)
(0.562241 -0.094417 0)
(0.53127 -0.163316 0)
(0.486778 -0.153388 0)
(0.456168 -0.103685 0)
(0.444712 -0.0276403 0)
(0.465366 0.0638494 0)
(0.48126 0.120051 0)
(0.479675 0.104917 0)
(0.492697 0.0329519 0)
(0.507612 -0.042287 0)
(0.49673 -0.0755071 0)
(0.484332 -0.0503291 0)
(0.496117 0.0135401 0)
(0.511715 0.064777 0)
(0.514698 0.0746642 0)
(0.515692 0.0498861 0)
(0.520876 0.012061 0)
(0.524071 -0.0173362 0)
(0.522526 -0.0285728 0)
(0.517333 -0.0253404 0)
(0.509789 -0.0164365 0)
(0.501383 -0.00804257 0)
(0.493463 -0.00232375 0)
(0.4866 0.000737866 0)
(0.48059 0.0018839 0)
(0.474874 0.00193558 0)
(0.468957 0.00156317 0)
(0.462653 0.00116186 0)
(0.456119 0.00086093 0)
(0.449719 0.00064212 0)
(0.443845 0.000457745 0)
(0.438788 0.000287417 0)
(0.434683 0.000136808 0)
(0.431517 2.16471e-05 0)
(0.429193 -5.33363e-05 0)
(0.427543 -8.64054e-05 0)
(0.426444 -9.59232e-05 0)
(0.425684 -7.99916e-05 0)
(0.425276 -7.03856e-05 0)
(0.424896 -4.12225e-05 0)
(0.688372 -0.0292568 0)
(0.61992 0.00169313 0)
(0.654461 -0.0441991 0)
(0.627622 0.00761022 0)
(0.673201 -0.0245648 0)
(0.606864 0.00750236 0)
(0.701456 -0.0209936 0)
(0.698683 -0.0208048 0)
(0.655982 -0.00899888 0)
(0.822102 -0.0801854 0)
(0.686247 -0.0454787 0)
(0.819738 -0.0745283 0)
(0.73379 -0.0198418 0)
(0.752298 -0.0524155 0)
(0.870572 -0.147754 0)
(0.64958 -0.0159333 0)
(0.734282 -0.0143218 0)
(0.936431 -0.249676 0)
(0.90175 -0.378253 0)
(0.682054 -0.378834 0)
(0.670277 -0.154212 0)
(0.825957 0.0438032 0)
(0.938226 0.0948309 0)
(0.931507 0.106422 0)
(0.898304 -0.0104839 0)
(0.803364 -0.150915 0)
(0.569564 -0.118924 0)
(0.331752 -0.0649011 0)
(0.222944 -0.191631 0)
(0.277909 -0.274127 0)
(0.346251 -0.131295 0)
(0.417863 0.0373118 0)
(0.391834 0.116886 0)
(0.449263 0.237902 0)
(0.493777 0.296919 0)
(0.44687 0.172214 0)
(0.575596 -0.00583372 0)
(0.67188 -0.0839227 0)
(0.633543 -0.0630843 0)
(0.669891 0.0697655 0)
(0.68828 0.226696 0)
(0.604144 0.250032 0)
(0.576446 0.190379 0)
(0.486052 0.173171 0)
(0.56168 0.0527406 0)
(0.586579 -0.034849 0)
(0.55329 -0.0550135 0)
(0.64096 -0.171566 0)
(0.65232 -0.250441 0)
(0.537559 -0.233627 0)
(0.428959 -0.188568 0)
(0.395756 -0.126241 0)
(0.389734 -0.0371336 0)
(0.398052 0.0476787 0)
(0.429179 0.0907331 0)
(0.456866 0.123496 0)
(0.470658 0.155576 0)
(0.498443 0.162332 0)
(0.499547 0.133515 0)
(0.52863 0.0320789 0)
(0.565529 -0.0945852 0)
(0.526337 -0.159041 0)
(0.472379 -0.148451 0)
(0.437222 -0.0998419 0)
(0.423068 -0.0267536 0)
(0.443673 0.0614926 0)
(0.463171 0.11769 0)
(0.466516 0.103371 0)
(0.484757 0.031348 0)
(0.499812 -0.0425639 0)
(0.486134 -0.0739642 0)
(0.471072 -0.0495158 0)
(0.481048 0.0122507 0)
(0.498048 0.0630537 0)
(0.505333 0.0737222 0)
(0.511136 0.0492965 0)
(0.51888 0.0116343 0)
(0.522041 -0.0173433 0)
(0.519514 -0.0280921 0)
(0.513264 -0.0245133 0)
(0.504836 -0.0154572 0)
(0.495836 -0.00707534 0)
(0.487614 -0.00146181 0)
(0.480675 0.0014777 0)
(0.47474 0.00255042 0)
(0.469201 0.00258816 0)
(0.463552 0.00223915 0)
(0.457629 0.00186171 0)
(0.451598 0.00155603 0)
(0.445805 0.0012927 0)
(0.440592 0.00102969 0)
(0.436179 0.000761254 0)
(0.432644 0.000509097 0)
(0.429939 0.000300456 0)
(0.42796 0.000147276 0)
(0.426549 5.18308e-05 0)
(0.425605 -2.69779e-06 0)
(0.424943 -2.15119e-05 0)
(0.424587 -3.09814e-05 0)
(0.424246 -2.2181e-05 0)
(0.752377 -0.032858 0)
(0.753879 -0.00421035 0)
(0.74375 -0.0328874 0)
(0.734018 -0.00310962 0)
(0.784145 -0.0208951 0)
(0.709998 0.00612907 0)
(0.806666 -0.0274714 0)
(0.785486 -0.0238262 0)
(0.766337 -0.0121661 0)
(0.887097 -0.0812589 0)
(0.770967 -0.0507914 0)
(0.87867 -0.0706024 0)
(0.798396 -0.0254206 0)
(0.820009 -0.0525286 0)
(0.898352 -0.135966 0)
(0.713869 -0.0173973 0)
(0.801874 -0.0336955 0)
(0.949296 -0.25105 0)
(0.860744 -0.357777 0)
(0.632068 -0.359938 0)
(0.604288 -0.16706 0)
(0.76901 0.0261706 0)
(0.88185 0.0870113 0)
(0.886818 0.104372 0)
(0.84925 -0.00037783 0)
(0.746494 -0.120178 0)
(0.509951 -0.0776448 0)
(0.282728 -0.0396758 0)
(0.188299 -0.192604 0)
(0.234324 -0.28083 0)
(0.275077 -0.140158 0)
(0.367011 0.0311279 0)
(0.34055 0.116555 0)
(0.402493 0.2337 0)
(0.438112 0.290398 0)
(0.419855 0.159289 0)
(0.553871 -0.0211678 0)
(0.639795 -0.0872364 0)
(0.591797 -0.0598293 0)
(0.631264 0.0690857 0)
(0.665378 0.228866 0)
(0.598138 0.254254 0)
(0.591234 0.196987 0)
(0.502694 0.175745 0)
(0.590845 0.0478362 0)
(0.603905 -0.0353997 0)
(0.575656 -0.0591526 0)
(0.658622 -0.175136 0)
(0.647012 -0.24226 0)
(0.515836 -0.218857 0)
(0.398137 -0.178187 0)
(0.364007 -0.121005 0)
(0.355043 -0.0360317 0)
(0.363185 0.0442715 0)
(0.398006 0.0863322 0)
(0.429071 0.120244 0)
(0.451445 0.151243 0)
(0.489093 0.1589 0)
(0.493759 0.131452 0)
(0.529828 0.0289709 0)
(0.565658 -0.0941342 0)
(0.518019 -0.153525 0)
(0.454968 -0.142548 0)
(0.415721 -0.0955756 0)
(0.399648 -0.0256931 0)
(0.420164 0.0589752 0)
(0.442539 0.114788 0)
(0.450908 0.101056 0)
(0.474579 0.0293545 0)
(0.489312 -0.04264 0)
(0.472545 -0.072016 0)
(0.454867 -0.0483581 0)
(0.463129 0.0110183 0)
(0.481313 0.0609685 0)
(0.492672 0.0721879 0)
(0.503234 0.0482218 0)
(0.513342 0.0110737 0)
(0.516502 -0.0172776 0)
(0.513288 -0.0274861 0)
(0.50622 -0.0235758 0)
(0.49703 -0.0144005 0)
(0.487501 -0.00606435 0)
(0.479036 -0.000587114 0)
(0.472084 0.00221233 0)
(0.466296 0.00319813 0)
(0.461025 0.00321043 0)
(0.455773 0.00287145 0)
(0.450408 0.00250211 0)
(0.445108 0.00217661 0)
(0.440182 0.0018589 0)
(0.435891 0.00151557 0)
(0.432365 0.00115556 0)
(0.429608 0.000814164 0)
(0.427532 0.000526829 0)
(0.426025 0.000309761 0)
(0.424948 0.000164115 0)
(0.424224 7.37097e-05 0)
(0.423706 2.68872e-05 0)
(0.423428 2.14497e-06 0)
(0.423151 -5.91571e-06 0)
(0.81243 -0.0303989 0)
(0.846299 -0.0140831 0)
(0.818311 -0.020866 0)
(0.814864 -0.014076 0)
(0.861853 -0.0190263 0)
(0.791124 0.00678179 0)
(0.885184 -0.0340559 0)
(0.849225 -0.0256584 0)
(0.849322 -0.0150384 0)
(0.930513 -0.0806273 0)
(0.834807 -0.0547914 0)
(0.9223 -0.0664018 0)
(0.842304 -0.0287549 0)
(0.867967 -0.0521457 0)
(0.916575 -0.123194 0)
(0.754039 -0.0202064 0)
(0.84378 -0.0492474 0)
(0.941661 -0.244013 0)
(0.804158 -0.333667 0)
(0.574585 -0.337323 0)
(0.53707 -0.177172 0)
(0.69985 0.00727157 0)
(0.809166 0.0780514 0)
(0.823658 0.10138 0)
(0.785504 0.0102731 0)
(0.679763 -0.088358 0)
(0.446223 -0.0369283 0)
(0.23386 -0.0167818 0)
(0.15809 -0.19362 0)
(0.177497 -0.283554 0)
(0.193524 -0.147997 0)
(0.306906 0.0234434 0)
(0.28478 0.11518 0)
(0.355865 0.229724 0)
(0.373872 0.282135 0)
(0.393185 0.143553 0)
(0.519564 -0.0356905 0)
(0.596134 -0.0893086 0)
(0.543288 -0.0559447 0)
(0.585103 0.0674183 0)
(0.634505 0.228395 0)
(0.585807 0.25502 0)
(0.599622 0.20209 0)
(0.516914 0.176829 0)
(0.616719 0.0430461 0)
(0.617616 -0.0351795 0)
(0.596009 -0.0634211 0)
(0.67157 -0.176746 0)
(0.636167 -0.231242 0)
(0.490495 -0.202254 0)
(0.365605 -0.167229 0)
(0.33127 -0.115637 0)
(0.320554 -0.0348561 0)
(0.328488 0.0406187 0)
(0.365982 0.0814981 0)
(0.399118 0.11619 0)
(0.42998 0.145714 0)
(0.476797 0.154615 0)
(0.484887 0.128549 0)
(0.528995 0.0253004 0)
(0.562664 -0.0930442 0)
(0.506379 -0.146798 0)
(0.434768 -0.135753 0)
(0.391852 -0.0909782 0)
(0.374619 -0.0245305 0)
(0.39499 0.0563381 0)
(0.419532 0.111399 0)
(0.433173 0.0979829 0)
(0.462351 0.0269622 0)
(0.476208 -0.0424819 0)
(0.456081 -0.069654 0)
(0.435843 -0.0468721 0)
(0.442487 0.00984597 0)
(0.461634 0.0585545 0)
(0.476905 0.0700777 0)
(0.492144 0.0466943 0)
(0.504335 0.0103468 0)
(0.507641 -0.0171733 0)
(0.504077 -0.0267895 0)
(0.496359 -0.0225476 0)
(0.486445 -0.0132746 0)
(0.476404 -0.00501563 0)
(0.467735 0.000292429 0)
(0.460837 0.00293462 0)
(0.455285 0.00381742 0)
(0.450399 0.00378886 0)
(0.445709 0.00344122 0)
(0.441118 0.00305885 0)
(0.436799 0.00269489 0)
(0.432995 0.0023123 0)
(0.429861 0.00188911 0)
(0.427418 0.00144798 0)
(0.425589 0.0010342 0)
(0.424252 0.000687307 0)
(0.423295 0.000424313 0)
(0.422606 0.000243578 0)
(0.422139 0.000128535 0)
(0.421792 6.21355e-05 0)
(0.421606 2.68359e-05 0)
(0.421408 6.49053e-06 0)
(0.865679 -0.024868 0)
(0.908929 -0.02499 0)
(0.875382 -0.00979615 0)
(0.876293 -0.0231209 0)
(0.914359 -0.0186109 0)
(0.853186 0.00874649 0)
(0.938341 -0.0396657 0)
(0.893071 -0.0268779 0)
(0.909195 -0.0173703 0)
(0.956205 -0.0781789 0)
(0.881575 -0.0575311 0)
(0.949941 -0.0620823 0)
(0.868187 -0.0305093 0)
(0.900965 -0.0516533 0)
(0.922024 -0.109512 0)
(0.773949 -0.0223403 0)
(0.867614 -0.0613467 0)
(0.914854 -0.230182 0)
(0.736684 -0.305209 0)
(0.511037 -0.312674 0)
(0.472824 -0.183488 0)
(0.620276 -0.0112645 0)
(0.720727 0.068214 0)
(0.744737 0.0973277 0)
(0.708902 0.0210947 0)
(0.604497 -0.0562005 0)
(0.37892 0.00192724 0)
(0.188645 0.00325036 0)
(0.128394 -0.192924 0)
(0.114526 -0.281364 0)
(0.109649 -0.154398 0)
(0.239953 0.0138329 0)
(0.226678 0.112262 0)
(0.305652 0.226149 0)
(0.306261 0.272269 0)
(0.364086 0.125789 0)
(0.473188 -0.0487853 0)
(0.542078 -0.0906268 0)
(0.488926 -0.0521119 0)
(0.533192 0.0647887 0)
(0.595145 0.225386 0)
(0.566837 0.252365 0)
(0.600346 0.205329 0)
(0.528122 0.176017 0)
(0.638048 0.0383054 0)
(0.626867 -0.0343729 0)
(0.613704 -0.0677961 0)
(0.679257 -0.176211 0)
(0.619798 -0.217483 0)
(0.461908 -0.184127 0)
(0.331984 -0.155887 0)
(0.297551 -0.110292 0)
(0.286548 -0.0336071 0)
(0.294542 0.0368333 0)
(0.333424 0.0764001 0)
(0.367212 0.111437 0)
(0.406694 0.139055 0)
(0.461586 0.149505 0)
(0.473174 0.124726 0)
(0.526353 0.0211709 0)
(0.556532 -0.0911794 0)
(0.491483 -0.138879 0)
(0.412033 -0.128132 0)
(0.365791 -0.0861303 0)
(0.348078 -0.0233168 0)
(0.368231 0.0536298 0)
(0.394311 0.107541 0)
(0.413678 0.094154 0)
(0.448251 0.0242695 0)
(0.460597 -0.0420333 0)
(0.436897 -0.0668819 0)
(0.414146 -0.0450712 0)
(0.419251 0.00874752 0)
(0.43914 0.0558428 0)
(0.458282 0.0674094 0)
(0.478015 0.0447392 0)
(0.491981 0.0094836 0)
(0.495748 -0.0170572 0)
(0.492135 -0.0260299 0)
(0.48378 -0.0214353 0)
(0.473069 -0.0120779 0)
(0.462497 -0.00393144 0)
(0.453677 0.00117585 0)
(0.446932 0.00363501 0)
(0.441747 0.00439463 0)
(0.437419 0.00430496 0)
(0.433511 0.00392454 0)
(0.429952 0.00350397 0)
(0.42688 0.00308219 0)
(0.424433 0.00262695 0)
(0.422636 0.00212934 0)
(0.421395 0.0016231 0)
(0.420565 0.0011587 0)
(0.420003 0.000775061 0)
(0.419611 0.000486568 0)
(0.419318 0.000287436 0)
(0.41911 0.000159918 0)
(0.418937 8.30376e-05 0)
(0.418843 4.22176e-05 0)
(0.418727 1.4569e-05 0)
(0.910927 -0.018678 0)
(0.94946 -0.034702 0)
(0.916406 -0.000686841 0)
(0.921731 -0.0292815 0)
(0.946014 -0.0193626 0)
(0.899755 0.0111026 0)
(0.970158 -0.0435412 0)
(0.92109 -0.0275854 0)
(0.948622 -0.0190774 0)
(0.966697 -0.0747435 0)
(0.913298 -0.0592726 0)
(0.961363 -0.0573449 0)
(0.879699 -0.030962 0)
(0.919474 -0.0511993 0)
(0.911983 -0.0942204 0)
(0.781977 -0.0246605 0)
(0.875489 -0.0704247 0)
(0.869312 -0.210046 0)
(0.662238 -0.273584 0)
(0.443043 -0.288939 0)
(0.410701 -0.186005 0)
(0.529923 -0.0278959 0)
(0.618709 0.0579067 0)
(0.653894 0.0922668 0)
(0.621379 0.03114 0)
(0.522338 -0.0246523 0)
(0.309902 0.0376903 0)
(0.149638 0.0202868 0)
(0.0987949 -0.189533 0)
(0.0516684 -0.274891 0)
(0.0364627 -0.159505 0)
(0.16857 0.00226266 0)
(0.167818 0.107861 0)
(0.248531 0.223141 0)
(0.241782 0.260798 0)
(0.328508 0.107124 0)
(0.416469 -0.0602286 0)
(0.480234 -0.091683 0)
(0.429766 -0.0488979 0)
(0.477161 0.0611872 0)
(0.548779 0.219664 0)
(0.542541 0.246331 0)
(0.593131 0.206473 0)
(0.536355 0.173069 0)
(0.653996 0.0339988 0)
(0.63128 -0.0330461 0)
(0.628486 -0.0721787 0)
(0.681232 -0.173342 0)
(0.597979 -0.201118 0)
(0.430468 -0.164823 0)
(0.297918 -0.144335 0)
(0.26268 -0.105075 0)
(0.253033 -0.0324419 0)
(0.261623 0.0329972 0)
(0.300374 0.071234 0)
(0.333509 0.106075 0)
(0.382038 0.131345 0)
(0.443417 0.143672 0)
(0.458969 0.119811 0)
(0.522075 0.0166436 0)
(0.547231 -0.0884489 0)
(0.47344 -0.129825 0)
(0.387064 -0.119768 0)
(0.337706 -0.0810875 0)
(0.320014 -0.0220809 0)
(0.33986 0.0508807 0)
(0.367052 0.103223 0)
(0.392839 0.0895521 0)
(0.43245 0.0213251 0)
(0.44258 -0.0412438 0)
(0.415188 -0.0636981 0)
(0.389925 -0.0429946 0)
(0.393504 0.00772805 0)
(0.413959 0.0528461 0)
(0.437113 0.0642054 0)
(0.460952 0.0423904 0)
(0.476504 0.00848085 0)
(0.481207 -0.016973 0)
(0.477651 -0.0252197 0)
(0.46844 -0.0202266 0)
(0.456763 -0.0108014 0)
(0.445653 -0.00281208 0)
(0.436793 0.00205491 0)
(0.430372 0.00429679 0)
(0.425764 0.00490889 0)
(0.422246 0.00473266 0)
(0.41941 0.00429106 0)
(0.417178 0.00380646 0)
(0.415603 0.00331134 0)
(0.414687 0.00278276 0)
(0.414313 0.00222404 0)
(0.41429 0.00167539 0)
(0.414427 0.00118657 0)
(0.414589 0.000791283 0)
(0.414712 0.000498426 0)
(0.414771 0.00029745 0)
(0.414791 0.000169164 0)
(0.41477 9.04206e-05 0)
(0.414757 4.87763e-05 0)
(0.414714 1.84996e-05 0)
(0.945524 -0.0129479 0)
(0.970941 -0.0416152 0)
(0.942505 0.00599754 0)
(0.951626 -0.0324361 0)
(0.95916 -0.0204869 0)
(0.931636 0.0128654 0)
(0.982771 -0.0455056 0)
(0.935581 -0.0281539 0)
(0.968759 -0.0203495 0)
(0.964047 -0.0707301 0)
(0.929935 -0.059964 0)
(0.956041 -0.0519483 0)
(0.879301 -0.0309685 0)
(0.922123 -0.0497056 0)
(0.887076 -0.0783736 0)
(0.781839 -0.027295 0)
(0.866023 -0.074692 0)
(0.807128 -0.184756 0)
(0.583191 -0.23987 0)
(0.372008 -0.267612 0)
(0.347808 -0.185517 0)
(0.431419 -0.0409115 0)
(0.507156 0.0475505 0)
(0.553436 0.0859731 0)
(0.524904 0.0402419 0)
(0.435434 0.00450598 0)
(0.241136 0.0692925 0)
(0.118014 0.0341161 0)
(0.0718477 -0.182969 0)
(-0.00650574 -0.267053 0)
(-0.0175103 -0.164706 0)
(0.0936551 -0.00988378 0)
(0.1086 0.102528 0)
(0.185549 0.219138 0)
(0.184039 0.247729 0)