/*--------------------------------*- C++ -*----------------------------------*\
| =========                 |                                                 |
| \\      /  F ield         | OpenFOAM: The Open Source CFD Toolbox           |
|  \\    /   O peration     | Version:  2.4.0                                 |
|   \\  /    A nd           | Web:      www.OpenFOAM.org                      |
|    \\/     M anipulation  |                                                 |
\*---------------------------------------------------------------------------*/
FoamFile
{
    version     2.0;
    format      ascii;
    class       surfaceScalarField;
    location    "0.25";
    object      phi;
}
// * * * * * * * * * * * * * * * * * * * * * * * * * * * * * * * * * * * * * //

dimensions      [0 3 -1 0 0 0 0];

internalField   nonuniform List<scalar> 
17320
(
1.76356e-05
7.3644e-06
1.16177e-05
6.01789e-06
8.67967e-06
2.93804e-06
7.35405e-06
1.32562e-06
6.72375e-06
6.30305e-07
6.33766e-06
3.86086e-07
6.07457e-06
2.63089e-07
5.8742e-06
2.00367e-07
5.70865e-06
1.65555e-07
5.56574e-06
1.42908e-07
5.48166e-06
8.40812e-08
5.37945e-06
1.02212e-07
5.28953e-06
8.99142e-08
5.19004e-06
9.94987e-08
5.1164e-06
7.36327e-08
4.9906e-06
1.25807e-07
4.86212e-06
1.28472e-07
4.73228e-06
1.29839e-07
4.44826e-06
2.84026e-07
-1.8959e-07
4.63785e-06
2.54573e-05
6.90709e-06
2.32486e-05
8.22662e-06
2.09814e-05
5.20519e-06
1.93183e-05
2.98876e-06
1.80798e-05
1.86876e-06
1.71046e-05
1.36134e-06
1.63666e-05
1.00111e-06
1.5777e-05
7.89899e-07
1.53052e-05
6.37334e-07
1.49185e-05
5.29651e-07
1.4636e-05
3.66547e-07
1.43554e-05
3.82871e-07
1.41256e-05
3.19654e-07
1.38909e-05
3.34195e-07
1.36975e-05
2.67038e-07
1.34354e-05
3.87944e-07
1.3185e-05
3.78894e-07
1.28854e-05
4.29455e-07
1.25723e-05
5.97069e-07
2.1166e-07
1.21711e-05
2.66168e-05
5.2903e-06
2.71613e-05
7.68216e-06
2.67694e-05
5.59709e-06
2.62504e-05
3.50771e-06
2.56062e-05
2.51293e-06
2.48629e-05
2.10468e-06
2.41631e-05
1.70087e-06
2.35058e-05
1.44724e-06
2.29298e-05
1.21334e-06
2.24316e-05
1.02788e-06
2.20383e-05
7.59841e-07
2.16537e-05
7.67422e-07
2.13375e-05
6.35857e-07
2.10259e-05
6.45801e-07
2.07638e-05
5.29175e-07
2.04289e-05
7.22861e-07
2.01426e-05
6.65149e-07
1.97068e-05
8.65271e-07
1.9443e-05
8.60893e-07
9.80638e-07
1.8674e-05
2.6323e-05
3.96726e-06
2.75533e-05
6.4519e-06
2.80694e-05
5.08095e-06
2.84481e-05
3.12908e-06
2.86486e-05
2.31243e-06
2.86147e-05
2.13854e-06
2.84792e-05
1.83643e-06
2.82356e-05
1.6908e-06
2.79683e-05
1.48065e-06
2.76786e-05
1.31759e-06
2.74345e-05
1.00389e-06
2.71488e-05
1.05317e-06
2.69011e-05
8.83568e-07
2.66347e-05
9.12163e-07
2.64131e-05
7.50798e-07
2.6093e-05
1.0429e-06
2.58617e-05
8.96447e-07
2.53878e-05
1.33925e-06
2.49662e-05
1.28243e-06
2.04127e-06
2.39056e-05
2.6045e-05
2.92229e-06
2.72579e-05
5.23897e-06
2.80317e-05
4.30714e-06
2.84851e-05
2.67571e-06
2.89738e-05
1.82373e-06
2.93246e-05
1.78775e-06
2.95899e-05
1.57106e-06
2.97446e-05
1.5361e-06
2.98635e-05
1.36177e-06
2.99064e-05
1.27472e-06
2.99525e-05
9.57786e-07
2.99552e-05
1.05048e-06
2.99443e-05
8.94403e-07
2.98961e-05
9.60435e-07
2.98665e-05
7.80417e-07
2.97593e-05
1.15006e-06
2.96446e-05
1.01114e-06
2.95362e-05
1.44764e-06
2.95441e-05
1.27457e-06
1.86991e-06
2.97154e-05
2.58335e-05
2.08882e-06
2.69791e-05
4.09337e-06
2.78335e-05
3.45271e-06
2.82312e-05
2.27803e-06
2.86947e-05
1.36024e-06
2.90815e-05
1.40093e-06
2.94276e-05
1.22499e-06
2.97145e-05
1.24918e-06
3.00155e-05
1.06077e-06
3.02123e-05
1.07792e-06
3.03907e-05
7.79335e-07
3.05615e-05
8.79716e-07
3.0702e-05
7.53917e-07
3.08266e-05
8.35862e-07
3.09539e-05
6.53083e-07
3.1089e-05
1.01495e-06
3.11374e-05
9.62774e-07
3.1387e-05
1.19805e-06
3.15193e-05
1.14226e-06
1.52438e-06
3.18648e-05
2.56867e-05
1.4021e-06
2.67415e-05
3.03854e-06
2.75844e-05
2.60984e-06
2.80595e-05
1.80296e-06
2.84776e-05
9.42181e-07
2.88488e-05
1.02971e-06
2.91717e-05
9.02055e-07
2.94757e-05
9.45182e-07
2.97774e-05
7.5904e-07
3.0018e-05
8.37379e-07
3.02435e-05
5.53832e-07
3.04416e-05
6.81634e-07
3.05904e-05
6.05115e-07
3.07786e-05
6.47571e-07
3.09578e-05
4.73911e-07
3.11409e-05
8.31868e-07
3.12989e-05
8.04781e-07
3.16644e-05
8.32592e-07
3.18923e-05
9.14288e-07
1.24168e-06
3.2175e-05
2.55501e-05
8.52031e-07
2.65785e-05
2.01006e-06
2.7432e-05
1.75636e-06
2.79954e-05
1.23954e-06
2.83247e-05
6.12959e-07
2.87357e-05
6.18722e-07
2.90176e-05
6.20154e-07
2.92673e-05
6.95463e-07
2.95112e-05
5.15138e-07
2.98833e-05
4.65301e-07
3.01054e-05
3.31694e-07
3.02338e-05
5.53197e-07
3.04005e-05
4.38437e-07
3.0659e-05
3.89094e-07
3.08092e-05
3.23665e-07
3.09708e-05
6.70253e-07
3.11821e-05
5.93571e-07
3.15593e-05
4.55379e-07
3.18045e-05
6.69058e-07
1.13779e-06
3.19084e-05
2.54618e-05
3.90227e-07
2.64987e-05
9.73125e-07
2.73458e-05
9.09267e-07
2.7892e-05
6.93388e-07
2.82302e-05
2.74782e-07
2.86125e-05
2.364e-07
2.88991e-05
3.33532e-07
2.91638e-05
4.30774e-07
2.94388e-05
2.40174e-07
2.97897e-05
1.14391e-07
2.99378e-05
1.83527e-07
3.01316e-05
3.59446e-07
3.03518e-05
2.18236e-07
3.05489e-05
1.92015e-07
3.06818e-05
1.90776e-07
3.08833e-05
4.68727e-07
3.11205e-05
3.56351e-07
3.14279e-05
1.47936e-07
3.16374e-05
4.59562e-07
1.05422e-06
3.1721e-05
2.54276e-05
-3.73436e-08
2.64388e-05
-3.80845e-08
2.72734e-05
7.46462e-08
2.78757e-05
9.11283e-08
2.81889e-05
-3.85056e-08
2.84871e-05
-6.1774e-08
2.88518e-05
-3.10961e-08
2.92074e-05
7.51125e-08
2.94397e-05
7.92023e-09
2.96286e-05
-7.45145e-08
2.98624e-05
-5.02562e-08
3.01489e-05
7.29215e-08
3.02776e-05
8.95375e-08
3.04539e-05
1.56903e-08
3.06492e-05
-4.56387e-09
3.08582e-05
2.59752e-07
3.10909e-05
1.23709e-07
3.13511e-05
-1.12302e-07
3.1554e-05
2.5664e-07
8.75898e-07
3.17323e-05
2.54129e-05
-4.50252e-07
2.63888e-05
-1.01398e-06
2.72979e-05
-8.34486e-07
2.79413e-05
-5.52281e-07
2.81568e-05
-2.53923e-07
2.84531e-05
-3.58112e-07
2.88752e-05
-4.53224e-07
2.9231e-05
-2.80645e-07
2.94077e-05
-1.68814e-07
2.9629e-05
-2.95751e-07
2.99134e-05
-3.34681e-07
3.01034e-05
-1.1714e-07
3.02207e-05
-2.77218e-08
3.04826e-05
-2.46223e-07
3.06635e-05
-1.85452e-07
3.08822e-05
4.10748e-08
3.11501e-05
-1.44253e-07
3.13356e-05
-2.97715e-07
3.15404e-05
5.17462e-08
5.36461e-07
3.18799e-05
2.54547e-05
-9.0492e-07
2.64673e-05
-2.02659e-06
2.73478e-05
-1.715e-06
2.79453e-05
-1.14981e-06
2.82231e-05
-5.3169e-07
2.85496e-05
-6.84628e-07
2.88863e-05
-7.89901e-07
2.9244e-05
-6.38397e-07
2.94835e-05
-4.08233e-07
2.97462e-05
-5.58473e-07
2.99345e-05
-5.23021e-07
3.0132e-05
-3.14652e-07
3.03104e-05
-2.06053e-07
3.05184e-05
-4.54267e-07
3.06709e-05
-3.37914e-07
3.09798e-05
-2.67869e-07
3.12215e-05
-3.85913e-07
3.13639e-05
-4.40188e-07
3.1613e-05
-1.97298e-07
1.63415e-07
3.1986e-05
2.55781e-05
-1.48301e-06
2.6584e-05
-3.0325e-06
2.73689e-05
-2.49987e-06
2.79773e-05
-1.75821e-06
2.83885e-05
-9.42886e-07
2.87287e-05
-1.0249e-06
2.89697e-05
-1.03085e-06
2.92929e-05
-9.61586e-07
2.9598e-05
-7.13351e-07
2.98661e-05
-8.26608e-07
3.00025e-05
-6.59402e-07
3.02491e-05
-5.61208e-07
3.04428e-05
-3.99829e-07
3.06325e-05
-6.43933e-07
3.07889e-05
-4.94327e-07
3.10784e-05
-5.57399e-07
3.12617e-05
-5.69159e-07
3.1489e-05
-6.67459e-07
3.17796e-05
-4.87941e-07
-1.82652e-07
3.21257e-05
2.56852e-05
-2.1682e-06
2.67266e-05
-4.07396e-06
2.75683e-05
-3.34151e-06
2.80675e-05
-2.25746e-06
2.85248e-05
-1.40016e-06
2.88724e-05
-1.3725e-06
2.91524e-05
-1.31086e-06
2.94744e-05
-1.28354e-06
2.97678e-05
-1.00681e-06
3.00189e-05
-1.07769e-06
3.01807e-05
-8.21209e-07
3.04038e-05
-7.84286e-07
3.06077e-05
-6.03767e-07
3.08228e-05
-8.59003e-07
3.09558e-05
-6.27296e-07
3.11932e-05
-7.9484e-07
3.13598e-05
-7.35704e-07
3.16595e-05
-9.67179e-07
3.19142e-05
-7.42699e-07
-5.26766e-07
3.22584e-05
2.58338e-05
-3.00205e-06
2.6934e-05
-5.17408e-06
2.78175e-05
-4.225e-06
2.82707e-05
-2.71072e-06
2.87219e-05
-1.85138e-06
2.90913e-05
-1.74186e-06
2.94413e-05
-1.66092e-06
2.97209e-05
-1.56305e-06
2.99769e-05
-1.26287e-06
3.01737e-05
-1.27447e-06
3.03654e-05
-1.01295e-06
3.05408e-05
-9.59697e-07
3.07269e-05
-7.89778e-07
3.08598e-05
-9.91911e-07
3.09707e-05
-7.38263e-07
3.11237e-05
-9.47813e-07
3.12212e-05
-8.33183e-07
3.14284e-05
-1.17438e-06
3.15951e-05
-9.09434e-07
-9.18193e-07
3.19865e-05
2.60221e-05
-4.02416e-06
2.72323e-05
-6.38422e-06
2.80504e-05
-5.04309e-06
2.85224e-05
-3.18281e-06
2.89889e-05
-2.31783e-06
2.93286e-05
-2.08155e-06
2.95829e-05
-1.91525e-06
2.97176e-05
-1.69772e-06
2.98495e-05
-1.39478e-06
2.98939e-05
-1.31887e-06
2.99538e-05
-1.07283e-06
2.99581e-05
-9.64004e-07
2.99795e-05
-8.11219e-07
2.99173e-05
-9.29693e-07
2.98883e-05
-7.09283e-07
2.98179e-05
-8.77403e-07
2.97383e-05
-7.53614e-07
2.96919e-05
-1.12796e-06
2.96611e-05
-8.78598e-07
-1.09861e-06
2.98415e-05
2.62944e-05
-5.31855e-06
2.75515e-05
-7.64132e-06
2.80905e-05
-5.58209e-06
2.84571e-05
-3.54944e-06
2.86454e-05
-2.50607e-06
2.86263e-05
-2.06247e-06
2.84665e-05
-1.75546e-06
2.82213e-05
-1.45253e-06
2.79773e-05
-1.15075e-06
2.76854e-05
-1.02696e-06
2.74277e-05
-8.15148e-07
2.71671e-05
-7.03367e-07
2.69359e-05
-5.80102e-07
2.6659e-05
-6.52782e-07
2.64484e-05
-4.98636e-07
2.61844e-05
-6.13455e-07
2.59594e-05
-5.2855e-07
2.56604e-05
-8.29025e-07
2.54804e-05
-6.98589e-07
-1.05089e-06
2.54327e-05
2.65996e-05
-6.91814e-06
2.71684e-05
-8.21015e-06
2.67817e-05
-5.1954e-06
2.6245e-05
-3.01273e-06
2.5605e-05
-1.86606e-06
2.4877e-05
-1.33444e-06
2.41505e-05
-1.02902e-06
2.34985e-05
-8.00511e-07
2.2944e-05
-5.96274e-07
2.24423e-05
-5.25167e-07
2.20315e-05
-4.04433e-07
2.16766e-05
-3.48456e-07
2.13735e-05
-2.77013e-07
2.10592e-05
-3.38424e-07
2.0814e-05
-2.53415e-07
2.05247e-05
-3.24197e-07
2.02821e-05
-2.85961e-07
1.99022e-05
-4.49086e-07
1.9591e-05
-3.87398e-07
-2.84588e-07
1.88247e-05
2.5449e-05
-7.36711e-06
2.32536e-05
-6.0148e-06
2.09902e-05
-2.93201e-06
1.93125e-05
-1.33498e-06
1.80782e-05
-6.31753e-07
1.71161e-05
-3.72429e-07
1.63592e-05
-2.72063e-07
1.57699e-05
-2.11188e-07
1.5319e-05
-1.45389e-07
1.49321e-05
-1.38319e-07
1.46305e-05
-1.02758e-07
1.4374e-05
-9.19949e-08
1.41623e-05
-6.53471e-08
1.39279e-05
-1.0403e-07
1.37456e-05
-7.10911e-08
1.3523e-05
-1.01608e-07
1.33242e-05
-8.70912e-08
1.30259e-05
-1.50782e-07
1.28192e-05
-1.80696e-07
1.3411e-08
1.25212e-05
1.76329e-05
1.16181e-05
8.68609e-06
7.35111e-06
6.71936e-06
6.34693e-06
6.07487e-06
5.86368e-06
5.71829e-06
5.57997e-06
5.47721e-06
5.38522e-06
5.31987e-06
5.21584e-06
5.14475e-06
5.04314e-06
4.95605e-06
4.80527e-06
4.62457e-06
4.63798e-06
5.04765e-06
1.73749e-07
-5.83553e-07
5.49731e-06
4.80962e-07
-9.30616e-07
6.01394e-06
5.86713e-07
-1.10334e-06
6.61898e-06
5.94028e-07
-1.19907e-06
7.19855e-06
5.46677e-07
-1.12625e-06
7.64609e-06
4.57316e-07
-9.04853e-07
7.97759e-06
3.77824e-07
-7.09326e-07
8.26006e-06
3.15752e-07
-5.98227e-07
8.52413e-06
2.83503e-07
-5.47567e-07
8.74091e-06
2.27124e-07
-4.43911e-07
8.92712e-06
1.10217e-07
-2.96419e-07
9.0832e-06
-2.51485e-08
-1.30931e-07
9.21564e-06
-1.48282e-07
1.58326e-08
9.3378e-06
-2.90092e-07
1.67939e-07
9.44902e-06
-4.31163e-07
3.19942e-07
9.55357e-06
-5.75199e-07
4.70648e-07
9.65842e-06
-6.99233e-07
5.94382e-07
9.77709e-06
-8.45102e-07
7.26427e-07
9.88598e-06
-9.60824e-07
8.5194e-07
9.95077e-06
-1.12809e-06
1.0633e-06
9.94364e-06
-1.25081e-06
1.25794e-06
9.88241e-06
-1.4102e-06
1.47143e-06
9.77009e-06
-1.46103e-06
1.57335e-06
9.66919e-06
-1.45581e-06
1.55671e-06
9.57553e-06
-1.22284e-06
1.3165e-06
9.47646e-06
-1.04036e-06
1.13944e-06
9.55685e-06
-7.35287e-07
6.5489e-07
9.55568e-06
-4.5118e-07
4.5235e-07
9.71015e-06
-1.92621e-07
3.81494e-08
1.0019e-05
2.79213e-07
-5.88033e-07
1.03492e-05
4.82842e-07
-8.13061e-07
1.08328e-05
5.98293e-07
-1.0819e-06
1.13517e-05
6.45958e-07
-1.16486e-06
1.1836e-05
6.32804e-07
-1.11711e-06
1.21891e-05
5.63917e-07
-9.16966e-07
1.25359e-05
4.03096e-07
-7.49985e-07
1.28665e-05
3.76223e-07
-7.06767e-07
1.31085e-05
3.50538e-07
-5.92527e-07
1.3361e-05
2.55031e-07
-5.07533e-07
1.35796e-05
2.97007e-07
-5.15584e-07
1.37623e-05
2.78147e-07
-4.60854e-07
1.40164e-05
2.6493e-07
-5.19097e-07
1.4287e-05
3.49579e-07
-6.20131e-07
1.45708e-05
3.88446e-07
-6.72253e-07
1.49136e-05
4.79533e-07
-8.22351e-07
1.53468e-05
5.28843e-07
-9.61988e-07
1.58255e-05
5.52688e-07
-1.03139e-06
1.63323e-05
5.59735e-07
-1.06662e-06
1.69067e-05
4.55495e-07
-1.02983e-06
1.75248e-05
3.71806e-07
-9.89954e-07
1.8204e-05
1.59549e-07
-8.38712e-07
1.89128e-05
-5.37716e-08
-6.54995e-07
1.9631e-05
-4.02096e-07
-3.16138e-07
2.03682e-05
-7.81661e-07
4.44744e-08
2.1174e-05
-1.2162e-06
4.10411e-07
2.20146e-05
-1.69392e-06
8.53311e-07
2.2896e-05
-2.26412e-06
1.38273e-06
2.38802e-05
-2.9162e-06
1.93194e-06
2.48904e-05
-3.51099e-06
2.50085e-06
2.60136e-05
-4.30257e-06
3.17933e-06
2.71897e-05
-5.08998e-06
3.91388e-06
2.83716e-05
-5.98938e-06
4.80748e-06
2.95499e-05
-6.94714e-06
5.7688e-06
3.06181e-05
-7.98102e-06
6.91287e-06
3.15779e-05
-9.07802e-06
8.11816e-06
3.22992e-05
-1.00815e-05
9.3603e-06
3.27312e-05
-1.09838e-05
1.05518e-05
3.28522e-05
-1.17353e-05
1.16143e-05
3.26697e-05
-1.22301e-05
1.24127e-05
3.21309e-05
-1.2447e-05
1.29858e-05
3.13224e-05
-1.22983e-05
1.31068e-05
3.0401e-05
-1.19784e-05
1.28998e-05
2.93199e-05
-1.14823e-05
1.25633e-05
2.81958e-05
-1.08828e-05
1.2007e-05
2.70897e-05
-1.01373e-05
1.12434e-05
2.60655e-05
-9.47139e-06
1.04956e-05
2.51773e-05
-8.88575e-06
9.77398e-06
2.43712e-05
-8.19822e-06
9.00425e-06
2.3691e-05
-7.64687e-06
8.32708e-06
2.31034e-05
-7.22926e-06
7.81693e-06
2.24972e-05
-6.68989e-06
7.29608e-06
2.19718e-05
-6.27351e-06
6.79888e-06
2.15693e-05
-6.14778e-06
6.55026e-06
2.08993e-05
-5.60942e-06
6.27944e-06
2.01818e-05
-4.99332e-06
5.71079e-06
1.9861e-05
-5.43829e-06
5.75915e-06
1.9207e-05
-5.73552e-06
6.38947e-06
1.76825e-05
-4.70054e-06
6.22505e-06
1.6729e-05
-4.77458e-06
5.72805e-06
1.66769e-05
-6.92342e-06
6.9756e-06
1.55725e-05
-7.52735e-06
8.6317e-06
1.24259e-05
-5.16217e-06
8.3088e-06
8.96739e-06
-3.08906e-06
6.54756e-06
6.91722e-06
-4.34227e-06
6.39245e-06
6.36325e-06
-8.5164e-06
9.07036e-06
6.84795e-06
-1.36831e-05
1.31984e-05
8.24399e-06
-1.85238e-05
1.71277e-05
1.04078e-05
-2.17914e-05
1.96276e-05
1.27902e-05
-2.30167e-05
2.06344e-05
1.51459e-05
-2.23345e-05
1.99787e-05
1.73318e-05
-2.05538e-05
1.83678e-05
1.93693e-05
-1.80153e-05
1.59778e-05
2.1248e-05
-1.50576e-05
1.31789e-05
2.30898e-05
-1.18348e-05
9.993e-06
2.47145e-05
-8.30546e-06
6.68074e-06
2.62066e-05
-4.75499e-06
3.26289e-06
2.76781e-05
-1.11781e-06
-3.5362e-07
2.90793e-05
2.4727e-06
-3.8739e-06
3.02326e-05
5.94297e-06
-7.09627e-06
3.11045e-05
9.2689e-06
-1.01409e-05
3.18414e-05
1.21143e-05
-1.28511e-05
3.2807e-05
1.46146e-05
-1.55801e-05
3.393e-05
1.70741e-05
-1.81971e-05
3.4953e-05
1.94595e-05
-2.04826e-05
3.55434e-05
2.15432e-05
-2.21336e-05
3.55534e-05
2.29119e-05
-2.29219e-05
3.52623e-05
2.34999e-05
-2.32088e-05
3.48403e-05
2.35325e-05
-2.31104e-05
3.45242e-05
2.31381e-05
-2.28221e-05
3.43294e-05
2.25144e-05
-2.23196e-05
3.40827e-05
2.1732e-05
-2.14852e-05
3.36905e-05
2.06163e-05
-2.02242e-05
3.30489e-05
1.93663e-05
-1.87247e-05
3.22916e-05
1.76942e-05
-1.69369e-05
3.15324e-05
1.58594e-05
-1.51002e-05
3.0648e-05
1.4063e-05
-1.31786e-05
2.98432e-05
1.19769e-05
-1.11721e-05
2.91003e-05
9.87212e-06
-9.12922e-06
2.85373e-05
7.80283e-06
-7.23985e-06
2.80296e-05
5.95438e-06
-5.44666e-06
2.7489e-05
3.43262e-06
-2.89199e-06
2.72315e-05
1.43348e-06
-1.17599e-06
2.68637e-05
-2.78835e-07
6.46549e-07
2.67526e-05
-3.39322e-06
3.5044e-06
2.6445e-05
-4.96609e-06
5.27368e-06
2.59436e-05
-6.30565e-06
6.80703e-06
2.51959e-05
-8.63869e-06
9.3864e-06
2.44152e-05
-8.77847e-06
9.55918e-06
2.36304e-05
-9.98881e-06
1.07736e-05
2.27764e-05
-1.01473e-05
1.10013e-05
2.20265e-05
-9.25011e-06
1e-05
2.14795e-05
-9.88312e-06
1.04301e-05
2.11957e-05
-1.03092e-05
1.0593e-05
2.08043e-05
-9.81544e-06
1.02068e-05
2.04359e-05
-8.85091e-06
9.21929e-06
2.00333e-05
-6.44773e-06
6.85031e-06
2.00787e-05
-5.49334e-06
5.44798e-06
1.93257e-05
-3.08454e-06
3.83756e-06
1.97231e-05
-4.74013e-06
4.34267e-06
1.99857e-05
-7.2246e-06
6.96208e-06
2.05783e-05
-1.2453e-05
1.18604e-05
2.05392e-05
-1.58243e-05
1.58634e-05
2.09664e-05
-2.04932e-05
2.00661e-05
2.11885e-05
-2.3686e-05
2.34639e-05
2.10403e-05
-2.53285e-05
2.54767e-05
2.08866e-05
-2.5608e-05
2.57617e-05
2.03801e-05
-2.40404e-05
2.45469e-05
1.97507e-05
-2.09055e-05
2.15349e-05
1.92968e-05
-1.59734e-05
1.64273e-05
1.88436e-05
-1.01566e-05
1.06098e-05
1.85056e-05
-6.03256e-06
6.37053e-06
1.83267e-05
-1.60328e-06
1.78218e-06
1.82864e-05
3.20946e-06
-3.16907e-06
1.82842e-05
7.89733e-06
-7.89523e-06
1.81536e-05
1.21626e-05
-1.20319e-05
1.83423e-05
1.69993e-05
-1.71879e-05
1.82968e-05
2.26498e-05
-2.26044e-05
1.80519e-05
2.64914e-05
-2.62465e-05
1.74736e-05
2.77688e-05
-2.71906e-05
1.63045e-05
2.74986e-05
-2.63295e-05
1.52503e-05
2.63002e-05
-2.52459e-05
1.38348e-05
2.50127e-05
-2.35972e-05
1.19854e-05
2.23709e-05
-2.05214e-05
1.04318e-05
1.97925e-05
-1.82389e-05
8.72229e-06
1.85555e-05
-1.6846e-05
7.7935e-06
1.65061e-05
-1.55774e-05
7.59203e-06
1.50509e-05
-1.48494e-05
7.32154e-06
1.346e-05
-1.31895e-05
7.77768e-06
1.10141e-05
-1.14702e-05
8.09324e-06
9.2485e-06
-9.56406e-06
8.54391e-06
6.82209e-06
-7.27276e-06
9.05684e-06
5.39054e-06
-5.90347e-06
9.43155e-06
3.82291e-06
-4.19762e-06
1.00617e-05
2.61951e-06
-3.24971e-06
1.07264e-05
1.28501e-06
-1.94968e-06
1.15425e-05
8.16905e-07
-1.63297e-06
1.23566e-05
4.88063e-07
-1.3022e-06
1.27406e-05
9.2866e-07
-1.31262e-06
1.30835e-05
8.23545e-07
-1.16646e-06
1.28007e-05
9.63009e-07
-6.80209e-07
1.26444e-05
5.54333e-07
-3.9804e-07
1.20631e-05
1.65417e-06
-1.07285e-06
1.20712e-05
1.65785e-06
-1.66594e-06
1.1921e-05
3.09106e-06
-2.94088e-06
1.27649e-05
3.65084e-06
-4.49473e-06
1.29942e-05
7.36759e-06
-7.5969e-06
1.37801e-05
9.50519e-06
-1.02911e-05
1.35487e-05
1.45988e-05
-1.43674e-05
1.41762e-05
1.60343e-05
-1.66618e-05
2.26779e-05
-2.19329e-05
1.34313e-05
1.21719e-05
1.7287e-07
1.23339e-05
3.18979e-07
1.25594e-05
3.61268e-07
1.28249e-05
3.28523e-07
1.3095e-05
2.76513e-07
1.33195e-05
2.32884e-07
1.35055e-05
1.91833e-07
1.36573e-05
1.63894e-07
1.38097e-05
1.31109e-07
1.39655e-05
7.12948e-08
1.40964e-05
-2.06102e-08
1.42184e-05
-1.472e-07
1.43518e-05
-2.81628e-07
1.44864e-05
-4.24723e-07
1.46201e-05
-5.64817e-07
1.47695e-05
-7.24608e-07
1.49145e-05
-8.44289e-07
1.50723e-05
-1.00287e-06
1.5221e-05
-1.1095e-06
1.53371e-05
-1.24419e-06
1.54217e-05
-1.33549e-06
1.54321e-05
-1.42061e-06
1.54078e-05
-1.43665e-06
1.53224e-05
-1.37046e-06
1.53174e-05
-1.21787e-06
1.52594e-05
-9.82272e-07
1.53059e-05
-7.8179e-07
1.52968e-05
-4.42105e-07
1.53235e-05
-2.19288e-07
1.55284e-05
7.42567e-08
1.56705e-05
3.40703e-07
1.58224e-05
4.46446e-07
1.59685e-05
4.99838e-07
1.61331e-05
4.68208e-07
1.62567e-05
4.40334e-07
1.63239e-05
3.35901e-07
1.64508e-05
2.493e-07
1.65843e-05
2.17098e-07
1.6685e-05
1.54264e-07
1.6829e-05
1.5306e-07
1.6982e-05
1.25068e-07
1.71645e-05
8.24304e-08
1.7412e-05
1.02105e-07
1.77333e-05
6.71838e-08
1.80994e-05
1.13463e-07
1.8527e-05
1.01183e-07
1.90694e-05
1.02726e-08
1.96121e-05
1.70471e-08
2.02387e-05
-1.71041e-07
2.09231e-05
-3.12628e-07
2.16304e-05
-5.4777e-07
2.24223e-05
-8.45705e-07
2.32366e-05
-1.21634e-06
2.40802e-05
-1.62527e-06
2.49961e-05
-2.13207e-06
2.59619e-05
-2.65973e-06
2.69178e-05
-3.22009e-06
2.79443e-05
-3.94267e-06
2.89911e-05
-4.55777e-06
3.00593e-05
-5.37078e-06
3.10992e-05
-6.12983e-06
3.20767e-05
-6.96692e-06
3.29803e-05
-7.85074e-06
3.36898e-05
-8.69057e-06
3.42041e-05
-9.59227e-06
3.44292e-05
-1.03066e-05
3.43446e-05
-1.08992e-05
3.39588e-05
-1.13495e-05
3.32816e-05
-1.15529e-05
3.23398e-05
-1.15052e-05
3.12548e-05
-1.12133e-05
3.00971e-05
-1.08207e-05
2.89337e-05
-1.03189e-05
2.78191e-05
-9.76825e-06
2.68522e-05
-9.1703e-06
2.60748e-05
-8.69398e-06
2.53366e-05
-8.1476e-06
2.46185e-05
-7.48012e-06
2.40432e-05
-7.07152e-06
2.35616e-05
-6.74769e-06
2.29684e-05
-6.09672e-06
2.25239e-05
-5.829e-06
2.19704e-05
-5.59421e-06
2.10085e-05
-4.6476e-06
2.03725e-05
-4.35731e-06
2.0029e-05
-5.09479e-06
1.86465e-05
-4.35298e-06
1.70734e-05
-3.12743e-06
1.68852e-05
-4.58646e-06
1.63434e-05
-6.38154e-06
1.35671e-05
-4.75113e-06
9.536e-06
-1.13104e-06
6.23406e-06
2.1288e-07
4.52005e-06
-2.62827e-06
4.23243e-06
-8.22877e-06
4.97097e-06
-1.44216e-05
6.50031e-06
-2.00531e-05
8.61396e-06
-2.39051e-05
1.09871e-05
-2.53899e-05
1.33239e-05
-2.46713e-05
1.54324e-05
-2.26623e-05
1.74009e-05
-1.99838e-05
1.91636e-05
-1.68203e-05
2.08933e-05
-1.35645e-05
2.2389e-05
-9.80119e-06
2.38456e-05
-6.21155e-06
2.51499e-05
-2.4221e-06
2.64913e-05
1.13125e-06
2.78155e-05
4.61876e-06
2.90271e-05
8.05731e-06
2.98907e-05
1.12507e-05
3.06788e-05
1.38264e-05
3.16028e-05
1.61501e-05
3.27652e-05
1.82971e-05
3.39074e-05
2.04011e-05
3.45432e-05
2.22761e-05
3.47215e-05
2.33216e-05
3.45737e-05
2.36803e-05
3.42979e-05
2.34139e-05
3.40199e-05
2.27924e-05
3.38832e-05
2.18687e-05
3.37671e-05
2.07324e-05
3.35787e-05
1.95547e-05
3.32324e-05
1.80406e-05
3.28368e-05
1.6255e-05
3.23398e-05
1.456e-05
3.17213e-05
1.25954e-05
3.11244e-05
1.0469e-05
3.058e-05
8.34723e-06
3.01803e-05
6.35412e-06
2.96164e-05
3.99648e-06
2.93452e-05
1.70477e-06
2.86707e-05
3.95633e-07
2.8321e-05
-3.0435e-06
2.75763e-05
-4.22143e-06
2.68921e-05
-5.62149e-06
2.56333e-05
-7.37983e-06
2.47583e-05
-7.90351e-06
2.36188e-05
-8.84929e-06
2.27593e-05
-9.2878e-06
2.17809e-05
-8.27165e-06
2.12026e-05
-9.30487e-06
2.07017e-05
-9.80834e-06
2.0721e-05
-9.83477e-06
2.00665e-05
-8.19638e-06
2.00612e-05
-6.44238e-06
1.96963e-05
-5.12848e-06
1.90769e-05
-2.46509e-06
1.96413e-05
-5.3046e-06
2.00025e-05
-7.58582e-06
2.03511e-05
-1.28015e-05
2.02491e-05
-1.57223e-05
2.08485e-05
-2.10927e-05
2.05411e-05
-2.33786e-05
2.03565e-05
-2.51439e-05
1.99503e-05
-2.52018e-05
1.95636e-05
-2.36537e-05
1.88579e-05
-2.01998e-05
1.80447e-05
-1.51602e-05
1.78183e-05
-9.93027e-06
1.72361e-05
-5.45028e-06
1.71651e-05
-1.53231e-06
1.69388e-05
3.43573e-06
1.72456e-05
7.59053e-06
1.72171e-05
1.21911e-05
1.74101e-05
1.68063e-05
1.77236e-05
2.23363e-05
1.76537e-05
2.65614e-05
1.72079e-05
2.82146e-05
1.64459e-05
2.82605e-05
1.53082e-05
2.74379e-05
1.45441e-05
2.57768e-05
1.30931e-05
2.38218e-05
1.14507e-05
2.1435e-05
1.05403e-05
1.94659e-05
9.42762e-06
1.76188e-05
9.13428e-06
1.53442e-05
8.92925e-06
1.3665e-05
9.06246e-06
1.08809e-05
9.36103e-06
8.94994e-06
9.88378e-06
6.29933e-06
1.04521e-05
4.82218e-06
1.13898e-05
2.8852e-06
1.20585e-05
1.9509e-06
1.31056e-05
2.37835e-07
1.36143e-05
3.0822e-07
1.4769e-05
-6.66624e-07
1.53386e-05
3.59028e-07
1.63792e-05
-2.1707e-07
1.65138e-05
8.28491e-07
1.65905e-05
4.77552e-07
1.5585e-05
2.6597e-06
1.53206e-05
1.92223e-06
1.45204e-05
3.89129e-06
1.52676e-05
2.90361e-06
1.50327e-05
7.60248e-06
1.66515e-05
7.88639e-06
1.62493e-05
1.50011e-05
2.07209e-05
1.15626e-05
2.2729e-05
2.06698e-05
1.86703e-05
1.76521e-07
1.88983e-05
9.09635e-08
1.9178e-05
8.16476e-08
1.94245e-05
8.20238e-08
1.95917e-05
1.09305e-07
1.97052e-05
1.19341e-07
1.97894e-05
1.07617e-07
1.98681e-05
8.52426e-08
1.99557e-05
4.34615e-08
2.00558e-05
-2.87772e-08
2.01557e-05
-1.20464e-07
2.02419e-05
-2.33432e-07
2.03359e-05
-3.7564e-07
2.04276e-05
-5.16396e-07
2.0525e-05
-6.62283e-07
2.0632e-05
-8.31562e-07
2.07381e-05
-9.50437e-07
2.08536e-05
-1.11831e-06
2.09567e-05
-1.21264e-06
2.10424e-05
-1.32982e-06
2.11009e-05
-1.39404e-06
2.11012e-05
-1.4209e-06
2.10879e-05
-1.42336e-06
2.1042e-05
-1.32453e-06
2.10262e-05
-1.20208e-06
2.10195e-05
-9.75619e-07
2.10073e-05
-7.69601e-07
2.10555e-05
-4.90255e-07
2.1095e-05
-2.5882e-07
2.11881e-05
-1.88094e-08
2.13298e-05
1.98982e-07
2.14215e-05
3.54739e-07
2.14874e-05
4.33999e-07
2.15533e-05
4.02311e-07
2.1589e-05
4.04583e-07
2.16223e-05
3.02605e-07
2.16141e-05
2.57484e-07
2.16684e-05
1.62769e-07
2.17303e-05
9.2456e-08
2.17966e-05
8.67487e-08
2.19229e-05
-1.29103e-09
2.20538e-05
-4.84216e-08
2.22371e-05
-8.11835e-08
2.24798e-05
-1.75514e-07
2.2829e-05
-2.35803e-07
2.31878e-05
-2.57537e-07
2.36635e-05
-4.65432e-07
2.41909e-05
-5.10383e-07
2.47602e-05
-7.40382e-07
2.54278e-05
-9.80189e-07
2.61045e-05
-1.22447e-06
2.68756e-05
-1.61684e-06
2.76609e-05
-2.00167e-06
2.8501e-05
-2.46531e-06
2.93388e-05
-2.96989e-06
3.02373e-05
-3.55827e-06
3.11174e-05
-4.1001e-06
3.1984e-05
-4.80928e-06
3.2839e-05
-5.41285e-06
3.36449e-05
-6.17665e-06
3.43555e-05
-6.84044e-06
3.49639e-05
-7.57527e-06
3.53942e-05
-8.28106e-06
3.56422e-05
-8.93855e-06
3.56048e-05
-9.55494e-06
3.53091e-05
-1.00109e-05
3.47374e-05
-1.03275e-05
3.39341e-05
-1.05462e-05
3.29242e-05
-1.05431e-05
3.18367e-05
-1.04177e-05
3.06884e-05
-1.00649e-05
2.964e-05
-9.77241e-06
2.87013e-05
-9.38015e-06
2.78178e-05
-8.8848e-06
2.70938e-05
-8.44632e-06
2.64499e-05
-8.05008e-06
2.58047e-05
-7.50239e-06
2.5267e-05
-6.94242e-06
2.49085e-05
-6.71296e-06
2.43109e-05
-6.15008e-06
2.35918e-05
-5.3777e-06
2.31177e-05
-5.35482e-06
2.22863e-05
-4.76289e-06
2.12368e-05
-3.59805e-06
2.0876e-05
-3.99655e-06
2.00625e-05
-4.28122e-06
1.81449e-05
-2.43538e-06
1.7272e-05
-2.25457e-06
1.70707e-05
-4.38514e-06
1.4931e-05
-4.24181e-06
1.09759e-05
-7.96042e-07
6.94655e-06
2.8983e-06
4.29797e-06
2.86145e-06
3.53649e-06
-1.86679e-06
3.81471e-06
-8.50698e-06
4.38489e-06
-1.49918e-05
5.21499e-06
-2.08832e-05
6.74288e-06
-2.5433e-05
8.78385e-06
-2.74309e-05
1.09419e-05
-2.68293e-05
1.3015e-05
-2.47353e-05
1.49005e-05
-2.18694e-05
1.67212e-05
-1.86409e-05
1.84033e-05
-1.52466e-05
1.99292e-05
-1.1327e-05
2.13021e-05
-7.58445e-06
2.27011e-05
-3.82112e-06
2.3862e-05
-2.96314e-08
2.51403e-05
3.34039e-06
2.63549e-05
6.84273e-06
2.75744e-05
1.00312e-05
2.84906e-05
1.29103e-05
2.9271e-05
1.53696e-05
3.01894e-05
1.73787e-05
3.14511e-05
1.91394e-05
3.26409e-05
2.10863e-05
3.3419e-05
2.25435e-05
3.37437e-05
2.33556e-05
3.37479e-05
2.34096e-05
3.35306e-05
2.30097e-05
3.3404e-05
2.19953e-05
3.32712e-05
2.08652e-05
3.3221e-05
1.96049e-05
3.31044e-05
1.81572e-05
3.29475e-05
1.64119e-05
3.27795e-05
1.4728e-05
3.24107e-05
1.29642e-05
3.21172e-05
1.07625e-05
3.15898e-05
8.87466e-06
3.1278e-05
6.66587e-06
3.0789e-05
4.48549e-06
3.03152e-05
2.17854e-06
2.95719e-05
1.13901e-06
2.88457e-05
-2.31729e-06
2.77804e-05
-3.15615e-06
2.68375e-05
-4.67858e-06
2.561e-05
-6.15241e-06
2.47157e-05
-7.00917e-06
2.35479e-05
-7.68152e-06
2.27148e-05
-8.45469e-06
2.17637e-05
-7.32055e-06
2.11406e-05
-8.68171e-06
2.05845e-05
-9.25229e-06
2.07074e-05
-9.95769e-06
1.98941e-05
-7.38306e-06
2.02057e-05
-6.75392e-06
1.91207e-05
-4.04348e-06
1.90585e-05
-2.40296e-06
1.93712e-05
-5.61724e-06
1.97928e-05
-8.00742e-06
1.98579e-05
-1.28667e-05
1.98868e-05
-1.57512e-05
2.03128e-05
-2.15187e-05
1.94773e-05
-2.25431e-05
1.91625e-05
-2.48291e-05
1.85444e-05
-2.45837e-05
1.80862e-05
-2.31955e-05
1.75274e-05
-1.9641e-05
1.67275e-05
-1.43603e-05
1.61349e-05
-9.33771e-06
1.58878e-05
-5.20316e-06
1.58603e-05
-1.50477e-06
1.58352e-05
3.46075e-06
1.57953e-05
7.63045e-06
1.5907e-05
1.20794e-05
1.60582e-05
1.66551e-05
1.65113e-05
2.18832e-05
1.66051e-05
2.64675e-05
1.68095e-05
2.80102e-05
1.67709e-05
2.82991e-05
1.58526e-05
2.83562e-05
1.50645e-05
2.65649e-05
1.41385e-05
2.47479e-05
1.27413e-05
2.28322e-05
1.21413e-05
2.00659e-05
1.14478e-05
1.83123e-05
1.12832e-05
1.55088e-05
1.15672e-05
1.33811e-05
1.21406e-05
1.03075e-05
1.22924e-05
8.79808e-06
1.27718e-05
5.81993e-06
1.27846e-05
4.80941e-06
1.37009e-05
1.96889e-06
1.41767e-05
1.47511e-06
1.51237e-05
-7.09212e-07
1.53523e-05
7.97059e-08
1.54781e-05
-7.92463e-07
1.53363e-05
5.00772e-07
1.54707e-05
-3.51473e-07
1.51717e-05
1.12754e-06
1.49849e-05
6.64346e-07
1.44029e-05
3.2417e-06
1.45346e-05
1.79049e-06
1.38327e-05
4.59322e-06
1.50989e-05
1.63744e-06
1.49211e-05
7.78022e-06
1.8157e-05
4.65057e-06
1.82736e-05
1.48844e-05
2.15581e-05
8.27821e-06
1.99412e-05
2.43459e-05
2.40704e-05
1.17586e-08
2.45382e-05
-3.76889e-07
2.49583e-05
-3.38444e-07
2.52191e-05
-1.78799e-07
2.53736e-05
-4.51763e-08
2.54406e-05
5.23812e-08
2.54547e-05
9.35042e-08
2.5459e-05
8.09733e-08
2.55065e-05
-4.062e-09
2.55568e-05
-7.90602e-08
2.56248e-05
-1.88539e-07
2.56794e-05
-2.88042e-07
2.57408e-05
-4.36981e-07
2.57957e-05
-5.71292e-07
2.58505e-05
-7.17073e-07
2.59122e-05
-8.93305e-07
2.59578e-05
-9.95982e-07
2.60172e-05
-1.1777e-06
2.60476e-05
-1.24312e-06
2.6076e-05
-1.35819e-06
2.60759e-05
-1.39398e-06
2.60529e-05
-1.39783e-06
2.60123e-05
-1.38282e-06
2.59732e-05
-1.28537e-06
2.59251e-05
-1.15406e-06
2.59001e-05
-9.50564e-07
2.5904e-05
-7.73512e-07
2.5904e-05
-4.90295e-07
2.59753e-05
-3.30072e-07
2.60293e-05
-7.27858e-08
2.61429e-05
8.53154e-08
2.62594e-05
2.38269e-07
2.63209e-05
3.72529e-07
2.64137e-05
3.09489e-07
2.6433e-05
3.85312e-07
2.65073e-05
2.28234e-07
2.65305e-05
2.3435e-07
2.65588e-05
1.3445e-07
2.66527e-05
-1.4286e-09
2.672e-05
1.93769e-08
2.68649e-05
-1.46136e-07
2.69822e-05
-1.65701e-07
2.71765e-05
-2.7552e-07
2.73872e-05
-3.8618e-07
2.76794e-05
-5.28063e-07
2.80299e-05
-6.08034e-07
2.84189e-05
-8.54456e-07
2.88874e-05
-9.78853e-07
2.93809e-05
-1.23386e-06
2.99557e-05
-1.555e-06
3.05363e-05
-1.80508e-06
3.11743e-05
-2.25483e-06
3.18189e-05
-2.64632e-06
3.24982e-05
-3.14451e-06
3.31301e-05
-3.60188e-06
3.38049e-05
-4.23302e-06
3.44222e-05
-4.71741e-06
3.4992e-05
-5.37908e-06
3.55095e-05
-5.93038e-06
3.59142e-05
-6.58127e-06
3.62162e-05
-7.14248e-06
3.63442e-05
-7.70323e-06
3.62948e-05
-8.23172e-06
3.60683e-05
-8.71203e-06
3.56002e-05
-9.08682e-06
3.49309e-05
-9.34161e-06
3.41496e-05
-9.54623e-06
3.32294e-05
-9.62599e-06
3.22564e-05
-9.57016e-06
3.1332e-05
-9.49327e-06
3.04529e-05
-9.18576e-06
2.97176e-05
-9.03716e-06
2.9011e-05
-8.67359e-06
2.82982e-05
-8.17195e-06
2.77611e-05
-7.90927e-06
2.72603e-05
-7.54928e-06
2.66566e-05
-6.89861e-06
2.62263e-05
-6.51215e-06
2.56981e-05
-6.18474e-06
2.4902e-05
-5.354e-06
2.43714e-05
-4.8471e-06
2.38768e-05
-4.86019e-06
2.27371e-05
-3.62328e-06
2.19019e-05
-2.76278e-06
2.16299e-05
-3.72455e-06
2.00632e-05
-2.71454e-06
1.83559e-05
-7.28091e-07
1.78564e-05
-1.7551e-06
1.64471e-05
-2.97585e-06
1.32394e-05
-1.03404e-06
9.19235e-06
3.25096e-06
5.67907e-06
6.41158e-06
3.98547e-06
4.55505e-06
3.84142e-06
-1.72274e-06
4.08712e-06
-8.75268e-06
4.23028e-06
-1.5135e-05
4.5766e-06
-2.12295e-05
5.56079e-06
-2.64172e-05
7.15246e-06
-2.90225e-05
9.0626e-06
-2.87395e-05
1.08267e-05
-2.64994e-05
1.25363e-05
-2.3579e-05
1.42111e-05
-2.03158e-05
1.57085e-05
-1.6744e-05
1.72026e-05
-1.28211e-05
1.8517e-05