/*--------------------------------*- C++ -*----------------------------------*\
| =========                 |                                                 |
| \\      /  F ield         | OpenFOAM: The Open Source CFD Toolbox           |
|  \\    /   O peration     | Version:  2.4.0                                 |
|   \\  /    A nd           | Web:      www.OpenFOAM.org                      |
|    \\/     M anipulation  |                                                 |
\*---------------------------------------------------------------------------*/
FoamFile
{
    version     2.0;
    format      ascii;
    class       surfaceScalarField;
    location    "0.43";
    object      phi;
}
// * * * * * * * * * * * * * * * * * * * * * * * * * * * * * * * * * * * * * //

dimensions      [0 3 -1 0 0 0 0];

internalField   nonuniform List<scalar> 
17320
(
1.76334e-05
7.36662e-06
1.16182e-05
6.0152e-06
8.68646e-06
2.93172e-06
7.35017e-06
1.33629e-06
6.71888e-06
6.31285e-07
6.3466e-06
3.72281e-07
6.07378e-06
2.72818e-07
5.86718e-06
2.06603e-07
5.7202e-06
1.46979e-07
5.57475e-06
1.45452e-07
5.48236e-06
9.23882e-08
5.38857e-06
9.37877e-08
5.30703e-06
8.15408e-08
5.22227e-06
8.47659e-08
5.14789e-06
7.43738e-08
5.0451e-06
1.02795e-07
4.95005e-06
9.50484e-08
4.88369e-06
6.63611e-08
4.64067e-06
2.43016e-07
-4.5409e-07
5.09476e-06
2.54513e-05
6.91533e-06
2.32537e-05
8.21283e-06
2.09912e-05
5.19416e-06
1.93104e-05
3.01713e-06
1.80773e-05
1.86441e-06
1.71133e-05
1.33627e-06
1.6362e-05
1.0241e-06
1.57748e-05
7.93797e-07
1.53199e-05
6.01818e-07
1.49283e-05
5.37131e-07
1.46396e-05
3.81015e-07
1.43692e-05
3.64186e-07
1.4153e-05
2.97751e-07
1.39335e-05
3.04342e-07
1.37455e-05
2.62281e-07
1.35221e-05
3.2623e-07
1.33208e-05
2.96359e-07
1.31164e-05
2.70749e-07
1.29289e-05
4.30514e-07
-3.82871e-07
1.28577e-05
2.66046e-05
5.31069e-06
2.71682e-05
7.64931e-06
2.67838e-05
5.57852e-06
2.62431e-05
3.55788e-06
2.56039e-05
2.50355e-06
2.48697e-05
2.07053e-06
2.41555e-05
1.73827e-06
2.35063e-05
1.44304e-06
2.29425e-05
1.16558e-06
2.24421e-05
1.03753e-06
2.20463e-05
7.76853e-07
2.16647e-05
7.45741e-07
2.13666e-05
5.95845e-07
2.10659e-05
6.05081e-07
2.08109e-05
5.17283e-07
2.05162e-05
6.2085e-07
2.02884e-05
5.24209e-07
1.99381e-05
6.21057e-07
1.98055e-05
5.63085e-07
1.93138e-07
1.92295e-05
2.63033e-05
4.00739e-06
2.75621e-05
6.39051e-06
2.80917e-05
5.04886e-06
2.84452e-05
3.20444e-06
2.86411e-05
2.30764e-06
2.86154e-05
2.09618e-06
2.84692e-05
1.88448e-06
2.82353e-05
1.67696e-06
2.79732e-05
1.42765e-06
2.7688e-05
1.32282e-06
2.74525e-05
1.01233e-06
2.71554e-05
1.04286e-06
2.69239e-05
8.27328e-07
2.66702e-05
8.58758e-07
2.64446e-05
7.4286e-07
2.61645e-05
9.00968e-07
2.59911e-05
6.9764e-07
2.55845e-05
1.02761e-06
2.53095e-05
8.38068e-07
1.21992e-06
2.42828e-05
2.60179e-05
2.9895e-06
2.72428e-05
5.16556e-06
2.80882e-05
4.20355e-06
2.85346e-05
2.75803e-06
2.89519e-05
1.8903e-06
2.92859e-05
1.76214e-06
2.95581e-05
1.61229e-06
2.97305e-05
1.50463e-06
2.98482e-05
1.30991e-06
2.99099e-05
1.26111e-06
2.99887e-05
9.33524e-07
2.99698e-05
1.06177e-06
2.99536e-05
8.43502e-07
2.99247e-05
8.87682e-07
2.98811e-05
7.86525e-07
2.97919e-05
9.90093e-07
2.97426e-05
7.46978e-07
2.96682e-05
1.10198e-06
2.97083e-05
7.9798e-07
8.53293e-07
3.00749e-05
2.58082e-05
2.18134e-06
2.69416e-05
4.03216e-06
2.78374e-05
3.30769e-06
2.83303e-05
2.26512e-06
2.87259e-05
1.49476e-06
2.90524e-05
1.43559e-06
2.94192e-05
1.24553e-06
2.97235e-05
1.20035e-06
2.99765e-05
1.05682e-06
3.01715e-05
1.06613e-06
3.04221e-05
6.82899e-07
3.05962e-05
8.87722e-07
3.07053e-05
7.34418e-07
3.0843e-05
7.49954e-07
3.09672e-05
6.62299e-07
3.10918e-05
8.65495e-07
3.12046e-05
6.34233e-07
3.14233e-05
8.83238e-07
3.15635e-05
6.57822e-07
4.44316e-07
3.19725e-05
2.57625e-05
1.41889e-06
2.66385e-05
3.15612e-06
2.74669e-05
2.47928e-06
2.81417e-05
1.59028e-06
2.86244e-05
1.01214e-06
2.87717e-05
1.28822e-06
2.91026e-05
9.14688e-07
2.95214e-05
7.81525e-07
2.97193e-05
8.58903e-07
2.98884e-05
8.97076e-07
3.02093e-05
3.61992e-07
3.0553e-05
5.43984e-07
3.06848e-05
6.02614e-07
3.07954e-05
6.3934e-07
3.09394e-05
5.18355e-07
3.11752e-05
6.2971e-07
3.13349e-05
4.74494e-07
3.1594e-05
6.24145e-07
3.18111e-05
4.40738e-07
3.88926e-08
3.22165e-05
2.55026e-05
9.1628e-07
2.65218e-05
2.13694e-06
2.74387e-05
1.56239e-06
2.80782e-05
9.50722e-07
2.83604e-05
7.29966e-07
2.86341e-05
1.01449e-06
2.89981e-05
5.5069e-07
2.94014e-05
3.78266e-07
2.95629e-05
6.97355e-07
2.97419e-05
7.18082e-07
3.00057e-05
9.82407e-08
3.0358e-05
1.91704e-07
3.04996e-05
4.60988e-07
3.06351e-05
5.03875e-07
3.07744e-05
3.78975e-07
3.10618e-05
3.42337e-07
3.12009e-05
3.35437e-07
3.14484e-05
3.76614e-07
3.17189e-05
1.70201e-07
-1.74863e-07
3.19327e-05
2.54951e-05
4.21217e-07
2.65138e-05
1.11824e-06
2.73111e-05
7.65069e-07
2.79924e-05
2.69419e-07
2.82082e-05
5.14169e-07
2.85142e-05
7.08516e-07
2.89034e-05
1.61482e-07
2.92922e-05
-1.0591e-08
2.95156e-05
4.73931e-07
2.97247e-05
5.09036e-07
2.99036e-05
-8.07183e-08
3.00781e-05
1.72928e-08
3.03211e-05
2.17959e-07
3.05438e-05
2.81112e-07
3.07661e-05
1.5673e-07
3.09878e-05
1.20627e-07
3.1167e-05
1.56291e-07
3.13373e-05
2.0625e-07
3.15451e-05
-3.76169e-08
-3.75543e-07
3.17458e-05
2.53603e-05
6.09398e-08
2.64049e-05
7.3609e-08
2.73751e-05
-2.05077e-07
2.7855e-05
-2.10573e-07
2.81711e-05
1.98126e-07
2.84134e-05
4.66207e-07
2.87843e-05
-2.09436e-07
2.92478e-05
-4.74084e-07
2.94887e-05
2.33047e-07
2.97285e-05
2.69238e-07
2.98834e-05
-2.35601e-07
3.00669e-05
-1.66181e-07
3.01558e-05
1.28977e-07
3.0443e-05
-6.01231e-09
3.07376e-05
-1.37906e-07
3.09692e-05
-1.10992e-07
3.10905e-05
3.4953e-08
3.13166e-05
-1.97651e-08
3.15481e-05
-2.69184e-07
-4.85186e-07
3.16578e-05
2.54408e-05
-3.79875e-07
2.66015e-05
-1.08711e-06
2.72551e-05
-8.58653e-07
2.7787e-05
-7.42461e-07
2.81503e-05
-1.65149e-07
2.85911e-05
2.5406e-08
2.88843e-05
-5.02675e-07
2.9095e-05
-6.84747e-07
2.94638e-05
-1.35789e-07
2.97981e-05
-6.50374e-08
2.98865e-05
-3.24059e-07
2.99786e-05
-2.58222e-07
3.02287e-05
-1.21111e-07
3.05059e-05
-2.83253e-07
3.06554e-05
-2.87365e-07
3.08448e-05
-3.00426e-07
3.11476e-05
-2.67862e-07
3.14154e-05
-2.87576e-07
3.15773e-05
-4.31075e-07
-5.27129e-07
3.16193e-05
2.55064e-05
-8.86322e-07
2.65099e-05
-2.0906e-06
2.72576e-05
-1.60628e-06
2.77752e-05
-1.26008e-06
2.83069e-05
-6.9684e-07
2.8692e-05
-3.59741e-07
2.88451e-05
-6.55726e-07
2.91496e-05
-9.89317e-07
2.94297e-05
-4.15897e-07
2.97664e-05
-4.01663e-07
2.99729e-05
-5.30573e-07
3.01567e-05
-4.42e-07
3.03455e-05
-3.09929e-07
3.05574e-05
-4.95217e-07
3.06718e-05
-4.01761e-07
3.08473e-05
-4.75922e-07
3.11067e-05
-5.27251e-07
3.14174e-05
-5.98198e-07
3.16172e-05
-6.30971e-07
-6.61279e-07
3.17514e-05
2.55461e-05
-1.43241e-06
2.6645e-05
-3.18956e-06
2.74419e-05
-2.40311e-06
2.7993e-05
-1.81125e-06
2.82883e-05
-9.92068e-07
2.8674e-05
-7.45478e-07
2.90804e-05
-1.06209e-06
2.93148e-05
-1.2237e-06
2.95181e-05
-6.19255e-07
2.99019e-05
-7.8542e-07
3.00899e-05
-7.18574e-07
3.02325e-05
-5.8459e-07
3.04001e-05
-4.77525e-07
3.06643e-05
-7.59477e-07
3.07684e-05
-5.05864e-07
3.09748e-05
-6.8233e-07
3.12049e-05
-7.5732e-07
3.15227e-05
-9.16015e-07
3.1764e-05
-8.72231e-07
-8.54597e-07
3.19573e-05
2.57055e-05
-2.13792e-06
2.67543e-05
-4.23837e-06
2.75674e-05
-3.21618e-06
2.79952e-05
-2.2391e-06
2.84573e-05
-1.45411e-06
2.89016e-05
-1.18979e-06
2.9244e-05
-1.40449e-06
2.94832e-05
-1.46291e-06
2.97137e-05
-8.49773e-07
3.00112e-05
-1.0829e-06
3.02364e-05
-9.43788e-07
3.03848e-05
-7.33037e-07
3.05562e-05
-6.48835e-07
3.08097e-05
-1.01298e-06
3.09517e-05
-6.47954e-07
3.11504e-05
-8.80938e-07
3.13469e-05
-9.53896e-07
3.16701e-05
-1.23916e-06
3.18695e-05
-1.07166e-06
-1.1e-06
3.21149e-05
2.58591e-05
-2.99707e-06
2.69121e-05
-5.29135e-06
2.77618e-05
-4.06582e-06
2.82659e-05
-2.74326e-06
2.87537e-05
-1.94193e-06
2.91279e-05
-1.56391e-06
2.94693e-05
-1.74596e-06
2.96925e-05
-1.68603e-06
2.99417e-05
-1.09903e-06
3.01827e-05
-1.3239e-06
3.03912e-05
-1.15223e-06
3.05365e-05
-8.7831e-07
3.0697e-05
-8.09383e-07
3.08382e-05
-1.15412e-06
3.09527e-05
-7.62542e-07
3.10825e-05
-1.01067e-06
3.11838e-05
-1.0552e-06
3.13861e-05
-1.44152e-06
3.1502e-05
-1.18752e-06
-1.34537e-06
3.17474e-05
2.60306e-05
-4.02771e-06
2.71899e-05
-6.45064e-06
2.80496e-05
-4.92551e-06
2.85392e-05
-3.23282e-06
2.89748e-05
-2.37754e-06
2.93428e-05
-1.9319e-06
2.96e-05
-2.00313e-06
2.97001e-05
-1.78621e-06
2.98564e-05
-1.25533e-06
2.99036e-05
-1.37106e-06
2.99396e-05
-1.18824e-06
2.99424e-05
-8.8106e-07
2.99563e-05
-8.23361e-07
2.98836e-05
-1.08134e-06
2.98601e-05
-7.39099e-07
2.97704e-05
-9.20965e-07
2.9666e-05
-9.50803e-07
2.95752e-05
-1.35076e-06
2.94703e-05
-1.08258e-06
-1.40978e-06
2.95347e-05
2.62924e-05
-5.32008e-06
2.75183e-05
-7.67662e-06
2.81086e-05
-5.5158e-06
2.84559e-05
-3.58012e-06
2.86266e-05
-2.54822e-06
2.86586e-05
-1.96393e-06
2.8465e-05
-1.80951e-06
2.81987e-05
-1.51988e-06
2.7997e-05
-1.05369e-06
2.76795e-05
-1.05357e-06
2.73984e-05
-9.07117e-07
2.71631e-05
-6.45761e-07
2.69196e-05
-5.7985e-07
2.66105e-05
-7.7227e-07
2.64016e-05
-5.30208e-07
2.61167e-05
-6.36022e-07
2.58401e-05
-6.74215e-07
2.54808e-05
-9.91433e-07
2.52295e-05
-8.31311e-07
-1.26757e-06
2.50873e-05
2.65974e-05
-6.91745e-06
2.71499e-05
-8.22917e-06
2.67985e-05
-5.16433e-06
2.62399e-05
-3.02153e-06
2.55903e-05
-1.89866e-06
2.49036e-05
-1.27724e-06
2.41436e-05
-1.04953e-06
2.34773e-05
-8.53571e-07
2.29601e-05
-5.36415e-07
2.24356e-05
-5.2911e-07
2.20018e-05
-4.73297e-07
2.16697e-05
-3.13658e-07
2.1356e-05
-2.66131e-07
2.10032e-05
-4.19519e-07
2.07514e-05
-2.78378e-07
2.0443e-05
-3.27653e-07
2.01419e-05
-3.73074e-07
1.97017e-05
-5.5126e-07
1.93334e-05
-4.62996e-07
-4.31735e-07
1.84976e-05
2.54485e-05
-7.36596e-06
2.32418e-05
-6.02244e-06
2.1e-05
-2.92252e-06
1.93117e-05
-1.33325e-06
1.80641e-05
-6.5105e-07
1.71346e-05
-3.47807e-07
1.63583e-05
-2.73153e-07
1.57477e-05
-2.42971e-07
1.53294e-05
-1.18102e-07
1.49322e-05
-1.31973e-07
1.45997e-05
-1.40743e-07
1.43628e-05
-7.67851e-08
1.41497e-05
-5.30661e-08
1.38723e-05
-1.42124e-07
1.36783e-05
-8.43685e-08
1.34459e-05
-9.52448e-08
1.31939e-05
-1.21045e-07
1.28357e-05
-1.93115e-07
1.25729e-05
-2.002e-07
-5.42621e-08
1.21955e-05
1.7634e-05
1.16116e-05
8.68908e-06
7.35583e-06
6.70478e-06
6.35697e-06
6.08382e-06
5.84085e-06
5.72275e-06
5.59077e-06
5.45003e-06
5.37324e-06
5.32018e-06
5.17805e-06
5.09369e-06
4.99844e-06
4.8774e-06
4.68428e-06
4.48408e-06
4.42982e-06
5.57755e-06
-2.42104e-07
-2.40684e-07
5.97557e-06
-9.3323e-08
-3.04694e-07
6.28472e-06
-9.1981e-08
-2.17174e-07
6.58577e-06
-1.56597e-07
-1.44455e-07
6.87313e-06
-2.2202e-07
-6.53351e-08
7.12335e-06
-2.48545e-07
-1.67667e-09
7.30575e-06
-2.50371e-07
6.79703e-08
7.43409e-06
-2.27798e-07
9.94622e-08
7.52559e-06
-2.11663e-07
1.20157e-07
7.60061e-06
-1.86438e-07
1.11417e-07
7.6495e-06
-1.77927e-07
1.29038e-07
7.68849e-06
-1.78191e-07
1.39199e-07
7.68843e-06
-1.68174e-07
1.68238e-07
7.70168e-06
-1.46661e-07
1.33416e-07
7.7152e-06
-3.63743e-08
2.28474e-08
7.74905e-06
8.34066e-08
-1.17255e-07
7.8422e-06
2.03725e-07
-2.9687e-07
8.00859e-06
3.38765e-07
-5.05159e-07
8.2426e-06
4.73244e-07
-7.07252e-07
8.51754e-06
5.41761e-07
-8.16703e-07
8.84249e-06
5.80533e-07
-9.05483e-07
9.21142e-06
6.03857e-07
-9.7279e-07
9.59195e-06
5.67352e-07
-9.47881e-07
9.94774e-06
4.915e-07
-8.47292e-07
1.02571e-05
3.64244e-07
-6.73591e-07
1.05022e-05
2.09844e-07
-4.54984e-07
1.06531e-05
2.09031e-08
-1.71809e-07
1.07292e-05
-1.62932e-07
8.6903e-08
1.07507e-05
-3.41796e-07
3.2023e-07
1.0698e-05
-4.92441e-07
5.45191e-07
1.06411e-05
-6.10624e-07
6.67545e-07
1.05929e-05
-6.8277e-07
7.309e-07
1.05506e-05
-7.04754e-07
7.47065e-07
1.05532e-05
-7.06458e-07
7.03851e-07
1.05797e-05
-6.76926e-07
6.50491e-07
1.06438e-05
-6.59464e-07
5.95347e-07
1.07392e-05
-6.0869e-07
5.13273e-07
1.08372e-05
-5.96823e-07
4.98851e-07
1.09442e-05
-5.60027e-07
4.53027e-07
1.1059e-05
-5.46838e-07
4.32033e-07
1.11644e-05
-5.24297e-07
4.18863e-07
1.12515e-05
-5.37371e-07
4.50232e-07
1.13062e-05
-5.39236e-07
4.84574e-07
1.13363e-05
-5.3488e-07
5.04767e-07
1.13848e-05
-5.27074e-07
4.78598e-07
1.13673e-05
-4.79066e-07
4.96574e-07
1.13648e-05
-4.2797e-07
4.30459e-07
1.13355e-05
-2.86928e-07
3.16268e-07
1.13873e-05
-1.44436e-07
9.25827e-08
1.1496e-05
6.23705e-08
-1.71081e-07
1.16181e-05
1.94642e-07
-3.16722e-07
1.18178e-05
3.0901e-07
-5.0871e-07
1.19666e-05
3.65591e-07
-5.14427e-07
1.21624e-05
3.2577e-07
-5.21576e-07
1.22904e-05
3.31387e-07
-4.59379e-07
1.24009e-05
1.75502e-07
-2.85979e-07
1.25592e-05
1.73988e-07
-3.32302e-07
1.25972e-05
9.90167e-08
-1.36993e-07
1.27498e-05
4.78534e-08
-2.00449e-07
1.28555e-05
8.11038e-08
-1.86776e-07
1.2944e-05
2.79724e-08
-1.16503e-07
1.31766e-05
6.84327e-08
-3.00985e-07
1.32924e-05
1.39351e-07
-2.55169e-07
1.35737e-05
7.33907e-08
-3.54718e-07
1.37836e-05
2.31725e-07
-4.416e-07
1.40785e-05
1.62961e-07
-4.57906e-07
1.44123e-05
1.81596e-07
-5.1536e-07
1.47365e-05
2.74346e-07
-5.98551e-07
1.50967e-05
8.76894e-08
-4.47929e-07
1.55562e-05
1.67175e-07
-6.26618e-07
1.59119e-05
1.72043e-08
-3.72917e-07
1.63079e-05
-1.92849e-07
-2.03214e-07
1.66542e-05
-2.88485e-07
-5.77708e-08
1.69511e-05
-5.19933e-07
2.22993e-07
1.73246e-05
-7.19867e-07
3.46407e-07
1.76334e-05
-9.26778e-07
6.17949e-07
1.80171e-05
-1.07528e-06
6.91618e-07
1.84742e-05
-1.33174e-06
8.74645e-07
1.88714e-05
-1.47422e-06
1.07703e-06
1.94631e-05
-1.69524e-06
1.10351e-06
2.00511e-05
-1.90061e-06
1.31266e-06
2.0732e-05
-2.11986e-06
1.43894e-06
2.14923e-05
-2.3578e-06
1.59744e-06
2.23692e-05
-2.57742e-06
1.70051e-06
2.33423e-05
-2.93235e-06
1.9593e-06
2.4389e-05
-3.33433e-06
2.28759e-06
2.55111e-05
-3.8158e-06
2.69371e-06
2.66271e-05
-4.44114e-06
3.3252e-06
2.77412e-05
-5.27037e-06
4.15623e-06
2.87527e-05
-6.06309e-06
5.05164e-06
2.96983e-05
-7.06453e-06
6.11889e-06
3.04414e-05
-7.94584e-06
7.20275e-06
3.0937e-05
-8.76174e-06
8.26615e-06
3.13151e-05
-9.54999e-06
9.17184e-06
3.13901e-05
-9.98914e-06
9.91411e-06
3.12842e-05
-1.03155e-05
1.04214e-05
3.10218e-05
-1.0407e-05
1.06694e-05
3.04902e-05
-1.00515e-05
1.05831e-05
2.98406e-05
-9.58487e-06
1.02345e-05
2.91154e-05
-9.01405e-06
9.73934e-06
2.83663e-05
-8.4304e-06
9.17941e-06
2.76589e-05
-7.9148e-06
8.62228e-06
2.70983e-05
-7.40387e-06
7.96444e-06
2.65862e-05
-6.72562e-06
7.23766e-06
2.62191e-05
-6.11521e-06
6.48232e-06
2.58835e-05
-5.45954e-06
5.79523e-06
2.55434e-05
-4.83597e-06
5.17606e-06
2.53006e-05
-4.47096e-06
4.71376e-06
2.50954e-05
-4.21243e-06
4.41762e-06
2.48819e-05
-4.03114e-06
4.24464e-06
2.48216e-05
-4.02129e-06
4.08155e-06
2.47725e-05
-4.10914e-06
4.15825e-06
2.46947e-05
-4.15016e-06
4.228e-06
2.48124e-05
-4.40573e-06
4.288e-06
2.49058e-05
-4.75834e-06
4.66496e-06
2.51178e-05
-5.23023e-06
5.01817e-06
2.56142e-05
-5.80303e-06
5.30661e-06
2.62176e-05
-6.59786e-06
5.99454e-06
2.68233e-05
-7.10133e-06
6.4956e-06
2.78202e-05
-7.73544e-06
6.73851e-06
2.89659e-05
-8.30611e-06
7.16044e-06
2.9967e-05
-8.40381e-06
7.40272e-06
3.11695e-05
-8.17646e-06
6.97391e-06
3.2391e-05
-7.93364e-06
6.71218e-06
3.34333e-05
-7.19533e-06
6.153e-06
3.43979e-05
-6.02096e-06
5.05638e-06
3.52749e-05
-4.86533e-06
3.98829e-06
3.5965e-05
-3.46688e-06
2.77687e-06
3.65584e-05
-1.8499e-06
1.25649e-06
3.69741e-05
-2.89452e-07
-1.26235e-07
3.71976e-05
1.36548e-06
-1.58898e-06
3.72511e-05
2.93192e-06
-2.98542e-06
3.71527e-05
4.42341e-06
-4.32504e-06
3.68392e-05
5.62161e-06
-5.30815e-06
3.64168e-05
6.76669e-06
-6.34422e-06
3.58908e-05
7.62232e-06
-7.09633e-06
3.5234e-05
8.15408e-06
-7.49732e-06
3.45719e-05
8.64917e-06
-7.98707e-06
3.38026e-05
8.80386e-06
-8.03452e-06
3.30354e-05
8.5005e-06
-7.7333e-06
3.21712e-05
8.39485e-06
-7.5307e-06
3.15175e-05
7.47487e-06
-6.82112e-06
3.07409e-05
6.41381e-06
-5.63722e-06
2.9863e-05
5.71073e-06
-4.83285e-06
2.88619e-05
4.00056e-06
-2.99944e-06
2.75146e-05
2.50534e-06
-1.15806e-06
2.59141e-05
1.542e-06
5.84786e-08
2.44962e-05
-4.77055e-07
1.89499e-06
2.28365e-05
-2.51547e-06
4.17518e-06
2.0426e-05
-2.30882e-06
4.7193e-06
1.81193e-05
-9.81927e-07
3.28867e-06
1.68105e-05
-1.28044e-06
2.58925e-06
1.64063e-05
-5.45134e-06
5.85549e-06
1.66501e-05
-1.22818e-05
1.2038e-05
1.72282e-05
-1.93887e-05
1.88106e-05
1.78699e-05
-2.35529e-05
2.29113e-05
1.86145e-05
-2.49048e-05
2.41602e-05
1.91153e-05
-2.36312e-05
2.31304e-05
1.96957e-05
-2.05772e-05
1.99968e-05
2.00308e-05
-1.71346e-05
1.67995e-05
2.09644e-05
-1.33727e-05
1.24391e-05
2.14247e-05
-8.70454e-06
8.24426e-06
2.20943e-05
-4.73674e-06
4.06718e-06
2.2868e-05
-2.16709e-07
-5.57011e-07
2.31965e-05
4.05689e-06
-4.3854e-06
2.34975e-05
7.48371e-06
-7.7847e-06
2.42424e-05
1.09504e-05
-1.16953e-05
2.44505e-05
1.45946e-05
-1.48027e-05
2.50541e-05
1.755e-05
-1.81536e-05
2.5661e-05
2.10963e-05
-2.17032e-05
2.56355e-05
2.40377e-05
-2.40122e-05
2.54055e-05
2.57505e-05
-2.55205e-05
2.43469e-05
2.69687e-05
-2.59101e-05
2.3573e-05
2.69788e-05
-2.62049e-05
2.3641e-05
2.66626e-05
-2.67306e-05
2.26746e-05
2.66742e-05
-2.57078e-05
2.21609e-05
2.5166e-05
-2.46523e-05
2.17559e-05
2.3782e-05
-2.33771e-05
2.04196e-05
2.24339e-05
-2.10976e-05
2.00327e-05
1.94873e-05
-1.91004e-05
1.94595e-05
1.72786e-05
-1.67054e-05
1.8239e-05
1.55525e-05
-1.4332e-05
1.85379e-05
1.23967e-05
-1.26956e-05
1.70429e-05
1.32763e-05
-1.17814e-05
1.72871e-05
8.95495e-06
-9.1991e-06
1.62783e-05
1.00289e-05
-9.02008e-06
1.66316e-05
4.4256e-06
-4.77888e-06
1.57957e-05
6.00281e-06
-5.16693e-06
1.68434e-05
-3.21659e-07
-7.26065e-07
1.62662e-05
3.11146e-06
-2.5343e-06
1.78309e-05
-4.07066e-06
2.50596e-06
1.67228e-05
5.63986e-07
5.44192e-07
1.86452e-05
-8.24483e-06
6.32244e-06
1.6998e-05
-2.88369e-06
4.53086e-06
1.86817e-05
-1.03339e-05
8.65024e-06
1.64869e-05
-3.43111e-06
5.62585e-06
1.76265e-05
-8.37755e-06
7.23793e-06
1.36274e-05
1.3506e-06
2.64857e-06
1.47265e-05
-3.09036e-06
1.99122e-06
9.58039e-06
-8.79627e-06
1.39424e-05
1.28445e-05
-2.28893e-07
1.29732e-05
-2.22024e-07
1.31617e-05
-2.80509e-07
1.33689e-05
-3.63788e-07
1.35517e-05
-4.04844e-07
1.3699e-05
-3.95786e-07
1.3798e-05
-3.49435e-07
1.38607e-05
-2.90492e-07
1.3899e-05
-2.49926e-07
1.39259e-05
-2.13386e-07
1.39396e-05
-1.91618e-07
1.39411e-05
-1.79674e-07
1.39248e-05
-1.51831e-07
1.38929e-05
-1.14823e-07
1.39034e-05
-4.68678e-08
1.3931e-05
5.58288e-08
1.39687e-05
1.66e-07
1.40348e-05
2.72687e-07
1.41376e-05
3.70485e-07
1.42512e-05
4.28135e-07
1.43831e-05
4.4861e-07
1.45457e-05
4.41297e-07
1.47113e-05
4.01754e-07
1.48775e-05
3.25307e-07
1.50354e-05
2.06289e-07
1.51679e-05
7.73521e-08
1.52684e-05
-7.95521e-08
1.53541e-05
-2.48678e-07
1.54168e-05
-4.045e-07
1.54552e-05
-5.30821e-07
1.54927e-05
-6.4808e-07
1.55244e-05
-7.1448e-07
1.55741e-05
-7.54466e-07
1.56386e-05
-7.71028e-07
1.5716e-05
-7.54254e-07
1.58109e-05
-7.54383e-07
1.59189e-05
-7.16647e-07
1.60268e-05
-7.04793e-07
1.61437e-05
-6.76899e-07
1.62492e-05
-6.52303e-07
1.63662e-05
-6.41305e-07
1.64419e-05
-6.13153e-07
1.65229e-05
-6.20141e-07
1.65669e-05
-5.78886e-07
1.66183e-05
-5.78546e-07
1.66354e-05
-4.96122e-07
1.66388e-05
-4.31402e-07
1.66667e-05
-3.14832e-07
1.66903e-05
-1.67974e-07
1.67997e-05
-4.70411e-08
1.68678e-05
1.26533e-07
1.69871e-05
1.89678e-07
1.70849e-05
2.67824e-07
1.7146e-05
2.64631e-07
1.72447e-05
2.32705e-07
1.72183e-05
2.0187e-07
1.72872e-05
1.0512e-07
1.7287e-05
9.92643e-08
1.72876e-05
4.72493e-08
1.73481e-05
2.0568e-08
1.73401e-05
3.60057e-08
1.74377e-05
-2.91814e-08
1.75022e-05
7.48117e-08
1.76206e-05
-4.4981e-08
1.77915e-05
6.08505e-08
1.79557e-05
-1.27635e-09
1.81918e-05
-5.45472e-08
1.84748e-05
-8.63685e-09
1.87322e-05
-1.69662e-07
1.91066e-05
-2.07286e-07
1.94626e-05
-3.38721e-07
1.98085e-05
-5.38751e-07
2.02032e-05
-6.83239e-07
2.05901e-05
-9.06793e-07
2.10007e-05
-1.13046e-06
2.14208e-05
-1.34694e-06
2.19074e-05
-1.56186e-06
2.2423e-05
-1.84732e-06
2.2982e-05
-2.03317e-06
2.36054e-05
-2.31865e-06
2.42661e-05
-2.56136e-06
2.50052e-05
-2.85899e-06
2.57747e-05
-3.12729e-06
2.66653e-05
-3.46801e-06
2.7538e-05
-3.80503e-06
2.84882e-05
-4.28454e-06
2.94696e-05
-4.7972e-06
3.03811e-05
-5.35258e-06
3.1217e-05
-6.10634e-06
3.19796e-05
-6.82566e-06
3.25735e-05
-7.65841e-06
3.29589e-05
-8.33122e-06
3.31115e-05
-8.91437e-06
3.30283e-05
-9.46676e-06
3.27132e-05
-9.67411e-06
3.22424e-05
-9.84462e-06
3.15575e-05
-9.72207e-06
3.07389e-05
-9.23298e-06
2.98974e-05
-8.74338e-06
2.89613e-05
-8.0779e-06
2.80766e-05
-7.54574e-06
2.73302e-05
-7.16834e-06
2.6651e-05
-6.7247e-06
2.6112e-05
-6.18664e-06
2.56908e-05
-5.69403e-06
2.52658e-05
-5.03447e-06
2.4975e-05
-4.54518e-06
2.47306e-05
-4.22661e-06
2.44562e-05
-3.93804e-06
2.43193e-05
-3.89418e-06
2.42573e-05
-3.95926e-06
2.40815e-05
-3.9334e-06
2.41608e-05
-4.22943e-06
2.43061e-05
-4.55103e-06
2.43998e-05
-4.85207e-06
2.4804e-05
-5.63444e-06
2.53816e-05
-6.38058e-06
2.58493e-05
-7.06558e-06
2.67078e-05
-7.95982e-06
2.78376e-05
-8.86527e-06
2.88495e-05
-9.31797e-06
2.99945e-05
-9.54883e-06
3.12587e-05
-9.44067e-06
3.23608e-05
-9.03576e-06
3.33101e-05
-8.14459e-06
3.4287e-05
-6.9979e-06
3.50741e-05
-5.65241e-06
3.57304e-05
-4.1232e-06
3.62969e-05
-2.41638e-06
3.6749e-05
-7.41591e-07
3.69953e-05
1.11918e-06
3.71939e-05
2.73336e-06
3.71998e-05
4.41751e-06
3.70595e-05
5.76189e-06
3.67412e-05
7.08498e-06
3.62764e-05
8.08712e-06
3.56263e-05
8.80424e-06
3.48004e-05
9.47501e-06
3.38634e-05
9.7409e-06
3.27095e-05
9.6544e-06
3.15881e-05
9.51627e-06
3.04603e-05
8.60262e-06
2.92019e-05
7.67218e-06
2.82113e-05
6.70141e-06
2.74746e-05
4.73723e-06
2.61775e-05
3.80244e-06
2.46982e-05
3.02125e-06
2.32402e-05
9.81024e-07
2.12482e-05
-5.23485e-07
1.885e-05
8.9337e-08
1.68765e-05
9.9159e-07
1.58815e-05
-2.85457e-07
1.57902e-05
-5.36008e-06
1.60575e-05
-1.2549e-05
1.65142e-05
-1.98454e-05
1.71067e-05
-2.41455e-05
1.77563e-05
-2.55543e-05
1.8107e-05
-2.39818e-05
1.88249e-05
-2.12952e-05
1.9247e-05
-1.75567e-05
1.99257e-05
-1.40514e-05
2.072e-05
-9.49887e-06
2.12914e-05
-5.30818e-06
2.22044e-05
-1.12968e-06
2.27794e-05
3.4819e-06
2.30513e-05
7.21183e-06
2.3538e-05
1.04636e-05
2.42321e-05
1.39005e-05
2.45812e-05
1.72009e-05
2.54959e-05
2.01816e-05
2.57912e-05
2.37423e-05
2.57858e-05
2.57559e-05
2.5972e-05
2.67825e-05
2.50845e-05
2.78663e-05
2.44724e-05
2.72747e-05
2.44373e-05
2.67092e-05
2.32463e-05
2.63571e-05
2.29213e-05
2.4107e-05
2.2725e-05
2.26302e-05
2.0991e-05
2.12213e-05
2.14138e-05
1.68558e-05
1.99656e-05
1.70008e-05
1.9893e-05
1.24693e-05
1.95101e-05
1.36593e-05
1.94956e-05
8.96941e-06
1.90145e-05
1.051e-05
2.03622e-05
3.0779e-06
1.91429e-05
7.22213e-06
2.09973e-05
-2.17606e-06
1.95859e-05
4.52281e-06
2.11251e-05
-5.60987e-06
1.98986e-05
1.79049e-06
2.09478e-05
-9.29398e-06
1.94289e-05
-1.36487e-06
2.07839e-05
-1.16889e-05
1.93584e-05
-2.00561e-06
2.12394e-05
-1.02585e-05
2.08127e-05
1.77728e-06
2.07798e-05
-3.05751e-06
8.49613e-06
2.18641e-05
1.92457e-05
-2.45134e-07
1.94337e-05
-4.10027e-07
1.96794e-05
-5.26158e-07
1.99002e-05
-5.84551e-07
2.00403e-05
-5.44961e-07
2.01126e-05
-4.68151e-07
2.01439e-05
-3.80684e-07
2.01575e-05
-3.04089e-07
2.01653e-05
-2.57737e-07
2.01618e-05
-2.09856e-07
2.01527e-05
-1.82527e-07
2.01309e-05
-1.57944e-07
2.01023e-05
-1.2321e-07
2.00781e-05
-9.05749e-08
2.00678e-05
-3.65651e-08
2.00733e-05
5.02664e-08
2.0106e-05
1.33317e-07
2.01503e-05
2.28403e-07
2.02111e-05
3.09642e-07
2.02953e-05
3.44026e-07
2.03703e-05
3.73546e-07
2.04703e-05
3.41303e-07
2.05668e-05
3.05261e-07
2.06605e-05
2.3162e-07
2.07501e-05
1.16655e-07
2.08257e-05
1.82664e-09
2.08908e-05
-1.44718e-07
2.09406e-05
-2.98469e-07
2.09809e-05
-4.4479e-07
2.10168e-05
-5.66756e-07
2.10506e-05
-6.81803e-07
2.10807e-05
-7.44623e-07
2.11325e-05
-8.06287e-07
2.11783e-05
-8.16833e-07
2.12478e-05
-8.23758e-07
2.1313e-05
-8.1952e-07
2.13972e-05
-8.00908e-07
2.14718e-05
-7.79347e-07
2.15649e-05
-7.70007e-07
2.16375e-05
-7.24939e-07
2.17153e-05
-7.19057e-07
2.17829e-05
-6.80743e-07
2.18277e-05
-6.64975e-07
2.18764e-05
-6.27567e-07
2.1886e-05
-5.88167e-07
2.19202e-05
-5.30351e-07
2.19173e-05
-4.2848e-07
2.19513e-05
-3.48855e-07
2.19799e-05
-1.96517e-07
2.20284e-05
-9.55487e-08
2.2118e-05
3.69643e-08
2.21618e-05
1.45807e-07
2.22535e-05
1.7618e-07
2.2285e-05
2.33098e-07
2.23323e-05
1.85382e-07
2.23431e-05
1.91131e-07
2.23487e-05
9.94883e-08
2.23489e-05
9.90225e-08
2.23546e-05
4.16049e-08
2.23571e-05
1.81023e-08
2.23859e-05
7.13049e-09
2.24112e-05
-5.44915e-08
2.24883e-05
-2.23557e-09
2.25496e-05
-1.06301e-07
2.26839e-05
-7.34871e-08
2.28216e-05
-1.38964e-07
2.29847e-05
-2.17569e-07
2.32207e-05
-2.44668e-07
2.34489e-05
-3.97872e-07
2.37258e-05
-4.84221e-07
2.40465e-05
-6.59441e-07
2.43525e-05
-8.44726e-07
2.47116e-05
-1.04229e-06
2.50822e-05
-1.27741e-06
2.54684e-05
-1.51669e-06
2.58992e-05
-1.77775e-06
2.63796e-05
-2.04221e-06
2.68369e-05
-2.30465e-06
2.7416e-05
-2.61232e-06
2.79804e-05
-2.88298e-06
2.85839e-05
-3.16491e-06
2.92572e-05
-3.53222e-06
2.99365e-05
-3.80664e-06
3.06418e-05
-4.17326e-06
3.13861e-05
-4.54938e-06
3.20905e-05
-4.98894e-06
3.27927e-05
-5.49944e-06
3.34163e-05
-5.97614e-06
3.38854e-05
-6.57541e-06
3.42892e-05
-7.22953e-06
3.44082e-05
-7.77736e-06
3.43712e-05
-8.29423e-06
3.40968e-05
-8.63996e-06
3.35582e-05
-8.92812e-06
3.29585e-05
-9.0745e-06
3.21769e-05
-9.063e-06
3.12748e-05
-8.81999e-06
3.03823e-05
-8.3404e-06
2.9502e-05
-7.86315e-06
2.87151e-05
-7.29095e-06
2.80142e-05
-6.8449e-06
2.73566e-05
-6.51074e-06
2.66951e-05
-6.06321e-06
2.62287e-05
-5.72018e-06
2.57889e-05
-5.25423e-06
2.5424e-05
-4.66956e-06
2.51931e-05
-4.31429e-06
2.48725e-05
-3.90601e-06
2.46028e-05
-3.66838e-06
2.43962e-05
-3.6876e-06
2.41319e-05
-3.69494e-06
2.39865e-05
-3.78793e-06
2.3983e-05
-4.22597e-06
2.39858e-05
-4.55387e-06
2.4175e-05
-5.04127e-06
2.44811e-05
-5.94046e-06
2.48933e-05
-6.79279e-06
2.5506e-05
-7.67835e-06
2.64376e-05
-8.89134e-06
2.74009e-05
-9.82863e-06
2.83572e-05
-1.02743e-05
2.94477e-05
-1.06393e-05
3.04547e-05
-1.04477e-05
3.12946e-05
-9.87564e-06
3.22112e-05
-9.06115e-06
3.31213e-05
-7.90799e-06
3.38319e-05
-6.36303e-06
3.45012e-05
-4.79254e-06
3.50539e-05
-2.969e-06
3.54191e-05
-1.10682e-06
3.57349e-05
8.03357e-07
3.59041e-05
2.56416e-06
3.59728e-05
4.34881e-06
3.60033e-05
5.7314e-06
3.58873e-05
7.20097e-06
3.56509e-05
8.32351e-06
3.52543e-05
9.20087e-06
3.46218e-05
1.01075e-05
3.38852e-05
1.04775e-05
3.26393e-05
1.09003e-05
3.13153e-05
1.08403e-05
2.99282e-05
9.98967e-06
2.84324e-05
9.16799e-06
2.7109e-05
8.0248e-06
2.56219e-05
6.22435e-06
2.42072e-05
5.21715e-06
2.30718e-05
4.15656e-06
2.19582e-05
2.09464e-06
1.99168e-05
1.51792e-06
1.75861e-05
2.42011e-06
1.59366e-05
2.64104e-06
1.53047e-05
3.46399e-07
1.52058e-05
-5.2611e-06
1.52906e-05
-1.26339e-05
1.57548e-05
-2.03096e-05
1.61087e-05
-2.44993e-05
1.66725e-05
-2.61181e-05
1.71434e-05
-2.44527e-05
1.76567e-05
-2.18085e-05
1.82591e-05
-1.81592e-05
1.88631e-05
-1.46553e-05
1.98378e-05
-1.04736e-05
2.03697e-05
-5.84001e-06
2.13332e-05
-2.09318e-06
2.20991e-05
2.71598e-06
2.26784e-05
6.6325e-06
2.29436e-05
1.01985e-05
2.36666e-05
1.31775e-05
2.41719e-05
1.66956e-05
2.48777e-05
1.94758e-05
2.60351e-05
2.25849e-05
2.59675e-05
2.58234e-05
2.58307e-05
2.69193e-05
2.62109e-05
2.7486e-05
2.54534e-05
2.80322e-05
2.54964e-05
2.66663e-05
2.55744e-05
2.6279e-05
2.3998e-05
2.56833e-05
2.45219e-05
2.21064e-05
2.36323e-05
2.21109e-05
2.29784e-05
1.75098e-05
2.28725e-05
1.71066e-05
2.25985e-05
1.27433e-05
2.16983e-05
1.45595e-05
2.33023e-05
7.36542e-06
2.16415e-05
1.21708e-05
2.34162e-05
1.30318e-06
2.17957e-05
8.84259e-06
2.21102e-05
-2.49057e-06
2.12914e-05
5.34163e-06
2.06604e-05
-4.97888e-06
2.07008e-05
1.75014e-06
1.92951e-05
-7.88829e-06
1.96163e-05
-1.68609e-06
1.84246e-05
-1.04972e-05
1.92243e-05
-2.80528e-06
1.85254e-05
-9.55963e-06
2.08478e-05
-5.45154e-07
2.21516e-05
-4.36126e-06
5.30746e-06
2.53402e-05
2.45256e-05
-4.87987e-07
2.49927e-05
-8.77099e-07
2.53808e-05
-9.14234e-07
2.55371e-05
-7.40845e-07
2.55888e-05
-5.96731e-07
2.55922e-05
-4.71574e-07
2.55687e-05
-3.57151e-07
2.55449e-05
-2.80273e-07
2.55298e-05
-2.42657e-07
2.55064e-05
-1.86435e-07
2.54879e-05
-1.64065e-07
2.54626e-05
-1.32653e-07
2.54304e-05
-9.09581e-08
2.54081e-05
-6.82999e-08
2.5394e-05
-2.2487e-08
2.53932e-05
5.10778e-08
2.54249e-05
1.01634e-07
2.54654e-05
1.87943e-07
2.55193e-05
2.5568e-07
2.55931e-05
2.70271e-07
2.56512e-05
3.15395e-07
2.57299e-05
2.62624e-07
2.57983e-05
2.36912e-07
2.58636e-05
1.66281e-07
2.59237e-05
5.6534e-08
2.59795e-05
-5.39684e-08
2.60206e-05
-1.85797e-07
2.6056e-05
-3.33902e-07
2.60709e-05
-4.5965e-07
2.60826e-05
-5.78491e-07
2.60973e-05
-6.96483e-07
2.60952e-05
-7.42516e-07
2.61206e-05
-8.31733e-07
2.61309e-05
-8.27094e-07
2.61646e-05
-8.57417e-07
2.61947e-05
-8.49667e-07
2.62311e-05
-8.37267e-07
2.62758e-05
-8.24111e-07
2.63139e-05
-8.08051e-07
2.63699e-05
-7.80918e-07
2.63918e-05
-7.41023e-07
2.64475e-05
-7.36453e-07
2.64552e-05
-6.72643e-07
2.64751e-05
-6.47472e-07
2.64824e-05
-5.95442e-07
2.64749e-05
-5.22918e-07
2.64946e-05
-4.48158e-07
2.64929e-05
-3.47117e-07
2.6526e-05
-2.29612e-07
2.65536e-05
-1.23148e-07
2.66078e-05
-1.72522e-08
2.66674e-05
8.62372e-08
2.67149e-05
1.28671e-07
2.67701e-05
1.77912e-07
2.6798e-05
1.57491e-07
2.68259e-05
1.63227e-07
2.68435e-05
8.18598e-08
2.68399e-05
1.0264e-07
2.68665e-05
1.4947e-08
2.68741e-05
1.05002e-08
2.69067e-05
-2.54128e-08
2.69444e-05
-9.21778e-08
2.70219e-05
-7.98094e-08
2.70849e-05
-1.69246e-07
2.72129e-05
-2.01544e-07
2.73405e-05
-2.665e-07
2.74826e-05
-3.59711e-07
2.76925e-05
-4.54599e-07
2.78896e-05
-5.94957e-07
2.81328e-05
-7.27378e-07
2.84046e-05
-9.31279e-07
2.86742e-05
-1.11431e-06
2.89818e-05
-1.34986e-06
2.92955e-05
-1.59113e-06
2.96282e-05
-1.84941e-06
2.99856e-05
-2.13508e-06
3.03719e-05
-2.42858e-06
3.07532e-05
-2.68591e-06
3.11912e-05
-3.05032e-06
3.1639e-05
-3.33079e-06
3.21001e-05
-3.626e-06
3.25838e-05
-4.01589e-06
3.3078e-05
-4.30091e-06
3.35487e-05
-4.64394e-06
3.40586e-05
-5.05932e-06
3.4451e-05
-5.38126e-06
3.48169e-05
-5.86532e-06
3.50687e-05
-6.22799e-06
3.51882e-05
-6.69488e-06
3.51472e-05
-7.18858e-06
3.48786e-05
-7.50869e-06
3.44657e-05
-7.88133e-06
3.38745e-05
-8.04875e-06
3.31549e-05
-8.20861e-06
3.2399e-05
-8.31858e-06
3.1558e-05
-8.22196e-06
3.07008e-05
-7.96277e-06
3.00051e-05
-7.64474e-06
2.93443e-05
-7.20235e-06
2.87972e-05
-6.74382e-06
2.82905e-05
-6.33819e-06
2.77485e-05
-5.9688e-06
2.72686e-05
-5.58327e-06
2.68125e-05
-5.26411e-06