/*--------------------------------*- C++ -*----------------------------------*\
| =========                 |                                                 |
| \\      /  F ield         | OpenFOAM: The Open Source CFD Toolbox           |
|  \\    /   O peration     | Version:  2.4.0                                 |
|   \\  /    A nd           | Web:      www.OpenFOAM.org                      |
|    \\/     M anipulation  |                                                 |
\*---------------------------------------------------------------------------*/
FoamFile
{
    version     2.0;
    format      ascii;
    class       surfaceScalarField;
    location    "0.43";
    object      phi_0;
}
// * * * * * * * * * * * * * * * * * * * * * * * * * * * * * * * * * * * * * //

dimensions      [0 3 -1 0 0 0 0];

internalField   nonuniform List<scalar> 
17320
(
1.76334e-05
7.36663e-06
1.16185e-05
6.0149e-06
8.68621e-06
2.93225e-06
7.34984e-06
1.33638e-06
6.71941e-06
6.30429e-07
6.34645e-06
3.72954e-07
6.07348e-06
2.72977e-07
5.86783e-06
2.0565e-07
5.72012e-06
1.47711e-07
5.57435e-06
1.45763e-07
5.48264e-06
9.17151e-08
5.38839e-06
9.42482e-08
5.30697e-06
8.14207e-08
5.22255e-06
8.44222e-08
5.14757e-06
7.49795e-08
5.0449e-06
1.02663e-07
4.95039e-06
9.45107e-08
4.88362e-06
6.67692e-08
4.64014e-06
2.43484e-07
-4.55051e-07
5.09519e-06
2.54515e-05
6.91513e-06
2.32541e-05
8.21234e-06
2.09906e-05
5.19572e-06
1.93102e-05
3.01682e-06
1.80778e-05
1.86282e-06
1.7113e-05
1.3377e-06
1.6362e-05
1.02399e-06
1.57754e-05
7.92281e-07
1.53197e-05
6.03378e-07
1.4928e-05
5.37471e-07
1.46397e-05
3.79999e-07
1.4369e-05
3.64957e-07
1.41531e-05
2.97294e-07
1.39336e-05
3.0398e-07
1.37452e-05
2.63354e-07
1.35221e-05
3.25754e-07
1.33211e-05
2.95475e-07
1.31162e-05
2.71719e-07
1.29283e-05
4.31394e-07
-3.84806e-07
1.2858e-05
2.66052e-05
5.30997e-06
2.7169e-05
7.64855e-06
2.6783e-05
5.58168e-06
2.62427e-05
3.5571e-06
2.56042e-05
2.50137e-06
2.48694e-05
2.07246e-06
2.41559e-05
1.73744e-06
2.35067e-05
1.4415e-06
2.29423e-05
1.16784e-06
2.24422e-05
1.03751e-06
2.2046e-05
7.7624e-07
2.16642e-05
7.46688e-07
2.1367e-05
5.94576e-07
2.10658e-05
6.05177e-07
2.08105e-05
5.18643e-07
2.05165e-05
6.19724e-07
2.02887e-05
5.23308e-07
1.99379e-05
6.22473e-07
1.9805e-05
5.64304e-07
1.91117e-07
1.92291e-05
2.63044e-05
4.0056e-06
2.75633e-05
6.38965e-06
2.80903e-05
5.05469e-06
2.84442e-05
3.2032e-06
2.8641e-05
2.30453e-06
2.86152e-05
2.09824e-06
2.84702e-05
1.8825e-06
2.82357e-05
1.67593e-06
2.7973e-05
1.4306e-06
2.76889e-05
1.32164e-06
2.74521e-05
1.01297e-06
2.71542e-05
1.04463e-06
2.69244e-05
8.24397e-07
2.66701e-05
8.59483e-07
2.64439e-05
7.44854e-07
2.6165e-05
8.98594e-07
2.59914e-05
6.96866e-07
2.55842e-05
1.02975e-06
2.53099e-05
8.38527e-07
1.21896e-06
2.42821e-05
2.60181e-05
2.98746e-06
2.72468e-05
5.16095e-06
2.80894e-05
4.21215e-06
2.85301e-05
2.76247e-06
2.89477e-05
1.88693e-06
2.92857e-05
1.76027e-06
2.95604e-05
1.60781e-06
2.9732e-05
1.50428e-06
2.98488e-05
1.31386e-06
2.99119e-05
1.25845e-06
2.99891e-05
9.35802e-07
2.99675e-05
1.06621e-06
2.99529e-05
8.39011e-07
2.99247e-05
8.8773e-07
2.988e-05
7.89468e-07
2.97922e-05
9.86485e-07
2.97432e-05
7.45812e-07
2.96677e-05
1.10524e-06
2.97084e-05
7.97808e-07
8.50682e-07
3.00767e-05
2.5808e-05
2.17948e-06
2.69442e-05
4.02475e-06
2.78422e-05
3.31408e-06
2.83295e-05
2.27518e-06
2.87182e-05
1.49824e-06
2.90499e-05
1.42859e-06
2.94223e-05
1.23541e-06
2.97251e-05
1.20147e-06
2.9976e-05
1.06302e-06
3.0174e-05
1.06037e-06
3.04254e-05
6.84394e-07
3.05936e-05
8.98024e-07
3.07017e-05
7.30907e-07
3.08427e-05
7.46776e-07
3.09666e-05
6.65602e-07
3.10917e-05
8.61357e-07
3.12044e-05
6.3312e-07
3.14225e-05
8.87138e-07
3.15642e-05
6.56099e-07
4.39071e-07
3.19758e-05
2.57565e-05
1.42296e-06
2.66269e-05
3.15434e-06
2.74773e-05
2.4637e-06
2.81566e-05
1.59586e-06
2.86145e-05
1.04037e-06
2.8759e-05
1.28406e-06
2.91094e-05
8.85032e-07
2.95237e-05
7.87151e-07
2.97105e-05
8.76192e-07
2.98908e-05
8.80082e-07
3.02242e-05
3.51076e-07
3.05581e-05
5.64131e-07
3.06766e-05
6.12376e-07
3.07891e-05
6.3428e-07
3.09393e-05
5.15386e-07
3.11743e-05
6.2633e-07
3.13312e-05
4.76253e-07
3.15919e-05
6.26407e-07
3.18147e-05
4.33322e-07
3.32704e-08
3.22205e-05
2.54993e-05
9.23635e-07
2.65254e-05
2.1283e-06
2.74462e-05
1.54288e-06
2.80793e-05
9.6274e-07
2.83538e-05
7.65913e-07
2.86333e-05
1.00452e-06
2.90054e-05
5.12968e-07
2.94001e-05
3.92455e-07
2.9552e-05
7.24247e-07
2.97415e-05
6.90579e-07
3.00178e-05
7.47398e-08
3.03642e-05
2.17785e-07
3.04932e-05
4.83359e-07
3.06289e-05
4.98634e-07
3.07764e-05
3.67829e-07
3.10607e-05
3.42035e-07
3.11956e-05
3.41341e-07
3.14495e-05
3.72486e-07
3.17214e-05
1.61421e-07
-1.7825e-07
3.1933e-05
2.54965e-05
4.2717e-07
2.65115e-05
1.11327e-06
2.73133e-05
7.41081e-07
2.79903e-05
2.85745e-07
2.82016e-05
5.54593e-07
2.85185e-05
6.87645e-07
2.89111e-05
1.20319e-07
2.92926e-05
1.10092e-08
2.951e-05
5.06845e-07
2.97198e-05
4.80716e-07
2.99005e-05
-1.05887e-07
3.00802e-05
3.80099e-08
3.03266e-05
2.36972e-07
3.05476e-05
2.77688e-07
3.07686e-05
1.46859e-07
3.09858e-05
1.24774e-07
3.11598e-05
1.67386e-07
3.1332e-05
2.00264e-07
3.15484e-05
-5.49986e-08
-3.83256e-07
3.17534e-05
2.5359e-05
6.81253e-08
2.64137e-05
5.86187e-08
2.73744e-05
-2.19644e-07
2.78468e-05
-1.86637e-07
2.81669e-05
2.34461e-07
2.84143e-05
4.403e-07
2.87952e-05
-2.60605e-07
2.92533e-05
-4.47113e-07
2.94853e-05
2.74898e-07
2.97243e-05
2.41719e-07
2.9879e-05
-2.60619e-07
3.00608e-05
-1.43816e-07
3.01564e-05
1.41397e-07
3.04553e-05
-2.11801e-08
3.07449e-05
-1.42801e-07
3.09639e-05
-9.41942e-08
3.10843e-05
4.70091e-08
3.13169e-05
-3.23499e-08
3.15489e-05
-2.86969e-07
-4.9422e-07
3.16598e-05
2.54496e-05
-3.81521e-07
2.65991e-05
-1.09078e-06
2.72411e-05
-8.61682e-07
2.77848e-05
-7.30384e-07
2.816e-05
-1.40749e-07
2.85979e-05
2.42247e-09
2.88762e-05
-5.38929e-07
2.9094e-05
-6.64868e-07
2.94738e-05
-1.04938e-07
2.97946e-05
-7.90339e-08
2.9873e-05
-3.3902e-07
2.9977e-05
-2.47784e-07
3.02382e-05
-1.19814e-07
3.05082e-05
-2.91226e-07
3.06518e-05
-2.86363e-07
3.08494e-05
-2.9177e-07
3.11547e-05
-2.58386e-07
3.14141e-05
-2.91707e-07
3.15702e-05
-4.43097e-07
-5.30468e-07
3.16065e-05
2.55079e-05
-8.89386e-07
2.65037e-05
-2.08662e-06
2.72478e-05
-1.6058e-06
2.77827e-05
-1.26529e-06
2.83223e-05
-6.80338e-07
2.86862e-05
-3.6144e-07
2.88341e-05
-6.86851e-07
2.91496e-05
-9.8034e-07
2.9435e-05
-3.90394e-07
2.97703e-05
-4.14357e-07
2.99715e-05
-5.40172e-07
3.01566e-05
-4.32888e-07
3.0347e-05
-3.1025e-07
3.05538e-05
-4.97962e-07
3.06658e-05
-3.98368e-07
3.0848e-05
-4.74002e-07
3.1114e-05
-5.2435e-07
3.14205e-05
-5.98233e-07
3.16152e-05
-6.37822e-07
-6.67811e-07
3.17526e-05
2.55491e-05
-1.43848e-06
2.66452e-05
-3.18277e-06
2.74378e-05
-2.39836e-06
2.79904e-05
-1.81786e-06
2.82895e-05
-9.79451e-07
2.86812e-05
-7.53118e-07
2.90792e-05
-1.0849e-06
2.93067e-05
-1.20777e-06
2.95223e-05
-6.06034e-07
2.99077e-05
-7.9973e-07
3.00846e-05
-7.17076e-07
3.02289e-05
-5.77252e-07
3.04036e-05
-4.84892e-07
3.06635e-05
-7.57863e-07
3.07637e-05
-4.98549e-07
3.09757e-05
-6.86041e-07
3.12102e-05
-7.58822e-07
3.15271e-05
-9.15203e-07
3.17648e-05
-8.75468e-07
-8.58357e-07
3.19553e-05
2.57063e-05
-2.14478e-06
2.67516e-05
-4.22811e-06
2.75635e-05
-3.21023e-06
2.7996e-05
-2.2504e-06
2.84637e-05
-1.44712e-06
2.89056e-05
-1.19499e-06
2.92402e-05
-1.41946e-06
2.94778e-05
-1.44546e-06
2.9715e-05
-8.4324e-07
3.00148e-05
-1.09944e-06
3.02336e-05
-9.35884e-07
3.03816e-05
-7.25287e-07
3.05592e-05
-6.62526e-07
3.08118e-05
-1.01043e-06
3.09499e-05
-6.36644e-07
3.11508e-05
-8.86961e-07
3.1351e-05
-9.59021e-07
3.16715e-05
-1.23571e-06
3.18674e-05
-1.07136e-06
-1.10307e-06
3.21121e-05
2.5857e-05
-3.00181e-06
2.69094e-05
-5.28043e-06
2.77656e-05
-4.06652e-06
2.82708e-05
-2.7555e-06
2.87537e-05
-1.93008e-06
2.91262e-05
-1.56749e-06
2.9466e-05
-1.75925e-06
2.96896e-05
-1.66904e-06
2.99438e-05
-1.09743e-06
3.01853e-05
-1.34099e-06
3.03905e-05
-1.14105e-06
3.05357e-05
-8.70471e-07
3.06972e-05
-8.24024e-07
3.08382e-05
-1.15147e-06
3.09528e-05
-7.51215e-07
3.10835e-05
-1.01769e-06
3.11856e-05
-1.06109e-06
3.13865e-05
-1.43664e-06
3.15002e-05
-1.18512e-06
-1.34769e-06
3.17449e-05
2.60284e-05
-4.03019e-06
2.71913e-05
-6.44339e-06
2.80536e-05
-4.92875e-06
2.85382e-05
-3.24011e-06
2.8974e-05
-2.36593e-06
2.93434e-05
-1.93684e-06
2.95975e-05
-2.0134e-06
2.96998e-05
-1.77129e-06
2.98583e-05
-1.25591e-06
2.99026e-05
-1.38536e-06
2.9939e-05
-1.17746e-06
2.99431e-05
-8.74518e-07
2.99558e-05
-8.3673e-07
2.98838e-05
-1.07953e-06
2.98615e-05
-7.28897e-07
2.97707e-05
-9.26908e-07
2.96659e-05
-9.56259e-07
2.95749e-05
-1.3456e-06
2.94695e-05
-1.0797e-06
-1.41357e-06
2.95353e-05
2.62911e-05
-5.32126e-06
2.75206e-05
-7.67297e-06
2.81098e-05
-5.51786e-06
2.84537e-05
-3.58403e-06
2.86283e-05
-2.5406e-06
2.86588e-05
-1.96729e-06
2.8462e-05
-1.81663e-06
2.82005e-05
-1.50976e-06
2.79981e-05
-1.05349e-06
2.76769e-05
-1.06415e-06
2.73994e-05
-8.99978e-07
2.71649e-05
-6.39968e-07
2.69179e-05
-5.89774e-07
2.66104e-05
-7.72074e-07
2.64034e-05
-5.21866e-07
2.61164e-05
-6.39857e-07
2.58391e-05
-6.78995e-07
2.54809e-05
-9.87385e-07
2.52302e-05
-8.2903e-07
-1.27113e-06
2.50878e-05
2.65967e-05
-6.91797e-06
2.71513e-05
-8.2276e-06
2.67985e-05
-5.16497e-06
2.62384e-05
-3.02394e-06
2.55923e-05
-1.89458e-06
2.49034e-05
-1.27831e-06
2.41413e-05
-1.05454e-06
2.34793e-05
-8.4783e-07
2.29609e-05
-5.35012e-07
2.24331e-05
-5.36411e-07
2.20027e-05
-4.696e-07
2.16715e-05
-3.08692e-07
2.13543e-05
-2.72626e-07
2.10027e-05
-4.20448e-07
2.0753e-05
-2.72221e-07
2.04429e-05
-3.29695e-07
2.01408e-05
-3.76865e-07
1.9702e-05
-5.48609e-07
1.93342e-05
-4.61267e-07
-4.33818e-07
1.84969e-05
2.54482e-05
-7.36613e-06
2.32426e-05
-6.02202e-06
2.1e-05
-2.92244e-06
1.93106e-05
-1.33447e-06
1.80655e-05
-6.49517e-07
1.71348e-05
-3.47566e-07
1.63562e-05
-2.75962e-07
1.5749e-05
-2.40665e-07
1.53306e-05
-1.16576e-07
1.493e-05
-1.35784e-07
1.45999e-05
-1.39556e-07
1.43649e-05
-7.36875e-08
1.41484e-05
-5.61154e-08
1.38711e-05
-1.43188e-07
1.36801e-05
-8.11275e-08
1.34463e-05
-9.59228e-08
1.31926e-05
-1.23166e-07
1.28359e-05
-1.91902e-07
1.25739e-05
-1.99256e-07
-5.53604e-08
1.21954e-05
1.76339e-05
1.16119e-05
8.68941e-06
7.35494e-06
6.70542e-06
6.35786e-06
6.08189e-06
5.84123e-06
5.72465e-06
5.58887e-06
5.44931e-06
5.37563e-06
5.31951e-06
5.17632e-06
5.09519e-06
4.99927e-06
4.87611e-06
4.6842e-06
4.48495e-06
4.42959e-06
5.57732e-06
-2.41901e-07
-2.40224e-07
5.97494e-06
-9.3077e-08
-3.04544e-07
6.28404e-06
-9.24312e-08
-2.1667e-07
6.585e-06
-1.56975e-07
-1.43991e-07
6.87234e-06
-2.21985e-07
-6.53512e-08
7.12271e-06
-2.47928e-07
-2.43694e-09
7.30508e-06
-2.4909e-07
6.67128e-08
7.43353e-06
-2.26778e-07
9.83333e-08
7.5251e-06
-2.10422e-07
1.18854e-07
7.59987e-06
-1.84905e-07
1.10134e-07
7.64893e-06
-1.77089e-07
1.28025e-07
7.68795e-06
-1.76902e-07
1.37882e-07
7.68831e-06
-1.67573e-07
1.67214e-07
7.70219e-06
-1.46235e-07
1.32359e-07
7.71588e-06
-3.50829e-08
2.13887e-08
7.74991e-06
8.38057e-08
-1.17836e-07
7.84375e-06
2.03695e-07
-2.97538e-07
8.01113e-06
3.3959e-07
-5.06964e-07
8.2452e-06
4.72439e-07
-7.06515e-07
8.51864e-06
5.39853e-07
-8.13291e-07
8.84324e-06
5.78992e-07
-9.03589e-07
9.21291e-06
6.01839e-07
-9.71507e-07
9.59361e-06
5.66091e-07
-9.46797e-07
9.95007e-06
4.89869e-07
-8.46327e-07
1.026e-05
3.63292e-07
-6.73198e-07
1.05044e-05
2.08875e-07
-4.53259e-07
1.0654e-05
1.90809e-08
-1.68715e-07
1.07295e-05
-1.64923e-07
8.93934e-08
1.07495e-05
-3.43584e-07
3.2357e-07
1.06965e-05
-4.94399e-07
5.4745e-07
1.06401e-05
-6.12546e-07
6.6897e-07
1.05914e-05
-6.84405e-07
7.33106e-07
1.0549e-05
-7.0662e-07
7.48949e-07
1.05517e-05
-7.07619e-07
7.04922e-07
1.05789e-05
-6.79329e-07
6.52204e-07
1.06435e-05
-6.60818e-07
5.96156e-07
1.07388e-05
-6.09813e-07
5.14542e-07
1.0836e-05
-5.98438e-07
5.01224e-07
1.09423e-05
-5.60783e-07
4.54493e-07
1.10562e-05
-5.47973e-07
4.34087e-07
1.11603e-05
-5.2609e-07
4.22e-07
1.12468e-05
-5.40472e-07
4.53983e-07
1.12998e-05
-5.41485e-07
4.88422e-07
1.13301e-05
-5.3862e-07
5.08368e-07
1.13776e-05
-5.2946e-07
4.81953e-07
1.13593e-05
-4.81043e-07
4.99288e-07
1.13561e-05
-4.29197e-07
4.32438e-07
1.13253e-05
-2.86117e-07
3.16925e-07
1.13774e-05
-1.42818e-07
9.07037e-08
1.14836e-05
6.51254e-08
-1.71339e-07
1.16056e-05
1.97615e-07
-3.19625e-07
1.18049e-05
3.14977e-07
-5.14208e-07
1.19555e-05
3.71678e-07
-5.22373e-07
1.21547e-05
3.3557e-07
-5.34718e-07
1.22833e-05
3.38828e-07
-4.67416e-07
1.23992e-05
1.82092e-07
-2.98038e-07
1.25566e-05
1.84159e-07
-3.41502e-07
1.25963e-05
1.05946e-07
-1.45626e-07
1.27551e-05
5.67669e-08
-2.156e-07
1.28569e-05
8.87734e-08
-1.90611e-07
1.29519e-05
3.18181e-08
-1.26785e-07
1.31847e-05
7.7268e-08
-3.10087e-07
1.33002e-05
1.40478e-07
-2.55929e-07
1.35832e-05
7.51948e-08
-3.58195e-07
1.379e-05
2.35318e-07
-4.42153e-07
1.40865e-05
1.55616e-07
-4.52125e-07
1.44169e-05
1.89169e-07
-5.1958e-07
1.47402e-05
2.6914e-07
-5.92428e-07
1.51062e-05
8.83182e-08
-4.54295e-07
1.55641e-05
1.7763e-07
-6.35511e-07
1.5916e-05
1.05216e-08
-3.62477e-07
1.63142e-05
-1.87421e-07
-2.10752e-07
1.66599e-05
-2.83384e-07
-6.23513e-08
1.69617e-05
-5.19675e-07
2.17938e-07
1.73348e-05
-7.19556e-07
3.46412e-07
1.76472e-05
-9.23968e-07
6.11561e-07
1.80422e-05
-1.07894e-06
6.83957e-07
1.84955e-05
-1.33804e-06
8.84792e-07
1.89023e-05
-1.4773e-06
1.07044e-06
1.95066e-05
-1.70518e-06
1.10087e-06
2.00973e-05
-1.91012e-06
1.31945e-06
2.07906e-05
-2.13174e-06
1.43838e-06
2.15669e-05
-2.36782e-06
1.59159e-06
2.2462e-05
-2.59505e-06
1.69996e-06
2.34506e-05
-2.9701e-06
1.98142e-06
2.45122e-05
-3.3832e-06
2.32159e-06
2.56407e-05
-3.88633e-06
2.75787e-06
2.67581e-05
-4.55406e-06
3.4367e-06
2.78621e-05
-5.39501e-06
4.29094e-06
2.88584e-05
-6.20966e-06
5.21341e-06
2.97826e-05
-7.22149e-06
6.29727e-06
3.04823e-05
-8.07175e-06
7.37207e-06
3.09485e-05
-8.88767e-06
8.4215e-06
3.12951e-05
-9.63534e-06
9.28872e-06
3.1335e-05
-1.00341e-05
9.99424e-06
3.12097e-05
-1.0327e-05
1.04523e-05
3.09141e-05
-1.03389e-05
1.06344e-05
3.03519e-05
-9.93877e-06
1.0501e-05
2.96953e-05
-9.47409e-06
1.01306e-05
2.89746e-05
-8.91846e-06
9.63919e-06
2.82465e-05
-8.3623e-06
9.09044e-06
2.75791e-05
-7.86089e-06
8.5283e-06
2.70542e-05
-7.31903e-06
7.84388e-06
2.657e-05
-6.62214e-06
7.10639e-06
2.62244e-05
-6.00882e-06
6.35442e-06
2.58835e-05
-5.35355e-06
5.69444e-06
2.55513e-05
-4.77277e-06
5.10497e-06
2.53217e-05
-4.45404e-06
4.6836e-06
2.51147e-05
-4.21493e-06
4.42194e-06
2.49204e-05
-4.05678e-06
4.25109e-06
2.48756e-05
-4.0614e-06
4.10616e-06
2.4818e-05
-4.14448e-06
4.20208e-06
2.47567e-05
-4.19328e-06
4.25464e-06
2.48845e-05
-4.46844e-06
4.34062e-06
2.49769e-05
-4.84058e-06
4.74816e-06
2.52269e-05
-5.32837e-06
5.07839e-06
2.57519e-05
-5.92949e-06
5.40446e-06
2.63492e-05
-6.70993e-06
6.11266e-06
2.69837e-05
-7.18956e-06
6.55501e-06
2.80276e-05
-7.83945e-06
6.79556e-06
2.91523e-05
-8.35559e-06
7.23093e-06
3.01491e-05
-8.36875e-06
7.37189e-06
3.13799e-05
-8.13748e-06
6.90668e-06
3.25772e-05
-7.86443e-06
6.66717e-06
3.35919e-05
-7.03103e-06
6.01636e-06
3.45522e-05
-5.8488e-06
4.88844e-06
3.54083e-05
-4.69638e-06
3.84029e-06
3.60745e-05
-3.24398e-06
2.57782e-06
3.66537e-05
-1.63198e-06
1.05282e-06
3.70349e-05
-7.29907e-08
-3.0823e-07
3.72316e-05
1.57644e-06
-1.77315e-06
3.72647e-05
3.12917e-06
-3.1623e-06
3.71361e-05
4.57788e-06
-4.44925e-06
3.67985e-05
5.75454e-06
-5.41696e-06
3.63634e-05
6.88084e-06
-6.44579e-06
3.58166e-05
7.66782e-06
-7.12093e-06
3.51501e-05
8.19746e-06
-7.53098e-06
3.44773e-05
8.67193e-06
-7.99917e-06
3.36969e-05
8.73442e-06
-7.95405e-06
3.29121e-05
8.45368e-06
-7.66885e-06
3.20714e-05
8.28562e-06
-7.44495e-06
3.14352e-05
7.24811e-06
-6.6119e-06
3.0618e-05
6.29954e-06
-5.48227e-06
2.97199e-05
5.4968e-06
-4.59869e-06
2.86641e-05
3.68415e-06
-2.62844e-06
2.72387e-05
2.35826e-06
-9.32796e-07
2.56427e-05
1.28201e-06
3.13929e-07
2.4231e-05
-9.16344e-07
2.32809e-06
2.24313e-05
-2.63963e-06
4.43933e-06
1.99309e-05
-2.03355e-06
4.53394e-06
1.77582e-05
-8.16143e-07
2.98886e-06
1.6654e-05
-1.76316e-06
2.86735e-06
1.63718e-05
-6.59584e-06
6.87807e-06
1.67049e-05
-1.3656e-05
1.33229e-05
1.73171e-05
-2.04311e-05
1.98189e-05
1.797e-05
-2.39974e-05
2.33446e-05
1.86742e-05
-2.48105e-05
2.41063e-05
1.92097e-05
-2.31978e-05
2.26623e-05
1.97482e-05
-1.99156e-05
1.93771e-05
2.01501e-05
-1.64856e-05
1.60837e-05
2.11106e-05
-1.2562e-05
1.16014e-05
2.15284e-05
-7.93965e-06
7.52188e-06
2.22712e-05
-4.0329e-06
3.29011e-06
2.30056e-05
5.10476e-07
-1.24486e-06
2.33065e-05
4.61323e-06
-4.91413e-06
2.36535e-05
7.95923e-06
-8.30625e-06
2.44113e-05
1.14294e-05
-1.21872e-05
2.46169e-05
1.50582e-05
-1.52637e-05
2.52392e-05
1.80133e-05
-1.86356e-05
2.58469e-05
2.15251e-05
-2.21328e-05
2.57267e-05
2.43896e-05
-2.42694e-05
2.54513e-05
2.59456e-05
-2.56702e-05
2.44027e-05
2.7067e-05
-2.60184e-05
2.36488e-05
2.70197e-05
-2.62658e-05
2.37259e-05
2.65931e-05
-2.66702e-05
2.2758e-05
2.65491e-05
-2.55813e-05
2.22001e-05
2.49966e-05
-2.44386e-05
2.17841e-05
2.353e-05
-2.3114e-05
2.04727e-05
2.20907e-05
-2.07793e-05
2.00568e-05
1.9127e-05
-1.87112e-05
1.94713e-05
1.68872e-05
-1.63016e-05
1.82621e-05
1.52723e-05
-1.40631e-05
1.85361e-05
1.22347e-05
-1.25087e-05
1.70433e-05
1.30925e-05
-1.15997e-05
1.73168e-05
8.69732e-06
-8.97076e-06
1.63116e-05
9.68231e-06
-8.67717e-06
1.67148e-05
4.03398e-06
-4.43714e-06
1.58563e-05
5.69436e-06
-4.83594e-06
1.69403e-05
-5.5711e-07
-5.26805e-07
1.63474e-05
2.89798e-06
-2.30516e-06
1.78409e-05
-4.21596e-06
2.72245e-06
1.67731e-05
1.92492e-07
8.75333e-07
1.86646e-05
-8.45188e-06
6.56039e-06
1.70221e-05
-3.14168e-06
4.78416e-06
1.86673e-05
-1.02705e-05
8.62539e-06
1.64254e-05
-3.40797e-06
5.64982e-06
1.73999e-05
-7.97605e-06
7.00159e-06
1.33362e-05
1.61286e-06
2.45084e-06
1.46683e-05
-2.86499e-06
1.53294e-06
1.01273e-05
-9.41368e-06
1.39546e-05
1.28441e-05
-2.27999e-07
1.29719e-05
-2.20881e-07
1.31609e-05
-2.81413e-07
1.33683e-05
-3.64363e-07
1.35513e-05
-4.04923e-07
1.36987e-05
-3.954e-07
1.37972e-05
-3.47556e-07
1.386e-05
-2.89567e-07
1.38982e-05
-2.48684e-07
1.39248e-05
-2.11418e-07
1.39387e-05
-1.91045e-07
1.394e-05
-1.78224e-07
1.39236e-05
-1.51146e-07
1.38927e-05
-1.15315e-07
1.39038e-05
-4.61655e-08
1.39319e-05
5.56386e-08
1.39701e-05
1.6555e-07
1.40362e-05
2.73421e-07
1.41396e-05
3.69095e-07
1.42526e-05
4.2688e-07
1.43842e-05
4.47395e-07
1.45469e-05
4.39093e-07
1.47118e-05
4.01243e-07
1.48786e-05
3.23064e-07
1.50371e-05
2.04787e-07
1.51691e-05
7.68596e-08
1.52698e-05
-8.15946e-08
1.53555e-05
-2.50711e-07
1.54177e-05
-4.05736e-07
1.54563e-05
-5.33047e-07
1.54937e-05
-6.49866e-07
1.5525e-05
-7.15714e-07
1.55754e-05
-7.57018e-07
1.56394e-05
-7.71607e-07
1.57169e-05
-7.56828e-07
1.58118e-05
-7.55779e-07
1.59194e-05
-7.17383e-07
1.60275e-05
-7.06526e-07
1.6143e-05
-6.76289e-07
1.62483e-05
-6.53261e-07
1.63639e-05
-6.4169e-07
1.64389e-05
-6.15526e-07
1.65191e-05
-6.21619e-07
1.65623e-05
-5.81809e-07
1.66136e-05
-5.80857e-07
1.66285e-05
-4.95904e-07
1.66323e-05
-4.32969e-07
1.66576e-05
-3.11472e-07
1.66808e-05
-1.65956e-07
1.6789e-05
-4.31133e-08
1.68545e-05
1.32098e-07
1.69756e-05
1.93929e-07
1.70707e-05
2.76587e-07
1.71353e-05
2.7097e-07
1.72324e-05
2.41747e-07
1.72056e-05
2.0888e-07
1.72779e-05
1.11829e-07
1.72734e-05
1.10419e-07
1.72778e-05
5.24036e-08
1.73374e-05
2.91869e-08
1.73298e-05
3.94155e-08
1.74302e-05
-2.31397e-08
1.74953e-05
7.53852e-08
1.76158e-05
-4.53242e-08
1.77866e-05
6.44993e-08
1.79516e-05
-9.37177e-09
1.81908e-05
-5.00555e-08
1.84733e-05
-1.33799e-08
1.87337e-05
-1.72048e-07
1.91143e-05
-2.02987e-07
1.94702e-05
-3.45383e-07
1.98184e-05
-5.35557e-07
2.02187e-05
-6.83725e-07
2.06091e-05
-9.10089e-07
2.10209e-05
-1.13133e-06
2.14481e-05
-1.35122e-06
2.19415e-05
-1.5723e-06
2.24604e-05
-1.85696e-06
2.3027e-05
-2.04387e-06
2.36559e-05
-2.33411e-06
2.43248e-05
-2.57899e-06
2.50698e-05
-2.87677e-06
2.58519e-05
-3.14992e-06
2.67533e-05
-3.49645e-06
2.76293e-05
-3.84608e-06
2.85929e-05
-4.34682e-06
2.95705e-05
-4.86391e-06
3.04686e-05
-5.45211e-06
3.12962e-05
-6.22261e-06
3.20372e-05
-6.95067e-06
3.26007e-05
-7.78499e-06
3.29482e-05
-8.41929e-06
3.30641e-05
-9.0036e-06
3.29493e-05
-9.52052e-06
3.26088e-05
-9.69357e-06
3.21179e-05
-9.83612e-06
3.14083e-05
-9.62927e-06
3.05822e-05
-9.11276e-06
2.97309e-05
-8.62274e-06
2.87907e-05
-7.97827e-06
2.79373e-05
-7.50886e-06
2.7219e-05
-7.14264e-06
2.65719e-05
-6.67195e-06
2.60673e-05
-6.11753e-06
2.56591e-05
-5.60055e-06
2.52481e-05
-4.94259e-06
2.49784e-05
-4.50304e-06
2.47332e-05
-4.20892e-06
2.44719e-05
-3.95358e-06
2.43627e-05
-3.9476e-06
2.42949e-05
-3.99359e-06
2.41356e-05
-3.9852e-06
2.42492e-05
-4.3069e-06
2.43858e-05
-4.60501e-06
2.44995e-05
-4.95425e-06
2.49476e-05
-5.77646e-06
2.55087e-05
-6.49059e-06
2.59944e-05
-7.19569e-06
2.69116e-05
-8.10669e-06
2.80344e-05
-8.96229e-06
2.90382e-05
-9.35938e-06
3.02103e-05
-9.54083e-06
3.1467e-05
-9.39424e-06
3.25326e-05
-8.93003e-06
3.3478e-05
-7.97638e-06
3.44469e-05
-6.81775e-06
3.52021e-05
-5.45155e-06
3.58466e-05
-3.88846e-06
3.63975e-05
-2.18286e-06
3.68251e-05
-5.00663e-07
3.70574e-05
1.34418e-06
3.72401e-05
2.94642e-06
3.72152e-05
4.6028e-06
3.70536e-05
5.91615e-06
3.67107e-05
7.22373e-06
3.62195e-05
8.15901e-06
3.55354e-05
8.8816e-06
3.46844e-05
9.52292e-06
3.37161e-05
9.70272e-06
3.25331e-05
9.63669e-06
3.14227e-05
9.39604e-06
3.02577e-05
8.41303e-06
2.90163e-05
7.54098e-06
2.8109e-05
6.40409e-06
2.73092e-05
4.484e-06
2.59083e-05
3.75912e-06
2.44273e-05
2.76305e-06
2.29098e-05
6.01172e-07
2.07994e-05
-5.29276e-07
1.83997e-05
3.66106e-07
1.65963e-05
9.87331e-07
1.57846e-05
-9.51515e-07
1.57924e-05
-6.60358e-06
1.6103e-05
-1.39667e-05
1.65684e-05
-2.08965e-05
1.71848e-05
-2.46138e-05
1.78146e-05
-2.54403e-05
1.81776e-05
-2.35608e-05
1.8905e-05
-2.06429e-05
1.93215e-05
-1.69021e-05
2.0082e-05
-1.33225e-05
2.08481e-05
-8.70573e-06
2.14601e-05
-4.64492e-06
2.23864e-05
-4.15821e-07
2.29065e-05
4.09318e-06
2.31918e-05
7.67385e-06
2.37108e-05
1.09104e-05
2.44299e-05
1.43391e-05
2.47785e-05
1.76647e-05
2.56807e-05
2.0623e-05
2.59618e-05
2.41085e-05
2.59064e-05
2.6001e-05
2.60593e-05
2.69141e-05
2.5176e-05
2.7903e-05
2.45179e-05
2.72512e-05
2.45073e-05
2.65598e-05
2.33373e-05
2.61666e-05
2.29637e-05
2.39036e-05
2.27668e-05
2.22876e-05
2.10585e-05
2.08353e-05
2.14679e-05
1.64777e-05
2.00164e-05
1.67238e-05
1.99859e-05
1.22652e-05
1.95706e-05
1.35078e-05
1.96143e-05
8.65368e-06
1.91458e-05
1.01507e-05
2.04495e-05
2.73035e-06
1.92367e-05
6.90711e-06
2.10812e-05
-2.40158e-06
1.96699e-05
4.30932e-06
2.12985e-05
-5.84462e-06
2.00491e-05
1.44192e-06
2.12396e-05
-9.64243e-06
1.9686e-05
-1.588e-06
2.12313e-05
-1.18158e-05
1.97153e-05
-1.89202e-06
2.17716e-05
-1.00324e-05
2.09316e-05
2.45292e-06
2.0746e-05
-2.67943e-06
9.05481e-06
2.18185e-05
1.92455e-05
-2.44436e-07
1.9433e-05
-4.0841e-07
1.96779e-05
-5.26266e-07
1.98984e-05
-5.84878e-07
2.00391e-05
-5.4557e-07
2.01126e-05
-4.6892e-07
2.01442e-05
-3.79206e-07
2.01581e-05
-3.03443e-07
2.01652e-05
-2.55826e-07
2.0161e-05
-2.07123e-07
2.01518e-05
-1.81924e-07
2.01296e-05
-1.55989e-07
2.01013e-05
-1.22816e-07
2.00778e-05
-9.18625e-08
2.00674e-05
-3.5761e-08
2.00738e-05
4.92331e-08
2.01074e-05
1.31988e-07
2.0151e-05
2.29816e-07
2.02131e-05
3.06996e-07
2.02965e-05
3.43451e-07
2.03713e-05
3.72612e-07
2.04721e-05
3.38322e-07
2.05672e-05
3.06141e-07
2.06612e-05
2.29064e-07
2.07511e-05
1.14848e-07
2.08264e-05
1.58907e-09
2.0892e-05
-1.47193e-07
2.09418e-05
-3.00579e-07
2.0982e-05
-4.45939e-07
2.10186e-05
-5.69593e-07
2.10516e-05
-6.82913e-07
2.10822e-05
-7.46303e-07
2.11335e-05
-8.08261e-07
2.11788e-05
-8.16909e-07
2.12484e-05
-8.26492e-07
2.13133e-05
-8.20595e-07
2.13973e-05
-8.01423e-07
2.14722e-05
-7.81457e-07
2.15648e-05
-7.68891e-07
2.1636e-05
-7.24402e-07
2.17142e-05
-7.19959e-07
2.17797e-05
-6.81001e-07
2.18247e-05
-6.66567e-07
2.1872e-05
-6.2919e-07
2.18815e-05
-5.90284e-07
2.1915e-05
-5.29452e-07
2.19107e-05
-4.28662e-07
2.19449e-05
-3.45631e-07
2.19708e-05
-1.91909e-07
2.20201e-05
-9.24247e-08
2.21064e-05
4.58222e-08
2.21506e-05
1.49704e-07
2.22427e-05
1.84496e-07
2.22734e-05
2.40264e-07
2.23222e-05
1.9299e-07
2.23322e-05
1.9889e-07
2.23372e-05
1.06831e-07
2.23383e-05
1.093e-07
2.23435e-05
4.71742e-08
2.23459e-05
2.68037e-08
2.23768e-05
8.48553e-09
2.24005e-05
-4.68498e-08
2.24792e-05
-3.27113e-09
2.25409e-05
-1.07053e-07
2.26765e-05
-7.10469e-08
2.28147e-05
-1.47576e-07
2.29801e-05
-2.15481e-07
2.32188e-05
-2.52044e-07
2.34481e-05
-4.01386e-07
2.37295e-05
-4.84368e-07
2.4052e-05
-6.67856e-07
2.43616e-05
-8.45203e-07
2.47255e-05
-1.04758e-06
2.50989e-05
-1.28357e-06
2.54901e-05
-1.52251e-06
2.59296e-05
-1.79068e-06
2.64101e-05
-2.05277e-06
2.68758e-05
-2.32272e-06
2.74649e-05
-2.63291e-06
2.80276e-05
-2.89686e-06
2.86422e-05
-3.19363e-06
2.93213e-05
-3.5558e-06
3.00004e-05
-3.82903e-06
3.07164e-05
-4.21241e-06
3.14587e-05
-4.58845e-06
3.216e-05
-5.04809e-06
3.28575e-05
-5.56137e-06
3.34568e-05
-6.0515e-06
3.39136e-05
-6.67936e-06
3.4286e-05
-7.32306e-06
3.43643e-05
-7.86336e-06
3.43011e-05
-8.35607e-06
3.3985e-05
-8.68748e-06
3.34334e-05
-8.96887e-06
3.28219e-05
-9.08212e-06
3.20164e-05
-9.03055e-06
3.11132e-05
-8.72612e-06
3.02253e-05
-8.22489e-06
2.93573e-05
-7.7547e-06
2.85814e-05
-7.20234e-06
2.78849e-05
-6.81236e-06
2.72252e-05
-6.483e-06
2.65878e-05
-6.03447e-06
2.61526e-05
-5.68238e-06
2.57275e-05
-5.17544e-06
2.53902e-05
-4.60524e-06
2.51635e-05
-4.27636e-06
2.4837e-05
-3.88249e-06
2.45847e-05
-3.70128e-06
2.43812e-05
-3.74408e-06
2.41288e-05
-3.74121e-06
2.40164e-05
-3.87277e-06
2.40291e-05
-4.31959e-06
2.40511e-05
-4.62705e-06
2.42659e-05
-5.16901e-06
2.45884e-05
-6.09895e-06
2.50237e-05
-6.92588e-06
2.56778e-05
-7.84979e-06
2.66353e-05
-9.06418e-06
2.75894e-05
-9.9164e-06
2.85589e-05
-1.03289e-05
2.96576e-05
-1.06396e-05
3.06274e-05
-1.03641e-05
3.14616e-05
-9.76421e-06
3.23888e-05
-8.90351e-06
3.32705e-05
-7.69954e-06
3.39574e-05
-6.13844e-06
3.46182e-05
-4.54919e-06
3.51402e-05
-2.70493e-06
3.54899e-05
-8.50361e-07
3.57912e-05
1.04293e-06
3.59391e-05
2.79847e-06
3.60094e-05
4.5325e-06
3.60261e-05
5.89952e-06
3.58886e-05
7.36121e-06
3.5636e-05
8.41156e-06
3.52038e-05
9.31382e-06
3.4551e-05
1.01757e-05
3.37416e-05
1.05122e-05
3.24303e-05
1.09479e-05
3.11039e-05
1.07225e-05
2.96803e-05
9.83665e-06
2.81866e-05
9.03463e-06
2.68578e-05
7.73296e-06
2.53408e-05
6.00101e-06
2.39846e-05
5.11524e-06
2.28953e-05
3.85239e-06
2.16421e-05
1.85437e-06
1.94413e-05
1.67148e-06
1.71708e-05
2.63661e-06
1.57191e-05
2.43904e-06
1.52301e-05
-4.62443e-07
1.51929e-05
-6.56639e-06
1.53139e-05
-1.40877e-05
1.58075e-05
-2.13901e-05
1.61561e-05
-2.49624e-05
1.67181e-05
-2.60023e-05
1.71896e-05
-2.40323e-05
1.77556e-05
-2.1209e-05
1.8354e-05
-1.75005e-05
1.90105e-05
-1.39789e-05
1.99858e-05
-9.68106e-06
2.0521e-05
-5.18007e-06
2.15546e-05
-1.44951e-06
2.22719e-05
3.3759e-06
2.28219e-05
7.12384e-06
2.31115e-05
1.06208e-05
2.38461e-05
1.36045e-05
2.43923e-05
1.71185e-05
2.50879e-05
1.99274e-05
2.62246e-05
2.29718e-05
2.61096e-05
2.6116e-05
2.59328e-05
2.70908e-05
2.63325e-05
2.75033e-05
2.55812e-05
2.80025e-05
2.55576e-05
2.65833e-05
2.56582e-05
2.60659e-05
2.41022e-05
2.54596e-05
2.46021e-05
2.17878e-05
2.37128e-05
2.17246e-05
2.30754e-05
1.71151e-05
2.2939e-05
1.68602e-05
2.26895e-05
1.25147e-05
2.18209e-05
1.43765e-05
2.33979e-05
7.07664e-06
2.17682e-05
1.17805e-05
2.35025e-05
9.96057e-07
2.18128e-05
8.59679e-06
2.22378e-05
-2.82656e-06
2.13451e-05
5.20195e-06
2.09129e-05
-5.41243e-06
2.08415e-05
1.51335e-06
1.96037e-05
-8.40466e-06
1.98696e-05
-1.85383e-06
1.88745e-05
-1.08208e-05
1.95637e-05
-2.58126e-06
1.90716e-05
-9.54027e-06
2.16191e-05
-9.45432e-08
2.26728e-05
-3.73314e-06
6.11394e-06
2.56137e-05
2.45237e-05
-4.86075e-07
2.49906e-05
-8.75243e-07
2.53788e-05
-9.14509e-07
2.55345e-05
-7.40543e-07
2.55873e-05
-5.98374e-07
2.55916e-05
-4.73286e-07
2.55683e-05
-3.55832e-07
2.5546e-05
-2.81138e-07
2.55302e-05
-2.401e-07
2.55063e-05
-1.83185e-07
2.54882e-05
-1.63797e-07
2.54614e-05
-1.29192e-07
2.54295e-05
-9.09198e-08
2.54082e-05
-7.05555e-08
2.53934e-05
-2.09877e-08
2.53944e-05
4.82753e-08
2.54267e-05
9.96562e-08
2.5466e-05
1.90467e-07
2.55216e-05
2.51428e-07
2.55937e-05
2.71372e-07
2.56517e-05
3.14619e-07
2.5731e-05
2.58997e-07
2.57979e-05
2.3927e-07
2.58641e-05
1.62798e-07
2.59245e-05
5.44385e-08
2.598e-05
-5.38371e-08
2.60222e-05
-1.89427e-07
2.60577e-05
-3.36113e-07
2.60715e-05
-4.59696e-07
2.60845e-05
-5.82608e-07
2.6097e-05
-6.95417e-07
2.60954e-05
-7.44701e-07
2.61205e-05
-8.33344e-07
2.61297e-05
-8.26122e-07
2.61645e-05
-8.61251e-07
2.61934e-05
-8.49546e-07
2.62309e-05
-8.38919e-07
2.62753e-05
-8.25884e-07
2.63151e-05
-8.08623e-07
2.63693e-05
-7.78606e-07
2.63918e-05
-7.42474e-07
2.64466e-05
-7.3577e-07
2.6451e-05
-6.70967e-07
2.64725e-05
-6.50708e-07
2.64765e-05
-5.94261e-07
2.64698e-05
-5.22794e-07
2.64889e-05
-4.47719e-07
2.64852e-05
-3.41982e-07
2.65191e-05
-2.25783e-07
2.65448e-05
-1.18117e-07
2.65996e-05
-8.99506e-09
2.66585e-05
9.08303e-08
2.67067e-05
1.36302e-07
2.67625e-05
1.84385e-07
2.67899e-05
1.6561e-07
2.68204e-05
1.684e-07
2.68355e-05
9.16999e-08
2.68341e-05
1.10733e-07
2.68617e-05
1.95548e-08
2.6867e-05
2.15371e-08
2.69018e-05
-2.63501e-08
2.69403e-05
-8.53525e-08
2.70161e-05
-7.89985e-08
2.70814e-05
-1.72426e-07
2.72108e-05
-2.00399e-07
2.73358e-05
-2.72617e-07
2.74836e-05
-3.63297e-07
2.7693e-05
-4.61382e-07
2.78919e-05
-6.00327e-07
2.81408e-05
-7.332e-07
2.84119e-05
-9.38975e-07
2.86862e-05
-1.11956e-06
2.89965e-05
-1.35781e-06
2.93121e-05
-1.59925e-06
2.96502e-05
-1.86056e-06
3.00118e-05
-2.15229e-06
3.04009e-05
-2.44192e-06
3.0788e-05
-2.70975e-06
3.12328e-05
-3.07772e-06
3.16843e-05
-3.34837e-06
3.215e-05
-3.65933e-06
3.26383e-05
-4.04408e-06
3.31324e-05
-4.3232e-06
3.36064e-05
-4.68638e-06
3.41093e-05
-5.09136e-06
3.44866e-05
-5.42542e-06
3.4841e-05
-5.91571e-06
3.50687e-05
-6.27922e-06
3.51621e-05
-6.77274e-06
3.50842e-05
-7.24518e-06
3.47797e-05
-7.55886e-06
3.43456e-05
-7.92202e-06
3.37316e-05
-8.0734e-06
3.30052e-05
-8.24248e-06
3.22435e-05
-8.32044e-06
3.13935e-05
-8.18061e-06
3.05623e-05
-7.89486e-06
2.98893e-05
-7.55191e-06
2.92402e-05
-7.10556e-06
2.87021e-05
-6.66425e-06
2.81799e-05
-6.29019e-06
2.76355e-05
-5.93861e-06
2.71648e-05
-5.56374e-06
2.67208e-05
-5.23837e-06