/*--------------------------------*- C++ -*----------------------------------*\
| =========                 |                                                 |
| \\      /  F ield         | OpenFOAM: The Open Source CFD Toolbox           |
|  \\    /   O peration     | Version:  2.4.0                                 |
|   \\  /    A nd           | Web:      www.OpenFOAM.org                      |
|    \\/     M anipulation  |                                                 |
\*---------------------------------------------------------------------------*/
FoamFile
{
    version     2.0;
    format      ascii;
    class       volScalarField;
    location    "0.43";
    object      pPrime2Mean;
}
// * * * * * * * * * * * * * * * * * * * * * * * * * * * * * * * * * * * * * //

dimensions      [0 4 -4 0 0 0 0];

internalField   nonuniform List<scalar> 
8800
(
1.50339e+06
1.46546e+06
1.42475e+06
1.38439e+06
1.34459e+06
1.30536e+06
1.26671e+06
1.22864e+06
1.19115e+06
1.15423e+06
1.11789e+06
1.08211e+06
1.0469e+06
1.01222e+06
978041
944305
910881
877508
843588
807223
1.50345e+06
1.46546e+06
1.42475e+06
1.38439e+06
1.34459e+06
1.30536e+06
1.26671e+06
1.22864e+06
1.19115e+06
1.15423e+06
1.11789e+06
1.08211e+06
1.0469e+06
1.01222e+06
978050
944323
910917
877584
843775
807838
1.50348e+06
1.46546e+06
1.42474e+06
1.38439e+06
1.34458e+06
1.30536e+06
1.26671e+06
1.22864e+06
1.19115e+06
1.15423e+06
1.11789e+06
1.08212e+06
1.0469e+06
1.01223e+06
978069
944359
910987
877731
844117
809035
1.5035e+06
1.46546e+06
1.42473e+06
1.38438e+06
1.34458e+06
1.30536e+06
1.26671e+06
1.22864e+06
1.19115e+06
1.15423e+06
1.11789e+06
1.08212e+06
1.04691e+06
1.01225e+06
978097
944411
911089
877940
844595
810428
1.50353e+06
1.46546e+06
1.42472e+06
1.38437e+06
1.34458e+06
1.30536e+06
1.26671e+06
1.22864e+06
1.19115e+06
1.15423e+06
1.1179e+06
1.08213e+06
1.04692e+06
1.01226e+06
978132
944478
911218
878201
845169
811869
1.50354e+06
1.46546e+06
1.42471e+06
1.38437e+06
1.34458e+06
1.30536e+06
1.26671e+06
1.22864e+06
1.19115e+06
1.15424e+06
1.1179e+06
1.08213e+06
1.04693e+06
1.01229e+06
978174
944557
911369
878501
845799
813276
1.50356e+06
1.46546e+06
1.42471e+06
1.38436e+06
1.34457e+06
1.30536e+06
1.26671e+06
1.22864e+06
1.19115e+06
1.15424e+06
1.1179e+06
1.08214e+06
1.04695e+06
1.01231e+06
978222
944646
911538
878828
846456
814613
1.50356e+06
1.46546e+06
1.42471e+06
1.38436e+06
1.34457e+06
1.30535e+06
1.26671e+06
1.22864e+06
1.19115e+06
1.15424e+06
1.11791e+06
1.08215e+06
1.04696e+06
1.01234e+06
978274
944743
911719
879172
847118
815861
1.50357e+06
1.46546e+06
1.4247e+06
1.38436e+06
1.34457e+06
1.30536e+06
1.26671e+06
1.22864e+06
1.19115e+06
1.15424e+06
1.11791e+06
1.08216e+06
1.04698e+06
1.01237e+06
978330
944845
911908
879522
847766
817010
1.50357e+06
1.46547e+06
1.4247e+06
1.38436e+06
1.34457e+06
1.30536e+06
1.26671e+06
1.22864e+06
1.19115e+06
1.15424e+06
1.11792e+06
1.08217e+06
1.047e+06
1.0124e+06
978387
944949
912098
879868
848388
818057
1.50357e+06
1.46547e+06
1.4247e+06
1.38436e+06
1.34457e+06
1.30536e+06
1.26671e+06
1.22864e+06
1.19115e+06
1.15425e+06
1.11792e+06
1.08218e+06
1.04701e+06
1.01243e+06
978444
945052
912285
880204
848973
819000
1.50357e+06
1.46546e+06
1.4247e+06
1.38436e+06
1.34457e+06
1.30536e+06
1.26671e+06
1.22864e+06
1.19116e+06
1.15425e+06
1.11793e+06
1.08219e+06
1.04703e+06
1.01246e+06
978499
945153
912466
880522
849513
819842
1.50356e+06
1.46546e+06
1.42471e+06
1.38436e+06
1.34457e+06
1.30536e+06
1.26671e+06
1.22864e+06
1.19116e+06
1.15425e+06
1.11793e+06
1.08219e+06
1.04705e+06
1.01249e+06
978553
945249
912636
880817
850002
820584
1.50356e+06
1.46546e+06
1.42471e+06
1.38436e+06
1.34458e+06
1.30536e+06
1.26671e+06
1.22864e+06
1.19116e+06
1.15426e+06
1.11794e+06
1.0822e+06
1.04706e+06
1.01252e+06
978602
945337
912792
881084
850437
821229
1.50354e+06
1.46546e+06
1.42471e+06
1.38437e+06
1.34458e+06
1.30536e+06
1.26671e+06
1.22865e+06
1.19116e+06
1.15426e+06
1.11794e+06
1.08221e+06
1.04708e+06
1.01255e+06
978647
945416
912930
881319
850814
821779
1.50353e+06
1.46546e+06
1.42472e+06
1.38437e+06
1.34458e+06
1.30536e+06
1.26671e+06
1.22865e+06
1.19116e+06
1.15426e+06
1.11795e+06
1.08222e+06
1.04709e+06
1.01257e+06
978685
945485
913049
881519
851130
822235
1.5035e+06
1.46546e+06
1.42473e+06
1.38438e+06
1.34458e+06
1.30536e+06
1.26671e+06
1.22865e+06
1.19116e+06
1.15426e+06
1.11795e+06
1.08222e+06
1.0471e+06
1.01259e+06
978717
945542
913146
881681
851384
822599
1.50348e+06
1.46546e+06
1.42474e+06
1.38439e+06
1.34459e+06
1.30536e+06
1.26672e+06
1.22865e+06
1.19117e+06
1.15427e+06
1.11795e+06
1.08223e+06
1.04711e+06
1.0126e+06
978742
945585
913221
881804
851575
822869
1.50345e+06
1.46546e+06
1.42475e+06
1.38439e+06
1.34459e+06
1.30536e+06
1.26672e+06
1.22865e+06
1.19117e+06
1.15427e+06
1.11795e+06
1.08223e+06
1.04711e+06
1.01261e+06
978759
945615
913271
881887
851704
823049
1.50339e+06
1.46545e+06
1.42475e+06
1.3844e+06
1.34459e+06
1.30536e+06
1.26672e+06
1.22865e+06
1.19117e+06
1.15427e+06
1.11795e+06
1.08223e+06
1.04711e+06
1.01261e+06
978767
945629
913297
881929
851768
823136
774273
765402
758636
752786
747363
742200
737221
732380
727646
722996
718417
713896
709424
704994
700600
696238
691901
687587
683292
679016
674758
670519
666296
662090
657900
653725
649566
645422
641293
637181
633084
629004
624942
620898
616873
612865
608876
604904
600950
597012
593089
589179
585282
581396
577521
573655
569800
565955
562122
558299
554488
550688
546899
543121
539354
535601
531861
528135
524423
520723
517037
513362
509700
506050
502413
498788
495178
491581
487998
484430
480876
477337
473812
470301
466804
463321
459852
456398
452957
449533
446123
442730
439353
435991
432643
429307
425982
422670
419368
416077
412797
409527
406266
403014
399772
396540
393320
390111
386914
383729
380557
377399
374254
371123
368007
364905
361817
358742
355682
352635
349602
346582
343575
340583
337604
334639
331686
328747
325821
322907
320007
317120
314246
311387
308542
305712
302897
300097
297311
294540
291781
289036
286303
283583
280874
278176
275490
272815
270152
267500
264861
262234
259619
257017
254427
251848
249282
246728
244185
241656
239139
236636
234145
231668
229203
226752
224313
221888
219475
217075
214687
212313
209951
207603
205268
202947
200640
198347
196069
193807
191558
189326
187104
184901
182705
180531
178358
176210
174057
171931
169800
167692
165584
163490
161399
159318
157236
155161
153079
151000
148903
146800
144669
142515
140312
138058
135710
133227
130506
127294
780594
771141
763435
756799
750796
745184
739841
734697
729705
724834
720062
715371
710749
706186
701673
697204
692772
688372
684000
679655
675335
671038
666764
662512
658280
654067
649874
645699
641543
637405
633286
629186
625106
621045
617003
612981
608978
604993
601027
597077
593143
589224
585318
581425
577543
573672
569813
565964
562128
558303
554489
550688
546898
543120
539355
535603
531864
528139
524428
520730
517045
513372
509713
506065
502431
498809
495200
491605
488024
484457
480905
477366
473842
470332
466835
463353
459884
456430
452991
449568
446161
442771
439397
436037
432691
429357
426035
422724
419424
416135
412856
409587
406326
403074
399831
396599
393378
390169
386971
383786
380613
377454
374308
371177
368059
364955
361865
358789
355726
352676
349639
346616
343607
340612
337631
334664
331711
328772
325846
322934
320035
317149
314277
311419
308576
305748
302935
300136
297351
294580
291822
289077
286344
283622
280912
278213
275525
272849
270184
267532
264891
262263
259647
257043
254451
251870
249301
246744
244199
241666
239146
236640
234146
231667
229199
226745
224302
221872
219454
217049
214656
212276
209908
207552
205209
202879
200562
198259
195968
193694
191430
189183
186945
184726
182510
180317
178122
175950
173774
171619
169462
167319
165177
163043
160909
158780
156646
154513
152368
150216
148043
145848
143616
141340
138999
136567
134020
131236
128199
124628
784979
775600
767535
760429
753993
748009
742348
736930
731700
726621
721665
716811
712045
707353
702724
698151
693625
689141
684695
680282
675900
671548
667224
662926
658653
654404
650177
645972
641788
637626
633485
629365
625267
621189
617132
613096
609079
605082
601103
597142
593197
589269
585354
581453
577565
573689
569825
565972
562132
558305
554490
550687
546898
543121
539357
535606
531869
528145
524436
520739
517056
513386
509728
506084
502452
498833
495227
491634
488055
484489
480938
477400
473876
470366
466870
463388
459920
456466
453028
449606
446201
442814
439441
436084
432740
429408
426088
422779
419481
416194
412917
409648
406387
403135
399893
396661
393440
390231
387033
383848
380675
377515
374368
371236
368116
365010
361918
358838
355772
352718
349678
346651
343639
340641
337658
334690
331737
328798
325873
322962
320064
317179
314310
311454
308613
305786
302975
300177
297394
294623
291865
289118
286384
283660
280948
278246
275556
272878
270212
267558
264917
262287
259670
257064
254470
251886
249314
246753
244205
241669
239148
236639
234142
231660
229190
226731
224285
221851
219429
217019
214621
212235
209860
207497
205146
202807
200480
198167
195864
193578
191299
189039
186783
184548
182313
180100
177885
175689
173492
171307
169124
166948
164773
162600
160426
158249
156068
153877
151675
149453
147209
144928
142608
140218
137772
135180
132501
129540
126349
122768
788317
779187
771021
763654
756915
750639
744711
739053
733608
728337
723210
718204
713301
708485
703745
699072
694456
689890
685371
680892
676451
672045
667672
663330
659018
654732
650473
646239
642029
637843
633681
629542
625425
621332
617260
613209
609179
605169
601179
597206
593251
589313
585390
581481
577587
573705
569836
565980
562138
558308
554492
550689
546900
543123
539361
535611
531876
528154
524446
520751
517070
513402
509747
506105
502476
498860
495256
491666
488089
484525
480974
477437
473914
470403
466907
463424
459955
456502
453064
449644
446241
442856
439486
436131
432789
429459
426141
422834
419539
416254
412978
409709
406449
403197
399956
396724
393504
390295
387098
383913
380740
377579
374432
371298
368176
365067
361972
358889
355819
352761
349717
346686
343670
340669
337684
334714
331761
328822
325898
322988
320092
317210
314342
311489
308650
305826
303016
300220
297437
294665
291906
289158
286422
283695
280979
278274
275581
272900
270232
267576
264934
262303
259685
257077
254480
251894
249319
246755
244204
241665
239141
236630
234132
231647
229173
226710
224261
221823
219396
216982
214579
212187
209807
207437
205078
202731
200394
198071
195757
193458
191166
188891
186620
184367
182117
179882
177650
175429
173211
170999
168790
166582
164376
162165
159953
157731
155505
153258
151004
148713
146411
144042
141658
139157
136633
133920
131134
128107
124879
121394
791002
782124
773981
766489
759553
753057
746912
741048
735415
729972
724688
719540
714508
709576
704731
699961
695259
690616
686025
681483
676985
672528
668108
663724
659373
655053
650763
646501
642266
638057
633874
629716
625582
621472
617386
613321
609278
605256
601254
597271
593306
589358
585426
581511
577610
573723
569850
565991
562146
558315
554497
550694
546904
543129
539367
535619
531885
528165
524459
520766
517087
513422
509769
506130
502503
498889
495288
491700
488125
484562
481013
477475
473951
470440
466942
463458
459989
456535
453099
449680
446279
442894
439527
436174
432834
429507
426192
422888
419595
416312
413037
409769
406510
403259
400018
396786
393566
390358
387161
383976
380804
377643
374495
371359
368234
365122
362023
358936
355862
352801
349752
346717
343698
340694
337708
334737
331783
328845
325921
323012
320118
317238
314373
311522
308686
305863
303055
300259
297477
294704
291944
289193
286454
283724
281005
278296
275600
272915
270245
267586
264942
262309
259690
257080
254482
251892
249315
246748
244195
241654
239128
236613
234113
231625
229149
226683
224231
221788
219358
216939
214531
212134
209747
207371
205004
202649
200303
197970
195645
193335
191031
188741
186458
184186
181922
179666
177417
175172
172934
170695
168462
166221
163987
161736
159493
157222
154960
152654
150359
147998
145648
143200
140755
138175
135568
132796
129931
126896
123692
120303
793262
784600
776519
768974
761912
755256
748939
742905
737109
731513
726089
720811
715660
710620
705676
700817
696033
691315
686658
682056
677503
672996
668532
664107
659719
655366
651046
646757
642498
638267
634064
629888
625737
621612
617511
613433
609377
605343
601329
597336
593361
589404
585465
581542
577635
573744
569867
566005
562158
558325
554506
550703
546913
543138
539377
535631
531898
528180
524475
520785
517108
513444
509793
506156
502531
498920
495321
491734
488160
484598
481048
477510
473984
470471
466972
463487
460017
456563
453127
449710
446310
442927
439562
436211
432874
429549
426237
422936
419646
416365
413092
409825
406567
403317
400076
396845
393625
390416
387220
384036
380863
377702
374553
371414
368287
365172
362069
358978
355900
352834
349781
346743
343721
340715
337727
334756
331802
328863
325941
323033
320141
317263
314400
311551
308717
305896
303089
300293
297511
294737
291975
289222
286479
283745
281022
278310
275610
272922
270248
267587
264941
262306
259685
257072
254472
251880
249301
246731
244177
241634
239107
236588
234088
231595
229116
226647
224193
221746
219312
216889
214476
212073
209680
207298
204924
202561
200207
197863
195530
193206
190894
188588
186294
184004
181727
179450
177187
174917
172662
170392
168139
165865
163607
161318
159045
156730
154431
152076
149736
147323
144916
142417
139903
137278
134603
131804
128901
125871
122703
119393
795209
786721
778710
771149
764009
757239
750790
744617
738683
732955
727406
722011
716752
711612
706577
701634
696774
691987
687267
682607
678003
673449
668942
664478
660055
655670
651322
647007
642725
638473
634251
630057
625890
621749
617634
613543
609475
605429
601405
597402
593418
589453
585507
581577
577665
573769
569888
566023
562174
558339
554520
550716
546926
543152
539392
535646
531915
528198
524495
520805
517130
513467
509818
506182
502559
498949
495351
491765
488191
484628
481077
477537
474010
470495
466994
463508
460038
456584
453149
449732
446334
442953
439588
436240
432905
429583
426273
422975
419689
416411
413141
409876
406619
403369
400128
396895
393674
390465
387269
384085
380913
377751
374601
371459
368330
365212
362106
359012
355930
352859
349801
346759
343735
340729
337740
334769
331815
328877
325956
323049
320158
317281
314420
311573
308741
305921
303116
300320
297536
294761
291997
289241
286496
283758
281031
278314
275610
272919
270242
267577
264930
262293
259670
257055
254453
251858
249276
246704
244149
241604
239077
236554
234053
231558
229076
226605
224148
221696
219259
216832
214413
212006
209608
207219
204838
202466
200105
197752
195410
193075
190752
188432
186127
183822
181531
179236
176956
174665
172390
170098
167820
165520
163233
160915
158607
156261
153919
151530
149140
146691
144230
141694
139128
136471
133753
130937
128019
124995
121856
118610
796907
788559
780616
773057
765870
759019
752468
746184
740135
734293
728634
723135
717779
712548
707429
702409
697478
692627
687848
683135
678481
673883
669336
664835
660379
655965
651589
647249
642945
638673
634432
630221
626038
621883
617755
613651
609572
605516
601482
597469
593477
589505
585551
581616
577698
573798
569914
566046
562194
558358
554537
550732
546943
543168
539408
535663
531933
528216
524514
520826
517151
513489
509840
506205
502582
498971
495373
491787
488212
484648
481095
477554
474025
470509
467007
463520
460050
456597
453162
449745
446348
442968
439605
436259
432925
429606
426298
423003
419720
416447
413180
409917
406661
403411
400168
396934
393713
390502
387306
384121
380948
377786
374635
371492
368361
365240
362132
359034
355948
352872
349812
346767
343741
340734
337746
334775
331823
328886
325966
323060
320171
317294
314434
311588
308756
305937
303132
300335
297549
294773
292006
289249
286501
283760
281030
278310
275602
272907
270226
267560
264910
262272
259646
257031
254424
251827
249242
246669
244113
241567
239038
236512
234009
231513
229028
226555
224097
221642
219201
216771
214346
211934
209529
207135
204747
202369
199999
197638
195288
192943
190609
188279
185960
183642
181336
179026
176728
174421
172124
169814
167511
165190
162873
160533
158191
155818
153438
151020
148588
146109
143605
141041
138436
135759
133012
130182
127253
124236
121122
117928
798398
790162
782279
774733
767518
760609
753980
747605
741461
735522
729768
724178
718735
713423
708228
703138
698142
693231
688398
683634
678935
674295
669710
665176
660689
656245
651844
647481
643155
638864
634605
630378
626181
622013
617872
613756
609666
605600
601557
597536
593537
589557
585598
581657
577735
573830
569942
566072
562217
558380
554558
550751
546961
543186
539425
535680
531949
528233
524530
520842
517167
513505
509856
506219
502596
498985
495385
491797
488221
484656
481102
477559
474029
470513
467010
463524
460053
456600
453165
449749
446351
442972
439611
436266
432935
429618
426313
423021
419741
416471
413207
409946
406690
403439
400195
396960
393737
390526
387328
384142
380969
377805
374653
371508
368376
365253
362142
359041
355952
352874
349811
346764
343738
340731
337744
334775
331824
328889
325971
323066
320177
317300
314439
311592
308760
305941
303134
300336
297549
294771
292002
289244
286494
283751
281019
278296
275584
272887
270203
267534
264882
262242
259615
256998
254388
251789
249202
246627
244069
241521
238991
236464
233958
231462
228973
226502
224038
221585
219136
216707
214274
211863
209448
207053
204653
202272
199893
197527
195166
192814
190468
188129
185796
183468
181146
178824
176507
174187
171869
169544
167218
164880
162537
160176
157805
155410
152998
150555
148088
145584
143045
140461
137826
135132
132358
129515
126582
123573
120485
117334
799710
791565
783735
776205
768973
762022
755333
748887
742663
736643
730808
725138
719618
714233
708970
703816
698761
693795
688911
684102
679361
674683
670062
665496
660980
656510
652085
647700
643354
639045
634770
630528
626317
622136
617983
613858
609758
605683
601631
597603
593596
589611
585645
581700
577773
573864
569973
566099
562242
558402
554578
550770
546978
543201
539440
535694
531962
528244
524541
520852
517175
513512
509862
506224
502599
498986
495385
491795
488218
484651
481096
477553
474022
470506
467003
463517
460047
456593
453158
449742
446344
442965
439604
436261
432932
429618
426317
423028
419752
416484
413222
409961
406704
403452
400207
396970
393746
390534
387335
384148
380973
377808
374654
371509
368375
365250
362137
359034
355943
352863
349799
346752
343726
340719
337734
334767
331818
328886
325969
323066
320176
317298
314434
311585
308751
305931
303122
300324
297534
294755
291985
289226
286474
283731
280997
278274
275560
272862
270174
267504
264848
262206
259575
256956
254344
251743
249155
246578
244020
241472
238938
236412
233902
231409
228912
226449
223975
221526
219068
216646
214200
211795
209364
206974
204560
202179
199787
197422
195047
192692
190332
187987
185640
183303
180966
178634
176300
173970
171632
169294
166947
164593
162228
159850
157455
155039
152601
150136
147640
145116
142550
139950
137287
134575
131778
128924
125992
122995
119933
116818
800864
792791
785006
777493
770253
763271
756536
750032
743744
737655
731750
726011
720424
714975
709651
704440
699331
694316
689387
684535
679756
675042
670390
665794
661251
656757
652309
647905
643540
639215
634925
630669
626445
622252
618089
613953
609844
605761
601702
597667
593654
589663
585692
581742
577810
573897
570002
566125
562265
558422
554596
550786
546992
543213
539450
535702
531968
528249
524544
520853
517175
513510
509858
506219
502592
498977
495374
491783
488203
484636
481080
477536
474006
470489
466988
463502
460032
456578
453142
449725
446326
442947
439587
436244
432918
429607
426310
423024
419751
416484
413222
409960
406702
403448
400201
396963
393738
390524
387324
384135
380959
377793
374638
371492
368357
365231
362117
359012
355921
352841
349778
346732
343706
340701
337717
334752
331806
328876
325961
323058
320167
317287
314421
311568
308731
305908
303097
300297
297506
294726
291955
289196
286444
283702
280968
278244
275529
272831
270140
267469
264809
262165
259529
256909
254292
251691
249101
246524
243961
241419
238879
236359
233842
231355
228851
226395
223908
221467
219000
216587
214128
211731
209284
206899
204467
202091
199684
197322
194931
192577
190202
187855
185493
183151
180799
178460
176112
173771
171417
169067
166702
164335
161950
159555
157140
154706
152245
149761
147242
144699
142113
139495
136805
134076
131263
128404
125478
122495
119456
116372
801873
793860
786113
778616
771371
764367
757595
751045
744704
738559
732595
726797
721152
715647
710269
705007
699851
694792
689821
684932
680117
675371
670690
666067
661500
656984
652516
648093
643712
639371
635067
630799
626564
622360
618187
614043
609926
605835
601769
597728
593709
589712
585736
581781
577845
573928
570029
566148
562285
558439
554609
550797
547000
543219
539453
535703
531967
528246
524539
520846
517166
513499
509845
506203
502574
498958
495354
491761
488181
484613
481057
477513
473983
470467
466967
463482
460012
456557
453120
449701
446301
442920
439560
436218
432894
429585
426292
423009
419737
416469
413206
409941
406682
403426
400178
396938
393713
390498
387296
384105
380928
377761
374606
371458
368323
365196
362082
358979
355889
352811
349750
346706
343681
340677
337695
334732
331788
328860
325947
323043
320151
317269
314399
311543
308702
305875
303061
300258
297466
294685
291914
289156
286404
283664
280930
278208
275494
272793
270101
267429
264766
262120
259480
256856
254238
251636
249044
246469
243904
241365
238818
236308
233787
231308
228800
226345
223850
221412
218943
216528
214060
211664
209211
206826
204383
202009
199590
197226
194825
192466
190083
187732
185359
183012
180649
178303
175942
173592
171224
168863
166482
164104
161701
159293
156858
154409
151929
149427
146891
144329
141726
139085
136374
133631
130810
127952
125033
122063
119045
115988
802750
794786
787071
779588
772340
765319
758519
751932
745548
739356
733342
727495
721801
716247
710822
705516
700318
695219
690212
685288
680443
675668
670961
666314
661725
657190
652704
648264
643868
639514
635198
630918
626672
622459
618278
614125
610001
605903
601831
597783
593759
589757
585776
581815
577875
573953
570050
566166
562299
558449
554617
550801
547002
543218
539449
535696
531958
528235
524526
520830
517148
513479
509823
506180
502550
498933
495327
491734
488153
484585
481029
477486
473956
470442
466943
463459
459989
456534
453095
449674
446272
442890
439528
436185
432861
429555
426263
422982
419709
416439
413173
409905
406645
403387
400139
396898
393673
390457
387255
384062
380885
377715
374560
371411
368277
365150
362038
358936
355850
352774
349716
346673
343651
340648
337668
334707
331765
328838
325925
323021
320128
317242
314371
311511
308667
305836
303018
300212
297418
294636
291866
289107
286357
283617
280885
278163
275450
272748
270057
267383
264718
262071
259429
256803
254183
251581
248989
246414
243850
241317
238766
236259
233742
231260
228751
226296
223801
221359
218893
216471
214005
211601
209145
206751
204307
201929
199506
197136
194729
192364
189977
187620
185241
182886
180516
178161
175792
173432
171054
168683
166290
163898
161481
159059
156608
154144
151649
149131
146582
144001
141383
138719
135993
133240
130418
127563
124651
121693
118694
115659
803505
795579
787889
780418
773168
766134
759312
752696
746278
740047
733994
728105
722368
716773
711309
705964
700729
695596
690557
685604
680731
675932
671201
666534
661926
657373
652871
648417
644008
639641
635314
631024
626770
622548
618358
614199
610067
605963
601885
597832
593802
589795
585809
581844
577899
573973
570066
566177
562307
558453
554618
550799
546996
543209
539438
535683
531942
528217
524505
520807
517123
513453
509796
506152
502521
498902
495296
491703
488122
484554
480999
477456
473928
470415
466918
463434
459964
456509
453068
449645
446241
442856
439492
436148
432824
429518
426225
422943
419667
416394
413125
409856
406594
403336
400087
396846
393621
390405
387202
384009
380832
377661
374506
371356
368223
365096
361988
358888
355806
352733
349677
346636
343616
340614
337636
334676
331736
328808
325896
322990
320096
317209
314336
311473
308626
305791
302971
300162
297367
294584
291813
289054
286304
283564
280832
278110
275398
272696
270007
267332
264667
262018
259378
256750
254132
251532
248939
246365
243807
241266
238721
236218
233705
231214
228707
226244
223760
221305
218851
216414
213954
211547
209084
206678
204239
201850
199428
197052
194644
192273
189884
187521
185138
182778
180400
178037
175661
173292
170905
168525
166121
163718
161289
158853
156391
153912
151406
148872
146314
143711
141081
138397
135665
132905
130086
127232
124327
121381
118397
115381
804144
796250
788578
781114
773863
766819
759980
753342
746897
740636
734550
728626
722856
717226
711727
706350
701084
695922
690855
685877
680981
676160
671410
666725
662100
657532
653017
648551
644130
639753
635416
631117
626855
622626
618429
614262
610125
606015
601931
597872
593837
589825
585835
581866
577916
573986
570075
566182
562308
558451
554612
550790
546984
543195
539421
535664
531921
528194
524480
520781
517096
513424
509766
506122
502490
498871
495264
491671
488090
484523
480968
477427
473900
470389
466892
463410
459940
456483
453041
449617
446210
442823
439456
436110
432783
429475
426179
422894
419614
416338
413066
409798
406536
403278
400028
396788
393562
390345
387141
383950
380773
377604
374447
371299
368165
365042
361936
358840
355760
352690
349637
346598
343579
340579
337602
334642
331701
328774
325860
322953
320057
317170
314295
311430
308581
305744
302923
300112
297315
294530
291759
288997
286246
283505
280773
278051
275341
272640
269953
267277
264615
261966
259327
256699
254087
251488
248898
246327
243768
241225
238692
236179
233669
231171
228672
226199
223724
221263
218812
216362
213912
211474
209027
206610
204171
201774
199360
196977
194570
192195
189804
187433
185050
182680
180300
177930
175548
173169
170778
168388
165976
163563
161125
158678
156207
153713
151199
148649
146086
143462
140823
138125
135390
132627
129811
126958
124059
121121
118150
115149
804675
796804
789144
781684
774430
767379
760528
753874
747408
741124
735012
729061
723262
717604
712077
706673
701382
696195
691106
686107
681191
676353
671586
666886
662248
657667
653140
648663
644233
639847
635502
631196
626926
622690
618487
614315
610172
606057
601968
597904
593865
589848
585854
581880
577927
573993
570078
566182
562304
558444
554602
550777
546969
543177
539402
535642
531898
528169
524455
520755
517069
513396
509737
506091
502459
498839
495233
491639
488059
484491
480938
477398
473873
470362
466867
463386
459916
456459
453016
449589
446181
442792
439422
436073
432742
429430
426129
422840
419554
416276
413001
409734
406471
403214
399964
396726
393498
390282
387078
383889
380711
377544
374387
371242
368108
364990
361885
358793
355715
352649
349597
346560
343542
340544
337565
334606
331663
328736
325819
322912
320015
317127
314251
311386
308537
305700
302876
300065
297266
294480
291706
288942
286189
283445
280713
277992
275282
272584
269899
267224
264564
261915
259279
256655
254046
251447
248863
246296
243740
241198
238670
236148
233637
231135
228644
226162
223691
221217
218777
216308
213866
211407
208980
206545
204119
201709
199301
196909
194505
192127
189738
187356
184973
182595
180215
177837
175452
173066
170671
168270
165855
163433
160989
158533
156052
153549
151024
148462
145894
143255
140604
137903
135168
132402
129587
126734
123840
120910
117948
114960
805099
797245
789589
782131
774876
767820
760962
754295
747815
741513
735380
729408
723587
717906
712358
706932
701621
696415
691308
686292
681361
676508
671728
667016
662367
657776
653240
648754
644316
639923
635571
631258
626982
622741
618533
614356
610208
606088
601995
597928
593884
589864
585866
581889
577933
573995
570077
566178
562297
558435
554590
550763
546953
543160
539383
535622
531877
528146
524431
520730
517043
513370
509710
506064
502431
498811
495204
491611
488030
484464
480910
477371
473847
470338
466843
463362
459893
456436
452993
449566
446156
442765
439392
436039
432704
429385
426078
422785
419495
416215
412938
409670
406405
403151
399901
396665
393437
390222
387018
383830
380651
377487
374330
371188
368055
364940
361837
358750
355674
352612
349561
346527
343508
340510
337529
334569
331623
328695
325776
322869
319971
317085
314209
311345
308496
305660
302835
300023
297222
294435
291657
288891
286134
283390
280656
277936
275227
272531
269847
267175
264517
261871
259237
256615
254010
251411
248835
246267
243719
241171
238648
236116
233605
231101
228616
226123
223658
221176
218731
216251
213827
211365
208943
206491
204072
201654
199253
196853
194456
192066
189678
187291
184909
182525
180145
177761
175374
172983
170584
168175
165757
163328
160881
158416
155928
153417
150886
148314
145742
143091
140431
137734
134995
132227
129411
126558
123668
120743
117789
114810
805415
797572
789919
782462
775206
768148
761284
754610
748119
741803
735656
729668
723830
718134
712569
707128
701801
696581
691460
686432
681489
676626
671836
667114
662457
657858
653315
648823
644378
639979
635622
631305
627024
622779
618567
614386
610234
606111
602015
597944
593898
589875
585874
581894
577935
573996
570076
566174
562291
558427
554581
550752
546941
543146
539368
535606
531859
528128
524412
520710
517022
513348
509688
506042
502408
498788
495181
491587
488007
484440
480888
477349
473826
470317
466822
463342
459873
456416
452973
449545
446134
442743
439369
436012
432671
429347
426034
422735
419441
416160
412882
409615
406349
403096
399846
396612
393382
390171
386965
383779
380599
377438
374282
371142
368010
364898
361795
358711
355636
352578
349528
346497
343478
340480
337497
334534
331586
328656
325736
322829
319932
317048
314173
311311
308463
305627
302802
299990
297188
294398
291616
288847
286087
283342
280606
277888
275180
272488
269805
267135
264479
261835
259203
256582
253980
251384
248810
246241
243693
241142
238621
236080
233577
231065
228584
226082
223622
221135
218690
216214
213788
211319
208902
206451