/*--------------------------------*- C++ -*----------------------------------*\
| =========                 |                                                 |
| \\      /  F ield         | OpenFOAM: The Open Source CFD Toolbox           |
|  \\    /   O peration     | Version:  2.4.0                                 |
|   \\  /    A nd           | Web:      www.OpenFOAM.org                      |
|    \\/     M anipulation  |                                                 |
\*---------------------------------------------------------------------------*/
FoamFile
{
    version     2.0;
    format      ascii;
    class       volVectorField;
    location    "0.43";
    object      U_0;
}
// * * * * * * * * * * * * * * * * * * * * * * * * * * * * * * * * * * * * * //

dimensions      [0 1 -1 0 0 0 0];

internalField   nonuniform List<vector> 
8800
(
(8.09168 0.387932 0)
(5.44924 0.242455 0)
(3.91275 0.0428631 0)
(3.15588 -0.0150649 0)
(2.80052 -0.0185005 0)
(2.599 -0.0112223 0)
(2.48376 -0.00513227 0)
(2.37959 -0.00257715 0)
(2.32059 -0.00193647 0)
(2.24992 3.65442e-05 0)
(2.21731 -0.00102677 0)
(2.16555 -7.45711e-05 0)
(2.14493 8.66493e-05 0)
(2.10019 0.000203062 0)
(2.07797 0.000346637 0)
(2.03575 0.00149193 0)
(2.00091 0.000655976 0)
(1.96305 -7.00317e-05 0)
(1.93332 0.00904067 0)
(1.72778 -0.0621347 0)
(10.0827 0.838931 0)
(9.65858 0.867326 0)
(8.87393 0.506522 0)
(8.0802 0.262868 0)
(7.49347 0.137066 0)
(7.00717 0.0816415 0)
(6.6951 0.055598 0)
(6.4013 0.0399438 0)
(6.22746 0.0286554 0)
(6.02204 0.0265058 0)
(5.93132 0.0175069 0)
(5.77513 0.0177239 0)
(5.72078 0.0151542 0)
(5.60028 0.0162659 0)
(5.54666 0.0143284 0)
(5.44342 0.0196322 0)
(5.3768 0.0184007 0)
(5.28111 0.0138453 0)
(5.21293 0.0338056 0)
(5.05003 -0.0435688 0)
(10.0578 0.631866 0)
(10.6617 0.861039 0)
(10.8714 0.602547 0)
(10.6894 0.376561 0)
(10.458 0.253172 0)
(10.0858 0.196425 0)
(9.83289 0.155231 0)
(9.5019 0.121483 0)
(9.3144 0.0930775 0)
(9.03306 0.0798705 0)
(8.93303 0.0569809 0)
(8.6971 0.0535636 0)
(8.63607 0.0425956 0)
(8.45464 0.0426725 0)
(8.4002 0.0376205 0)
(8.23713 0.0437803 0)
(8.18602 0.0428991 0)
(8.02544 0.039012 0)
(7.95821 0.0594659 0)
(7.79454 -0.0422413 0)
(9.9918 0.460766 0)
(10.5749 0.701562 0)
(11.1749 0.543859 0)
(11.3754 0.355988 0)
(11.5536 0.260001 0)
(11.4604 0.227165 0)
(11.4829 0.201921 0)
(11.3109 0.174742 0)
(11.2943 0.145974 0)
(11.0774 0.131596 0)
(11.0884 0.101757 0)
(10.8633 0.0968303 0)
(10.865 0.0789613 0)
(10.6682 0.0784384 0)
(10.6733 0.068145 0)
(10.4648 0.0772893 0)
(10.4822 0.0643589 0)
(10.2659 0.0851431 0)
(10.2472 0.0683482 0)
(10.0214 0.0876402 0)
(10.0397 0.344326 0)
(10.3958 0.563583 0)
(11.0553 0.468709 0)
(11.3355 0.299974 0)
(11.6518 0.201635 0)
(11.6548 0.197439 0)
(11.8664 0.177288 0)
(11.8251 0.166565 0)
(11.9857 0.145833 0)
(11.8906 0.137919 0)
(12.051 0.104854 0)
(11.931 0.116707 0)
(12.0447 0.0861138 0)
(11.9139 0.096535 0)
(12.0254 0.0791462 0)
(11.8687 0.106846 0)
(11.963 0.0694215 0)
(11.8007 0.118996 0)
(11.841 0.0768662 0)
(11.6278 0.139348 0)
(10.0176 0.26501 0)
(10.3338 0.439642 0)
(10.8717 0.36315 0)
(11.2256 0.262464 0)
(11.5622 0.171996 0)
(11.584 0.147473 0)
(11.7901 0.147176 0)
(11.8261 0.132187 0)
(11.9958 0.120429 0)
(11.9863 0.118827 0)
(12.1596 0.0847906 0)
(12.1708 0.0988177 0)
(12.2996 0.0847992 0)
(12.2606 0.0825489 0)
(12.4042 0.0765493 0)
(12.3682 0.0890111 0)
(12.4765 0.0771638 0)
(12.4435 0.0967436 0)
(12.4912 0.086561 0)
(12.39 0.0602628 0)
(10.1046 0.174342 0)
(10.2774 0.350454 0)
(10.6841 0.29147 0)
(11.0762 0.191952 0)
(11.5114 0.132451 0)
(11.5488 0.136324 0)
(11.615 0.0928839 0)
(11.7857 0.11005 0)
(11.8821 0.0906474 0)
(11.8975 0.09425 0)
(12.0051 0.0543038 0)
(12.1635 0.0829008 0)
(12.2632 0.0593915 0)
(12.2795 0.0666577 0)
(12.3346 0.0583897 0)
(12.4142 0.0809525 0)
(12.4719 0.0488653 0)
(12.5074 0.0815042 0)
(12.5275 0.0579966 0)
(12.4882 0.0165357 0)
(9.99187 0.11608 0)
(10.241 0.26954 0)
(10.6476 0.186853 0)
(11.0675 0.132475 0)
(11.3431 0.0806051 0)
(11.4895 0.120858 0)
(11.585 0.0821929 0)
(11.7552 0.0446809 0)
(11.814 0.0849763 0)
(11.8459 0.0824788 0)
(11.9188 0.0141693 0)
(12.0874 0.0282547 0)
(12.1704 0.0658275 0)
(12.2306 0.0585456 0)
(12.2468 0.0427145 0)
(12.368 0.0425002 0)
(12.411 0.048479 0)
(12.4335 0.0481657 0)
(12.4754 0.0283612 0)
(12.4373 -0.0105189 0)
(9.94535 0.0700277 0)
(10.3244 0.149265 0)
(10.5628 0.120878 0)
(11.0325 0.0553036 0)
(11.2797 0.0783879 0)
(11.4052 0.0779205 0)
(11.5862 0.0200406 0)
(11.6878 0.0335645 0)
(11.8028 0.060744 0)
(11.8105 0.0540814 0)
(11.9405 0.00107239 0)
(11.953 0.01589 0)
(12.0851 0.0279989 0)
(12.1604 0.0413661 0)
(12.2632 0.0318217 0)
(12.3213 0.0253655 0)
(12.399 0.0203403 0)
(12.4002 0.027116 0)
(12.4149 0.00675818 0)
(12.352 -0.0298556 0)
(10.0766 0.0179865 0)
(10.1029 0.0704027 0)
(10.7096 0.0206029 0)
(10.9327 0.00676799 0)
(11.2478 0.0294389 0)
(11.4012 0.0601839 0)
(11.5046 0.00353729 0)
(11.6865 -0.0319066 0)
(11.7687 0.0397986 0)
(11.8282 0.0439602 0)
(11.9124 -0.023889 0)
(11.9742 -0.00919727 0)
(12.0354 0.0216733 0)
(12.0847 0.0144989 0)
(12.2517 -0.0034919 0)
(12.3265 0.000597225 0)
(12.3634 0.0151232 0)
(12.3786 0.0133539 0)
(12.4213 -0.0192982 0)
(12.3507 -0.0452417 0)
(9.88357 -0.00476947 0)
(10.3677 -0.0598194 0)
(10.5951 -0.06116 0)
(10.9378 -0.0453333 0)
(11.1978 0.0202432 0)
(11.4408 0.0273368 0)
(11.6157 -0.0548073 0)
(11.6354 -0.0581822 0)
(11.7004 0.0155485 0)
(11.8773 0.00316657 0)
(11.9287 -0.0264738 0)
(11.9434 -0.0186062 0)
(12.0089 0.00495208 0)
(12.1616 -0.0186298 0)
(12.2315 -0.0238948 0)
(12.2575 -0.0189982 0)
(12.3488 -0.0071688 0)
(12.4436 -0.0185086 0)
(12.4361 -0.0380703 0)
(12.3564 -0.049735 0)
(10.0471 -0.0724697 0)
(10.231 -0.152206 0)
(10.6499 -0.113842 0)
(10.895 -0.096583 0)
(11.2478 -0.0493337 0)
(11.539 -0.0256052 0)
(11.5816 -0.0519092 0)
(11.6332 -0.0749253 0)
(11.7417 -0.036422 0)
(11.8162 -0.0184174 0)
(11.965 -0.0424781 0)
(11.9987 -0.0317725 0)
(12.0902 -0.0272395 0)
(12.1767 -0.0409427 0)
(12.246 -0.03389 0)
(12.2643 -0.0397969 0)
(12.3379 -0.0440332 0)
(12.4258 -0.0435046 0)
(12.4624 -0.0476689 0)
(12.3645 -0.0586364 0)
(9.95898 -0.109094 0)
(10.3121 -0.259783 0)
(10.6752 -0.197754 0)
(11.03 -0.162365 0)
(11.3142 -0.0842386 0)
(11.4672 -0.0481891 0)
(11.6433 -0.0830376 0)
(11.7546 -0.119035 0)
(11.7463 -0.0436455 0)
(11.8837 -0.064648 0)
(12.0123 -0.0660864 0)
(12.0508 -0.0534752 0)
(12.096 -0.0368392 0)
(12.2229 -0.0566813 0)
(12.289 -0.0454938 0)
(12.3115 -0.0551372 0)
(12.393 -0.0631874 0)
(12.4652 -0.0770189 0)
(12.5102 -0.0838819 0)
(12.442 -0.0683341 0)
(10.0317 -0.180829 0)
(10.3081 -0.366294 0)
(10.7547 -0.273853 0)
(11.0739 -0.198969 0)
(11.3845 -0.120159 0)
(11.5607 -0.099494 0)
(11.715 -0.12873 0)
(11.7882 -0.124362 0)
(11.8523 -0.0754179 0)
(11.9239 -0.0959222 0)
(12.0725 -0.07761 0)
(12.1152 -0.0632912 0)
(12.165 -0.0584344 0)
(12.2755 -0.092324 0)
(12.3646 -0.0547068 0)
(12.395 -0.078802 0)
(12.4607 -0.0898425 0)
(12.5405 -0.109017 0)
(12.565 -0.100161 0)
(12.4916 -0.0964622 0)
(10.0736 -0.255229 0)
(10.3159 -0.461688 0)
(10.8643 -0.356417 0)
(11.1694 -0.255077 0)
(11.5707 -0.169463 0)
(11.6104 -0.13607 0)
(11.8162 -0.152134 0)
(11.8353 -0.159609 0)
(11.9678 -0.0956235 0)
(11.9799 -0.124588 0)
(12.1671 -0.109306 0)
(12.1512 -0.0823376 0)
(12.2653 -0.0758937 0)
(12.2788 -0.110707 0)
(12.3957 -0.0698049 0)
(12.3663 -0.09713 0)
(12.4565 -0.10119 0)
(12.4484 -0.138312 0)
(12.4744 -0.120042 0)
(12.3491 -0.133769 0)
(10.0744 -0.354122 0)
(10.367 -0.567395 0)
(11.0438 -0.44717 0)
(11.3129 -0.304107 0)
(11.679 -0.213433 0)
(11.6565 -0.172449 0)
(11.9033 -0.195964 0)
(11.8127 -0.178083 0)
(11.9908 -0.124157 0)
(11.8779 -0.147222 0)
(12.0497 -0.124321 0)
(11.909 -0.0935414 0)
(12.0435 -0.0895976 0)
(11.8983 -0.120704 0)
(12.0254 -0.0798354 0)
(11.8578 -0.102496 0)
(11.9371 -0.106298 0)
(11.7723 -0.144115 0)
(11.7777 -0.118395 0)
(11.5355 -0.15288 0)
(10.0198 -0.460046 0)
(10.5344 -0.704492 0)
(11.1863 -0.538143 0)
(11.3726 -0.360897 0)
(11.5607 -0.262796 0)
(11.4552 -0.214889 0)
(11.5122 -0.212159 0)
(11.2698 -0.182463 0)
(11.3266 -0.132211 0)
(11.053 -0.135616 0)
(11.0916 -0.115189 0)
(10.8384 -0.0848017 0)
(10.8955 -0.0786656 0)
(10.6108 -0.0987101 0)
(10.7 -0.0656151 0)
(10.4134 -0.0833146 0)
(10.4719 -0.0807858 0)
(10.1765 -0.121127 0)
(10.1868 -0.0891753 0)
(9.84275 -0.154468 0)
(10.0695 -0.633139 0)
(10.6409 -0.863721 0)
(10.884 -0.597585 0)
(10.6837 -0.377251 0)
(10.4558 -0.257076 0)
(10.0909 -0.18862 0)
(9.84551 -0.160286 0)
(9.46874 -0.127325 0)
(9.34673 -0.0845729 0)
(9.00501 -0.0807066 0)
(8.94076 -0.0674426 0)
(8.67348 -0.0458915 0)
(8.66715 -0.0412409 0)
(8.38796 -0.0565635 0)
(8.43645 -0.0388136 0)
(8.15687 -0.0459795 0)
(8.19476 -0.0526059 0)
(7.89341 -0.0739387 0)
(7.89746 -0.0658655 0)
(7.55281 -0.0837808 0)
(10.0877 -0.838687 0)
(9.64869 -0.8681 0)
(8.88112 -0.504964 0)
(8.07766 -0.263187 0)
(7.49095 -0.13954 0)
(7.01193 -0.0777777 0)
(6.69975 -0.0567827 0)
(6.38232 -0.0446001 0)
(6.24523 -0.0240143 0)
(6.00444 -0.0256174 0)
(5.93712 -0.0244367 0)
(5.75467 -0.0142803 0)
(5.74079 -0.0126045 0)
(5.55181 -0.024987 0)
(5.56468 -0.0154629 0)
(5.37212 -0.0193432 0)
(5.38232 -0.0245339 0)
(5.15471 -0.0352505 0)
(5.14275 -0.0347935 0)
(4.85866 -0.01545 0)
(8.09261 -0.387913 0)
(5.44695 -0.242789 0)
(3.91408 -0.0425568 0)
(3.15674 0.0153271 0)
(2.79853 0.0175248 0)
(2.5993 0.0124691 0)
(2.48757 0.00513396 0)
(2.37257 0.000775683 0)
(2.32232 0.00350537 0)
(2.24752 0.000389817 0)
(2.21776 -0.00115603 0)
(2.15277 0.00108058 0)
(2.1517 0.00119655 0)
(2.08267 -0.00292149 0)
(2.07214 -6.59636e-05 0)
(2.00211 -0.00103212 0)
(1.99327 -0.00180052 0)
(1.89597 -0.00443858 0)
(1.85768 -0.00324936 0)
(1.71615 0.0113186 0)
(2.1897 -0.118578 0)
(2.29737 -0.036749 0)
(2.43502 -0.0254754 0)
(2.56145 -0.0391376 0)
(2.69284 -0.0579577 0)
(2.80144 -0.0683509 0)
(2.89151 -0.0742147 0)
(2.96019 -0.070772 0)
(3.00053 -0.0688329 0)
(3.03675 -0.0597454 0)
(3.048 -0.0588064 0)
(3.07915 -0.0603215 0)
(3.08505 -0.0580386 0)
(3.10624 -0.0484885 0)
(3.10637 0.000480534 0)
(3.09464 0.0471036 0)
(3.12464 0.0900008 0)
(3.15737 0.131263 0)
(3.22056 0.175744 0)
(3.32082 0.196909 0)
(3.45929 0.208676 0)
(3.57717 0.216233 0)
(3.73575 0.202463 0)
(3.89457 0.178391 0)
(4.01909 0.136816 0)
(4.15337 0.0838534 0)
(4.22484 0.0223412 0)
(4.31096 -0.0416595 0)
(4.30704 -0.109435 0)
(4.33098 -0.156732 0)
(4.28354 -0.197642 0)
(4.28276 -0.219891 0)
(4.23123 -0.218423 0)
(4.24272 -0.220332 0)
(4.20733 -0.20875 0)
(4.25852 -0.201015 0)
(4.25225 -0.183952 0)
(4.32249 -0.174119 0)
(4.34335 -0.160953 0)
(4.40268 -0.157348 0)
(4.43852 -0.150719 0)
(4.46479 -0.156703 0)
(4.53554 -0.159304 0)
(4.52058 -0.17074 0)
(4.58382 -0.169156 0)
(4.53485 -0.159448 0)
(4.59425 -0.131631 0)
(4.54713 -0.0877601 0)
(4.57063 -0.0387768 0)
(4.5717 0.0427307 0)
(4.57196 0.0721356 0)
(4.69321 0.130829 0)
(4.65871 0.130136 0)
(4.83823 0.122813 0)
(4.81302 0.131294 0)
(4.95933 0.0511391 0)
(4.99619 0.0812805 0)
(5.02087 0.0318934 0)
(5.11069 0.0170255 0)
(5.10439 0.0488845 0)
(5.20926 0.00704913 0)
(5.22571 0.049425 0)
(5.28902 0.0651901 0)
(5.43385 0.0538034 0)
(5.42674 0.117852 0)
(5.5989 0.0893924 0)
(5.73596 0.111644 0)
(5.73682 0.148411 0)
(6.06097 0.0762055 0)
(6.0301 0.130222 0)
(6.32813 0.068206 0)
(6.41744 -0.00135101 0)
(6.57923 -0.0317302 0)
(6.71025 -0.114661 0)
(6.88034 -0.17369 0)
(6.97771 -0.249092 0)
(7.14081 -0.285717 0)
(7.31685 -0.364661 0)
(7.47853 -0.423078 0)
(7.65021 -0.475717 0)
(7.95893 -0.539287 0)
(8.13174 -0.601925 0)
(8.51127 -0.668116 0)
(8.7384 -0.718264 0)
(9.20564 -0.837943 0)
(9.57629 -0.942579 0)
(10.0364 -1.09706 0)
(10.4363 -1.33045 0)
(10.9771 -1.60561 0)
(11.3564 -1.89811 0)
(11.7397 -2.25836 0)
(12.091 -2.58128 0)
(12.3188 -2.88767 0)
(12.5175 -3.16783 0)
(12.5299 -3.34877 0)
(12.5526 -3.46361 0)
(12.4614 -3.50695 0)
(12.2932 -3.41109 0)
(12.0011 -3.27045 0)
(11.7693 -3.1043 0)
(11.431 -2.91838 0)
(11.1598 -2.74301 0)
(10.9107 -2.53703 0)
(10.7274 -2.29836 0)
(10.5142 -2.07316 0)
(10.4459 -1.86642 0)
(10.2676 -1.65064 0)
(10.1383 -1.52895 0)
(10.1149 -1.45779 0)
(9.97179 -1.40437 0)
(9.9203 -1.35719 0)
(9.9878 -1.4229 0)
(9.87132 -1.40926 0)
(9.88085 -1.47622 0)
(10.0091 -1.62503 0)
(9.95524 -1.74259 0)
(10.1632 -1.87399 0)
(10.3686 -2.16456 0)
(10.6563 -2.28228 0)
(10.8817 -2.40891 0)
(11.4617 -2.61675 0)
(11.8081 -2.62423 0)
(12.2587 -2.51169 0)
(12.8329 -2.45105 0)
(13.2356 -2.22716 0)
(13.6476 -1.81243 0)
(14.0144 -1.44944 0)
(14.357 -1.00653 0)
(14.5509 -0.448974 0)
(14.8104 0.0312173 0)
(14.9241 0.524149 0)
(14.9666 1.05773 0)
(14.9413 1.5155 0)
(14.8452 1.87642 0)
(14.6733 2.25342 0)
(14.4698 2.55885 0)
(14.2563 2.62005 0)
(13.9581 2.81364 0)
(13.6781 2.76691 0)
(13.359 2.70283 0)
(12.9825 2.58534 0)
(12.7488 2.3331 0)
(12.4254 1.93655 0)
(12.1125 1.67815 0)
(11.6394 1.0696 0)
(11.3221 0.556537 0)
(10.4593 0.163381 0)
(9.97584 -0.524569 0)
(9.38805 -1.18291 0)
(8.48194 -1.04 0)
(7.43319 -0.615136 0)
(6.70804 -0.694577 0)
(6.61645 -2.2071 0)
(6.40385 -4.51782 0)
(6.84411 -6.74093 0)
(6.94645 -7.93268 0)
(7.38333 -8.2107 0)
(7.5159 -7.71085 0)
(7.91415 -6.59193 0)
(7.89537 -5.47505 0)
(8.34252 -4.03274 0)
(8.53718 -2.56909 0)
(8.82489 -1.23468 0)
(9.08269 0.289388 0)
(9.41622 1.5692 0)
(9.34878 2.67623 0)
(9.62966 3.94718 0)
(10.0025 4.99499 0)
(9.71212 6.06408 0)
(10.4815 7.33596 0)
(10.1995 8.15707 0)
(10.263 8.55786 0)
(10.1191 8.74725 0)
(9.23936 8.95289 0)
(9.58308 8.94185 0)
(9.34751 9.00775 0)
(8.72859 8.1962 0)
(9.03057 7.83506 0)
(8.32203 7.17276 0)
(8.03699 6.03499 0)
(8.09525 5.72343 0)
(7.34572 4.55451 0)
(7.45225 4.24518 0)
(6.9971 4.14921 0)
(7.12186 2.96927 0)
(6.07977 3.22465 0)
(7.68201 1.41458 0)
(4.96334 1.85298 0)
(8.44044 -0.0627765 0)
(4.39148 0.954786 0)
(9.28908 -1.05361 0)
(4.39206 -0.0765895 0)
(9.61149 -2.19753 0)
(4.84606 -1.49322 0)
(9.46161 -2.61579 0)
(4.8931 -1.68793 0)
(9.01503 -1.91096 0)
(4.25917 -0.119647 0)
(7.29011 -1.12553 0)
(4.3837 3.78249 0)
(5.17169 -0.0703147 0)
(5.19557 -0.0411096 0)
(5.22545 -0.0495088 0)
(5.28227 -0.0782702 0)
(5.36374 -0.10364 0)
(5.44225 -0.111564 0)
(5.50481 -0.105799 0)
(5.5449 -0.0927146 0)
(5.56638 -0.0809795 0)
(5.5753 -0.0701697 0)
(5.58095 -0.0639698 0)
(5.58067 -0.0602989 0)
(5.58705 -0.0536356 0)
(5.58346 -0.0436365 0)
(5.58444 -0.0194389 0)
(5.57263 0.0154139 0)
(5.57941 0.054469 0)
(5.59001 0.0916569 0)
(5.61435 0.127813 0)
(5.65012 0.151664 0)
(5.70196 0.161362 0)
(5.76647 0.164435 0)
(5.81975 0.153937 0)
(5.90835 0.127847 0)
(5.95861 0.0882881 0)
(6.04004 0.0441968 0)
(6.08044 -0.0115738 0)
(6.1412 -0.0714037 0)
(6.17052 -0.128357 0)
(6.2001 -0.176677 0)
(6.21175 -0.217217 0)
(6.22905 -0.241545 0)
(6.2383 -0.254605 0)
(6.24938 -0.257218 0)
(6.27742 -0.249054 0)
(6.29797 -0.246137 0)
(6.34807 -0.22986 0)
(6.37602 -0.225306 0)
(6.44286 -0.210173 0)
(6.46092 -0.208221 0)
(6.53744 -0.198373 0)
(6.54183 -0.196157 0)
(6.61441 -0.196637 0)
(6.61833 -0.186717 0)
(6.65589 -0.191022 0)
(6.67449 -0.154405 0)
(6.65877 -0.147585 0)
(6.71046 -0.0949515 0)
(6.6477 -0.0537647 0)
(6.73162 -0.00493079 0)
(6.67586 0.0595938 0)
(6.76526 0.0689662 0)
(6.75634 0.113158 0)
(6.81843 0.0950971 0)
(6.83357 0.0936333 0)
(6.88393 0.0779821 0)
(6.88925 0.036125 0)
(6.92467 0.0385084 0)
(6.91074 0.0167098 0)
(6.95626 0.00850618 0)
(6.9123 0.0157235 0)
(7.02664 -0.00416702 0)
(6.91001 0.0360115 0)
(7.12131 -0.00700523 0)
(7.01555 0.0394478 0)
(7.17911 0.0195715 0)
(7.2389 0.0046926 0)
(7.28868 0.0359967 0)
(7.46583 -0.0209537 0)
(7.52743 -0.0275943 0)
(7.70434 -0.0628718 0)
(7.84737 -0.131575 0)
(7.98577 -0.172706 0)
(8.1579 -0.248217 0)
(8.32536 -0.321734 0)
(8.49958 -0.380294 0)
(8.64522 -0.457003 0)
(8.92497 -0.556094 0)
(9.05985 -0.581485 0)
(9.34773 -0.68948 0)
(9.59147 -0.75163 0)
(9.87455 -0.833575 0)
(10.1908 -0.925751 0)
(10.4965 -1.00658 0)
(10.8746 -1.12702 0)
(11.2589 -1.28349 0)
(11.6256 -1.46001 0)
(11.9982 -1.6626 0)
(12.4 -1.93024 0)
(12.6664 -2.19107 0)
(12.9753 -2.50974 0)
(13.1321 -2.74312 0)
(13.2389 -2.97874 0)
(13.2548 -3.21277 0)
(13.1369 -3.29342 0)
(12.9657 -3.36637 0)
(12.7431 -3.35065 0)
(12.4057 -3.1931 0)
(12.0808 -3.00983 0)
(11.7213 -2.80431 0)
(11.3091 -2.64177 0)
(11.0448 -2.48433 0)
(10.7526 -2.31228 0)
(10.5039 -2.09542 0)
(10.3228 -1.9355 0)
(10.2132 -1.69907 0)
(10.0013 -1.53052 0)
(9.9456 -1.4593 0)
(9.84728 -1.38019 0)
(9.73735 -1.33837 0)
(9.72944 -1.3814 0)
(9.69967 -1.3814 0)
(9.63227 -1.43633 0)
(9.72729 -1.54441 0)
(9.7487 -1.63927 0)
(9.81992 -1.85502 0)
(10.1016 -2.10263 0)
(10.2098 -2.33014 0)
(10.5128 -2.54574 0)
(10.9435 -2.86046 0)
(11.397 -3.00827 0)
(11.752 -3.0357 0)
(12.3491 -3.0164 0)
(12.7949 -2.90258 0)
(13.2011 -2.59729 0)
(13.6052 -2.22089 0)
(13.962 -1.80225 0)
(14.2526 -1.25812 0)
(14.5009 -0.688536 0)
(14.6925 -0.102811 0)
(14.8562 0.468032 0)
(14.9156 0.966242 0)
(14.9807 1.48572 0)
(14.8883 1.93568 0)
(14.8366 2.33718 0)
(14.6374 2.63103 0)
(14.4036 2.93111 0)
(14.1199 3.02505 0)
(13.7049 3.11116 0)
(13.3499 2.95573 0)
(12.7278 2.96821 0)
(12.4774 2.52967 0)
(11.7641 2.27928 0)
(11.446 1.93791 0)
(11.0291 1.32707 0)
(10.8032 0.966922 0)
(9.90324 0.662741 0)
(9.5854 -0.0401927 0)
(8.66213 -0.558639 0)
(7.97401 -0.283531 0)
(6.68318 0.0535398 0)
(6.59564 -0.465131 0)
(5.99892 -2.21099 0)
(6.53078 -4.64209 0)
(6.2495 -6.89508 0)
(6.85021 -8.15366 0)
(6.90408 -8.35996 0)
(7.26716 -7.79519 0)
(7.30163 -6.79701 0)
(7.89854 -5.55179 0)
(7.61775 -4.36958 0)
(8.49779 -2.71041 0)
(8.27292 -1.46284 0)
(9.04372 0.0306796 0)
(8.93497 1.46086 0)
(9.53322 2.60445 0)
(9.1405 3.69696 0)
(9.88054 5.01211 0)
(9.7812 5.93816 0)
(10.0034 6.99942 0)
(10.5962 8.12118 0)
(10.1356 8.78424 0)
(10.43 9.07205 0)
(10.4263 9.05943 0)
(9.56467 8.78851 0)
(9.93259 8.6579 0)
(9.66545 8.61524 0)
(8.88374 7.82526 0)
(9.46168 7.49844 0)
(8.69715 6.77192 0)
(8.30103 5.3348 0)
(8.51512 5.57382 0)
(8.05937 3.8794 0)
(7.12414 4.33005 0)
(9.41643 2.94807 0)
(5.32738 3.01747 0)
(10.8643 1.30177 0)
(4.7223 1.86471 0)
(11.3222 -0.294392 0)
(4.96885 1.01106 0)
(11.17 -1.70388 0)
(5.51194 0.255248 0)
(10.8711 -3.44668 0)
(5.84433 -0.601185 0)
(10.3822 -4.41011 0)
(6.18672 -0.76656 0)
(10.1972 -3.71347 0)
(6.98159 1.03107 0)
(10.0998 -1.11736 0)
(7.09449 3.23021 0)
(7.82136 -0.094521 0)
(7.82515 -0.0955197 0)
(7.84127 -0.11307 0)
(7.88173 -0.130245 0)
(7.94968 -0.130889 0)
(8.00992 -0.123707 0)
(8.05731 -0.107571 0)
(8.07889 -0.0896521 0)
(8.08916 -0.0785097 0)
(8.07809 -0.0661387 0)
(8.07695 -0.0593868 0)
(8.06013 -0.0553585 0)
(8.05844 -0.0448884 0)
(8.04878 -0.0345716 0)
(8.04322 -0.0150404 0)
(8.03973 0.0161511 0)
(8.03511 0.0464896 0)
(8.04467 0.0816806 0)
(8.05094 0.109818 0)
(8.08197 0.126383 0)
(8.09976 0.137636 0)
(8.15466 0.131846 0)
(8.17491 0.11895 0)
(8.23751 0.0932669 0)
(8.26344 0.0536716 0)
(8.31126 0.0100471 0)
(8.34319 -0.0385015 0)
(8.36738 -0.0911392 0)
(8.40844 -0.142135 0)
(8.40745 -0.184091 0)
(8.44959 -0.223415 0)
(8.43128 -0.244239 0)
(8.48053 -0.261546 0)
(8.45351 -0.268314 0)
(8.50923 -0.2634 0)
(8.49417 -0.265071 0)
(8.5533 -0.25386 0)
(8.55977 -0.249114 0)
(8.6101 -0.244616 0)
(8.63741 -0.228158 0)
(8.66433 -0.233941 0)
(8.71406 -0.211926 0)
(8.70823 -0.220585 0)
(8.77329 -0.201067 0)
(8.74453 -0.194689 0)
(8.79974 -0.178454 0)
(8.7691 -0.138851 0)
(8.80285 -0.11933 0)
(8.78328 -0.0572014 0)
(8.80606 -0.0245642 0)
(8.81013 0.0252548 0)
(8.82671 0.060629 0)
(8.8509 0.06922 0)
(8.86806 0.0909067 0)
(8.89485 0.0702856 0)
(8.90634 0.0702116 0)
(8.93192 0.0418004 0)
(8.93603 0.0319958 0)
(8.9366 0.0210705 0)
(8.97079 0.00663486 0)
(8.91893 0.00739349 0)
(9.02646 -0.011705 0)
(8.9196 0.00689884 0)
(9.07658 -0.0262219 0)
(9.00448 -0.00346664 0)
(9.12225 -0.0285729 0)
(9.15001 -0.042071 0)
(9.24012 -0.0498718 0)
(9.3179 -0.0952136 0)
(9.41749 -0.115673 0)
(9.54837 -0.178199 0)
(9.65927 -0.232526 0)
(9.81126 -0.297155 0)
(9.95425 -0.372789 0)
(10.1069 -0.449555 0)
(10.2965 -0.538438 0)
(10.4394 -0.604471 0)
(10.6834 -0.702688 0)
(10.8527 -0.786539 0)
(11.1053 -0.8618 0)
(11.3185 -0.963935 0)
(11.6092 -1.06507 0)
(11.8519 -1.14685 0)
(12.1561 -1.28649 0)
(12.4076 -1.38096 0)
(12.7653 -1.56265 0)
(12.9795 -1.7312 0)
(13.3008 -1.90172 0)
(13.4836 -2.14159 0)
(13.6595 -2.36772 0)
(13.7889 -2.60104 0)
(13.7428 -2.78244 0)
(13.6981 -2.95083 0)
(13.5043 -3.0882 0)
(13.2917 -3.12672 0)
(12.972 -3.16463 0)
(12.647 -3.05473 0)
(12.267 -2.86595 0)
(11.9348 -2.71681 0)
(11.5692 -2.4971 0)
(11.2915 -2.34539 0)
(11.0378 -2.23864 0)
(10.7507 -2.10362 0)
(10.5265 -1.95904 0)
(10.3858 -1.76633 0)
(10.2101 -1.57529 0)
(10.1116 -1.47687 0)
(10.0141 -1.35704 0)
(9.85907 -1.27486 0)
(9.84115 -1.31217 0)
(9.65183 -1.31136 0)
(9.6356 -1.3292 0)
(9.61643 -1.48886 0)
(9.59206 -1.57766 0)
(9.60468 -1.72753 0)
(9.76929 -2.06945 0)
(9.87971 -2.3045 0)
(10.0317 -2.55837 0)
(10.4065 -2.9647 0)
(10.7976 -3.23246 0)
(11.1744 -3.36063 0)
(11.5611 -3.46003 0)
(12.0846 -3.37736 0)
(12.37 -3.17354 0)
(12.7563 -2.83647 0)
(13.1714 -2.45863 0)
(13.4635 -1.97549 0)
(13.7511 -1.46376 0)
(14.0529 -0.855363 0)
(14.1644 -0.246271 0)
(14.3192 0.350398 0)
(14.4256 0.895917 0)
(14.4468 1.47691 0)
(14.4853 1.92117 0)
(14.4284 2.40337 0)
(14.4006 2.75307 0)
(14.2223 2.99901 0)
(14.0398 3.33988 0)
(13.6913 3.35158 0)
(13.3954 3.4631 0)
(12.6332 3.27112 0)
(12.2847 3.02022 0)
(11.4955 2.69297 0)
(11.0426 2.3326 0)
(10.4015 1.6467 0)
(9.83103 1.49358 0)
(9.31029 1.14209 0)
(8.95018 0.42593 0)
(8.32573 0.181288 0)
(7.22504 0.519666 0)
(6.49401 0.588913 0)
(6.10045 -0.200704 0)
(6.01891 -2.24415 0)
(6.05781 -4.68702 0)
(6.01509 -7.12223 0)
(6.47046 -8.29398 0)
(6.45302 -8.63762 0)
(6.76567 -7.98233 0)
(7.07328 -7.01308 0)
(7.2219 -5.73745 0)
(7.40729 -4.59731 0)
(7.94009 -3.10396 0)
(8.12654 -1.62989 0)
(8.3959 -0.348457 0)
(8.97615 1.19758 0)
(8.98168 2.45293 0)
(9.40924 3.53541 0)
(9.19484 4.57567 0)
(9.94936 5.83126 0)
(9.66205 6.78328 0)
(10.3277 7.85519 0)
(10.7361 8.62894 0)
(10.0685 9.04128 0)
(10.4948 9.41354 0)
(10.5469 9.42008 0)
(9.79001 8.99536 0)
(10.488 8.68534 0)
(10.0617 8.30791 0)
(9.2728 7.26813 0)
(10.0198 7.14459 0)
(9.57917 5.81425 0)
(8.03686 5.30904 0)
(11.2776 4.53567 0)
(5.89281 4.59071 0)
(12.3591 2.81799 0)
(5.72481 3.98732 0)
(12.1156 0.460127 0)
(6.45148 2.96583 0)
(11.0352 -1.44314 0)
(6.82849 1.92798 0)
(10.0493 -2.41427 0)
(6.96924 0.675835 0)
(9.54274 -3.33017 0)
(6.48675 -0.592505 0)
(9.20233 -4.05682 0)
(6.31625 -0.669733 0)
(9.189 -3.59409 0)
(6.54301 0.164123 0)
(10.2535 -0.873379 0)
(8.57229 2.6784 0)
(10.0396 -0.122959 0)
(10.0481 -0.235916 0)
(10.0843 -0.274192 0)
(10.1309 -0.257416 0)
(10.1846 -0.21399 0)
(10.2266 -0.168497 0)
(10.2455 -0.128907 0)
(10.2477 -0.102124 0)
(10.2441 -0.0854963 0)
(10.2227 -0.0693628 0)
(10.2135 -0.0621807 0)
(10.1958 -0.0506327 0)
(10.1821 -0.0401218 0)
(10.1779 -0.0298084 0)
(10.1648 -0.010451 0)
(10.1681 0.0135539 0)
(10.1621 0.0368875 0)
(10.175 0.0660297 0)
(10.1748 0.0903631 0)
(10.2091 0.0998864 0)
(10.2124 0.114928 0)
(10.2645 0.10063 0)
(10.2732 0.0926414 0)
(10.3225 0.0662968 0)
(10.3434 0.0283713 0)
(10.3744 -0.00854132 0)
(10.406 -0.054976 0)
(10.4094 -0.101397 0)
(10.4523 -0.146088 0)
(10.4294 -0.18807 0)
(10.4778 -0.224872 0)
(10.4359 -0.247002 0)
(10.4836 -0.273089 0)
(10.4431 -0.273649 0)
(10.4804 -0.28657 0)
(10.4654 -0.278244 0)
(10.4845 -0.278723 0)
(10.5028 -0.269995 0)
(10.5058 -0.268671 0)
(10.5482 -0.255458 0)
(10.5386 -0.248076 0)
(10.5856 -0.245871 0)
(10.5755 -0.225951 0)
(10.6032 -0.223995 0)
(10.6033 -0.201388 0)
(10.6047 -0.183122 0)
(10.616 -0.153608 0)
(10.6014 -0.117818 0)
(10.6183 -0.0774296 0)
(10.6038 -0.0343989 0)
(10.6294 0.0016164 0)
(10.6197 0.0385271 0)
(10.6605 0.0496522 0)
(10.6443 0.0667371 0)
(10.7094 0.0577713 0)
(10.6642 0.0584501 0)
(10.7562 0.0340903 0)
(10.6945 0.0403175 0)
(10.7683 0.00933057 0)
(10.7433 0.0142432 0)
(10.7609 -0.00273676 0)
(10.8002 -0.0178454 0)
(10.7773 -0.00786545 0)
(10.8529 -0.044502 0)
(10.8483 -0.0418498 0)
(10.9246 -0.0706785 0)
(10.955 -0.0956304 0)
(11.0403 -0.120403 0)
(11.1123 -0.171582 0)
(11.1751 -0.201996 0)
(11.3247 -0.27006 0)
(11.3832 -0.327511 0)
(11.5449 -0.396757 0)
(11.6471 -0.478951 0)
(11.7803 -0.559506 0)
(11.9449 -0.648978 0)
(12.0692 -0.746102 0)
(12.2392 -0.822785 0)
(12.4169 -0.94657 0)
(12.574 -1.02946 0)
(12.7598 -1.12527 0)
(12.977 -1.25415 0)
(13.1342 -1.34633 0)
(13.3759 -1.46655 0)
(13.5214 -1.60098 0)
(13.7489 -1.72804 0)
(13.8615 -1.89865 0)
(14.0262 -2.04281 0)
(14.0354 -2.23282 0)
(14.0975 -2.44438 0)
(13.9987 -2.5743 0)
(13.8492 -2.7464 0)
(13.6297 -2.82053 0)
(13.3731 -2.87199 0)
(13.065 -2.93303 0)
(12.7296 -2.87116 0)
(12.4098 -2.75549 0)
(12.0593 -2.60739 0)
(11.8536 -2.4623 0)
(11.566 -2.28847 0)
(11.4149 -2.15455 0)
(11.1309 -2.07467 0)
(10.9708 -1.93701 0)
(10.7888 -1.82939 0)
(10.599 -1.67205 0)
(10.4578 -1.51137 0)
(10.3958 -1.39518 0)
(10.1955 -1.24097 0)
(10.1638 -1.20356 0)
(9.99981 -1.20865 0)
(9.83756 -1.20989 0)
(9.84686 -1.27323 0)
(9.72392 -1.42197 0)
(9.65236 -1.54315 0)
(9.65766 -1.75857 0)
(9.69143 -2.04752 0)
(9.67032 -2.37124 0)
(9.88936 -2.73361 0)
(10.12 -3.14664 0)
(10.3929 -3.44431 0)
(10.6604 -3.57196 0)
(10.9199 -3.66338 0)
(11.2786 -3.52717 0)
(11.5646 -3.29519 0)
(12.0041 -3.03815 0)
(12.4361 -2.60162 0)
(12.6493 -2.0406 0)
(13.0114 -1.54103 0)
(13.352 -0.954756 0)
(13.4373 -0.320376 0)
(13.5656 0.295857 0)
(13.6356 0.874726 0)
(13.6574 1.4221 0)
(13.6856 1.89738 0)
(13.579 2.4005 0)
(13.6487 2.73904 0)
(13.5739 3.09295 0)
(13.544 3.38764 0)
(13.304 3.61579 0)
(13.0997 3.78319 0)
(12.5435 3.81422 0)
(12.0583 3.50558 0)
(11.1999 3.27823 0)
(10.5821 2.71384 0)
(10.081 2.28221 0)
(9.3951 1.93444 0)
(8.70768 1.45684 0)
(8.34332 0.818273 0)
(7.35102 0.897073 0)
(6.76982 1.23126 0)
(5.8471 1.0092 0)
(6.09147 -0.14401 0)
(5.51737 -2.16667 0)
(5.92856 -4.79247 0)
(5.45182 -7.18712 0)
(6.06664 -8.44017 0)
(5.85267 -8.82396 0)
(6.51197 -8.17553 0)
(6.49097 -7.13113 0)
(6.47934 -6.02559 0)
(7.21918 -4.78078 0)
(7.08459 -3.42423 0)
(8.02828 -1.85752 0)
(7.75604 -0.650105 0)
(8.65386 0.975168 0)
(8.59529 2.21893 0)
(9.0494 3.49004 0)
(9.06684 4.47143 0)
(9.30923 5.56321 0)
(9.89389 6.57525 0)
(9.57441 7.5911 0)
(10.6135 8.64124 0)
(10.8332 9.06443 0)
(10.2435 9.0038 0)
(10.8225 9.17089 0)
(10.5856 8.93802 0)
(9.85745 8.5537 0)
(10.938 8.49145 0)
(10.509 7.45685 0)
(8.90391 7.02213 0)
(12.3164 5.79187 0)
(6.91779 5.97203 0)
(12.7845 3.59994 0)
(7.15151 5.31417 0)
(12.0545 1.74687 0)
(8.0453 4.00634 0)
(11.0317 0.226885 0)
(8.20881 2.62812 0)
(10.4221 -0.529761 0)
(7.62456 1.39301 0)
(10.1833 -1.2945 0)
(7.44902 0.283037 0)
(10.2011 -2.30749 0)
(7.32609 -0.568327 0)
(9.987 -3.03563 0)
(6.96459 -0.872974 0)
(9.47019 -2.51204 0)
(6.53801 -0.133447 0)
(8.9135 -1.49575 0)
(8.18856 1.34474 0)
(11.5526 -0.102251 0)
(11.588 -0.245108 0)
(11.698 -0.303834 0)
(11.7803 -0.287787 0)
(11.8278 -0.234714 0)
(11.8487 -0.184732 0)
(11.8422 -0.132523 0)
(11.8221 -0.0991765 0)
(11.804 -0.0820695 0)
(11.7759 -0.0576929 0)
(11.7598 -0.0525382 0)
(11.7389 -0.0407922 0)
(11.7251 -0.0263555 0)
(11.7161 -0.0223423 0)
(11.7091 -0.00586526 0)
(11.7091 0.0153767 0)
(11.7107 0.024454 0)
(11.7256 0.0536314 0)
(11.7317 0.0708926 0)
(11.7671 0.0766124 0)
(11.7732 0.0948513 0)
(11.8258 0.0766892 0)
(11.8293 0.0724226 0)
(11.8775 0.0466302 0)
(11.891 0.0108141 0)
(11.9201 -0.0236908 0)
(11.9399 -0.0652395 0)
(11.9458 -0.112687 0)
(11.9618 -0.148748 0)
(11.9484 -0.187797 0)
(11.9618 -0.225358 0)
(11.9294 -0.239343 0)
(11.9463 -0.273225 0)
(11.9096 -0.269805 0)
(11.9201 -0.283632 0)
(11.9012 -0.282888 0)
(11.896 -0.275921 0)
(11.8978 -0.277104 0)
(11.8847 -0.269044 0)
(11.9037 -0.266286 0)
(11.8876 -0.249375 0)
(11.9079 -0.254833 0)
(11.9073 -0.231157 0)
(11.908 -0.222457 0)
(11.9199 -0.208802 0)
(11.9015 -0.176855 0)
(11.9174 -0.159221 0)
(11.8965 -0.119437 0)
(11.9033 -0.0815114 0)
(11.8989 -0.0503058 0)
(11.9015 -0.00840997 0)
(11.9099 0.0165392 0)
(11.9276 0.0373386 0)
(11.9263 0.0498375 0)
(11.9873 0.0506805 0)
(11.9473 0.0536844 0)
(12.0491 0.0295828 0)
(11.9898 0.0416121 0)
(12.0823 0.00538243 0)
(12.0395 0.00246355 0)
(12.1059 -0.0135159 0)
(12.0974 -0.0432148 0)
(12.1351 -0.0431138 0)
(12.165 -0.0700977 0)
(12.1932 -0.0906757 0)
(12.2624 -0.107751 0)
(12.2908 -0.138176 0)
(12.3694 -0.177036 0)
(12.4394 -0.219225 0)
(12.4833 -0.270231 0)
(12.6133 -0.338449 0)
(12.6524 -0.400465 0)
(12.7806 -0.484438 0)
(12.8517 -0.562814 0)
(12.953 -0.647263 0)
(13.0619 -0.74538 0)
(13.1479 -0.840309 0)
(13.2611 -0.928076 0)
(13.3519 -1.04846 0)
(13.4715 -1.1491 0)
(13.5591 -1.24139 0)
(13.6826 -1.3768 0)
(13.7846 -1.4724 0)
(13.9046 -1.58331 0)
(13.9789 -1.72849 0)
(14.0615 -1.82247 0)
(14.1131 -1.97876 0)
(14.0928 -2.09687 0)
(14.0641 -2.25461 0)
(13.9623 -2.37095 0)
(13.7908 -2.48022 0)
(13.6079 -2.57341 0)
(13.3428 -2.58994 0)
(13.1233 -2.64678 0)
(12.8296 -2.64604 0)
(12.5995 -2.59056 0)
(12.3193 -2.51361 0)
(12.1123 -2.42517 0)
(11.9464 -2.26012 0)
(11.7495 -2.15645 0)
(11.6527 -2.04225 0)
(11.4062 -1.88464 0)
(11.2707 -1.75588 0)
(11.0112 -1.65312 0)
(10.8514 -1.52676 0)
(10.6906 -1.37528 0)
(10.5507 -1.21656 0)
(10.392 -1.1598 0)
(10.269 -1.06633 0)
(10.0583 -1.03323 0)
(9.94849 -1.13543 0)
(9.77564 -1.16287 0)
(9.57683 -1.29602 0)
(9.4657 -1.51799 0)
(9.31984 -1.7007 0)
(9.14943 -1.9956 0)
(9.21345 -2.46519 0)
(9.33137 -2.89136 0)
(9.41707 -3.27039 0)
(9.46622 -3.53374 0)
(9.59222 -3.69218 0)
(9.84998 -3.79674 0)
(10.2493 -3.78402 0)
(10.8435 -3.71667 0)
(11.2917 -3.47192 0)
(11.7516 -2.93125 0)
(12.0336 -2.42886 0)
(12.4452 -1.86553 0)
(12.6616 -1.06809 0)
(12.7719 -0.402216 0)
(12.8695 0.252734 0)
(12.8965 0.958298 0)
(12.8021 1.52101 0)
(12.7733 1.97457 0)
(12.6243 2.42045 0)
(12.5809 2.75431 0)
(12.5097 3.07887 0)
(12.5768 3.41544 0)
(12.62 3.62935 0)
(12.4341 4.06261 0)
(12.1069 4.13221 0)
(11.6565 4.07021 0)
(10.8822 3.85937 0)
(10.331 3.37119 0)
(9.5617 2.72467 0)
(8.93715 2.51673 0)
(8.31856 1.89575 0)
(7.89641 1.51809 0)
(6.94815 1.54593 0)
(6.28263 1.71723 0)
(5.75429 1.21689 0)
(5.65861 -0.0186932 0)
(5.49849 -2.20376 0)
(5.52394 -4.67078 0)
(5.00023 -7.26216 0)
(5.69216 -8.56259 0)
(5.234 -9.04512 0)
(6.07417 -8.08685 0)
(5.54694 -7.37511 0)
(6.42677 -6.23688 0)