/*--------------------------------*- C++ -*----------------------------------*\
| =========                 |                                                 |
| \\      /  F ield         | OpenFOAM: The Open Source CFD Toolbox           |
|  \\    /   O peration     | Version:  2.4.0                                 |
|   \\  /    A nd           | Web:      www.OpenFOAM.org                      |
|    \\/     M anipulation  |                                                 |
\*---------------------------------------------------------------------------*/
FoamFile
{
    version     2.0;
    format      ascii;
    class       volVectorField;
    location    "0.43";
    object      UMean;
}
// * * * * * * * * * * * * * * * * * * * * * * * * * * * * * * * * * * * * * //

dimensions      [0 1 -1 0 0 0 0];

internalField   nonuniform List<vector> 
8800
(
(8.09383 0.386221 0)
(5.47288 0.242004 0)
(3.946 0.0432956 0)
(3.19583 -0.0150663 0)
(2.84362 -0.0180815 0)
(2.64331 -0.0109031 0)
(2.53336 -0.00564097 0)
(2.43091 -0.00219196 0)
(2.37486 -0.00154801 0)
(2.30564 -0.000417401 0)
(2.2777 -0.000786992 0)
(2.22553 0.000156489 0)
(2.20882 -0.000283116 0)
(2.16216 0.000753462 0)
(2.14481 0.000131853 0)
(2.10027 0.0014614 0)
(2.07475 0.000179182 0)
(2.02909 0.00171445 0)
(2.01376 0.00339254 0)
(1.84705 -0.0414962 0)
(10.0758 0.83391 0)
(9.66039 0.861984 0)
(8.887 0.502946 0)
(8.10469 0.259374 0)
(7.523 0.136227 0)
(7.04166 0.0807596 0)
(6.74145 0.0524327 0)
(6.44607 0.0395137 0)
(6.28589 0.0282803 0)
(6.08235 0.0237304 0)
(6.00094 0.0171677 0)
(5.84714 0.0175343 0)
(5.80388 0.0134141 0)
(5.67524 0.0166599 0)
(5.64006 0.0135873 0)
(5.52691 0.017644 0)
(5.4788 0.0185105 0)
(5.37354 0.0138274 0)
(5.31888 0.031452 0)
(5.18487 -0.0374696 0)
(10.0553 0.628575 0)
(10.6532 0.857116 0)
(10.8674 0.595848 0)
(10.6904 0.369483 0)
(10.4614 0.251893 0)
(10.0917 0.19339 0)
(9.85258 0.149424 0)
(9.51118 0.120026 0)
(9.34518 0.0902974 0)
(9.06342 0.0744269 0)
(8.97219 0.0551803 0)
(8.74137 0.051446 0)
(8.69916 0.0392111 0)
(8.49971 0.0430021 0)
(8.47804 0.0344628 0)
(8.2959 0.0419795 0)
(8.27191 0.0391698 0)
(8.09373 0.0439672 0)
(8.0529 0.0499768 0)
(7.87951 -0.0182943 0)
(9.99683 0.455324 0)
(10.5623 0.700562 0)
(11.1638 0.540801 0)
(11.3653 0.348577 0)
(11.5476 0.257464 0)
(11.4464 0.224215 0)
(11.4821 0.195193 0)
(11.2874 0.172967 0)
(11.2919 0.141932 0)
(11.0706 0.123702 0)
(11.0826 0.0988006 0)
(10.8595 0.0919424 0)
(10.8865 0.0741976 0)
(10.6658 0.0768679 0)
(10.7019 0.063029 0)
(10.4815 0.0736589 0)
(10.5159 0.061747 0)
(10.2887 0.0844464 0)
(10.2944 0.0640287 0)
(10.0566 0.0910353 0)
(10.0404 0.345273 0)
(10.3977 0.563643 0)
(11.0425 0.456817 0)
(11.2945 0.291343 0)
(11.6462 0.20503 0)
(11.6561 0.190208 0)
(11.8668 0.173276 0)
(11.7985 0.167861 0)
(11.9667 0.139355 0)
(11.8656 0.132309 0)
(12.0133 0.103673 0)
(11.892 0.107288 0)
(12.0238 0.0820174 0)
(11.8869 0.0974887 0)
(12.0012 0.0719653 0)
(11.8514 0.0993847 0)
(11.9434 0.069929 0)
(11.781 0.115231 0)
(11.8294 0.0715244 0)
(11.6224 0.129567 0)
(10.0507 0.251525 0)
(10.3158 0.452139 0)
(10.8939 0.373953 0)
(11.1728 0.245325 0)
(11.5197 0.158655 0)
(11.5917 0.149232 0)
(11.7909 0.138599 0)
(11.8027 0.140497 0)
(11.9661 0.115633 0)
(11.9697 0.1126 0)
(12.1168 0.0875003 0)
(12.1165 0.0915035 0)
(12.2467 0.0720678 0)
(12.2415 0.0841153 0)
(12.3522 0.0690238 0)
(12.3417 0.0866679 0)
(12.4287 0.0748932 0)
(12.4105 0.0960718 0)
(12.4553 0.0782898 0)
(12.3639 0.0552984 0)
(10.0084 0.173978 0)
(10.2969 0.351375 0)
(10.7507 0.286833 0)
(11.105 0.203603 0)
(11.385 0.116685 0)
(11.5411 0.113845 0)
(11.6675 0.102905 0)
(11.7515 0.113648 0)
(11.846 0.0867599 0)
(11.9245 0.0911949 0)
(12.0115 0.0640024 0)
(12.0877 0.0734201 0)
(12.1661 0.0517255 0)
(12.2378 0.067551 0)
(12.3064 0.0506604 0)
(12.3726 0.070117 0)
(12.4297 0.0558776 0)
(12.4853 0.0736967 0)
(12.5116 0.0484456 0)
(12.4734 0.0139584 0)
(9.99805 0.114347 0)
(10.2617 0.249055 0)
(10.6733 0.203901 0)
(11.0302 0.151141 0)
(11.3118 0.0819271 0)
(11.4791 0.077959 0)
(11.6055 0.0727981 0)
(11.6853 0.0813605 0)
(11.7808 0.0630158 0)
(11.854 0.0643996 0)
(11.947 0.0460171 0)
(12.0163 0.0506645 0)
(12.1043 0.0373026 0)
(12.1667 0.0459095 0)
(12.248 0.0367124 0)
(12.3023 0.0467222 0)
(12.3756 0.0383583 0)
(12.4153 0.0433404 0)
(12.4578 0.0234286 0)
(12.3912 -0.0140201 0)
(9.98745 0.0640189 0)
(10.2448 0.14852 0)
(10.6166 0.121957 0)
(10.9889 0.092351 0)
(11.2561 0.0482907 0)
(11.4484 0.0463551 0)
(11.5573 0.0429878 0)
(11.6534 0.0496279 0)
(11.7292 0.037971 0)
(11.82 0.038898 0)
(11.8946 0.0271285 0)
(11.9823 0.0300393 0)
(12.0521 0.0216802 0)
(12.1332 0.0266932 0)
(12.1954 0.020358 0)
(12.2682 0.0252437 0)
(12.3209 0.0178185 0)
(12.3785 0.0170756 0)
(12.3954 -0.000475548 0)
(12.3422 -0.0320097 0)
(9.99289 0.0206528 0)
(10.2258 0.0493165 0)
(10.6002 0.0405948 0)
(10.9568 0.0309296 0)
(11.2402 0.0159467 0)
(11.4219 0.0153885 0)
(11.5452 0.0139936 0)
(11.6265 0.0165724 0)
(11.7155 0.0125858 0)
(11.7922 0.012657 0)
(11.8805 0.00846864 0)
(11.9545 0.00924464 0)
(12.0382 0.0060352 0)
(12.1055 0.00692278 0)
(12.1816 0.00360601 0)
(12.2398 0.00312113 0)
(12.3059 -0.00259349 0)
(12.3479 -0.00808144 0)
(12.3758 -0.0221225 0)
(12.3035 -0.0457379 0)
(9.9915 -0.022184 0)
(10.228 -0.0474413 0)
(10.5976 -0.0424748 0)
(10.9596 -0.0291534 0)
(11.2375 -0.0176763 0)
(11.4249 -0.0138912 0)
(11.5423 -0.0162233 0)
(11.6291 -0.0150825 0)
(11.7127 -0.0146383 0)
(11.7951 -0.0119421 0)
(11.8774 -0.0116191 0)
(11.9573 -0.00978637 0)
(12.035 -0.0112355 0)
(12.1082 -0.0111379 0)
(12.1776 -0.0147289 0)
(12.2419 -0.0171624 0)
(12.3014 -0.0241655 0)
(12.3486 -0.0306458 0)
(12.369 -0.0437581 0)
(12.3004 -0.05576 0)
(9.98943 -0.0654316 0)
(10.2422 -0.14685 0)
(10.6189 -0.123499 0)
(10.9859 -0.0909488 0)
(11.2589 -0.0496504 0)
(11.4456 -0.0453688 0)
(11.5596 -0.0446386 0)
(11.6504 -0.0487482 0)
(11.7317 -0.0395806 0)
(11.8172 -0.0387671 0)
(11.8969 -0.0298288 0)
(11.9791 -0.0312554 0)
(12.054 -0.0264068 0)
(12.1293 -0.0314286 0)
(12.1961 -0.0308705 0)
(12.2627 -0.03966 0)
(12.3193 -0.0436844 0)
(12.3691 -0.0559852 0)
(12.3871 -0.0637737 0)
(12.3221 -0.0685028 0)
(9.99562 -0.115763 0)
(10.2642 -0.247203 0)
(10.6701 -0.205688 0)
(11.0329 -0.149274 0)
(11.3085 -0.0835784 0)
(11.4821 -0.0761722 0)
(11.6022 -0.0750037 0)
(11.6883 -0.0795977 0)
(11.7771 -0.0652515 0)
(11.8572 -0.0634121 0)
(11.9428 -0.049307 0)
(12.0189 -0.0509153 0)
(12.0993 -0.0426725 0)
(12.1687 -0.0496831 0)
(12.2411 -0.0477658 0)
(12.3016 -0.0596165 0)
(12.3642 -0.0642872 0)
(12.4082 -0.0798522 0)
(12.4349 -0.0875261 0)
(12.3669 -0.0814062 0)
(10.0132 -0.175463 0)
(10.2923 -0.349556 0)
(10.7546 -0.288624 0)
(11.1007 -0.201843 0)
(11.3886 -0.118482 0)
(11.5375 -0.112024 0)
(11.6711 -0.10514 0)
(11.7476 -0.111849 0)
(11.8494 -0.0894102 0)
(11.9204 -0.0900197 0)
(12.0145 -0.0676056 0)
(12.0829 -0.073508 0)
(12.1685 -0.0577138 0)
(12.2318 -0.0710474 0)
(12.3065 -0.0621262 0)
(12.3623 -0.0820694 0)
(12.4236 -0.0812338 0)
(12.4645 -0.10715 0)
(12.4891 -0.110079 0)
(12.4255 -0.107743 0)
(10.0509 -0.252133 0)
(10.3153 -0.451433 0)
(10.8933 -0.374602 0)
(11.173 -0.245043 0)
(11.519 -0.159157 0)
(11.5922 -0.149013 0)
(11.7897 -0.139045 0)
(11.8034 -0.140987 0)
(11.9644 -0.116034 0)
(11.9704 -0.114071 0)
(12.1143 -0.0882535 0)
(12.1166 -0.0946824 0)
(12.2429 -0.0744851 0)
(12.2397 -0.0912722 0)
(12.3444 -0.07573 0)
(12.3336 -0.102413 0)
(12.4108 -0.0932943 0)
(12.3854 -0.131903 0)
(12.4105 -0.126273 0)
(12.2942 -0.143993 0)
(10.0468 -0.346844 0)
(10.3913 -0.5616 0)
(11.0471 -0.458646 0)
(11.2897 -0.2897 0)
(11.6499 -0.207059 0)
(11.6518 -0.188243 0)
(11.8697 -0.175684 0)
(11.7947 -0.165933 0)
(11.9683 -0.142312 0)
(11.8621 -0.130645 0)
(12.013 -0.107633 0)
(11.8883 -0.106305 0)
(12.0198 -0.088564 0)
(11.8809 -0.09898 0)
(11.9887 -0.0838648 0)
(11.8375 -0.106768 0)
(11.9109 -0.0951145 0)
(11.7446 -0.136621 0)
(11.7509 -0.126473 0)
(11.5183 -0.164573 0)
(10.0015 -0.455819 0)
(10.5561 -0.699821 0)
(11.1692 -0.54145 0)
(11.3582 -0.348037 0)
(11.5541 -0.258349 0)
(11.438 -0.223492 0)
(11.49 -0.196283 0)
(11.2767 -0.17232 0)
(11.3014 -0.143324 0)
(11.0565 -0.12356 0)
(11.0931 -0.100639 0)
(10.8406 -0.0930333 0)
(10.896 -0.0771974 0)
(10.6383 -0.0815349 0)
(10.7044 -0.0684684 0)
(10.4371 -0.0862056 0)
(10.4958 -0.0740702 0)
(10.2094 -0.114798 0)
(10.215 -0.0981872 0)
(9.87785 -0.159957 0)
(10.0558 -0.629097 0)
(10.6511 -0.856573 0)
(10.8692 -0.596224 0)
(10.6871 -0.369095 0)
(10.4649 -0.252507 0)
(10.0863 -0.192859 0)
(9.85803 -0.150258 0)
(9.50226 -0.119416 0)
(9.35372 -0.0915351 0)
(9.04843 -0.0739851 0)
(8.9844 -0.0570377 0)
(8.71708 -0.0515145 0)
(8.71428 -0.0423431 0)
(8.45957 -0.045102 0)
(8.49144 -0.0398188 0)
(8.22748 -0.0497163 0)
(8.26796 -0.0483973 0)
(7.97242 -0.0697308 0)
(7.97557 -0.0728391 0)
(7.62328 -0.0913743 0)
(10.0757 -0.834038 0)
(9.65947 -0.861797 0)
(8.88744 -0.503013 0)
(8.10341 -0.259274 0)
(7.52446 -0.136463 0)
(7.03894 -0.0806393 0)
(6.74395 -0.0526955 0)
(6.44084 -0.0394117 0)
(6.29031 -0.0286965 0)
(6.07226 -0.02377 0)
(6.00784 -0.0178582 0)
(5.82859 -0.0179392 0)
(5.81325 -0.0146951 0)
(5.64092 -0.0182424 0)
(5.64848 -0.0159561 0)
(5.46239 -0.0227852 0)
(5.47298 -0.0223759 0)
(5.24915 -0.032985 0)
(5.24028 -0.0398629 0)
(4.93258 -0.0235988 0)
(8.09362 -0.386272 0)
(5.47253 -0.241952 0)
(3.94604 -0.043311 0)
(3.19573 0.0150659 0)
(2.84384 0.0180248 0)
(2.64243 0.0109456 0)
(2.53387 0.00560384 0)
(2.42907 0.00219246 0)
(2.37568 0.00153639 0)
(2.30195 0.000352288 0)
(2.27843 0.00076009 0)
(2.21818 -0.000290838 0)
(2.20887 0.000225062 0)
(2.14701 -0.00114595 0)
(2.14088 -0.000335162 0)
(2.06878 -0.00236929 0)
(2.05637 -0.00124651 0)
(1.96363 -0.00398376 0)
(1.92609 -0.00497946 0)
(1.76411 0.0120716 0)
(2.22858 -0.0822288 0)
(2.38581 0.0143059 0)
(2.66255 0.0143983 0)
(2.90481 -0.0134454 0)
(3.1324 -0.0409122 0)
(3.30257 -0.0557715 0)
(3.46857 -0.0665267 0)
(3.58774 -0.0695702 0)
(3.71117 -0.0851619 0)
(3.81681 -0.102399 0)
(3.93143 -0.120676 0)
(4.03179 -0.135219 0)
(4.14152 -0.152123 0)
(4.24325 -0.165806 0)
(4.34536 -0.1815 0)
(4.45239 -0.196079 0)
(4.56002 -0.211312 0)
(4.68235 -0.229111 0)
(4.81754 -0.248026 0)
(4.96108 -0.267961 0)
(5.10408 -0.299221 0)
(5.24517 -0.334901 0)
(5.37234 -0.371994 0)
(5.49208 -0.408118 0)
(5.59948 -0.441268 0)
(5.69675 -0.470616 0)
(5.79329 -0.497274 0)
(5.88099 -0.517114 0)
(5.98044 -0.532734 0)
(6.07775 -0.547498 0)
(6.19522 -0.56729 0)
(6.31774 -0.590981 0)
(6.45286 -0.621472 0)
(6.59027 -0.654173 0)
(6.72357 -0.68777 0)
(6.86006 -0.72167 0)
(6.98482 -0.75359 0)
(7.1191 -0.786863 0)
(7.23814 -0.822393 0)
(7.37075 -0.862749 0)
(7.48369 -0.904417 0)
(7.60513 -0.95107 0)
(7.7055 -0.999461 0)
(7.80601 -1.04922 0)
(7.88817 -1.09601 0)
(7.96616 -1.1387 0)
(8.03603 -1.17661 0)
(8.10342 -1.2075 0)
(8.17147 -1.23501 0)
(8.24068 -1.25362 0)
(8.31438 -1.27269 0)
(8.39453 -1.28379 0)
(8.47556 -1.3008 0)
(8.56494 -1.31257 0)
(8.64778 -1.33384 0)
(8.73578 -1.35135 0)
(8.81352 -1.37786 0)
(8.88818 -1.39913 0)
(8.95445 -1.42548 0)
(9.01267 -1.44578 0)
(9.07162 -1.47354 0)
(9.12403 -1.49552 0)
(9.17887 -1.52696 0)
(9.23664 -1.54901 0)
(9.2789 -1.5772 0)
(9.33953 -1.59443 0)
(9.36523 -1.60867 0)
(9.41526 -1.61268 0)
(9.43527 -1.61388 0)
(9.47712 -1.61221 0)
(9.50264 -1.61294 0)
(9.53995 -1.60541 0)
(9.55602 -1.6035 0)
(9.59476 -1.59251 0)
(9.6079 -1.5928 0)
(9.65329 -1.58252 0)
(9.6665 -1.58429 0)
(9.71955 -1.58149 0)
(9.73787 -1.58736 0)
(9.7868 -1.58451 0)
(9.81258 -1.58506 0)
(9.84551 -1.56627 0)
(9.86798 -1.54873 0)
(9.8798 -1.51514 0)
(9.89735 -1.47832 0)
(9.88438 -1.43197 0)
(9.89598 -1.38825 0)
(9.87475 -1.33746 0)
(9.87257 -1.29087 0)
(9.84546 -1.23358 0)
(9.82812 -1.18011 0)
(9.7958 -1.10822 0)
(9.75678 -1.04568 0)
(9.71467 -0.971208 0)
(9.66182 -0.90931 0)
(9.62024 -0.835547 0)
(9.55548 -0.775733 0)
(9.51669 -0.708026 0)
(9.45042 -0.658426 0)
(9.4347 -0.606151 0)
(9.36531 -0.574055 0)
(9.3766 -0.529475 0)
(9.31149 -0.518495 0)
(9.34248 -0.481455 0)
(9.27456 -0.455093 0)
(9.30521 -0.412207 0)
(9.23132 -0.380831 0)
(9.25106 -0.332708 0)
(9.16609 -0.295464 0)
(9.16531 -0.24631 0)
(9.06388 -0.206113 0)
(9.04297 -0.156402 0)
(8.91946 -0.119236 0)
(8.89465 -0.068103 0)
(8.7568 -0.0412051 0)
(8.77069 0.00890818 0)
(8.63008 0.027182 0)
(8.66952 0.0817328 0)
(8.51124 0.105717 0)
(8.54327 0.17143 0)
(8.3861 0.19564 0)
(8.42567 0.25531 0)
(8.28793 0.263803 0)
(8.34049 0.315177 0)
(8.20617 0.306307 0)
(8.26491 0.351398 0)
(8.13593 0.331979 0)
(8.18915 0.380592 0)
(8.0713 0.369351 0)
(8.11032 0.416588 0)
(7.99941 0.408237 0)
(8.03688 0.452436 0)
(7.92267 0.445116 0)
(7.96281 0.491612 0)
(7.84217 0.47342 0)
(7.8918 0.520429 0)
(7.76563 0.498866 0)
(7.82446 0.555749 0)
(7.69405 0.528329 0)
(7.76784 0.58174 0)
(7.62564 0.546511 0)
(7.70172 0.596683 0)
(7.55679 0.568159 0)
(7.64136 0.610368 0)
(7.50889 0.568551 0)
(7.61938 0.598311 0)
(7.46556 0.561958 0)
(7.61511 0.602735 0)
(7.42067 0.554162 0)
(7.61343 0.59975 0)
(7.39371 0.547548 0)
(7.58936 0.5975 0)
(7.38553 0.559829 0)
(7.55783 0.605307 0)
(7.37847 0.564623 0)
(7.53201 0.624681 0)
(7.3794 0.59651 0)
(7.50357 0.656791 0)
(7.39458 0.638731 0)
(7.49049 0.696501 0)
(7.42365 0.663002 0)
(7.48281 0.715949 0)
(7.44032 0.684246 0)
(7.45772 0.744017 0)
(7.41249 0.717397 0)
(7.39414 0.770694 0)
(7.38977 0.751093 0)
(7.3193 0.785107 0)
(7.34969 0.768365 0)
(7.21296 0.810593 0)
(7.29868 0.783978 0)
(7.05466 0.834904 0)
(7.21069 0.795573 0)
(6.89994 0.880839 0)
(7.11918 0.800297 0)
(6.76028 0.959563 0)
(7.06078 0.829464 0)
(6.62937 1.06479 0)
(7.05526 0.900229 0)
(6.50704 1.20117 0)
(7.03455 1.00297 0)
(6.43602 1.3721 0)
(6.95727 1.12847 0)
(6.41133 1.56343 0)
(6.84021 1.30627 0)
(6.38038 1.77438 0)
(6.72847 1.55396 0)
(6.32345 2.01709 0)
(6.64171 1.88811 0)
(6.18471 2.28478 0)
(6.56752 2.28246 0)
(5.96041 2.62247 0)
(6.42482 2.7417 0)
(5.74726 3.13382 0)
(6.14344 3.29218 0)
(5.62533 4.00149 0)
(5.76577 4.11635 0)
(5.22927 5.34615 0)
(6.1694 6.07576 0)
(3.89692 9.01081 0)
(5.28506 -0.0551504 0)
(5.28105 -0.0227418 0)
(5.33292 -0.0403848 0)
(5.43341 -0.0846728 0)
(5.55842 -0.122723 0)
(5.66916 -0.141915 0)
(5.76462 -0.15068 0)
(5.83652 -0.154699 0)
(5.89615 -0.163251 0)
(5.9496 -0.177033 0)
(6.00505 -0.19508 0)
(6.06364 -0.213799 0)
(6.12924 -0.232647 0)
(6.19993 -0.249825 0)
(6.276 -0.265818 0)
(6.35672 -0.28275 0)
(6.44323 -0.300065 0)
(6.5326 -0.319743 0)
(6.6291 -0.343034 0)
(6.72913 -0.368354 0)
(6.83168 -0.398614 0)
(6.93521 -0.432701 0)
(7.03224 -0.466758 0)
(7.12692 -0.500256 0)
(7.21598 -0.530376 0)
(7.30142 -0.557782 0)
(7.38846 -0.580855 0)
(7.47143 -0.601694 0)
(7.56197 -0.620677 0)
(7.64823 -0.640446 0)
(7.74795 -0.662711 0)
(7.84174 -0.688265 0)
(7.94992 -0.718499 0)
(8.04627 -0.74993 0)
(8.15269 -0.783411 0)
(8.24414 -0.814076 0)
(8.34117 -0.846675 0)
(8.42772 -0.876219 0)
(8.51414 -0.910978 0)
(8.59833 -0.944751 0)
(8.67683 -0.985306 0)
(8.75913 -1.02441 0)
(8.83085 -1.0693 0)
(8.90835 -1.11056 0)
(8.97411 -1.15384 0)
(9.04363 -1.1913 0)
(9.10586 -1.22818 0)
(9.16765 -1.25847 0)
(9.22934 -1.28691 0)
(9.28558 -1.30859 0)
(9.34845 -1.32877 0)
(9.40102 -1.34373 0)
(9.46459 -1.35984 0)
(9.51368 -1.37264 0)
(9.57476 -1.38965 0)
(9.61946 -1.40444 0)
(9.67439 -1.42463 0)
(9.71475 -1.44403 0)
(9.76387 -1.46684 0)
(9.80024 -1.49106 0)
(9.84757 -1.51587 0)
(9.87559 -1.54251 0)
(9.92131 -1.56746 0)
(9.93493 -1.59001 0)
(9.97352 -1.60896 0)
(9.9749 -1.61993 0)
(9.99743 -1.62543 0)
(9.99586 -1.62597 0)
(10.0115 -1.62822 0)
(10.0164 -1.63081 0)
(10.0273 -1.62565 0)
(10.0304 -1.62121 0)
(10.0392 -1.61363 0)
(10.0432 -1.60955 0)
(10.0473 -1.60791 0)
(10.0588 -1.60202 0)
(10.0547 -1.60493 0)
(10.0753 -1.59999 0)
(10.0579 -1.60388 0)
(10.0807 -1.59866 0)
(10.0561 -1.59407 0)
(10.068 -1.57161 0)
(10.0401 -1.55208 0)
(10.0396 -1.50959 0)
(10.0048 -1.46942 0)
(9.99311 -1.41798 0)
(9.95768 -1.37323 0)
(9.93562 -1.31396 0)
(9.88929 -1.2677 0)
(9.8577 -1.20269 0)
(9.80528 -1.1464 0)
(9.75653 -1.06686 0)
(9.6925 -1.00529 0)
(9.62689 -0.925024 0)
(9.55555 -0.863445 0)
(9.48114 -0.783708 0)
(9.4141 -0.727048 0)
(9.3428 -0.65969 0)
(9.30131 -0.619387 0)
(9.24475 -0.572017 0)
(9.22156 -0.549977 0)
(9.18852 -0.51373 0)
(9.17583 -0.506462 0)
(9.14266 -0.467284 0)
(9.13187 -0.436832 0)
(9.08924 -0.390848 0)
(9.07228 -0.351728 0)
(9.01308 -0.299733 0)
(8.98512 -0.254589 0)
(8.90401 -0.198728 0)
(8.87399 -0.148818 0)
(8.76726 -0.0923213 0)
(8.73399 -0.0467909 0)
(8.61335 -0.00436673 0)
(8.60587 0.0161549 0)
(8.49651 0.0521185 0)
(8.49441 0.0758763 0)
(8.38255 0.127501 0)
(8.37653 0.161142 0)
(8.25733 0.214483 0)
(8.2726 0.241967 0)
(8.15305 0.282518 0)
(8.19822 0.297932 0)
(8.07969 0.335293 0)
(8.14399 0.337569 0)
(8.01743 0.374273 0)
(8.09757 0.365168 0)
(7.94639 0.405104 0)
(8.03946 0.405392 0)
(7.87206 0.44338 0)
(7.96773 0.439538 0)
(7.7986 0.480977 0)
(7.89226 0.473098 0)
(7.72575 0.520867 0)
(7.82296 0.507786 0)
(7.64327 0.548972 0)
(7.76171 0.533856 0)
(7.56677 0.569428 0)
(7.7124 0.558635 0)
(7.50896 0.586119 0)
(7.67554 0.579594 0)
(7.44495 0.610216 0)
(7.62431 0.601206 0)
(7.39744 0.621235 0)
(7.58469 0.583053 0)
(7.37782 0.612107 0)
(7.55067 0.570485 0)
(7.35808 0.610212 0)
(7.546 0.557929 0)
(7.35423 0.603204 0)
(7.54113 0.545698 0)
(7.34793 0.598869 0)
(7.53462 0.550073 0)
(7.3457 0.605819 0)
(7.53209 0.552363 0)
(7.34834 0.634695 0)
(7.54143 0.570113 0)
(7.33555 0.672567 0)
(7.58512 0.606138 0)
(7.33592 0.709924 0)
(7.65184 0.627954 0)
(7.34328 0.740047 0)
(7.67546 0.663099 0)
(7.34184 0.781637 0)
(7.65834 0.690642 0)
(7.33158 0.812196 0)
(7.63836 0.701226 0)
(7.30279 0.860647 0)
(7.59284 0.718625 0)
(7.23682 0.912032 0)
(7.53397 0.733644 0)
(7.15418 0.965064 0)
(7.45528 0.729641 0)
(7.05452 1.01683 0)
(7.38233 0.729734 0)
(6.93679 1.07792 0)
(7.36724 0.762529 0)
(6.81741 1.16414 0)
(7.37252 0.841463 0)
(6.7409 1.29202 0)
(7.33926 0.949024 0)
(6.69426 1.43797 0)
(7.29184 1.11295 0)
(6.6345 1.5983 0)
(7.27332 1.33045 0)
(6.54647 1.77756 0)
(7.28051 1.5922 0)
(6.44163 2.0096 0)
(7.30415 1.90038 0)
(6.36669 2.36144 0)
(7.25632 2.22677 0)
(6.3521 2.8366 0)
(7.06532 2.60586 0)
(6.36316 3.46306 0)
(6.81518 3.18844 0)
(6.2402 4.27156 0)
(6.97209 4.21805 0)
(5.6354 5.60474 0)
(8.33022 5.26139 0)
(6.31107 9.61803 0)
(7.90278 -0.0816545 0)
(7.90758 -0.0895794 0)
(7.93773 -0.110961 0)
(8.01016 -0.1371 0)
(8.1004 -0.156551 0)
(8.1814 -0.16648 0)
(8.23698 -0.171546 0)
(8.2709 -0.175932 0)
(8.28757 -0.184304 0)
(8.30292 -0.19848 0)
(8.31935 -0.217993 0)
(8.34606 -0.240532 0)
(8.37761 -0.26409 0)
(8.41897 -0.287429 0)
(8.46339 -0.309787 0)
(8.51553 -0.331779 0)
(8.5693 -0.353718 0)
(8.62778 -0.376554 0)
(8.68517 -0.401397 0)
(8.74713 -0.428895 0)
(8.8052 -0.459208 0)
(8.86917 -0.492352 0)
(8.92539 -0.525323 0)
(8.98858 -0.558085 0)
(9.04246 -0.587667 0)
(9.1059 -0.615443 0)
(9.15984 -0.638986 0)
(9.22616 -0.661798 0)
(9.28181 -0.681693 0)
(9.34906 -0.703672 0)
(9.40666 -0.725277 0)
(9.47252 -0.7518 0)
(9.53158 -0.778862 0)
(9.59145 -0.810365 0)
(9.64901 -0.84046 0)
(9.69986 -0.872543 0)
(9.75581 -0.902058 0)
(9.80018 -0.932863 0)
(9.85572 -0.963208 0)
(9.89748 -0.995608 0)
(9.95342 -1.03056 0)
(9.99757 -1.06719 0)
(10.0521 -1.10747 0)
(10.0988 -1.14696 0)
(10.1477 -1.18837 0)
(10.194 -1.22609 0)
(10.2336 -1.26317 0)
(10.2758 -1.29459 0)
(10.3053 -1.32353 0)
(10.342 -1.34645 0)
(10.364 -1.36622 0)
(10.3953 -1.38198 0)
(10.4136 -1.39586 0)
(10.4396 -1.40819 0)
(10.4573 -1.42174 0)
(10.48 -1.43526 0)
(10.499 -1.45384 0)
(10.5221 -1.47222 0)
(10.5409 -1.49628 0)
(10.5643 -1.51726 0)
(10.5742 -1.54015 0)
(10.5921 -1.55942 0)
(10.5847 -1.57661 0)
(10.5889 -1.59193 0)
(10.5642 -1.60042 0)
(10.5505 -1.60804 0)
(10.5187 -1.61045 0)
(10.5002 -1.61504 0)
(10.4772 -1.61815 0)
(10.4554 -1.62101 0)
(10.4321 -1.6185 0)
(10.4078 -1.61391 0)
(10.3872 -1.60463 0)
(10.3578 -1.60242 0)
(10.3389 -1.59682 0)
(10.3002 -1.59418 0)
(10.2761 -1.59162 0)
(10.2337 -1.58579 0)
(10.2023 -1.58872 0)
(10.1655 -1.58143 0)
(10.128 -1.57522 0)
(10.0912 -1.55186 0)
(10.0553 -1.52985 0)
(10.0098 -1.48016 0)
(9.9733 -1.44304 0)
(9.92381 -1.38485 0)
(9.88083 -1.33764 0)
(9.81606 -1.2725 0)
(9.77126 -1.22598 0)
(9.69254 -1.15622 0)
(9.64743 -1.09478 0)
(9.55279 -1.01017 0)
(9.49721 -0.9479 0)
(9.39289 -0.861314 0)
(9.33495 -0.800766 0)
(9.23386 -0.720433 0)
(9.17409 -0.672863 0)
(9.09151 -0.61136 0)
(9.06216 -0.583502 0)
(8.99674 -0.54098 0)
(8.99044 -0.532282 0)
(8.94271 -0.498225 0)
(8.93049 -0.49685 0)
(8.88734 -0.44687 0)
(8.86347 -0.419381 0)
(8.82045 -0.358218 0)
(8.7752 -0.324712 0)
(8.73482 -0.254048 0)
(8.66734 -0.217429 0)
(8.6259 -0.138388 0)
(8.54084 -0.0998309 0)
(8.49083 -0.0177526 0)
(8.40189 0.00372763 0)
(8.38262 0.0511883 0)
(8.30891 0.0548426 0)
(8.2827 0.108831 0)
(8.18955 0.122563 0)
(8.16404 0.188749 0)
(8.05578 0.204045 0)
(8.05894 0.269756 0)
(7.95144 0.271155 0)
(7.9789 0.324144 0)
(7.88155 0.31303 0)
(7.92374 0.364459 0)
(7.83126 0.347454 0)
(7.88158 0.405445 0)
(7.78309 0.38039 0)
(7.83102 0.44604 0)
(7.72496 0.420913 0)
(7.77495 0.49003 0)
(7.65835 0.457063 0)
(7.70432 0.534481 0)
(7.58917 0.491139 0)
(7.63 0.576832 0)
(7.52508 0.52928 0)
(7.5501 0.608644 0)
(7.46325 0.555252 0)
(7.48121 0.616127 0)
(7.40992 0.565094 0)
(7.43851 0.624068 0)
(7.36402 0.578514 0)
(7.40956 0.65564 0)
(7.30813 0.596452 0)
(7.39603 0.655198 0)
(7.2805 0.572869 0)
(7.38894 0.644222 0)
(7.25439 0.566565 0)
(7.38735 0.636023 0)
(7.24639 0.546097 0)
(7.40578 0.633742 0)
(7.22923 0.529029 0)
(7.44284 0.641207 0)
(7.21051 0.519751 0)
(7.46664 0.649035 0)
(7.22371 0.524162 0)
(7.48715 0.688401 0)
(7.24915 0.532517 0)
(7.48904 0.713734 0)
(7.31494 0.549281 0)
(7.50787 0.732851 0)
(7.38608 0.579812 0)
(7.53716 0.780751 0)
(7.39758 0.62738 0)
(7.55728 0.842907 0)
(7.40296 0.653318 0)
(7.56161 0.883503 0)
(7.39084 0.668118 0)
(7.52763 0.937863 0)
(7.38813 0.698726 0)
(7.46292 0.996982 0)
(7.38596 0.724259 0)
(7.36094 1.05189 0)
(7.42573 0.732492 0)
(7.20404 1.09406 0)
(7.49767 0.742193 0)
(7.03178 1.14701 0)
(7.56859 0.768426 0)
(6.88376 1.22764 0)
(7.61259 0.836052 0)
(6.78664 1.34428 0)
(7.64355 0.957689 0)
(6.68983 1.48011 0)
(7.65877 1.1158 0)
(6.59863 1.65537 0)
(7.65024 1.29495 0)
(6.54873 1.87925 0)
(7.60398 1.49621 0)
(6.55569 2.17611 0)
(7.50063 1.73132 0)
(6.6583 2.55781 0)
(7.36975 2.06214 0)
(6.77605 3.00169 0)
(7.33182 2.52473 0)
(6.74926 3.50714 0)
(7.61819 3.15652 0)
(6.45499 4.34405 0)
(8.4986 3.76234 0)
(6.22148 6.1923 0)
(9.5404 3.74449 0)
(7.96307 8.80568 0)
(10.0657 -0.116165 0)
(10.0856 -0.227712 0)
(10.1341 -0.272484 0)
(10.2013 -0.266401 0)
(10.2712 -0.24156 0)
(10.3236 -0.216839 0)
(10.3537 -0.201651 0)
(10.3648 -0.196569 0)
(10.366 -0.201615 0)
(10.3659 -0.214352 0)
(10.3693 -0.234051 0)
(10.3786 -0.257538 0)
(10.3926 -0.283858 0)
(10.4114 -0.30999 0)
(10.4327 -0.336226 0)
(10.4568 -0.360748 0)
(10.4817 -0.385457 0)
(10.5079 -0.409268 0)
(10.5345 -0.435023 0)
(10.5627 -0.461451 0)
(10.5913 -0.490884 0)
(10.6205 -0.521057 0)
(10.6495 -0.553292 0)
(10.6782 -0.58401 0)
(10.7057 -0.614815 0)
(10.734 -0.642179 0)
(10.7594 -0.668462 0)
(10.7884 -0.691283 0)
(10.8118 -0.713877 0)
(10.8422 -0.735076 0)
(10.8621 -0.757576 0)
(10.893 -0.781073 0)
(10.9088 -0.806429 0)
(10.9383 -0.834394 0)
(10.9499 -0.862527 0)
(10.9764 -0.893205 0)
(10.9869 -0.922117 0)
(11.0112 -0.954782 0)
(11.0258 -0.985105 0)
(11.049 -1.02021 0)
(11.0702 -1.05367 0)
(11.0922 -1.09292 0)
(11.1178 -1.13057 0)
(11.1353 -1.17193 0)
(11.1596 -1.21044 0)
(11.1694 -1.24904 0)
(11.1871 -1.28301 0)
(11.1884 -1.31386 0)
(11.1976 -1.3395 0)
(11.193 -1.36062 0)
(11.1947 -1.37751 0)
(11.1872 -1.39091 0)
(11.1835 -1.40178 0)
(11.1752 -1.41256 0)
(11.1711 -1.42376 0)
(11.1648 -1.43847 0)
(11.1637 -1.45495 0)
(11.1562 -1.47362 0)
(11.1539 -1.49278 0)
(11.1354 -1.50943 0)
(11.1234 -1.52653 0)
(11.0896 -1.538 0)
(11.0616 -1.55068 0)
(11.0145 -1.55574 0)
(10.9652 -1.56172 0)
(10.9128 -1.56553 0)
(10.8522 -1.57444 0)
(10.806 -1.58316 0)
(10.7406 -1.58639 0)
(10.6968 -1.58857 0)
(10.6259 -1.58626 0)
(10.5772 -1.5805 0)
(10.5061 -1.57068 0)
(10.4601 -1.56679 0)
(10.3825 -1.55648 0)
(10.3261 -1.55383 0)
(10.246 -1.54392 0)
(10.1902 -1.54511 0)
(10.119 -1.54382 0)
(10.0745 -1.54101 0)
(10.0025 -1.52772 0)
(9.9655 -1.51107 0)
(9.88453 -1.47736 0)
(9.84548 -1.43481 0)
(9.761 -1.39286 0)
(9.71613 -1.33398 0)
(9.62309 -1.28162 0)
(9.57144 -1.2274 0)
(9.48235 -1.17334 0)
(9.42755 -1.10582 0)
(9.3275 -1.03526 0)
(9.26731 -0.947456 0)
(9.15786 -0.877415 0)
(9.10025 -0.790326 0)
(8.99906 -0.73084 0)
(8.949 -0.652955 0)
(8.85428 -0.618155 0)
(8.82397 -0.564394 0)
(8.75347 -0.552024 0)
(8.73124 -0.509122 0)
(8.68531 -0.510549 0)
(8.6572 -0.46877 0)
(8.61563 -0.476268 0)
(8.58391 -0.412572 0)
(8.54134 -0.397341 0)
(8.50252 -0.319711 0)
(8.44557 -0.29622 0)
(8.40299 -0.205432 0)
(8.334 -0.179334 0)
(8.28155 -0.0800015 0)
(8.19384 -0.0497244 0)
(8.14069 0.0365727 0)
(8.08672 0.0249089 0)
(8.06405 0.086028 0)
(8.00011 0.0865447 0)
(7.96919 0.163719 0)
(7.8829 0.167575 0)
(7.84551 0.248921 0)
(7.75018 0.243262 0)
(7.74566 0.318237 0)
(7.65446 0.291107 0)
(7.67429 0.358179 0)
(7.59803 0.320353 0)
(7.61883 0.392043 0)
(7.56202 0.350176 0)
(7.57474 0.42924 0)
(7.51939 0.386607 0)
(7.53428 0.478239 0)
(7.47752 0.425867 0)
(7.48904 0.530632 0)
(7.43656 0.467966 0)
(7.43289 0.579248 0)
(7.38352 0.507054 0)
(7.37683 0.618379 0)
(7.33264 0.542482 0)
(7.32175 0.646103 0)
(7.28335 0.566971 0)
(7.26958 0.646857 0)
(7.23026 0.570322 0)
(7.24139 0.652151 0)
(7.18493 0.579607 0)
(7.22651 0.679722 0)
(7.16567 0.589308 0)
(7.22438 0.667542 0)
(7.18247 0.570257 0)
(7.21907 0.660578 0)
(7.18825 0.563636 0)
(7.2299 0.640481 0)
(7.20828 0.537199 0)
(7.2375 0.628245 0)
(7.23699 0.511616 0)
(7.2551 0.640323 0)
(7.28818 0.501169 0)
(7.25689 0.636604 0)
(7.35674 0.504135 0)
(7.26829 0.670689 0)
(7.40631 0.515735 0)
(7.29767 0.701882 0)
(7.47499 0.531412 0)
(7.31254 0.715523 0)
(7.53448 0.555667 0)
(7.33566 0.782653 0)
(7.5874 0.591725 0)
(7.31342 0.832525 0)
(7.67989 0.626934 0)
(7.25636 0.896157 0)
(7.74197 0.660646 0)
(7.16653 0.964896 0)
(7.81016 0.674033 0)
(7.07382 1.03285 0)
(7.89709 0.681441 0)
(6.96454 1.09108 0)
(7.99284 0.688979 0)
(6.84632 1.14322 0)
(8.04461 0.693579 0)
(6.75239 1.20358 0)
(8.03199 0.717946 0)
(6.70419 1.2871 0)
(7.98938 0.773433 0)
(6.69144 1.41016 0)
(7.95534 0.881758 0)
(6.72278 1.58723 0)
(7.89431 1.01212 0)
(6.80332 1.79531 0)
(7.79497 1.17041 0)
(6.91439 2.03186 0)
(7.70295 1.37447 0)
(7.00516 2.30598 0)
(7.6856 1.6598 0)
(7.01073 2.63698 0)
(7.83383 2.02404 0)
(6.89859 3.08772 0)
(8.20959 2.42248 0)
(6.66754 3.75708 0)
(8.83986 2.70212 0)
(6.53424 4.87042 0)
(9.64495 2.72322 0)
(7.10661 6.48246 0)
(10.0136 2.95208 0)
(8.80228 7.67582 0)
(11.5446 -0.101815 0)
(11.585 -0.24276 0)
(11.7011 -0.300846 0)
(11.7946 -0.294963 0)
(11.8582 -0.261541 0)
(11.8861 -0.225969 0)
(11.8934 -0.202979 0)
(11.8835 -0.195143 0)
(11.8723 -0.200772 0)
(11.8574 -0.215557 0)
(11.8494 -0.237322 0)
(11.8413 -0.262484 0)
(11.8407 -0.289983 0)
(11.8396 -0.317256 0)
(11.8442 -0.344449 0)
(11.8472 -0.370164 0)
(11.8542 -0.395539 0)
(11.8594 -0.420183 0)
(11.8676 -0.445779 0)
(11.8737 -0.472195 0)
(11.882 -0.500618 0)
(11.8866 -0.530288 0)
(11.8929 -0.561436 0)
(11.893 -0.592205 0)
(11.8957 -0.622882 0)
(11.8907 -0.651126 0)
(11.8908 -0.678331 0)
(11.8823 -0.702067 0)
(11.8821 -0.725879 0)
(11.8737 -0.746494 0)
(11.874 -0.769232 0)
(11.8678 -0.789808 0)
(11.8678 -0.815035 0)
(11.8649 -0.838415 0)
(11.8626 -0.86719 0)
(11.8635 -0.893959 0)
(11.8579 -0.926161 0)
(11.8627 -0.956542 0)
(11.8545 -0.991652 0)
(11.8623 -1.02582 0)
(11.8518 -1.06387 0)
(11.8595 -1.10177 0)
(11.8466 -1.14138 0)
(11.85 -1.18033 0)
(11.8337 -1.21816 0)
(11.829 -1.25332 0)
(11.8089 -1.28502 0)
(11.7949 -1.31223 0)
(11.7706 -1.33513 0)
(11.7475 -1.35256 0)
(11.7187 -1.36706 0)
(11.6895 -1.37698 0)
(11.6584 -1.38802 0)
(11.6292 -1.39763 0)
(11.599 -1.41145 0)
(11.5717 -1.42476 0)
(11.5379 -1.4406 0)
(11.5053 -1.45456 0)
(11.4601 -1.46873 0)
(11.4157 -1.48138 0)
(11.3599 -1.49311 0)
(11.2997 -1.501 0)
(11.2353 -1.50638 0)
(11.1574 -1.50662 0)
(11.0903 -1.51027 0)
(11.0055 -1.51282 0)
(10.9409 -1.52203 0)
(10.8467 -1.52447 0)
(10.771 -1.52931 0)
(10.672 -1.52287 0)
(10.5879 -1.52052 0)
(10.485 -1.50889 0)
(10.4023 -1.50466 0)
(10.3031 -1.49213 0)
(10.2141 -1.48555 0)
(10.1137 -1.47801 0)
(10.0276 -1.47826 0)
(9.94397 -1.48218 0)
(9.8755 -1.48929 0)
(9.8008 -1.48339 0)
(9.7326 -1.47624 0)
(9.65979 -1.45199 0)
(9.58003 -1.42007 0)
(9.51313 -1.37762 0)
(9.42879 -1.33511 0)
(9.35405 -1.27401 0)
(9.27894 -1.22777 0)
(9.20378 -1.16976 0)
(9.12882 -1.11912 0)
(9.05492 -1.03315 0)
(8.9629 -0.966563 0)
(8.88577 -0.87019 0)
(8.80624 -0.816498 0)
(8.73055 -0.721286 0)
(8.67291 -0.684882 0)
(8.59905 -0.593612 0)
(8.55567 -0.587989 0)
(8.49267 -0.511438 0)
(8.45095 -0.530647 0)
(8.39549 -0.464497 0)
(8.3696 -0.491851 0)
(8.30475 -0.422271 0)
(8.2931 -0.454996 0)
(8.21221 -0.362097 0)
(8.20486 -0.366682 0)
(8.10509 -0.265751 0)
(8.09809 -0.257892 0)
(7.98528 -0.144505 0)
(7.96659 -0.132434 0)
(7.8358 -0.00454323 0)
(7.81411 -0.00268792 0)
(7.72361 0.0812037 0)
(7.73155 0.0425927 0)
(7.63634 0.138411 0)
(7.63238 0.115843 0)
(7.53461 0.23225 0)
(7.50581 0.21221 0)
(7.40648 0.325897 0)
(7.39388 0.276464 0)
(7.303 0.377255 0)
(7.31198 0.303877 0)
(7.23145 0.406574 0)
(7.26347 0.327528 0)
(7.18129 0.434208 0)
(7.23303 0.358094 0)
(7.14099 0.468353 0)
(7.19519 0.389069 0)
(7.11681 0.515703 0)
(7.16271 0.428077 0)
(7.09601 0.573231 0)
(7.14335 0.47269 0)
(7.06716 0.620667 0)
(7.11454 0.511316 0)
(7.0383 0.660004 0)
(7.08668 0.538893 0)
(7.00935 0.689529 0)
(7.05685 0.561093 0)
(6.97231 0.695911 0)
(7.02174 0.557856 0)
(6.94549 0.698521 0)
(7.00307 0.561256 0)
(6.92634 0.713442 0)
(7.01702 0.556098 0)
(6.94588 0.687718 0)
(7.04704 0.540441 0)
(6.96521 0.686712 0)
(7.07807 0.526819 0)
(6.97852 0.666251 0)
(7.12193 0.497252 0)
(6.99686 0.662568 0)
(7.17598 0.466929 0)
(7.00628 0.671607 0)
(7.2568 0.450656 0)
(7.03399 0.681467 0)
(7.32067 0.457171 0)
(7.07344 0.701744 0)
(7.37146 0.453018 0)
(7.13725 0.736034 0)
(7.41677 0.461575 0)
(7.18793 0.77394 0)
(7.44393 0.48295 0)
(7.21471 0.850899 0)
(7.52666 0.532338 0)
(7.19023 0.905369 0)