/*--------------------------------*- C++ -*----------------------------------*\
| =========                 |                                                 |
| \\      /  F ield         | OpenFOAM: The Open Source CFD Toolbox           |
|  \\    /   O peration     | Version:  2.4.0                                 |
|   \\  /    A nd           | Web:      www.OpenFOAM.org                      |
|    \\/     M anipulation  |                                                 |
\*---------------------------------------------------------------------------*/
FoamFile
{
    version     2.0;
    format      ascii;
    class       volScalarField;
    location    "0.59";
    object      nuSgs;
}
// * * * * * * * * * * * * * * * * * * * * * * * * * * * * * * * * * * * * * //

dimensions      [0 2 -1 0 0 0 0];

internalField   nonuniform List<scalar> 
8800
(
0.00133974
0.00150586
0.00139455
0.00122615
0.0011247
0.00104538
0.00100314
0.000953464
0.000933172
0.000897154
0.000885655
0.000863277
0.000850765
0.000842361
0.000820793
0.00082317
0.000802509
0.000794565
0.000792121
0.000759533
0.000557155
0.000980306
0.00108474
0.00108048
0.00106521
0.00102792
0.00100931
0.000969806
0.000956199
0.000923944
0.000913565
0.000890954
0.000879002
0.000869905
0.000848532
0.000851314
0.000831347
0.000830526
0.000818635
0.000815568
0.000136521
0.000401088
0.000589318
0.000653305
0.000711882
0.000729824
0.000757607
0.000756982
0.00076279
0.000755096
0.000757145
0.000747734
0.000745873
0.000742967
0.000731366
0.000737079
0.000721848
0.000732757
0.000713444
0.000719398
2.71869e-05
0.000124173
0.000242463
0.000300051
0.000364179
0.000388264
0.000434699
0.000449429
0.000480732
0.000488669
0.000510048
0.000516159
0.000524198
0.000543109
0.000538015
0.000561563
0.000547716
0.000580028
0.000559583
0.000576894
5.22541e-06
3.32198e-05
7.92674e-05
0.000104178
0.000143072
0.000160452
0.000193999
0.000208388
0.000236708
0.000247747
0.000266271
0.00028562
0.000290885
0.000319126
0.000320469
0.000356137
0.000349743
0.000393524
0.000376154
0.00040604
2.45661e-06
8.59522e-06
2.06496e-05
2.95855e-05
4.35797e-05
5.07131e-05
6.32644e-05
7.50277e-05
8.61249e-05
9.7611e-05
0.000107124
0.000123131
0.000131624
0.000150617
0.000163432
0.000187946
0.000201437
0.000242136
0.000242592
0.000283712
2.1579e-06
3.14628e-06
6.29766e-06
7.98936e-06
1.21589e-05
1.38862e-05
1.66055e-05
2.15963e-05
2.43992e-05
2.94748e-05
3.25068e-05
4.10556e-05
4.35453e-05
5.00795e-05
6.01337e-05
6.31844e-05
8.72614e-05
9.57276e-05
0.000125817
0.000178121
2.18659e-06
2.78177e-06
4.67607e-06
4.86754e-06
5.83109e-06
6.19587e-06
7.17491e-06
7.62651e-06
8.6169e-06
1.00973e-05
1.02325e-05
1.4156e-05
1.55337e-05
2.12661e-05
2.50273e-05
2.59049e-05
3.29673e-05
3.39939e-05
3.96893e-05
4.7342e-05
2.14588e-06
2.45713e-06
3.20265e-06
3.54125e-06
4.06795e-06
4.16631e-06
4.99814e-06
5.36809e-06
6.38713e-06
6.59226e-06
6.48121e-06
7.39279e-06
8.14067e-06
1.13813e-05
1.79739e-05
2.63016e-05
4.65618e-05
5.16188e-05
6.2444e-05
8.44521e-05
2.13881e-06
2.40621e-06
3.1454e-06
3.40036e-06
3.91961e-06
3.90266e-06
4.00201e-06
4.04032e-06
4.17843e-06
4.21563e-06
4.38433e-06
4.4737e-06
4.93392e-06
6.14542e-06
9.63878e-06
1.61117e-05
2.90806e-05
4.07258e-05
6.24193e-05
9.99072e-05
2.14275e-06
2.47582e-06
3.24744e-06
3.52592e-06
3.91139e-06
4.11442e-06
4.77516e-06
5.09408e-06
5.836e-06
6.10023e-06
6.92344e-06
7.31375e-06
8.45358e-06
9.06556e-06
1.00281e-05
1.22014e-05
1.4809e-05
2.03832e-05
2.94013e-05
5.0694e-05
2.13466e-06
2.52846e-06
3.17964e-06
3.68876e-06
3.73228e-06
3.9286e-06
4.20633e-06
4.25393e-06
4.54098e-06
4.59113e-06
5.15086e-06
5.45279e-06
6.54041e-06
6.98724e-06
8.13709e-06
8.81934e-06
9.3282e-06
1.15693e-05
1.29231e-05
1.63712e-05
2.17822e-06
2.76633e-06
3.17885e-06
4.27845e-06
4.523e-06
5.32358e-06
5.64773e-06
6.20339e-06
7.7217e-06
7.70052e-06
1.01368e-05
9.98474e-06
1.36665e-05
1.31729e-05
1.68669e-05
1.7455e-05
1.81804e-05
2.22923e-05
2.49224e-05
2.53115e-05
2.18552e-06
3.0852e-06
5.11267e-06
8.80618e-06
1.07563e-05
1.39523e-05
1.67313e-05
1.95417e-05
2.65198e-05
2.76412e-05
3.57369e-05
3.62256e-05
4.56949e-05
4.56787e-05
5.30162e-05
5.69886e-05
5.90249e-05
6.95674e-05
7.4944e-05
7.93814e-05
2.34842e-06
8.24893e-06
1.77809e-05
3.2141e-05
4.02343e-05
5.31003e-05
6.20893e-05
7.38896e-05
9.05471e-05
9.48458e-05
0.000112498
0.000115717
0.000132848
0.000134737
0.000146974
0.000158015
0.000161855
0.000180347
0.000188221
0.000204606
5.20981e-06
3.30065e-05
6.92069e-05
0.000111017
0.00013859
0.000165574
0.000188565
0.000211903
0.000236526
0.000245458
0.00027177
0.000277981
0.000298666
0.00030392
0.000320074
0.000335471
0.000340121
0.000362325
0.000370805
0.000390088
2.72166e-05
0.000123955
0.000239077
0.000304098
0.000360691
0.000392975
0.000430062
0.000452948
0.000477726
0.000488125
0.000510766
0.000515434
0.000530716
0.000534367
0.000545442
0.000552529
0.000555301
0.000568396
0.000571899
0.00058011
0.000136569
0.000400928
0.000588329
0.000654552
0.00071053
0.000732336
0.000755224
0.000757812
0.00076127
0.000758149
0.0007561
0.000749512
0.000746864
0.000739334
0.000737801
0.000730742
0.000729247
0.000725777
0.000723682
0.000719006
0.000557159
0.000980155
0.00108445
0.00108083
0.00106484
0.00102993
0.00100589
0.000973305
0.000952566
0.000928588
0.000908876
0.000894765
0.000877185
0.00086574
0.000856872
0.000838725
0.000837124
0.000819814
0.000814839
0.000801831
0.00133944
0.00150585
0.00139424
0.00122704
0.00112339
0.00104727
0.00100046
0.00095655
0.000928819
0.000901946
0.000880804
0.000866232
0.000848042
0.000836327
0.00082473
0.000804904
0.000801395
0.000774621
0.000765153
0.000734094
0.000335735
0.000285041
0.000260567
0.00024607
0.000239607
0.000230975
0.000227553
0.000219708
0.000217039
0.000209863
0.000207431
0.000201284
0.000198928
0.000193128
0.000191311
0.00018657
0.000185572
0.00018216
0.000182003
0.000179756
0.000179934
0.000177625
0.000177768
0.000175291
0.000175873
0.000173859
0.000175223
0.000173443
0.000175114
0.000173097
0.000174725
0.000172359
0.000174012
0.000171371
0.000173174
0.00017033
0.000172463
0.000169441
0.000171918
0.000168511
0.000171058
0.000166666
0.000168538
0.000162608
0.000162981
0.00015558
0.000155674
0.000149095
0.000151153
0.000146132
0.000150581
0.000147086
0.000153837
0.000150495
0.000158417
0.000153958
0.000161757
0.000156213
0.000164045
0.000157789
0.000165564
0.000158598
0.000165659
0.000157925
0.00016448
0.000156148
0.000162284
0.000153617
0.000159882
0.000150487
0.000157439
0.000146665
0.000152549
0.000140308
0.000145312
0.000135201
0.000145126
0.000140751
0.000153355
0.000150614
0.00016383
0.000161434
0.000164536
0.000167682
0.000160549
0.000162504
0.000153943
0.000150603
0.000139705
0.000135159
0.000124589
0.000119279
0.000110484
0.000107192
0.000101232
9.96342e-05
9.59461e-05
9.50525e-05
9.28037e-05
9.23168e-05
9.07166e-05
9.03076e-05
8.88938e-05
8.84834e-05
8.66259e-05
8.59625e-05
8.36032e-05
8.35469e-05
8.28373e-05
8.36422e-05
8.44289e-05
8.76346e-05
8.92729e-05
9.24306e-05
9.31073e-05
9.47939e-05
9.59506e-05
9.90887e-05
0.000103899
0.000107455
0.000114531
0.000118479
0.000126387
0.000128897
0.000134414
0.000134634
0.000135576
0.000134182
0.000133878
0.00013214
0.000131587
0.0001296
0.000128822
0.000126394
0.000125151
0.000121507
0.000119545
0.000115055
0.000112051
0.000108346
0.000104357
0.000101605
9.76239e-05
9.49735e-05
9.04372e-05
8.83747e-05
8.45003e-05
7.97951e-05
7.68992e-05
7.18765e-05
6.46328e-05
5.99207e-05
4.89408e-05
3.9375e-05
3.45863e-05
3.02135e-05
2.80133e-05
2.84391e-05
2.88825e-05
2.92605e-05
3.24803e-05
4.62998e-05
7.98225e-05
0.00012236
0.000137208
0.000140257
0.000137402
0.000130811
0.00011981
0.000110224
0.000103095
9.82834e-05
9.63778e-05
9.65213e-05
9.77553e-05
0.000100346
0.000101231
0.000100687
9.9066e-05
9.49916e-05
8.32101e-05
7.83323e-05
7.77557e-05
7.99049e-05
8.8014e-05
0.000106255
0.000117264
0.000119916
0.000119156
0.000118578
0.000116034
0.000111922
0.000110632
0.000106815
0.000109431
0.000107373
0.00011384
0.00011599
0.00012794
0.000165167
0.000412057
0.000371796
0.000339863
0.000312893
0.000297196
0.000279121
0.00027174
0.000257992
0.000253887
0.000244281
0.000241458
0.000233882
0.000231996
0.00022592
0.000224455
0.000218766
0.000217753
0.000212681
0.000212216
0.000207914
0.000208067
0.00020438
0.000205054
0.000201354
0.000202395
0.000198678
0.000200193
0.000196491
0.000198486
0.000194741
0.000197048
0.000193115
0.000195648
0.000191512
0.000194344
0.000190027
0.000193274
0.000188771
0.000192488
0.000187776
0.000191824
0.000186815
0.000190808
0.000185373
0.000188885
0.000183048
0.000186028
0.000180208
0.000183283
0.000177748
0.000181232
0.000176017
0.000180375
0.000175589
0.000180683
0.000176017
0.000181027
0.000176415
0.000180995
0.000176547
0.000180428
0.000176339
0.000179517
0.000175937
0.000178421
0.000175414
0.000177123
0.000174633
0.000175718
0.000173694
0.000174024
0.000172637
0.000171684
0.000170227
0.000165352
0.000163779
0.000157305
0.000157512
0.000153696
0.000158656
0.000155378
0.00016496
0.000160405
0.000170545
0.000164483
0.000170655
0.000164665
0.000167035
0.000161926
0.000161206
0.000156466
0.000154563
0.000149144
0.000146969
0.000141815
0.000139781
0.000135323
0.000133671
0.00013023
0.000128852
0.000125637
0.000124258
0.000121391
0.000119916
0.000117044
0.000115058
0.0001108
0.000108808
0.00010603
0.000105162
0.000103041
0.000102346
0.000100515
0.000100241
9.9315e-05
9.91931e-05
9.87011e-05
9.8765e-05
9.90833e-05
0.000100364
0.00010225
0.000103929
0.000108681
0.000110966
0.000115834
0.000117594
0.000121352
0.000122646
0.000124669
0.0001244
0.00012458
0.000123569
0.000122548
0.000119249
0.000117264
0.000112462
0.000109986
0.000104654
0.000101988
9.69932e-05
9.43204e-05
8.90171e-05
8.66735e-05
8.21109e-05
7.7552e-05
7.50047e-05
6.87817e-05
6.48425e-05
5.98434e-05
5.19345e-05
4.58069e-05
3.93411e-05
3.25578e-05
2.96449e-05
2.8758e-05
2.67017e-05
2.67886e-05
2.80936e-05
2.86205e-05
3.04709e-05
3.96614e-05
6.66782e-05
0.000118713
0.000141035
0.000146921
0.000144457
0.000136006
0.000119227
0.000106768
9.87857e-05
9.40794e-05
9.11062e-05
8.94651e-05
8.89209e-05
8.92241e-05
9.02663e-05
9.28226e-05
9.71039e-05
9.73519e-05
9.61728e-05
9.25974e-05
8.2487e-05
7.84086e-05
7.77234e-05
7.95923e-05
8.65857e-05
0.000101913
0.000114737
0.000116256
0.00011678
0.000116353
0.000112368
0.000112224
0.000109075
0.000110832
0.000110226
0.000112805
0.00011528
0.000120935
0.000139688
0.000375373
0.000351913
0.000332006
0.000309112
0.000298493
0.000279787
0.000273616
0.000259504
0.000255059
0.000243644
0.000240856
0.000232481
0.000230742
0.00022374
0.000222745
0.000216987
0.000216632
0.000211275
0.000211355
0.000206457
0.000206984
0.000202021
0.000203099
0.000198194
0.000199794
0.000195003
0.000197129
0.000192557
0.000195111
0.000190697
0.000193495
0.000189147
0.000192003
0.000187699
0.000190592
0.000186362
0.000189326
0.000185254
0.000188304
0.000184459
0.000187475
0.000183874
0.000186601
0.000183177
0.000185316
0.000182012
0.000183409
0.000180289
0.000181136
0.000178385
0.000178909
0.000176614
0.000177002
0.000175352
0.000175636
0.000174623
0.000174498
0.000174306
0.000173172
0.00017332
0.000171945
0.000172585
0.000170513
0.000171916
0.000169279
0.000171651
0.000168566
0.000171922
0.000168655
0.00017303
0.000169621
0.000174946
0.000170983
0.000176504
0.000171393
0.000176157
0.000170008
0.00017424
0.000167422
0.000171754
0.000165552
0.000170034
0.00016485
0.000169188
0.000165039
0.000168189
0.000164963
0.000166265
0.0001637
0.000163447
0.000161137
0.000160145
0.000157545
0.000156154
0.000153447
0.000151702
0.000148553
0.000146851
0.00014334
0.000141676
0.000138669
0.000136595
0.000134505
0.000131703
0.000130814
0.000128604
0.000127767
0.00012622
0.000125437
0.000125083
0.000124293
0.000124228
0.000123663
0.000123585
0.000122697
0.000122239
0.000120497
0.000119729
0.000117444
0.000116912
0.000115823
0.000115977
0.000116207
0.000117263
0.000118153
0.000120459
0.000121208
0.000121989
0.000121873
0.000121395
0.000119177
0.000116408
0.000111349
0.000105576
0.000100132
9.45641e-05
8.90185e-05
8.42293e-05
7.79759e-05
7.40912e-05
6.85751e-05
6.30525e-05
6.00363e-05
5.41239e-05
5.0509e-05
4.70547e-05
4.18866e-05
3.94093e-05
3.55939e-05
3.13372e-05
2.98573e-05
2.70013e-05
2.52173e-05
2.58017e-05
2.56401e-05
2.5058e-05
2.60236e-05
2.74497e-05
2.91117e-05
3.45584e-05
5.32089e-05
0.000103509
0.0001411
0.000153675
0.000154151
0.000145378
0.00012587
0.00011022
0.000100591
9.43787e-05
9.16528e-05
8.91131e-05
8.85462e-05
8.72849e-05
8.66991e-05
8.66578e-05
8.71931e-05
8.87692e-05
9.2968e-05
9.44484e-05
9.34189e-05
9.03324e-05
8.15553e-05
7.80748e-05
7.74336e-05
7.90787e-05
8.47609e-05
9.94703e-05
0.000110753
0.000112465
0.000115559
0.000113823
0.000114032
0.000112312
0.000111834
0.000110777
0.000110981
0.000112891
0.00011418
0.000119655
0.000306239
0.000292809
0.000282338
0.000265372
0.000259351
0.000245535
0.000240716
0.000228997
0.000225627
0.000216281
0.000213831
0.000205853
0.000204308
0.00019819
0.000197296
0.000191987
0.000191558
0.000187133
0.000186819
0.000182226
0.00018182
0.00017708
0.000176609
0.00017161
0.000171155
0.000166788
0.00016688
0.000163573
0.000164034
0.000161383
0.00016214
0.000160015
0.000160748
0.000158998
0.000159442
0.000158043
0.000158138
0.000157179
0.000157028
0.000156685
0.000156115
0.000156269
0.00015562
0.000156051
0.000154917
0.000155481
0.000153848
0.000154331
0.000152261
0.000152723
0.000150247
0.000150933
0.000148155
0.000149251
0.000146387
0.000147977
0.000145058
0.000147097
0.000144081
0.000146448
0.000143357
0.000145949
0.000142752
0.000145649
0.000142377
0.000145758
0.000142646
0.000146622
0.000143871
0.000148811
0.000146513
0.000152527
0.000150856
0.000157382
0.000155871
0.000161504
0.000159405
0.000163807
0.000161114
0.000164229
0.000161437
0.000163634
0.000161168
0.000162427
0.00016025
0.000160602
0.000158929
0.0001584
0.000156691
0.000155251
0.000153854
0.000150516
0.000148888
0.000145168
0.000143303
0.000139341
0.000137031
0.000133323
0.000131593
0.000127943
0.000126767
0.000124105
0.000123564
0.000122374
0.000122611
0.000122369
0.000122873
0.000122747
0.000123363
0.000123612
0.000124497
0.000124934
0.000126268
0.000126757
0.0001278
0.000128261
0.00012833
0.000128562
0.000128293
0.000128118
0.000127236
0.000126708
0.000125317
0.000124766
0.000123188
0.000122283
0.000119939
0.000118217
0.000113703
0.000110137
0.000102726
9.71389e-05
8.84538e-05
8.11819e-05
7.40907e-05
6.71892e-05
6.20952e-05
5.71709e-05
5.27616e-05
4.95329e-05
4.51644e-05
4.21785e-05
3.88706e-05
3.53076e-05
3.31737e-05
3.01296e-05
2.75462e-05
2.66751e-05
2.43458e-05
2.35125e-05
2.32661e-05
2.21164e-05
2.2491e-05
2.408e-05
2.36085e-05
2.3775e-05
2.56606e-05
2.78482e-05
3.17463e-05
4.27311e-05
7.52776e-05
0.000133104
0.000157788
0.000163946
0.000159599
0.000140041
0.000120033
0.000105227
9.62632e-05
9.22346e-05
9.00403e-05
8.8855e-05
8.82332e-05
8.78581e-05
8.57956e-05
8.55563e-05
8.5311e-05
8.5871e-05
8.68481e-05
9.00505e-05
9.18495e-05
9.09849e-05
8.84649e-05
8.06188e-05
7.79063e-05
7.70695e-05
7.79832e-05
8.269e-05
9.61195e-05
0.000105348
0.000112882
0.000112843
0.00011283
0.000112141
0.000110714
0.000110533
0.000110544
0.00011168
0.00011147
0.000112699
0.000218261
0.000214058
0.000204957
0.000200144
0.000192197
0.000186424
0.000180058
0.000174375
0.000169319
0.00016472
0.000160462
0.000156605
0.000153661
0.000149712
0.000148241
0.00014544
0.000143493
0.000142409
0.00013952
0.000138343
0.00013528
0.000133958
0.000129924
0.000128288
0.000124114
0.000122714
0.000118375
0.000117145
0.000113397
0.000112792
0.000110243
0.000110604
0.000109185
0.000110133
0.000108764
0.000109956
0.000108387
0.000109611
0.00010791
0.000109239
0.000107563
0.000109167
0.000107543
0.000109355
0.000107692
0.000109412
0.000107617
0.000108995
0.000106936
0.000108104
0.000105698
0.000106827
0.000104212
0.000105336
0.000102779
0.000103994
0.000101581
0.000103029
0.000100799
0.000102421
0.000100409
0.000102144
0.000100309
0.000102191
0.00010053
0.000102551
0.000101273
0.000103428
0.000102618
0.000105252
0.000104993
0.000108169
0.000108573
0.000112391
0.000113455
0.000118241
0.000119654
0.00012472
0.000126049
0.000130186
0.000131149
0.000133793
0.000134135
0.000134801
0.000134498
0.000133884
0.000133221
0.00013111
0.000129734
0.000126464
0.000124764
0.000120753
0.000118594
0.000113879
0.00011157
0.000107131
0.000104392
0.000100184
9.77118e-05
9.36445e-05
9.18572e-05
8.83483e-05
8.66603e-05
8.43752e-05
8.31491e-05
8.25509e-05
8.26269e-05
8.28966e-05
8.42348e-05
8.53741e-05
8.80949e-05
8.97086e-05
9.33138e-05
9.51043e-05
9.88053e-05
0.000100847
0.000103658
0.000105265
0.000106917
0.000107225
0.000107638
0.000107514
0.000107052
0.000105627
0.000103935
0.000100588
9.70306e-05
9.12242e-05
8.62096e-05
7.94662e-05
7.22511e-05
6.5264e-05
5.81275e-05
5.22506e-05
4.68643e-05
4.23543e-05
3.92581e-05
3.58159e-05
3.4188e-05
3.17224e-05
2.99225e-05
2.84218e-05
2.62684e-05
2.48157e-05
2.3619e-05
2.18096e-05
2.14569e-05
2.08903e-05
2.02172e-05
2.06375e-05
2.04098e-05
2.03674e-05
2.16336e-05
2.21722e-05
2.22947e-05
2.32416e-05
2.69517e-05
3.03146e-05
3.63768e-05
5.33619e-05
0.00010674
0.000154341
0.000170959
0.000172741
0.000161917
0.000136717
0.000113726
9.97337e-05
9.2908e-05
9.07733e-05
8.88464e-05
8.91592e-05
8.87208e-05
8.93507e-05
8.78469e-05
8.74108e-05
8.58516e-05
8.58378e-05
8.59161e-05
8.61901e-05
8.92171e-05
8.97693e-05
8.96718e-05
8.68354e-05
7.98381e-05
7.76968e-05
7.76455e-05
7.88432e-05
8.39377e-05
9.05251e-05
0.000102969
0.000108891
0.000109717
0.000110829
0.000110126
0.000110099
0.000109579
0.000110475
0.000110106
0.000110355
0.000151262
0.000148138
0.000139619
0.000136391
0.000127211
0.000124093
0.000115246
0.000112556
0.000105458
0.000103822
9.93352e-05
9.85188e-05
9.54977e-05
9.48018e-05
9.21615e-05
9.17091e-05
8.99862e-05
9.02404e-05
8.8753e-05
8.90871e-05
8.7302e-05
8.73478e-05
8.51066e-05
8.45844e-05
8.14953e-05
8.07273e-05
7.7347e-05
7.65493e-05
7.32946e-05
7.25917e-05
6.9894e-05
6.98805e-05
6.86735e-05
6.91695e-05
6.83365e-05
6.91135e-05
6.84596e-05
6.92815e-05
6.86889e-05
6.94652e-05
6.88701e-05
6.9657e-05
6.90391e-05
6.98233e-05
6.91681e-05
6.97916e-05
6.91005e-05
6.94466e-05
6.8659e-05
6.88737e-05
6.79423e-05
6.81395e-05
6.71183e-05
6.72939e-05
6.62817e-05
6.64573e-05
6.54796e-05
6.57438e-05
6.48399e-05
6.51397e-05
6.43636e-05
6.46598e-05
6.40248e-05
6.43552e-05
6.39013e-05
6.42967e-05
6.41502e-05
6.4613e-05
6.47498e-05
6.56686e-05
6.60957e-05
6.76773e-05
6.85227e-05
7.07438e-05
7.20014e-05
7.48741e-05
7.6286e-05
7.94764e-05
8.08516e-05
8.35288e-05
8.51894e-05
8.66183e-05
8.82284e-05
8.88994e-05
8.90229e-05
8.86422e-05
8.82277e-05
8.67984e-05
8.57734e-05
8.35689e-05
8.18241e-05
7.88905e-05
7.71682e-05
7.36998e-05
7.17048e-05
6.86674e-05
6.64359e-05
6.39663e-05
6.20162e-05
5.98382e-05
5.83789e-05
5.66518e-05
5.54788e-05
5.46374e-05
5.35975e-05
5.31898e-05
5.28552e-05
5.29304e-05
5.30696e-05
5.35693e-05
5.4049e-05
5.50277e-05
5.6085e-05
5.72146e-05
5.8574e-05
6.00434e-05
6.11035e-05
6.22988e-05
6.30494e-05
6.33842e-05
6.35551e-05
6.35119e-05
6.32179e-05
6.20434e-05
6.02551e-05
5.80207e-05
5.50773e-05
5.16883e-05
4.86162e-05
4.48884e-05
4.16092e-05
3.80131e-05
3.48274e-05
3.20205e-05
2.92568e-05
2.76095e-05
2.56481e-05
2.43708e-05
2.35466e-05
2.21108e-05
2.15366e-05
2.06023e-05
1.97935e-05
1.96491e-05
1.90471e-05
1.89364e-05
1.91577e-05
1.88901e-05
1.91155e-05
1.95126e-05
1.9454e-05
1.97227e-05
2.10038e-05
2.13828e-05
2.1841e-05
2.48435e-05
2.9344e-05
3.29428e-05
4.16551e-05
6.98054e-05
0.00013735
0.000170822
0.000181688
0.000179584
0.000162417
0.000135555
0.000110908
9.78553e-05
9.20823e-05
8.97252e-05
8.89388e-05
8.94302e-05
8.87705e-05
8.91567e-05
8.85756e-05
8.75491e-05
8.77519e-05
8.62614e-05
8.69166e-05
8.59766e-05
8.73035e-05
8.97065e-05
8.96579e-05
8.94083e-05
8.46054e-05
8.17602e-05
7.86886e-05
7.86529e-05
7.91592e-05
8.14152e-05
8.6182e-05
9.73855e-05
0.00010127
0.000106654
0.000107263
0.000108358
0.000107729
0.000107996
0.000107615
0.000107934
9.20627e-05
8.44893e-05
7.95006e-05
7.45414e-05
6.87819e-05
6.61732e-05
6.01861e-05
5.80663e-05
5.38516e-05
5.2832e-05
5.14372e-05
5.14832e-05
5.10034e-05
5.09021e-05
5.04081e-05
5.04296e-05
5.01939e-05
5.06949e-05
5.07247e-05
5.1838e-05
5.16209e-05
5.19438e-05
5.10358e-05
5.08887e-05
4.91226e-05
4.85754e-05
4.64212e-05
4.58497e-05
4.37853e-05
4.32823e-05
4.15451e-05
4.14753e-05
4.07064e-05
4.09348e-05
4.05819e-05
4.10486e-05
4.09644e-05
4.14615e-05
4.14474e-05
4.18122e-05
4.17725e-05
4.20433e-05
4.20106e-05
4.22409e-05
4.22627e-05
4.24553e-05
4.25086e-05
4.26512e-05
4.26045e-05
4.26292e-05
4.24215e-05
4.2413e-05
4.20776e-05
4.20036e-05
4.1589e-05
4.14822e-05
4.10475e-05
4.09656e-05
4.06109e-05
4.05871e-05
4.04238e-05
4.04456e-05
4.03761e-05
4.04207e-05
4.04503e-05
4.04962e-05
4.0689e-05
4.08236e-05
4.11084e-05
4.14955e-05
4.19799e-05
4.24716e-05
4.34944e-05
4.41447e-05
4.5436e-05
4.65232e-05
4.7749e-05
4.94289e-05
5.05376e-05
5.18697e-05
5.30769e-05
5.38934e-05
5.50232e-05
5.55875e-05
5.57618e-05
5.56292e-05
5.53291e-05
5.47975e-05
5.35564e-05
5.27566e-05
5.1212e-05
4.97031e-05
4.83077e-05
4.66534e-05
4.52267e-05
4.38377e-05
4.24734e-05
4.13317e-05
4.01796e-05
3.91454e-05
3.82484e-05
3.73443e-05
3.66267e-05
3.61469e-05
3.56186e-05
3.53606e-05
3.50596e-05
3.50558e-05
3.50279e-05
3.51487e-05
3.53046e-05
3.56955e-05
3.62097e-05
3.68817e-05
3.75175e-05
3.81602e-05
3.84837e-05
3.9042e-05
3.91809e-05
3.93419e-05
3.93307e-05
3.89681e-05
3.83584e-05
3.73294e-05
3.58802e-05
3.46435e-05
3.26579e-05
3.11361e-05
2.92845e-05
2.7645e-05
2.59578e-05
2.42249e-05
2.29396e-05
2.14721e-05
2.05668e-05
1.98725e-05
1.89567e-05
1.8664e-05
1.80626e-05
1.77829e-05
1.74806e-05
1.73623e-05
1.75433e-05
1.78553e-05
1.7945e-05
1.85165e-05
1.85836e-05
1.85514e-05
1.89992e-05
1.91293e-05
1.93035e-05
1.98535e-05
2.08886e-05
2.13388e-05
2.26996e-05
2.87862e-05
3.25317e-05
3.7494e-05
5.11175e-05
0.000101155
0.000157408
0.000184518
0.000189838
0.000183915
0.00017004
0.000136265
0.000110326
9.7455e-05
9.17062e-05
8.96047e-05
9.00667e-05
8.96583e-05
8.93266e-05
8.87668e-05
8.99655e-05
8.88557e-05
9.18836e-05
8.85626e-05
8.96932e-05
8.76975e-05
8.71862e-05
9.15107e-05
9.09685e-05
9.36116e-05
9.13377e-05
8.99733e-05
8.56389e-05
8.02757e-05
7.85267e-05
7.84717e-05
7.94224e-05
8.45053e-05
8.80471e-05
9.56211e-05
9.82073e-05
0.000102583
0.000103321
0.00010389
0.000103287
0.000103043
2.90134e-05
2.77546e-05
2.84783e-05
2.73911e-05
2.80436e-05
2.73681e-05
2.7615e-05
2.71922e-05
2.7232e-05
2.71199e-05
2.70931e-05
2.72283e-05
2.70384e-05
2.71577e-05
2.68912e-05
2.70234e-05
2.69056e-05
2.74439e-05
2.7534e-05
2.81237e-05
2.76985e-05
2.79248e-05
2.69345e-05
2.68421e-05
2.52765e-05
2.49615e-05
2.3542e-05
2.34086e-05
2.22793e-05
2.22022e-05
2.12215e-05
2.12497e-05
2.05832e-05
2.07737e-05
2.05239e-05
2.09017e-05
2.09128e-05
2.13335e-05
2.14043e-05
2.17247e-05
2.17367e-05
2.19463e-05
2.19309e-05
2.21159e-05
2.21479e-05
2.23687e-05
2.24728e-05
2.27746e-05
2.28204e-05
2.29826e-05
2.28883e-05
2.29262e-05
2.27619e-05
2.27488e-05
2.25802e-05
2.2533e-05
2.24555e-05
2.24289e-05
2.24713e-05
2.25117e-05
2.265e-05
2.27674e-05
2.30303e-05
2.31467e-05
2.3479e-05
2.36161e-05
2.40097e-05
2.41373e-05
2.45483e-05
2.47274e-05
2.52125e-05
2.54639e-05
2.61248e-05
2.6524e-05
2.74448e-05
2.79811e-05
2.9085e-05
2.99989e-05
3.09502e-05
3.18848e-05
3.27157e-05
3.32862e-05
3.4026e-05
3.45584e-05
3.48414e-05
3.48336e-05
3.4685e-05
3.44481e-05
3.37853e-05
3.32781e-05
3.2345e-05
3.14996e-05
3.04986e-05
2.96377e-05
2.86561e-05
2.79358e-05
2.70225e-05
2.64737e-05
2.56381e-05
2.51638e-05
2.44522e-05
2.39594e-05
2.3407e-05
2.30483e-05
2.2767e-05
2.26123e-05
2.25202e-05
2.25272e-05
2.24606e-05
2.24876e-05
2.253e-05
2.25936e-05
2.29958e-05
2.32544e-05
2.38894e-05
2.41316e-05
2.44481e-05
2.47142e-05
2.47596e-05
2.48638e-05
2.48411e-05
2.43493e-05
2.39515e-05
2.30278e-05
2.22441e-05
2.142e-05
2.04184e-05
1.97294e-05
1.88976e-05
1.83463e-05
1.76324e-05
1.72044e-05
1.68191e-05
1.65622e-05
1.65467e-05
1.64422e-05
1.64546e-05
1.64233e-05
1.63741e-05
1.65122e-05
1.65919e-05
1.67972e-05
1.75699e-05
1.78166e-05
1.82822e-05
1.88121e-05
1.86991e-05
1.89482e-05
1.92001e-05
1.93902e-05
1.97375e-05
2.10511e-05
2.2352e-05
2.39036e-05
2.83277e-05
3.48202e-05
3.8691e-05
4.65552e-05
6.82205e-05
0.000129564
0.00017442
0.000194145
0.000193757
0.000195278
0.000182832
0.000142216
0.000113451
9.75735e-05
9.17693e-05
9.05679e-05
9.07178e-05
8.99667e-05
9.04846e-05
8.95283e-05
9.12954e-05
9.01091e-05
9.32375e-05
9.05666e-05
8.91479e-05
9.13766e-05
8.85727e-05
9.91477e-05
0.000100165
9.99022e-05
9.6867e-05
9.20602e-05
9.02464e-05
8.47403e-05
8.09938e-05
7.86713e-05
7.84615e-05
7.9027e-05
8.0506e-05
8.4499e-05
8.65532e-05
9.06065e-05
9.21051e-05
9.4129e-05
9.41564e-05
9.40423e-05
4.53346e-05
4.36869e-05
4.21578e-05
4.0373e-05
3.81927e-05
3.66095e-05
3.37102e-05
3.23683e-05
2.95734e-05
2.83944e-05
2.57324e-05
2.47235e-05
2.23171e-05
2.13702e-05
1.89801e-05
1.81115e-05
1.60695e-05
1.559e-05
1.4392e-05
1.45126e-05
1.3838e-05
1.3894e-05
1.30015e-05
1.27795e-05
1.16474e-05
1.15184e-05
1.09147e-05
1.08926e-05
1.04294e-05
1.03666e-05
9.93885e-06
9.84652e-06
9.61402e-06
9.62075e-06
9.56488e-06
9.63573e-06
9.6662e-06
9.80462e-06
9.8604e-06
9.96059e-06
1.00125e-05
1.00994e-05
1.01317e-05
1.01827e-05
1.02639e-05
1.02679e-05
1.03067e-05
1.03007e-05
1.0322e-05
1.03225e-05
1.03375e-05
1.03401e-05
1.03694e-05
1.03692e-05
1.04101e-05
1.04193e-05
1.05132e-05
1.05281e-05
1.06653e-05
1.06922e-05
1.08376e-05
1.08702e-05
1.10285e-05
1.10834e-05
1.12798e-05
1.13502e-05
1.16178e-05
1.17113e-05
1.20429e-05
1.21825e-05
1.25999e-05
1.28127e-05
1.33456e-05
1.36414e-05
1.43139e-05
1.46803e-05
1.54789e-05
1.58764e-05
1.66067e-05
1.71477e-05
1.76584e-05
1.80075e-05
1.83686e-05
1.86914e-05
1.89113e-05
1.8922e-05
1.88353e-05
1.86936e-05
1.83396e-05
1.80064e-05
1.75031e-05
1.69656e-05
1.63861e-05
1.592e-05
1.54422e-05
1.50464e-05
1.46576e-05
1.44169e-05
1.41132e-05
1.39963e-05
1.37609e-05
1.36597e-05
1.3495e-05
1.33691e-05
1.3356e-05
1.33468e-05
1.337e-05
1.35209e-05
1.35955e-05
1.37584e-05
1.38392e-05
1.39165e-05
1.41436e-05
1.42937e-05
1.47299e-05
1.48759e-05
1.51758e-05
1.53151e-05
1.54141e-05
1.55153e-05
1.55438e-05
1.54707e-05
1.54016e-05
1.51093e-05
1.5024e-05
1.47997e-05
1.46538e-05
1.46366e-05
1.46401e-05
1.46667e-05
1.47155e-05
1.48865e-05
1.4993e-05
1.53886e-05
1.56608e-05
1.58382e-05
1.62543e-05
1.63444e-05
1.67556e-05
1.70796e-05
1.74076e-05
1.85409e-05
1.88979e-05
1.90118e-05
1.94123e-05
1.94372e-05
1.95905e-05
2.03177e-05
2.12012e-05
2.19073e-05
2.31513e-05
2.66035e-05
2.90834e-05
3.2004e-05
4.04617e-05
4.57951e-05
5.06079e-05
6.13194e-05
9.4365e-05
0.000151289
0.000184779
0.000196661
0.000201711
0.000208241
0.00019846
0.00015967
0.00012192
9.97832e-05
9.37226e-05
9.24308e-05
9.1495e-05
9.14484e-05
9.26831e-05
9.19104e-05
9.20111e-05
9.08193e-05
9.091e-05
9.25828e-05
9.01449e-05
0.000100322
9.35982e-05
0.000100712
0.000128339
0.000115951
0.000115835
0.000102552
9.65973e-05
8.80255e-05
8.57829e-05
8.04045e-05
7.95076e-05
7.77328e-05
7.77979e-05
7.85266e-05
7.97642e-05
8.11746e-05
8.26809e-05
8.38118e-05
8.36087e-05
8.34084e-05
5.20838e-05
4.72588e-05
4.51652e-05
4.00421e-05
3.8016e-05
3.33686e-05
3.1429e-05
2.77245e-05
2.59544e-05
2.31592e-05
2.16393e-05
1.93395e-05
1.80175e-05
1.60017e-05
1.51638e-05
1.37111e-05
1.33867e-05
1.28101e-05
1.27896e-05
1.22997e-05
1.20415e-05
1.12531e-05
1.0969e-05
1.03686e-05
1.02092e-05
9.89336e-06
9.79064e-06
9.51513e-06
9.42065e-06
9.25738e-06
9.24953e-06
9.2041e-06
9.17441e-06
9.14097e-06
9.0967e-06
9.07782e-06
9.03157e-06
9.00261e-06
8.95591e-06
8.95983e-06
8.95464e-06
8.98725e-06
9.01822e-06
9.03854e-06
9.03954e-06
9.0365e-06
9.02021e-06
9.00965e-06
8.99733e-06
8.99725e-06
9.01846e-06
9.06819e-06
9.11394e-06
9.14596e-06
9.17998e-06
9.18825e-06
9.20442e-06
9.20213e-06
9.21856e-06
9.21774e-06
9.24194e-06
9.23652e-06
9.24936e-06
9.2451e-06
9.2525e-06
9.25748e-06
9.2937e-06
9.31559e-06
9.36925e-06
9.39036e-06
9.43373e-06
9.47513e-06
9.51447e-06
9.63185e-06
9.71531e-06
9.86506e-06
1.00257e-05
1.01893e-05
1.03319e-05
1.05284e-05
1.06093e-05
1.07543e-05
1.08453e-05
1.09155e-05
1.10182e-05
1.10482e-05
1.1036e-05
1.10037e-05
1.09425e-05
1.08128e-05
1.06789e-05
1.05383e-05
1.04158e-05
1.0321e-05
1.02561e-05
1.0231e-05
1.02123e-05
1.0211e-05
1.02222e-05
1.02519e-05
1.02826e-05
1.03297e-05
1.03638e-05
1.04173e-05
1.04439e-05
1.05138e-05
1.05482e-05
1.0614e-05
1.06974e-05
1.07637e-05
1.08263e-05
1.09353e-05
1.10021e-05
1.1167e-05
1.1294e-05
1.1515e-05
1.18002e-05
1.19631e-05
1.23346e-05
1.24931e-05
1.27126e-05
1.30365e-05
1.31474e-05
1.33837e-05
1.3557e-05
1.3805e-05
1.40026e-05
1.43465e-05
1.47631e-05
1.50507e-05
1.57949e-05
1.61882e-05
1.69443e-05
1.78117e-05
1.81063e-05
1.8712e-05
1.90031e-05
1.95044e-05
2.0411e-05
2.0668e-05
2.11377e-05
2.1297e-05
2.13841e-05
2.16177e-05
2.20625e-05
2.31571e-05
2.42009e-05
2.58032e-05
2.75669e-05
2.92701e-05
3.28612e-05
3.85409e-05
4.20326e-05
4.78829e-05
5.86675e-05
6.31505e-05
6.79551e-05
7.77722e-05
0.000112543
0.000164771
0.000189425
0.000200868
0.000208114
0.000222971
0.000220372
0.000182641
0.000136799
0.00010627
9.68257e-05
9.41375e-05
9.39027e-05
9.28965e-05
9.39242e-05
9.43644e-05
9.29712e-05
9.32392e-05
9.09606e-05
9.61596e-05
9.27355e-05
9.98968e-05
9.89482e-05
0.000103879
0.000184636
0.000156507
0.000191072
0.000149271
0.000119979
9.83973e-05
9.27986e-05
8.43697e-05
8.26906e-05
7.8522e-05
7.7556e-05
7.82577e-05
7.87022e-05
7.8212e-05
7.82685e-05
7.90814e-05
7.90407e-05
7.80439e-05
2.62031e-05
2.40642e-05
2.22237e-05
1.99037e-05
1.83955e-05
1.64922e-05
1.54668e-05
1.38279e-05
1.31395e-05
1.18508e-05
1.14421e-05
1.05813e-05
1.03777e-05
9.92533e-06
9.92944e-06
9.81153e-06
9.85115e-06
9.69571e-06
9.60076e-06
9.6089e-06
9.56663e-06
9.66513e-06
9.62629e-06
9.72656e-06
9.67965e-06
9.75065e-06
9.68914e-06
9.79329e-06
9.82945e-06
1.00573e-05
1.02537e-05
1.03949e-05
1.0442e-05
1.04285e-05
1.03718e-05
1.03103e-05
1.02065e-05
1.01722e-05
1.00986e-05
1.01098e-05
1.00966e-05
1.01472e-05
1.01608e-05
1.02057e-05
1.01828e-05
1.01876e-05
1.01471e-05
1.01365e-05
1.00832e-05
1.0073e-05