/*--------------------------------*- C++ -*----------------------------------*\
| =========                 |                                                 |
| \\      /  F ield         | OpenFOAM: The Open Source CFD Toolbox           |
|  \\    /   O peration     | Version:  2.4.0                                 |
|   \\  /    A nd           | Web:      www.OpenFOAM.org                      |
|    \\/     M anipulation  |                                                 |
\*---------------------------------------------------------------------------*/
FoamFile
{
    version     2.0;
    format      ascii;
    class       volScalarField;
    location    "0.59";
    object      pMean;
}
// * * * * * * * * * * * * * * * * * * * * * * * * * * * * * * * * * * * * * //

dimensions      [0 2 -2 0 0 0 0];

internalField   nonuniform List<scalar> 
8800
(
92.1099
79.652
72.1741
68.5688
66.6025
65.1226
63.8396
62.6454
61.5387
60.464
59.4335
58.4067
57.4158
56.4359
55.5008
54.5967
53.7417
52.9396
52.1698
51.3656
89.0065
79.2984
72.3425
68.6822
66.6618
65.1478
63.847
62.6458
61.5367
60.4615
59.4309
58.4045
57.4134
56.4339
55.4989
54.5938
53.7435
52.9369
52.1746
51.3601
87.0461
79.3735
72.9422
69.0559
66.8282
65.226
63.8929
62.6777
61.5603
60.4784
59.4408
58.4094
57.4146
56.4319
55.4964
54.5857
53.7427
52.9264
52.2382
51.4139
85.514
79.4333
73.5272
69.4774
67.011
65.3122
63.9547
62.7332
61.6084
60.5168
59.4678
58.4271
57.4246
56.4357
55.4954
54.5777
53.7308
52.914
52.2929
51.6386
84.2679
79.405
74.0025
69.8822
67.1793
65.3784
64.0025
62.7896
61.6638
60.5678
59.5034
58.4549
57.4375
56.4456
55.4913
54.5741
53.7044
52.8973
52.2179
51.9769
83.2858
79.308
74.3689
70.2288
67.3313
65.4224
64.0303
62.8343
61.7138
60.6173
59.5399
58.4831
57.4507
56.454
55.4868
54.5676
53.6807
52.8841
52.2338
52.4359
82.5309
79.1945
74.6368
70.5094
67.4698
65.451
64.0396
62.8669
61.7545
60.6587
59.5724
58.5067
57.4626
56.4584
55.4833
54.5583
53.6691
52.8866
52.3239
52.7521
81.9818
79.0941
74.8199
70.7212
67.5937
65.4699
64.0374
62.8886
61.7853
60.6907
59.5975
58.5245
57.4711
56.4605
55.4803
54.5537
53.6678
52.9057
52.4116
52.9766
81.6257
79.019
74.9346
70.8642
67.6809
65.4814
64.0327
62.9009
61.8066
60.7128
59.6154
58.5362
57.4772
56.462
55.4802
54.5541
53.6756
52.9296
52.4877
53.1363
81.4514
78.9779
74.9905
70.9362
67.7252
65.4871
64.0297
62.9063
61.8178
60.7246
59.625
58.5424
57.4814
56.4648
55.4838
54.56
53.6887
52.9545
52.5475
53.2442
81.4511
78.9783
74.9905
70.9363
67.7252
65.4873
64.0298
62.9066
61.8182
60.7254
59.626
58.5441
57.4839
56.469
55.4907
54.5706
53.705
52.9794
52.5876
53.3067
81.6251
79.0198
74.9347
70.8645
67.6811
65.4819
64.033
62.9016
61.8078
60.715
59.6184
58.541
57.485
56.4747
55.5011
54.5856
53.7247
53.0035
52.6073
53.3241
81.9808
79.0954
74.82
70.7218
67.5943
65.4706
64.0378
62.8898
61.7873
60.6944
59.6027
58.5325
57.4839
56.481
55.5144
54.6053
53.7495
53.0287
52.6067
53.2865
82.5292
79.1966
74.6363
70.5101
67.4702
65.4524
64.0396
62.869
61.7572
60.664
59.5792
58.5182
57.4799
56.4872
55.5295
54.6301
53.7811
53.0607
52.5913
53.1754
83.284
79.3101
74.3686
70.2293
67.3317
65.4238
64.0312
62.8367
61.7175
60.6237
59.5492
58.4975
57.4734
56.4899
55.5453
54.6567
53.8215
53.1026
52.5883
52.9824
84.2655
79.4078
74.0025
69.8827
67.1795
65.3797
64.0042
62.7924
61.6684
60.575
59.5148
58.4721
57.4653
56.4886
55.561
54.6809
53.8691
53.1543
52.6161
52.7261
85.5108
79.4365
73.5276
69.4785
67.0109
65.3138
63.9565
62.7369
61.6134
60.5254
59.4807
58.4473
57.4568
56.485
55.5745
54.6995
53.9156
53.2038
52.6737
52.457
87.0432
79.3761
72.9433
69.0569
66.8283
65.2276
63.8952
62.6815
61.5664
60.4873
59.4557
58.4306
57.4512
56.4838
55.5847
54.7137
53.9491
53.2418
52.7314
52.3154
89.0036
79.3005
72.3439
68.6833
66.6621
65.1494
63.8493
62.6498
61.543
60.4708
59.4463
58.4265
57.4517
56.4874
55.5916
54.7242
53.9651
53.264
52.7297
52.2366
92.1075
79.6539
72.1755
68.57
66.6029
65.1241
63.842
62.6496
61.545
60.4735
59.4491
58.4291
57.4543
56.4898
55.5948
54.7279
53.9688
53.2702
52.7319
52.3555
51.1582
50.8802
50.376
49.8696
49.4559
49.1425
48.9192
48.7608
48.6397
48.5495
48.48
48.4192
48.3588
48.2976
48.2271
48.1458
48.0472
47.9227
47.7737
47.6009
47.4178
47.2473
47.1008
46.9851
46.9035
46.8552
46.8297
46.8094
46.7756
46.7132
46.622
46.513
46.4042
46.3155
46.2541
46.219
46.2006
46.1831
46.1581
46.1273
46.0949
46.0657
46.0519
46.0622
46.1025
46.1714
46.2686
46.3885
46.5259
46.6677
46.7996
46.9076
46.9843
47.0269
47.0401
47.0329
47.0207
47.0163
47.0235
47.0374
47.0488
47.0454
47.019
46.965
46.8873
46.7974
46.7169
46.6685
46.6629
46.6928
46.7543
46.8372
46.9385
47.0505
47.1709
47.2897
47.4006
47.4898
47.5533
47.58
47.5799
47.5534
47.5265
47.4854
47.4668
47.4515
47.4566
47.4751
47.5054
47.5543
47.6207
47.7212
47.8542
48.0211
48.2176
48.4396
48.6825
48.9371
49.201
49.4639
49.7211
49.9624
50.1799
50.3535
50.5066
50.6278
50.7356
50.8176
50.8914
50.9445
50.988
51.0169
51.0318
51.0338
51.0197
51.0022
50.9788
50.9595
50.9393
50.9196
50.8964
50.8709
50.8391
50.8058
50.7711
50.7417
50.7228
50.7178
50.7369
50.7814
50.8549
50.954
51.0805
51.2317
51.411
51.6143
51.8414
52.0865
52.3424
52.6092
52.8795
53.1578
53.4403
53.7312
54.0294
54.3335
54.6487
54.9729
55.2995
55.6307
55.9479
56.2505
56.5412
56.8105
57.0568
57.2814
57.4971
57.6781
57.851
57.9948
58.1308
58.2258
58.3159
58.3689
58.4102
58.4147
58.412
58.3753
58.3491
58.2836
58.2654
58.2043
58.2148
58.1672
58.2278
58.2085
58.3459
58.3611
58.579
58.6493
58.9144
59.0503
59.3235
59.5074
59.7814
59.9711
60.2342
60.3845
60.6085
60.6765
60.8155
60.748
60.6775
60.2679
59.7104
58.5104
56.7509
52.9944
48.3087
26.9046
50.9907
50.807
50.4902
50.054
49.6225
49.2802
49.0461
48.9002
48.8072
48.7407
48.6854
48.6308
48.5729
48.5106
48.44
48.3571
48.2579
48.1392
48.0016
47.8469
47.6836
47.5287
47.3939
47.285
47.2046
47.1494
47.1123
47.081
47.0436
46.9886
46.9129
46.8218
46.728
46.6452
46.5816
46.5371
46.5066
46.4815
46.455
46.4245
46.3934
46.3668
46.3538
46.3607
46.3934
46.4511
46.5343
46.6367
46.7528
46.8714
46.9825
47.0749
47.1429
47.1826
47.1977
47.1935
47.1804
47.1666
47.1582
47.1524
47.1448
47.1252
47.0883
47.0287
46.9509
46.8627
46.7792
46.7165
46.6877
46.6915
46.7267
46.7838
46.862
46.9528
47.0509
47.1475
47.2329
47.2965
47.334
47.3369
47.3164
47.2711
47.2241
47.1721
47.1342
47.1079
47.0961
47.1042
47.122
47.1606
47.2203
47.3164
47.4468
47.6114
47.8083
48.0332
48.2818
48.5429
48.8181
49.0944
49.3683
49.6272
49.858
50.0472
50.2147
50.3569
50.4807
50.5856
50.675
50.7471
50.8038
50.8452
50.8661
50.8676
50.8485
50.8228
50.7901
50.76
50.7279
50.6947
50.6581
50.6162
50.5699
50.5204
50.4729
50.4309
50.401
50.384
50.3918
50.4205
50.4794
50.5614
50.6737
50.8097
50.9785
51.1688
51.3899
51.6285
51.8824
52.1447
52.4165
52.6922
52.9779
53.2662
53.5672
53.8659
54.185
54.5053
54.8365
55.1633
55.479
55.7774
56.0712
56.3277
56.5753
56.7921
57.0127
57.1807
57.3607
57.4973
57.6366
57.7278
57.8242
57.8654
57.9106
57.8932
57.8943
57.8303
57.8084
57.7107
57.6962
57.5941
57.6029
57.5051
57.5589
57.4868
57.6069
57.581
57.7628
57.8172
58.0312
58.1477
58.3824
58.5234
58.7753
58.8974
59.1409
59.2085
59.3903
59.3414
59.3691
59.1012
58.8333
58.067
57.1512
55.1329
52.9771
46.6421
40.5736
20.7117
50.9976
50.886
50.711
50.3343
49.855
49.4333
49.1498
48.9988
48.9332
48.9017
48.8729
48.8324
48.7789
48.714
48.6391
48.5523
48.4528
48.3389
48.2113
48.0721
47.9285
47.7905
47.6688
47.5677
47.49
47.4324
47.3903
47.3547
47.3176
47.2701
47.2091
47.1356
47.058
46.9847
46.9232
46.8739
46.8355
46.8033
46.7747
46.7463
46.7197
46.698
46.6879
46.6943
46.722
46.7703
46.8389
46.9224
47.0161
47.1106
47.199
47.2719
47.3258
47.3562
47.3664
47.3581
47.3394
47.3149
47.2911
47.2662
47.2393
47.2032
47.1556
47.0915
47.0149
46.9301
46.8492
46.781
46.7372
46.7205
46.7336
46.7696
46.8277
46.8995
46.9795
47.0555
47.1185
47.1584
47.1706
47.152
47.1105
47.0516
46.9864
46.9241
46.869
46.8294
46.8027
46.7963
46.7986
46.8215
46.8695
46.9559
47.0781
47.2375
47.4334
47.6626
47.9174
48.1888
48.4758
48.7666
49.0567
49.3353
49.5832
49.7945
49.9856
50.1543
50.3016
50.4315
50.5428
50.6383
50.714
50.77
50.7971
50.7961
50.7721
50.7384
50.6989
50.6586
50.6155
50.57
50.5217
50.464
50.4044
50.3403
50.2847
50.2331
50.195
50.168
50.1661
50.18
50.2277
50.294
50.3969
50.522
50.6857
50.8661
51.0829
51.3112
51.5613
51.8159
52.0866
52.3613
52.6506
52.9405
53.2422
53.5412
53.8643
54.1859
54.5195
54.8348
55.1438
55.4355
55.7254
55.9708
56.2207
56.4327
56.6464
56.8083
56.9921
57.1282
57.2657
57.3577
57.4567
57.4816
57.5276
57.4846
57.4892
57.3984
57.3813
57.262
57.2481
57.1083
57.1156
56.9719
57.0212
56.9072
56.9946
56.9471
57.0781
57.1051
57.2773
57.3418
57.5557
57.627
57.8547
57.8958
58.0952
58.0669
58.1785
58.0017
57.9234
57.4016
57
55.685
54.7809
51.4871
49.4649
41.5833
34.3499
20.7435
51.1829
51.0467
50.8007
50.3426
49.8237
49.4064
49.1552
49.0535
49.0444
49.065
49.0762
49.0601
49.0167
48.9507
48.8691
48.7751
48.6721
48.5603
48.4417
48.3167
48.1912
48.0703
47.963
47.872
47.8
47.7439
47.7012
47.6649
47.6301
47.5895
47.541
47.4828
47.4198
47.3557
47.2975
47.2461
47.2038
47.1675
47.1379
47.1116
47.0905
47.0739
47.0674
47.0721
47.0929
47.1283
47.179
47.2396
47.3073
47.3744
47.4371
47.4879
47.5247
47.5429
47.5446
47.5297
47.5041
47.4703
47.4339
47.3943
47.3524
47.3039
47.248
47.1819
47.1076
47.0288
46.9523
46.8844
46.8328
46.8027
46.7984
46.8168
46.8571
46.9114
46.973
47.0281
47.069
47.0866
47.0764
47.0403
46.9814
46.9096
46.8282
46.753
46.6823
46.6273
46.5835
46.5548
46.534
46.5349
46.5673
46.6415
46.7559
46.9111
47.1093
47.3424
47.6058
47.8873
48.1903
48.4966
48.8065
49.1033
49.3741
49.6069
49.826
50.0215
50.1972
50.3537
50.4925
50.6115
50.7089
50.7757
50.806
50.8007
50.774
50.7336
50.6914
50.6433
50.5959
50.5404
50.4824
50.4083
50.3388
50.2615
50.2017
50.1414
50.0975
50.0613
50.0529
50.0565
50.0984
50.1563
50.2538
50.3735
50.5345
50.7111
50.9257
51.1452
51.3918
51.6375
51.908
52.1775
52.4716
52.7612
53.0667
53.3679
53.6998
54.0166
54.3528
54.6461
54.957
55.2292
55.5176
55.7462
56.0057
56.2058
56.4182
56.5725
56.7671
56.8861
57.033
57.1061
57.217
57.2093
57.2689
57.1894
57.2145
57.0897
57.0867
56.9346
56.9322
56.7561
56.7636
56.592
56.6144
56.4866
56.5226
56.4609
56.5464
56.5295
56.667
56.678
56.8467
56.8583
57.0225
56.9833
57.1281
56.9491
57.0762
56.6136
56.658
55.5964
55.4399
53.2102
52.5089
48.1969
45.6676
38.2518
30.3398
21.3056
52.642
52.2135
51.0475
50.0611
49.4083
49.0763
48.9845
49.0297
49.1292
49.2251
49.2875
49.3033
49.2757
49.2127
49.1268
49.0262
48.9188
48.807
48.6947
48.5819
48.4731
48.37
48.2788
48.2002
48.137
48.0859
48.0459
48.0113
47.9794
47.9445
47.9051
47.8583
47.807
47.7526
47.7003
47.6514
47.6087
47.5711
47.5401
47.5139
47.4936
47.4778
47.4691
47.4677
47.4767
47.495
47.5234
47.5586
47.5993
47.6404
47.6787
47.7088
47.7283
47.734
47.7261
47.7046
47.673
47.6332
47.5887
47.54
47.4882
47.4316
47.3705
47.3039
47.2332
47.1606
47.0902
47.0273
46.9758
46.9411
46.9272
46.9352
46.962
47.001
47.0425
47.076
47.0945
47.0916
47.0634
47.0127
46.9401
46.8545
46.7588
46.6672
46.5784
46.5016
46.434
46.3766
46.328
46.3036
46.318
46.378
46.4868
46.6408
46.845
47.085
47.3587
47.6557
47.9756
48.2999
48.6323
48.9479
49.2428
49.4993
49.7485
49.971
50.1757
50.3595
50.5236
50.662
50.7733
50.8426
50.8732
50.8631
50.8359
50.7949
50.755
50.705
50.6574
50.5934
50.53
50.4474
50.376
50.294
50.2327
50.1663
50.1204
50.0778
50.0668
50.0641
50.1037
50.1566
50.2533
50.369
50.5316
50.7054
50.9232
51.1345
51.3833
51.6164
51.8892
52.1449
52.4469
52.7286
53.0464
53.3462
53.6944
53.9973
54.3397
54.6058
54.9266
55.1677
55.4644
55.671
55.9424
56.1163
56.3415
56.4766
56.687
56.7747
56.9415
56.98
57.1061
57.0591
57.1371
57.0213
57.0731
56.9122
56.9302
56.7451
56.7504
56.5515
56.5529
56.3712
56.3714
56.2174
56.2376
56.1231
56.1943
56.1128
56.2313
56.1603
56.3103
56.1887
56.3728
56.1049
56.3423
55.8107
56.1225
55.1713
55.4069
53.8017
53.6215
50.9489
49.7294
45.5333
42.0281
36.231
28.6084
22.0341
53.6519
53.0929
51.3635
49.9544
49.1023
48.7706
48.7927
48.9776
49.1971
49.3812
49.5045
49.5591
49.5527
49.4971
49.4095
49.3027
49.189
49.0744
48.9648
48.8606
48.7649
48.6777
48.602
48.537
48.484
48.4401
48.4046
48.3731
48.344
48.3132
48.2796
48.241
48.1985
48.1527
48.1067
48.0618
48.0201
47.9821
47.949
47.9204
47.8966
47.8769
47.8614
47.8507
47.8458
47.8468
47.854
47.8659
47.8814
47.898
47.9131
47.9233
47.9259
47.9187
47.9014
47.874
47.8378
47.7945
47.7451
47.691
47.6332
47.573
47.5102
47.4458
47.3805
47.3156
47.254
47.1991
47.154
47.1222
47.1089
47.1152
47.1353
47.1616
47.1853
47.1996
47.1984
47.1778
47.135
47.0721
46.9869
46.8871
46.7754
46.6625
46.5512
46.4494
46.3568
46.2715
46.1954
46.1414
46.1381
46.1857
46.2888
46.4447
46.658
46.9086
47.1926
47.5067
47.8439
48.1878
48.5408
48.8804
49.1998
49.4831
49.7597
50.0057
50.2376
50.4439
50.6274
50.7772
50.8955
50.9619
50.9894
50.9727
50.9479
50.9087
50.8739
50.8241
50.7781
50.7127
50.6533
50.576
50.514
50.4359
50.3791
50.3094
50.265
50.2193
50.2118
50.2066
50.248
50.2956
50.3952
50.508
50.6754
50.8482
51.0706
51.2763
51.527
51.7499
52.0199
52.2664
52.5762
52.8462
53.1833
53.4826
53.849
54.1428
54.4857
54.7335
55.052
55.2674
55.5684
55.7461
56.0301
56.1699
56.4107
56.5158
56.7427
56.7857
56.9867
56.9713
57.123
57.0253
57.1324
56.9773
57.0647
56.8507
56.9073
56.6821
56.7194
56.4811
56.5098
56.2765
56.324
56.0783
56.1403
55.9279
56.0278
55.833
55.9768
55.7541
55.9341
55.6161
55.8274
55.3404
55.5729
54.8474
55.0569
53.9618
53.8801
52.2261
51.4778
48.948
47.1093
43.5493
39.6557
35.3994
28.7796
23.3167
54.2772
53.7197
51.7324
50.055
49.0189
48.6126
48.6658
48.938
49.2537
49.5204
49.707
49.8064
49.8264
49.7815
49.693
49.5794
49.4578
49.3383
49.228
49.1291
49.043
48.9688
48.9068
48.8553
48.8135
48.7788
48.7496
48.7233
48.6979
48.671
48.6412
48.6074
48.5701
48.5297
48.488
48.4464
48.4062
48.3682
48.333
48.3009
48.2719
48.2457
48.2219
48.2008
48.1824
48.1675
48.1561
48.148
48.1421
48.1373
48.1316
48.1232
48.1101
48.0911
48.0655
48.033
47.9937
47.9484
47.8975
47.8424
47.784
47.7242
47.6632
47.6028
47.5435
47.4864
47.4334
47.3875
47.3525
47.3315
47.327
47.3381
47.3589
47.3778
47.3885
47.3869
47.3709
47.339
47.286
47.2114
47.1147
47.0012
46.8724
46.7358
46.6013
46.4763
46.3609
46.2484
46.1445
46.0617
46.0375
46.0749
46.1774
46.341
46.5659
46.8287
47.127
47.4584
47.8101
48.1762
48.5489
48.9108
49.2527
49.5661
49.8593
50.1217
50.3734
50.5943
50.7901
50.9447
51.067
51.1315
51.155
51.132
51.1071
51.0654
51.0347
50.9898
50.9476
50.8933
50.8477
50.7899
50.7467
50.6829
50.6368
50.5709
50.5307
50.4894
50.4883
50.4864
50.5312
50.5779
50.6785
50.7921
50.9603
51.1367
51.3624
51.5713
51.821
52.0426
52.308
52.5565
52.8672
53.1372
53.4869
53.7966
54.1757
54.4661
54.8003
55.0356
55.3443
55.548
55.8362
55.9812
56.2625
56.3742
56.6077
56.6994
56.9287
56.9378
57.165
57.1088
57.259
57.1323
57.2421
57.0818
57.172
56.9501
57.0026
56.7818
56.8215
56.5746
56.6086
56.3536
56.404
56.125
56.1583
55.914
55.9618
55.7118
55.7764
55.4739
55.5427
55.1473
55.1877
54.6556
54.6666
53.9567
53.8591
52.8482
52.4177
50.7983
49.8061
47.3841
45.408
42.5768
38.8566
35.6066
30.1346
25.2126
54.6545
54.138
52.0659
50.2484
49.089
48.5892
48.6173
48.9272
49.3076
49.6403
49.882
50.0242
50.0716
50.0402
49.9534
49.836
49.7082
49.5847
49.4733
49.378
49.2991
49.2357
49.1855
49.1463
49.1155
49.0906
49.069
49.0489
49.0278
49.0048
48.9783
48.9483
48.9145
48.8779
48.839
48.7996
48.7597
48.7211
48.6828
48.6464
48.6109
48.5773
48.5445
48.5132
48.4831
48.4548
48.4281
48.4034
48.3798
48.3571
48.3343
48.311
48.2855
48.2577
48.2261
48.1908
48.1507
48.1067
48.0578
48.0058
47.9501
47.8927
47.8346
47.7785
47.7248
47.6764
47.6342
47.6009
47.579
47.5723
47.5791
47.5983
47.6214
47.6371
47.6392
47.6277
47.602
47.5644
47.5069
47.4242
47.3167
47.1884
47.04
46.8793
46.7229
46.5739
46.44
46.3035
46.1747
46.07
46.0288
46.0607
46.1668
46.342
46.575
46.8487
47.1602
47.5051
47.8748
48.2618
48.6587
49.0473
49.4087
49.7424
50.0424
50.3203
50.5807
50.805
51.0019
51.1538
51.2759
51.3438
51.3659
51.3394
51.3092
51.2696
51.2435
51.2099
51.1819
51.1496
51.1277
51.0999
51.0815
51.042
51.0112
50.9584
50.9281
50.9003
50.9081
50.9136
50.9628
51.008
51.1071
51.2252
51.398
51.5765
51.8067
52.0209
52.2739
52.5015
52.7634
53.0176
53.3281
53.6037
53.9673
54.2869
54.6794
54.9611
55.2921
55.5044
55.8075
56.0085
56.2816
56.4011
56.6663
56.7432
56.9652
57.0348
57.2692
57.2506
57.4752
57.4072
57.5411
57.4172
57.5209
57.3718
57.4372
57.23
57.2597
57.0587
57.0677
56.8304
56.8484
56.6072
56.6365
56.353
56.3393
56.0821
56.057
55.7622
55.7153
55.3498
55.2702
54.8048
54.6739
54.0905
53.9205
53.2273
52.9703
52.0067
51.4677
49.8335
48.8148
46.5944
44.6228
42.4332
39.0884
36.3359
31.8198
27.2944
54.8895
54.4115
52.328
50.4465
49.216
48.6466
48.6384
48.9592
49.3788
49.7587
50.0425
50.2195
50.2915
50.274
50.1912
50.0728
49.9418
49.8162
49.7049
49.6128
49.5396
49.4845
49.4438
49.4149
49.3937
49.3778
49.3634
49.3495
49.3329
49.3139
49.2904
49.2635
49.2321
49.1982
49.1611
49.1228
49.0822
49.0415
48.9996
48.9582
48.9162
48.8749
48.8335
48.7927
48.7521
48.7122
48.6727
48.634
48.596
48.5596
48.5242
48.4903
48.4565
48.4235
48.3894
48.3541
48.3162
48.2755
48.2309
48.1835
48.1333
48.0816
48.0297
47.9805
47.9363
47.8997
47.8719
47.854
47.8472
47.8542
47.8731
47.8998
47.9236
47.937
47.9332
47.9143
47.8846
47.8454
47.7852
47.6982
47.5847
47.4444
47.2778
47.0927
46.9093
46.7359
46.5821
46.4221
46.2827
46.1637
46.1179
46.1517
46.269
46.4535
46.6921
46.9665
47.2883
47.6456
48.0368
48.4437
48.8669
49.2868
49.672
50.0183
50.3255
50.6127
50.8709
51.0879
51.2729
51.4159
51.5387
51.605
51.6314
51.6085
51.5794
51.5453
51.5314
51.5129
51.5061
51.4987
51.5101
51.5185
51.5324
51.5261
51.5144
51.4807
51.4695
51.456
51.4739
51.4862
51.5409
51.5858
51.69
51.8149
51.991
52.1714
52.4134
52.6227
52.8894
53.1194
53.3879
53.6567
53.965
54.2495
54.6205
54.952
55.3532
55.6166
55.9625
56.1464
56.4423
56.6338
56.8861
56.9827
57.2433
57.2673
57.5041
57.5276
57.7869
57.7261
57.953
57.8429
57.9885
57.8503
57.9771
57.8429
57.88
57.6541
57.685
57.498
57.4802
57.2624
57.2431
57.038
57.0341
56.7587
56.6996
56.4469
56.3472
56.041
55.8785
55.4771
55.2577
54.72
54.4659
53.8777
53.5833
53.0176
52.6969
51.778
51.191
49.5373
48.4558
46.4983
44.5231
42.7888
39.8932
37.3093
33.468
29.3379
55.0369
54.5852
52.5137
50.6141
49.3558
48.755
48.7275
49.0527
49.4937
49.9004
50.2083
50.4052
50.4916
50.4824
50.4028
50.2847
50.1537
50.0291
49.9203
49.8324
49.765
49.7171
49.6846
49.6642
49.6512
49.6427
49.6349
49.6262
49.6142
49.5986
49.5781
49.5535
49.5243
49.4917
49.4555
49.4168
49.3752
49.3319
49.2865
49.2398
49.1918
49.1431
49.0937
49.0438
48.9937
48.9438
48.8944
48.8458
48.7981
48.7523
48.7084
48.6675
48.6295
48.5946
48.5616
48.5296
48.4967
48.4613
48.4229
48.3824
48.3399
48.2962
48.2532
48.2148
48.1829
48.16
48.1488
48.1484
48.1585
48.1817
48.2137
48.245
48.2671
48.2776
48.2718
48.2476
48.214
48.1744
48.1165
48.0312
47.9155
47.7642
47.5831
47.3795
47.1723
46.9697
46.7951
46.6144
46.4715
46.3463
46.3073
46.3456
46.4829
46.6769
46.9225
47.1955
47.5301
47.8984
48.3042
48.7256
49.1788
49.6301
50.043
50.3996
50.7102
50.9929
51.2389
51.4403
51.6109
51.7452
51.8697
51.9387
51.9734
51.958
51.9378
51.9162
51.9157
51.92
51.9395
51.964
52.0138
52.0622
52.1176
52.1481
52.1614
52.1542
52.1633
52.1583
52.1858
52.2032
52.2622
52.3051
52.4185
52.5436
52.728
52.9068
53.1646
53.3673
53.6646
53.8962
54.1851
54.4607
54.7878
55.0773
55.4647
55.7924
56.2131
56.4399
56.7982
56.9435
57.2434
57.4074
57.6658
57.7122
57.977
57.9246
58.2127
58.1733
58.4823
58.3316
58.6204
58.4194
58.647
58.4413
58.6232
58.4679
58.5305
58.2458
58.3281
58.0975
58.1076
57.9026
57.8928
57.6823
57.6596
57.3731
57.3167
57.0484
56.9165
56.5923
56.3688
55.9108
55.6064
54.9931
54.6809
54.0896
53.755
53.287
52.9458
52.0292
51.3182
49.6926
48.4534
46.8008
44.9473
43.4334
40.8952
38.3529
34.9611
31.2336
55.1195
54.6805
52.6259
50.7408
49.4931
48.8994
48.8775
49.2087
49.6564
50.0689
50.381
50.5809
50.6692
50.6614
50.5838
50.4691
50.3429
50.2242
50.1222
50.0412
49.9812
49.9406
49.9157
49.9023
49.896
49.893
49.8901
49.8852
49.8765
49.8635
49.8455
49.8226
49.795
49.7631
49.7273
49.6876
49.6448
49.5986
49.5499
49.4983
49.4451
49.3899
49.3337
49.2765
49.2191
49.1618
49.105
49.0492
48.9955
48.9447
48.8968
48.8529
48.8132
48.7783
48.7481
48.7211
48.6952
48.668
48.6395
48.6096
48.5779
48.5458
48.5165
48.4928
48.4746
48.4661
48.4728
48.4913
48.5182
48.5547
48.5952
48.6281
48.6486
48.657
48.6482
48.6228
48.5903
48.5527
48.4997
48.4213
48.3083
48.152
47.9602
47.7384
47.5126
47.285
47.0926
46.898
46.7579
46.6324
46.6167
46.66
46.8219
47.0241
47.2797
47.5484
47.9016
48.2778
48.6984
49.1269
49.6124
50.0881
50.5246
50.8835
51.1897
51.4526
51.6805
51.8628
52.0259
52.1592
52.2862
52.3566
52.4081
52.4017
52.4041
52.3928
52.4212
52.4416
52.4991
52.5573
52.6553
52.7419
52.8452
52.9076
52.9647
52.9795
53.0174
53.0171
53.0526
53.061
53.1276
53.1594
53.2822
53.3942
53.5924
53.7667
54.045
54.2448
54.5793
54.8141
55.146
55.4298
55.7926
56.0668
56.4958
56.7793
57.2446
57.4016
57.8074
57.8686
58.2103
58.3092
58.6076
58.5571
58.8578
58.736
59.1
58.98
59.3507
59.0791
59.4395
59.1502
59.4926
59.2403
59.506
59.2762
59.4135
59.0421
59.2236
58.9436
59.0288
58.7225
58.777
58.5679
58.5494
58.2167
58.2005
57.9073
57.7844
57.3958
57.1514
56.62
56.2716
55.6639
55.3073
54.743
54.3857
53.971
53.5137
52.56
51.592
50.079
48.751
47.3631
45.7417
44.2313
41.8946
39.3908
36.3161
32.9564
55.1384
54.6996
52.6664
50.8258
49.626
49.0783
49.089
49.431
49.872
50.2695
50.5661
50.7523
50.8303
50.8172
50.7409
50.6322
50.5155
50.4072
50.3157
50.2444
50.1933
50.1603
50.1418
50.1336
50.1314
50.1318
50.1315
50.129
50.1224
50.1114
50.095
50.0736
50.0471
50.0155
49.9796
49.939
49.8947
49.8464
49.7953
49.7409
49.6837
49.624
49.5625
49.4999
49.4367
49.3741
49.3128
49.2537
49.198
49.1457
49.0971
49.0531
49.0149
48.9829
48.9565
48.935
48.917
48.9009
48.8853
48.869
48.8514
48.8348
48.8231
48.8173
48.8167
48.8258
48.851
48.8862
48.9246
48.9676
49.0116
49.0451
49.0629
49.064
49.0467
49.0194
48.9907
48.9616
48.9211
48.8562
48.7528
48.6025
48.4085
48.1763
47.9335
47.6867
47.4779
47.2789
47.1457
47.0365
47.0555
47.1045
47.2912
47.4939
47.7578
48.0137
48.3872
48.7671
49.2035
49.6342
50.1553
50.6479
51.1109
51.4674
51.7648
51.9868
52.203
52.3591
52.5273
52.659
52.7938
52.8665
52.9409
52.9435
52.9834
52.983
53.0535
53.0876
53.1995
53.2846
53.4387
53.5588
53.7209
53.8103
53.9119
53.9476
54.0194
54.0221
54.0689
54.0708
54.1338
54.1561
54.2866
54.3873
54.5937
54.7757
55.0559
55.281
55.644
55.8885
56.2649
56.5531
56.9524
57.2233
57.6705
57.9023
58.3789
58.488
58.8835
58.9024
59.3211
59.2864
59.6302
59.4452
59.7935
59.6342
60.0648
59.9131
60.2958
59.9777
60.4174
60.0883
60.4873
60.222
60.521
60.2791
60.4315
60.0445
60.2741
60.0193
60.1337
59.8225
59.9093
59.6416
59.6512
59.2961
59.3245
58.984
58.8417
58.4096
58.1256
57.5976
57.1956
56.661
56.2326
55.6897
55.3013
54.8513
54.1442
53.1897
52.0059
50.6452
49.387
48.099
46.6603
45.058
42.8277
40.3975
37.5689
34.5159
55.0734
54.6267
52.6368
50.8807
49.7697
49.3078
49.3728
49.7225
50.1388
50.4993
50.76
50.9152
50.9708
50.9472
50.8721
50.7728
50.6698
50.5763
50.4991
50.4403
50.3995
50.3745
50.3618
50.3574
50.3578
50.3598
50.3609
50.3594
50.354
50.3441
50.3289
50.3083
50.2824
50.2512
50.2153
50.1745
50.1298
50.081
50.0286
49.9724
49.9126
49.8499
49.7846
49.7189
49.653
49.5887
49.5271
49.4688
49.4139
49.3626
49.3163
49.2751
49.2408
49.2143
49.195
49.1816
49.1725
49.1674
49.166
49.1666
49.1661
49.1662
49.1728
49.1859
49.2052
49.2358
49.2794
49.3279
49.3761
49.4249
49.4691
49.4974
49.5065
49.4963
49.4709
49.4427
49.4175
49.3957
49.3701
49.3224
49.235
49.0995
48.914
48.6807
48.4278
48.1764
47.9612
47.7667
47.638
47.5565
47.6075
47.6741
47.8796
48.0739
48.3325
48.5833
48.9837
49.3593
49.8057
50.2394
50.803
51.3062
51.8029
52.1519
52.4416
52.6223
52.8232
52.9525
53.1351
53.26
53.4124
53.4877
53.5856
53.6031
53.6841
53.6981
53.814
53.8724
54.0457
54.1599
54.3772
54.525
54.7408
54.8504
55.003
55.0529
55.162
55.1673
55.2311
55.2148
55.2765
55.2846
55.4209
55.5211
55.7475
55.9434
56.2333
56.4955
56.8568
57.1316
57.529
57.8203
58.2315
58.5031
58.9427
59.1484
59.5626
59.6857
60.0338
60.0202
60.4452
60.3464
60.642
60.4494
60.8394
60.6605
61.0779
60.9779
61.267
60.9787
61.4566
61.1896
61.6008
61.3912
61.6816
61.5099
61.5971
61.2256
61.4779
61.1913
61.3424
60.9969
61.1073
60.9008
60.9308
60.5667
60.5516
60.219
60.0654
59.579
59.2452
58.7557
58.3133
57.8678
57.3813
56.8445
56.3603
55.7861
54.7681
53.865
52.6046
51.4009
50.2842
48.9705
47.5979
45.875
43.7171
41.3756
38.7549
35.946
54.8702
54.42
52.54
50.9423
49.9733
49.6287
49.7465
50.0829
50.4485
50.7485
50.9537
51.063
51.0886
51.0532
50.9816
50.8957
50.8106
50.7357
50.6754
50.6308
50.601
50.5833
50.5749
50.5725
50.5735
50.5753
50.5761
50.5742
50.5686
50.5584
50.5432
50.5227
50.4967
50.4656
50.4303
50.3906
50.3468
50.2989
50.2473
50.1915
50.1312
50.0676
50.0007
49.9339
49.8697
49.809
49.7505
49.6945
49.6423
49.5949
49.5527
49.5164
49.4885
49.4698
49.4589
49.456
49.4606
49.4729
49.4901
49.506
49.5211
49.54
49.5663
49.5985
49.6394
49.6903
49.7486
49.807
49.8626
49.9156
49.9591
49.9832
49.9839
49.9599
49.9218
49.8888
49.8667
49.8552
49.8452
49.8178
49.7544
49.6427
49.4738
49.2525
49.001
48.7582
48.5396
48.3601
48.244
48.202
48.2664
48.3425
48.55
48.7366
48.9877
49.2731
49.7061
50.0873
50.5404
50.9931
51.5791
52.0783
52.5929
52.9371
53.2246
53.374
53.5599
53.6695
53.8634
53.983
54.1491
54.2237
54.3413
54.3797
54.4946
54.5394
54.7017
54.7955
55.0234
55.1769
55.4483
55.6291
55.8903
56.0281
56.225
56.2922
56.4302
56.4432
56.5139
56.4867
56.5388
56.5401
56.6808
56.786
57.0395
57.2602
57.5722
57.869
58.2119
58.512
58.8893
59.2031
59.5885
59.8867
60.2354
60.4363
60.8056
60.9362
61.2205
61.2799
61.5868
61.4853
61.639
61.5867
61.8997
61.8299
62.119
62.1733
62.2446
62.0977
62.565
62.3247
62.8016
62.7545
62.984
62.8774
62.8852
62.5711
62.7347
62.4942
62.5369
62.1635
62.39
62.2512
62.2559
61.9238
61.8694
61.4778
61.2747
60.785
60.4488
60.0197
59.5478
59.1731
58.5759
58.0794
57.4019
56.7375
55.4323
54.6518
53.3288
52.3317
51.3064
49.9102
48.4987
46.6762
44.5626
42.3155
39.8615
37.2339
54.4152
53.9921
52.3799
51.0605
50.3018
50.0787
50.2165
50.5001
50.7821
50.9976
51.131
51.1873
51.1829
51.1387
51.0742
51.0044
50.9391
50.8837
50.8402
50.8085
50.7875
50.7747
50.7682
50.7656
50.7652
50.7651
50.7642
50.7608
50.7541
50.7431
50.7272
50.7064
50.6806
50.6502
50.6158
50.5778
50.5362
50.491
50.4423
50.3886
50.3302
50.2687
50.2058
50.1426
50.0815
50.0257
49.9755
49.9284
49.8829
49.84
49.8024
49.7739
49.7564
49.7482
49.7482
49.7589
49.7795
49.8087
49.8449
49.8833
49.921
49.9588
50.0021
50.0526
50.1111
50.1753
50.2433
50.3099
50.3721
50.4275
50.4687
50.4864
50.4769
50.4405
50.3894
50.3472
50.3266
50.326
50.3336
50.33
50.2971
50.2185
50.0769
49.8783
49.6466
49.4297
49.2164
49.0677
48.9642
48.9511
49.0169
49.1137
49.3126
49.4863
49.7383
50.0881
50.5418
50.935
51.3872
51.8862
52.465
52.9612
53.4662
53.8104
54.0922
54.2445
54.3964
54.5009
54.689
54.8131
54.9803
55.0629
55.1861
55.2551
55.3872
55.4885
55.6753
55.838
56.0929
56.3128
56.6066
56.8394
57.1271
57.3067
57.5312
57.6317
57.7798
57.8058
57.889
57.8553
57.9146
57.9315
58.0656
58.2053
58.4648
58.7096
59.0324
59.3413
59.6655
59.9878
60.3209
60.6351
60.9984
61.3195
61.5712
61.7706
62.0783
62.1996
62.4752
62.5952
62.6839
62.7197
62.7248
62.8235
62.9959
63.0811
63.2163
63.33
63.2983
63.3661
63.6226
63.7038
64.1055
64.087
64.3198
64.2056
64.1434
63.9601
64.0264
63.8617
63.7757
63.5132
63.6456
63.6077
63.4768
63.2503
63.1341
62.7453
62.5286
62.0884
61.7105
61.3338
60.8213
60.4519
59.7477
59.2937
58.3612
57.6999
56.1443
55.5051
54.2172
53.4316
52.3713
50.8951
49.3839
47.4934
45.4142
43.2526
40.9159
38.4282
53.6724
53.3441
52.204
51.2855
50.7759
50.6439
50.7449
50.9262
51.0937
51.2103
51.27
51.2796
51.2532
51.2061
51.1514
51.0979
51.0504
51.0113
50.9808
50.9581
50.9421
50.9312
50.9243
50.9201
50.9174
50.915
50.912
50.9072
50.8996
50.8879
50.8714
50.85
50.8243
50.7947
50.7614
50.7262
50.6895
50.6498
50.6056
50.5565
50.5035
50.4468
50.3896
50.3349
50.2831
50.2355
50.1942
50.1593
50.1271
50.0948
50.0662
50.05
50.0484
50.057
50.0734
50.0999
50.1378
50.1855
50.2376
50.2894
50.3436
50.4026
50.4661
50.5345
50.6068
50.6797
50.7518
50.8208
50.8854
50.9414
50.9788
50.9908
50.9734
50.9284
50.8689
50.8202
50.8016
50.8099
50.8296
50.8431
50.8346
50.7886
50.6838
50.5212
50.3227
50.1454
49.9448
49.8493
49.7687
49.7816
49.8412
49.9745
50.1484
50.3384
50.6103
50.9959
51.4303
51.8536
52.3242
52.8713
53.4166
53.9184
54.3891
54.7439
55.0043
55.1747
55.2878
55.4107
55.5589
55.7025
55.844
55.9631
56.0793
56.2044
56.342
56.5164
56.7089
56.9499
57.2085
57.5014
57.7885
58.0916
58.3677
58.5999
58.8173
58.9758
59.112
59.1979
59.2605
59.2806
59.3265
59.4069
59.5219
59.7196
59.9458
60.2371
60.5286
60.8561
61.1522
61.4902
61.7639
62.0922
62.3802
62.6906
62.8783
63.1459
63.3105
63.506
63.6712
63.807
63.7805
63.9309
63.8643
64.0609
64.105
64.2609
64.2909
64.4863
64.3114
64.699
64.8053
65.2472
65.3038
65.3998
65.5527
65.4463
65.3722
65.3497
65.2835
65.176
64.9362
64.9209
64.8838
64.8225
64.6493
64.5136
64.2403
64.0345
63.6763
63.362
62.9735
62.621
62.058
61.6608
60.8561
60.3561
59.2075
58.5705
56.9699
56.5519
55.245
54.5739
53.3485
51.8744
50.2621
48.3372
46.2889
44.1935
41.9456
39.5661
52.8547
52.6787
52.115
51.6333
51.3434
51.2319
51.2344
51.2829
51.3319
51.36
51.3609
51.3381
51.2998
51.2546
51.2095
51.1686
51.1337
51.1051
51.082
51.0637
51.0494
51.0384
51.0301
51.024
51.0194
51.0152
51.0105
51.0042
50.9955
50.9831
50.9659
50.944
50.9184
50.8913
50.8624
50.8304
50.7969
50.7629
50.7268
50.6848
50.6383
50.5917
50.5464
50.5016
50.4604
50.4284
50.4047
50.3857
50.3684
50.3528
50.3444
50.3485
50.3647
50.3901
50.4255
50.4713
50.5259
50.5873
50.6543
50.7233
50.7906
50.8574
50.928
51.0035
51.0807
51.1558
51.2283
51.297
51.3595
51.4092
51.4395
51.4493
51.4363
51.3978
51.3418
51.2938
51.2751
51.2838
51.3102
51.3356
51.345
51.3246
51.2523
51.1297
50.9778
50.8655
50.7087
50.6645
50.6011
50.6523
50.7209
50.9007
51.0442
51.2752
51.5345
51.9279
52.3222
52.8148
53.2903