/*--------------------------------*- C++ -*----------------------------------*\
| =========                 |                                                 |
| \\      /  F ield         | OpenFOAM: The Open Source CFD Toolbox           |
|  \\    /   O peration     | Version:  2.4.0                                 |
|   \\  /    A nd           | Web:      www.OpenFOAM.org                      |
|    \\/     M anipulation  |                                                 |
\*---------------------------------------------------------------------------*/
FoamFile
{
    version     2.0;
    format      ascii;
    class       volScalarField;
    location    "0.16";
    object      p;
}
// * * * * * * * * * * * * * * * * * * * * * * * * * * * * * * * * * * * * * //

dimensions      [0 2 -2 0 0 0 0];

internalField   nonuniform List<scalar> 
8800
(
110.624
98.296
90.8928
87.3449
85.4832
84.0545
82.8644
81.7837
80.7677
79.7427
78.8927
77.9466
77.059
76.2495
75.4629
74.7545
74.1508
73.6652
73.1867
73.0749
107.511
97.9426
91.0629
87.4579
85.5437
84.0797
82.8702
81.7855
80.7667
79.7371
78.8905
77.9458
77.0523
76.2485
75.4573
74.751
74.1463
73.6642
73.1846
72.7503
105.546
98.02
91.6652
87.8338
85.7123
84.1572
82.916
81.818
80.7907
79.7521
78.9016
77.9492
77.0482
76.2452
75.4451
74.7345
74.1254
73.6235
73.1489
72.3601
104.01
98.0813
92.2523
88.2577
85.8957
84.2438
82.979
81.8718
80.837
79.7916
78.9271
77.9641
77.052
76.2438
75.426
74.7047
74.0769
73.5186
73.0243
72.0535
102.761
98.0534
92.7306
88.668
86.063
84.3105
83.0274
81.9241
80.8897
79.8494
78.9552
77.9875
77.0574
76.2437
75.3988
74.6631
73.9949
73.3569
72.7573
71.8919
101.776
97.9551
93.1008
89.018
86.2148
84.3561
83.0568
81.9643
80.9337
79.9076
78.9808
78.0144
77.0626
76.2367
75.3683
74.6098
73.8907
73.1796
72.5282
71.9433
101.023
97.8371
93.373
89.3021
86.3535
84.3849
83.0644
81.9951
80.969
79.9585
78.9988
78.0359
77.0681
76.2214
75.3407
74.545
73.7925
73.0216
72.378
72.0714
100.473
97.7338
93.558
89.516
86.4761
84.4057
83.0618
82.0153
80.992
79.9981
79.0149
78.0498
77.0712
76.1992
75.3144
74.4791
73.7064
72.8992
72.2764
72.1785
100.119
97.6537
93.6752
89.6598
86.5635
84.4178
83.0568
82.0251
81.0081
80.0264
79.0243
78.0534
77.0747
76.1776
75.285
74.4275
73.6272
72.8061
72.2026
72.2496
99.9467
97.6091
93.732
89.733
86.6042
84.4263
83.053
82.0292
81.0127
80.0426
79.0268
78.0504
77.0744
76.155
75.2589
74.3853
73.5604
72.732
72.1409
72.3165
99.9486
97.6058
93.7318
89.7349
86.6009
84.4287
83.0512
82.0282
81.01
80.0439
79.0221
78.0398
77.0752
76.1355
75.2349
74.3495
73.5083
72.6732
72.0775
72.3319
100.126
97.6437
93.6758
89.6649
86.5523
84.4256
83.0537
82.0209
80.9982
80.0318
79.0098
78.0237
77.0706
76.1197
75.2062
74.3314
73.4648
72.6202
72.0207
72.3287
100.484
97.7179
93.559
89.5242
86.46
84.4168
83.0576
82.0069
80.9782
80.0097
78.9889
78.001
77.0647
76.1067
75.1832
74.3179
73.4337
72.5742
71.9693
72.2894
101.035
97.8179
93.3738
89.3131
86.3323
84.3993
83.0619
81.9823
80.9479
79.9777
78.9607
77.9736
77.054
76.0943
75.1619
74.3152
73.418
72.5423
71.9049
72.2239
101.793
97.9316
93.1031
89.0324
86.1904
84.3716
83.055
81.944
80.9098
79.9378
78.9238
77.9377
77.0426
76.0822
75.1401
74.3156
73.4184
72.5304
71.8652
72.0456
102.777
98.0295
92.7344
88.6838
86.0341
84.3291
83.0313
81.894
80.8599
79.8904
78.8835
77.897
77.0297
76.0674
75.1213
74.316
73.436
72.5351
71.8647
71.793
104.026
98.0581
92.2552
88.2767
85.8622
84.2637
82.9874
81.8326
80.8036
79.8425
78.8437
77.8595
77.0141
76.0543
75.1095
74.3126
73.4582
72.5546
71.9047
71.5132
105.563
97.9969
91.6656
87.8516
85.6774
84.1776
82.9285
81.7742
80.7548
79.8028
78.8151
77.8364
77.0008
76.0455
75.1061
74.3105
73.4741
72.576
71.953
71.367
107.529
97.9201
91.061
87.4756
85.5113
84.0983
82.8827
81.7415
80.7308
79.7839
78.8039
77.8316
76.9951
76.0441
75.1102
74.3111
73.4794
72.5939
71.9391
71.2537
110.643
98.2742
90.8911
87.3609
85.4527
84.0728
82.8742
81.7417
80.7338
79.7844
78.8055
77.8371
76.9944
76.0434
75.1163
74.3107
73.4783
72.6025
71.942
71.3702
73.8353
72.6954
69.9143
66.1024
62.0785
58.8881
56.9938
56.4731
57.2168
58.5687
60.1214
61.5156
62.2688
62.4906
62.1253
61.1346
59.7545
57.7552
55.7077
53.754
51.1382
49.2879
48.2489
46.4958
46.2685
46.9188
46.7133
48.5702
51.3976
53.3937
56.1907
58.949
60.9776
62.7665
63.9724
64.5704
64.7015
64.3398
64.0908
64.0869
63.6839
63.1566
63.0267
63.1127
62.8015
62.6111
62.9761
63.1283
63.2695
63.5447
63.9781
64.254
64.3589
64.7113
65.0817
65.1153
64.5798
64.1
63.7004
62.7118
61.5669
60.3898
59.0601
58.0697
57.2187
56.8382
57.2897
58.2823
60.1401
62.4575
64.8555
67.5414
70.4749
73.0956
75.8853
79.0039
81.8811
84.2025
86.0197
87.1131
87.2538
86.7925
86.2044
85.4685
84.3823
82.5959
80.4986
78.0579
75.4114
72.8729
70.4888
68.1646
66.2017
64.8451
64.2085
63.7832
63.773
64.5547
66.3398
69.5673
73.8103
78.3247
82.9277
87.0606
90.1484
92.6651
94.9057
96.262
97.0887
97.7289
97.8709
97.4751
96.541
94.7308
92.3993
89.6586
85.9294
81.3948
76.3421
70.8914
64.7089
58.7904
52.7601
47.3393
42.7519
39.0025
36.3355
34.7294
33.6979
33.2481
33.8752
35.9603
39.2808
43.393
48.0586
53.2223
58.5879
64.045
69.5381
74.4446
78.2817
81.151
82.826
83.5521
83.7391
83.6222
83.4339
83.1654
82.9743
82.754
82.6987
82.6337
82.4645
82.2997
81.7932
80.8928
79.9071
78.0908
75.9598
73.6461
71.1362
68.4493
66.0029
63.6514
61.7752
60.1841
59.1243
58.5433
58.527
58.9025
60.0166
61.3944
63.1836
65.2208
67.3993
69.6913
72.2606
74.565
76.9829
79.2115
81.5439
83.5373
85.6197
87.4789
89.2501
90.7987
92.1531
93.3238
94.2518
94.9457
95.5234
95.3602
95.1862
94.5305
92.8251
90.2572
85.2079
76.4325
61.9778
19.1264
73.2434
72.6913
70.4931
67.067
63.2143
60.011
58.0008
57.1741
57.7031
58.798
60.011
61.2112
61.8065
61.9814
61.5618
60.5641
59.5365
57.5383
55.4241
54.1704
51.6866
49.4556
49.1217
47.706
46.8734
47.9529
48.2412
49.5221
52.2819
54.399
56.6487
59.2702
61.3071
62.4283
63.3747
64.1893
64.3668
64.5154
64.5724
64.3681
64.3743
64.2951
64.1358
64.3603
64.509
64.3989
64.6804
65.1932
65.5218
65.804
66.3135
66.6566
66.7503
66.7956
66.8152
66.7314
65.9212
64.8432
63.8685
62.2823
60.3683
58.4664
56.4576
54.8741
53.599
52.4191
52.1394
52.7657
54.1647
56.2259
58.5931
61.6328
65.062
68.5658
72.2256
76.042
79.5177
82.2709
84.2985
85.5977
86.0916
85.9354
85.5506
84.954
84.0689
82.6525
80.9293
78.6638
76.2356
73.9566
71.6512
69.3421
67.3451
66.0843
65.5573
65.225
65.2198
66.0124
67.7255
70.8014
74.9133
79.2652
83.644
87.6703
90.814
93.2509
95.3306
96.6783
97.5327
98.0828
98.3674
98.1635
97.291
95.4177
92.9272
89.9445
86.0661
81.2884
76.1481
70.2737
63.7499
57.4951
51.218
45.5802
40.5345
36.5438
33.6947
32.1678
31.3205
31.2324
32.3098
34.654
38.0561
42.0961
46.7028
51.7679
57.1168
62.7497
68.2965
73.3196
77.4741
80.5021
82.2505
83.082
83.3473
83.3029
83.0193
82.7087
82.5532
82.3188
82.249
82.3279
82.2517
82.1189
81.8151
81.0395
80.2616
78.7226
76.8315
74.7103
72.561
70.1364
67.8754
65.7821
64.0452
62.545
61.615
61.116
61.0241
61.3504
62.3568
63.5244
65.0961
66.9288
68.8736
70.8213
73.0502
75.1491
77.1974
79.4047
81.3102
83.2865
84.7496
86.2919
87.6101
88.96
90.0708
91.0483
91.8051
92.3216
92.3909
92.3346
91.6577
90.5112
88.4489
84.8087
78.8998
66.7256
50.95
8.55066
72.6754
72.2176
70.3927
67.4775
63.8673
60.7934
58.8537
57.8729
58.3469
59.1601
60.0284
61.2186
61.4168
61.5006
61.2843
59.9819
59.217
57.6819
55.2043
54.3192
52.6844
50.1393
49.817
49.4071
48.3103
49.0694
50.1383
51.1552
53.2742
55.5603
57.4784
59.3107
61.0707
62.3452
63.5143
64.3029
64.2948
64.725
64.99
64.7134
65.0618
65.3413
65.1933
65.5394
66.0605
66.0809
66.2922
66.9985
67.3644
67.6497
68.3328
68.7399
68.8464
68.7437
68.577
68.357
67.2373
65.5414
63.7585
61.5881
59.0292
56.0776
53.0487
50.7055
48.9122
47.3222
46.6789
47.0007
47.8927
49.7358
52.534
55.8001
59.414
63.687
68.2301
72.5835
76.6033
79.9814
82.3593
83.9207
84.7742
85.026
84.8842
84.4449
83.8945
82.9107
81.4798
79.6472
77.5492
75.5251
73.1738
70.9699
69.038
67.8794
67.4353
67.1348
67.1375
67.9385
69.5585
72.4204
76.3605
80.5151
84.6239
88.4896
91.5485
93.944
95.9288
97.2989
98.1618
98.7015
99.053
98.9899
98.174
96.2588
93.6718
90.4795
86.348
81.369
76.0546
69.9637
63.3269
56.5296
50.1962
44.3629
38.9135
34.6969
31.5551
29.9963
29.4276
29.8014
31.2986
33.8654
37.2668
41.267
45.8038
50.8652
56.2981
61.9938
67.5447
72.7309
77.1985
80.3499
82.2337
83.3024
83.5363
83.4469
83.1581
82.736
82.5284
82.253
82.1325
82.1991
82.1512
82.0355
81.8969
81.2128
80.477
79.286
77.6629
75.694
73.8475
71.5812
69.5929
67.7212
66.1127
64.712
63.984
63.4223
63.3325
63.5418
64.5365
65.4469
66.737
68.1692
70.0414
71.5673
73.6811
75.2539
77.3808
79.0073
81.1461
82.6134
84.2073
85.2225
86.4366
87.2989
88.1272
88.7628
89.5297
89.6741
89.7797
89.1942
88.5761
86.4574
84.3014
79.3203
74.109
58.4263
43.5487
12.8065
72.2779
71.811
69.9973
67.5513
64.4065
61.632
59.9901
58.7888
59.1201
59.8125
60.131
61.2888
61.3875
60.9991
61.1122
59.8649
58.742
57.9099
55.7955
54.514
53.6243
51.686
50.857
50.8987
50.4296
50.6226
51.685
52.9692
54.5456
56.2762
58.0053
59.8326
61.5041
62.4663
63.3272
64.1283
64.3897
64.9565
65.351
65.3037
65.8414
66.3139
66.2785
66.6702
67.3995
67.6013
67.8248
68.6513
69.2135
69.4534
69.9955
70.4913
70.6399
70.3569
70.0322
69.602
68.1752
66.1591
63.801
60.7642
57.3097
53.4106
49.1215
45.39
42.7306
40.6362
39.5296
39.9451
41.0581
42.8949
45.9502
49.7871
54.0217
58.987
64.0041
68.6729
73.295
77.472
80.3291
82.2032
83.3651
84.0264
84.1752
84.0555
83.8777
83.3436
82.2234
80.9588
79.2947
77.4909
75.2744
73.215
71.3964
70.2131
69.8466
69.6092
69.5419
70.243
71.8243
74.4225
78.0442
82.0067
85.8117
89.4464
92.4317
94.7097
96.6002
98.0438
98.888
99.4208
99.8678
99.9767
99.1895
97.2061
94.5363
91.2483
87.0489
81.8927
76.3527
70.2304
63.4305
56.2358
49.7117
43.4204
37.7767
33.4595
30.1222
28.519
28.1405
28.8227
30.721
33.4727
36.8154
40.7637
45.2641
50.4365
55.9721
61.7065
67.4366
72.9511
77.5216
80.9299
82.9352
84.115
84.4176
84.2226
83.9479
83.352
83.0294
82.6979
82.4546
82.3847
82.3701
82.2068
82.0234
81.4178
80.6611
79.7272
78.4201
76.6085
74.9213
72.8938
71.1483
69.3887
67.9566
66.6498
66.0006
65.508
65.3876
65.5269
66.2624
66.9686
68.0138
69.1297
70.6414
71.9556
73.7742
75.1245
77.0272
78.3236
80.3154
81.438
83.0809
83.9291
85.2644
85.8086
86.529
86.598
87.4112
86.9252
87.4669
86.1082
85.4945
83.3289
81.6145
73.6429
70.9838
52.7836
38.1967
17.0711
73.088
72.4288
69.7355
67.3442
64.7839
62.2301
60.9399
59.77
59.8253
60.5439
60.5944
61.3184
61.6238
61.0239
60.8822
60.0544
58.8475
58.0285
56.6005
55.3236
54.5227
53.2741
52.4277
52.3625
52.1839
52.3314
53.3114
54.3424
55.4511
57.198
58.7649
59.8594
61.2192
62.4334
63.3769
64.3288
64.8193
65.2803
65.8214
66.0219
66.4809
67.1198
67.354
67.8286
68.6358
68.974
69.3138
70.1379
70.8332
71.213
71.8114
72.4398
72.6068
72.3408
71.877
71.1396
69.5663
67.1486
64.171
60.5009
56.0883
51.2031
45.9734
40.7493
36.6797
33.8661
32.0939
32.2533
33.601
35.7873
39.2271
43.745
48.7038
54.4028
60.0269
65.1868
70.3254
75.0611
78.3267
80.5093
82.0001
83.1093
83.575
83.7486
83.9001
83.7734
83.2026
82.5359
81.5027
79.9928
78.1356
76.2022
74.4979
73.2585
72.8053
72.5877
72.4001
72.8936
74.4285
76.8337
80.0475
83.6671
87.0987
90.4273
93.3731
95.5532
97.3397
98.7908
99.6482
100.206
100.731
101.017
100.276
98.2684
95.4671
92.195
88.0316
82.7487
77.064
70.7944
63.8549
56.7429
49.9121
43.0237
37.3137
32.8137
29.3459
27.8313
27.5565
28.3583
30.4914
33.2995
36.6598
40.5784
45.2579
50.4809
56.1829
62.0718
68.1138
73.8903
78.5375
82.1546
84.4298
85.5818
85.9948
85.6717
85.2986
84.6045
84.1153
83.6497
83.3233
83.0725
82.9259
82.6624
82.3725
81.7661
80.9094
80.1145
78.9784
77.373
75.8627
74.0835
72.4952
70.8801
69.5227
68.3947
67.8078
67.3578
67.1349
67.2361
67.7801
68.4028
69.0969
70.0159
71.0865
72.4636
73.7429
75.0709
76.3258
77.6806
79.102
80.1262
81.5882
82.0751
83.6603
83.9274
84.8644
84.6119
85.3793
84.2609
84.9071
82.5875
82.458
78.0456
79.6098
67.5375
64.804
48.9273
34.0944
19.3836
73.4784
72.8196
69.764
67.137
64.9737
62.7762
61.6905
60.9525
60.7645
61.2853
61.2524
61.5972
61.9324
61.3247
60.9637
60.455
59.3011
58.4014
57.5052
56.3211
55.4649
54.7922
53.9448
53.6755
53.8337
53.7443
54.3314
55.5121
56.3694
57.4762
58.8438
60.1193
61.6359
62.7515
63.3637
64.3635
65.0237
65.4084
66.2175
66.7296
67.1391
67.9512
68.4969
68.9507
69.7202
70.3565
70.847
71.6189
72.5032
73.0299
73.5764
74.2902
74.6271
74.431
73.8644
72.8967
71.1652
68.368
64.6867
60.2608
54.8779
48.9453
43.0257
37.3441
32.4943
28.8669
26.5528
26.1162
27.0343
28.8901
32.8431
37.9035
43.6904
50.2677
56.5875
62.2098
67.8375
73.0562
76.7264
79.119
80.9235
82.343
83.1337
83.5782
84.1105
84.3702
84.4686
84.2388
83.9483
83.0242
81.5331
79.8658
78.2891
77.0071
76.3045
75.9893
75.7426
76.0082
77.2492
79.317
82.1901
85.4768
88.4325
91.3708
94.3018
96.4148
98.003
99.4274
100.369
100.945
101.528
101.967
101.333
99.3134
96.3449
93.1029
88.9811
83.795
78.1767
71.7291
64.8303
57.8629
50.7134
43.6224
37.8904
32.8841
29.2366
27.7944
27.4787
28.3866
30.5588
33.3955
36.7469
40.756
45.6612
51.012
56.9803
63.2116
69.4136
75.3922
80.2759
84.0257
86.5533
87.702
88.1289
87.7717
87.298
86.4804
85.7834
85.1199
84.6558
84.1835
83.8242
83.4956
82.9891
82.3242
81.4805
80.5882
79.4561
78.0683
76.7247
75.1193
73.7346
72.2361
71.0341
70.0495
69.536
69.0845
68.7975
68.8176
69.2247
69.723
70.2691
70.9385
71.8512
72.9229
73.9729
74.8204
75.9506
76.801
77.9622
78.4417
79.7884
79.8586
81.2904
81.0768
82.4604
81.2828
82.9586
80.1677
83.0602
77.3262
81.9538
71.7959
72.7032
61.5972
53.7958
44.3598
30.9048
20.7574
73.6591
72.9752
69.899
67.1301
65.2017
63.3642
62.3767
61.8795
61.685
61.9742
62.0079
62.0265
62.2328
61.8738
61.2855
60.8423
59.9839
58.9437
58.2624
57.4167
56.3984
55.8938
55.4002
54.8317
54.8423
54.9835
55.2756
55.9931
56.8157
58.0788
59.4437
60.3511
61.4376
62.5211
63.3313
64.4584
65.292
65.8004
66.6995
67.3648
67.8591
68.7092
69.4338
70.0335
70.8975
71.7049
72.2858
73.1564
74.1679
74.8501
75.4586
76.1349
76.6197
76.5832
75.9384
74.7829
72.8366
69.6742
65.3072
59.9347
53.498
46.411
39.4924
33.3079
28.3923
24.645
22.1661
21.5659
22.3246
24.1717
27.9008
32.965
39.198
46.4656
53.5995
59.9159
66.0225
71.6229
75.6936
78.1786
80.2067
81.7857
82.9071
83.6435
84.5657
85.2574
85.7657
86.0955
86.6314
86.3719
85.2621
84.0068
82.6076
81.2895
80.3313
79.7992
79.3888
79.3117
80.2738
81.9988
84.364
87.231
89.7468
92.2278
94.945
97.0087
98.5747
100.001
100.915
101.488
102.177
102.726
102.205
100.147
97.086
93.7613
89.7822
84.9211
79.4475
73.2342
66.5895
59.5058
52.2198
45.3375
39.3969
33.7727
30.0482
28.3755
27.8216
28.7481
30.8385
33.7043
36.9696
41.2931
46.3276
52.093
58.1986
64.8733
71.255
77.4422
82.6557
86.4643
89.1588
90.3919
90.8696
90.4567
89.8603
88.8542
87.9199
87.0854
86.3334
85.7346
85.0934
84.6358
83.9076
83.2127
82.316
81.2612
80.1719
78.7277
77.5388
76.0402
74.8615
73.4215
72.4611
71.5235
71.0102
70.6142
70.3464
70.2428
70.4175
70.661
71.1508
71.7319
72.3287
73.092
73.7197
74.6023
75.1629
76.0471
76.6093
76.8739
77.7843
77.4457
78.5195
77.7803
79.1509
77.1867
78.4696
74.7394
75.5729
69.7283
69.8862
62.8846
59.7179
54.0319
47.3102
42.4715
31.2611
23.3806
73.7717
73.0792
70.0931
67.3183
65.4367
63.8601
62.8519
62.5918
62.5335
62.6202
62.6908
62.6322
62.6439
62.4659
61.8079
61.2205
60.6323
59.6576
58.8725
58.2519
57.4364
56.8168
56.3343
55.8617
55.7264
55.6809
55.8863
56.7606
57.6327
58.3491
59.2839
60.2459
61.4529
62.6657
63.5523
64.56
65.4367
66.1186
67.0349
67.8328
68.5491
69.5455
70.3985
71.0137
71.9633
73.0084
73.72
74.588
75.6946
76.5985
77.3278
78.099
78.7703
78.9626
78.4733
77.2255
75.0337
71.6249
66.8857
60.7329
53.304
44.9938
36.7923
29.625
24.1222
20.3756
18.141
17.7269
18.8738
21.0455
24.5156
29.3857
35.8259
43.5964
51.3708
58.2871
64.9581
70.9853
75.23
77.7537
79.8169
81.4991
82.8434
83.9013
85.1227
86.2109
87.0086
88.1676
89.512
89.8589
89.2826
88.4244
87.1802
85.8356
84.5985
83.7432
83.2841
82.8666
83.4762
84.7354
86.424
88.7094
90.8356
92.9732
95.3697
97.3087
98.863
100.24
101.149
101.822
102.589
103.186
102.756
100.698
97.6752
94.3351
90.5792
86.0476
80.7619
74.9114
68.5259
61.6452
54.6415
47.8717
41.7169
35.6196
31.8377
29.7328
28.6852
29.4445
31.5622
34.2606
37.7134
42.3608
47.5798
53.7754
60.1197
67.1038
73.9486
80.0074
85.5727
89.3507
92.2226
93.5745
93.9781
93.55
92.746
91.678
90.4421
89.4728
88.3706
87.6329
86.6723
86.0347
85.0829
84.2694
83.2925
82.1096
80.9688
79.4663
78.3616
76.905
75.834
74.5417
73.6485
72.7263
72.2545
71.8827
71.6225
71.5157
71.3894
71.4231
71.6903
72.1809
72.4986
73.2097
73.4507
74.2176
74.555
75.4629
75.8044
75.6592
76.0644
75.8564
76.094
75.696
75.6429
73.5481
73.0892
69.8194
67.4216
63.7942
59.5138
55.6828
50.9952
47.9218
44.5247
42.592
34.5876
27.6016
73.8314
73.1153
70.3045
67.6295
65.7141
64.3346
63.4872
63.2329
63.2854
63.321
63.326
63.2586
63.1546
62.9382
62.3789
61.8122
61.1734
60.2734
59.6351
59.0616
58.168
57.5882
57.2653
56.6504
56.3549
56.5426
56.7531
57.1034
57.6014
58.3771
59.5006
60.4704
61.4232
62.4807
63.3932
64.4451
65.5385
66.4394
67.4393
68.4245
69.2337
70.249
71.2817
72.0649
73.0562
74.1916
75.0777
75.9929
77.1687
78.2208
79.0769
80.0641
80.9601
81.3141
81.0075
79.7996
77.4827
73.7751
68.5249
61.8202
53.8004
44.9797
36.0612
28.2242
21.9285
17.4571
15.2706
15.2742
16.8905
19.3856
22.6777
27.4339
34.0588
42.0729
50.1664
57.6039
64.8495
71.1045
75.2169
77.7927
79.7342
81.4637
82.8427
84.1377
85.6636
87.1822
88.4372
90.363
92.4938
93.3428
93.275
92.8485
91.7648
90.4409
88.8731
87.9031
87.323
86.5272
86.7518
87.4004
88.3558
90.1162
91.6787
93.1857
95.3076
97.298
98.7846
100.092
101.076
101.799
102.601
103.206
102.858
100.997
98.1505
94.9618
91.4505
87.2529
82.3288
76.7507
70.6742
64.2231
57.5582
50.9729
44.8407
38.5573
34.6741
32.2138
30.4388
30.9494
33.1386
35.2519
39.2553
44.06
49.8039
56.1171
63.0047
69.891
77.1573
83.1377
88.731
92.7877
95.4533
97.0073
97.2111
97.0102
95.8581
94.8089
93.2746
92.0973
90.7097
89.6637
88.4444
87.57
86.4118
85.4112
84.2479
83.0357
81.7693
80.334
79.1205
77.7364
76.7087
75.4314
74.7985
73.8085
73.3884
72.8986
72.6838
72.6013
72.3303
72.3891
72.3197
72.862
72.9657
73.5916
73.7273
74.2947
74.5345
74.9062
75.2723
75.0553
75.1733
74.7481
74.0836
73.1643
71.5571
69.809
67.5184
65.0458
62.4069
60.4248
57.5437
55.678
51.319
50.458
47.2363
45.2231
38.7665
32.1735
73.8553
73.0846
70.4302
67.9125
66.0329
64.7929
64.0771
63.8592
63.9429
63.968
63.9973
63.9131
63.6882
63.4937
62.9593
62.2843
61.7694
61.0323
60.203
59.6426
59.0482
58.3412
57.8145
57.4498
57.2689
57.1063
56.9519
57.2535
57.9212
58.6073
59.3644
60.1391
61.0628
62.2556
63.3301
64.4661
65.7043
66.7051
67.755
68.8879
69.8761
70.9859
72.1233
73.046
74.0912
75.2703
76.2564
77.2527
78.5222
79.7948
80.8725
81.9899
83.1498
83.8412
83.7399
82.5642
79.9643
75.8516
70.0518
62.8345
54.3189
45.252
36.3569
28.4621
22.1729
17.3929
14.8241
14.7789
16.5251
19.1956
22.5744
27.3105
33.8966
41.8687
50.1716
58.1944
65.7808
71.845
75.5909
77.9733
79.7053
81.4263
82.9253
84.4835
86.3679
88.3093
90.1677
92.8038
95.539
96.7725
97.269
97.19
96.1638
94.9112
93.1331
92.0532
91.2279
90.1199
90.0332
90.0259
90.0226
91.0741
92.1325
93.1273
94.9172
96.7243
98.1472
99.6419
100.762
101.428
102.162
102.726
102.502
101.002
98.4362
95.4615
92.2599
88.4763
84.0598
78.9808
73.3398
67.2891
60.7106
54.4328
48.5357
42.1789
38.5673
35.705
33.2417
34.015
35.6997
37.3222
41.9554
46.8313
52.9502
59.2298
66.593
73.4187
80.669
86.951
92.0837
96.4499
98.8092
100.586
100.691
100.383
99.0939
97.8856
96.1971
94.704
93.1516
91.7947
90.3617
89.1693
87.7548
86.5834
85.2218
83.967
82.4712
81.1107
79.8147
78.5457
77.5133
76.3472
75.8187
74.8309
74.5036
73.8786
73.6069
73.5293
73.2621
73.5313
73.2159
73.6732
73.7244
73.9653
74.3153
74.5589
74.8543
74.5047
74.94
74.744
74.7428
74.6024
73.5356
72.3136
70.0843
68.8139
65.8474
64.5469
61.6664
60.0361
58.0667
57.7153
55.362
55.7151
51.2985
47.8055
42.3654
36.518
73.8688
73.137
70.5579
68.1516
66.3489
65.1713
64.633
64.4796
64.599
64.6585
64.5876
64.5626
64.339
64.0345
63.5802
62.9214
62.3138
61.5699
60.8947
60.38
59.6498
58.9713
58.6321
58.2021
57.5637
57.2676
57.4122
57.6081
57.8982
58.3316
58.9704
59.882
60.8646
61.9998
63.1724
64.3356
65.631
66.8198
68.0075
69.3243
70.4886
71.6532
72.8964
73.9599
75.0543
76.2381
77.3363
78.4568
79.7233
81.126
82.4622
83.7952
85.278
86.3632
86.5038
85.3949
82.6223
78.2369
72.159
64.4687
55.5084
45.878
36.8443
29.1308
23.1622
18.8152
16.2295
15.9856
17.6154
20.1296
23.601
28.4634
35.0061
42.9996
51.7022
60.154
67.3642
72.7005
75.9551
77.9605
79.5936
81.3643
83.0994
84.9843
87.3844
89.8167
92.2426
95.5012
98.6095
100.215
101.165
101.22
100.343
99.1433
97.2309
96.0412
95.0105
93.6563
93.0353
92.1609
91.4913
91.8871
92.1048
92.5995
94.2541
95.8873
97.2115
98.7731
99.9598
100.662
101.407
101.953
101.812
100.623
98.4596
95.8538
93.0366
89.716
85.8091
81.2641
76.1551
70.653
64.2031
58.351
52.3043
46.3831
43.213
39.8406
37.0507
38.2827
39.1312
41.0352
45.8235
50.882
56.8975
63.3773
70.7164
77.5474
84.371
90.9514
95.6528
100.03
102.318
103.882
104.065
103.503
102.374
100.788
99.0664
97.3021
95.5358
93.7954
92.2344
90.7343
89.0928
87.7212
86.1922
84.8584
83.1433
81.8207
80.3624
79.2916
78.1962
77.3729
76.7491
75.9523
75.6431
74.7766
74.7886
74.3608
74.2887
74.4532
74.1701
74.2521
74.2859
74.0661
74.5876
74.6743
75.0666
74.7957
74.7667
75.1749
74.1782
74.3689
73.253
72.1261
70.9283
69.6679
67.6142
66.5271
64.2635
64.0677
61.501
61.9558
59.2121
57.8213
52.8924
48.7482
44.3861
39.4561
73.8385
73.1031
70.6122
68.3847
66.7138
65.6073
65.2303
65.1586
65.2865
65.3871
65.2797
65.2266
64.9442
64.5467
64.1548
63.477
62.8876
62.3103
61.5636
60.9819
60.4443
59.7913
59.1109
58.4874
58.0276
57.7832
57.6044
57.4104
57.5515
58.087
58.6857
59.4945
60.4483
61.4886
62.7474
64.0553
65.4714
66.9101
68.2648
69.6853
71.0528
72.3586
73.6016
74.7367
75.9261
77.1368
78.2551
79.4357
80.7821
82.2565
83.8196
85.4591
87.1695
88.5444
88.7804
87.4864
84.5953
80.1683
74.1774
66.4818
57.5531
47.8213
38.4893
30.7524
24.8029
20.6714
18.3413
17.936
19.2205
21.8292
25.5368
30.542
37.2075
45.4056
54.2173
62.4797
68.7027
73.1589
75.9672
77.7671
79.5375
81.5254
83.6067
85.9523
88.8367
91.6801
94.6505
98.4428
101.801
103.672
104.872
104.875
104.062
102.886
101.143
99.9766
98.5528
96.947
95.8647
94.0499
92.6604
92.4257
91.8436
91.8235
93.2399
94.8244
96.3278
97.978
99.1319
99.8199
100.537
100.973
100.844
99.7468
98.1232
96.153
93.9094
91.1608
87.7325
83.5919
78.9338
73.8117
68.0731
62.5985
56.5077
51.2946
48.2316
44.2025
41.762
43.1972
43.3793
45.7739
50.5125
55.7136
61.442
68.0047
74.9495
81.8125
88.3036
94.8617
99.1771
103.27
105.698
106.987
107.337
106.558
105.348
103.547
101.697
99.6584
97.6365
95.7451
93.9735
92.141
90.3643
88.8383
87.1547
85.5972
83.8182
82.467
80.9807
79.9661
78.8623
78.2619
77.6341
77.0341
76.6603
75.8779
75.9174
75.3097
75.2737
75.3254
74.74
75.3893
74.7721
74.9309
75.1625
75.3965
75.6854
75.7615
75.2451
76.1382
74.5845
74.4782
73.1354
72.7515
71.1727
71.025
69.6537
68.1537
66.5705
65.782
64.1116
63.9297
60.7682
58.0849
53.5342
49.4031
45.5234
41.2925
73.7636
73.0387
70.6532
68.5327
67.0089
66.101
65.8441
65.9034
66.0226
66.0766
65.9633
65.7993
65.5489
65.1581
64.7218
64.1684
63.5736
62.9965
62.3075
61.7191
61.1064
60.2272
59.584
59.1316
58.4677
57.9031
57.532
57.3375
57.3958
57.6527
58.1372
58.8168
59.7475
60.9244
62.2242
63.7342
65.3127
66.8792
68.4815
70.0363
71.4963
72.9768
74.2605
75.3869
76.6562
77.9537
79.0473
80.2293
81.6284
83.0999
84.855
86.7371
88.5675
90.0919
90.3841
88.9133
85.8052
81.3955
75.8144
68.6953
60.2508
51.0888
41.9146
34.1601
28.1112
23.8056
21.3715
20.7768
21.9706
24.5969
28.4769
33.6991
40.4725
48.4957
56.8049
64.2233
69.2229
73.096
75.7528
77.8158
79.9143
82.1836
84.688
87.5783
90.7901
93.9528
97.433
101.611
105.085
107.013
108.224
108.091
107.3
106.04
104.432
103.388
101.986
100.362
98.3671
95.6818
93.8378
92.6488
91.3481
91.3308
92.6404
93.9613
95.4002
97.1839
98.4549
99.1944
99.8145
99.9815
99.2994
98.5298
97.45
96.2594
94.8245
92.7884
89.9409
86.2218
81.8124
77.0078
71.9347
66.7418
60.9891
56.4695
53.1596
48.768
47.1276
48.5403
48.5659
50.86
55.688
60.7748
66.2136
72.7232
79.2399
85.8822
92.3007
98.1621
102.594
106.289
108.986
109.959
110.21
109.306
107.897
105.963
103.908
101.721
99.5194
97.4676
95.419
93.4123
91.4949
89.7611
87.9792
86.3176
84.5488
83.0328
81.6397
80.6065
79.5782
78.9621
78.1913
77.9456
77.2824
77.0837
76.6306
76.4839
76.1664
75.9528
75.5574
75.4294
75.4806
75.3935
76.0715
75.9404
76.5873
76.6812
76.369
76.3234
75.5842
75.6758
74.2655
74.3452
72.4149
73.0048
70.8681
70.1086
68.338
66.5831
65.0244
63.2358
60.0497
57.0677
53.4526
49.8125
46.0271
42.3415
73.5323
72.8254
70.633
68.7233
67.4243
66.7387
66.5949
66.6524
66.7281
66.7714
66.611
66.3989
66.1565
65.7428
65.3399
64.8879
64.2454
63.6891
63.1182
62.3809
61.7105
60.9401
60.1991
59.5239
58.636
58.0258
57.6088
57.1728
57.0755
57.1023
57.4798
58.1422
59.0136
60.3919
61.6758
63.2569
65.1676
66.7323
68.6006
70.3768
71.833
73.5566
74.8664
75.9504
77.2663
78.5198
79.6988
80.8203
82.0633
83.6154
85.3629
87.3988
89.3181
90.6808
90.8836
89.4777
86.5293
82.2866
77.0587
70.6918
62.9958
54.4866
46.0648
38.6499
32.7444
28.462
25.8264
24.8441
26.1939
28.9034
32.8143
37.9562
44.3432
51.5244
58.6687
64.8508
69.4448
72.9374
75.7169
78.336
80.946
83.5946
86.4987
89.7326
93.1249
96.6919
100.666
104.981
108.22
110.019
110.988
110.667
109.944
108.69
107.35
106.274
104.879
103.593
100.86
97.1387
94.9286
93.0927
91.1245
91.0823
92.4704
93.5498
94.8361
96.6597
98.042
98.7729
99.2756
99.3609
98.6176
97.6566
96.9064
96.432
95.8669
94.5805
92.3194
89.0237
84.8741
80.2823
75.5799
70.6394
65.3914
61.2789
57.6986
53.5479
52.483
53.5772
53.8664
55.7862
60.903
65.5928
70.8494
77.1445
83.0296
88.9172
96.2256
100.788
105.921
109.163
111.688
112.5
112.567
111.517
109.907
107.98
105.764
103.379
101.077
98.9148
96.6807
94.5416
92.4442
90.6245
88.7131
87.0501
85.2225
83.7381
82.2661
81.2275
80.2298
79.5271
78.8854
78.4516
77.9657
77.8815
77.2806
77.0626
76.674
76.2573
76.1652
75.6197
76.026
76.0068
76.698
76.3837
76.9549
76.8398
76.5721
76.6247
75.3673
75.6066
75.2162
74.6655
73.4797
73.3205
71.1697
70.7036
68.6979
67.2083
64.8639
62.7774
59.879
56.7789
53.5419
50.1134
46.6364
43.5028
73.0588
72.4172
70.5895
68.9823
67.9507
67.4945
67.3844
67.4636
67.5165
67.4486
67.2694
67.0353
66.705
66.3072
65.9704
65.4729
64.8714
64.4261
63.7883
62.997
62.3842
61.6269
60.7116
59.8623
58.9859
58.1968
57.5559
56.9735
56.6414
56.6706
57.0148
57.6179
58.5231
59.8008
61.2456
62.8814
64.851
66.7707
68.6571
70.5567
72.2656
73.8082
75.3906
76.5691
77.6594
78.8847
80.1336
81.1826
82.1391
83.5771
85.3295
87.3231
89.1291
90.313
90.2755
88.9726
86.4922
82.7231
77.8933
72.1698
65.3686
57.8072
50.2911
43.474
37.8431
33.7215
31.2412
30.6921
31.6161
34.0666
37.687
42.3415
47.9073
54.0026
59.9696
65.2534
69.5082
73.0101
76.1565
79.2486
82.3299
85.4396
88.7685
92.2803
95.9615
99.93
104.081
108.128
110.893
112.472
113.083
112.629
112.004
110.823
109.77
108.889
107.556
106.111
102.873
98.8861
96.2208
93.6376
91.47
91.4735
92.7087
93.4994
94.5822
96.3583
97.8398
98.616
99.0878
99.2321
98.4951
97.3424
96.8034
97.0223
97.3735
96.7374
94.8912
91.9518
87.9953
83.4379
78.9748
74.2646
69.3262
65.5466
62.0296
58.27
57.2673
57.9889
58.2018
60.2915
65.576
69.9705
74.8824
80.5267
86.2427
91.786
99.7167
103.335
108.718
111.663
113.829
114.583
114.35
113.237
111.628
109.622
107.203
104.75
102.402
100.08
97.6764
95.4058
93.2478
91.3374
89.3644
87.6687
85.8461
84.5065
82.9419
81.9079
80.73
80.1327
79.4723
79.0579
78.5965
78.0878
77.8656
77.6285
76.9192
76.7311
76.0901
76.0941
76.7998
76.3743
77.082
76.7437
76.8159
77.0191
76.7819
76.6093
75.6705
75.1351
74.7733
74.6431
73.4528
72.623
71.0929
70.3909
68.4699
66.9107
64.2669
62.3802
59.6253
56.8223
54.1253
50.7599
47.4385
44.6501
72.3389
71.7884
70.4935
69.3868
68.6263
68.3204
68.2476
68.2169
68.181
68.0387
67.804
67.516
67.1973
66.8328
66.4722
66.0659
65.5125
64.9947
64.3887
63.6357
62.8905
61.9899
61.0675
60.1867
59.2558
58.3871
57.5894
56.9943
56.546
56.4343
56.7591
57.2267
58.2458
59.5178
60.9165
62.8762
64.7031
66.7136
68.8841
70.5762
72.5274
74.1678
75.3037
76.9487
78.0523
78.9515
80.1317
81.1962
82.0627
83.0144
84.4889
86.2408
88.0726
89.0288
88.9167
87.6266
85.549
82.6165
78.6151
73.5957
67.652
61.0439
54.329
48.1175
42.8625
38.8927
36.4592
35.8191
36.6494
38.7385
41.8594
45.9454
50.7631
55.944
61.0233
65.669
69.7343
73.3958
76.8722
80.28
83.7087
87.2211
91.0339
94.8423
98.8339
102.977
106.995
110.664
113.01
114.314
114.579
113.995
113.427
112.411
111.66
111.06
109.913
108.318
104.442
100.282
97.7527
94.9016
92.6168
92.9715
93.7591
94.1014
94.8738
96.3939
97.7509
98.4904
99.11
99.5339
99.005
97.8235
97.3206
98.1513
99.3632
99.3058
97.6871
94.9382
91.0792
86.5961
82.2067
77.4691
72.7902
69.3093
65.8363
62.4752
61.6571
62.0943
62.0063
64.733
69.5037
73.2543
77.7166
83.0055
89.1052
95.2317
102.366
105.787
110.978
113.692
115.565
116.145
115.78
114.669
112.988
110.816
108.356
105.853
103.311
100.834
98.4032
96.1016
93.8544
91.8626
89.931
88.162
86.4202
84.9678
83.5462
82.489
81.4613
80.7529
79.9384
79.5429
78.9365
78.6494
78.1147
77.7964
77.2329
77.1261
76.5668
76.34
76.7576
76.3209
77.0795
76.6301
76.8582
76.9253
77.0637
76.3715
75.7599
75.5655
74.8795
74.4364
73.456
72.3325
70.1221
69.5316
68.3225
66.0281
63.8369
62.1527
59.086
56.9149
54.6075
51.2457
48.3668
45.7486
71.5259
71.1531
70.4898
69.8701
69.376
69.131
68.9502
68.7969
68.6847
68.4748
68.1933
67.9038
67.5588
67.1869
66.8604
66.4445
65.8967
65.3839
64.7953
64.0358
63.2442
62.3814
61.418
60.4425
59.474
58.5581
57.7459
57.0804
56.6198
56.5066
56.7295
57.2446
58.2083
59.4532
60.935
62.8325
64.7206
66.7786
68.8855
70.7406
72.6128
74.2841
75.7107
76.8767
78.1108
79.1521
79.9341
80.6773
81.5615
82.4446
83.7463
85.4659
86.836
87.3089
87.2289
86.0019
84.4536
82.2922
79.2042
75.0421
69.8185
63.8792
57.757
52.003
47.0568
43.2524
40.8655
40.0951
40.6123
42.27
44.9899
48.6634
52.9573
57.4753
61.9284
66.1457
70.1086
73.9079
77.6218
81.2373
84.8677
88.5605
92.9773
96.9597
101.114
105.186
108.993
112.265
114.271
115.396
115.555
114.995
114.334