/*--------------------------------*- C++ -*----------------------------------*\
| =========                 |                                                 |
| \\      /  F ield         | OpenFOAM: The Open Source CFD Toolbox           |
|  \\    /   O peration     | Version:  2.4.0                                 |
|   \\  /    A nd           | Web:      www.OpenFOAM.org                      |
|    \\/     M anipulation  |                                                 |
\*---------------------------------------------------------------------------*/
FoamFile
{
    version     2.0;
    format      ascii;
    class       surfaceScalarField;
    location    "0.16";
    object      phi;
}
// * * * * * * * * * * * * * * * * * * * * * * * * * * * * * * * * * * * * * //

dimensions      [0 3 -1 0 0 0 0];

internalField   nonuniform List<scalar> 
17320
(
1.76319e-05
7.36815e-06
1.16191e-05
6.01273e-06
8.68374e-06
2.93539e-06
7.35294e-06
1.3308e-06
6.72625e-06
6.26685e-07
6.33227e-06
3.93982e-07
6.08108e-06
2.51192e-07
5.8703e-06
2.10775e-07
5.7115e-06
1.58799e-07
5.55776e-06
1.53746e-07
5.4949e-06
6.28552e-08
5.36051e-06
1.34396e-07
5.28925e-06
7.12583e-08
5.18231e-06
1.06941e-07
5.08562e-06
9.66858e-08
4.9394e-06
1.46223e-07
4.80232e-06
1.37077e-07
4.57555e-06
2.26769e-07
4.21866e-06
3.5689e-07
5.52481e-07
3.66618e-06
2.54513e-05
6.91682e-06
2.32513e-05
8.21276e-06
2.09852e-05
5.20151e-06
1.9319e-05
2.997e-06
1.80803e-05
1.86537e-06
1.71013e-05
1.37294e-06
1.63721e-05
9.80384e-07
1.57754e-05
8.07557e-07
1.53054e-05
6.28805e-07
1.49174e-05
5.41741e-07
1.46493e-05
3.30894e-07
1.43377e-05
4.46029e-07
1.4143e-05
2.65908e-07
1.38753e-05
3.74641e-07
1.36922e-05
2.7979e-07
1.33787e-05
4.59725e-07
1.31356e-05
3.80256e-07
1.27013e-05
6.61008e-07
1.2119e-05
9.39185e-07
1.29099e-06
1.13805e-05
2.66087e-05
5.30807e-06
2.71623e-05
7.65921e-06
2.6767e-05
5.59676e-06
2.62546e-05
3.50949e-06
2.56043e-05
2.51563e-06
2.48643e-05
2.11298e-06
2.41648e-05
1.67985e-06
2.35092e-05
1.46314e-06
2.29247e-05
1.21333e-06
2.24357e-05
1.03076e-06
2.20523e-05
7.14224e-07
2.16312e-05
8.67222e-07
2.13716e-05
5.25428e-07
2.1003e-05
7.43306e-07
2.0774e-05
5.08747e-07
2.0389e-05
8.44707e-07
2.00929e-05
6.76388e-07
1.95351e-05
1.2188e-06
1.8925e-05
1.54924e-06
2.30344e-06
1.79126e-05
2.63107e-05
3.99742e-06
2.75569e-05
6.41292e-06
2.80544e-05
5.09934e-06
2.84566e-05
3.10726e-06
2.8642e-05
2.33022e-06
2.86233e-05
2.13168e-06
2.84762e-05
1.82693e-06
2.82439e-05
1.69544e-06
2.79623e-05
1.49489e-06
2.76772e-05
1.31591e-06
2.74569e-05
9.34471e-07
2.71117e-05
1.21248e-06
2.69455e-05
6.91577e-07
2.66079e-05
1.08095e-06
2.64166e-05
7.0008e-07
2.60744e-05
1.18689e-06
2.58044e-05
9.46351e-07
2.52333e-05
1.78987e-06
2.4647e-05
2.13561e-06
3.60083e-06
2.33496e-05
2.60264e-05
2.97102e-06
2.72683e-05
5.17106e-06
2.80125e-05
4.35512e-06
2.8499e-05
2.62073e-06
2.89699e-05
1.85933e-06
2.93313e-05
1.77032e-06
2.95748e-05
1.58338e-06
2.97406e-05
1.52965e-06
2.98608e-05
1.37467e-06
2.98905e-05
1.28627e-06
2.99834e-05
8.41572e-07
2.99056e-05
1.29029e-06
2.99783e-05
6.18796e-07
2.98749e-05
1.18438e-06
2.98431e-05
7.31874e-07
2.97446e-05
1.28543e-06
2.96015e-05
1.08939e-06
2.93311e-05
2.06026e-06
2.92588e-05
2.20791e-06
3.09377e-06
2.97659e-05
2.58156e-05
2.15541e-06
2.69758e-05
4.01088e-06
2.78266e-05
3.50427e-06
2.82453e-05
2.20204e-06
2.8693e-05
1.41166e-06
2.91023e-05
1.36099e-06
2.94505e-05
1.23519e-06
2.97263e-05
1.25385e-06
3.00043e-05
1.09674e-06
3.01747e-05
1.11585e-06
3.0407e-05
6.09277e-07
3.05197e-05
1.17761e-06
3.07117e-05
4.26721e-07
3.08388e-05
1.05731e-06
3.08982e-05
6.72504e-07
3.10739e-05
1.10971e-06
3.11089e-05
1.05434e-06
3.12071e-05
1.9621e-06
3.14474e-05
1.96765e-06
2.24199e-06
3.22991e-05
2.56494e-05
1.506e-06
2.67395e-05
2.92079e-06
2.75973e-05
2.64651e-06
2.80406e-05
1.75871e-06
2.84855e-05
9.66754e-07
2.88671e-05
9.79427e-07
2.91706e-05
9.31639e-07
2.94532e-05
9.71229e-07
2.97626e-05
7.87369e-07
3.00122e-05
8.66248e-07
3.02459e-05
3.75623e-07
3.04124e-05
1.01106e-06
3.05779e-05
2.61197e-07
3.0808e-05
8.27227e-07
3.08836e-05
5.96948e-07
3.11545e-05
8.38829e-07
3.13043e-05
9.04492e-07
3.15702e-05
1.69625e-06
3.20184e-05
1.51941e-06
1.5797e-06
3.26807e-05
2.55566e-05
9.49392e-07
2.65756e-05
1.90176e-06
2.74584e-05
1.76377e-06
2.80078e-05
1.20929e-06
2.83459e-05
6.28679e-07
2.86662e-05
6.5907e-07
2.89812e-05
6.16686e-07
2.93237e-05
6.28738e-07
2.95918e-05
5.19211e-07
2.98238e-05
6.34297e-07
3.00297e-05
1.69718e-07
3.02822e-05
7.58542e-07
3.04036e-05
1.39776e-07
3.0643e-05
5.87862e-07
3.07093e-05
5.30574e-07
3.0993e-05
5.55153e-07
3.12013e-05
6.9626e-07
3.15649e-05
1.33264e-06
3.19413e-05
1.14298e-06
1.40478e-06
3.21162e-05
2.54513e-05
4.98062e-07
2.64753e-05
8.77771e-07
2.73436e-05
8.95516e-07
2.78999e-05
6.5297e-07
2.82471e-05
2.81466e-07
2.85923e-05
3.13858e-07
2.88808e-05
3.28204e-07
2.92228e-05
2.8677e-07
2.94739e-05
2.68064e-07
2.97184e-05
3.8979e-07
2.99432e-05
-5.50171e-08
3.02026e-05
4.9911e-07
3.02938e-05
4.8581e-08
3.05384e-05
3.43231e-07
3.06739e-05
3.95107e-07
3.09015e-05
3.27573e-07
3.1146e-05
4.51723e-07
3.1486e-05
9.92638e-07
3.16752e-05
9.5376e-07
1.24549e-06
3.18345e-05
2.54159e-05
8.2164e-08
2.64326e-05
-1.38942e-07
2.72926e-05
3.5487e-08
2.78484e-05
9.72206e-08
2.82399e-05
-1.10038e-07
2.84987e-05
5.50437e-08
2.87748e-05
5.21437e-08
2.91976e-05
-1.36045e-07
2.94519e-05
1.37881e-08
2.96596e-05
1.82019e-07
2.98778e-05
-2.73232e-07
3.01198e-05
2.57166e-07
3.0235e-05
-6.66e-08
3.04791e-05
9.90901e-08
3.06518e-05
2.22424e-07
3.08424e-05
1.36938e-07
3.1073e-05
2.2114e-07
3.14135e-05
6.52193e-07
3.16641e-05
7.03068e-07
8.05058e-07
3.21046e-05
2.54281e-05
-3.45932e-07
2.64447e-05
-1.15551e-06
2.72786e-05
-7.98441e-07
2.78692e-05
-4.9335e-07
2.82378e-05
-4.78654e-07
2.84925e-05
-1.99686e-07
2.88331e-05
-2.88408e-07
2.92074e-05
-5.1035e-07
2.93857e-05
-1.64582e-07
2.96982e-05
-1.30479e-07
2.99143e-05
-4.89289e-07
3.01389e-05
3.25444e-08
3.02076e-05
-1.35297e-07
3.04636e-05
-1.56898e-07
3.06945e-05
-8.44614e-09
3.08526e-05
-2.12264e-08
3.10856e-05
-1.18142e-08
3.14866e-05
2.51157e-07
3.17654e-05
4.24302e-07
5.48674e-07
3.20218e-05
2.54798e-05
-8.25766e-07
2.64791e-05
-2.15482e-06
2.72963e-05
-1.61562e-06
2.79395e-05
-1.1365e-06
2.82569e-05
-7.96113e-07
2.85515e-05
-4.94277e-07
2.88973e-05
-6.34175e-07
2.91943e-05
-8.07321e-07
2.94619e-05
-4.32172e-07
2.98016e-05
-4.70255e-07
2.99173e-05
-6.04978e-07
3.01498e-05
-1.99903e-07
3.02671e-05
-2.52668e-07
3.05516e-05
-4.41377e-07
3.07627e-05
-2.19495e-07
3.0869e-05
-1.27592e-07
3.11614e-05
-3.04212e-07
3.15697e-05
-1.57079e-07
3.17972e-05
1.96738e-07
3.29763e-07
3.20161e-05
2.55748e-05
-1.40061e-06
2.65809e-05
-3.16088e-06
2.74226e-05
-2.45729e-06
2.80385e-05
-1.75243e-06
2.83063e-05
-1.06391e-06
2.8669e-05
-8.57019e-07
2.90357e-05
-1.00083e-06
2.92968e-05
-1.06847e-06
2.95942e-05
-7.2955e-07
2.98793e-05
-7.5536e-07
2.99811e-05
-7.06726e-07
3.02776e-05
-4.96477e-07
3.04053e-05
-3.80372e-07
3.06596e-05
-6.95632e-07
3.08259e-05
-3.85758e-07
3.10406e-05
-3.42351e-07
3.12871e-05
-5.50658e-07
3.15946e-05
-4.64639e-07
3.19356e-05
-1.44266e-07
-3.48658e-08
3.23003e-05
2.56976e-05
-2.09823e-06
2.67306e-05
-4.19386e-06
2.75834e-05
-3.31008e-06
2.80728e-05
-2.2418e-06
2.84474e-05
-1.43851e-06
2.88703e-05
-1.27995e-06
2.92121e-05
-1.34261e-06
2.94702e-05
-1.32661e-06
2.97489e-05
-1.00818e-06
3.00142e-05
-1.02072e-06
3.01779e-05
-8.7037e-07
3.04449e-05
-7.63552e-07
3.05907e-05
-5.26161e-07
3.08157e-05
-9.20612e-07
3.09611e-05
-5.31155e-07
3.12495e-05
-6.30754e-07
3.14135e-05
-7.14643e-07
3.17194e-05
-7.70569e-07
3.20669e-05
-4.91772e-07
-4.7803e-07
3.25101e-05
2.58563e-05
-2.95455e-06
2.69341e-05
-5.27164e-06
2.78026e-05
-4.17858e-06
2.82521e-05
-2.69129e-06
2.87152e-05
-1.90162e-06
2.91149e-05
-1.67967e-06
2.94507e-05
-1.67835e-06
2.97151e-05
-1.59105e-06
2.99674e-05
-1.26048e-06
3.01684e-05
-1.22171e-06
3.03715e-05
-1.07346e-06
3.05502e-05
-9.42304e-07
3.07364e-05
-7.12314e-07
3.08702e-05
-1.05444e-06
3.09897e-05
-6.50616e-07
3.11629e-05
-8.03987e-07
3.12603e-05
-8.12068e-07
3.15013e-05
-1.01158e-06
3.17262e-05
-7.16585e-07
-9.00279e-07
3.21484e-05
2.60429e-05
-3.9975e-06
2.72201e-05
-6.4488e-06
2.80411e-05
-4.99958e-06
2.85226e-05
-3.17274e-06
2.89809e-05
-2.35999e-06
2.93354e-05
-2.0342e-06
2.95858e-05
-1.92871e-06
2.97166e-05
-1.72182e-06
2.98448e-05
-1.3887e-06
2.9903e-05
-1.27996e-06
2.99511e-05
-1.12154e-06
2.9962e-05
-9.53126e-07
2.99964e-05
-7.46732e-07
2.99165e-05
-9.74601e-07
2.99081e-05
-6.42206e-07
2.98517e-05
-7.47589e-07
2.97798e-05
-7.4011e-07
2.9764e-05
-9.95829e-07
2.97649e-05
-7.17422e-07
-1.08988e-06
2.99545e-05
2.63072e-05
-5.3047e-06
2.75333e-05
-7.6749e-06
2.80922e-05
-5.55847e-06
2.84609e-05
-3.54146e-06
2.86366e-05
-2.53563e-06
2.86363e-05
-2.03395e-06
2.84669e-05
-1.75935e-06
2.82162e-05
-1.4711e-06
2.79777e-05
-1.15022e-06
2.76924e-05
-9.94648e-07
2.74209e-05
-8.4997e-07
2.71682e-05
-7.00458e-07
2.69475e-05
-5.26036e-07
2.66523e-05
-6.7939e-07
2.64657e-05
-4.55636e-07
2.6222e-05
-5.03818e-07
2.60026e-05
-5.20745e-07
2.57297e-05
-7.22981e-07
2.55803e-05
-5.6797e-07
-1.04249e-06
2.55329e-05
2.66062e-05
-6.91085e-06
2.71578e-05
-8.22656e-06
2.67863e-05
-5.18694e-06
2.62485e-05
-3.00363e-06
2.55976e-05
-1.88479e-06
2.48845e-05
-1.32082e-06
2.41507e-05
-1.02553e-06
2.3494e-05
-8.14469e-07
2.29424e-05
-5.9857e-07
2.24473e-05
-4.99604e-07
2.20247e-05
-4.27308e-07
2.16724e-05
-3.48199e-07
2.1384e-05
-2.37611e-07
2.10563e-05
-3.51678e-07
2.08305e-05
-2.29823e-07
2.05714e-05
-2.44716e-07
2.0329e-05
-2.78345e-07
1.99876e-05
-3.81602e-07
1.97238e-05
-3.04177e-07
-2.9433e-07
1.89756e-05
2.54534e-05
-7.36425e-06
2.32472e-05
-6.02032e-06
2.09914e-05
-2.93117e-06
1.93165e-05
-1.32876e-06
1.80723e-05
-6.40566e-07
1.71197e-05
-3.68234e-07
1.63614e-05
-2.6719e-07
1.57655e-05
-2.18623e-07
1.53148e-05
-1.47867e-07
1.49389e-05
-1.23668e-07
1.46248e-05
-1.13246e-07
1.43695e-05
-9.28701e-08
1.41766e-05
-4.46887e-08
1.39329e-05
-1.07983e-07
1.37666e-05
-6.35131e-08
1.3582e-05
-6.01967e-08
1.33862e-05
-8.24578e-08
1.31283e-05
-1.23708e-07
1.29538e-05
-1.29728e-07
1.4202e-08
1.26453e-05
1.76357e-05
1.16154e-05
8.68426e-06
7.3555e-06
6.71493e-06
6.3467e-06
6.07951e-06
5.86088e-06
5.71302e-06
5.58935e-06
5.4761e-06
5.38323e-06
5.33855e-06
5.23056e-06
5.16705e-06
5.10685e-06
5.0244e-06
4.90069e-06
4.77096e-06
4.78516e-06
4.31829e-06
7.08264e-07
-1.36036e-06
6.04227e-06
1.86571e-06
-3.5897e-06
8.31222e-06
2.68126e-06
-4.95121e-06
1.03449e-05
3.17252e-06
-5.20518e-06
1.17957e-05
3.00669e-06
-4.45753e-06
1.26723e-05
2.27186e-06
-3.14847e-06
1.29956e-05
1.37675e-06
-1.70001e-06
1.30545e-05
4.02216e-07
-4.61089e-07
1.29052e-05
-2.29599e-07
3.78814e-07
1.25417e-05
-4.03496e-07
7.66996e-07
1.23351e-05
-5.38268e-07
7.44953e-07
1.22615e-05
-2.75522e-07
3.4907e-07
1.22778e-05
3.194e-08
-4.82702e-08
1.26714e-05
2.22131e-07
-6.15738e-07
1.31131e-05
7.30958e-07
-1.17257e-06
1.3764e-05
8.07096e-07
-1.45807e-06
1.46617e-05
8.91685e-07
-1.78935e-06
1.54728e-05
1.17388e-06
-1.98501e-06
1.64189e-05
6.69388e-07
-1.61542e-06
1.76507e-05
2.45178e-07
-1.477e-06
1.87038e-05
1.79738e-07
-1.23283e-06
1.95795e-05
-8.19869e-07
-5.58837e-08
2.06592e-05
-1.73276e-06
6.5308e-07
2.17629e-05
-2.45386e-06
1.35016e-06
2.28853e-05
-3.8581e-06
2.73572e-06
2.39212e-05
-4.4411e-06
3.40515e-06
2.50317e-05
-5.94949e-06
4.83898e-06
2.60625e-05
-7.44759e-06
6.41689e-06
2.67349e-05
-7.82091e-06
7.14848e-06
2.74032e-05
-8.8964e-06
8.22807e-06
2.7908e-05
-9.32143e-06
8.81667e-06
2.79893e-05
-8.86732e-06
8.78604e-06
2.78215e-05
-8.77167e-06
8.93945e-06
2.77e-05
-8.36078e-06
8.48229e-06
2.75718e-05
-7.39828e-06
7.52646e-06
2.75327e-05
-6.81769e-06
6.8568e-06
2.75641e-05
-6.05784e-06
6.02645e-06
2.76212e-05
-5.12685e-06
5.06972e-06
2.76649e-05
-4.81914e-06
4.77546e-06
2.76343e-05
-4.27408e-06
4.30468e-06
2.7536e-05
-3.774e-06
3.87229e-06
2.74845e-05
-3.98966e-06
4.04115e-06
2.76654e-05
-4.14549e-06
3.96463e-06
2.79726e-05
-4.48876e-06
4.18153e-06
2.82232e-05
-4.66483e-06
4.41425e-06
2.85359e-05
-4.99943e-06
4.6867e-06
2.87595e-05
-5.56957e-06
5.346e-06
2.88269e-05
-5.7826e-06
5.71519e-06
2.87416e-05
-6.50204e-06
6.58732e-06
2.86301e-05
-7.09958e-06
7.21107e-06
2.84998e-05
-7.88892e-06
8.01922e-06
2.83691e-05
-8.74597e-06
8.87669e-06
2.83144e-05
-9.55979e-06
9.61447e-06
2.82986e-05
-1.05781e-05
1.05939e-05
2.83418e-05
-1.12802e-05
1.12371e-05
2.8614e-05
-1.20403e-05
1.17681e-05
2.92054e-05
-1.29911e-05
1.23997e-05
2.98532e-05
-1.36884e-05
1.30406e-05
3.04626e-05
-1.40604e-05
1.3451e-05
3.09921e-05
-1.45313e-05
1.40018e-05
3.15557e-05
-1.47943e-05
1.42307e-05
3.20987e-05
-1.43155e-05
1.37725e-05
3.23919e-05
-1.40082e-05
1.3715e-05
3.27693e-05
-1.33308e-05
1.29535e-05
3.29873e-05
-1.18137e-05
1.15956e-05
3.3039e-05
-1.07412e-05
1.06895e-05
3.29863e-05
-8.89638e-06
8.94911e-06
3.27868e-05
-6.7189e-06
6.91841e-06
3.26095e-05
-5.05623e-06
5.23353e-06
3.2399e-05
-2.54761e-06
2.75808e-06
3.19051e-05
-9.63801e-08
5.90373e-07
3.10468e-05
1.73793e-06
-8.79682e-07
2.98595e-05
3.80005e-06
-2.61271e-06
2.84344e-05
5.4537e-06
-4.02868e-06
2.71e-05
5.58677e-06
-4.25235e-06
2.56616e-05
5.41571e-06
-3.97725e-06
2.40223e-05
5.43466e-06
-3.79535e-06
2.24034e-05
5.48053e-06
-3.86164e-06
2.08102e-05
5.75273e-06
-4.15952e-06
1.9042e-05
6.05636e-06
-4.28817e-06
1.76294e-05
6.31304e-06
-4.90045e-06
1.72961e-05
7.55634e-06
-7.22305e-06
1.79819e-05
1.13946e-05
-1.20804e-05
1.91719e-05
1.62471e-05
-1.74372e-05
2.02434e-05
2.07958e-05
-2.18673e-05
2.07807e-05
2.39959e-05
-2.45332e-05
2.0811e-05
2.52274e-05
-2.52578e-05
2.04291e-05
2.47004e-05
-2.43186e-05
1.97387e-05
2.25475e-05
-2.1857e-05
1.90521e-05
1.9923e-05
-1.92365e-05
1.84787e-05
1.72083e-05
-1.6635e-05
1.79202e-05
1.44812e-05
-1.39227e-05
1.74268e-05
1.10538e-05
-1.05603e-05
1.71812e-05
7.27314e-06
-7.02756e-06
1.71675e-05
4.10098e-06
-4.08732e-06
1.73555e-05
1.65059e-06
-1.83858e-06
1.75659e-05
-1.15641e-06
9.45965e-07
1.75864e-05
-4.22196e-06
4.20152e-06
1.72878e-05
-8.12941e-06
8.42799e-06
1.71823e-05
-1.22881e-05
1.23937e-05
1.73222e-05
-1.47034e-05
1.45635e-05
1.69798e-05
-1.60365e-05
1.63788e-05
1.67585e-05
-1.72699e-05
1.74912e-05
1.68752e-05
-1.63161e-05
1.61994e-05
1.67118e-05
-1.463e-05
1.47935e-05
1.63909e-05
-1.40175e-05
1.43383e-05
1.60697e-05
-1.27962e-05
1.31175e-05
1.61664e-05
-1.21941e-05
1.20974e-05
1.60419e-05
-1.1673e-05
1.17975e-05
1.59329e-05
-8.8617e-06
8.97076e-06
1.57931e-05
-5.98323e-06
6.123e-06
1.60957e-05
-6.97898e-06
6.6764e-06
1.63971e-05
-1.18597e-05
1.15582e-05
1.6614e-05
-1.65507e-05
1.63338e-05
1.63507e-05
-1.87542e-05
1.90175e-05
1.63384e-05
-1.98137e-05
1.9826e-05
1.63788e-05
-2.15931e-05
2.15527e-05
1.67056e-05
-2.18181e-05
2.14912e-05
1.66893e-05
-2.24801e-05
2.24965e-05
1.66508e-05
-2.19705e-05
2.2009e-05
1.69892e-05
-2.17902e-05
2.14518e-05
1.71614e-05
-1.97895e-05
1.96173e-05
1.74589e-05
-1.78144e-05
1.7517e-05
1.76596e-05
-1.48487e-05
1.46479e-05
1.79897e-05
-1.17364e-05
1.14064e-05
1.83263e-05
-8.54256e-06
8.20592e-06
1.89045e-05
-4.76184e-06
4.18364e-06
1.91343e-05
-1.70608e-06
1.47632e-06
1.8981e-05
8.88995e-07
-7.35709e-07
1.84481e-05
3.85985e-06
-3.32696e-06
1.82804e-05
7.33977e-06
-7.17205e-06
1.86112e-05
1.12341e-05
-1.1565e-05
1.92659e-05
1.47319e-05
-1.53865e-05
2.00002e-05
1.77542e-05
-1.84885e-05
2.06693e-05
2.06286e-05
-2.12977e-05
2.12229e-05
2.31941e-05
-2.37478e-05
2.16703e-05
2.55699e-05
-2.60173e-05
2.20471e-05
2.7994e-05
-2.83707e-05
2.2116e-05
2.97949e-05
-2.98638e-05
2.17534e-05
3.02109e-05
-2.98482e-05
2.10465e-05
2.92926e-05
-2.85858e-05
1.99322e-05
2.71162e-05
-2.60018e-05
1.85356e-05
2.42004e-05
-2.28038e-05
1.71159e-05
2.11064e-05
-1.96867e-05
1.56839e-05
1.81789e-05
-1.67469e-05
1.46129e-05
1.52941e-05
-1.42231e-05
1.36339e-05
1.31434e-05
-1.21644e-05
1.30609e-05
1.10621e-05
-1.04891e-05
1.26532e-05
9.47113e-06
-9.06336e-06
1.24908e-05
8.2384e-06
-8.07606e-06
1.28005e-05
6.65945e-06
-6.96915e-06
1.30344e-05
6.49634e-06
-6.7302e-06
1.37848e-05
5.35961e-06
-6.11001e-06
1.43833e-05
5.59973e-06
-6.19825e-06
1.53618e-05
4.98819e-06
-5.96666e-06
1.61396e-05
5.35707e-06
-6.1349e-06
1.74808e-05
4.97611e-06
-6.31727e-06
1.83323e-05
5.77954e-06
-6.63103e-06
1.97193e-05
5.08047e-06
-6.46752e-06
2.05598e-05
5.86054e-06
-6.70107e-06
2.19431e-05
4.2597e-06
-5.64295e-06
2.27291e-05
5.32698e-06
-6.11304e-06
2.36459e-05
3.92449e-06
-4.84123e-06
2.40647e-05
3.91057e-06
-4.32941e-06
2.47135e-05
1.73937e-06
-2.38816e-06
2.50521e-05
2.318e-06
-2.65654e-06
2.5522e-05
-7.09561e-07
2.39647e-07
2.5468e-05
-1.67941e-07
2.21908e-07
2.57129e-05
-2.98964e-06
2.74476e-06
2.53837e-05
-3.00039e-06
3.32961e-06
2.53338e-05
-5.6527e-06
5.70257e-06
2.48025e-05
-5.18069e-06
5.71194e-06
2.48656e-05
-8.43513e-06
8.37205e-06
2.38829e-05
-7.24371e-06
8.22643e-06
2.38255e-05
-9.88036e-06
9.93773e-06
2.29376e-05
-8.85365e-06
9.74161e-06
2.29078e-05
-1.11876e-05
1.12174e-05
2.16865e-05
-9.39264e-06
1.06139e-05
2.17412e-05
-1.09698e-05
1.09152e-05
2.09654e-05
-1.00804e-05
1.08562e-05
2.08183e-05
-1.11345e-05
1.12816e-05
1.96997e-05
-9.55094e-06
1.06695e-05
1.92441e-05
-8.92288e-06
9.37846e-06
1.83562e-05
-7.03714e-06
7.92502e-06
1.80219e-05
-6.91662e-06
7.25093e-06
1.73014e-05
-6.02478e-06
6.74525e-06
1.69053e-05
-5.09422e-06
5.4904e-06
1.61508e-05
-3.78198e-06
4.53648e-06
1.58124e-05
-2.67811e-06
3.01642e-06
1.52117e-05
-9.74619e-07
1.57537e-06
1.49397e-05
3.63931e-07
-9.19661e-08
1.44564e-05
1.57644e-06
-1.09307e-06
1.50881e-05
4.87858e-06
-5.51027e-06
1.55206e-05
1.02343e-05
-1.06668e-05
1.60887e-05
1.56598e-05
-1.6228e-05
1.68189e-05
1.9876e-05
-2.06062e-05
1.71539e-05
2.59191e-05
-2.62541e-05
1.65062e-05
3.26485e-05
-3.20007e-05
1.66826e-05
3.61226e-05
-3.62991e-05
4.41952e-05
-4.44664e-05
1.69538e-05
1.11949e-05
8.93849e-07
1.1512e-05
1.54863e-06
1.21956e-05
1.99766e-06
1.3225e-05
2.1431e-06
1.41719e-05
2.05986e-06
1.49777e-05
1.46602e-06
1.54094e-05
9.45068e-07
1.54799e-05
3.31706e-07
1.55452e-05
-2.94905e-07
1.54254e-05
-2.83734e-07
1.54198e-05
-5.32667e-07
1.56587e-05
-5.14385e-07
1.58427e-05
-1.52059e-07
1.62457e-05
-1.80819e-07
1.69737e-05
2.90225e-09
1.76736e-05
1.0722e-07
1.85229e-05
4.2332e-08
1.95769e-05
1.19939e-07
2.06149e-05
-3.68673e-07
2.17073e-05
-8.47217e-07
2.28914e-05
-1.00437e-06
2.41402e-05
-2.06866e-06
2.52593e-05
-2.85182e-06
2.63238e-05
-3.51836e-06
2.75252e-05
-5.05948e-06
2.85268e-05
-5.44271e-06
2.92141e-05
-6.63679e-06
2.99145e-05
-8.14799e-06
3.02942e-05
-8.20062e-06
3.01059e-05
-8.70814e-06
2.97864e-05
-9.00192e-06
2.96353e-05
-8.71619e-06
2.94067e-05
-8.54312e-06
2.90963e-05
-8.05041e-06
2.88389e-05
-7.14083e-06
2.82691e-05
-6.24785e-06
2.77325e-05
-5.5213e-06
2.75072e-05
-4.90154e-06
2.73013e-05
-4.61328e-06
2.73202e-05
-4.29296e-06
2.75524e-05
-4.00616e-06
2.7563e-05
-4.00029e-06
2.76416e-05
-4.22402e-06
2.75023e-05
-4.34949e-06
2.72857e-05
-4.44826e-06
2.73766e-05
-5.09032e-06
2.75512e-05
-5.74418e-06
2.78243e-05
-6.05567e-06
2.80645e-05
-6.74221e-06
2.83638e-05
-7.39895e-06
2.84979e-05
-8.02302e-06
2.84915e-05
-8.73954e-06
2.84952e-05
-9.56348e-06
2.85097e-05
-1.05927e-05
2.86436e-05
-1.14141e-05
2.88841e-05
-1.22808e-05
2.91653e-05
-1.32722e-05
2.94588e-05
-1.39819e-05
2.98588e-05
-1.44604e-05
3.02607e-05
-1.49331e-05
3.06494e-05
-1.5183e-05
3.11349e-05
-1.48011e-05
3.17046e-05
-1.45779e-05
3.2312e-05
-1.39382e-05
3.27182e-05
-1.22199e-05
3.29587e-05
-1.09817e-05
3.30909e-05
-9.02852e-06
3.28801e-05
-6.50814e-06
3.25398e-05
-4.71597e-06
3.22843e-05
-2.29206e-06
3.18575e-05
3.30355e-07
3.13855e-05
2.21001e-06
3.0682e-05
4.50351e-06
2.96919e-05
6.44386e-06
2.84478e-05
6.83084e-06
2.68838e-05
6.97972e-06
2.49318e-05
7.3866e-06
2.30355e-05
7.37686e-06
2.13392e-05
7.44908e-06
1.95958e-05
7.79969e-06
1.79307e-05
7.97816e-06
1.72409e-05
8.24611e-06
1.77727e-05
1.08628e-05
1.90246e-05
1.49953e-05
2.0221e-05
1.95994e-05
2.10835e-05
2.31334e-05
2.14513e-05
2.48597e-05
2.13484e-05
2.48033e-05
2.07309e-05
2.3165e-05
2.00389e-05
2.0615e-05
1.93926e-05
1.78547e-05
1.90016e-05
1.48721e-05
1.86115e-05
1.14439e-05
1.85194e-05
7.36532e-06
1.8543e-05
4.07737e-06
1.86739e-05
1.51972e-06
1.88634e-05
-1.34595e-06
1.90475e-05
-4.40606e-06
1.89241e-05
-8.00603e-06
1.88162e-05
-1.21802e-05
1.87978e-05
-1.4685e-05
1.85358e-05
-1.57744e-05
1.81938e-05
-1.69279e-05
1.79241e-05
-1.60464e-05
1.76671e-05
-1.4373e-05
1.72764e-05
-1.36267e-05
1.69467e-05
-1.24666e-05
1.67123e-05
-1.19597e-05
1.62803e-05
-1.12409e-05
1.59854e-05
-8.56682e-06
1.57119e-05
-5.70969e-06
1.58603e-05
-7.12736e-06
1.59596e-05
-1.1959e-05
1.58742e-05
-1.64653e-05
1.55128e-05
-1.83928e-05
1.53593e-05
-1.96602e-05
1.53124e-05
-2.15462e-05
1.54519e-05
-2.19576e-05
1.51914e-05
-2.22197e-05
1.52642e-05
-2.20433e-05
1.52341e-05
-2.17601e-05
1.53291e-05
-1.98846e-05
1.56455e-05
-1.81309e-05
1.60434e-05
-1.52465e-05
1.65009e-05
-1.21939e-05
1.68286e-05
-8.87023e-06
1.73387e-05
-5.272e-06
1.74292e-05
-1.79652e-06
1.73044e-05
1.01372e-06
1.68243e-05
4.34e-06
1.66053e-05
7.55872e-06
1.68395e-05
1.09999e-05
1.74284e-05
1.41431e-05
1.82666e-05
1.6916e-05
1.9131e-05
1.97642e-05
1.98407e-05
2.24844e-05
2.03607e-05
2.50499e-05
2.08656e-05
2.7489e-05
2.11936e-05
2.94669e-05
2.10525e-05
3.0352e-05
2.07094e-05
2.96357e-05
2.00685e-05
2.77571e-05
1.89958e-05
2.52731e-05
1.79469e-05
2.21553e-05
1.68203e-05
1.93055e-05
1.58305e-05
1.62839e-05
1.50137e-05
1.39603e-05
1.42828e-05
1.1793e-05
1.39661e-05
9.78783e-06
1.36027e-05
8.60178e-06
1.37836e-05
6.47855e-06
1.3964e-05
6.31591e-06
1.45793e-05
4.74432e-06
1.5257e-05
4.92203e-06
1.62611e-05
3.98406e-06
1.70308e-05
4.5874e-06
1.85086e-05
3.49829e-06
1.94126e-05
4.87559e-06
2.06872e-05
3.80583e-06
2.15484e-05
4.99936e-06
2.27478e-05
3.06029e-06
2.34761e-05
4.59871e-06
2.44953e-05
2.90527e-06
2.49156e-05
3.49025e-06
2.54587e-05
1.19628e-06
2.58655e-05
1.91125e-06
2.63008e-05
-1.14486e-06
2.62647e-05
-1.31909e-07
2.64997e-05
-3.22459e-06
2.61476e-05
-2.64829e-06
2.60071e-05
-5.5122e-06
2.54422e-05
-4.61581e-06
2.516e-05
-8.15296e-06
2.41449e-05
-6.22861e-06
2.39336e-05
-9.66901e-06
2.30139e-05
-7.93401e-06
2.27354e-05
-1.0909e-05
2.16702e-05
-8.32747e-06
2.17045e-05
-1.10042e-05
2.10808e-05
-9.45656e-06
2.06309e-05
-1.06847e-05
1.97373e-05
-8.65724e-06
1.88737e-05
-8.0593e-06
1.85164e-05
-6.67988e-06
1.77776e-05
-6.17785e-06
1.73184e-05
-5.56552e-06
1.67806e-05
-4.55641e-06
1.60965e-05
-3.09788e-06
1.5787e-05
-2.36867e-06
1.55968e-05
-7.84385e-07
1.49796e-05
9.81103e-07
1.49601e-05
1.59596e-06
1.48934e-05
4.94529e-06
1.59824e-05
9.14528e-06
1.60733e-05
1.55689e-05
1.65215e-05
1.94278e-05
1.93369e-05
2.31037e-05
1.96644e-05
3.23211e-05
2.4251e-05
3.1536e-05
4.56208e-05
2.28254e-05
1.80572e-05
7.49289e-07
1.8505e-05
1.10084e-06
1.89306e-05
1.57203e-06
1.94248e-05
1.64888e-06
1.97926e-05
1.69203e-06
2.01271e-05
1.13158e-06
2.04259e-05
6.46261e-07
2.05216e-05
2.35987e-07
2.06566e-05
-4.29862e-07
2.08287e-05
-4.55843e-07
2.09263e-05
-6.30322e-07
2.11447e-05
-7.32778e-07
2.15294e-05
-5.3672e-07
2.19296e-05
-5.81069e-07
2.24272e-05
-4.94669e-07
2.31891e-05
-6.54671e-07
2.40183e-05
-7.86896e-07
2.48192e-05
-6.80949e-07
2.58624e-05
-1.41192e-06
2.69429e-05
-1.92771e-06
2.78846e-05
-1.94603e-06
2.89283e-05
-3.11238e-06
3.00309e-05
-3.95437e-06
3.09091e-05
-4.39663e-06
3.14849e-05
-5.63525e-06
3.22373e-05
-6.19509e-06
3.26528e-05
-7.05234e-06
3.24918e-05
-7.98695e-06
3.22898e-05
-7.99865e-06
3.18902e-05
-8.3085e-06
3.13734e-05
-8.48512e-06
3.09803e-05
-8.32314e-06
3.0084e-05
-7.64676e-06
2.88616e-05
-6.828e-06
2.80448e-05
-6.3241e-06
2.75347e-05
-5.73769e-06
2.7329e-05
-5.31566e-06
2.72981e-05
-4.87057e-06
2.70497e-05
-4.36488e-06
2.68286e-05
-4.07188e-06
2.68347e-05
-4.0123e-06
2.68566e-05
-4.02223e-06
2.69504e-05
-4.31783e-06
2.68633e-05
-4.26234e-06
2.67922e-05
-4.37718e-06
2.66213e-05
-4.91944e-06
2.64147e-05
-5.53751e-06
2.64709e-05
-6.11193e-06
2.6439e-05
-6.71027e-06
2.64495e-05
-7.4095e-06
2.65111e-05
-8.08455e-06
2.66124e-05
-8.84088e-06
2.67595e-05
-9.71058e-06
2.68316e-05
-1.06648e-05
2.70555e-05
-1.16379e-05
2.73131e-05
-1.25385e-05
2.75472e-05
-1.35063e-05
2.78898e-05
-1.43246e-05
2.83744e-05
-1.4945e-05
2.9075e-05
-1.56337e-05
2.99986e-05
-1.61066e-05
3.11096e-05
-1.59121e-05
3.21492e-05
-1.56175e-05
3.29708e-05
-1.47598e-05
3.35266e-05
-1.27756e-05
3.37351e-05
-1.11902e-05
3.37719e-05
-9.06531e-06
3.33979e-05
-6.13423e-06
3.27897e-05
-4.10769e-06
3.21066e-05
-1.60898e-06
3.13016e-05
1.13535e-06
3.07104e-05
2.8012e-06
3.03273e-05
4.88657e-06
2.97735e-05
6.99767e-06
2.86621e-05
7.94228e-06
2.70664e-05
8.57538e-06
2.51541e-05
9.29896e-06
2.33138e-05
9.21717e-06
2.17399e-05
9.0229e-06
2.02327e-05
9.30696e-06
1.85801e-05
9.63071e-06
1.75364e-05
9.28985e-06
1.76621e-05
1.0737e-05
1.8774e-05
1.38834e-05
2.00334e-05
1.834e-05
2.11804e-05
2.19864e-05
2.18348e-05
2.42053e-05
2.19788e-05
2.46593e-05
2.16031e-05
2.35406e-05
2.10122e-05
2.12059e-05
2.03934e-05
1.84734e-05
2.00251e-05
1.52404e-05
1.9797e-05
1.1672e-05
1.98154e-05
7.34694e-06
1.9932e-05
3.96068e-06
2.00123e-05
1.43949e-06
2.01844e-05
-1.51811e-06
2.03977e-05
-4.61935e-06
2.0448e-05
-8.05628e-06
2.03639e-05
-1.20961e-05
2.02756e-05
-1.45968e-05
2.00747e-05
-1.55735e-05
1.96112e-05
-1.64644e-05
1.91789e-05
-1.56141e-05
1.88108e-05
-1.40049e-05
1.82108e-05
-1.30267e-05
1.77514e-05
-1.20072e-05
1.7083e-05
-1.12914e-05
1.63994e-05
-1.05574e-05
1.58283e-05
-7.99572e-06
1.55263e-05
-5.4076e-06
1.54701e-05
-7.07119e-06
1.53126e-05
-1.18015e-05
1.50105e-05
-1.61632e-05
1.45189e-05
-1.79012e-05
1.43181e-05
-1.94594e-05
1.40035e-05
-2.12316e-05
1.36775e-05
-2.16316e-05
1.35383e-05
-2.20805e-05
1.36517e-05
-2.21567e-05
1.34238e-05
-2.15322e-05
1.35646e-05
-2.00254e-05
1.37813e-05
-1.83475e-05
1.43889e-05
-1.58541e-05
1.47826e-05
-1.25876e-05
1.51628e-05
-9.25043e-06
1.55202e-05
-5.62941e-06
1.55791e-05
-1.85542e-06
1.54365e-05
1.15632e-06
1.51466e-05
4.62984e-06
1.50048e-05
7.70054e-06
1.53847e-05
1.06201e-05
1.60121e-05
1.35156e-05
1.68186e-05
1.61095e-05
1.76492e-05
1.89336e-05
1.83177e-05
2.18158e-05
1.89677e-05
2.44e-05
1.96161e-05
2.68406e-05
2.01245e-05
2.89585e-05
2.04714e-05
3.0005e-05
2.03659e-05
2.97412e-05
1.99759e-05
2.81471e-05
1.94e-05
2.58491e-05
1.85692e-05
2.29861e-05
1.78221e-05
2.00526e-05
1.70293e-05
1.70767e-05
1.64399e-05
1.45496e-05
1.58149e-05
1.2418e-05
1.56055e-05
9.99728e-06
1.52509e-05
8.95633e-06
1.52549e-05
6.47453e-06
1.54084e-05
6.16247e-06
1.58891e-05
4.26355e-06
1.63837e-05
4.4275e-06
1.73183e-05
3.04948e-06
1.79025e-05
4.00319e-06
1.94204e-05
1.98039e-06
2.02699e-05
4.02602e-06
2.15917e-05
2.48405e-06
2.24025e-05
4.18854e-06
2.35841e-05
1.8787e-06
2.40926e-05
4.09025e-06
2.5178e-05
1.81982e-06
2.53259e-05
3.34243e-06
2.60462e-05
4.75972e-07
2.61046e-05
1.85277e-06
2.66482e-05
-1.68836e-06
2.63958e-05
1.20478e-07
2.69172e-05
-3.74606e-06
2.61493e-05
-1.88037e-06
2.63219e-05
-5.68479e-06
2.53595e-05
-3.65343e-06
2.52547e-05
-8.0481e-06
2.39271e-05
-4.90106e-06
2.39871e-05
-9.72897e-06
2.28633e-05
-6.81027e-06
2.28855e-05
-1.09311e-05
2.17561e-05
-7.19809e-06
2.20832e-05
-1.13313e-05
2.09874e-05
-8.36076e-06
2.07734e-05
-1.04706e-05
1.93944e-05
-7.27826e-06
1.89386e-05
-7.60354e-06
1.82387e-05
-5.97998e-06
1.79037e-05
-5.84285e-06
1.73773e-05
-5.03907e-06
1.65102e-05
-3.68928e-06
1.63904e-05
-2.97815e-06
1.58466e-05
-1.82488e-06
1.58137e-05
-7.51452e-07
1.54465e-05
1.34833e-06
1.49434e-05
2.09908e-06
1.54988e-05
4.38988e-06
1.58109e-05
8.83313e-06
1.87327e-05
1.26471e-05
1.82692e-05
1.98913e-05
2.17461e-05
1.96268e-05
2.3001e-05
3.10662e-05
2.93845e-05
2.51525e-05
4.60738e-05
2.89315e-05
2.3699e-05
3.99864e-07
2.43572e-05
4.42619e-07
2.50636e-05
8.65663e-07
2.55201e-05
1.19241e-06
2.58091e-05
1.40304e-06
2.59913e-05
9.49341e-07
2.60282e-05
6.09358e-07
2.61917e-05
7.25176e-08
2.6288e-05
-5.2624e-07
2.63793e-05
-5.47075e-07
2.66858e-05
-9.36813e-07
2.69065e-05
-9.5348e-07
2.7128e-05
-7.58215e-07
2.75728e-05
-1.02589e-06
2.79928e-05
-9.14669e-07
2.84658e-05
-1.12764e-06
2.91486e-05
-1.46971e-06
2.98894e-05
-1.42175e-06
3.0632e-05
-2.15457e-06
3.13733e-05
-2.669e-06
3.21506e-05
-2.72327e-06
3.28573e-05
-3.81917e-06
3.34814e-05
-4.57839e-06
3.39886e-05
-4.9039e-06
3.4191e-05
-5.83766e-06
3.44722e-05
-6.47626e-06
3.42969e-05
-6.87698e-06
3.35896e-05
-7.27966e-06
3.31726e-05
-7.58164e-06
3.25968e-05
-7.73277e-06
3.14269e-05
-7.31521e-06
3.0186e-05
-7.08218e-06
2.93119e-05
-6.77272e-06
2.88659e-05
-6.38198e-06
2.84677e-05
-5.92591e-06
2.79129e-05
-5.18293e-06
2.74866e-05
-4.88928e-06
2.72069e-05
-4.5909e-06
2.6918e-05
-4.07603e-06
2.67453e-05
-3.89913e-06
2.65464e-05
-3.81344e-06
2.62949e-05
-3.77072e-06
2.60128e-05
-4.03568e-06
2.59345e-05
-4.1841e-06
2.59882e-05
-4.43085e-06
2.58827e-05
-4.81398e-06
2.58567e-05
-5.51147e-06
2.58237e-05
-6.07896e-06
2.56425e-05
-6.52903e-06
2.5577e-05
-7.34399e-06
2.54973e-05
-8.00489e-06
2.54469e-05
-8.79044e-06
2.54776e-05
-9.74126e-06
2.55627e-05
-1.07499e-05
2.57832e-05
-1.18585e-05
2.60447e-05
-1.28e-05
2.64644e-05
-1.3926e-05
2.71711e-05
-1.50313e-05
2.82755e-05
-1.60494e-05
2.9651e-05
-1.70092e-05
3.09347e-05
-1.73903e-05
3.2165e-05
-1.71424e-05
3.31148e-05
-1.65672e-05
3.36021e-05
-1.52471e-05
3.39176e-05
-1.30911e-05
3.39083e-05
-1.1181e-05
3.3644e-05
-8.80094e-06
3.32287e-05
-5.71891e-06
3.25772e-05
-3.45618e-06
3.17612e-05
-7.9299e-07
3.0681e-05
2.2155e-06
2.95771e-05
3.90509e-06
2.87953e-05
5.66837e-06
2.81169e-05
7.67614e-06
2.72494e-05
8.80969e-06
2.61391e-05
9.68573e-06
2.47129e-05
1.07251e-05
2.30986e-05
1.08315e-05
2.16769e-05
1.04447e-05
2.04021e-05
1.05817e-05
1.89709e-05
1.10619e-05
1.79034e-05
1.03574e-05
1.7725e-05
1.09154e-05
1.85496e-05
1.30589e-05
1.98684e-05
1.70211e-05
2.10825e-05
2.07724e-05
2.19184e-05
2.33694e-05
2.22947e-05
2.4283e-05
2.23417e-05
2.34936e-05
2.20369e-05
2.15107e-05
2.16866e-05
1.88238e-05
2.12517e-05
1.56753e-05
2.10405e-05
1.18833e-05
2.10796e-05
7.30786e-06
2.12403e-05
3.79997e-06
2.12796e-05
1.40015e-06
2.14333e-05
-1.67184e-06
2.17139e-05
-4.89992e-06
2.19266e-05
-8.26893e-06
2.18574e-05
-1.2027e-05
2.17799e-05
-1.45193e-05
2.14801e-05
-1.52738e-05
2.08013e-05
-1.57855e-05
2.03129e-05
-1.51258e-05
1.97675e-05
-1.34594e-05
1.90404e-05
-1.22996e-05