/*--------------------------------*- C++ -*----------------------------------*\
| =========                 |                                                 |
| \\      /  F ield         | OpenFOAM: The Open Source CFD Toolbox           |
|  \\    /   O peration     | Version:  2.4.0                                 |
|   \\  /    A nd           | Web:      www.OpenFOAM.org                      |
|    \\/     M anipulation  |                                                 |
\*---------------------------------------------------------------------------*/
FoamFile
{
    version     2.0;
    format      ascii;
    class       volScalarField;
    location    "0.16";
    object      pPrime2Mean;
}
// * * * * * * * * * * * * * * * * * * * * * * * * * * * * * * * * * * * * * //

dimensions      [0 4 -4 0 0 0 0];

internalField   nonuniform List<scalar> 
8800
(
4.03944e+06
3.93749e+06
3.82811e+06
3.71966e+06
3.61269e+06
3.50727e+06
3.40341e+06
3.30111e+06
3.20036e+06
3.10116e+06
3.0035e+06
2.90736e+06
2.81273e+06
2.71954e+06
2.6277e+06
2.53705e+06
2.44723e+06
2.35756e+06
2.26641e+06
2.16871e+06
4.03958e+06
3.93751e+06
3.8281e+06
3.71966e+06
3.61269e+06
3.50727e+06
3.40341e+06
3.30111e+06
3.20036e+06
3.10116e+06
3.0035e+06
2.90737e+06
2.81273e+06
2.71955e+06
2.62773e+06
2.5371e+06
2.44733e+06
2.35776e+06
2.26692e+06
2.17036e+06
4.03966e+06
3.9375e+06
3.82808e+06
3.71964e+06
3.61268e+06
3.50727e+06
3.40341e+06
3.30111e+06
3.20036e+06
3.10116e+06
3.0035e+06
2.90737e+06
2.81275e+06
2.71958e+06
2.62778e+06
2.53719e+06
2.44752e+06
2.35816e+06
2.26783e+06
2.17356e+06
4.03973e+06
3.9375e+06
3.82805e+06
3.71962e+06
3.61267e+06
3.50727e+06
3.40341e+06
3.30111e+06
3.20036e+06
3.10116e+06
3.00351e+06
2.90739e+06
2.81277e+06
2.71962e+06
2.62785e+06
2.53733e+06
2.44779e+06
2.35872e+06
2.26912e+06
2.1773e+06
4.03979e+06
3.9375e+06
3.82803e+06
3.7196e+06
3.61267e+06
3.50726e+06
3.40341e+06
3.30111e+06
3.20036e+06
3.10117e+06
3.00352e+06
2.9074e+06
2.8128e+06
2.71967e+06
2.62795e+06
2.53751e+06
2.44814e+06
2.35942e+06
2.27065e+06
2.18117e+06
4.03984e+06
3.9375e+06
3.82801e+06
3.71959e+06
3.61266e+06
3.50726e+06
3.40341e+06
3.30111e+06
3.20036e+06
3.10117e+06
3.00352e+06
2.90742e+06
2.81283e+06
2.71973e+06
2.62806e+06
2.53772e+06
2.44854e+06
2.36022e+06
2.27234e+06
2.18495e+06
4.03987e+06
3.93751e+06
3.828e+06
3.71958e+06
3.61265e+06
3.50726e+06
3.40341e+06
3.30111e+06
3.20036e+06
3.10117e+06
3.00353e+06
2.90744e+06
2.81287e+06
2.7198e+06
2.62819e+06
2.53796e+06
2.449e+06
2.3611e+06
2.27411e+06
2.18854e+06
4.03989e+06
3.93751e+06
3.82799e+06
3.71957e+06
3.61265e+06
3.50726e+06
3.40341e+06
3.30111e+06
3.20037e+06
3.10118e+06
3.00355e+06
2.90746e+06
2.81291e+06
2.71987e+06
2.62833e+06
2.53822e+06
2.44948e+06
2.36202e+06
2.27588e+06
2.19189e+06
4.03991e+06
3.93752e+06
3.82799e+06
3.71956e+06
3.61265e+06
3.50726e+06
3.40341e+06
3.30111e+06
3.20037e+06
3.10119e+06
3.00356e+06
2.90748e+06
2.81295e+06
2.71995e+06
2.62847e+06
2.53849e+06
2.44999e+06
2.36296e+06
2.27763e+06
2.19498e+06
4.03992e+06
3.93752e+06
3.82798e+06
3.71956e+06
3.61264e+06
3.50726e+06
3.40341e+06
3.30111e+06
3.20037e+06
3.10119e+06
3.00357e+06
2.90751e+06
2.813e+06
2.72004e+06
2.62863e+06
2.53877e+06
2.4505e+06
2.36389e+06
2.27929e+06
2.19779e+06
4.03992e+06
3.93752e+06
3.82799e+06
3.71956e+06
3.61264e+06
3.50726e+06
3.40341e+06
3.30111e+06
3.20038e+06
3.1012e+06
3.00359e+06
2.90753e+06
2.81304e+06
2.72012e+06
2.62878e+06
2.53905e+06
2.451e+06
2.36479e+06
2.28086e+06
2.20032e+06
4.03991e+06
3.93752e+06
3.82799e+06
3.71956e+06
3.61265e+06
3.50726e+06
3.40341e+06
3.30112e+06
3.20038e+06
3.10121e+06
3.0036e+06
2.90756e+06
2.81309e+06
2.7202e+06
2.62893e+06
2.53932e+06
2.45148e+06
2.36564e+06
2.28231e+06
2.20258e+06
4.03989e+06
3.93751e+06
3.82799e+06
3.71957e+06
3.61265e+06
3.50726e+06
3.40342e+06
3.30112e+06
3.20039e+06
3.10122e+06
3.00361e+06
2.90758e+06
2.81313e+06
2.72028e+06
2.62907e+06
2.53958e+06
2.45194e+06
2.36643e+06
2.28363e+06
2.20457e+06
4.03987e+06
3.93751e+06
3.828e+06
3.71958e+06
3.61266e+06
3.50727e+06
3.40342e+06
3.30112e+06
3.20039e+06
3.10122e+06
3.00363e+06
2.9076e+06
2.81317e+06
2.72036e+06
2.6292e+06
2.53981e+06
2.45236e+06
2.36715e+06
2.28479e+06
2.2063e+06
4.03983e+06
3.93751e+06
3.82801e+06
3.71959e+06
3.61266e+06
3.50727e+06
3.40342e+06
3.30113e+06
3.2004e+06
3.10123e+06
3.00364e+06
2.90763e+06
2.81321e+06
2.72042e+06
2.62932e+06
2.54003e+06
2.45273e+06
2.36778e+06
2.2858e+06
2.20778e+06
4.03979e+06
3.9375e+06
3.82803e+06
3.71961e+06
3.61267e+06
3.50727e+06
3.40342e+06
3.30113e+06
3.2004e+06
3.10124e+06
3.00365e+06
2.90764e+06
2.81324e+06
2.72048e+06
2.62943e+06
2.54021e+06
2.45305e+06
2.36832e+06
2.28665e+06
2.209e+06
4.03973e+06
3.9375e+06
3.82805e+06
3.71963e+06
3.61268e+06
3.50727e+06
3.40342e+06
3.30113e+06
3.20041e+06
3.10125e+06
3.00366e+06
2.90766e+06
2.81327e+06
2.72053e+06
2.62951e+06
2.54036e+06
2.45331e+06
2.36875e+06
2.28733e+06
2.20998e+06
4.03966e+06
3.9375e+06
3.82808e+06
3.71964e+06
3.61269e+06
3.50728e+06
3.40343e+06
3.30114e+06
3.20041e+06
3.10125e+06
3.00367e+06
2.90767e+06
2.81329e+06
2.72057e+06
2.62958e+06
2.54048e+06
2.45351e+06
2.36908e+06
2.28785e+06
2.2107e+06
4.03958e+06
3.93751e+06
3.82811e+06
3.71966e+06
3.61269e+06
3.50728e+06
3.40343e+06
3.30114e+06
3.20041e+06
3.10125e+06
3.00367e+06
2.90768e+06
2.8133e+06
2.72059e+06
2.62962e+06
2.54056e+06
2.45364e+06
2.3693e+06
2.28819e+06
2.21118e+06
4.03944e+06
3.93749e+06
3.82811e+06
3.71967e+06
3.6127e+06
3.50728e+06
3.40343e+06
3.30114e+06
3.20041e+06
3.10125e+06
3.00367e+06
2.90768e+06
2.81331e+06
2.7206e+06
2.62965e+06
2.5406e+06
2.45371e+06
2.36942e+06
2.28836e+06
2.21142e+06
2.08018e+06
2.05633e+06
2.03814e+06
2.02242e+06
2.00786e+06
1.994e+06
1.98064e+06
1.96764e+06
1.95494e+06
1.94245e+06
1.93015e+06
1.91799e+06
1.90597e+06
1.89406e+06
1.88224e+06
1.87052e+06
1.85886e+06
1.84727e+06
1.83574e+06
1.82427e+06
1.81284e+06
1.80145e+06
1.79011e+06
1.77881e+06
1.76756e+06
1.75634e+06
1.74517e+06
1.73403e+06
1.72294e+06
1.71189e+06
1.70088e+06
1.68991e+06
1.67898e+06
1.66809e+06
1.65724e+06
1.64643e+06
1.63567e+06
1.62494e+06
1.61426e+06
1.60361e+06
1.593e+06
1.58242e+06
1.57188e+06
1.56138e+06
1.55091e+06
1.54048e+06
1.53008e+06
1.51972e+06
1.5094e+06
1.49911e+06
1.48886e+06
1.47864e+06
1.46846e+06
1.45831e+06
1.44821e+06
1.43813e+06
1.42809e+06
1.41809e+06
1.40812e+06
1.39818e+06
1.38828e+06
1.37842e+06
1.36858e+06
1.35878e+06
1.34902e+06
1.33928e+06
1.32958e+06
1.31992e+06
1.31029e+06
1.3007e+06
1.29115e+06
1.28163e+06
1.27214e+06
1.2627e+06
1.25328e+06
1.24391e+06
1.23457e+06
1.22526e+06
1.216e+06
1.20676e+06
1.19757e+06
1.18841e+06
1.17929e+06
1.1702e+06
1.16115e+06
1.15213e+06
1.14315e+06
1.13421e+06
1.12529e+06
1.11642e+06
1.10757e+06
1.09876e+06
1.08998e+06
1.08124e+06
1.07252e+06
1.06385e+06
1.0552e+06
1.04659e+06
1.03802e+06
1.02948e+06
1.02098e+06
1.01251e+06
1.00409e+06
995701
987353
979043
970770
962533
954330
946161
938024
929920
921849
913812
905811
897844
889913
882016
874155
866328
858535
850777
843051
835359
827700
820074
812480
804922
797398
789910
782458
775042
767663
760322
753018
745751
738522
731328
724172
717052
709968
702919
695907
688930
681988
675083
668212
661377
654577
647812
641082
634388
627727
621102
614510
607953
601430
594941
588485
582064
575674
569319
562996
556706
550449
544225
538033
531875
525749
519657
513597
507572
501578
495621
489693
483801
477938
472111
466308
460541
454796
449084
443390
437727
432076
426453
420836
415239
409639
404046
398436
392813
387149
381436
375632
369708
363579
357137
350034
341717
2.09715e+06
2.07174e+06
2.05103e+06
2.0332e+06
2.01708e+06
2.00201e+06
1.98767e+06
1.97386e+06
1.96046e+06
1.94738e+06
1.93455e+06
1.92195e+06
1.90952e+06
1.89725e+06
1.88512e+06
1.8731e+06
1.86119e+06
1.84937e+06
1.83764e+06
1.82597e+06
1.81437e+06
1.80283e+06
1.79136e+06
1.77993e+06
1.76856e+06
1.75725e+06
1.74598e+06
1.73477e+06
1.7236e+06
1.71248e+06
1.70141e+06
1.69038e+06
1.6794e+06
1.66847e+06
1.65758e+06
1.64674e+06
1.63594e+06
1.62518e+06
1.61447e+06
1.60379e+06
1.59316e+06
1.58256e+06
1.57201e+06
1.56149e+06
1.55101e+06
1.54057e+06
1.53016e+06
1.51979e+06
1.50946e+06
1.49917e+06
1.48891e+06
1.47869e+06
1.46851e+06
1.45836e+06
1.44825e+06
1.43818e+06
1.42814e+06
1.41814e+06
1.40817e+06
1.39824e+06
1.38834e+06
1.37847e+06
1.36864e+06
1.35885e+06
1.34909e+06
1.33936e+06
1.32966e+06
1.32e+06
1.31038e+06
1.30079e+06
1.29124e+06
1.28172e+06
1.27224e+06
1.2628e+06
1.25339e+06
1.24402e+06
1.23468e+06
1.22538e+06
1.21612e+06
1.20689e+06
1.19769e+06
1.18854e+06
1.17941e+06
1.17033e+06
1.16127e+06
1.15226e+06
1.14327e+06
1.13433e+06
1.12541e+06
1.11653e+06
1.10768e+06
1.09887e+06
1.09009e+06
1.08134e+06
1.07262e+06
1.06394e+06
1.05529e+06
1.04668e+06
1.0381e+06
1.02955e+06
1.02105e+06
1.01258e+06
1.00415e+06
995761
987410
979097
970820
962578
954371
946196
938053
929943
921866
913824
905818
897848
889913
882014
874150
866321
858526
850766
843039
835345
827684
820056
812462
804901
797376
789886
782432
775015
767635
760291
752986
745718
738487
731293
724135
717014
709928
702879
695864
688886
681942
675035
668162
661325
654523
647755
641021
634322
627656
621026
614427
607864
601332
594835
588369
581937
575535
569168
562830
556526
550251
544009
537797
531617
525466
519348
513258
507202
501172
495176
489205
483268
477352
471469
465604
459770
453948
448155
442369
436608
430848
425104
419354
413608
407845
402068
396251
390392
384458
378429
372253
365875
359180
352015
344013
334509
2.10892e+06
2.08372e+06
2.06205e+06
2.04296e+06
2.02567e+06
2.0096e+06
1.9944e+06
1.97985e+06
1.9658e+06
1.95216e+06
1.93885e+06
1.92581e+06
1.91299e+06
1.90038e+06
1.88794e+06
1.87564e+06
1.86348e+06
1.85144e+06
1.83949e+06
1.82765e+06
1.81588e+06
1.80419e+06
1.79258e+06
1.78104e+06
1.76956e+06
1.75814e+06
1.74679e+06
1.73549e+06
1.72425e+06
1.71306e+06
1.70193e+06
1.69085e+06
1.67982e+06
1.66884e+06
1.65792e+06
1.64704e+06
1.6362e+06
1.62542e+06
1.61468e+06
1.60398e+06
1.59332e+06
1.58271e+06
1.57213e+06
1.5616e+06
1.55111e+06
1.54065e+06
1.53024e+06
1.51986e+06
1.50952e+06
1.49922e+06
1.48896e+06
1.47874e+06
1.46856e+06
1.45841e+06
1.4483e+06
1.43823e+06
1.42819e+06
1.41819e+06
1.40823e+06
1.3983e+06
1.3884e+06
1.37854e+06
1.36872e+06
1.35893e+06
1.34917e+06
1.33944e+06
1.32975e+06
1.3201e+06
1.31048e+06
1.30089e+06
1.29134e+06
1.28183e+06
1.27235e+06
1.26291e+06
1.2535e+06
1.24414e+06
1.2348e+06
1.2255e+06
1.21624e+06
1.20701e+06
1.19782e+06
1.18866e+06
1.17954e+06
1.17045e+06
1.16139e+06
1.15238e+06
1.14339e+06
1.13444e+06
1.12552e+06
1.11664e+06
1.10779e+06
1.09897e+06
1.09018e+06
1.08143e+06
1.07271e+06
1.06403e+06
1.05537e+06
1.04676e+06
1.03817e+06
1.02963e+06
1.02112e+06
1.01265e+06
1.00421e+06
995822
987467
979149
970868
962622
954408
946227
938077
929958
921875
913827
905816
897841
889903
882000
874134
866303
858506
850743
843015
835320
827658
820029
812433
804871
797344
789852
782397
774977
767596
760251
752945
745676
738444
731249
724091
716969
709882
702831
695815
688835
681890
674981
668106
661266
654460
647689
640951
634248
627577
620940
614336
607765
601226
594720
588244
581802
575390
569010
562659
556340
550049
543790
537557
531357
525182
519038
512919
506832
500767
494734
488720
482738
476771
470834
464907
459006
453113
447239
441367
435508
429644
423782
417907
412018
406101
400148
394140
388062
381883
375576
369077
362342
355222
347609
339195
329574
2.11788e+06
2.09334e+06
2.07141e+06
2.05162e+06
2.03352e+06
2.01666e+06
2.00074e+06
1.98554e+06
1.97092e+06
1.95676e+06
1.94299e+06
1.92954e+06
1.91636e+06
1.90342e+06
1.89068e+06
1.87811e+06
1.86571e+06
1.85345e+06
1.8413e+06
1.82928e+06
1.81735e+06
1.80552e+06
1.79377e+06
1.78211e+06
1.77052e+06
1.75901e+06
1.74757e+06
1.73619e+06
1.72488e+06
1.71363e+06
1.70244e+06
1.69131e+06
1.68023e+06
1.66921e+06
1.65824e+06
1.64733e+06
1.63646e+06
1.62565e+06
1.61488e+06
1.60416e+06
1.59348e+06
1.58285e+06
1.57226e+06
1.56171e+06
1.5512e+06
1.54074e+06
1.53032e+06
1.51993e+06
1.50959e+06
1.49929e+06
1.48903e+06
1.4788e+06
1.46862e+06
1.45847e+06
1.44836e+06
1.43829e+06
1.42826e+06
1.41826e+06
1.4083e+06
1.39837e+06
1.38848e+06
1.37862e+06
1.3688e+06
1.35901e+06
1.34926e+06
1.33953e+06
1.32985e+06
1.32019e+06
1.31057e+06
1.30099e+06
1.29144e+06
1.28193e+06
1.27246e+06
1.26302e+06
1.25362e+06
1.24425e+06
1.23492e+06
1.22562e+06
1.21636e+06
1.20713e+06
1.19794e+06
1.18878e+06
1.17965e+06
1.17056e+06
1.1615e+06
1.15248e+06
1.14349e+06
1.13454e+06
1.12562e+06
1.11673e+06
1.10788e+06
1.09906e+06
1.09027e+06
1.08151e+06
1.07279e+06
1.0641e+06
1.05544e+06
1.04682e+06
1.03824e+06
1.02969e+06
1.02118e+06
1.01271e+06
1.00427e+06
995878
987520
979199
970914
962662
954442
946253
938095
929968
921877
913823
905806
897825
889882
881975
874106
866271
858473
850709
842980
835284
827621
819991
812394
804831
797302
789809
782352
774931
767548
760203
752895
745625
738393
731198
724039
716917
709829
702777
695760
688779
681832
674921
668043
661200
654390
647615
640873
634165
627488
620846
614235
607657
601110
594597
588112
581661
575238
568847
562483
556150
549844
543568
537316
531095
524897
518728
512581
506464
500364
494295
488240
482214
476198
470207
464223
458257
452294
446342
440388
434434
428471
422497
416501
410478
404414
398301
392113
385843
379442
372904
366139
359129
351727
343854
335332
325943
2.1251e+06
2.10124e+06
2.07936e+06
2.05924e+06
2.0406e+06
2.02315e+06
2.00664e+06
1.99089e+06
1.97576e+06
1.96114e+06
1.94695e+06
1.93311e+06
1.91959e+06
1.90634e+06
1.89332e+06
1.8805e+06
1.86786e+06
1.85539e+06
1.84306e+06
1.83086e+06
1.81877e+06
1.8068e+06
1.79493e+06
1.78315e+06
1.77146e+06
1.75986e+06
1.74833e+06
1.73688e+06
1.7255e+06
1.71419e+06
1.70294e+06
1.69176e+06
1.68063e+06
1.66957e+06
1.65857e+06
1.64762e+06
1.63672e+06
1.62588e+06
1.61509e+06
1.60434e+06
1.59364e+06
1.58299e+06
1.57239e+06
1.56183e+06
1.55131e+06
1.54084e+06
1.53041e+06
1.52002e+06
1.50967e+06
1.49936e+06
1.4891e+06
1.47887e+06
1.46869e+06
1.45854e+06
1.44843e+06
1.43836e+06
1.42833e+06
1.41833e+06
1.40837e+06
1.39845e+06
1.38856e+06
1.3787e+06
1.36888e+06
1.3591e+06
1.34934e+06
1.33963e+06
1.32994e+06
1.32029e+06
1.31067e+06
1.30109e+06
1.29155e+06
1.28204e+06
1.27257e+06
1.26313e+06
1.25373e+06
1.24436e+06
1.23503e+06
1.22573e+06
1.21646e+06
1.20723e+06
1.19804e+06
1.18887e+06
1.17975e+06
1.17065e+06
1.16159e+06
1.15257e+06
1.14358e+06
1.13462e+06
1.1257e+06
1.11681e+06
1.10795e+06
1.09912e+06
1.09033e+06
1.08157e+06
1.07285e+06
1.06416e+06
1.0555e+06
1.04688e+06
1.03829e+06
1.02975e+06
1.02123e+06
1.01276e+06
1.00432e+06
995924
987564
979242
970953
962696
954471
946275
938108
929974
921875
913813
905789
897801
889852
881939
874066
866228
858428
850664
842934
835237
827574
819942
812345
804781
797252
789757
782299
774877
767493
760147
752839
745569
738336
731141
723981
716859
709771
702718
695700
688717
681768
674854
667973
661127
654313
647534
640786
634073
627392
620744
614126
607542
600988
594467
587974
581513
575080
568678
562302
555956
549635
543343
537073
530832
524612
518419
512245
506098
499967
493862
487768
481698
475636
469593
463553
457525
451495
445469
439433
433392
427332
421254
415142
408998
402795
396538
390189
383749
377164
370426
363465
356240
348671
340661
332164
323042
2.13117e+06
2.10789e+06
2.08618e+06
2.06591e+06
2.04693e+06
2.02905e+06
2.01208e+06
1.99587e+06
1.9803e+06
1.96527e+06
1.9507e+06
1.93652e+06
1.92268e+06
1.90913e+06
1.89585e+06
1.88279e+06
1.86993e+06
1.85726e+06
1.84475e+06
1.83238e+06
1.82015e+06
1.80805e+06
1.79605e+06
1.78416e+06
1.77238e+06
1.76068e+06
1.74907e+06
1.73755e+06
1.7261e+06
1.71473e+06
1.70343e+06
1.6922e+06
1.68103e+06
1.66993e+06
1.65889e+06
1.6479e+06
1.63698e+06
1.62611e+06
1.61529e+06
1.60452e+06
1.59381e+06
1.58314e+06
1.57252e+06
1.56195e+06
1.55142e+06
1.54094e+06
1.5305e+06
1.52011e+06
1.50976e+06
1.49945e+06
1.48918e+06
1.47895e+06
1.46876e+06
1.45862e+06
1.44851e+06
1.43844e+06
1.4284e+06
1.41841e+06
1.40845e+06
1.39853e+06
1.38864e+06
1.37879e+06
1.36897e+06
1.35918e+06
1.34943e+06
1.33972e+06
1.33003e+06
1.32038e+06
1.31077e+06
1.30118e+06
1.29164e+06
1.28213e+06
1.27266e+06
1.26322e+06
1.25381e+06
1.24445e+06
1.23511e+06
1.22581e+06
1.21654e+06
1.20731e+06
1.19811e+06
1.18895e+06
1.17982e+06
1.17072e+06
1.16166e+06
1.15263e+06
1.14364e+06
1.13468e+06
1.12575e+06
1.11686e+06
1.108e+06
1.09917e+06
1.09038e+06
1.08162e+06
1.07289e+06
1.0642e+06
1.05554e+06
1.04692e+06
1.03834e+06
1.02979e+06
1.02127e+06
1.01279e+06
1.00436e+06
995961
987600
979276
970984
962723
954493
946290
938116
929974
921867
913798
905765
897770
889813
881895
874017
866177
858374
850609
842877
835180
827517
819885
812289
804723
797194
789698
782239
774818
767434
760087
752778
745507
738273
731078
723918
716795
709706
702654
695634
688650
681699
674781
667897
661047
654229
647446
640694
633976
627290
620637
614014
607424
600863
594334
587833
581364
574920
568508
562119
555760
549424
543116
536829
530569
524328
518112
511912
505737
499575
493435
487305
481193
475087
468994
462901
456814
450721
444624
438513
432388
426238
420062
413845
407585
401263
394870
388387
381790
375059
368150
361039
353661
345989
337927
329492
320608
2.1364e+06
2.11359e+06
2.09206e+06
2.07175e+06
2.05256e+06
2.03437e+06
2.01705e+06
2.00047e+06
1.98452e+06
1.96913e+06
1.95422e+06
1.93973e+06
1.9256e+06
1.91179e+06
1.89826e+06
1.88497e+06
1.87191e+06
1.85905e+06
1.84637e+06
1.83385e+06
1.82148e+06
1.80925e+06
1.79714e+06
1.78514e+06
1.77326e+06
1.76148e+06
1.74979e+06
1.7382e+06
1.72669e+06
1.71526e+06
1.70391e+06
1.69263e+06
1.68142e+06
1.67028e+06
1.6592e+06
1.64819e+06
1.63723e+06
1.62634e+06
1.6155e+06
1.60471e+06
1.59398e+06
1.58329e+06
1.57266e+06
1.56207e+06
1.55154e+06
1.54105e+06
1.5306e+06
1.5202e+06
1.50985e+06
1.49953e+06
1.48926e+06
1.47903e+06
1.46885e+06
1.4587e+06
1.44859e+06
1.43852e+06
1.42848e+06
1.41849e+06
1.40853e+06
1.39861e+06
1.38872e+06
1.37887e+06
1.36905e+06
1.35926e+06
1.34951e+06
1.33979e+06
1.33011e+06
1.32046e+06
1.31084e+06
1.30126e+06
1.29172e+06
1.2822e+06
1.27273e+06
1.26329e+06
1.25388e+06
1.24451e+06
1.23517e+06
1.22587e+06
1.2166e+06
1.20737e+06
1.19817e+06
1.189e+06
1.17987e+06
1.17077e+06
1.1617e+06
1.15267e+06
1.14367e+06
1.13471e+06
1.12579e+06
1.11689e+06
1.10803e+06
1.0992e+06
1.09041e+06
1.08164e+06
1.07292e+06
1.06422e+06
1.05557e+06
1.04695e+06
1.03836e+06
1.02981e+06
1.0213e+06
1.01282e+06
1.00438e+06
995984
987625
979301
971008
962744
954508
946299
938116
929966
921851
913773
905733
897730
889767
881843
873961
866117
858312
850545
842813
835116
827452
819821
812225
804659
797129
789635
782176
774756
767372
760025
752715
745443
738208
731012
723851
716729
709639
702586
695565
688579
681625
674706
667818
660965
654143
647356
640600
633878
627187
620529
613900
607304
600736
594201
587691
581213
574759
568336
561935
555564
549213
542891
536585
530308
524045
517808
511583
505381
499189
493016
486852
480701
474554
468413
462272
456128
449977
443813
437633
431430
425199
418930
412620
406252
399824
393309
386706
379978
373116
366076
358845
351366
343628
335563
327199
318511
2.14096e+06
2.11853e+06
2.09718e+06
2.07687e+06
2.05756e+06
2.03915e+06
2.02155e+06
2.00467e+06
1.98841e+06
1.97272e+06
1.95751e+06
1.94274e+06
1.92835e+06
1.91429e+06
1.90054e+06
1.88705e+06
1.8738e+06
1.86076e+06
1.84792e+06
1.83526e+06
1.82275e+06
1.8104e+06
1.79818e+06
1.78609e+06
1.77411e+06
1.76225e+06
1.75049e+06
1.73883e+06
1.72726e+06
1.71577e+06
1.70437e+06
1.69305e+06
1.6818e+06
1.67062e+06
1.65951e+06
1.64847e+06
1.63749e+06
1.62656e+06
1.6157e+06
1.6049e+06
1.59415e+06
1.58345e+06
1.5728e+06
1.56221e+06
1.55166e+06
1.54116e+06
1.53071e+06
1.52031e+06
1.50995e+06
1.49963e+06
1.48935e+06
1.47912e+06
1.46893e+06
1.45878e+06
1.44867e+06
1.4386e+06
1.42856e+06
1.41856e+06
1.4086e+06
1.39868e+06
1.38879e+06
1.37894e+06
1.36912e+06
1.35933e+06
1.34958e+06
1.33986e+06
1.33017e+06
1.32052e+06
1.3109e+06
1.30132e+06
1.29177e+06
1.28225e+06
1.27278e+06
1.26333e+06
1.25393e+06
1.24455e+06
1.23521e+06
1.22591e+06
1.21663e+06
1.2074e+06
1.19819e+06
1.18902e+06
1.17988e+06
1.17078e+06
1.16171e+06
1.15268e+06
1.14368e+06
1.13472e+06
1.12579e+06
1.1169e+06
1.10803e+06
1.0992e+06
1.09041e+06
1.08165e+06
1.07292e+06
1.06423e+06
1.05557e+06
1.04695e+06
1.03837e+06
1.02982e+06
1.0213e+06
1.01283e+06
1.00439e+06
995994
987637
979313
971020
962755
954517
946301
938111
929952
921828
913741
905694
897684
889715
881785
873898
866051
858243
850475
842741
835045
827381
819752
812156
804592
797062
789569
782111
774693
767309
759962
752651
745379
738143
730947
723785
716662
709572
702519
695496
688509
681552
674630
667739
660883
654058
647267
640507
633781
627084
620422
613787
607186
600611
594068
587550
581064
574600
568167
561754
555371
549005
542669
536346
530052
523768
517511
511262
505035
498815
492613
486414
480227
474040
467857
461668
455474
449267
443043
436798
430523
424217
417865
411466
405004
398474
391858
385144
378309
371336
364197
356874
349329
341554
333508
325218
316685
2.14497e+06
2.12283e+06
2.10165e+06
2.08137e+06
2.06198e+06
2.04342e+06
2.0256e+06
2.00848e+06
1.99197e+06
1.97601e+06
1.96055e+06
1.94553e+06
1.93091e+06
1.91663e+06
1.90267e+06
1.88899e+06
1.87557e+06
1.86237e+06
1.84938e+06
1.83658e+06
1.82396e+06
1.81149e+06
1.79917e+06
1.78698e+06
1.77493e+06
1.76299e+06
1.75116e+06
1.73943e+06
1.7278e+06
1.71627e+06
1.70482e+06
1.69345e+06
1.68216e+06
1.67095e+06
1.65981e+06
1.64874e+06
1.63773e+06
1.62679e+06
1.61591e+06
1.60508e+06
1.59432e+06
1.58361e+06
1.57295e+06
1.56234e+06
1.55179e+06
1.54128e+06
1.53083e+06
1.52041e+06
1.51005e+06
1.49973e+06
1.48945e+06
1.47921e+06
1.46902e+06
1.45886e+06
1.44874e+06
1.43867e+06
1.42863e+06
1.41862e+06
1.40866e+06
1.39873e+06
1.38884e+06
1.37898e+06
1.36916e+06
1.35937e+06
1.34962e+06
1.33989e+06
1.3302e+06
1.32055e+06
1.31093e+06
1.30134e+06
1.29179e+06
1.28228e+06
1.2728e+06
1.26335e+06
1.25394e+06
1.24457e+06
1.23522e+06
1.22591e+06
1.21664e+06
1.2074e+06
1.19819e+06
1.18901e+06
1.17987e+06
1.17077e+06
1.1617e+06
1.15267e+06
1.14367e+06
1.1347e+06
1.12578e+06
1.11688e+06
1.10801e+06
1.09918e+06
1.09039e+06
1.08163e+06
1.0729e+06
1.06421e+06
1.05556e+06
1.04694e+06
1.03836e+06
1.02981e+06
1.0213e+06
1.01282e+06
1.00438e+06
995988
987633
979309
971016
962751
954510
946291
938096
929930
921798
913704
905650
897633
889657
881722
873831
865980
858170
850400
842666
834970
827307
819680
812085
804522
796993
789504
782047
774632
767246
759901
752588
745318
738079
730886
723721
716601
709508
702454
695429
688439
681480
674556
667661
660802
653973
647180
640415
633687
626984
620319
613677
607072
600488
593941
587412
580921
574445
568005
561578
555186
548804
542457
536114
529807
523501
517227
510952
504705
498455
492226
485994
479776
473549
467329
461094
454853
448594
442314
436009
429669
423292
416865
410384
403839
397217
390514
383705
376781
369721
362502
355112
347523
339732
331716
323497
315089
2.14849e+06
2.1266e+06
2.10556e+06
2.08532e+06
2.06589e+06
2.04721e+06
2.02923e+06
2.01191e+06
1.99519e+06
1.97902e+06
1.96333e+06
1.9481e+06
1.93327e+06
1.9188e+06
1.90465e+06
1.8908e+06
1.87722e+06
1.86388e+06
1.85075e+06
1.83783e+06
1.82509e+06
1.81251e+06
1.8001e+06
1.78783e+06
1.77569e+06
1.76368e+06
1.75178e+06
1.74e+06
1.72832e+06
1.71673e+06
1.70524e+06
1.69384e+06
1.68251e+06
1.67127e+06
1.6601e+06
1.649e+06
1.63797e+06
1.62701e+06
1.61611e+06
1.60527e+06
1.59449e+06
1.58376e+06
1.5731e+06
1.56248e+06
1.55192e+06
1.5414e+06
1.53094e+06
1.52052e+06
1.51015e+06
1.49982e+06
1.48954e+06
1.47929e+06
1.46909e+06
1.45893e+06
1.44881e+06
1.43872e+06
1.42868e+06
1.41867e+06
1.4087e+06
1.39877e+06
1.38887e+06
1.37901e+06
1.36918e+06
1.35939e+06
1.34963e+06
1.3399e+06
1.33021e+06
1.32055e+06
1.31093e+06
1.30134e+06
1.29179e+06
1.28227e+06
1.27279e+06
1.26334e+06
1.25393e+06
1.24455e+06
1.2352e+06
1.22589e+06
1.21661e+06
1.20737e+06
1.19816e+06
1.18898e+06
1.17984e+06
1.17073e+06
1.16166e+06
1.15263e+06
1.14363e+06
1.13467e+06
1.12574e+06
1.11684e+06
1.10797e+06
1.09914e+06
1.09034e+06
1.08159e+06
1.07286e+06
1.06417e+06
1.05552e+06
1.04691e+06
1.03833e+06
1.02978e+06
1.02127e+06
1.0128e+06
1.00436e+06
995968
987615
979292
970999
962732
954490
946268
938069
929899
921761
913661
905599
897577
889596
881656
873760
865907
858096
850324
842590
834895
827233
819607
812013
804454
796925
789441
781983
774573
767185
759843
752528
745263
738021
730832
723663
716546
709448
702396
695365
688376
681411
674486
667587
660728
653893
647100
640328
633599
626888
620222
613570
606964
600369
593819
587279
580784
574294
567849
561406
555009
548608
542256
535892
529576
523246
516959
510658
504392
498114
491861
485596
479349
473083
466831
460549
454270
447959
441630
435269
428870
422428
415935
409380
402761
396060
389283
382397
375396
368265
360982
353544
345929
338135
330152
321999
313692
2.15159e+06
2.12989e+06
2.10897e+06
2.08878e+06
2.06932e+06
2.05056e+06
2.03246e+06
2.01498e+06
1.99809e+06
1.98173e+06
1.96586e+06
1.95044e+06
1.93542e+06
1.92078e+06
1.90647e+06
1.89247e+06
1.87874e+06
1.86526e+06
1.85202e+06
1.83898e+06
1.82613e+06
1.81346e+06
1.80096e+06
1.78861e+06
1.7764e+06
1.76432e+06
1.75237e+06
1.74053e+06
1.7288e+06
1.71717e+06
1.70564e+06
1.6942e+06
1.68284e+06
1.67157e+06
1.66037e+06
1.64925e+06
1.6382e+06
1.62722e+06
1.6163e+06
1.60545e+06
1.59465e+06
1.58392e+06
1.57324e+06
1.56261e+06
1.55204e+06
1.54152e+06
1.53105e+06
1.52062e+06
1.51024e+06
1.49991e+06
1.48961e+06
1.47936e+06
1.46915e+06
1.45899e+06
1.44885e+06
1.43876e+06
1.42871e+06
1.4187e+06
1.40872e+06
1.39878e+06
1.38888e+06
1.37901e+06
1.36918e+06
1.35938e+06
1.34962e+06
1.33989e+06
1.33019e+06
1.32053e+06
1.3109e+06
1.30131e+06
1.29176e+06
1.28224e+06
1.27275e+06
1.2633e+06
1.25389e+06
1.24451e+06
1.23516e+06
1.22584e+06
1.21656e+06
1.20731e+06
1.1981e+06
1.18892e+06
1.17978e+06
1.17067e+06
1.1616e+06
1.15257e+06
1.14357e+06
1.1346e+06
1.12567e+06
1.11677e+06
1.10791e+06
1.09908e+06
1.09028e+06
1.08152e+06
1.0728e+06
1.06412e+06
1.05547e+06
1.04686e+06
1.03829e+06
1.02974e+06
1.02123e+06
1.01276e+06
1.00432e+06
995931
987579
979257
970965
962698
954455
946232
938031
929859
921715
913611
905543
897516
889529
881588
873688
865835
858021
850251
842516
834823
827160
819538
811943
804389
796862
789382
781924
774519
767128
759791
752473
745213
737969
730785
723612
716498
709393
702343
695304
688318
681345
674423
667516
660658
653817
647024
640245
633516
626797
620130
613469
606862
600256
593706
587152
580656
574151
567705
561245
554844
548425
542066
535683
529358
523006
516707
510381
504100
497794
491521
485224
478951
472648
466364
460040
453725
447366
440995
434579
428130
421630
415078
408460
401774
395010
388168
381215
374154
366964
359634
352161
344531
336742
328791
320696
312472
2.1543e+06
2.13276e+06
2.11194e+06
2.09179e+06
2.07232e+06
2.0535e+06
2.0353e+06
2.0177e+06
2.00066e+06
1.98415e+06
1.96812e+06
1.95254e+06
1.93737e+06
1.92258e+06
1.90812e+06
1.89398e+06
1.88012e+06
1.86653e+06
1.85317e+06
1.84003e+06
1.82709e+06
1.81433e+06
1.80175e+06
1.78933e+06
1.77705e+06
1.76492e+06
1.75291e+06
1.74102e+06
1.72925e+06
1.71758e+06
1.70601e+06
1.69453e+06
1.68315e+06
1.67184e+06
1.66062e+06
1.64948e+06
1.63841e+06
1.62741e+06
1.61648e+06
1.60561e+06
1.59481e+06
1.58406e+06
1.57337e+06
1.56274e+06
1.55216e+06
1.54162e+06
1.53114e+06
1.52071e+06
1.51032e+06
1.49997e+06
1.48967e+06
1.47942e+06
1.4692e+06
1.45902e+06
1.44888e+06
1.43878e+06
1.42872e+06
1.4187e+06
1.40872e+06
1.39877e+06
1.38886e+06
1.37899e+06
1.36916e+06
1.35935e+06
1.34959e+06
1.33985e+06
1.33015e+06
1.32049e+06
1.31086e+06
1.30127e+06
1.29171e+06
1.28219e+06
1.2727e+06
1.26325e+06
1.25383e+06
1.24445e+06
1.2351e+06
1.22578e+06
1.21649e+06
1.20724e+06
1.19803e+06
1.18885e+06
1.1797e+06
1.17059e+06
1.16152e+06
1.15249e+06
1.14349e+06
1.13452e+06
1.12559e+06
1.11669e+06
1.10783e+06
1.099e+06
1.0902e+06
1.08145e+06
1.07273e+06
1.06405e+06
1.05541e+06
1.0468e+06
1.03823e+06
1.02969e+06
1.02118e+06
1.0127e+06
1.00427e+06
995878
987527
979206
970914
962649
954405
946183
937983
929810
921664
913557
905484
897456
889464
881522
873619
865767
857950
850183
842447
834757
827093
819474
811879
804329
796805
789328
781872
774469
767077
759745
752427
745169
737926
730742
723568
716454
709345
702294
695250
688263
681286
674364
667452
660594
653747
646955
640170
633441
626716
620049
613380
606773
600158
593606
587043
580542
574027
567573
561104
554693
548263
541890
535496
529152
522789
516469
510130
503823
497501
491199
484882
478577
472248
465929
459572
453220
446820
440410
433947
427454
420903
414299
407628
400882
394065
387171
380160
373051
365814
358449
350950
343312
335532
327610
319565
311411
2.15665e+06
2.13525e+06
2.11451e+06
2.0944e+06
2.07492e+06
2.05605e+06
2.03777e+06
2.02007e+06
2.00292e+06
1.98628e+06
1.97012e+06
1.95441e+06
1.9391e+06
1.92418e+06
1.9096e+06
1.89534e+06
1.88137e+06
1.86766e+06
1.8542e+06
1.84097e+06
1.82795e+06
1.81512e+06
1.80247e+06
1.78998e+06
1.77764e+06
1.76545e+06
1.7534e+06
1.74146e+06
1.72965e+06
1.71794e+06
1.70634e+06
1.69484e+06
1.68342e+06
1.6721e+06
1.66086e+06
1.64969e+06
1.63861e+06
1.62759e+06
1.61665e+06
1.60576e+06
1.59495e+06
1.58419e+06
1.57349e+06
1.56284e+06
1.55225e+06
1.54171e+06
1.53122e+06
1.52077e+06
1.51038e+06
1.50002e+06
1.48971e+06
1.47945e+06
1.46922e+06
1.45903e+06
1.44889e+06
1.43878e+06
1.42871e+06
1.41868e+06
1.40869e+06
1.39874e+06
1.38883e+06
1.37895e+06
1.36911e+06
1.35931e+06
1.34954e+06
1.3398e+06
1.3301e+06
1.32043e+06
1.3108e+06
1.30121e+06
1.29165e+06
1.28212e+06
1.27263e+06
1.26318e+06
1.25376e+06
1.24437e+06
1.23502e+06
1.2257e+06
1.21641e+06
1.20716e+06
1.19794e+06
1.18876e+06
1.17961e+06
1.1705e+06
1.16143e+06
1.15239e+06
1.14339e+06
1.13442e+06
1.12549e+06
1.11659e+06
1.10773e+06
1.0989e+06
1.09011e+06
1.08136e+06
1.07264e+06
1.06397e+06
1.05533e+06
1.04673e+06
1.03816e+06
1.02962e+06
1.02111e+06
1.01264e+06
1.00421e+06
995812
987463
979140
970850
962585
954342
946122
937923
929751
921606
913499
905423
897395
889401
881460
873554
865703
857886
850120
842383
834696
827032
819417
811822
804277
796754
789280
781827
774425
767035
759704
752387
745130
737889
730702
723530
716412
709302
702250
695203
688215
681234
674310
667397
660538