/*--------------------------------*- C++ -*----------------------------------*\
| =========                 |                                                 |
| \\      /  F ield         | OpenFOAM: The Open Source CFD Toolbox           |
|  \\    /   O peration     | Version:  2.4.0                                 |
|   \\  /    A nd           | Web:      www.OpenFOAM.org                      |
|    \\/     M anipulation  |                                                 |
\*---------------------------------------------------------------------------*/
FoamFile
{
    version     2.0;
    format      ascii;
    class       volVectorField;
    location    "0.16";
    object      U_0;
}
// * * * * * * * * * * * * * * * * * * * * * * * * * * * * * * * * * * * * * //

dimensions      [0 1 -1 0 0 0 0];

internalField   nonuniform List<vector> 
8800
(
(8.0913 0.388087 0)
(5.44938 0.242317 0)
(3.91051 0.0430716 0)
(3.15805 -0.0152377 0)
(2.80138 -0.0187947 0)
(2.59749 -0.0101828 0)
(2.484 -0.00628132 0)
(2.37906 -0.00222184 0)
(2.3222 -0.0015117 0)
(2.24056 0.000564396 0)
(2.22386 -0.00254817 0)
(2.15233 0.00199625 0)
(2.14851 -0.000620266 0)
(2.076 0.00143878 0)
(2.06977 0.00168942 0)
(1.99578 0.00220928 0)
(1.95151 0.00424053 0)
(1.89255 0.00371876 0)
(1.72948 0.013436 0)
(1.72153 0.0110081 0)
(10.0818 0.838962 0)
(9.66084 0.866952 0)
(8.86463 0.507172 0)
(8.08834 0.261862 0)
(7.49195 0.136959 0)
(7.00417 0.0845133 0)
(6.70147 0.0522389 0)
(6.39371 0.0410082 0)
(6.23555 0.0304072 0)
(6.0011 0.027006 0)
(5.95668 0.0137793 0)
(5.73531 0.0238396 0)
(5.75482 0.0134068 0)
(5.54649 0.020576 0)
(5.55677 0.0174845 0)
(5.39174 0.0286404 0)
(5.30586 0.0250978 0)
(5.20868 0.0465565 0)
(4.94791 0.0627545 0)
(4.87797 0.078459 0)
(10.0548 0.632571 0)
(10.6696 0.861741 0)
(10.8528 0.602578 0)
(10.6999 0.373223 0)
(10.4561 0.25446 0)
(10.081 0.200094 0)
(9.8473 0.149716 0)
(9.4838 0.12403 0)
(9.33595 0.0962457 0)
(8.99539 0.0794399 0)
(8.98 0.0518485 0)
(8.62988 0.0630807 0)
(8.6995 0.0379609 0)
(8.38127 0.0529074 0)
(8.42588 0.0380946 0)
(8.18656 0.0626938 0)
(8.12257 0.0537956 0)
(7.95369 0.0919901 0)
(7.72485 0.13422 0)
(7.5739 0.150224 0)
(9.9809 0.458488 0)
(10.5936 0.70332 0)
(11.146 0.548815 0)
(11.3821 0.348824 0)
(11.5554 0.261124 0)
(11.454 0.232537 0)
(11.5086 0.195503 0)
(11.279 0.176562 0)
(11.3364 0.152332 0)
(11.0225 0.129169 0)
(11.1502 0.0956866 0)
(10.7777 0.111302 0)
(10.942 0.0688412 0)
(10.5924 0.0955846 0)
(10.7014 0.0645693 0)
(10.4236 0.10503 0)
(10.438 0.0831936 0)
(10.1962 0.14929 0)
(10.0735 0.18859 0)
(9.8704 0.302184 0)
(10.0151 0.347676 0)
(10.4301 0.563601 0)
(11.0333 0.470361 0)
(11.3044 0.289355 0)
(11.6548 0.206388 0)
(11.6644 0.196607 0)
(11.9052 0.172677 0)
(11.7873 0.169904 0)
(12.0363 0.153019 0)
(11.8444 0.138352 0)
(12.0955 0.0954162 0)
(11.8555 0.135052 0)
(12.0956 0.0701069 0)
(11.8682 0.124828 0)
(12.0323 0.0719337 0)
(11.846 0.13469 0)
(11.9431 0.100886 0)
(11.7524 0.197563 0)
(11.703 0.210273 0)
(11.6076 0.370638 0)
(10.0232 0.255083 0)
(10.3383 0.445217 0)
(10.8887 0.390196 0)
(11.2022 0.240544 0)
(11.5133 0.164289 0)
(11.6066 0.152464 0)
(11.8208 0.141075 0)
(11.8094 0.135627 0)
(12.0177 0.126458 0)
(11.985 0.121276 0)
(12.172 0.0780098 0)
(12.1255 0.126267 0)
(12.3012 0.0524144 0)
(12.2623 0.115638 0)
(12.3926 0.0704683 0)
(12.3504 0.121458 0)
(12.4784 0.110023 0)
(12.4256 0.202778 0)
(12.4169 0.213133 0)
(12.4833 0.266519 0)
(10.0064 0.182544 0)
(10.2914 0.338468 0)
(10.757 0.302016 0)
(11.1024 0.201916 0)
(11.3901 0.121211 0)
(11.5616 0.113757 0)
(11.7007 0.101359 0)
(11.7348 0.115511 0)
(11.8835 0.0932237 0)
(11.938 0.101325 0)
(12.0707 0.0456017 0)
(12.1038 0.112244 0)
(12.2109 0.0310069 0)
(12.2591 0.097679 0)
(12.3575 0.0617908 0)
(12.3794 0.0944287 0)
(12.4955 0.101581 0)
(12.5196 0.182353 0)
(12.5653 0.181982 0)
(12.6805 0.186468 0)
(10.0303 0.120659 0)
(10.2495 0.23796 0)
(10.6784 0.21666 0)
(11.0474 0.150467 0)
(11.3079 0.079732 0)
(11.5091 0.0822717 0)
(11.6037 0.0793681 0)
(11.707 0.0779966 0)
(11.8077 0.0630414 0)
(11.8817 0.0726578 0)
(11.9509 0.0322897 0)
(12.0605 0.0896842 0)
(12.1286 0.0179662 0)
(12.2128 0.0680563 0)
(12.2583 0.0556658 0)
(12.3368 0.0668518 0)
(12.3998 0.0853188 0)
(12.4968 0.152086 0)
(12.5603 0.123355 0)
(12.5515 0.147748 0)
(9.97645 0.0723332 0)
(10.2569 0.134737 0)
(10.6019 0.131477 0)
(11.0176 0.0916675 0)
(11.2216 0.0503935 0)
(11.4955 0.0471377 0)
(11.5669 0.0423203 0)
(11.6727 0.0447653 0)
(11.7627 0.0439612 0)
(11.8303 0.0504896 0)
(11.9089 0.00527028 0)
(12.035 0.0599914 0)
(12.084 0.00960939 0)
(12.1628 0.0500649 0)
(12.2352 0.0460932 0)
(12.3087 0.0429611 0)
(12.358 0.0547162 0)
(12.4678 0.11788 0)
(12.5027 0.103587 0)
(12.3742 0.148237 0)
(10.0211 0.0286736 0)
(10.2022 0.0366021 0)
(10.6293 0.046609 0)
(10.9426 0.0387034 0)
(11.246 0.0057555 0)
(11.4501 0.0174065 0)
(11.5351 0.0210174 0)
(11.6295 0.0115817 0)
(11.7902 0.00999188 0)
(11.7747 0.0270354 0)
(11.9088 -0.0147831 0)
(11.9833 0.0411292 0)
(12.0651 -0.00218539 0)
(12.1339 0.020882 0)
(12.2188 0.0311254 0)
(12.3007 0.0199666 0)
(12.3134 0.0382575 0)
(12.4451 0.0842909 0)
(12.4624 0.0871867 0)
(12.4219 0.100246 0)
(9.99112 -0.0129641 0)
(10.2412 -0.0647331 0)
(10.6002 -0.0372946 0)
(10.9604 -0.0207659 0)
(11.2446 -0.0284093 0)
(11.4509 -0.00485434 0)
(11.5299 -0.0129609 0)
(11.6845 -0.0385412 0)
(11.7334 -0.00388676 0)
(11.7907 0.00552185 0)
(11.9224 -0.0383743 0)
(12.0035 0.0115319 0)
(12.0549 -0.0117022 0)
(12.1208 0.000202013 0)
(12.2262 0.0126466 0)
(12.3226 0.00329986 0)
(12.2998 0.010564 0)
(12.4651 0.0461152 0)
(12.4993 0.0505722 0)
(12.4583 0.0618633 0)
(9.99018 -0.058227 0)
(10.2615 -0.162774 0)
(10.6018 -0.116657 0)
(10.9793 -0.0816461 0)
(11.2958 -0.0679429 0)
(11.429 -0.0334818 0)
(11.5951 -0.0469853 0)
(11.6644 -0.0619825 0)
(11.7405 -0.0260756 0)
(11.855 -0.0374057 0)
(11.9394 -0.0577444 0)
(11.9858 -0.00261928 0)
(12.0875 -0.017999 0)
(12.1333 -0.0307281 0)
(12.2902 -0.0153585 0)
(12.3059 -0.00814484 0)
(12.3264 -0.0133558 0)
(12.5077 0.0048295 0)
(12.5133 0.0339901 0)
(12.4574 0.0435788 0)
(10.0093 -0.110815 0)
(10.2788 -0.26066 0)
(10.658 -0.198604 0)
(11.0367 -0.149177 0)
(11.3473 -0.09486 0)
(11.4423 -0.0618457 0)
(11.6684 -0.0810498 0)
(11.6929 -0.0949999 0)
(11.7892 -0.059037 0)
(11.9175 -0.0606151 0)
(11.9401 -0.0625243 0)
(12.0447 -0.034032 0)
(12.138 -0.0352224 0)
(12.1925 -0.0572384 0)
(12.3171 -0.0261604 0)
(12.3396 -0.0194774 0)
(12.4308 -0.050126 0)
(12.5112 -0.0341304 0)
(12.5287 0.00984958 0)
(12.5652 0.0176343 0)
(10.0187 -0.173426 0)
(10.311 -0.36089 0)
(10.7357 -0.281456 0)
(11.1102 -0.203038 0)
(11.409 -0.12458 0)
(11.5188 -0.10714 0)
(11.7382 -0.115763 0)
(11.7422 -0.116385 0)
(11.8759 -0.0848788 0)
(11.9511 -0.0928759 0)
(12.0291 -0.0776258 0)
(12.1216 -0.0643488 0)
(12.2052 -0.0446116 0)
(12.2732 -0.0802241 0)
(12.3658 -0.0470945 0)
(12.4165 -0.0493838 0)
(12.5273 -0.06446 0)
(12.5424 -0.0570376 0)
(12.611 -0.0412388 0)
(12.6089 -0.0283855 0)
(10.0813 -0.252531 0)
(10.3043 -0.459466 0)
(10.8963 -0.369176 0)
(11.1698 -0.250034 0)
(11.5544 -0.164097 0)
(11.591 -0.145331 0)
(11.8349 -0.148767 0)
(11.8031 -0.146584 0)
(12.0074 -0.115276 0)
(11.9765 -0.115282 0)
(12.1509 -0.0981725 0)
(12.149 -0.0884754 0)
(12.2842 -0.0640479 0)
(12.2954 -0.104739 0)
(12.4024 -0.0571389 0)
(12.3955 -0.0757401 0)
(12.4961 -0.0786778 0)
(12.4833 -0.0933154 0)
(12.5402 -0.0618555 0)
(12.462 -0.0831334 0)
(10.0721 -0.348711 0)
(10.3785 -0.567164 0)
(11.0556 -0.456352 0)
(11.2957 -0.29677 0)
(11.6812 -0.211997 0)
(11.654 -0.185738 0)
(11.9078 -0.18551 0)
(11.7992 -0.17207 0)
(12.0022 -0.139361 0)
(11.8747 -0.134354 0)
(12.0493 -0.119532 0)
(11.9119 -0.102242 0)
(12.0645 -0.0817093 0)
(11.9117 -0.109201 0)
(12.0345 -0.0698284 0)
(11.892 -0.084681 0)
(11.9691 -0.0814168 0)
(11.8402 -0.103713 0)
(11.87 -0.0776005 0)
(11.6811 -0.11781 0)
(10.0192 -0.45809 0)
(10.5465 -0.705129 0)
(11.1844 -0.543779 0)
(11.3665 -0.355463 0)
(11.5704 -0.262049 0)
(11.4451 -0.222843 0)
(11.5141 -0.205189 0)
(11.2726 -0.177772 0)
(11.3214 -0.143734 0)
(11.0589 -0.128123 0)
(11.0965 -0.109417 0)
(10.8401 -0.0912302 0)
(10.9062 -0.0715175 0)
(10.6267 -0.0885819 0)
(10.7116 -0.0577892 0)
(10.4577 -0.0672812 0)
(10.5105 -0.0634513 0)
(10.2744 -0.0898712 0)
(10.2936 -0.058625 0)
(10.016 -0.129913 0)
(10.0685 -0.632027 0)
(10.6491 -0.863366 0)
(10.8799 -0.600464 0)
(10.6836 -0.374448 0)
(10.4634 -0.256013 0)
(10.08 -0.194043 0)
(9.85068 -0.156414 0)
(9.47365 -0.123729 0)
(9.33842 -0.0921343 0)
(9.01317 -0.0757926 0)
(8.94498 -0.0629813 0)
(8.67455 -0.050321 0)
(8.67583 -0.0367539 0)
(8.40709 -0.0488186 0)
(8.45298 -0.0324209 0)
(8.20782 -0.0353233 0)
(8.24331 -0.0399338 0)
(8.00064 -0.0516744 0)
(8.01888 -0.0457221 0)
(7.73181 -0.0669032 0)
(10.0868 -0.83838 0)
(9.65385 -0.86798 0)
(8.87775 -0.50643 0)
(8.07817 -0.262108 0)
(7.49596 -0.138467 0)
(7.00463 -0.0808319 0)
(6.7034 -0.0551574 0)
(6.38615 -0.041658 0)
(6.24019 -0.0284643 0)
(6.00955 -0.023599 0)
(5.94129 -0.0209172 0)
(5.75829 -0.0167599 0)
(5.74894 -0.0104101 0)
(5.57069 -0.0197181 0)
(5.58816 -0.0118655 0)
(5.42262 -0.0132712 0)
(5.43759 -0.0172964 0)
(5.25926 -0.0230332 0)
(5.27036 -0.0228968 0)
(5.02678 -0.00787977 0)
(8.09227 -0.387913 0)
(5.44905 -0.242672 0)
(3.91271 -0.0427937 0)
(3.15607 0.0154772 0)
(2.8013 0.0180126 0)
(2.59747 0.0114872 0)
(2.48691 0.00548294 0)
(2.37556 0.00189763 0)
(2.32258 0.00205858 0)
(2.24732 0.000921186 0)
(2.22213 8.70699e-05 0)
(2.15895 0.000234981 0)
(2.15757 0.00171966 0)
(2.09713 -0.00149747 0)
(2.09538 0.000562682 0)
(2.0397 0.000386572 0)
(2.04065 -0.000516296 0)
(1.97139 -0.00175058 0)
(1.95726 -0.000851254 0)
(1.83909 0.0137848 0)
(1.57068 0.0811334 0)
(1.87956 0.670826 0)
(2.80105 1.12727 0)
(3.64014 1.32429 0)
(4.38763 1.22549 0)
(4.90099 0.905187 0)
(5.20839 0.497399 0)
(5.33999 0.120777 0)
(5.29698 -0.0984336 0)
(5.20509 -0.209355 0)
(5.03772 -0.213858 0)
(4.99243 -0.0756886 0)
(4.92607 0.00558277 0)
(5.02218 0.139754 0)
(5.15856 0.356613 0)
(5.35683 0.37175 0)
(5.61628 0.431875 0)
(6.07481 0.518844 0)
(6.34043 0.360495 0)
(6.7665 0.262187 0)
(7.39656 0.209714 0)
(7.70562 -0.138993 0)
(7.91227 -0.39288 0)
(8.70786 -0.720928 0)
(9.03783 -1.12292 0)
(9.25432 -1.301 0)
(10.0412 -1.87683 0)
(10.3492 -2.36278 0)
(10.4764 -2.53156 0)
(10.951 -2.88226 0)
(11.0491 -2.99216 0)
(11.1285 -2.93098 0)
(11.0756 -2.93706 0)
(10.9693 -2.75277 0)
(10.9909 -2.47789 0)
(10.9147 -2.39109 0)
(10.9499 -2.0851 0)
(11.0465 -1.62978 0)
(11.0739 -1.47226 0)
(10.9793 -1.2912 0)
(11.0304 -1.2429 0)
(10.9982 -1.42301 0)
(11.0157 -1.3969 0)
(11.1506 -1.41435 0)
(11.2771 -1.43326 0)
(11.5057 -1.51757 0)
(11.4319 -1.72517 0)
(11.6294 -1.87822 0)
(11.4677 -2.17833 0)
(11.5142 -2.40065 0)
(11.3803 -2.73722 0)
(11.3409 -3.01808 0)
(11.3557 -3.31384 0)
(11.288 -3.66591 0)
(11.306 -3.84093 0)
(11.3294 -4.03534 0)
(11.6076 -4.31978 0)
(11.8957 -4.52918 0)
(12.0952 -4.64306 0)
(12.3802 -4.87073 0)
(12.5882 -4.92341 0)
(12.8257 -4.7446 0)
(13.0092 -4.68211 0)
(13.0703 -4.38455 0)
(13.2728 -3.95365 0)
(13.2529 -3.64762 0)
(13.2635 -2.96088 0)
(13.23 -2.24537 0)
(13.0878 -1.66848 0)
(13.0408 -0.813638 0)
(12.9356 -0.0626968 0)
(12.601 0.538716 0)
(12.1686 1.17825 0)
(11.6443 1.54828 0)
(11.0731 1.51764 0)
(10.4953 1.48567 0)
(9.80522 1.4771 0)
(9.14175 1.50667 0)
(8.48581 1.64076 0)
(7.80389 1.75161 0)
(7.07296 1.93178 0)
(6.84247 2.64771 0)
(6.96461 4.20147 0)
(7.5125 5.89882 0)
(7.8739 7.33149 0)
(8.32826 8.22553 0)
(8.30972 8.4363 0)
(8.22122 8.09114 0)
(8.07264 7.28375 0)
(7.64013 6.39339 0)
(7.48772 5.48565 0)
(7.20406 4.57245 0)
(7.06656 3.37205 0)
(6.87172 2.19861 0)
(6.87037 1.19966 0)
(6.92748 0.426094 0)
(7.08122 -0.520109 0)
(7.1192 -1.59837 0)
(7.06865 -3.03519 0)
(6.88488 -4.31559 0)
(6.97287 -4.97258 0)
(6.9011 -5.49342 0)
(6.67222 -5.78201 0)
(6.7364 -5.29845 0)
(6.81923 -4.80294 0)
(6.61998 -4.67058 0)
(6.39742 -4.26568 0)
(6.40671 -3.99224 0)
(6.50687 -3.80933 0)
(6.33523 -2.77534 0)
(6.27121 -1.92915 0)
(6.31498 -2.43542 0)
(6.51013 -4.18091 0)
(6.71523 -5.72984 0)
(6.49401 -6.43075 0)
(6.56397 -6.73262 0)
(6.20509 -7.25822 0)
(6.84877 -7.23333 0)
(6.45038 -7.58208 0)
(6.62585 -7.35759 0)
(6.61971 -7.21447 0)
(6.89366 -6.49231 0)
(6.838 -5.77638 0)
(7.07208 -4.76637 0)
(7.08081 -3.67125 0)
(7.26662 -2.59488 0)
(7.50811 -1.2868 0)
(7.67492 -0.423418 0)
(7.62919 0.363839 0)
(7.49629 1.37186 0)
(7.27709 2.69448 0)
(7.44547 4.06505 0)
(7.61968 5.20158 0)
(7.9498 6.14013 0)
(8.26098 7.08618 0)
(8.45974 7.93995 0)
(8.65256 8.70838 0)
(8.79917 9.49342 0)
(8.91351 9.97705 0)
(8.75911 9.93923 0)
(8.5098 9.55063 0)
(8.15812 8.72242 0)
(7.6224 7.67772 0)
(7.04292 6.67886 0)
(6.54423 5.70233 0)
(5.99956 4.7936 0)
(5.63712 4.06899 0)
(5.35586 3.42392 0)
(5.11014 2.99171 0)
(5.01669 2.58389 0)
(5.16755 2.20784 0)
(5.06464 2.15939 0)
(5.54921 1.86829 0)
(5.56685 1.95281 0)
(6.0327 1.81995 0)
(6.36316 1.92016 0)
(6.70975 1.909 0)
(7.22372 2.08746 0)
(7.66808 1.9234 0)
(8.10665 2.0961 0)
(8.47443 1.65536 0)
(9.13871 1.96291 0)
(9.18983 1.43805 0)
(9.70417 1.35513 0)
(9.69291 0.647958 0)
(10.0841 0.804872 0)
(10.1092 -0.212961 0)
(10.2878 -0.0675087 0)
(10.218 -1.03153 0)
(10.3212 -1.06554 0)
(10.1377 -1.94939 0)
(10.0138 -1.82826 0)
(10.0161 -2.87595 0)
(9.71621 -2.55534 0)
(9.58031 -3.35338 0)
(9.37682 -3.12932 0)
(9.20711 -3.74238 0)
(8.94214 -3.33433 0)
(8.66446 -3.59912 0)
(8.61239 -3.54962 0)
(8.40896 -3.69465 0)
(8.06716 -3.43341 0)
(7.87642 -2.98373 0)
(7.35013 -2.55345 0)
(7.45252 -2.35441 0)
(6.86708 -2.1317 0)
(7.02132 -1.73628 0)
(6.44792 -1.39253 0)
(6.52059 -0.903756 0)
(6.03914 -0.452955 0)
(6.21935 0.140042 0)
(5.61357 0.387474 0)
(6.16466 1.86407 0)
(6.12838 3.79316 0)
(6.41905 4.95765 0)
(6.95231 6.8767 0)
(6.86628 8.56041 0)
(7.35139 10.3544 0)
(7.62664 11.9779 0)
(4.44791 14.8384 0)
(4.7183 0.318712 0)
(4.49519 0.529731 0)
(4.57058 0.657423 0)
(4.929 0.729688 0)
(5.38311 0.665409 0)
(5.81831 0.473574 0)
(6.1394 0.301214 0)
(6.28271 0.0743297 0)
(6.29841 -0.0837398 0)
(6.31359 -0.0869293 0)
(6.22433 -0.172931 0)
(6.25933 -0.110409 0)
(6.38995 0.0116359 0)
(6.37867 0.00855954 0)
(6.67778 0.099535 0)
(7.01994 0.164884 0)
(7.12027 0.154355 0)
(7.66575 0.166582 0)
(8.19199 -0.0163767 0)
(8.30029 -0.0901293 0)
(8.986 -0.167239 0)
(9.66025 -0.577184 0)
(9.73136 -0.771487 0)
(10.4126 -1.04054 0)
(11.0086 -1.54891 0)
(11.1374 -1.68431 0)
(11.6771 -2.23199 0)
(11.9517 -2.66753 0)
(12.0009 -2.70565 0)
(12.1005 -3.09088 0)
(11.8891 -3.15276 0)
(11.7874 -2.92573 0)
(11.7101 -2.96918 0)
(11.6101 -2.83449 0)
(11.5711 -2.36726 0)
(11.2747 -2.01298 0)
(11.1319 -1.75357 0)
(10.9977 -1.61885 0)
(10.9015 -1.63036 0)
(10.9225 -1.40943 0)
(11.0075 -1.16673 0)
(11.0514 -1.19158 0)
(11.0435 -1.32509 0)
(11.0978 -1.50198 0)
(10.8491 -1.57346 0)
(11.0629 -1.76371 0)
(11.0235 -1.89098 0)
(11.2171 -1.88515 0)
(11.2452 -2.14954 0)
(11.4446 -2.34567 0)
(11.4626 -2.57524 0)
(11.44 -2.88551 0)
(11.5076 -3.19079 0)
(11.4212 -3.53169 0)
(11.5239 -3.76962 0)
(11.5028 -4.04694 0)
(11.6927 -4.37519 0)
(11.8471 -4.60419 0)
(11.8888 -4.75616 0)
(12.1303 -4.86812 0)
(12.2596 -4.88702 0)
(12.3795 -4.73122 0)
(12.6784 -4.63784 0)
(12.8452 -4.3892 0)
(13.0584 -3.89305 0)
(13.184 -3.55844 0)
(13.2823 -2.91779 0)
(13.2354 -2.2412 0)
(13.096 -1.669 0)
(12.981 -0.731236 0)
(12.878 0.0968383 0)
(12.7146 0.682326 0)
(12.4806 1.45443 0)
(12.1216 1.9987 0)
(11.6527 1.95776 0)
(11.0115 1.924 0)
(10.21 2.01207 0)
(9.39373 2.06552 0)
(8.69231 2.16929 0)
(8.06525 2.31691 0)
(7.26253 2.41667 0)
(6.87485 2.75061 0)
(6.85845 3.93793 0)
(7.47139 5.47511 0)
(7.84168 6.99465 0)
(8.35881 8.04927 0)
(8.54348 8.44337 0)
(8.55666 8.23571 0)
(8.465 7.50032 0)
(8.07659 6.62056 0)
(7.80355 5.68256 0)
(7.65282 4.71033 0)
(7.50378 3.5478 0)
(7.43713 2.21788 0)
(7.40289 1.19209 0)
(7.47886 0.371404 0)
(7.59776 -0.584426 0)
(7.66082 -1.6286 0)
(7.69656 -2.89899 0)
(7.57937 -4.25481 0)
(7.53635 -5.00734 0)
(7.5167 -5.36396 0)
(7.29445 -5.68644 0)
(7.23988 -5.3072 0)
(7.14369 -4.72695 0)
(6.99891 -4.54562 0)
(6.76949 -4.14436 0)
(6.70571 -3.9962 0)
(6.62849 -3.68625 0)
(6.39137 -2.67679 0)
(6.30841 -1.86272 0)
(6.19933 -2.51667 0)
(6.43825 -4.27014 0)
(6.3587 -5.71109 0)
(6.23851 -6.32878 0)
(6.13204 -6.67941 0)
(5.87856 -7.23024 0)
(6.37043 -7.34006 0)
(5.90857 -7.48243 0)
(6.00579 -7.33066 0)
(6.09509 -7.25642 0)
(6.06703 -6.48561 0)
(6.11766 -5.86528 0)
(6.3883 -4.82091 0)
(6.43533 -3.85005 0)
(6.71535 -2.75903 0)
(6.88142 -1.53066 0)
(7.01238 -0.462075 0)
(6.9326 0.45589 0)
(6.88719 1.53738 0)
(6.62817 2.65599 0)
(6.74953 3.90169 0)
(6.91664 5.00511 0)
(7.24312 5.97411 0)
(7.62181 6.87777 0)
(7.92606 7.72385 0)
(8.13363 8.55687 0)
(8.26971 9.36019 0)
(8.48673 9.94584 0)
(8.47107 10.1122 0)
(8.32584 9.75165 0)
(8.08011 9.02986 0)
(7.82299 8.13738 0)
(7.29008 7.10067 0)
(6.94483 6.12489 0)
(6.53779 5.12333 0)
(6.09311 4.43394 0)
(5.98522 3.68312 0)
(5.57843 3.10934 0)
(5.55286 2.68418 0)
(5.56153 2.06659 0)
(5.50485 2.07325 0)
(5.81862 1.59343 0)
(5.96872 1.7312 0)
(6.36642 1.49243 0)
(6.71009 1.65016 0)
(7.1512 1.42789 0)
(7.63767 1.8129 0)
(8.09651 1.48544 0)
(8.49856 1.80376 0)
(8.88009 1.24399 0)
(9.34308 1.66422 0)
(9.62334 1.15021 0)
(9.96838 1.20424 0)
(10.0789 0.502763 0)
(10.3034 0.647388 0)
(10.5635 -0.305335 0)
(10.4555 -0.0747135 0)
(10.6945 -1.03241 0)
(10.5153 -0.97949 0)
(10.5045 -1.82434 0)
(10.2254 -1.69545 0)
(10.2245 -2.76001 0)
(9.78779 -2.24507 0)
(9.61387 -3.27631 0)
(9.44727 -2.78133 0)
(9.08699 -3.70384 0)
(8.97122 -2.83375 0)
(8.52227 -3.73863 0)
(8.82437 -3.09369 0)
(8.09566 -3.76573 0)
(8.33658 -2.74109 0)
(7.40169 -3.01067 0)
(7.68388 -2.08516 0)
(7.12049 -2.47209 0)
(7.05801 -1.85978 0)
(6.81097 -1.76333 0)
(6.54789 -1.09542 0)
(6.3596 -0.885897 0)
(6.33043 -0.204217 0)
(6.0785 0.013626 0)
(6.04532 0.811967 0)
(5.80022 1.55863 0)
(6.4288 3.54598 0)
(6.47936 5.8134 0)
(6.76314 6.55939 0)
(7.19079 8.45701 0)
(7.62033 10.8985 0)
(10.0489 11.5624 0)
(7.17918 15.9049 0)
(7.42821 0.243038 0)
(7.38249 0.459472 0)
(7.41365 0.623316 0)
(7.46839 0.653091 0)
(7.74694 0.629574 0)
(7.93572 0.418577 0)
(8.11176 0.265658 0)
(8.35433 0.102038 0)
(8.27064 -0.104532 0)
(8.38903 -0.0999037 0)
(8.51392 -0.171385 0)
(8.32418 -0.200617 0)
(8.6757 -0.134949 0)
(8.73675 -0.136044 0)
(8.76324 -0.105355 0)
(9.29529 -0.143549 0)
(9.42723 -0.147848 0)
(9.65781 -0.132841 0)
(10.3589 -0.381575 0)
(10.5179 -0.467056 0)
(10.8928 -0.524931 0)
(11.6371 -0.962879 0)
(11.7521 -1.12464 0)
(12.1882 -1.32865 0)
(12.6977 -1.89088 0)
(12.6759 -1.93255 0)
(13.0803 -2.29387 0)
(13.075 -2.80614 0)
(12.8737 -2.71681 0)
(12.7989 -2.75223 0)
(12.5378 -2.89245 0)
(12.4226 -2.869 0)
(12.1224 -2.6022 0)
(11.6144 -2.29218 0)
(11.2369 -2.16496 0)
(10.9228 -2.02834 0)
(11.0225 -1.82388 0)
(10.8834 -1.56025 0)
(10.8143 -1.39031 0)
(10.8259 -1.36373 0)
(10.6986 -1.40313 0)
(10.7338 -1.4217 0)
(10.8394 -1.43423 0)
(10.8307 -1.31151 0)
(10.6458 -1.34277 0)
(10.7956 -1.63324 0)
(10.6238 -1.89825 0)
(10.627 -2.10088 0)
(10.6461 -2.32879 0)
(10.7206 -2.50754 0)
(10.6418 -2.69166 0)
(10.742 -2.87987 0)
(10.8077 -3.12833 0)
(10.8125 -3.47017 0)
(10.9439 -3.73094 0)
(10.8956 -4.04398 0)
(11.0619 -4.40242 0)
(11.1932 -4.64796 0)
(11.2636 -4.81288 0)
(11.5426 -5.00568 0)
(11.8046 -5.12327 0)
(12.2444 -5.03895 0)
(12.7627 -4.96285 0)
(13.0566 -4.64048 0)
(13.3395 -4.00891 0)
(13.5046 -3.57731 0)
(13.5416 -2.86973 0)
(13.4485 -2.02464 0)
(13.2114 -1.43103 0)
(12.9944 -0.58854 0)
(12.6669 0.224252 0)
(12.3953 0.786303 0)
(12.2987 1.55408 0)
(12.102 2.15361 0)
(11.7153 2.31216 0)
(11.0929 2.51362 0)
(10.2954 2.7554 0)
(9.48995 2.71538 0)
(8.8135 2.71648 0)
(8.30649 2.8576 0)
(7.57418 2.93408 0)
(7.07714 2.97074 0)
(6.83851 3.75143 0)
(7.39343 5.05731 0)
(7.7695 6.58568 0)
(8.33057 7.71711 0)
(8.66575 8.2694 0)
(8.78446 8.28358 0)
(8.69325 7.75769 0)
(8.52615 6.84389 0)
(8.18189 5.93117 0)
(8.09582 4.80964 0)
(7.94377 3.60469 0)
(7.97501 2.20373 0)
(7.95488 1.16535 0)
(8.01747 0.322978 0)
(8.14009 -0.621149 0)
(8.15846 -1.70878 0)
(8.29579 -2.93888 0)
(8.19017 -4.26418 0)
(8.13397 -4.95661 0)
(8.11332 -5.24645 0)
(7.92974 -5.55595 0)
(7.74346 -5.13102 0)
(7.59837 -4.60908 0)
(7.40036 -4.35798 0)
(7.12946 -3.98565 0)
(6.94624 -3.81155 0)
(6.66531 -3.478 0)
(6.38556 -2.57253 0)
(6.2305 -1.78539 0)
(6.12483 -2.57487 0)
(6.21513 -4.2406 0)
(5.98983 -5.64913 0)
(5.91422 -6.18243 0)
(5.63677 -6.63215 0)
(5.5304 -7.2897 0)
(5.66982 -7.37795 0)
(5.17521 -7.42511 0)
(5.4202 -7.40569 0)
(5.42953 -7.20075 0)
(5.23601 -6.5822 0)
(5.49227 -5.97618 0)
(5.5467 -4.97347 0)
(5.84284 -3.98814 0)
(6.00318 -2.84431 0)
(6.23492 -1.66879 0)
(6.25097 -0.445823 0)
(6.22388 0.525309 0)
(6.15645 1.7319 0)
(6.02456 2.73417 0)
(6.11542 3.75381 0)
(6.40046 4.68836 0)
(6.69669 5.5751 0)
(7.03637 6.56505 0)
(7.31396 7.55837 0)
(7.54742 8.4286 0)
(7.78938 9.17669 0)
(8.03125 9.82322 0)
(8.12682 10.1071 0)
(8.24807 9.83264 0)
(7.94395 9.25558 0)
(7.89291 8.4341 0)
(7.57287 7.39488 0)
(7.18904 6.46795 0)
(7.06572 5.47083 0)
(6.60218 4.66819 0)
(6.54174 3.93418 0)
(6.31436 3.20154 0)
(6.15237 2.84369 0)
(6.24725 2.05273 0)
(6.04577 1.98538 0)
(6.4188 1.44833 0)
(6.41026 1.48211 0)
(6.87477 1.14498 0)
(6.98787 1.37173 0)
(7.61003 0.937467 0)
(7.95876 1.5119 0)
(8.44681 1.11554 0)
(8.8953 1.52653 0)
(9.21122 0.863657 0)
(9.62342 1.49649 0)
(9.88256 0.810206 0)
(10.1702 1.10572 0)
(10.2562 0.292153 0)
(10.4843 0.559106 0)
(10.6355 -0.451083 0)
(10.5137 -0.0545137 0)
(10.8624 -1.1436 0)
(10.5163 -0.82893 0)
(10.6181 -1.82193 0)
(10.1727 -1.53853 0)
(10.3179 -2.66958 0)
(9.60717 -1.99022 0)
(9.71953 -3.19174 0)
(9.23149 -2.62016 0)
(9.29059 -3.49333 0)
(8.74618 -2.71399 0)
(8.94424 -3.53515 0)
(8.53335 -3.12055 0)
(8.42262 -3.19718 0)
(7.96682 -2.76248 0)
(7.55745 -2.24737 0)
(7.49694 -2.2772 0)
(7.10538 -1.74543 0)
(7.17201 -1.93534 0)
(6.62508 -1.31822 0)
(6.65702 -1.03964 0)
(6.39549 -0.708562 0)
(6.33083 -0.275095 0)
(6.36906 0.590826 0)
(5.98079 0.23879 0)
(6.16054 1.96267 0)
(6.2744 2.6106 0)
(6.90643 4.50443 0)
(7.66257 6.8203 0)
(8.19814 7.16699 0)
(7.75811 10.3681 0)
(12.42 10.2165 0)
(9.61355 16.132 0)
(9.74275 0.175953 0)
(9.67049 0.232584 0)
(9.90305 0.385969 0)
(9.94317 0.478151 0)
(10.1354 0.525108 0)
(10.393 0.34243 0)
(10.3053 0.192686 0)
(10.6124 0.0206641 0)
(10.5787 -0.163677 0)
(10.5071 -0.182406 0)
(10.8491 -0.272943 0)
(10.6695 -0.258305 0)
(10.8303 -0.248402 0)
(11.0962 -0.296431 0)
(10.9849 -0.22194 0)
(11.3874 -0.377114 0)
(11.5977 -0.422314 0)
(11.6822 -0.32401 0)
(12.2559 -0.676903 0)
(12.4554 -0.832758 0)
(12.5822 -0.730037 0)
(13.1864 -1.18253 0)
(13.3099 -1.53119 0)
(13.4533 -1.54787 0)
(13.7249 -1.85724 0)
(13.7463 -2.23124 0)
(13.8165 -2.41662 0)
(13.4876 -2.45635 0)
(13.2659 -2.5958 0)
(13.156 -2.78745 0)
(12.6915 -2.64998 0)
(12.1514 -2.51787 0)
(11.7048 -2.3908 0)
(11.5578 -2.23043 0)
(11.429 -2.01112 0)
(11.1411 -1.69662 0)
(11.0851 -1.59687 0)
(10.8599 -1.54516 0)
(10.7611 -1.36727 0)
(10.8159 -1.23159 0)
(10.6134 -1.19596 0)
(10.5272 -1.21099 0)
(10.4975 -1.37026 0)
(10.3956 -1.4347 0)
(10.375 -1.52306 0)
(10.4369 -1.63903 0)
(10.4396 -1.77828 0)
(10.3745 -1.9356 0)
(10.3089 -2.13972 0)
(10.3366 -2.44559 0)
(10.2463 -2.69121 0)
(10.2438 -2.98088 0)
(10.2053 -3.33469 0)
(10.293 -3.65067 0)
(10.3586 -4.01606 0)
(10.3018 -4.3647 0)
(10.5404 -4.67451 0)
(10.7306 -4.97115 0)
(11.0446 -5.30617 0)
(11.6626 -5.59616 0)
(12.1231 -5.72211 0)
(12.6502 -5.66966 0)
(13.1912 -5.56787 0)
(13.413 -5.1783 0)
(13.5629 -4.45413 0)
(13.6749 -3.84275 0)
(13.5762 -2.96684 0)
(13.4008 -1.89512 0)
(13.172 -1.21869 0)
(12.9168 -0.319868 0)
(12.4755 0.573915 0)
(11.9886 1.07459 0)
(11.665 1.74209 0)
(11.3671 2.38704 0)
(11.046 2.72557 0)
(10.6734 3.00213 0)
(10.0961 3.28208 0)
(9.38307 3.26777 0)
(8.74592 3.20837 0)
(8.31632 3.32628 0)
(7.71933 3.44936 0)
(7.23608 3.29335 0)
(6.94278 3.72209 0)
(7.32033 4.68308 0)
(7.68134 6.12795 0)
(8.33267 7.31416 0)
(8.6307 8.08104 0)
(8.91269 8.20619 0)
(8.87766 7.8469 0)
(8.90703 7.06336 0)
(8.72968 6.09924 0)
(8.59897 4.97059 0)
(8.4355 3.66171 0)
(8.50233 2.17054 0)
(8.45943 1.15133 0)
(8.55453 0.317731 0)
(8.59331 -0.715823 0)
(8.71684 -1.76605 0)
(8.82669 -2.9119 0)
(8.80035 -4.21302 0)
(8.74631 -4.90326 0)
(8.69821 -5.16773 0)
(8.44064 -5.36932 0)
(8.17976 -4.99903 0)
(8.01962 -4.47531 0)
(7.74164 -4.13029 0)
(7.42296 -3.82284 0)
(7.09638 -3.56618 0)
(6.73564 -3.27404 0)
(6.41075 -2.35173 0)
(6.13959 -1.68067 0)
(5.97387 -2.49069 0)
(5.88107 -4.14893 0)
(5.65039 -5.51188 0)
(5.55479 -5.97311 0)
(5.21798 -6.55747 0)
(5.06305 -7.0955 0)
(4.88928 -7.18164 0)
(4.55431 -7.38079 0)
(4.79047 -7.3631 0)
(4.62056 -7.08777 0)
(4.49922 -6.65835 0)
(4.91399 -6.05838 0)
(4.65766 -5.2316 0)
(5.14807 -4.08575 0)
(5.16835 -2.95352 0)
(5.44931 -1.71905 0)
(5.41816 -0.478731 0)
(5.47657 0.53283 0)
(5.41698 1.72414 0)
(5.41973 2.77626 0)
(5.47656 3.62912 0)
(5.8781 4.55513 0)
(6.12854 5.37357 0)
(6.50144 6.3235 0)
(6.756 7.27202 0)
(7.08632 8.11455 0)
(7.26052 8.99217 0)
(7.57768 9.67358 0)
(7.72024 9.94073 0)
(7.92186 9.89249 0)
(7.90167 9.33695 0)
(7.81136 8.56153 0)
(7.73551 7.6575 0)
(7.55397 6.65048 0)
(7.35749 5.67153 0)
(7.18323 4.82658 0)
(7.00834 4.1416 0)
(7.00299 3.26012 0)
(6.86267 2.9445 0)
(6.9318 2.07345 0)
(6.90239 1.97039 0)
(6.97497 1.27971 0)
(7.20227 1.35805 0)
(7.28467 0.845735 0)
(7.61295 1.21925 0)
(7.7655 0.395737 0)
(8.48431 1.23974 0)
(8.41523 0.610338 0)
(9.50352 1.23991 0)
(9.19417 0.46597 0)
(10.1911 1.31463 0)
(9.79971 0.423752 0)
(10.6552 1.1018 0)
(10.0329 0.00127014 0)
(10.8508 0.571767 0)
(10.2721 -0.692193 0)
(10.7331 0.06411 0)
(10.501 -1.39302 0)
(10.5892 -0.536951 0)
(10.3828 -2.04818 0)
(10.2927 -1.11966 0)
(10.0796 -2.75105 0)
(9.77661 -1.52859 0)
(9.59785 -3.43837 0)
(9.59535 -2.14823 0)
(9.11513 -3.72488 0)
(9.10067 -2.27632 0)
(8.781 -3.95359 0)
(8.59856 -2.58844 0)
(8.41929 -3.54436 0)
(7.55882 -2.02028 0)
(7.88502 -2.59678 0)
(6.80467 -1.60562 0)
(7.61474 -2.01461 0)
(6.42897 -1.40284 0)
(6.85758 -1.17268 0)
(6.23765 -1.04629 0)
(6.5419 -0.534067 0)
(6.07164 -0.205241 0)
(6.4634 0.423782 0)
(6.18853 1.25737 0)
(6.15425 1.31183 0)
(6.57814 4.07862 0)
(6.42155 4.06363 0)
(6.8602 6.54609 0)
(9.59045 6.96251 0)
(6.99771 10.5858 0)
(12.685 6.99754 0)
(11.2239 14.903 0)
(11.6003 0.189686 0)
(11.4525 0.200665 0)
(11.6961 0.243606 0)
(11.8122 0.317288 0)
(11.8873 0.371515 0)
(12.1936 0.228294 0)
(12.0844 0.195385 0)
(12.3113 -0.0398871 0)
(12.3533 -0.210039 0)
(12.2485 -0.151841 0)
(12.5964 -0.380862 0)
(12.5019 -0.33426 0)
(12.5178 -0.222097 0)
(12.8308 -0.435405 0)
(12.7214 -0.398249 0)
(12.8652 -0.381899 0)
(13.0945 -0.594486 0)
(13.1899 -0.659972 0)
(13.4493 -0.765958 0)
(13.5408 -0.917611 0)
(13.7564 -1.10947 0)
(14.0148 -1.37396 0)
(13.9818 -1.4831 0)
(14.1326 -1.74022 0)
(14.1453 -2.03116 0)
(13.999 -2.05021 0)
(13.7727 -2.18994 0)
(13.5186 -2.42314 0)
(13.3159 -2.44067 0)
(12.7518 -2.31771 0)
(12.3934 -2.24368 0)
(12.3202 -2.24713 0)
(11.9805 -2.02084 0)
(11.666 -1.82435 0)
(11.293 -1.72023 0)
(10.9418 -1.57382 0)
(10.8241 -1.55005 0)
(10.7014 -1.40552 0)
(10.5242 -1.24582 0)
(10.5365 -1.31381 0)
(10.4599 -1.31132 0)
(10.3832 -1.26397 0)
(10.3991 -1.28201 0)
(10.3316 -1.31461 0)
(10.1739 -1.42849 0)
(10.187 -1.58978 0)
(10.168 -1.90856 0)
(10.0585 -2.11306 0)
(10.1075 -2.20387 0)
(10.1884 -2.45528 0)
(10.1431 -2.6602 0)
(10.1543 -2.9491 0)
(10.1393 -3.28837 0)
(10.2047 -3.68334 0)
(10.2316 -4.11481 0)
(10.2701 -4.42691 0)
(10.5444 -4.86698 0)
(10.8715 -5.298 0)
(11.336 -5.62975 0)
(11.7583 -5.93772 0)
(12.0599 -6.03725 0)
(12.3993 -5.94715 0)
(12.6098 -5.72184 0)
(12.7411 -5.22553 0)
(12.7586 -4.49912 0)
(12.7498 -3.80907 0)
(12.6427 -2.92863 0)
(12.4668 -1.88325 0)
(12.3505 -1.02573 0)
(12.1918 -0.0131713 0)
(11.7808 0.962257 0)
(11.3663 1.4812 0)
(10.9355 2.08149 0)
(10.4419 2.72336 0)
(10.0704 3.04752 0)
(9.79402 3.37593 0)
(9.37212 3.74154 0)
(8.84645 3.76541 0)
(8.31604 3.64398 0)
(7.9881 3.74213 0)
(7.55601 3.92814 0)
(7.2391 3.62415 0)
(6.92397 3.75586 0)
(7.30949 4.42252 0)
(7.47548 5.69146 0)
(8.23877 6.9187 0)
(8.64022 7.78156 0)
(8.95183 8.07172 0)
(9.06357 7.73203 0)
(9.15152 7.11771 0)
(9.18356 6.18444 0)
(9.05156 5.1127 0)
(9.00385 3.74377 0)
(8.93603 2.17389 0)
(8.9825 1.07143 0)
(8.99011 0.310791 0)
(9.06408 -0.748793 0)
(9.23367 -1.86622 0)
(9.31717 -3.019 0)
(9.34119 -4.19164 0)
(9.30862 -4.89997 0)
(9.21735 -5.0184 0)
(8.93314 -5.08298 0)
(8.68929 -4.81481 0)
(8.4398 -4.20389 0)
(8.08119 -3.85282 0)
(7.69859 -3.54376 0)
(7.25386 -3.21301 0)
(6.82789 -2.91106 0)
(6.38871 -2.01912 0)
(6.02796 -1.50681 0)
(5.73035 -2.26694 0)
(5.51277 -4.00148 0)
(5.2863 -5.28717 0)
(5.161 -5.82819 0)
(4.76107 -6.35557 0)
(4.44851 -6.75346 0)
(4.17275 -7.03963 0)
(3.98958 -7.3394 0)
(4.00651 -7.28097 0)
(3.70574 -7.06264 0)
(3.82166 -6.70771 0)
(4.19847 -6.10647 0)
(3.71324 -5.41572 0)
(4.409 -4.18346 0)
(4.21543 -3.16028 0)
(4.54568 -1.76893 0)
(4.54363 -0.515521 0)
(4.62835 0.567096 0)
(4.80806 1.68149 0)
(4.83441 2.59893 0)
(5.07085 3.37495 0)
(5.30189 4.2333 0)
(5.67419 5.16279 0)
(5.81561 6.05215 0)
(6.17418 7.11399 0)
(6.45145 7.97708 0)
(6.65777 8.78427 0)
(7.07448 9.41265 0)
(7.24107 9.76803 0)
(7.58834 9.70769 0)
(7.7144 9.35801 0)
(7.83487 8.62419 0)
(7.72486 7.68713 0)
(7.85738 6.77216 0)
(7.63781 5.88649 0)
(7.58366 4.88567 0)
(7.66284 4.26642 0)
(7.33102 3.23058 0)
(7.69279 3.01882 0)
(7.39494 2.01883 0)
(7.81893 1.99367 0)
(7.49652 1.08708 0)
(8.10209 1.36332 0)
(7.76356 0.593185 0)
(8.44045 1.13358 0)
(8.16345 0.0208911 0)
(8.99762 1.03991 0)
(8.53168 0.112115 0)
(9.96116 1.03137 0)
(9.18636 0.0838523 0)
(10.656 1.17328 0)
(9.82899 0.170315 0)
(11.0978 1.12226 0)
(10.0512 -0.135448 0)
(11.2027 0.639359 0)
(10.1322 -0.747321 0)
(10.9547 0.12315 0)
(10.3664 -1.49005 0)
(10.72 -0.280779 0)
(10.2842 -2.09993 0)
(10.4075 -0.729191 0)
(10.0816 -2.83052 0)
(9.98243 -0.972523 0)
(9.75885 -3.6444 0)
(9.91813 -1.48513 0)
(9.04593 -3.99247 0)
(9.67131 -1.60824 0)
(8.4251 -4.2906 0)
(9.43665 -1.84321 0)
(7.68494 -3.67056 0)
(8.41417 -1.34019 0)
(7.1929 -2.80279 0)
(7.70125 -1.30118 0)
(7.19837 -2.12395 0)
(6.88408 -0.634813 0)
(6.79069 -1.44894 0)
(6.26916 -0.071811 0)