/*--------------------------------*- C++ -*----------------------------------*\
| =========                 |                                                 |
| \\      /  F ield         | OpenFOAM: The Open Source CFD Toolbox           |
|  \\    /   O peration     | Version:  2.4.0                                 |
|   \\  /    A nd           | Web:      www.OpenFOAM.org                      |
|    \\/     M anipulation  |                                                 |
\*---------------------------------------------------------------------------*/
FoamFile
{
    version     2.0;
    format      ascii;
    class       volSymmTensorField;
    location    "0.16";
    object      UPrime2Mean;
}
// * * * * * * * * * * * * * * * * * * * * * * * * * * * * * * * * * * * * * //

dimensions      [0 2 -2 0 0 0 0];

internalField   nonuniform List<symmTensor> 
8800
(
(0.0103552 0.000676239 0 0.00117245 0 0)
(0.196992 -0.00777375 0 0.000424881 0 0)
(0.385234 -0.000746724 0 8.76573e-05 0 0)
(0.479119 0.00117259 0 2.35564e-05 0 0)
(0.548595 0.00097298 0 5.57429e-06 0 0)
(0.601269 0.00075979 0 3.66556e-06 0 0)
(0.635374 0.000546361 0 3.83142e-06 0 0)
(0.662355 0.000313486 0 3.84053e-06 0 0)
(0.679734 0.000196018 0 4.73635e-06 0 0)
(0.697203 7.28419e-05 0 4.39307e-06 0 0)
(0.706792 6.93397e-05 0 4.52684e-06 0 0)
(0.722388 -9.40248e-05 0 5.07202e-06 0 0)
(0.728498 -6.56303e-05 0 5.31521e-06 0 0)
(0.749915 -0.000321458 0 5.97974e-06 0 0)
(0.756762 -0.000597047 0 7.55519e-06 0 0)
(0.794496 -0.000291619 0 1.05217e-05 0 0)
(0.836571 -0.00529148 0 7.14196e-05 0 0)
(0.872411 0.0113171 0 0.000422424 0 0)
(1.34454 -0.103015 0 0.0106099 0 0)
(1.42002 0.161489 0 0.0320665 0 0)
(0.0538801 0.0178037 0 0.00695595 0 0)
(0.00458677 -0.00610301 0 0.00905981 0 0)
(0.047042 -0.0124824 0 0.00362862 0 0)
(0.0943375 -0.0108307 0 0.00130287 0 0)
(0.151146 -0.00962005 0 0.00065957 0 0)
(0.225149 -0.008594 0 0.00046037 0 0)
(0.294972 -0.0069681 0 0.000339945 0 0)
(0.366271 -0.00554259 0 0.000232985 0 0)
(0.418413 -0.00416479 0 0.000139926 0 0)
(0.475057 -0.00375107 0 0.000106039 0 0)
(0.503255 -0.00293252 0 5.31822e-05 0 0)
(0.563779 -0.00351126 0 6.24769e-05 0 0)
(0.564809 -0.00294125 0 5.0068e-05 0 0)
(0.65427 -0.00522371 0 0.00011378 0 0)
(0.623235 -0.00289086 0 6.38149e-05 0 0)
(0.775208 -0.0146135 0 0.000414226 0 0)
(0.734658 0.00169482 0 0.000268301 0 0)
(0.988035 -0.0606778 0 0.00430343 0 0)
(1.15777 -0.0258793 0 0.00279028 0 0)
(1.71064 -0.351652 0 0.113336 0 0)
(0.0531645 0.0131179 0 0.00380114 0 0)
(0.00461356 0.00601951 0 0.00957044 0 0)
(0.00446682 0.00299313 0 0.00586169 0 0)
(0.0066549 0.00149683 0 0.00305365 0 0)
(0.00497247 -0.00048732 0 0.0022851 0 0)
(0.0090697 -0.00351775 0 0.00208707 0 0)
(0.0218666 -0.00539942 0 0.00180526 0 0)
(0.0489118 -0.00669128 0 0.00136174 0 0)
(0.0751102 -0.00638237 0 0.000970751 0 0)
(0.114157 -0.00662825 0 0.00063404 0 0)
(0.131872 -0.00582581 0 0.000357584 0 0)
(0.188048 -0.00609148 0 0.00036378 0 0)
(0.185827 -0.00633301 0 0.000294278 0 0)
(0.26137 -0.00734076 0 0.000535224 0 0)
(0.254297 -0.00822847 0 0.000572924 0 0)
(0.338159 -0.0128459 0 0.00109185 0 0)
(0.368994 -0.0171231 0 0.00179312 0 0)
(0.468465 -0.0328204 0 0.00357415 0 0)
(0.602884 -0.0861551 0 0.0189885 0 0)
(0.875065 -0.228137 0 0.12019 0 0)
(0.0507706 0.00896719 0 0.00187349 0 0)
(0.00442552 0.0041549 0 0.00630037 0 0)
(0.010218 0.00603761 0 0.00507062 0 0)
(0.0242718 0.00703243 0 0.00280778 0 0)
(0.0379895 0.00810181 0 0.00238939 0 0)
(0.0358911 0.00755493 0 0.00270025 0 0)
(0.0358764 0.00700011 0 0.00284659 0 0)
(0.0258072 0.00432138 0 0.00264078 0 0)
(0.02506 0.00302387 0 0.00215876 0 0)
(0.0184249 0.000381269 0 0.0016204 0 0)
(0.0178174 0.000583496 0 0.000958407 0 0)
(0.0192935 -0.00196724 0 0.00122419 0 0)
(0.0174317 -0.000909707 0 0.000668336 0 0)
(0.0258073 -0.00439225 0 0.00149924 0 0)
(0.0277205 -0.00203405 0 0.000908424 0 0)
(0.0406857 -0.0076013 0 0.00240306 0 0)
(0.0505112 -0.00594204 0 0.00173771 0 0)
(0.0786339 -0.0166428 0 0.0080224 0 0)
(0.113507 -0.0358511 0 0.0210844 0 0)
(0.185369 -0.084482 0 0.103709 0 0)
(0.0532674 0.00690837 0 0.00109112 0 0)
(0.0034539 0.00214185 0 0.00406674 0 0)
(0.00842409 0.00438912 0 0.00376894 0 0)
(0.0225575 0.00559367 0 0.00204717 0 0)
(0.0452751 0.00721564 0 0.00163497 0 0)
(0.0517678 0.00804644 0 0.00199821 0 0)
(0.068954 0.00975984 0 0.00241572 0 0)
(0.0652798 0.00890549 0 0.00246276 0 0)
(0.0810322 0.00894865 0 0.00221023 0 0)
(0.0731943 0.00676606 0 0.00205197 0 0)
(0.0880675 0.00722881 0 0.00111705 0 0)
(0.0767233 0.00582487 0 0.00175599 0 0)
(0.0898722 0.00587347 0 0.000910522 0 0)
(0.0743022 0.00638661 0 0.00215633 0 0)
(0.0838793 0.00565494 0 0.00133733 0 0)
(0.0646658 0.00834954 0 0.00355068 0 0)
(0.0666321 0.0085251 0 0.00292512 0 0)
(0.0447619 0.01545 0 0.012811 0 0)
(0.0420765 0.0204238 0 0.0236562 0 0)
(0.0411821 0.0367919 0 0.135746 0 0)
(0.0554843 0.0049481 0 0.000630483 0 0)
(0.00351713 0.001139 0 0.00276811 0 0)
(0.00638583 0.00270808 0 0.00267282 0 0)
(0.0182567 0.00395194 0 0.00152121 0 0)
(0.0378961 0.00485211 0 0.00102509 0 0)
(0.0464123 0.00567384 0 0.00128467 0 0)
(0.0624174 0.0073721 0 0.0016757 0 0)
(0.0653691 0.00757339 0 0.00186914 0 0)
(0.082192 0.00740952 0 0.00170241 0 0)
(0.0861821 0.00668945 0 0.00165806 0 0)
(0.103766 0.00656245 0 0.000953747 0 0)
(0.108701 0.007045 0 0.00141053 0 0)
(0.126181 0.00645292 0 0.000937615 0 0)
(0.12929 0.00918325 0 0.0016432 0 0)
(0.14378 0.00899533 0 0.00139626 0 0)
(0.143213 0.0138133 0 0.00275019 0 0)
(0.149164 0.0191238 0 0.00362005 0 0)
(0.143164 0.0318094 0 0.0110233 0 0)
(0.143068 0.05688 0 0.0308489 0 0)
(0.155268 0.101743 0 0.104628 0 0)
(0.0529279 0.00329902 0 0.000369463 0 0)
(0.00387571 0.000888953 0 0.00184685 0 0)
(0.00493785 0.00132194 0 0.00177407 0 0)
(0.0166104 0.00301995 0 0.00115979 0 0)
(0.030984 0.00314874 0 0.000647594 0 0)
(0.0439983 0.00402893 0 0.000848223 0 0)
(0.0517357 0.0049816 0 0.00119513 0 0)
(0.0617578 0.00589553 0 0.00128261 0 0)
(0.0689427 0.00505974 0 0.00100237 0 0)
(0.0820662 0.00550462 0 0.00130566 0 0)
(0.0895497 0.00423991 0 0.000626739 0 0)
(0.106079 0.00646106 0 0.00118043 0 0)
(0.11361 0.0040598 0 0.000653643 0 0)
(0.131639 0.00905219 0 0.00144768 0 0)
(0.136389 0.00633549 0 0.00103387 0 0)
(0.154563 0.0159694 0 0.00273161 0 0)
(0.15447 0.0167329 0 0.00340376 0 0)
(0.172232 0.0398627 0 0.0120646 0 0)
(0.172681 0.0574281 0 0.0279461 0 0)
(0.215226 0.121651 0 0.0923294 0 0)
(0.0546861 0.00219661 0 0.000198044 0 0)
(0.00465105 0.000397585 0 0.00101529 0 0)
(0.00555332 0.000735028 0 0.00098254 0 0)
(0.0149727 0.00172434 0 0.000659878 0 0)
(0.0295391 0.00201185 0 0.000355105 0 0)
(0.0388795 0.00243751 0 0.000511099 0 0)
(0.0502986 0.00331516 0 0.000726449 0 0)
(0.0540559 0.00361236 0 0.000762014 0 0)
(0.0660752 0.00340231 0 0.000628533 0 0)
(0.0713037 0.00319401 0 0.000752927 0 0)
(0.0862611 0.00291773 0 0.000501766 0 0)
(0.0927533 0.00369263 0 0.000745711 0 0)
(0.109826 0.00317693 0 0.000562704 0 0)
(0.11591 0.00536262 0 0.000883161 0 0)
(0.133594 0.00606738 0 0.000776395 0 0)
(0.137905 0.0113677 0 0.00193833 0 0)
(0.155862 0.0174968 0 0.00311946 0 0)
(0.160476 0.034296 0 0.0105149 0 0)
(0.187321 0.0587733 0 0.0253711 0 0)
(0.217243 0.112902 0 0.0788892 0 0)
(0.0524291 0.00103158 0 0.00014407 0 0)
(0.00378629 -2.69595e-05 0 0.000549082 0 0)
(0.00444826 1.72763e-05 0 0.000526561 0 0)
(0.013575 0.000826267 0 0.00037174 0 0)
(0.0252738 0.000893756 0 0.000257377 0 0)
(0.0379227 0.00120016 0 0.000379629 0 0)
(0.0435317 0.00156764 0 0.000519362 0 0)
(0.0530602 0.00199142 0 0.000521411 0 0)
(0.0573969 0.0015632 0 0.000392033 0 0)
(0.069983 0.00189693 0 0.000547498 0 0)
(0.0755241 0.00122976 0 0.000421768 0 0)
(0.0912635 0.00250796 0 0.000603869 0 0)
(0.0969531 0.00160747 0 0.000429768 0 0)
(0.114913 0.00406881 0 0.000675028 0 0)
(0.118739 0.00427744 0 0.000572679 0 0)
(0.138769 0.00980694 0 0.00158865 0 0)
(0.142144 0.0154336 0 0.00271338 0 0)
(0.167948 0.0315727 0 0.00914537 0 0)
(0.181483 0.055911 0 0.0222104 0 0)
(0.237522 0.105589 0 0.0639997 0 0)
(0.0519831 0.000378614 0 8.09394e-05 0 0)
(0.00216843 -5.57153e-05 0 0.000247592 0 0)
(0.0032875 -4.27379e-05 0 0.000259795 0 0)
(0.0113221 0.000228943 0 0.000148955 0 0)
(0.0235867 0.000342462 0 0.000136887 0 0)
(0.0340364 0.000290947 0 0.00025078 0 0)
(0.0423649 0.000492716 0 0.00033476 0 0)
(0.0479935 0.000519239 0 0.00028211 0 0)
(0.0559311 0.000543418 0 0.00022322 0 0)
(0.0636405 0.000487982 0 0.000292704 0 0)
(0.0743558 0.000313268 0 0.000351518 0 0)
(0.0838788 0.00094482 0 0.000405477 0 0)
(0.0960134 0.00070586 0 0.000376611 0 0)
(0.10653 0.0022989 0 0.000427481 0 0)
(0.119298 0.00295809 0 0.000522094 0 0)
(0.130852 0.00811395 0 0.00108033 0 0)
(0.146071 0.0132539 0 0.002548 0 0)
(0.164983 0.0298022 0 0.00727613 0 0)
(0.194026 0.0511671 0 0.0193796 0 0)
(0.246273 0.0992787 0 0.0506143 0 0)
(0.0514699 -0.000511112 0 9.72934e-05 0 0)
(0.00147868 -0.000272281 0 0.000268071 0 0)
(0.00260289 -0.00026485 0 0.00026848 0 0)
(0.0105742 -0.000483466 0 0.000202707 0 0)
(0.0228619 -0.000528693 0 0.000200817 0 0)
(0.0333822 -0.000649207 0 0.000285903 0 0)
(0.0414832 -0.000859201 0 0.000351362 0 0)
(0.0473746 -0.00087888 0 0.000352235 0 0)
(0.0551121 -0.000978118 0 0.000322541 0 0)
(0.0632716 -0.000753536 0 0.000323695 0 0)
(0.0734399 -0.00102642 0 0.000402226 0 0)
(0.0835844 -0.000361956 0 0.000470675 0 0)
(0.0952621 -0.000533484 0 0.000355666 0 0)
(0.106747 0.000767351 0 0.000411806 0 0)
(0.119325 0.00169753 0 0.000335529 0 0)
(0.132763 0.00574759 0 0.00102588 0 0)
(0.149652 0.01168 0 0.00177913 0 0)
(0.172488 0.0256223 0 0.00640874 0 0)
(0.207378 0.0475568 0 0.0148972 0 0)
(0.261949 0.0891446 0 0.0407961 0 0)
(0.050925 -0.00124599 0 0.000102052 0 0)
(0.00145442 -0.000425355 0 0.000476152 0 0)
(0.00261253 -0.000414883 0 0.00043906 0 0)
(0.0112761 -0.00117436 0 0.000330002 0 0)
(0.0234946 -0.00118626 0 0.00022102 0 0)
(0.0352217 -0.00170571 0 0.000355316 0 0)
(0.0420647 -0.00197112 0 0.000450322 0 0)
(0.0498828 -0.00248323 0 0.00049818 0 0)
(0.0559633 -0.00204398 0 0.000427422 0 0)
(0.066502 -0.00225716 0 0.000418064 0 0)
(0.074601 -0.00188305 0 0.000460466 0 0)
(0.0877565 -0.00187617 0 0.000490229 0 0)
(0.0969087 -0.00138578 0 0.000396953 0 0)
(0.112282 -0.00105724 0 0.000361768 0 0)
(0.122282 0.000467656 0 0.000429368 0 0)
(0.141039 0.00351275 0 0.000673472 0 0)
(0.156098 0.00945653 0 0.00166475 0 0)
(0.187667 0.021816 0 0.004538 0 0)
(0.22201 0.0419057 0 0.0120936 0 0)
(0.288806 0.0800914 0 0.0297308 0 0)
(0.0515066 -0.00226514 0 0.000187144 0 0)
(0.00129551 -0.000626108 0 0.000976682 0 0)
(0.00278796 -0.000834775 0 0.00091545 0 0)
(0.0120914 -0.00195716 0 0.000658453 0 0)
(0.0259736 -0.00215369 0 0.00038412 0 0)
(0.0366695 -0.00274947 0 0.00052346 0 0)
(0.0461595 -0.00353981 0 0.000710044 0 0)
(0.052103 -0.00395147 0 0.000806867 0 0)
(0.0616277 -0.00370523 0 0.000726715 0 0)
(0.0695463 -0.00351949 0 0.00063727 0 0)
(0.0816918 -0.00335678 0 0.000590156 0 0)
(0.091638 -0.00319621 0 0.000634311 0 0)
(0.105768 -0.00291428 0 0.000465476 0 0)
(0.117301 -0.0026621 0 0.00046033 0 0)
(0.133803 -0.00134681 0 0.000430391 0 0)
(0.148537 0.0012404 0 0.000701444 0 0)
(0.172899 0.0065754 0 0.00124689 0 0)
(0.200855 0.0171349 0 0.00353515 0 0)
(0.249712 0.0351737 0 0.00876303 0 0)
(0.312636 0.0683529 0 0.022033 0 0)
(0.0518071 -0.00344166 0 0.000332516 0 0)
(0.00138772 -0.00105967 0 0.00177579 0 0)
(0.0034583 -0.0015975 0 0.00162169 0 0)
(0.0142632 -0.00305814 0 0.00110007 0 0)
(0.0297556 -0.0032939 0 0.000612045 0 0)
(0.040908 -0.00433196 0 0.000828924 0 0)
(0.0512726 -0.00517003 0 0.00105301 0 0)
(0.0583647 -0.00606959 0 0.00129165 0 0)
(0.0687275 -0.0053578 0 0.00108502 0 0)
(0.0780057 -0.00556979 0 0.00106257 0 0)
(0.0905283 -0.0047002 0 0.000748841 0 0)
(0.102213 -0.00535945 0 0.000896119 0 0)
(0.116148 -0.00421473 0 0.000558316 0 0)
(0.130237 -0.00530786 0 0.000697655 0 0)
(0.146417 -0.00284224 0 0.000538417 0 0)
(0.165296 -0.00226834 0 0.000796225 0 0)
(0.188804 0.00391405 0 0.00105154 0 0)
(0.223229 0.0107819 0 0.00255553 0 0)
(0.272188 0.027514 0 0.00618446 0 0)
(0.344333 0.0533819 0 0.0150912 0 0)
(0.0540379 -0.0051552 0 0.000617858 0 0)
(0.00184827 -0.00139397 0 0.00275598 0 0)
(0.00546995 -0.00302488 0 0.00263772 0 0)
(0.0169719 -0.00412293 0 0.00153684 0 0)
(0.0375141 -0.00512641 0 0.00102167 0 0)
(0.0450406 -0.00603819 0 0.00129756 0 0)
(0.062373 -0.00762288 0 0.00166227 0 0)
(0.0636901 -0.00792714 0 0.00194187 0 0)
(0.0825158 -0.00793206 0 0.00170994 0 0)
(0.0838326 -0.00719494 0 0.00156986 0 0)
(0.105208 -0.00687194 0 0.00108624 0 0)
(0.106687 -0.00698781 0 0.00125732 0 0)
(0.129489 -0.0061981 0 0.000770579 0 0)
(0.130788 -0.00721192 0 0.00102113 0 0)
(0.155133 -0.00468077 0 0.000670917 0 0)
(0.159073 -0.00496637 0 0.00101325 0 0)
(0.188894 0.0011754 0 0.000894969 0 0)
(0.205668 0.00465693 0 0.00191958 0 0)
(0.255877 0.0192932 0 0.00407531 0 0)
(0.306813 0.0347859 0 0.00931309 0 0)
(0.0536933 -0.00708097 0 0.00109817 0 0)
(0.00283937 -0.00216831 0 0.00408795 0 0)
(0.0082965 -0.00474826 0 0.00378913 0 0)
(0.0213172 -0.00560438 0 0.00207002 0 0)
(0.0457912 -0.0074958 0 0.001655 0 0)
(0.0500397 -0.00818611 0 0.00202443 0 0)
(0.0698989 -0.0101192 0 0.00242573 0 0)
(0.0629305 -0.00902178 0 0.00257389 0 0)
(0.0820133 -0.00943088 0 0.00228034 0 0)
(0.0705308 -0.00710759 0 0.00192402 0 0)
(0.0893007 -0.00743266 0 0.00135324 0 0)
(0.0748001 -0.00591235 0 0.00143405 0 0)
(0.0922115 -0.00592245 0 0.000890818 0 0)
(0.0755974 -0.00506245 0 0.00117886 0 0)
(0.0918749 -0.00380468 0 0.000693168 0 0)
(0.0771517 -0.00295291 0 0.00109679 0 0)
(0.0949187 0.000778993 0 0.000715251 0 0)
(0.0902034 0.00288845 0 0.00150469 0 0)
(0.119928 0.0118606 0 0.00263872 0 0)
(0.142678 0.0186415 0 0.00543498 0 0)
(0.0510386 -0.00906933 0 0.00187447 0 0)
(0.00400618 -0.00406304 0 0.00630211 0 0)
(0.0102244 -0.00628891 0 0.00508548 0 0)
(0.0230824 -0.00692278 0 0.00282929 0 0)
(0.0383419 -0.00832532 0 0.00241246 0 0)
(0.0340058 -0.00746864 0 0.00273668 0 0)
(0.0363869 -0.00728272 0 0.00289285 0 0)
(0.0237768 -0.0041007 0 0.00266518 0 0)
(0.0246638 -0.00351417 0 0.00213487 0 0)
(0.0167106 -0.000490254 0 0.00158708 0 0)
(0.0168498 -0.0008675 0 0.00106947 0 0)
(0.0176757 0.00146765 0 0.00101796 0 0)
(0.0154395 0.000600486 0 0.000636202 0 0)
(0.0255475 0.00287171 0 0.000791603 0 0)
(0.0219247 0.00133258 0 0.000439188 0 0)
(0.0391135 0.00393498 0 0.000718407 0 0)
(0.0360704 0.00171198 0 0.000463286 0 0)
(0.0572849 0.00544219 0 0.000936243 0 0)
(0.0620822 0.00435942 0 0.0017179 0 0)
(0.0882235 0.0110262 0 0.00276166 0 0)
(0.0533108 -0.0131599 0 0.00379822 0 0)
(0.00447158 -0.00594763 0 0.00957157 0 0)
(0.00438465 -0.00310785 0 0.00586089 0 0)
(0.00646139 -0.00140206 0 0.00305268 0 0)
(0.00458716 0.000372109 0 0.00228346 0 0)
(0.00913239 0.00362049 0 0.00209253 0 0)
(0.0205391 0.00524883 0 0.00180815 0 0)
(0.0501709 0.00692759 0 0.00139476 0 0)
(0.0712196 0.00619588 0 0.000940351 0 0)
(0.11588 0.00662147 0 0.000614958 0 0)
(0.128994 0.00532482 0 0.000358698 0 0)
(0.184039 0.00601611 0 0.000332147 0 0)
(0.183043 0.0045878 0 0.000212498 0 0)
(0.247683 0.00579301 0 0.000261524 0 0)
(0.233978 0.00314115 0 0.000151504 0 0)
(0.300536 0.00520657 0 0.000266726 0 0)
(0.2784 -0.000254208 0 0.000208077 0 0)
(0.329548 0.00462477 0 0.000447685 0 0)
(0.311398 -0.00382374 0 0.000798035 0 0)
(0.326155 0.00886779 0 0.00168864 0 0)
(0.0539287 -0.0178164 0 0.00695351 0 0)
(0.00462238 0.00612934 0 0.00906395 0 0)
(0.0467567 0.0124469 0 0.0036271 0 0)
(0.0948408 0.0108639 0 0.00130231 0 0)
(0.150272 0.0095836 0 0.000657172 0 0)
(0.226371 0.00864361 0 0.000461641 0 0)
(0.293193 0.00693079 0 0.000337375 0 0)
(0.368934 0.00561827 0 0.000231685 0 0)
(0.414775 0.00414108 0 0.000139723 0 0)
(0.478094 0.00365133 0 9.34266e-05 0 0)
(0.500405 0.00282349 0 5.46363e-05 0 0)
(0.559579 0.00303533 0 5.99208e-05 0 0)
(0.563484 0.00226929 0 4.7029e-05 0 0)
(0.624854 0.00275296 0 5.35672e-05 0 0)
(0.612854 0.00123683 0 3.94176e-05 0 0)
(0.671733 0.00182713 0 5.83323e-05 0 0)
(0.643762 -0.00155344 0 6.64361e-05 0 0)
(0.678724 0.000956573 0 0.000126423 0 0)
(0.653357 -0.00616281 0 0.000265982 0 0)
(0.61721 0.00487616 0 0.000963418 0 0)
(0.0103535 -0.000676662 0 0.00117197 0 0)
(0.197003 0.00777781 0 0.000425045 0 0)
(0.385117 0.000744616 0 8.76489e-05 0 0)
(0.479366 -0.0011726 0 2.33699e-05 0 0)
(0.548269 -0.000976259 0 5.45477e-06 0 0)
(0.601787 -0.000752273 0 3.5225e-06 0 0)
(0.634798 -0.00055352 0 3.76755e-06 0 0)
(0.663272 -0.000304788 0 3.73908e-06 0 0)
(0.67869 -0.000229016 0 3.78597e-06 0 0)
(0.69812 -8.00102e-05 0 3.49705e-06 0 0)
(0.70491 -0.000117678 0 4.05911e-06 0 0)
(0.721068 6.42754e-06 0 3.92036e-06 0 0)
(0.722746 -0.000116993 0 3.40075e-06 0 0)
(0.738098 -2.03098e-06 0 2.67444e-06 0 0)
(0.733982 -0.000301804 0 2.74146e-06 0 0)
(0.745335 -0.000255204 0 2.57973e-06 0 0)
(0.730277 -0.000838004 0 4.13082e-06 0 0)
(0.727531 -0.000675906 0 7.33879e-06 0 0)
(0.70696 -0.00235711 0 1.86885e-05 0 0)
(0.645806 0.00335007 0 0.000231534 0 0)
(2.74964 -1.39822 0 0.855671 0 0)
(3.08956 -1.68213 0 1.23176 0 0)
(3.05362 -1.64019 0 1.48043 0 0)
(2.9379 -1.47236 0 1.6459 0 0)
(2.85687 -1.25997 0 1.75339 0 0)
(2.88468 -1.09522 0 1.8409 0 0)
(3.04673 -1.00822 0 1.92076 0 0)
(3.29298 -1.01708 0 2.01714 0 0)
(3.55851 -1.08814 0 2.12082 0 0)
(3.76934 -1.15697 0 2.21374 0 0)
(3.86275 -1.20391 0 2.30871 0 0)
(3.89681 -1.22021 0 2.42154 0 0)
(3.88752 -1.20411 0 2.54442 0 0)
(3.90283 -1.1775 0 2.63951 0 0)
(3.98091 -1.16241 0 2.68824 0 0)
(4.08783 -1.17416 0 2.69828 0 0)
(4.232 -1.23135 0 2.70553 0 0)
(4.36753 -1.33165 0 2.7197 0 0)
(4.46513 -1.47007 0 2.76689 0 0)
(4.55777 -1.65259 0 2.85095 0 0)
(4.55179 -1.79347 0 2.9567 0 0)
(4.52889 -1.95639 0 3.10668 0 0)
(4.54225 -2.06493 0 3.262 0 0)
(4.50913 -2.15387 0 3.44524 0 0)
(4.6085 -2.22109 0 3.62471 0 0)
(4.65992 -2.25732 0 3.8235 0 0)
(4.83866 -2.28015 0 3.98484 0 0)
(4.98906 -2.3206 0 4.12063 0 0)
(5.24616 -2.3801 0 4.22366 0 0)
(5.409 -2.47619 0 4.33293 0 0)
(5.67257 -2.61453 0 4.449 0 0)
(5.83838 -2.76969 0 4.57346 0 0)
(6.07314 -2.97116 0 4.72648 0 0)
(6.26564 -3.16608 0 4.87917 0 0)
(6.47524 -3.38582 0 5.05748 0 0)
(6.74255 -3.59451 0 5.19572 0 0)
(6.94928 -3.77348 0 5.3074 0 0)
(7.23552 -3.94633 0 5.36661 0 0)
(7.44638 -4.1131 0 5.44856 0 0)
(7.66044 -4.24263 0 5.50913 0 0)
(7.79346 -4.34623 0 5.58426 0 0)
(7.84192 -4.37904 0 5.64466 0 0)
(7.90389 -4.40886 0 5.70367 0 0)
(7.86366 -4.36402 0 5.75649 0 0)
(7.95246 -4.37359 0 5.79327 0 0)
(7.91988 -4.31039 0 5.83409 0 0)
(8.08728 -4.33439 0 5.85854 0 0)
(8.11731 -4.29383 0 5.90841 0 0)
(8.36736 -4.34367 0 5.95283 0 0)
(8.46645 -4.33172 0 6.03362 0 0)
(8.75451 -4.39256 0 6.10773 0 0)
(8.91519 -4.38653 0 6.212 0 0)
(9.1606 -4.41435 0 6.29006 0 0)
(9.36791 -4.3911 0 6.38491 0 0)
(9.50619 -4.34652 0 6.42036 0 0)
(9.74038 -4.30428 0 6.49351 0 0)
(9.78383 -4.19657 0 6.46871 0 0)
(10.0138 -4.12826 0 6.51938 0 0)
(10.0374 -4.02354 0 6.47052 0 0)
(10.2685 -3.92464 0 6.5108 0 0)
(10.3128 -3.87174 0 6.5074 0 0)
(10.6035 -3.77165 0 6.58339 0 0)
(10.6172 -3.72278 0 6.67968 0 0)
(10.9442 -3.6842 0 6.83278 0 0)
(10.8532 -3.54534 0 6.95976 0 0)
(11.1055 -3.59887 0 7.19468 0 0)
(10.9317 -3.42097 0 7.35399 0 0)
(10.9718 -3.43168 0 7.63524 0 0)
(10.6786 -3.27555 0 7.84791 0 0)
(10.6343 -3.16537 0 8.17436 0 0)
(10.2936 -3.03276 0 8.51953 0 0)
(10.2541 -2.84909 0 8.82366 0 0)
(9.90379 -2.64974 0 9.13095 0 0)
(9.96198 -2.54358 0 9.34756 0 0)
(9.62497 -2.30654 0 9.69117 0 0)
(9.7176 -2.23718 0 9.96702 0 0)
(9.43721 -1.9692 0 10.3576 0 0)
(9.54268 -1.86203 0 10.5896 0 0)
(9.32022 -1.58251 0 10.8379 0 0)
(9.28883 -1.3291 0 10.9603 0 0)
(8.9924 -0.93949 0 11.1196 0 0)
(8.76509 -0.538581 0 11.093 0 0)
(8.54263 -0.13419 0 11.2003 0 0)
(8.2577 0.254666 0 11.1939 0 0)
(8.17071 0.607726 0 11.105 0 0)
(7.8931 0.95075 0 10.8954 0 0)
(7.88941 1.23931 0 10.646 0 0)
(7.61662 1.49578 0 10.431 0 0)
(7.67504 1.79271 0 10.1851 0 0)
(7.44787 2.09937 0 10.0669 0 0)
(7.49745 2.42709 0 9.94486 0 0)
(7.29759 2.74835 0 9.81086 0 0)
(7.37522 3.11911 0 9.58694 0 0)
(7.27191 3.50093 0 9.33953 0 0)
(7.44447 3.858 0 9.0315 0 0)
(7.42765 4.17951 0 8.79275 0 0)
(7.77276 4.41809 0 8.59162 0 0)
(7.89714 4.70591 0 8.5561 0 0)
(8.09359 4.85346 0 8.61876 0 0)
(7.92711 5.13499 0 8.90765 0 0)
(7.84774 5.32516 0 9.3116 0 0)
(7.39726 5.36544 0 9.74027 0 0)
(7.10934 5.45829 0 10.6367 0 0)
(6.66478 5.35013 0 11.2112 0 0)
(6.38829 5.16659 0 11.5245 0 0)
(5.99694 4.96166 0 11.7705 0 0)
(5.8244 4.79159 0 11.9467 0 0)
(5.42937 4.59263 0 12.0418 0 0)
(5.33332 4.45956 0 11.952 0 0)
(4.90611 4.32799 0 11.9313 0 0)
(4.81416 4.16431 0 11.6094 0 0)
(4.29331 3.90108 0 11.5521 0 0)
(4.15724 3.67701 0 11.2215 0 0)
(3.62256 3.27982 0 11.3827 0 0)
(3.48331 3.12999 0 11.2519 0 0)
(3.04795 2.73867 0 11.3832 0 0)
(3.01888 2.70142 0 11.2971 0 0)
(2.69463 2.32231 0 11.2806 0 0)
(2.73923 2.35741 0 11.2361 0 0)
(2.46575 2.01621 0 11.1048 0 0)
(2.59319 2.13187 0 11.0662 0 0)
(2.33279 1.83432 0 10.8508 0 0)
(2.56655 2.07948 0 10.9389 0 0)
(2.2836 1.7961 0 10.7481 0 0)
(2.58773 2.11709 0 11.0495 0 0)
(2.26545 1.83899 0 10.9093 0 0)
(2.64426 2.25277 0 11.2979 0 0)
(2.20041 1.88419 0 11.177 0 0)
(2.7036 2.38384 0 11.5637 0 0)
(2.08793 1.82591 0 11.4572 0 0)
(2.73083 2.34527 0 11.885 0 0)
(2.01518 1.74193 0 11.8037 0 0)
(2.6416 2.15043 0 12.1094 0 0)
(1.8628 1.53809 0 11.9646 0 0)
(2.41967 1.6698 0 11.7971 0 0)
(1.59484 1.08259 0 11.5462 0 0)
(2.24312 1.14736 0 11.1143 0 0)
(1.36482 0.653422 0 10.9377 0 0)
(2.14142 0.748438 0 10.4861 0 0)
(1.20783 0.254325 0 10.1899 0 0)
(2.0481 0.317354 0 9.78999 0 0)
(1.14041 -0.122449 0 9.4264 0 0)
(2.00069 -0.0882937 0 9.19762 0 0)
(1.17579 -0.462219 0 8.82128 0 0)
(1.99085 -0.491738 0 8.72189 0 0)
(1.30496 -0.703419 0 8.36381 0 0)
(2.01777 -0.801425 0 8.33437 0 0)
(1.45593 -0.839528 0 8.06268 0 0)
(2.06665 -1.00611 0 8.07408 0 0)
(1.61496 -0.969682 0 7.83989 0 0)
(2.12935 -1.15594 0 7.83475 0 0)
(1.79941 -1.11352 0 7.57836 0 0)
(2.2124 -1.27888 0 7.55941 0 0)
(1.98098 -1.23258 0 7.27042 0 0)
(2.33866 -1.39997 0 7.27691 0 0)
(2.16086 -1.3451 0 7.00847 0 0)
(2.51179 -1.52211 0 7.01698 0 0)
(2.33928 -1.46103 0 6.77168 0 0)
(2.69259 -1.64203 0 6.75616 0 0)
(2.53696 -1.62205 0 6.52404 0 0)
(2.83654 -1.76491 0 6.53239 0 0)
(2.75908 -1.82655 0 6.25571 0 0)
(2.92136 -1.88624 0 6.32638 0 0)
(2.93144 -1.9973 0 6.06153 0 0)
(3.01307 -2.06741 0 6.15947 0 0)
(2.98046 -2.01899 0 5.91703 0 0)
(3.06347 -2.21236 0 6.01171 0 0)
(3.00766 -2.0287 0 5.82861 0 0)
(2.97679 -2.1528 0 5.874 0 0)
(2.95596 -1.96874 0 5.64005 0 0)
(2.85767 -1.96971 0 5.78651 0 0)
(2.80727 -1.80635 0 5.44995 0 0)
(2.65634 -1.61374 0 5.55179 0 0)
(2.65528 -1.48141 0 5.19651 0 0)
(2.37411 -1.17654 0 5.17267 0 0)
(2.54135 -0.987933 0 4.82795 0 0)
(2.12863 -0.698895 0 4.67707 0 0)
(2.46353 -0.460374 0 4.37883 0 0)
(1.95473 -0.212889 0 4.11364 0 0)
(2.40634 0.0132599 0 3.92026 0 0)
(1.84737 0.160178 0 3.58585 0 0)
(2.27596 0.399347 0 3.44018 0 0)
(1.78999 0.412548 0 3.1521 0 0)
(2.07344 0.593723 0 2.95662 0 0)
(1.6637 0.539788 0 2.81539 0 0)
(1.8588 0.629871 0 2.56586 0 0)
(1.48896 0.554479 0 2.53465 0 0)
(1.58968 0.591773 0 2.30228 0 0)
(1.46232 0.539578 0 2.40564 0 0)
(1.24564 0.53365 0 2.12716 0 0)
(1.40682 0.343872 0 2.28797 0 0)
(1.04159 0.510619 0 2.06359 0 0)
(1.06601 -0.113749 0 2.13436 0 0)
(0.840637 0.499542 0 2.17142 0 0)
(0.660253 -0.286877 0 2.70935 0 0)
(0.706232 0.439832 0 2.2219 0 0)
(0.576141 -0.257853 0 3.45664 0 0)
(0.453459 0.613464 0 3.29323 0 0)
(0.409282 -0.237538 0 4.58079 0 0)
(0.247838 -0.307154 0 5.09937 0 0)
(2.23747 -1.13485 0 0.985954 0 0)
(2.22382 -1.18503 0 1.28635 0 0)
(2.1083 -1.08794 0 1.37042 0 0)
(2.01526 -0.968281 0 1.41317 0 0)
(1.97259 -0.862494 0 1.4145 0 0)
(1.98939 -0.82865 0 1.40897 0 0)
(2.07228 -0.871388 0 1.43877 0 0)
(2.19193 -0.952265 0 1.50703 0 0)
(2.3317 -1.02791 0 1.58048 0 0)
(2.42745 -1.07722 0 1.64193 0 0)
(2.48938 -1.11256 0 1.70803 0 0)
(2.50648 -1.12815 0 1.78948 0 0)
(2.51357 -1.14168 0 1.87915 0 0)
(2.53911 -1.13922 0 1.95901 0 0)
(2.57308 -1.14777 0 2.02846 0 0)
(2.68892 -1.16551 0 2.07988 0 0)
(2.80369 -1.22468 0 2.13849 0 0)
(3.04215 -1.32552 0 2.19901 0 0)
(3.22319 -1.43775 0 2.2703 0 0)
(3.51022 -1.58694 0 2.35469 0 0)
(3.69664 -1.71155 0 2.45493 0 0)
(3.92931 -1.86142 0 2.57653 0 0)
(4.08511 -1.97558 0 2.71115 0 0)
(4.28044 -2.09956 0 2.85783 0 0)
(4.40806 -2.18158 0 3.01859 0 0)
(4.62879 -2.28219 0 3.19739 0 0)
(4.8105 -2.33894 0 3.37981 0 0)
(5.10142 -2.42903 0 3.54519 0 0)
(5.41077 -2.51555 0 3.69613 0 0)
(5.75706 -2.64751 0 3.83583 0 0)
(6.15456 -2.80495 0 3.96936 0 0)
(6.48265 -2.98494 0 4.10868 0 0)
(6.87745 -3.19485 0 4.25907 0 0)
(7.11767 -3.38307 0 4.41868 0 0)
(7.43021 -3.59205 0 4.58098 0 0)
(7.56978 -3.75332 0 4.74303 0 0)
(7.76296 -3.90754 0 4.87679 0 0)
(7.82866 -4.00509 0 4.98255 0 0)
(7.91891 -4.09896 0 5.06842 0 0)
(7.98153 -4.16809 0 5.14611 0 0)
(7.98775 -4.19526 0 5.19219 0 0)
(8.04693 -4.22996 0 5.25247 0 0)
(8.02879 -4.21435 0 5.2778 0 0)
(8.12267 -4.23763 0 5.34237 0 0)
(8.16389 -4.23203 0 5.37501 0 0)
(8.30264 -4.27044 0 5.46429 0 0)
(8.43782 -4.29898 0 5.52751 0 0)
(8.5943 -4.35232 0 5.64712 0 0)
(8.80674 -4.3921 0 5.74164 0 0)
(8.9204 -4.42272 0 5.88039 0 0)
(9.1731 -4.43736 0 5.98104 0 0)
(9.21312 -4.40941 0 6.10139 0 0)
(9.45876 -4.3705 0 6.17745 0 0)
(9.43789 -4.28254 0 6.25034 0 0)
(9.63385 -4.17883 0 6.29518 0 0)
(9.61304 -4.07633 0 6.33663 0 0)
(9.7563 -3.91882 0 6.3665 0 0)
(9.7833 -3.84752 0 6.42951 0 0)
(9.90356 -3.6676 0 6.48734 0 0)
(9.98035 -3.65643 0 6.62366 0 0)
(10.1087 -3.50088 0 6.70853 0 0)
(10.2174 -3.50083 0 6.85796 0 0)
(10.3542 -3.40162 0 6.92692 0 0)
(10.4929 -3.34178 0 7.04981 0 0)
(10.5438 -3.26484 0 7.1526 0 0)
(10.6304 -3.15479 0 7.29068 0 0)
(10.533 -3.07773 0 7.50527 0 0)
(10.4967 -3.00691 0 7.75267 0 0)
(10.2797 -2.87743 0 8.00312 0 0)
(10.153 -2.82179 0 8.30971 0 0)
(9.9025 -2.70541 0 8.64844 0 0)
(9.80839 -2.6048 0 9.09639 0 0)
(9.50409 -2.48003 0 9.42456 0 0)
(9.53447 -2.37221 0 9.77313 0 0)
(9.2219 -2.23884 0 10.0825 0 0)
(9.32836 -2.18831 0 10.3934 0 0)
(8.98045 -1.94517 0 10.7489 0 0)
(9.0573 -1.81668 0 10.9317 0 0)
(8.61815 -1.39356 0 11.0884 0 0)
(8.51203 -1.0916 0 11.1298 0 0)
(8.01178 -0.5872 0 11.1773 0 0)
(7.87642 -0.283272 0 11.1882 0 0)
(7.49436 0.193955 0 11.3746 0 0)
(7.39627 0.47563 0 11.3453 0 0)
(7.12915 0.883461 0 11.3036 0 0)
(7.07255 1.1832 0 11.1753 0 0)
(6.83476 1.41547 0 10.9655 0 0)
(6.85762 1.73755 0 10.7162 0 0)
(6.67605 1.95293 0 10.4276 0 0)
(6.6879 2.30246 0 10.3069 0 0)
(6.56807 2.5507 0 10.1199 0 0)
(6.64546 2.88821 0 9.83817 0 0)
(6.59141 3.22463 0 9.56471 0 0)
(6.84128 3.58938 0 9.29145 0 0)
(6.86163 3.86756 0 8.99161 0 0)
(7.28715 4.11579 0 8.77077 0 0)
(7.48773 4.33096 0 8.64573 0 0)
(7.96262 4.60101 0 8.66964 0 0)
(7.93778 4.76303 0 8.81991 0 0)
(8.04847 5.09036 0 9.16412 0 0)
(7.82059 5.29588 0 9.64193 0 0)
(7.57706 5.38734 0 10.225 0 0)
(7.21858 5.57866 0 11.1689 0 0)
(6.95232 5.50018 0 11.6491 0 0)
(6.55868 5.40937 0 11.9346 0 0)
(6.36583 5.22766 0 12.1366 0 0)
(5.99688 5.12638 0 12.2097 0 0)
(5.87427 4.92087 0 12.1701 0 0)
(5.46255 4.8062 0 12.0169 0 0)
(5.4902 4.71545 0 11.8981 0 0)
(4.98948 4.50496 0 11.5931 0 0)
(5.13917 4.45321 0 11.5954 0 0)
(4.45134 4.09932 0 11.41 0 0)
(4.55921 3.92555 0 11.6311 0 0)
(3.65614 3.43044 0 11.4493 0 0)
(3.85264 3.20346 0 11.47 0 0)
(2.99439 2.75216 0 11.3455 0 0)
(3.3631 2.65247 0 11.2715 0 0)
(2.57499 2.29828 0 11.2154 0 0)
(3.04515 2.27088 0 11.0005 0 0)
(2.32117 1.95389 0 10.9433 0 0)
(2.84653 2.00623 0 10.7057 0 0)
(2.19632 1.78469 0 10.7662 0 0)
(2.77076 1.86675 0 10.607 0 0)
(2.13682 1.72749 0 10.7974 0 0)
(2.74509 1.83552 0 10.661 0 0)
(2.12531 1.84169 0 10.9983 0 0)
(2.72875 1.882 0 10.843 0 0)
(2.1323 1.98176 0 11.3223 0 0)
(2.73964 1.88712 0 11.1888 0 0)
(2.08529 1.87456 0 11.5916 0 0)
(2.81578 1.89848 0 11.5385 0 0)
(2.01275 1.75977 0 11.8295 0 0)
(2.80466 1.82309 0 11.8531 0 0)
(1.87143 1.52508 0 11.7458 0 0)
(2.55124 1.38642 0 11.5326 0 0)
(1.70642 1.08617 0 11.137 0 0)
(2.29147 0.877 0 10.8501 0 0)
(1.60975 0.673715 0 10.5043 0 0)
(2.16521 0.454341 0 10.1199 0 0)
(1.53192 0.239015 0 9.82281 0 0)
(2.14483 0.0523249 0 9.3824 0 0)
(1.50603 -0.167204 0 9.21967 0 0)
(2.22396 -0.27161 0 8.823 0 0)
(1.49838 -0.506563 0 8.73703 0 0)
(2.34615 -0.533927 0 8.39204 0 0)
(1.5099 -0.740868 0 8.35006 0 0)
(2.49453 -0.756405 0 8.0754 0 0)
(1.55558 -0.917501 0 8.07589 0 0)
(2.67715 -0.966708 0 7.80962 0 0)
(1.6134 -1.0639 0 7.82423 0 0)
(2.87498 -1.16471 0 7.53185 0 0)
(1.67092 -1.17017 0 7.54508 0 0)
(3.07351 -1.35858 0 7.23839 0 0)
(1.77018 -1.28667 0 7.25249 0 0)
(3.26801 -1.55594 0 6.96642 0 0)
(1.91727 -1.41634 0 6.98147 0 0)
(3.44061 -1.74582 0 6.74118 0 0)
(2.09555 -1.55962 0 6.73166 0 0)
(3.57432 -1.95076 0 6.5324 0 0)
(2.2625 -1.71274 0 6.49259 0 0)
(3.6545 -2.15549 0 6.30223 0 0)
(2.37508 -1.86168 0 6.30198 0 0)
(3.68437 -2.35355 0 6.09924 0 0)
(2.43455 -1.98187 0 6.09867 0 0)
(3.57032 -2.42567 0 5.96298 0 0)
(2.47115 -2.0986 0 5.93133 0 0)
(3.31539 -2.36593 0 5.86024 0 0)
(2.40409 -2.05149 0 5.74796 0 0)
(3.03671 -2.2629 0 5.71924 0 0)
(2.27765 -1.86857 0 5.60783 0 0)
(2.71154 -1.97728 0 5.45592 0 0)
(2.12131 -1.57801 0 5.31149 0 0)
(2.42163 -1.53915 0 5.14061 0 0)
(1.96367 -1.19496 0 4.91467 0 0)
(2.20055 -1.05038 0 4.70842 0 0)
(1.9059 -0.783922 0 4.48715 0 0)
(2.02839 -0.547462 0 4.24885 0 0)
(1.95923 -0.398619 0 4.0408 0 0)
(1.93985 -0.155641 0 3.80476 0 0)
(2.06881 -0.00307678 0 3.65618 0 0)
(1.85368 0.086988 0 3.33846 0 0)
(2.16596 0.287538 0 3.34249 0 0)
(1.77984 0.308444 0 2.9614 0 0)
(2.13473 0.347779 0 3.0332 0 0)
(1.67442 0.527454 0 2.64492 0 0)
(1.90733 0.263661 0 2.80311 0 0)
(1.51322 0.618713 0 2.29899 0 0)
(1.47777 0.108265 0 2.73765 0 0)
(1.44842 0.66974 0 2.12362 0 0)
(1.05458 -0.0692221 0 2.73453 0 0)
(1.32043 0.612258 0 1.9813 0 0)
(0.927735 -0.13102 0 2.94708 0 0)
(1.02676 0.282856 0 1.73431 0 0)
(1.07198 -0.160116 0 3.34233 0 0)
(0.60444 0.304716 0 2.36837 0 0)
(1.11862 -0.537881 0 3.59992 0 0)
(0.529214 0.565213 0 3.13629 0 0)
(0.680664 0.338627 0 5.30487 0 0)
(0.328158 -0.122174 0 6.76897 0 0)