/*--------------------------------*- C++ -*----------------------------------*\
| =========                 |                                                 |
| \\      /  F ield         | OpenFOAM: The Open Source CFD Toolbox           |
|  \\    /   O peration     | Version:  2.4.0                                 |
|   \\  /    A nd           | Web:      www.OpenFOAM.org                      |
|    \\/     M anipulation  |                                                 |
\*---------------------------------------------------------------------------*/
FoamFile
{
    version     2.0;
    format      ascii;
    class       volScalarField;
    location    "0.58";
    object      p;
}
// * * * * * * * * * * * * * * * * * * * * * * * * * * * * * * * * * * * * * //

dimensions      [0 2 -2 0 0 0 0];

internalField   nonuniform List<scalar> 
4400
(
-15.2014
-15.5502
-15.5609
-15.6069
-15.82
-15.8516
-15.8847
-15.8155
-16.3572
-16.1822
-17.0839
-16.1454
-16.9538
-16.9898
-15.1002
-20.7586
-15.4845
-15.2643
-21.4855
-4.13744
-15.2811
-15.5506
-15.5627
-15.5987
-15.832
-15.8656
-15.9144
-15.8935
-16.4145
-16.2145
-17.1661
-16.0735
-16.8091
-17.6022
-15.7766
-20.825
-15.647
-15.7047
-21.6987
-6.20212
-15.2862
-15.5509
-15.5547
-15.602
-15.8583
-15.9099
-16.0844
-16.0715
-16.6684
-16.3637
-16.9614
-16.2158
-17.3036
-18.5428
-16.298
-21.1369
-15.872
-16.1124
-21.5048
-8.49084
-15.3553
-15.5386
-15.5541
-15.5996
-15.8864
-15.9678
-16.2352
-16.2458
-16.7944
-16.3202
-16.756
-16.6519
-17.8841
-18.6834
-15.8971
-19.5718
-16.4247
-16.0996
-20.6809
-10.8355
-15.3551
-15.5516
-15.5546
-15.5982
-15.912
-15.99
-16.3279
-16.2441
-16.7811
-16.2928
-16.6454
-17.1356
-17.8235
-18.4431
-15.7213
-19.5281
-16.7251
-16.0298
-20.2734
-12.6753
-15.412
-15.5337
-15.5535
-15.5956
-15.9232
-15.9877
-16.3272
-16.1846
-16.7108
-16.3042
-16.705
-17.2891
-17.4968
-18.1615
-15.8464
-19.1547
-16.9425
-16.0494
-19.9051
-14.1279
-15.4111
-15.542
-15.5561
-15.5914
-15.93
-15.9761
-16.296
-16.1221
-16.651
-16.3579
-16.6495
-17.308
-17.1191
-17.9723
-16.0463
-18.8765
-17.2285
-16.1679
-19.6233
-15.4261
-15.4512
-15.5307
-15.5495
-15.5891
-15.9318
-15.9619
-16.2581
-16.0772
-16.5987
-16.4019
-16.579
-17.2218
-16.8863
-17.8706
-16.1903
-18.68
-17.3798
-16.3284
-19.4991
-16.4208
-15.4547
-15.5265
-15.5631
-15.5846
-15.9309
-15.9525
-16.2191
-16.0468
-16.557
-16.433
-16.51
-17.139
-16.7375
-17.7845
-16.3926
-18.3835
-17.6438
-16.532
-19.3705
-17.4998
-15.474
-15.5221
-15.5524
-15.586
-15.9285
-15.9437
-16.1857
-16.0338
-16.5157
-16.4736
-16.4358
-17.085
-16.6421
-17.6976
-16.5351
-18.1673
-17.8137
-16.7428
-19.3378
-18.0521
-15.4829
-15.5084
-15.558
-15.5847
-15.9225
-15.9439
-16.1545
-16.0344
-16.4843
-16.4973
-16.3668
-17.0415
-16.5769
-17.586
-16.6995
-17.9419
-17.9486
-16.9242
-19.2516
-18.6165
-15.4859
-15.5134
-15.5517
-15.5861
-15.9188
-15.9417
-16.1299
-16.0455
-16.4491
-16.5253
-16.3037
-16.9977
-16.5463
-17.4816
-16.7232
-17.7421
-18.075
-17.0715
-19.1759
-19.0987
-15.4905
-15.492
-15.5507
-15.5901
-15.9098
-15.9482
-16.1037
-16.0607
-16.4214
-16.5446
-16.2394
-16.9686
-16.5331
-17.3701
-16.8823
-17.5653
-18.1556
-17.2345
-19.1089
-19.4487
-15.4834
-15.4991
-15.5471
-15.5929
-15.9056
-15.9504
-16.0833
-16.082
-16.3896
-16.5619
-16.1869
-16.9352
-16.5355
-17.2754
-16.9905
-17.4094
-18.2329
-17.3652
-19.0223
-19.7728
-15.4787
-15.4755
-15.544
-15.5991
-15.8966
-15.9598
-16.0626
-16.102
-16.3651
-16.5735
-16.135
-16.9119
-16.5495
-17.1758
-17.127
-17.2752
-18.2651
-17.5165
-18.949
-19.9911
-15.4648
-15.4828
-15.5417
-15.6034
-15.8918
-15.9626
-16.0455
-16.1241
-16.3362
-16.5813
-16.0963
-16.8851
-16.5672
-17.0961
-17.2092
-17.161
-18.3006
-17.6257
-18.8649
-20.2005
-15.4486
-15.4695
-15.5412
-15.6102
-15.8843
-15.972
-16.0314
-16.1413
-16.3194
-16.5849
-16.0626
-16.8659
-16.5892
-17.0177
-17.3109
-17.0729
-18.2965
-17.7545
-18.7991
-20.3132
-15.4245
-15.4635
-15.54
-15.6138
-15.8801
-15.9712
-16.0199
-16.1569
-16.2982
-16.5875
-16.0396
-16.8488
-16.6053
-16.9604
-17.3677
-16.9935
-18.307
-17.837
-18.7328
-20.4398
-15.4
-15.4592
-15.5438
-15.6198
-15.8762
-15.9832
-16.0133
-16.1668
-16.2854
-16.5917
-16.0221
-16.8378
-16.6219
-16.9068
-17.4252
-16.9456
-18.2893
-17.9173
-18.575
-20.4869
-15.3506
-15.4507
-15.5441
-15.62
-15.8739
-15.9785
-16.009
-16.1726
-16.2786
-16.5904
-16.0208
-16.8318
-16.6236
-16.885
-17.4429
-16.9207
-18.2825
-17.9421
-18.586
-20.5162
-14.6979
-41.1982
-48.0365
-45.0637
-39.7414
-32.6941
-21.607
-11.9255
-5.57194
-1.84165
0.311209
1.46975
2.04916
2.31236
2.4203
2.45878
2.46633
2.4592
2.44492
2.42697
2.40695
2.38569
2.36368
2.34115
2.31825
2.29506
2.27162
2.24798
2.22413
2.2001
2.17589
2.1515
2.12694
2.1022
2.07729
2.0522
2.02693
2.00149
1.97587
1.95007
1.92409
1.89793
1.87158
1.84505
1.81834
1.79144
1.76435
1.73707
1.70959
1.68193
1.65407
1.62602
1.59777
1.56932
1.54068
1.51183
1.48278
1.45353
1.42407
1.3944
1.36452
1.33444
1.30414
1.27363
1.24291
1.21197
1.18081
1.14943
1.11783
1.08601
1.05396
1.02169
0.989187
0.956458
0.923499
0.890307
0.856882
0.823221
0.789323
0.755186
0.720809
0.686189
0.651326
0.616217
0.580861
0.545257
0.509401
0.473294
0.436932
0.400317
0.363441
0.326308
0.288916
0.251253
0.213342
0.175145
0.13669
0.0979748
0.0589587
0.0196938
-16.9239
-40.5161
-45.9145
-42.6156
-37.8523
-31.6162
-21.2784
-12.087
-5.96625
-2.22262
0.0191843
1.24552
1.88912
2.205
2.34884
2.41083
2.4342
2.43781
2.43079
2.41769
2.40088
2.38174
2.36111
2.33948
2.31717
2.29437
2.27118
2.24769
2.22395
2.19999
2.17582
2.15146
2.12691
2.10218
2.07728
2.05219
2.02693
2.00149
1.97587
1.95007
1.92409
1.89793
1.87158
1.84505
1.81834
1.79144
1.76435
1.73707
1.70959
1.68193
1.65407
1.62602
1.59777
1.56932
1.54068
1.51183
1.48278
1.45353
1.42407
1.3944
1.36452
1.33444
1.30414
1.27363
1.24291
1.21197
1.18081
1.14943
1.11783
1.08601
1.05396
1.02169
0.989187
0.956459
0.923498
0.890308
0.856882
0.823221
0.789323
0.755186
0.720809
0.686189
0.651326
0.616217
0.580861
0.545256
0.509401
0.473294
0.436932
0.400316
0.363441
0.326308
0.288917
0.251253
0.213343
0.175143
0.136691
0.097974
0.0589589
0.0196938
-17.0257
-38.1538
-43.7745
-40.2485
-36.1154
-30.4484
-20.974
-12.2792
-6.27038
-2.55593
-0.268145
1.03521
1.74014
2.10051
2.27753
2.36302
2.40241
2.41674
2.41687
2.40853
2.39488
2.37782
2.35856
2.33784
2.31611
2.29368
2.27074
2.24741
2.22377
2.19987
2.17575
2.15141
2.12688
2.10217
2.07727
2.05219
2.02693
2.00149
1.97587
1.95007
1.92409
1.89793
1.87158
1.84505
1.81834
1.79144
1.76435
1.73707
1.70959
1.68193
1.65407
1.62602
1.59777
1.56932
1.54068
1.51183
1.48278
1.45353
1.42407
1.3944
1.36452
1.33444
1.30414
1.27363
1.24291
1.21197
1.18081
1.14943
1.11783
1.086
1.05396
1.02169
0.989187
0.956459
0.923498
0.890308
0.856882
0.823221
0.789323
0.755186
0.720809
0.686189
0.651326
0.616217
0.580861
0.545256
0.509401
0.473294
0.436932
0.400316
0.363441
0.326308
0.288917
0.251253
0.213343
0.175143
0.136691
0.0979741
0.058959
0.0196938
-17.1002
-35.7285
-40.4203
-37.4256
-34.5058
-29.5022
-20.5183
-12.3989
-6.60757
-2.88028
-0.55332
0.817272
1.59429
2.00282
2.20988
2.31627
2.37088
2.3958
2.40309
2.3995
2.38898
2.37397
2.35606
2.33621
2.31506
2.29301
2.27031
2.24714
2.2236
2.19976
2.17568
2.15137
2.12685
2.10215
2.07725
2.05218
2.02692
2.00148
1.97587
1.95007
1.92409
1.89793
1.87158
1.84505
1.81834
1.79144
1.76435
1.73707
1.70959
1.68193
1.65407
1.62602
1.59777
1.56932
1.54068
1.51183
1.48278
1.45353
1.42407
1.3944
1.36452
1.33444
1.30414
1.27363
1.24291
1.21197
1.18081
1.14943
1.11783
1.086
1.05396
1.02169
0.989187
0.956458
0.923498
0.890307
0.856882
0.823221
0.789323
0.755186
0.720809
0.686189
0.651326
0.616217
0.580861
0.545256
0.509401
0.473294
0.436932
0.400316
0.363441
0.326308
0.288917
0.251253
0.213343
0.175143
0.136691
0.0979742
0.058959
0.0196938
-17.3928
-33.4829
-37.911
-35.2874
-32.6832
-28.4515
-20.3208
-12.5694
-6.93362
-3.21819
-0.813994
0.617375
1.44634
1.90252
2.14427
2.27226
2.34114
2.37583
2.3898
2.39073
2.38322
2.37022
2.35362
2.33463
2.31404
2.29235
2.26989
2.24687
2.22342
2.19965
2.17561
2.15132
2.12683
2.10213
2.07724
2.05217
2.02692
2.00148
1.97586
1.95007
1.92409
1.89793
1.87158
1.84505
1.81834
1.79144
1.76435
1.73707
1.70959
1.68193
1.65407
1.62602
1.59777
1.56932
1.54068
1.51183
1.48278
1.45353
1.42407
1.3944
1.36452
1.33444
1.30414
1.27363
1.24291
1.21196
1.18081
1.14943
1.11783
1.086
1.05396
1.02169
0.989187
0.956458
0.923498
0.890307
0.856882
0.823221
0.789323
0.755186
0.720809
0.686189
0.651326
0.616217
0.580861
0.545256
0.509401
0.473294
0.436932
0.400316
0.363441
0.326308
0.288916
0.251253
0.213343
0.175143
0.136691
0.0979742
0.058959
0.0196938
-17.4492
-31.4482
-36.2692
-33.621
-31.0157
-27.0991
-19.8749
-12.6071
-7.14141
-3.5561
-1.12358
0.425033
1.32049
1.80572
2.07451
2.22534
2.31048
2.35583
2.37673
2.38219
2.37763
2.36657
2.35124
2.33309
2.31305
2.29171
2.26948
2.2466
2.22326
2.19955
2.17554
2.15128
2.1268
2.10211
2.07723
2.05217
2.02691
2.00148
1.97586
1.95007
1.92409
1.89793
1.87158
1.84505
1.81834
1.79144
1.76435
1.73707
1.70959
1.68193
1.65407
1.62602
1.59777
1.56932
1.54068
1.51183
1.48278
1.45353
1.42407
1.3944
1.36452
1.33444
1.30414
1.27363
1.24291
1.21196
1.18081
1.14943
1.11783
1.086
1.05396
1.02169
0.989186
0.956458
0.923498
0.890307
0.856882
0.823221
0.789323
0.755186
0.720808
0.686189
0.651326
0.616217
0.580861
0.545256
0.509401
0.473294
0.436932
0.400316
0.363441
0.326308
0.288916
0.251253
0.213343
0.175144
0.136691
0.0979742
0.058959
0.0196938
-17.8731
-29.9662
-33.8902
-31.7787
-29.7531
-26.2846
-19.5435
-12.6656
-7.37169
-3.81129
-1.42103
0.192537
1.19577
1.73504
2.02397
2.18707
2.28322
2.33719
2.3643
2.374
2.37226
2.36306
2.34896
2.33161
2.31209
2.29109
2.26908
2.24635
2.2231
2.19944
2.17547
2.15124
2.12677
2.1021
2.07722
2.05216
2.02691
2.00148
1.97586
1.95007
1.92409
1.89793
1.87158
1.84505
1.81834
1.79144
1.76435
1.73707
1.70959
1.68193
1.65407
1.62602
1.59777
1.56932
1.54068
1.51183
1.48278
1.45353
1.42407
1.3944
1.36452
1.33444
1.30414
1.27363
1.24291
1.21196
1.18081
1.14943
1.11783
1.086
1.05396
1.02169
0.989186
0.956458
0.923498
0.890307
0.856882
0.823221
0.789323
0.755186
0.720808
0.686189
0.651326
0.616217
0.580861
0.545256
0.509401
0.473294
0.436932
0.400316
0.363441
0.326308
0.288916
0.251253
0.213343
0.175144
0.136691
0.0979743
0.058959
0.0196938
-18.3197
-28.5818
-32.5713
-30.6728
-28.6561
-25.5194
-19.0725
-12.5552
-7.55578
-4.07785
-1.63842
-0.0117073
1.02279
1.61617
1.95188
2.14289
2.25528
2.31905
2.35237
2.36615
2.36712
2.3597
2.34678
2.3302
2.31118
2.2905
2.2687
2.24611
2.22294
2.19935
2.17541
2.1512
2.12675
2.10208
2.07721
2.05215
2.02691
2.00147
1.97586
1.95007
1.92409
1.89793
1.87158
1.84505
1.81834
1.79144
1.76435
1.73707
1.70959
1.68193
1.65407
1.62602
1.59777
1.56932
1.54068
1.51183
1.48278
1.45353
1.42407
1.3944
1.36452
1.33444
1.30414
1.27363
1.24291
1.21196
1.18081
1.14943
1.11783
1.086
1.05396
1.02169
0.989186
0.956458
0.923498
0.890307
0.856882
0.823221
0.789323
0.755186
0.720808
0.686189
0.651325
0.616217
0.580861
0.545256
0.509401
0.473294
0.436932
0.400316
0.363441
0.326308
0.288916
0.251253
0.213343
0.175144
0.136691
0.0979743
0.058959
0.0196938
-18.7593
-27.4869
-31.1814
-29.4462
-27.5585
-24.7516
-18.8474
-12.6125
-7.67051
-4.30829
-1.88732
-0.140124
0.978108
1.57348
1.90628
2.10621
2.22939
2.3018
2.34108
2.35876
2.36228
2.35654
2.34472
2.32886
2.31031
2.28995
2.26834
2.24588
2.2228
2.19925
2.17535
2.15116
2.12673
2.10207
2.0772
2.05215
2.0269
2.00147
1.97586
1.95006
1.92409
1.89793
1.87158
1.84505
1.81834
1.79144
1.76435
1.73707
1.70959
1.68193
1.65407
1.62602
1.59777
1.56932
1.54068
1.51183
1.48278
1.45353
1.42407
1.3944
1.36452
1.33444
1.30414
1.27363
1.24291
1.21196
1.18081
1.14943
1.11783
1.086
1.05396
1.02169
0.989186
0.956458
0.923498
0.890307
0.856882
0.823221
0.789323
0.755186
0.720808
0.686189
0.651325
0.616217
0.580861
0.545256
0.509401
0.473294
0.436932
0.400316
0.363441
0.326308
0.288916
0.251253
0.213343
0.175144
0.136691
0.0979743
0.058959
0.0196938
-19.1205
-26.6361
-30.022
-28.3771
-26.6157
-23.9995
-18.4596
-12.6599
-7.8803
-4.47272
-2.09056
-0.400144
0.789209
1.47431
1.85012
2.07142
2.20602
2.28596
2.33046
2.35175
2.35769
2.35355
2.34277
2.3276
2.3095
2.28942
2.26801
2.24566
2.22266
2.19917
2.1753
2.15113
2.1267
2.10205
2.0772
2.05214
2.0269
2.00147
1.97586
1.95006
1.92409
1.89793
1.87158
1.84505
1.81834
1.79144
1.76435
1.73707
1.70959
1.68193
1.65407
1.62602
1.59777
1.56932
1.54068
1.51183
1.48278
1.45353
1.42407
1.3944
1.36452
1.33444
1.30414
1.27363
1.24291
1.21196
1.18081
1.14943
1.11783
1.086
1.05396
1.02169
0.989186
0.956458
0.923498
0.890307
0.856881
0.82322
0.789323
0.755186
0.720808
0.686189
0.651325
0.616217
0.580861
0.545256
0.509401
0.473294
0.436932
0.400316
0.363441
0.326308
0.288916
0.251253
0.213343
0.175144
0.136691
0.0979743
0.058959
0.0196939
-19.4632
-25.8849
-29.0404
-27.5029
-25.8271
-23.4198
-18.1069
-12.4536
-8.04366
-4.78497
-2.23508
-0.374052
0.758891
1.40926
1.78839
2.03257
2.18237
2.27102
2.3208
2.3454
2.3535
2.3508
2.34098
2.32644
2.30874
2.28894
2.2677
2.24546
2.22253
2.19908
2.17525
2.1511
2.12668
2.10204
2.07719
2.05214
2.0269
2.00147
1.97586
1.95006
1.92409
1.89793
1.87158
1.84505
1.81834
1.79144
1.76435
1.73707
1.7096
1.68193
1.65407
1.62602
1.59777
1.56932
1.54068
1.51183
1.48278
1.45353
1.42407
1.3944
1.36452
1.33444
1.30414
1.27363
1.24291
1.21196
1.18081
1.14943
1.11783
1.086
1.05396
1.02169
0.989186
0.956458
0.923498
0.890307
0.856881
0.82322
0.789323
0.755186
0.720808
0.686189
0.651325
0.616217
0.580861
0.545256
0.509401
0.473294
0.436932
0.400316
0.363441
0.326308
0.288916
0.251253
0.213343
0.175144
0.13669
0.0979743
0.0589591
0.0196939
-19.7496
-25.2599
-28.2043
-26.7823
-25.1332
-22.8211
-17.8563
-12.4277
-8.05431
-4.9466
-2.65401
-0.694539
0.661882
1.40967
1.77041
2.00705
2.16287
2.25728
2.31162
2.33939
2.34959
2.34826
2.33933
2.32537
2.30805
2.28849
2.26741
2.24528
2.22241
2.19901
2.1752
2.15107
2.12667
2.10203
2.07718
2.05213
2.02689
2.00147
1.97586
1.95006
1.92409
1.89793
1.87158
1.84505
1.81834
1.79144
1.76435
1.73707
1.7096
1.68193
1.65407
1.62602
1.59777
1.56932
1.54068
1.51183
1.48278
1.45353
1.42407
1.3944
1.36452
1.33444
1.30414
1.27363
1.24291
1.21196
1.18081
1.14943
1.11783
1.086
1.05396
1.02169
0.989186
0.956458
0.923498
0.890307
0.856881
0.82322
0.789323
0.755185
0.720808
0.686189
0.651325
0.616217
0.580861
0.545256
0.509401
0.473294
0.436932
0.400316
0.363441
0.326308
0.288916
0.251253
0.213343
0.175144
0.13669
0.0979743
0.0589591
0.0196939
-19.9749
-24.7705
-27.4982
-26.1285
-24.5431
-22.3744
-17.5315
-12.4109
-8.2505
-5.10233
-2.61998
-0.774887
0.421802
1.20023
1.68873
1.9739
2.14372
2.2453
2.30376
2.33418
2.34614
2.34599
2.33784
2.3244
2.30743
2.28809
2.26715
2.24512
2.22231
2.19894
2.17516
2.15104
2.12665
2.10202
2.07717
2.05213
2.02689
2.00147
1.97586
1.95006
1.92409
1.89793
1.87158
1.84505
1.81834
1.79144
1.76435
1.73707
1.7096
1.68193
1.65407
1.62602
1.59777
1.56932
1.54068
1.51183
1.48278
1.45353
1.42407
1.3944
1.36452
1.33444
1.30414
1.27363
1.24291
1.21196
1.18081
1.14943
1.11783
1.086
1.05396
1.02169
0.989186
0.956458
0.923498
0.890307
0.856881
0.82322
0.789322
0.755185
0.720808
0.686189
0.651325
0.616217
0.580861
0.545256
0.509401
0.473294
0.436932
0.400316
0.363441
0.326308
0.288916
0.251253
0.213343
0.175144
0.13669
0.0979743
0.0589591
0.0196939
-20.1677
-24.2937
-26.8905
-25.6171
-24.015
-21.9132
-17.2442
-12.197
-8.31805
-5.35469
-2.80294
-0.718047
0.59729
1.29331
1.68626
1.95323
2.12781
2.23422
2.29645
2.32941
2.34303
2.34396
2.33653
2.32355
2.30688
2.28773
2.26692
2.24497
2.22222
2.19888
2.17512
2.15102
2.12663
2.10201
2.07717
2.05213
2.02689
2.00146
1.97585
1.95006
1.92409
1.89793
1.87158
1.84505
1.81834
1.79144
1.76435
1.73707
1.7096
1.68193
1.65407
1.62602
1.59777
1.56932
1.54068
1.51183
1.48278
1.45353
1.42407
1.3944
1.36452
1.33444
1.30414
1.27363
1.24291
1.21196
1.18081
1.14943
1.11783
1.086
1.05396
1.02169
0.989186
0.956458
0.923498
0.890307
0.856881
0.82322
0.789322
0.755185
0.720808
0.686189
0.651325
0.616217
0.580861
0.545256
0.509401
0.473294
0.436932
0.400316
0.363441
0.326308
0.288916
0.251253
0.213343
0.175144
0.13669
0.0979743
0.0589592
0.0196939
-20.3487
-23.96
-26.3795
-25.1704
-23.6148
-21.5131
-16.9548
-12.2279
-8.5102
-5.51569
-2.95422
-1.08626
0.203452
1.07632
1.61557
1.92685
2.11301
2.22491
2.29037
2.3254
2.34038
2.34222
2.33539
2.32281
2.3064
2.28743
2.26673
2.24484
2.22214
2.19883
2.17509
2.151
2.12662
2.102
2.07716
2.05212
2.02689
2.00146
1.97585
1.95006
1.92409
1.89793
1.87158
1.84505
1.81834
1.79144
1.76435
1.73707
1.7096
1.68193
1.65407
1.62602
1.59777
1.56932
1.54068
1.51183
1.48278
1.45353
1.42407
1.3944
1.36452
1.33444
1.30414
1.27363
1.24291
1.21196
1.18081
1.14943
1.11783
1.086
1.05396
1.02169
0.989186
0.956458
0.923498
0.890307
0.856881
0.82322
0.789322
0.755185
0.720808
0.686189
0.651325
0.616217
0.580861
0.545256
0.509401
0.473294
0.436932
0.400316
0.363441
0.326308
0.288916
0.251253
0.213343
0.175144
0.13669
0.0979743
0.0589592
0.0196939
-20.4751
-23.6096
-25.9698
-24.8338
-23.2382
-21.1959
-16.7135
-12.0977
-8.6064
-5.73296
-3.07258
-0.923908
0.430732
1.18636
1.62585
1.91444
2.10215
2.21729
2.28524
2.322
2.33815
2.34076
2.33444
2.32219
2.306
2.28717
2.26656
2.24474
2.22207
2.19879
2.17506
2.15098
2.12661
2.102
2.07716
2.05212
2.02688
2.00146
1.97585
1.95006
1.92408
1.89793
1.87158
1.84505
1.81834
1.79144
1.76435
1.73707
1.7096
1.68193
1.65407
1.62602
1.59777
1.56932
1.54068
1.51183
1.48278
1.45353
1.42407
1.3944
1.36452
1.33444
1.30414
1.27363
1.24291
1.21196
1.18081
1.14943
1.11783
1.086
1.05396
1.02169
0.989186
0.956458
0.923498
0.890307
0.856881
0.82322
0.789322
0.755185
0.720808
0.686189
0.651325
0.616216
0.580861
0.545256
0.509401
0.473294
0.436932
0.400316
0.363441
0.326308
0.288916
0.251253
0.213343
0.175144
0.13669
0.0979743
0.0589593
0.019694
-20.6101
-23.4249
-25.6047
-24.5656
-22.9916
-20.8743
-16.4395
-12.0258
-8.69456
-5.8108
-3.20385
-1.21766
0.13277
1.01561
1.56783
1.89345
2.09195
2.21098
2.28115
2.31931
2.33637
2.33959
2.33368
2.3217
2.30568
2.28696
2.26643
2.24465
2.22201
2.19876
2.17504
2.15097
2.1266
2.10199
2.07716
2.05212
2.02688
2.00146
1.97585
1.95006
1.92408
1.89793
1.87158
1.84505
1.81834
1.79144
1.76435
1.73707
1.7096
1.68193
1.65407
1.62602
1.59777
1.56932
1.54068
1.51183
1.48278
1.45353
1.42407
1.3944
1.36452
1.33444
1.30414
1.27363
1.24291
1.21196
1.18081
1.14943
1.11783
1.086
1.05396
1.02169
0.989186
0.956458
0.923498
0.890307
0.856881
0.82322
0.789322
0.755185
0.720808
0.686189
0.651325
0.616216
0.580861
0.545256
0.509401
0.473294
0.436932
0.400316
0.363441
0.326308
0.288916
0.251253
0.213343
0.175144
0.13669
0.0979743
0.0589593
0.019694
-20.6934
-23.1922
-25.3516
-24.3926
-22.7893
-20.6567
-16.1954
-11.9163
-8.86317
-6.11615
-3.34523
-1.14583
0.248309
1.07292
1.57444
1.89188
2.08615
2.20667
2.27819
2.31732
2.33505
2.33872
2.33311
2.32133
2.30544
2.28681
2.26633
2.24459
2.22197
2.19873
2.17502
2.15096
2.1266
2.10199
2.07715
2.05212
2.02688
2.00146
1.97585
1.95006
1.92408
1.89793
1.87158
1.84505
1.81834
1.79144
1.76435
1.73707
1.7096
1.68193
1.65407
1.62602
1.59777
1.56932
1.54068
1.51183
1.48278
1.45353
1.42407
1.3944
1.36452
1.33444
1.30414
1.27363
1.24291
1.21196
1.18081
1.14943
1.11783
1.086
1.05396
1.02169
0.989186
0.956458
0.923498
0.890307
0.856881
0.82322
0.789322
0.755185
0.720808
0.686189
0.651325
0.616216
0.580861
0.545256
0.509401
0.473294
0.436932
0.400316
0.363441
0.326308
0.288916
0.251253
0.213342
0.175144
0.13669
0.0979743
0.0589594
0.019694
-20.7732
-22.9819
-25.1145
-24.2857
-22.7154
-20.3848
-15.9383
-11.8447
-8.94357
-6.13434
-3.38761
-1.27792
0.121025
1.00587
1.54954
1.88214
2.08176
2.20389
2.27641
2.31612
2.33424
2.33818
2.33275
2.32109
2.30529
2.28671
2.26627
2.24455
2.22195
2.19872
2.17501
2.15095
2.12659
2.10198
2.07715
2.05212
2.02688
2.00146
1.97585
1.95006
1.92408
1.89793
1.87158
1.84505
1.81834
1.79144
1.76435
1.73707
1.7096
1.68193
1.65407
1.62602
1.59777
1.56932
1.54068
1.51183
1.48278
1.45353
1.42407
1.3944
1.36452
1.33444
1.30414
1.27363
1.24291
1.21196
1.18081
1.14943
1.11783
1.086
1.05396
1.02169
0.989186
0.956458
0.923498
0.890307
0.856881
0.82322
0.789322
0.755185
0.720808
0.686189
0.651325
0.616216
0.58086
0.545256
0.509401
0.473294
0.436932
0.400316
0.363441
0.326308
0.288916
0.251253
0.213342
0.175144
0.13669
0.0979743
0.0589595
0.019694
-20.8105
-22.8863
-24.9949
-24.2449
-22.6528
-20.2679
-15.7843
-11.7232
-8.96787
-6.25122
-3.44915
-1.25825
0.165735
1.0299
1.55648
1.88203
2.08052
2.20272
2.27553
2.3155
2.33382
2.3379
2.33257
2.32097
2.30521
2.28666
2.26624
2.24453
2.22194
2.19871
2.17501
2.15095
2.12659
2.10198
2.07715
2.05211
2.02688
2.00146
1.97585
1.95006
1.92408
1.89793
1.87158
1.84505
1.81834
1.79144
1.76435
1.73707
1.7096
1.68193
1.65407
1.62602
1.59777
1.56932
1.54068
1.51183
1.48278
1.45353
1.42407
1.3944
1.36452
1.33444
1.30414
1.27363
1.24291
1.21196
1.18081
1.14943
1.11783
1.086
1.05396
1.02169
0.989186
0.956458
0.923498
0.890307
0.856881
0.82322
0.789322
0.755185
0.720808
0.686189
0.651325
0.616216
0.58086
0.545256
0.509401
0.473294
0.436932
0.400316
0.363441
0.326308
0.288916
0.251253
0.213342
0.175144
0.13669
0.0979742
0.0589596
0.019694
-27.1718
-30.2627
-36.9673
-43.6825
-41.4531
-30.6337
-16.5101
-5.30148
1.55928
4.36193
4.99788
4.78942
4.31089
3.82711
3.43024
3.1304
2.91063
2.75166
2.63663
2.55211
2.4884
2.43857
2.39792
2.36327
2.3325
2.30421
2.27749
2.25173
2.22652
2.20162
2.17685
2.15211
2.12732
2.10244
2.07744
2.05229
2.02699
2.00153
1.97589
1.95009
1.9241
1.89794
1.87159
1.84506
1.81834
1.79144
1.76435
1.73707
1.7096
1.68193
1.65407
1.62602
1.59777
1.56932
1.54068
1.51183
1.48278
1.45353
1.42407
1.3944
1.36452
1.33444
1.30414
1.27363
1.24291
1.21196
1.18081
1.14943
1.11783
1.086
1.05396
1.02169
0.989186
0.956457
0.923498
0.890306
0.856881
0.82322
0.789322
0.755185
0.720808
0.686189
0.651325
0.616216
0.58086
0.545256
0.5094
0.473294
0.436931
0.400317
0.36344
0.326309
0.288915
0.251254
0.213341
0.175146
0.136689
0.097975
0.0589591
0.0196941
-26.7419
-30.5882
-37.2036
-44.0719
-41.8599
-30.9491
-16.664
-5.41635
1.49478
4.32816
4.97308
4.77108
4.29749
3.81745
3.42342
3.12569
2.90746
2.74957
2.63528
2.5513
2.48789
2.43825
2.39772
2.36314
2.33242
2.30416
2.27746
2.2517
2.22651
2.20161
2.17685
2.15211
2.12732
2.10244
2.07744
2.05229
2.02699
2.00153
1.97589
1.95009
1.9241
1.89794
1.87159
1.84506
1.81834
1.79144
1.76435
1.73707
1.7096
1.68193
1.65407
1.62602
1.59777
1.56932
1.54068
1.51183
1.48278
1.45353
1.42407
1.3944
1.36452
1.33444
1.30414
1.27363
1.24291
1.21196
1.18081
1.14943
1.11783
1.086
1.05396
1.02169
0.989186
0.956457
0.923498
0.890306
0.856881
0.82322
0.789322
0.755185
0.720808
0.686189
0.651325
0.616216
0.58086
0.545256
0.5094
0.473294
0.436931
0.400317
0.36344
0.326309
0.288916
0.251254
0.213341
0.175146
0.136689
0.0979751
0.058959
0.0196941
-27.6118
-31.1928
-37.7767
-44.9059
-42.6612
-31.6112
-17.0421
-5.6374
1.3761
4.25573
4.92187
4.73335
4.27034
3.79839
3.41029
3.11684
2.90163
2.74581
2.63287
2.54977
2.48692
2.43764
2.39733
2.36289
2.33226
2.30406
2.27739
2.25167
2.22648
2.2016
2.17684
2.1521
2.12732
2.10244
2.07744
2.05229
2.02699
2.00153
1.97589
1.95009
1.9241
1.89793
1.87159
1.84506
1.81834
1.79144
1.76435
1.73707
1.7096
1.68193
1.65407
1.62602
1.59777
1.56932
1.54068
1.51183
1.48278
1.45353
1.42407
1.3944
1.36452
1.33444
1.30414
1.27363
1.24291
1.21196
1.18081
1.14943
1.11783
1.086
1.05396
1.02169
0.989186
0.956457
0.923498
0.890306
0.856881
0.82322
0.789322
0.755185
0.720808
0.686189
0.651325
0.616217
0.58086
0.545256
0.5094
0.473294
0.436931
0.400317
0.36344
0.326309
0.288915
0.251254
0.213341
0.175146
0.136689
0.0979751
0.0589589
0.0196941
-26.8099
-32.2903
-38.7529
-45.7151
-43.9262
-32.59
-17.6738
-5.95753
1.20155
4.14449
4.84377
4.67603
4.22974
3.7705
3.39145
3.10425
2.89333
2.74039
2.62936
2.54751
2.48547
2.43671
2.39673
2.36251
2.33201
2.3039
2.27729
2.2516
2.22644
2.20157
2.17682
2.15209
2.12731
2.10243
2.07743
2.05229
2.02699
2.00153
1.97589
1.95009
1.9241
1.89793
1.87159
1.84506
1.81834
1.79144
1.76435
1.73707
1.7096
1.68193
1.65407
1.62602
1.59777
1.56932
1.54068
1.51183
1.48278
1.45353
1.42407
1.3944
1.36452
1.33444
1.30414
1.27363
1.24291
1.21196
1.18081
1.14943
1.11783
1.086
1.05396
1.02169
0.989186
0.956457
0.923498
0.890306
0.856881
0.82322
0.789322
0.755185
0.720808
0.686189
0.651325
0.616217
0.58086
0.545256
0.5094
0.473294
0.436931
0.400317
0.36344
0.326309
0.288915
0.251254
0.213341
0.175146
0.136689
0.0979752
0.0589588
0.0196941
-27.8524
-32.2711
-39.4551
-47.128
-45.1407
-33.976
-18.5201
-6.38792
0.960239
3.99646
4.73936
4.59931
4.17551
3.73346
3.36657
3.08771
2.88243
2.73327
2.62474
2.54452
2.48354
2.43547
2.39593
2.362
2.33169
2.3037
2.27716
2.25152
2.22639
2.20154
2.1768
2.15208
2.1273
2.10243
2.07743
2.05229
2.02699
2.00153
1.97589
1.95009
1.9241
1.89793
1.87159
1.84506
1.81834
1.79144
1.76435
1.73707
1.7096
1.68193
1.65407
1.62602
1.59777
1.56932
1.54068
1.51183
1.48278
1.45353
1.42407
1.3944
1.36452
1.33444
1.30414
1.27363
1.24291
1.21196
1.18081
1.14943
1.11783
1.086
1.05396
1.02169
0.989186
0.956457
0.923498
0.890306
0.856881
0.82322
0.789322
0.755186
0.720808
0.686189
0.651325
0.616217
0.58086
0.545256
0.5094
0.473294
0.436931
0.400317
0.36344
0.326309
0.288915
0.251254
0.213341
0.175146
0.136689
0.0979752
0.0589588
0.0196941
-27.4071
-33.8126
-40.8879
-48.7847
-47.0234
-35.5393
-19.5988
-6.9336
0.653378
3.81002
4.60891
4.50376
4.10821
3.68772
3.336
3.06744
2.86909
2.72454
2.61906
2.54084
2.48116
2.43393
2.39494
2.36136
2.33128
2.30343
2.27699
2.25141
2.22632
2.20149
2.17677
2.15206
2.12729
2.10242
2.07743
2.05229
2.02699
2.00153
1.97589
1.95009
1.9241
1.89793
1.87159
1.84506
1.81834
1.79144
1.76435
1.73707
1.7096
1.68193
1.65407
1.62602
1.59777
1.56932
1.54068
1.51183
1.48278
1.45353
1.42407
1.3944
1.36452
1.33444
1.30414
1.27363
1.24291
1.21196
1.18081
1.14943
1.11783
1.086
1.05396
1.02169
0.989186
0.956457
0.923498
0.890307
0.856881
0.82322
0.789322
0.755186
0.720808
0.686189
0.651325
0.616217
0.58086
0.545256
0.5094
0.473294
0.436931
0.400317
0.36344
0.326309
0.288915
0.251254
0.213341
0.175146
0.136689
0.0979752
0.0589587
0.019694
-28.1721
-34.4289
-42.4858
-50.5343
-48.8682
-37.2568
-20.7591
-7.58013
0.275323
3.58521
4.45277
4.38976
4.02805
3.6334
3.29983
3.04351
2.85336
2.71425
2.61235
2.53648
2.47834
2.43211
2.39377
2.3606
2.33079
2.30312
2.27679
2.25128
2.22624
2.20144
2.17674
2.15204
2.12728
2.10241
2.07742
2.05228
2.02699
2.00152
1.97589
1.95008
1.9241
1.89793
1.87159
1.84506
1.81834
1.79144
1.76435
1.73707
1.7096
1.68193
1.65407
1.62602
1.59777
1.56932
1.54068
1.51183
1.48278
1.45353
1.42407
1.3944
1.36452
1.33444
1.30414
1.27363
1.24291
1.21196
1.18081
1.14943
1.11783
1.086
1.05396
1.02169
0.989186
0.956457
0.923498
0.890307
0.856881
0.82322
0.789322
0.755186
0.720808
0.686189
0.651325
0.616217
0.58086
0.545256
0.5094
0.473294
0.436931
0.400317
0.36344
0.326309
0.288915
0.251254
0.213341
0.175146
0.136689
0.0979752
0.0589587
0.019694
-28.3395
-35.4502
-44.0146
-52.6949
-50.5355
-39.0012
-21.9436
-8.30311
-0.149336
3.32323
4.27163
4.25828
3.93579
3.57099
3.25834
3.01611
2.83536
2.70247
2.60467
2.53148
2.4751
2.43001
2.39241
2.35973
2.33023
2.30276
2.27656
2.25113
2.22615
2.20138
2.1767
2.15202
2.12726
2.1024
2.07742
2.05228
2.02698
2.00152
1.97589
1.95008
1.9241
1.89793
1.87159
1.84506
1.81834
1.79144
1.76435
1.73707
1.7096
1.68193
1.65407
1.62602
1.59777
1.56932
1.54068
1.51183
1.48278
1.45353
1.42407
1.3944
1.36452
1.33444
1.30414
1.27363
1.24291
1.21196
1.18081
1.14943
1.11783
1.08601
1.05396
1.02169
0.989186
0.956457
0.923498
0.890307
0.856881
0.82322
0.789322
0.755186
0.720808
0.686189
0.651325
0.616217
0.580861
0.545256
0.5094
0.473294
0.436931
0.400317
0.36344
0.326309
0.288915
0.251254
0.213341
0.175146
0.136689
0.0979753
0.0589586
0.019694
-28.4293
-36.5368
-45.7564
-54.4969
-52.4454
-40.6078
-23.0746
-9.05779
-0.603972
3.02609
4.06575
4.11009
3.83212
3.50092
3.21181
2.9854
2.81519
2.68926
2.59604
2.52586
2.47145
2.42765
2.39088
2.35874
2.3296
2.30235
2.2763
2.25097
2.22604
2.20132
2.17666
2.15199
2.12725
2.10239
2.07741
2.05227
2.02698
2.00152
1.97589
1.95008
1.9241
1.89793
1.87159
1.84506
1.81834
1.79144
1.76435
1.73707
1.7096
1.68193
1.65407
1.62602
1.59777
1.56932
1.54068
1.51183
1.48278
1.45353
1.42407
1.3944
1.36452
1.33444
1.30414
1.27363
1.24291
1.21196
1.18081
1.14943
1.11783
1.08601
1.05396
1.02169
0.989186
0.956457
0.923498
0.890307
0.856881
0.82322
0.789322
0.755186
0.720808
0.686189
0.651325
0.616217
0.580861
0.545256
0.5094
0.473294
0.436931
0.400317
0.36344
0.326309
0.288915
0.251254
0.213341
0.175146
0.136689
0.0979753
0.0589586
0.019694
-28.6666
-37.5348
-47.4146
-56.3044
-53.7691
-41.8035
-24.0927
-9.78908
-1.07823
2.69925
3.83609
3.94615
3.71801
3.42385
3.16063
2.95162
2.79299
2.67473
2.58655
2.51967
2.46743
2.42504
2.3892
2.35766
2.32889
2.3019
2.27601
2.25078
2.22592
2.20124
2.17661
2.15196
2.12723
2.10238
2.0774
2.05227
2.02698
2.00152
1.97589
1.95008
1.9241
1.89793
1.87159
1.84506
1.81834
1.79144
1.76435
1.73707
1.7096
1.68193
1.65407
1.62602
1.59777
1.56932
1.54068
1.51183
1.48278
1.45352
1.42407
1.3944
1.36452
1.33444
1.30414
1.27363
1.24291
1.21196
1.18081
1.14943
1.11783
1.08601
1.05396
1.02169
0.989186
0.956457
0.923499
0.890307
0.856881
0.823221
0.789322
0.755186
0.720808
0.686189
0.651325
0.616217
0.580861
0.545256
0.5094
0.473294
0.436931
0.400317
0.36344
0.326309
0.288915
0.251254
0.213341
0.175146
0.136689
0.0979753
0.0589586
0.0196939
-28.6111
-38.4495
-48.8177
-57.2557
-54.4672
-42.5193
-24.9178
-10.4654
-1.55777
2.34772
3.58418
3.76729
3.59431
3.34046
3.10521
2.91501
2.76893
2.65896
2.57623
2.51295
2.46305
2.4222
2.38736
2.35647
2.32813
2.30141
2.2757
2.25058
2.2258
2.20116
2.17656
2.15193
2.12721
2.10237
2.07739
2.05227
2.02698
2.00152
1.97589
1.95008
1.9241
1.89793
1.87159
1.84506
1.81834
1.79144
1.76435
1.73707
1.7096
1.68193
1.65407
1.62602
1.59777
1.56932
1.54068
1.51183
1.48278
1.45352
1.42407
1.3944
1.36452
1.33444
1.30414
1.27363
1.24291
1.21196
1.18081
1.14943
1.11783
1.08601
1.05396
1.02169
0.989186
0.956457
0.923499
0.890307
0.856881
0.823221