/*--------------------------------*- C++ -*----------------------------------*\
| =========                 |                                                 |
| \\      /  F ield         | OpenFOAM: The Open Source CFD Toolbox           |
|  \\    /   O peration     | Version:  2.4.0                                 |
|   \\  /    A nd           | Web:      www.OpenFOAM.org                      |
|    \\/     M anipulation  |                                                 |
\*---------------------------------------------------------------------------*/
FoamFile
{
    version     2.0;
    format      ascii;
    class       volVectorField;
    location    "0.58";
    object      U;
}
// * * * * * * * * * * * * * * * * * * * * * * * * * * * * * * * * * * * * * //

dimensions      [0 1 -1 0 0 0 0];

internalField   nonuniform List<vector> 
4400
(
(9.5109 -0.0773441 0)
(10.4883 0.137767 0)
(9.1472 -0.0639163 0)
(10.3435 0.079576 0)
(8.92057 0.00950446 0)
(10.2142 0.003948 0)
(8.47658 0.0387203 0)
(10.518 0.0487942 0)
(7.1248 -0.0319144 0)
(11.7277 0.105514 0)
(4.70356 0.0126232 0)
(12.8793 0.0650924 0)
(3.2419 -0.152129 0)
(12.4185 0.340189 0)
(6.56374 -0.0385458 0)
(6.07305 -0.0634777 0)
(10.8978 0.356018 0)
(5.49068 0.239381 0)
(4.69059 -0.258908 0)
(11.1864 -0.026427 0)
(8.90453 0.0605014 0)
(11.1584 -0.0365589 0)
(9.2667 0.0646618 0)
(10.7558 -0.0100402 0)
(9.47811 0.0030577 0)
(11.0389 0.099913 0)
(8.32133 -0.0992368 0)
(12.6057 0.218876 0)
(5.84988 -0.147523 0)
(14.4231 0.307871 0)
(3.43044 -0.152585 0)
(15.3672 0.124194 0)
(4.92995 0.39977 0)
(10.5762 -1.03303 0)
(11.6665 1.06166 0)
(4.7866 -0.547843 0)
(12.3052 -0.497126 0)
(7.87138 0.911308 0)
(8.56681 -0.569939 0)
(10.5166 -0.318594 0)
(9.6283 -0.0876457 0)
(10.4658 0.0785176 0)
(9.66482 0.000874702 0)
(10.4198 0.0462318 0)
(9.63767 -0.0515698 0)
(10.7591 0.22913 0)
(8.82818 -0.30229 0)
(12.1965 0.503604 0)
(6.76929 -0.404327 0)
(14.2636 0.430358 0)
(6.24597 -0.0263073 0)
(12.8614 -0.387158 0)
(10.4116 0.85591 0)
(8.51481 -1.12247 0)
(11.0492 0.847005 0)
(10.4817 0.0528912 0)
(10.553 -0.458203 0)
(9.50284 0.904719 0)
(11.1272 -0.319531 0)
(9.98647 0.0681812 0)
(9.51117 0.0176284 0)
(10.4902 -0.0147564 0)
(9.73294 0.0410166 0)
(10.3135 0.0233713 0)
(9.80528 -0.0776657 0)
(10.5702 0.26853 0)
(9.30104 -0.376098 0)
(11.4177 0.592823 0)
(8.80694 -0.481804 0)
(12.1659 0.368902 0)
(9.67061 0.242652 0)
(10.7696 -0.824152 0)
(10.8546 1.2645 0)
(10.5746 -1.05323 0)
(10.1563 0.732745 0)
(11.5282 0.0238551 0)
(10.7638 -0.735768 0)
(9.98365 0.98662 0)
(12.1067 -0.198603 0)
(10.9649 -0.328049 0)
(9.88508 -0.074268 0)
(10.1648 0.0313417 0)
(9.85901 0.0281607 0)
(10.2169 0.0350289 0)
(9.84011 -0.0948883 0)
(10.3149 0.322864 0)
(9.88403 -0.453497 0)
(10.4643 0.623616 0)
(10.0172 -0.457883 0)
(10.7554 0.18957 0)
(10.4589 0.369251 0)
(9.97652 -0.828543 0)
(11.0168 1.14225 0)
(10.5093 -0.872245 0)
(10.1215 0.41684 0)
(11.607 0.131775 0)
(10.0369 -0.303847 0)
(9.86886 0.564694 0)
(12.0283 -0.311672 0)
(10.1846 0.218482 0)
(9.85056 -0.0157853 0)
(10.1285 0.0153348 0)
(9.94474 0.00561404 0)
(10.0645 0.0481642 0)
(10.0207 -0.0954989 0)
(10.0994 0.256311 0)
(10.1069 -0.367062 0)
(9.99061 0.516266 0)
(10.4464 -0.435228 0)
(9.74858 0.175343 0)
(10.747 0.425078 0)
(9.86136 -0.8986 0)
(10.2026 1.15771 0)
(11.2962 -0.784649 0)
(9.42822 0.199871 0)
(11.5845 0.421565 0)
(9.80102 -0.617823 0)
(10.404 0.59747 0)
(11.3274 0.0375684 0)
(9.69664 -0.0323978 0)
(9.93219 -0.0530137 0)
(10.1001 0.00305624 0)
(9.89818 0.0348573 0)
(10.1521 0.0179726 0)
(9.89727 -0.0883201 0)
(10.1807 0.279818 0)
(10.0673 -0.402905 0)
(9.91814 0.48701 0)
(10.432 -0.339422 0)
(9.71683 0.0235176 0)
(10.3936 0.474854 0)
(10.2181 -0.832417 0)
(9.778 0.938338 0)
(11.0451 -0.659238 0)
(9.28632 0.152186 0)
(11.0083 0.264993 0)
(10.0015 -0.315235 0)
(9.95522 0.314388 0)
(11.0068 0.0312706 0)
(10.1784 0.147625 0)
(9.99354 -0.0405399 0)
(9.98314 0.0376363 0)
(10.0124 -0.018415 0)
(10.0136 0.0559401 0)
(10.0014 -0.086504 0)
(10.1029 0.200661 0)
(10.1031 -0.287543 0)
(9.89336 0.381995 0)
(10.4726 -0.31874 0)
(9.63498 0.0901236 0)
(10.4677 0.378578 0)
(10.146 -0.781763 0)
(9.59213 0.914581 0)
(10.9355 -0.569631 0)
(9.3353 0.0126453 0)
(10.2042 0.483155 0)
(10.5869 -0.4867 0)
(9.56533 0.363576 0)
(10.5963 0.171587 0)
(10.0843 -0.116044 0)
(9.97189 -0.033172 0)
(10.037 -0.0104195 0)
(9.95391 0.0228873 0)
(10.0675 0.0183985 0)
(9.97277 -0.0879104 0)
(10.0885 0.230744 0)
(10.1297 -0.318829 0)
(9.83771 0.348605 0)
(10.4741 -0.208068 0)
(9.61692 -0.0514169 0)
(10.4672 0.421893 0)
(10.0369 -0.693497 0)
(9.82159 0.725402 0)
(10.6412 -0.493954 0)
(9.71911 0.0808673 0)
(9.96261 0.291956 0)
(10.6613 -0.428007 0)
(9.62246 0.37026 0)
(10.4025 0.112606 0)
(10.4383 -0.0394147 0)
(10.0151 -0.0518254 0)
(9.97691 0.0436336 0)
(9.99435 -0.0270345 0)
(10.037 0.0443296 0)
(9.96583 -0.0643755 0)
(10.1231 0.138262 0)
(10.0648 -0.200867 0)
(9.92715 0.257617 0)
(10.3538 -0.198287 0)
(9.76524 0.00689072 0)
(10.3176 0.354821 0)
(10.1653 -0.683219 0)
(9.78219 0.760092 0)
(10.6965 -0.453264 0)
(9.83984 -0.0203626 0)
(9.94402 0.433413 0)
(10.8202 -0.4781 0)
(9.52392 0.353209 0)
(10.4459 0.149252 0)
(10.5873 -0.139238 0)
(10.0059 -0.0228821 0)
(9.98713 -0.00987827 0)
(9.99605 0.00636569 0)
(10.0178 0.0221355 0)
(10.0022 -0.0825647 0)
(10.0814 0.178384 0)
(10.0843 -0.234838 0)
(9.94313 0.226547 0)
(10.3119 -0.101831 0)
(9.84645 -0.10967 0)
(10.2607 0.369484 0)
(10.1879 -0.566478 0)
(9.79815 0.564579 0)
(10.6677 -0.364988 0)
(9.69623 0.0575275 0)
(10.2361 0.298378 0)
(10.525 -0.471898 0)
(9.49018 0.460371 0)
(10.6475 0.076535 0)
(10.4155 -0.113611 0)
(10.0172 -0.0484099 0)
(9.97926 0.0321207 0)
(9.99155 -0.0265836 0)
(10.0316 0.0286575 0)
(9.98117 -0.0483046 0)
(10.0928 0.0933329 0)
(10.0863 -0.141722 0)
(9.92818 0.166958 0)
(10.3072 -0.113397 0)
(9.88367 -0.0518627 0)
(10.199 0.321835 0)
(10.2194 -0.570736 0)
(9.81467 0.583568 0)
(10.5683 -0.313534 0)
(9.85693 -0.0790207 0)
(10.0798 0.386884 0)
(10.5848 -0.419783 0)
(9.82009 0.296929 0)
(10.2929 0.0959406 0)
(10.6134 -0.112656 0)
(10.0154 -0.0220843 0)
(9.97661 -0.00475995 0)
(10.0034 -0.00702795 0)
(10.0106 0.0185113 0)
(10.0062 -0.0672449 0)
(10.0819 0.121658 0)
(10.0677 -0.158132 0)
(9.97823 0.128853 0)
(10.2465 -0.0322198 0)
(9.9363 -0.135012 0)
(10.1765 0.311482 0)
(10.215 -0.459355 0)
(9.83858 0.436184 0)
(10.5478 -0.266977 0)
(9.8653 0.00952194 0)
(10.1349 0.293843 0)
(10.5386 -0.458281 0)
(9.71453 0.424352 0)
(10.5873 0.073647 0)
(10.5137 -0.186171 0)
(10.0179 -0.0379435 0)
(9.97863 0.0172496 0)
(9.99725 -0.0245872 0)
(10.0219 0.0147348 0)
(9.99902 -0.0371572 0)
(10.0776 0.0579787 0)
(10.0865 -0.097115 0)
(9.95875 0.0963499 0)
(10.2453 -0.0542572 0)
(9.98183 -0.0854435 0)
(10.1084 0.268527 0)
(10.2585 -0.444508 0)
(9.85324 0.419417 0)
(10.4783 -0.205085 0)
(9.95916 -0.101266 0)
(10.0616 0.327226 0)
(10.5749 -0.354242 0)
(9.8596 0.235226 0)
(10.3319 0.0632923 0)
(10.6161 -0.0626429 0)
(10.0164 -0.0220332 0)
(9.97791 -0.00412104 0)
(10.0046 -0.0151217 0)
(10.0119 0.0101269 0)
(10.0116 -0.0510327 0)
(10.077 0.0714198 0)
(10.0715 -0.100896 0)
(9.98995 0.0596946 0)
(10.2162 0.00163254 0)
(9.99751 -0.133047 0)
(10.1131 0.239156 0)
(10.2387 -0.349332 0)
(9.87165 0.314649 0)
(10.4492 -0.191081 0)
(9.99505 -0.0240107 0)
(10.0497 0.259893 0)
(10.5324 -0.404377 0)
(9.88204 0.339058 0)
(10.4188 0.0620841 0)
(10.5185 -0.220094 0)
(10.0168 -0.0289598 0)
(9.98116 0.00459257 0)
(10.0018 -0.0230069 0)
(10.0191 0.0033604 0)
(10.0108 -0.0275331 0)
(10.073 0.0280758 0)
(10.0844 -0.0632049 0)
(9.98332 0.046487 0)
(10.2094 -0.0230306 0)
(10.0325 -0.086833 0)
(10.0719 0.1915 0)
(10.257 -0.312012 0)
(9.90161 0.276116 0)
(10.3992 -0.135261 0)
(10.0431 -0.0863081 0)
(10.04 0.239498 0)
(10.5377 -0.278234 0)
(9.93436 0.179077 0)
(10.3248 0.0410508 0)
(10.637 -0.0592631 0)
(10.0157 -0.0205049 0)
(9.98216 -0.00925592 0)
(10.007 -0.0205347 0)
(10.0161 0.000329845 0)
(10.0177 -0.0389098 0)
(10.0754 0.029844 0)
(10.0773 -0.0623636 0)
(10.0015 0.0162175 0)
(10.1957 0.00700166 0)
(10.0416 -0.105466 0)
(10.0736 0.146935 0)
(10.2512 -0.229358 0)
(9.90874 0.195429 0)
(10.3795 -0.135077 0)
(10.084 -0.0323587 0)
(10.007 0.187341 0)
(10.5212 -0.304202 0)
(9.98942 0.226698 0)
(10.3052 0.0352309 0)
(10.5855 -0.188755 0)
(10.0142 -0.0225763 0)
(9.98554 -0.00642484 0)
(10.0082 -0.0202342 0)
(10.0194 -0.00599584 0)
(10.022 -0.0199012 0)
(10.0718 0.00298292 0)
(10.0869 -0.0393032 0)
(9.9978 0.0163739 0)
(10.1971 -0.0203752 0)
(10.0493 -0.0572963 0)
(10.0705 0.0951757 0)
(10.233 -0.182529 0)
(9.93823 0.155276 0)
(10.3462 -0.100228 0)
(10.0768 -0.0427651 0)
(10.0404 0.125469 0)
(10.4681 -0.194618 0)
(9.99695 0.132308 0)
(10.2966 0.00131625 0)
(10.5673 -0.0696977 0)
(10.0056 -0.0219927 0)
(9.98852 -0.0179921 0)
(10.0145 -0.024875 0)
(10.0079 -0.010694 0)
(10.0319 -0.0312908 0)
(10.0509 -0.0023722 0)
(10.0763 -0.0385243 0)
(9.96408 -0.00805159 0)
(10.2051 -0.00594398 0)
(9.94441 -0.0618519 0)
(10.1302 0.046728 0)
(10.0584 -0.108961 0)
(9.96454 0.0804318 0)
(10.2776 -0.0861354 0)
(9.89992 -0.0115188 0)
(10.1277 0.0773162 0)
(10.1929 -0.177596 0)
(9.92493 0.11341 0)
(10.2616 0.00557442 0)
(10.3043 -0.138065 0)
(9.95302 -0.012245 0)
(9.84457 -0.0128247 0)
(9.77321 -0.0141596 0)
(9.66968 -0.0144805 0)
(9.60348 -0.011407 0)
(9.53066 -0.0172392 0)
(9.43018 -0.0176162 0)
(9.2673 -0.00597407 0)
(9.387 -0.0228256 0)
(9.06644 -0.0137178 0)
(9.15168 -0.00388669 0)
(8.93061 -0.0426163 0)
(8.86836 0.0216014 0)
(9.01363 -0.0351077 0)
(8.53707 -0.0198483 0)
(8.8165 0.00532992 0)
(8.63489 -0.0427868 0)
(8.29007 0.0202671 0)
(8.73582 -0.0185775 0)
(8.49797 -0.0199935 0)
(4.17061 1.40276 0)
(7.23591 1.2722 0)
(9.8277 -0.512872 0)
(10.9587 -2.68148 0)
(11.3017 -2.96651 0)
(11.4317 -2.14306 0)
(10.421 -1.66237 0)
(8.28989 -1.96667 0)
(6.54476 -2.22338 0)
(5.86358 -1.9775 0)
(5.60121 -1.53324 0)
(5.40361 -1.12411 0)
(5.27261 -0.790493 0)
(5.19238 -0.535475 0)
(5.13902 -0.35359 0)
(5.10349 -0.23043 0)
(5.08132 -0.149277 0)
(5.06827 -0.096361 0)
(5.06089 -0.0619905 0)
(5.05686 -0.0397231 0)
(5.05472 -0.0253435 0)
(5.05359 -0.0160992 0)
(5.05299 -0.0101854 0)
(5.05267 -0.00641917 0)
(5.0525 -0.00403073 0)
(5.0524 -0.00252175 0)
(5.05234 -0.00157223 0)
(5.05231 -0.000976504 0)
(5.05229 -0.000604502 0)
(5.05228 -0.000372757 0)
(5.05228 -0.000229061 0)
(5.05227 -0.000140242 0)
(5.05227 -8.54978e-05 0)
(5.05227 -5.19707e-05 0)
(5.05227 -3.14635e-05 0)
(5.05227 -1.89358e-05 0)
(5.05227 -1.14081e-05 0)
(5.05227 -6.82174e-06 0)
(5.05227 -4.0681e-06 0)
(5.05227 -2.44915e-06 0)
(5.05227 -1.39031e-06 0)
(5.05227 -8.89957e-07 0)
(5.05227 -4.72102e-07 0)
(5.05227 -2.85385e-07 0)
(5.05227 -1.87576e-07 0)
(5.05227 -1.0485e-07 0)
(5.05227 -2.38168e-08 0)
(5.05227 -7.47492e-08 0)
(5.05227 -1.50938e-08 0)
(5.05227 4.09782e-08 0)
(5.05227 -1.24992e-07 0)
(5.05227 1.07216e-07 0)
(5.05227 -6.51692e-08 0)
(5.05227 5.68178e-09 0)
(5.05227 2.79062e-08 0)
(5.05227 -6.38444e-08 0)
(5.05227 7.86612e-08 0)
(5.05227 -8.38112e-08 0)
(5.05227 6.74533e-08 0)
(5.05227 1.20433e-08 0)
(5.05227 -8.95979e-08 0)
(5.05227 1.32532e-07 0)
(5.05227 -6.55919e-08 0)
(5.05227 -3.53026e-08 0)
(5.05227 1.27838e-07 0)
(5.05227 -9.90828e-08 0)
(5.05227 2.18357e-09 0)
(5.05227 9.82387e-08 0)
(5.05227 -1.06956e-07 0)
(5.05227 3.05847e-08 0)
(5.05227 8.7e-08 0)
(5.05227 -1.31219e-07 0)
(5.05227 2.52609e-08 0)
(5.05227 1.29139e-07 0)
(5.05227 -1.27394e-07 0)
(5.05227 -5.25424e-08 0)
(5.05227 1.71032e-07 0)
(5.05227 -2.72927e-08 0)
(5.05227 -1.46059e-07 0)
(5.05227 7.64929e-08 0)
(5.05227 1.08195e-07 0)
(5.05227 -9.41365e-08 0)
(5.05227 -8.00435e-08 0)
(5.05227 4.40582e-08 0)
(5.05227 4.67563e-08 0)
(5.05227 -3.85052e-08 0)
(5.05227 -9.32514e-08 0)
(5.05227 -1.21608e-08 0)
(5.05226 6.71059e-08 0)
(5.05227 5.32916e-08 0)
(5.05226 -1.03405e-07 0)
(5.05228 -5.67563e-08 0)
(5.05225 1.59611e-08 0)
(5.05228 1.20853e-07 0)
(5.05225 -6.97134e-09 0)
(5.05227 -9.56744e-09 0)
(5.05227 -4.22226e-08 0)
(5.05226 1.51237e-08 0)
(5.05227 1.1518e-08 0)
(5.05227 3.00845e-09 0)
(6.2978 2.26075 0)
(9.69223 1.20311 0)
(11.3225 -1.29076 0)
(10.9559 -3.19436 0)
(11.2032 -3.23606 0)
(10.6544 -2.55798 0)
(9.00588 -2.03251 0)
(7.63735 -1.98803 0)
(6.61823 -2.11562 0)
(5.9562 -1.90881 0)
(5.66545 -1.48188 0)
(5.48104 -1.09081 0)
(5.33958 -0.770741 0)
(5.2408 -0.520494 0)
(5.17151 -0.342362 0)
(5.12416 -0.223286 0)
(5.09418 -0.145203 0)
(5.07633 -0.0941142 0)
(5.06602 -0.0607501 0)
(5.06015 -0.039035 0)
(5.05682 -0.0249617 0)
(5.05493 -0.0158869 0)
(5.05384 -0.0100663 0)
(5.05321 -0.00635176 0)
(5.05283 -0.00399182 0)
(5.05261 -0.00249909 0)
(5.05248 -0.00155872 0)
(5.05239 -0.000968524 0)
(5.05235 -0.000599644 0)
(5.05231 -0.000369838 0)
(5.05229 -0.000227251 0)
(5.05228 -0.000139176 0)
(5.05228 -8.49026e-05 0)
(5.05227 -5.1574e-05 0)
(5.05227 -3.11745e-05 0)
(5.05227 -1.88117e-05 0)
(5.05227 -1.13304e-05 0)
(5.05227 -6.77529e-06 0)
(5.05227 -4.0431e-06 0)
(5.05227 -2.34543e-06 0)
(5.05227 -1.3795e-06 0)
(5.05227 -8.64375e-07 0)
(5.05226 -4.85051e-07 0)
(5.05227 -3.55647e-07 0)
(5.05227 -1.72733e-07 0)
(5.05227 -4.35398e-08 0)
(5.05226 -9.23787e-08 0)
(5.05227 -5.15842e-08 0)
(5.05226 1.73491e-08 0)
(5.05227 -2.4208e-08 0)
(5.05227 -2.56031e-08 0)
(5.05227 2.70949e-08 0)
(5.05227 -5.0081e-08 0)
(5.05227 2.04868e-08 0)
(5.05227 3.30031e-08 0)
(5.05227 -4.31676e-08 0)
(5.05227 8.68908e-09 0)
(5.05227 -8.85997e-09 0)
(5.05227 1.31882e-08 0)
(5.05227 2.43123e-08 0)
(5.05227 -1.99115e-08 0)
(5.05227 1.13548e-08 0)
(5.05227 -4.84778e-09 0)
(5.05227 7.5806e-09 0)
(5.05227 5.0734e-08 0)
(5.05227 -1.85267e-08 0)
(5.05226 -1.0228e-08 0)
(5.05227 9.59784e-09 0)
(5.05227 -2.07595e-08 0)
(5.05227 1.59425e-08 0)
(5.05227 2.92672e-08 0)
(5.05227 -3.00894e-08 0)
(5.05226 -1.12814e-08 0)
(5.05227 9.58996e-09 0)
(5.05227 -2.28557e-08 0)
(5.05227 -3.91124e-09 0)
(5.05227 3.94244e-08 0)
(5.05227 9.77223e-09 0)
(5.05227 -1.49986e-08 0)
(5.05226 7.00798e-09 0)
(5.05227 1.84403e-09 0)
(5.05227 -1.93833e-08 0)
(5.05227 -5.73749e-09 0)
(5.05227 5.33135e-09 0)
(5.05227 -1.39485e-08 0)
(5.05227 -3.17498e-08 0)
(5.05227 -3.31793e-08 0)
(5.05227 9.15106e-10 0)
(5.05226 1.49769e-08 0)
(5.05227 2.07778e-08 0)
(5.05226 -2.62241e-08 0)
(5.05227 -6.44192e-09 0)
(5.05225 -5.30153e-09 0)
(5.05228 2.417e-08 0)
(5.05225 1.20685e-08 0)
(5.05227 2.11241e-08 0)
(5.05227 -8.41047e-09 0)
(5.05226 3.10966e-08 0)
(5.05227 -2.30689e-09 0)
(5.05227 -1.44203e-08 0)
(9.12427 2.30241 0)
(11.5639 0.786216 0)
(12.6264 -1.34688 0)
(11.7064 -2.81697 0)
(10.765 -2.72729 0)
(9.6781 -1.75639 0)
(8.56842 -1.25201 0)
(7.93163 -1.48844 0)
(7.15474 -1.80877 0)
(6.27815 -1.77287 0)
(5.78569 -1.42567 0)
(5.55558 -1.04576 0)
(5.40244 -0.741338 0)
(5.28672 -0.504522 0)
(5.20248 -0.33161 0)
(5.14449 -0.215244 0)
(5.10717 -0.139749 0)
(5.08447 -0.0908057 0)
(5.07112 -0.0588701 0)
(5.06337 -0.0379879 0)
(5.05888 -0.0243746 0)
(5.05624 -0.0155522 0)
(5.05468 -0.00987219 0)
(5.05374 -0.0062374 0)
(5.05317 -0.00392364 0)
(5.05282 -0.0024581 0)
(5.05261 -0.00153364 0)
(5.05248 -0.000953475 0)
(5.0524 -0.000590444 0)
(5.05235 -0.000363985 0)
(5.05231 -0.00022379 0)
(5.0523 -0.000137202 0)
(5.05228 -8.35697e-05 0)
(5.05228 -5.06828e-05 0)
(5.05227 -3.07797e-05 0)
(5.05227 -1.85926e-05 0)
(5.05227 -1.10167e-05 0)
(5.05227 -6.59119e-06 0)
(5.05227 -4.02174e-06 0)
(5.05227 -2.24748e-06 0)
(5.05227 -1.22564e-06 0)
(5.05227 -7.81416e-07 0)
(5.05227 -5.67416e-07 0)
(5.05227 -4.41866e-07 0)
(5.05227 -1.10479e-07 0)
(5.05227 4.65001e-08 0)
(5.05227 -1.63757e-07 0)
(5.05227 -4.10004e-08 0)
(5.05227 1.04344e-07 0)
(5.05227 -2.75853e-08 0)
(5.05227 -8.17042e-08 0)
(5.05227 -1.0662e-07 0)
(5.05227 -8.48082e-08 0)
(5.05227 9.0047e-08 0)
(5.05227 1.08469e-07 0)
(5.05227 -1.14566e-07 0)
(5.05227 -7.98984e-08 0)
(5.05227 2.43648e-08 0)
(5.05227 5.83091e-08 0)
(5.05227 7.8893e-08 0)
(5.05227 -4.85034e-08 0)
(5.05227 -9.47349e-08 0)
(5.05227 2.37671e-08 0)
(5.05227 1.27935e-07 0)
(5.05227 1.32727e-07 0)
(5.05227 1.65111e-08 0)
(5.05227 -1.07515e-07 0)
(5.05227 -9.23614e-08 0)
(5.05227 4.98403e-10 0)
(5.05227 7.90748e-08 0)
(5.05227 7.65596e-08 0)
(5.05227 -1.75569e-08 0)
(5.05227 -1.02935e-07 0)
(5.05227 -9.40812e-08 0)
(5.05227 -2.39406e-08 0)
(5.05227 4.25006e-08 0)
(5.05227 7.30285e-08 0)
(5.05227 7.63153e-08 0)
(5.05227 3.4799e-08 0)
(5.05227 -4.31546e-08 0)
(5.05227 -7.34284e-08 0)
(5.05227 -1.44953e-08 0)
(5.05227 4.72995e-08 0)
(5.05227 3.28932e-08 0)
(5.05227 -3.34551e-08 0)
(5.05227 -7.67088e-08 0)
(5.05227 -7.44454e-08 0)
(5.05227 -2.04253e-08 0)
(5.05226 2.17937e-08 0)
(5.05227 5.01555e-08 0)
(5.05226 2.76506e-08 0)
(5.05228 9.18149e-09 0)
(5.05225 -5.07235e-10 0)
(5.05228 4.92119e-10 0)
(5.05225 2.57233e-08 0)
(5.05227 -2.15518e-08 0)
(5.05227 -4.14146e-08 0)
(5.05226 -3.24406e-08 0)
(5.05227 4.85824e-09 0)
(5.05227 2.06929e-08 0)
(9.80732 1.61883 0)
(12.3122 0.746231 0)
(13.6309 -1.05787 0)
(11.8112 -2.66605 0)
(11.0664 -2.83316 0)
(9.94601 -1.99771 0)
(8.10332 -1.57603 0)
(7.41927 -1.75402 0)
(7.18982 -1.82117 0)
(6.52317 -1.64683 0)
(5.92394 -1.36076 0)
(5.62375 -1.01573 0)
(5.45714 -0.706664 0)
(5.32952 -0.475985 0)
(5.2305 -0.315208 0)
(5.1621 -0.206696 0)
(5.11871 -0.134916 0)
(5.09216 -0.0878174 0)
(5.07614 -0.0569905 0)
(5.06659 -0.0368269 0)
(5.06092 -0.0236688 0)
(5.05754 -0.0151255 0)
(5.0555 -0.00961396 0)
(5.05425 -0.00608032 0)
(5.05349 -0.00382781 0)
(5.05303 -0.00239923 0)
(5.05274 -0.0014977 0)
(5.05256 -0.000931246 0)
(5.05244 -0.000576672 0)
(5.05238 -0.000355715 0)
(5.05233 -0.000218705 0)
(5.05231 -0.000133894 0)
(5.05229 -8.16597e-05 0)
(5.05228 -4.96363e-05 0)
(5.05228 -2.99678e-05 0)
(5.05227 -1.80458e-05 0)
(5.05227 -1.08629e-05 0)
(5.05227 -6.52914e-06 0)
(5.05227 -3.88639e-06 0)
(5.05227 -2.22835e-06 0)
(5.05227 -1.35903e-06 0)
(5.05227 -8.76267e-07 0)
(5.05227 -4.87355e-07 0)
(5.05227 -3.63456e-07 0)
(5.05227 -1.64216e-07 0)
(5.05227 -5.22123e-09 0)
(5.05227 -1.17436e-07 0)
(5.05227 -4.8914e-08 0)
(5.05227 4.22102e-08 0)
(5.05227 -4.74482e-08 0)
(5.05227 -3.09122e-08 0)
(5.05227 7.59828e-09 0)
(5.05227 -6.20305e-08 0)
(5.05227 2.49641e-08 0)
(5.05227 5.36924e-08 0)
(5.05227 -5.60349e-08 0)
(5.05227 -1.00115e-08 0)
(5.05227 9.25934e-09 0)
(5.05227 8.46885e-09 0)
(5.05227 3.32898e-08 0)
(5.05227 -7.44935e-09 0)
(5.05227 -1.60263e-08 0)
(5.05227 8.6334e-09 0)
(5.05227 3.90995e-08 0)
(5.05227 5.14857e-08 0)
(5.05227 -1.89166e-09 0)
(5.05227 -3.10246e-08 0)
(5.05227 -1.67224e-08 0)
(5.05227 -3.23451e-09 0)
(5.05227 2.36248e-08 0)
(5.05227 2.5287e-08 0)
(5.05227 -2.31878e-08 0)
(5.05227 -3.31766e-08 0)
(5.05227 -1.60651e-08 0)
(5.05227 -1.16775e-08 0)
(5.05227 1.3874e-08 0)
(5.05227 3.34463e-08 0)
(5.05227 2.04713e-08 0)
(5.05227 1.10795e-08 0)
(5.05227 -7.05342e-09 0)
(5.05227 -2.21513e-08 0)
(5.05227 -7.48268e-09 0)
(5.05227 1.1178e-08 0)
(5.05227 -5.6259e-12 0)
(5.05227 -3.06359e-08 0)
(5.05227 -4.70788e-08 0)
(5.05227 -3.18515e-08 0)
(5.05227 8.07799e-09 0)
(5.05226 2.07749e-08 0)
(5.05227 2.11044e-08 0)
(5.05226 -1.11341e-08 0)
(5.05228 -1.43213e-08 0)
(5.05225 -1.26715e-09 0)
(5.05228 -5.01175e-09 0)
(5.05225 4.06654e-08 0)
(5.05227 4.78952e-09 0)
(5.05227 -8.94199e-09 0)
(5.05226 3.58281e-08 0)
(5.05227 -1.11026e-08 0)
(5.05227 -2.65787e-08 0)
(9.23029 1.84453 0)
(13.1725 0.357901 0)
(11.7132 -1.52902 0)
(8.95618 -2.48813 0)
(7.93755 -2.22404 0)
(7.73333 -1.31104 0)
(7.48633 -1.00489 0)
(7.41479 -1.39997 0)
(7.43595 -1.65293 0)
(6.90771 -1.48702 0)
(6.16512 -1.22285 0)
(5.72447 -0.965721 0)
(5.50893 -0.692104 0)
(5.36994 -0.455195 0)
(5.2601 -0.29183 0)
(5.17987 -0.189278 0)
(5.12861 -0.124471 0)
(5.09809 -0.0820961 0)
(5.08007 -0.0538974 0)
(5.06929 -0.0351155 0)
(5.06275 -0.0226935 0)
(5.05874 -0.0145561 0)
(5.05628 -0.00927513 0)
(5.05475 -0.00587587 0)
(5.05381 -0.00370312 0)
(5.05322 -0.00232281 0)
(5.05286 -0.00145054 0)
(5.05263 -0.00090214 0)
(5.05249 -0.000558879 0)
(5.05241 -0.000344638 0)
(5.05235 -0.000211829 0)
(5.05232 -0.000129853 0)
(5.0523 -7.91543e-05 0)
(5.05229 -4.79559e-05 0)
(5.05228 -2.90363e-05 0)
(5.05227 -1.76253e-05 0)
(5.05227 -1.05161e-05 0)
(5.05227 -6.26341e-06 0)
(5.05227 -3.79488e-06 0)
(5.05227 -2.13711e-06 0)
(5.05227 -1.22583e-06 0)
(5.05227 -7.61243e-07 0)
(5.05227 -4.74076e-07 0)
(5.05227 -3.97924e-07 0)
(5.05227 -1.32304e-07 0)
(5.05227 4.43795e-08 0)
(5.05227 -1.44424e-07 0)
(5.05227 -3.77685e-08 0)
(5.05227 9.77915e-08 0)
(5.05227 -4.65301e-08 0)
(5.05227 -6.36167e-08 0)
(5.05227 -6.88159e-08 0)
(5.05227 -7.89552e-08 0)
(5.05227 5.98408e-08 0)
(5.05227 8.8386e-08 0)
(5.05227 -8.56559e-08 0)
(5.05227 -7.07462e-08 0)
(5.05227 2.91378e-08 0)
(5.05227 3.42928e-08 0)
(5.05227 5.79193e-08 0)
(5.05227 -2.28685e-08 0)
(5.05227 -7.73026e-08 0)
(5.05227 2.14053e-08 0)
(5.05227 1.02161e-07 0)
(5.05227 1.04626e-07 0)
(5.05227 1.91768e-08 0)
(5.05227 -8.34543e-08 0)
(5.05227 -6.90526e-08 0)
(5.05227 3.69442e-09 0)
(5.05227 5.56861e-08 0)
(5.05227 5.55049e-08 0)
(5.05227 -1.49161e-08 0)
(5.05227 -8.57943e-08 0)
(5.05227 -7.22547e-08 0)
(5.05227 -1.82501e-08 0)
(5.05227 2.44979e-08 0)
(5.05227 5.93041e-08 0)
(5.05227 6.8128e-08 0)
(5.05227 3.00854e-08 0)
(5.05227 -3.05135e-08 0)
(5.05227 -5.60466e-08 0)
(5.05227 -1.16742e-08 0)
(5.05227 3.52441e-08 0)
(5.05227 2.09697e-08 0)
(5.05227 -3.46164e-08 0)
(5.05227 -6.83683e-08 0)
(5.05227 -6.01141e-08 0)
(5.05227 -7.5905e-09 0)
(5.05226 2.25599e-08 0)
(5.05227 4.41597e-08 0)
(5.05226 1.27099e-08 0)
(5.05228 2.02163e-09 0)
(5.05225 3.59167e-10 0)
(5.05228 -8.94032e-09 0)
(5.05225 5.02744e-08 0)
(5.05227 -2.16673e-08 0)
(5.05227 -4.34962e-08 0)
(5.05226 -3.84642e-09 0)
(5.05227 -1.15799e-08 0)
(5.05227 -1.01778e-09 0)
(10.3203 1.04349 0)
(12.236 0.486721 0)
(12.4154 -0.621136 0)
(11.8393 -1.98683 0)
(9.65102 -2.30856 0)
(8.53129 -1.65345 0)
(8.41636 -1.42462 0)
(7.67075 -1.67401 0)
(7.21203 -1.70549 0)
(6.9977 -1.45032 0)
(6.38537 -1.12441 0)
(5.86148 -0.861099 0)
(5.56906 -0.641796 0)
(5.39739 -0.44531 0)
(5.28211 -0.292359 0)
(5.20015 -0.188566 0)
(5.14373 -0.122068 0)
(5.1075 -0.0795019 0)
(5.08548 -0.0518516 0)
(5.07241 -0.0336932 0)
(5.06463 -0.0217557 0)
(5.05992 -0.0139533 0)
(5.05703 -0.00889346 0)
(5.05523 -0.00563652 0)
(5.05411 -0.00355384 0)
(5.05342 -0.00223 0)
(5.05298 -0.00139299 0)
(5.05271 -0.000866552 0)
(5.05254 -0.000536766 0)
(5.05243 -0.000331022 0)
(5.05237 -0.000203604 0)
(5.05233 -0.000124683 0)
(5.0523 -7.59062e-05 0)
(5.05229 -4.61316e-05 0)
(5.05228 -2.794e-05 0)
(5.05227 -1.68431e-05 0)
(5.05227 -1.00784e-05 0)
(5.05227 -6.02989e-06 0)
(5.05227 -3.57918e-06 0)
(5.05227 -2.02399e-06 0)
(5.05227 -1.26514e-06 0)
(5.05227 -8.28475e-07 0)
(5.05227 -4.21922e-07 0)
(5.05227 -3.17386e-07 0)
(5.05227 -1.56263e-07 0)
(5.05227 1.08888e-08 0)
(5.05227 -1.20078e-07 0)
(5.05227 -4.97514e-08 0)
(5.05227 5.43039e-08 0)
(5.05227 -6.50445e-08 0)
(5.05227 -4.20025e-08 0)
(5.05227 1.44929e-08 0)
(5.05227 -6.19847e-08 0)
(5.05227 8.8714e-09 0)
(5.05227 5.82597e-08 0)
(5.05227 -5.38491e-08 0)
(5.05227 -1.51911e-08 0)
(5.05227 2.09121e-08 0)
(5.05227 3.13118e-09 0)
(5.05227 2.89971e-08 0)
(5.05227 1.08964e-09 0)
(5.05227 -1.46604e-08 0)
(5.05227 1.24283e-08 0)
(5.05227 4.39553e-08 0)
(5.05227 5.09561e-08 0)
(5.05227 -2.01895e-09 0)
(5.05227 -3.43931e-08 0)
(5.05227 -1.57914e-08 0)
(5.05227 7.17128e-10 0)
(5.05227 2.07946e-08 0)
(5.05227 2.17502e-08 0)
(5.05227 -2.74746e-08 0)
(5.05227 -3.76835e-08 0)
(5.05227 -1.55089e-08 0)
(5.05227 -1.01991e-08 0)
(5.05227 1.50526e-08 0)
(5.05227 3.7057e-08 0)
(5.05227 2.48013e-08 0)
(5.05227 1.09963e-08 0)
(5.05227 -7.23802e-09 0)
(5.05227 -1.99e-08 0)
(5.05227 -6.78216e-09 0)
(5.05227 1.16265e-08 0)
(5.05227 -2.41649e-09 0)
(5.05227 -3.93392e-08 0)
(5.05227 -5.27201e-08 0)
(5.05227 -3.38784e-08 0)
(5.05227 1.99826e-08 0)
(5.05226 2.83432e-08 0)
(5.05227 2.76188e-08 0)
(5.05226 -2.13005e-08 0)
(5.05228 -1.63814e-08 0)
(5.05225 1.599e-09 0)
(5.05228 -1.75629e-08 0)
(5.05225 5.73598e-08 0)
(5.05227 -3.25205e-09 0)
(5.05227 -2.439e-08 0)
(5.05226 5.72406e-08 0)
(5.05227 -1.65776e-08 0)
(5.05227 -4.10165e-08 0)
(10.5241 1.01778 0)
(11.657 0.199019 0)
(11.7403 -1.15378 0)
(10.7571 -1.81581 0)
(9.85092 -1.69359 0)
(9.14506 -1.22226 0)
(9.03494 -0.996886 0)
(8.18664 -1.30402 0)
(7.0434 -1.50609 0)
(6.81655 -1.29637 0)
(6.50106 -1.04515 0)
(6.00888 -0.809294 0)
(5.67239 -0.562186 0)
(5.4465 -0.36173 0)
(5.28926 -0.232788 0)
(5.19456 -0.15455 0)
(5.14104 -0.104474 0)
(5.10887 -0.070547 0)
(5.08823 -0.047194 0)
(5.07489 -0.0311943 0)
(5.0664 -0.0203678 0)
(5.06108 -0.0131545 0)
(5.05776 -0.00841938 0)
(5.0557 -0.00534881 0)
(5.05441 -0.00337695 0)
(5.0536 -0.00212063 0)
(5.05309 -0.00132521 0)
(5.05278 -0.000824458 0)
(5.05258 -0.000510761 0)
(5.05246 -0.000315071 0)
(5.05239 -0.000193686 0)
(5.05234 -0.000118558 0)
(5.05231 -7.22585e-05 0)
(5.05229 -4.38778e-05 0)
(5.05228 -2.65013e-05 0)
(5.05228 -1.60424e-05 0)
(5.05227 -9.59317e-06 0)
(5.05227 -5.691e-06 0)
(5.05227 -3.43785e-06 0)
(5.05227 -1.96902e-06 0)
(5.05227 -1.19949e-06 0)
(5.05227 -7.42256e-07 0)
(5.05227 -3.73779e-07 0)
(5.05227 -3.26018e-07 0)
(5.05227 -1.39934e-07 0)
(5.05227 3.7892e-08 0)
(5.05227 -1.32412e-07 0)
(5.05227 -3.9924e-08 0)
(5.05227 9.38395e-08 0)
(5.05227 -5.76405e-08 0)
(5.05227 -5.34494e-08 0)
(5.05227 -3.42459e-08 0)
(5.05227 -7.38729e-08 0)
(5.05227 3.43511e-08 0)
(5.05227 7.33238e-08 0)
(5.05227 -6.25717e-08 0)
(5.05227 -6.0779e-08 0)
(5.05227 2.88439e-08 0)
(5.05227 1.9976e-08 0)
(5.05227 3.70778e-08 0)
(5.05227 -4.63504e-09 0)
(5.05227 -5.86747e-08 0)
(5.05227 1.50078e-08 0)
(5.05227 8.2129e-08 0)
(5.05227 8.1069e-08 0)
(5.05227 1.85159e-08 0)
(5.05227 -6.14708e-08 0)
(5.05227 -5.06866e-08 0)
(5.05227 5.16516e-09 0)
(5.05227 3.8198e-08 0)
(5.05227 3.77005e-08 0)
(5.05227 -1.1886e-08 0)
(5.05227 -6.87543e-08 0)
(5.05227 -5.4481e-08 0)
(5.05227 -1.37536e-08 0)
(5.05227 1.28649e-08 0)
(5.05227 4.66853e-08 0)
(5.05227 5.84304e-08 0)
(5.05227 2.50235e-08 0)
(5.05227 -2.11455e-08 0)
(5.05227 -4.14831e-08 0)
(5.05227 -8.70724e-09 0)
(5.05227 2.59899e-08 0)
(5.05227 1.17895e-08 0)
(5.05227 -3.50557e-08 0)
(5.05227 -5.83791e-08 0)
(5.05227 -4.67234e-08 0)
(5.05227 1.15888e-09 0)
(5.05226 1.91065e-08 0)
(5.05227 3.96822e-08 0)
(5.05226 -1.72941e-09 0)
(5.05228 -2.03914e-09 0)
(5.05225 4.95747e-09 0)
(5.05228 -1.9554e-08 0)
(5.05225 7.13782e-08 0)
(5.05227 -2.51833e-08 0)
(5.05227 -4.73385e-08 0)
(5.05226 2.7053e-08 0)
(5.05227 -2.99885e-08 0)
(5.05227 -2.5953e-08 0)
(10.4254 0.745606 0)
(11.7371 0.45652 0)
(11.1808 -0.846317 0)
(9.68899 -1.88283 0)
(9.46281 -1.86722 0)
(8.82636 -1.36958 0)
(8.22258 -1.11434 0)
(8.11146 -1.23415 0)
(7.10616 -1.50039 0)
(6.40581 -1.31662 0)
(6.32684 -0.934726 0)
(6.02122 -0.751496 0)
(5.70693 -0.6042 0)
(5.51856 -0.419498 0)
(5.36808 -0.266315 0)
(5.24471 -0.167404 0)
(5.16345 -0.107416 0)
(5.11716 -0.0699411 0)
(5.0915 -0.0456919 0)
(5.07667 -0.0297577 0)
(5.06764 -0.0192693 0)
(5.06198 -0.0123968 0)
(5.05839 -0.00792365 0)
(5.05611 -0.00503297 0)
(5.05467 -0.00317832 0)
(5.05377 -0.00199649 0)
(5.0532 -0.00124785 0)
(5.05285 -0.0007764 0)
(5.05263 -0.000481034 0)
(5.05249 -0.000296671 0)
(5.0524 -0.00018235 0)
(5.05235 -0.000111638 0)
(5.05232 -6.79704e-05 0)
(5.0523 -4.12533e-05 0)
(5.05228 -2.4971e-05 0)
(5.05228 -1.50918e-05 0)
(5.05227 -9.00463e-06 0)
(5.05227 -5.3647e-06 0)
(5.05227 -3.2271e-06 0)
(5.05227 -1.82644e-06 0)
(5.05227 -1.14366e-06 0)
(5.05227 -7.41948e-07 0)
(5.05227 -3.29331e-07 0)
(5.05227 -2.54608e-07 0)
(5.05227 -1.46307e-07 0)
(5.05227 1.92016e-08 0)
(5.05227 -1.18546e-07 0)
(5.05227 -5.01866e-08 0)
(5.05227 6.67084e-08 0)
(5.05227 -7.67936e-08 0)
(5.05227 -5.24538e-08 0)
(5.05227 2.46309e-08 0)
(5.05227 -5.5085e-08 0)
(5.05227 -3.0181e-09 0)
(5.05227 5.80003e-08 0)
(5.05227 -4.64974e-08 0)
(5.05227 -2.17226e-08 0)
(5.05227 2.99785e-08 0)
(5.05227 1.30534e-09 0)
(5.05227 2.0287e-08 0)
(5.05227 9.27129e-09 0)
(5.05227 -1.20322e-08 0)
(5.05227 1.45662e-08 0)
(5.05227 4.60558e-08 0)
(5.05227 4.87505e-08 0)
(5.05227 -2.88609e-09 0)
(5.05227 -3.68857e-08 0)
(5.05227 -1.3498e-08 0)
(5.05227 4.80943e-09 0)
(5.05227 1.60381e-08 0)
(5.05227 1.80752e-08 0)
(5.05227 -2.72805e-08 0)
(5.05227 -4.06621e-08 0)
(5.05227 -1.50094e-08 0)
(5.05227 -7.51224e-09 0)
(5.05227 1.20619e-08 0)
(5.05227 3.82134e-08 0)
(5.05227 2.95089e-08 0)
(5.05227 9.64249e-09 0)
(5.05227 -8.87147e-09 0)
(5.05227 -1.71059e-08 0)
(5.05227 -5.13155e-09 0)
(5.05227 1.0747e-08 0)
(5.05227 -5.04295e-09 0)
(5.05227 -4.32535e-08 0)
(5.05227 -5.32637e-08 0)
(5.05227 -3.24603e-08 0)
(5.05227 2.70427e-08 0)
(5.05226 2.96447e-08 0)
(5.05227 3.23324e-08 0)
(5.05226 -2.96244e-08 0)
(5.05228 -1.5577e-08 0)
(5.05225 4.94165e-09 0)
(5.05228 -3.22381e-08 0)
(5.05225 7.83492e-08 0)
(5.05227 -1.78869e-08 0)
(5.05227 -3.65013e-08 0)
(5.05226 8.25541e-08 0)
(5.05227 -2.63972e-08 0)
(5.05227 -5.47095e-08 0)
(10.0847 0.614527 0)
(11.2593 0.253559 0)
(11.5422 -0.661465 0)
(10.3272 -1.41473 0)
(9.48952 -1.39717 0)
(8.62027 -1.01755 0)
(7.69699 -1.07316 0)
(7.96283 -1.13702 0)
(7.8823 -1.12048 0)
(6.6455 -1.19215 0)
(6.14479 -0.950197 0)
(6.04429 -0.590176 0)
(5.71527 -0.369709 0)
(5.41687 -0.242544 0)
(5.2745 -0.162786 0)
(5.20787 -0.113091 0)
(5.16114 -0.0803725 0)
(5.12418 -0.0568839 0)
(5.0977 -0.0394079 0)
(5.08047 -0.0266188 0)
(5.06976 -0.0175896 0)
(5.06316 -0.0114334 0)
(5.05908 -0.00734411 0)
(5.05653 -0.00467574 0)
(5.05494 -0.00295601 0)
(5.05393 -0.00185782 0)
(5.0533 -0.00116145 0)
(5.05291 -0.000722673 0)
(5.05266 -0.000447701 0)
(5.05251 -0.000276096 0)
(5.05242 -0.000169697 0)
(5.05236 -0.000103816 0)
(5.05232 -6.31639e-05 0)
(5.0523 -3.83818e-05 0)
(5.05229 -2.32144e-05 0)
(5.05228 -1.40167e-05 0)
(5.05227 -8.361e-06 0)
(5.05227 -4.95015e-06 0)
(5.05227 -2.9993e-06 0)
(5.05227 -1.72302e-06 0)
(5.05227 -1.08564e-06 0)
(5.05227 -6.79271e-07 0)
(5.05227 -2.68264e-07 0)
(5.05227 -2.4014e-07 0)
(5.05227 -1.37751e-07 0)
(5.05227 3.12153e-08 0)
(5.05227 -1.22685e-07 0)
(5.05227 -4.45818e-08 0)
(5.05227 9.10908e-08 0)
(5.05227 -6.23034e-08 0)
(5.05227 -4.99192e-08 0)
(5.05227 -7.9127e-09 0)
(5.05227 -6.69899e-08 0)
(5.05227 1.09746e-08 0)
(5.05227 6.21252e-08 0)
(5.05227 -4.43015e-08 0)
(5.05227 -5.17861e-08 0)