/*--------------------------------*- C++ -*----------------------------------*\
| =========                 |                                                 |
| \\      /  F ield         | OpenFOAM: The Open Source CFD Toolbox           |
|  \\    /   O peration     | Version:  2.4.0                                 |
|   \\  /    A nd           | Web:      www.OpenFOAM.org                      |
|    \\/     M anipulation  |                                                 |
\*---------------------------------------------------------------------------*/
FoamFile
{
    version     2.0;
    format      ascii;
    class       surfaceScalarField;
    location    "1.79";
    object      phi;
}
// * * * * * * * * * * * * * * * * * * * * * * * * * * * * * * * * * * * * * //

dimensions      [0 3 -1 0 0 0 0];

internalField   nonuniform List<scalar> 
17320
(
1.76404e-05
7.35964e-06
1.16166e-05
6.02377e-06
8.67703e-06
2.93956e-06
7.3622e-06
1.31483e-06
6.71844e-06
6.43763e-07
6.33464e-06
3.83796e-07
6.08826e-06
2.46382e-07
5.87523e-06
2.1303e-07
5.69432e-06
1.80903e-07
5.58731e-06
1.07011e-07
5.48658e-06
1.00733e-07
5.39021e-06
9.63743e-08
5.29702e-06
9.31825e-08
5.24345e-06
5.35706e-08
5.1388e-06
1.04655e-07
5.08786e-06
5.09414e-08
4.97937e-06
1.08483e-07
5.01727e-06
-3.78976e-08
4.79378e-06
2.23491e-07
-4.80357e-07
5.27414e-06
2.54683e-05
6.89132e-06
2.32403e-05
8.25174e-06
2.09864e-05
5.1935e-06
1.93292e-05
2.97202e-06
1.80713e-05
1.90167e-06
1.71093e-05
1.34579e-06
1.63812e-05
9.74459e-07
1.57719e-05
8.22395e-07
1.52971e-05
6.55728e-07
1.49428e-05
4.61238e-07
1.46397e-05
4.03811e-07
1.43765e-05
3.5963e-07
1.41424e-05
3.27299e-07
1.39639e-05
2.32083e-07
1.37304e-05
3.38148e-07
1.35851e-05
1.96242e-07
1.33464e-05
3.47157e-07
1.3326e-05
-1.74541e-08
1.31701e-05
3.79339e-07
-5.5305e-07
1.32428e-05
2.66339e-05
5.25741e-06
2.714e-05
7.74565e-06
2.67764e-05
5.55705e-06
2.62637e-05
3.48477e-06
2.55979e-05
2.56744e-06
2.48733e-05
2.07039e-06
2.41815e-05
1.66629e-06
2.34972e-05
1.50666e-06
2.29261e-05
1.22685e-06
2.24537e-05
9.33647e-07
2.2037e-05
8.20487e-07
2.16765e-05
7.20118e-07
2.13563e-05
6.47532e-07
2.10963e-05
4.92097e-07
2.07953e-05
6.39104e-07
2.05759e-05
4.15649e-07
2.02913e-05
6.31755e-07
2.0167e-05
1.0684e-07
2.01404e-05
4.05956e-07
-8.9694e-07
2.04843e-05
2.63495e-05
3.90789e-06
2.75171e-05
6.57807e-06
2.80638e-05
5.01036e-06
2.84659e-05
3.08262e-06
2.86448e-05
2.38859e-06
2.86277e-05
2.08744e-06
2.85037e-05
1.79029e-06
2.82345e-05
1.77588e-06
2.79637e-05
1.49771e-06
2.76992e-05
1.19809e-06
2.74261e-05
1.09356e-06
2.71631e-05
9.83151e-07
2.69199e-05
8.90729e-07
2.66867e-05
7.25275e-07
2.64418e-05
8.84058e-07
2.62011e-05
6.56285e-07
2.5977e-05
8.55905e-07
2.56961e-05
3.87768e-07
2.55633e-05
5.38763e-07
-5.03126e-07
2.51694e-05
2.60736e-05
2.83431e-06
2.72444e-05
5.40722e-06
2.79975e-05
4.25728e-06
2.84828e-05
2.5974e-06
2.89773e-05
1.89403e-06
2.93319e-05
1.73284e-06
2.96178e-05
1.50441e-06
2.97621e-05
1.63154e-06
2.98572e-05
1.40268e-06
2.9907e-05
1.14829e-06
2.99429e-05
1.05761e-06
2.99407e-05
9.8541e-07
2.99594e-05
8.71951e-07
2.99132e-05
7.71537e-07
2.9909e-05
8.88266e-07
2.97927e-05
7.72574e-07
2.9749e-05
8.99557e-07
2.9449e-05
6.87772e-07
2.93513e-05
6.36483e-07
8.30561e-08
2.87651e-05
2.58381e-05
1.99616e-06
2.69861e-05
4.25929e-06
2.78011e-05
3.44226e-06
2.81968e-05
2.20168e-06
2.86957e-05
1.39519e-06
2.90856e-05
1.34293e-06
2.94864e-05
1.10353e-06
2.97458e-05
1.37216e-06
3.00486e-05
1.09995e-06
3.01682e-05
1.02862e-06
3.03972e-05
8.28634e-07
3.04859e-05
8.96705e-07
3.07385e-05
6.19328e-07
3.07627e-05
7.47344e-07
3.10491e-05
6.01924e-07
3.10036e-05
8.18055e-07
3.12399e-05
6.63275e-07
3.09693e-05
9.5833e-07
3.10146e-05
5.91158e-07
8.19035e-07
3.02786e-05
2.56951e-05
1.30101e-06
2.67508e-05
3.2036e-06
2.76266e-05
2.56648e-06
2.7982e-05
1.84631e-06
2.84535e-05
9.23653e-07
2.8815e-05
9.81474e-07
2.92038e-05
7.14731e-07
2.94926e-05
1.08333e-06
2.98838e-05
7.08732e-07
2.9986e-05
9.26467e-07
3.02787e-05
5.35877e-07
3.03167e-05
8.58714e-07
3.06454e-05
2.90598e-07
3.06526e-05
7.40194e-07
3.10396e-05
2.14886e-07
3.10443e-05
8.13393e-07
3.13501e-05
3.57467e-07
3.11469e-05
1.1615e-06
3.10605e-05
6.77619e-07
1.65832e-06
3.02212e-05
2.55325e-05
7.68493e-07
2.66078e-05
2.12828e-06
2.74603e-05
1.71406e-06
2.79986e-05
1.30795e-06
2.83427e-05
5.7955e-07
2.86268e-05
6.9742e-07
2.8973e-05
3.68471e-07
2.93306e-05
7.25821e-07
2.96354e-05
4.03863e-07
2.98747e-05
6.87186e-07
3.00887e-05
3.21839e-07
3.02509e-05
6.96536e-07
3.03668e-05
1.74746e-07
3.06117e-05
4.95234e-07
3.07831e-05
4.35469e-08
3.09829e-05
6.1352e-07
3.10749e-05
2.65506e-07
3.15142e-05
7.22163e-07
3.18447e-05
3.47155e-07
6.88722e-07
3.28143e-05
2.54581e-05
3.10396e-07
2.64237e-05
1.16267e-06
2.73572e-05
7.80541e-07
2.79874e-05
6.77798e-07
2.82208e-05
3.46128e-07
2.8535e-05
3.83193e-07
2.88523e-05
5.12336e-08
2.92284e-05
3.49696e-07
2.94869e-05
1.45338e-07
2.97718e-05
4.02286e-07
2.99017e-05
1.92002e-07
3.01668e-05
4.31411e-07
3.03034e-05
3.81432e-08
3.05347e-05
2.63955e-07
3.06057e-05
-2.75073e-08
3.09454e-05
2.73797e-07
3.10964e-05
1.14506e-07
3.14404e-05
3.78183e-07
3.15906e-05
1.96987e-07
1.03084e-07
3.21762e-05
2.54302e-05
-1.19789e-07
2.64441e-05
1.4878e-07
2.7257e-05
-3.23538e-08
2.78852e-05
4.95348e-08
2.82326e-05
-1.21934e-09
2.85452e-05
7.05425e-08
2.88144e-05
-2.17914e-07
2.9157e-05
7.03137e-09
2.94097e-05
-1.07298e-07
2.965e-05
1.6198e-07
2.987e-05
-2.79961e-08
3.01642e-05
1.37173e-07
3.02709e-05
-6.85555e-08
3.04729e-05
6.19327e-08
3.0637e-05
-1.91574e-07
3.08852e-05
2.55673e-08
3.1051e-05
-5.12121e-08
3.13601e-05
6.90234e-08
3.16656e-05
-1.0854e-07
-9.54857e-08
3.18642e-05
2.54209e-05
-5.40659e-07
2.64262e-05
-8.56502e-07
2.7232e-05
-8.38201e-07
2.78468e-05
-5.65314e-07
2.82287e-05
-3.83055e-07
2.86047e-05
-3.05447e-07
2.88168e-05
-4.30075e-07
2.91421e-05
-3.1827e-07
2.93659e-05
-3.31076e-07
2.97025e-05
-1.74636e-07
2.98666e-05
-1.92056e-07
3.01415e-05
-1.37774e-07
3.02471e-05
-1.74142e-07
3.04733e-05
-1.64217e-07
3.06245e-05
-3.42785e-07
3.089e-05
-2.39979e-07
3.10491e-05
-2.10293e-07
3.13645e-05
-2.464e-07
3.15713e-05
-3.15307e-07
-3.08014e-07
3.17838e-05
2.5453e-05
-9.93702e-07
2.64797e-05
-1.8832e-06
2.73216e-05
-1.68008e-06
2.79527e-05
-1.1964e-06
2.82562e-05
-6.86514e-07
2.86039e-05
-6.53203e-07
2.88715e-05
-6.97623e-07
2.91935e-05
-6.40344e-07
2.9428e-05
-5.65494e-07
2.97629e-05
-5.09559e-07
2.99346e-05
-3.6377e-07
3.01264e-05
-3.2955e-07
3.03238e-05
-3.71597e-07
3.0552e-05
-3.92401e-07
3.06693e-05
-4.60087e-07
3.0898e-05
-4.6865e-07
3.11366e-05
-4.48926e-07
3.14357e-05
-5.45506e-07
3.16219e-05
-5.01527e-07
-5.74655e-07
3.18886e-05
2.55287e-05
-1.52237e-06
2.65518e-05
-2.90636e-06
2.74346e-05
-2.56289e-06
2.80506e-05
-1.81233e-06
2.83229e-05
-9.58812e-07
2.86799e-05
-1.01024e-06
2.89963e-05
-1.01402e-06
2.93263e-05
-9.70389e-07
2.95635e-05
-8.02656e-07
2.98405e-05
-7.86548e-07
3.00057e-05
-5.29019e-07
3.02667e-05
-5.90539e-07
3.04211e-05
-5.25972e-07
3.06622e-05
-6.33535e-07
3.07831e-05
-5.80953e-07
3.10262e-05
-7.11726e-07
3.12379e-05
-6.60633e-07
3.15319e-05
-8.39543e-07
3.1789e-05
-7.58614e-07
-8.64256e-07
3.20786e-05
2.56612e-05
-2.18359e-06
2.67339e-05
-3.97907e-06
2.76056e-05
-3.4346e-06
2.80814e-05
-2.28812e-06
2.84745e-05
-1.35188e-06
2.88699e-05
-1.40566e-06
2.91859e-05
-1.33002e-06
2.94813e-05
-1.26573e-06
2.97155e-05
-1.03687e-06
2.99899e-05
-1.06094e-06
3.01926e-05
-7.31752e-07
3.04376e-05
-8.35548e-07
3.06082e-05
-6.96512e-07
3.08158e-05
-8.41154e-07
3.09441e-05
-7.09312e-07
3.11847e-05
-9.52307e-07
3.1339e-05
-8.1493e-07
3.1636e-05
-1.1365e-06
3.19084e-05
-1.03104e-06
-1.14946e-06
3.21936e-05
2.58179e-05
-3.00148e-06
2.69519e-05
-5.11308e-06
2.783e-05
-4.31275e-06
2.82542e-05
-2.71225e-06
2.87155e-05
-1.81321e-06
2.91135e-05
-1.80365e-06
2.94348e-05
-1.65132e-06
2.96843e-05
-1.51523e-06
2.99496e-05
-1.30212e-06
3.01641e-05
-1.27554e-06
3.03837e-05
-9.51308e-07
3.05684e-05
-1.02023e-06
3.07276e-05
-8.55711e-07
3.0859e-05
-9.72595e-07
3.09625e-05
-8.1275e-07
3.10892e-05
-1.07907e-06
3.11762e-05
-9.0191e-07
3.13867e-05
-1.347e-06
3.15507e-05
-1.19503e-06
-1.4516e-06
3.18528e-05
2.60191e-05
-4.02063e-06
2.72616e-05
-6.35548e-06
2.80542e-05
-5.10541e-06
2.85096e-05
-3.1676e-06
2.89831e-05
-2.28676e-06
2.93169e-05
-2.13743e-06
2.9563e-05
-1.89744e-06
2.97035e-05
-1.65568e-06
2.98416e-05
-1.44027e-06
2.98944e-05
-1.32836e-06
2.99691e-05
-1.02602e-06
2.99639e-05
-1.01502e-06
2.99661e-05
-8.57885e-07
2.99077e-05
-9.14247e-07
2.98652e-05
-7.70189e-07
2.97694e-05
-9.83241e-07
2.9686e-05
-8.18539e-07
2.96163e-05
-1.27728e-06
2.95433e-05
-1.12204e-06
-1.50361e-06
2.95953e-05
2.62987e-05
-5.31938e-06
2.7569e-05
-7.62574e-06
2.80799e-05
-5.61634e-06
2.84477e-05
-3.53533e-06
2.86462e-05
-2.4853e-06
2.86136e-05
-2.10487e-06
2.84591e-05
-1.74291e-06
2.82237e-05
-1.42024e-06
2.797e-05
-1.18663e-06
2.76796e-05
-1.03793e-06
2.74362e-05
-7.82593e-07
2.71568e-05
-7.35623e-07
2.69147e-05
-6.15791e-07
2.66434e-05
-6.42984e-07
2.64143e-05
-5.41031e-07
2.61235e-05
-6.92498e-07
2.58876e-05
-5.82641e-07
2.55447e-05
-9.34342e-07
2.53e-05
-8.77398e-07
-1.33926e-06
2.51357e-05
2.66017e-05
-6.92111e-06
2.71761e-05
-8.20012e-06
2.67713e-05
-5.21155e-06
2.62431e-05
-3.00714e-06
2.56094e-05
-1.85161e-06
2.48649e-05
-1.36028e-06
2.41463e-05
-1.02438e-06
2.35044e-05
-7.78345e-07
2.29358e-05
-6.17953e-07
2.24334e-05
-5.35534e-07
2.20342e-05
-3.83445e-07
2.16629e-05
-3.64294e-07
2.13499e-05
-3.02841e-07
2.10388e-05
-3.31867e-07
2.07741e-05
-2.76281e-07
2.04574e-05
-3.75818e-07
2.01942e-05
-3.19437e-07
1.977e-05
-5.10179e-07
1.93947e-05
-5.02077e-07
-4.82171e-07
1.85376e-05
2.54479e-05
-7.36901e-06
2.32577e-05
-6.00996e-06
2.09836e-05
-2.93745e-06
1.93114e-05
-1.33488e-06
1.80833e-05
-6.23524e-07
1.71065e-05
-3.83518e-07
1.63548e-05
-2.72665e-07
1.5776e-05
-1.99579e-07
1.5312e-05
-1.53941e-07
1.49216e-05
-1.4511e-07
1.46307e-05
-9.2513e-08
1.43631e-05
-9.66696e-08
1.41392e-05
-7.89858e-08
1.39071e-05
-9.97794e-08
1.3709e-05
-7.81829e-08
1.34581e-05
-1.24882e-07
1.32381e-05
-9.95049e-08
1.29003e-05
-1.72335e-07
1.26168e-05
-2.18545e-07
-8.13058e-08
1.22159e-05
1.7631e-05
1.1621e-05
8.68358e-06
7.3487e-06
6.72518e-06
6.34166e-06
6.069e-06
5.86942e-06
5.71548e-06
5.57037e-06
5.47786e-06
5.38119e-06
5.3022e-06
5.20242e-06
5.12424e-06
4.99936e-06
4.89985e-06
4.72752e-06
4.50897e-06
4.42766e-06
5.62903e-06
-2.24615e-07
-1.30281e-07
6.02799e-06
5.50072e-08
-4.53966e-07
6.43518e-06
3.16441e-07
-7.23626e-07
6.92188e-06
3.99491e-07
-8.86195e-07
7.40629e-06
3.06937e-07
-7.91347e-07
7.81544e-06
1.41311e-07
-5.50458e-07
8.11176e-06
-6.10664e-08
-2.35256e-07
8.28313e-06
-2.53297e-07
8.19318e-08
8.37978e-06
-3.84149e-07
2.87497e-07
8.41821e-06
-4.52704e-07
4.14274e-07
8.44328e-06
-4.40235e-07
4.15165e-07
8.49351e-06
-3.91833e-07
3.41605e-07
8.5814e-06
-3.08702e-07
2.20811e-07
8.71409e-06
-2.31668e-07
9.89796e-08
8.87207e-06
-1.69727e-07
1.1742e-08
9.03759e-06
-1.22477e-07
-4.30403e-08
9.23471e-06
-7.07461e-08
-1.26378e-07
9.46874e-06
-1.79137e-08
-2.16113e-07
9.72777e-06
3.09591e-08
-2.89989e-07
1.00123e-05
9.32585e-08
-3.77757e-07
1.03355e-05
1.25318e-07
-4.48591e-07
1.06823e-05
1.24849e-07
-4.71589e-07
1.10731e-05
8.32439e-08
-4.74098e-07
1.14576e-05
-3.51082e-08
-3.4932e-07
1.18117e-05
-1.93368e-07
-1.60744e-07
1.21271e-05
-4.59125e-07
1.43667e-07
1.23783e-05
-7.19975e-07
4.68772e-07
1.25732e-05
-1.03461e-06
8.39733e-07
1.27159e-05
-1.31536e-06
1.17272e-06
1.28111e-05
-1.58274e-06
1.48751e-06
1.28858e-05
-1.82981e-06
1.75513e-06
1.29368e-05
-1.95456e-06
1.9035e-06
1.29697e-05
-2.02745e-06
1.99455e-06
1.29347e-05
-1.98432e-06
2.01934e-06
1.28617e-05
-1.95373e-06
2.02675e-06
1.27338e-05
-1.86629e-06
1.99416e-06
1.2531e-05
-1.70789e-06
1.91072e-06
1.23428e-05
-1.53387e-06
1.72206e-06
1.21281e-05
-1.28137e-06
1.49604e-06
1.19459e-05
-1.05088e-06
1.23306e-06
1.17811e-05
-7.42677e-07
9.07561e-07
1.16311e-05
-4.15684e-07
5.65635e-07
1.15157e-05
-1.07759e-07
2.23213e-07
1.15077e-05
2.25505e-07
-2.17598e-07
1.16178e-05
5.21023e-07
-6.3112e-07
1.17942e-05
8.6925e-07
-1.04565e-06
1.21134e-05
1.05706e-06
-1.37622e-06
1.24085e-05
1.36587e-06
-1.66098e-06
1.27772e-05
1.50552e-06
-1.87425e-06
1.3195e-05
1.74189e-06
-2.15967e-06
1.36659e-05
1.92827e-06
-2.39916e-06
1.41925e-05
2.03693e-06
-2.56348e-06
1.46718e-05
2.07389e-06
-2.55324e-06
1.5187e-05
2.019e-06
-2.53422e-06
1.5609e-05
1.87211e-06
-2.29406e-06
1.60946e-05
1.73541e-06
-2.22105e-06
1.65787e-05
1.4678e-06
-1.9519e-06
1.72539e-05
1.207e-06
-1.88222e-06
1.79167e-05
7.11267e-07
-1.374e-06
1.86694e-05
1.14981e-07
-8.67688e-07
1.95025e-05
-6.46519e-07
-1.86591e-07
2.0314e-05
-1.61443e-06
8.02913e-07
2.11323e-05
-2.76317e-06
1.94485e-06
2.1869e-05
-3.89936e-06
3.16272e-06
2.25412e-05
-4.89504e-06
4.2228e-06
2.31676e-05
-5.83304e-06
5.20668e-06
2.36987e-05
-6.67252e-06
6.14134e-06
2.43362e-05
-7.15165e-06
6.51422e-06
2.46663e-05
-7.20274e-06
6.87258e-06
2.487e-05
-7.10917e-06
6.90553e-06
2.50466e-05
-6.52316e-06
6.34658e-06
2.52078e-05
-5.92628e-06
5.76504e-06
2.55586e-05
-5.34325e-06
4.99242e-06
2.59627e-05
-4.48868e-06
4.08458e-06
2.61707e-05
-3.70081e-06
3.49279e-06
2.64503e-05
-2.82979e-06
2.5502e-06
2.66277e-05
-2.10318e-06
1.92584e-06
2.67519e-05
-1.65225e-06
1.52797e-06
2.70335e-05
-1.21278e-06
9.3122e-07
2.73723e-05
-1.09121e-06
7.52457e-07
2.75825e-05
-1.18224e-06
9.71951e-07
2.79396e-05
-1.37561e-06
1.01855e-06
2.8198e-05
-1.83535e-06
1.57698e-06
2.83972e-05
-2.46533e-06
2.26612e-06
2.85941e-05
-3.20021e-06
3.0033e-06
2.87778e-05
-3.99272e-06
3.80898e-06
2.89758e-05
-5.03137e-06
4.83343e-06
2.91021e-05
-6.04392e-06
5.91761e-06
2.919e-05
-7.18127e-06
7.09336e-06
2.9341e-05
-8.46724e-06
8.31629e-06
2.93422e-05
-9.80186e-06
9.80066e-06
2.92135e-05
-1.1065e-05
1.11937e-05
2.89062e-05
-1.2284e-05
1.25913e-05
2.82553e-05
-1.33935e-05
1.40444e-05
2.71068e-05
-1.40186e-05
1.5167e-05
2.58079e-05
-1.4601e-05
1.58999e-05
2.47066e-05
-1.53601e-05
1.64614e-05
2.37087e-05
-1.57648e-05
1.67627e-05
2.36391e-05
-1.70775e-05
1.71472e-05
2.44326e-05
-1.95729e-05
1.87794e-05
2.47422e-05
-2.0763e-05
2.04534e-05
2.39257e-05
-2.06445e-05
2.14611e-05
2.29547e-05
-2.04868e-05
2.14577e-05
2.28996e-05
-2.07971e-05
2.08522e-05
2.39095e-05
-2.15707e-05
2.05608e-05
2.53149e-05
-2.14831e-05
2.00777e-05
2.65133e-05
-2.01953e-05
1.8997e-05
2.72943e-05
-1.75695e-05
1.67886e-05
2.79121e-05
-1.49266e-05
1.43087e-05
2.82616e-05
-1.26513e-05
1.23019e-05
2.86216e-05
-9.94347e-06
9.58347e-06
2.8546e-05
-6.52709e-06
6.60266e-06
2.79246e-05
-3.35976e-06
3.98113e-06
2.70126e-05
-5.92986e-07
1.50502e-06
2.6479e-05
1.58716e-06
-1.05362e-06
2.62277e-05
3.05412e-06
-2.80279e-06
2.66353e-05
4.50137e-06
-4.90897e-06
2.74657e-05
6.59537e-06
-7.42578e-06
2.83141e-05
9.58873e-06
-1.04371e-05
2.82989e-05
1.34337e-05
-1.34185e-05
2.75932e-05
1.58223e-05
-1.51166e-05
2.65471e-05
1.66448e-05
-1.55988e-05
2.5426e-05
1.62449e-05
-1.51238e-05
2.45414e-05
1.60255e-05
-1.5141e-05
2.37792e-05
1.59281e-05
-1.51659e-05
2.35675e-05
1.50124e-05
-1.48007e-05
2.31035e-05
1.44775e-05
-1.40135e-05
2.24457e-05
1.39031e-05
-1.32453e-05
2.18488e-05
1.44208e-05
-1.38239e-05
2.08786e-05
1.46011e-05
-1.36309e-05
2.03711e-05
1.37474e-05
-1.32399e-05
2.00843e-05
1.31967e-05
-1.29098e-05
2.08249e-05
1.33108e-05
-1.40514e-05
2.19869e-05
1.61236e-05
-1.72855e-05
2.29864e-05
1.94141e-05
-2.04137e-05
2.36432e-05
2.25524e-05
-2.32092e-05
2.35208e-05
2.31655e-05
-2.3043e-05
2.318e-05
2.18758e-05
-2.1535e-05
2.23972e-05
2.02416e-05
-1.94588e-05
2.16104e-05
1.7991e-05
-1.72041e-05
2.08173e-05
1.4884e-05
-1.40908e-05
2.03841e-05
1.10219e-05
-1.05888e-05
2.01511e-05
8.54132e-06
-8.30824e-06
1.97632e-05
6.52086e-06
-6.13296e-06
1.92745e-05
3.52908e-06
-3.04045e-06
1.89246e-05
-7.83839e-07
1.1338e-06
1.8757e-05
-3.88573e-06
4.05327e-06
1.87919e-05
-6.55207e-06
6.51716e-06
1.89018e-05
-9.94407e-06
9.83422e-06
1.90294e-05
-1.39799e-05
1.38523e-05
1.89687e-05
-1.63763e-05
1.6437e-05
1.88336e-05
-1.76464e-05
1.77815e-05
1.86194e-05
-1.89826e-05
1.91968e-05
1.85464e-05
-1.98403e-05
1.99133e-05
1.82984e-05
-1.96691e-05
1.99172e-05
1.78176e-05
-1.8452e-05
1.89327e-05
1.74361e-05
-1.74282e-05
1.78097e-05
1.72944e-05
-1.67569e-05
1.68986e-05
1.74887e-05
-1.71915e-05
1.69972e-05
1.80385e-05
-1.81571e-05
1.76073e-05
1.88231e-05
-1.91446e-05
1.83601e-05
1.96993e-05
-1.98723e-05
1.89961e-05
2.04994e-05
-1.98362e-05
1.90361e-05
2.13227e-05
-1.94039e-05
1.85807e-05
2.21127e-05
-1.79147e-05
1.71246e-05
2.27195e-05
-1.54777e-05
1.48709e-05
2.30015e-05
-1.23132e-05
1.20312e-05
2.33264e-05
-8.60412e-06
8.2793e-06
2.37549e-05
-5.11584e-06
4.68726e-06
2.40246e-05
-1.54386e-06
1.27417e-06
2.43447e-05
2.51333e-06
-2.83339e-06
2.47261e-05
6.65828e-06
-7.03964e-06
2.50018e-05
1.0019e-05
-1.02948e-05
2.54033e-05
1.33586e-05
-1.376e-05
2.55477e-05
1.72015e-05
-1.73459e-05
2.5246e-05
2.00946e-05
-1.97929e-05
2.50626e-05
2.16756e-05
-2.14922e-05
2.47105e-05
2.33927e-05
-2.30407e-05
2.41709e-05
2.44872e-05
-2.39476e-05
2.42409e-05
2.44534e-05
-2.45235e-05
2.40258e-05
2.47123e-05
-2.44971e-05
2.29827e-05
2.46856e-05
-2.36425e-05
2.29175e-05
2.32718e-05
-2.32066e-05
2.33363e-05
2.17422e-05
-2.21609e-05
2.2481e-05
2.06472e-05
-1.97919e-05
2.24098e-05
1.81912e-05
-1.812e-05
2.27609e-05
1.7527e-05
-1.78781e-05
2.19113e-05
1.73933e-05
-1.65437e-05
2.25149e-05
1.51668e-05
-1.57704e-05
2.14692e-05
1.52347e-05
-1.4189e-05
2.15089e-05
1.05104e-05
-1.05501e-05
2.041e-05
9.61801e-06
-8.51907e-06
2.03421e-05
3.82941e-06
-3.76151e-06
1.89635e-05
3.7969e-06
-2.41829e-06
1.95292e-05
-1.51286e-06
9.4709e-07
1.74382e-05
1.51871e-06
5.72326e-07
1.87072e-05
-2.97573e-06
1.70671e-06
1.509e-05
4.85442e-06
-1.23718e-06
1.76892e-05
-1.99819e-07
-2.39945e-06
1.44008e-05
-1.33157e-05
1.66041e-05
1.31995e-05
-1.81359e-07
1.32289e-05
2.56403e-08
1.33869e-05
1.58443e-07
1.35491e-05
2.37324e-07
1.37349e-05
1.21113e-07
1.39186e-05
-4.2349e-08
1.40899e-05
-2.32366e-07
1.42216e-05
-3.85091e-07
1.43103e-05
-4.728e-07
1.43739e-05
-5.16342e-07
1.4429e-05
-4.95299e-07
1.45012e-05
-4.6401e-07
1.45977e-05
-4.05229e-07
1.47143e-05
-3.48223e-07
1.48423e-05
-2.97807e-07
1.49861e-05
-2.66278e-07
1.51473e-05
-2.31907e-07
1.53285e-05
-1.9911e-07
1.55412e-05
-1.81755e-07
1.57731e-05
-1.3867e-07
1.60439e-05
-1.45449e-07
1.63351e-05
-1.66353e-07
1.66507e-05
-2.32379e-07
1.69813e-05
-3.65644e-07
1.72834e-05
-4.95465e-07
1.75727e-05
-7.48448e-07
1.78139e-05
-9.61151e-07
1.80129e-05
-1.23369e-06
1.81792e-05
-1.48163e-06
1.82928e-05
-1.69633e-06
1.83688e-05
-1.90577e-06
1.84027e-05
-1.98851e-06
1.84193e-05
-2.04409e-06
1.84327e-05
-1.99771e-06
1.84073e-05
-1.92834e-06
1.8357e-05
-1.81597e-06
1.82468e-05
-1.59766e-06
1.81222e-05
-1.40931e-06
1.79701e-05
-1.12926e-06
1.77562e-05
-8.37e-07
1.75542e-05
-5.40684e-07
1.73218e-05
-1.83205e-07
1.70773e-05
1.36753e-07
1.68496e-05
4.53208e-07
1.6648e-05
7.22591e-07
1.652e-05
9.97222e-07
1.64331e-05
1.144e-06
1.64375e-05
1.36144e-06
1.65114e-05
1.43162e-06
1.67085e-05
1.54476e-06
1.69798e-05
1.65704e-06
1.73771e-05
1.63963e-06
1.77929e-05
1.65806e-06
1.83086e-05
1.50335e-06
1.87926e-05
1.38806e-06
1.94213e-05
1.10668e-06
2.00342e-05
8.54976e-07
2.08207e-05
4.20487e-07
2.16463e-05
-1.14376e-07
2.25008e-05
-7.39528e-07
2.34448e-05
-1.59053e-06
2.43561e-05
-2.52573e-06
2.51891e-05
-3.59609e-06
2.59425e-05
-4.65282e-06
2.65845e-05
-5.53699e-06
2.71776e-05
-6.42622e-06
2.75705e-05
-7.06533e-06
2.77607e-05
-7.34187e-06
2.7916e-05
-7.35805e-06
2.79608e-05
-7.154e-06
2.80576e-05
-6.61994e-06
2.80986e-05
-5.96732e-06
2.79755e-05
-5.22007e-06
2.78975e-05
-4.41072e-06
2.78375e-05
-3.64082e-06
2.80549e-05
-3.04719e-06
2.8298e-05
-2.34633e-06
2.84914e-05
-1.84556e-06
2.87999e-05
-1.52134e-06
2.89855e-05
-1.27681e-06
2.91469e-05
-1.34365e-06
2.9448e-05
-1.67667e-06
2.95905e-05
-1.97783e-06
2.97194e-05
-2.5943e-06
2.98611e-05
-3.34184e-06
3.00129e-05
-4.1445e-06
3.00031e-05
-5.02157e-06
3.00292e-05
-6.07007e-06
2.99968e-05
-7.14882e-06
2.97797e-05
-8.25014e-06
2.93774e-05
-9.39957e-06
2.87192e-05
-1.04068e-05
2.78379e-05
-1.14027e-05
2.66365e-05
-1.21921e-05
2.53295e-05
-1.27116e-05
2.44232e-05
-1.36946e-05
2.36145e-05
-1.45514e-05
2.3126e-05
-1.52764e-05
2.3626e-05
-1.75775e-05
2.37064e-05
-1.96533e-05
2.23193e-05
-1.93759e-05
2.05446e-05
-1.88698e-05
2.0302e-05
-2.02442e-05
2.16975e-05
-2.21926e-05
2.34367e-05
-2.331e-05
2.48726e-05
-2.2919e-05
2.57432e-05
-2.1066e-05
2.62525e-05
-1.80788e-05
2.66634e-05
-1.53375e-05
2.70034e-05
-1.29913e-05
2.74951e-05
-1.04351e-05
2.75932e-05
-6.62522e-06
2.70842e-05
-2.85074e-06
2.60666e-05
4.24598e-07
2.50827e-05
2.57103e-06
2.41382e-05
3.99867e-06
2.39415e-05
4.69806e-06
2.45153e-05
6.02156e-06
2.54648e-05
8.63926e-06
2.59398e-05
1.29587e-05
2.5593e-05
1.61691e-05
2.48521e-05
1.73857e-05
2.37219e-05
1.73751e-05
2.29748e-05
1.67726e-05
2.2445e-05
1.64579e-05
2.21481e-05
1.53093e-05
2.20522e-05
1.45735e-05
2.14973e-05
1.44579e-05
2.12135e-05
1.47046e-05
2.05663e-05
1.52484e-05
2.02408e-05
1.40729e-05
2.02371e-05
1.32005e-05
2.087e-05
1.26779e-05
2.20707e-05
1.49229e-05
2.3179e-05
1.83058e-05
2.4097e-05
2.16344e-05
2.42799e-05
2.29826e-05
2.41414e-05
2.20143e-05
2.35795e-05
2.08034e-05
2.28527e-05
1.87178e-05
2.2125e-05
1.56116e-05
2.14418e-05
1.17051e-05
2.10499e-05
8.93331e-06
2.07691e-05
6.80166e-06
2.04525e-05
3.8456e-06
2.01305e-05
-4.61778e-07
2.00687e-05
-3.82394e-06
2.00953e-05
-6.57867e-06
2.0211e-05
-1.00598e-05
2.02053e-05
-1.39742e-05
2.00642e-05
-1.62352e-05
1.98612e-05
-1.74433e-05
1.95024e-05
-1.86238e-05
1.92643e-05
-1.96023e-05
1.86128e-05
-1.90176e-05
1.78464e-05
-1.76856e-05
1.72305e-05
-1.68122e-05
1.69231e-05
-1.64495e-05
1.70669e-05
-1.73353e-05
1.74803e-05
-1.85705e-05
1.79906e-05
-1.96549e-05
1.8496e-05
-2.03777e-05
1.90903e-05
-2.04306e-05
1.96269e-05
-1.99405e-05
2.02126e-05
-1.85004e-05
2.06136e-05
-1.58787e-05
2.07823e-05
-1.2482e-05
2.12753e-05
-9.09708e-06
2.16108e-05
-5.45139e-06
2.19783e-05
-1.91133e-06
2.22409e-05
2.25068e-06
2.26186e-05
6.28057e-06
2.32029e-05
9.43471e-06
2.36107e-05
1.29508e-05
2.40955e-05
1.67167e-05
2.43053e-05
1.98847e-05
2.40626e-05
2.19183e-05
2.42105e-05
2.32449e-05
2.42517e-05
2.4446e-05
2.35837e-05
2.51214e-05
2.39162e-05
2.43798e-05
2.4401e-05
2.42007e-05
2.31278e-05
2.4545e-05
2.35642e-05
2.13057e-05
2.43033e-05
1.99081e-05
2.31297e-05
1.93648e-05
2.41542e-05
1.65025e-05
2.34593e-05
1.80882e-05
2.40803e-05
1.45457e-05
2.36662e-05
1.56488e-05
2.45738e-05
9.60278e-06
2.30456e-05
1.11462e-05
2.53543e-05
1.52077e-06
2.29958e-05
6.15538e-06
2.57425e-05
-4.25953e-06
2.30014e-05
4.2598e-06
2.51352e-05
-5.10955e-06
2.26901e-05
7.29951e-06
2.37204e-05
-1.2301e-06
1.24185e-05
2.57028e-05
2.02752e-05
2.7697e-08
2.00281e-05
2.72802e-07
1.99167e-05
2.69818e-07
2.00075e-05
1.46492e-07
2.01644e-05
-3.57371e-08
2.03164e-05
-1.94366e-07
2.04318e-05
-3.47756e-07
2.05003e-05
-4.53593e-07
2.05284e-05
-5.00913e-07
2.05638e-05
-5.51771e-07
2.05925e-05
-5.23915e-07
2.06512e-05
-5.22768e-07
2.07183e-05
-4.72329e-07
2.07965e-05
-4.26361e-07
2.08994e-05
-4.00725e-07
2.10084e-05
-3.75259e-07
2.11286e-05
-3.5219e-07
2.12748e-05
-3.45246e-07
2.14376e-05
-3.44617e-07
2.16251e-05
-3.26167e-07
2.18482e-05
-3.6856e-07
2.20651e-05
-3.83225e-07
2.23213e-05
-4.88536e-07
2.25641e-05
-6.08467e-07
2.27934e-05
-7.24742e-07
2.30169e-05
-9.72011e-07
2.31866e-05
-1.13079e-06
2.33416e-05
-1.38872e-06
2.3443e-05
-1.58297e-06
2.35118e-05
-1.76517e-06
2.3533e-05
-1.92702e-06
2.35315e-05
-1.98701e-06
2.35087e-05
-2.0213e-06
2.34777e-05
-1.96668e-06
2.34299e-05
-1.88054e-06
2.33227e-05
-1.70877e-06
2.32306e-05
-1.50551e-06
2.30939e-05
-1.27259e-06
2.29553e-05
-9.90705e-07
2.28025e-05
-6.84158e-07
2.26301e-05
-3.68332e-07
2.2524e-05
-7.70436e-08
2.23184e-05
3.42318e-07
2.21837e-05
5.87897e-07
2.20245e-05
8.81785e-07
2.18718e-05
1.14998e-06
2.17667e-05
1.24906e-06
2.16667e-05
1.46142e-06
2.16153e-05
1.48298e-06
2.16639e-05
1.49616e-06
2.17625e-05
1.55852e-06
2.19826e-05
1.41946e-06
2.22826e-05
1.3581e-06
2.26609e-05
1.12504e-06
2.31416e-05
9.07403e-07
2.3702e-05
5.46226e-07
2.43626e-05
1.94432e-07
2.5121e-05
-3.37956e-07
2.59272e-05
-9.20599e-07
2.67951e-05
-1.60741e-06
2.76608e-05
-2.45619e-06
2.84789e-05
-3.34388e-06
2.91697e-05
-4.28688e-06
2.9767e-05
-5.25016e-06
3.02448e-05
-6.0148e-06
3.05044e-05
-6.68583e-06
3.05909e-05
-7.15177e-06
3.05259e-05
-7.27692e-06
3.04436e-05
-7.27573e-06
3.01635e-05
-6.8739e-06
2.97814e-05
-6.23786e-06
2.94281e-05
-5.61401e-06
2.90814e-05
-4.87335e-06
2.89314e-05
-4.2607e-06
2.88178e-05
-3.52724e-06
2.87514e-05
-2.98072e-06
2.88327e-05
-2.42772e-06
2.8911e-05
-1.92387e-06
2.9101e-05
-1.71124e-06
2.93113e-05
-1.48715e-06
2.94895e-05
-1.52186e-06
2.96388e-05
-1.82593e-06
2.98242e-05
-2.1633e-06
2.99786e-05
-2.74869e-06
2.99944e-05
-3.35766e-06
3.00468e-05
-4.19682e-06
2.99907e-05
-4.96553e-06
2.97834e-05
-5.86281e-06
2.94322e-05
-6.79757e-06
2.89215e-05
-7.73943e-06
2.81686e-05
-8.64671e-06
2.72603e-05
-9.49849e-06
2.63191e-05
-1.04615e-05
2.52475e-05
-1.11205e-05
2.44523e-05
-1.19165e-05
2.39751e-05
-1.32173e-05
2.31751e-05
-1.37514e-05
2.28043e-05
-1.49056e-05
2.28159e-05
-1.75891e-05
2.13923e-05
-1.82297e-05
1.89052e-05
-1.68888e-05
1.78512e-05
-1.78158e-05
1.89951e-05
-2.13881e-05
2.07897e-05
-2.39872e-05
2.20081e-05
-2.45283e-05
2.2634e-05
-2.35449e-05
2.27673e-05
-2.11992e-05
2.28905e-05
-1.8202e-05
2.30396e-05
-1.54866e-05
2.34158e-05
-1.33675e-05
2.39397e-05
-1.0959e-05
2.44148e-05
-7.10037e-06
2.45932e-05
-3.02911e-06
2.42381e-05
7.79691e-07
2.36001e-05
3.20897e-06
2.2676e-05
4.92284e-06
2.21319e-05
5.24214e-06
2.22701e-05
5.88337e-06
2.27683e-05
8.14102e-06
2.31693e-05
1.25577e-05
2.29536e-05
1.63849e-05
2.25376e-05
1.78017e-05
2.17367e-05
1.8176e-05
2.10864e-05
1.7423e-05
2.08245e-05
1.67197e-05
2.0548e-05
1.55857e-05
2.07288e-05
1.43927e-05
2.03417e-05
1.48451e-05
2.01878e-05
1.48584e-05
2.01189e-05
1.53173e-05
2.00784e-05
1.41134e-05
2.04564e-05
1.28224e-05
2.10064e-05
1.21278e-05
2.21806e-05
1.37487e-05
2.32809e-05
1.72054e-05
2.4291e-05
2.06243e-05
2.48229e-05
2.24507e-05
2.47507e-05
2.20864e-05
2.4416e-05
2.11381e-05
2.3936e-05
1.91978e-05
2.31628e-05
1.63848e-05
2.22591e-05
1.26087e-05
2.18923e-05
9.30017e-06
2.16529e-05
7.04108e-06
2.15174e-05
3.98102e-06
2.13114e-05
-2.55785e-07
2.13117e-05
-3.82423e-06
2.1242e-05
-6.5089e-06
2.14771e-05
-1.02949e-05
2.14753e-05
-1.39724e-05
2.11391e-05
-1.5899e-05
2.07498e-05
-1.7054e-05
2.02404e-05
-1.81144e-05
1.97388e-05
-1.91007e-05
1.88571e-05
-1.81359e-05
1.79081e-05
-1.67365e-05
1.69707e-05
-1.58748e-05
1.652e-05
-1.59988e-05
1.64933e-05
-1.73086e-05
1.65391e-05
-1.86162e-05
1.68162e-05
-1.99321e-05
1.69702e-05
-2.05317e-05
1.72656e-05
-2.0726e-05
1.77396e-05
-2.04144e-05
1.79793e-05
-1.87402e-05
1.81766e-05
-1.60759e-05
1.85389e-05
-1.28443e-05
1.89503e-05
-9.50849e-06
1.94593e-05
-5.96032e-06
1.98384e-05
-2.29045e-06
2.00205e-05
2.0686e-06
2.04768e-05
5.82427e-06
2.10931e-05
8.81835e-06
2.1714e-05
1.23299e-05
2.24041e-05
1.60266e-05
2.30095e-05
1.92793e-05
2.32495e-05
2.16784e-05
2.30858e-05
2.34086e-05
2.37349e-05
2.37969e-05
2.41363e-05
2.472e-05
2.29387e-05
2.55774e-05
2.37635e-05
2.33759e-05
2.46692e-05
2.36392e-05
2.30787e-05
2.28963e-05
2.44519e-05
1.8535e-05
2.40484e-05
1.97682e-05
2.4642e-05
1.59089e-05
2.46419e-05
1.80883e-05
2.62536e-05
1.2934e-05
2.50126e-05
1.68899e-05
2.84077e-05
6.20764e-06
2.6337e-05
1.32169e-05
2.88774e-05
-1.01968e-06
2.745e-05
7.58284e-06
2.843e-05
-5.2396e-06
2.79471e-05
4.74271e-06
2.76526e-05
-4.81501e-06
2.89673e-05
5.98474e-06
2.72847e-05
4.52519e-07
9.25028e-06
3.04529e-05
2.51534e-05
4.37277e-08
2.52681e-05
1.5817e-07
2.54064e-05
1.31502e-07
2.55329e-05
1.99261e-08
2.56995e-05
-2.0227e-07
2.58082e-05
-3.03098e-07
2.58835e-05
-4.23038e-07
2.59108e-05
-4.80941e-07
2.59034e-05
-4.93439e-07
2.59039e-05
-5.52267e-07
2.59012e-05
-5.21218e-07
2.59294e-05
-5.51023e-07
2.59745e-05
-5.17387e-07
2.60296e-05
-4.81467e-07
2.61014e-05
-4.72505e-07
2.61854e-05
-4.5935e-07
2.62586e-05
-4.25306e-07
2.63636e-05
-4.50308e-07
2.64895e-05
-4.70474e-07
2.66138e-05
-4.50476e-07
2.68031e-05
-5.57881e-07
2.69496e-05
-5.29677e-07
2.71432e-05
-6.8222e-07
2.73133e-05
-7.78539e-07
2.74424e-05
-8.53797e-07
2.75981e-05
-1.12769e-06
2.76542e-05
-1.18694e-06
2.77395e-05
-1.47403e-06
2.77461e-05
-1.58952e-06
2.77472e-05
-1.76633e-06
2.77221e-05
-1.9019e-06
2.76524e-05
-1.91732e-06
2.75991e-05
-1.968e-06
2.74764e-05
-1.84393e-06
2.73915e-05
-1.79565e-06
2.7237e-05
-1.55433e-06
2.71153e-05
-1.38377e-06
2.7011e-05
-1.16833e-06
2.68667e-05
-8.46334e-07
2.68065e-05
-6.24042e-07
2.66828e-05
-2.44591e-07
2.66196e-05
-1.38036e-08
2.65561e-05
4.05818e-07
2.64823e-05
6.61656e-07
2.64504e-05
9.13646e-07
2.64035e-05
1.19689e-06
2.63859e-05
1.26669e-06
2.6396e-05
1.4513e-06
2.64437e-05
1.43534e-06
2.65109e-05
1.42891e-06
2.66786e-05
1.39082e-06
2.68582e-05
1.2399e-06
2.71449e-05
1.07134e-06
2.74774e-05
7.92547e-07
2.78871e-05
4.97694e-07
2.83662e-05
6.7173e-08
2.89514e-05
-3.90814e-07
2.9562e-05
-9.4848e-07
3.02418e-05
-1.6004e-06
3.09211e-05
-2.28671e-06
3.15477e-05
-3.08284e-06
3.21034e-05
-3.89958e-06
3.25379e-05
-4.7214e-06
3.27892e-05
-5.50144e-06
3.28656e-05
-6.09123e-06
3.27565e-05
-6.57666e-06
3.24842e-05
-6.87949e-06
3.21037e-05
-6.89638e-06
3.15283e-05
-6.7004e-06
3.08885e-05
-6.23407e-06
3.03197e-05
-5.66903e-06
2.98179e-05
-5.11224e-06
2.94316e-05
-4.48708e-06
2.9101e-05
-3.93015e-06
2.88497e-05
-3.27589e-06
2.86218e-05
-2.75278e-06
2.85131e-05
-2.3191e-06
2.8524e-05
-1.93474e-06
2.85821e-05
-1.76936e-06
2.87595e-05
-1.66454e-06
2.89492e-05
-1.7115e-06
2.90316e-05
-1.90833e-06
2.91875e-05
-2.31923e-06
2.91958e-05
-2.75702e-06
2.91873e-05
-3.34917e-06
2.90498e-05
-4.05925e-06
2.88195e-05
-4.7353e-06
2.85387e-05
-5.58194e-06
2.80554e-05
-6.3143e-06
2.74814e-05
-7.16543e-06
2.67962e-05
-7.96151e-06
2.62361e-05
-8.93837e-06
2.54978e-05
-9.72316e-06
2.46576e-05
-1.02803e-05
2.42963e-05
-1.15553e-05
2.33885e-05
-1.23095e-05
2.22151e-05
-1.25779e-05
2.20549e-05
-1.47454e-05
2.11347e-05
-1.66688e-05
1.83401e-05
-1.54352e-05
1.59619e-05
-1.45106e-05
1.61308e-05
-1.79847e-05
1.75203e-05
-2.27776e-05
1.84853e-05
-2.49522e-05
1.87986e-05