/*--------------------------------*- C++ -*----------------------------------*\
| =========                 |                                                 |
| \\      /  F ield         | OpenFOAM: The Open Source CFD Toolbox           |
|  \\    /   O peration     | Version:  2.4.0                                 |
|   \\  /    A nd           | Web:      www.OpenFOAM.org                      |
|    \\/     M anipulation  |                                                 |
\*---------------------------------------------------------------------------*/
FoamFile
{
    version     2.0;
    format      ascii;
    class       volVectorField;
    location    "1.79";
    object      U;
}
// * * * * * * * * * * * * * * * * * * * * * * * * * * * * * * * * * * * * * //

dimensions      [0 1 -1 0 0 0 0];

internalField   nonuniform List<vector> 
8800
(
(8.09282 0.387777 0)
(5.45238 0.242662 0)
(3.90651 0.0432958 0)
(3.16292 -0.016093 0)
(2.79466 -0.0180246 0)
(2.60594 -0.01069 0)
(2.47521 -0.00643709 0)
(2.39314 -0.00227345 0)
(2.30507 -0.000301681 0)
(2.26249 -0.001816 0)
(2.20322 -0.000460167 0)
(2.18518 -1.03621e-05 0)
(2.12433 0.00049594 0)
(2.12214 -0.000946262 0)
(2.05999 0.00135408 0)
(2.06198 -0.000596567 0)
(1.99681 0.000730134 0)
(2.00345 -0.00240012 0)
(1.99627 0.0107682 0)
(1.7733 -0.0698795 0)
(10.084 0.837764 0)
(9.66829 0.868829 0)
(8.85314 0.507251 0)
(8.10878 0.259957 0)
(7.46672 0.139554 0)
(7.03437 0.082735 0)
(6.67193 0.0517918 0)
(6.43193 0.0414552 0)
(6.18561 0.0330183 0)
(6.06784 0.0208805 0)
(5.87981 0.0189658 0)
(5.833 0.0179325 0)
(5.66374 0.0169247 0)
(5.66147 0.011404 0)
(5.49244 0.0191126 0)
(5.50737 0.01048 0)
(5.34635 0.0199642 0)
(5.35201 -0.00627442 0)
(5.29631 0.030481 0)
(5.16361 -0.0341129 0)
(10.053 0.628594 0)
(10.6857 0.867548 0)
(10.8263 0.60077 0)
(10.7402 0.370287 0)
(10.4092 0.258755 0)
(10.1362 0.196643 0)
(9.79208 0.149387 0)
(9.55517 0.126294 0)
(9.24495 0.0982149 0)
(9.11311 0.0711434 0)
(8.84266 0.0601305 0)
(8.78789 0.0525081 0)
(8.54911 0.0461559 0)
(8.54674 0.0344126 0)
(8.31366 0.0465704 0)
(8.33531 0.0285433 0)
(8.11848 0.0475128 0)
(8.1272 0.00177603 0)
(8.01251 0.0362689 0)
(7.96797 -0.0797846 0)
(9.96288 0.452745 0)
(10.6341 0.713284 0)
(11.0844 0.543714 0)
(11.4505 0.347424 0)
(11.4823 0.266204 0)
(11.541 0.227938 0)
(11.4187 0.193229 0)
(11.394 0.182273 0)
(11.2031 0.153283 0)
(11.1836 0.119073 0)
(10.9708 0.10722 0)
(10.9673 0.0930019 0)
(10.764 0.0863628 0)
(10.7749 0.0633888 0)
(10.5665 0.0843485 0)
(10.5848 0.0532751 0)
(10.3882 0.0831765 0)
(10.3745 0.0202506 0)
(10.2591 0.0561619 0)
(10.2474 -0.0952606 0)
(9.95432 0.334659 0)
(10.5183 0.587974 0)
(10.9376 0.456117 0)
(11.3783 0.286528 0)
(11.5608 0.213424 0)
(11.7703 0.192188 0)
(11.8004 0.168811 0)
(11.9219 0.179402 0)
(11.9133 0.151808 0)
(11.9852 0.126474 0)
(11.9396 0.115068 0)
(12.0029 0.107175 0)
(11.9601 0.0942167 0)
(11.995 0.0842766 0)
(11.9437 0.0936072 0)
(11.9569 0.0803005 0)
(11.9089 0.0938693 0)
(11.8525 0.0642811 0)
(11.8433 0.0539912 0)
(11.8232 -0.00800065 0)
(9.9614 0.241239 0)
(10.407 0.465696 0)
(10.8405 0.388294 0)
(11.2186 0.236575 0)
(11.4631 0.163951 0)
(11.6583 0.149411 0)
(11.7642 0.132924 0)
(11.8735 0.145709 0)
(11.9821 0.134806 0)
(12.0444 0.104586 0)
(12.1119 0.101194 0)
(12.164 0.090166 0)
(12.2635 0.0843678 0)
(12.2823 0.0664742 0)
(12.3696 0.0884719 0)
(12.4066 0.071796 0)
(12.4542 0.0902048 0)
(12.4661 0.0790633 0)
(12.5068 0.080614 0)
(12.5346 0.0141094 0)
(10.0007 0.165435 0)
(10.3233 0.367411 0)
(10.7466 0.290816 0)
(11.1273 0.205344 0)
(11.3362 0.119368 0)
(11.5821 0.110546 0)
(11.6534 0.0923225 0)
(11.7832 0.12282 0)
(11.8907 0.0876034 0)
(11.9823 0.102375 0)
(12.0422 0.0681068 0)
(12.1196 0.0868731 0)
(12.1872 0.0418238 0)
(12.2677 0.0820196 0)
(12.3108 0.0334281 0)
(12.4469 0.0904108 0)
(12.4489 0.0420969 0)
(12.5216 0.111605 0)
(12.5749 0.0571095 0)
(12.6211 0.179298 0)
(9.97767 0.0969459 0)
(10.2751 0.264703 0)
(10.6867 0.211365 0)
(11.0359 0.16651 0)
(11.3203 0.0699865 0)
(11.4953 0.0917074 0)
(11.5904 0.043237 0)
(11.7073 0.0990514 0)
(11.8184 0.0503539 0)
(11.9029 0.0865211 0)
(11.968 0.0353913 0)
(12.0742 0.089702 0)
(12.1029 0.0131934 0)
(12.1867 0.0703616 0)
(12.2795 0.00528141 0)
(12.3545 0.0789035 0)
(12.3954 0.0228689 0)
(12.4797 0.105146 0)
(12.5174 0.0451489 0)
(12.5164 0.155771 0)
(10.0114 0.0592439 0)
(10.2248 0.156394 0)
(10.5929 0.123236 0)
(11.0413 0.0989949 0)
(11.2607 0.0498717 0)
(11.4409 0.0474667 0)
(11.5697 0.0292073 0)
(11.6558 0.0456191 0)
(11.7717 0.0313035 0)
(11.85 0.0511744 0)
(11.9225 0.0306075 0)
(11.9927 0.0488387 0)
(12.1006 0.022322 0)
(12.1667 0.0272863 0)
(12.2255 0.00517803 0)
(12.2958 0.0379488 0)
(12.3895 0.0289264 0)
(12.4271 0.0443419 0)
(12.4591 0.0417465 0)
(12.409 0.0113297 0)
(9.99136 0.00556295 0)
(10.2444 0.0693195 0)
(10.5918 0.0332713 0)
(10.9602 0.0364499 0)
(11.2456 0.0210315 0)
(11.4535 0.028071 0)
(11.564 -0.0192817 0)
(11.6419 0.0218506 0)
(11.7269 -0.000668855 0)
(11.8207 0.0277455 0)
(11.8567 0.0083629 0)
(12.017 0.0353864 0)
(12.0814 -0.0141303 0)
(12.1362 0.0231266 0)
(12.2212 -0.0115844 0)
(12.2859 0.0153791 0)
(12.359 -0.00391599 0)
(12.3819 0.03164 0)
(12.4575 0.00013564 0)
(12.4033 -0.000130376 0)
(10.0156 -0.0308244 0)
(10.2168 -0.0375217 0)
(10.6003 -0.0406707 0)
(10.936 -0.0259412 0)
(11.2326 -0.021287 0)
(11.4687 -0.0136502 0)
(11.5907 -0.0259465 0)
(11.6236 -0.0197322 0)
(11.7198 -0.0212901 0)
(11.8065 0.00598308 0)
(11.9069 -0.0141692 0)
(11.9889 -0.00733344 0)
(12.0862 -0.00130606 0)
(12.1323 -0.0100658 0)
(12.2156 -0.0274204 0)
(12.3013 -0.0102911 0)
(12.3381 -0.00658991 0)
(12.403 -0.0160465 0)
(12.4283 -0.0239228 0)
(12.357 -0.013144 0)
(10.0037 -0.0781697 0)
(10.2355 -0.131561 0)
(10.6183 -0.122178 0)
(10.9946 -0.0895809 0)
(11.273 -0.0545765 0)
(11.4599 -0.0484709 0)
(11.5977 -0.0569129 0)
(11.6537 -0.0456334 0)
(11.7379 -0.044264 0)
(11.8299 -0.0421908 0)
(11.9396 -0.0239023 0)
(11.9931 -0.0211413 0)
(12.0757 -0.0309817 0)
(12.188 -0.0251363 0)
(12.2325 -0.0399832 0)
(12.2949 -0.0377713 0)
(12.3578 -0.0343411 0)
(12.4406 -0.0363962 0)
(12.4502 -0.036094 0)
(12.3744 -0.0425054 0)
(10.0134 -0.124021 0)
(10.2478 -0.237099 0)
(10.6541 -0.208448 0)
(11.0607 -0.152127 0)
(11.3166 -0.0851573 0)
(11.4884 -0.0808435 0)
(11.6245 -0.0806495 0)
(11.714 -0.0800677 0)
(11.7862 -0.0706863 0)
(11.8914 -0.0591864 0)
(11.9471 -0.0486954 0)
(12.0487 -0.0435697 0)
(12.1339 -0.045021 0)
(12.2132 -0.0502941 0)
(12.2943 -0.0525398 0)
(12.3356 -0.0553122 0)
(12.4216 -0.0570946 0)
(12.4661 -0.0727328 0)
(12.5065 -0.0656285 0)
(12.4557 -0.070934 0)
(10.0282 -0.184367 0)
(10.282 -0.334998 0)
(10.756 -0.292863 0)
(11.118 -0.210476 0)
(11.3971 -0.11508 0)
(11.5497 -0.117995 0)
(11.7034 -0.116968 0)
(11.7635 -0.112757 0)
(11.8629 -0.0895135 0)
(11.9316 -0.0971471 0)
(12.0394 -0.0593133 0)
(12.1096 -0.0734839 0)
(12.2168 -0.0603652 0)
(12.2801 -0.0749887 0)
(12.3511 -0.0630411 0)
(12.4161 -0.0837521 0)
(12.4768 -0.0765463 0)
(12.5194 -0.0973111 0)
(12.5514 -0.0947553 0)
(12.5293 -0.0966218 0)
(10.0641 -0.257785 0)
(10.2995 -0.443258 0)
(10.9046 -0.382858 0)
(11.1921 -0.25176 0)
(11.5322 -0.156817 0)
(11.6082 -0.159414 0)
(11.8186 -0.144342 0)
(11.8108 -0.138853 0)
(11.9741 -0.118463 0)
(11.9927 -0.118178 0)
(12.1408 -0.0870233 0)
(12.1559 -0.0962958 0)
(12.2928 -0.0796935 0)
(12.2876 -0.0935701 0)
(12.391 -0.0769684 0)
(12.3807 -0.104705 0)
(12.4592 -0.0848288 0)
(12.4371 -0.128359 0)
(12.4789 -0.117322 0)
(12.3817 -0.142124 0)
(10.0533 -0.35229 0)
(10.3857 -0.553371 0)
(11.0715 -0.46944 0)
(11.2996 -0.297697 0)
(11.6698 -0.203098 0)
(11.66 -0.19681 0)
(11.8917 -0.182516 0)
(11.7998 -0.165023 0)
(11.9882 -0.14525 0)
(11.883 -0.140365 0)
(12.0447 -0.107345 0)
(11.919 -0.110252 0)
(12.0561 -0.0932169 0)
(11.9089 -0.101898 0)
(12.0189 -0.0845513 0)
(11.865 -0.108526 0)
(11.9425 -0.0906247 0)
(11.7788 -0.135414 0)
(11.7956 -0.121338 0)
(11.5784 -0.16329 0)
(10.0037 -0.459088 0)
(10.5614 -0.699757 0)
(11.188 -0.552356 0)
(11.3589 -0.353381 0)
(11.5732 -0.255996 0)
(11.4406 -0.232226 0)
(11.5058 -0.202679 0)
(11.2787 -0.171923 0)
(11.3147 -0.148262 0)
(11.0565 -0.131776 0)
(11.1015 -0.101821 0)
(10.8367 -0.0964403 0)
(10.8951 -0.0804349 0)
(10.6262 -0.0838486 0)
(10.6959 -0.0684547 0)
(10.4209 -0.0888571 0)
(10.4856 -0.0691389 0)
(10.1974 -0.115297 0)
(10.2081 -0.0941078 0)
(9.88067 -0.163618 0)
(10.0598 -0.633654 0)
(10.6591 -0.859717 0)
(10.8754 -0.603619 0)
(10.6788 -0.374443 0)
(10.4705 -0.252394 0)
(10.0721 -0.198991 0)
(9.84776 -0.155417 0)
(9.47884 -0.119772 0)
(9.33373 -0.0948662 0)
(9.00943 -0.0795928 0)
(8.95029 -0.0576117 0)
(8.6683 -0.0529761 0)
(8.66772 -0.0440953 0)
(8.40204 -0.0460938 0)
(8.43758 -0.0396155 0)
(8.16566 -0.0505865 0)
(8.21266 -0.0452155 0)
(7.91529 -0.0693583 0)
(7.9219 -0.070559 0)
(7.57737 -0.0897536 0)
(10.0822 -0.838968 0)
(9.6578 -0.866404 0)
(8.87428 -0.507827 0)
(8.07561 -0.262627 0)
(7.50098 -0.136077 0)
(6.99897 -0.0833863 0)
(6.70207 -0.0554822 0)
(6.38865 -0.0390075 0)
(6.23872 -0.0297041 0)
(6.00541 -0.0263107 0)
(5.94347 -0.017721 0)
(5.75382 -0.0180222 0)
(5.74125 -0.0151632 0)
(5.56111 -0.0184135 0)
(5.57207 -0.0154796 0)
(5.38083 -0.0231332 0)
(5.39673 -0.0203882 0)
(5.17456 -0.0325091 0)
(5.16635 -0.0385337 0)
(4.87157 -0.0192365 0)
(8.09088 -0.38819 0)
(5.44925 -0.242311 0)
(3.91257 -0.0429503 0)
(3.15448 0.0150906 0)
(2.80304 0.0188144 0)
(2.59681 0.0107866 0)
(2.48491 0.00520354 0)
(2.37555 0.00276421 0)
(2.32387 0.00174644 0)
(2.24393 -3.60709e-05 0)
(2.22031 0.00104449 0)
(2.15753 -5.42752e-05 0)
(2.15016 0.000237852 0)
(2.08554 -0.00102257 0)
(2.08164 -0.000151088 0)
(2.00799 -0.00246756 0)
(1.99902 -0.000764367 0)
(1.909 -0.00386467 0)
(1.87207 -0.0041027 0)
(1.72207 0.0111959 0)
(2.26125 -0.124835 0)
(2.34899 0.0334496 0)
(2.45945 0.131913 0)
(2.62097 0.166682 0)
(2.8273 0.139449 0)
(3.02262 0.0889948 0)
(3.17457 0.0208677 0)
(3.29864 -0.0438367 0)
(3.36797 -0.0934698 0)
(3.40131 -0.120861 0)
(3.4068 -0.117727 0)
(3.41355 -0.102722 0)
(3.41942 -0.0754064 0)
(3.44756 -0.0521798 0)
(3.48913 -0.029446 0)
(3.57361 -0.0109058 0)
(3.64773 0.00688505 0)
(3.7454 0.0279937 0)
(3.83303 0.0497788 0)
(3.94727 0.0726133 0)
(4.05721 0.0921545 0)
(4.19546 0.0969301 0)
(4.33094 0.0900271 0)
(4.47373 0.0553387 0)
(4.62672 -0.00276755 0)
(4.7596 -0.0978833 0)
(4.8906 -0.19518 0)
(4.98867 -0.307453 0)
(5.08282 -0.41222 0)
(5.13136 -0.512258 0)
(5.18509 -0.589626 0)
(5.20855 -0.615602 0)
(5.22591 -0.623085 0)
(5.20552 -0.623581 0)
(5.16937 -0.64567 0)
(5.11694 -0.646727 0)
(5.03722 -0.614035 0)
(4.97208 -0.549431 0)
(4.88095 -0.469165 0)
(4.82222 -0.384262 0)
(4.75084 -0.27585 0)
(4.64403 -0.182136 0)
(4.64129 -0.0683102 0)
(4.54678 0.0390998 0)
(4.64029 0.149123 0)
(4.59946 0.284925 0)
(4.80424 0.345273 0)
(4.83718 0.477911 0)
(5.06669 0.536861 0)
(5.15431 0.6244 0)
(5.3622 0.706362 0)
(5.52408 0.753607 0)
(5.77069 0.759796 0)
(5.93711 0.762811 0)
(6.19063 0.689202 0)
(6.28822 0.679806 0)
(6.55658 0.568496 0)
(6.6847 0.520949 0)
(7.0759 0.372945 0)
(7.26582 0.161815 0)
(7.68095 -0.0501186 0)
(8.02698 -0.395949 0)
(8.35158 -0.80987 0)
(8.68362 -1.14102 0)
(8.99424 -1.49968 0)
(9.20753 -1.88055 0)
(9.39076 -2.17859 0)
(9.6245 -2.30275 0)
(9.80251 -2.30632 0)
(9.86323 -2.34563 0)
(9.91768 -2.20839 0)
(9.96788 -2.03098 0)
(10.12 -1.84073 0)
(10.2545 -1.47743 0)
(10.458 -1.18832 0)
(10.5075 -0.887099 0)
(10.5626 -0.637773 0)
(10.7078 -0.533178 0)
(10.6974 -0.393131 0)
(10.8457 -0.318024 0)
(11.0536 -0.359655 0)
(11.0455 -0.391215 0)
(11.2427 -0.538263 0)
(11.3264 -0.750152 0)
(11.4554 -0.997983 0)
(11.4572 -1.27076 0)
(11.5953 -1.62803 0)
(11.652 -1.95429 0)
(11.6941 -2.31209 0)
(11.7418 -2.71494 0)
(11.8157 -3.15387 0)
(11.826 -3.57364 0)
(11.6615 -4.0476 0)
(11.5605 -4.5383 0)
(11.1396 -4.87683 0)
(10.5968 -5.12825 0)
(10.0695 -5.38476 0)
(9.71203 -5.45644 0)
(9.32973 -5.68362 0)
(9.51444 -6.46565 0)
(9.94305 -7.05419 0)
(9.71118 -7.23249 0)
(9.24596 -7.03713 0)
(8.94352 -6.77706 0)
(9.14427 -6.81853 0)
(9.86084 -6.72346 0)
(10.3407 -6.39316 0)
(10.8362 -5.59034 0)
(11.0682 -4.73821 0)
(11.223 -4.05155 0)
(11.4075 -3.10486 0)
(11.5712 -2.0785 0)
(11.3642 -1.15013 0)
(11.0127 -0.350526 0)
(10.7178 0.410254 0)
(10.5575 0.923064 0)
(10.5359 1.4997 0)
(10.8267 2.24972 0)
(11.2914 3.30692 0)
(11.5559 4.48639 0)
(11.2239 5.15467 0)
(10.7608 5.38909 0)
(10.3971 5.21038 0)
(9.86067 5.1937 0)
(9.67141 5.19509 0)
(9.40603 4.95178 0)
(9.37373 4.74322 0)
(9.1865 4.46954 0)
(8.75028 4.70686 0)
(8.71883 4.69698 0)
(7.97075 4.51478 0)
(8.22194 4.38885 0)
(7.86951 4.58021 0)
(8.6365 5.59106 0)
(8.90611 6.62008 0)
(9.35929 7.6241 0)
(9.5 7.69419 0)
(9.36286 7.26076 0)
(9.12671 6.61844 0)
(8.81551 5.84993 0)
(8.49033 4.87405 0)
(8.20411 3.56846 0)
(8.11833 2.77249 0)
(8.056 2.14069 0)
(7.80722 1.14407 0)
(7.714 -0.304414 0)
(7.50874 -1.30498 0)
(7.54264 -2.14025 0)
(7.59068 -3.27867 0)
(7.67638 -4.65583 0)
(7.62982 -5.46722 0)
(7.55842 -5.90479 0)
(7.53137 -6.37818 0)
(7.39856 -6.67729 0)
(7.37982 -6.68156 0)
(7.20293 -6.28266 0)
(7.00176 -5.87479 0)
(6.88122 -5.5985 0)
(6.90101 -5.75613 0)
(6.99397 -6.05995 0)
(7.36866 -6.34202 0)
(7.61479 -6.59586 0)
(7.99599 -6.55856 0)
(8.32355 -6.39824 0)
(8.69323 -5.86627 0)
(8.96786 -5.05659 0)
(9.229 -4.10705 0)
(9.28778 -2.80863 0)
(9.42032 -1.60376 0)
(9.70596 -0.483953 0)
(9.62571 0.869977 0)
(9.91771 2.2127 0)
(9.97535 3.37871 0)
(10.0799 4.52004 0)
(10.3133 5.76742 0)
(10.1325 6.61436 0)
(10.0627 7.24346 0)
(9.9739 7.73727 0)
(9.70765 8.03356 0)
(9.5403 8.08066 0)
(9.82059 8.44356 0)
(9.34031 8.02779 0)
(8.92223 7.5636 0)
(9.4333 7.67687 0)
(9.15987 6.86676 0)
(8.81507 5.80298 0)
(9.09957 6.21288 0)
(9.01215 5.62318 0)
(8.60302 5.02811 0)
(9.09921 5.30426 0)
(8.54151 3.29816 0)
(8.16742 3.13033 0)
(8.9046 1.51437 0)
(6.7762 0.664132 0)
(9.23426 0.229033 0)
(5.70486 -0.252465 0)
(9.24446 -0.341471 0)
(4.76399 0.939225 0)
(8.74968 0.388975 0)
(5.19757 5.19793 0)
(5.3215 -0.064122 0)
(5.34142 -0.0154088 0)
(5.33141 0.0443927 0)
(5.35041 0.0749793 0)
(5.4033 0.0546304 0)
(5.49489 0.00630522 0)
(5.58013 -0.0559521 0)
(5.66573 -0.111869 0)
(5.72883 -0.149067 0)
(5.77644 -0.170446 0)
(5.79608 -0.166809 0)
(5.8191 -0.155729 0)
(5.82741 -0.134925 0)
(5.8619 -0.10979 0)
(5.89306 -0.089331 0)
(5.95528 -0.0747914 0)
(6.01226 -0.0587099 0)
(6.09435 -0.0436865 0)
(6.16966 -0.0317915 0)
(6.25958 -0.0150653 0)
(6.35824 -0.0128138 0)
(6.45627 -0.0149552 0)
(6.58555 -0.0350378 0)
(6.69179 -0.0772989 0)
(6.82948 -0.122612 0)
(6.94578 -0.204891 0)
(7.06215 -0.280479 0)
(7.17382 -0.377095 0)
(7.24662 -0.462317 0)
(7.32967 -0.539739 0)
(7.3709 -0.607113 0)
(7.40718 -0.646385 0)
(7.41504 -0.685471 0)
(7.38228 -0.676262 0)
(7.39206 -0.667506 0)
(7.33107 -0.624635 0)
(7.34144 -0.54355 0)
(7.23221 -0.485284 0)
(7.25055 -0.381492 0)
(7.10575 -0.303972 0)
(7.09748 -0.210345 0)
(6.93226 -0.0822298 0)
(6.89621 -0.00389703 0)
(6.74331 0.114685 0)
(6.71051 0.189827 0)
(6.56665 0.281809 0)
(6.61098 0.340835 0)
(6.50673 0.410874 0)
(6.59902 0.447337 0)
(6.61444 0.512945 0)
(6.71138 0.55269 0)
(6.84274 0.576183 0)
(7.00994 0.598979 0)
(7.19409 0.559923 0)
(7.42501 0.537312 0)
(7.61535 0.457714 0)
(7.89688 0.38644 0)
(8.12842 0.272461 0)
(8.51846 0.0956113 0)
(8.81913 -0.0875526 0)
(9.2459 -0.369728 0)
(9.58035 -0.698675 0)
(10.0189 -1.04045 0)
(10.3232 -1.40924 0)
(10.5683 -1.76979 0)
(10.8053 -2.09066 0)
(11.0257 -2.29526 0)
(11.0827 -2.44935 0)
(11.103 -2.49873 0)
(11.0897 -2.48346 0)
(11.1609 -2.28033 0)
(11.1603 -2.01688 0)
(11.2049 -1.76742 0)
(11.1337 -1.49337 0)
(11.0816 -1.26924 0)
(11.1767 -1.05006 0)
(11.2616 -0.801638 0)
(11.3118 -0.5994 0)
(11.4864 -0.457765 0)
(11.5326 -0.399048 0)
(11.615 -0.396068 0)
(11.7318 -0.501769 0)
(11.8155 -0.635562 0)
(11.8701 -0.819259 0)
(11.9323 -1.08423 0)
(12.0067 -1.34053 0)
(12.061 -1.62975 0)
(12.0092 -1.9634 0)
(12.1116 -2.32577 0)
(11.9965 -2.71124 0)
(11.9187 -3.11834 0)
(11.6897 -3.57681 0)
(11.3973 -3.97008 0)
(10.9655 -4.32325 0)
(10.3879 -4.55233 0)
(9.94701 -4.76275 0)
(9.64028 -5.01127 0)
(9.36114 -5.15842 0)
(9.20884 -5.78588 0)
(9.57936 -6.67341 0)
(9.31562 -6.85699 0)
(8.40281 -6.5608 0)
(7.85955 -6.55876 0)
(8.15771 -6.95256 0)
(8.94876 -7.38088 0)
(9.69316 -7.42998 0)
(10.1096 -6.96961 0)
(10.5039 -6.05932 0)
(10.5493 -5.17789 0)
(10.7249 -4.36703 0)
(10.9181 -3.47781 0)
(11.1841 -2.20617 0)
(11.0463 -1.02074 0)
(10.6616 -0.026336 0)
(10.2719 0.712324 0)
(9.89487 1.14424 0)
(9.49324 1.48568 0)
(9.64496 2.05082 0)
(10.134 2.97395 0)
(10.5044 4.38671 0)
(10.4185 5.34596 0)
(10.0202 5.69885 0)
(9.74851 5.62351 0)
(9.17141 5.49896 0)
(9.05086 5.41269 0)
(8.92654 5.03701 0)
(8.73687 4.88066 0)
(8.89163 4.7234 0)
(8.36457 4.85017 0)
(8.54683 5.00223 0)
(7.93588 4.65336 0)
(8.17969 4.46781 0)
(8.01497 4.33703 0)
(8.57838 5.19348 0)
(8.98456 6.29821 0)
(9.46771 7.36647 0)
(9.77503 7.72882 0)
(9.67763 7.29111 0)
(9.57739 6.83364 0)
(9.31759 6.14562 0)
(8.98283 5.04202 0)
(8.75515 3.79004 0)
(8.44243 2.95716 0)
(8.40914 2.20317 0)
(8.27081 1.20136 0)
(8.20934 -0.165284 0)
(7.96621 -1.26504 0)
(8.11527 -2.24146 0)
(8.09098 -3.3463 0)
(8.20735 -4.65013 0)
(8.04025 -5.4624 0)
(8.01172 -5.90989 0)
(7.90191 -6.32038 0)
(7.75128 -6.58104 0)
(7.60698 -6.45993 0)
(7.2192 -6.05347 0)
(7.00096 -5.79005 0)
(6.75674 -5.59046 0)
(6.7005 -5.76407 0)
(6.84354 -6.14691 0)
(7.09621 -6.50747 0)
(7.1535 -6.79569 0)
(7.53469 -6.78459 0)
(7.63987 -6.62372 0)
(8.00026 -6.1524 0)
(8.23407 -5.25099 0)
(8.23669 -4.11928 0)
(8.48233 -2.96081 0)
(8.63996 -1.77272 0)
(8.75173 -0.543759 0)
(8.90961 0.768601 0)
(8.99355 2.1855 0)
(9.22571 3.25137 0)
(9.39565 4.37379 0)
(9.56654 5.69175 0)
(9.77516 6.79444 0)
(9.70194 7.24827 0)
(9.50577 7.87704 0)
(9.76983 8.29024 0)
(9.59007 8.28969 0)
(9.18817 8.05198 0)
(9.91237 8.49063 0)
(9.5087 8.07885 0)
(8.95208 6.84567 0)
(9.81896 6.95416 0)
(9.60547 6.54147 0)
(8.99467 5.43591 0)
(9.96168 6.19594 0)
(9.36424 5.07718 0)
(8.94036 4.79352 0)
(11.0997 3.96219 0)
(7.32524 3.09712 0)
(12.349 1.19456 0)
(6.79207 1.76104 0)
(12.6898 -1.15046 0)
(7.04844 1.26299 0)
(12.2554 -1.82984 0)
(7.4271 2.16001 0)
(11.263 -0.694976 0)
(8.39351 4.7566 0)
(8.01258 -0.0114639 0)
(8.01146 0.0461209 0)
(7.98579 0.0689413 0)
(7.99119 0.0599272 0)
(8.00345 0.0102624 0)
(8.05575 -0.0400139 0)
(8.11643 -0.0966651 0)
(8.17464 -0.138361 0)
(8.21925 -0.162884 0)
(8.25601 -0.17873 0)
(8.26309 -0.174544 0)
(8.2865 -0.167107 0)
(8.28538 -0.148033 0)
(8.31278 -0.134642 0)
(8.32592 -0.118104 0)
(8.37359 -0.109851 0)
(8.41088 -0.101044 0)
(8.47092 -0.0913073 0)
(8.54566 -0.0909209 0)
(8.59118 -0.0811963 0)
(8.70797 -0.0877121 0)
(8.74555 -0.0999223 0)
(8.87979 -0.121403 0)
(8.94176 -0.166976 0)
(9.05147 -0.203713 0)
(9.14955 -0.2833 0)
(9.21665 -0.345551 0)
(9.32708 -0.424893 0)
(9.35156 -0.506287 0)
(9.43647 -0.564124 0)
(9.43888 -0.635059 0)
(9.45827 -0.662746 0)
(9.46416 -0.685043 0)
(9.39573 -0.679688 0)
(9.43397 -0.637226 0)
(9.31854 -0.597216 0)
(9.34029 -0.519871 0)
(9.23392 -0.443334 0)
(9.2092 -0.364601 0)
(9.13645 -0.249191 0)
(9.06984 -0.159485 0)
(9.03654 -0.0426011 0)
(8.94953 0.0838314 0)
(8.88281 0.164612 0)
(8.84162 0.271962 0)
(8.73541 0.353427 0)
(8.73366 0.39464 0)
(8.64987 0.465767 0)
(8.6446 0.471619 0)
(8.64442 0.487475 0)
(8.64973 0.51324 0)
(8.73731 0.477272 0)
(8.81663 0.473363 0)
(8.97338 0.404411 0)
(9.14338 0.358948 0)
(9.36695 0.252712 0)
(9.60076 0.161466 0)
(9.89255 0.00295528 0)
(10.2196 -0.174709 0)
(10.5735 -0.385545 0)
(10.9217 -0.681551 0)
(11.2763 -0.964175 0)
(11.6526 -1.29569 0)
(11.8414 -1.67238 0)
(12.0661 -1.93837 0)
(12.2316 -2.18633 0)
(12.2717 -2.39233 0)
(12.1992 -2.48354 0)
(12.1657 -2.51113 0)
(12.064 -2.35973 0)
(11.9564 -2.17314 0)
(11.7641 -1.97249 0)
(11.6434 -1.74338 0)
(11.5487 -1.5292 0)
(11.5347 -1.21747 0)
(11.4741 -1.03212 0)
(11.5401 -0.81105 0)
(11.5153 -0.618232 0)
(11.5961 -0.545915 0)
(11.6716 -0.449272 0)
(11.7532 -0.46635 0)
(11.8438 -0.579594 0)
(11.9049 -0.652483 0)
(11.9877 -0.867254 0)
(12.0294 -1.06834 0)
(12.0319 -1.31778 0)
(12.0679 -1.60298 0)
(12.0032 -1.92873 0)
(11.9145 -2.26803 0)
(11.7148 -2.65233 0)
(11.5119 -3.0582 0)
(11.1036 -3.35755 0)
(10.7795 -3.73257 0)
(10.3401 -3.9809 0)
(9.95572 -4.08636 0)
(9.72088 -4.47219 0)
(9.55193 -4.71783 0)
(9.14841 -4.99909 0)
(9.10677 -5.93303 0)
(9.04048 -6.45229 0)
(8.01047 -6.07656 0)
(7.05625 -5.91171 0)
(7.03889 -6.74147 0)
(7.83711 -7.70291 0)
(8.52343 -8.13064 0)
(8.91911 -7.98065 0)
(9.1018 -7.29155 0)
(9.18633 -6.25065 0)
(9.14484 -5.32542 0)
(9.27046 -4.56494 0)
(9.4871 -3.74085 0)
(9.83536 -2.41025 0)
(9.84187 -1.01956 0)
(9.84856 0.215449 0)
(9.66264 0.978067 0)
(9.30267 1.49424 0)
(8.86525 1.61527 0)
(8.8103 1.93184 0)
(9.16102 2.73796 0)
(9.35997 4.21987 0)
(9.36639 5.42589 0)
(9.02923 5.89948 0)
(8.86807 5.96463 0)
(8.46954 5.71302 0)
(8.23094 5.58782 0)
(8.35999 5.17728 0)
(8.06395 4.85545 0)
(8.43008 4.9182 0)
(7.91697 4.93905 0)
(8.15962 5.16044 0)
(7.94199 4.72838 0)
(8.13103 4.38572 0)
(8.2047 4.16488 0)
(8.56112 4.80702 0)
(9.07795 5.94366 0)
(9.49883 7.09182 0)
(9.88615 7.60581 0)
(9.97359 7.37607 0)
(9.77826 7.02782 0)
(9.74196 6.30461 0)
(9.46843 5.3436 0)
(9.07739 4.04828 0)
(8.76718 2.96297 0)
(8.74549 2.34139 0)
(8.6658 1.37539 0)
(8.64172 -0.12313 0)
(8.49319 -1.2731 0)
(8.57974 -2.12022 0)
(8.55353 -3.33885 0)
(8.74845 -4.6593 0)
(8.493 -5.36111 0)
(8.44118 -5.69028 0)
(8.17719 -6.09445 0)
(8.04865 -6.48688 0)
(7.71413 -6.22186 0)
(7.2857 -5.75135 0)
(6.98438 -5.44899 0)
(6.54947 -5.42864 0)
(6.61579 -5.81229 0)
(6.48115 -6.2535 0)
(6.62181 -6.69983 0)
(6.71226 -6.86751 0)
(6.76761 -6.89194 0)
(6.89331 -6.76392 0)
(7.22673 -6.26808 0)
(7.22442 -5.39327 0)
(7.37307 -4.19747 0)
(7.51166 -3.10951 0)
(7.73485 -1.86756 0)
(7.92078 -0.732607 0)
(8.04189 0.742545 0)
(8.11921 2.02541 0)
(8.36774 3.05377 0)
(8.53672 4.23413 0)
(8.95373 5.46016 0)
(9.08535 6.50232 0)
(9.3305 7.36822 0)
(9.24691 7.6678 0)
(9.18417 8.09072 0)
(9.703 8.46423 0)
(9.55701 8.31346 0)
(8.76219 7.67203 0)
(10.0519 8.28824 0)
(9.76302 7.66781 0)
(8.69543 6.14557 0)
(10.4592 6.53529 0)
(9.54425 5.69972 0)
(9.00043 5.60908 0)
(12.0947 5.13589 0)
(7.37525 5.44634 0)
(13.9302 2.60697 0)
(7.65293 4.41683 0)
(14.1875 -0.28644 0)
(8.47857 2.53691 0)
(13.8012 -2.05477 0)
(9.07681 1.56827 0)
(13.2953 -1.95589 0)
(9.60554 2.21834 0)
(12.6505 -0.0765846 0)
(10.2287 3.62489 0)
(10.3055 0.0119934 0)
(10.2942 0.088865 0)
(10.2012 0.0908423 0)
(10.1778 0.0503587 0)
(10.186 -0.0242156 0)
(10.2264 -0.071978 0)
(10.2991 -0.11865 0)
(10.3373 -0.153965 0)
(10.385 -0.165266 0)
(10.3955 -0.188662 0)
(10.3988 -0.177131 0)
(10.4051 -0.183336 0)
(10.3968 -0.169577 0)
(10.4161 -0.153086 0)
(10.4184 -0.152473 0)
(10.448 -0.141296 0)
(10.4805 -0.133241 0)
(10.4987 -0.137148 0)
(10.5809 -0.136512 0)
(10.5884 -0.133466 0)
(10.6962 -0.153969 0)
(10.7214 -0.149546 0)
(10.8081 -0.195332 0)
(10.8853 -0.222582 0)
(10.9103 -0.262591 0)
(11.0285 -0.341312 0)
(11.0054 -0.383131 0)
(11.1194 -0.47401 0)
(11.0833 -0.520836 0)
(11.1377 -0.593129 0)
(11.1304 -0.634862 0)
(11.0997 -0.664397 0)
(11.1129 -0.673114 0)
(11.0135 -0.649556 0)
(11.0226 -0.632538 0)
(10.9211 -0.554586 0)
(10.864 -0.503737 0)
(10.8355 -0.419219 0)
(10.7272 -0.317067 0)
(10.7485 -0.225825 0)
(10.6524 -0.091161 0)
(10.6671 -0.0140753 0)
(10.6174 0.131666 0)
(10.5848 0.208028 0)
(10.5826 0.294626 0)
(10.541 0.399257 0)
(10.5496 0.412964 0)
(10.5357 0.490283 0)
(10.5533 0.497299 0)
(10.5783 0.483292 0)
(10.6177 0.509773 0)
(10.705 0.449641 0)
(10.7555 0.405168 0)
(10.9393 0.332862 0)
(11.0344 0.230562 0)
(11.2753 0.0977049 0)
(11.4459 -0.0290724 0)
(11.7195 -0.215183 0)
(11.975 -0.407255 0)
(12.2774 -0.641251 0)
(12.521 -0.906706 0)
(12.8108 -1.1885 0)
(13.0008 -1.49618 0)
(13.1341 -1.79055 0)
(13.1905 -2.02047 0)
(13.2059 -2.20454 0)
(13.0381 -2.37028 0)
(12.9252 -2.38517 0)
(12.7001 -2.34859 0)
(12.4175 -2.22666 0)
(12.1918 -2.00284 0)
(11.9416 -1.83657 0)
(11.7956 -1.56891 0)
(11.6787 -1.34282 0)
(11.551 -1.13854 0)
(11.4839 -0.947783 0)
(11.426 -0.813832 0)
(11.3969 -0.673298 0)
(11.4057 -0.596613 0)
(11.4737 -0.54144 0)
(11.5542 -0.525844 0)
(11.5943 -0.611643 0)
(11.6938 -0.755331 0)
(11.7129 -0.89946 0)
(11.6751 -1.09855 0)
(11.7265 -1.40434 0)
(11.582 -1.62051 0)
(11.5474 -1.91668 0)
(11.3604 -2.24643 0)
(11.1523 -2.53069 0)
(10.8771 -2.80097 0)
(10.628 -3.11303 0)
(10.4531 -3.35881 0)
(10.0262 -3.47455 0)
(9.84003 -3.79821 0)
(9.73099 -4.22591 0)
(9.12361 -4.3268 0)
(8.77613 -4.91707 0)
(8.85641 -5.82351 0)
(8.03124 -5.63921 0)
(6.65198 -5.02832 0)
(6.10449 -5.77797 0)
(6.4902 -7.40746 0)
(7.14384 -8.28187 0)
(7.35993 -8.35228 0)
(7.49744 -7.93317 0)
(7.56934 -7.04623 0)
(7.49602 -6.06927 0)
(7.55263 -5.18794 0)
(7.67858 -4.55422 0)
(7.8905 -3.76849 0)
(8.08223 -2.49041 0)
(8.10808 -1.09596 0)
(8.36576 0.210483 0)
(8.50777 1.05235 0)
(8.38924 1.7116 0)
(8.18023 1.81732 0)
(8.13836 1.94572 0)
(8.28694 2.64947 0)
(8.2061 4.09279 0)
(8.20933 5.44954 0)
(8.00447 5.9702 0)
(7.85093 6.1817 0)
(7.68735 5.94156 0)
(7.33117 5.61687 0)
(7.71072 5.25759 0)
(7.42781 4.7802 0)
(7.79725 5.01323 0)
(7.4518 4.99103 0)
(7.63496 5.09214 0)
(7.85087 4.68223 0)
(8.07445 4.18498 0)
(8.35137 3.96093 0)
(8.68106 4.41964 0)
(9.12015 5.62641 0)
(9.54312 6.76441 0)
(9.91388 7.45202 0)
(10.0104 7.38053 0)
(9.98615 7.0716 0)
(10.0431 6.49635 0)
(9.77258 5.53821 0)
(9.43429 4.29042 0)
(9.16608 3.1916 0)
(8.99572 2.35441 0)
(9.11313 1.23383 0)
(9.12595 -0.0304606 0)
(9.00207 -1.19817 0)
(8.9544 -2.15671 0)
(9.11165 -3.48624 0)
(9.1742 -4.59107 0)
(8.84447 -5.20152 0)
(8.80914 -5.63956 0)
(8.47982 -5.92339 0)
(8.31692 -6.18585 0)
(7.79739 -5.81561 0)
(7.31429 -5.38428 0)
(6.82879 -5.14931 0)
(6.42147 -5.28409 0)
(6.42453 -5.76585 0)
(6.11494 -6.19006 0)
(6.22267 -6.62179 0)
(6.00875 -6.83119 0)
(6.02747 -6.98819 0)
(6.08076 -6.85112 0)
(6.02579 -6.27157 0)
(6.36925 -5.43501 0)
(6.41216 -4.40311 0)
(6.57038 -3.27169 0)
(6.78072 -2.08686 0)
(6.85623 -0.786171 0)
(7.17258 0.677582 0)
(7.36283 1.90427 0)
(7.42582 2.81365 0)
(7.84921 4.01609 0)
(8.08238 5.28126 0)
(8.43189 6.41485 0)
(8.50608 7.16089 0)
(8.9089 8.00089 0)
(8.77606 7.93069 0)
(8.67101 8.1101 0)
(9.81683 8.70304 0)
(9.39779 8.18581 0)
(8.27302 7.20776 0)
(10.6464 7.72028 0)
(9.56289 6.61592 0)
(8.84475 6.29467 0)
(12.3731 5.44136 0)
(7.26832 6.43569 0)
(13.9815 3.45787 0)
(8.05373 6.27601 0)
(13.9236 1.317 0)
(9.36374 4.62012 0)
(13.3641 -0.495702 0)
(9.84149 2.36573 0)
(13.2111 -1.58645 0)
(10.0443 1.30459 0)
(13.1237 -1.26966 0)
(10.5227 1.64393 0)
(13.3268 0.525433 0)
(11.3972 2.6206 0)
(11.885 0.0232752 0)
(11.8715 0.0284058 0)
(11.7756 0.0143273 0)
(11.734 -0.0311347 0)
(11.7577 -0.0880378 0)
(11.7932 -0.110375 0)
(11.859 -0.150737 0)
(11.8929 -0.168517 0)
(11.9254 -0.177833 0)
(11.9408 -0.197168 0)
(11.9249 -0.186385 0)
(11.9388 -0.199049 0)
(11.9103 -0.184638 0)
(11.9302 -0.17505 0)
(11.9144 -0.170729 0)
(11.9397 -0.170411 0)
(11.9568 -0.155632 0)
(11.9613 -0.165155 0)
(12.0127 -0.176744 0)
(12.0197 -0.166805 0)
(12.0752 -0.213246 0)
(12.1049 -0.196141 0)
(12.1396 -0.250867 0)
(12.2091 -0.283954 0)
(12.2026 -0.292766 0)
(12.2828 -0.396294 0)
(12.2428 -0.391244 0)
(12.3078 -0.496073 0)
(12.2482 -0.521446 0)
(12.2531 -0.576287 0)
(12.2165 -0.631556 0)
(12.1573 -0.621295 0)
(12.1342 -0.653643 0)
(12.0331 -0.597763 0)
(12.0021 -0.594182 0)
(11.9292 -0.510911 0)
(11.824 -0.451354 0)
(11.8258 -0.39512 0)
(11.6997 -0.273051 0)
(11.7264 -0.215465 0)
(11.6554 -0.079706 0)
(11.666 0.000155988 0)
(11.6678 0.110076 0)
(11.6899 0.21488 0)
(11.7032 0.284317 0)
(11.766 0.376694 0)
(11.7978 0.419555 0)
(11.8509 0.465707 0)
(11.9279 0.461652 0)
(11.9699 0.470943 0)
(12.0894 0.425139 0)
(12.1549 0.387037 0)
(12.2778 0.317921 0)
(12.4245 0.20801 0)
(12.5471 0.105012 0)
(12.7524 -0.0471496 0)
(12.8971 -0.202136 0)
(13.1303 -0.370692 0)
(13.292 -0.593905 0)
(13.5172 -0.813618 0)
(13.6298 -1.06249 0)
(13.7984 -1.32406 0)
(13.818 -1.58641 0)
(13.8262 -1.80975 0)
(13.7282 -1.97161 0)
(13.5452 -2.1483 0)
(13.3212 -2.20616 0)
(13.0704 -2.19842 0)
(12.7011 -2.11481 0)
(12.4378 -1.94007 0)
(12.1206 -1.79142 0)
(11.9517 -1.55025 0)
(11.7026 -1.37752 0)
(11.5738 -1.24325 0)
(11.4169 -1.02111 0)
(11.3583 -0.87188 0)
(11.2766 -0.733943 0)
(11.2202 -0.625605 0)
(11.1989 -0.574498 0)
(11.1977 -0.564787 0)
(11.2237 -0.620552 0)
(11.3052 -0.648563 0)
(11.366 -0.781764 0)
(11.3534 -0.943609 0)
(11.3976 -1.12408 0)
(11.315 -1.31038 0)
(11.231 -1.57507 0)
(11.1494 -1.85932 0)
(10.9169 -2.05162 0)
(10.7652 -2.36373 0)
(10.5851 -2.60102 0)
(10.3986 -2.8782 0)
(10.1626 -3.09065 0)
(9.82778 -3.26883 0)
(9.69833 -3.76989 0)
(9.26057 -3.90963 0)
(8.66636 -4.06536 0)
(8.72652 -4.89831 0)
(8.23869 -5.15806 0)
(6.7526 -4.47099 0)
(5.62609 -4.41949 0)
(5.27848 -6.03793 0)
(5.53743 -7.77647 0)
(5.94207 -8.44582 0)
(6.07552 -8.31509 0)
(6.25139 -7.81738 0)
(6.20722 -7.02965 0)
(6.33367 -6.12426 0)
(6.46972 -5.29976 0)
(6.46393 -4.59245 0)
(6.52613 -3.69234 0)
(6.35236 -2.48914 0)
(6.50242 -1.15355 0)
(6.77763 0.0101787 0)
(7.09094 0.990978 0)
(7.22687 1.65895 0)
(7.32391 1.82907 0)
(7.36872 1.96434 0)
(7.3614 2.77154 0)
(7.08588 4.17778 0)
(7.03517 5.51743 0)
(6.94123 6.03449 0)
(6.67541 6.28246 0)
(6.69857 6.10469 0)
(6.43506 5.5876 0)
(7.02513 5.19489 0)
(6.87531 4.72444 0)
(6.99012 5.0468 0)
(6.87484 5.01219 0)
(7.10368 4.81658 0)
(7.62665 4.47037 0)
(8.0458 3.84703 0)
(8.45851 3.68428 0)
(8.80733 4.08265 0)
(9.07274 5.22364 0)
(9.50905 6.38328 0)
(9.80988 7.21044 0)
(9.98864 7.34884 0)
(10.0325 7.07166 0)
(10.1804 6.59329 0)
(10.1637 5.82417 0)
(9.74287 4.70782 0)
(9.56367 3.32338 0)
(9.51024 2.41622 0)
(9.60307 1.34524 0)
(9.53807 0.0104424 0)
(9.57093 -1.26354 0)
(9.47739 -2.11489 0)
(9.61674 -3.45795 0)
(9.56529 -4.53528 0)
(9.30396 -4.9992 0)
(9.12469 -5.30488 0)
(8.71874 -5.66282 0)
(8.47203 -5.90074 0)
(7.85697 -5.44793 0)
(7.34019 -4.87465 0)
(6.62097 -4.67958 0)
(6.30051 -5.01854 0)
(5.96767 -5.60147 0)
(5.78594 -6.14525 0)
(5.64674 -6.55152 0)
(5.19417 -6.7445 0)
(5.33968 -6.85196 0)
(4.92035 -6.79477 0)
(5.21276 -6.33139 0)
(5.17457 -5.48707 0)
(5.34523 -4.43516 0)
(5.62339 -3.33696 0)
(5.44635 -2.22081 0)
(6.17473 -1.00341 0)