/*--------------------------------*- C++ -*----------------------------------*\
| =========                 |                                                 |
| \\      /  F ield         | OpenFOAM: The Open Source CFD Toolbox           |
|  \\    /   O peration     | Version:  2.4.0                                 |
|   \\  /    A nd           | Web:      www.OpenFOAM.org                      |
|    \\/     M anipulation  |                                                 |
\*---------------------------------------------------------------------------*/
FoamFile
{
    version     2.0;
    format      ascii;
    class       volScalarField;
    location    "0.79";
    object      pPrime2Mean;
}
// * * * * * * * * * * * * * * * * * * * * * * * * * * * * * * * * * * * * * //

dimensions      [0 4 -4 0 0 0 0];

internalField   nonuniform List<scalar> 
8800
(
818502
797853
775697
753729
732062
710709
689671
668949
648541
628446
608664
589191
570021
551144
532541
514179
495984
477819
459355
439560
818531
797856
775695
753728
732061
710709
689671
668949
648541
628447
608665
589191
570022
551147
532547
514188
496004
477861
459456
439895
818549
797855
775689
753725
732060
710708
689671
668948
648541
628447
608665
589193
570025
551152
532557
514208
496042
477941
459643
440547
818564
797854
775684
753721
732058
710707
689670
668948
648541
628447
608666
589195
570029
551160
532572
514236
496097
478055
459903
441305
818575
797855
775679
753717
732057
710707
689670
668948
648541
628448
608668
589198
570035
551170
532591
514272
496168
478196
460215
442090
818584
797855
775676
753714
732055
710707
689670
668948
648541
628448
608669
589201
570041
551183
532614
514315
496250
478359
460558
442855
818591
797856
775674
753712
732054
710706
689670
668948
648541
628449
608671
589205
570049
551197
532640
514364
496342
478537
460916
443583
818596
797857
775672
753710
732053
710706
689671
668948
648542
628450
608674
589210
570057
551212
532668
514416
496441
478724
461276
444262
818600
797858
775671
753708
732053
710706
689671
668949
648543
628452
608676
589215
570066
551229
532699
514472
496543
478915
461629
444887
818601
797858
775670
753708
732052
710707
689671
668949
648543
628453
608679
589220
570076
551246
532730
514528
496647
479103
461968
445457
818601
797858
775670
753708
732052
710707
689672
668950
648544
628454
608682
589225
570085
551263
532761
514585
496749
479286
462286
445970
818600
797858
775671
753709
732053
710707
689672
668950
648545
628456
608685
589230
570094
551279
532791
514640
496847
479459
462580
446429
818597
797857
775672
753710
732054
710707
689672
668951
648546
628458
608687
589235
570103
551295
532820
514692
496940
479620
462847
446833
818591
797856
775674
753712
732055
710707
689672
668951
648547
628459
608690
589239
570111
551310
532847
514740
497024
479765
463083
447184
818584
797855
775677
753715
732056
710708
689672
668952
648548
628461
608693
589244
570119
551324
532871
514783
497100
479893
463288
447483
818575
797854
775680
753718
732058
710708
689673
668953
648549
628463
608695
589248
570125
551336
532892
514820
497165
480002
463461
447732
818564
797854
775684
753722
732060
710709
689673
668953
648550
628464
608697
589251
570131
551345
532909
514851
497218
480090
463599
447930
818550
797855
775690
753726
732061
710710
689674
668954
648551
628465
608698
589253
570135
551353
532923
514875
497258
480157
463703
448078
818531
797856
775695
753729
732063
710711
689674
668955
648551
628466
608699
589255
570138
551358
532932
514891
497286
480202
463773
448175
818503
797852
775697
753730
732064
710711
689675
668955
648551
628466
608700
589256
570139
551361
532937
514899
497299
480225
463807
448223
421622
416792
413107
409920
406966
404155
401444
398808
396230
393699
391206
388745
386310
383898
381506
379130
376769
374419
372080
369752
367433
365125
362827
360538
358258
355987
353724
351470
349224
346986
344757
342538
340328
338128
335939
333759
331589
329429
327279
325137
323003
320876
318756
316642
314535
312433
310338
308249
306168
304093
302024
299962
297905
295853
293808
291769
289737
287712
285696
283686
281683
279687
277696
275711
273733
271762
269799
267844
265899
263962
262033
260111
258196
256289
254388
252495
250608
248729
246858
244996
243142
241297
239462
237634
235814
234000
232193
230391
228596
226806
225023
223245
221471
219703
217938
216179
214423
212673
210927
209188
207455
205729
204010
202300
200599
198907
197223
195549
193884
192227
190578
188937
187304
185679
184061
182451
180848
179252
177665
176085
174513
172950
171394
169848
168309
166781
165258
163747
162240
160742
159249
157763
156281
154805
153333
151867
150405
148949
147498
146053
144614
143182
141755
140335
138921
137514
136113
134719
133331
131949
130573
129204
127841
126485
125135
123791
122453
121122
119798
118481
117170
115869
114574
113290
112012
110746
109487
108240
107001
105773
104552
103344
102141
100951
99764.8
98592.1
97420.6
96264.9
95107.1
93966.6
92822.5
91694.9
90563.6
89445
88323.1
87208.1
86088.6
84972.2
83847.3
82721
81581.1
80431.7
79260.5
78068.6
76839.9
75570.7
74234.5
72806.7
71254
69390
425063
419916
415720
412106
408836
405780
402871
400070
397352
394701
392102
389549
387032
384548
382091
379657
377243
374847
372467
370101
367748
365409
363083
360769
358466
356174
353893
351622
349361
347110
344869
342638
340419
338209
336011
333823
331646
329479
327321
325172
323032
320900
318776
316658
314547
312442
310345
308254
306170
304093
302023
299959
297901
295849
293804
291765
289734
287710
285693
283684
281681
279685
277695
275712
273735
271765
269803
267849
265903
263966
262037
260115
258200
256293
254392
252499
250613
248734
246863
245002
243149
241305
239470
237643
235824
234011
232204
230403
228608
226819
225036
223258
221484
219715
217950
216190
214435
212685
210941
209203
207471
205746
204029
202320
200620
198928
197246
195571
193905
192248
190598
188956
187321
185694
184075
182463
180859
179264
177676
176097
174525
172964
171409
169865
168327
166800
165279
163769
162264
160768
159275
157790
156308
154832
153361
151894
150432
148975
147524
146079
144640
143207
141780
140360
138945
137537
136135
134740
133350
131967
130591
129222
127859
126502
125151
123807
122468
121135
119808
118489
117176
115871
114573
113284
112003
110731
109467
108212
106966
105730
104501
103282
102068
100866
99666.2
98479.7
97293
96120.5
94945.7
93785.1
92621.9
91470.7
90317.5
89171.4
88023.9
86877.9
85727.6
84575.1
83414.4
82244.5
81060.5
79857.3
78628.8
77366.2
76060.2
74687.8
73251.7
71642.2
69930.4
67933.7
427451
422344
417952
414082
410577
407319
404237
401287
398439
395674
392976
390333
387738
385184
382664
380173
377709
375267
372846
370443
368057
365688
363335
360996
358671
356359
354059
351772
349496
347231
344979
342737
340507
338289
336082
333886
331701
329527
327362
325207
323061
320924
318795
316673
314558
312451
310350
308257
306171
304092
302020
299955
297897
295845
293800
291761
289730
287706
285690
283681
281679
279684
277695
275713
273738
271769
269808
267855
265910
263972
262043
260121
258206
256298
254398
252504
250618
248740
246870
245008
243156
241314
239480
237654
235835
234023
232216
230416
228622
226834
225051
223272
221498
219729
217964
216205
214450
212701
210958
209222
207492
205769
204053
202346
200647
198956
197274
195599
193933
192274
190623
188978
187342
185713
184092
182479
180874
179278
177690
176112
174541
172980
171427
169884
168348
166823
165304
163795
162292
160795
159304
157818
156337
154860
153388
151921
150458
149001
147550
146104
144665
143232
141804
140384
138968
137559
136157
134759
133369
131985
130609
129239
127876
126519
125168
123822
122482
121148
119818
118496
117181
115872
114571
113279
111993
110716
109447
108187
106933
105689
104450
103221
101996
100782
99568.9
98367.4
97166.9
95976.6
94786.4
93604.9
92424.1
91248.5
90074.5
88901.1
87728.5
86551.6
85372.9
84184.4
82990.7
81778.9
80554.5
79300.1
78023.4
76692.1
75334.5
73863.5
72370.7
70661.6
68872.4
66904.9
429268
424297
419850
415838
412169
408751
405524
402443
399479
396609
393818
391092
388423
385801
383220
380676
378162
375676
373215
370777
368359
365960
363580
361217
358870
356539
354222
351918
349628
347351
345086
342834
340595
338367
336152
333948
331756
329574
327403
325242
323090
320948
318814
316688
314569
312459
310356
308260
306172
304091
302018
299952
297893
295841
293796
291758
289727
287703
285687
283679
281677
279683
277696
275715
273741
271774
269814
267862
265918
263981
262051
260129
258214
256306
254405
252511
250624
248746
246876
245016
243165
241323
239490
237664
235846
234035
232230
230431
228637
226850
225067
223288
221514
219745
217981
216222
214468
212721
210980
209245
207517
205796
204083
202377
200679
198989
197307
195632
193965
192305
190652
189005
187366
185735
184112
182497
180891
179294
177707
176128
174559
172999
171447
169905
168371
166847
165331
163822
162320
160823
159333
157846
156365
154887
153414
151946
150483
149025
147573
146127
144687
143253
141826
140404
138989
137579
136176
134777
133387
132002
130626
129256
127893
126536
125184
123837
122495
121158
119827
118502
117184
115872
114569
113272
111983
110701
109427
108161
106901
105648
104401
103161
101926
100698
99473.7
98256.9
97043.4
95835.6
94630.2
93428.6
92229.8
91031
89835.6
88635.6
87438.8
86231.7
85026.9
83802.8
82580.6
81325.8
80072
78761.9
77456.9
76054.4
74664.6
73119.2
71572.1
69846.6
68044.6
66141.8
430729
425895
421462
417382
413606
410069
406723
403530
400463
397500
394623
391821
389081
386396
383758
381161
378601
376073
373573
371100
368652
366225
363820
361433
359066
356715
354381
352062
349758
347468
345192
342930
340681
338445
336221
334010
331810
329621
327444
325277
323119
320972
318833
316703
314581
312467
310362
308264
306174
304092
302017
299950
297890
295838
293793
291755
289725
287702
285687
283679
281678
279684
277698
275718
273746
271780
269822
267871
265927
263990
262061
260138
258222
256313
254412
252517
250631
248752
246883
245023
243173
241331
239499
237675
235858
234047
232243
230445
228653
226866
225083
223305
221531
219763
217999
216241
214489
212743
211004
209271
207546
205827
204116
202411
200714
199025
197343
195668
194000
192338
190683
189034
187393
185759
184134
182518
180911
179313
177725
176146
174578
173018
171468
169926
168394
166870
165356
163848
162347
160850
159359
157872
156389
154911
153437
151968
150504
149045
147592
146145
144705
143270
141843
140420
139005
137595
136192
134793
133402
132018
130642
129272
127909
126551
125199
123850
122507
121166
119832
118504
117184
115869
114563
113262
111970
110684
109406
108133
106867
105607
104352
103102
101857
100616
99380.9
98149.8
96923.4
95698.5
94478.4
93256.5
92040.5
90817.5
89603
88374.9
87158.4
85918.3
84693.4
83431.3
82188.4
80888.4
79611.8
78252.4
76917.1
75467.9
74034
72463.5
70868.5
69166.2
67387.2
65540
431959
427243
422843
418736
414891
411267
407828
404542
401387
398340
395387
392514
389709
386965
384274
381628
379023
376455
373920
371414
368936
366482
364052
361644
359256
356887
354537
352203
349886
347584
345297
343025
340766
338522
336290
334071
331864
329669
327485
325312
323150
320997
318854
316720
314595
312478
310370
308270
306178
304094
302019
299951
297890
295838
293793
291756
289726
287703
285689
283681
281681
279688
277703
275724
273753
271788
269831
267880
265937
264000
262070
260147
258230
256320
254417
252522
250635
248757
246888
245028
243179
241338
239507
237683
235867
234058
232255
230458
228668
226882
225101
223323
221550
219782
218020
216262
214511
212766
211029
209299
207576
205860
204150
202447
200751
199062
197380
195704
194035
192371
190714
189062
187419
185784
184157
182539
180931
179331
177743
176164
174596
173036
171486
169945
168414
166892
165378
163871
162370
160873
159381
157893
156410
154930
153456
151985
150520
149060
147606
146157
144716
143281
141854
140432
139017
137606
136204
134805
133415
132030
130655
129283
127921
126561
125209
123857
122513
121170
119834
118503
117180
115861
114553
113249
111954
110663
109381
108102
106832
105563
104302
103041
101789
100535
99290.1
98044.4
96807.1
95563.6
94331.2
93087.2
91856.3
90608.3
89377.2
88122
86886.5
85618.4
84371.6
83080
81810.6
80480.9
79170
77783.5
76406.7
74938
73462.5
71892.7
70277.2
68598
66846.6
65040.4
433019
428398
424037
419920
416033
412347
408836
405475
402245
399126
396105
393168
390305
387507
384766
382075
379429
376823
374253
371716
369210
366731
364278
361848
359441
357055
354689
352341
350011
347697
345400
343118
340851
338598
336358
334132
331919
329717
327527
325349
323181
321024
318876
316739
314610
312491
310381
308279
306185
304100
302023
299955
297894
295841
293796
291759
289729
287707
285693
283686
281687
279694
277709
275731
273760
271797
269840
267889
265946
264009
262078
260153
258236
256325
254421
252525
250638
248759
246890
245031
243182
241342
239512
237689
235874
234066
232265
230470
228681
226897
225118
223341
221570
219803
218040
216283
214533
212790
211054
209326
207605
205891
204184
202482
200787
199098
197416
195739
194068
192402
190742
189089
187444
185806
184178
182559
180949
179349
177760
176180
174611
173051
171501
169961
168431
166908
165396
163888
162387
160890
159398
157909
156425
154944
153468
151996
150530
149068
147612
146162
144722
143286
141859
140438
139023
137612
136209
134810
133420
132036
130662
129288
127926
126565
125211
123858
122513
121166
119829
118495
117169
115848
114538
113230
111932
110636
109350
108067
106791
105516
104247
102978
101717
100454
99198
97940.4
96690.7
95432.1
94184.8
92923.3
91674
90407.3
89154.1
87880.6
86620.3
85334.8
84060.9
82751.1
81451
80103.5
78759.9
77356.1
75948.9
74469.7
72969
71405.3
69785.6
68120
66388.5
64612.7
433944
429399
425074
420959
417047
413317
409751
406329
403036
399855
396774
393781
390865
388018
385231
382498
379814
377173
374571
372005
369472
366969
364494
362045
359620
357217
354836
352475
350132
347808
345500
343209
340933
338672
336425
334192
331972
329765
327570
325386
323214
321052
318901
316760
314629
312507
310394
308290
306195
304109
302031
299961
297900
295847
293802
291765
289735
287713
285699
283692
281693
279701
277716
275738
273767
271803
269846
267895
265951
264013
262082
260156
258237
256326
254421
252525
250638
248759
246891
245032
243183
241344
239515
237693
235879
234073
232273
230479
228693
226911
225134
223359
221588
219821
218059
216302
214553
212810
211076
209350
207631
205919
204213
202512
200818
199129
197447
195769
194096
192428
190766
189111
187464
185825
184196
182576
180966
179365
177775
176194
174624
173062
171512
169971
168440
166918
165406
163898
162397
160899
159407
157917
156432
154949
153472
151999
150531
149068
147611
146161
144720
143285
141858
140438
139022
137612
136208
134809
133419
132034
130661
129285
127923
126561
125206
123853
122506
121157
119818
118481
117152
115829
114515
113205
111903
110605
109315
108027
106746
105466
104190
102915
101645
100373
99106.3
97839.3
96576.2
95305.9
94042
92766.7
91497.9
90216.1
88940
87652.2
86369.7
85069.7
83772.7
82448.2
81123.4
79760.3
78392.8
76975.7
75547.7
74065.3
72549.5
70989.4
69368.8
67709.9
65994
64242.8
434755
430272
425981
421872
417945
414183
410574
407104
403759
400526
397393
394350
391387
388495
385667
382896
380176
377503
374872
372279
369721
367196
364700
362232
359790
357372
354977
352602
350248
347913
345596
343296
341012
338744
336490
334251
332025
329813
327612
325424
323248
321082
318927
316783
314649
312525
310410
308304
306207
304120
302041
299970
297908
295854
293809
291771
289741
287719
285705
283698
281698
279706
277720
275742
273771
271806
269848
267897
265952
264013
262081
260154
258235
256323
254418
252522
250635
248757
246888
245030
243181
241343
239514
237693
235881
234076
232278
230486
228701
226922
225146
223373
221603
219836
218074
216318
214568
212827
211093
209368
207650
205939
204234
202534
200841
199152
197469
195790
194116
192446
190783
189126
187478
185839
184210
182589
180978
179377
177785
176203
174631
173068
171516
169974
168442
166920
165408
163900
162398
160900
159406
157916
156430
154946
153468
151994
150525
149061
147604
146153
144711
143276
141850
140430
139015
137604
136200
134800
133409
132025
130650
129274
127912
126550
125192
123841
122491
121142
119799
118463
117129
115806
114487
113175
111868
110568
109273
107986
106698
105414
104130
102851
101572
100294
99016.5
97742.9
96465.7
95187.1
93906.2
92620.7
91333.3
90038
88743.2
87441.2
86140.9
84830.2
83513.6
82178.1
80832.5
79456.6
78070.7
76645
75201.3
73717.5
72188.8
70627.9
69008.1
67354.3
65653.4
63923.4
435470
431036
426773
422674
418737
414953
411312
407802
404414
401137
397960
394874
391869
388937
386072
383267
380515
377812
375153
372535
369955
367408
364894
362408
359950
357518
355109
352723
350359
348014
345688
343379
341088
338813
336553
334307
332076
329859
327654
325461
323281
321112
318954
316807
314670
312543
310426
308319
306220
304131
302051
299979
297916
295861
293815
291777
289746
287724
285709
283701
281701
279707
277721
275742
273770
271804
269845
267893
265947
264007
262074
260148
258228
256316
254412
252516
250628
248750
246882
245024
243175
241337
239509
237689
235878
234075
232279
230489
228707
226929
225155
223383
221613
219846
218084
216327
214578
212836
211103
209378
207661
205951
204247
202548
200854
199165
197482
195802
194126
192455
190791
189133
187485
185845
184216
182595
180984
179382
177790
176207
174633
173068
171514
169969
168436
166913
165400
163892
162390
160891
159397
157905
156419
154935
153456
151982
150512
149049
147591
146140
144698
143262
141836
140415
139000
137588
136185
134783
133393
132010
130631
129257
127892
126532
125171
123825
122470
121122
119775
118443
117101
115781
114453
113143
111828
110530
109227
107943
106644
105362
104068
102787
101498
100218
98929.8
97652.8
96361.5
95078.3
93781.6
92488.6
91185
89875.9
88568
87255
85940.7
84620.8
83285.5
81939.9
80577.1
79190.4
77789.6
76358.7
74899.3
73412.2
71872.6
70308.5
68692.6
67045.4
65359.8
63648.5
436098
431704
427466
423376
419434
415634
411967
408426
405003
401689
398474
395350
392309
389343
386444
383608
380827
378097
375414
372773
370171
367606
365074
362572
360100
357654
355233
352836
350462
348108
345773
343457
341159
338877
336611
334361
332125
329903
327694
325498
323314
321142
318981
316831
314691
312562
310443
308333
306233
304142
302060
299987
297923
295867
293819
291780
289748
287725
285709
283700
281699
279705
277718
275737
273764
271798
269838
267884
265938
263998
262064
260137
258217
256305
254402
252506
250619
248741
246873
245014
243166
241328
239500
237681
235872
234070
232276
230489
228709
226932
225159
223386
221616
219848
218086
216328
214579
212837
211104
209379
207662
205952
204249
202550
200856
199167
197483
195802
194126
192455
190790
189133
187484
185844
184214
182594
180983
179381
177788
176204
174629
173062
171506
169959
168424
166899
165384
163875
162373
160874
159379
157887
156400
154917
153439
151965
150495
149032
147574
146124
144680
143244
141817
140394
138979
137565
136162
134759
133369
131987
130605
129235
127866
126510
125147
123804
122443
121100
119748
118420
117072
115754
114417
113109
111785
110490
109179
107898
106588
105307
104004
102726
101427
100145
98847.3
97569.9
96264.8
94978.8
93669.1
92368.9
91053.1
89730.8
88414.8
87091.8
85763
84441.5
83086.2
81734
80353.9
78959.8
77544.1
76108.4
74633.6
73139.2
71594.1
70028
68418
66779.1
65108
63413.6
436647
432286
428069
423988
420044
416231
412545
408979
405527
402182
398935
395779
392706
389710
386782
383918
381111
378357
375652
372990
370370
367787
365239
362723
360237
357779
355348
352941
350557
348194
345852
343530
341225
338937
336666
334411
332170
329944
327731
325532
323345
321169
319006
316853
314711
312579
310458
308346
306244
304151
302067
299993
297927
295870
293821
291780
289747
287722
285705
283696
281693
279698
277710
275728
273754
271787
269826
267872
265925
263985
262051
260124
258205
256293
254390
252495
250608
248730
246862
245002
243153
241315
239487
237669
235861
234061
232270
230484
228705
226928
225155
223381
221610
219842
218079
216320
214571
212829
211095
209369
207652
205942
204239
202540
200847
199157
197472
195791
194116
192445
190782
189124
187476
185836
184207
182586
180976
179373
177780
176195
174619
173050
171492
169943
168406
166879
165362
163852
162348
160848
159353
157861
156375
154893
153416
151942
150474
149011
147553
146103
144658
143222
141793
140368
138953
137538
136134
134729
133341
131957
130573
129206
127837
126485
125123
123779
122417
121075
119722
118394
117041
115723
114381
113074
111743
110447
109134
107850
106536
105251
103943
102662
101357
100074
98769.1
97490.6
96175.4
94885.1
93565.4
92260.4
90935.2
89605.3
88279.5
86947.5
85610.9
84278.9
82908.5
81552.8
80158.3
78758.8
77332.1
75886
74399.3
72898.1
71350.9
69786
68182.4
66552
64894.2
63214.6
437125
432790
428590
424517
420572
416750
413048
409462
405987
402616
399343
396160
393060
390037
387085
384196
381367
378591
375866
373186
370549
367950
365388
362859
360362
357893
355452
353036
350643
348274
345925
343596
341285
338993
336717
334457
332212
329982
327766
325563
323373
321195
319028
316873
314728
312594
310470
308356
306252
304157
302072
299995
297928
295869
293819
291776
289743
287717
285698
283687
281684
279688
277698
275716
273741
271773
269812
267858
265911
263970
262036
260110
258191
256280
254377
252483
250597
248719
246850
244990
243140
241301
239473
237654
235846
234048
232257
230473
228694
226916
225142
223366
221596
219827
218063
216304
214555
212812
211078
209350
207634
205923
204220
202520
200827
199136
197452
195772
194098
192428
190766
189110
187463
185823
184194
182573
180963
179359
177767
176181
174604
173034
171475
169923
168385
166855
165336
163823
162318
160817
159322
157830
156345
154863
153388
151914
150448
148984
147526
146075
144631
143194
141764
140338
138922
137505
136101
134695
133307
131924
130540
129173
127810
126456
125094
123751
122391
121048
119698
118366
117012
115687
114347
113033
111700
110397
109086
107799
106481
105199
103887
102601
101291
100001
98691.1
97408.1
96088
94794.6
93470.3
92160.7
90828.9
89493.4
88160.5
86822.5
85474.3
84130.6
82756.4
81390.9
79988.6
78580.9
77146.9
75689.4
74195.6
72690.3
71143.2
69581
67982.9
66360.9
64714.8
63048.2
437536
433222
429036
424969
421023
417194
413480
409879
406385
402994
399699
396493
393371
390325
387351
384441
381592
378798
376055
373360
370707
368095
365520
362980
360472
357994
355544
353120
350721
348345
345990
343655
341340
339042
336762
334498
332250
330016
327797
325591
323398
321217
319047
316889
314742
312606
310479
308363
306257
304160
302073
299995
297925
295865
293813
291770
289735
287707
285688
283676
281672
279675
277685
275702
273727
271759
269797
267843
265895
263955
262021
260095
258177
256267
254365
252471
250585
248707
246837
244976
243126
241285
239456
237637
235829
234031
232240
230456
228675
226896
225120
223344
221573
219803
218039
216280
214531
212787
211053
209325
207609
205897
204194
202494
200801
199110
197427
195746
194074
192406
190745
189090
187444
185805
184176
182555
180945
179341
177748
176161
174584
173013
171453
169900
168360
166828
165307
163792
162285
160783
159288
157797
156312
154830
153355
151883
150417
148953
147496
146044
144600
143162
141731
140305
138888
137472
136066
134660
133273
131884
130507
129140
127781
126425
125065
123720
122364
121015
119674
118336
116980
115654
114312
112981
111653
110345
109035
107743
106428
105140
103832
102543
101225
99925.3
98615.9
97323.4
96003.5
94707.9
93379.4
92066.6
90732.1
89394
88055.5
86711.8
85355.9
84003
82623.9
81244
79842.6
78422.1
76985.2
75518.9
74022.7
72515.7
70969.7
69409.5
67816.2
66202.5
64566.2
62910.7
437884
433587
429412
425349
421402
417568
413845
410231
406723
403315
400002
396778
393637
390573
387580
384653
381787
378977
376219
373510
370845
368221
365636
363086
360569
358083
355625
353195
350789
348407
346046
343707
341387
339086
336802
334534
332282
330046
327823
325614
323418
321234
319063
316902
314753
312614
310485
308367
306259
304160
302071
299991
297920
295858
293805
291761
289725
287697
285676
283664
281659
279661
277671
275688
273712
271744
269782
267828
265880
263940
262007
260081
258164
256254
254353
252459
250573
248694
246824
244962
243111
241270
239439
237619
235809
234010
232218
230432
228649
226869
225092
223316
221545
219775
218010
216252
214502
212757
211022
209296
207580
205868
204165
202465
200771
199081
197398
195719
194048
192380
190721
189067
187423
185784
184155
182534
180923
179319
177726
176139
174561
172989
171428
169875
168334
166800
165277
163759
162251
160748
159253
157761
156276
154795
153320
151849
150383
148920
147464
146011
144567
143128
141697
140271
138853
137438
136031
134628
133238
131849
130476
129107
127750
126391
125036
123687
122335
120985
119645
118296
116951
115610
114269
112931
111609
110298
108986
107685
106373
105074
103775
102477
101161
99851.5
98547.8
97242
95927.1
94625.2
93296.9
91978.6
90645.6
89307.1
87967.9
86618.6
85251.5
83891
82507.2
81117.1
79715.2
78284.4
76849.3
75376.6
73880.6
72372.4
70827.5
69269
67680.5
66073.5
64444.7
62799.2
438174
433890
429720
425659
421711
417873
414144
410521
407002
403582
400255
397016
393859
390779
387771
384830
381950
379127
376357
373636
370960
368327
365733
363175
360650
358157
355694
353257
350846
348459
346094
343751
341427
339122
336834
334564
332309
330069
327844
325632
323434
321248
319074
316911
314760
312619
310488
308368
306258
304157
302066
299985
297913
295850
293796
291751
289714
287685
285665
283652
281646
279648
277658
275675
273699
271730
269768
267813
265866
263926
261993
260068
258151
256242
254341
252448
250562
248683
246811
244949
243097
241255
239422
237601
235790
233988
232193
230406
228620
226838
225059
223285
221513
219743
217979
216221
214470
212726
210991
209266
207549
205839
204136
202436
200742
199053
197369
195691
194019
192354
190695
189043
187398
185762
184132
182511
180899
179297
177702
176115
174536
172965
171403
169850
168308
166774
165248
163730
162219
160716
159218
157727
156240
154760
153284
151814
150348
148887
147431
145979
144535
143096
141665
140239
138820
137405
135999
134598
133208
131823
130449
129078
127719
126357
125007
123652
122305
120951
119615
118257
116911
115557
114228
112885
111569
110253
108939
107627
106320
105015
103719
102405
101104
99789.6
98482.4
97171.9
95862
94548.1
93225
91900.3
90569.2
89231.2
87890.6
86534.4
85164.5
83798.3
82405.4
81009.2
79607.2
78173.1
76736
75262.1
73767.7
72257.4
70713.9
69156.5
67572.3
65970.1
64347.4
62710.3
438404
434129
429963
425903
421954
418113
414380
410752
407224
403794
400456
397205
394037
390945
387925
384972
382081
379248
376468
373738
371054
368413
365811
363246
360716
358217
355749
353307
350892
348501
346132
343785
341458
339150
336860
334587
332329
330087
327860
325646
323446
321258
319082
316917
314764
312622
310489
308367
306256
304154
302062
299980
297907
295843
293788
291742
289705
287676
285655
283641
281636
279638
277647
275663
273687
271717
269755
267801
265853
263913
261981
260056
258139
256230
254330
252437
250551
248672
246800
244938
243085
241241
239408
237585
235771
233967
232169
230379
228591
226809
225028
223254
221480
219713
217948
216192
214441
212699
210963
209239
207521
205812
204108
202409
200715
199027
197342
195665
193994
192330
190671
189021
187376
185740
184109
182489
180875
179274
177677
176092
174511
172942
171379
169827
168284
166751
165223
163705
162191
160687
159186
157694
156205
154725
153248
151780
150315
148856
147399
145949
144504
143066
141634
140209
138789
137376
135971
134574
133183
131797
130424
129048
127685
126324
124974
123614
122270
120916
119575
118211
116871
115520
114197
112843
111530
110205
108890
107576
106272
104959
103662
102346
101049
99729
98425.5
97115.5
95805
94483.8
93165.8
91831.9
90504.2
89164.6
87828.3
86461.6
85094.1
83717.6
82325.4
80925.3
79520.1
78085.2
76646.9
75175.8
73681.3
72168.8
70626.3
69069.1
67488
65889.3
64272.1
62641.2
438577
434308
430142
426083
422134
418292
414556
410923
407390
403953
400607
397347
394170
391069
388040
385079
382180
379338
376551
373814
371124
368477
365870
363300
360765
358263
355790
353345
350926
348532
346161
343811
341481
339171
336879
334603
332344
330100
327871
325656
323454
321264
319087
316921
314767
312623
310490
308367
306254
304152
302059
299976
297902
295838
293783
291736
289698
287668
285647
283633
281627
279629
277638
275654
273677
271708
269745
267790
265843
263903
261971
260046
258130
256221
254321
252428
250542
248663
246791
244928
243075
241231
239397
237572
235756
233949
232148
230355
228565
226783
225002
223228
221454
219688
217924
216169
214416
212677
210940
209217
207497
205790
204084
202388
200691
199005
197319
195644
193972
192311
190651
189003
187356
185721
184089
182469
180854
179253
177656
176072
174492
172924
171361
169810
168266
166733
165204
163686
162170
160665
159161
157667
156176
154696
153217
151750
150284
148828
147372
145924
144478
143042
141608
140184
138763
137353
135947
134553
133159
131775
130396
129020
127654
126290
124939
123577
122234
120878
119536
118178
116841
115484
114162
112808
111495
110161
108851
107533
106228
104915
103617
102298
101001
99680.6
98382
97067.3
95759.5
94435.6
93118.5
91780
90456.1
89110.8
87772.9
86400.7
85042.3
83654
82264.7
80860.8
79454.4
78025.5
76582.2
75115.2
73618.7
72105.6
70562.8
69005.6
67427
65830.6
64217
62590.2
438687
434423
430261
426203
422254
418412
414673
411037
407500
404058
400707
397442
394259
391152
388117
385150
382245
379399
376607
373866
371171
368520
365909
363336
360798
358293
355817
353370
350949
348553
346179
343828
341497
339185
336891
334614
332353
330108
327878
325662
323459
321268
319090
316923
314768
312624
310490
308367
306253
304150
302057
299973
297899
295835
293779
291732
289694
287664
285642
283628
281621
279623
277631
275647
273669
271700
269737
267782
265835
263895
261962
260038
258122
256213
254313
252420
250534
248655
246784
244922
243069
241225
239388
237562
235745
233936
232131
230336
228544
226763
224981
223209
221434
219670
217905
216152
214399
212660
210923
209201
207480
205774
204066
202371
200674
198989
197303
195629
193956
192296