/*--------------------------------*- C++ -*----------------------------------*\
| =========                 |                                                 |
| \\      /  F ield         | OpenFOAM: The Open Source CFD Toolbox           |
|  \\    /   O peration     | Version:  2.4.0                                 |
|   \\  /    A nd           | Web:      www.OpenFOAM.org                      |
|    \\/     M anipulation  |                                                 |
\*---------------------------------------------------------------------------*/
FoamFile
{
    version     2.0;
    format      ascii;
    class       volVectorField;
    location    "0.79";
    object      UMean;
}
// * * * * * * * * * * * * * * * * * * * * * * * * * * * * * * * * * * * * * //

dimensions      [0 1 -1 0 0 0 0];

internalField   nonuniform List<vector> 
8800
(
(8.09341 0.38688 0)
(5.46229 0.242383 0)
(3.93345 0.0430846 0)
(3.17283 -0.0151381 0)
(2.82934 -0.0183106 0)
(2.61399 -0.0108621 0)
(2.52025 -0.00585453 0)
(2.39742 -0.00196091 0)
(2.36251 -0.00180732 0)
(2.26878 -0.000118051 0)
(2.26647 -0.00109767 0)
(2.1857 0.00052712 0)
(2.19891 -0.000650068 0)
(2.1193 0.00114852 0)
(2.13676 -0.000299908 0)
(2.05476 0.00184875 0)
(2.06933 -0.000213767 0)
(1.98086 0.0017834 0)
(2.01327 0.0058468 0)
(1.76078 -0.0537651 0)
(10.0847 0.835557 0)
(9.65218 0.864898 0)
(8.89558 0.504767 0)
(8.07637 0.260882 0)
(7.53183 0.136795 0)
(6.99797 0.0817014 0)
(6.7525 0.0524213 0)
(6.38999 0.0404521 0)
(6.2996 0.0279196 0)
(6.01582 0.0246884 0)
(6.01834 0.016561 0)
(5.77149 0.0186321 0)
(5.82611 0.0125681 0)
(5.59065 0.0179174 0)
(5.6687 0.0122666 0)
(5.43357 0.0190533 0)
(5.5171 0.0165631 0)
(5.26934 0.0151956 0)
(5.37497 0.0314457 0)
(5.04855 -0.0402114 0)
(10.0775 0.62975 0)
(10.6315 0.85993 0)
(10.9041 0.598286 0)
(10.6513 0.37181 0)
(10.5063 0.253481 0)
(10.0372 0.195319 0)
(9.9041 0.15007 0)
(9.44156 0.121876 0)
(9.40309 0.0902624 0)
(8.97934 0.076219 0)
(9.03717 0.0545691 0)
(8.64403 0.0533199 0)
(8.77241 0.0381043 0)
(8.38974 0.0449166 0)
(8.56119 0.0327532 0)
(8.17439 0.0434358 0)
(8.36819 0.0372109 0)
(7.96156 0.0438366 0)
(8.16879 0.0492253 0)
(7.73688 -0.0255939 0)
(10.0509 0.456729 0)
(10.5058 0.701942 0)
(11.2359 0.542935 0)
(11.2956 0.350746 0)
(11.6329 0.259289 0)
(11.3684 0.226443 0)
(11.5783 0.196242 0)
(11.1995 0.17523 0)
(11.3986 0.142109 0)
(10.9723 0.126044 0)
(11.1996 0.0981657 0)
(10.7509 0.0945459 0)
(11.0143 0.0727048 0)
(10.5469 0.0798001 0)
(10.841 0.0601552 0)
(10.3534 0.076683 0)
(10.6681 0.0568904 0)
(10.1549 0.0875441 0)
(10.4624 0.0560923 0)
(9.92246 0.0937302 0)
(10.1533 0.346972 0)
(10.2918 0.564072 0)
(11.1583 0.458306 0)
(11.1897 0.29349 0)
(11.7679 0.20609 0)
(11.5539 0.192844 0)
(11.9949 0.17367 0)
(11.6972 0.17071 0)
(12.1019 0.138532 0)
(11.7641 0.135377 0)
(12.156 0.1017 0)
(11.7898 0.111035 0)
(12.174 0.0787958 0)
(11.7833 0.102167 0)
(12.1582 0.066558 0)
(11.7465 0.104957 0)
(12.1068 0.0610137 0)
(11.6765 0.122296 0)
(11.9987 0.0571183 0)
(11.5231 0.142216 0)
(10.1698 0.25131 0)
(10.2184 0.453619 0)
(10.9945 0.373014 0)
(11.0948 0.248122 0)
(11.6145 0.157045 0)
(11.5242 0.152848 0)
(11.8831 0.136528 0)
(11.7436 0.144483 0)
(12.0571 0.112293 0)
(11.917 0.116876 0)
(12.2073 0.0828089 0)
(12.0685 0.0967019 0)
(12.3367 0.0659831 0)
(12.1968 0.0905774 0)
(12.4405 0.060566 0)
(12.2986 0.0942063 0)
(12.5137 0.0626706 0)
(12.3675 0.105279 0)
(12.5346 0.0611789 0)
(12.3176 0.0679589 0)
(10.0464 0.17017 0)
(10.2793 0.356389 0)
(10.7664 0.28244 0)
(11.1049 0.208616 0)
(11.3923 0.111577 0)
(11.5498 0.120002 0)
(11.6704 0.0977462 0)
(11.7669 0.120325 0)
(11.8455 0.0804895 0)
(11.9451 0.0982843 0)
(12.0079 0.0562662 0)
(12.1116 0.0817216 0)
(12.1593 0.0425422 0)
(12.2635 0.0775233 0)
(12.2946 0.0390547 0)
(12.3978 0.0817076 0)
(12.411 0.0406785 0)
(12.5077 0.0876798 0)
(12.4826 0.0291545 0)
(12.4859 0.0322681 0)
(9.93926 0.109066 0)
(10.3298 0.256482 0)
(10.6028 0.197492 0)
(11.1033 0.157073 0)
(11.2361 0.075043 0)
(11.556 0.0848416 0)
(11.5262 0.0661122 0)
(11.7646 0.0891811 0)
(11.6985 0.0552765 0)
(11.9352 0.0726898 0)
(11.8619 0.0370338 0)
(12.0985 0.0601171 0)
(12.0157 0.0269102 0)
(12.2487 0.0570287 0)
(12.1549 0.0243907 0)
(12.3827 0.0595165 0)
(12.2766 0.0235416 0)
(12.4922 0.0587405 0)
(12.3501 0.00628573 0)
(12.4596 0.0075807 0)
(9.8779 0.0581647 0)
(10.3557 0.158143 0)
(10.503 0.114767 0)
(11.095 0.100474 0)
(11.141 0.0404988 0)
(11.5535 0.0552572 0)
(11.4394 0.035301 0)
(11.7575 0.0598659 0)
(11.6087 0.0294324 0)
(11.9241 0.0496175 0)
(11.772 0.0174788 0)
(12.0869 0.0417423 0)
(11.9272 0.0108984 0)
(12.238 0.0395438 0)
(12.068 0.00819039 0)
(12.3734 0.0393295 0)
(12.1911 0.00416096 0)
(12.4844 0.0332882 0)
(12.2618 -0.0144984 0)
(12.4469 -0.00963938 0)
(9.87679 0.0147641 0)
(10.3427 0.0594139 0)
(10.4841 0.0333541 0)
(11.0693 0.0398907 0)
(11.1275 0.00801913 0)
(11.5338 0.0247335 0)
(11.4337 0.00598249 0)
(11.7385 0.0272068 0)
(11.6049 0.00387054 0)
(11.906 0.0235252 0)
(11.7713 -0.000937584 0)
(12.072 0.0204899 0)
(11.9306 -0.00417332 0)
(12.227 0.0187509 0)
(12.075 -0.00735871 0)
(12.3666 0.0154329 0)
(12.2019 -0.0140269 0)
(12.4812 0.00554143 0)
(12.2751 -0.0318411 0)
(12.4433 -0.0272042 0)
(9.92129 -0.0273092 0)
(10.3019 -0.0391753 0)
(10.5304 -0.049647 0)
(11.0342 -0.0216989 0)
(11.1761 -0.0254445 0)
(11.5029 -0.00618534 0)
(11.4854 -0.0240097 0)
(11.7108 -0.00676542 0)
(11.6604 -0.0228032 0)
(11.8812 -0.00345089 0)
(11.8306 -0.0201325 0)
(12.0495 -0.00141317 0)
(11.9936 -0.0203441 0)
(12.206 -0.00283509 0)
(12.1417 -0.0241485 0)
(12.3463 -0.00904231 0)
(12.2719 -0.0331797 0)
(12.4606 -0.0219175 0)
(12.3469 -0.0496851 0)
(12.4196 -0.0437503 0)
(9.97108 -0.0705266 0)
(10.2673 -0.140083 0)
(10.5993 -0.130654 0)
(11.0158 -0.0845198 0)
(11.2437 -0.0567813 0)
(11.4805 -0.0389074 0)
(11.5494 -0.0517779 0)
(11.6896 -0.0420829 0)
(11.7262 -0.0466506 0)
(11.8611 -0.0320454 0)
(11.8969 -0.0368161 0)
(12.0285 -0.0250034 0)
(12.0597 -0.0337507 0)
(12.1835 -0.0258286 0)
(12.2071 -0.0381915 0)
(12.3219 -0.0345279 0)
(12.3358 -0.050046 0)
(12.4336 -0.0507618 0)
(12.4092 -0.0665962 0)
(12.3907 -0.0604354 0)
(9.99689 -0.120252 0)
(10.268 -0.242204 0)
(10.6676 -0.212146 0)
(11.0411 -0.14486 0)
(11.3088 -0.0893723 0)
(11.4942 -0.0720359 0)
(11.6055 -0.0807561 0)
(11.7036 -0.0757813 0)
(11.7835 -0.0707625 0)
(11.8759 -0.0594373 0)
(11.9529 -0.0546002 0)
(12.0418 -0.0476357 0)
(12.1132 -0.0483085 0)
(12.195 -0.0472661 0)
(12.2583 -0.0532885 0)
(12.3315 -0.0577009 0)
(12.3849 -0.0687884 0)
(12.442 -0.0778098 0)
(12.4592 -0.0889056 0)
(12.4035 -0.0761483 0)
(10.0191 -0.179539 0)
(10.29 -0.345921 0)
(10.7566 -0.294405 0)
(11.1017 -0.199247 0)
(11.393 -0.123433 0)
(11.5413 -0.109691 0)
(11.6778 -0.10998 0)
(11.7542 -0.110219 0)
(11.8583 -0.0938286 0)
(11.9299 -0.0882171 0)
(12.0262 -0.071655 0)
(12.0958 -0.0724231 0)
(12.1832 -0.0619572 0)
(12.2475 -0.0708463 0)
(12.3239 -0.0663142 0)
(12.381 -0.0822791 0)
(12.444 -0.0845981 0)
(12.4867 -0.107189 0)
(12.5131 -0.111121 0)
(12.4508 -0.104309 0)
(10.0552 -0.255378 0)
(10.3141 -0.449345 0)
(10.8939 -0.378881 0)
(11.1746 -0.244103 0)
(11.5226 -0.163055 0)
(11.5969 -0.148133 0)
(11.7954 -0.142703 0)
(11.8106 -0.140721 0)
(11.9724 -0.119336 0)
(11.9803 -0.113639 0)
(12.1249 -0.0912328 0)
(12.1294 -0.0949965 0)
(12.2561 -0.0776144 0)
(12.2549 -0.0924265 0)
(12.3597 -0.0788595 0)
(12.3509 -0.104012 0)
(12.4279 -0.0958371 0)
(12.405 -0.133353 0)
(12.4296 -0.127257 0)
(12.3161 -0.142078 0)
(10.0508 -0.349538 0)
(10.3906 -0.560938 0)
(11.0478 -0.46186 0)
(11.2921 -0.290124 0)
(11.6542 -0.210543 0)
(11.657 -0.188579 0)
(11.8761 -0.178792 0)
(11.8018 -0.166682 0)
(11.9766 -0.145109 0)
(11.8706 -0.131256 0)
(12.0228 -0.110242 0)
(11.8977 -0.107525 0)
(12.0302 -0.091289 0)
(11.89 -0.100858 0)
(11.9984 -0.0865742 0)
(11.8453 -0.108992 0)
(11.9191 -0.0972537 0)
(11.7509 -0.138681 0)
(11.757 -0.127301 0)
(11.5239 -0.16375 0)
(10.0041 -0.458138 0)
(10.5572 -0.700398 0)
(11.1696 -0.544264 0)
(11.3622 -0.349611 0)
(11.5575 -0.261612 0)
(11.4425 -0.224763 0)
(11.4935 -0.199004 0)
(11.2798 -0.173621 0)
(11.3034 -0.145735 0)
(11.057 -0.124662 0)
(11.0929 -0.102794 0)
(10.8376 -0.0944718 0)
(10.8927 -0.0793181 0)
(10.6307 -0.0833888 0)
(10.6966 -0.0704038 0)
(10.4243 -0.0882772 0)
(10.4828 -0.0752792 0)
(10.1917 -0.116814 0)
(10.1971 -0.0978221 0)
(9.85762 -0.160412 0)
(10.0586 -0.63144 0)
(10.6529 -0.85826 0)
(10.8682 -0.598998 0)
(10.688 -0.37098 0)
(10.4616 -0.255154 0)
(10.0823 -0.194176 0)
(9.84976 -0.152178 0)
(9.4921 -0.120422 0)
(9.34009 -0.0930843 0)
(9.03218 -0.0747051 0)
(8.96587 -0.058348 0)
(8.6951 -0.0523916 0)
(8.69076 -0.043624 0)
(8.43167 -0.0462052 0)
(8.46215 -0.0409548 0)
(8.19382 -0.0508895 0)
(8.23276 -0.0490228 0)
(7.93416 -0.0706656 0)
(7.9355 -0.0723518 0)
(7.58454 -0.0902742 0)
(10.0791 -0.836462 0)
(9.65742 -0.863851 0)
(8.87971 -0.504959 0)
(8.09403 -0.260452 0)
(7.50919 -0.137793 0)
(7.02143 -0.0812126 0)
(6.72189 -0.053453 0)
(6.41702 -0.039739 0)
(6.2632 -0.0292809 0)
(6.04329 -0.023987 0)
(5.97681 -0.0183723 0)
(5.79518 -0.0182832 0)
(5.77827 -0.0152413 0)
(5.60286 -0.018692 0)
(5.60896 -0.0164207 0)
(5.42001 -0.023238 0)
(5.42883 -0.0224859 0)
(5.20435 -0.0332529 0)
(5.19244 -0.0391807 0)
(4.89182 -0.0212296 0)
(8.09232 -0.387139 0)
(5.46139 -0.242038 0)
(3.93028 -0.0432572 0)
(3.17821 0.0151971 0)
(2.82322 0.0180305 0)
(2.62065 0.0110517 0)
(2.51031 0.00559898 0)
(2.40508 0.00223559 0)
(2.35037 0.00149039 0)
(2.27617 0.000384565 0)
(2.25183 0.000714291 0)
(2.19075 -0.000295832 0)
(2.18066 0.000183245 0)
(2.1176 -0.00114175 0)
(2.1108 -0.000354293 0)
(2.03757 -0.00233781 0)
(2.02466 -0.00119673 0)
(1.93197 -0.00391402 0)
(1.89345 -0.00451637 0)
(1.73796 0.0116421 0)
(2.2402 -0.092669 0)
(2.32127 -0.0045029 0)
(2.58994 -0.0029316 0)
(2.72513 -0.0231372 0)
(2.97376 -0.0482414 0)
(3.0571 -0.0551634 0)
(3.25631 -0.061923 0)
(3.2886 -0.0554071 0)
(3.44857 -0.0622469 0)
(3.45801 -0.0650487 0)
(3.61158 -0.0763352 0)
(3.61297 -0.0803542 0)
(3.77006 -0.0934448 0)
(3.76972 -0.0976918 0)
(3.92692 -0.110943 0)
(3.92562 -0.11603 0)
(4.08838 -0.128791 0)
(4.08931 -0.133635 0)
(4.26875 -0.146006 0)
(4.27657 -0.149033 0)
(4.46451 -0.166149 0)
(4.46913 -0.176304 0)
(4.65551 -0.198105 0)
(4.65005 -0.210998 0)
(4.83158 -0.234479 0)
(4.81361 -0.247013 0)
(4.99113 -0.26827 0)
(4.96355 -0.275426 0)
(5.14284 -0.291107 0)
(5.11672 -0.295656 0)
(5.30656 -0.314692 0)
(5.29141 -0.324678 0)
(5.49187 -0.350329 0)
(5.48157 -0.364874 0)
(5.68135 -0.392445 0)
(5.66658 -0.406761 0)
(5.86161 -0.433074 0)
(5.84099 -0.444499 0)
(6.03339 -0.470562 0)
(6.00706 -0.481415 0)
(6.19926 -0.507879 0)
(6.16418 -0.51908 0)
(6.35822 -0.54799 0)
(6.31117 -0.561019 0)
(6.50739 -0.591136 0)
(6.44741 -0.603883 0)
(6.64708 -0.633929 0)
(6.58026 -0.64311 0)
(6.7823 -0.671606 0)
(6.7167 -0.675114 0)
(6.91757 -0.700675 0)
(6.85963 -0.698066 0)
(7.05955 -0.721361 0)
(7.01027 -0.717031 0)
(7.21166 -0.742689 0)
(7.1649 -0.741786 0)
(7.37092 -0.77236 0)
(7.3161 -0.774525 0)
(7.52518 -0.806306 0)
(7.45185 -0.806786 0)
(7.66594 -0.837445 0)
(7.58001 -0.835235 0)
(7.80158 -0.865864 0)
(7.71759 -0.862096 0)
(7.94278 -0.893197 0)
(7.86818 -0.890151 0)
(8.08358 -0.922201 0)
(8.00898 -0.921357 0)
(8.20914 -0.950052 0)
(8.13121 -0.949988 0)
(8.32272 -0.981915 0)
(8.24417 -0.980556 0)
(8.42071 -1.0126 0)
(8.34628 -1.00861 0)
(8.5158 -1.04195 0)
(8.45056 -1.03663 0)
(8.61657 -1.0689 0)
(8.56182 -1.06356 0)
(8.73164 -1.09561 0)
(8.68003 -1.0857 0)
(8.86402 -1.1153 0)
(8.80195 -1.09776 0)
(9.00381 -1.11876 0)
(8.91945 -1.09916 0)
(9.13683 -1.11584 0)
(9.04041 -1.09258 0)
(9.24629 -1.11597 0)
(9.16716 -1.09266 0)
(9.33671 -1.12075 0)
(9.27777 -1.09846 0)
(9.41005 -1.1238 0)
(9.35839 -1.09745 0)
(9.45466 -1.11556 0)
(9.39656 -1.08661 0)
(9.46978 -1.10043 0)
(9.40701 -1.06545 0)
(9.46234 -1.07372 0)
(9.39448 -1.03459 0)
(9.44015 -1.04077 0)
(9.38422 -1.0033 0)
(9.42882 -1.01064 0)
(9.39058 -0.971616 0)
(9.44459 -0.984648 0)
(9.42083 -0.940558 0)
(9.47944 -0.946711 0)
(9.45341 -0.890092 0)
(9.5097 -0.900656 0)
(9.46033 -0.84313 0)
(9.51782 -0.860019 0)
(9.44088 -0.795375 0)
(9.49597 -0.816721 0)
(9.39249 -0.746636 0)
(9.42463 -0.76573 0)
(9.30919 -0.689051 0)
(9.32483 -0.713438 0)
(9.23404 -0.635192 0)
(9.24177 -0.662438 0)
(9.17898 -0.581821 0)
(9.16641 -0.607911 0)
(9.11101 -0.52158 0)
(9.08902 -0.545669 0)
(9.04335 -0.45955 0)
(9.02801 -0.489589 0)
(8.98739 -0.403528 0)
(8.98107 -0.441922 0)
(8.92943 -0.358803 0)
(8.9501 -0.397599 0)
(8.86465 -0.308232 0)
(8.91863 -0.339656 0)
(8.7999 -0.244149 0)
(8.87732 -0.269754 0)
(8.74254 -0.174702 0)
(8.82394 -0.204545 0)
(8.6955 -0.11273 0)
(8.77343 -0.152881 0)
(8.65403 -0.0610115 0)
(8.72498 -0.102068 0)
(8.6122 -0.00744232 0)
(8.68328 -0.0460886 0)
(8.5712 0.0469301 0)
(8.6408 0.00441873 0)
(8.53194 0.0936967 0)
(8.5887 0.0621645 0)
(8.49167 0.144199 0)
(8.54393 0.10939 0)
(8.46001 0.18625 0)
(8.48828 0.165548 0)
(8.42495 0.244461 0)
(8.42715 0.219626 0)
(8.39947 0.296122 0)
(8.36262 0.265927 0)
(8.37595 0.348713 0)
(8.31266 0.329626 0)
(8.35639 0.411755 0)
(8.27131 0.391799 0)
(8.34468 0.485397 0)
(8.24793 0.473185 0)
(8.32033 0.55975 0)
(8.23835 0.555359 0)
(8.30954 0.638468 0)
(8.24 0.612466 0)
(8.29671 0.698487 0)
(8.24524 0.664445 0)
(8.26087 0.758068 0)
(8.23808 0.719562 0)
(8.19734 0.814911 0)
(8.23687 0.77105 0)
(8.1253 0.867556 0)
(8.21097 0.821791 0)
(8.03129 0.927199 0)
(8.16131 0.866475 0)
(7.90341 0.987711 0)
(8.08559 0.916349 0)
(7.74318 1.06186 0)
(8.0076 0.966833 0)
(7.59189 1.16025 0)
(7.94457 1.03187 0)
(7.44484 1.26889 0)
(7.89368 1.11008 0)
(7.32811 1.40837 0)
(7.82552 1.20481 0)
(7.22038 1.55542 0)
(7.73153 1.31121 0)
(7.10595 1.70802 0)
(7.60138 1.44609 0)
(6.99153 1.87224 0)
(7.43944 1.62671 0)
(6.84719 2.05894 0)
(7.26613 1.86689 0)
(6.66512 2.28752 0)
(7.09158 2.17019 0)
(6.43239 2.58389 0)
(6.85909 2.55263 0)
(6.16661 3.01493 0)
(6.52341 3.04441 0)
(5.89886 3.73758 0)
(6.10448 3.78961 0)
(5.30955 4.89258 0)
(6.27694 5.46848 0)
(4.01657 8.39912 0)
(5.29042 -0.0613078 0)
(5.22608 -0.0272707 0)
(5.34001 -0.0437167 0)
(5.34725 -0.0784413 0)
(5.53325 -0.114667 0)
(5.55111 -0.125446 0)
(5.71698 -0.130514 0)
(5.69237 -0.121875 0)
(5.82639 -0.123247 0)
(5.77562 -0.121699 0)
(5.90808 -0.132837 0)
(5.85523 -0.137957 0)
(6.0008 -0.152963 0)
(5.95214 -0.158548 0)
(6.10995 -0.172656 0)
(6.06232 -0.177398 0)
(6.23027 -0.191446 0)
(6.18149 -0.195694 0)
(6.35821 -0.211319 0)
(6.30959 -0.216477 0)
(6.49368 -0.234968 0)
(6.44304 -0.244113 0)
(6.62943 -0.265844 0)
(6.5716 -0.276328 0)
(6.7592 -0.298896 0)
(6.69336 -0.308501 0)
(6.88409 -0.329331 0)
(6.81226 -0.335887 0)
(7.00823 -0.3553 0)
(6.93354 -0.361327 0)
(7.1383 -0.383372 0)
(7.06367 -0.392669 0)
(7.27717 -0.419898 0)
(7.19978 -0.431876 0)
(7.41619 -0.461068 0)
(7.33136 -0.471138 0)
(7.54665 -0.499154 0)
(7.45338 -0.50605 0)
(7.66735 -0.533596 0)
(7.5665 -0.539593 0)
(7.78147 -0.568215 0)
(7.67475 -0.574598 0)
(7.89239 -0.605064 0)
(7.78145 -0.612263 0)
(8.00146 -0.644251 0)
(7.8879 -0.651065 0)
(8.10785 -0.683949 0)
(7.99359 -0.689203 0)
(8.21099 -0.721301 0)
(8.0965 -0.723287 0)
(8.31188 -0.752222 0)
(8.19523 -0.749759 0)
(8.41224 -0.77621 0)
(8.2905 -0.771143 0)
(8.51322 -0.798553 0)
(8.38364 -0.794258 0)
(8.61429 -0.824889 0)
(8.47544 -0.823544 0)
(8.71362 -0.856817 0)
(8.56662 -0.85638 0)
(8.80924 -0.889872 0)
(8.65665 -0.888188 0)
(8.90055 -0.920901 0)
(8.74662 -0.916837 0)
(8.98719 -0.948604 0)
(8.83905 -0.941998 0)
(9.06971 -0.971612 0)
(8.9312 -0.965429 0)
(9.1522 -0.996755 0)
(9.0214 -0.994269 0)
(9.23322 -1.02452 0)
(9.10294 -1.01926 0)
(9.30906 -1.05004 0)
(9.17897 -1.0449 0)
(9.38016 -1.08007 0)
(9.25407 -1.0725 0)
(9.45173 -1.10999 0)
(9.33071 -1.10026 0)
(9.52457 -1.13762 0)
(9.40404 -1.12519 0)
(9.60231 -1.15867 0)
(9.47551 -1.13738 0)
(9.67838 -1.16603 0)
(9.55085 -1.136 0)
(9.74206 -1.15967 0)
(9.6276 -1.12749 0)
(9.79408 -1.15388 0)
(9.70037 -1.1227 0)
(9.83129 -1.15048 0)
(9.75454 -1.12164 0)
(9.8549 -1.14331 0)
(9.78385 -1.10825 0)
(9.85239 -1.12374 0)
(9.77896 -1.08575 0)
(9.82225 -1.09632 0)
(9.74599 -1.05407 0)
(9.77606 -1.06189 0)
(9.69982 -1.02031 0)
(9.736 -1.03145 0)
(9.66429 -0.994819 0)
(9.71307 -1.01258 0)
(9.64896 -0.974623 0)
(9.714 -0.998281 0)
(9.64145 -0.947709 0)
(9.72195 -0.955638 0)
(9.63168 -0.894259 0)
(9.72074 -0.900042 0)
(9.6109 -0.837057 0)
(9.69218 -0.851261 0)
(9.56578 -0.780755 0)
(9.62751 -0.789991 0)
(9.48487 -0.707973 0)
(9.52375 -0.719414 0)
(9.3795 -0.645752 0)
(9.41827 -0.6718 0)
(9.29122 -0.604028 0)
(9.32565 -0.6311 0)
(9.21449 -0.553722 0)
(9.24414 -0.573765 0)
(9.1341 -0.494252 0)
(9.17443 -0.515757 0)
(9.05578 -0.438424 0)
(9.12232 -0.466249 0)
(8.99086 -0.383536 0)
(9.08546 -0.42328 0)
(8.9241 -0.332758 0)
(9.05127 -0.379962 0)
(8.84939 -0.278635 0)
(9.0069 -0.317128 0)
(8.76938 -0.210041 0)
(8.94879 -0.251246 0)
(8.69092 -0.143411 0)
(8.88652 -0.189582 0)
(8.62282 -0.0862092 0)
(8.82683 -0.135316 0)
(8.5487 -0.0343924 0)
(8.76587 -0.085262 0)
(8.48392 0.0104132 0)
(8.71197 -0.03245 0)
(8.43479 0.0579469 0)
(8.67386 0.0187548 0)
(8.38753 0.110958 0)
(8.62884 0.0788854 0)
(8.34131 0.166934 0)
(8.59133 0.12198 0)
(8.29758 0.21711 0)
(8.54519 0.177963 0)
(8.26657 0.270775 0)
(8.50918 0.227755 0)
(8.25558 0.315339 0)
(8.46893 0.271795 0)
(8.24805 0.364092 0)
(8.42628 0.323411 0)
(8.24475 0.424636 0)
(8.39666 0.383795 0)
(8.23623 0.496329 0)
(8.39085 0.457836 0)
(8.22724 0.57598 0)
(8.40798 0.530282 0)
(8.23147 0.656816 0)
(8.43949 0.583226 0)
(8.22309 0.726791 0)
(8.46038 0.644767 0)
(8.20174 0.789499 0)
(8.47376 0.699298 0)
(8.18596 0.84323 0)
(8.47668 0.741615 0)
(8.16012 0.922043 0)
(8.44244 0.795028 0)
(8.10288 1.00489 0)
(8.40813 0.842072 0)
(8.0084 1.0867 0)
(8.36502 0.893694 0)
(7.8813 1.16836 0)
(8.30632 0.935212 0)
(7.75721 1.25538 0)
(8.26494 0.988289 0)
(7.64732 1.36913 0)
(8.22884 1.06289 0)
(7.55439 1.50304 0)
(8.19576 1.17222 0)
(7.46629 1.64277 0)
(8.14066 1.30668 0)
(7.3643 1.78058 0)
(8.06748 1.46764 0)
(7.24422 1.93395 0)
(7.99044 1.66191 0)
(7.10128 2.12997 0)
(7.88871 1.89252 0)
(6.96165 2.40265 0)
(7.74455 2.17145 0)
(6.85634 2.78075 0)
(7.53539 2.51944 0)
(6.73406 3.29731 0)
(7.29522 3.02103 0)
(6.47958 4.01673 0)
(7.35594 3.88117 0)
(5.86255 5.28201 0)
(8.34718 4.76187 0)
(6.38651 8.88288 0)
(7.94639 -0.0921925 0)
(7.86027 -0.0935721 0)
(7.97415 -0.11648 0)
(7.94075 -0.132361 0)
(8.11933 -0.148741 0)
(8.0953 -0.145248 0)
(8.25042 -0.14559 0)
(8.17757 -0.134961 0)
(8.2999 -0.138007 0)
(8.20106 -0.135993 0)
(8.325 -0.149959 0)
(8.22823 -0.156217 0)
(8.36855 -0.175651 0)
(8.27794 -0.183518 0)
(8.43243 -0.202981 0)
(8.34399 -0.209074 0)
(8.50838 -0.227375 0)
(8.41815 -0.231857 0)
(8.58819 -0.250265 0)
(8.49456 -0.25527 0)
(8.66893 -0.275896 0)
(8.57201 -0.283268 0)
(8.7501 -0.306328 0)
(8.64897 -0.314712 0)
(8.83075 -0.338489 0)
(8.72566 -0.346101 0)
(8.91184 -0.368902 0)
(8.80344 -0.374692 0)
(8.99426 -0.396786 0)
(8.88139 -0.402171 0)
(9.07692 -0.426155 0)
(8.95868 -0.433816 0)
(9.15886 -0.461552 0)
(9.03286 -0.47126 0)
(9.23607 -0.500783 0)
(9.1004 -0.509331 0)
(9.3066 -0.537846 0)
(9.16277 -0.543346 0)
(9.37245 -0.57087 0)
(9.22354 -0.574354 0)
(9.43664 -0.602887 0)
(9.28762 -0.606273 0)
(9.50221 -0.637616 0)
(9.35595 -0.641903 0)
(9.56865 -0.675826 0)
(9.4252 -0.680514 0)
(9.63315 -0.715332 0)
(9.48925 -0.718906 0)
(9.69242 -0.752308 0)
(9.54364 -0.752738 0)
(9.74585 -0.782907 0)
(9.5885 -0.779155 0)
(9.79473 -0.806959 0)
(9.62721 -0.800236 0)
(9.84102 -0.828832 0)
(9.66561 -0.822109 0)
(9.8872 -0.855065 0)
(9.70939 -0.850523 0)
(9.9339 -0.887791 0)
(9.75826 -0.883541 0)
(9.97632 -0.919977 0)
(9.80378 -0.913272 0)
(10.0094 -0.946384 0)
(9.8387 -0.938096 0)
(10.0321 -0.96852 0)
(9.8628 -0.959292 0)
(10.0509 -0.990652 0)
(9.88769 -0.984434 0)
(10.0785 -1.02022 0)
(9.91739 -1.01534 0)
(10.1067 -1.05012 0)
(9.94451 -1.04191 0)
(10.1352 -1.07428 0)
(9.96877 -1.06684 0)
(10.1622 -1.10214 0)
(9.98798 -1.09302 0)
(10.1821 -1.13036 0)
(10.004 -1.11782 0)
(10.1986 -1.15817 0)
(10.0233 -1.14288 0)
(10.2164 -1.17948 0)
(10.0462 -1.15516 0)
(10.2347 -1.18647 0)
(10.0733 -1.14954 0)
(10.2452 -1.17634 0)
(10.1018 -1.13872 0)
(10.247 -1.16291 0)
(10.1162 -1.12694 0)
(10.2356 -1.15326 0)
(10.1148 -1.11916 0)
(10.2077 -1.13719 0)
(10.0929 -1.09614 0)
(10.1544 -1.11024 0)
(10.0461 -1.06564 0)
(10.0817 -1.07541 0)
(9.98486 -1.03012 0)
(9.99994 -1.04208 0)
(9.9205 -1.00131 0)
(9.94052 -1.02006 0)
(9.87259 -0.982916 0)
(9.90337 -1.0097 0)
(9.83753 -0.968962 0)
(9.87261 -0.997695 0)
(9.79366 -0.938973 0)
(9.83864 -0.952409 0)
(9.75009 -0.882842 0)
(9.79735 -0.894258 0)
(9.70432 -0.817092 0)
(9.73197 -0.828422 0)
(9.63111 -0.741062 0)
(9.62307 -0.748366 0)
(9.52587 -0.655386 0)
(9.49729 -0.673743 0)
(9.43402 -0.601438 0)
(9.39529 -0.632239 0)
(9.34383 -0.560418 0)
(9.28341 -0.589843 0)
(9.24025 -0.51241 0)
(9.17979 -0.539891 0)
(9.14876 -0.457909 0)
(9.10225 -0.490984 0)
(9.07144 -0.40523 0)
(9.04292 -0.449328 0)
(8.99988 -0.354889 0)
(8.99028 -0.406264 0)
(8.92681 -0.299136 0)
(8.93144 -0.358577 0)
(8.84317 -0.23742 0)
(8.85598 -0.295752 0)
(8.75532 -0.161769 0)
(8.77261 -0.228617 0)
(8.6566 -0.0916563 0)
(8.69962 -0.170651 0)
(8.5652 -0.034973 0)
(8.6303 -0.113336 0)
(8.47344 0.0160714 0)
(8.56256 -0.067067 0)
(8.39775 0.0495833 0)
(8.50409 -0.0240811 0)
(8.34269 0.0890882 0)
(8.4604 0.0197356 0)
(8.30372 0.149248 0)
(8.40727 0.0790645 0)
(8.27433 0.203069 0)
(8.36992 0.121465 0)
(8.2485 0.253625 0)
(8.33743 0.178731 0)
(8.23494 0.30309 0)
(8.32293 0.222237 0)
(8.23568 0.346726 0)
(8.30475 0.265017 0)
(8.25681 0.40209 0)
(8.28238 0.307804 0)
(8.26236 0.458646 0)
(8.27818 0.368213 0)
(8.26372 0.536215 0)
(8.27499 0.420626 0)
(8.27426 0.607606 0)
(8.29597 0.479913 0)
(8.28134 0.681963 0)
(8.33083 0.548274 0)
(8.28559 0.759767 0)
(8.35719 0.609326 0)
(8.29231 0.825108 0)
(8.38372 0.657621 0)
(8.29436 0.893096 0)
(8.3877 0.70595 0)
(8.27394 0.986873 0)
(8.39031 0.765833 0)
(8.22638 1.07525 0)
(8.40893 0.82459 0)
(8.1358 1.16326 0)
(8.42943 0.885415 0)
(8.0207 1.25225 0)
(8.46096 0.935744 0)
(7.88453 1.33975 0)
(8.48215 0.977998 0)
(7.75432 1.44228 0)
(8.50084 1.04707 0)
(7.64279 1.56079 0)
(8.50866 1.15337 0)
(7.55316 1.70864 0)
(8.48688 1.28828 0)
(7.45594 1.8734 0)
(8.42416 1.43416 0)
(7.36721 2.06086 0)
(8.334 1.60348 0)
(7.30907 2.29488 0)
(8.20344 1.80812 0)
(7.27496 2.5845 0)
(8.05952 2.08131 0)
(7.2375 2.95966 0)
(8.00296 2.46054 0)
(7.1159 3.43836 0)
(8.17372 2.97784 0)
(6.81687 4.19925 0)
(8.78158 3.50705 0)
(6.58062 5.80511 0)
(9.57985 3.59539 0)
(8.01721 8.14212 0)
(10.1474 -0.126123 0)
(10.0637 -0.230094 0)
(10.2054 -0.278459 0)
(10.1621 -0.260956 0)
(10.3317 -0.234598 0)
(10.2733 -0.193472 0)
(10.4116 -0.174887 0)
(10.309 -0.152876 0)
(10.4234 -0.155071 0)
(10.3033 -0.15001 0)
(10.4218 -0.16624 0)
(10.3047 -0.170703 0)
(10.4366 -0.193658 0)
(10.3243 -0.200629 0)
(10.4667 -0.224298 0)
(10.355 -0.229391 0)
(10.5038 -0.251352 0)
(10.3893 -0.254011 0)
(10.5422 -0.275166 0)
(10.4245 -0.277351 0)
(10.5818 -0.299886 0)
(10.4608 -0.303436 0)
(10.622 -0.328427 0)
(10.4975 -0.333145 0)
(10.6616 -0.359581 0)
(10.5336 -0.364022 0)
(10.6998 -0.390291 0)
(10.5685 -0.393251 0)
(10.7362 -0.419025 0)
(10.6018 -0.421301 0)
(10.7699 -0.44794 0)
(10.6321 -0.451222 0)
(10.7998 -0.479984 0)
(10.6579 -0.485026 0)
(10.8251 -0.515364 0)
(10.6784 -0.520588 0)
(10.8462 -0.550774 0)
(10.6958 -0.555117 0)
(10.8668 -0.584967 0)
(10.7146 -0.588313 0)
(10.8899 -0.618759 0)
(10.7373 -0.622482 0)
(10.9162 -0.654999 0)
(10.7623 -0.659408 0)
(10.9422 -0.693678 0)
(10.7848 -0.697729 0)
(10.9637 -0.7321 0)
(10.8002 -0.733731 0)
(10.9781 -0.766346 0)
(10.8075 -0.763724 0)
(10.9854 -0.793698 0)
(10.808 -0.786669 0)
(10.9869 -0.814635 0)
(10.8049 -0.805363 0)
(10.9862 -0.834694 0)
(10.8044 -0.82677 0)
(10.9872 -0.860617 0)
(10.8079 -0.854508 0)
(10.9871 -0.890873 0)
(10.8075 -0.883521 0)
(10.9773 -0.919001 0)
(10.7967 -0.908486 0)
(10.9541 -0.941875 0)
(10.774 -0.928617 0)
(10.9183 -0.960012 0)
(10.7424 -0.948571 0)
(10.8809 -0.985204 0)
(10.7121 -0.980178 0)
(10.85 -1.01735 0)
(10.6818 -1.01114 0)
(10.8192 -1.04783 0)
(10.6445 -1.03813 0)
(10.7854 -1.07185 0)
(10.6075 -1.06271 0)
(10.7493 -1.09697 0)
(10.5616 -1.08722 0)
(10.7068 -1.12197 0)
(10.5175 -1.11306 0)
(10.6707 -1.1528 0)
(10.4893 -1.14045 0)
(10.6409 -1.1744 0)
(10.4706 -1.15456 0)
(10.6102 -1.17901 0)
(10.4509 -1.14731 0)
(10.5753 -1.16926 0)
(10.4276 -1.13248 0)
(10.5302 -1.15092 0)
(10.3933 -1.12056 0)
(10.4783 -1.13963 0)
(10.3524 -1.10476 0)
(10.4092 -1.11493 0)
(10.2915 -1.06953 0)
(10.3203 -1.07808 0)
(10.2149 -1.03068 0)
(10.2265 -1.04095 0)
(10.1362 -0.993785 0)
(10.1336 -1.01312 0)
(10.0632 -0.973473 0)
(10.0607 -1.00093 0)
(9.99773 -0.960626 0)
(10.001 -0.99239 0)
(9.93225 -0.945601 0)
(9.93683 -0.980124 0)
(9.86489 -0.915613 0)
(9.87382 -0.939173 0)
(9.79777 -0.860512 0)
(9.79951 -0.877526 0)
(9.71804 -0.783042 0)
(9.69884 -0.795316 0)
(9.61211 -0.691291 0)
(9.56132 -0.698979 0)
(9.48832 -0.606016 0)
(9.43675 -0.64081 0)
(9.39822 -0.564291 0)
(9.32056 -0.596299 0)
(9.29119 -0.513335 0)
(9.19469 -0.546625 0)
(9.16626 -0.461324 0)
(9.06814 -0.505885 0)
(9.05721 -0.411357 0)
(8.97261 -0.469625 0)
(8.96698 -0.365436 0)
(8.90438 -0.429763 0)
(8.87307 -0.31824 0)
(8.83945 -0.383921 0)
(8.77597 -0.265731 0)
(8.75999 -0.329807 0)
(8.67593 -0.195779 0)
(8.66972 -0.262466 0)
(8.57547 -0.11944 0)
(8.57909 -0.194119 0)
(8.47274 -0.0518524 0)
(8.49823 -0.139127 0)
(8.37623 0.00558661 0)
(8.42592 -0.0841607 0)
(8.28591 0.0535624 0)
(8.36525 -0.0427238 0)
(8.20881 0.0822008 0)
(8.30975 -0.00816155 0)
(8.14847 0.118527 0)
(8.26492 0.0301288 0)
(8.09871 0.17824 0)
(8.22893 0.0827529 0)
(8.07096 0.222365 0)
(8.21821 0.11906 0)
(8.05479 0.272744 0)
(8.20961 0.168071 0)
(8.05731 0.313959 0)
(8.2256 0.202692 0)
(8.06575 0.351766 0)
(8.25213 0.238183 0)
(8.08482 0.408143 0)
(8.2867 0.291097 0)
(8.07826 0.46399 0)
(8.31964 0.350693 0)
(8.09187 0.542842 0)
(8.33296 0.406312 0)
(8.10451 0.625063 0)
(8.36341 0.472832 0)
(8.09 0.681111 0)
(8.40661 0.521549 0)
(8.10607 0.762175 0)
(8.45522 0.564954 0)
(8.09883 0.831652 0)
(8.53039 0.614733 0)
(8.07379 0.919004 0)
(8.57767 0.67318 0)
(8.02631 1.02217 0)
(8.64058 0.726068 0)
(7.97354 1.11535 0)
(8.71364 0.783067 0)
(7.91384 1.21575 0)
(8.76198 0.835997 0)
(7.85319 1.3006 0)
(8.8102 0.889015 0)
(7.78377 1.39152 0)
(8.8181 0.949634 0)
(7.72072 1.49656 0)
(8.79302 1.01319 0)
(7.67682 1.62779 0)
(8.75171 1.1035 0)
(7.66166 1.80417 0)
(8.69627 1.22653 0)
(7.65914 1.99364 0)
(8.61084 1.36966 0)
(7.6549 2.18916 0)
(8.53239 1.54166 0)
(7.63173 2.41497 0)
(8.51397 1.76705 0)
(7.55513 2.69818 0)
(8.58564 2.03673 0)
(7.41911 3.08824 0)
(8.81095 2.35766 0)
(7.23384 3.65955 0)
(9.23566 2.63808 0)
(7.11215 4.60897 0)
(9.84897 2.74888 0)
(7.51038 6.03723 0)
(10.1505 2.96236 0)
(8.97271 7.12591 0)
(11.6162 -0.10897 0)
(11.5715 -0.242699 0)
(11.7653 -0.308536 0)
(11.7667 -0.289166 0)
(11.9142 -0.257503 0)
(11.8488 -0.203096 0)
(11.9456 -0.179409 0)
(11.8401 -0.151078 0)
(11.9222 -0.155673 0)
(11.809 -0.148922 0)
(11.8974 -0.169305 0)
(11.789 -0.17218 0)
(11.8883 -0.198758 0)
(11.7851 -0.203757 0)
(11.8927 -0.230835 0)
(11.7912 -0.233962 0)
(11.9034 -0.259195 0)
(11.8007 -0.259754 0)
(11.9158 -0.283797 0)
(11.8107 -0.28352 0)
(11.928 -0.308506 0)
(11.8193 -0.309269 0)
(11.938 -0.336499 0)
(11.8247 -0.338424 0)
(11.9438 -0.367266 0)
(11.8256 -0.3691 0)
(11.9455 -0.398128 0)
(11.8231 -0.398567 0)
(11.9442 -0.427272 0)
(11.8194 -0.426357 0)
(11.9417 -0.455323 0)
(11.8157 -0.454162 0)
(11.9383 -0.484806 0)
(11.812 -0.48451 0)
(11.9333 -0.516943 0)
(11.8073 -0.517354 0)
(11.9267 -0.551038 0)
(11.8015 -0.551802 0)
(11.9195 -0.586139 0)
(11.7949 -0.587218 0)
(11.9126 -0.622318 0)
(11.7875 -0.624104 0)
(11.9056 -0.659962 0)
(11.7778 -0.662013 0)
(11.8966 -0.698076 0)
(11.7638 -0.698865 0)
(11.8831 -0.733888 0)
(11.7442 -0.731699 0)
(11.8631 -0.764496 0)
(11.718 -0.757925 0)
(11.8347 -0.78823 0)
(11.6857 -0.777682 0)
(11.7998 -0.807423 0)
(11.652 -0.796226 0)
(11.7637 -0.828554 0)
(11.62 -0.818739 0)
(11.7261 -0.853349 0)
(11.5841 -0.84378 0)
(11.6805 -0.878326 0)
(11.5367 -0.868307 0)
(11.625 -0.902032 0)
(11.4766 -0.889791 0)
(11.5597 -0.920762 0)
(11.4047 -0.905194 0)
(11.4885 -0.936828 0)
(11.3306 -0.924854 0)
(11.4202 -0.962395 0)
(11.2556 -0.953311 0)
(11.344 -0.991932 0)
(11.1723 -0.980135 0)
(11.2606 -1.01746 0)
(11.0818 -1.00349 0)
(11.1741 -1.04126 0)
(10.9932 -1.02634 0)
(11.0845 -1.06378 0)
(10.9006 -1.05065 0)
(10.9945 -1.09235 0)
(10.8201 -1.08467 0)
(10.9232 -1.13044 0)
(10.7567 -1.11704 0)
(10.8577 -1.15526 0)
(10.6973 -1.13253 0)
(10.7878 -1.15765 0)
(10.6372 -1.12724 0)
(10.7187 -1.14749 0)
(10.5702 -1.11014 0)
(10.6481 -1.12946 0)
(10.5043 -1.09688 0)
(10.5721 -1.11475 0)
(10.4324 -1.06887 0)
(10.4791 -1.07822 0)
(10.3404 -1.02633 0)
(10.3817 -1.04183 0)
(10.2472 -0.987702 0)
(10.2888 -1.01012 0)
(10.1599 -0.953044 0)
(10.1979 -0.9889 0)
(10.0802 -0.933449 0)
(10.1071 -0.979745 0)
(10.0001 -0.922601 0)
(10.0234 -0.971416 0)
(9.92163 -0.906586 0)
(9.94242 -0.958531 0)
(9.84143 -0.875442 0)
(9.85131 -0.910323 0)
(9.74275 -0.813687 0)
(9.73468 -0.83905 0)
(9.62513 -0.72714 0)
(9.59185 -0.747704 0)
(9.48521 -0.623229 0)
(9.43018 -0.648521 0)
(9.36431 -0.553343 0)
(9.30196 -0.604282 0)
(9.24486 -0.504917 0)
(9.15755 -0.550875 0)
(9.11112 -0.443211 0)
(9.00846 -0.496915 0)
(8.96474 -0.386665 0)
(8.87347 -0.465712 0)
(8.83375 -0.34891 0)
(8.76476 -0.442644 0)
(8.71769 -0.311361 0)
(8.6751 -0.40232 0)
(8.60604 -0.262979 0)
(8.58583 -0.352986 0)
(8.4955 -0.209064 0)
(8.48014 -0.298579 0)
(8.39122 -0.140889 0)
(8.38051 -0.229106 0)
(8.29138 -0.0648096 0)
(8.29353 -0.159682 0)
(8.20106 -0.00579481 0)
(8.21093 -0.104653 0)
(8.115 0.0499745 0)
(8.14068 -0.0578378 0)
(8.03963 0.0941607 0)
(8.08642 -0.0213508 0)
(7.96429 0.126083 0)
(8.03282 0.0030973 0)
(7.89508 0.163111 0)
(7.9962 0.0361399 0)
(7.83524 0.209393 0)
(7.98808 0.0717339 0)
(7.81809 0.238973 0)
(7.98908 0.104503 0)
(7.80688 0.29354 0)
(7.9957 0.138561 0)
(7.81592 0.330383 0)
(8.03007 0.161156 0)
(7.83712 0.374405 0)
(8.08047 0.19744 0)
(7.84761 0.433121 0)