/*--------------------------------*- C++ -*----------------------------------*\
| =========                 |                                                 |
| \\      /  F ield         | OpenFOAM: The Open Source CFD Toolbox           |
|  \\    /   O peration     | Version:  2.4.0                                 |
|   \\  /    A nd           | Web:      www.OpenFOAM.org                      |
|    \\/     M anipulation  |                                                 |
\*---------------------------------------------------------------------------*/
FoamFile
{
    version     2.0;
    format      ascii;
    class       volScalarField;
    location    "0.62";
    object      pPrime2Mean;
}
// * * * * * * * * * * * * * * * * * * * * * * * * * * * * * * * * * * * * * //

dimensions      [0 4 -4 0 0 0 0];

internalField   nonuniform List<scalar> 
8800
(
1.04282e+06
1.01651e+06
988277
960287
932679
905471
878666
852262
826259
800655
775449
750636
726210
702158
678455
655058
631876
608730
585203
559982
1.04286e+06
1.01651e+06
988275
960286
932678
905471
878666
852262
826259
800655
775449
750637
726212
702162
678462
655071
631901
608783
585333
560409
1.04288e+06
1.01651e+06
988268
960281
932676
905470
878665
852262
826259
800656
775450
750639
726216
702169
678475
655095
631949
608885
585570
561239
1.0429e+06
1.01651e+06
988261
960276
932674
905469
878665
852261
826259
800656
775452
750642
726221
702179
678494
655131
632020
609030
585902
562205
1.04291e+06
1.01651e+06
988255
960272
932673
905469
878665
852261
826259
800657
775454
750646
726228
702192
678519
655177
632109
609210
586300
563205
1.04292e+06
1.01651e+06
988251
960268
932671
905469
878665
852261
826259
800657
775456
750650
726237
702208
678548
655232
632214
609418
586737
564181
1.04293e+06
1.01651e+06
988248
960264
932669
905468
878665
852261
826259
800659
775458
750655
726247
702226
678581
655294
632332
609645
587192
565108
1.04294e+06
1.01651e+06
988246
960262
932668
905468
878665
852261
826260
800660
775461
750661
726257
702245
678617
655361
632457
609884
587652
565974
1.04294e+06
1.01651e+06
988244
960260
932667
905468
878666
852262
826261
800662
775464
750667
726269
702266
678656
655432
632588
610126
588102
566770
1.04295e+06
1.01651e+06
988244
960260
932667
905469
878666
852262
826262
800663
775468
750673
726280
702288
678695
655504
632720
610367
588533
567496
1.04295e+06
1.01651e+06
988244
960260
932667
905469
878666
852263
826263
800665
775471
750680
726292
702309
678735
655576
632850
610600
588939
568150
1.04294e+06
1.01651e+06
988245
960261
932667
905469
878667
852264
826264
800667
775475
750686
726304
702331
678773
655646
632975
610820
589313
568734
1.04294e+06
1.01651e+06
988246
960262
932669
905469
878667
852264
826265
800670
775478
750693
726315
702351
678810
655712
633093
611025
589653
569249
1.04293e+06
1.01651e+06
988248
960265
932670
905470
878667
852265
826266
800672
775482
750699
726326
702370
678845
655773
633201
611210
589955
569696
1.04292e+06
1.01651e+06
988252
960268
932672
905470
878667
852266
826268
800674
775485
750704
726336
702388
678876
655828
633297
611373
590216
570078
1.04291e+06
1.01651e+06
988256
960273
932674
905471
878668
852267
826269
800676
775488
750709
726344
702403
678902
655876
633380
611511
590435
570394
1.0429e+06
1.01651e+06
988262
960277
932676
905472
878669
852268
826270
800678
775491
750713
726351
702415
678925
655915
633447
611624
590611
570647
1.04288e+06
1.01651e+06
988269
960283
932678
905473
878669
852269
826271
800679
775492
750716
726357
702425
678942
655945
633499
611709
590744
570835
1.04286e+06
1.01651e+06
988276
960287
932680
905474
878670
852269
826272
800680
775494
750718
726360
702431
678953
655966
633534
611767
590833
570959
1.04282e+06
1.01651e+06
988277
960288
932681
905474
878670
852269
826272
800680
775494
750719
726362
702435
678959
655976
633551
611796
590877
571020
537128
530974
526280
522221
518459
514878
511424
508067
504783
501558
498382
495245
492143
489069
486021
482995
479986
476992
474013
471046
468093
465152
462224
459308
456404
453510
450626
447754
444892
442041
439201
436373
433558
430754
427964
425185
422419
419665
416922
414191
411469
408756
406051
403355
400665
397983
395309
392642
389983
387332
384689
382054
379427
376807
374195
371592
368999
366416
363842
361279
358724
356178
353641
351113
348593
346084
343586
341098
338620
336152
333694
331244
328803
326370
323945
321529
319122
316723
314335
311958
309592
307239
304897
302566
300245
297933
295629
293334
291047
288768
286498
284235
281979
279729
277486
275250
273020
270797
268581
266373
264173
261983
259801
257631
255470
253321
251182
249054
246936
244828
242728
240638
238557
236485
234421
232366
230319
228281
226252
224231
222219
220217
218224
216242
214269
212307
210356
208415
206484
204562
202650
200746
198850
196961
195080
193206
191340
189481
187630
185786
183951
182124
180305
178495
176693
174899
173114
171337
169568
167809
166058
164318
162586
160864
159151
157447
155753
154069
152393
150728
149071
147425
145787
144161
142543
140936
139340
137754
136179
134615
133061
131518
129983
128461
126944
125443
123942
122460
120974
119508
118038
116585
115131
113689
112248
110815
109379
107950
106512
105077
103625
102165
100682
99176.6
97631.1
96041.2
94374.9
92603.2
90667.2
88351.6
541511
534955
529609
525006
520841
516948
513242
509674
506212
502833
499523
496269
493062
489897
486766
483665
480590
477537
474504
471490
468493
465514
462550
459601
456668
453748
450841
447947
445066
442198
439343
436501
433672
430857
428055
425267
422491
419728
416976
414236
411507
408787
406077
403375
400682
397996
395318
392649
389988
387335
384690
382054
379426
376807
374196
371594
369002
366419
363847
361284
358730
356186
353650
351124
348606
346099
343601
341114
338636
336168
333710
331260
328819
326387
323962
321547
319140
316743
314356
311980
309616
307263
304923
302593
300273
297962
295660
293365
291079
288802
286532
284268
282012
279762
277518
275281
273050
270827
268611
266403
264203
262012
259831
257659
255499
253348
251208
249078
246958
244847
242745
240652
238569
236494
234429
232372
230325
228286
226257
224237
222226
220225
218233
216252
214281
212321
210371
208432
206503
204583
202672
200769
198874
196986
195105
193230
191364
189504
187652
185809
183973
182146
180326
178515
176712
174917
173131
171352
169583
167822
166071
164330
162597
160874
159161
157456
155760
154074
152396
150728
149069
147419
145778
144147
142525
140912
139309
137717
136133
134560
132994
131441
129892
128357
126824
125306
123787
122286
120780
119290
117799
116318
114838
113365
111891
110422
108948
107475
105992
104503
102996
101470
99914.4
98321.5
96678.3
94960.4
93162.4
91168.5
89023.6
86501.3
544553
538048
532453
527523
523059
518908
514982
511223
507596
504072
500635
497268
493962
490706
487495
484322
481183
478072
474987
471926
468886
465868
462870
459890
456927
453981
451051
448137
445237
442352
439482
436626
433785
430958
428145
425347
422561
419789
417029
414281
411544
408818
406102
403395
400697
398008
395327
392655
389992
387337
384691
382055
379427
376807
374197
371597
369006
366424
363852
361291
358738
356195
353661
351136
348621
346115
343619
341132
338655
336188
333729
331280
328838
326406
323982
321567
319160
316764
314377
312002
309640
307289
304950
302621
300303
297993
295691
293398
291113
288836
286566
284303
282046
279795
277550
275313
273083
270859
268644
266436
264236
262046
259864
257692
255530
253379
251237
249104
246982
244868
242764
240668
238581
236504
234437
232379
230331
228292
226264
224244
222234
220234
218244
216264
214296
212338
210391
208454
206527
204608
202698
200796
198901
197012
195131
193256
191388
189528
187675
185831
183995
182167
180348
178536
176732
174936
173148
171368
169597
167836
166084
164343
162609
160886
159172
157466
155769
154081
152400
150729
149067
147414
145769
144134
142506
140889
139280
137680
136088
134506
132929
131364
129801
128253
126704
125169
123634
122111
120588
119073
117561
116053
114547
113043
111539
110033
108524
107008
105484
103943
102386
100797
99180.2
97503.3
95790.9
93954
92075.4
89954.5
87705.7
85203.4
546869
540536
534871
529760
525086
520733
516621
512696
508919
505263
501707
498234
494833
491492
488204
484962
481759
478592
475457
472350
469270
466214
463182
460171
457181
454210
451258
448323
445405
442503
439618
436749
433895
431057
428234
425425
422630
419849
417081
414326
411582
408849
406127
403415
400713
398020
395336
392661
389996
387340
384693
382056
379428
376810
374200
371601
369010
366430
363860
361299
358748
356206
353674
351151
348637
346133
343638
341152
338676
336209
333751
331301
328860
326427
324002
321587
319180
316784
314398
312025
309663
307314
304976
302649
300331
298022
295722
293430
291146
288870
286600
284337
282079
279828
277584
275346
273116
270893
268678
266471
264272
262081
259900
257727
255565
253411
251267
249132
247007
244890
242782
240683
238594
236514
234445
232386
230337
228299
226271
224252
222243
220245
218257
216279
214313
212358
210413
208478
206553
204636
202727
200825
198930
197041
195158
193281
191412
189551
187698
185852
184016
182187
180367
178555
176751
174954
173165
171384
169612
167850
166099
164356
162623
160899
159184
157476
155778
154087
152404
150730
149065
147408
145760
144120
142488
140865
139250
137643
136043
134451
132864
131287
129711
128147
126584
125031
123481
121937
120397
118860
117325
115792
114260
112726
111193
109651
108111
106551
104992
103398
101802
100146
98489.8
96728.4
94969
93041
91090.9
88936.2
86665.5
84241.3
548731
542572
536924
531727
526916
522410
518148
514081
510173
506397
502732
499161
495671
492250
488888
485580
482317
479096
475912
472762
469642
466550
463485
460445
457429
454434
451460
448505
445570
442652
439752
436870
434004
431155
428321
425503
422699
419909
417133
414370
411619
408880
406153
403436
400729
398033
395346
392670
390003
387345
384698
382060
379432
376814
374205
371606
369017
366438
363869
361309
358760
356219
353688
351167
348655
346152
343659
341174
338698
336231
333773
331323
328881
326447
324022
321605
319199
316802
314418
312045
309685
307336
305000
302674
300358
298050
295752
293461
291179
288903
286634
284370
282113
279862
277617
275380
273150
270927
268713
266506
264308
262118
259936
257763
255598
253443
251297
249159
247031
244911
242800
240697
238606
236524
234453
232393
230344
228305
226278
224260
222253
220256
218270
216295
214332
212379
210437
208504
206581
204665
202757
200855
198959
197069
195185
193306
191436
189572
187718
185871
184035
182205
180385
178572
176768
174970
173181
171399
169628
167865
166114
164370
162637
160911
159195
157485
155785
154092
152406
150729
149061
147400
145748
144103
142467
140839
139217
137604
135996
134395
132798
131208
129621
128041
126465
124895
123330
121766
120208
118648
117094
115533
113979
112413
110857
109277
107711
106107
104520
102872
101245
99529.2
97831.8
96011.5
94196.6
92230.5
90220.9
88080.3
85833.3
83480.2
550298
544289
538684
533451
528553
523936
519555
515369
511349
507467
503704
500043
496471
492974
489545
486174
482855
479583
476353
473160
470003
466877
463781
460712
457670
454652
451657
448684
445731
442798
439885
436989
434112
431251
428408
425580
422767
419969
417185
414415
411658
408913
406180
403458
400748
398048
395359
392680
390012
387353
384705
382067
379439
376821
374213
371615
369027
366449
363881
361322
358774
356235
353705
351185
348674
346172
343679
341196
338720
336253
333794
331342
328899
326464
324037
321621
319213
316817
314433
312062
309703
307355
305020
302695
300381
298075
295778
293489
291208
288934
286666
284402
282145
279894
277650
275412
273182
270959
268745
266540
264342
262152
259970
257796
255630
253472
251323
249183
247052
244929
242815
240709
238615
236532
234460
232399
230350
228311
226284
224267
222262
220267
218283
216310
214350
212399
210460
208530
206608
204694
202786
200884
198988
197095
195210
193329
191457
189592
187736
185888
184051
182220
180400
178587
176783
174984
173195
171413
169642
167879
166127
164381
162648
160920
159203
157491
155790
154092
152405
150724
149053
147387
145732
144082
142442
140808
139181
137560
135946
134334
132729
131125
129529
127933
126345
124758
123180
121595
120022
118437
116866
115276
113704
112106
110529
108915
107323
105683
104063
102378
100709
98956.9
97209.6
95360.1
93493.5
91519.8
89482.4
87361.1
85145.1
82846.3
551648
545761
540204
534960
530008
525312
520839
516557
512441
508468
504618
500877
497229
493663
490171
486742
483371
480050
476776
473544
470351
467192
464067
460972
457905
454865
451850
448858
445890
442942
440015
437107
434218
431347
428493
425656
422835
420029
417238
414461
411698
408947
406209
403484
400769
398067
395375
392694
390024
387364
384715
382077
379448
376831
374223
371626
369039
366462
363894
361337
358789
356251
353722
351203
348692
346191
343698
341215
338739
336271
333810
331358
328913
326476
324049
321631
319224
316828
314445
312074
309716
307370
305035
302712
300398
298094
295799
293512
291233
288961
286694
284432
282175
279924
277679
275440
273209
270987
268773
266568
264371
262181
259999
257823
255656
253496
251346
249203
247069
244942
242825
240717
238621
236537
234464
232403
230354
228316
226290
224273
222269
220276
218294
216324
214365
212417
210481
208552
206633
204719
202812
200910
199013
197119
195231
193349
191475
189608
187750
185901
184063
182232
180412
178599
176795
174995
173206
171423
169652
167887
166136
164387
162654
160924
159205
157491
155788
154087
152397
150713
149037
147368
145709
144054
142410
140769
139138
137510
135889
134267
132653
131038
129432
127823
126222
124621
123028
121426
119836
118231
116639
115028
113431
111812
110205
108571
106946
105282
103626
101916
100208
98431.7
96645.8
94779.7
92880.1
90906.7
88861.3
86752.1
84559.1
82301.5
552826
547036
541526
536284
531299
526547
522003
517644
513448
509396
505471
501657
497942
494313
490763
487281
483860
480496
477181
473912
470684
467495
464342
461221
458131
455070
452036
449027
446043
443081
440141
437221
434322
431441
428578
425732
422903
420090
417292
414508
411739
408984
406241
403511
400794
398088
395394
392711
390039
387378
384728
382089
379461
376843
374236
371639
369052
366475
363908
361351
358804
356266
353737
351218
348707
346206
343713
341228
338751
336282
333820
331366
328920
326483
324055
321637
319230
316834
314451
312081
309723
307378
305045
302723
300410
298107
295813
293528
291252
288982
286717
284456
282200
279948
277702
275462
273231
271008
268795
266589
264392
262202
260020
257843
255675
253514
251362
249217
247080
244950
242830
240721
238623
236538
234466
232405
230357
228319
226294
224279
222276
220283
218303
216334
214378
212432
210498
208570
206652
204739
202832
200929
199032
197137
195247
193363
191487
189618
187759
185909
184071
182240
180420
178608
176802
175003
173212
171428
169657
167891
166138
164387
162653
160922
159200
157485
155780
154075
152383
150695
149015
147342
145678
144020
142370
140724
139086
137454
135825
134196
132573
130951
129332
127712
126099
124486
122877
121262
119653
118033
116418
114790
113167
111531
109899
108246
106594
104911
103224
101494
99754.2
97960
96146.7
94272.9
92353.1
90378.5
88329.3
86226.3
84052.1
81828.1
553860
548148
542681
537447
532443
527650
523052
518631
514369
510250
506259
502381
498606
494921
491318
487787
484322
480916
477563
474260
471001
467783
464603
461459
458347
455266
452214
449189
446190
443215
440262
437331
434421
431531
428659
425806
422969
420149
417345
414556
411781
409021
406274
403541
400820
398111
395415
392730
390056
387394
384743
382103
379474
376856
374248
371651
369064
366487
363920
361363
358815
356277
353748
351228
348717
346214
343720
341234
338756
336286
333823
331368
328921
326483
324055
321637
319230
316835
314452
312081
309724
307379
305047
302726
300415
298114
295822
293538
291264
288996
286733
284473
282217
279965
277718
275477
273245
271021
268807
266602
264404
262214
260032
257855
255686
253523
251370
249222
247083
244951
242830
240719
238621
236536
234464
232404
230357
228321
226297
224283
222280
220288
218309
216340
214385
212441
210507
208581
206663
204750
202844
200941
199042
197147
195256
193371
191493
189623
187763
185913
184074
182243
180424
178611
176805
175005
173213
171427
169654
167887
166133
164381
162644
160912
159187
157472
155763
154058
152360
150672
148985
147311
145640
143979
142322
140672
139028
137395
135756
134123
132490
130862
129232
127604
125977
124356
122731
121105
119477
117845
116210
114566
112922
111268
109616
107951
106275
104577
102863
101116
99352.8
97546.2
95712.8
93833.4
91896
89916.4
87865.6
85768
83612.6
81417.1
554771
549121
543690
538468
533452
528631
523991
519520
515204
511028
506980
503048
499219
495484
491833
488258
484752
481308
477921
474585
471297
468053
464849
461682
458550
455451
452382
449342
446329
443341
440377
437436
434516
431617
428737
425876
423033
420207
417397
414603
411824
409059
406308
403571
400847
398136
395437
392750
390075
387411
384759
382117
379487
376868
374260
371661
369074
366496
363928
361370
358822
356283
353752
351231
348719
346215
343719
341232
338752
336281
333817
331362
328914
326476
324048
321630
319224
316829
314446
312076
309718
307374
305042
302722
300413
298113
295824
293542
291270
289004
286742
284482
282225
279972
277725
275483
273250
271026
268811
266605
264407
262217
260033
257856
255686
253523
251368
249219
247078
244946
242823
240713
238615
236530
234459
232401
230355
228321
226298
224285
222283
220291
218310
216342
214387
212443
210509
208584
206666
204753
202846
200943
199044
197148
195257
193372
191493
189624
187762
185912
184073
182241
180421
178607
176801
174999
173207
171418
169645
167876
166119
164368
162628
160897
159168
157456
155739
154035
152329
150646
148948
147278
145595
143937
142268
140620
138965
137336
135682
134051
132405
130773
129130
127499
125860
124234
122592
120960
119315
117672
116019
114359
112701
111035
109366
107689
105990
104279
102544
100782
99000.6
97186
95332.9
93445.8
91492.8
89506.6
87458.7
85369.1
83232.4
81061.5
555571
549972
544573
539362
534340
529498
524826
520315
515953
511730
507634
503654
499779
495999
492306
488692
485149
481671
478252
474887
471572
468303
465077
461890
458740
455623
452539
449485
446459
443460
440485
437534
434606
431698
428811
425943
423094
420262
417447
414648
411865
409096
406342
403602
400874
398160
395459
392769
390092
387426
384772
382130
379498
376877
374267
371668
369079
366500
363932
361372
358823
356282
353750
351227
348714
346208
343711
341222
338742
336270
333805
331349
328902
326464
324036
321619
319212
316817
314434
312064
309706
307361
305030
302711
300403
298105
295818
293539
291269
289004
286742
284481
282224
279969
277721
275478
273245
271019
268804
266596
264399
262208
260025
257846
255676
253512
251356
249206
247065
244933
242812
240702
238605
236521
234451
232394
230350
228318
226297
224285
222283
220290
218309
216339
214382
212438
210504
208578
206660
204747
202839
200936
199037
197143
195253
193368
191490
189621
187758
185908
184066
182234
180412
178596
176789
174984
173191
171401
169624
167858
166098
164349
162605
160876
159144
157433
155709
154008
152296
150617
148910
147244
145548
143891
142210
140566
138900
137274
135605
133976
132316
130690
129033
127397
125748
124120
122463
120826
119166
117514
115848
114172
112505
110828
109142
107464
105740
104019
102262
100490
98692
96869.9
94997
93098
91136.1
89146
87104.2
85024.5
82905.3
80755.9
556271
550714
545341
540141
535116
530258
525561
521018
516620
512358
508221
504200
500285
496466
492736
489087
485511
482002
478554
475163
471824
468533
465286
462081
458914
455782
452684
449617
446579
443569
440585
437625
434689
431774
428880
426006
423151
420314
417494
414691
411904
409131
406374
403630
400900
398183
395478
392786
390107
387439
384783
382138
379505
376883
374271
371670
369080
366499
363929
361368
358817
356275
353741
351217
348702
346196
343697
341208
338726
336253
333789
331332
328885
326448
324021
321605
319199
316803
314419
312047
309689
307344
305012
302693
300386
298091
295806
293529
291260
288994
286732
284469
282211
279956
277706
275462
273229
271003
268787
266578
264380
262188
260005
257827
255656
253491
251335
249186
247047
244916
242796
240688
238592
236509
234441
232386
230344
228313
226294
224282
222280
220286
218303
216332
214373
212427
210491
208564
206645
204731
202824
200921
199023
197130
195242
193358
191482
189612
187749
185898
184054
182221
180396
178577
176769
174963
173169
171376
169598
167832
166068
164324
162580
160854
159121
157409
155680
153979
152265
150584
148872
147205
145502
143844
142155
140509
138839
137209
135534
133898
132233
130600
128936
127301
125643
124014
122343
120701
119030
117371
115695
114011
112331
110646
108950
107259
105516
103789
102015
100235
98424.5
96587.5
94698.3
92789.1
90823.7
88834.2
86799.5
84729.9
82626.5
80495.7
556880
551356
546005
540815
535788
530919
526202
521634
517206
512911
508740
504685
500735
496883
493121
489440
485835
482299
478826
475412
472051
468740
465476
462253
459071
455926
452815
449737
446689
443669
440676
437708
434765
431843
428943
426064
423204
420362
417538
414730
411939
409163
406402
403655
400922
398202
395494
392800
390118
387448
384790
382143
379508
376883
374270
371667
369075
366493
363921
361358
358805
356262
353727
351202
348686
346178
343679
341189
338707
336234
333770
331314
328867
326431
324005
321589
319183
316787
314402
312029
309670
307323
304991
302671
300365
298071
295787
293511
291242
288975
286711
284446
282188
279931
277681
275436
273204
270978
268761
266551
264354
262161
259979
257799
255629
253463
251309
249161
247024
244895
242778
240670
238577
236495
234430
232375
230335
228305
226287
224275
222274
220278
218295
216321
214361
212412
210475
208545
206625
204710
202803
200899
199003
197110
195225
193342
191467
189595
187733
185879
184034
182200
180372
178552
176743
174935
173141
171345
169568
167802
166039
164295
162553
160826
159092
157380
155653
153947
152238
150552
148835
147160
145457
143791
142099
140443
138776
137140
135460
133827
132155
130519
128849
127206
125540
123907
122229
120585
118907
117242
115559
113868
112180
110489
108776
107072
105324
103583
101801
100010
98188.9
96335.4
94436.6
92520.9
90555.8
88569
86540.7
84480.9
82391.4
80276.9
557403
551906
546573
541391
536363
531485
526753
522164
517713
513391
509193
505108
501130
497249
493459
489752
486122
482562
479067
475632
472252
468924
465644
462407
459211
456054
452932
449844
446786
443758
440758
437783
434833
431906
429000
426116
423251
420405
417576
414765
411970
409191
406426
403676
400940
398217
395507
392809
390125
387452
384791
382143
379505
376879
374263
371659
369065
366482
363908
361344
358790
356245
353710
351184
348667
346159
343659
341169
338687
336214
333750
331294
328849
326413
323988
321572
319166
316770
314385
312011
309650
307302
304968
302648
300341
298047
295763
293487
291215
288946
286681
284415
282156
279899
277649
275405
273172
270946
268729
266520
264322
262129
259947
257767
255598
253432
251280
249133
246999
244872
242758
240652
238561
236480
234416
232362
230324
228294
226277
224265
222263
220267
218283
216307
214345
212393
210453
208521
206600
204684
202776
200873
198978
197086
195201
193319
191444
189572
187710
185854
184009
182172
180344
178523
176713
174905
173109
171313
169538
167769
166008
164265
162527
160795
159063
157347
155626
153909
152211
150516
148797
147118
145414
143726
142038
140376
138710
137066
135392
133751
132084
130447
128765
127110
125445
123800
122122
120476
118791
117125
115436
113744
112046
110349
108628
106912
105158
103397
101616
99809
97980.7
96114.4
94212.3
92293.3
90330.5
88345.4
86323
84272.7
82195.4
80095
557847
552372
547051
541875
536845
531960
527217
522613
518143
513800
509579
505471
501468
497564
493750
490021
486369
482789
479275
475823
472427
469084
465789
462540
459333
456166
453034
449937
446872
443837
440829
437848
434892
431960
429050
426160
423291
420441
417609
414794
411996
409213
406445
403692
400953
398227
395514
392814
390127
387452
384789
382138
379498
376870
374253
371648
369052
366468
363893
361328
358773
356227
353691
351164
348647
346138
343639
341148
338666
336194
333730
331275
328830
326396
323971
321557
319151
316754
314367
311992
309630
307281
304945
302624
300316
298021
295735
293457
291182
288911
286644
284379
282120
279863
277612
275369
273137
270910
268694
266486
264289
262097
259914
257735
255565
253402
251251
249107
246975
244850
242737
240633
238544
236464
234400
232348
230309
228280
226263
224251
222249
220252
218267
216289
214326
212371
210429
208495
206571
204654
202746
200843
198947
197055
195170
193289
191415
189544
187682
185826
183980
182142
180313
178492
176681
174873
173077
171284
169507
167736
165982
164234
162498
160762
159033
157311
155596
153878
152181
150469
148763
147063
145360
143663
141983
140318
138648
136993
135323
133669
132015
130364
128686
127021
125361
123700
122028
120374
118689
117016
115327
113636
111934
110232
108497
106769
105010
103236
101456
99633.4
97801.5
95927.6
94024.8
92103.8
90142.9
88159.3
86142.8
84100.8
82033.8
79945.5
558216
552757
547444
542270
537239
532349
527597
522982
518498
514139
509900
505773
501751
497827
493994
490246
486576
482979
479450
475983
472574
469218
465912
462653
459437
456260
453121
450016
446944
443903
440890
437903
434942
432005
429091
426197
423324
420471
417635
414817
412016
409230
406460
403704
400962
398233
395518
392816
390126
387449
384784
382131
379490
376860
374242
371635
369039
366453
363877
361312
358756
356210
353673
351146
348628
346119
343619
341128
338647
336174
333711
331257
328813
326379
323956
321542
319136
316739
314352
311976
309613
307262
304925
302602
300291
297994
295704
293423
291145
288873
286604
284340
282080
279824
277574
275333
273099
270874
268658
266452
264255
262064
259881
257704
255535
253375
251224
249083
246952
244829
242717
240616
238526
236449
234384
232333
230293
228265
226246
224235
222231
220235
218248
216271
214305
212350
210405
208469
206542
204623
202713
200809
198911
197020
195134
193255
191381
189512
187651
185795
183949
182110
180282
178460
176648
174839
173045
171256
169481
167713
165956
164205
162467
160729
159005
157278
155564
153841
152148
150421
148716
146996
145310
143607
141932
140264
138592
136922
135259
133598
131948
130277
128617
126947
125283
123615
121951
120281
118602
116920
115233
113541
111839
110128
108387
106649
104881
103102
101318
99487.8
97649.3
95774.5
93872.2
91948.6
89988.8
88007
85995.8
83960.6
81901.9
79823.8
558509
553062
547753
542580
537548
532655
527898
523275
518780
514409
510156
506014
501977
498037
494189
490426
486743
483133
479591
476112
472692
469327
466012
462744
459520
456336
453190
450080
447002
443955
440938
437947
434982
432041
429123
426226
423350
420493
417655
414834
412030
409242
406469
403711
400967
398236
395519
392814
390123
387444
384777
382123
379481
376850
374231
371623
369026
366439
363863
361297
358741
356194
353657
351129
348611
346102
343602
341111
338629
336157
333694
331241
328798
326364
323941
321528
319123
316726
314339
311962
309598
307247
304908
302583
300269
297968
295674
293391
291110
288837
286566
284302
282041
279787
277538
275298
273064
270841
268624
266421
264222
262034
259851
257677
255508
253351
251200
249062
246932
244813
242700
240601
238511
236435
234369
232317
230275
228248
226226
224216
222211
220217
218230
216253
214286
212331
210382
208445
206514
204594
202679
200774
198874
196983
195096
193218
191345
189479
187617
185763
183916
182079
180250
178429
176616
174809
173016
171231
169457
167687
165932
164175
162434
160695
158973
157240
155528
153804
152101
150364
148667
146951
145274
143554
141885
140203
138532
136862
135203
133532
131881
130206
128554
126876
125216
123550
121885
120204
118532
116838
115155
113459
111761
110036
108295
106546
104777
102994
101206
99371.3
97526.9
95655.9
93752.3
91826.1
89867.1
87886.2
85878.6
83849.1
81796.9
79726.8
558729
553290
547982
542810
537778
532883
528122
523493
518991
514611
510348
506195
502146
498195
494336
490562
486868
483248
479697
476209
472781
469408
466087
462812
459582
456393
453243
450127
447046
443995
440973
437979
435011
432067
429146
426247
423369
420509
417669
414846
412040
409250
406475
403715
400970
398238
395519
392813
390120
387440
384773
382117
379474
376843
374223
371614
369016
366429
363852
361285
358729
356182
353644
351116
348598
346088
343588
341097
338615
336143
333681
331228
328785
326353
323930
321516
319111
316715
314328
311951
309587
307235
304896
302567
300251
297946
295649
293362
291079
288806
286534
284272
282009
279757
277507
275270
273034
270814
268596
266394
264195
262010
259826
257655
255485
253332
251181
249046
246915
244799
242686
240589
238498
236423
234354
232303
230259
228231
226208
224199
222194
220202
218214
216240
214272
212316
210365
208427
206493
204571
202652
200745
198840
196949
195060
193184
191311
189448
187586
185735
183888
182052
180221
178401
176587
174785
172991
171208
169431
167661
165903
164143
162402
160659
158936
157198
155488
153760
152053
150324
148631
146906
145230
143510
141843
140149
138484
136810
135151
133480
131828
130150
128499
126820
125167
123495
121833
120149
118478
116777
115099
113394
111695
109960
108224
106466
104702
102913
101121
99288
97438
95571.1
93663.5
91737.1
89776.8
87796.3
85792.3
83766.1
81718.7
79654.4
558869
553436
548133
542963
537931
533035
528272
523639
519131
514746
510476
506315
502259
498301
494434
490653
486952
483325
479768
476275
472841
469463
466137
462858
459624
456431
453277
450159
447074
444021
440997
438001
435030
432084
429162
426261
423380
420520
417678
414853
412046
409255
406479
403718
400971
398238
395518
392812
390118
387438
384769
382114
379470
376838
374217
371608
369009
366422
363844
361277
358720
356173
353635
351106
348587
346077
343577
341086
338604
336132
333670
331217
328775
326342
323920
321506
319101
316705
314319
311943
309580
307227
304885
302555
300238
297931
295629
293339
291053
288781
286508
284248
281985
279735
277484
275248
273012
270794
268575
266375
264175
261993
259808
257639
255470
253318
251168
249034
246903
244789
242676
240580
238488
236412