/*--------------------------------*- C++ -*----------------------------------*\
| =========                 |                                                 |
| \\      /  F ield         | OpenFOAM: The Open Source CFD Toolbox           |
|  \\    /   O peration     | Version:  2.4.0                                 |
|   \\  /    A nd           | Web:      www.OpenFOAM.org                      |
|    \\/     M anipulation  |                                                 |
\*---------------------------------------------------------------------------*/
FoamFile
{
    version     2.0;
    format      ascii;
    class       volVectorField;
    location    "0.62";
    object      UMean;
}
// * * * * * * * * * * * * * * * * * * * * * * * * * * * * * * * * * * * * * //

dimensions      [0 1 -1 0 0 0 0];

internalField   nonuniform List<vector> 
8800
(
(8.09347 0.386699 0)
(5.466 0.242215 0)
(3.93649 0.0431967 0)
(3.18211 -0.0151241 0)
(2.83178 -0.0182254 0)
(2.62641 -0.0108936 0)
(2.52112 -0.00573253 0)
(2.41198 -0.00210528 0)
(2.36223 -0.00165807 0)
(2.28479 -0.000289607 0)
(2.26479 -0.000925617 0)
(2.20292 0.000304615 0)
(2.19576 -0.000440494 0)
(2.13788 0.00090259 0)
(2.13188 -4.83506e-05 0)
(2.07473 0.00160991 0)
(2.06174 8.90512e-05 0)
(2.00241 0.00157411 0)
(1.99982 0.00490015 0)
(1.80291 -0.048383 0)
(10.0799 0.835115 0)
(9.65798 0.863782 0)
(8.88722 0.504245 0)
(8.09253 0.260429 0)
(7.52038 0.136651 0)
(7.02177 0.0813294 0)
(6.73768 0.052537 0)
(6.4203 0.0400402 0)
(6.28143 0.0282803 0)
(6.0511 0.0242992 0)
(5.99634 0.0170311 0)
(5.81085 0.0181592 0)
(5.79955 0.0131529 0)
(5.63425 0.0173525 0)
(5.63667 0.0130167 0)
(5.48185 0.0185642 0)
(5.47697 0.0175873 0)
(5.32376 0.0150526 0)
(5.32 0.0311755 0)
(5.12002 -0.0376049 0)
(10.0627 0.629341 0)
(10.6486 0.858867 0)
(10.8787 0.597549 0)
(10.6792 0.371203 0)
(10.4747 0.252996 0)
(10.0733 0.194654 0)
(9.867 0.149944 0)
(9.48586 0.121153 0)
(9.36055 0.0906534 0)
(9.0307 0.075574 0)
(8.98881 0.0552383 0)
(8.70154 0.0526647 0)
(8.71718 0.0389929 0)
(8.45327 0.04421 0)
(8.49817 0.0338345 0)
(8.24362 0.0431022 0)
(8.29512 0.0385522 0)
(8.03551 0.0444958 0)
(8.08103 0.0502617 0)
(7.81345 -0.0213903 0)
(10.0117 0.455966 0)
(10.5481 0.701649 0)
(11.1863 0.542351 0)
(11.3463 0.350143 0)
(11.5768 0.258711 0)
(11.4238 0.225733 0)
(11.5165 0.195965 0)
(11.2603 0.174384 0)
(11.3307 0.142573 0)
(11.0379 0.125254 0)
(11.1254 0.0990545 0)
(10.8209 0.0937315 0)
(10.933 0.0740243 0)
(10.621 0.0787407 0)
(10.7524 0.0620818 0)
(10.4307 0.0757037 0)
(10.5712 0.0601216 0)
(10.2325 0.0868201 0)
(10.3551 0.0617749 0)
(9.99496 0.0937737 0)
(10.0738 0.34604 0)
(10.3657 0.564057 0)
(11.08 0.458286 0)
(11.2619 0.292524 0)
(11.6891 0.205974 0)
(11.6236 0.191619 0)
(11.9147 0.173829 0)
(11.766 0.169289 0)
(12.0194 0.139707 0)
(11.8323 0.134023 0)
(12.0707 0.103556 0)
(11.8575 0.109477 0)
(12.0853 0.0814002 0)
(11.8506 0.0999994 0)
(12.0667 0.0702884 0)
(11.8132 0.102479 0)
(12.0124 0.067022 0)
(11.7412 0.119549 0)
(11.9009 0.0672069 0)
(11.582 0.138372 0)
(10.0857 0.25223 0)
(10.2876 0.452265 0)
(10.9229 0.374895 0)
(11.1525 0.246146 0)
(11.5485 0.158894 0)
(11.5761 0.150658 0)
(11.8195 0.138428 0)
(11.7912 0.14205 0)
(11.9952 0.115093 0)
(11.9615 0.114423 0)
(12.1468 0.0864105 0)
(12.1113 0.0939265 0)
(12.2776 0.0704386 0)
(12.2389 0.086987 0)
(12.3836 0.0663134 0)
(12.3412 0.0901951 0)
(12.4593 0.0709648 0)
(12.4112 0.100889 0)
(12.4832 0.0735694 0)
(12.3635 0.0633815 0)
(10.0034 0.173235 0)
(10.312 0.352657 0)
(10.7366 0.286028 0)
(11.1295 0.205306 0)
(11.3683 0.115212 0)
(11.5727 0.116319 0)
(11.6495 0.101291 0)
(11.7881 0.116216 0)
(11.827 0.0848267 0)
(11.9646 0.0940713 0)
(11.9919 0.0613364 0)
(12.1314 0.0769097 0)
(12.1464 0.0483718 0)
(12.2847 0.0716108 0)
(12.2859 0.0461378 0)
(12.4216 0.0752099 0)
(12.4064 0.0502387 0)
(12.5346 0.0806037 0)
(12.4826 0.0422593 0)
(12.5187 0.0250819 0)
(9.9424 0.113074 0)
(10.3239 0.250864 0)
(10.6127 0.201816 0)
(11.0962 0.152532 0)
(11.2492 0.0794854 0)
(11.5493 0.0801563 0)
(11.5411 0.0706222 0)
(11.7575 0.084006 0)
(11.7159 0.0605771 0)
(11.9286 0.0674323 0)
(11.8823 0.0428518 0)
(12.0932 0.0542353 0)
(12.0397 0.033471 0)
(12.2455 0.0502005 0)
(12.1826 0.0320993 0)
(12.3817 0.0523369 0)
(12.3078 0.0332357 0)
(12.494 0.0512376 0)
(12.3853 0.0186995 0)
(12.4659 -0.000879327 0)
(9.90911 0.0621606 0)
(10.3257 0.15178 0)
(10.5357 0.119288 0)
(11.067 0.0949898 0)
(11.1741 0.0453607 0)
(11.5264 0.0501186 0)
(11.4741 0.0403692 0)
(11.7307 0.0536391 0)
(11.6458 0.0348939 0)
(11.8986 0.043097 0)
(11.8113 0.0232154 0)
(12.0619 0.0346409 0)
(11.9686 0.0173395 0)
(12.2139 0.0317955 0)
(12.1113 0.015655 0)
(12.3499 0.0314753 0)
(12.2367 0.013235 0)
(12.4616 0.0251738 0)
(12.3104 -0.00333286 0)
(12.4251 -0.0192936 0)
(9.92411 0.0185946 0)
(10.2966 0.0529631 0)
(10.5305 0.0381604 0)
(11.0253 0.0338234 0)
(11.1726 0.0129722 0)
(11.4901 0.0189232 0)
(11.4804 0.0113841 0)
(11.6943 0.0204081 0)
(11.6525 0.00937899 0)
(11.8611 0.016477 0)
(11.8189 0.00465889 0)
(12.0243 0.012987 0)
(11.9778 0.00191488 0)
(12.1769 0.0108361 0)
(12.1226 -0.000428283 0)
(12.3138 0.00772977 0)
(12.25 -0.00597615 0)
(12.4257 -0.00208287 0)
(12.3234 -0.0227094 0)
(12.3846 -0.0361126 0)
(9.96394 -0.023921 0)
(10.2579 -0.0445729 0)
(10.571 -0.0452717 0)
(10.9901 -0.0269518 0)
(11.2134 -0.0208592 0)
(11.4568 -0.0111278 0)
(11.5214 -0.0190011 0)
(11.6626 -0.0119363 0)
(11.6946 -0.0178522 0)
(11.8301 -0.00881267 0)
(11.8621 -0.0153057 0)
(11.9939 -0.00689377 0)
(12.022 -0.0150837 0)
(12.1461 -0.00832374 0)
(12.1677 -0.018329 0)
(12.2824 -0.0138239 0)
(12.2954 -0.0269526 0)
(12.3923 -0.0261252 0)
(12.3674 -0.0435588 0)
(12.3467 -0.0479171 0)
(9.98994 -0.06712 0)
(10.2454 -0.144711 0)
(10.6184 -0.126413 0)
(10.9908 -0.0891521 0)
(11.2595 -0.0525001 0)
(11.4528 -0.0433208 0)
(11.5625 -0.0472207 0)
(11.6598 -0.0463531 0)
(11.7371 -0.0423825 0)
(11.8289 -0.0365543 0)
(11.9047 -0.0328701 0)
(11.993 -0.0295039 0)
(12.064 -0.0294335 0)
(12.1446 -0.029979 0)
(12.2084 -0.0335276 0)
(12.28 -0.0377556 0)
(12.3342 -0.0454064 0)
(12.3886 -0.0530594 0)
(12.4048 -0.0627069 0)
(12.3433 -0.0619422 0)
(9.99692 -0.117293 0)
(10.2658 -0.245636 0)
(10.6696 -0.208388 0)
(11.0361 -0.148022 0)
(11.3091 -0.0859316 0)
(11.4874 -0.0749595 0)
(11.6039 -0.0769886 0)
(11.6954 -0.0783852 0)
(11.7813 -0.0674048 0)
(11.8662 -0.062309 0)
(11.9488 -0.0516889 0)
(12.0304 -0.0503482 0)
(12.1069 -0.0449854 0)
(12.1813 -0.0493905 0)
(12.2503 -0.0497044 0)
(12.3162 -0.0588886 0)
(12.3752 -0.0653201 0)
(12.4251 -0.0782391 0)
(12.4485 -0.0859986 0)
(12.3859 -0.0761464 0)
(10.0169 -0.176884 0)
(10.2918 -0.34857 0)
(10.7562 -0.291228 0)
(11.1016 -0.201233 0)
(11.3913 -0.120588 0)
(11.5404 -0.111534 0)
(11.675 -0.106779 0)
(11.7525 -0.111852 0)
(11.8556 -0.0911199 0)
(11.9272 -0.090007 0)
(12.0224 -0.0696385 0)
(12.0919 -0.0739772 0)
(12.1779 -0.0595601 0)
(12.242 -0.0717027 0)
(12.3175 -0.0636891 0)
(12.3745 -0.0822701 0)
(12.4366 -0.0820446 0)
(12.4793 -0.106619 0)
(12.5051 -0.108809 0)
(12.4433 -0.103531 0)
(10.055 -0.253366 0)
(10.3145 -0.451107 0)
(10.8949 -0.376573 0)
(11.1734 -0.245081 0)
(11.5223 -0.16088 0)
(11.5952 -0.149148 0)
(11.7946 -0.140279 0)
(11.8089 -0.141729 0)
(11.9715 -0.117377 0)
(11.9776 -0.114647 0)
(12.1231 -0.0899745 0)
(12.1256 -0.0956634 0)
(12.2528 -0.0759696 0)
(12.2498 -0.0924228 0)
(12.3556 -0.0769731 0)
(12.3453 -0.103181 0)
(12.4234 -0.0939228 0)
(12.3994 -0.132156 0)
(12.4254 -0.125304 0)
(12.3109 -0.140847 0)
(10.0512 -0.348064 0)
(10.3899 -0.561772 0)
(11.0492 -0.460297 0)
(11.2902 -0.290354 0)
(11.6546 -0.208844 0)
(11.6548 -0.188932 0)
(11.876 -0.176938 0)
(11.7997 -0.167153 0)
(11.976 -0.143658 0)
(11.8682 -0.131657 0)
(12.0214 -0.109337 0)
(11.8947 -0.107597 0)
(12.028 -0.0900078 0)
(11.8869 -0.10039 0)
(11.9963 -0.0850536 0)
(11.8431 -0.107853 0)
(11.918 -0.0957223 0)
(11.7504 -0.137321 0)
(11.7578 -0.125731 0)
(11.5255 -0.162469 0)
(10.0045 -0.456938 0)
(10.5559 -0.700598 0)
(11.1713 -0.543109 0)
(11.3598 -0.349266 0)
(11.5584 -0.260197 0)
(11.4403 -0.224601 0)
(11.4947 -0.1976 0)
(11.2785 -0.173673 0)
(11.3048 -0.144681 0)
(11.0569 -0.124696 0)
(11.0944 -0.102105 0)
(10.8383 -0.0942869 0)
(10.8948 -0.0783562 0)
(10.6328 -0.0828015 0)
(10.7003 -0.0692942 0)
(10.429 -0.0872284 0)
(10.489 -0.0742493 0)
(10.1995 -0.115618 0)
(10.2066 -0.0969612 0)
(9.86851 -0.15916 0)
(10.0585 -0.630356 0)
(10.652 -0.857969 0)
(10.87 -0.597964 0)
(10.6869 -0.370444 0)
(10.4643 -0.254088 0)
(10.0829 -0.19388 0)
(9.85454 -0.151265 0)
(9.49506 -0.120398 0)
(9.3463 -0.0924743 0)
(9.03735 -0.0746963 0)
(8.97291 -0.0579301 0)
(8.7019 -0.0522703 0)
(8.6991 -0.0429988 0)
(8.44042 -0.045808 0)
(8.47272 -0.0402635 0)
(8.20551 -0.0502238 0)
(8.24631 -0.0483934 0)
(7.94899 -0.069996 0)
(7.95235 -0.0718635 0)
(7.60206 -0.0898569 0)
(10.0784 -0.835521 0)
(9.65823 -0.86331 0)
(8.88315 -0.504292 0)
(8.09669 -0.260106 0)
(7.51527 -0.137249 0)
(7.0268 -0.0810758 0)
(6.73064 -0.0530701 0)
(6.4246 -0.0397792 0)
(6.2733 -0.0290567 0)
(6.05256 -0.0239959 0)
(5.98756 -0.0182015 0)
(5.80567 -0.0182343 0)
(5.79005 -0.0149179 0)
(5.61507 -0.0185088 0)
(5.62268 -0.016103 0)
(5.43463 -0.0229388 0)
(5.44513 -0.0222433 0)
(5.22123 -0.0329885 0)
(5.21145 -0.0390686 0)
(4.90972 -0.0215624 0)
(8.09293 -0.38682 0)
(5.46533 -0.242059 0)
(3.93568 -0.0432609 0)
(3.18381 0.0151583 0)
(2.83036 0.0180573 0)
(2.62776 0.0109972 0)
(2.51867 0.00563614 0)
(2.4129 0.00219811 0)
(2.35908 0.00152421 0)
(2.28446 0.000377164 0)
(2.2607 0.000740133 0)
(2.19943 -0.000296658 0)
(2.18998 0.000239576 0)
(2.12721 -0.00114531 0)
(2.12109 -0.000327031 0)
(2.04836 -0.00233823 0)
(2.03617 -0.00119202 0)
(1.94373 -0.00392311 0)
(1.90609 -0.00462912 0)
(1.74904 0.0117804 0)
(2.22144 -0.0893131 0)
(2.34841 0.0060811 0)
(2.59485 0.010452 0)
(2.79317 -0.0128059 0)
(3.00959 -0.0387643 0)
(3.15161 -0.0517562 0)
(3.31191 -0.0604349 0)
(3.40105 -0.0606054 0)
(3.51835 -0.0705432 0)
(3.58699 -0.0804148 0)
(3.69466 -0.0931002 0)
(3.75679 -0.102237 0)
(3.86394 -0.115373 0)
(3.92629 -0.124218 0)
(4.02994 -0.136634 0)
(4.09385 -0.145886 0)
(4.20217 -0.157068 0)
(4.27311 -0.166038 0)
(4.40106 -0.176779 0)
(4.48517 -0.184261 0)
(4.62237 -0.201741 0)
(4.70596 -0.21924 0)
(4.83876 -0.243209 0)
(4.91204 -0.265171 0)
(5.03604 -0.291629 0)
(5.09459 -0.313826 0)
(5.21063 -0.337463 0)
(5.25684 -0.35317 0)
(5.37227 -0.369313 0)
(5.41934 -0.381505 0)
(5.54547 -0.400783 0)
(5.60475 -0.418772 0)
(5.74218 -0.444877 0)
(5.80622 -0.467574 0)
(5.94168 -0.494352 0)
(5.99947 -0.515639 0)
(6.1289 -0.53913 0)
(6.17965 -0.55665 0)
(6.30623 -0.579611 0)
(6.35126 -0.597769 0)
(6.47802 -0.621426 0)
(6.51502 -0.640913 0)
(6.64358 -0.667985 0)
(6.66935 -0.690494 0)
(6.79897 -0.719533 0)
(6.81147 -0.742326 0)
(6.94304 -0.772106 0)
(6.94505 -0.79325 0)
(7.07796 -0.822226 0)
(7.07332 -0.83887 0)
(7.20776 -0.86456 0)
(7.20186 -0.876051 0)
(7.33969 -0.899641 0)
(7.33331 -0.90945 0)
(7.47409 -0.93481 0)
(7.46221 -0.946896 0)
(7.60382 -0.975317 0)
(7.57889 -0.988011 0)
(7.71711 -1.01424 0)
(7.67704 -1.02245 0)
(7.81601 -1.04505 0)
(7.77065 -1.04897 0)
(7.91672 -1.06914 0)
(7.8798 -1.0707 0)
(8.03208 -1.08936 0)
(8.00308 -1.09053 0)
(8.14812 -1.10796 0)
(8.10701 -1.1086 0)
(8.24162 -1.11988 0)
(8.18318 -1.11594 0)
(8.31669 -1.12707 0)
(8.24835 -1.11776 0)
(8.37411 -1.126 0)
(8.30225 -1.11215 0)
(8.42842 -1.12162 0)
(8.35887 -1.10579 0)
(8.4891 -1.11457 0)
(8.42744 -1.09876 0)
(8.56865 -1.10926 0)
(8.50675 -1.08896 0)
(8.668 -1.09839 0)
(8.58732 -1.06926 0)
(8.77407 -1.0682 0)
(8.65898 -1.03413 0)
(8.87238 -1.02616 0)
(8.73546 -0.983193 0)
(8.94463 -0.98171 0)
(8.82378 -0.934907 0)
(8.99901 -0.939057 0)
(8.8989 -0.891514 0)
(9.03917 -0.89323 0)
(8.94938 -0.839526 0)
(9.05849 -0.834735 0)
(8.96751 -0.779728 0)
(9.05735 -0.773569 0)
(8.97196 -0.714304 0)
(9.0453 -0.707736 0)
(8.97062 -0.648835 0)
(9.03265 -0.647121 0)
(8.98921 -0.595464 0)
(9.04595 -0.605259 0)
(9.03123 -0.55779 0)
(9.09079 -0.584574 0)
(9.08951 -0.541783 0)
(9.15354 -0.562928 0)
(9.1441 -0.515856 0)
(9.21143 -0.538525 0)
(9.18347 -0.486268 0)
(9.24675 -0.509906 0)
(9.19671 -0.455559 0)
(9.24532 -0.480879 0)
(9.17944 -0.425185 0)
(9.20347 -0.454285 0)
(9.13709 -0.397063 0)
(9.13974 -0.432761 0)
(9.10512 -0.375975 0)
(9.09457 -0.41632 0)
(9.08311 -0.355646 0)
(9.05128 -0.390161 0)
(9.03911 -0.320428 0)
(9.00222 -0.3522 0)
(8.99892 -0.285707 0)
(8.97273 -0.325225 0)
(8.98112 -0.263319 0)
(8.95671 -0.311214 0)
(8.97084 -0.252464 0)
(8.95043 -0.303262 0)
(8.961 -0.241241 0)
(8.94836 -0.281746 0)
(8.94839 -0.219267 0)
(8.93845 -0.252291 0)
(8.93815 -0.191061 0)
(8.92026 -0.217674 0)
(8.92532 -0.153752 0)
(8.89074 -0.182095 0)
(8.90972 -0.117922 0)
(8.85596 -0.142936 0)
(8.88616 -0.0719157 0)
(8.81761 -0.0965652 0)
(8.85625 -0.0271057 0)
(8.77395 -0.0541512 0)
(8.80697 0.0148006 0)
(8.71988 -0.0055878 0)
(8.75164 0.058397 0)
(8.6682 0.0321682 0)
(8.71284 0.0858021 0)
(8.60925 0.0671769 0)
(8.67799 0.125204 0)
(8.54521 0.0985293 0)
(8.64734 0.156354 0)
(8.49322 0.124753 0)
(8.60684 0.187898 0)
(8.4505 0.165397 0)
(8.56186 0.226664 0)
(8.40623 0.199792 0)
(8.51724 0.270416 0)
(8.36637 0.251685 0)
(8.46623 0.322637 0)
(8.33801 0.3096 0)
(8.43123 0.382771 0)
(8.32888 0.352741 0)
(8.39925 0.42639 0)
(8.31538 0.404608 0)
(8.35097 0.484329 0)
(8.27039 0.470272 0)
(8.28533 0.545845 0)
(8.22861 0.538438 0)
(8.21051 0.605835 0)
(8.17549 0.605548 0)
(8.09581 0.679263 0)
(8.11632 0.680801 0)
(7.92708 0.759463 0)
(8.02217 0.756579 0)
(7.74307 0.860458 0)
(7.91436 0.830236 0)
(7.5708 0.993766 0)
(7.82333 0.919669 0)
(7.39484 1.1365 0)
(7.76622 1.02945 0)
(7.23708 1.301 0)
(7.68874 1.1538 0)
(7.12796 1.49042 0)
(7.56049 1.29217 0)
(7.05315 1.69458 0)
(7.40853 1.47971 0)
(6.95926 1.91201 0)
(7.26289 1.72163 0)
(6.80998 2.14377 0)
(7.12773 2.02202 0)
(6.60771 2.41091 0)
(6.99761 2.37277 0)
(6.35642 2.74302 0)
(6.79175 2.79249 0)
(6.0886 3.20871 0)
(6.45386 3.31069 0)
(5.86942 3.99423 0)
(6.02004 4.08779 0)
(5.35724 5.23055 0)
(6.27402 5.87869 0)
(3.96955 8.80309 0)
(5.26589 -0.0562681 0)
(5.24683 -0.022843 0)
(5.31191 -0.0375305 0)
(5.3774 -0.0764299 0)
(5.51434 -0.112683 0)
(5.59288 -0.128774 0)
(5.70541 -0.134959 0)
(5.74306 -0.133017 0)
(5.82026 -0.136165 0)
(5.8346 -0.141643 0)
(5.90746 -0.153789 0)
(5.92288 -0.165014 0)
(6.00653 -0.179632 0)
(6.02969 -0.19055 0)
(6.12383 -0.203186 0)
(6.15165 -0.213061 0)
(6.25482 -0.2253 0)
(6.28538 -0.235015 0)
(6.39677 -0.249299 0)
(6.43181 -0.261006 0)
(6.55005 -0.279205 0)
(6.58627 -0.296908 0)
(6.70475 -0.319348 0)
(6.73477 -0.339484 0)
(6.85184 -0.362924 0)
(6.8739 -0.382434 0)
(6.99151 -0.403321 0)
(7.00755 -0.419056 0)
(7.12792 -0.437393 0)
(7.14146 -0.452127 0)
(7.2689 -0.472523 0)
(7.28342 -0.490634 0)
(7.4181 -0.515881 0)
(7.43012 -0.536724 0)
(7.56496 -0.562792 0)
(7.5691 -0.580949 0)
(7.69915 -0.604315 0)
(7.69535 -0.619023 0)
(7.82059 -0.641423 0)
(7.81119 -0.655747 0)
(7.9349 -0.679641 0)
(7.92116 -0.696215 0)
(8.0468 -0.72344 0)
(8.02921 -0.742598 0)
(8.15987 -0.771433 0)
(8.1375 -0.791345 0)
(8.27342 -0.820933 0)
(8.24454 -0.840613 0)
(8.38369 -0.869263 0)
(8.3467 -0.885978 0)
(8.48744 -0.911121 0)
(8.44165 -0.92351 0)
(8.58339 -0.946004 0)
(8.52906 -0.955693 0)
(8.67096 -0.978305 0)
(8.60865 -0.988039 0)
(8.74956 -1.0122 0)
(8.6801 -1.02352 0)
(8.82039 -1.0476 0)
(8.74451 -1.05898 0)
(8.88752 -1.08107 0)
(8.80389 -1.09006 0)
(8.95169 -1.10945 0)
(8.85909 -1.11394 0)
(9.01133 -1.13034 0)
(8.91413 -1.12882 0)
(9.06327 -1.14 0)
(8.96307 -1.13511 0)
(9.10903 -1.14624 0)
(9.00617 -1.1423 0)
(9.1482 -1.14837 0)
(9.03805 -1.13833 0)
(9.17967 -1.14315 0)
(9.06622 -1.13152 0)
(9.20695 -1.14097 0)
(9.09682 -1.12605 0)
(9.23522 -1.13946 0)
(9.1313 -1.12209 0)
(9.26845 -1.13612 0)
(9.16461 -1.11553 0)
(9.31158 -1.1257 0)
(9.19559 -1.09376 0)
(9.35456 -1.09893 0)
(9.2303 -1.05383 0)
(9.3847 -1.05313 0)
(9.26888 -1.00209 0)
(9.40604 -1.00486 0)
(9.30847 -0.951516 0)
(9.4173 -0.955998 0)
(9.33369 -0.903625 0)
(9.42188 -0.902308 0)
(9.33763 -0.842528 0)
(9.40595 -0.837766 0)
(9.31538 -0.776544 0)
(9.37063 -0.770471 0)
(9.2774 -0.706129 0)
(9.32932 -0.70249 0)
(9.24262 -0.643012 0)
(9.30825 -0.648737 0)
(9.23578 -0.600195 0)
(9.31392 -0.619171 0)
(9.25939 -0.576688 0)
(9.3476 -0.608637 0)
(9.29208 -0.562474 0)
(9.38296 -0.582489 0)
(9.32128 -0.530733 0)
(9.40369 -0.549342 0)
(9.33427 -0.492203 0)
(9.39809 -0.509923 0)
(9.32261 -0.449428 0)
(9.36822 -0.465136 0)
(9.28707 -0.40439 0)
(9.31211 -0.423585 0)
(9.23296 -0.373118 0)
(9.25975 -0.40924 0)
(9.19712 -0.363515 0)
(9.21663 -0.396523 0)
(9.15676 -0.33971 0)
(9.16875 -0.364594 0)
(9.10358 -0.305526 0)
(9.13125 -0.333102 0)
(9.06281 -0.28163 0)
(9.11509 -0.315158 0)
(9.04303 -0.264076 0)
(9.11345 -0.303688 0)
(9.03037 -0.250536 0)
(9.11701 -0.294415 0)
(9.00931 -0.236602 0)
(9.11065 -0.269938 0)
(8.98135 -0.210983 0)
(9.09004 -0.242563 0)
(8.94779 -0.178852 0)
(9.05916 -0.208623 0)
(8.90936 -0.138376 0)
(9.02154 -0.167121 0)
(8.85952 -0.0996008 0)
(8.97773 -0.125906 0)
(8.80749 -0.0602439 0)
(8.9316 -0.0799545 0)
(8.75954 -0.0183977 0)
(8.88457 -0.0314634 0)
(8.69599 0.0337679 0)
(8.81851 0.0215642 0)
(8.63066 0.0809086 0)
(8.75251 0.0514492 0)
(8.5757 0.113922 0)
(8.68775 0.0850854 0)
(8.5244 0.147629 0)
(8.64642 0.111577 0)
(8.49244 0.173543 0)
(8.60507 0.13313 0)
(8.46073 0.20587 0)
(8.56176 0.167207 0)
(8.42975 0.245345 0)
(8.52183 0.200618 0)
(8.39491 0.29625 0)
(8.49068 0.242823 0)
(8.35379 0.349075 0)
(8.48837 0.291364 0)
(8.33027 0.406931 0)
(8.49889 0.33388 0)
(8.30368 0.465929 0)
(8.48289 0.396876 0)
(8.27482 0.527402 0)
(8.45605 0.454608 0)
(8.24777 0.583129 0)
(8.43149 0.511158 0)
(8.19945 0.668067 0)
(8.38451 0.584496 0)
(8.11189 0.76866 0)
(8.32709 0.663452 0)
(8.0008 0.879938 0)
(8.24599 0.733025 0)
(7.86399 0.988481 0)
(8.15804 0.798686 0)
(7.71235 1.10303 0)
(8.10667 0.8839 0)
(7.57242 1.24162 0)
(8.0593 0.994676 0)
(7.47323 1.40521 0)
(7.97708 1.1252 0)
(7.39217 1.57285 0)
(7.8938 1.30219 0)
(7.27859 1.74412 0)
(7.85047 1.52247 0)
(7.13657 1.94226 0)
(7.83257 1.77558 0)
(6.97826 2.18497 0)
(7.78399 2.05101 0)
(6.84024 2.51363 0)
(7.66755 2.35827 0)
(6.76274 2.94455 0)
(7.44781 2.72936 0)
(6.69 3.51368 0)
(7.16848 3.26036 0)
(6.47772 4.26635 0)
(7.24298 4.1933 0)
(5.83544 5.56167 0)
(8.40731 5.1499 0)
(6.37257 9.36593 0)
(7.90404 -0.0832025 0)
(7.87529 -0.0879337 0)
(7.93269 -0.108521 0)
(7.96267 -0.129275 0)
(8.0827 -0.145491 0)
(8.1232 -0.148957 0)
(8.21486 -0.150276 0)
(8.20772 -0.147436 0)
(8.26284 -0.151315 0)
(8.23252 -0.157117 0)
(8.28716 -0.171331 0)
(8.26253 -0.185059 0)
(8.33201 -0.203717 0)
(8.31708 -0.218567 0)
(8.39936 -0.236311 0)
(8.3901 -0.249192 0)
(8.48118 -0.265297 0)
(8.47343 -0.27687 0)
(8.56878 -0.293262 0)
(8.5607 -0.306395 0)
(8.6589 -0.325824 0)
(8.65041 -0.342811 0)
(8.75053 -0.365386 0)
(8.74008 -0.38425 0)
(8.84161 -0.407525 0)
(8.82911 -0.425749 0)
(8.9326 -0.44724 0)
(8.91839 -0.463182 0)
(9.02398 -0.482788 0)
(9.00609 -0.497944 0)
(9.11396 -0.518426 0)
(9.09109 -0.535938 0)
(9.20158 -0.559442 0)
(9.17075 -0.579012 0)
(9.28212 -0.60313 0)
(9.2414 -0.621041 0)
(9.35407 -0.642896 0)
(9.30565 -0.657294 0)
(9.42068 -0.677426 0)
(9.36758 -0.690581 0)
(9.48656 -0.71244 0)
(9.43394 -0.727215 0)
(9.55644 -0.753079 0)
(9.50505 -0.771073 0)
(9.62839 -0.800858 0)
(9.57744 -0.820787 0)
(9.69908 -0.851804 0)
(9.64542 -0.870935 0)
(9.7626 -0.900326 0)
(9.70288 -0.916168 0)
(9.81566 -0.941431 0)
(9.74848 -0.952805 0)
(9.85916 -0.974383 0)
(9.78434 -0.982551 0)
(9.89527 -1.00357 0)
(9.81471 -1.01137 0)
(9.92754 -1.03509 0)
(9.84447 -1.0445 0)
(9.95868 -1.07033 0)
(9.87344 -1.07863 0)
(9.98356 -1.10112 0)
(9.893 -1.10496 0)
(9.99474 -1.12166 0)
(9.89437 -1.12149 0)
(9.98914 -1.13342 0)
(9.87743 -1.12929 0)
(9.97243 -1.14017 0)
(9.85756 -1.13621 0)
(9.96153 -1.14964 0)
(9.84256 -1.1439 0)
(9.94698 -1.15406 0)
(9.82439 -1.14168 0)
(9.93182 -1.14765 0)
(9.80522 -1.13518 0)
(9.91616 -1.14436 0)
(9.78348 -1.1295 0)
(9.8943 -1.14175 0)
(9.758 -1.12321 0)
(9.87021 -1.14035 0)
(9.73773 -1.11856 0)
(9.85313 -1.13155 0)
(9.72412 -1.09803 0)
(9.84122 -1.10532 0)
(9.71685 -1.0548 0)
(9.82406 -1.057 0)
(9.71387 -1.0035 0)
(9.80214 -1.00212 0)
(9.69866 -0.948491 0)
(9.77219 -0.949539 0)
(9.67178 -0.896608 0)
(9.73409 -0.888644 0)
(9.63058 -0.827014 0)
(9.67674 -0.81873 0)
(9.57083 -0.754696 0)
(9.60825 -0.746844 0)
(9.50696 -0.684746 0)
(9.53825 -0.684662 0)
(9.45173 -0.632004 0)
(9.5015 -0.644837 0)
(9.42849 -0.60181 0)
(9.49343 -0.629231 0)
(9.43526 -0.589176 0)
(9.49427 -0.624757 0)
(9.44342 -0.571654 0)
(9.48783 -0.592939 0)
(9.4455 -0.530712 0)
(9.46359 -0.551229 0)
(9.4351 -0.481915 0)
(9.42155 -0.50242 0)
(9.40703 -0.427354 0)
(9.36284 -0.447411 0)
(9.35847 -0.370695 0)
(9.29291 -0.40246 0)
(9.32472 -0.35075 0)
(9.25331 -0.39446 0)
(9.29117 -0.338753 0)
(9.19449 -0.375143 0)
(9.23918 -0.310811 0)
(9.12539 -0.345358 0)
(9.19157 -0.280333 0)
(9.07727 -0.323497 0)
(9.15721 -0.265343 0)
(9.05259 -0.315242 0)
(9.13658 -0.25576 0)
(9.03926 -0.306673 0)
(9.12104 -0.239435 0)
(9.02412 -0.292686 0)
(9.09437 -0.216313 0)
(8.99835 -0.266868 0)
(9.05616 -0.183516 0)
(8.96223 -0.237077 0)
(8.99854 -0.143194 0)
(8.91928 -0.201574 0)
(8.92964 -0.0975541 0)
(8.87328 -0.156076 0)
(8.85057 -0.0526229 0)
(8.81921 -0.112348 0)
(8.77528 -0.0177756 0)
(8.75849 -0.0728498 0)
(8.71446 0.0237472 0)
(8.68838 -0.0241086 0)
(8.65864 0.0868628 0)
(8.59719 0.0322879 0)
(8.60745 0.131744 0)
(8.5249 0.0587432 0)
(8.56055 0.162003 0)
(8.46673 0.0927374 0)
(8.52181 0.187044 0)
(8.42713 0.110177 0)
(8.50258 0.211944 0)
(8.38532 0.130687 0)
(8.49581 0.250351 0)
(8.34303 0.154425 0)
(8.47517 0.292162 0)
(8.31509 0.189648 0)
(8.45191 0.351315 0)
(8.29708 0.217101 0)
(8.4296 0.393438 0)
(8.30189 0.257373 0)
(8.40987 0.443409 0)
(8.30426 0.311496 0)
(8.39681 0.513201 0)
(8.29284 0.372961 0)
(8.38354 0.579984 0)
(8.29225 0.423272 0)
(8.35657 0.64546 0)
(8.27676 0.484927 0)
(8.3016 0.741398 0)
(8.25472 0.564716 0)
(8.22904 0.853049 0)
(8.22459 0.652119 0)
(8.1172 0.96837 0)
(8.22297 0.736667 0)
(7.96228 1.07861 0)
(8.25555 0.818307 0)
(7.7887 1.19123 0)
(8.27391 0.889717 0)
(7.65348 1.3215 0)
(8.2768 0.99265 0)
(7.54639 1.46937 0)
(8.28132 1.1402 0)
(7.41523 1.63306 0)
(8.28734 1.31459 0)
(7.26935 1.8287 0)
(8.2665 1.49544 0)
(7.16554 2.0678 0)
(8.20041 1.7001 0)
(7.13437 2.3639 0)
(8.06715 1.93637 0)
(7.15281 2.71072 0)
(7.90434 2.24754 0)
(7.17612 3.12635 0)
(7.83098 2.66795 0)
(7.09082 3.62843 0)
(8.02863 3.24417 0)
(6.76877 4.4155 0)
(8.73477 3.80616 0)
(6.48233 6.12309 0)
(9.65045 3.82948 0)
(8.03342 8.62397 0)
(10.0925 -0.117172 0)
(10.0689 -0.225522 0)
(10.1535 -0.270438 0)
(10.173 -0.258552 0)
(10.2832 -0.230783 0)
(10.2886 -0.197727 0)
(10.3635 -0.178906 0)
(10.3262 -0.165574 0)
(10.3742 -0.167221 0)
(10.3217 -0.170936 0)
(10.372 -0.186254 0)
(10.3249 -0.199523 0)
(10.3867 -0.220928 0)
(10.3464 -0.236451 0)
(10.417 -0.257766 0)
(10.3796 -0.271171 0)
(10.4549 -0.290224 0)
(10.4169 -0.30136 0)
(10.4951 -0.31965 0)
(10.4564 -0.331105 0)
(10.5378 -0.351377 0)
(10.4983 -0.365365 0)
(10.5823 -0.388735 0)
(10.541 -0.404752 0)
(10.6263 -0.429576 0)
(10.5827 -0.445546 0)
(10.6679 -0.469431 0)
(10.6219 -0.48353 0)
(10.7065 -0.50574 0)
(10.6577 -0.518647 0)
(10.7405 -0.540571 0)
(10.6886 -0.554232 0)
(10.7693 -0.577367 0)
(10.7134 -0.592717 0)
(10.7924 -0.616539 0)
(10.7319 -0.631956 0)
(10.8115 -0.65473 0)
(10.7476 -0.669404 0)
(10.8319 -0.691553 0)
(10.7667 -0.705823 0)
(10.8578 -0.729031 0)
(10.792 -0.745391 0)
(10.8888 -0.772107 0)
(10.8213 -0.790723 0)
(10.9199 -0.82038 0)
(10.8485 -0.839843 0)
(10.9444 -0.870256 0)
(10.8681 -0.887534 0)
(10.9597 -0.915424 0)
(10.8792 -0.927963 0)
(10.966 -0.951711 0)
(10.8814 -0.95953 0)
(10.9641 -0.979717 0)
(10.8762 -0.985224 0)
(10.9582 -1.00541 0)
(10.8691 -1.01258 0)
(10.9533 -1.03565 0)
(10.8611 -1.0438 0)
(10.9448 -1.06729 0)
(10.8435 -1.07149 0)
(10.9214 -1.09152 0)
(10.8086 -1.08961 0)
(10.8771 -1.10528 0)
(10.7556 -1.09762 0)
(10.8113 -1.10955 0)
(10.6872 -1.1019 0)
(10.7368 -1.11796 0)
(10.618 -1.11502 0)
(10.6651 -1.12968 0)
(10.548 -1.12277 0)
(10.5915 -1.1347 0)
(10.4707 -1.12159 0)
(10.5151 -1.12872 0)
(10.3965 -1.11545 0)
(10.4383 -1.1226 0)
(10.3134 -1.10875 0)
(10.3564 -1.1167 0)
(10.2332 -1.1042 0)
(10.2846 -1.11968 0)
(10.1727 -1.10336 0)
(10.2238 -1.11246 0)
(10.126 -1.08634 0)
(10.1665 -1.0839 0)
(10.0796 -1.04203 0)
(10.1083 -1.03697 0)
(10.0302 -0.987778 0)
(10.0422 -0.978347 0)
(9.97066 -0.936521 0)
(9.97538 -0.928242 0)
(9.91014 -0.88009 0)
(9.89811 -0.861724 0)
(9.83506 -0.800735 0)
(9.80854 -0.782823 0)
(9.75086 -0.721732 0)
(9.72352 -0.710224 0)
(9.67325 -0.653367 0)
(9.64577 -0.657977 0)
(9.61061 -0.614424 0)
(9.5969 -0.634438 0)
(9.56911 -0.594835 0)
(9.57048 -0.625758 0)
(9.54162 -0.584257 0)
(9.54278 -0.622502 0)
(9.51643 -0.564032 0)
(9.51128 -0.589644 0)
(9.48717 -0.520604 0)
(9.4638 -0.543008 0)
(9.44663 -0.46484 0)
(9.40384 -0.486749 0)
(9.3914 -0.403124 0)
(9.32191 -0.422589 0)
(9.32242 -0.348979 0)
(9.26105 -0.397056 0)
(9.29709 -0.34197 0)
(9.21347 -0.380822 0)
(9.25638 -0.314956 0)
(9.14359 -0.350895 0)
(9.19093 -0.281706 0)
(9.06119 -0.323659 0)
(9.1365 -0.257624 0)
(9.00243 -0.31353 0)
(9.09516 -0.250684 0)
(8.96756 -0.312254 0)
(9.05782 -0.243377 0)
(8.94236 -0.304888 0)
(9.02229 -0.227888 0)
(8.90771 -0.286567 0)
(8.98341 -0.196957 0)
(8.86857 -0.259854 0)
(8.9339 -0.155786 0)
(8.82583 -0.224177 0)
(8.86793 -0.10942 0)
(8.77094 -0.182827 0)
(8.79264 -0.0618626 0)
(8.71358 -0.135959 0)
(8.70878 -0.0146048 0)
(8.65175 -0.0889249 0)
(8.61893 0.0214312 0)
(8.5803 -0.0499469 0)
(8.53865 0.0673201 0)
(8.50582 -0.0015102 0)
(8.46484 0.132598 0)
(8.44105 0.0484665 0)
(8.41343 0.166425 0)
(8.41084 0.0672529 0)
(8.37247 0.196052 0)
(8.38157 0.0965834 0)
(8.34098 0.210854 0)
(8.36992 0.104171 0)
(8.31513 0.228135 0)
(8.36481 0.122065 0)
(8.29746 0.268638 0)
(8.36519 0.150488 0)
(8.26044 0.307208 0)
(8.37434 0.185213 0)
(8.23801 0.357507 0)
(8.3723 0.215222 0)
(8.22702 0.412614 0)
(8.3733 0.261793 0)
(8.201 0.455418 0)
(8.38217 0.298343 0)
(8.19522 0.528476 0)
(8.40767 0.339517 0)
(8.14993 0.591884 0)
(8.46536 0.395047 0)
(8.0768 0.679833 0)
(8.49733 0.469741 0)
(7.98562 0.790019 0)
(8.52581 0.540921 0)
(7.90095 0.913227 0)
(8.56357 0.619838 0)
(7.79627 1.02972 0)
(8.60533 0.696792 0)
(7.68806 1.13422 0)
(8.6252 0.772667 0)
(7.60386 1.2513 0)
(8.5966 0.854967 0)
(7.53703 1.37797 0)
(8.56228 0.954244 0)
(7.46906 1.53148 0)
(8.54647 1.08514 0)
(7.4288 1.73612 0)
(8.50419 1.22918 0)
(7.43281 1.96575 0)
(8.41264 1.39708 0)
(7.47271 2.21405 0)
(8.31881 1.60575 0)
(7.50442 2.49273 0)
(8.29787 1.88118 0)
(7.46039 2.81753 0)
(8.3855 2.20096 0)
(7.33103 3.24465 0)
(8.6565 2.56613 0)
(7.12205 3.85456 0)
(9.15935 2.86172 0)
(6.97567 4.87978 0)
(9.86396 2.93233 0)
(7.40083 6.40823 0)
(10.1925 3.09129 0)
(8.97239 7.56695 0)
(11.5746 -0.101037 0)
(11.5791 -0.239677 0)
(11.7264 -0.300429 0)
(11.7804 -0.287977 0)
(11.8784 -0.25318 0)
(11.8665 -0.207841 0)
(11.911 -0.182139 0)
(11.8602 -0.163823 0)
(11.8875 -0.166571 0)
(11.8301 -0.170176 0)
(11.8619 -0.188425 0)
(11.81 -0.201594 0)
(11.8508 -0.225337 0)
(11.8051 -0.240319 0)
(11.8526 -0.263784 0)
(11.8099 -0.27671 0)
(11.8611 -0.297816 0)
(11.8188 -0.30837 0)
(11.8721 -0.328317 0)
(11.8292 -0.338751 0)
(11.8839 -0.360141 0)
(11.8388 -0.372676 0)
(11.8937 -0.396828 0)
(11.8445 -0.411323 0)
(11.8986 -0.437095 0)
(11.8444 -0.45164 0)
(11.8975 -0.476957 0)
(11.8389 -0.489585 0)
(11.8921 -0.513562 0)
(11.8309 -0.52406 0)
(11.8844 -0.547222 0)
(11.8224 -0.556864 0)
(11.8756 -0.580993 0)
(11.8142 -0.591244 0)
(11.8658 -0.616727 0)
(11.8058 -0.627689 0)
(11.8556 -0.654274 0)
(11.7982 -0.665935 0)
(11.8468 -0.693282 0)
(11.792 -0.706191 0)
(11.84 -0.735024 0)
(11.7869 -0.749981 0)
(11.8342 -0.780456 0)
(11.7803 -0.797076 0)
(11.8263 -0.828409 0)
(11.769 -0.844644 0)
(11.8127 -0.874763 0)
(11.7504 -0.888313 0)
(11.7912 -0.915294 0)
(11.7228 -0.924034 0)
(11.7604 -0.946781 0)
(11.6871 -0.95075 0)
(11.7228 -0.971444 0)
(11.6478 -0.974646 0)
(11.6834 -0.997038 0)
(11.6078 -1.00175 0)
(11.6402 -1.02489 0)
(11.5593 -1.02843 0)
(11.5834 -1.04909 0)
(11.4937 -1.0497 0)
(11.51 -1.06699 0)
(11.4099 -1.06216 0)
(11.4203 -1.07407 0)
(11.3094 -1.06308 0)
(11.318 -1.07401 0)
(11.2043 -1.06488 0)
(11.2142 -1.08132 0)
(11.0959 -1.07349 0)
(11.0974 -1.08881 0)
(10.9769 -1.07595 0)
(10.9717 -1.08769 0)
(10.8493 -1.07134 0)
(10.8444 -1.08233 0)
(10.7253 -1.0645 0)
(10.7162 -1.07392 0)
(10.5975 -1.05847 0)
(10.5907 -1.07319 0)
(10.4866 -1.06488 0)
(10.4907 -1.08553 0)
(10.3982 -1.07042 0)
(10.3987 -1.08269 0)
(10.3163 -1.05585 0)
(10.3032 -1.05252 0)
(10.2359 -1.01518 0)
(10.2125 -1.0065 0)
(10.1502 -0.959486 0)
(10.1251 -0.95071 0)
(10.0705 -0.909102 0)
(10.0375 -0.899493 0)
(9.98941 -0.840948 0)
(9.93739 -0.821603 0)
(9.89021 -0.756701 0)
(9.84105 -0.746787 0)
(9.79635 -0.681775 0)
(9.75826 -0.683572 0)
(9.71497 -0.618988 0)
(9.68483 -0.64165 0)
(9.64827 -0.584188 0)
(9.61915 -0.624083 0)
(9.58711 -0.570586 0)
(9.56995 -0.617223 0)
(9.53137 -0.559278 0)
(9.52498 -0.611956 0)
(9.47646 -0.536719 0)
(9.47212 -0.572534 0)
(9.41342 -0.491308 0)
(9.40574 -0.520519 0)
(9.34377 -0.43068 0)
(9.32081 -0.458151 0)
(9.25538 -0.358742 0)
(9.2189 -0.393355 0)
(9.19318 -0.325426 0)
(9.16261 -0.387404 0)
(9.14666 -0.311927 0)
(9.09171 -0.361935 0)
(9.08651 -0.272134 0)
(8.99823 -0.31961 0)
(9.00213 -0.23099 0)
(8.91116 -0.298617 0)
(8.928 -0.217162 0)
(8.84038 -0.301017 0)
(8.86758 -0.215171 0)
(8.78812 -0.302435 0)
(8.81418 -0.209957 0)
(8.74527 -0.294222 0)
(8.76176 -0.195059 0)
(8.69334 -0.278726 0)
(8.71583 -0.163886 0)
(8.63898 -0.249666 0)
(8.66785 -0.116786 0)
(8.58717 -0.208329 0)
(8.60768 -0.0672788 0)
(8.52316 -0.162404 0)
(8.53898 -0.0146942 0)
(8.45515 -0.116409 0)
(8.46037 0.038546 0)
(8.38257 -0.067987 0)
(8.36736 0.081302 0)
(8.30617 -0.0331467 0)
(8.27505 0.125894 0)
(8.24568 0.00830682 0)
(8.19022 0.179112 0)
(8.22541 0.0365516 0)
(8.15455 0.192921 0)
(8.22094 0.0522011 0)
(8.12494 0.231672 0)
(8.21144 0.0742518 0)
(8.0995 0.244222 0)
(8.22269 0.0748787 0)
(8.0744 0.272969 0)
(8.23306 0.0908221 0)
(8.04448 0.313887 0)