/*--------------------------------*- C++ -*----------------------------------*\
| =========                 |                                                 |
| \\      /  F ield         | OpenFOAM: The Open Source CFD Toolbox           |
|  \\    /   O peration     | Version:  2.4.0                                 |
|   \\  /    A nd           | Web:      www.OpenFOAM.org                      |
|    \\/     M anipulation  |                                                 |
\*---------------------------------------------------------------------------*/
FoamFile
{
    version     2.0;
    format      ascii;
    class       volScalarField;
    location    "1.8";
    object      k;
}
// * * * * * * * * * * * * * * * * * * * * * * * * * * * * * * * * * * * * * //

dimensions      [0 2 -2 0 0 0 0];

internalField   nonuniform List<scalar> 
8800
(
8.10943
10.2826
8.77977
6.84203
5.6832
5.0045
4.48975
4.18827
3.86792
3.71484
3.48972
3.42228
3.24001
3.20658
3.05065
3.02888
2.88717
2.86328
2.80046
2.59863
1.38988
4.36768
5.30914
5.29337
5.11041
4.85221
4.53042
4.34119
4.06579
3.93796
3.71702
3.64042
3.46564
3.41955
3.28867
3.24974
3.14088
3.10447
3.00147
3.00945
0.0832934
0.746487
1.54703
1.9636
2.23919
2.47263
2.5489
2.62133
2.61724
2.61314
2.57576
2.55612
2.50843
2.48768
2.44895
2.4188
2.39652
2.36624
2.30452
2.30158
0.00327908
0.0712895
0.248662
0.436287
0.564768
0.713833
0.833358
0.927317
1.02903
1.09998
1.16683
1.20379
1.26824
1.29123
1.34386
1.36056
1.40698
1.41582
1.43049
1.42344
0.000118649
0.00510009
0.0233836
0.0547999
0.0830025
0.117472
0.170349
0.19761
0.251128
0.281934
0.327979
0.349934
0.397565
0.417993
0.463546
0.48553
0.535234
0.558229
0.603507
0.617178
2.57134e-05
0.000327959
0.00174853
0.00413084
0.00731415
0.0107037
0.0186972
0.0240768
0.0354618
0.0434946
0.0549584
0.0611554
0.0749636
0.0822133
0.0940963
0.10644
0.117715
0.136016
0.151771
0.169229
2.21446e-05
4.519e-05
0.000138221
0.000350645
0.000472219
0.000724584
0.00107945
0.00182675
0.00257862
0.00419606
0.00490923
0.00641717
0.00740424
0.00937134
0.010418
0.0131612
0.0147373
0.0191238
0.0220009
0.0294825
2.11873e-05
2.96805e-05
4.75646e-05
9.27733e-05
9.84676e-05
0.000107377
0.000116629
0.000155157
0.000195841
0.000328423
0.000370542
0.000496826
0.000539515
0.00067682
0.000713761
0.000946025
0.00102712
0.00149531
0.00188111
0.00331542
2.07843e-05
2.98238e-05
3.83637e-05
5.7281e-05
7.29765e-05
8.04249e-05
7.92474e-05
7.67468e-05
7.54362e-05
8.0381e-05
8.8017e-05
0.000106526
0.000109357
0.000114013
0.000112816
0.000119566
0.000119025
0.000138947
0.000165204
0.000267944
2.06577e-05
2.79663e-05
3.89079e-05
5.43365e-05
5.68954e-05
6.41527e-05
7.16957e-05
7.28955e-05
7.18771e-05
7.10505e-05
7.07845e-05
7.19016e-05
7.63232e-05
7.97823e-05
8.09552e-05
8.09918e-05
7.89221e-05
7.87991e-05
8.01072e-05
8.31841e-05
2.05789e-05
2.69315e-05
4.21096e-05
6.03914e-05
6.05271e-05
6.03504e-05
6.40474e-05
7.25345e-05
7.34049e-05
7.31811e-05
7.04302e-05
7.00665e-05
7.14848e-05
7.92403e-05
8.27932e-05
8.29231e-05
8.13149e-05
8.31874e-05
8.30378e-05
8.51297e-05
2.08713e-05
3.00867e-05
4.25425e-05
5.07555e-05
6.53246e-05
7.60697e-05
8.05307e-05
8.14206e-05
8.05783e-05
8.02872e-05
8.11989e-05
9.0225e-05
0.000103673
0.000113067
0.000116344
0.000120318
0.000130022
0.000152326
0.000159357
0.000174385
2.10254e-05
3.1144e-05
4.39924e-05
7.45382e-05
9.98036e-05
0.000122562
0.000137978
0.000176837
0.000198677
0.000262719
0.000314099
0.000435941
0.000504688
0.000679062
0.000782706
0.00103966
0.00121685
0.0016105
0.00181839
0.00229976
2.16067e-05
4.26535e-05
0.000117363
0.000371417
0.000544639
0.000912426
0.00123086
0.00203619
0.00252658
0.00379247
0.00457839
0.00636751
0.00736695
0.00982302
0.0111606
0.0143389
0.0161365
0.020298
0.0225998
0.0287043
2.5062e-05
0.000302697
0.00142875
0.00487642
0.00756315
0.0129563
0.0172299
0.0270125
0.0321979
0.0442517
0.0507372
0.06475
0.0715495
0.0873035
0.0948554
0.112604
0.121608
0.143038
0.154124
0.186249
0.000124144
0.00487988
0.0215763
0.0573208
0.0880353
0.123621
0.158644
0.211654
0.236514
0.287761
0.313531
0.362896
0.385137
0.434588
0.456166
0.506407
0.528914
0.584419
0.610763
0.682052
0.00337434
0.0691989
0.256195
0.424896
0.587925
0.69627
0.836472
0.934523
1.01586
1.09598
1.15913
1.21663
1.2554
1.3108
1.33345
1.38079
1.39925
1.44801
1.46802
1.51912
0.0845882
0.725312
1.56582
1.94455
2.2822
2.42508
2.58382
2.59669
2.62297
2.59765
2.58854
2.54159
2.52506
2.47506
2.4604
2.4169
2.40619
2.37849
2.36753
2.34236
1.40578
4.34625
5.32366
5.2876
5.13227
4.79758
4.58651
4.27193
4.13358
3.86865
3.77829
3.57952
3.52177
3.36678
3.33037
3.20187
3.17411
3.05781
3.02118
2.9233
8.11802
10.2605
8.80012
6.81159
5.7143
4.96148
4.53696
4.12733
3.93047
3.64919
3.55568
3.34902
3.30495
3.13728
3.10849
2.94809
2.91948
2.74563
2.68877
2.47642
1.85552
1.34875
0.971821
0.709343
0.541121
0.450121
0.393479
0.382122
0.387068
0.400794
0.427464
0.451419
0.475345
0.48885
0.497649
0.497668
0.495946
0.488864
0.48007
0.461557
0.445202
0.422927
0.404341
0.386703
0.370308
0.361107
0.351757
0.347224
0.346315
0.346017
0.346007
0.347488
0.349589
0.355032
0.363075
0.372911
0.390445
0.402513
0.418426
0.437241
0.443469
0.45574
0.455616
0.456518
0.454011
0.448967
0.441498
0.431539
0.419621
0.412763
0.408436
0.40658
0.40547
0.406366
0.405499
0.407503
0.406752
0.407214
0.405319
0.402113
0.395806
0.383875
0.36583
0.326312
0.271961
0.211522
0.15517
0.120778
0.0862767
0.0706536
0.061679
0.0595507
0.0595203
0.0601071
0.0635904
0.0658267
0.072646
0.0752101
0.0776713
0.0832042
0.0853062
0.0908359
0.0967848
0.10931
0.138558
0.165968
0.178542
0.178831
0.176777
0.167546
0.148794
0.0983305
0.058467
0.0333433
0.0207727
0.0166474
0.0126312
0.0110243
0.0108299
0.00915491
0.00748537
0.00717756
0.00623174
0.00567499
0.00591243
0.00563524
0.00494017
0.0050135
0.00515185
0.0052938
0.00603622
0.00822604
0.0136584
0.0296746
0.119098
0.218261
0.241961
0.236763
0.205993
0.155091
0.118966
0.0961851
0.0827142
0.0729492
0.067177
0.0643963
0.0606993
0.0578141
0.0564233
0.056427
0.0571992
0.0594044
0.0627343
0.0689922
0.0881517
0.108146
0.113731
0.11386
0.114562
0.118163
0.143853
0.184286
0.188592
0.17235
0.147999
0.141043
0.136176
0.126103
0.103678
0.069509
0.0499858
0.0402568
0.0335442
0.0312474
0.0289962
0.0269387
0.0256117
0.0253276
0.0253326
0.0263259
0.0261494
0.0264342
0.0259125
0.0268266
0.0272669
0.0298336
0.0331494
0.0393672
0.0436183
0.0509874
0.0626102
0.0708594
0.0867562
0.130636
0.148374
0.146614
0.149803
0.164962
0.199043
0.212983
0.214075
0.197457
0.147538
0.126457
0.100856
0.0809055
0.0764151
0.0815513
0.0887096
0.109369
0.119257
0.135737
0.147249
0.150501
0.143425
0.112926
0.0986842
0.100776
0.147263
0.965527
2.56558
2.11284
1.77373
1.51365
1.30882
1.14738
1.02904
0.941005
0.876104
0.830415
0.795473
0.769871
0.748967
0.73177
0.716943
0.701975
0.689717
0.675524
0.663747
0.651915
0.63717
0.628348
0.609089
0.600901
0.583355
0.575301
0.558695
0.552529
0.539698
0.535074
0.525197
0.521889
0.513944
0.510101
0.501484
0.497891
0.490083
0.487868
0.480637
0.478095
0.46894
0.463729
0.453656
0.4409
0.431392
0.413618
0.399858
0.383578
0.367769
0.351517
0.337262
0.322498
0.306141
0.292198
0.281899
0.279436
0.279549
0.281778
0.287765
0.301057
0.327839
0.351293
0.371269
0.381224
0.383779
0.38253
0.373181
0.347659
0.285204
0.248318
0.203816
0.168
0.151873
0.129858
0.123607
0.123149
0.121464
0.122677
0.13129
0.139514
0.149068
0.16969
0.188206
0.197519
0.198322
0.196738
0.191031
0.179543
0.161926
0.121177
0.0722871
0.0402094
0.0246853
0.0160938
0.0128282
0.0113909
0.00996771
0.00981043
0.00959764
0.00814166
0.00733796
0.00710648
0.00633671
0.00626315
0.00640567
0.00580817
0.00538273
0.00586322
0.00633387
0.00676178
0.00798076
0.0112702
0.0193248
0.0519368
0.178719
0.242232
0.244472
0.216445
0.175212
0.137997
0.110177
0.0897423
0.077604
0.069427
0.0652985
0.0633903
0.0606277
0.0572796
0.0560619
0.0560499
0.0557392
0.0562483
0.0576205
0.0605606
0.0704318
0.0929589
0.103798
0.107369
0.108737
0.1113
0.122621
0.161945
0.180014
0.17423
0.148662
0.137348
0.134896
0.131998
0.124104
0.106861
0.0729532
0.0542552
0.042095
0.0367544
0.0328466
0.0310046
0.0285951
0.0286499
0.0282513
0.0285954
0.028512
0.0272808
0.0275156
0.0276966
0.0298559
0.0315387
0.0388418
0.0426691
0.0526096
0.0568194
0.0683464
0.0760073
0.0876126
0.12783
0.146884
0.150116
0.152634
0.163477
0.223452
0.25391
0.257564
0.237861
0.186455
0.161741
0.15113
0.112173
0.0845587
0.0843773
0.091967
0.0969324
0.106584
0.127524
0.14378
0.14602
0.144293
0.125977
0.100976
0.09372
0.12956
0.459686
2.09673
1.86741
1.65896
1.48592
1.34174
1.22555
1.12318
1.04577
0.973339
0.919211
0.868097
0.828073
0.792851
0.76153
0.737023
0.714412
0.69394
0.678529
0.658867
0.648988
0.628913
0.620761
0.603664
0.596156
0.580938
0.573035
0.562317
0.553136
0.545427
0.537908
0.52834
0.523791
0.513093
0.507507
0.495714
0.489245
0.474229
0.466448
0.45161
0.43704
0.424332
0.403534
0.387266
0.365449
0.346627
0.32333
0.301487
0.280482
0.260766
0.240796
0.223269
0.207905
0.19459
0.182405
0.171937
0.163789
0.16211
0.162037
0.163149
0.165873
0.173221
0.182054
0.191447
0.203234
0.229395
0.258677
0.287522
0.306051
0.315879
0.3172
0.317267
0.314964
0.303959
0.297134
0.284337
0.27352
0.270484
0.261104
0.254659
0.250748
0.242367
0.235402
0.229064
0.213454
0.202268
0.178426
0.147489
0.109854
0.0675
0.0399319
0.0236073
0.0152291
0.0114349
0.00972495
0.00938546
0.00903819
0.00892131
0.00919104
0.00917499
0.00820411
0.00798589
0.00798609
0.00759052
0.00728751
0.00714872
0.00649059
0.00648605
0.00755936
0.00838884
0.0093088
0.0115257
0.0169813
0.0301851
0.106206
0.226481
0.253837
0.235371
0.187877
0.159537
0.126235
0.103583
0.0839775
0.0754271
0.0685528
0.0649032
0.0646392
0.0649161
0.0645017
0.0628575
0.0604899
0.0563765
0.0548921
0.0551933
0.0562417
0.0610549
0.0815404
0.0956472
0.101019
0.103199
0.105279
0.110877
0.13752
0.167227
0.168266
0.151596
0.133682
0.131705
0.13151
0.130486
0.125254
0.111932
0.0877289
0.0634834
0.0504464
0.0426139
0.0384068
0.0345736
0.0331204
0.0339889
0.0336433
0.0350673
0.0330795
0.0343156
0.0338519
0.0373783
0.0377629
0.0441942
0.0473808
0.059148
0.0625709
0.0707722
0.0793809
0.0902084
0.11225
0.140666
0.150339
0.15125
0.166542
0.264681
0.30019
0.304052
0.281814
0.232378
0.221931
0.239063
0.222433
0.149781
0.10362
0.100729
0.0984544
0.0992691
0.1083
0.134161
0.142656
0.142522
0.135546
0.110088
0.0940131
0.112455
0.234111
1.33954
1.24857
1.15859
1.07891
1.00398
0.939081
0.875506
0.823541
0.774601
0.731563
0.694223
0.656109
0.628931
0.596744
0.575358
0.553354
0.534332
0.521421
0.504753
0.493811
0.481114
0.467492
0.458712
0.443409
0.43667
0.423105
0.416344
0.407049
0.397594
0.393037
0.384345
0.377934
0.370777
0.363473
0.354209
0.344875
0.334022
0.320439
0.309138
0.291609
0.277082
0.258676
0.240428
0.218505
0.198667
0.177044
0.155556
0.137679
0.118565
0.105521
0.0922595
0.0830916
0.075761
0.069373
0.0648432
0.0596255
0.0576054
0.0572413
0.0575212
0.0591012
0.061547
0.0674659
0.0719002
0.0829087
0.0914198
0.102112
0.121456
0.131749
0.160425
0.173234
0.190154
0.207438
0.212756
0.223331
0.223243
0.221291
0.219736
0.215209
0.203247
0.195431
0.179115
0.15698
0.13856
0.112395
0.0843124
0.0592549
0.0396036
0.0260708
0.0166668
0.0113935
0.00851915
0.00742878
0.00746947
0.00767655
0.00810297
0.00831342
0.00844177
0.00940167
0.00970479
0.00969118
0.0101628
0.0103991
0.00981732
0.00949923
0.00942269
0.00892612
0.00906048
0.0102029
0.0107667
0.0124141
0.0162679
0.024506
0.0480245
0.173812
0.257422
0.259671
0.211022
0.175468
0.149692
0.121071
0.0988345
0.0816483
0.0747534
0.0688271
0.0675051
0.0673636
0.0673081
0.0670062
0.0664656
0.0638607
0.0567051
0.0531924
0.0528326
0.0533163
0.0560864
0.0718719
0.0887537
0.0960761
0.0986865
0.0999148
0.102788
0.114082
0.149131
0.160093
0.155679
0.13605
0.127173
0.128283
0.133746
0.133881
0.131883
0.123618
0.107869
0.0853819
0.0677229
0.0564468
0.049828
0.0432309
0.0429398
0.0425218
0.0438018
0.0431059
0.0432597
0.0438483
0.0447358
0.0460056
0.0493876
0.0523462
0.0611917
0.065413
0.0718085
0.08024
0.089607
0.106554
0.13686
0.145358
0.148543
0.170936
0.295577
0.334058
0.329336
0.300576
0.266559
0.24503
0.285482
0.37108
0.325049
0.190375
0.125479
0.10496
0.0990711
0.102789
0.118653
0.136743
0.138529
0.134602
0.126714
0.0977662
0.102028
0.14809
0.596328
0.573382
0.547461
0.521123
0.503209
0.476293
0.459677
0.434312
0.416322
0.396075
0.376523
0.360679
0.340418
0.327299
0.308757
0.29747
0.285243
0.274807
0.269934
0.259966
0.256212
0.248304
0.244373
0.23583
0.229226
0.224775
0.21591
0.21103
0.204701
0.19936
0.194049
0.187946
0.183198
0.176789
0.1711
0.163585
0.156949
0.148034
0.139306
0.129145
0.118929
0.106595
0.0956635
0.0832312
0.0729095
0.0627675
0.0529641
0.0456967
0.0379762
0.033309
0.0285985
0.0255975
0.0233602
0.0215606
0.0205522
0.0190153
0.0181041
0.0176751
0.0176749
0.0178725
0.0182788
0.0194434
0.0205804
0.0233598
0.0252261
0.0290766
0.034065
0.0367848
0.0449585
0.0511248
0.057204
0.0632046
0.0676623
0.0714902
0.0719189
0.071096
0.0691616
0.0663243
0.0594361
0.0537047
0.0451735
0.0373347
0.0299829
0.0228079
0.0170931
0.0123063
0.00890081
0.00689839
0.00558418
0.00538654
0.00551774
0.00579888
0.00679205
0.00721592
0.00799
0.00916208
0.0103482
0.013046
0.0137026
0.0136513
0.0142289
0.0142128
0.0132326
0.0133693
0.0132312
0.0125992
0.012917
0.014572
0.015288
0.0170377
0.0212184
0.0310571
0.0753335
0.225642
0.276911
0.258034
0.190387
0.165172
0.143718
0.118413
0.0954364
0.0812473
0.0745284
0.0699017
0.0704471
0.0691307
0.0683066
0.067304
0.0650263
0.0604255
0.0541331
0.0506069
0.0502708
0.0505843
0.0522689
0.063153
0.0810765
0.0895656
0.0937848
0.0959488
0.0972113
0.101922
0.123889
0.148869
0.150809
0.140359
0.12405
0.121224
0.127409
0.131735
0.137994
0.139507
0.13646
0.130707
0.115913
0.103477
0.0914199
0.0778574
0.0659771
0.0630448
0.0611321
0.0618282
0.0587395
0.0597318
0.0588403
0.0599254
0.061113
0.0632594
0.0689875
0.0733919
0.08125
0.0849275
0.0906786
0.106219
0.138038
0.144593
0.147002
0.170113
0.304101
0.34585
0.341111
0.308751
0.279446
0.260314
0.276222
0.420527
0.472805
0.385493
0.19465
0.126985
0.101571
0.0993911
0.108106
0.12351
0.13531
0.133375
0.133056
0.109135
0.0995335
0.117273
0.165504
0.160892
0.155862
0.149314
0.147272
0.143269
0.141175
0.136052
0.131905
0.128239
0.120581
0.117188
0.110511
0.106942
0.100133
0.0963273
0.0920949
0.0880105
0.0867322
0.0840993
0.0832955
0.081542
0.0804691
0.0790683
0.0755281
0.0739286
0.0708321
0.0685401
0.0659494
0.0639833
0.0619525
0.0596695
0.0574092
0.0551176
0.052537
0.0499066
0.0468328
0.0440099
0.0406206
0.0373645
0.0342482
0.0305021
0.0276465
0.0239709
0.0211098
0.0181026
0.0152579
0.0129354
0.0106692
0.00915266
0.00784039
0.00700044
0.0064174
0.00604749
0.00577822
0.00546032
0.00518704
0.00501753
0.00500855
0.00503266
0.00510473
0.00530285
0.00569194
0.00600337
0.00669533
0.00757356
0.00851402
0.00930539
0.010673
0.012445
0.0133354
0.0148091
0.0163917
0.0169166
0.0169546
0.0167544
0.0161252
0.0151001
0.0134758
0.0118343
0.00991287
0.00813517
0.00659448
0.00536133
0.00446877
0.00385602
0.00385519
0.00391879
0.00412384
0.00484312
0.0054628
0.00690286
0.00903688
0.0102766
0.0135773
0.016281
0.0184643
0.0204076
0.02036
0.0203625
0.0215413
0.0214289
0.0198006
0.0190716
0.0173966
0.0162572
0.0164088
0.0184752
0.0196261
0.0214727
0.0263574
0.0405352
0.127958
0.278346
0.294372
0.241891
0.179331
0.154467
0.137176
0.11577
0.0938646
0.0853201
0.0749394
0.0703443
0.0725635
0.0719826
0.0709228
0.0681973
0.0622708
0.0559321
0.0523304
0.0501132
0.0498509
0.0498289
0.0511704
0.0617003
0.0783666
0.0872481
0.089921
0.0922262
0.0934198
0.0957775
0.104354
0.127117
0.139258
0.136879
0.127573
0.116529
0.116044
0.119389
0.128985
0.138206
0.141837
0.141664
0.140107
0.134125
0.131219
0.12537
0.113693
0.105586
0.0964466
0.0907837
0.082406
0.0800563
0.0735077
0.0719123
0.0710599
0.0715955
0.0750135
0.0797591
0.0866186
0.0911706
0.0962536
0.109996
0.141561
0.14215
0.141107
0.155821
0.2993
0.341448
0.34603
0.319737
0.330943
0.290323
0.275501
0.336595
0.500322
0.518681
0.345035
0.173698
0.111258
0.0969408
0.100632
0.115896
0.132818
0.132113
0.132343
0.119026
0.101089
0.106154
0.0289046
0.0278918
0.026674
0.0253595
0.0252265
0.025183
0.0253035
0.0252834
0.0247796
0.0243728
0.0232585
0.0225546
0.0212529
0.0206922
0.0196277
0.0187568
0.018093
0.0173178
0.0171354
0.0167997
0.0167762
0.0167471
0.0166624
0.0165576
0.0160814
0.0155677
0.0148938
0.0142659
0.0138739
0.013377
0.0131427
0.0127482
0.0123891
0.0118888
0.0112171
0.0106918
0.00979777
0.00926571
0.00838981
0.00778652
0.00712357
0.00641753
0.00589956
0.00517531
0.00464559
0.00400188
0.00343252
0.00290107
0.00242548
0.00206827
0.00177915
0.00158923
0.00146424
0.00138729
0.00132988
0.00126049
0.00121145
0.00118907
0.00119085
0.00120371
0.00121872
0.00125692
0.0013424
0.00140086
0.00154328
0.00168044
0.00195405
0.00212266
0.00244086
0.00282013
0.00298658
0.00336062
0.00372631
0.00379766
0.00379925
0.00376038
0.00354582
0.00338992
0.00304811
0.00279783
0.00255648
0.002447
0.00247782
0.00256161
0.00274268
0.00307358
0.00393339
0.00486113
0.00696463
0.00987134
0.0119068
0.0172252
0.0205538
0.0232789
0.029105
0.0309741
0.0321398
0.0324728
0.0316716
0.0311045
0.030968
0.0294354
0.0261337
0.0253028
0.0236185
0.0221197
0.022582
0.0234352
0.0237539
0.0258893
0.0343989
0.0615654
0.214804
0.319265
0.305431
0.210924
0.159802
0.140711
0.132173
0.114795
0.0944551
0.0901115
0.079654
0.0723603
0.0731293
0.0740127
0.0739157
0.0666682
0.0600017
0.0551505
0.0530232
0.0514458
0.0505501
0.0501518
0.0515105
0.0631285
0.0788715
0.0875457
0.0898419
0.0902869
0.090835
0.0917059
0.0950807
0.104692
0.120728
0.128252
0.125734
0.1174
0.110749
0.108972
0.110578
0.117582
0.128045
0.134323
0.1372
0.137225
0.137076
0.135817
0.131846
0.128932
0.12099
0.114426
0.105138
0.10095
0.0899688
0.0863265
0.0833586
0.0846652
0.0858841
0.0927812
0.0935378
0.096396
0.0990375
0.112085
0.139788
0.139216
0.137718
0.149011
0.2644
0.305553
0.341654
0.340499
0.353111
0.332044
0.300162
0.29421
0.433094
0.519477
0.466245
0.244744
0.135478
0.0992228
0.0976133
0.103272
0.126465
0.128417
0.128676
0.124742
0.10701
0.103695
0.00327989
0.00317047
0.00300114
0.00290615
0.00291899
0.00296044
0.00307123
0.00316094
0.00317953
0.00316925
0.00303092
0.00288261
0.00264866
0.00250237
0.00233447
0.00221111
0.00212466
0.00206204
0.00205515
0.00205266
0.00206819
0.00209213
0.00211774
0.0021269
0.00211577
0.00205477
0.00193919
0.0018422
0.00178072
0.00171484
0.00168968
0.00164605
0.00162239
0.00156789
0.00151122
0.0014364
0.00132373
0.00125536
0.00112773
0.00106516
0.000965261
0.00089932
0.000831643
0.00076384
0.000704242
0.000637961
0.000580331
0.000517785
0.000470772
0.000430673
0.000391156
0.000373907
0.000358772
0.000353518
0.000349223
0.000341839
0.000336545
0.000330254
0.000328254
0.00032612
0.000325239
0.000327066
0.000329161
0.000334602
0.000343782
0.000359721
0.000382628
0.000399391
0.000441169
0.000501282
0.000564247
0.000597168
0.000673056
0.000712497
0.000796376
0.000880874
0.000939248
0.00109801
0.00126071
0.00138576
0.00166652
0.00206679
0.00251761
0.00371527
0.00509364
0.00769731
0.0118396
0.0154595
0.0239321
0.0286579
0.0355186
0.0438266
0.0465209
0.0514897
0.0547349
0.0543586
0.0524897
0.0512578
0.0472924
0.0454988
0.0444069
0.0391397
0.034991
0.0339713
0.0304015
0.0281861
0.0293911
0.0297007
0.0300396
0.0343661
0.0513048
0.10663
0.28942
0.340746
0.287019
0.182369
0.142816
0.131522
0.128014
0.115135
0.0979576
0.0926453
0.0872581
0.0773535
0.0735699
0.076855
0.0815064
0.0745839
0.0633183
0.0573798
0.056985
0.0555609
0.0528628
0.0516637
0.0534068
0.0676993
0.0817508
0.0890929
0.0906352
0.0903727
0.0906618
0.0905485
0.0917072
0.0945068
0.102028
0.111108
0.115732
0.113598
0.108445
0.105785
0.100757
0.0981132
0.0988565
0.102771
0.108492
0.116395
0.118887
0.1207
0.120586
0.1208
0.117756
0.115825
0.110519
0.1057
0.0960106
0.0925159
0.0908005
0.0908353
0.0917389
0.0979457
0.0996545
0.101066
0.104144
0.123714
0.140142
0.1381
0.134439
0.140892
0.189433
0.246159
0.282945
0.329715
0.342198
0.343172
0.320499
0.308421
0.371445
0.487632
0.487398
0.295407
0.159492
0.104158
0.0966218
0.0968681
0.115904
0.121472
0.123011
0.123736
0.11701
0.103322
0.000266522
0.00026624
0.000267768
0.00027134
0.000284821
0.000299569
0.000318832
0.000338228
0.000343745
0.000339492
0.000313259
0.000285172
0.000258077
0.000239933
0.00022376
0.000213766
0.00020909
0.000208235
0.00021093
0.000216261
0.000222824
0.000227976
0.00023204
0.000234035
0.000233375
0.000226527
0.000213558
0.000203995
0.000196356
0.000191471
0.000189289
0.000187893
0.000187547
0.000187009
0.000186774
0.000183754
0.000180941
0.000180191
0.000181178
0.000183208
0.000186746
0.000190781
0.000192727
0.000198817
0.000201553
0.000205434
0.000206795
0.000209357
0.000212793
0.000220538
0.000232762
0.00024538
0.000266743
0.000280459
0.000291388
0.000294422
0.000292895
0.000289974
0.00028032
0.000265671
0.000254003
0.000243501
0.000235909
0.000225265
0.000220128
0.000217073
0.000217403
0.000219944
0.000227208
0.000237686
0.000263728
0.000289038
0.000341626
0.000396451
0.000527489
0.000712787
0.000875777
0.00126687
0.0018812
0.00249884
0.0040664
0.00591993
0.00853547
0.0140978
0.0192567
0.0292721
0.0403199
0.0532716
0.0671873
0.0780107
0.0887807
0.0962646
0.0981604
0.0981206
0.0968238
0.0904957
0.084284
0.0787689
0.0710612
0.0673788
0.0595957
0.0497008
0.0463655
0.0445859
0.0392595
0.0380818
0.039019
0.0379681
0.0379429
0.0425247
0.0617891
0.147181
0.332116
0.353942
0.262003
0.166464
0.133914
0.127089
0.124496
0.112731
0.100582
0.0944145
0.0914456
0.0836937
0.0740527
0.0770149
0.0828835
0.0879142
0.084771
0.0755386
0.0739877
0.0681483
0.0612381
0.0585876
0.0643442
0.0801565
0.0892648
0.0924994
0.0929881
0.0916155
0.0913754
0.090863
0.0913703
0.0933039
0.0947998
0.0979252
0.0981312
0.0984121
0.0973045
0.0945307
0.0898925
0.0860003
0.0797467
0.0766153
0.0755539
0.0757549
0.0747759
0.0741881
0.077953
0.08644
0.0921054
0.0951487
0.097215
0.0963168
0.0956841
0.0933844
0.0943807
0.0949159
0.097832
0.101313
0.102523
0.102537
0.106493
0.131046
0.141467
0.13479
0.134106
0.138339
0.174571
0.204843
0.21586
0.258704
0.339091
0.350668
0.344948
0.33163
0.359476
0.446623
0.476449
0.352355
0.185653
0.111211
0.0985857
0.0940248
0.103238
0.115874
0.117721
0.121673
0.118714
0.105325
8.61627e-05
9.14809e-05
9.52103e-05
0.000101931
0.000104965
0.000106307
0.000106587
0.000107159
0.000107087
0.000105835
0.000104876
0.000104487
0.000103972
0.000103712
0.000103199
0.000102847
0.000102778
0.000103695
0.000104753
0.000104948
0.000104058
0.000101949
0.000101202
0.000101271
0.000102685
0.000104596
0.00010575
0.000105986
0.000105657
0.000105081
0.000104731
0.000104791
0.000105714
0.000106755
0.000108322
0.000110699
0.000121065
0.000135148
0.000159797
0.000181884
0.000212356
0.000229637
0.000259923
0.000277456
0.000295181
0.000318516
0.000334576
0.000376999
0.000420081
0.000494979
0.000590207
0.000648423
0.000744432
0.00079292
0.000824856
0.000835313
0.000831108
0.000820476
0.000793684
0.000752547
0.000700242
0.000643255
0.000614397
0.000566304
0.000522629
0.000485305
0.000470106
0.000471721
0.000482448
0.000508934
0.000584142
0.000678949
0.000886852
0.00114315
0.00163366
0.00242426
0.00314218
0.00491872
0.0072054
0.00989405
0.0164561
0.0223054
0.0330608
0.0496277
0.0668073
0.0922365
0.117874
0.143092
0.164731
0.181908
0.19042
0.190075
0.185799
0.179075
0.163511
0.142286
0.133593
0.119081
0.104772
0.093686
0.0784217
0.0692048
0.0658362
0.0593126
0.0522341
0.0512527
0.0518551
0.0508195
0.05132
0.0579981
0.0810987
0.203056
0.365323
0.362627
0.247169
0.160807
0.13092
0.125922
0.122647
0.110372
0.101303
0.0964497
0.0938734
0.0925831
0.0817057
0.0778695
0.080417
0.0889126
0.0918103
0.094238
0.089055
0.0844605
0.0773626
0.0760998
0.0793815
0.0937637
0.0988617
0.10017
0.0995799
0.0950001
0.0930691
0.0920265
0.0921983
0.0938207
0.0937713
0.0940297
0.0932344
0.0912103
0.0876957
0.0828543
0.0795459
0.0762765
0.0698559
0.062954
0.0575165
0.0535506
0.0506012
0.0478875
0.047725
0.0480624
0.0583829
0.0687975
0.0798687
0.0831001
0.0884728
0.0901218
0.0940087
0.0962902
0.0985673
0.101363
0.10285
0.104345
0.11817
0.144375
0.148785
0.130893
0.12605
0.134695
0.169725
0.188988
0.190889
0.224819
0.352391
0.346899
0.352067
0.337965
0.368309
0.404151
0.416316
0.332545
0.194673
0.115484
0.0982326
0.0913715
0.0950411
0.11155
0.113062
0.118854
0.118757
0.111304
8.6691e-05
8.77595e-05
8.98703e-05
9.10779e-05
9.29661e-05
9.76112e-05
0.000101387
0.000103273
0.000103403
0.000103072
0.000103074
0.000106922
0.00012111
0.000132436
0.000139507
0.000141198
0.000139895
0.000132901
0.000124071
0.000117931
0.000114151
0.000113437
0.000119453
0.000150296
0.000184732
0.000216396
0.000239129
0.000253263
0.000258711
0.000259108
0.000254904
0.000252381
0.000252211
0.000253369
0.000258903
0.000278613
0.000395545
0.000501302
0.000686894
0.000840622
0.00100121
0.00112925
0.00127097
0.00135199
0.00144642
0.00154969
0.00164936
0.00187154
0.00207836
0.00234878
0.00261204
0.00286056
0.00308692
0.00318506
0.00321007
0.00320405
0.00316447
0.00309392
0.00290713
0.00278611
0.0026109
0.00247933
0.00242107
0.00228348
0.00211936
0.00199348
0.00196536
0.00198007
0.00204115
0.00217632
0.00256913
0.00297183
0.0038931
0.00520947
0.00658222
0.00990389
0.012802
0.0186722
0.0256541
0.0381026
0.0556002
0.0768727
0.109636
0.150804
0.189997
0.244935
0.286719
0.325502
0.353073
0.356686
0.354537
0.345886
0.3235
0.293467
0.251747
0.226432
0.203794
0.168067
0.145728
0.129524
0.10932
0.0989606
0.090883
0.0790545
0.0733173
0.0724149
0.0715386
0.0672639
0.0676307
0.076289
0.105417
0.261254
0.387253
0.365709
0.243356
0.163556
0.132429
0.126647
0.121063
0.109643
0.102717
0.0992865
0.0968406
0.09539
0.0922629
0.0852868
0.0814096
0.0842831
0.0863525
0.0910131
0.0872058
0.0868662
0.0822963
0.0848113
0.0916585
0.103617
0.108471
0.106502
0.106704
0.101837
0.0971726
0.0951924
0.0943367
0.0951252
0.0950733
0.0947093
0.0933886
0.0913471
0.0885668
0.0817042
0.0748843
0.0691604
0.0631748
0.056161
0.0505502
0.0460545
0.0432054
0.0410935
0.0404038
0.039792
0.0401256
0.0444917
0.0527924
0.0662108
0.0749942
0.0791431
0.087388
0.0949145
0.0972496
0.100606
0.104489
0.111816
0.135707
0.157606
0.158785
0.134086
0.114134
0.114608
0.122442
0.151033
0.171771
0.235294
0.359799
0.383333
0.369639
0.337161
0.365624
0.392324
0.385979
0.299531
0.18511
0.114136
0.0958462
0.0920919
0.0938259
0.107319
0.112581
0.117166
0.117964
0.113547
0.000196717
0.000222155
0.00024425
0.000251654
0.000251482
0.000243843
0.00022647
0.000219315
0.000217868
0.00022032
0.000252872
0.000368545
0.000505257
0.000604606
0.000662069
0.0006766
0.000661102
0.000622117
0.000577795
0.000554698
0.000546937
0.000571749
0.000764946
0.00102236
0.001259
0.00144944
0.00157579
0.00164456
0.00166193
0.00165642
0.00165383
0.00165472
0.00166616
0.00168991
0.00182102
0.00219334
0.00292408
0.0034096
0.00420452
0.00477572
0.00536752
0.00586617
0.00627562
0.00659393
0.00699094
0.00738741
0.00793454
0.00855237
0.0091571
0.00984378
0.0104289
0.0109998
0.0112208
0.0112505
0.0112224
0.0110628
0.0108011
0.0102976
0.00977076
0.00929884
0.00886636
0.00860359
0.00838927
0.00794009
0.00754124
0.00742858
0.00744462
0.00756667
0.00800317
0.00859031
0.0100677
0.0116643
0.0147552
0.0192792
0.0237919
0.0338846
0.0455635
0.0599459
0.0880333
0.124043
0.167384
0.229531
0.303351
0.372841
0.438981
0.479662
0.501669
0.5104
0.508272
0.50136
0.484387
0.464915
0.434899
0.393192
0.352169
0.305301
0.259432
0.221393
0.195498
0.167591
0.143414
0.13426
0.125908
0.116618
0.112743
0.109374
0.0994464
0.0878192
0.0881063
0.0959377
0.130684
0.300995
0.384651
0.367518
0.279045
0.186776
0.138854
0.12606
0.119912
0.109783
0.1031
0.100963
0.102016
0.099542
0.0968612
0.0916962
0.0888061
0.0878354
0.0880167
0.0889981
0.0880447
0.0898209
0.0888771
0.100862
0.109744
0.11505
0.118946
0.11588
0.116353
0.114228
0.103747
0.100569
0.0983044
0.0978428
0.0979494
0.0963407
0.0947498
0.0931659
0.0906705
0.0832282
0.0750885
0.0694642
0.0633354
0.0564333
0.0509843
0.0467891
0.0429277
0.0400599
0.0382914
0.0376912
0.0375513
0.0377053
0.0402697
0.0486544
0.0615089
0.067627
0.0827525
0.0929338
0.0979561
0.104114
0.110293
0.128458
0.163333
0.171108
0.166318
0.137805
0.105281
0.0976207
0.100499
0.132015
0.178206
0.324209
0.430619
0.428783
0.361159
0.316349
0.36353
0.371143
0.346092
0.238983
0.165041
0.116169
0.096676
0.0943293
0.0945635
0.107089
0.117376
0.119081
0.120343
0.118805
0.00274729
0.00292355
0.00295714
0.00295582
0.00290095
0.00273955
0.00264254
0.00263933
0.0026695
0.00278578
0.00343849
0.0042853
0.00508005
0.00560452
0.00585345
0.00591353
0.00587388
0.0058015
0.00569101
0.00566316
0.00574095
0.00636645
0.00751712
0.00850894
0.00938726
0.0100106
0.0103437
0.0105578
0.0106354
0.0106961
0.0108193
0.0109266
0.0110743
0.0115011
0.0128743
0.0144351
0.0164774
0.0179774
0.0199227
0.0214686
0.0227404
0.0240792
0.0250224
0.0261258
0.0271737
0.0285469
0.0298667
0.031141
0.0325116
0.0336662
0.0342158
0.0342819
0.0341671
0.0338401
0.0332628
0.032119
0.0308438
0.0293561
0.0282047
0.0264745
0.0257128
0.0248581
0.0241007
0.0233453
0.0229945
0.0231263
0.0234793
0.0242446
0.0264419
0.0287673
0.0332665
0.0403299
0.0468309
0.0631271
0.0776524
0.105124
0.137941
0.182442
0.260872
0.337026
0.421779
0.488259
0.524839
0.551513
0.5672
0.566923
0.566377
0.562435
0.546836
0.535786
0.512134
0.486648
0.465522
0.428636
0.384453
0.346398
0.300415
0.260528
0.227629
0.208947
0.195183
0.183449
0.182737
0.186565
0.185038
0.182738
0.170572
0.143
0.137843
0.141192
0.167081
0.30527
0.377676
0.372235
0.319104
0.222459
0.153505
0.127707
0.118853
0.108843
0.102427
0.10135
0.104249
0.105189
0.104782
0.101423
0.0987206
0.0972652
0.0946526
0.0938415
0.09381
0.100781
0.10508
0.114808
0.127627
0.121411
0.12598
0.125398
0.123008
0.120463
0.111102
0.106923
0.105727
0.103016
0.102821
0.0999737
0.097969
0.0979529
0.0975856
0.0935861
0.0815697
0.075074
0.0683825
0.0611766
0.0547659
0.0496806
0.0449139
0.0418625
0.0414395
0.0417373
0.0426713
0.0434126
0.0438405
0.0461707
0.0579174
0.0660596
0.0879089
0.0966502
0.103598
0.107593
0.122246
0.157708
0.181327
0.181211
0.166373
0.118065