/*--------------------------------*- C++ -*----------------------------------*\
| =========                 |                                                 |
| \\      /  F ield         | OpenFOAM: The Open Source CFD Toolbox           |
|  \\    /   O peration     | Version:  2.4.0                                 |
|   \\  /    A nd           | Web:      www.OpenFOAM.org                      |
|    \\/     M anipulation  |                                                 |
\*---------------------------------------------------------------------------*/
FoamFile
{
    version     2.0;
    format      ascii;
    class       surfaceScalarField;
    location    "1.8";
    object      phi_0;
}
// * * * * * * * * * * * * * * * * * * * * * * * * * * * * * * * * * * * * * //

dimensions      [0 3 -1 0 0 0 0];

internalField   nonuniform List<scalar> 
17320
(
1.76386e-05
7.36144e-06
1.16201e-05
6.01849e-06
8.68065e-06
2.93942e-06
7.35316e-06
1.32749e-06
6.72303e-06
6.30128e-07
6.34278e-06
3.80249e-07
6.07124e-06
2.71544e-07
5.87679e-06
1.94448e-07
5.7104e-06
1.66385e-07
5.5762e-06
1.34206e-07
5.47414e-06
1.02055e-07
5.40216e-06
7.19838e-08
5.29568e-06
1.06483e-07
5.22523e-06
7.04477e-08
5.13336e-06
9.18683e-08
5.08255e-06
5.08053e-08
4.95555e-06
1.27008e-07
5.00639e-06
-5.08458e-08
4.74686e-06
2.59527e-07
-5.12755e-07
5.25962e-06
2.54646e-05
6.89685e-06
2.32509e-05
8.23217e-06
2.09874e-05
5.20293e-06
1.93168e-05
2.99811e-06
1.80828e-05
1.86414e-06
1.71095e-05
1.35352e-06
1.63632e-05
1.01785e-06
1.57827e-05
7.74921e-07
1.53085e-05
6.406e-07
1.49276e-05
5.15092e-07
1.46321e-05
3.97546e-07
1.43866e-05
3.17471e-07
1.41346e-05
3.58562e-07
1.39443e-05
2.60705e-07
1.37213e-05
3.14901e-07
1.35729e-05
1.9919e-07
1.33135e-05
3.86413e-07
1.33003e-05
-3.76314e-08
1.31091e-05
4.5067e-07
-4.4044e-07
1.30368e-05
2.66265e-05
5.27031e-06
2.71571e-05
7.70159e-06
2.67779e-05
5.58213e-06
2.62476e-05
3.52845e-06
2.5614e-05
2.4977e-06
2.48684e-05
2.09916e-06
2.41612e-05
1.725e-06
2.35135e-05
1.42271e-06
2.2935e-05
1.21909e-06
2.24388e-05
1.01129e-06
2.20362e-05
8.00083e-07
2.16834e-05
6.70337e-07
2.13437e-05
6.98275e-07
2.10805e-05
5.23813e-07
2.0784e-05
6.11477e-07
2.05617e-05
4.21491e-07
2.02628e-05
6.85283e-07
2.01281e-05
9.70226e-08
2.0096e-05
4.82812e-07
-6.38382e-07
2.02939e-05
2.63357e-05
3.93462e-06
2.75474e-05
6.48985e-06
2.80817e-05
5.04783e-06
2.84425e-05
3.16768e-06
2.86516e-05
2.28863e-06
2.86216e-05
2.12912e-06
2.8478e-05
1.86857e-06
2.82473e-05
1.65338e-06
2.79753e-05
1.49112e-06
2.76892e-05
1.29737e-06
2.74341e-05
1.05523e-06
2.71708e-05
9.33636e-07
2.69023e-05
9.66779e-07
2.66758e-05
7.503e-07
2.64293e-05
8.57954e-07
2.61782e-05
6.72635e-07
2.59718e-05
8.91693e-07
2.56492e-05
4.19624e-07
2.55063e-05
6.25669e-07
-2.34244e-07
2.51022e-05
2.60445e-05
2.8901e-06
2.7257e-05
5.27734e-06
2.805e-05
4.25485e-06
2.84931e-05
2.72461e-06
2.89641e-05
1.81757e-06
2.93158e-05
1.77749e-06
2.95884e-05
1.59594e-06
2.97459e-05
1.49591e-06
2.98698e-05
1.3672e-06
2.99221e-05
1.24511e-06
2.99715e-05
1.00578e-06
2.99573e-05
9.47883e-07
2.99484e-05
9.75637e-07
2.9901e-05
7.97752e-07
2.98979e-05
8.61031e-07
2.97481e-05
8.22445e-07
2.97551e-05
8.84675e-07
2.94472e-05
7.27551e-07
2.92436e-05
8.29183e-07
3.07874e-07
2.87015e-05
2.58249e-05
2.06524e-06
2.69691e-05
4.1331e-06
2.78452e-05
3.37871e-06
2.82381e-05
2.33173e-06
2.87017e-05
1.35398e-06
2.90631e-05
1.41612e-06
2.94539e-05
1.20508e-06
2.9692e-05
1.25786e-06
3.00167e-05
1.04253e-06
3.01687e-05
1.09309e-06
3.04405e-05
7.33999e-07
3.05114e-05
8.76968e-07
3.07442e-05
7.4277e-07
3.07633e-05
7.78666e-07
3.10244e-05
5.99967e-07
3.09674e-05
8.79428e-07
3.12312e-05
6.20861e-07
3.09834e-05
9.75376e-07
3.09706e-05
8.41938e-07
1.08167e-06
3.01968e-05
2.5678e-05
1.38725e-06
2.67094e-05
3.10173e-06
2.76106e-05
2.47745e-06
2.8037e-05
1.90534e-06
2.84986e-05
8.92425e-07
2.88332e-05
1.08153e-06
2.91964e-05
8.41872e-07
2.94568e-05
9.97401e-07
2.98347e-05
6.64625e-07
2.99553e-05
9.72502e-07
3.03147e-05
3.74672e-07
3.03665e-05
8.25079e-07
3.06703e-05
4.3905e-07
3.06861e-05
7.62848e-07
3.10085e-05
2.77536e-07
3.09728e-05
9.15107e-07
3.13517e-05
2.41986e-07
3.11591e-05
1.16795e-06
3.10439e-05
9.57147e-07
2.02118e-06
3.01044e-05
2.55479e-05
8.39364e-07
2.65512e-05
2.09838e-06
2.74508e-05
1.57791e-06
2.80397e-05
1.31638e-06
2.83471e-05
5.85006e-07
2.86647e-05
7.63924e-07
2.90157e-05
4.90956e-07
2.92907e-05
7.2231e-07
2.95504e-05
4.04968e-07
2.98548e-05
6.68127e-07
3.0079e-05
1.50498e-07
3.02732e-05
6.30816e-07
3.04531e-05
2.59198e-07
3.0669e-05
5.46934e-07
3.07453e-05
2.01219e-07
3.09365e-05
7.23929e-07
3.10498e-05
1.28662e-07
3.15112e-05
7.06565e-07
3.18628e-05
6.05521e-07
1.0945e-06
3.27895e-05
2.54743e-05
3.65059e-07
2.64923e-05
1.08041e-06
2.73173e-05
7.52849e-07
2.7893e-05
7.40757e-07
2.8228e-05
2.49957e-07
2.85961e-05
3.95867e-07
2.8918e-05
1.69053e-07
2.92294e-05
4.10858e-07
2.94376e-05
1.96803e-07
2.97257e-05
3.80055e-07
2.99037e-05
-2.74938e-08
3.02013e-05
3.33175e-07
3.03259e-05
1.34567e-07
3.05337e-05
3.39151e-07
3.05833e-05
1.51667e-07
3.09308e-05
3.76428e-07
3.10817e-05
-2.22419e-08
3.14045e-05
3.83747e-07
3.15722e-05
4.37766e-07
4.31829e-07
3.22349e-05
2.5428e-05
-6.29145e-08
2.6444e-05
6.43918e-08
2.72544e-05
-5.75364e-08
2.79102e-05
8.4952e-08
2.82031e-05
-4.30053e-08
2.84931e-05
1.05893e-07
2.88273e-05
-1.65174e-07
2.91812e-05
5.69755e-08
2.9414e-05
-3.59865e-08
2.96983e-05
9.57965e-08
2.98951e-05
-2.24302e-07
3.01109e-05
1.17347e-07
3.02407e-05
4.78862e-09
3.04493e-05
1.30559e-07
3.06551e-05
-5.41122e-08
3.09345e-05
9.70305e-08
3.10422e-05
-1.29976e-07
3.12969e-05
1.29055e-07
3.16675e-05
6.71815e-08
3.18867e-08
3.20674e-05
2.54234e-05
-4.8627e-07
2.64184e-05
-9.30627e-07
2.7248e-05
-8.8717e-07
2.79085e-05
-5.75527e-07
2.82254e-05
-3.59886e-07
2.8508e-05
-1.76767e-07
2.87812e-05
-4.3839e-07
2.9204e-05
-3.65762e-07
2.94351e-05
-2.67091e-07
2.97355e-05
-2.04643e-07
2.98341e-05
-3.22919e-07
3.00607e-05
-1.09218e-07
3.01932e-05
-1.27743e-07
3.04765e-05
-1.52733e-07
3.06578e-05
-2.35398e-07
3.09193e-05
-1.64452e-07
3.10087e-05
-2.19355e-07
3.1369e-05
-2.31293e-07
3.16945e-05
-2.5828e-07
-1.78397e-07
3.19048e-05
2.54637e-05
-9.50011e-07
2.64939e-05
-1.96083e-06
2.73194e-05
-1.7126e-06
2.79172e-05
-1.17338e-06
2.82293e-05
-6.71973e-07
2.86006e-05
-5.48066e-07
2.88661e-05
-7.03898e-07
2.92164e-05
-7.16006e-07
2.94802e-05
-5.30907e-07
2.9766e-05
-4.90449e-07
2.98907e-05
-4.47616e-07
3.01308e-05
-3.49294e-07
3.03195e-05
-3.16481e-07
3.05525e-05
-3.85739e-07
3.06996e-05
-3.82519e-07
3.09137e-05
-3.78496e-07
3.11422e-05
-4.47923e-07
3.14649e-05
-5.53948e-07
3.16643e-05
-4.57708e-07
-3.1828e-07
3.18042e-05
2.55418e-05
-1.49186e-06
2.66105e-05
-3.02948e-06
2.74113e-05
-2.51337e-06
2.80059e-05
-1.76802e-06
2.83173e-05
-9.8334e-07
2.86975e-05
-9.28279e-07
2.90161e-05
-1.02249e-06
2.93357e-05
-1.03558e-06
2.95542e-05
-7.49425e-07
2.98418e-05
-7.78037e-07
3.00207e-05
-6.26532e-07
3.02539e-05
-5.82545e-07
3.0409e-05
-4.7154e-07
3.06408e-05
-6.17518e-07
3.07692e-05
-5.10993e-07
3.10418e-05
-6.51093e-07
3.12716e-05
-6.77705e-07
3.15344e-05
-8.16698e-07
3.17581e-05
-6.81395e-07
-5.94068e-07
3.20338e-05
2.56751e-05
-2.16692e-06
2.67319e-05
-4.08635e-06
2.75809e-05
-3.36237e-06
2.80675e-05
-2.25454e-06
2.84828e-05
-1.39874e-06
2.88701e-05
-1.3155e-06
2.9182e-05
-1.33447e-06
2.94853e-05
-1.33886e-06
2.97332e-05
-9.97328e-07
3.00102e-05
-1.05505e-06
3.01918e-05
-8.08059e-07
3.04198e-05
-8.10547e-07
3.0584e-05
-6.35721e-07
3.0805e-05
-8.38534e-07
3.09548e-05
-6.60793e-07
3.12174e-05
-9.13699e-07
3.13644e-05
-8.24699e-07
3.16376e-05
-1.08993e-06
3.18986e-05
-9.42381e-07
-9.28953e-07
3.22335e-05
2.58385e-05
-3.00544e-06
2.69479e-05
-5.19577e-06
2.77962e-05
-4.21062e-06
2.82512e-05
-2.70959e-06
2.87203e-05
-1.86776e-06
2.91098e-05
-1.70506e-06
2.94503e-05
-1.67492e-06
2.97058e-05
-1.59438e-06
2.99579e-05
-1.24942e-06
3.01659e-05
-1.26311e-06
3.0368e-05
-1.01011e-06
3.0544e-05
-9.86574e-07
3.07148e-05
-8.06529e-07
3.0862e-05
-9.85756e-07
3.0985e-05
-7.83725e-07
3.11204e-05
-1.0491e-06
3.11925e-05
-8.96802e-07
3.13971e-05
-1.29452e-06
3.15622e-05
-1.10755e-06
-1.22332e-06
3.18566e-05
2.60251e-05
-4.03057e-06
2.72265e-05
-6.39718e-06
2.80401e-05
-5.02416e-06
2.85194e-05
-3.1889e-06
2.89817e-05
-2.33002e-06
2.93305e-05
-2.05389e-06
2.9582e-05
-1.92646e-06
2.9707e-05
-1.71933e-06
2.98429e-05
-1.38539e-06
2.98904e-05
-1.31053e-06
2.99548e-05
-1.07455e-06
2.99563e-05
-9.88083e-07
2.99738e-05
-8.2403e-07
2.99189e-05
-9.30868e-07
2.9883e-05
-7.47757e-07
2.9788e-05
-9.54156e-07
2.96985e-05
-8.07261e-07
2.96327e-05
-1.22874e-06
2.95698e-05
-1.04467e-06
-1.32582e-06
2.96723e-05
2.62951e-05
-5.32564e-06
2.75419e-05
-7.644e-06
2.80878e-05
-5.57007e-06
2.84534e-05
-3.55449e-06
2.86393e-05
-2.51592e-06
2.8631e-05
-2.04555e-06
2.84642e-05
-1.75974e-06
2.82138e-05
-1.4689e-06
2.79731e-05
-1.14469e-06
2.7682e-05
-1.01938e-06
2.74282e-05
-8.2076e-07
2.71601e-05
-7.19973e-07
2.69257e-05
-5.89623e-07
2.66506e-05
-6.55801e-07
2.64276e-05
-5.24805e-07
2.61415e-05
-6.68001e-07
2.59065e-05
-5.72294e-07
2.55783e-05
-9.00502e-07
2.53509e-05
-8.17321e-07
-1.20774e-06
2.52329e-05
2.65968e-05
-6.92243e-06
2.71631e-05
-8.21035e-06
2.67838e-05
-5.19076e-06
2.62423e-05
-3.01295e-06
2.55996e-05
-1.87326e-06
2.48797e-05
-1.32565e-06
2.41484e-05
-1.02845e-06
2.34925e-05
-8.12972e-07
2.29403e-05
-5.92477e-07
2.24402e-05
-5.19299e-07
2.20294e-05
-4.09906e-07
2.16662e-05
-3.56814e-07
2.13608e-05
-2.84239e-07
2.10457e-05
-3.40652e-07
2.07873e-05
-2.66462e-07
2.04783e-05
-3.58937e-07
2.022e-05
-3.1406e-07
1.9811e-05
-4.91503e-07
1.94571e-05
-4.63417e-07
-3.96905e-07
1.86463e-05
2.54464e-05
-7.36886e-06
2.32505e-05
-6.01441e-06
2.09906e-05
-2.93086e-06
1.93114e-05
-1.33374e-06
1.8074e-05
-6.35916e-07
1.71175e-05
-3.69149e-07
1.6359e-05
-2.69912e-07
1.57642e-05
-2.18203e-07
1.53154e-05
-1.436e-07
1.4931e-05
-1.34968e-07
1.46267e-05
-1.05621e-07
1.43645e-05
-9.46066e-08
1.41497e-05
-6.93878e-08
1.39135e-05
-1.04475e-07
1.37216e-05
-7.45947e-08
1.34797e-05
-1.17022e-07
1.32643e-05
-9.86034e-08
1.29393e-05
-1.6655e-07
1.26813e-05
-2.05416e-07
-3.99007e-08
1.23243e-05
1.76311e-05
1.16167e-05
8.68586e-06
7.35212e-06
6.7162e-06
6.34705e-06
6.07714e-06
5.85894e-06
5.71534e-06
5.58037e-06
5.47475e-06
5.38014e-06
5.31075e-06
5.20628e-06
5.13168e-06
5.01466e-06
4.91606e-06
4.74951e-06
4.54409e-06
4.50419e-06
5.47704e-06
-3.24565e-07
1.0714e-07
5.88272e-06
4.68749e-08
-4.52552e-07
6.35446e-06
3.86117e-07
-8.57853e-07
6.98475e-06
5.15769e-07
-1.14606e-06
7.59292e-06
4.60121e-07
-1.06829e-06
8.08321e-06
2.74424e-07
-7.64709e-07
8.38104e-06
6.14319e-08
-3.59266e-07
8.48258e-06
-1.59247e-07
5.77057e-08
8.46559e-06
-3.30029e-07
3.47018e-07
8.40073e-06
-4.25334e-07
4.90201e-07
8.33021e-06
-4.54232e-07
5.24745e-07
8.3057e-06
-4.3385e-07
4.58362e-07
8.3276e-06
-3.85626e-07
3.63722e-07
8.39318e-06
-3.19609e-07
2.54032e-07
8.48962e-06
-2.60307e-07
1.63869e-07
8.59985e-06
-2.03385e-07
9.31519e-08
8.72664e-06
-1.35074e-07
8.28726e-09
8.89198e-06
-7.07589e-08
-9.45817e-08
9.0858e-06
1.75199e-08
-2.1134e-07
9.30792e-06
6.97969e-08
-2.91921e-07
9.55448e-06
1.1976e-07
-3.66312e-07
9.79674e-06
1.24097e-07
-3.66366e-07
1.00267e-05
9.70355e-08
-3.26998e-07
1.02398e-05
3.14992e-08
-2.44578e-07
1.04133e-05
-4.38452e-08
-1.29664e-07
1.05523e-05
-1.26722e-07
-1.22539e-08
1.06535e-05
-1.90888e-07
8.96815e-08
1.07271e-05
-2.11292e-07
1.37644e-07
1.08291e-05
-2.10044e-07
1.08087e-07
1.09588e-05
-1.32107e-07
2.38918e-09
1.11268e-05
-6.12194e-08
-1.06795e-07
1.13331e-05
5.56885e-08
-2.61958e-07
1.15729e-05
1.56722e-07
-3.96559e-07
1.18677e-05
2.49248e-07
-5.44015e-07
1.2185e-05
2.73597e-07
-5.90957e-07
1.25395e-05
2.87355e-07
-6.41843e-07
1.28661e-05
2.70558e-07
-5.97145e-07
1.32095e-05
2.15386e-07
-5.58776e-07
1.35921e-05
1.02201e-07
-4.84815e-07
1.39941e-05
-4.78695e-09
-3.97213e-07
1.44547e-05
-2.15987e-07
-2.44594e-07
1.49425e-05
-3.55846e-07
-1.31936e-07
1.54168e-05
-5.98798e-07
1.24458e-07
1.59393e-05
-8.36264e-07
3.13777e-07
1.64171e-05
-1.07433e-06
5.96583e-07
1.69304e-05
-1.36401e-06
8.50703e-07
1.73887e-05
-1.60092e-06
1.14262e-06
1.77772e-05
-1.79775e-06
1.40921e-06
1.81389e-05
-2.04325e-06
1.68154e-06
1.84779e-05
-2.16823e-06
1.82926e-06
1.87481e-05
-2.22646e-06
1.95624e-06
1.90102e-05
-2.32616e-06
2.06408e-06
1.91927e-05
-2.31713e-06
2.13464e-06
1.93306e-05
-2.33138e-06
2.19349e-06
1.93594e-05
-2.22306e-06
2.19428e-06
1.92889e-05
-2.1505e-06
2.22093e-06
1.90519e-05
-1.97804e-06
2.21505e-06
1.88006e-05
-1.86605e-06
2.11738e-06
1.84344e-05
-1.64513e-06
2.01129e-06
1.79874e-05
-1.43801e-06
1.885e-06
1.75845e-05
-1.33284e-06
1.73581e-06
1.72009e-05
-1.12469e-06
1.50829e-06
1.68488e-05
-1.123e-06
1.47502e-06
1.66492e-05
-9.66225e-07
1.16585e-06
1.66654e-05
-8.82129e-07
8.65956e-07
1.68129e-05
-6.54725e-07
5.07196e-07
1.7027e-05
-3.4032e-07
1.26233e-07
1.7399e-05
-4.28431e-07
5.64457e-08
1.77279e-05
2.23562e-07
-5.52455e-07
1.82032e-05
1.95028e-07
-6.70293e-07
1.86168e-05
3.68742e-07
-7.82436e-07
1.90729e-05
8.30437e-07
-1.28646e-06
1.97479e-05
4.61626e-07
-1.13668e-06
2.03558e-05
1.15327e-06
-1.76111e-06
2.11602e-05
8.68028e-07
-1.6725e-06
2.19561e-05
4.94771e-07
-1.29062e-06
2.28181e-05
1.25417e-06
-2.11624e-06
2.36781e-05
2.31509e-07
-1.09145e-06
2.45508e-05
-3.66963e-08
-8.35968e-07
2.54557e-05
-4.51337e-08
-8.59848e-07
2.62756e-05
-1.2832e-06
4.63311e-07
2.72778e-05
-1.62569e-06
6.23477e-07
2.80532e-05
-2.19752e-06
1.42212e-06
2.87447e-05
-3.71906e-06
3.02762e-06
2.96068e-05
-4.21529e-06
3.35316e-06
3.04193e-05
-5.28383e-06
4.47133e-06
3.11303e-05
-6.95669e-06
6.24568e-06
3.187e-05
-7.60093e-06
6.86121e-06
3.26441e-05
-9.08231e-06
8.30824e-06
3.2991e-05
-1.06406e-05
1.02937e-05
3.31515e-05
-1.11165e-05
1.09561e-05
3.31115e-05
-1.25903e-05
1.26303e-05
3.2331e-05
-1.27966e-05
1.35771e-05
3.15985e-05
-1.24049e-05
1.31374e-05
3.04951e-05
-1.27786e-05
1.3882e-05
2.89081e-05
-1.15225e-05
1.31094e-05
2.77087e-05
-1.07255e-05
1.19249e-05
2.64037e-05
-1.0876e-05
1.2181e-05
2.47194e-05
-9.07158e-06
1.07559e-05
2.383e-05
-8.26342e-06
9.15282e-06
2.30276e-05
-9.06093e-06
9.86333e-06
2.19363e-05
-7.6642e-06
8.7555e-06
2.14992e-05
-7.09577e-06
7.53283e-06
2.10313e-05
-8.17237e-06
8.64026e-06
2.00399e-05
-7.3437e-06
8.33514e-06
1.9524e-05
-5.97145e-06
6.48733e-06
1.94341e-05
-7.53954e-06
7.62938e-06
1.87909e-05
-8.13506e-06
8.77827e-06
1.81443e-05
-6.76392e-06
7.41054e-06
1.80761e-05
-7.12957e-06
7.19776e-06
1.80565e-05
-9.39239e-06
9.41198e-06
1.70879e-05
-9.71899e-06
1.06877e-05
1.6251e-05
-8.52609e-06
9.36297e-06
1.62144e-05
-8.73735e-06
8.77396e-06
1.71519e-05
-1.0623e-05
9.6854e-06
1.79671e-05
-1.31998e-05
1.23847e-05
1.86658e-05
-1.54099e-05
1.47112e-05
1.96338e-05
-1.7625e-05
1.6657e-05
2.07608e-05
-1.95188e-05
1.83918e-05
2.18683e-05
-2.15947e-05
2.04872e-05
2.24473e-05
-2.20949e-05
2.15159e-05
2.25832e-05
-2.03056e-05
2.01697e-05
2.23763e-05
-1.77793e-05
1.79862e-05
2.22091e-05
-1.51445e-05
1.53118e-05
2.23669e-05
-1.27312e-05
1.25733e-05
2.25415e-05
-9.92784e-06
9.75331e-06
2.2641e-05
-6.40228e-06
6.30272e-06
2.27428e-05
-2.0929e-06
1.99114e-06
2.32148e-05
2.40753e-06
-2.87953e-06
2.36229e-05
7.2618e-06
-7.66991e-06
2.39877e-05
1.12197e-05
-1.15844e-05
2.43978e-05
1.38544e-05
-1.42646e-05
2.48685e-05
1.67968e-05
-1.72674e-05
2.49247e-05
2.00505e-05
-2.01068e-05
2.45192e-05
2.19519e-05
-2.15464e-05
2.4232e-05
2.32222e-05
-2.2935e-05
2.39722e-05
2.48771e-05
-2.46173e-05
2.33313e-05
2.60762e-05
-2.54352e-05
2.24951e-05
2.6174e-05
-2.53378e-05
2.16792e-05
2.60158e-05
-2.51999e-05
2.04905e-05
2.54694e-05
-2.42807e-05
1.88764e-05
2.32943e-05
-2.16802e-05
1.72435e-05
1.98493e-05
-1.82164e-05
1.5982e-05
1.69908e-05
-1.57293e-05
1.57826e-05
1.52751e-05
-1.50758e-05
1.63209e-05
1.51833e-05
-1.57215e-05
1.71744e-05
1.56833e-05
-1.65368e-05
1.82481e-05
1.62814e-05
-1.73551e-05
1.90203e-05
1.67235e-05
-1.74957e-05
1.98025e-05
1.61082e-05
-1.68904e-05
2.02777e-05
1.55756e-05
-1.60508e-05
2.04621e-05
1.40152e-05
-1.41996e-05
2.07321e-05
1.26904e-05
-1.29604e-05
2.0764e-05
1.08291e-05
-1.0861e-05
2.08185e-05
9.14896e-06
-9.2035e-06
2.08075e-05
7.5069e-06
-7.49594e-06
2.06275e-05
5.64168e-06
-5.46161e-06
2.08015e-05
3.69372e-06
-3.86777e-06
2.09557e-05
2.43358e-06
-2.58779e-06
2.14193e-05
1.27658e-06
-1.74018e-06
2.1554e-05
5.18729e-07
-6.53414e-07
2.12634e-05
-1.10537e-06
1.39597e-06
2.1202e-05
-3.22274e-06
3.28416e-06
2.06491e-05
-4.57497e-06
5.12784e-06
2.03684e-05
-6.06323e-06
6.34392e-06
1.92928e-05
-7.24049e-06
8.31618e-06
1.89693e-05
-9.47467e-06
9.79815e-06
1.83487e-05
-1.038e-05
1.10006e-05
1.85467e-05
-1.26162e-05
1.24182e-05
1.79128e-05
-1.19248e-05
1.25587e-05
1.70367e-05
-1.50054e-05
1.58815e-05
1.66904e-05
-1.63176e-05
1.6664e-05
1.61793e-05
-1.88517e-05
1.93628e-05
1.63647e-05
-1.53094e-05
1.5124e-05
1.67026e-05
-1.53444e-05
1.50065e-05
1.60457e-05
-8.45983e-06
9.11668e-06
1.63034e-05
-1.29042e-05
1.26466e-05
1.61627e-05
-1.36112e-05
1.37519e-05
1.70389e-05
-2.05664e-05
1.96902e-05
1.58538e-05
-1.79012e-05
1.90863e-05
1.57055e-05
-1.89449e-05
1.90932e-05
1.57438e-05
-1.67871e-05
1.67488e-05
1.54341e-05
-1.47482e-05
1.50578e-05
1.63559e-05
-1.35373e-05
1.26155e-05
1.74349e-05
-8.84257e-06
7.76355e-06
1.87703e-05
-4.51739e-06
3.18208e-06
2.02016e-05
-3.22555e-07
-1.10882e-06
2.12869e-05
5.04959e-06
-6.13482e-06
2.21444e-05
1.14291e-05
-1.22867e-05
2.21875e-05
1.70166e-05
-1.70597e-05
2.20899e-05
2.07298e-05
-2.06323e-05
2.1399e-05
2.39535e-05
-2.32625e-05
2.0723e-05
2.61916e-05
-2.55156e-05
1.93852e-05
2.80078e-05
-2.66699e-05
1.76047e-05
2.85549e-05
-2.67744e-05
1.65219e-05
2.90809e-05
-2.79981e-05
1.52229e-05
3.04229e-05
-2.91239e-05
1.34886e-05
3.18627e-05
-3.01284e-05
1.32666e-05
3.17503e-05
-3.15283e-05
3.69175e-05
-3.69505e-05
1.32996e-05
1.29848e-05
-2.72573e-07
1.3045e-05
-1.33432e-08
1.32404e-05
1.90772e-07
1.34226e-05
3.33582e-07
1.36064e-05
2.76286e-07
1.38022e-05
7.86677e-08
1.39647e-05
-1.01089e-07
1.40695e-05
-2.64075e-07
1.41251e-05
-3.85648e-07
1.4143e-05
-4.43208e-07
1.41664e-05
-4.77623e-07
1.41996e-05
-4.67032e-07
1.42568e-05
-4.42857e-07
1.43311e-05
-3.93899e-07
1.44219e-05
-3.51127e-07
1.45102e-05
-2.91714e-07
1.46091e-05
-2.33908e-07
1.4726e-05
-1.87726e-07
1.48481e-05
-1.04499e-07
1.50057e-05
-8.79004e-08
1.51549e-05
-2.94316e-08
1.53116e-05
-3.25521e-08
1.54662e-05
-5.75762e-08
1.55846e-05
-8.68864e-08
1.57064e-05
-1.65701e-07
1.57859e-05
-2.0621e-07
1.58611e-05
-2.66091e-07
1.59402e-05
-2.90405e-07
1.60137e-05
-2.83515e-07
1.61384e-05
-2.56832e-07
1.62789e-05
-2.01652e-07
1.64729e-05
-1.38327e-07
1.66995e-05
-6.99343e-08
1.6981e-05
-3.22286e-08
1.72778e-05
-2.31439e-08
1.76135e-05
-4.83421e-08
1.79901e-05
-1.06125e-07
1.83538e-05
-1.48231e-07
1.87619e-05
-3.05913e-07
1.9204e-05
-4.46916e-07
1.96151e-05
-6.27073e-07
2.01167e-05
-8.5749e-07
2.05525e-05
-1.03461e-06
2.103e-05
-1.31375e-06
2.14796e-05
-1.52385e-06
2.18784e-05
-1.76287e-06
2.2291e-05
-2.01348e-06
2.26096e-05
-2.11642e-06
2.28954e-05
-2.32899e-06
2.31371e-05
-2.40992e-06
2.3334e-05
-2.42336e-06
2.34519e-05
-2.44407e-06
2.35255e-05
-2.39075e-06
2.35435e-05
-2.34933e-06
2.34996e-05
-2.17925e-06
2.34485e-05
-2.0994e-06
2.33112e-05
-1.84072e-06
2.31784e-05
-1.73326e-06
2.30487e-05
-1.51535e-06
2.28812e-05
-1.27058e-06
2.26933e-05
-1.14494e-06
2.24236e-05
-8.54961e-07
2.20728e-05
-7.7219e-07
2.16085e-05
-5.0197e-07
2.11815e-05
-4.55137e-07
2.07927e-05
-2.65876e-07
2.05272e-05
-7.48353e-08
2.03319e-05
-2.33124e-07
2.0351e-05
2.04454e-07
2.05584e-05
-1.23992e-08
2.07823e-05
1.44893e-07
2.12169e-05
3.95849e-07
2.17056e-05
-2.71453e-08
2.23079e-05
5.51054e-07
2.30752e-05
1.00712e-07
2.37675e-05
-1.97603e-07
2.47852e-05
2.36569e-07
2.55994e-05
-5.82764e-07
2.65337e-05
-9.70922e-07
2.7523e-05
-1.03447e-06
2.84463e-05
-2.20646e-06
2.94897e-05
-2.66911e-06
3.04867e-05
-3.19451e-06
3.13782e-05
-4.61055e-06
3.23091e-05
-5.14623e-06
3.327e-05
-6.24469e-06
3.39734e-05
-7.66008e-06
3.46221e-05
-8.24966e-06
3.51857e-05
-9.64596e-06
3.50891e-05
-1.0544e-05
3.49611e-05
-1.09886e-05
3.43303e-05
-1.19595e-05
3.30653e-05
-1.15316e-05
3.1903e-05
-1.12426e-05
3.02608e-05
-1.11364e-05
2.86554e-05
-9.91711e-06
2.74066e-05
-9.47664e-06
2.59149e-05
-9.38435e-06
2.46452e-05
-7.80188e-06
2.40422e-05
-7.66039e-06
2.31754e-05
-8.19413e-06
2.2397e-05
-6.88579e-06
2.19629e-05
-6.66165e-06
2.13045e-05
-7.514e-06
2.03897e-05
-6.42888e-06
1.99736e-05
-5.55542e-06
1.96297e-05
-7.1956e-06
1.88364e-05
-7.34177e-06
1.80895e-05
-6.01699e-06
1.79523e-05
-6.99244e-06
1.76654e-05
-9.10544e-06
1.6675e-05
-8.72864e-06
1.59542e-05
-7.80526e-06
1.59716e-05
-8.75475e-06
1.66197e-05
-1.12711e-05
1.70828e-05
-1.36629e-05
1.77107e-05
-1.60378e-05
1.84195e-05
-1.83338e-05
1.92609e-05
-2.03603e-05
2.0034e-05
-2.23678e-05
2.02016e-05
-2.22625e-05
1.99163e-05
-2.00203e-05
1.94331e-05
-1.72961e-05
1.92053e-05
-1.49167e-05
1.92755e-05
-1.28014e-05
1.93342e-05
-9.98649e-06
1.91918e-05
-6.25994e-06
1.9163e-05
-2.06404e-06
1.9609e-05
1.96152e-06
2.02847e-05
6.58609e-06
2.10333e-05
1.0471e-05
2.18141e-05
1.30736e-05
2.26521e-05
1.59588e-05
2.30985e-05
1.96041e-05
2.3072e-05
2.19784e-05
2.30606e-05
2.32337e-05
2.30213e-05
2.49164e-05
2.27311e-05
2.63663e-05
2.22814e-05
2.66238e-05
2.17781e-05
2.65191e-05
2.10753e-05
2.61721e-05
1.97481e-05
2.46215e-05
1.79761e-05
2.16214e-05
1.65632e-05
1.84036e-05
1.60452e-05
1.57931e-05
1.65495e-05
1.4679e-05
1.7478e-05
1.47548e-05
1.87391e-05
1.50203e-05
1.98697e-05
1.55929e-05
2.0878e-05
1.50999e-05
2.1728e-05
1.47256e-05
2.22539e-05
1.34893e-05
2.2647e-05
1.22974e-05
2.29067e-05
1.05694e-05
2.30631e-05
8.99249e-06
2.32555e-05
7.31449e-06
2.30116e-05
5.88566e-06
2.26708e-05
4.0345e-06
2.28248e-05
2.27959e-06
2.28957e-05
1.20568e-06
2.35076e-05
-9.32396e-08
2.30549e-05
-6.52655e-07
2.32908e-05
-3.45858e-06
2.25269e-05
-3.8111e-06
2.25105e-05
-6.04682e-06
2.14136e-05
-6.14362e-06
2.13118e-05
-9.37288e-06
2.03516e-05
-9.41977e-06
2.06199e-05
-1.28846e-05
1.98502e-05
-1.11551e-05
1.92725e-05
-1.44276e-05
1.8296e-05
-1.53412e-05
1.76977e-05
-1.82534e-05
1.76925e-05
-1.53042e-05
1.75199e-05
-1.51718e-05
1.69695e-05
-7.9094e-06
1.6824e-05
-1.27588e-05
1.66453e-05
-1.34325e-05
1.66183e-05
-2.05394e-05
1.47667e-05
-1.60496e-05
1.46358e-05
-1.8814e-05
1.39299e-05
-1.60812e-05
1.35451e-05
-1.43634e-05
1.36651e-05
-1.36573e-05
1.54943e-05
-1.06718e-05
1.70622e-05
-6.08533e-06
1.88583e-05
-2.11864e-06
2.03971e-05
3.51083e-06
2.184e-05
9.9862e-06
2.24491e-05
1.64075e-05
2.23867e-05
2.07923e-05
2.17607e-05
2.45794e-05
2.10144e-05
2.69379e-05
2.04889e-05
2.85333e-05
1.92485e-05
2.97952e-05
1.82462e-05
3.00832e-05
1.81765e-05
3.04926e-05
1.72341e-05
3.28051e-05
1.99488e-05
2.90356e-05
3.81811e-05
1.86852e-05
2.00275e-05
-6.16353e-09
1.98164e-05
1.97803e-07
1.97293e-05
2.7785e-07
1.98851e-05
1.77759e-07
2.00554e-05
1.06067e-07
2.01785e-05
-4.44844e-08
2.02833e-05
-2.05878e-07
2.03229e-05
-3.03647e-07
2.03319e-05
-3.94692e-07
2.03142e-05
-4.25502e-07
2.03102e-05
-4.73601e-07
2.03216e-05
-4.78456e-07
2.03565e-05
-4.77788e-07
2.0414e-05
-4.51327e-07
2.04828e-05
-4.19916e-07
2.05592e-05
-3.68147e-07
2.06399e-05
-3.14596e-07
2.0722e-05
-2.69823e-07
2.08117e-05
-1.94189e-07
2.09108e-05
-1.87028e-07
2.10164e-05
-1.35063e-07
2.11275e-05
-1.43647e-07
2.12332e-05
-1.63216e-07
2.13294e-05
-1.83126e-07
2.14081e-05
-2.44379e-07
2.14816e-05
-2.79736e-07
2.15309e-05
-3.15391e-07
2.1602e-05
-3.61555e-07
2.16688e-05
-3.50256e-07
2.1753e-05
-3.41019e-07
2.18767e-05
-3.25356e-07
2.20254e-05
-2.87048e-07
2.22194e-05
-2.63932e-07
2.24368e-05
-2.49676e-07
2.26987e-05
-2.85024e-07
2.29701e-05
-3.19751e-07
2.32827e-05
-4.18711e-07
2.36346e-05
-5.00137e-07
2.3953e-05
-6.24261e-07
2.43387e-05
-8.32625e-07
2.46726e-05
-9.61022e-07
2.50473e-05
-1.23215e-06
2.54295e-05
-1.41685e-06
2.57767e-05
-1.66088e-06
2.611e-05
-1.85715e-06
2.64013e-05
-2.05425e-06
2.66673e-05
-2.27941e-06
2.6871e-05
-2.3202e-06
2.70456e-05
-2.50357e-06
2.71242e-05
-2.4885e-06
2.72315e-05
-2.53066e-06
2.72288e-05
-2.44135e-06
2.72177e-05
-2.37963e-06
2.71888e-05
-2.32048e-06
2.70941e-05
-2.0845e-06
2.7035e-05
-2.0403e-06
2.69204e-05
-1.72614e-06
2.67687e-05
-1.58157e-06
2.66045e-05
-1.35111e-06
2.64568e-05
-1.12288e-06
2.62683e-05
-9.56468e-07
2.60661e-05
-6.52727e-07
2.5897e-05
-6.03149e-07
2.56942e-05
-2.99153e-07
2.55058e-05
-2.66701e-07
2.52902e-05
-5.03544e-08
2.51522e-05
6.32411e-08
2.49482e-05
-2.91617e-08
2.48636e-05
2.89095e-07
2.48482e-05
2.99605e-09
2.48952e-05
9.7843e-08
2.51547e-05
1.36359e-07
2.53847e-05
-2.57172e-07
2.59366e-05
-8.15454e-10
2.64533e-05
-4.15989e-07
2.70508e-05
-7.95058e-07
2.79891e-05
-7.01806e-07
2.87511e-05
-1.34474e-06
2.96846e-05
-1.90441e-06
3.06936e-05
-2.04344e-06
3.16177e-05
-3.1306e-06
3.26139e-05
-3.66529e-06
3.36333e-05
-4.21396e-06
3.44975e-05
-5.47471e-06
3.53572e-05
-6.00588e-06
3.61066e-05
-6.99414e-06
3.65737e-05
-8.12722e-06
3.68777e-05
-8.55365e-06
3.68429e-05
-9.6111e-06
3.63897e-05
-1.00909e-05
3.56536e-05
-1.02525e-05
3.43511e-05
-1.06569e-05
3.29444e-05
-1.01249e-05
3.14414e-05
-9.73967e-06
2.98543e-05
-9.54931e-06
2.84332e-05
-8.49598e-06
2.71348e-05
-8.17828e-06
2.59095e-05
-8.15898e-06
2.49756e-05
-6.86802e-06
2.4352e-05
-7.03677e-06
2.37251e-05
-7.56725e-06
2.30791e-05
-6.23979e-06
2.24127e-05
-5.99525e-06
2.17519e-05
-6.85321e-06
2.09366e-05
-5.61351e-06
2.05268e-05
-5.1457e-06
2.00564e-05
-6.72521e-06
1.91353e-05
-6.42058e-06
1.83689e-05
-5.25067e-06
1.81716e-05
-6.79514e-06
1.74781e-05
-8.41188e-06
1.62564e-05
-7.50695e-06
1.54538e-05
-7.00267e-06
1.54406e-05
-8.7416e-06
1.57335e-05
-1.1564e-05
1.60256e-05
-1.3955e-05
1.65509e-05
-1.65631e-05
1.69667e-05
-1.87496e-05
1.74781e-05
-2.08716e-05
1.77966e-05
-2.26864e-05
1.7756e-05
-2.22218e-05
1.72541e-05
-1.95185e-05
1.66308e-05
-1.66728e-05
1.63712e-05
-1.46571e-05
1.65203e-05
-1.29504e-05
1.68403e-05
-1.03065e-05
1.68804e-05
-6.30002e-06
1.69298e-05
-2.11343e-06
1.71259e-05
1.76542e-06
1.77222e-05
5.98972e-06
1.84397e-05
9.7535e-06
1.92536e-05
1.22597e-05
2.01309e-05
1.50815e-05
2.08268e-05
1.89083e-05
2.11389e-05
2.16662e-05
2.13536e-05
2.3019e-05
2.15464e-05
2.47237e-05
2.16234e-05
2.62893e-05
2.1421e-05
2.68262e-05
2.12134e-05
2.67267e-05
2.10309e-05
2.63547e-05
2.01739e-05
2.54785e-05
1.87587e-05
2.30366e-05
1.74272e-05
1.97351e-05
1.65562e-05
1.66641e-05
1.66961e-05
1.45392e-05
1.74711e-05
1.39798e-05
1.87754e-05
1.37159e-05
2.0179e-05
1.41893e-05
2.15106e-05
1.37683e-05
2.26709e-05
1.35653e-05
2.3555e-05
1.26052e-05
2.43015e-05
1.15509e-05
2.46519e-05
1.02191e-05
2.515e-05
8.49436e-06
2.52981e-05
7.16635e-06
2.55726e-05
5.61117e-06
2.51754e-05
4.4317e-06
2.50049e-05
2.4501e-06
2.49532e-05
1.25742e-06
2.5279e-05
-4.19013e-07
2.52915e-05
-6.65156e-07
2.49657e-05
-3.13284e-06
2.49644e-05
-3.80977e-06
2.43968e-05
-5.47924e-06
2.41794e-05
-5.92621e-06
2.33508e-05
-8.54432e-06
2.29762e-05
-9.04513e-06
2.2631e-05
-1.25394e-05
2.22221e-05
-1.07462e-05
2.14521e-05
-1.36576e-05
2.02732e-05
-1.41622e-05
1.96646e-05
-1.76449e-05
1.90935e-05
-1.4733e-05
1.90186e-05
-1.5097e-05
1.81115e-05
-7.00223e-06
1.79486e-05
-1.25959e-05
1.68619e-05
-1.23457e-05
1.58133e-05
-1.94909e-05
1.31177e-05
-1.3354e-05
1.32683e-05
-1.89646e-05
1.22621e-05
-1.50749e-05
1.14401e-05
-1.35414e-05
1.13002e-05
-1.35174e-05
1.30046e-05
-1.23762e-05
1.54996e-05
-8.58031e-06
1.76647e-05
-4.28374e-06
1.9622e-05
1.55352e-06
2.09842e-05
8.62402e-06
2.19197e-05
1.5472e-05
2.23788e-05
2.03332e-05
2.26605e-05
2.42978e-05
2.20179e-05
2.75805e-05
2.16293e-05
2.89219e-05
2.12411e-05
3.01834e-05
1.99937e-05
3.13306e-05
2.03116e-05
3.01747e-05
1.98071e-05
3.33096e-05
2.35689e-05
2.52738e-05
3.83077e-05
2.34423e-05
2.50683e-05
2.77299e-08
2.51412e-05
1.24882e-07
2.52875e-05
1.315e-07
2.54137e-05
5.16443e-08
2.5545e-05
-2.52566e-08
2.56667e-05
-1.66249e-07
2.57121e-05
-2.51218e-07
2.57331e-05
-3.24666e-07
2.57134e-05
-3.75002e-07
2.56963e-05
-4.08401e-07
2.56847e-05
-4.61948e-07
2.56723e-05
-4.66076e-07
2.56827e-05
-4.88218e-07
2.56957e-05
-4.6431e-07
2.57422e-05
-4.66431e-07
2.57802e-05
-4.06129e-07
2.58578e-05
-3.92219e-07
2.59167e-05
-3.28682e-07
2.5995e-05
-2.72543e-07
2.60798e-05
-2.71772e-07
2.614e-05
-1.95251e-07
2.6237e-05
-2.40645e-07
2.62882e-05
-2.14496e-07
2.63694e-05
-2.64341e-07
2.64228e-05
-2.97687e-07
2.64693e-05
-3.2629e-07
2.65356e-05
-3.81671e-07
2.65655e-05
-3.91422e-07
2.66483e-05
-4.33114e-07
2.67067e-05
-3.99452e-07
2.68109e-05
-4.29518e-07
2.69323e-05
-4.08436e-07
2.7084e-05
-4.15597e-07
2.72589e-05
-4.24646e-07
2.7453e-05
-4.79066e-07
2.76766e-05
-5.43369e-07
2.78931e-05
-6.35233e-07
2.81561e-05
-7.63128e-07
2.84015e-05
-8.69606e-07
2.86491e-05
-1.08025e-06
2.88955e-05
-1.20747e-06
2.9122e-05
-1.45862e-06
2.93412e-05
-1.63604e-06
2.95566e-05
-1.87625e-06
2.96997e-05
-2.00023e-06
2.98444e-05
-2.19897e-06
2.9932e-05
-2.36704e-06
2.99704e-05
-2.35861e-06
3.00203e-05
-2.55342e-06
2.99559e-05
-2.42413e-06
2.99417e-05
-2.51642e-06
2.9848e-05
-2.34765e-06
2.97285e-05
-2.26022e-06
2.96039e-05
-2.1958e-06
2.94422e-05
-1.9228e-06
2.93028e-05
-1.90093e-06
2.91669e-05
-1.5902e-06
2.90429e-05
-1.4576e-06
2.89047e-05
-1.21293e-06
2.88106e-05
-1.02876e-06
2.87125e-05
-8.58338e-07
2.86525e-05
-5.92807e-07
2.85762e-05
-5.26812e-07
2.85119e-05
-2.34847e-07
2.84706e-05
-2.25444e-07
2.84232e-05
-2.89809e-09
2.84492e-05
3.72437e-08
2.84455e-05
-2.54778e-08
2.856e-05
1.74601e-07
2.86368e-05
-7.38311e-08
2.88437e-05
-1.0909e-07
2.91307e-05
-1.50599e-07
2.93473e-05
-4.73777e-07
2.99525e-05
-6.06025e-07
3.03883e-05
-8.51786e-07
3.09272e-05
-1.33393e-06
3.17647e-05
-1.53935e-06
3.24357e-05
-2.01567e-06
3.31988e-05
-2.66753e-06
3.41692e-05
-3.01388e-06
3.48908e-05
-3.85219e-06
3.5655e-05
-4.42954e-06
3.65035e-05
-5.06245e-06
3.70338e-05
-6.00494e-06
3.75348e-05
-6.50691e-06
3.79084e-05
-7.36778e-06
3.78607e-05
-8.07952e-06
3.76829e-05
-8.37581e-06
3.7125e-05
-9.05326e-06
3.61964e-05
-9.16221e-06
3.50713e-05
-9.12742e-06
3.37672e-05
-9.35283e-06
3.2395e-05
-8.7527e-06
3.09153e-05
-8.25993e-06
2.9689e-05
-8.32306e-06
2.86609e-05
-7.46782e-06
2.77709e-05
-7.28833e-06
2.6837e-05
-7.22505e-06
2.59809e-05
-6.01191e-06
2.51917e-05
-6.24757e-06
2.42483e-05
-6.6239e-06
2.31793e-05