/*--------------------------------*- C++ -*----------------------------------*\
| =========                 |                                                 |
| \\      /  F ield         | OpenFOAM: The Open Source CFD Toolbox           |
|  \\    /   O peration     | Version:  2.4.0                                 |
|   \\  /    A nd           | Web:      www.OpenFOAM.org                      |
|    \\/     M anipulation  |                                                 |
\*---------------------------------------------------------------------------*/
FoamFile
{
    version     2.0;
    format      ascii;
    class       volScalarField;
    location    "1.8";
    object      pMean;
}
// * * * * * * * * * * * * * * * * * * * * * * * * * * * * * * * * * * * * * //

dimensions      [0 2 -2 0 0 0 0];

internalField   nonuniform List<scalar> 
8800
(
86.8739
74.4343
67.0308
63.4704
61.5789
60.1462
58.9379
57.7887
56.759
55.7271
54.7762
53.7883
52.8826
51.9387
51.0968
50.2227
49.4591
48.6717
47.9701
47.1879
83.7627
74.0799
67.1993
63.5843
61.639
60.1714
58.9454
57.789
56.7569
55.7246
54.7733
53.7862
52.8801
51.9369
51.095
50.2207
49.461
48.6658
47.971
47.1449
81.7977
74.1557
67.8011
63.9599
61.8067
60.2506
58.992
57.8217
56.7813
55.7416
54.7837
53.7908
52.8816
51.935
51.0942
50.2145
49.4659
48.657
48.0209
47.1762
80.2623
74.2172
68.3876
64.3834
61.9906
60.3383
59.0547
57.8782
56.83
55.7804
54.8114
53.808
52.8929
51.9386
51.0975
50.2091
49.4712
48.6613
48.1144
47.3385
79.0135
74.1906
68.863
64.789
62.1592
60.4056
59.104
57.9357
56.8859
55.832
54.8469
53.8349
52.9061
51.9482
51.0972
50.2097
49.4654
48.6823
48.1244
47.5556
78.0282
74.0936
69.2281
65.1349
62.3098
60.4481
59.1326
57.98
56.9362
55.8815
54.8823
53.8614
52.9177
51.9567
51.0934
50.2084
49.4518
48.6974
48.1761
47.8703
77.2718
73.9769
69.4957
65.4145
62.4452
60.4736
59.1416
58.0111
56.9757
55.9232
54.9113
53.8843
52.9247
51.9628
51.0854
50.2053
49.4317
48.7006
48.2498
48.245
76.7181
73.8768
69.6762
65.6271
62.5631
60.4934
59.134
58.0353
57.0025
55.9574
54.9303
53.9054
52.9253
51.971
51.0725
50.208
49.4068
48.6957
48.1888
48.5845
76.3576
73.8065
69.7896
65.772
62.6481
60.507
59.1247
58.0515
57.0226
55.9821
54.9451
53.9207
52.929
51.9775
51.0686
50.2098
49.395
48.7073
48.2571
48.9072
76.1783
73.7745
69.8472
65.8491
62.6934
60.5168
59.1199
58.0621
57.0356
55.9983
54.9551
53.9316
52.9343
51.9849
51.0713
50.2162
49.4019
48.7279
48.3205
49.0222
76.1714
73.7851
69.8477
65.8542
62.6929
60.5206
59.1173
58.0662
57.0357
56.003
54.9557
53.9371
52.9363
51.9927
51.0757
50.2271
49.4106
48.7504
48.3571
49.1176
76.3406
73.8335
69.7917
65.7827
62.6483
60.5155
59.1196
58.0604
57.024
55.9929
54.9481
53.9351
52.9371
51.9981
51.0835
50.2388
49.4254
48.7666
48.3807
49.1506
76.6915
73.9158
69.6765
65.6401
62.5619
60.5064
59.125
58.0491
57.003
55.9739
54.9339
53.9292
52.9371
52.0053
51.096
50.2566
49.4476
48.7871
48.3846
49.1195
77.2378
74.0217
69.4942
65.4275
62.4386
60.4889
59.1283
58.0278
56.9725
55.944
54.912
53.9163
52.9346
52.0111
51.1107
50.2788
49.4776
48.8145
48.3729
49.0087
77.9915
74.1379
69.2288
65.1453
62.2996
60.4599
59.1211
57.9945
56.9323
55.903
54.8833
53.8958
52.9294
52.0126
51.1262
50.3022
49.517
48.8523
48.3722
48.8128
78.9735
74.2357
68.8657
64.7981
62.1467
60.415
59.095
57.9493
56.883
55.8538
54.8502
53.8705
52.9225
52.0103
51.1417
50.3239
49.5637
48.9017
48.4016
48.5523
80.2202
74.2629
68.3929
64.3943
61.9772
60.3474
59.0475
57.8929
56.828
55.8035
54.817
53.8456
52.9148
52.0056
51.155
50.3403
49.6098
48.9493
48.4611
48.2777
81.7549
74.1998
67.8096
63.9725
61.7936
60.2594
58.986
57.8368
56.7809
55.7648
54.7923
53.8286
52.9096
52.0036
51.1648
50.3528
49.6428
48.986
48.5203
48.1355
83.7191
74.121
67.2099
63.5983
61.6267
60.1799
58.9396
57.8045
56.7573
55.748
54.7831
53.8245
52.9101
52.0068
51.1714
50.3626
49.6583
49.0074
48.5171
48.0591
86.8298
74.4735
67.0411
63.4848
61.5675
60.1545
58.9323
57.8044
56.7593
55.7509
54.7859
53.8272
52.9128
52.0092
51.1745
50.3659
49.6619
49.0131
48.5185
48.1793
47.2577
47.1861
46.9761
46.7374
46.5309
46.3654
46.2429
46.1563
46.0998
46.0688
46.0584
46.057
46.0585
46.0561
46.0467
46.0261
45.9932
45.9422
45.8739
45.7835
45.6762
45.5573
45.4362
45.318
45.2125
45.1249
45.0591
45.0107
44.9753
44.9437
44.9099
44.8688
44.8205
44.7645
44.7011
44.6268
44.5416
44.4394
44.3231
44.19
44.0472
43.8947
43.7485
43.6142
43.5047
43.4193
43.3644
43.3341
43.3276
43.3341
43.3463
43.3496
43.3404
43.3087
43.2594
43.182
43.0863
42.9682
42.8394
42.6917
42.5322
42.3543
42.1687
41.9751
41.7897
41.6205
41.4828
41.3858
41.3387
41.3341
41.3743
41.4444
41.5439
41.6543
41.7789
41.898
42.0175
42.1175
42.2066
42.2687
42.3144
42.3356
42.3466
42.3377
42.3301
42.3161
42.3123
42.3182
42.339
42.3774
42.4355
42.5136
42.611
42.7205
42.8424
42.9687
43.1047
43.2397
43.3787
43.5098
43.6378
43.7501
43.8562
43.9351
44.0092
44.058
44.1046
44.1324
44.1639
44.1771
44.1908
44.1878
44.1839
44.1626
44.1418
44.1096
44.0827
44.0492
44.0258
44.0011
43.9941
43.993
44.0174
44.0454
44.1021
44.1537
44.2398
44.3175
44.4315
44.547
44.6954
44.8486
45.0233
45.1978
45.3863
45.57
45.7635
45.9466
46.1314
46.3037
46.4801
46.6495
46.8248
46.9943
47.1681
47.3331
47.5019
47.6665
47.8323
47.9936
48.1536
48.3075
48.4616
48.6067
48.7531
48.8949
49.0472
49.1881
49.3439
49.4895
49.6561
49.7962
49.9636
50.0936
50.251
50.3656
50.5127
50.6095
50.7407
50.8088
50.9368
50.9793
51.1198
51.1579
51.3257
51.3704
51.5803
51.6359
51.8923
51.9789
52.2727
52.4069
52.7421
52.9457
53.3176
53.5892
53.9885
54.2945
54.7112
55.0137
55.4092
55.6318
55.8922
55.8454
55.7069
54.9286
53.6816
50.4059
46.2108
25.779
47.0248
46.9965
46.9318
46.781
46.5941
46.4179
46.2837
46.1943
46.1456
46.1239
46.1217
46.1253
46.1298
46.1275
46.1177
46.0954
46.0613
46.0107
45.9452
45.8615
45.7643
45.6568
45.5479
45.4415
45.3467
45.2656
45.2028
45.1546
45.1197
45.0896
45.0603
45.0244
44.982
44.9298
44.8701
44.798
44.7154
44.6171
44.5069
44.3815
44.2485
44.109
43.9746
43.8502
43.746
43.6629
43.6062
43.5712
43.5569
43.5531
43.5562
43.5523
43.54
43.5076
43.4602
43.3879
43.2986
43.1867
43.0624
42.9205
42.7678
42.6
42.4252
42.2454
42.0723
41.9143
41.784
41.6877
41.6353
41.6212
41.6483
41.7038
41.7881
41.8851
41.9938
42.1001
42.2026
42.2887
42.3608
42.4095
42.4421
42.4534
42.4545
42.4423
42.4283
42.4127
42.4024
42.4031
42.4152
42.4431
42.4887
42.5531
42.6358
42.7312
42.8405
42.9565
43.0812
43.2052
43.3316
43.4516
43.5687
43.6728
43.7681
43.8398
43.9045
43.9488
43.9875
44.0101
44.0314
44.0388
44.0431
44.0344
44.02
43.9915
43.957
43.9164
43.8755
43.8337
43.7977
43.7632
43.7479
43.7398
43.7586
43.7817
43.8332
43.8833
43.9638
44.0416
44.1477
44.2581
44.3965
44.5409
44.7072
44.8736
45.0552
45.2296
45.4142
45.5885
45.763
45.9253
46.0919
46.25
46.4123
46.568
46.7298
46.877
47.035
47.1825
47.3388
47.4858
47.6356
47.7766
47.9272
48.0617
48.2104
48.3456
48.5056
48.6406
48.8025
48.9426
49.1088
49.2369
49.4004
49.5168
49.6686
49.7687
49.9067
49.9794
50.1024
50.1364
50.2531
50.2583
50.3851
50.3817
50.5411
50.5438
50.7452
50.767
51.0065
51.071
51.3338
51.451
51.7419
51.9202
52.245
52.4622
52.8166
53.0317
53.3842
53.5461
53.8193
53.814
53.8619
53.4165
52.903
51.2714
49.5093
43.7708
37.8724
19.0323
47.0076
47.0094
47.0187
46.919
46.7256
46.5051
46.3249
46.2091
46.1599
46.1524
46.1682
46.1861
46.1996
46.1998
46.1888
46.1623
46.1241
46.0709
46.0061
45.9272
45.8394
45.7433
45.6474
45.5532
45.4691
45.3954
45.3372
45.2907
45.2567
45.2271
45.2001
45.1674
45.1296
45.0812
45.0254
44.9565
44.8777
44.7847
44.6819
44.567
44.4464
44.3214
44.2008
44.0884
43.9924
43.9135
43.8565
43.8171
43.7958
43.7828
43.7764
43.7645
43.7466
43.7124
43.6646
43.5959
43.5108
43.4055
43.2862
43.1514
43.006
42.8498
42.6884
42.5246
42.3674
42.2233
42.1034
42.0117
41.9564
41.9355
41.951
41.9942
42.0634
42.1467
42.2396
42.3308
42.416
42.4864
42.5408
42.5757
42.5944
42.5973
42.5887
42.5725
42.5516
42.5319
42.5156
42.5088
42.5107
42.5262
42.5574
42.607
42.6739
42.7569
42.8545
42.9624
43.0766
43.1919
43.3077
43.418
43.5243
43.6206
43.7053
43.771
43.8285
43.8708
43.9055
43.9275
43.9448
43.9519
43.9517
43.9419
43.9205
43.8869
43.843
43.7953
43.7451
43.694
43.6499
43.608
43.5912
43.5791
43.5975
43.6189
43.6692
43.722
43.7983
43.8778
43.9778
44.0863
44.2156
44.3525
44.5107
44.6698
44.8441
45.0098
45.1835
45.3487
45.5122
45.6645
45.8215
45.9692
46.1218
46.2682
46.4203
46.5573
46.7077
46.8423
46.9898
47.1185
47.2556
47.38
47.5234
47.6467
47.7984
47.9286
48.0928
48.2257
48.3941
48.5342
48.697
48.8176
48.9752
49.0758
49.2222
49.2998
49.43
49.4698
49.5857
49.5864
49.6917
49.6615
49.783
49.74
49.8954
49.8656
50.0426
50.0476
50.2421
50.2941
50.505
50.5986
50.844
50.974
51.261
51.3989
51.7086
51.8116
52.0899
52.0811
52.2436
51.9484
51.8416
50.8559
50.2161
47.4561
45.5157
38.4207
31.344
18.5059
46.8309
46.8584
47.044
47.0141
46.8084
46.5407
46.3199
46.1895
46.1506
46.1677
46.2125
46.2552
46.2849
46.2917
46.2796
46.2473
46.2021
46.1432
46.0767
46.0005
45.9202
45.835
45.7519
45.6708
45.5986
45.5341
45.4821
45.4387
45.4057
45.3761
45.3498
45.3188
45.2837
45.2387
45.186
45.1212
45.0475
44.9615
44.8678
44.7647
44.6581
44.5484
44.4428
44.3429
44.256
44.1818
44.1251
44.0816
44.053
44.031
44.0152
43.9959
43.9723
43.9363
43.8883
43.8229
43.7424
43.6444
43.5328
43.4077
43.2733
43.1305
42.9841
42.8372
42.6967
42.5676
42.4587
42.373
42.3169
42.2898
42.2944
42.3241
42.3771
42.4439
42.5189
42.5921
42.6588
42.7125
42.7507
42.7732
42.78
42.7744
42.7571
42.7348
42.7081
42.683
42.6603
42.6436
42.6332
42.634
42.6502
42.6853
42.7393
42.8116
42.9005
43.0001
43.1057
43.2118
43.3186
43.4194
43.5155
43.602
43.6762
43.7344
43.7868
43.8293
43.8648
43.8909
43.9102
43.9209
43.922
43.9129
43.8879
43.8505
43.803
43.7488
43.6954
43.6382
43.5926
43.5505
43.5356
43.523
43.5432
43.5656
43.6185
43.6727
43.7487
43.827
43.927
44.0339
44.1605
44.293
44.4428
44.596
44.762
44.9205
45.0845
45.2395
45.3922
45.5341
45.6827
45.8211
45.9685
46.1097
46.2563
46.3914
46.5372
46.6618
46.799
46.9078
47.0321
47.137
47.2732
47.3823
47.5358
47.6639
47.8319
47.9655
48.142
48.2742
48.4354
48.5434
48.7028
48.7739
48.9252
48.9655
49.0976
49.0973
49.2108
49.1745
49.2745
49.21
49.3317
49.2682
49.4016
49.3643
49.4932
49.4924
49.6294
49.6604
49.8208
49.8773
50.0773
50.1428
50.3841
50.4274
50.689
50.6432
50.8917
50.6292
50.7781
50.0576
49.9685
48.2743
47.6216
43.9966
41.5313
34.8328
27.3217
18.7274
47.5675
47.492
47.2876
47.004
46.6887
46.3944
46.196
46.1072
46.1103
46.1682
46.2515
46.3263
46.3772
46.3939
46.3822
46.3446
46.2915
46.2257
46.1552
46.0799
46.0054
45.9302
45.8595
45.792
45.7325
45.6788
45.6346
45.5962
45.5654
45.5368
45.5108
45.4812
45.4483
45.4071
45.3589
45.3005
45.2341
45.1576
45.0747
44.9847
44.8921
44.7971
44.7052
44.6169
44.538
44.468
44.4108
44.3638
44.3283
44.299
44.2749
44.2496
44.2207
44.183
44.1351
44.0738
43.9992
43.9104
43.8092
43.6964
43.5755
43.4475
43.3172
43.1868
43.0626
42.9479
42.8499
42.7706
42.7153
42.6833
42.6774
42.6935
42.7291
42.7772
42.8319
42.8853
42.933
42.9706
42.9947
43.0057
43.003
42.9891
42.9653
42.9361
42.9031
42.8697
42.8372
42.8071
42.7814
42.7655
42.767
42.7883
42.8322
42.8956
42.9784
43.0718
43.1712
43.2714
43.371
43.4639
43.5508
43.627
43.692
43.7446
43.7948
43.8392
43.8776
43.9108
43.934
43.9503
43.9547
43.9461
43.9206
43.8808
43.8328
43.7766
43.7254
43.6692
43.6285
43.5936
43.583
43.5776
43.6013
43.6306
43.6851
43.7421
43.8188
43.8985
44.0023
44.1071
44.2367
44.3645
44.5111
44.6564
44.8161
44.9659
45.1249
45.268
45.4154
45.5471
45.6907
45.8201
45.9679
46.1055
46.2544
46.3907
46.5347
46.6489
46.7784
46.8657
46.9811
47.0653
47.1944
47.2908
47.4438
47.5653
47.7402
47.8654
48.0537
48.1662
48.3333
48.4188
48.5842
48.6237
48.7845
48.7813
48.9159
48.8752
48.9866
48.9134
49.0043
48.9249
49.0334
48.9773
49.0792
49.0395
49.1325
49.1076
49.2034
49.1911
49.3181
49.314
49.4852
49.4542
49.6729
49.5687
49.8217
49.5551
49.8107
49.2277
49.3802
48.2303
48.0674
45.9111
44.8862
41.2262
38.0272
32.6866
25.61
19.2613
48.1746
48.0555
47.5463
47.0004
46.5313
46.1952
46.0314
46.0085
46.0777
46.1929
46.3197
46.4243
46.491
46.5134
46.4994
46.4555
46.3937
46.3206
46.2452
46.1696
46.0988
46.032
45.9721
45.9172
45.8698
45.8273
45.7915
45.7595
45.7321
45.7057
45.6806
45.6528
45.6221
45.585
45.5422
45.4911
45.4333
45.3674
45.2962
45.2193
45.14
45.0586
44.9788
44.9013
44.8298
44.7645
44.7079
44.659
44.6182
44.5828
44.5512
44.5197
44.4856
44.4456
44.3978
44.3402
44.2717
44.192
44.1017
44.0016
43.8944
43.7819
43.6677
43.5541
43.446
43.3457
43.2586
43.1864
43.133
43.0981
43.0842
43.0891
43.1092
43.1393
43.1739
43.2084
43.2381
43.2603
43.2718
43.2728
43.2617
43.2403
43.2093
43.1715
43.1288
43.0836
43.0383
42.9922
42.9496
42.9156
42.9036
42.9133
42.9487
43.0063
43.086
43.176
43.271
43.3677
43.4617
43.5486
43.628
43.698
43.7576
43.8096
43.861
43.9088
43.9527
43.9936
44.0231
44.044
44.0514
44.0425
44.0169
43.9742
43.9285
43.8759
43.8306
43.7845
43.754
43.7318
43.7305
43.7393
43.7709
43.8121
43.8699
43.9335
44.0113
44.0984
44.2052
44.3164
44.4493
44.576
44.7221
44.8583
45.0125
45.1518
45.3067
45.4403
45.5865
45.7124
45.8524
45.9779
46.1294
46.2656
46.4244
46.5625
46.7074
46.8143
46.9329
47.0024
47.1058
47.1736
47.2927
47.3717
47.5284
47.6331
47.8173
47.9243
48.1218
48.2078
48.3936
48.4469
48.6295
48.6314
48.8021
48.7616
48.896
48.8131
48.9228
48.812
48.899
48.8125
48.9158
48.8587
48.9573
48.8917
48.9762
48.9053
48.9823
48.8985
49.014
48.9186
49.0712
48.923
49.1056
48.8582
49.062
48.6242
48.7806
47.996
47.9588
46.6054
46.1148
43.9298
42.4274
39.258
35.7778
31.7465
25.6412
20.389
48.8186
48.6052
47.7191
46.8603
46.2259
45.8779
45.7986
45.8889
46.0575
46.2451
46.4156
46.5434
46.6175
46.6379
46.6156
46.5618
46.4898
46.4092
46.329
46.2534
46.1858
46.1263
46.0756
46.0321
45.9954
45.9635
45.936
45.9109
45.8878
45.8647
45.8412
45.8154
45.7867
45.7535
45.7154
45.6714
45.6219
45.5663
45.5061
45.4415
45.3742
45.3052
45.2363
45.1687
45.1043
45.0439
44.989
44.9397
44.8958
44.8561
44.8192
44.783
44.745
44.7035
44.6564
44.6025
44.5401
44.4691
44.3893
44.3018
44.2083
44.1108
44.0119
43.9141
43.8204
43.7332
43.6558
43.5907
43.5402
43.5057
43.4876
43.4847
43.4933
43.5085
43.526
43.5433
43.5572
43.5663
43.5672
43.5588
43.5394
43.5102
43.4702
43.4211
43.3665
43.3086
43.2493
43.187
43.1274
43.0767
43.0509
43.052
43.0831
43.1405
43.221
43.3108
43.4046
43.4993
43.5881
43.6715
43.7456
43.8126
43.8723
43.9303
43.9849
44.0381
44.0895
44.1371
44.1724
44.1964
44.2078
44.1992
44.1742
44.1304
44.0873
44.0416
44.0058
43.9764
43.9598
43.9559
43.9716
44.0012
44.0479
44.1059
44.1737
44.2465
44.329
44.4228
44.5343
44.6553
44.7896
44.9228
45.0653
45.1999
45.3472
45.4818
45.6313
45.763
45.9072
46.0341
46.1739
46.304
46.4581
46.5973
46.7617
46.9064
47.0504
47.1554
47.2588
47.3151
47.4029
47.4589
47.5658
47.6218
47.7826
47.8685
48.052
48.1535
48.3534
48.4108
48.6164
48.6476
48.8387
48.8206
48.98
48.922
49.0432
48.9419
49.0301
48.9005
48.9773
48.9023
48.9959
48.9433
49.0288
48.9573
49.0194
48.9178
48.9536
48.8211
48.8834
48.7199
48.7853
48.5585
48.6332
48.297
48.3778
47.8345
47.8172
46.9414
46.6895
45.28
44.5401
42.5013
40.7989
38.2538
34.9153
31.7847
26.7188
22.0627
50.0469
49.6103
47.9701
46.6082
45.7689
45.4345
45.4839
45.734
46.037
46.3118
46.5262
46.6711
46.7456
46.7581
46.7226
46.656
46.5728
46.4857
46.4025
46.3283
46.2649
46.2127
46.1704
46.1368
46.1094
46.0869
46.0669
46.0484
46.0298
46.0104
45.989
45.9655
45.9389
45.909
45.8749
45.8368
45.7939
45.7469
45.6955
45.6409
45.5834
45.5243
45.4644
45.4051
45.3471
45.292
45.2398
45.1917
45.1467
45.1052
45.0655
45.0272
44.9878
44.9469
44.902
44.8526
44.7968
44.7347
44.6653
44.5902
44.5093
44.4253
44.3396
44.2552
44.1736
44.098
44.0298
43.972
43.9254
43.8926
43.8719
43.8634
43.8625
43.8657
43.8688
43.8718
43.8721
43.8706
43.8625
43.8457
43.8181
43.7801
43.73
43.6698
43.6041
43.534
43.4627
43.3866
43.3122
43.249
43.2132
43.2107
43.2421
43.3038
43.3859
43.477
43.5701
43.6629
43.7491
43.8302
43.9035
43.974
44.0393
44.1071
44.1677
44.2299
44.2891
44.3415
44.3804
44.4061
44.4198
44.414
44.3904
44.3501
44.31
44.2744
44.2525
44.2434
44.2455
44.2662
44.3057
44.3624
44.4304
44.5099
44.592
44.6775
44.7703
44.8736
44.9929
45.1202
45.2568
45.3936
45.5326
45.672
45.8156
45.9508
46.0986
46.2335
46.3758
46.5102
46.6488
46.7868
46.9468
47.0885
47.2624
47.4148
47.5564
47.6544
47.7571
47.7924
47.8711
47.9157
48.0125
48.0549
48.2114
48.2824
48.4533
48.5464
48.7494
48.7872
48.9983
49.0239
49.2153
49.191
49.3398
49.2825
49.3867
49.2721
49.3317
49.1925
49.2516
49.1945
49.2851
49.2429
49.3137
49.2398
49.2855
49.1456
49.1405
48.9631
48.9628
48.7205
48.6882
48.3733
48.3484
47.922
47.9173
47.2702
47.1444
46.1978
45.8229
44.441
43.597
41.8095
40.082
38.0733
35.0436
32.3915
28.1943
23.9807
50.5469
50.0589
48.149
46.5347
45.5541
45.1965
45.3058
45.6523
46.0447
46.3864
46.6404
46.8024
46.8763
46.8779
46.8263
46.745
46.6508
46.5579
46.473
46.4011
46.3423
46.2971
46.2628
46.2379
46.2187
46.204
46.1905
46.1776
46.163
46.147
46.1279
46.1067
46.082
46.0549
46.024
45.9905
45.9528
45.9122
45.8676
45.8206
45.7705
45.7193
45.6664
45.614
45.5615
45.5111
45.4619
45.4156
45.371
45.3295
45.2893
45.251
45.2122
45.1732
45.1315
45.0874
45.0381
44.9846
44.9247
44.8605
44.7912
44.7197
44.6458
44.5736
44.5034
44.439
44.3802
44.3303
44.2884
44.2576
44.2354
44.2221
44.212
44.2039
44.1937
44.1833
44.172
44.1616
44.1459
44.1231
44.0899
44.0457
43.9876
43.9184
43.8418
43.7612
43.6791
43.5909
43.5083
43.437
43.3975
43.3959
43.4325
43.4996
43.5849
43.6764
43.7702
43.8619
43.9482
44.0289
44.1069
44.1879
44.2669
44.3465
44.418
44.491
44.557
44.6109
44.65
44.6763
44.6928
44.6902
44.6704
44.6371
44.6061
44.5864
44.5825
44.5945
44.6212
44.6695
44.7379
44.8255
44.9193
45.0241
45.1248
45.2276
45.3344
45.448
45.5764
45.707
45.8468
45.9849
46.1229
46.2681
46.4101
46.548
46.6977
46.8326
46.9774
47.1179
47.2568
47.4048
47.5758
47.7213
47.9038
48.0693
48.2205
48.2939
48.423
48.4188
48.5073
48.5355
48.6146
48.6586
48.8062
48.8541
49.0306
49.101
49.3174
49.3161
49.5548
49.566
49.7687
49.7104
49.8876
49.8138
49.9385
49.7729
49.8258
49.6773
49.7423
49.6948
49.7811
49.7491
49.8132
49.7377
49.7731
49.568
49.5466
49.3176
49.2574
48.9268
48.8338
48.41
48.3095
47.8478
47.7661
47.1154
46.9359
45.9245
45.4963
44.175
43.2874
41.7732
40.0844
38.4256
35.7312
33.3022
29.7525
25.9518
50.7936
50.3458
48.36
46.631
45.5545
45.1359
45.2384
45.6232
46.0679
46.4551
46.7395
46.9159
46.9902
46.9828
46.9181
46.8246
46.7214
46.6242
46.5389
46.4699
46.4162
46.3777
46.3508
46.3335
46.3214
46.313
46.3047
46.2961
46.2849
46.2718
46.255
46.2359
46.2134
46.1888
46.1609
46.131
46.0975
46.0619
46.0228
45.9819
45.938
45.8931
45.8461
45.7993
45.7516
45.7053
45.6593
45.6157
45.573
45.533
45.494
45.4572
45.4205
45.3848
45.3474
45.3088
45.2663
45.2205
45.1694
45.1152
45.0563
44.9958
44.933
44.8721
44.8128
44.7586
44.7093
44.6674
44.631
44.6033
44.5805
44.5617
44.542
44.5228
44.5015
44.4796
44.4585
44.4415
44.4214
44.3959
44.3601
44.3127
44.2509
44.177
44.0929
44.0019
43.9102
43.8116
43.724
43.6481
43.6094
43.6104
43.6561
43.7306
43.8222
43.9154
44.0128
44.1043
44.1917
44.2737
44.3614
44.4571
44.5548
44.6494
44.735
44.8166
44.8874
44.9424
44.9827
45.0106
45.0297
45.0295
45.0173
44.9956
44.98
44.9811
45.001
45.0395
45.0946
45.173
45.2731
45.3919
45.5163
45.6471
45.7703
45.8938
46.0165
46.1402
46.2745
46.4062
46.5486
46.6851
46.8271
46.9753
47.1194
47.2595
47.4137
47.5474
47.6999
47.8441
47.9891
48.1438
48.3319
48.4821
48.6758
48.8498
49.0256
49.065
49.2388
49.1766
49.2909
49.2895
49.3741
49.4042
49.5513
49.5616
49.7664
49.7985
50.0515
49.9851
50.2892
50.2449
50.5171
50.3682
50.6314
50.5234
50.7104
50.4425
50.524
50.3313
50.446
50.3916
50.5083
50.4558
50.5313
50.4276
50.4717
50.1755
50.1716
49.8968
49.7753
49.3287
49.1914
48.6785
48.5917
48.1248
48.0334
47.2978
47.121
46.0315
45.5877
44.3483
43.4365
42.1554
40.554
39.0699
36.6809
34.3698
31.2722
27.86
50.9467
50.5209
48.5108
46.7275
45.6024
45.1459
45.2398
45.6414
46.1134
46.5252
46.8257
47.0093
47.0818
47.0664
46.9921
46.8909
46.7834
46.6854
46.6021
46.5372
46.4891
46.4571
46.4369
46.4258
46.4192
46.4154
46.4108
46.4052
46.3964
46.3854
46.3707
46.3537
46.3334
46.3113
46.2863
46.2595
46.2299
46.1985
46.1641
46.128
46.0893
46.0495
46.0077
45.9658
45.9228
45.8807
45.8384
45.7979
45.7582
45.721
45.6847
45.6506
45.6169
45.5847
45.5519
45.5192
45.4835
45.4455
45.4035
45.3589
45.3104
45.2604
45.2089
45.1591
45.11
45.0651
45.0252
44.9914
44.9605
44.9348
44.9103
44.8851
44.8563
44.8274
44.7958
44.7652
44.7377
44.7161
44.6947
44.6711
44.6381
44.5923
44.5314
44.4562
44.3691
44.2708
44.1713
44.0652
43.9755
43.8975
43.866
43.8693
43.9252
44.0061
44.1047
44.1992
44.3039
44.398
44.4902
44.5746
44.6773
44.7893
44.9074
45.0159
45.1141
45.2006
45.2745
45.3307
45.3758
45.408
45.4319
45.4375
45.4393
45.432
45.4409
45.466
45.5186
45.584
45.6742
45.7839
45.9199
46.067
46.2247
46.3758
46.5282
46.6694
46.8114
46.9434
47.0833
47.2114
47.3562
47.4868
47.6371
47.7816
47.9349
48.0756
48.2349
48.3711
48.5319
48.679
48.8391
48.999
49.208
49.3613
49.5699
49.7399
49.9469
49.9616
50.1687
50.0469
50.2084
50.1562
50.2814
50.2659
50.4415
50.413
50.6549
50.6403
50.9112
50.7942
51.1723
51.0672
51.3983
51.1968
51.5699
51.4043
51.6664
51.2889
51.441
51.1721
51.3842
51.2681
51.4477
51.3533
51.4572
51.3298
51.3826
50.9701
50.9738
50.6514
50.4316
49.9636
49.7955
49.2876
49.2495
48.6753
48.5589
47.7325
47.6133
46.4549
45.9839
44.8349
43.9157
42.7877
41.3227
39.8795
37.7226
35.5118
32.7302
29.658
51.0042
50.5772
48.5643
46.7826
45.6641
45.2167
45.3223
45.7334
46.2102
46.6206
46.9158
47.091
47.1535
47.1285
47.048
46.9441
46.8377
46.743
46.6648
46.6058
46.5641
46.5382
46.5233
46.5167
46.5137
46.5125
46.5102
46.5064
46.4995
46.4901
46.4774
46.4625
46.4447
46.4251
46.403
46.3794
46.3532
46.3256
46.2955
46.2639
46.2299
46.1945
46.1574
46.1197
46.0811
46.043
46.005
45.9685
45.933
45.8995
45.8669
45.8362
45.8066
45.7786
45.7508
45.7233
45.6944
45.6644
45.6316
45.5966
45.5585
45.5191
45.4793
45.4408
45.4028
45.3681
45.3379
45.3112
45.2845
45.2588
45.2313
45.1996
45.162
45.1218
45.0795
45.0411
45.0097
44.9883
44.9718
44.9557
44.9308
44.8938
44.8402
44.7689
44.6813
44.5785
44.4735
44.3649
44.2765
44.204
44.1845
44.1906
44.2562
44.3382
44.4402
44.5313
44.6445
44.7424
44.8443
44.9369
45.0629
45.1936
45.3349
45.4542
45.5605
45.6411
45.7189
45.7718
45.8262
45.8643
45.8986
45.9137
45.9357
45.9497
45.9931
46.0463
46.1381
46.2322
46.3634
46.503
46.6767
46.8503
47.0444
47.2156
47.3943
47.5491
47.7125
47.8511
47.9992
48.1266
48.2689
48.3961
48.5515
48.6914
48.8523
48.9984
49.1607
49.304
49.4726
49.6238
49.7957
49.9615
50.1822
50.3515
50.5639
50.7271
50.9587
50.9898
51.1462
51.0001
51.2453
51.1038
51.2967
51.2164
51.4423
51.3934
51.652
51.6373
51.8713
51.7369
52.1784
52.0435
52.3925
52.2048
52.6424
52.4479
52.7338
52.2943
52.4872
52.168
52.5083
52.3495
52.5764
52.4339
52.5633
52.4337
52.395
51.96
51.9391
51.4948
51.2946
50.8525
50.6475
50.1287
50.019
49.4066
49.295
48.486
48.2078
47.127
46.6242
45.567
44.6887
43.5837
42.2473
40.7773
38.8061
36.6995
34.1472
31.3526
50.9545
50.5188
48.5375
46.8166
45.7598
45.3698
45.5077
45.9167
46.3699
46.7487
47.0136
47.1619
47.2043
47.168
47.0849
46.9841
46.8846
46.7979
46.7284
46.6774
46.6429
46.6224
46.6117
46.6076
46.6064
46.6062
46.6048
46.6018
46.5961
46.5882
46.5775
46.5647
46.5496
46.5327
46.5138
46.4934
46.471
46.4473
46.4215
46.394
46.3644
46.3333
46.3006
46.2672
46.2333
46.1998
46.1668
46.1352
46.1045
46.0753
46.0474
46.0212
45.9964
45.9735
45.9515
45.9299
45.9078
45.8851
45.8614
45.8365
45.809
45.7803
45.752
45.725
45.6988
45.6756
45.6552
45.635
45.6121
45.5868
45.5556
45.5157
45.4685
45.418
45.3679
45.3255
45.2935
45.2745
45.2655
45.26
45.2481
45.2256
45.1855
45.1225
45.0377
44.9364
44.831
44.725
44.6397
44.578
44.5709
44.5848
44.6572
44.7346
44.8324
44.9218
45.0465
45.1491
45.2638
45.3719
45.5293
45.6803
45.8459
45.971
46.0811
46.1516
46.2282
46.2778
46.3459
46.3871
46.4355
46.4633
46.5127
46.555
46.6385
46.7242
46.8583
46.9863
47.161
47.3305
47.5419
47.7383
47.9616
48.1494
48.3543
48.5213
48.7066
48.8531
49.012
49.1376
49.283
49.4104
49.569
49.7122
49.8819
50.0331
50.1986
50.3501
50.5191
50.6735
50.858
51.0298
51.2529
51.4432
51.6538
51.8312
52.047
52.1307
52.1886
52.0619
52.3281
52.1164
52.3829
52.2893
52.5723
52.5116
52.748
52.7595
52.9392
52.8313
53.264
53.147
53.5523
53.4293
53.8264
53.7031
53.8868
53.4464
53.6973
53.311
53.7649
53.5649
53.83
53.6809
53.7973
53.6297
53.5617
53.122
53.0359
52.5075
52.3395
51.8661
51.6128
51.2071
50.9795
50.5272
50.1162
49.4184
48.9544
48.0076
47.4798
46.4856
45.6677
44.5102
43.2803
41.7408
39.9316
37.9136
35.5383
32.9678
50.7511
50.3109
48.433
46.8553
45.9231
45.6303
45.8026
46.1852
46.5818
46.8989
47.1095
47.2146
47.2298
47.1828
47.1017
47.0102
46.9233
46.8495
46.7918
46.7504
46.7232
46.7072
46.6989
46.6955
46.6941
46.6934
46.6917
46.6887
46.6838
46.677
46.6681
46.6575
46.6449
46.6309
46.6155
46.5988
46.5805
46.5609
46.5395
46.5164
46.4913
46.4645
46.4361
46.4073
46.3788
46.3512
46.324
46.2976
46.272
46.2481
46.2253
46.2042
46.185
46.1679
46.1522
46.1376
46.1237
46.1107
46.0973
46.0818
46.0643
46.0467
46.0304
46.0152
46.0014
45.9894
45.9779
45.9641
45.9454
45.9202
45.8859
45.8414
45.788
45.7292
45.6721
45.6268
45.5976
45.5865
45.5889
45.5975
45.6031
45.5989
45.5751
45.524
45.4451
45.3511
45.2483
45.1496
45.0728
45.0289
45.0303
45.0484
45.121
45.1948
45.2875
45.3877
45.5259
45.6404
45.7734
45.908
46.0923
46.2594
46.4417
46.5718
46.6839
46.7457
46.8211
46.8703
46.9481
46.9959
47.0619
47.1059
47.1846
47.2583
47.3802
47.5006
47.6756
47.8396
48.0546
48.2561
48.4992
48.719
48.9634
49.1663
49.3892
49.5674
49.7697
49.9303
50.1
50.2301
50.3824
50.516
50.6831
50.8325
51.0147
51.1739
51.3444
51.5018
51.6592
51.8185
52.0011
52.1863
52.4069
52.6267
52.8215
53.0237
53.2136
53.3226
53.2986
53.2858
53.4552
53.2288
53.5553
53.4784
53.7824
53.7333
53.948
54.0096
54.0921
54.1057
54.415
54.3786
54.8084
54.8156
55.1261
55.0392
55.1552
54.7809
55.0074
54.7488
55.1033
54.8829
55.1497
55.0381
55.12
54.9334
54.7541
54.3136
54.2082
53.6558
53.4424
53.0471
52.7308
52.4876
52.0299
51.7695
51.0656
50.6081
49.8378
49.0839
48.4741
47.5869
46.8025
45.5671
44.406
42.7722
41.0907
39.1226
36.8973
34.504
50.2872
49.8716
48.259
46.9527
46.2195
46.0325
46.2083
46.5237
46.8275
47.0554
47.1928
47.2461
47.2338
47.1796
47.1054
47.028
46.9575
46.8993
46.8545
46.8225
46.8012
46.7878
46.7799
46.7754
46.7725
46.7702
46.7676
46.7643
46.7598
46.7541
46.747
46.7385
46.7287
46.7177
46.7057
46.6927
46.6785
46.6632
46.6464
46.6278
46.6072
46.5852
46.5623
46.5388
46.5156
46.4938
46.4735
46.454
46.4347
46.4159
46.3983
46.3831
46.3708
46.3606
46.3519
46.3453
46.3404
46.3369
46.334
46.3304
46.3251
46.3188
46.3134
46.3096
46.3072
46.3049
46.3012
46.2932
46.2788
46.2558
46.2207
46.1728
46.1155
46.0523
45.9914
45.9466
45.9251
45.9261
45.9436
45.9693
45.9938
46.0078
45.9989
45.9597
45.8921
45.8108
45.7148
45.6332
45.5686
45.5426
45.5518
45.5813
45.6512
45.7166
45.8074
45.9307
46.0844
46.2195
46.3728
46.5449
46.7452
46.9271
47.1151
47.2498
47.36
47.4266
47.4972
47.5528
47.6368
47.7008
47.7863
47.8575
47.9632
48.0686
48.2203
48.3778
48.5799
48.7815
49.0213
49.258
49.5183
49.7625
50.019
50.2416
50.4758
50.6691
50.8806
51.055
51.2377
51.3764
51.5451
51.6921
51.8675
52.0328
52.219
52.3832
52.5554
52.7101
52.8579
53.0242
53.2054
53.4066
53.6336
53.8829
54.0618
54.2957
54.4297
54.5195
54.5102
54.5803
54.6019
54.5688
54.8157
54.7937
55.0868
55.04
55.2192
55.3102
55.3719
55.4942
55.6239
55.8244
56.1791
56.2341
56.4365
56.3761
56.442
56.2336
56.4211
56.3217
56.4789
56.3606
56.491
56.4309
56.402
56.2056
55.989
55.653
55.4276
54.9635
54.687
54.3793
53.9618
53.8264
53.2346
53.0495
52.0739
51.8653
50.8565
50.325
49.5706
48.8615
47.9898
46.7357
45.6033
43.8889
42.279
40.3279
38.2414
35.9809
49.5275
49.2054
48.0701
47.1628
46.6702
46.5597
46.6827
46.8824
47.063
47.1873
47.2493
47.2563
47.2234
47.1678
47.1042
47.0426
46.9887
46.9448
46.9109
46.8858
46.8678
46.8551
46.8461
46.8396
46.8348
46.8308
46.8273
46.8239
46.82
46.8154
46.8098
46.8032
46.7957
46.7874
46.7783
46.7688
46.759
46.7483
46.736
46.7219
46.7062
46.6891
46.6714
46.6541
46.6375
46.6218
46.6078
46.5956
46.584
46.5719
46.5605
46.5526
46.5487
46.5471
46.5469
46.5489
46.5534
46.5596
46.5659
46.5707
46.5754
46.5814
46.5883
46.5954
46.6021
46.6073
46.6098
46.6067
46.5961
46.5759
46.5426
46.497
46.4404
46.3773
46.3201
46.2834
46.2744
46.2896
46.3206
46.3596
46.3981
46.4256
46.4294
46.4037
46.3526
46.2919
46.2084
46.1554
46.1118
46.1066
46.1207
46.1632
46.2247
46.2964
46.3979
46.5405
46.7024
46.8654
47.0452
47.2532
47.4586
47.6542
47.8354
47.9791
48.0874
48.1689
48.2357
48.3082
48.3924
48.4823
48.5828
48.6925
48.82
48.9644
49.1339
49.328
49.5445
49.777
50.0255
50.2883
50.5498
50.8184
51.0746
51.3163
51.5517
51.7694
51.9847
52.189
52.3745
52.5439
52.7175
52.8889
53.0661
53.2525
53.4305
53.6129
53.7765
53.9397
54.0856
54.2657
54.4447
54.6698
54.8959
55.1545
55.3294
55.6086
55.6635
55.7802
55.7193
55.8503
55.8535
56.0127
56.1107
56.2084
56.3566
56.3767
56.5385
56.6521
56.6644
56.9144
56.9613
57.3695
57.468
57.6043
57.6892
57.7259
57.7696
57.7763
57.8265
57.8093
57.808
57.8448
57.7993
57.7991
57.6538
57.5117
57.1673
57.0393
56.5985
56.3687
55.9532
55.7468
55.2657
55.2098
54.3838
54.1928
53.1585
53.0688
51.8991
51.6678
50.6924
50.1291
49.0816
47.9486
46.7621
45.0285
43.4344
41.5125
39.541
37.366
48.6933
48.5262
47.9736
47.5031
47.2229
47.1201
47.1312
47.1878
47.2434
47.2756
47.2774
47.2521
47.2084
47.1562
47.1036
47.0556
47.0144
46.9807
46.9536
46.9321
46.9151
46.9017
46.8911
46.8829
46.8766
46.8716
46.8675
46.864
46.8605
46.8568
46.8524
46.8471
46.8413
46.8356
46.8297
46.8232
46.8164
46.8096
46.802
46.7925
46.7813
46.7698
46.7585
46.7469
46.7362
46.7282
46.7225
46.718
46.7138
46.7096
46.7074
46.7087
46.7132
46.7197
46.7285
46.7395
46.7524
46.7665
46.7815
46.796
46.8088
46.8212
46.8347
46.8492
46.8626
46.8724
46.8778
46.8782
46.8717
46.8553
46.8277
46.7901
46.7438
46.6932
46.649
46.6257
46.6303
46.6576
46.6986
46.7439
46.7871
46.8224
46.8381
46.8301
46.8005
46.7713
46.7171
46.6977
46.674
46.6904
46.7141
46.7769
46.8319
46.9204