/*--------------------------------*- C++ -*----------------------------------*\
| =========                 |                                                 |
| \\      /  F ield         | OpenFOAM: The Open Source CFD Toolbox           |
|  \\    /   O peration     | Version:  2.4.0                                 |
|   \\  /    A nd           | Web:      www.OpenFOAM.org                      |
|    \\/     M anipulation  |                                                 |
\*---------------------------------------------------------------------------*/
FoamFile
{
    version     2.0;
    format      ascii;
    class       volScalarField;
    location    "1.8";
    object      pPrime2Mean;
}
// * * * * * * * * * * * * * * * * * * * * * * * * * * * * * * * * * * * * * //

dimensions      [0 4 -4 0 0 0 0];

internalField   nonuniform List<scalar> 
8800
(
359403
350339
340615
330974
321464
312092
302859
293764
284807
275988
267306
258759
250345
242061
233895
225837
217850
209879
201774
193087
359416
350341
340615
330973
321464
312092
302859
293764
284807
275988
267306
258759
250346
242062
233898
225841
217859
209897
201818
193234
359424
350340
340612
330972
321464
312092
302859
293764
284807
275988
267306
258760
250347
242064
233902
225850
217876
209932
201900
193520
359430
350340
340610
330970
321463
312092
302859
293764
284807
275988
267307
258761
250349
242068
233909
225862
217900
209982
202014
193853
359435
350340
340608
330969
321462
312092
302859
293764
284807
275989
267307
258762
250351
242072
233917
225878
217931
210044
202151
194198
359439
350340
340606
330967
321462
312092
302859
293764
284807
275989
267308
258764
250354
242077
233927
225897
217967
210116
202302
194535
359442
350341
340605
330966
321461
312092
302859
293764
284808
275989
267309
258765
250357
242084
233939
225918
218008
210194
202459
194854
359444
350341
340604
330965
321461
312092
302859
293764
284808
275990
267310
258767
250361
242090
233951
225941
218051
210276
202618
195152
359446
350341
340604
330965
321460
312092
302859
293764
284808
275990
267311
258769
250365
242097
233964
225965
218096
210359
202773
195426
359446
350342
340604
330964
321460
312092
302859
293764
284808
275991
267312
258771
250369
242105
233978
225990
218142
210442
202921
195675
359446
350342
340604
330964
321460
312092
302859
293765
284809
275991
267313
258774
250373
242112
233992
226014
218186
210522
203061
195900
359446
350342
340604
330965
321460
312092
302860
293765
284809
275992
267315
258776
250377
242120
234005
226038
218230
210598
203190
196101
359444
350341
340604
330965
321461
312092
302860
293765
284810
275993
267316
258778
250381
242127
234018
226061
218270
210668
203307
196278
359442
350341
340605
330966
321461
312092
302860
293765
284810
275994
267317
258780
250385
242133
234030
226082
218307
210732
203411
196433
359439
350341
340606
330968
321462
312092
302860
293766
284810
275994
267318
258782
250388
242139
234040
226101
218341
210788
203501
196564
359435
350340
340608
330969
321463
312092
302860
293766
284811
275995
267319
258784
250391
242144
234050
226118
218369
210836
203577
196673
359430
350340
340610
330971
321463
312093
302860
293766
284811
275996
267320
258785
250394
242149
234057
226131
218392
210875
203637
196760
359423
350341
340612
330972
321464
312093
302861
293767
284812
275996
267321
258786
250395
242152
234063
226142
218410
210904
203683
196825
359415
350341
340615
330974
321465
312093
302861
293767
284812
275996
267321
258787
250397
242154
234067
226149
218422
210924
203713
196868
359403
350339
340615
330974
321465
312093
302861
293767
284812
275996
267321
258787
250397
242155
234069
226152
218428
210934
203729
196889
185213
183093
181475
180076
178780
177546
176356
175200
174069
172958
171864
170784
169716
168657
167608
166565
165529
164498
163472
162451
161433
160420
159412
158408
157409
156413
155421
154432
153447
152465
151487
150512
149542
148577
147617
146662
145712
144767
143826
142889
141955
141025
140097
139171
138248
137329
136412
135498
134589
133682
132779
131878
130980
130084
129191
128300
127413
126530
125649
124771
123896
123023
122153
121284
120418
119554
118694
117837
116983
116133
115285
114440
113597
112757
111919
111083
110250
109421
108594
107773
106955
106143
105335
104532
103733
102937
102145
101355
100569
99785.5
99004.7
98226.3
97449.8
96675.4
95902.6
95132
94363.2
93597
92832.9
92071.7
91313.4
90559
89808
89061.5
88319
87581.3
86847.9
86119.4
85394.9
84675.2
83959.3
83247.9
82540.2
81836.4
81135.6
80438.1
79742.9
79050.7
78361
77674.8
76991.8
76312.7
75636.2
74963.2
74292
73624.1
72957.4
72294.2
71632.2
70973.2
70315.2
69659.4
69004.8
68351.9
67700.3
67050.4
66402.3
65756.1
65112.2
64471.3
63833.2
63198.8
62567.6
61940.3
61316.5
60696.5
60080.3
59467.7
58858.4
58252.4
57649.3
57049
56451
55855.5
55261.9
54670.7
54081.5
53495.4
52912
52331.8
51754.4
51181.2
50611
50046
49484.2
48928.2
48375.6
47829.5
47287.2
46752.3
46220.1
45696.7
45173.4
44660.6
44145.8
43642.8
43135.8
42642.2
42142.4
41656.5
41164.2
40684.9
40199.4
39723.7
39243.1
38767.1
38286.4
37806.3
37318.7
36828
36325.4
35814.3
35285.2
34740.3
34167.8
33568.4
32925.7
32226.6
31482.3
30576.5
186723
184464
182622
181036
179601
178259
176983
175754
174561
173398
172258
171137
170033
168943
167864
166797
165738
164686
163642
162604
161571
160545
159524
158509
157500
156495
155494
154498
153507
152519
151535
150556
149582
148612
147648
146689
145736
144787
143842
142902
141965
141032
140102
139174
138250
137328
136410
135495
134584
133676
132772
131870
130971
130075
129181
128291
127403
126519
125638
124761
123885
123012
122141
121273
120407
119544
118683
117826
116972
116121
115274
114429
113586
112746
111908
111073
110241
109412
108587
107767
106951
106140
105334
104532
103734
102940
102149
101361
100576
99793.8
99014.2
98236.8
97461.2
96687.5
95915.4
95145.3
94377.1
93611.2
92847.5
92086.8
91329.1
90575
89824.4
89078.1
88335.9
87598.1
86864.6
86135.6
85410.9
84690.7
83974.7
83262.9
82555
81850.6
81149.3
80450.8
79755.1
79062.1
78372.3
77686.3
77003.9
76325.5
75650
74977.9
74307.9
73640.9
72975.5
72312.7
71651.6
70992.5
70335
69679.1
69024.6
68371.7
67720.3
67070.6
66422.8
65777.3
65134.1
64493.9
63856.8
63223.2
62593.3
61967
61344.6
60725.8
60110.9
59499.5
58891.4
58286.2
57684.3
57084.9
56487.6
55892.3
55298.9
54707.3
54117.6
53530.5
52945.9
52364.1
51785.4
51210.4
50638.3
50070.7
49506.3
48946.6
48390.5
47839.9
47292.6
46752.4
46214
45683.9
45153.6
44632.4
44109.4
43597
43080.9
42576
42066.4
41567
41064
40568.8
40071.5
39578
39083.4
38588.5
38091
37590.4
37084.1
36569.9
36045.8
35506.5
34951.2
34370.7
33765.1
33112.9
32435.6
31639
30835.9
29939.8
187771
185530
183602
181903
180365
178935
177582
176288
175038
173825
172641
171482
170343
169222
168116
167023
165942
164871
163808
162754
161707
160667
159635
158609
157589
156575
155566
154563
153564
152571
151582
150598
149619
148646
147678
146715
145758
144805
143857
142914
141974
141038
140105
139176
138249
137327
136407
135491
134578
133669
132764
131861
130961
130065
129171
128280
127392
126508
125627
124749
123873
123000
122130
121262
120396
119533
118673
117816
116962
116111
115263
114418
113576
112736
111899
111065
110234
109406
108582
107763
106948
106139
105334
104534
103737
102944
102155
101369
100585
99804.5
99026.1
98249.8
97475.1
96702.2
95930.9
95161.4
94393.8
93628.5
92865.6
92105.5
91348.6
90594.9
89845
89098.9
88357
87618.8
86885.2
86155.6
85430.7
84709.9
83993.6
83281.2
82572.8
81867.5
81165.4
80465.9
79769.4
79076
78386.4
77700.8
77019.2
76341.5
75667.2
74996.1
74327.6
73661.4
72997.3
72335.1
71674.6
71015.5
70358.1
69701.8
69047.4
68394.2
67742.8
67093.3
66445.8
65800.8
65158.3
64519
63882.9
63250.4
62621.8
61997
61376.1
60758.8
60145.3
59535
58928.1
58323.9
57723.1
57124.5
56527.8
55932.7
55339.2
54746.9
54156.6
53568.3
52982.2
52398.6
51818.3
51241.4
50667.5
50097.4
49530.4
48967.1
48407.4
47852.6
47300.4
46754.5
46210
45672.4
45134.6
44604.6
44073.3
43550.3
43025.8
42508.5
41990.2
41476.7
40964
40452.9
39944
39433.4
38924.8
38411.3
37898.6
37376.7
36854.8
36316.6
35775.2
35207.3
34633.3
34014.7
33393.5
32686.2
31997.3
31156.3
30324.7
29466.8
188570
186387
184435
182674
181064
179564
178147
176795
175495
174236
173011
171815
170643
169493
168360
167244
166141
165050
163970
162900
161839
160786
159742
158705
157675
156653
155636
154626
153621
152621
151627
150639
149656
148678
147706
146740
145779
144823
143871
142925
141982
141043
140108
139177
138249
137324
136403
135486
134572
133662
132755
131852
130951
130054
129160
128269
127381
126497
125615
124737
123861
122988
122118
121250
120385
119523
118663
117807
116953
116102
115254
114410
113567
112728
111892
111058
110228
109401
108579
107761
106948
106140
105336
104537
103743
102951
102163
101378
100597
99817.4
99040.3
98264.9
97491.2
96719
95948.6
95179.8
94413.1
93648.4
92886.6
92127.3
91371.4
90618.4
89869
89123
88381
87642.5
86908.5
86178.4
85452.9
84731.5
84014.7
83301.5
82592.2
81885.8
81182.7
80482.1
79785
79091.3
78402
77716.8
77036.3
76359.4
75686.5
75016.4
74349.2
73684
73021
72359.5
71699.5
71040.3
70382.8
69726.1
69071.5
68418
67766.6
67117
66469.9
65825.2
65183.7
64544.9
63909.9
63278.6
62651.3
62027.9
61408.5
60792.6
60180.8
59571.6
58966.1
58363.1
57763.6
57165.5
56569.4
55974.2
55380.7
54787.3
54196
53606
53018.1
52432.8
51851.2
51272
50696.4
50123.6
49554.4
48987.6
48424.9
47865.6
47309
46757
46206.8
45661.2
45116.1
44576.1
44037.3
43503.1
42970.6
42441.1
41914
41387.3
40864.3
40338.5
39817.5
39290.5
38768.9
38236.6
37711.4
37167.6
36633.5
36069.8
35517.6
34918
34336.6
33677.2
33051.3
32303.2
31593.5
30765.8
29937.5
29112.5
189214
187090
185142
183352
181694
180142
178674
177273
175927
174626
173364
172134
170932
169754
168596
167457
166333
165224
164127
163041
161967
160902
159846
158799
157760
156729
155705
154687
153676
152671
151672
150679
149692
148710
147734
146764
145800
144840
143886
142936
141990
141049
140112
139178
138249
137323
136401
135482
134567
133656
132748
131843
130942
130045
129150
128259
127371
126486
125605
124726
123851
122978
122108
121241
120376
119514
118655
117799
116946
116095
115247
114403
113561
112722
111886
111053
110224
109398
108577
107761
106949
106142
105340
104543
103749
102959
102173
101390
100610
99831.8
99056
98281.7
97509
96737.7
95968.2
95200.2
94434.4
93670.7
92909.8
92151.5
91396.4
90643.9
89894.9
89148.8
88406.5
87667.6
86933
86202.2
85476.2
84754.2
84036.6
83322.5
82612.3
81904.8
81200.7
80499.1
79801.5
79107.3
78418.3
77733.4
77053.7
76377.8
75706.1
75036.9
74371
73706.7
73044.8
72383.7
71724.1
71064.7
70407
69750.1
69095.3
68441.5
67790.1
67140.4
66493.6
65849.1
65208.4
64570.2
63936.3
63305.8
62679.9
62057.5
61439.8
60825.2
60215
59607.3
59003.3
58401.6
57803.4
57205.3
56609.9
56014.4
55420.6
54826
54233.9
53641.6
53052.2
52464.7
51882.1
51300
50723.2
50147.5
49576.1
49006.4
48440.7
47877
47316.2
46758.2
46202.5
45648.4
45096.7
44546.8
44000.4
43455.9
42915.1
42374.4
41838.4
41299.1
40766
40226
39694.3
39150.4
38618.6
38066.3
37531.2
36965.2
36422
35832.6
35272.5
34644.4
34053.6
33368.1
32723.8
31972.4
31238.2
30447.1
29640.4
28837
189756
187683
185749
183946
182259
180668
179159
177717
176332
174995
173699
172439
171208
170004
168822
167662
166518
165391
164279
163179
162091
161014
159948
158891
157843
156804
155772
154748
153731
152721
151717
150719
149728
148742
147763
146789
145821
144859
143901
142948
142000
141056
140117
139182
138250
137323
136399
135479
134563
133651
132742
131837
130936
130037
129143
128251
127363
126478
125596
124718
123842
122970
122100
121233
120369
119508
118649
117793
116940
116090
115242
114398
113556
112717
111882
111049
110221
109396
108577
107761
106951
106146
105345
104549
103757
102969
102184
101402
100624
99847.3
99072.9
98299.7
97528.2
96758
95989.3
95222.1
94457.2
93694.5
92934.5
92176.9
91422.3
90670.1
89921.2
89174.8
88432
87692.5
86957.2
86225.8
85499.2
84776.4
84058.1
83343.2
82632.1
81923.7
81218.7
80516.2
79817.9
79123.4
78434.1
77749.3
77070.1
76394.8
75723.9
75055.6
74390.7
73727.3
73066.3
72405.7
71746.3
71086.8
70428.9
69771.7
69116.6
68462.6
67811.1
67161.4
66514.8
65870.5
65230.1
64592.4
63959.6
63330.1
62705.4
62084.2
61467.9
60854.4
60245.8
59639.5
59037
58436.6
57839.4
57241.2
56646.3
56050.2
55456.3
54860.4
54267.7
53673.2
53083.1
52493.5
51909.3
51324.5
50746.3
50167.8
49594.4
49021.4
48453.1
47885.2
47320.6
46756.2
46195.4
45632.8
45074.9
44515.8
43962.4
43407.8
42859.6
42307.6
41763.9
41212.1
40670.2
40115.9
39575.2
39015.6
38473.6
37904.9
37358.3
36775.9
36219.9
35614.3
35038.3
34396.4
33785.4
33095.7
32428.7
31694.3
30953.1
30189.7
29402.5
28611.7
190221
188191
186273
184466
182760
181143
179602
178127
176709
175341
174015
172726
171469
170241
169038
167857
166696
165553
164425
163311
162211
161123
160046
158980
157924
156877
155838
154808
153785
152769
151761
150759
149764
148775
147792
146815
145844
144878
143918
142962
142012
141066
140124
139187
138254
137325
136400
135479
134562
133649
132739
131834
130931
130033
129138
128246
127358
126473
125591
124712
123837
122964
122095
121228
120364
119503
118645
117789
116936
116086
115238
114394
113552
112714
111879
111047
110219
109396
108577
107763
106954
106150
105350
104556
103765
102978
102195
101415
100638
99863.2
99090.3
98318.4
97548
96778.7
96010.8
95244.3
94480.2
93718.1
92958.7
92201.4
91446.9
90694.8
89945.7
89198.8
88455.5
87715.4
86979.6
86247.6
85520.4
84796.9
84077.8
83362.2
82650.4
81941.2
81235.4
80532.3
79833.2
79138.1
78448.4
77763.3
77083.8
76408.5
75737.9
75070.1
74406
73743.5
73083.4
72423.3
71764.3
71104.6
70446.7
69789.1
69133.7
68479.4
67827.6
67178
66531.3
65887.1
65246.8
64610
63978.1
63349.8
62726.4
62106.6
61491.5
60878.9
60271.5
59666.1
59065
58465.3
57868.9
57270.6
56676.3
56079.7
55485.4
54888.7
54295.1
53698.6
53107.6
52516.8
51930.3
51343.6
50763.4
50182.4
49606.8
49031
48459.9
47888.1
47319.8
46750.1
46183.4
45614
45049
44482.4
43921.3
43358.5
42802.4
42241.5
41689.2
41127.8
40575.3
40011.4
39458.3
38889
38332.9
37754.6
37192.7
36601.8
36028.9
35417.1
34823.1
34177.5
33549.3
32864.6
32185.9
31468.8
30730.7
29981.5
29204.8
28421.5
190624
188629
186729
184923
183205
181568
180003
178502
177056
175661
174309
172995
171715
170466
169243
168043
166865
165706
164564
163438
162326
161228
160141
159066
158002
156947
155902
154866
153838
152817
151804
150799
149800
148807
147821
146841
145867
144898
143935
142977
142025
141077
140133
139194
138260
137330
136404
135482
134564
133649
132739
131833
130930
130031
129136
128244
127355
126470
125588
124709
123834
122961
122091
121225
120361
119500
118641
117785
116932
116082
115235
114390
113549
112711
111876
111045
110219
109396
108578
107765
106957
106154
105356
104562
103772
102987
102205
101427
100651
99878.3
99106.9
98336.3
97567
96798.4
96031.1
95265.1
94501.3
93739.5
92980.2
92222.8
91468
90715.8
89966.4
89219.1
88475.4
87734.8
86998.4
86265.8
85537.8
84813.5
84093.8
83377.6
82665.1
81955.4
81249.1
80545.5
79845.8
79149.9
78459.5
77773.7
77093.5
76417.5
75746.5
75078.9
74415
73753.2
73093.7
72434.3
71775.6
71116.2
70458.2
69800.4
69144.6
68489.9
67837.9
67188.1
66541.4
65897.7
65257.8
64621.9
63991.1
63364.2
62741.9
62123.8
61509.2
60897.8
60291.2
59686.4
59085.9
58486.9
57890.9
57291.9
56698.1
56101.3
55506.3
54909.3
54314.8
53717.1
53124.6
52532.6
51943.3
51355.6
50772.4
50189.6
49611.4
49033.7
48459.8
47885
47312.7
46739.4
46166.6
45592
45019.4
44446.5
43878.4
43308.7
42744.6
42177.4
41615.5
41047.6
40484
39913.5
39347.5
38771.4
38201.7
37617
37041.1
36445.9
35859.2
35244.1
34636.9
33991.8
33353.3
32676.7
31992.6
31287.5
30552
29807.7
29036.6
28259
190979
189012
187127
185324
183600
181949
180365
178842
177374
175955
174580
173245
171944
170675
169434
168218
167024
165851
164696
163558
162436
161327
160232
159148
158077
157015
155964
154922
153889
152864
151846
150837
149834
148838
147849
146866
145890
144919
143953
142993
142039
141089
140144
139203
138268
137336
136409
135486
134567
133652
132741
131834
130931
130031
129135
128243
127354
126469
125586
124707
123831
122958
122089
121221
120357
119496
118637
117781
116928
116078
115231
114387
113546
112708
111874
111044
110218
109396
108579
107767
106960
106158
105360
104568
103779
102995
102214
101437
100663
99891.7
99121.6
98352.1
97583.4
96815.3
96048.3
95282.4
94518.6
93756.5
92996.7
92238.9
91483.9
90731.4
89981.5
89233.9
88489.6
87748.6
87011.5
86278.2
85549.4
84824.5
84104.1
83387.3
82674.2
81964.2
81257.4
80553.4
79853.2
79156.8
78465.5
77778.8
77097.5
76420.4
75748.7
75080.5
74416.5
73754.9
73095.9
72437.1
71778.8
71119.9
70462
69804.2
69148.4
68493.4
67841.3
67191.7
66545.2
65902.2
65263.1
64627.9
63998.5
63372.9
62751.5
62134.9
61521.1
60910.3
60304.1
59699.9
59099.2
58500.8
57904.1
57305.1
56711.5
56114
55518
54921.7
54325.5
53728
53133.9
52542.2
51948.3
51360.6
50773.7
50189.8
49607.5
49030.1
48452
47876.8
47299.3
46724.4
46144.1
45565.9
44986.6
44408.6
43833.8
43259.5
42686.9
42117.6
41544.7
40973.2
40399.4
39823.4
39246.8
38665.7
38084.2
37495.8
36909
36311.6
35715
35099.6
34483.3
33841
33194.9
32526
31836.9
31137.2
30403
29659.8
28893.9
28121.7
191292
189347
187476
185676
183948
182287
180689
179148
177662
176223
174829
173475
172156
170869
169612
168381
167173
165987
164820
163671
162538
161420
160317
159226
158147
157079
156022
154975
153937
152908
151887
150873
149867
148869
147877
146891
145912
144939
143971
143010
142053
141102
140155
139213
138276
137344
136415
135491
134571
133656
132744
131836
130932
130032
129136
128243
127354
126468
125585
124706
123829
122956
122085
121218
120353
119492
118633
117777
116924
116073
115226
114383
113542
112705
111872
111043
110217
109397
108580
107769
106962
106160
105363
104571
103784
103000
102221
101445
100673
99902.5
99133.5
98364.6
97596.2
96828.1
96060.7
95294.4
94530.1
93767.4
93007
92248.6
91493.1
90740.3
89990
89241.9
88497
87755.3
87017.5
86283.4
85553.7
84828.1
84107.1
83389.8
82676.3
81965.7
81258.6
80554.3
79853.7
79156.9
78464.9
77777.4
77095
76416.9
75743.8
75074.5
74409.9
73748
73089.3
72431.2
71773.5
71115.5
70457.8
69800.4
69144.7
68490
67838.5
67189.4
66543.7
65901.7
65263.8
64629.6
64001.2
63376.6
62755.7
62139.8
61526.5
60916
60310.1
59705.4
59104.9
58507
57907.8
57311.2
56715.6
56118.3
55521.3
54926
54327.4
53730.4
53134.6
52545.1
51945.5
51360
50766.3
50185.1
49596.1
49020.8
48437.2
47863.4
47279.6
46705
46116.3
45536
44950.3
44369.6
43788.4
43213.1
42631.6
42062.9
41480.1
40905.9
40325
39744.7
39160
38575.7
37983.9
37392.8
36797.6
36200.2
35595.4
34982.7
34357.1
33719
33064.4
32399.9
31706.4
31007.5
30275.5
29534.2
28774.4
28007.9
191568
189639
187780
185984
184254
182586
180976
179422
177920
176465
175055
173684
172349
171047
169775
168530
167310
166112
164934
163775
162633
161507
160396
159298
158213
157139
156077
155025
153982
152949
151924
150908
149899
148897
147903
146915
145934
144958
143989
143025
142067
141114
140166
139223
138285
137351
136422
135497
134576
133660
132747
131839
130934
130033
129136
128243
127353
126466
125583
124703
123826
122953
122082
121214
120349
119487
118628
117771
116918
116068
115221
114378
113538
112702
111870
111041
110217
109396
108580
107769
106963
106161
105365
104573
103786
103003
102225
101450
100679
99909.5
99141.3
98372.3
97603.8
96835.2
96067.2
95299.8
94534.7
93771.2
93009.9
92250.8
91494.9
90741.7
89991.1
89242.4
88496.8
87754.2
87015.5
86280.6
85550.2
84824.1
84102.6
83384.8
82670.8
81959.7
81252.4
80547.9
79847.1
79150
78457.4
77769.1
77085.8
76406.5
75732
75061.5
74395.8
73733.5
73074.6
72416.5
71759.7
71102.7
70445.8
69789.3
69134.4
68480.7
67830.3
67182.3
66538
65897
65260.6
64627.5
63999.6
63375.7
62754.9
62138.7
61526.1
60914.3
60308.5
59703.1
59102.4
58504.6
57903.5
57309.1
56710.4
56115
55516.8
54921.6
54322.3
53725.8
53128.7
52539.2
51937.1
51353.2
50751.8
50173.6
49577.4
49004.6
48415.4
47844.6
47253.5
46680.4
46084
45504
44912.9
44331.1
43744.1
43168.3
42579.8
42013
41423
40846.9
40261.6
39675.5
39086.3
38500
37899.5
37310.4
36707.6
36111.9
35496.1
34886.8
34251.3
33615.3
32953.2
32289.3
31594.1
30895.3
30166.9
29429.4
28676.6
27916
191809
189895
188044
186253
184522
182848
181230
179665
178150
176682
175257
173872
172524
171208
169924
168667
167435
166226
165039
163871
162720
161587
160468
159364
158273
157194
156127
155071
154024
152987
151959
150940
149928
148924
147927
146937
145954
144977
144006
143041
142081
141127
140177
139233
138294
137359
136428
135502
134580
133663
132750
131840
130935
130034
129136
128242
127351
126464
125581
124700
123823
122948
122077
121209
120344
119481
118622
117766
116913
116063
115216
114373
113534
112699
111867
111040
110216
109396
108580
107769
106962
106161
105364
104572
103785
103003
102225
101451
100680
99911.1
99143.1
98373.7
97605
96835.7
96066.8
95298.1
94532.2
93767.6
93005.6
92245.6
91489.4
90735.7
89984.6
89235.2
88489
87745.5
87006.2
86270.6
85539.9
84813.3
84091.6
83373.3
82658.9
81947.4
81240.1
80535.3
79834.6
79137.2
78444.3
77754.9
77070.7
76390
75714.4
75042.7
74376
73712.9
73053.6
72395.5
71739.4
71082.9
70427.6
69772.3
69118.9
68466.7
67817.8
67170.7
66527.9
65887.7
65252.6
64620.4
63993.5
63370.2
62750.1
62132.6
61520.8
60907.1
60300.5
59693.1
59092.9
58493.1
57891.4
57297.9
56698.2
56104.2
55505.3
54910.3
54310.8
53713.7
53117.6
52527.3
51925.1
51338.6
50734.7
50156.3
49555.4
48982.5
48389.3
47820.2
47225
46652
46050.3
45469.4
44875.5
44292.7
43702
43123.8
42534
41965.6
41371.3
40796.3
40205.2
39616.4
39022.9
38434.5
37831.9
37243
36632.3
36037.7
35413.4
34802.2
34160.1
33522.2
32856.3
32192.3
31497.3
30800.7
30076.8
29344.6
28599
27844.4
192018
190116
188273
186485
184753
183076
181451
179877
178352
176873
175436
174039
172679
171352
170056
168789
167547
166329
165133
163957
162799
161659
160534
159424
158328
157244
156173
155112
154062
153022
151991
150969
149955
148949
147950
146958
145973
144994
144021
143055
142094
141138
140187
139242
138301
137365
136434
135507
134584
133666
132752
131841
130935
130033
129135
128240
127349
126461
125577
124696
123818
122944
122072
121204
120338
119476
118617
117760
116907
116058
115212
114369
113531
112696
111865
111039
110215
109396
108580
107768
106961
106159
105361
104568
103781
102998
102221
101447
100676
99906.5
99137.9
98367.8
97598.7
96828.4
96058.7
95289.1
94522.7
93757
92994.5
92233.6
91477.3
90722.7
89971.4
89221.2
88474.8
87730.4
86991
86254.9
85524.1
84797.3
84075.5
83356.6
82642.1
81930.2
81222.9
80518
79817.6
79119.8
78426.8
77736.6
77051.7
76369.6
75693.1
75020.2
74352.9
73688.8
73029.1
72370.7
71715
71059.2
70405.3
69751.3
69099.8
68448.8
67801.3
67155.4
66513.9
65874.3
65240.1
64608.9
63983
63360
62740.8
62122.3
61510.5
60894.2
60285.9
59676.2
59075.2
58472.7
57873.6
57278
56680.2
56084.7
55486.2
54892
54293.7
53694.9
53102.5
52509.1
51908.7
51319.1
50714.4
50131.8
49530.4
48952.6
48360.3
47790
47192.3
46622.4
46016.6
45435.2
44837.5
44252.3
43660
43080.2
42489.5
41920
41326
40752.4
40157.3
39566.8
38970.3
38378.2
37776.2
37180.1
36571.3
35971.2
35341.1
34725.6
34080.5
33439.3
32773.7
32109.6
31416.5
30724
30004.8
29278.4
28539.8
27791.1
192199
190305
188469
186684
184952
183271
181641
180060
178527
177039
175592
174186
172815
171479
170173
168897
167646
166420
165216
164033
162869
161723
160592
159478
158377
157289
156214
155150
154097
153054
152020
150996
149979
148971
147970
146976
145990
145009
144035
143067
142105
141148
140196
139250
138308
137371
136438
135510
134586
133667
132752
131841
130934
130031
129132
128237
127345
126457
125573
124691
123813
122939
122067
121198
120333
119471
118611
117755
116903
116053
115207
114366
113528
112694
111864
111037
110214
109395
108579
107767
106959
106155
105356
104562
103774
102991
102212
101438
100666
99895.6
99126
98355.3
97585.6
96814.4
96043.9
95273.7
94506.8
93740.5
92977.4
92216.3
91459.9
90704.6
89953.1
89202.5
88455.9
87711.2
86972
86235.6
85505.1
84778
84056.1
83336.9
82622.1
81910
81202.9
80498.2
79798.3
79100.2
78406.9
77715.8
77029.9
76346.7
75669.5
74995.6
74327.9
73663.1
73003.3
72344.8
71689.2
71034
70381.2
69728.6
69078.3
68428.5
67782.3
67137.3
66496.6
65857.8
65224.6
64594.1
63969.4
63346.4
62727.8
62108.4
61495.2
60877.2
60266.2
59654
59051.8
58445.1
57849.9
57253
56656.7
56059
55463.5
54867.4
54272.1
53670.6
53083.9
52484.8
51889.1
51297.1
50694.1
50101.7
49503.3
48920.5
48327.8
47755.9
47159.5
46582.1
45981.9
45399.7
44799
44209.4
43619.6
43036.3
42450.8
41880.5
41284.3
40712.2
40116.7
39523.6
38926.8
38330
37730.1
37125.1
36517.2
35906
35278.9
34656
34012.5
33367.5
32705.9
32041.5
31351.9
30663.4
29948.9
29228.8
28495.8
27752.7
192351
190466
188633
186850
185118
183435
181801
180215
178675
177180
175726
174311
172932
171588
170274
168989
167732
166499
165288
164099
162930
161778
160643
159524
158419
157328
156250
155183
154127
153081
152046
151019
150000
148990
147988
146993
146004
145023
144047
143078
142115
141156
140204
139256
138313
137375
136441
135512
134588
133668
132752
131840
130932
130029
129129
128233
127342
126453
125568
124687
123808
122934
122062
121193
120328
119465
118606
117750
116898
116049
115203
114362
113524
112691
111861
111035
110212
109392
108576
107763
106954
106149
105349
104554
103765
102980
102200
101425
100651
99879.7
99109
98338.2
97567.7
96795.8
96024.4
95254.1
94486.5
93719.7
92956.3
92195.6
91439
90683.7
89932
89181.4
88434.6
87690.5
86951.3
86215.1
85484.7
84757.3
84035.1
83315.6
82600.5
81888.8
81181.6
80477.6
79777.6
79080.2
78386.4
77694.7
77007.6
76323.6
75645.4
74970.8
74302.8
73638
72978.2
72319.7
71664.2
71009.3
70357.2
69705.4
69055.6
68407.1
67761.7
67117.7
66477.8
65840.3
65207.9
64578.2
63954
63330.3
62711.5
62090.8
61475.5
60855.7
60243.5
59631
59024.5
58417.3
57822.6
57222.4
56629.9
56030
55436
54839.8
54249.3
53647.7
53061.3
52458.2
51870.2
51267.2
50666.5
50069.1
49479.2
48893.3
48300.2
47719.8
47123.7
46538.1
45945.9
45357.4
44760.7
44168.1
43584
42996.9
42414.7
41837.8
41249.2
40673.1
40079.3
39485
38891.5
38290
37686.5
37076.5
36468.6
35848.3
35223.6
34595.1
33958.5
33309.8
32653.6
31987.9
31302.9
30616
29907.6
29192.6
28463.8
27726.3
192479
190598
188768
186986
185254
183569
181932
180343
178798
177297
175837
174415
173030
171678
170358
169067
167803
166565
165349
164155
162980
161825
160686
159563
158455
157361
156280
155211
154152
153105
152067
151038
150018
149007
148003
147006
146017
145034
144057
143087
142122
141163
140209
139260
138317
137377
136443
135513
134588
133667
132750
131838
130930
130026
129126
128230
127337
126449
125564
124682
123804
122929
122057
121188
120323
119460
118601
117745
116893
116044
115199
114357
113520
112687
111857
111031
110208
109388
108570
107757
106947
106142
105341
104545
103754
102968
102186
101409
100634
99860.7
99088.6
98317.4
97545.9
96773.9
96002.2
95232
94463.6
93697.1
92933.7
92174
91417
90662.3
89910.4
89160.6
88413.9
87670.5
86930.7
86195.2
85464.2
84737.1
84013.9
83294.5
82578.8
81867.6
81160.3
80457.5
79757.6
79061.4
78366.9
77675.5
76987
76303
75623.6
74949
74280.4
73616.1
72955.6
72297.6
71641.3
70987.1
70334.7
69683.4
69033.5
68386.2
67740.7
67098
66458.4
65822.1
65189.9
64561
63936
63311.7
62691.2
62069.6
61451.7
60831.6
60217.7
59605
58999.7
58392.7
57793.4
57193.4
56600.3
56000.1
55409.9
54812.3
54222.6
53623
53037.2
52432.4
51841.6
51232
50641.4
50041.1
49454.5
48865
48270.1
47678.8
47087.4
46499.3
45909.5
45313.2
44725.6
44132.8
43549.9
42962
42384.5
41799.2
41219.8
40631.6
40046.1
39451.5
38858.1
38252.8
37649.3
37036.7
36422
35800.8
35179.4
34549.6
33915.8
33268.7
32615
31948.9
31268.7
30580.6
29878.4
29166.3
28441.4
27709.3
192580
190704
188875
187093
185360
183675
182036
180444
178896
177390
175925
174499
173108
171751
170426
169130
167861
166618
165398
164199
163022
161862
160721
159595
158485
157388
156304
155233
154173
153123
152084
151054
150032
149019
148014
147017
146026
145042
144065
143093
142128
141168
140213
139263
138319
137379
136444
135513
134587
133666
132749
131836
130927
130023
129123
128226
127334
126445
125560
124678
123800
122925
122053
121184
120318
119456
118597
117741
116888
116039
115194
114353
113515
112682
111852
111026
110202
109381
108563
107749
106939
106133
105331
104534
103742
102955
102172
101393
100616
99841.2
99067.6
98295.6
97522.9
96751.2
95979.3
95209.8
94441
93675.6
92912.2
92153.3
91396.1
90642.5
89890.4
89141.5
88394.8
87652.3
86912.3
86177.4
85445.7
84718.8
83994.8
83275.7
82559.4
81848.8
81141.2
80439.2
79739.7
79044.7
78350
77659.2
76970
76286.2
75605.9
74931.5
74262.3
73598.2
72936.8
72279.2
71622
70968.4
70315
69664.1
69013.9
68367.1
67721.1
67079.4
66439.8
65804.4
65171.4
64542.7
63915.8
63291.1
62668.3
62046.4
61426.1
60807.6
60192.2
59582.5
58974.1
58367.4
57766.9
57166.9
56569.6
55973.8
55382.6
54783.9
54194.9
53597.5
53008
52402.2
51811.1
51206.8
50618.8
50010.5
49427.3
48828.4
48236.5
47647.3
47057.3
46462.3
45873.7
45275.9
44692.9
44098.7
43520.9
42934.7
42357.3
41765.5
41190
40594.5
40014.8
39418.6
38830.1
38221
37618
37001.9
36387.2
35768.5
35144.4
34517.9
33884.3
33242.2
32586.2
31923.1
31244.3
30556.7
29857.9
29147.4
28426.4
27698.2
192656
190782
188954
187172
185439
183753
182113
180519
178968
177460
175991
174561
173166
171806
170477
169177
167904
166658
165434
164233
163053
161891
160747
159619
158506
157408
156323
155250
154188
153137
152096
151065
150043
149029
148023
147024
146033
145048
144070
143098
142131
141171
140215
139265
138320
137380
136444
135513
134587
133665
132748
131835
130926
130021
129121
128224
127331
126442
125557
124675
123796
122921
122049
121180
120314
119452
118592
117736
116884
116035
115190
114348
113510
112676
111846
111019
110195
109374
108556
107741
106931
106125
105323
104525
103732
102944
102159
101378
100599
99823.7
99048.5
98276.3
97502.5
96731.5
95959.3
95190.6
94421.5
93657.5
92893.8
92135.9
91378.3
90626
89873.6
89126.2
88379.2
87637.9
86897.5
86163.3
85430.9
84704.6
83979.8
83261.2
82544.1
81834.2
81126.5
80425.3
79725.6
79031.6
78337.3
77647.8
76958.7
76276
75594.7
74920.6
74249.8
73585.5
72922.8
72265.5
71607.8
70954.8
70300.2
69649.4
68998.2
68351.3
67704.4
67063.3
66423.1
65788.2
65153.9
64525
63896.3