/*--------------------------------*- C++ -*----------------------------------*\
| =========                 |                                                 |
| \\      /  F ield         | OpenFOAM: The Open Source CFD Toolbox           |
|  \\    /   O peration     | Version:  2.4.0                                 |
|   \\  /    A nd           | Web:      www.OpenFOAM.org                      |
|    \\/     M anipulation  |                                                 |
\*---------------------------------------------------------------------------*/
FoamFile
{
    version     2.0;
    format      ascii;
    class       volVectorField;
    location    "1.8";
    object      U_0;
}
// * * * * * * * * * * * * * * * * * * * * * * * * * * * * * * * * * * * * * //

dimensions      [0 1 -1 0 0 0 0];

internalField   nonuniform List<vector> 
8800
(
(8.09242 0.387883 0)
(5.45238 0.242569 0)
(3.90853 0.0432077 0)
(3.16017 -0.0154969 0)
(2.79547 -0.0185774 0)
(2.6077 -0.0109527 0)
(2.47241 -0.00518208 0)
(2.39267 -0.0031693 0)
(2.3068 -0.00102668 0)
(2.26371 -0.000552131 0)
(2.19876 -0.000427678 0)
(2.18595 -0.00112427 0)
(2.12472 0.00111787 0)
(2.11965 -0.000312253 0)
(2.05465 0.000763635 0)
(2.06038 -0.000542448 0)
(1.99046 0.0012481 0)
(1.99701 -0.00298239 0)
(1.99117 0.0111133 0)
(1.70651 -0.0687116 0)
(10.0808 0.838024 0)
(9.67005 0.867982 0)
(8.85738 0.507425 0)
(8.10123 0.261659 0)
(7.47179 0.137238 0)
(7.03536 0.0827646 0)
(6.66336 0.0552829 0)
(6.43896 0.038495 0)
(6.18514 0.0313078 0)
(6.06677 0.0248416 0)
(5.87638 0.0188474 0)
(5.83638 0.014526 0)
(5.65813 0.0191542 0)
(5.6611 0.0136856 0)
(5.48456 0.0173449 0)
(5.50406 0.0107715 0)
(5.33619 0.022992 0)
(5.34299 -0.00852592 0)
(5.27744 0.0365083 0)
(5.10329 -0.0334249 0)
(10.0463 0.629463 0)
(10.6885 0.864316 0)
(10.8347 0.602681 0)
(10.7298 0.373906 0)
(10.415 0.253612 0)
(10.1391 0.19816 0)
(9.77808 0.154033 0)
(9.56667 0.119961 0)
(9.24327 0.0971347 0)
(9.11116 0.0775211 0)
(8.84102 0.0589112 0)
(8.79491 0.0479298 0)
(8.53642 0.0501955 0)
(8.55006 0.0375474 0)
(8.30553 0.0437932 0)
(8.32984 0.0294921 0)
(8.10849 0.0519244 0)
(8.12185 -0.000382754 0)
(7.98113 0.0452567 0)
(7.93597 -0.0627015 0)
(9.95288 0.454382 0)
(10.6354 0.708114 0)
(11.1043 0.545778 0)
(11.4442 0.35242 0)
(11.4777 0.25813 0)
(11.5462 0.232107 0)
(11.4028 0.200557 0)
(11.4025 0.172326 0)
(11.2007 0.15257 0)
(11.1861 0.127693 0)
(10.969 0.10463 0)
(10.9806 0.0875475 0)
(10.7455 0.092162 0)
(10.7809 0.0667109 0)
(10.5593 0.0817814 0)
(10.5766 0.0531213 0)
(10.375 0.0903287 0)
(10.3911 0.0192134 0)
(10.1994 0.0626969 0)
(10.2359 -0.0586989 0)
(9.94504 0.338539 0)
(10.5067 0.574554 0)
(10.957 0.463891 0)
(11.4005 0.29852 0)
(11.5533 0.199656 0)
(11.7636 0.19676 0)
(11.7896 0.177639 0)
(11.92 0.164026 0)
(11.8986 0.151429 0)
(12.0023 0.138572 0)
(11.9423 0.109909 0)
(12.0274 0.10239 0)
(11.9384 0.103696 0)
(12.0097 0.0858362 0)
(11.9263 0.0907287 0)
(11.9598 0.0839388 0)
(11.8678 0.0928345 0)
(11.9061 0.0724205 0)
(11.7851 0.065755 0)
(11.7646 0.0038705 0)
(9.98113 0.248178 0)
(10.3791 0.454445 0)
(10.8518 0.377626 0)
(11.2429 0.252145 0)
(11.4758 0.162445 0)
(11.648 0.152699 0)
(11.7525 0.143945 0)
(11.8674 0.132848 0)
(11.9426 0.126551 0)
(12.0521 0.112795 0)
(12.1104 0.0963925 0)
(12.2046 0.0862887 0)
(12.2342 0.0955157 0)
(12.3176 0.0717253 0)
(12.341 0.0852096 0)
(12.4099 0.0773445 0)
(12.4217 0.0895643 0)
(12.4941 0.0777545 0)
(12.4932 0.108237 0)
(12.4748 0.0425051 0)
(9.99877 0.17263 0)
(10.3132 0.352428 0)
(10.722 0.291783 0)
(11.1384 0.21331 0)
(11.372 0.112204 0)
(11.5811 0.12291 0)
(11.6652 0.100115 0)
(11.772 0.112394 0)
(11.8728 0.0863545 0)
(11.9545 0.106732 0)
(12.0501 0.0533291 0)
(12.1451 0.0871462 0)
(12.1939 0.0564828 0)
(12.2807 0.0807861 0)
(12.3321 0.0376562 0)
(12.3941 0.0957173 0)
(12.4465 0.0349843 0)
(12.5256 0.113438 0)
(12.5881 0.0830121 0)
(12.5656 0.20832 0)
(9.99291 0.10688 0)
(10.2735 0.26037 0)
(10.6415 0.190466 0)
(11.0736 0.171871 0)
(11.3165 0.0721889 0)
(11.5023 0.0985521 0)
(11.6108 0.0611629 0)
(11.7251 0.092713 0)
(11.7695 0.0419122 0)
(11.8771 0.0909935 0)
(11.9824 0.0184284 0)
(12.0556 0.0835493 0)
(12.1324 0.0267785 0)
(12.2263 0.0770718 0)
(12.2909 0.0132868 0)
(12.3095 0.093953 0)
(12.4006 0.00823071 0)
(12.4629 0.106138 0)
(12.5309 0.0692371 0)
(12.4965 0.201441 0)
(10.0014 0.0635538 0)
(10.2483 0.153761 0)
(10.6237 0.118151 0)
(10.9782 0.0948343 0)
(11.2493 0.0480638 0)
(11.4585 0.0548126 0)
(11.5982 0.0353745 0)
(11.6821 0.0503919 0)
(11.7486 0.0406411 0)
(11.827 0.0424249 0)
(11.9117 0.0127932 0)
(12.0086 0.0411443 0)
(12.1073 0.0271563 0)
(12.1765 0.0299911 0)
(12.2217 0.0290597 0)
(12.2776 0.046059 0)
(12.3937 0.0151824 0)
(12.4184 0.0389217 0)
(12.4345 0.0739093 0)
(12.4188 0.0532098 0)
(9.98709 0.0122408 0)
(10.2471 0.0563599 0)
(10.5888 0.0309446 0)
(10.9606 0.0533355 0)
(11.2655 0.00423744 0)
(11.4116 0.0227098 0)
(11.5611 -0.00198559 0)
(11.657 0.0304069 0)
(11.7332 -0.000294563 0)
(11.813 0.0316346 0)
(11.9043 -0.0182793 0)
(11.9955 0.0237333 0)
(12.0535 0.000434795 0)
(12.1417 0.0351296 0)
(12.2012 0.00194899 0)
(12.317 0.0264905 0)
(12.3685 -0.0180114 0)
(12.3664 0.0372565 0)
(12.4224 0.0203257 0)
(12.445 0.0159266 0)
(10.0106 -0.0259312 0)
(10.2237 -0.042405 0)
(10.5877 -0.0430662 0)
(10.9608 -0.0348889 0)
(11.2568 -0.0137658 0)
(11.445 -0.00107212 0)
(11.5334 -0.0322009 0)
(11.6531 -0.0185743 0)
(11.7431 -0.00700224 0)
(11.8331 -0.0115091 0)
(11.9073 -0.0273908 0)
(11.9673 0.000176805 0)
(12.0378 0.000204852 0)
(12.1372 -0.00766625 0)
(12.2184 -0.0136748 0)
(12.3217 -0.0062061 0)
(12.341 -0.0103328 0)
(12.3706 -0.00834353 0)
(12.4614 -0.00887097 0)
(12.4315 -0.00913284 0)
(10.0011 -0.0715469 0)
(10.2463 -0.141364 0)
(10.6198 -0.130577 0)
(10.9903 -0.0835945 0)
(11.2491 -0.0558234 0)
(11.4652 -0.0356883 0)
(11.5862 -0.0528857 0)
(11.6606 -0.0551317 0)
(11.7539 -0.0460497 0)
(11.85 -0.0317275 0)
(11.9227 -0.0363643 0)
(11.9795 -0.0221211 0)
(12.0887 -0.0241292 0)
(12.171 -0.0243318 0)
(12.2541 -0.0320294 0)
(12.2957 -0.0275956 0)
(12.3675 -0.0318661 0)
(12.4395 -0.0405718 0)
(12.4728 -0.0385487 0)
(12.3954 -0.0251555 0)
(9.99536 -0.122296 0)
(10.2758 -0.243247 0)
(10.6744 -0.205804 0)
(11.0207 -0.152399 0)
(11.3199 -0.0827122 0)
(11.4856 -0.0714703 0)
(11.6369 -0.0856819 0)
(11.7172 -0.0863994 0)
(11.7952 -0.0615645 0)
(11.8703 -0.064754 0)
(11.968 -0.0541286 0)
(12.0454 -0.0468045 0)
(12.1232 -0.039367 0)
(12.2129 -0.0507881 0)
(12.2816 -0.0443641 0)
(12.3354 -0.0478349 0)
(12.4332 -0.0586786 0)
(12.4839 -0.0716888 0)
(12.4896 -0.0558986 0)
(12.4569 -0.0368502 0)
(10.0311 -0.179505 0)
(10.2894 -0.352623 0)
(10.7487 -0.286556 0)
(11.1037 -0.202146 0)
(11.3998 -0.121236 0)
(11.5586 -0.11187 0)
(11.6904 -0.113963 0)
(11.7725 -0.118565 0)
(11.8626 -0.0886945 0)
(11.9416 -0.0913374 0)
(12.0442 -0.0716791 0)
(12.1093 -0.0696178 0)
(12.2002 -0.0556557 0)
(12.2747 -0.0712866 0)
(12.3527 -0.0567946 0)
(12.4209 -0.0792299 0)
(12.4976 -0.0784201 0)
(12.5206 -0.092966 0)
(12.5506 -0.0874418 0)
(12.5301 -0.0788649 0)
(10.0649 -0.259499 0)
(10.3141 -0.448299 0)
(10.8894 -0.373593 0)
(11.1775 -0.252876 0)
(11.5434 -0.160968 0)
(11.6062 -0.147657 0)
(11.8133 -0.147507 0)
(11.8267 -0.14824 0)
(11.9822 -0.111252 0)
(11.9875 -0.120565 0)
(12.1442 -0.0922087 0)
(12.1464 -0.093877 0)
(12.2803 -0.0732452 0)
(12.2875 -0.0952392 0)
(12.3972 -0.0742685 0)
(12.3924 -0.101199 0)
(12.4705 -0.0851818 0)
(12.4413 -0.124218 0)
(12.4813 -0.107752 0)
(12.396 -0.113344 0)
(10.0651 -0.35179 0)
(10.3779 -0.563004 0)
(11.0536 -0.459276 0)
(11.3027 -0.296984 0)
(11.6732 -0.208875 0)
(11.662 -0.188079 0)
(11.8954 -0.18548 0)
(11.809 -0.171695 0)
(11.9899 -0.14052 0)
(11.8785 -0.137219 0)
(12.0425 -0.113005 0)
(11.9153 -0.10696 0)
(12.0535 -0.0891066 0)
(11.9137 -0.10373 0)
(12.0272 -0.0816167 0)
(11.8709 -0.105982 0)
(11.9497 -0.0897582 0)
(11.7833 -0.129709 0)
(11.8035 -0.112991 0)
(11.5981 -0.144329 0)
(10.0133 -0.461124 0)
(10.5475 -0.700688 0)
(11.1833 -0.544847 0)
(11.3658 -0.357175 0)
(11.5684 -0.260093 0)
(11.4475 -0.224143 0)
(11.5074 -0.204822 0)
(11.2777 -0.178027 0)
(11.3163 -0.142816 0)
(11.055 -0.130089 0)
(11.0993 -0.106319 0)
(10.8381 -0.0944296 0)
(10.897 -0.0776506 0)
(10.6288 -0.0853379 0)
(10.7025 -0.066796 0)
(10.4253 -0.0859902 0)
(10.4935 -0.0678414 0)
(10.2062 -0.111286 0)
(10.2264 -0.0873912 0)
(9.90753 -0.147255 0)
(10.0649 -0.633465 0)
(10.6488 -0.861423 0)
(10.8788 -0.601238 0)
(10.6823 -0.375345 0)
(10.4632 -0.254623 0)
(10.0795 -0.19472 0)
(9.8475 -0.156526 0)
(9.47598 -0.123639 0)
(9.33569 -0.0916952 0)
(9.0097 -0.0778676 0)
(8.94945 -0.0607178 0)
(8.67013 -0.0518718 0)
(8.66994 -0.0418563 0)
(8.40433 -0.0471343 0)
(8.44359 -0.0382136 0)
(8.17092 -0.0484722 0)
(8.22195 -0.0443479 0)
(7.92778 -0.0666215 0)
(7.94305 -0.0654054 0)
(7.61136 -0.0786687 0)
(10.0847 -0.839118 0)
(9.65286 -0.866996 0)
(8.87708 -0.506453 0)
(8.07689 -0.262769 0)
(7.49602 -0.137826 0)
(7.00404 -0.0810399 0)
(6.70213 -0.0553753 0)
(6.38668 -0.0416586 0)
(6.23921 -0.0280193 0)
(6.00683 -0.0249603 0)
(5.94373 -0.019682 0)
(5.75461 -0.0175488 0)
(5.74326 -0.0137628 0)
(5.56365 -0.0190547 0)
(5.577 -0.0147187 0)
(5.38673 -0.0218557 0)
(5.40622 -0.0200553 0)
(5.18695 -0.0311583 0)
(5.18671 -0.0356816 0)
(4.90529 -0.0135035 0)
(8.09145 -0.388042 0)
(5.44781 -0.242476 0)
(3.91312 -0.0428269 0)
(3.15567 0.0152601 0)
(2.80109 0.0182142 0)
(2.59752 0.01144 0)
(2.48653 0.00535507 0)
(2.37512 0.00190215 0)
(2.32234 0.00222247 0)
(2.24558 0.000386735 0)
(2.2214 0.000457199 0)
(2.1571 6.08625e-05 0)
(2.15154 0.000617739 0)
(2.08775 -0.00128797 0)
(2.0842 1.72005e-05 0)
(2.01225 -0.00220961 0)
(2.00521 -0.000878394 0)
(1.91628 -0.00378247 0)
(1.88361 -0.00379109 0)
(1.74183 0.0116239 0)
(2.27201 -0.173857 0)
(2.27399 0.0355169 0)
(2.37874 0.142554 0)
(2.60127 0.193271 0)
(2.86779 0.183269 0)
(3.12511 0.12804 0)
(3.29499 0.0610262 0)
(3.41117 -0.0173791 0)
(3.43404 -0.0785714 0)
(3.41914 -0.118645 0)
(3.37647 -0.126087 0)
(3.35367 -0.12059 0)
(3.32972 -0.103408 0)
(3.34289 -0.0821172 0)
(3.35581 -0.0641371 0)
(3.41205 -0.044539 0)
(3.45884 -0.019962 0)
(3.52974 0.0017511 0)
(3.59442 0.0356793 0)
(3.66819 0.0516347 0)
(3.76511 0.0679132 0)
(3.83894 0.0695749 0)
(3.95267 0.0536457 0)
(4.02028 0.0327257 0)
(4.11798 0.00556507 0)
(4.16899 -0.0289895 0)
(4.26027 -0.0477951 0)
(4.26744 -0.0615142 0)
(4.36116 -0.0566141 0)
(4.34902 -0.0292834 0)
(4.46509 0.000756957 0)
(4.46562 0.0528969 0)
(4.60737 0.0847645 0)
(4.65385 0.132423 0)
(4.84374 0.133565 0)
(4.91439 0.151233 0)
(5.11585 0.153354 0)
(5.14629 0.133818 0)
(5.4081 0.114034 0)
(5.45962 0.0762247 0)
(5.74892 0.0109932 0)
(5.87862 -0.0252608 0)
(6.08763 -0.118944 0)
(6.30116 -0.182103 0)
(6.46062 -0.272214 0)
(6.67345 -0.380959 0)
(6.83736 -0.455117 0)
(7.00408 -0.54508 0)
(7.18343 -0.624415 0)
(7.30515 -0.676954 0)
(7.44209 -0.702028 0)
(7.53966 -0.728651 0)
(7.66762 -0.731323 0)
(7.72489 -0.729824 0)
(7.74576 -0.70551 0)
(7.75986 -0.68746 0)
(7.65286 -0.642003 0)
(7.60221 -0.635327 0)
(7.46015 -0.582239 0)
(7.28211 -0.530321 0)
(7.10389 -0.517193 0)
(6.9127 -0.457984 0)
(6.85522 -0.469007 0)
(6.64425 -0.431348 0)
(6.66038 -0.370441 0)
(6.7186 -0.265413 0)
(6.72973 -0.129826 0)
(6.96001 -0.121601 0)
(6.95649 0.126166 0)
(7.22573 0.142133 0)
(7.38786 0.190506 0)
(7.43739 0.371643 0)
(7.89304 0.283944 0)
(7.86287 0.507551 0)
(8.34848 0.435083 0)
(8.68805 0.292794 0)
(8.70635 0.593242 0)
(9.49874 0.22087 0)
(9.52292 0.134959 0)
(9.87348 0.140914 0)
(10.4942 -0.279368 0)
(10.5722 -0.369424 0)
(11.0369 -0.567899 0)
(11.4416 -1.08962 0)
(11.6104 -1.22698 0)
(11.9737 -1.57957 0)
(12.4302 -2.16343 0)
(12.5705 -2.36423 0)
(12.9522 -2.85174 0)
(13.272 -3.46756 0)
(13.2519 -3.64147 0)
(13.3649 -4.24382 0)
(13.2067 -4.39376 0)
(12.7647 -4.21212 0)
(12.5662 -4.48214 0)
(11.8868 -4.07825 0)
(11.3002 -3.74629 0)
(10.9303 -3.90076 0)
(10.2056 -3.25935 0)
(9.64781 -2.86152 0)
(9.43599 -3.21482 0)
(8.98 -2.72369 0)
(8.59725 -2.44975 0)
(8.62856 -2.84551 0)
(8.19095 -2.57402 0)
(7.87059 -2.01448 0)
(7.82703 -2.52346 0)
(7.78103 -2.80725 0)
(7.2646 -2.364 0)
(7.17447 -2.40219 0)
(7.29502 -3.14587 0)
(7.15787 -3.35311 0)
(6.58599 -2.94038 0)
(6.3865 -2.91789 0)
(6.58273 -3.41344 0)
(7.05087 -4.32837 0)
(7.23359 -5.06738 0)
(7.59569 -5.80132 0)
(7.94242 -6.42004 0)
(8.42985 -7.10688 0)
(8.88625 -7.3155 0)
(9.10405 -6.71977 0)
(8.98844 -5.90205 0)
(8.91959 -5.04925 0)
(8.85404 -4.22849 0)
(8.99413 -3.3047 0)
(9.15819 -2.14279 0)
(9.15244 -0.670373 0)
(9.22923 0.885008 0)
(9.47145 2.47958 0)
(9.63471 3.78921 0)
(9.66885 4.70918 0)
(9.94055 5.71086 0)
(10.0614 6.69872 0)
(9.93062 7.24278 0)
(9.71647 7.69337 0)
(9.70523 8.28992 0)
(9.4578 8.6459 0)
(9.12722 8.64705 0)
(8.80041 8.58439 0)
(8.46289 8.3697 0)
(7.85331 7.60254 0)
(7.20822 6.34212 0)
(6.53678 5.41669 0)
(6.2665 5.06 0)
(6.28988 5.18919 0)
(6.75276 5.42239 0)
(6.87343 5.66726 0)
(7.62677 5.74728 0)
(7.53495 5.54057 0)
(8.21229 5.37838 0)
(8.07195 4.72938 0)
(8.22002 4.35433 0)
(8.41462 3.65256 0)
(8.21891 3.0538 0)
(8.47103 2.56625 0)
(8.17768 1.80211 0)
(8.4067 1.35769 0)
(8.22384 0.811856 0)
(8.59259 0.558561 0)
(8.48914 0.213919 0)
(8.90673 -0.371771 0)
(8.12861 -0.972081 0)
(8.9026 -1.74158 0)
(7.66864 -1.85423 0)
(8.67858 -2.76022 0)
(6.85738 -3.05113 0)
(8.27471 -3.76026 0)
(6.54263 -4.07457 0)
(8.26616 -4.14746 0)
(6.14984 -5.07423 0)
(7.57079 -5.61127 0)
(5.84978 -6.32868 0)
(6.9667 -5.0662 0)
(6.16341 -5.05648 0)
(6.95583 -2.92932 0)
(5.98904 -4.3572 0)
(6.89466 -4.6199 0)
(6.28449 -6.99471 0)
(7.0472 -6.33273 0)
(5.90189 -6.56759 0)
(6.43657 -5.64664 0)
(6.07912 -5.07549 0)
(6.37489 -4.5236 0)
(6.8176 -2.66276 0)
(7.24648 -1.3761 0)
(7.83974 0.151606 0)
(8.31979 1.92947 0)
(8.79816 3.84258 0)
(9.0591 5.61142 0)
(8.76582 6.95686 0)
(8.83121 7.92315 0)
(8.3853 8.48754 0)
(8.16611 8.90435 0)
(7.39816 8.90873 0)
(6.8128 9.42403 0)
(6.45626 9.66962 0)
(5.94612 10.1064 0)
(6.08886 10.4031 0)
(3.73796 12.235 0)
(5.27677 -0.0916607 0)
(5.28085 -0.024604 0)
(5.25159 0.0676522 0)
(5.27094 0.117231 0)
(5.33461 0.103373 0)
(5.44637 0.0465356 0)
(5.53832 -0.0167266 0)
(5.62609 -0.077767 0)
(5.66981 -0.127537 0)
(5.69982 -0.154663 0)
(5.6975 -0.164795 0)
(5.70302 -0.162798 0)
(5.7056 -0.14822 0)
(5.71675 -0.132487 0)
(5.74563 -0.111259 0)
(5.7709 -0.0926515 0)
(5.8247 -0.0724174 0)
(5.85605 -0.0484627 0)
(5.92211 -0.026139 0)
(5.95436 -0.0086396 0)
(6.03069 0.00882011 0)
(6.06395 0.00674558 0)
(6.14255 0.00721489 0)
(6.1823 -0.0157574 0)
(6.23891 -0.0362501 0)
(6.28528 -0.0543657 0)
(6.32674 -0.0839511 0)
(6.36665 -0.0821901 0)
(6.41228 -0.0906386 0)
(6.43854 -0.0691009 0)
(6.51034 -0.0469527 0)
(6.54813 -0.0225375 0)
(6.64931 0.0128136 0)
(6.71423 0.0272443 0)
(6.87652 0.0432731 0)
(6.95373 0.0339331 0)
(7.15348 0.0214744 0)
(7.22919 0.0104177 0)
(7.42235 -0.0446094 0)
(7.59293 -0.0733907 0)
(7.75868 -0.149024 0)
(7.99063 -0.218734 0)
(8.13017 -0.275114 0)
(8.34629 -0.381123 0)
(8.49464 -0.438159 0)
(8.67231 -0.529316 0)
(8.81886 -0.610561 0)
(8.95261 -0.646848 0)
(9.09578 -0.728198 0)
(9.1869 -0.752937 0)
(9.30007 -0.762266 0)
(9.35027 -0.791655 0)
(9.39958 -0.773553 0)
(9.45753 -0.785424 0)
(9.38291 -0.751306 0)
(9.44787 -0.721081 0)
(9.3004 -0.649895 0)
(9.33497 -0.606594 0)
(9.23895 -0.532853 0)
(9.19871 -0.451403 0)
(9.13348 -0.396533 0)
(8.97901 -0.30252 0)
(8.96594 -0.273278 0)
(8.7003 -0.207298 0)
(8.58441 -0.206633 0)
(8.40847 -0.152195 0)
(8.21484 -0.0864966 0)
(8.27188 -0.157038 0)
(7.97869 0.0161506 0)
(8.28957 -0.0199022 0)
(8.20965 0.03943 0)
(8.33357 0.181802 0)
(8.7163 0.0491464 0)
(8.58217 0.265193 0)
(9.16492 0.138172 0)
(9.39781 0.0460566 0)
(9.48868 0.246487 0)
(10.2469 -0.0727363 0)
(10.316 -0.164431 0)
(10.7351 -0.17666 0)
(11.2369 -0.572533 0)
(11.5559 -0.712491 0)
(11.8969 -0.88238 0)
(12.4725 -1.35427 0)
(12.6896 -1.54814 0)
(13.1075 -1.89816 0)
(13.5613 -2.39882 0)
(13.7119 -2.61721 0)
(14.0616 -3.12398 0)
(14.1803 -3.53785 0)
(14.0216 -3.69032 0)
(14.035 -4.08593 0)
(13.5226 -4.0389 0)
(13.0194 -3.96002 0)
(12.5603 -3.97896 0)
(11.6983 -3.56856 0)
(11.2891 -3.38147 0)
(10.7102 -3.35933 0)
(10.0214 -2.81041 0)
(9.77004 -2.69691 0)
(9.52371 -2.86358 0)
(9.03234 -2.39161 0)
(8.9078 -2.29437 0)
(8.76875 -2.5924 0)
(8.29555 -2.24691 0)
(8.06677 -1.8851 0)
(7.99998 -2.45962 0)
(7.76093 -2.62981 0)
(7.26525 -2.20035 0)
(7.17914 -2.41173 0)
(7.23589 -3.12858 0)
(6.9626 -3.09728 0)
(6.40027 -2.74291 0)
(6.33187 -2.90284 0)
(6.43074 -3.67143 0)
(6.78691 -4.49133 0)
(6.78574 -5.2679 0)
(7.23634 -6.07784 0)
(7.32959 -6.74513 0)
(7.77664 -7.44243 0)
(8.11562 -7.46117 0)
(8.14057 -6.73977 0)
(7.87287 -5.77491 0)
(7.66617 -4.86843 0)
(7.65394 -4.09298 0)
(7.74357 -3.16358 0)
(7.82966 -2.01433 0)
(7.73126 -0.652293 0)
(7.73664 0.825198 0)
(8.07412 2.37474 0)
(8.36239 3.61793 0)
(8.58021 4.43124 0)
(8.93488 5.37876 0)
(9.31564 6.55764 0)
(9.26699 7.3001 0)
(9.20311 7.69719 0)
(9.25903 8.21643 0)
(9.16122 8.67626 0)
(8.96153 8.74604 0)
(8.78189 8.72436 0)
(8.5597 8.60754 0)
(8.20036 7.92351 0)
(7.55613 6.89148 0)
(6.76044 5.92883 0)
(6.52515 5.17266 0)
(6.2694 5.00082 0)
(6.94676 5.12985 0)
(6.98313 5.30394 0)
(7.85866 5.49671 0)
(8.05013 5.32844 0)
(8.5201 5.11616 0)
(8.87556 4.67863 0)
(8.90709 4.19233 0)
(9.21185 3.61332 0)
(9.12275 3.0459 0)
(9.397 2.46753 0)
(9.1922 2.00301 0)
(9.31672 1.15381 0)
(8.80509 0.846497 0)
(9.49053 0.324176 0)
(8.8615 0.166966 0)
(9.94108 -0.344188 0)
(8.67069 -1.12432 0)
(9.89539 -1.33404 0)
(8.2971 -2.15093 0)
(9.63652 -2.13741 0)
(7.70222 -3.26533 0)
(9.24764 -3.21262 0)
(7.21503 -4.30071 0)
(9.17908 -3.84675 0)
(6.80111 -4.90264 0)
(8.67457 -5.31049 0)
(6.06818 -6.19862 0)
(7.92855 -5.15718 0)
(6.32125 -5.1232 0)
(7.45579 -2.71233 0)
(6.17102 -4.29948 0)
(7.17306 -4.54392 0)
(6.3835 -6.90172 0)
(6.57888 -5.72822 0)
(5.52465 -6.29891 0)
(5.82302 -5.6731 0)
(5.46587 -4.77946 0)
(5.36079 -4.61021 0)
(5.71784 -3.25454 0)
(6.68265 -1.59166 0)
(7.05011 -0.459382 0)
(8.09554 1.41086 0)
(8.37399 3.69941 0)
(9.12247 5.5516 0)
(9.03125 6.85464 0)
(8.88567 8.03291 0)
(8.54857 8.91831 0)
(8.3126 9.61327 0)
(8.05453 9.79769 0)
(7.54501 9.65619 0)
(7.28832 10.1108 0)
(6.84231 10.4173 0)
(8.3392 10.1611 0)
(6.14765 13.2923 0)
(7.946 -0.032652 0)
(7.92414 0.0293711 0)
(7.91285 0.0731427 0)
(7.90936 0.0787565 0)
(7.93501 0.0634188 0)
(7.99942 -8.88272e-06 0)
(8.05683 -0.0472529 0)
(8.12701 -0.0959674 0)
(8.15197 -0.131183 0)
(8.17468 -0.148169 0)
(8.16162 -0.16684 0)
(8.16016 -0.159761 0)
(8.15164 -0.161119 0)
(8.16038 -0.141958 0)
(8.17814 -0.132576 0)
(8.1945 -0.110724 0)
(8.23902 -0.0878347 0)
(8.25795 -0.0830249 0)
(8.30488 -0.0453387 0)
(8.33655 -0.0524966 0)
(8.3675 -0.0305023 0)
(8.42733 -0.0277824 0)
(8.43199 -0.0467191 0)
(8.51711 -0.0385782 0)
(8.50319 -0.07187 0)
(8.58576 -0.0813869 0)
(8.58421 -0.0910786 0)
(8.63287 -0.117719 0)
(8.66986 -0.0995614 0)
(8.69056 -0.106915 0)
(8.74729 -0.0928922 0)
(8.79005 -0.074147 0)
(8.85829 -0.0647991 0)
(8.92785 -0.052401 0)
(9.0349 -0.0579359 0)
(9.13378 -0.0648427 0)
(9.25662 -0.099798 0)
(9.38389 -0.114604 0)
(9.49262 -0.15984 0)
(9.67429 -0.221334 0)
(9.78466 -0.262129 0)
(9.97952 -0.361689 0)
(10.0997 -0.417087 0)
(10.2616 -0.499234 0)
(10.3775 -0.577518 0)
(10.4931 -0.635001 0)
(10.6188 -0.724108 0)
(10.6643 -0.751573 0)
(10.7967 -0.806293 0)
(10.7972 -0.834963 0)
(10.8857 -0.840955 0)
(10.8842 -0.830132 0)
(10.8772 -0.820713 0)
(10.9266 -0.791261 0)
(10.8258 -0.722892 0)
(10.8932 -0.700809 0)
(10.734 -0.591396 0)
(10.7825 -0.54388 0)
(10.6569 -0.471256 0)
(10.6215 -0.394157 0)
(10.593 -0.347694 0)
(10.3918 -0.250356 0)
(10.4719 -0.242794 0)
(10.2519 -0.133419 0)
(10.2924 -0.113641 0)
(10.1581 -0.0387333 0)
(10.0579 0.0249827 0)
(10.1332 -0.0098258 0)
(9.80321 0.100565 0)
(10.0687 0.00432827 0)
(9.8597 0.0552838 0)
(9.95229 0.0761407 0)
(10.2214 -0.0715113 0)
(10.0609 0.08749 0)
(10.5611 -0.075932 0)
(10.666 -0.188833 0)
(10.8911 -0.0969768 0)
(11.4068 -0.33483 0)
(11.6504 -0.501192 0)
(11.9926 -0.516357 0)
(12.4802 -0.895997 0)
(12.8391 -1.06302 0)
(13.1866 -1.21254 0)
(13.6868 -1.67029 0)
(13.9665 -1.83071 0)
(14.325 -2.19145 0)
(14.609 -2.61062 0)
(14.7377 -2.77376 0)
(14.8474 -3.21481 0)
(14.7059 -3.4076 0)
(14.532 -3.53788 0)
(14.0861 -3.78692 0)
(13.4638 -3.6023 0)
(12.9688 -3.52952 0)
(12.2575 -3.46648 0)
(11.6513 -3.07621 0)
(11.19 -2.95392 0)
(10.5853 -2.91537 0)
(10.1415 -2.4276 0)
(9.90329 -2.46047 0)
(9.66696 -2.64681 0)
(9.3508 -2.21674 0)
(9.17987 -2.08747 0)
(8.87319 -2.31758 0)
(8.52863 -1.98113 0)
(8.30322 -1.79749 0)
(8.19923 -2.32545 0)
(7.85967 -2.31912 0)
(7.4171 -1.89344 0)
(7.32654 -2.29446 0)
(7.28138 -2.9417 0)
(6.77489 -2.71343 0)
(6.2179 -2.43668 0)
(6.10858 -2.88813 0)
(6.1891 -3.82135 0)
(6.37404 -4.59171 0)
(6.33842 -5.43631 0)
(6.75921 -6.20291 0)
(6.63486 -6.91017 0)
(7.00762 -7.58269 0)
(7.11374 -7.46498 0)
(7.17439 -6.6456 0)
(6.79235 -5.67096 0)
(6.52005 -4.88434 0)
(6.47733 -4.20572 0)
(6.69773 -3.27014 0)
(6.88266 -1.99722 0)
(6.80506 -0.681354 0)
(6.81499 0.632866 0)
(7.05396 2.162 0)
(7.33012 3.46277 0)
(7.4926 4.31128 0)
(7.93407 5.24556 0)
(8.35784 6.51628 0)
(8.44326 7.35571 0)
(8.46608 7.77624 0)
(8.59562 8.34602 0)
(8.66375 8.84126 0)
(8.6084 8.95952 0)
(8.43346 8.90651 0)
(8.45727 8.7778 0)
(8.22323 8.42007 0)
(7.8723 7.48127 0)
(7.05577 6.33069 0)
(6.90438 5.37796 0)
(6.368 4.86972 0)
(6.92748 4.79186 0)
(7.07228 4.83058 0)
(7.81946 5.05799 0)
(8.30619 4.87612 0)
(8.78835 4.82523 0)
(9.31237 4.42186 0)
(9.52526 4.09231 0)
(9.92059 3.51526 0)
(9.77588 2.99411 0)
(10.4175 2.44914 0)
(9.83269 1.93077 0)
(10.6369 1.46732 0)
(9.61425 0.683163 0)
(10.3332 0.443785 0)
(9.74734 -0.244342 0)
(10.4282 -0.121766 0)
(9.9668 -1.19247 0)
(10.007 -1.19864 0)
(9.99778 -1.93073 0)
(9.64523 -1.89227 0)
(9.69533 -3.01242 0)
(9.16701 -2.98616 0)
(9.1015 -4.37023 0)
(9.2099 -3.53635 0)
(8.37102 -4.79051 0)
(9.12055 -4.87822 0)
(6.94787 -6.01081 0)
(8.79029 -5.07296 0)
(6.48922 -4.99476 0)
(8.55844 -2.58677 0)
(5.9673 -4.15928 0)
(8.30616 -4.30554 0)
(5.62197 -6.49711 0)
(6.45738 -4.83073 0)
(4.57733 -6.14176 0)
(5.36462 -5.08903 0)
(4.85327 -4.76919 0)
(4.32861 -4.31943 0)
(4.71149 -3.87295 0)
(5.77659 -2.3859 0)
(6.57627 -0.943214 0)
(7.59676 0.836748 0)
(8.32721 3.03092 0)
(8.60587 5.3783 0)
(8.97618 6.86091 0)
(9.03317 8.13456 0)
(9.11207 8.88196 0)
(8.63843 9.39897 0)
(8.58051 9.94511 0)
(8.39037 10.2753 0)
(8.21661 10.2663 0)
(7.0883 11.1534 0)
(10.0081 9.35962 0)
(7.98831 13.3426 0)
(10.3054 0.0117499 0)
(10.228 0.0607065 0)
(10.1563 0.0873559 0)
(10.1235 0.0526512 0)
(10.1069 0.0209323 0)
(10.1856 -0.0212424 0)
(10.2034 -0.0754263 0)
(10.2978 -0.0935978 0)
(10.301 -0.125451 0)
(10.3339 -0.135046 0)
(10.3204 -0.148491 0)
(10.305 -0.15886 0)
(10.3037 -0.15275 0)
(10.2699 -0.157575 0)
(10.3042 -0.144922 0)
(10.2791 -0.133077 0)
(10.3277 -0.120796 0)
(10.343 -0.0952434 0)
(10.3599 -0.0847051 0)
(10.4301 -0.0686578 0)
(10.3975 -0.0576282 0)
(10.5008 -0.0645658 0)
(10.4519 -0.0586822 0)
(10.541 -0.0825422 0)
(10.5287 -0.0840169 0)
(10.5644 -0.104707 0)
(10.6016 -0.114742 0)
(10.6106 -0.119074 0)
(10.6561 -0.132422 0)
(10.6834 -0.117014 0)
(10.7133 -0.123399 0)
(10.7696 -0.116612 0)
(10.8126 -0.111431 0)
(10.8772 -0.111257 0)
(10.9455 -0.129638 0)
(11.0385 -0.140481 0)
(11.1106 -0.173748 0)
(11.2274 -0.213484 0)
(11.2852 -0.242878 0)
(11.4254 -0.321183 0)
(11.4936 -0.359426 0)
(11.6217 -0.441249 0)
(11.7013 -0.515611 0)
(11.7914 -0.590348 0)
(11.8599 -0.648844 0)
(11.8841 -0.722092 0)
(11.9772 -0.791003 0)
(11.9266 -0.799848 0)
(12.0202 -0.869009 0)
(11.9487 -0.840559 0)
(11.9971 -0.86899 0)
(11.9479 -0.823709 0)
(11.9047 -0.789187 0)
(11.9018 -0.773861 0)
(11.7847 -0.680515 0)
(11.8058 -0.671922 0)
(11.6508 -0.570926 0)
(11.6744 -0.520144 0)
(11.5735 -0.436808 0)
(11.5378 -0.366816 0)
(11.5659 -0.312931 0)
(11.3945 -0.208394 0)
(11.548 -0.17636 0)
(11.3244 -0.0729898 0)
(11.4734 -0.0648889 0)
(11.339 0.007692 0)
(11.3863 0.0257508 0)
(11.4334 -0.00473983 0)
(11.2972 0.0903837 0)
(11.5274 -0.00561689 0)
(11.4206 0.00625556 0)
(11.5653 0.0131402 0)
(11.7283 -0.109231 0)
(11.7516 -0.0911548 0)
(12.0971 -0.191053 0)
(12.216 -0.343143 0)
(12.492 -0.359975 0)
(12.8335 -0.54151 0)
(13.1339 -0.748341 0)
(13.392 -0.812989 0)
(13.8651 -1.14782 0)
(14.0807 -1.31067 0)
(14.4096 -1.52373 0)
(14.779 -1.88528 0)
(14.8963 -2.05356 0)
(15.1595 -2.35695 0)
(15.2062 -2.69736 0)
(15.1596 -2.83541 0)
(15.0703 -3.11591 0)
(14.7145 -3.25059 0)
(14.3395 -3.28205 0)
(13.8076 -3.35895 0)
(13.2599 -3.20179 0)
(12.7385 -2.99907 0)
(12.0812 -2.92489 0)
(11.6786 -2.63417 0)
(11.3442 -2.55306 0)
(10.9381 -2.56786 0)
(10.5557 -2.15698 0)
(10.2929 -2.17882 0)
(9.97139 -2.31682 0)
(9.48489 -1.84399 0)
(9.14348 -1.82155 0)
(8.90084 -2.22423 0)
(8.56764 -1.77945 0)
(8.29634 -1.64301 0)
(8.16539 -2.16431 0)
(7.76742 -1.91583 0)
(7.33508 -1.49851 0)
(7.18991 -2.12346 0)
(6.93673 -2.60355 0)
(6.28272 -2.25721 0)
(5.79832 -2.21862 0)
(5.721 -2.96642 0)
(5.82853 -3.91646 0)
(5.88957 -4.72448 0)
(5.97253 -5.59558 0)
(6.12304 -6.24781 0)
(5.91664 -6.95632 0)
(6.16254 -7.4797 0)
(5.92523 -7.29311 0)
(6.16966 -6.38473 0)
(5.77457 -5.50617 0)
(5.56531 -4.95682 0)
(5.52847 -4.48515 0)
(5.75277 -3.63658 0)
(6.07782 -2.22376 0)
(6.15549 -0.760121 0)
(6.2521 0.479145 0)
(6.44405 1.79726 0)
(6.58136 3.04515 0)
(6.67726 3.89297 0)
(7.04634 4.83901 0)
(7.42815 6.11551 0)
(7.61015 7.10432 0)
(7.72255 7.59322 0)
(7.98137 8.16838 0)
(8.16643 8.7119 0)
(8.18537 8.93396 0)
(8.19022 8.91027 0)
(8.33527 8.77343 0)
(8.31972 8.54633 0)
(8.24598 7.81636 0)
(7.57118 6.77342 0)
(7.24331 5.70342 0)
(6.52818 4.82503 0)
(6.71174 4.56928 0)
(6.92467 4.40069 0)
(7.53792 4.51953 0)
(8.27345 4.43653 0)
(8.75019 4.37281 0)
(9.6296 4.14297 0)
(9.71145 3.72871 0)
(10.6069 3.40613 0)
(10.2661 2.77904 0)
(10.9406 2.3393 0)
(10.8639 1.82967 0)
(11.1573 1.48056 0)
(11.2924 0.903719 0)
(10.8516 0.401183 0)
(11.388 -0.0614646 0)
(10.6875 -0.275185 0)
(11.5025 -0.918426 0)
(10.3488 -1.2637 0)
(11.2944 -1.66752 0)
(9.99495 -1.95807 0)
(10.9108 -2.66628 0)
(9.53473 -2.97551 0)
(10.3775 -3.92987 0)
(9.04835 -3.50719 0)
(9.5737 -4.30812 0)
(8.92315 -4.49544 0)
(8.00888 -5.84813 0)
(8.94915 -4.80152 0)
(6.91762 -5.19173 0)
(9.2538 -2.18748 0)
(6.09628 -4.11626 0)
(8.91153 -3.78905 0)
(5.05735 -6.25774 0)
(6.64365 -3.79015 0)
(3.51509 -6.09598 0)
(5.29275 -4.72602 0)
(4.33014 -4.19432 0)
(3.71234 -4.50771 0)
(4.18272 -4.16758 0)
(4.94284 -3.29269 0)
(6.33355 -1.85919 0)
(6.99445 0.264895 0)
(8.17119 2.6115 0)
(8.57392 4.94985 0)
(8.93874 6.70464 0)
(8.83356 8.11684 0)
(9.05877 9.35556 0)
(9.1651 9.79575 0)
(8.67235 10.0997 0)
(8.70087 10.4745 0)
(9.73396 9.98594 0)
(7.48321 11.3695 0)
(10.5246 7.73184 0)
(9.17606 12.3966 0)
(11.9087 0.0124328 0)
(11.8714 0.0389267 0)
(11.776 0.0195138 0)
(11.779 -0.00492803 0)
(11.7398 -0.0325711 0)
(11.8148 -0.0746154 0)
(11.8242 -0.0825984 0)
(11.8853 -0.122159 0)
(11.8901 -0.130769 0)
(11.8854 -0.148711 0)
(11.8792 -0.170878 0)
(11.8361 -0.166735 0)
(11.8505 -0.185264 0)
(11.7946 -0.164256 0)
(11.8382 -0.177472 0)
(11.8018 -0.14707 0)
(11.8461 -0.151107 0)
(11.8533 -0.12646 0)
(11.8603 -0.104473 0)
(11.9172 -0.115878 0)
(11.8872 -0.0750942 0)
(11.9611 -0.104459 0)
(11.9384 -0.0853198 0)
(11.9774 -0.101503 0)
(12.0032 -0.118516 0)
(11.9966 -0.114737 0)
(12.0452 -0.143148 0)
(12.0421 -0.138142 0)
(12.0796 -0.156975 0)
(12.1001 -0.145027 0)
(12.1295 -0.158184 0)
(12.1599 -0.151595 0)
(12.2167 -0.15931 0)
(12.2403 -0.164311 0)
(12.3069 -0.180434 0)
(12.3624 -0.210686 0)
(12.4101 -0.232369 0)
(12.4865 -0.282826 0)
(12.5119 -0.318664 0)
(12.5948 -0.379642 0)
(12.6256 -0.423628 0)
(12.6765 -0.497831 0)
(12.7067 -0.553423 0)
(12.7279 -0.638236 0)
(12.7257 -0.67289 0)
(12.6884 -0.746534 0)
(12.6989 -0.797501 0)
(12.6063 -0.794362 0)
(12.6235 -0.858481 0)
(12.5082 -0.799652 0)
(12.5139 -0.835546 0)
(12.4138 -0.761228 0)
(12.347 -0.737955 0)
(12.3024 -0.708001 0)
(12.1795 -0.617684 0)
(12.1763 -0.619744 0)
(12.0127 -0.514008 0)
(12.0444 -0.478359 0)
(11.9159 -0.394214 0)
(11.9539 -0.332253 0)
(11.9202 -0.275017 0)
(11.8869 -0.198458 0)
(11.9522 -0.175307 0)
(11.8713 -0.0859697 0)
(11.9947 -0.0870128 0)
(11.9316 -0.018899 0)
(12.0826 -0.00746594 0)
(12.0957 -0.0181138 0)
(12.149 0.0238355 0)
(12.3097 -0.0357319 0)
(12.3427 -0.0788848 0)
(12.5149 -0.094115 0)
(12.6217 -0.185643 0)
(12.8391 -0.291592 0)
(12.9922 -0.338515 0)
(13.2494 -0.51041 0)
(13.4467 -0.613657 0)
(13.7281 -0.737822 0)
(14.0026 -0.967276 0)
(14.2156 -1.11865 0)
(14.5222 -1.32793 0)
(14.6985 -1.55775 0)
(14.9426 -1.75905 0)
(15.06 -2.03266 0)
(15.1779 -2.20582 0)
(15.185 -2.48482 0)
(15.1257 -2.66694 0)
(14.9608 -2.74286 0)
(14.711 -2.9389 0)
(14.3912 -2.9289 0)
(14.0237 -2.87546 0)
(13.6104 -2.91466 0)
(13.1259 -2.65617 0)
(12.6663 -2.53269 0)
(12.3814 -2.62097 0)
(11.9242 -2.29375 0)
(11.485 -2.2798 0)
(11.1392 -2.22059 0)
(10.5468 -1.79902 0)
(10.3029 -1.96017 0)
(10.0268 -2.08398 0)
(9.52405 -1.59774 0)
(9.38195 -1.69383 0)
(9.17692 -1.89798 0)
(8.66844 -1.34678 0)
(8.38626 -1.40167 0)
(8.14632 -1.84879 0)
(7.5875 -1.57595 0)
(7.09659 -1.42947 0)
(6.85929 -2.02974 0)
(6.45549 -2.23626 0)
(5.82537 -1.91835 0)
(5.44933 -2.08852 0)
(5.4205 -2.96564 0)
(5.48315 -3.92584 0)
(5.46296 -4.79217 0)
(5.47211 -5.59183 0)
(5.37585 -6.20224 0)
(5.18765 -6.91735 0)
(5.20769 -7.37079 0)
(4.76699 -7.2597 0)
(5.25484 -6.29603 0)
(4.65455 -5.35426 0)
(4.65832 -4.79978 0)
(4.48197 -4.47991 0)
(4.60308 -3.78785 0)
(4.96973 -2.43362 0)
(5.23447 -0.914525 0)
(5.47888 0.461878 0)
(5.67753 1.80206 0)
(5.76234 3.05467 0)
(5.79209 3.83113 0)
(6.18463 4.77437 0)
(6.52707 5.96959 0)
(6.79145 6.97617 0)
(6.95606 7.45126 0)
(7.2699 8.02962 0)
(7.57007 8.65933 0)
(7.69105 8.90128 0)
(7.77544 8.84523 0)
(8.10344 8.6825 0)
(8.07724 8.55766 0)
(8.36556 8.1394 0)
(7.92682 7.19334 0)
(7.61615 6.19495 0)
(7.15564 5.11759 0)
(6.94317 4.46876 0)
(7.03701 3.95473 0)
(7.18987 3.88845 0)
(7.9575 3.802 0)
(8.28834 3.70075 0)
(9.22887 3.63519 0)
(9.65931 3.37805 0)
(10.3336 3.06058 0)
(10.7786 2.68597 0)
(10.9183 2.13516 0)
(11.5287 1.69971 0)
(11.5389 1.30697 0)
(12.0572 0.991593 0)
(11.8756 0.374393 0)
(12.0073 0.0219443 0)