/*--------------------------------*- C++ -*----------------------------------*\
| =========                 |                                                 |
| \\      /  F ield         | OpenFOAM: The Open Source CFD Toolbox           |
|  \\    /   O peration     | Version:  2.4.0                                 |
|   \\  /    A nd           | Web:      www.OpenFOAM.org                      |
|    \\/     M anipulation  |                                                 |
\*---------------------------------------------------------------------------*/
FoamFile
{
    version     2.0;
    format      ascii;
    class       volSymmTensorField;
    location    "1.8";
    object      UPrime2Mean;
}
// * * * * * * * * * * * * * * * * * * * * * * * * * * * * * * * * * * * * * //

dimensions      [0 2 -2 0 0 0 0];

internalField   nonuniform List<symmTensor> 
8800
(
(0.000962575 5.08421e-05 0 0.000107416 0 0)
(0.0179361 -0.000696254 0 4.0621e-05 0 0)
(0.0352323 -6.49986e-05 0 1.11472e-05 0 0)
(0.0445231 9.02399e-05 0 6.22539e-06 0 0)
(0.0504913 6.01007e-05 0 5.24876e-06 0 0)
(0.0567318 2.1979e-05 0 6.72953e-06 0 0)
(0.0598596 -1.04297e-05 0 7.87442e-06 0 0)
(0.0629653 -5.39861e-05 0 1.02362e-05 0 0)
(0.0656358 -7.21878e-05 0 1.08625e-05 0 0)
(0.0668385 -0.000101013 0 1.34688e-05 0 0)
(0.0698045 -0.000114339 0 1.3512e-05 0 0)
(0.0700228 -0.000146142 0 1.67955e-05 0 0)
(0.0733122 -0.000168255 0 1.62703e-05 0 0)
(0.0734933 -0.000193741 0 2.01744e-05 0 0)
(0.0777318 -0.00027355 0 1.9372e-05 0 0)
(0.0782094 -0.000207454 0 2.48921e-05 0 0)
(0.0874728 -0.000756211 0 2.69909e-05 0 0)
(0.0857343 0.00083893 0 7.12536e-05 0 0)
(0.139894 -0.0094265 0 0.000982169 0 0)
(0.147419 0.0166973 0 0.00331655 0 0)
(0.0057883 0.00148054 0 0.00065446 0 0)
(0.00165342 -0.000678926 0 0.000869899 0 0)
(0.0114308 -0.001138 0 0.00037876 0 0)
(0.0181178 -0.00136627 0 0.000164037 0 0)
(0.0271068 -0.00124349 0 0.000104035 0 0)
(0.0401449 -0.00117992 0 8.90072e-05 0 0)
(0.0513027 -0.00148722 0 0.000103949 0 0)
(0.060351 -0.00104188 0 8.02477e-05 0 0)
(0.0769134 -0.00158005 0 0.000105901 0 0)
(0.0766653 -0.00118333 0 8.9873e-05 0 0)
(0.100456 -0.00174772 0 0.000119212 0 0)
(0.0914389 -0.00152542 0 0.000113844 0 0)
(0.121736 -0.00223805 0 0.000155513 0 0)
(0.105953 -0.00197728 0 0.000152521 0 0)
(0.143805 -0.00306725 0 0.000223801 0 0)
(0.120473 -0.00307625 0 0.000255486 0 0)
(0.173139 -0.00340419 0 0.000346575 0 0)
(0.143541 -0.00736022 0 0.000908221 0 0)
(0.241614 -0.00391337 0 0.000697901 0 0)
(0.235501 -0.0310549 0 0.0117076 0 0)
(0.0144909 0.000591418 0 0.000444469 0 0)
(0.0143423 0.000106123 0 0.00105193 0 0)
(0.0370067 -8.34419e-05 0 0.000693149 0 0)
(0.0401442 -0.00110675 0 0.000404411 0 0)
(0.0566882 -0.00110248 0 0.000331754 0 0)
(0.0659582 -0.00167355 0 0.000317029 0 0)
(0.0860793 -0.00333084 0 0.000379694 0 0)
(0.0910732 -0.00208443 0 0.000268497 0 0)
(0.127889 -0.00473903 0 0.000362791 0 0)
(0.116167 -0.00305785 0 0.00025014 0 0)
(0.174804 -0.00583633 0 0.000374585 0 0)
(0.141235 -0.00427289 0 0.000297821 0 0)
(0.222937 -0.00775714 0 0.00051987 0 0)
(0.163556 -0.00547032 0 0.000432136 0 0)
(0.275093 -0.0111061 0 0.000879782 0 0)
(0.178012 -0.00672563 0 0.000752474 0 0)
(0.336933 -0.0150868 0 0.00154056 0 0)
(0.191909 -0.00889105 0 0.0018942 0 0)
(0.422295 -0.0199097 0 0.00352156 0 0)
(0.239101 -0.0271304 0 0.014332 0 0)
(0.0708623 -0.000380272 0 0.000363141 0 0)
(0.0826703 -0.000126065 0 0.000868086 0 0)
(0.128439 -0.00117734 0 0.00072153 0 0)
(0.133803 -0.00226322 0 0.000511201 0 0)
(0.165811 -0.00149228 0 0.000524266 0 0)
(0.172062 -0.00274564 0 0.00055482 0 0)
(0.208698 -0.00525584 0 0.000741241 0 0)
(0.204555 -0.00272938 0 0.000560937 0 0)
(0.262797 -0.00885377 0 0.000857291 0 0)
(0.234032 -0.00480149 0 0.000566664 0 0)
(0.324277 -0.011804 0 0.000942917 0 0)
(0.262088 -0.0076341 0 0.000688168 0 0)
(0.390403 -0.0160712 0 0.00131805 0 0)
(0.286802 -0.0103222 0 0.000972713 0 0)
(0.463451 -0.0230025 0 0.00218947 0 0)
(0.299911 -0.0128105 0 0.00158219 0 0)
(0.548639 -0.0311526 0 0.00351807 0 0)
(0.297885 -0.0162217 0 0.00386007 0 0)
(0.657577 -0.0376803 0 0.00593605 0 0)
(0.292445 -0.0311412 0 0.0215333 0 0)
(0.276432 -0.00129804 0 0.000606611 0 0)
(0.273673 8.83659e-05 0 0.00115971 0 0)
(0.306142 -0.00415338 0 0.00139244 0 0)
(0.294802 -0.00424929 0 0.00104285 0 0)
(0.319456 -0.00440509 0 0.00114415 0 0)
(0.311309 -0.00597675 0 0.00105389 0 0)
(0.342442 -0.00887799 0 0.00162374 0 0)
(0.326938 -0.00543572 0 0.00119436 0 0)
(0.376056 -0.0137321 0 0.00204885 0 0)
(0.343151 -0.00761745 0 0.0013786 0 0)
(0.41331 -0.0177395 0 0.00239349 0 0)
(0.360415 -0.0112931 0 0.00164773 0 0)
(0.451318 -0.0231677 0 0.00315473 0 0)
(0.37842 -0.0148538 0 0.00211161 0 0)
(0.490975 -0.0318729 0 0.004605 0 0)
(0.392369 -0.0185806 0 0.00288763 0 0)
(0.536285 -0.0427713 0 0.00670176 0 0)
(0.396062 -0.0234669 0 0.00539301 0 0)
(0.596304 -0.0533592 0 0.0103074 0 0)
(0.382555 -0.0324308 0 0.0247453 0 0)
(0.346911 -0.00553168 0 0.00199437 0 0)
(0.297567 -0.00112288 0 0.00271393 0 0)
(0.290485 -0.00763362 0 0.00343547 0 0)
(0.249271 -0.00598564 0 0.0022248 0 0)
(0.258114 -0.00839654 0 0.0030365 0 0)
(0.237246 -0.00790369 0 0.00249059 0 0)
(0.242721 -0.0111041 0 0.0036007 0 0)
(0.227492 -0.00740265 0 0.00261442 0 0)
(0.237998 -0.0141538 0 0.00431538 0 0)
(0.225059 -0.00933855 0 0.00289977 0 0)
(0.236212 -0.0170316 0 0.00488397 0 0)
(0.227685 -0.0125054 0 0.00346225 0 0)
(0.234681 -0.0202196 0 0.0059495 0 0)
(0.236376 -0.0155795 0 0.00417796 0 0)
(0.231042 -0.0250591 0 0.0080204 0 0)
(0.250664 -0.019306 0 0.00521094 0 0)
(0.224479 -0.0307326 0 0.0112322 0 0)
(0.270588 -0.024336 0 0.00787315 0 0)
(0.217361 -0.0353021 0 0.0182566 0 0)
(0.298072 -0.0328151 0 0.02245 0 0)
(0.16161 -0.00898388 0 0.00372322 0 0)
(0.143658 -0.00770726 0 0.00550455 0 0)
(0.134168 -0.00711632 0 0.00537024 0 0)
(0.124268 -0.0101599 0 0.00456277 0 0)
(0.121365 -0.00911609 0 0.00555237 0 0)
(0.12304 -0.00938401 0 0.0049546 0 0)
(0.118607 -0.00975147 0 0.00557912 0 0)
(0.120748 -0.00945664 0 0.00505982 0 0)
(0.121116 -0.0103833 0 0.0061647 0 0)
(0.123212 -0.0103124 0 0.00546069 0 0)
(0.121411 -0.0118999 0 0.00690752 0 0)
(0.130003 -0.0113787 0 0.00618912 0 0)
(0.124847 -0.0124869 0 0.00814167 0 0)
(0.139866 -0.0128349 0 0.00730024 0 0)
(0.127079 -0.0126598 0 0.0103034 0 0)
(0.15411 -0.0145936 0 0.00886453 0 0)
(0.128606 -0.0113155 0 0.0138284 0 0)
(0.175146 -0.0164497 0 0.0128478 0 0)
(0.131162 -0.00500805 0 0.0220348 0 0)
(0.207378 -0.0150697 0 0.0334459 0 0)
(0.142336 -0.0105666 0 0.00460101 0 0)
(0.173572 -0.0169282 0 0.00920504 0 0)
(0.139069 -0.00774118 0 0.00722976 0 0)
(0.176011 -0.0126999 0 0.00626646 0 0)
(0.152527 -0.0105856 0 0.00727592 0 0)
(0.173427 -0.0103886 0 0.0072148 0 0)
(0.170481 -0.00888132 0 0.00668351 0 0)
(0.177459 -0.0105403 0 0.00731479 0 0)
(0.183384 -0.00832941 0 0.00746999 0 0)
(0.182443 -0.00999304 0 0.00755489 0 0)
(0.195463 -0.00801784 0 0.00808066 0 0)
(0.188531 -0.00948272 0 0.00860672 0 0)
(0.211855 -0.00627318 0 0.00922126 0 0)
(0.198228 -0.00941116 0 0.0098745 0 0)
(0.224151 -0.00333775 0 0.0112619 0 0)
(0.210973 -0.00887694 0 0.0117878 0 0)
(0.240616 0.0018982 0 0.0144417 0 0)
(0.228312 -0.0072316 0 0.0170871 0 0)
(0.257486 0.0133397 0 0.0225897 0 0)
(0.253233 -0.000414827 0 0.039122 0 0)
(0.243266 -0.00758004 0 0.00441094 0 0)
(0.271972 -0.0161265 0 0.0117538 0 0)
(0.234753 -0.00505644 0 0.00821534 0 0)
(0.241878 -0.00803285 0 0.00728198 0 0)
(0.266757 -0.006055 0 0.00723953 0 0)
(0.229773 -0.00606521 0 0.00808825 0 0)
(0.298592 -0.00388911 0 0.00676244 0 0)
(0.228358 -0.00589204 0 0.00815852 0 0)
(0.31503 -0.00180815 0 0.00724059 0 0)
(0.232156 -0.00576043 0 0.00870778 0 0)
(0.325523 0.000146596 0 0.00778617 0 0)
(0.240944 -0.004585 0 0.00956594 0 0)
(0.339402 0.00282357 0 0.00891697 0 0)
(0.252862 -0.00391934 0 0.0109448 0 0)
(0.355457 0.00674159 0 0.0102399 0 0)
(0.267902 -0.00242266 0 0.0128476 0 0)
(0.370959 0.0131121 0 0.0127289 0 0)
(0.289641 0.000542837 0 0.0177181 0 0)
(0.388005 0.0252315 0 0.0191469 0 0)
(0.329681 0.00583115 0 0.0327811 0 0)
(0.272399 -0.00369799 0 0.00320936 0 0)
(0.302343 -0.00749051 0 0.00896646 0 0)
(0.292072 -0.000757499 0 0.00537677 0 0)
(0.25098 -0.00153523 0 0.00551378 0 0)
(0.313882 -0.000679545 0 0.00492363 0 0)
(0.242216 -0.000861476 0 0.00594323 0 0)
(0.324616 0.00124213 0 0.00459667 0 0)
(0.242218 -0.000573115 0 0.00615346 0 0)
(0.324608 0.00334519 0 0.00493736 0 0)
(0.246684 -0.000340636 0 0.0064403 0 0)
(0.330973 0.00441881 0 0.00539222 0 0)
(0.261065 0.000844 0 0.00691612 0 0)
(0.338773 0.00698943 0 0.00602361 0 0)
(0.277721 0.0016552 0 0.00780008 0 0)
(0.347767 0.0102938 0 0.00666249 0 0)
(0.300163 0.00393589 0 0.00896228 0 0)
(0.35995 0.0154815 0 0.00782584 0 0)
(0.33579 0.008466 0 0.0118474 0 0)
(0.377643 0.0248083 0 0.011511 0 0)
(0.407605 0.014085 0 0.0214608 0 0)
(0.184493 -0.00128756 0 0.00239642 0 0)
(0.211336 -0.00123995 0 0.00556439 0 0)
(0.200634 0.00192351 0 0.00379487 0 0)
(0.179033 0.00300095 0 0.00351026 0 0)
(0.208771 0.00189406 0 0.00420422 0 0)
(0.180994 0.00276595 0 0.00425851 0 0)
(0.209939 0.00321002 0 0.00408462 0 0)
(0.184425 0.00385079 0 0.00450406 0 0)
(0.209818 0.00456316 0 0.00426756 0 0)
(0.192768 0.00466257 0 0.00472584 0 0)
(0.209395 0.00571047 0 0.00458393 0 0)
(0.209649 0.00581912 0 0.00495236 0 0)
(0.214201 0.00767854 0 0.00490792 0 0)
(0.223839 0.00743507 0 0.0054037 0 0)
(0.21997 0.00995111 0 0.00528124 0 0)
(0.24466 0.0105642 0 0.00601721 0 0)
(0.225936 0.013179 0 0.00600023 0 0)
(0.278182 0.0162742 0 0.00743414 0 0)
(0.231151 0.0192722 0 0.00837369 0 0)
(0.341034 0.0240235 0 0.013449 0 0)
(0.0801372 -0.000314636 0 0.00211577 0 0)
(0.0901154 0.000622874 0 0.00459256 0 0)
(0.0810018 0.00127703 0 0.00356491 0 0)
(0.0851519 0.00245502 0 0.00348928 0 0)
(0.0861906 0.00136705 0 0.00384302 0 0)
(0.0898693 0.00221623 0 0.00408075 0 0)
(0.0899233 0.00150896 0 0.00391276 0 0)
(0.0948529 0.00345774 0 0.00432691 0 0)
(0.0908134 0.00225737 0 0.00390735 0 0)
(0.104216 0.00423276 0 0.00437322 0 0)
(0.0900895 0.00300052 0 0.00403656 0 0)
(0.116001 0.00504774 0 0.00447238 0 0)
(0.0936294 0.00382869 0 0.00415181 0 0)
(0.127652 0.00613175 0 0.00464859 0 0)
(0.0970284 0.004416 0 0.00418456 0 0)
(0.143305 0.00825811 0 0.00483615 0 0)
(0.0987251 0.00544628 0 0.0044151 0 0)
(0.166771 0.0118805 0 0.00559606 0 0)
(0.100068 0.00854114 0 0.00572353 0 0)
(0.209997 0.0169786 0 0.00935898 0 0)
(0.0265827 -0.00010422 0 0.00173477 0 0)
(0.0290419 0.000218762 0 0.00379708 0 0)
(0.0263961 -0.000304414 0 0.00311187 0 0)
(0.0344066 0.000662926 0 0.00287243 0 0)
(0.0317149 0.000248102 0 0.00292168 0 0)
(0.0360719 0.000822719 0 0.00307903 0 0)
(0.0347032 9.07722e-05 0 0.00307459 0 0)
(0.0404718 0.00142473 0 0.00339848 0 0)
(0.0360294 0.00020779 0 0.00300943 0 0)
(0.046227 0.00199986 0 0.00323683 0 0)
(0.0365036 0.000847758 0 0.00295913 0 0)
(0.0510474 0.00236496 0 0.00325136 0 0)
(0.0387168 0.00115184 0 0.00305701 0 0)
(0.0569911 0.00277157 0 0.00316304 0 0)
(0.0416801 0.00132861 0 0.00286215 0 0)
(0.0640038 0.00381052 0 0.00301106 0 0)
(0.0444253 0.00202748 0 0.00281481 0 0)
(0.074566 0.00572902 0 0.00326827 0 0)
(0.0494954 0.00438959 0 0.00356769 0 0)
(0.0949929 0.00932015 0 0.00549702 0 0)
(0.0080664 -0.00022462 0 0.00125762 0 0)
(0.00586339 -0.000576348 0 0.00285224 0 0)
(0.00694078 -0.00126028 0 0.00254097 0 0)
(0.0102963 -0.000527446 0 0.00197584 0 0)
(0.0103756 -0.000208112 0 0.00204154 0 0)
(0.0116576 -0.000262346 0 0.00197734 0 0)
(0.0131144 -0.000295406 0 0.00211386 0 0)
(0.0143391 -0.000283343 0 0.00226583 0 0)
(0.015736 -0.000601602 0 0.00204942 0 0)
(0.0177919 -3.50103e-06 0 0.00202364 0 0)
(0.0170932 -0.00013155 0 0.00189916 0 0)
(0.0200494 0.000145893 0 0.00195185 0 0)
(0.0190101 -0.00012352 0 0.00195795 0 0)
(0.0234806 2.47539e-06 0 0.00186579 0 0)
(0.0219735 -3.76038e-05 0 0.00173198 0 0)
(0.0276299 0.000464699 0 0.00163044 0 0)
(0.0258358 0.000621904 0 0.0015663 0 0)
(0.0346377 0.00180602 0 0.00175255 0 0)
(0.0337626 0.00286855 0 0.00204293 0 0)
(0.0484381 0.0060828 0 0.00343364 0 0)
(0.00675318 -0.00033948 0 0.000932531 0 0)
(0.00290343 -0.000801241 0 0.00224115 0 0)
(0.00407609 -0.00137481 0 0.00206997 0 0)
(0.00542361 -0.000912475 0 0.00149985 0 0)
(0.00697991 -0.000451005 0 0.00156716 0 0)
(0.006821 -0.000442071 0 0.00150209 0 0)
(0.00845655 -0.000532103 0 0.00171047 0 0)
(0.00873148 -0.000882882 0 0.00182854 0 0)
(0.011053 -0.000908586 0 0.00169036 0 0)
(0.0112427 -0.000638966 0 0.00159169 0 0)
(0.0130015 -0.000449894 0 0.00146788 0 0)
(0.0130165 -0.000414893 0 0.00144963 0 0)
(0.0148397 -0.000399334 0 0.0014359 0 0)
(0.0153992 -0.000613433 0 0.00133119 0 0)
(0.0175344 -0.000413124 0 0.00120361 0 0)
(0.0183712 -0.000337668 0 0.0010677 0 0)
(0.0210803 0.000206641 0 0.000962019 0 0)
(0.0236673 0.000782991 0 0.000985202 0 0)
(0.0283123 0.00225483 0 0.00115604 0 0)
(0.0351693 0.00452064 0 0.00190558 0 0)
(0.00826529 -0.000330179 0 0.000555349 0 0)
(0.00464373 -0.000229711 0 0.00147658 0 0)
(0.00478587 -0.000821385 0 0.00141834 0 0)
(0.00577052 -0.000619346 0 0.00105315 0 0)
(0.00761734 -0.000317221 0 0.00118737 0 0)
(0.00706821 -0.000140109 0 0.00107684 0 0)
(0.00911005 -0.000279633 0 0.0011894 0 0)
(0.00827803 -0.000334273 0 0.0012829 0 0)
(0.0101145 -0.000463711 0 0.00121775 0 0)
(0.00874439 -0.000135655 0 0.00113534 0 0)
(0.0104863 -0.000123727 0 0.00100875 0 0)
(0.00879693 7.41593e-05 0 0.000946983 0 0)
(0.010271 1.12408e-05 0 0.000896478 0 0)
(0.0084848 -7.13469e-06 0 0.000828335 0 0)
(0.00996049 -8.45255e-06 0 0.000729219 0 0)
(0.00841912 2.90574e-05 0 0.000657612 0 0)
(0.0102283 0.000337286 0 0.000546804 0 0)
(0.00998037 0.000614793 0 0.000553946 0 0)
(0.0133468 0.00161645 0 0.000633947 0 0)
(0.0169038 0.00270945 0 0.00105628 0 0)
(0.00715491 -0.000528053 0 0.000345395 0 0)
(0.00377714 -2.75737e-07 0 0.00101506 0 0)
(0.0041286 -0.000299512 0 0.000866271 0 0)
(0.00552423 -0.000261445 0 0.000591972 0 0)
(0.00685017 -8.862e-05 0 0.000708602 0 0)
(0.00597636 7.08898e-05 0 0.000673459 0 0)
(0.00673567 0.00013509 0 0.00070056 0 0)
(0.00529601 0.000418134 0 0.000711973 0 0)
(0.0051269 0.000420371 0 0.000647376 0 0)
(0.00415828 0.000720863 0 0.000583007 0 0)
(0.00377539 0.000630905 0 0.00051069 0 0)
(0.00368236 0.000838468 0 0.000471761 0 0)
(0.00299941 0.000687821 0 0.000438476 0 0)
(0.00370313 0.000805841 0 0.000407152 0 0)
(0.00296612 0.000542763 0 0.000352534 0 0)
(0.0043779 0.000685381 0 0.000331046 0 0)
(0.00391303 0.000399016 0 0.000279809 0 0)
(0.00587804 0.000711301 0 0.000284891 0 0)
(0.00661165 0.000679295 0 0.000388333 0 0)
(0.00965547 0.00140237 0 0.000540933 0 0)
(0.00573085 -0.00106102 0 0.000405625 0 0)
(0.0017981 -0.000310415 0 0.00103073 0 0)
(0.00195584 -4.40272e-05 0 0.000671335 0 0)
(0.00265471 0.000129332 0 0.000393583 0 0)
(0.00276303 0.000496364 0 0.000375869 0 0)
(0.00289342 0.000785084 0 0.000336788 0 0)
(0.00450893 0.000953858 0 0.0003183 0 0)
(0.00708574 0.00112941 0 0.000299196 0 0)
(0.00883942 0.00105168 0 0.000257675 0 0)
(0.0130959 0.00108575 0 0.000225276 0 0)
(0.0139078 0.000922996 0 0.0001957 0 0)
(0.019266 0.000952615 0 0.000181902 0 0)
(0.0186928 0.000776736 0 0.000174811 0 0)
(0.0248432 0.00082421 0 0.000162424 0 0)
(0.0231131 0.000501348 0 0.000145138 0 0)
(0.0293502 0.000631651 0 0.000137385 0 0)
(0.0269635 4.48384e-05 0 0.000123713 0 0)
(0.0316017 0.000473887 0 0.000132025 0 0)
(0.0299193 -0.000341929 0 0.000183656 0 0)
(0.0312379 0.000907439 0 0.000344254 0 0)
(0.0050563 -0.00158193 0 0.000641026 0 0)
(0.00087131 0.000611062 0 0.000857927 0 0)
(0.00475086 0.00121276 0 0.000364432 0 0)
(0.00945098 0.00106513 0 0.000151994 0 0)
(0.0148186 0.00104187 0 0.000105653 0 0)
(0.0217031 0.000940914 0 8.47585e-05 0 0)
(0.0282366 0.000789169 0 7.73751e-05 0 0)
(0.0352591 0.000677208 0 7.23934e-05 0 0)
(0.039495 0.000542901 0 6.7359e-05 0 0)
(0.0456782 0.000485247 0 6.42479e-05 0 0)
(0.0476091 0.000394597 0 6.15922e-05 0 0)
(0.0534854 0.000392717 0 5.92101e-05 0 0)
(0.0535926 0.000308502 0 5.89214e-05 0 0)
(0.0595567 0.000329539 0 5.39657e-05 0 0)
(0.0581395 0.000158038 0 4.97047e-05 0 0)
(0.0636744 0.000197327 0 4.47869e-05 0 0)
(0.0608497 -0.000162439 0 4.26899e-05 0 0)
(0.0637132 7.25437e-05 0 4.2587e-05 0 0)
(0.0614722 -0.000637125 0 6.29861e-05 0 0)
(0.0572652 0.000372345 0 0.000186561 0 0)
(0.000937091 -5.52932e-05 0 0.000106545 0 0)
(0.0179296 0.000697422 0 3.93937e-05 0 0)
(0.0349839 6.4006e-05 0 1.00513e-05 0 0)
(0.0435688 -0.000106565 0 4.65374e-06 0 0)
(0.0499394 -7.83651e-05 0 3.99682e-06 0 0)
(0.0548378 -6.00493e-05 0 4.38255e-06 0 0)
(0.0579656 -3.97973e-05 0 5.3013e-06 0 0)
(0.06065 -1.74161e-05 0 5.6877e-06 0 0)
(0.0621258 -9.89037e-06 0 6.28629e-06 0 0)
(0.0640506 5.04087e-07 0 6.34229e-06 0 0)
(0.0646742 -3.80159e-06 0 6.45467e-06 0 0)
(0.0662799 5.60897e-06 0 6.11728e-06 0 0)
(0.0663714 -6.54695e-06 0 5.94794e-06 0 0)
(0.0678574 2.28516e-06 0 5.26225e-06 0 0)
(0.0673658 -2.78485e-05 0 4.83479e-06 0 0)
(0.068415 -2.44202e-05 0 4.02762e-06 0 0)
(0.0668938 -8.15943e-05 0 3.67204e-06 0 0)
(0.0664792 -6.67631e-05 0 3.2367e-06 0 0)
(0.064571 -0.000240016 0 4.10639e-06 0 0)
(0.0584621 0.000324909 0 2.33517e-05 0 0)
(0.278074 -0.133992 0 0.0834839 0 0)
(0.302443 -0.158775 0 0.11726 0 0)
(0.308457 -0.151518 0 0.1399 0 0)
(0.325196 -0.133712 0 0.156543 0 0)
(0.334129 -0.113845 0 0.166437 0 0)
(0.391565 -0.100359 0 0.172942 0 0)
(0.42347 -0.0958977 0 0.178978 0 0)
(0.513395 -0.105656 0 0.18807 0 0)
(0.559794 -0.119289 0 0.199046 0 0)
(0.652088 -0.138975 0 0.210636 0 0)
(0.687362 -0.152289 0 0.223055 0 0)
(0.771213 -0.169965 0 0.23866 0 0)
(0.799307 -0.177762 0 0.254993 0 0)
(0.884297 -0.194417 0 0.270047 0 0)
(0.917748 -0.203946 0 0.280339 0 0)
(1.00993 -0.22841 0 0.289157 0 0)
(1.04606 -0.248722 0 0.300476 0 0)
(1.14575 -0.285591 0 0.318114 0 0)
(1.18223 -0.311383 0 0.342923 0 0)
(1.3031 -0.350514 0 0.374857 0 0)
(1.3563 -0.373033 0 0.404279 0 0)
(1.50537 -0.414423 0 0.435982 0 0)
(1.5656 -0.439184 0 0.466798 0 0)
(1.73851 -0.486887 0 0.499034 0 0)
(1.80711 -0.512284 0 0.52947 0 0)
(1.99752 -0.569879 0 0.564538 0 0)
(2.07764 -0.596627 0 0.598977 0 0)
(2.27595 -0.672427 0 0.639054 0 0)
(2.37139 -0.706361 0 0.680873 0 0)
(2.5678 -0.798904 0 0.732736 0 0)
(2.68031 -0.836864 0 0.788346 0 0)
(2.88541 -0.936053 0 0.849851 0 0)
(3.01508 -0.974344 0 0.909752 0 0)
(3.25234 -1.08282 0 0.974526 0 0)
(3.38894 -1.12684 0 1.03508 0 0)
(3.6576 -1.24932 0 1.10091 0 0)
(3.76714 -1.29147 0 1.15802 0 0)
(4.05179 -1.42345 0 1.22158 0 0)
(4.1158 -1.45518 0 1.27603 0 0)
(4.40676 -1.59161 0 1.34131 0 0)
(4.4185 -1.59964 0 1.39886 0 0)
(4.70578 -1.73372 0 1.46382 0 0)
(4.67115 -1.71405 0 1.5182 0 0)
(4.9708 -1.84524 0 1.58366 0 0)
(4.91109 -1.81366 0 1.63806 0 0)
(5.24895 -1.95132 0 1.70423 0 0)
(5.18193 -1.91698 0 1.75512 0 0)
(5.57397 -2.06536 0 1.82852 0 0)
(5.50307 -2.04071 0 1.88289 0 0)
(5.95942 -2.20031 0 1.96679 0 0)
(5.86374 -2.18535 0 2.02948 0 0)
(6.38349 -2.35698 0 2.12772 0 0)
(6.22037 -2.33297 0 2.20122 0 0)
(6.78627 -2.51116 0 2.30743 0 0)
(6.51521 -2.4505 0 2.37771 0 0)
(7.11239 -2.63416 0 2.48235 0 0)
(6.72798 -2.52547 0 2.53439 0 0)
(7.3583 -2.71535 0 2.62363 0 0)
(6.86822 -2.57473 0 2.6621 0 0)
(7.56578 -2.78383 0 2.74495 0 0)
(6.96475 -2.6366 0 2.78434 0 0)
(7.75751 -2.86741 0 2.87225 0 0)
(7.02128 -2.7094 0 2.91791 0 0)
(7.89315 -2.94402 0 3.01196 0 0)
(7.01647 -2.74867 0 3.04958 0 0)
(7.94268 -2.96187 0 3.13321 0 0)
(6.96711 -2.72233 0 3.13181 0 0)
(7.96281 -2.89293 0 3.17425 0 0)
(6.92261 -2.64358 0 3.14913 0 0)
(8.05261 -2.82542 0 3.19937 0 0)
(6.94343 -2.58296 0 3.19718 0 0)
(8.23656 -2.80172 0 3.2562 0 0)
(7.03293 -2.54765 0 3.25774 0 0)
(8.51135 -2.83848 0 3.33144 0 0)
(7.17664 -2.56544 0 3.36712 0 0)
(8.81011 -2.93809 0 3.49045 0 0)
(7.35762 -2.62921 0 3.56824 0 0)
(9.05292 -3.05136 0 3.74754 0 0)
(7.50377 -2.69755 0 3.84192 0 0)
(9.2159 -3.11823 0 4.0486 0 0)
(7.54601 -2.73072 0 4.13837 0 0)
(9.30141 -3.13667 0 4.32938 0 0)
(7.49309 -2.7205 0 4.38563 0 0)
(9.32033 -3.12948 0 4.55346 0 0)
(7.39805 -2.67519 0 4.58337 0 0)
(9.22214 -3.06618 0 4.74449 0 0)
(7.315 -2.57962 0 4.7685 0 0)
(9.08241 -2.9526 0 4.96094 0 0)
(7.2577 -2.47539 0 4.99819 0 0)
(9.00249 -2.82005 0 5.18675 0 0)
(7.24047 -2.38253 0 5.23208 0 0)
(8.99547 -2.75596 0 5.44601 0 0)
(7.30055 -2.34785 0 5.52495 0 0)
(9.06439 -2.73825 0 5.76135 0 0)
(7.40732 -2.31577 0 5.84155 0 0)
(9.13387 -2.71038 0 6.09379 0 0)
(7.52339 -2.26936 0 6.18236 0 0)
(9.18242 -2.66226 0 6.47326 0 0)
(7.60225 -2.20445 0 6.56882 0 0)
(9.11714 -2.57578 0 6.88996 0 0)
(7.57806 -2.10741 0 7.02739 0 0)
(9.01514 -2.48915 0 7.38464 0 0)
(7.44753 -1.99434 0 7.5209 0 0)
(8.90533 -2.38229 0 7.86444 0 0)
(7.26772 -1.87645 0 7.93684 0 0)
(8.7628 -2.3012 0 8.27122 0 0)
(7.06636 -1.74856 0 8.3114 0 0)
(8.58578 -2.17088 0 8.5742 0 0)
(6.92162 -1.58133 0 8.55502 0 0)
(8.42477 -2.01636 0 8.82233 0 0)
(6.87092 -1.4461 0 8.79244 0 0)
(8.33232 -1.89695 0 9.04284 0 0)
(6.92618 -1.34608 0 8.99152 0 0)
(8.27508 -1.79295 0 9.25109 0 0)
(6.99193 -1.22646 0 9.20107 0 0)
(8.20577 -1.66553 0 9.46374 0 0)
(7.07515 -1.13847 0 9.4603 0 0)
(8.13011 -1.56372 0 9.76104 0 0)
(7.18724 -1.1029 0 9.81475 0 0)
(8.12309 -1.4997 0 10.1417 0 0)
(7.31837 -1.11111 0 10.2428 0 0)
(8.10592 -1.48003 0 10.5573 0 0)
(7.36331 -1.12539 0 10.6908 0 0)
(8.03127 -1.47544 0 10.99 0 0)
(7.34977 -1.13582 0 11.0916 0 0)
(7.9597 -1.44807 0 11.3402 0 0)
(7.27623 -1.10846 0 11.4511 0 0)
(7.8685 -1.40518 0 11.6909 0 0)
(7.22658 -1.10289 0 11.7983 0 0)
(7.73213 -1.38686 0 11.9978 0 0)
(7.24245 -1.17234 0 12.1525 0 0)
(7.61381 -1.3997 0 12.3768 0 0)
(7.30216 -1.2595 0 12.5479 0 0)
(7.57019 -1.38849 0 12.7106 0 0)
(7.37091 -1.32122 0 12.8459 0 0)
(7.56975 -1.36544 0 12.9833 0 0)
(7.46093 -1.31019 0 13.0793 0 0)
(7.60115 -1.31805 0 13.2558 0 0)
(7.53759 -1.25305 0 13.4186 0 0)
(7.63121 -1.23494 0 13.5673 0 0)
(7.57638 -1.19691 0 13.7369 0 0)
(7.60947 -1.12228 0 13.8244 0 0)
(7.6128 -1.10787 0 13.9996 0 0)
(7.52135 -0.975822 0 14.1511 0 0)
(7.49553 -0.966445 0 14.4012 0 0)
(7.32078 -0.789295 0 14.522 0 0)
(7.33343 -0.762228 0 14.6392 0 0)
(7.14753 -0.632695 0 14.7041 0 0)
(7.18574 -0.521349 0 14.8578 0 0)
(7.00368 -0.474298 0 14.882 0 0)
(7.03458 -0.320756 0 14.9168 0 0)
(6.86692 -0.303106 0 14.8499 0 0)
(6.87778 -0.112891 0 14.8763 0 0)
(6.74624 -0.135041 0 14.7963 0 0)
(6.7501 0.0652531 0 14.8985 0 0)
(6.61478 -0.0132009 0 14.8219 0 0)
(6.67191 0.16626 0 14.9139 0 0)
(6.57478 0.0674284 0 14.76 0 0)
(6.6151 0.195216 0 14.8833 0 0)
(6.45156 0.0636016 0 14.7461 0 0)
(6.49956 0.133606 0 14.8564 0 0)
(6.3196 0.035152 0 14.7481 0 0)
(6.37611 0.0803513 0 14.795 0 0)
(6.23387 -0.0255538 0 14.6747 0 0)
(6.3424 0.0115181 0 14.6436 0 0)
(6.20838 -0.132692 0 14.5166 0 0)
(6.32006 -0.0913374 0 14.4806 0 0)
(6.14396 -0.346333 0 14.3821 0 0)
(6.26525 -0.211853 0 14.2518 0 0)
(6.12704 -0.539296 0 14.0974 0 0)
(6.16379 -0.417622 0 13.9156 0 0)
(6.17717 -0.778906 0 13.7665 0 0)
(6.01727 -0.593027 0 13.4011 0 0)
(6.28902 -1.03888 0 13.1132 0 0)
(5.98029 -0.662696 0 12.7238 0 0)
(6.31061 -1.11644 0 12.4142 0 0)
(6.02926 -0.690153 0 12.0722 0 0)
(6.37069 -1.11797 0 11.6516 0 0)
(6.04963 -0.736459 0 11.4531 0 0)
(6.43071 -1.05242 0 10.8664 0 0)
(6.0546 -0.802101 0 10.8458 0 0)
(6.3979 -0.958241 0 10.0226 0 0)
(5.93482 -0.944047 0 10.3036 0 0)
(6.22515 -0.786536 0 9.20832 0 0)
(5.76605 -1.0413 0 9.88593 0 0)
(5.94001 -0.530347 0 8.51996 0 0)
(5.56077 -1.09449 0 9.61289 0 0)
(5.56447 -0.238314 0 8.04081 0 0)
(5.25831 -1.0393 0 9.57596 0 0)
(5.1957 0.206064 0 7.88681 0 0)
(4.85896 -0.880481 0 9.84968 0 0)
(4.82472 0.745392 0 7.98924 0 0)
(4.42738 -0.579088 0 10.6255 0 0)
(4.28973 1.3798 0 8.60576 0 0)
(4.05848 -0.0698637 0 12.1609 0 0)
(3.72485 2.32367 0 10.1699 0 0)
(3.58693 0.3135 0 14.5385 0 0)
(2.94355 3.56103 0 13.1237 0 0)
(3.31876 2.28887 0 19.9221 0 0)
(1.07085 0.56916 0 21.7326 0 0)
(0.260696 -0.110798 0 0.0939987 0 0)
(0.232002 -0.118186 0 0.122442 0 0)
(0.247917 -0.105768 0 0.129112 0 0)
(0.217525 -0.0968157 0 0.133059 0 0)
(0.239802 -0.0863468 0 0.133325 0 0)
(0.234592 -0.0861011 0 0.132525 0 0)
(0.273378 -0.0905301 0 0.135131 0 0)
(0.283053 -0.104141 0 0.142792 0 0)
(0.331355 -0.114679 0 0.15187 0 0)
(0.340402 -0.130502 0 0.161598 0 0)
(0.386731 -0.138785 0 0.17194 0 0)
(0.391527 -0.154737 0 0.185236 0 0)
(0.439831 -0.161656 0 0.198662 0 0)
(0.452335 -0.179175 0 0.212615 0 0)
(0.510988 -0.18729 0 0.224752 0 0)
(0.541459 -0.21228 0 0.238168 0 0)
(0.614341 -0.229171 0 0.252959 0 0)
(0.665095 -0.267984 0 0.272291 0 0)
(0.745812 -0.292155 0 0.293541 0 0)
(0.807491 -0.33711 0 0.319691 0 0)
(0.886689 -0.35993 0 0.345817 0 0)
(0.960129 -0.406242 0 0.374785 0 0)
(1.03821 -0.426223 0 0.402552 0 0)
(1.12977 -0.477599 0 0.433279 0 0)
(1.20869 -0.495325 0 0.462718 0 0)
(1.32503 -0.555883 0 0.498207 0 0)
(1.41285 -0.574387 0 0.533133 0 0)
(1.55872 -0.64905 0 0.575543 0 0)
(1.66124 -0.674621 0 0.616959 0 0)
(1.83248 -0.766162 0 0.668241 0 0)
(1.94225 -0.799226 0 0.717344 0 0)
(2.13233 -0.903642 0 0.77567 0 0)
(2.2315 -0.936881 0 0.828701 0 0)
(2.43817 -1.05044 0 0.890214 0 0)
(2.5077 -1.07745 0 0.943795 0 0)
(2.73232 -1.1996 0 1.00563 0 0)
(2.74926 -1.21065 0 1.05857 0 0)
(2.99101 -1.33933 0 1.11865 0 0)
(2.94494 -1.32895 0 1.17097 0 0)
(3.21103 -1.46598 0 1.23108 0 0)
(3.11084 -1.43131 0 1.28317 0 0)
(3.4041 -1.57362 0 1.34738 0 0)
(3.26995 -1.52285 0 1.39828 0 0)
(3.60259 -1.6701 0 1.46751 0 0)
(3.45527 -1.6134 0 1.51771 0 0)
(3.83418 -1.77087 0 1.59671 0 0)
(3.68386 -1.71748 0 1.64934 0 0)
(4.11159 -1.88667 0 1.73488 0 0)
(3.94418 -1.83368 0 1.79003 0 0)
(4.422 -2.01461 0 1.88043 0 0)
(4.20341 -1.94739 0 1.93833 0 0)
(4.73547 -2.14247 0 2.03277 0 0)
(4.43355 -2.04076 0 2.0905 0 0)
(5.01742 -2.24937 0 2.18501 0 0)
(4.61699 -2.0982 0 2.2375 0 0)
(5.25204 -2.32543 0 2.32742 0 0)
(4.76597 -2.12937 0 2.37074 0 0)
(5.45208 -2.38042 0 2.45793 0 0)
(4.90794 -2.16407 0 2.49376 0 0)
(5.644 -2.43681 0 2.5919 0 0)
(5.04663 -2.22699 0 2.62844 0 0)
(5.8304 -2.50076 0 2.73424 0 0)
(5.16038 -2.29893 0 2.76561 0 0)
(5.9849 -2.53914 0 2.86104 0 0)
(5.21151 -2.32144 0 2.87472 0 0)
(6.08207 -2.51687 0 2.94015 0 0)
(5.20003 -2.26835 0 2.92711 0 0)
(6.16409 -2.45608 0 2.97596 0 0)
(5.19833 -2.19461 0 2.96582 0 0)
(6.29332 -2.42391 0 3.03608 0 0)
(5.25829 -2.14878 0 3.03437 0 0)
(6.49996 -2.43082 0 3.12259 0 0)
(5.39531 -2.13602 0 3.12701 0 0)
(6.76714 -2.49334 0 3.23731 0 0)
(5.5911 -2.17057 0 3.26918 0 0)
(7.03713 -2.6002 0 3.42509 0 0)
(5.7987 -2.23791 0 3.49498 0 0)
(7.24273 -2.69327 0 3.69723 0 0)
(5.93934 -2.27385 0 3.77485 0 0)
(7.34949 -2.71728 0 3.98741 0 0)
(5.96812 -2.26522 0 4.05513 0 0)
(7.39328 -2.70102 0 4.24942 0 0)
(5.95358 -2.22826 0 4.29261 0 0)
(7.38436 -2.65595 0 4.4621 0 0)
(5.94605 -2.18729 0 4.47448 0 0)
(7.34798 -2.57189 0 4.64774 0 0)
(5.95086 -2.13264 0 4.67509 0 0)
(7.32544 -2.4723 0 4.87157 0 0)
(5.99787 -2.05267 0 4.90454 0 0)
(7.37269 -2.37293 0 5.11593 0 0)
(6.08391 -2.00251 0 5.18486 0 0)
(7.48776 -2.35817 0 5.42436 0 0)
(6.21927 -1.98105 0 5.50744 0 0)
(7.65784 -2.35695 0 5.75098 0 0)
(6.40461 -1.95272 0 5.81441 0 0)
(7.83686 -2.36198 0 6.07268 0 0)
(6.60684 -1.91366 0 6.15277 0 0)
(7.99176 -2.32478 0 6.444 0 0)
(6.78012 -1.85124 0 6.54078 0 0)
(8.07603 -2.26248 0 6.88757 0 0)
(6.86115 -1.75191 0 7.00954 0 0)
(8.09293 -2.16689 0 7.37335 0 0)
(6.84229 -1.60883 0 7.4696 0 0)
(8.06209 -2.03213 0 7.82677 0 0)
(6.70312 -1.47141 0 7.87381 0 0)
(7.91785 -1.90566 0 8.22772 0 0)
(6.51847 -1.30459 0 8.2395 0 0)
(7.76211 -1.73778 0 8.54656 0 0)
(6.41409 -1.14374 0 8.51161 0 0)
(7.72801 -1.59976 0 8.79583 0 0)
(6.46402 -1.0268 0 8.74629 0 0)
(7.81792 -1.47651 0 9.02052 0 0)
(6.6272 -0.917071 0 8.96218 0 0)
(7.91706 -1.33946 0 9.24749 0 0)
(6.8333 -0.839831 0 9.20831 0 0)
(7.99509 -1.26457 0 9.48131 0 0)
(7.08654 -0.837082 0 9.49677 0 0)
(8.10699 -1.24288 0 9.79319 0 0)
(7.33789 -0.855739 0 9.88448 0 0)
(8.22302 -1.23602 0 10.2164 0 0)
(7.46958 -0.899852 0 10.331 0 0)
(8.23537 -1.25698 0 10.6658 0 0)
(7.45388 -0.938237 0 10.7778 0 0)
(8.19154 -1.28192 0 11.0856 0 0)
(7.39532 -0.937092 0 11.1993 0 0)
(8.1446 -1.28179 0 11.4485 0 0)
(7.36942 -0.945363 0 11.5576 0 0)
(8.09514 -1.28954 0 11.7841 0 0)
(7.43045 -1.03267 0 11.9096 0 0)
(8.0532 -1.34516 0 12.1029 0 0)
(7.49439 -1.20143 0 12.2661 0 0)
(8.00234 -1.40388 0 12.4586 0 0)
(7.55735 -1.32324 0 12.6515 0 0)
(7.98142 -1.41379 0 12.8254 0 0)
(7.63667 -1.38497 0 12.9982 0 0)
(8.07963 -1.40373 0 13.0984 0 0)
(7.80378 -1.40321 0 13.204 0 0)
(8.18053 -1.36312 0 13.3503 0 0)
(7.92539 -1.38393 0 13.5499 0 0)
(8.20399 -1.27835 0 13.6862 0 0)
(7.93932 -1.29213 0 13.9045 0 0)
(8.14763 -1.14875 0 13.9698 0 0)
(7.86983 -1.17 0 14.1513 0 0)
(7.97971 -0.948325 0 14.297 0 0)
(7.64776 -0.956743 0 14.5811 0 0)
(7.74039 -0.708612 0 14.6325 0 0)
(7.38393 -0.737333 0 14.8559 0 0)
(7.51355 -0.512854 0 14.8674 0 0)
(7.0945 -0.526909 0 15.0351 0 0)
(7.24714 -0.313599 0 15.0455 0 0)
(6.92947 -0.239253 0 15.1089 0 0)
(7.04135 -0.141594 0 14.9771 0 0)
(6.85022 -0.0290425 0 15.0412 0 0)
(6.94724 -0.00747249 0 15.0282 0 0)
(6.79098 0.1088 0 15.1015 0 0)
(6.88585 0.0615617 0 15.0158 0 0)
(6.79033 0.226651 0 15.1158 0 0)
(6.83083 0.14131 0 15.0669 0 0)
(6.7482 0.246473 0 15.1107 0 0)
(6.65312 0.123324 0 15.1049 0 0)
(6.67721 0.252782 0 15.1068 0 0)
(6.51427 0.0425078 0 15.0108 0 0)
(6.57459 0.190111 0 15.0583 0 0)
(6.42781 -0.0232516 0 14.9179 0 0)
(6.48082 0.103381 0 14.929 0 0)
(6.32923 -0.141315 0 14.8328 0 0)
(6.40341 0.0246345 0 14.8887 0 0)
(6.24831 -0.292486 0 14.7853 0 0)
(6.35271 -0.0930583 0 14.5993 0 0)
(6.21637 -0.467613 0 14.5791 0 0)
(6.19922 -0.21072 0 14.3589 0 0)
(6.16262 -0.72875 0 14.2195 0 0)
(6.11208 -0.323272 0 13.8381 0 0)
(6.04066 -0.952824 0 13.5327 0 0)
(6.15953 -0.451672 0 13.0539 0 0)
(5.97923 -1.12014 0 12.6374 0 0)
(6.25738 -0.572033 0 12.3873 0 0)
(6.02154 -1.2265 0 11.8549 0 0)
(6.3081 -0.781863 0 11.7937 0 0)
(6.10534 -1.2034 0 11.0268 0 0)
(6.29067 -1.01783 0 11.3136 0 0)
(6.06671 -1.08773 0 10.2137 0 0)
(6.17479 -1.30003 0 10.8747 0 0)
(5.86109 -0.919405 0 9.34325 0 0)
(5.99176 -1.5689 0 10.4586 0 0)
(5.65044 -0.633303 0 8.56546 0 0)
(5.71081 -1.7167 0 10.2298 0 0)