/*--------------------------------*- C++ -*----------------------------------*\
| =========                 |                                                 |
| \\      /  F ield         | OpenFOAM: The Open Source CFD Toolbox           |
|  \\    /   O peration     | Version:  2.4.0                                 |
|   \\  /    A nd           | Web:      www.OpenFOAM.org                      |
|    \\/     M anipulation  |                                                 |
\*---------------------------------------------------------------------------*/
FoamFile
{
    version     2.0;
    format      ascii;
    class       volVectorField;
    location    "0.12";
    object      U;
}
// * * * * * * * * * * * * * * * * * * * * * * * * * * * * * * * * * * * * * //

dimensions      [0 1 -1 0 0 0 0];

internalField   nonuniform List<vector> 
4400
(
(9.9265 0.0102655 0)
(9.71897 0.0121718 0)
(9.95497 0.0147203 0)
(9.8325 0.0139214 0)
(9.55653 0.00779319 0)
(9.5212 0.00267093 0)
(9.59261 0.00102552 0)
(9.60725 0.000587888 0)
(9.58557 0.000275863 0)
(9.58414 1.18684e-05 0)
(9.57108 -0.000144708 0)
(9.60974 0.00175331 0)
(9.52641 -0.00929862 0)
(9.72197 0.035324 0)
(9.31776 -0.106418 0)
(10.1764 0.246621 0)
(8.69065 -0.434821 0)
(11.0009 0.498286 0)
(8.66697 -0.65876 0)
(11.6599 0.260701 0)
(9.98036 0.016207 0)
(9.84858 0.0186965 0)
(10.185 0.0214028 0)
(10.179 0.0200381 0)
(9.97466 0.0109449 0)
(9.96292 0.00369613 0)
(10.0428 0.00152579 0)
(10.0633 0.00102162 0)
(10.0431 0.000255119 0)
(10.0455 0.000461378 0)
(10.0203 -0.000813914 0)
(10.097 0.00177215 0)
(9.90461 -0.00237757 0)
(10.3724 -0.00100741 0)
(9.37923 0.0166484 0)
(11.2684 -0.0597638 0)
(8.36883 0.119217 0)
(12.1808 -0.191658 0)
(9.11225 -0.00177283 0)
(11.2214 -0.625255 0)
(9.98036 0.0108362 0)
(9.84654 0.0132813 0)
(10.1854 0.0143309 0)
(10.1824 0.0134271 0)
(9.97927 0.00736296 0)
(9.9681 0.0026509 0)
(10.0483 0.00120409 0)
(10.0687 0.000949596 0)
(10.0493 -8.87966e-05 0)
(10.0486 0.00177791 0)
(10.0347 -0.00512513 0)
(10.073 0.0157582 0)
(9.99906 -0.042816 0)
(10.1462 0.10291 0)
(9.9251 -0.215771 0)
(10.3048 0.358309 0)
(9.92045 -0.511727 0)
(10.635 0.305292 0)
(10.1746 -0.476014 0)
(11.4545 -0.865873 0)
(9.98032 0.0089133 0)
(9.84458 0.0125457 0)
(10.1834 0.0138424 0)
(10.1802 0.0133977 0)
(9.97729 0.0080858 0)
(9.96697 0.00332144 0)
(10.0479 0.00145031 0)
(10.0686 0.00100502 0)
(10.0491 7.77477e-05 0)
(10.0493 0.00125312 0)
(10.0321 -0.00259846 0)
(10.0823 0.00678002 0)
(9.96988 -0.0149573 0)
(10.225 0.0279703 0)
(9.73401 -0.0566204 0)
(10.6465 0.0740568 0)
(9.36687 -0.182219 0)
(11.0213 0.104205 0)
(9.87815 -0.714233 0)
(11.0922 -0.117906 0)
(9.98031 0.00716342 0)
(9.84292 0.0106647 0)
(10.1816 0.0113136 0)
(10.1784 0.0107566 0)
(9.97561 0.00653019 0)
(9.96602 0.00273022 0)
(10.0476 0.0011925 0)
(10.0684 0.000971548 0)
(10.0494 -0.00023596 0)
(10.048 0.00225588 0)
(10.0362 -0.00588689 0)
(10.0694 0.0171791 0)
(10.0069 -0.044153 0)
(10.1278 0.0973707 0)
(9.96304 -0.199322 0)
(10.1955 0.272995 0)
(10.1086 -0.385115 0)
(10.2376 0.00415428 0)
(10.2135 -0.300852 0)
(10.7652 -1.07208 0)
(9.98031 0.00553934 0)
(9.84162 0.00865286 0)
(10.1801 0.00911092 0)
(10.1769 0.00877342 0)
(9.97427 0.00556436 0)
(9.96524 0.00248508 0)
(10.0473 0.001106 0)
(10.0682 0.000890394 0)
(10.0494 -0.000117566 0)
(10.0478 0.00180518 0)
(10.0364 -0.00390727 0)
(10.0697 0.0104341 0)
(10.0036 -0.0241245 0)
(10.1396 0.0455196 0)
(9.91532 -0.0988817 0)
(10.3003 0.12169 0)
(9.81442 -0.315039 0)
(10.4979 0.185661 0)
(10.0046 -1.0045 0)
(10.0417 -0.408842 0)
(9.98032 0.00410629 0)
(9.84063 0.00672376 0)
(10.179 0.00706107 0)
(10.1757 0.00681937 0)
(9.97322 0.00441152 0)
(9.96461 0.00202931 0)
(10.047 0.000892361 0)
(10.0681 0.000804851 0)
(10.0495 -0.000270819 0)
(10.0472 0.00216867 0)
(10.0383 -0.00509621 0)
(10.0644 0.0142274 0)
(10.0164 -0.0350111 0)
(10.1083 0.0703058 0)
(9.97853 -0.149163 0)
(10.1641 0.169192 0)
(10.0466 -0.288932 0)
(10.1201 -0.124125 0)
(10.2025 -0.277819 0)
(10.3544 -0.935506 0)
(9.98032 0.0028321 0)
(9.83991 0.00480208 0)
(10.1781 0.00502694 0)
(10.1749 0.00485651 0)
(9.97245 0.00319092 0)
(9.96414 0.00151182 0)
(10.0469 0.000664226 0)
(10.0679 0.000664273 0)
(10.0497 -0.000249413 0)
(10.0468 0.00192929 0)
(10.0392 -0.00414232 0)
(10.0621 0.011106 0)
(10.0205 -0.0261506 0)
(10.0987 0.0474562 0)
(9.98656 -0.10773 0)
(10.1458 0.11072 0)
(10.0024 -0.298292 0)
(10.1607 0.06342 0)
(10.0017 -0.79311 0)
(9.91047 -0.57644 0)
(9.98033 0.00166019 0)
(9.83945 0.0028793 0)
(10.1776 0.00300937 0)
(10.1743 0.00291091 0)
(9.97194 0.00193341 0)
(9.96382 0.000946173 0)
(10.0468 0.000406556 0)
(10.0678 0.000521156 0)
(10.0498 -0.000304218 0)
(10.0463 0.00190686 0)
(10.0403 -0.00410144 0)
(10.0592 0.0110533 0)
(10.0259 -0.0263566 0)
(10.0858 0.0470525 0)
(10.0022 -0.107212 0)
(10.1085 0.0935305 0)
(10.0258 -0.234843 0)
(10.0547 -0.134615 0)
(10.0383 -0.405758 0)
(9.89464 -0.786689 0)
(9.98033 0.000547132 0)
(9.83923 0.00096018 0)
(10.1773 0.00100385 0)
(10.1741 0.000974963 0)
(9.97169 0.000651998 0)
(9.96366 0.000349224 0)
(10.0467 0.000135359 0)
(10.0678 0.000355507 0)
(10.0499 -0.000320287 0)
(10.046 0.00172525 0)
(10.0412 -0.0035614 0)
(10.057 0.00945513 0)
(10.0297 -0.022349 0)
(10.0763 0.0373927 0)
(10.0114 -0.090853 0)
(10.0824 0.0710217 0)
(10.0245 -0.232476 0)
(10.0162 -0.0652592 0)
(9.9586 -0.537828 0)
(9.76649 -0.669285 0)
(9.98033 -0.000546569 0)
(9.83923 -0.000957057 0)
(10.1773 -0.000998212 0)
(10.1741 -0.00095837 0)
(9.9717 -0.000637365 0)
(9.96366 -0.000258236 0)
(10.0467 -0.00014187 0)
(10.0677 0.000185166 0)
(10.0501 -0.000346949 0)
(10.0456 0.00156654 0)
(10.042 -0.00316822 0)
(10.0551 0.00834801 0)
(10.0328 -0.0197547 0)
(10.0683 0.0311692 0)
(10.0172 -0.0789145 0)
(10.0626 0.0479655 0)
(10.0181 -0.191299 0)
(9.97368 -0.126976 0)
(9.91965 -0.423956 0)
(9.68962 -0.657772 0)
(9.98033 -0.00165968 0)
(9.83945 -0.00287608 0)
(10.1776 -0.00300401 0)
(10.1744 -0.00289481 0)
(9.97195 -0.00191903 0)
(9.96382 -0.00085702 0)
(10.0468 -0.000414412 0)
(10.0677 1.14466e-05 0)
(10.0502 -0.000367225 0)
(10.0454 0.00137752 0)
(10.0426 -0.00271952 0)
(10.0534 0.00710008 0)
(10.0352 -0.0168684 0)
(10.0617 0.0249296 0)
(10.0209 -0.0675823 0)
(10.046 0.0328764 0)
(10.0092 -0.171796 0)
(9.94181 -0.122697 0)
(9.87113 -0.397505 0)
(9.62223 -0.610289 0)
(9.98032 -0.00283166 0)
(9.83991 -0.00479894 0)
(10.1781 -0.00502184 0)
(10.1749 -0.00484125 0)
(9.97247 -0.0031771 0)
(9.96413 -0.00142693 0)
(10.047 -0.000671802 0)
(10.0678 -0.000158369 0)
(10.0504 -0.000386605 0)
(10.0452 0.00118844 0)
(10.0432 -0.00230406 0)
(10.052 0.00596002 0)
(10.037 -0.0142538 0)
(10.0563 0.0195485 0)
(10.0229 -0.0568873 0)
(10.0328 0.0190372 0)
(9.99854 -0.146346 0)
(9.91475 -0.128469 0)
(9.82914 -0.348047 0)
(9.56643 -0.551241 0)
(9.98032 -0.00410573 0)
(9.84063 -0.00672131 0)
(10.179 -0.00705636 0)
(10.1757 -0.00680466 0)
(9.97324 -0.00439882 0)
(9.9646 -0.00195063 0)
(10.0472 -0.00090371 0)
(10.0678 -0.000317627 0)
(10.0505 -0.000401644 0)
(10.045 0.000999798 0)
(10.0436 -0.00191026 0)
(10.0509 0.0048958 0)
(10.0383 -0.0118293 0)
(10.0518 0.0149939 0)
(10.0237 -0.0473583 0)
(10.022 0.00938034 0)
(9.98757 -0.124852 0)
(9.89235 -0.123656 0)
(9.79102 -0.30286 0)
(9.52096 -0.488993 0)
(9.98031 -0.0055388 0)
(9.84162 -0.00865032 0)
(10.1801 -0.00910739 0)
(10.1769 -0.00876048 0)
(9.9743 -0.00555229 0)
(9.96523 -0.0024153 0)
(10.0475 -0.00111381 0)
(10.0679 -0.000470096 0)
(10.0506 -0.000414588 0)
(10.0449 0.000815602 0)
(10.044 -0.00154783 0)
(10.0499 0.0039287 0)
(10.0393 -0.00961648 0)
(10.0482 0.0112042 0)
(10.0237 -0.038654 0)
(10.0133 0.00256564 0)
(9.97704 -0.104086 0)
(9.87377 -0.113954 0)
(9.75814 -0.256851 0)
(9.4836 -0.420108 0)
(9.98031 -0.0071634 0)
(9.84293 -0.010662 0)
(10.1816 -0.0113096 0)
(10.1784 -0.0107465 0)
(9.97564 -0.00652144 0)
(9.96601 -0.00266766 0)
(10.0478 -0.00120565 0)
(10.0681 -0.000571842 0)
(10.0508 -0.000410237 0)
(10.0448 0.000643705 0)
(10.0443 -0.00121527 0)
(10.0492 0.00305609 0)
(10.04 -0.00759156 0)
(10.0454 0.00811259 0)
(10.0233 -0.0307133 0)
(10.0063 -0.00149954 0)
(9.96757 -0.0843624 0)
(9.85864 -0.0994563 0)
(9.73055 -0.21084 0)
(9.45358 -0.348263 0)
(9.98032 -0.00891302 0)
(9.84458 -0.0125441 0)
(10.1834 -0.0138394 0)
(10.1803 -0.0133888 0)
(9.97733 -0.00807793 0)
(9.96695 -0.0032739 0)
(10.0481 -0.00145335 0)
(10.0682 -0.000720411 0)
(10.0509 -0.000419279 0)
(10.0447 0.000474684 0)
(10.0445 -0.000912319 0)
(10.0486 0.0022683 0)
(10.0405 -0.00573391 0)
(10.0431 0.00561931 0)
(10.0227 -0.0233485 0)
(10.0008 -0.00342575 0)
(9.95954 -0.0652702 0)
(9.84669 -0.0813012 0)
(9.70843 -0.164776 0)
(9.43011 -0.273709 0)
(9.98036 -0.0108359 0)
(9.84654 -0.01328 0)
(10.1854 -0.0143291 0)
(10.1824 -0.0134204 0)
(9.97932 -0.00735663 0)
(9.96808 -0.00261513 0)
(10.0486 -0.00121587 0)
(10.0683 -0.000695741 0)
(10.051 -0.000358922 0)
(10.0446 0.000335635 0)
(10.0446 -0.00062436 0)
(10.0481 0.00154752 0)
(10.0407 -0.00399454 0)
(10.0415 0.00358976 0)
(10.0221 -0.0164081 0)
(9.99673 -0.00379603 0)
(9.95314 -0.0466224 0)
(9.83765 -0.0603366 0)
(9.69153 -0.118521 0)
(9.41201 -0.19737 0)
(9.98036 -0.016207 0)
(9.84858 -0.0186956 0)
(10.185 -0.0214011 0)
(10.179 -0.0200345 0)
(9.97471 -0.0109411 0)
(9.96291 -0.00367583 0)
(10.0431 -0.0015228 0)
(10.0628 -0.000905469 0)
(10.0455 -0.000406019 0)
(10.0391 0.000176523 0)
(10.0391 -0.000367319 0)
(10.0424 0.000899767 0)
(10.0351 -0.00237109 0)
(10.0352 0.00196463 0)
(10.015 -0.00975699 0)
(9.98876 -0.00290195 0)
(9.94067 -0.0280217 0)
(9.82317 -0.0372294 0)
(9.66818 -0.0715911 0)
(9.38155 -0.11929 0)
(9.9265 -0.0102653 0)
(9.71897 -0.0121717 0)
(9.95498 -0.0147203 0)
(9.83251 -0.01392 0)
(9.55658 -0.00779101 0)
(9.52119 -0.00266615 0)
(9.59288 -0.00101746 0)
(9.60688 -0.000577517 0)
(9.58721 -0.000241746 0)
(9.5804 4.03854e-05 0)
(9.58066 -0.000116925 0)
(9.58361 0.000280059 0)
(9.57663 -0.000775969 0)
(9.57575 0.000561247 0)
(9.55547 -0.00325371 0)
(9.52781 -0.00123568 0)
(9.47684 -0.00963296 0)
(9.35743 -0.0129754 0)
(9.19664 -0.0248665 0)
(8.90548 -0.0410401 0)
(12.5817 -3.29201 0)
(6.78728 -3.54418 0)
(4.91636 -3.34893 0)
(5.38123 -2.50872 0)
(5.44626 -1.75512 0)
(5.26602 -1.23832 0)
(5.14144 -0.861094 0)
(5.07887 -0.586697 0)
(5.04773 -0.395824 0)
(5.03176 -0.266044 0)
(5.02325 -0.178329 0)
(5.01855 -0.119203 0)
(5.01586 -0.079461 0)
(5.01428 -0.0528218 0)
(5.01333 -0.0350154 0)
(5.01275 -0.0231469 0)
(5.01238 -0.015258 0)
(5.01215 -0.010029 0)
(5.012 -0.00657336 0)
(5.01191 -0.00429663 0)
(5.01184 -0.00279986 0)
(5.0118 -0.00181912 0)
(5.01178 -0.00117927 0)
(5.01176 -0.000761604 0)
(5.01175 -0.000490407 0)
(5.01174 -0.000315348 0)
(5.01174 -0.000201697 0)
(5.01174 -0.000128763 0)
(5.01173 -8.21157e-05 0)
(5.01173 -5.19149e-05 0)
(5.01173 -3.30738e-05 0)
(5.01173 -2.06517e-05 0)
(5.01173 -1.30824e-05 0)
(5.01173 -8.26415e-06 0)
(5.01173 -5.28611e-06 0)
(5.01173 -3.20527e-06 0)
(5.01173 -2.00004e-06 0)
(5.01173 -1.23141e-06 0)
(5.01173 -7.39018e-07 0)
(5.01173 -4.60447e-07 0)
(5.01173 -3.01881e-07 0)
(5.01173 -1.54435e-07 0)
(5.01173 -1.30318e-07 0)
(5.01173 -5.80177e-08 0)
(5.01173 -2.23884e-08 0)
(5.01173 -8.3706e-08 0)
(5.01173 5.0222e-08 0)
(5.01173 -2.48479e-08 0)
(5.01173 -4.49735e-08 0)
(5.01173 4.51909e-08 0)
(5.01173 -5.76545e-09 0)
(5.01173 -6.06362e-08 0)
(5.01173 8.87926e-08 0)
(5.01173 -2.5925e-08 0)
(5.01173 -4.02807e-08 0)
(5.01173 1.11325e-07 0)
(5.01173 -9.97554e-08 0)
(5.01173 8.51997e-08 0)
(5.01173 -4.23951e-08 0)
(5.01173 3.30745e-08 0)
(5.01173 -5.94082e-09 0)
(5.01173 -4.40267e-08 0)
(5.01173 1.00159e-07 0)
(5.01173 -1.0472e-07 0)
(5.01173 3.52854e-08 0)
(5.01173 8.43309e-08 0)
(5.01173 -1.40271e-07 0)
(5.01173 8.0301e-08 0)
(5.01173 4.9184e-08 0)
(5.01173 -1.16007e-07 0)
(5.01173 1.09969e-07 0)
(5.01173 3.31496e-09 0)
(5.01173 -1.22174e-07 0)
(5.01173 1.38531e-07 0)
(5.01173 4.33725e-08 0)
(5.01173 -2.114e-07 0)
(5.01173 1.01534e-07 0)
(5.01173 1.48665e-07 0)
(5.01173 -1.86548e-07 0)
(5.01173 -1.18201e-07 0)
(5.01173 1.78273e-07 0)
(5.01173 2.80665e-08 0)
(5.01173 -1.5628e-07 0)
(5.01173 -5.48766e-08 0)
(5.01173 1.0848e-07 0)
(5.01173 6.13033e-08 0)
(5.01173 -5.3736e-08 0)
(5.01173 -1.03618e-07 0)
(5.01173 -7.94707e-09 0)
(5.01173 1.31141e-07 0)
(5.01173 1.04118e-07 0)
(5.01173 -6.20438e-08 0)
(5.01173 -9.76244e-08 0)
(5.01173 9.87419e-09 0)
(5.01173 4.27054e-08 0)
(5.01174 2.05398e-08 0)
(5.01171 -9.76581e-09 0)
(5.01176 1.98105e-08 0)
(5.01172 -4.59848e-08 0)
(5.01173 -3.30252e-08 0)
(11.7133 -4.24023 0)
(10.8898 -3.52567 0)
(7.72784 -2.97458 0)
(5.98085 -2.42768 0)
(5.54409 -1.7485 0)
(5.34093 -1.21472 0)
(5.20527 -0.840741 0)
(5.12461 -0.575276 0)
(5.07884 -0.389762 0)
(5.05268 -0.262717 0)
(5.03729 -0.176442 0)
(5.02795 -0.118101 0)
(5.02213 -0.078799 0)
(5.01846 -0.0524156 0)
(5.0161 -0.0347618 0)
(5.01458 -0.0229862 0)
(5.01359 -0.0151553 0)
(5.01294 -0.00996318 0)
(5.01252 -0.006531 0)
(5.01225 -0.00426895 0)
(5.01206 -0.00278209 0)
(5.01195 -0.0018079 0)
(5.01187 -0.00117163 0)
(5.01182 -0.000756834 0)
(5.01179 -0.000487511 0)
(5.01177 -0.000313192 0)
(5.01175 -0.000200542 0)
(5.01175 -0.000128054 0)
(5.01174 -8.14468e-05 0)
(5.01174 -5.16965e-05 0)
(5.01173 -3.27603e-05 0)
(5.01173 -2.06093e-05 0)
(5.01173 -1.30564e-05 0)
(5.01173 -8.23997e-06 0)
(5.01173 -5.00889e-06 0)
(5.01173 -3.20026e-06 0)
(5.01173 -2.08391e-06 0)
(5.01173 -1.29478e-06 0)
(5.01173 -7.46226e-07 0)
(5.01173 -4.35449e-07 0)
(5.01173 -2.8016e-07 0)
(5.01173 -1.93807e-07 0)
(5.01173 -1.28979e-07 0)
(5.01173 -8.23848e-08 0)
(5.01173 -3.2789e-08 0)
(5.01173 -1.08335e-08 0)
(5.01173 -9.38793e-09 0)
(5.01173 -2.93086e-08 0)
(5.01173 1.17088e-08 0)
(5.01173 3.06684e-09 0)
(5.01173 -8.51342e-09 0)
(5.01173 -3.77898e-10 0)
(5.01173 1.18162e-08 0)
(5.01173 -1.08391e-08 0)
(5.01173 3.34646e-08 0)
(5.01173 -4.33687e-09 0)
(5.01173 -2.80853e-08 0)
(5.01173 4.31977e-08 0)
(5.01173 -4.87545e-09 0)
(5.01173 1.83678e-08 0)
(5.01173 1.44975e-08 0)
(5.01173 -1.2127e-08 0)
(5.01173 4.7332e-09 0)
(5.01173 2.83109e-09 0)
(5.01173 8.09977e-09 0)
(5.01173 1.09768e-08 0)
(5.01173 -2.42896e-08 0)
(5.01173 -7.89353e-09 0)
(5.01173 -8.10574e-09 0)
(5.01173 -6.64828e-09 0)
(5.01173 3.34209e-08 0)
(5.01173 5.98328e-10 0)
(5.01173 -7.18313e-09 0)
(5.01173 1.56596e-09 0)
(5.01173 3.10056e-09 0)
(5.01173 -3.39416e-08 0)
(5.01173 5.35208e-09 0)
(5.01173 1.30835e-09 0)
(5.01173 -1.68943e-08 0)
(5.01173 -1.7364e-08 0)
(5.01173 -6.56451e-09 0)
(5.01173 -3.38223e-08 0)
(5.01173 -2.08929e-08 0)
(5.01173 1.21544e-08 0)
(5.01173 3.81958e-08 0)
(5.01173 6.92674e-09 0)
(5.01173 -2.5577e-08 0)
(5.01173 -2.54915e-08 0)
(5.01173 -6.47975e-10 0)
(5.01173 1.98742e-08 0)
(5.01173 2.22296e-08 0)
(5.01173 -1.53895e-10 0)
(5.01173 1.45426e-08 0)
(5.01173 1.93788e-08 0)
(5.01173 1.17471e-08 0)
(5.01174 -9.802e-09 0)
(5.01171 -1.68029e-08 0)
(5.01175 -2.93452e-08 0)
(5.01172 -3.68095e-08 0)
(5.01173 -1.21426e-08 0)
(9.21233 -3.06041 0)
(8.27567 -2.9818 0)
(7.79391 -2.37283 0)
(6.55742 -2.01361 0)
(5.76881 -1.59346 0)
(5.43407 -1.15563 0)
(5.26653 -0.811175 0)
(5.16841 -0.559482 0)
(5.10909 -0.381083 0)
(5.07316 -0.257722 0)
(5.05108 -0.173458 0)
(5.0372 -0.116268 0)
(5.02832 -0.0776496 0)
(5.02258 -0.0516847 0)
(5.01884 -0.0342924 0)
(5.01639 -0.0226826 0)
(5.01478 -0.0149585 0)
(5.01373 -0.00983541 0)
(5.01304 -0.0064479 0)
(5.01258 -0.00421471 0)
(5.01228 -0.00274706 0)
(5.01209 -0.00178536 0)
(5.01196 -0.0011567 0)
(5.01188 -0.000747383 0)
(5.01183 -0.000481533 0)
(5.01179 -0.000309114 0)
(5.01177 -0.000198093 0)
(5.01176 -0.000126564 0)
(5.01175 -8.036e-05 0)
(5.01174 -5.09485e-05 0)
(5.01174 -3.23139e-05 0)
(5.01173 -2.06351e-05 0)
(5.01173 -1.25355e-05 0)
(5.01173 -7.78117e-06 0)
(5.01173 -5.0419e-06 0)
(5.01173 -3.08239e-06 0)
(5.01173 -1.80846e-06 0)
(5.01173 -1.30749e-06 0)
(5.01173 -9.52272e-07 0)
(5.01173 -3.64595e-07 0)
(5.01173 -7.2739e-08 0)
(5.01173 -1.74862e-07 0)
(5.01173 -2.10577e-07 0)
(5.01173 -9.14653e-08 0)
(5.01173 2.1302e-08 0)
(5.01173 -3.36337e-08 0)
(5.01173 -1.98195e-07 0)
(5.01173 -5.93731e-08 0)
(5.01173 1.67877e-07 0)
(5.01173 6.52113e-08 0)
(5.01173 -9.68628e-08 0)
(5.01173 -1.00964e-07 0)
(5.01173 -7.59484e-08 0)
(5.01173 1.13885e-07 0)
(5.01173 1.36155e-07 0)
(5.01173 -6.82357e-08 0)
(5.01173 -9.71179e-08 0)
(5.01173 3.0326e-08 0)
(5.01173 1.53445e-07 0)
(5.01173 1.48024e-07 0)
(5.01173 5.96033e-08 0)
(5.01173 -1.32826e-07 0)
(5.01173 -1.54562e-07 0)
(5.01173 2.15637e-08 0)
(5.01173 8.58411e-08 0)
(5.01173 9.09922e-08 0)
(5.01173 2.99712e-08 0)
(5.01173 -1.33553e-07 0)
(5.01173 -1.28181e-07 0)
(5.01173 -2.04695e-08 0)
(5.01173 2.89166e-08 0)
(5.01173 1.17972e-07 0)
(5.01173 9.71972e-08 0)
(5.01173 1.76082e-09 0)
(5.01173 -1.74226e-08 0)
(5.01173 -2.46869e-08 0)
(5.01173 -9.44009e-08 0)
(5.01173 -1.49723e-08 0)
(5.01173 7.74007e-08 0)
(5.01173 3.11719e-08 0)
(5.01173 -7.05206e-08 0)
(5.01173 -9.15475e-08 0)
(5.01173 -6.29313e-08 0)
(5.01173 1.32692e-09 0)
(5.01173 4.20306e-08 0)
(5.01173 6.53539e-08 0)
(5.01173 4.31751e-08 0)
(5.01173 2.97224e-09 0)
(5.01173 -1.97435e-08 0)
(5.01173 2.39706e-09 0)
(5.01173 1.33891e-08 0)
(5.01173 -1.79208e-09 0)
(5.01173 -4.79663e-08 0)
(5.01173 -4.93728e-08 0)
(5.01173 -1.09482e-08 0)
(5.01174 5.87254e-08 0)
(5.01171 7.13437e-08 0)
(5.01176 6.00555e-08 0)
(5.01172 -1.43257e-09 0)
(5.01173 -2.8623e-08 0)
(10.5602 -3.10116 0)
(7.45072 -3.64513 0)
(6.51774 -2.90922 0)
(6.28931 -2.16154 0)
(5.83694 -1.58024 0)
(5.49977 -1.12324 0)
(5.31509 -0.785856 0)
(5.20647 -0.542874 0)
(5.13722 -0.370731 0)
(5.09283 -0.251298 0)
(5.06449 -0.169442 0)
(5.04625 -0.113727 0)
(5.03439 -0.0760235 0)
(5.02662 -0.0506348 0)
(5.02153 -0.0336107 0)
(5.01817 -0.0222387 0)
(5.01596 -0.0146689 0)
(5.0145 -0.00964642 0)
(5.01354 -0.00632457 0)
(5.01291 -0.00413444 0)
(5.0125 -0.00269496 0)
(5.01223 -0.00175142 0)
(5.01205 -0.00113479 0)
(5.01194 -0.000733298 0)
(5.01187 -0.000472338 0)
(5.01182 -0.000303319 0)
(5.01179 -0.000194385 0)
(5.01177 -0.00012407 0)
(5.01175 -7.8837e-05 0)
(5.01174 -5.00308e-05 0)
(5.01174 -3.18482e-05 0)
(5.01174 -1.99371e-05 0)
(5.01173 -1.25273e-05 0)
(5.01173 -7.95388e-06 0)
(5.01173 -4.99077e-06 0)
(5.01173 -3.07502e-06 0)
(5.01173 -2.0586e-06 0)
(5.01173 -1.27884e-06 0)
(5.01173 -6.75525e-07 0)
(5.01173 -3.69484e-07 0)
(5.01173 -2.66204e-07 0)
(5.01173 -2.25374e-07 0)
(5.01173 -1.45791e-07 0)
(5.01173 -8.96003e-08 0)
(5.01173 -4.72693e-08 0)
(5.01173 -5.83724e-09 0)
(5.01173 -3.04737e-08 0)
(5.01173 -3.09607e-08 0)
(5.01173 5.66405e-08 0)
(5.01173 4.10126e-09 0)
(5.01173 -3.68149e-08 0)
(5.01173 -8.23812e-09 0)
(5.01173 -8.47363e-10 0)
(5.01173 2.14247e-08 0)
(5.01173 4.86727e-08 0)
(5.01173 -3.49087e-09 0)
(5.01173 -1.69544e-08 0)
(5.01173 6.06174e-08 0)
(5.01173 3.54267e-08 0)
(5.01173 1.40776e-08 0)
(5.01173 1.0941e-08 0)
(5.01173 -3.84809e-08 0)
(5.01173 -2.15603e-08 0)
(5.01173 1.95522e-08 0)
(5.01173 2.4867e-08 0)
(5.01173 1.32518e-08 0)
(5.01173 -2.4679e-08 0)
(5.01173 -3.25585e-08 0)
(5.01173 -1.26173e-08 0)
(5.01173 8.66522e-09 0)
(5.01173 4.2846e-08 0)
(5.01173 3.19006e-08 0)
(5.01173 1.25694e-08 0)
(5.01173 1.96819e-09 0)
(5.01173 -6.55098e-09 0)
(5.01173 -2.8226e-08 0)
(5.01173 -4.5836e-09 0)
(5.01173 -3.53993e-09 0)
(5.01173 -3.78784e-09 0)
(5.01173 -1.52917e-08 0)
(5.01173 -3.64043e-08 0)
(5.01173 -4.2018e-08 0)
(5.01173 -1.16148e-08 0)
(5.01173 3.23779e-08 0)
(5.01173 5.27681e-08 0)
(5.01173 1.70741e-08 0)
(5.01173 -2.53154e-08 0)
(5.01173 -4.10653e-08 0)
(5.01173 -1.22123e-08 0)
(5.01173 1.71549e-08 0)
(5.01173 2.09196e-08 0)
(5.01173 8.60828e-09 0)
(5.01173 1.40079e-08 0)
(5.01173 1.70177e-08 0)
(5.01173 1.65428e-08 0)
(5.01174 1.40529e-08 0)
(5.01171 -1.11137e-08 0)
(5.01176 -2.60743e-08 0)
(5.01172 -5.34755e-08 0)
(5.01173 -3.5297e-08 0)
(10.5592 -2.34319 0)
(8.84891 -2.12526 0)
(7.18195 -1.80481 0)
(6.61412 -1.65181 0)
(6.12676 -1.3734 0)
(5.67862 -1.03523 0)
(5.40371 -0.744156 0)
(5.25388 -0.520816 0)
(5.16652 -0.357892 0)
(5.11222 -0.243365 0)
(5.07755 -0.164413 0)
(5.05505 -0.110499 0)
(5.04029 -0.0739335 0)
(5.03057 -0.049274 0)
(5.02415 -0.0327218 0)
(5.01991 -0.0216571 0)
(5.01711 -0.0142883 0)
(5.01526 -0.00939751 0)
(5.01404 -0.006162 0)
(5.01324 -0.00402846 0)
(5.01271 -0.002626 0)
(5.01237 -0.00170669 0)
(5.01214 -0.00110582 0)
(5.012 -0.000714547 0)
(5.0119 -0.000460327 0)
(5.01184 -0.000295603 0)
(5.0118 -0.000189381 0)
(5.01178 -0.000120916 0)
(5.01176 -7.68527e-05 0)
(5.01175 -4.87847e-05 0)
(5.01174 -3.0955e-05 0)
(5.01174 -1.95346e-05 0)
(5.01174 -1.21966e-05 0)
(5.01173 -7.61985e-06 0)
(5.01173 -4.81221e-06 0)
(5.01173 -3.0354e-06 0)
(5.01173 -1.85229e-06 0)
(5.01173 -1.18551e-06 0)
(5.01173 -8.19886e-07 0)
(5.01173 -4.19739e-07 0)
(5.01173 -1.28438e-07 0)
(5.01173 -1.39752e-07 0)
(5.01173 -1.54143e-07 0)
(5.01173 -9.38514e-08 0)
(5.01173 -1.70786e-08 0)
(5.01173 -5.94508e-09 0)
(5.01173 -1.44382e-07 0)
(5.01173 -8.78671e-08 0)
(5.01173 1.18856e-07 0)
(5.01173 5.56425e-08 0)
(5.01173 -7.52414e-08 0)
(5.01173 -6.04009e-08 0)
(5.01173 -5.95934e-08 0)
(5.01173 5.62899e-08 0)
(5.01173 1.22051e-07 0)
(5.01173 -5.66724e-08 0)
(5.01173 -8.156e-08 0)
(5.01173 1.47676e-08 0)
(5.01173 1.02962e-07 0)
(5.01173 1.22608e-07 0)
(5.01173 6.01661e-08 0)
(5.01173 -8.0326e-08 0)
(5.01173 -1.12094e-07 0)
(5.01173 1.41718e-09 0)
(5.01173 5.59574e-08 0)
(5.01173 5.87761e-08 0)
(5.01173 2.35223e-08 0)
(5.01173 -9.29957e-08 0)
(5.01173 -1.01546e-07 0)
(5.01173 -2.01297e-08 0)
(5.01173 1.03483e-08 0)
(5.01173 6.70652e-08 0)
(5.01173 7.6125e-08 0)
(5.01173 1.67334e-08 0)
(5.01173 -4.1118e-09 0)
(5.01173 -1.18877e-08 0)
(5.01173 -7.54401e-08 0)
(5.01173 -2.44676e-08 0)
(5.01173 4.81482e-08 0)
(5.01173 2.49507e-08 0)
(5.01173 -4.8115e-08 0)
(5.01173 -8.32597e-08 0)
(5.01173 -5.24282e-08 0)
(5.01173 3.48663e-10 0)
(5.01173 3.19299e-08 0)
(5.01173 4.40458e-08 0)
(5.01173 2.5651e-08 0)
(5.01173 2.23352e-09 0)
(5.01173 -5.65939e-09 0)
(5.01173 1.18849e-08 0)
(5.01173 1.84985e-08 0)
(5.01173 8.581e-10 0)
(5.01173 -4.04621e-08 0)
(5.01173 -4.87447e-08 0)
(5.01173 -1.51362e-08 0)
(5.01174 3.4715e-08 0)
(5.01171 4.6265e-08 0)
(5.01176 4.51958e-08 0)
(5.01172 1.49304e-08 0)
(5.01173 -1.65159e-08 0)
(10.2279 -2.10542 0)
(8.95709 -3.04223 0)
(6.82572 -2.61359 0)
(5.89938 -1.98124 0)
(5.70358 -1.42639 0)
(5.56512 -1.00515 0)
(5.40951 -0.709235 0)
(5.28219 -0.496954 0)
(5.19148 -0.34302 0)
(5.13035 -0.234002 0)
(5.09006 -0.158408 0)
(5.06353 -0.106607 0)
(5.046 -0.0713949 0)
(5.03439 -0.0476119 0)
(5.02669 -0.0316318 0)
(5.02159 -0.0209419 0)
(5.01822 -0.0138192 0)
(5.01599 -0.0090903 0)
(5.01452 -0.00596118 0)
(5.01355 -0.00389744 0)
(5.01292 -0.00254072 0)
(5.0125 -0.00165133 0)
(5.01223 -0.00106994 0)
(5.01205 -0.000691374 0)
(5.01194 -0.000445445 0)
(5.01186 -0.000286023 0)
(5.01182 -0.000183226 0)
(5.01179 -0.000117005 0)
(5.01177 -7.43739e-05 0)
(5.01175 -4.72028e-05 0)
(5.01174 -2.9972e-05 0)
(5.01174 -1.88904e-05 0)
(5.01174 -1.17668e-05 0)
(5.01173 -7.38916e-06 0)
(5.01173 -4.69354e-06 0)
(5.01173 -2.91745e-06 0)
(5.01173 -1.84263e-06 0)
(5.01173 -1.16371e-06 0)
(5.01173 -6.76517e-07 0)
(5.01173 -3.64472e-07 0)
(5.01173 -2.4262e-07 0)
(5.01173 -2.04404e-07 0)
(5.01173 -1.36327e-07 0)
(5.01173 -8.01437e-08 0)
(5.01173 -5.97804e-08 0)
(5.01173 -6.60241e-09 0)
(5.01173 -4.1225e-08 0)
(5.01173 -3.58901e-08 0)
(5.01173 7.39488e-08 0)
(5.01173 1.68698e-08 0)
(5.01173 -5.57467e-08 0)
(5.01173 -5.44055e-09 0)
(5.01173 -5.16965e-09 0)
(5.01173 3.13702e-08 0)
(5.01173 5.4856e-08 0)
(5.01173 -2.37946e-10 0)
(5.01173 -1.8673e-08 0)
(5.01173 7.07758e-08 0)
(5.01173 5.4323e-08 0)
(5.01173 1.89101e-08 0)
(5.01173 8.98477e-09 0)
(5.01173 -5.30542e-08 0)
(5.01173 -3.90273e-08 0)
(5.01173 2.70313e-08 0)
(5.01173 3.29505e-08 0)
(5.01173 1.54779e-08 0)
(5.01173 -2.91814e-08 0)
(5.01173 -4.61177e-08 0)
(5.01173 -1.73243e-08 0)
(5.01173 1.61743e-08 0)
(5.01173 4.43063e-08 0)
(5.01173 4.52244e-08 0)
(5.01173 2.19412e-08 0)
(5.01173 1.7063e-09 0)
(5.01173 -8.23374e-09 0)
(5.01173 -2.88488e-08 0)
(5.01173 -1.66438e-08 0)
(5.01173 -6.70607e-09 0)
(5.01173 3.56336e-09 0)
(5.01173 -1.74269e-08 0)
(5.01173 -4.99079e-08 0)
(5.01173 -4.1534e-08 0)
(5.01173 -8.0819e-09 0)
(5.01173 3.78049e-08 0)
(5.01173 6.10841e-08 0)
(5.01173 2.08933e-08 0)
(5.01173 -3.02065e-08 0)
(5.01173 -4.84399e-08 0)
(5.01173 -1.72221e-08 0)
(5.01173 1.79748e-08 0)
(5.01173 2.7584e-08 0)
(5.01173 1.16591e-08 0)
(5.01173 6.54118e-09 0)
(5.01173 1.4785e-08 0)
(5.01173 1.80077e-08 0)
(5.01174 2.79365e-08 0)
(5.01171 -4.79146e-09 0)
(5.01176 -2.11378e-08 0)
(5.01172 -5.99408e-08 0)
(5.01173 -5.42298e-08 0)
(9.24853 -2.12415 0)
(8.53804 -1.85171 0)
(8.1454 -1.45626 0)
(7.29051 -1.38801 0)
(6.38175 -1.22173 0)
(5.805 -0.935939 0)
(5.49597 -0.672764 0)
(5.32404 -0.472715 0)
(5.21757 -0.32693 0)
(5.14797 -0.223457 0)
(5.10206 -0.151508 0)
(5.07167 -0.102086 0)
(5.05148 -0.0684266 0)
(5.03806 -0.04566 0)
(5.02914 -0.0303478 0)
(5.02322 -0.0200976 0)
(5.01929 -0.0132647 0)
(5.0167 -0.00872675 0)
(5.01498 -0.00572338 0)
(5.01386 -0.00374222 0)
(5.01312 -0.00243962 0)
(5.01263 -0.00158569 0)
(5.01231 -0.00102743 0)
(5.01211 -0.000663897 0)
(5.01197 -0.000427778 0)
(5.01189 -0.000274675 0)
(5.01183 -0.000175923 0)
(5.01179 -0.000112353 0)
(5.01177 -7.14411e-05 0)
(5.01176 -4.53449e-05 0)
(5.01175 -2.87767e-05 0)
(5.01174 -1.81259e-05 0)
(5.01174 -1.13044e-05 0)
(5.01173 -7.11268e-06 0)
(5.01173 -4.519e-06 0)
(5.01173 -2.81802e-06 0)
(5.01173 -1.74896e-06 0)
(5.01173 -1.07071e-06 0)
(5.01173 -6.72645e-07 0)
(5.01173 -4.03486e-07 0)
(5.01173 -1.87499e-07 0)
(5.01173 -1.51976e-07 0)
(5.01173 -1.14771e-07 0)
(5.01173 -8.02542e-08 0)
(5.01173 -4.96556e-08 0)
(5.01173 6.2079e-10 0)
(5.01173 -9.17995e-08 0)
(5.01173 -9.83775e-08 0)
(5.01173 8.54127e-08 0)
(5.01173 4.81465e-08 0)
(5.01173 -6.30472e-08 0)
(5.01173 -3.53187e-08 0)
(5.01173 -3.85784e-08 0)
(5.01173 1.81698e-08 0)
(5.01173 1.01405e-07 0)
(5.01173 -3.32893e-08 0)
(5.01173 -6.46663e-08 0)
(5.01173 1.42398e-08 0)
(5.01173 7.2368e-08 0)
(5.01173 8.85526e-08 0)
(5.01173 5.2325e-08 0)
(5.01173 -4.31974e-08 0)
(5.01173 -8.04507e-08 0)
(5.01173 -6.32184e-09 0)
(5.01173 3.5445e-08 0)
(5.01173 3.52624e-08 0)
(5.01173 1.54157e-08 0)
(5.01173 -6.27561e-08 0)
(5.01173 -7.23495e-08 0)
(5.01173 -1.72428e-08 0)
(5.01173 7.8067e-09 0)
(5.01173 3.6544e-08 0)
(5.01173 5.90396e-08 0)
(5.01173 2.68643e-08 0)
(5.01173 7.48172e-10 0)
(5.01173 -6.23697e-09 0)
(5.01173 -5.35441e-08 0)
(5.01173 -2.64833e-08 0)
(5.01173 2.73705e-08 0)
(5.01173 1.81698e-08 0)
(5.01173 -3.64045e-08 0)
(5.01173 -6.6659e-08 0)
(5.01173 -3.77412e-08 0)
(5.01173 1.35669e-08 0)
(5.01173 3.16266e-08 0)
(5.01173 2.92293e-08 0)
(5.01173 8.01704e-09 0)
(5.01173 -2.64345e-09 0)
(5.01173 2.08535e-09 0)
(5.01173 1.80479e-08 0)
(5.01173 1.76514e-08 0)
(5.01173 1.35006e-09 0)
(5.01173 -3.07795e-08 0)
(5.01173 -3.92967e-08 0)
(5.01173 -1.54143e-08 0)
(5.01174 1.91447e-08 0)
(5.01171 2.54924e-08 0)
(5.01176 3.49322e-08 0)
(5.01172 1.08164e-08 0)
(5.01173 -2.12266e-08 0)
(10.0641 -1.47908 0)
(8.41874 -2.41664 0)
(6.69313 -2.16414 0)
(6.1558 -1.61168 0)
(5.97921 -1.18491 0)
(5.74391 -0.868725 0)
(5.51768 -0.62604 0)
(5.35307 -0.443444 0)
(5.24055 -0.308496 0)
(5.16439 -0.21157 0)
(5.11341 -0.143725 0)
(5.0794 -0.0969634 0)
(5.0567 -0.0650484 0)
(5.04156 -0.0434313 0)
(5.03147 -0.0288782 0)
(5.02477 -0.0191298 0)
(5.02032 -0.0126283 0)
(5.01737 -0.00830916 0)
(5.01543 -0.00545008 0)
(5.01415 -0.00356375 0)
(5.0133 -0.00232333 0)
(5.01275 -0.00151017 0)
(5.01239 -0.000978527 0)
(5.01216 -0.000632286 0)
(5.01201 -0.000407442 0)
(5.01191 -0.000261622 0)
(5.01184 -0.000167522 0)
(5.0118 -0.000106998 0)
(5.01178 -6.80733e-05 0)
(5.01176 -4.32037e-05 0)
(5.01175 -2.73944e-05 0)
(5.01174 -1.72526e-05 0)
(5.01174 -1.0774e-05 0)
(5.01174 -6.7932e-06 0)
(5.01173 -4.32372e-06 0)
(5.01173 -2.6814e-06 0)
(5.01173 -1.6427e-06 0)
(5.01173 -1.00692e-06 0)
(5.01173 -6.26371e-07 0)
(5.01173 -3.72615e-07 0)
(5.01173 -2.26084e-07 0)
(5.01173 -1.7345e-07 0)
(5.01173 -1.08015e-07 0)
(5.01173 -6.5915e-08 0)
(5.01173 -6.64489e-08 0)
(5.01173 -1.09434e-08 0)
(5.01173 -4.07416e-08 0)
(5.01173 -4.59969e-08 0)
(5.01173 7.29115e-08 0)
(5.01173 3.03102e-08 0)
(5.01173 -6.56901e-08 0)
(5.01173 -4.41414e-09 0)
(5.01173 -3.86893e-09 0)
(5.01173 2.75847e-08 0)
(5.01173 5.72534e-08 0)
(5.01173 -1.95461e-09 0)
(5.01173 -2.33495e-08 0)
(5.01173 5.69056e-08 0)
(5.01173 6.004e-08 0)
(5.01173 2.50763e-08 0)
(5.01173 1.3883e-08 0)
(5.01173 -5.53338e-08 0)
(5.01173 -4.56696e-08 0)
(5.01173 2.26256e-08 0)
(5.01173 3.50857e-08 0)
(5.01173 1.38669e-08 0)
(5.01173 -2.47312e-08 0)
(5.01173 -5.0811e-08 0)
(5.01173 -2.20857e-08 0)
(5.01173 1.7563e-08 0)
(5.01173 2.98785e-08 0)
(5.01173 4.55114e-08 0)
(5.01173 2.92125e-08 0)
(5.01173 5.253e-09 0)
(5.01173 -4.19287e-09 0)
(5.01173 -2.52061e-08 0)
(5.01173 -2.53322e-08 0)
(5.01173 -8.55186e-09 0)
(5.01173 6.99403e-09 0)
(5.01173 -1.726e-08 0)
(5.01173 -5.2642e-08 0)
(5.01173 -4.47031e-08 0)
(5.01173 -6.337e-09 0)
(5.01173 3.32784e-08 0)
(5.01173 5.17739e-08 0)
(5.01173 1.71866e-08 0)
(5.01173 -2.73132e-08 0)
(5.01173 -4.20456e-08 0)
(5.01173 -1.46344e-08 0)
(5.01173 1.67992e-08 0)
(5.01173 2.79287e-08 0)
(5.01173 1.17914e-08 0)
(5.01173 -1.0954e-09 0)
(5.01173 8.36371e-09 0)
(5.01173 1.4117e-08 0)
(5.01174 3.51923e-08 0)
(5.01171 -2.55959e-09 0)
(5.01176 -1.67571e-08 0)
(5.01172 -4.77865e-08 0)
(5.01173 -5.72997e-08 0)
(9.32258 -1.61965 0)
(8.82092 -1.59961 0)
(7.87103 -1.39109 0)
(6.91201 -1.25023 0)
(6.27195 -1.05746 0)
(5.85029 -0.809965 0)
(5.56877 -0.58608 0)
(5.38504 -0.414875 0)
(5.2627 -0.289068 0)
(5.17989 -0.198639 0)
(5.12411 -0.135147 0)
(5.0867 -0.091278 0)
(5.06164 -0.0612836 0)
(5.04487 -0.0409405 0)
(5.03368 -0.0272326 0)
(5.02624 -0.0180445 0)
(5.02129 -0.011914 0)
(5.01801 -0.00784019 0)
(5.01585 -0.005143 0)
(5.01442 -0.00336317 0)
(5.01348 -0.0021926 0)
(5.01287 -0.00142525 0)
(5.01247 -0.00092355 0)
(5.01221 -0.000596743 0)
(5.01204 -0.000384557 0)
(5.01193 -0.000246941 0)
(5.01186 -0.000158081 0)
(5.01181 -0.000100975 0)
(5.01178 -6.42843e-05 0)
(5.01176 -4.07938e-05 0)
(5.01175 -2.58363e-05 0)
(5.01174 -1.62708e-05 0)
(5.01174 -1.01815e-05 0)
(5.01174 -6.43772e-06 0)