/*--------------------------------*- C++ -*----------------------------------*\
| =========                 |                                                 |
| \\      /  F ield         | OpenFOAM: The Open Source CFD Toolbox           |
|  \\    /   O peration     | Version:  2.4.0                                 |
|   \\  /    A nd           | Web:      www.OpenFOAM.org                      |
|    \\/     M anipulation  |                                                 |
\*---------------------------------------------------------------------------*/
FoamFile
{
    version     2.0;
    format      ascii;
    class       volScalarField;
    location    "0.53";
    object      k_0;
}
// * * * * * * * * * * * * * * * * * * * * * * * * * * * * * * * * * * * * * //

dimensions      [0 2 -2 0 0 0 0];

internalField   nonuniform List<scalar> 
8800
(
8.11959
10.265
8.79754
6.81543
5.714
4.9635
4.53491
4.13324
3.92594
3.65637
3.55211
3.3591
3.30116
3.15099
3.10089
2.97581
2.92032
2.78968
2.72671
2.55353
1.40407
4.35037
5.32237
5.28734
5.13237
4.80141
4.58339
4.27773
4.1291
3.87341
3.77844
3.58385
3.52057
3.37352
3.32724
3.21388
3.17419
3.06834
3.01589
2.95847
0.0843859
0.727935
1.56709
1.94147
2.28033
2.43008
2.5815
2.59622
2.62448
2.59858
2.58952
2.54013
2.5244
2.47538
2.46054
2.41263
2.40599
2.36806
2.35446
2.31325
0.00335531
0.0695981
0.260332
0.419652
0.587319
0.697631
0.839024
0.927848
1.02471
1.08764
1.16824
1.20862
1.25788
1.30598
1.33942
1.36198
1.40778
1.4284
1.46592
1.47452
0.000123884
0.00493766
0.0218972
0.055982
0.0894621
0.123228
0.158848
0.209804
0.237643
0.286847
0.315914
0.362439
0.383793
0.432943
0.455154
0.499557
0.523365
0.58104
0.604125
0.661255
2.5095e-05
0.000307627
0.00144817
0.00478629
0.00767219
0.0131224
0.0173108
0.0267918
0.0321157
0.0443867
0.050811
0.0649199
0.071446
0.0869648
0.094782
0.110788
0.119117
0.142279
0.151488
0.176568
2.1612e-05
4.33919e-05
0.000119299
0.000360084
0.000536263
0.000932317
0.00125759
0.00204178
0.00252034
0.00382745
0.00457816
0.00643343
0.00738785
0.00972573
0.0113293
0.0137839
0.0154239
0.0199783
0.022041
0.0266914
2.10927e-05
3.02338e-05
4.4848e-05
8.29228e-05
9.56764e-05
0.000125378
0.00013984
0.000178477
0.000198715
0.000271113
0.000315285
0.000446726
0.000512388
0.000650392
0.000890936
0.00103957
0.00115061
0.00156691
0.00174674
0.00211954
2.07135e-05
2.86266e-05
4.7735e-05
5.33578e-05
5.97146e-05
7.42824e-05
8.72964e-05
8.82395e-05
8.98027e-05
8.89243e-05
8.6456e-05
9.07502e-05
9.57166e-05
0.000104651
0.000131518
0.000140457
0.000144673
0.000153468
0.000171809
0.000178024
2.05562e-05
2.90432e-05
4.76613e-05
5.03832e-05
5.16919e-05
5.92421e-05
7.13475e-05
7.63411e-05
7.68258e-05
7.95237e-05
7.72877e-05
7.54402e-05
7.58155e-05
7.57944e-05
7.96767e-05
8.26062e-05
8.40387e-05
8.551e-05
8.6384e-05
8.87332e-05
2.06423e-05
2.77267e-05
3.57426e-05
5.83103e-05
7.02515e-05
7.11725e-05
6.92905e-05
6.79098e-05
6.64816e-05
6.75802e-05
7.37864e-05
7.76537e-05
7.93084e-05
7.98499e-05
7.96234e-05
7.96983e-05
8.07077e-05
8.43223e-05
8.6485e-05
9.08326e-05
2.07516e-05
2.76562e-05
4.80485e-05
6.65653e-05
6.64e-05
6.58574e-05
6.54741e-05
6.915e-05
8.04885e-05
9.88667e-05
0.000100846
0.000103507
0.000104831
0.000105945
0.000109438
0.000113673
0.000122676
0.000158287
0.000178384
0.000218592
2.10365e-05
2.96415e-05
5.58524e-05
7.11545e-05
7.99819e-05
0.000107771
0.000128451
0.000184705
0.00022853
0.000310323
0.000349613
0.000451114
0.000493888
0.00062042
0.000741089
0.000967445
0.00115459
0.0017306
0.00207253
0.00286275
2.16109e-05
4.34612e-05
0.000150214
0.000275385
0.000420707
0.000896907
0.00125623
0.00216047
0.00274892
0.00400071
0.00470178
0.00647085
0.00733465
0.00944641
0.0108536
0.0140696
0.0160773
0.0211227
0.0239409
0.0311939
2.49399e-05
0.000307994
0.00201412
0.00365286
0.00633468
0.013647
0.0178995
0.02736
0.0332044
0.0451896
0.0511315
0.0651259
0.0714467
0.0858212
0.0937808
0.112191
0.122178
0.146615
0.158977
0.191709
0.000122522
0.00493944
0.0277155
0.047344
0.0823215
0.132722
0.158495
0.208439
0.243973
0.2892
0.312323
0.363857
0.385405
0.431339
0.453998
0.507151
0.532262
0.593072
0.620239
0.690608
0.00335642
0.0698193
0.265009
0.406366
0.587287
0.712393
0.825472
0.932306
1.03334
1.09328
1.15311
1.22259
1.2539
1.30499
1.33197
1.38673
1.40723
1.45712
1.47735
1.52628
0.0845493
0.730039
1.56915
1.92878
2.29013
2.43163
2.57749
2.59907
2.62886
2.59705
2.58696
2.54228
2.52558
2.47326
2.46126
2.42238
2.41139
2.38089
2.36992
2.34002
1.40642
4.35157
5.31943
5.28605
5.13436
4.79508
4.59583
4.27071
4.13004
3.87162
3.77912
3.57436
3.52029
3.36749
3.3283
3.19915
3.16927
3.04795
3.00849
2.90518
8.12234
10.2661
8.79167
6.82069
5.71386
4.956
4.54551
4.12588
3.92649
3.64919
3.55597
3.34444
3.29978
3.13234
3.10007
2.93453
2.90087
2.7226
2.65878
2.44586
1.76872
1.24694
0.953522
0.782347
0.691691
0.649748
0.625568
0.608269
0.592806
0.58172
0.572479
0.566953
0.560185
0.55499
0.545739
0.538243
0.526913
0.518576
0.508289
0.500192
0.490234
0.484005
0.473775
0.468602
0.457701
0.453044
0.442532
0.439242
0.431249
0.430249
0.427431
0.429486
0.431162
0.437854
0.441248
0.450282
0.453871
0.463066
0.466577
0.474746
0.478863
0.481783
0.480107
0.473298
0.453388
0.411668
0.347399
0.287679
0.23855
0.195958
0.170937
0.149112
0.134405
0.123039
0.113153
0.104632
0.0973508
0.0920799
0.0844826
0.0815989
0.0758778
0.0744171
0.0742268
0.0751972
0.0787045
0.0827058
0.0932283
0.106477
0.13049
0.164747
0.199679
0.24321
0.266667
0.268934
0.265913
0.258439
0.253816
0.24689
0.232966
0.207911
0.192504
0.19138
0.198459
0.240897
0.290161
0.30195
0.296691
0.262867
0.192609
0.142559
0.112627
0.095528
0.0892459
0.0880638
0.0883182
0.0870274
0.0836331
0.0799308
0.0757114
0.0753235
0.0779855
0.079974
0.0811392
0.0828352
0.0827532
0.0814116
0.0771369
0.0703206
0.0624513
0.0576879
0.0565951
0.0565644
0.0576267
0.0614356
0.0720719
0.0869401
0.093043
0.0962666
0.0966195
0.0946794
0.0887946
0.075925
0.0564272
0.0417676
0.0328822
0.0288837
0.0265415
0.0259335
0.0256201
0.0256237
0.0257659
0.0260994
0.0269612
0.0288362
0.0311903
0.0375102
0.0420733
0.0507866
0.0586877
0.0686668
0.077222
0.0924634
0.100098
0.116109
0.128536
0.13838
0.146712
0.153485
0.154126
0.15372
0.151695
0.149804
0.146249
0.141835
0.139326
0.131843
0.127638
0.118942
0.112543
0.10126
0.0890356
0.0750004
0.0596092
0.044277
0.0325916
0.023845
0.0177022
0.0135363
0.0113277
0.00978242
0.00965296
0.00986728
0.0104189
0.0118554
0.012446
0.014127
0.0148218
0.0168392
0.0188707
0.0241021
0.0243575
0.0297228
0.0303263
0.0330478
0.030661
0.0326277
0.0317641
0.0335628
0.0281707
0.024814
0.0203077
0.0194126
0.0174184
0.0160032
0.0154796
0.0151677
0.017416
0.0247145
0.0921444
1.1845
2.4888
2.03199
1.69957
1.46457
1.28967
1.16081
1.05957
0.987804
0.926192
0.883369
0.842256
0.815412
0.784544
0.764622
0.737833
0.722054
0.699278
0.687793
0.669392
0.661496
0.646447
0.640151
0.627118
0.621125
0.608008
0.602087
0.589013
0.583528
0.571668
0.567121
0.557387
0.553615
0.545303
0.542058
0.535098
0.532349
0.526993
0.52462
0.521271
0.521283
0.521585
0.523246
0.525411
0.531656
0.532531
0.530275
0.523807
0.503805
0.486741
0.457991
0.42797
0.403884
0.375606
0.356387
0.331803
0.3187
0.292396
0.281869
0.261243
0.246383
0.233798
0.218319
0.207608
0.204039
0.205058
0.208624
0.216823
0.234437
0.262058
0.280974
0.290124
0.291708
0.288383
0.279022
0.267537
0.250948
0.234011
0.204903
0.176412
0.15027
0.131078
0.12368
0.124022
0.128661
0.142974
0.198558
0.249742
0.259222
0.254338
0.236031
0.180758
0.133095
0.108368
0.0941917
0.0885639
0.0875405
0.0870875
0.0873228
0.087735
0.0869486
0.0866147
0.0862417
0.0849587
0.0808422
0.0748901
0.0694236
0.0619963
0.0586056
0.0566907
0.0561662
0.0571171
0.0605003
0.068296
0.084526
0.0939631
0.0968764
0.0967164
0.0950302
0.0889486
0.0755774
0.0516661
0.0346418
0.0258849
0.0219664
0.0209219
0.0209831
0.0212571
0.0220597
0.0225794
0.0225091
0.0222421
0.021516
0.020607
0.0200773
0.0200684
0.020516
0.0215542
0.0242355
0.0266493
0.0315488
0.0362002
0.0406575
0.0488578
0.0540553
0.0625347
0.0687037
0.0744956
0.0810682
0.0847015
0.0896004
0.091135
0.0909878
0.0898535
0.0867293
0.083142
0.0769437
0.0700353
0.0622974
0.0539359
0.0445031
0.0368954
0.0293903
0.0235185
0.0184016
0.0145701
0.0117794
0.00994708
0.00885466
0.00836425
0.00841661
0.00869156
0.00948006
0.0102942
0.0118849
0.0125356
0.0148754
0.0157891
0.0177995
0.0210456
0.0235245
0.0251209
0.0275547
0.0324392
0.0313087
0.0322697
0.032461
0.0388457
0.037638
0.0390412
0.0312472
0.0265169
0.0195355
0.0185437
0.0167441
0.0154666
0.0155316
0.0176924
0.0226964
0.0811798
0.535813
2.06312
1.80449
1.59835
1.43778
1.30868
1.20244
1.10905
1.03314
0.96416
0.911835
0.863533
0.829439
0.795993
0.772417
0.745763
0.726639
0.702443
0.685719
0.663907
0.65032
0.633051
0.623538
0.610938
0.604297
0.594229
0.587931
0.578232
0.570177
0.560535
0.550635
0.541788
0.531353
0.523115
0.514119
0.506931
0.498855
0.493454
0.485589
0.481653
0.47554
0.473409
0.469313
0.469396
0.469951
0.472893
0.474668
0.478349
0.478425
0.475857
0.473549
0.466629
0.462777
0.456911
0.450202
0.444299
0.441293
0.431403
0.426211
0.419406
0.408946
0.403931
0.391081
0.385297
0.374365
0.368606
0.36288
0.355729
0.348795
0.343113
0.333641
0.319983
0.304622
0.286025
0.257593
0.22649
0.191919
0.1537
0.117918
0.0947511
0.0762341
0.0588829
0.0530961
0.0535906
0.056782
0.0655976
0.0790117
0.101935
0.167919
0.213768
0.22333
0.22101
0.210866
0.175616
0.132317
0.10693
0.0946664
0.0877039
0.082423
0.0792024
0.0772335
0.0739918
0.0700467
0.0666491
0.0621931
0.0587588
0.0568198
0.0559741
0.0562913
0.0579965
0.0621266
0.071123
0.0870221
0.0973702
0.100699
0.100408
0.0985142
0.0926587
0.0803773
0.0540826
0.0334849
0.0232965
0.0188727
0.0181217
0.0184231
0.0199331
0.0221812
0.0259449
0.0310283
0.0330951
0.0327352
0.0314795
0.0281868
0.0248364
0.0219598
0.0200696
0.0185747
0.0173588
0.0168169
0.0168371
0.017234
0.0184783
0.0197717
0.0222215
0.025245
0.0273949
0.0319503
0.0337264
0.0371811
0.038248
0.0402639
0.0405927
0.0402481
0.0393967
0.0371199
0.0354619
0.0318023
0.0296316
0.0255588
0.0228401
0.0194141
0.0167511
0.0141294
0.0119904
0.0102307
0.00889326
0.00819607
0.00774463
0.00770389
0.00776531
0.00816543
0.00912623
0.0101434
0.0131456
0.0139913
0.0172331
0.0181241
0.021548
0.0219741
0.0260878
0.0264926
0.0300242
0.0300408
0.0326192
0.0315499
0.0327555
0.0321717
0.0365623
0.0378134
0.036529
0.0340992
0.0287233
0.0266318
0.0210274
0.0203709
0.016677
0.0159501
0.0221847
0.0241314
0.0736599
0.258491
1.37123
1.24815
1.13446
1.04702
0.977232
0.916815
0.858612
0.810234
0.759524
0.719909
0.678234
0.648923
0.620743
0.601405
0.583465
0.568876
0.554637
0.539086
0.523906
0.506455
0.490747
0.476317
0.463417
0.453727
0.446812
0.439876
0.436622
0.430129
0.425905
0.416995
0.410033
0.399078
0.388297
0.378576
0.366662
0.358123
0.349791
0.340788
0.337798
0.331885
0.33031
0.328405
0.328686
0.330122
0.331477
0.335114
0.336891
0.342481
0.345457
0.350793
0.357295
0.35959
0.36529
0.370812
0.373085
0.379097
0.380249
0.382185
0.38334
0.382736
0.381953
0.378897
0.376191
0.369672
0.363606
0.354485
0.342954
0.329791
0.313065
0.291085
0.264405
0.237526
0.199081
0.161508
0.122043
0.0869699
0.0627735
0.0459358
0.035121
0.027542
0.022663
0.0217438
0.0218696
0.0228201
0.0253606
0.0299759
0.0401285
0.0548605
0.0819421
0.139434
0.181852
0.194415
0.193905
0.189291
0.176122
0.14395
0.117206
0.0989961
0.0869155
0.0800537
0.0740539
0.067647
0.0624029
0.0601106
0.0601683
0.0612916
0.0649829
0.0737732
0.0852029
0.0977235
0.105614
0.106539
0.106004
0.103588
0.0972721
0.0845867
0.0585494
0.0348976
0.0226556
0.0170625
0.0159795
0.0162795
0.0178858
0.0229725
0.0345401
0.0463517
0.0606046
0.0722306
0.0751293
0.0735822
0.0693843
0.0599905
0.0495529
0.0385945
0.0301062
0.0240484
0.020001
0.0176784
0.016253
0.0152213
0.0144255
0.0141474
0.0142313
0.0145427
0.0154693
0.0160877
0.017546
0.0180139
0.0193875
0.0195544
0.0198723
0.019466
0.0191426
0.018204
0.0175473
0.0160934
0.0151216
0.0136831
0.0124203
0.0112559
0.0100597
0.00919134
0.0083269
0.00790247
0.00750507
0.00743656
0.0075595
0.00789267
0.00904246
0.0109234
0.0144353
0.0166078
0.0212886
0.0236162
0.0274925
0.0306492
0.0311548
0.0333439
0.0336411
0.0342313
0.0340394
0.0346581
0.0343241
0.0340871
0.0333103
0.0368598
0.0372379
0.0418586
0.0384727
0.0380416
0.0322325
0.0295983
0.0240053
0.0209412
0.0230787
0.0205178
0.051406
0.0331644
0.0519265
0.142014
0.630805
0.592361
0.546339
0.509569
0.487626
0.467098
0.448986
0.432485
0.40941
0.391561
0.367143
0.348408
0.331035
0.318504
0.311517
0.304956
0.302572
0.2996
0.29655
0.291147
0.282074
0.273779
0.262113
0.252471
0.243688
0.236675
0.232413
0.228966
0.22641
0.225066
0.222674
0.220675
0.215597
0.210016
0.20205
0.193617
0.185269
0.176251
0.169519
0.163514
0.158479
0.157217
0.15724
0.158919
0.161024
0.16629
0.170499
0.174278
0.179836
0.182001
0.186339
0.188173
0.191951
0.194679
0.200273
0.203799
0.209738
0.215936
0.219677
0.225712
0.227991
0.229211
0.228097
0.225027
0.220194
0.210358
0.200303
0.18362
0.166036
0.145578
0.119187
0.0959146
0.0732709
0.0552763
0.0405497
0.0299727
0.0223728
0.016787
0.0133867
0.0109519
0.00922125
0.00865256
0.00866882
0.00902538
0.00972501
0.0110572
0.0134936
0.0172479
0.0267916
0.0394459
0.0652668
0.11187
0.148515
0.168347
0.170823
0.169851
0.166227
0.156905
0.137587
0.124837
0.110571
0.100708
0.0985895
0.0989472
0.100977
0.106242
0.113302
0.1164
0.116247
0.11557
0.113438
0.108153
0.0998684
0.0845265
0.0590262
0.0353247
0.0221211
0.0156717
0.0138427
0.0140998
0.0155807
0.0203996
0.0326346
0.0607422
0.0927408
0.121652
0.150452
0.163444
0.163114
0.157853
0.144661
0.124704
0.102544
0.0809657
0.0604254
0.0436995
0.0320896
0.0242095
0.0198101
0.0166542
0.0152115
0.0136906
0.0132831
0.0124286
0.0123849
0.0122281
0.0122973
0.0123381
0.0124289
0.0125656
0.0123686
0.0123263
0.0118391
0.0115886
0.010821
0.0104936
0.00977139
0.0094351
0.00890005
0.00864024
0.0082823
0.00791846
0.0077123
0.00775294
0.00812645
0.00896504
0.0110495
0.0131321
0.0174283
0.0246624
0.027689
0.0350575
0.0388011
0.0453872
0.0480393
0.0516288
0.0509753
0.0512449
0.0496736
0.0483645
0.0446246
0.0439238
0.039795
0.0388553
0.035046
0.0378773
0.0369951
0.0389128
0.0382791
0.0369568
0.0371519
0.0332404
0.0396334
0.0302882
0.0524818
0.036162
0.0736835
0.058173
0.0571209
0.0892533
0.172229
0.166436
0.158003
0.148992
0.14582
0.141857
0.140071
0.138087
0.133849
0.129492
0.122231
0.115617
0.108888
0.103418
0.100519
0.0993724
0.0995812
0.100369
0.101539
0.102379
0.102452
0.102224
0.098949
0.0948064
0.0895929
0.0849698
0.0815124
0.0786453
0.0772472
0.0762356
0.0758064
0.0755149
0.0749394
0.07451
0.0740202
0.0730096
0.0695106
0.0658507
0.0614196
0.058353
0.0546204
0.0519237
0.0506423
0.0505889
0.0510406
0.0521493
0.054849
0.0575831
0.0615151
0.0648809
0.0671917
0.0700379
0.0720089
0.0730491
0.0750465
0.0759046
0.0770597
0.0785335
0.0794643
0.0809889
0.0818972
0.0820627
0.0815188
0.0800629
0.0774703
0.0730531
0.0677124
0.0606308
0.0533119
0.0449637
0.0370664
0.0294652
0.0229227
0.0176302
0.0132367
0.0102537
0.00785252
0.00613561
0.00495499
0.00402565
0.0034488
0.0033116
0.0033393
0.00354377
0.00404234
0.00452181
0.0051941
0.0065204
0.00858847
0.0123483
0.0196768
0.0313138
0.051883
0.0837993
0.115963
0.136577
0.147453
0.148701
0.147948
0.146005
0.143281
0.141414
0.138265
0.136811
0.134172
0.131224
0.128326
0.121934
0.116218
0.106994
0.0918314
0.0738655
0.0497993
0.0313087
0.0199971
0.0140027
0.0116559
0.0117541
0.0127457
0.0164797
0.0270093
0.051054
0.105191
0.16659
0.227635
0.274783
0.305688
0.309371
0.30443
0.290297
0.260063
0.223102
0.182112
0.144376
0.109819
0.0824149
0.0601478
0.043726
0.0320323
0.0239973
0.0192881
0.0162367
0.0141142
0.0132366
0.0119557
0.0117157
0.0108992
0.0107705
0.0101887
0.0100665
0.00946447
0.00932569
0.00891471
0.00881633
0.00853411
0.00848608
0.00833277
0.00833188
0.00835664
0.00845813
0.00873774
0.00930904
0.0105422
0.0119452
0.0161123
0.0198563
0.0265728
0.0318156
0.0449412
0.0524575
0.0584109
0.072246
0.0769548
0.0837816
0.0858362
0.08533
0.0828392
0.0803241
0.073619
0.0696324
0.0609187
0.0579705
0.0494524
0.0433115
0.037819
0.0368961
0.0386407
0.0397479
0.0444468
0.0416397
0.0554663
0.0471778
0.0643817
0.0525726
0.071471
0.0606653
0.0634192
0.070555
0.0696547
0.0791512
0.0263639
0.0258213
0.0254302
0.0250431
0.0250037
0.0250152
0.0250928
0.0250594
0.0248523
0.0243323
0.0233205
0.0220673
0.0208627
0.0199805
0.0195116
0.019377
0.0194324
0.0200466
0.0208428
0.0214505
0.0217473
0.0219353
0.0218908
0.0215287
0.0202935
0.0192878
0.0182123
0.0173895
0.016838
0.0164706
0.0164843
0.0165932
0.0170306
0.0171729
0.0172297
0.017292
0.0172322
0.017042
0.0159673
0.0151762
0.0140425
0.012987
0.012278
0.0119204
0.0119615
0.0121213
0.012762
0.0136339
0.014581
0.0166046
0.0174494
0.0190313
0.0200042
0.0208928
0.0217526
0.0219732
0.0223989
0.0224769
0.0226379
0.0225987
0.0223732
0.0221453
0.0216016
0.0211194
0.0200644
0.0190989
0.0174625
0.0156605
0.0138268
0.0115007
0.00977756
0.00774125
0.00624379
0.004935
0.00385864
0.00310599
0.00240541
0.0020365
0.00169855
0.00151371
0.0014979
0.00150059
0.00153126
0.00161491
0.00201217
0.00236883
0.00265394
0.00297033
0.00345483
0.00452844
0.00634727
0.00925491
0.0159879
0.0246449
0.038292
0.0577074
0.0765476
0.0940103
0.108029
0.114865
0.117113
0.116899
0.115421
0.112943
0.106681
0.101108
0.0906337
0.0784881
0.0652235
0.0477466
0.034068
0.0233962
0.0159838
0.0116671
0.00944353
0.00945472
0.0100366
0.012262
0.0194182
0.0377573
0.080479
0.169211
0.285114
0.370262
0.412727
0.419968
0.417365
0.411364
0.399467
0.387182
0.371497
0.339322
0.293223
0.240588
0.185022
0.137543
0.099316
0.0721492
0.0530425
0.0408537
0.0308055
0.0241807
0.0191134
0.0165153
0.0139287
0.012773
0.0115788
0.0107236
0.0102163
0.00953665
0.00913235
0.00861354
0.008579
0.00854282
0.00870887
0.0089736
0.00973789
0.0103615
0.0119079
0.0132558
0.016418
0.0192899
0.0250204
0.030567
0.0435318
0.05039
0.0676246
0.079082
0.0995605
0.10755
0.127974
0.137446
0.146786
0.148416
0.14714
0.143258
0.133463
0.124192
0.109321
0.0937836
0.0848825
0.0705483
0.0664796
0.054546
0.0538259
0.0489917
0.0567662
0.0532921
0.0634686
0.0589983
0.068289
0.0611179
0.0643263
0.0586956
0.059328
0.061268
0.0619992
0.0720486
0.0756962
0.0838447
0.00211289
0.00209255
0.00208691
0.0020837
0.00212415
0.00216511
0.00219713
0.00221588
0.00222162
0.00222066
0.00219353
0.00213486
0.00209278
0.0020581
0.00203405
0.00202297
0.00201658
0.00202868
0.00207074
0.00214176
0.00218086
0.00222052
0.00224023
0.00225407
0.0022551
0.00224612
0.00218156
0.0021015
0.00201665
0.00193713
0.00189973
0.00188486
0.00191571
0.00198238
0.00203515
0.00209855
0.00211738
0.00216798
0.00218134
0.00218615
0.00212883
0.00197787
0.00184359
0.00166004
0.00163225
0.00162029
0.00165648
0.00178898
0.00190541
0.0023532
0.0026148
0.00311601
0.00344946
0.00393577
0.00425106
0.00445197
0.00464426
0.00464236
0.00462311
0.0045411
0.00434732
0.00421826
0.00395544
0.00382971
0.00357829
0.00340485
0.00314698
0.00285658
0.00253312
0.00220093
0.00191674
0.00160948
0.00137021
0.00113206
0.000980294
0.000841426
0.000754977
0.000768319
0.00080855
0.000896975
0.00102739
0.00105547
0.0010629
0.00106577
0.00107267
0.0012084
0.00152602
0.00173417
0.00187561
0.0021423
0.00255578
0.00343766
0.00474596
0.00792584
0.0115427
0.0165164
0.0264131
0.0343245
0.0415129
0.0494678
0.0552754
0.0567249
0.0561806
0.0543102
0.0500979
0.0432845
0.0358416
0.0284783
0.0220001
0.0161855
0.0118937
0.00896526
0.00732298
0.0072758
0.00768247
0.00901347
0.0132329
0.0252647
0.0543435
0.119581
0.270024
0.411463
0.470102
0.477763
0.470735
0.451151
0.435188
0.42269
0.411401
0.404666
0.398219
0.389626
0.369581
0.329389
0.275764
0.218519
0.163011
0.119192
0.0862076
0.0646246
0.0502183
0.0395431
0.0322657
0.0253347
0.0211262
0.0171619
0.0155792
0.013244
0.0125069
0.0115943
0.0115894
0.0116512
0.0122166
0.0129286
0.0146574
0.0160053
0.0191397
0.0215128
0.0271987
0.0315737
0.0422384
0.049846
0.0686609
0.0798672
0.107205
0.121283
0.156841
0.172211
0.204626
0.216276
0.24236
0.251712
0.252381
0.248649
0.235645
0.224534
0.19908
0.183744
0.165125
0.149509
0.142402
0.115216
0.108068
0.0792776
0.0805728
0.0650153
0.0682212
0.0605565
0.0632286
0.0609431
0.0628504
0.0617572
0.0584797
0.0569314
0.0568573
0.0592779
0.061182
0.0794994
0.0814016
0.0861879
0.000175711
0.000174923
0.000178631
0.000179086
0.000176697
0.000174742
0.000179073
0.000192694
0.000205538
0.000213073
0.000213273
0.000210898
0.000206805
0.0002047
0.000204683
0.000206743
0.00020685
0.000205644
0.000202467
0.000201147
0.000202778
0.000213354
0.000224344
0.000233415
0.000237286
0.000237793
0.00023449
0.000225167
0.000216875
0.000206064
0.000197361
0.000190462
0.000187307
0.000188244
0.000193266
0.000208352
0.000216185
0.000227684
0.000234795
0.000241465
0.000244125
0.000242841
0.000238691
0.000218366
0.000209652
0.00019993
0.000199345
0.000203335
0.000213064
0.000248141
0.000281006
0.00035206
0.000427965
0.000508656
0.000611986
0.000660892
0.000688585
0.000685421
0.000670374
0.00062639
0.000555642
0.000525013
0.000482492
0.000458349
0.000449088
0.000431712
0.000432451
0.000425941
0.000423047
0.000421162
0.000411223
0.000415283
0.000410927
0.00041299
0.00042008
0.000440404
0.000480794
0.000591176
0.000669984
0.000827396
0.00103666
0.00111583
0.00113578
0.00110911
0.000987026
0.000944463
0.000947423
0.00103055
0.00110397
0.00120845
0.00130677
0.00150907
0.0018398
0.00239223
0.00386602
0.00499553
0.00731678
0.0104032
0.012741
0.0160692
0.0188153
0.019608
0.01944
0.0187339
0.0169191
0.0146243
0.0119871
0.00953663
0.00761917
0.00604884
0.00522361
0.00528462
0.00567098
0.00668353
0.00942117
0.0164559
0.0342707
0.0797965
0.175762
0.389301
0.505038
0.524851
0.515997
0.490824
0.430624
0.372701
0.344672
0.33442
0.338445
0.355586
0.378301
0.38723
0.387432
0.377853
0.345637
0.288764
0.234774
0.179888
0.135883
0.0997884
0.0796071
0.0624211
0.0527501
0.0431914
0.0366095
0.0299533
0.0259562
0.0222624
0.0204419
0.0202613
0.0206132
0.0215922
0.0238256
0.0264114
0.0310124
0.0350315
0.0441635
0.0517371
0.068622
0.0806833
0.108609
0.126656
0.167933
0.189249
0.242435
0.266266
0.322769
0.33845
0.382008
0.379727
0.382987
0.36625
0.354595
0.327219
0.306303
0.278548
0.265832
0.224618
0.22809
0.193198
0.245514
0.171567
0.194006
0.132376
0.154406
0.108262
0.095486
0.0692843
0.065697
0.0629741
0.058613
0.0590345
0.0579271
0.0567723
0.05421
0.0576462
0.0580412
0.0719152
0.0827626
0.0867963
8.92355e-05
9.02135e-05
9.47696e-05
0.0001002
0.000101564
0.000101361
0.000100181
9.75471e-05
9.72104e-05
9.90992e-05
0.000102439
0.000104287
0.000105578
0.000104836
0.000104168
0.000104176
0.000107781
0.000112341
0.000115722
0.000115806
0.000113843
0.00011061
0.000109248
0.000109176
0.000111219
0.000112278
0.00011261
0.000110784
0.000107781
0.00010557
0.000104838
0.00010454
0.00010551
0.000108422
0.000113784
0.000117689
0.000120115
0.000120898
0.000120501
0.000116517
0.000113521
0.000111704
0.000111437
0.000111567
0.000114118
0.000115416
0.000116189
0.000116127
0.000115986
0.000116308
0.000118228
0.000120442
0.000127531
0.000132051
0.000144635
0.000149238
0.000151421
0.000151458
0.000147001
0.000140505
0.000136573
0.000136141
0.00013697
0.000146123
0.000157779
0.00018183
0.00020341
0.000236393
0.000271068
0.000291544
0.000336103
0.000366957
0.000421514
0.0004975
0.000566653
0.000711175
0.000923917
0.00109876
0.00124677
0.00161276
0.00201495
0.00215097
0.00216233
0.00212032
0.00189171
0.00149371
0.00123972
0.00114141
0.0010999
0.00107092
0.00106599
0.00107471
0.00111037
0.00120099
0.00149299
0.00185221
0.00224472
0.00300884
0.0036607
0.00444189
0.00512423
0.00533355
0.00530725
0.00515035
0.00476182
0.0042656
0.00376726
0.00335656
0.00334703
0.00352097
0.00395475
0.00488991
0.00700249
0.0120978
0.0237063
0.0489329
0.109329
0.256829
0.480362
0.570742
0.571611
0.539519
0.444639
0.321033
0.267201
0.245665
0.239054
0.240108
0.245892
0.259038
0.302478
0.346493
0.371587
0.376065
0.373802
0.350406
0.295626
0.241558
0.191389
0.149077
0.11571
0.0914984
0.074478
0.0629946
0.0531863
0.0468449
0.0412097
0.0385824
0.0381065
0.038686
0.0410419
0.0446828
0.0490568
0.0612061
0.0700056
0.0882849
0.106795
0.137941
0.170233
0.204383
0.254641
0.300805
0.356772
0.393471
0.449265
0.464791
0.487795
0.48011
0.476478
0.448773
0.433522
0.383802
0.370307
0.316238
0.312996
0.268543
0.300232
0.252626
0.37275
0.282315
0.538844
0.337634
0.514824
0.310718
0.470617
0.297213
0.276719
0.147945
0.129476
0.0820132
0.0722761
0.0616492
0.0585688
0.054732
0.0538679
0.0574887
0.056702
0.0598064
0.0732339
0.0825112
9.29394e-05
9.29137e-05
9.46683e-05
9.57601e-05
9.82368e-05
0.000100666
0.000102955
0.000104311
0.000105631
0.000106745
0.000109796
0.000110825
0.000111344
0.000111101
0.000109992
0.00010621
0.000101649
9.89498e-05
9.77603e-05
0.000101101
0.000115436
0.0001355
0.000148998
0.000158159
0.000160724
0.000157781
0.000148955
0.000137494
0.000129093
0.000123149
0.00011928
0.000118685
0.000121881
0.000143155
0.000168494
0.0001883
0.000201976
0.000204562
0.000203831
0.000191464
0.000171665
0.000153131
0.000137423
0.000127054
0.000123598
0.000128685
0.000157738
0.000186228
0.000208427
0.000219543
0.000223241
0.000218589
0.000202488
0.000185977
0.000172736
0.000160048
0.000148263
0.000140672
0.000137603
0.000138044
0.000144006
0.000165125
0.000194731
0.000280746
0.000337911
0.000452512
0.000542548
0.00068028
0.000871441
0.000984562
0.00122432
0.00141845
0.00174985
0.00210928
0.00239452
0.00305191
0.0035028
0.00393122
0.00441621
0.00492067
0.00515975
0.00514928
0.00504909
0.00484114
0.00438375
0.00360326
0.00278859
0.00214352
0.00171623
0.00145327
0.00129248
0.00117998
0.00112859
0.00112248
0.00113682
0.00119287
0.0012588
0.00139198
0.00149075
0.00158162
0.00168474
0.00173496
0.00177491
0.00179387
0.00183354
0.00191363
0.00207217
0.00231068
0.0027843
0.00378524
0.00587686
0.0102731
0.0189234
0.0374668
0.0745337
0.152725
0.349764
0.555299
0.621036
0.612791
0.529032
0.345153
0.26905
0.243649
0.232651
0.229237
0.228988
0.23185
0.237604
0.247433
0.271576
0.309291
0.346163
0.367417
0.373953
0.370684
0.348345
0.299369
0.248463
0.205673
0.169253
0.14021
0.115147
0.0998697
0.0898176
0.0795473
0.0733667
0.0727087
0.0737095
0.0768301
0.0854212
0.0984068
0.112262
0.147663
0.173375
0.222853
0.26474
0.335093
0.370618
0.438329
0.472608
0.507485
0.516092
0.539399
0.536975
0.540744
0.529288
0.511007
0.461131
0.425387
0.333844
0.306291
0.236635
0.233399
0.204898
0.216512
0.204333
0.204806
0.272768
0.272331
0.231857
0.283617
0.217956
0.274201
0.224728
0.261625
0.253932
0.190263
0.155663
0.105906
0.08234
0.0689427
0.0669983
0.0591183
0.0554312
0.0556534
0.0561836
0.0576125
0.0638216
0.0727873
0.00024394
0.000246283
0.000248293
0.000248462
0.000247362
0.000250676
0.000260471
0.000280899
0.000317931
0.000359168
0.000392323
0.00040018
0.000398722
0.000379351
0.000356657
0.000334712
0.000318308
0.00031131
0.000314592
0.000379506
0.000487333
0.000610193
0.000697248
0.000754814
0.000773301
0.000760992
0.000703543
0.000619658
0.000555604
0.000512106
0.000491843
0.000499789
0.000604661
0.000799899
0.000995647
0.00113654
0.00122589
0.00124662
0.0012262
0.00112201
0.000968029
0.000832412
0.000711045
0.000632273
0.000603614
0.000626653
0.000799364
0.000984588
0.00115273
0.00126154
0.00131387
0.00132075
0.00122981
0.00107872
0.000911339
0.000767309
0.000657403
0.00059393
0.000590262
0.00059795
0.000650053
0.00084995
0.00105708
0.00161581
0.00195862
0.00248274
0.00309677
0.00351975
0.0044141
0.00492593
0.00584881
0.00672606
0.00769738
0.00904235
0.0102797
0.0116315
0.0126854
0.013951
0.0144265
0.0143425
0.0140414
0.0133149
0.0122036
0.0110688
0.00980502
0.00841692
0.00681676
0.00531096
0.004069
0.00317222
0.00254405
0.0020904
0.00178244
0.00157202
0.00143045
0.00135732
0.00134177
0.00134991
0.00135983
0.00138153
0.00141171
0.00144302
0.00150042
0.00157545
0.00172914
0.00204507
0.00272302
0.0039307
0.00626876
0.0110743
0.0190432
0.0358749
0.0617848
0.120087
0.218939
0.466601
0.621891
0.670577
0.636112
0.447353
0.299627
0.2599
0.244452
0.243068
0.245473
0.250368
0.253243
0.25405
0.255154
0.260056
0.275609
0.304438
0.333172
0.361482
0.374381
0.376845
0.372514
0.345367
0.302517
0.263563
0.228216
0.201365
0.179472
0.158793
0.142932
0.134318
0.133942
0.136905
0.144902
0.160399
0.189686
0.232956
0.281263
0.337737
0.400335
0.455455
0.494699
0.522205
0.534487
0.558817
0.559893
0.561634
0.556214
0.560586
0.54054
0.525144
0.443053
0.39994
0.283842
0.24263
0.180541
0.167525
0.131059
0.129184
0.111312
0.139969
0.129334
0.204722
0.145808
0.228921
0.156392
0.225529
0.170521
0.199253
0.163723
0.210534
0.192363
0.180515
0.127291
0.109717
0.0875926
0.0711435
0.0803388
0.0802171
0.0771503
0.0621924
0.0583887
0.0577748
0.0601983
0.0668483
0.00286545
0.00282059
0.00277577
0.00276041
0.0028542
0.00306142
0.0032708
0.00353656
0.00382822
0.00410555
0.0042133
0.00420385
0.00406778
0.00389653
0.00375135
0.00361493
0.00356482
0.00360207
0.00407463
0.00480988
0.00546192
0.00599556
0.00630406
0.00642751
0.00641747
0.00617252
0.00577983
0.00545609
0.00522508
0.00513879
0.00519049
0.00568195
0.00651617
0.00725111
0.00787839
0.00822932
0.00835505
0.00834092
0.0079882
0.00744262
0.00678174
0.00625372
0.00582198
0.0056101
0.00561037
0.00594361
0.00661639
0.00712464
0.0075389
0.0078215
0.00791642
0.00790427
0.0074486
0.00681527
0.0061294
0.00547684
0.00514977
0.00505985
0.0050904
0.00525356
0.00559678
0.00682912
0.00767951
0.00948204
0.0106992
0.0125176
0.0144505
0.015967
0.0186435
0.0203195
0.0235759
0.0258155
0.0291198
0.033007
0.0352693
0.0385368
0.0409912
0.0414037
0.041049
0.039861
0.0373885
0.033688
0.0296612
0.0256185
0.021884
0.0185526
0.0154342
0.0125444
0.00999502
0.00790718
0.00632885
0.00511501
0.00422979
0.0035818
0.00305406
0.0027169
0.00247073
0.00225869
0.00219918
0.00221194
0.00227506
0.00242012
0.00280687
0.00330006
0.00448539
0.00616205
0.00951109
0.0149128
0.0230502
0.0420973
0.0640698
0.116156
0.185923
0.35397
0.553431
0.673367
0.698161
0.613325
0.360742
0.266751
0.254285
0.254892
0.257462
0.261167
0.264076
0.272388
0.28335
0.284616
0.283237
0.283791
0.292699
0.313822
0.336377
0.363936
0.37834
0.389626
0.389886
0.383285
0.357862