/*--------------------------------*- C++ -*----------------------------------*\
| =========                 |                                                 |
| \\      /  F ield         | OpenFOAM: The Open Source CFD Toolbox           |
|  \\    /   O peration     | Version:  2.4.0                                 |
|   \\  /    A nd           | Web:      www.OpenFOAM.org                      |
|    \\/     M anipulation  |                                                 |
\*---------------------------------------------------------------------------*/
FoamFile
{
    version     2.0;
    format      ascii;
    class       volScalarField;
    location    "0.53";
    object      pMean;
}
// * * * * * * * * * * * * * * * * * * * * * * * * * * * * * * * * * * * * * //

dimensions      [0 2 -2 0 0 0 0];

internalField   nonuniform List<scalar> 
8800
(
92.9862
80.5172
73.0294
69.4159
67.4408
65.9522
64.6594
63.4553
62.3382
61.2528
60.2118
59.1737
58.173
57.1809
56.2371
55.3202
54.4561
53.6414
52.8564
52.028
89.8839
80.1636
73.1977
69.5292
67.5
65.9773
64.6668
63.4557
62.3362
61.2503
60.2092
59.1715
58.1707
57.1789
56.2354
55.3173
54.458
53.639
52.8613
52.0301
87.9242
80.2385
73.7969
69.9026
67.6663
66.0555
64.7127
63.4876
62.3598
61.2672
60.2191
59.1762
58.1719
57.1767
56.2329
55.3091
54.4571
53.6287
52.9253
52.0864
86.3926
80.2981
74.3814
70.3237
67.8491
66.1417
64.7746
63.5431
62.4079
61.3053
60.2461
59.1938
58.1819
57.1804
56.232
55.3009
54.445
53.6161
52.9778
52.309
85.147
80.2697
74.8564
70.7281
68.0172
66.2079
64.8225
63.5995
62.4632
61.3562
60.2816
59.2213
58.1948
57.1899
56.2279
55.2968
54.4187
53.5982
52.9041
52.6478
84.1652
80.1726
75.2225
71.0743
68.169
66.252
64.8503
63.6443
62.5133
61.4056
60.318
59.2493
58.2078
57.198
56.2231
55.2898
54.395
53.5839
52.9207
53.1019
83.4106
80.0591
75.4902
71.3546
68.3073
66.2806
64.8597
63.6769
62.554
61.4469
60.3503
59.2727
58.2197
57.2023
56.2195
55.28
54.3833
53.5854
53.011
53.4171
82.8617
79.9587
75.6733
71.5662
68.4311
66.2995
64.8577
63.6986
62.5849
61.4788
60.3756
59.2904
58.2284
57.2044
56.2168
55.2751
54.3823
53.6037
53.0998
53.641
82.5058
79.8835
75.7879
71.7091
68.5181
66.3109
64.8531
63.7109
62.6062
61.5009
60.3934
59.3021
58.2346
57.2061
56.2168
55.2756
54.3901
53.6275
53.1767
53.8018
82.3316
79.8425
75.8437
71.781
68.5624
66.3166
64.8502
63.7164
62.6175
61.5127
60.4031
59.3083
58.2388
57.2089
56.2205
55.2816
54.4033
53.6527
53.2373
53.911
82.3313
79.8429
75.8438
71.7811
68.5624
66.3167
64.8503
63.7166
62.6178
61.5134
60.4041
59.3099
58.2414
57.2131
56.2273
55.2923
54.4195
53.6783
53.2781
53.975
82.5052
79.8844
75.788
71.7094
68.5184
66.3113
64.8534
63.7116
62.6074
61.5031
60.3965
59.3069
58.2423
57.2188
56.2373
55.3075
54.439
53.7034
53.2985
53.9945
82.8608
79.96
75.6733
71.5668
68.4318
66.3001
64.8582
63.6997
62.587
61.4825
60.3808
59.2983
58.2411
57.2252
56.2503
55.3276
54.4637
53.7297
53.2986
53.9601
83.4089
80.0612
75.4897
71.3553
68.3078
66.2819
64.8599
63.6788
62.5568
61.4521
60.3574
59.2841
58.237
57.2315
56.2651
55.3528
54.495
53.7628
53.2842
53.8528
84.1634
80.1748
75.2222
71.0749
68.1695
66.2532
64.8514
63.6465
62.517
61.4118
60.3274
59.2634
58.2304
57.2343
56.2807
55.3798
54.5353
53.8056
53.2822
53.6636
85.1445
80.2726
74.8565
70.7286
68.0175
66.2091
64.8243
63.6021
62.4679
61.3632
60.2932
59.2382
58.2222
57.2333
56.2961
55.4045
54.5828
53.8581
53.3109
53.4109
86.3894
80.3014
74.3819
70.3249
67.849
66.1432
64.7765
63.5465
62.4129
61.3137
60.2591
59.2136
58.2137
57.2299
56.3096
55.4235
54.6294
53.9081
53.3692
53.1448
87.9212
80.2412
73.7981
69.9037
67.6665
66.0569
64.7151
63.4912
62.3659
61.2757
60.2342
59.197
58.2081
57.2289
56.3197
55.4379
54.6629
53.9466
53.4273
53.0043
89.881
80.1658
73.1992
69.5304
67.5003
65.9788
64.6693
63.4595
62.3426
61.2593
60.2248
59.193
58.2085
57.2325
56.3265
55.4486
54.679
53.969
53.4261
52.9259
92.9837
80.5191
73.0309
69.4171
67.4412
65.9535
64.662
63.4593
62.3445
61.2621
60.2275
59.1956
58.2111
57.235
56.3298
55.4523
54.6828
53.9753
53.4285
53.0446
51.7803
51.4732
50.9319
50.3937
49.9511
49.6075
49.3523
49.1628
49.0128
48.8989
48.8109
48.7366
48.6667
48.6001
48.526
48.441
48.3369
48.205
48.048
47.8677
47.6789
47.5069
47.3626
47.2516
47.174
47.1274
47.0989
47.0695
47.0201
46.936
46.8185
46.6808
46.5439
46.4304
46.3486
46.298
46.2682
46.2425
46.2125
46.1822
46.1585
46.1493
46.1696
46.2289
46.3313
46.4711
46.6401
46.8278
47.0207
47.2013
47.3511
47.4579
47.5166
47.5324
47.5145
47.4778
47.4413
47.4209
47.4201
47.4354
47.4553
47.4693
47.4659
47.4434
47.4014
47.3532
47.3135
47.3049
47.329
47.3781
47.446
47.5301
47.6262
47.7337
47.8453
47.9568
48.0591
48.1476
48.2179
48.269
48.3073
48.3438
48.3868
48.4413
48.5103
48.593
48.6837
48.7833
48.8842
48.9896
49.1008
49.2308
49.383
49.5579
49.7546
49.9708
50.2044
50.4496
50.705
50.9671
51.2281
51.4865
51.725
51.9355
52.1285
52.3081
52.4779
52.6392
52.7925
52.9349
53.0679
53.1863
53.2872
53.368
53.4258
53.4688
53.4989
53.5211
53.5355
53.5397
53.5349
53.5189
53.4922
53.4574
53.4165
53.3754
53.3406
53.3149
53.3094
53.3257
53.3675
53.4316
53.52
53.63
53.7663
53.9243
54.1036
54.2989
54.5019
54.7142
54.9273
55.1481
55.3725
55.6082
55.8527
56.1085
56.3809
56.6694
56.9674
57.2786
57.5817
57.8775
58.1688
58.4437
58.7011
58.9413
59.1778
59.3812
59.5788
59.7462
59.9055
60.0183
60.1242
60.1859
60.2304
60.2301
60.2167
60.159
60.1063
60.003
59.9431
59.8321
59.7897
59.6864
59.69
59.6163
59.6986
59.6687
59.8427
59.8816
60.1205
60.239
60.5054
60.6844
60.9644
61.1577
61.4328
61.5889
61.8222
61.8815
61.9984
61.8821
61.7354
61.2223
60.5217
59.1624
57.1797
53.2034
48.2484
26.4231
51.6244
51.4156
51.0634
50.5909
50.1282
49.7582
49.4974
49.3253
49.207
49.1182
49.0443
48.9758
48.9079
48.8392
48.7643
48.6776
48.5736
48.4491
48.3051
48.1445
47.9766
47.8202
47.6867
47.581
47.5033
47.4487
47.4078
47.3678
47.316
47.2417
47.1424
47.0259
46.9065
46.8007
46.7173
46.6574
46.6154
46.5831
46.5532
46.5253
46.5041
46.4979
46.5167
46.5687
46.6565
46.7773
46.9242
47.087
47.253
47.4077
47.5372
47.6316
47.6858
47.7033
47.6908
47.6603
47.6238
47.5944
47.5766
47.5711
47.5698
47.5655
47.5489
47.5177
47.4713
47.4195
47.3707
47.342
47.3389
47.3613
47.4039
47.4634
47.5377
47.6244
47.7152
47.8069
47.8867
47.9521
47.9966
48.0229
48.0363
48.0475
48.0645
48.0935
48.138
48.1969
48.268
48.3482
48.4322
48.5212
48.6233
48.7478
48.8983
49.0729
49.2737
49.4976
49.7422
50.0004
50.273
50.5539
50.8367
51.1167
51.372
51.5977
51.8083
52.0053
52.1914
52.3684
52.5364
52.6896
52.8321
52.9549
53.0565
53.1285
53.1756
53.2037
53.2195
53.2263
53.2249
53.2124
53.1912
53.1568
53.1137
53.0616
53.0078
52.9556
52.9119
52.8777
52.8653
52.8715
52.9048
52.9596
53.0418
53.1459
53.2813
53.4368
53.6216
53.822
54.0356
54.2553
54.483
54.7133
54.9539
55.1985
55.4579
55.7188
56.0061
56.3002
56.6121
56.9269
57.2351
57.5335
57.8333
58.0997
58.3624
58.598
58.8422
59.0328
59.238
59.3971
59.5574
59.6643
59.7738
59.8199
59.8646
59.8388
59.8231
59.7331
59.675
59.5326
59.463
59.3019
59.2441
59.0798
59.0614
58.9208
58.9735
58.8857
59.0154
59.0198
59.2015
59.2866
59.5101
59.6372
59.8938
60.0133
60.2673
60.334
60.5213
60.4631
60.4707
60.1621
59.8234
58.9713
57.9212
55.755
53.42
46.8367
40.6118
20.3185
51.6405
51.5059
51.2966
50.8841
50.3727
49.925
49.6181
49.4449
49.357
49.305
49.2581
49.2036
49.1396
49.0677
48.9879
48.8973
48.7938
48.6756
48.5429
48.3994
48.2519
48.1124
47.9908
47.8915
47.815
47.7573
47.7112
47.6679
47.6182
47.5542
47.4729
47.3776
47.2774
47.1835
47.1038
47.0404
46.9912
46.9531
46.9227
46.8989
46.8834
46.8821
46.9013
46.9482
47.0239
47.127
47.2507
47.387
47.5244
47.652
47.7583
47.8357
47.8799
47.8927
47.8791
47.8476
47.8069
47.7674
47.7335
47.7073
47.685
47.6619
47.632
47.5925
47.543
47.4892
47.4381
47.3989
47.378
47.3787
47.4008
47.4407
47.4971
47.5662
47.6417
47.7152
47.7752
47.8186
47.8389
47.8419
47.8326
47.8214
47.8149
47.8212
47.8425
47.8778
47.9275
47.9859
48.0479
48.1161
48.2023
48.3155
48.458
48.6289
48.8318
49.0644
49.3205
49.5938
49.8852
50.1854
50.4904
50.7922
51.0693
51.316
51.5528
51.7742
51.9833
52.1799
52.3671
52.5379
52.6943
52.8253
52.9265
52.9882
53.0232
53.0367
53.0399
53.0314
53.0148
52.9864
52.9506
52.8977
52.8395
52.7717
52.7105
52.6498
52.6009
52.5604
52.5437
52.541
52.571
52.6185
52.7013
52.8055
52.9473
53.1052
53.2983
53.5013
53.7237
53.9486
54.188
54.4305
54.6878
54.9466
55.2189
55.4923
55.7942
56.1007
56.4236
56.7347
57.0422
57.3402
57.6402
57.9001
58.1678
58.4014
58.6384
58.8226
59.0295
59.1875
59.3414
59.4494
59.5562
59.5855
59.6251
59.5713
59.5512
59.43
59.3677
59.1959
59.1186
58.9077
58.8401
58.6127
58.5817
58.3789
58.3908
58.2611
58.3301
58.2914
58.4206
58.4406
58.6345
58.6844
58.9106
58.9455
59.152
59.121
59.2343
59.0502
58.9507
58.395
57.9347
56.5292
55.5398
52.0596
49.9386
41.7829
34.4018
20.4917
51.8341
51.6774
51.3978
50.9071
50.3584
49.9158
49.6422
49.5209
49.4924
49.4953
49.4903
49.4611
49.407
49.3336
49.2462
49.1484
49.0416
48.9266
48.8041
48.6761
48.5474
48.4251
48.317
48.2267
48.1546
48.0978
48.0512
48.0085
47.963
47.909
47.8437
47.7675
47.6854
47.6039
47.5296
47.4659
47.4143
47.3738
47.3439
47.3238
47.3144
47.3177
47.3376
47.3775
47.4388
47.52
47.6164
47.7213
47.826
47.9221
48.0015
48.0585
48.0896
48.0948
48.0772
48.0427
47.9979
47.9499
47.9039
47.8617
47.8229
47.7847
47.7437
47.6982
47.6471
47.5943
47.5435
47.5002
47.4691
47.4549
47.4609
47.4848
47.5265
47.581
47.6415
47.6963
47.7373
47.7596
47.7593
47.742
47.7125
47.6808
47.6519
47.6356
47.6324
47.643
47.6665
47.6953
47.7268
47.7674
47.8337
47.9325
48.0672
48.2356
48.4444
48.6851
48.9561
49.2446
49.559
49.8796
50.21
50.5323
50.8357
51.1045
51.3699
51.6167
51.8535
52.0731
52.2843
52.4739
52.6464
52.7811
52.8779
52.9273
52.9519
52.952
52.9465
52.9252
52.9
52.8578
52.8091
52.7371
52.6677
52.5858
52.5221
52.4546
52.4037
52.3585
52.3418
52.3359
52.3691
52.4178
52.5065
52.6174
52.7693
52.9361
53.1392
53.3463
53.5771
53.8063
54.0579
54.3085
54.5836
54.8557
55.1445
55.4333
55.7564
56.0698
56.4054
56.7023
57.0187
57.3035
57.6053
57.8528
58.1301
58.3548
58.5843
58.7632
58.9733
59.1147
59.2701
59.3586
59.4716
59.4655
59.5151
59.4184
59.4178
59.2528
59.2025
58.9843
58.9157
58.6528
58.5803
58.3074
58.2419
58.0092
57.9578
57.8001
57.8087
57.7135
57.794
57.7512
57.8869
57.8708
58.0264
57.9763
58.1278
57.9407
58.0775
57.5939
57.6421
56.5157
56.3521
53.9822
53.24
48.7333
46.0902
38.4584
30.3729
21.1617
53.2865
52.8414
51.6508
50.6392
49.9615
49.6071
49.4939
49.5207
49.6029
49.6837
49.7321
49.7363
49.6983
49.6279
49.5358
49.4312
49.3201
49.2061
49.0909
48.9764
48.8652
48.7612
48.6687
48.5903
48.5259
48.4738
48.43
48.3901
48.3494
48.3041
48.251
48.1901
48.1233
48.0549
47.9894
47.9308
47.8808
47.8405
47.8106
47.7913
47.7825
47.7847
47.799
47.8268
47.8686
47.9234
47.9881
48.0586
48.1295
48.1947
48.2484
48.2856
48.3029
48.3001
48.278
48.2411
48.1938
48.1416
48.0885
48.0366
47.9867
47.9378
47.8887
47.8387
47.7875
47.7363
47.688
47.646
47.613
47.5934
47.5907
47.6066
47.6385
47.6809
47.7248
47.7603
47.7817
47.7844
47.7667
47.7327
47.6862
47.6345
47.5838
47.5417
47.51
47.4888
47.4776
47.4695
47.465
47.4749
47.5194
47.6023
47.7311
47.9007
48.1197
48.3721
48.6593
48.9699
49.3071
49.6514
50.0097
50.3543
50.6851
50.9792
51.2752
51.548
51.8118
52.0561
52.2877
52.4913
52.6708
52.8
52.8882
52.9249
52.9412
52.9343
52.925
52.8968
52.8671
52.8132
52.7562
52.6737
52.6018
52.5155
52.4519
52.3811
52.3328
52.2868
52.2749
52.2707
52.3119
52.3656
52.4655
52.5841
52.7503
52.9258
53.1451
53.3557
53.6016
53.8307
54.0982
54.3484
54.6458
54.924
55.24
55.5405
55.8938
56.2043
56.5564
56.8329
57.1673
57.425
57.7384
57.9648
58.2541
58.4519
58.6913
58.8495
59.0717
59.1771
59.3492
59.3968
59.5231
59.4691
59.5358
59.3939
59.4203
59.2086
59.1767
58.9131
58.8481
58.5486
58.4635
58.1694
58.0723
57.8015
57.7221
57.4973
57.4794
57.3052
57.3573
57.2184
57.3324
57.1662
57.3471
57.049
57.3064
56.7414
57.0894
56.0815
56.353
54.6561
54.4708
51.6819
50.3708
46.0412
42.3966
36.4502
28.6575
21.9669
54.2914
53.7203
51.9745
50.5468
49.6742
49.3224
49.3242
49.4922
49.6961
49.8676
49.9788
50.0234
50.0076
49.9449
49.8513
49.7407
49.6238
49.5075
49.3959
49.2909
49.1938
49.1062
49.0295
48.9642
48.91
48.8647
48.8258
48.7899
48.7537
48.7147
48.6707
48.6211
48.5667
48.5101
48.4542
48.4019
48.3552
48.3157
48.2847
48.2628
48.2497
48.2453
48.249
48.2615
48.2824
48.3113
48.3465
48.3853
48.4247
48.4606
48.4892
48.5065
48.5096
48.4975
48.471
48.4322
48.3843
48.3307
48.2741
48.2166
48.1597
48.1048
48.0517
48.0005
47.9515
47.9045
47.8617
47.8252
47.797
47.78
47.7793
47.7964
47.8251
47.858
47.8871
47.906
47.9099
47.8961
47.8642
47.8164
47.7535
47.6815
47.6059
47.5332
47.4674
47.4112
47.364
47.3197
47.2795
47.2544
47.2773
47.3467
47.4697
47.6439
47.876
48.1441
48.4468
48.7813
49.1418
49.5117
49.896
50.2688
50.6267
50.9495
51.2733
51.5683
51.8566
52.1199
52.3652
52.5737
52.7519
52.8698
52.9456
52.9675
52.9783
52.9672
52.9573
52.9246
52.8923
52.8339
52.7794
52.702
52.6403
52.5596
52.503
52.432
52.3899
52.3464
52.3457
52.3467
52.3994
52.4567
52.5716
52.698
52.8825
53.069
53.3077
53.5249
53.788
54.0196
54.2989
54.5536
54.8739
55.154
55.5041
55.8168
56.2021
56.5122
56.8733
57.1352
57.4733
57.7039
58.0252
58.2187
58.5249
58.6818
58.9408
59.0623
59.3043
59.3566
59.5666
59.5513
59.7047
59.588
59.6847
59.4908
59.5522
59.2719
59.2758
58.9586
58.9231
58.5729
58.5123
58.1557
58.1024
57.723
57.681
57.3393
57.3462
57.0366
57.1128
56.7998
56.947
56.5648
56.7773
56.2493
56.5035
55.7399
55.9757
54.8337
54.7481
53.0464
52.231
49.637
47.7049
44.0354
40.0334
35.6674
28.8937
23.3197
54.9192
54.3514
52.3521
50.6599
49.6065
49.1822
49.217
49.4742
49.7765
50.0324
50.2089
50.2997
50.3116
50.2604
50.1665
50.0494
49.9251
49.8042
49.6929
49.5937
49.5072
49.4332
49.3709
49.3192
49.2764
49.2403
49.2084
49.1783
49.1476
49.1141
49.0764
49.0342
48.988
48.9395
48.8906
48.8436
48.8003
48.7619
48.7294
48.7033
48.6836
48.6699
48.6616
48.6584
48.6599
48.6658
48.6755
48.6875
48.7
48.7101
48.7156
48.7138
48.7027
48.6815
48.6504
48.6102
48.5627
48.5096
48.4531
48.3948
48.3369
48.2809
48.2276
48.1778
48.1321
48.0902
48.0535
48.0242
48.0053
47.9997
48.0098
48.034
48.0668
48.0951
48.114
48.1193
48.1108
48.0871
48.0451
47.9838
47.9052
47.8138
47.7128
47.607
47.5074
47.4187
47.3393
47.2591
47.1837
47.1241
47.1223
47.1807
47.3041
47.4886
47.7364
48.0215
48.3438
48.7014
49.0819
49.4794
49.8877
50.2867
50.669
51.024
51.3635
51.6728
51.9776
52.2511
52.5024
52.7089
52.8828
52.991
53.0538
53.0617
53.065
53.0452
53.0341
53.0025
52.9705
52.9215
52.8797
52.8225
52.7809
52.7167
52.6731
52.609
52.5749
52.541
52.5528
52.5648
52.6295
52.6956
52.8225
52.9616
53.1609
53.3647
53.6231
53.8579
54.1367
54.3801
54.6701
54.9401
55.276
55.5687
55.9449
56.2806
56.6892
57.0023
57.359
57.6105
57.9401
58.1569
58.466
58.622
58.9278
59.0508
59.3035
59.4052
59.6508
59.6605
59.9015
59.8382
59.9884
59.8348
59.9296
59.7221
59.7808
59.4798
59.474
59.1546
59.1154
58.7522
58.6928
58.3067
58.2492
57.8264
57.7462
57.3609
57.3029
56.9251
56.9059
56.5067
56.5225
56.0706
56.0899
55.5307
55.5404
54.825
54.7153
53.7075
53.233
51.589
50.5445
48.0319
46.0129
43.0772
39.2656
35.9264
30.3159
25.2838
55.3005
54.7752
52.6936
50.8635
49.6899
49.1747
49.1874
49.4838
49.8527
50.176
50.4092
50.5439
50.5846
50.5475
50.4562
50.3356
50.206
50.0814
49.9697
49.8745
49.7962
49.7333
49.6837
49.6446
49.6134
49.5874
49.5639
49.5406
49.5155
49.4873
49.455
49.4185
49.3783
49.3355
49.2917
49.2484
49.207
49.1683
49.1331
49.1016
49.0739
49.0501
49.0295
49.0118
48.9967
48.9838
48.9729
48.963
48.9531
48.9417
48.9278
48.9101
48.8874
48.8592
48.8249
48.785
48.7398
48.6905
48.6379
48.5835
48.5285
48.474
48.4221
48.3746
48.3324
48.2971
48.2696
48.2521
48.2465
48.2562
48.2793
48.314
48.3517
48.3795
48.3922
48.3898
48.3733
48.3452
48.299
48.2284
48.1356
48.0241
47.8959
47.7572
47.6268
47.5051
47.3994
47.2876
47.1805
47.0942
47.0725
47.1248
47.2533
47.4525
47.7118
48.0118
48.352
48.7274
49.131
49.5536
49.9903
50.4198
50.8234
51.1996
51.5442
51.8673
52.1766
52.4482
52.6936
52.8901
53.0558
53.1605
53.2142
53.2113
53.2025
53.1791
53.1678
53.1439
53.1235
53.0951
53.0767
53.0505
53.0351
52.9972
52.971
52.9225
52.9018
52.8863
52.9128
52.9397
53.0172
53.0921
53.2287
53.3857
53.6039
53.8251
54.1039
54.3588
54.6573
54.92
55.2214
55.5089
55.8582
56.1664
56.5698
56.9239
57.3543
57.6614
58.0184
58.2456
58.5678
58.7816
59.0742
59.202
59.489
59.5709
59.8089
59.8823
60.1325
60.1067
60.3461
60.2634
60.3938
60.2359
60.3171
60.117
60.1416
59.8524
59.8189
59.5145
59.438
59.0823
59.0015
58.6252
58.5417
58.1075
57.9687
57.5621
57.4103
56.9849
56.8285
56.3751
56.209
55.7059
55.5273
54.9384
54.7435
54.0875
53.8004
52.8648
52.2982
50.6079
49.5783
47.234
45.2268
42.9452
39.5078
36.6779
32.0491
27.4202
55.5392
55.0538
52.963
51.0711
49.8291
49.2467
49.2257
49.5343
49.9442
50.3157
50.5924
50.763
50.8297
50.8073
50.7211
50.6
50.468
50.3417
50.2307
50.139
50.067
50.0129
49.9733
49.945
49.924
49.9074
49.8921
49.8757
49.8564
49.8332
49.8057
49.7737
49.7379
49.6993
49.659
49.6179
49.5767
49.5363
49.497
49.4596
49.4239
49.39
49.3578
49.3271
49.2978
49.2692
49.2411
49.213
49.185
49.1569
49.1285
49.0992
49.0685
49.0363
49.0015
48.9644
48.9241
48.8806
48.8343
48.7859
48.7369
48.688
48.6414
48.5998
48.5656
48.5413
48.5276
48.5254
48.5355
48.56
48.5971
48.641
48.6815
48.7091
48.7177
48.7094
48.6906
48.6625
48.6142
48.5386
48.4374
48.3096
48.1568
47.9863
47.8204
47.6663
47.5334
47.3911
47.2688
47.1641
47.136
47.1903
47.332
47.5428
47.8103
48.1135
48.4676
48.8591
49.2889
49.7355
50.2024
50.6675
51.0974
51.4863
51.8361
52.1665
52.4685
52.7271
52.9529
53.1334
53.2928
53.3891
53.4408
53.4354
53.4215
53.3983
53.3951
53.3827
53.3814
53.3763
53.3913
53.4024
53.4209
53.4184
53.4133
53.3865
53.3891
53.3925
53.4355
53.4761
53.5679
53.6522
53.8052
53.9822
54.217
54.4545
54.7598
55.0235
55.3507
55.6285
55.9505
56.2637
56.6228
56.9476
57.3694
57.7402
58.1864
58.4739
58.8505
59.0442
59.3586
59.5613
59.8327
59.9339
60.2159
60.2343
60.4866
60.503
60.7796
60.7009
60.9396
60.8015
60.9384
60.7555
60.855
60.6696
60.6548
60.3473
60.3113
60.0195
59.9126
59.574
59.453
59.1127
58.9917
58.5606
58.3674
57.9583
57.7159
57.2777
56.9883
56.5094
56.1807
55.6428
55.3008
54.7546
54.4144
53.9188
53.5695
52.6646
52.0601
50.3066
49.2053
47.1176
45.0872
43.286
40.3134
37.6679
33.7373
29.512
55.6892
55.2316
53.1552
51.2476
49.9804
49.3688
49.3308
49.6452
50.078
50.4773
50.7795
50.971
51.0533
51.0401
50.9579
50.8378
50.7064
50.5816
50.4736
50.3865
50.3207
50.2742
50.2433
50.224
50.212
50.2034
50.1953
50.1852
50.1714
50.153
50.1297
50.1015
50.0691
50.0332
49.9948
49.9542
49.9122
49.8693
49.8258
49.7823
49.7388
49.6957
49.653
49.6106
49.5685
49.5267
49.4855
49.4446
49.404
49.3643
49.3256
49.2887
49.2537
49.2206
49.1888
49.1572
49.1242
49.0885
49.0501
49.0104
48.9699
48.9296
48.8918
48.8608
48.8386
48.8278
48.831
48.8468
48.8747
48.9168
48.9685
49.0186
49.0584
49.0847
49.0924
49.0805
49.0592
49.0322
48.987
48.9131
48.8083
48.6664
48.4943
48.2994
48.1025
47.9114
47.7511
47.582
47.4526
47.3387
47.3165
47.3752
47.5394
47.762
48.0383
48.3417
48.7118
49.1176
49.5651
50.0296
50.5309
51.0314
51.4915
51.8908
52.2418
52.5642
52.8487
53.0856
53.2902
53.4555
53.6106
53.7039
53.7584
53.7553
53.7449
53.73
53.7362
53.7441
53.7672
53.7932
53.847
53.8993
53.9616
53.9982
54.0207
54.024
54.0515
54.0677
54.1264
54.1784
54.2825
54.3728
54.5458
54.7338
54.9896
55.238
55.5731
55.842
56.2141
56.5047
56.8597
57.1889
57.5782
57.9135
58.3611
58.7291
59.2015
59.4462
59.8397
59.986
60.3093
60.4811
60.7639
60.8078
61.0966
61.0254
61.3317
61.2688
61.5984
61.4119
61.7141
61.4666
61.6851
61.4157
61.5663
61.3576
61.3565
60.9879
60.9997
60.6613
60.5827
60.2584
60.1494
59.8033
59.6668
59.2199
59.0308
58.596
58.3177
57.8588
57.5091
56.9751
56.5624
55.984
55.5481
55.0488
54.6605
54.2481
53.8838
52.9398
52.1903
50.4353
49.1395
47.3736
45.462
43.909
41.3163
38.7243
35.2588
31.4466
55.7749
55.3315
53.2741
51.383
50.1284
49.526
49.4954
49.8175
50.2583
50.6644
50.9719
51.1673
51.2524
51.2416
51.1622
51.0462
50.9202
50.8021
50.7013
50.6217
50.5637
50.525
50.5022
50.4905
50.4856
50.4834
50.4808
50.4754
50.4658
50.4512
50.4313
50.4061
50.3763
50.3423
50.3047
50.2639
50.2205
50.1747
50.1272
50.078
50.0278
49.9767
49.9251
49.8731
49.8213
49.7696
49.7185
49.6681
49.6194
49.5732
49.5294
49.4891
49.4524
49.4201
49.3923
49.3677
49.3437
49.3185
49.2921
49.2648
49.2365
49.2088
49.1857
49.1701
49.162
49.166
49.1877
49.2236
49.2692
49.3257
49.3869
49.4395
49.4781
49.5032
49.5092
49.4976
49.4789
49.4552
49.4159
49.3499
49.2474
49.0986
48.9122
48.6942
48.4729
48.2504
48.0666
47.8789
47.7494
47.6329
47.6351
47.6987
47.89
48.1223
48.4106
48.7106
49.1028
49.5191
49.9841
50.4579
50.9955
51.5234
52.0089
52.4098
52.7537
53.0517
53.3126
53.5244
53.716
53.8752
54.0278
54.1172
54.1845
54.186
54.195
54.1863
54.2194
54.2405
54.301
54.3604
54.4643
54.5561
54.6698
54.741
54.8124
54.8411
54.9034
54.9281
55.0004
55.0473
55.1667
55.2514
55.4436
55.6257
55.9068
56.16
56.5276
56.8034
57.2249
57.5285
57.9373
58.2818
58.7169
59.0378
59.5369
59.8556
60.3812
60.5449
60.9935
61.0429
61.4214
61.521
61.8558
61.7903
62.1236
61.9699
62.3592
62.1974
62.5894
62.2572
62.6346
62.2763
62.6122
62.2691
62.4982
62.206
62.2743
61.8128
61.9191
61.5302
61.5336
61.1055
61.0691
60.7309
60.6065
60.1086
59.9733
59.5101
59.239
58.7409
58.3765
57.7671
57.3149
56.7315
56.2597
55.7948
55.3742
54.969
54.4848
53.454
52.4154
50.77
49.3707
47.9001
46.2426
44.7063
42.3217
39.7728
36.6334
33.1999
55.7978
55.3559
53.3212
51.4763
50.2712
49.7168
49.7205
50.0551
50.4902
50.8826
51.1754
51.3584
51.4341
51.419
51.3416
51.2326
51.1165
51.0094
50.9197
50.8504
50.8016
50.771
50.7549
50.7489
50.7486
50.7504
50.7511
50.7489
50.7423
50.7306
50.7134
50.6906
50.6627
50.6299
50.5926
50.5512
50.5062
50.4583
50.4076
50.3547
50.2995
50.2423
50.1839
50.1246
50.0652
50.0064
49.9489
49.8937
49.8417
49.7932
49.7479
49.7072
49.6722
49.6437
49.6207
49.6028
49.5886
49.5765
49.5652
49.5536
49.5412
49.5307
49.5268
49.5305
49.5412
49.5637
49.6052
49.6586
49.7163
49.7797
49.8446
49.8981
49.9342
49.9521
49.9502
49.9374
49.9239
49.9107
49.8861
49.8355
49.7433
49.6002
49.4098
49.1779
48.9351
48.688
48.4828
48.2872
48.1629
48.0624
48.1016
48.1706
48.3893
48.6223
48.9204
49.2071
49.623
50.0446
50.5282
51.0052
51.5829
52.1294
52.6439
53.0409
53.3734
53.6236
53.8686
54.0477
54.241
54.3938
54.5502
54.6371
54.7248
54.7314
54.7771
54.7758
54.8513
54.8835
55.0009
55.0869
55.2507
55.3782
55.5558
55.6569
55.778
55.8319
55.9344
55.9657
56.0548
56.0991
56.2203
56.2998
56.5075
56.6835
56.9817
57.2501
57.6274
57.9372
58.3951
58.7145
59.1752
59.5289
60.0064
60.3263
60.8483
61.1076
61.6492
61.7559
62.1954
62.1989
62.6727
62.627
63.0193
62.8056
63.1932
62.9918
63.4556
63.2511
63.6484
63.2536
63.7086
63.2872
63.6727
63.3048
63.5499
63.2269
63.2976
62.8228
62.9629
62.614
62.6464
62.2272
62.2276
61.8435
61.7544
61.2329
61.1532
60.6441
60.3877
59.8633
59.4738
58.8364
58.3531
57.8098
57.2837
56.8449
56.3336
55.8712
55.1005
54.0377
52.7647
51.2893
49.9781
48.6336
47.1805
45.5515
43.2715
40.795
37.9065
34.7878
55.7374
55.2883
53.298
51.5394
50.4245
49.9574
50.0167
50.3605
50.772
51.1288
51.3868
51.54
51.5941
51.5696
51.4942
51.3953
51.2935
51.2019
51.1269
51.0706
51.0326
51.0104
51.0004
50.9987
51.0015
51.0055
51.0082
51.0078
51.0032
50.9935
50.9782
50.9571
50.9306
50.8986
50.8617
50.8204
50.7751
50.7263
50.674
50.6185
50.5597
50.4982
50.4349
50.3709
50.3075
50.2457
50.187
50.1318
50.0798
50.0317
49.9885
49.9507
49.92
49.8977
49.8831
49.8745
49.8709
49.8715
49.8765
49.8841
49.8909
49.8991
49.9153
49.9394
49.9717
50.0174
50.0787
50.146
50.214
50.2835
50.3484
50.396
50.4229
50.429
50.4187
50.4059
50.3973
50.3932
50.3858
50.3548
50.2805
50.1533
49.9713
49.7365
49.4802
49.2256
49.0105
48.8173
48.6956
48.6239
48.6971
48.7847
49.0238
49.2475
49.54
49.8216
50.2684
50.686
51.1816
51.6623
52.2877
52.8457
53.3973
53.785
54.1075
54.3094
54.5347
54.6806
54.8865
55.028
55.1999
55.2853
55.3946
55.4131
55.5004
55.5115
55.6342
55.6905
55.8739
55.9906
56.2233
56.3804
56.6171
56.7412
56.9203
56.9923
57.139
57.1768
57.2887
57.3174
57.4415
57.5098
57.7283
57.9076
58.2325
58.5189
58.9108
59.2624
59.7204
60.0725
60.557
60.914
61.405
61.7262
62.2424
62.4713
62.9506
63.0706
63.4646
63.4301
63.9217
63.8089
64.1557
63.9327
64.3624
64.1336
64.5818
64.4282
64.7171
64.3381
64.8124
64.4411
64.8495
64.5224
64.7202
64.4447
64.4471
63.9883
64.1391
63.7742
63.8466
63.3947
63.4339
63.1364
63.0797
62.5706
62.4646
61.9429
61.678
61.1308
60.7016
60.0799
59.5796
59.0831
58.5082
58.0551
57.3913
56.8205
55.6814
54.6694
53.3248
52.0359
50.8953
49.5348
48.1552
46.3948
44.1846
41.7921
39.1141
36.2429
55.5388
55.0868
53.2076
51.6087
50.6372
50.2887
50.4021
50.734
51.096
51.3934
51.597
51.7054
51.7307
51.6953
51.6243
51.5395
51.4563
51.3838
51.3263
51.2847
51.2579
51.2433
51.238
51.2387
51.2425
51.2469
51.2497
51.2497
51.2454
51.2362
51.2215
51.201
51.1748
51.1434
51.1075
51.0674
51.0231
50.9751
50.9235
50.8678
50.808
50.7447
50.6786
50.6127
50.5502
50.4914
50.4353
50.3818
50.3322
50.2879
50.2489
50.2163
50.1927
50.1789
50.1739
50.1773
50.1893
50.2096
50.2356
50.2605
50.2847
50.3139
50.3518
50.397
50.4528
50.5204
50.5974
50.6752
50.7509
50.8245
50.8882
50.9313
50.9492
50.9402
50.9164
50.899
50.8947
50.903
50.9137
50.9056
50.8582
50.7573
50.593
50.3704
50.1139
49.8667
49.6456
49.4667
49.3567
49.327
49.4134
49.5104
49.751
49.9658
50.2502
50.5708
51.0543
51.4788
51.9823
52.4848
53.1353
53.6889
54.2597
54.6409
54.9594
55.1247
55.3309
55.452
55.6673
55.7996
55.9833
56.0645
56.1926
56.2308
56.3528
56.3957
56.5676
56.6623
56.9056
57.0654
57.3577
57.5512
57.8395
57.9965
58.227
58.3204
58.5015
58.551
58.6741
58.6941
58.8098
58.8733
59.0982
59.2842
59.6394
59.9521
60.3672
60.7532
61.1886
61.5621
62.0217
62.3991
62.8626
63.2129
63.633
63.855
64.2951
64.4218
64.7556
64.8053
65.1797
65.0564
65.2545
65.1823
65.5241
65.4083
65.707
65.7003
65.7713
65.5303
65.9679
65.6126
66.1061
65.8498
65.9749
65.7686
65.6998
65.3024
65.3558
65.0565
65.0055
64.5434
64.7309
64.5282
64.4311
63.9837
63.8461
63.2732
63.0049
62.4323
61.985
61.4119
60.8856
60.4317
59.7353
59.2804
58.4071
57.7504
56.2985
55.443
54.0361
52.9939
51.9611
50.5191
49.0932
47.2197
45.0496
42.7473
40.2373
37.5482
55.0892
54.6651
53.0536
51.7336
50.9732
50.7476
50.8824
51.1632
51.443
51.6571
51.79
51.8463
51.8425
51.7993
51.7362
51.6683
51.6054
51.5528
51.5124
51.484
51.4662
51.4568
51.4536
51.4543
51.457
51.4598
51.4613
51.4602
51.4553
51.4457
51.4308
51.4105
51.385
51.3545
51.32
51.2818
51.2401
51.1949
51.1461
51.0924
51.0339
50.9726
50.9099
50.8473
50.7873
50.7332
50.6856
50.6413
50.5987
50.5588
50.5246
50.5003
50.4881
50.4862
50.4932
50.512
50.5418
50.5813
50.6287
50.6788
50.7283
50.7785
50.8351
50.9005
50.9754
51.0575
51.1446
51.2311
51.3135
51.3893
51.4503
51.4862
51.4927
51.4702
51.4324
51.4054
51.4035
51.4245
51.4552
51.4741
51.4607
51.3963
51.2618
51.0635
50.8276
50.6076
50.3902
50.2435
50.1453
50.1459
50.2321
50.3507
50.5809
50.7809
51.0662
51.4588
51.9656
52.4039
52.9068
53.4612
54.1037
54.6538
55.2132
55.5934
55.9044
56.0713
56.2379
56.3513
56.5575
56.6922
56.8744
56.9618
57.0937
57.1642
57.3037
57.4084
57.6075
57.7784
58.0513
58.2856
58.6041
58.8575
59.1763
59.3804
59.6418
59.7741
59.968
60.0339
60.1717
60.1856
60.3104
60.3922
60.6087
60.8311
61.188
61.5234
61.9447
62.3381
62.7449
63.1343
63.5386
63.912
64.3493
64.7261
65.0403
65.2637
65.6429
65.768
66.096
66.2168
66.3645
66.3858
66.4246
66.5105
66.6985
66.7376
66.8702
66.9259
66.837
66.7913
67.0705
67.035
67.3787
67.1181
67.3146
67.113
66.9274
66.6493
66.5953
66.3735
66.2108
65.8808
65.9957
65.9018
65.675
65.3552
65.1535
64.614
64.313
63.757
63.2902
62.7529
62.2061
61.7427
60.921
60.4648
59.3439
58.6706
56.9727
56.3024
54.9398
54.1494
53.0785
51.5544
50.0146
48.0597
45.9165
43.6971
41.3052
38.7586
54.3526
54.0233
52.8829
51.964
51.4534
51.3203
51.4199
51.5999
51.7665
51.8828
51.9427
51.9532
51.928
51.8827
51.83
51.7789
51.7342
51.6982
51.6709
51.6515
51.6389
51.6314
51.6279
51.627
51.6276
51.6283
51.6281
51.6258
51.6204
51.6105
51.5952
51.5747
51.5495
51.5201
51.4871
51.452
51.4157
51.3765
51.3325
51.2836
51.2305
51.1739
51.117
51.0632
51.0128
50.9672
50.9288
50.8974
50.8692
50.8407
50.8162
50.8055
50.8109
50.8275
50.8529
50.8894
50.9387
50.9988
51.0641
51.1291
51.1971
51.2708
51.3499
51.4349
51.525
51.6164
51.7077
51.7964
51.8811
51.9573
52.0139
52.0432
52.0409
52.0091
51.9621
51.9282
51.9289
51.9601
52.0046
52.0426
52.0561
52.0278
51.9335
51.7742
51.5741
51.3965
51.1915
51.1021
51.0275
51.0553
51.1331
51.291
51.4925
51.7102
52.0174
52.4499
52.9356
53.4077
53.9314
54.5395
55.1448
55.701
56.2219
56.6132
56.8993
57.085
57.207
57.3397
57.4998
57.6542
57.8066
57.9336
58.0562
58.1884
58.3337
58.5194
58.7243
58.9827
59.2608
59.5779
59.8904
60.2233
60.5304
60.7942
61.0484
61.2444
61.4231
61.5539
61.6665
61.7383
61.845
61.9931
62.1821
62.4636
62.778
63.1603
63.5405
63.9473
64.3144
64.7139
65.046
65.4305
65.7824
66.1478
66.3915
66.6981
66.9191
67.1341
67.349
67.5025
67.5051
67.6592
67.6159
67.7949
67.8518
67.9591
67.9617
68.0892
67.8521
68.1811
68.1976
68.5198
68.5333
68.445
68.5473
68.3655
68.13
67.9503
67.8135
67.6567
67.3344
67.291
67.2258
67.1148
66.8848
66.6584
66.3162
65.9357
65.5113
65.0421
64.5658
64.0608
63.472
62.9682
62.0369
61.4888
60.1738
59.5094
57.7953
57.3792
55.9997
55.3538
54.0987
52.5805
50.9265
48.9281
46.8082
44.6563
42.3541
39.9159
53.5399
53.3628
52.7977
52.3153
52.025
51.9134
51.9159
51.9645
52.0138
52.0423
52.0442
52.0228
51.9861
51.9431
51.9004
51.8622
51.8303
51.8047
51.7849
51.7698
51.7588
51.7511
51.7462
51.7434
51.7421
51.7412
51.7394
51.7359
51.7295
51.7191
51.7034
51.6824
51.6577
51.6312
51.6031
51.5717
51.5389
51.5058
51.4707
51.4294
51.3833
51.3374
51.2933
51.25
51.2109
51.1822
51.1629
51.1488
51.1369
51.1266
51.1244
51.1362
51.1612
51.1966
51.2431
51.3012
51.3691
51.4447
51.5266
51.6108
51.6934
51.7758
51.8628
51.9557
52.0511
52.1447
52.2362
52.3243
52.4065
52.4754
52.5238
52.5507
52.5532
52.5287
52.4857
52.4526
52.4531
52.4849
52.5368
52.5878
52.6209
52.6205
52.5618
52.446
52.2967
52.19
52.0324
51.9984
51.9416
52.0105