/*--------------------------------*- C++ -*----------------------------------*\
| =========                 |                                                 |
| \\      /  F ield         | OpenFOAM: The Open Source CFD Toolbox           |
|  \\    /   O peration     | Version:  2.4.0                                 |
|   \\  /    A nd           | Web:      www.OpenFOAM.org                      |
|    \\/     M anipulation  |                                                 |
\*---------------------------------------------------------------------------*/
FoamFile
{
    version     2.0;
    format      ascii;
    class       volVectorField;
    location    "0.53";
    object      U_0;
}
// * * * * * * * * * * * * * * * * * * * * * * * * * * * * * * * * * * * * * //

dimensions      [0 1 -1 0 0 0 0];

internalField   nonuniform List<vector> 
8800
(
(8.09204 0.38796 0)
(5.44925 0.242534 0)
(3.91194 0.0428414 0)
(3.15636 -0.0153946 0)
(2.80174 -0.0181642 0)
(2.59768 -0.0111523 0)
(2.48574 -0.005638 0)
(2.37701 -0.00199116 0)
(2.32174 -0.00203392 0)
(2.24775 -0.000443589 0)
(2.21902 -0.000405468 0)
(2.1618 -0.00026159 0)
(2.14845 -0.000418949 0)
(2.09662 0.000758166 0)
(2.07852 0.000656916 0)
(2.0284 0.000974292 0)
(2.0065 0.00024922 0)
(1.95287 0.00123589 0)
(1.9245 0.00854649 0)
(1.72999 -0.0599544 0)
(10.0857 0.838474 0)
(9.65574 0.867889 0)
(8.87451 0.506878 0)
(8.07988 0.261694 0)
(7.49583 0.137856 0)
(7.00514 0.0818595 0)
(6.70078 0.0544493 0)
(6.39125 0.0416411 0)
(6.2355 0.0283004 0)
(6.01424 0.0250968 0)
(5.93574 0.0194857 0)
(5.76788 0.0170316 0)
(5.73179 0.0138548 0)
(5.58634 0.0180259 0)
(5.55585 0.0155085 0)
(5.42767 0.0179106 0)
(5.39072 0.0177219 0)
(5.25264 0.020019 0)
(5.21591 0.0325776 0)
(5.01113 -0.029621 0)
(10.0656 0.632118 0)
(10.6545 0.862775 0)
(10.874 0.600888 0)
(10.6856 0.374133 0)
(10.462 0.255841 0)
(10.0829 0.196441 0)
(9.84459 0.154028 0)
(9.48306 0.124084 0)
(9.33024 0.0916026 0)
(9.01967 0.0780734 0)
(8.93907 0.0600396 0)
(8.68618 0.0515042 0)
(8.65494 0.0415219 0)
(8.43301 0.0456473 0)
(8.41505 0.0394109 0)
(8.21986 0.0410285 0)
(8.20361 0.0425125 0)
(7.98796 0.049711 0)
(7.97322 0.058728 0)
(7.74361 -0.016347 0)
(10.0083 0.457873 0)
(10.5579 0.70554 0)
(11.1795 0.546604 0)
(11.3695 0.351772 0)
(11.5644 0.259196 0)
(11.4526 0.226739 0)
(11.5032 0.202762 0)
(11.2844 0.178411 0)
(11.315 0.144302 0)
(11.0616 0.130682 0)
(11.0946 0.105359 0)
(10.8468 0.0928093 0)
(10.8871 0.0777716 0)
(10.6508 0.0829601 0)
(10.6813 0.0687568 0)
(10.4576 0.073692 0)
(10.4974 0.0670272 0)
(10.2298 0.0958767 0)
(10.2646 0.071356 0)
(9.97726 0.116935 0)
(10.0646 0.348536 0)
(10.3775 0.563805 0)
(11.0558 0.459892 0)
(11.2984 0.300228 0)
(11.6773 0.209756 0)
(11.6646 0.190205 0)
(11.901 0.178597 0)
(11.7999 0.172202 0)
(12.0052 0.138647 0)
(11.867 0.138768 0)
(12.0515 0.112598 0)
(11.9135 0.107857 0)
(12.0492 0.085416 0)
(11.9238 0.105691 0)
(12.0237 0.0805077 0)
(11.8639 0.098995 0)
(11.9889 0.0748709 0)
(11.7665 0.133816 0)
(11.8536 0.0784756 0)
(11.5823 0.166793 0)
(10.0816 0.254969 0)
(10.3102 0.458026 0)
(10.8961 0.371641 0)
(11.1582 0.241418 0)
(11.5488 0.161241 0)
(11.6106 0.152507 0)
(11.8331 0.150316 0)
(11.8083 0.145322 0)
(12.0094 0.117425 0)
(11.9754 0.121109 0)
(12.1513 0.0864434 0)
(12.1675 0.0967344 0)
(12.2541 0.0680132 0)
(12.3132 0.0915474 0)
(12.3828 0.0814282 0)
(12.3774 0.0774746 0)
(12.4716 0.0900475 0)
(12.4597 0.1113 0)
(12.4836 0.0904921 0)
(12.3758 0.0792837 0)
(10.0229 0.172749 0)
(10.2963 0.354457 0)
(10.7671 0.291943 0)
(11.1109 0.210613 0)
(11.3513 0.112107 0)
(11.5691 0.109012 0)
(11.6636 0.109326 0)
(11.8056 0.118016 0)
(11.8416 0.0821675 0)
(11.9884 0.100375 0)
(11.9993 0.0665613 0)
(12.1614 0.073316 0)
(12.1572 0.0595385 0)
(12.299 0.0623176 0)
(12.3793 0.0770156 0)
(12.4304 0.0596326 0)
(12.4364 0.0570549 0)
(12.5693 0.0984429 0)
(12.5068 0.0623905 0)
(12.5266 0.03737 0)
(10.0086 0.116354 0)
(10.2574 0.25208 0)
(10.6648 0.198257 0)
(11.0121 0.15967 0)
(11.3381 0.0820288 0)
(11.5072 0.0749436 0)
(11.6511 0.0793293 0)
(11.6855 0.0858079 0)
(11.8442 0.0630346 0)
(11.8294 0.0741602 0)
(11.9599 0.0366394 0)
(12.0411 0.0620472 0)
(12.1576 0.0275583 0)
(12.1649 0.039747 0)
(12.32 0.0438481 0)
(12.3712 0.0590252 0)
(12.3678 0.0448941 0)
(12.4846 0.0625735 0)
(12.5145 0.0305891 0)
(12.4842 -0.00626774 0)
(10.0095 0.063106 0)
(10.2273 0.153751 0)
(10.6284 0.129681 0)
(10.9973 0.0925479 0)
(11.2868 0.0336011 0)
(11.4118 0.0376585 0)
(11.5784 0.0556451 0)
(11.6735 0.0510743 0)
(11.7535 0.0359296 0)
(11.8599 0.0612702 0)
(11.9203 0.0206849 0)
(12.0056 0.011566 0)
(12.1236 0.0468502 0)
(12.1222 0.00622815 0)
(12.2316 0.0403996 0)
(12.3375 0.0239498 0)
(12.3466 0.0224277 0)
(12.4301 0.0241438 0)
(12.4852 0.00664251 0)
(12.2881 0.0196236 0)
(9.98907 0.0245055 0)
(10.2208 0.0500615 0)
(10.6215 0.0278691 0)
(10.9847 0.0335672 0)
(11.2353 0.0296717 0)
(11.4401 0.0159605 0)
(11.5209 0.00999928 0)
(11.6818 0.0169675 0)
(11.7023 0.010957 0)
(11.7954 0.0186736 0)
(11.9697 0.00155431 0)
(11.9248 0.0119356 0)
(12.1103 0.000728121 0)
(12.1177 0.010788 0)
(12.1971 -0.0130497 0)
(12.3428 0.0213294 0)
(12.2722 0.00626466 0)
(12.4594 -0.00528823 0)
(12.3328 0.00651265 0)
(12.3385 -0.00305534 0)
(10.0025 -0.0190515 0)
(10.2401 -0.0517213 0)
(10.594 -0.04324 0)
(10.9311 -0.0219802 0)
(11.2603 -0.0270685 0)
(11.4304 -0.0171392 0)
(11.5772 -0.0133844 0)
(11.6214 -0.0165652 0)
(11.7996 -0.00468295 0)
(11.7638 -0.0159556 0)
(11.9234 -0.00993268 0)
(12.0038 -0.026296 0)
(12.0291 0.00712479 0)
(12.1758 -0.0220158 0)
(12.1802 -0.0121536 0)
(12.2978 -0.00991237 0)
(12.3221 -0.01954 0)
(12.3953 -0.0210232 0)
(12.4343 -0.0229485 0)
(12.3924 -0.059246 0)
(10.0005 -0.0648199 0)
(10.2359 -0.145979 0)
(10.6047 -0.127285 0)
(11.0183 -0.0944756 0)
(11.2498 -0.0444381 0)
(11.4809 -0.0455385 0)
(11.5842 -0.0441433 0)
(11.6463 -0.0622759 0)
(11.7258 -0.0353417 0)
(11.8642 -0.0246111 0)
(11.9105 -0.0559163 0)
(12.0004 -0.0172169 0)
(12.116 -0.0347723 0)
(12.1468 -0.0327828 0)
(12.243 -0.0422216 0)
(12.3135 -0.0263768 0)
(12.3671 -0.0324829 0)
(12.4047 -0.0657976 0)
(12.4554 -0.0465744 0)
(12.3466 -0.0177787 0)
(10.0038 -0.111485 0)
(10.2571 -0.248746 0)
(10.678 -0.215627 0)
(11.0421 -0.145898 0)
(11.3212 -0.0882175 0)
(11.4993 -0.0884988 0)
(11.6243 -0.0634119 0)
(11.6872 -0.0745984 0)
(11.7851 -0.067219 0)
(11.9157 -0.0729732 0)
(11.9607 -0.0451456 0)
(12.0477 -0.0745895 0)
(12.1525 -0.0282481 0)
(12.2073 -0.0543975 0)
(12.2479 -0.0557139 0)
(12.3462 -0.0507712 0)
(12.4037 -0.0577132 0)
(12.4605 -0.076219 0)
(12.4553 -0.068697 0)
(12.4714 -0.0863498 0)
(10.0235 -0.172783 0)
(10.2857 -0.352503 0)
(10.774 -0.298206 0)
(11.1069 -0.204243 0)
(11.3903 -0.115432 0)
(11.5541 -0.111683 0)
(11.678 -0.0986684 0)
(11.7518 -0.121901 0)
(11.8925 -0.0987339 0)
(11.9642 -0.0837238 0)
(12.039 -0.080702 0)
(12.1056 -0.0756067 0)
(12.2078 -0.0593374 0)
(12.2658 -0.0701777 0)
(12.3442 -0.0676876 0)
(12.3879 -0.0807251 0)
(12.4887 -0.0724235 0)
(12.5312 -0.111829 0)
(12.5542 -0.10814 0)
(12.5044 -0.0960218 0)
(10.0605 -0.247658 0)
(10.3193 -0.457152 0)
(10.9135 -0.387523 0)
(11.1639 -0.238397 0)
(11.5204 -0.162406 0)
(11.6099 -0.159825 0)
(11.8156 -0.128701 0)
(11.8241 -0.146302 0)
(12.0057 -0.125325 0)
(12.0034 -0.117534 0)
(12.1404 -0.0867278 0)
(12.1432 -0.11095 0)
(12.2816 -0.0711116 0)
(12.2739 -0.0899012 0)
(12.3736 -0.0834525 0)
(12.3762 -0.100034 0)
(12.4728 -0.0942375 0)
(12.44 -0.133766 0)
(12.4634 -0.113557 0)
(12.3519 -0.139113 0)
(10.061 -0.345474 0)
(10.3994 -0.569976 0)
(11.0567 -0.466577 0)
(11.2751 -0.284543 0)
(11.6726 -0.212573 0)
(11.6661 -0.193857 0)
(11.8969 -0.168851 0)
(11.8131 -0.177882 0)
(12.0064 -0.154683 0)
(11.8853 -0.126932 0)
(12.0399 -0.112698 0)
(11.9053 -0.118013 0)
(12.0513 -0.0869327 0)
(11.9008 -0.0999696 0)
(12.0111 -0.0885162 0)
(11.8654 -0.111804 0)
(11.9482 -0.0932843 0)
(11.7644 -0.136749 0)
(11.7793 -0.123974 0)
(11.5577 -0.162934 0)
(10.0151 -0.45622 0)
(10.5643 -0.706752 0)
(11.169 -0.548449 0)
(11.3587 -0.345957 0)
(11.5778 -0.265673 0)
(11.4388 -0.231465 0)
(11.5168 -0.193086 0)
(11.2843 -0.180695 0)
(11.3136 -0.152374 0)
(11.058 -0.123779 0)
(11.1005 -0.10313 0)
(10.825 -0.10332 0)
(10.8958 -0.0778882 0)
(10.623 -0.081051 0)
(10.6908 -0.0735598 0)
(10.4176 -0.090694 0)
(10.4807 -0.0712679 0)
(10.18 -0.116339 0)
(10.1983 -0.0925736 0)
(9.85733 -0.159774 0)
(10.0678 -0.631524 0)
(10.6577 -0.864135 0)
(10.8659 -0.602568 0)
(10.6889 -0.370131 0)
(10.468 -0.257916 0)
(10.0687 -0.198022 0)
(9.85944 -0.149035 0)
(9.47725 -0.12534 0)
(9.32857 -0.0986329 0)
(9.01344 -0.0736094 0)
(8.94942 -0.0580742 0)
(8.66009 -0.058245 0)
(8.66847 -0.0424579 0)
(8.39924 -0.0441374 0)
(8.43167 -0.0426154 0)
(8.16032 -0.0523359 0)
(8.20267 -0.0458097 0)
(7.90117 -0.0694204 0)
(7.9095 -0.0698711 0)
(7.56178 -0.0883991 0)
(10.0864 -0.8384 0)
(9.6575 -0.867803 0)
(8.86947 -0.507419 0)
(8.08361 -0.260267 0)
(7.49768 -0.13869 0)
(6.99657 -0.0839006 0)
(6.71012 -0.051751 0)
(6.38708 -0.0412619 0)
(6.23433 -0.0324536 0)
(6.00745 -0.0230879 0)
(5.94363 -0.0171942 0)
(5.74945 -0.0213982 0)
(5.73915 -0.0147318 0)
(5.55796 -0.016783 0)
(5.56736 -0.0171519 0)
(5.37451 -0.0242082 0)
(5.3862 -0.0203825 0)
(5.16376 -0.0324996 0)
(5.15423 -0.0373325 0)
(4.86483 -0.0169999 0)
(8.09171 -0.387949 0)
(5.45007 -0.242501 0)
(3.9101 -0.0431325 0)
(3.15741 0.0157516 0)
(2.80305 0.018252 0)
(2.59439 0.0104246 0)
(2.48712 0.00648436 0)
(2.37764 0.00225746 0)
(2.32129 0.000687038 0)
(2.24214 0.0009603 0)
(2.22215 0.00137099 0)
(2.15642 -0.00109094 0)
(2.14598 0.000385058 0)
(2.08321 -0.000495548 0)
(2.07976 -0.000583936 0)
(2.00323 -0.00264109 0)
(1.99227 -0.000666302 0)
(1.90267 -0.00377203 0)
(1.86529 -0.00404391 0)
(1.7172 0.0106145 0)
(2.15037 -0.0884249 0)
(2.23919 -0.00183876 0)
(2.41414 0.0277543 0)
(2.55684 0.0279938 0)
(2.73119 0.00546555 0)
(2.84723 -0.020928 0)
(2.9623 -0.0383747 0)
(3.00144 -0.0476386 0)
(3.06051 -0.0530218 0)
(3.05689 -0.0564191 0)
(3.10757 -0.0598618 0)
(3.10316 -0.0548255 0)
(3.17006 -0.0422764 0)
(3.16857 -0.0235501 0)
(3.2465 -0.0075057 0)
(3.2478 0.00441958 0)
(3.33127 0.0144194 0)
(3.33018 0.0244575 0)
(3.41382 0.0319897 0)
(3.40906 0.0378963 0)
(3.49978 0.0409985 0)
(3.48853 0.0478814 0)
(3.58434 0.0521759 0)
(3.57511 0.061722 0)
(3.67681 0.0667333 0)
(3.67243 0.0746467 0)
(3.77701 0.0746665 0)
(3.77495 0.0735776 0)
(3.87956 0.0615033 0)
(3.87601 0.0471753 0)
(3.97497 0.0238839 0)
(3.96557 0.00336026 0)
(4.05219 -0.0257326 0)
(4.03828 -0.0469973 0)
(4.11186 -0.0756044 0)
(4.0965 -0.0955413 0)
(4.14758 -0.120162 0)
(4.12203 -0.133698 0)
(4.14826 -0.144167 0)
(4.09635 -0.13875 0)
(4.10616 -0.12206 0)
(4.03464 -0.0850068 0)
(4.04003 -0.0365622 0)
(3.97238 0.0327239 0)
(3.99676 0.0830337 0)
(4.03189 0.173627 0)
(4.1001 0.220381 0)
(4.30973 0.246446 0)
(4.4512 0.232401 0)
(4.59959 0.221747 0)
(4.7185 0.215608 0)
(4.77023 0.194821 0)
(4.84547 0.198143 0)
(4.85527 0.199895 0)
(4.96281 0.236502 0)
(4.87318 0.249277 0)
(5.12719 0.322164 0)
(5.03399 0.356891 0)
(5.28267 0.371057 0)
(5.37617 0.458417 0)
(5.56468 0.443248 0)
(5.78607 0.451941 0)
(5.8951 0.376522 0)
(6.18374 0.328928 0)
(6.31623 0.255489 0)
(6.49072 0.118248 0)
(6.55613 -0.00548305 0)
(6.62013 -0.188228 0)
(6.75243 -0.28244 0)
(6.81918 -0.433014 0)
(7.06468 -0.762365 0)
(7.04771 -0.998954 0)
(7.28119 -1.20089 0)
(7.43897 -1.44021 0)
(7.43834 -1.77895 0)
(7.4448 -2.04907 0)
(7.46728 -2.0541 0)
(7.59622 -1.99024 0)
(7.75322 -1.7954 0)
(7.76687 -1.56116 0)
(7.64815 -1.4808 0)
(7.60176 -1.30286 0)
(7.69955 -0.861612 0)
(7.76441 -0.260654 0)
(7.69395 0.116793 0)
(7.3323 0.237764 0)
(7.12295 0.346485 0)
(7.00115 0.443547 0)
(7.27416 0.694694 0)
(7.55768 1.03351 0)
(7.75888 1.2453 0)
(7.92616 1.34642 0)
(7.82164 1.26315 0)
(7.62112 1.13671 0)
(7.46149 1.08275 0)
(7.214 0.989122 0)
(7.12074 0.945463 0)
(7.12417 1.03908 0)
(7.08176 0.996308 0)
(7.19799 0.82075 0)
(7.34265 0.758495 0)
(7.4916 0.548259 0)
(7.7234 0.293964 0)
(8.09826 -0.0110831 0)
(8.30237 -0.223505 0)
(8.57256 -0.401941 0)
(9.06574 -0.876722 0)
(9.22157 -1.12995 0)
(9.40035 -1.3375 0)
(9.6905 -1.84501 0)
(9.73327 -2.01155 0)
(9.79054 -2.20133 0)
(10.0395 -2.49605 0)
(10.1232 -2.69923 0)
(10.365 -2.97003 0)
(10.5959 -3.26091 0)
(10.9087 -3.48628 0)
(11.1529 -3.71796 0)
(11.604 -3.90302 0)
(11.9659 -4.00211 0)
(12.3653 -4.07228 0)
(12.7559 -4.01003 0)
(13.1587 -3.8997 0)
(13.4209 -3.67729 0)
(13.7708 -3.38591 0)
(13.9509 -3.03465 0)
(14.2228 -2.57596 0)
(14.3413 -2.14817 0)
(14.486 -1.57871 0)
(14.5969 -1.11565 0)
(14.5876 -0.529468 0)
(14.6702 -0.0498386 0)
(14.5651 0.45408 0)
(14.5341 0.86167 0)
(14.3962 1.24812 0)
(14.2775 1.58518 0)
(14.0761 1.82988 0)
(13.9287 2.00942 0)
(13.7137 2.11965 0)
(13.511 2.16538 0)
(13.3777 2.15492 0)
(13.1531 2.12216 0)
(13.0113 2.02008 0)
(12.9536 1.89914 0)
(12.6603 1.75822 0)
(12.7727 1.56336 0)
(12.5372 1.37507 0)
(12.6024 1.20775 0)
(12.4905 0.888393 0)
(12.5651 0.809465 0)
(12.4936 0.38885 0)
(12.667 0.308634 0)
(12.5614 -0.0658269 0)
(12.8096 -0.245684 0)
(12.7832 -0.562691 0)
(12.9594 -0.724721 0)
(13.0809 -1.06805 0)
(13.1581 -1.21261 0)
(13.3439 -1.53412 0)
(13.3574 -1.6714 0)
(13.529 -1.96637 0)
(13.557 -2.09198 0)
(13.6236 -2.3793 0)
(13.5869 -2.45181 0)
(13.544 -2.75677 0)
(13.5045 -2.7319 0)
(13.2044 -3.04217 0)
(13.1468 -2.87603 0)
(12.7072 -3.10223 0)
(12.4241 -2.91188 0)
(12.0759 -2.91425 0)
(11.5618 -2.77429 0)
(11.2679 -2.40362 0)
(10.6277 -2.30641 0)
(10.3842 -1.73016 0)
(9.7285 -1.50945 0)
(9.83525 -1.00567 0)
(8.95338 -0.720349 0)
(9.31711 -0.364922 0)
(8.45105 0.303053 0)
(8.58141 0.32028 0)
(8.07742 0.858678 0)
(7.88907 1.08922 0)
(7.65606 1.78325 0)
(7.35934 1.90703 0)
(7.72876 2.05052 0)
(6.58191 1.87237 0)
(7.39335 2.35169 0)
(5.59903 2.70929 0)
(7.06886 3.10079 0)
(5.44102 3.70122 0)
(6.89739 4.02719 0)
(5.74102 4.63078 0)
(6.41234 4.55718 0)
(5.86205 5.77357 0)
(6.07032 6.09541 0)
(5.77394 6.73144 0)
(5.36379 7.87409 0)
(6.08903 9.24527 0)
(3.77178 12.3192 0)
(5.15801 -0.0532144 0)
(5.16268 -0.0197076 0)
(5.21446 -0.0186978 0)
(5.26529 -0.0393924 0)
(5.36499 -0.0563414 0)
(5.43031 -0.0770094 0)
(5.50992 -0.0937612 0)
(5.52976 -0.0994829 0)
(5.56584 -0.0962173 0)
(5.55843 -0.0843608 0)
(5.59427 -0.0816073 0)
(5.58534 -0.07443 0)
(5.62762 -0.0681579 0)
(5.62203 -0.0554576 0)
(5.66948 -0.0409378 0)
(5.66893 -0.026032 0)
(5.71554 -0.011713 0)
(5.71376 0.000331684 0)
(5.75991 0.0071139 0)
(5.75644 0.0137468 0)
(5.80729 0.0128995 0)
(5.80341 0.0185723 0)
(5.85906 0.01983 0)
(5.85724 0.026285 0)
(5.91785 0.0315604 0)
(5.92141 0.034063 0)
(5.98305 0.0371894 0)
(5.99257 0.0310491 0)
(6.05419 0.0225812 0)
(6.06957 0.00902029 0)
(6.12765 -0.0128331 0)
(6.14719 -0.0293011 0)
(6.19963 -0.0576321 0)
(6.22066 -0.0734646 0)
(6.26453 -0.100071 0)
(6.28129 -0.114345 0)
(6.31116 -0.133579 0)
(6.3151 -0.140169 0)
(6.32625 -0.14475 0)
(6.30844 -0.133354 0)
(6.30333 -0.110909 0)
(6.26809 -0.073608 0)
(6.24951 -0.0301405 0)
(6.22377 0.0390461 0)
(6.1932 0.094975 0)
(6.20095 0.158723 0)
(6.20637 0.215348 0)
(6.22479 0.221635 0)
(6.31462 0.230049 0)
(6.2853 0.21143 0)
(6.36791 0.196456 0)
(6.31267 0.190386 0)
(6.33901 0.187563 0)
(6.29534 0.177453 0)
(6.32798 0.193175 0)
(6.27265 0.226266 0)
(6.34621 0.212327 0)
(6.36928 0.272174 0)
(6.42001 0.27568 0)
(6.56613 0.294857 0)
(6.63535 0.283729 0)
(6.82442 0.270128 0)
(6.97032 0.25837 0)
(7.1448 0.157276 0)
(7.35776 0.103323 0)
(7.49319 0.0004746 0)
(7.70319 -0.126185 0)
(7.83843 -0.308604 0)
(8.03387 -0.411391 0)
(8.2759 -0.541596 0)
(8.44399 -0.866408 0)
(8.67705 -1.04715 0)
(8.89653 -1.2816 0)
(8.99926 -1.57373 0)
(9.15595 -1.84961 0)
(9.29021 -2.04765 0)
(9.29422 -1.98219 0)
(9.19823 -1.91531 0)
(9.09633 -1.85095 0)
(9.03245 -1.74474 0)
(9.17137 -1.51054 0)
(9.10873 -1.13025 0)
(8.97329 -0.720232 0)
(8.74253 -0.319628 0)
(8.86069 0.0522112 0)
(8.91114 0.407093 0)
(8.86805 0.700117 0)
(8.41776 0.743473 0)
(8.13399 0.769048 0)
(8.01969 0.841471 0)
(8.05771 0.887034 0)
(8.26407 1.08314 0)
(8.51011 1.23154 0)
(8.56049 1.26838 0)
(8.7196 1.27843 0)
(8.67371 1.31729 0)
(8.59275 1.19644 0)
(8.60259 1.09898 0)
(8.5152 1.02621 0)
(8.50105 0.781 0)
(8.6472 0.557811 0)
(8.73029 0.339604 0)
(8.79909 0.0604329 0)
(9.10943 -0.2506 0)
(9.28204 -0.56174 0)
(9.42658 -0.739732 0)
(9.68902 -1.03008 0)
(9.9215 -1.4457 0)
(10.0071 -1.58672 0)
(10.0989 -1.89868 0)
(10.2996 -2.22041 0)
(10.3452 -2.32365 0)
(10.5824 -2.64659 0)
(10.8447 -2.95948 0)
(11.0565 -3.17391 0)
(11.3973 -3.5418 0)
(11.7732 -3.78475 0)
(12.0419 -4.02544 0)
(12.5572 -4.22689 0)
(12.8434 -4.34179 0)
(13.2451 -4.39694 0)
(13.4974 -4.28879 0)
(13.8286 -4.15121 0)
(13.981 -3.92322 0)
(14.2399 -3.53904 0)
(14.3779 -3.20004 0)
(14.5758 -2.69169 0)
(14.6749 -2.23701 0)
(14.7904 -1.67492 0)
(14.8946 -1.13633 0)
(14.8639 -0.562741 0)
(14.9524 -0.0337311 0)
(14.7782 0.498572 0)
(14.8446 0.929158 0)
(14.5966 1.36032 0)
(14.6188 1.67725 0)
(14.3082 1.95133 0)
(14.303 2.14058 0)
(14.0169 2.24728 0)
(13.9714 2.3054 0)
(13.7324 2.29862 0)
(13.7432 2.23406 0)
(13.4708 2.17118 0)
(13.5666 1.98838 0)
(13.2938 1.84581 0)
(13.3771 1.66908 0)
(13.256 1.39758 0)
(13.2288 1.27271 0)
(13.2782 0.878475 0)
(13.2049 0.827689 0)
(13.3456 0.367687 0)
(13.3088 0.258153 0)
(13.463 -0.109158 0)
(13.4174 -0.321106 0)
(13.7078 -0.608921 0)
(13.5312 -0.839809 0)
(13.9292 -1.0948 0)
(13.6595 -1.35159 0)
(14.0879 -1.52464 0)
(13.7892 -1.82697 0)
(14.0709 -1.88958 0)
(13.8384 -2.24185 0)
(13.9695 -2.28623 0)
(13.6669 -2.54931 0)
(13.6418 -2.52568 0)
(13.4178 -2.81216 0)
(13.0985 -2.64972 0)
(12.9284 -2.87687 0)
(12.5096 -2.61394 0)
(12.2668 -2.82754 0)
(11.9382 -2.42025 0)
(11.5531 -2.47006 0)
(11.182 -2.2138 0)
(10.945 -1.65433 0)
(10.3193 -1.78623 0)
(10.6093 -1.01171 0)
(9.46006 -0.81406 0)
(10.2256 -0.563309 0)
(8.76388 0.060065 0)
(9.6922 0.340857 0)
(8.20767 0.720539 0)
(9.36554 0.83888 0)
(7.54429 1.48617 0)
(8.77097 1.9029 0)
(7.41142 1.96189 0)
(8.3188 2.07173 0)
(7.0397 2.45906 0)
(7.25722 2.43623 0)
(6.51308 3.23331 0)
(6.40836 3.17276 0)
(6.39272 3.7377 0)
(6.13834 3.83255 0)
(6.65283 4.39104 0)
(6.07604 5.20354 0)
(6.2157 5.26283 0)
(6.08547 6.48889 0)
(6.13117 6.84034 0)
(5.72236 8.12349 0)
(8.33488 8.80974 0)
(6.15836 13.3256 0)
(7.79008 -0.099875 0)
(7.77599 -0.11041 0)
(7.81717 -0.0943373 0)
(7.87064 -0.0844738 0)
(7.97326 -0.073284 0)
(8.04079 -0.078293 0)
(8.08048 -0.080478 0)
(8.07683 -0.0821348 0)
(8.06881 -0.0924772 0)
(8.04605 -0.0873736 0)
(8.06379 -0.0903853 0)
(8.05764 -0.0820493 0)
(8.09632 -0.0704689 0)
(8.09333 -0.0618273 0)
(8.12537 -0.0433937 0)
(8.12051 -0.0343521 0)
(8.14198 -0.0197338 0)
(8.1355 -0.0100948 0)
(8.15539 -0.00844843 0)
(8.1514 -0.000329716 0)
(8.18139 -0.00457502 0)
(8.17982 0.00383044 0)
(8.21805 0.00443544 0)
(8.22 0.00955305 0)
(8.25565 0.0144901 0)
(8.26828 0.0166883 0)
(8.29215 0.0147362 0)
(8.31625 0.0130124 0)
(8.33385 -0.00338832 0)
(8.36265 -0.0123655 0)
(8.38373 -0.0341925 0)
(8.40792 -0.0534265 0)
(8.43785 -0.0733652 0)
(8.45271 -0.0979234 0)
(8.48791 -0.110408 0)
(8.49071 -0.131537 0)
(8.52019 -0.139806 0)
(8.5107 -0.142284 0)
(8.52522 -0.146732 0)
(8.50109 -0.121408 0)
(8.49795 -0.10615 0)
(8.46379 -0.0643309 0)
(8.45378 -0.0106636 0)
(8.41496 0.0302968 0)
(8.41546 0.113653 0)
(8.37108 0.148104 0)
(8.41122 0.197599 0)
(8.37426 0.239354 0)
(8.42353 0.220217 0)
(8.40446 0.24341 0)
(8.40823 0.222627 0)
(8.38381 0.210058 0)
(8.35691 0.214079 0)
(8.31583 0.208292 0)
(8.29919 0.195695 0)
(8.26201 0.221872 0)
(8.25518 0.219884 0)
(8.27992 0.2193 0)
(8.28138 0.233986 0)
(8.34923 0.224308 0)
(8.43356 0.202955 0)
(8.51282 0.169392 0)
(8.64345 0.130051 0)
(8.79392 0.063752 0)
(8.95039 -0.0678432 0)
(9.10387 -0.131808 0)
(9.29714 -0.268288 0)
(9.47786 -0.448247 0)
(9.71148 -0.556177 0)
(9.88218 -0.768087 0)
(10.1664 -1.01091 0)
(10.3292 -1.21733 0)
(10.4634 -1.5019 0)
(10.6557 -1.73523 0)
(10.7822 -1.93173 0)
(10.6857 -2.08047 0)
(10.5999 -2.04035 0)
(10.4778 -2.00211 0)
(10.5568 -1.88708 0)
(10.5422 -1.61583 0)
(10.3876 -1.38179 0)
(10.0626 -1.05949 0)
(9.999 -0.684061 0)
(9.84292 -0.188715 0)
(9.9105 0.180697 0)
(9.72343 0.393699 0)
(9.73604 0.655987 0)
(9.71541 0.902653 0)
(9.53976 1.02611 0)
(9.34029 1.10577 0)
(9.0298 1.00147 0)
(8.78962 0.964679 0)
(8.86616 1.02229 0)
(8.79303 1.03854 0)
(9.00984 1.03617 0)
(9.23443 1.19193 0)
(9.34919 1.18702 0)
(9.52865 1.12527 0)
(9.73893 1.06187 0)
(9.75264 0.880561 0)
(9.91119 0.615196 0)
(10.0829 0.30443 0)
(10.0874 0.0507195 0)
(10.231 -0.244011 0)
(10.3459 -0.573733 0)
(10.4146 -0.817616 0)
(10.461 -1.04384 0)
(10.613 -1.40606 0)
(10.6891 -1.68209 0)
(10.7227 -1.90032 0)
(10.9225 -2.24401 0)
(11.0594 -2.49135 0)
(11.2908 -2.78778 0)
(11.5966 -3.16895 0)
(11.875 -3.42401 0)
(12.2275 -3.80773 0)
(12.6299 -4.07489 0)
(12.9062 -4.32451 0)
(13.2997 -4.50737 0)
(13.4999 -4.60462 0)
(13.7686 -4.56629 0)
(13.8665 -4.45285 0)
(14.1093 -4.24659 0)
(14.1458 -3.98465 0)
(14.4332 -3.58133 0)
(14.4727 -3.22957 0)
(14.7367 -2.71283 0)
(14.7882 -2.21994 0)
(14.9679 -1.67471 0)
(15.0132 -1.08228 0)
(15.0444 -0.540917 0)
(15.055 0.0447702 0)
(14.9088 0.56879 0)
(14.8873 1.07928 0)
(14.6723 1.47912 0)
(14.5986 1.83242 0)
(14.359 2.07768 0)
(14.2673 2.30563 0)
(14.0582 2.37137 0)
(13.9481 2.42633 0)
(13.8265 2.40127 0)
(13.7092 2.30632 0)
(13.7192 2.20058 0)
(13.5429 2.07397 0)
(13.6911 1.84469 0)
(13.4577 1.72562 0)
(13.674 1.42648 0)
(13.4178 1.24419 0)
(13.6906 0.946408 0)
(13.4608 0.703181 0)
(13.7223 0.440571 0)
(13.5876 0.0939031 0)
(13.8077 -0.0782692 0)
(13.7369 -0.471015 0)
(13.9359 -0.569706 0)
(13.8695 -1.02797 0)
(14.0364 -1.03508 0)
(13.9432 -1.48936 0)
(14.089 -1.482 0)
(14.0019 -1.89618 0)
(13.9156 -1.85313 0)
(13.9519 -2.2327 0)
(13.6882 -2.21132 0)
(13.6606 -2.39506 0)
(13.3101 -2.46269 0)
(13.3236 -2.45514 0)
(12.833 -2.62758 0)
(12.8467 -2.34545 0)
(12.4137 -2.62522 0)
(12.4123 -2.32148 0)
(11.8653 -2.30385 0)
(11.9007 -2.16694 0)
(11.2706 -1.82086 0)
(11.2388 -1.63773 0)
(10.8236 -1.35086 0)
(10.4595 -0.905143 0)
(10.4477 -0.621334 0)
(9.79903 -0.234702 0)
(9.94988 0.119143 0)
(9.17681 0.746475 0)
(9.66284 0.65623 0)
(8.4486 1.32835 0)
(9.31394 1.59733 0)
(7.85929 1.97017 0)
(8.8077 2.33643 0)
(7.21322 2.45301 0)
(8.61543 2.57175 0)
(6.19989 2.88668 0)
(7.89038 3.07897 0)
(5.89809 3.4704 0)
(7.34577 3.55945 0)
(6.23025 4.15526 0)
(6.62231 4.52243 0)
(6.7428 5.21172 0)
(6.20587 5.60057 0)
(6.76925 6.16861 0)
(7.55143 6.71377 0)
(5.747 8.15839 0)
(9.96552 6.58017 0)
(8.08478 12.9463 0)
(10.0256 -0.122039 0)
(9.99432 -0.256735 0)
(10.0666 -0.284074 0)
(10.1175 -0.250647 0)
(10.1923 -0.167481 0)
(10.2584 -0.116934 0)
(10.2804 -0.080041 0)
(10.2831 -0.0613297 0)
(10.2592 -0.0691097 0)
(10.2192 -0.0756029 0)
(10.2153 -0.102363 0)
(10.1829 -0.103871 0)
(10.2035 -0.104339 0)
(10.1989 -0.0906459 0)
(10.2254 -0.0666961 0)
(10.2416 -0.0465167 0)
(10.2551 -0.0199315 0)
(10.2635 -0.00629032 0)
(10.2664 -0.00213545 0)
(10.257 0.00368403 0)
(10.2723 -0.00976022 0)
(10.2509 -0.00201398 0)
(10.2824 -0.0139806 0)
(10.27 -0.00617312 0)
(10.3091 -0.00537326 0)
(10.3156 -0.00643036 0)
(10.3493 0.0054641 0)
(10.3582 -0.0140322 0)
(10.389 -0.00753267 0)
(10.3863 -0.0357708 0)
(10.4177 -0.0450166 0)
(10.4006 -0.0646354 0)
(10.4327 -0.0969616 0)
(10.4155 -0.0967381 0)
(10.4446 -0.137589 0)
(10.4283 -0.12383 0)
(10.4562 -0.152152 0)
(10.4262 -0.139984 0)
(10.4646 -0.132581 0)
(10.4015 -0.12563 0)
(10.4509 -0.0758841 0)
(10.3654 -0.0655921 0)
(10.4048 0.00556054 0)
(10.3383 0.0432368 0)
(10.3391 0.0937906 0)
(10.3246 0.164567 0)
(10.2971 0.173776 0)
(10.3367 0.238542 0)
(10.3037 0.228223 0)
(10.3407 0.252359 0)
(10.3322 0.243499 0)
(10.308 0.240475 0)
(10.3278 0.242346 0)
(10.2696 0.223216 0)
(10.2737 0.246719 0)
(10.2666 0.207798 0)
(10.221 0.243137 0)
(10.2908 0.210067 0)
(10.2611 0.192173 0)
(10.3195 0.214696 0)
(10.4098 0.116493 0)
(10.429 0.125033 0)
(10.5975 0.03829 0)
(10.6404 -0.058551 0)
(10.8496 -0.123091 0)
(10.9137 -0.290367 0)
(11.1304 -0.371283 0)
(11.2764 -0.564128 0)
(11.4095 -0.720596 0)
(11.6188 -0.891926 0)
(11.7955 -1.17952 0)
(11.8198 -1.31119 0)
(11.9985 -1.57541 0)
(12.0278 -1.76225 0)
(12.0206 -1.88077 0)
(11.8097 -1.98642 0)
(11.7107 -1.93925 0)
(11.6559 -1.86949 0)
(11.3577 -1.71774 0)
(11.0623 -1.53213 0)
(10.8278 -1.31283 0)
(10.6142 -0.86494 0)
(10.5502 -0.55213 0)
(10.3358 -0.18283 0)
(10.4553 0.148736 0)
(10.4302 0.422321 0)
(10.458 0.691236 0)
(10.5617 0.920951 0)
(10.4137 1.05435 0)
(10.4319 1.16354 0)
(10.3329 1.26521 0)
(10.1448 1.24116 0)
(9.97493 1.13932 0)
(9.68049 1.09687 0)
(9.56937 0.975531 0)
(9.55249 0.897475 0)
(9.62379 0.928295 0)
(9.75161 0.896364 0)
(10.0304 0.768637 0)
(10.1586 0.694193 0)
(10.3055 0.47251 0)
(10.4988 0.169645 0)
(10.5923 -0.0749323 0)
(10.6419 -0.357586 0)
(10.7247 -0.632061 0)
(10.844 -0.939249 0)
(10.8493 -1.1734 0)
(10.9895 -1.45634 0)
(11.1517 -1.8236 0)
(11.2526 -2.07221 0)
(11.4792 -2.37941 0)
(11.748 -2.76644 0)
(12.0239 -3.03506 0)
(12.3671 -3.42703 0)
(12.7001 -3.75192 0)
(13.0028 -4.0486 0)
(13.3225 -4.36489 0)
(13.4973 -4.54907 0)
(13.67 -4.68292 0)
(13.7453 -4.70539 0)
(13.8191 -4.61629 0)
(13.8626 -4.51508 0)
(14.0499 -4.272 0)
(14.1048 -4.06195 0)
(14.4672 -3.69202 0)
(14.4832 -3.33905 0)
(14.8769 -2.83716 0)
(14.8875 -2.30884 0)
(15.1513 -1.74877 0)
(15.1395 -1.09875 0)
(15.224 -0.514067 0)
(15.144 0.0906697 0)
(15.0809 0.701159 0)
(14.8578 1.20695 0)
(14.7362 1.6686 0)
(14.4073 2.00373 0)
(14.3379 2.2284 0)
(13.9455 2.47048 0)
(13.9495 2.47236 0)
(13.55 2.50714 0)
(13.6876 2.48999 0)
(13.2917 2.29281 0)
(13.5712 2.26491 0)
(13.2361 2.02455 0)
(13.5237 1.90201 0)
(13.3221 1.65187 0)
(13.4741 1.47782 0)
(13.4299 1.16437 0)
(13.4242 0.988104 0)
(13.5716 0.610489 0)
(13.3848 0.428654 0)
(13.691 0.057483 0)
(13.4644 -0.17266 0)
(13.7706 -0.438487 0)
(13.5647 -0.736682 0)
(13.8278 -0.928902 0)
(13.659 -1.25726 0)
(13.8185 -1.31722 0)
(13.72 -1.71133 0)
(13.7783 -1.67951 0)
(13.5699 -2.03745 0)
(13.686 -1.95837 0)
(13.3492 -2.26008 0)
(13.4322 -2.1471 0)
(13.0593 -2.3466 0)
(13.1856 -2.32505 0)
(12.7919 -2.32869 0)
(12.7913 -2.37339 0)
(12.6616 -2.28411 0)
(12.2583 -2.34505 0)
(12.4346 -2.04751 0)
(11.5857 -1.948 0)
(11.9759 -1.73297 0)
(11.0787 -1.30859 0)
(11.3863 -1.17296 0)
(10.5028 -0.72355 0)
(10.8434 -0.270632 0)
(9.77542 -0.101247 0)
(10.3304 0.476437 0)
(9.2851 0.671686 0)
(9.70531 1.18867 0)
(8.95764 1.20093 0)
(9.17171 1.99383 0)
(8.42336 2.12486 0)
(8.77806 2.57576 0)
(7.9337 2.30228 0)
(8.13722 3.19287 0)
(7.52141 3.33645 0)
(6.94029 3.51407 0)
(7.62425 3.53247 0)
(6.38377 3.87405 0)
(7.64849 3.98266 0)
(5.83536 4.53515 0)
(7.50903 4.95656 0)
(6.82528 5.46704 0)
(6.04428 6.31927 0)
(9.15351 5.79775 0)
(5.95978 9.53504 0)
(10.0456 3.69714 0)
(8.92571 11.4056 0)
(11.6062 -0.0979817 0)
(11.5897 -0.254401 0)
(11.7058 -0.310439 0)
(11.7988 -0.292344 0)
(11.8167 -0.20031 0)
(11.8646 -0.13995 0)
(11.8299 -0.0943658 0)
(11.8365 -0.0662222 0)
(11.8012 -0.0728551 0)
(11.7664 -0.0647384 0)
(11.7707 -0.101235 0)
(11.7414 -0.0980975 0)
(11.7634 -0.100754 0)
(11.7539 -0.0943769 0)
(11.7731 -0.0680806 0)
(11.7864 -0.0610064 0)
(11.7991 -0.0267222 0)
(11.8031 -0.0191051 0)
(11.8165 -0.00857381 0)
(11.7923 -0.00146507 0)
(11.8162 -0.0144963 0)
(11.7739 -0.0065687 0)
(11.804 -0.0213362 0)
(11.7748 -0.0220047 0)
(11.8065 -0.0188425 0)
(11.8096 -0.0284835 0)
(11.837 -0.012387 0)
(11.8576 -0.0250058 0)
(11.8824 -0.0227917 0)
(11.9008 -0.0285925 0)
(11.9153 -0.0496451 0)
(11.9124 -0.0507058 0)
(11.9172 -0.0895841 0)
(11.8935 -0.0933828 0)
(11.9026 -0.123117 0)
(11.8436 -0.133734 0)
(11.881 -0.14087 0)
(11.7871 -0.149922 0)
(11.8584 -0.132642 0)
(11.7571 -0.121253 0)
(11.817 -0.0835844 0)
(11.7687 -0.0489922 0)
(11.765 -0.000342186 0)
(11.7984 0.0620883 0)
(11.7312 0.0953951 0)
(11.8051 0.170194 0)
(11.7463 0.186376 0)
(11.7917 0.231164 0)
(11.8035 0.244817 0)
(11.7682 0.243146 0)
(11.8478 0.257939 0)
(11.7701 0.230351 0)
(11.8299 0.253984 0)
(11.8212 0.21602 0)
(11.7827 0.244659 0)
(11.8843 0.216358 0)
(11.7947 0.215466 0)
(11.9217 0.215484 0)
(11.9109 0.159819 0)
(11.9477 0.17946 0)
(12.0871 0.0789806 0)
(12.0505 0.0629869 0)
(12.2365 -0.0291081 0)
(12.2735 -0.141474 0)
(12.388 -0.203282 0)
(12.5232 -0.377481 0)
(12.6081 -0.479216 0)
(12.7356 -0.661343 0)
(12.8025 -0.818801 0)
(12.9365 -0.98322 0)
(12.9634 -1.24648 0)
(12.9516 -1.33055 0)
(13.0107 -1.58321 0)
(12.8468 -1.69253 0)
(12.7279 -1.81516 0)
(12.4987 -1.87461 0)
(12.2334 -1.7983 0)
(11.9629 -1.77906 0)
(11.5662 -1.53541 0)
(11.436 -1.2884 0)
(11.1999 -1.03987 0)
(11.0198 -0.674848 0)
(10.935 -0.451223 0)
(10.7359 -0.106338 0)
(10.7752 0.178475 0)
(10.7503 0.420055 0)
(10.7499 0.680135 0)
(10.9655 0.849241 0)
(10.8559 1.05291 0)
(11.0165 1.16022 0)
(11.0237 1.30014 0)
(10.9866 1.33015 0)
(11.0194 1.29641 0)
(10.9214 1.27836 0)
(10.7391 1.18924 0)
(10.6621 1.016 0)
(10.5225 0.879652 0)
(10.4326 0.802393 0)
(10.5391 0.609659 0)
(10.6023 0.423566 0)
(10.654 0.320525 0)
(10.8045 0.0427474 0)
(10.9285 -0.230764 0)
(10.9637 -0.428824 0)
(11.1016 -0.768318 0)
(11.2544 -1.03619 0)
(11.3885 -1.33198 0)
(11.5752 -1.64434 0)
(11.8133 -1.94564 0)
(12.0546 -2.30919 0)
(12.3121 -2.58539 0)
(12.6409 -2.96171 0)
(12.8881 -3.28829 0)
(13.1818 -3.61685 0)
(13.3962 -3.97865 0)
(13.5202 -4.21222 0)
(13.6509 -4.49646 0)
(13.5832 -4.6189 0)
(13.5841 -4.67216 0)
(13.5597 -4.71661 0)
(13.5685 -4.61811 0)
(13.7464 -4.63568 0)
(13.9447 -4.43119 0)
(14.1591 -4.30995 0)
(14.5407 -3.97511 0)
(14.6154 -3.59568 0)
(15.045 -3.1232 0)
(15.0103 -2.50799 0)
(15.3562 -1.93622 0)
(15.2847 -1.20543 0)
(15.4426 -0.526459 0)
(15.3421 0.128899 0)
(15.3434 0.843504 0)
(15.0144 1.35649 0)
(14.8971 1.90307 0)
(14.4245 2.22533 0)
(14.3409 2.50561 0)
(13.8133 2.63702 0)
(13.7429 2.73294 0)
(13.308 2.61193 0)
(13.3031 2.63353 0)
(12.9933 2.33528 0)
(13.029 2.27931 0)
(12.9974 2.02225 0)
(12.8848 1.82184 0)
(13.1353 1.66583 0)
(12.8745 1.32468 0)
(13.2207 1.23697 0)
(12.8906 0.794273 0)
(13.3011 0.714576 0)
(12.8893 0.22674 0)
(13.3428 0.177213 0)
(13.0027 -0.3569 0)
(13.3531 -0.385203 0)
(13.139 -0.859581 0)
(13.3618 -0.956676 0)
(13.2905 -1.27091 0)
(13.3566 -1.42788 0)
(13.3755 -1.60234 0)
(13.3349 -1.79537 0)
(13.3424 -1.83776 0)
(13.2603 -2.01256 0)