/*--------------------------------*- C++ -*----------------------------------*\
| =========                 |                                                 |
| \\      /  F ield         | OpenFOAM: The Open Source CFD Toolbox           |
|  \\    /   O peration     | Version:  2.4.0                                 |
|   \\  /    A nd           | Web:      www.OpenFOAM.org                      |
|    \\/     M anipulation  |                                                 |
\*---------------------------------------------------------------------------*/
FoamFile
{
    version     2.0;
    format      ascii;
    class       volScalarField;
    location    "0.03";
    object      k;
}
// * * * * * * * * * * * * * * * * * * * * * * * * * * * * * * * * * * * * * //

dimensions      [0 2 -2 0 0 0 0];

internalField   nonuniform List<scalar> 
8800
(
8.13111
10.2793
8.78272
6.83757
5.68393
4.97906
4.52682
4.12243
3.90424
3.69083
3.51135
3.40267
3.29668
3.18993
3.12252
3.00105
2.93075
2.80203
2.77135
2.50609
1.3995
4.36054
5.32238
5.29173
5.11571
4.81463
4.56721
4.28246
4.11106
3.90733
3.72678
3.6244
3.49816
3.38048
3.34882
3.23329
3.17691
3.09299
3.03887
2.98882
0.0837019
0.730615
1.57317
1.93285
2.29128
2.42656
2.54586
2.62752
2.62073
2.60054
2.58806
2.53859
2.51399
2.46765
2.45528
2.40805
2.40719
2.38228
2.36342
2.32577
0.00329472
0.0703051
0.262957
0.40543
0.612189
0.702136
0.793509
0.963772
1.01759
1.0801
1.19241
1.20843
1.24428
1.30467
1.32273
1.34331
1.4041
1.43574
1.45296
1.45988
0.000119482
0.00502497
0.0245455
0.0456939
0.101504
0.1287
0.150436
0.214937
0.243003
0.268083
0.340415
0.357412
0.378437
0.435181
0.451995
0.473084
0.525022
0.575264
0.593071
0.632046
2.4717e-05
0.000321547
0.0015316
0.00339137
0.0100883
0.0138428
0.0170358
0.0283154
0.0331871
0.0386675
0.0587158
0.0646884
0.0714023
0.089939
0.0942452
0.099895
0.117126
0.137128
0.145244
0.164291
2.16911e-05
4.50258e-05
0.000115696
0.000238244
0.000792113
0.0010842
0.0013321
0.00236444
0.00262752
0.0031113
0.00588378
0.00676578
0.00789172
0.0109962
0.0112917
0.0118171
0.0146439
0.0179649
0.0205739
0.0247727
2.11991e-05
3.3059e-05
4.63896e-05
5.86474e-05
0.000116852
0.000143087
0.000156197
0.000215184
0.000214909
0.000227387
0.000438073
0.000500526
0.000588351
0.00084543
0.000822959
0.000838525
0.00106235
0.00125731
0.00159964
0.00195345
2.08769e-05
3.21465e-05
4.34117e-05
4.74704e-05
6.63956e-05
7.76099e-05
7.90613e-05
8.24938e-05
8.01087e-05
7.89557e-05
9.11175e-05
9.79382e-05
0.000107345
0.00012269
0.000118134
0.000116589
0.000124956
0.000130731
0.00014176
0.000163288
2.07001e-05
3.0473e-05
4.00911e-05
4.55547e-05
6.24813e-05
7.02919e-05
7.05415e-05
7.08078e-05
6.80993e-05
6.63838e-05
6.94288e-05
7.58344e-05
7.95292e-05
8.22914e-05
8.19036e-05
7.88978e-05
7.77685e-05
7.77674e-05
7.89019e-05
8.37336e-05
2.06483e-05
3.00428e-05
4.00567e-05
4.61011e-05
6.11448e-05
7.04206e-05
7.13371e-05
7.11149e-05
6.87183e-05
6.75189e-05
6.91125e-05
7.61989e-05
8.07784e-05
8.21744e-05
8.18861e-05
7.96377e-05
7.81646e-05
7.83506e-05
8.01789e-05
8.90897e-05
2.07989e-05
2.98012e-05
3.93643e-05
5.37548e-05
6.80956e-05
8.13911e-05
8.22004e-05
8.0816e-05
8.18619e-05
8.1335e-05
8.40687e-05
0.00010703
0.000115029
0.00011719
0.000125922
0.000131901
0.000135253
0.000150495
0.000187263
0.000278223
2.11362e-05
2.94798e-05
5.66782e-05
9.82084e-05
0.000104002
0.000155254
0.000167179
0.000176515
0.000249631
0.000272935
0.000339894
0.000639201
0.00069972
0.000751489
0.000911163
0.00108635
0.00120118
0.00163144
0.002162
0.00340813
2.18068e-05
4.17239e-05
0.000214873
0.000557514
0.000645297
0.00131147
0.00154659
0.00184599
0.00319253
0.00361053
0.00469736
0.00821202
0.00893012
0.00999732
0.0117675
0.0143125
0.0158218
0.0206792
0.0248006
0.0345729
2.53048e-05
0.000280596
0.00243486
0.00623546
0.00784664
0.0154684
0.0191444
0.023544
0.0379649
0.0422382
0.051076
0.0723827
0.0766694
0.0859972
0.0951011
0.112729
0.12155
0.146686
0.163222
0.201722
0.000123765
0.00465953
0.0291279
0.0628003
0.0806277
0.136048
0.162069
0.19002
0.263448
0.28086
0.314098
0.378327
0.391876
0.42426
0.454291
0.508087
0.532123
0.597788
0.633762
0.710179
0.00330801
0.0672357
0.270604
0.435248
0.549268
0.745102
0.809537
0.912327
1.06208
1.08874
1.15756
1.23481
1.25205
1.29287
1.33366
1.38665
1.4076
1.47142
1.49766
1.54382
0.0828938
0.710592
1.58412
1.94057
2.26685
2.46436
2.53746
2.62249
2.6334
2.59258
2.58795
2.54307
2.52042
2.46708
2.45893
2.43127
2.41143
2.39545
2.37512
2.35512
1.3804
4.35569
5.32707
5.2854
5.14049
4.78564
4.5865
4.31924
4.06187
3.92197
3.76334
3.54961
3.51843
3.37911
3.32857
3.19838
3.15977
3.02785
2.99135
2.88933
8.0872
10.2831
8.80162
6.81081
5.73562
4.93088
4.54976
4.1416
3.86272
3.69956
3.52375
3.34364
3.30573
3.14678
3.09814
2.90825
2.86878
2.67406
2.61382
2.3561
1.76537
1.39305
1.14398
0.928341
0.792865
0.648742
0.484426
0.353148
0.257433
0.192609
0.161811
0.160662
0.162788
0.170515
0.182144
0.186636
0.188629
0.188865
0.187806
0.176436
0.167271
0.16791
0.178555
0.226801
0.302937
0.333536
0.341845
0.338016
0.317128
0.264541
0.181939
0.0974717
0.0528701
0.0325096
0.0212686
0.0159454
0.0142366
0.0128833
0.00978228
0.00767036
0.00733262
0.00867958
0.0104326
0.0107579
0.0107543
0.0105987
0.0103832
0.0100321
0.00944837
0.00906401
0.008955
0.00901121
0.00949425
0.00982879
0.00987926
0.00986463
0.00977239
0.00949113
0.00864238
0.00722122
0.00564588
0.00411535
0.00281646
0.00183043
0.00114311
0.000693257
0.00041186
0.000241458
0.000140548
8.1708e-05
4.77348e-05
2.81937e-05
1.69148e-05
1.03308e-05
6.42172e-06
4.05533e-06
2.59512e-06
1.67847e-06
1.09471e-06
7.1863e-07
4.7414e-07
3.14077e-07
2.08712e-07
1.39052e-07
9.28387e-08
6.20937e-08
4.15922e-08
2.7895e-08
1.87289e-08
1.25867e-08
8.46589e-09
5.69846e-09
3.83828e-09
2.58695e-09
1.74461e-09
1.17721e-09
7.94794e-10
5.36911e-10
3.62915e-10
2.45459e-10
1.66128e-10
1.12519e-10
7.62727e-11
5.1752e-11
3.51533e-11
2.39098e-11
1.62882e-11
1.11176e-11
7.60699e-12
5.22082e-12
3.59703e-12
2.4914e-12
1.73674e-12
1.22116e-12
8.696e-13
6.27476e-13
4.62606e-13
3.50951e-13
2.72548e-13
2.23745e-13
1.91679e-13
1.71291e-13
1.70943e-13
1.75521e-13
1.93505e-13
2.18171e-13
2.85734e-13
3.40307e-13
5.20847e-13
6.26238e-13
1.13899e-12
1.31402e-12
2.96687e-12
3.18577e-12
9.23519e-12
9.38265e-12
3.35335e-11
3.32871e-11
1.37884e-10
1.30658e-10
7.19998e-10
8.38426e-10
4.56561e-09
1.51267e-08
6.60773e-08
3.14156e-07
1.08624e-06
4.02448e-06
1.12446e-05
2.84531e-05
6.77707e-05
0.000126723
0.000268859
0.000372898
0.000606819
0.0006988
0.000919012
0.000984238
0.00115909
0.00120085
0.00132367
0.00134235
0.00144388
0.00146217
0.00159129
0.0016111
0.00167551
0.00168825
0.00186717
0.00182572
0.00194886
0.00194664
0.00200613
0.00203986
0.0022377
0.00200341
0.00186089
0.00160258
0.00158431
0.00135209
0.00129606
0.0011914
0.00125108
0.0012434
0.00126413
0.00132192
0.00134857
0.00158969
0.00139203
0.00164052
0.00150379
0.00177535
0.00182905
0.00211399
0.00252793
0.00394837
0.00744434
0.0151723
0.0746764
0.918162
2.5138
2.05693
1.72228
1.51904
1.34352
1.23026
1.13604
1.02701
0.908698
0.769449
0.617461
0.491394
0.383623
0.318716
0.278477
0.259201
0.259501
0.270256
0.279464
0.288784
0.301285
0.319492
0.350517
0.356452
0.352087
0.341576
0.317918
0.274205
0.197978
0.11356
0.0653479
0.0378164
0.0222711
0.0155676
0.011026
0.00792007
0.00677816
0.00685399
0.00714983
0.00691448
0.00694713
0.00819629
0.0103208
0.0104899
0.0101649
0.00999971
0.00987993
0.00968656
0.0093701
0.00927066
0.00926743
0.00932724
0.00978352
0.0101317
0.0101582
0.0100611
0.00977856
0.00893724
0.00756639
0.00611362
0.00470307
0.00344652
0.00241232
0.00161923
0.00104778
0.00065742
0.000402404
0.000241827
0.000143653
8.49272e-05
5.02834e-05
2.99697e-05
1.80526e-05
1.10187e-05
6.82272e-06
4.28463e-06
2.72539e-06
1.75266e-06
1.13728e-06
7.43297e-07
4.88572e-07
3.22591e-07
2.13766e-07
1.42066e-07
9.46419e-08
6.31745e-08
4.22408e-08
2.82845e-08
1.89629e-08
1.27272e-08
8.55031e-09
5.74915e-09
3.86871e-09
2.6052e-09
1.75554e-09
1.18376e-09
7.9871e-10
5.39248e-10
3.64306e-10
2.46283e-10
1.66613e-10
1.12803e-10
7.64372e-11
5.18457e-11
3.52054e-11
2.39378e-11
1.63025e-11
1.11242e-11
7.60934e-12
5.22095e-12
3.5961e-12
2.49005e-12
1.73528e-12
1.21973e-12
8.68227e-13
6.26194e-13
4.61419e-13
3.49827e-13
2.71511e-13
2.22625e-13
1.90689e-13
1.70074e-13
1.69756e-13
1.74084e-13
1.92714e-13
2.16003e-13
2.87119e-13
3.35683e-13
5.41009e-13
6.20711e-13
1.27472e-12
1.3386e-12
3.82433e-12
3.71015e-12
1.44546e-11
1.57309e-11
4.98911e-11
1.06806e-10
1.71009e-10
1.28806e-09
1.42227e-09
1.30351e-08
3.02229e-08
1.2682e-07
5.3516e-07
1.6593e-06
6.18603e-06
1.52729e-05
4.39615e-05
7.95958e-05
0.000153254
0.000254293
0.000286608
0.000379047
0.00043856
0.000525405
0.000564197
0.000656627
0.000686068
0.000761536
0.000809606
0.000857447
0.000922539
0.000998948
0.00104533
0.00113995
0.00121214
0.00130309
0.00136895
0.00152311
0.00160176
0.00181487
0.00189067
0.0021715
0.00225807
0.00255936
0.00275563
0.00349347
0.00340623
0.00352722
0.00340811
0.00357569
0.00313327
0.00270445
0.00205734
0.0019563
0.00178453
0.00181914
0.00176397
0.00182658
0.00212691
0.00212585
0.00259285
0.00342383
0.00371988
0.00445176
0.00803063
0.0143864
0.0754192
0.418697
2.06336
1.79428
1.59634
1.44192
1.30694
1.21517
1.15115
1.0872
1.02602
0.974662
0.923885
0.86403
0.803897
0.729951
0.656746
0.617703
0.602707
0.577009
0.549715
0.516509
0.486379
0.46702
0.427826
0.383797
0.335844
0.265553
0.177771
0.106013
0.0627689
0.0370974
0.0223759
0.0146524
0.00985207
0.00720524
0.00567249
0.00494501
0.00512185
0.00536104
0.005522
0.00627565
0.0070519
0.00825804
0.00959612
0.00971461
0.00935641
0.00906
0.00898582
0.00895727
0.0090103
0.00932588
0.0101359
0.0104238
0.0104223
0.0103768
0.0102998
0.0101268
0.00971949
0.00863794
0.00719341
0.00570349
0.00431348
0.00312033
0.00216743
0.00145285
0.000944835
0.000599287
0.000372602
0.000228196
0.000138334
8.3407e-05
5.02512e-05
3.03827e-05
1.84992e-05
1.13719e-05
7.06784e-06
4.44296e-06
2.82338e-06
1.81178e-06
1.17246e-06
7.64097e-07
5.00855e-07
3.29855e-07
2.18075e-07
1.4463e-07
9.61713e-08
6.40892e-08
4.27888e-08
2.86133e-08
1.91604e-08
1.28459e-08
8.62164e-09
5.79203e-09
3.89448e-09
2.62068e-09
1.76483e-09
1.18932e-09
8.02038e-10
5.41232e-10
3.65483e-10
2.46977e-10
1.67019e-10
1.13038e-10
7.65703e-11
5.19188e-11
3.52436e-11
2.39561e-11
1.63095e-11
1.1125e-11
7.60706e-12
5.21726e-12
3.59193e-12
2.48588e-12
1.73139e-12
1.21621e-12
8.65099e-13
6.23445e-13
4.58959e-13
3.47639e-13
2.6958e-13
2.20745e-13
1.89034e-13
1.68244e-13
1.67923e-13
1.71967e-13
1.91083e-13
2.12843e-13
2.88714e-13
3.3007e-13
5.68611e-13
6.09283e-13
1.51514e-12
1.37284e-12
6.15745e-12
4.58677e-12
4.75218e-11
4.01425e-11
5.59359e-10
7.78881e-10
5.27403e-09
1.47539e-08
5.11739e-08
1.77934e-07
4.34244e-07
1.41339e-06
2.66507e-06
6.04893e-06
1.20881e-05
1.67661e-05
3.2285e-05
3.44855e-05
3.69032e-05
4.63346e-05
4.75101e-05
5.52117e-05
5.48344e-05
8.14963e-05
8.37963e-05
0.000136101
0.000144257
0.000254096
0.000256706
0.000359717
0.000377039
0.000523961
0.000543124
0.000716649
0.000736637
0.000894648
0.000910121
0.00109832
0.00110595
0.00126548
0.00137337
0.00145545
0.00153468
0.00182964
0.00193762
0.00207548
0.00257686
0.00281693
0.00369853
0.00380059
0.00497632
0.00472186
0.0057345
0.00485268
0.00501214
0.00374989
0.00298409
0.00253947
0.00262253
0.002811
0.00279898
0.00315293
0.00430817
0.00515654
0.0198475
0.0177098
0.0613214
0.208496
1.35814
1.22518
1.13208
1.06971
0.971895
0.90485
0.86362
0.826531
0.813979
0.809274
0.785321
0.745057
0.726364
0.702049
0.661316
0.624664
0.580073
0.546849
0.5145
0.471884
0.437967
0.383099
0.314355
0.231487
0.145062
0.0879741
0.052678
0.0311453
0.0188306
0.0123667
0.00804427
0.0056325
0.00448012
0.00388958
0.00378943
0.00393233
0.00501924
0.00547383
0.00550215
0.00607035
0.00885349
0.00949831
0.00927138
0.0087021
0.00848044
0.00843501
0.00837095
0.00817175
0.00814142
0.00857311
0.0103319
0.0111037
0.0111228
0.010588
0.00992291
0.00970921
0.00960567
0.00939286
0.00863163
0.00672266
0.00487832
0.00340381
0.00230449
0.00151554
0.00097094
0.000608604
0.000375104
0.000228468
0.000138186
8.33795e-05
5.03973e-05
3.06184e-05
1.87447e-05
1.15822e-05
7.22837e-06
4.5564e-06
2.89935e-06
1.86075e-06
1.20319e-06
7.83032e-07
5.12377e-07
3.36814e-07
2.22259e-07
1.4714e-07
9.76757e-08
6.49908e-08
4.33293e-08
2.89374e-08
1.93548e-08
1.29625e-08
8.6916e-09
5.83398e-09
3.91962e-09
2.63573e-09
1.77382e-09
1.19468e-09
8.0522e-10
5.43112e-10
3.66585e-10
2.47616e-10
1.67383e-10
1.1324e-10
7.66777e-11
5.19718e-11
3.5266e-11
2.39616e-11
1.63063e-11
1.11179e-11
7.59858e-12
5.20878e-12
3.58409e-12
2.4789e-12
1.72531e-12
1.21101e-12
8.60648e-13
6.19648e-13
4.55655e-13
3.44686e-13
2.66922e-13
2.18188e-13
1.86683e-13
1.65758e-13
1.65319e-13
1.69125e-13
1.88e-13
2.08866e-13
2.85464e-13
3.23794e-13
5.75201e-13
6.10079e-13
1.6662e-12
1.54004e-12
8.50957e-12
7.36994e-12
9.20813e-11
9.51433e-11
1.46747e-09
1.92482e-09
2.30713e-08
3.77672e-08
2.53038e-07
5.37101e-07
1.80595e-06
4.35067e-06
1.21555e-05
2.10239e-05
6.83187e-05
7.47379e-05
0.000198265
0.000192333
0.000332875
0.000340028
0.000553771
0.000599108
0.00102891
0.00108963
0.00155441
0.0015179
0.00182311
0.00183607
0.00241497
0.00232214
0.00281457
0.00278545
0.00317991
0.00314537
0.0037401
0.0036228
0.00413622
0.00414018
0.00478301
0.00455278
0.00485641
0.00494401
0.00517744
0.00500493
0.00483755
0.00443981
0.0037053
0.00362594
0.00364417
0.0036216
0.00391581
0.00414551
0.00504539
0.00678031
0.00669635
0.00813644
0.00645016
0.00573175
0.00510717
0.0039232
0.00712069
0.00554197
0.0251767
0.0145771
0.0727158
0.0459326
0.053322
0.118782
0.603823
0.562367
0.517955
0.506384
0.494205
0.467402
0.438595
0.414136
0.407652
0.412608
0.415498
0.411885
0.405417
0.397163
0.378614
0.337348
0.303375
0.271527
0.235722
0.198164
0.163679
0.127833
0.0905431
0.0602298
0.0385517
0.0235803
0.0149243
0.00927024
0.00565617
0.00417939
0.00323545
0.00266709
0.00271443
0.00293929
0.00316983
0.00348698
0.00525964
0.00651082
0.0064735
0.00662626
0.00919649
0.0103632
0.00991406
0.0087516
0.00842865
0.00835115
0.00825964
0.00800477
0.00787469
0.00795181
0.00920484
0.0110028
0.0113002
0.0108556
0.00974306
0.0092762
0.00924532
0.00944802
0.00954896
0.00938355
0.00808074
0.00568954
0.00377442
0.00239195
0.00145994
0.000866002
0.000503851
0.000289961
0.000166385
9.58913e-05
5.58333e-05
3.29741e-05
1.97881e-05
1.20673e-05
7.47029e-06
4.68655e-06
2.97388e-06
1.90521e-06
1.23025e-06
7.99614e-07
5.22539e-07
3.43021e-07
2.26036e-07
1.4943e-07
9.90607e-08
6.58267e-08
4.38332e-08
2.92408e-08
1.95373e-08
1.30723e-08
8.75757e-09
5.87358e-09
3.94335e-09
2.64993e-09
1.78229e-09
1.19972e-09
8.08193e-10
5.44855e-10
3.67596e-10
2.48192e-10
1.67705e-10
1.13412e-10
7.67645e-11
5.20102e-11
3.52777e-11
2.39595e-11
1.62977e-11
1.11067e-11
7.58682e-12
5.19756e-12
3.57393e-12
2.46997e-12
1.71757e-12
1.20431e-12
8.5483e-13
6.1465e-13
4.51305e-13
3.40907e-13
2.63521e-13
2.1502e-13
1.83585e-13
1.62728e-13
1.62013e-13
1.65726e-13
1.83572e-13
2.04264e-13
2.78666e-13
3.17943e-13
5.69673e-13
6.18226e-13
1.77387e-12
1.81665e-12
1.05637e-11
1.20709e-11
1.21301e-10
1.69942e-10
1.95291e-09
2.94988e-09
3.35937e-08
4.62079e-08
4.76697e-07
5.86584e-07
4.63384e-06
5.15849e-06
3.04571e-05
3.01155e-05
0.000112455
0.000104528
0.000232975
0.000235311
0.000320206
0.000576051
0.000585756
0.000782616
0.000923927
0.000926974
0.00109733
0.00123218
0.00128347
0.0015237
0.00153723
0.00160759
0.00173985
0.00191416
0.00196999
0.00225239
0.00230118
0.00261538
0.00269547
0.00325047
0.00329345
0.00417823
0.00412188
0.00542879
0.00541907
0.00670107
0.00646607
0.00797968
0.00735663
0.00816654
0.00781185
0.007817
0.00737002
0.00680323
0.00783794
0.00813301
0.00931188
0.0102409
0.0156049
0.0157697
0.0283173
0.0193329
0.0433248
0.0241756
0.051079
0.0317981
0.0478219
0.0502268
0.0520393
0.0775136
0.160606
0.153575
0.146213
0.144933
0.143467
0.141104
0.135215
0.124906
0.120857
0.125715
0.136191
0.135959
0.130599
0.126197
0.119829
0.104616
0.0860955
0.0711075
0.0598179
0.0498303
0.0407504
0.0310246
0.0211082
0.0139673
0.00915657
0.00566356
0.00393818
0.00292586
0.00211213
0.00186191
0.00186985
0.00193791
0.00228446
0.00288325
0.00317793
0.00355412
0.00490147
0.0070935
0.00781284
0.00798411
0.0092146
0.0102356
0.00996867
0.00923547
0.00921757
0.00946042
0.00948567
0.00942457
0.00906507
0.00877496
0.00878337
0.00967547
0.0105129
0.0105629
0.0100897
0.00941312
0.00895935
0.00862531
0.00846675
0.00841222
0.0082971
0.0075043
0.00526326
0.00340697
0.00210593
0.00125657
0.000728719
0.000413539
0.000231356
0.00012865
7.17188e-05
4.04116e-05
2.31715e-05
1.35772e-05
8.13946e-06
4.9858e-06
3.11156e-06
1.97157e-06
1.26412e-06
8.17888e-07
5.3285e-07
3.49022e-07
2.29594e-07
1.51562e-07
1.00344e-07
6.66011e-08
4.43006e-08
2.95228e-08
1.97074e-08
1.31747e-08
8.8192e-09
5.91061e-09
3.96556e-09
2.66321e-09
1.79021e-09
1.20441e-09
8.10955e-10
5.46465e-10
3.68521e-10
2.48713e-10
1.67988e-10
1.13558e-10
7.6832e-11
5.20342e-11
3.52784e-11
2.39487e-11
1.62819e-11
1.10896e-11
7.57036e-12
5.18259e-12
3.56072e-12
2.45855e-12
1.70786e-12
1.19614e-12
8.47884e-13
6.08731e-13
4.46128e-13
3.36439e-13
2.59503e-13
2.1144e-13
1.8005e-13
1.59356e-13
1.58069e-13
1.61838e-13
1.77122e-13
1.98114e-13
2.68079e-13
3.1324e-13
5.64008e-13
6.47214e-13
2.10745e-12
2.70269e-12
1.92935e-11
3.82024e-11
3.47958e-10
1.09013e-09
9.87345e-09
3.0128e-08
2.62743e-07
5.79673e-07
5.48497e-06
6.88867e-06
4.86262e-05
4.69252e-05
0.000156174
0.000161962
0.000282602
0.000290666
0.00078483
0.00087178
0.00178528
0.00196449
0.00231258
0.002289
0.00240914
0.00234696
0.00263742
0.00297629
0.00394175
0.00379592
0.00407192
0.00405103
0.00461175
0.00458231
0.00555136
0.00542887
0.00623415
0.00588781
0.0075651
0.00712757
0.00947403
0.00905325
0.0123918
0.0115594
0.0190341
0.0175976
0.0310994
0.0274318
0.0526507
0.044957
0.0979355
0.0751969
0.156023
0.119234
0.259142
0.184671
0.331774
0.219648
0.350029
0.235856
0.291818
0.185705
0.188712
0.111389
0.109041
0.0656191
0.0649599
0.0612786
0.0573751
0.0658198
0.0246317
0.02403
0.0234135
0.0234513
0.0233598
0.0234643
0.0236326
0.0213824
0.0201308
0.0225379
0.025364
0.0239472
0.0214673
0.0207765
0.0201668
0.0189994
0.0146106
0.010803
0.00909087
0.00779392
0.00636902
0.00509115
0.00376563
0.00262639
0.00189512
0.00139838
0.00131911
0.00138964
0.00146048
0.00154928
0.00171414
0.00201236
0.00300753
0.00396616
0.0046642
0.00643455
0.00777154
0.0088726
0.0105028
0.0121171
0.0123108
0.0120724
0.0112534
0.0110262
0.0113826
0.0118671
0.0118264
0.0119105
0.0124567
0.0124106
0.0113431
0.00989448
0.00943055
0.00948253
0.00986442
0.00996631
0.00990965
0.00955533
0.00867697
0.007806
0.00687211
0.00574784
0.00445755
0.00318208
0.00210564
0.00131018
0.000778553
0.000447877
0.000252344
0.0001407
7.83778e-05
4.39968e-05
2.50643e-05
1.45616e-05
8.64652e-06
5.24594e-06
3.24503e-06
2.04042e-06
1.30008e-06
8.37044e-07
5.43325e-07
3.54911e-07
2.32987e-07
1.53554e-07
1.01529e-07
6.73115e-08
4.47283e-08
2.97808e-08
1.98631e-08
1.32687e-08
8.87581e-09
5.94466e-09
3.98599e-09
2.67543e-09
1.79748e-09
1.20871e-09
8.1348e-10
5.47928e-10
3.69354e-10
2.49174e-10
1.68231e-10
1.13676e-10
7.68797e-11
5.20437e-11
3.52685e-11
2.393e-11
1.62603e-11
1.10681e-11
7.55059e-12
5.1651e-12
3.54562e-12
2.44564e-12
1.69688e-12
1.18689e-12
8.40081e-13
6.02197e-13
4.40439e-13
3.31508e-13
2.54932e-13
2.07419e-13
1.75901e-13
1.55863e-13
1.53507e-13
1.5793e-13
1.69059e-13
2.01794e-13
2.38297e-13
3.30267e-13
4.61123e-13
7.74991e-13
1.78101e-12
5.47906e-12
2.71981e-11
1.44794e-10
9.83266e-10
5.83877e-09
3.55569e-08
1.83269e-07
8.76936e-07
3.28373e-06
1.14522e-05
2.65192e-05
7.42931e-05
9.14105e-05
0.000166877
0.000192179
0.000465891
0.000527318
0.00130561
0.00142256
0.00140209
0.00169544
0.00174316
0.00195653
0.0020386
0.00244427
0.00283883
0.00306131
0.00356658
0.00388485
0.00410656
0.00466809
0.00504322
0.00558818
0.00718237
0.00728118
0.00737494
0.00806582
0.0100669
0.010134
0.0109046
0.011788
0.0134684
0.0140814
0.0157698
0.0173882
0.0190159
0.0221318
0.0256429
0.0301896
0.0342504
0.0442487
0.0543243
0.0705732
0.0818538
0.108767
0.128317
0.166057
0.176179
0.204652
0.202715
0.203887
0.199077
0.172187
0.168663
0.137433
0.13033
0.110869
0.0810191
0.0737306
0.0019611
0.00193414
0.00192087
0.00196322
0.00197917
0.0019864
0.002049
0.00191925
0.00171912
0.00183642
0.00203331
0.00197479
0.00192577
0.00193979
0.0018947
0.00163106
0.00125396
0.0010401
0.000988027
0.000958841
0.000947571
0.000962859
0.000882562
0.000838717
0.000838744
0.000873867
0.00108964
0.00134235
0.0016104
0.00236141
0.00313973
0.00390392
0.00619173
0.0081951
0.00922155
0.0123757
0.0150503
0.0152315
0.0155611
0.0178712
0.0181859
0.0170676
0.0154043
0.0148203
0.0145053
0.0139072
0.0128133
0.01262
0.0136928
0.0149119
0.0145436
0.0124439
0.0107997
0.0100005
0.00992463
0.0107023
0.0114102
0.0113858
0.0106424
0.00876223
0.00707366
0.00545662
0.00393912
0.00266027
0.00170002
0.00104356
0.00062355
0.00036604
0.000212467
0.0001226
7.07039e-05
4.09739e-05
2.398e-05
1.42279e-05
8.57725e-06
5.25633e-06
3.27151e-06
2.06418e-06
1.31741e-06
8.48656e-07
5.5076e-07
3.59544e-07
2.35831e-07
1.55286e-07
1.02579e-07
6.79471e-08
4.51128e-08
3.00134e-08
2.00037e-08
1.33536e-08
8.92703e-09
5.9755e-09
4.0045e-09
2.6865e-09
1.80407e-09
1.2126e-09
8.1575e-10
5.49233e-10
3.70086e-10
2.4957e-10
1.68433e-10
1.13767e-10
7.69095e-11
5.20411e-11
3.52503e-11
2.39054e-11
1.62345e-11
1.10436e-11
7.52839e-12
5.14567e-12
3.529e-12
2.43159e-12
1.68504e-12
1.17689e-12
8.31571e-13
5.95036e-13
4.34298e-13
3.26283e-13
2.50157e-13
2.03231e-13
1.71395e-13
1.52137e-13
1.48428e-13
1.53971e-13
1.62123e-13
2.06416e-13
2.23676e-13
3.91254e-13
4.19685e-13
1.29811e-12
1.77878e-12
1.03254e-11
3.18083e-11
2.65306e-10
1.15422e-09
8.8456e-09
3.6975e-08
2.10956e-07
6.69876e-07
2.80195e-06
5.40193e-06
1.8806e-05
2.27903e-05
4.96321e-05
0.000126976
0.000241809
0.000643427
0.000665151
0.000545993
0.000971231
0.00100675
0.00115653
0.00118227
0.00146117
0.00187659
0.00211737
0.00254368
0.00281031
0.00259255
0.00297635
0.00311206
0.00350691
0.00383385
0.00479121
0.00475506
0.00544845
0.00564535
0.00649392
0.00727232
0.00797553
0.00943728
0.0105293
0.0111735
0.0122509
0.0163837
0.0165538
0.0197247
0.0205631
0.0290565
0.0289246
0.0370929
0.0395935
0.0566032
0.0600731
0.070832
0.0873065
0.100521
0.132563
0.143337
0.171119
0.175197
0.188514
0.189767
0.181216
0.178735
0.170846
0.161388
0.155182
0.140673
0.102959
0.000166246
0.00016727
0.000171108
0.000181181
0.000182689
0.000188013
0.000216651
0.000210874
0.000209565
0.000201541
0.000283114
0.000335912
0.00029928
0.000256455
0.000276744
0.000334432
0.000352096
0.0003233
0.000336137
0.000432122
0.000549603
0.000607046
0.000674588
0.000786962
0.001091
0.0014105
0.00195606
0.00290365
0.00393212
0.00627992
0.0087319
0.0106186
0.0134377
0.0175419
0.0196174
0.0214312
0.0237483
0.0245505
0.0257367
0.0260356
0.0255743
0.0231433
0.0216274
0.0211989
0.0206772
0.0195367
0.0164904
0.0141255
0.0133814
0.0135909
0.0138674
0.0136184
0.0125001
0.0115859
0.0111021
0.0111049
0.0120067
0.0125528
0.0122124
0.00955389
0.00644952
0.00442981
0.00306873
0.00208714
0.00136284
0.000848734
0.000509334
0.000298993
0.000173678
0.000100833
5.89746e-05
3.49311e-05
2.10078e-05
1.28337e-05
7.9554e-06
4.99459e-06
3.16937e-06
2.02884e-06
1.30805e-06
8.48295e-07
5.5282e-07
3.61753e-07
2.37567e-07
1.56499e-07
1.0338e-07
6.84582e-08
4.54328e-08
3.02113e-08
2.01251e-08
1.34277e-08
8.97202e-09
6.00271e-09
4.02089e-09
2.69631e-09
1.80991e-09
1.21604e-09
8.17758e-10
5.5038e-10
3.70725e-10
2.4991e-10
1.686e-10
1.13836e-10
7.69248e-11
5.20291e-11
3.52257e-11
2.38764e-11
1.62054e-11
1.10166e-11
7.50443e-12
5.12492e-12
3.51131e-12
2.41665e-12
1.67254e-12
1.16648e-12
8.22781e-13
5.87589e-13
4.27867e-13
3.20762e-13
2.45218e-13
1.98909e-13
1.67035e-13
1.48297e-13
1.43267e-13
1.50292e-13
1.55333e-13
2.06369e-13
2.09535e-13
4.17433e-13
3.69283e-13
1.66274e-12
1.46626e-12
1.8335e-11
3.01113e-11
3.19927e-10
1.06989e-09
8.29319e-09
2.89435e-08
1.51421e-07
4.10453e-07
1.64476e-06
2.2417e-06
7.05999e-06
7.89617e-06
1.9712e-05
5.402e-05
0.000211596
0.000163378
0.00037041
0.000342781
0.000539812
0.00057187
0.000698996
0.000799112
0.00108051
0.00127365
0.00178834
0.00150794
0.00216975
0.00195198
0.0022739
0.00257218
0.00313989
0.00290053
0.00367586
0.00332121
0.00394725
0.00402997
0.00480459
0.00446044
0.00577388
0.00521083
0.00639743
0.00614707
0.0081128
0.00725108
0.0102646
0.00909262
0.0129168
0.011659
0.0178397
0.0152925
0.023271
0.0205571
0.0322505
0.027623
0.045331
0.0407241
0.0691691
0.061134
0.0947785
0.0905491
0.129268
0.134983
0.163605
0.167902
0.172619
0.171565
0.168109
0.163567
0.141685
8.9121e-05
9.2212e-05
9.25234e-05
0.000116649
0.000120239
0.000115508
0.000106014
0.00010588
0.000104441
0.000124894
0.00015923
0.000157227
0.00014786
0.00016813
0.000193676
0.000207436
0.000260371
0.000303927
0.000373975
0.00044879
0.00064739
0.000860806
0.00135611
0.00187762
0.0029555
0.00453666
0.00615702
0.00880908
0.012965
0.016883
0.0210908
0.0283514
0.032386
0.0357548
0.0414784
0.0435281
0.0434267
0.0437445
0.0437223
0.0427347
0.037289
0.0328122
0.0321716
0.0318125
0.0293375
0.0242247
0.0224598
0.0203245
0.016821
0.014384
0.0133016
0.0133302
0.0149524
0.015731
0.0156265
0.0147335
0.0122567
0.0100076
0.00865017
0.00815451
0.00805621
0.00793078
0.00702512
0.00488626
0.00313348
0.00188314
0.00107033
0.000582138
0.000307952
0.000161224
8.49193e-05
4.5633e-05
2.52636e-05
1.44729e-05
8.57141e-06
5.22366e-06
3.25581e-06
2.06332e-06
1.32331e-06
8.56001e-07
5.57203e-07
3.6444e-07
2.39269e-07
1.57585e-07
1.04069e-07
6.88923e-08
4.57038e-08
3.03792e-08
2.02284e-08
1.34909e-08
9.0105e-09
6.02602e-09
4.03494e-09
2.70473e-09
1.81491e-09
1.21899e-09
8.19462e-10
5.51347e-10
3.71255e-10
2.50185e-10
1.68728e-10
1.13883e-10
7.69276e-11
5.20098e-11
3.51968e-11
2.38449e-11
1.61749e-11
1.09888e-11
7.47998e-12
5.10388e-12
3.49346e-12
2.40161e-12
1.65994e-12
1.15595e-12
8.13965e-13
5.80186e-13
4.21491e-13
3.1519e-13
2.40295e-13
1.94316e-13
1.62763e-13
1.44259e-13
1.38581e-13
1.45547e-13
1.49414e-13
1.98991e-13
1.9855e-13
3.95856e-13
3.31681e-13
1.5039e-12
1.14624e-12
1.58765e-11
2.1532e-11
2.57653e-10
7.33475e-10
5.50903e-09
1.82753e-08
9.10839e-08
2.3643e-07
8.83135e-07
1.07634e-06
2.72211e-06
2.29862e-06
5.17152e-06
1.10129e-05
9.50938e-05
5.24706e-05
0.000177366
0.000163839
0.000276981
0.000275673
0.000387197
0.000330694
0.000573521
0.000524975
0.000988982
0.000705366
0.00106001
0.000898071
0.00122926
0.00128732
0.00182106
0.00143962
0.002142
0.00187277
0.00245475
0.0025169
0.00307148
0.00260125
0.00349761
0.00329007
0.00391039
0.00365396
0.00496496
0.00430852
0.00568884
0.00512861
0.00748518
0.00632927
0.00943217
0.00809034
0.01228
0.0105013
0.0164984
0.0144372
0.0241045
0.0210319
0.0342452
0.0318469
0.0517176
0.0529913
0.0833707
0.0876416
0.116909
0.123022
0.143372
0.156914
0.161293
0.161142
0.155504
9.29694e-05
9.26363e-05
0.000108557
0.000124473
0.000120547
0.000111887
0.000112307
0.000118917
0.000160379
0.00016791
0.000168091
0.000230774
0.000250343
0.000263175
0.000286244
0.000539328
0.000722067
0.00097116
0.00123062
0.00150704
0.00246494
0.00336516
0.0052005
0.00720483
0.0100754
0.0159955
0.0196294
0.0277718
0.0378332
0.0445211
0.053971
0.065376
0.074376
0.0775744
0.0807566
0.0808728
0.0796349
0.0757368
0.0721483
0.064373
0.0558318
0.051783
0.04943
0.0431251
0.0341018
0.0292302
0.0281914
0.027563
0.0245345
0.0194157
0.0171635
0.0169388
0.0175583
0.017627
0.0159184
0.0130665
0.0119308
0.0115624
0.0109503
0.00970103
0.00817152
0.00659246
0.00515043
0.00392548
0.0028867
0.00199669
0.00127577
0.000753437
0.000417278
0.000221313
0.000114958
5.97356e-05
3.16154e-05
1.72599e-05
9.77755e-06
5.74394e-06
3.48163e-06
2.16281e-06
1.36816e-06
8.76835e-07
5.67225e-07
3.69447e-07
2.41872e-07
1.5899e-07
1.04854e-07
6.93425e-08
4.59672e-08
3.05354e-08
2.03219e-08
1.35471e-08
9.04435e-09
6.04639e-09
4.04716e-09
2.71203e-09
1.81923e-09
1.22152e-09
8.20924e-10
5.5217e-10
3.717e-10
2.50411e-10
1.6883e-10
1.13915e-10
7.69229e-11
5.19873e-11
3.51673e-11
2.38141e-11
1.61456e-11
1.09625e-11
7.45717e-12
5.08446e-12
3.47715e-12
2.38803e-12
1.64871e-12
1.14668e-12
8.06283e-13
5.73845e-13
4.16288e-13
3.10671e-13
2.36514e-13
1.90778e-13
1.59644e-13
1.40853e-13
1.35374e-13
1.409e-13
1.45661e-13
1.87141e-13
1.9312e-13
3.4777e-13
3.25934e-13
1.06386e-12
1.00333e-12
7.4227e-12
1.27948e-11
9.54857e-11
3.39138e-10
2.1475e-09
7.79865e-09
3.41265e-08
9.22934e-08
3.15466e-07
3.90889e-07
1.08757e-06
7.32194e-07
1.55718e-06
2.35849e-06
1.67969e-05
1.5309e-05
6.76057e-05
6.93401e-05
8.57552e-05
8.96133e-05
0.000133027
0.000135976
0.000191309
0.000209726
0.000419271
0.000405042
0.000517852
0.000524476
0.000688927
0.000771198
0.00108628
0.00100868
0.00134653
0.00130913
0.00161273
0.00169881
0.00211901
0.00206583
0.00247982
0.0025668
0.00290653
0.00288436
0.00340526
0.0034194
0.00383829
0.00384452
0.00467533
0.00468271
0.00584591
0.00554729
0.00725759
0.00731204
0.010637
0.00966389
0.0131503
0.0131051
0.0197765
0.0202205
0.0329583
0.032428
0.0454164
0.04782
0.0667035
0.0729522
0.0917101
0.104866
0.129457
0.144181
0.148073
0.000305607
0.000361986
0.000421255
0.000412163
0.000356872
0.000345494
0.000357053
0.000477348
0.000672533
0.000699212
0.000700159
0.000723139
0.00100225
0.00144515
0.00189271
0.00225332
0.00265463
0.00382139
0.00571585
0.00701635
0.0106323
0.0135138
0.0191405
0.0256786
0.0352534
0.049851
0.0587195
0.0761397
0.098173
0.111204
0.130769
0.143438
0.153886
0.155793
0.153806
0.148519
0.13672
0.124254
0.114397
0.096482
0.084277
0.0778527
0.0649486
0.0520036
0.0461228
0.0419078
0.0353843
0.0296456
0.0271791
0.0273646
0.0274931
0.0256072
0.0208864
0.0174146
0.0152384
0.0149219
0.0157335
0.0159638
0.0140886
0.00883038
0.00543825
0.00349239
0.00231445
0.00155302
0.00103168
0.000663785
0.000409485
0.000244445
0.000143968
8.52439e-05
5.13179e-05
3.14923e-05
1.9642e-05
1.23947e-05
7.88299e-06
5.04106e-06
3.23738e-06
2.08674e-06
1.34975e-06
8.76036e-07
5.70488e-07
3.72727e-07
2.44286e-07
1.60583e-07
1.05852e-07
6.9954e-08
4.63381e-08
3.07599e-08
2.04581e-08
1.36301e-08