/*--------------------------------*- C++ -*----------------------------------*\
| =========                 |                                                 |
| \\      /  F ield         | OpenFOAM: The Open Source CFD Toolbox           |
|  \\    /   O peration     | Version:  2.4.0                                 |
|   \\  /    A nd           | Web:      www.OpenFOAM.org                      |
|    \\/     M anipulation  |                                                 |
\*---------------------------------------------------------------------------*/
FoamFile
{
    version     2.0;
    format      ascii;
    class       surfaceScalarField;
    location    "0.03";
    object      phi_0;
}
// * * * * * * * * * * * * * * * * * * * * * * * * * * * * * * * * * * * * * //

dimensions      [0 3 -1 0 0 0 0];

internalField   nonuniform List<scalar> 
17320
(
1.76486e-05
7.35142e-06
1.16157e-05
6.03283e-06
8.66232e-06
2.95343e-06
7.38804e-06
1.27428e-06
6.6913e-06
6.96741e-07
6.32407e-06
3.67231e-07
6.12014e-06
2.03934e-07
5.82233e-06
2.97807e-07
5.68416e-06
1.38171e-07
5.65612e-06
2.80386e-08
5.45105e-06
2.05074e-07
5.39121e-06
5.98359e-08
5.39468e-06
-3.47414e-09
5.20834e-06
1.86345e-07
5.12681e-06
8.15273e-08
5.12198e-06
4.83043e-09
4.95253e-06
1.69446e-07
4.85527e-06
9.72658e-08
4.57655e-06
2.78723e-07
-6.11386e-07
5.18793e-06
2.54807e-05
6.87071e-06
2.32397e-05
8.27389e-06
2.09708e-05
5.22227e-06
1.93533e-05
2.89178e-06
1.80268e-05
2.02328e-06
1.7114e-05
1.27996e-06
1.63977e-05
9.20329e-07
1.56951e-05
1.00031e-06
1.53086e-05
5.24745e-07
1.50016e-05
3.34974e-07
1.45823e-05
6.24386e-07
1.44104e-05
2.31769e-07
1.4242e-05
1.64957e-07
1.39436e-05
4.84743e-07
1.37695e-05
2.55618e-07
1.36213e-05
1.53019e-07
1.33253e-05
4.65392e-07
1.31312e-05
2.91367e-07
1.2971e-05
4.38952e-07
-5.00004e-07
1.28596e-05
2.6635e-05
5.23566e-06
2.71518e-05
7.75709e-06
2.67812e-05
5.59294e-06
2.6284e-05
3.38897e-06
2.55342e-05
2.77305e-06
2.48851e-05
1.92904e-06
2.41871e-05
1.61833e-06
2.341e-05
1.77743e-06
2.2957e-05
9.77764e-07
2.24988e-05
7.9312e-07
2.19637e-05
1.15957e-06
2.17408e-05
4.54647e-07
2.14282e-05
4.77573e-07
2.10716e-05
8.41289e-07
2.08664e-05
4.60817e-07
2.06198e-05
3.99611e-07
2.03035e-05
7.81724e-07
2.00145e-05
5.80317e-07
1.98519e-05
6.01579e-07
4.32614e-07
1.89193e-05
2.63237e-05
3.91199e-06
2.74842e-05
6.59655e-06
2.80951e-05
4.98204e-06
2.84972e-05
2.98692e-06
2.85624e-05
2.7078e-06
2.86272e-05
1.86424e-06
2.84919e-05
1.75368e-06
2.81363e-05
2.13303e-06
2.80124e-05
1.10167e-06
2.77545e-05
1.05097e-06
2.73373e-05
1.57677e-06
2.72574e-05
5.34531e-07
2.69702e-05
7.64776e-07
2.66411e-05
1.17046e-06
2.64965e-05
6.05373e-07
2.62654e-05
6.30703e-07
2.59882e-05
1.05892e-06
2.57654e-05
8.03168e-07
2.57215e-05
6.45429e-07
6.27239e-07
2.55269e-05
2.60625e-05
2.84952e-06
2.70901e-05
5.56895e-06
2.79721e-05
4.10002e-06
2.85433e-05
2.41569e-06
2.89365e-05
2.3146e-06
2.93222e-05
1.47852e-06
2.95747e-05
1.50118e-06
2.96532e-05
2.05459e-06
2.98842e-05
8.70632e-07
2.99979e-05
9.37305e-07
2.99028e-05
1.67185e-06
3.00343e-05
4.03033e-07
3.00011e-05
7.97913e-07
2.98746e-05
1.29702e-06
2.99019e-05
5.78055e-07
2.98486e-05
6.83976e-07
2.978e-05
1.12753e-06
2.97754e-05
8.07757e-07
2.98082e-05
6.12645e-07
4.76447e-07
2.9959e-05
2.58833e-05
1.96618e-06
2.6847e-05
4.60528e-06
2.77001e-05
3.24699e-06
2.82416e-05
1.87414e-06
2.87157e-05
1.84055e-06
2.91082e-05
1.08601e-06
2.9436e-05
1.1733e-06
2.97054e-05
1.78524e-06
2.99718e-05
6.04233e-07
3.0235e-05
6.74084e-07
3.04015e-05
1.50541e-06
3.05819e-05
2.22555e-07
3.07159e-05
6.63945e-07
3.08158e-05
1.19714e-06
3.09721e-05
4.21694e-07
3.1086e-05
5.7017e-07
3.1254e-05
9.59517e-07
3.14739e-05
5.87786e-07
3.16732e-05
4.13359e-07
1.90418e-07
3.19592e-05
2.57032e-05
1.26294e-06
2.67319e-05
3.57662e-06
2.75628e-05
2.41605e-06
2.80428e-05
1.39416e-06
2.8487e-05
1.39635e-06
2.88696e-05
7.03462e-07
2.91853e-05
8.57527e-07
2.95303e-05
1.44031e-06
2.97478e-05
3.86689e-07
2.99686e-05
4.53297e-07
3.02431e-05
1.23092e-06
3.04123e-05
5.33373e-08
3.0576e-05
5.00239e-07
3.07829e-05
9.90215e-07
3.0969e-05
2.35612e-07
3.11415e-05
3.97744e-07
3.1385e-05
7.16012e-07
3.16724e-05
3.00312e-07
3.19166e-05
1.69198e-07
-6.0155e-09
3.2113e-05
2.55786e-05
6.8438e-07
2.66237e-05
2.53153e-06
2.74495e-05
1.59021e-06
2.79492e-05
8.94472e-07
2.83305e-05
1.01508e-06
2.86969e-05
3.37039e-07
2.89943e-05
5.6009e-07
2.93828e-05
1.05183e-06
2.9598e-05
1.71487e-07
2.97591e-05
2.92198e-07
3.00627e-05
9.27258e-07
3.02245e-05
-1.08383e-07
3.03908e-05
3.33857e-07
3.06133e-05
7.67779e-07
3.08333e-05
1.55535e-08
3.10081e-05
2.22977e-07
3.12553e-05
4.68836e-07
3.15075e-05
4.80597e-08
3.17282e-05
-5.14504e-08
-1.24251e-07
3.18464e-05
2.54901e-05
1.94303e-07
2.65148e-05
1.50685e-06
2.73724e-05
7.32534e-07
2.7898e-05
3.68886e-07
2.82312e-05
6.81893e-07
2.8602e-05
-3.38004e-08
2.88736e-05
2.88566e-07
2.92674e-05
6.58038e-07
2.95006e-05
-6.17879e-08
2.96527e-05
1.40083e-07
2.99498e-05
6.30219e-07
3.01062e-05
-2.64799e-07
3.02714e-05
1.68689e-07
3.05129e-05
5.26282e-07
3.07292e-05
-2.00766e-07
3.09177e-05
3.45072e-08
3.11529e-05
2.33602e-07
3.13757e-05
-1.74775e-07
3.15804e-05
-2.56099e-07
-3.31985e-07
3.17881e-05
2.54553e-05
-2.61045e-07
2.6459e-05
5.03151e-07
2.73156e-05
-1.24016e-07
2.78591e-05
-1.74581e-07
2.81893e-05
3.51633e-07
2.85562e-05
-4.00661e-07
2.88079e-05
3.68736e-08
2.92169e-05
2.49011e-07
2.94715e-05
-3.16407e-07
2.95897e-05
2.18648e-08
2.98989e-05
3.21108e-07
3.00682e-05
-4.34186e-07
3.02085e-05
2.84191e-08
3.04595e-05
2.75306e-07
3.06772e-05
-4.18512e-07
3.08814e-05
-1.69704e-07
3.10991e-05
1.5974e-08
3.12986e-05
-3.74322e-07
3.15269e-05
-4.84409e-07
-6.26441e-07
3.18214e-05
2.5452e-05
-7.13073e-07
2.64448e-05
-4.89584e-07
2.73197e-05
-9.98978e-07
2.7869e-05
-7.23886e-07
2.81765e-05
4.41393e-08
2.8564e-05
-7.88125e-07
2.88152e-05
-2.14384e-07
2.92005e-05
-1.36217e-07
2.94866e-05
-6.02496e-07
2.95892e-05
-8.08079e-08
2.99003e-05
1.00694e-08
3.00709e-05
-6.04799e-07
3.02054e-05
-1.06131e-07
3.04732e-05
7.56605e-09
3.06717e-05
-6.17028e-07
3.08789e-05
-3.76883e-07
3.1098e-05
-2.03139e-07
3.13017e-05
-5.78003e-07
3.15407e-05
-7.23477e-07
-7.10367e-07
3.16247e-05
2.54918e-05
-1.20485e-06
2.64946e-05
-1.49237e-06
2.73654e-05
-1.86983e-06
2.79083e-05
-1.26681e-06
2.82072e-05
-2.54757e-07
2.86187e-05
-1.19961e-06
2.8874e-05
-4.69621e-07
2.92444e-05
-5.06704e-07
2.95592e-05
-9.1723e-07
2.96362e-05
-1.57814e-07
2.99497e-05
-3.03494e-07
3.01433e-05
-7.98307e-07
3.02546e-05
-2.17498e-07
3.05321e-05
-2.69953e-07
3.0718e-05
-8.02841e-07
3.09321e-05
-5.91017e-07
3.11434e-05
-4.14434e-07
3.13605e-05
-7.95074e-07
3.157e-05
-9.32986e-07
-6.76732e-07
3.15363e-05
2.55649e-05
-1.76977e-06
2.6584e-05
-2.51149e-06
2.74687e-05
-2.75448e-06
2.79803e-05
-1.77846e-06
2.82922e-05
-5.66657e-07
2.87324e-05
-1.63977e-06
2.89998e-05
-7.37055e-07
2.9336e-05
-8.42824e-07
2.96732e-05
-1.25443e-06
2.97469e-05
-2.31526e-07
3.0061e-05
-6.17637e-07
3.02662e-05
-1.00346e-06
3.03722e-05
-3.23571e-07
3.06491e-05
-5.46812e-07
3.08165e-05
-9.70217e-07
3.10266e-05
-8.01139e-07
3.12326e-05
-6.20462e-07
3.14771e-05
-1.0395e-06
3.16763e-05
-1.1322e-06
-9.05305e-07
3.19048e-05
2.56637e-05
-2.43351e-06
2.67259e-05
-3.57366e-06
2.76198e-05
-3.64842e-06
2.80696e-05
-2.22818e-06
2.84771e-05
-9.74167e-07
2.89135e-05
-2.07625e-06
2.91675e-05
-9.90994e-07
2.94854e-05
-1.16071e-06
2.98388e-05
-1.60782e-06
2.99332e-05
-3.26011e-07
3.02479e-05
-9.32251e-07
3.04552e-05
-1.21078e-06
3.05591e-05
-4.27485e-07
3.08008e-05
-7.88506e-07
3.09543e-05
-1.1237e-06
3.11572e-05
-1.00403e-06
3.13416e-05
-8.04907e-07
3.16114e-05
-1.3093e-06
3.18532e-05
-1.37399e-06
-1.23426e-06
3.21821e-05
2.57689e-05
-3.20244e-06
2.69315e-05
-4.73623e-06
2.78203e-05
-4.53724e-06
2.82586e-05
-2.66642e-06
2.87903e-05
-1.50593e-06
2.91376e-05
-2.42348e-06
2.93809e-05
-1.23428e-06
2.97075e-05
-1.48735e-06
3.00003e-05
-1.90063e-06
3.01705e-05
-4.96186e-07
3.04396e-05
-1.20137e-06
3.05765e-05
-1.34765e-06
3.06789e-05
-5.29884e-07
3.08379e-05
-9.47496e-07
3.09316e-05
-1.21744e-06
3.10562e-05
-1.12862e-06
3.11725e-05
-9.212e-07
3.1351e-05
-1.48785e-06
3.1482e-05
-1.50493e-06
-1.48749e-06
3.17352e-05
2.5923e-05
-4.12545e-06
2.72657e-05
-6.0789e-06
2.80322e-05
-5.30377e-06
2.85153e-05
-3.14952e-06
2.91015e-05
-2.09216e-06
2.92693e-05
-2.59129e-06
2.95348e-05
-1.49975e-06
2.97529e-05
-1.70547e-06
2.97853e-05
-1.93304e-06
2.99568e-05
-6.67635e-07
2.99924e-05
-1.23693e-06
2.99237e-05
-1.27901e-06
2.99614e-05
-5.67555e-07
2.99e-05
-8.86133e-07
2.97997e-05
-1.11711e-06
2.97179e-05
-1.04682e-06
2.96511e-05
-8.54402e-07
2.95366e-05
-1.37335e-06
2.93998e-05
-1.36818e-06
-1.48464e-06
2.9397e-05
2.62278e-05
-5.35321e-06
2.76291e-05
-7.48023e-06
2.80619e-05
-5.73663e-06
2.84561e-05
-3.5437e-06
2.87322e-05
-2.36824e-06
2.85073e-05
-2.36635e-06
2.85117e-05
-1.50418e-06
2.82631e-05
-1.45687e-06
2.78412e-05
-1.5111e-06
2.77794e-05
-6.05911e-07
2.74235e-05
-8.80966e-07
2.70825e-05
-9.38003e-07
2.69505e-05
-4.35545e-07
2.6648e-05
-5.83667e-07
2.63385e-05
-8.07617e-07
2.60546e-05
-7.62963e-07
2.58083e-05
-6.08011e-07
2.54315e-05
-9.96626e-07
2.5114e-05
-1.05069e-06
-1.20764e-06
2.4837e-05
2.65756e-05
-6.92878e-06
2.72314e-05
-8.13603e-06
2.67545e-05
-5.25973e-06
2.62466e-05
-3.03584e-06
2.56566e-05
-1.77822e-06
2.47814e-05
-1.49118e-06
2.42089e-05
-9.31634e-07
2.35054e-05
-7.53435e-07
2.28146e-05
-8.20253e-07
2.25238e-05
-3.15141e-07
2.20151e-05
-3.7227e-07
2.15968e-05
-5.19692e-07
2.13834e-05
-2.2219e-07
2.10577e-05
-2.5794e-07
2.07058e-05
-4.55695e-07
2.03725e-05
-4.29619e-07
2.0079e-05
-3.14596e-07
1.96444e-05
-5.6198e-07
1.92629e-05
-6.69184e-07
-7.28297e-07
1.87835e-05
2.54419e-05
-7.3707e-06
2.32962e-05
-5.99033e-06
2.09833e-05
-2.9468e-06
1.93061e-05
-1.35866e-06
1.81129e-05
-5.85009e-07
1.70553e-05
-4.33593e-07
1.63799e-05
-2.56223e-07
1.57807e-05
-1.54239e-07
1.52168e-05
-2.5638e-07
1.49716e-05
-6.98763e-08
1.46431e-05
-4.37376e-08
1.43125e-05
-1.89168e-07
1.41508e-05
-6.04931e-08
1.39415e-05
-4.86155e-08
1.36446e-05
-1.58798e-07
1.33634e-05
-1.48369e-07
1.3132e-05
-8.32436e-08
1.27698e-05
-1.99745e-07
1.23814e-05
-2.80821e-07
-2.34759e-07
1.18879e-05
1.76293e-05
1.1639e-05
8.69216e-06
7.3335e-06
6.74849e-06
6.3149e-06
6.05867e-06
5.90443e-06
5.64805e-06
5.57818e-06
5.53444e-06
5.34527e-06
5.28478e-06
5.23616e-06
5.07737e-06
4.929e-06
4.84575e-06
4.64601e-06
4.36519e-06
4.13043e-06
5.47433e-06
-6.37367e-07
3.50972e-07
5.62266e-06
-4.5449e-07
3.06154e-07
5.73981e-06
-3.15171e-07
1.98019e-07
5.97758e-06
-1.12317e-07
-1.25447e-07
6.23696e-06
-7.28886e-08
-1.86493e-07
6.62817e-06
3.8421e-07
-7.75424e-07
7.16961e-06
7.52543e-07
-1.29398e-06
8.05923e-06
1.09671e-06
-1.98633e-06
9.20204e-06
1.5043e-06
-2.64711e-06
1.06675e-05
2.04804e-06
-3.51346e-06
1.24958e-05
2.73992e-06
-4.56828e-06
1.4426e-05
3.26566e-06
-5.19581e-06
1.64e-05
3.79433e-06
-5.7683e-06
1.8375e-05
4.00105e-06
-5.97614e-06
2.01359e-05
3.35552e-06
-5.11641e-06
2.16477e-05
2.18072e-06
-3.69245e-06
2.30737e-05
8.21306e-07
-2.24732e-06
2.44182e-05
-3.4386e-07
-1.00064e-06
2.53621e-05
-1.11954e-06
1.75583e-07
2.56287e-05
-2.22607e-06
1.95951e-06
2.53752e-05
-3.39599e-06
3.64951e-06
2.49086e-05
-4.39801e-06
4.86454e-06
2.44349e-05
-5.78585e-06
6.25964e-06
2.40801e-05
-7.2689e-06
7.62368e-06
2.42959e-05
-8.66127e-06
8.44545e-06
2.52145e-05
-1.01319e-05
9.21332e-06
2.6094e-05
-1.11302e-05
1.02507e-05
2.70038e-05
-1.21256e-05
1.12158e-05
2.82139e-05
-1.31284e-05
1.19183e-05
2.87321e-05
-1.36023e-05
1.30841e-05
2.87663e-05
-1.43714e-05
1.43372e-05
2.86645e-05
-1.49413e-05
1.50432e-05
2.76324e-05
-1.48766e-05
1.59087e-05
2.61091e-05
-1.43323e-05
1.58556e-05
2.4496e-05
-1.31304e-05
1.47435e-05
2.27336e-05
-1.21849e-05
1.39472e-05
2.10952e-05
-1.12225e-05
1.28608e-05
1.97622e-05
-9.96677e-06
1.12998e-05
1.91283e-05
-9.25372e-06
9.88765e-06
1.89862e-05
-8.77856e-06
8.92064e-06
1.85527e-05
-8.0032e-06
8.43669e-06
1.78207e-05
-7.14223e-06
7.8743e-06
1.71691e-05
-6.26441e-06
6.91593e-06
1.65628e-05
-5.43882e-06
6.04512e-06
1.5954e-05
-4.79692e-06
5.40576e-06
1.54658e-05
-4.16511e-06
4.65333e-06
1.50971e-05
-3.47419e-06
3.84287e-06
1.47862e-05
-2.996e-06
3.30691e-06
1.45878e-05
-2.84531e-06
3.0437e-06
1.45507e-05
-2.77178e-06
2.80885e-06
1.45682e-05
-2.54312e-06
2.52565e-06
1.44818e-05
-2.22046e-06
2.30687e-06
1.42661e-05
-1.97666e-06
2.19239e-06
1.40378e-05
-1.83176e-06
2.05998e-06
1.39153e-05
-1.66224e-06
1.78474e-06
1.39136e-05
-1.3792e-06
1.38091e-06
1.39624e-05
-1.01681e-06
9.6801e-07
1.3983e-05
-6.75229e-07
6.54692e-07
1.3939e-05
-4.31309e-07
4.75275e-07
1.38393e-05
-3.02488e-07
4.02242e-07
1.37139e-05
-2.61836e-07
3.87192e-07
1.35918e-05
-2.68384e-07
3.90439e-07
1.34901e-05
-2.88475e-07
3.90214e-07
1.34137e-05
-3.02953e-07
3.79311e-07
1.33603e-05
-3.05032e-07
3.58437e-07
1.33245e-05
-2.95202e-07
3.31044e-07
1.33007e-05
-2.76853e-07
3.00621e-07
1.32847e-05
-2.53704e-07
2.69745e-07
1.32734e-05
-2.28725e-07
2.40023e-07
1.3265e-05
-2.03902e-07
2.12318e-07
1.32584e-05
-1.80394e-07
1.8701e-07
1.32529e-05
-1.58776e-07
1.64195e-07
1.32484e-05
-1.39253e-07
1.43807e-07
1.32445e-05
-1.21824e-07
1.25701e-07
1.32412e-05
-1.06373e-07
1.0969e-07
1.32384e-05
-9.2737e-08
9.55746e-08
1.32359e-05
-8.07347e-08
8.31565e-08
1.32339e-05
-7.0187e-08
7.22472e-08
1.32321e-05
-6.09254e-08
6.26721e-08
1.32306e-05
-5.27959e-08
5.42723e-08
1.32294e-05
-4.56607e-08
4.69053e-08
1.32284e-05
-3.93973e-08
4.04442e-08
1.32275e-05
-3.38976e-08
3.47767e-08
1.32267e-05
-2.90664e-08
2.98036e-08
1.32261e-05
-2.48201e-08
2.54376e-08
1.32256e-05
-2.1085e-08
2.16018e-08
1.32252e-05
-1.77964e-08
1.82286e-08
1.32248e-05
-1.48969e-08
1.52583e-08
1.32245e-05
-1.23364e-08
1.26383e-08
1.32243e-05
-1.00702e-08
1.03222e-08
1.3224e-05
-8.0588e-09
8.26891e-09
1.32239e-05
-6.26712e-09
6.44195e-09
1.32237e-05
-4.66408e-09
4.80931e-09
1.32236e-05
-3.22205e-09
3.34217e-09
1.32235e-05
-1.91656e-09
2.01529e-09
1.32234e-05
-7.2705e-10
8.05839e-10
1.32234e-05
3.5171e-10
-2.86146e-10
1.32233e-05
1.38241e-09
-1.32732e-09
1.32233e-05
2.35861e-09
-2.31859e-09
1.32232e-05
3.2856e-09
-3.25465e-09
1.32232e-05
4.1886e-09
-4.16761e-09
1.32232e-05
5.07118e-09
-5.05813e-09
1.32232e-05
5.94955e-09
-5.94415e-09
1.32232e-05
6.83745e-09
-6.8388e-09
1.32232e-05
7.74435e-09
-7.75276e-09
1.32232e-05
8.6814e-09
-8.69605e-09
1.32232e-05
9.65939e-09
-9.68031e-09
1.32233e-05
1.06899e-08
-1.07174e-08
1.32233e-05
1.17839e-08
-1.18183e-08
1.32234e-05
1.29526e-08
-1.29942e-08
1.32234e-05
1.42079e-08
-1.42573e-08
1.32235e-05
1.55622e-08
-1.562e-08
1.32235e-05
1.70281e-08
-1.70952e-08
1.32236e-05
1.86198e-08
-1.86972e-08
1.32237e-05
2.03518e-08
-2.04408e-08
1.32238e-05
2.22412e-08
-2.2343e-08
1.32239e-05
2.43033e-08
-2.442e-08
1.3224e-05
2.65621e-08
-2.66949e-08
1.32242e-05
2.90302e-08
-2.91828e-08
1.32244e-05
3.17497e-08
-3.19213e-08
1.32246e-05
3.47126e-08
-3.49124e-08
1.32248e-05
3.80172e-08
-3.82354e-08
1.3225e-05
4.1571e-08
-4.18354e-08
1.32253e-05
4.5654e-08
-4.59201e-08
1.32257e-05
4.9872e-08
-5.02328e-08
1.3226e-05
5.50856e-08
-5.53737e-08
1.32265e-05
5.99185e-08
-6.0445e-08
1.32267e-05
6.70006e-08
-6.71994e-08
1.32276e-05
7.20008e-08
-7.28622e-08
1.32273e-05
8.26047e-08
-8.23688e-08
1.32289e-05
8.6286e-08
-8.78847e-08
1.32273e-05
1.04066e-07
-1.0249e-07
1.32305e-05
1.02684e-07
-1.0585e-07
1.32255e-05
1.35072e-07
-1.30111e-07
1.32315e-05
1.20907e-07
-1.26905e-07
1.32194e-05
1.80816e-07
-1.68674e-07
1.3229e-05
1.4104e-07
-1.50623e-07
1.32047e-05
2.45367e-07
-2.21047e-07
1.32152e-05
1.64077e-07
-1.7466e-07
1.3177e-05
3.23988e-07
-2.85701e-07
1.31788e-05
1.89833e-07
-1.91701e-07
1.31377e-05
3.94486e-07
-3.534e-07
1.31154e-05
2.09219e-07
-1.86879e-07
1.30996e-05
4.27173e-07
-4.11383e-07
1.30434e-05
2.0297e-07
-1.46771e-07
1.3081e-05
4.08208e-07
-4.45833e-07
1.30005e-05
1.74399e-07
-9.3836e-08
1.30909e-05
3.29686e-07
-4.20166e-07
1.30204e-05
1.99821e-07
-1.29243e-07
1.3091e-05
2.07394e-07
-2.7798e-07
1.31057e-05
3.18411e-07
-3.33142e-07
1.30145e-05
1.52681e-07
-6.1487e-08
1.31838e-05
3.94456e-07
-5.63758e-07
1.29404e-05
2.44299e-07
-8.60192e-10
1.31455e-05
3.85898e-07
-5.91072e-07
1.29824e-05
3.71723e-07
-2.0862e-07
1.30696e-05
3.86838e-07
-4.73987e-07
1.30184e-05
4.86442e-07
-4.35229e-07
1.30798e-05
4.35652e-07
-4.97091e-07
1.30362e-05
5.0494e-07
-4.61358e-07
1.29736e-05
6.91941e-07
-6.29346e-07
1.32214e-05
3.95865e-07
-6.43645e-07
1.28248e-05
9.0919e-07
-5.12561e-07
1.31854e-05
5.94869e-07
-9.55538e-07
1.30302e-05
8.4187e-07
-6.86624e-07
1.3035e-05
7.55793e-07
-7.60555e-07
1.29028e-05
1.21016e-06
-1.07803e-06
1.33335e-05
6.93499e-07
-1.1242e-06
1.27915e-05
1.20693e-06
-6.64917e-07
1.3073e-05
1.34229e-06
-1.62373e-06
1.31536e-05
1.29415e-06
-1.37479e-06
1.31469e-05
9.00685e-07
-8.94012e-07
1.26454e-05
2.36084e-06
-1.8593e-06
1.33633e-05
1.29604e-06
-2.01395e-06
1.30664e-05
1.5451e-06
-1.24818e-06
1.29205e-05
2.26197e-06
-2.11612e-06
1.29803e-05
2.51803e-06
-2.57779e-06
1.3337e-05
1.83636e-06
-2.19304e-06
1.3142e-05
2.61981e-06
-2.42485e-06
1.28943e-05
3.13068e-06
-2.88294e-06
1.32671e-05
3.21224e-06
-3.58507e-06
1.32733e-05
3.08774e-06
-3.09392e-06
1.35144e-05
3.64399e-06
-3.88513e-06
1.29627e-05
4.50485e-06
-3.95314e-06
1.3466e-05
4.48719e-06
-4.99045e-06
1.31181e-05
5.15619e-06
-4.80833e-06
1.35776e-05
5.18322e-06
-5.64267e-06
1.29085e-05
6.64444e-06
-5.97537e-06
1.27302e-05
6.65854e-06
-6.48021e-06
1.25078e-05
7.90758e-06
-7.68522e-06
1.19393e-05
8.39217e-06
-7.82364e-06
1.22408e-05
9.20168e-06
-9.50316e-06
1.19602e-05
1.0492e-05
-1.02114e-05
1.27674e-05
1.08108e-05
-1.1618e-05
1.26959e-05
1.3373e-05
-1.33015e-05
1.27327e-05
1.46693e-05
-1.47061e-05
1.3826e-05
1.6763e-05
-1.78564e-05
1.24533e-05
2.17348e-05
-2.03621e-05
1.35513e-05
2.30958e-05
-2.41939e-05
3.29329e-05
-3.33104e-05
1.39289e-05
1.27235e-05
-5.01194e-07
1.28175e-05
-5.48486e-07
1.29179e-05
-4.15599e-07
1.30442e-05
-2.38622e-07
1.30849e-05
-1.13623e-07
1.32353e-05
2.33788e-07
1.33419e-05
6.46006e-07
1.35427e-05
8.95852e-07
1.38355e-05
1.21148e-06
1.42622e-05
1.62136e-06
1.50261e-05
1.97606e-06
1.6136e-05
2.15573e-06
1.75779e-05
2.35241e-06
1.91879e-05
2.3911e-06
2.05628e-05
1.98061e-06
2.16009e-05
1.14261e-06
2.25394e-05
-1.17175e-07
2.34566e-05
-1.26106e-06
2.44244e-05
-2.08742e-06
2.52973e-05
-3.09889e-06
2.60857e-05
-4.18442e-06
2.6707e-05
-5.0193e-06
2.74515e-05
-6.53034e-06
2.84723e-05
-8.28973e-06
2.93072e-05
-9.49621e-06
3.01782e-05
-1.10028e-05
3.10654e-05
-1.20174e-05
3.12698e-05
-1.233e-05
3.13338e-05
-1.31924e-05
3.12137e-05
-1.34822e-05
3.02649e-05
-1.34225e-05
2.9206e-05
-1.38825e-05
2.79106e-05
-1.35811e-05
2.61392e-05
-1.25609e-05
2.46406e-05
-1.16318e-05
2.3483e-05
-1.10272e-05
2.24353e-05
-1.01748e-05
2.12897e-05
-8.82117e-06
2.02035e-05
-8.16747e-06
1.96041e-05
-8.17923e-06
1.91229e-05
-7.52198e-06
1.82932e-05
-6.31248e-06
1.74275e-05
-5.39871e-06
1.67954e-05
-4.80674e-06
1.62504e-05
-4.25192e-06
1.57349e-05
-3.6496e-06
1.53291e-05
-3.06847e-06
1.50219e-05
-2.68873e-06
1.47757e-05
-2.59911e-06
1.46155e-05
-2.61163e-06
1.45268e-05
-2.45442e-06
1.43996e-05
-2.09319e-06
1.41481e-05
-1.72518e-06
1.38188e-05
-1.50249e-06
1.3542e-05
-1.38541e-06
1.34094e-05
-1.24662e-06
1.34158e-05
-1.02322e-06
1.34918e-05
-7.51231e-07
1.35655e-05
-5.04965e-07
1.35979e-05
-3.34945e-07
1.35849e-05
-2.48785e-07
1.35413e-05
-2.2476e-07
1.34857e-05
-2.32924e-07
1.3432e-05
-2.49236e-07
1.3387e-05
-2.60043e-07
1.33523e-05
-2.60546e-07
1.33268e-05
-2.51266e-07
1.3308e-05
-2.34966e-07
1.3294e-05
-2.14727e-07
1.32832e-05
-1.93051e-07
1.32744e-05
-1.71636e-07
1.32671e-05
-1.51469e-07
1.32609e-05
-1.33026e-07
1.32555e-05
-1.16458e-07
1.32509e-05
-1.01732e-07
1.32469e-05
-8.87256e-08
1.32434e-05
-7.72758e-08
1.32404e-05
-6.72132e-08
1.32379e-05
-5.83758e-08
1.32357e-05
-5.06153e-08
1.32338e-05
-4.37991e-08
1.32322e-05
-3.78102e-08
1.32309e-05
-3.25458e-08
1.32297e-05
-2.7916e-08
1.32288e-05
-2.38413e-08
1.32279e-05
-2.02528e-08
1.32272e-05
-1.7089e-08
1.32266e-05
-1.42961e-08
1.32261e-05
-1.18265e-08
1.32257e-05
-9.63808e-09
1.32253e-05
-7.69327e-09
1.3225e-05
-5.95889e-09
1.32247e-05
-4.40515e-09
1.32245e-05
-3.00586e-09
1.32244e-05
-1.73722e-09
1.32242e-05
-5.79195e-10
1.32241e-05
4.68861e-10
1.3224e-05
1.4766e-09
1.32239e-05
2.431e-09
1.32239e-05
3.33911e-09
1.32238e-05
4.22106e-09
1.32238e-05
5.08752e-09
1.32238e-05
5.95079e-09
1.32238e-05
6.82308e-09
1.32239e-05
7.71574e-09
1.32239e-05
8.63858e-09
1.3224e-05
9.60252e-09
1.3224e-05
1.06187e-08
1.32241e-05
1.1698e-08
1.32242e-05
1.28515e-08
1.32243e-05
1.40906e-08
1.32245e-05
1.54274e-08
1.32246e-05
1.68745e-08
1.32248e-05
1.84456e-08
1.3225e-05
2.01549e-08
1.32252e-05
2.20194e-08
1.32255e-05
2.40532e-08
1.32257e-05
2.62812e-08
1.32261e-05
2.87128e-08
1.32264e-05
3.13947e-08
1.32268e-05
3.43079e-08
1.32273e-05
3.75709e-08
1.32278e-05
4.10479e-08
1.32283e-05
4.51027e-08
1.3229e-05
4.91744e-08
1.32297e-05
5.44437e-08
1.32307e-05
5.89225e-08
1.32313e-05
6.63913e-08
1.32329e-05
7.03911e-08
1.3233e-05
8.24936e-08
1.32361e-05
8.32339e-08
1.32343e-05
1.05868e-07
1.32408e-05
9.61451e-08
1.32334e-05
1.42484e-07
1.32478e-05
1.06533e-07
1.32265e-05
2.02048e-07
1.32558e-05
1.11773e-07
1.32065e-05
2.94618e-07
1.32571e-05
1.13521e-07
1.31653e-05
4.15768e-07
1.32321e-05
1.23079e-07
1.31023e-05
5.24266e-07
1.3165e-05
1.46542e-07
1.30324e-05
5.59768e-07
1.30779e-05
1.57492e-07
1.29768e-05
5.09292e-07
1.30236e-05
1.27545e-07
1.29757e-05
3.77601e-07
1.30213e-05
1.54212e-07
1.30565e-05
1.72168e-07
1.30618e-05
3.13132e-07
1.31052e-05
1.09296e-07
1.31536e-05
3.46079e-07
1.30647e-05
3.33174e-07
1.31888e-05
2.61822e-07
1.30969e-05
4.63625e-07
1.31256e-05
3.58158e-07
1.31436e-05
4.68384e-07
1.32e-05
3.79261e-07
1.30228e-05
6.82116e-07
1.33469e-05
3.67867e-07
1.30234e-05
7.19331e-07
1.32451e-05
6.87583e-07
1.31549e-05
6.85058e-07
1.32754e-05
7.21357e-07
1.30431e-05
9.88124e-07
1.33944e-05
8.58831e-07
1.31603e-05
9.2762e-07
1.32631e-05
1.10409e-06
1.31205e-05
1.48492e-06
1.36032e-05
8.11456e-07
1.29752e-05
1.52868e-06
1.34491e-05
1.8869e-06
1.33968e-05
1.34835e-06
1.35251e-05
1.41678e-06
1.29669e-05
2.82021e-06
1.37072e-05
1.77767e-06
1.33741e-05
2.16955e-06
1.34856e-05
2.50823e-06
1.31414e-05
3.47495e-06
1.37081e-05
2.64548e-06
1.34721e-05
3.32379e-06
1.34964e-05
3.61963e-06
1.36112e-05
4.39008e-06
1.37005e-05
4.39786e-06
1.42962e-05
4.56052e-06
1.38619e-05
5.61749e-06
1.46046e-05
5.90171e-06
1.42241e-05
7.03903e-06
1.50121e-05
7.11959e-06
1.46569e-05
8.7474e-06
1.48077e-05
9.05083e-06
1.50492e-05
1.02506e-05
1.3582e-05
1.2278e-05
1.42996e-05
1.26554e-05
1.30667e-05
1.59021e-05
1.45692e-05
1.52605e-05
1.47305e-05
2.15735e-05
1.99739e-05
1.78524e-05
3.33773e-05
1.95295e-05
1.90802e-05
-6.62079e-07
1.95023e-05
-9.70571e-07
1.96908e-05
-6.0417e-07
1.96987e-05
-2.46438e-07
1.97864e-05
-2.01401e-07
1.98943e-05
1.25927e-07
1.99929e-05
5.47439e-07
2.01736e-05
7.15134e-07
2.03701e-05
1.01497e-06
2.05586e-05
1.43285e-06
2.09917e-05
1.54299e-06
2.16745e-05
1.47288e-06
2.24388e-05
1.5881e-06
2.33742e-05
1.45575e-06
2.45332e-05
8.21572e-07
2.55906e-05
8.52111e-08
2.64275e-05
-9.54068e-07
2.71407e-05
-1.97421e-06
2.78418e-05
-2.78857e-06
2.84627e-05
-3.71975e-06
2.91883e-05
-4.91007e-06
3.01461e-05
-5.97705e-06
3.10176e-05
-7.40187e-06
3.1884e-05
-9.15617e-06
3.26029e-05
-1.02151e-05
3.27851e-05
-1.1185e-05
3.28877e-05
-1.212e-05
3.27124e-05
-1.21548e-05
3.19967e-05
-1.24766e-05
3.1299e-05
-1.27845e-05
3.01166e-05
-1.22401e-05
2.83575e-05
-1.21234e-05
2.67422e-05
-1.19659e-05
2.52853e-05
-1.11039e-05
2.41218e-05
-1.04684e-05
2.32437e-05
-1.01491e-05
2.25e-05
-9.43115e-06
2.18453e-05
-8.16644e-06
2.10106e-05
-7.33279e-06
2.01226e-05
-7.29122e-06
1.94198e-05
-6.8192e-06
1.86403e-05
-5.53299e-06
1.77506e-05
-4.509e-06
1.70618e-05
-4.11797e-06
1.65905e-05
-3.78059e-06
1.61711e-05
-3.2302e-06
1.58067e-05
-2.70401e-06
1.55261e-05
-2.40819e-06
1.52566e-05
-2.32955e-06
1.49582e-05
-2.31327e-06
1.46754e-05
-2.17164e-06
1.44203e-05
-1.83809e-06
1.41368e-05
-1.44163e-06
1.37945e-05
-1.16019e-06
1.34472e-05
-1.03817e-06
1.31858e-05
-9.85199e-07
1.30619e-05
-8.99283e-07
1.3062e-05
-7.51352e-07
1.31342e-05
-5.77143e-07
1.32255e-05
-4.26234e-07
1.33021e-05
-3.25405e-07
1.33511e-05
-2.7381e-07
1.33735e-05
-2.55318e-07
1.33764e-05
-2.52088e-07
1.33677e-05
-2.51345e-07
1.33537e-05
-2.46611e-07
1.33385e-05
-2.36044e-07
1.3324e-05
-2.20445e-07
1.33109e-05
-2.01653e-07
1.32994e-05
-1.8154e-07
1.32893e-05
-1.61559e-07
1.32805e-05
-1.42648e-07
1.32728e-05
-1.25299e-07
1.3266e-05
-1.09695e-07
1.32601e-05
-9.58284e-08
1.3255e-05
-8.3589e-08
1.32505e-05
-7.28228e-08
1.32467e-05
-6.33657e-08
1.32434e-05
-5.50603e-08
1.32405e-05
-4.7764e-08
1.32381e-05
-4.13506e-08
1.3236e-05
-3.57097e-08
1.32342e-05
-3.07449e-08
1.32326e-05
-2.63724e-08
1.32313e-05
-2.25189e-08
1.32302e-05
-1.91202e-08
1.32292e-05
-1.61194e-08
1.32284e-05
-1.34667e-08
1.32277e-05
-1.1118e-08
1.32271e-05
-9.03373e-09
1.32265e-05
-7.17902e-09
1.32261e-05
-5.52286e-09
1.32257e-05
-4.03728e-09
1.32254e-05
-2.69758e-09
1.32252e-05
-1.48109e-09
1.3225e-05
-3.69369e-10
1.32248e-05
6.39217e-10
1.32247e-05
1.61151e-09
1.32246e-05
2.53369e-09
1.32245e-05
3.41093e-09
1.32244e-05
4.26565e-09
1.32244e-05
5.10641e-09
1.32244e-05
5.94572e-09
1.32245e-05
6.79573e-09
1.32245e-05
7.66614e-09
1.32246e-05
8.56728e-09
1.32247e-05
9.50997e-09
1.32248e-05
1.05045e-08
1.32249e-05
1.15614e-08
1.32251e-05
1.26915e-08
1.32253e-05
1.3906e-08
1.32255e-05
1.52167e-08
1.32257e-05
1.66357e-08
1.3226e-05
1.81763e-08
1.32263e-05
1.98519e-08
1.32266e-05
2.16793e-08
1.3227e-05
2.36719e-08
1.32274e-05
2.58546e-08
1.32279e-05
2.82338e-08
1.32284e-05
3.08597e-08
1.32291e-05
3.37027e-08
1.32297e-05
3.68999e-08
1.32305e-05
4.02735e-08
1.32313e-05
4.42679e-08
1.32324e-05
4.81536e-08
1.32334e-05
5.34415e-08
1.32348e-05
5.74869e-08
1.32358e-05
6.53363e-08
1.32381e-05
6.81033e-08
1.32387e-05
8.19263e-08
1.32431e-05
7.88629e-08
1.32413e-05
1.07675e-07
1.32512e-05
8.62484e-08
1.32412e-05
1.52407e-07
1.32657e-05
8.21141e-08
1.32321e-05
2.35611e-07
1.32917e-05
5.21444e-08
1.31984e-05
3.87957e-07
1.33327e-05
-2.079e-08
1.31157e-05
6.32726e-07
1.33773e-05
-1.38461e-07
1.29653e-05
9.36205e-07
1.3402e-05
-2.90113e-07
1.27692e-05
1.19258e-06
1.34026e-05
-4.75974e-07
1.25903e-05
1.32164e-06
1.33816e-05
-6.63797e-07
1.25543e-05
1.2049e-06
1.32803e-05
-5.71711e-07
1.27925e-05
6.59928e-07
1.30943e-05
1.12973e-08
1.30712e-05
1.3239e-07
1.29963e-05
4.21054e-07
1.31009e-05
2.28562e-07
1.30264e-05
3.36287e-07
1.30579e-05
4.32114e-07
1.29795e-05
4.36635e-07
1.31578e-05
2.90083e-07
1.29948e-05
5.42167e-07
1.31008e-05
5.76211e-07
1.3161e-05
3.07571e-07
1.29797e-05
9.00638e-07
1.30741e-05
5.93178e-07
1.31448e-05
6.14435e-07
1.30443e-05
8.21854e-07
1.30171e-05
1.01532e-06
1.3244e-05
6.31922e-07
1.30539e-05
1.11772e-06
1.29913e-05
1.1667e-06
1.32633e-05
1.21294e-06
1.32046e-05
8.70165e-07
1.29731e-05
1.76017e-06
1.32099e-05
1.65007e-06
1.35205e-05
1.03775e-06
1.29961e-05
1.9412e-06
1.33599e-05
2.45642e-06
1.34033e-05
1.73419e-06
1.3708e-05
1.86487e-06
1.30657e-05
3.15055e-06
1.36853e-05
2.85534e-06
1.33701e-05
2.96067e-06
1.38677e-05
2.82624e-06
1.31826e-05
4.30467e-06
1.35838e-05
3.98895e-06
1.30476e-05
4.93403e-06
1.32981e-05
4.31003e-06
1.30476e-05
5.86796e-06
1.29771e-05
5.97223e-06
1.34445e-05
6.57159e-06
1.29177e-05
7.64645e-06
1.41259e-05
7.53914e-06
1.39597e-05
9.21702e-06
1.52858e-05
8.92458e-06
1.46589e-05
1.29049e-05
1.65481e-05
1.07662e-05
1.62114e-05
1.62389e-05
1.89135e-05
1.25584e-05
1.75098e-05
2.29772e-05
2.37726e-05
1.15896e-05
3.14951e-05
2.56547e-05
2.53076e-05
-4.42826e-07
2.53037e-05
-9.66643e-07
2.54812e-05
-7.8167e-07
2.54687e-05
-2.33945e-07
2.53789e-05
-1.11575e-07
2.54748e-05
3.00453e-08
2.5606e-05
4.16186e-07
2.57988e-05
5.2236e-07
2.61381e-05
6.75669e-07
2.64409e-05
1.13007e-06
2.67027e-05
1.28118e-06
2.7166e-05
1.00956e-06
2.78524e-05
9.01695e-07
2.86161e-05
6.92035e-07
2.94092e-05
2.84988e-08
3.03153e-05
-8.20884e-07
3.10283e-05
-1.66707e-06
3.15745e-05
-2.52036e-06
3.22835e-05
-3.49766e-06
3.30512e-05
-4.48741e-06
3.35287e-05
-5.38761e-06
3.40439e-05
-6.49225e-06
3.44979e-05
-7.8558e-06
3.45397e-05
-9.19803e-06
3.44493e-05
-1.01247e-05
3.40213e-05
-1.0757e-05
3.33178e-05
-1.14165e-05
3.26985e-05
-1.15354e-05
3.16588e-05
-1.14369e-05
3.03988e-05
-1.15245e-05
2.93258e-05
-1.11672e-05
2.81337e-05
-1.09312e-05
2.69514e-05
-1.07837e-05
2.57958e-05
-9.94834e-06
2.45954e-05
-9.26788e-06
2.34863e-05
-9.04006e-06
2.25167e-05
-8.46147e-06
2.18487e-05
-7.49843e-06
2.12545e-05
-6.73861e-06
2.03568e-05
-6.39353e-06
1.94257e-05
-5.88815e-06
1.87222e-05
-4.82946e-06
1.81047e-05
-3.8915e-06
1.7536e-05
-3.54931e-06
1.70795e-05
-3.32403e-06
1.66944e-05
-2.84508e-06
1.63733e-05
-2.38294e-06
1.61419e-05
-2.17677e-06
1.59011e-05
-2.08876e-06
1.55185e-05
-1.93066e-06
1.50249e-05
-1.67806e-06
1.45658e-05
-1.37902e-06
1.422e-05
-1.09585e-06
1.39556e-05
-8.95752e-07
1.37127e-05
-7.95234e-07
1.34736e-05
-7.46114e-07
1.32659e-05
-6.91585e-07
1.31252e-05
-6.10703e-07
1.30649e-05
-5.16761e-07
1.30721e-05
-4.33446e-07
1.31206e-05
-3.73896e-07
1.31841e-05
-3.37352e-07
1.32436e-05
-3.14788e-07
1.3289e-05
-2.97471e-07
1.33176e-05
-2.79945e-07
1.33314e-05
-2.60445e-07
1.33343e-05
-2.38962e-07
1.33302e-05
-2.16342e-07
1.33222e-05
-1.93663e-07
1.33125e-05
-1.71841e-07
1.33025e-05
-1.51502e-07
1.32928e-05
-1.32983e-07
1.32839e-05
-1.16396e-07
1.32759e-05
-1.01696e-07
1.32688e-05
-8.87528e-08
1.32626e-05
-7.73925e-08
1.32572e-05
-6.74321e-08
1.32526e-05
-5.86962e-08
1.32485e-05
-5.10268e-08
1.32451e-05
-4.4286e-08
1.32421e-05
-3.83547e-08
1.32395e-05
-3.31302e-08
1.32373e-05
-2.85247e-08
1.32353e-05
-2.44618e-08
1.32337e-05
-2.0875e-08
1.32323e-05
-1.77061e-08
1.32311e-05
-1.49037e-08
1.323e-05
-1.24225e-08
1.32291e-05
-1.02223e-08
1.32284e-05
-8.26702e-09
1.32277e-05
-6.52446e-09
1.32272e-05
-4.96621e-09
1.32267e-05
-3.56633e-09
1.32263e-05
-2.30215e-09
1.3226e-05
-1.15302e-09
1.32257e-05
-1.04395e-10
1.32255e-05
8.6331e-10
1.32253e-05
1.78626e-09
1.32252e-05
2.66219e-09
1.32251e-05
3.50078e-09
1.3225e-05
4.31922e-09
1.3225e-05
5.12653e-09
1.3225e-05
5.93508e-09
1.32251e-05
6.75439e-09
1.32251e-05
7.59555e-09
1.32252e-05
8.46791e-09
1.32254e-05