/*--------------------------------*- C++ -*----------------------------------*\
| =========                 |                                                 |
| \\      /  F ield         | OpenFOAM: The Open Source CFD Toolbox           |
|  \\    /   O peration     | Version:  2.4.0                                 |
|   \\  /    A nd           | Web:      www.OpenFOAM.org                      |
|    \\/     M anipulation  |                                                 |
\*---------------------------------------------------------------------------*/
FoamFile
{
    version     2.0;
    format      ascii;
    class       volScalarField;
    location    "0.03";
    object      pMean;
}
// * * * * * * * * * * * * * * * * * * * * * * * * * * * * * * * * * * * * * //

dimensions      [0 2 -2 0 0 0 0];

internalField   nonuniform List<scalar> 
8800
(
221.765
207.461
198.389
193.401
189.993
187.047
184.172
181.324
178.498
175.684
172.844
170.061
167.256
164.482
161.678
158.884
155.9
152.747
149.18
142.591
218.851
207.114
198.532
193.501
190.048
187.07
184.178
181.322
178.495
175.681
172.842
170.058
167.258
164.478
161.69
158.874
155.939
152.786
149.267
144.905
217.004
207.155
199.057
193.829
190.2
187.146
184.22
181.347
178.509
175.687
172.843
170.059
167.261
164.48
161.7
158.879
155.977
152.864
149.723
146.074
215.56
207.187
199.566
194.186
190.364
187.235
184.287
181.401
178.547
175.707
172.855
170.064
167.269
164.489
161.718
158.907
156.014
153.029
150
147.17
214.387
207.141
199.98
194.52
190.51
187.306
184.349
181.465
178.601
175.733
172.877
170.069
167.284
164.499
161.749
158.938
156.087
153.189
150.392
148.208
213.463
207.037
200.299
194.807
190.637
187.353
184.395
181.521
178.651
175.764
172.896
170.078
167.292
164.522
161.777
158.989
156.175
153.384
150.801
149.015
212.757
206.916
200.536
195.039
190.747
187.383
184.427
181.566
178.695
175.791
172.912
170.085
167.301
164.545
161.808
159.047
156.273
153.59
151.185
149.711
212.246
206.807
200.703
195.215
190.838
187.403
184.446
181.598
178.728
175.811
172.925
170.09
167.312
164.568
161.849
159.111
156.392
153.79
151.551
150.299
211.916
206.726
200.807
195.333
190.903
187.415
184.456
181.621
178.75
175.827
172.935
170.096
167.32
164.593
161.886
159.179
156.508
153.99
151.883
150.793
211.755
206.682
200.857
195.392
190.937
187.42
184.46
181.632
178.762
175.836
172.943
170.102
167.331
164.619
161.927
159.25
156.625
154.181
152.178
151.21
211.756
206.681
200.857
195.393
190.937
187.419
184.46
181.633
178.763
175.839
172.949
170.107
167.343
164.643
161.967
159.319
156.741
154.359
152.438
151.558
211.92
206.723
200.806
195.334
190.904
187.413
184.457
181.624
178.754
175.835
172.951
170.113
167.356
164.668
162.007
159.388
156.852
154.523
152.662
151.841
212.252
206.803
200.702
195.216
190.839
187.4
184.447
181.604
178.733
175.825
172.952
170.119
167.369
164.691
162.045
159.454
156.958
154.674
152.85
152.058
212.765
206.91
200.535
195.04
190.75
187.379
184.43
181.573
178.702
175.81
172.949
170.125
167.383
164.711
162.08
159.517
157.058
154.812
153.003
152.202
213.473
207.031
200.297
194.808
190.643
187.346
184.4
181.53
178.661
175.788
172.942
170.13
167.399
164.728
162.113
159.574
157.154
154.94
153.133
152.265
214.398
207.137
199.976
194.521
190.519
187.297
184.356
181.477
178.61
175.763
172.932
170.134
167.413
164.744
162.142
159.625
157.244
155.056
153.253
152.249
215.572
207.183
199.561
194.186
190.376
187.226
184.295
181.416
178.558
175.738
172.922
170.136
167.424
164.757
162.167
159.669
157.324
155.157
153.362
152.172
217.015
207.154
199.051
193.827
190.214
187.137
184.228
181.364
178.521
175.721
172.916
170.14
167.432
164.77
162.186
159.705
157.382
155.236
153.443
152.075
218.862
207.114
198.526
193.499
190.062
187.063
184.186
181.34
178.509
175.716
172.917
170.146
167.438
164.78
162.199
159.729
157.414
155.285
153.486
151.987
221.776
207.46
198.383
193.399
190.007
187.04
184.181
181.341
178.513
175.719
172.92
170.15
167.44
164.784
162.204
159.738
157.423
155.305
153.504
152.086
139.078
139.048
138.773
138.228
137.639
137.04
136.365
135.66
134.963
134.314
133.722
133.187
132.744
132.466
132.446
132.74
133.363
134.318
135.597
137.175
138.995
140.972
143.021
145.065
147.04
148.913
150.659
152.266
153.736
155.064
156.258
157.321
158.243
159.018
159.648
160.139
160.502
160.751
160.905
160.987
161.006
160.968
160.881
160.759
160.608
160.433
160.238
160.028
159.806
159.575
159.335
159.088
158.835
158.578
158.317
158.054
157.789
157.522
157.252
156.981
156.709
156.435
156.161
155.886
155.61
155.334
155.057
154.78
154.503
154.226
153.948
153.67
153.392
153.114
152.836
152.557
152.279
152
151.722
151.443
151.165
150.886
150.607
150.328
150.05
149.771
149.492
149.213
148.934
148.655
148.376
148.097
147.818
147.54
147.261
146.982
146.703
146.424
146.145
145.866
145.587
145.308
145.029
144.75
144.471
144.192
143.913
143.634
143.355
143.076
142.797
142.518
142.239
141.96
141.681
141.401
141.122
140.843
140.564
140.285
140.006
139.727
139.448
139.168
138.889
138.61
138.33
138.051
137.772
137.492
137.213
136.933
136.653
136.374
136.094
135.815
135.536
135.256
134.978
134.7
134.425
134.149
133.878
133.606
133.339
133.071
132.808
132.542
132.278
132.012
131.745
131.478
131.207
130.94
130.668
130.4
130.127
129.86
129.584
129.318
129.04
128.772
128.492
128.224
127.941
127.671
127.385
127.112
126.821
126.541
126.247
125.958
125.656
125.353
125.044
124.722
124.402
124.055
123.717
123.335
122.974
122.545
122.147
121.656
121.198
120.632
120.058
119.397
118.64
117.819
116.773
115.641
114.129
112.326
109.963
106.869
102.595
95.8383
87.9715
56.6987
141.897
141.052
140.691
140.114
139.448
138.817
138.207
137.598
136.976
136.35
135.739
135.178
134.719
134.438
134.403
134.653
135.202
136.061
137.231
138.68
140.345
142.158
144.054
145.957
147.806
149.564
151.196
152.686
154.049
155.28
156.375
157.346
158.191
158.901
159.483
159.945
160.293
160.541
160.702
160.79
160.815
160.788
160.715
160.605
160.464
160.301
160.118
159.919
159.708
159.485
159.254
159.014
158.769
158.517
158.262
158.004
157.743
157.48
157.215
156.948
156.679
156.408
156.137
155.864
155.59
155.316
155.041
154.766
154.49
154.214
153.937
153.661
153.383
153.106
152.829
152.551
152.273
151.995
151.717
151.439
151.161
150.882
150.604
150.325
150.047
149.768
149.49
149.211
148.932
148.653
148.375
148.096
147.817
147.538
147.259
146.981
146.702
146.423
146.144
145.865
145.586
145.307
145.028
144.749
144.47
144.191
143.912
143.633
143.354
143.075
142.795
142.516
142.237
141.958
141.679
141.4
141.12
140.841
140.562
140.282
140.003
139.723
139.444
139.164
138.885
138.605
138.325
138.045
137.765
137.485
137.205
136.925
136.644
136.363
136.083
135.801
135.521
135.24
134.96
134.679
134.403
134.124
133.853
133.578
133.314
133.042
132.784
132.512
132.255
131.981
131.719
131.442
131.175
130.897
130.628
130.35
130.081
129.8
129.53
129.245
128.974
128.686
128.413
128.122
127.846
127.55
127.271
126.967
126.683
126.371
126.08
125.756
125.452
125.114
124.794
124.439
124.092
123.717
123.333
122.93
122.495
122.052
121.549
121.046
120.439
119.857
119.11
118.398
117.495
116.513
115.351
113.923
112.252
110.05
107.332
103.489
99.3197
88.6869
80.6796
51.2437
143.97
143.07
142.318
141.664
141.055
140.49
139.944
139.394
138.806
138.193
137.595
137.057
136.638
136.397
136.382
136.63
137.163
137.982
139.065
140.381
141.883
143.516
145.229
146.952
148.625
150.22
151.706
153.062
154.304
155.432
156.436
157.326
158.105
158.764
159.308
159.747
160.085
160.332
160.498
160.597
160.634
160.617
160.557
160.461
160.334
160.181
160.008
159.819
159.617
159.404
159.18
158.947
158.707
158.462
158.212
157.958
157.701
157.442
157.18
156.916
156.65
156.382
156.113
155.843
155.571
155.299
155.026
154.752
154.477
154.202
153.927
153.651
153.375
153.098
152.822
152.545
152.267
151.99
151.712
151.435
151.157
150.879
150.601
150.322
150.044
149.766
149.487
149.209
148.93
148.652
148.373
148.094
147.816
147.537
147.258
146.979
146.701
146.422
146.143
145.864
145.585
145.306
145.027
144.748
144.469
144.19
143.911
143.632
143.352
143.073
142.794
142.515
142.236
141.956
141.677
141.398
141.118
140.839
140.559
140.28
140
139.72
139.44
139.161
138.881
138.6
138.32
138.04
137.759
137.478
137.198
136.916
136.635
136.353
136.071
135.788
135.507
135.223
134.942
134.657
134.38
134.096
133.826
133.546
133.285
133.008
132.756
132.479
132.229
131.948
131.689
131.404
131.137
130.852
130.582
130.298
130.025
129.743
129.464
129.178
128.896
128.605
128.321
128.028
127.737
127.44
127.139
126.837
126.526
126.216
125.892
125.571
125.227
124.893
124.525
124.169
123.771
123.387
122.948
122.521
122.037
121.542
120.997
120.407
119.78
119.055
118.306
117.372
116.435
115.224
113.915
112.253
110.339
107.616
105.392
99.1178
97.117
83.0273
73.7252
53.6783
146.296
145.381
143.958
142.836
142.124
141.651
141.249
140.835
140.372
139.872
139.378
138.938
138.605
138.43
138.454
138.706
139.203
139.945
140.913
142.082
143.413
144.858
146.373
147.902
149.387
150.808
152.144
153.369
154.492
155.52
156.442
157.264
157.989
158.611
159.13
159.552
159.885
160.134
160.305
160.411
160.459
160.455
160.407
160.323
160.209
160.07
159.908
159.729
159.535
159.328
159.111
158.884
158.649
158.409
158.164
157.914
157.661
157.405
157.146
156.885
156.622
156.357
156.09
155.822
155.552
155.282
155.01
154.738
154.465
154.191
153.917
153.642
153.366
153.091
152.815
152.538
152.262
151.985
151.708
151.43
151.153
150.875
150.597
150.32
150.042
149.763
149.485
149.207
148.929
148.65
148.372
148.093
147.814
147.536
147.257
146.978
146.699
146.421
146.142
145.863
145.584
145.305
145.026
144.747
144.468
144.189
143.91
143.63
143.351
143.072
142.793
142.513
142.234
141.955
141.675
141.396
141.116
140.836
140.557
140.277
139.997
139.717
139.437
139.157
138.876
138.596
138.315
138.034
137.753
137.472
137.19
136.908
136.626
136.343
136.06
135.775
135.492
135.205
134.923
134.634
134.356
134.065
133.797
133.506
133.254
132.962
132.726
132.428
132.202
131.895
131.663
131.347
131.105
130.786
130.541
130.222
129.978
129.659
129.41
129.085
128.828
128.5
128.238
127.908
127.641
127.303
127.026
126.678
126.391
126.033
125.732
125.356
125.036
124.639
124.294
123.865
123.489
123.02
122.601
122.074
121.599
120.995
120.443
119.733
119.07
118.214
117.398
116.319
115.352
113.854
112.74
110.156
109.396
104.32
104.433
94.9956
92.6909
79.7111
67.7274
55.3304
147.887
146.923
145.137
143.74
142.919
142.513
142.285
142.062
141.776
141.432
141.07
140.741
140.492
140.372
140.418
140.657
141.107
141.766
142.625
143.66
144.83
146.093
147.416
148.751
150.051
151.302
152.493
153.592
154.607
155.548
156.403
157.172
157.855
158.444
158.944
159.359
159.69
159.943
160.123
160.236
160.293
160.3
160.265
160.192
160.089
159.959
159.809
159.639
159.453
159.254
159.043
158.822
158.593
158.358
158.117
157.872
157.623
157.37
157.114
156.856
156.595
156.332
156.068
155.802
155.534
155.265
154.995
154.725
154.453
154.18
153.907
153.633
153.358
153.083
152.808
152.532
152.256
151.98
151.703
151.426
151.149
150.872
150.594
150.317
150.039
149.761
149.483
149.205
148.927
148.648
148.37
148.092
147.813
147.535
147.256
146.977
146.698
146.42
146.141
145.862
145.583
145.304
145.025
144.746
144.467
144.188
143.909
143.629
143.35
143.071
142.791
142.512
142.233
141.953
141.674
141.394
141.114
140.834
140.554
140.274
139.994
139.714
139.434
139.153
138.872
138.591
138.31
138.029
137.747
137.465
137.183
136.9
136.617
136.333
136.049
135.763
135.479
135.188
134.905
134.609
134.331
134.03
133.764
133.46
133.216
132.909
132.685
132.368
132.155
131.827
131.613
131.272
131.057
130.7
130.492
130.122
129.924
129.547
129.352
128.96
128.763
128.356
128.163
127.748
127.553
127.123
126.921
126.474
126.265
125.803
125.584
125.096
124.858
124.338
124.081
123.518
123.232
122.614
122.289
121.591
121.216
120.394
119.955
118.942
118.452
117.11
116.675
114.73
114.61
111.542
112.021
107.146
108.01
101.239
100.298
91.8803
85.7024
77.2111
65.279
56.9469
149.094
148.215
146.336
144.791
143.827
143.353
143.166
143.067
142.941
142.76
142.542
142.325
142.157
142.086
142.15
142.379
142.79
143.377
144.134
145.045
146.062
147.151
148.293
149.453
150.587
151.687
152.747
153.739
154.666
155.54
156.339
157.059
157.706
158.273
158.76
159.169
159.5
159.757
159.944
160.067
160.133
160.149
160.125
160.066
159.973
159.852
159.709
159.547
159.369
159.177
158.974
158.759
158.536
158.306
158.07
157.83
157.585
157.335
157.083
156.828
156.57
156.309
156.047
155.783
155.517
155.25
154.981
154.712
154.441
154.169
153.897
153.624
153.35
153.076
152.802
152.526
152.251
151.975
151.699
151.422
151.146
150.869
150.591
150.314
150.037
149.759
149.481
149.203
148.925
148.647
148.369
148.09
147.812
147.533
147.255
146.976
146.697
146.419
146.14
145.861
145.582
145.303
145.024
144.745
144.466
144.187
143.908
143.628
143.349
143.07
142.79
142.511
142.231
141.952
141.672
141.392
141.112
140.832
140.552
140.272
139.991
139.711
139.43
139.149
138.868
138.587
138.306
138.024
137.742
137.459
137.176
136.893
136.609
136.324
136.039
135.751
135.466
135.172
134.887
134.585
134.304
133.991
133.726
133.405
133.17
132.843
132.636
132.29
132.087
131.72
131.509
131.131
130.931
130.537
130.355
129.941
129.776
129.34
129.188
128.726
128.588
128.095
127.978
127.457
127.36
126.8
126.715
126.108
126.05
125.391
125.351
124.625
124.601
123.797
123.795
122.889
122.911
121.878
121.92
120.727
120.802
119.369
119.474
117.722
117.894
115.657
115.946
112.979
113.374
109.515
109.582
105.027
103.659
98.7362
94.3601
88.9563
81.6515
76.4714
66.4606
59.3972
150.021
149.218
147.304
145.642
144.559
144.028
143.882
143.903
143.936
143.919
143.846
143.739
143.644
143.609
143.674
143.877
144.238
144.752
145.41
146.198
147.081
148.024
149.013
150.026
151.023
151.994
152.945
153.849
154.701
155.507
156.252
156.929
157.544
158.09
158.562
158.961
159.291
159.554
159.75
159.884
159.965
159.997
159.986
159.937
159.856
159.746
159.612
159.457
159.286
159.101
158.904
158.697
158.48
158.255
158.024
157.788
157.546
157.3
157.051
156.799
156.544
156.287
156.027
155.765
155.501
155.235
154.968
154.7
154.43
154.16
153.888
153.616
153.343
153.069
152.795
152.521
152.246
151.97
151.695
151.419
151.142
150.866
150.589
150.312
150.034
149.757
149.479
149.201
148.923
148.645
148.367
148.089
147.811
147.532
147.254
146.975
146.696
146.418
146.139
145.86
145.581
145.302
145.023
144.744
144.465
144.186
143.907
143.627
143.348
143.069
142.789
142.509
142.23
141.95
141.67
141.39
141.11
140.83
140.55
140.269
139.989
139.708
139.427
139.146
138.865
138.583
138.301
138.019
137.736
137.453
137.17
136.885
136.601
136.315
136.03
135.74
135.454
135.158
134.871
134.564
134.279
133.958
133.685
133.355
133.113
132.783
132.559
132.212
131.964
131.588
131.328
130.943
130.708
130.316
130.111
129.699
129.508
129.055
128.873
128.393
128.236
127.727
127.592
127.041
126.929
126.321
126.237
125.573
125.515
124.787
124.759
123.937
123.932
123.021
123.048
122.009
122.06
120.87
120.94
119.564
119.64
118.024
118.066
116.16
116.123
113.848
113.61
110.92
110.203
107.199
105.484
102.299
99.143
95.6143
91.0467
87.6298
81.4861
77.6897
69.6119
62.5981
150.714
149.981
148.114
146.457
145.366
144.824
144.694
144.77
144.889
144.969
144.987
144.949
144.896
144.88
144.943
145.123
145.44
145.889
146.464
147.156
147.929
148.754
149.619
150.506
151.385
152.247
153.097
153.914
154.686
155.423
156.113
156.752
157.339
157.864
158.325
158.724
159.06
159.335
159.548
159.698
159.793
159.843
159.85
159.816
159.747
159.648
159.524
159.379
159.216
159.035
158.843
158.64
158.429
158.21
157.984
157.751
157.513
157.27
157.023
156.773
156.52
156.265
156.007
155.746
155.484
155.22
154.955
154.688
154.419
154.15
153.879
153.608
153.336
153.063
152.79
152.516
152.241
151.966
151.691
151.415
151.139
150.863
150.586
150.309
150.032
149.755
149.477
149.2
148.922
148.644
148.366
148.088
147.81
147.531
147.253
146.974
146.696
146.417
146.138
145.859
145.58
145.301
145.022
144.743
144.464
144.185
143.906
143.626
143.347
143.067
142.788
142.508
142.228
141.949
141.669
141.389
141.108
140.828
140.548
140.267
139.986
139.705
139.424
139.143
138.861
138.579
138.297
138.014
137.731
137.448
137.164
136.879
136.594
136.307
136.021
135.73
135.443
135.147
134.858
134.55
134.26
133.937
133.649
133.314
133.043
132.707
132.439
132.087
131.786
131.417
131.114
130.743
130.467
130.09
129.847
129.443
129.201
128.751
128.509
128.039
127.828
127.334
127.135
126.593
126.392
125.809
125.633
124.999
124.833
124.134
123.974
123.195
123.05
122.178
122.037
121.042
120.889
119.749
119.573
118.253
118.002
116.474
116.085
114.317
113.688
111.668
110.661
108.41
106.816
104.411
102.158
99.6783
96.7907
94.255
90.5187
88.1012
82.9915
79.1653
72.3579
65.5603
151.283
150.611
148.817
147.196
146.103
145.537
145.395
145.493
145.665
145.816
145.911
145.947
145.952
145.971
146.041
146.205
146.489
146.884
147.386
147.991
148.668
149.387
150.138
150.911
151.677
152.43
153.179
153.907
154.604
155.28
155.928
156.535
157.099
157.611
158.069
158.475
158.826
159.12
159.352
159.522
159.636
159.702
159.722
159.702
159.646
159.558
159.442
159.305
159.149
158.978
158.791
158.593
158.384
158.167
157.944
157.715
157.481
157.241
156.997
156.749
156.499
156.247
155.991
155.733
155.473
155.21
154.945
154.678
154.411
154.142
153.872
153.601
153.329
153.057
152.784
152.511
152.237
151.962
151.687
151.412
151.136
150.86
150.583
150.307
150.03
149.753
149.476
149.198
148.92
148.643
148.365
148.087
147.808
147.53
147.252
146.973
146.695
146.416
146.137
145.859
145.58
145.301
145.022
144.743
144.463
144.184
143.905
143.625
143.346
143.066
142.787
142.507
142.227
141.947
141.667
141.387
141.107
140.826
140.546
140.265
139.984
139.703
139.421
139.14
138.858
138.575
138.293
138.01
137.726
137.442
137.158
136.872
136.587
136.299
136.013
135.722
135.434
135.137
134.847
134.541
134.248
133.924
133.622
133.277
132.966
132.61
132.288
131.934
131.6
131.252
130.929
130.568
130.262
129.88
129.594
129.187
128.896
128.452
128.161
127.699
127.426
126.943
126.665
126.129
125.844
125.275
125.009
124.394
124.106
123.426
123.129
122.392
122.077
121.257
120.904
119.988
119.577
118.553
118.052
116.891
116.245
114.946
114.089
112.632
111.507
109.897
108.451
106.732
104.932
103.11
100.993
99.232
96.742
95.0299
91.6096
89.2722
84.5261
80.2597
74.3305
68.0136
151.754
151.134
149.414
147.84
146.769
146.216
146.095
146.229
146.447
146.649
146.796
146.877
146.915
146.95
147.017
147.157
147.396
147.735
148.168
148.689
149.276
149.9
150.546
151.213
151.878
152.533
153.191
153.843
154.475
155.098
155.707
156.284
156.826
157.33
157.794
158.215
158.585
158.901
159.157
159.347
159.481
159.567
159.604
159.597
159.552
159.474
159.368
159.239
159.092
158.927
158.747
158.554
158.351
158.138
157.916
157.689
157.455
157.216
156.973
156.727
156.478
156.226
155.971
155.714
155.455
155.194
154.931
154.666
154.4
154.133
153.864
153.594
153.323
153.051
152.779
152.506
152.232
151.958
151.684
151.409
151.133
150.857
150.581
150.305
150.028
149.751
149.474
149.197
148.919
148.641
148.364
148.086
147.807
147.529
147.251
146.972
146.694
146.415
146.137
145.858
145.579
145.3
145.021
144.742
144.463
144.183
143.904
143.625
143.345
143.065
142.786
142.506
142.226
141.946
141.666
141.386
141.105
140.825
140.544
140.263
139.982
139.7
139.419
139.137
138.854
138.572
138.289
138.006
137.722
137.437
137.153
136.867
136.581
136.293
136.005
135.714
135.425
135.129
134.838
134.534
134.237
133.916
133.602
133.25
132.9
132.525
132.157
131.808
131.457
131.126
130.788
130.436
130.099
129.709
129.374
128.966
128.622
128.213
127.856
127.421
127.068
126.602
126.239
125.74
125.359
124.828
124.451
123.878
123.458
122.831
122.389
121.718
121.232
120.484
119.933
119.125
118.493
117.593
116.851
115.864
114.974
113.895
112.834
111.656
110.4
109.138
107.676
106.396
104.703
103.507
101.531
100.414
97.8397
96.2666
92.7043
89.9705
85.5114
80.9893
75.6605
69.9591
152.134
151.556
149.907
148.398
147.378
146.862
146.769
146.924
147.161
147.383
147.548
147.648
147.703
147.747
147.814
147.94
148.153
148.449
148.825
149.277
149.786
150.324
150.88
151.451
152.022
152.589
153.161
153.735
154.306
154.875
155.436
155.981
156.507
157.009
157.483
157.922
158.315
158.659
158.945
159.166
159.326
159.433
159.489
159.497
159.465
159.398
159.299
159.176
159.033
158.872
158.696
158.506
158.305
158.094
157.876
157.654
157.427
157.194
156.955
156.711
156.463
156.214
155.961
155.706
155.449
155.188
154.925
154.661
154.394
154.127
153.858
153.588
153.318
153.047
152.775
152.502
152.229
151.955
151.681
151.406
151.131
150.855
150.579
150.303
150.026
149.749
149.472
149.195
148.918
148.64
148.362
148.085
147.807
147.528
147.25
146.972
146.693
146.415
146.136
145.857
145.578
145.299
145.02
144.741
144.462
144.183
143.903
143.624
143.344
143.065
142.785
142.505
142.225
141.945
141.665
141.384
141.104
140.823
140.542
140.261
139.98
139.698
139.416
139.134
138.852
138.569
138.286
138.002
137.718
137.433
137.148
136.862
136.575
136.287
135.999
135.708
135.417
135.122
134.829
134.528
134.228
133.912
133.59
133.239
132.867
132.481
132.093
131.734
131.383
131.049
130.709
130.359
130.004
129.614
129.236
128.829
128.453
128.061
127.672
127.251
126.836
126.385
125.964
125.499
125.056
124.554
124.082
123.555
123.047
122.481
121.932
121.323
120.727
120.063
119.395
118.686
117.943
117.164
116.323
115.493
114.543
113.659
112.575
111.676
110.437
109.572
108.158
107.367
105.673
104.894
102.744
101.625
98.7879
96.8836
93.3285
90.1526
85.9887
81.5484
76.6652
71.5317
152.436
151.892
150.315
148.885
147.933
147.47
147.411
147.586
147.835
148.066
148.243
148.356
148.423
148.477
148.548
148.664
148.85
149.108
149.43
149.812
150.242
150.694
151.156
151.63
152.106
152.579
153.065
153.563
154.064
154.573
155.088
155.606
156.124
156.632
157.123
157.587
158.012
158.393
158.719
158.978
159.172
159.306
159.383
159.408
159.39
159.334
159.244
159.127
158.988
158.831
158.657
158.471
158.273
158.065
157.85
157.63
157.403
157.169
156.93
156.688
156.443
156.196
155.945
155.691
155.434
155.175
154.913
154.65
154.385
154.119
153.851
153.582
153.312
153.042
152.77
152.498
152.225
151.952
151.678
151.403
151.128
150.853
150.577
150.301
150.025
149.748
149.471
149.194
148.917
148.639
148.362
148.084
147.806
147.528
147.249
146.971
146.693
146.414
146.135
145.857
145.578
145.299
145.02
144.741
144.461
144.182
143.903
143.623
143.343
143.064
142.784
142.504
142.224
141.944
141.663
141.383
141.102
140.821
140.54
140.259
139.978
139.696
139.414
139.132
138.849
138.566
138.282
137.998
137.714
137.429
137.144
136.857
136.57
136.282
135.993
135.702
135.411
135.117
134.822
134.523
134.221
133.912
133.586
133.249
132.875
132.5
132.105
131.736
131.381
131.038
130.696
130.349
129.983
129.609
129.205
128.806
128.413
128.025
127.63
127.223
126.781
126.347
125.888
125.458
124.986
124.512
123.996
123.501
122.959
122.454
121.854
121.301
120.661
120.091
119.379
118.773
117.99
117.374
116.491
115.867
114.887
114.284
113.154
112.596
111.295
110.774
109.235
108.675
106.777
105.946
103.584
102.144
99.2237
96.8692
93.4965
90.1048
86.2016
82.0263
77.5327
72.8537
152.66
152.143
150.643
149.307
148.442
148.051
148.037
148.231
148.482
148.706
148.874
148.982
149.047
149.099
149.166
149.27
149.43
149.651
149.925
150.242
150.595
150.966
151.342
151.725
152.112
152.499
152.901
153.324
153.759
154.211
154.689
155.189
155.705
156.225
156.744
157.246
157.713
158.14
158.508
158.803
159.03
159.192
159.291
159.334
159.327
159.28
159.2
159.09
158.956
158.803
158.633
158.45
158.255
158.05
157.837
157.617
157.39
157.158
156.921
156.681
156.438
156.191
155.94
155.686
155.429
155.169
154.908
154.645
154.38
154.114
153.847
153.578
153.309
153.038
152.767
152.495
152.222
151.949
151.675
151.401
151.126
150.851
150.575
150.299
150.023
149.747
149.47
149.193
148.916
148.638
148.361
148.083
147.805
147.527
147.249
146.97
146.692
146.413
146.135
145.856
145.577
145.298
145.019
144.74
144.461
144.181
143.902
143.622
143.343
143.063
142.783
142.503
142.223
141.943
141.662
141.382
141.101
140.82
140.539
140.257
139.976
139.694
139.412
139.129
138.846
138.563
138.28
137.995
137.711
137.426
137.14
136.853
136.566
136.277
135.988
135.698
135.406
135.113
134.816
134.521
134.215
133.914
133.588
133.274
132.913
132.569
132.179
131.813
131.444
131.096
130.743
130.406
130.035
129.69
129.28
128.915
128.497
128.127
127.718
127.344
126.896
126.505
126.015
125.631
125.131
124.731
124.182
123.756
123.174
122.76
122.126
121.69
120.99
120.565
119.806
119.378
118.524
118.123
117.173
116.792
115.716
115.365
114.131
113.767
112.347
111.886
110.202
109.496
107.491
106.32
103.903
102.06
99.2866
96.6256
93.4422
90.0761
86.3924
82.4867
78.332
74.0065
152.786
152.295
150.892
149.681
148.929
148.626
148.661
148.864
149.099
149.298
149.443
149.534
149.59
149.64
149.708
149.809
149.953
150.143
150.371
150.63
150.913
151.204
151.495
151.79
152.088
152.391
152.712
153.056
153.424
153.828
154.269
154.748
155.26
155.796
156.346
156.894
157.416
157.894
158.309
158.646
158.907
159.099
159.221
159.279
159.283
159.244
159.167
159.059
158.926
158.774
158.605
158.422
158.228
158.024
157.812
157.594
157.37
157.14
156.905
156.665
156.422
156.175
155.925
155.672
155.417
155.159
154.899
154.637
154.373
154.108
153.841
153.573
153.304
153.035
152.764
152.492
152.22
151.947
151.673
151.399
151.124
150.849
150.574
150.298
150.022
149.746
149.469
149.192
148.915
148.637
148.36
148.082
147.804
147.526
147.248
146.97
146.691
146.413
146.134
145.855
145.577
145.298
145.019
144.739
144.46
144.181
143.901
143.622
143.342
143.062
142.782
142.502
142.222
141.942
141.661
141.381
141.1
140.819
140.537
140.256
139.974
139.692
139.41
139.127
138.844
138.561
138.277
137.993
137.708
137.422
137.136
136.85
136.562
136.274
135.984
135.694
135.401
135.11
134.812
134.519
134.212
133.919
133.596
133.305
132.959
132.66
132.282
131.949
131.558
131.22
130.845
130.526
130.145
129.84
129.432
129.122
128.68
128.353
127.912
127.592
127.133
126.814
126.304
125.98
125.444
125.137
124.558
124.244
123.609
123.302
122.626
122.334
121.576
121.294
120.471
120.21
119.288
119.033
118.012
117.754
116.598
116.291
114.985
114.555
113.063
112.414
110.683
109.669
107.67
106.146
103.881
101.75
99.1487
96.4149
93.3752
90.1254
86.6321
82.948
79.059
75.0082
152.765
152.31
151.066
150.031
149.422
149.22
149.293
149.483
149.68
149.836
149.944
150.014
150.062
150.111
150.18
150.274
150.398
150.557
150.74
150.936
151.146
151.361
151.571
151.783
152
152.221
152.468
152.748
153.063
153.425
153.841
154.311
154.833
155.395
155.984
156.577
157.144
157.666
158.123
158.5
158.794
159.014
159.158
159.232
159.246
159.214
159.142
159.038
158.908
158.758
158.591
158.41
158.217
158.014
157.803
157.584
157.36
157.13
156.896
156.658
156.416
156.17
155.92
155.668
155.413
155.155
154.895
154.633
154.37
154.104
153.838
153.57
153.302
153.032
152.761
152.49
152.218
151.945
151.671
151.397
151.123
150.848
150.573
150.297
150.021
149.745
149.468
149.191
148.914
148.637
148.359
148.082
147.804
147.526
147.248
146.969
146.691
146.412
146.134
145.855
145.576
145.297
145.018
144.739
144.46
144.18
143.901
143.621
143.342
143.062
142.782
142.502
142.221
141.941
141.66
141.38
141.099
140.818
140.536
140.255
139.973
139.691
139.408
139.126
138.842
138.559
138.275
137.99
137.705
137.42
137.134
136.847
136.559
136.271
135.981
135.691
135.398
135.108
134.81
134.519
134.212
133.925
133.607
133.332
132.999
132.738
132.378
132.094
131.697
131.388
130.99
130.694
130.302
130.027
129.624
129.363
128.92
128.646
128.179
127.912
127.438
127.185
126.671
126.413
125.851
125.608
125.018
124.789
124.134
123.904
123.2
122.987
122.22
122.002
121.151
120.929
119.998
119.736
118.7
118.37
117.22
116.763
115.467
114.813
113.348
112.402
110.759
109.441
107.595
105.825
103.697
101.464
98.9711
96.2858
93.368
90.2474
86.914
83.4011
79.7114
75.8704
152.545
152.148
151.17
150.39
149.964
149.852
149.924
150.064
150.198
150.297
150.363
150.41
150.449
150.496
150.563
150.649
150.751
150.873
151.009
151.153
151.303
151.452
151.595
151.742
151.896
152.06
152.255
152.493
152.78
153.124
153.534
154.01
154.548
155.136
155.754
156.377
156.976
157.531
158.02
158.424
158.741
158.978
159.135
159.217
159.237
159.206
159.136
159.032
158.901
158.749
158.581
158.399
158.206
158.003
157.793
157.575
157.351
157.122
156.888
156.649
156.407
156.161
155.912
155.66
155.405
155.148
154.889
154.628
154.365
154.101
153.835
153.567
153.299
153.03
152.759
152.488
152.216
151.943
151.67
151.396
151.122
150.847
150.572
150.296
150.02
149.744
149.467
149.191
148.914
148.636
148.359
148.081
147.803
147.525
147.247
146.969
146.691
146.412
146.133
145.855
145.576
145.297
145.018
144.739
144.459
144.18
143.9
143.621
143.341
143.061
142.781
142.501
142.221
141.94
141.66
141.379
141.098
140.817
140.535
140.254
139.972
139.689
139.407
139.124
138.841
138.557
138.273
137.988
137.703
137.418
137.131
136.844
136.556
136.268
135.978
135.689
135.396
135.106
134.809
134.52
134.216
133.934
133.62
133.355
133.03
132.79
132.444
132.206
131.818
131.558
131.146
130.885
130.477
130.234
129.824
129.601
129.16
128.936
128.459
128.235
127.747
127.537
127.019
126.811
126.244
126.032
125.439
125.238
124.594
124.38
123.684
123.457
122.715
122.461
121.642
121.336
120.452
120.066
119.083
118.575
117.495
116.814
115.613
114.706
113.368
112.189
110.677
109.178
107.425
105.563
103.496
101.264
98.8339
96.2207
93.4096
90.4056
87.2087
83.8372
80.3045
76.6299
152.176
151.872
151.248
150.764
150.511
150.446
150.477
150.539
150.598
150.639
150.667
150.695
150.728
150.77
150.829
150.899
150.98
151.072
151.17
151.271
151.376
151.481
151.584
151.692
151.81
151.948
152.12
152.34
152.615
152.953
153.362
153.844
154.391
154.99
155.621
156.259
156.877
157.45
157.955
158.373
158.705
158.953
159.119
159.208
159.231
159.203
159.132
159.027
158.896
158.744
158.575
158.393
158.199
157.996
157.785
157.567
157.344
157.115
156.882
156.644
156.403
156.158
155.909
155.658
155.403
155.146
154.887
154.626
154.363
154.099
153.833
153.566
153.297
153.028
152.758
152.487
152.215
151.942
151.669
151.395
151.121
150.846
150.571
150.296
150.02
149.743
149.467
149.19
148.913
148.636
148.359
148.081
147.803
147.525
147.247
146.969
146.69