/*--------------------------------*- C++ -*----------------------------------*\
| =========                 |                                                 |
| \\      /  F ield         | OpenFOAM: The Open Source CFD Toolbox           |
|  \\    /   O peration     | Version:  2.4.0                                 |
|   \\  /    A nd           | Web:      www.OpenFOAM.org                      |
|    \\/     M anipulation  |                                                 |
\*---------------------------------------------------------------------------*/
FoamFile
{
    version     2.0;
    format      ascii;
    class       volVectorField;
    location    "0.03";
    object      U;
}
// * * * * * * * * * * * * * * * * * * * * * * * * * * * * * * * * * * * * * //

dimensions      [0 1 -1 0 0 0 0];

internalField   nonuniform List<vector> 
8800
(
(8.0937 0.387542 0)
(5.45556 0.242767 0)
(3.90342 0.0436865 0)
(3.16501 -0.0178704 0)
(2.79504 -0.0155684 0)
(2.59472 -0.0111251 0)
(2.48703 -0.00900843 0)
(2.37554 0.00162774 0)
(2.30552 -0.00120624 0)
(2.26531 -0.00588875 0)
(2.21376 0.00440877 0)
(2.17301 -0.000275577 0)
(2.15597 -0.00408708 0)
(2.11611 0.00552746 0)
(2.07392 8.88749e-05 0)
(2.04491 -0.00346376 0)
(2.01781 0.00332353 0)
(1.95165 0.00358924 0)
(1.94925 0.00610782 0)
(1.60704 -0.0618394 0)
(10.0913 0.836373 0)
(9.66716 0.870187 0)
(8.85904 0.509738 0)
(8.1036 0.253859 0)
(7.46726 0.14758 0)
(7.01506 0.0799982 0)
(6.70203 0.0461547 0)
(6.37834 0.0534496 0)
(6.21224 0.0264393 0)
(6.05762 0.00986844 0)
(5.8888 0.0341935 0)
(5.81428 0.0119586 0)
(5.72645 0.00243904 0)
(5.61505 0.0313367 0)
(5.57146 0.0162016 0)
(5.45814 0.00406955 0)
(5.39963 0.0305212 0)
(5.26671 0.0151779 0)
(5.26369 0.0451428 0)
(4.94224 -0.0780867 0)
(10.0665 0.626219 0)
(10.6684 0.870001 0)
(10.8581 0.605027 0)
(10.7241 0.359176 0)
(10.4148 0.274273 0)
(10.1021 0.188576 0)
(9.8384 0.143268 0)
(9.47526 0.147845 0)
(9.29364 0.0819544 0)
(9.09316 0.0554559 0)
(8.84857 0.0867255 0)
(8.7643 0.0357807 0)
(8.6375 0.0275078 0)
(8.45028 0.0622052 0)
(8.4447 0.03811 0)
(8.25828 0.0237104 0)
(8.20149 0.0601484 0)
(8.02527 0.0412245 0)
(8.02 0.0537918 0)
(7.71347 -0.00397222 0)
(10.0216 0.448482 0)
(10.5518 0.714733 0)
(11.1453 0.550096 0)
(11.4215 0.337616 0)
(11.5066 0.290738 0)
(11.4814 0.210672 0)
(11.4698 0.18537 0)
(11.3013 0.215432 0)
(11.2562 0.123585 0)
(11.1651 0.103226 0)
(10.9849 0.146466 0)
(10.9316 0.0614146 0)
(10.8711 0.0660443 0)
(10.6545 0.105424 0)
(10.7047 0.0588872 0)
(10.498 0.05462 0)
(10.4756 0.0908308 0)
(10.2944 0.076513 0)
(10.3005 0.0548139 0)
(10.0211 0.0807451 0)
(10.0835 0.34057 0)
(10.3782 0.587868 0)
(10.9646 0.448693 0)
(11.342 0.272188 0)
(11.6101 0.257218 0)
(11.7238 0.168373 0)
(11.8201 0.161496 0)
(11.8507 0.221606 0)
(11.9267 0.109452 0)
(11.9748 0.100617 0)
(11.98 0.176355 0)
(11.9827 0.0550367 0)
(12.0297 0.0794892 0)
(11.9321 0.131266 0)
(12.0245 0.0688132 0)
(11.8995 0.0666924 0)
(11.9326 0.11614 0)
(11.8563 0.0882545 0)
(11.8585 0.0697424 0)
(11.6547 0.0613245 0)
(10.0614 0.236197 0)
(10.3357 0.500017 0)
(10.8149 0.368347 0)
(11.17 0.210695 0)
(11.5027 0.203642 0)
(11.6755 0.128126 0)
(11.7339 0.126971 0)
(11.8682 0.195488 0)
(11.9543 0.0748449 0)
(12.0067 0.078373 0)
(12.1432 0.166246 0)
(12.2013 0.034469 0)
(12.2458 0.069382 0)
(12.3077 0.132553 0)
(12.4081 0.0518977 0)
(12.3687 0.0621819 0)
(12.4403 0.10962 0)
(12.4931 0.0776699 0)
(12.5157 0.0556569 0)
(12.4093 0.0359934 0)
(10.0076 0.160399 0)
(10.3063 0.40147 0)
(10.7639 0.278465 0)
(11.0668 0.162245 0)
(11.3945 0.165231 0)
(11.5981 0.0898169 0)
(11.64 0.0968479 0)
(11.7975 0.165836 0)
(11.8833 0.0522698 0)
(11.8933 0.0474828 0)
(12.0506 0.141701 0)
(12.1461 0.0163184 0)
(12.168 0.0513446 0)
(12.2956 0.109522 0)
(12.3911 0.0376586 0)
(12.3783 0.0478403 0)
(12.4525 0.0839678 0)
(12.5523 0.0455247 0)
(12.5787 0.0316168 0)
(12.5074 0.00593058 0)
(9.98491 0.092195 0)
(10.2778 0.302224 0)
(10.7205 0.206857 0)
(10.9962 0.110231 0)
(11.3187 0.11878 0)
(11.53 0.0552005 0)
(11.5768 0.0628107 0)
(11.7348 0.12257 0)
(11.8243 0.0333338 0)
(11.8269 0.0344613 0)
(11.9614 0.107525 0)
(12.0687 -0.000956338 0)
(12.1029 0.0398241 0)
(12.2264 0.0895043 0)
(12.3236 0.0142891 0)
(12.3255 0.0290527 0)
(12.3914 0.0602418 0)
(12.4846 0.018719 0)
(12.5062 0.00310845 0)
(12.4231 -0.0127264 0)
(9.98657 0.0444762 0)
(10.2414 0.195919 0)
(10.6788 0.112579 0)
(10.9639 0.0655769 0)
(11.265 0.0884684 0)
(11.4829 0.0154883 0)
(11.5489 0.0389752 0)
(11.6879 0.0911044 0)
(11.7709 0.00649148 0)
(11.7996 0.014073 0)
(11.9134 0.0813283 0)
(12.0115 -0.0154329 0)
(12.0668 0.0173873 0)
(12.1819 0.0673261 0)
(12.277 -0.00593257 0)
(12.2882 0.0103718 0)
(12.347 0.0332241 0)
(12.4347 -0.00625399 0)
(12.4506 -0.0161856 0)
(12.3585 -0.0174889 0)
(9.99101 -0.00654825 0)
(10.2285 0.0992965 0)
(10.6512 0.0388673 0)
(10.9423 0.00590597 0)
(11.2383 0.0494393 0)
(11.4618 -0.0177468 0)
(11.5337 0.0105574 0)
(11.6619 0.0419651 0)
(11.7511 -0.0143454 0)
(11.7913 0.00623264 0)
(11.8828 0.0472697 0)
(11.9869 -0.0338408 0)
(12.0606 0.00835697 0)
(12.1529 0.0424768 0)
(12.248 -0.0312017 0)
(12.2782 -0.00854189 0)
(12.3267 0.0146603 0)
(12.4042 -0.0268372 0)
(12.4195 -0.0358829 0)
(12.347 -0.0472718 0)
(9.99806 -0.0481418 0)
(10.2226 0.000240237 0)
(10.6408 -0.0571189 0)
(10.9569 -0.0456386 0)
(11.2313 0.0235699 0)
(11.4562 -0.0595523 0)
(11.5479 -0.0104693 0)
(11.6559 0.0104817 0)
(11.7443 -0.045928 0)
(11.803 -0.00879536 0)
(11.8797 0.0202719 0)
(11.9808 -0.049043 0)
(12.0693 -0.00979805 0)
(12.1505 0.0154285 0)
(12.2438 -0.0488049 0)
(12.282 -0.0301558 0)
(12.3237 -0.0109423 0)
(12.3993 -0.0468054 0)
(12.4244 -0.0601213 0)
(12.3662 -0.0780491 0)
(10.0023 -0.0978534 0)
(10.2374 -0.0973889 0)
(10.6538 -0.133507 0)
(10.9887 -0.103079 0)
(11.2448 -0.0118397 0)
(11.4759 -0.095765 0)
(11.5767 -0.0383498 0)
(11.6662 -0.0339644 0)
(11.7689 -0.0753552 0)
(11.8333 -0.0128048 0)
(11.8904 -0.0125447 0)
(12.003 -0.0705504 0)
(12.1038 -0.0176912 0)
(12.1635 -0.00959571 0)
(12.2564 -0.0712273 0)
(12.3097 -0.0511406 0)
(12.3438 -0.029068 0)
(12.4149 -0.0682014 0)
(12.4522 -0.0854881 0)
(12.374 -0.0686697 0)
(10.0096 -0.147883 0)
(10.2594 -0.196551 0)
(10.6856 -0.226597 0)
(11.0529 -0.157347 0)
(11.2859 -0.0373514 0)
(11.5153 -0.14024 0)
(11.631 -0.0634978 0)
(11.6975 -0.062936 0)
(11.811 -0.107969 0)
(11.8825 -0.0240339 0)
(11.929 -0.0414384 0)
(12.0503 -0.0871664 0)
(12.1563 -0.0316542 0)
(12.2027 -0.0393428 0)
(12.2948 -0.0863307 0)
(12.3543 -0.0719112 0)
(12.3833 -0.053381 0)
(12.4562 -0.0902857 0)
(12.5 -0.106659 0)
(12.4104 -0.0700237 0)
(10.0198 -0.21156 0)
(10.2827 -0.298214 0)
(10.7544 -0.309485 0)
(11.1319 -0.203327 0)
(11.3626 -0.0760656 0)
(11.5928 -0.183334 0)
(11.6994 -0.0887165 0)
(11.7392 -0.10053 0)
(11.8842 -0.145097 0)
(11.951 -0.0272308 0)
(12.0045 -0.0762761 0)
(12.1261 -0.112587 0)
(12.2355 -0.0376864 0)
(12.2601 -0.0663154 0)
(12.3541 -0.107086 0)
(12.4119 -0.0921342 0)
(12.4446 -0.0728219 0)
(12.5075 -0.115066 0)
(12.5596 -0.130308 0)
(12.5032 -0.106189 0)
(10.0294 -0.283321 0)
(10.2957 -0.400173 0)
(10.885 -0.405261 0)
(11.2125 -0.250855 0)
(11.4985 -0.115338 0)
(11.6964 -0.226111 0)
(11.7679 -0.112816 0)
(11.8072 -0.126411 0)
(11.9809 -0.18323 0)
(12.0101 -0.040791 0)
(12.1251 -0.105825 0)
(12.1697 -0.135165 0)
(12.2972 -0.0491462 0)
(12.2718 -0.0874917 0)
(12.3772 -0.120035 0)
(12.3773 -0.111904 0)
(12.4246 -0.0879643 0)
(12.4249 -0.142508 0)
(12.4706 -0.151852 0)
(12.3513 -0.157676 0)
(9.99944 -0.368513 0)
(10.3679 -0.520906 0)
(11.0763 -0.489266 0)
(11.302 -0.296496 0)
(11.667 -0.174736 0)
(11.7416 -0.255697 0)
(11.7996 -0.138661 0)
(11.8605 -0.160225 0)
(11.9412 -0.209454 0)
(11.9149 -0.0640198 0)
(12.0421 -0.125494 0)
(11.9068 -0.145332 0)
(12.0545 -0.0601378 0)
(11.916 -0.0942903 0)
(11.9881 -0.122373 0)
(11.8611 -0.118384 0)
(11.9033 -0.0915178 0)
(11.7554 -0.148758 0)
(11.7588 -0.145704 0)
(11.5048 -0.169587 0)
(9.94516 -0.465389 0)
(10.5683 -0.678076 0)
(11.2109 -0.567218 0)
(11.3384 -0.355484 0)
(11.6101 -0.239617 0)
(11.4478 -0.266503 0)
(11.441 -0.171104 0)
(11.3805 -0.175492 0)
(11.2055 -0.190604 0)
(11.1177 -0.0773209 0)
(11.0972 -0.114316 0)
(10.7971 -0.11963 0)
(10.9073 -0.0583917 0)
(10.6439 -0.0763421 0)
(10.6572 -0.0990384 0)
(10.4182 -0.096034 0)
(10.4388 -0.0749508 0)
(10.1601 -0.119715 0)
(10.1436 -0.12077 0)
(9.8018 -0.14871 0)
(10.0251 -0.634802 0)
(10.6782 -0.851057 0)
(10.883 -0.610503 0)
(10.66 -0.377193 0)
(10.5096 -0.243054 0)
(10.0412 -0.216485 0)
(9.83418 -0.142004 0)
(9.54865 -0.119605 0)
(9.21701 -0.118085 0)
(9.08631 -0.0505153 0)
(8.9303 -0.0599461 0)
(8.63357 -0.0693295 0)
(8.68695 -0.0337885 0)
(8.41179 -0.0387685 0)
(8.41311 -0.0610455 0)
(8.1531 -0.0592749 0)
(8.16635 -0.0448838 0)
(7.85815 -0.0747359 0)
(7.85989 -0.0853679 0)
(7.47097 -0.102081 0)
(10.0712 -0.839423 0)
(9.66883 -0.862866 0)
(8.87767 -0.509699 0)
(8.06695 -0.266123 0)
(7.52406 -0.13064 0)
(6.97191 -0.0912127 0)
(6.70473 -0.0524868 0)
(6.41843 -0.0335702 0)
(6.16404 -0.043506 0)
(6.05629 -0.0154317 0)
(5.92266 -0.0121476 0)
(5.74382 -0.030364 0)
(5.74703 -0.0127404 0)
(5.56846 -0.0119424 0)
(5.56183 -0.0285577 0)
(5.35542 -0.0269259 0)
(5.35687 -0.0182059 0)
(5.11539 -0.0364232 0)
(5.11458 -0.0491727 0)
(4.7415 -0.0518212 0)
(8.09107 -0.388288 0)
(5.4514 -0.242123 0)
(3.91713 -0.0432013 0)
(3.15103 0.0138743 0)
(2.8086 0.0209711 0)
(2.58828 0.00848353 0)
(2.48194 0.00538409 0)
(2.3848 0.00614878 0)
(2.30099 -0.00382421 0)
(2.25091 0.00265194 0)
(2.21991 0.00401993 0)
(2.16448 -0.00537418 0)
(2.1416 0.000693526 0)
(2.08954 0.00143107 0)
(2.07733 -0.00277489 0)
(1.9861 -0.00229307 0)
(1.97483 0.00043583 0)
(1.87817 -0.00531122 0)
(1.83787 -0.00925709 0)
(1.63365 0.0155082 0)
(2.21425 -0.2686 0)
(2.25551 -0.161535 0)
(2.32471 -0.119535 0)
(2.23325 -0.041577 0)
(2.56147 -0.046259 0)
(2.53775 0.122959 0)
(2.70152 0.261349 0)
(3.05538 0.398205 0)
(3.43356 0.572984 0)
(3.90716 0.816708 0)
(4.53272 1.11927 0)
(5.31287 1.32937 0)
(6.06579 1.52773 0)
(6.83609 1.61614 0)
(7.62466 1.35609 0)
(8.27464 0.928921 0)
(8.84859 0.498243 0)
(9.40496 0.102942 0)
(9.9469 -0.233738 0)
(10.3067 -0.638407 0)
(10.3252 -1.13792 0)
(10.1762 -1.60515 0)
(10.0261 -2.03615 0)
(9.80954 -2.48338 0)
(9.6814 -2.89738 0)
(9.8993 -3.20644 0)
(10.34 -3.44839 0)
(10.6458 -3.84071 0)
(11.0428 -4.17587 0)
(11.5268 -4.41425 0)
(11.5772 -4.81971 0)
(11.6014 -5.03669 0)
(11.4452 -5.20784 0)
(10.8238 -5.28792 0)
(10.2074 -4.80489 0)
(9.54174 -4.31674 0)
(8.85389 -3.96962 0)
(8.19829 -3.54328 0)
(7.69845 -3.23415 0)
(7.5959 -2.99451 0)
(7.56822 -2.74073 0)
(7.29636 -2.50685 0)
(6.99845 -2.2256 0)
(6.77688 -1.94166 0)
(6.52601 -1.73647 0)
(6.28432 -1.52042 0)
(6.11553 -1.25534 0)
(5.9803 -1.05818 0)
(5.86196 -0.982251 0)
(5.8054 -0.940986 0)
(5.81577 -0.859063 0)
(5.82291 -0.761924 0)
(5.76628 -0.699905 0)
(5.6639 -0.663359 0)
(5.57955 -0.601536 0)
(5.55129 -0.4895 0)
(5.56671 -0.350623 0)
(5.58923 -0.226789 0)
(5.5908 -0.144532 0)
(5.56443 -0.105634 0)
(5.51883 -0.0965203 0)
(5.46745 -0.101002 0)
(5.42067 -0.107571 0)
(5.38348 -0.110728 0)
(5.35649 -0.109243 0)
(5.33805 -0.103957 0)
(5.32582 -0.0962813 0)
(5.31771 -0.0874735 0)
(5.31218 -0.0784242 0)
(5.30821 -0.0696771 0)
(5.3052 -0.061522 0)
(5.30278 -0.0540855 0)
(5.30079 -0.0473987 0)
(5.29909 -0.0414401 0)
(5.29765 -0.036162 0)
(5.29641 -0.0315049 0)
(5.29536 -0.0274065 0)
(5.29445 -0.0238056 0)
(5.29369 -0.0206451 0)
(5.29304 -0.0178725 0)
(5.29249 -0.0154409 0)
(5.29203 -0.0133082 0)
(5.29164 -0.0114374 0)
(5.29132 -0.00979556 0)
(5.29104 -0.00835404 0)
(5.29082 -0.00708742 0)
(5.29063 -0.00597339 0)
(5.29047 -0.00499229 0)
(5.29033 -0.0041267 0)
(5.29022 -0.00336134 0)
(5.29013 -0.00268271 0)
(5.29005 -0.00207871 0)
(5.28999 -0.0015387 0)
(5.28994 -0.00105312 0)
(5.28989 -0.000613524 0)
(5.28986 -0.000212291 0)
(5.28983 0.000157387 0)
(5.28981 0.000501878 0)
(5.28979 0.000826358 0)
(5.28977 0.00113644 0)
(5.28976 0.00143652 0)
(5.28976 0.00173101 0)
(5.28975 0.00202436 0)
(5.28975 0.00232073 0)
(5.28975 0.00262405 0)
(5.28976 0.00293779 0)
(5.28977 0.00326535 0)
(5.28978 0.00361071 0)
(5.28979 0.00397773 0)
(5.2898 0.00437009 0)
(5.28982 0.00479176 0)
(5.28985 0.00524684 0)
(5.28987 0.0057396 0)
(5.2899 0.00627487 0)
(5.28994 0.00685765 0)
(5.28997 0.00749365 0)
(5.29002 0.008188 0)
(5.29007 0.0089488 0)
(5.29013 0.00978039 0)
(5.29019 0.0106969 0)
(5.29027 0.0116962 0)
(5.29035 0.0128103 0)
(5.29047 0.0140105 0)
(5.29054 0.015386 0)
(5.29072 0.0168152 0)
(5.29077 0.0185648 0)
(5.29108 0.0202182 0)
(5.29099 0.0225681 0)
(5.29157 0.0243333 0)
(5.29113 0.0277697 0)
(5.29224 0.0292548 0)
(5.29097 0.0348205 0)
(5.29309 0.0350157 0)
(5.29002 0.044819 0)
(5.29395 0.0415193 0)
(5.28706 0.0594253 0)
(5.29441 0.0483203 0)
(5.27911 0.0805943 0)
(5.29449 0.0537598 0)
(5.25992 0.109599 0)
(5.29716 0.0528067 0)
(5.2196 0.145989 0)
(5.31302 0.0346591 0)
(5.1484 0.188446 0)
(5.36015 -0.0105992 0)
(5.04573 0.230866 0)
(5.45067 -0.0662611 0)
(4.93081 0.24175 0)
(5.56363 -0.0612374 0)
(4.85495 0.161459 0)
(5.60846 0.082193 0)
(4.90393 -0.0204719 0)
(5.4694 0.306803 0)
(5.11468 -0.170816 0)
(5.19774 0.401742 0)
(5.3584 -0.10265 0)
(4.98057 0.258335 0)
(5.54102 0.117402 0)
(4.79564 0.146249 0)
(5.75693 0.135554 0)
(4.5895 0.311397 0)
(5.86742 0.0236213 0)
(4.63126 0.371752 0)
(5.72229 0.177025 0)
(4.72241 0.277457 0)
(5.8057 0.218865 0)
(4.53941 0.460321 0)
(5.85647 0.185362 0)
(4.72903 0.407088 0)
(5.6074 0.424874 0)
(4.75737 0.532657 0)
(5.8305 0.156511 0)
(4.65298 0.861724 0)
(5.5073 0.42466 0)
(5.12214 0.575516 0)
(5.36733 0.544486 0)
(5.0236 1.09883 0)
(5.27867 0.456778 0)
(5.44387 0.98476 0)
(5.02896 0.828084 0)
(5.39546 1.37291 0)
(5.07335 0.859235 0)
(5.66743 1.34453 0)
(5.02698 1.33497 0)
(5.51101 1.66461 0)
(5.11676 1.77269 0)
(5.46525 1.64698 0)
(5.3355 2.29941 0)
(5.05597 1.95478 0)
(5.25142 2.98898 0)
(4.66149 2.50757 0)
(5.06624 3.32533 0)
(4.60082 3.64687 0)
(5.08439 3.39616 0)
(5.23008 4.70254 0)
(5.22279 4.53183 0)
(5.30373 5.55585 0)
(5.49938 6.98908 0)
(5.93831 7.92049 0)
(3.80212 10.8621 0)
(5.17859 -0.184048 0)
(5.14993 -0.165282 0)
(5.20727 -0.123669 0)
(5.15798 -0.033339 0)
(5.24265 0.00532384 0)
(5.29405 0.101485 0)
(5.29747 0.227632 0)
(5.38046 0.328958 0)
(5.50654 0.415049 0)
(5.5858 0.530678 0)
(5.75696 0.667986 0)
(6.12788 0.75087 0)
(6.60864 0.852999 0)
(7.22326 0.938788 0)
(7.88778 0.843731 0)
(8.40623 0.537971 0)
(8.77262 0.0526974 0)
(9.14302 -0.398317 0)
(9.56767 -0.672947 0)
(9.93838 -1.01224 0)
(10.2475 -1.33195 0)
(10.5812 -1.49167 0)
(10.8573 -1.86953 0)
(11.1466 -2.37911 0)
(11.6272 -2.77556 0)
(11.9348 -3.3307 0)
(12.2031 -3.74878 0)
(12.5838 -3.99422 0)
(12.5705 -4.38644 0)
(12.5697 -4.48834 0)
(12.4515 -4.60633 0)
(11.9692 -4.94068 0)
(11.5437 -4.81716 0)
(10.8868 -4.43007 0)
(10.1577 -4.1078 0)
(9.61866 -3.86612 0)
(9.18912 -3.57842 0)
(8.82392 -3.11696 0)
(8.33375 -2.85211 0)
(7.91898 -2.82686 0)
(7.7747 -2.64018 0)
(7.54846 -2.28733 0)
(7.15134 -1.96199 0)
(6.8424 -1.69742 0)
(6.63014 -1.49097 0)
(6.41138 -1.31047 0)
(6.21561 -1.11401 0)
(6.07603 -0.95568 0)
(5.96352 -0.90076 0)
(5.87148 -0.8983 0)
(5.82219 -0.847763 0)
(5.79564 -0.733441 0)
(5.73284 -0.621564 0)
(5.61196 -0.556959 0)
(5.47473 -0.517178 0)
(5.37925 -0.457053 0)
(5.34964 -0.361938 0)
(5.36936 -0.25289 0)
(5.40538 -0.159975 0)
(5.43187 -0.100284 0)
(5.43877 -0.0736924 0)
(5.4284 -0.0697941 0)
(5.40832 -0.0763616 0)
(5.38578 -0.0843909 0)
(5.36535 -0.0892815 0)
(5.34891 -0.0898125 0)
(5.33656 -0.0865892 0)
(5.32754 -0.0808406 0)
(5.32092 -0.0737556 0)
(5.31593 -0.0662294 0)
(5.31201 -0.0588369 0)
(5.30879 -0.0518988 0)
(5.30609 -0.0455632 0)
(5.30377 -0.0398735 0)
(5.30176 -0.0348154 0)
(5.30003 -0.0303459 0)
(5.29853 -0.0264105 0)
(5.29724 -0.0229521 0)
(5.29613 -0.0199159 0)
(5.29518 -0.0172513 0)
(5.29437 -0.0149128 0)
(5.29368 -0.0128603 0)
(5.29309 -0.0110578 0)
(5.29259 -0.00947446 0)
(5.29216 -0.00808255 0)
(5.2918 -0.00685802 0)
(5.29149 -0.00577969 0)
(5.29123 -0.00482879 0)
(5.29101 -0.00398886 0)
(5.29082 -0.00324532 0)
(5.29066 -0.00258512 0)
(5.29053 -0.00199686 0)
(5.29041 -0.00147027 0)
(5.29032 -0.000996265 0)
(5.29024 -0.000566536 0)
(5.29018 -0.000173866 0)
(5.29012 0.000188487 0)
(5.29008 0.000525949 0)
(5.29005 0.000844772 0)
(5.29003 0.0011497 0)
(5.29001 0.00144511 0)
(5.29 0.00173558 0)
(5.29 0.00202528 0)
(5.29 0.00231804 0)
(5.29001 0.00261763 0)
(5.29002 0.0029277 0)
(5.29005 0.00325188 0)
(5.29007 0.00359392 0)
(5.2901 0.00395738 0)
(5.29014 0.00434591 0)
(5.29019 0.00476346 0)
(5.29024 0.00521425 0)
(5.2903 0.00570238 0)
(5.29037 0.00623252 0)
(5.29044 0.00680941 0)
(5.29053 0.00743894 0)
(5.29062 0.00812596 0)
(5.29073 0.00887893 0)
(5.29085 0.009701 0)
(5.29099 0.0106081 0)
(5.29115 0.0115938 0)
(5.29131 0.0126981 0)
(5.29154 0.0138767 0)
(5.2917 0.0152486 0)
(5.29205 0.0166345 0)
(5.29217 0.0184103 0)
(5.29275 0.0199564 0)
(5.29268 0.0224379 0)
(5.29377 0.0239086 0)
(5.29313 0.0277971 0)
(5.29524 0.0284792 0)
(5.29334 0.0353465 0)
(5.2973 0.0335361 0)
(5.29297 0.0465359 0)
(5.29965 0.0389865 0)
(5.29142 0.063244 0)
(5.30094 0.0455509 0)
(5.2868 0.0862028 0)
(5.29901 0.0562025 0)
(5.27279 0.110693 0)
(5.2956 0.0767578 0)
(5.23305 0.122119 0)
(5.30778 0.110612 0)
(5.14335 0.101558 0)
(5.36898 0.152451 0)
(4.99367 0.0454916 0)
(5.49875 0.189898 0)
(4.81236 -0.0225562 0)
(5.68453 0.204899 0)
(4.6365 -0.0312008 0)
(5.89287 0.140236 0)
(4.49713 0.123366 0)
(6.02416 -0.0412607 0)
(4.47156 0.345242 0)
(6.00355 -0.135594 0)
(4.51288 0.345195 0)
(6.0165 0.0221726 0)
(4.42 0.177138 0)
(6.17267 0.173088 0)
(4.30551 0.169352 0)
(6.19771 0.173443 0)
(4.39296 0.229039 0)
(6.11332 0.23068 0)
(4.4028 0.219426 0)
(6.19863 0.29825 0)
(4.34703 0.242085 0)
(6.18311 0.385278 0)
(4.41495 0.260509 0)
(6.24066 0.395608 0)
(4.26255 0.452739 0)
(6.32983 0.39362 0)
(4.4557 0.360189 0)
(6.05707 0.728232 0)
(4.56104 0.478842 0)
(6.27137 0.44215 0)
(4.47682 0.91329 0)
(5.98322 0.634464 0)
(4.87428 0.774289 0)
(5.91791 0.708802 0)
(4.8561 1.27136 0)
(5.65633 0.765881 0)
(5.33754 1.25733 0)
(5.40145 0.996502 0)
(5.52294 1.7216 0)
(5.20361 1.25007 0)
(5.93714 1.73929 0)
(5.30283 1.6707 0)
(5.99785 2.10589 0)
(5.5725 2.40224 0)
(5.88216 2.18627 0)
(6.19432 3.13411 0)
(5.50061 2.7657 0)
(6.52392 3.61332 0)
(5.46341 3.98103 0)
(5.65905 4.10424 0)
(5.7221 5.64616 0)
(5.47197 5.40768 0)
(5.19346 6.87871 0)
(8.30036 7.49423 0)
(6.06864 12.1827 0)
(7.749 -0.204435 0)
(7.79038 -0.256364 0)
(7.88265 -0.184176 0)
(7.89866 -0.124973 0)
(7.87454 -0.0787599 0)
(7.94357 0.0593149 0)
(8.00211 0.195932 0)
(8.02522 0.27251 0)
(8.11271 0.357544 0)
(8.17112 0.461993 0)
(8.23515 0.540386 0)
(8.44882 0.583174 0)
(8.72389 0.619448 0)
(9.03416 0.57608 0)
(9.45422 0.421027 0)
(9.95702 0.207802 0)
(10.3951 -0.0935588 0)
(10.6901 -0.492726 0)
(10.995 -0.813344 0)
(11.3189 -1.16669 0)
(11.5111 -1.58284 0)
(11.8461 -1.86058 0)
(12.3467 -2.2607 0)
(12.5536 -2.86643 0)
(12.8993 -3.25976 0)
(13.2532 -3.66796 0)
(13.0605 -4.07382 0)
(13.1242 -4.06796 0)
(13.0788 -4.2251 0)
(12.6247 -4.45804 0)
(12.3862 -4.25777 0)
(11.8469 -4.21113 0)
(11.0869 -4.28152 0)
(10.4385 -4.03084 0)
(9.86307 -3.72271 0)
(9.47201 -3.54908 0)
(9.10316 -3.31975 0)
(8.83051 -2.88993 0)
(8.62439 -2.57969 0)
(8.24486 -2.55919 0)
(7.89353 -2.41334 0)
(7.65304 -2.00945 0)
(7.31362 -1.67316 0)
(6.95884 -1.49463 0)
(6.7309 -1.32502 0)
(6.56234 -1.12254 0)
(6.39837 -0.942177 0)
(6.27216 -0.830045 0)
(6.17486 -0.801809 0)
(6.0613 -0.815231 0)
(5.93552 -0.786321 0)
(5.82838 -0.676665 0)
(5.73047 -0.536334 0)
(5.60966 -0.437306 0)
(5.46451 -0.395585 0)
(5.32949 -0.373644 0)
(5.24139 -0.332916 0)
(5.21191 -0.266491 0)
(5.22701 -0.192226 0)
(5.26287 -0.130799 0)
(5.29991 -0.092201 0)
(5.32776 -0.0750273 0)
(5.34382 -0.0719328 0)
(5.34983 -0.0750296 0)
(5.34909 -0.0786972 0)
(5.3447 -0.0801117 0)
(5.3389 -0.078556 0)
(5.33295 -0.074477 0)
(5.32743 -0.0687459 0)
(5.32251 -0.0622154 0)
(5.3182 -0.0555324 0)
(5.31443 -0.0491098 0)
(5.31112 -0.043169 0)
(5.30823 -0.0378005 0)
(5.30569 -0.0330162 0)
(5.30348 -0.0287862 0)
(5.30156 -0.0250622 0)
(5.29989 -0.0217902 0)
(5.29846 -0.0189174 0)
(5.29722 -0.0163951 0)
(5.29616 -0.01418 0)
(5.29525 -0.0122336 0)
(5.29447 -0.0105225 0)
(5.2938 -0.00901728 0)
(5.29323 -0.00769228 0)
(5.29274 -0.00652507 0)
(5.29232 -0.00549571 0)
(5.29196 -0.00458672 0)
(5.29165 -0.00378275 0)
(5.29139 -0.00307009 0)
(5.29117 -0.00243652 0)
(5.29098 -0.0018712 0)
(5.29082 -0.00136443 0)
(5.29069 -0.000907685 0)
(5.29058 -0.000493057 0)
(5.29049 -0.00011351 0)
(5.29041 0.000238622 0)
(5.29035 0.000566008 0)
(5.29031 0.000875191 0)
(5.29027 0.00117098 0)
(5.29025 0.00145825 0)
(5.29024 0.00174161 0)
(5.29024 0.00202471 0)
(5.29025 0.00231104 0)
(5.29026 0.00260446 0)
(5.29029 0.00290855 0)
(5.29032 0.00322679 0)
(5.29036 0.00356272 0)
(5.29042 0.00391992 0)
(5.29048 0.00430197 0)
(5.29055 0.00471264 0)
(5.29063 0.00515597 0)
(5.29072 0.00563613 0)
(5.29082 0.00615774 0)
(5.29094 0.00672521 0)
(5.29107 0.0073443 0)
(5.29122 0.00801946 0)
(5.29138 0.00875953 0)
(5.29157 0.00956654 0)
(5.29177 0.0104581 0)
(5.29202 0.0114233 0)
(5.29225 0.0125102 0)
(5.29259 0.0136569 0)
(5.29284 0.0150165 0)
(5.29336 0.0163409 0)
(5.29353 0.0181392 0)
(5.29444 0.0195329 0)
(5.29427 0.0221807 0)
(5.29606 0.0232046 0)
(5.29489 0.0277663 0)
(5.2986 0.0270709 0)
(5.29509 0.0362334 0)
(5.30251 0.0302731 0)
(5.29461 0.0503069 0)
(5.30743 0.0310423 0)
(5.29428 0.0747876 0)
(5.30924 0.0269878 0)
(5.29876 0.115755 0)
(5.29349 0.0171752 0)
(5.32134 0.174611 0)
(5.22955 0.00319816 0)
(5.38504 0.238379 0)
(5.08051 -0.0156294 0)
(5.51672 0.285831 0)
(4.83135 -0.055628 0)
(5.73698 0.31101 0)
(4.49987 -0.115274 0)
(6.03831 0.28685 0)
(4.17426 -0.104627 0)
(6.30405 0.146202 0)
(4.04881 0.0640071 0)
(6.3316 -0.0446954 0)
(4.1795 0.264115 0)
(6.17092 -0.111164 0)
(4.33182 0.313244 0)
(6.06662 -0.0187991 0)
(4.38887 0.209577 0)
(6.00297 0.164738 0)
(4.50524 0.055817 0)
(5.90676 0.307532 0)
(4.56226 0.0934216 0)
(5.93976 0.237938 0)
(4.48162 0.255479 0)
(5.9395 0.253943 0)
(4.59157 0.165197 0)
(5.85958 0.445349 0)
(4.52234 0.18768 0)
(6.09531 0.387968 0)
(4.32797 0.299319 0)
(6.10153 0.589474 0)
(4.44784 0.145101 0)
(6.20078 0.641959 0)
(4.09361 0.528348 0)
(6.548 0.512397 0)
(4.18614 0.408044 0)
(6.33431 0.981093 0)
(4.22598 0.593009 0)
(6.59548 0.711608 0)
(4.27501 0.862203 0)
(6.30817 1.09595 0)
(4.52703 1.04554 0)
(6.24986 0.983595 0)
(4.77532 1.40581 0)
(5.84005 1.22962 0)
(5.07418 1.81264 0)
(5.30476 1.33686 0)
(5.45618 2.18171 0)
(4.81021 1.74596 0)
(5.78068 2.35238 0)
(4.82123 2.40368 0)
(5.69413 2.52786 0)
(5.68983 3.22575 0)
(5.61399 2.80371 0)
(6.43265 4.37781 0)
(5.94047 4.03131 0)
(6.34541 4.66606 0)
(7.99654 5.40581 0)
(5.54135 7.21408 0)
(9.95857 4.38765 0)
(8.24067 11.1344 0)
(9.94151 -0.143658 0)
(9.91321 -0.354821 0)
(10.0537 -0.28953 0)
(10.2475 -0.0733261 0)
(10.2147 -0.0475621 0)
(10.1836 0.00657105 0)
(10.2715 0.15421 0)
(10.276 0.188664 0)
(10.3309 0.248994 0)
(10.5047 0.438902 0)
(10.6058 0.501416 0)
(10.6804 0.387608 0)
(10.8846 0.364844 0)
(11.21 0.368127 0)
(11.5179 0.185382 0)
(11.853 -0.0902269 0)
(12.2503 -0.411203 0)
(12.5117 -0.780252 0)
(12.7235 -1.07893 0)
(13.1024 -1.31491 0)
(13.3812 -1.6298 0)
(13.5053 -1.9927 0)
(13.8564 -2.40166 0)
(13.9434 -2.93874 0)
(13.7885 -3.34976 0)
(13.9104 -3.58448 0)
(13.5444 -3.88805 0)
(13.1338 -4.02443 0)
(13.0588 -4.02922 0)
(12.4645 -4.11907 0)
(11.9388 -4.03743 0)
(11.6028 -3.89735 0)
(11.0716 -3.76103 0)
(10.6279 -3.43644 0)
(10.1453 -3.20407 0)
(9.67018 -3.17682 0)
(9.24387 -3.0301 0)
(8.83193 -2.64529 0)
(8.62705 -2.32743 0)
(8.40086 -2.29247 0)
(7.97551 -2.20162 0)
(7.61755 -1.79019 0)
(7.37613 -1.39661 0)
(7.13787 -1.27442 0)
(6.92636 -1.21616 0)
(6.75894 -1.04478 0)
(6.60918 -0.849073 0)
(6.49757 -0.736991 0)
(6.42596 -0.699992 0)
(6.32249 -0.685238 0)
(6.1421 -0.647754 0)
(5.93378 -0.560506 0)
(5.76402 -0.439817 0)
(5.64412 -0.336404 0)
(5.547 -0.283231 0)
(5.45031 -0.269459 0)
(5.35529 -0.262298 0)
(5.27834 -0.239368 0)
(5.23279 -0.200575 0)
(5.21969 -0.158716 0)
(5.23067 -0.125273 0)
(5.25429 -0.104089 0)
(5.28065 -0.0928879 0)
(5.30335 -0.0874553 0)
(5.31952 -0.0841592 0)
(5.32896 -0.080829 0)
(5.3329 -0.076539 0)
(5.333 -0.071171 0)
(5.33076 -0.0650305 0)
(5.32732 -0.0585501 0)
(5.32341 -0.0521198 0)
(5.31949 -0.0460186 0)
(5.31578 -0.0404076 0)
(5.3124 -0.0353538 0)
(5.30938 -0.0308615 0)
(5.30673 -0.0268988 0)
(5.3044 -0.0234167 0)
(5.30239 -0.0203616 0)
(5.30065 -0.0176811 0)
(5.29914 -0.0153281 0)
(5.29785 -0.0132608 0)
(5.29673 -0.0114427 0)
(5.29577 -0.00984264 0)
(5.29495 -0.00843319 0)
(5.29424 -0.00719074 0)
(5.29363 -0.00609459 0)
(5.29311 -0.00512645 0)
(5.29266 -0.00427035 0)
(5.29227 -0.00351195 0)
(5.29194 -0.00283871 0)
(5.29166 -0.00223938 0)
(5.29142 -0.0017039 0)
(5.29122 -0.00122316 0)
(5.29105 -0.000789176 0)
(5.2909 -0.000394414 0)
(5.29079 -3.26701e-05 0)
(5.29069 0.000302786 0)
(5.29061 0.000616134 0)
(5.29055 0.000912628 0)
(5.29051 0.00119718 0)
(5.29048 0.00147414 0)
(5.29047 0.00174758 0)
(5.29047 0.00202123 0)
(5.29048 0.00229874 0)
(5.29051 0.00258366 0)
(5.29054 0.00287942 0)
(5.29059 0.00318934 0)
(5.29065 0.00351673 0)
(5.29072 0.00386513 0)
(5.2908 0.00423816 0)
(5.2909 0.00463937 0)
(5.29101 0.0050725 0)
(5.29113 0.00554158 0)
(5.29127 0.00605117 0)
(5.29143 0.00660565 0)
(5.2916 0.00721055 0)
(5.2918 0.00786983 0)
(5.29202 0.00859214 0)
(5.29227 0.00937869 0)
(5.29253 0.0102482 0)
(5.29286 0.0111864 0)
(5.29317 0.0122473 0)
(5.29363 0.0133544 0)
(5.29394 0.0146888 0)
(5.29465 0.0159426 0)
(5.29483 0.0177428 0)
(5.29613 0.0189733 0)
(5.29571 0.021754 0)
(5.29848 0.0223137 0)
(5.29622 0.0275038 0)
(5.30259 0.0253667 0)
(5.29541 0.0368369 0)
(5.31026 0.0263795 0)
(5.29124 0.053981 0)
(5.3247 0.0212487 0)
(5.27989 0.0877314 0)
(5.35009 0.00247498 0)
(5.25579 0.15264 0)
(5.38741 -0.0385932 0)
(5.21331 0.261828 0)
(5.42668 -0.104407 0)
(5.15491 0.400957 0)
(5.45391 -0.183163 0)
(5.08948 0.512997 0)
(5.49054 -0.262339 0)
(5.02313 0.545407 0)
(5.59148 -0.309976 0)
(4.9559 0.46406 0)
(5.7847 -0.222376 0)
(4.86048 0.251551 0)
(6.03629 -0.0232822 0)
(4.75428 0.123794 0)
(6.13521 -0.0150026 0)
(4.85173 0.276758 0)
(5.84747 -0.122017 0)
(5.32355 0.300131 0)
(5.36484 0.0838768 0)
(5.66345 0.0293734 0)
(5.31246 0.290021 0)
(5.48002 0.116408 0)
(5.55236 0.0715563 0)
(5.41109 0.377874 0)
(5.37059 0.143588 0)
(5.70082 0.161833 0)
(5.23341 0.36347 0)
(5.52172 0.255766 0)
(5.56248 0.232193 0)
(5.357 0.336109 0)
(5.47479 0.469671 0)
(5.41989 0.255352 0)
(5.7532 0.403662 0)
(4.92715 0.484542 0)
(6.02938 0.632913 0)
(5.07884 0.172317 0)
(5.99422 0.811512 0)
(4.62842 0.668913 0)
(6.56962 0.626981 0)
(4.64314 0.431266 0)
(6.57555 1.20536 0)
(4.35018 0.825134 0)
(7.04732 0.938484 0)
(4.64128 0.811318 0)
(7.11831 1.43788 0)
(4.62688 1.43747 0)
(7.06978 1.47063 0)
(5.39985 1.61981 0)
(6.95641 1.62965 0)
(5.96364 2.44107 0)
(6.15566 1.98298 0)
(6.33308 3.04535 0)
(5.42251 2.44102 0)
(6.55615 3.24015 0)
(5.57688 3.37413 0)
(5.61925 3.92378 0)
(7.54108 3.8374 0)
(4.75457 5.68433 0)
(9.64585 3.21794 0)
(6.23639 8.55199 0)
(10.129 2.81693 0)
(8.73996 9.70103 0)
(11.5834 -0.0828047 0)
(11.6032 -0.24494 0)
(11.6339 -0.282286 0)
(11.7745 -0.132448 0)
(11.8621 -0.0267555 0)
(11.8796 0.018072 0)
(11.9086 0.110625 0)
(11.9023 0.160611 0)
(12.0046 0.168832 0)
(12.161 0.271711 0)
(12.2108 0.350746 0)
(12.318 0.293859 0)
(12.5754 0.247073 0)
(12.8175 0.154864 0)
(13.0049 -0.081715 0)
(13.2608 -0.371617 0)
(13.5399 -0.649498 0)
(13.8032 -0.850564 0)
(14.0252 -1.14425 0)
(14.167 -1.54834 0)
(14.2423 -1.82103 0)
(14.2293 -2.11054 0)
(14.3921 -2.54674 0)
(14.4405 -2.93908 0)
(14.0614 -3.25153 0)
(13.9266 -3.48762 0)
(13.5945 -3.66591 0)
(12.946 -3.74561 0)
(12.8021 -3.70777 0)
(12.455 -3.6652 0)
(11.9146 -3.50796 0)
(11.6492 -3.36896 0)
(11.1455 -3.41127 0)
(10.6753 -3.30178 0)
(10.438 -3.03757 0)
(10.1445 -2.84139 0)
(9.7643 -2.651 0)
(9.30014 -2.41507 0)
(8.96972 -2.14902 0)
(8.76841 -1.92312 0)
(8.36177 -1.76528 0)
(7.85184 -1.52227 0)
(7.50889 -1.22498 0)
(7.29078 -1.0738 0)
(7.09847 -1.02226 0)
(6.92106 -0.909215 0)
(6.74854 -0.768616 0)
(6.59924 -0.701862 0)
(6.51411 -0.669759 0)
(6.45335 -0.588164 0)
(6.31495 -0.468188 0)
(6.07874 -0.364535 0)
(5.83189 -0.297239 0)
(5.66276 -0.259474 0)
(5.59422 -0.237292 0)
(5.59087 -0.215369 0)
(5.595 -0.188275 0)
(5.56737 -0.162044 0)
(5.50647 -0.143225 0)
(5.43497 -0.132121 0)
(5.37551 -0.125435 0)
(5.3383 -0.120633 0)
(5.32199 -0.115469 0)
(5.31962 -0.108741 0)
(5.32384 -0.100349 0)
(5.32935 -0.0910199 0)
(5.33332 -0.0814439 0)
(5.33482 -0.0721487 0)
(5.334 -0.063491 0)
(5.33147 -0.0556441 0)
(5.32794 -0.0486506 0)
(5.32398 -0.0424792 0)
(5.32001 -0.0370637 0)
(5.31624 -0.0323253 0)
(5.3128 -0.0281838 0)
(5.30974 -0.0245637 0)
(5.30705 -0.0213964 0)
(5.30471 -0.0186207 0)
(5.30268 -0.0161839 0)
(5.30092 -0.0140413 0)
(5.29941 -0.0121547 0)
(5.29811 -0.0104918 0)
(5.29699 -0.00902463 0)
(5.29602 -0.00772927 0)
(5.29518 -0.00658498 0)
(5.29446 -0.00557318 0)
(5.29384 -0.0046779 0)
(5.29331 -0.00388479 0)
(5.29285 -0.00318112 0)
(5.29246 -0.00255532 0)
(5.29212 -0.0019972 0)
(5.29183 -0.00149785 0)
(5.29159 -0.00104894 0)
(5.29138 -0.000642847 0)
(5.29121 -0.000272783 0)
(5.29107 6.78943e-05 0)
(5.29095 0.000382018 0)
(5.29086 0.000677609 0)
(5.29079 0.000958577 0)
(5.29074 0.00122892 0)
(5.29071 0.00149287 0)
(5.2907 0.0017539 0)
(5.2907 0.0020158 0)
(5.29071 0.00228211 0)
(5.29075 0.00255597 0)
(5.29079 0.00284083 0)
(5.29085 0.00314006 0)
(5.29093 0.00345667 0)
(5.29102 0.00379386 0)
(5.29112 0.00415514 0)
(5.29124 0.00454403 0)
(5.29138 0.00496425 0)
(5.29154 0.0054195 0)
(5.29171 0.00591388 0)
(5.29191 0.00645152 0)
(5.29212 0.00703801 0)
(5.29237 0.00767728 0)
(5.29264 0.00837751 0)
(5.29295 0.00913916 0)
(5.29328 0.00998043 0)
(5.29368 0.010886 0)
(5.29406 0.0119115 0)
(5.29463 0.0129738 0)
(5.295 0.0142673 0)
(5.29591 0.0154492 0)
(5.29606 0.0172192 0)
(5.29779 0.018301 0)
(5.29705 0.0211361 0)
(5.30086 0.0213069 0)
(5.29742 0.026897 0)
(5.30643 0.0236371 0)
(5.2958 0.0366248 0)
(5.31719 0.0229911 0)
(5.28935 0.0552063 0)
(5.3382 0.0141477 0)
(5.27283 0.0929501 0)