/*--------------------------------*- C++ -*----------------------------------*\
| =========                 |                                                 |
| \\      /  F ield         | OpenFOAM: The Open Source CFD Toolbox           |
|  \\    /   O peration     | Version:  2.4.0                                 |
|   \\  /    A nd           | Web:      www.OpenFOAM.org                      |
|    \\/     M anipulation  |                                                 |
\*---------------------------------------------------------------------------*/
FoamFile
{
    version     2.0;
    format      ascii;
    class       surfaceScalarField;
    location    "0.28";
    object      phi_0;
}
// * * * * * * * * * * * * * * * * * * * * * * * * * * * * * * * * * * * * * //

dimensions      [0 3 -1 0 0 0 0];

internalField   nonuniform List<scalar> 
17320
(
1.76376e-05
7.36244e-06
1.16146e-05
6.02295e-06
8.68141e-06
2.9332e-06
7.35552e-06
1.32589e-06
6.72054e-06
6.34976e-07
6.33799e-06
3.82556e-07
6.08341e-06
2.54575e-07
5.86275e-06
2.20662e-07
5.70894e-06
1.53809e-07
5.57757e-06
1.31368e-07
5.47188e-06
1.05689e-07
5.37601e-06
9.58708e-08
5.30228e-06
7.37359e-08
5.18663e-06
1.15642e-07
5.11836e-06
6.82699e-08
5.00497e-06
1.13392e-07
4.87069e-06
1.34287e-07
4.76814e-06
1.02549e-07
4.50671e-06
2.61427e-07
-1.76291e-07
4.683e-06
2.54577e-05
6.90473e-06
2.32441e-05
8.2366e-06
2.09873e-05
5.18995e-06
1.9319e-05
2.99419e-06
1.80781e-05
1.87593e-06
1.71085e-05
1.3521e-06
1.63725e-05
9.90534e-07
1.57631e-05
8.30089e-07
1.53121e-05
6.0488e-07
1.49244e-05
5.19022e-07
1.46265e-05
4.0363e-07
1.43537e-05
3.68624e-07
1.4137e-05
2.90453e-07
1.38842e-05
3.68453e-07
1.37021e-05
2.50371e-07
1.34432e-05
3.723e-07
1.31952e-05
3.82237e-07
1.29166e-05
3.81139e-07
1.26068e-05
5.71288e-07
2.23044e-07
1.22074e-05
2.66145e-05
5.29026e-06
2.71546e-05
7.6965e-06
2.67801e-05
5.56441e-06
2.62507e-05
3.52363e-06
2.56059e-05
2.52068e-06
2.48706e-05
2.08744e-06
2.41687e-05
1.69241e-06
2.34895e-05
1.50924e-06
2.29428e-05
1.15165e-06
2.24311e-05
1.03066e-06
2.20306e-05
8.04187e-07
2.1655e-05
7.44224e-07
2.13447e-05
6.00692e-07
2.10198e-05
6.93425e-07
2.077e-05
5.00156e-07
2.04319e-05
7.1041e-07
2.0149e-05
6.65101e-07
1.97295e-05
8.00621e-07
1.94647e-05
8.36128e-07
1.04796e-06
1.86398e-05
2.63177e-05
3.97254e-06
2.75363e-05
6.47794e-06
2.80846e-05
5.01612e-06
2.84532e-05
3.15499e-06
2.86487e-05
2.32519e-06
2.86214e-05
2.11476e-06
2.8491e-05
1.82279e-06
2.82143e-05
1.7859e-06
2.79863e-05
1.37973e-06
2.76744e-05
1.34254e-06
2.74268e-05
1.05181e-06
2.71555e-05
1.01545e-06
2.69023e-05
8.53872e-07
2.66312e-05
9.64576e-07
2.6423e-05
7.08331e-07
2.60911e-05
1.04231e-06
2.58669e-05
8.89281e-07
2.54038e-05
1.26373e-06
2.49796e-05
1.26034e-06
2.08397e-06
2.39436e-05
2.60486e-05
2.92397e-06
2.72276e-05
5.29887e-06
2.80351e-05
4.20871e-06
2.8499e-05
2.69108e-06
2.89836e-05
1.84052e-06
2.93257e-05
1.77271e-06
2.96076e-05
1.54084e-06
2.97211e-05
1.6724e-06
2.98662e-05
1.23468e-06
2.98986e-05
1.31013e-06
2.99463e-05
1.00415e-06
2.99617e-05
1.00004e-06
2.99391e-05
8.76466e-07
2.98944e-05
1.00921e-06
2.98881e-05
7.1465e-07
2.97473e-05
1.18312e-06
2.96527e-05
9.83861e-07
2.95389e-05
1.37758e-06
2.95254e-05
1.27379e-06
1.84432e-06
2.97651e-05
2.58607e-05
2.06322e-06
2.69495e-05
4.21015e-06
2.78062e-05
3.352e-06
2.82364e-05
2.26089e-06
2.87111e-05
1.36575e-06
2.90881e-05
1.39571e-06
2.94557e-05
1.17327e-06
2.97222e-05
1.40592e-06
2.99931e-05
9.63786e-07
3.01742e-05
1.12903e-06
3.03727e-05
8.05667e-07
3.05753e-05
7.97439e-07
3.06751e-05
7.76664e-07
3.08147e-05
8.69612e-07
3.10018e-05
5.27482e-07
3.1079e-05
1.10594e-06
3.11344e-05
9.2847e-07
3.13754e-05
1.13656e-06
3.15233e-05
1.12595e-06
1.45906e-06
3.19085e-05
2.56818e-05
1.38144e-06
2.67548e-05
3.13715e-06
2.75852e-05
2.52159e-06
2.80338e-05
1.81227e-06
2.84644e-05
9.35181e-07
2.88563e-05
1.00375e-06
2.92032e-05
8.26397e-07
2.94703e-05
1.13885e-06
2.97845e-05
6.49567e-07
2.9989e-05
9.24553e-07
3.02113e-05
5.8334e-07
3.04917e-05
5.16997e-07
3.05414e-05
7.27026e-07
3.07297e-05
6.8133e-07
3.10182e-05
2.38916e-07
3.11831e-05
9.41085e-07
3.12734e-05
8.38164e-07
3.1612e-05
7.97978e-07
3.19163e-05
8.21619e-07
9.79131e-07
3.23962e-05
2.55676e-05
8.13836e-07
2.65745e-05
2.13029e-06
2.74339e-05
1.66213e-06
2.80097e-05
1.23646e-06
2.83205e-05
6.24459e-07
2.87027e-05
6.21559e-07
2.89759e-05
5.5318e-07
2.933e-05
7.84741e-07
2.95898e-05
3.89785e-07
2.98548e-05
6.59523e-07
3.00118e-05
4.2637e-07
3.02833e-05
2.45467e-07
3.04443e-05
5.66054e-07
3.06201e-05
5.05546e-07
3.07467e-05
1.12253e-07
3.10249e-05
6.62929e-07
3.1252e-05
6.11055e-07
3.14958e-05
5.54144e-07
3.17708e-05
5.46609e-07
6.72984e-07
3.2077e-05
2.54614e-05
3.5246e-07
2.64686e-05
1.12302e-06
2.73497e-05
7.81077e-07
2.79534e-05
6.32772e-07
2.81943e-05
3.83516e-07
2.85738e-05
2.42067e-07
2.88979e-05
2.29047e-07
2.92293e-05
4.53369e-07
2.94759e-05
1.43192e-07
2.97144e-05
4.21042e-07
2.99469e-05
1.93863e-07
3.01321e-05
6.02313e-08
3.0365e-05
3.33203e-07
3.05699e-05
3.00652e-07
3.05996e-05
8.25803e-08
3.08895e-05
3.72972e-07
3.11948e-05
3.05758e-07
3.1446e-05
3.02985e-07
3.16609e-05
3.31665e-07
5.1523e-07
3.18187e-05
2.54164e-05
-6.39848e-08
2.64225e-05
1.1692e-07
2.72832e-05
-7.9539e-08
2.78623e-05
5.36299e-08
2.82082e-05
3.7593e-08
2.85627e-05
-1.12428e-07
2.87924e-05
-6.62467e-10
2.91585e-05
8.72851e-08
2.94239e-05
-1.22166e-07
2.96981e-05
1.46816e-07
2.9911e-05
-1.90067e-08
3.00419e-05
-7.06714e-08
3.02628e-05
1.12267e-07
3.05597e-05
3.80579e-09
3.06714e-05
-2.9132e-08
3.0783e-05
2.6138e-07
3.10669e-05
2.18049e-08
3.14243e-05
-5.43992e-08
3.16e-05
1.55938e-07
3.17612e-07
3.17976e-05
2.54096e-05
-4.73579e-07
2.64272e-05
-9.007e-07
2.72641e-05
-9.16427e-07
2.78925e-05
-5.7472e-07
2.82694e-05
-3.39313e-07
2.85073e-05
-3.50351e-07
2.87515e-05
-2.44876e-07
2.91707e-05
-3.31904e-07
2.94499e-05
-4.01339e-07
2.97242e-05
-1.27548e-07
2.98355e-05
-1.30294e-07
3.00483e-05
-2.83439e-07
3.03392e-05
-1.7865e-07
3.05208e-05
-1.77793e-07
3.06351e-05
-1.43486e-07
3.08752e-05
2.1348e-08
3.10537e-05
-1.56733e-07
3.12969e-05
-2.97568e-07
3.15867e-05
-1.33873e-07
5.70697e-08
3.18472e-05
2.54578e-05
-9.31429e-07
2.64917e-05
-1.93458e-06
2.7327e-05
-1.75172e-06
2.79325e-05
-1.18018e-06
2.82486e-05
-6.55401e-07
2.85464e-05
-6.48135e-07
2.88697e-05
-5.68257e-07
2.92367e-05
-6.98889e-07
2.94454e-05
-6.10045e-07
2.97376e-05
-4.19676e-07
2.99631e-05
-3.55831e-07
3.01622e-05
-4.82555e-07
3.03201e-05
-3.36563e-07
3.05198e-05
-3.77519e-07
3.06761e-05
-2.99698e-07
3.09387e-05
-2.41292e-07
3.11884e-05
-4.06426e-07
3.13973e-05
-5.06435e-07
3.15964e-05
-3.32995e-07
-1.34985e-07
3.17884e-05
2.55395e-05
-1.47089e-06
2.66029e-05
-2.99801e-06
2.74362e-05
-2.58502e-06
2.80044e-05
-1.74842e-06
2.83176e-05
-9.68546e-07
2.8681e-05
-1.01155e-06
2.90176e-05
-9.04822e-07
2.93266e-05
-1.00797e-06
2.95369e-05
-8.20265e-07
2.98336e-05
-7.16419e-07
3.00901e-05
-6.12369e-07
3.02961e-05
-6.88526e-07
3.03761e-05
-4.1654e-07
3.05809e-05
-5.82369e-07
3.08067e-05
-5.2544e-07
3.10995e-05
-5.34147e-07
3.12621e-05
-5.68976e-07
3.14895e-05
-7.33816e-07
3.17328e-05
-5.76329e-07
-4.15509e-07
3.20133e-05
2.56682e-05
-2.13914e-06
2.67459e-05
-4.07567e-06
2.75983e-05
-3.43737e-06
2.80614e-05
-2.21152e-06
2.84853e-05
-1.39251e-06
2.88529e-05
-1.37908e-06
2.91712e-05
-1.22318e-06
2.95076e-05
-1.34432e-06
2.97405e-05
-1.05317e-06
3.00043e-05
-9.80253e-07
3.02311e-05
-8.3913e-07
3.04146e-05
-8.72045e-07
3.05683e-05
-5.70261e-07
3.08058e-05
-8.19847e-07
3.09529e-05
-6.72591e-07
3.1193e-05
-7.74181e-07
3.13688e-05
-7.44843e-07
3.16491e-05
-1.01406e-06
3.18831e-05
-8.10376e-07
-7.50409e-07
3.2218e-05
2.58373e-05
-2.97648e-06
2.69611e-05
-5.1994e-06
2.78027e-05
-4.27902e-06
2.82382e-05
-2.64698e-06
2.87222e-05
-1.87655e-06
2.90999e-05
-1.75677e-06
2.94487e-05
-1.57202e-06
2.97232e-05
-1.61874e-06
2.99649e-05
-1.29485e-06
3.01818e-05
-1.19717e-06
3.03939e-05
-1.05124e-06
3.0535e-05
-1.01318e-06
3.06971e-05
-7.32339e-07
3.08578e-05
-9.80596e-07
3.09724e-05
-7.87178e-07
3.11151e-05
-9.16812e-07
3.12147e-05
-8.44514e-07
3.14303e-05
-1.22963e-06
3.15934e-05
-9.73457e-07
-1.06994e-06
3.19129e-05
2.6033e-05
-4.00949e-06
2.72421e-05
-6.40849e-06
2.80293e-05
-5.0662e-06
2.85112e-05
-3.12895e-06
2.89846e-05
-2.34993e-06
2.93219e-05
-2.09406e-06
2.95948e-05
-1.84489e-06
2.97227e-05
-1.74668e-06
2.98482e-05
-1.42032e-06
2.99083e-05
-1.25724e-06
2.99597e-05
-1.10267e-06
2.99437e-05
-9.97189e-07
2.99705e-05
-7.59109e-07
2.99203e-05
-9.30446e-07
2.98846e-05
-7.51444e-07
2.98183e-05
-8.50511e-07
2.97416e-05
-7.67847e-07
2.96912e-05
-1.17917e-06
2.96387e-05
-9.20965e-07
-1.23289e-06
2.98016e-05
2.63041e-05
-5.31355e-06
2.75484e-05
-7.65278e-06
2.80731e-05
-5.59097e-06
2.84597e-05
-3.51556e-06
2.86407e-05
-2.53092e-06
2.86215e-05
-2.07488e-06
2.84822e-05
-1.70555e-06
2.82196e-05
-1.48404e-06
2.79729e-05
-1.17364e-06
2.76968e-05
-9.81166e-07
2.74253e-05
-8.31182e-07
2.71571e-05
-7.28988e-07
2.69416e-05
-5.43553e-07
2.66644e-05
-6.53281e-07
2.6445e-05
-5.32078e-07
2.61901e-05
-5.9558e-07
2.59624e-05
-5.40182e-07
2.56512e-05
-8.67925e-07
2.54616e-05
-7.31398e-07
-1.17169e-06
2.54004e-05
2.6604e-05
-6.9175e-06
2.71641e-05
-8.2129e-06
2.67738e-05
-5.20073e-06
2.62527e-05
-2.99446e-06
2.56003e-05
-1.87851e-06
2.48721e-05
-1.34668e-06
2.41637e-05
-9.97106e-07
2.34958e-05
-8.16115e-07
2.29377e-05
-6.15571e-07
2.24515e-05
-4.94978e-07
2.20311e-05
-4.10804e-07
2.16704e-05
-3.68289e-07
2.13817e-05
-2.5484e-07
2.10653e-05
-3.36818e-07
2.08108e-05
-2.77601e-07
2.05298e-05
-3.14594e-07
2.02825e-05
-2.92909e-07
1.98896e-05
-4.74995e-07
1.95713e-05
-4.13088e-07
-3.65457e-07
1.8765e-05
2.545e-05
-7.36747e-06
2.32513e-05
-6.0142e-06
2.09859e-05
-2.93533e-06
1.93193e-05
-1.32789e-06
1.80756e-05
-6.3482e-07
1.711e-05
-3.81119e-07
1.63698e-05
-2.56855e-07
1.57694e-05
-2.15693e-07
1.53111e-05
-1.57313e-07
1.49399e-05
-1.23762e-07
1.4633e-05
-1.03886e-07
1.43683e-05
-1.03594e-07
1.4169e-05
-5.55772e-08
1.39339e-05
-1.01741e-07
1.37405e-05
-8.4147e-08
1.35242e-05
-9.83207e-08
1.33209e-05
-8.96134e-08
1.30094e-05
-1.6345e-07
1.27898e-05
-1.93545e-07
-2.68036e-08
1.24512e-05
1.76325e-05
1.16183e-05
8.68301e-06
7.35511e-06
6.72029e-06
6.33917e-06
6.08232e-06
5.86662e-06
5.70931e-06
5.58555e-06
5.48166e-06
5.37807e-06
5.32249e-06
5.22075e-06
5.1366e-06
5.03828e-06
4.94867e-06
4.78522e-06
4.59168e-06
4.56487e-06
5.04294e-06
5.86353e-08
-4.1857e-07
5.59255e-06
4.13004e-07
-9.62613e-07
6.38063e-06
6.70407e-07
-1.45849e-06
7.29702e-06
6.79923e-07
-1.59631e-06
8.08632e-06
5.12548e-07
-1.30184e-06
8.63469e-06
2.27085e-07
-7.75453e-07
8.97673e-06
-7.94665e-08
-2.62576e-07
9.08896e-06
-3.19117e-07
2.06888e-07
9.0588e-06
-5.4097e-07
5.71131e-07
8.94282e-06
-6.79324e-07
7.95304e-07
8.78583e-06
-7.26016e-07
8.83007e-07
8.62027e-06
-7.17511e-07
8.83066e-07
8.48866e-06
-6.75228e-07
8.06844e-07
8.41671e-06
-5.83216e-07
6.5516e-07
8.41395e-06
-4.66595e-07
4.69362e-07
8.47439e-06
-3.34956e-07
2.74508e-07
8.58917e-06
-2.41444e-07
1.26669e-07
8.74231e-06
-1.65078e-07
1.19336e-08
8.91059e-06
-1.09687e-07
-5.85859e-08
9.07739e-06
-7.2987e-08
-9.38112e-08
9.2436e-06
-5.55156e-08
-1.10697e-07
9.3668e-06
-2.66311e-08
-9.65746e-08
9.44689e-06
-8.56843e-09
-7.15201e-08
9.49339e-06
2.09506e-08
-6.74447e-08
9.5053e-06
6.41672e-08
-7.60746e-08
9.51579e-06
1.47877e-07
-1.58373e-07
9.5037e-06
2.78857e-07
-2.66764e-07
9.5401e-06
4.31463e-07
-4.67863e-07
9.62855e-06
6.0719e-07
-6.95639e-07
9.82165e-06
7.75524e-07
-9.68621e-07
1.01516e-05
9.62855e-07
-1.29285e-06
1.05919e-05
1.06122e-06
-1.50145e-06
1.11302e-05
1.0206e-06
-1.55895e-06
1.16482e-05
8.82332e-07
-1.40036e-06
1.21427e-05
6.68466e-07
-1.16291e-06
1.25667e-05
4.18723e-07
-8.4269e-07
1.293e-05
1.17515e-07
-4.80848e-07
1.32519e-05
-1.9379e-07
-1.28148e-07
1.35026e-05
-5.07938e-07
2.5724e-07
1.37134e-05
-8.59484e-07
6.48686e-07
1.3874e-05
-1.18505e-06
1.02443e-06
1.40126e-05
-1.49047e-06
1.35196e-06
1.41522e-05
-1.73532e-06
1.59563e-06
1.4264e-05
-1.89851e-06
1.78679e-06
1.44349e-05
-2.05222e-06
1.88126e-06
1.46205e-05
-2.12251e-06
1.93688e-06
1.48257e-05
-2.14347e-06
1.93835e-06
1.50141e-05
-2.13527e-06
1.94681e-06
1.51945e-05
-2.10448e-06
1.92412e-06
1.53795e-05
-2.06605e-06
1.88105e-06
1.54966e-05
-1.93813e-06
1.82104e-06
1.56105e-05
-1.8586e-06
1.74465e-06
1.57216e-05
-1.67489e-06
1.5638e-06
1.58165e-05
-1.53474e-06
1.43987e-06
1.58829e-05
-1.36054e-06
1.29412e-06
1.5927e-05
-1.16967e-06
1.12556e-06
1.60583e-05
-9.87982e-07
8.56662e-07
1.62053e-05
-7.02543e-07
5.55611e-07
1.64018e-05
-5.07113e-07
3.1054e-07
1.66606e-05
-2.28365e-07
-3.04308e-08
1.70744e-05
-2.58121e-08
-3.87916e-07
1.75272e-05
2.59974e-07
-7.12772e-07
1.81413e-05
3.5034e-07
-9.64524e-07
1.87757e-05
4.09531e-07
-1.04387e-06
1.94866e-05
3.90745e-07
-1.10167e-06
2.02621e-05
6.15702e-08
-8.37084e-07
2.10462e-05
-2.02123e-07
-5.81997e-07
2.18526e-05
-6.62218e-07
-1.44098e-07
2.2709e-05
-1.2972e-06
4.40761e-07
2.35653e-05
-1.75486e-06
8.98571e-07
2.4468e-05
-2.58106e-06
1.67838e-06
2.53004e-05
-3.2087e-06
2.37631e-06
2.62602e-05
-4.02233e-06
3.06251e-06
2.71281e-05
-4.84247e-06
3.97451e-06
2.79737e-05
-5.57981e-06
4.73424e-06
2.88525e-05
-6.55036e-06
5.67156e-06
2.95615e-05
-7.26815e-06
6.5592e-06
3.02022e-05
-8.08435e-06
7.4436e-06
3.08304e-05
-9.00376e-06
8.37555e-06
3.11482e-05
-9.56035e-06
9.24253e-06
3.14991e-05
-1.03977e-05
1.00468e-05
3.15838e-05
-1.10531e-05
1.09685e-05
3.14461e-05
-1.1492e-05
1.16296e-05
3.1171e-05
-1.2108e-05
1.23831e-05
3.05398e-05
-1.23194e-05
1.29507e-05
2.97587e-05
-1.25166e-05
1.32977e-05
2.88569e-05
-1.28766e-05
1.37784e-05
2.7703e-05
-1.28839e-05
1.40379e-05
2.66258e-05
-1.29178e-05
1.3995e-05
2.58138e-05
-1.3495e-05
1.4307e-05
2.47696e-05
-1.346e-05
1.45041e-05
2.39911e-05
-1.34516e-05
1.42301e-05
2.38754e-05
-1.43689e-05
1.44846e-05
2.37796e-05
-1.49924e-05
1.50882e-05
2.3422e-05
-1.52981e-05
1.56557e-05
2.33585e-05
-1.61505e-05
1.62139e-05
2.36557e-05
-1.72313e-05
1.69342e-05
2.36055e-05
-1.79319e-05
1.79822e-05
2.3029e-05
-1.75939e-05
1.81703e-05
2.24378e-05
-1.71852e-05
1.77764e-05
2.23048e-05
-1.7257e-05
1.739e-05
2.28975e-05
-1.76418e-05
1.70491e-05
2.38697e-05
-1.78113e-05
1.68391e-05
2.49886e-05
-1.76066e-05
1.64877e-05
2.60329e-05
-1.68351e-05
1.57909e-05
2.67597e-05
-1.53622e-05
1.46354e-05
2.73316e-05
-1.33346e-05
1.27627e-05
2.77145e-05
-1.06013e-05
1.02184e-05
2.80398e-05
-8.15358e-06
7.82828e-06
2.82843e-05
-5.35804e-06
5.11353e-06
2.83779e-05
-2.42345e-06
2.32979e-06
2.83752e-05
3.18666e-07
-3.15916e-07
2.82565e-05
2.96333e-06
-2.84468e-06
2.78824e-05
5.40585e-06
-5.03174e-06
2.72975e-05
7.46845e-06
-6.88351e-06
2.66066e-05
9.13832e-06
-8.44741e-06
2.63634e-05
9.93495e-06
-9.69178e-06
2.64673e-05
1.10571e-05
-1.11609e-05
2.66633e-05
1.21945e-05
-1.23906e-05
2.69576e-05
1.32806e-05
-1.35749e-05
2.71664e-05
1.45446e-05
-1.47534e-05
2.69285e-05
1.54735e-05
-1.52356e-05
2.64174e-05
1.56602e-05
-1.51492e-05
2.54794e-05
1.56515e-05
-1.47134e-05
2.45303e-05
1.48738e-05
-1.39247e-05
2.3972e-05
1.35372e-05
-1.29789e-05
2.3224e-05
1.26859e-05
-1.19379e-05
2.28506e-05
1.12524e-05
-1.0879e-05
2.27105e-05
9.8412e-06
-9.70116e-06
2.2262e-05
8.82723e-06
-8.37875e-06
2.18216e-05
7.38515e-06
-6.9447e-06
2.16135e-05
6.00023e-06
-5.79209e-06
2.14532e-05
4.69683e-06
-4.53654e-06
2.10247e-05
3.53076e-06
-3.10233e-06
2.05891e-05
2.41025e-06
-1.97459e-06
2.0316e-05
1.67637e-06
-1.4033e-06
2.04726e-05
6.05648e-07
-7.62227e-07
2.03104e-05
1.82371e-07
-2.01638e-08
2.03081e-05
-4.83883e-07
4.86131e-07
1.98832e-05
-1.48433e-08
4.39744e-07
2.01393e-05
-5.50717e-07
2.9461e-07
2.05483e-05
-5.2167e-07
1.127e-07
2.1795e-05
-8.92383e-07
-3.5434e-07
2.26288e-05
-8.1767e-07
-1.60768e-08
2.39582e-05
-1.4149e-06
8.55078e-08
2.51357e-05
-8.02596e-07
-3.74943e-07
2.63602e-05
3.29061e-07
-1.55357e-06
2.71704e-05
1.16934e-06
-1.97952e-06
2.80879e-05
2.03239e-06
-2.94984e-06
2.85572e-05
3.11893e-06
-3.5883e-06
2.8845e-05
4.24913e-06
-4.5369e-06
2.92509e-05
5.57914e-06
-5.98506e-06
2.96312e-05
7.37973e-06
-7.76006e-06
2.9978e-05
8.35421e-06
-8.70098e-06
3.04178e-05
9.49167e-06
-9.93147e-06
3.07718e-05
1.09815e-05
-1.13355e-05
3.05188e-05
1.2591e-05
-1.2338e-05
2.96306e-05
1.31266e-05
-1.22384e-05
2.86259e-05
1.33962e-05
-1.23915e-05
2.72023e-05
1.35728e-05
-1.21491e-05
2.53447e-05
1.34984e-05
-1.16409e-05
2.3179e-05
1.29678e-05
-1.08021e-05
2.16701e-05
1.21739e-05
-1.0665e-05
2.10893e-05
1.2254e-05
-1.16731e-05
2.11812e-05
1.32378e-05
-1.33297e-05
2.16505e-05
1.47524e-05
-1.52217e-05
2.21804e-05
1.60293e-05
-1.65593e-05
2.23842e-05
1.7171e-05
-1.73748e-05
2.28483e-05
1.65662e-05
-1.70303e-05
2.24923e-05
1.73542e-05
-1.69982e-05
2.24153e-05
1.48853e-05
-1.48083e-05
2.13762e-05
1.57712e-05
-1.47321e-05
2.10121e-05
1.13926e-05
-1.10286e-05
1.96166e-05
1.28894e-05
-1.14938e-05
2.00252e-05
6.34569e-06
-6.75432e-06
1.89564e-05
1.05446e-05
-9.47577e-06
1.91454e-05
2.90053e-06
-3.08951e-06
1.82488e-05
7.96026e-06
-7.06368e-06
1.81039e-05
-5.21024e-07
6.65867e-07
1.66941e-05
5.01581e-06
-3.60593e-06
1.67824e-05
-5.35736e-06
5.26905e-06
1.56267e-05
1.14377e-06
1.18828e-08
1.70228e-05
-1.01103e-05
8.71421e-06
1.59428e-05
-1.50974e-06
2.58967e-06
1.65486e-05
-1.24515e-05
1.18458e-05
1.43926e-05
-4.50333e-06
6.65927e-06
1.55927e-05
-1.60811e-05
1.4881e-05
1.3706e-05
-8.01253e-06
9.89923e-06
1.56434e-05
-1.5288e-05
1.33506e-05
1.36373e-05
-7.52982e-06
9.53591e-06
1.45456e-05
-1.28659e-05
1.19576e-05
1.21381e-05
-8.19222e-06
1.05997e-05
1.35152e-05
-1.16136e-05
1.02366e-05
1.21782e-05
-5.07523e-06
6.41227e-06
1.34747e-05
-4.60405e-06
3.30754e-06
1.29499e-05
2.22992e-06
-1.70517e-06
1.41157e-05
4.04936e-06
-5.21518e-06
1.3629e-05
1.22463e-05
-1.17596e-05
1.55035e-05
1.47997e-05
-1.66743e-05
2.8012e-05
-2.77666e-05
1.52581e-05
1.21938e-05
7.22999e-08
1.24085e-05
1.98238e-07
1.27575e-05
3.21412e-07
1.31395e-05
2.97917e-07
1.34704e-05
1.81711e-07
1.36868e-05
1.06825e-08
1.38304e-05
-2.23068e-07
1.38995e-05
-3.88244e-07
1.39037e-05
-5.45169e-07
1.38694e-05
-6.45063e-07
1.38295e-05
-6.86099e-07
1.38018e-05
-6.89771e-07
1.37849e-05
-6.583e-07
1.37751e-05
-5.73502e-07
1.37922e-05
-4.83609e-07
1.3849e-05
-3.91771e-07
1.39296e-05
-3.22065e-07
1.40384e-05
-2.73927e-07
1.41549e-05
-2.26102e-07
1.42658e-05
-1.83952e-07
1.4376e-05
-1.65705e-07
1.44704e-05
-1.21033e-07
1.45357e-05
-7.38714e-08
1.45903e-05
-3.36e-08
1.46259e-05
2.84959e-08
1.466e-05
1.13766e-07
1.47156e-05
2.23348e-07
1.48114e-05
3.35579e-07
1.49391e-05
4.79522e-07
1.51365e-05
5.78097e-07
1.54312e-05
6.68203e-07
1.57528e-05
7.39639e-07
1.61076e-05
6.65746e-07
1.64711e-05
5.18898e-07
1.68219e-05
3.17639e-07
1.71779e-05
6.2715e-08
1.75281e-05
-2.32729e-07
1.78631e-05
-5.28786e-07
1.81791e-05
-8.23914e-07
1.84704e-05
-1.15073e-06
1.87508e-05
-1.46546e-06
1.89867e-05
-1.72642e-06
1.92216e-05
-1.97022e-06
1.94506e-05
-2.12746e-06
1.96673e-05
-2.26897e-06
1.98745e-05
-2.32969e-06
2.00777e-05
-2.34665e-06
2.02635e-05
-2.32107e-06
2.04191e-05
-2.26012e-06
2.05717e-05
-2.21864e-06
2.06865e-05
-2.05287e-06
2.07858e-05
-1.95794e-06
2.08831e-05
-1.77221e-06
2.09441e-05
-1.59569e-06
2.0981e-05
-1.39752e-06
2.10106e-05
-1.19927e-06
2.10445e-05
-1.02179e-06
2.11574e-05
-8.1551e-07
2.12978e-05
-6.47481e-07
2.14962e-05
-4.26814e-07
2.18183e-05
-3.47897e-07
2.22325e-05
-1.54217e-07
2.27531e-05
-1.70258e-07
2.33396e-05
-1.7697e-07
2.40062e-05
-2.7588e-07
2.47079e-05
-6.40134e-07
2.54283e-05
-9.22446e-07
2.62291e-05
-1.46302e-06
2.69433e-05
-2.01144e-06
2.77737e-05
-2.58521e-06
2.85518e-05
-3.35924e-06
2.92365e-05
-3.89332e-06
3.0064e-05
-4.84983e-06
3.06857e-05
-5.4642e-06
3.12783e-05
-6.17243e-06
3.188e-05
-7.15203e-06
3.22052e-05
-7.5934e-06
3.25738e-05
-8.45296e-06
3.27166e-05
-9.14655e-06
3.26191e-05
-9.46278e-06
3.25856e-05
-1.03642e-05
3.2114e-05
-1.05815e-05
3.15929e-05
-1.09709e-05
3.09378e-05
-1.14529e-05
2.99421e-05
-1.13237e-05
2.90757e-05
-1.16502e-05
2.8132e-05
-1.1933e-05
2.70228e-05
-1.17747e-05
2.63721e-05
-1.22671e-05
2.5639e-05
-1.27619e-05
2.46317e-05
-1.24526e-05
2.42648e-05
-1.30847e-05
2.39781e-05
-1.40822e-05
2.32481e-05
-1.42625e-05
2.27025e-05
-1.47525e-05
2.27493e-05
-1.61972e-05
2.26662e-05
-1.71482e-05
2.18027e-05
-1.70684e-05
2.08432e-05
-1.66343e-05
2.03812e-05
-1.67233e-05
2.07281e-05
-1.76039e-05
2.16093e-05
-1.8523e-05
2.25763e-05
-1.87784e-05
2.33863e-05
-1.84166e-05
2.39729e-05
-1.74218e-05
2.43375e-05
-1.57268e-05
2.45707e-05
-1.35678e-05
2.49121e-05
-1.09427e-05
2.52659e-05
-8.50739e-06
2.56584e-05
-5.75058e-06
2.59367e-05
-2.70172e-06
2.59807e-05
2.74657e-07
2.58458e-05
3.09829e-06
2.55686e-05
5.68306e-06
2.51657e-05
7.87133e-06
2.47945e-05
9.50952e-06
2.43295e-05
1.04e-05
2.39144e-05
1.14722e-05
2.42399e-05
1.18689e-05
2.47718e-05
1.27487e-05
2.50408e-05
1.42755e-05
2.53741e-05
1.51402e-05
2.51459e-05
1.58884e-05
2.44523e-05
1.6345e-05
2.37409e-05
1.55852e-05
2.28236e-05
1.44545e-05
2.20922e-05
1.34173e-05
2.17355e-05
1.16091e-05
2.11183e-05
1.04584e-05
2.08009e-05
9.14466e-06
2.062e-05
7.56606e-06
2.03296e-05
6.29058e-06
1.98427e-05
5.18371e-06
1.9589e-05
3.78446e-06
1.93794e-05
2.61992e-06
1.94121e-05
1.64367e-06
1.9188e-05
8.29745e-07
1.89513e-05
4.19016e-07
1.86252e-05
-1.57751e-07
1.8812e-05
-2.01675e-07
1.93323e-05
-1.07098e-06
2.02397e-05
-1.42912e-06
2.15519e-05
-2.20456e-06
2.2609e-05
-1.87475e-06
2.37315e-05
-2.5374e-06
2.48322e-05
-1.9033e-06
2.60834e-05
-9.22172e-07
2.68361e-05
4.16669e-07
2.77082e-05
1.16027e-06
2.82068e-05
2.62037e-06
2.85212e-05
3.93472e-06
2.87927e-05
5.30765e-06
2.93318e-05
6.84059e-06
2.97788e-05
7.90725e-06
3.0578e-05
8.69251e-06
3.1187e-05
1.03724e-05
3.14637e-05
1.23144e-05
3.08086e-05
1.37817e-05
3.00158e-05
1.41889e-05
2.89421e-05
1.46465e-05
2.75381e-05
1.49025e-05
2.56174e-05
1.48884e-05
2.367e-05
1.41213e-05
2.24951e-05
1.34289e-05
2.23418e-05
1.3391e-05
2.25973e-05
1.44969e-05
2.34814e-05
1.51453e-05
2.3726e-05
1.69264e-05
2.44595e-05
1.58327e-05
2.42963e-05
1.75174e-05
2.45105e-05
1.46711e-05
2.36764e-05
1.66053e-05
2.35622e-05
1.15068e-05
2.21043e-05
1.43474e-05
2.20286e-05
6.42139e-06
2.11685e-05
1.14047e-05
2.09279e-05
3.14113e-06
2.0151e-05
8.73711e-06
2.04149e-05
-7.84904e-07
1.90817e-05
6.34908e-06
1.88862e-05
-5.16188e-06
1.75107e-05
2.51929e-06
1.84037e-05
-1.10033e-05
1.75527e-05
-6.58671e-07
1.83513e-05
-1.32502e-05
1.66175e-05
-2.7695e-06
1.77552e-05
-1.72188e-05
1.6083e-05
-6.34032e-06
1.87664e-05
-1.79714e-05
1.67264e-05
-5.48985e-06
1.85833e-05
-1.47228e-05
1.55913e-05
-5.20018e-06
1.76283e-05
-1.36507e-05
1.59766e-05
-3.42351e-06
1.72241e-05
-5.85152e-06
1.58178e-05
3.63617e-06
1.75953e-05
2.27193e-06
1.63183e-05
1.35233e-05
2.34987e-05
7.61935e-06
2.74979e-05
2.40128e-05
1.86907e-05
2.13598e-08
1.8989e-05
-1.00029e-07
1.93444e-05
-3.40561e-08
1.96481e-05
-5.73867e-09
1.9831e-05
-1.18253e-09
1.99246e-05
-8.2949e-08
1.99696e-05
-2.68051e-07
1.99704e-05
-3.89009e-07
1.99567e-05
-5.31497e-07
1.99365e-05
-6.24895e-07
1.99046e-05
-6.54114e-07
1.9869e-05
-6.54259e-07
1.98278e-05
-6.17084e-07
1.97982e-05
-5.43897e-07
1.98003e-05
-4.85719e-07
1.98415e-05
-4.32987e-07
1.98879e-05
-3.68408e-07
1.99612e-05
-3.47194e-07
2.00381e-05
-3.0308e-07
2.00931e-05
-2.38963e-07
2.01576e-05
-2.30187e-07
2.01964e-05
-1.59807e-07
2.02274e-05
-1.04886e-07
2.02612e-05
-6.73791e-08
2.02765e-05
1.3146e-08
2.03126e-05
7.77411e-08
2.03754e-05
1.605e-07
2.04646e-05
2.46368e-07
2.0602e-05
3.42184e-07
2.07736e-05
4.06483e-07
2.0999e-05
4.4276e-07
2.12879e-05
4.50808e-07
2.15674e-05
3.86196e-07
2.18541e-05
2.32183e-07
2.21438e-05
2.79787e-08
2.24242e-05
-2.1775e-07
2.27255e-05
-5.33963e-07
2.30097e-05
-8.13051e-07
2.32978e-05
-1.112e-06
2.35662e-05
-1.41907e-06
2.37951e-05
-1.69441e-06
2.40109e-05
-1.94216e-06
2.42053e-05
-2.16463e-06
2.43976e-05
-2.3198e-06
2.45501e-05
-2.42146e-06
2.47047e-05
-2.48426e-06
2.48633e-05
-2.50525e-06
2.49844e-05
-2.44222e-06
2.51192e-05
-2.39488e-06
2.5215e-05
-2.3145e-06
2.53071e-05
-2.1449e-06
2.54048e-05
-2.05565e-06
2.54699e-05
-1.83736e-06
2.55339e-05
-1.65966e-06
2.5608e-05
-1.47163e-06
2.56804e-05
-1.27169e-06
2.57343e-05
-1.07565e-06
2.58776e-05
-9.58785e-07
2.60144e-05
-7.84282e-07
2.6232e-05
-6.4443e-07
2.65086e-05
-6.24539e-07
2.68528e-05
-4.98356e-07
2.73134e-05
-6.30858e-07
2.77899e-05
-6.53458e-07
2.83798e-05
-8.65829e-07
2.89563e-05
-1.21665e-06
2.95516e-05
-1.5177e-06
3.02197e-05
-2.13112e-06
3.07399e-05
-2.53166e-06
3.14108e-05
-3.25607e-06
3.19157e-05
-3.86412e-06
3.2432e-05
-4.40967e-06
3.29347e-05
-5.35253e-06
3.32256e-05
-5.75508e-06
3.36243e-05
-6.57113e-06
3.37818e-05
-7.30953e-06
3.38116e-05
-7.62322e-06
3.38649e-05
-8.50622e-06
3.35147e-05
-8.79642e-06
3.32111e-05
-9.15915e-06
3.27495e-05
-9.90258e-06
3.19786e-05
-9.81067e-06
3.13233e-05
-1.03156e-05
3.0401e-05
-1.05306e-05
2.94438e-05
-1.03665e-05
2.87496e-05
-1.0956e-05
2.77962e-05
-1.09795e-05
2.69756e-05
-1.09542e-05
2.64685e-05
-1.176e-05
2.54112e-05
-1.17046e-05
2.46047e-05
-1.16461e-05
2.43504e-05
-1.28305e-05
2.34621e-05
-1.31938e-05
2.25033e-05
-1.33037e-05
2.22881e-05
-1.45372e-05
2.20237e-05
-1.59328e-05
2.0934e-05
-1.60586e-05
1.94063e-05
-1.55407e-05
1.84913e-05
-1.57193e-05
1.84648e-05
-1.66968e-05
1.90813e-05
-1.82204e-05
1.98237e-05
-1.92653e-05
2.04684e-05
-1.94231e-05
2.0853e-05
-1.88012e-05
2.10369e-05
-1.76056e-05
2.11738e-05
-1.58636e-05
2.12674e-05
-1.36614e-05
2.16297e-05
-1.13051e-05
2.20034e-05
-8.88101e-06
2.24215e-05
-6.1687e-06
2.25987e-05
-2.8789e-06
2.26387e-05
2.34591e-07
2.27079e-05
3.02913e-06
2.2808e-05
5.58298e-06
2.27648e-05
7.91444e-06
2.25281e-05
9.74627e-06
2.20011e-05
1.09269e-05
2.19801e-05
1.14932e-05
2.21387e-05
1.17104e-05
2.21548e-05
1.27327e-05
2.26249e-05
1.38054e-05
2.31255e-05
1.46397e-05
2.31878e-05
1.58261e-05
2.31628e-05
1.63701e-05
2.25932e-05
1.61547e-05
2.17471e-05
1.53006e-05
2.10292e-05
1.41353e-05
2.0377e-05
1.22612e-05
1.99111e-05
1.09244e-05
1.96255e-05
9.43026e-06
1.94784e-05
7.71311e-06
1.93342e-05
6.43485e-06
1.90762e-05
5.44167e-06
1.88934e-05
3.96727e-06
1.87066e-05
2.80673e-06
1.86009e-05
1.74938e-06
1.80125e-05
1.41806e-06
1.7868e-05
5.63601e-07
1.7556e-05
1.54214e-07
1.82338e-05
-8.79463e-07
1.85977e-05
-1.43485e-06
1.96118e-05
-2.44329e-06
2.06681e-05
-3.2608e-06
2.22007e-05
-3.40742e-06
2.33677e-05
-3.70436e-06
2.4792e-05
-3.32761e-06
2.61523e-05
-2.28242e-06
2.72224e-05
-6.53473e-07
2.81407e-05
2.41946e-07
2.87461e-05
2.01497e-06
2.90163e-05
3.66451e-06
2.89923e-05
5.3317e-06
2.92754e-05
6.55745e-06
2.94214e-05
7.76128e-06
2.98942e-05
8.21969e-06
3.04495e-05
9.81712e-06
3.0889e-05
1.18749e-05
3.06506e-05
1.402e-05
2.99566e-05
1.48829e-05
2.92029e-05
1.54002e-05
2.82796e-05
1.58258e-05
2.67591e-05
1.6409e-05
2.49836e-05
1.58968e-05
2.34623e-05
1.49502e-05
2.31063e-05
1.3747e-05
2.316e-05
1.44433e-05
2.40335e-05
1.42718e-05
2.45166e-05
1.64432e-05
2.54664e-05
1.4883e-05
2.54822e-05
1.75015e-05
2.63074e-05
1.38459e-05
2.55864e-05
1.73263e-05
2.58842e-05
1.12089e-05
2.45725e-05
1.56591e-05
2.40114e-05
6.9825e-06
2.31985e-05
1.22176e-05
2.27642e-05
3.57542e-06
2.17956e-05
9.70566e-06
2.24668e-05
-1.45607e-06
2.15337e-05
7.28221e-06
2.12266e-05
-4.85482e-06
1.98854e-05
3.86055e-06
1.94924e-05
-1.06104e-05
1.88525e-05
-1.88265e-08
1.90812e-05
-1.34788e-05
1.78392e-05
-1.52752e-06
1.79405e-05
-1.73202e-05
1.70593e-05
-5.45913e-06
1.88403e-05
-1.97524e-05
1.7724e-05
-4.37355e-06
2.04348e-05
-1.74337e-05
1.84216e-05
-3.18691e-06
2.05212e-05
-1.57503e-05
1.876e-05
-1.6623e-06
2.36664e-05
-1.07579e-05
2.02261e-05
7.07642e-06
2.4676e-05
-2.17798e-06
2.08186e-05
1.73808e-05
2.44789e-05
3.95899e-06
2.37624e-05
2.82144e-05
2.41109e-05
-1.45955e-07
2.46317e-05
-6.20804e-07
2.50837e-05
-4.86021e-07
2.53744e-05
-2.96436e-07
2.55449e-05
-1.71712e-07
2.55456e-05
-8.36789e-08
2.55024e-05
-2.24811e-07
2.54384e-05
-3.25071e-07
2.53815e-05
-4.74503e-07
2.53831e-05
-6.26525e-07
2.5336e-05
-6.07006e-07
2.52993e-05
-6.17621e-07
2.52532e-05
-5.70925e-07
2.51811e-05
-4.71787e-07
2.51687e-05
-4.73315e-07
2.51652e-05
-4.29552e-07
2.51877e-05
-3.90892e-07
2.52504e-05
-4.09878e-07
2.53079e-05
-3.6063e-07
2.5367e-05
-2.98061e-07
2.54283e-05
-2.91449e-07
2.54468e-05
-1.7831e-07
2.54576e-05
-1.15677e-07
2.54757e-05
-8.54797e-08
2.54595e-05
2.93903e-08
2.54854e-05
5.18226e-08
2.55448e-05
1.01029e-07
2.56185e-05
1.7273e-07
2.57484e-05
2.12238e-07
2.59353e-05
2.19625e-07
2.6107e-05
2.71003e-07
2.63631e-05
1.94745e-07
2.66157e-05
1.33641e-07
2.68314e-05
1.64859e-08
2.70819e-05
-2.22545e-07
2.72816e-05
-4.17423e-07
2.74981e-05
-7.50488e-07
2.76866e-05
-1.0016e-06
2.78677e-05
-1.29306e-06
2.80518e-05
-1.60318e-06
2.81554e-05
-1.79806e-06
2.82965e-05
-2.08322e-06
2.83825e-05
-2.25064e-06
2.84488e-05
-2.38606e-06
2.85392e-05
-2.51189e-06
2.85835e-05
-2.5286e-06
2.86391e-05
-2.56076e-06
2.86939e-05
-2.49704e-06
2.87469e-05
-2.44785e-06
2.87763e-05
-2.34397e-06
2.88411e-05
-2.2097e-06
2.88849e-05
-2.09948e-06
2.89462e-05
-1.89862e-06
2.90064e-05
-1.71985e-06
2.90848e-05
-1.55003e-06
2.91644e-05
-1.35128e-06
2.92521e-05
-1.16339e-06
2.93913e-05
-1.09797e-06
2.9519e-05
-9.12032e-07
2.97609e-05
-8.86295e-07
2.99838e-05
-8.47395e-07
3.03103e-05
-8.24883e-07
3.06984e-05
-1.01898e-06
3.10768e-05
-1.03187e-06
3.15929e-05
-1.38196e-06
3.19876e-05
-1.61134e-06
3.24817e-05
-2.01173e-06
3.29216e-05
-2.57104e-06
3.32689e-05
-2.87902e-06
3.36992e-05
-3.68637e-06
3.38942e-05
-4.05906e-06
3.41962e-05
-4.71172e-06
3.42879e-05
-5.4442e-06
3.43186e-05
-5.78581e-06
3.44014e-05
-6.65386e-06
3.41203e-05
-7.02845e-06
3.39947e-05
-7.49763e-06
3.36434e-05
-8.15495e-06
3.30419e-05
-8.1949e-06
3.26758e-05
-8.79303e-06
3.18579e-05
-9.08468e-06
3.11261e-05
-9.07887e-06
3.0466e-05
-9.65547e-06
2.9498e-05
-9.56264e-06
2.88884e-05
-9.757e-06
2.82836e-05
-1.03511e-05
2.74367e-05
-1.01326e-05
2.70171e-05
-1.05346e-05
2.63847e-05
-1.11275e-05
2.52856e-05
-1.06054e-05
2.48158e-05
-1.11763e-05
2.4102e-05
-1.21167e-05
2.27665e-05
-1.18583e-05
2.20494e-05
-1.25866e-05
2.16335e-05
-1.41214e-05
2.02879e-05
-1.45872e-05
1.83508e-05
-1.41215e-05
1.6926e-05
-1.41159e-05
1.63546e-05
-1.51478e-05
1.64475e-05
-1.67898e-05
1.68765e-05
-1.86493e-05
1.73501e-05
-1.97389e-05
1.77003e-05
-1.97733e-05
1.7835e-05
-1.8936e-05
1.77442e-05