/*--------------------------------*- C++ -*----------------------------------*\
| =========                 |                                                 |
| \\      /  F ield         | OpenFOAM: The Open Source CFD Toolbox           |
|  \\    /   O peration     | Version:  2.4.0                                 |
|   \\  /    A nd           | Web:      www.OpenFOAM.org                      |
|    \\/     M anipulation  |                                                 |
\*---------------------------------------------------------------------------*/
FoamFile
{
    version     2.0;
    format      ascii;
    class       volScalarField;
    location    "1.32";
    object      k;
}
// * * * * * * * * * * * * * * * * * * * * * * * * * * * * * * * * * * * * * //

dimensions      [0 2 -2 0 0 0 0];

internalField   nonuniform List<scalar> 
8800
(
8.11038
10.2814
8.78068
6.84323
5.68065
5.00564
4.48976
4.18581
3.86886
3.7177
3.48935
3.42224
3.24331
3.20726
3.05482
3.03306
2.89516
2.87481
2.82042
2.65453
1.38962
4.36689
5.30999
5.29453
5.10923
4.85254
4.52997
4.33847
4.06583
3.94048
3.71544
3.64037
3.46994
3.41878
3.28903
3.25064
3.13997
3.10662
3.014
3.00589
0.0832515
0.746373
1.54504
1.9649
2.24386
2.47078
2.54715
2.62117
2.61392
2.61097
2.57694
2.55724
2.51229
2.48566
2.4501
2.41764
2.39042
2.36292
2.30467
2.28685
0.00327662
0.0712663
0.246506
0.436255
0.570465
0.713799
0.829161
0.933098
1.0251
1.09222
1.16923
1.20206
1.27124
1.29464
1.3458
1.36044
1.4023
1.40812
1.42003
1.41058
0.000118743
0.00508197
0.022584
0.0522928
0.0885811
0.11868
0.168007
0.198226
0.250901
0.276656
0.328023
0.349539
0.397455
0.420049
0.467015
0.488052
0.534434
0.55383
0.590583
0.605385
2.54703e-05
0.000324184
0.00162277
0.00370414
0.00792776
0.011266
0.0187832
0.0240161
0.0351856
0.04129
0.0540542
0.0612569
0.072571
0.0847119
0.0961464
0.104853
0.124367
0.131073
0.146927
0.162495
2.22733e-05
4.55397e-05
0.00012589
0.000317262
0.000492084
0.000797748
0.00113692
0.00186616
0.00251902
0.00366653
0.00466935
0.0062582
0.00711653
0.00951617
0.0107354
0.0137054
0.0153775
0.0187643
0.0207109
0.0271154
2.12922e-05
3.34742e-05
4.64264e-05
7.70601e-05
8.70528e-05
0.000118876
0.000134702
0.000177372
0.000199024
0.000272212
0.000320598
0.000459174
0.000498999
0.000683557
0.000762059
0.00101012
0.00115896
0.00152192
0.00168081
0.00295982
2.06625e-05
2.77262e-05
4.69346e-05
6.79922e-05
6.69821e-05
6.49879e-05
6.70207e-05
8.48296e-05
8.8502e-05
9.26215e-05
9.18939e-05
9.6618e-05
9.77137e-05
0.000106139
0.0001127
0.000136338
0.000142014
0.000172254
0.000172695
0.000261044
2.06576e-05
2.99085e-05
3.80927e-05
4.91827e-05
6.50801e-05
7.2371e-05
7.18725e-05
6.843e-05
6.82203e-05
6.97584e-05
7.4151e-05
7.73056e-05
7.95929e-05
7.99062e-05
7.86303e-05
8.00264e-05
8.03433e-05
8.4232e-05
8.87241e-05
9.39154e-05
2.05927e-05
2.69657e-05
4.13021e-05
6.21488e-05
6.34215e-05
6.12e-05
6.03324e-05
6.65315e-05
7.504e-05
7.78194e-05
7.71396e-05
7.55962e-05
7.3677e-05
7.39467e-05
7.68287e-05
7.9575e-05
8.24552e-05
8.44506e-05
8.4428e-05
8.69359e-05
2.07931e-05
3.02817e-05
4.23132e-05
5.77424e-05
6.46076e-05
7.24706e-05
7.49555e-05
7.97653e-05
8.18315e-05
8.49286e-05
8.58417e-05
8.98433e-05
9.57409e-05
0.000105305
0.000109035
0.00011751
0.00013013
0.000152939
0.000174188
0.000193999
2.10207e-05
3.06644e-05
4.69376e-05
7.80099e-05
8.70386e-05
0.000111922
0.000132522
0.000185345
0.000216198
0.000283762
0.000321086
0.000425787
0.000493484
0.000636816
0.000748809
0.00103621
0.00121561
0.00164785
0.00191814
0.00251482
2.16258e-05
4.30759e-05
0.000120029
0.000330721
0.00048919
0.000899344
0.00123843
0.00210158
0.00265684
0.00390839
0.00458207
0.0063428
0.00730213
0.00953387
0.0109485
0.0143543
0.0162005
0.0206144
0.0232175
0.030023
2.49481e-05
0.000305101
0.00148909
0.00441031
0.00694546
0.0132557
0.0175336
0.027274
0.0328866
0.0446782
0.0505829
0.0645848
0.0713386
0.0862147
0.0941752
0.113019
0.122137
0.144458
0.156539
0.190023
0.000123918
0.0048937
0.0231422
0.0533937
0.082871
0.131401
0.158407
0.209555
0.240688
0.288551
0.311832
0.363107
0.385327
0.432392
0.45502
0.507926
0.530845
0.588073
0.615906
0.689354
0.00337202
0.0693905
0.260945
0.415062
0.585966
0.708228
0.83063
0.931242
1.0272
1.09364
1.15282
1.22114
1.25493
1.3068
1.33281
1.38471
1.40309
1.4531
1.47402
1.52409
0.0846388
0.726781
1.56736
1.93551
2.28747
2.42934
2.58
2.59656
2.62637
2.59688
2.58704
2.54225
2.52587
2.47371
2.46078
2.41991
2.40887
2.38026
2.36959
2.3428
1.40663
4.34765
5.321
5.28599
5.13393
4.795
4.59276
4.27119
4.12991
3.8708
3.77938
3.57587
3.52091
3.36769
3.3295
3.20017
3.17234
3.05373
3.01506
2.9145
8.11956
10.2613
8.79613
6.81559
5.71571
4.95569
4.54335
4.12602
3.92721
3.64944
3.55656
3.3464
3.30206
3.13499
3.10508
2.94082
2.91046
2.73459
2.67238
2.45631
1.85998
1.3712
1.10429
0.941138
0.832732
0.765168
0.718996
0.690657
0.667152
0.649944
0.631084
0.616061
0.599985
0.58699
0.575928
0.564763
0.557144
0.54527
0.535537
0.521242
0.51027
0.495414
0.485257
0.473251
0.463647
0.453266
0.443948
0.434763
0.42482
0.41732
0.408064
0.402277
0.395414
0.39199
0.388224
0.38618
0.386234
0.386968
0.38819
0.390605
0.393104
0.395981
0.398512
0.400114
0.401703
0.401661
0.401257
0.398963
0.397186
0.393283
0.389226
0.386323
0.381642
0.379112
0.373103
0.368477
0.360135
0.353935
0.343722
0.329851
0.320735
0.306066
0.302328
0.295794
0.297271
0.300193
0.308524
0.313905
0.324905
0.328658
0.335626
0.337846
0.338382
0.338388
0.334684
0.331114
0.320406
0.314291
0.299371
0.287306
0.272577
0.262274
0.255695
0.252468
0.254507
0.25919
0.275107
0.285602
0.300846
0.314796
0.319829
0.330607
0.333019
0.339743
0.339709
0.340665
0.337764
0.337228
0.333216
0.337297
0.336481
0.345104
0.345259
0.354862
0.352814
0.356097
0.346863
0.336338
0.298413
0.270528
0.226777
0.194308
0.173195
0.156014
0.143222
0.139488
0.13856
0.138833
0.144727
0.149909
0.162859
0.172711
0.190645
0.203998
0.216702
0.223053
0.225777
0.224833
0.223007
0.216481
0.205762
0.184461
0.155248
0.119236
0.0786324
0.0478505
0.0290487
0.0181078
0.012056
0.00925583
0.00772337
0.00741881
0.00747258
0.00753148
0.00770578
0.00799056
0.00810032
0.00814993
0.00832045
0.0085652
0.00922639
0.00960026
0.0103852
0.0112228
0.0129414
0.0173254
0.0215282
0.030982
0.0437613
0.0724307
0.109715
0.142423
0.158747
0.158723
0.155473
0.151771
0.142777
0.137737
0.130737
0.122971
0.116528
0.109316
0.103535
0.0949665
0.0868343
0.071997
0.0597151
0.0465676
0.0298064
0.0204481
0.0164614
0.0164936
0.0174103
0.021233
0.0329765
0.0613547
0.128125
0.160754
0.174231
0.174204
0.164883
0.159657
0.142242
0.125397
0.124379
0.124557
0.153506
0.151325
0.220023
0.368562
2.57001
2.11782
1.77566
1.53119
1.34868
1.2121
1.10848
1.0289
0.967413
0.91663
0.876162
0.838866
0.809527
0.78075
0.758955
0.736919
0.720783
0.704277
0.690963
0.677488
0.665005
0.653655
0.641154
0.631792
0.620477
0.612772
0.602235
0.595535
0.585845
0.579288
0.570346
0.562961
0.555882
0.547248
0.542562
0.533194
0.529327
0.521621
0.51848
0.511971
0.509493
0.50494
0.503216
0.499779
0.498486
0.495923
0.49419
0.493152
0.490677
0.489188
0.485548
0.483444
0.478786
0.4758
0.471675
0.465376
0.46224
0.455254
0.451655
0.443764
0.439567
0.430729
0.427137
0.4196
0.416871
0.41046
0.408504
0.403763
0.40233
0.400265
0.397907
0.397411
0.39539
0.394749
0.393898
0.392775
0.392779
0.390174
0.389931
0.384797
0.383452
0.375339
0.372616
0.361735
0.358373
0.348533
0.346788
0.340756
0.339239
0.335731
0.333845
0.328772
0.326726
0.318181
0.312471
0.298802
0.289393
0.275449
0.262964
0.255452
0.252563
0.253846
0.257072
0.270186
0.280043
0.308679
0.321442
0.341429
0.339834
0.339282
0.331175
0.320241
0.301379
0.285816
0.25973
0.253545
0.240703
0.23513
0.23471
0.234078
0.235748
0.236283
0.236521
0.235072
0.232911
0.229489
0.223708
0.208324
0.195033
0.167533
0.136206
0.0987468
0.0630242
0.039476
0.0242428
0.0155361
0.0105896
0.00806754
0.00705272
0.00678626
0.00681835
0.00710613
0.00733383
0.00784626
0.00831402
0.00939848
0.00963143
0.0105253
0.0109981
0.0121956
0.0137395
0.0147682
0.0169226
0.0183899
0.0242906
0.0282195
0.037008
0.0525423
0.0923368
0.147135
0.171151
0.184125
0.181821
0.172352
0.16517
0.157066
0.143748
0.137322
0.127636
0.122487
0.116006
0.110365
0.105806
0.100397
0.0946506
0.0873285
0.0760824
0.0629147
0.0519056
0.0343674
0.0231802
0.0187003
0.0182208
0.0189194
0.0222537
0.0322376
0.0559464
0.11065
0.147685
0.166981
0.165906
0.161499
0.158622
0.139704
0.145117
0.134158
0.165802
0.171962
0.206543
0.30051
2.0768
1.85163
1.64047
1.46777
1.32662
1.21076
1.11845
1.04032
0.979053
0.923449
0.880598
0.839583
0.806594
0.775792
0.747921
0.725181
0.701071
0.684835
0.664854
0.652345
0.637415
0.62529
0.615234
0.601632
0.595285
0.582126
0.576395
0.565862
0.561046
0.551927
0.547283
0.539648
0.535418
0.52754
0.523614
0.515955
0.511399
0.505211
0.499979
0.495604
0.48991
0.486935
0.481616
0.47916
0.475015
0.472272
0.469922
0.466869
0.465896
0.463483
0.4626
0.460749
0.459761
0.458666
0.456394
0.454736
0.451392
0.449072
0.444061
0.440852
0.434391
0.430412
0.422372
0.417726
0.408865
0.403074
0.394262
0.388632
0.380548
0.37523
0.370458
0.365187
0.362233
0.359075
0.358725
0.358592
0.360513
0.361358
0.366712
0.3678
0.372602
0.37186
0.373017
0.371527
0.3696
0.362856
0.357904
0.346069
0.339331
0.324184
0.316066
0.297517
0.288159
0.266841
0.255454
0.234324
0.218892
0.201139
0.191582
0.177016
0.167741
0.160844
0.160811
0.162589
0.16663
0.179428
0.189663
0.209305
0.229909
0.255195
0.273786
0.284652
0.285898
0.286829
0.283835
0.282442
0.277558
0.274133
0.264968
0.261051
0.251882
0.242887
0.236696
0.221364
0.205502
0.187787
0.156897
0.128311
0.0948136
0.0633127
0.0416622
0.0266046
0.0170893
0.0113298
0.00809745
0.00673449
0.00607581
0.00609037
0.00626844
0.00653059
0.00738451
0.00807221
0.00951284
0.0103651
0.0129288
0.0137741
0.0147004
0.0162477
0.0171775
0.0195139
0.0206142
0.0230607
0.0244669
0.0289196
0.0357929
0.0432267
0.0604752
0.105587
0.181174
0.195631
0.20501
0.202279
0.192479
0.177074
0.170578
0.154521
0.146281
0.134591
0.127637
0.121334
0.114431
0.109568
0.104815
0.101848
0.0962549
0.0927867
0.0864004
0.0773328
0.066562
0.05753
0.0409217
0.0268435
0.0214967
0.0199042
0.0204673
0.0231191
0.0313747
0.0549637
0.089101
0.135243
0.158549
0.158046
0.174117
0.169793
0.184052
0.166658
0.174795
0.174324
0.181393
0.216348
1.32387
1.231
1.13567
1.04879
0.971824
0.906254
0.847737
0.800327
0.755113
0.718554
0.681834
0.655256
0.623052
0.605493
0.576995
0.563013
0.539639
0.526121
0.507638
0.4949
0.482487
0.469706
0.462522
0.450244
0.444912
0.434799
0.428365
0.420395
0.412985
0.407413
0.399614
0.39523
0.38982
0.384745
0.380577
0.376418
0.370639
0.367614
0.361072
0.35781
0.352149
0.348497
0.344851
0.341046
0.339518
0.336646
0.335559
0.333619
0.332713
0.33168
0.330606
0.330585
0.330784
0.331259
0.332116
0.333924
0.334396
0.334739
0.333652
0.332702
0.328402
0.325194
0.317034
0.312225
0.301741
0.296259
0.284442
0.279007
0.267306
0.26234
0.252549
0.246929
0.240956
0.236263
0.230903
0.229491
0.228491
0.229411
0.23086
0.234667
0.23807
0.244065
0.24831
0.251753
0.251695
0.251606
0.248045
0.24407
0.234787
0.222024
0.212543
0.192038
0.178428
0.158577
0.140136
0.12475
0.107495
0.0921415
0.0817282
0.0706243
0.0657483
0.0599584
0.0593453
0.0599619
0.0623916
0.0658651
0.0761604
0.0830416
0.0977176
0.110063
0.125315
0.148755
0.158613
0.174629
0.188344
0.19038
0.191597
0.190206
0.183526
0.17788
0.163961
0.150784
0.130709
0.110359
0.0862187
0.0641929
0.0463161
0.0326221
0.0222139
0.0149825
0.0102044
0.0073708
0.00589913
0.00518074
0.00521915
0.00536146
0.00571631
0.00660844
0.00763803
0.00910939
0.0123883
0.0144455
0.0167088
0.0194984
0.0226423
0.0235343
0.0253442
0.0264496
0.0276269
0.0308621
0.0323635
0.0350688
0.0379137
0.0487101
0.0544127
0.071509
0.107502
0.206266
0.218748
0.223944
0.222843
0.213583
0.195271
0.18107
0.162261
0.144587
0.134571
0.12674
0.122752
0.118362
0.110991
0.10737
0.102143
0.100102
0.0971682
0.0925804
0.0901262
0.0839018
0.0759414
0.0692732
0.0586888
0.0459893
0.0308051
0.0239953
0.0218765
0.022444
0.0242095
0.0310361
0.0491505
0.0717912
0.127222
0.141262
0.168633
0.16895
0.178455
0.176892
0.178368
0.178442
0.178696
0.188168
0.584943
0.560296
0.532949
0.505376
0.475098
0.455543
0.428463
0.41418
0.395409
0.380365
0.366549
0.352243
0.339558
0.327738
0.316596
0.306484
0.296513
0.287853
0.277603
0.271012
0.261047
0.25484
0.248749
0.24255
0.238524
0.234333
0.22946
0.227114
0.221172
0.218338
0.212857
0.209753
0.205124
0.201376
0.19886
0.195066
0.193332
0.19026
0.188524
0.185107
0.182351
0.179078
0.175858
0.172669
0.170721
0.167905
0.166931
0.16606
0.166227
0.166523
0.166943
0.167388
0.167085
0.166547
0.16574
0.16569
0.165266
0.165347
0.164811
0.164503
0.163201
0.16189
0.158382
0.155641
0.149006
0.145061
0.136399
0.132036
0.123679
0.118608
0.112961
0.10802
0.103499
0.100493
0.0968132
0.0949919
0.092169
0.0921321
0.0921615
0.0929427
0.0945841
0.0960593
0.0988035
0.101192
0.101146
0.101422
0.0994827
0.0971657
0.092029
0.0844182
0.0785891
0.0682167
0.0604955
0.0525519
0.0441581
0.0389508
0.0326767
0.028502
0.0250181
0.0216339
0.0202999
0.0183
0.0175917
0.0176556
0.0178847
0.0185416
0.0207019
0.0223124
0.0266494
0.0299105
0.0344135
0.0439628
0.047103
0.0522905
0.0590138
0.0603914
0.0611476
0.0597876
0.0567545
0.0529536
0.0457279
0.039768
0.0322374
0.0254577
0.0195085
0.0143167
0.0104536
0.00749742
0.00569612
0.00451733
0.00410402
0.00415218
0.00429631
0.00470847
0.00566294
0.00692064
0.00972708
0.0131578
0.0158377
0.0217849
0.0269518
0.0298958
0.0336962
0.0381155
0.0396818
0.0407925
0.0426838
0.0428952
0.0447644
0.0461053
0.0478348
0.0498309
0.0595898
0.0641836
0.0767113
0.114207
0.213469
0.248135
0.239039
0.246302
0.232583
0.21602
0.181508
0.152889
0.135977
0.119924
0.117495
0.11344
0.112009
0.108551
0.106238
0.101835
0.0998862
0.0962516
0.0953971
0.0930277
0.0900547
0.0874825
0.0805063
0.0754481
0.0708085
0.0584591
0.0514028
0.0349606
0.0265417
0.0238661
0.0248684
0.0281116
0.03555
0.0519274
0.0737755
0.103767
0.127333
0.151898
0.158299
0.169702
0.172841
0.179587
0.175934
0.179781
0.1597
0.155089
0.149277
0.142775
0.135189
0.131576
0.125652
0.122766
0.120598
0.117578
0.116418
0.11335
0.111686
0.108104
0.106479
0.102866
0.100716
0.0978927
0.0946223
0.0930693
0.0890409
0.0871675
0.0843318
0.0823377
0.0811088
0.0792385
0.0784435
0.0776571
0.0761189
0.0754363
0.0737714
0.0727262
0.0707794
0.0693041
0.0679067
0.0661963
0.0654849
0.0640921
0.0635541
0.0625259
0.0619998
0.0613258
0.0602073
0.0588667
0.0577639
0.0563313
0.0555662
0.0545509
0.0544284
0.0545044
0.0547162
0.055529
0.0560389
0.0563729
0.0564237
0.0557766
0.0551731
0.0543147
0.0537149
0.0532654
0.0523849
0.0517394
0.0504186
0.0493713
0.0477128
0.045311
0.0432329
0.0403389
0.0383074
0.0354883
0.0339804
0.031805
0.0307731
0.0293404
0.0283909
0.0277746
0.0270191
0.0266012
0.026151
0.0260038
0.0261299
0.0261728
0.0264262
0.0265925
0.0265431
0.0264758
0.0259034
0.0252701
0.0240599
0.0220478
0.0206995
0.0179941
0.016095
0.0139383
0.0118842
0.0104984
0.00889718
0.00799475
0.00700644
0.0061148
0.0057233
0.00519818
0.00489409
0.00486886
0.00485879
0.00494839
0.00528219
0.00551003
0.00624077
0.00713635
0.00778759
0.00969257
0.0103573
0.0116589
0.0125826
0.0131624
0.0131991
0.0129488
0.0124443
0.0114345
0.00999285
0.00866075
0.00702687
0.005694
0.00445283
0.00365428
0.00299255
0.00286115
0.00292784
0.00310725
0.00366757
0.0044614
0.0059991
0.00937732
0.0127244
0.0180198
0.0268819
0.0320712
0.0405236
0.0504414
0.0558255
0.0603387
0.0662519
0.0676724
0.0684589
0.0688535
0.0676952
0.0678494
0.0680541
0.0668901
0.0675647
0.0722754
0.0772767
0.0862892
0.121388
0.217552
0.276874
0.259906
0.263248
0.253108
0.222364
0.192439
0.143451
0.132299
0.113584
0.108146
0.109014
0.106499
0.107113
0.103189
0.103072
0.0998235
0.0993017
0.0966522
0.0958691
0.0951966
0.0920163
0.0911678
0.0879228
0.0785564
0.0770219
0.069803
0.0619245
0.0565178
0.04231
0.0324287
0.0303965
0.0305064
0.0328355
0.0392325
0.0464049
0.0671504
0.0784577
0.110293
0.119864
0.144713
0.151405
0.168643
0.166845
0.170011
0.0269592
0.026405
0.0250592
0.0240875
0.0227953
0.0222932
0.0215185
0.021315
0.0211994
0.0211609
0.0212163
0.0211794
0.0211855
0.021063
0.0209484
0.0206572
0.0202948
0.0200144
0.019397
0.0191196
0.0183914
0.0180126
0.0175313
0.0171773
0.0170823
0.0169521
0.0169483
0.0169443
0.0169222
0.0168562
0.0166318
0.0163736
0.0160384
0.0156762
0.0153375
0.0150401
0.014846
0.0147098
0.0146405
0.0145476
0.0144934
0.0144649
0.0144304
0.0142044
0.0139076
0.0135331
0.0131592
0.0129225
0.012851
0.0128799
0.0129467
0.0131814
0.0136252
0.0141
0.0144101
0.0144351
0.014293
0.0137637
0.013293
0.0129157
0.0124959
0.0122805
0.0120108
0.0117134
0.011497
0.0111384
0.0107366
0.010071
0.00948046
0.00881186
0.0082715
0.00780105
0.00742367
0.00718257
0.00693936
0.0068005
0.00662951
0.00644719
0.00638931
0.00622828
0.00617406
0.00609942
0.00602216
0.00600319
0.00592179
0.00587081
0.00573444
0.00559462
0.00538348
0.00503289
0.00472666
0.00426711
0.00379206
0.00333823
0.00290997
0.00254816
0.00225515
0.00203545
0.00181853
0.0016487
0.00151762
0.00142066
0.00135368
0.00132427
0.00132649
0.00134569
0.00139596
0.00143472
0.00156509
0.00168592
0.00187636
0.00205773
0.00237919
0.00251514
0.00273363
0.0028196
0.0028194
0.00277667
0.00265532
0.00249657
0.00223176
0.00203091
0.00181505
0.00171921
0.00175803
0.00185224
0.0020602
0.0025741
0.00329217
0.00481942
0.00821094
0.0118071
0.0193852
0.0275753
0.0361846
0.0522313
0.0649345
0.0764383
0.0934333
0.103531
0.109272
0.117185
0.117351
0.115972
0.113649
0.108739
0.103634
0.101129
0.0931242
0.0904279
0.0920157
0.0962978
0.101413
0.120505
0.215158
0.289957
0.291647
0.270714
0.273206
0.248966
0.216318
0.15401
0.130177
0.120265
0.105874
0.110322
0.105919
0.10542
0.104926
0.102583
0.10081
0.0985133
0.0962322
0.0961958
0.0961975
0.0985476
0.0973539
0.0927193
0.095823
0.089222
0.0828203
0.0781045
0.0675282
0.0658527
0.0602105
0.0509331
0.0464758
0.0386702
0.0357117
0.0364773
0.038401
0.0472331
0.0532859
0.0717409
0.080337
0.10194
0.109713
0.131814
0.136395
0.144011
0.00303541
0.00298888
0.00286217
0.00273526
0.00256264
0.00245278
0.00236384
0.00235063
0.00235613
0.00237491
0.00247228
0.00254232
0.00262065
0.0026404
0.00264714
0.00262981
0.00257788
0.00252971
0.0024317
0.00238498
0.00228987
0.00225235
0.00222604
0.00221679
0.00222773
0.00223595
0.00226092
0.00227557
0.00227995
0.00227912
0.00226473
0.00222289
0.00217268
0.00212998
0.00209298
0.00206859
0.00205378
0.00204938
0.0020539
0.00205665
0.0020649
0.00206574
0.00207153
0.00207131
0.00207352
0.0020717
0.00203807
0.00202329
0.00200417
0.00201417
0.00202886
0.00205844
0.00214429
0.00226056
0.0023685
0.00240594
0.00240696
0.00234139
0.00223591
0.00211133
0.00203049
0.00198383
0.00196129
0.00194091
0.0019166
0.00188771
0.00184231
0.00172724
0.00161595
0.00151259
0.00141428
0.00136003
0.00128928
0.00126714
0.00122684
0.00120978
0.0011804
0.00114135
0.00112586
0.00108138
0.00106653
0.00104616
0.00101898
0.00101399
0.000999781
0.000996593
0.000987504
0.000976129
0.000956603
0.000908485
0.000874032
0.000805049
0.000725227
0.000666895
0.000593775
0.000558297
0.000523908
0.000501365
0.000492634
0.000480136
0.000476083
0.000468828
0.000465655
0.00045494
0.000449198
0.000442316
0.000439507
0.000443342
0.000445096
0.000455329
0.000467628
0.000487612
0.000535825
0.000556259
0.000601842
0.000621065
0.000665854
0.000686235
0.000728422
0.0007696
0.000873205
0.000944417
0.00110727
0.00132971
0.00179605
0.00248696
0.00403855
0.00691275
0.0100614
0.018163
0.0253544
0.038869
0.0580956
0.0726728
0.0983053
0.124067
0.142526
0.168308
0.187029
0.19559
0.202583
0.201439
0.195982
0.189239
0.176489
0.161232
0.152633
0.135961
0.121238
0.119565
0.121381
0.123918
0.134475
0.20239
0.305311
0.317748
0.291479
0.288378
0.279403
0.239868
0.191271
0.144113
0.131054
0.105435
0.100654
0.106667
0.101716
0.109068
0.105025
0.110471
0.10505
0.106391
0.0999885
0.102539
0.0989701
0.100697
0.107328
0.0982505
0.097841
0.0969734
0.0886026
0.0939924
0.0873666
0.0835714
0.0834176
0.0702703
0.0611905
0.0467244
0.0417455
0.0381893
0.0389523
0.0407728
0.0444332
0.0529683
0.0588593
0.0715963
0.0778925
0.0929762
0.0981823
0.109437
0.000286398
0.000304676
0.00030822
0.000305836
0.000297193
0.000285308
0.000273615
0.000267393
0.000264191
0.000261807
0.000261351
0.000260843
0.000261042
0.000260632
0.000260624
0.000258154
0.000252019
0.000245874
0.000239533
0.000236834
0.000234476
0.000234346
0.000234701
0.000235936
0.000240117
0.000242517
0.000244874
0.000245731
0.000245879
0.000245159
0.000243232
0.000240389
0.000237544
0.000235867
0.000233687
0.000232463
0.000231839
0.000230723
0.000230655
0.000230331
0.000230219
0.000230122
0.000230137
0.000230621
0.000231103
0.00023134
0.000229231
0.000227549
0.00022415
0.000223936
0.000224718
0.000226432
0.000236492
0.000250527
0.000273057
0.000282618
0.000287677
0.000285084
0.000275709
0.000258851
0.000250647
0.000243249
0.000240375
0.000236917
0.000235154
0.000230929
0.000227804
0.000217077
0.00021182
0.000204179
0.000201652
0.000200196
0.000199991
0.000199996
0.000200891
0.000201326
0.000201466
0.000199521
0.000198033
0.000194583
0.000193656
0.000192444
0.000192619
0.000192823
0.000194411
0.000196723
0.00020441
0.000207504
0.000213178
0.000215764
0.00022007
0.000223238
0.000229097
0.000236557
0.000245007
0.000265102
0.000279333
0.000307114
0.000322014
0.000341434
0.000367137
0.000378757
0.000386277
0.000382878
0.000381482
0.000368916
0.000357362
0.000341219
0.000327335
0.00032096
0.000312588
0.000315694
0.000321392
0.000337111
0.000355251
0.000402996
0.000451092
0.000547974
0.000632969
0.000803405
0.00113975
0.00147713
0.00241245
0.0035896
0.00605616
0.00897429
0.0157248
0.0239625
0.0349183
0.0578435
0.074896
0.111925
0.139698
0.179498
0.222937
0.253125
0.291786
0.319328
0.334504
0.339046
0.33543
0.323249
0.310666
0.287594
0.258867
0.235503
0.20847
0.180502
0.168828
0.16256
0.160462
0.162171
0.192963
0.321292
0.346447
0.308307
0.297607
0.295512
0.289228
0.237677
0.185066
0.14739
0.118369
0.0985633
0.102889
0.0993276
0.0957791
0.0997167
0.0967846
0.110162
0.104907
0.113623
0.106219
0.109379
0.109207
0.106456
0.138251
0.131256
0.110363
0.116048
0.107801
0.103138
0.102809
0.0909837
0.0911008
0.0847319
0.0817025
0.0684374
0.0577897
0.045622
0.0420645
0.0416057
0.0424509
0.0444956
0.0471281
0.0536179
0.0574177
0.0665315
0.070987
0.0809911
9.26207e-05
9.26023e-05
9.34861e-05
9.60602e-05
9.63854e-05
9.62582e-05
9.62801e-05
9.63589e-05
9.69629e-05
9.73216e-05
9.84487e-05
9.91027e-05
9.99044e-05
0.000100469
0.000100833
0.000101215
0.000101387
0.000101533
0.000101541
0.000101455
0.000101254
0.000101048
0.000100554
0.000100134
9.94584e-05
9.89534e-05
9.85057e-05
9.80858e-05
9.79532e-05
9.78675e-05
9.78836e-05
9.80568e-05
9.88401e-05
9.95408e-05
0.000100142
0.000100469
0.000100612
0.000101164
0.000101885
0.000103391
0.000104363
0.000105097
0.000105352
0.000105395
0.000105281
0.000105086
0.00010505
0.000105197
0.000105797
0.000106328
0.0001069
0.000107219
0.000107971
0.00010864
0.000110197
0.000111778
0.00011363
0.000114834
0.000115162
0.000115925
0.000115976
0.000115802
0.000115076
0.000114111
0.000114014
0.000114107
0.000114386
0.000115338
0.000116709
0.000119403
0.000122434
0.000123668
0.000125966
0.000127847
0.000132727
0.00014121
0.000145238
0.000154398
0.000157356
0.000161293
0.00016493
0.000165787
0.000170519
0.000174024
0.000178299
0.000190253
0.000197873
0.000217363
0.000228176
0.000253732
0.000277307
0.000307247
0.000346381
0.000412332
0.000463215
0.000549033
0.000636554
0.00071647
0.000793327
0.000853069
0.000917362
0.000969434
0.000975278
0.000973119
0.000960242
0.000915659
0.000884015
0.000834012
0.000803702
0.000766187
0.000755837
0.000760781
0.000778072
0.000839293
0.000908841
0.00105184
0.00123482
0.00163929
0.00203294
0.00284035
0.00429492
0.0057463
0.00960968
0.013851
0.0222487
0.032794
0.0501643
0.0758664
0.106902
0.150593
0.199127
0.256632
0.312844
0.376345
0.417195
0.446053
0.46854
0.468168
0.463824
0.455245
0.434902
0.419404
0.394551
0.359982
0.33457
0.309921
0.270402
0.238518
0.21173
0.198167
0.196777
0.222773
0.334835
0.355656
0.312453
0.292141
0.301173
0.327799
0.303845
0.240874
0.195217
0.163128
0.110535
0.0933142
0.0971322
0.0943283
0.102835
0.0982653
0.0971681
0.0994095
0.101439
0.108729
0.110989
0.110466
0.131862
0.133438
0.135237
0.148773
0.169273
0.149847
0.208078
0.145022
0.196305
0.130619
0.119444
0.0945124
0.0920588
0.0823836
0.0840694
0.0725278
0.0656007
0.0506107
0.0463301
0.0452283
0.0457418
0.0471866
0.0493524
0.0542004
0.0563916
0.0597822
8.67282e-05
8.73527e-05
9.00962e-05
9.20347e-05
9.38058e-05
9.57576e-05
9.77509e-05
0.0001006
0.000103148
0.000105365
0.000106209
0.000108488
0.000109638
0.000111913
0.000113654
0.000114747
0.000115462
0.000115255
0.000115249
0.000114832
0.000114701
0.000114765
0.000114656
0.000115044
0.000115209
0.000116479
0.00011729
0.000118659
0.000120958
0.000123024
0.00013177
0.000138472
0.000149797
0.000156394
0.000161098
0.000163827
0.000163632
0.000163876
0.000163117
0.000162891
0.000162819
0.000161924
0.00016179
0.000160827
0.000160648
0.000160533
0.000160423
0.000165274
0.0001701
0.000181915
0.000190189
0.000194575
0.000198333
0.000198188
0.000197871
0.000197564
0.000197377
0.000203196
0.000211538
0.000223028
0.000233893
0.000238132
0.000246595
0.000251435
0.000257702
0.000268499
0.000273941
0.000288896
0.000300724
0.000319141
0.000338958
0.000348682
0.000375995
0.000399665
0.000443438
0.000496831
0.000516798
0.000567954
0.000583704
0.000604446
0.000628777
0.000635228
0.000671281
0.000696621
0.000733884
0.000811823
0.000850924
0.000959614
0.00102496
0.00115884
0.00131243
0.00140677
0.00170351
0.00188226
0.00215262
0.002444
0.00275545
0.00300226
0.00320004
0.00338394
0.00351517
0.00356058
0.00354434
0.00350202
0.00341421
0.00326623
0.00310835
0.00302495
0.00293588
0.00287529
0.00288564
0.00292153
0.00300677
0.00325063
0.00353148
0.00410273
0.00480455
0.00637641
0.00799279
0.0108869
0.0163961
0.0215287
0.0336798
0.0477984
0.0713187
0.103255
0.146173
0.203581
0.274974
0.351841
0.419518
0.474038
0.505548
0.524847
0.529905
0.527934
0.523436
0.510816
0.495903
0.479717
0.459883
0.433935
0.404786
0.379733
0.344647
0.310071
0.292457
0.280138
0.255349
0.239989
0.239006
0.295477
0.352069
0.329373
0.282205
0.284221
0.318796
0.375862
0.323284
0.281309
0.236251
0.186889
0.108096
0.0904842
0.0905571
0.0916008
0.105834
0.0978889
0.105158
0.0976834
0.106231
0.103076
0.118951
0.119176
0.182534
0.186615
0.271213
0.192314
0.558709
0.303059
1.02933
0.485205
1.42516
0.627227
0.595723
0.274039
0.156534
0.103795
0.0999508
0.0887197
0.0884479
0.0789034
0.0712368
0.0574007
0.0520047
0.0499319
0.0509002
0.0529663
0.0546147
0.0556655
0.000210687
0.00021719
0.000232155
0.000245207
0.000257379
0.00026711
0.000279414
0.000287333
0.000296446
0.000313941
0.000326107
0.000358582
0.000373681
0.000403397
0.000422573
0.000431174
0.000448587
0.000452403
0.000461195
0.000468963
0.000482142
0.000519154
0.000533193
0.000565056
0.000576804
0.0005963
0.000606924
0.000613865
0.0006333
0.000660812
0.000742643
0.000800179
0.000868127
0.000915451
0.00092886
0.000941414
0.000932803
0.000929131
0.000919753
0.000913796
0.000921134
0.000926727
0.000951886
0.000968791
0.00101162
0.00104479
0.00106322
0.00112861
0.00115368
0.00118956
0.00120634
0.00120961
0.00122125
0.00122132
0.00122361
0.00124344
0.00126034
0.00131274
0.00136112
0.00140739
0.00146937
0.00149131
0.00153517
0.00155956
0.00159206
0.00165451
0.00168895
0.00179168
0.00187766
0.00198498
0.00210546
0.00215747
0.00230547
0.00240752
0.00255624
0.0027288
0.00278785
0.00295571
0.00302549
0.00309573
0.00323741
0.00329203
0.00348485
0.00360039
0.00379955
0.00410314
0.00424087
0.00465363
0.00497897
0.00543464
0.00611233
0.0064689
0.00753006
0.00810408
0.00895974
0.00983069
0.0103868
0.0111009
0.0114814
0.0117198
0.0117195
0.0116283
0.0114403
0.0111242
0.0107806
0.0103751
0.0100814
0.00978084
0.00954247
0.00952331
0.00959275
0.00981349
0.0102132
0.0112605
0.0124192
0.0147515
0.0172589
0.0224036
0.0299413
0.0374646
0.0562936
0.0731733
0.108193
0.142183
0.203931
0.277084
0.358569
0.441112
0.492449
0.527086
0.545478
0.554903
0.558916
0.555938
0.549791
0.536775
0.519648
0.506794
0.48371
0.462289
0.446427
0.407576
0.379375
0.358413
0.332816
0.305674
0.286758
0.262753
0.243505
0.239411
0.263606
0.318943
0.330401
0.285672
0.267688
0.288205
0.368912
0.400035
0.372993
0.341963
0.289306
0.235306
0.114795
0.0898216
0.0897995
0.0915191
0.105313
0.0961719
0.10976
0.0951564
0.124102
0.105639
0.143188
0.15133
0.264102
0.547253
0.883068
0.326995
1.48239
0.524463
1.42371
0.572201
1.24324
0.785497
1.54055
0.933657
0.475543
0.208576
0.147775
0.10798
0.103067
0.0941741
0.090932
0.0830321
0.0735281
0.0629583
0.0614174
0.0611452
0.0598075
0.0582309
0.00284511
0.00297102
0.00302931
0.00303821
0.00302947
0.00302055
0.00303065
0.00307309
0.00316169
0.00330309
0.00357782
0.00388545
0.00408979
0.00433667
0.00454844
0.00461652
0.00475295
0.00480145
0.00488921
0.0050413
0.00512784
0.00537908
0.00545746
0.00559757
0.00566768
0.0057219
0.00578876
0.00580766
0.0059435
0.00607364
0.00643145
0.0066792
0.00691314
0.00710865
0.00712946
0.00715534
0.0071191
0.00709331
0.00706714
0.007039
0.00710827
0.00719271
0.00741965
0.00753346
0.00772987
0.00785822
0.00789175
0.00799304
0.00800876
0.008027
0.00804259
0.00803679
0.00809246
0.00814081
0.00819352
0.0083306
0.00837203
0.00848035
0.0085381
0.0086002
0.00871378
0.00875689
0.00888078
0.00896931
0.00914633
0.00939699
0.0095375
0.00995637
0.0101939
0.0104622
0.0108009
0.0109558
0.0113844
0.0116115
0.0119381
0.01231
0.0124366
0.0128115
0.0130263
0.0132289
0.0137345
0.0139529
0.0146098
0.0150227
0.0157039
0.0167767
0.017282
0.018726
0.0199079
0.0213735
0.0236375
0.0247162
0.0276859
0.0291002
0.0313369
0.0331185
0.03421
0.0358092
0.0359989
0.0359936
0.0357968
0.0348984
0.0342552
0.0329546
0.0318235
0.0309535
0.0299684
0.0291094
0.0289987
0.0291038
0.029572
0.0308988
0.0325937
0.0364733
0.0406351
0.0493366
0.0583002
0.0717452
0.0973979
0.121194
0.160924
0.215817
0.281756
0.366773
0.439446
0.494992
0.527842
0.548012
0.559664
0.56498
0.563863
0.55481
0.542606
0.51845
0.494119
0.48319
0.454991