/*--------------------------------*- C++ -*----------------------------------*\
| =========                 |                                                 |
| \\      /  F ield         | OpenFOAM: The Open Source CFD Toolbox           |
|  \\    /   O peration     | Version:  2.4.0                                 |
|   \\  /    A nd           | Web:      www.OpenFOAM.org                      |
|    \\/     M anipulation  |                                                 |
\*---------------------------------------------------------------------------*/
FoamFile
{
    version     2.0;
    format      ascii;
    class       volScalarField;
    location    "1.32";
    object      pMean;
}
// * * * * * * * * * * * * * * * * * * * * * * * * * * * * * * * * * * * * * //

dimensions      [0 2 -2 0 0 0 0];

internalField   nonuniform List<scalar> 
8800
(
87.3872
74.9395
67.5256
63.9556
62.0545
60.6116
59.3917
58.2326
57.191
56.1492
55.1862
54.1889
53.2704
52.3171
51.4616
50.5797
49.8058
49.0194
48.3227
47.5608
84.2769
74.5853
67.694
64.0695
62.1144
60.6369
59.3992
58.2329
57.189
56.1468
55.1833
54.1868
53.2678
52.3154
51.4596
50.5776
49.8072
49.0144
48.3251
47.5199
82.3123
74.6613
68.2952
64.4451
62.2816
60.716
59.4457
58.2655
57.2132
56.1639
55.1935
54.1915
53.2692
52.3134
51.458
50.5703
49.8096
49.0035
48.3827
47.5626
80.7774
74.723
68.881
64.8687
62.465
60.8038
59.508
58.3221
57.2616
56.2029
55.2209
54.2093
53.2799
52.3176
51.4596
50.564
49.8072
48.9997
48.4615
47.7647
79.5292
74.6968
69.3562
65.2749
62.6336
60.8716
59.5569
58.3803
57.3173
56.2552
55.2563
54.2374
53.2927
52.3286
51.4574
50.5643
49.7914
49.0049
48.429
48.0412
78.5452
74.6006
69.721
65.6217
62.7844
60.9153
59.5849
58.4258
57.3674
56.3056
55.2915
54.2656
53.3042
52.3384
51.4525
50.5627
49.7723
49.0097
48.4631
48.4355
77.7893
74.4857
69.9883
65.9018
62.9201
60.9422
59.5935
58.4581
57.4067
56.3476
55.3208
54.2891
53.312
52.3447
51.4454
50.5584
49.7552
49.0154
48.5436
48.7817
77.2364
74.3855
70.1703
66.1139
63.0392
60.9612
59.5876
58.4814
57.4348
56.3811
55.3415
54.3089
53.3151
52.3508
51.4361
50.5591
49.7406
49.0253
48.5539
49.0681
76.8757
74.3143
70.285
66.2583
63.124
60.9738
59.5795
58.4962
57.4549
56.4053
55.3566
54.3231
53.3187
52.3562
51.4329
50.5622
49.7371
49.0456
48.6231
49.3155
76.6955
74.28
70.3419
66.3334
63.1678
60.9815
59.574
58.5046
57.4663
56.4199
55.3655
54.3321
53.3224
52.3621
51.4351
50.5695
49.7457
49.0697
48.6814
49.4265
76.6886
74.2881
70.3424
66.3369
63.1673
60.984
59.5721
58.5074
57.4663
56.4234
55.3662
54.3367
53.3248
52.3692
51.4409
50.5814
49.7581
49.0945
48.719
49.5049
76.8577
74.336
70.2866
66.2666
63.1231
60.9799
59.5748
58.5029
57.4555
56.4144
55.3594
54.3357
53.3266
52.3761
51.4508
50.596
49.7765
49.1148
48.7415
49.5265
77.2095
74.4174
70.1714
66.1242
63.0366
60.9703
59.5799
58.4916
57.4348
56.395
55.345
54.3291
53.3268
52.3833
51.4644
50.6149
49.8008
49.1363
48.7432
49.4867
77.7562
74.5227
69.9884
65.9113
62.9132
60.9526
59.5829
58.4702
57.4044
56.3647
55.323
54.3159
53.3245
52.3893
51.48
50.6381
49.8323
49.1647
48.7293
49.3692
78.5103
74.6383
69.7225
65.6292
62.7745
60.9238
59.5755
58.4371
57.3645
56.3239
55.2944
54.2955
53.3195
52.3914
51.4963
50.6628
49.8727
49.2035
48.7265
49.1684
79.4923
74.736
69.359
65.2823
62.622
60.8789
59.5494
58.3919
57.3155
56.2747
55.2614
54.2703
53.3128
52.3896
51.5125
50.6856
49.9202
49.2535
48.7539
48.904
80.7389
74.7632
68.8858
64.8785
62.4526
60.8115
59.5018
58.3357
57.2606
56.2245
55.2282
54.2455
53.3053
52.3855
51.5263
50.7029
49.9666
49.3015
48.8116
48.6275
82.2732
74.7004
68.3026
64.4568
62.2692
60.7237
59.4403
58.2796
57.2135
56.186
55.2036
54.2287
53.3001
52.3839
51.5364
50.716
49.9998
49.3383
48.8695
48.4838
84.2369
74.622
67.703
64.0828
62.1024
60.6444
59.3941
58.2473
57.1899
56.1693
55.1944
54.2247
53.3007
52.3872
51.5431
50.7261
50.0154
49.3598
48.8662
48.4062
87.3464
74.9746
67.5343
63.9693
62.0432
60.619
59.3867
58.2472
57.192
56.1722
55.1972
54.2274
53.3034
52.3897
51.5463
50.7295
50.019
49.3655
48.8676
48.5259
47.5802
47.464
47.1984
46.9217
46.7018
46.5447
46.4451
46.3847
46.3468
46.3219
46.3029
46.2799
46.2515
46.2157
46.1715
46.117
46.0527
45.9752
45.888
45.7882
45.6814
45.5739
45.4725
45.3797
45.3018
45.2417
45.2005
45.1704
45.1449
45.1129
45.0709
45.0176
44.9594
44.902
44.8499
44.8003
44.7511
44.6923
44.6232
44.5419
44.4542
44.3628
44.281
44.2163
44.1779
44.164
44.1768
44.2067
44.2503
44.2952
44.334
44.352
44.3456
44.3034
44.2309
44.1194
43.9816
43.8136
43.6292
43.4208
43.197
42.953
42.7022
42.4481
42.2105
42.0027
41.8404
41.7377
41.7002
41.7178
41.785
41.882
42.0008
42.1194
42.2359
42.3288
42.4034
42.4393
42.4473
42.4145
42.3555
42.2651
42.1617
42.0351
41.9119
41.7857
41.6769
41.5893
41.5287
41.5045
41.5185
41.578
41.68
41.819
41.9896
42.1809
42.3869
42.5963
42.8045
43.0021
43.1889
43.3591
43.5159
43.6416
43.7575
43.8477
43.9349
44.0064
44.0858
44.1489
44.2124
44.2616
44.3065
44.3387
44.3649
44.3846
44.4039
44.4202
44.4408
44.4578
44.4812
44.5001
44.532
44.5584
44.6081
44.6452
44.7162
44.77
44.8613
44.9444
45.0601
45.1708
45.3034
45.4345
45.5841
45.7323
45.8959
46.054
46.2223
46.3829
46.5542
46.7235
46.9032
47.0809
47.2685
47.4507
47.6427
47.8351
48.0323
48.2308
48.429
48.6263
48.8252
49.0175
49.2115
49.4018
49.6041
49.7933
49.9987
50.1933
50.4084
50.5917
50.8039
50.9734
51.1665
51.3135
51.489
51.6107
51.7577
51.8487
51.9846
52.0473
52.1861
52.2361
52.4038
52.4474
52.6581
52.7052
52.9455
53.0176
53.2713
53.3785
53.6615
53.8256
54.1406
54.3677
54.7117
54.9648
55.3292
55.5687
55.9128
56.071
56.2748
56.1604
55.9598
55.116
53.8171
50.4952
46.3071
25.9645
47.3652
47.3144
47.2068
47.0074
46.787
46.604
46.4856
46.4229
46.3979
46.3882
46.382
46.3675
46.3439
46.3091
46.2658
46.2113
46.1478
46.0728
45.9894
45.8961
45.7977
45.6985
45.6056
45.5204
45.4486
45.3896
45.3457
45.3112
45.2829
45.2518
45.2154
45.1698
45.1197
45.0666
45.0158
44.9641
44.912
44.8527
44.7868
44.7106
44.6301
44.5475
44.4732
44.4121
44.3727
44.3537
44.3579
44.3775
44.4092
44.4409
44.4677
44.476
44.4641
44.4202
44.3493
44.2427
44.1101
43.9477
43.767
43.5645
43.3479
43.1155
42.8768
42.6386
42.4139
42.2165
42.059
41.9509
41.8997
41.898
41.9425
42.0168
42.1142
42.2158
42.3155
42.3978
42.4596
42.4894
42.4894
42.4537
42.3924
42.3039
42.2025
42.0879
41.9737
41.8644
41.7666
41.6929
41.6412
41.623
41.6392
41.6979
41.7952
41.9262
42.0866
42.2682
42.464
42.6642
42.8647
43.0584
43.2417
43.41
43.5607
43.6822
43.7913
43.8769
43.9556
44.0184
44.0816
44.1323
44.1779
44.2125
44.2377
44.2504
44.2526
44.25
44.2429
44.2353
44.2283
44.2174
44.2155
44.2084
44.2203
44.2281
44.2642
44.2909
44.3498
44.398
44.4777
44.5524
44.6558
44.7561
44.8782
44.9988
45.139
45.2754
45.4283
45.5744
45.73
45.8766
46.0351
46.1888
46.3541
46.5138
46.6882
46.8508
47.0321
47.2069
47.3958
47.5817
47.773
47.9598
48.1571
48.338
48.5346
48.7184
48.9279
49.1141
49.3302
49.5267
49.7517
49.9368
50.1571
50.3232
50.5183
50.6615
50.8339
50.9449
51.0876
51.1608
51.2928
51.3273
51.4654
51.4789
51.649
51.662
51.8654
51.8927
52.1138
52.1696
52.3975
52.4842
52.7264
52.8624
53.1336
53.2986
53.6032
53.7548
54.0604
54.1561
54.3757
54.3074
54.3031
53.7974
53.2366
51.5496
49.7748
43.9961
38.1708
19.4164
47.3361
47.3355
47.3389
47.1928
46.942
46.6905
46.5162
46.4304
46.4137
46.4266
46.4437
46.4462
46.4323
46.4002
46.356
46.2988
46.2335
46.1585
46.0776
45.9896
45.8998
45.8097
45.7262
45.6493
45.5839
45.5283
45.4849
45.4489
45.4194
45.3891
45.3568
45.3174
45.2743
45.2263
45.1779
45.1263
45.0731
45.0142
44.9513
44.8815
44.8093
44.7362
44.6699
44.614
44.575
44.5521
44.5478
44.5557
44.5737
44.5909
44.6038
44.6005
44.5798
44.5319
44.4593
44.3556
44.2265
44.0705
43.8947
43.7002
43.4922
43.2736
43.0508
42.8312
42.6244
42.4411
42.2927
42.1849
42.1244
42.1078
42.1327
42.187
42.264
42.3488
42.4333
42.5037
42.5538
42.5761
42.5684
42.5308
42.468
42.3852
42.2883
42.1859
42.0809
41.9848
41.8986
41.8342
41.7885
41.7722
41.7876
41.8422
41.9314
42.0536
42.2024
42.3745
42.5589
42.7508
42.9433
43.1318
43.3107
43.4757
43.6206
43.7386
43.8435
43.9264
43.9989
44.0557
44.1073
44.1489
44.1814
44.204
44.2122
44.2067
44.188
44.164
44.1351
44.1017
44.0716
44.0335
44.0123
43.9813
43.9796
43.9717
43.9985
44.0197
44.069
44.114
44.1826
44.2521
44.3438
44.4359
44.5485
44.6599
44.7905
44.9163
45.0577
45.193
45.337
45.4714
45.6189
45.7615
45.9164
46.0666
46.2309
46.3834
46.557
46.7202
46.9034
47.0734
47.2556
47.428
47.619
47.7862
47.9837
48.1609
48.3708
48.5565
48.7812
48.985
49.2146
49.406
49.6307
49.7933
49.9918
50.1268
50.2966
50.3898
50.5312
50.5868
50.7185
50.7262
50.8704
50.853
51.0248
51.0147
51.1946
51.2108
51.3914
51.4364
51.6172
51.685
51.8851
51.9724
52.2116
52.2911
52.5513
52.5885
52.8125
52.7441
52.8538
52.4981
52.3502
51.3002
50.6361
47.8016
45.8809
38.7482
31.7266
18.9633
47.3296
47.3244
47.3779
47.2178
46.9311
46.651
46.467
46.3938
46.4063
46.4547
46.5058
46.5344
46.5365
46.5104
46.465
46.4031
46.3328
46.2547
46.1743
46.0903
46.0077
45.9265
45.8524
45.7844
45.7265
45.6762
45.6356
45.6005
45.5712
45.5417
45.512
45.477
45.4386
45.3945
45.3484
45.2978
45.2456
45.1886
45.1299
45.0669
45.0038
44.9401
44.8824
44.8312
44.7927
44.7653
44.752
44.7472
44.7499
44.7514
44.7493
44.7343
44.7044
44.6523
44.578
44.4775
44.3533
44.2056
44.0389
43.8561
43.6617
43.46
43.2562
43.0569
42.8697
42.7026
42.5647
42.46
42.3941
42.3651
42.3729
42.4085
42.4663
42.5338
42.6024
42.6596
42.6985
42.7133
42.7005
42.6628
42.6016
42.5248
42.4342
42.3412
42.2464
42.1602
42.0832
42.0226
41.9779
41.9588
41.9698
42.0171
42.0969
42.2086
42.3473
42.508
42.6821
42.8639
43.0494
43.2304
43.4043
43.5634
43.7029
43.8164
43.9173
43.9988
44.0674
44.1217
44.1671
44.2031
44.2273
44.2385
44.2309
44.2074
44.1707
44.1249
44.0788
44.022
43.9744
43.9152
43.8782
43.8285
43.8162
43.7971
43.8179
43.8335
43.8774
43.9166
43.9809
44.0464
44.134
44.2218
44.3275
44.4322
44.5543
44.6709
44.8024
44.9261
45.0601
45.1837
45.3237
45.4576
45.607
45.753
45.9124
46.064
46.2344
46.3905
46.5686
46.7206
46.8947
47.046
47.2291
47.3788
47.575
47.7456
47.9565
48.1414
48.3765
48.5764
48.8148
49.0025
49.239
49.3864
49.5997
49.716
49.8956
49.9626
50.1106
50.1402
50.2773
50.2602
50.415
50.3832
50.5413
50.5266
50.6628
50.6729
50.8017
50.8281
50.9647
50.9991
51.1652
51.1901
51.3911
51.3771
51.5873
51.473
51.6715
51.3347
51.4559
50.6601
50.5602
48.7857
48.1232
44.4275
41.9438
35.2325
27.729
19.2097
48.4296
48.2271
47.6167
47.0518
46.6286
46.3668
46.2667
46.2829
46.3668
46.4705
46.5649
46.6259
46.6483
46.6315
46.5866
46.5203
46.4438
46.3608
46.2783
46.1964
46.1198
46.0472
45.9827
45.9245
45.8752
45.832
45.7962
45.7641
45.7363
45.7083
45.6803
45.6481
45.6131
45.5728
45.53
45.4827
45.4336
45.3806
45.3267
45.27
45.2142
45.1581
45.1062
45.0581
45.0186
44.986
44.9628
44.9453
44.9333
44.9207
44.9051
44.8798
44.8418
44.7865
44.7118
44.6162
44.4996
44.3635
44.2105
44.0438
43.8675
43.6854
43.5028
43.3244
43.1576
43.0075
42.8815
42.7827
42.7153
42.6785
42.6726
42.6925
42.7323
42.7828
42.8343
42.8775
42.9048
42.9125
42.8965
42.8596
42.8018
42.7298
42.6461
42.5595
42.4719
42.3901
42.3162
42.2537
42.2048
42.1784
42.182
42.219
42.2892
42.3898
42.5193
42.669
42.8336
43.0071
43.1852
43.3593
43.5281
43.6814
43.8162
43.926
44.0242
44.1045
44.1702
44.2245
44.2653
44.2968
44.3132
44.3122
44.2902
44.2482
44.196
44.1313
44.0714
43.9975
43.9351
43.8628
43.8126
43.7566
43.7369
43.7171
43.7314
43.7451
43.7836
43.8193
43.8845
43.9456
44.0363
44.1204
44.2262
44.3251
44.4433
44.5505
44.6774
44.7886
44.9185
45.0328
45.1709
45.2957
45.4465
45.589
45.7527
45.9057
46.077
46.2264
46.4023
46.5342
46.7046
46.8306
47.0062
47.1361
47.3291
47.4856
47.7037
47.876
48.1252
48.3101
48.5592
48.7388
48.9883
49.1209
49.3528
49.445
49.6355
49.6745
49.8296
49.8297
49.9722
49.9433
50.0979
50.0758
50.2138
50.1976
50.3074
50.2877
50.3861
50.3645
50.4841
50.4526
50.612
50.5412
50.7387
50.5655
50.787
50.4238
50.6549
49.9708
50.1125
48.8797
48.6986
46.4914
45.4058
41.7187
38.4598
33.1223
26.0322
19.7391
49.2362
48.9424
47.8898
46.972
46.3626
46.0722
46.0393
46.1528
46.3254
46.4989
46.6435
46.7381
46.7791
46.7699
46.724
46.6523
46.5681
46.4786
46.3921
46.3104
46.2374
46.172
46.1161
46.0675
46.0269
45.9914
45.9614
45.9336
45.9083
45.8822
45.8556
45.8256
45.7932
45.7564
45.717
45.6738
45.6285
45.5803
45.5311
45.4802
45.4298
45.3792
45.3308
45.2847
45.2434
45.2063
45.1748
45.1471
45.1223
45.0973
45.0695
45.0346
44.9894
44.9311
44.8573
44.7673
44.6603
44.5375
44.4004
44.2516
44.0948
43.9339
43.7735
43.6176
43.4718
43.34
43.2278
43.1378
43.0731
43.0337
43.0203
43.03
43.0564
43.0919
43.1276
43.1575
43.1741
43.1747
43.1558
43.1191
43.0636
42.9943
42.914
42.8288
42.7426
42.6605
42.5852
42.5175
42.4612
42.4226
42.4168
42.4425
42.5022
42.5923
42.7134
42.8535
43.0086
43.1751
43.3469
43.5159
43.6804
43.8313
43.9632
44.0722
44.1691
44.2481
44.313
44.3666
44.4047
44.4292
44.4367
44.421
44.3846
44.3237
44.2597
44.1813
44.1099
44.0257
43.9519
43.8739
43.8168
43.7659
43.7453
43.7328
43.7443
43.7607
43.7943
43.8349
43.9
43.9674
44.0618
44.1454
44.2546
44.3473
44.4634
44.5625
44.6872
44.7904
44.9211
45.0311
45.1695
45.2912
45.4483
45.5879
45.7634
45.918
46.0937
46.2399
46.4108
46.5254
46.6856
46.7913
46.9552
47.0618
47.2557
47.3868
47.6117
47.7659
48.0242
48.1904
48.4583
48.6191
48.8907
49.0018
49.2547
49.3239
49.5257
49.5263
49.6971
49.661
49.8195
49.7812
49.9462
49.9229
50.0719
50.0258
50.1426
50.0662
50.1598
50.0582
50.1843
50.058
50.2216
50.0367
50.2207
49.8976
50.0732
49.5359
49.6586
48.7859
48.7067
47.3113
46.7548
44.5584
42.9859
39.7897
36.2483
32.2207
26.0935
20.8588
49.8654
49.519
48.1408
46.9252
46.1347
45.7959
45.8156
46.0244
46.2903
46.5377
46.7331
46.8602
46.9171
46.9121
46.8618
46.782
46.6885
46.5917
46.5005
46.4183
46.3478
46.2884
46.2399
46.2001
46.1677
46.1401
46.1162
46.0937
46.0716
46.0481
46.0228
45.9945
45.9636
45.9292
45.8923
45.8526
45.811
45.7672
45.7223
45.6762
45.6298
45.5832
45.5373
45.4924
45.4496
45.4092
45.3714
45.3358
45.3013
45.2664
45.2287
45.1859
45.1352
45.0752
45.0035
44.9198
44.8228
44.7134
44.5925
44.4622
44.3256
44.1861
44.0472
43.9129
43.7871
43.6733
43.5749
43.4954
43.437
43.401
43.387
43.3926
43.4119
43.4368
43.4603
43.4781
43.4856
43.4808
43.4594
43.4213
43.366
43.2971
43.2163
43.1282
43.0392
42.9537
42.8741
42.7984
42.7319
42.6801
42.6619
42.6772
42.7288
42.8122
42.9275
43.0612
43.2108
43.3726
43.5388
43.7056
43.867
44.0164
44.1468
44.2583
44.3515
44.4283
44.4925
44.5429
44.5769
44.5922
44.5914
44.5619
44.5128
44.4362
44.3599
44.2712
44.1899
44.1013
44.0206
43.9454
43.8917
43.8551
43.8432
43.8442
43.8604
43.8827
43.9166
43.9633
44.0309
44.1097
44.2054
44.2989
44.4057
44.5012
44.613
44.7127
44.8353
44.9423
45.0755
45.1892
45.33
45.4585
45.6189
45.7621
45.941
46.1024
46.2826
46.4283
46.5913
46.6961
46.8384
46.9355
47.0797
47.1619
47.352
47.4608
47.6738
47.8238
48.0841
48.2298
48.5225
48.6658
48.9507
49.0533
49.313
49.3762
49.5834
49.5657
49.73
49.6815
49.8394
49.8151
49.9791
49.967
50.1119
50.0622
50.1601
50.0493
50.1049
49.9532
50.0197
49.8415
49.9222
49.6809
49.7566
49.3572
49.3916
48.7699
48.686
47.7738
47.4476
46.0369
45.2317
43.1611
41.406
38.8272
35.4273
32.2894
27.2074
22.5396
50.668
50.2213
48.4122
46.8681
45.9082
45.5254
45.5926
45.8967
46.2587
46.5798
46.8221
46.9771
47.0465
47.0433
46.9867
46.898
46.7953
46.6923
46.5976
46.5158
46.448
46.3943
46.3525
46.3206
46.2957
46.2756
46.2576
46.2401
46.2215
46.2009
46.1774
46.1509
46.1212
46.0888
46.0537
46.0166
45.9775
45.937
45.8948
45.8518
45.8078
45.7636
45.7189
45.6747
45.6307
45.5878
45.5455
45.5043
45.4627
45.4207
45.376
45.3282
45.2747
45.215
45.1469
45.0704
44.9837
44.8881
44.783
44.6711
44.5534
44.4337
44.3142
44.1994
44.0914
43.9946
43.9108
43.8437
43.7942
43.7649
43.7533
43.7583
43.7729
43.7905
43.8046
43.8137
43.8142
43.8059
43.7832
43.7439
43.6874
43.6166
43.5322
43.439
43.3455
43.2543
43.1704
43.087
43.0104
42.9484
42.9201
42.9291
42.9763
43.0578
43.1682
43.2974
43.4428
43.6005
43.7642
43.9298
44.0916
44.2426
44.372
44.4836
44.5712
44.6467
44.7076
44.7506
44.7767
44.7811
44.771
44.7322
44.6708
44.5835
44.4943
44.4003
44.3133
44.2263
44.1481
44.0856
44.045
44.0298
44.0344
44.0543
44.0814
44.1146
44.1558
44.2125
44.2882
44.3758
44.4751
44.5742
44.6781
44.7828
44.8939
45.0015
45.125
45.243
45.3808
45.506
45.651
45.789
45.9514
46.101
46.2865
46.4491
46.6372
46.7817
46.9481
47.0387
47.166
47.2642
47.3882
47.4569
47.6364
47.7195
47.9199
48.0528
48.3182
48.4488
48.7544
48.8998
49.1864
49.2972
49.5625
49.6273
49.8417
49.8031
49.949
49.9011
50.0406
50.0414
50.2075
50.2139
50.3563
50.3085
50.3944
50.2472
50.259
50.059
50.0439
49.8158
49.7959
49.4999
49.4663
48.9894
48.9207
48.2338
48.0178
47.0825
46.6344
45.2454
44.3509
42.4995
40.6969
38.6596
35.5807
32.9127
28.6992
24.4585
51.0348
50.575
48.6142
46.9043
45.8328
45.4002
45.4766
45.8325
46.256
46.6316
46.9121
47.0906
47.1699
47.1665
47.1023
47.0048
46.8939
46.7862
46.6894
46.6087
46.544
46.4955
46.4597
46.4346
46.4162
46.4022
46.3893
46.3762
46.3607
46.3426
46.3207
46.2959
46.2673
46.2364
46.2026
46.1673
46.1295
46.0908
46.0501
46.0088
45.9659
45.9228
45.8784
45.8341
45.789
45.7444
45.6989
45.6537
45.6074
45.5609
45.5124
45.4624
45.4084
45.351
45.2876
45.2189
45.1426
45.06
44.9696
44.8744
44.7744
44.6731
44.5717
44.475
44.3843
44.3044
44.2358
44.1821
44.1427
44.1208
44.1132
44.1186
44.1291
44.1411
44.148
44.1502
44.1461
44.1361
44.1125
44.0732
44.0167
43.9445
43.856
43.7567
43.6555
43.558
43.4685
43.3775
43.2977
43.2298
43.1982
43.2058
43.254
43.3348
43.4414
43.5644
43.7068
43.8622
44.0274
44.1932
44.3584
44.5151
44.6476
44.7572
44.8417
44.9134
44.9659
44.997
45.0098
45.0029
44.9842
44.9362
44.8657
44.7727
44.6766
44.582
44.4962
44.416
44.3505
44.3067
44.2887
44.2994
44.3266
44.3704
44.414
44.463
44.517
44.5845
44.6707
44.7659
44.8711
44.9731
45.0786
45.192
45.3053
45.4212
45.5506
45.6752
45.8218
45.9567
46.1085
46.2615
46.4311
46.5893
46.7856
46.9499
47.1569
47.2933
47.4824
47.5417
47.6714
47.7602
47.8645
47.9308
48.1026
48.1518
48.357
48.4633
48.7399
48.8555
49.1752
49.3125
49.6153
49.7131
50.0158
50.0757
50.3135
50.2071
50.3435
50.3059
50.4419
50.4604
50.6265
50.6589
50.8116
50.7574
50.8493
50.6463
50.6284
50.3747
50.2983
50.0069
49.9181
49.5715
49.4195
48.945
48.7908
48.1486
47.8766
46.8966
46.3886
45.0364
44.0674
42.4718
40.6881
39.0083
36.293
33.8371
30.2613
26.4248
51.2344
50.8027
48.7975
47.0119
45.8722
45.3896
45.4502
45.8254
46.2837
46.6934
46.9992
47.1929
47.2777
47.2724
47.2019
47.0974
46.9812
46.8708
46.7739
46.6954
46.6345
46.591
46.5608
46.5417
46.5286
46.5196
46.5106
46.5008
46.4876
46.4716
46.4512
46.4277
46.4002
46.3705
46.3376
46.3034
46.2666
46.2288
46.1889
46.1483
46.1059
46.063
46.0185
45.9738
45.9276
45.8815
45.8342
45.7871
45.7386
45.6904
45.6405
45.5902
45.5378
45.4841
45.4267
45.3663
45.3004
45.2299
45.1533
45.0735
44.9897
44.9054
44.8212
44.7419
44.6682
44.6045
44.5514
44.5115
44.4834
44.4704
44.4685
44.4746
44.4818
44.4896
44.4924
44.4896
44.4817
44.4707
44.448
44.4107
44.3553
44.2814
44.1899
44.0864
43.9784
43.8717
43.7762
43.6789
43.5992
43.5297
43.501
43.5097
43.5649
43.6475
43.7534
43.8713
44.0145
44.1694
44.3355
44.5018
44.6744
44.8384
44.9769
45.0836
45.1635
45.2259
45.2664
45.2834
45.2828
45.2655
45.2386
45.1828
45.1077
45.013
44.9174
44.8289
44.7521
44.6869
44.6415
44.6216
44.6331
44.672
44.729
44.7983
44.8637
44.9321
45.002
45.0786
45.1731
45.2717
45.3831
45.4859
45.5995
45.7173
45.8391
45.9616
46.1027
46.2288
46.3896
46.5329
46.6971
46.8623
47.0462
47.2139
47.4316
47.5922
47.8352
47.9565
48.1762
48.1859
48.3457
48.3996
48.5174
48.5647
48.7328
48.7489
48.9793
49.0584
49.3615
49.4374
49.8039
49.9068
50.2752
50.3017
50.6838
50.7133
51.0128
50.7812
50.9482
50.8873
51.0525
51.082
51.2807
51.3034
51.4931
51.4123
51.5304
51.2236
51.2273
50.908
50.8245
50.4495
50.2882
49.9067
49.7419
49.2809
49.1402
48.42
48.1448
47.1137
46.5348
45.2671
44.1979
42.8441
41.1685
39.6633
37.2586
34.9064
31.7717
28.322
51.3564
50.9373
48.9171
47.1014
45.9359
45.4337
45.4906
45.8753
46.3491
46.7723
47.0869
47.2841
47.3675
47.3574
47.2818
47.1738
47.0565
46.9475
46.8536
46.7792
46.7232
46.685
46.66
46.6457
46.6368
46.631
46.6245
46.6166
46.605
46.5901
46.5709
46.5485
46.5221
46.4934
46.4615
46.4281
46.392
46.3549
46.3154
46.2751
46.2327
46.1897
46.1449
46.0997
46.053
46.0063
45.9583
45.9105
45.8618
45.8138
45.7648
45.7164
45.667
45.6177
45.5669
45.5151
45.4598
45.4015
45.3391
45.2744
45.2067
45.1389
45.0722
45.0102
44.9527
44.9042
44.8666
44.8411
44.8248
44.8203
44.8234
44.83
44.8355
44.8406
44.8403
44.835
44.8262
44.8152
44.7948
44.7614
44.709
44.6352
44.542
44.4339
44.321
44.2068
44.1066
44.0062
43.9302
43.8629
43.8459
43.8577
43.9235
44.0087
44.1174
44.2311
44.3797
44.5343
44.7026
44.8666
45.048
45.2159
45.3589
45.4594
45.5313
45.5777
45.604
45.606
45.5963
45.5714
45.5375
45.4762
45.4043
45.3119
45.2284
45.1502
45.0954
45.0481
45.0349
45.0427
45.0907
45.1564
45.2476
45.3376
45.4336
45.519
45.6108
45.6957
45.7984
45.8931
46.0126
46.1106
46.2378
46.3538
46.4931
46.6199
46.7753
46.9067
47.0846
47.2338
47.4174
47.5909
47.7995
47.9696
48.2171
48.3706
48.6585
48.7535
49.0082
48.9577
49.1768
49.1854
49.3493
49.3451
49.5388
49.5266
49.7993
49.8373
50.183
50.211
50.6266
50.703
51.1543
51.1069
51.5919
51.5543
51.8948
51.5386
51.8022
51.6638
51.9142
51.8941
52.1527
52.155
52.3742
52.2922
52.4274
51.9843
52.0256
51.6351
51.5292
51.1134
50.9814
50.6389
50.4712
49.9286
49.7311
48.9314
48.7157
47.6179
46.9295
45.7702
44.6592
43.4789
41.9732
40.4946
38.3004
36.0347
33.2097
30.1023
51.3941
50.9711
48.9529
47.1528
46.0085
45.5291
45.6052
45.9976
46.4689
46.8823
47.1849
47.3695
47.4414
47.4225
47.3431
47.2353
47.1219
47.0183
46.9309
46.8628
46.813
46.78
46.7594
46.7482
46.7416
46.7372
46.7318
46.7245
46.7136
46.6994
46.681
46.6594
46.6341
46.6063
46.5755
46.5428
46.5077
46.4711
46.4325
46.3927
46.351
46.3081
46.2635
46.2182
46.1716
46.1248
46.0775
46.0306
45.9838
45.9377
45.8915
45.8462
45.8014
45.7577
45.7139
45.6703
45.6256
45.5798
45.5318
45.4823
45.4307
45.3795
45.3307
45.286
45.2456
45.213
45.1911
45.1787
45.1723
45.1738
45.1805
45.1879
45.1922
45.1931
45.188
45.1805
45.1726
45.1647
45.1502
45.1237
45.0774
45.0086
44.9174
44.8079
44.6912
44.5724
44.4688
44.3702
44.3005
44.2433
44.2441
44.2602
44.338
44.4235
44.5353
44.642
44.7976
44.9507
45.122
45.2816
45.4735
45.6424
45.7912
45.883
45.944
45.9638
45.979
45.9615
45.949
45.9175
45.8832
45.8199
45.7585
45.6749
45.6162
45.5549
45.5349
45.5118
45.5414
45.5779
45.6677
45.7603
45.8904
45.9999
46.1238
46.2235
46.3411
46.4325
46.5473
46.6432
46.7633
46.8603
46.9993
47.1165
47.2714
47.4093
47.5745
47.7215
47.9123
48.067
48.2639
48.4443
48.6728
48.8565
49.1205
49.279
49.5902
49.6895
49.9258
49.8529
50.1516
50.0907
50.3123
50.2432
50.484
50.4437
50.7638
50.795
51.1633
51.1655
51.6473
51.706
52.1982
52.1321
52.6535
52.5906
52.8941
52.4756
52.7776
52.6062
52.9626
52.9331
53.2252
53.2004
53.4375
53.383
53.416
52.9493
53.0185
52.5253
52.4255
52.0112
51.8899
51.5527
51.3256
50.8152
50.5804
49.7722
49.374
48.2818
47.551
46.4805
45.4327
44.2864
42.9175
41.3926
39.3575
37.1878
34.5925
31.7669
51.3275
50.8943
48.9116
47.1802
46.1068
45.6946
45.8102
46.2026
46.6475
47.0245
47.2923
47.4465
47.4958
47.4647
47.3834
47.2806
47.1761
47.0825
47.0052
46.9459
46.9036
46.8759
46.8588
46.8492
46.8433
46.8387
46.8331
46.8254
46.8145
46.8005
46.7829
46.7621
46.738
46.7113
46.6818
46.6503
46.6167
46.5814
46.5442
46.5053
46.4644
46.422
46.378
46.3333
46.2879
46.2427
46.1978
46.1538
46.1102
46.0674
46.0255
45.985
45.9459
45.909
45.8734
45.839
45.8047
45.7706
45.7368
45.7028
45.6675
45.6326
45.6008
45.5731
45.55
45.5345
45.5278
45.5269
45.5297
45.5372
45.5467
45.5532
45.5546
45.5506
45.5419
45.5338
45.5274
45.523
45.516
45.4985
45.4614
45.4017
45.3175
45.211
45.0937
44.9768
44.8741
44.7811
44.7167
44.6749
44.6919
44.7173
44.8037
44.8861
44.9953
45.0994
45.2654
45.4142
45.5861
45.7421
45.9467
46.1135
46.2694
46.3485
46.3986
46.392
46.3944
46.3607
46.3543
46.315
46.2868
46.2246
46.1816
46.1161
46.092
46.0571
46.0804
46.0929
46.172
46.2422
46.3772
46.4944
46.6574
46.7827
46.936
47.048
47.1921
47.2928
47.422
47.5159
47.6412
47.7406
47.8896
48.0197
48.1912
48.3431
48.5189
48.6816
48.8738
49.0368
49.2474
49.4318
49.6678
49.8723
50.1398
50.3302
50.6195
50.764
50.9419
50.89
51.2013
51.1048
51.3469
51.2866
51.5789
51.5261
51.8579
51.916
52.2509
52.2769
52.8016
52.9006
53.4086
53.3854
53.8393
53.814
53.9761
53.5704
53.9137
53.6732
54.1518
54.1012
54.4278
54.4362
54.6405
54.5762
54.5857
54.1194
54.1501
53.5811
53.4978
53.1127
52.9797
52.6977
52.4048
51.9993
51.4901
50.705
50.1307
49.1242
48.4017
47.3934
46.4278
45.2238
43.946
42.332
40.4443
38.3607
35.949
33.3511
51.1119
50.6739
48.7971
47.2138
46.2706
45.9621
46.1183
46.4874
46.8758
47.1892
47.4
47.508
47.5275
47.4839
47.4042
47.3114
47.2209
47.1417
47.0774
47.0289
46.9943
46.9713
46.9564
46.9469
46.94
46.9338
46.9267
46.9177
46.9062
46.8919
46.8746
46.8544
46.8312
46.8057
46.7779
46.7483
46.7167
46.6834
46.6482
46.6111
46.5718
46.5308
46.488
46.4449
46.4025
46.3611
46.3201
46.2797
46.2402
46.2022
46.1655
46.1307
46.0985
46.0694
46.0426
46.0181
45.9959
45.9761
45.9575
45.9378
45.9174
45.8988
45.884
45.8729
45.8673
45.8681
45.8747
45.8842
45.8955
45.9091
45.9217
45.929
45.9286
45.9198
45.9065
45.8971
45.8931
45.8942
45.8955
45.8888
45.865
45.8188
45.7453
45.6475
45.5344
45.4245
45.3235
45.2399
45.1833
45.1608
45.1844
45.214
45.301
45.3803
45.4857
45.6047
45.783
45.9324
46.1024
46.2626
46.4703
46.6279
46.7828
46.8537
46.8977
46.8736
46.8682
46.8269
46.8252
46.7852
46.7686
46.7126
46.6913
46.6508
46.6642
46.6661
46.7377
46.7935
46.9216
47.0324
47.2064
47.3506
47.5394
47.6811
47.8573
47.9819
48.1471
48.2637
48.4068
48.5058
48.6391
48.7493
48.9134
49.0565
49.2476
49.4178
49.6046
49.7817
49.9607
50.1332
50.3385
50.5372
50.7733
51.0131
51.2626
51.4921
51.7528
51.9344
52.0548
52.1183
52.335
52.2336
52.4661
52.462
52.7424
52.7512
53.0542
53.1896
53.4212
53.5439
54.0582
54.1963
54.7005
54.7865
55.1167
55.1065
55.2226
54.8641
55.1641
55.0317
55.4502
55.3748
55.7261
55.7944
55.9543
55.8975
55.7833
55.3336
55.3783
54.8001
54.6963
54.3844
54.1732
53.9742
53.5069
53.1871
52.4728
51.9079
51.0361
50.1477
49.3807
48.4804
47.5621
46.2768
45.036
43.3173
41.5585
39.5341
37.2765
34.8545
50.6404
50.2263
48.6163
47.3074
46.5668
46.3683
46.5321
46.8375
47.1347
47.3589
47.4951
47.5493
47.5387
47.486
47.4122
47.3335
47.2601
47.1973
47.1469
47.1086
47.0804
47.0603
47.0457
47.0347
47.0255
47.0167
47.0074
46.9968
46.9844
46.9697
46.9525
46.9328
46.9108
46.8867
46.8607
46.8331
46.804
46.7733
46.7409
46.7064
46.6695
46.6312
46.5919
46.5523
46.5133
46.4763
46.4415
46.4076
46.3739
46.3408
46.3095
46.2817
46.2581
46.2379
46.2207
46.2075
46.198
46.1918
46.1883
46.1855
46.1823
46.1797
46.18
46.1847
46.1943
46.2081
46.2257
46.245
46.2648
46.2842
46.2998
46.3075
46.3051
46.2927
46.2753
46.2629
46.2609
46.2683
46.2791
46.2846
46.2761
46.2466
46.1877
46.1024
46.0004
45.9039
45.8071
45.7383
45.6889
45.6801
45.7045
45.7427
45.8256
45.8986
46.0036
46.1504
46.3368
46.491
46.6568
46.8328
47.0283
47.1792
47.325
47.3948
47.4337
47.4139
47.3991
47.3633
47.3653
47.3386
47.3357
47.3002
47.299
47.2903
47.3388
47.3924
47.5038
47.6129
47.7742
47.9315
48.1253
48.2997
48.5032
48.6693
48.8616
49.0074
49.1854
49.3201
49.4827
49.5921
49.7446
49.8759
50.0517
50.2177
50.4175
50.5994
50.7926
50.9704
51.136
51.319
51.517
51.7312
51.9801
52.2596
52.4894
52.759
52.968
53.1616
53.2994
53.4332
53.5281
53.554
53.6958
53.7831
54.0295
54.0804
54.3198
54.5169
54.7105
54.96
55.3275
55.6396
56.074
56.1892
56.4097
56.4095
56.4954
56.2987
56.5738
56.577
56.8195
56.8403
57.0809
57.2098
57.2421
57.1712
57.0163
56.7403
56.6811
56.1586
56.0113
55.7356
55.4353
55.2648
54.6798
54.4227
53.5007
53.1362
52.0006
51.3371
50.5045
49.7317
48.7375
47.4283
46.19
44.3887
42.7103
40.7118
38.5888
36.2941
49.8769
49.556
48.422
47.5127
47.015
46.8972
47.0123
47.2054
47.3811
47.5021
47.5622
47.5685
47.5354
47.4798
47.4154
47.3521
47.2953
47.2472
47.2082
47.1773
47.1529
47.1335
47.1178
47.1045
47.0926
47.0814
47.07
47.0581
47.0449
47.03
47.013
46.9938
46.9728
46.95
46.9257
46.9006
46.8749
46.8479
46.8189
46.7877
46.7546
46.7199
46.6848
46.6508
46.6178
46.5865
46.5578
46.5317
46.5066
46.4811
46.4569
46.4378
46.4248
46.416
46.4104
46.4088
46.4121
46.4196
46.4289
46.4382
46.4489
46.4622
46.4783
46.4976
46.5199
46.5439
46.5693
46.5951
46.6208
46.6448
46.6623
46.6703
46.6668
46.6524
46.6326
46.6185
46.6184
46.6305
46.6475
46.6615
46.665
46.6511
46.6099
46.542
46.4563
46.3784
46.2878
46.2432
46.2047
46.2077
46.2297
46.2844
46.3569
46.4371
46.5523
46.7158
46.8934
47.0577
47.2294
47.4248
47.6029
47.7557
47.883
47.961
47.9948
47.9944
47.9744
47.9613
47.9618
47.965
47.9728
47.9776
47.9937
48.0319
48.1058
48.2167
48.3575
48.5176
48.696
48.8916
49.0868
49.2947
49.497
49.6891
49.8852
50.0666
50.2531
50.4315
50.6013
50.7493
50.9053
51.0712
51.2473
51.4437
51.6387
51.8467
52.0305
52.2162
52.375
52.5745
52.7636
53.0026
53.251
53.5453
53.7744
54.0959
54.2249
54.4794
54.5506
54.7245
54.7868
54.9232
55.0043
55.1828
55.2913
55.4228
55.6131
55.866
55.9957
56.429
56.6857
57.1792
57.3342
57.5304
57.646
57.7342
57.836
57.8877
58.0213
58.0975
58.1818
58.3619
58.4399
58.6126
58.544
58.5197
58.2173
58.2263
57.9017
57.6377
57.3709
57.1361
56.76
56.6117
55.8637
55.5326
54.564
54.2724
53.0791
52.6964
51.644
50.9786
49.8364
48.6288
47.3267
45.5086
43.862
41.8848
39.8668
37.6532
49.0416
48.8741
48.3206
47.8479
47.5646
47.4583
47.4653
47.5179
47.5698
47.5988
47.5982
47.5712
47.5262
47.4727
47.4183
47.3679
47.3235
47.2856
47.2535
47.2265
47.2033
47.1834
47.1661
47.1507
47.1368
47.1238
47.1111
47.0981
47.0844
47.0693
47.0524
47.0335
47.0133
46.9924
46.9709
46.9482
46.9249
46.9014
46.877
46.8501
46.8211
46.7922
46.7637
46.7355
46.7087
46.686
46.667
46.6499
46.6335
46.6176
46.6049
46.5976
46.5955
46.5974
46.6036
46.6145
46.6292
46.6471
46.6677
46.6895
46.711
46.733
46.7575
46.7851
46.8146
46.8444
46.8745
46.9043
46.9328
46.9571
46.974
46.9831
46.9832
46.973
46.9557
46.9425
46.9428
46.9554
46.9757
46.9951
47.007
47.0049
46.9788
46.9298
46.8664
46.8181
46.7479
46.7278
46.6981
46.7184