/*--------------------------------*- C++ -*----------------------------------*\
| =========                 |                                                 |
| \\      /  F ield         | OpenFOAM: The Open Source CFD Toolbox           |
|  \\    /   O peration     | Version:  2.4.0                                 |
|   \\  /    A nd           | Web:      www.OpenFOAM.org                      |
|    \\/     M anipulation  |                                                 |
\*---------------------------------------------------------------------------*/
FoamFile
{
    version     2.0;
    format      ascii;
    class       volScalarField;
    location    "1.32";
    object      pPrime2Mean;
}
// * * * * * * * * * * * * * * * * * * * * * * * * * * * * * * * * * * * * * //

dimensions      [0 4 -4 0 0 0 0];

internalField   nonuniform List<scalar> 
8800
(
489989
477630
464370
451222
438255
425475
412884
400482
388268
376242
364402
352747
341274
329977
318843
307853
296964
286092
275041
263194
490006
477632
464369
451222
438254
425475
412884
400482
388268
376242
364402
352748
341275
329978
318846
307859
296976
286117
275102
263395
490017
477631
464365
451220
438254
425474
412884
400482
388268
376242
364403
352749
341277
329982
318852
307871
296999
286165
275214
263785
490025
477631
464362
451217
438253
425474
412884
400482
388268
376242
364403
352750
341279
329987
318861
307888
297032
286233
275369
264239
490032
477631
464359
451215
438252
425474
412884
400482
388268
376242
364404
352752
341283
329993
318873
307909
297074
286318
275556
264709
490038
477631
464357
451213
438251
425474
412884
400482
388268
376243
364405
352754
341287
330000
318886
307935
297123
286416
275761
265168
490042
477632
464356
451212
438250
425474
412884
400482
388268
376243
364406
352756
341291
330008
318902
307964
297178
286522
275975
265603
490045
477632
464355
451210
438250
425474
412884
400482
388269
376244
364408
352759
341296
330018
318919
307996
297237
286634
276191
266009
490047
477633
464354
451210
438249
425474
412884
400482
388269
376245
364409
352762
341302
330027
318937
308029
297298
286748
276403
266383
490048
477633
464354
451209
438249
425474
412884
400482
388269
376246
364411
352765
341307
330037
318956
308063
297360
286861
276605
266724
490048
477633
464354
451209
438249
425474
412885
400483
388270
376246
364413
352768
341313
330048
318974
308096
297422
286970
276796
267031
490047
477633
464354
451210
438249
425474
412885
400483
388271
376247
364414
352771
341318
330058
318993
308129
297480
287074
276972
267305
490045
477633
464355
451211
438250
425474
412885
400483
388271
376248
364416
352774
341324
330067
319010
308160
297536
287170
277132
267547
490042
477632
464356
451212
438251
425474
412885
400484
388272
376249
364418
352777
341329
330076
319026
308189
297587
287257
277273
267757
490038
477632
464358
451214
438251
425474
412885
400484
388272
376250
364419
352779
341333
330084
319040
308215
297632
287333
277396
267937
490032
477631
464360
451216
438252
425475
412885
400484
388273
376251
364421
352781
341337
330091
319053
308237
297670
287398
277499
268085
490025
477631
464362
451218
438253
425475
412886
400485
388274
376252
364422
352783
341340
330097
319064
308256
297702
287451
277582
268204
490017
477631
464366
451220
438254
425476
412886
400485
388274
376253
364423
352785
341343
330102
319072
308270
297726
287492
277644
268292
490006
477632
464369
451222
438255
425476
412886
400486
388274
376253
364423
352786
341344
330105
319077
308279
297743
287519
277686
268351
489989
477630
464370
451223
438256
425476
412886
400486
388274
376253
364423
352786
341345
330106
319080
308284
297751
287532
277707
268379
252459
249567
247361
245453
243685
242002
240379
238802
237259
235744
234253
232780
231323
229879
228448
227026
225613
224207
222808
221414
220027
218646
217270
215900
214535
213175
211820
210470
209125
207784
206450
205121
203798
202482
201172
199869
198571
197280
195994
194714
193439
192168
190901
189638
188379
187123
185871
184623
183379
182140
180904
179671
178442
177216
175994
174776
173562
172353
171148
169947
168750
167556
166365
165177
163992
162812
161637
160467
159302
158142
156987
155836
154689
153545
152406
151270
150139
149012
147891
146775
145665
144562
143464
142372
141285
140202
139123
138047
136975
135906
134840
133777
132716
131658
130602
129548
128497
127449
126404
125363
124326
123294
122267
121246
120231
119222
118219
117224
116233
115249
114270
113297
112328
111364
110404
109449
108498
107551
106608
105669
104734
103804
102878
101957
101038
100124
99212.7
98306
97401
96500
95600.5
94704.2
93809.7
92918
92028.6
91142.4
90259.3
89380.1
88504.7
87634
86767.7
85906.7
85050.4
84199.7
83353.8
82513.1
81677.5
80846.8
80020.3
79198.1
78379.5
77564.5
76752.5
75943.6
75137.6
74334.5
73534.2
72737.6
71944.3
71155
70369.6
69589.6
68813.6
68044.5
67279.8
66522.2
65769.1
65024
64284
63552.1
62825
62106.5
61391.4
60686.2
59981.5
59289.3
58593.7
57913
57226.3
56554.7
55877.6
55213.9
54545.1
53886.1
53222.6
52563.8
51900.5
51238.2
50567.8
49895.4
49209.7
48516.1
47803.2
47073.2
46313.4
45522.2
44680.7
43772.4
42794.1
41610.2
254518
251437
248925
246762
244804
242975
241234
239557
237931
236344
234789
233261
231755
230268
228798
227342
225897
224463
223039
221623
220215
218816
217423
216038
214660
213287
211921
210561
209207
207859
206517
205182
203853
202531
201216
199907
198605
197310
196020
194736
193457
192182
190912
189647
188385
187128
185874
184625
183379
182138
180901
179667
178438
177211
175989
174771
173557
172348
171143
169942
168745
167551
166360
165173
163990
162810
161635
160465
159301
158141
156985
155834
154687
153543
152404
151269
150138
149012
147891
146776
145666
144563
143466
142374
141287
140204
139125
138049
136977
135908
134842
133778
132717
131658
130602
129548
128497
127450
126405
125365
124329
123298
122273
121253
120239
119231
118229
117234
116244
115260
114282
113308
112339
111374
110414
109458
108506
107559
106616
105677
104743
103814
102888
101968
101050
100138
99227.7
98321.7
97418
96517.5
95618.9
94722.8
93828.8
92937.3
92048.3
91162.5
90280
89401.5
88527.1
87657.5
86792.4
85932.6
85077.8
84228.3
83383.8
82544.4
81710.1
80880.5
80055.1
79233.5
78416
77601.6
76790
75981.2
75175
74371.1
73570
72771.8
71976.8
71185.3
70397.8
69615.2
68836.8
68064.4
67296.6
66534.6
65777.4
65026.9
64281.4
63542.7
62808.5
62082
61358.3
60644
59929.2
59226.5
58520.2
57826.5
57128.5
56441.5
55751.2
55069.5
54385.6
53705.8
53024.8
52343.8
51659.3
50972.4
50278.2
49576.8
48863.8
48134.5
47386.9
46611
45805.3
44947.2
44052
43022.3
41957.6
40742.7
255947
252890
250261
247945
245847
243896
242051
240286
238582
236927
235312
233731
232178
230649
229141
227651
226176
224715
223266
221828
220400
218982
217574
216174
214782
213397
212021
210651
209288
207932
206583
205241
203907
202579
201259
199946
198639
197339
196045
194756
193474
192196
190923
189655
188391
187131
185876
184625
183378
182136
180897
179663
178433
177206
175984
174766
173552
172342
171137
169936
168739
167546
166356
165170
163987
162809
161634
160465
159300
158140
156984
155833
154686
153543
152403
151268
150138
149012
147891
146777
145668
144565
143468
142377
141289
140206
139127
138052
136979
135910
134844
133780
132719
131660
130603
129550
128499
127452
126409
125370
124336
123306
122282
121263
120251
119244
118243
117249
116259
115276
114297
113322
112353
111388
110427
109470
108518
107571
106628
105690
104757
103828
102904
101984
101068
100156
99247.3
98342.1
97439.4
96539
95641
94744.9
93851.2
92959.6
92070.9
91185.3
90303.2
89425.3
88551.7
87683.1
86819.4
85961
85107.9
84260
83417
82579.1
81746.2
80917.4
80092.9
79272
78455.3
77641.4
76830.1
76021.4
75214.7
74410
73607.7
72807.9
72010.9
71217.1
70427.5
69642.4
68861.6
68086
67315.1
66548.8
65787.7
65032
64280.7
63535.2
62793.4
62058.9
61325.8
60601.9
59877.3
59162.6
58446.8
57739.1
57030.9
56328
55625.8
54925.6
54227.2
53527.4
52828.7
52125.8
51421.9
50709.4
49995
49264
48527.6
47763.4
46988.9
46166.6
45335.2
44409
43490.2
42398.9
41292.4
40114.3
257035
254059
251397
248996
246799
244754
242822
240978
239204
237487
235816
234185
232588
231019
229474
227952
226447
224960
223487
222028
220581
219145
217721
216306
214901
213505
212118
210739
209367
208004
206648
205300
203959
202627
201301
199983
198672
197367
196069
194777
193490
192209
190934
189663
188396
187135
185878
184625
183377
182133
180894
179659
178428
177201
175978
174760
173546
172337
171132
169931
168734
167541
166352
165166
163985
162807
161634
160465
159300
158140
156985
155833
154686
153543
152403
151269
150138
149012
147892
146778
145670
144567
143471
142379
141292
140209
139130
138055
136983
135914
134847
133783
132721
131662
130606
129553
128503
127457
126415
125378
124345
123317
122295
121278
120267
119261
118261
117267
116278
115294
114315
113340
112370
111404
110442
109485
108533
107585
106643
105706
104773
103845
102922
102003
101088
100177
99269.6
98365
97463.2
96562.9
95665.2
94768.8
93875.1
92983.3
92094.7
91209.1
90327.5
89449.9
88577.3
87709.4
86847
85989.9
85138.5
84292.2
83450.9
82614.5
81783.2
80955.3
80131.9
79311.8
78495.9
77682.3
76871.4
76062.4
75255.4
74449.4
73645.7
72843.8
72044.5
71248.4
70456.9
69668.9
68885.8
68107.2
67333.4
66563.1
65798.2
65037.3
64280.7
63528.1
62779.1
62035.9
61294
60559.1
59825.7
59098.6
58373.6
57652.4
56934
56216.2
55501.6
54784.5
54070.8
53351.7
52636.3
51910.9
51190.6
50451.6
49720.6
48958.7
48206.2
47403.2
46615.6
45743.8
44899.8
43923.1
42973.8
41887.3
40779.2
39644.9
257911
255017
252361
249920
247659
245543
243540
241629
239794
238020
236299
234621
232982
231375
229796
228242
226710
225197
223701
222221
220756
219303
217864
216435
215018
213611
212213
210825
209445
208075
206712
205358
204012
202674
201343
200020
198704
197395
196093
194797
193507
192223
190944
189671
188402
187139
185880
184626
183376
182132
180891
179655
178424
177197
175974
174755
173542
172332
171127
169926
168730
167537
166349
165164
163983
162807
161634
160466
159302
158142
156986
155835
154687
153543
152404
151269
150138
149013
147893
146779
145671
144569
143473
142382
141295
140212
139134
138058
136987
135918
134851
133787
132726
131667
130611
129559
128510
127465
126425
125389
124358
123332
122311
121296
120286
119281
118282
117288
116299
115315
114335
113359
112388
111421
110459
109502
108550
107602
106660
105723
104791
103864
102942
102023
101109
100199
99292.2
98388.2
97486.8
96586.6
95688.8
94792.2
93898.4
93006.4
92117.9
91232.3
90351.1
89473.8
88602.1
87734.6
86873.6
86017.4
85167.7
84322.5
83483.5
82648.4
81819
80992.3
80170.2
79350.9
78536.1
77722
76911.8
76102.3
75294.9
74487.4
73682.5
72877.9
72076.6
71277.6
70484.3
69692.8
68907.9
68126.1
67349.6
66575.9
65807.4
65041.5
64279.7
63520.1
62764.2
62011.5
61262.2
60516
59774.2
59035.4
58300.9
57567.3
56838.4
56106.3
55379.6
54645.4
53918.4
53178.6
52450.4
51700.1
50967.2
50200.9
49457.3
48663.8
47898.7
47061.4
46258.1
45354.6
44484.5
43498.4
42517.5
41464.9
40379.2
39277.5
258649
255824
253189
250730
248429
246260
244202
242235
240346
238523
236756
235036
233358
231716
230105
228522
226963
225426
223909
222409
220926
219457
218003
216561
215132
213714
212307
210910
209522
208145
206776
205415
204064
202720
201385
200057
198737
197424
196118
194818
193525
192238
190956
189680
188410
187144
185884
184628
183377
182131
180890
179654
178422
177194
175971
174753
173539
172330
171125
169924
168728
167536
166348
165164
163984
162808
161636
160468
159304
158144
156988
155836
154688
153544
152404
151269
150138
149013
147893
146780
145672
144571
143475
142384
141298
140216
139137
138063
136991
135923
134857
133793
132733
131674
130619
129567
128520
127476
126437
125403
124374
123349
122330
121316
120307
119302
118304
117310
116321
115336
114356
113379
112408
111440
110478
109519
108567
107619
106677
105740
104809
103882
102960
102042
101129
100219
99312.8
98408.9
97507.9
96607.7
95709.8
94813.1
93919.1
93026.7
92138.2
91252.6
90371.7
89494.6
88623.3
87756.3
86896.3
86041.2
85193
84349.4
83512.4
82678.7
81851
81025.5
80204.8
79386.4
78572.5
77757.9
76948.3
76137.7
75330.2
74521.1
73715.6
72908.3
72105.7
71303.8
70508.5
69713.3
68926.7
68141.5
67362.8
66585.1
65813.9
65043.1
64276.5
63509.3
62747.5
61985
61228.7
60472
59722.2
58971.7
58229
57482.2
56744.7
55997.2
55260.2
54508.2
53770.1
53010.4
52269.4
51498.9
50750.9
49964.6
49203.5
48390.3
47603.5
46748.9
45919.1
45006.9
44109.1
43135.3
42143.7
41118.4
40055.1
38974.7
259283
256516
253903
251439
249113
246907
244805
242794
240860
238994
237186
235428
233715
232040
230400
228789
227206
225646
224108
222590
221090
219606
218138
216684
215243
213815
212398
210993
209598
208213
206838
205472
204115
202767
201427
200095
198770
197453
196144
194841
193544
192254
190970
189691
188419
187151
185889
184632
183380
182134
180892
179654
178422
177194
175971
174753
173539
172329
171125
169924
168728
167536
166349
165165
163985
162810
161638
160470
159307
158146
156990
155838
154689
153544
152404
151268
150138
149013
147893
146780
145673
144572
143476
142386
141300
140219
139141
138067
136997
135930
134865
133802
132742
131684
130629
129578
128531
127488
126450
125418
124390
123368
122350
121336
120328
119324
118326
117332
116343
115357
114376
113399
112426
111458
110495
109536
108583
107635
106693
105756
104825
103897
102975
102057
101144
100234
99328.8
98425
97524.2
96624
95726.1
94829.1
93934.7
93042
92153.3
91267.7
90386.8
89510
88638.7
87772.6
86913.5
86059.8
85213.2
84371.5
83536.3
82703.9
81877.4
81052.7
80233.1
79415.1
78601.7
77786.7
76977.4
76166.3
75358.2
74548.5
73742.2
72932.6
72128.5
71324.5
70526.6
69728.5
68939.6
68151.7
67370.5
66589.5
65815.1
65039.9
64268.6
63494.8
62726.3
61956
61191.4
60425.8
59667.1
58906.9
58155.1
57397.7
56650.1
55890.7
55141.1
54376.4
53623
52850.7
52091.7
51309.7
50542.2
49745
48962.6
48140.2
47331.2
46469.2
45618.2
44706.3
43792.9
42833.8
41843.4
40832.8
39783.3
38717
259834
257114
254525
252061
249720
247487
245353
243305
241334
239431
237587
235795
234050
232346
230678
229043
227436
225856
224299
222763
221247
219749
218268
216802
215350
213912
212486
211073
209671
208280
206898
205527
204165
202812
201467
200131
198803
197483
196169
194863
193564
192271
190985
189704
188429
187160
185897
184639
183386
182138
180895
179657
178424
177196
175973
174754
173540
172331
171126
169926
168730
167538
166350
165167
163987
162811
161640
160472
159308
158147
156991
155838
154689
153544
152403
151267
150137
149012
147893
146780
145673
144573
143477
142388
141302
140221
139145
138072
137003
135937
134873
133811
132752
131694
130640
129589
128542
127500
126464
125432
124406
123385
122368
121355
120348
119345
118346
117352
116362
115376
114394
113416
112442
111473
110510
109551
108597
107649
106706
105768
104836
103908
102985
102066
101153
100243
99338
98434.2
97533.3
96632.9
95734.8
94837.6
93943.1
93050.1
92161.2
91275.4
90394.8
89518.4
88647.6
87782.6
86924.5
86072.4
85227.3
84387.9
83553.6
82723
81896.9
81072.7
80253.4
79435.7
78622.5
77806.5
76997.3
76186.2
75377.1
74567.7
73760.2
72949.7
72143.7
71337.9
70536.8
69737
68944.9
68155.2
67370.8
66588.1
65810.1
65031.1
64254.7
63476.2
62700.7
61924.5
61150.9
60377.6
59610
58841.7
58080.1
57315.4
56556.1
55788.2
55025.4
54251
53481.6
52700
51924.6
51134.1
50350.1
49545.5
48746.7
47917.5
47092.6
46226.6
45362.1
44455.3
43532.9
42583.9
41595.5
40590.5
39550.1
38495.3
260319
257636
255067
252608
250257
248006
245846
243769
241767
239832
237957
236136
234363
232632
230940
229281
227654
226054
224479
222927
221396
219885
218391
216914
215452
214005
212571
211150
209741
208343
206956
205580
204213
202855
201507
200167
198835
197512
196195
194886
193584
192289
191000
189718
188441
187171
185906
184646
183392
182144
180900
179662
178428
177200
175976
174757
173543
172333
171128
169928
168731
167539
166351
165167
163988
162812
161640
160471
159307
158146
156989
155836
154687
153542
152401
151265
150135
149010
147892
146779
145672
144572
143477
142388
141303
140223
139148
138076
137008
135943
134881
133820
132761
131704
130650
129599
128553
127511
126475
125445
124419
123399
122383
121371
120364
119361
118362
117367
116377
115389
114407
113428
112453
111484
110520
109560
108606
107657
106714
105775
104841
103912
102988
102068
101154
100244
99338.5
98434.7
97533.4
96632.8
95734.5
94837.3
93942.9
93049.9
92161.2
91275.8
90395.7
89520.1
88650.4
87786.4
86929.6
86078.8
85235.4
84397.5
83564.2
82734.7
81909
81084.9
80265
79447.7
78633.3
77817.1
77008.2
76196.2
75386.5
74578.2
73769
72958.7
72150.2
71344.7
70539
69739.6
68942.6
68152.4
67363.6
66580.8
65798.6
65018.1
64234.8
63453.2
62669.7
61889
61107.6
60327.7
59551.6
58778.1
58005.7
57237.7
56465.3
55692.3
54916.4
54134.4
53351.4
52561.2
51773.6
50977.1
50180.2
49370.7
48559.2
47726.5
46889.4
46022.5
45147.7
44246.7
43316.9
42371.8
41385.2
40382.6
39350.6
38305.9
260747
258093
255542
253088
250732
248467
246288
244187
242160
240198
238297
236450
234651
232897
231182
229503
227856
226239
224648
223081
221536
220012
218507
217020
215548
214092
212651
211223
209807
208404
207012
205630
204259
202897
201545
200201
198866
197540
196221
194909
193605
192307
191016
189732
188454
187182
185915
184655
183400
182150
180905
179666
178432
177203
175979
174760
173545
172335
171129
169928
168732
167539
166351
165166
163986
162810
161637
160468
159304
158142
156985
155832
154682
153537
152397
151262
150132
149007
147888
146776
145669
144569
143475
142386
141303
140224
139149
138079
137013
135949
134888
133827
132769
131712
130658
129607
128561
127519
126484
125453
124428
123408
122393
121381
120374
119371
118372
117377
116385
115397
114413
113433
112458
111488
110523
109563
108608
107659
106715
105775
104840
103909
102983
102062
101147
100236
99329.5
98425.7
97524.3
96624
95725.5
94828.4
93934.2
93042
92154.2
91269.9
90391
89516.9
88648.6
87785.9
86930.3
86080.4
85238.2
84401
83568.5
82739.6
81913.9
81088.5
80268.6
79451.3
78634.1
77819.9
77009.3
76197.6
75387.4
74580.3
73768.4
72959.1
72147.9
71345.1
70533
69736.3
68931.7
68144.7
67349.2
66568.9
65780.2
65000.7
64208.9
63426.3
62634.6
61850.2
61061.6
60277.8
59493
58718.3
57934.3
57167.1
56382
55605.6
54818.3
54028.7
53236.6
52440.4
51642.7
50841.4
50033.4
49222
48398.9
47565.7
46716.2
45850.8
44965.8
44067.2
43132.1
42186.9
41203.6
40204.4
39181.2
38146.1
261122
258493
255957
253509
251149
248875
246680
244561
242512
240529
238605
236735
234915
233140
231405
229707
228043
226410
224804
223223
221666
220131
218615
217118
215638
214174
212726
211291
209869
208461
207063
205677
204302
202936
201581
200234
198896
197566
196245
194931
193624
192325
191032
189746
188466
187193
185925
184663
183407
182156
180910
179670
178436
177206
175981
174761
173546
172335
171129
169927
168730
167537
166348
165163
163982
162805
161632
160463
159298
158137
156979
155826
154676
153531
152392
151257
150127
149002
147884
146771
145665
144565
143471
142382
141300
140222
139149
138080
137016
135953
134892
133832
132773
131716
130662
129610
128564
127523
126487
125457
124432
123412
122397
121386
120378
119374
118375
117378
116386
115397
114413
113432
112457
111485
110520
109559
108604
107654
106709
105768
104832
103899
102972
102048
101131
100219
99312
98407.4
97506.2
96606.2
95708.2
94811.8
93918.6
93027.7
92141.6
91258.9
90382
89509.6
88643
87781.9
86927.2
86078.3
85236.4
84399
83567.2
82737
81911.1
81084.5
80263.6
79445.8
78626.5
77814.3
77000.6
76191.1
75380.4
74573.6
73760.1
72952.2
72138.5
71336.3
70521
69725.2
68913.5
68129.7
67325.9
66548.7
65753.7
64977.6
64176
63394.1
62595.1
61809.6
61015.6
60229
59437.4
58661.2
57867.9
57102.9
56307.5
55527.7
54732.8
53935.6
53136.2
52335.5
51529
50729.1
49910.9
49099.7
48260.8
47429.6
46568.3
45703.7
44809.4
43909.1
42972
42026.9
41047.6
40053.4
39039.4
38013.5
261451
258841
256317
253875
251514
249232
247026
244892
242826
240824
238881
236992
235153
233359
231608
229893
228214
226566
224946
223353
221785
220239
218714
217208
215721
214250
212794
211354
209927
208513
207111
205721
204342
202973
201614
200264
198924
197592
196268
194952
193643
192342
191047
189759
188478
187203
185934
184670
183413
182161
180914
179673
178438
177207
175981
174760
173544
172333
171126
169924
168726
167532
166343
165157
163976
162799
161625
160456
159291
158129
156972
155818
154669
153525
152385
151251
150121
148997
147878
146765
145659
144559
143465
142377
141295
140219
139147
138079
137016
135953
134893
133831
132773
131715
130661
129609
128563
127521
126486
125454
124430
123410
122395
121383
120375
119370
118370
117373
116380
115391
114407
113425
112449
111477
110511
109550
108594
107643
106697
105755
104818
103883
102954
102028
101109
100196
99287.6
98382.3
97481.1
96581.1
95684.5
94789
93897.6
93008.5
92124.4
91243.4
90368.6
89497.5
88632.9
87773.2
86920.2
86072.3
85231.1
84392.4
83561.5
82728.7
81901.6
81072.4
80251.5
79431.4
78611.1
77799.8
76985.6
76177.2
75366.5
74560.5
73747.1
72937.9
72124.9
71321.4
70503.7
69705.9
68892.2
68107.5
67299
66520.2
65722.1
64947.8
64141.5
63358
62555.2
61766
60969.8
60180.8
59385.6
58605.2
57809.7
57042
56238.7
55459.3
54656.9
53856.4
53050.1
52246.4
51435.1
50631.4
49802.9
48991.7
48143.1
47310.8
46441.8
45573.9
44673.3
43771.4
42834.1
41891
40916.1
39928
38923.2
37905.9
261737
259143
256630
254192
251830
249543
247327
245181
243101
241084
239125
237220
235365
233556
231789
230060
228367
226706
225075
223471
221892
220337
218804
217290
215796
214318
212857
211411
209979
208561
207155
205761
204379
203007
201645
200292
198949
197615
196289
194971
193660
192357
191061
189771
188488
187211
185941
184676
183417
182164
180917
179675
178438
177206
175980
174758
173541
172329
171122
169919
168720
167526
166336
165150
163969
162791
161618
160448
159283
158121
156964
155811
154662
153518
152379
151245
150116
148992
147873
146760
145653
144552
143458
142370
141289
140213
139142
138075
137011
135949
134888
133826
132767
131709
130655
129602
128557
127515
126479
125447
124422
123401
122386
121373
120365
119359
118358
117361
116368
115379
114395
113413
112437
111464
110498
109536
108580
107627
106681
105737
104799
103862
102931
102004
101084
100168
99259.4
98353.1
97451.9
96552.2
95656.9
94762.6
93873.4
92985.7
92103.7
91224.3
90351.4
89481.3
88618.3
87759.9
86908.5
86061.4
85221.3
84381.7
83550.6
82714.5
81885.4
81053.3
80231.6
79409.2
78591.6
77778
76965.3
76155.4
75345.7
74540.4
73728.8
72916.9
72108
71300.5
70482.9
69679.5
68866.9
68076.6
67267.7
66484
65687.1
64910.9
64102.6
63323.2
62515.4
61724.2
60923.5
60129.8
59333.3
58549.5
57752.3
56982.4
56177.2
55398.7
54590.3
53786.8
52976.1
52169.1
51352.9
50540.1
49712.5
48895.2
48041.5
47203.9
46331.5
45458.4
44556.7
43654.1
42717.5
41778
40807.5
39826.3
38830
37820.8
261983
259401
256896
254462
252101
249809
247586
245431
243340
241310
239338
237420
235551
233728
231948
230207
228502
226830
225188
223575
221988
220424
218883
217363
215862
214379
212913
211462
210026
208604
207194
205797
204412
203037
201672
200317
198972
197636
196307
194987
193675
192370
191072
189781
188497
187219
185946
184680
183420
182166
180917
179674
178436
177204
175976
174754
173537
172324
171116
169912
168713
167519
166328
165142
163961
162783
161609
160440
159275
158113
156956
155804
154655
153512
152374
151240
150111
148986
147867
146754
145646
144545
143450
142362
141280
140205
139134
138067
137002
135939
134877
133815
132756
131698
130643
129591
128546
127503
126467
125434
124410
123388
122373
121359
120351
119344
118343
117345
116353
115363
114379
113398
112421
111448
110481
109518
108562
107609
106661
105716
104776
103838
102906
101977
101057
100140
99230.1
98323
97421.7
96522.4
95628.1
94735.4
93847.6
92961.5
92081.1
91203
90331.2
89462.2
88600.8
87743.5
86893.9
86047.3
85207.7
84367
83534.2
82695.8
81864
81029.1
80207.3
79380.1
78566.1
77752.9
76941.1
76129.4
75321.3
74513.8
73705.1
72888.7
72087.2
71274
70458.9
69652.6
68841.8
68038.4
67234.2
66443.5
65645.6
64868.3
64063.6
63278.6
62473.1
61681.5
60875.5
60075.7
59282.4
58492.5
57701.1
56929.1
56118.5
55342
54532.3
53725.6
52913.3
52100.6
51283
50462.7
49632.2
48803
47953.3
47107.2
46236
45357.5
44458.8
43555.6
42621.1
41685.2
40719.7
39745.9
38756.5
37754.5
262192
259620
257121
254690
252327
250033
247805
245642
243542
241503
239520
237590
235711
233877
232086
230334
228619
226937
225287
223665
222070
220500
218953
217427
215920
214432
212962
211507
210067
208641
207229
205829
204440
203063
201696
200339
198992
197653
196323
195002
193688
192381
191082
189789
188503
187224
185950
184683
183421
182166
180916
179672
178433
177200
175972
174749
173531
172318
171109
169905
168706
167511
166321
165135
163953
162775
161601
160432
159267
158106
156949
155797
154649
153506
152368
151235
150106
148981
147861
146747
145639
144537
143442
142353
141271
140195
139123
138055
136989
135925
134862
133801
132742
131683
130628
129577
128531
127488
126451
125420
124395
123374
122358
121344
120334
119327
118326
117327
116335
115345
114361
113379
112403
111430
110462
109499
108542
107589
106640
105694
104753
103813
102880
101951
101029
100112
99201.8
98294.4
97393
96493.8
95600.1
94708.5
93821.3
92936.9
92057.5
91180.9
90310.1
89442.8
88582.5
87726.5
86877.8
86030.5
85190.5
84348.2
83512.7
82672
81839.7
81004.7
80178.1
79350.3
78538.2
77721.9
76913
76100.8
75291.8
74484.2
73679.7
72861.2
72060.9
71240.9
70435.6
69620.1
68806.9
67997.3
67203
66407.9
65608.8
64823.3
64020
63226.9
62428.7
61630.3
60827
60023.8
59236.7
58441.8
57653.9
56870.2
56066.7
55288.1
54480.1
53672.6
52861.8
52044.2
51221
50393
49561.6
48723.7
47875.5
47021.8
46157.7
45273.8
44380.3
43474.8
42543.9
41610
40651
39683.2
38699.1
37704.1
262365
259801
257306
254875
252512
250215
247984
245816
243709
241662
239671
237733
235844
234001
232200
230440
228716
227027
225369
223741
222140
220564
219011
217480
215969
214477
213003
211545
210102
208673
207258
205855
204465
203085
201716
200357
199008
197668
196336
195013
193697
192389
191089
189795
188507
187227
185952
184683
183421
182164
180914
179669
178429
177195
175967
174743
173525
172312
171103
169899
168699
167504
166314
165127
163945
162768
161594
160425
159260
158099
156943
155791
154643
153500
152363
151229
150100
148976
147856
146741
145633
144530
143434
142344
141261
140183
139109
138041
136973
135908
134844
133783
132724
131666
130611
129560
128514
127471
126434
125404
124379
123358
122342
121328
120318
119311
118308
117310
116316
115327
114342
113360
112383
111410
110442
109480
108522
107570
106620
105674
104730
103791
102857
101927
101005
100089
99177.3
98270.5
97367.8
96469.3
95574.9
94684.3
93796.7
92913.7
92034.1
91159.3
90288.7
89423.2
88563.2
87708.4
86858.6
86011.2
85168.7
84325
83486.4
82645
81811
80976.2
80151.5
79324.4
78507.7
77691.8
76882.7
76069.3
75263.1
74454.5
73648.6
72832
72032.5
71208.6
70402.1
69577.3
68774.6
67962.2
67170
66371.9
65569.5
64771.1
63974
63178.9
62382.7
61575
60782.2
59979.7
59191.6
58396
57613.5
56816.6
56024.5
55231.8
54433
53624.9
52814.5
51992.5
51166.8
50335.8
49498.3
48655.9
47811
46954.2
46092.9
45209.5
44319.7
43412.1
42485.8
41551.7
40599.2
39634.6
38655.2
37666.5
262503
259945
257451
255021
252658
250359
248125
245953
243842
241789
239792
237846
235950
234100
232293
230525
228795
227099
225436
223802
222196
220615
219058
217523
216009
214514
213036
211575
210129
208698
207281
205876
204484
203102
201732
200371
199020
197679
196346
195021
193705
192395
191094
189799
188510
187228
185953
184683
183420
182163
180911
179666
178426
177191
175962
174739
173520
172306
171098
169893
168694
167499
166308
165121
163939
162761
161588
160418
159253
158093
156936
155785
154637
153495
152357
151224
150095
148971
147851
146736
145627
144524
143427
142336
141250
140171
139096
138026
136957
135891
134827
133766
132706
131649
130594
129544
128497
127456
126419
125389
124363
123343
122326
121313
120303
119296
118292
117294
116299
115310
114324
113343
112365
111393
110424
109462
108504
107553
106602
105656
104712
103773
102838
101909
100986
100070
99158
98251.7
97347.8
96449.9
95553.9
94663.6
93775.1
92893
92012.6
91138.9
90268.1
89403.9
88542.8
87688.4
86836.3
85988.6
85142.8
84298.7
83457
82617.7
81781.9
80951.3
80123
79296.9
78479.7
77662.4
76850
76039.7
75233.7
74421.9
73615.8
72802.3
71997.3
71171.9
70366.8
69545.5
68746.8
67924.4
67134.9
66326.1
65525.7
64731
63934.7
63130.8
62335.4
61526.9
60739.2
59935.5
59152.8
58360.1
57576
56769.8
55985.6
55181.4
54388.5
53579.6
52776.4
51945.8
51121
50285.8
49449.1
48606.6
47760
46902.8
46042.8
45164.1
44273
43366.7
42443.1
41509.3
40560.5
39597.8
38622.8
37638.7
262606
260052
257558
255129
252765
250466
248230
246056
243942
241885
239882
237932
236030
234174
232362
230589
228854
227154
225486
223848
222238
220654
219094
217556
216039
214541
213061
211598
210150
208717
207298
205892
204498
203115
201743
200381
199029
197687
196353
195027
193710
192399
191097
189801
188512
187229
185953
184683
183419
182162
180910
179664
178424
177189
175959
174735
173517
172303
171094
169889
168689
167494
166303
165117
163934
162756
161583
160413
159248
158087
156931
155780
154633
153490
152353
151220
150091
148966
147846
146731
145622
144519
143421
142329
141242
140162
139084
138013
136942
135877
134812
133752
132690
131635
130580
129531
128483
127444
126406
125377
124350
123332
122313
121302
120290
119285
118280
117282
116286
115297
114309
113329
112350
111379
110410
109449
108490
107539
106588
105644
104699
103763
102826
101898
100974
100058
99144.6
98239.1
97334.2
96436.5
95538.7
94648.3
93758.1
92875.8
91994
91120.9
90249
89385.4
88522.7
87668.1
86813.8
85965.5
85116.6
84272.9
83428.9
82593.3
81754.9
80927.4
80096.7
79274.1
78451.9
77636.3
76821
76012.1
75201.7
74391.7
73584.7
72771.7
71961.7
71141.2
70334.5
69512.9
68716
67891
67100.6
66284.2
65490.9
64690.3
63892.1
63089.2
62295
61487.7
60702.1
59898.3
59118.4
58322.4
57538.3
56732.3
55948.9
55143.6
54354.2
53541.8
52739.3
51904.5
51086.3
50246.3
49411
48569.6
47722.6
46872.2
46008.3
45134.3
44238.2
43337.1
42413.4
41480.4
40532.6
39571.9
38599.8
37618.5
262672
260120
257629
255201
252838
250538
248301
246125
244008
241948
239942