/*--------------------------------*- C++ -*----------------------------------*\
| =========                 |                                                 |
| \\      /  F ield         | OpenFOAM: The Open Source CFD Toolbox           |
|  \\    /   O peration     | Version:  2.4.0                                 |
|   \\  /    A nd           | Web:      www.OpenFOAM.org                      |
|    \\/     M anipulation  |                                                 |
\*---------------------------------------------------------------------------*/
FoamFile
{
    version     2.0;
    format      ascii;
    class       volVectorField;
    location    "1.32";
    object      UMean;
}
// * * * * * * * * * * * * * * * * * * * * * * * * * * * * * * * * * * * * * //

dimensions      [0 1 -1 0 0 0 0];

internalField   nonuniform List<vector> 
8800
(
(8.09332 0.387202 0)
(5.45752 0.242573 0)
(3.92653 0.0429913 0)
(3.16324 -0.0152061 0)
(2.82093 -0.0184227 0)
(2.60326 -0.0108373 0)
(2.51079 -0.00589614 0)
(2.38553 -0.0019455 0)
(2.3519 -0.00182633 0)
(2.25605 -0.000127422 0)
(2.25497 -0.00109757 0)
(2.17266 0.000516799 0)
(2.18678 -0.000623473 0)
(2.10609 0.00107266 0)
(2.12448 -0.000273704 0)
(2.04203 0.00157088 0)
(2.05959 -0.000302088 0)
(1.97142 0.00106015 0)
(2.0173 0.00732072 0)
(1.73919 -0.0604963 0)
(10.0878 0.836307 0)
(9.65106 0.866406 0)
(8.895 0.50557 0)
(8.06909 0.26157 0)
(7.52863 0.136955 0)
(6.98741 0.0821225 0)
(6.74715 0.0525942 0)
(6.3767 0.0408076 0)
(6.29179 0.0280538 0)
(6.00054 0.0249113 0)
(6.00812 0.0166666 0)
(5.75535 0.0186683 0)
(5.81436 0.012806 0)
(5.57365 0.0176888 0)
(5.65695 0.0125636 0)
(5.41535 0.0179601 0)
(5.51084 0.0162321 0)
(5.25106 0.0112548 0)
(5.3937 0.0308679 0)
(5.02865 -0.0425667 0)
(10.0825 0.629968 0)
(10.6297 0.861693 0)
(10.91 0.599261 0)
(10.6464 0.373007 0)
(10.5121 0.253831 0)
(10.0305 0.196301 0)
(9.90868 0.150469 0)
(9.43274 0.122779 0)
(9.4054 0.0906595 0)
(8.96838 0.0768484 0)
(9.03712 0.0549014 0)
(8.6317 0.0535128 0)
(8.77088 0.0386521 0)
(8.37601 0.0445162 0)
(8.5599 0.0336251 0)
(8.15859 0.0413674 0)
(8.37239 0.037576 0)
(7.94561 0.0356877 0)
(8.19816 0.0452579 0)
(7.73327 -0.0404323 0)
(10.0598 0.456597 0)
(10.5001 0.703606 0)
(11.2465 0.543551 0)
(11.2892 0.352166 0)
(11.6457 0.259358 0)
(11.3629 0.227741 0)
(11.5926 0.196519 0)
(11.1941 0.176389 0)
(11.4131 0.142611 0)
(10.9659 0.126913 0)
(11.214 0.0987076 0)
(10.7434 0.0947656 0)
(11.029 0.0737462 0)
(10.5377 0.0790025 0)
(10.8571 0.0620111 0)
(10.3415 0.0734009 0)
(10.6891 0.0591305 0)
(10.142 0.0752431 0)
(10.5047 0.0513717 0)
(9.93162 0.0549231 0)
(10.1684 0.346345 0)
(10.281 0.566061 0)
(11.1742 0.458013 0)
(11.1792 0.295295 0)
(11.7863 0.205491 0)
(11.5451 0.194506 0)
(12.0159 0.173501 0)
(11.6892 0.172031 0)
(12.1251 0.13878 0)
(11.756 0.136332 0)
(12.181 0.102 0)
(11.781 0.111346 0)
(12.2011 0.0796083 0)
(11.7727 0.101638 0)
(12.1878 0.0679182 0)
(11.733 0.102614 0)
(12.1401 0.0620651 0)
(11.6599 0.113497 0)
(12.0441 0.0492248 0)
(11.5282 0.111846 0)
(10.1886 0.249778 0)
(10.2036 0.455861 0)
(11.0131 0.371776 0)
(11.0803 0.249928 0)
(11.6347 0.155723 0)
(11.5111 0.154496 0)
(11.9051 0.135833 0)
(11.7311 0.145817 0)
(12.0806 0.111998 0)
(11.9046 0.117926 0)
(12.2322 0.082351 0)
(12.0561 0.0973927 0)
(12.363 0.0656474 0)
(12.1841 0.0910702 0)
(12.4677 0.0600323 0)
(12.2846 0.0942303 0)
(12.5413 0.0609116 0)
(12.3506 0.103929 0)
(12.5644 0.0555167 0)
(12.3219 0.062321 0)
(10.071 0.169099 0)
(10.2584 0.358469 0)
(10.7906 0.280872 0)
(11.0836 0.210902 0)
(11.4182 0.10953 0)
(11.5297 0.122547 0)
(11.6981 0.0954094 0)
(11.7472 0.12356 0)
(11.8745 0.0776667 0)
(11.9254 0.102002 0)
(12.0383 0.0526261 0)
(12.0922 0.0859978 0)
(12.191 0.0378912 0)
(12.2441 0.0827945 0)
(12.3273 0.0329069 0)
(12.3776 0.0884154 0)
(12.4439 0.032579 0)
(12.485 0.0987259 0)
(12.5154 0.0249185 0)
(12.4803 0.0696094 0)
(9.97454 0.10562 0)
(10.2986 0.261381 0)
(10.6364 0.1933 0)
(11.0731 0.162537 0)
(11.2717 0.0703196 0)
(11.5276 0.0907388 0)
(11.5635 0.0605838 0)
(11.7371 0.0965146 0)
(11.7372 0.0488031 0)
(11.9082 0.0805965 0)
(11.9018 0.0299366 0)
(12.072 0.0687739 0)
(12.0572 0.0187705 0)
(12.2223 0.0666565 0)
(12.1977 0.0149044 0)
(12.3556 0.0709402 0)
(12.3202 0.0135579 0)
(12.4648 0.0771975 0)
(12.398 0.00362218 0)
(12.4443 0.051838 0)
(9.9119 0.0564916 0)
(10.3256 0.160645 0)
(10.5344 0.112168 0)
(11.0674 0.103006 0)
(11.1735 0.0375179 0)
(11.5284 0.0577845 0)
(11.4736 0.0318479 0)
(11.7339 0.0632474 0)
(11.6442 0.0254497 0)
(11.9012 0.0531116 0)
(11.8089 0.0133268 0)
(12.0644 0.0455194 0)
(11.9656 0.00636933 0)
(12.2154 0.0436025 0)
(12.1072 0.00345465 0)
(12.35 0.0446425 0)
(12.2309 0.00105896 0)
(12.4601 0.0437659 0)
(12.3049 -0.0118464 0)
(12.4254 0.00378133 0)
(9.89615 0.0109738 0)
(10.3257 0.0641194 0)
(10.4999 0.0286091 0)
(11.0528 0.0444556 0)
(11.143 0.00310488 0)
(11.5188 0.029501 0)
(11.45 0.000786799 0)
(11.7236 0.0324642 0)
(11.6215 -0.0016487 0)
(11.8907 0.0290145 0)
(11.7884 -0.00658099 0)
(12.0557 0.0262776 0)
(11.9476 -0.00999172 0)
(12.2093 0.0249619 0)
(12.0917 -0.0130367 0)
(12.3471 0.0231321 0)
(12.2178 -0.0179927 0)
(12.4602 0.017081 0)
(12.2917 -0.0322422 0)
(12.4253 -0.0127093 0)
(9.91883 -0.0292879 0)
(10.3046 -0.0361609 0)
(10.5241 -0.0524883 0)
(11.0353 -0.0189935 0)
(11.169 -0.0280792 0)
(11.5043 -0.00337124 0)
(11.4781 -0.0268129 0)
(11.712 -0.00392973 0)
(11.6517 -0.0256225 0)
(11.8822 -0.000277942 0)
(11.8207 -0.0229945 0)
(12.0504 0.00202282 0)
(11.9823 -0.0233635 0)
(12.2074 0.00106753 0)
(12.1289 -0.0270122 0)
(12.3489 -0.0036461 0)
(12.2574 -0.0346346 0)
(12.4659 -0.0134392 0)
(12.333 -0.0481645 0)
(12.4323 -0.0326503 0)
(9.95553 -0.0734522 0)
(10.2833 -0.136192 0)
(10.582 -0.134498 0)
(11.0312 -0.080983 0)
(11.2271 -0.0602026 0)
(11.4973 -0.0352856 0)
(11.5336 -0.0554226 0)
(11.7077 -0.0388417 0)
(11.7102 -0.0502054 0)
(11.8809 -0.0285023 0)
(11.8811 -0.040328 0)
(12.0505 -0.0213965 0)
(12.0442 -0.037337 0)
(12.2085 -0.0219545 0)
(12.1926 -0.0413976 0)
(12.3505 -0.0295186 0)
(12.3232 -0.0518485 0)
(12.4673 -0.0434609 0)
(12.4013 -0.0653414 0)
(12.4328 -0.0519387 0)
(9.98393 -0.121951 0)
(10.2832 -0.239919 0)
(10.6536 -0.214811 0)
(11.0583 -0.142892 0)
(11.2968 -0.0916899 0)
(11.5142 -0.0698393 0)
(11.5959 -0.0831954 0)
(11.726 -0.0740073 0)
(11.7757 -0.0732345 0)
(11.9007 -0.0574214 0)
(11.9472 -0.0570938 0)
(12.0692 -0.045506 0)
(12.11 -0.0508059 0)
(12.2252 -0.0448451 0)
(12.2579 -0.0554087 0)
(12.3648 -0.054457 0)
(12.388 -0.0695502 0)
(12.4793 -0.0729488 0)
(12.4678 -0.0868987 0)
(12.4469 -0.0706368 0)
(10.0172 -0.181502 0)
(10.2949 -0.344053 0)
(10.7524 -0.297096 0)
(11.1095 -0.197854 0)
(11.3904 -0.125682 0)
(11.552 -0.107975 0)
(11.6772 -0.112255 0)
(11.7671 -0.109003 0)
(11.8594 -0.0961344 0)
(11.9447 -0.0869753 0)
(12.029 -0.0739483 0)
(12.1124 -0.0711489 0)
(12.1879 -0.0640166 0)
(12.2661 -0.0694162 0)
(12.3307 -0.0678783 0)
(12.4017 -0.0803342 0)
(12.4534 -0.0848501 0)
(12.5103 -0.104114 0)
(12.5264 -0.108858 0)
(12.4791 -0.10066 0)
(10.0568 -0.256894 0)
(10.3146 -0.448382 0)
(10.8934 -0.380938 0)
(11.1771 -0.243594 0)
(11.5235 -0.164752 0)
(11.6016 -0.147312 0)
(11.798 -0.144431 0)
(11.8171 -0.140304 0)
(11.9761 -0.121231 0)
(11.9882 -0.113307 0)
(12.1298 -0.0931428 0)
(12.1387 -0.0946315 0)
(12.2623 -0.0792301 0)
(12.2655 -0.0919048 0)
(12.3673 -0.0799673 0)
(12.3632 -0.103102 0)
(12.4375 -0.0957399 0)
(12.4198 -0.131625 0)
(12.4425 -0.125134 0)
(12.3352 -0.139713 0)
(10.0518 -0.350936 0)
(10.3912 -0.560518 0)
(11.0474 -0.463658 0)
(11.2944 -0.290189 0)
(11.6559 -0.212094 0)
(11.6612 -0.188407 0)
(11.8793 -0.180314 0)
(11.8072 -0.166858 0)
(11.9807 -0.146844 0)
(11.8765 -0.131533 0)
(12.0274 -0.111906 0)
(11.9039 -0.107738 0)
(12.0353 -0.0925948 0)
(11.8962 -0.100919 0)
(12.0038 -0.0873659 0)
(11.8518 -0.108697 0)
(11.9253 -0.0970163 0)
(11.7588 -0.137719 0)
(11.7653 -0.12565 0)
(11.5353 -0.162345 0)
(10.0046 -0.459278 0)
(10.5584 -0.700648 0)
(11.169 -0.545831 0)
(11.3649 -0.350192 0)
(11.5585 -0.263027 0)
(11.446 -0.225133 0)
(11.4949 -0.200358 0)
(11.2828 -0.174185 0)
(11.3042 -0.147231 0)
(11.0583 -0.125211 0)
(11.0925 -0.104103 0)
(10.8369 -0.0948763 0)
(10.891 -0.0802463 0)
(10.6282 -0.0836413 0)
(10.6938 -0.0708176 0)
(10.4206 -0.0882669 0)
(10.4798 -0.0747656 0)
(10.1885 -0.116413 0)
(10.1955 -0.0961348 0)
(9.8575 -0.1602 0)
(10.0597 -0.632596 0)
(10.6541 -0.859104 0)
(10.867 -0.600387 0)
(10.689 -0.371774 0)
(10.4595 -0.256303 0)
(10.0814 -0.194692 0)
(9.84554 -0.153169 0)
(9.48847 -0.12092 0)
(9.33326 -0.0940589 0)
(9.02516 -0.0750735 0)
(8.95646 -0.0591195 0)
(8.68493 -0.0526033 0)
(8.67936 -0.0441188 0)
(8.4191 -0.0462821 0)
(8.44945 -0.0411096 0)
(8.18007 -0.0507636 0)
(8.21977 -0.0485887 0)
(7.92127 -0.0702184 0)
(7.92387 -0.0712516 0)
(7.57551 -0.08948 0)
(10.0807 -0.837658 0)
(9.65645 -0.864848 0)
(8.87566 -0.505881 0)
(8.08981 -0.260956 0)
(7.50179 -0.138361 0)
(7.01394 -0.0814454 0)
(6.71135 -0.0538489 0)
(6.40651 -0.0399104 0)
(6.25002 -0.0296536 0)
(6.02983 -0.02409 0)
(5.96147 -0.01865 0)
(5.77927 -0.0183166 0)
(5.7615 -0.0153928 0)
(5.58531 -0.0186702 0)
(5.59146 -0.0164167 0)
(5.40197 -0.0231173 0)
(5.41148 -0.0221795 0)
(5.18786 -0.0329652 0)
(5.17654 -0.0385068 0)
(4.88026 -0.0199241 0)
(8.09167 -0.387559 0)
(5.45597 -0.242084 0)
(3.92263 -0.0432164 0)
(3.17 0.0152715 0)
(2.81353 0.0180416 0)
(2.61064 0.0111162 0)
(2.49917 0.00561175 0)
(2.39389 0.00226914 0)
(2.33815 0.00147671 0)
(2.26385 0.000418591 0)
(2.23881 0.000706158 0)
(2.17759 -0.000261366 0)
(2.16724 0.000188341 0)
(2.10402 -0.00111023 0)
(2.09741 -0.000334129 0)
(2.02416 -0.00229596 0)
(2.01186 -0.00114008 0)
(1.91989 -0.00385526 0)
(1.88188 -0.0042944 0)
(1.72953 0.0114108 0)
(2.25868 -0.10647 0)
(2.32001 -0.0184167 0)
(2.56023 -0.00671013 0)
(2.64835 -0.0181149 0)
(2.87924 -0.0392504 0)
(2.92924 -0.045461 0)
(3.12641 -0.0525427 0)
(3.13466 -0.0464552 0)
(3.30089 -0.0506575 0)
(3.28398 -0.0486756 0)
(3.44203 -0.0556202 0)
(3.41289 -0.0550327 0)
(3.57388 -0.0643801 0)
(3.54039 -0.0645142 0)
(3.7049 -0.0736155 0)
(3.6684 -0.073242 0)
(3.83954 -0.0823046 0)
(3.80223 -0.0822261 0)
(3.98627 -0.0913656 0)
(3.94943 -0.0894098 0)
(4.14085 -0.100896 0)
(4.09857 -0.102871 0)
(4.29276 -0.117905 0)
(4.24179 -0.122372 0)
(4.43665 -0.140455 0)
(4.37502 -0.146973 0)
(4.56932 -0.165614 0)
(4.49653 -0.169392 0)
(4.69202 -0.18453 0)
(4.61424 -0.184674 0)
(4.81588 -0.199553 0)
(4.74041 -0.200598 0)
(4.95119 -0.218169 0)
(4.8766 -0.220719 0)
(5.09184 -0.239022 0)
(5.01243 -0.240686 0)
(5.23111 -0.258071 0)
(5.14578 -0.258104 0)
(5.37062 -0.275615 0)
(5.27965 -0.276553 0)
(5.5106 -0.296498 0)
(5.41366 -0.300666 0)
(5.64822 -0.325693 0)
(5.54259 -0.33313 0)
(5.7761 -0.360784 0)
(5.65872 -0.367478 0)
(5.8911 -0.394426 0)
(5.76454 -0.396426 0)
(5.9987 -0.421337 0)
(5.86819 -0.417671 0)
(6.10689 -0.439766 0)
(5.97473 -0.430298 0)
(6.2239 -0.448977 0)
(6.08785 -0.435473 0)
(6.35463 -0.4533 0)
(6.21053 -0.438378 0)
(6.49914 -0.457206 0)
(6.34253 -0.44252 0)
(6.65155 -0.462935 0)
(6.47848 -0.449669 0)
(6.80511 -0.474788 0)
(6.62215 -0.465485 0)
(6.96196 -0.49892 0)
(6.7803 -0.495644 0)
(7.12031 -0.538998 0)
(6.9442 -0.540695 0)
(7.27014 -0.588807 0)
(7.09105 -0.59233 0)
(7.40132 -0.638387 0)
(7.21235 -0.638723 0)
(7.51743 -0.683606 0)
(7.31763 -0.676203 0)
(7.62409 -0.716329 0)
(7.41371 -0.70124 0)
(7.73607 -0.738906 0)
(7.51859 -0.718583 0)
(7.86316 -0.755427 0)
(7.64594 -0.73248 0)
(8.0116 -0.774288 0)
(7.79543 -0.749133 0)
(8.18045 -0.795046 0)
(7.9587 -0.767445 0)
(8.36033 -0.812413 0)
(8.12684 -0.785736 0)
(8.54073 -0.833273 0)
(8.30191 -0.808542 0)
(8.70845 -0.86542 0)
(8.48059 -0.843514 0)
(8.86093 -0.907016 0)
(8.64727 -0.886849 0)
(8.99777 -0.951015 0)
(8.79327 -0.928572 0)
(9.11364 -0.990129 0)
(8.91131 -0.965821 0)
(9.20962 -1.02598 0)
(9.01045 -0.996822 0)
(9.29124 -1.05395 0)
(9.09816 -1.02122 0)
(9.3693 -1.07634 0)
(9.19375 -1.04335 0)
(9.45778 -1.10053 0)
(9.29818 -1.06647 0)
(9.55851 -1.12912 0)
(9.40653 -1.0903 0)
(9.65766 -1.15083 0)
(9.50282 -1.10041 0)
(9.73877 -1.16338 0)
(9.56974 -1.10703 0)
(9.79222 -1.17149 0)
(9.6077 -1.10634 0)
(9.81696 -1.17001 0)
(9.61769 -1.09842 0)
(9.80547 -1.15794 0)
(9.60014 -1.07963 0)
(9.7701 -1.13809 0)
(9.58041 -1.05411 0)
(9.73981 -1.10837 0)
(9.57137 -1.02065 0)
(9.71532 -1.07174 0)
(9.55993 -0.979773 0)
(9.69182 -1.02582 0)
(9.54848 -0.933003 0)
(9.6746 -0.979813 0)
(9.53289 -0.886091 0)
(9.65447 -0.93521 0)
(9.50032 -0.840555 0)
(9.63189 -0.886519 0)
(9.45562 -0.785306 0)
(9.60284 -0.82495 0)
(9.41 -0.720804 0)
(9.5635 -0.755892 0)
(9.36788 -0.652245 0)
(9.51271 -0.687119 0)
(9.32696 -0.583923 0)
(9.45682 -0.620815 0)
(9.28426 -0.516297 0)
(9.39626 -0.548505 0)
(9.23669 -0.440678 0)
(9.34121 -0.469654 0)
(9.1972 -0.365841 0)
(9.29137 -0.39692 0)
(9.16346 -0.296693 0)
(9.23712 -0.320086 0)
(9.13255 -0.227295 0)
(9.18643 -0.249338 0)
(9.10366 -0.16189 0)
(9.12688 -0.169341 0)
(9.06852 -0.0824599 0)
(9.06108 -0.0875727 0)
(9.03396 1.2167e-06 0)
(8.99152 -0.00463794 0)
(8.99298 0.0887525 0)
(8.92913 0.0927036 0)
(8.94986 0.186642 0)
(8.87305 0.188281 0)
(8.90941 0.292177 0)
(8.82957 0.298744 0)
(8.85465 0.39804 0)
(8.79345 0.405682 0)
(8.80614 0.50809 0)
(8.76196 0.494977 0)
(8.75136 0.604071 0)
(8.73776 0.582273 0)
(8.68402 0.692851 0)
(8.70179 0.665124 0)
(8.6074 0.785214 0)
(8.66927 0.746773 0)
(8.52683 0.872701 0)
(8.62817 0.829749 0)
(8.43888 0.969636 0)
(8.56136 0.901736 0)
(8.32249 1.05714 0)
(8.48923 0.978334 0)
(8.15983 1.15379 0)
(8.41169 1.0567 0)
(7.98855 1.27854 0)
(8.33481 1.14414 0)
(7.81529 1.40626 0)
(8.26811 1.23194 0)
(7.67113 1.55019 0)
(8.18607 1.34012 0)
(7.54517 1.70398 0)
(8.09408 1.4702 0)
(7.42295 1.86657 0)
(7.96536 1.61419 0)
(7.29196 2.03411 0)
(7.79021 1.7899 0)
(7.13432 2.21859 0)
(7.59808 2.0155 0)
(6.93395 2.43494 0)
(7.39353 2.29139 0)
(6.67842 2.71053 0)
(7.12493 2.63997 0)
(6.37301 3.10618 0)
(6.7301 3.09419 0)
(6.02745 3.77846 0)
(6.23678 3.81276 0)
(5.37289 4.90821 0)
(6.35144 5.46462 0)
(4.06889 8.40377 0)
(5.31316 -0.0700025 0)
(5.24171 -0.0356381 0)
(5.35869 -0.042735 0)
(5.3256 -0.0659873 0)
(5.50576 -0.0969776 0)
(5.48768 -0.107115 0)
(5.66383 -0.113695 0)
(5.61373 -0.104586 0)
(5.76723 -0.103764 0)
(5.69009 -0.0968861 0)
(5.84046 -0.102762 0)
(5.75508 -0.101699 0)
(5.91619 -0.112104 0)
(5.83024 -0.112598 0)
(6.00355 -0.123252 0)
(5.91586 -0.123096 0)
(6.0995 -0.133665 0)
(6.00822 -0.132793 0)
(6.20085 -0.143986 0)
(6.106 -0.142811 0)
(6.30618 -0.155244 0)
(6.20611 -0.156073 0)
(6.41101 -0.171089 0)
(6.30304 -0.17368 0)
(6.51219 -0.191007 0)
(6.39565 -0.19467 0)
(6.60968 -0.212536 0)
(6.48482 -0.214743 0)
(6.7042 -0.231691 0)
(6.57228 -0.232187 0)
(6.79926 -0.249224 0)
(6.66236 -0.249714 0)
(6.89829 -0.268689 0)
(6.75601 -0.269771 0)
(6.99865 -0.289581 0)
(6.84877 -0.289202 0)
(7.09601 -0.308388 0)
(6.93857 -0.306304 0)
(7.1899 -0.326076 0)
(7.02657 -0.324305 0)
(7.28197 -0.346777 0)
(7.11455 -0.346983 0)
(7.37359 -0.373363 0)
(7.20204 -0.375511 0)
(7.46383 -0.404285 0)
(7.2862 -0.405854 0)
(7.55014 -0.434793 0)
(7.36491 -0.43355 0)
(7.63201 -0.460954 0)
(7.43787 -0.455917 0)
(7.71198 -0.480527 0)
(7.50627 -0.471051 0)
(7.79283 -0.493008 0)
(7.57374 -0.479494 0)
(7.87705 -0.500509 0)
(7.64536 -0.484776 0)
(7.96711 -0.506755 0)
(7.72561 -0.491333 0)
(8.06475 -0.516544 0)
(7.81731 -0.502964 0)
(8.16951 -0.533183 0)
(7.9199 -0.522815 0)
(8.27917 -0.559901 0)
(8.03059 -0.553666 0)
(8.38945 -0.597447 0)
(8.14404 -0.593959 0)
(8.49574 -0.640276 0)
(8.25119 -0.637735 0)
(8.59733 -0.685749 0)
(8.34958 -0.682264 0)
(8.69438 -0.727202 0)
(8.4376 -0.71665 0)
(8.78746 -0.758656 0)
(8.52272 -0.742304 0)
(8.88104 -0.78507 0)
(8.61435 -0.763025 0)
(8.98014 -0.808132 0)
(8.71706 -0.782894 0)
(9.08771 -0.831214 0)
(8.82819 -0.805275 0)
(9.20623 -0.855307 0)
(8.94602 -0.826234 0)
(9.32943 -0.877739 0)
(9.07137 -0.845624 0)
(9.44886 -0.89894 0)
(9.20145 -0.868058 0)
(9.56302 -0.927894 0)
(9.33073 -0.899323 0)
(9.66689 -0.963768 0)
(9.44772 -0.937123 0)
(9.76006 -1.00048 0)
(9.54698 -0.969975 0)
(9.83525 -1.03164 0)
(9.6233 -0.999078 0)
(9.8915 -1.05922 0)
(9.68142 -1.02321 0)
(9.93474 -1.08225 0)
(9.73131 -1.04584 0)
(9.9785 -1.1071 0)
(9.78697 -1.07203 0)
(10.0287 -1.13694 0)
(9.84922 -1.09947 0)
(10.0861 -1.1678 0)
(9.90419 -1.12059 0)
(10.1357 -1.17963 0)
(9.94219 -1.12305 0)
(10.1664 -1.18017 0)
(9.95835 -1.11885 0)
(10.1711 -1.17996 0)
(9.95017 -1.11024 0)
(10.1486 -1.16685 0)
(9.9167 -1.08557 0)
(10.0977 -1.14143 0)
(9.86469 -1.05996 0)
(10.0406 -1.12037 0)
(9.81864 -1.0379 0)
(9.98933 -1.09719 0)
(9.77753 -1.00705 0)
(9.94383 -1.06017 0)
(9.73245 -0.966684 0)
(9.90313 -1.01552 0)
(9.6857 -0.920786 0)
(9.86546 -0.968872 0)
(9.63891 -0.868072 0)
(9.82603 -0.920045 0)
(9.5816 -0.814881 0)
(9.78071 -0.8707 0)
(9.51745 -0.759724 0)
(9.72994 -0.809269 0)
(9.45282 -0.694661 0)
(9.66993 -0.742442 0)
(9.38866 -0.625417 0)
(9.60351 -0.671671 0)
(9.32825 -0.555671 0)
(9.53553 -0.601687 0)
(9.25981 -0.484314 0)
(9.46453 -0.52927 0)
(9.19585 -0.41538 0)
(9.40227 -0.457084 0)
(9.14627 -0.345896 0)
(9.34956 -0.386075 0)
(9.09929 -0.274919 0)
(9.29781 -0.311866 0)
(9.05212 -0.201878 0)
(9.248 -0.240218 0)
(9.00103 -0.128988 0)
(9.1915 -0.15751 0)
(8.95193 -0.0504556 0)
(9.13425 -0.0750798 0)
(8.91921 0.0309306 0)
(9.07191 0.0113225 0)
(8.88561 0.11733 0)
(9.00758 0.100734 0)
(8.85048 0.212951 0)
(8.95656 0.195208 0)
(8.81033 0.315679 0)
(8.91841 0.299604 0)
(8.76765 0.425408 0)
(8.89568 0.400117 0)
(8.73149 0.539393 0)
(8.88255 0.486363 0)
(8.6841 0.640632 0)
(8.86936 0.575707 0)
(8.64027 0.734563 0)
(8.85085 0.65511 0)
(8.60264 0.826991 0)
(8.82691 0.727607 0)
(8.56009 0.927516 0)
(8.77752 0.805825 0)
(8.50093 1.04108 0)
(8.74012 0.885109 0)
(8.3917 1.14495 0)
(8.7022 0.970631 0)
(8.25333 1.25977 0)
(8.64278 1.04384 0)
(8.10431 1.37999 0)
(8.59889 1.11933 0)
(7.96198 1.50478 0)
(8.56174 1.20189 0)
(7.83065 1.64387 0)
(8.52601 1.32028 0)
(7.7198 1.79666 0)
(8.46822 1.46382 0)
(7.62315 1.95886 0)
(8.38503 1.62685 0)
(7.50947 2.12408 0)
(8.28863 1.81379 0)
(7.36059 2.31437 0)
(8.17583 2.03325 0)
(7.20945 2.5707 0)
(8.01427 2.29769 0)
(7.08011 2.91527 0)
(7.78155 2.62902 0)
(6.92941 3.39176 0)
(7.51456 3.09978 0)
(6.63934 4.07036 0)
(7.51604 3.90195 0)
(5.98628 5.31045 0)
(8.43131 4.75438 0)
(6.46705 8.872 0)
(7.99043 -0.0882249 0)
(7.8816 -0.0760341 0)
(8.00477 -0.0920603 0)
(7.92677 -0.105883 0)
(8.1089 -0.126165 0)
(8.04631 -0.126467 0)
(8.22332 -0.129974 0)
(8.12477 -0.118139 0)
(8.27822 -0.118452 0)
(8.15216 -0.110089 0)
(8.30467 -0.118109 0)
(8.17333 -0.116843 0)
(8.33928 -0.130792 0)
(8.20921 -0.132213 0)
(8.3891 -0.147356 0)
(8.25854 -0.147731 0)
(8.44899 -0.16192 0)
(8.31476 -0.160463 0)
(8.51219 -0.174108 0)
(8.37249 -0.172103 0)
(8.57549 -0.186774 0)
(8.42999 -0.185913 0)
(8.63807 -0.202589 0)
(8.4863 -0.203001 0)
(8.69961 -0.221469 0)
(8.54166 -0.222524 0)
(8.76048 -0.241691 0)
(8.59623 -0.242052 0)
(8.82036 -0.260964 0)
(8.64872 -0.260208 0)
(8.87821 -0.279339 0)
(8.69891 -0.27843 0)
(8.93426 -0.298865 0)
(8.74684 -0.298103 0)
(8.98774 -0.319354 0)
(8.79188 -0.317482 0)
(9.03851 -0.338519 0)
(8.83558 -0.334928 0)
(9.08814 -0.356454 0)
(8.88009 -0.352361 0)
(9.13856 -0.376273 0)
(8.92771 -0.373405 0)
(9.19115 -0.401008 0)
(8.9777 -0.399759 0)
(9.24453 -0.430017 0)
(9.02671 -0.428802 0)
(9.29564 -0.459336 0)
(9.07032 -0.455942 0)
(9.34185 -0.484665 0)
(9.1063 -0.477561 0)
(9.38326 -0.503577 0)
(9.13597 -0.492199 0)
(9.42149 -0.516271 0)
(9.16296 -0.501212 0)
(9.45902 -0.525371 0)
(9.19321 -0.508429 0)
(9.50009 -0.535474 0)
(9.2333 -0.518863 0)
(9.54839 -0.55053 0)
(9.28554 -0.535106 0)
(9.60304 -0.570504 0)
(9.34543 -0.556895 0)
(9.6603 -0.596219 0)
(9.40609 -0.586331 0)
(9.7169 -0.629788 0)
(9.46209 -0.623119 0)
(9.77149 -0.670636 0)
(9.51534 -0.666355 0)
(9.82844 -0.717003 0)
(9.56696 -0.710955 0)
(9.88214 -0.759355 0)
(9.61456 -0.746749 0)
(9.93448 -0.791177 0)
(9.6617 -0.774168 0)
(9.98727 -0.818776 0)
(9.71125 -0.797358 0)
(10.0401 -0.843434 0)
(9.76574 -0.818755 0)
(10.0962 -0.868887 0)
(9.82916 -0.843596 0)
(10.1588 -0.895098 0)
(9.90053 -0.866238 0)
(10.2262 -0.918726 0)
(9.97803 -0.884286 0)
(10.2921 -0.938368 0)
(10.058 -0.905471 0)
(10.3539 -0.962213 0)
(10.1297 -0.931884 0)
(10.4071 -0.993257 0)
(10.1898 -0.964724 0)
(10.4487 -1.02363 0)
(10.2346 -0.99074 0)
(10.4719 -1.04937 0)
(10.2617 -1.01335 0)
(10.4791 -1.07112 0)
(10.2773 -1.03306 0)
(10.4737 -1.09322 0)
(10.2868 -1.05614 0)
(10.4727 -1.12097 0)
(10.299 -1.08431 0)
(10.4751 -1.15358 0)
(10.3094 -1.11306 0)
(10.4731 -1.18276 0)
(10.3045 -1.12916 0)
(10.4613 -1.18827 0)
(10.2891 -1.12518 0)
(10.4383 -1.18216 0)
(10.2642 -1.11212 0)
(10.3979 -1.16886 0)
(10.2172 -1.08897 0)
(10.329 -1.14268 0)
(10.1467 -1.05468 0)
(10.2459 -1.1129 0)
(10.0808 -1.0314 0)
(10.1742 -1.09532 0)
(10.0163 -1.00983 0)
(10.0947 -1.07194 0)
(9.94018 -0.978774 0)
(10.0165 -1.03836 0)
(9.86498 -0.938096 0)
(9.94959 -0.997185 0)
(9.79407 -0.890449 0)
(9.88679 -0.950664 0)
(9.72449 -0.836964 0)
(9.82479 -0.899738 0)
(9.65342 -0.781521 0)
(9.75854 -0.848841 0)
(9.57547 -0.724581 0)
(9.68091 -0.78732 0)
(9.4932 -0.654812 0)
(9.59718 -0.717029 0)
(9.40295 -0.582382 0)
(9.51954 -0.648421 0)
(9.31682 -0.513663 0)
(9.44299 -0.576003 0)
(9.22972 -0.441237 0)
(9.36558 -0.508374 0)
(9.15477 -0.379564 0)
(9.29286 -0.442324 0)
(9.08728 -0.312861 0)
(9.22827 -0.377495 0)
(9.03018 -0.23801 0)
(9.15847 -0.302805 0)
(8.973 -0.162892 0)
(9.09813 -0.230214 0)
(8.91878 -0.0859032 0)
(9.04182 -0.145697 0)
(8.86825 -0.00560467 0)
(8.99551 -0.067814 0)
(8.83471 0.0733726 0)
(8.94737 0.0133802 0)
(8.82047 0.164715 0)
(8.90006 0.0937887 0)
(8.79217 0.255573 0)
(8.86737 0.188156 0)
(8.75432 0.363882 0)
(8.83306 0.281292 0)
(8.72208 0.471112 0)
(8.80694 0.375696 0)
(8.69003 0.581703 0)
(8.79097 0.470994 0)
(8.6575 0.68405 0)
(8.78002 0.553214 0)
(8.64108 0.775888 0)
(8.7738 0.629057 0)
(8.62185 0.873542 0)
(8.75664 0.707606 0)
(8.59335 0.985053 0)
(8.73994 0.796143 0)
(8.53167 1.09943 0)
(8.74817 0.879871 0)
(8.42862 1.21986 0)
(8.75189 0.968521 0)
(8.29645 1.35089 0)
(8.7621 1.04739 0)
(8.14908 1.46974 0)
(8.77696 1.11383 0)
(8.01827 1.58748 0)
(8.77602 1.1939 0)
(7.90235 1.71694 0)
(8.75779 1.29899 0)
(7.81728 1.87417 0)
(8.72231 1.43668 0)
(7.7343 2.05024 0)
(8.67771 1.59766 0)
(7.64212 2.24517 0)
(8.61219 1.77127 0)
(7.56283 2.47502 0)
(8.49958 1.9664 0)
(7.51341 2.75037 0)
(8.36612 2.22523 0)
(7.45486 3.10619 0)
(8.28781 2.58061 0)
(7.31513 3.57034 0)
(8.40475 3.07035 0)
(6.9968 4.30394 0)
(8.93717 3.5697 0)
(6.71794 5.85115 0)
(9.67439 3.65216 0)
(8.09306 8.15296 0)
(10.2245 -0.109235 0)
(10.1025 -0.175183 0)
(10.2448 -0.21516 0)
(10.1472 -0.206297 0)
(10.3295 -0.196729 0)
(10.2346 -0.167074 0)
(10.4054 -0.15585 0)
(10.276 -0.133355 0)
(10.4273 -0.133353 0)
(10.2761 -0.121308 0)
(10.4282 -0.131748 0)
(10.2734 -0.12785 0)
(10.4371 -0.145186 0)
(10.2839 -0.144671 0)
(10.4593 -0.163834 0)
(10.3056 -0.162353 0)
(10.4894 -0.180338 0)
(10.3321 -0.176478 0)
(10.5216 -0.193302 0)
(10.3596 -0.188196 0)
(10.5542 -0.205511 0)
(10.3869 -0.200861 0)
(10.5861 -0.220048 0)
(10.4135 -0.216509 0)
(10.6166 -0.237605 0)
(10.4389 -0.234697 0)
(10.6452 -0.256784 0)
(10.4624 -0.253361 0)
(10.6713 -0.275537 0)
(10.4834 -0.271128 0)
(10.6941 -0.293362 0)
(10.5012 -0.288331 0)
(10.7136 -0.311155 0)
(10.5156 -0.306116 0)
(10.7302 -0.329695 0)
(10.5271 -0.324303 0)
(10.7451 -0.348279 0)
(10.5374 -0.34251 0)
(10.761 -0.367386 0)
(10.5492 -0.361706 0)
(10.7795 -0.388539 0)
(10.5635 -0.384094 0)
(10.8004 -0.41388 0)
(10.5788 -0.410585 0)
(10.8208 -0.442531 0)
(10.5921 -0.43875 0)
(10.8373 -0.470799 0)
(10.6006 -0.464117 0)
(10.8481 -0.494388 0)
(10.6042 -0.483193 0)
(10.8538 -0.511121 0)
(10.6047 -0.495438 0)
(10.8562 -0.521722 0)
(10.6045 -0.503155 0)
(10.8583 -0.530222 0)
(10.6084 -0.511382 0)
(10.8643 -0.5419 0)
(10.6187 -0.524115 0)
(10.8746 -0.558302 0)
(10.6322 -0.541356 0)
(10.8853 -0.578874 0)
(10.645 -0.563308 0)
(10.894 -0.604519 0)
(10.6549 -0.591322 0)
(10.899 -0.636196 0)
(10.6607 -0.627125 0)
(10.9032 -0.67813 0)
(10.6655 -0.673231 0)
(10.9083 -0.725272 0)
(10.6671 -0.717457 0)
(10.91 -0.767789 0)
(10.663 -0.754059 0)
(10.9083 -0.800405 0)
(10.6604 -0.783036 0)
(10.9062 -0.827918 0)
(10.6568 -0.80746 0)
(10.9039 -0.852548 0)
(10.6602 -0.831613 0)
(10.9102 -0.881298 0)
(10.6785 -0.859225 0)
(10.9251 -0.908502 0)
(10.7063 -0.883925 0)
(10.943 -0.931047 0)
(10.7351 -0.901678 0)
(10.9607 -0.950914 0)
(10.7615 -0.92068 0)
(10.9725 -0.971307 0)
(10.7795 -0.946595 0)
(10.9783 -1.00052 0)
(10.7905 -0.97383 0)
(10.9704 -1.02471 0)
(10.7856 -0.991343 0)
(10.9456 -1.04295 0)
(10.7668 -1.00711 0)
(10.9109 -1.061 0)
(10.7411 -1.02357 0)
(10.8678 -1.08361 0)
(10.7113 -1.04863 0)
(10.8267 -1.11376 0)
(10.6773 -1.07651 0)
(10.7845 -1.14401 0)
(10.6351 -1.10099 0)
(10.7326 -1.16965 0)
(10.5846 -1.11359 0)
(10.6768 -1.1754 0)
(10.5299 -1.10905 0)
(10.6137 -1.16715 0)
(10.4661 -1.0885 0)
(10.5341 -1.14292 0)
(10.3834 -1.05436 0)
(10.4297 -1.10446 0)
(10.2844 -1.0173 0)
(10.3304 -1.08222 0)
(10.2034 -1.00053 0)
(10.2341 -1.06316 0)
(10.1098 -0.972233 0)
(10.1246 -1.03348 0)
(10.0003 -0.937211 0)
(10.0097 -1.00385 0)
(9.89453 -0.896433 0)
(9.91028 -0.968361 0)
(9.79615 -0.850695 0)
(9.82726 -0.922952 0)
(9.70185 -0.801801 0)
(9.75085 -0.874167 0)
(9.6113 -0.750532 0)
(9.66679 -0.81944 0)
(9.51646 -0.686551 0)
(9.57104 -0.752045 0)
(9.41601 -0.613863 0)
(9.47343 -0.681147 0)
(9.31164 -0.543111 0)
(9.3828 -0.614984 0)
(9.20781 -0.473441 0)
(9.29691 -0.542837 0)
(9.10495 -0.40375 0)
(9.21695 -0.478676 0)
(9.0086 -0.343561 0)
(9.13318 -0.41686 0)
(8.91964 -0.278681 0)
(9.05501 -0.355105 0)
(8.83461 -0.19941 0)
(8.97691 -0.280643 0)
(8.76332 -0.12623 0)
(8.92005 -0.215604 0)
(8.70597 -0.0489268 0)
(8.86771 -0.137301 0)
(8.66218 0.0254469 0)
(8.83836 -0.0695005 0)
(8.63133 0.0990312 0)
(8.82015 0.000903582 0)
(8.60965 0.189474 0)
(8.81958 0.0881314 0)
(8.5703 0.281591 0)
(8.81503 0.182408 0)
(8.54 0.394451 0)
(8.79072 0.276734 0)
(8.51483 0.511982 0)
(8.77116 0.374658 0)
(8.4752 0.608471 0)
(8.76942 0.455828 0)
(8.45786 0.708969 0)
(8.78529 0.523845 0)
(8.42949 0.799287 0)
(8.8202 0.6031 0)
(8.38789 0.901987 0)
(8.84004 0.684779 0)
(8.33939 1.01933 0)
(8.87386 0.773699 0)
(8.28141 1.14547 0)
(8.9065 0.851638 0)
(8.20756 1.2854 0)
(8.9393 0.933207 0)
(8.10705 1.41712 0)
(8.98256 1.00389 0)
(8.02162 1.53204 0)
(8.98852 1.07479 0)
(7.96666 1.65008 0)
(8.9613 1.1597 0)
(7.92928 1.78694 0)
(8.91914 1.25862 0)
(7.89926 1.95612 0)
(8.8894 1.38519 0)
(7.8715 2.14788 0)
(8.85875 1.5325 0)
(7.85531 2.36029 0)
(8.82152 1.69606 0)
(7.84181 2.59338 0)
(8.81018 1.90535 0)
(7.78603 2.87163 0)
(8.86373 2.16225 0)
(7.68386 3.24264 0)
(9.04692 2.47291 0)
(7.51333 3.77447 0)
(9.43045 2.75361 0)
(7.36286 4.68092 0)
(10.013 2.86972 0)
(7.68378 6.07698 0)
(10.2798 3.06418 0)
(9.08222 7.14671 0)
(11.7136 -0.0933267 0)
(11.6246 -0.19293 0)
(11.8014 -0.252954 0)
(11.7445 -0.239971 0)
(11.9055 -0.224127 0)
(11.8127 -0.178973 0)
(11.9447 -0.162876 0)
(11.8186 -0.132677 0)
(11.9362 -0.135808 0)
(11.7963 -0.12108 0)
(11.916 -0.136846 0)
(11.7753 -0.130476 0)
(11.9047 -0.152536 0)
(11.7672 -0.148807 0)
(11.9066 -0.17223 0)
(11.7703 -0.167347 0)
(11.9167 -0.189521 0)
(11.7785 -0.182205 0)
(11.9295 -0.203047 0)
(11.7876 -0.194256 0)
(11.9418 -0.21533 0)
(11.7952 -0.206682 0)
(11.9517 -0.229402 0)
(11.7999 -0.221643 0)
(11.9583 -0.246162 0)
(11.8012 -0.238901 0)
(11.9614 -0.264469 0)
(11.7996 -0.256689 0)
(11.9618 -0.282541 0)
(11.7963 -0.273598 0)
(11.9605 -0.299422 0)
(11.7922 -0.289405 0)
(11.958 -0.315748 0)
(11.7876 -0.305298 0)
(11.9548 -0.332542 0)
(11.7828 -0.322029 0)
(11.9512 -0.350456 0)
(11.7779 -0.340272 0)
(11.9481 -0.370142 0)
(11.7731 -0.360708 0)
(11.9457 -0.392549 0)
(11.7679 -0.384283 0)
(11.9428 -0.418202 0)
(11.7608 -0.410559 0)
(11.9377 -0.445801 0)
(11.7504 -0.437167 0)
(11.9282 -0.472155 0)
(11.7359 -0.460625 0)
(11.9135 -0.493851 0)
(11.7174 -0.478084 0)
(11.8932 -0.509061 0)
(11.6962 -0.489297 0)
(11.8698 -0.519322 0)
(11.6761 -0.497877 0)
(11.8475 -0.529298 0)
(11.6597 -0.508044 0)
(11.8272 -0.541513 0)
(11.6439 -0.520905 0)
(11.806 -0.556286 0)
(11.6243 -0.537281 0)
(11.7828 -0.575576 0)
(11.5997 -0.558292 0)
(11.7569 -0.599264 0)
(11.5694 -0.583486 0)
(11.7284 -0.629121 0)
(11.5374 -0.61794 0)
(11.6998 -0.669937 0)
(11.5026 -0.66101 0)
(11.6629 -0.714283 0)
(11.4602 -0.702093 0)
(11.6181 -0.753434 0)
(11.4117 -0.736924 0)
(11.5693 -0.786507 0)
(11.3652 -0.766299 0)
(11.5191 -0.813953 0)
(11.3193 -0.792659 0)
(11.4716 -0.842551 0)
(11.2848 -0.823935 0)
(11.4395 -0.877334 0)
(11.2644 -0.856312 0)
(11.4151 -0.907493 0)
(11.2486 -0.882952 0)
(11.3908 -0.9292 0)
(11.2328 -0.902325 0)
(11.3682 -0.948764 0)
(11.2117 -0.919674 0)
(11.3437 -0.968534 0)
(11.1886 -0.943669 0)
(11.313 -0.994121 0)
(11.1581 -0.961775 0)
(11.2678 -1.00888 0)
(11.1107 -0.972696 0)
(11.2138 -1.02453 0)
(11.057 -0.986247 0)
(11.1555 -1.04279 0)
(11.0001 -1.00162 0)
(11.0905 -1.06629 0)
(10.9413 -1.02469 0)
(11.0182 -1.09524 0)
(10.8762 -1.05114 0)
(10.9443 -1.12253 0)
(10.8066 -1.07217 0)
(10.8673 -1.14518 0)
(10.7324 -1.0829 0)
(10.7833 -1.14678 0)
(10.6468 -1.07503 0)
(10.6833 -1.13271 0)
(10.5474 -1.04804 0)
(10.5637 -1.10118 0)
(10.4304 -1.0044 0)
(10.4283 -1.05858 0)
(10.3222 -0.974952 0)
(10.3123 -1.04443 0)
(10.2126 -0.953277 0)
(10.1819 -1.01697 0)
(10.0865 -0.914978 0)
(10.0416 -0.982417 0)
(9.94733 -0.875311 0)
(9.90301 -0.955743 0)
(9.81253 -0.839813 0)
(9.77862 -0.928075 0)
(9.68617 -0.800672 0)
(9.67472 -0.887938 0)
(9.57063 -0.755266 0)
(9.57628 -0.839732 0)
(9.46009 -0.701951 0)
(9.46564 -0.783683 0)
(9.34886 -0.634945 0)
(9.35402 -0.714665 0)
(9.23405 -0.560854 0)
(9.24606 -0.643271 0)
(9.12028 -0.492409 0)
(9.13823 -0.575605 0)
(9.00497 -0.420887 0)
(9.03599 -0.508408 0)
(8.89293 -0.353972 0)
(8.94528 -0.443997 0)
(8.77442 -0.290188 0)
(8.8503 -0.38632 0)
(8.65927 -0.224078 0)
(8.75912 -0.323587 0)
(8.54645 -0.149852 0)
(8.68535 -0.261131 0)
(8.47263 -0.0889945 0)
(8.62569 -0.204021 0)
(8.41131 -0.00685835 0)
(8.57822 -0.140634 0)
(8.37618 0.0609368 0)
(8.56559 -0.0853247 0)