/*--------------------------------*- C++ -*----------------------------------*\
| =========                 |                                                 |
| \\      /  F ield         | OpenFOAM: The Open Source CFD Toolbox           |
|  \\    /   O peration     | Version:  2.4.0                                 |
|   \\  /    A nd           | Web:      www.OpenFOAM.org                      |
|    \\/     M anipulation  |                                                 |
\*---------------------------------------------------------------------------*/
FoamFile
{
    version     2.0;
    format      ascii;
    class       volSymmTensorField;
    location    "1.32";
    object      UPrime2Mean;
}
// * * * * * * * * * * * * * * * * * * * * * * * * * * * * * * * * * * * * * //

dimensions      [0 2 -2 0 0 0 0];

internalField   nonuniform List<symmTensor> 
8800
(
(0.00128857 7.38226e-05 0 0.000145468 0 0)
(0.0243761 -0.00094947 0 5.39596e-05 0 0)
(0.0477968 -8.38905e-05 0 1.29e-05 0 0)
(0.0602153 0.000137553 0 5.41687e-06 0 0)
(0.0683482 9.89852e-05 0 4.11558e-06 0 0)
(0.0763681 5.50682e-05 0 4.77058e-06 0 0)
(0.0803681 2.07239e-05 0 5.60276e-06 0 0)
(0.0847034 -3.29097e-05 0 7.21932e-06 0 0)
(0.0873632 -4.65838e-05 0 7.83845e-06 0 0)
(0.0898039 -8.43962e-05 0 9.57935e-06 0 0)
(0.0921974 -8.69051e-05 0 9.91442e-06 0 0)
(0.0938167 -0.000130428 0 1.19891e-05 0 0)
(0.0961976 -0.000135301 0 1.20276e-05 0 0)
(0.0981975 -0.000179135 0 1.41224e-05 0 0)
(0.101353 -0.000248547 0 1.45459e-05 0 0)
(0.104491 -0.000182253 0 1.71305e-05 0 0)
(0.113804 -0.000888192 0 2.42558e-05 0 0)
(0.114772 0.00126887 0 7.33033e-05 0 0)
(0.183325 -0.0128715 0 0.00132445 0 0)
(0.193703 0.0218746 0 0.00431678 0 0)
(0.00737648 0.00208939 0 0.000878543 0 0)
(0.00152685 -0.000863973 0 0.00115848 0 0)
(0.0117341 -0.00151544 0 0.000482267 0 0)
(0.0199843 -0.00165099 0 0.000190574 0 0)
(0.02983 -0.00150796 0 0.000111455 0 0)
(0.045025 -0.00141299 0 9.0129e-05 0 0)
(0.0568974 -0.00156179 0 9.54863e-05 0 0)
(0.0692763 -0.00117646 0 7.15147e-05 0 0)
(0.0840006 -0.00151571 0 8.6882e-05 0 0)
(0.0887515 -0.00120583 0 7.30252e-05 0 0)
(0.107525 -0.00159214 0 9.26052e-05 0 0)
(0.105783 -0.00147573 0 9.04219e-05 0 0)
(0.128004 -0.00195527 0 0.00011912 0 0)
(0.122881 -0.00192689 0 0.000121032 0 0)
(0.1493 -0.00259965 0 0.000171219 0 0)
(0.141817 -0.00329077 0 0.000210638 0 0)
(0.18083 -0.0026684 0 0.000275812 0 0)
(0.172664 -0.00917084 0 0.000900339 0 0)
(0.263201 -0.00455539 0 0.000662359 0 0)
(0.287885 -0.0438364 0 0.0151989 0 0)
(0.0146926 0.00113322 0 0.000544247 0 0)
(0.0121055 0.000336406 0 0.00131082 0 0)
(0.0314673 0.000210978 0 0.000830084 0 0)
(0.0341074 -0.000790186 0 0.000462909 0 0)
(0.0479308 -0.000936615 0 0.000366567 0 0)
(0.0557628 -0.00159051 0 0.000354031 0 0)
(0.0729493 -0.0029188 0 0.00038432 0 0)
(0.0789459 -0.00214333 0 0.000277782 0 0)
(0.109663 -0.00420213 0 0.000333654 0 0)
(0.10329 -0.00291753 0 0.000230923 0 0)
(0.150657 -0.00509394 0 0.000312556 0 0)
(0.127831 -0.00386361 0 0.000261964 0 0)
(0.192401 -0.00655269 0 0.000417486 0 0)
(0.150732 -0.00484294 0 0.000373206 0 0)
(0.238542 -0.00918513 0 0.000696138 0 0)
(0.168529 -0.00599718 0 0.000631155 0 0)
(0.297212 -0.0127901 0 0.0012307 0 0)
(0.189427 -0.00857614 0 0.00152327 0 0)
(0.386537 -0.0207252 0 0.00362142 0 0)
(0.252774 -0.034252 0 0.0174394 0 0)
(0.0618647 0.000123757 0 0.000378719 0 0)
(0.0686888 -6.49784e-05 0 0.000993938 0 0)
(0.10942 -0.000598291 0 0.000795281 0 0)
(0.112356 -0.00153773 0 0.000512487 0 0)
(0.142563 -0.00105628 0 0.000485733 0 0)
(0.143705 -0.00204389 0 0.000549025 0 0)
(0.178696 -0.00398598 0 0.000679406 0 0)
(0.169648 -0.00229819 0 0.000546915 0 0)
(0.223502 -0.00724503 0 0.000740162 0 0)
(0.192795 -0.00414068 0 0.000504103 0 0)
(0.274386 -0.00978892 0 0.000729299 0 0)
(0.215035 -0.00651324 0 0.000578114 0 0)
(0.329167 -0.01303 0 0.000955661 0 0)
(0.23565 -0.00866913 0 0.000800404 0 0)
(0.390006 -0.0182101 0 0.00155103 0 0)
(0.248786 -0.0104338 0 0.0012789 0 0)
(0.462415 -0.0244718 0 0.00247642 0 0)
(0.252754 -0.0129582 0 0.00311815 0 0)
(0.560179 -0.0320708 0 0.00544148 0 0)
(0.259396 -0.0284871 0 0.0214461 0 0)
(0.240977 -0.000935177 0 0.000382678 0 0)
(0.226276 -0.000855424 0 0.000860681 0 0)
(0.266 -0.00406643 0 0.000915835 0 0)
(0.242386 -0.00433211 0 0.000702573 0 0)
(0.27868 -0.00435341 0 0.000687176 0 0)
(0.255825 -0.00562568 0 0.000763908 0 0)
(0.300259 -0.00769761 0 0.00103389 0 0)
(0.268363 -0.0051967 0 0.000838495 0 0)
(0.329732 -0.0120396 0 0.00131641 0 0)
(0.281461 -0.00711568 0 0.000925176 0 0)
(0.362232 -0.0154574 0 0.00143564 0 0)
(0.295596 -0.0101848 0 0.00108601 0 0)
(0.394987 -0.0197537 0 0.00184343 0 0)
(0.310716 -0.0129904 0 0.00139889 0 0)
(0.42854 -0.0264225 0 0.0027581 0 0)
(0.322859 -0.0154899 0 0.00200865 0 0)
(0.466771 -0.0343816 0 0.00420659 0 0)
(0.327361 -0.0180369 0 0.00430405 0 0)
(0.517889 -0.0423189 0 0.00834708 0 0)
(0.318554 -0.0226259 0 0.0260361 0 0)
(0.293063 -0.00578936 0 0.00120956 0 0)
(0.238214 -0.00334909 0 0.00170064 0 0)
(0.237757 -0.00927653 0 0.00212061 0 0)
(0.19576 -0.00619477 0 0.00144573 0 0)
(0.211269 -0.00889987 0 0.00184622 0 0)
(0.187165 -0.00792843 0 0.00162533 0 0)
(0.198927 -0.0104159 0 0.00224099 0 0)
(0.181689 -0.00756782 0 0.00168589 0 0)
(0.193578 -0.0129423 0 0.00274132 0 0)
(0.182751 -0.00918039 0 0.00186126 0 0)
(0.191647 -0.0150282 0 0.00309598 0 0)
(0.1893 -0.0118488 0 0.00218439 0 0)
(0.189756 -0.0173077 0 0.00369863 0 0)
(0.200661 -0.014386 0 0.00266126 0 0)
(0.186844 -0.020462 0 0.00504787 0 0)
(0.216505 -0.0171431 0 0.00340956 0 0)
(0.182083 -0.0235213 0 0.00736758 0 0)
(0.236434 -0.0200435 0 0.0058137 0 0)
(0.176552 -0.0241904 0 0.0142647 0 0)
(0.257987 -0.0221635 0 0.0225013 0 0)
(0.123878 -0.00779337 0 0.00255164 0 0)
(0.104201 -0.00761129 0 0.00359801 0 0)
(0.0948381 -0.00795441 0 0.00346826 0 0)
(0.0895772 -0.00834268 0 0.00297307 0 0)
(0.0895194 -0.00779451 0 0.00352614 0 0)
(0.0926782 -0.00849315 0 0.00331338 0 0)
(0.0874256 -0.00767424 0 0.00370381 0 0)
(0.0957723 -0.008327 0 0.00338769 0 0)
(0.0872555 -0.00780361 0 0.00413216 0 0)
(0.103118 -0.00896782 0 0.00364791 0 0)
(0.0868445 -0.00805633 0 0.0045979 0 0)
(0.112445 -0.00994792 0 0.00413039 0 0)
(0.0893231 -0.00785485 0 0.00532393 0 0)
(0.123014 -0.0109243 0 0.00485028 0 0)
(0.0932388 -0.00651707 0 0.00678649 0 0)
(0.13637 -0.0119749 0 0.00600057 0 0)
(0.0968946 -0.00319454 0 0.00942638 0 0)
(0.155062 -0.0124265 0 0.00958255 0 0)
(0.101668 0.00582907 0 0.0170395 0 0)
(0.179601 -0.00908847 0 0.0304594 0 0)
(0.126157 -0.00771641 0 0.00333999 0 0)
(0.148592 -0.0128239 0 0.00653613 0 0)
(0.120555 -0.00629974 0 0.00490399 0 0)
(0.150253 -0.0101127 0 0.00445807 0 0)
(0.141585 -0.00725074 0 0.00495151 0 0)
(0.152609 -0.0083858 0 0.00512821 0 0)
(0.154833 -0.00561418 0 0.00477322 0 0)
(0.159319 -0.00817916 0 0.00522398 0 0)
(0.164075 -0.00421534 0 0.00525227 0 0)
(0.167653 -0.00758576 0 0.0055352 0 0)
(0.174929 -0.00299198 0 0.00575755 0 0)
(0.174112 -0.00665504 0 0.0061404 0 0)
(0.191094 -0.000740738 0 0.00645286 0 0)
(0.182286 -0.00602356 0 0.00711449 0 0)
(0.205404 0.00343451 0 0.00780089 0 0)
(0.19353 -0.00472527 0 0.00847833 0 0)
(0.22194 0.0099863 0 0.0101085 0 0)
(0.207941 -0.00173521 0 0.0129701 0 0)
(0.240723 0.0234277 0 0.0171993 0 0)
(0.226117 0.00722634 0 0.0336671 0 0)
(0.228914 -0.00416266 0 0.00335178 0 0)
(0.247628 -0.00884546 0 0.00856791 0 0)
(0.220602 -0.00174418 0 0.0054194 0 0)
(0.222455 -0.0047198 0 0.00515825 0 0)
(0.244943 -0.00236007 0 0.0053721 0 0)
(0.212332 -0.00280237 0 0.00574802 0 0)
(0.270021 -0.000222547 0 0.00493459 0 0)
(0.209342 -0.0020566 0 0.0058916 0 0)
(0.283554 0.00259628 0 0.00529668 0 0)
(0.211493 -0.00113858 0 0.00632959 0 0)
(0.295347 0.00498595 0 0.00576387 0 0)
(0.217056 0.000924653 0 0.00678128 0 0)
(0.307417 0.00835521 0 0.00644639 0 0)
(0.22583 0.00274338 0 0.00772172 0 0)
(0.320063 0.0132386 0 0.00730148 0 0)
(0.237518 0.00590861 0 0.00889567 0 0)
(0.331681 0.0205583 0 0.00883284 0 0)
(0.252835 0.0117147 0 0.0125821 0 0)
(0.344231 0.0342768 0 0.0144094 0 0)
(0.278643 0.0244799 0 0.0257308 0 0)
(0.253333 0.000115216 0 0.00276128 0 0)
(0.265658 0.000345647 0 0.00750002 0 0)
(0.249959 0.00200317 0 0.00457842 0 0)
(0.226019 0.00240044 0 0.00473413 0 0)
(0.264232 0.0027636 0 0.0044897 0 0)
(0.214985 0.00313841 0 0.00518286 0 0)
(0.273471 0.00445219 0 0.00420403 0 0)
(0.212579 0.0045186 0 0.00535543 0 0)
(0.272743 0.00717183 0 0.00438688 0 0)
(0.215737 0.00551238 0 0.00571931 0 0)
(0.275151 0.00897401 0 0.0048308 0 0)
(0.225073 0.00772247 0 0.0059693 0 0)
(0.279281 0.0118203 0 0.00520659 0 0)
(0.237718 0.00991734 0 0.00663257 0 0)
(0.281574 0.0158383 0 0.00561364 0 0)
(0.254657 0.0136339 0 0.00747587 0 0)
(0.283783 0.0215207 0 0.00649693 0 0)
(0.277877 0.0209427 0 0.0099907 0 0)
(0.28466 0.0320158 0 0.0103806 0 0)
(0.321919 0.0348329 0 0.0195007 0 0)
(0.160991 0.00222372 0 0.00225964 0 0)
(0.170982 0.00465721 0 0.00558108 0 0)
(0.148661 0.00417047 0 0.00366506 0 0)
(0.156102 0.00618505 0 0.00348373 0 0)
(0.15435 0.00527587 0 0.00374635 0 0)
(0.152522 0.00637462 0 0.00419527 0 0)
(0.157438 0.00610614 0 0.0035773 0 0)
(0.157335 0.00822778 0 0.00428628 0 0)
(0.153945 0.00791601 0 0.00362729 0 0)
(0.165166 0.00977613 0 0.00449461 0 0)
(0.153856 0.00911972 0 0.00391244 0 0)
(0.177773 0.0115543 0 0.00462356 0 0)
(0.156106 0.0111224 0 0.0040766 0 0)
(0.191804 0.0139501 0 0.00495848 0 0)
(0.157561 0.0135211 0 0.00426044 0 0)
(0.209883 0.0175282 0 0.00539536 0 0)
(0.160188 0.0165904 0 0.0047675 0 0)
(0.237234 0.0240067 0 0.00677596 0 0)
(0.161784 0.0229067 0 0.00728351 0 0)
(0.288564 0.0356844 0 0.0128534 0 0)
(0.0641781 0.00207892 0 0.00193333 0 0)
(0.0680067 0.00413327 0 0.00430999 0 0)
(0.0551446 0.00332209 0 0.00302895 0 0)
(0.0716234 0.00544464 0 0.00283587 0 0)
(0.0575629 0.00394208 0 0.00309939 0 0)
(0.0751506 0.00555173 0 0.00335846 0 0)
(0.0606521 0.00385054 0 0.00302794 0 0)
(0.081933 0.00696631 0 0.00348409 0 0)
(0.0605195 0.00458437 0 0.00296224 0 0)
(0.0907719 0.00821638 0 0.00348835 0 0)
(0.0603642 0.00500917 0 0.00309525 0 0)
(0.10185 0.00912906 0 0.00345972 0 0)
(0.062602 0.00565987 0 0.00312415 0 0)
(0.114086 0.0103901 0 0.00350914 0 0)
(0.0644435 0.0061254 0 0.00309813 0 0)
(0.129289 0.0121709 0 0.00357548 0 0)
(0.0660078 0.00712034 0 0.00326369 0 0)
(0.151626 0.0155779 0 0.00412417 0 0)
(0.0696323 0.0110347 0 0.00467146 0 0)
(0.190864 0.0216513 0 0.00789315 0 0)
(0.0193587 0.000610966 0 0.00155978 0 0)
(0.0179809 0.00132409 0 0.00327586 0 0)
(0.0143736 0.000838773 0 0.00254974 0 0)
(0.0228186 0.00241312 0 0.00223168 0 0)
(0.0170483 0.0012107 0 0.00241453 0 0)
(0.0268194 0.00237783 0 0.00244093 0 0)
(0.019214 0.000853343 0 0.00240629 0 0)
(0.0323165 0.00281669 0 0.00260081 0 0)
(0.0194666 0.000984702 0 0.00227977 0 0)
(0.0380007 0.00331041 0 0.00249985 0 0)
(0.0203191 0.00102307 0 0.00230937 0 0)
(0.0439554 0.00336637 0 0.00242385 0 0)
(0.0227739 0.00108418 0 0.00232259 0 0)
(0.0504634 0.00352692 0 0.00227933 0 0)
(0.0256323 0.00125938 0 0.00210514 0 0)
(0.0578677 0.00407427 0 0.00215086 0 0)
(0.0298884 0.00216561 0 0.00210676 0 0)
(0.0686272 0.00602735 0 0.00238885 0 0)
(0.0391675 0.005976 0 0.00305019 0 0)
(0.0894169 0.0111218 0 0.00518407 0 0)
(0.00759934 -0.000487321 0 0.00121362 0 0)
(0.00326903 -0.000951114 0 0.00262841 0 0)
(0.0038679 -0.00121253 0 0.00223399 0 0)
(0.006038 -0.000182936 0 0.00165018 0 0)
(0.00607667 -0.00037983 0 0.00180717 0 0)
(0.00893817 -0.000458351 0 0.00178954 0 0)
(0.00927868 -0.000773646 0 0.00188362 0 0)
(0.0121697 -0.000538303 0 0.00191908 0 0)
(0.011325 -0.00080087 0 0.00171258 0 0)
(0.0151548 -0.000228096 0 0.00176217 0 0)
(0.013649 -0.00071013 0 0.00168412 0 0)
(0.0184074 -0.000242773 0 0.00165452 0 0)
(0.0168791 -0.000658804 0 0.00163721 0 0)
(0.0224155 -0.000290204 0 0.00150761 0 0)
(0.02088 -0.000362585 0 0.00137752 0 0)
(0.0273202 0.000237766 0 0.00127899 0 0)
(0.0265953 0.000642845 0 0.00125665 0 0)
(0.035531 0.00203072 0 0.00141226 0 0)
(0.037991 0.00411187 0 0.00186943 0 0)
(0.052908 0.00800672 0 0.00348996 0 0)
(0.00794604 -0.000603255 0 0.000890317 0 0)
(0.00240446 -0.00106412 0 0.00208998 0 0)
(0.00338976 -0.00140416 0 0.00185005 0 0)
(0.00433288 -0.000896609 0 0.00127395 0 0)
(0.00650612 -0.000632667 0 0.00137485 0 0)
(0.00692904 -0.000876002 0 0.00136728 0 0)
(0.00937739 -0.00102271 0 0.00151455 0 0)
(0.00964577 -0.00131643 0 0.00156207 0 0)
(0.0121783 -0.00116636 0 0.00142007 0 0)
(0.0122682 -0.000939668 0 0.00136356 0 0)
(0.0148391 -0.00086049 0 0.0012607 0 0)
(0.0149218 -0.000806359 0 0.00121081 0 0)
(0.0178372 -0.000768742 0 0.00117604 0 0)
(0.0182211 -0.000920393 0 0.00106523 0 0)
(0.0212637 -0.000550368 0 0.000935729 0 0)
(0.022101 -0.000486978 0 0.000827798 0 0)
(0.0259409 0.000359912 0 0.000765143 0 0)
(0.0287823 0.000963115 0 0.000816259 0 0)
(0.0355847 0.00314437 0 0.00112943 0 0)
(0.0440415 0.00579405 0 0.00207636 0 0)
(0.00920143 -0.000542615 0 0.000543378 0 0)
(0.00355361 -0.000280844 0 0.00143966 0 0)
(0.00382455 -0.000800187 0 0.00132303 0 0)
(0.00501828 -0.000611503 0 0.000900444 0 0)
(0.00799937 -0.000528785 0 0.0010482 0 0)
(0.00782375 -0.000554844 0 0.000997385 0 0)
(0.0106464 -0.000768238 0 0.00107917 0 0)
(0.00959936 -0.000788123 0 0.00113112 0 0)
(0.0120154 -0.000853042 0 0.00105432 0 0)
(0.0103755 -0.000475185 0 0.000977325 0 0)
(0.0126928 -0.000520431 0 0.000864692 0 0)
(0.0105948 -0.000283756 0 0.000798252 0 0)
(0.0128281 -0.000338747 0 0.000728252 0 0)
(0.0104716 -0.000305069 0 0.000679826 0 0)
(0.0125603 -0.000192151 0 0.000570094 0 0)
(0.0105813 -0.000124379 0 0.00052689 0 0)
(0.0130259 0.000391379 0 0.000437188 0 0)
(0.0125903 0.000689891 0 0.000485567 0 0)
(0.0171169 0.00207272 0 0.000659555 0 0)
(0.0214884 0.00334374 0 0.00117079 0 0)
(0.00833495 -0.000826943 0 0.000390553 0 0)
(0.00308891 -0.000178387 0 0.00116326 0 0)
(0.00364358 -0.000505145 0 0.000960047 0 0)
(0.00529783 -0.000472414 0 0.000593394 0 0)
(0.00743352 -0.000426855 0 0.00067591 0 0)
(0.00636909 -0.000308943 0 0.000677837 0 0)
(0.007108 -0.000275077 0 0.000700942 0 0)
(0.00531085 9.70497e-05 0 0.000685698 0 0)
(0.00515161 0.000131783 0 0.000604992 0 0)
(0.00404969 0.000541696 0 0.000520816 0 0)
(0.00366134 0.000438658 0 0.000446201 0 0)
(0.0036512 0.000727487 0 0.000406018 0 0)
(0.00303124 0.000553353 0 0.000357827 0 0)
(0.00415451 0.000769112 0 0.000338399 0 0)
(0.00337259 0.000487044 0 0.000276299 0 0)
(0.00547963 0.000735307 0 0.000273228 0 0)
(0.00494058 0.000410375 0 0.00023431 0 0)
(0.00764816 0.000838507 0 0.000262005 0 0)
(0.00852441 0.000785803 0 0.000431824 0 0)
(0.012371 0.00169505 0 0.000593469 0 0)
(0.00732237 -0.00149834 0 0.000525999 0 0)
(0.00164692 -0.000546717 0 0.0013263 0 0)
(0.00178109 -0.000179805 0 0.000845753 0 0)
(0.00233184 5.35979e-05 0 0.000467385 0 0)
(0.00248567 0.000436801 0 0.000410532 0 0)
(0.00278443 0.000826063 0 0.000373423 0 0)
(0.00455108 0.00103412 0 0.000344605 0 0)
(0.00828734 0.00125613 0 0.000302577 0 0)
(0.0106391 0.00115617 0 0.000245696 0 0)
(0.0166253 0.00121612 0 0.000198614 0 0)
(0.0178327 0.00101398 0 0.000165148 0 0)
(0.0252536 0.00107613 0 0.000150579 0 0)
(0.0246539 0.000845155 0 0.000138125 0 0)
(0.033224 0.000953802 0 0.000130361 0 0)
(0.030997 0.000542921 0 0.000111709 0 0)
(0.0396666 0.000759671 0 0.000111385 0 0)
(0.0364858 -1.18325e-05 0 0.00010507 0 0)
(0.0428541 0.000577533 0 0.000125082 0 0)
(0.0404227 -0.000548406 0 0.000204501 0 0)
(0.0419288 0.00108732 0 0.00038926 0 0)
(0.00678982 -0.00216776 0 0.000869213 0 0)
(0.000942413 0.000802178 0 0.00115235 0 0)
(0.00621623 0.00161455 0 0.000479742 0 0)
(0.0124198 0.0014155 0 0.000188442 0 0)
(0.0196394 0.00133214 0 0.000116701 0 0)
(0.0291501 0.00120488 0 9.03386e-05 0 0)
(0.0377538 0.000994895 0 7.8277e-05 0 0)
(0.0474936 0.000837922 0 6.7224e-05 0 0)
(0.0532036 0.000652884 0 5.81282e-05 0 0)
(0.0617338 0.000583976 0 5.17862e-05 0 0)
(0.0643656 0.000463668 0 4.85111e-05 0 0)
(0.0724538 0.000474216 0 4.65476e-05 0 0)
(0.0726211 0.000355794 0 4.56244e-05 0 0)
(0.080868 0.000403244 0 4.1769e-05 0 0)
(0.0789498 0.000174716 0 3.81582e-05 0 0)
(0.0865875 0.000242385 0 3.54166e-05 0 0)
(0.0827602 -0.000241813 0 3.66512e-05 0 0)
(0.0866717 7.58185e-05 0 4.02416e-05 0 0)
(0.0834921 -0.000902691 0 7.0637e-05 0 0)
(0.077482 0.000429849 0 0.000223311 0 0)
(0.00127117 -7.67028e-05 0 0.00014496 0 0)
(0.0243896 0.000950407 0 5.30295e-05 0 0)
(0.0476379 8.53852e-05 0 1.25366e-05 0 0)
(0.0593282 -0.000148739 0 4.99977e-06 0 0)
(0.0679567 -0.000113878 0 3.52771e-06 0 0)
(0.0746716 -8.75946e-05 0 3.71701e-06 0 0)
(0.0788745 -6.15555e-05 0 4.3336e-06 0 0)
(0.0825752 -3.06807e-05 0 4.49318e-06 0 0)
(0.0845623 -2.167e-05 0 4.90522e-06 0 0)
(0.0872031 -5.04152e-06 0 4.87063e-06 0 0)
(0.0880404 -1.14065e-05 0 5.03189e-06 0 0)
(0.09025 3.0764e-06 0 4.73838e-06 0 0)
(0.0903603 -1.42447e-05 0 4.5763e-06 0 0)
(0.0924142 -1.55158e-07 0 3.96636e-06 0 0)
(0.0917358 -4.08325e-05 0 3.66565e-06 0 0)
(0.0931906 -3.47557e-05 0 3.08312e-06 0 0)
(0.0911208 -0.0001125 0 2.99722e-06 0 0)
(0.0905475 -9.29074e-05 0 2.97278e-06 0 0)
(0.0878966 -0.000328865 0 4.74601e-06 0 0)
(0.0794829 0.000436423 0 3.04604e-05 0 0)
(0.366629 -0.180874 0 0.112421 0 0)
(0.407352 -0.215014 0 0.158578 0 0)
(0.412403 -0.205433 0 0.189129 0 0)
(0.434136 -0.180527 0 0.210703 0 0)
(0.443442 -0.151936 0 0.223209 0 0)
(0.514571 -0.133422 0 0.231904 0 0)
(0.559167 -0.127588 0 0.240351 0 0)
(0.676905 -0.141052 0 0.252886 0 0)
(0.742555 -0.160099 0 0.267673 0 0)
(0.865732 -0.186466 0 0.282855 0 0)
(0.912664 -0.20498 0 0.299199 0 0)
(1.02485 -0.228809 0 0.319672 0 0)
(1.05742 -0.239708 0 0.341118 0 0)
(1.1702 -0.261689 0 0.360518 0 0)
(1.20574 -0.27522 0 0.373424 0 0)
(1.32718 -0.306373 0 0.383796 0 0)
(1.3601 -0.3331 0 0.397267 0 0)
(1.49212 -0.378345 0 0.417815 0 0)
(1.51894 -0.409623 0 0.446758 0 0)
(1.6836 -0.457411 0 0.483191 0 0)
(1.73625 -0.485014 0 0.513965 0 0)
(1.94308 -0.540376 0 0.546656 0 0)
(2.00246 -0.577585 0 0.578274 0 0)
(2.2265 -0.642916 0 0.613141 0 0)
(2.28195 -0.680562 0 0.646353 0 0)
(2.51573 -0.749704 0 0.684939 0 0)
(2.57342 -0.782999 0 0.721127 0 0)
(2.81977 -0.864138 0 0.76085 0 0)
(2.8902 -0.901992 0 0.799066 0 0)
(3.15162 -0.999209 0 0.845869 0 0)
(3.23803 -1.04339 0 0.893287 0 0)
(3.52778 -1.15443 0 0.946733 0 0)
(3.62817 -1.20271 0 0.998028 0 0)
(3.95921 -1.33229 0 1.05494 0 0)
(4.05862 -1.38684 0 1.10856 0 0)
(4.41838 -1.53413 0 1.16812 0 0)
(4.48454 -1.58493 0 1.2194 0 0)
(4.8473 -1.73639 0 1.27616 0 0)
(4.86298 -1.77319 0 1.32453 0 0)
(5.21143 -1.92165 0 1.37988 0 0)
(5.17771 -1.93143 0 1.42709 0 0)
(5.49099 -2.06565 0 1.48147 0 0)
(5.41399 -2.04973 0 1.52562 0 0)
(5.7109 -2.17314 0 1.58062 0 0)
(5.60815 -2.14444 0 1.62401 0 0)
(5.92354 -2.26798 0 1.68147 0 0)
(5.8092 -2.23385 0 1.72642 0 0)
(6.17084 -2.36753 0 1.79122 0 0)
(6.0521 -2.33555 0 1.84047 0 0)
(6.4678 -2.48072 0 1.91833 0 0)
(6.33103 -2.45711 0 1.97721 0 0)
(6.79287 -2.60785 0 2.07308 0 0)
(6.58971 -2.57636 0 2.14609 0 0)
(7.07467 -2.72087 0 2.25188 0 0)
(6.75883 -2.64669 0 2.32029 0 0)
(7.24063 -2.77604 0 2.41849 0 0)
(6.8055 -2.64491 0 2.46141 0 0)
(7.28978 -2.76421 0 2.53577 0 0)
(6.75611 -2.59729 0 2.5568 0 0)
(7.28979 -2.72917 0 2.61657 0 0)
(6.66817 -2.55565 0 2.63842 0 0)
(7.28169 -2.71502 0 2.70554 0 0)
(6.55702 -2.53141 0 2.73974 0 0)
(7.22581 -2.70424 0 2.82183 0 0)
(6.39503 -2.4787 0 2.84949 0 0)
(7.08955 -2.62384 0 2.92095 0 0)
(6.19907 -2.3509 0 2.90145 0 0)
(6.95347 -2.43286 0 2.91631 0 0)
(6.03665 -2.16584 0 2.86906 0 0)
(6.94352 -2.25123 0 2.89154 0 0)
(5.98233 -2.0181 0 2.88038 0 0)
(7.07451 -2.14124 0 2.91274 0 0)
(6.02034 -1.90354 0 2.9016 0 0)
(7.31281 -2.10203 0 2.94305 0 0)
(6.12793 -1.84578 0 2.96711 0 0)
(7.57714 -2.12532 0 3.05628 0 0)
(6.28931 -1.83076 0 3.11779 0 0)
(7.79623 -2.16914 0 3.25741 0 0)
(6.43289 -1.83826 0 3.33016 0 0)
(7.95353 -2.18112 0 3.49613 0 0)
(6.47397 -1.82687 0 3.55055 0 0)
(8.06871 -2.16739 0 3.69149 0 0)
(6.44201 -1.80125 0 3.71142 0 0)
(8.16258 -2.16535 0 3.82817 0 0)
(6.41162 -1.7711 0 3.815 0 0)
(8.1718 -2.14666 0 3.92701 0 0)
(6.44715 -1.73628 0 3.914 0 0)
(8.16862 -2.11014 0 4.06907 0 0)
(6.55218 -1.72263 0 4.08846 0 0)
(8.26449 -2.07824 0 4.27582 0 0)
(6.7228 -1.74389 0 4.3092 0 0)
(8.45914 -2.12148 0 4.48739 0 0)
(6.99408 -1.82451 0 4.52731 0 0)
(8.75822 -2.22704 0 4.72136 0 0)
(7.32513 -1.93493 0 4.7763 0 0)
(9.04961 -2.36785 0 5.00967 0 0)
(7.66007 -2.06591 0 5.09552 0 0)
(9.27243 -2.50062 0 5.38408 0 0)
(7.90168 -2.18592 0 5.51245 0 0)
(9.28819 -2.58888 0 5.85441 0 0)
(7.9539 -2.24587 0 6.01964 0 0)
(9.19043 -2.62973 0 6.38492 0 0)
(7.83581 -2.27097 0 6.57838 0 0)
(9.0518 -2.66074 0 6.97157 0 0)
(7.64783 -2.2899 0 7.06689 0 0)
(8.91573 -2.69307 0 7.4096 0 0)
(7.46733 -2.2415 0 7.42131 0 0)
(8.83723 -2.64802 0 7.66936 0 0)
(7.35492 -2.127 0 7.6241 0 0)
(8.78384 -2.58468 0 7.89395 0 0)
(7.30642 -2.03556 0 7.80448 0 0)
(8.71182 -2.50667 0 8.02858 0 0)
(7.36873 -1.9377 0 7.892 0 0)
(8.67625 -2.39667 0 8.1268 0 0)
(7.50809 -1.80644 0 8.01693 0 0)
(8.61963 -2.24127 0 8.27622 0 0)
(7.62252 -1.69631 0 8.24297 0 0)
(8.54462 -2.10612 0 8.56225 0 0)
(7.75801 -1.62892 0 8.5975 0 0)
(8.55125 -2.00629 0 8.95854 0 0)
(7.93892 -1.59661 0 9.06594 0 0)
(8.56353 -1.91997 0 9.42048 0 0)
(8.01262 -1.50219 0 9.55591 0 0)
(8.4944 -1.79962 0 9.86118 0 0)
(7.97296 -1.39663 0 9.95339 0 0)
(8.38175 -1.67644 0 10.2027 0 0)
(7.81474 -1.27506 0 10.291 0 0)
(8.23972 -1.55833 0 10.5242 0 0)
(7.70727 -1.19643 0 10.6015 0 0)
(8.12605 -1.48402 0 10.7765 0 0)
(7.74253 -1.21286 0 10.9122 0 0)
(8.09404 -1.44573 0 11.0879 0 0)
(7.85786 -1.26218 0 11.241 0 0)
(8.08164 -1.38404 0 11.3765 0 0)
(7.92167 -1.29157 0 11.5326 0 0)
(8.05628 -1.28997 0 11.6499 0 0)
(7.98961 -1.2405 0 11.7941 0 0)
(8.08354 -1.15095 0 11.9424 0 0)
(8.03561 -1.13049 0 12.1345 0 0)
(8.0875 -0.989786 0 12.2953 0 0)
(8.01431 -1.0004 0 12.5129 0 0)
(7.989 -0.800545 0 12.6228 0 0)
(7.98421 -0.837163 0 12.8446 0 0)
(7.85016 -0.609715 0 12.9923 0 0)
(7.82083 -0.609642 0 13.2688 0 0)
(7.63792 -0.388496 0 13.3374 0 0)
(7.64338 -0.340759 0 13.4754 0 0)
(7.47298 -0.19581 0 13.5319 0 0)
(7.49943 -0.0566511 0 13.6985 0 0)
(7.30487 -0.0238237 0 13.7371 0 0)
(7.33063 0.170958 0 13.8356 0 0)
(7.12686 0.127523 0 13.8102 0 0)
(7.14894 0.378355 0 13.8977 0 0)
(6.98604 0.290657 0 13.8604 0 0)
(6.99933 0.537391 0 13.9249 0 0)
(6.8876 0.399362 0 13.8631 0 0)
(6.91701 0.643074 0 13.9421 0 0)
(6.8872 0.509646 0 13.8801 0 0)
(6.89893 0.698955 0 13.9395 0 0)
(6.83006 0.542729 0 13.9003 0 0)
(6.81167 0.724475 0 14.0259 0 0)
(6.778 0.520326 0 14.0521 0 0)
(6.67162 0.681314 0 14.1053 0 0)
(6.74583 0.462396 0 14.1218 0 0)
(6.6267 0.612708 0 14.077 0 0)
(6.72464 0.34332 0 14.0604 0 0)
(6.60889 0.518506 0 14.0442 0 0)
(6.6724 0.133538 0 13.9767 0 0)
(6.5493 0.377351 0 13.9447 0 0)
(6.63975 -0.0345432 0 13.7118 0 0)
(6.44212 0.0793745 0 13.6051 0 0)
(6.65094 -0.238653 0 13.3765 0 0)
(6.25839 -0.15081 0 13.0095 0 0)
(6.72243 -0.528871 0 12.6728 0 0)
(6.16124 -0.223916 0 12.2678 0 0)
(6.74947 -0.668446 0 11.936 0 0)
(6.1839 -0.245978 0 11.5534 0 0)
(6.78077 -0.739559 0 11.1408 0 0)
(6.22671 -0.325385 0 10.9495 0 0)
(6.73502 -0.682126 0 10.432 0 0)
(6.27413 -0.467025 0 10.4186 0 0)
(6.52741 -0.637116 0 9.64835 0 0)
(6.13654 -0.660597 0 9.94498 0 0)
(6.26944 -0.549338 0 8.8776 0 0)
(5.93352 -0.836383 0 9.47229 0 0)
(5.98515 -0.33715 0 8.14747 0 0)
(5.71758 -0.931083 0 9.13442 0 0)
(5.6111 -0.0858296 0 7.62516 0 0)
(5.38268 -0.895749 0 9.04921 0 0)
(5.21472 0.294155 0 7.4394 0 0)
(4.92535 -0.746203 0 9.29868 0 0)
(4.80074 0.778773 0 7.58822 0 0)
(4.4134 -0.523078 0 10.0248 0 0)
(4.16516 1.31641 0 8.18767 0 0)
(4.00061 -0.0939843 0 11.5055 0 0)
(3.56425 2.25647 0 9.8698 0 0)
(3.60341 0.350574 0 13.935 0 0)
(2.85741 3.51983 0 12.9773 0 0)
(3.3566 2.38797 0 19.5285 0 0)
(1.04863 0.647076 0 21.8273 0 0)
(0.330006 -0.149387 0 0.127008 0 0)
(0.307537 -0.159207 0 0.165592 0 0)
(0.315067 -0.143975 0 0.174825 0 0)
(0.28852 -0.130772 0 0.179476 0 0)
(0.304033 -0.11526 0 0.17894 0 0)
(0.307086 -0.114093 0 0.177721 0 0)
(0.344166 -0.119769 0 0.181514 0 0)
(0.369559 -0.138366 0 0.191975 0 0)
(0.419078 -0.152872 0 0.204183 0 0)
(0.445212 -0.173618 0 0.216904 0 0)
(0.488609 -0.18486 0 0.230533 0 0)
(0.509999 -0.20536 0 0.247944 0 0)
(0.552359 -0.214669 0 0.265651 0 0)
(0.584504 -0.236606 0 0.283687 0 0)
(0.637229 -0.247539 0 0.299289 0 0)
(0.693177 -0.27802 0 0.315908 0 0)
(0.760574 -0.299882 0 0.334204 0 0)
(0.843629 -0.346972 0 0.35732 0 0)
(0.916908 -0.376374 0 0.38203 0 0)
(1.0151 -0.430128 0 0.411799 0 0)
(1.08418 -0.456672 0 0.440508 0 0)
(1.19907 -0.512812 0 0.472638 0 0)
(1.26716 -0.537728 0 0.50337 0 0)
(1.40304 -0.601007 0 0.538603 0 0)
(1.46909 -0.623693 0 0.572209 0 0)
(1.62925 -0.694868 0 0.613014 0 0)
(1.70116 -0.716007 0 0.651944 0 0)
(1.89281 -0.799104 0 0.697685 0 0)
(1.97885 -0.826467 0 0.740008 0 0)
(2.19953 -0.927079 0 0.790837 0 0)
(2.29336 -0.962992 0 0.83745 0 0)
(2.53312 -1.07918 0 0.892351 0 0)
(2.61821 -1.11706 0 0.941156 0 0)
(2.86677 -1.24331 0 0.998292 0 0)
(2.92524 -1.27635 0 1.04754 0 0)
(3.17442 -1.40717 0 1.1048 0 0)
(3.18512 -1.42558 0 1.153 0 0)
(3.42778 -1.55338 0 1.20668 0 0)
(3.38082 -1.55143 0 1.25161 0 0)
(3.62255 -1.67621 0 1.30246 0 0)
(3.52844 -1.65332 0 1.34329 0 0)
(3.78204 -1.77514 0 1.3932 0 0)
(3.65867 -1.73616 0 1.4318 0 0)
(3.94329 -1.86261 0 1.48659 0 0)
(3.80906 -1.81611 0 1.52656 0 0)
(4.13352 -1.95583 0 1.59301 0 0)
(3.99719 -1.90818 0 1.63788 0 0)
(4.35897 -2.06226 0 1.71647 0 0)
(4.21132 -2.01145 0 1.76598 0 0)
(4.6029 -2.17357 0 1.8528 0 0)
(4.41284 -2.10784 0 1.90601 0 0)
(4.83166 -2.27262 0 1.99612 0 0)
(4.5603 -2.17046 0 2.05065 0 0)
(5.00284 -2.33445 0 2.13776 0 0)
(4.63125 -2.17732 0 2.18549 0 0)
(5.09707 -2.34281 0 2.26259 0 0)
(4.64337 -2.13479 0 2.29741 0 0)
(5.14414 -2.31372 0 2.36825 0 0)
(4.64453 -2.08351 0 2.39479 0 0)
(5.18924 -2.28534 0 2.47917 0 0)
(4.6659 -2.06688 0 2.5079 0 0)
(5.25028 -2.27274 0 2.6022 0 0)
(4.68897 -2.0678 0 2.62564 0 0)
(5.30105 -2.23546 0 2.70746 0 0)
(4.66404 -2.01958 0 2.71018 0 0)
(5.30792 -2.12885 0 2.75135 0 0)
(4.58052 -1.88475 0 2.71937 0 0)
(5.31634 -1.97914 0 2.73998 0 0)
(4.52659 -1.73723 0 2.71695 0 0)
(5.40097 -1.87327 0 2.76677 0 0)
(4.55618 -1.6293 0 2.75595 0 0)
(5.59031 -1.81327 0 2.8239 0 0)
(4.67902 -1.55348 0 2.8169 0 0)
(5.85486 -1.81071 0 2.89762 0 0)
(4.87591 -1.52632 0 2.91831 0 0)
(6.13412 -1.85932 0 3.03798 0 0)
(5.10161 -1.53545 0 3.0937 0 0)
(6.36294 -1.89804 0 3.25062 0 0)
(5.27325 -1.52291 0 3.30862 0 0)
(6.50904 -1.88293 0 3.47682 0 0)
(5.34297 -1.48738 0 3.51667 0 0)
(6.62485 -1.86508 0 3.66351 0 0)
(5.41395 -1.47445 0 3.67982 0 0)
(6.72783 -1.86766 0 3.79667 0 0)
(5.54068 -1.49894 0 3.77269 0 0)
(6.83334 -1.86435 0 3.90222 0 0)
(5.71643 -1.54306 0 3.89514 0 0)
(6.98138 -1.86535 0 4.05727 0 0)
(5.95509 -1.58345 0 4.08271 0 0)
(7.21792 -1.8828 0 4.27098 0 0)
(6.22681 -1.64836 0 4.3054 0 0)
(7.52815 -1.97487 0 4.48403 0 0)
(6.53121 -1.73934 0 4.53835 0 0)
(7.88299 -2.09423 0 4.74422 0 0)
(6.85911 -1.84574 0 4.80948 0 0)
(8.22015 -2.24468 0 5.04485 0 0)
(7.2031 -1.96783 0 5.1427 0 0)
(8.50587 -2.37867 0 5.43076 0 0)
(7.4787 -2.07057 0 5.55541 0 0)
(8.63056 -2.4562 0 5.8949 0 0)
(7.60172 -2.10508 0 6.03933 0 0)
(8.58704 -2.48324 0 6.4245 0 0)
(7.50822 -2.08211 0 6.58254 0 0)
(8.46188 -2.46776 0 6.96305 0 0)
(7.26569 -2.04522 0 7.01156 0 0)
(8.3146 -2.44339 0 7.34517 0 0)
(7.00976 -1.93485 0 7.3353 0 0)
(8.21677 -2.35969 0 7.62111 0 0)
(6.86406 -1.79452 0 7.56404 0 0)
(8.20514 -2.24389 0 7.83067 0 0)
(6.84828 -1.65967 0 7.72936 0 0)
(8.25514 -2.10062 0 7.9606 0 0)
(6.98575 -1.536 0 7.8363 0 0)
(8.36798 -1.94626 0 8.08574 0 0)
(7.18046 -1.44441 0 8.00967 0 0)
(8.46051 -1.86546 0 8.268 0 0)
(7.43915 -1.41171 0 8.2675 0 0)
(8.57491 -1.81573 0 8.57264 0 0)
(7.71843 -1.38616 0 8.65776 0 0)
(8.72482 -1.77122 0 9.00528 0 0)
(7.90204 -1.35487 0 9.13779 0 0)
(8.79983 -1.69123 0 9.48345 0 0)
(7.90335 -1.23649 0 9.61988 0 0)
(8.73298 -1.56087 0 9.94534 0 0)
(7.78638 -1.0567 0 10.0518 0 0)
(8.60437 -1.42819 0 10.3208 0 0)
(7.671 -0.92551 0 10.4066 0 0)
(8.4698 -1.34907 0 10.646 0 0)
(7.63535 -0.944666 0 10.7642 0 0)
(8.39689 -1.33749 0 10.9477 0 0)
(7.7034 -1.07966 0 11.086 0 0)
(8.39373 -1.32104 0 11.248 0 0)
(7.84514 -1.17177 0 11.3883 0 0)
(8.40809 -1.25944 0 11.5411 0 0)
(7.96852 -1.21259 0 11.7007 0 0)
(8.53516 -1.19628 0 11.7885 0 0)
(8.14071 -1.20285 0 11.9409 0 0)
(8.67907 -1.09823 0 12.0649 0 0)
(8.25519 -1.1355 0 12.2993 0 0)
(8.72983 -0.943776 0 12.438 0 0)
(8.24429 -0.976373 0 12.7138 0 0)
(8.65524 -0.753132 0 12.7916 0 0)
(8.13883 -0.795496 0 13.0532 0 0)
(8.46431 -0.516166 0 13.1857 0 0)
(7.86688 -0.527133 0 13.5008 0 0)
(8.22415 -0.240371 0 13.5316 0 0)
(7.58862 -0.28397 0 13.7292 0 0)
(7.99235 -0.0109534 0 13.7559 0 0)
(7.29419 -0.0383584 0 13.936 0 0)
(7.69869 0.186835 0 13.9666 0 0)
(7.09652 0.233862 0 14.0948 0 0)
(7.45112 0.31354 0 14.001 0 0)
(6.94438 0.410368 0 14.1142 0 0)
(7.34851 0.430073 0 14.1356 0 0)
(6.85536 0.541374 0 14.174 0 0)
(7.3101 0.425538 0 14.0872 0 0)
(6.84249 0.647203 0 14.1987 0 0)
(7.27286 0.474831 0 14.1799 0 0)
(6.81664 0.68559 0 14.2167 0 0)
(7.14061 0.479763 0 14.2961 0 0)
(6.76644 0.738888 0 14.336 0 0)
(7.05896 0.43255 0 14.3601 0 0)
(6.67051 0.709487 0 14.4306 0 0)
(7.01265 0.41048 0 14.4262 0 0)
(6.54428 0.639932 0 14.4497 0 0)
(6.91144 0.277204 0 14.394 0 0)
(6.44105 0.562927 0 14.4776 0 0)
(6.83381 0.167954 0 14.3741 0 0)
(6.39706 0.452986 0 14.2822 0 0)
(6.77294 0.0364461 0 14.1679 0 0)
(6.25866 0.3329 0 14.0733 0 0)
(6.67279 -0.17643 0 13.7918 0 0)
(6.15377 0.229158 0 13.5052 0 0)
(6.48163 -0.42772 0 13.0716 0 0)
(6.23136 0.0945228 0 12.6487 0 0)
(6.30494 -0.652258 0 12.1671 0 0)
(6.39271 -0.0752548 0 11.9086 0 0)
(6.21024 -0.773711 0 11.4144 0 0)
(6.47961 -0.365817 0 11.2982 0 0)
(6.1785 -0.763641 0 10.6248 0 0)
(6.47048 -0.628143 0 10.9068 0 0)
(6.10895 -0.704244 0 9.87896 0 0)
(6.32905 -0.982396 0 10.4946 0 0)
(5.84856 -0.599283 0 9.04372 0 0)
(6.10945 -1.31375 0 10.0583 0 0)
(5.59339 -0.405715 0 8.19574 0 0)
(5.83389 -1.49394 0 9.74448 0 0)
(5.48081 -0.153187 0 7.54053 0 0)