/*--------------------------------*- C++ -*----------------------------------*\
| =========                 |                                                 |
| \\      /  F ield         | OpenFOAM: The Open Source CFD Toolbox           |
|  \\    /   O peration     | Version:  2.4.0                                 |
|   \\  /    A nd           | Web:      www.OpenFOAM.org                      |
|    \\/     M anipulation  |                                                 |
\*---------------------------------------------------------------------------*/
FoamFile
{
    version     2.0;
    format      ascii;
    class       volScalarField;
    location    "0.88";
    object      k_0;
}
// * * * * * * * * * * * * * * * * * * * * * * * * * * * * * * * * * * * * * //

dimensions      [0 2 -2 0 0 0 0];

internalField   nonuniform List<scalar> 
8800
(
8.12142
10.2657
8.79379
6.82138
5.70672
4.97107
4.52981
4.14008
3.91836
3.66559
3.54603
3.36912
3.29634
3.16577
3.09959
2.99347
2.92246
2.8252
2.75781
2.5694
1.40468
4.3515
5.31984
5.28854
5.13098
4.80718
4.57565
4.28571
4.12015
3.88282
3.77283
3.58954
3.518
3.38072
3.32698
3.21673
3.17523
3.08363
3.01375
2.97182
0.0843982
0.731778
1.56284
1.94147
2.28059
2.43332
2.5741
2.60412
2.6216
2.60054
2.58883
2.54083
2.52351
2.47172
2.45904
2.41055
2.40411
2.36227
2.34778
2.30339
0.00335007
0.0699717
0.258531
0.416188
0.591332
0.698622
0.833572
0.934381
1.02355
1.08873
1.16987
1.20373
1.26595
1.29139
1.34356
1.36193
1.4025
1.41896
1.45819
1.45487
0.000123117
0.00495781
0.0231507
0.0497854
0.0921496
0.123971
0.156862
0.21251
0.238651
0.285749
0.317031
0.361286
0.383318
0.428919
0.452559
0.500431
0.521674
0.573033
0.594592
0.646958
2.49959e-05
0.000310515
0.0014745
0.00412653
0.00758846
0.0128948
0.0170284
0.0271633
0.0325777
0.0444042
0.0507994
0.0646815
0.0711387
0.0853945
0.0930182
0.110362
0.118079
0.138133
0.146611
0.169304
2.16483e-05
4.3779e-05
0.000118846
0.000324886
0.000508861
0.000894816
0.00121967
0.00205625
0.00259528
0.00385212
0.00458282
0.00642171
0.00734461
0.0093478
0.0106961
0.0137779
0.0151588
0.018867
0.0206834
0.0246605
2.11971e-05
3.08113e-05
4.50703e-05
7.27604e-05
9.28913e-05
0.000111339
0.000130621
0.000184993
0.000213561
0.000281629
0.000316215
0.000443087
0.000520171
0.000590957
0.000758065
0.000998252
0.00107784
0.00139052
0.00154602
0.00179576
2.07861e-05
3.09571e-05
4.07803e-05
6.23005e-05
6.90096e-05
6.95118e-05
6.91535e-05
7.59855e-05
8.3599e-05
8.9228e-05
9.5766e-05
9.77913e-05
9.82183e-05
9.9873e-05
0.000104313
0.000117728
0.000128594
0.000145833
0.000147076
0.000147773
2.05436e-05
3.06662e-05
4.00464e-05
4.85516e-05
6.45583e-05
6.95143e-05
6.9531e-05
6.76707e-05
6.7567e-05
6.80101e-05
7.18296e-05
7.77913e-05
7.79668e-05
7.83213e-05
7.83931e-05
7.73075e-05
7.71593e-05
7.94506e-05
8.04784e-05
8.35126e-05
2.06242e-05
2.68433e-05
4.5803e-05
5.52968e-05
5.96734e-05
6.03841e-05
6.19016e-05
7.13565e-05
7.44866e-05
7.38341e-05
7.36827e-05
7.38093e-05
7.38654e-05
7.40957e-05
7.59529e-05
8.08629e-05
8.16532e-05
8.19008e-05
8.21736e-05
8.4966e-05
2.07539e-05
3.10414e-05
4.71215e-05
5.22951e-05
6.66106e-05
7.04914e-05
7.90039e-05
8.21591e-05
8.09582e-05
8.16764e-05
8.45424e-05
9.41656e-05
0.000102203
0.000112459
0.00011632
0.00012525
0.00013257
0.000149213
0.000169123
0.000225244
2.10707e-05
3.19558e-05
4.44931e-05
7.65333e-05
9.21307e-05
0.000116793
0.000133245
0.000173226
0.000197407
0.000284114
0.000339045
0.000446997
0.000523387
0.00070295
0.000786378
0.00104367
0.00124032
0.00167701
0.00203414
0.00298535
2.16355e-05
4.27969e-05
0.00011906
0.000365714
0.000522361
0.000862949
0.0011786
0.00200317
0.00255002
0.00401154
0.00477643
0.00646364
0.00750841
0.00989296
0.0111349
0.0143926
0.0164065
0.0211413
0.024291
0.0325634
2.49785e-05
0.000307105
0.00146125
0.00485983
0.00727308
0.0125425
0.0169046
0.0269207
0.032447
0.0454609
0.0516934
0.0650029
0.072043
0.0875131
0.0948794
0.113457
0.123318
0.147053
0.160993
0.197976
0.000123145
0.00491908
0.0219785
0.0579307
0.0837144
0.123931
0.159287
0.210928
0.236953
0.291937
0.315768
0.363068
0.386214
0.43531
0.456897
0.509692
0.534651
0.595539
0.626066
0.702829
0.00335723
0.069415
0.261973
0.419183
0.583943
0.700401
0.836575
0.931633
1.01939
1.10234
1.15862
1.21638
1.2593
1.31102
1.33506
1.3875
1.40892
1.46314
1.48589
1.53551
0.0844402
0.726376
1.57048
1.93829
2.28178
2.42898
2.58306
2.59659
2.62627
2.60037
2.58969
2.54107
2.52622
2.47714
2.46323
2.42152
2.41219
2.38461
2.37224
2.34241
1.40457
4.3503
5.32342
5.28696
5.13286
4.79763
4.58889
4.27379
4.13384
3.86705
3.7783
3.57892
3.51903
3.36421
3.32642
3.19434
3.16337
3.04097
2.99688
2.8889
8.11918
10.2664
8.79772
6.81414
5.71594
4.95953
4.5387
4.12825
3.92966
3.64513
3.55322
3.34562
3.29649
3.12476
3.09186
2.92444
2.88524
2.70026
2.62912
2.40736
1.78875
1.32493
1.07432
0.928966
0.836523
0.777811
0.733736
0.698174
0.66914
0.640153
0.618819
0.597405
0.581237
0.565101
0.551459
0.53877
0.52682
0.516906
0.508398
0.502313
0.495328
0.490337
0.479229
0.4748
0.464264
0.462349
0.45744
0.456353
0.457315
0.460065
0.461026
0.465048
0.466314
0.468725
0.468547
0.467853
0.466838
0.464714
0.461454
0.457692
0.4551
0.448685
0.445567
0.438875
0.436066
0.431936
0.429806
0.425495
0.418594
0.413423
0.40643
0.403964
0.404098
0.406371
0.412568
0.421778
0.433326
0.439184
0.451019
0.46861
0.47219
0.465632
0.451746
0.420224
0.383733
0.336441
0.292915
0.251817
0.218907
0.190996
0.170839
0.154884
0.142951
0.131262
0.124789
0.11709
0.108492
0.10474
0.104988
0.106635
0.112003
0.118556
0.135219
0.14681
0.168681
0.18317
0.206541
0.223414
0.245995
0.253524
0.269828
0.273424
0.278554
0.280015
0.279842
0.278142
0.274842
0.265685
0.257731
0.239086
0.220158
0.200322
0.171091
0.141602
0.113214
0.0837209
0.061189
0.044806
0.0333261
0.0247319
0.0185492
0.0141781
0.0107865
0.00846939
0.00671179
0.00548969
0.00452108
0.00390272
0.00340145
0.00304712
0.00278823
0.00261827
0.00250461
0.00238823
0.0023733
0.00237583
0.00245532
0.00250339
0.00267408
0.00279061
0.00312249
0.00330687
0.00386729
0.00416286
0.00491028
0.00541153
0.00619913
0.00702723
0.00753097
0.00825996
0.00835618
0.00829624
0.00795539
0.00749502
0.00721915
0.00681088
0.00675717
0.00677505
0.00705848
0.00754562
0.00879095
0.0101627
0.011908
0.0153586
0.0167197
0.0195978
0.0214559
0.0221784
0.0222349
0.0216856
0.0206513
0.0192582
0.0171409
0.0161998
0.0144731
0.0130649
0.0123697
0.0111804
0.0105091
0.0103355
0.00994186
0.00989493
0.00998483
0.0098969
0.00931059
0.00917978
0.00937876
0.00965632
0.0100286
0.0114949
0.0121544
0.0134738
0.0139871
0.0143633
0.0155371
0.019103
0.0211896
0.021227
0.0204147
0.0204034
0.020654
0.0253573
0.0311708
0.0633373
0.0674281
0.0783866
0.0884695
0.108419
0.237763
0.770534
2.51367
2.05167
1.71047
1.47462
1.31008
1.18796
1.09676
1.02066
0.960267
0.906655
0.863044
0.826149
0.795445
0.769645
0.746697
0.727333
0.708759
0.692583
0.675986
0.665016
0.650436
0.643338
0.628865
0.621935
0.607627
0.600879
0.588806
0.582149
0.571572
0.567354
0.559632
0.55604
0.551675
0.548553
0.545448
0.542261
0.539237
0.535613
0.532385
0.526977
0.523565
0.519323
0.51413
0.51128
0.505003
0.502835
0.497699
0.495711
0.489511
0.486143
0.477353
0.473372
0.464313
0.461357
0.455367
0.455134
0.455576
0.458197
0.461081
0.465347
0.471581
0.471754
0.471421
0.46974
0.465993
0.457035
0.446161
0.429034
0.417476
0.393923
0.382678
0.362538
0.351864
0.336142
0.324302
0.31357
0.30233
0.291154
0.28145
0.278424
0.278159
0.278948
0.28048
0.285936
0.288264
0.292181
0.293828
0.294214
0.294168
0.293797
0.291864
0.288983
0.281334
0.275555
0.261027
0.248855
0.223825
0.205331
0.17544
0.147758
0.116243
0.0898048
0.0643399
0.0474808
0.0341021
0.024887
0.0179125
0.0133058
0.00969878
0.00750276
0.00559366
0.00458448
0.00360315
0.00314812
0.00266044
0.00247085
0.00225156
0.0022002
0.00209108
0.00209776
0.00207877
0.0021068
0.00211396
0.00214252
0.00219852
0.00228435
0.00253085
0.00272337
0.00320688
0.00364196
0.00478212
0.00549957
0.00754646
0.00862399
0.0117579
0.0133802
0.0169567
0.0189918
0.0215335
0.0239455
0.0247072
0.0245341
0.0234698
0.0219728
0.0191569
0.0163074
0.0134481
0.0113858
0.00952391
0.00864279
0.00818519
0.00803791
0.00811258
0.00835232
0.00887317
0.00937179
0.0101343
0.0109711
0.0112107
0.0113163
0.0113881
0.0111993
0.0109875
0.0108635
0.0103978
0.0100852
0.00969595
0.00943577
0.00933594
0.00925751
0.00903674
0.00878947
0.00875561
0.00877205
0.0089102
0.00955126
0.00991689
0.0100935
0.0101966
0.010906
0.0117298
0.0132393
0.0137352
0.014678
0.0179391
0.022473
0.0223211
0.0225465
0.0223556
0.0236886
0.0251418
0.03443
0.0368069
0.0483568
0.0758171
0.079184
0.124159
0.127014
0.300522
0.550243
2.05771
1.80666
1.58471
1.41251
1.28319
1.18174
1.10261
1.03328
0.975939
0.920874
0.873493
0.828708
0.79343
0.760664
0.736634
0.712306
0.695193
0.675214
0.658812
0.643479
0.627349
0.61525
0.602048
0.590935
0.580428
0.570558
0.559643
0.55218
0.541467
0.532582
0.525929
0.514955
0.510518
0.501362
0.497175
0.489864
0.486841
0.480759
0.47746
0.473498
0.467962
0.465593
0.459959
0.457169
0.450732
0.44832
0.442213
0.439721
0.43348
0.430386
0.423709
0.42013
0.412807
0.409672
0.403517
0.400943
0.398967
0.397567
0.397738
0.398749
0.40003
0.403587
0.404812
0.407596
0.409872
0.40992
0.40943
0.407776
0.404728
0.398726
0.395879
0.390213
0.384837
0.382375
0.376179
0.372694
0.365734
0.361243
0.351111
0.346457
0.336055
0.33133
0.321427
0.31717
0.307814
0.302292
0.294884
0.285482
0.272403
0.264167
0.246531
0.230337
0.209324
0.186628
0.159613
0.133496
0.107533
0.0823158
0.0616008
0.0461646
0.0337915
0.0248841
0.0179863
0.0131573
0.00955663
0.00710374
0.00530833
0.00412775
0.00327195
0.00274526
0.00231844
0.00214415
0.00194993
0.00191417
0.00186882
0.00188631
0.00190166
0.00194715
0.0019791
0.00205125
0.0021303
0.00222456
0.002481
0.00265048
0.00305503
0.0034449
0.00447909
0.0051982
0.00685329
0.00829033
0.011646
0.0139176
0.0198514
0.0233747
0.0331235
0.037779
0.0491321
0.0534371
0.0623114
0.0668796
0.0690634
0.0683431
0.0660061
0.0609623
0.0541898
0.0456881
0.0375354
0.0299235
0.0226456
0.0179021
0.0135863
0.011405
0.00976075
0.00897762
0.008752
0.00858674
0.00867533
0.0087699
0.00889358
0.00891198
0.00903201
0.00921121
0.00932946
0.00933177
0.00921957
0.0091269
0.00895103
0.00882714
0.00864365
0.00855728
0.0082824
0.00825329
0.00839855
0.00870693
0.00879225
0.00909829
0.00923064
0.00968073
0.0096683
0.0105563
0.0114301
0.013848
0.0142111
0.0161394
0.0217441
0.0246924
0.0360465
0.030474
0.0491739
0.0438813
0.105965
0.0808337
0.203552
0.113655
0.239298
0.148125
0.289308
0.222544
0.277287
0.42972
1.35216
1.2384
1.1187
1.02381
0.943056
0.874341
0.827464
0.779894
0.749527
0.715903
0.684067
0.651066
0.619834
0.587734
0.566564
0.541819
0.529306
0.514803
0.501651
0.490223
0.476564
0.461117
0.449954
0.433858
0.425452
0.414546
0.406767
0.398661
0.393907
0.383528
0.378853
0.368769
0.361741
0.352737
0.345193
0.338694
0.33254
0.328488
0.323425
0.321285
0.316266
0.314174
0.309672
0.307794
0.303888
0.301813
0.297362
0.295108
0.290971
0.286724
0.282931
0.276694
0.272344
0.267473
0.261686
0.259516
0.255827
0.255353
0.255431
0.256666
0.257842
0.261164
0.262832
0.266095
0.269223
0.270716
0.274568
0.277314
0.277988
0.279975
0.280159
0.279548
0.278828
0.277268
0.275891
0.273018
0.270808
0.265763
0.261936
0.25315
0.247153
0.238541
0.228214
0.21724
0.20578
0.190698
0.177266
0.161804
0.143684
0.126663
0.109475
0.090096
0.0749838
0.0599279
0.0480334
0.0374681
0.0289295
0.0218476
0.0163501
0.0121844
0.00899137
0.00668062
0.00498609
0.00383443
0.00299489
0.00246264
0.00211467
0.0018868
0.00177262
0.00170484
0.00170296
0.00170195
0.00171868
0.00178296
0.00185203
0.00203034
0.00218683
0.0025361
0.00275108
0.00316708
0.00359439
0.00397132
0.00493721
0.00552156
0.00679839
0.00789986
0.0106437
0.0126431
0.0167601
0.0209022
0.0289331
0.0360319
0.052278
0.0634628
0.0900176
0.102604
0.130614
0.140318
0.162077
0.168992
0.172693
0.169732
0.163361
0.150077
0.135528
0.114302
0.095464
0.0747709
0.0569864
0.0430845
0.0308355
0.0235832
0.0174117
0.0140205
0.0115806
0.0102618
0.00960077
0.00910935
0.00901172
0.00879204
0.00890366
0.00891236
0.00891793
0.00889848
0.00859739
0.00852382
0.00851318
0.00848034
0.00835999
0.00791485
0.00748498
0.0074002
0.00767139
0.00852019
0.00855713
0.00862763
0.00861334
0.00891802
0.00889702
0.0107192
0.0115966
0.014532
0.0167021
0.0200347
0.0336068
0.0377666
0.059203
0.0570162
0.0811755
0.0820481
0.146856
0.155382
0.218355
0.191194
0.257856
0.235064
0.283639
0.285134
0.298181
0.368571
0.618353
0.587173
0.537536
0.501259
0.466265
0.430424
0.410126
0.39042
0.37773
0.372759
0.362568
0.354899
0.340976
0.322053
0.307767
0.289868
0.279022
0.270955
0.264208
0.261173
0.258905
0.251003
0.24622
0.234818
0.226986
0.217117
0.210295
0.203694
0.199931
0.194935
0.192579
0.189573
0.183971
0.180578
0.172855
0.16765
0.162
0.158504
0.154371
0.152783
0.149808
0.148296
0.145621
0.142357
0.140746
0.137913
0.135874
0.13426
0.132634
0.131192
0.129584
0.128188
0.124851
0.12295
0.118607
0.115732
0.112826
0.110096
0.108818
0.108824
0.109223
0.110394
0.112593
0.113832
0.117075
0.118647
0.121572
0.123831
0.124851
0.127074
0.12789
0.127713
0.127278
0.126065
0.124791
0.122796
0.119864
0.115223
0.112137
0.105415
0.0995133
0.0925939
0.0850796
0.0774606
0.0704033
0.0624638
0.0553102
0.048438
0.0414572
0.0352232
0.0296032
0.0242175
0.0197876
0.0157961
0.0124615
0.00974554
0.00747909
0.00570857
0.00434058
0.00337502
0.0025954
0.00212808
0.00178925
0.00161239
0.0014906
0.00149966
0.0015132
0.00154207
0.00158961
0.00167361
0.00186331
0.0020199
0.00230923
0.00285501
0.00318732
0.00399419
0.00449765
0.00554206
0.00613856
0.0072554
0.00846684
0.00935388
0.0115173
0.0132524
0.0162664
0.01902
0.0251572
0.0311
0.0392114
0.054559
0.0691083
0.100074
0.133545
0.17273
0.226684
0.255898
0.29479
0.308601
0.325126
0.325166
0.326289
0.321553
0.315576
0.299154
0.280848
0.250338
0.220316
0.179738
0.140694
0.102083
0.0724966
0.0523557
0.0366167
0.0276735
0.020327
0.0165182
0.0134919
0.0118373
0.0108364
0.0099735
0.00980369
0.00940044
0.00924939
0.00899878
0.008599
0.00854845
0.00845745
0.00845629
0.00830446
0.00770313
0.00725384
0.00713958
0.00741345
0.00822909
0.00813914
0.00824898
0.00811513
0.00840452
0.00880997
0.0110002
0.0122072
0.0145179
0.0184406
0.0207604
0.0311829
0.0351969
0.0667941
0.065053
0.10457
0.0974221
0.130039
0.148107
0.21689
0.223617
0.267863
0.267968
0.313224
0.334246
0.393458
0.406305
0.166112
0.162387
0.154479
0.146965
0.138106
0.128083
0.121667
0.115791
0.113308
0.11338
0.113364
0.113688
0.113588
0.110622
0.105305
0.0973165
0.0918384
0.0880326
0.0851172
0.0844041
0.0842666
0.0839885
0.0841092
0.0831691
0.0797502
0.0753406
0.0705853
0.0673808
0.0648957
0.0631546
0.0621768
0.0616011
0.0610626
0.0606859
0.0594579
0.0570432
0.0542038
0.0517678
0.0492838
0.0479663
0.0468498
0.0460258
0.0456315
0.044705
0.044107
0.0432255
0.0423625
0.0415241
0.0409177
0.0401793
0.0395108
0.0392411
0.0386201
0.0382315
0.0374266
0.0364987
0.0355062
0.0342589
0.033555
0.0328277
0.0327088
0.0327863
0.033176
0.0335198
0.034315
0.0350462
0.0357072
0.0370539
0.037411
0.0383198
0.0390641
0.0390781
0.0389939
0.038689
0.0378214
0.03714
0.0358304
0.034147
0.0326232
0.0304907
0.0282008
0.0260603
0.0236328
0.0212606
0.0189874
0.0167669
0.0146093
0.0126653
0.0107713
0.00901933
0.00751283
0.00610894
0.00496648
0.00397841
0.00318745
0.0025163
0.00202572
0.00163014
0.00142502
0.00123362
0.00118616
0.00119031
0.00121492
0.00127539
0.00134977
0.0015812
0.00178395
0.00219017
0.00255438
0.00308837
0.00401752
0.0045776
0.00558645
0.00681779
0.00800908
0.00972777
0.0108039
0.0128856
0.0143961
0.0168392
0.0190038
0.0221085
0.0254742
0.0310097
0.0354192
0.0465001
0.0557207
0.0727547
0.0950058
0.130909
0.181356
0.252874
0.315164
0.356909
0.374703
0.384365
0.384552
0.38248
0.38054
0.375294
0.375206
0.37104
0.371583
0.367868
0.363095
0.349609
0.332809
0.295938
0.263431
0.212526
0.166364
0.11981
0.0821661
0.0580977
0.0407735
0.0309645
0.0233002
0.0193323
0.0161127
0.0142321
0.0129553
0.011485
0.0109907
0.0101398
0.00962866
0.0094039
0.00887179
0.00874221
0.00847673
0.00809743
0.00775877
0.00768454
0.00783826
0.00815654
0.00804098
0.00805136
0.00799025
0.00839554
0.00960027
0.0114646
0.0125083
0.014084
0.0200129
0.0240429
0.04293
0.0434443
0.046071
0.0588292
0.0642501
0.086961
0.0934047
0.136962
0.152503
0.209596
0.234236
0.265643
0.295512
0.356125
0.402398
0.433325
0.0246493
0.0246176
0.0243371
0.023802
0.0231482
0.0215483
0.0203271
0.0195945
0.0194347
0.0196153
0.0202028
0.0210459
0.0213811
0.0213418
0.0207642
0.0189135
0.017411
0.0165205
0.0160685
0.0160805
0.0166578
0.017238
0.0177349
0.017798
0.0175596
0.0164213
0.0149224
0.013862
0.013124
0.0128391
0.0128647
0.0131829
0.013536
0.0137828
0.0138606
0.0137043
0.0128114
0.011771
0.0108808
0.0102043
0.00985332
0.00969374
0.00968742
0.00973456
0.00978742
0.00980046
0.00976796
0.00957872
0.00951003
0.00937685
0.00928314
0.00922313
0.00914281
0.00911215
0.00910681
0.00897375
0.00867429
0.00826466
0.00789586
0.00765023
0.0075959
0.00761725
0.00774879
0.00788404
0.00815689
0.00843867
0.00858609
0.0089765
0.0091159
0.00930238
0.00958078
0.00969272
0.00972761
0.00968849
0.00954137
0.00933832
0.00900235
0.00848292
0.00804445
0.00746419
0.00680143
0.0062008
0.00554499
0.00492846
0.00436646
0.00384237
0.00333992
0.002896
0.00247211
0.00207709
0.00173916
0.00145475
0.0012212
0.00106609
0.00094035
0.000858121
0.000860291
0.000868727
0.000906256
0.000963642
0.00110689
0.00126737
0.00166107
0.00208278
0.00251815
0.00370198
0.00443554
0.00557351
0.00712985
0.00817469
0.0106284
0.0120909
0.0144496
0.0165782
0.0201686
0.0220157
0.0258336
0.0280797
0.0331227
0.0361775
0.0419633
0.0486092
0.0539096
0.06693
0.0784103
0.0979433
0.125012
0.163716
0.227939
0.321937
0.377748
0.414046
0.414971
0.416465
0.408332
0.403049
0.387644
0.373641
0.363456
0.356903
0.357105
0.358653
0.367827
0.369044
0.376017
0.375612
0.374047
0.363869
0.348483
0.303243
0.267578
0.210157
0.168033
0.122441
0.0879143
0.0632136
0.0461509
0.0356241
0.0281242
0.0237574
0.0198932
0.0168013
0.0151337
0.0135178
0.0127594
0.0117255
0.0106061
0.00999145
0.00950696
0.00941029
0.00940649
0.00944912
0.00920616
0.00872136
0.00847625
0.00822821
0.00841751
0.0094217
0.0111888
0.0121523
0.0134007
0.0158826
0.0249416
0.0302681
0.0295328
0.037723
0.0386369
0.0490513
0.0572082
0.0737011
0.0963134
0.129029
0.144329
0.188136
0.203323
0.266602
0.269582
0.315571
0.331232
0.35099
0.00183929
0.00189305
0.00190044
0.00189131
0.00186941
0.00178754
0.00170764
0.00166986
0.00166072
0.00169433
0.00177995
0.00187952
0.00193026
0.00193381
0.00192055
0.00183175
0.00174627
0.00169325
0.00166714
0.00167114
0.00172369
0.00177385
0.0018057
0.00180252
0.00172169
0.00160636
0.00151189
0.00147245
0.00146512
0.00148809
0.00155287
0.00159245
0.00162545
0.00163918
0.00164032
0.00158869
0.00144986
0.00132242
0.00123151
0.00117574
0.00116262
0.00116462
0.00118291
0.00120262
0.00120958
0.00121418
0.00121764
0.00121866
0.00123149
0.00126138
0.00128268
0.00129674
0.00130234
0.00130258
0.0012984
0.00125065
0.00117274
0.00109335
0.00104054
0.00102331
0.00102566
0.00103937
0.00111406
0.0011888
0.00128605
0.00135615
0.00138125
0.00144025
0.00145602
0.00146837
0.0014985
0.0015221
0.00157184
0.00159177
0.00158741
0.00157313
0.00153717
0.00147271
0.0013933
0.0012989
0.00117194
0.00107617
0.000949407
0.000859166
0.000774147
0.000714325
0.000650937
0.000602616
0.000573684
0.000544101
0.000547578
0.000555151
0.000570025
0.000607592
0.000649129
0.000736925
0.000883916
0.00106066
0.00148559
0.00184326
0.00269685
0.00340653
0.00498247
0.00618414
0.0077245
0.0107563
0.0124793
0.0150639
0.0192573
0.0214114
0.026069
0.0297556
0.0341666
0.0393575
0.0443338
0.0486999
0.0558703
0.0600346
0.0692134
0.0751358
0.0877349
0.0970766
0.11401
0.134452
0.166662
0.202604
0.285026
0.374894
0.429781
0.45084
0.450796
0.443159
0.416023
0.382088
0.338509
0.321947
0.29526
0.290236
0.277696
0.27804
0.277659
0.280415
0.295713
0.30788
0.343787
0.355502
0.375746
0.376439
0.375229
0.362071
0.346033
0.286266
0.256109
0.195219
0.160933
0.115856
0.0932801
0.068915
0.0554812
0.0444073
0.0366413
0.0304287
0.0258217
0.0229521
0.0215334
0.0185914
0.0157939
0.0141081
0.0137105
0.0137812
0.0138726
0.0124396
0.010586
0.00961084
0.00935406
0.00909421
0.00964782
0.0109557
0.0118405
0.0128009
0.0150814
0.0172469
0.0188014
0.0277021
0.0290288
0.0329454
0.0345488
0.039075
0.0528664
0.0638001
0.0790954
0.113179
0.13267
0.184062
0.2033
0.274033
0.272858
0.263128
0.274197
0.277509
0.000147449
0.000149153
0.000155262
0.00016406
0.000167327
0.000167221
0.000165831
0.000164441
0.000163803
0.000164316
0.000165619
0.000168846
0.000174723
0.000179056
0.000181212
0.000180698
0.000174077
0.000168
0.000165818
0.000165886
0.000165991
0.000165221
0.000164899
0.000171498
0.000187003
0.00019953
0.000204112
0.000203539
0.000195831
0.000189757
0.000187529
0.000186925
0.000185095
0.000178225
0.000172658
0.000169265
0.000168105
0.000167659
0.000166521
0.000164867
0.000164609
0.000165996
0.000169226
0.000171119
0.000171269
0.000169349
0.000168019
0.000168391
0.00017368
0.000180032
0.000182861
0.000183026
0.000178003
0.000170099
0.000164681
0.000161796
0.000160774
0.000160057
0.000158866
0.000157547
0.000157183
0.000158188
0.000161713
0.000173953
0.000183116
0.000192528
0.000195947
0.000199131
0.000198293
0.000196749
0.000196577
0.00019957
0.000205312
0.000216279
0.000224714
0.000228323
0.000229011
0.000227668
0.000226529
0.000219061
0.000212898
0.000213308
0.000216637
0.000222809
0.000234816
0.00026515
0.000303656
0.000327464
0.00038934
0.000445301
0.000546106
0.000643518
0.000830667
0.00114136
0.0014102
0.00205053
0.00262616
0.00359656
0.00523495
0.00632281
0.00898571
0.0110479
0.0150262
0.0180853
0.0217305
0.028388
0.0323121
0.0377218
0.0462857
0.0509098
0.0601241
0.0671218
0.0754333
0.086443
0.0922621
0.104137
0.113201
0.122793
0.140326
0.152324
0.170157
0.19809
0.224479
0.271038
0.356954
0.426905
0.477525
0.489106
0.484571
0.458113
0.387335
0.32439
0.295123
0.287932
0.2817
0.280069
0.271129
0.270506
0.262203
0.264397
0.259684
0.261541
0.263954
0.267698
0.292421
0.308885
0.354397
0.365096
0.379301
0.379115
0.376115
0.355447
0.330256
0.271638
0.236424
0.181261
0.153297
0.113352
0.0967949
0.0705828
0.060057
0.04873
0.0425689
0.0351837
0.0325282
0.0275753
0.0240949
0.0214203
0.0199867
0.0196333
0.0192247
0.0163208
0.0132492
0.0117784
0.0119491
0.011857
0.0126737
0.0133585
0.0140488
0.0143046
0.0155147
0.0175822
0.0195358
0.0227706
0.0284578
0.0301541
0.0344274
0.037358
0.0567918
0.0667597
0.0866477
0.124473
0.146187
0.195281
0.212026
0.267789
0.309545
0.27511
0.256463
0.244853
8.32966e-05
8.38026e-05
8.5525e-05
8.87722e-05
9.22735e-05
9.36505e-05
9.40732e-05
9.42042e-05
9.41375e-05
9.41677e-05
9.41467e-05
9.41075e-05
9.39372e-05
9.3519e-05
9.34092e-05
9.36161e-05
9.41698e-05
9.422e-05
9.38559e-05
9.35085e-05
9.46053e-05
9.89095e-05
0.000101882
0.00010282
0.000101777
0.000100261
0.000100252
0.000103415
0.000106585
0.000107673
0.000107094
0.000105437
0.000104822
0.000105888
0.000108477
0.000110034
0.00011101
0.000111599
0.000112114
0.000114218
0.000118341
0.000123212
0.000126685
0.000129167
0.000130373
0.000130406
0.000127518
0.000120054
0.000112755
0.000106726
0.000102308
9.91829e-05
9.76565e-05
9.75543e-05
0.000103065
0.000120352
0.000137507
0.000150939
0.000158233
0.000160186
0.000157161
0.00014249
0.000128989
0.000117939
0.000109889
0.000105194
0.000103628
0.000103899
0.000110615
0.000118404
0.000126427
0.000135771
0.000145651
0.000153861
0.000159493
0.000162215
0.000164269
0.000166397
0.000170043
0.000176716
0.000184222
0.000207325
0.000236233
0.000297488
0.000358765
0.000495367
0.000698988
0.000829296
0.00112742
0.00146484
0.00192692
0.00236901
0.00341021
0.00427966
0.00537113
0.00779261
0.0095528
0.0123594
0.0167031
0.0197444
0.0269051
0.0315202
0.0395474
0.0478753
0.0556481
0.0682815
0.076389
0.0897558
0.103172
0.11366
0.130977
0.143523
0.161014
0.175898
0.189768
0.20715
0.221168
0.242253
0.264824
0.288828
0.320268
0.37633
0.430195
0.484852
0.519518
0.524297
0.509635
0.439788
0.329798
0.277577
0.262052
0.263686
0.270057
0.279064
0.280621
0.280218
0.274843
0.27417
0.266214
0.270357
0.261318
0.267834
0.261631
0.264838
0.271631
0.276205
0.318131
0.337269
0.373746
0.376395
0.382286
0.378679
0.369817
0.338805
0.31397
0.258269
0.230989
0.179095
0.158965
0.119484
0.101607
0.0793219
0.066223
0.0530751
0.0478145
0.0385506
0.0336115
0.0286851
0.025992
0.0240705
0.0221254
0.0186215
0.0167438
0.0158489
0.0164984
0.0164405
0.0169362
0.0163051
0.0156354
0.0152244
0.0156566
0.0168659
0.0224145
0.0227989
0.0255091
0.0282829
0.0379529
0.0408133
0.0653909
0.0755859
0.0924236
0.127278
0.15969
0.237202
0.244893
0.252289
0.318513
0.299919
0.249697
0.217002
8.62162e-05
8.6842e-05
8.87549e-05
9.16315e-05
9.50621e-05
9.79184e-05
9.99032e-05
0.000100878
0.000101866
0.000102622
0.000102796
0.000102996
0.000103474
0.00010483
0.000105219
0.0001052
0.000105858
0.000111268
0.000118855
0.00012504
0.000131588
0.000137039
0.000143154
0.000149117
0.000151934
0.000153092
0.000152206
0.000149872
0.000149417
0.000150771
0.000158866
0.000165857
0.000169383
0.000176311
0.000185179
0.000192472
0.000201302
0.00020788
0.000222456
0.000252553
0.000288294
0.000332313
0.000365073
0.000385905
0.000394101
0.00039167
0.000361989
0.000315636
0.000267174
0.000223684
0.000186545
0.000159143
0.000148843
0.000154032
0.00022669
0.000361359
0.000487213
0.000584632
0.000640615
0.000657014
0.000640687
0.000545227
0.000434756
0.000341088
0.000270196
0.00022548
0.000210896
0.000216056
0.000264877
0.000334702
0.000404804
0.000475545
0.000541658
0.000587063
0.000599028
0.000597541
0.000599921
0.000607131
0.000626801
0.000670804
0.00072802
0.000898587
0.00106124
0.00140671
0.00171578
0.0023389
0.00315532
0.00369098
0.00474804
0.0062811
0.00736778
0.00957756
0.01238
0.0146475
0.019253
0.024431
0.0296176
0.0379475
0.0466605
0.0559341
0.0703724
0.080932
0.0977347
0.114065
0.132386
0.151855
0.172183
0.194612
0.216911
0.236008
0.263953
0.289182
0.312693
0.334472
0.352972
0.372112
0.393733
0.418628
0.445591
0.469259
0.501991
0.5352
0.544922
0.541083
0.504495
0.377195
0.284968
0.241221
0.227168
0.22837
0.239215
0.257547
0.274694
0.284091
0.28708
0.284799
0.280654
0.280667
0.281033
0.288394
0.280429
0.286088
0.269426
0.277262
0.267268
0.270809
0.281835
0.293152
0.349308
0.357968
0.376684
0.372931
0.375439
0.363975
0.353821
0.329672
0.29893
0.254072
0.240168
0.192804
0.172785
0.141938
0.121184
0.094968
0.084767
0.0629882
0.0526778
0.0426572
0.0371505
0.0312097
0.0276986
0.0231484
0.0213948
0.0192418
0.0196044
0.018887
0.0194861
0.017594
0.018119
0.0167028
0.0186264
0.0183034
0.0242553
0.0248123
0.027859
0.0302679
0.0437988
0.048172
0.0661089
0.0947877
0.10875
0.140536
0.153893
0.219046
0.262139
0.245855
0.247592
0.256696
0.237787
0.206107
0.000245078
0.000250925
0.000261079
0.000286752
0.000316971
0.00033985
0.000359125
0.000369683
0.000375454
0.00038102
0.000383377
0.000388377
0.000393205
0.000400953
0.0004112
0.00041989
0.000430003
0.000471045
0.000563066
0.000664151
0.000755911
0.000810078
0.00083761
0.000841075
0.000828752
0.000819089
0.000808208
0.000805676
0.000807408
0.000826495
0.000909515
0.00102113
0.00112486
0.00122607
0.00129394
0.00133094
0.00135045
0.00134975
0.00135829
0.0014564
0.00165053
0.00188479
0.00207438
0.0022156
0.00227784
0.00228037
0.00218091
0.00192791
0.00167671
0.0014549
0.00127774
0.00119063
0.0011779
0.00132749
0.00177531
0.00226962
0.00268233
0.00298674
0.00314486
0.0031705
0.00305256
0.00263241
0.00220512
0.00184616
0.00159019
0.00147595
0.00146347
0.00158744
0.00185235
0.00211961
0.00238619
0.00263118
0.00284263
0.00295232
0.00296113
0.00297522
0.00300607
0.00306718
0.00322788
0.00343523
0.00394571
0.00443805
0.00540539
0.00665654
0.00769452
0.00993745
0.0122597
0.0140912
0.0180377
0.0212649
0.0255731
0.0327769
0.0376629
0.0472965
0.0578518
0.0683744
0.083897
0.101406
0.118887
0.143335
0.165191
0.192751
0.217332
0.248861
0.280064
0.312676
0.344952
0.375396
0.399192
0.426419
0.449002
0.464687
0.472668
0.483264
0.495693
0.502836
0.509858
0.526027
0.549826
0.552253
0.544851
0.514803
0.416435
0.312119
0.240841
0.202922
0.191796
0.191627
0.196532
0.212312
0.235787
0.258076
0.277012
0.286756
0.286053
0.280423
0.279447
0.278882
0.284929
0.295156
0.295305
0.306476
0.293408
0.306401
0.278668
0.291861
0.279326
0.287698
0.306681
0.313834
0.347774
0.349084
0.361045
0.359406
0.350467
0.344291
0.321946
0.308094
0.28955
0.258649
0.241238
0.209527
0.190405
0.157284
0.145918
0.115552
0.100035
0.0745397
0.0622694
0.0466319
0.0405365
0.0323262
0.0315285
0.028599
0.0289726
0.0252006
0.0254577
0.0212165
0.0238435
0.0196403
0.0252533
0.0216504
0.0288044
0.0291722
0.0346348
0.0382992
0.0511091
0.0534643
0.0590595
0.0720622
0.103638
0.151394
0.157256
0.17066
0.218558
0.214898
0.210869
0.220203
0.21897
0.211261
0.00313664
0.00313693
0.003203
0.00336131
0.00354886
0.00364732
0.00382016
0.00395625
0.00400857
0.00407569
0.00408934
0.00411196
0.00418577
0.00423461
0.00439689
0.00462249
0.00496677
0.0054603
0.00593907
0.00641474
0.00674784
0.00686763
0.00689983
0.00685057
0.0067647
0.00672343
0.00670207
0.00676473
0.00691181
0.00723047
0.00761573
0.00799519
0.00843918
0.00873325
0.0089954
0.00913932
0.00930104
0.00953585
0.00987887
0.0102961
0.0107714
0.0111945
0.0114393
0.0115648
0.0115706
0.0113468
0.0107751
0.0100974
0.00953411
0.009151
0.00896399
0.00897936
0.00951609
0.0104357
0.0113566
0.0121696
0.012683
0.0129485
0.0129924
0.0127843
0.0119413
0.0110213
0.0101472
0.00952781
0.00921077
0.00913218
0.00926395
0.00975457
0.0101699
0.0106621
0.0111693
0.0115811
0.0118097
0.0119318
0.0120422
0.012215
0.0125156
0.013114
0.0137545
0.0153672
0.0168526
0.0188297
0.0225188
0.0251279
0.0294002
0.0356667
0.0398112
0.048024
0.0563288
0.064716
0.0784455
0.091984
0.10692
0.129681
0.149527
0.176851
0.206476
0.235932
0.275916
0.313301
0.351881
0.386933
0.421941
0.45325
0.474711
0.491187
0.504679
0.512133
0.514634
0.521522
0.523791
0.521982
0.521506
0.526313
0.538731
0.537845
0.532265
0.516126
0.475026
0.387959
0.311702
0.240752
0.194999
0.170782
0.156942
0.151235
0.151592
0.159941