/*--------------------------------*- C++ -*----------------------------------*\
| =========                 |                                                 |
| \\      /  F ield         | OpenFOAM: The Open Source CFD Toolbox           |
|  \\    /   O peration     | Version:  2.4.0                                 |
|   \\  /    A nd           | Web:      www.OpenFOAM.org                      |
|    \\/     M anipulation  |                                                 |
\*---------------------------------------------------------------------------*/
FoamFile
{
    version     2.0;
    format      ascii;
    class       volScalarField;
    location    "0.34";
    object      k;
}
// * * * * * * * * * * * * * * * * * * * * * * * * * * * * * * * * * * * * * //

dimensions      [0 2 -2 0 0 0 0];

internalField   nonuniform List<scalar> 
8800
(
8.12038
10.2679
8.79539
6.81238
5.72057
4.95461
4.54312
4.13291
3.92374
3.65525
3.55397
3.3542
3.2983
3.14667
3.09638
2.96545
2.9015
2.77838
2.67781
2.55046
1.40443
4.35306
5.32183
5.28468
5.13344
4.79479
4.59233
4.27984
4.12442
3.87698
3.78113
3.57795
3.51882
3.37493
3.326
3.21109
3.16997
3.06517
3.00295
2.94435
0.0844163
0.729266
1.57124
1.93462
2.27886
2.43368
2.57911
2.59655
2.62868
2.60087
2.58932
2.54121
2.52443
2.47403
2.46121
2.41568
2.40868
2.37528
2.35991
2.32297
0.0033513
0.0697745
0.265139
0.415945
0.576386
0.70941
0.833428
0.922077
1.03806
1.09076
1.16017
1.2195
1.25579
1.29667
1.34634
1.3684
1.39845
1.45057
1.47526
1.49348
0.000122816
0.00496989
0.0263784
0.0556703
0.0774569
0.127759
0.161065
0.202613
0.248433
0.289172
0.311904
0.366265
0.386811
0.428708
0.45243
0.504185
0.525484
0.586173
0.616198
0.681183
2.47551e-05
0.000311335
0.00172718
0.00486937
0.00673965
0.0124351
0.0169541
0.0264498
0.0336566
0.0460965
0.0515349
0.0659138
0.0721825
0.0857714
0.0931648
0.111481
0.119945
0.14337
0.155777
0.188079
2.1498e-05
4.39633e-05
0.000133439
0.000371077
0.000482284
0.000824343
0.00118744
0.00177226
0.00280396
0.00433822
0.00487018
0.00667618
0.00761885
0.00956737
0.0107442
0.0139982
0.0156425
0.0199041
0.0228829
0.0306548
2.11978e-05
2.98735e-05
4.80012e-05
7.69906e-05
8.48174e-05
0.00011166
0.000141171
0.000161511
0.000202496
0.000326352
0.000355072
0.000483418
0.000586146
0.000652126
0.00074755
0.00105567
0.00114947
0.00136854
0.00200046
0.00281944
2.08016e-05
2.76357e-05
4.89739e-05
5.86654e-05
5.78181e-05
6.90557e-05
8.06159e-05
8.34775e-05
8.39083e-05
8.55694e-05
8.68059e-05
9.29647e-05
0.000106462
0.000114573
0.000120381
0.000129458
0.000126563
0.000132743
0.00018674
0.000233819
2.06284e-05
2.67631e-05
4.3621e-05
6.07575e-05
5.8581e-05
5.90389e-05
6.69277e-05
6.95175e-05
7.2915e-05
7.42878e-05
7.3953e-05
7.44504e-05
7.44868e-05
7.55967e-05
8.22319e-05
8.39557e-05
8.30795e-05
8.25506e-05
8.4028e-05
9.11965e-05
2.0667e-05
2.66135e-05
3.91675e-05
5.96761e-05
6.17092e-05
6.72745e-05
6.82213e-05
6.85163e-05
6.91497e-05
6.82626e-05
6.85309e-05
7.47677e-05
7.90132e-05
8.25309e-05
8.36607e-05
8.23184e-05
7.951e-05
7.9485e-05
7.98635e-05
8.29264e-05
2.07809e-05
2.83799e-05
3.77072e-05
6.05982e-05
7.50505e-05
7.76446e-05
7.48928e-05
7.26837e-05
7.2738e-05
7.78702e-05
9.50604e-05
0.000100822
0.000105782
0.000111141
0.000111245
0.000114815
0.000125321
0.000147214
0.000158511
0.00017801
2.11041e-05
2.89019e-05
4.45186e-05
8.74734e-05
0.000104388
0.000113167
0.00012591
0.000162555
0.000193953
0.00029641
0.000346881
0.00041679
0.00053379
0.000679371
0.000742148
0.000982592
0.00120083
0.00161386
0.00182784
0.00227795
2.1663e-05
4.27173e-05
0.000121092
0.000392531
0.000543953
0.000869918
0.00120147
0.00196467
0.00250391
0.0039889
0.0047014
0.00635713
0.00743185
0.00977796
0.0109569
0.0141805
0.0160173
0.0200937
0.0224441
0.0287743
2.50366e-05
0.000305633
0.00146245
0.0051642
0.00753078
0.0126115
0.0170869
0.0263734
0.0320093
0.0455332
0.0515192
0.0646099
0.071691
0.0868679
0.0939802
0.112493
0.121608
0.142408
0.153608
0.184734
0.000123796
0.00490849
0.0218543
0.0599876
0.0842465
0.122668
0.162567
0.206004
0.236378
0.293399
0.315339
0.36142
0.385061
0.43334
0.454161
0.506895
0.529554
0.58382
0.609724
0.67892
0.00336558
0.0693217
0.258712
0.425882
0.579763
0.698813
0.842184
0.925756
1.01927
1.10438
1.15332
1.2157
1.2606
1.30713
1.32985
1.38282
1.40143
1.44739
1.4669
1.51406
0.0844882
0.725605
1.56884
1.94179
2.27832
2.42867
2.58516
2.59582
2.62423
2.59998
2.58833
2.53996
2.52588
2.47438
2.45991
2.41856
2.40795
2.37738
2.36605
2.33737
1.40471
4.34861
5.32357
5.28597
5.13272
4.79765
4.58693
4.27663
4.13189
3.86787
3.78042
3.57937
3.52094
3.36764
3.3315
3.20069
3.17399
3.05788
3.02039
2.92174
8.11838
10.2625
8.7997
6.80999
5.71907
4.95932
4.53694
4.13129
3.92981
3.64772
3.55724
3.34999
3.30354
3.1355
3.10901
2.94598
2.91677
2.74565
2.69098
2.4858
1.68874
1.12076
0.845871
0.736242
0.685461
0.655664
0.631348
0.602248
0.570505
0.52685
0.48258
0.443282
0.410586
0.385734
0.366395
0.352538
0.342198
0.336953
0.335145
0.334401
0.334439
0.334795
0.335569
0.335078
0.335459
0.335903
0.336828
0.339503
0.344859
0.350782
0.363802
0.373038
0.388757
0.401692
0.413742
0.416281
0.423215
0.424788
0.430418
0.429817
0.430446
0.431266
0.434532
0.435755
0.439463
0.442648
0.449459
0.454813
0.461497
0.475414
0.482314
0.490092
0.484272
0.469413
0.440367
0.3859
0.347301
0.307503
0.272767
0.253106
0.233807
0.220838
0.217106
0.218627
0.222881
0.232682
0.242739
0.254888
0.268126
0.273209
0.279923
0.2805
0.277842
0.275511
0.269888
0.263164
0.25527
0.243813
0.232242
0.208921
0.191158
0.159925
0.12575
0.0918606
0.0592945
0.0381507
0.0241054
0.0152916
0.00986889
0.00668463
0.00487271
0.00399707
0.00350394
0.00347584
0.00361044
0.00377937
0.0039386
0.00423975
0.00499926
0.00627801
0.0076914
0.00970846
0.0137162
0.018951
0.0292081
0.0509113
0.077042
0.112227
0.12851
0.128193
0.121716
0.105315
0.0848278
0.0710287
0.0557534
0.0459092
0.0479651
0.0711187
0.162607
0.227668
0.226489
0.207029
0.15037
0.0998314
0.0805675
0.0706596
0.063535
0.0610747
0.0590775
0.0587862
0.0588022
0.0593734
0.0605753
0.0616575
0.0624658
0.0619494
0.0620948
0.0633062
0.0668527
0.076886
0.0829638
0.0833021
0.0815465
0.0812736
0.0806813
0.0773297
0.0714455
0.0587519
0.0456569
0.0342809
0.0299663
0.0286517
0.0278198
0.0273708
0.0239295
0.0227734
0.0219655
0.020495
0.0189609
0.0185212
0.0189271
0.0196104
0.0220009
0.0264416
0.0399142
0.0609058
0.0875431
0.152209
0.205824
0.213561
0.206166
0.18449
0.15847
0.143846
0.135001
0.11486
0.0936913
0.085087
0.0868989
0.0995983
0.105583
0.0971586
0.0824397
0.0796661
0.0789161
0.0801942
0.0788291
0.111903
0.155983
0.166739
0.136621
0.0766707
0.0454906
0.0334064
0.0328003
0.0377997
0.0553641
0.0667045
0.135144
2.6307
2.47549
2.00939
1.66659
1.42303
1.25406
1.13659
1.05593
0.991403
0.936845
0.884261
0.83735
0.792198
0.753284
0.717054
0.687938
0.661637
0.639344
0.619739
0.604316
0.591422
0.580447
0.571337
0.562366
0.555796
0.547183
0.540501
0.531812
0.524951
0.518299
0.511518
0.509214
0.504062
0.503058
0.500195
0.499437
0.497543
0.497966
0.496646
0.49543
0.492503
0.491092
0.486961
0.48496
0.481463
0.476638
0.476262
0.473366
0.47389
0.473941
0.477834
0.479898
0.485332
0.490948
0.488969
0.486971
0.481365
0.465695
0.452009
0.435838
0.419538
0.402385
0.392115
0.382234
0.370966
0.362711
0.353632
0.345849
0.334941
0.328721
0.319175
0.30522
0.297652
0.283195
0.266122
0.250218
0.231491
0.204441
0.176835
0.142484
0.111978
0.0782271
0.0536047
0.0361245
0.0241183
0.0159024
0.0105876
0.00709132
0.00493858
0.00377144
0.00309806
0.00290325
0.00289689
0.0029572
0.00320348
0.00362149
0.0040536
0.00476971
0.00617639
0.0084106
0.0112441
0.0147223
0.0197329
0.0265923
0.0400324
0.0695185
0.130499
0.189348
0.238335
0.246045
0.24141
0.226344
0.204012
0.158208
0.115752
0.0815404
0.0591394
0.0513568
0.0544706
0.0792249
0.165345
0.210329
0.206098
0.189262
0.149472
0.106193
0.0852973
0.0731504
0.0668757
0.0641668
0.0626837
0.063001
0.0632978
0.06421
0.0645823
0.0651695
0.0661014
0.0684661
0.0731019
0.0820223
0.0864121
0.0874449
0.0863515
0.0830695
0.0825412
0.0806664
0.0723961
0.0594804
0.0481371
0.0383924
0.0310328
0.0288111
0.0277165
0.0275126
0.0271175
0.0243094
0.0231164
0.0222318
0.0208574
0.0204912
0.0204595
0.0211225
0.0225223
0.0275706
0.0351508
0.0633506
0.0940654
0.14622
0.207522
0.227339
0.222718
0.205662
0.174292
0.143988
0.128017
0.120731
0.106374
0.0886349
0.0793822
0.0788571
0.0891906
0.0968467
0.0940916
0.080651
0.0806566
0.0794223
0.0787958
0.0822016
0.119022
0.1585
0.159135
0.125967
0.0748105
0.0450292
0.0356715
0.0332324
0.0360763
0.0528843
0.0651839
0.133925
1.61122
2.07866
1.82567
1.60945
1.43614
1.30138
1.19237
1.10685
1.03607
0.980552
0.928273
0.887321
0.845197
0.810806
0.78032
0.750033
0.726908
0.703467
0.683981
0.665556
0.650144
0.635889
0.622311
0.610748
0.598655
0.588054
0.577802
0.56656
0.555616
0.545668
0.533399
0.524956
0.513489
0.50568
0.496139
0.488631
0.479432
0.474171
0.465132
0.460315
0.45197
0.447524
0.441506
0.433952
0.430625
0.423101
0.420047
0.413553
0.411503
0.410021
0.408303
0.410206
0.411488
0.415393
0.420523
0.421286
0.423111
0.421356
0.415797
0.410376
0.398748
0.391568
0.377598
0.365372
0.353627
0.336683
0.322667
0.306885
0.288266
0.269167
0.251105
0.227336
0.201955
0.177479
0.148013
0.123644
0.0952924
0.0724755
0.0542649
0.039902
0.0289507
0.0204835
0.0144136
0.0100264
0.00695569
0.00498713
0.00363253
0.002886
0.00243046
0.00233306
0.00238756
0.00256373
0.00279355
0.00322902
0.00430827
0.00564468
0.0068975
0.00928679
0.0126952
0.0158013
0.0222903
0.0284333
0.0365115
0.0530719
0.0907896
0.183213
0.295322
0.337276
0.331164
0.310017
0.28816
0.272817
0.250043
0.228741
0.200351
0.142263
0.0885955
0.0619676
0.0556017
0.0589556
0.0828684
0.156727
0.191215
0.187522
0.175422
0.149501
0.120164
0.098506
0.08194
0.0751563
0.0710813
0.0695832
0.0695083
0.06992
0.070905
0.0730079
0.0765037
0.0835624
0.0893777
0.0916149
0.0915351
0.0909081
0.0878177
0.084569
0.0830771
0.0775152
0.0612869
0.0470176
0.0396255
0.0336552
0.0294092
0.0283399
0.0276209
0.0280056
0.0275587
0.0255656
0.0242088
0.0240866
0.0234687
0.0234293
0.0235585
0.0246038
0.0274839
0.0352852
0.0493827
0.0942794
0.132916
0.193222
0.228142
0.230721
0.222699
0.19225
0.156893
0.12875
0.114161
0.107435
0.0976733
0.0841372
0.0773849
0.075989
0.0833072
0.0896931
0.0893997
0.0797413
0.0796927
0.0802729
0.0773629
0.0823577
0.123165
0.159668
0.156511
0.119164
0.0723407
0.0447619
0.0356505
0.0334355
0.0354214
0.045685
0.0587469
0.118775
0.907119
1.39131
1.27111
1.15651
1.06527
0.988845
0.926117
0.871157
0.824487
0.784261
0.74834
0.717655
0.687595
0.661102
0.635479
0.613983
0.592442
0.574353
0.557701
0.54071
0.525924
0.511888
0.498512
0.487186
0.475283
0.465128
0.455928
0.446421
0.435854
0.427303
0.414041
0.40479
0.39058
0.379779
0.36629
0.355852
0.342265
0.333186
0.322684
0.312199
0.306245
0.296508
0.291213
0.284356
0.278744
0.2753
0.268781
0.266864
0.262959
0.262604
0.261298
0.261533
0.262503
0.263571
0.266049
0.266822
0.267961
0.267919
0.266574
0.26384
0.257541
0.249278
0.240877
0.225831
0.21383
0.197964
0.180085
0.163033
0.143468
0.12341
0.103587
0.0848007
0.0687264
0.054982
0.0433325
0.0336426
0.0258301
0.0197034
0.0147519
0.0110881
0.00819469
0.00597969
0.00449643
0.00336785
0.00262452
0.00222853
0.00199532
0.00198778
0.00202925
0.00216288
0.00261824
0.00349243
0.00441613
0.00627658
0.00927027
0.011376
0.0153353
0.0202302
0.0237651
0.0317437
0.0407178
0.0493182
0.0663626
0.110223
0.2353
0.378256
0.412969
0.39678
0.353345
0.313085
0.281654
0.263732
0.249116
0.237792
0.222589
0.201235
0.153976
0.0901168
0.0631661
0.0578065
0.0615666
0.0829621
0.143286
0.172911
0.171722
0.164458
0.1487
0.1314
0.115202
0.104144
0.0950607
0.0900299
0.0877677
0.0881761
0.0897609
0.0924431
0.0955674
0.0971803
0.0975547
0.097012
0.0948639
0.0931436
0.0883922
0.0856991
0.0800517
0.0636887
0.0471958
0.0392476
0.0353632
0.0318531
0.0289883
0.0283988
0.0286976
0.030136
0.0297413
0.0284007
0.0279022
0.0282297
0.0276592
0.0274769
0.0280001
0.0300293
0.0346399
0.043585
0.0699426
0.131914
0.160284
0.216363
0.234153
0.230873
0.211077
0.171715
0.137344
0.107816
0.093806
0.0881636
0.0832526
0.0770833
0.0747181
0.074208
0.0793436
0.0834275
0.0828427
0.077662
0.076919
0.079923
0.0765329
0.0805698
0.124415
0.156054
0.157726
0.118674
0.072193
0.0453196
0.0345268
0.03301
0.033131
0.0466595
0.0530866
0.107164
0.546666
0.651883
0.614222
0.567134
0.532834
0.500874
0.477721
0.45746
0.440949
0.426646
0.414906
0.403057
0.392694
0.381376
0.369208
0.357649
0.346291
0.333629
0.32413
0.312689
0.30276
0.294429
0.284484
0.277371
0.268793
0.261091
0.253891
0.247214
0.239823
0.233988
0.226461
0.219798
0.211408
0.204482
0.19422
0.187306
0.177063
0.167885
0.161379
0.150275
0.145262
0.13692
0.130293
0.125351
0.118905
0.115497
0.111952
0.108564
0.107088
0.105462
0.105485
0.105829
0.106916
0.108349
0.111082
0.112442
0.112966
0.112799
0.111169
0.109
0.10443
0.0990292
0.0934661
0.0851627
0.0770387
0.0687833
0.0598182
0.0518076
0.0439413
0.0365765
0.0300488
0.0242502
0.0192615
0.0150898
0.0117663
0.0090309
0.0069768
0.00539391
0.00414672
0.0033115
0.00257612
0.00209544
0.00187886
0.00167397
0.00167628
0.00170348
0.00180698
0.00208691
0.00254265
0.00342902
0.00577069
0.00773707
0.0105066
0.0162718
0.0199573
0.0247369
0.0337387
0.0382522
0.0452552
0.0583938
0.0675306
0.0832573
0.124792
0.264612
0.442767
0.485326
0.463167
0.393698
0.3131
0.25466
0.213459
0.20313
0.206636
0.214825
0.213762
0.206833
0.1914
0.149034
0.0874069
0.0636408
0.0589765
0.062503
0.0800429
0.127509
0.155534
0.158304
0.154229
0.146148
0.135089
0.127721
0.119983
0.113548
0.11054
0.108015
0.107057
0.105831
0.105083
0.103639
0.102138
0.0997258
0.0966917
0.0942196
0.0880428
0.0817113
0.0657838
0.0481438
0.0395869
0.0358787
0.0332979
0.0311757
0.0298538
0.0300201
0.0315434
0.0340935
0.0339909
0.0331191
0.0334024
0.0343412
0.0337985
0.0335664
0.0355306
0.0396721
0.0459613
0.0558142
0.111672
0.149905
0.193435
0.235687
0.239101
0.228907
0.190465
0.155618
0.118074
0.090683
0.0749441
0.0692384
0.0686849
0.0686126
0.0690735
0.0705562
0.076169
0.0786575
0.0766734
0.0753967
0.075292
0.078153
0.0765431
0.0818094
0.124695
0.156217
0.158885
0.121837
0.0710434
0.0483423
0.0340917
0.03388
0.0340391
0.0543247
0.0506429
0.0737871
0.33816
0.184638
0.179401
0.170561
0.161949
0.154275
0.148397
0.143541
0.140715
0.138243
0.137169
0.136146
0.135622
0.134918
0.132764
0.131073
0.128661
0.124912
0.122115
0.117887
0.113821
0.109998
0.105704
0.101797
0.0981133
0.0939075
0.0902189
0.087047
0.0834431
0.0808245
0.0780418
0.0751829
0.0728307
0.0702458
0.0670472
0.0645394
0.060795
0.057273
0.0540978
0.0500668
0.046936
0.0441377
0.0408972
0.038867
0.0365026
0.0345975
0.0334036
0.0318801
0.031441
0.0305252
0.0301941
0.0299874
0.0300361
0.0302586
0.0308319
0.0315164
0.0318888
0.0319044
0.0315881
0.0306856
0.0289374
0.0271757
0.0250001
0.0228139
0.0202559
0.0178521
0.0154937
0.0132211
0.0111508
0.00923108
0.0075
0.00603383
0.00475879
0.00377131
0.00295201
0.00233368
0.00189385
0.0015549
0.00138853
0.00124261
0.00124614
0.00128149
0.00134601
0.00150266
0.00170449
0.00210043
0.00309346
0.00447615
0.00607765
0.00988777
0.0147189
0.0187419
0.0276453
0.0362725
0.0419454
0.0544864
0.0647642
0.0697446
0.0835694
0.0965502
0.107986
0.140342
0.260728
0.479702
0.555308
0.532273
0.437699
0.296945
0.214199
0.171053
0.144873
0.138221
0.140698
0.149817
0.18062
0.193457
0.189874
0.177714
0.138458
0.0834396
0.0633963
0.0589176
0.061754
0.0752252
0.109634
0.138141
0.146328
0.144585
0.140502
0.134022
0.130308
0.12406
0.121159
0.116814
0.115064
0.111569
0.109761
0.107476
0.104623
0.100828
0.0981878
0.0923527
0.0802766
0.0642363
0.049355
0.0402258
0.0363485
0.0346105
0.0325418
0.0320187
0.0322222
0.0336446
0.0377692
0.0410445
0.0406956
0.0403819
0.0414202
0.0420551
0.0414491
0.0412355
0.0473423
0.0516051
0.0573327
0.0722667
0.151672
0.183587
0.239677
0.253865
0.249647
0.222122
0.172379
0.144633
0.10794
0.0841788
0.0686426
0.0621221
0.061754
0.0625921
0.063771
0.0665374
0.0712247
0.0729503
0.0712126
0.0720424
0.0725428
0.0736314
0.0761046
0.0823614
0.134076
0.157368
0.157044
0.132599
0.0737131
0.0504159
0.0353634
0.0369955
0.0371251
0.0644319
0.0529085
0.054801
0.183096
0.030541
0.0302215
0.0294999
0.0283979
0.0275289
0.0264976
0.0256427
0.0253687
0.0253765
0.0255742
0.0260271
0.0268983
0.027867
0.0284533
0.0287012
0.0286567
0.0284862
0.027972
0.0269309
0.0256816
0.024443
0.0233313
0.0222049
0.0214132
0.0204593
0.0196714
0.0189477
0.0183239
0.0178841
0.0175497
0.0171221
0.0168259
0.0165549
0.0160558
0.0156107
0.0148217
0.0139416
0.01298
0.0119616
0.0108894
0.0101786
0.00925761
0.00877219
0.00811977
0.00770238
0.00739681
0.00703184
0.00694739
0.0067961
0.00673445
0.0066923
0.00669649
0.00673116
0.0068314
0.00700002
0.00711593
0.00711854
0.0070484
0.00673041
0.00628631
0.00589778
0.00531922
0.0049053
0.00435041
0.00384001
0.00332696
0.00281898
0.00235873
0.0019335
0.00158494
0.00129286
0.00106553
0.00092523
0.00078871
0.000756789
0.000767953
0.000800061
0.000890173
0.000980727
0.00118279
0.00145782
0.0018888
0.00285368
0.00377253
0.0055293
0.00903312
0.0118845
0.0170727
0.0271446
0.0340081
0.0466254
0.0646549
0.0740782
0.0910207
0.110062
0.115275
0.122926
0.143401
0.148191
0.165843
0.245792
0.476536
0.60399
0.603458
0.50985
0.325744
0.222773
0.168075
0.139411
0.123503
0.11683
0.116974
0.120251
0.130157
0.159908
0.178289
0.175718
0.164351
0.125899
0.0790163
0.0622872
0.0580579
0.0601528
0.0693727
0.0905174
0.119276
0.13222
0.135337
0.133585
0.131264
0.127235
0.124623
0.120448
0.118785
0.115113
0.112686
0.109999
0.104946
0.099457
0.093326
0.0754859
0.0600362
0.0488417
0.0414589
0.0368955
0.0354846
0.0341335
0.0341437
0.0348625
0.0368392
0.0418556
0.0478733
0.0504879
0.050194
0.0510033
0.0521877
0.0526351
0.050829
0.0505744
0.0560767
0.0587026
0.0656429
0.103256
0.186822
0.2182
0.267412
0.271187
0.262553
0.212889
0.160903
0.13866
0.101058
0.0799446
0.0646043
0.0584272
0.0578759
0.0586208
0.0608357
0.0634681
0.0654851
0.0666416
0.0663563
0.0672562
0.0708688
0.070542
0.0713907
0.0829553
0.133307
0.162436
0.157641
0.132704
0.0768784
0.0523072
0.0391033
0.0441009
0.0385029
0.0561198
0.0544642
0.049659
0.086751
0.0028006
0.00276476
0.00270602
0.0026117
0.00251289
0.00239485
0.00229873
0.00226854
0.00226717
0.00230157
0.00247033
0.00272704
0.00304814
0.00332461
0.00350057
0.00354751
0.00353658
0.00344525
0.00321666
0.00294044
0.00271681
0.0025278
0.00237641
0.00227042
0.00220424
0.0021546
0.00209768
0.00206062
0.00203614
0.00204874
0.00207361
0.00208356
0.00208573
0.00207611
0.00205006
0.00198514
0.00185389
0.00172404
0.00156339
0.00141597
0.00130549
0.00118825
0.00112426
0.00105105
0.00100553
0.000974358
0.000955385
0.000962853
0.000967646
0.000979642
0.000992294
0.000987609
0.000972024
0.000960908
0.000953029
0.000953433
0.000941747
0.000921981
0.000873692
0.000810341
0.000781642
0.000715816
0.000671806
0.000638044
0.000582199
0.000533959
0.00048445
0.000452123
0.000423552
0.000421602
0.000424994
0.00043534
0.000466382
0.000506156
0.000614581
0.000739632
0.000989848
0.00143697
0.00188889
0.00292884
0.00385271
0.00586337
0.00836558
0.010836
0.0168563
0.0231387
0.0296465
0.0461145
0.0608871
0.0771882
0.111695
0.132445
0.153957
0.188997
0.197477
0.198167
0.210895
0.211992
0.215081
0.257339
0.440513
0.613707
0.665835
0.620717
0.421747
0.270587
0.189011
0.146702
0.126483
0.115955
0.111079
0.110884
0.111961
0.115782
0.125219
0.151233
0.166865
0.164894
0.15344
0.113703
0.0747366
0.060904
0.0570538
0.0582427
0.0636595
0.0765509
0.0954788
0.111851
0.121378
0.124128
0.123539
0.121937
0.119594
0.117611
0.112666
0.109381
0.102649
0.0920403
0.0823363
0.0668201
0.053854
0.0472498
0.0414523
0.0383752
0.036061
0.0359927
0.0364691
0.0381789
0.0422409
0.0494545
0.0575435
0.0627517
0.063245
0.0628495
0.0640653
0.0656987
0.0658612
0.0614397
0.0585906
0.0595853
0.0621998
0.0740863
0.145134
0.211669
0.245211
0.294015
0.295688
0.268216
0.188057
0.151532
0.130545
0.0924259
0.0719835
0.0572658
0.0534449
0.0520453
0.0526648
0.0547181
0.0570691
0.059122
0.0603463
0.060626
0.0628562
0.070371
0.0685529
0.0723464
0.0857093
0.125771
0.163608
0.156209
0.128026
0.0815166
0.0641261
0.0447732
0.0546473
0.0420293
0.0451286
0.0562712
0.0508002
0.0585593
0.000232863
0.000230114
0.000229586
0.00022527
0.00021569
0.000208502
0.000201874
0.000198546
0.000197603
0.000197862
0.000204852
0.000228687
0.000274694
0.000314142
0.000337898
0.000347028
0.000344845
0.000322749
0.000291406
0.000262818
0.00023953
0.000222656
0.000213495
0.000207054
0.00020546
0.000204028
0.000202784
0.000203485
0.00020698
0.000215387
0.000220183
0.000221813
0.000222704
0.000221238
0.000213265
0.000200314
0.000188051
0.000178857
0.000172233
0.000168637
0.000167896
0.000168023
0.000168613
0.000169204
0.000170802
0.000171786
0.000172177
0.000173822
0.000174638
0.000174695
0.000170911
0.000165589
0.000163075
0.000163236
0.000164163
0.000168439
0.000172261
0.000174563
0.000181304
0.000183794
0.000189452
0.000196
0.000200998
0.000216684
0.000229161
0.000253844
0.000271708
0.000311956
0.000360237
0.000403391
0.000504555
0.000599948
0.000822014
0.00107377
0.00164663
0.00220479
0.00339539
0.00450096
0.0064071
0.00912351
0.0115388
0.0171329
0.0218372
0.0297801
0.0423402
0.0541795
0.0736729
0.105894
0.131031
0.181682
0.234398
0.26794
0.316823
0.321379
0.309646
0.308062
0.307971
0.290854
0.30704
0.459954
0.591361
0.691974
0.692946
0.586429
0.368682
0.234143
0.16805
0.136911
0.122756
0.114245
0.11016
0.109549
0.110025
0.112232
0.117575
0.129261
0.153076
0.160945
0.158628
0.146021
0.104205
0.0717792
0.0599175
0.0563599
0.0565716
0.0593919
0.0663517
0.0760387
0.0879494
0.0951195
0.10138
0.101925
0.100969
0.0975414
0.0921008
0.0856926
0.0755344
0.0661815
0.0576963
0.0496334
0.0449812
0.0419556
0.0390298
0.0376415
0.0381039
0.0394818
0.0421757
0.0489741
0.060908
0.0707067
0.0777654
0.0795201
0.0787469
0.077583
0.0780027
0.0805418
0.0786361
0.0708363
0.0655735
0.068076
0.0733331
0.107954
0.176341
0.22781
0.280708
0.326026
0.314842
0.247638
0.172408
0.148882
0.118804
0.0747974
0.0613051
0.0470372
0.0460865
0.0447837
0.046403
0.0480941
0.0511743
0.0535372
0.0550764
0.0576568
0.0616218
0.0671267
0.068997
0.0786237
0.114832
0.130105
0.147004
0.152786
0.131798
0.0912554
0.0795319
0.0549051
0.0605766
0.0500558
0.0503573
0.0598994
0.0542957
0.0559512
9.14647e-05
9.22612e-05
9.58848e-05
9.69556e-05
9.6444e-05
9.58414e-05
9.59235e-05
9.62246e-05
9.59467e-05
9.55753e-05
9.53804e-05
9.58431e-05
9.83357e-05
0.000103686
0.000107021
0.000109758
0.000110314
0.000109841
0.000107804
0.00010697
0.00010571
0.000104948
0.000104343
0.000104023
0.000104088
0.000104237
0.000103924
0.000102834
0.000101691
0.000100508
9.99482e-05
9.96513e-05
9.94968e-05
9.95602e-05
9.96487e-05
9.99094e-05
0.000100438
0.000102366
0.000113146
0.000126442
0.000139546
0.000151298
0.00015728
0.000160044
0.000160121
0.000157534
0.000153971
0.000145907
0.000142881
0.000138648
0.000134472
0.000133787
0.000133349
0.000142982
0.000163702
0.000194465
0.000236906
0.000255163
0.000295496
0.000318264
0.00035775
0.000396832
0.000426402
0.000497456
0.000576888
0.000681467
0.000771895
0.00100877
0.00117441
0.00147622
0.00194471
0.00233352
0.00331705
0.00426801
0.00600309
0.00803001
0.0105635
0.0141121
0.01919
0.0238121
0.031878
0.0432763
0.0540368
0.0742596
0.0922237
0.130846
0.168786
0.223868
0.298505
0.384237
0.416225
0.415317
0.405681
0.378323
0.347009
0.347119
0.33777
0.331641
0.419893
0.565782
0.65708
0.719566
0.699477
0.558815
0.336627
0.214578
0.158181
0.134203
0.123227
0.117052
0.112795
0.110547
0.110582
0.111478
0.114743
0.121739
0.138123
0.152644
0.157774
0.155309
0.140808
0.0975352
0.0703607
0.0594207
0.0567119
0.0557589
0.0567418
0.0590536
0.0642464
0.0674513
0.0721609
0.073711
0.0733624
0.0709362
0.0680266
0.0623059
0.0564205
0.0518227
0.0470288
0.0436751
0.042579
0.0403522
0.0398477
0.0407801
0.0446218
0.04867
0.0556152
0.0730922
0.0879243
0.0953304
0.0962659
0.0954851
0.0930383
0.0908742
0.0916799
0.0921913
0.0910726
0.0826071
0.0763831
0.077755
0.0814999
0.131368
0.179792
0.262601
0.330862
0.349576
0.324233
0.239289
0.171237
0.14952
0.102
0.065392
0.0588466
0.044674
0.0446738
0.0417435
0.0426538
0.0439525
0.0469122
0.0485697
0.0518527
0.0557636
0.0585816
0.0647616
0.0684758
0.0806036
0.146945
0.14535
0.144789
0.153926
0.134027
0.0912391
0.0827195
0.0630971
0.0640669
0.062727
0.0605207
0.0708551
0.0682998
0.0653366
8.44977e-05
8.57726e-05
9.01335e-05
9.38301e-05
9.59077e-05
9.72701e-05
9.88098e-05
0.000100686
0.000101562
0.00010278
0.000102913
0.000102771
0.000101755
0.000100471
9.93186e-05
9.88118e-05
9.884e-05
9.90274e-05
9.94251e-05
9.98901e-05
0.000101465
0.000106791
0.000114791
0.000124099
0.000131552
0.000137786
0.000142504
0.000144014
0.000145916
0.000146132
0.000146324
0.000146534
0.000147792
0.000154772
0.000160095
0.000166063
0.000179728
0.000239024
0.000328491
0.000409161
0.000491404
0.000551903
0.000593283
0.000605722
0.000606778
0.000595186
0.000583628
0.000552905
0.000535728
0.000511366
0.000487405
0.000487999
0.000503398
0.000613248
0.000773444
0.000927538
0.00115607
0.00125026
0.00143032
0.00154007
0.00170826
0.00189876
0.002026
0.00231256
0.00265986
0.00298753
0.00347336
0.0042895
0.00492143
0.00604737
0.00763292
0.0089434
0.0119299
0.0149625
0.0184626
0.025375
0.0299353
0.0396859
0.0484336
0.0613793
0.0815643
0.096143
0.133349
0.160012
0.211415
0.275511
0.358544
0.453332
0.495855
0.49045
0.474816
0.446912
0.387631
0.345402
0.346376
0.34668
0.340719
0.379982
0.560443
0.593223
0.673412
0.715477
0.695957
0.548649
0.324493
0.20764
0.155388
0.137885
0.128863
0.126095
0.122775
0.116238
0.113754
0.113677
0.1163
0.123481
0.138458
0.152853
0.159774
0.159934
0.155373
0.137478
0.0939036
0.070217
0.0603711
0.0570553
0.055445
0.0552668
0.0556429
0.056696
0.0568942
0.0567856
0.0563855
0.0549561
0.053519
0.0500069
0.047843
0.0457743
0.0436276
0.042709
0.0426503
0.043065
0.0451499
0.0518849
0.059068
0.0665313
0.0849616
0.108177
0.114426
0.113803
0.11179
0.110893
0.107367
0.105754
0.109428
0.108275
0.104273
0.0859608
0.0812742
0.0753219
0.088055
0.133097
0.212851
0.29739
0.351352
0.380888
0.336326
0.24154
0.191131
0.149544
0.0907026
0.0651279
0.0606752
0.0462008
0.0528686
0.0419757
0.0412852
0.0430784
0.045534
0.047049
0.0504672
0.0552184
0.0572354
0.064052
0.0680451
0.0856438
0.137675
0.182948
0.159459
0.148981
0.130873
0.0913292
0.0825825
0.068981
0.0654779
0.0708785
0.0683165
0.0772023
0.0768853
0.0793921
0.000194469
0.000199578
0.00021108
0.000220397
0.000225787
0.000227866
0.00023066
0.000234945
0.000237898
0.000245374
0.000250019
0.000253962
0.000262808
0.000265612
0.000271314
0.0002785
0.000282895
0.0002922
0.000301163
0.000315786
0.000367723
0.000442803
0.000528198
0.000614167
0.000697402
0.000752008
0.00080187
0.000826293
0.000841873
0.000859376
0.000866798
0.000877234
0.000898104
0.000939456
0.000978338
0.00103804
0.00124505
0.00163554
0.00209504
0.00249882
0.00287546
0.00313596
0.00335376
0.00344237
0.00346059
0.00344602
0.00340408
0.00332557
0.0032462
0.00318522
0.00313644
0.00319198
0.00337551
0.00394165
0.00454673
0.00500083
0.00573207
0.00606702
0.00659118
0.00702657
0.00744806
0.00821762
0.00871194
0.00956097
0.0109111
0.011796
0.01388
0.0154379
0.0186431
0.0209308
0.0254078
0.0307438
0.0351633
0.0460155
0.0529587
0.0668772
0.0781968
0.0981307
0.119097
0.139784
0.186649
0.217032
0.279996
0.330467
0.42261
0.506254
0.5511
0.558043
0.540874
0.483727
0.384423
0.275301
0.221942
0.222999
0.260255
0.29995
0.335539
0.503715
0.56271
0.591422
0.611845
0.705019
0.732101
0.570607
0.323975
0.208761
0.164063
0.145768
0.138297
0.137043
0.135148
0.130211
0.124867
0.122124
0.123208
0.129071
0.142232
0.15497
0.16752
0.169547
0.167794
0.160019
0.138292
0.100061
0.0743683
0.063725
0.0584097
0.0565622
0.0549593
0.0543667
0.0539196
0.052723
0.0512291
0.050041
0.0476038
0.046713
0.0458199
0.0445696
0.0447221
0.0462513
0.0484261
0.0526558
0.0635417
0.074229
0.0821123
0.101256
0.124195
0.131917
0.129902
0.127695
0.128299
0.127478
0.119144
0.117192
0.120645
0.12068
0.112494
0.0910582
0.0806504
0.0752109
0.097016
0.139871
0.225003
0.310183
0.364744
0.436219
0.360971
0.27791
0.219233
0.148831
0.0975628
0.083492
0.0609644
0.0537415
0.0601086
0.0430011
0.0444647
0.0431518
0.0450373
0.0472957
0.0491481
0.055981
0.0576503
0.0616501
0.0994218
0.0976296
0.127237
0.187938
0.173749
0.143515
0.127615
0.0947231
0.0807723
0.0764147
0.0680643
0.0732098
0.0713985
0.077216
0.0783473
0.0849536
0.00243231
0.0025265
0.00258385
0.00262898
0.00267166
0.002707
0.00273874
0.00282226
0.00287137
0.00297461
0.0030802
0.00312895
0.00324567
0.00328169
0.00334194
0.00340911
0.00346108
0.00353632
0.00374765
0.00407824
0.00445885
0.00495206
0.00539775
0.00580384
0.00620313
0.00639457
0.00660875
0.00675507
0.00682585
0.00694751
0.00702527
0.00723906
0.00743063
0.0076225
0.00790678
0.00869616
0.00985391
0.0111037
0.012499
0.0136082
0.0146309
0.0152116
0.0156811
0.0159541
0.0160825
0.0160861
0.0160416
0.0159474
0.0158256
0.0157778
0.0157812
0.0164861
0.0172499
0.0187748
0.02001
0.0210404
0.0225585
0.023336
0.0243994
0.0259445
0.0268307
0.0286997
0.0308881
0.032528
0.0365907
0.0392914
0.0447622
0.0485142
0.0568714
0.0638874
0.0721774
0.0877206
0.0974712
0.117335
0.132577
0.161314
0.186831
0.214458
0.263658
0.307528
0.369472
0.427481
0.485483
0.541697
0.574436
0.598784
0.589014
0.526099
0.360135
0.238954
0.190438
0.164661
0.153921
0.156565
0.171297
0.223762
0.398625
0.537121
0.541859
0.520725
0.496801
0.693738
0.802297
0.638392
0.370938
0.231322
0.175734
0.154408
0.147773
0.144594
0.143484
0.143214
0.139053
0.136616
0.135967
0.139837
0.152016
0.165521
0.176887
0.178787
0.177474
0.174451
0.164885
0.136777
0.105182
0.0821255
0.0697393
0.0629283
0.05952
0.0569349
0.0551158
0.0537041
0.0530468
0.0515779
0.0499542
0.0499288
0.0501507
0.0509885
0.0542259
0.0587656
0.0641149
0.0788771
0.0923259
0.0999878
0.119268
0.137592
0.140775
0.140394
0.140825
0.146032
0.144828
0.137502
0.12347
0.122528
0.123415
0.121591
0.101286
0.0841579
0.0709674
0.0713391
0.0886238
0.142676
0.220949
0.316875
0.36823
0.490629
0.385158
0.324295
0.254362
0.1881
0.140319
0.108367
0.0678389
0.0626139
0.0612767
0.0544008