/*--------------------------------*- C++ -*----------------------------------*\
| =========                 |                                                 |
| \\      /  F ield         | OpenFOAM: The Open Source CFD Toolbox           |
|  \\    /   O peration     | Version:  2.4.0                                 |
|   \\  /    A nd           | Web:      www.OpenFOAM.org                      |
|    \\/     M anipulation  |                                                 |
\*---------------------------------------------------------------------------*/
FoamFile
{
    version     2.0;
    format      ascii;
    class       volScalarField;
    location    "0.34";
    object      nuSgs;
}
// * * * * * * * * * * * * * * * * * * * * * * * * * * * * * * * * * * * * * //

dimensions      [0 2 -1 0 0 0 0];

internalField   nonuniform List<scalar> 
8800
(
0.00133933
0.00150605
0.00139388
0.00122673
0.00112413
0.00104617
0.00100179
0.000955489
0.000930996
0.00089858
0.000886043
0.00086078
0.000853577
0.000833726
0.000827037
0.000809363
0.000800588
0.000783418
0.000769108
0.000750597
0.000556991
0.000980607
0.00108425
0.00108046
0.00106488
0.00102916
0.0010072
0.000972326
0.000954508
0.000925433
0.000913921
0.000889027
0.00088165
0.000863437
0.000857154
0.000842217
0.000836807
0.000822859
0.000814464
0.000806478
0.000136556
0.000401366
0.000589141
0.000653725
0.000709507
0.000733212
0.000754802
0.00075735
0.000762021
0.000757979
0.000756294
0.000749236
0.000746757
0.000739266
0.000737348
0.000730495
0.000729437
0.000724361
0.000722014
0.00071634
2.72085e-05
0.00012415
0.000242011
0.000303121
0.000356824
0.000395865
0.000429074
0.000451317
0.000478862
0.000490866
0.000506242
0.000519026
0.000526692
0.000535196
0.000545349
0.000549799
0.000555803
0.000566067
0.000570863
0.000574378
5.20865e-06
3.31338e-05
7.63347e-05
0.000110894
0.000130806
0.000167994
0.000188625
0.000211559
0.000234262
0.000252741
0.000262487
0.000284443
0.000292312
0.000307736
0.000316136
0.000333728
0.000340704
0.000359841
0.000368942
0.000387909
2.33846e-06
8.293e-06
1.95329e-05
3.2797e-05
3.85848e-05
5.24109e-05
6.11976e-05
7.64379e-05
8.6225e-05
0.000100909
0.000106696
0.000120666
0.000126274
0.000137648
0.000143458
0.000156927
0.000162775
0.000177962
0.000185502
0.00020383
2.1792e-06
3.11633e-06
5.42925e-06
9.05377e-06
1.03217e-05
1.34943e-05
1.61959e-05
1.97862e-05
2.48876e-05
3.09566e-05
3.27997e-05
3.84027e-05
4.10244e-05
4.59721e-05
4.87175e-05
5.56077e-05
5.87829e-05
6.63085e-05
7.10973e-05
8.22901e-05
2.16393e-06
2.56886e-06
3.2563e-06
4.12398e-06
4.32853e-06
4.96646e-06
5.58433e-06
5.97309e-06
6.68815e-06
8.49065e-06
8.85637e-06
1.03338e-05
1.13789e-05
1.20023e-05
1.28504e-05
1.52708e-05
1.59348e-05
1.73871e-05
2.10215e-05
2.49562e-05
2.14361e-06
2.47078e-06
3.28912e-06
3.59989e-06
3.5738e-06
3.90569e-06
4.21996e-06
4.2942e-06
4.30527e-06
4.34768e-06
4.37897e-06
4.53166e-06
4.84948e-06
5.03081e-06
5.15676e-06
5.34764e-06
5.2875e-06
5.41506e-06
6.42268e-06
7.18684e-06
2.13467e-06
2.43145e-06
3.10417e-06
3.66351e-06
3.5973e-06
3.61133e-06
3.84504e-06
3.91873e-06
4.01334e-06
4.05095e-06
4.04181e-06
4.05538e-06
4.05637e-06
4.08648e-06
4.26205e-06
4.30649e-06
4.28395e-06
4.27029e-06
4.30834e-06
4.48835e-06
2.13667e-06
2.42465e-06
2.94144e-06
3.63076e-06
3.6921e-06
3.85499e-06
3.88202e-06
3.89041e-06
3.90835e-06
3.88319e-06
3.89082e-06
4.06401e-06
4.1778e-06
4.26979e-06
4.29891e-06
4.26429e-06
4.19091e-06
4.19026e-06
4.20022e-06
4.28e-06
2.14254e-06
2.50382e-06
2.88609e-06
3.65871e-06
4.07169e-06
4.14146e-06
4.06741e-06
4.00697e-06
4.00847e-06
4.14747e-06
4.58245e-06
4.71927e-06
4.83396e-06
4.9549e-06
4.95721e-06
5.03613e-06
5.2615e-06
5.7026e-06
5.91736e-06
6.27075e-06
2.15914e-06
2.52674e-06
3.13595e-06
4.39578e-06
4.80201e-06
4.99985e-06
5.27386e-06
5.99236e-06
6.54556e-06
8.09179e-06
8.75363e-06
9.59526e-06
1.08588e-05
1.22504e-05
1.28039e-05
1.47328e-05
1.62869e-05
1.88813e-05
2.0094e-05
2.24321e-05
2.18754e-06
3.07185e-06
5.17196e-06
9.31182e-06
1.09617e-05
1.38624e-05
1.62913e-05
2.08326e-05
2.35184e-05
2.96841e-05
3.22264e-05
3.74739e-05
4.05178e-05
4.64753e-05
4.91973e-05
5.59686e-05
5.94829e-05
6.66236e-05
7.04124e-05
7.9726e-05
2.35172e-06
8.21671e-06
1.79737e-05
3.37753e-05
4.07866e-05
5.27815e-05
6.1437e-05
7.63274e-05
8.40883e-05
0.000100291
0.00010668
0.000119467
0.000125843
0.000138525
0.000144084
0.000157638
0.0001639
0.000177364
0.000184206
0.000202009
5.22938e-06
3.29285e-05
6.94811e-05
0.000115114
0.000136419
0.000164612
0.000189502
0.000213322
0.000228508
0.000254582
0.000263929
0.000282556
0.000291651
0.000309394
0.00031674
0.000334624
0.000342021
0.000359118
0.000366999
0.000387264
2.72664e-05
0.000123746
0.00023906
0.00030672
0.000357868
0.000392897
0.000431322
0.000452216
0.000474507
0.000493921
0.000504747
0.000518217
0.000527699
0.000537349
0.000542001
0.000552688
0.000556396
0.000565444
0.000569244
0.000578323
0.000136614
0.000400358
0.000588691
0.000654937
0.000709423
0.000732458
0.000755686
0.000757243
0.000761376
0.00075785
0.000756149
0.000749052
0.000746972
0.000739318
0.000737153
0.000730931
0.000729326
0.000724682
0.000722953
0.000718558
0.000557045
0.000980106
0.00108442
0.00108059
0.00106481
0.00102947
0.0010066
0.000971961
0.000955371
0.000924344
0.000913835
0.000889203
0.000881916
0.000862503
0.000857863
0.000840852
0.000837337
0.000821879
0.000816825
0.000803376
0.00133916
0.00150565
0.00139422
0.00122651
0.00112398
0.00104667
0.0010011
0.000955302
0.000931717
0.000897653
0.00088645
0.00086024
0.000854255
0.000832245
0.000828722
0.000806701
0.000802692
0.00077879
0.000770998
0.000741022
0.000334534
0.000272531
0.000236761
0.000220886
0.000213133
0.000208449
0.000204547
0.000199777
0.000194441
0.000186854
0.000178831
0.000171395
0.000164953
0.000159883
0.000155824
0.000152849
0.00015059
0.000149432
0.000149031
0.000148865
0.000148873
0.000148953
0.000149125
0.000149016
0.0001491
0.000149199
0.000149404
0.000149996
0.000151175
0.000152467
0.000155271
0.00015723
0.000160508
0.000163157
0.000165586
0.000166093
0.000167471
0.000167782
0.00016889
0.000168772
0.000168895
0.000169056
0.000169695
0.000169934
0.000170655
0.000171273
0.000172585
0.00017361
0.000174881
0.000177498
0.000178782
0.000180218
0.000179144
0.000176375
0.000170831
0.000159918
0.000151709
0.000142752
0.000134448
0.000129512
0.000124477
0.000120975
0.000119948
0.000120368
0.000121533
0.000124177
0.000126832
0.000129967
0.000133299
0.000134557
0.0001362
0.000136341
0.000135693
0.000135122
0.000133737
0.00013206
0.000130064
0.000127112
0.000124059
0.000117666
0.000112552
0.000102948
9.12879e-05
7.80231e-05
6.26853e-05
5.02817e-05
3.99683e-05
3.18336e-05
2.55736e-05
2.10473e-05
1.79698e-05
1.62753e-05
1.52383e-05
1.51771e-05
1.54682e-05
1.58259e-05
1.61558e-05
1.67621e-05
1.82017e-05
2.03971e-05
2.25767e-05
2.53649e-05
3.01492e-05
3.54385e-05
4.39957e-05
5.80852e-05
7.14533e-05
8.62397e-05
9.22842e-05
9.21704e-05
8.98116e-05
8.35417e-05
7.49769e-05
6.86081e-05
6.07847e-05
5.5158e-05
5.63795e-05
6.86515e-05
0.000103807
0.000122831
0.000122513
0.000117131
9.98251e-05
8.13377e-05
7.30699e-05
6.84296e-05
6.48881e-05
6.36194e-05
6.25705e-05
6.2416e-05
6.24245e-05
6.2727e-05
6.33587e-05
6.39221e-05
6.43398e-05
6.40733e-05
6.41485e-05
6.47712e-05
6.65607e-05
7.13809e-05
7.41486e-05
7.42996e-05
7.35125e-05
7.33894e-05
7.31215e-05
7.15866e-05
6.88091e-05
6.23978e-05
5.50062e-05
4.76633e-05
4.45631e-05
4.35746e-05
4.29374e-05
4.25895e-05
3.98222e-05
3.88483e-05
3.8153e-05
3.68538e-05
3.54477e-05
3.50343e-05
3.54161e-05
3.60497e-05
3.81838e-05
4.18603e-05
5.14307e-05
6.35313e-05
7.61675e-05
0.000100434
0.00011679
0.000118965
0.000116887
0.000110572
0.000102478
9.76353e-05
9.4586e-05
8.72453e-05
7.87967e-05
7.50914e-05
7.58867e-05
8.12427e-05
8.3648e-05
8.02415e-05
7.3914e-05
7.266e-05
7.23171e-05
7.29004e-05
7.22773e-05
8.61151e-05
0.000101671
0.000105118
9.51519e-05
7.12809e-05
5.49059e-05
4.70515e-05
4.66227e-05
5.00498e-05
6.05721e-05
6.64869e-05
9.46362e-05
0.000417536
0.000405032
0.000364914
0.000332332
0.000307089
0.000288283
0.000274448
0.00026453
0.000256321
0.000249168
0.000242074
0.000235566
0.000229126
0.000223428
0.000217989
0.000213517
0.000209396
0.000205838
0.000202658
0.00020012
0.000197973
0.000196128
0.000194583
0.000193049
0.000191918
0.000190425
0.000189259
0.000187732
0.000186517
0.000185331
0.000184115
0.0001837
0.000182768
0.000182586
0.000182066
0.000181928
0.000181582
0.00018166
0.000181419
0.000181196
0.00018066
0.000180401
0.000179641
0.000179272
0.000178624
0.000177727
0.000177657
0.000177116
0.000177214
0.000177223
0.00017795
0.000178333
0.00017934
0.000180375
0.000180011
0.000179643
0.000178606
0.000175675
0.000173074
0.00016995
0.000166742
0.000163297
0.0001612
0.000159156
0.000156793
0.000155038
0.000153086
0.000151392
0.000148985
0.000147595
0.000145436
0.000142221
0.000140447
0.000136994
0.0001328
0.000128771
0.000123858
0.000116397
0.000108254
9.7172e-05
8.6144e-05
7.20008e-05
5.96019e-05
4.89282e-05
3.9979e-05
3.24631e-05
2.64885e-05
2.16781e-05
1.80909e-05
1.58093e-05
1.43286e-05
1.38708e-05
1.38556e-05
1.39991e-05
1.45703e-05
1.54918e-05
1.639e-05
1.77789e-05
2.02314e-05
2.36087e-05
2.72974e-05
3.12354e-05
3.61621e-05
4.19794e-05
5.15068e-05
6.78748e-05
9.29954e-05
0.000112018
0.000125676
0.000127693
0.000126484
0.000122474
0.000116275
0.000102394
8.75837e-05
7.35097e-05
6.26032e-05
5.83388e-05
6.00813e-05
7.24585e-05
0.000104678
0.000118061
0.000116868
0.000111993
9.95264e-05
8.38892e-05
7.51841e-05
6.96253e-05
6.65722e-05
6.52099e-05
6.44519e-05
6.46149e-05
6.47668e-05
6.52319e-05
6.54207e-05
6.57175e-05
6.61857e-05
6.73591e-05
6.96022e-05
7.37266e-05
7.56739e-05
7.61247e-05
7.56473e-05
7.41958e-05
7.39595e-05
7.31147e-05
6.92654e-05
6.27835e-05
5.64805e-05
5.04407e-05
4.53492e-05
4.36957e-05
4.28576e-05
4.26997e-05
4.23919e-05
4.01371e-05
3.91398e-05
3.83836e-05
3.71782e-05
3.68504e-05
3.68219e-05
3.74137e-05
3.86335e-05
4.27446e-05
4.82643e-05
6.47939e-05
7.89539e-05
9.84379e-05
0.000117271
0.000122743
0.000121489
0.000116744
0.000107472
9.76835e-05
9.21069e-05
8.94474e-05
8.39607e-05
7.66409e-05
7.25304e-05
7.22901e-05
7.68808e-05
8.01126e-05
7.89649e-05
7.31078e-05
7.31103e-05
7.25487e-05
7.2262e-05
7.38072e-05
8.88123e-05
0.000102488
0.000102693
9.13665e-05
7.04109e-05
5.46268e-05
4.86205e-05
4.69288e-05
4.88955e-05
5.92e-05
6.57247e-05
9.42083e-05
0.000326765
0.00037115
0.000347832
0.000326585
0.000308501
0.00029367
0.000281102
0.000270834
0.000262032
0.000254914
0.000248026
0.000242493
0.000236667
0.000231802
0.000227402
0.000222945
0.000219482
0.000215914
0.000212902
0.000210015
0.000207569
0.000205281
0.000203078
0.000201182
0.000199181
0.000197409
0.000195681
0.000193768
0.000191887
0.000190162
0.000188012
0.000186518
0.000184469
0.000183061
0.000181326
0.000179949
0.000178247
0.000177266
0.000175569
0.000174657
0.000173067
0.000172213
0.000171051
0.000169582
0.000168931
0.000167448
0.000166843
0.000165548
0.000165137
0.00016484
0.000164494
0.000164877
0.000165134
0.000165916
0.000166937
0.000167089
0.00016745
0.000167103
0.000165997
0.000164911
0.000162558
0.000161088
0.000158188
0.000155606
0.000153084
0.000149372
0.00014623
0.000142609
0.000138215
0.000133558
0.000128999
0.000122742
0.000115687
0.000108451
9.90396e-05
9.05202e-05
7.94671e-05
6.93033e-05
5.99678e-05
5.14228e-05
4.38014e-05
3.68434e-05
3.09061e-05
2.5777e-05
2.14698e-05
1.81796e-05
1.55154e-05
1.38295e-05
1.26912e-05
1.24343e-05
1.25787e-05
1.30345e-05
1.36062e-05
1.46283e-05
1.6897e-05
1.9341e-05
2.13798e-05
2.4808e-05
2.90053e-05
3.23598e-05
3.84341e-05
4.34083e-05
4.91896e-05
5.93049e-05
7.75669e-05
0.000110189
0.000139896
0.000149504
0.000148143
0.000143335
0.00013819
0.00013446
0.000128726
0.000123121
0.000115227
9.70966e-05
7.66239e-05
6.40827e-05
6.0702e-05
6.25059e-05
7.41059e-05
0.000101913
0.000112569
0.000111477
0.00010782
9.95361e-05
8.92373e-05
8.0796e-05
7.36897e-05
7.05734e-05
6.86335e-05
6.79064e-05
6.78699e-05
6.80705e-05
6.85483e-05
6.95574e-05
7.12032e-05
7.44156e-05
7.69614e-05
7.79187e-05
7.78847e-05
7.76175e-05
7.62868e-05
7.48625e-05
7.41992e-05
7.16724e-05
6.37298e-05
5.58198e-05
5.12443e-05
4.72264e-05
4.41469e-05
4.33369e-05
4.27836e-05
4.30805e-05
4.27354e-05
4.11611e-05
4.00539e-05
3.99527e-05
3.94369e-05
3.94038e-05
3.95123e-05
4.03794e-05
4.26774e-05
4.83565e-05
5.72066e-05
7.90436e-05
9.38527e-05
0.000113159
0.000122959
0.000123652
0.000121484
0.000112873
0.000101967
9.23702e-05
8.69796e-05
8.43782e-05
8.04538e-05
7.46711e-05
7.16121e-05
7.09633e-05
7.43019e-05
7.70971e-05
7.69709e-05
7.26943e-05
7.26721e-05
7.29362e-05
7.1602e-05
7.38772e-05
9.03446e-05
0.000102865
0.000101843
8.8865e-05
6.92388e-05
5.44644e-05
4.86061e-05
4.7072e-05
4.84497e-05
5.50231e-05
6.23952e-05
8.87199e-05
0.000245183
0.000303648
0.000290236
0.000276843
0.000265699
0.00025599
0.000247737
0.000240274
0.000233749
0.000227976
0.000222694
0.00021808
0.000213464
0.000209311
0.000205215
0.000201714
0.000198144
0.000195096
0.000192247
0.000189296
0.000186689
0.000184182
0.000181759
0.000179683
0.000177474
0.000175568
0.000173823
0.000172001
0.000169953
0.000168278
0.000165646
0.000163785
0.000160884
0.000158644
0.000155801
0.000153565
0.000150605
0.000148594
0.000146234
0.000143838
0.00014246
0.000140177
0.00013892
0.000137274
0.000135913
0.000135071
0.000133462
0.000132985
0.000132009
0.00013192
0.000131591
0.00013165
0.000131894
0.000132162
0.000132782
0.000132975
0.000133258
0.000133248
0.000132913
0.00013223
0.000130642
0.000128529
0.000126345
0.000122335
0.00011904
0.000114538
0.000109244
0.000103943
9.75069e-05
9.04346e-05
8.28535e-05
7.49649e-05
6.7487e-05
6.03627e-05
5.35877e-05
4.72175e-05
4.13734e-05
3.61351e-05
3.12667e-05
2.71074e-05
2.33037e-05
1.99066e-05
1.72621e-05
1.49395e-05
1.31881e-05
1.21525e-05
1.14991e-05
1.14774e-05
1.15965e-05
1.19722e-05
1.31723e-05
1.52133e-05
1.71072e-05
2.03948e-05
2.47859e-05
2.7457e-05
3.1879e-05
3.66149e-05
3.96852e-05
4.58656e-05
5.19458e-05
5.71692e-05
6.63163e-05
8.54661e-05
0.000124873
0.000158326
0.000165431
0.000162156
0.000153023
0.000144042
0.000136621
0.000132203
0.000128487
0.000125533
0.000121454
0.000115481
0.000101015
7.7279e-05
6.46994e-05
6.18938e-05
6.3875e-05
7.41478e-05
9.74452e-05
0.000107046
0.000106677
0.000104397
9.9269e-05
9.33161e-05
8.73753e-05
8.3076e-05
7.93705e-05
7.72417e-05
7.62651e-05
7.64423e-05
7.71262e-05
7.82701e-05
7.95817e-05
8.02505e-05
8.04049e-05
8.0181e-05
7.92883e-05
7.85661e-05
7.6536e-05
7.5361e-05
7.28356e-05
6.49665e-05
5.59255e-05
5.09994e-05
4.84099e-05
4.59446e-05
4.38299e-05
4.33819e-05
4.36095e-05
4.4689e-05
4.43954e-05
4.33834e-05
4.30009e-05
4.32525e-05
4.28133e-05
4.26719e-05
4.30763e-05
4.46099e-05
4.79123e-05
5.37436e-05
6.80815e-05
9.34985e-05
0.000103063
0.000119743
0.000124568
0.000123693
0.000118271
0.000106675
9.54033e-05
8.45278e-05
7.88449e-05
7.64369e-05
7.42775e-05
7.14725e-05
7.03674e-05
7.01268e-05
7.25128e-05
7.43555e-05
7.40944e-05
7.17402e-05
7.13962e-05
7.2777e-05
7.12168e-05
7.30709e-05
9.0802e-05
0.000101694
0.000102238
8.86822e-05
6.91681e-05
5.48026e-05
4.7834e-05
4.67715e-05
4.68572e-05
5.56069e-05
5.93131e-05
8.4272e-05
0.000190335
0.000207847
0.000201754
0.000193866
0.000187912
0.000182189
0.000177929
0.000174115
0.000170944
0.000168148
0.000165819
0.000163434
0.000161319
0.000158977
0.000156421
0.000153953
0.000151488
0.000148693
0.000146561
0.000143951
0.000141647
0.000139685
0.000137305
0.000135578
0.000133465
0.000131539
0.000129713
0.000127996
0.000126068
0.000124525
0.000122505
0.00012069
0.000118364
0.000116409
0.00011345
0.000111413
0.000108323
0.000105479
0.000103415
9.97933e-05
9.81149e-05
9.52558e-05
9.2922e-05
9.11427e-05
8.87684e-05
8.74869e-05
8.6134e-05
8.48207e-05
8.4242e-05
8.36e-05
8.36093e-05
8.37452e-05
8.41742e-05
8.47365e-05
8.57985e-05
8.63222e-05
8.65233e-05
8.64593e-05
8.58323e-05
8.49907e-05
8.31899e-05
8.10103e-05
7.8702e-05
7.51248e-05
7.14518e-05
6.7515e-05
6.29615e-05
5.85943e-05
5.39629e-05
4.92334e-05
4.46244e-05
4.00882e-05
3.57276e-05
3.16228e-05
2.7924e-05
2.44638e-05
2.15024e-05
1.89065e-05
1.65772e-05
1.4814e-05
1.3066e-05
1.17841e-05
1.11585e-05
1.05325e-05
1.05398e-05
1.0625e-05
1.0943e-05
1.17601e-05
1.29808e-05
1.50745e-05
1.95556e-05
2.26437e-05
2.6387e-05
3.28379e-05
3.63671e-05
4.04884e-05
4.72849e-05
5.03485e-05
5.47637e-05
6.22074e-05
6.68973e-05
7.42796e-05
9.09394e-05
0.000132423
0.000171296
0.000179339
0.000175197
0.000161525
0.000144046
0.000129909
0.000118937
0.000116023
0.00011702
0.000119317
0.000119021
0.000117076
0.000112623
9.93806e-05
7.61082e-05
6.49421e-05
6.2517e-05
6.43589e-05
7.28316e-05
9.19239e-05
0.000101524
0.000102425
0.000101098
9.84135e-05
9.4617e-05
9.20003e-05
8.91699e-05
8.67459e-05
8.55891e-05
8.46059e-05
8.42298e-05
8.37464e-05
8.34498e-05
8.28742e-05
8.22719e-05
8.12947e-05
8.00485e-05
7.90185e-05
7.63845e-05
7.35867e-05
6.60265e-05
5.64844e-05
5.12194e-05
4.87615e-05
4.6975e-05
4.54535e-05
4.44794e-05
4.46031e-05
4.57207e-05
4.75329e-05
4.74613e-05
4.68487e-05
4.70487e-05
4.77052e-05
4.73268e-05
4.7164e-05
4.85243e-05
5.12744e-05
5.51893e-05
6.08178e-05
8.60263e-05
9.96705e-05
0.000113221
0.000124976
0.000125878
0.000123165
0.000112348
0.000101552
8.84578e-05
7.75214e-05
7.04737e-05
6.77379e-05
6.74666e-05
6.74311e-05
6.76572e-05
6.83795e-05
7.10473e-05
7.21986e-05
7.12822e-05
7.06862e-05
7.06371e-05
7.19667e-05
7.12216e-05
7.36309e-05
9.0904e-05
0.000101747
0.000102612
8.98564e-05
6.86152e-05
5.66007e-05
4.75316e-05
4.73838e-05
4.74949e-05
6.00008e-05
5.79319e-05
6.99276e-05
0.000149699
0.000110616
0.000109036
0.000106316
0.000103597
0.000101113
9.9168e-05
9.7532e-05
9.65669e-05
9.57149e-05
9.53424e-05
9.49862e-05
9.48032e-05
9.45571e-05
9.3799e-05
9.31997e-05
9.23383e-05
9.0983e-05
8.99587e-05
8.83878e-05
8.68499e-05
8.53791e-05
8.36961e-05
8.21345e-05
8.06348e-05
7.88876e-05
7.73227e-05
7.59513e-05
7.43624e-05
7.31863e-05
7.19154e-05
7.05859e-05
6.94729e-05
6.8229e-05
6.66575e-05
6.5399e-05
6.34735e-05
6.16075e-05
5.98754e-05
5.76014e-05
5.57714e-05
5.40833e-05
5.20601e-05
5.07515e-05
4.91836e-05
4.7883e-05
4.70495e-05
4.59641e-05
4.56464e-05
4.49767e-05
4.47321e-05
4.45788e-05
4.46149e-05
4.47799e-05
4.52021e-05
4.57011e-05
4.59704e-05
4.59816e-05
4.57531e-05
4.50947e-05
4.37914e-05
4.24374e-05
4.07033e-05
3.88828e-05
3.66382e-05
3.43956e-05
3.20432e-05
2.96e-05
2.71838e-05
2.47335e-05
2.22941e-05
1.99966e-05
1.77585e-05
1.5809e-05
1.39868e-05
1.2436e-05
1.12029e-05
1.0151e-05
9.59261e-06
9.07455e-06
9.08744e-06
9.21542e-06
9.44458e-06
9.97905e-06
1.06281e-05
1.17981e-05
1.43179e-05
1.72231e-05
2.0069e-05
2.55981e-05
3.12318e-05
3.52424e-05
4.28025e-05
4.90283e-05
5.27231e-05
6.009e-05
6.55128e-05
6.79851e-05
7.44187e-05
7.99899e-05
8.45946e-05
9.64388e-05
0.000131448
0.000178297
0.000191834
0.000187813
0.000170312
0.00014028
0.000119143
0.000106469
9.79835e-05
9.57075e-05
9.65612e-05
9.96413e-05
0.000109406
0.000113227
0.000112174
0.000108522
9.57894e-05
7.43609e-05
6.48172e-05
6.24858e-05
6.39722e-05
7.06058e-05
8.52377e-05
9.56795e-05
9.84743e-05
9.78858e-05
9.64937e-05
9.42423e-05
9.29275e-05
9.06724e-05
8.9606e-05
8.79845e-05
8.73228e-05
8.59864e-05
8.52868e-05
8.43945e-05
8.3267e-05
8.17427e-05
8.06654e-05
7.82318e-05
7.29378e-05
6.52452e-05
5.71905e-05
5.1631e-05
4.90797e-05
4.78919e-05
4.64386e-05
4.60638e-05
4.621e-05
4.72189e-05
5.00296e-05
5.21538e-05
5.19317e-05
5.17311e-05
5.2392e-05
5.2792e-05
5.24102e-05
5.2275e-05
5.60123e-05
5.84796e-05
6.16396e-05
6.92034e-05
0.000100256
0.000110301
0.000126029
0.000129706
0.000128624
0.000121326
0.000106881
9.79022e-05
8.45764e-05
7.46895e-05
6.74458e-05
6.41626e-05
6.39721e-05
6.44048e-05
6.50085e-05
6.64036e-05
6.87027e-05
6.953e-05
6.86969e-05
6.90959e-05
6.93355e-05
6.98538e-05
7.10173e-05
7.38789e-05
9.42613e-05
0.000102121
0.000102016
9.37409e-05
6.98926e-05
5.78019e-05
4.841e-05
4.95146e-05
4.96012e-05
6.53445e-05
5.92136e-05
6.02632e-05
0.000110153
4.49883e-05
4.47524e-05
4.42149e-05
4.33812e-05
4.27123e-05
4.19046e-05
4.12231e-05
4.10023e-05
4.10085e-05
4.11679e-05
4.15309e-05
4.22203e-05
4.29738e-05
4.34235e-05
4.36123e-05
4.35784e-05
4.34486e-05
4.30547e-05
4.22458e-05
4.12543e-05
4.02472e-05
3.93213e-05
3.83604e-05
3.76703e-05
3.68217e-05
3.61057e-05
3.54354e-05
3.48471e-05
3.44264e-05
3.41031e-05
3.3685e-05
3.33924e-05
3.31224e-05
3.26193e-05
3.2164e-05
3.13407e-05
3.03959e-05
2.93289e-05
2.81549e-05
2.68634e-05
2.59719e-05
2.4769e-05
2.41108e-05
2.31969e-05
2.25928e-05
2.21402e-05
2.1587e-05
2.1457e-05
2.12221e-05
2.11256e-05
2.10594e-05
2.1066e-05
2.11205e-05
2.12771e-05
2.15381e-05
2.17157e-05
2.17197e-05
2.16124e-05
2.11193e-05
2.04106e-05
1.97698e-05
1.87751e-05
1.80298e-05
1.69795e-05
1.59523e-05
1.48485e-05
1.3668e-05
1.25025e-05
1.13196e-05
1.02486e-05
9.25623e-06
8.40315e-06
7.83039e-06
7.22965e-06
7.08184e-06
7.13388e-06
7.28148e-06
7.68061e-06
8.06181e-06
8.85345e-06
9.82904e-06
1.1188e-05
1.37519e-05
1.58116e-05
1.91423e-05
2.44668e-05
2.8064e-05
3.36364e-05
4.24131e-05
4.74734e-05
5.55866e-05
6.54575e-05
7.00654e-05
7.76656e-05
8.54037e-05
8.74029e-05
9.02569e-05
9.74842e-05
9.9099e-05
0.000104835
0.000127627
0.000177708
0.000200066
0.000199978
0.000183815
0.000146925
0.000121504
0.000105538
9.61186e-05
9.04683e-05
8.79904e-05
8.80449e-05
8.92696e-05
9.28737e-05
0.000102942
0.000108698
0.000107911
0.000104363
9.13417e-05
7.2363e-05
6.42477e-05
6.20282e-05
6.31373e-05
6.78036e-05
7.74505e-05
8.89069e-05
9.36067e-05
9.47037e-05
9.40887e-05
9.32678e-05
9.18252e-05
9.08778e-05
8.93424e-05
8.87236e-05
8.73415e-05
8.64158e-05
8.53793e-05
8.33951e-05
8.11851e-05
7.86429e-05
7.0728e-05
6.30761e-05
5.68923e-05
5.24164e-05
4.94476e-05
4.84929e-05
4.75607e-05
4.75679e-05
4.80659e-05
4.94099e-05
5.26666e-05
5.63255e-05
5.78432e-05
5.76745e-05
5.81377e-05
5.88088e-05
5.90604e-05
5.80382e-05
5.78927e-05
6.09607e-05
6.23716e-05
6.59557e-05
8.2721e-05
0.000111269
0.00012025
0.000133122
0.000134058
0.000131907
0.000118778
0.000103262
9.58593e-05
8.18361e-05
7.27869e-05
6.54318e-05
6.22251e-05
6.19309e-05
6.23281e-05
6.34947e-05
6.48539e-05
6.58764e-05
6.64555e-05
6.63131e-05
6.67613e-05
6.85308e-05
6.83727e-05
6.87827e-05
7.41448e-05
9.39909e-05
0.000103753
0.00010221
9.37777e-05
7.13774e-05
5.88761e-05
5.09055e-05
5.40608e-05
5.05132e-05
6.09841e-05
6.00778e-05
5.73664e-05
7.58221e-05
1.36233e-05
1.35359e-05
1.33913e-05
1.31559e-05
1.29046e-05
1.25979e-05
1.23425e-05
1.22612e-05
1.22575e-05
1.23501e-05
1.27949e-05
1.34433e-05
1.42127e-05
1.48433e-05
1.5231e-05
1.53328e-05
1.53091e-05
1.51102e-05
1.46003e-05
1.39593e-05
1.3418e-05
1.29429e-05
1.25493e-05
1.22662e-05
1.20861e-05
1.19493e-05
1.17904e-05
1.16858e-05
1.16162e-05
1.1652e-05
1.17225e-05
1.17506e-05
1.17567e-05
1.17296e-05
1.16558e-05
1.14697e-05
1.10841e-05
1.06889e-05
1.01787e-05
9.68691e-06
9.30133e-06
8.87385e-06
8.63162e-06
8.34586e-06
8.16311e-06
8.03559e-06
7.95697e-06
7.98801e-06
8.00787e-06
8.05735e-06
8.10921e-06
8.09005e-06
8.02596e-06
7.97994e-06
7.94715e-06
7.94884e-06
7.89997e-06
7.81663e-06
7.60918e-06
7.32812e-06
7.19718e-06
6.88746e-06
6.67237e-06
6.50255e-06
6.21147e-06
5.94857e-06
5.66608e-06
5.47377e-06
5.298e-06
5.28579e-06
5.30701e-06
5.37122e-06
5.55942e-06
5.79163e-06
6.38187e-06
7.0011e-06
8.09921e-06
9.7585e-06
1.11882e-05
1.39318e-05
1.59787e-05
1.97121e-05
2.35454e-05
2.67974e-05
3.34226e-05
3.91587e-05
4.43247e-05
5.52812e-05
6.35216e-05
7.15211e-05
8.60352e-05
9.36862e-05
0.000101008
0.000111914
0.000114398
0.000114597
0.00011822
0.000118527
0.000119388
0.00013059
0.000170859
0.000201669
0.000210059
0.000202818
0.00016718
0.00013391
0.000111919
9.85998e-05
9.15534e-05
8.76605e-05
8.57977e-05
8.57221e-05
8.61374e-05
8.75948e-05
9.10947e-05
0.000100111
0.000105158
0.000104535
0.000100839
8.68048e-05
7.03761e-05
6.35304e-05
6.14895e-05
6.21268e-05
6.49517e-05
7.12252e-05
7.95448e-05
8.60951e-05
8.96869e-05
9.0697e-05
9.04818e-05
8.98929e-05
8.90251e-05
8.82843e-05
8.64081e-05
8.51392e-05
8.24777e-05
7.80994e-05
7.38676e-05
6.65445e-05
5.97403e-05
5.59575e-05
5.24123e-05
5.04294e-05
4.88852e-05
4.88389e-05
4.9161e-05
5.03003e-05
5.29084e-05
5.72481e-05
6.17528e-05
6.44869e-05
6.47399e-05
6.45371e-05
6.51583e-05
6.59837e-05
6.60653e-05
6.38092e-05
6.23121e-05
6.28388e-05
6.42027e-05
7.00692e-05
9.80716e-05
0.000118437
0.000127476
0.000139586
0.000139983
0.000133322
0.000111636
0.00010021
9.3012e-05
7.82628e-05
6.90677e-05
6.16036e-05
5.9513e-05
5.87286e-05
5.90771e-05
6.02177e-05
6.14977e-05
6.25941e-05
6.32388e-05
6.33852e-05
6.45405e-05
6.82897e-05
6.74018e-05
6.92416e-05
7.53655e-05
9.12955e-05
0.000104126
0.000101745
9.21103e-05
7.3499e-05
6.51892e-05
5.44713e-05
6.01787e-05
5.27758e-05
5.46871e-05
6.10663e-05
5.80218e-05
6.22955e-05
3.92834e-06
3.90508e-06
3.90059e-06
3.86376e-06
3.78071e-06
3.71718e-06
3.65762e-06
3.62735e-06
3.61872e-06
3.62109e-06
3.6845e-06
3.89295e-06
4.26661e-06
4.56269e-06
4.73207e-06
4.79558e-06
4.78047e-06
4.62478e-06
4.39449e-06
4.17336e-06
3.98418e-06
3.84127e-06
3.76143e-06
3.70425e-06
3.68996e-06
3.67709e-06
3.66585e-06
3.67218e-06
3.70359e-06
3.77805e-06
3.81988e-06
3.834e-06
3.84169e-06
3.82903e-06
3.7594e-06
3.64346e-06
3.53018e-06
3.4428e-06
3.37845e-06
3.34299e-06
3.33563e-06
3.3369e-06
3.34275e-06
3.34861e-06
3.36438e-06
3.37406e-06
3.3779e-06
3.39399e-06
3.40195e-06
3.4025e-06
3.36545e-06
3.31264e-06
3.2874e-06
3.28902e-06
3.29835e-06
3.34103e-06
3.37871e-06
3.40122e-06
3.46627e-06
3.48999e-06
3.54331e-06
3.60402e-06
3.64968e-06
3.78941e-06
3.89699e-06
4.10149e-06
4.24336e-06
4.54679e-06
4.88599e-06
5.17037e-06
5.78246e-06
6.30544e-06
7.38071e-06
8.43556e-06
1.04461e-05
1.20877e-05
1.50004e-05
1.72707e-05
2.06058e-05
2.45889e-05
2.76528e-05
3.36956e-05
3.80415e-05
4.44244e-05
5.29706e-05
5.99206e-05
6.98735e-05
8.37711e-05
9.31849e-05
0.000109727
0.000124634
0.000133253
0.000144899
0.000145938
0.000143249
0.000142882
0.000142861
0.000138834
0.000142645
0.000174589
0.000197963
0.000214143
0.000214293
0.000197136
0.000156309
0.000124566
0.00010553
9.52529e-05
9.01944e-05
8.70117e-05
8.54418e-05
8.52045e-05
8.53893e-05
8.62416e-05
8.82707e-05
9.25535e-05
0.000100719
0.000103275
0.000102529
9.83708e-05
8.31002e-05
6.89696e-05
6.30138e-05
6.11144e-05
6.12291e-05
6.27367e-05
6.63108e-05
7.09865e-05
7.6344e-05
7.9395e-05
8.19664e-05
8.21863e-05
8.17998e-05
8.03995e-05
7.8125e-05
7.53581e-05
7.07507e-05
6.62257e-05
6.18347e-05
5.73516e-05
5.45976e-05
5.27295e-05
5.08577e-05
4.9945e-05
5.02508e-05
5.11513e-05
5.28676e-05
5.69694e-05
6.35325e-05
6.84524e-05
7.1788e-05
7.25934e-05
7.22396e-05
7.17037e-05
7.18974e-05
7.30582e-05
7.21887e-05
6.85151e-05
6.59208e-05
6.7167e-05
6.97122e-05
8.45821e-05
0.000108102
0.00012287
0.000136391
0.000146989
0.000144446
0.000128105
0.00010689
9.93297e-05
8.87308e-05
7.04047e-05
6.37392e-05
5.58315e-05
5.52644e-05
5.44776e-05
5.54538e-05
5.64553e-05
5.82351e-05
5.95643e-05
6.04145e-05
6.18136e-05
6.39036e-05
6.6697e-05
6.76197e-05
7.21831e-05
8.7235e-05
9.2855e-05
9.87013e-05
0.000100624
9.34573e-05
7.77657e-05
7.25988e-05
6.03205e-05
6.33594e-05
5.75951e-05
5.77683e-05
6.30042e-05
5.99848e-05
6.08924e-05
2.46198e-06
2.47268e-06
2.52077e-06
2.53481e-06
2.52811e-06
2.5202e-06
2.52128e-06
2.52523e-06
2.52158e-06
2.5167e-06
2.51413e-06
2.52022e-06
2.55278e-06
2.62131e-06
2.66314e-06
2.69698e-06
2.70379e-06
2.69799e-06
2.67285e-06
2.6625e-06
2.64678e-06
2.63722e-06
2.6296e-06
2.62557e-06
2.62639e-06
2.62826e-06
2.62431e-06
2.61051e-06
2.59597e-06
2.58083e-06
2.57363e-06
2.5698e-06
2.56781e-06
2.56863e-06
2.56977e-06
2.57313e-06
2.57993e-06
2.60457e-06
2.73828e-06
2.8947e-06
3.04101e-06
3.16647e-06
3.22846e-06
3.2567e-06
3.25748e-06
3.23106e-06
3.19431e-06
3.10954e-06
3.07713e-06
3.0312e-06
2.98521e-06
2.9776e-06
2.97271e-06
3.07822e-06
3.29371e-06
3.58988e-06
3.96229e-06
4.11213e-06
4.42521e-06
4.59253e-06
4.8691e-06
5.12817e-06
5.31579e-06
5.74164e-06
6.18307e-06
6.72018e-06
7.15217e-06
8.17625e-06
8.82203e-06
9.89085e-06
1.13524e-05
1.24355e-05
1.48264e-05
1.68179e-05
1.99455e-05
2.30683e-05
2.64584e-05
3.05812e-05
3.56612e-05
3.97244e-05
4.59625e-05
5.35529e-05
5.98416e-05
7.01512e-05
7.81771e-05
9.31191e-05
0.000105761
0.000121802
0.000140648
0.000159573
0.000166082
0.000165901
0.000163965
0.00015834
0.000151645
0.000151669
0.000149613
0.000148249
0.000166812
0.000193635
0.000208674
0.00021837
0.000215301
0.000192439
0.00014936
0.000119248
0.000102385
9.43062e-05
9.03675e-05
8.80739e-05
8.64577e-05
8.55917e-05
8.56055e-05
8.59512e-05
8.72011e-05
8.98199e-05
9.56736e-05
0.000100577
0.000102253
0.000101451
9.65991e-05
8.03969e-05
6.82847e-05
6.2752e-05
6.13049e-05
6.07877e-05
6.13211e-05
6.25578e-05
6.52503e-05
6.6858e-05
6.91528e-05
6.98915e-05
6.97261e-05
6.85634e-05
6.71426e-05
6.42574e-05
6.11472e-05
5.86028e-05
5.58265e-05
5.37991e-05
5.31198e-05
5.17121e-05
5.13878e-05
5.19855e-05
5.43791e-05
5.67923e-05
6.07093e-05
6.95976e-05
7.63331e-05
7.9483e-05
7.9872e-05
7.95475e-05
7.85216e-05
7.7603e-05
7.79463e-05
7.81634e-05
7.76877e-05
7.3989e-05
7.11471e-05
7.17832e-05
7.34915e-05
9.33048e-05
0.000109155
0.000131919
0.000148075
0.000152205
0.000146584
0.000125927
0.000106526
9.95425e-05
8.22164e-05
6.58295e-05
6.24481e-05
5.44109e-05
5.44108e-05
5.2596e-05
5.31664e-05
5.39697e-05
5.57573e-05
5.67337e-05
5.86198e-05
6.07902e-05
6.23073e-05
6.55115e-05
6.73639e-05
7.30862e-05
9.86814e-05
9.81445e-05
9.7955e-05
0.000100999
9.42442e-05
7.77587e-05
7.40393e-05
6.46641e-05
6.51592e-05
6.44742e-05
6.33301e-05
6.85242e-05
6.72773e-05
6.58017e-05
2.36636e-06
2.38415e-06
2.444e-06
2.49362e-06
2.52107e-06
2.53891e-06
2.55893e-06
2.58311e-06
2.59433e-06
2.60984e-06
2.61152e-06
2.60972e-06
2.59679e-06
2.58035e-06
2.56551e-06
2.55896e-06
2.55932e-06
2.56175e-06
2.56689e-06
2.57288e-06
2.59308e-06
2.66026e-06
2.75811e-06
2.86776e-06
2.95261e-06
3.02176e-06
3.07306e-06
3.0893e-06
3.10964e-06
3.11194e-06
3.11398e-06
3.11621e-06
3.12956e-06
3.20261e-06
3.25722e-06
3.31738e-06
3.45117e-06
3.97997e-06
4.66573e-06
5.20722e-06
5.7066e-06
6.0477e-06
6.27032e-06
6.33571e-06
6.34123e-06
6.28036e-06
6.21909e-06
6.05318e-06
5.95842e-06
5.82136e-06
5.68334e-06