/*--------------------------------*- C++ -*----------------------------------*\
| =========                 |                                                 |
| \\      /  F ield         | OpenFOAM: The Open Source CFD Toolbox           |
|  \\    /   O peration     | Version:  2.4.0                                 |
|   \\  /    A nd           | Web:      www.OpenFOAM.org                      |
|    \\/     M anipulation  |                                                 |
\*---------------------------------------------------------------------------*/
FoamFile
{
    version     2.0;
    format      ascii;
    class       volVectorField;
    location    "0.34";
    object      UMean;
}
// * * * * * * * * * * * * * * * * * * * * * * * * * * * * * * * * * * * * * //

dimensions      [0 1 -1 0 0 0 0];

internalField   nonuniform List<vector> 
8800
(
(8.09433 0.385768 0)
(5.47911 0.241855 0)
(3.95505 0.0434012 0)
(3.20632 -0.0149658 0)
(2.85462 -0.0180233 0)
(2.65556 -0.0108826 0)
(2.54595 -0.0056201 0)
(2.44491 -0.00218412 0)
(2.38904 -0.0015259 0)
(2.32117 -0.00042157 0)
(2.29323 -0.000763271 0)
(2.24221 0.000158521 0)
(2.22536 -0.000279267 0)
(2.17992 0.000743821 0)
(2.16269 8.96607e-05 0)
(2.11946 0.00147463 0)
(2.09525 -3.68867e-06 0)
(2.0501 0.00204158 0)
(2.0411 0.00194366 0)
(1.87341 -0.0374364 0)
(10.0731 0.832697 0)
(9.66159 0.860434 0)
(8.89047 0.501927 0)
(8.11122 0.258747 0)
(7.53 0.135804 0)
(7.05177 0.0803177 0)
(6.75189 0.052037 0)
(6.46001 0.0390882 0)
(6.30001 0.0279551 0)
(6.10004 0.0233682 0)
(6.0184 0.0169556 0)
(5.8679 0.0172458 0)
(5.82415 0.0132245 0)
(5.69861 0.0162727 0)
(5.66339 0.0133818 0)
(5.5533 0.0168846 0)
(5.50673 0.0183949 0)
(5.40444 0.0122393 0)
(5.35441 0.0312871 0)
(5.22633 -0.0407146 0)
(10.0523 0.627718 0)
(10.6527 0.85544 0)
(10.866 0.594429 0)
(10.6916 0.368393 0)
(10.4609 0.251042 0)
(10.0946 0.192404 0)
(9.85446 0.148497 0)
(9.51737 0.118972 0)
(9.35072 0.0894121 0)
(9.07373 0.0734559 0)
(8.98177 0.0545275 0)
(8.75536 0.050663 0)
(8.71262 0.038643 0)
(8.51683 0.0421913 0)
(8.49561 0.0337262 0)
(8.31652 0.0409335 0)
(8.29483 0.0377596 0)
(8.11975 0.0427255 0)
(8.08295 0.0470322 0)
(7.91438 -0.0179502 0)
(9.9932 0.45469 0)
(10.5628 0.69929 0)
(11.1609 0.539452 0)
(11.3648 0.347493 0)
(11.5429 0.256639 0)
(11.4446 0.223121 0)
(11.477 0.194077 0)
(11.2859 0.171567 0)
(11.2879 0.140659 0)
(11.0707 0.12219 0)
(11.081 0.0977375 0)
(10.8619 0.0905597 0)
(10.8878 0.0732858 0)
(10.6706 0.0753975 0)
(10.7064 0.0619944 0)
(10.4894 0.0717014 0)
(10.5247 0.0600678 0)
(10.3018 0.0814592 0)
(10.3101 0.0607862 0)
(10.0774 0.0867063 0)
(10.0353 0.34487 0)
(10.3993 0.562532 0)
(11.0393 0.455821 0)
(11.2944 0.290287 0)
(11.6409 0.204587 0)
(11.6534 0.189176 0)
(11.8597 0.172538 0)
(11.7941 0.166367 0)
(11.9587 0.138343 0)
(11.8602 0.130525 0)
(12.0051 0.102746 0)
(11.8864 0.105524 0)
(12.0159 0.0811764 0)
(11.8814 0.095522 0)
(11.9941 0.0709537 0)
(11.8469 0.096681 0)
(11.9383 0.068216 0)
(11.7795 0.11091 0)
(11.8289 0.0678549 0)
(11.6262 0.120036 0)
(10.0472 0.251266 0)
(10.3159 0.451282 0)
(10.8927 0.373201 0)
(11.1713 0.24433 0)
(11.5164 0.158345 0)
(11.5877 0.148536 0)
(11.7855 0.13797 0)
(11.7967 0.139391 0)
(11.9596 0.114684 0)
(11.9619 0.111243 0)
(12.109 0.0864945 0)
(12.1071 0.0902168 0)
(12.2378 0.070957 0)
(12.2308 0.0827797 0)
(12.3424 0.0673899 0)
(12.3299 0.0848035 0)
(12.4186 0.0720374 0)
(12.3991 0.092701 0)
(12.4468 0.0725635 0)
(12.3558 0.048054 0)
(10.0039 0.173954 0)
(10.2986 0.350447 0)
(10.7486 0.286526 0)
(11.1051 0.202589 0)
(11.3806 0.11658 0)
(11.5391 0.11322 0)
(11.661 0.102727 0)
(11.7473 0.112452 0)
(11.8384 0.0863987 0)
(11.9189 0.089826 0)
(12.0022 0.0635257 0)
(12.0807 0.0721444 0)
(12.1552 0.0511184 0)
(12.2294 0.0660656 0)
(12.2939 0.049674 0)
(12.3628 0.067856 0)
(12.416 0.0537382 0)
(12.4752 0.0695501 0)
(12.4977 0.0434397 0)
(12.4654 0.00580756 0)
(9.99805 0.114314 0)
(10.2589 0.248404 0)
(10.6753 0.203782 0)
(11.0267 0.150329 0)
(11.3118 0.0818231 0)
(11.4732 0.0774965 0)
(11.6031 0.0726958 0)
(11.6778 0.0805567 0)
(11.7771 0.0625281 0)
(11.8455 0.0635815 0)
(11.9419 0.0455364 0)
(12.0061 0.0497753 0)
(12.098 0.0366069 0)
(12.1547 0.0448624 0)
(12.2402 0.0355959 0)
(12.2887 0.0450662 0)
(12.3669 0.0358772 0)
(12.4009 0.039874 0)
(12.449 0.0179374 0)
(12.3779 -0.0225751 0)
(9.98324 0.0639741 0)
(10.2461 0.148226 0)
(10.6149 0.121779 0)
(10.9896 0.092027 0)
(11.2522 0.0479943 0)
(11.4467 0.0463943 0)
(11.5511 0.0426535 0)
(11.6501 0.0493614 0)
(11.7216 0.0374827 0)
(11.816 0.0385406 0)
(11.8857 0.0266485 0)
(11.9769 0.0296908 0)
(12.0416 0.0208297 0)
(12.1265 0.026186 0)
(12.1829 0.0192333 0)
(12.2602 0.023854 0)
(12.3074 0.01544 0)
(12.3693 0.0137973 0)
(12.3815 -0.00610928 0)
(12.3341 -0.040915 0)
(9.99005 0.0206967 0)
(10.2263 0.0491274 0)
(10.5991 0.0407111 0)
(10.9573 0.0306843 0)
(11.237 0.0159464 0)
(11.4196 0.0152376 0)
(11.54 0.0141052 0)
(11.6222 0.0164711 0)
(11.7091 0.0123791 0)
(11.7872 0.0124817 0)
(11.8727 0.00843762 0)
(11.9483 0.00890869 0)
(12.0292 0.00571346 0)
(12.0974 0.00639456 0)
(12.1708 0.00292479 0)
(12.2306 0.00172639 0)
(12.2934 -0.00464064 0)
(12.3374 -0.0114665 0)
(12.3626 -0.0275693 0)
(12.2934 -0.0549354 0)
(9.99001 -0.0223472 0)
(10.2263 -0.0470563 0)
(10.5989 -0.0426277 0)
(10.9576 -0.0288332 0)
(11.2367 -0.0179896 0)
(11.4201 -0.0135416 0)
(11.5394 -0.0164301 0)
(11.6229 -0.0146397 0)
(11.7086 -0.0150088 0)
(11.7875 -0.0115239 0)
(11.8723 -0.0119401 0)
(11.9488 -0.00947439 0)
(12.0284 -0.0118562 0)
(12.0978 -0.0109162 0)
(12.1696 -0.0158224 0)
(12.23 -0.0178871 0)
(12.2915 -0.0265445 0)
(12.335 -0.0334126 0)
(12.3581 -0.0497307 0)
(12.2865 -0.0641269 0)
(9.98593 -0.0652976 0)
(10.2432 -0.14662 0)
(10.6175 -0.123222 0)
(10.9866 -0.0906626 0)
(11.2551 -0.0495336 0)
(11.4438 -0.0453375 0)
(11.5539 -0.0443912 0)
(11.6468 -0.0484035 0)
(11.7247 -0.0392814 0)
(11.8125 -0.0384851 0)
(11.8885 -0.0294625 0)
(11.9733 -0.0312227 0)
(12.044 -0.0261702 0)
(12.1219 -0.0316577 0)
(12.1845 -0.0310727 0)
(12.2535 -0.0406982 0)
(12.3056 -0.0451493 0)
(12.3579 -0.0591863 0)
(12.3717 -0.068661 0)
(12.3099 -0.0776993 0)
(9.9947 -0.115952 0)
(10.262 -0.246289 0)
(10.6714 -0.205677 0)
(11.0304 -0.148313 0)
(11.3076 -0.0838109 0)
(11.4771 -0.0755375 0)
(11.5988 -0.0750235 0)
(11.6816 -0.0785561 0)
(11.7727 -0.0652612 0)
(11.8492 -0.062267 0)
(11.9369 -0.0493344 0)
(12.0097 -0.0499852 0)
(12.092 -0.0430116 0)
(12.1575 -0.0489445 0)
(12.2319 -0.0485216 0)
(12.2887 -0.0596635 0)
(12.3529 -0.0661577 0)
(12.3929 -0.0818977 0)
(12.4213 -0.0929119 0)
(12.3497 -0.0893709 0)
(10.0098 -0.175242 0)
(10.2925 -0.348839 0)
(10.7538 -0.288157 0)
(11.0999 -0.20104 0)
(11.3856 -0.118265 0)
(11.5339 -0.111575 0)
(11.6661 -0.104715 0)
(11.7422 -0.111026 0)
(11.843 -0.0887888 0)
(11.9137 -0.0890506 0)
(12.0065 -0.0669487 0)
(12.0748 -0.0728593 0)
(12.1591 -0.0572738 0)
(12.2215 -0.0706417 0)
(12.2951 -0.0621537 0)
(12.3501 -0.0822825 0)
(12.4098 -0.0822373 0)
(12.4497 -0.109292 0)
(12.4725 -0.11432 0)
(12.4077 -0.115751 0)
(10.0469 -0.251988 0)
(10.316 -0.45039 0)
(10.8916 -0.37404 0)
(11.1723 -0.243953 0)
(11.515 -0.159005 0)
(11.5889 -0.148184 0)
(11.7837 -0.138627 0)
(11.798 -0.139709 0)
(11.9571 -0.115446 0)
(11.9634 -0.112528 0)
(12.1056 -0.0876929 0)
(12.1081 -0.0934569 0)
(12.2329 -0.0741825 0)
(12.2293 -0.0902859 0)
(12.3328 -0.0758594 0)
(12.3212 -0.102005 0)
(12.3973 -0.0942428 0)
(12.3706 -0.133183 0)
(12.3941 -0.130202 0)
(12.2755 -0.150682 0)
(10.0421 -0.346317 0)
(10.3928 -0.560635 0)
(11.044 -0.457587 0)
(11.2896 -0.288719 0)
(11.6445 -0.206517 0)
(11.6492 -0.187377 0)
(11.8623 -0.174794 0)
(11.7904 -0.164644 0)
(11.9601 -0.141236 0)
(11.8569 -0.129102 0)
(12.0044 -0.106679 0)
(11.8826 -0.105068 0)
(12.0111 -0.0879074 0)
(11.8747 -0.0979434 0)
(11.9799 -0.083714 0)
(11.8307 -0.106223 0)
(11.9018 -0.0957308 0)
(11.7364 -0.137603 0)
(11.74 -0.129646 0)
(11.5057 -0.170038 0)
(9.99785 -0.45524 0)
(10.5566 -0.698502 0)
(11.1662 -0.540131 0)
(11.3578 -0.346919 0)
(11.5493 -0.257546 0)
(11.4363 -0.222407 0)
(11.4846 -0.195164 0)
(11.2755 -0.170945 0)
(11.2969 -0.142157 0)
(11.057 -0.122112 0)
(11.0906 -0.0997202 0)
(10.8431 -0.0919115 0)
(10.8957 -0.0766473 0)
(10.6425 -0.0806083 0)
(10.7058 -0.0684604 0)
(10.4424 -0.0856261 0)
(10.4982 -0.0748832 0)
(10.2143 -0.115279 0)
(10.2159 -0.101335 0)
(9.87751 -0.163267 0)
(10.0529 -0.628227 0)
(10.6506 -0.854899 0)
(10.8678 -0.594816 0)
(10.6882 -0.368009 0)
(10.4643 -0.25166 0)
(10.0892 -0.191899 0)
(9.8598 -0.149311 0)
(9.50854 -0.118409 0)
(9.35889 -0.0907089 0)
(9.05877 -0.073085 0)
(8.99322 -0.0564794 0)
(8.73081 -0.0509137 0)
(8.72611 -0.0420708 0)
(8.47569 -0.0446497 0)
(8.50539 -0.0399024 0)
(8.24469 -0.049534 0)
(8.28302 -0.0490299 0)
(7.98847 -0.0703571 0)
(7.98875 -0.0750969 0)
(7.63206 -0.0946232 0)
(10.073 -0.832834 0)
(9.66066 -0.860242 0)
(8.8909 -0.502003 0)
(8.10991 -0.258643 0)
(7.53145 -0.136045 0)
(7.04899 -0.0802031 0)
(6.75436 -0.0523003 0)
(6.45473 -0.0390031 0)
(6.30419 -0.0284075 0)
(6.08979 -0.0234414 0)
(6.02472 -0.017694 0)
(5.8488 -0.0177592 0)
(5.83224 -0.0146536 0)
(5.66275 -0.0181016 0)
(5.66879 -0.0160821 0)
(5.48459 -0.0227811 0)
(5.49373 -0.0228013 0)
(5.26927 -0.0334212 0)
(5.25875 -0.0413199 0)
(4.94318 -0.0264362 0)
(8.09411 -0.385817 0)
(5.47875 -0.241801 0)
(3.95509 -0.0434177 0)
(3.20621 0.0149661 0)
(2.85484 0.0179663 0)
(2.65464 0.010922 0)
(2.54643 0.00558333 0)
(2.44301 0.00218681 0)
(2.38975 0.00150632 0)
(2.3173 0.000352469 0)
(2.29363 0.000731788 0)
(2.23444 -0.000305581 0)
(2.22463 0.000195471 0)
(2.16367 -0.00114584 0)
(2.15683 -0.000385897 0)
(2.0852 -0.0023925 0)
(2.07188 -0.00133143 0)
(1.97833 -0.00409405 0)
(1.93949 -0.00536205 0)
(1.77187 0.0123486 0)
(2.25847 -0.0872169 0)
(2.42635 0.0192419 0)
(2.73337 0.0242911 0)
(3.00601 -0.00285599 0)
(3.26453 -0.0325495 0)
(3.45789 -0.0527774 0)
(3.64996 -0.0700957 0)
(3.78716 -0.0797016 0)
(3.93547 -0.103835 0)
(4.06035 -0.128676 0)
(4.19786 -0.154111 0)
(4.31519 -0.177237 0)
(4.44654 -0.202814 0)
(4.56024 -0.226824 0)
(4.6811 -0.25444 0)
(4.79543 -0.278089 0)
(4.91509 -0.303226 0)
(5.04261 -0.327039 0)
(5.18807 -0.350682 0)
(5.3409 -0.371986 0)
(5.4977 -0.405886 0)
(5.65334 -0.442952 0)
(5.79806 -0.481119 0)
(5.93662 -0.517377 0)
(6.06621 -0.550906 0)
(6.18487 -0.580823 0)
(6.30763 -0.610041 0)
(6.41874 -0.632547 0)
(6.54755 -0.652811 0)
(6.67064 -0.673781 0)
(6.81969 -0.703903 0)
(6.97076 -0.74057 0)
(7.13588 -0.788083 0)
(7.29862 -0.839017 0)
(7.45163 -0.892174 0)
(7.60318 -0.943756 0)
(7.73371 -0.990499 0)
(7.87109 -1.03472 0)
(7.9855 -1.07738 0)
(8.11747 -1.12167 0)
(8.22699 -1.16385 0)
(8.35125 -1.20915 0)
(8.45391 -1.25526 0)
(8.56219 -1.30226 0)
(8.6522 -1.34672 0)
(8.74297 -1.38831 0)
(8.82493 -1.42843 0)
(8.90852 -1.46448 0)
(8.98868 -1.50095 0)
(9.0726 -1.53133 0)
(9.15325 -1.56416 0)
(9.23996 -1.58811 0)
(9.31889 -1.6175 0)
(9.40523 -1.63748 0)
(9.47769 -1.66611 0)
(9.55503 -1.68643 0)
(9.61747 -1.71547 0)
(9.67595 -1.73588 0)
(9.72508 -1.76369 0)
(9.76473 -1.78294 0)
(9.80531 -1.81211 0)
(9.83779 -1.83228 0)
(9.87103 -1.8631 0)
(9.90861 -1.88165 0)
(9.9252 -1.90743 0)
(9.96411 -1.91774 0)
(9.95793 -1.92479 0)
(9.98206 -1.91819 0)
(9.9659 -1.90867 0)
(9.97809 -1.89528 0)
(9.96488 -1.88434 0)
(9.96813 -1.86263 0)
(9.93874 -1.84696 0)
(9.9395 -1.81874 0)
(9.90222 -1.80336 0)
(9.90754 -1.77394 0)
(9.86624 -1.75755 0)
(9.87767 -1.73542 0)
(9.83963 -1.72165 0)
(9.84297 -1.69756 0)
(9.81182 -1.67432 0)
(9.79327 -1.62834 0)
(9.75692 -1.57978 0)
(9.71129 -1.51321 0)
(9.66989 -1.43847 0)
(9.59474 -1.35438 0)
(9.54981 -1.27008 0)
(9.46878 -1.18028 0)
(9.4133 -1.09305 0)
(9.33244 -0.996403 0)
(9.26726 -0.902858 0)
(9.18984 -0.790623 0)
(9.10875 -0.689407 0)
(9.02987 -0.577846 0)
(8.94456 -0.481811 0)
(8.87546 -0.375768 0)
(8.78923 -0.286414 0)
(8.72967 -0.192246 0)
(8.65437 -0.119273 0)
(8.62615 -0.0471053 0)
(8.55642 0.00127143 0)
(8.56197 0.0631596 0)
(8.50183 0.0830368 0)
(8.53212 0.136091 0)
(8.46787 0.173467 0)
(8.50052 0.233793 0)
(8.42735 0.273764 0)
(8.45387 0.336938 0)
(8.36897 0.377491 0)
(8.38078 0.432975 0)
(8.28257 0.466339 0)
(8.28053 0.510061 0)
(8.16405 0.525423 0)
(8.1697 0.55392 0)
(8.03789 0.546972 0)
(8.07646 0.577219 0)
(7.92466 0.566463 0)
(7.9894 0.598447 0)
(7.82211 0.583582 0)
(7.87788 0.62308 0)
(7.7111 0.610089 0)
(7.7731 0.644257 0)
(7.6306 0.611496 0)
(7.71596 0.632647 0)
(7.57843 0.581348 0)
(7.6784 0.598024 0)
(7.5449 0.535794 0)
(7.6422 0.558807 0)
(7.52303 0.507211 0)
(7.60115 0.532552 0)
(7.49419 0.487763 0)
(7.56859 0.514224 0)
(7.45727 0.479106 0)
(7.53788 0.512914 0)
(7.41282 0.471441 0)
(7.50245 0.512601 0)
(7.37261 0.472171 0)
(7.46555 0.527167 0)
(7.33153 0.487242 0)
(7.43435 0.5403 0)
(7.28772 0.493511 0)
(7.38854 0.544853 0)
(7.23945 0.500668 0)
(7.35146 0.540462 0)
(7.20461 0.489043 0)
(7.34479 0.524368 0)
(7.15736 0.470611 0)
(7.34585 0.512546 0)
(7.12381 0.449069 0)
(7.32796 0.488861 0)
(7.09608 0.432301 0)
(7.29258 0.473226 0)
(7.07093 0.422184 0)
(7.25347 0.464565 0)
(7.04552 0.415673 0)
(7.20822 0.459702 0)
(7.03277 0.422817 0)
(7.17051 0.468389 0)
(7.03329 0.432632 0)
(7.16167 0.48985 0)
(7.06291 0.441893 0)
(7.14693 0.494586 0)
(7.09782 0.460929 0)
(7.12637 0.52123 0)
(7.0853 0.497039 0)
(7.08805 0.558129 0)
(7.08386 0.546347 0)
(7.03238 0.593699 0)
(7.08973 0.606082 0)
(6.93595 0.652024 0)
(7.0715 0.671589 0)
(6.80108 0.731831 0)
(6.99798 0.733865 0)
(6.66256 0.823962 0)
(6.91632 0.790006 0)
(6.52318 0.939003 0)
(6.85937 0.858928 0)
(6.40678 1.07305 0)
(6.80875 0.938312 0)
(6.30983 1.22696 0)
(6.74241 1.04333 0)
(6.23236 1.39814 0)
(6.66427 1.17509 0)
(6.17833 1.58722 0)
(6.56467 1.35473 0)
(6.14167 1.80146 0)
(6.46128 1.59867 0)
(6.0782 2.02504 0)
(6.35183 1.90752 0)
(5.9416 2.26654 0)
(6.25347 2.29013 0)
(5.72271 2.58649 0)
(6.11261 2.74411 0)
(5.51519 3.08415 0)
(5.85888 3.27969 0)
(5.43827 3.96118 0)
(5.54881 4.10796 0)
(5.11108 5.32816 0)
(6.0706 6.08147 0)
(3.83566 8.96586 0)
(5.32742 -0.059821 0)
(5.31945 -0.0251442 0)
(5.37755 -0.0415319 0)
(5.48879 -0.0867608 0)
(5.62815 -0.127657 0)
(5.75082 -0.151557 0)
(5.86079 -0.167117 0)
(5.94463 -0.178623 0)
(6.01875 -0.19583 0)
(6.08488 -0.218171 0)
(6.15562 -0.244711 0)
(6.22759 -0.271906 0)
(6.3104 -0.299692 0)
(6.39563 -0.325773 0)
(6.48962 -0.351479 0)
(6.58509 -0.377523 0)
(6.68812 -0.403678 0)
(6.79124 -0.430406 0)
(6.90277 -0.45947 0)
(7.01683 -0.488427 0)
(7.13524 -0.521688 0)
(7.25488 -0.558071 0)
(7.36882 -0.59352 0)
(7.48054 -0.628018 0)
(7.58821 -0.658872 0)
(7.6917 -0.687292 0)
(7.79988 -0.712014 0)
(7.90256 -0.735754 0)
(8.01647 -0.759538 0)
(8.1235 -0.786248 0)
(8.24792 -0.818242 0)
(8.36246 -0.855914 0)
(8.49458 -0.900846 0)
(8.6083 -0.947757 0)
(8.73341 -0.997153 0)
(8.83544 -1.04171 0)
(8.9426 -1.08667 0)
(9.03177 -1.12466 0)
(9.11966 -1.1659 0)
(9.2018 -1.20236 0)
(9.27887 -1.24495 0)
(9.3603 -1.28331 0)
(9.43228 -1.32811 0)
(9.51254 -1.36772 0)
(9.58245 -1.41095 0)
(9.65797 -1.4485 0)
(9.72787 -1.48815 0)
(9.79641 -1.52282 0)
(9.86651 -1.55863 0)
(9.92575 -1.58894 0)
(9.99349 -1.61954 0)
(10.0414 -1.64358 0)
(10.1028 -1.66878 0)
(10.1388 -1.6873 0)
(10.1906 -1.70948 0)
(10.2161 -1.72569 0)
(10.2569 -1.7475 0)
(10.2752 -1.7658 0)
(10.3075 -1.78864 0)
(10.321 -1.81205 0)
(10.3503 -1.83638 0)
(10.3525 -1.86167 0)
(10.3777 -1.88432 0)
(10.3592 -1.90221 0)
(10.3733 -1.91574 0)
(10.337 -1.91724 0)
(10.3281 -1.91255 0)
(10.2862 -1.90006 0)
(10.2654 -1.89064 0)
(10.23 -1.88052 0)
(10.1997 -1.86125 0)
(10.1595 -1.84112 0)
(10.1232 -1.81765 0)
(10.0815 -1.79615 0)
(10.0357 -1.77805 0)
(10.0015 -1.75235 0)
(9.94248 -1.73772 0)
(9.91857 -1.71116 0)
(9.84124 -1.69578 0)
(9.82021 -1.667 0)
(9.73373 -1.63902 0)
(9.70091 -1.58715 0)
(9.61196 -1.53848 0)
(9.56733 -1.46068 0)
(9.47426 -1.38467 0)
(9.42126 -1.29562 0)
(9.3351 -1.21388 0)
(9.2769 -1.1161 0)
(9.18665 -1.03388 0)
(9.1265 -0.931212 0)
(9.03913 -0.839114 0)
(8.96823 -0.721569 0)
(8.87665 -0.626358 0)
(8.79462 -0.511658 0)
(8.70259 -0.420351 0)
(8.61781 -0.30997 0)
(8.53819 -0.227918 0)
(8.46161 -0.136393 0)
(8.42058 -0.0766014 0)
(8.36206 -0.0123844 0)
(8.35059 0.0239021 0)
(8.31706 0.0728501 0)
(8.32628 0.090015 0)
(8.2879 0.142164 0)
(8.30729 0.186605 0)
(8.25613 0.24582 0)
(8.27536 0.29575 0)
(8.20773 0.358473 0)
(8.21889 0.406982 0)
(8.13187 0.466551 0)
(8.14456 0.509425 0)
(8.03308 0.558327 0)
(8.04794 0.578368 0)
(7.91718 0.602999 0)
(7.93754 0.599297 0)
(7.79757 0.621793 0)
(7.82345 0.6123 0)
(7.69121 0.639662 0)
(7.71359 0.635156 0)
(7.56721 0.665374 0)
(7.61431 0.653573 0)
(7.47519 0.664234 0)
(7.56279 0.636166 0)
(7.43022 0.639538 0)
(7.54283 0.599536 0)
(7.41022 0.605151 0)
(7.54634 0.555415 0)
(7.39084 0.565455 0)
(7.54216 0.52828 0)
(7.36694 0.541345 0)
(7.52363 0.502903 0)
(7.34498 0.524715 0)
(7.4959 0.489611 0)
(7.32048 0.524822 0)
(7.47428 0.488464 0)
(7.27616 0.524276 0)
(7.4573 0.492187 0)
(7.23205 0.525821 0)
(7.4476 0.507313 0)
(7.19668 0.531992 0)
(7.44176 0.520318 0)
(7.15591 0.54502 0)
(7.41562 0.525807 0)
(7.13154 0.548086 0)
(7.38438 0.507036 0)
(7.11966 0.537413 0)
(7.35518 0.481263 0)
(7.09801 0.521849 0)
(7.35587 0.457066 0)
(7.08087 0.501087 0)
(7.34145 0.433017 0)
(7.0582 0.484483 0)
(7.31368 0.419104 0)
(7.02847 0.482777 0)
(7.29477 0.408054 0)
(6.99298 0.483267 0)
(7.28873 0.394597 0)
(6.96573 0.494793 0)
(7.31843 0.395575 0)
(6.95628 0.508188 0)
(7.37748 0.401306 0)
(6.96934 0.527015 0)
(7.39216 0.421633 0)
(6.98758 0.57176 0)
(7.38379 0.45155 0)
(6.99367 0.608428 0)
(7.39135 0.483963 0)
(6.97577 0.665337 0)
(7.36878 0.531842 0)
(6.93644 0.753658 0)
(7.31443 0.59563 0)
(6.87788 0.856691 0)
(7.24729 0.655321 0)
(6.8051 0.959253 0)
(7.16748 0.706189 0)
(6.72676 1.06553 0)
(7.12109 0.774583 0)
(6.65488 1.18338 0)
(7.09483 0.875588 0)
(6.57707 1.31788 0)
(7.06779 1.00167 0)
(6.50045 1.46001 0)
(7.04274 1.16582 0)
(6.42617 1.61409 0)
(7.03107 1.37784 0)
(6.34263 1.79215 0)
(7.04174 1.63721 0)
(6.25015 2.01541 0)
(7.04769 1.9243 0)
(6.16949 2.34098 0)
(6.9914 2.23374 0)
(6.15547 2.80585 0)
(6.81191 2.59668 0)
(6.18157 3.42511 0)
(6.5776 3.15263 0)
(6.07009 4.20923 0)
(6.80225 4.17112 0)
(5.50132 5.55348 0)
(8.27047 5.20554 0)
(6.28463 9.57767 0)
(7.9374 -0.0855195 0)
(7.9434 -0.0944209 0)
(7.97942 -0.115985 0)
(8.05948 -0.143841 0)
(8.15756 -0.167088 0)
(8.24538 -0.182621 0)
(8.30733 -0.194944 0)
(8.34733 -0.207405 0)
(8.37007 -0.224392 0)
(8.39251 -0.247493 0)
(8.41676 -0.276167 0)
(8.45265 -0.307988 0)
(8.49388 -0.341138 0)
(8.54607 -0.374143 0)
(8.60125 -0.406276 0)
(8.66508 -0.437572 0)
(8.72969 -0.467991 0)
(8.79936 -0.497977 0)
(8.86633 -0.52851 0)
(8.93878 -0.560326 0)
(9.00599 -0.593886 0)
(9.08146 -0.629746 0)
(9.14776 -0.664598 0)
(9.22403 -0.69916 0)
(9.28959 -0.730157 0)
(9.36839 -0.759904 0)
(9.4359 -0.78564 0)
(9.5197 -0.812208 0)
(9.59001 -0.836836 0)
(9.67499 -0.865978 0)
(9.74681 -0.896113 0)
(9.82856 -0.933884 0)
(9.89999 -0.973028 0)
(9.97138 -1.01828 0)
(10.0375 -1.06116 0)
(10.0939 -1.10572 0)
(10.1539 -1.14506 0)
(10.198 -1.18382 0)
(10.2539 -1.21894 0)
(10.2918 -1.25412 0)
(10.347 -1.28986 0)
(10.388 -1.32643 0)
(10.443 -1.36615 0)
(10.489 -1.40522 0)
(10.5397 -1.44689 0)
(10.5874 -1.48584 0)
(10.6286 -1.52567 0)
(10.6723 -1.56131 0)
(10.7011 -1.59608 0)
(10.7363 -1.62584 0)
(10.753 -1.65282 0)
(10.7773 -1.67568 0)
(10.7846 -1.69531 0)
(10.7972 -1.7121 0)
(10.7987 -1.72838 0)
(10.8032 -1.74299 0)
(10.8031 -1.76191 0)
(10.806 -1.77949 0)
(10.804 -1.80269 0)
(10.8063 -1.82184 0)
(10.7918 -1.8422 0)
(10.7859 -1.8578 0)
(10.7481 -1.86949 0)
(10.7223 -1.87816 0)
(10.6612 -1.87719 0)
(10.6103 -1.87434 0)
(10.5387 -1.86444 0)
(10.4796 -1.85669 0)
(10.4176 -1.84686 0)
(10.3523 -1.83619 0)
(10.2885 -1.81876 0)
(10.2184 -1.79761 0)
(10.1563 -1.7707 0)
(10.0786 -1.7511 0)
(10.0175 -1.72749 0)
(9.92763 -1.70557 0)
(9.85939 -1.68441 0)
(9.76605 -1.65662 0)
(9.68947 -1.64112 0)
(9.60624 -1.61005 0)
(9.52437 -1.58193 0)
(9.44617 -1.52959 0)
(9.37062 -1.48091 0)
(9.2889 -1.39507 0)
(9.21858 -1.32736 0)
(9.14087 -1.23135 0)
(9.07018 -1.15185 0)
(8.98266 -1.04885 0)
(8.91857 -0.971691 0)
(8.82234 -0.865734 0)
(8.7662 -0.771996 0)
(8.65757 -0.650462 0)
(8.59432 -0.558488 0)
(8.47944 -0.437478 0)
(8.41644 -0.350538 0)
(8.31017 -0.240181 0)
(8.24496 -0.171995 0)
(8.16571 -0.0875384 0)
(8.13802 -0.0455805 0)
(8.08303 0.0131386 0)
(8.08523 0.0305402 0)
(8.05433 0.0768592 0)
(8.05387 0.0850736 0)
(8.02897 0.149116 0)
(8.02284 0.189053 0)
(7.99736 0.263127 0)
(7.97515 0.306921 0)
(7.95093 0.387169 0)
(7.91017 0.42719 0)
(7.88367 0.51072 0)
(7.82771 0.541035 0)
(7.79557 0.613996 0)
(7.72994 0.616255 0)
(7.69959 0.662082 0)
(7.62587 0.646904 0)
(7.58608 0.684495 0)
(7.5013 0.658208 0)
(7.46672 0.703618 0)
(7.3637 0.679769 0)
(7.36806 0.722755 0)
(7.27182 0.676023 0)
(7.30944 0.69914 0)
(7.23231 0.635339 0)
(7.29332 0.656819 0)
(7.23105 0.58602 0)
(7.30809 0.616945 0)
(7.24448 0.540101 0)
(7.3239 0.585111 0)
(7.25061 0.513349 0)
(7.33721 0.56819 0)
(7.2457 0.489218 0)
(7.33082 0.560315 0)
(7.23097 0.476828 0)
(7.31126 0.564065 0)
(7.21901 0.485443 0)
(7.27254 0.571705 0)
(7.20051 0.495603 0)
(7.23527 0.565143 0)
(7.18124 0.500234 0)
(7.22802 0.564106 0)
(7.16189 0.504402 0)
(7.24126 0.581825 0)
(7.13069 0.505508 0)
(7.24872 0.582085 0)
(7.10775 0.491233 0)
(7.23945 0.571982 0)
(7.08541 0.472942 0)
(7.23628 0.557698 0)
(7.06371 0.441488 0)
(7.24256 0.548565 0)
(7.03441 0.413952 0)
(7.24135 0.542891 0)
(6.99352 0.393421 0)
(7.22949 0.550351 0)
(6.96649 0.377861 0)
(7.2137 0.561981 0)
(6.96468 0.354746 0)
(7.19032 0.551931 0)
(7.00762 0.337337 0)
(7.19287 0.545572 0)
(7.05216 0.341947 0)
(7.22776 0.578083 0)
(7.05252 0.373212 0)
(7.25676 0.626722 0)
(7.07902 0.400933 0)
(7.27538 0.666774 0)
(7.08742 0.443735 0)
(7.26322 0.74651 0)
(7.08772 0.511967 0)
(7.2162 0.841499 0)
(7.08945 0.589729 0)
(7.1276 0.936535 0)
(7.13602 0.653094 0)
(6.99643 1.02702 0)
(7.21316 0.716264 0)
(6.84648 1.11885 0)
(7.30235 0.789187 0)
(6.69732 1.23158 0)
(7.38597 0.891775 0)
(6.57412 1.35632 0)
(7.44884 1.01809 0)
(6.46687 1.49598 0)
(7.47348 1.16969 0)
(6.37619 1.67014 0)
(7.45796 1.34374 0)
(6.32891 1.89401 0)
(7.3985 1.539 0)
(6.35133 2.18728 0)
(7.2756 1.75481 0)
(6.452 2.54527 0)
(7.12328 2.05191 0)
(6.57439 2.97077 0)
(7.09037 2.49202 0)
(6.56482 3.45909 0)
(7.42844 3.10154 0)
(6.2733 4.28046 0)
(8.36974 3.65495 0)
(6.0744 6.13527 0)
(9.45349 3.58409 0)
(7.92391 8.7249 0)
(10.0845 -0.120922 0)
(10.1068 -0.232953 0)
(10.1608 -0.2793 0)
(10.2335 -0.275973 0)
(10.3083 -0.256094 0)
(10.3654 -0.2379 0)
(10.3995 -0.230226 0)
(10.4148 -0.232925 0)
(10.4202 -0.246224 0)
(10.4256 -0.267598 0)
(10.4343 -0.2966 0)
(10.4499 -0.329696 0)
(10.4693 -0.365957 0)
(10.4941 -0.401945 0)
(10.5201 -0.437854 0)
(10.5497 -0.471393 0)
(10.5782 -0.504319 0)
(10.6086 -0.535114 0)
(10.6381 -0.566699 0)
(10.67 -0.597625 0)
(10.7017 -0.630703 0)
(10.7356 -0.663702 0)
(10.7689 -0.698506 0)
(10.8036 -0.731354 0)
(10.837 -0.764546 0)
(10.8732 -0.794355 0)
(10.9053 -0.823813 0)
(10.9437 -0.850476 0)
(10.9737 -0.878174 0)
(11.0138 -0.905812 0)
(11.0386 -0.936159 0)
(11.078 -0.969088 0)
(11.0956 -1.00471 0)
(11.1311 -1.04413 0)
(11.1407 -1.083 0)
(11.1695 -1.12455 0)
(11.1745 -1.16184 0)
(11.1978 -1.20241 0)
(11.2054 -1.23709 0)
(11.2255 -1.27605 0)
(11.2406 -1.31029 0)
(11.2592 -1.35089 0)
(11.2809 -1.38806 0)
(11.2952 -1.4303 0)
(11.3168 -1.46896 0)
(11.3228 -1.50952 0)
(11.3371 -1.54532 0)
(11.3332 -1.57989 0)
(11.3368 -1.60921 0)
(11.3245 -1.63539 0)
(11.3168 -1.65671 0)
(11.298 -1.67503 0)
(11.2801 -1.68906 0)
(11.2567 -1.703 0)
(11.2348 -1.71523 0)
(11.2106 -1.73117 0)
(11.19 -1.74684 0)
(11.162 -1.76475 0)
(11.1385 -1.78109 0)
(11.0953 -1.7943 0)
(11.0587 -1.80624 0)
(10.9949 -1.81136 0)
(10.9374 -1.81629 0)
(10.8553 -1.81168 0)
(10.7701 -1.80671 0)
(10.68 -1.79909 0)
(10.5801 -1.79644 0)
(10.4969 -1.79405 0)
(10.3908 -1.78328 0)
(10.31 -1.77189 0)
(10.1972 -1.75347 0)
(10.1099 -1.73134 0)
(9.99763 -1.7026 0)
(9.91366 -1.68194 0)
(9.79475 -1.65163 0)
(9.69838 -1.63136 0)
(9.57902 -1.60053 0)
(9.48543 -1.58394 0)
(9.38138 -1.56324 0)
(9.30564 -1.54049 0)
(9.20582 -1.50449 0)
(9.1448 -1.46344 0)
(9.03995 -1.40198 0)
(8.98299 -1.32817 0)
(8.88029 -1.25699 0)
(8.82312 -1.16322 0)
(8.71584 -1.08031 0)
(8.65666 -0.993521 0)
(8.55912 -0.910306 0)
(8.5011 -0.808424 0)
(8.39258 -0.706229 0)
(8.3302 -0.580968 0)
(8.21123 -0.481304 0)
(8.15219 -0.359306 0)
(8.04376 -0.275224 0)
(7.99399 -0.167253 0)
(7.89304 -0.116561 0)
(7.86996 -0.0413309 0)
(7.79908 -0.020904 0)
(7.79117 0.0389396 0)
(7.75218 0.040045 0)
(7.74441 0.0971869 0)
(7.71248 0.0891671 0)
(7.70869 0.171583 0)
(7.67976 0.190259 0)
(7.67328 0.286125 0)
(7.63004 0.313278 0)
(7.62075 0.418847 0)
(7.56877 0.444248 0)
(7.54818 0.550273 0)
(7.48607 0.566781 0)
(7.45335 0.653348 0)
(7.39187 0.640993 0)
(7.36174 0.705022 0)
(7.29376 0.683252 0)
(7.26462 0.738793 0)
(7.17655 0.705575 0)
(7.14328 0.762792 0)
(7.05389 0.714479 0)
(7.06691 0.761156 0)
(6.98863 0.682939 0)
(7.03271 0.716372 0)
(6.98154 0.620682 0)
(7.0302 0.659806 0)
(7.01224 0.560974 0)
(7.05131 0.611296 0)
(7.04373 0.514699 0)
(7.08528 0.586701 0)
(7.08165 0.486025 0)
(7.12094 0.579222 0)
(7.11243 0.470627 0)
(7.13414 0.58187 0)
(7.1218 0.467421 0)
(7.1296 0.588247 0)
(7.11976 0.480103 0)
(7.11857 0.596347 0)
(7.10419 0.492806 0)
(7.10312 0.584334 0)
(7.08376 0.487847 0)
(7.11644 0.579967 0)
(7.07309 0.486283 0)
(7.14625 0.59787 0)
(7.08558 0.490003 0)
(7.1571 0.597604 0)
(7.11612 0.485237 0)
(7.15086 0.589099 0)
(7.12511 0.469345 0)
(7.1563 0.570566 0)
(7.13694 0.439065 0)
(7.13187 0.552713 0)
(7.1534 0.414866 0)
(7.10576 0.556349 0)
(7.16864 0.397308 0)
(7.06781 0.557976 0)
(7.18527 0.370324 0)
(7.03446 0.563129 0)
(7.21888 0.348455 0)
(7.00446 0.552583 0)
(7.26971 0.326992 0)
(6.98291 0.543787 0)
(7.30771 0.318945 0)
(6.98034 0.579773 0)
(7.36381 0.342324 0)
(6.94997 0.607889 0)
(7.47111 0.377485 0)
(6.90461 0.670225 0)
(7.54085 0.423393 0)
(6.8367 0.759872 0)
(7.61451 0.47749 0)
(6.75904 0.869174 0)
(7.69357 0.534933 0)
(6.67026 0.971801 0)
(7.79261 0.597054 0)
(6.56754 1.06683 0)
(7.86823 0.659328 0)
(6.47565 1.16639 0)
(7.88598 0.728571 0)
(6.4385 1.28711 0)
(7.86845 0.813392 0)
(6.45698 1.43297 0)
(7.82795 0.922069 0)
(6.52004 1.61488 0)
(7.75524 1.05187 0)
(6.61852 1.82216 0)
(7.64383 1.21308 0)
(6.7395 2.05738 0)
(7.53755 1.41787 0)
(6.84288 2.32932 0)
(7.5148 1.68791 0)
(6.84616 2.64462 0)
(7.6517 2.00949 0)
(6.70524 3.07156 0)
(8.03566 2.35821 0)
(6.44052 3.72972 0)
(8.71064 2.57903 0)
(6.31538 4.83753 0)
(9.55619 2.55359 0)
(6.95189 6.44332 0)
(9.88988 2.78406 0)
(8.68001 7.55534 0)
(11.5511 -0.108543 0)
(11.5923 -0.247554 0)
(11.712 -0.306292 0)
(11.8085 -0.303478 0)
(11.8762 -0.275529 0)
(11.9069 -0.246897 0)
(11.9184 -0.231837 0)
(11.9111 -0.232313 0)
(11.9038 -0.246793 0)
(11.8909 -0.270734 0)
(11.8861 -0.302146 0)
(11.8791 -0.336984 0)
(11.8803 -0.37425 0)
(11.8789 -0.410867 0)
(11.8839 -0.447184 0)
(11.8854 -0.481253 0)
(11.8917 -0.514361 0)
(11.8946 -0.545679 0)
(11.9016 -0.577105 0)
(11.9052 -0.608254 0)
(11.9126 -0.640812 0)
(11.9149 -0.673825 0)
(11.921 -0.708215 0)
(11.9193 -0.741757 0)
(11.9228 -0.775563 0)
(11.9164 -0.80681 0)
(11.9181 -0.837869 0)
(11.9086 -0.865551 0)
(11.9104 -0.894762 0)
(11.9009 -0.920968 0)
(11.9028 -0.95113 0)
(11.8949 -0.979205 0)
(11.8946 -1.01382 0)
(11.889 -1.04605 0)
(11.8834 -1.08481 0)
(11.8801 -1.12009 0)
(11.868 -1.16097 0)
(11.8676 -1.19779 0)
(11.8505 -1.23876 0)
(11.8527 -1.27638 0)
(11.8327 -1.31741 0)
(11.8351 -1.35657 0)
(11.813 -1.39744 0)
(11.8114 -1.43699 0)
(11.7865 -1.47581 0)
(11.7762 -1.51196 0)
(11.7476 -1.54535 0)
(11.7263 -1.5744 0)
(11.6928 -1.59992 0)
(11.6595 -1.61971 0)
(11.6191 -1.63716 0)
(11.5761 -1.6491 0)
(11.5304 -1.66269 0)
(11.4849 -1.67359 0)
(11.4377 -1.68906 0)
(11.392 -1.70228 0)
(11.3382 -1.71747 0)
(11.2844 -1.72878 0)
(11.215 -1.73906 0)
(11.1457 -1.7465 0)
(11.0621 -1.75165 0)
(10.9729 -1.75145 0)
(10.8781 -1.74715 0)
(10.7668 -1.73596 0)
(10.6683 -1.72818 0)
(10.5489 -1.71884 0)
(10.4537 -1.71684 0)
(10.3237 -1.70649 0)
(10.2148 -1.69803 0)
(10.0803 -1.67587 0)
(9.96149 -1.65756 0)
(9.82414 -1.62848 0)
(9.70824 -1.60705 0)
(9.57773 -1.57637 0)
(9.45593 -1.55114 0)
(9.32637 -1.52616 0)
(9.21107 -1.50867 0)
(9.10605 -1.49771 0)
(9.01665 -1.48806 0)
(8.92654 -1.46442 0)
(8.84219 -1.43635 0)
(8.75794 -1.38942 0)
(8.66388 -1.33025 0)
(8.5905 -1.2604 0)
(8.49455 -1.18847 0)
(8.41403 -1.09559 0)
(8.33212 -1.0198 0)
(8.25229 -0.931419 0)
(8.17156 -0.851432 0)
(8.093 -0.728422 0)
(7.98962 -0.629891 0)
(7.90608 -0.494993 0)
(7.81671 -0.414675 0)
(7.73346 -0.28325 0)
(7.67183 -0.22734 0)
(7.58995 -0.103497 0)
(7.54887 -0.0895746 0)
(7.48271 0.0124885 0)
(7.44873 -0.00773516 0)
(7.39721 0.0781781 0)
(7.39079 0.0447684 0)
(7.33448 0.133485 0)
(7.35365 0.0905802 0)
(7.28814 0.206856 0)
(7.31988 0.196595 0)
(7.23815 0.322563 0)
(7.273 0.325229 0)
(7.18221 0.461925 0)
(7.20674 0.463094 0)
(7.10705 0.603014 0)
(7.11912 0.593602 0)
(7.01381 0.709386 0)
(7.02627 0.663861 0)
(6.91858 0.764227 0)
(6.93099 0.706238 0)
(6.8266 0.809596 0)
(6.8186 0.742555 0)
(6.71849 0.837445 0)
(6.73602 0.731422 0)
(6.65194 0.808053 0)
(6.70498 0.669397 0)
(6.63916 0.744737 0)
(6.72263 0.594985 0)
(6.65555 0.676074 0)
(6.76927 0.531835 0)
(6.68861 0.621466 0)
(6.81385 0.475018 0)
(6.74478 0.592276 0)
(6.86652 0.443794 0)
(6.80676 0.593072 0)
(6.92232 0.439049 0)
(6.84553 0.601581 0)
(6.95335 0.444204 0)
(6.86324 0.614953 0)
(6.96918 0.454101 0)
(6.8756 0.630337 0)
(6.97247 0.466379 0)
(6.8792 0.624219 0)
(6.97231 0.449582 0)
(6.89383 0.615636 0)
(6.99727 0.439875 0)
(6.90728 0.625082 0)
(7.05018 0.441722 0)
(6.93896 0.620045 0)
(7.09853 0.441192 0)
(6.96872 0.620055 0)
(7.12681 0.425952 0)
(6.97357 0.610454 0)
(7.1565 0.402797 0)
(6.95687 0.609445 0)
(7.17667 0.370203 0)
(6.93016 0.623282 0)
(7.21669 0.354787 0)
(6.88992 0.635196 0)
(7.24881 0.32763 0)
(6.86534 0.626253 0)
(7.2677 0.289579 0)
(6.86759 0.615249 0)
(7.27182 0.259661 0)
(6.87862 0.622393 0)
(7.27149 0.247238 0)
(6.88293 0.657753 0)
(7.34947 0.273869 0)
(6.85835 0.681961 0)
(7.42991 0.301654 0)
(6.85024 0.778963 0)
(7.48656 0.341855 0)
(6.82999 0.87353 0)