/*--------------------------------*- C++ -*----------------------------------*\
| =========                 |                                                 |
| \\      /  F ield         | OpenFOAM: The Open Source CFD Toolbox           |
|  \\    /   O peration     | Version:  2.4.0                                 |
|   \\  /    A nd           | Web:      www.OpenFOAM.org                      |
|    \\/     M anipulation  |                                                 |
\*---------------------------------------------------------------------------*/
FoamFile
{
    version     2.0;
    format      ascii;
    class       volScalarField;
    location    "43";
    object      p;
}
// * * * * * * * * * * * * * * * * * * * * * * * * * * * * * * * * * * * * * //

dimensions      [0 2 -2 0 0 0 0];

internalField   nonuniform List<scalar> 
4400
(
-0.109413
-0.113046
-0.119892
-0.11712
-0.114651
-0.112441
-0.116568
-0.125716
-0.120405
-0.117919
-0.123843
-0.121435
-0.120474
-0.130506
-0.125959
-0.122757
-0.131833
-0.126425
-0.129389
-0.139908
-0.109392
-0.112923
-0.120068
-0.1172
-0.114652
-0.112338
-0.116377
-0.125986
-0.120502
-0.117496
-0.124
-0.121495
-0.12015
-0.130714
-0.126115
-0.122392
-0.132043
-0.126555
-0.129054
-0.139835
-0.109357
-0.112825
-0.120283
-0.117229
-0.114689
-0.112219
-0.116171
-0.126359
-0.120535
-0.117222
-0.124252
-0.121508
-0.119804
-0.131036
-0.12622
-0.122019
-0.132348
-0.126616
-0.128571
-0.13948
-0.109345
-0.112801
-0.120394
-0.117171
-0.114795
-0.112171
-0.116022
-0.126631
-0.120469
-0.11705
-0.124521
-0.121466
-0.119529
-0.131298
-0.126182
-0.121751
-0.1326
-0.126504
-0.128162
-0.138745
-0.109389
-0.112868
-0.120306
-0.117014
-0.114998
-0.112294
-0.115985
-0.126647
-0.120316
-0.117057
-0.124741
-0.121423
-0.119433
-0.13136
-0.126016
-0.12168
-0.132694
-0.126241
-0.127955
-0.137759
-0.10954
-0.113008
-0.119963
-0.116794
-0.115285
-0.112665
-0.116104
-0.126305
-0.120149
-0.117289
-0.12487
-0.121466
-0.119581
-0.131121
-0.125848
-0.121865
-0.132582
-0.125996
-0.127926
-0.136663
-0.109861
-0.113193
-0.119335
-0.116545
-0.115614
-0.113353
-0.116401
-0.125504
-0.120049
-0.117774
-0.124788
-0.121663
-0.120018
-0.130469
-0.125798
-0.122361
-0.132147
-0.125939
-0.128001
-0.135412
-0.110388
-0.113392
-0.118389
-0.116298
-0.115919
-0.114349
-0.116881
-0.124212
-0.120046
-0.118526
-0.124384
-0.122007
-0.120775
-0.129326
-0.125879
-0.123179
-0.131282
-0.126134
-0.128128
-0.133939
-0.111112
-0.113572
-0.117142
-0.116066
-0.116158
-0.115579
-0.117514
-0.122484
-0.12012
-0.11951
-0.123614
-0.122457
-0.121836
-0.127688
-0.126022
-0.124265
-0.129963
-0.126565
-0.128264
-0.132202
-0.111976
-0.113701
-0.115662
-0.115841
-0.116336
-0.116931
-0.118236
-0.120452
-0.120212
-0.120645
-0.122553
-0.122953
-0.123113
-0.125663
-0.126121
-0.125484
-0.128289
-0.127146
-0.128364
-0.130223
-0.112891
-0.113766
-0.114072
-0.115591
-0.116484
-0.118291
-0.118952
-0.118299
-0.12025
-0.12181
-0.121349
-0.123417
-0.124443
-0.123457
-0.12609
-0.126655
-0.126451
-0.127751
-0.128396
-0.128117
-0.113759
-0.113779
-0.112518
-0.115277
-0.116647
-0.119561
-0.119567
-0.116244
-0.12019
-0.122877
-0.120194
-0.123786
-0.125645
-0.121334
-0.125893
-0.127608
-0.124683
-0.128258
-0.128353
-0.126062
-0.114499
-0.113775
-0.111136
-0.114888
-0.116856
-0.120658
-0.120011
-0.114487
-0.120022
-0.123739
-0.119256
-0.124022
-0.126579
-0.119537
-0.125555
-0.128261
-0.123199
-0.128586
-0.128251
-0.12425
-0.115059
-0.113792
-0.110028
-0.114451
-0.11712
-0.121515
-0.120263
-0.113089
-0.119763
-0.124349
-0.118648
-0.12413
-0.127178
-0.11824
-0.125141
-0.128631
-0.12213
-0.128701
-0.128125
-0.122816
-0.115427
-0.113851
-0.109245
-0.114029
-0.117413
-0.122093
-0.120353
-0.112251
-0.119455
-0.124717
-0.118402
-0.124139
-0.127456
-0.11748
-0.124723
-0.128784
-0.121508
-0.128619
-0.128004
-0.121819
-0.115624
-0.113941
-0.108742
-0.113686
-0.11768
-0.122396
-0.12033
-0.111831
-0.119162
-0.12489
-0.118446
-0.124089
-0.12748
-0.117179
-0.124356
-0.128791
-0.121286
-0.128408
-0.12789
-0.121253
-0.115693
-0.11401
-0.108574
-0.113453
-0.11787
-0.122484
-0.120228
-0.111755
-0.118947
-0.124871
-0.118664
-0.124026
-0.127309
-0.117216
-0.124084
-0.128669
-0.121366
-0.128149
-0.127746
-0.121064
-0.115679
-0.113996
-0.108627
-0.113338
-0.117964
-0.122415
-0.120051
-0.111941
-0.118836
-0.124654
-0.118942
-0.123975
-0.126987
-0.117462
-0.123933
-0.128404
-0.121622
-0.127916
-0.127535
-0.121158
-0.115631
-0.113896
-0.108796
-0.113321
-0.117987
-0.122274
-0.119823
-0.112246
-0.118823
-0.124324
-0.119196
-0.123965
-0.126603
-0.117772
-0.123906
-0.128067
-0.121912
-0.127766
-0.127288
-0.121394
-0.11561
-0.113766
-0.108952
-0.113374
-0.117985
-0.12216
-0.119618
-0.112488
-0.118888
-0.123913
-0.119347
-0.124008
-0.126261
-0.117976
-0.123974
-0.127598
-0.122106
-0.127742
-0.12708
-0.121715
-0.127325
-0.12881
-0.136661
-0.142652
-0.1407
-0.129707
-0.134852
-0.136348
-0.13025
-0.129877
-0.134387
-0.149653
-0.20738
-0.190732
-0.0498863
-0.0341194
-0.128957
-0.159118
-0.142088
-0.134846
-0.103438
-0.0357375
0.0147801
-0.00340908
-0.0869623
-0.171885
-0.232879
-0.228362
-0.142149
-0.0638406
-0.0418099
-0.0589642
-0.0725399
-0.0643745
-0.0475479
-0.029623
-0.0118945
-0.00154443
-0.00443242
-0.011019
-0.0168429
-0.0301777
-0.0403534
-0.0342597
-0.0224998
-0.0169046
-0.0115296
-0.00286886
0.00507429
0.01005
0.0128621
0.0144314
0.0152341
0.0155656
0.0156197
0.015513
0.0153145
0.0150651
0.0147871
0.0144932
0.0141898
0.0138806
0.0135672
0.0132506
0.0129314
0.0126094
0.0122851
0.0119583
0.0116294
0.0112979
0.0109643
0.0106283
0.0102899
0.00994925
0.00960601
0.00926049
0.00891238
0.00856193
0.00820899
0.00785357
0.00749577
0.00713541
0.00677268
0.00640741
0.00603963
0.00566934
0.00529641
0.00492092
0.00454278
0.00416196
0.0037785
0.00339234
0.00300349
0.00261197
0.0022177
0.00182069
0.00142094
0.00101838
0.000613016
0.000204815
-0.127373
-0.128598
-0.136804
-0.142677
-0.14172
-0.129778
-0.134349
-0.137694
-0.129461
-0.125808
-0.132955
-0.144728
-0.19403
-0.186158
-0.0730091
-0.0557239
-0.131846
-0.153941
-0.135225
-0.126162
-0.0970669
-0.0326402
0.0177942
-0.00129029
-0.0889956
-0.17843
-0.242397
-0.236922
-0.145414
-0.0609544
-0.0330403
-0.0473728
-0.0638697
-0.063012
-0.0524748
-0.0349323
-0.0143924
-0.00179561
-0.00367601
-0.00968358
-0.0152093
-0.0280311
-0.037688
-0.0331672
-0.0245804
-0.0211037
-0.0150992
-0.00468536
0.00452019
0.0100206
0.012972
0.0145442
0.0153162
0.0156177
0.0156499
0.0155293
0.0153227
0.0150688
0.0147885
0.0144936
0.0141898
0.0138804
0.0135671
0.0132505
0.0129313
0.0126094
0.0122851
0.0119583
0.0116293
0.0112979
0.0109643
0.0106283
0.0102899
0.00994924
0.00960602
0.00926049
0.00891238
0.00856194
0.00820899
0.00785357
0.00749577
0.00713541
0.00677269
0.00640741
0.00603963
0.00566935
0.00529641
0.00492093
0.00454278
0.00416196
0.00377849
0.00339235
0.00300349
0.00261197
0.0022177
0.00182068
0.00142094
0.00101838
0.000613014
0.000204816
-0.12767
-0.128626
-0.136299
-0.142351
-0.142934
-0.129451
-0.132906
-0.13875
-0.128524
-0.121666
-0.131978
-0.140902
-0.17917
-0.178404
-0.0961195
-0.080138
-0.135788
-0.147837
-0.128575
-0.118564
-0.0915849
-0.030165
0.0202563
0.000669753
-0.0900915
-0.183446
-0.250336
-0.243797
-0.147222
-0.0570604
-0.0236392
-0.0354489
-0.0551444
-0.0616257
-0.0575119
-0.0403156
-0.0168769
-0.0019234
-0.00264618
-0.00813199
-0.0134554
-0.0256146
-0.0347169
-0.0318343
-0.0266783
-0.02544
-0.0189669
-0.00654058
0.00396582
0.0100074
0.0130968
0.014666
0.0154031
0.0156722
0.0156816
0.0155465
0.0153314
0.0150728
0.0147901
0.0144941
0.0141898
0.0138803
0.0135669
0.0132504
0.0129312
0.0126093
0.0122851
0.0119583
0.0116293
0.0112979
0.0109643
0.0106283
0.0102899
0.00994923
0.00960601
0.00926049
0.00891238
0.00856194
0.00820899
0.00785358
0.00749578
0.00713542
0.00677269
0.00640741
0.00603963
0.00566935
0.00529641
0.00492093
0.00454278
0.00416196
0.0037785
0.00339235
0.00300349
0.00261197
0.00221771
0.00182068
0.00142095
0.00101838
0.000613015
0.000204816
-0.127954
-0.128914
-0.135264
-0.141235
-0.144035
-0.129143
-0.130754
-0.139248
-0.127812
-0.117996
-0.130344
-0.137206
-0.164124
-0.16823
-0.117405
-0.105811
-0.140256
-0.140948
-0.122422
-0.11251
-0.0874145
-0.0285833
0.0218595
0.00227325
-0.090329
-0.186883
-0.25651
-0.248838
-0.147553
-0.0522608
-0.0137741
-0.0235326
-0.0465816
-0.06021
-0.0624472
-0.0455471
-0.0192442
-0.00189254
-0.0013124
-0.00637922
-0.0115925
-0.022919
-0.0314992
-0.030264
-0.0286987
-0.0297498
-0.0226178
-0.00839379
0.00341869
0.0100088
0.0132344
0.0147954
0.0154939
0.0157288
0.0157144
0.0155643
0.0153405
0.015077
0.0147919
0.0144946
0.0141899
0.0138802
0.0135668
0.0132503
0.0129311
0.0126092
0.012285
0.0119583
0.0116293
0.0112979
0.0109643
0.0106283
0.0102899
0.00994923
0.00960601
0.00926049
0.00891239
0.00856194
0.008209
0.00785358
0.00749579
0.00713542
0.0067727
0.00640742
0.00603963
0.00566935
0.00529641
0.00492092
0.00454278
0.00416196
0.0037785
0.00339236
0.00300349
0.00261197
0.00221771
0.00182069
0.00142095
0.00101838
0.000613016
0.000204816
-0.128015
-0.12935
-0.134121
-0.139426
-0.144556
-0.129225
-0.128366
-0.138849
-0.127326
-0.115135
-0.127379
-0.132885
-0.15019
-0.156704
-0.135395
-0.131012
-0.14452
-0.133583
-0.116971
-0.108221
-0.0848059
-0.0280807
0.0223275
0.00328354
-0.0896848
-0.188721
-0.260746
-0.251946
-0.146447
-0.0466831
-0.00363347
-0.0120055
-0.0383793
-0.0587581
-0.0670451
-0.0504087
-0.0213908
-0.00166744
0.000339284
-0.00445188
-0.00963254
-0.0199503
-0.0280928
-0.0284678
-0.0305382
-0.0338657
-0.0261193
-0.0101965
0.0028877
0.010023
0.0133818
0.0149305
0.015588
0.0157872
0.0157481
0.0155828
0.0153499
0.0150815
0.0147938
0.0144953
0.01419
0.0138801
0.0135666
0.0132502
0.012931
0.0126092
0.012285
0.0119582
0.0116293
0.0112979
0.0109643
0.0106283
0.0102899
0.00994922
0.00960601
0.00926049
0.00891239
0.00856195
0.008209
0.00785359
0.00749579
0.00713543
0.00677271
0.00640743
0.00603964
0.00566935
0.00529641
0.00492092
0.00454278
0.00416196
0.0037785
0.00339236
0.0030035
0.00261197
0.00221771
0.00182069
0.00142095
0.00101838
0.000613017
0.000204816
-0.127911
-0.129735
-0.133101
-0.137207
-0.144119
-0.129692
-0.126198
-0.137502
-0.126904
-0.113139
-0.123274
-0.12742
-0.137878
-0.145008
-0.149054
-0.153986
-0.14786
-0.126044
-0.112398
-0.105683
-0.0837737
-0.0287175
0.0214775
0.00344908
-0.0880713
-0.188882
-0.262866
-0.253059
-0.143988
-0.0404466
0.00657098
-0.00124698
-0.0307065
-0.0572753
-0.0710686
-0.054691
-0.0232132
-0.00121175
0.00229805
-0.00238471
-0.00758696
-0.0167345
-0.0245444
-0.0264649
-0.0320954
-0.0376215
-0.0293554
-0.0118961
0.0023829
0.0100475
0.0135358
0.0150695
0.0156841
0.0158468
0.0157827
0.0156016
0.0153596
0.0150861
0.0147958
0.014496
0.0141902
0.01388
0.0135665
0.0132501
0.0129309
0.0126091
0.012285
0.0119582
0.0116293
0.0112979
0.0109643
0.0106283
0.0102899
0.00994922
0.009606
0.00926049
0.00891239
0.00856195
0.008209
0.00785359
0.0074958
0.00713544
0.00677271
0.00640743
0.00603964
0.00566935
0.00529641
0.00492092
0.00454278
0.00416196
0.00377851
0.00339236
0.0030035
0.00261198
0.00221771
0.0018207
0.00142095
0.00101839
0.000613017
0.000204816
-0.127744
-0.129887
-0.132212
-0.134908
-0.142659
-0.130347
-0.124565
-0.135355
-0.126345
-0.11194
-0.118391
-0.120574
-0.127064
-0.134246
-0.15802
-0.172586
-0.149785
-0.118824
-0.108843
-0.104761
-0.0841584
-0.0304271
0.0192328
0.0025411
-0.0856154
-0.187237
-0.262695
-0.252187
-0.140299
-0.0336646
0.0165879
0.00841705
-0.0237076
-0.0557695
-0.0743116
-0.0582073
-0.0246147
-0.000490131
0.00451934
-0.000215393
-0.00545767
-0.0133403
-0.020892
-0.0242809
-0.0332827
-0.0408638
-0.0322159
-0.0134432
0.00191472
0.0100798
0.0136925
0.01521
0.0157813
0.0159072
0.0158177
0.0156208
0.0153695
0.0150909
0.0147979
0.0144968
0.0141903
0.01388
0.0135664
0.01325
0.0129309
0.0126091
0.0122849
0.0119582
0.0116293
0.0112979
0.0109643
0.0106283
0.0102899
0.00994921
0.009606
0.00926049
0.00891239
0.00856195
0.00820901
0.00785359
0.0074958
0.00713544
0.00677272
0.00640744
0.00603965
0.00566936
0.00529641
0.00492092
0.00454278
0.00416197
0.00377851
0.00339236
0.0030035
0.00261198
0.00221772
0.0018207
0.00142095
0.00101839
0.000613018
0.000204816
-0.127635
-0.1297
-0.131347
-0.132832
-0.140345
-0.130914
-0.123636
-0.132682
-0.125491
-0.111382
-0.11319
-0.112556
-0.11729
-0.124999
-0.162878
-0.185936
-0.150073
-0.112702
-0.106347
-0.105205
-0.0856616
-0.0329847
0.0155885
0.000432815
-0.0826929
-0.183714
-0.260168
-0.249396
-0.13552
-0.0264653
0.0261069
0.0167759
-0.0174962
-0.0542441
-0.0766346
-0.0608241
-0.0255141
0.000529951
0.00691939
0.00202035
-0.00323092
-0.00988491
-0.0171748
-0.021955
-0.0340344
-0.0434722
-0.0346089
-0.0147925
0.00149331
0.0101167
0.013848
0.0153496
0.0158783
0.0159676
0.0158529
0.0156401
0.0153796
0.0150958
0.0148
0.0144976
0.0141906
0.01388
0.0135664
0.0132499
0.0129308
0.012609
0.0122849
0.0119582
0.0116293
0.0112979
0.0109643
0.0106283
0.0102899
0.00994921
0.009606
0.00926049
0.00891239
0.00856196
0.00820901
0.0078536
0.00749581
0.00713545
0.00677272
0.00640744
0.00603965
0.00566936
0.00529641
0.00492092
0.00454278
0.00416197
0.00377851
0.00339237
0.00300351
0.00261198
0.00221772
0.0018207
0.00142095
0.00101839
0.000613019
0.000204816
-0.127651
-0.129223
-0.130395
-0.131109
-0.137454
-0.131164
-0.123391
-0.129797
-0.124274
-0.111239
-0.108125
-0.10395
-0.108114
-0.117204
-0.164742
-0.194138
-0.14904
-0.108159
-0.104912
-0.106626
-0.0878488
-0.0360715
0.0106771
-0.00281215
-0.0796253
-0.178486
-0.255388
-0.244832
-0.129799
-0.0189739
0.0347522
0.0237739
-0.0121482
-0.0526959
-0.077976
-0.0624808
-0.0258523
0.00187221
0.00937938
0.00428799
-0.000885746
-0.00648338
-0.0134448
-0.019546
-0.0343191
-0.0453713
-0.0364705
-0.0159067
0.0011276
0.0101555
0.0139982
0.0154858
0.0159736
0.0160274
0.0158878
0.0156593
0.0153895
0.0151006
0.0148022
0.0144984
0.0141908
0.01388
0.0135663
0.0132498
0.0129308
0.012609
0.0122849
0.0119582
0.0116293
0.0112979
0.0109643
0.0106283
0.0102899
0.00994921
0.00960599
0.00926049
0.0089124
0.00856196
0.00820901
0.0078536
0.00749581
0.00713545
0.00677273
0.00640745
0.00603965
0.00566936
0.00529641
0.00492092
0.00454278
0.00416197
0.00377851
0.00339237
0.00300351
0.00261198
0.00221772
0.0018207
0.00142096
0.00101839
0.000613019
0.000204816
-0.127758
-0.128531
-0.129299
-0.129754
-0.134311
-0.130975
-0.123682
-0.12702
-0.12273
-0.111276
-0.103515
-0.0954616
-0.0994499
-0.110562
-0.164592
-0.19672
-0.147513
-0.105365
-0.104478
-0.108562
-0.0906069
-0.0393028
0.00476298
-0.00691316
-0.0763834
-0.171912
-0.248569
-0.238656
-0.123382
-0.0113676
0.0420661
0.0294727
-0.00769814
-0.0511156
-0.0783486
-0.0631837
-0.0255943
0.00354266
0.0117615
0.00654781
0.00158445
-0.00324867
-0.00977353
-0.0171292
-0.0341532
-0.0465405
-0.0377708
-0.0167615
0.00082392
0.0101931
0.014139
0.0156158
0.0160658
0.0160856
0.0159218
0.015678
0.0153992
0.0151053
0.0148043
0.0144992
0.014191
0.01388
0.0135662
0.0132498
0.0129307
0.012609
0.0122849
0.0119582
0.0116293
0.0112979
0.0109643
0.0106283
0.0102899
0.0099492
0.00960599
0.00926049
0.0089124
0.00856196
0.00820902
0.00785361
0.00749581
0.00713546
0.00677273
0.00640745
0.00603965
0.00566936
0.00529641
0.00492092
0.00454278
0.00416197
0.00377851
0.00339237
0.00300351
0.00261199
0.00221772
0.00182071
0.00142096
0.00101839
0.00061302
0.000204816
-0.127863
-0.127737
-0.128078
-0.128709
-0.13123
-0.130343
-0.124299
-0.124604
-0.120998
-0.11129
-0.0995564
-0.087823
-0.0915347
-0.104874
-0.163143
-0.197927
-0.146331
-0.104261
-0.104888
-0.110572
-0.0925933
-0.0422153
-0.00174493
-0.011765
-0.0727179
-0.163949
-0.240041
-0.23082
-0.11648
-0.00387758
0.0475844
0.0339555
-0.00413922
-0.0494944
-0.0778306
-0.0629928
-0.0247357
0.0055128
0.0139406
0.00875239
0.00414532
-0.000256961
-0.0062516
-0.0147869
-0.0335954
-0.047018
-0.0385182
-0.0173477
0.000585247
0.0102263
0.0142664
0.0157367
0.0161529
0.0161409
0.0159541
0.0156958
0.0154084
0.0151097
0.0148062
0.0145
0.0141912
0.01388
0.0135662
0.0132497
0.0129307
0.0126089
0.0122849
0.0119582
0.0116293
0.0112979
0.0109643
0.0106283
0.0102899
0.0099492
0.00960599
0.00926049
0.0089124
0.00856196
0.00820902
0.00785361
0.00749582
0.00713546
0.00677274
0.00640746
0.00603966
0.00566936
0.00529641
0.00492092
0.00454278
0.00416197
0.00377852
0.00339237
0.00300351
0.00261199
0.00221772
0.00182071
0.00142096
0.00101839
0.00061302
0.000204816
-0.127876
-0.12695
-0.126807
-0.127872
-0.128466
-0.129362
-0.125001
-0.122703
-0.119247
-0.111146
-0.096422
-0.0816654
-0.0847878
-0.100139
-0.160868
-0.197023
-0.145873
-0.104642
-0.105933
-0.112328
-0.0936735
-0.044328
-0.00831308
-0.0169304
-0.068822
-0.154595
-0.22985
-0.221652
-0.109382
0.00311901
0.0510679
0.0372234
-0.00142223
-0.0478186
-0.0764825
-0.0620094
-0.0233082
0.00770211
0.0158445
0.0108597
0.0067006
0.00245937
-0.0029842
-0.0126017
-0.0327317
-0.0468905
-0.0387564
-0.017674
0.000410317
0.0102521
0.0143768
0.0158456
0.0162328
0.0161919
0.0159839
0.0157119
0.0154166
0.0151136
0.0148078
0.0145006
0.0141914
0.01388
0.0135661
0.0132496
0.0129306
0.0126089
0.0122848
0.0119581
0.0116293
0.0112979
0.0109643
0.0106283
0.0102899
0.0099492
0.00960599
0.00926049
0.0089124
0.00856197
0.00820902
0.00785361
0.00749582
0.00713547
0.00677274
0.00640746
0.00603966
0.00566936
0.00529641
0.00492092
0.00454278
0.00416197
0.00377852
0.00339237
0.00300352
0.00261199
0.00221772
0.00182071
0.00142096
0.00101839
0.000613021
0.000204816
-0.127739
-0.12626
-0.125587
-0.127146
-0.126188
-0.128192
-0.125593
-0.121352
-0.117648
-0.110809
-0.0942405
-0.0773945
-0.0796421
-0.0964366
-0.158064
-0.194477
-0.145904
-0.106611
-0.107374
-0.113577
-0.0935629
-0.0452431
-0.0143806
-0.0219108
-0.0649327
-0.144331
-0.218322
-0.211422
-0.101705
0.00913561
0.0527504
0.0393154
0.000540655
-0.046082
-0.0739637
-0.0603601
-0.0213894
0.00997116
0.0174801
0.0128516
0.00908882
0.00489479
-8.24688e-05
-0.0106512
-0.0316681
-0.046281
-0.0385614
-0.0177668
0.000293105
0.0102671
0.0144667
0.0159395
0.0163031
0.016237
0.0160099
0.0157258
0.0154234
0.0151167
0.0148091
0.014501
0.0141914
0.0138799
0.013566
0.0132496
0.0129306
0.0126089
0.0122848
0.0119581
0.0116293
0.0112979
0.0109643
0.0106283
0.0102899
0.00994919
0.00960599
0.00926049
0.0089124
0.00856197
0.00820902
0.00785361
0.00749582
0.00713547
0.00677274
0.00640746
0.00603966
0.00566936
0.00529641
0.00492092
0.00454278
0.00416197
0.00377852
0.00339237
0.00300352
0.00261199
0.00221773
0.00182071
0.00142096
0.00101839
0.000613021
0.000204816
-0.127447
-0.12572
-0.124513
-0.126472
-0.124463
-0.127006
-0.125967
-0.120499
-0.116334
-0.110348
-0.0929997
-0.075095
-0.0763596
-0.0938013
-0.154886
-0.190485
-0.145764
-0.108429
-0.108912
-0.114131
-0.0921554
-0.0446899
-0.0194292
-0.026178
-0.0611558
-0.133896
-0.205977
-0.199479
-0.0932393
0.013606
0.0531789
0.0402703
0.00186034
-0.0443219
-0.0715781
-0.0581805
-0.0191015
0.0121238
0.0189205
0.0147297
0.0111341
0.00703823
0.00234807
-0.00900216
-0.0305202
-0.0453359
-0.038034
-0.0176684
0.000222805
0.0102677
0.014533
0.0160156
0.0163616
0.0162744
0.0160312
0.0157368
0.0154287
0.015119
0.0148099
0.0145012
0.0141914
0.0138799
0.013566
0.0132495
0.0129305
0.0126089
0.0122848
0.0119581
0.0116293
0.0112979
0.0109643
0.0106283
0.0102899
0.00994919
0.00960599
0.00926049
0.0089124
0.00856197
0.00820902
0.00785362
0.00749583
0.00713547
0.00677275
0.00640746
0.00603966
0.00566936
0.00529641
0.00492092
0.00454278
0.00416197
0.00377852
0.00339238
0.00300352
0.00261199
0.00221773
0.00182071
0.00142096
0.0010184
0.000613021
0.000204816
-0.127038
-0.125334
-0.12366
-0.125849
-0.123278
-0.125953
-0.126104
-0.120021
-0.115371
-0.1099
-0.092601
-0.0744993
-0.0748964
-0.0921843
-0.151481
-0.185277
-0.145104
-0.110418
-0.110312
-0.113832
-0.0894941
-0.0426113
-0.023062
-0.0294217
-0.057373
-0.12375
-0.193534
-0.186895
-0.0846318
0.0166316
0.0527752
0.0400909
0.00263476
-0.042635
-0.0690956
-0.0556409
-0.0165974
0.0139368
0.0202343
0.0164719
0.012736
0.00883514
0.00422009
-0.00770395
-0.0293974
-0.0442109
-0.0372929
-0.0174353
0.000184017
0.0102506
0.0145737
0.0160714
0.0164061
0.0163028
0.016047
0.0157447
0.0154323
0.0151204
0.0148104
0.0145012
0.0141914
0.0138798
0.0135659
0.0132495
0.0129305
0.0126088
0.0122848
0.0119581
0.0116293
0.0112979
0.0109643
0.0106283
0.0102899
0.00994919
0.00960599
0.00926049
0.0089124
0.00856197
0.00820903
0.00785362
0.00749583
0.00713548
0.00677275
0.00640747
0.00603967
0.00566936
0.00529641
0.00492092
0.00454278
0.00416197
0.00377852
0.00339238
0.00300352
0.00261199
0.00221773
0.00182071
0.00142096
0.0010184
0.000613022
0.000204816
-0.126581
-0.125076
-0.123075
-0.125302
-0.122566
-0.125129
-0.126024
-0.119776
-0.114755
-0.109577
-0.0927583
-0.075171
-0.074892
-0.0914584
-0.148105
-0.179236
-0.144038
-0.112372
-0.111486
-0.11261
-0.0856985
-0.0392334
-0.0251241
-0.0313186
-0.053808
-0.114098
-0.181146
-0.17524
-0.0767719
0.0183865
0.0516823
0.0392538
0.00297891
-0.0411741
-0.0662078
-0.0529871
-0.0140312
0.0152851
0.0214246
0.0179762
0.0138889
0.0101927
0.00548721
-0.00678118
-0.0283868
-0.0430558
-0.0364672
-0.0171354
0.000158222
0.0102129
0.0145873
0.0161049
0.0164352
0.0163216
0.0160573
0.0157497
0.0154344
0.0151211
0.0148106
0.0145012
0.0141913
0.0138797
0.0135659
0.0132494
0.0129305
0.0126088
0.0122848
0.0119581
0.0116293
0.0112979
0.0109643
0.0106283
0.0102899
0.00994919
0.00960599
0.00926049
0.0089124
0.00856197
0.00820903
0.00785362
0.00749583
0.00713548
0.00677275
0.00640747
0.00603967
0.00566936
0.00529641
0.00492092
0.00454278
0.00416197
0.00377852
0.00339238
0.00300352
0.002612
0.00221773
0.00182072
0.00142096
0.0010184
0.000613022
0.000204816
-0.126158
-0.12491
-0.122766
-0.12486
-0.122235
-0.124568
-0.125778
-0.119663
-0.114455
-0.109346
-0.0930875
-0.0765833
-0.0758236
-0.0913449
-0.145152
-0.17324
-0.142589
-0.114192
-0.112424
-0.110472
-0.0809592
-0.0352033
-0.0257107
-0.0319771
-0.0507248
-0.105555
-0.169136
-0.165085
-0.0700325
0.0193784
0.0501469
0.0380707
0.00303812
-0.0399757
-0.0637515
-0.0504886
-0.0116765
0.0162695
0.0224414
0.019097
0.0146689
0.0110459
0.0061741
-0.00622664
-0.0275451
-0.041997
-0.0356756
-0.0168372
0.000128748
0.0101537
0.0145741
0.0161163
0.0164494
0.0163315
0.0160628
0.0157523
0.0154355
0.0151215
0.0148106
0.0145012
0.0141912
0.0138796
0.0135658
0.0132494
0.0129305
0.0126088
0.0122848
0.0119581
0.0116293
0.0112979
0.0109643
0.0106283
0.0102899
0.00994918
0.00960599
0.00926049
0.00891241
0.00856197
0.00820903
0.00785362
0.00749583
0.00713548
0.00677275
0.00640747
0.00603967
0.00566936
0.00529641
0.00492092
0.00454278
0.00416197
0.00377852
0.00339238
0.00300352
0.002612
0.00221773
0.00182072
0.00142096
0.0010184
0.000613022
0.000204816
-0.125833
-0.124792
-0.122689
-0.124542
-0.122174
-0.124259
-0.125456
-0.119622
-0.114367
-0.109112
-0.0931561
-0.0776922
-0.0771072
-0.0917485
-0.142717
-0.168104
-0.141167
-0.115666
-0.11292
-0.107589
-0.0761978
-0.0310678
-0.0251863
-0.0317804
-0.0485362
-0.0990884
-0.15881
-0.156319
-0.0641753
0.0199614
0.048632
0.0367948
0.00296499
-0.0391351
-0.0614337
-0.0483084
-0.0098702
0.0170111
0.0232053
0.019782
0.0151111
0.0114042
0.00638589
-0.00599742
-0.0269107
-0.0411258
-0.0349971
-0.0165907
8.88225e-05
0.0100772
0.0145386
0.0161091
0.0164514
0.0163346
0.0160649
0.0157534
0.0154359
0.0151216
0.0148106
0.0145011
0.0141911
0.0138796
0.0135658
0.0132494
0.0129305
0.0126088
0.0122848
0.0119581
0.0116293
0.0112979
0.0109643
0.0106283
0.0102899
0.00994918
0.00960599
0.00926049
0.00891241
0.00856197
0.00820903
0.00785362
0.00749583
0.00713548
0.00677275
0.00640747
0.00603967
0.00566936
0.00529641
0.00492092
0.00454278
0.00416197
0.00377852
0.00339238
0.00300352
0.002612
0.00221773
0.00182072
0.00142096
0.0010184
0.000613022
0.000204816
-0.125639
-0.124696
-0.122768
-0.124356
-0.122246
-0.124158
-0.125172
-0.1196
-0.114357
-0.108891
-0.0930185
-0.0784116
-0.0781587
-0.0923855
-0.14117
-0.164556
-0.14008
-0.116674
-0.113104
-0.10534
-0.0728763
-0.0280396
-0.0244736
-0.031295
-0.0477702
-0.0952011
-0.151942
-0.149735
-0.0596511
0.0203644
0.0475547
0.0358346
0.00269069
-0.0385407
-0.0598524
-0.0466589
-0.00876485
0.0174901
0.0236147
0.0200777
0.0152508
0.0114316
0.00631593
-0.00601671
-0.0265471
-0.0404744
-0.0344885
-0.0164292
5.1302e-05
0.0100019
0.0144957
0.0160931
0.0164471
0.016334
0.0160651
0.0157537
0.0154361
0.0151217
0.0148106
0.0145011
0.0141911
0.0138796
0.0135658
0.0132494
0.0129304
0.0126088
0.0122848
0.0119581
0.0116293
0.0112979
0.0109643
0.0106283
0.0102899
0.00994918
0.00960599
0.00926049
0.00891241
0.00856197
0.00820903
0.00785362
0.00749583
0.00713548
0.00677275
0.00640747
0.00603967
0.00566936
0.00529641
0.00492092
0.00454278
0.00416197
0.00377852
0.00339238
0.00300353
0.002612
0.00221773
0.00182072
0.00142096
0.0010184
0.000613023
0.000204816
-0.125595
-0.124626
-0.12294
-0.124305
-0.12237
-0.124212
-0.125047
-0.119568
-0.114347
-0.108758
-0.0927566
-0.0786717
-0.0786268
-0.0933715
-0.140485
-0.162954
-0.139497
-0.117279
-0.113305
-0.104635
-0.0710721
-0.027065
-0.0241301
-0.0312032
-0.0484193
-0.0943537
-0.149304
-0.146424
-0.0572284
0.0207915
0.0470914
0.0352569
0.00262802
-0.0383653
-0.0590593
-0.0457127
-0.00826086
0.017729
0.0237029
0.020018
0.0151413
0.0113153
0.00609642
-0.00623661
-0.0264965
-0.0401684
-0.0341415
-0.0163119
5.92854e-05
0.00997117
0.0144757
0.0160853
0.0164449
0.0163335
0.0160651
0.0157536
0.0154361
0.0151217
0.0148106
0.0145011
0.0141911
0.0138796
0.0135658
0.0132494
0.0129304
0.0126088
0.0122848
0.0119581
0.0116293
0.0112979
0.0109643
0.0106283
0.0102899
0.00994918
0.00960599
0.00926049
0.00891241
0.00856197
0.00820903
0.00785363
0.00749583
0.00713549
0.00677275
0.00640747
0.00603967
0.00566936
0.00529641
0.00492092
0.00454278
0.00416197
0.00377852
0.00339238
0.00300353
0.002612
0.00221773
0.00182072
0.00142096
0.0010184
0.000613023
0.000204816
-0.130253
-0.131933
-0.135038
-0.134565
-0.132472
-0.131422
-0.131853
-0.132578
-0.137722
-0.145139
-0.154251
-0.165234
-0.145936
-0.0656921
-0.0524662
-0.0682838
-0.111545
-0.148572
-0.167153
-0.151718
-0.0894906
-0.0216137
0.0470077
0.0676122
0.0520905
0.0205564
-0.0143544
-0.0298675
-0.0145232
-0.0136161
-0.0477936
-0.0886216
-0.0931887
-0.0623284
-0.0307821
-0.0111807
-0.0028804
-0.00192158
-0.0066416
-0.0149101
-0.0249031
-0.034928
-0.0368186
-0.0244644
-0.00646029
0.00585363
0.0103913
0.0110525
0.0111138
0.0117141
0.0127288
0.0137718
0.0145925
0.0151091
0.0153463
0.015371
0.0152521
0.0150445
0.0147854
0.0144981
0.0141958
0.0138856
0.0135708
0.0132529
0.0129327
0.0126101
0.0122855
0.0119585
0.0116295
0.011298
0.0109644
0.0106283
0.01029
0.00994923
0.00960599
0.00926045
0.00891236
0.00856194
0.00820901
0.00785362
0.00749583
0.0071355
0.00677275
0.00640748
0.00603968
0.00566939
0.00529645
0.00492093
0.00454278
0.00416195
0.00377851
0.00339236
0.00300353
0.002612
0.00221773
0.00182073
0.00142096
0.00101841
0.00061303
0.00020482
-0.130343
-0.132003
-0.135063
-0.134548
-0.132483
-0.131444
-0.131926
-0.132471
-0.137508
-0.145006
-0.154308
-0.166254
-0.148183
-0.0701606
-0.0537566
-0.0679963
-0.114008
-0.150862
-0.16877
-0.153593
-0.0912403
-0.0235365
0.0454
0.0661116
0.050451
0.0196701
-0.015064
-0.0300079
-0.0143251
-0.0125802
-0.0477381
-0.089474
-0.094306
-0.0628777
-0.0308544
-0.0111633
-0.00281696
-0.00183179
-0.00651147
-0.0147862
-0.0248701
-0.03501
-0.0370896
-0.0247352
-0.00653435
0.00586924
0.010418
0.011055
0.0111031
0.0117042
0.0127261
0.0137725
0.0145944
0.0151111
0.0153478
0.015372
0.0152527
0.0150448
0.0147855
0.0144982
0.0141959
0.0138856
0.0135708
0.0132529
0.0129327
0.0126101
0.0122855
0.0119585
0.0116295
0.011298
0.0109644
0.0106283
0.01029
0.00994924
0.00960598
0.00926045
0.00891236
0.00856194
0.00820901
0.00785362
0.00749583
0.0071355
0.00677275
0.00640748
0.00603968
0.00566939
0.00529645
0.00492093
0.00454278
0.00416195
0.00377851
0.00339236
0.00300353
0.002612
0.00221773
0.00182072
0.00142096
0.00101841
0.00061303
0.00020482
-0.130427
-0.132181
-0.135236
-0.134685
-0.132476
-0.131394
-0.131894
-0.132227
-0.137331
-0.14516
-0.154783
-0.169397
-0.154803
-0.0796628
-0.055154
-0.0696831
-0.120878
-0.155825
-0.171195
-0.157184
-0.0940354
-0.0266379
0.0418502
0.0634293
0.0469241
0.016903
-0.0178131
-0.0310958
-0.0140779
-0.0117969
-0.0482746
-0.0915182
-0.0964841
-0.063762
-0.0308723
-0.011001
-0.00261652
-0.00163171
-0.00636693
-0.0147561
-0.0249287
-0.0352645
-0.0376292
-0.0251898
-0.0066381
0.00592387
0.0104632
0.011045
0.0110786
0.0116915
0.0127261
0.0137789
0.0146022
0.0151177
0.0153525
0.015375
0.0152544
0.0150457
0.014786
0.0144984
0.0141959
0.0138856
0.0135708
0.0132529
0.0129327
0.0126101
0.0122855
0.0119585
0.0116295
0.011298
0.0109644
0.0106283
0.01029
0.00994924
0.00960598
0.00926045
0.00891236
0.00856194
0.00820901
0.00785362
0.00749583
0.00713549
0.00677275
0.00640748
0.00603968
0.00566939
0.00529645
0.00492093
0.00454278
0.00416195
0.00377851
0.00339236
0.00300353
0.002612
0.00221773
0.00182072
0.00142096
0.00101841
0.000613029
0.00020482
-0.13051
-0.132463
-0.13551
-0.134967
-0.132454
-0.131292
-0.131752
-0.131802
-0.137184
-0.145561
-0.155503
-0.17429
-0.165924
-0.0937464
-0.0540257
-0.071542
-0.129316
-0.162154
-0.173189
-0.161411
-0.0974034
-0.0301163
0.0364629
0.0596584
0.0418392
0.0124002
-0.0223685
-0.0335832
-0.0144692
-0.0115046
-0.0495147
-0.0944384
-0.0994283
-0.0649021
-0.0308708
-0.0106891
-0.00229198
-0.0013274
-0.00619058
-0.0147869
-0.0250506
-0.0356491
-0.0384303
-0.0258097
-0.00686469
0.0059582
0.0104802
0.0109975
0.0110292
0.0116718
0.0127283
0.0137904
0.0146147
0.0151277
0.0153592
0.015379
0.0152567
0.0150469
0.0147865
0.0144986
0.014196
0.0138856
0.0135708
0.0132529
0.0129326
0.0126101
0.0122855
0.0119585
0.0116295
0.011298
0.0109644
0.0106283
0.01029
0.00994924
0.00960598
0.00926045
0.00891236
0.00856194
0.00820901
0.00785362
0.00749583
0.00713549
0.00677275
0.00640748
0.00603968
0.00566939
0.00529645
0.00492093
0.00454278
0.00416195
0.00377851
0.00339236
0.00300353
0.002612
0.00221772
0.00182072
0.00142096
0.00101841
0.000613029
0.00020482
-0.130573
-0.132777
-0.135853
-0.135379
-0.13245
-0.131139
-0.131559
-0.131251
-0.137135
-0.146258
-0.15625