/*--------------------------------*- C++ -*----------------------------------*\
| =========                 |                                                 |
| \\      /  F ield         | OpenFOAM: The Open Source CFD Toolbox           |
|  \\    /   O peration     | Version:  2.4.0                                 |
|   \\  /    A nd           | Web:      www.OpenFOAM.org                      |
|    \\/     M anipulation  |                                                 |
\*---------------------------------------------------------------------------*/
FoamFile
{
    version     2.0;
    format      ascii;
    class       volScalarField;
    location    "1.05";
    object      p;
}
// * * * * * * * * * * * * * * * * * * * * * * * * * * * * * * * * * * * * * //

dimensions      [0 2 -2 0 0 0 0];

internalField   nonuniform List<scalar> 
8800
(
79.1146
64.4165
57.3488
54.0967
52.9163
51.314
50.462
48.89
48.2722
47.0383
46.1836
44.9951
44.54
43.3664
42.589
42.0751
41.202
40.0223
39.6454
39.0829
75.9889
64.0113
57.4753
54.2401
52.9892
51.3431
50.4748
48.8912
48.2571
47.0486
46.1697
44.9954
44.5338
43.3796
42.5565
42.099
41.2154
39.9964
39.6453
38.985
74.0361
64.0189
58.0414
54.6945
53.1643
51.4368
50.5257
48.9309
48.2838
47.0685
46.1643
45.0037
44.538
43.388
42.5312
42.1085
41.2321
39.9588
39.7372
39.032
72.507
64.0016
58.5862
55.2164
53.3571
51.5713
50.5953
49.0203
48.3163
47.101
46.1724
45.0255
44.5506
43.4094
42.5135
42.0894
41.2532
39.9608
39.8422
39.1348
71.281
63.9357
58.9978
55.6585
53.5226
51.684
50.6444
49.1525
48.3608
47.1388
46.1741
45.0676
44.526
43.4385
42.5108
42.0423
41.2347
40.042
39.9296
39.2829
70.2789
63.763
59.3063
55.9819
53.638
51.7556
50.6411
49.2467
48.3668
47.1816
46.1511
45.094
44.4611
43.4525
42.4903
42.0014
41.1858
40.1062
39.9595
39.4024
69.4806
63.5661
59.5379
56.1989
53.6804
51.7713
50.6023
49.3064
48.3343
47.2318
46.1297
45.1018
44.356
43.4655
42.4363
42.0049
41.1001
40.1326
39.8743
39.6995
68.7914
63.3991
59.7817
56.3883
53.7569
51.7965
50.5383
49.349
48.2912
47.2966
46.1167
45.1341
44.249
43.489
42.3649
42.0349
41.0187
40.1318
39.6345
40.0063
68.2787
63.3522
59.7958
56.503
53.773
51.8535
50.465
49.3583
48.2339
47.352
46.1157
45.1983
44.204
43.5026
42.3272
42.0426
40.9872
40.1312
39.6051
40.3066
68.0714
63.5956
59.8241
56.5537
53.7331
51.8974
50.4475
49.3743
48.1707
47.38
46.127
45.2508
44.2509
43.5502
42.2895
42.0346
41.0119
40.1036
39.7366
40.2896
67.9408
64.1766
59.9932
56.5384
53.64
51.9073
50.4803
49.4235
48.1372
47.3866
46.1114
45.2678
44.3529
43.6129
42.2629
42.0177
41.0633
40.0346
39.8346
40.289
67.9296
64.6389
60.0549
56.4898
53.545
51.8823
50.517
49.487
48.1401
47.3941
46.1111
45.2352
44.4221
43.675
42.2531
41.98
41.1444
39.9231
39.8378
40.3488
68.1037
64.7172
59.9582
56.4162
53.4476
51.8576
50.5504
49.5215
48.1531
47.4252
46.1643
45.2521
44.4523
43.7128
42.2592
41.925
41.3105
39.862
39.785
40.4392
68.487
65.0168
59.7877
56.2596
53.3333
51.818
50.5853
49.5136
48.1357
47.4658
46.239
45.1507
44.5058
43.735
42.245
41.8778
41.43
39.8698
39.7149
40.4198
69.1122
65.2701
59.5866
56.0078
53.1965
51.7603
50.614
49.4454
48.109
47.4808
46.277
45.042
44.5643
43.7313
42.2095
41.8657
41.5007
39.923
39.6511
40.291
70.0023
65.4527
59.2995
55.7122
53.0565
51.6457
50.6267
49.3552
48.0491
47.4795
46.3146
44.9269
44.5991
43.7587
42.1706
41.8696
41.5755
40.0099
39.6263
40.0573
71.185
65.5156
58.9065
55.3735
52.8925
51.4857
50.6055
49.2693
47.9767
47.4676
46.3348
44.8446
44.5993
43.7813
42.1501
41.8657
41.628
40.0975
39.6627
39.7804
72.6715
65.4714
58.3992
54.9773
52.7152
51.3278
50.5452
49.2101
47.9286
47.436
46.3359
44.8141
44.5574
43.7797
42.1654
41.8637
41.6383
40.1751
39.726
39.6363
74.6001
65.3812
57.8664
54.613
52.5508
51.2234
50.4806
49.178
47.9215
47.4104
46.324
44.8306
44.5522
43.7572
42.2034
41.876
41.613
40.2294
39.7368
39.5439
77.6902
65.7178
57.7221
54.5049
52.4813
51.2113
50.4562
49.1723
47.9466
47.4029
46.3083
44.8608
44.5566
43.7255
42.2346
41.8916
41.5671
40.2519
39.7567
39.657
38.9423
38.711
38.2785
37.8184
37.541
37.4014
37.428
37.4988
37.5637
37.5305
37.3844
37.1008
36.6572
36.1369
35.6708
35.3478
35.3604
35.7356
36.5659
37.7634
39.2068
40.7603
42.338
43.8785
45.2646
46.4448
47.3207
47.8918
48.0523
47.9106
47.2978
46.4021
45.0767
43.431
41.3509
38.8683
36.0306
32.6681
29.1658
25.1598
21.4365
17.8995
15.3989
14.0817
14.4019
16.2648
19.5447
23.9321
29.0548
34.4311
39.481
43.6004
46.3014
47.9016
48.3882
48.3236
47.6926
46.8803
46.1379
45.605
45.1931
44.9562
44.8354
44.9354
44.9533
44.7745
44.0642
42.9065
41.3649
39.4186
37.5135
35.2789
33.4873
31.3448
29.6612
27.7506
26.3523
25.1469
24.5218
24.6133
25.3499
26.7305
28.5998
30.8412
33.2875
35.8145
38.1257
40.2897
42.0625
43.5329
44.4894
45.0482
45.013
44.5729
43.4532
41.5954
39.0577
35.9297
32.1842
28.4996
24.2839
20.3042
16.3316
13.0371
9.79279
7.15965
5.38123
4.07851
3.36216
3.66824
4.49496
5.70012
7.68188
10.1857
12.795
15.7821
19.13
22.3156
25.3984
28.6469
32.0344
35.5693
39.5356
43.8915
48.677
53.5663
58.3506
63.1829
67.4923
70.8242
73.3451
75.0911
75.877
75.6302
74.3854
72.0818
68.6622
64.3766
59.425
54.0482
48.5102
42.8099
37.1698
31.6604
26.436
21.7527
17.8185
14.7327
12.467
10.7848
9.6493
9.31865
9.40661
10.1765
12.1103
14.1894
16.8055
20.0681
22.9065
26.2628
29.535
32.141
34.8861
36.9704
38.6658
39.8651
40.5347
40.5778
39.9242
38.7336
37.0113
34.8217
32.6033
30.6605
28.6028
27.0548
26.1034
25.305
25.4204
26.2115
27.8377
30.011
32.4008
34.4695
36.7593
39.0151
40.8948
42.6701
44.1161
45.0742
45.7324
45.8963
45.8612
45.4059
44.5704
43.3834
41.841
38.9152
35.591
16.5995
38.6418
38.4748
38.177
37.7037
37.3121
37.1868
37.28
37.4206
37.5723
37.6055
37.4821
37.1896
36.7115
36.1752
35.7121
35.4315
35.4885
35.9095
36.7853
38.0074
39.4593
41.013
42.5796
44.1454
45.564
46.8061
47.7406
48.3392
48.4762
48.2382
47.6309
46.6819
45.3586
43.6327
41.5124
38.8927
35.9656
32.5055
28.9214
25.0553
21.4078
18.1716
15.8606
14.8381
15.2513
17.1848
20.3967
24.6214
29.4223
34.3922
39.068
43.0067
45.7681
47.3504
47.8584
47.8756
47.3538
46.9237
46.4325
45.8489
45.4791
45.2391
45.1672
45.1537
45.0293
44.6024
43.7312
42.3427
40.7033
38.65
36.6804
34.4784
32.5924
30.6426
28.9594
27.4603
26.1672
25.3769
24.8434
25.1398
25.9164
27.3249
29.1231
31.3164
33.6291
36.0526
38.2988
40.31
42.0376
43.3387
44.2154
44.6559
44.5556
43.9554
42.7602
40.9379
38.4407
35.6483
32.0694
28.7248
24.9459
21.2369
17.7014
14.6925
11.781
9.37622
7.69397
6.37836
5.70082
5.99729
6.74334
7.77228
9.53289
11.7692
14.1146
16.9328
20.1815
23.2538
26.2589
29.6344
33.2405
36.8419
40.7196
45.051
49.4511
54.038
58.7359
62.9667
66.689
69.8596
72.4028
74.1273
74.977
75.0243
74.0084
71.8127
68.6411
64.5155
59.8527
54.6441
49.3295
43.8594
38.4688
33.1813
28.2502
23.8487
20.0995
16.9869
14.6298
12.9735
11.7844
11.342
11.62
12.4501
14.0794
16.2421
18.7061
21.7292
24.5954
27.662
30.7138
33.1161
35.4094
37.3716
38.6699
39.5216
39.8128
39.1809
37.6628
35.6146
32.7615
29.5309
26.6266
24.0039
21.2835
19.3411
18.0132
17.0988
17.1217
18.0563
19.9619
22.6407
25.5653
28.4745
31.438
34.3852
36.8466
39.1524
40.8686
41.8485
42.9069
43.1346
42.7128
42.3542
40.993
39.1513
37.9529
31.4763
26.3364
10.1255
38.2314
38.0152
38.0385
37.8288
37.5172
37.2963
37.2919
37.375
37.5129
37.565
37.4774
37.2505
36.8426
36.4078
36.0132
35.7981
35.9002
36.3401
37.191
38.3372
39.7083
41.1907
42.7121
44.2163
45.5603
46.6975
47.5371
48.0099
48.1803
47.9938
47.4652
46.5229
45.2427
43.442
41.3217
38.659
35.7182
32.3617
28.8457
25.2618
21.886
19.0325
17.0609
16.2902
16.8676
18.8768
21.9782
25.8494
30.147
34.596
38.7871
42.2045
44.571
46.0236
46.6802
46.7741
46.6325
46.3159
45.9346
45.6873
45.5806
45.4474
45.4017
45.2403
45.01
44.335
43.3174
41.7556
40.0151
37.955
35.9114
33.8556
31.9072
30.2029
28.5624
27.3652
26.2429
25.7354
25.4237
25.827
26.6738
28.0458
29.7755
31.8258
33.9811
36.2
38.3173
40.1611
41.7743
42.9469
43.7086
44.0772
43.8868
43.2521
42.0169
40.2515
37.9185
35.353
32.0318
28.8751
25.6131
22.1728
18.9451
16.251
13.6063
11.3496
9.82521
8.62701
7.96229
8.18365
8.79049
9.70428
11.3956
13.4922
15.676
18.3639
21.4635
24.5281
27.5463
30.7831
34.1553
37.7471
41.5258
45.7004
50.0986
54.2406
58.3136
62.2845
65.8842
68.7817
70.975
72.5144
73.442
73.4976
72.6754
70.8468
67.9908
64.215
59.8863
55.0424
50.0769
44.9402
39.8221
34.849
30.2048
25.9988
22.3896
19.3442
16.9992
15.3859
14.3451
13.9587
14.2867
15.1348
16.576
18.675
21.0353
23.8159
26.7319
29.4281
32.0798
34.3698
36.2653
38.0438
39.1265
39.694
39.4974
38.2486
36.0479
33.0524
29.2747
25.2651
21.583
18.1433
14.9156
12.5555
10.6875
9.42178
9.39542
10.4271
12.2729
15.1229
18.447
22.0679
25.8116
29.5272
32.8086
35.2924
37.5005
38.9885
39.7203
40.3862
39.799
38.961
38.3316
34.9629
33.2889
26.4722
19.2606
8.48887
37.7178
37.4563
37.9493
38.1864
38.0256
37.6382
37.4329
37.369
37.4145
37.4369
37.3701
37.2579
37.0344
36.7993
36.5342
36.4057
36.5362
36.9865
37.7831
38.781
39.9663
41.2372
42.5734
43.8422
44.978
46.0464
46.7154
47.2257
47.3937
47.2182
46.7366
45.8449
44.6345
42.9005
40.8524
38.2903
35.4311
32.2753
28.9902
25.7392
22.7671
20.3506
18.7758
18.3739
19.1664
21.1778
24.0866
27.5879
31.3583
34.9915
38.3293
41.1471
43.2606
44.6574
45.4137
45.5887
45.6687
45.5184
45.4798
45.3759
45.2611
45.2461
45.2455
45.1728
44.8547
43.983
42.8145
41.1339
39.2876
37.3177
35.2356
33.3803
31.4759
29.9775
28.4917
27.5077
26.6511
26.3386
26.2732
26.7294
27.6076
28.8845
30.4831
32.3214
34.2399
36.2188
38.1021
39.7565
41.1955
42.2423
42.8869
43.206
42.9421
42.3185
41.1978
39.4728
37.3631
35.0538
32.0498
29.0859
26.2782
23.1006
20.1208
17.6641
15.2837
13.3004
11.978
10.9215
10.3393
10.4682
11.0195
11.9684
13.5347
15.5675
17.6809
20.122
23.0332
25.8831
28.588
31.6977
35.0791
38.5085
42.1125
45.8826
49.884
53.9036
57.7849
61.4797
64.7057
67.4122
69.6029
70.9725
71.7136
71.7383
71.0375
69.4554
66.9589
63.6361
59.7253
55.3235
50.7435
45.982
41.191
36.6048
32.2464
28.2548
24.9296
22.2245
20.0205
18.4027
17.4295
17.0495
17.2222
18.1061
19.4926
21.4248
23.8438
26.3962
28.9958
31.4169
33.7304
35.7962
37.5489
39.1823
40.173
40.469
39.7554
38.0078
35.2037
31.4012
26.9166
22.2791
17.787
13.467
9.8293
6.96106
4.39616
2.67398
2.76044
3.60433
5.21984
8.19502
11.7395
15.7364
20.3239
24.6707
28.519
31.6361
34.1981
36.2473
36.8304
37.3688
37.5269
35.7886
35.7189
32.0773
29.3978
23.8087
15.7951
8.5233
37.333
37.1558
37.9864
38.5561
38.5221
38.0198
37.6067
37.479
37.4795
37.43
37.3043
37.2186
37.1922
37.1789
37.0876
37.0461
37.19
37.6461
38.3706
39.1823
40.1231
41.1459
42.275
43.295
44.1897
44.9332
45.6914
46.124
46.2452
46.0563
45.6364
44.8189
43.6927
42.1049
40.1971
37.8966
35.3003
32.4952
29.6154
26.8709
24.3939
22.4123
21.2667
21.2061
22.1041
23.9561
26.4784
29.4006
32.5127
35.5197
38.2537
40.4406
42.1782
43.3996
44.2816
44.6562
44.8604
44.8112
44.8734
44.8654
44.9445
45.0323
44.9487
44.7693
44.2877
43.4232
42.198
40.5806
38.6726
36.8405
34.8217
33.1414
31.4307
30.0973
28.8759
27.9798
27.4697
27.2773
27.3838
27.8597
28.6774
29.8215
31.1983
32.7938
34.424
36.1193
37.7103
39.127
40.3438
41.2485
41.8217
42.0586
41.826
41.214
40.2376
38.6663
36.8123
34.7482
32.1782
29.5007
27.0015
24.2443
21.5661
19.3236
17.3288
15.5613
14.3549
13.4719
12.9648
13.1153
13.6781
14.5975
16.0308
17.811
19.7862
21.9664
24.3921
26.9707
29.6722
32.5413
35.5737
38.6674
42.0711
45.7688
49.4744
53.1777
56.8761
60.3747
63.4522
66.0176
67.9007
69.2395
69.8956
69.9214
69.3024
67.9438
65.8071
62.9413
59.5051
55.582
51.4218
47.1255
42.7384
38.5542
34.5804
30.9428
27.8027
25.2054
23.1295
21.5842
20.6529
20.2449
20.4526
21.3809
22.8422
24.7291
26.909
29.0998
31.3449
33.4767
35.5267
37.4768
39.3075
40.8973
41.8946
41.9424
40.8369
38.5557
34.9789
30.4801
25.224
19.7599
14.3927
9.46803
5.40656
1.90768
-1.16563
-3.1104
-3.18749
-2.56973
-0.808892
2.3078
5.86038
10.2244
15.2401
20.1385
24.3968
28.6587
31.3119
33.1944
34.5956
34.323
35.1985
33.653
33.4155
30.5285
27.1097
22.7376
15.6982
10.0156
37.3314
37.257
38.1918
38.7837
38.768
38.1933
37.6686
37.534
37.5727
37.5277
37.3432
37.2685
37.3869
37.5379
37.5766
37.5714
37.7268
38.1622
38.7878
39.4391
40.1758
40.9937
41.9542
42.8002
43.5642
44.2402
44.8505
45.1968
45.2417
44.9936
44.5775
43.8228
42.7973
41.3896
39.7094
37.7687
35.5497
33.2109
30.8599
28.6967
26.612
25.0817
24.1475
24.2121
25.0273
26.5387
28.4852
30.7888
33.287
35.825
38.1725
40.1322
41.7417
42.7542
43.5634
43.8757
44.0647
44.1383
44.2352
44.3779
44.5156
44.6053
44.529
44.3017
43.7767
42.9175
41.6636
40.1792
38.3946
36.7238
34.9798
33.45
32.0262
30.8691
29.8642
29.2062
28.6511
28.4818
28.6219
29.0553
29.7404
30.722
31.8509
33.1976
34.5569
35.9644
37.32
38.4902
39.5232
40.2746
40.7491
40.9443
40.7349
40.1218
39.2977
37.924
36.3087
34.5468
32.3787
30.0718
27.9291
25.5789
23.3464
21.3467
19.6276
18.1218
16.9541
16.2469
15.8984
15.9406
16.5081
17.2905
18.411
19.9986
21.6621
23.4567
25.6819
28.0038
30.3023
32.8104
35.6192
38.7063
41.9144
45.1939
48.6731
52.2103
55.6261
58.8771
61.8696
64.3347
66.1405
67.4279
68.1012
68.1205
67.5393
66.3872
64.5666
62.1736
59.2288
55.8128
52.1101
48.3102
44.346
40.5377
36.9279
33.5944
30.5912
28.1205
26.1941
24.8355
24.1039
23.9103
24.2189
25.1407
26.5316
28.0945
29.8644
31.7323
33.6019
35.5328
37.4934
39.4508
41.4334
43.0698
44.1001
44.061
42.7254
39.9117
35.6125
30.0964
23.6639
17.2064
10.9799
5.63933
1.11624
-2.98366
-6.36881
-8.45937
-8.93152
-8.28979
-6.00747
-2.59918
1.02253
5.78786
10.8932
16.2808
21.431
25.7483
29.0118
30.156
32.2709
32.094
33.1476
32.437
31.9004
30.0923
26.6075
23.247
17.5694
12.471
37.9039
37.6898
38.1747
38.5123
38.4397
37.9522
37.527
37.4824
37.6611
37.6909
37.4841
37.4135
37.5888
37.8267
37.9281
37.9477
38.1017
38.5057
39.0373
39.5564
40.1524
40.831
41.6693
42.3894
43.0398
43.6174
44.1367
44.4136
44.42
44.1481
43.7634
43.1143
42.1927
40.9832
39.51
37.8654
35.9898
34.0843
32.1364
30.3371
28.6488
27.409
26.7508
26.7689
27.3141
28.3583
29.8107
31.6929
33.7608
35.9953
38.0865
39.9403
41.415
42.3573
42.9874
43.2352
43.3666
43.4744
43.5686
43.8233
44.0111
44.1617
44.1372
43.8814
43.3427
42.5302
41.3995
40.101
38.6128
37.1096
35.6526
34.268
33.016
31.9373
30.993
30.2937
29.822
29.6408
29.7154
30.0588
30.6033
31.4144
32.3609
33.478
34.6414
35.8052
36.9635
37.9454
38.82
39.476
39.8631
39.9991
39.818
39.2417
38.5004
37.3435
35.9727
34.464
32.7074
30.8063
28.9694
27.0827
25.1935
23.5102
21.9547
20.5883
19.6286
19.0288
18.6783
18.7533
19.1061
19.7045
20.6743
21.8253
23.2302
24.891
26.6399
28.5421
30.6654
32.997
35.5531
38.2411
41.092
44.3306
47.7076
50.9178
54.0563
57.0902
59.8796
62.1777
63.9866
65.2693
66.0632
66.2713
65.8959
64.9717
63.4833
61.5228
59.0471
56.1463
52.9708
49.6087
46.1107
42.7156
39.4505
36.4289
33.8751
31.7584
29.9961
28.764
28.0997
27.9826
28.2632
28.9407
29.9829
31.1657
32.5132
34.0989
35.8161
37.6624
39.597
41.5792
43.6314
45.4412
46.6193
46.7022
45.279
42.0019
36.9912
30.3392
22.7697
15.29
8.44598
2.65492
-2.44374
-6.88858
-10.6482
-13.3455
-14.2264
-13.2998
-10.4639
-6.83958
-2.8934
2.15409
7.94137
13.3582
19.8017
22.9559
26.8788
28.079
29.9765
30.4157
31.7188
32.0363
31.4686
30.5011
27.4409
24.7122
20.1371
15.5572
39.8117
39.2675
38.3866
37.8202
37.5119
37.2248
37.1261
37.3675
37.7719
37.9069
37.7027
37.6236
37.7878
38.046
38.1546
38.2135
38.3814
38.7383
39.2089
39.6276
40.1459
40.7195
41.4081
41.9779
42.5367
43.057
43.537
43.7622
43.7372
43.4916
43.118
42.5831
41.7566
40.7043
39.4248
38.0159
36.4219
34.7995
33.1028
31.543
30.175
29.2197
28.6492
28.5297
28.8652
29.724
30.9789
32.635
34.3728
36.2799
38.0058
39.5592
40.8168
41.6282
42.1911
42.4942
42.7164
42.9156
43.054
43.2942
43.4549
43.624
43.645
43.4307
42.9736
42.2563
41.2934
40.1626
38.9204
37.5876
36.3048
35.0475
33.8757
32.8302
31.9401
31.2332
30.7822
30.5703
30.5932
30.8522
31.3154
31.9711
32.7701
33.6988
34.678
35.6559
36.6542
37.4859
38.2469
38.8118
39.0903
39.1951
39.0236
38.5111
37.8814
36.9208
35.7643
34.5388
33.0668
31.5411
30.0051
28.4008
26.8737
25.3637
24.002
22.9598
22.0693
21.5353
21.3073
21.1658
21.4232
21.8965
22.5063
23.5164
24.7083
25.914
27.3641
29.0971
30.9209
32.8463
34.9988
37.4678
40.2119
43.1143
46.0509
49.0511
52.0776
54.9568
57.6266
59.9718
61.8242
63.1525
64.0127
64.392
64.2684
63.6753
62.5815
61.0291
59.0148
56.6495
53.9969
51.1055
48.1828
45.2507
42.3992
39.8228
37.6175
35.599
33.9554
32.773
32.1656
31.9307
31.8926
32.3005
33.0011
33.8317
34.9936
36.4083
37.9677
39.7292
41.655
43.6846
45.7797
47.8464
49.3399
49.597
48.0866
44.3941
38.6634
31.129
22.7962
14.5119
7.23353
1.00962
-4.43719
-9.20979
-13.5715
-16.9776
-18.5356
-17.3079
-14.1556
-10.5168
-5.65564
-0.78691
6.08851
10.8874
18.9139
21.0252
24.6864
26.948
28.3487
28.8752
30.6719
32.2268
31.8733
31.26
28.8582
26.5537
23.0069
19.2897
40.765
40.0604
38.6397
37.6563
37.1448
36.8291
36.8855
37.2975
37.8649
38.0896
37.9317
37.8542
37.9941
38.2311
38.348
38.4206
38.6108
38.9103
39.3158
39.682
40.1052
40.5908
41.1211
41.5754
42.0678
42.5851
43.0475
43.2652
43.1684
42.9408
42.6024
42.1215
41.3992
40.4551
39.3507
38.1308
36.725
35.3573
33.9294
32.6061
31.4215
30.5641
30.0323
29.8991
30.1388
30.8479
31.909
33.3537
34.8851
36.451
37.8917
39.201
40.3015
41.0173
41.4798
41.7842
42.0424
42.3362
42.6339
42.9199
43.0981
43.1708
43.182
42.9678
42.5662
41.9427
41.1327
40.1558
39.1011
37.9386
36.7864
35.6856
34.5744
33.5893
32.7393
32.0417
31.5895
31.3685
31.3632
31.5537
31.9353
32.4728
33.1326
33.8838
34.6917
35.494
36.3115
37.0122
37.648
38.1446
38.3952
38.4827
38.3582
37.9717
37.4164
36.6554
35.7055
34.6503
33.4582
32.1943
30.8791
29.5818
28.2256
27.0076
25.9494
24.9919
24.2636
23.7649
23.4232
23.3718
23.4751
23.7005
24.3462
25.0721
25.8324
26.9608
28.2066
29.4313
30.8731
32.547
34.3655
36.5002
38.8245
41.2529
43.9559
46.8457
49.7295
52.4437
55.0308
57.5046
59.538
61.042
62.0932
62.6604
62.8052
62.4932
61.7482
60.5842
59.061
57.1825
54.9868
52.6641
50.1904
47.6717
45.2493
43.0588
40.8961
38.9432
37.5619
36.4521
35.7399
35.286
35.0315
35.31
35.8379
36.5072
37.5165
38.6212
39.8686
41.5452
43.4659
45.4529
47.6907
50.1053
51.9522
52.2608
50.5444
46.4649
40.1008
31.8571
22.9761
14.2904
6.61348
0.0541058
-5.49193
-10.5943
-15.4247
-18.9691
-20.6367
-19.8818
-16.957
-13.5182
-7.6203
-3.3081
4.76023
9.64786
17.6698
18.8867
23.3694
25.9451
26.2825
27.5274
30.2801
32.5806
32.8895
32.5391
30.8741
29.1729
26.4269
23.3251
41.1688
40.6085
39.1804
37.9705
37.1333
36.5698
36.671
37.2221
37.8952
38.2266
38.1514
38.0922
38.1908
38.4071
38.5066
38.6127
38.7837
39.049
39.3723
39.6808
40.0349
40.4404
40.8841
41.2842
41.6568
42.1598
42.602
42.8388
42.7343
42.4693
42.1836
41.7538
41.1319
40.2905
39.2462
38.2068
37.0293
35.9174
34.6985
33.5029
32.4397
31.6842
31.2351
31.0376
31.1448
31.6114
32.4538
33.6023
34.9824
36.447
37.8488
39.0113
39.8775
40.474
40.863
41.1631
41.4438
41.7712
42.1174
42.3785
42.68
42.8168
42.9063
42.7169
42.3319
41.8107
41.0943
40.2671
39.355
38.3402
37.2794
36.278
35.2029
34.2722
33.4648
32.798
32.3594
32.1326
32.0687
32.1775
32.4358
32.8369
33.3541
33.9491
34.631
35.303
35.9819
36.5797
37.1152
37.5549
37.7908
37.8806
37.82
37.5436
37.1072
36.4977
35.7325
34.8631
33.8377
32.7944
31.7047
30.5648
29.5461
28.5545
27.6119
26.8871
26.2127
25.69
25.5228
25.3557
25.3355
25.6537
25.9944
26.3926
27.1525
28.0088
28.6729
29.6616
30.9273
32.0965
33.4395
35.1357
37.0763
39.1879
41.6248
44.2444
46.9577
49.6897
52.3553
54.8351
56.9769
58.7701
60.1429
61.0591
61.5697
61.5627
61.1514
60.3316
59.2067
57.6846
55.9193
53.9933
51.8743
49.7093
47.5435
45.5707
43.6533
42.1019
40.8034
39.6894
38.8998
38.3202
38.0784
38.2331
38.5753
39.0286
39.7766
40.5896
41.4893
42.8917
44.6501
46.6231
49.0582
51.8055
53.7688
54.0249
52.1148
47.6966
40.8605
32.2903
23.2599
14.4201
6.52272
-0.220835
-5.9517
-11.1769
-15.94
-19.5469
-21.5197
-21.0955
-18.4119
-15.1193
-9.15899
-4.95588
2.5008
8.99048
15.0518
14.6848
23.9363
23.5633
23.3942
27.0346
30.6834
33.2912
34.8688
34.8543
33.5142
32.3533
30.0699
27.194
41.4683
41.0734
39.611
38.187
37.1103
36.3941
36.4582
37.0635
37.853
38.3273
38.3365
38.3099
38.3218
38.5639
38.6387
38.7895
38.9301
39.12
39.415
39.6269
40.0017
40.2788
40.6273
40.9844
41.282
41.7773
42.2003
42.4172
42.3803
42.086
41.839
41.5369
40.9715
40.2439
39.2609
38.3628
37.4001
36.3898
35.3245
34.2337
33.3078
32.6398
32.2427
31.9597
31.9334
32.1747
32.843
33.8032
34.9592
36.2133
37.3932
38.4481
39.1983
39.7382
40.106
40.3863
40.7643
41.1835
41.6806
41.9464
42.2203
42.2955
42.4079
42.4451
42.2213
41.8906
41.2813
40.5243
39.6772
38.7068
37.7048
36.7465
35.7514
34.9022
34.172
33.566
33.1283
32.8683
32.7144
32.7231
32.8555
33.1133
33.505
33.9406
34.4807
35.0421
35.596
36.1292
36.6078
37.0116
37.2889
37.4053
37.4009
37.2421
36.8944
36.415
35.8442
35.0969
34.2766
33.4521
32.5264
31.6893
30.8568
30.0047
29.3329
28.6507
28.0568
27.7702
27.4576
27.2786
27.4048
27.4301
27.5478
28.0128
28.4288
28.7102
29.2519
29.9983
30.5817
31.2724
32.3685
33.6939
35.1537
36.9229
39.0872
41.3934
43.9051
46.7574
49.5478
52.0931
54.3908
56.4889
58.186
59.4978
60.3575
60.7329
60.6844
60.2244
59.4392
58.2493
56.8295
55.1825
53.431
51.5312
49.6106
47.9048
46.3147
45.0369
43.698
42.6322
41.898
41.1873
40.9629
40.9229
41.0457
41.3871
41.8238
42.4016
42.9501
43.7904
45.1689
46.8952
49.2981
52.1777
54.1688
54.3606
52.1143
47.5474
40.7363
32.4675
23.7015
14.9779
7.17579
0.450651
-5.4828
-10.7238
-15.2612
-18.8173
-20.9744
-20.546
-18.792
-15.6699
-10.8712
-5.97139
-0.204666
7.6023
10.3648
10.578
26.3196
17.8586
20.9783
28.6738
31.2371
34.0523
37.8529
38.0586
36.1665
35.5304
33.8042
30.8832
41.9343
41.4846
39.7401
38.2286
37.1189
36.4617
36.4663
37.0075
37.7915
38.3739
38.4662
38.4629
38.4078
38.6421
38.7154
38.8219
38.961
39.0495
39.3693
39.539
39.9176
40.1739
40.4119
40.701
40.9118
41.3088
41.7067
41.935
41.9356
41.7068
41.4575
41.3044
40.8529
40.2492
39.4012
38.5308
37.7953
36.9337
35.9985
35.0021
34.1329
33.547
33.1717
32.8544
32.7392
32.8655
33.3548
34.0411
34.7807
35.6424
36.4782
37.3384
38.0628
38.7095
39.2482
39.6978
40.1885
40.6616
41.1753
41.4403
41.7137
41.8672
41.9942
42.1247
41.9797
41.7837
41.3627
40.7155
39.9859
39.0886
38.1942
37.3179
36.4229
35.6339
34.9424
34.3323
33.8468
33.5202
33.2749
33.1853
33.2033
33.3225
33.5972
33.9029
34.3106
34.7829
35.2333
35.7128
36.1588
36.5366
36.8208
36.9785
37.0428
36.964
36.7404
36.4185
35.97
35.4367
34.8273
34.1498
33.5203
32.7968
32.1009
31.5502
30.9128
30.3696
30.0312
29.6429
29.3889
29.3799
29.2369
29.165
29.3696
29.421
29.4049
29.6303
29.8447
29.88
30.0629
30.5544
31.1588
31.9296
33.0155
34.5389
36.4249
38.5257
40.9312
43.7929
46.7217
49.4515
52.0215
54.4225
56.4473
58.0965
59.2945
60.0858
60.3776
60.2865
59.8547
58.9715
57.8879
56.5208
55.0398
53.4601
51.7925
50.3226
48.8186
47.5847
46.388
45.3276
44.7282
44.0284
43.6843
43.6032
43.4747
43.5986
43.7197
43.8067
44.026
44.3758
45.0883
46.2527
48.1823
50.9147
52.7588
52.5623
49.9998
45.6202
39.3986
31.9254
23.8563
15.6439
8.03333
1.34712
-4.5075
-9.58469
-13.9418
-17.3334
-19.4456
-19.1139
-18.6402
-15.024
-12.2874
-5.88149
-3.41148
6.83973
8.93968
10.2613
29.2564
9.66322
22.8306
32.4758
30.3945
35.0929
41.8069
40.9139
38.1957
38.764
37.567
34.3755
42.0555
41.6067
39.7245
38.1521
37.2321
36.7168
36.6794
37.0831
37.7784
38.3973
38.5583
38.5307
38.4443
38.6188
38.7415
38.8283
38.9633
39.0269
39.3059
39.5157
39.8328
40.0788
40.23
40.4031
40.5847
40.8621
41.2044
41.4613
41.4628
41.3432
41.115
41.0823
40.8019
40.295
39.6065
38.8296
38.3133
37.6007
36.7696
35.8279
35.0088
34.4839
34.0845
33.7343
33.478
33.4005
33.5934
33.9721
34.4244
35.0243
35.7061
36.4738
37.2013
37.8197
38.3947
38.9505
39.5748
40.204
40.773
41.1009
41.3488
41.5199
41.6417
41.8527
41.8625
41.8112
41.5733
41.0926
40.5294
39.7492
38.9244
38.0596
37.2013
36.4271
35.7171
35.0642
34.4929
34.0665
33.7189
33.5173
33.4472
33.4532
33.6357
33.854
34.1561
34.5632
34.9304
35.3402
35.7735
36.1341
36.4279
36.6562
36.7735
36.78
36.6992
36.4792
36.1807
35.837
35.3625
34.9169
34.4102
33.8388
33.3998
32.9096
32.4436
32.13
31.7478
31.4901
31.3773
31.1627
31.0144
31.0042
30.8615
30.6577
30.5927
30.4362
30.1079
29.8791
29.8194
29.753
29.7624
30.1552
30.9372
32.0909
33.6443
35.5969
38.0363
40.9042
43.9905
46.9865
49.8912
52.6311
55.0417
57.0708
58.6587
59.8175
60.4362
60.6615
60.5144
59.9296
59.1092
58.0075
56.7092
55.381
53.9619
52.5564
51.1882
49.9768
49.0009
48.0446
47.2094
46.7461
46.272
45.993
45.7193
45.3971
45.2937
44.9771
44.538
44.6617
44.7005
44.8457
46.3489
48.3371
49.405
48.2731
45.7944
41.9499
37.0184
30.9997
24.2327
16.84
9.6306
2.99007
-3.04135
-8.05411
-12.2183
-15.5559
-17.7199
-17.4445
-18.307
-13.2199
-13.6936
-4.64831
-5.87039
7.22837
9.4487
11.8284
30.1655
4.55622
29.8862
34.6551
27.2424
36.7066
45.9245
42.4517
40.2719
42.2913
41.2298
38.0719
41.8761
41.4795
39.6724
38.2247
37.4534
37.0997
37.0685
37.3189
37.8463
38.3824
38.5761
38.5299
38.4609
38.5946
38.7846
38.8713
38.9805
39.0816
39.2729
39.5033
39.7248
39.9276
40.0145
40.1124
40.3046
40.4848
40.8045
41.0493
41.116
41.1021
40.9485
40.9714
40.8015
40.4004
39.8522
39.2232
38.7988
38.2015
37.4496
36.6022
35.8373
35.2992
34.8175
34.3667
33.9591
33.6985
33.6748
33.8215
34.0944
34.5308
35.0831
35.7196
36.4119
37.0355
37.651
38.2809
38.958
39.662
40.2834
40.7619
41.1315
41.4242
41.6459
41.9014
42.0266
42.0655
41.9393
41.5751
41.0712
40.3906
39.6426
38.8068
37.9338
37.0989
36.3037
35.5872
34.96
34.4597
34.056
33.7639
33.6046
33.5341
33.6117
33.7651
33.9905
34.3381
34.671
35.0498
35.4552
35.805
36.1311
36.4039
36.5766
36.6745
36.6869
36.6022
36.4393
36.2389
35.9655
35.6097
35.2615
34.9127
34.5475
34.2185
33.9403
33.637
33.4099
33.2559
33.0355
32.8688
32.7451
32.4972
32.2382
32.0372
31.6693
31.1316
30.6289
30.1187
29.5434
29.0145
28.7044
28.7251
29.0574
29.8223
31.1669
33.0466
35.4403
38.3397
41.5804
44.8473
48.0733
51.1481
53.9837
56.3996
58.3922
59.8482
60.7633
61.2947
61.2803
61.0163
60.3696
59.4248
58.4153
57.0865
55.9662
54.6253
53.4661
52.3689
51.2841
50.63
49.3466
48.7594
48.6628
47.8906
47.585
47.1439
46.6299
46.1973
45.0631
44.2239
44.0274
43.8426
44.4755
45.5874
45.335
43.2024
40.4412
37.1578
33.9411
30.0872
25.2455
19.217
12.6857
6.16536
-0.150301
-5.37299
-9.81412
-13.4015
-15.7767
-15.5717
-17.6347
-11.7516
-14.8571
-2.95301
-7.46846
8.98323
11.421
13.2693
30.9643
4.57286
38.1751
31.1005
24.415
39.8431
48.8605
43.4473
43.5565
46.1666
44.9041
41.9593
41.5462
41.1429
39.5618
38.3198
37.7325
37.5824
37.5782
37.6826
37.9888
38.3646
38.5467
38.4815
38.4693
38.5747
38.7833
38.9081
38.9972
39.1159
39.2256
39.4466
39.5811
39.7313
39.7936
39.854
40.0346
40.173
40.4785
40.7073
40.8607
40.9185
40.8913
40.9444
40.8368
40.5489
40.0853
39.5921
39.2125
38.7123
38.0315
37.2613
36.5473
35.9444
35.3567
34.7758
34.2637
33.8809
33.7255
33.6928
33.8224
34.0994
34.4996
35.0342
35.6385
36.2921
36.9511
37.6569
38.4201
39.232
39.9576
40.5558
41.0196
41.3889
41.707
41.9991
42.2106
42.3024
42.2444
41.9753
41.5274
40.9066
40.1749
39.355
38.4901
37.6443
36.8272
36.0791
35.3975
34.8024
34.324
33.9477
33.6926
33.5628
33.5439
33.6387
33.817
34.0879
34.3958
34.7493
35.1467
35.5155
35.8733
36.1827
36.4297
36.6108
36.7174
36.753
36.7137
36.6343
36.4856
36.276
36.084
35.8522
35.621
35.4236
35.2141
35.0346
34.8812
34.7144
34.5586
34.4
34.1634
33.8811
33.5735
33.1427
32.5971
31.9642
31.1911
30.2926
29.4071
28.6122
28.0265
27.7604
27.811
28.3517
29.5185
31.2851
33.5824
36.4781
39.8048
43.252
46.7367
50.0963
53.2827
56.057
58.3753
60.1534
61.2978
62.0486
62.2282
62.1007
61.6693
60.7671
59.9321
58.7259
57.5201
56.4387
55.1177
54.3274
53.3393
52.5817
51.4932
50.3038
50.4278
49.8567
49.0693
48.6878
47.8303
46.8679
45.5655
44.0849
43.2612
43.2347
43.6777
43.6064
41.8232
38.4202
35.0062
32.377
31.0677
29.3949
26.7102
22.3601
16.7883
10.4371
4.08573
-1.42897
-6.45955
-10.478
-13.005
-13.9539
-15.8076
-10.7241
-14.545
-1.86321
-8.94592
10.3437
12.8942
15.7709
32.536
9.02574
41.7468
27.7991
26.1645
44.7259
50.2103
45.2214
47.9143
49.8086
48.2588
45.6102
40.8845
40.5872
39.4759
38.5922
38.209
38.1257
38.0736
38.0476
38.1517
38.3271
38.4249
38.3889
38.4495
38.5662
38.7741
38.927
39.0168
39.1601
39.234
39.3955
39.4538
39.5181
39.567
39.6236
39.7833
39.9442
40.2321
40.4575
40.6716
40.7881
40.8738
40.9333
40.8626
40.6794
40.3333
40.0216
39.5817
39.1048
38.4799
37.7862
37.1113
36.449
35.8023
35.1639
34.5862
34.0751
33.7409
33.5173
33.5015
33.6512
33.9945
34.5199
35.0932
35.7645
36.4494
37.2072
38.0127
38.871
39.6592
40.3447
40.9161
41.371
41.7917
42.1348
42.4063
42.5516
42.5322
42.3327
41.9218
41.3419
40.6345
39.8333
38.9835
38.1137
37.2573
36.4491
35.7088
35.0479
34.51
34.0693
33.7366
33.5509
33.4613
33.4963
33.6471
33.8696
34.1719
34.5321
34.9046
35.3017
35.6853
36.0271
36.3365
36.5818
36.7666
36.8972
36.9611
36.9733
36.935
36.8547
36.7538
36.6309
36.5079
36.3757
36.2555
36.1432
36.0111
35.897
35.7569
35.5539
35.3215
35.0085
34.5713
34.0339
33.3959
32.593
31.6407
30.612
29.556
28.5592
27.7799
27.3298
27.2534
27.6812
28.6757
30.3503
32.5978
35.4751
38.8132
42.3643
46.0159
49.5943
53.0243
56.0798
58.6364
60.6621
62.0063
62.8561
63.2396
63.1595
62.7831
62.0521
61.1453
60.0919
58.9025
57.8379
56.7131
55.7611
55.021
54.13
53.2306
52.1414
51.3903
51.1521
50.4971
49.3658
48.459
47.5053
45.8932
44.2913
43.4064
43.3111
43.4126
42.6421
39.7989
35.2485
30.7411
29.5916
29.6146
29.8002
29.1387
26.4194
21.6774
15.6098
9.32826
3.38891
-2.22941
-6.67278
-9.71185
-11.7813
-13.0752
-9.95611
-13.3008
-1.41083
-7.66545
9.00038
13.1402
19.5574
30.6011
15.9674
42.1708
28.2695
33.144
49.5003
50.9817
47.9623
52.0988
52.575
51.1414
48.9068
40.0899
39.9521
39.4387
39.0008
38.7655
38.617
38.4778
38.3708
38.314
38.3044
38.3203
38.3341
38.4506
38.5855
38.7684
38.9307
39.0437
39.1897
39.2406
39.3177
39.3178
39.3233
39.3712
39.4318
39.5965
39.7812
40.0533
40.3068
40.5566
40.7416
40.8827
40.9468
40.9076
40.7745
40.5257
40.2372
39.8349
39.3756
38.7979
38.1631
37.4851
36.7758
36.0738
35.3812
34.7615
34.2048
33.7957
33.498
33.3875
33.4357
33.698
34.1269
34.6926
35.3724
36.1001
36.916
37.7811
38.6866
39.5357
40.2868
40.9324
41.4541
41.9289
42.3071
42.6027
42.7688
42.7532
42.5604
42.1696
41.6085
40.9256
40.1358
39.2809
38.4044
37.5323
36.7032
35.9391
35.2441
34.6656
34.1795
33.8013