/*--------------------------------*- C++ -*----------------------------------*\
| =========                 |                                                 |
| \\      /  F ield         | OpenFOAM: The Open Source CFD Toolbox           |
|  \\    /   O peration     | Version:  2.4.0                                 |
|   \\  /    A nd           | Web:      www.OpenFOAM.org                      |
|    \\/     M anipulation  |                                                 |
\*---------------------------------------------------------------------------*/
FoamFile
{
    version     2.0;
    format      ascii;
    class       surfaceScalarField;
    location    "1.05";
    object      phi_0;
}
// * * * * * * * * * * * * * * * * * * * * * * * * * * * * * * * * * * * * * //

dimensions      [0 3 -1 0 0 0 0];

internalField   nonuniform List<scalar> 
17320
(
1.79421e-05
7.05793e-06
1.16542e-05
6.28784e-06
8.59467e-06
3.05956e-06
7.23555e-06
1.35912e-06
6.76441e-06
4.71134e-07
6.32119e-06
4.43227e-07
6.24744e-06
7.3747e-08
5.87064e-06
3.76801e-07
5.96927e-06
-9.86352e-08
5.68473e-06
2.8454e-07
5.7456e-06
-6.08694e-08
5.50416e-06
2.41443e-07
5.65746e-06
-1.53302e-07
5.36183e-06
2.95633e-07
5.46602e-06
-1.04187e-07
5.41239e-06
5.36287e-08
5.36614e-06
4.62435e-08
5.26676e-06
9.93802e-08
5.16854e-06
9.82224e-08
-9.55683e-07
6.12423e-06
2.58474e-05
6.21057e-06
2.34068e-05
8.72836e-06
2.10862e-05
5.38022e-06
1.92954e-05
3.14992e-06
1.81816e-05
1.58496e-06
1.71601e-05
1.46473e-06
1.66374e-05
5.96392e-07
1.59149e-05
1.09932e-06
1.58406e-05
-2.43684e-08
1.52832e-05
8.4194e-07
1.5281e-05
-5.86752e-08
1.4859e-05
6.63513e-07
1.49884e-05
-2.82783e-07
1.45147e-05
7.6942e-07
1.47161e-05
-3.05633e-07
1.44467e-05
3.22986e-07
1.43944e-05
9.85477e-08
1.42472e-05
2.46602e-07
1.44382e-05
-9.2717e-08
-1.03018e-06
1.45127e-05
2.69617e-05
4.24891e-06
2.73674e-05
8.32264e-06
2.72146e-05
5.53298e-06
2.64119e-05
3.95267e-06
2.58883e-05
2.10849e-06
2.50349e-05
2.31812e-06
2.45417e-05
1.08962e-06
2.37635e-05
1.87756e-06
2.36592e-05
7.9959e-08
2.29948e-05
1.50628e-06
2.29432e-05
-7.0396e-09
2.24599e-05
1.14677e-06
2.2542e-05
-3.64884e-07
2.19809e-05
1.33057e-06
2.22759e-05
-6.00681e-07
2.18595e-05
7.39433e-07
2.18244e-05
1.33588e-07
2.15824e-05
4.88614e-07
2.20105e-05
-5.20847e-07
-6.73213e-07
2.16536e-05
2.66441e-05
2.60483e-06
2.76327e-05
7.33403e-06
2.8959e-05
4.20667e-06
2.8875e-05
4.03666e-06
2.93167e-05
1.66676e-06
2.89766e-05
2.65821e-06
2.91498e-05
9.16433e-07
2.85879e-05
2.43952e-06
2.88764e-05
-2.0858e-07
2.83899e-05
1.99274e-06
2.85132e-05
-1.30271e-07
2.80428e-05
1.61713e-06
2.83807e-05
-7.02726e-07
2.76949e-05
2.01629e-06
2.8154e-05
-1.0597e-06
2.76873e-05
1.20608e-06
2.77954e-05
2.54832e-08
2.72901e-05
9.93954e-07
2.80998e-05
-1.33055e-06
7.48908e-08
2.73517e-05
2.68231e-05
7.81692e-07
2.66035e-05
7.55368e-06
2.87241e-05
2.08603e-06
2.88023e-05
3.9585e-06
2.96893e-05
7.79745e-07
2.93456e-05
3.00189e-06
3.03634e-05
-1.01329e-07
2.98825e-05
2.92042e-06
3.04246e-05
-7.50761e-07
3.02978e-05
2.11963e-06
3.08804e-05
-7.12889e-07
3.01791e-05
2.31839e-06
3.11908e-05
-1.71442e-06
3.04949e-05
2.71217e-06
3.08972e-05
-1.46191e-06
3.05185e-05
1.58471e-06
3.11727e-05
-6.28687e-07
3.02433e-05
1.92337e-06
3.10507e-05
-2.13801e-06
1.01144e-06
3.01142e-05
2.77778e-05
-1.99614e-06
2.69581e-05
8.37342e-06
2.80174e-05
1.02669e-06
2.79266e-05
4.04938e-06
2.86813e-05
2.49722e-08
2.7935e-05
3.74817e-06
2.91985e-05
-1.36474e-06
2.88558e-05
3.26311e-06
2.92998e-05
-1.19478e-06
2.9367e-05
2.05242e-06
3.03118e-05
-1.65771e-06
2.93749e-05
3.25527e-06
3.05707e-05
-2.91015e-06
3.02112e-05
3.07168e-06
3.03468e-05
-1.59752e-06
3.00716e-05
1.85991e-06
3.10934e-05
-1.65055e-06
3.01177e-05
2.89909e-06
3.03907e-05
-2.41095e-06
1.88726e-06
2.95148e-05
2.66107e-05
-3.6068e-06
2.63091e-05
8.675e-06
2.72251e-05
1.10638e-07
2.73529e-05
3.92162e-06
2.79611e-05
-5.83193e-07
2.74997e-05
4.20957e-06
2.84282e-05
-2.29322e-06
2.80995e-05
3.59173e-06
2.8638e-05
-1.73328e-06
2.87365e-05
1.95394e-06
2.94612e-05
-2.38241e-06
2.9009e-05
3.70752e-06
2.99504e-05
-3.85161e-06
2.97461e-05
3.27601e-06
2.98604e-05
-1.7118e-06
2.96659e-05
2.05445e-06
3.0413e-05
-2.39774e-06
2.97601e-05
3.55205e-06
2.94694e-05
-2.12028e-06
2.73543e-06
2.86212e-05
2.59528e-05
-4.55963e-06
2.55815e-05
9.04636e-06
2.65263e-05
-8.34214e-07
2.69709e-05
3.47705e-06
2.73663e-05
-9.78608e-07
2.76336e-05
3.94224e-06
2.87084e-05
-3.36799e-06
2.83656e-05
3.93457e-06
2.9037e-05
-2.40469e-06
2.92763e-05
1.71462e-06
2.92487e-05
-2.3548e-06
2.92931e-05
3.6631e-06
2.9842e-05
-4.40047e-06
2.94829e-05
3.63504e-06
2.96746e-05
-1.90353e-06
2.97389e-05
1.99016e-06
2.9864e-05
-2.52275e-06
3.00112e-05
3.40483e-06
2.97436e-05
-1.85269e-06
1.55318e-06
3.09258e-05
2.48473e-05
-4.40695e-06
2.43804e-05
9.51323e-06
2.6356e-05
-2.80975e-06
2.69958e-05
2.83723e-06
2.76116e-05
-1.59437e-06
2.86682e-05
2.88556e-06
2.93915e-05
-4.09122e-06
2.88854e-05
4.44062e-06
2.96727e-05
-3.19201e-06
2.97518e-05
1.63557e-06
2.90337e-05
-1.63668e-06
2.96792e-05
3.01754e-06
2.95234e-05
-4.24468e-06
2.94749e-05
3.68354e-06
2.957e-05
-1.99863e-06
2.99285e-05
1.63172e-06
2.94882e-05
-2.08243e-06
3.01352e-05
2.75781e-06
2.94915e-05
-1.20905e-06
5.89412e-07
3.04553e-05
2.27652e-05
-2.17213e-06
2.52266e-05
7.05181e-06
2.77429e-05
-5.32601e-06
2.74208e-05
3.15932e-06
2.86103e-05
-2.78387e-06
2.93979e-05
2.09796e-06
2.89307e-05
-3.62403e-06
2.89851e-05
4.38624e-06
2.98002e-05
-4.00712e-06
2.91273e-05
2.30846e-06
2.87881e-05
-1.29754e-06
3.0028e-05
1.77771e-06
2.86694e-05
-2.88614e-06
2.9115e-05
3.23799e-06
2.95565e-05
-2.44017e-06
2.94782e-05
1.71001e-06
2.88355e-05
-1.43966e-06
3.00787e-05
1.51458e-06
2.95477e-05
-6.78099e-07
1.455e-07
2.99916e-05
2.34172e-05
-5.89296e-07
2.75943e-05
2.87469e-06
2.77549e-05
-5.48662e-06
2.78191e-05
3.09511e-06
2.89013e-05
-3.86603e-06
2.90714e-05
1.92785e-06
2.8252e-05
-2.80463e-06
2.92036e-05
3.43461e-06
2.93709e-05
-4.17441e-06
2.85381e-05
3.14121e-06
2.89945e-05
-1.75394e-06
3.00634e-05
7.08812e-07
2.83409e-05
-1.1636e-06
2.94734e-05
2.10551e-06
2.985e-05
-2.81677e-06
2.97862e-05
1.77375e-06
2.90809e-05
-7.34372e-07
3.07178e-05
-1.22301e-07
3.05572e-05
-5.17485e-07
3.65968e-07
3.03367e-05
2.49521e-05
-5.41426e-07
2.78584e-05
-3.1596e-08
2.75145e-05
-5.14269e-06
2.85598e-05
2.04978e-06
2.87357e-05
-4.04187e-06
2.90213e-05
1.64223e-06
2.85433e-05
-2.32666e-06
3.00085e-05
1.96942e-06
2.94395e-05
-3.60539e-06
2.94062e-05
3.17453e-06
3.0114e-05
-2.46176e-06
3.07941e-05
2.87319e-08
2.9568e-05
6.24682e-08
3.12442e-05
4.29338e-07
3.10094e-05
-2.58203e-06
3.12655e-05
1.51766e-06
3.09158e-05
-3.84632e-07
3.22373e-05
-1.44377e-06
3.2242e-05
-5.22188e-07
2.61969e-07
3.2346e-05
2.59551e-05
-1.49653e-06
2.7382e-05
-1.45851e-06
2.76751e-05
-5.4358e-06
2.87956e-05
9.29304e-07
2.86224e-05
-3.86864e-06
2.92292e-05
1.03541e-06
2.91636e-05
-2.26104e-06
3.05926e-05
5.40441e-07
2.97291e-05
-2.74189e-06
3.08007e-05
2.10289e-06
3.09546e-05
-2.61569e-06
3.12161e-05
-2.32752e-07
3.08682e-05
4.10344e-07
3.22443e-05
-9.467e-07
3.15411e-05
-1.87891e-06
3.20895e-05
9.69293e-07
3.22386e-05
-5.3373e-07
3.28957e-05
-2.10088e-06
3.28964e-05
-5.22874e-07
-1.47616e-07
3.3306e-05
2.59198e-05
-2.41634e-06
2.72007e-05
-2.73943e-06
2.76277e-05
-5.86276e-06
2.83947e-05
1.62341e-07
2.85765e-05
-4.05052e-06
2.92957e-05
3.16286e-07
2.92108e-05
-2.1762e-06
3.0346e-05
-5.94778e-07
2.96668e-05
-2.06264e-06
3.07291e-05
1.04059e-06
3.05702e-05
-2.45684e-06
3.09032e-05
-5.65745e-07
3.09053e-05
4.08238e-07
3.16851e-05
-1.72649e-06
3.11479e-05
-1.34169e-06
3.17158e-05
4.01357e-07
3.1973e-05
-7.90856e-07
3.21056e-05
-2.23352e-06
3.21897e-05
-6.06989e-07
-5.82496e-07
3.26246e-05
2.57761e-05
-3.19246e-06
2.7281e-05
-4.24434e-06
2.72711e-05
-5.85281e-06
2.84244e-05
-9.90994e-07
2.85807e-05
-4.20677e-06
2.91975e-05
-3.00532e-07
2.92025e-05
-2.18123e-06
3.00739e-05
-1.46613e-06
2.95018e-05
-1.49059e-06
3.03994e-05
1.42986e-07
3.03071e-05
-2.3645e-06
3.04696e-05
-7.28227e-07
3.06622e-05
2.15583e-07
3.105e-05
-2.11427e-06
3.06858e-05
-9.77458e-07
3.10918e-05
-4.6659e-09
3.13461e-05
-1.04512e-06
3.13059e-05
-2.19337e-06
3.13731e-05
-6.742e-07
-1.08902e-06
3.18796e-05
2.59209e-05
-4.11338e-06
2.74136e-05
-5.73699e-06
2.75104e-05
-5.94968e-06
2.87904e-05
-2.27094e-06
2.86874e-05
-4.10378e-06
2.93994e-05
-1.01257e-06
2.94046e-05
-2.1864e-06
2.975e-05
-1.81156e-06
2.94632e-05
-1.2038e-06
3.00735e-05
-4.67236e-07
2.97278e-05
-2.01887e-06
2.98042e-05
-8.04644e-07
3.00564e-05
-3.66162e-08
2.98056e-05
-1.86338e-06
2.96606e-05
-8.32501e-07
2.98025e-05
-1.46576e-07
2.97555e-05
-9.98136e-07
2.94682e-05
-1.90607e-06
2.94297e-05
-6.35712e-07
-1.36812e-06
2.97088e-05
2.62234e-05
-5.33674e-06
2.77009e-05
-7.21457e-06
2.78895e-05
-6.13821e-06
2.87367e-05
-3.11815e-06
2.8264e-05
-3.63109e-06
2.86824e-05
-1.431e-06
2.82908e-05
-1.79476e-06
2.80496e-05
-1.57033e-06
2.7806e-05
-9.60283e-07
2.78237e-05
-4.84872e-07
2.7205e-05
-1.40017e-06
2.71022e-05
-7.01874e-07
2.7087e-05
-2.13991e-08
2.64627e-05
-1.23912e-06
2.63263e-05
-6.96064e-07
2.62283e-05
-4.85378e-08
2.59154e-05
-6.85303e-07
2.54179e-05
-1.40854e-06
2.53096e-05
-5.27434e-07
-1.30664e-06
2.52481e-05
2.65941e-05
-6.93087e-06
2.73139e-05
-7.93439e-06
2.67023e-05
-5.52653e-06
2.6401e-05
-2.81689e-06
2.52323e-05
-2.46236e-06
2.48552e-05
-1.0539e-06
2.39883e-05
-9.27914e-07
2.33119e-05
-8.93866e-07
2.28695e-05
-5.17892e-07
2.25543e-05
-1.69669e-07
2.18922e-05
-7.38074e-07
2.16374e-05
-4.47075e-07
2.15013e-05
1.14709e-07
2.09081e-05
-6.45915e-07
2.06971e-05
-4.85154e-07
2.05608e-05
8.78243e-08
2.02265e-05
-3.51029e-07
1.96756e-05
-8.57614e-07
1.94469e-05
-2.9873e-07
-4.46672e-07
1.85869e-05
2.54479e-05
-7.37874e-06
2.33943e-05
-5.88082e-06
2.09523e-05
-3.08452e-06
1.9393e-05
-1.25761e-06
1.77803e-05
-8.49686e-07
1.70253e-05
-2.98911e-07
1.626e-05
-1.62539e-07
1.56421e-05
-2.75956e-07
1.52685e-05
-1.44311e-07
1.50612e-05
3.76224e-08
1.45617e-05
-2.38608e-07
1.43038e-05
-1.89165e-07
1.42797e-05
1.38862e-07
1.38405e-05
-2.06715e-07
1.35872e-05
-2.3191e-07
1.35632e-05
1.11843e-07
1.33019e-05
-8.97697e-08
1.28091e-05
-3.64791e-07
1.26406e-05
-1.30225e-07
-6.35889e-08
1.22575e-05
1.76213e-05
1.17404e-05
8.65592e-06
7.39831e-06
6.54863e-06
6.24972e-06
6.08718e-06
5.81122e-06
5.66691e-06
5.70453e-06
5.46592e-06
5.27676e-06
5.41562e-06
5.20891e-06
4.977e-06
5.08884e-06
4.99907e-06
4.63428e-06
4.50405e-06
4.44047e-06
6.50691e-06
-1.36211e-07
-2.46471e-07
6.61472e-06
3.50017e-07
-4.57832e-07
6.6859e-06
3.79286e-07
-4.50465e-07
6.82794e-06
3.52771e-07
-4.94812e-07
7.0915e-06
5.04586e-09
-2.68601e-07
7.42617e-06
-1.1287e-07
-2.21805e-07
7.8368e-06
-3.25423e-07
-8.52084e-08
8.23529e-06
-2.48955e-07
-1.49532e-07
8.64633e-06
-2.89624e-07
-1.2142e-07
8.97443e-06
-7.74865e-08
-2.5061e-07
9.29895e-06
-6.74139e-08
-2.57111e-07
9.56557e-06
1.35667e-07
-4.02284e-07
9.85634e-06
5.64068e-08
-3.47175e-07
1.01351e-05
5.10326e-08
-3.29753e-07
1.04227e-05
-2.65422e-07
-2.22002e-08
1.06762e-05
-5.01509e-07
2.47957e-07
1.0922e-05
-9.96008e-07
7.50258e-07
1.10834e-05
-1.31438e-06
1.15294e-06
1.12058e-05
-1.81374e-06
1.6914e-06
1.12045e-05
-1.98479e-06
1.98609e-06
1.11188e-05
-2.25633e-06
2.34204e-06
1.0888e-05
-2.19902e-06
2.42978e-06
1.05786e-05
-2.29519e-06
2.60456e-06
1.01663e-05
-2.08104e-06
2.49338e-06
9.72939e-06
-2.03512e-06
2.47202e-06
9.24955e-06
-1.64202e-06
2.12186e-06
8.84633e-06
-1.47237e-06
1.87559e-06
8.47005e-06
-8.63331e-07
1.2396e-06
8.2636e-06
-5.1524e-07
7.21697e-07
8.08068e-06
3.26983e-07
-1.44067e-07
8.02908e-06
8.29722e-07
-7.78126e-07
7.97199e-06
1.85458e-06
-1.79748e-06
8.01225e-06
2.4621e-06
-2.50236e-06
8.09906e-06
3.52232e-06
-3.60914e-06
8.27482e-06
4.09473e-06
-4.27049e-06
8.62269e-06
4.99654e-06
-5.34441e-06
9.06519e-06
5.33594e-06
-5.77843e-06
9.73012e-06
5.80571e-06
-6.47065e-06
1.05441e-05
5.59183e-06
-6.40579e-06
1.14999e-05
5.32348e-06
-6.27935e-06
1.25587e-05
4.18923e-06
-5.24794e-06
1.3535e-05
3.08944e-06
-4.0658e-06
1.44854e-05
1.12989e-06
-2.08021e-06
1.52708e-05
-4.54813e-07
-3.30634e-07
1.59978e-05
-2.66946e-06
1.94247e-06
1.66068e-05
-4.117e-06
3.50804e-06
1.71573e-05
-5.94236e-06
5.39183e-06
1.75479e-05
-6.76491e-06
6.37431e-06
1.78639e-05
-7.7893e-06
7.47329e-06
1.80775e-05
-7.6846e-06
7.47098e-06
1.83942e-05
-7.60552e-06
7.28884e-06
1.87788e-05
-6.28328e-06
5.89872e-06
1.92287e-05
-5.0973e-06
4.64738e-06
1.92298e-05
-2.99243e-06
2.99131e-06
1.85855e-05
-1.63672e-06
2.28098e-06
1.74684e-05
-2.91087e-07
1.40821e-06
1.62518e-05
-9.04946e-08
1.30708e-06
1.53109e-05
3.23553e-07
6.17402e-07
1.47835e-05
-1.54795e-08
5.42836e-07
1.44051e-05
4.75152e-07
-9.67207e-08
1.4259e-05
1.68697e-07
-2.26138e-08
1.39067e-05
7.99525e-07
-4.47251e-07
1.35426e-05
5.41071e-07
-1.76972e-07
1.28577e-05
1.33543e-06
-6.50521e-07
1.22324e-05
1.33778e-06
-7.12437e-07
1.14715e-05
2.52955e-06
-1.76866e-06
1.0943e-05
2.67971e-06
-2.15125e-06
1.03963e-05
3.90888e-06
-3.36222e-06
1.00625e-05
3.72007e-06
-3.38627e-06
9.75258e-06
4.58245e-06
-4.27248e-06
9.56109e-06
3.88675e-06
-3.69527e-06
9.46587e-06
4.3908e-06
-4.29558e-06
9.49482e-06
3.3847e-06
-3.41366e-06
9.71714e-06
3.77975e-06
-4.00207e-06
1.02618e-05
2.55783e-06
-3.10245e-06
1.07542e-05
2.8403e-06
-3.3327e-06
1.14871e-05
1.29529e-06
-2.02827e-06
1.20354e-05
1.42241e-06
-1.97071e-06
1.24917e-05
-4.0386e-07
-5.24457e-08
1.28116e-05
-3.01759e-07
-1.80713e-08
1.3115e-05
-2.01471e-06
1.71131e-06
1.32111e-05
-1.63855e-06
1.54245e-06
1.33018e-05
-3.12581e-06
3.03509e-06
1.32764e-05
-2.32234e-06
2.34773e-06
1.32732e-05
-3.55516e-06
3.55837e-06
1.31326e-05
-2.27656e-06
2.41717e-06
1.30414e-05
-3.32697e-06
3.4181e-06
1.28496e-05
-1.70316e-06
1.89504e-06
1.2749e-05
-2.62778e-06
2.72836e-06
1.26112e-05
-7.78921e-07
9.16662e-07
1.2587e-05
-1.55499e-06
1.57925e-06
1.26253e-05
4.14784e-07
-4.53095e-07
1.27784e-05
-1.75442e-07
2.23074e-08
1.31352e-05
1.76359e-06
-2.12034e-06
1.36171e-05
1.52435e-06
-2.00629e-06
1.42486e-05
3.33424e-06
-3.96571e-06
1.51299e-05
2.92555e-06
-3.80686e-06
1.58285e-05
4.59191e-06
-5.29054e-06
1.67901e-05
3.8899e-06
-4.85152e-06
1.77039e-05
4.89133e-06
-5.80512e-06
1.86455e-05
4.02509e-06
-4.96662e-06
1.96662e-05
4.48633e-06
-5.50704e-06
2.04723e-05
3.17707e-06
-3.98323e-06
2.13904e-05
2.8857e-06
-3.80373e-06
2.20261e-05
1.82055e-06
-2.45631e-06
2.27035e-05
7.85716e-07
-1.46307e-06
2.31579e-05
-6.1406e-07
1.59606e-07
2.35793e-05
-1.34091e-06
9.1957e-07
2.38695e-05
-2.85198e-06
2.56179e-06
2.40673e-05
-3.97651e-06
3.77873e-06
2.39998e-05
-4.87635e-06
4.94385e-06
2.39492e-05
-5.76745e-06
5.81805e-06
2.36768e-05
-7.01424e-06
7.28665e-06
2.3319e-05
-7.36629e-06
7.72406e-06
2.30547e-05
-8.04373e-06
8.30803e-06
2.30135e-05
-8.60164e-06
8.64281e-06
2.29659e-05
-9.31894e-06
9.3665e-06
2.33813e-05
-9.49164e-06
9.07625e-06
2.37805e-05
-1.01275e-05
9.72836e-06
2.42672e-05
-1.05126e-05
1.0026e-05
2.45666e-05
-1.10024e-05
1.0703e-05
2.45312e-05
-1.09963e-05
1.10317e-05
2.41731e-05
-1.15054e-05
1.18635e-05
2.33515e-05
-1.10768e-05
1.18984e-05
2.23092e-05
-1.10327e-05
1.2075e-05
2.12346e-05
-1.03646e-05
1.14392e-05
1.96432e-05
-9.67911e-06
1.12705e-05
1.7722e-05
-8.18722e-06
1.01084e-05
1.60388e-05
-6.65169e-06
8.33489e-06
1.46547e-05
-5.03165e-06
6.41579e-06
1.3731e-05
-3.10206e-06
4.02568e-06
1.21552e-05
-4.56985e-07
2.03279e-06
1.03454e-05
1.72254e-06
8.73277e-08
8.83486e-06
3.45123e-06
-1.94072e-06
8.31783e-06
5.64757e-06
-5.13054e-06
8.29147e-06
8.4198e-06
-8.39344e-06
9.06841e-06
1.08329e-05
-1.16098e-05
9.87113e-06
1.2902e-05
-1.37047e-05
1.10929e-05
1.3896e-05
-1.51178e-05
1.21223e-05
1.47116e-05
-1.5741e-05
1.31948e-05
1.46033e-05
-1.56759e-05
1.41768e-05
1.44904e-05
-1.54724e-05
1.52377e-05
1.35726e-05
-1.46335e-05
1.61789e-05
1.2573e-05
-1.35143e-05
1.71241e-05
1.09588e-05
-1.1904e-05
1.79121e-05
9.21076e-06
-9.99879e-06
1.8525e-05
7.23957e-06
-7.8525e-06
1.90769e-05
5.34086e-06
-5.89273e-06
1.94758e-05
3.39728e-06
-3.79623e-06
2.00042e-05
1.65572e-06
-2.18406e-06
2.04802e-05
-3.30391e-07
-1.45646e-07
2.11679e-05
-2.17888e-06
1.49115e-06
2.19034e-05
-4.47514e-06
3.73969e-06
2.25855e-05
-6.4765e-06
5.79444e-06
2.32739e-05
-8.44466e-06
7.75624e-06
2.37327e-05
-1.00951e-05
9.63632e-06
2.44826e-05
-1.17562e-05
1.10063e-05
2.51283e-05
-1.30574e-05
1.24117e-05
2.58652e-05
-1.46137e-05
1.38767e-05
2.66056e-05
-1.54987e-05
1.47583e-05
2.70356e-05
-1.63031e-05
1.58731e-05
2.71071e-05
-1.66649e-05
1.65935e-05
2.71013e-05
-1.64996e-05
1.65053e-05
2.69767e-05
-1.66306e-05
1.67552e-05
2.7099e-05
-1.66307e-05
1.65084e-05
2.74745e-05
-1.68698e-05
1.64943e-05
2.84205e-05
-1.71488e-05
1.62028e-05
2.94859e-05
-1.76035e-05
1.65381e-05
3.06298e-05
-1.73742e-05
1.62304e-05
3.18622e-05
-1.69183e-05
1.56858e-05
3.28121e-05
-1.59488e-05
1.49989e-05
3.35608e-05
-1.43601e-05
1.36114e-05
3.4344e-05
-1.2485e-05
1.17018e-05
3.48477e-05
-1.04275e-05
9.92387e-06
3.54012e-05
-8.06891e-06
7.51535e-06
3.58283e-05
-5.53153e-06
5.10446e-06
3.62667e-05
-3.00686e-06
2.56844e-06
3.65372e-05
-1.97398e-07
-7.31034e-08
3.65048e-05
2.54529e-06
-2.51284e-06
3.639e-05
5.43767e-06
-5.32294e-06
3.59001e-05
7.90571e-06
-7.41582e-06
3.5255e-05
1.00659e-05
-9.42076e-06
3.43126e-05
1.20989e-05
-1.11565e-05
3.32028e-05
1.35367e-05
-1.24269e-05
3.22095e-05
1.46599e-05
-1.36667e-05
3.09327e-05
1.56087e-05
-1.43319e-05
2.99335e-05
1.60534e-05
-1.50541e-05
2.87851e-05
1.66534e-05
-1.5505e-05
2.74198e-05
1.6947e-05
-1.55817e-05
2.66593e-05
1.64656e-05
-1.5705e-05
2.48967e-05
1.70948e-05
-1.53322e-05
2.3545e-05
1.65035e-05
-1.51517e-05
2.25853e-05
1.59887e-05
-1.50291e-05
2.04137e-05
1.61195e-05
-1.39479e-05
1.89707e-05
1.52265e-05
-1.37835e-05
1.72129e-05
1.46601e-05
-1.29022e-05
1.57719e-05
1.44188e-05
-1.29778e-05
1.31452e-05
1.6975e-05
-1.43483e-05
1.32629e-05
1.54939e-05
-1.56116e-05
2.52937e-05
-2.47392e-05
1.27084e-05
1.45143e-05
-1.37836e-07
1.44689e-05
3.95412e-07
1.44429e-05
4.05222e-07
1.44416e-05
3.54124e-07
1.45644e-05
-1.1771e-07
1.47553e-05
-3.03792e-07
1.50445e-05
-6.1468e-07
1.53127e-05
-5.17144e-07
1.56155e-05
-5.92445e-07
1.58733e-05
-3.35244e-07
1.61508e-05
-3.44901e-07
1.63848e-05
-9.83024e-08
1.66528e-05
-2.11651e-07
1.69057e-05
-2.01902e-07
1.71914e-05
-5.51038e-07
1.7438e-05
-7.48123e-07
1.76728e-05
-1.23082e-06
1.78279e-05
-1.46947e-06
1.79692e-05
-1.95505e-06
1.80197e-05
-2.03527e-06
1.80439e-05
-2.2806e-06
1.7937e-05
-2.09204e-06
1.77346e-05
-2.09288e-06
1.73249e-05
-1.67133e-06
1.67118e-05
-1.42196e-06
1.58854e-05
-8.15623e-07
1.49158e-05
-5.02789e-07
1.39127e-05
1.39745e-07
1.30115e-05
3.85961e-07
1.23319e-05
1.00661e-06
1.19416e-05
1.22006e-06
1.17944e-05
2.00175e-06
1.18772e-05
2.37932e-06
1.20829e-05
3.31663e-06
1.2444e-05
3.73356e-06
1.28831e-05
4.55743e-06
1.35486e-05
4.67049e-06
1.42494e-05
5.10493e-06
1.52545e-05
4.58668e-06
1.61901e-05
4.38794e-06
1.72825e-05
3.0968e-06
1.82234e-05
2.14852e-06
1.92048e-05
1.48474e-07
2.00124e-05
-1.26239e-06
2.08158e-05
-3.47287e-06
2.14809e-05
-4.78209e-06
2.20755e-05
-6.53699e-06
2.25067e-05
-7.19604e-06
2.2852e-05
-8.1346e-06
2.30297e-05
-7.8623e-06
2.30184e-05
-7.59423e-06
2.27279e-05
-5.99284e-06
2.24214e-05
-4.79075e-06
2.22792e-05
-2.85028e-06
2.23633e-05
-1.72075e-06
2.2006e-05
6.61671e-08
2.11263e-05
7.8926e-07
1.96945e-05
1.7553e-06
1.82437e-05
1.4353e-06
1.70389e-05
1.68e-06
1.62554e-05
9.52184e-07
1.56212e-05
1.43378e-06
1.51841e-05
9.78094e-07
1.46018e-05
1.91777e-06
1.41079e-05
1.83165e-06
1.35409e-05
3.09656e-06
1.31641e-05
3.05651e-06
1.28335e-05
4.23955e-06
1.27026e-05
3.85088e-06
1.26116e-05
4.67351e-06
1.26552e-05
3.84311e-06
1.27168e-05
4.32921e-06
1.29766e-05
3.12493e-06
1.32459e-05
3.51044e-06
1.38011e-05
2.00267e-06
1.42872e-05
2.35413e-06
1.49765e-05
6.06005e-07
1.55187e-05
8.80217e-07
1.60765e-05
-9.61686e-07
1.64881e-05
-7.13327e-07
1.68418e-05
-2.36842e-06
1.71077e-05
-1.90443e-06
1.72326e-05
-3.25076e-06
1.73585e-05
-2.44815e-06
1.72495e-05
-3.44618e-06
1.72571e-05
-2.28421e-06
1.69347e-05
-3.00457e-06
1.68388e-05
-1.60721e-06
1.64058e-05
-2.19477e-06
1.62145e-05
-5.87659e-07
1.58204e-05
-1.1609e-06
1.56722e-05
5.63007e-07
1.54494e-05
4.73883e-08
1.55142e-05
1.69878e-06
1.57714e-05
1.26714e-06
1.62091e-05
2.89658e-06
1.69063e-05
2.22831e-06
1.76988e-05
3.7994e-06
1.85148e-05
3.0739e-06
1.9583e-05
3.82309e-06
2.0406e-05
3.2021e-06
2.14604e-05
3.43197e-06
2.22566e-05
2.38088e-06
2.30965e-05
2.04579e-06
2.37361e-05
1.18098e-06
2.43902e-05
1.31553e-07
2.46987e-05
-9.22582e-07
2.50718e-05
-1.71393e-06
2.52658e-05
-3.04605e-06
2.53211e-05
-4.03174e-06
2.52822e-05
-4.83745e-06
2.53715e-05
-5.85682e-06
2.53086e-05
-6.95136e-06
2.53442e-05
-7.40186e-06
2.55479e-05
-8.24744e-06
2.60254e-05
-9.07913e-06
2.63104e-05
-9.60388e-06
2.66908e-05
-9.87204e-06
2.69854e-05
-1.04222e-05
2.68786e-05
-1.04058e-05
2.67618e-05
-1.08856e-05
2.64151e-05
-1.06497e-05
2.5576e-05
-1.06663e-05
2.48106e-05
-1.03113e-05
2.36608e-05
-9.88292e-06
2.22067e-05
-8.91045e-06
2.04601e-05
-7.93249e-06
1.90472e-05
-6.77439e-06
1.80665e-05
-5.67091e-06
1.66502e-05
-3.6154e-06
1.55319e-05
-1.98371e-06
1.45914e-05
4.83444e-07
1.34584e-05
2.85553e-06
1.18411e-05
5.06854e-06
1.10766e-05
6.41215e-06
1.096e-05
8.53635e-06
1.15454e-05
1.02475e-05
1.22421e-05
1.22053e-05
1.31085e-05
1.30296e-05
1.40226e-05
1.37975e-05
1.50141e-05
1.36118e-05
1.6012e-05
1.34925e-05
1.70265e-05
1.25581e-05
1.80295e-05
1.157e-05
1.8957e-05
1.00313e-05
1.97234e-05
8.44436e-06
2.03641e-05
6.59888e-06
2.10024e-05
4.70247e-06
2.15022e-05
2.89756e-06
2.21445e-05
1.01342e-06
2.27688e-05
-9.54726e-07
2.36147e-05
-3.02474e-06
2.42445e-05
-5.10497e-06
2.4856e-05
-7.08802e-06
2.54425e-05
-9.03114e-06
2.58912e-05
-1.05439e-05
2.65763e-05
-1.24412e-05
2.72831e-05
-1.37643e-05
2.76923e-05
-1.50229e-05
2.8005e-05
-1.58113e-05
2.79558e-05
-1.6254e-05
2.74826e-05
-1.61917e-05
2.72985e-05
-1.63155e-05
2.71976e-05
-1.65297e-05
2.75387e-05
-1.69718e-05
2.82149e-05
-1.75461e-05
2.92839e-05
-1.82177e-05
3.02415e-05
-1.85611e-05
3.12273e-05
-1.83601e-05
3.19928e-05
-1.76838e-05
3.23637e-05
-1.63196e-05
3.27876e-05
-1.4784e-05
3.31712e-05
-1.28686e-05
3.35099e-05
-1.07662e-05
3.39538e-05
-8.51272e-06
3.44108e-05
-5.98861e-06
3.49275e-05
-3.52352e-06
3.53832e-05
-6.53143e-07
3.5649e-05
2.27955e-06
3.59911e-05
5.09556e-06
3.59112e-05
7.98557e-06
3.56918e-05
1.02853e-05
3.51257e-05
1.2665e-05
3.41825e-05
1.448e-05
3.31714e-05
1.5671e-05
3.21018e-05
1.66783e-05
3.06612e-05
1.74939e-05
3.00708e-05
1.72438e-05
2.86897e-05
1.83281e-05
2.7444e-05
1.77112e-05
2.70635e-05
1.74753e-05
2.51909e-05
1.83761e-05
2.37649e-05
1.74147e-05
2.32846e-05
1.65998e-05
2.1837e-05
1.66741e-05
1.93529e-05
1.71442e-05
1.93818e-05
1.43899e-05
1.71056e-05
1.92512e-05
2.02222e-05
1.23773e-05
2.55757e-05
1.99402e-05
2.16209e-05
-1.05157e-07
2.15884e-05
4.27951e-07
2.16552e-05
3.38351e-07
2.16845e-05
3.2489e-07
2.18161e-05
-2.49317e-07
2.1898e-05
-3.85763e-07
2.20657e-05
-7.82333e-07
2.22091e-05
-6.60542e-07
2.24735e-05
-8.56831e-07
2.26853e-05
-5.47045e-07
2.29813e-05
-6.40915e-07
2.31773e-05
-2.94351e-07
2.34326e-05
-4.66861e-07
2.36015e-05
-3.70879e-07
2.38161e-05
-7.65637e-07
2.39447e-05
-8.76706e-07
2.40759e-05
-1.36201e-06
2.41035e-05
-1.49703e-06
2.41294e-05
-1.98104e-06
2.40329e-05
-1.93872e-06
2.39373e-05
-2.18505e-06
2.36966e-05
-1.85134e-06
2.34295e-05
-1.82575e-06
2.30396e-05
-1.2814e-06
2.26416e-05
-1.02395e-06
2.21441e-05
-3.18184e-07
2.155e-05
9.13466e-08
2.07857e-05
9.04003e-07
1.99165e-05
1.25521e-06
1.89427e-05
1.98038e-06
1.80111e-05
2.15168e-06
1.72293e-05
2.78359e-06
1.67635e-05
2.84511e-06
1.6551e-05
3.52915e-06
1.67449e-05
3.53965e-06
1.70776e-05
4.22465e-06
1.77853e-05
3.96282e-06
1.85426e-05
4.34765e-06
1.95475e-05
3.58176e-06
2.05468e-05
3.38865e-06
2.16206e-05
2.02303e-06
2.26485e-05
1.12061e-06
2.36456e-05
-8.48646e-07
2.45367e-05
-2.1535e-06
2.53475e-05
-4.2837e-06
2.59803e-05
-5.41481e-06
2.64305e-05
-6.98726e-06
2.66255e-05
-7.39095e-06
2.65808e-05
-8.0899e-06
2.63499e-05
-7.63149e-06
2.6109e-05
-7.35326e-06
2.58098e-05
-5.69367e-06
2.53533e-05
-4.33425e-06
2.4727e-05
-2.22396e-06
2.42247e-05
-1.21851e-06
2.39602e-05
3.30756e-07
2.38985e-05
8.50925e-07
2.36082e-05
2.04556e-06
2.28679e-05
2.17558e-06
2.16592e-05
2.88878e-06
2.01497e-05
2.46165e-06
1.88229e-05
2.76055e-06
1.76953e-05
2.10567e-06
1.68876e-05
2.72556e-06
1.63108e-05
2.40843e-06
1.58581e-05
3.54921e-06
1.56215e-05
3.29312e-06
1.54429e-05
4.41816e-06
1.55157e-05
3.77813e-06
1.55741e-05
4.61505e-06
1.58938e-05
3.52347e-06
1.61264e-05
4.09656e-06
1.66102e-05
2.64115e-06
1.70524e-05
3.06824e-06
1.76481e-05
1.40692e-06
1.83051e-05
1.69716e-06
1.89306e-05
-1.94807e-08
1.9668e-05
1.42797e-07
2.01618e-05
-1.45544e-06
2.07745e-05
-1.32605e-06
2.10649e-05
-2.65881e-06
2.14826e-05
-2.32213e-06
2.15615e-05
-3.3297e-06
2.17894e-05
-2.67606e-06
2.16739e-05
-3.33068e-06
2.1769e-05
-2.37925e-06
2.1511e-05
-2.74659e-06
2.14701e-05
-1.56629e-06
2.10941e-05
-1.81883e-06
2.09389e-05
-4.32464e-07
2.05105e-05
-7.32427e-07
2.03127e-05
7.60754e-07
1.98979e-05
4.62204e-07
1.97659e-05
1.83074e-06
1.95663e-05
1.46678e-06
1.97046e-05
2.75829e-06
1.9737e-05
2.19585e-06
2.03203e-05
3.21614e-06
2.06711e-05
2.72309e-06
2.14691e-05
3.02511e-06
2.20837e-05
2.58745e-06
2.29525e-05
2.56321e-06
2.36323e-05
1.70104e-06
2.43667e-05
1.31146e-06
2.5032e-05
5.15654e-07
2.56306e-05
-4.6706e-07
2.60292e-05
-1.32117e-06
2.65e-05
-2.18469e-06
2.68832e-05
-3.42926e-06
2.7144e-05
-4.2926e-06
2.75162e-05
-5.20961e-06
2.8007e-05
-6.34759e-06
2.82156e-05
-7.16001e-06
2.86521e-05
-7.83834e-06
2.91568e-05
-8.75212e-06
2.93935e-05
-9.31587e-06
2.953e-05
-9.74041e-06
2.94965e-05
-9.83848e-06
2.93575e-05
-1.02832e-05
2.91657e-05
-1.0214e-05
2.84335e-05
-1.01534e-05
2.76073e-05
-9.82347e-06
2.64785e-05
-9.53751e-06
2.53233e-05
-9.15616e-06
2.38747e-05
-8.43428e-06
2.24048e-05
-7.44057e-06
2.1179e-05
-6.70672e-06
1.97612e-05
-5.35654e-06
1.84313e-05
-4.34105e-06
1.73873e-05
-2.57139e-06
1.63592e-05
-9.55639e-07
1.57663e-05
1.07639e-06
1.55559e-05
3.06592e-06
1.49513e-05
5.6731e-06
1.40631e-05
7.30036e-06
1.35724e-05
9.02712e-06
1.37556e-05
1.00643e-05
1.45207e-05
1.14402e-05
1.53847e-05
1.21657e-05
1.63551e-05
1.28271e-05
1.7233e-05
1.27339e-05
1.82133e-05
1.25122e-05
1.90855e-05
1.16859e-05
2.00143e-05
1.06412e-05
2.08814e-05
9.1642e-06
2.16955e-05
7.63032e-06
2.24054e-05
5.88892e-06
2.30842e-05
4.02373e-06
2.37597e-05
2.22201e-06
2.44483e-05
3.24857e-07
2.51071e-05
-1.61359e-06
2.58114e-05
-3.72901e-06
2.63579e-05
-5.65151e-06
2.6892e-05
-7.62205e-06
2.73474e-05
-9.48656e-06
2.80118e-05
-1.12083e-05
2.85754e-05
-1.30048e-05
2.89148e-05
-1.41037e-05
2.89437e-05
-1.50518e-05
2.86988e-05
-1.55664e-05
2.8084e-05
-1.56391e-05
2.75059e-05
-1.56136e-05
2.74508e-05
-1.62604e-05
2.76035e-05
-1.66823e-05
2.81392e-05
-1.75075e-05
2.8863e-05
-1.82699e-05
2.96594e-05
-1.90141e-05
3.02034e-05
-1.91051e-05
3.05008e-05
-1.86575e-05
3.04252e-05
-1.76082e-05
3.03843e-05
-1.62786e-05
3.05261e-05
-1.49259e-05
3.06707e-05
-1.30132e-05
3.10668e-05
-1.11623e-05
3.14505e-05
-8.89648e-06
3.20489e-05
-6.58696e-06
3.2489e-05
-3.96362e-06
3.3094e-05
-1.25814e-06
3.35761e-05
1.79737e-06
3.4206e-05
4.4657e-06
3.46135e-05
7.57812e-06
3.49124e-05
9.98633e-06
3.48921e-05
1.26853e-05
3.46199e-05
1.47523e-05
3.36535e-05
1.66374e-05
3.30182e-05
1.73136e-05
3.17231e-05
1.8789e-05
3.04462e-05
1.85207e-05
3.02534e-05
1.85209e-05
2.84917e-05
1.94729e-05
2.75761e-05
1.83909e-05
2.74246e-05
1.85275e-05
2.59061e-05
1.89333e-05
2.40284e-05
1.84775e-05
2.44971e-05
1.62055e-05
2.2256e-05
1.93852e-05
2.32942e-05
1.33517e-05
2.0624e-05
2.19214e-05
2.23086e-05
1.06926e-05
2.32892e-05
2.45951e-05
2.72847e-05
-3.81647e-08
2.72783e-05
4.34364e-07
2.74395e-05
1.77082e-07
2.7485e-05
2.7943e-07
2.76025e-05
-3.66846e-07
2.76126e-05
-3.95875e-07
2.77294e-05
-8.99067e-07
2.77636e-05
-6.94775e-07
2.79482e-05
-1.04142e-06
2.80648e-05
-6.63632e-07
2.83312e-05
-9.07293e-07
2.84854e-05
-4.4858e-07
2.87547e-05
-7.36181e-07
2.88867e-05
-5.02917e-07
2.90464e-05
-9.25283e-07
2.90576e-05
-8.87893e-07
2.90493e-05
-1.35373e-06
2.8902e-05
-1.34971e-06
2.87362e-05
-1.81522e-06
2.84432e-05
-1.64578e-06
2.8194e-05
-1.93584e-06
2.78354e-05
-1.49273e-06
2.7563e-05
-1.55339e-06
2.71975e-05
-9.15859e-07
2.69452e-05
-7.71643e-07
2.65896e-05
3.74107e-08
2.63497e-05
3.31191e-07
2.6005e-05
1.24876e-06
2.57014e-05
1.55882e-06
2.52287e-05
2.45309e-06
2.47121e-05
2.66823e-06
2.40791e-05
3.41656e-06
2.35136e-05
3.41068e-06
2.30407e-05
4.00201e-06
2.28224e-05
3.7579e-06
2.28683e-05
4.17875e-06
2.31993e-05
3.63183e-06
2.38076e-05
3.7394e-06
2.45689e-05
2.82045e-06
2.55341e-05
2.42342e-06
2.64925e-05
1.06469e-06
2.74546e-05
1.58516e-07
2.83686e-05
-1.76272e-06
2.91423e-05
-2.92716e-06
2.97162e-05
-4.85755e-06
2.99927e-05
-5.69136e-06
2.9949e-05
-6.94361e-06
2.95966e-05
-7.03851e-06
2.91777e-05
-7.671e-06
2.8642e-05
-7.09581e-06
2.80818e-05
-6.79307e-06
2.73521e-05
-4.96392e-06
2.66306e-05
-3.61276e-06
2.5726e-05
-1.31937e-06
2.49137e-05
-4.06263e-07
2.42754e-05
9.69053e-07
2.41275e-05
9.98862e-07
2.42789e-05
1.89415e-06
2.47159e-05
1.73864e-06
2.49098e-05
2.69488e-06
2.4771e-05
2.60037e-06
2.39754e-05
3.55619e-06
2.27772e-05
3.30386e-06
2.13998e-05
4.10294e-06
2.0205e-05
3.60324e-06
1.93004e-05
4.4538e-06
1.88072e-05
3.78636e-06
1.85765e-05
4.64888e-06
1.86743e-05
3.68035e-06
1.89193e-05
4.36998e-06
1.93396e-05
3.10318e-06
1.9913e-05
3.52315e-06
2.04591e-05
2.09504e-06
2.12637e-05
2.26365e-06
2.18706e-05
8.00075e-07
2.27818e-05
7.8595e-07
2.33688e-05
-6.06469e-07
2.42137e-05
-7.02122e-07
2.46386e-05
-1.88035e-06
2.52512e-05
-1.93864e-06
2.54615e-05
-2.86914e-06
2.58e-05
-2.66063e-06
2.58148e-05
-3.34449e-06
2.59336e-05
-2.79484e-06
2.58076e-05
-3.20468e-06
2.58265e-05
-2.39821e-06
2.56288e-05
-2.54886e-06
2.55935e-05
-1.531e-06
2.53586e-05
-1.58392e-06
2.53116e-05
-3.85479e-07
2.50169e-05
-4.37678e-07
2.49454e-05
8.32246e-07
2.46007e-05
8.06941e-07
2.45796e-05
1.85178e-06
2.42886e-05
1.75783e-06
2.44235e-05
2.62338e-06
2.42903e-05
2.32907e-06
2.4644e-05
2.86239e-06
2.47674e-05
2.59967e-06
2.52761e-05
2.51644e-06
2.56411e-05
2.2225e-06
2.62563e-05
1.948e-06
2.67808e-05
1.1765e-06
2.73457e-05
7.46559e-07
2.79469e-05
-8.55175e-08
2.85037e-05