/*--------------------------------*- C++ -*----------------------------------*\
| =========                 |                                                 |
| \\      /  F ield         | OpenFOAM: The Open Source CFD Toolbox           |
|  \\    /   O peration     | Version:  2.4.0                                 |
|   \\  /    A nd           | Web:      www.OpenFOAM.org                      |
|    \\/     M anipulation  |                                                 |
\*---------------------------------------------------------------------------*/
FoamFile
{
    version     2.0;
    format      ascii;
    class       volScalarField;
    location    "0.36";
    object      k_0;
}
// * * * * * * * * * * * * * * * * * * * * * * * * * * * * * * * * * * * * * //

dimensions      [0 2 -2 0 0 0 0];

internalField   nonuniform List<scalar> 
8800
(
8.12379
10.2627
8.79927
6.81385
5.71673
4.9594
4.54018
4.12912
3.92761
3.65288
3.55357
3.35386
3.2998
3.14023
3.09768
2.96211
2.88999
2.78418
2.65532
2.5482
1.40692
4.34828
5.32285
5.28689
5.13376
4.79924
4.58903
4.27416
4.13047
3.87375
3.778
3.58199
3.52189
3.36691
3.32831
3.2094
3.16336
3.07208
2.99625
2.92958
0.0845501
0.72908
1.5659
1.93833
2.28452
2.43067
2.582
2.5967
2.62527
2.60033
2.58883
2.54037
2.52751
2.47317
2.46169
2.41811
2.40784
2.37508
2.36107
2.31961
0.00335985
0.0697571
0.258917
0.416241
0.588001
0.703342
0.835649
0.931474
1.02299
1.09296
1.16417
1.20512
1.2687
1.30407
1.33333
1.38265
1.40343
1.43658
1.48148
1.49573
0.000123373
0.00495467
0.0216406
0.0549273
0.0845644
0.12917
0.158151
0.211509
0.237225
0.288677
0.314254
0.360494
0.383843
0.436581
0.455916
0.506434
0.530922
0.581758
0.611496
0.684596
2.49905e-05
0.000310371
0.00141989
0.00451058
0.0071527
0.0133113
0.0175758
0.0274517
0.0326627
0.0444554
0.0507277
0.0642609
0.0708516
0.0882319
0.0949152
0.112571
0.122568
0.142763
0.154128
0.18877
2.14772e-05
4.40001e-05
0.000119562
0.000334623
0.000494689
0.000909695
0.00127193
0.00220235
0.00268393
0.00381144
0.0045765
0.00626368
0.00718237
0.0100289
0.0111714
0.0144377
0.0167339
0.0198672
0.0225983
0.0304099
2.10326e-05
2.97413e-05
5.04082e-05
8.8159e-05
9.15251e-05
0.000100263
0.000124388
0.000211097
0.000236859
0.000280693
0.000361053
0.000418267
0.000462427
0.000705313
0.000810678
0.00110577
0.00133804
0.00147589
0.00195235
0.00266685
2.09221e-05
2.99768e-05
3.68763e-05
6.06292e-05
7.59002e-05
7.44989e-05
7.39906e-05
8.03944e-05
8.75616e-05
9.05418e-05
9.38741e-05
9.37717e-05
9.43372e-05
0.000109391
0.00011726
0.000136577
0.000144746
0.000153538
0.000196119
0.000206176
2.06487e-05
2.65705e-05
4.33336e-05
6.89894e-05
6.90392e-05
6.35857e-05
6.08224e-05
6.43367e-05
7.79133e-05
8.43361e-05
8.61371e-05
8.39478e-05
7.83313e-05
7.88282e-05
7.95099e-05
8.1348e-05
8.47601e-05
8.94188e-05
9.27549e-05
9.41637e-05
2.058e-05
2.7682e-05
4.97651e-05
5.58165e-05
5.45649e-05
5.79285e-05
6.9961e-05
7.37247e-05
7.66377e-05
7.78061e-05
7.73809e-05
7.43814e-05
7.36566e-05
7.42308e-05
7.50215e-05
8.04326e-05
8.36733e-05
8.46522e-05
8.78153e-05
9.15004e-05
2.07135e-05
2.98984e-05
4.74171e-05
5.33994e-05
5.75444e-05
7.22328e-05
7.74171e-05
8.32865e-05
8.69149e-05
8.6797e-05
8.6764e-05
8.85313e-05
9.59668e-05
0.000102665
0.000105466
0.000117106
0.000127477
0.000151549
0.000163957
0.000199807
2.10139e-05
2.91259e-05
5.28004e-05
7.83971e-05
8.46233e-05
0.00010424
0.000126101
0.000189141
0.000227722
0.000305601
0.000339595
0.000437346
0.000490577
0.00062396
0.000721528
0.00099101
0.0011859
0.00160673
0.00180687
0.00245174
2.15656e-05
4.34089e-05
0.000156256
0.000294437
0.000414068
0.000846094
0.00124431
0.00219397
0.00280002
0.00408884
0.00470212
0.00635463
0.00724376
0.00935633
0.0106888
0.0140446
0.0160035
0.0202894
0.0224807
0.0290226
2.49628e-05
0.000307812
0.00198282
0.00387459
0.00623465
0.01324
0.0178918
0.0275892
0.0334926
0.0454381
0.0509361
0.0645183
0.0710738
0.0855647
0.0932045
0.112017
0.121424
0.142939
0.15356
0.183647
0.000122623
0.00493453
0.0272921
0.0492461
0.079694
0.132415
0.160502
0.207055
0.244419
0.290026
0.311647
0.361981
0.384567
0.431312
0.452999
0.506033
0.52922
0.58401
0.608818
0.675637
0.00336152
0.0697361
0.264715
0.408288
0.583506
0.713284
0.829834
0.927191
1.03269
1.09584
1.14921
1.22123
1.25603
1.30413
1.32936
1.38379
1.40163
1.44649
1.46496
1.50873
0.0845998
0.729298
1.56963
1.92901
2.28776
2.43389
2.57796
2.59542
2.62949
2.59767
2.58607
2.54162
2.526
2.47239
2.45964
2.41963
2.40802
2.37622
2.36469
2.33439
1.40687
4.3507
5.31963
5.28542
5.13449
4.79527
4.59444
4.27279
4.12937
3.87122
3.78072
3.57575
3.52163
3.36899
3.33214
3.20236
3.17581
3.05942
3.02382
2.92675
8.12195
10.2652
8.79278
6.81888
5.71638
4.95476
4.54454
4.12891
3.92638
3.64969
3.55928
3.34818
3.3041
3.13783
3.11159
2.94799
2.92131
2.75219
2.70166
2.5011
1.68689
1.14996
0.92182
0.808705
0.759456
0.728899
0.715058
0.687628
0.647491
0.604628
0.541621
0.47287
0.409437
0.348372
0.296099
0.250721
0.220049
0.195602
0.181721
0.181645
0.185887
0.194562
0.212757
0.226262
0.245292
0.260292
0.275458
0.286241
0.295098
0.301222
0.305507
0.3072
0.306469
0.303569
0.29755
0.289854
0.280579
0.266596
0.255112
0.24039
0.230828
0.224852
0.224893
0.22666
0.230665
0.241184
0.248693
0.267035
0.278423
0.298104
0.319354
0.333893
0.348754
0.352298
0.358684
0.363622
0.367215
0.375851
0.380445
0.388093
0.387563
0.385451
0.381231
0.37581
0.376754
0.379614
0.389055
0.395484
0.408052
0.407451
0.406732
0.402764
0.392193
0.375405
0.363347
0.333251
0.315236
0.295667
0.283516
0.270912
0.261586
0.252905
0.246932
0.242511
0.23352
0.226821
0.218699
0.210682
0.1999
0.184566
0.170138
0.149468
0.118022
0.0831683
0.0488879
0.0280456
0.0164776
0.0102642
0.00747248
0.00642805
0.00648742
0.00688678
0.00833601
0.0127103
0.0227889
0.0385569
0.0715713
0.102864
0.153463
0.200527
0.256804
0.356518
0.454635
0.478317
0.461336
0.425379
0.386155
0.349433
0.316817
0.290363
0.273499
0.257925
0.246145
0.238894
0.229896
0.218424
0.20821
0.191464
0.162074
0.124072
0.0868346
0.0664064
0.0573564
0.0495718
0.0453849
0.0420181
0.0367221
0.0264768
0.0199603
0.0172109
0.0157773
0.0149421
0.0143806
0.0133849
0.0130822
0.0130544
0.0132376
0.013893
0.0172242
0.0396083
0.094651
0.122537
0.127367
0.120191
0.0915252
0.0653824
0.0477322
0.0376316
0.0310887
0.0281649
0.0256744
0.0228557
0.0203908
0.0191789
0.0184163
0.018208
0.0176443
0.0176128
0.0174312
0.0175726
0.0182101
0.0190351
0.0214906
0.0235497
0.0252305
0.0284086
0.0334231
0.0453018
0.0830798
0.13473
0.17296
0.177031
0.180424
0.174622
0.161381
0.142544
0.13461
0.117943
0.107001
0.085435
0.0771692
0.0647905
0.0560579
0.0492631
0.0423737
0.0439324
0.0466654
0.0601093
0.203251
1.01943
2.46269
2.00044
1.66619
1.42683
1.26641
1.15199
1.06699
0.998781
0.94841
0.897273
0.861426
0.818826
0.780926
0.739948
0.701764
0.661764
0.623909
0.589645
0.559436
0.536117
0.521754
0.511648
0.508295
0.50492
0.504599
0.503816
0.503632
0.502864
0.501875
0.500418
0.497291
0.495357
0.49117
0.486825
0.482027
0.473666
0.469569
0.459923
0.452573
0.444585
0.433269
0.427768
0.420795
0.418523
0.413331
0.412913
0.409112
0.407768
0.405073
0.400361
0.397883
0.390731
0.387845
0.381582
0.374342
0.372067
0.362216
0.356123
0.342411
0.332461
0.317184
0.307977
0.298241
0.2954
0.294452
0.294773
0.295938
0.300427
0.30145
0.303541
0.304776
0.306604
0.30796
0.307285
0.305064
0.303438
0.301179
0.294881
0.288732
0.280577
0.272925
0.258727
0.249454
0.238316
0.221176
0.205385
0.187256
0.164683
0.1382
0.111245
0.0839654
0.0549843
0.0353139
0.0221933
0.0141977
0.00918872
0.00680446
0.00552665
0.00549372
0.00573019
0.00659376
0.00915036
0.0154633
0.0317206
0.0534422
0.0966041
0.146701
0.204477
0.268071
0.330734
0.46302
0.556357
0.552447
0.521661
0.461407
0.389081
0.331414
0.278848
0.243167
0.221935
0.20825
0.198663
0.198965
0.20128
0.206713
0.207037
0.204916
0.196727
0.185308
0.160957
0.122923
0.0921694
0.0686571
0.054792
0.0503113
0.0500441
0.0457996
0.0342734
0.0259125
0.0221578
0.0195245
0.016864
0.0146904
0.0133029
0.0130901
0.0130781
0.0133925
0.013975
0.0165101
0.029627
0.0799282
0.116898
0.125313
0.122453
0.0997383
0.0697321
0.0503922
0.0392195
0.0322856
0.0291251
0.0266999
0.0241308
0.0217137
0.0199323
0.0191738
0.0184123
0.0178566
0.0175337
0.0176206
0.0178188
0.018272
0.0192062
0.021633
0.0234407
0.0268499
0.0294643
0.0361736
0.0538757
0.105535
0.165918
0.186003
0.191035
0.188855
0.177108
0.167944
0.145436
0.134615
0.116241
0.103664
0.0891412
0.0745563
0.0688075
0.0561976
0.0525739
0.0437031
0.0407198
0.0482262
0.0587768
0.152083
0.502522
2.07431
1.81745
1.60008
1.42533
1.2962
1.18998
1.10772
1.0387
0.981054
0.932728
0.887004
0.853893
0.817232
0.790565
0.761523
0.737705
0.713459
0.690447
0.671062
0.648928
0.635932
0.617564
0.60958
0.595868
0.589541
0.58029
0.572134
0.56911
0.559997
0.556781
0.551062
0.545381
0.542299
0.533306
0.530127
0.524196
0.51802
0.513944
0.504919
0.500462
0.49159
0.484847
0.476534
0.467184
0.459346
0.449142
0.438402
0.426299
0.418868
0.401956
0.389258
0.378802
0.35636
0.344543
0.322719
0.305308
0.283444
0.262056
0.243679
0.223233
0.208373
0.189692
0.177728
0.169908
0.158564
0.155389
0.154045
0.154603
0.156028
0.160787
0.162224
0.164141
0.167428
0.167606
0.167416
0.166223
0.162881
0.159219
0.155353
0.146233
0.138267
0.12889
0.117584
0.103264
0.0896966
0.0750331
0.0604183
0.0474439
0.0361611
0.0268871
0.0194643
0.0139301
0.00989569
0.00713724
0.00556907
0.00457315
0.00445399
0.00461927
0.00518776
0.00688877
0.0113158
0.0207157
0.0406083
0.0777542
0.130547
0.199377
0.267511
0.336872
0.398961
0.546733
0.631361
0.620147
0.574683
0.482287
0.375509
0.286761
0.221393
0.172714
0.148499
0.136448
0.1288
0.129195
0.133681
0.141884
0.157234
0.178171
0.189156
0.189188
0.185008
0.175135
0.15089
0.114321
0.0840737
0.0665685
0.0614013
0.0569718
0.0474434
0.0404442
0.0344943
0.0280959
0.0220294
0.0175355
0.0146262
0.0131989
0.0130906
0.0131564
0.0135793
0.0142135
0.0166661
0.0276636
0.071118
0.109292
0.122064
0.122273
0.109214
0.077845
0.0562177
0.0428157
0.0345175
0.0304693
0.027615
0.0250194
0.0229435
0.0212383
0.020494
0.0189143
0.0186217
0.0181374
0.0182408
0.0182264
0.0188223
0.0196607
0.0225962
0.0241616
0.0272055
0.0308199
0.0393731
0.0720546
0.134902
0.193274
0.19541
0.200148
0.187568
0.182803
0.160533
0.147107
0.129005
0.118137
0.105646
0.0976655
0.0802348
0.0699058
0.0581804
0.0498252
0.0490995
0.0454637
0.0884344
0.0740736
0.118089
0.2804
1.394
1.27435
1.15464
1.05976
0.980417
0.920178
0.867594
0.827134
0.78512
0.757726
0.723138
0.700888
0.676452
0.654807
0.638625
0.616573
0.604232
0.582845
0.568971
0.551509
0.535228
0.522434
0.506692
0.498312
0.48488
0.478529
0.467563
0.46341
0.45507
0.451178
0.446315
0.440424
0.43852
0.431554
0.428861
0.423109
0.418781
0.4134
0.40719
0.399662
0.394576
0.38262
0.376559
0.363111
0.355581
0.339342
0.330088
0.311861
0.296992
0.283778
0.257592
0.244644
0.22178
0.198948
0.182066
0.155085
0.139776
0.117688
0.103842
0.0887057
0.0783622
0.0692333
0.0616562
0.0568738
0.0524652
0.049909
0.048429
0.0484255
0.0487716
0.0502915
0.0511805
0.0531807
0.0550105
0.0552521
0.0555614
0.055186
0.053918
0.0518766
0.0498629
0.0456763
0.0416315
0.0373718
0.0326791
0.0280237
0.0236552
0.019448
0.015709
0.0124773
0.00982074
0.00768656
0.00602591
0.00483157
0.00399402
0.00351057
0.00349963
0.00365044
0.00406335
0.00520407
0.0082698
0.0150273
0.0302241
0.0556882
0.108153
0.17979
0.262025
0.339868
0.401222
0.447393
0.586521
0.68441
0.672128
0.626566
0.519767
0.374918
0.246913
0.170297
0.133483
0.114171
0.105182
0.10081
0.0992716
0.0991219
0.0998599
0.103264
0.113643
0.131831
0.154665
0.17264
0.176645
0.173107
0.162768
0.132214
0.0965578
0.0783012
0.0689162
0.0583159
0.0501523
0.0478389
0.0421379
0.0313321
0.023757
0.0184294
0.0148345
0.0132636
0.0131204
0.0132991
0.0137928
0.0148547
0.0175872
0.0283955
0.0701062
0.104865
0.11975
0.121892
0.115797
0.0876981
0.0620742
0.0467338
0.0375897
0.0320695
0.029028
0.0261231
0.024593
0.0228225
0.021818
0.0201819
0.019582
0.0189337
0.0189212
0.0190611
0.0195322
0.0212679
0.023764
0.0259148
0.0287704
0.0338265
0.045544
0.0960535
0.173616
0.205863
0.208902
0.200225
0.179348
0.165343
0.152462
0.138986
0.121334
0.106267
0.097486
0.0896388
0.0846879
0.0734292
0.0753992
0.0631916
0.0803104
0.0679579
0.0998139
0.0927014
0.100096
0.169474
0.656254
0.623389
0.570303
0.536069
0.500079
0.473665
0.4569
0.440783
0.43189
0.42097
0.413617
0.40116
0.394827
0.382034
0.3763
0.366442
0.35911
0.35326
0.342103
0.336083
0.326003
0.314533
0.308266
0.295733
0.289382
0.2804
0.27391
0.268266
0.263351
0.258708
0.256866
0.252983
0.250189
0.248675
0.244543
0.242087
0.237568
0.232004
0.228839
0.222374
0.2152
0.210685
0.2005
0.193589
0.18578
0.171032
0.163584
0.149859
0.135281
0.125816
0.106208
0.0979034
0.0826517
0.0718368
0.0625161
0.0522737
0.0458049
0.0383602
0.0334855
0.0287686
0.0248488
0.0221239
0.0192241
0.0173235
0.0158872
0.0146304
0.0137901
0.0133118
0.0132129
0.0133939
0.0135587
0.0138661
0.0144892
0.0147619
0.0149301
0.0148941
0.0147134
0.0142805
0.0135522
0.0126621
0.0114639
0.0102026
0.00888845
0.00763059
0.00642984
0.00528773
0.00443009
0.00368814
0.00311771
0.002722
0.00251381
0.00243452
0.00252203
0.00275444
0.00318287
0.00411083
0.00622149
0.0110273
0.0218963
0.0406765
0.0794586
0.147066
0.245603
0.342173
0.395017
0.435012
0.46671
0.550724
0.711432
0.705112
0.665977
0.582447
0.388568
0.227663
0.152796
0.119348
0.101813
0.09472
0.0904187
0.0894884
0.0908918
0.0923365
0.0931144
0.0934166
0.0974844
0.107582
0.122829
0.142525
0.159616
0.164912
0.16059
0.143128
0.110882
0.0884907
0.072416
0.0608159
0.0569691
0.053458
0.0432754
0.0345182
0.0269598
0.0212149
0.0160414
0.0140072
0.0134641
0.0139142
0.0144515
0.0163766
0.020271
0.0333942
0.0730482
0.104461
0.119886
0.122509
0.120171
0.100944
0.0717613
0.0522881
0.0407043
0.0339052
0.0299862
0.0271789
0.025408
0.0241103
0.0228178
0.0214918
0.0201939
0.020108
0.020076
0.0202303
0.0209695
0.0228233
0.0262205
0.0281763
0.0333694
0.0388896
0.0586024
0.15248
0.212785
0.234866
0.222985
0.194853
0.178567
0.152883
0.150854
0.139637
0.144223
0.126793
0.126807
0.103922
0.11014
0.089555
0.107944
0.0840789
0.103307
0.0863163
0.0902132
0.0994852
0.103664
0.130229
0.185389
0.181068
0.171238
0.163558
0.154863
0.14745
0.144139
0.141688
0.142074
0.142771
0.144379
0.144853
0.144757
0.143342
0.140893
0.138729
0.136856
0.135275
0.13327
0.132126
0.129925
0.128218
0.124878
0.120798
0.117944
0.111968
0.109569
0.105159
0.10248
0.100161
0.0971817
0.0964193
0.0946506
0.0939162
0.0918642
0.0904183
0.089583
0.0868222
0.0848177
0.0823168
0.0784689
0.0762031
0.0709068
0.0669999
0.0634261
0.0569173
0.0538389
0.0476972
0.0428799
0.0383808
0.0329072
0.0291008
0.0246275
0.0211841
0.0180312
0.0152137
0.0130799
0.0110399
0.00952466
0.00825448
0.00705333
0.00626332
0.00544085
0.00475948
0.00433928
0.00392674
0.00362312
0.00346341
0.00339289
0.00340271
0.00348749
0.00357216
0.00370069
0.00389508
0.00400507
0.00403309
0.00402099
0.00395997
0.00378114
0.00359848
0.00323555
0.00286801
0.0024732
0.00212825
0.00180128
0.00157459
0.00142521
0.00136003
0.00138108
0.00151775
0.00175402
0.00197915
0.00240259
0.0033371
0.0051384
0.00890229
0.0158851
0.0304752
0.0572051
0.105779
0.206265
0.33337
0.395104
0.42586
0.449519
0.467921
0.508749
0.691464
0.723673
0.657847
0.62385
0.45775
0.265443
0.161836
0.11778
0.0983016
0.0886859
0.0863224
0.0836244
0.0836187
0.0847506
0.0881543
0.0907299
0.0921144
0.0956582
0.103791
0.114606
0.128306
0.142678
0.151495
0.153002
0.145326
0.118788
0.0940075
0.0758372
0.0679335
0.0622392
0.0553289
0.0450118
0.0388726
0.0333449
0.0258521
0.0188054
0.0152066
0.014351
0.0148032
0.0153451
0.0174825
0.0239085
0.0424407
0.0801647
0.105798
0.121679
0.124418
0.123462
0.112834
0.0831247
0.0611016
0.046569
0.0376905
0.0320926
0.0286031
0.0267998
0.0256376
0.0242566
0.0227068
0.0217141
0.0214556
0.0214371
0.0215711
0.0229751
0.0249941
0.0275934
0.0298665
0.0352097
0.0435802
0.0810706
0.196936
0.233079
0.248548
0.218883
0.201538
0.163998
0.153571
0.148935
0.138258
0.157979
0.143188
0.194588
0.162516
0.196433
0.156337
0.213497
0.163386
0.184021
0.142628
0.121973
0.115242
0.10919
0.118335
0.0302279
0.0299718
0.0292094
0.0286448
0.0275184
0.0263417
0.0261613
0.0261851
0.0267529
0.0276071
0.0294451
0.0310654
0.0321016
0.0327067
0.0326305
0.0324869
0.0321091
0.0314648
0.0314077
0.0313493
0.0315427
0.0315537
0.0313743
0.0311603
0.0306014
0.029381
0.0284691
0.0267131
0.0259299
0.0249514
0.0242712
0.0241029
0.0237056
0.0236361
0.0235229
0.0232619
0.0230685
0.0225796
0.0218561
0.0212538
0.0198411
0.0190414
0.0177739
0.0164046
0.0154777
0.0139866
0.012861
0.0116538
0.0102458
0.00911072
0.00782444
0.00671322
0.00574365
0.00483197
0.00415389
0.00350563
0.00301823
0.00260835
0.00222186
0.00196539
0.00167767
0.00148184
0.00130933
0.00114023
0.00104806
0.000960206
0.000891903
0.000857316
0.000838881
0.000837634
0.000847643
0.000871576
0.00089365
0.000923452
0.000976482
0.00100122
0.00100709
0.00100587
0.000994105
0.000952457
0.000895034
0.000849876
0.000762523
0.000744361
0.000753194
0.00077883
0.000862989
0.000978587
0.00114341
0.00150699
0.00209799
0.00293706
0.00470183
0.00815834
0.0137344
0.0251244
0.0420792
0.0780152
0.143768
0.283296
0.406154
0.440019
0.442972
0.449515
0.463757
0.473361
0.564342
0.737497
0.612396
0.636582
0.591254
0.40039
0.21585
0.131376
0.101355
0.0883793
0.0835769
0.0833896
0.0817245
0.0824608
0.0834096
0.083625
0.0846326
0.0884534
0.0947218
0.106592
0.115074
0.126193
0.13632
0.142298
0.14421
0.141689
0.124021
0.0980219
0.0797765
0.0718338
0.0633809
0.0543975
0.0488172
0.0420206
0.0362015
0.0274321
0.0211094
0.0167651
0.0160305
0.016135
0.0168318
0.0190732
0.0250493
0.0441047
0.0848736
0.112554
0.128067
0.129686
0.12832
0.12025
0.0934892
0.0685147
0.052887
0.0416749
0.0355565
0.030577
0.0286111
0.0270386
0.0255672
0.0237022
0.0227207
0.0224465
0.0225265
0.0229729
0.0246749
0.0265645
0.0290839
0.0317863
0.038033
0.0508372
0.128586
0.216885
0.247871
0.248691
0.200748
0.172362
0.149507
0.165911
0.156079
0.159899
0.163992
0.160887
0.175905
0.16703
0.173977
0.164654
0.191915
0.196221
0.233666
0.213818
0.215286
0.181148
0.155114
0.132417
0.00263222
0.00259741
0.00253713
0.00249603
0.00240901
0.0023253
0.00230507
0.00231234
0.00245237
0.00264955
0.00314612
0.00373084
0.00414223
0.00441807
0.00439702
0.00433132
0.00410707
0.00378241
0.00361694
0.00352265
0.00364785
0.00396148
0.0041826
0.00431253
0.00433068
0.00429068
0.00403633
0.00372377
0.0034917
0.00334887
0.00330132
0.0033046
0.00335497
0.00337785
0.00339233
0.00338236
0.00332553
0.0032171
0.00301002
0.00291686
0.00273197
0.00261426
0.00248089
0.0023086
0.00222817
0.00204146
0.00191516
0.00172907
0.00152721
0.00138186
0.00116136
0.00104722
0.000884861
0.000795959
0.00070805
0.000629293
0.00058566
0.000517811
0.000492171
0.000451529
0.000430924
0.000423443
0.000413519
0.000410895
0.000410665
0.000406826
0.00040539
0.000404909
0.000401272
0.000400474
0.000399314
0.000399867
0.000401201
0.000403714
0.000415227
0.000421844
0.000433887
0.000451344
0.000469741
0.000487075
0.000502844
0.000536583
0.000567861
0.000645077
0.00072768
0.000876937
0.00122026
0.00159032
0.00222643
0.00348319
0.00541948
0.00808275
0.0136945
0.0219565
0.0385477
0.0615171
0.103242
0.187282
0.384273
0.486478
0.485296
0.465667
0.429812
0.411861
0.396513
0.428011
0.608223
0.534331
0.586933
0.629465
0.585285
0.381915
0.191933
0.116003
0.0889555
0.0808367
0.0808873
0.0810205
0.081292
0.0845416
0.0840494
0.0847878
0.0854996
0.0911848
0.0972731
0.11202
0.118246
0.127515
0.130144
0.135348
0.136938
0.136951
0.123266
0.0981337
0.0811907
0.071482
0.0627637
0.0529878
0.0500255
0.0429132
0.0364935
0.0283272
0.0219032
0.0182498
0.0174306
0.017402
0.0183053
0.0206095
0.0253336
0.0420883
0.0795135
0.117595
0.136766
0.142475
0.140741
0.133768
0.109177
0.0796028
0.0613858
0.0479404
0.0396262
0.0334856
0.0304662
0.0287359
0.0268882
0.0254484
0.0247672
0.0246908
0.0248706
0.0253694
0.0271429
0.0293609
0.0331663
0.0367891
0.0475992
0.0717014
0.192892
0.275303
0.28159
0.263358
0.192656
0.149129
0.133894
0.150556
0.14032
0.143952
0.155847
0.158158
0.163259
0.165309
0.180088
0.177142
0.182389
0.20193
0.225993
0.232787
0.238659
0.237824
0.235146
0.204506
0.000201379
0.000194351
0.000194088
0.000193869
0.000199049
0.000203495
0.000206621
0.000209818
0.000216068
0.000234966
0.000306941
0.000390301
0.000455765
0.000487399
0.000483955
0.000444749
0.000364089
0.000297878
0.000257034
0.000237908
0.000237778
0.000284953
0.000345622
0.000388038
0.000405456
0.000405483
0.00038512
0.000352614
0.000334409
0.000326119
0.000324971
0.000329145
0.000334013
0.000334625
0.000333771
0.000319938
0.0002985
0.000280442
0.000262713
0.000253105
0.000247886
0.000244271
0.00024341
0.000241476
0.000239401
0.000236262
0.00022629
0.000216175
0.000204935
0.00020089
0.000202093
0.000204624
0.000210475
0.000224744
0.000236761
0.000244848
0.000261713
0.000273049
0.000291751
0.000318821
0.000332402
0.000372143
0.000397412
0.000426776
0.000465471
0.000486223
0.000525322
0.000544511
0.000549863
0.000550416
0.000548587
0.000540013
0.000536337
0.000534661
0.000537592
0.000546888
0.000567256
0.000595578
0.000656793
0.000742597
0.000821741
0.00101808
0.00119017
0.00154795
0.00189004
0.00261684
0.00359023
0.00476234
0.00720685
0.0101034
0.0152293
0.0237618
0.0345308
0.057768
0.0916444
0.142408
0.244962
0.481493
0.559534
0.545408
0.483387
0.339765
0.262134
0.254079
0.271936
0.398639
0.510281
0.473992
0.594997
0.629777
0.599956
0.383775
0.18498
0.110606
0.0843195
0.0774446
0.0762436
0.0758241
0.0782683
0.082231
0.0820226
0.0875836
0.0886634
0.102737
0.107899
0.127594
0.127061
0.129224
0.126732
0.128733
0.131546
0.133161
0.120954
0.096736
0.0847849
0.0698904
0.0620633
0.0516502
0.0499514
0.0442726
0.0367793
0.0291346
0.0231948
0.0197307
0.0188508
0.0188945
0.0197924
0.0217243
0.0252459
0.0339489
0.0615752
0.108081
0.133907
0.147293
0.147934
0.145057
0.132301
0.0984497
0.0728082
0.0577409
0.0464483
0.03946
0.034871
0.0323296
0.0303501
0.0287312
0.0277128
0.0272868
0.027493
0.0279961
0.031043
0.0340124
0.0385723
0.0437857
0.0585076
0.120316
0.265588
0.310439
0.30238
0.259293
0.174501
0.134355
0.118295
0.119579
0.11551
0.120247
0.116543
0.138133
0.136365
0.149456
0.170653
0.178299
0.215469
0.23235
0.265379
0.277125
0.274193
0.258612
0.247532
0.240342
9.60033e-05
9.68271e-05
9.85522e-05
9.89122e-05
9.94864e-05
9.9687e-05
9.99582e-05
9.99947e-05
0.00010057
0.000103261
0.000109219
0.000115687
0.000121063
0.000122092
0.000121177
0.000116159
0.000110373
0.00010594
0.000103082
0.000101141
0.000100453
0.000101732
0.000107309
0.000111315
0.000113753
0.000114016
0.000113357
0.000112497
0.000112147
0.000110346
0.000108903
0.000107708
0.000107598
0.000107824
0.000109189
0.000109263
0.000108493
0.000107905
0.000107441
0.000107652
0.000109002
0.00011023
0.000115637
0.00011866
0.000124565
0.000128759
0.000136708
0.00014511
0.000151515
0.000171722
0.000192761
0.000216295
0.000269343
0.000304961
0.00039371
0.000452414
0.000557457
0.000657337
0.000760846
0.000937201
0.001018
0.00119622
0.00131037
0.00143752
0.00158623
0.0016766
0.00181396
0.00188549
0.00190141
0.0018993
0.00188591
0.00184798
0.00181738
0.00181729
0.00182326
0.00185252
0.00192249
0.00201268
0.00222494
0.00241854
0.00276446
0.00332961
0.00384746
0.00490302
0.00594272
0.00824978
0.0103176
0.0147647
0.0199002
0.0269218
0.0421224
0.0570634
0.0869913
0.139022
0.199896
0.317675
0.566752
0.633695
0.600977
0.469532
0.245599
0.163262
0.16273
0.185432
0.242737
0.396673
0.424557
0.493528
0.579153
0.649295
0.671441
0.483006
0.210236
0.111807
0.0832994
0.07621
0.0748507
0.0748978
0.0771607
0.0796618
0.082313
0.0899715
0.0970623
0.117881
0.119996
0.138596
0.127957
0.12785
0.124075
0.127725
0.13084
0.129737
0.118071
0.0934715
0.0876183
0.0702085
0.062134
0.0520781
0.0508808
0.0471279
0.0394572
0.0325742
0.0255731
0.0225918
0.0219465
0.022137
0.0225707
0.0237218
0.0261134
0.0304273
0.0412245
0.0760664
0.12047
0.142097
0.150076
0.149988
0.14558
0.123456
0.0919617
0.0723118
0.0559815
0.0466701
0.0401558
0.0368887
0.033609
0.0316112
0.0303955
0.0303986
0.0308264
0.0321529
0.0378197
0.040924
0.0462075
0.0547509
0.0810203
0.218712
0.327519
0.350073
0.314634
0.219428
0.153141
0.127237
0.107952
0.111387
0.116726
0.115133
0.116426
0.119783
0.126425
0.145279
0.170743
0.184433
0.220896
0.268762
0.275673
0.286138
0.290598
0.275205
0.250749
0.241592
9.1293e-05
9.15814e-05
9.32656e-05
9.6162e-05
9.8361e-05
9.85773e-05
9.88322e-05
9.77554e-05
9.62075e-05
9.56276e-05
9.60098e-05
9.89058e-05
0.000100754
0.000100916
9.94815e-05
9.63587e-05
9.4988e-05
9.50239e-05
9.71676e-05
0.000100479
0.000102555
0.000104008
0.000105675
0.000106515
0.000108201
0.000108549
0.000108317
0.000107114
0.000105224
0.000104876
0.000104981
0.000107269
0.000111435
0.000114122
0.00012005
0.000124466
0.000133462
0.000139802
0.000150322
0.000167338
0.000177702
0.000199484
0.00022146
0.000262413
0.000298716
0.000334073
0.000420987
0.000489381
0.000553964
0.000719675
0.000832369
0.00104695
0.00127131
0.00148452
0.00191471
0.00215438
0.00256978
0.00301021
0.00334128
0.00393364
0.00429849
0.00474183
0.00521508
0.00551633
0.00589598
0.00610969
0.00635292
0.00647668
0.00647419
0.00644639
0.00638654
0.0063112
0.00616144
0.00615843
0.00616768
0.00624185
0.00640974
0.00668147
0.00725456
0.00775898
0.00887039
0.00986366
0.0120188
0.0141385
0.0175687
0.0227915
0.0281749
0.0396864
0.050444
0.0731978
0.0996726
0.133504
0.214105
0.279661
0.405158
0.620266
0.708353
0.656901
0.418308
0.220501
0.132285
0.112852
0.123547
0.17588
0.269003
0.386183
0.386303
0.487214
0.562238
0.681765
0.73912
0.605378
0.27379
0.131402
0.0865042
0.0761265
0.0745094
0.0747718
0.0772666
0.0819784
0.0912342
0.0992082
0.116205
0.131537
0.134758
0.135432
0.128973
0.123541
0.125583
0.126439
0.128144
0.114898
0.111157
0.0932793
0.0951681
0.0745145
0.0650836
0.0565007
0.0555848
0.0552781
0.0463619
0.0358427
0.0286769
0.0264919
0.0259505
0.0263693
0.0273787
0.0282849
0.0292297
0.0312625
0.0357621
0.0460709
0.0841093
0.125807
0.145403
0.149525
0.148088
0.139467
0.110973
0.090153
0.0713443
0.0593699
0.0501986
0.0444212
0.0394574
0.0369791
0.0359196
0.0360929
0.0370546
0.0403656
0.0463451
0.0500161
0.0575242
0.0711847
0.140399
0.332442
0.387824
0.384189
0.298478
0.179992
0.122477
0.104948
0.10519
0.103792
0.122393
0.118991
0.125393
0.124372
0.129372
0.151462
0.180417
0.191605
0.234797
0.266212
0.265137
0.268038
0.294306
0.292443
0.265916
0.238972
0.000200942
0.000201487
0.000205244
0.000206221
0.000207754
0.000208291
0.000210822
0.000215598
0.000216069
0.000215737
0.000213801
0.000208573
0.000206869
0.000205631
0.00020297
0.000202857
0.000202218
0.000206466
0.000222914
0.000250324
0.000284752
0.00030948
0.00033996
0.000353081
0.00036034
0.000362833
0.000359228
0.000360892
0.000361115
0.000364161
0.00038416
0.000395705
0.000436661
0.000473079
0.000528486
0.000614823
0.000699516
0.000809792
0.000906993
0.00108751
0.00119134
0.001383
0.00154943
0.00176337
0.00201075
0.00218368
0.00261156
0.00294321
0.00340073
0.00412544
0.00458732
0.0056324
0.00641942
0.00726622
0.00863772
0.00936084
0.0107777
0.0118966
0.0130545
0.0144644
0.0155357
0.0165238
0.0177301
0.0182348
0.0188998
0.0194602
0.0195933
0.0196126
0.01949
0.0192743
0.018932
0.0186955
0.0182675
0.0182134
0.0182554
0.018421
0.0188327
0.0198143
0.0208039
0.0227457
0.0253905
0.0278815
0.0337933
0.0384012
0.0490036
0.0582445
0.0756851
0.0955714
0.125882
0.175004
0.221393
0.321268
0.408021
0.484199
0.622667
0.74111
0.665536
0.38911
0.223133
0.13493
0.0967061
0.0944777
0.116306
0.198327
0.273649
0.346481
0.361804
0.449406
0.463641
0.686003
0.842492
0.809607
0.42044
0.18036
0.100682
0.0792517
0.0753286
0.075315
0.0791878
0.0877021
0.099679
0.113926
0.126539
0.130557
0.131307
0.126685
0.127091
0.121351
0.126338
0.116861
0.121243
0.102884
0.111797
0.0993385
0.0975459
0.0733955
0.0641466
0.0632046
0.0622606
0.0608552
0.0465599
0.0359725
0.0302806
0.0294174
0.0306273
0.0346051
0.0375922
0.0389772
0.0387328
0.0375088
0.0382852
0.041878
0.055124
0.092536
0.126067
0.143542
0.145325
0.142455
0.132518
0.108649
0.0844985
0.0704305
0.0623543
0.0538372
0.0475327
0.0443189
0.0436825
0.0441739
0.0458369
0.052922
0.0579722
0.0630302
0.0759009
0.101823
0.281354
0.42854
0.439561
0.402385
0.250775
0.128125
0.102609
0.0973168
0.111576
0.108652
0.126131
0.131192
0.134965
0.134183
0.148284
0.181242
0.189293
0.194315
0.22695
0.237386
0.242409
0.247348
0.294135
0.332273
0.324563
0.274735
0.00258312
0.00257784
0.00257417
0.00255807
0.0025274
0.00250881
0.00246267
0.0024554
0.00244702
0.00245066
0.00248919
0.00249736
0.00255238
0.00258623
0.00262479
0.00270574
0.00273901
0.00286774
0.00297335
0.00318068
0.00339245
0.00351795
0.00368401
0.00374035
0.00380716
0.00385122
0.00386913
0.00392773
0.00397617
0.00405837
0.0042379
0.00436714
0.00471667
0.00493778
0.00535591
0.00589085
0.00630302
0.00705765
0.00747443
0.00822554
0.00866656
0.00949821
0.0100074
0.0107897
0.0118177
0.0124774
0.0140942
0.0151855
0.0170705
0.0190484
0.0206281
0.0238154
0.025578
0.0282903
0.0314559
0.0335259
0.0371593
0.0394607
0.0425514
0.0451312
0.047318
0.049634
0.0510985
0.0522474
0.0533057
0.0536318
0.0534031
0.0531258
0.05243
0.0512956
0.0505337
0.0495993
0.0488837
0.0488711
0.0491719
0.0497521
0.0509798
0.0534519
0.0566189
0.060142
0.0685692
0.0746575
0.0868655
0.0994565
0.121587
0.145301
0.178297
0.22367
0.291165
0.365625
0.448776
0.500039
0.528991
0.597988
0.690291
0.614903
0.354012
0.254431
0.171834
0.107064
0.0847738
0.0853296
0.11526
0.192588
0.263037
0.312711
0.338447
0.364587
0.298112
0.580294
0.879846
1.01697
0.704499
0.28865
0.136265
0.0906324
0.0801693
0.078921
0.0821795
0.0904282
0.100948
0.112255
0.117969
0.121221
0.123426
0.122266
0.123068
0.119658
0.12225
0.113359
0.118472
0.102751
0.112233
0.0981481
0.0851155
0.0694986
0.0642161
0.0714987
0.0701875
0.0619919
0.0437604
0.0356094
0.0332206
0.0345718
0.0423336
0.0544872
0.0622406
0.0640804
0.0617835
0.053717
0.0490944
0.0492541
0.0536876
0.0671538
0.0983984
0.126825
0.138865
0.139717
0.137809
0.128523
0.108288
0.0913013
0.0774068
0.0667113
0.060712
0.0587791
0.0586416
0.0597561
0.0629887
0.0693315
0.0731193
0.0819806
0.109053