/*--------------------------------*- C++ -*----------------------------------*\
| =========                 |                                                 |
| \\      /  F ield         | OpenFOAM: The Open Source CFD Toolbox           |
|  \\    /   O peration     | Version:  2.4.0                                 |
|   \\  /    A nd           | Web:      www.OpenFOAM.org                      |
|    \\/     M anipulation  |                                                 |
\*---------------------------------------------------------------------------*/
FoamFile
{
    version     2.0;
    format      ascii;
    class       surfaceScalarField;
    location    "0.36";
    object      phi;
}
// * * * * * * * * * * * * * * * * * * * * * * * * * * * * * * * * * * * * * //

dimensions      [0 3 -1 0 0 0 0];

internalField   nonuniform List<scalar> 
17320
(
1.76363e-05
7.36371e-06
1.16144e-05
6.02194e-06
8.68264e-06
2.93171e-06
7.35619e-06
1.32645e-06
6.71877e-06
6.37425e-07
6.34079e-06
3.77977e-07
6.08119e-06
2.59594e-07
5.86454e-06
2.16658e-07
5.71031e-06
1.54231e-07
5.57632e-06
1.33991e-07
5.48168e-06
9.4635e-08
5.37131e-06
1.10374e-07
5.31361e-06
5.76925e-08
5.19636e-06
1.17253e-07
5.12072e-06
7.56376e-08
5.02852e-06
9.21985e-08
4.89494e-06
1.33589e-07
4.77175e-06
1.2319e-07
4.61047e-06
1.61279e-07
-5.59621e-08
4.66643e-06
2.54551e-05
6.90866e-06
2.3244e-05
8.23295e-06
2.0989e-05
5.18679e-06
1.93191e-05
2.99627e-06
1.80764e-05
1.88018e-06
1.71119e-05
1.34241e-06
1.63678e-05
1.00372e-06
1.57671e-05
8.17348e-07
1.53118e-05
6.09575e-07
1.49276e-05
5.18159e-07
1.46346e-05
3.87614e-07
1.43545e-05
3.90561e-07
1.41545e-05
2.57641e-07
1.38953e-05
3.76484e-07
1.37185e-05
2.5246e-07
1.34775e-05
3.33125e-07
1.32364e-05
3.74704e-07
1.29584e-05
4.01207e-07
1.27672e-05
3.52435e-07
2.58532e-07
1.24527e-05
2.6611e-05
5.29771e-06
2.71536e-05
7.69031e-06
2.67801e-05
5.56028e-06
2.62505e-05
3.52589e-06
2.56046e-05
2.52605e-06
2.48758e-05
2.07122e-06
2.41612e-05
1.71834e-06
2.34945e-05
1.48398e-06
2.29393e-05
1.16482e-06
2.24379e-05
1.0196e-06
2.20341e-05
7.91393e-07
2.16602e-05
7.64468e-07
2.1366e-05
5.51761e-07
2.10247e-05
7.17857e-07
2.07943e-05
4.8282e-07
2.04671e-05
6.60383e-07
2.0188e-05
6.53786e-07
1.98065e-05
7.82716e-07
1.96115e-05
5.47405e-07
9.13563e-07
1.89565e-05
2.63117e-05
3.98597e-06
2.75335e-05
6.46854e-06
2.8082e-05
5.01179e-06
2.84549e-05
3.153e-06
2.86491e-05
2.33181e-06
2.86289e-05
2.09148e-06
2.84809e-05
1.86627e-06
2.82181e-05
1.74685e-06
2.79766e-05
1.40628e-06
2.76843e-05
1.31194e-06
2.74244e-05
1.05127e-06
2.7159e-05
1.02985e-06
2.69333e-05
7.77451e-07
2.6622e-05
1.02922e-06
2.64516e-05
6.53167e-07
2.61217e-05
9.90304e-07
2.58902e-05
8.85239e-07
2.55013e-05
1.17164e-06
2.50909e-05
9.57823e-07
1.85038e-06
2.41541e-05
2.6044e-05
2.94197e-06
2.72283e-05
5.28422e-06
2.803e-05
4.21008e-06
2.85002e-05
2.68279e-06
2.8996e-05
1.83605e-06
2.93418e-05
1.7457e-06
2.95994e-05
1.60865e-06
2.97183e-05
1.6279e-06
2.98455e-05
1.27913e-06
2.99029e-05
1.25455e-06
2.99334e-05
1.02079e-06
2.99543e-05
1.00893e-06
2.99914e-05
7.40302e-07
2.98788e-05
1.14185e-06
2.99076e-05
6.24343e-07
2.97862e-05
1.11173e-06
2.96292e-05
1.04225e-06
2.96608e-05
1.14002e-06
2.95767e-05
1.04197e-06
1.57549e-06
2.98516e-05
2.58534e-05
2.08858e-06
2.69508e-05
4.18683e-06
2.77951e-05
3.36582e-06
2.81925e-05
2.28529e-06
2.87037e-05
1.32493e-06
2.91473e-05
1.30206e-06
2.95044e-05
1.25156e-06
2.97145e-05
1.41779e-06
2.99553e-05
1.03834e-06
3.01873e-05
1.02256e-06
3.03404e-05
8.67691e-07
3.05224e-05
8.26945e-07
3.07392e-05
5.23509e-07
3.08309e-05
1.05015e-06
3.09803e-05
4.7486e-07
3.11218e-05
9.7023e-07
3.11286e-05
1.03547e-06
3.14612e-05
8.07385e-07
3.15002e-05
1.00301e-06
1.23424e-06
3.18415e-05
2.56565e-05
1.43212e-06
2.67443e-05
3.09901e-06
2.76637e-05
2.44636e-06
2.80511e-05
1.89796e-06
2.8397e-05
9.78981e-07
2.88171e-05
8.8194e-07
2.92201e-05
8.48597e-07
2.94979e-05
1.14001e-06
2.97741e-05
7.62155e-07
3.00644e-05
7.32242e-07
3.01886e-05
7.43435e-07
3.03903e-05
6.2526e-07
3.06071e-05
3.06781e-07
3.08216e-05
8.35623e-07
3.0953e-05
3.43413e-07
3.114e-05
7.83267e-07
3.13725e-05
8.02979e-07
3.17203e-05
4.59614e-07
3.17866e-05
9.36671e-07
8.74607e-07
3.21462e-05
2.55417e-05
8.90387e-07
2.65788e-05
2.06198e-06
2.74651e-05
1.56003e-06
2.80165e-05
1.34655e-06
2.8296e-05
6.995e-07
2.86781e-05
4.99851e-07
2.90111e-05
5.15537e-07
2.93235e-05
8.2765e-07
2.95988e-05
4.86869e-07
2.98736e-05
4.57375e-07
2.99954e-05
6.21716e-07
3.02301e-05
3.90521e-07
3.04214e-05
1.15518e-07
3.06864e-05
5.70636e-07
3.07822e-05
2.4758e-07
3.09665e-05
5.98937e-07
3.13194e-05
4.50138e-07
3.15803e-05
1.98623e-07
3.16442e-05
8.72785e-07
6.25158e-07
3.18937e-05
2.54946e-05
3.95832e-07
2.65739e-05
9.82645e-07
2.72632e-05
8.70688e-07
2.78477e-05
7.62065e-07
2.83119e-05
2.35314e-07
2.86201e-05
1.91618e-07
2.87936e-05
3.42092e-07
2.92004e-05
4.2085e-07
2.95378e-05
1.4946e-07
2.97301e-05
2.65092e-07
2.99186e-05
4.33221e-07
3.01765e-05
1.32589e-07
3.02558e-05
3.61811e-08
3.05533e-05
2.73208e-07
3.07272e-05
7.36444e-08
3.08863e-05
4.39877e-07
3.12042e-05
1.32207e-07
3.1363e-05
3.98322e-08
3.15736e-05
6.6217e-07
2.96172e-07
3.19026e-05
2.54396e-05
-4.37777e-08
2.63727e-05
4.95852e-08
2.72078e-05
3.55853e-08
2.79325e-05
3.73767e-08
2.82954e-05
-1.2759e-07
2.85293e-05
-4.22837e-08
2.8767e-05
1.04361e-07
2.91355e-05
5.23146e-08
2.94009e-05
-1.15888e-07
2.96552e-05
1.0809e-08
2.99517e-05
1.36703e-07
3.01546e-05
-7.03059e-08
3.02007e-05
-9.90151e-09
3.05193e-05
-4.54554e-08
3.06806e-05
-8.76583e-08
3.0844e-05
2.76541e-07
3.11086e-05
-1.32461e-07
3.12265e-05
-7.80448e-08
3.15628e-05
3.25855e-07
-1.43591e-07
3.20026e-05
2.53977e-05
-4.4148e-07
2.64155e-05
-9.68176e-07
2.72988e-05
-8.47756e-07
2.79223e-05
-5.86071e-07
2.81984e-05
-4.03781e-07
2.8499e-05
-3.42847e-07
2.88337e-05
-2.30364e-07
2.9141e-05
-2.55e-07
2.93898e-05
-3.64688e-07
2.96885e-05
-2.8786e-07
2.99441e-05
-1.18859e-07
3.01228e-05
-2.49077e-07
3.02608e-05
-1.47829e-07
3.04945e-05
-2.79219e-07
3.0585e-05
-1.78111e-07
3.08987e-05
-3.71187e-08
3.1125e-05
-3.58826e-07
3.12272e-05
-1.80265e-07
3.15337e-05
1.93827e-08
-4.16022e-07
3.18061e-05
2.54466e-05
-8.8805e-07
2.64847e-05
-2.00635e-06
2.73503e-05
-1.71333e-06
2.79605e-05
-1.19627e-06
2.82293e-05
-6.72581e-07
2.85568e-05
-6.70373e-07
2.88658e-05
-5.39321e-07
2.92205e-05
-6.0972e-07
2.9492e-05
-6.36191e-07
2.97223e-05
-5.1814e-07
2.99369e-05
-3.33415e-07
3.01746e-05
-4.86837e-07
3.03506e-05
-3.23801e-07
3.05205e-05
-4.49124e-07
3.06572e-05
-3.1482e-07
3.09555e-05
-3.3544e-07
3.11019e-05
-5.05178e-07
3.13613e-05
-4.39677e-07
3.1669e-05
-2.88357e-07
-3.99164e-07
3.16522e-05
2.55396e-05
-1.42764e-06
2.6571e-05
-3.03778e-06
2.74387e-05
-2.58103e-06
2.8026e-05
-1.78357e-06
2.83434e-05
-9.89915e-07
2.86712e-05
-9.98264e-07
2.89712e-05
-8.39275e-07
2.93316e-05
-9.70088e-07
2.95839e-05
-8.88548e-07
2.98366e-05
-7.70802e-07
3.0045e-05
-5.41861e-07
3.02817e-05
-7.23536e-07
3.04483e-05
-4.90335e-07
3.05958e-05
-5.96704e-07
3.07651e-05
-4.84051e-07
3.10584e-05
-6.28725e-07
3.12169e-05
-6.63727e-07
3.15182e-05
-7.40932e-07
3.17787e-05
-5.48907e-07
-5.34507e-07
3.19141e-05
2.56638e-05
-2.09147e-06
2.67324e-05
-4.10634e-06
2.76292e-05
-3.4778e-06
2.8082e-05
-2.23637e-06
2.84521e-05
-1.36005e-06
2.88331e-05
-1.37927e-06
2.91853e-05
-1.19141e-06
2.94952e-05
-1.28002e-06
2.97538e-05
-1.14717e-06
3.00204e-05
-1.03735e-06
3.02139e-05
-7.35447e-07
3.0431e-05
-9.40635e-07
3.05922e-05
-6.51488e-07
3.07685e-05
-7.72968e-07
3.09367e-05
-6.52266e-07
3.12066e-05
-8.98635e-07
3.13581e-05
-8.15205e-07
3.16374e-05
-1.02024e-06
3.18919e-05
-8.03473e-07
-8.38585e-07
3.2196e-05
2.5838e-05
-2.92947e-06
2.69794e-05
-5.24778e-06
2.78261e-05
-4.3245e-06
2.82071e-05
-2.61733e-06
2.86875e-05
-1.84047e-06
2.91057e-05
-1.79746e-06
2.94545e-05
-1.54025e-06
2.97333e-05
-1.5588e-06
2.99994e-05
-1.4133e-06
3.01797e-05
-1.21757e-06
3.03714e-05
-9.27189e-07
3.05372e-05
-1.10641e-06
3.07009e-05
-8.15156e-07
3.08309e-05
-9.0298e-07
3.0965e-05
-7.86409e-07
3.11281e-05
-1.06177e-06
3.12018e-05
-8.88849e-07
3.13915e-05
-1.20995e-06
3.15731e-05
-9.85101e-07
-1.15027e-06
3.18848e-05
2.60492e-05
-3.97869e-06
2.72555e-05
-6.45402e-06
2.80143e-05
-5.08338e-06
2.84806e-05
-3.08363e-06
2.89859e-05
-2.34571e-06
2.93294e-05
-2.14098e-06
2.95974e-05
-1.80821e-06
2.97417e-05
-1.70315e-06
2.98538e-05
-1.52542e-06
2.98921e-05
-1.25579e-06
2.99589e-05
-9.94063e-07
2.99404e-05
-1.08791e-06
2.99585e-05
-8.33237e-07
2.99102e-05
-8.54665e-07
2.98821e-05
-7.58343e-07
2.97982e-05
-9.77822e-07
2.97019e-05
-7.92555e-07
2.96457e-05
-1.15376e-06
2.96076e-05
-9.46987e-07
-1.25095e-06
2.97083e-05
2.63193e-05
-5.29801e-06
2.75456e-05
-7.68027e-06
2.80559e-05
-5.59368e-06
2.84566e-05
-3.48431e-06
2.86506e-05
-2.53974e-06
2.8616e-05
-2.10641e-06
2.84854e-05
-1.67759e-06
2.82372e-05
-1.45499e-06
2.79572e-05
-1.24538e-06
2.76835e-05
-9.82145e-07
2.74408e-05
-7.51341e-07
2.71448e-05
-7.91909e-07
2.69174e-05
-6.05843e-07
2.66596e-05
-5.96814e-07
2.64326e-05
-5.31367e-07
2.61454e-05
-6.9059e-07
2.59099e-05
-5.57141e-07
2.56008e-05
-8.44625e-07
2.53969e-05
-7.43042e-07
-1.14037e-06
2.52863e-05
2.66128e-05
-6.91079e-06
2.71575e-05
-8.22495e-06
2.67664e-05
-5.20264e-06
2.62604e-05
-2.97829e-06
2.56035e-05
-1.88288e-06
2.48627e-05
-1.3656e-06
2.41684e-05
-9.83282e-07
2.35074e-05
-7.93948e-07
2.29199e-05
-6.5786e-07
2.24413e-05
-5.03579e-07
2.20459e-05
-3.55936e-07
2.16561e-05
-4.02116e-07
2.13536e-05
-3.03299e-07
2.10563e-05
-2.9956e-07
2.0793e-05
-2.68102e-07
2.04791e-05
-3.76603e-07
2.02261e-05
-3.0414e-07
1.98357e-05
-4.5428e-07
1.95019e-05
-4.09243e-07
-3.45084e-07
1.87066e-05
2.54546e-05
-7.36541e-06
2.32472e-05
-6.0175e-06
2.09818e-05
-2.93729e-06
1.93255e-05
-1.32194e-06
1.80771e-05
-6.3453e-07
1.71019e-05
-3.90377e-07
1.63718e-05
-2.53213e-07
1.57795e-05
-2.01636e-07
1.52973e-05
-1.75611e-07
1.49272e-05
-1.33482e-07
1.46463e-05
-7.51023e-08
1.4359e-05
-1.14778e-07
1.41387e-05
-8.29756e-08
1.39228e-05
-8.3651e-08
1.37283e-05
-7.36503e-08
1.34782e-05
-1.26539e-07
1.32691e-05
-9.50309e-08
1.29639e-05
-1.49061e-07
1.274e-05
-1.85309e-07
-1.44359e-08
1.24093e-05
1.76346e-05
1.16171e-05
8.6798e-06
7.35786e-06
6.72333e-06
6.33296e-06
6.07974e-06
5.87811e-06
5.7025e-06
5.56901e-06
5.49391e-06
5.37913e-06
5.29616e-06
5.21251e-06
5.13886e-06
5.01232e-06
4.91729e-06
4.76823e-06
4.58292e-06
4.56848e-06
5.31897e-06
1.46154e-07
-7.987e-07
5.73357e-06
1.10539e-07
-5.25135e-07
5.95855e-06
-1.30755e-07
-9.42284e-08
6.18692e-06
-3.33458e-07
1.05088e-07
6.37454e-06
-3.95263e-07
2.07646e-07
6.5222e-06
-3.45969e-07
1.98314e-07
6.59795e-06
-2.43847e-07
1.6809e-07
6.64455e-06
-7.31178e-08
2.65204e-08
6.67204e-06
4.12151e-08
-6.8705e-08
6.72239e-06
1.58505e-07
-2.08857e-07
6.83797e-06
3.02207e-07
-4.17784e-07
7.03111e-06
3.9822e-07
-5.91357e-07
7.32875e-06
5.02109e-07
-7.99755e-07
7.68833e-06
6.06735e-07
-9.66305e-07
8.07281e-06
6.54016e-07
-1.0385e-06
8.48182e-06
6.52012e-07
-1.06102e-06
8.87086e-06
6.24326e-07
-1.01336e-06
9.20864e-06
5.23426e-07
-8.61214e-07
9.43077e-06
3.69913e-07
-5.92037e-07
9.53148e-06
1.89194e-07
-2.89906e-07
9.50865e-06
3.29879e-08
-1.01593e-08
9.43059e-06
-8.91719e-08
1.67235e-07
9.34323e-06
-1.6342e-07
2.5078e-07
9.2633e-06
-1.95993e-07
2.75918e-07
9.20226e-06
-1.98984e-07
2.60031e-07
9.18208e-06
-1.84974e-07
2.05147e-07
9.18062e-06
-1.24808e-07
1.26269e-07
9.20609e-06
-6.70989e-08
4.16349e-08
9.26007e-06
1.71536e-08
-7.11329e-08
9.33298e-06
1.03637e-07
-1.76549e-07
9.44248e-06
2.05575e-07
-3.15081e-07
9.58009e-06
3.15507e-07
-4.53112e-07
9.77412e-06
4.2697e-07
-6.20999e-07
9.98401e-06
5.28819e-07
-7.38716e-07
1.0253e-05
6.00538e-07
-8.69561e-07
1.05414e-05
6.7695e-07
-9.65348e-07
1.08602e-05
7.09506e-07
-1.02823e-06
1.12149e-05
7.01164e-07
-1.05585e-06
1.15791e-05
6.80003e-07
-1.04428e-06
1.19706e-05
5.70998e-07
-9.62476e-07
1.23363e-05
4.71325e-07
-8.3704e-07
1.26643e-05
3.29292e-07
-6.57233e-07
1.29966e-05
1.44768e-07
-4.77065e-07
1.33366e-05
-1.92883e-08
-3.20739e-07
1.36552e-05
-1.81858e-07
-1.36712e-07
1.40138e-05
-4.78102e-07
1.195e-07
1.43204e-05
-6.45575e-07
3.38892e-07
1.46084e-05
-9.84032e-07
6.96077e-07
1.494e-05
-1.32168e-06
9.90028e-07
1.51979e-05
-1.5058e-06
1.24799e-06
1.55202e-05
-1.98767e-06
1.66531e-06
1.5778e-05
-2.16336e-06
1.90561e-06
1.60076e-05
-2.45204e-06
2.22241e-06
1.62628e-05
-2.80371e-06
2.54849e-06
1.64512e-05
-2.93009e-06
2.74174e-06
1.66531e-05
-3.19642e-06
2.99448e-06
1.68536e-05
-3.21775e-06
3.0173e-06
1.71302e-05
-3.22197e-06
2.94529e-06
1.74696e-05
-3.17452e-06
2.83519e-06
1.78378e-05
-2.97431e-06
2.60612e-06
1.81735e-05
-2.80065e-06
2.46496e-06
1.84906e-05
-2.49724e-06
2.18011e-06
1.87273e-05
-2.2468e-06
2.01008e-06
1.89313e-05
-1.92948e-06
1.72545e-06
1.91369e-05
-1.64173e-06
1.43613e-06
1.93715e-05
-1.3367e-06
1.10215e-06
1.96781e-05
-9.68093e-07
6.61462e-07
1.98383e-05
-6.15341e-07
4.55135e-07
2.01402e-05
-6.28486e-07
3.2663e-07
2.03846e-05
-3.66017e-07
1.21642e-07
2.05795e-05
-2.69261e-07
7.43023e-08
2.08042e-05
-3.75311e-07
1.50638e-07
2.10937e-05
-2.98966e-07
9.45531e-09
2.13141e-05
-5.15033e-07
2.94633e-07
2.15049e-05
-8.08813e-07
6.18006e-07
2.1696e-05
-9.12297e-07
7.21232e-07
2.19978e-05
-1.24437e-06
9.42578e-07
2.22345e-05
-1.65381e-06
1.41707e-06
2.24666e-05
-1.99798e-06
1.7659e-06
2.2796e-05
-2.338e-06
2.00853e-06
2.31455e-05
-2.83889e-06
2.48945e-06
2.35064e-05
-3.30412e-06
2.94323e-06
2.39463e-05
-3.74361e-06
3.30368e-06
2.44558e-05
-4.26346e-06
3.75393e-06
2.51017e-05
-4.92316e-06
4.27729e-06
2.56757e-05
-5.43555e-06
4.86151e-06
2.63633e-05
-6.08418e-06
5.39664e-06
2.71098e-05
-6.79944e-06
6.05293e-06
2.79665e-05
-7.63785e-06
6.78109e-06
2.87107e-05
-8.43449e-06
7.69037e-06
2.95752e-05
-9.28991e-06
8.42535e-06
3.03836e-05
-1.03137e-05
9.5053e-06
3.10496e-05
-1.12493e-05
1.05834e-05
3.15719e-05
-1.22065e-05
1.16842e-05
3.19087e-05
-1.30479e-05
1.27111e-05
3.19779e-05
-1.3814e-05
1.37448e-05
3.18067e-05
-1.44082e-05
1.45794e-05
3.13608e-05
-1.48237e-05
1.52695e-05
3.07144e-05
-1.50347e-05
1.56811e-05
3.01144e-05
-1.52641e-05
1.58641e-05
2.95545e-05
-1.53498e-05
1.59098e-05
2.92107e-05
-1.55895e-05
1.59333e-05
2.90581e-05
-1.58402e-05
1.59928e-05
2.90891e-05
-1.59465e-05
1.59156e-05
2.91747e-05
-1.62203e-05
1.61347e-05
2.91437e-05
-1.62155e-05
1.62465e-05
2.90096e-05
-1.6226e-05
1.63601e-05
2.86404e-05
-1.59764e-05
1.63455e-05
2.80292e-05
-1.56613e-05
1.62725e-05
2.72437e-05
-1.52429e-05
1.60284e-05
2.63515e-05
-1.47588e-05
1.56509e-05
2.54979e-05
-1.4327e-05
1.51807e-05
2.47855e-05
-1.37869e-05
1.44993e-05
2.42294e-05
-1.31358e-05
1.36918e-05
2.40594e-05
-1.24224e-05
1.25924e-05
2.4128e-05
-1.16659e-05
1.15972e-05
2.43407e-05
-1.045e-05
1.02373e-05
2.47775e-05
-9.16392e-06
8.72714e-06
2.50561e-05
-7.59564e-06
7.317e-06
2.5208e-05
-5.72313e-06
5.57123e-06
2.53294e-05
-3.71501e-06
3.59361e-06
2.54612e-05
-2.0789e-06
1.94712e-06
2.54604e-05
-1.06477e-07
1.0724e-07
2.55743e-05
1.68515e-06
-1.79903e-06
2.58307e-05
3.30985e-06
-3.56627e-06
2.62039e-05
4.88249e-06
-5.25562e-06
2.65302e-05
6.66896e-06
-6.99532e-06
2.68362e-05
8.34911e-06
-8.65508e-06
2.69787e-05
1.02988e-05
-1.04413e-05
2.68408e-05
1.21196e-05
-1.19818e-05
2.63629e-05
1.35415e-05
-1.30637e-05
2.54288e-05
1.46462e-05
-1.37121e-05
2.41153e-05
1.54127e-05
-1.40992e-05
2.28137e-05
1.52172e-05
-1.39155e-05
2.14292e-05
1.44286e-05
-1.30441e-05
1.99832e-05
1.3584e-05
-1.2138e-05
1.87455e-05
1.2679e-05
-1.14413e-05
1.79686e-05
1.12646e-05
-1.04878e-05
1.72763e-05
1.04173e-05
-9.72501e-06
1.6622e-05
1.00221e-05
-9.36773e-06
1.63014e-05
9.52919e-06
-9.20865e-06
1.63479e-05
8.76824e-06
-8.81477e-06
1.60175e-05
8.79727e-06
-8.4668e-06
1.5754e-05
9.16117e-06
-8.8977e-06
1.56149e-05
1.02127e-05
-1.00737e-05
1.57397e-05
1.03967e-05
-1.05214e-05
1.60902e-05
1.06624e-05
-1.1013e-05
1.65308e-05
1.07172e-05
-1.11577e-05
1.69907e-05
1.17134e-05
-1.21733e-05
1.73614e-05
1.29617e-05
-1.33324e-05
1.79012e-05
1.47761e-05
-1.5316e-05
1.83054e-05
1.71929e-05
-1.75972e-05
1.8665e-05
1.91745e-05
-1.9534e-05
1.88633e-05
2.10383e-05
-2.12366e-05
1.90525e-05
2.18969e-05
-2.20861e-05
1.89462e-05
2.2495e-05
-2.23886e-05
1.88372e-05
2.15291e-05
-2.14201e-05
1.85953e-05
2.01388e-05
-1.98968e-05
1.83581e-05
1.79728e-05
-1.77356e-05
1.80588e-05
1.56268e-05
-1.53274e-05
1.77589e-05
1.35377e-05
-1.32378e-05
1.73806e-05
1.14902e-05
-1.11119e-05
1.71321e-05
8.99587e-06
-8.74732e-06
1.6945e-05
6.79568e-06
-6.60857e-06
1.69283e-05
3.95192e-06
-3.93524e-06
1.68375e-05
3.16561e-06
-3.07479e-06
1.709e-05
2.66321e-07
-5.18895e-07
1.67551e-05
5.77507e-08
2.77164e-07
1.70021e-05
-3.70724e-06
3.4603e-06
1.68128e-05
-3.79529e-06
3.98451e-06
1.74712e-05
-8.35636e-06
7.69799e-06
1.75498e-05
-8.05366e-06
7.97508e-06
1.83083e-05
-1.22805e-05
1.1522e-05
1.85717e-05
-1.12454e-05
1.09819e-05
1.92691e-05
-1.449e-05
1.37926e-05
1.96399e-05
-1.47699e-05
1.43991e-05
2.07939e-05
-1.95818e-05
1.84278e-05
2.17105e-05
-2.06392e-05
1.97226e-05
2.2601e-05
-2.1494e-05
2.06036e-05
2.3123e-05
-2.01986e-05
1.96766e-05
2.34376e-05
-1.82138e-05
1.78993e-05
2.38813e-05
-1.50995e-05
1.46557e-05
2.35447e-05
-1.18236e-05
1.21602e-05
2.43532e-05
-8.74254e-06
7.93398e-06
2.3879e-05
-4.66945e-06
5.14367e-06
2.46658e-05
-2.48146e-06
1.69466e-06
2.43894e-05
1.38768e-06
-1.11132e-06
2.48251e-05
4.18856e-06
-4.62418e-06
2.376e-05
6.89302e-06
-5.82794e-06
2.37715e-05
7.35562e-06
-7.36713e-06
2.28016e-05
1.00499e-05
-9.08006e-06
2.25036e-05
1.05598e-05
-1.02619e-05
2.20641e-05
1.22027e-05
-1.17632e-05
2.12985e-05
1.30415e-05
-1.22759e-05
2.13439e-05
1.37808e-05
-1.38262e-05
2.03825e-05
1.55733e-05
-1.46118e-05
2.05206e-05
1.70136e-05
-1.71518e-05
1.87451e-05
2.259e-05
-2.08145e-05
1.87181e-05
2.42045e-05
-2.41776e-05
3.56007e-05
-3.47707e-05
1.78881e-05
1.2581e-05
1.78892e-08
1.27164e-05
-2.47999e-08
1.28256e-05
-2.3997e-07
1.29313e-05
-4.39191e-07
1.30366e-05
-5.00529e-07
1.31297e-05
-4.39057e-07
1.31458e-05
-2.59964e-07
1.31779e-05
-1.05284e-07
1.31569e-05
6.2255e-08
1.31175e-05
1.97868e-07
1.3104e-05
3.15788e-07
1.31005e-05
4.01662e-07
1.315e-05
4.52645e-07
1.32501e-05
5.06573e-07
1.33723e-05
5.31869e-07
1.3518e-05
5.06322e-07
1.36794e-05
4.62903e-07
1.38287e-05
3.74082e-07
1.39479e-05
2.50726e-07
1.40113e-05
1.25866e-07
1.40552e-05
-1.09466e-08
1.40586e-05
-9.25804e-08
1.40527e-05
-1.57527e-07
1.4062e-05
-2.05284e-07
1.4053e-05
-1.89979e-07
1.40761e-05
-2.08091e-07
1.41012e-05
-1.499e-07
1.4145e-05
-1.10869e-07
1.42079e-05
-4.57846e-08
1.42729e-05
3.86449e-08
1.43825e-05
9.59935e-08
1.44814e-05
2.16606e-07
1.46445e-05
2.63898e-07
1.48084e-05
3.64905e-07
1.49999e-05
4.08991e-07
1.52467e-05
4.30215e-07
1.54733e-05
4.82892e-07
1.57629e-05
4.11531e-07
1.60427e-05
4.00194e-07
1.63242e-05
2.8947e-07
1.66704e-05
1.25136e-07
1.69513e-05
4.84272e-08
1.72794e-05
-1.83324e-07
1.76394e-05
-3.79341e-07
1.79339e-05
-4.76346e-07
1.83469e-05
-8.91131e-07
1.86964e-05
-9.95035e-07
1.90291e-05
-1.31668e-06
1.94392e-05
-1.73185e-06
1.97686e-05
-1.83519e-06
2.01227e-05
-2.34181e-06
2.04621e-05
-2.50268e-06
2.07766e-05
-2.76659e-06
2.10886e-05
-3.11569e-06
2.13629e-05
-3.20435e-06
2.16128e-05
-3.44637e-06
2.1861e-05
-3.46597e-06
2.20997e-05
-3.4606e-06
2.23228e-05
-3.39766e-06
2.2583e-05
-3.2345e-06
2.27615e-05
-2.97917e-06
2.30671e-05
-2.80277e-06
2.32658e-05
-2.44557e-06
2.34584e-05
-2.12204e-06
2.37184e-05
-1.90178e-06
2.38561e-05
-1.47432e-06
2.41025e-05
-1.21454e-06
2.43731e-05
-8.85965e-07
2.44774e-05
-7.32731e-07
2.46621e-05
-5.50729e-07
2.49219e-05
-5.29082e-07
2.5097e-05
-5.50377e-07
2.52812e-05
-4.83189e-07
2.55056e-05
-7.3949e-07
2.56238e-05
-9.26931e-07
2.58665e-05
-1.15508e-06
2.61138e-05
-1.49161e-06
2.63121e-05
-1.85216e-06
2.65105e-05
-2.19636e-06
2.68789e-05
-2.70639e-06
2.71375e-05
-3.09749e-06
2.74644e-05
-3.63105e-06
2.78959e-05
-4.17508e-06
2.8342e-05
-4.7095e-06
2.87441e-05
-5.32528e-06
2.92395e-05
-5.93101e-06
2.98299e-05
-6.67449e-06
3.03897e-05
-7.35927e-06
3.08711e-05
-8.11931e-06
3.13936e-05
-8.95699e-06
3.19002e-05
-9.7965e-06
3.21543e-05
-1.05677e-05
3.22858e-05
-1.13809e-05
3.22467e-05
-1.21674e-05
3.20383e-05
-1.28395e-05
3.15725e-05
-1.33482e-05
3.09484e-05
-1.3784e-05
3.03107e-05
-1.4186e-05
2.9756e-05
-1.448e-05
2.93622e-05
-1.48703e-05
2.92007e-05
-1.51884e-05
2.92081e-05
-1.55969e-05
2.92332e-05
-1.58653e-05
2.91735e-05
-1.58868e-05
2.88612e-05
-1.5908e-05
2.83807e-05
-1.5735e-05
2.76084e-05
-1.54537e-05
2.64513e-05
-1.48192e-05
2.51018e-05
-1.43118e-05
2.36912e-05
-1.38323e-05
2.22586e-05
-1.33261e-05
2.10136e-05
-1.30821e-05
2.02804e-05
-1.30537e-05
2.02622e-05
-1.31175e-05
2.08374e-05
-1.29977e-05
2.14886e-05
-1.23171e-05
2.21897e-05
-1.11511e-05
2.28824e-05
-9.8566e-06
2.32978e-05
-8.01104e-06
2.34575e-05
-5.88276e-06
2.35463e-05
-3.80388e-06
2.35139e-05
-2.04645e-06
2.32775e-05
1.29875e-07
2.30708e-05
1.89188e-06
2.30298e-05
3.35084e-06
2.31658e-05
4.74653e-06
2.35049e-05
6.32984e-06
2.40874e-05
7.7666e-06
2.45719e-05
9.81428e-06
2.48154e-05
1.18761e-05
2.47108e-05
1.36462e-05
2.40744e-05
1.52826e-05
2.31165e-05
1.63707e-05
2.20875e-05
1.62461e-05
2.08595e-05
1.56566e-05
1.94124e-05
1.50312e-05
1.8232e-05
1.38593e-05
1.73349e-05
1.21617e-05
1.64608e-05
1.12914e-05
1.56652e-05
1.08177e-05
1.53136e-05
9.8808e-06
1.50896e-05
8.99223e-06
1.49336e-05
8.95323e-06
1.46616e-05
9.43322e-06
1.47004e-05
1.01739e-05
1.48319e-05
1.02652e-05
1.54774e-05
1.00169e-05
1.60044e-05
1.01902e-05
1.68037e-05
1.09141e-05
1.74967e-05
1.22688e-05
1.82242e-05
1.40486e-05
1.89199e-05
1.64972e-05
1.94831e-05
1.86113e-05
1.99694e-05
2.0552e-05
2.02693e-05
2.15969e-05
2.03988e-05
2.23655e-05
2.03061e-05
2.16218e-05
2.02747e-05
2.01702e-05
2.01309e-05
1.81166e-05
1.99541e-05
1.58036e-05
1.97251e-05
1.37667e-05
1.93434e-05
1.18719e-05
1.91313e-05
9.20801e-06
1.86713e-05
7.25568e-06
1.89082e-05
3.71495e-06
1.86941e-05
3.37974e-06
1.89966e-05
-3.61166e-08
1.8569e-05
4.8526e-07
1.9045e-05
-4.18315e-06
1.88299e-05
-3.58026e-06
1.9479e-05
-9.00539e-06
1.9376e-05
-7.95068e-06
2.02591e-05
-1.31636e-05
2.01344e-05
-1.11206e-05
2.123e-05
-1.55856e-05
2.11902e-05
-1.47301e-05
2.29261e-05
-2.13177e-05
2.28735e-05
-2.05866e-05
2.41162e-05
-2.27368e-05
2.37188e-05
-1.98012e-05
2.38529e-05
-1.8348e-05
2.3902e-05
-1.51485e-05
2.3623e-05
-1.15446e-05
2.35555e-05
-8.67503e-06
2.36531e-05
-4.76711e-06
2.33667e-05
-2.19504e-06
2.3695e-05
1.05937e-06
2.36234e-05
4.26016e-06
2.37889e-05
6.72753e-06
2.31035e-05
8.04105e-06
2.34989e-05
9.65451e-06
2.26184e-05
1.14404e-05
2.24324e-05
1.23886e-05
2.10628e-05
1.44111e-05
2.06103e-05
1.42333e-05
1.90141e-05
1.71695e-05
1.96237e-05
1.6404e-05
1.91828e-05
2.30309e-05
2.511e-05
1.82773e-05
3.62325e-05
2.44782e-05
1.90104e-05
-3.60382e-08
1.9185e-05
-1.99381e-07
1.93626e-05
-4.17571e-07
1.9501e-05
-5.776e-07
1.95554e-05
-5.54915e-07
1.95823e-05
-4.65959e-07
1.95806e-05
-2.58269e-07
1.95649e-05
-8.96297e-08
1.95457e-05
8.14925e-08
1.95021e-05
2.41483e-07
1.9488e-05
3.29871e-07
1.94656e-05
4.24037e-07
1.94667e-05
4.51572e-07
1.94975e-05
4.75786e-07
1.95407e-05
4.88643e-07
1.96034e-05
4.43579e-07
1.96596e-05
4.06714e-07
1.97204e-05
3.13341e-07
1.97676e-05
2.03543e-07
1.97823e-05
1.11143e-07
1.97973e-05
-2.59719e-08
1.97989e-05
-9.41455e-08
1.979e-05
-1.4865e-07
1.97975e-05
-2.12828e-07
1.97835e-05
-1.75967e-07
1.98004e-05
-2.2493e-07
1.98161e-05
-1.65628e-07
1.98328e-05
-1.27584e-07
1.98957e-05
-1.08705e-07
1.99254e-05
8.9239e-09
2.00175e-05
3.92821e-09
2.00992e-05
1.34914e-07
2.02032e-05
1.59929e-07
2.03603e-05
2.07827e-07
2.04895e-05
2.79713e-07
2.06895e-05
2.30216e-07
2.08906e-05
2.8181e-07
2.10942e-05
2.07894e-07
2.13621e-05
1.32354e-07
2.15739e-05
7.76415e-08
2.18449e-05
-1.45835e-07
2.21325e-05
-2.39176e-07
2.23834e-05
-4.34255e-07
2.27126e-05
-7.08494e-07
2.30106e-05
-7.74411e-07
2.33327e-05
-1.21321e-06
2.36702e-05
-1.33252e-06
2.40162e-05
-1.66265e-06
2.43303e-05
-2.04593e-06
2.46353e-05
-2.14025e-06
2.49905e-05
-2.69697e-06
2.5214e-05
-2.72618e-06
2.55549e-05
-3.10752e-06
2.57639e-05
-3.32468e-06
2.5962e-05
-3.40249e-06
2.61594e-05
-3.64372e-06
2.62573e-05
-3.56385e-06
2.64547e-05
-3.658e-06
2.65316e-05
-3.47463e-06
2.66884e-05
-3.39129e-06
2.68389e-05
-3.12971e-06
2.69592e-05
-2.92307e-06
2.71401e-05
-2.62643e-06
2.72593e-05
-2.24119e-06
2.73698e-05
-2.01231e-06
2.75098e-05
-1.61436e-06
2.76365e-05
-1.34123e-06
2.78303e-05
-1.07971e-06
2.80108e-05
-9.13306e-07
2.81106e-05
-6.50519e-07
2.83311e-05
-7.49608e-07
2.84894e-05
-7.08664e-07
2.86299e-05
-6.237e-07
2.88596e-05
-9.69191e-07
2.89802e-05
-1.04752e-06
2.91428e-05
-1.31765e-06
2.93421e-05
-1.69089e-06
2.95237e-05
-2.03381e-06
2.96869e-05
-2.35949e-06
2.99068e-05
-2.92633e-06
3.01597e-05
-3.35041e-06
3.03708e-05
-3.84207e-06
3.06262e-05
-4.43055e-06
3.09186e-05
-5.00182e-06
3.1169e-05
-5.57577e-06
3.15055e-05
-6.26748e-06
3.17456e-05
-6.91459e-06
3.19976e-05
-7.61128e-06
3.21879e-05
-8.30961e-06
3.22951e-05
-9.06417e-06
3.22628e-05
-9.76415e-06
3.21405e-05
-1.04455e-05
3.18821e-05
-1.11225e-05
3.1444e-05
-1.17294e-05
3.08874e-05
-1.22829e-05
3.03197e-05
-1.27805e-05
2.98419e-05
-1.33063e-05
2.9439e-05
-1.37831e-05
2.93108e-05
-1.43518e-05
2.9328e-05
-1.48875e-05
2.94326e-05
-1.52929e-05
2.93342e-05
-1.54986e-05
2.90093e-05
-1.55404e-05
2.85118e-05
-1.53893e-05
2.76198e-05
-1.50161e-05
2.64305e-05
-1.45456e-05
2.48397e-05
-1.38629e-05
2.30102e-05
-1.29897e-05
2.11157e-05
-1.24173e-05
1.90042e-05
-1.17208e-05
1.70035e-05
-1.13254e-05
1.61845e-05
-1.22632e-05
1.66766e-05
-1.35457e-05
1.79014e-05
-1.43424e-05
1.9262e-05
-1.43583e-05
2.04121e-05
-1.34672e-05
2.13259e-05
-1.20649e-05
2.18768e-05
-1.04075e-05
2.21904e-05
-8.32463e-06
2.23304e-05
-6.02271e-06
2.244e-05
-3.91349e-06
2.22761e-05
-1.88257e-06
2.19123e-05
4.93638e-07
2.13688e-05
2.43537e-06
2.08152e-05
3.90446e-06
2.05212e-05
5.04057e-06
2.07232e-05
6.12777e-06
2.12306e-05
7.25927e-06
2.17921e-05
9.25278e-06
2.22914e-05
1.13768e-05
2.24798e-05
1.34577e-05
2.22978e-05
1.54647e-05
2.18269e-05
1.68415e-05
2.10231e-05
1.705e-05
1.98934e-05
1.67863e-05
1.85642e-05
1.63604e-05
1.75221e-05
1.49015e-05
1.65062e-05
1.31775e-05
1.5609e-05
1.21886e-05
1.47592e-05
1.16676e-05
1.4375e-05
1.0265e-05
1.40671e-05
9.30013e-06
1.40455e-05
8.9748e-06
1.36769e-05
9.80183e-06
1.38722e-05
9.97873e-06
1.41509e-05
9.98647e-06
1.48742e-05
9.29351e-06
1.54899e-05
9.57454e-06
1.63136e-05
1.00904e-05
1.74623e-05
1.112e-05
1.83666e-05
1.31444e-05
1.93999e-05
1.54639e-05
2.01334e-05
1.78777e-05
2.09461e-05
1.97394e-05
2.1313e-05
2.123e-05
2.17923e-05
2.18862e-05
2.18743e-05
2.15398e-05
2.18155e-05
2.0229e-05
2.17844e-05
1.81477e-05
2.15396e-05
1.60483e-05
2.14623e-05
1.38441e-05
2.11943e-05
1.21399e-05
2.09748e-05
9.4275e-06
2.06617e-05
7.56874e-06
2.06482e-05
3.72844e-06
2.02915e-05
3.7365e-06
2.06378e-05
-3.82459e-07
2.05997e-05
5.2341e-07
2.09509e-05
-4.53443e-06
2.08886e-05
-3.51797e-06
2.12922e-05
-9.40897e-06
2.14651e-05
-8.12356e-06
2.20573e-05
-1.37558e-05
2.20421e-05
-1.11055e-05
2.27794e-05
-1.63228e-05
2.29555e-05
-1.49063e-05
2.44283e-05
-2.27904e-05
2.4267e-05
-2.04252e-05
2.48765e-05
-2.33463e-05
2.38471e-05
-1.87717e-05
2.41986e-05
-1.86995e-05
2.30164e-05
-1.39663e-05
2.33703e-05
-1.18984e-05
2.23847e-05
-7.68948e-06
2.30281e-05
-5.4105e-06
2.24273e-05
-1.59422e-06
2.31179e-05
3.68806e-07
2.33206e-05
4.05747e-06
2.39727e-05
6.07538e-06
2.35885e-05
8.42524e-06
2.35345e-05
9.70857e-06
2.27237e-05
1.22512e-05
2.29289e-05
1.21834e-05
2.20815e-05
1.52585e-05
2.30212e-05
1.32937e-05
2.1724e-05
1.84666e-05
2.46648e-05
1.34633e-05
2.19088e-05
2.57869e-05
2.78256e-05
1.23605e-05
3.44436e-05
2.96144e-05
2.43493e-05
-2.31303e-07
2.47901e-05
-6.40184e-07
2.51446e-05
-7.72042e-07
2.52379e-05
-6.70853e-07
2.52363e-05
-5.53327e-07
2.51947e-05
-4.24338e-07
2.51389e-05
-2.02467e-07
2.51039e-05
-5.46665e-08
2.50659e-05
1.19511e-07
2.50327e-05
2.74669e-07
2.50134e-05
3.49173e-07
2.50062e-05
4.31275e-07
2.49937e-05
4.64052e-07
2.5019e-05
4.50464e-07
2.50415e-05
4.66138e-07
2.5085e-05
4.00085e-07
2.51221e-05
3.69559e-07
2.51517e-05
2.83796e-07
2.51855e-05
1.69759e-07
2.51852e-05
1.11417e-07
2.51917e-05
-3.24912e-08
2.51797e-05
-8.21482e-08
2.51719e-05
-1.40831e-07
2.51642e-05
-2.0513e-07
2.51521e-05
-1.63848e-07
2.51528e-05
-2.25651e-07
2.51613e-05
-1.74118e-07
2.51805e-05
-1.46829e-07
2.521e-05
-1.38119e-07
2.52653e-05
-4.64293e-08
2.53133e-05
-4.40751e-08
2.53889e-05
5.92898e-08
2.54943e-05
5.46129e-08
2.55768e-05
1.25251e-07
2.57309e-05
1.25657e-07
2.58584e-05
1.02732e-07
2.60247e-05
1.15474e-07
2.62258e-05
6.82095e-09
2.63833e-05
-2.51602e-08
2.66303e-05
-1.69359e-07
2.68145e-05
-3.30061e-07
2.70285e-05
-4.53139e-07
2.72967e-05
-7.02466e-07
2.74951e-05
-9.06879e-07
2.77592e-05
-1.03848e-06
2.80312e-05
-1.48525e-06
2.82288e-05
-1.53011e-06
2.85215e-05
-1.95539e-06
2.87396e-05
-2.26404e-06
2.89158e-05
-2.31647e-06
2.91709e-05
-2.95205e-06
2.92843e-05
-2.8396e-06
2.94554e-05
-3.27858e-06
2.95631e-05
-3.43237e-06
2.95931e-05
-3.43255e-06
2.96665e-05
-3.71711e-06
2.9653e-05
-3.55028e-06
2.96695e-05
-3.67452e-06
2.96784e-05
-3.48355e-06
2.96221e-05
-3.33498e-06
2.96884e-05
-3.19599e-06
2.96163e-05
-2.85102e-06
2.96523e-05
-2.66237e-06
2.96922e-05
-2.28113e-06
2.96779e-05
-1.99798e-06
2.97917e-05
-1.72821e-06
2.98869e-05
-1.4364e-06
2.99805e-05
-1.17334e-06
3.01821e-05
-1.11488e-06
3.02923e-05
-7.60705e-07
3.04221e-05
-8.7943e-07
3.05844e-05
-8.70998e-07
3.07497e-05
-7.8893e-07
3.08726e-05
-1.09213e-06
3.10256e-05
-1.20049e-06
3.11422e-05
-1.43427e-06
3.12462e-05
-1.79486e-06
3.13932e-05
-2.18081e-06
3.15188e-05
-2.48511e-06
3.157e-05
-2.97758e-06
3.1732e-05
-3.51238e-06
3.18139e-05
-3.92394e-06
3.18779e-05
-4.49462e-06
3.19794e-05
-5.10324e-06
3.20653e-05
-5.66172e-06
3.20684e-05
-6.27056e-06
3.20668e-05
-6.91301e-06
3.20428e-05
-7.58729e-06
3.19263e-05
-8.19313e-06
3.17252e-05
-8.86302e-06
3.1448e-05
-9.48695e-06
3.11525e-05
-1.015e-05
3.06946e-05
-1.06646e-05
3.02486e-05
-1.12834e-05
2.98799e-05
-1.19142e-05
2.95981e-05
-1.24987e-05
2.9446e-05
-1.31542e-05
2.94253e-05
-1.37623e-05
2.94836e-05
-1.44101e-05
2.94061e-05
-1.48099e-05
2.91573e-05
-1.50442e-05
2.86575e-05
-1.49988e-05
2.78805e-05
-1.47634e-05
2.67088e-05
-1.42176e-05
2.52087e-05
-1.3516e-05