/*--------------------------------*- C++ -*----------------------------------*\
| =========                 |                                                 |
| \\      /  F ield         | OpenFOAM: The Open Source CFD Toolbox           |
|  \\    /   O peration     | Version:  2.4.0                                 |
|   \\  /    A nd           | Web:      www.OpenFOAM.org                      |
|    \\/     M anipulation  |                                                 |
\*---------------------------------------------------------------------------*/
FoamFile
{
    version     2.0;
    format      ascii;
    class       surfaceScalarField;
    location    "0.36";
    object      phi_0;
}
// * * * * * * * * * * * * * * * * * * * * * * * * * * * * * * * * * * * * * //

dimensions      [0 3 -1 0 0 0 0];

internalField   nonuniform List<scalar> 
17320
(
1.76363e-05
7.36373e-06
1.16143e-05
6.02197e-06
8.68276e-06
2.93154e-06
7.35616e-06
1.3266e-06
6.71869e-06
6.37466e-07
6.34087e-06
3.77824e-07
6.08115e-06
2.59719e-07
5.86441e-06
2.16745e-07
5.71041e-06
1.53999e-07
5.57648e-06
1.33933e-07
5.48132e-06
9.51512e-08
5.3717e-06
1.09626e-07
5.31364e-06
5.80615e-08
5.19562e-06
1.18019e-07
5.12201e-06
7.36062e-08
5.028e-06
9.40133e-08
4.89353e-06
1.34466e-07
4.77542e-06
1.1811e-07
4.61004e-06
1.65384e-07
-5.24031e-08
4.66244e-06
2.5455e-05
6.90878e-06
2.32441e-05
8.23287e-06
2.09891e-05
5.18645e-06
1.9319e-05
2.9967e-06
1.80764e-05
1.88013e-06
1.7112e-05
1.34224e-06
1.63677e-05
1.00399e-06
1.57671e-05
8.17313e-07
1.53119e-05
6.09187e-07
1.49277e-05
5.18196e-07
1.46345e-05
3.88352e-07
1.43548e-05
3.89258e-07
1.41542e-05
2.58673e-07
1.38949e-05
3.77331e-07
1.37196e-05
2.48967e-07
1.34766e-05
3.36974e-07
1.32358e-05
3.75286e-07
1.29619e-05
3.92022e-07
1.27661e-05
3.61107e-07
2.66793e-07
1.24469e-05
2.66107e-05
5.2981e-06
2.71535e-05
7.69004e-06
2.67804e-05
5.55959e-06
2.62504e-05
3.52662e-06
2.56048e-05
2.52583e-06
2.48757e-05
2.07125e-06
2.41609e-05
1.71887e-06
2.34946e-05
1.48357e-06
2.29395e-05
1.1643e-06
2.24377e-05
1.02002e-06
2.20343e-05
7.91766e-07
2.16606e-05
7.62901e-07
2.13653e-05
5.5402e-07
2.10249e-05
7.17707e-07
2.0795e-05
4.78843e-07
2.04658e-05
6.66174e-07
2.01882e-05
6.52852e-07
1.98087e-05
7.7154e-07
1.96115e-05
5.58372e-07
9.263e-07
1.8952e-05
2.63113e-05
3.98682e-06
2.75335e-05
6.46781e-06
2.80824e-05
5.01066e-06
2.8455e-05
3.15404e-06
2.86494e-05
2.33148e-06
2.86287e-05
2.09188e-06
2.84804e-05
1.86727e-06
2.8218e-05
1.7459e-06
2.79771e-05
1.40525e-06
2.76837e-05
1.31338e-06
2.74248e-05
1.05067e-06
2.71601e-05
1.02759e-06
2.69317e-05
7.82451e-07
2.66228e-05
1.02659e-06
2.64522e-05
6.49428e-07
2.61191e-05
9.99272e-07
2.58925e-05
8.79501e-07
2.55022e-05
1.16185e-06
2.50896e-05
9.70968e-07
1.86389e-06
2.4152e-05
2.60435e-05
2.94334e-06
2.72277e-05
5.28356e-06
2.80305e-05
4.20793e-06
2.85014e-05
2.68312e-06
2.89969e-05
1.83591e-06
2.93414e-05
1.74743e-06
2.95981e-05
1.6106e-06
2.97173e-05
1.62665e-06
2.98461e-05
1.27641e-06
2.99021e-05
1.25741e-06
2.99334e-05
1.01938e-06
2.99574e-05
1.00357e-06
2.99896e-05
7.50296e-07
2.98792e-05
1.13694e-06
2.99096e-05
6.1902e-07
2.97811e-05
1.1278e-06
2.96326e-05
1.02797e-06
2.96623e-05
1.13214e-06
2.95705e-05
1.06284e-06
1.57032e-06
2.9864e-05
2.58531e-05
2.09028e-06
2.69494e-05
4.1872e-06
2.77932e-05
3.36417e-06
2.81933e-05
2.28299e-06
2.87086e-05
1.32058e-06
2.91505e-05
1.30557e-06
2.95014e-05
1.25967e-06
2.97101e-05
1.41803e-06
2.99561e-05
1.03039e-06
3.01865e-05
1.027e-06
3.03384e-05
8.67432e-07
3.05268e-05
8.15163e-07
3.07395e-05
5.37653e-07
3.08304e-05
1.04606e-06
3.09826e-05
4.66748e-07
3.11179e-05
9.92533e-07
3.11311e-05
1.01481e-06
3.14609e-05
8.02294e-07
3.14926e-05
1.0312e-06
1.20284e-06
3.186e-05
2.56568e-05
1.43349e-06
2.6749e-05
3.09501e-06
2.76631e-05
2.4501e-06
2.80432e-05
1.90283e-06
2.83956e-05
9.68158e-07
2.88236e-05
8.7762e-07
2.92221e-05
8.6113e-07
2.94969e-05
1.1432e-06
2.97772e-05
7.50092e-07
3.00619e-05
7.42354e-07
3.01833e-05
7.46034e-07
3.03928e-05
6.05629e-07
3.06105e-05
3.19975e-07
3.0821e-05
8.3555e-07
3.09494e-05
3.38343e-07
3.11409e-05
8.00997e-07
3.13796e-05
7.76171e-07
3.17134e-05
4.68477e-07
3.17768e-05
9.67814e-07
8.13643e-07
3.2166e-05
2.55417e-05
8.91744e-07
2.65811e-05
2.05565e-06
2.74652e-05
1.56598e-06
2.80126e-05
1.35542e-06
2.8296e-05
6.84829e-07
2.86812e-05
4.92357e-07
2.90109e-05
5.31479e-07
2.93238e-05
8.30307e-07
2.96e-05
4.73821e-07
2.98695e-05
4.72909e-07
2.9992e-05
6.2348e-07
3.02332e-05
3.64439e-07
3.04263e-05
1.26872e-07
3.06851e-05
5.76779e-07
3.07753e-05
2.48157e-07
3.0973e-05
6.03292e-07
3.13276e-05
4.21613e-07
3.15683e-05
2.27759e-07
3.16332e-05
9.02854e-07
5.52118e-07
3.18948e-05
2.54992e-05
3.92538e-07
2.65685e-05
9.86328e-07
2.72541e-05
8.80447e-07
2.7855e-05
7.54497e-07
2.83188e-05
2.21041e-07
2.86116e-05
1.9952e-07
2.87903e-05
3.52801e-07
2.92091e-05
4.11536e-07
2.95373e-05
1.45542e-07
2.97252e-05
2.85045e-07
2.99207e-05
4.27989e-07
3.01739e-05
1.11234e-07
3.02565e-05
4.43126e-08
3.05586e-05
2.74616e-07
3.0723e-05
8.37283e-08
3.08888e-05
4.37528e-07
3.12047e-05
1.05775e-07
3.13564e-05
7.6021e-08
3.15818e-05
6.77444e-07
2.39611e-07
3.18943e-05
2.54362e-05
-4.36363e-08
2.63684e-05
5.40948e-08
2.7214e-05
3.48306e-08
2.79406e-05
2.79373e-08
2.82928e-05
-1.31154e-07
2.85215e-05
-2.92097e-08
2.87653e-05
1.09005e-07
2.9137e-05
3.9821e-08
2.94002e-05
-1.1763e-07
2.96606e-05
2.46223e-08
2.99567e-05
1.31862e-07
3.01463e-05
-7.83622e-08
3.02008e-05
-1.01645e-08
3.05253e-05
-4.98405e-08
3.06758e-05
-6.67673e-08
3.08434e-05
2.69861e-07
3.11037e-05
-1.54476e-07
3.12273e-05
-4.75948e-08
3.15882e-05
3.16573e-07
-1.66358e-07
3.19941e-05
2.53968e-05
-4.40482e-07
2.64184e-05
-9.67489e-07
2.73017e-05
-8.48457e-07
2.79198e-05
-5.90181e-07
2.81952e-05
-4.06525e-07
2.85006e-05
-3.34594e-07
2.88337e-05
-2.24107e-07
2.9138e-05
-2.64485e-07
2.93909e-05
-3.70551e-07
2.9694e-05
-2.78477e-07
2.99453e-05
-1.19407e-07
3.01188e-05
-2.51877e-07
3.02609e-05
-1.5221e-07
3.04911e-05
-2.80105e-07
3.05855e-05
-1.61129e-07
3.09047e-05
-4.93961e-08
3.11166e-05
-3.66355e-07
3.12249e-05
-1.55864e-07
3.1547e-05
-5.5495e-09
-4.33432e-07
3.18141e-05
2.54466e-05
-8.87127e-07
2.64871e-05
-2.00793e-06
2.7352e-05
-1.71335e-06
2.79579e-05
-1.19615e-06
2.82267e-05
-6.75318e-07
2.85574e-05
-6.65298e-07
2.88671e-05
-5.33803e-07
2.9222e-05
-6.19319e-07
2.94902e-05
-6.38805e-07
2.97214e-05
-5.0961e-07
2.99393e-05
-3.37373e-07
3.01763e-05
-4.88893e-07
3.03489e-05
-3.248e-07
3.05162e-05
-4.47391e-07
3.06594e-05
-3.04332e-07
3.09557e-05
-3.45694e-07
3.10984e-05
-5.0908e-07
3.1367e-05
-4.24447e-07
3.16624e-05
-3.00904e-07
-4.25041e-07
3.1654e-05
2.55388e-05
-1.42597e-06
2.65717e-05
-3.04082e-06
2.74403e-05
-2.58193e-06
2.80264e-05
-1.78218e-06
2.8342e-05
-9.90929e-07
2.86694e-05
-9.92772e-07
2.89724e-05
-8.36759e-07
2.9333e-05
-9.79914e-07
2.95825e-05
-8.88364e-07
2.98366e-05
-7.63684e-07
3.00468e-05
-5.47604e-07
3.02828e-05
-7.24878e-07
3.04447e-05
-4.86642e-07
3.05924e-05
-5.95094e-07
3.0769e-05
-4.80954e-07
3.1059e-05
-6.35738e-07
3.1216e-05
-6.66024e-07
3.15219e-05
-7.30364e-07
3.1775e-05
-5.53954e-07
-5.59932e-07
3.19098e-05
2.56634e-05
-2.0894e-06
2.67345e-05
-4.11191e-06
2.76306e-05
-3.47801e-06
2.8079e-05
-2.23056e-06
2.84499e-05
-1.36183e-06
2.88347e-05
-1.37755e-06
2.91866e-05
-1.18868e-06
2.94949e-05
-1.28822e-06
2.97542e-05
-1.1477e-06
3.00209e-05
-1.03035e-06
3.02135e-05
-7.4022e-07
3.04307e-05
-9.42087e-07
3.059e-05
-6.45956e-07
3.07678e-05
-7.72894e-07
3.09402e-05
-6.53341e-07
3.1207e-05
-9.02542e-07
3.13558e-05
-8.14793e-07
3.16386e-05
-1.01314e-06
3.1894e-05
-8.09392e-07
-8.52347e-07
3.21864e-05
2.58392e-05
-2.92856e-06
2.69802e-05
-5.25292e-06
2.78234e-05
-4.32121e-06
2.82053e-05
-2.61248e-06
2.86893e-05
-1.84585e-06
2.91072e-05
-1.79541e-06
2.94553e-05
-1.53678e-06
2.9734e-05
-1.56693e-06
2.99986e-05
-1.41229e-06
3.01782e-05
-1.20993e-06
3.03708e-05
-9.32856e-07
3.05373e-05
-1.10863e-06
3.07003e-05
-8.08954e-07
3.08312e-05
-9.0371e-07
3.09675e-05
-7.89636e-07
3.11281e-05
-1.06317e-06
3.11994e-05
-8.861e-07
3.13928e-05
-1.20655e-06
3.15746e-05
-9.912e-07
-1.15825e-06
3.18805e-05
2.605e-05
-3.97853e-06
2.72539e-05
-6.45689e-06
2.80126e-05
-5.07988e-06
2.84819e-05
-3.08179e-06
2.89871e-05
-2.35101e-06
2.93296e-05
-2.13793e-06
2.95981e-05
-1.80523e-06
2.97412e-05
-1.71005e-06
2.98528e-05
-1.52392e-06
2.98921e-05
-1.24923e-06
2.99587e-05
-9.99424e-07
2.99403e-05
-1.09026e-06
2.99589e-05
-8.27559e-07
2.99106e-05
-8.55462e-07
2.98828e-05
-7.61765e-07
2.97974e-05
-9.77838e-07
2.97011e-05
-7.89801e-07
2.96475e-05
-1.15286e-06
2.96072e-05
-9.50938e-07
-1.25314e-06
2.97021e-05
2.63195e-05
-5.29801e-06
2.75441e-05
-7.68156e-06
2.80559e-05
-5.59161e-06
2.84579e-05
-3.48382e-06
2.86501e-05
-2.54317e-06
2.86161e-05
-2.10398e-06
2.84863e-05
-1.67542e-06
2.82361e-05
-1.45982e-06
2.79567e-05
-1.24454e-06
2.76846e-05
-9.77147e-07
2.74403e-05
-7.55163e-07
2.71443e-05
-7.9421e-07
2.69182e-05
-6.0149e-07
2.66599e-05
-5.97096e-07
2.64322e-05
-5.34154e-07
2.61448e-05
-6.90434e-07
2.59101e-05
-5.55096e-07
2.56017e-05
-8.44374e-07
2.53955e-05
-7.44806e-07
-1.14191e-06
2.52843e-05
2.66127e-05
-6.91074e-06
2.71567e-05
-8.22554e-06
2.67669e-05
-5.20183e-06
2.6261e-05
-2.97789e-06
2.56026e-05
-1.88475e-06
2.48631e-05
-1.36445e-06
2.41692e-05
-9.81557e-07
2.35063e-05
-7.96864e-07
2.29196e-05
-6.57909e-07
2.24425e-05
-5.0004e-07
2.20455e-05
-3.58117e-07
2.16554e-05
-4.0415e-07
2.13543e-05
-3.0039e-07
2.10566e-05
-2.99379e-07
2.07925e-05
-2.70103e-07
2.04787e-05
-3.76619e-07
2.02264e-05
-3.02732e-07
1.98361e-05
-4.54068e-07
1.95015e-05
-4.1022e-07
-3.46682e-07
1.87062e-05
2.54546e-05
-7.36538e-06
2.32468e-05
-6.01769e-06
2.09821e-05
-2.93712e-06
1.93258e-05
-1.3216e-06
1.80764e-05
-6.3532e-07
1.7102e-05
-3.90145e-07
1.63726e-05
-2.52125e-07
1.57787e-05
-2.02928e-07
1.52968e-05
-1.76032e-07
1.49283e-05
-1.31589e-07
1.46462e-05
-7.59251e-08
1.43581e-05
-1.16059e-07
1.41393e-05
-8.15862e-08
1.39232e-05
-8.33418e-08
1.37278e-05
-7.46824e-08
1.34778e-05
-1.26659e-07
1.32694e-05
-9.43374e-08
1.29643e-05
-1.48892e-07
1.27398e-05
-1.85761e-07
-1.53561e-08
1.24085e-05
1.76346e-05
1.16169e-05
8.67981e-06
7.35821e-06
6.72289e-06
6.33274e-06
6.08062e-06
5.87769e-06
5.70166e-06
5.57007e-06
5.49414e-06
5.37808e-06
5.2965e-06
5.21316e-06
5.13847e-06
5.01182e-06
4.91748e-06
4.76859e-06
4.58282e-06
4.56747e-06
5.31758e-06
1.43186e-07
-7.98324e-07
5.73506e-06
1.01851e-07
-5.19334e-07
5.96135e-06
-1.39595e-07
-8.66925e-08
6.18927e-06
-3.38413e-07
1.10496e-07
6.37631e-06
-3.96702e-07
2.0966e-07
6.52245e-06
-3.43067e-07
1.96921e-07
6.59592e-06
-2.36824e-07
1.63357e-07
6.63949e-06
-6.40488e-08
2.04806e-08
6.66893e-06
5.05871e-08
-8.00279e-08
6.72058e-06
1.68228e-07
-2.19879e-07
6.83917e-06
3.09581e-07
-4.28174e-07
7.03563e-06
4.03253e-07
-5.99711e-07
7.33629e-06
5.05528e-07
-8.06188e-07
7.69707e-06
6.08262e-07
-9.6904e-07
8.08258e-06
6.52388e-07
-1.0379e-06
8.49107e-06
6.48884e-07
-1.05737e-06
8.87824e-06
6.19192e-07
-1.00635e-06
9.21275e-06
5.152e-07
-8.49716e-07
9.42948e-06
3.62178e-07
-5.78906e-07
9.5267e-06
1.82269e-07
-2.7949e-07
9.50272e-06
2.87482e-08
-4.76761e-09
9.42559e-06
-9.05646e-08
1.67699e-07
9.34149e-06
-1.64073e-07
2.4817e-07
9.2631e-06
-1.94375e-07
2.72765e-07
9.20441e-06
-1.98617e-07
2.57305e-07
9.18575e-06
-1.84429e-07
2.03093e-07
9.18451e-06
-1.24034e-07
1.2527e-07
9.21064e-06
-6.80747e-08
4.19527e-08
9.26428e-06
1.6969e-08
-7.06109e-08
9.3379e-06
1.01336e-07
-1.74962e-07
9.44716e-06
2.0398e-07
-3.1324e-07
9.58532e-06
3.12521e-07
-4.50677e-07
9.77947e-06
4.23316e-07
-6.17463e-07
9.98833e-06
5.25143e-07
-7.34011e-07
1.0258e-05
5.95341e-07
-8.64959e-07
1.05458e-05
6.7432e-07
-9.6218e-07
1.08657e-05
7.04854e-07
-1.02474e-06
1.12212e-05
6.99337e-07
-1.05481e-06
1.15873e-05
6.77193e-07
-1.04332e-06
1.19802e-05
5.65856e-07
-9.58758e-07
1.23428e-05
4.70439e-07
-8.33009e-07
1.26706e-05
3.23371e-07
-6.51212e-07
1.30044e-05
1.39275e-07
-4.73098e-07
1.33419e-05
-1.67597e-08
-3.20718e-07
1.36656e-05
-1.93439e-07
-1.30228e-07
1.40247e-05
-4.80387e-07
1.21268e-07
1.43273e-05
-6.45323e-07
3.42754e-07
1.46261e-05
-1.0057e-06
7.06875e-07
1.49532e-05
-1.31318e-06
9.86118e-07
1.52132e-05
-1.52289e-06
1.2629e-06
1.55427e-05
-2.00667e-06
1.67711e-06
1.57906e-05
-2.15995e-06
1.91207e-06
1.60253e-05
-2.48589e-06
2.25116e-06
1.62759e-05
-2.81859e-06
2.56797e-06
1.64561e-05
-2.95183e-06
2.77168e-06
1.66578e-05
-3.22623e-06
3.02454e-06
1.68537e-05
-3.23131e-06
3.03537e-06
1.71303e-05
-3.24601e-06
2.96938e-06
1.74642e-05
-3.18397e-06
2.85011e-06
1.78231e-05
-2.97818e-06
2.61928e-06
1.8148e-05
-2.79734e-06
2.47241e-06
1.84507e-05
-2.47964e-06
2.177e-06
1.86823e-05
-2.2201e-06
1.9885e-06
1.88801e-05
-1.88669e-06
1.68888e-06
1.90845e-05
-1.60017e-06
1.39572e-06
1.93343e-05
-1.28685e-06
1.03711e-06
1.96372e-05
-8.99754e-07
5.96802e-07
1.97967e-05
-5.83297e-07
4.23765e-07
2.0107e-05
-5.96437e-07
2.86206e-07
2.03341e-05
-3.10257e-07
8.3132e-08
2.05267e-05
-2.63358e-07
7.07231e-08
2.07663e-05
-3.53033e-07
1.13477e-07
2.10485e-05
-2.72373e-07
-9.88208e-09
2.12543e-05
-5.34748e-07
3.28944e-07
2.14412e-05
-7.99132e-07
6.12297e-07
2.16449e-05
-8.97486e-07
6.93764e-07
2.1946e-05
-1.26848e-06
9.67413e-07
2.21706e-05
-1.66222e-06
1.43763e-06
2.24102e-05
-1.9907e-06
1.75105e-06
2.27495e-05
-2.35189e-06
2.01256e-06
2.30969e-05
-2.85818e-06
2.51077e-06
2.34628e-05
-3.30675e-06
2.94085e-06
2.39169e-05
-3.74928e-06
3.29521e-06
2.44418e-05
-4.29037e-06
3.76549e-06
2.50873e-05
-4.93732e-06
4.29182e-06
2.56611e-05
-5.44309e-06
4.86928e-06
2.63692e-05
-6.10826e-06
5.40019e-06
2.7132e-05
-6.83953e-06
6.07667e-06
2.79897e-05
-7.67967e-06
6.822e-06
2.87432e-05
-8.47751e-06
7.72398e-06
2.96331e-05
-9.36386e-06
8.47397e-06
3.04397e-05
-1.04003e-05
9.59374e-06
3.10947e-05
-1.13318e-05
1.06768e-05
3.16188e-05
-1.23021e-05
1.1778e-05
3.19456e-05
-1.31373e-05
1.28105e-05
3.20061e-05
-1.39012e-05
1.38407e-05
3.18209e-05
-1.44778e-05
1.4663e-05
3.13591e-05
-1.48719e-05
1.53337e-05
3.07218e-05
-1.50832e-05
1.57205e-05
3.01347e-05
-1.52959e-05
1.58829e-05
2.95775e-05
-1.53755e-05
1.59327e-05
2.92491e-05
-1.5621e-05
1.59495e-05
2.9108e-05
-1.58419e-05
1.5983e-05
2.91427e-05
-1.59388e-05
1.59041e-05
2.92207e-05
-1.61975e-05
1.61194e-05
2.91797e-05
-1.6168e-05
1.6209e-05
2.90537e-05
-1.61738e-05
1.62998e-05
2.86866e-05
-1.59158e-05
1.62829e-05
2.80836e-05
-1.55983e-05
1.62013e-05
2.73122e-05
-1.51747e-05
1.59461e-05
2.64507e-05
-1.47157e-05
1.55772e-05
2.56435e-05
-1.42892e-05
1.50964e-05
2.49526e-05
-1.37371e-05
1.4428e-05
2.44062e-05
-1.30668e-05
1.36133e-05
2.42373e-05
-1.23388e-05
1.25077e-05
2.42865e-05
-1.15599e-05
1.15108e-05
2.44954e-05
-1.03088e-05
1.00998e-05
2.491e-05
-9.02101e-06
8.60639e-06
2.51402e-05
-7.42774e-06
7.19754e-06
2.52863e-05
-5.52778e-06
5.38169e-06
2.54144e-05
-3.58038e-06
3.45232e-06
2.55286e-05
-1.94924e-06
1.83498e-06
2.55431e-05
2.94312e-08
-4.38633e-08
2.56802e-05
1.79277e-06
-1.92987e-06
2.59488e-05
3.39936e-06
-3.66804e-06
2.63086e-05
5.01626e-06
-5.376e-06
2.66221e-05
6.79909e-06
-7.11266e-06
2.6911e-05
8.48301e-06
-8.77185e-06
2.70181e-05
1.0463e-05
-1.05701e-05
2.68471e-05
1.22194e-05
-1.20484e-05
2.62993e-05
1.35957e-05
-1.30479e-05
2.52785e-05
1.47262e-05
-1.37054e-05
2.39618e-05
1.54023e-05
-1.40856e-05
2.26715e-05
1.50452e-05
-1.3755e-05
2.12527e-05
1.42676e-05
-1.28488e-05
1.97945e-05
1.34845e-05
-1.20262e-05
1.86169e-05
1.2501e-05
-1.13234e-05
1.78751e-05
1.10731e-05
-1.03313e-05
1.71604e-05
1.0361e-05
-9.64628e-06
1.65194e-05
1.00003e-05
-9.35923e-06
1.62574e-05
9.42323e-06
-9.16122e-06
1.62678e-05
8.69575e-06
-8.70617e-06
1.58994e-05
8.85972e-06
-8.49132e-06
1.56457e-05
9.32382e-06
-9.07013e-06
1.55546e-05
1.032e-05
-1.02289e-05
1.57099e-05
1.03994e-05
-1.05547e-05
1.61066e-05
1.06081e-05
-1.10048e-05
1.65499e-05
1.07511e-05
-1.11944e-05
1.70357e-05
1.18522e-05
-1.2338e-05
1.74245e-05
1.32106e-05
-1.35993e-05
1.79581e-05
1.51501e-05
-1.56837e-05
1.83615e-05
1.76023e-05
-1.80057e-05
1.86888e-05
1.95553e-05
-1.98826e-05
1.88795e-05
2.13282e-05
-2.15188e-05
1.90357e-05
2.20773e-05
-2.22336e-05
1.89037e-05
2.25219e-05
-2.23898e-05
1.87857e-05
2.13483e-05
-2.12304e-05
1.85486e-05
1.98346e-05
-1.95976e-05
1.83207e-05
1.75851e-05
-1.73571e-05
1.80315e-05
1.52631e-05
-1.49739e-05
1.7717e-05
1.32195e-05
-1.29049e-05
1.73464e-05
1.1129e-05
-1.07584e-05
1.71171e-05
8.57817e-06
-8.34888e-06
1.69531e-05
6.33919e-06
-6.17519e-06
1.69454e-05
3.64187e-06
-3.6342e-06
1.68614e-05
2.851e-06
-2.76697e-06
1.70938e-05
-2.925e-08
-2.03153e-07
1.67485e-05
-3.23688e-07
6.68966e-07
1.70122e-05
-4.08907e-06
3.82539e-06
1.68751e-05
-4.31028e-06
4.44733e-06
1.75516e-05
-8.75473e-06
8.07824e-06
1.76509e-05
-8.50526e-06
8.40601e-06
1.84177e-05
-1.25262e-05
1.17594e-05
1.86777e-05
-1.15317e-05
1.12717e-05
1.93528e-05
-1.48425e-05
1.41674e-05
1.98359e-05
-1.54868e-05
1.50037e-05
2.09653e-05
-2.00748e-05
1.89453e-05
2.19061e-05
-2.09012e-05
1.99604e-05
2.26959e-05
-2.13061e-05
2.05164e-05
2.32238e-05
-1.99346e-05
1.94067e-05
2.35367e-05
-1.76793e-05
1.73663e-05
2.38954e-05
-1.44618e-05
1.41031e-05
2.36099e-05
-1.1258e-05
1.15435e-05
2.44237e-05
-8.04376e-06
7.22999e-06
2.39168e-05
-4.11803e-06
4.62491e-06
2.4727e-05
-1.95856e-06
1.14831e-06
2.43944e-05
2.00098e-06
-1.66833e-06
2.47112e-05
4.60499e-06
-4.92185e-06
2.3619e-05
7.0107e-06
-5.91844e-06
2.36419e-05
7.48161e-06
-7.50456e-06
2.27139e-05
1.01659e-05
-9.23785e-06
2.2465e-05
1.05515e-05
-1.03027e-05
2.20526e-05
1.21621e-05
-1.17496e-05
2.13014e-05
1.29248e-05
-1.21736e-05
2.13104e-05
1.36331e-05
-1.36421e-05
2.0277e-05
1.55252e-05
-1.44918e-05
2.04e-05
1.69883e-05
-1.71113e-05
1.86156e-05
2.25435e-05
-2.07591e-05
1.85519e-05
2.42757e-05
-2.4212e-05
3.57363e-05
-3.49635e-05
1.77791e-05
1.25762e-05
1.38791e-08
1.27165e-05
-3.83954e-08
1.28298e-05
-2.52856e-07
1.29356e-05
-4.44297e-07
1.30406e-05
-5.01694e-07
1.31307e-05
-4.33121e-07
1.31437e-05
-2.49866e-07
1.31762e-05
-9.64766e-08
1.31522e-05
7.4549e-08
1.31145e-05
2.05916e-07
1.31016e-05
3.22461e-07
1.30999e-05
4.04955e-07
1.31525e-05
4.52962e-07
1.32544e-05
5.06393e-07
1.33784e-05
5.28349e-07
1.35252e-05
5.02093e-07
1.36862e-05
4.58152e-07
1.38351e-05
3.66312e-07
1.39519e-05
2.45394e-07
1.4014e-05
1.20122e-07
1.4058e-05
-1.5237e-08
1.40602e-05
-9.27476e-08
1.40569e-05
-1.6077e-07
1.40658e-05
-2.03273e-07
1.4058e-05
-1.90834e-07
1.40827e-05
-2.09089e-07
1.41069e-05
-1.48259e-07
1.41529e-05
-1.14062e-07
1.42141e-05
-4.42852e-08
1.42811e-05
3.44074e-08
1.439e-05
9.50794e-08
1.44891e-05
2.1344e-07
1.46545e-05
2.57867e-07
1.48154e-05
3.64239e-07
1.50109e-05
3.9983e-07
1.52558e-05
4.29445e-07
1.54836e-05
4.77035e-07
1.57766e-05
4.06363e-07
1.60522e-05
4.016e-07
1.63402e-05
2.77808e-07
1.66837e-05
1.26989e-07
1.69613e-05
4.57604e-08
1.72991e-05
-1.98489e-07
1.76495e-05
-3.67218e-07
1.79496e-05
-4.93522e-07
1.83692e-05
-9.00003e-07
1.87066e-05
-9.82672e-07
1.90516e-05
-1.35071e-06
1.94607e-05
-1.72227e-06
1.97846e-05
-1.84679e-06
2.0146e-05
-2.36811e-06
2.04804e-05
-2.4943e-06
2.07941e-05
-2.79959e-06
2.11049e-05
-3.12945e-06
2.13718e-05
-3.21873e-06
2.16192e-05
-3.47364e-06
2.18606e-05
-3.47269e-06
2.20887e-05
-3.47404e-06
2.23097e-05
-3.40503e-06
2.25556e-05
-3.22409e-06
2.27338e-05
-2.97548e-06
2.30382e-05
-2.78404e-06
2.32237e-05
-2.4056e-06
2.34312e-05
-2.09415e-06
2.36826e-05
-1.85158e-06
2.38152e-05
-1.41944e-06
2.40808e-05
-1.1654e-06
2.43367e-05
-8.39227e-07
2.44298e-05
-6.89524e-07
2.46324e-05
-5.12806e-07
2.4885e-05
-5.15992e-07
2.50486e-05
-5.16589e-07
2.52443e-05
-4.68093e-07
2.54547e-05
-7.45218e-07
2.557e-05
-9.14371e-07
2.58291e-05
-1.15656e-06
2.60636e-05
-1.50304e-06
2.62516e-05
-1.85017e-06
2.64689e-05
-2.20799e-06
2.68375e-05
-2.72052e-06
2.70847e-05
-3.10543e-06
2.74299e-05
-3.65194e-06
2.78715e-05
-4.19083e-06
2.83108e-05
-4.72973e-06
2.87199e-05
-5.34638e-06
2.92398e-05
-5.96297e-06
2.98475e-05
-6.716e-06
3.03998e-05
-7.39186e-06
3.08969e-05
-8.17677e-06
3.14461e-05
-9.02665e-06
3.1945e-05
-9.86274e-06
3.21896e-05
-1.06449e-05
3.23282e-05
-1.14704e-05
3.22886e-05
-1.22626e-05
3.20687e-05
-1.29174e-05
3.15837e-05
-1.34162e-05
3.09578e-05
-1.38519e-05
3.0329e-05
-1.42431e-05
2.97748e-05
-1.4529e-05
2.93985e-05
-1.49196e-05
2.92513e-05
-1.52283e-05
2.92664e-05
-1.56362e-05
2.92881e-05
-1.58636e-05
2.92127e-05
-1.58634e-05
2.89072e-05
-1.58919e-05
2.84325e-05
-1.56934e-05
2.76549e-05
-1.53961e-05
2.64978e-05
-1.47587e-05
2.51686e-05
-1.42691e-05
2.37947e-05
-1.38008e-05
2.23968e-05
-1.33178e-05
2.11746e-05
-1.30671e-05
2.04553e-05
-1.30177e-05
2.04339e-05
-1.30455e-05
2.09703e-05
-1.28752e-05
2.15721e-05
-1.21618e-05
2.226e-05
-1.09967e-05
2.29335e-05
-9.69445e-06
2.33096e-05
-7.80391e-06
2.34702e-05
-5.68831e-06
2.35664e-05
-3.67664e-06
2.35163e-05
-1.89907e-06
2.32718e-05
2.73884e-07
2.31035e-05
1.96111e-06
2.30853e-05
3.41752e-06
2.32465e-05
4.8551e-06
2.36268e-05
6.41874e-06
2.42126e-05
7.89724e-06
2.46617e-05
1.00138e-05
2.48605e-05
1.20206e-05
2.46719e-05
1.37843e-05
2.39722e-05
1.54259e-05
2.30252e-05
1.63494e-05
2.19773e-05
1.60931e-05
2.06897e-05
1.55553e-05
1.92374e-05
1.49367e-05
1.81147e-05
1.36236e-05
1.72063e-05
1.19816e-05
1.63105e-05
1.12568e-05
1.55402e-05
1.07706e-05
1.52243e-05
9.73908e-06
1.49831e-05
8.93701e-06
1.4828e-05
9.01473e-06
1.45615e-05
9.59035e-06
1.46519e-05
1.02296e-05
1.48374e-05
1.02139e-05
1.55209e-05
9.92461e-06
1.60551e-05
1.02169e-05
1.68753e-05
1.10321e-05
1.75874e-05
1.24984e-05
1.83145e-05
1.4423e-05
1.90119e-05
1.69048e-05
1.95473e-05
1.90199e-05
2.0026e-05
2.08495e-05
2.02629e-05
2.18404e-05
2.03874e-05
2.23974e-05
2.02756e-05
2.14602e-05
2.02406e-05
1.98696e-05
2.00991e-05
1.77265e-05
1.99104e-05
1.54518e-05
1.9672e-05
1.34579e-05
1.92999e-05
1.1501e-05
1.90771e-05
8.80105e-06
1.86706e-05
6.74566e-06
1.89297e-05
3.3828e-06
1.87242e-05
3.05652e-06
1.89835e-05
-2.88628e-07
1.85585e-05
1.01347e-07
1.90633e-05
-4.59383e-06
1.88668e-05
-4.11379e-06
1.95385e-05
-9.42643e-06
1.94572e-05
-8.42393e-06
2.03295e-05
-1.33985e-05
2.02299e-05
-1.14322e-05
2.13173e-05
-1.59299e-05
2.13944e-05
-1.55639e-05
2.30577e-05
-2.1738e-05
2.30209e-05
-2.08644e-05
2.41756e-05
-2.24608e-05
2.37564e-05
-1.95154e-05
2.38649e-05
-1.77878e-05
2.39671e-05
-1.4564e-05
2.35897e-05
-1.08806e-05
2.36133e-05
-8.06738e-06
2.36258e-05
-4.13056e-06
2.338e-05
-1.71272e-06
2.37107e-05
1.6703e-06
2.36304e-05
4.68523e-06
2.37576e-05
6.8835e-06
2.30948e-05
8.14444e-06
2.34815e-05
9.7792e-06
2.25169e-05
1.1516e-05
2.2232e-05
1.2447e-05
2.07754e-05
1.43814e-05
2.03227e-05
1.40858e-05
1.8755e-05
1.70928e-05
1.94038e-05
1.63395e-05
1.89717e-05
2.29756e-05
2.48486e-05
1.83988e-05
3.63063e-05
2.42786e-05
1.90038e-05
-3.79168e-08
1.91779e-05
-2.12515e-07
1.93608e-05
-4.35801e-07
1.95022e-05
-5.85709e-07
1.95594e-05
-5.58885e-07
1.95855e-05
-4.59201e-07
1.95809e-05
-2.45298e-07
1.95645e-05
-8.00178e-08
1.95428e-05
9.61899e-08
1.95008e-05
2.47955e-07
1.94881e-05
3.35114e-07
1.94656e-05
4.2745e-07
1.94693e-05
4.49338e-07
1.94993e-05
4.76349e-07
1.95444e-05
4.83292e-07
1.96077e-05
4.38764e-07
1.96633e-05
4.0256e-07
1.97261e-05
3.03538e-07
1.97709e-05
2.00516e-07
1.97863e-05
1.04812e-07
1.98023e-05
-3.13007e-08
1.98021e-05
-9.25066e-08
1.97962e-05
-1.54937e-07
1.98025e-05
-2.09481e-07
1.97894e-05
-1.77759e-07
1.98087e-05
-2.28372e-07
1.9821e-05
-1.60618e-07
1.98424e-05
-1.35478e-07
1.99025e-05
-1.04397e-07
1.99324e-05
4.5747e-09
2.00272e-05
2.51902e-10
2.01048e-05
1.358e-07
2.02143e-05
1.484e-07
2.03684e-05
2.10144e-07
2.0499e-05
2.69205e-07
2.07027e-05
2.25802e-07
2.09001e-05
2.79583e-07
2.111e-05
1.96458e-07
2.13755e-05
1.36123e-07
2.1586e-05
6.73015e-08
2.18631e-05
-1.50058e-07
2.21443e-05
-2.35432e-07
2.23997e-05
-4.53891e-07
2.27298e-05
-6.97388e-07
2.30242e-05
-7.8794e-07
2.33501e-05
-1.22587e-06
2.36891e-05
-1.3217e-06
2.40334e-05
-1.69497e-06
2.43447e-05
-2.03356e-06
2.46584e-05
-2.16052e-06
2.5003e-05
-2.71267e-06
2.52299e-05
-2.7212e-06
2.55724e-05
-3.14213e-06
2.57671e-05
-3.32417e-06
2.59715e-05
-3.42316e-06
2.6153e-05
-3.65508e-06
2.62519e-05
-3.57163e-06
2.64431e-05
-3.66527e-06
2.6508e-05
-3.46987e-06
2.66717e-05
-3.38779e-06
2.68081e-05
-3.11188e-06
2.69311e-05
-2.90706e-06
2.71112e-05
-2.58573e-06
2.72245e-05
-2.20745e-06
2.73414e-05
-1.96849e-06
2.74801e-05
-1.55808e-06
2.76099e-05
-1.29519e-06
2.78103e-05
-1.03963e-06
2.79803e-05
-8.59548e-07
2.80858e-05
-6.18361e-07
2.83083e-05
-7.38415e-07
2.84513e-05
-6.59611e-07
2.86058e-05
-6.22603e-07
2.88317e-05
-9.71136e-07
2.89414e-05
-1.02408e-06
2.91149e-05
-1.33009e-06
2.93137e-05
-1.70174e-06
2.9492e-05
-2.02848e-06
2.96609e-05
-2.37694e-06
2.98908e-05
-2.9504e-06
3.01419e-05
-3.35648e-06
3.03582e-05
-3.86831e-06
3.0627e-05
-4.45964e-06
3.09231e-05
-5.0258e-06
3.11912e-05
-5.61442e-06
3.15368e-05
-6.30862e-06
3.17796e-05
-6.95878e-06
3.20501e-05
-7.66234e-06
3.22447e-05
-8.37142e-06
3.23495e-05
-9.13141e-06
3.23211e-05
-9.8344e-06
3.21995e-05
-1.05233e-05
3.19332e-05
-1.12041e-05
3.14734e-05
-1.18028e-05
3.09104e-05
-1.23544e-05
3.03496e-05
-1.28554e-05
2.98697e-05
-1.33719e-05
2.94811e-05
-1.38545e-05
2.9375e-05
-1.44229e-05
2.94063e-05
-1.49509e-05
2.9502e-05
-1.5324e-05
2.93806e-05
-1.55148e-05
2.90586e-05
-1.55416e-05
2.85588e-05
-1.53636e-05
2.76503e-05
-1.49834e-05
2.64546e-05
-1.44977e-05
2.4871e-05
-1.38125e-05
2.30644e-05
-1.29521e-05
2.11887e-05
-1.23934e-05
1.91066e-05
-1.17187e-05
1.71701e-05
-1.13813e-05
1.63764e-05
-1.22734e-05
1.68261e-05
-1.34674e-05
1.79946e-05
-1.4214e-05
1.93238e-05
-1.42044e-05
2.04625e-05
-1.33005e-05
2.13649e-05
-1.18991e-05
2.19026e-05
-1.02321e-05
2.22109e-05
-8.11223e-06
2.2361e-05
-5.83844e-06
2.24499e-05
-3.7655e-06
2.22479e-05
-1.69708e-06
2.1861e-05
6.60721e-07
2.13147e-05
2.50742e-06
2.07807e-05
3.95151e-06
2.05557e-05
5.08015e-06
2.08252e-05
6.14921e-06
2.13442e-05
7.37826e-06
2.19053e-05
9.45269e-06
2.23712e-05
1.15548e-05
2.24964e-05
1.36591e-05
2.22763e-05
1.5646e-05
2.17773e-05
1.68484e-05
2.08982e-05
1.69722e-05
1.97083e-05
1.67452e-05
1.84176e-05
1.62275e-05
1.74175e-05
1.46237e-05
1.63674e-05
1.30316e-05
1.54691e-05
1.21552e-05
1.46623e-05
1.15773e-05
1.43211e-05
1.00804e-05
1.40212e-05
9.23685e-06
1.39884e-05
9.04754e-06
1.36282e-05
9.95051e-06
1.38846e-05
9.97333e-06
1.4203e-05
9.89544e-06
1.49315e-05
9.19612e-06
1.55593e-05
9.58911e-06
1.64253e-05
1.0166e-05
1.75961e-05
1.13276e-05
1.84909e-05
1.35282e-05
1.95214e-05
1.58743e-05
2.02361e-05
1.83052e-05
2.10312e-05
2.00543e-05
2.13664e-05
2.15053e-05
2.18353e-05
2.19286e-05
2.18641e-05
2.14313e-05
2.1789e-05
1.99448e-05
2.17304e-05
1.77851e-05
2.1485e-05
1.56972e-05
2.14085e-05
1.35344e-05
2.11432e-05
1.17663e-05
2.09133e-05
9.03093e-06
2.06379e-05
7.02106e-06
2.06052e-05
3.41554e-06
2.02886e-05
3.37312e-06
2.06437e-05
-6.43722e-07
2.06439e-05
1.01147e-07
2.09723e-05
-4.92227e-06
2.09e-05
-4.04149e-06
2.13688e-05
-9.89525e-06
2.14986e-05
-8.55373e-06
2.21329e-05
-1.40328e-05
2.20802e-05
-1.13795e-05
2.29011e-05
-1.67508e-05
2.3137e-05
-1.57998e-05
2.45658e-05
-2.31669e-05
2.43535e-05
-2.06521e-05
2.48695e-05
-2.29767e-05
2.38771e-05
-1.85231e-05
2.41793e-05
-1.809e-05
2.2987e-05
-1.33717e-05
2.33433e-05
-1.12368e-05
2.23578e-05
-7.08191e-06
2.3048e-05
-4.82078e-06
2.24437e-05
-1.10836e-06
2.32115e-05
9.02486e-07
2.33746e-05
4.5221e-06
2.39e-05
6.35806e-06
2.3384e-05
8.66049e-06
2.32745e-05
9.88865e-06
2.24342e-05
1.23564e-05
2.26957e-05
1.21855e-05
2.1909e-05
1.51681e-05
2.29141e-05
1.30808e-05
2.16348e-05
1.83721e-05
2.45835e-05
1.33908e-05
2.18362e-05
2.57229e-05
2.7704e-05
1.2531e-05
3.44844e-05
2.95259e-05
2.43454e-05
-2.31296e-07
2.47853e-05
-6.52457e-07
2.5142e-05
-7.92516e-07
2.5237e-05
-6.80728e-07
2.52395e-05
-5.6131e-07
2.51966e-05
-4.16298e-07
2.51384e-05
-1.87094e-07
2.51032e-05
-4.48475e-08
2.5062e-05
1.37353e-07
2.50288e-05
2.81171e-07
2.50117e-05
3.52193e-07
2.50046e-05
4.34548e-07
2.4995e-05
4.58982e-07
2.50211e-05
4.5022e-07
2.50435e-05
4.60869e-07
2.50887e-05
3.93558e-07
2.51246e-05
3.66689e-07
2.51563e-05
2.71866e-07
2.51893e-05
1.67511e-07
2.51888e-05
1.053e-07
2.51968e-05
-3.93156e-08
2.51834e-05
-7.90376e-08
2.51775e-05
-1.49105e-07
2.51692e-05
-2.01156e-07
2.5158e-05
-1.66533e-07
2.51605e-05
-2.30866e-07
2.51685e-05
-1.68687e-07
2.51883e-05
-1.552e-07
2.52187e-05
-1.34835e-07
2.52732e-05
-4.9884e-08
2.53193e-05
-4.59316e-08
2.53977e-05
5.74708e-08
2.54989e-05
4.71288e-08
2.55831e-05
1.26023e-07
2.57393e-05
1.13002e-07
2.58628e-05
1.02287e-07
2.60373e-05
1.05009e-07
2.62343e-05
-5.21714e-10
2.63944e-05
-2.3901e-08
2.6645e-05
-1.83375e-07
2.68219e-05
-3.26886e-07
2.7045e-05
-4.58535e-07
2.73085e-05
-7.17393e-07
2.75034e-05
-8.92288e-07
2.77784e-05
-1.06303e-06
2.8038e-05
-1.48541e-06
2.82413e-05
-1.52502e-06
2.85395e-05
-1.99313e-06
2.87424e-05
-2.23645e-06
2.89323e-05
-2.35044e-06
2.91795e-05
-2.95992e-06
2.92862e-05
-2.8279e-06
2.94664e-05
-3.32227e-06
2.95563e-05
-3.41403e-06
2.95896e-05
-3.45654e-06
2.96579e-05
-3.72333e-06
2.96345e-05
-3.54822e-06
2.96556e-05
-3.6864e-06
2.96476e-05
-3.46187e-06
2.95968e-05
-3.33701e-06
2.96555e-05
-3.17058e-06
2.9575e-05
-2.82657e-06
2.96269e-05
-2.6376e-06
2.96562e-05
-2.23678e-06
2.96526e-05
-1.96483e-06
2.97797e-05
-1.68517e-06
2.98681e-05
-1.3836e-06
2.99747e-05
-1.14624e-06
3.01773e-05
-1.06221e-06
3.02782e-05
-7.19256e-07
3.04136e-05
-8.73785e-07
3.05771e-05
-8.23086e-07
3.07364e-05
-7.81898e-07
3.08589e-05
-1.09367e-06
3.10151e-05
-1.18026e-06
3.11268e-05
-1.44176e-06
3.12352e-05
-1.81018e-06
3.13905e-05
-2.18378e-06
3.15077e-05
-2.49412e-06
3.15684e-05
-3.01109e-06
3.17419e-05
-3.53006e-06
3.18182e-05
-3.94453e-06
3.1897e-05
-4.53849e-06
3.20125e-05
-5.1413e-06
3.2098e-05
-5.69994e-06
3.21105e-05
-6.3211e-06
3.21218e-05
-6.97007e-06
3.21041e-05
-7.64462e-06
3.19859e-05
-8.25323e-06
3.1785e-05
-8.93059e-06
3.15115e-05
-9.56084e-06
3.12028e-05
-1.02146e-05
3.07315e-05
-1.07327e-05
3.02932e-05
-1.13645e-05
2.99296e-05
-1.19909e-05
2.96511e-05
-1.25769e-05
2.95122e-05
-1.3233e-05
2.95045e-05
-1.38468e-05
2.95584e-05
-1.44768e-05
2.94627e-05
-1.48551e-05
2.92084e-05
-1.50697e-05
2.87024e-05
-1.50088e-05
2.79128e-05
-1.4752e-05
2.67301e-05
-1.41809e-05
2.523e-05
-1.34832e-05
2.34736e-05
-1.27413e-05