/*--------------------------------*- C++ -*----------------------------------*\
| =========                 |                                                 |
| \\      /  F ield         | OpenFOAM: The Open Source CFD Toolbox           |
|  \\    /   O peration     | Version:  2.4.0                                 |
|   \\  /    A nd           | Web:      www.OpenFOAM.org                      |
|    \\/     M anipulation  |                                                 |
\*---------------------------------------------------------------------------*/
FoamFile
{
    version     2.0;
    format      ascii;
    class       volScalarField;
    location    "1.68";
    object      k_0;
}
// * * * * * * * * * * * * * * * * * * * * * * * * * * * * * * * * * * * * * //

dimensions      [0 2 -2 0 0 0 0];

internalField   nonuniform List<scalar> 
8800
(
8.11088
10.2802
8.77727
6.84874
5.67594
5.01088
4.48719
4.18813
3.86645
3.72189
3.48875
3.4217
3.24774
3.21296
3.05564
3.04247
2.90666
2.88808
2.83641
2.67306
1.38996
4.36715
5.30657
5.29462
5.10678
4.85895
4.52742
4.34055
4.06383
3.94266
3.71578
3.63867
3.47311
3.422
3.28508
3.25566
3.14617
3.11025
3.02268
3.02693
0.0832725
0.749063
1.54121
1.9647
2.24388
2.4718
2.54584
2.62387
2.61397
2.60908
2.57862
2.55728
2.50974
2.48811
2.44421
2.4191
2.39397
2.35393
2.30431
2.2922
0.00327679
0.071524
0.24504
0.433029
0.573863
0.71479
0.826743
0.936128
1.02772
1.08533
1.17082
1.20572
1.26552
1.29139
1.34718
1.35722
1.40389
1.40668
1.41207
1.40153
0.000118366
0.00508041
0.0227123
0.0483867
0.0908164
0.120831
0.166018
0.200431
0.251673
0.275559
0.326487
0.350427
0.39524
0.417379
0.46826
0.485853
0.532925
0.556496
0.586057
0.594014
2.56478e-05
0.000324976
0.00153175
0.00342379
0.00791397
0.0114614
0.0190544
0.024368
0.0354656
0.041255
0.0525341
0.0638718
0.0710427
0.0812509
0.0994525
0.106064
0.117172
0.136939
0.146426
0.156882
2.22903e-05
4.61961e-05
0.000130583
0.000243654
0.000472899
0.00084694
0.00123588
0.00184623
0.0028296
0.00350299
0.00427353
0.00652191
0.00731262
0.00904058
0.011361
0.0130436
0.0145115
0.0196396
0.0214913
0.0255851
2.1295e-05
3.25094e-05
4.9788e-05
7.30572e-05
8.26077e-05
0.000111934
0.000132708
0.000186003
0.000215584
0.000279379
0.000307853
0.000455121
0.000488542
0.000652131
0.000752162
0.000955918
0.00105168
0.00163583
0.00180799
0.00270098
2.08206e-05
2.77997e-05
4.71631e-05
6.67196e-05
6.50664e-05
6.41459e-05
6.73127e-05
8.30218e-05
8.80174e-05
9.11245e-05
9.37202e-05
0.000100878
9.9755e-05
0.000106039
0.000108372
0.000115544
0.000121782
0.000164721
0.000172844
0.00022316
2.06245e-05
2.6764e-05
4.18899e-05
6.2809e-05
6.32339e-05
6.09149e-05
6.1046e-05
6.51375e-05
6.87484e-05
7.40592e-05
7.79733e-05
8.11769e-05
7.94143e-05
7.82273e-05
7.67373e-05
7.5406e-05
7.57327e-05
8.30687e-05
8.67357e-05
9.04693e-05
2.06015e-05
2.80212e-05
3.6711e-05
5.95586e-05
6.78176e-05
6.72956e-05
6.2773e-05
6.32855e-05
7.19568e-05
7.61509e-05
7.66042e-05
7.82133e-05
7.86436e-05
8.03618e-05
7.943e-05
7.87764e-05
7.94949e-05
8.48121e-05
8.53783e-05
8.83879e-05
2.0753e-05
3.02978e-05
4.80591e-05
5.4182e-05
5.74795e-05
6.77553e-05
7.65781e-05
8.73276e-05
8.82508e-05
8.72921e-05
8.8712e-05
9.6515e-05
0.000102232
0.000106017
0.000108985
0.000117824
0.000133629
0.000151451
0.000168978
0.000214942
2.09283e-05
3.19787e-05
4.87379e-05
7.09239e-05
8.46184e-05
0.000118199
0.000136307
0.000178868
0.000209311
0.00029137
0.000342344
0.000458486
0.000517317
0.000643969
0.000736111
0.000998085
0.00118746
0.00164282
0.00198755
0.00277659
2.16154e-05
4.29542e-05
0.000124186
0.000334144
0.000478411
0.000859409
0.00118922
0.00203757
0.00264685
0.00407569
0.00478995
0.00649806
0.00741217
0.0095027
0.0108004
0.0140892
0.0160546
0.0208485
0.0238904
0.0316085
2.49679e-05
0.000308186
0.00161463
0.00446011
0.00675039
0.0128053
0.0171891
0.0271011
0.0330301
0.0456436
0.0515755
0.0650793
0.071552
0.0859771
0.0936822
0.112508
0.122179
0.145672
0.159173
0.196352
0.000123216
0.00493457
0.0258008
0.0526223
0.0795537
0.130215
0.158697
0.208817
0.241702
0.291514
0.314249
0.362818
0.384756
0.431662
0.454245
0.507741
0.532182
0.592198
0.622258
0.701358
0.00336656
0.0696727
0.265095
0.411595
0.581789
0.70859
0.831434
0.929544
1.02913
1.09847
1.1551
1.21863
1.25493
1.30657
1.3321
1.38587
1.40625
1.45805
1.48149
1.5371
0.0846353
0.728634
1.57093
1.93032
2.28385
2.43204
2.57978
2.59635
2.62843
2.59958
2.58782
2.54012
2.52467
2.474
2.46108
2.42139
2.41061
2.38265
2.37259
2.34702
1.40674
4.35105
5.31931
5.2842
5.13269
4.79557
4.59274
4.27347
4.1297
3.87013
3.77845
3.57534
3.51944
3.36613
3.32794
3.19844
3.16829
3.04784
3.00624
2.90067
8.12093
10.2642
8.79148
6.81681
5.71623
4.95567
4.54234
4.12802
3.9264
3.64743
3.55439
3.3462
3.29982
3.13115
3.10027
2.93503
2.9003
2.72037
2.6515
2.42648
1.89198
1.36501
1.04453
0.842591
0.711439
0.629039
0.57726
0.546231
0.527908
0.514174
0.503454
0.492896
0.484162
0.477409
0.470994
0.468094
0.463743
0.460961
0.453782
0.449017
0.437073
0.431211
0.420915
0.417717
0.421274
0.428891
0.44879
0.452571
0.45906
0.457319
0.448279
0.447323
0.447313
0.446452
0.439892
0.443797
0.456522
0.51634
0.580555
0.594042
0.574025
0.455642
0.303444
0.21494
0.163662
0.132307
0.109722
0.0929099
0.0823732
0.0782538
0.0770794
0.0770499
0.077834
0.0804269
0.0834886
0.0846533
0.0856853
0.0877458
0.092075
0.10152
0.124837
0.153189
0.163492
0.163268
0.1606
0.149851
0.125193
0.0766386
0.0425992
0.0241601
0.0147082
0.00995969
0.00782794
0.00705871
0.00681517
0.00702504
0.00785269
0.00921696
0.0129568
0.0159046
0.0207778
0.024728
0.0284775
0.0303324
0.0301328
0.0291222
0.0266147
0.0236455
0.0199862
0.0163659
0.013525
0.0113534
0.010172
0.0100388
0.0102455
0.0112371
0.0143502
0.0187336
0.0266707
0.0447841
0.0556857
0.0750998
0.0927606
0.100186
0.101387
0.100399
0.0962743
0.0897311
0.0825569
0.0726681
0.062036
0.0523025
0.0436977
0.0376183
0.0326995
0.0300439
0.0300107
0.0312675
0.0333932
0.035343
0.0359302
0.0349033
0.0299175
0.0185503
0.0128013
0.0117389
0.0114187
0.0108504
0.0110418
0.0119925
0.0176782
0.0235127
0.029184
0.0418221
0.0941823
0.136614
0.152405
0.15255
0.144873
0.10576
0.0741391
0.0607645
0.0588933
0.0602078
0.0654349
0.0662886
0.0643417
0.0549292
0.0472969
0.0439133
0.0396713
0.0381313
0.0386361
0.0410363
0.0452789
0.0521608
0.05943
0.0700695
0.0920991
0.182005
0.337447
0.376732
0.347071
0.207243
0.106802
0.0606611
0.0416037
0.0366482
0.0361016
0.0322481
0.0309865
0.0314203
0.0335494
0.0352817
0.046009
0.0438879
0.06084
0.0538892
0.0727824
0.0635952
0.078958
0.0722716
0.0812956
0.0788323
0.0813233
0.0880998
0.0900405
0.0956394
0.0918696
0.0935233
0.0852809
0.0803215
0.0630323
0.0632219
0.0608646
0.0695014
0.0654739
0.0801808
0.0915583
0.501751
2.58896
2.13465
1.79182
1.53849
1.35054
1.20274
1.09664
1.01141
0.947798
0.893665
0.85029
0.81516
0.7823
0.758968
0.733213
0.71644
0.694389
0.682285
0.661491
0.652909
0.63475
0.621001
0.605427
0.588131
0.575188
0.546327
0.532522
0.506763
0.483454
0.464451
0.433535
0.413071
0.39059
0.388184
0.384164
0.371394
0.358602
0.358277
0.372265
0.406227
0.498303
0.510895
0.496106
0.453194
0.363863
0.265833
0.19782
0.154583
0.125026
0.10912
0.100813
0.0953324
0.0929195
0.0929413
0.093847
0.0961492
0.100674
0.110615
0.128384
0.160267
0.1741
0.173371
0.170233
0.161031
0.141966
0.0980089
0.0540673
0.0298759
0.0173344
0.0110747
0.00817647
0.00710988
0.00679559
0.0070235
0.00786367
0.0103726
0.0144452
0.0188358
0.0292565
0.0364754
0.0466032
0.0556902
0.0625876
0.0634277
0.0623976
0.0593327
0.0537449
0.0480663
0.0412314
0.0353503
0.0288999
0.0216725
0.0161937
0.0128189
0.0111109
0.0106781
0.0109023
0.0116946
0.0135564
0.0198745
0.0251569
0.034578
0.0472833
0.052921
0.0549406
0.0545604
0.0524261
0.049012
0.0455055
0.0412896
0.0377583
0.0347205
0.0323292
0.0306525
0.0288459
0.0285825
0.0293756
0.0318982
0.033203
0.0336114
0.0329337
0.0286381
0.0187927
0.0129389
0.0107804
0.0109181
0.0111751
0.0109664
0.0112743
0.0132831
0.0211214
0.0272994
0.0346881
0.0564102
0.113503
0.146792
0.155262
0.153043
0.133922
0.0938212
0.0677893
0.0585709
0.0583086
0.0631934
0.0683624
0.0681982
0.0647874
0.0532058
0.0461074
0.0425541
0.0375519
0.0362442
0.0366784
0.0379444
0.0409138
0.0488745
0.0567462
0.0650507
0.0829
0.144309
0.289631
0.368549
0.366848
0.296971
0.145073
0.0843468
0.0598595
0.0496111
0.0471748
0.0421533
0.0415896
0.0443473
0.0607776
0.0588559
0.0924117
0.0809943
0.110368
0.0979309
0.112867
0.103028
0.107544
0.103312
0.102878
0.10087
0.0961331
0.0943939
0.0870587
0.0854526
0.077527
0.0738388
0.0647122
0.0583236
0.0562818
0.0571115
0.0586398
0.0628249
0.0672525
0.0675658
0.0702998
0.158609
2.08548
1.86
1.6537
1.47591
1.34044
1.22008
1.12466
1.04669
0.978149
0.924845
0.875469
0.838093
0.801509
0.772841
0.746978
0.72441
0.701825
0.688164
0.664608
0.647359
0.633274
0.604326
0.589019
0.562043
0.540689
0.509764
0.476727
0.456889
0.412275
0.38321
0.349743
0.31962
0.28902
0.264235
0.234195
0.208059
0.207011
0.211186
0.226543
0.255477
0.283053
0.342764
0.406151
0.418863
0.416002
0.404443
0.377744
0.339885
0.292463
0.25062
0.218995
0.194144
0.171709
0.163729
0.16438
0.168536
0.178864
0.195516
0.198749
0.195982
0.189242
0.174819
0.154884
0.113287
0.0642427
0.0352014
0.0199318
0.0121288
0.00843711
0.00698256
0.00660705
0.00672147
0.00743859
0.0102298
0.0139395
0.0228818
0.0318628
0.0456863
0.0648719
0.0844881
0.103232
0.121382
0.129425
0.128921
0.125475
0.116865
0.103746
0.0886301
0.0739455
0.0604527
0.0493345
0.0410088
0.033111
0.0242279
0.0170032
0.0130483
0.0115808
0.0112001
0.0113087
0.0124433
0.0145108
0.0176702
0.0255332
0.0291978
0.0315809
0.0316363
0.0310476
0.0292118
0.0282162
0.0281556
0.0285594
0.0286754
0.028823
0.0286107
0.0279372
0.0281524
0.0303112
0.0311361
0.031061
0.0303995
0.026676
0.0180382
0.0130639
0.0107102
0.0101934
0.0106902
0.0113689
0.0114525
0.0122355
0.0166229
0.0265985
0.0324794
0.0417454
0.0761152
0.12776
0.154438
0.15741
0.151841
0.121879
0.0862237
0.0629997
0.0568497
0.0579301
0.0658231
0.0694312
0.0695827
0.0648173
0.0528814
0.0460817
0.041545
0.0367748
0.0347052
0.0350368
0.036184
0.0379582
0.0432103
0.0537444
0.0638815
0.0766347
0.114148
0.237302
0.340088
0.362289
0.339788
0.230313
0.136658
0.083293
0.0666121
0.0652526
0.0655273
0.0772583
0.0787734
0.101191
0.0984043
0.11825
0.114174
0.122482
0.118736
0.118158
0.114636
0.108472
0.104858
0.09923
0.0968187
0.0908604
0.0880202
0.0815012
0.074668
0.0703458
0.064629
0.0602171
0.0555616
0.057398
0.0558061
0.0608426
0.0599634
0.0652393
0.0719138
0.0761604
0.0975941
1.31634
1.22695
1.13763
1.05407
0.981817
0.920012
0.858214
0.807776
0.758901
0.713776
0.675028
0.643813
0.613714
0.586158
0.567809
0.543986
0.52544
0.510818
0.499755
0.478663
0.465791
0.453594
0.426594
0.40762
0.380147
0.356373
0.318856
0.294374
0.259423
0.226901
0.200032
0.171783
0.149092
0.120628
0.108918
0.0941158
0.0863689
0.0864071
0.0891058
0.0986685
0.117787
0.141543
0.185778
0.227879
0.277908
0.321955
0.335354
0.334775
0.331697
0.323538
0.316152
0.301957
0.291847
0.281478
0.268105
0.256459
0.245249
0.228619
0.213368
0.191389
0.15838
0.114736
0.0665647
0.0371901
0.0209923
0.0124182
0.00839166
0.00648604
0.00613269
0.00622846
0.00685128
0.00868527
0.0129204
0.0233236
0.0327151
0.0532239
0.0735593
0.109535
0.151075
0.195247
0.226109
0.252296
0.252339
0.2483
0.238632
0.218849
0.197079
0.171058
0.144058
0.114006
0.0858736
0.0662304
0.0510998
0.0389286
0.0300308
0.0214352
0.0157054
0.0128089
0.0117726
0.0118947
0.0123974
0.0134429
0.0172213
0.0197643
0.0219587
0.0234309
0.0234607
0.022953
0.0228928
0.0246549
0.0268792
0.0275625
0.0280811
0.0280452
0.0276887
0.028635
0.029676
0.0291495
0.0275942
0.0231588
0.0168206
0.0128209
0.0109153
0.0101211
0.0100873
0.0113244
0.0123199
0.0129018
0.0145307
0.0226106
0.033588
0.03974
0.0512406
0.0951285
0.142701
0.159142
0.160617
0.147435
0.114452
0.0818636
0.061069
0.0562902
0.0577463
0.0677294
0.0717993
0.0714932
0.0669089
0.0546356
0.0482827
0.0419918
0.0367185
0.0342078
0.0342592
0.0357109
0.0368569
0.039846
0.0486714
0.0590318
0.0735539
0.100698
0.189575
0.297737
0.3499
0.344902
0.29614
0.192998
0.138749
0.101029
0.115937
0.116683
0.134046
0.128148
0.138849
0.131361
0.135076
0.127882
0.128921
0.123572
0.1212
0.115225
0.113005
0.107702
0.100952
0.0954132
0.0900213
0.0839347
0.0801035
0.0732518
0.0703729
0.0644373
0.0633274
0.0595552
0.0601697
0.0600349
0.0600992
0.0646693
0.0650072
0.0727617
0.0733062
0.0826156
0.572504
0.551422
0.526989
0.502444
0.476064
0.456426
0.439318
0.418072
0.40119
0.383678
0.357139
0.34042
0.326008
0.306217
0.293928
0.283429
0.270124
0.256032
0.250599
0.239673
0.227942
0.220652
0.207454
0.195882
0.179264
0.163771
0.138559
0.118862
0.0991521
0.0814969
0.0697021
0.0582125
0.050486
0.0420028
0.0378457
0.0338296
0.0297478
0.0293341
0.0296668
0.0312132
0.0358556
0.0423427
0.0539761
0.0760584
0.0922489
0.119955
0.150461
0.184736
0.208747
0.229738
0.24126
0.242249
0.24065
0.236041
0.224679
0.21202
0.187338
0.159335
0.126568
0.0846054
0.0530419
0.0319171
0.0188789
0.0112368
0.00757713
0.00571892
0.00525491
0.0053849
0.00595472
0.00754225
0.0115096
0.0190404
0.0334744
0.0536586
0.0748464
0.121668
0.176555
0.26077
0.335499
0.37141
0.368534
0.3574
0.334561
0.316963
0.298148
0.279702
0.265541
0.244264
0.220398
0.195051
0.158634
0.122426
0.0901855
0.0648616
0.0464808
0.0327269
0.0253633
0.0184632
0.014699
0.0129192
0.0128207
0.0131379
0.0144565
0.0165193
0.0173301
0.0185266
0.0189955
0.0192352
0.0201656
0.0235989
0.0265713
0.0276937
0.0278293
0.0275889
0.0268061
0.0265139
0.0257011
0.023015
0.0187841
0.0152008
0.0125387
0.0111761
0.0104296
0.0103807
0.0107299
0.0135881
0.0159401
0.0172107
0.0198376
0.0311909
0.044314
0.051005
0.0663735
0.117206
0.153195
0.163127
0.162896
0.143106
0.112361
0.0804556
0.0606303
0.0561669
0.0579785
0.0706698
0.0741993
0.0733208
0.068967
0.056425
0.0494305
0.0428686
0.0369325
0.0341864
0.0342846
0.0359499
0.0370743
0.0391148
0.0474388
0.0576349
0.0679086
0.0889847
0.155443
0.254727
0.315134
0.340234
0.329827
0.269239
0.251214
0.191698
0.193976
0.173885
0.179367
0.169129
0.168532
0.158783
0.150441
0.145616
0.136175
0.132534
0.123625
0.120943
0.108281
0.106654
0.100321
0.0961704
0.0880758
0.08588
0.0802236
0.0760972
0.0712269
0.0681055
0.0640616
0.0629123
0.0587156
0.0595812
0.0583366
0.0637286
0.0634071
0.0695117
0.069798
0.0722154
0.15315
0.149118
0.14419
0.139321
0.133301
0.129072
0.12757
0.124265
0.122116
0.120129
0.112783
0.107319
0.102649
0.0960614
0.0918752
0.088875
0.0838081
0.078854
0.0768534
0.0727663
0.0684437
0.065708
0.0613965
0.0570269
0.0522045
0.0465395
0.0397106
0.0334992
0.0281464
0.0229642
0.0195261
0.0165766
0.0142602
0.012135
0.0108255
0.00983911
0.00879258
0.00870818
0.00877717
0.00907726
0.0100099
0.0113813
0.0144517
0.0185649
0.0251585
0.0355292
0.0416958
0.0544971
0.0665488
0.0737311
0.0858279
0.0930511
0.0931678
0.0911176
0.0856115
0.0752608
0.0613528
0.0471378
0.0335628
0.0224174
0.0144115
0.0091142
0.00616873
0.00458328
0.00428898
0.00440975
0.00489069
0.00646816
0.0101359
0.0164781
0.0303143
0.0490864
0.0797214
0.110261
0.166633
0.283492
0.408198
0.470947
0.464
0.438513
0.404755
0.369879
0.33995
0.318738
0.299306
0.284993
0.274183
0.260253
0.24782
0.234481
0.21259
0.18322
0.146211
0.11127
0.0795048
0.0543416
0.0366844
0.0289865
0.0224688
0.0171634
0.0147318
0.013975
0.0143417
0.0152756
0.0157193
0.0168122
0.0174918
0.0184368
0.0217999
0.0246994
0.0250514
0.0246334
0.0237542
0.0220018
0.0208145
0.0201879
0.0186646
0.0159314
0.0137768
0.0122964
0.0112145
0.0109226
0.0109808
0.0113424
0.0124284
0.0165573
0.0215688
0.0242478
0.0280463
0.0418979
0.0562231
0.0641948
0.0870239
0.136653
0.1611
0.166652
0.163837
0.141882
0.113144
0.0804207
0.0617141
0.0564138
0.0591742
0.0723487
0.074792
0.0749111
0.0713847
0.0597503
0.0499504
0.0434356
0.0370913
0.0343827
0.0345024
0.0385699
0.0391617
0.0397345
0.0452812
0.061586
0.0688005
0.0821625
0.116701
0.21756
0.28648
0.320246
0.338981
0.310129
0.29778
0.250279
0.2337
0.220662
0.212502
0.205905
0.195214
0.188898
0.177089
0.172722
0.161124
0.155832
0.142221
0.13732
0.118853
0.111102
0.0976178
0.0928622
0.0826138
0.080043
0.0740107
0.0716257
0.0662626
0.0644179
0.0599741
0.0589304
0.0559232
0.0553988
0.0535312
0.0547054
0.054268
0.0557745
0.0548006
0.0551034
0.0250926
0.0243203
0.0233739
0.02244
0.0214574
0.0210688
0.0209991
0.0208714
0.020834
0.0207314
0.0201173
0.0194526
0.0189606
0.0179215
0.0174191
0.0165285
0.0156745
0.0148297
0.0141571
0.0136176
0.0128579
0.0123955
0.0118079
0.0109666
0.0100267
0.00900327
0.0077315
0.00658646
0.00566285
0.00462983
0.00401135
0.00342355
0.00296426
0.00259179
0.00228777
0.00217248
0.00205595
0.00205969
0.00209848
0.00218714
0.0024183
0.0026677
0.00330023
0.00415313
0.00536545
0.00858281
0.0102818
0.0141559
0.0173789
0.0191872
0.0230945
0.0258515
0.0263215
0.0258871
0.0245768
0.0217167
0.0174688
0.0131571
0.00920625
0.00631327
0.00446352
0.00345399
0.00334876
0.00345708
0.00393625
0.00523356
0.00840664
0.0161504
0.0258216
0.0437901
0.0752393
0.113002
0.154179
0.230814
0.40002
0.550962
0.56306
0.538532
0.484412
0.419911
0.359514
0.31027
0.276428
0.259628
0.245881
0.236996
0.237052
0.239109
0.238808
0.235111
0.226976
0.215523
0.190037
0.153648
0.117058
0.0851949
0.0594727
0.0440169
0.0319037
0.0258805
0.0213601
0.0175157
0.0161413
0.0161844
0.016422
0.0171255
0.0185489
0.0209258
0.0222669
0.0222032
0.0207472
0.0198145
0.0192784
0.0186822
0.0183728
0.0175656
0.0147654
0.0131847
0.0121633
0.0114853
0.0114541
0.0117641
0.0126544
0.0139522
0.0160438
0.0232042
0.0320594
0.0359175
0.0406443
0.0582439
0.0694206
0.0768444
0.10782
0.153126
0.166251
0.168275
0.164207
0.146615
0.120695
0.0857729
0.0647853
0.0573756
0.0599118
0.0717566
0.0778935
0.0772457
0.0734233
0.0648767
0.0532743
0.0440525
0.0380183
0.0351089
0.0357449
0.0382892
0.0429279
0.043815
0.0458049
0.0613748
0.0762709
0.0849268
0.104659
0.153528
0.243017
0.294009
0.330281
0.317476
0.297253
0.278088
0.257545
0.248772
0.234927
0.230284
0.219973
0.214608
0.199582
0.19512
0.179224
0.171219
0.150086
0.143329
0.127737
0.11946
0.101902
0.0959414
0.084052
0.0801333
0.0722502
0.0697504
0.0645138
0.0621726
0.0576347
0.0565981
0.0537191
0.0511704
0.0472608
0.046993
0.0460903
0.0460591
0.0457149
0.0455482
0.00268357
0.00262855
0.00251412
0.0023869
0.00228463
0.00222666
0.00219608
0.00219362
0.00219773
0.00222119
0.00222345
0.00222281
0.00221453
0.00215472
0.00208432
0.00192322
0.0018289
0.00171907
0.00162324
0.00157701
0.00150191
0.001445
0.00140786
0.00132282
0.00122224
0.00111265
0.00097627
0.000865997
0.000756711
0.000662052
0.000584461
0.000541625
0.000486489
0.000455457
0.000434012
0.000428701
0.000431887
0.000443804
0.000469081
0.000487064
0.000529038
0.000572712
0.000679411
0.000796091
0.00103709
0.0014682
0.0018391
0.00288989
0.00366543
0.00403613
0.00490043
0.00578153
0.00605824
0.00600541
0.00573813
0.00510806
0.0040703
0.00323329
0.00254087
0.00232949
0.00239631
0.0026311
0.0031643
0.00455345
0.00776074
0.0131519
0.0252543
0.0428885
0.0649763
0.109164
0.159646
0.208166
0.305351
0.544373
0.664862
0.650841
0.6009
0.493167
0.389339
0.311518
0.269388
0.247815
0.23508
0.22781
0.222593
0.209282
0.200896
0.201244
0.206276
0.220051
0.221614
0.218744
0.209967
0.188241
0.155993
0.11672
0.0841576
0.0645807
0.049981
0.0403257
0.0304864
0.0236224
0.0208383
0.0202156
0.0204769
0.0213622
0.0218164
0.021638
0.0204801
0.0189465
0.0185383
0.0186111
0.0185029
0.0181391
0.0167392
0.014675
0.013163
0.0124639
0.0121907
0.0122614
0.012801
0.0149592
0.0165203
0.0180344
0.0213749
0.0338049
0.0474007
0.0519593
0.0558188
0.076285
0.090315
0.0990423
0.133715
0.164967
0.168547
0.169091
0.166714
0.1585
0.130084
0.0886636
0.0670305
0.0589851
0.0601606
0.0707703
0.0831856
0.0815524
0.0753755
0.0674486
0.0562872
0.0471241
0.0432058
0.0377522
0.0382073
0.0411692
0.0424241
0.0501864
0.0507597
0.057865
0.0839526
0.0877696
0.102103
0.136878
0.216463
0.272417
0.300307
0.309566
0.297789
0.287432
0.269357
0.264672
0.250449
0.247965
0.234932
0.231023
0.213125
0.2064
0.184716
0.175545
0.149526
0.140622
0.121264
0.113918
0.0986814
0.0932209
0.0817437
0.0771553
0.0685595
0.0657714
0.060309
0.0579423
0.054099
0.0520154
0.0478617
0.0448734
0.0431027
0.0418434
0.0415282
0.0411083
0.0413174
0.0429921
0.000222037
0.000221994
0.000223459
0.000222371
0.000218249
0.000211687
0.000208313
0.000207958
0.000209784
0.000214855
0.000218654
0.000220511
0.000220269
0.000218986
0.000215209
0.000206624
0.000197191
0.000189839
0.000183896
0.000180686
0.000179277
0.000177693
0.00017804
0.000177285
0.00017722
0.000174546
0.000174236
0.000171042
0.000170357
0.000171127
0.000172825
0.000179609
0.000190083
0.000207787
0.000227193
0.00023467
0.000236477
0.000237801
0.000235803
0.000234086
0.000239261
0.000241529
0.000246478
0.000256604
0.00027816
0.000319624
0.000375655
0.000539886
0.000649952
0.000759333
0.000951549
0.00111666
0.00119871
0.00120375
0.00116522
0.00116062
0.00119862
0.00134511
0.00154721
0.00193369
0.00267518
0.00449906
0.00733667
0.0137464
0.022941
0.0381618
0.0693043
0.0987393
0.156903
0.225471
0.281646
0.387487
0.660239
0.76153
0.735594
0.641495
0.478963
0.368468
0.300155
0.262526
0.242945
0.235463
0.232445
0.22941
0.225939
0.219641
0.202301
0.192207
0.191794
0.194254
0.206702
0.212712
0.210988
0.203787
0.186732
0.146836
0.115695
0.0878428
0.0658152
0.0515379
0.0418757
0.0360565
0.0332978
0.0313622
0.0302537
0.027387
0.0240749
0.0211721
0.019103
0.0184625
0.0189201
0.0192969
0.019154
0.0178485
0.0153034
0.0138472
0.013552
0.0136287
0.0137897
0.0143377
0.0164369
0.0191483
0.0207401
0.0236856
0.0335136
0.0539509
0.063666
0.0655172
0.0680125
0.0898095
0.107788
0.118227
0.152352
0.169626
0.168994
0.169614
0.16818
0.164159
0.134719
0.0895447
0.0723955
0.062161
0.0609189
0.0713185
0.0837384
0.0864274
0.0834731
0.0687398
0.0563253
0.0528731
0.0465427
0.0452293
0.0412442
0.0502483
0.0462324
0.0486542
0.0849041
0.0668468
0.0849799
0.110449
0.111941
0.127216
0.158529
0.222252
0.267388
0.291377
0.289609
0.284769
0.270176
0.266635
0.252155
0.248138
0.234247
0.227972
0.208766
0.20008
0.176933
0.165653
0.138681
0.125657
0.109232
0.0983859
0.0865084
0.0794254
0.069881
0.0643008
0.0593148
0.0564633
0.0527955
0.0501238
0.0486004
0.0463713
0.0451007
0.0427884
0.0419308
0.0405437
0.0396523
0.0391909
0.039281
0.0412996
9.15257e-05
9.29788e-05
9.67181e-05
9.7487e-05
9.69442e-05
9.54713e-05
9.47785e-05
9.43256e-05
9.46008e-05
9.54621e-05
9.75282e-05
0.000100274
0.000101228
0.000101746
0.000101671
0.000101746
0.000101765
0.000102487
0.000103002
0.000103825
0.000105173
0.000108335
0.000111858
0.00012105
0.000131102
0.000137706
0.000149575
0.000167387
0.00017917
0.000198949
0.000233805
0.000255569
0.000298486
0.000357627
0.000413122
0.000431249
0.000429207
0.000410678
0.000358366
0.000329054
0.000313696
0.000305896
0.000301125
0.00029525
0.000296387
0.000301086
0.000311064
0.000336356
0.000353106
0.000367473
0.000380552
0.000411175
0.0004378
0.00050019
0.00057943
0.000770368
0.00105314
0.00171049
0.0026828
0.00486073
0.00787754
0.0146657
0.0230634
0.0396284
0.0643476
0.104788
0.157156
0.227905
0.317593
0.379627
0.472542
0.729827
0.844032
0.799717
0.640563
0.509957
0.398856
0.31602
0.26662
0.243194
0.232999
0.232092
0.233925
0.23618
0.236341
0.234853
0.226253
0.206595
0.197392
0.196493
0.199655
0.205589
0.207338
0.205945
0.199212
0.175951
0.140979
0.111779
0.0920451
0.0753232
0.0602614
0.0489235
0.0420252
0.039811
0.0367605
0.030626
0.0252017
0.0220179
0.021259
0.0224069
0.0234799
0.0231851
0.0205407
0.0177224
0.0163928
0.0162768
0.0168124
0.0174613
0.017827
0.0188295
0.0212553
0.0234277
0.0253593
0.0326417
0.0581861
0.070291
0.0732791
0.0737388
0.0750522
0.0855737
0.0991772
0.124624
0.160935
0.171185
0.171079
0.168594
0.170049
0.173261
0.143544
0.0949968
0.0800857
0.0676147
0.0626874
0.0699534
0.0831621
0.0956645
0.0885256
0.0694947
0.0564968
0.0531189
0.0468849
0.0531206
0.0438987
0.0513585
0.0894947
0.0580778
0.0878612
0.0847696
0.0941571
0.117763
0.139635
0.13833
0.150032
0.179039
0.218459
0.254936
0.269562
0.271236
0.26523
0.260523
0.24733
0.240263
0.221909
0.212685
0.190221
0.179357
0.154437
0.143622
0.123564
0.112327
0.0988265
0.0880439
0.0778302
0.0695479
0.0635564
0.0587416
0.0553424
0.0537184
0.0510254
0.0484943
0.0476319
0.0462631
0.043982
0.0425429
0.041231
0.0400846
0.0394298
0.0393783
0.0399398
0.0420129
8.87419e-05
8.97596e-05
9.20569e-05
9.80931e-05
0.000100771
0.000101552
0.000103446
0.00010712
0.000108668
0.000112336
0.000114901
0.000119483
0.000132056
0.000139541
0.000145765
0.000152884
0.000154875
0.000157443
0.000163664
0.000171578
0.000182399
0.000217933
0.000249712
0.000306967
0.00040541
0.000460128
0.000577182
0.000686557
0.000751007
0.000914503
0.00104715
0.00117945
0.0013648
0.00156257
0.00170163
0.00172844
0.00171254
0.0016349
0.00139702
0.0012431
0.00113633
0.00107893
0.00105932
0.00102875
0.00102269
0.00100441
0.000960749
0.000856449
0.000733227
0.000703359
0.000708376
0.000743636
0.000832917
0.00104481
0.00141676
0.00233629
0.00357721
0.00637586
0.00995065
0.0168427
0.0257619
0.0432622
0.0679225
0.103719
0.169919
0.244333
0.346443
0.446726
0.496134
0.561366
0.743521
0.895229
0.819933
0.62079
0.554779
0.473039
0.369418
0.290804
0.248032
0.229599
0.222972
0.220983
0.220044
0.222308
0.229307
0.235306
0.235672
0.229803
0.21475
0.205383
0.2045
0.205187
0.206742
0.206317
0.202681
0.189659
0.161948
0.135116
0.111148
0.0888773
0.0701158
0.0588903
0.0538356
0.0488922
0.0407373
0.03294
0.0284191
0.0279063
0.0300755
0.0312482
0.0299214
0.0260758
0.0232456
0.0219688
0.0219327
0.0221343
0.0235488
0.0235584
0.023615
0.024095
0.025937
0.0277919
0.031218
0.0520059
0.0777199
0.0845631
0.084762
0.0839671
0.0854685
0.0969957
0.108575
0.14508
0.172477
0.176554
0.17009
0.16482
0.176002
0.186922
0.154657
0.106216
0.0924446
0.0745021
0.0658187
0.0698668
0.0806618
0.105401
0.0956899
0.0746226
0.0589485
0.0551724
0.0599692
0.0568376
0.0570053
0.0683311
0.164497
0.100356
0.126365
0.12697
0.259381
0.161973
0.151222
0.139227
0.15475
0.164566
0.186969
0.210236
0.23547
0.238103
0.237277
0.23216
0.220046
0.211623
0.196975
0.187542
0.17019
0.160248
0.14149
0.130332
0.115944
0.105395
0.0939073
0.0833182
0.0737644
0.0658603
0.0607052
0.0568232
0.0541592
0.0532145
0.0518728
0.0505264
0.0497892
0.0486836
0.0455878
0.043044
0.0407764
0.0394353
0.0388233
0.0387204
0.0392016
0.0399456
0.000238389
0.00024671
0.000250779
0.000260708
0.000293817
0.000319081
0.000370745
0.000392425
0.000408911
0.000443782
0.000464724
0.000511497
0.000645964
0.000741365
0.00083907
0.000909798
0.000945432
0.000970025
0.00102266
0.00109012
0.00117389
0.00151234
0.00177053
0.00218847
0.00276667
0.00303617
0.00354587
0.00400761
0.00428317
0.00498892
0.00552044
0.00599857
0.00661318
0.0071154
0.007301
0.00727858
0.00716085
0.00673774
0.00603853
0.00559792
0.00524634
0.00496297
0.00485786
0.00467517
0.00458872
0.00447862
0.00418125
0.00367064
0.00318662
0.00308771
0.00313161
0.00332673
0.00379172
0.00496572
0.00651499
0.0102912
0.0146872
0.0221892
0.0360342
0.0489517
0.0789236
0.114618
0.178389
0.255699
0.39485
0.483182
0.539842
0.561273
0.596497
0.695568
0.869659
0.786669
0.581885
0.561998
0.53986
0.465171
0.360491
0.281116
0.240003
0.224327
0.22099
0.219486
0.215926
0.212586
0.213408
0.221204
0.229398
0.230988
0.228077
0.22292
0.215165
0.209363
0.208368
0.207678
0.205749
0.198191
0.17606
0.152323
0.12954
0.106696
0.0895618
0.0770936
0.0652338
0.0541887
0.0447495
0.0395979
0.0396888
0.0425269
0.0425197
0.0371248
0.0327119
0.0306586
0.0293929
0.0292345
0.0293525
0.0289777
0.0283475
0.0275821
0.0275144
0.0277451
0.0296683
0.0320459
0.0403926
0.0765652
0.0960639
0.0989954
0.0987406
0.0972772
0.0986663
0.105315
0.118682
0.154488
0.169774
0.167008
0.159292
0.162128
0.18484
0.190159
0.160767
0.128932
0.106771
0.0813382
0.0738639
0.0712762
0.0795368
0.114071
0.107586
0.0854039
0.0716797
0.0634902
0.0615465
0.0688405
0.0932328
0.107611
0.146447
0.146228
0.740187
0.270977
1.21963
0.555206
0.383402
0.178928
0.161915
0.163813
0.186826
0.193152
0.215273
0.217717
0.22517
0.22373
0.219371
0.209415
0.199345
0.186826
0.174197
0.159139
0.143123
0.128558
0.11469
0.101888
0.0889423
0.0778375
0.0692393
0.063449
0.0588641
0.0556997
0.054577
0.0542272
0.0543764
0.0549232
0.0547661
0.053622
0.0503542
0.0462197
0.0430859
0.0407666
0.0380872
0.0361507
0.0359011
0.0356826
0.00309756
0.00309613
0.00305513
0.00315934
0.00344651
0.00375989
0.00419516
0.00432159
0.00444623
0.00465152
0.00476634
0.00516829
0.0060022
0.00673115
0.00738751
0.00775246
0.00800922
0.00815329
0.00843121
0.00879721
0.00944012
0.0115682
0.0126681
0.0142284
0.0160441
0.016825
0.0182637
0.0194591
0.0204736
0.0228075
0.0241762
0.0255131
0.0267481
0.0271041
0.0270472
0.0267158
0.0260095
0.0243536
0.0226481
0.0214439
0.0201024
0.0189509
0.018519
0.0177024
0.0171566
0.016645
0.015486
0.0140406
0.013252
0.0132914
0.013665
0.0148756
0.0169234
0.0214521
0.0269953
0.0385825
0.0507839
0.0701319
0.103607
0.135869
0.208392
0.280445
0.422834
0.522767
0.583278
0.589657
0.588135
0.594467
0.645832
0.750927
0.680634
0.514469
0.517322
0.556298
0.556113
0.486283
0.37008
0.280929
0.238059
0.222772
0.220584
0.219947
0.215263
0.209343
0.207188
0.20948
0.217788
0.22483
0.225761
0.222958
0.216102
0.212938
0.211812
0.210905
0.208605
0.202087
0.188092
0.171601
0.147435
0.125726
0.105609
0.0872074
0.0717332
0.0607324
0.056862
0.0572872
0.0581487
0.0547557
0.0451456
0.0399223
0.0387128
0.0381783
0.0369829
0.0357924
0.0350599
0.0325565
0.0299099
0.0294263
0.0294655
0.0301169
0.0324892
0.0366366
0.0530544
0.0912486
0.112981
0.122012
0.12078
0.112385
0.109368
0.107449
0.116993
0.149408
0.154551
0.151795
0.151425
0.165497
0.188774
0.191003
0.185775
0.162152
0.121825
0.0931568
0.0871267
0.076937
0.0832754
0.11584
0.122624
0.107727
0.0999979
0.0992464
0.102673
0.123233
0.191563
0.269617
0.320743
0.334896
0.706056
0.348617
1.35036
0.652762
1.26406
0.429083
0.21656
0.176267
0.192177
0.193808
0.216986
0.217727
0.227481
0.227866
0.226048
0.214582
0.204347
0.188938
0.174043
0.160721
0.144337
0.127231
0.110226
0.0950464
0.0833349
0.0740004
0.0664333
0.062288
0.0596143
0.0592014
0.0610541
0.0627677
0.0631292
0.0626727
0.0594683
0.0562814
0.0534428