/*--------------------------------*- C++ -*----------------------------------*\
| =========                 |                                                 |
| \\      /  F ield         | OpenFOAM: The Open Source CFD Toolbox           |
|  \\    /   O peration     | Version:  2.4.0                                 |
|   \\  /    A nd           | Web:      www.OpenFOAM.org                      |
|    \\/     M anipulation  |                                                 |
\*---------------------------------------------------------------------------*/
FoamFile
{
    version     2.0;
    format      ascii;
    class       volScalarField;
    location    "1.68";
    object      p;
}
// * * * * * * * * * * * * * * * * * * * * * * * * * * * * * * * * * * * * * //

dimensions      [0 2 -2 0 0 0 0];

internalField   nonuniform List<scalar> 
8800
(
78.3955
66.0368
58.6246
55.1228
53.2105
51.8147
50.6229
49.5191
48.4843
47.5277
46.5831
45.646
44.7309
43.9044
42.9906
42.2036
41.4395
40.7107
39.8734
39.1279
75.2849
65.6818
58.794
55.2372
53.2714
51.8386
50.6308
49.5198
48.4818
47.5253
46.5813
45.6433
44.7273
43.9045
42.9899
42.199
41.4457
40.7054
39.8684
39.06
73.3213
65.7541
59.399
55.6124
53.44
51.916
50.6777
49.5518
48.5065
47.5421
46.5933
45.6473
44.7288
43.9044
42.9905
42.1944
41.4613
40.7048
39.8935
39.0208
71.7852
65.8098
59.9932
56.0352
53.6252
52.0009
50.7406
49.6054
48.5585
47.5788
46.6242
45.6628
44.7434
43.9057
43.0008
42.1901
41.4935
40.7339
40.0332
39.0296
70.5332
65.7794
60.4783
56.4407
53.796
52.0657
50.7906
49.6582
48.6188
47.6274
46.6648
45.6872
44.7645
43.9059
43.0151
42.19
41.5218
40.7944
40.1657
39.0643
69.5442
65.6817
60.8548
56.7857
53.9515
52.1045
50.8217
49.6982
48.6788
47.6719
46.7078
45.7139
44.7844
43.9066
43.0262
42.1897
41.5291
40.8325
40.2841
39.1465
68.7885
65.5659
61.1308
57.0651
54.0926
52.1297
50.8338
49.727
48.7216
47.7147
46.7406
45.7414
44.7976
43.9041
43.0357
42.1841
41.5069
40.8221
40.3675
39.6768
68.2333
65.4696
61.311
57.2801
54.2145
52.1531
50.8223
49.7545
48.7527
47.747
46.7621
45.769
44.7982
43.9153
43.022
42.194
41.4496
40.764
40.1107
40.1931
67.8738
65.3986
61.422
57.4265
54.3042
52.1697
50.8093
49.7731
48.7715
47.7706
46.7763
45.7874
44.8066
43.9143
43.0239
42.1776
41.4137
40.7424
40.1943
40.7412
67.6977
65.3615
61.4735
57.5014
54.3516
52.1782
50.7991
49.7823
48.7851
47.7779
46.788
45.796
44.8121
43.9138
43.0223
42.1707
41.4131
40.7385
40.2595
40.8301
67.6938
65.3673
61.4697
57.5042
54.3523
52.1819
50.7939
49.785
48.7855
47.7798
46.7864
45.7992
44.8124
43.9152
43.0274
42.1705
41.4076
40.7493
40.2905
40.9535
67.8682
65.4111
61.4128
57.4302
54.3098
52.1763
50.7988
49.7799
48.7759
47.7643
46.7809
45.795
44.8128
43.9162
43.0352
42.1776
41.4136
40.7524
40.3292
41.0228
68.2223
65.4892
61.296
57.2845
54.224
52.1655
50.8047
49.7684
48.7539
47.7426
46.7647
45.7873
44.8097
43.9188
43.0455
42.1928
41.4247
40.7724
40.3361
40.9971
68.7729
65.59
61.1114
57.07
54.0989
52.146
50.8087
49.7485
48.723
47.7098
46.7411
45.7725
44.8036
43.9206
43.0588
42.2135
41.4473
40.8002
40.3308
40.9117
69.5302
65.7029
60.8423
56.7848
53.9607
52.1155
50.8029
49.7178
48.682
47.667
46.7111
45.751
44.7946
43.9197
43.0728
42.2369
41.4817
40.8417
40.3394
40.7463
70.515
65.7996
60.4739
56.4341
53.8087
52.0689
50.7775
49.6769
48.6316
47.615
46.6764
45.7252
44.7838
43.9144
43.088
42.2597
41.5231
40.8947
40.3809
40.5119
71.7648
65.8267
59.9958
56.0254
53.6415
52.0019
50.7291
49.6241
48.5762
47.5617
46.6413
45.7001
44.7732
43.9077
43.1007
42.2767
41.5669
40.9448
40.4478
40.255
73.3022
65.7642
59.4082
55.6001
53.459
51.9145
50.6673
49.5701
48.5286
47.5217
46.6148
45.6824
44.7672
43.9043
43.1091
42.2903
41.5988
40.9813
40.5114
40.1137
75.269
65.6861
58.8057
55.2237
53.292
51.8365
50.6214
49.5375
48.5046
47.5052
46.6041
45.6773
44.7682
43.9071
43.114
42.3007
41.6146
41.0018
40.5094
40.0417
78.3832
66.0396
58.6363
55.1101
53.2318
51.8112
50.6151
49.536
48.5059
47.5094
46.6064
45.6786
44.772
43.9097
43.1158
42.3047
41.6191
41.006
40.5095
40.1574
39.5278
39.6204
39.4865
39.2209
38.9252
38.6324
38.3768
38.1918
38.0826
38.0414
38.0815
38.1779
38.2729
38.3395
38.3255
38.1932
37.9109
37.4626
36.7904
35.8747
34.7308
33.2996
31.7356
30.1118
28.6479
27.6087
27.1936
27.5471
28.7301
30.7326
33.3889
36.6993
40.3919
44.033
47.186
49.8549
52.3049
54.5341
55.9653
56.3594
55.5316
52.8398
49.1955
45.4898
41.7739
37.9475
34.4558
31.5034
28.7986
26.551
24.6082
22.4329
20.148
17.8942
15.6454
13.7065
12.576
12.1775
12.2585
13.043
14.5266
16.3158
18.7068
21.1307
23.1383
25.643
27.9885
29.9031
31.5389
32.9848
34.2101
34.7973
35.1104
35.0618
34.7809
33.7712
32.8353
31.6453
29.8998
28.4044
27.0903
25.9156
24.8776
24.4404
24.4692
24.8725
25.6636
26.9675
28.5799
30.5088
32.6931
34.6246
36.5568
38.4814
40.012
41.1409
42.0848
42.7712
42.8718
42.7951
42.8575
42.7058
42.5964
42.5974
42.4887
42.4688
42.8515
43.5236
44.1344
45.0169
46.3075
47.6737
49.1183
50.8687
52.7374
54.4861
56.2232
57.9761
59.6256
61.1438
62.4781
63.4894
64.2681
65.0715
65.8612
66.5476
67.1216
67.4693
67.8045
68.0433
68.3129
68.4496
68.3186
68.1583
68.089
67.6079
66.6707
65.4094
63.2015
59.6749
55.4396
51.0954
47.2506
42.9186
38.9166
34.6896
29.6224
25.0264
20.8885
17.4566
16.4616
17.0759
17.7108
20.0836
24.0299
27.8742
31.4814
35.8531
40.425
44.2895
47.0881
48.3978
48.3864
47.9425
46.4668
44.6121
42.8452
40.7883
38.9478
37.6644
35.9606
35.0326
34.1952
33.2363
33.2243
32.16
32.3445
30.6714
30.56
28.0076
26.9875
24.3845
22.4651
20.3475
19.164
18.0204
17.3412
17.348
17.5703
18.485
19.7594
22.3128
25.6262
29.9523
34.8858
40.0871
45.5246
49.5052
55.1822
51.78
39.2397
39.3068
39.2931
39.2067
38.9855
38.702
38.4221
38.1993
38.0689
37.9978
38.0239
38.1174
38.1908
38.2536
38.2259
38.0705
37.7568
37.2871
36.5876
35.6665
34.5954
33.2332
31.8379
30.4402
29.21
28.3295
28.034
28.4554
29.5309
31.5958
34.154
37.2246
40.6064
43.8772
46.7964
49.281
51.8436
53.9577
55.0273
55.0167
53.9962
51.9891
48.9666
45.4928
42.1036
38.6571
35.3433
32.5945
30.0717
27.7664
25.8198
23.8847
21.7763
19.6769
17.7228
16.0715
15.0291
14.6576
14.7077
15.3088
16.5604
18.1583
20.2708
22.5994
24.4463
26.7058
29.0064
30.6034
32.0781
33.1814
34.0653
34.6255
34.7628
34.3401
33.6853
32.4756
30.8885
29.1117
26.8696
24.8274
22.8635
21.1591
19.8304
19.0593
18.887
19.289
19.9433
21.188
23.1099
25.5355
28.0938
30.4221
32.7048
35.0636
37.1233
38.8095
40.4763
41.8823
42.6281
43.3911
44.1573
44.4914
44.9256
45.3695
45.6346
45.8133
46.2332
46.9961
47.5751
48.3131
49.4137
50.7401
52.0166
53.3867
54.8655
56.3104
57.7767
59.2415
60.5877
61.8013
62.8969
63.775
64.4274
65.1009
65.7615
66.4418
67.0116
67.3591
67.7319
68.0577
68.3934
68.5998
68.5461
68.442
68.3788
67.951
66.8547
65.2767
62.8407
58.9045
54.3968
50.0058
45.9836
41.8227
37.5146
32.95
27.6419
22.2857
17.6258
13.9071
12.6998
13.2789
14.2544
16.4761
20.5592
24.9374
28.9127
33.3369
37.9556
41.8665
44.3778
45.9901
46.2215
45.2131
44.1821
42.6165
40.9796
39.7962
37.5044
36.3408
35.1547
33.171
33.6968
31.5339
32.8014
31.2614
32.0494
30.5179
30.5147
28.5942
27.2149
25.4492
23.2882
21.7115
20.4024
19.5884
18.9105
19.1096
19.45
20.5561
21.9544
24.5851
27.2062
31.2547
34.9884
39.6607
42.9773
45.8002
46.2127
44.5724
39.2574
39.3264
39.2681
39.1773
39.0307
38.7923
38.498
38.2238
38.0497
37.9368
37.9472
38.0366
38.0825
38.1321
38.088
37.8944
37.5588
37.1054
36.4099
35.5037
34.5655
33.3212
32.1047
30.9831
29.9771
29.3066
29.1487
29.6778
30.6942
32.6838
35.0066
37.5959
40.5739
43.4934
46.4969
48.8569
50.8843
52.5302
53.2984
53.4935
52.5373
50.8422
48.4488
45.237
42.0883
39.1016
36.0573
33.4399
31.1338
28.901
26.9221
25.213
23.4238
21.5394
19.8321
18.4218
17.4841
17.1169
17.1092
17.714
18.8809
20.3221
22.3064
24.4697
26.337
28.2351
30.0336
31.4554
32.7955
33.6656
34.2921
34.6412
34.447
33.9067
32.8783
31.1786
29.0027
26.506
23.5668
20.7696
18.0582
15.8044
14.1797
13.0735
12.5164
12.6212
13.5403
14.8561
16.9754
19.8846
22.9326
25.8756
28.7504
31.6166
34.3647
36.8037
39.1529
41.2069
42.6339
44.1172
45.4257
46.3785
47.2814
48.032
48.715
49.1579
49.5644
50.3579
51.1399
51.5298
52.3974
53.579
54.5944
55.6269
56.7864
57.9641
59.1561
60.2619
61.347
62.393
63.2946
63.9719
64.5387
65.1864
65.7631
66.3585
66.8814
67.2972
67.7197
68.1128
68.4622
68.7619
68.793
68.7853
68.7254
68.2618
67.0731
65.2914
62.5055
58.4671
53.5236
49.2752
45.1952
40.8694
36.5212
31.5441
25.9145
20.3801
15.0335
10.9713
9.90763
10.4366
11.2599
13.7144
18.171
22.7206
27.1713
31.6717
36.0304
40.0529
42.5593
43.8139
44.3264
43.1833
42.2823
41.355
38.8893
37.6493
36.098
33.6841
34.4148
31.2326
32.6217
30.6808
31.7187
30.9963
31.3353
30.5778
30.2416
29.0431
27.4632
26.2186
24.4116
23.116
22.0928
21.4999
20.9218
21.1877
21.7044
22.8479
24.144
26.4626
28.9297
32.409
35.4432
39.0251
41.6325
44.012
43.6937
43.2743
38.5909
38.7426
39.215
39.4823
39.3902
39.0696
38.6211
38.2261
38.02
37.8652
37.8681
37.9656
37.983
38.024
37.9674
37.7549
37.4091
36.9617
36.3248
35.4778
34.6887
33.6244
32.5808
31.7405
30.969
30.5063
30.4368
31.0778
32.0578
33.7091
35.7782
37.9945
40.727
43.3363
45.8996
47.8166
49.3421
50.8665
51.5589
51.7768
50.9518
49.3259
47.5234
44.9611
42.1321
39.5308
36.8611
34.3354
32.1527
30.0992
28.1942
26.5586
24.9831
23.4541
22.0431
20.8119
19.9835
19.6479
19.8043
20.5525
21.7108
23.1074
24.928
26.7821
28.3124
29.885
31.3622
32.5002
33.5894
34.3351
34.6983
34.9718
34.7593
33.841
32.3201
30.1729
27.3018
23.9562
20.1848
16.5226
13.0812
10.185
8.13069
6.66158
5.88276
5.91822
6.7897
8.23817
10.6363
13.8798
17.301
20.8664
24.5065
28.1094
31.6494
34.8466
37.9476
40.6997
42.8376
44.8807
46.6766
48.1975
49.4415
50.4971
51.4974
52.1156
52.5433
53.341
54.0636
54.4212
55.0779
55.9998
56.8126
57.5975
58.371
59.2513
60.2709
61.1636
62.0079
62.8764
63.6523
64.1924
64.6482
65.2065
65.7832
66.3703
66.8668
67.1638
67.59
68.1529
68.6479
69.0316
69.1169
69.147
69.0876
68.5982
67.3343
65.3465
62.4267
58.062
53.0002
48.6538
44.7577
40.4699
35.6527
30.513
24.6096
18.7148
13.152
8.97346
7.6289
8.52149
9.51403
11.8547
16.5718
21.7871
26.2707
30.6992
35.1539
38.8345
41.7789
42.6606
42.5754
42.2297
40.4908
39.6984
37.5192
35.1079
35.1859
31.5801
32.8741
30.5425
31.1898
30.4344
30.5755
30.5727
30.6069
30.4235
29.9765
29.4004
27.9773
27.1324
25.7716
24.7853
23.8505
23.4938
22.988
23.4185
23.7247
24.7717
25.9902
28.1016
30.3445
32.9389
35.7935
38.5686
40.6284
42.2662
42.0134
40.8097
38.3261
38.715
39.4856
39.8747
39.7521
39.2964
38.7106
38.2025
37.9523
37.7825
37.8012
37.8994
37.9043
37.9522
37.8803
37.6439
37.3175
36.9015
36.3166
35.5669
34.9169
34.083
33.193
32.5771
32.0636
31.7744
31.7849
32.4288
33.3968
34.6969
36.5525
38.5228
40.8258
42.9526
44.9001
46.7039
48.0739
49.2764
49.8171
49.8108
49.2885
47.9917
46.4952
44.5487
42.2053
39.9321
37.6481
35.3947
33.4464
31.6447
29.8985
28.3954
26.9592
25.6529
24.5663
23.5491
22.9227
22.7837
23.1578
24.0264
24.9129
26.0998
27.6658
29.0149
30.2631
31.618
32.6804
33.5995
34.5964
35.2255
35.6419
35.8433
35.3328
34.1823
32.3588
29.669
25.979
21.7665
17.2251
12.6114
8.42851
4.8329
2.12537
0.349353
-0.591295
-0.588716
0.218735
1.81202
4.4499
7.86418
11.5256
15.7392
20.0898
24.3697
28.8275
32.9925
36.7893
40.2543
43.1943
45.6825
47.8916
49.8456
51.3684
52.6655
53.8999
54.6555
55.0942
55.7886
56.4483
56.8519
57.3425
57.9678
58.5791
59.1933
59.7651
60.4403
61.2518
61.9518
62.5712
63.2147
63.8935
64.4563
64.8926
65.3103
65.754
66.294
66.7571
67.0361
67.4968
68.1832
68.8546
69.3108
69.4985
69.5967
69.4646
68.9155
67.6674
65.4229
62.4989
57.8686
52.6982
48.3163
44.3604
40.3833
35.4937
29.8629
23.8647
17.6584
11.9549
7.75559
6.56017
7.36248
8.69358
11.5258
16.2396
21.6806
26.4625
30.9668
35.3667
38.874
41.7725
42.6236
41.6568
41.6438
39.2656
37.5025
36.7036
32.7327
33.5148
30.7057
30.9865
30.1114
29.973
29.9465
29.7203
30.3053
30.1112
30.519
30.0189
30.1101
28.8888
28.2689
27.1676
26.3433
25.4385
25.2366
24.8626
25.0739
25.4173
26.3622
27.5664
29.2097
31.296
33.3382
35.7807
37.7457
39.328
40.1688
39.6823
38.321
38.3479
38.7942
39.6743
40.0661
39.8854
39.3498
38.7498
38.1982
37.9202
37.8045
37.8312
37.8959
37.9074
37.9411
37.8272
37.6007
37.3246
36.912
36.3978
35.7776
35.2239
34.608
33.8791
33.4394
33.1465
32.9633
33.0634
33.6244
34.5485
35.6191
37.1746
38.9219
40.6918
42.4376
44.109
45.78
46.9315
47.7394
48.26
48.2799
47.8864
46.9054
45.6351
44.1175
42.1866
40.3473
38.4844
36.5255
34.924
33.3497
31.8339
30.6454
29.3658
28.1569
27.3532
26.6996
26.3302
26.2044
26.561
27.3414
28.0315
28.957
30.0442
31.0334
32.1252
33.1111
34.0491
34.9764
35.8029
36.5072
36.9415
37.0289
36.5165
35.2915
33.1128
29.7542
25.3843
20.3624
14.9709
9.56738
4.69159
0.447078
-2.90683
-5.07929
-6.39543
-6.85603
-5.8086
-3.98545
-1.29576
2.21344
6.19601
10.7738
15.5667
20.5803
25.9499
31.0154
35.6441
39.9275
43.4848
46.4451
49.0997
51.3487
53.0749
54.5539
55.8774
56.6807
57.2036
57.8621
58.4668
58.8525
59.2411
59.6408
60.0341
60.4811
60.8757
61.3343
61.9822
62.624
63.1701
63.6772
64.1738
64.612
65.0593
65.5409
65.9048
66.18
66.5037
66.8713
67.4259
68.2312
69.012
69.6018
69.8716
69.9961
69.8372
69.2211
67.9164
65.672
62.5344
58.0251
52.8273
48.1045
44.33
40.3079
35.6402
30.1008
23.7869
17.4508
11.6197
7.54237
6.17085
7.32652
9.17544
12.1555
17.2045
22.7638
27.6594
32.1606
36.7163
40.3508
42.2109
43.473
41.9436
41.18
39.757
36.4354
36.4522
32.6673
32.372
30.7788
30.2305
29.9658
29.5777
29.873
29.619
30.561
30.4648
31.1087
30.7092
31.0854
30.0552
29.3601
28.508
27.6567
26.8422
26.5661
26.3281
26.4862
26.7674
27.5717
28.674
30.0437
31.8997
33.4041
35.2524
36.8321
37.955
38.3916
37.9417
36.829
38.9838
39.1704
39.5928
39.6511
39.3362
38.8969
38.4789
38.1109
37.929
37.8961
37.9378
37.9747
37.9717
37.9802
37.843
37.594
37.3563
36.9822
36.5256
36.0334
35.5708
35.103
34.5177
34.204
34.0803
33.9415
34.1081
34.6316
35.4357
36.351
37.6081
39.0768
40.5019
42.0295
43.4859
44.9109
45.8491
46.4401
47.0325
47.0751
46.7
45.9676
44.9667
43.7486
42.2392
40.8108
39.3132
37.6577
36.335
35.0821
33.776
32.8169
31.7566
30.7187
30.1485
29.7761
29.5392
29.4266
29.6619
30.2295
30.7474
31.3939
32.2362
32.948
33.7342
34.6565
35.531
36.4419
37.2097
37.8674
38.4593
38.7246
38.3488
37.0028
34.5176
30.7008
25.6273
19.7267
13.3787
7.19031
1.70571
-3.06453
-6.8096
-9.3425
-11.055
-11.6768
-10.7981
-8.89678
-6.15112
-2.67565
1.51774
6.33908
11.3529
16.9476
23.1336
28.9692
34.4319
39.4876
43.7546
47.2583
50.2543
52.7363
54.6221
56.221
57.614
58.5094
59.1025
59.7232
60.2196
60.4929
60.7231
60.9732
61.2499
61.5406
61.7907
62.1886
62.7332
63.2096
63.6345
64.0582
64.4845
64.8891
65.2836
65.6517
65.9539
66.1676
66.4386
66.6417
67.0801
68.1051
69.1176
69.8236
70.2271
70.3536
70.1567
69.5099
68.1446
65.9217
62.7036
58.2926
53.2888
48.4174
44.5043
40.5667
35.9615
30.5929
24.4069
18.1321
12.4102
8.34687
7.35304
8.37297
10.5681
13.9128
19.1045
24.5254
29.9073
34.5233
38.4643
42.2748
43.4934
44.8283
43.9681
41.9903
41.9863
38.3849
37.7451
34.7938
33.4547
32.2485
30.8863
30.628
30.0941
30.4058
30.2692
31.299
31.3672
32.0246
31.6355
31.9659
31.1862
30.3436
29.6592
28.8103
28.0861
27.7151
27.5964
27.7162
27.8761
28.556
29.5999
30.6714
32.1284
33.3544
34.8037
35.9995
36.7429
37.0013
36.6149
35.7404
41.4004
40.9922
39.7515
38.8052
38.2035
37.943
37.9153
37.8921
37.9274
38.0465
38.0973
38.0964
38.0992
38.0498
37.8788
37.6486
37.4213
37.075
36.6709
36.2774
35.9003
35.5268
35.0871
34.8774
34.8367
34.7504
34.9186
35.4216
36.0985
36.8534
37.8764
39.1343
40.3725
41.6574
42.9445
44.106
44.891
45.5106
46.0378
46.0669
45.7661
45.238
44.4943
43.5209
42.3279
41.2618
40.0814
38.694
37.6192
36.6311
35.6079
34.7435
33.8994
33.2328
32.7856
32.54
32.3676
32.185
32.386
32.7113
33.0389
33.6349
34.1817
34.7829
35.5444
36.1776
36.8808
37.7851
38.5949
39.3788
40.1852
40.6327
40.4548
39.246
36.5827
32.3107
26.4658
19.5435
12.1715
5.02981
-1.21468
-6.42718
-10.4233
-13.1454
-15.0169
-15.8146
-15.0177
-13.0309
-10.1455
-6.42271
-2.11464
2.57239
7.75586
13.8779
20.4991
26.9894
33.3443
39.1363
44.067
48.1206
51.4894
54.1896
56.2347
57.9317
59.3348
60.2392
60.7937
61.2557
61.6178
61.8429
61.9872
62.1241
62.297
62.495
62.6655
62.9386
63.3269
63.7205
64.125
64.5033
64.9009
65.2198
65.4665
65.7105
65.902
66.0114
66.2414
66.4313
66.8349
67.8214
68.9047
69.825
70.4176
70.5831
70.3471
69.6413
68.3852
66.1967
62.9671
58.6736
53.8026
49.082
44.9933
41.1896
36.6829
31.2064
25.356
19.325
13.8925
10.2126
9.22529
10.1032
12.6172
16.4001
21.5691
27.3729
32.6726
37.136
41.1661
44.9592
45.702
46.4443
47.3113
44.7753
44.9537
42.0891
40.4018
37.8859
35.3739
34.0213
32.2371
31.8454
31.4663
31.7864
31.5466
32.5683
32.7207
33.197
32.8617
32.8635
32.3309
31.4667
30.8312
29.9475
29.3817
28.8832
28.8096
28.888
28.9358
29.4997
30.3132
31.2297
32.373
33.3058
34.4272
35.3792
35.8584
36.0033
35.6903
34.9741
42.2126
41.6638
39.8472
38.3913
37.5921
37.3715
37.5101
37.7559
37.969
38.1785
38.2903
38.2943
38.2677
38.1721
37.9732
37.7297
37.4971
37.1947
36.8383
36.5133
36.2135
35.9028
35.5802
35.4554
35.4613
35.3912
35.5603
36.0215
36.5652
37.2267
38.0891
39.1727
40.2593
41.3299
42.4108
43.4123
44.1701
44.6853
45.1352
45.2214
44.9805
44.6764
44.1194
43.3421
42.4871
41.663
40.7595
39.655
38.7535
38.0272
37.1974
36.5187
35.9888
35.4876
35.1131
34.8951
34.7329
34.6593
34.7802
34.9598
35.2735
35.7349
36.0846
36.5376
37.1764
37.552
38.053
38.9136
39.8227
40.8081
41.8494
42.6585
42.8273
41.7113
38.902
34.0962
27.4335
19.5607
11.2468
3.20635
-3.8597
-9.51261
-13.7696
-16.7675
-18.7306
-19.6266
-18.9198
-16.6801
-13.3147
-9.28107
-4.85159
-0.169782
5.07724
11.3724
18.3076
25.4184
32.4418
38.9485
44.5821
49.1527
52.8577
55.8005
57.9674
59.6514
60.9341
61.7596
62.2507
62.6146
62.8695
62.9905
63.0881
63.1727
63.1929
63.2814
63.4065
63.6057
63.974
64.3361
64.5724
64.8465
65.25
65.5461
65.7315
65.9113
65.8597
65.6088
65.6609
65.8307
66.1927
67.2981
68.5797
69.6368
70.2727
70.4954
70.2954
69.6205
68.4412
66.4272
63.3771
59.3191
54.4906
49.7693
45.7969
42.0918
37.8262
32.5704
26.6118
20.821
15.8393
12.5068
11.3451
12.4763
15.0066
19.3928
24.2994
29.9662
36.9029
39.7923
45.0605
46.4192
48.4412
48.918
50.8381
49.198
49.3689
47.4577
44.8041
42.1543
39.0349
37.5004
35.7042
35.054
34.6373
34.5721
34.2282
34.6883
34.6928
34.8648
34.4438
34.1138
33.5659
32.7548
32.0491
31.1163
30.6945
30.0771
29.9547
29.9897
29.8884
30.3944
30.9434
31.6954
32.5707
33.2734
34.1524
34.8254
35.1327
35.2923
35.1358
34.4833
42.6013
42.1127
40.1214
38.4558
37.4801
37.1725
37.3286
37.6841
38.0015
38.2683
38.4188
38.4515
38.4178
38.285
38.0767
37.84
37.5831
37.2985
37.0226
36.7606
36.4904
36.2488
36.0083
35.8974
35.965
35.9236
36.0657
36.5026
36.9586
37.5256
38.2435
39.1789
40.1023
40.9747
41.9429
42.819
43.4608
43.9259
44.3712
44.4987
44.3486
44.2093
43.8734
43.2627
42.6332
42.0572
41.3319
40.539
39.8364
39.2435
38.7306
38.2307
37.8337
37.5191
37.123
36.987
36.967
36.8648
37.038
37.1625
37.4095
37.8024
37.9332
38.0238
38.4481
38.766
39.0434
39.7947
40.7705
41.8905
43.2622
44.4393
44.865
43.9135
40.7578
35.3917
28.1529
19.6379
10.6909
2.19481
-5.24085
-11.276
-15.8289
-19.1137
-21.4156
-22.5421
-21.9391
-19.4544
-15.7414
-11.4029
-6.80807
-2.0382
3.30809
9.6537
16.7544
24.2849
31.8956
39.0513
45.2646
50.3002
54.3115
57.3565
59.5859
61.2568
62.4995
63.2889
63.6684
63.9387
64.0747
64.0642
64.1066
64.1236
64.0478
64.0569
64.1251
64.2639
64.5214
64.8516
65.1337
65.357
65.5918
65.7866
66.0161
66.2208
65.9321
65.2075
64.7548
64.7134
65.0683
66.3623
67.8678
69.2363
70.0294
70.2522
70.0551
69.4447
68.3739
66.5555
63.8813
60.1122
55.5096
50.7888
46.7635
43.2455
39.2836
34.5805
28.6654
22.9711
18.4336
14.9137
13.9325
15.2599
18.0083
22.4535
28.1542
31.5122
41.5508
40.2021
50.4718
46.6438
50.4115
51.86
54.3901
54.7633
55.2812
54.2378
51.2242
48.7687
45.4139
43.4658
41.3684
39.8953
38.9068
38.2386
37.6406
37.4545
37.08
36.8147
36.2408
35.5272
34.8833
34.2214
33.2194
32.3466
32.0223
31.1661
31.048
30.9302
30.7438
31.2554
31.4605
31.9876
32.7321
33.2106
33.8505
34.3787
34.6197
34.7876
34.6695
34.0729
42.8208
42.3918
40.3547
38.5603
37.4917
37.0912
37.2015
37.6235
38.0207
38.315
38.5325
38.5885
38.5308
38.3774
38.1804
37.9598
37.695
37.4415
37.1922
36.9784
36.7662
36.5419
36.3685
36.3331
36.3728
36.3583
36.5105
36.8509
37.2421
37.7532
38.3662
39.1053
39.9228
40.6738
41.4674
42.2676
42.8132
43.2814
43.7231
43.8725
43.8767
43.8416
43.652
43.2549
42.7959
42.4086
41.9448
41.3745
40.893
40.481
40.1262
39.8367
39.5074
39.2576
39.0628
38.9817
39.0315
38.9849
39.1538
39.2534
39.4368
39.6818
39.5768
39.5728
39.6453
39.7085
39.7439
40.1907
41.0729
42.4024
43.9215
45.4031
46.0077
44.9337
41.7244
36.1023
28.4116
19.4817
10.274
1.62912
-5.84853
-11.8964
-16.5628
-20.06
-22.57
-23.8372
-23.3412
-20.9032
-17.1632
-12.7176
-7.94932
-3.07602
2.28064
8.68702
15.9577
23.78
31.7865
39.4627
46.1311
51.4872
55.7253
58.9511
61.2839
62.9196
64.1096
64.7462
65.0162
65.2548
65.3196
65.1946
65.1362
65.0645
64.8697
64.8126
64.8469
64.8937
65.0563
65.3127
65.5895
65.8592
66.1247
66.202
66.238
66.3265
65.8997
64.9897
64.1501
63.4406
63.2185
64.403
66.6583
68.5811
69.5277
69.8042
69.6165
69.0835
68.1936
66.6753
64.318
60.9921
56.8462
52.2199
48.1107
44.5475
40.9068
36.9132
31.3436
26.0018
21.4738
18.171
16.9855
17.6272
21.2042
26.5163
30.6669
31.9878
46.0318
41.0049
54.6696
44.4468
53.8134
55.0535
57.0139
60.1308
61.8064
61.6854
58.7255
56.5332
53.0085
50.4914
47.7735
45.6275
43.8119
42.4718
41.5025
40.607
39.931
39.1176
38.3416
37.4314
36.4299
35.8288
34.4963
33.5992
33.2744
32.1927
32.0813
31.792
31.5127
31.8917
31.869
32.3218
32.7826
33.092
33.6708
34.017
34.1579
34.2998
34.1658
33.6425
42.9211
42.4612
40.3964
38.6213
37.5383
37.1081
37.2335
37.6495
38.0795
38.4007
38.6095
38.7039
38.6416
38.4649
38.2884
38.0783
37.827
37.5735
37.3588
37.2163
37.0282
36.8271
36.7131
36.6863
36.7212
36.7381
36.8544
37.1425
37.4888
37.8998
38.4087
39.0253
39.6946
40.3464
41.0461
41.7294
42.2286
42.7026
43.1416
43.3617
43.4619
43.5349
43.5019
43.2839
43.0002
42.7825
42.5383
42.2119
41.9135
41.6493
41.4507
41.2508
41.0491
40.9164
40.8686
40.8591
40.9772
41.0569
41.1353
41.1966
41.2374
41.436
41.2101
41.0922
40.7183
40.3306
40.1685
40.1539
40.7813
42.0082
43.7991
45.1489
45.6303
44.6125
41.4657
35.8876
28.2319
19.328
10.1292
1.51975
-5.94008
-11.9582
-16.6058
-20.1013
-22.5802
-23.8143
-23.3989
-21.0807
-17.4549
-13.054
-8.34264
-3.49336
2.02503
8.5579
15.9076
23.9336
32.2995
40.3417
47.2714
52.9454
57.3809
60.6993
63.0223
64.6004
65.6783
66.2055
66.4547
66.608
66.4828
66.2318
66.1604
65.946
65.5849
65.5486
65.5532
65.3848
65.498
65.8346
66.0214
66.1955
66.5006
66.6383
66.7035
66.668
65.7497
64.2279
63.2636
62.6212
62.1274
63.1765
65.479
67.5921
68.6302
68.8887
68.8385
68.5203
67.9106
66.7803
64.8809
62.1051
58.4031
53.9711
50.0236
46.0954
42.5167
39.4875
34.2739
29.5198
25.3513
22.35
21.1207
21.8928
24.8408
29.2625
32.503
36.1341
47.7495
43.0152
50.3363
35.08
56.2699
53.9577
59.3321
66.0506
68.6354
68.8298
66.714
64.8362
61.2286
58.5555
55.2186
52.5634
49.9356
47.8045
46.1976
44.4749
43.1096
41.8651
40.6239
39.2459
38.1259
37.2205
35.7432
34.8667
34.2657
33.1994
33.0358
32.4626
32.2217
32.4591
32.1791
32.5801
32.8205
32.9905
33.5123
33.6325
33.7123
33.8646
33.676
33.2438
42.8862
42.4526
40.4262
38.6927
37.6526
37.2354
37.3638
37.7915
38.2088
38.5174
38.7133
38.7953
38.7277
38.5414
38.3711
38.1838
37.9556
37.737
37.5501
37.4353
37.298
37.1056
37.0082
37.022
37.0274
37.0401
37.175
37.3877
37.6512
38.0077
38.4105
38.8876
39.447
40.0044
40.6021
41.2047
41.7052
42.1787
42.6179
42.8976
43.0973
43.2792
43.3609
43.3506
43.2475
43.2072
43.1601
43.0177
42.8929
42.7392
42.6616
42.5496
42.5277
42.5232
42.5314
42.6454
42.7365
42.929
42.9979
43.0545
42.987
43.0482
42.6624
42.2205
41.7129
40.5735
40.2301
39.9729
40.1628
41.2105
42.4708
43.6496
43.7988
42.5427
39.6238
34.65
27.7546
19.532
10.6804
2.38461
-4.91804
-10.9449
-15.6415
-19.1432
-21.5335
-22.6554
-22.2002
-20.1
-16.7862
-12.6519
-8.08629
-3.1537
2.52367
9.12289
16.6253
24.903
33.5216
41.7086
48.8184
54.6171
59.0966
62.4388
64.6868
66.2234
67.2601
67.6712
67.8037
67.8801
67.5891
67.2076
67.1028
66.7746
66.2605
66.1614
66.1045
65.8344
65.8725
66.2337
66.414
66.544
66.8966
67.0998
67.1474
66.9802
65.9071
64.0029
62.4047
61.5319
61.7248
62.9177
65.1228
66.9313
67.6806
67.8642
67.9433
67.8776
67.5845
66.8661
65.61
63.4529
60.1924
56.1183
52.3098
48.0981
44.698
41.7029
37.4295
33.1445
29.2249
26.4666
25.2032
26.3232
29.6516
33.169
35.0967
42.5087
44.6296
46.1371
46.6821
27.0426
57.1463
43.9024
62.2308
71.6853
74.6559
75.261
74.8423
72.9554
69.6914
66.8124
62.9237
59.4802
55.802
52.8567
50.5248
48.2876
45.9927
44.3804
42.7908
40.9749
39.873
38.549
37.0926
36.1861
35.1538
34.2355
33.8107
33.0444
32.9218
32.8514
32.427
32.8171
32.8205
32.8642
33.337
33.3251
33.3752
33.4878
33.2026
32.8777
42.6789
42.2356
40.3221
38.7445
37.8275
37.5144
37.6584
38.0325
38.4041
38.6502
38.8185
38.8699
38.7904
38.6345
38.4469
38.2842
38.0877
37.8883
37.752
37.6486
37.5326
37.3849
37.3047
37.3135
37.3037
37.3186
37.4294
37.5481
37.769
38.0583
38.3467
38.7566
39.1981
39.6638
40.1882
40.6927
41.1857
41.6627
42.0867
42.4694
42.7759
43.053
43.2943
43.4566
43.5489
43.6211
43.7485
43.7749
43.7578
43.7627
43.8025
43.8557
43.9251
44.0151
44.0561
44.2168
44.372
44.5601
44.5496
44.5649
44.5353
44.2304
43.7792
42.9359
42.3055
41.1249
39.9994
39.6777
39.6274
40.2457
40.9613
41.1473
40.4966
39.1123
36.4154
32.3103
26.6514
19.649
11.8838
4.1964
-2.83134
-8.84441
-13.6424
-17.229
-19.6194
-20.6901
-20.2056
-18.489
-15.5267
-11.6828
-7.23036
-2.19391
3.63425
10.3937
18.1182
26.5967
35.2869
43.4339
50.5345
56.306
60.8055
64.1261
66.3294
67.8721
68.7629
68.9057
68.9761
69.005
68.5199
68.0861
67.9741
67.4762
66.8577
66.8201
66.656
66.0715
66.0701
66.5773
66.6903
66.7709
67.2848
67.6715
67.7988
67.5864
66.3328
64.2391
62.4578
61.4103
61.5045
63.092
65.1865
66.5069
66.8816
66.9829
67.1268
67.283
67.3219
67.0356
66.2906
64.722
62.1558
58.4396
54.7524
50.4576
47.2397
44.2464
40.571
36.743
33.2246
30.6538
29.0955
29.8367
32.772
35.9933
38.3474
43.411
45.2322
46.8588
42.1223
37.5312
56.1383
39.0659
69.0806
77.4761
79.7796
81.029
82.2835
80.0333
77.0832
73.7317
69.4597
64.8777
60.6212
57.022
53.9587
51.564
48.5926
46.8466
44.9032
42.6704
41.6575
39.8369
38.3365
37.4173
35.9623
35.1909
34.5117
33.6124
33.4174
33.0906
32.7764
32.8128
32.7586
32.9547
33.072
33.0536
33.1917
33.1437
32.8661
32.6944
42.1802
41.7592
40.1767
38.8849
38.1397
37.9593
38.0681
38.3469
38.6498
38.8007
38.9263
38.9405
38.8188
38.6917
38.5155
38.3605
38.2151
38.0568
37.9554
37.855
37.7637
37.6503
37.55
37.5601
37.529
37.5362
37.6458
37.7036
37.8672
38.0877
38.2813
38.5927
38.9448
39.3221
39.7721
40.2368
40.7175
41.209
41.6564
42.1035
42.4997
42.8679
43.2462
43.5638
43.8239
44.0467
44.3016
44.4681
44.5698
44.722
44.8652
45.0078
45.1074
45.2559
45.3534
45.4658
45.67
45.7915
45.7272
45.5403
45.4428
45.0517
44.3933
43.5252
42.4572
41.3689
40.3014
39.6358
39.4733
39.566
39.301
38.2987
36.4484
34.4273
32.1079
29.31
25.5002
20.2875
13.9091
7.06371
0.392907
-5.6005
-10.5844
-14.4047
-16.9909
-18.2297
-18.0447
-16.5711
-13.891
-10.2467
-5.8346
-0.664399
5.37502
12.3498
20.2527
28.8462
37.4372
45.4292
52.4216
58.0974
62.5307
65.7007
67.7837
69.3011
69.9917
69.9369
70.0145
70.0011
69.3699
68.8289
68.6719
68.0632
67.2963
67.2675
67.1091
66.3626
66.2592
66.8764
66.8475
66.7357
67.3432
67.9168
68.1975
68.2254
67.337
65.3959
63.4586
62.294
62.672
64.1769
65.7777
66.5021
66.5344
66.5245
66.6708
66.968
67.2731
67.2606
66.8377
65.6709
63.7169
60.9022
57.1884
53.3038
50.0049
46.6166
43.3511
40.0173
36.6378
34.0951
32.8305
33.1713
34.7699
36.5512
38.1065
40.7244
39.7345
40.2862
40.2217
45.8065
54.2331
55.2102
79.6782
82.332
83.9845
87.4332
88.6332
85.7245
83.1478
79.3127
74.6655
69.4165
65.0294
60.8672
57.4615
54.7082
51.1923
49.0857
46.7905
44.3015
43.028
41.0127
39.4387
38.3538
36.729
35.9291
35.0864
34.1874
33.8507
33.294
33.0452
32.8637
32.7502
32.8709
32.8505
32.9681
33.0378
32.9163
32.9323
32.7032
41.4144
41.0698
40.0122
39.132
38.6101
38.5142
38.5545
38.6971
38.8856
38.9389
39.0036
38.9808
38.8394
38.7375
38.5744
38.4366
38.3327
38.2039
38.1317
38.0356
37.953
37.8681
37.7681
37.7634
37.7226
37.7132
37.7962
37.8084
37.9193
38.0893
38.2168
38.4643
38.7366
39.0447
39.4431
39.8672
40.3495
40.8452
41.3279
41.8222
42.294
42.7575
43.2183
43.6634
44.0639
44.3939
44.7413
45.0143
45.2056
45.4694
45.6849
45.8561
46.008
46.1357
46.2278
46.284
46.4238
46.4772
46.3255
46.0542
45.7748
45.3942
44.6176
43.6925
42.7318
41.6279
40.6775
40.0937
39.7094
39.1235
37.8324
35.628
32.7894
30.1885
27.8764
26.4036
24.7203
21.718
17.0833
11.2923
5.03954
-0.985033
-6.28912
-10.5449
-13.5432
-15.1572
-15.343
-14.2202
-11.803
-8.30809
-3.87431
1.45807
7.72323
14.9149
22.9265
31.4239
39.8133
47.6135
54.3641
59.8423
64.0885
66.9873
68.9822
70.4808
70.9688
70.8248
70.9205
70.7772
69.9744
69.4462
69.2998
68.5342
67.6538
67.5932
67.3029
66.3935
66.4444
67.1527
67.0729
66.8423
67.467
68.032
68.2607
68.4419
68.0655
66.7676
65.3151
64.7813
64.9073
65.8758
66.7558
66.9696
66.7226
66.543
66.5854
66.9215
67.3973
67.6615
67.4209
66.5713
65.0834
62.807
59.5426
56.1042
52.4514
48.8823
45.6913
42.6546
39.681
37.1152
36.1419
36.0369
36.5918
38.0004
39.4299
39.2635
35.7343
38.604
41.3128
48.6013
59.6073
71.9801
83.732
84.9857
88.6254
93.3015
92.8384
90.5206
88.0437
83.8666
78.8684
73.3393
68.8864
64.2722
60.5823
57.2841
53.6382
50.986
48.3754
45.8303
44.1704
42.2702
40.3755
39.1131
37.5573
36.4695
35.4789
34.6342
34.0715
33.4663
33.2339
32.8276
32.7836
32.7735
32.6322
32.8871
32.924
32.7635
32.8124
32.6935
40.594
40.3966
39.9342
39.4959
39.178
39.0839
39.0149
39.0069
39.0639
39.0359
39.0354
38.9895
38.8561
38.7655
38.6278
38.4998
38.42
38.3244
38.2604
38.1776
38.0927
38.019
37.9288
37.8941
37.8585
37.84
37.8822
37.8899
37.9579
38.0745
38.1819
38.3762
38.6062
38.881
39.2387
39.6466
40.1155
40.6173
41.1125
41.6394
42.1686
42.6901
43.22
43.7397
44.2195
44.6286
45.0254
45.3695
45.6346
45.9148
46.1572
46.3427
46.488
46.5941
46.6345
46.6381
46.6613
46.5943
46.4215
46.1712
45.8093
45.3686
44.6957
43.7957
42.8827
41.9804
41.2042
40.6907
40.1408
39.0923
37.1275
34.1303
30.4082
26.8182
25.0545
24.7939