/*--------------------------------*- C++ -*----------------------------------*\
| =========                 |                                                 |
| \\      /  F ield         | OpenFOAM: The Open Source CFD Toolbox           |
|  \\    /   O peration     | Version:  2.4.0                                 |
|   \\  /    A nd           | Web:      www.OpenFOAM.org                      |
|    \\/     M anipulation  |                                                 |
\*---------------------------------------------------------------------------*/
FoamFile
{
    version     2.0;
    format      ascii;
    class       volScalarField;
    location    "1.68";
    object      pMean;
}
// * * * * * * * * * * * * * * * * * * * * * * * * * * * * * * * * * * * * * //

dimensions      [0 2 -2 0 0 0 0];

internalField   nonuniform List<scalar> 
8800
(
87.2778
74.8325
67.4291
63.8657
61.9749
60.539
59.3306
58.1775
57.1475
56.1109
55.1598
54.1666
53.2614
52.3112
51.4702
50.589
49.8269
49.032
48.3332
47.5414
84.1665
74.4781
67.5975
63.9795
62.0349
60.5642
59.3381
58.1778
57.1455
56.1084
55.1569
54.1645
53.2588
52.3095
51.4683
50.587
49.8288
49.0262
48.3345
47.5
82.2014
74.5542
68.199
64.3552
62.2025
60.6435
59.3847
58.2106
57.1698
56.1255
55.1673
54.1691
53.2603
52.3077
51.4674
50.5807
49.8332
49.0168
48.387
47.5357
80.6661
74.616
68.7851
64.7787
62.3863
60.7315
59.4474
58.2672
57.2184
56.1644
55.1948
54.1866
53.2714
52.3116
51.4705
50.5754
49.837
49.0198
48.4783
47.7094
79.4175
74.5896
69.2599
65.1842
62.5548
60.7992
59.4966
58.325
57.2741
56.2162
55.23
54.2138
53.2842
52.3218
51.4697
50.5766
49.8294
49.0388
48.481
47.9418
78.4325
74.4927
69.6242
65.5301
62.705
60.8419
59.5249
58.3697
57.324
56.2658
55.2649
54.2407
53.2953
52.3308
51.4652
50.5759
49.8146
49.0536
48.5295
48.2752
77.676
74.376
69.8913
65.8096
62.84
60.8677
59.5335
58.4011
57.3631
56.3075
55.2934
54.2637
53.302
52.3373
51.4571
50.5734
49.795
49.0591
48.6053
48.6474
77.1224
74.2755
70.072
66.022
62.9577
60.8871
59.5261
58.4251
57.39
56.3416
55.3124
54.2846
53.3028
52.3455
51.4448
50.5767
49.7725
49.0589
48.559
48.977
76.762
74.2052
70.1856
66.1667
63.0424
60.9006
59.517
58.4411
57.4101
56.3664
55.3272
54.2999
53.3064
52.3524
51.4413
50.5799
49.763
49.0745
48.6294
49.2875
76.5825
74.1737
70.2435
66.2439
63.0876
60.9106
59.5125
58.4521
57.4233
56.3831
55.3373
54.3113
53.3118
52.3607
51.4447
50.5881
49.7716
49.0982
48.6937
49.4056
76.5754
74.1846
70.2444
66.2491
63.0872
60.9144
59.51
58.4562
57.4233
56.388
55.338
54.3172
53.314
52.3691
51.4498
50.6003
49.782
49.1227
48.7321
49.5002
76.7442
74.2335
70.1884
66.1778
63.0424
60.9093
59.5121
58.4506
57.4116
56.3781
55.3305
54.3155
53.3151
52.3749
51.4582
50.613
49.798
49.1406
48.7566
49.5327
77.0949
74.316
70.0733
66.0354
62.9561
60.9003
59.5174
58.4395
57.3907
56.3594
55.3164
54.3099
53.3154
52.3826
51.4713
50.6317
49.8214
49.1624
48.7615
49.5017
77.6409
74.4224
69.8911
65.8229
62.8329
60.8828
59.5206
58.4183
57.3602
56.3296
55.2948
54.2973
53.3133
52.3888
51.4866
50.6545
49.8526
49.1909
48.7509
49.3908
78.3944
74.5387
69.6258
65.5408
62.694
60.8539
59.5132
58.385
57.32
56.2887
55.2663
54.277
53.3084
52.3907
51.5027
50.6785
49.8929
49.2295
48.7514
49.195
79.3762
74.6367
69.263
65.1939
62.5413
60.8089
59.4871
58.3397
57.2709
56.2396
55.2334
54.2519
53.3019
52.3886
51.5187
50.7007
49.9405
49.2797
48.7816
48.935
80.6228
74.6639
68.7904
64.7904
62.3718
60.7413
59.4395
58.2833
57.2159
56.1894
55.2005
54.2272
53.2945
52.3842
51.5324
50.7175
49.9871
49.3278
48.8416
48.6612
82.1572
74.6008
68.2075
64.3688
62.1882
60.6532
59.3779
58.2272
57.1688
56.1508
55.176
54.2104
53.2895
52.3823
51.5425
50.7302
50.0204
49.3648
48.9011
48.5193
84.1213
74.522
67.608
63.9948
62.0214
60.5736
59.3316
58.1948
57.1453
56.1341
55.1669
54.2064
53.29
52.3856
51.5492
50.7401
50.0361
49.3864
48.8982
48.4435
87.2317
74.8744
67.4393
63.8814
61.9621
60.5482
59.3242
58.1947
57.1473
56.1371
55.1697
54.2091
53.2928
52.388
51.5523
50.7435
50.0397
49.3921
48.8995
48.5634
47.6086
47.5332
47.3221
47.087
46.8889
46.7345
46.6236
46.546
46.4936
46.461
46.4438
46.4316
46.4204
46.4043
46.3811
46.3476
46.3047
46.2482
46.1819
46.1036
46.0199
45.9357
45.8574
45.7863
45.7276
45.6818
45.6486
45.6196
45.5877
45.542
45.4783
45.3946
45.2966
45.1899
45.0802
44.9668
44.8507
44.7249
44.5911
44.4464
44.2983
44.1476
44.0118
43.8955
43.8102
43.7531
43.7283
43.7261
43.7439
43.7693
43.7947
43.8054
43.7986
43.7646
43.7095
43.6231
43.5163
43.3852
43.2433
43.083
42.913
42.7273
42.5388
42.348
42.1735
42.0237
41.9138
41.8519
41.8447
41.8812
41.9603
42.0643
42.1915
42.322
42.4597
42.584
42.7026
42.7945
42.8698
42.9127
42.9348
42.9279
42.9085
42.8661
42.8233
42.7728
42.7317
42.6998
42.6828
42.6838
42.7055
42.749
42.8145
42.8949
42.9913
43.0958
43.2149
43.3374
43.4695
43.5984
43.729
43.8468
43.9609
44.0472
44.1292
44.184
44.236
44.2676
44.3035
44.3207
44.3401
44.3445
44.3523
44.3469
44.3483
44.3448
44.3546
44.3639
44.3885
44.4115
44.4474
44.4793
44.5254
44.5627
44.6181
44.657
44.7221
44.7693
44.848
44.9221
45.0264
45.1322
45.259
45.3849
45.5256
45.6626
45.8122
45.9528
46.0997
46.2374
46.3836
46.5274
46.682
46.8349
46.9975
47.1563
47.3247
47.4942
47.6698
47.8455
48.024
48.1988
48.3758
48.5441
48.7119
48.8739
49.0437
49.201
49.373
49.5326
49.7136
49.8667
50.0484
50.1913
50.3628
50.4891
50.6494
50.7574
50.9002
50.977
51.1162
51.1643
51.3154
51.3587
51.5359
51.5859
51.8014
51.8641
52.1177
52.2179
52.506
52.6575
52.9942
53.2155
53.5983
53.8898
54.3095
54.6384
55.0837
55.4092
55.8355
56.0795
56.3619
56.3266
56.1905
55.4
54.1286
50.7978
46.5364
25.8799
47.3818
47.3546
47.2889
47.1381
46.9551
46.7865
46.6619
46.5812
46.5377
46.5162
46.5089
46.5031
46.4959
46.4808
46.4586
46.4251
46.3826
46.3283
46.2663
46.1948
46.1196
46.0435
45.9737
45.9102
45.858
45.8148
45.7817
45.7514
45.7204
45.6789
45.6239
45.5513
45.4655
45.3679
45.2652
45.1557
45.0429
44.9212
44.7941
44.6578
44.52
44.3818
44.2557
44.1464
44.0631
44.0044
43.9739
43.964
43.972
43.9858
44.0013
44.0043
43.9944
43.9599
43.9071
43.8263
43.7266
43.6029
43.4666
43.3132
43.1511
42.9766
42.7991
42.6215
42.4569
42.3141
42.2055
42.1365
42.1155
42.1341
42.1927
42.276
42.383
42.4964
42.6152
42.7248
42.825
42.9029
42.962
42.9936
43.0059
42.9935
42.9696
42.9303
42.888
42.8432
42.8028
42.7736
42.7558
42.7547
42.7724
42.8109
42.8703
42.9449
43.0366
43.1387
43.2538
43.3726
43.4988
43.6228
43.7476
43.8613
43.9669
44.0472
44.1196
44.169
44.211
44.2342
44.255
44.2611
44.2656
44.2595
44.2531
44.2385
44.2261
44.216
44.2142
44.2182
44.2316
44.2445
44.27
44.2911
44.3289
44.3591
44.4084
44.4446
44.5023
44.5475
44.6148
44.6794
44.7683
44.859
44.971
45.0822
45.2095
45.3306
45.4652
45.5912
45.7227
45.8453
45.9769
46.1049
46.242
46.3762
46.5226
46.6591
46.8131
46.9618
47.1264
47.2868
47.4558
47.6189
47.7943
47.9532
48.1256
48.2816
48.4608
48.6144
48.7952
48.952
49.136
49.2812
49.4628
49.5961
49.7655
49.8815
50.0351
50.121
50.2588
50.3026
50.4327
50.4459
50.5834
50.589
50.7551
50.7696
50.9701
51.0059
51.2385
51.316
51.5752
51.7013
51.9955
52.1838
52.5198
52.749
53.123
53.3523
53.7301
53.9105
54.2081
54.2234
54.2897
53.8528
53.3428
51.6912
49.9133
44.0953
38.1434
19.1021
47.3608
47.3686
47.387
47.2879
47.0921
46.8724
46.6986
46.5915
46.5495
46.5445
46.5573
46.5674
46.5704
46.5589
46.5369
46.501
46.4567
46.4018
46.3417
46.2748
46.2072
46.1391
46.0778
46.0215
45.9753
45.9352
45.9034
45.873
45.8429
45.8042
45.756
45.6922
45.6172
45.529
45.4343
45.3305
45.2228
45.1071
44.9883
44.8632
44.7381
44.6141
44.5001
44.4
44.3212
44.2627
44.2277
44.2099
44.2081
44.2107
44.2156
44.21
44.1942
44.1578
44.1049
44.0282
43.9335
43.8173
43.687
43.5418
43.3877
43.2252
43.0609
42.898
42.7465
42.6132
42.5093
42.4377
42.406
42.4097
42.4492
42.5138
42.6006
42.6963
42.7968
42.8898
42.9721
43.0349
43.0779
43.0986
43.1008
43.0854
43.0572
43.0204
42.9781
42.9368
42.8988
42.8709
42.8523
42.848
42.8604
42.8926
42.9442
43.0141
43.1016
43.2029
43.3146
43.4316
43.5536
43.674
43.7929
43.9029
44.0005
44.0769
44.1426
44.1888
44.2233
44.241
44.2514
44.2508
44.2451
44.2338
44.2173
44.1969
44.1755
44.1604
44.1521
44.1489
44.155
44.1585
44.1784
44.1907
44.2243
44.25
44.2966
44.3344
44.3865
44.4319
44.4898
44.5482
44.6229
44.7002
44.7977
44.8952
45.0083
45.1141
45.2314
45.3422
45.4576
45.5643
45.6812
45.7945
45.9169
46.0371
46.1695
46.2911
46.4337
46.5662
46.7206
46.8619
47.0188
47.1658
47.3349
47.4826
47.6592
47.8114
47.9969
48.1518
48.3418
48.5029
48.6886
48.8312
49.0118
49.1339
49.3017
49.3986
49.5479
49.6022
49.7348
49.7478
49.8651
49.8483
49.9768
49.9494
50.1072
50.0944
50.2695
50.2874
50.4798
50.5398
50.751
50.8497
51.0989
51.2321
51.5303
51.6729
51.9976
52.11
52.4032
52.4101
52.5907
52.3116
52.2237
51.2396
50.6121
47.8137
45.8732
38.6884
31.5406
18.5797
47.2226
47.2479
47.4162
47.3692
47.1549
46.8905
46.6816
46.5654
46.5378
46.5601
46.6038
46.6402
46.6606
46.6571
46.6355
46.5959
46.5466
46.488
46.427
46.3623
46.3001
46.2391
46.1855
46.1366
46.0966
46.0609
46.0317
46.0024
45.9736
45.9374
45.8943
45.8381
45.7718
45.6924
45.6056
45.5091
45.4086
45.3014
45.1924
45.0796
44.9685
44.8594
44.759
44.6687
44.5953
44.5373
44.4984
44.4724
44.4598
44.4509
44.4447
44.4309
44.409
44.3708
44.3177
44.2448
44.1552
44.0472
43.9255
43.7908
43.648
43.4988
43.3486
43.2009
43.0634
42.941
42.8428
42.771
42.7314
42.7219
42.744
42.7895
42.8555
42.9314
43.0117
43.0856
43.1492
43.1965
43.2254
43.2367
43.2313
43.2125
43.1817
43.1458
43.1056
43.0675
43.0323
43.0039
42.9822
42.9721
42.9778
43.0034
43.0493
43.1154
43.2011
43.3008
43.4105
43.5247
43.6441
43.7609
43.8749
43.9798
44.0708
44.1424
44.203
44.2469
44.2772
44.2927
44.2981
44.2951
44.2854
44.271
44.2487
44.2239
44.1993
44.1797
44.1703
44.1621
44.1662
44.1652
44.1817
44.1882
44.2195
44.2429
44.2899
44.3275
44.3779
44.4201
44.4753
44.5284
44.5959
44.664
44.7475
44.8328
44.9308
45.0233
45.1244
45.2191
45.3179
45.4085
45.5115
45.6108
45.7227
45.833
45.9554
46.0705
46.2046
46.3244
46.4672
46.5883
46.7323
46.8586
47.0197
47.1519
47.3312
47.4826
47.6753
47.8348
48.0364
48.1957
48.3858
48.5214
48.7093
48.8067
48.984
49.0462
49.1997
49.2174
49.346
49.3276
49.4348
49.3896
49.5163
49.4714
49.6087
49.587
49.7186
49.7276
49.8662
49.904
50.0664
50.1268
50.3322
50.3978
50.6468
50.6943
50.9609
50.9235
51.1785
50.9234
51.0885
50.3723
50.3063
48.5989
47.9691
44.2957
41.8164
35.0531
27.4561
18.7905
48.0337
47.9374
47.6604
47.3282
46.998
46.7156
46.5412
46.476
46.4964
46.5627
46.6465
46.7159
46.7586
46.7664
46.7469
46.7037
46.6484
46.5841
46.5196
46.455
46.3963
46.3413
46.295
46.2538
46.2205
46.1905
46.1653
46.1392
46.1127
46.0799
46.0413
45.9917
45.9335
45.8635
45.7862
45.7001
45.6096
45.5134
45.416
45.3166
45.2193
45.124
45.0358
44.9545
44.8857
44.8279
44.7841
44.7505
44.7273
44.7082
44.6916
44.6704
44.6426
44.6026
44.5498
44.4815
44.3985
44.3005
44.1899
44.0679
43.9385
43.8038
43.6688
43.5361
43.4126
43.3015
43.21
43.1399
43.0956
43.0756
43.0818
43.1087
43.1533
43.2074
43.2649
43.318
43.3624
43.3946
43.4117
43.4149
43.4043
43.3828
43.352
43.3169
43.2788
43.2412
43.2055
43.1724
43.1438
43.1248
43.1234
43.1421
43.1845
43.2481
43.3339
43.4335
43.5428
43.6572
43.7752
43.8901
44.0014
44.102
44.1885
44.2567
44.314
44.356
44.3834
44.3994
44.4021
44.3989
44.3879
44.3712
44.3465
44.3183
44.2943
44.2738
44.267
44.2592
44.2637
44.264
44.2793
44.2881
44.3186
44.3457
44.3911
44.4295
44.4784
44.5194
44.5761
44.6242
44.6909
44.7502
44.8256
44.8977
44.9835
45.0621
45.1523
45.229
45.3172
45.3915
45.4844
45.5693
45.6764
45.7781
45.8983
46.01
46.1383
46.2458
46.3795
46.4781
46.6131
46.7155
46.8679
46.9853
47.1643
47.3111
47.5145
47.6701
47.8871
48.0354
48.2364
48.3582
48.5568
48.6279
48.8167
48.8398
48.9941
48.9773
49.1004
49.0489
49.147
49.0863
49.2047
49.1649
49.2769
49.2502
49.3496
49.3328
49.4336
49.4268
49.558
49.5568
49.7346
49.707
49.9311
49.8302
50.0858
49.8169
50.0805
49.4899
49.6604
48.4991
48.3631
46.1846
45.1712
41.4809
38.2349
32.8635
25.7141
19.3146
48.6819
48.5308
47.9187
47.3052
46.8152
46.4947
46.3623
46.3698
46.4613
46.588
46.7172
46.818
46.878
46.8931
46.8729
46.8249
46.762
46.6911
46.6216
46.5557
46.4984
46.4482
46.4078
46.3738
46.3471
46.3235
46.3031
46.2814
46.2583
46.2296
46.1955
46.1524
46.1017
46.0415
45.9744
45.8997
45.8206
45.7369
45.652
45.5658
45.4813
45.3984
45.3205
45.2477
45.1833
45.1267
45.0798
45.0405
45.0087
44.9805
44.9542
44.9254
44.8913
44.8489
44.7964
44.7322
44.6559
44.5674
44.4682
44.3593
44.2439
44.1245
44.005
43.8881
43.7791
43.68
43.5965
43.5298
43.4833
43.456
43.4497
43.4613
43.4866
43.5196
43.5547
43.5874
43.6136
43.6313
43.6379
43.6344
43.6199
43.5966
43.5656
43.5294
43.4901
43.4494
43.4092
43.3682
43.33
43.2998
43.2915
43.305
43.3449
43.4083
43.4962
43.5971
43.7068
43.8228
43.9415
44.0576
44.1694
44.2711
44.3573
44.4261
44.4823
44.5228
44.5492
44.5656
44.5679
44.5638
44.5515
44.5315
44.5051
44.4742
44.4535
44.4367
44.4346
44.4324
44.4394
44.4459
44.4647
44.4831
44.5171
44.5531
44.5984
44.6405
44.6873
44.7335
44.7906
44.843
44.9104
44.9652
45.0368
45.0951
45.1709
45.2348
45.3159
45.3783
45.4602
45.5226
45.6073
45.6824
45.7883
45.8831
46.0084
46.1178
46.2429
46.3419
46.4652
46.5427
46.6638
46.7469
46.8861
46.9864
47.1681
47.3022
47.5155
47.6599
47.8883
48.0222
48.2437
48.3437
48.5626
48.6015
48.8009
48.7898
48.9456
48.8867
49.0116
48.9199
49.0201
48.9489
49.0682
49.0244
49.1382
49.0832
49.1793
49.1127
49.1996
49.1188
49.2415
49.1522
49.3099
49.1707
49.3634
49.1131
49.3228
48.8719
49.0362
48.2318
48.2096
46.8371
46.3666
44.1685
42.6565
39.4768
35.9501
31.8976
25.74
20.441
49.3279
49.0893
48.1086
47.1833
46.5237
46.1832
46.1283
46.2455
46.4357
46.6361
46.8115
46.9385
47.0088
47.0242
46.9974
46.9407
46.8681
46.7898
46.7151
46.6478
46.5915
46.5455
46.5103
46.4831
46.4626
46.4456
46.4304
46.414
46.395
46.3709
46.3412
46.304
46.2599
46.2082
46.1503
46.0864
46.0183
45.9468
45.8737
45.7997
45.7266
45.6549
45.5863
45.5213
45.4614
45.4069
45.3585
45.3157
45.2778
45.243
45.2093
45.1743
45.1355
45.0913
45.0395
44.9792
44.9092
44.8299
44.7416
44.6456
44.5441
44.4398
44.3352
44.2334
44.1375
44.0499
43.9738
43.9113
43.8645
43.8342
43.8201
43.8204
43.8309
43.8461
43.8615
43.8753
43.8851
43.8904
43.8884
43.8791
43.8612
43.8361
43.803
43.7629
43.7192
43.6736
43.6272
43.5771
43.5289
43.4882
43.472
43.4823
43.5227
43.5902
43.6826
43.787
43.8998
44.0199
44.1409
44.2627
44.3787
44.485
44.5748
44.649
44.7042
44.7441
44.7711
44.787
44.7885
44.7819
44.7695
44.7472
44.7206
44.6889
44.6706
44.6587
44.662
44.6692
44.682
44.6998
44.7293
44.764
44.8091
44.8587
44.9106
44.9588
45.0068
45.0572
45.1159
45.1762
45.2431
45.3026
45.368
45.4219
45.4879
45.5439
45.616
45.6733
45.7486
45.8067
45.8873
45.9612
46.0641
46.1581
46.2815
46.3935
46.5162
46.6105
46.7205
46.7828
46.8827
46.9545
47.0748
47.1569
47.3379
47.4595
47.6696
47.817
48.0499
48.1658
48.4126
48.4956
48.7287
48.7479
48.9427
48.9124
49.0611
48.9802
49.0892
48.9761
49.0691
49.0108
49.122
49.0836
49.1865
49.1239
49.201
49.1015
49.1494
49.0222
49.0882
48.9424
49.0128
48.801
48.8877
48.5464
48.6304
48.0666
48.0496
47.1487
46.9037
45.4823
44.7459
42.7087
40.9894
38.4387
35.0755
31.9241
26.8198
22.1182
50.4653
50.0314
48.365
46.9734
46.1158
45.7764
45.8327
46.0957
46.4118
46.6967
46.9173
47.0647
47.1388
47.1492
47.1112
47.0428
46.9596
46.8747
46.7962
46.7291
46.6748
46.6336
46.6035
46.5828
46.5682
46.5573
46.5472
46.5358
46.5209
46.5013
46.4757
46.4439
46.4054
46.361
46.3107
46.2558
46.1969
46.1355
46.0721
46.0081
45.944
45.8812
45.8199
45.7614
45.7058
45.6541
45.6058
45.5618
45.5204
45.4817
45.4434
45.4051
45.364
45.3199
45.27
45.2145
45.1513
45.0813
45.0037
44.9204
44.8318
44.7409
44.6492
44.5602
44.4752
44.3977
44.3289
44.2716
44.2262
44.195
44.1754
44.1673
44.1652
44.1656
44.1642
44.162
44.1576
44.153
44.1446
44.1309
44.1098
44.0821
44.0454
44.0012
43.9534
43.9027
43.8512
43.7941
43.7372
43.6894
43.6678
43.6785
43.7227
43.7979
43.895
44.0045
44.1216
44.2464
44.3732
44.5027
44.6271
44.743
44.84
44.9211
44.9771
45.0202
45.0478
45.0609
45.0599
45.0498
45.0368
45.0152
44.9887
44.9587
44.9413
44.9372
44.9477
44.9664
44.9899
45.025
45.0721
45.1292
45.1918
45.2599
45.3225
45.3802
45.4351
45.4923
45.556
45.6211
45.6889
45.7503
45.8103
45.868
45.9282
45.984
46.0516
46.1101
46.1808
46.2412
46.3185
46.3951
46.4965
46.5922
46.718
46.8281
46.952
47.0418
47.1472
47.1895
47.2694
47.3365
47.4386
47.5115
47.6877
47.7938
47.9968
48.1356
48.383
48.4783
48.7419
48.8232
49.0638
49.0757
49.2645
49.2359
49.3704
49.2752
49.3576
49.234
49.3091
49.2715
49.3791
49.3528
49.4431
49.3784
49.4416
49.3043
49.31
49.1427
49.1412
48.9311
48.9074
48.6191
48.6075
48.1687
48.1645
47.4809
47.3457
46.3742
45.9933
44.6168
43.768
41.9846
40.2514
38.2332
35.1914
32.5193
28.2931
24.0415
50.9434
50.4645
48.5505
46.9229
45.929
45.5603
45.6656
46.016
46.4163
46.7661
47.0266
47.193
47.2691
47.2712
47.2192
47.1377
47.0443
46.9537
46.8728
46.8067
46.7553
46.7189
46.6942
46.6795
46.6704
46.6649
46.6593
46.6522
46.6408
46.625
46.6031
46.5758
46.542
46.5033
46.4592
46.4116
46.36
46.3065
46.2505
46.1942
46.1371
46.0811
46.0255
45.9722
45.9202
45.8712
45.8238
45.7794
45.7364
45.6959
45.6555
45.616
45.5745
45.5317
45.4848
45.4345
45.3781
45.3169
45.249
45.1769
45.1
45.0213
44.9412
44.8637
44.7893
44.7219
44.6612
44.6103
44.5678
44.5365
44.5133
44.4979
44.4841
44.4707
44.4539
44.4372
44.4212
44.4094
44.3963
44.3807
44.3592
44.3309
44.2921
44.2447
44.192
44.1368
44.0806
44.0172
43.9574
43.906
43.8845
43.8996
43.9524
44.036
44.1394
44.2527
44.3752
44.5055
44.6415
44.7801
44.9171
45.0476
45.1576
45.2467
45.3078
45.3545
45.3815
45.3899
45.3835
45.3701
45.3568
45.3352
45.3106
45.2854
45.2729
45.2782
45.2987
45.3297
45.3695
45.4249
45.4952
45.5788
45.6643
45.7547
45.8323
45.9043
45.9701
46.0351
46.1064
46.174
46.244
46.3059
46.3638
46.4267
46.4848
46.5434
46.6114
46.669
46.7408
46.803
46.8795
46.9637
47.0669
47.1672
47.3009
47.4075
47.5456
47.6249
47.7447
47.7507
47.829
47.8803
47.9671
48.0372
48.2118
48.2892
48.5081
48.6217
48.8937
48.9577
49.2486
49.3186
49.5748
49.5518
49.7721
49.726
49.8841
49.7354
49.811
49.6786
49.76
49.7351
49.8376
49.8259
49.9098
49.8457
49.9023
49.7042
49.6886
49.473
49.4239
49.1322
49.0553
48.6659
48.5728
48.09
48.0029
47.3075
47.106
46.0787
45.6365
44.3324
43.4424
41.9245
40.2352
38.5655
35.8607
33.4167
29.8471
26.0187
51.1836
50.7411
48.756
47.021
45.9367
45.5098
45.607
45.9924
46.4416
46.8348
47.1245
47.3055
47.3831
47.3779
47.3144
47.2219
47.1202
47.0254
46.9436
46.8794
46.8316
46.8002
46.7808
46.7716
46.7674
46.7664
46.7643
46.7604
46.7519
46.7391
46.7202
46.6966
46.6669
46.6331
46.5944
46.5526
46.507
46.4598
46.4101
46.3601
46.3088
46.2583
46.2074
46.1581
46.1091
46.0624
46.0165
45.973
45.9301
45.8895
45.8488
45.8095
45.7692
45.7289
45.686
45.6412
45.5916
45.5383
45.4793
45.4171
45.3506
45.2828
45.2133
45.1467
45.0826
45.0247
44.9727
44.9289
44.8908
44.8614
44.8362
44.8135
44.7881
44.762
44.733
44.7048
44.6801
44.6639
44.6496
44.6353
44.6156
44.5886
44.5505
44.5027
44.447
44.3861
44.3254
44.2566
44.1967
44.1454
44.1291
44.1507
44.2161
44.3096
44.4215
44.5391
44.6701
44.8071
44.9524
45.1002
45.2527
45.3999
45.5262
45.624
45.6923
45.7408
45.7662
45.7698
45.7596
45.744
45.7306
45.709
45.6885
45.6699
45.6659
45.6826
45.7164
45.7638
45.8242
45.903
46.0004
46.1118
46.226
46.3401
46.438
46.5277
46.6071
46.6802
46.7566
46.8253
46.898
46.9585
47.0202
47.0857
47.1463
47.2072
47.2797
47.3349
47.4147
47.4778
47.5601
47.6509
47.7634
47.8698
48.0205
48.1199
48.2861
48.3499
48.4952
48.4419
48.5513
48.5629
48.6649
48.72
48.898
48.9353
49.1888
49.2713
49.5779
49.5911
49.9399
49.9624
50.2847
50.1626
50.4719
50.3877
50.6139
50.3545
50.4623
50.284
50.416
50.3906
50.5244
50.4977
50.5943
50.5069
50.575
50.2845
50.2878
50.0196
49.9428
49.55
49.4249
48.9534
48.8496
48.3604
48.2591
47.4693
47.2699
46.1687
45.7206
44.4999
43.5848
42.288
40.6836
39.1891
36.7922
34.4727
31.3617
27.9297
51.3317
50.9092
48.9016
47.117
45.9887
45.5276
45.6175
46.0182
46.4921
46.9074
47.2117
47.3991
47.475
47.4625
47.3905
47.2912
47.1858
47.0903
47.0102
46.9494
46.9061
46.8797
46.8654
46.8607
46.8603
46.8622
46.8625
46.8606
46.854
46.8433
46.827
46.8064
46.7804
46.7508
46.7167
46.68
46.6397
46.598
46.5537
46.5088
46.4624
46.4164
46.3697
46.3241
46.2783
46.2342
46.1903
46.1483
46.1068
46.0674
46.0281
45.9903
45.9521
45.9147
45.876
45.8366
45.7938
45.7483
45.6984
45.646
45.5898
45.5324
45.4741
45.4184
45.364
45.3151
45.272
45.2358
45.2027
45.1748
45.147
45.1171
45.0819
45.0456
45.0068
44.9707
44.9415
44.9238
44.9118
44.9033
44.8899
44.8675
44.8329
44.7865
44.7306
44.6656
44.6014
44.5299
44.4733
44.4251
44.4213
44.4491
44.5283
44.6308
44.7521
44.874
45.017
45.1618
45.317
45.4715
45.6409
45.8024
45.9445
46.0496
46.1239
46.1711
46.1946
46.1946
46.1853
46.1706
46.1589
46.1401
46.1289
46.1174
46.1277
46.1558
46.2099
46.2731
46.361
46.4642
46.5935
46.7307
46.8763
47.0103
47.1367
47.2429
47.341
47.4217
47.5038
47.5696
47.6458
47.7006
47.7714
47.8331
47.9047
47.9663
48.0454
48.1035
48.1927
48.2591
48.3549
48.4519
48.5829
48.6909
48.8652
48.9552
49.1575
49.1992
49.3666
49.2447
49.4173
49.3774
49.5273
49.5364
49.7462
49.7471
50.0427
50.0754
50.4069
50.3717
50.7825
50.7624
51.1272
50.9492
51.3675
51.2197
51.5221
51.1457
51.326
51.0716
51.3059
51.2229
51.421
51.3629
51.4867
51.3851
51.4628
51.0529
51.0672
50.7644
50.6127
50.1885
50.0256
49.5809
49.4982
48.9018
48.7707
47.8762
47.7581
46.5875
46.1268
44.9928
44.0544
42.9037
41.4362
39.9829
37.8202
35.6072
32.8162
29.7308
51.3881
50.9635
48.9533
47.1723
46.053
45.6034
45.7062
46.1159
46.5931
47.0055
47.3033
47.4815
47.5473
47.5255
47.4478
47.3464
47.2424
47.1503
47.0752
47.0197
46.9819
46.9603
46.9502
46.9485
46.9503
46.9536
46.955
46.9541
46.9488
46.9397
46.9256
46.9077
46.8852
46.8594
46.8297
46.7975
46.7622
46.7252
46.686
46.646
46.6043
46.5623
46.5193
46.4769
46.4342
46.3927
46.3515
46.3119
46.2731
46.2359
46.1991
46.1637
46.1287
46.0949
46.0605
46.0261
45.9899
45.9523
45.9117
45.8689
45.8231
45.7764
45.7298
45.6852
45.6419
45.6031
45.5697
45.5407
45.5118
45.4838
45.4531
45.4166
45.3731
45.3264
45.2785
45.2372
45.2074
45.1931
45.1893
45.1911
45.1884
45.1761
45.1495
45.1076
45.0524
44.9855
44.9195
44.8504
44.8005
44.7631
44.7766
44.8115
44.9046
45.0116
45.1403
45.2619
45.4169
45.5676
45.7329
45.8923
46.08
46.2531
46.4108
46.5208
46.5991
46.6363
46.6608
46.6549
46.6527
46.6411
46.6373
46.6243
46.6278
46.628
46.6608
46.703
46.7842
46.8652
46.9866
47.1124
47.2758
47.4374
47.6178
47.7712
47.9242
48.0449
48.1659
48.2543
48.3462
48.4129
48.4874
48.5399
48.6179
48.6765
48.758
48.826
48.9105
48.9787
49.0764
49.1492
49.2549
49.3588
49.5059
49.6259
49.8106
49.9042
50.1242
50.1704
50.2996
50.1541
50.4137
50.2947
50.5119
50.4632
50.7179
50.6939
51.0142
51.0384
51.3549
51.2973
51.7717
51.7277
52.084
51.9262
52.3968
52.222
52.5369
52.0985
52.3149
52.014
52.3826
52.2624
52.5114
52.4086
52.5611
52.4684
52.4523
52.0211
52.0276
51.618
51.472
51.0648
50.8703
50.3942
50.2325
49.6185
49.4911
48.6121
48.354
47.264
46.7716
45.7279
44.8097
43.6868
42.3535
40.872
38.8963
36.7915
34.2346
31.4336
51.3382
50.9044
48.9257
47.2063
46.1499
45.759
45.8953
46.3033
46.7564
47.1363
47.4031
47.554
47.5993
47.5661
47.4859
47.3878
47.2908
47.2069
47.1401
47.0921
47.0608
47.0439
47.0369
47.0365
47.039
47.0422
47.0436
47.0427
47.0382
47.0303
47.0183
47.0029
46.9837
46.9616
46.9362
46.9084
46.8781
46.8461
46.8119
46.7764
46.7392
46.7012
46.662
46.623
46.5838
46.5456
46.5081
46.472
46.4366
46.4024
46.3692
46.3372
46.3062
46.2767
46.2477
46.2189
46.1892
46.1588
46.1273
46.0948
46.0598
46.0239
45.989
45.9563
45.9252
45.8981
45.8751
45.8529
45.8284
45.8011
45.7672
45.7235
45.6717
45.6171
45.5646
45.5227
45.4958
45.4873
45.4943
45.5087
45.5194
45.5214
45.5072
45.4727
45.4206
45.3574
45.2947
45.2327
45.1902
45.1685
45.1996
45.2471
45.3513
45.4582
45.5869
45.7091
45.8769
46.0301
46.2027
46.3671
46.5738
46.754
46.9268
47.0369
47.1168
47.1422
47.1656
47.1561
47.1681
47.1594
47.1688
47.1641
47.1877
47.2058
47.2673
47.3289
47.4418
47.5479
47.7061
47.8567
48.0552
48.2362
48.4447
48.6142
48.7947
48.9283
49.073
49.1718
49.2772
49.3437
49.4232
49.4773
49.5612
49.6263
49.7197
49.7961
49.8875
49.9675
50.0672
50.1468
50.2652
50.3753
50.5289
50.6683
50.8542
50.9765
51.1759
51.2591
51.3156
51.203
51.4757
51.3101
51.5759
51.5248
51.8226
51.785
52.0907
52.1317
52.4077
52.3613
52.8504
52.8414
53.2164
53.1392
53.5471
53.4481
53.6396
53.2022
53.4715
53.102
53.5939
53.43
53.725
53.6183
53.765
53.634
53.5977
53.1648
53.1223
52.6266
52.5221
52.0594
51.8046
51.4204
51.1633
50.733
50.2936
49.5369
49.1058
48.1428
47.6149
46.6323
45.7676
44.6065
43.3843
41.8283
40.0184
38.0042
35.6288
33.0568
51.1342
50.6959
48.821
47.2453
46.314
46.0212
46.1929
46.5749
46.9715
47.2894
47.5014
47.6086
47.6264
47.5822
47.5038
47.4149
47.3305
47.2592
47.204
47.1653
47.1407
47.1276
47.1221
47.1216
47.1229
47.1247
47.1251
47.1235
47.1192
47.1121
47.1019
47.0888
47.0727
47.0542
47.0331
47.0101
46.9848
46.9578
46.9289
46.8983
46.8658
46.8319
46.7967
46.7614
46.7268
46.6934
46.6605
46.6282
46.5968
46.5667
46.5376
46.5098
46.4836
46.4593
46.4362
46.4141
46.3927
46.3721
46.3513
46.3286
46.3039
46.2798
46.2575
46.2372
46.2195
46.2044
46.1911
46.176
46.1562
46.1298
46.0935
46.0466
45.9908
45.9309
45.8751
45.8347
45.8147
45.8169
45.8368
45.8658
45.8935
45.9119
45.9114
45.8872
45.8412
45.7872
45.7305
45.6795
45.6485
45.6481
45.6914
45.7477
45.8563
45.9624
46.0884
46.2234
46.4035
46.5619
46.7399
46.9143
47.1301
47.3099
47.4889
47.5988
47.6798
47.6981
47.7233
47.7166
47.742
47.7424
47.7696
47.7766
47.8222
47.8622
47.9522
48.039
48.1848
48.3202
48.5133
48.6929
48.9201
49.1208
49.3497
49.5335
49.7338
49.8795
50.044
50.1597
50.2793
50.3526
50.4417
50.5049
50.6011
50.6762
50.7861
50.8741
50.9742
51.065
51.1549
51.2427
51.3604
51.4841
51.6408
51.813
51.9838
52.1431
52.3153
52.4229
52.4314
52.4374
52.607
52.4464
52.7374
52.7071
53.0056
52.9915
53.2693
53.3615
53.5396
53.5846
53.9931
54.0682
54.4588
54.53
54.821
54.7621
54.8627
54.4971
54.7325
54.4997
54.8878
54.6976
55.0063
54.9324
55.0569
54.9058
54.7652
54.3447
54.3116
53.7743
53.6014
53.1837
52.8819
52.6625
52.1922
51.964
51.2321
50.7403
50.0013
49.2164
48.5927
47.7082
46.8841
45.6605
44.5068
42.8537
41.1777
39.2133
36.9894
34.597
50.6703
50.2567
48.6471
47.343
46.6112
46.4247
46.6004
46.9157
47.2198
47.4484
47.5871
47.6422
47.6321
47.5802
47.5085
47.4335
47.3653
47.3093
47.2668
47.237
47.2178
47.2067
47.201
47.1986
47.1977
47.1971
47.1958
47.1932
47.1889
47.1826
47.174
47.1631
47.1501
47.135
47.1181
47.0996
47.0793
47.0575
47.0339
47.0083
46.9806
46.9515
46.9215
46.8911
46.8611
46.8326
46.8057
46.7795
46.7532
46.7273
46.7025
46.68
46.6602
46.6426
46.6264
46.6125
46.6005
46.59
46.5803
46.5703
46.559
46.547
46.5367
46.529
46.5238
46.5196
46.5148
46.5063
46.4914
46.4676
46.4314
46.3826
46.3256
46.265
46.2093
46.173
46.1633
46.1791
46.2139
46.2586
46.3032
46.3379
46.3506
46.3377
46.3031
46.2635
46.2158
46.1843
46.1673
46.1865
46.239
46.308
46.4154
46.5154
46.6402
46.7978
46.9869
47.1534
47.333
47.5253
47.7368
47.9156
48.0903
48.2011
48.281
48.3079
48.3331
48.3398
48.378
48.3991
48.4465
48.4765
48.5413
48.6063
48.7202
48.8407
49.0095
49.1794
49.3926
49.6045
49.8439
50.0658
50.3053
50.5082
50.7209
50.8844
51.0621
51.1961
51.3334
51.4184
51.5275
51.6083
51.7164
51.812
51.9305
52.0277
52.1341
52.226
52.3075
52.4065
52.5241
52.6654
52.8346
53.0426
53.1981
53.3936
53.5204
53.6331
53.6661
53.7467
53.7895
53.7921
53.9897
54.0136
54.2896
54.2891
54.5175
54.654
54.8007
54.9672
55.1988
55.4725
55.8195
55.9479
56.1068
56.0742
56.1063
55.9165
56.1057
56.0419
56.2216
56.1389
56.3138
56.2889
56.3071
56.1406
55.973
55.6785
55.5364
55.0419
54.8083
54.4815
54.0846
53.9714
53.388
53.2312
52.2424
52.0244
51.0348
50.461
49.6763
48.9603
48.054
46.8215
45.6939
43.9634
42.3659
40.4165
38.3329
36.0743
49.9113
49.5909
48.4584
47.5533
47.0622
46.9525
47.0758
47.2759
47.4571
47.5824
47.6456
47.6543
47.6232
47.5697
47.5081
47.4486
47.3967
47.3548
47.3228
47.2995
47.2832
47.2722
47.2648
47.2599
47.2564
47.2535
47.2507
47.2475
47.2434
47.2379
47.2307
47.2218
47.2113
47.1993
47.1858
47.1715
47.1564
47.1399
47.1214
47.1008
47.0784
47.0543
47.0294
47.0051
46.9812
46.9583
46.9371
46.9176
46.8987
46.8791
46.8601
46.8446
46.8333
46.8245
46.8174
46.8126
46.8106
46.8107
46.8112
46.8106
46.8103
46.8121
46.8154
46.8199
46.8249
46.8291
46.8314
46.8282
46.8176
46.797
46.7633
46.7184
46.6644
46.6068
46.558
46.532
46.5349
46.5634
46.6091
46.6637
46.7187
46.7653
46.7918
46.7937
46.7756
46.7573
46.7221
46.7199
46.7233
46.7621
46.819
46.9031
47.0011
47.1052
47.238
47.4102
47.5955
47.7734
47.9606
48.1705
48.37
48.5511
48.7113
48.8292
48.9078
48.9548
48.9825
49.0151
49.0613
49.1149
49.1779
49.244
49.3235
49.4227
49.5505
49.7085
49.8921
50.0941
50.3139
50.55
50.7859
51.0304
51.2664
51.4878
51.7021
51.8946
52.08
52.2495
52.3937
52.514
52.6312
52.7413
52.8547
52.9774
53.0919
53.2125
53.3145
53.4173
53.4988
53.6171
53.7337
53.9012
54.0741
54.2976
54.4521
54.694
54.7525
54.9094
54.9086
55.0379
55.0619
55.2
55.2834
55.4095
55.5432
55.6253
55.8219
55.9987
56.0833
56.3965
56.5248
56.9792
57.1005
57.2943
57.328
57.3978
57.4
57.439
57.4809
57.5056
57.5188
57.6034
57.5991
57.6349
57.5447
57.4294
57.1375
57.0619
56.6862
56.4296
56.0378
55.828
55.3797
55.3471
54.5374
54.3575
53.3391
53.2519
52.0857
51.8121
50.7963
50.2187
49.1384
48.028
46.8451
45.1025
43.5238
41.6025
39.6359
37.4621
49.0785
48.9128
48.3622
47.8933
47.6145
47.5128
47.5248
47.5823
47.6389
47.6722
47.6753
47.6514
47.6094
47.5589
47.5081
47.4618
47.4224
47.3903
47.3648
47.3449
47.3293
47.3172
47.3079
47.3007
47.2952
47.2909
47.2871
47.2834
47.2794
47.2746
47.2684
47.2609
47.2523
47.2432
47.2335
47.2226
47.211
47.199
47.1858
47.1703
47.1526
47.1344
47.116
47.0973
47.0793
47.0639
47.051
47.0392
47.0276
47.016
47.0063
47.0005
46.9981
46.998
47.0005
47.0056
47.0129
47.0219
47.0323
47.0424
47.0513
47.0604
47.0713
47.0842
47.0968
47.1063
47.1119
47.1125
47.1061
47.0894
47.0617
47.0257
46.9835
46.9401
46.9055
46.8922
46.9059
46.9423
46.9939
47.0519
47.1101
47.1631
47.2005
47.2195
47.2242
47.2372
47.2285
47.257
47.2771
47.3367
47.4018
47.5049
47.5936