/*--------------------------------*- C++ -*----------------------------------*\
| =========                 |                                                 |
| \\      /  F ield         | OpenFOAM: The Open Source CFD Toolbox           |
|  \\    /   O peration     | Version:  2.4.0                                 |
|   \\  /    A nd           | Web:      www.OpenFOAM.org                      |
|    \\/     M anipulation  |                                                 |
\*---------------------------------------------------------------------------*/
FoamFile
{
    version     2.0;
    format      ascii;
    class       volVectorField;
    location    "1.68";
    object      U;
}
// * * * * * * * * * * * * * * * * * * * * * * * * * * * * * * * * * * * * * //

dimensions      [0 1 -1 0 0 0 0];

internalField   nonuniform List<vector> 
8800
(
(8.09276 0.387895 0)
(5.45201 0.242614 0)
(3.90769 0.0431834 0)
(3.16256 -0.0158171 0)
(2.79376 -0.0181108 0)
(2.60834 -0.0111171 0)
(2.47308 -0.00568255 0)
(2.39307 -0.00235183 0)
(2.30484 -0.00111777 0)
(2.26594 -0.00128141 0)
(2.20134 -0.0002635 0)
(2.18527 -0.000224172 0)
(2.12573 0.000218426 0)
(2.12593 -0.000920594 0)
(2.05837 0.00210966 0)
(2.06545 -0.00135728 0)
(2.00257 0.000342293 0)
(2.01333 -0.00226931 0)
(2.00236 0.0121926 0)
(1.76895 -0.0697106 0)
(10.0816 0.837899 0)
(9.66903 0.868348 0)
(8.85488 0.50717 0)
(8.10737 0.261031 0)
(7.46569 0.138955 0)
(7.03978 0.0816994 0)
(6.66308 0.0540214 0)
(6.43722 0.040873 0)
(6.18371 0.0305647 0)
(6.07262 0.0227199 0)
(5.87684 0.0197154 0)
(5.83478 0.0167216 0)
(5.66599 0.0159805 0)
(5.66632 0.0116623 0)
(5.48757 0.020989 0)
(5.51955 0.00695757 0)
(5.35251 0.0188917 0)
(5.36671 -0.00669835 0)
(5.30894 0.0321329 0)
(5.16851 -0.0366106 0)
(10.0463 0.629677 0)
(10.6882 0.865326 0)
(10.8292 0.600904 0)
(10.7396 0.372368 0)
(10.4057 0.256976 0)
(10.1461 0.196121 0)
(9.77695 0.153084 0)
(9.56456 0.124092 0)
(9.24019 0.0947433 0)
(9.11846 0.0742768 0)
(8.84169 0.0612161 0)
(8.78919 0.0502463 0)
(8.55188 0.0449267 0)
(8.55354 0.0351168 0)
(8.3023 0.0489463 0)
(8.35494 0.022377 0)
(8.12145 0.0460594 0)
(8.14189 -0.000472655 0)
(8.02147 0.0402409 0)
(7.99597 -0.0826096 0)
(9.9511 0.453635 0)
(10.6348 0.710706 0)
(11.0905 0.544438 0)
(11.46 0.351292 0)
(11.4725 0.262709 0)
(11.5553 0.226836 0)
(11.3993 0.199327 0)
(11.4033 0.178768 0)
(11.1941 0.148676 0)
(11.1872 0.122659 0)
(10.9761 0.109376 0)
(10.9677 0.0900194 0)
(10.764 0.0830537 0)
(10.7899 0.0675601 0)
(10.548 0.0860997 0)
(10.6005 0.0427914 0)
(10.3951 0.08413 0)
(10.3907 0.0174111 0)
(10.2433 0.0529249 0)
(10.2729 -0.095407 0)
(9.94072 0.340158 0)
(10.5143 0.577337 0)
(10.9344 0.456804 0)
(11.4066 0.293402 0)
(11.5515 0.210127 0)
(11.7853 0.193098 0)
(11.7843 0.177039 0)
(11.9293 0.172516 0)
(11.8945 0.147199 0)
(11.9785 0.129631 0)
(11.9543 0.115897 0)
(12.0115 0.106126 0)
(11.9495 0.0889324 0)
(12.0241 0.0872919 0)
(11.9298 0.101901 0)
(11.9586 0.0628637 0)
(11.9032 0.0921289 0)
(11.8923 0.0681184 0)
(11.8009 0.0518643 0)
(11.8169 -0.0329859 0)
(9.96402 0.245582 0)
(10.4077 0.463449 0)
(10.82 0.377726 0)
(11.2365 0.243922 0)
(11.4653 0.162914 0)
(11.68 0.145725 0)
(11.7471 0.146104 0)
(11.8764 0.141394 0)
(11.9609 0.131132 0)
(12.0231 0.102022 0)
(12.1251 0.0997708 0)
(12.1873 0.092305 0)
(12.231 0.0744682 0)
(12.3251 0.0757128 0)
(12.3627 0.095087 0)
(12.4084 0.0600757 0)
(12.4496 0.0800782 0)
(12.5003 0.0868817 0)
(12.4402 0.0828416 0)
(12.5773 -0.0164774 0)
(9.98388 0.172017 0)
(10.3229 0.358069 0)
(10.7419 0.291848 0)
(11.1334 0.20282 0)
(11.3719 0.116913 0)
(11.5574 0.117709 0)
(11.6639 0.104452 0)
(11.8183 0.116179 0)
(11.8608 0.0877232 0)
(11.9358 0.102722 0)
(12.0397 0.0518423 0)
(12.1415 0.10275 0)
(12.1896 0.0282252 0)
(12.2888 0.0756793 0)
(12.3259 0.059747 0)
(12.4214 0.0628991 0)
(12.4795 0.0376856 0)
(12.5255 0.126346 0)
(12.535 0.0604342 0)
(12.7047 0.14353 0)
(9.99062 0.104418 0)
(10.2777 0.262808 0)
(10.6615 0.194148 0)
(11.0598 0.168088 0)
(11.2832 0.077161 0)
(11.5295 0.0885747 0)
(11.5959 0.0471431 0)
(11.7389 0.103709 0)
(11.7524 0.0654502 0)
(11.8922 0.0755918 0)
(12.0041 0.0211432 0)
(12.0123 0.0849218 0)
(12.1825 0.00884752 0)
(12.1826 0.0764374 0)
(12.2697 0.0210916 0)
(12.3421 0.0668084 0)
(12.4029 0.00142979 0)
(12.5052 0.131932 0)
(12.5144 0.021731 0)
(12.5482 0.148185 0)
(10.0038 0.0634693 0)
(10.2382 0.152669 0)
(10.6036 0.122108 0)
(10.9886 0.0972799 0)
(11.2995 0.045154 0)
(11.4652 0.0454113 0)
(11.5441 0.0408244 0)
(11.6632 0.057278 0)
(11.7778 0.0374155 0)
(11.8515 0.033828 0)
(11.8806 0.0182186 0)
(12.0055 0.0591616 0)
(12.1155 -0.00814063 0)
(12.1914 0.0417903 0)
(12.1816 0.0377986 0)
(12.3481 0.00371077 0)
(12.3461 0.0157556 0)
(12.427 0.061952 0)
(12.4584 0.0427449 0)
(12.395 -0.0227248 0)
(10.0044 0.0102523 0)
(10.2282 0.0670838 0)
(10.5835 0.0275214 0)
(10.9656 0.0343091 0)
(11.2597 0.00821907 0)
(11.4454 0.0382181 0)
(11.5323 -0.00854348 0)
(11.6904 0.0201135 0)
(11.6944 0.0134078 0)
(11.84 0.0297643 0)
(11.8546 -0.00752421 0)
(11.9931 0.0144726 0)
(12.1305 -0.019991 0)
(12.0705 0.0431451 0)
(12.2624 -0.00394604 0)
(12.3056 0.00439027 0)
(12.3136 -0.0147714 0)
(12.3613 0.0503345 0)
(12.4661 -0.0198121 0)
(12.4061 -0.0321609 0)
(10.0037 -0.024958 0)
(10.2292 -0.0379135 0)
(10.6047 -0.0455957 0)
(10.9364 -0.0347804 0)
(11.2461 -0.0214002 0)
(11.4596 -0.00502312 0)
(11.5903 -0.026539 0)
(11.5931 -0.0097659 0)
(11.7239 -0.00705724 0)
(11.8622 -0.0168908 0)
(11.8807 -0.0184867 0)
(11.9733 -0.0108449 0)
(12.0518 -0.0193319 0)
(12.1454 0.00442709 0)
(12.2395 -0.013519 0)
(12.3102 -0.0248477 0)
(12.2986 -0.00951099 0)
(12.395 -0.0145813 0)
(12.4808 -0.0279282 0)
(12.362 -0.0373843 0)
(9.99543 -0.0740549 0)
(10.2281 -0.13557 0)
(10.6465 -0.126509 0)
(10.9988 -0.0933892 0)
(11.2461 -0.0638291 0)
(11.4593 -0.0375246 0)
(11.586 -0.0398538 0)
(11.644 -0.0477495 0)
(11.7612 -0.053576 0)
(11.8675 -0.03147 0)
(11.8961 -0.020639 0)
(12.0115 -0.0406155 0)
(12.0769 -0.0433211 0)
(12.1581 -0.0212946 0)
(12.2596 -0.0306574 0)
(12.2962 -0.0334119 0)
(12.3575 -0.041382 0)
(12.4463 -0.0426333 0)
(12.4403 -0.0505279 0)
(12.3957 -0.0587838 0)
(10.0026 -0.115567 0)
(10.2509 -0.246292 0)
(10.6803 -0.216199 0)
(11.0625 -0.146134 0)
(11.3014 -0.0836054 0)
(11.4727 -0.0766319 0)
(11.634 -0.0779445 0)
(11.7134 -0.0793926 0)
(11.7923 -0.0688776 0)
(11.8558 -0.061507 0)
(11.9875 -0.0533862 0)
(12.0749 -0.0558654 0)
(12.1208 -0.0496743 0)
(12.1958 -0.0463575 0)
(12.2751 -0.0446893 0)
(12.3544 -0.060546 0)
(12.4165 -0.0630528 0)
(12.4486 -0.0670399 0)
(12.5004 -0.0805899 0)
(12.4759 -0.0774119 0)
(10.0281 -0.177498 0)
(10.2894 -0.346985 0)
(10.7549 -0.298351 0)
(11.101 -0.204886 0)
(11.3977 -0.117926 0)
(11.5583 -0.116013 0)
(11.6944 -0.104387 0)
(11.7544 -0.112095 0)
(11.8679 -0.0921798 0)
(11.9568 -0.0955473 0)
(12.0489 -0.0701121 0)
(12.1107 -0.0805691 0)
(12.2101 -0.0617083 0)
(12.2592 -0.0698668 0)
(12.3445 -0.0618137 0)
(12.4149 -0.0847236 0)
(12.4753 -0.0732173 0)
(12.5148 -0.105048 0)
(12.5645 -0.109284 0)
(12.4981 -0.101477 0)
(10.0638 -0.253021 0)
(10.3085 -0.45121 0)
(10.9128 -0.38511 0)
(11.1735 -0.245918 0)
(11.5239 -0.160046 0)
(11.6034 -0.153889 0)
(11.8119 -0.135533 0)
(11.8166 -0.143517 0)
(12.0007 -0.123649 0)
(12.0082 -0.11891 0)
(12.1456 -0.0897324 0)
(12.1427 -0.102587 0)
(12.2821 -0.0779247 0)
(12.2676 -0.0912438 0)
(12.3837 -0.0751146 0)
(12.3786 -0.107735 0)
(12.4651 -0.090507 0)
(12.4441 -0.129216 0)
(12.4716 -0.125406 0)
(12.373 -0.152557 0)
(10.0602 -0.347744 0)
(10.3907 -0.565008 0)
(11.0633 -0.469035 0)
(11.2816 -0.28871 0)
(11.665 -0.207953 0)
(11.6626 -0.195443 0)
(11.8955 -0.174739 0)
(11.8125 -0.170614 0)
(12.0026 -0.150999 0)
(11.8867 -0.135724 0)
(12.0429 -0.108813 0)
(11.906 -0.114052 0)
(12.0498 -0.0923797 0)
(11.9 -0.0994879 0)
(12.0172 -0.0854542 0)
(11.8638 -0.113502 0)
(11.9432 -0.0919437 0)
(11.7731 -0.137184 0)
(11.786 -0.129247 0)
(11.5571 -0.172141 0)
(10.0127 -0.457786 0)
(10.5616 -0.704729 0)
(11.1761 -0.549385 0)
(11.3543 -0.348322 0)
(11.5732 -0.262245 0)
(11.4419 -0.230904 0)
(11.5105 -0.196553 0)
(11.2856 -0.177221 0)
(11.3142 -0.151643 0)
(11.0571 -0.128139 0)
(11.0997 -0.101983 0)
(10.8283 -0.0993919 0)
(10.8931 -0.0803097 0)
(10.6228 -0.0827186 0)
(10.6938 -0.0694403 0)
(10.4168 -0.0917438 0)
(10.4791 -0.0718095 0)
(10.1874 -0.116058 0)
(10.1937 -0.0986089 0)
(9.85702 -0.169997 0)
(10.0663 -0.632462 0)
(10.6567 -0.86282 0)
(10.8685 -0.602941 0)
(10.6828 -0.37121 0)
(10.4687 -0.255984 0)
(10.0709 -0.198385 0)
(9.85332 -0.151799 0)
(9.48057 -0.122941 0)
(9.32936 -0.0971015 0)
(9.01077 -0.0770979 0)
(8.94847 -0.0572398 0)
(8.66317 -0.0550992 0)
(8.6664 -0.0444846 0)
(8.39908 -0.0451214 0)
(8.43409 -0.0400821 0)
(8.16031 -0.0531271 0)
(8.20303 -0.0464568 0)
(7.90437 -0.0697422 0)
(7.90518 -0.0737758 0)
(7.55333 -0.0949785 0)
(10.0854 -0.838771 0)
(9.65639 -0.86743 0)
(8.87035 -0.507374 0)
(8.07991 -0.260857 0)
(7.49937 -0.138006 0)
(6.99762 -0.0835458 0)
(6.7062 -0.0532594 0)
(6.38898 -0.0402817 0)
(6.23508 -0.0312949 0)
(6.00572 -0.0250243 0)
(5.94231 -0.0170485 0)
(5.75159 -0.0194528 0)
(5.73894 -0.0156034 0)
(5.55785 -0.0176564 0)
(5.56905 -0.0158059 0)
(5.37555 -0.0244253 0)
(5.38744 -0.0210207 0)
(5.16486 -0.0325469 0)
(5.15159 -0.0399457 0)
(4.8517 -0.0219673 0)
(8.09128 -0.388038 0)
(5.44919 -0.242385 0)
(3.91059 -0.0430609 0)
(3.1564 0.0155248 0)
(2.80321 0.0183914 0)
(2.59524 0.0106332 0)
(2.48603 0.00591289 0)
(2.37706 0.00252077 0)
(2.32228 0.00118311 0)
(2.24245 0.000352099 0)
(2.22044 0.00132805 0)
(2.15731 -0.000477794 0)
(2.14771 0.000150204 0)
(2.08325 -0.000776507 0)
(2.08039 -0.000177654 0)
(2.00511 -0.0026892 0)
(1.99378 -0.00080416 0)
(1.90382 -0.00362753 0)
(1.86512 -0.00429368 0)
(1.71212 0.0111827 0)
(2.28009 -0.141636 0)
(2.39021 -0.00455623 0)
(2.51607 0.0591661 0)
(2.64566 0.0771295 0)
(2.76671 0.0760935 0)
(2.87842 0.0636685 0)
(2.99566 0.0471499 0)
(3.09521 0.0286165 0)
(3.196 0.0114411 0)
(3.27399 -0.000179533 0)
(3.35291 -0.0104307 0)
(3.41082 -0.00993197 0)
(3.47693 0.000140242 0)
(3.53319 0.0206935 0)
(3.60356 0.0529139 0)
(3.67808 0.0881474 0)
(3.76404 0.132616 0)
(3.87562 0.176897 0)
(3.99277 0.234943 0)
(4.17131 0.274628 0)
(4.35055 0.314843 0)
(4.6075 0.322674 0)
(4.85643 0.277719 0)
(5.16972 0.190883 0)
(5.46519 0.0202451 0)
(5.73508 -0.197376 0)
(5.99853 -0.451112 0)
(6.15929 -0.729136 0)
(6.35386 -0.956256 0)
(6.38998 -1.14877 0)
(6.54515 -1.36157 0)
(6.49935 -1.50637 0)
(6.41402 -1.52258 0)
(6.16483 -1.50122 0)
(6.00078 -1.4643 0)
(6.06708 -1.35571 0)
(6.09275 -1.19297 0)
(6.09838 -0.83869 0)
(5.76899 -0.483169 0)
(5.50613 -0.189865 0)
(5.11407 0.230187 0)
(5.10648 0.506405 0)
(5.60661 0.756829 0)
(6.13038 1.06156 0)
(6.55892 1.22462 0)
(7.10567 1.30089 0)
(7.57091 1.30687 0)
(7.83702 1.22934 0)
(8.12359 1.086 0)
(8.28318 0.947851 0)
(8.41155 0.89759 0)
(8.58558 0.762397 0)
(8.84628 0.577634 0)
(9.11931 0.478818 0)
(9.45253 0.197023 0)
(9.81141 -0.215638 0)
(10.037 -0.642603 0)
(10.2248 -1.16361 0)
(10.4054 -1.62953 0)
(10.5441 -2.1481 0)
(10.6831 -2.65367 0)
(10.826 -3.03912 0)
(10.9603 -3.37897 0)
(11.2085 -3.74528 0)
(11.6315 -4.15513 0)
(12.015 -4.42964 0)
(12.3886 -4.76163 0)
(12.6416 -4.99322 0)
(12.8167 -5.07147 0)
(12.8686 -5.0598 0)
(12.728 -4.96034 0)
(12.708 -4.76374 0)
(12.545 -4.57178 0)
(12.5076 -4.55374 0)
(12.4487 -4.21417 0)
(12.6122 -4.12943 0)
(12.7375 -3.95313 0)
(12.8737 -3.65742 0)
(13.1923 -3.40137 0)
(13.4162 -3.04966 0)
(13.641 -2.68708 0)
(13.8146 -2.2224 0)
(14.0159 -1.72952 0)
(14.0718 -1.21342 0)
(14.1246 -0.681197 0)
(14.0568 -0.0762313 0)
(13.939 0.427525 0)
(13.7647 0.963379 0)
(13.5187 1.50398 0)
(13.2673 1.92193 0)
(12.9657 2.35528 0)
(12.6831 2.64728 0)
(12.4677 2.97198 0)
(12.2969 3.30336 0)
(12.1245 3.49604 0)
(12.124 3.72832 0)
(12.023 3.93752 0)
(11.9103 3.82692 0)
(11.9589 3.83064 0)
(11.9345 3.83585 0)
(11.7989 3.42531 0)
(11.689 3.11392 0)
(11.5645 2.84086 0)
(11.4139 2.29906 0)
(11.3502 1.78312 0)
(11.255 1.35604 0)
(11.1892 0.793418 0)
(11.0821 0.313417 0)
(10.9811 -0.11955 0)
(10.9156 -0.617795 0)
(10.7563 -1.07754 0)
(10.5809 -1.4307 0)
(10.4337 -1.85269 0)
(10.2459 -2.24552 0)
(9.88858 -2.4534 0)
(9.65469 -2.58705 0)
(9.3254 -2.73448 0)
(8.95695 -2.85931 0)
(8.4986 -2.73736 0)
(8.12096 -2.66369 0)
(7.69154 -2.72899 0)
(7.14661 -2.59898 0)
(6.82349 -1.95457 0)
(6.47749 -1.6807 0)
(6.46886 -2.13379 0)
(6.41076 -2.29646 0)
(6.1841 -1.78465 0)
(6.24327 -1.20939 0)
(6.26888 -1.33727 0)
(6.33141 -2.02623 0)
(6.25782 -2.15422 0)
(5.92985 -1.96169 0)
(5.74793 -1.63998 0)
(5.56322 -1.52204 0)
(5.6681 -1.58002 0)
(5.95373 -2.52602 0)
(6.29626 -3.29612 0)
(6.50406 -3.91466 0)
(6.90029 -4.7346 0)
(7.26176 -5.58934 0)
(7.66758 -5.74068 0)
(7.74474 -5.57623 0)
(7.63303 -5.16777 0)
(7.60752 -5.02781 0)
(7.63988 -4.77112 0)
(7.5338 -4.69421 0)
(8.01029 -4.48345 0)
(8.01746 -3.8768 0)
(8.32536 -3.10816 0)
(8.39468 -1.63457 0)
(8.71357 -0.0734892 0)
(8.13179 0.971862 0)
(8.60284 2.16931 0)
(8.6075 3.83601 0)
(8.2525 5.07231 0)
(8.17624 5.87791 0)
(8.17216 7.14903 0)
(8.17857 8.72552 0)
(8.17058 10.1956 0)
(7.98773 11.1309 0)
(7.7 10.8099 0)
(6.64539 9.42723 0)
(5.45845 8.30681 0)
(5.38054 7.59743 0)
(4.36826 7.16144 0)
(4.25863 7.0833 0)
(4.90804 6.99657 0)
(3.8456 6.27388 0)
(4.69589 5.76248 0)
(4.44456 5.29779 0)
(3.55813 4.46888 0)
(4.64791 4.24208 0)
(3.11317 3.57881 0)
(4.16186 3.37725 0)
(3.56024 2.86583 0)
(3.73177 2.83758 0)
(4.71383 2.58824 0)
(3.53807 2.82805 0)
(6.32321 2.34459 0)
(3.69123 2.93163 0)
(7.96911 1.99445 0)
(4.27404 2.75603 0)
(9.02709 1.202 0)
(5.40141 2.2801 0)
(9.41295 0.242613 0)
(6.1787 1.60612 0)
(9.48293 -0.83551 0)
(7.02696 1.0265 0)
(9.38201 -1.81304 0)
(7.64854 0.210501 0)
(9.76421 -2.44962 0)
(8.05936 -0.739373 0)
(9.574 -3.33418 0)
(7.64204 -1.77872 0)
(9.02614 -3.64598 0)
(6.26656 -1.51663 0)
(7.78833 -3.21075 0)
(5.15794 -0.077799 0)
(7.0438 -1.23228 0)
(5.62958 4.24836 0)
(5.34075 -0.0888065 0)
(5.38604 -0.0560541 0)
(5.39961 -0.0147113 0)
(5.40082 0.0120896 0)
(5.4302 0.0159936 0)
(5.47201 0.00495258 0)
(5.54212 -0.0155362 0)
(5.60088 -0.0374417 0)
(5.67328 -0.0459333 0)
(5.72051 -0.0539294 0)
(5.77563 -0.0624377 0)
(5.81226 -0.0617136 0)
(5.85681 -0.0530769 0)
(5.90465 -0.0392655 0)
(5.95537 -0.0142436 0)
(6.03052 0.0162956 0)
(6.09189 0.053409 0)
(6.21398 0.0819667 0)
(6.28168 0.120851 0)
(6.47472 0.135614 0)
(6.56732 0.139738 0)
(6.83187 0.134723 0)
(7.00617 0.0520549 0)
(7.26173 -0.0296114 0)
(7.56185 -0.187694 0)
(7.71524 -0.386557 0)
(8.09308 -0.590037 0)
(8.13437 -0.837006 0)
(8.43934 -1.03748 0)
(8.40609 -1.25724 0)
(8.47127 -1.45681 0)
(8.47462 -1.57482 0)
(8.29011 -1.59387 0)
(8.36411 -1.46816 0)
(8.24338 -1.33503 0)
(8.38574 -1.16659 0)
(8.06978 -1.01269 0)
(7.81676 -0.820845 0)
(7.6911 -0.439907 0)
(7.54177 -0.0866438 0)
(7.52917 0.366537 0)
(7.36403 0.692853 0)
(7.29883 0.76201 0)
(7.40673 0.844906 0)
(7.44503 0.903257 0)
(7.63954 0.906281 0)
(7.95254 0.866775 0)
(8.17769 0.854327 0)
(8.44286 0.827499 0)
(8.68669 0.712 0)
(8.91569 0.6771 0)
(9.15876 0.615815 0)
(9.47815 0.455462 0)
(9.77566 0.289604 0)
(10.1333 0.00146988 0)
(10.4451 -0.370304 0)
(10.6949 -0.821021 0)
(10.8842 -1.31684 0)
(11.078 -1.79308 0)
(11.301 -2.31527 0)
(11.463 -2.78248 0)
(11.7043 -3.2087 0)
(11.9755 -3.64443 0)
(12.29 -4.01275 0)
(12.7009 -4.44607 0)
(12.9685 -4.73182 0)
(13.0401 -5.00353 0)
(13.1738 -5.08342 0)
(13.0146 -4.98407 0)
(12.8307 -4.99177 0)
(12.6569 -4.76983 0)
(12.4515 -4.6859 0)
(12.3677 -4.58323 0)
(12.4436 -4.47493 0)
(12.5126 -4.33451 0)
(12.741 -4.32478 0)
(12.9959 -4.16607 0)
(13.1994 -3.87981 0)
(13.5749 -3.72077 0)
(13.8094 -3.33216 0)
(14.0399 -2.91815 0)
(14.2384 -2.42989 0)
(14.4259 -1.88394 0)
(14.4736 -1.31277 0)
(14.5235 -0.725632 0)
(14.478 -0.0416019 0)
(14.3873 0.537871 0)
(14.2757 1.12397 0)
(13.9698 1.72904 0)
(13.6758 2.1435 0)
(13.3399 2.6583 0)
(12.9529 2.98177 0)
(12.6403 3.22515 0)
(12.2875 3.53249 0)
(12.0052 3.66325 0)
(11.8957 3.82069 0)
(11.795 3.97961 0)
(11.6443 3.86828 0)
(11.7156 3.81684 0)
(11.7556 3.79613 0)
(11.7118 3.48515 0)
(11.7093 3.22162 0)
(11.6326 2.9079 0)
(11.5513 2.39268 0)
(11.479 1.91246 0)
(11.3968 1.46369 0)
(11.3773 0.851996 0)
(11.1992 0.399503 0)
(11.0713 -0.0135823 0)
(11.0122 -0.516888 0)
(10.8339 -0.938615 0)
(10.595 -1.28328 0)
(10.4153 -1.72545 0)
(10.1524 -1.97875 0)
(9.74097 -2.17593 0)
(9.50699 -2.31757 0)
(9.10076 -2.45642 0)
(8.67408 -2.5073 0)
(8.21319 -2.44853 0)
(7.88253 -2.3474 0)
(7.39207 -2.35031 0)
(6.95401 -2.21089 0)
(6.57505 -1.70813 0)
(6.52474 -1.63993 0)
(6.48668 -2.16617 0)
(6.52004 -2.22122 0)
(6.23986 -1.77568 0)
(6.40609 -1.21641 0)
(6.18311 -1.41526 0)
(6.37764 -1.96767 0)
(6.06809 -2.0926 0)
(5.98018 -1.6798 0)
(5.62853 -1.49226 0)
(5.55896 -1.39498 0)
(5.60617 -1.7829 0)
(5.86058 -2.69796 0)
(5.86688 -3.48663 0)
(6.31479 -4.22512 0)
(6.40862 -5.014 0)
(7.01718 -5.90198 0)
(7.10265 -5.87027 0)
(7.23051 -5.48648 0)
(6.92196 -5.16845 0)
(6.98475 -4.90377 0)
(6.89885 -4.79336 0)
(6.98752 -4.84767 0)
(7.14899 -4.55951 0)
(7.49309 -4.05423 0)
(7.46717 -3.25066 0)
(7.78686 -1.76002 0)
(7.82058 0.0673479 0)
(7.76833 0.790376 0)
(7.61166 2.30769 0)
(8.08559 3.85847 0)
(7.85826 5.09828 0)
(7.57801 5.94691 0)
(7.81998 7.14644 0)
(7.8946 8.56645 0)
(7.93377 10.0459 0)
(7.97965 11.2117 0)
(7.82609 11.6123 0)
(7.33548 10.7257 0)
(6.01514 9.00894 0)
(5.10825 7.82812 0)
(5.16193 7.18483 0)
(4.2211 6.49785 0)
(4.53472 6.46972 0)
(4.81232 5.99256 0)
(3.60015 5.46762 0)
(4.93104 5.20167 0)
(3.70286 4.53305 0)
(3.91221 4.41367 0)
(4.68263 3.47768 0)
(3.07912 3.76214 0)
(6.04919 2.50775 0)
(2.93827 3.23392 0)
(7.25485 1.77128 0)
(3.41045 2.99779 0)
(8.34852 1.30402 0)
(4.32989 2.99881 0)
(9.17227 0.882267 0)
(5.57173 2.63254 0)
(9.54217 0.444842 0)
(6.81802 2.01748 0)
(9.72958 -0.198551 0)
(7.74107 1.35756 0)
(9.99841 -0.837206 0)
(8.19545 0.596526 0)
(10.2923 -1.40059 0)
(8.37618 -0.251919 0)
(10.4091 -2.08349 0)
(8.38629 -0.812057 0)
(10.0265 -2.92941 0)
(7.9728 -1.04192 0)
(8.7452 -3.30138 0)
(6.96643 -0.453637 0)
(7.41265 -2.60938 0)
(5.81755 0.817488 0)
(6.76517 -1.18869 0)
(6.39112 3.22309 0)
(8.03861 -0.0745123 0)
(8.02697 -0.00830009 0)
(8.03434 0.0214212 0)
(8.00938 0.0198569 0)
(8.04078 0.00779437 0)
(8.05255 -0.0279381 0)
(8.1159 -0.0454865 0)
(8.1544 -0.0658106 0)
(8.20294 -0.0770974 0)
(8.23842 -0.0736575 0)
(8.26478 -0.0920493 0)
(8.29967 -0.0842602 0)
(8.31396 -0.0815802 0)
(8.3596 -0.0802325 0)
(8.38348 -0.0553087 0)
(8.4653 -0.041714 0)
(8.48448 -0.0156463 0)
(8.6365 0.000424076 0)
(8.65115 0.0267804 0)
(8.85329 0.0162832 0)
(8.91845 0.0047584 0)
(9.11482 -0.025802 0)
(9.31045 -0.110725 0)
(9.40984 -0.215721 0)
(9.75049 -0.342874 0)
(9.78793 -0.519218 0)
(10.1015 -0.745374 0)
(10.1334 -0.907305 0)
(10.3027 -1.13039 0)
(10.3164 -1.2996 0)
(10.225 -1.44388 0)
(10.3547 -1.47542 0)
(10.0749 -1.44611 0)
(10.1322 -1.42182 0)
(9.86602 -1.29263 0)
(9.73481 -1.21696 0)
(9.6331 -0.972044 0)
(9.42334 -0.669639 0)
(9.46762 -0.293116 0)
(9.29255 0.046755 0)
(9.25763 0.32132 0)
(9.27559 0.615042 0)
(9.18695 0.811147 0)
(9.28147 0.907718 0)
(9.27304 0.923216 0)
(9.21099 0.930764 0)
(9.28579 0.809278 0)
(9.27897 0.696781 0)
(9.31913 0.645188 0)
(9.43174 0.487756 0)
(9.56753 0.389312 0)
(9.74539 0.274446 0)
(9.96589 0.103338 0)
(10.2927 -0.0693911 0)
(10.6161 -0.37513 0)
(10.9378 -0.738017 0)
(11.2649 -1.1247 0)
(11.5046 -1.59779 0)
(11.8442 -2.01692 0)
(12.149 -2.47859 0)
(12.4015 -2.9871 0)
(12.8015 -3.39545 0)
(13.026 -3.88364 0)
(13.2861 -4.28255 0)
(13.4628 -4.60587 0)
(13.428 -4.8888 0)
(13.387 -4.9342 0)
(13.0992 -4.92513 0)
(12.7863 -4.8247 0)
(12.5799 -4.75689 0)
(12.3916 -4.70539 0)
(12.3551 -4.63351 0)
(12.4424 -4.59796 0)
(12.5318 -4.65373 0)
(12.714 -4.61072 0)
(12.958 -4.56571 0)
(13.1924 -4.46449 0)
(13.4495 -4.21747 0)
(13.7495 -4.0339 0)
(13.9517 -3.58449 0)
(14.1551 -3.12476 0)
(14.3259 -2.62687 0)
(14.4398 -1.99502 0)
(14.4764 -1.38983 0)
(14.5379 -0.76979 0)
(14.5654 -0.0285483 0)
(14.4926 0.581488 0)
(14.4492 1.22018 0)
(14.2915 1.8691 0)
(13.9967 2.33858 0)
(13.6879 2.89712 0)
(13.3199 3.27919 0)
(12.9118 3.53396 0)
(12.5147 3.82759 0)
(12.0901 3.90829 0)
(11.793 3.98393 0)
(11.5649 4.13191 0)
(11.3101 3.93626 0)
(11.3121 3.80308 0)
(11.2875 3.77013 0)
(11.3147 3.47868 0)
(11.3744 3.20118 0)
(11.3104 2.91229 0)
(11.3534 2.40152 0)
(11.2679 1.94359 0)
(11.2154 1.48327 0)
(11.233 0.920658 0)
(11.0576 0.517273 0)
(10.951 0.0860736 0)
(10.8778 -0.421073 0)
(10.6347 -0.774796 0)
(10.3593 -1.15026 0)
(10.1181 -1.49914 0)
(9.74794 -1.70382 0)
(9.38027 -1.9337 0)
(9.14256 -2.06279 0)
(8.6645 -2.11244 0)
(8.3126 -2.16382 0)
(7.94325 -2.09029 0)
(7.54424 -1.947 0)
(7.1605 -2.01046 0)
(6.76424 -1.93618 0)
(6.65557 -1.57374 0)
(6.58628 -1.62551 0)
(6.68875 -2.10697 0)
(6.50957 -2.13432 0)
(6.49702 -1.65454 0)
(6.21987 -1.11055 0)
(6.30018 -1.3755 0)
(6.15905 -1.92053 0)
(6.14778 -1.94703 0)
(5.82804 -1.46475 0)
(5.67845 -1.32694 0)
(5.42546 -1.38761 0)
(5.60323 -1.97318 0)
(5.50922 -2.67196 0)
(5.6504 -3.69368 0)
(5.90336 -4.3695 0)
(6.1257 -5.38798 0)
(6.41425 -5.94732 0)
(6.52555 -5.9126 0)
(6.53698 -5.3622 0)
(6.24643 -4.99779 0)
(6.37733 -4.90534 0)
(6.13073 -4.88399 0)
(6.45626 -4.84094 0)
(6.43404 -4.7073 0)
(6.63319 -4.08242 0)
(6.75577 -3.26022 0)
(6.95689 -1.78388 0)
(7.03794 -0.0701875 0)
(6.80374 1.10747 0)
(7.0353 1.90267 0)
(7.22666 3.98514 0)
(7.0794 5.20964 0)
(7.17234 6.01316 0)
(7.20893 6.95443 0)
(7.5122 8.59918 0)
(7.75141 10.1447 0)
(7.8949 11.0121 0)
(7.72473 11.3915 0)
(7.54473 11.1652 0)
(7.06832 10.0602 0)
(5.82901 8.85746 0)
(5.20806 8.15187 0)
(4.85819 7.23511 0)
(3.74686 6.85832 0)
(4.65442 6.47761 0)
(3.88467 5.50833 0)
(3.52945 5.57365 0)
(5.22209 4.07956 0)
(2.52819 4.67318 0)
(6.85912 2.65686 0)
(2.41862 3.7504 0)
(7.90544 1.4805 0)
(3.21309 3.12998 0)
(8.49565 1.00991 0)
(4.29033 2.80744 0)
(9.00859 0.663166 0)
(5.33479 2.76634 0)
(9.57518 0.529786 0)
(6.60943 2.41614 0)
(9.80091 0.30856 0)
(7.75421 1.75192 0)
(10.1774 -0.249368 0)
(8.39231 1.08243 0)
(10.5216 -0.851073 0)
(8.7739 0.433245 0)
(10.5991 -1.5231 0)
(8.86153 -0.124043 0)
(10.3077 -2.31935 0)
(8.66223 -0.612601 0)
(10.0831 -2.61213 0)
(7.60087 -0.808858 0)
(9.42878 -2.54554 0)
(6.64284 -0.410235 0)
(8.67597 -1.56565 0)
(6.39963 0.541985 0)
(7.88664 -0.449947 0)
(6.55167 1.80355 0)
(10.3824 -0.0428439 0)
(10.3183 0.0327937 0)
(10.2847 0.0446786 0)
(10.1878 0.00926596 0)
(10.2083 -0.0285988 0)
(10.2286 -0.0605134 0)
(10.2702 -0.079435 0)
(10.3327 -0.0866666 0)
(10.3485 -0.090935 0)
(10.3843 -0.0891275 0)
(10.3925 -0.111673 0)
(10.4158 -0.104964 0)
(10.4401 -0.0999266 0)
(10.4605 -0.112433 0)
(10.4815 -0.0947827 0)
(10.5763 -0.0753213 0)
(10.5499 -0.0805244 0)
(10.7148 -0.078828 0)
(10.7247 -0.0356289 0)
(10.8772 -0.0875757 0)
(10.9557 -0.0973324 0)
(11.0673 -0.138248 0)
(11.2686 -0.225965 0)
(11.2736 -0.337194 0)
(11.528 -0.481493 0)
(11.5386 -0.600024 0)
(11.7244 -0.84611 0)
(11.7229 -0.950714 0)
(11.756 -1.15482 0)
(11.7817 -1.2946 0)
(11.6324 -1.34157 0)
(11.6329 -1.43416 0)
(11.3788 -1.35616 0)
(11.2489 -1.41452 0)
(11.0431 -1.24765 0)
(10.8773 -1.02628 0)
(10.8535 -0.84392 0)
(10.6121 -0.549169 0)
(10.595 -0.284518 0)
(10.5462 0.0548548 0)
(10.4995 0.355078 0)
(10.6831 0.564121 0)
(10.6319 0.81162 0)
(10.7065 0.952266 0)
(10.848 0.943 0)
(10.8014 0.969624 0)
(10.888 0.887481 0)
(10.8956 0.782082 0)
(10.9056 0.672684 0)
(10.9492 0.522527 0)
(11.0153 0.349501 0)
(11.1027 0.164278 0)
(11.2449 -0.0244195 0)
(11.4594 -0.263377 0)
(11.7216 -0.568591 0)
(12.024 -0.920511 0)
(12.3347 -1.30987 0)
(12.6623 -1.74138 0)
(12.9742 -2.1722 0)
(13.2553 -2.68828 0)
(13.4859 -3.18122 0)
(13.6818 -3.62742 0)
(13.779 -4.06927 0)
(13.7183 -4.40094 0)
(13.6258 -4.60067 0)
(13.3911 -4.70557 0)
(13.0094 -4.72162 0)
(12.7218 -4.65503 0)
(12.5055 -4.62839 0)
(12.3746 -4.65756 0)
(12.416 -4.65064 0)
(12.3936 -4.68369 0)
(12.4612 -4.77979 0)
(12.6087 -4.84569 0)
(12.7269 -4.78831 0)
(12.9288 -4.78237 0)
(13.0682 -4.7184 0)
(13.2737 -4.41735 0)
(13.4726 -4.21237 0)
(13.6078 -3.74353 0)
(13.7791 -3.23991 0)
(13.9216 -2.76062 0)
(13.9619 -2.04987 0)
(14.0574 -1.42594 0)
(14.105 -0.758068 0)
(14.149 -0.0134699 0)
(14.1521 0.608457 0)
(14.1516 1.30404 0)
(14.1096 1.96416 0)
(13.9121 2.4915 0)
(13.7166 3.09187 0)
(13.4352 3.57158 0)
(13.0914 3.87635 0)
(12.6779 4.17731 0)
(12.1709 4.22705 0)
(11.8421 4.25489 0)
(11.4449 4.3348 0)
(11.0685 4.10246 0)
(10.9289 3.86807 0)
(10.791 3.69785 0)
(10.8019 3.40676 0)
(10.8242 3.16698 0)
(10.7579 2.89256 0)
(10.8345 2.35673 0)
(10.7088 1.96441 0)
(10.7049 1.50797 0)
(10.7029 0.958306 0)
(10.5331 0.559848 0)
(10.4292 0.180698 0)
(10.3451 -0.248113 0)
(10.0946 -0.604058 0)
(9.83555 -0.952317 0)
(9.58086 -1.20898 0)
(9.26701 -1.44504 0)
(9.03276 -1.71733 0)
(8.77902 -1.75027 0)
(8.25992 -1.74557 0)
(7.95988 -1.87832 0)
(7.59016 -1.82814 0)
(7.27643 -1.68506 0)
(6.95943 -1.72154 0)
(6.68559 -1.74099 0)
(6.72959 -1.58075 0)
(6.79227 -1.67344 0)
(6.70224 -2.01527 0)
(6.60519 -2.07891 0)
(6.40074 -1.51595 0)
(6.28456 -1.13606 0)
(6.33751 -1.31476 0)
(6.13367 -1.83782 0)
(6.13466 -1.74102 0)
(5.69619 -1.28488 0)
(5.60343 -1.11526 0)
(5.39591 -1.36001 0)
(5.37254 -1.92179 0)
(5.23188 -2.70295 0)
(5.42208 -3.79702 0)
(5.50734 -4.63904 0)
(5.65278 -5.42407 0)
(5.74913 -6.06484 0)
(5.88551 -5.92116 0)
(6.01718 -5.24954 0)
(5.61341 -4.90015 0)
(5.65309 -4.86133 0)
(5.71216 -4.95576 0)
(5.55592 -4.96362 0)
(5.78427 -4.79986 0)
(5.86574 -4.21487 0)
(5.90051 -3.36467 0)
(6.14563 -1.78876 0)
(6.05058 -0.127734 0)
(6.07024 1.02151 0)
(5.80463 2.1504 0)
(6.4953 3.64296 0)
(6.4785 5.14795 0)
(6.36063 5.88171 0)
(6.78364 6.84908 0)
(7.05332 8.0003 0)
(7.50283 9.8147 0)
(7.87284 11.4788 0)
(8.0593 11.8479 0)
(7.50591 11.4804 0)
(7.21018 10.5588 0)
(6.53467 8.92044 0)
(5.4325 8.14257 0)
(5.71551 7.50889 0)
(4.68561 6.58594 0)
(4.37865 6.78773 0)
(5.52475 5.28307 0)
(2.85821 5.76907 0)
(6.92001 3.79951 0)
(2.45145 4.63594 0)
(7.7731 2.32959 0)
(2.88291 3.78606 0)
(7.89365 1.04892 0)
(3.71301 3.02369 0)
(8.06626 0.501191 0)
(4.75637 2.62519 0)
(8.52604 0.314385 0)
(5.89349 2.48468 0)
(9.09039 0.179517 0)
(7.1167 2.11266 0)
(9.73254 0.0628125 0)
(7.97998 1.41867 0)
(10.3066 -0.397362 0)
(8.53995 0.866127 0)
(10.6968 -0.818918 0)
(8.86618 0.203013 0)
(10.8085 -1.33596 0)
(8.94747 -0.314103 0)
(10.7394 -1.69326 0)
(8.44532 -0.840847 0)
(10.6281 -1.80767 0)
(7.90759 -0.875551 0)
(9.93971 -1.72894 0)
(7.36559 -0.44742 0)
(9.00587 -1.44118 0)
(7.51425 0.248684 0)
(8.585 -0.353296 0)
(7.8317 0.55237 0)
(11.9651 -0.0568107 0)
(11.8875 -0.0175683 0)
(11.8543 -0.0104631 0)
(11.7694 -0.0284812 0)
(11.7763 -0.0640254 0)
(11.8292 -0.082188 0)
(11.8584 -0.0831487 0)
(11.9235 -0.110251 0)
(11.929 -0.104662 0)
(11.943 -0.094472 0)
(11.9275 -0.139353 0)
(11.9285 -0.137204 0)
(11.9466 -0.129643 0)
(11.9474 -0.145753 0)
(11.9726 -0.155458 0)
(12.035 -0.120074 0)
(12.0393 -0.125465 0)
(12.1366 -0.165999 0)
(12.1502 -0.108783 0)
(12.2896 -0.173788 0)
(12.3168 -0.197222 0)
(12.421 -0.229623 0)
(12.5442 -0.327067 0)
(12.5859 -0.39923 0)
(12.6923 -0.543137 0)
(12.6931 -0.63977 0)
(12.7894 -0.849233 0)
(12.6951 -0.955981 0)
(12.6732 -1.08676 0)
(12.5911 -1.24865 0)
(12.426 -1.23858 0)
(12.2901 -1.33431 0)
(12.0565 -1.27017 0)
(11.8787 -1.22747 0)
(11.7142 -1.08645 0)
(11.476 -0.848748 0)
(11.3968 -0.758112 0)
(11.2145 -0.496031 0)
(11.1348 -0.242819 0)
(11.1774 0.000124648 0)
(11.1437 0.317674 0)
(11.3655 0.47943 0)
(11.4269 0.704023 0)
(11.5749 0.847408 0)
(11.7743 0.875025 0)
(11.855 0.917322 0)
(11.9987 0.84964 0)
(12.1194 0.781406 0)
(12.1914 0.664193 0)
(12.2764 0.50089 0)
(12.4075 0.315351 0)
(12.4802 0.1006 0)
(12.6548 -0.155181 0)
(12.8115 -0.409624 0)
(13.0177 -0.718663 0)
(13.2594 -1.08115 0)
(13.4887 -1.46834 0)
(13.711 -1.93878 0)
(13.8638 -2.37205 0)
(13.9579 -2.86801 0)
(13.9969 -3.3383 0)
(13.984 -3.67578 0)
(13.758 -4.0552 0)
(13.5254 -4.21038 0)
(13.2873 -4.32911 0)
(12.8802 -4.46305 0)
(12.6742 -4.40524 0)
(12.532 -4.48476 0)
(12.4145 -4.55843 0)
(12.4408 -4.6143 0)
(12.3873 -4.70723 0)
(12.3611 -4.79828 0)
(12.4206 -4.87942 0)
(12.4364 -4.884 0)
(12.4234 -4.93338 0)
(12.4963 -4.93404 0)
(12.5127 -4.80799 0)
(12.6277 -4.55194 0)
(12.6954 -4.31074 0)
(12.7817 -3.8687 0)
(12.9189 -3.35897 0)
(12.9815 -2.8611 0)
(13.0648 -2.13925 0)
(13.163 -1.505 0)
(13.1936 -0.836387 0)
(13.2964 -0.0564353 0)
(13.3154 0.599265 0)
(13.4235 1.29079 0)
(13.4377 1.97894 0)
(13.389 2.55472 0)
(13.3864 3.19454 0)
(13.1807 3.70055 0)
(12.9663 4.09784 0)
(12.7059 4.50727 0)
(12.1828 4.5784 0)
(11.7748 4.59455 0)
(11.3612 4.68016 0)
(10.9838 4.38621 0)
(10.6182 4.06097 0)
(10.3169 3.82086 0)
(10.2526 3.40703 0)
(10.1314 3.18827 0)
(10.1139 2.89395 0)
(10.1636 2.35804 0)
(9.98219 1.97741 0)
(10.0115 1.49665 0)
(10.0305 0.996811 0)
(9.91341 0.612583 0)
(9.80798 0.249957 0)
(9.71898 -0.10941 0)
(9.50336 -0.41308 0)
(9.32862 -0.759139 0)
(9.05192 -1.0037 0)
(8.75423 -1.21482 0)
(8.49083 -1.43837 0)
(8.21258 -1.4335 0)
(7.76057 -1.45148 0)
(7.60887 -1.6369 0)
(7.29555 -1.56445 0)
(7.11519 -1.45025 0)
(6.83357 -1.5094 0)
(6.66688 -1.66745 0)
(6.83651 -1.68825 0)
(6.89824 -1.65486 0)
(6.82437 -2.01234 0)
(6.60241 -1.94853 0)
(6.36961 -1.37583 0)
(6.38228 -0.978539 0)
(6.38708 -1.26184 0)
(6.32702 -1.7563 0)
(6.13797 -1.55157 0)
(5.73055 -1.06513 0)
(5.52207 -0.926402 0)
(5.27484 -1.29082 0)
(5.07424 -1.86304 0)
(5.10857 -2.71452 0)
(5.03099 -3.85803 0)
(5.08994 -4.65936 0)
(5.15064 -5.42851 0)
(5.12637 -6.15516 0)
(5.47135 -5.94327 0)
(5.30093 -5.14785 0)
(5.18919 -4.8438 0)
(5.12217 -4.73887 0)
(4.86087 -4.92681 0)
(5.07255 -5.02025 0)
(5.00157 -4.81288 0)
(4.91039 -4.32009 0)
(5.07632 -3.30188 0)
(5.06694 -1.84007 0)
(5.2934 -0.0723078 0)
(4.76962 0.972133 0)
(5.20274 2.06162 0)
(5.10984 3.70377 0)
(5.6359 5.04314 0)
(5.63777 5.66983 0)
(6.09378 6.63864 0)
(6.62616 8.01115 0)
(6.98243 9.10825 0)
(7.62467 10.6237 0)
(8.16832 11.6798 0)
(8.21737 11.8486 0)
(7.83091 11.5752 0)
(7.58143 10.2624 0)
(5.97748 8.93191 0)
(5.45577 8.35459 0)
(6.02182 6.79562 0)
(3.00181 7.00008 0)
(7.41805 5.17501 0)
(2.24161 5.71286 0)
(7.91573 3.36377 0)
(3.0096 4.54454 0)
(7.76522 1.8462 0)
(3.94088 3.68166 0)