/*--------------------------------*- C++ -*----------------------------------*\
| =========                 |                                                 |
| \\      /  F ield         | OpenFOAM: The Open Source CFD Toolbox           |
|  \\    /   O peration     | Version:  2.4.0                                 |
|   \\  /    A nd           | Web:      www.OpenFOAM.org                      |
|    \\/     M anipulation  |                                                 |
\*---------------------------------------------------------------------------*/
FoamFile
{
    version     2.0;
    format      ascii;
    class       volSymmTensorField;
    location    "1.68";
    object      UPrime2Mean;
}
// * * * * * * * * * * * * * * * * * * * * * * * * * * * * * * * * * * * * * //

dimensions      [0 2 -2 0 0 0 0];

internalField   nonuniform List<symmTensor> 
8800
(
(0.0010313 5.44975e-05 0 0.000115065 0 0)
(0.0192159 -0.000745974 0 4.35217e-05 0 0)
(0.0377324 -6.95183e-05 0 1.19403e-05 0 0)
(0.0477032 9.6733e-05 0 6.65459e-06 0 0)
(0.0540608 6.46328e-05 0 5.61132e-06 0 0)
(0.0607799 2.37284e-05 0 7.18682e-06 0 0)
(0.064057 -1.00417e-05 0 8.39404e-06 0 0)
(0.0674561 -5.73602e-05 0 1.09021e-05 0 0)
(0.0701993 -7.52578e-05 0 1.15626e-05 0 0)
(0.0716032 -0.000107487 0 1.43321e-05 0 0)
(0.0746123 -0.000119532 0 1.43833e-05 0 0)
(0.0750099 -0.000155526 0 1.78762e-05 0 0)
(0.0783121 -0.000175817 0 1.73087e-05 0 0)
(0.0787237 -0.000206117 0 2.14691e-05 0 0)
(0.0829773 -0.000286575 0 2.05887e-05 0 0)
(0.0837744 -0.000220061 0 2.64011e-05 0 0)
(0.0933712 -0.000803398 0 2.8758e-05 0 0)
(0.0918206 0.000903204 0 7.57552e-05 0 0)
(0.149627 -0.0100878 0 0.00105169 0 0)
(0.157831 0.0178939 0 0.00355246 0 0)
(0.00619791 0.00158702 0 0.000701064 0 0)
(0.00175092 -0.000728892 0 0.000931897 0 0)
(0.0121556 -0.00121616 0 0.000405674 0 0)
(0.0193242 -0.00146358 0 0.000175682 0 0)
(0.0288157 -0.00132834 0 0.000111302 0 0)
(0.0428261 -0.00126281 0 9.51983e-05 0 0)
(0.0545264 -0.0015817 0 0.000110862 0 0)
(0.0643932 -0.00111301 0 8.56586e-05 0 0)
(0.0816708 -0.00167381 0 0.000112658 0 0)
(0.0817904 -0.00126068 0 9.5792e-05 0 0)
(0.106512 -0.00184549 0 0.000126705 0 0)
(0.097523 -0.00162108 0 0.000121219 0 0)
(0.128885 -0.00235381 0 0.00016502 0 0)
(0.112997 -0.00209841 0 0.000162336 0 0)
(0.152063 -0.00321682 0 0.000237118 0 0)
(0.128548 -0.00326387 0 0.000271537 0 0)
(0.18316 -0.00358028 0 0.000369157 0 0)
(0.153242 -0.00781928 0 0.000964689 0 0)
(0.256955 -0.00418469 0 0.00074704 0 0)
(0.251532 -0.0334104 0 0.012505 0 0)
(0.0154293 0.000633494 0 0.000476186 0 0)
(0.01515 0.000104143 0 0.00112648 0 0)
(0.0392489 -8.23181e-05 0 0.000742312 0 0)
(0.0424855 -0.00118881 0 0.000432978 0 0)
(0.0600289 -0.00117335 0 0.000355048 0 0)
(0.0698075 -0.00179478 0 0.000339208 0 0)
(0.0910645 -0.0035391 0 0.000405492 0 0)
(0.09639 -0.0022323 0 0.00028686 0 0)
(0.135202 -0.00502407 0 0.000386379 0 0)
(0.122972 -0.00326134 0 0.000267031 0 0)
(0.184639 -0.00617479 0 0.000398261 0 0)
(0.149532 -0.00454174 0 0.000317575 0 0)
(0.23527 -0.00818457 0 0.000551836 0 0)
(0.173214 -0.00579982 0 0.000460467 0 0)
(0.290138 -0.0116942 0 0.000932917 0 0)
(0.188689 -0.00710502 0 0.000800575 0 0)
(0.355568 -0.015925 0 0.00163946 0 0)
(0.203649 -0.00927148 0 0.00199559 0 0)
(0.447739 -0.021314 0 0.00377076 0 0)
(0.253715 -0.0288601 0 0.015327 0 0)
(0.0751043 -0.00042289 0 0.000388637 0 0)
(0.0873833 -0.000179166 0 0.000927896 0 0)
(0.136074 -0.00125544 0 0.000772247 0 0)
(0.141504 -0.00243546 0 0.0005468 0 0)
(0.175656 -0.00159492 0 0.000560572 0 0)
(0.181923 -0.00294821 0 0.000592788 0 0)
(0.221026 -0.00558274 0 0.000791434 0 0)
(0.216192 -0.00292494 0 0.000598966 0 0)
(0.278193 -0.00938255 0 0.000913468 0 0)
(0.247314 -0.00511834 0 0.000604938 0 0)
(0.3431 -0.0124917 0 0.00100302 0 0)
(0.276977 -0.00810611 0 0.000734336 0 0)
(0.412857 -0.0169636 0 0.00139899 0 0)
(0.303194 -0.0109206 0 0.00103634 0 0)
(0.489946 -0.0242139 0 0.00231689 0 0)
(0.317321 -0.0134821 0 0.0016794 0 0)
(0.58008 -0.0327375 0 0.00371557 0 0)
(0.315482 -0.0167837 0 0.00403718 0 0)
(0.697176 -0.0399635 0 0.00633367 0 0)
(0.308372 -0.0315807 0 0.0224138 0 0)
(0.292567 -0.00146903 0 0.00064757 0 0)
(0.289554 -3.8554e-05 0 0.00123556 0 0)
(0.324147 -0.00447132 0 0.0014885 0 0)
(0.312118 -0.00458942 0 0.00111383 0 0)
(0.338453 -0.00473006 0 0.00122284 0 0)
(0.329633 -0.00641395 0 0.00112574 0 0)
(0.362986 -0.00945299 0 0.00173447 0 0)
(0.346235 -0.00581521 0 0.00127467 0 0)
(0.398772 -0.0145715 0 0.00218566 0 0)
(0.363502 -0.00811429 0 0.0014724 0 0)
(0.438361 -0.018805 0 0.00255174 0 0)
(0.381935 -0.0119972 0 0.00175932 0 0)
(0.478748 -0.0245191 0 0.00335793 0 0)
(0.401273 -0.0157473 0 0.00225298 0 0)
(0.520901 -0.033686 0 0.00489024 0 0)
(0.416504 -0.019669 0 0.00307669 0 0)
(0.569041 -0.0451748 0 0.00710134 0 0)
(0.421034 -0.0246986 0 0.0057138 0 0)
(0.633487 -0.0566698 0 0.0109912 0 0)
(0.405187 -0.0333152 0 0.0260612 0 0)
(0.367884 -0.00596414 0 0.00213472 0 0)
(0.315787 -0.00127151 0 0.0029008 0 0)
(0.308361 -0.00814364 0 0.00367243 0 0)
(0.264902 -0.00640041 0 0.00237858 0 0)
(0.274289 -0.00894084 0 0.00324847 0 0)
(0.252246 -0.00842489 0 0.00266139 0 0)
(0.258145 -0.0118014 0 0.00384345 0 0)
(0.242008 -0.00787465 0 0.00279028 0 0)
(0.25333 -0.0150164 0 0.00460224 0 0)
(0.239556 -0.00992385 0 0.00309465 0 0)
(0.251588 -0.0180751 0 0.00520345 0 0)
(0.242467 -0.0132876 0 0.00369228 0 0)
(0.250117 -0.0214551 0 0.00633359 0 0)
(0.251861 -0.0165513 0 0.00445605 0 0)
(0.246388 -0.0265869 0 0.00852769 0 0)
(0.267263 -0.0205305 0 0.00555841 0 0)
(0.239468 -0.0326036 0 0.0119238 0 0)
(0.288791 -0.0259178 0 0.00840467 0 0)
(0.231979 -0.037417 0 0.019362 0 0)
(0.316753 -0.0348349 0 0.0239813 0 0)
(0.172464 -0.00959098 0 0.0039845 0 0)
(0.153466 -0.00824549 0 0.00588927 0 0)
(0.143345 -0.00759654 0 0.00574189 0 0)
(0.132916 -0.0108773 0 0.0048829 0 0)
(0.129816 -0.00974356 0 0.00593988 0 0)
(0.131643 -0.0100426 0 0.00529807 0 0)
(0.126951 -0.0104321 0 0.00596399 0 0)
(0.129225 -0.0101233 0 0.00541212 0 0)
(0.129684 -0.0111047 0 0.00659076 0 0)
(0.131891 -0.0110405 0 0.00584083 0 0)
(0.130031 -0.012735 0 0.00738346 0 0)
(0.139168 -0.0121819 0 0.0066197 0 0)
(0.133734 -0.0133673 0 0.00870543 0 0)
(0.149729 -0.0137401 0 0.0078132 0 0)
(0.136126 -0.0135579 0 0.011018 0 0)
(0.164976 -0.01564 0 0.00948746 0 0)
(0.137761 -0.0121314 0 0.0147784 0 0)
(0.18749 -0.0176727 0 0.013727 0 0)
(0.140458 -0.00542552 0 0.0233928 0 0)
(0.221198 -0.0168779 0 0.0350556 0 0)
(0.152479 -0.0113209 0 0.0049256 0 0)
(0.185909 -0.0181368 0 0.00985047 0 0)
(0.148943 -0.00829974 0 0.00773187 0 0)
(0.188508 -0.0136016 0 0.00670353 0 0)
(0.163321 -0.011339 0 0.00778598 0 0)
(0.185744 -0.0111256 0 0.00771627 0 0)
(0.182513 -0.00951793 0 0.00714689 0 0)
(0.190064 -0.0112834 0 0.00782447 0 0)
(0.19629 -0.00891329 0 0.0079922 0 0)
(0.195399 -0.0106905 0 0.00807854 0 0)
(0.209186 -0.00859074 0 0.00864313 0 0)
(0.201933 -0.0101456 0 0.00920667 0 0)
(0.226695 -0.00671857 0 0.00986986 0 0)
(0.21233 -0.0100684 0 0.010567 0 0)
(0.23981 -0.00359181 0 0.012054 0 0)
(0.225992 -0.00949683 0 0.0126093 0 0)
(0.25737 0.00195826 0 0.0154457 0 0)
(0.244564 -0.00774285 0 0.0182147 0 0)
(0.27514 0.0139003 0 0.0239403 0 0)
(0.270932 -0.000805095 0 0.0410047 0 0)
(0.260132 -0.00817597 0 0.0047157 0 0)
(0.290908 -0.01734 0 0.0125724 0 0)
(0.251009 -0.0054796 0 0.00878056 0 0)
(0.258672 -0.00865015 0 0.00778851 0 0)
(0.285172 -0.00655471 0 0.00773791 0 0)
(0.245775 -0.00654907 0 0.00864386 0 0)
(0.319148 -0.00423353 0 0.00722689 0 0)
(0.244288 -0.00635528 0 0.00872691 0 0)
(0.336681 -0.00201269 0 0.00773853 0 0)
(0.248389 -0.00621058 0 0.00930722 0 0)
(0.347856 5.69655e-05 0 0.00831398 0 0)
(0.257826 -0.0049577 0 0.0102285 0 0)
(0.36262 0.00289891 0 0.00952556 0 0)
(0.270633 -0.00424429 0 0.0117052 0 0)
(0.379727 0.00703636 0 0.0109245 0 0)
(0.286792 -0.0026288 0 0.0137467 0 0)
(0.396203 0.0137165 0 0.0135313 0 0)
(0.310141 0.000607378 0 0.0189639 0 0)
(0.414074 0.0263054 0 0.0201469 0 0)
(0.353018 0.00629609 0 0.035041 0 0)
(0.291119 -0.00397513 0 0.00343483 0 0)
(0.323282 -0.00804945 0 0.00959493 0 0)
(0.312232 -0.000821487 0 0.00574816 0 0)
(0.268327 -0.00165208 0 0.00589802 0 0)
(0.335534 -0.000736203 0 0.00526456 0 0)
(0.259034 -0.00093475 0 0.00635191 0 0)
(0.34694 0.0013301 0 0.00491035 0 0)
(0.259103 -0.00062235 0 0.00658241 0 0)
(0.346892 0.00357423 0 0.00528073 0 0)
(0.263894 -0.0003716 0 0.00688765 0 0)
(0.353651 0.00471621 0 0.00576413 0 0)
(0.279318 0.000895281 0 0.00740023 0 0)
(0.361958 0.00744588 0 0.00644357 0 0)
(0.297209 0.00176763 0 0.00834773 0 0)
(0.37153 0.0109421 0 0.00712042 0 0)
(0.321278 0.00423013 0 0.0095935 0 0)
(0.384476 0.0163835 0 0.00833663 0 0)
(0.359469 0.0091335 0 0.0126648 0 0)
(0.403134 0.0261356 0 0.0121677 0 0)
(0.436464 0.0151643 0 0.0228959 0 0)
(0.197187 -0.00142104 0 0.00256182 0 0)
(0.225982 -0.00137915 0 0.00594877 0 0)
(0.214495 0.00201897 0 0.00405419 0 0)
(0.191383 0.00317878 0 0.0037526 0 0)
(0.223191 0.00197956 0 0.00449368 0 0)
(0.193538 0.00292665 0 0.00455008 0 0)
(0.224392 0.00339104 0 0.00436309 0 0)
(0.197266 0.00408617 0 0.00481412 0 0)
(0.224295 0.00482997 0 0.00455888 0 0)
(0.206202 0.00495419 0 0.00504879 0 0)
(0.223821 0.0060533 0 0.00489311 0 0)
(0.224298 0.00619418 0 0.00529263 0 0)
(0.228962 0.00814091 0 0.00523758 0 0)
(0.239502 0.0079287 0 0.00577793 0 0)
(0.235089 0.0105476 0 0.00562566 0 0)
(0.26181 0.0113076 0 0.00643685 0 0)
(0.241428 0.0139364 0 0.00636237 0 0)
(0.297733 0.0174715 0 0.0079446 0 0)
(0.246823 0.0203176 0 0.00881219 0 0)
(0.365058 0.0257986 0 0.014326 0 0)
(0.0856732 -0.000347674 0 0.00226465 0 0)
(0.096376 0.000648492 0 0.0049132 0 0)
(0.0866202 0.00135478 0 0.00381279 0 0)
(0.0910431 0.00261352 0 0.0037329 0 0)
(0.092169 0.00144657 0 0.00411048 0 0)
(0.0961229 0.00235787 0 0.00436223 0 0)
(0.0961466 0.00159911 0 0.0041814 0 0)
(0.101467 0.00368126 0 0.00462395 0 0)
(0.097101 0.00239414 0 0.00417663 0 0)
(0.111482 0.00450752 0 0.00467404 0 0)
(0.0963273 0.00318484 0 0.00431253 0 0)
(0.124098 0.00538266 0 0.00478121 0 0)
(0.100114 0.00406504 0 0.00443519 0 0)
(0.136574 0.00654988 0 0.00497281 0 0)
(0.103737 0.00468007 0 0.00446472 0 0)
(0.153341 0.0088468 0 0.00517583 0 0)
(0.105531 0.00574841 0 0.00469045 0 0)
(0.178489 0.0127605 0 0.00597606 0 0)
(0.106878 0.00898246 0 0.00602343 0 0)
(0.224791 0.018229 0 0.00993472 0 0)
(0.0284281 -0.000120146 0 0.00185593 0 0)
(0.0310649 0.000223847 0 0.00406112 0 0)
(0.0282289 -0.000333185 0 0.00332828 0 0)
(0.0367957 0.000698974 0 0.00307211 0 0)
(0.0339152 0.000255398 0 0.00312445 0 0)
(0.0385889 0.000875571 0 0.00329159 0 0)
(0.0370961 9.01162e-05 0 0.00328587 0 0)
(0.0433019 0.00151919 0 0.0036323 0 0)
(0.0385186 0.000211661 0 0.00321695 0 0)
(0.0494672 0.00213274 0 0.00345941 0 0)
(0.0390283 0.000896906 0 0.0031615 0 0)
(0.0546242 0.00252854 0 0.00347562 0 0)
(0.041389 0.00121977 0 0.00326378 0 0)
(0.0609922 0.00296943 0 0.00338348 0 0)
(0.0445563 0.00139994 0 0.00305 0 0)
(0.0685137 0.00409225 0 0.00322065 0 0)
(0.0474801 0.0021289 0 0.00298262 0 0)
(0.0798445 0.00615906 0 0.00348216 0 0)
(0.05286 0.00461129 0 0.00374064 0 0)
(0.101707 0.0100013 0 0.00580436 0 0)
(0.00862984 -0.000242716 0 0.00134511 0 0)
(0.00627086 -0.000618078 0 0.00304833 0 0)
(0.00741992 -0.00134886 0 0.00271528 0 0)
(0.0110131 -0.000567034 0 0.00211134 0 0)
(0.0110961 -0.000228584 0 0.00218257 0 0)
(0.0124798 -0.000282354 0 0.00211252 0 0)
(0.0140173 -0.000319917 0 0.0022563 0 0)
(0.0153483 -0.00030226 0 0.00241889 0 0)
(0.0168212 -0.000650048 0 0.00218963 0 0)
(0.019051 -6.10732e-06 0 0.0021614 0 0)
(0.0182778 -0.000148203 0 0.00202793 0 0)
(0.021471 0.000156691 0 0.00208515 0 0)
(0.0203227 -0.000141894 0 0.00209013 0 0)
(0.0251453 4.1284e-06 0 0.00199613 0 0)
(0.0234851 -5.73913e-05 0 0.00184578 0 0)
(0.0295905 0.000499864 0 0.00174342 0 0)
(0.0276002 0.000634291 0 0.00165757 0 0)
(0.0370943 0.0019314 0 0.0018604 0 0)
(0.0360253 0.00300391 0 0.00213731 0 0)
(0.0518044 0.00648342 0 0.0036151 0 0)
(0.00722634 -0.00036484 0 0.000997703 0 0)
(0.00310303 -0.000856851 0 0.00239643 0 0)
(0.00435259 -0.00146897 0 0.0022136 0 0)
(0.00579843 -0.000974901 0 0.00160304 0 0)
(0.0074639 -0.00048576 0 0.00167524 0 0)
(0.00730563 -0.000473007 0 0.00160527 0 0)
(0.00904132 -0.000571674 0 0.00182713 0 0)
(0.00934868 -0.000941187 0 0.00195276 0 0)
(0.011817 -0.000974832 0 0.0018063 0 0)
(0.012039 -0.000682477 0 0.00169972 0 0)
(0.0139047 -0.000487056 0 0.00156841 0 0)
(0.0139413 -0.000442665 0 0.00154928 0 0)
(0.0158704 -0.000434767 0 0.00153323 0 0)
(0.0164901 -0.000655584 0 0.00142401 0 0)
(0.0187457 -0.000455734 0 0.0012827 0 0)
(0.0196647 -0.000365686 0 0.0011412 0 0)
(0.0225184 0.000194079 0 0.00101684 0 0)
(0.0253093 0.000817646 0 0.00104201 0 0)
(0.0301846 0.00234997 0 0.00120284 0 0)
(0.0375251 0.00476999 0 0.00199021 0 0)
(0.00883987 -0.000354791 0 0.000594213 0 0)
(0.00496276 -0.00024648 0 0.00157872 0 0)
(0.0051078 -0.000876678 0 0.00151638 0 0)
(0.00617153 -0.000661082 0 0.00112498 0 0)
(0.00814368 -0.000341654 0 0.00126865 0 0)
(0.00757127 -0.000150506 0 0.00114986 0 0)
(0.00973739 -0.000301829 0 0.00126978 0 0)
(0.00886763 -0.000356738 0 0.00136882 0 0)
(0.0108123 -0.000497481 0 0.00130055 0 0)
(0.00936733 -0.000144971 0 0.00121142 0 0)
(0.0112119 -0.00013634 0 0.00107733 0 0)
(0.0094232 7.91228e-05 0 0.00101142 0 0)
(0.0109811 6.18674e-06 0 0.000957088 0 0)
(0.00908583 -7.96023e-06 0 0.000885693 0 0)
(0.01064 -1.89819e-05 0 0.000776954 0 0)
(0.0090022 2.64304e-05 0 0.000702205 0 0)
(0.0108968 0.000339331 0 0.000577114 0 0)
(0.010626 0.000634841 0 0.000583644 0 0)
(0.0141313 0.00167274 0 0.000656849 0 0)
(0.0178673 0.00282073 0 0.00109864 0 0)
(0.00765549 -0.000566302 0 0.000369906 0 0)
(0.00403815 -1.57512e-06 0 0.00108626 0 0)
(0.00440895 -0.000319844 0 0.000927168 0 0)
(0.00591124 -0.000280401 0 0.00063287 0 0)
(0.00732389 -9.72027e-05 0 0.00075739 0 0)
(0.00639939 7.42691e-05 0 0.000719504 0 0)
(0.00719596 0.000142627 0 0.000748605 0 0)
(0.00567061 0.000445698 0 0.000759969 0 0)
(0.00547602 0.000448902 0 0.000691608 0 0)
(0.00445124 0.000769575 0 0.000622095 0 0)
(0.00403364 0.000673407 0 0.000545565 0 0)
(0.00394142 0.000896322 0 0.000504037 0 0)
(0.00320448 0.000733611 0 0.000468154 0 0)
(0.00396627 0.000862585 0 0.000435391 0 0)
(0.00316355 0.000575963 0 0.000375202 0 0)
(0.00468507 0.000731952 0 0.000353371 0 0)
(0.00414914 0.000412353 0 0.000294236 0 0)
(0.00624636 0.000746181 0 0.000299986 0 0)
(0.00692105 0.000680322 0 0.000401835 0 0)
(0.0100883 0.00144515 0 0.000564122 0 0)
(0.00613595 -0.00113688 0 0.000434568 0 0)
(0.00192375 -0.000333481 0 0.00110354 0 0)
(0.00208972 -4.71311e-05 0 0.00071904 0 0)
(0.00283805 0.000137513 0 0.000421352 0 0)
(0.00295334 0.00053052 0 0.000402264 0 0)
(0.00309389 0.000839375 0 0.000360138 0 0)
(0.00482346 0.00102079 0 0.000340348 0 0)
(0.00758267 0.00120719 0 0.000319421 0 0)
(0.00946733 0.00112566 0 0.0002753 0 0)
(0.0140153 0.00116025 0 0.000240351 0 0)
(0.0148994 0.000987997 0 0.000208942 0 0)
(0.0206235 0.00101914 0 0.000194258 0 0)
(0.0200261 0.000831791 0 0.00018648 0 0)
(0.0266071 0.000883106 0 0.000173564 0 0)
(0.024761 0.000536011 0 0.000154322 0 0)
(0.031444 0.000676338 0 0.000146402 0 0)
(0.0288684 4.13909e-05 0 0.000130082 0 0)
(0.0338243 0.000498465 0 0.000138776 0 0)
(0.0319364 -0.000392825 0 0.000190702 0 0)
(0.0332303 0.000928846 0 0.000359839 0 0)
(0.0054159 -0.00169467 0 0.000686765 0 0)
(0.000932585 0.000654298 0 0.000918826 0 0)
(0.00508943 0.00129924 0 0.000390395 0 0)
(0.0101179 0.00114066 0 0.000162758 0 0)
(0.0158759 0.00111599 0 0.000113062 0 0)
(0.0232435 0.00100712 0 9.06062e-05 0 0)
(0.030252 0.000845041 0 8.2679e-05 0 0)
(0.0377608 0.000723961 0 7.72176e-05 0 0)
(0.0423119 0.000581261 0 7.18836e-05 0 0)
(0.0489136 0.000518542 0 6.85065e-05 0 0)
(0.0510015 0.000422969 0 6.56848e-05 0 0)
(0.0572761 0.000420487 0 6.3187e-05 0 0)
(0.0574129 0.000331226 0 6.28046e-05 0 0)
(0.0637919 0.000353516 0 5.76245e-05 0 0)
(0.0622885 0.000169755 0 5.28663e-05 0 0)
(0.0682174 0.000211663 0 4.77197e-05 0 0)
(0.0651863 -0.000175957 0 4.50623e-05 0 0)
(0.0682418 7.40995e-05 0 4.49007e-05 0 0)
(0.0657863 -0.000693606 0 6.58051e-05 0 0)
(0.061171 0.000374539 0 0.000196386 0 0)
(0.00100402 -5.92442e-05 0 0.000114147 0 0)
(0.0192079 0.000747091 0 4.21984e-05 0 0)
(0.0374777 6.87407e-05 0 1.07609e-05 0 0)
(0.0466722 -0.000114094 0 4.97978e-06 0 0)
(0.0535022 -8.38866e-05 0 4.26915e-06 0 0)
(0.0587462 -6.44583e-05 0 4.67728e-06 0 0)
(0.0621009 -4.26241e-05 0 5.65426e-06 0 0)
(0.0649691 -1.87705e-05 0 6.06306e-06 0 0)
(0.0665547 -1.04736e-05 0 6.69967e-06 0 0)
(0.0686084 4.69449e-07 0 6.76178e-06 0 0)
(0.0692831 -3.87697e-06 0 6.88101e-06 0 0)
(0.070998 6.03636e-06 0 6.52701e-06 0 0)
(0.071104 -6.82018e-06 0 6.34562e-06 0 0)
(0.0726943 2.48893e-06 0 5.62175e-06 0 0)
(0.0721738 -2.97052e-05 0 5.16113e-06 0 0)
(0.0732984 -2.61569e-05 0 4.30428e-06 0 0)
(0.071669 -8.75035e-05 0 3.91545e-06 0 0)
(0.0712207 -7.17637e-05 0 3.45195e-06 0 0)
(0.0691609 -0.000257861 0 4.36688e-06 0 0)
(0.062586 0.000348626 0 2.499e-05 0 0)
(0.297387 -0.143437 0 0.0893891 0 0)
(0.323934 -0.170063 0 0.125505 0 0)
(0.329036 -0.161619 0 0.149423 0 0)
(0.347819 -0.142849 0 0.166946 0 0)
(0.354835 -0.120769 0 0.177307 0 0)
(0.417475 -0.107128 0 0.184414 0 0)
(0.448719 -0.101706 0 0.191 0 0)
(0.54649 -0.112675 0 0.200936 0 0)
(0.593766 -0.126774 0 0.212656 0 0)
(0.694585 -0.148139 0 0.225019 0 0)
(0.729438 -0.162334 0 0.238273 0 0)
(0.82142 -0.181665 0 0.255029 0 0)
(0.846529 -0.190017 0 0.272518 0 0)
(0.939762 -0.208117 0 0.288652 0 0)
(0.967953 -0.218014 0 0.299626 0 0)
(1.06887 -0.243891 0 0.309008 0 0)
(1.09708 -0.263767 0 0.320796 0 0)
(1.20706 -0.301532 0 0.338805 0 0)
(1.23459 -0.324959 0 0.363431 0 0)
(1.37188 -0.365553 0 0.394861 0 0)
(1.42434 -0.386217 0 0.422173 0 0)
(1.59762 -0.434612 0 0.452217 0 0)
(1.66102 -0.462989 0 0.48203 0 0)
(1.85097 -0.522627 0 0.516282 0 0)
(1.91931 -0.55196 0 0.550235 0 0)
(2.1172 -0.618991 0 0.591102 0 0)
(2.19782 -0.645559 0 0.631313 0 0)
(2.40026 -0.725406 0 0.67731 0 0)
(2.50249 -0.75629 0 0.723451 0 0)
(2.70771 -0.850139 0 0.778391 0 0)
(2.83299 -0.887138 0 0.835581 0 0)
(3.05285 -0.989939 0 0.898233 0 0)
(3.19508 -1.03179 0 0.959551 0 0)
(3.44961 -1.14702 0 1.02655 0 0)
(3.59222 -1.19624 0 1.0903 0 0)
(3.88061 -1.3275 0 1.16043 0 0)
(3.99122 -1.37368 0 1.22234 0 0)
(4.29822 -1.51505 0 1.29167 0 0)
(4.36041 -1.54885 0 1.35181 0 0)
(4.67533 -1.69532 0 1.4235 0 0)
(4.68257 -1.70237 0 1.48616 0 0)
(4.99359 -1.84682 0 1.55607 0 0)
(4.95366 -1.82321 0 1.61353 0 0)
(5.27567 -1.96608 0 1.68268 0 0)
(5.21157 -1.93013 0 1.73883 0 0)
(5.5688 -2.08149 0 1.80868 0 0)
(5.49922 -2.04401 0 1.86192 0 0)
(5.90653 -2.20659 0 1.94043 0 0)
(5.83522 -2.17944 0 1.99831 0 0)
(6.3036 -2.35153 0 2.08817 0 0)
(6.20838 -2.33398 0 2.15495 0 0)
(6.73825 -2.51663 0 2.25941 0 0)
(6.57364 -2.48901 0 2.33735 0 0)
(7.14592 -2.67649 0 2.44978 0 0)
(6.86837 -2.60942 0 2.52392 0 0)
(7.46484 -2.80039 0 2.63425 0 0)
(7.06932 -2.68107 0 2.68838 0 0)
(7.69083 -2.87571 0 2.78158 0 0)
(7.18748 -2.72153 0 2.8205 0 0)
(7.86979 -2.93394 0 2.90586 0 0)
(7.25393 -2.77267 0 2.94456 0 0)
(8.02614 -3.00606 0 3.03413 0 0)
(7.27186 -2.83368 0 3.07823 0 0)
(8.11545 -3.06906 0 3.17293 0 0)
(7.21418 -2.85629 0 3.2061 0 0)
(8.09848 -3.0643 0 3.28664 0 0)
(7.09047 -2.80226 0 3.27528 0 0)
(8.02675 -2.95736 0 3.30773 0 0)
(6.94934 -2.68164 0 3.2689 0 0)
(8.0047 -2.83905 0 3.30656 0 0)
(6.85987 -2.56878 0 3.29153 0 0)
(8.0693 -2.75508 0 3.33526 0 0)
(6.837 -2.47246 0 3.32288 0 0)
(8.22962 -2.72631 0 3.37855 0 0)
(6.87935 -2.42701 0 3.40047 0 0)
(8.42935 -2.76147 0 3.50599 0 0)
(6.97957 -2.43108 0 3.57133 0 0)
(8.59565 -2.81452 0 3.73394 0 0)
(7.06985 -2.44819 0 3.81776 0 0)
(8.70784 -2.8292 0 4.00789 0 0)
(7.07567 -2.4411 0 4.08895 0 0)
(8.76496 -2.80771 0 4.26095 0 0)
(7.00138 -2.40303 0 4.3074 0 0)
(8.76984 -2.77574 0 4.45396 0 0)
(6.8996 -2.34556 0 4.474 0 0)
(8.67548 -2.70668 0 4.6153 0 0)
(6.83148 -2.25857 0 4.63576 0 0)
(8.5729 -2.61733 0 4.81911 0 0)
(6.81662 -2.19054 0 4.85901 0 0)
(8.56111 -2.53184 0 5.03793 0 0)
(6.8664 -2.14973 0 5.08023 0 0)
(8.65038 -2.53056 0 5.27829 0 0)
(7.01739 -2.1798 0 5.35226 0 0)
(8.83166 -2.58951 0 5.57352 0 0)
(7.21725 -2.21882 0 5.64887 0 0)
(9.00093 -2.64252 0 5.89075 0 0)
(7.40431 -2.24049 0 5.97315 0 0)
(9.11454 -2.66409 0 6.25104 0 0)
(7.52307 -2.22927 0 6.33651 0 0)
(9.08144 -2.63178 0 6.6414 0 0)
(7.52443 -2.1787 0 6.76827 0 0)
(9.01558 -2.60558 0 7.12485 0 0)
(7.43606 -2.13396 0 7.27501 0 0)
(8.96115 -2.5812 0 7.64381 0 0)
(7.30289 -2.08615 0 7.72589 0 0)
(8.87857 -2.55778 0 8.07004 0 0)
(7.1523 -1.98489 0 8.09927 0 0)
(8.75186 -2.4431 0 8.37381 0 0)
(7.03785 -1.81414 0 8.34834 0 0)
(8.61421 -2.28837 0 8.63196 0 0)
(6.98307 -1.67384 0 8.58552 0 0)
(8.49001 -2.1611 0 8.84631 0 0)
(6.99076 -1.55294 0 8.76498 0 0)
(8.40787 -2.03881 0 9.02115 0 0)
(7.04278 -1.40531 0 8.92746 0 0)
(8.30711 -1.87901 0 9.18522 0 0)
(7.09076 -1.28431 0 9.1381 0 0)
(8.19178 -1.74769 0 9.43137 0 0)
(7.17188 -1.22605 0 9.44707 0 0)
(8.16676 -1.67017 0 9.78096 0 0)
(7.31755 -1.236 0 9.85843 0 0)
(8.16925 -1.65353 0 10.1844 0 0)
(7.39498 -1.26347 0 10.2924 0 0)
(8.12175 -1.65935 0 10.5929 0 0)
(7.39885 -1.29491 0 10.6489 0 0)
(8.06419 -1.66136 0 10.8858 0 0)
(7.32972 -1.29698 0 10.9349 0 0)
(7.98166 -1.66187 0 11.15 0 0)
(7.28606 -1.32371 0 11.207 0 0)
(7.8552 -1.68231 0 11.364 0 0)
(7.31544 -1.42894 0 11.506 0 0)
(7.73943 -1.71689 0 11.7029 0 0)
(7.39521 -1.54072 0 11.86 0 0)
(7.69013 -1.72034 0 12.0243 0 0)
(7.47465 -1.6112 0 12.1581 0 0)
(7.69365 -1.69878 0 12.2918 0 0)
(7.57141 -1.6128 0 12.396 0 0)
(7.75241 -1.63813 0 12.5995 0 0)
(7.66011 -1.56999 0 12.7526 0 0)
(7.8054 -1.54257 0 12.9588 0 0)
(7.71654 -1.50681 0 13.1319 0 0)
(7.79704 -1.41754 0 13.2633 0 0)
(7.76588 -1.41025 0 13.4668 0 0)
(7.71069 -1.26258 0 13.6701 0 0)
(7.65933 -1.26127 0 13.9159 0 0)
(7.52173 -1.07281 0 14.049 0 0)
(7.5203 -1.054 0 14.1685 0 0)
(7.3648 -0.90132 0 14.2577 0 0)
(7.3962 -0.800094 0 14.4052 0 0)
(7.22988 -0.731261 0 14.4533 0 0)
(7.26654 -0.560545 0 14.5051 0 0)
(7.10656 -0.52074 0 14.4621 0 0)
(7.11926 -0.315891 0 14.5082 0 0)
(7.00885 -0.296555 0 14.4723 0 0)
(7.00517 -0.101554 0 14.5785 0 0)
(6.89898 -0.122925 0 14.5413 0 0)
(6.95012 0.0490011 0 14.6425 0 0)
(6.87384 -0.00851962 0 14.4952 0 0)
(6.91083 0.128267 0 14.606 0 0)
(6.75053 0.0176826 0 14.4501 0 0)
(6.80081 0.122479 0 14.5456 0 0)
(6.60702 0.0376663 0 14.4283 0 0)
(6.66259 0.119446 0 14.4915 0 0)
(6.50572 0.0230544 0 14.3616 0 0)
(6.60358 0.090063 0 14.3623 0 0)
(6.45215 -0.0431163 0 14.2294 0 0)
(6.54438 0.0151831 0 14.2378 0 0)
(6.34149 -0.231654 0 14.1287 0 0)
(6.45746 -0.0994253 0 14.0312 0 0)
(6.28386 -0.424994 0 13.8715 0 0)
(6.3163 -0.307525 0 13.7027 0 0)
(6.30182 -0.676317 0 13.5859 0 0)
(6.12148 -0.499005 0 13.1993 0 0)
(6.40033 -0.959942 0 12.9561 0 0)
(6.043 -0.575896 0 12.5299 0 0)
(6.41261 -1.06136 0 12.2415 0 0)
(6.07932 -0.608881 0 11.8885 0 0)
(6.45608 -1.07722 0 11.4597 0 0)
(6.1351 -0.685803 0 11.2818 0 0)
(6.47447 -0.988226 0 10.7033 0 0)
(6.17385 -0.806115 0 10.6941 0 0)
(6.39007 -0.88476 0 9.87469 0 0)
(6.08956 -0.940201 0 10.195 0 0)
(6.22737 -0.740884 0 9.07695 0 0)
(5.95812 -1.02517 0 9.78476 0 0)
(6.00748 -0.492926 0 8.42125 0 0)
(5.77902 -1.06993 0 9.51895 0 0)
(5.69302 -0.191977 0 7.97461 0 0)
(5.47846 -1.00721 0 9.49176 0 0)
(5.36181 0.253073 0 7.82478 0 0)
(5.07388 -0.825783 0 9.75563 0 0)
(5.01967 0.815342 0 7.96431 0 0)
(4.62468 -0.513284 0 10.5419 0 0)
(4.46758 1.45596 0 8.58302 0 0)
(4.23686 -0.0146523 0 12.0589 0 0)
(3.85765 2.38826 0 10.1099 0 0)
(3.72417 0.35224 0 14.3743 0 0)
(3.03186 3.60489 0 13.0431 0 0)
(3.36831 2.25114 0 19.6407 0 0)
(1.10649 0.606825 0 21.471 0 0)
(0.278671 -0.118583 0 0.100674 0 0)
(0.248396 -0.126633 0 0.131141 0 0)
(0.264454 -0.112872 0 0.138074 0 0)
(0.232633 -0.103434 0 0.141962 0 0)
(0.253298 -0.0909252 0 0.141916 0 0)
(0.249697 -0.0914187 0 0.141176 0 0)
(0.287248 -0.0953234 0 0.144082 0 0)
(0.300799 -0.110753 0 0.152474 0 0)
(0.348789 -0.121533 0 0.162166 0 0)
(0.361834 -0.138925 0 0.17256 0 0)
(0.407293 -0.147423 0 0.183563 0 0)
(0.415792 -0.16484 0 0.197825 0 0)
(0.461872 -0.171818 0 0.212185 0 0)
(0.478893 -0.190819 0 0.227131 0 0)
(0.533817 -0.198607 0 0.240011 0 0)
(0.57049 -0.225253 0 0.254205 0 0)
(0.638106 -0.241161 0 0.269494 0 0)
(0.697323 -0.281977 0 0.289318 0 0)
(0.771713 -0.303756 0 0.310293 0 0)
(0.844786 -0.351241 0 0.336128 0 0)
(0.918662 -0.370984 0 0.361208 0 0)
(1.00789 -0.42247 0 0.390119 0 0)
(1.08435 -0.441412 0 0.418256 0 0)
(1.19382 -0.501596 0 0.451483 0 0)
(1.27305 -0.519915 0 0.484073 0 0)
(1.4048 -0.589899 0 0.524495 0 0)
(1.49382 -0.608739 0 0.564082 0 0)
(1.65184 -0.690905 0 0.611561 0 0)
(1.7568 -0.716583 0 0.656655 0 0)
(1.93891 -0.813709 0 0.711117 0 0)
(2.05205 -0.847997 0 0.76198 0 0)
(2.25459 -0.957552 0 0.821923 0 0)
(2.35574 -0.993489 0 0.876338 0 0)
(2.57774 -1.11316 0 0.939918 0 0)
(2.64557 -1.14268 0 0.99607 0 0)
(2.88783 -1.27209 0 1.06166 0 0)
(2.89963 -1.28409 0 1.11869 0 0)
(3.16083 -1.42126 0 1.18393 0 0)
(3.10742 -1.40988 0 1.2413 0 0)
(3.39325 -1.55671 0 1.30704 0 0)
(3.28447 -1.51862 0 1.36361 0 0)
(3.59632 -1.67181 0 1.43246 0 0)
(3.45429 -1.61573 0 1.48615 0 0)
(3.80336 -1.77504 0 1.55959 0 0)
(3.65013 -1.71254 0 1.61192 0 0)
(4.04211 -1.88298 0 1.69562 0 0)
(3.88892 -1.82432 0 1.75097 0 0)
(4.32572 -2.00675 0 1.84217 0 0)
(4.15745 -1.94839 0 1.90059 0 0)
(4.63973 -2.14164 0 1.997 0 0)
(4.42054 -2.06758 0 2.05823 0 0)
(4.95203 -2.27373 0 2.15839 0 0)
(4.64865 -2.16279 0 2.21895 0 0)
(5.22586 -2.38108 0 2.31866 0 0)
(4.82249 -2.2175 0 2.37335 0 0)
(5.44292 -2.45311 0 2.46774 0 0)
(4.95421 -2.24181 0 2.51236 0 0)
(5.61692 -2.4998 0 2.60317 0 0)
(5.07344 -2.26735 0 2.63925 0 0)
(5.77732 -2.5457 0 2.74076 0 0)
(5.18382 -2.32095 0 2.77665 0 0)
(5.9257 -2.59759 0 2.88495 0 0)
(5.26019 -2.38192 0 2.91389 0 0)
(6.03022 -2.61895 0 3.00882 0 0)
(5.25841 -2.38582 0 3.01648 0 0)
(6.05883 -2.56896 0 3.07563 0 0)
(5.17482 -2.30145 0 3.052 0 0)
(6.05639 -2.46928 0 3.08954 0 0)
(5.09019 -2.18741 0 3.06779 0 0)
(6.09521 -2.39264 0 3.12646 0 0)
(5.06871 -2.09717 0 3.11302 0 0)
(6.21771 -2.35068 0 3.18889 0 0)
(5.13698 -2.03811 0 3.18127 0 0)
(6.41855 -2.36462 0 3.2771 0 0)
(5.28386 -2.02913 0 3.29781 0 0)
(6.64543 -2.4276 0 3.43841 0 0)
(5.46344 -2.05847 0 3.49849 0 0)
(6.82793 -2.48171 0 3.68548 0 0)
(5.59033 -2.0618 0 3.75452 0 0)
(6.924 -2.47158 0 3.95063 0 0)
(5.61151 -2.0275 0 4.0109 0 0)
(6.96739 -2.42978 0 4.18672 0 0)
(5.59876 -1.97501 0 4.2234 0 0)
(6.9723 -2.37314 0 4.37411 0 0)
(5.61191 -1.93686 0 4.38401 0 0)
(6.97475 -2.30116 0 4.54552 0 0)
(5.65997 -1.91095 0 4.57966 0 0)
(7.01565 -2.23992 0 4.76841 0 0)
(5.767 -1.87406 0 4.80145 0 0)
(7.1468 -2.19017 0 4.99585 0 0)
(5.93205 -1.87749 0 5.05633 0 0)
(7.35914 -2.23811 0 5.27596 0 0)
(6.14759 -1.91772 0 5.35247 0 0)
(7.61519 -2.30338 0 5.5786 0 0)
(6.39331 -1.94533 0 5.63437 0 0)
(7.85308 -2.36666 0 5.87504 0 0)
(6.63139 -1.94692 0 5.94185 0 0)
(8.044 -2.37414 0 6.21394 0 0)
(6.82926 -1.92088 0 6.29726 0 0)
(8.16137 -2.36453 0 6.63245 0 0)
(6.94052 -1.87901 0 6.75497 0 0)
(8.2202 -2.35393 0 7.13808 0 0)
(6.94623 -1.81781 0 7.25219 0 0)
(8.21824 -2.30337 0 7.62401 0 0)
(6.82297 -1.73611 0 7.65379 0 0)
(8.09853 -2.22043 0 8.00007 0 0)
(6.64582 -1.59127 0 7.98753 0 0)
(7.94946 -2.06581 0 8.30556 0 0)
(6.52946 -1.42157 0 8.26311 0 0)
(7.88936 -1.90707 0 8.57181 0 0)
(6.50765 -1.26885 0 8.50597 0 0)
(7.90174 -1.75295 0 8.78666 0 0)
(6.61551 -1.12647 0 8.68693 0 0)
(7.96255 -1.59568 0 8.96275 0 0)
(6.77862 -1.0255 0 8.87268 0 0)
(7.99586 -1.49951 0 9.13272 0 0)
(6.99596 -1.00229 0 9.10457 0 0)
(8.06932 -1.4526 0 9.39909 0 0)
(7.23268 -1.01035 0 9.46026 0 0)
(8.19595 -1.4362 0 9.80481 0 0)
(7.39758 -1.05072 0 9.90271 0 0)
(8.25624 -1.44373 0 10.2548 0 0)
(7.42266 -1.07235 0 10.3464 0 0)
(8.25053 -1.45558 0 10.6661 0 0)
(7.38707 -1.061 0 10.7376 0 0)
(8.22948 -1.46763 0 10.9836 0 0)
(7.38483 -1.08007 0 11.0363 0 0)
(8.20782 -1.50864 0 11.2306 0 0)
(7.47389 -1.20123 0 11.3197 0 0)
(8.19024 -1.59606 0 11.466 0 0)
(7.5713 -1.4163 0 11.6031 0 0)
(8.15946 -1.67946 0 11.7846 0 0)
(7.6592 -1.56808 0 11.939 0 0)
(8.15262 -1.70864 0 12.1272 0 0)
(7.759 -1.6458 0 12.2844 0 0)
(8.26995 -1.71086 0 12.3995 0 0)
(7.9449 -1.68435 0 12.4979 0 0)
(8.40031 -1.66954 0 12.6785 0 0)
(8.08436 -1.68941 0 12.8684 0 0)
(8.4497 -1.57557 0 13.0628 0 0)
(8.11625 -1.59221 0 13.279 0 0)
(8.40165 -1.44607 0 13.3946 0 0)
(8.05095 -1.45566 0 13.6271 0 0)
(8.22737 -1.24174 0 13.8049 0 0)
(7.83011 -1.24255 0 14.0919 0 0)
(8.00752 -0.980222 0 14.1717 0 0)
(7.57902 -1.03025 0 14.3844 0 0)
(7.79726 -0.76613 0 14.4307 0 0)
(7.30934 -0.796971 0 14.5922 0 0)
(7.53295 -0.559623 0 14.6113 0 0)
(7.16073 -0.488739 0 14.6845 0 0)
(7.32834 -0.359574 0 14.5812 0 0)
(7.08855 -0.254957 0 14.6476 0 0)
(7.24914 -0.185375 0 14.6832 0 0)
(7.05269 -0.0751516 0 14.7513 0 0)
(7.21139 -0.0775968 0 14.7195 0 0)
(7.0739 0.0984748 0 14.8164 0 0)
(7.17617 0.0431184 0 14.7752 0 0)
(7.05188 0.177224 0 14.8163 0 0)
(7.00596 0.077852 0 14.7997 0 0)
(6.99015 0.243475 0 14.7788 0 0)
(6.85256 0.0504016 0 14.6643 0 0)
(6.87985 0.242512 0 14.7442 0 0)
(6.72924 0.0489754 0 14.6003 0 0)
(6.76622 0.191406 0 14.6561 0 0)
(6.59457 -0.034508 0 14.5483 0 0)
(6.66109 0.132572 0 14.6401 0 0)
(6.48208 -0.161024 0 14.5307 0 0)
(6.56435 0.0361025 0 14.3672 0 0)
(6.42453 -0.336306 0 14.3604 0 0)
(6.35225 -0.0708261 0 14.1615 0 0)
(6.34398 -0.615673 0 14.0319 0 0)
(6.20841 -0.18777 0 13.6633 0 0)
(6.18145 -0.855973 0 13.3649 0 0)
(6.24532 -0.326474 0 12.8691 0 0)
(6.06501 -1.0342 0 12.4591 0 0)
(6.36775 -0.482971 0 12.1866 0 0)
(6.03039 -1.12354 0 11.6751 0 0)
(6.42591 -0.749033 0 11.6045 0 0)
(6.06043 -1.09157 0 10.8645 0 0)
(6.42348 -0.999022 0 11.1889 0 0)
(6.03928 -1.02254 0 10.0549 0 0)
(6.33772 -1.28905 0 10.7705 0 0)
(5.88826 -0.869332 0 9.22897 0 0)
(6.17897 -1.57225 0 10.3588 0 0)
(5.72327 -0.600717 0 8.46361 0 0)
(5.91778 -1.71388 0 10.1273 0 0)
(5.63017 -0.28039 0 7.86807 0 0)
(5.51777 -1.7376 0 10.0982 0 0)