/*--------------------------------*- C++ -*----------------------------------*\
| =========                 |                                                 |
| \\      /  F ield         | OpenFOAM: The Open Source CFD Toolbox           |
|  \\    /   O peration     | Version:  2.4.0                                 |
|   \\  /    A nd           | Web:      www.OpenFOAM.org                      |
|    \\/     M anipulation  |                                                 |
\*---------------------------------------------------------------------------*/
FoamFile
{
    version     2.0;
    format      ascii;
    class       volScalarField;
    location    "1.04";
    object      p;
}
// * * * * * * * * * * * * * * * * * * * * * * * * * * * * * * * * * * * * * //

dimensions      [0 2 -2 0 0 0 0];

internalField   nonuniform List<scalar> 
4400
(
-23.1792
-24.7193
-24.892
-24.2857
-24.8939
-24.3077
-25.1282
-24.8742
-24.8098
-25.5449
-24.8284
-25.4618
-26.0402
-24.9535
-26.3987
-25.9331
-25.7377
-25.8751
-25.3698
-26.9081
-23.2346
-24.892
-25.03
-24.3307
-24.9529
-24.2951
-25.1131
-24.8312
-24.8008
-25.567
-24.8116
-25.4599
-26.082
-24.9599
-26.3449
-25.9485
-25.7737
-25.9037
-25.3082
-26.4323
-23.3315
-24.942
-25.0508
-24.4276
-25.0964
-24.3018
-25.0624
-24.98
-24.8243
-25.5383
-24.9451
-25.4421
-26.0562
-24.9876
-26.2806
-25.9666
-25.7939
-25.8817
-25.4176
-26.5158
-23.3813
-24.8577
-24.9976
-24.4618
-25.1319
-24.3247
-25.0322
-25.0089
-24.8072
-25.5451
-24.9627
-25.3933
-26.0416
-25.0379
-26.1905
-26.0169
-25.7705
-25.9965
-25.5586
-26.6165
-23.44
-24.7688
-24.9348
-24.4698
-25.1344
-24.3604
-24.9953
-25.0682
-24.786
-25.4904
-25.0371
-25.3789
-26.0346
-25.1169
-26.1987
-26.1412
-25.7908
-26.1986
-25.9289
-26.8062
-23.4907
-24.6874
-24.9277
-24.4483
-25.0922
-24.4142
-24.9674
-25.0967
-24.7736
-25.5076
-25.0734
-25.3609
-26.0259
-25.1878
-26.2021
-26.2461
-25.7893
-26.4866
-26.2804
-26.8833
-23.5436
-24.6346
-24.9154
-24.3926
-25.048
-24.4811
-24.8898
-25.1329
-24.8012
-25.4974
-25.1497
-25.3525
-25.993
-25.2721
-26.1739
-26.2901
-25.8473
-26.6994
-26.4767
-26.9524
-23.561
-24.5868
-24.92
-24.3615
-25.0031
-24.513
-24.8555
-25.1592
-24.7857
-25.4853
-25.1778
-25.3151
-25.9637
-25.3661
-26.0804
-26.2914
-25.9228
-26.7327
-26.5211
-27.0264
-23.6574
-24.5445
-24.9433
-24.347
-24.9486
-24.5646
-24.813
-25.1809
-24.793
-25.4588
-25.2197
-25.3026
-25.9256
-25.4308
-25.9735
-26.2797
-25.9472
-26.6293
-26.509
-27.0803
-23.6272
-24.4997
-24.9817
-24.3418
-24.904
-24.5997
-24.816
-25.2145
-24.7835
-25.4349
-25.2665
-25.2682
-25.9016
-25.4832
-25.8741
-26.2993
-25.9482
-26.4957
-26.5498
-27.1248
-23.6687
-24.4534
-25.0171
-24.3429
-24.8548
-24.6613
-24.7707
-25.236
-24.7901
-25.4047
-25.3054
-25.2632
-25.8803
-25.518
-25.8113
-26.3227
-25.9437
-26.4024
-26.6261
-27.1545
-23.6834
-24.3974
-25.051
-24.3357
-24.81
-24.6904
-24.724
-25.2571
-24.7904
-25.3682
-25.3466
-25.241
-25.8545
-25.5618
-25.7668
-26.322
-25.9666
-26.3598
-26.7017
-27.1924
-23.7066
-24.3458
-25.0779
-24.3334
-24.7656
-24.731
-24.6885
-25.2755
-24.7892
-25.3352
-25.382
-25.2234
-25.8397
-25.596
-25.7389
-26.3245
-25.9745
-26.3443
-26.801
-27.2085
-23.7188
-24.2894
-25.1104
-24.3293
-24.7212
-24.7763
-24.6463
-25.292
-24.8015
-25.2998
-25.4249
-25.2166
-25.8171
-25.6272
-25.7192
-26.315
-25.9996
-26.3525
-26.8718
-27.2314
-23.7288
-24.2408
-25.1318
-24.3256
-24.6846
-24.8094
-24.6145
-25.3055
-24.8052
-25.2662
-25.4564
-25.2005
-25.7993
-25.6522
-25.7094
-26.3092
-26.0131
-26.3813
-26.9499
-27.2295
-23.732
-24.19
-25.1552
-24.3224
-24.6445
-24.8478
-24.5802
-25.3135
-24.8174
-25.2315
-25.4892
-25.1923
-25.7852
-25.677
-25.7014
-26.2968
-26.045
-26.4178
-26.9898
-27.2549
-23.7295
-24.1502
-25.1676
-24.3193
-24.6135
-24.875
-24.5554
-25.3189
-24.829
-25.2005
-25.5168
-25.1898
-25.7577
-25.695
-25.7134
-26.2713
-26.0338
-26.4855
-27.0312
-27.2192
-23.7169
-24.1116
-25.1792
-24.3147
-24.5857
-24.9005
-24.5303
-25.3224
-24.8395
-25.1794
-25.5438
-25.1862
-25.7575
-25.7132
-25.6772
-26.266
-26.0566
-26.5107
-27.0522
-27.3123
-23.7008
-24.0802
-25.1814
-24.3109
-24.5609
-24.9243
-24.5051
-25.3183
-24.8562
-25.1412
-25.5629
-25.1931
-25.7219
-25.7261
-25.7096
-26.2262
-26.0616
-26.618
-27.04
-27.2697
-23.6625
-24.062
-25.1752
-24.3038
-24.5434
-24.9296
-24.4957
-25.305
-24.8571
-25.1321
-25.5644
-25.1904
-25.7165
-25.7302
-25.706
-26.2244
-26.0627
-26.6223
-27.0411
-27.2568
-19.1403
-18.4251
-39.2747
-57.2571
-58.197
-54.0957
-52.0013
-47.7039
-34.3808
-19.7471
-9.72217
-4.67453
-1.84557
-0.206144
0.678451
1.13034
1.40317
1.60692
1.76483
1.87606
1.94806
1.98969
2.00672
2.00613
1.99538
1.9796
1.96133
1.94181
1.92162
1.90104
1.8802
1.85916
1.83794
1.81656
1.79502
1.77333
1.75149
1.7295
1.70735
1.68504
1.66258
1.63997
1.61719
1.59426
1.57116
1.54791
1.52448
1.5009
1.47715
1.45323
1.42915
1.4049
1.38047
1.35588
1.33111
1.30617
1.28106
1.25577
1.2303
1.20465
1.17883
1.15282
1.12663
1.10026
1.0737
1.04696
1.02003
0.992907
0.965597
0.938095
0.9104
0.882512
0.854427
0.826147
0.797668
0.76899
0.740111
0.71103
0.681744
0.652253
0.622554
0.592647
0.56253
0.532204
0.501664
0.470912
0.439943
0.408758
0.377357
0.345728
0.313887
0.281812
0.249518
0.217001
0.184242
0.151272
0.118058
0.0846085
0.0509386
0.0170202
-19.8227
-19.8373
-39.9113
-57.0285
-56.7445
-52.2258
-50.2831
-46.0106
-33.2452
-19.5301
-10.101
-5.15812
-2.29104
-0.499424
0.486919
0.99548
1.30839
1.54576
1.72641
1.85055
1.93151
1.97994
2.00121
2.00292
1.99347
1.97848
1.9607
1.94146
1.92144
1.90095
1.88016
1.85914
1.83793
1.81656
1.79502
1.77334
1.75149
1.7295
1.70735
1.68505
1.66259
1.63997
1.61719
1.59426
1.57116
1.54791
1.52448
1.5009
1.47715
1.45323
1.42915
1.4049
1.38047
1.35588
1.33111
1.30617
1.28106
1.25577
1.2303
1.20465
1.17883
1.15282
1.12663
1.10026
1.0737
1.04696
1.02003
0.992907
0.965597
0.938095
0.910401
0.882511
0.854427
0.826147
0.797668
0.76899
0.740111
0.71103
0.681744
0.652252
0.622554
0.592647
0.56253
0.532204
0.501664
0.470912
0.439943
0.408757
0.377357
0.345727
0.313888
0.281811
0.249519
0.217
0.184243
0.151271
0.118059
0.0846076
0.050939
0.0170201
-20.8028
-21.425
-39.9196
-53.8454
-54.7642
-50.5674
-48.669
-44.188
-32.2
-19.5359
-10.62
-5.70539
-2.77164
-0.847084
0.269078
0.861162
1.2236
1.49228
1.69205
1.82684
1.91565
1.9706
1.99615
2.00015
1.9919
1.97758
1.96018
1.94117
1.92128
1.90087
1.88012
1.85913
1.83793
1.81656
1.79503
1.77334
1.7515
1.7295
1.70735
1.68505
1.66259
1.63997
1.61719
1.59426
1.57116
1.54791
1.52448
1.5009
1.47715
1.45323
1.42915
1.4049
1.38047
1.35588
1.33111
1.30617
1.28106
1.25577
1.2303
1.20465
1.17883
1.15282
1.12663
1.10026
1.0737
1.04696
1.02003
0.992907
0.965597
0.938095
0.910401
0.882511
0.854428
0.826147
0.797668
0.76899
0.740111
0.71103
0.681744
0.652252
0.622554
0.592647
0.56253
0.532204
0.501664
0.470912
0.439943
0.408757
0.377357
0.345727
0.313888
0.281811
0.249519
0.217
0.184243
0.151271
0.118059
0.0846077
0.0509389
0.0170201
-22.0255
-23.1291
-39.1608
-51.6025
-52.6768
-49.2849
-47.077
-42.4277
-31.0556
-19.5695
-11.2053
-6.32106
-3.2554
-1.18729
0.0359388
0.71014
1.1327
1.43807
1.65446
1.79973
1.8977
1.95984
1.98994
1.99651
1.98978
1.97639
1.95953
1.94083
1.9211
1.90078
1.88008
1.85911
1.83793
1.81656
1.79503
1.77334
1.7515
1.7295
1.70735
1.68505
1.66259
1.63997
1.61719
1.59426
1.57116
1.54791
1.52449
1.5009
1.47715
1.45323
1.42915
1.4049
1.38047
1.35588
1.33111
1.30617
1.28106
1.25577
1.2303
1.20465
1.17883
1.15282
1.12663
1.10026
1.0737
1.04696
1.02003
0.992907
0.965597
0.938095
0.910401
0.882511
0.854428
0.826147
0.797668
0.76899
0.740111
0.71103
0.681744
0.652253
0.622554
0.592647
0.562531
0.532204
0.501664
0.470912
0.439944
0.408757
0.377357
0.345727
0.313888
0.281811
0.249519
0.217
0.184243
0.151271
0.118059
0.0846078
0.0509389
0.0170201
-23.0797
-24.4084
-38.2137
-49.4152
-50.5603
-47.8698
-45.3562
-40.7055
-29.9339
-19.3313
-11.6595
-6.89135
-3.75135
-1.52719
-0.179137
0.564291
1.04051
1.38888
1.64045
1.79389
1.89306
1.95728
1.98876
1.99576
1.98918
1.97594
1.95921
1.94062
1.92098
1.90072
1.88005
1.8591
1.83793
1.81657
1.79504
1.77335
1.7515
1.72951
1.70736
1.68505
1.66259
1.63997
1.6172
1.59426
1.57116
1.54791
1.52449
1.5009
1.47715
1.45323
1.42915
1.4049
1.38047
1.35588
1.33111
1.30617
1.28106
1.25577
1.2303
1.20465
1.17883
1.15282
1.12663
1.10026
1.0737
1.04696
1.02003
0.992907
0.965597
0.938095
0.910401
0.882512
0.854428
0.826147
0.797668
0.76899
0.740111
0.71103
0.681744
0.652253
0.622554
0.592648
0.562531
0.532204
0.501664
0.470912
0.439944
0.408757
0.377357
0.345727
0.313888
0.281812
0.249519
0.217
0.184243
0.151271
0.118059
0.0846078
0.0509389
0.0170201
-24.1001
-25.4654
-37.25
-47.2504
-48.427
-46.3385
-43.7429
-38.9074
-28.9788
-19.1635
-11.9798
-7.3045
-4.12895
-1.86145
-0.409252
0.444578
0.968272
1.33213
1.57301
1.74314
1.86338
1.94156
1.9806
1.9914
1.98684
1.97473
1.95859
1.94031
1.92083
1.90065
1.88002
1.85909
1.83793
1.81657
1.79504
1.77335
1.75151
1.72951
1.70736
1.68505
1.66259
1.63997
1.6172
1.59426
1.57116
1.54791
1.52449
1.5009
1.47715
1.45323
1.42915
1.4049
1.38047
1.35588
1.33111
1.30617
1.28106
1.25577
1.2303
1.20465
1.17883
1.15282
1.12663
1.10026
1.0737
1.04696
1.02003
0.992907
0.965597
0.938095
0.910401
0.882512
0.854428
0.826147
0.797668
0.768991
0.740111
0.71103
0.681744
0.652253
0.622554
0.592648
0.562531
0.532204
0.501664
0.470912
0.439944
0.408758
0.377357
0.345727
0.313888
0.281812
0.249519
0.217
0.184243
0.151271
0.118059
0.0846079
0.0509388
0.01702
-25.0712
-26.3824
-36.1813
-45.0475
-46.3662
-44.7253
-42.1625
-37.2271
-28.0213
-19.1973
-12.349
-7.72628
-4.37809
-2.05197
-0.596224
0.264138
0.864504
1.30694
1.61705
1.77747
1.87764
1.94768
1.98334
1.9923
1.9869
1.97455
1.95839
1.94017
1.92075
1.9006
1.88
1.85909
1.83793
1.81657
1.79505
1.77336
1.75151
1.72951
1.70736
1.68505
1.66259
1.63997
1.6172
1.59426
1.57116
1.54791
1.52449
1.5009
1.47715
1.45323
1.42915
1.4049
1.38047
1.35588
1.33111
1.30617
1.28106
1.25577
1.2303
1.20465
1.17883
1.15282
1.12663
1.10026
1.0737
1.04696
1.02003
0.992907
0.965597
0.938095
0.910401
0.882512
0.854428
0.826147
0.797669
0.768991
0.740111
0.71103
0.681744
0.652253
0.622554
0.592648
0.562531
0.532205
0.501664
0.470912
0.439944
0.408758
0.377357
0.345727
0.313888
0.281812
0.249519
0.217
0.184243
0.151271
0.118059
0.084608
0.0509388
0.01702
-25.8158
-26.9791
-35.1152
-42.9781
-44.5654
-43.128
-40.5987
-35.7457
-27.1231
-19.1495
-12.8847
-8.25137
-4.7614
-2.25388
-0.693421
0.193999
0.801396
1.23337
1.4987
1.6925
1.83571
1.92955
1.97588
1.98896
1.98528
1.97374
1.95797
1.93995
1.92063
1.90055
1.87998
1.85908
1.83793
1.81658
1.79505
1.77336
1.75152
1.72952
1.70736
1.68505
1.66259
1.63997
1.6172
1.59426
1.57116
1.54791
1.52449
1.5009
1.47715
1.45323
1.42915
1.4049
1.38047
1.35588
1.33111
1.30617
1.28106
1.25577
1.2303
1.20465
1.17883
1.15282
1.12663
1.10026
1.0737
1.04696
1.02003
0.992907
0.965597
0.938095
0.910401
0.882512
0.854428
0.826147
0.797669
0.768991
0.740111
0.71103
0.681744
0.652253
0.622554
0.592648
0.562531
0.532205
0.501664
0.470912
0.439944
0.408758
0.377357
0.345727
0.313888
0.281812
0.249519
0.217
0.184243
0.151271
0.118059
0.084608
0.0509387
0.01702
-26.3614
-27.4913
-34.2628
-41.2046
-43.0241
-41.7681
-39.1915
-34.3419
-26.4663
-19.0943
-13.3981
-8.81003
-5.1424
-2.50775
-0.892546
0.069957
0.749441
1.25518
1.59545
1.7548
1.85775
1.93732
1.97834
1.98903
1.98478
1.97331
1.95772
1.93983
1.92058
1.90053
1.87998
1.85908
1.83794
1.81658
1.79506
1.77337
1.75152
1.72952
1.70736
1.68506
1.66259
1.63997
1.6172
1.59426
1.57116
1.54791
1.52449
1.5009
1.47715
1.45323
1.42915
1.4049
1.38047
1.35588
1.33111
1.30617
1.28106
1.25577
1.2303
1.20465
1.17883
1.15282
1.12663
1.10026
1.0737
1.04696
1.02003
0.992907
0.965598
0.938095
0.910401
0.882512
0.854428
0.826147
0.797669
0.768991
0.740111
0.71103
0.681744
0.652253
0.622554
0.592648
0.562531
0.532205
0.501664
0.470912
0.439944
0.408758
0.377357
0.345727
0.313888
0.281812
0.249519
0.217001
0.184243
0.151271
0.118059
0.0846081
0.0509387
0.01702
-26.8251
-27.9735
-33.6785
-39.8237
-41.7095
-40.5888
-38.0231
-33.2188
-25.7873
-19.215
-13.8647
-9.36353
-5.58618
-2.68481
-0.988267
-0.0217207
0.667796
1.16217
1.44224
1.65002
1.81872
1.92628
1.97621
1.98986
1.98564
1.97356
1.95768
1.93977
1.92053
1.90051
1.87997
1.85909
1.83794
1.81659
1.79506
1.77337
1.75152
1.72952
1.70737
1.68506
1.66259
1.63997
1.6172
1.59426
1.57117
1.54791
1.52449
1.5009
1.47715
1.45323
1.42915
1.4049
1.38047
1.35588
1.33111
1.30617
1.28106
1.25577
1.2303
1.20465
1.17883
1.15282
1.12663
1.10026
1.0737
1.04696
1.02003
0.992907
0.965598
0.938095
0.910401
0.882512
0.854428
0.826147
0.797669
0.768991
0.740111
0.71103
0.681744
0.652253
0.622554
0.592648
0.562531
0.532205
0.501664
0.470912
0.439944
0.408758
0.377357
0.345727
0.313888
0.281812
0.249519
0.217001
0.184243
0.151271
0.118059
0.0846082
0.0509386
0.01702
-27.2016
-28.4259
-33.3041
-38.6922
-40.5906
-39.4279
-36.8668
-32.372
-25.1873
-19.2559
-14.4638
-9.89871
-6.00024
-3.0286
-1.22059
-0.0869569
0.681479
1.21428
1.55737
1.72898
1.83288
1.92706
1.97393
1.98591
1.98281
1.97232
1.95729
1.93966
1.92049
1.90051
1.87998
1.8591
1.83795
1.8166
1.79507
1.77338
1.75153
1.72952
1.70737
1.68506
1.6626
1.63998
1.6172
1.59426
1.57117
1.54791
1.52449
1.5009
1.47715
1.45323
1.42915
1.4049
1.38047
1.35588
1.33111
1.30617
1.28106
1.25577
1.2303
1.20465
1.17883
1.15282
1.12663
1.10026
1.0737
1.04696
1.02003
0.992907
0.965598
0.938095
0.910401
0.882512
0.854428
0.826148
0.797669
0.768991
0.740111
0.71103
0.681744
0.652253
0.622554
0.592648
0.562531
0.532205
0.501664
0.470913
0.439944
0.408758
0.377357
0.345727
0.313888
0.281812
0.249519
0.217001
0.184243
0.151271
0.118059
0.0846082
0.0509385
0.01702
-27.5246
-28.7944
-32.971
-37.7861
-39.5867
-38.3628
-35.7069
-31.2411
-24.6233
-19.3241
-15.0616
-10.4882
-6.35246
-3.2477
-1.35062
-0.161408
0.62608
1.13237
1.43148
1.61978
1.81204
1.92561
1.98048
1.9935
1.98672
1.97391
1.95765
1.93972
1.9205
1.90051
1.87999
1.85911
1.83796
1.81661
1.79508
1.77338
1.75153
1.72953
1.70737
1.68506
1.6626
1.63998
1.6172
1.59426
1.57117
1.54791
1.52449
1.5009
1.47715
1.45323
1.42915
1.4049
1.38047
1.35588
1.33111
1.30617
1.28106
1.25577
1.2303
1.20465
1.17883
1.15282
1.12663
1.10026
1.0737
1.04696
1.02003
0.992907
0.965598
0.938095
0.910401
0.882512
0.854428
0.826148
0.797669
0.768991
0.740111
0.71103
0.681744
0.652253
0.622554
0.592648
0.562531
0.532205
0.501665
0.470913
0.439944
0.408758
0.377357
0.345727
0.313888
0.281812
0.249519
0.217001
0.184243
0.151271
0.118059
0.0846083
0.0509384
0.01702
-27.7961
-29.1208
-32.662
-36.9889
-38.7042
-37.406
-34.6831
-30.1736
-23.8957
-19.5528
-15.6492
-11.0821
-6.71238
-3.40632
-1.42593
-0.227483
0.5954
1.1497
1.50363
1.68734
1.80885
1.92041
1.9725
1.98137
1.98199
1.97185
1.95714
1.93966
1.92051
1.90053
1.88001
1.85913
1.83798
1.81662
1.79508
1.77339
1.75153
1.72953
1.70737
1.68506
1.6626
1.63998
1.6172
1.59426
1.57117
1.54791
1.52449
1.5009
1.47715
1.45323
1.42915
1.4049
1.38047
1.35588
1.33111
1.30617
1.28106
1.25577
1.2303
1.20465
1.17883
1.15282
1.12663
1.10026
1.0737
1.04696
1.02003
0.992907
0.965598
0.938095
0.910401
0.882512
0.854428
0.826148
0.797669
0.768991
0.740111
0.71103
0.681744
0.652253
0.622554
0.592648
0.562531
0.532205
0.501665
0.470913
0.439944
0.408758
0.377357
0.345728
0.313888
0.281812
0.249519
0.217001
0.184243
0.151271
0.118059
0.0846083
0.0509383
0.0170199
-28.0238
-29.3921
-32.383
-36.3336
-37.9413
-36.5449
-33.7441
-29.3083
-23.3053
-19.7933
-16.319
-11.6373
-7.04039
-3.61957
-1.51672
-0.242005
0.577414
1.12387
1.42173
1.61991
1.80128
1.93304
1.98853
1.99784
1.98799
1.97428
1.95796
1.93987
1.92057
1.90057
1.88004
1.85915
1.83799
1.81663
1.79509
1.77339
1.75154
1.72953
1.70737
1.68506
1.6626
1.63998
1.6172
1.59426
1.57117
1.54791
1.52449
1.5009
1.47715
1.45323
1.42915
1.4049
1.38047
1.35588
1.33111
1.30617
1.28106
1.25577
1.2303
1.20465
1.17883
1.15282
1.12663
1.10026
1.0737
1.04696
1.02003
0.992907
0.965598
0.938095
0.910401
0.882512
0.854428
0.826148
0.797669
0.768991
0.740111
0.71103
0.681744
0.652253
0.622554
0.592648
0.562531
0.532205
0.501665
0.470913
0.439944
0.408758
0.377357
0.345728
0.313888
0.281812
0.249519
0.217001
0.184243
0.151271
0.118059
0.0846084
0.0509382
0.0170199
-28.2456
-29.6177
-32.1625
-35.8454
-37.3135
-35.7555
-32.9023
-28.3499
-22.76
-20.1157
-17.0913
-12.2143
-7.42463
-3.69535
-1.58207
-0.336821
0.539943
1.11517
1.48049
1.67601
1.80254
1.91058
1.96635
1.98325
1.98183
1.97195
1.95729
1.93966
1.92061
1.90062
1.88007
1.85917
1.83801
1.81664
1.7951
1.7734
1.75154
1.72954
1.70738
1.68506
1.6626
1.63998
1.6172
1.59426
1.57117
1.54791
1.52449
1.5009
1.47715
1.45323
1.42915
1.4049
1.38047
1.35588
1.33111
1.30617
1.28106
1.25577
1.2303
1.20465
1.17883
1.15282
1.12663
1.10026
1.0737
1.04696
1.02003
0.992907
0.965598
0.938095
0.910401
0.882512
0.854428
0.826148
0.797669
0.768991
0.740112
0.71103
0.681744
0.652253
0.622554
0.592648
0.562531
0.532205
0.501665
0.470913
0.439944
0.408758
0.377357
0.345728
0.313888
0.281812
0.249519
0.217001
0.184243
0.151271
0.118059
0.0846084
0.0509381
0.0170199
-28.4196
-29.77
-31.9798
-35.4275
-36.8377
-35.0408
-32.0704
-27.3689
-22.1416
-20.5239
-17.9711
-12.7864
-7.80321
-3.86614
-1.61556
-0.277142
0.56364
1.10884
1.43698
1.65741
1.81288
1.93164
1.98628
1.99634
1.98859
1.97494
1.9584
1.94008
1.92078
1.90069
1.88012
1.8592
1.83803
1.81666
1.79511
1.7734
1.75155
1.72954
1.70738
1.68507
1.6626
1.63998
1.6172
1.59426
1.57117
1.54791
1.52449
1.5009
1.47715
1.45323
1.42915
1.4049
1.38047
1.35588
1.33111
1.30617
1.28106
1.25577
1.2303
1.20465
1.17883
1.15282
1.12663
1.10026
1.0737
1.04696
1.02003
0.992907
0.965598
0.938095
0.910401
0.882512
0.854428
0.826148
0.797669
0.768991
0.740112
0.71103
0.681744
0.652253
0.622554
0.592648
0.562531
0.532205
0.501665
0.470913
0.439944
0.408758
0.377357
0.345728
0.313888
0.281812
0.249519
0.217001
0.184243
0.151271
0.118059
0.0846085
0.050938
0.0170199
-28.606
-29.9148
-31.7794
-35.1088
-36.4317
-34.487
-31.3509
-26.266
-21.5075
-21.088
-18.7952
-13.3537
-8.0678
-3.92008
-1.63168
-0.351314
0.537826
1.12022
1.48321
1.66917
1.80799
1.9133
1.96834
1.98525
1.98328
1.97284
1.9578
1.94002
1.92084
1.90076
1.88017
1.85924
1.83805
1.81667
1.79512
1.77341
1.75155
1.72954
1.70738
1.68507
1.6626
1.63998
1.6172
1.59426
1.57117
1.54791
1.52449
1.5009
1.47715
1.45323
1.42915
1.4049
1.38047
1.35588
1.33111
1.30617
1.28106
1.25577
1.2303
1.20465
1.17883
1.15282
1.12663
1.10026
1.0737
1.04696
1.02003
0.992907
0.965598
0.938096
0.910401
0.882512
0.854428
0.826148
0.797669
0.768991
0.740112
0.71103
0.681744
0.652253
0.622554
0.592648
0.562531
0.532205
0.501665
0.470913
0.439944
0.408758
0.377357
0.345728
0.313888
0.281812
0.249519
0.217001
0.184243
0.151271
0.118059
0.0846085
0.0509379
0.0170199
-28.7368
-30.0022
-31.596
-34.8994
-36.1703
-33.9562
-30.6923
-25.1243
-20.662
-21.7255
-19.502
-13.6095
-8.32249
-4.01186
-1.6096
-0.269819
0.562703
1.11373
1.45801
1.67182
1.82587
1.93584
1.98726
1.99748
1.98989
1.97591
1.95903
1.94048
1.92102
1.90085
1.88022
1.85926
1.83807
1.81668
1.79513
1.77342
1.75156
1.72954
1.70738
1.68507
1.6626
1.63998
1.6172
1.59426
1.57117
1.54791
1.52449
1.5009
1.47715
1.45323
1.42915
1.4049
1.38047
1.35588
1.33111
1.30617
1.28106
1.25577
1.2303
1.20465
1.17883
1.15282
1.12663
1.10026
1.0737
1.04696
1.02003
0.992908
0.965598
0.938096
0.910401
0.882512
0.854428
0.826148
0.797669
0.768991
0.740112
0.71103
0.681744
0.652253
0.622554
0.592648
0.562531
0.532205
0.501665
0.470913
0.439944
0.408758
0.377357
0.345728
0.313888
0.281812
0.249519
0.217001
0.184243
0.151271
0.118059
0.0846085
0.0509378
0.0170199
-28.9209
-30.0688
-31.4053
-34.7356
-36.0844
-33.603
-30.0803
-23.9993
-19.6425
-22.0642
-20.0907
-13.771
-8.33031
-3.99977
-1.6194
-0.296513
0.568559
1.14126
1.48225
1.68155
1.82181
1.92361
1.9754
1.9897
1.98592
1.97433
1.95864
1.94054
1.92114
1.90095
1.88029
1.85932
1.8381
1.81671
1.79514
1.77343
1.75156
1.72955
1.70738
1.68507
1.6626
1.63998
1.6172
1.59426
1.57117
1.54791
1.52449
1.5009
1.47715
1.45323
1.42915
1.4049
1.38047
1.35588
1.33111
1.30618
1.28106
1.25577
1.2303
1.20465
1.17883
1.15282
1.12663
1.10026
1.0737
1.04696
1.02003
0.992908
0.965598
0.938096
0.910401
0.882512
0.854428
0.826148
0.797669
0.768991
0.740112
0.71103
0.681744
0.652253
0.622554
0.592648
0.562531
0.532205
0.501665
0.470913
0.439944
0.408758
0.377357
0.345728
0.313888
0.281812
0.249519
0.217001
0.184243
0.151271
0.11806
0.0846085
0.0509377
0.0170199
-28.9518
-30.0737
-31.31
-34.6494
-35.9277
-33.4274
-29.7266
-23.2742
-18.7245
-21.8476
-20.0431
-13.7993
-8.37579
-3.99702
-1.59236
-0.26017
0.579251
1.13469
1.48076
1.68575
1.83289
1.93734
1.98759
1.99823
1.99084
1.97673
1.95965
1.94094
1.92131
1.90103
1.88034
1.85934
1.83812
1.81672
1.79515
1.77343
1.75156
1.72955
1.70739
1.68507
1.6626
1.63998
1.6172
1.59426
1.57117
1.54791
1.52449
1.5009
1.47715
1.45323
1.42915
1.4049
1.38047
1.35588
1.33111
1.30618
1.28106
1.25577
1.2303
1.20465
1.17883
1.15282
1.12663
1.10026
1.0737
1.04696
1.02003
0.992908
0.965598
0.938096
0.910401
0.882512
0.854428
0.826148
0.797669
0.768991
0.740112
0.71103
0.681744
0.652253
0.622554
0.592648
0.562531
0.532205
0.501665
0.470913
0.439944
0.408758
0.377357
0.345728
0.313887
0.281812
0.249518
0.217001
0.184243
0.151271
0.11806
0.0846086
0.0509376
0.0170199
-19.4656
-22.604
-31.7334
-48.5788
-60.6717
-62.53
-53.1742
-42.1352
-26.3903
-8.65764
1.10316
5.02775
6.31172
5.28434
4.315
3.51076
2.97123
2.64759
2.45124
2.32356
2.23249
2.16244
2.10665
2.06187
2.02569
1.99543
1.96931
1.94564
1.92332
1.90168
1.88034
1.8591
1.83781
1.81642
1.7949
1.77324
1.75142
1.72944
1.70731
1.68502
1.66257
1.63996
1.61719
1.59425
1.57116
1.5479
1.52448
1.5009
1.47715
1.45323
1.42915
1.4049
1.38047
1.35588
1.33111
1.30618
1.28106
1.25577
1.2303
1.20466
1.17883
1.15282
1.12663
1.10026
1.0737
1.04696
1.02003
0.992908
0.965597
0.938096
0.910401
0.882513
0.854428
0.826148
0.797669
0.768991
0.740112
0.71103
0.681744
0.652253
0.622554
0.592648
0.562531
0.532205
0.501665
0.470913
0.439944
0.408758
0.377357
0.345728
0.313887
0.281813
0.249518
0.217002
0.184242
0.151272
0.118058
0.0846095
0.050937
0.01702
-19.067
-22.8456
-32.3026
-48.9246
-61.3536
-62.9514
-53.5735
-42.4731
-26.8213
-8.86859
1.05734
4.95258
6.26725
5.2581
4.29226
3.4937
2.95957
2.64008
2.44659
2.32061
2.23053
2.16126
2.106
2.06157
2.02556
1.99543
1.96936
1.9457
1.92337
1.90172
1.88037
1.85912
1.83782
1.81643
1.79491
1.77324
1.75142
1.72945
1.70731
1.68502
1.66257
1.63996
1.61719
1.59425
1.57116
1.5479
1.52448
1.5009
1.47715
1.45323
1.42915
1.4049
1.38047
1.35588
1.33111
1.30618
1.28106
1.25577
1.2303
1.20466
1.17883
1.15282
1.12663
1.10026
1.0737
1.04696
1.02003
0.992908
0.965597
0.938096
0.910401
0.882513
0.854428
0.826148
0.797669
0.768991
0.740112
0.71103
0.681744
0.652253
0.622554
0.592648
0.562531
0.532205
0.501665
0.470913
0.439944
0.408758
0.377357
0.345728
0.313887
0.281813
0.249518
0.217002
0.184242
0.151272
0.118058
0.0846095
0.0509371
0.0170201
-19.2209
-22.9518
-32.8607
-49.6713
-62.1699
-63.8584
-54.0517
-43.0383
-27.6053
-9.34482
0.927486
4.81993
6.17523
5.2049
4.24648
3.45875
2.93472
2.62308
2.43528
2.31331
2.22616
2.15896
2.10516
2.06154
2.02576
1.99581
1.96969
1.94595
1.92354
1.90184
1.88045
1.85917
1.83785
1.81645
1.79492
1.77325
1.75143
1.72945
1.70731
1.68502
1.66257
1.63996
1.61719
1.59425
1.57116
1.5479
1.52448
1.5009
1.47715
1.45323
1.42915
1.4049
1.38047
1.35588
1.33111
1.30618
1.28106
1.25577
1.2303
1.20466
1.17883
1.15282
1.12663
1.10026
1.0737
1.04696
1.02003
0.992908
0.965597
0.938096
0.910401
0.882513
0.854428
0.826148
0.797669
0.768991
0.740112
0.71103
0.681744
0.652253
0.622554
0.592648
0.562531
0.532205
0.501665
0.470913
0.439944
0.408758
0.377357
0.345728
0.313887
0.281813
0.249518
0.217002
0.184242
0.151273
0.118058
0.0846095
0.0509372
0.0170201
-19.4572
-23.4362
-33.7356
-50.7746
-63.6025
-64.93
-54.864
-43.7735
-28.7196
-10.0486
0.687695
4.55961
6.03377
5.12288
4.17844
3.40697
2.89781
2.59791
2.41883
2.30298
2.21996
2.1555
2.10341
2.06073
2.02542
1.99571
1.9697
1.94599
1.92359
1.90188
1.88049
1.85919
1.83787
1.81646
1.79493
1.77325
1.75143
1.72945
1.70732
1.68502
1.66257
1.63996
1.61719
1.59425
1.57116
1.5479
1.52448
1.5009
1.47715
1.45323
1.42915
1.4049
1.38047
1.35588
1.33111
1.30617
1.28106
1.25577
1.2303
1.20466
1.17883
1.15282
1.12663
1.10026
1.0737
1.04696
1.02003
0.992908
0.965597
0.938096
0.910401
0.882513
0.854428
0.826148
0.797669
0.768991
0.740112
0.71103
0.681744
0.652253
0.622554
0.592648
0.562531
0.532205
0.501665
0.470913
0.439944
0.408758
0.377357
0.345728
0.313887
0.281813
0.249518
0.217002
0.184242
0.151273
0.118058
0.0846095
0.0509373
0.0170201
-19.8134
-23.793
-35.3084
-52.1432
-65.2557
-66.917
-55.7839
-44.7212
-29.9686
-10.8941
0.240677
4.1779
5.82828
5.00479
4.08794
3.3395
2.84964
2.56483
2.39695
2.28901
2.21138
2.1505
2.10071
2.05942
2.02489
1.99555
1.96971
1.94605
1.92366
1.90194
1.88053
1.85922
1.83789
1.81648
1.79494
1.77326
1.75143
1.72945
1.70732
1.68502
1.66257
1.63996
1.61719
1.59425
1.57116
1.5479
1.52448
1.5009
1.47715
1.45323
1.42915
1.4049
1.38047
1.35588
1.33111
1.30617
1.28106
1.25577
1.2303
1.20466
1.17883
1.15282
1.12663
1.10026
1.0737
1.04696
1.02003
0.992908
0.965597
0.938096
0.910401
0.882513
0.854428
0.826148
0.797669
0.768991
0.740112
0.71103
0.681744
0.652253
0.622554
0.592648
0.562531
0.532205
0.501665
0.470913
0.439944
0.408758
0.377356
0.345728
0.313887
0.281813
0.249518
0.217002
0.184242
0.151273
0.118058
0.0846095
0.0509374
0.0170201
-20.1006
-24.2586
-36.8368
-53.9687
-66.9296
-68.2619
-56.758
-45.8003
-31.1538
-11.8265
-0.363734
3.7265
5.55287
4.84566
3.9732
3.25755
2.79169
2.52477
2.37034
2.27201
2.20092
2.14439
2.09738
2.05774
2.02412
1.99523
1.9696
1.94604
1.92368
1.90197
1.88056
1.85924
1.83791
1.81649
1.79495
1.77327
1.75144
1.72946
1.70732
1.68502
1.66257
1.63996
1.61719
1.59425
1.57116
1.5479
1.52448
1.5009
1.47715
1.45323
1.42915
1.4049
1.38047
1.35588
1.33111
1.30617
1.28106
1.25577
1.2303
1.20466
1.17883
1.15282
1.12663
1.10026
1.0737
1.04696
1.02003
0.992908
0.965597
0.938096
0.910401
0.882513
0.854428
0.826148
0.797669
0.768991
0.740112
0.71103
0.681744
0.652253
0.622554
0.592648
0.562531
0.532205
0.501665
0.470913
0.439944
0.408758
0.377356
0.345728
0.313887
0.281813
0.249518
0.217002
0.184242
0.151273
0.118058
0.0846095
0.0509375
0.0170201
-20.2527
-24.6828
-38.1454
-55.5993
-68.6363
-69.7921
-57.7483
-46.9092
-32.4107
-12.7968
-1.01555
3.20465
5.19672
4.64867
3.83481
3.162
2.72537
2.47876
2.33946
2.25214
2.18862
2.13712
2.09332
2.0556
2.02307
1.99474
1.96939
1.94597
1.92367
1.90198
1.88058
1.85926
1.83792
1.8165
1.79496
1.77327
1.75144
1.72946
1.70732
1.68503
1.66257
1.63996
1.61719
1.59425
1.57116
1.5479
1.52448
1.5009
1.47715
1.45323
1.42915
1.4049
1.38047
1.35588
1.33111
1.30617
1.28106
1.25577
1.2303
1.20466
1.17883
1.15282
1.12663
1.10026
1.0737
1.04696
1.02003
0.992908
0.965597
0.938096
0.910401
0.882512
0.854428
0.826148
0.797669
0.768991
0.740112
0.71103
0.681744
0.652253
0.622554
0.592648
0.562531
0.532205
0.501665
0.470913
0.439944
0.408758
0.377356
0.345728
0.313887
0.281813
0.249518
0.217002
0.184242
0.151273
0.118058
0.0846095
0.0509376
0.0170201
-20.6034
-24.9769
-39.2251
-56.9686
-70.0582
-70.8203
-58.4384
-48.0214
-33.5999
-13.634
-1.70661
2.65443
4.74995
4.41253
3.67576
3.05422
2.65216
2.42809
2.30517
2.2299
2.17478
2.12887
2.08865
2.05309
2.02179
1.99412
1.96911
1.94585
1.92363
1.90198
1.88059
1.85927
1.83794
1.81651
1.79496
1.77328
1.75145
1.72946
1.70732
1.68503
1.66257
1.63996
1.61719
1.59425
1.57116
1.5479
1.52448
1.5009
1.47715
1.45323
1.42915
1.4049
1.38047
1.35588
1.33111
1.30617
1.28106
1.25577
1.2303
1.20466
1.17883
1.15282
1.12663
1.10026
1.0737
1.04696
1.02003
0.992908
0.965597
0.938096
0.910401
0.882512
0.854428
0.826148
0.797669
0.768991
0.740112
0.71103
0.681744
0.652253
0.622554
0.592648
0.562531
0.532205
0.501665
0.470913
0.439944
0.408758
0.377356
0.345728
0.313887
0.281813
0.249518
0.217002
0.184242
0.151273
0.118057
0.0846095
0.0509377
0.0170201
-20.9402
-25.5729
-40.1904
-58.3395
-71.1375
-71.4507
-58.9332
-49.0998
-34.6923
-14.4576
-2.45383
2.08464
4.24469
4.13063
3.4985
2.93587
2.57297
2.37368
2.26809
2.20563
2.15955
2.11972
2.08341
2.05023
2.02028
1.99336
1.96875
1.94569
1.92357
1.90196
1.88059
1.85928
1.83795
1.81652
1.79497
1.77328
1.75145
1.72947
1.70733
1.68503
1.66257
1.63996
1.61719
1.59426
1.57116
1.5479
1.52448
1.5009
1.47715
1.45323
1.42915
1.4049
1.38047
1.35588
1.33111
1.30617
1.28106
1.25577
1.2303
1.20466
1.17883
1.15282
1.12663
1.10026
1.0737
1.04696
1.02003
0.992908
0.965597
0.938096
0.910401
0.882512
0.854428
0.826148
0.797669
0.768991
0.740112
0.71103
0.681744
0.652253
0.622554
0.592648
0.562531
0.532205
0.501665
0.470913
0.439944
0.408758
0.377356
0.345728
0.313887
0.281813
0.249518
0.217002
0.184242
0.151273
0.118057
0.0846094
0.0509378
0.0170201
-20.998
-26.2414
-41.3027
-59.5944
-72.0898
-71.8088
-59.225
-50.1627
-35.7097
-15.338
-3.24919
1.45456
3.70094
3.80724
3.30413
2.80923
2.48862
2.31625
2.22898
2.17985
2.14325
2.10986
2.07771
2.04707
2.0186
1.99248
1.96832
1.94549
1.92348
1.90193
1.88058
1.85929
1.83795
1.81653
1.79498
1.77329
1.75145
1.72947
1.70733
1.68503
1.66257
1.63996
1.61719
1.59426
1.57116
1.5479
1.52448
1.5009
1.47715
1.45323
1.42915
1.4049
1.38047
1.35588
1.33111
1.30617
1.28106
1.25577
1.2303
1.20466
1.17883
1.15282
1.12663
1.10026
1.0737
1.04696
1.02003
0.992908
0.965597
0.938096
0.910401
0.882512
0.854428
0.826148
0.797669
0.768991
0.740112
0.71103
0.681744
0.652253
0.622554
0.592648
0.562531
0.532205
0.501665
0.470913
0.439944
0.408758
0.377356
0.345728
0.313887
0.281813
0.249518
0.217002
0.184242
0.151273
0.118057
0.0846094
0.0509379
0.0170201
-21.057
-26.4847
-42.2772
-60.7586
-72.5741
-71.7373
-59.3032
-51.1239
-36.5797
-16.2646
-4.13367
0.755518
3.11191
3.44836
3.09203
2.67616
2.40016
2.2562
2.18823
2.15289
2.12608
2.0994
2.07162
2.04366
2.01674
1.99151
1.96782
1.94525
1.92337
1.90189
1.88057
1.85929
1.83796
1.81653
1.79498
1.77329
1.75146
1.72947
1.70733
1.68503
1.66258
1.63996
1.61719
1.59426
1.57116
1.5479
1.52448
1.5009
1.47715
1.45323
1.42915
1.4049