/*--------------------------------*- C++ -*----------------------------------*\
| =========                 |                                                 |
| \\      /  F ield         | OpenFOAM: The Open Source CFD Toolbox           |
|  \\    /   O peration     | Version:  2.4.0                                 |
|   \\  /    A nd           | Web:      www.OpenFOAM.org                      |
|    \\/     M anipulation  |                                                 |
\*---------------------------------------------------------------------------*/
FoamFile
{
    version     2.0;
    format      ascii;
    class       volScalarField;
    location    "1.75";
    object      pMean;
}
// * * * * * * * * * * * * * * * * * * * * * * * * * * * * * * * * * * * * * //

dimensions      [0 2 -2 0 0 0 0];

internalField   nonuniform List<scalar> 
8800
(
87.0794
74.6375
67.2341
63.6725
61.7813
60.3472
59.1389
57.9882
56.9584
55.9246
54.9737
53.9837
53.0783
52.1319
51.2905
50.4138
49.6512
48.8612
48.1614
47.3765
83.9682
74.2832
67.4025
63.7863
61.8413
60.3725
59.1465
57.9885
56.9563
55.9222
54.9708
53.9815
53.0758
52.1302
51.2887
50.4118
49.653
48.8553
48.1624
47.3337
82.0031
74.3591
68.0042
64.162
62.009
60.4517
59.1931
58.0212
56.9807
55.9392
54.9811
53.9862
53.0773
52.1283
51.2878
50.4056
49.6577
48.8462
48.2132
47.3667
80.4678
74.4207
68.5905
64.5855
62.1928
60.5395
59.2558
58.0778
57.0293
55.978
55.0088
54.0035
53.0885
52.132
51.291
50.4002
49.6623
48.85
48.3057
47.5336
79.2191
74.3942
69.0657
64.9911
62.3614
60.607
59.3051
58.1354
57.0851
56.0297
55.0442
54.0305
53.1015
52.1418
51.2905
50.401
49.6557
48.87
48.3126
47.7567
78.2339
74.2973
69.4305
65.337
62.5119
60.6496
59.3335
58.1798
57.1353
56.0793
55.0793
54.0571
53.1128
52.1505
51.2863
50.3998
49.6415
48.8848
48.3629
48.0788
77.4774
74.1806
69.6979
65.6165
62.6471
60.6752
59.3424
58.2111
57.1746
56.1209
55.1081
54.08
53.1197
52.1567
51.2783
50.3969
49.6215
48.8887
48.4373
48.4519
76.9238
74.0802
69.8785
65.829
62.7649
60.6948
59.3348
58.2352
57.2014
56.1551
55.1271
54.1011
53.1203
52.1649
51.2656
50.3997
49.5974
48.8855
48.3819
48.7873
76.5634
74.0099
69.992
65.9738
62.8498
60.7084
59.3256
58.2513
57.2216
56.1798
55.1419
54.1164
53.124
52.1715
51.2618
50.402
49.5865
48.8986
48.4506
49.1045
76.384
73.9781
70.0497
66.051
62.895
60.7183
59.3209
58.2621
57.2346
56.1962
55.152
54.1275
53.1293
52.1792
51.2647
50.409
49.5939
48.9202
48.5142
49.2204
76.377
73.9889
70.0504
66.0561
62.8946
60.7221
59.3183
58.2662
57.2347
56.2009
55.1526
54.1331
53.1313
52.1872
51.2693
50.4203
49.6031
48.9433
48.5512
49.315
76.546
74.0375
69.9943
65.9847
62.8499
60.717
59.3206
58.2604
57.223
56.1909
55.145
54.1312
53.1323
52.1928
51.2773
50.4323
49.6183
48.96
48.5748
49.3472
76.8969
74.1199
69.8792
65.8422
62.7635
60.7079
59.3259
58.2492
57.202
56.172
55.1308
54.1254
53.1323
52.2001
51.29
50.4504
49.6408
48.9808
48.5788
49.3157
77.443
74.226
69.6969
65.6296
62.6403
60.6904
59.3292
58.228
57.1715
56.1421
55.1091
54.1126
53.13
52.2061
51.3048
50.4727
49.6712
49.0084
48.5672
49.2044
78.1966
74.3422
69.4316
65.3475
62.5014
60.6615
59.3219
58.1947
57.1313
56.1012
55.0805
54.0922
53.1249
52.2077
51.3205
50.4963
49.7108
49.0463
48.5666
49.0081
79.1785
74.4401
69.0686
65.0004
62.3485
60.6165
59.2958
58.1494
57.0821
56.052
55.0474
54.067
53.1181
52.2054
51.3362
50.5181
49.7577
49.0958
48.596
48.7472
80.4252
74.4673
68.5959
64.5967
62.179
60.5489
59.2483
58.0931
57.0271
56.0018
55.0143
54.0421
53.1105
52.2008
51.3496
50.5346
49.8039
49.1435
48.6555
48.4725
81.9598
74.4041
68.0128
64.175
61.9954
60.4609
59.1867
58.0369
56.98
55.9631
54.9898
54.0252
53.1053
52.1988
51.3595
50.5472
49.837
49.1802
48.7147
48.3302
83.9239
74.3253
67.4131
63.8009
61.8286
60.3813
59.1404
58.0046
56.9564
55.9463
54.9806
54.0211
53.1058
52.202
51.3661
50.5569
49.8525
49.2016
48.7115
48.2538
87.0345
74.6778
67.2444
63.6874
61.7693
60.356
59.133
58.0045
56.9585
55.9493
54.9833
54.0238
53.1085
52.2045
51.3693
50.5603
49.8561
49.2073
48.7128
48.3739
47.4438
47.369
47.1589
46.926
46.7303
46.5779
46.468
46.39
46.3363
46.3018
46.2827
46.2697
46.2596
46.2467
46.2289
46.2016
46.1635
46.1081
46.0363
45.9431
45.8337
45.7135
45.5916
45.4732
45.3679
45.2802
45.2127
45.1599
45.1165
45.0734
45.0255
44.9696
44.9081
44.8435
44.7781
44.708
44.6316
44.5408
44.4365
44.3143
44.1808
44.0357
43.8955
43.7661
43.6611
43.5798
43.5288
43.5021
43.4987
43.5077
43.5216
43.5253
43.5151
43.4806
43.4272
43.344
43.2412
43.1153
42.9786
42.8235
42.6586
42.4774
42.2919
42.1031
41.9279
41.7748
41.6595
41.5896
41.5728
41.5995
41.6692
41.7656
41.8868
42.0133
42.149
42.2733
42.3936
42.4893
42.5696
42.6191
42.6484
42.6495
42.6383
42.6042
42.5697
42.5278
42.4952
42.4723
42.4651
42.4762
42.5088
42.5636
42.6405
42.7326
42.8408
42.9569
43.0868
43.2196
43.3608
43.4979
43.636
43.7615
43.8837
43.9801
44.0734
44.1414
44.2075
44.2541
44.304
44.3339
44.3624
44.3718
44.3782
44.3647
44.3498
44.3217
44.2974
44.2643
44.2396
44.2109
44.1975
44.1877
44.2018
44.2172
44.2589
44.2924
44.3587
44.4144
44.5071
44.6021
44.7324
44.8712
45.0355
45.2033
45.3887
45.5733
45.7713
45.9617
46.1582
46.3449
46.5375
46.725
46.9186
47.1051
47.2947
47.4745
47.6564
47.8319
48.0061
48.1734
48.3373
48.4931
48.648
48.792
48.9362
49.0747
49.2237
49.3611
49.5147
49.6588
49.8262
49.9677
50.1393
50.2742
50.439
50.561
50.7173
50.8229
50.9643
51.0414
51.1799
51.2303
51.3801
51.425
51.5994
51.6481
51.8602
51.916
52.1688
52.2534
52.5391
52.67
52.996
53.1943
53.5572
53.8234
54.2166
54.5194
54.9352
55.2371
55.6364
55.8634
56.1289
56.0897
55.9539
55.1802
53.9306
50.6472
46.4389
25.9238
47.2138
47.1856
47.1212
46.974
46.7948
46.6289
46.5052
46.4237
46.3783
46.3546
46.3455
46.3392
46.333
46.3208
46.3027
46.2736
46.2344
46.1797
46.1109
46.0246
45.9253
45.8162
45.7065
45.5995
45.5043
45.4223
45.3571
45.3042
45.2621
45.2219
45.1806
45.1321
45.0787
45.019
44.9568
44.8874
44.8119
44.7233
44.6239
44.5088
44.3848
44.2526
44.1241
44.0044
43.9045
43.8252
43.7719
43.7399
43.7283
43.7265
43.7306
43.7266
43.7133
43.6782
43.627
43.5496
43.4539
43.3354
43.2045
43.0565
42.8995
42.7298
42.5559
42.3811
42.2176
42.0738
41.9626
41.8893
41.8626
41.8752
41.9279
42.0065
42.1101
42.222
42.3409
42.4522
42.5552
42.6374
42.7009
42.7377
42.755
42.7475
42.7279
42.6924
42.6535
42.612
42.5749
42.5488
42.5346
42.5374
42.5595
42.6029
42.6674
42.7475
42.845
42.9528
43.0734
43.1973
43.3279
43.4561
43.5854
43.7049
43.8181
43.909
43.9946
44.06
44.1196
44.1619
44.2014
44.2248
44.2426
44.245
44.2398
44.2183
44.1889
44.1516
44.1119
44.0688
44.0293
43.9889
43.9654
43.9469
43.9544
43.964
44.0002
44.0319
44.0924
44.1483
44.2327
44.3218
44.4413
44.57
44.7247
44.8828
45.0603
45.2342
45.4225
45.6028
45.7884
45.9643
46.1463
46.3222
46.5024
46.6746
46.8519
47.0133
47.1838
47.3416
47.5065
47.6598
47.8147
47.9588
48.1109
48.2445
48.3909
48.5225
48.6793
48.8108
48.9711
49.1102
49.2777
49.408
49.5761
49.6982
49.858
49.9665
50.1145
50.1963
50.3301
50.3733
50.5004
50.5142
50.6495
50.6534
50.8187
50.8262
51.0291
51.0523
51.2873
51.3503
51.6052
51.7177
51.9997
52.171
52.4875
52.6973
53.0465
53.2555
53.6064
53.7678
54.041
54.0425
54.0933
53.6554
53.145
51.5142
49.7531
43.9903
38.0859
19.1633
47.1957
47.2001
47.2143
47.1176
46.9279
46.7135
46.5414
46.4329
46.3878
46.3798
46.3907
46.4005
46.4045
46.3954
46.3763
46.3432
46.2998
46.2425
46.1747
46.0932
46.0034
45.9058
45.8087
45.7136
45.6285
45.553
45.4919
45.4408
45.4002
45.3621
45.3253
45.2823
45.2355
45.1808
45.1223
45.0549
44.9814
44.8962
44.8026
44.697
44.5849
44.4669
44.352
44.2442
44.1521
44.0766
44.0226
43.9858
43.9665
43.955
43.9493
43.937
43.918
43.8813
43.83
43.7568
43.6664
43.5554
43.4308
43.2912
43.1425
42.9853
42.8254
42.6664
42.5177
42.3859
42.2821
42.2095
42.1757
42.177
42.2142
42.2772
42.3632
42.4595
42.5615
42.6572
42.7427
42.8093
42.8559
42.8796
42.8841
42.8699
42.8421
42.8047
42.7609
42.7176
42.6772
42.6463
42.6247
42.6177
42.6281
42.659
42.7099
42.7796
42.8674
42.969
43.0808
43.1979
43.3201
43.441
43.5617
43.6756
43.7803
43.8679
43.9488
44.0142
44.0707
44.1123
44.147
44.1686
44.1803
44.1805
44.1671
44.1396
44.0995
44.0534
44.0022
43.9476
43.8977
43.8477
43.8206
43.7963
43.8019
43.8085
43.843
43.8774
43.9336
43.9915
44.0695
44.1561
44.2657
44.3858
44.5308
44.6803
44.8489
45.0129
45.189
45.3591
45.533
45.6975
45.8689
46.034
46.2035
46.3657
46.533
46.6829
46.845
46.9893
47.1457
47.2813
47.4246
47.5532
47.6985
47.8208
47.9703
48.0971
48.2584
48.3885
48.5559
48.6957
48.8605
48.9839
49.1468
49.2535
49.4089
49.4949
49.6364
49.6853
49.8125
49.8227
49.9378
49.917
50.0467
50.0113
50.1726
50.1483
50.3261
50.3326
50.5227
50.5734
50.7773
50.8665
51.1037
51.2254
51.5059
51.6352
51.9384
52.0359
52.3066
52.2987
52.458
52.1677
52.0649
51.0824
50.4526
47.6803
45.755
38.6204
31.5297
18.6435
47.0351
47.0622
47.242
47.2076
47.0021
46.7401
46.5282
46.4064
46.3732
46.3915
46.4331
46.4693
46.4908
46.4891
46.4693
46.4305
46.3801
46.3173
46.2477
46.1691
46.087
46.0002
45.9157
45.8332
45.7594
45.6927
45.6375
45.5897
45.551
45.5143
45.4801
45.441
45.3988
45.3484
45.2932
45.229
45.1588
45.0788
44.9925
44.8975
44.7984
44.6953
44.5951
44.4995
44.4161
44.3448
44.2906
44.2492
44.2221
44.2011
44.1856
44.1656
44.1407
44.1024
44.0511
43.982
43.897
43.7943
43.6784
43.5498
43.4129
43.2694
43.1247
42.982
42.8489
42.73
42.6342
42.5641
42.5254
42.5165
42.539
42.5852
42.6527
42.7308
42.8139
42.8912
42.9583
43.0087
43.04
43.0524
43.0467
43.0258
42.9914
42.9506
42.904
42.8581
42.8144
42.7766
42.7454
42.7264
42.7241
42.7426
42.7824
42.8432
42.9238
43.0188
43.1239
43.2339
43.3493
43.463
43.5758
43.6824
43.7796
43.8628
43.9409
44.0078
44.0652
44.1103
44.1457
44.1697
44.1818
44.1818
44.1641
44.1316
44.0861
44.0309
43.9739
43.9101
43.856
43.8028
43.7751
43.7478
43.7533
43.7599
43.7964
43.8321
43.8882
43.945
44.0228
44.1074
44.2135
44.3278
44.4627
44.6049
44.7631
44.9186
45.0832
45.2423
45.4041
45.5569
45.7189
45.8738
46.0369
46.1933
46.3542
46.5011
46.6573
46.7913
46.9378
47.0543
47.1855
47.2943
47.4322
47.5401
47.6919
47.8171
47.9836
48.1155
48.2922
48.4248
48.5888
48.7
48.8662
48.9432
49.1051
49.1537
49.2981
49.3069
49.4318
49.4054
49.5147
49.4594
49.59
49.5341
49.6736
49.6418
49.7709
49.7717
49.9041
49.9343
50.0882
50.1413
50.3354
50.3934
50.6285
50.6656
50.9168
50.8665
51.1057
50.8381
50.9882
50.2625
50.1866
48.4806
47.8521
44.1991
41.7466
35.0168
27.4758
18.8594
47.8016
47.7183
47.4859
47.1848
46.8663
46.5799
46.394
46.3167
46.3275
46.3881
46.4697
46.5394
46.5834
46.5925
46.5737
46.5298
46.4717
46.402
46.3286
46.251
46.1747
46.0978
46.0257
45.9565
45.895
45.8388
45.7914
45.7489
45.7131
45.6788
45.6465
45.6106
45.5722
45.5266
45.4762
45.4177
45.3536
45.2813
45.2041
45.1205
45.0343
44.9451
44.8581
44.7736
44.6977
44.6301
44.5749
44.5294
44.4948
44.4659
44.4417
44.4154
44.3851
44.3452
44.2944
44.2297
44.1514
44.0588
43.9542
43.8386
43.7157
43.5874
43.4585
43.3317
43.2134
43.107
43.0195
42.9527
42.9113
42.8941
42.903
42.9329
42.981
43.0391
43.101
43.1585
43.207
43.2422
43.2608
43.2635
43.2503
43.2236
43.1852
43.1404
43.0905
43.0393
42.9888
42.9403
42.8964
42.863
42.848
42.8544
42.8856
42.9389
43.015
43.1053
43.2058
43.3117
43.4216
43.5294
43.6354
43.7348
43.8261
43.9066
43.984
44.0531
44.1128
44.1641
44.2023
44.2311
44.2461
44.2463
44.2272
44.1907
44.1426
44.0826
44.0247
43.9584
43.9056
43.8563
43.8303
43.8078
43.8149
43.8274
43.8646
43.9031
43.9601
44.018
44.0995
44.1817
44.2896
44.3978
44.5281
44.6602
44.8099
44.9553
45.1128
45.2588
45.414
45.5552
45.7115
45.8561
46.0182
46.1704
46.3326
46.4795
46.633
46.7561
46.895
46.9908
47.1132
47.2004
47.3306
47.4254
47.5777
47.6971
47.8719
47.9963
48.1863
48.2999
48.4708
48.5603
48.7336
48.7797
48.9523
48.9578
49.1055
49.0745
49.1971
49.1336
49.2335
49.1631
49.2802
49.232
49.3395
49.3048
49.3973
49.3732
49.4651
49.4524
49.5742
49.5679
49.7349
49.7022
49.915
49.8061
50.0505
49.773
50.0256
49.4263
49.5859
48.4173
48.274
46.0955
45.0912
41.4097
38.2
32.8525
25.7484
19.3891
48.4251
48.2939
47.7446
47.1732
46.6977
46.3698
46.2203
46.2107
46.2893
46.4085
46.5349
46.6356
46.6966
46.7126
46.6921
46.6425
46.576
46.499
46.4206
46.3428
46.2703
46.2018
46.1403
46.0836
46.034
45.989
45.9501
45.9144
45.8827
45.8516
45.8216
45.7889
45.7538
45.7133
45.6685
45.617
45.5604
45.4975
45.4303
45.3583
45.2842
45.2076
45.1319
45.0577
44.9887
44.9253
44.8701
44.822
44.7816
44.746
44.7139
44.6812
44.6454
44.6033
44.5528
44.4922
44.4206
44.3377
44.2445
44.1422
44.0336
43.9207
43.8077
43.697
43.5936
43.4999
43.4213
43.3592
43.3172
43.2945
43.2929
43.3096
43.3405
43.3795
43.4209
43.4596
43.4908
43.5118
43.5194
43.5141
43.4947
43.4632
43.4205
43.3698
43.3133
43.2533
43.1927
43.1308
43.0722
43.0225
42.9957
42.9919
43.0158
43.0643
43.1382
43.226
43.3231
43.4264
43.5322
43.6362
43.7378
43.8346
43.9238
44.0056
44.0848
44.1568
44.2207
44.2782
44.3212
44.3538
44.3712
44.3706
44.3503
44.3094
44.2617
44.2027
44.1475
44.0878
44.0417
44.0019
43.9826
43.9723
43.9853
44.0081
44.0475
44.0923
44.15
44.2155
44.2998
44.3879
44.4983
44.6045
44.7328
44.8532
44.9956
45.1281
45.2798
45.4151
45.5676
45.7013
45.8533
45.9923
46.1568
46.3065
46.4778
46.6252
46.7793
46.8956
47.024
47.1014
47.2109
47.2805
47.4007
47.4778
47.635
47.7384
47.924
48.0306
48.2308
48.3184
48.5096
48.5674
48.7595
48.7689
48.9525
48.922
49.0694
48.9967
49.1178
49.0162
49.1123
49.0345
49.1452
49.0952
49.1987
49.1367
49.222
49.1492
49.2237
49.1392
49.2503
49.1572
49.304
49.1616
49.3436
49.09
49.2911
48.8371
48.9926
48.1847
48.1516
46.7737
46.2951
44.0923
42.5929
39.4197
35.923
31.8987
25.7793
20.5175
49.0688
48.8462
47.9235
47.0395
46.3964
46.0529
45.9844
46.0861
46.2634
46.4554
46.6266
46.752
46.8218
46.837
46.8093
46.7503
46.6738
46.5895
46.5064
46.4285
46.3591
46.298
46.2456
46.2002
46.1614
46.127
46.0966
46.0682
46.0415
46.0145
45.9871
45.9573
45.9252
45.8892
45.8494
45.8048
45.7558
45.7022
45.6447
45.5836
45.5202
45.455
45.3895
45.3246
45.2621
45.2031
45.149
45.1001
45.056
45.0159
44.9779
44.9403
44.9006
44.8569
44.8073
44.7506
44.6854
44.6117
44.5295
44.4401
44.3454
44.2477
44.1496
44.0541
43.9642
43.8825
43.812
43.7552
43.7142
43.6899
43.6822
43.6896
43.7077
43.7311
43.755
43.7766
43.7927
43.8019
43.8007
43.7882
43.7629
43.7262
43.6774
43.6181
43.5525
43.4826
43.4106
43.3348
43.2613
43.1964
43.1571
43.1458
43.166
43.2148
43.2896
43.3773
43.4736
43.576
43.6787
43.7822
43.8823
43.9796
44.0714
44.1601
44.2418
44.3173
44.3863
44.4479
44.4947
44.5291
44.5498
44.5488
44.5282
44.4853
44.4383
44.384
44.3353
44.2892
44.2536
44.229
44.224
44.232
44.2579
44.2956
44.3434
44.3972
44.4591
44.5321
44.6208
44.7184
44.83
44.9418
45.0648
45.182
45.3159
45.4414
45.5866
45.7181
45.867
46
46.1509
46.2929
46.4582
46.6097
46.7853
46.938
47.0917
47.2068
47.3212
47.3853
47.478
47.5345
47.6423
47.6967
47.8584
47.9432
48.1281
48.2302
48.4334
48.4929
48.7054
48.7415
48.9437
48.9343
49.1072
49.0605
49.1945
49.1036
49.2032
49.0825
49.1679
49.1015
49.2015
49.1559
49.2454
49.1762
49.2396
49.1345
49.1682
49.037
49.0903
48.9402
48.9995
48.7848
48.8635
48.5205
48.6002
48.0385
48.0162
47.1149
46.8595
45.4277
44.6891
42.6425
40.9359
38.3983
35.0561
31.9328
26.8611
22.1927
50.2613
49.8262
48.1759
46.8029
45.9571
45.6216
45.6745
45.9304
46.2386
46.5167
46.7322
46.8761
46.9478
46.9565
46.9166
46.8456
46.7584
46.6679
46.5819
46.5054
46.44
46.3861
46.3421
46.3067
46.2773
46.2524
46.2297
46.2083
46.1865
46.1638
46.1392
46.1126
46.0831
46.0509
46.0153
45.9764
45.9337
45.8876
45.8381
45.7858
45.731
45.6747
45.6173
45.5601
45.5035
45.4493
45.3975
45.3493
45.3038
45.2615
45.2204
45.1805
45.1393
45.0962
45.0488
44.997
44.9386
44.8742
44.8027
44.7258
44.6439
44.5597
44.4746
44.3921
44.3135
44.2423
44.1798
44.129
44.0903
44.0662
44.0545
44.055
44.0626
44.0734
44.0826
44.0903
44.0936
44.0934
44.0849
44.0662
44.0351
43.9923
43.936
43.8686
43.7946
43.7152
43.6337
43.5464
43.4599
43.3838
43.3353
43.3207
43.3413
43.3942
43.4704
43.5594
43.6555
43.7575
43.86
43.9646
44.0676
44.1714
44.2705
44.3688
44.4547
44.5363
44.6098
44.6728
44.7208
44.7551
44.777
44.7777
44.7577
44.717
44.6713
44.6251
44.5878
44.5596
44.5402
44.5377
44.5541
44.587
44.6319
44.6889
44.7493
44.8149
44.887
44.9698
45.0661
45.1701
45.2835
45.3976
45.5157
45.6366
45.7654
45.89
46.032
46.1653
46.3108
46.4501
46.5987
46.7465
46.9158
47.069
47.2524
47.4114
47.5643
47.6757
47.7895
47.8313
47.9142
47.9587
48.0566
48.0979
48.2555
48.325
48.4968
48.59
48.797
48.8367
49.0561
49.0876
49.292
49.2774
49.4401
49.395
49.5113
49.4071
49.4775
49.3465
49.4135
49.3659
49.4619
49.4272
49.5019
49.4304
49.4776
49.3334
49.3254
49.1521
49.1366
48.9211
48.8864
48.5925
48.574
48.138
48.1293
47.4602
47.3246
46.3521
45.9658
44.5697
43.7207
41.9341
40.2066
38.2086
35.1831
32.5349
28.3343
24.1102
50.7514
50.2675
48.3564
46.7375
45.7522
45.3909
45.4992
45.8474
46.2427
46.5867
46.8418
47.0035
47.076
47.075
47.0201
46.9353
46.8377
46.7417
46.6541
46.5799
46.5192
46.4722
46.4361
46.4094
46.3883
46.3714
46.3555
46.34
46.3226
46.3038
46.2819
46.2581
46.231
46.2019
46.1696
46.1352
46.0973
46.0571
46.0135
45.9679
45.9196
45.8702
45.8189
45.7679
45.7164
45.6663
45.6171
45.5704
45.5249
45.4823
45.4405
45.4004
45.3595
45.3185
45.2744
45.2279
45.1763
45.1206
45.0588
44.9931
44.9228
44.851
44.7776
44.7068
44.6391
44.5783
44.5242
44.4801
44.4449
44.4216
44.4073
44.402
44.3996
44.3987
44.3945
44.3891
44.3816
44.3738
44.3594
44.3368
44.3024
44.256
44.1946
44.1208
44.0387
43.9515
43.8615
43.7637
43.6704
43.5872
43.5352
43.5215
43.547
43.6049
43.6841
43.7735
43.8708
43.9734
44.0794
44.1876
44.299
44.4157
44.529
44.638
44.732
44.8208
44.897
44.9578
45.0029
45.0354
45.0583
45.0603
45.0427
45.0072
44.9687
44.9363
44.9151
44.9064
44.9096
44.9329
44.9771
45.0395
45.109
45.1896
45.2669
45.3487
45.4343
45.5269
45.6322
45.7393
45.8549
45.9693
46.0847
46.21
46.3359
46.4619
46.6049
46.737
46.8839
47.0281
47.1759
47.3317
47.5104
47.667
47.8576
48.0293
48.1957
48.2853
48.4272
48.4275
48.5187
48.5466
48.6266
48.6691
48.8172
48.8626
49.0406
49.1098
49.331
49.3303
49.5791
49.5974
49.8147
49.7665
49.9588
49.8963
50.0334
49.877
49.9392
49.7998
49.8723
49.8355
49.9269
49.9044
49.9716
49.8994
49.9366
49.7303
49.7019
49.4771
49.4116
49.1136
49.0229
48.63
48.5282
48.0565
47.9677
47.2929
47.0992
46.0624
45.6187
44.2916
43.3982
41.8876
40.2026
38.5536
35.8625
33.4343
29.8832
26.0766
50.9949
50.5496
48.5645
46.8336
45.7543
45.3327
45.4333
45.8181
46.264
46.6527
46.9378
47.1143
47.1878
47.1788
47.1117
47.0154
46.9094
46.8095
46.7216
46.6504
46.5947
46.5545
46.5257
46.5067
46.4928
46.4824
46.4719
46.461
46.4473
46.4317
46.4124
46.3911
46.3665
46.3401
46.3109
46.28
46.246
46.2103
46.1716
46.1313
46.0883
46.0444
45.9983
45.9522
45.9048
45.8584
45.812
45.7676
45.7237
45.6823
45.6415
45.6027
45.5639
45.5259
45.4862
45.4454
45.4007
45.3529
45.2999
45.2442
45.1844
45.1234
45.0609
45.0011
44.9436
44.8925
44.8471
44.8102
44.7796
44.7585
44.7428
44.7312
44.7184
44.706
44.6906
44.6741
44.6576
44.6445
44.6275
44.6042
44.5696
44.5225
44.46
44.3842
44.297
44.2015
44.1036
43.9968
43.8995
43.8122
43.7614
43.7505
43.7851
43.8501
43.9352
44.0263
44.1289
44.2346
44.3459
44.4597
44.5838
44.7166
44.848
44.9693
45.0736
45.1667
45.2432
45.3006
45.343
45.3742
45.3972
45.3991
45.3867
45.3601
45.3343
45.3205
45.3209
45.3368
45.3672
45.4199
45.4957
45.5894
45.6899
45.7958
45.895
45.9962
46.0968
46.1981
46.3091
46.4166
46.534
46.6451
46.7629
46.8894
47.0159
47.1428
47.2896
47.4195
47.5731
47.72
47.8731
48.0338
48.2289
48.3906
48.592
48.7727
48.9718
49.0288
49.2148
49.1549
49.2716
49.2693
49.3549
49.3834
49.53
49.5356
49.7426
49.7717
50.0308
49.9637
50.2798
50.244
50.5319
50.3919
50.6713
50.574
50.7754
50.5127
50.6038
50.42
50.5412
50.5011
50.623
50.5819
50.6609
50.5623
50.6072
50.3097
50.2991
50.0159
49.9219
49.524
49.3813
48.9129
48.7997
48.3234
48.2257
47.4622
47.2715
46.1549
45.699
44.457
43.5406
42.262
40.6641
39.1855
36.797
34.4858
31.3891
27.9755
51.1455
50.7213
48.7124
46.9288
45.8025
45.344
45.4361
45.837
46.3092
46.7216
47.0224
47.2059
47.2778
47.2613
47.1853
47.0819
46.9721
46.8717
46.7861
46.7191
46.6691
46.6354
46.6134
46.6006
46.5923
46.5866
46.58
46.5723
46.5614
46.5481
46.5312
46.5122
46.49
46.4662
46.4398
46.412
46.3816
46.3497
46.3151
46.2791
46.2406
46.201
46.1594
46.1175
46.0743
46.0316
45.9885
45.9468
45.9056
45.8667
45.8285
45.7922
45.7563
45.7218
45.6866
45.6516
45.6138
45.5738
45.5299
45.484
45.4344
45.3839
45.3325
45.2834
45.2358
45.1935
45.1569
45.1274
45.1016
45.0818
45.0635
45.0448
45.0226
45
44.9745
44.9496
44.9275
44.911
44.8942
44.8748
44.8452
44.802
44.7427
44.6679
44.5798
44.4788
44.3747
44.2617
44.1634
44.0748
44.032
44.0236
44.0688
44.1406
44.2333
44.3274
44.4405
44.5527
44.6728
44.7922
44.9327
45.0813
45.2308
45.3622
45.475
45.5686
45.6437
45.6976
45.7408
45.772
45.7959
45.8
45.7981
45.7822
45.7779
45.7849
45.8154
45.856
45.9204
46.0044
46.1161
46.2394
46.3741
46.5012
46.6305
46.7494
46.869
46.9781
47.0943
47.1969
47.3152
47.4178
47.5419
47.6622
47.7967
47.9232
48.0746
48.2065
48.3677
48.5177
48.6848
48.8495
49.0663
49.2298
49.4474
49.6271
49.8675
49.8984
50.1168
49.9954
50.1588
50.1055
50.232
50.213
50.3889
50.3544
50.599
50.5799
50.8576
50.7397
51.1309
51.0374
51.3815
51.1917
51.5794
51.4262
51.7007
51.3276
51.4875
51.2277
51.4473
51.3468
51.5312
51.4526
51.5589
51.4409
51.4933
51.0777
51.0761
50.7524
50.5865
50.1575
49.9767
49.5357
49.4426
48.8622
48.7382
47.8805
47.7532
46.565
46.086
44.936
44.0104
42.8835
41.4201
39.9767
37.819
35.6102
32.831
29.7609
51.2017
50.7759
48.7642
46.9827
45.8638
45.4153
45.5194
45.9295
46.4059
46.8162
47.1114
47.2863
47.3483
47.3225
47.2407
47.1351
47.0268
46.93
46.8499
46.7889
46.7454
46.7177
46.7013
46.693
46.6884
46.6855
46.6814
46.6757
46.6668
46.6554
46.6407
46.6239
46.6043
46.5831
46.5596
46.5348
46.5076
46.4792
46.4485
46.4164
46.382
46.3463
46.3086
46.2704
46.2309
46.1918
46.1525
46.1144
46.0771
46.0417
46.0069
45.974
45.9419
45.9116
45.8813
45.8515
45.8205
45.7884
45.7538
45.7175
45.6782
45.6383
45.5984
45.5604
45.5237
45.4911
45.4638
45.441
45.4187
45.3982
45.3764
45.3506
45.3191
45.2849
45.2487
45.2163
45.1909
45.1757
45.1652
45.1549
45.1355
45.1031
45.0533
44.9847
44.8982
44.7947
44.6868
44.5729
44.4771
44.3951
44.3653
44.3604
44.4163
44.4904
44.5892
44.6828
44.8076
44.9271
45.0597
45.1877
45.3504
45.5145
45.6827
45.8205
45.9373
46.0209
46.0963
46.1432
46.192
46.2248
46.2545
46.2634
46.2773
46.2785
46.305
46.3364
46.4033
46.4704
46.5751
46.6889
46.839
46.9903
47.163
47.3118
47.4684
47.6013
47.7429
47.8589
47.9833
48.0845
48.1984
48.2953
48.422
48.5355
48.6764
48.8073
48.9609
49.1005
49.2698
49.4242
49.6022
49.7724
50.0014
50.1795
50.4028
50.5815
50.8547
50.8994
51.0629
50.9192
51.1662
51.0241
51.2186
51.133
51.3589
51.3036
51.5652
51.5462
51.7873
51.6534
52.1102
51.9888
52.3488
52.1754
52.6249
52.4444
52.7367
52.3014
52.4975
52.1906
52.5387
52.3986
52.6319
52.5061
52.6403
52.5246
52.4862
52.0462
52.0345
51.6047
51.4433
51.0307
50.8182
50.3477
50.1789
49.5799
49.4568
48.6184
48.3315
47.2224
46.7141
45.6564
44.7664
43.6643
42.3282
40.8528
38.8815
36.7799
34.2322
31.4424
51.1513
50.7163
48.736
47.0155
45.9587
45.568
45.7049
46.113
46.5655
46.9438
47.2084
47.3563
47.3982
47.3612
47.2771
47.1749
47.0738
46.9855
46.9142
46.8615
46.8253
46.8032
46.791
46.7853
46.7826
46.7808
46.7778
46.773
46.7656
46.7559
46.7434
46.7288
46.712
46.6935
46.6731
46.6514
46.6279
46.603
46.5762
46.5478
46.5173
46.4852
46.4514
46.4169
46.3816
46.3466
46.3119
46.2784
46.2456
46.2142
46.1839
46.1552
46.1279
46.1025
46.078
46.0541
46.0298
46.0051
45.9796
45.9532
45.9246
45.8952
45.8668
45.8403
45.8152
45.7938
45.7761
45.7593
45.7406
45.7199
45.6938
45.6594
45.6178
45.5731
45.529
45.4929
45.4676
45.4555
45.4539
45.4557
45.4511
45.4355
45.4016
45.3436
45.2621
45.162
45.0554
44.9456
44.854
44.7837
44.7676
44.7721
44.8367
44.9085
45.0055
45.1003
45.2403
45.3664
45.512
45.6533
45.8437
46.0222
46.2094
46.3486
46.4655
46.5358
46.6075
46.6485
46.7078
46.7399
46.7796
46.7966
46.8326
46.8574
46.9205
46.9809
47.0878
47.187
47.335
47.4789
47.6678
47.8431
48.0463
48.2127
48.397
48.5432
48.7076
48.8321
48.9678
49.0666
49.1824
49.2776
49.4057
49.5211
49.6694
49.8052
49.9618
50.1098
50.2805
50.4386
50.6278
50.8043
51.0351
51.2328
51.4549
51.6551
51.9116
52.0092
52.0716
51.9483
52.2189
52.0097
52.2743
52.177
52.4608
52.3937
52.6318
52.6407
52.8288
52.724
53.1748
53.0725
53.4905
53.3826
53.7886
53.6788
53.8604
53.4233
53.6745
53.2993
53.7641
53.5801
53.8555
53.7241
53.851
53.6942
53.6354
53.1904
53.1293
52.6169
52.4927
52.0293
51.7551
51.3737
51.1063
50.6834
50.2506
49.5332
49.0597
48.086
47.5535
46.5572
45.7219
44.5741
43.3429
41.7938
39.9877
37.9776
35.609
33.0451
50.947
50.5074
48.6304
47.0533
46.1211
45.8278
45.9995
46.3812
46.7771
47.0937
47.3038
47.4083
47.4231
47.3754
47.2934
47.2008
47.1126
47.0374
46.9782
46.9354
46.9066
46.8892
46.8794
46.8745
46.8717
46.8695
46.8663
46.8618
46.8552
46.8468
46.8362
46.8239
46.8098
46.7942
46.7773
46.7591
46.7394
46.7185
46.6958
46.6714
46.6449
46.6166
46.5866
46.5561
46.5259
46.4963
46.4671
46.4384
46.4105
46.384
46.3587
46.335
46.3131
46.2934
46.2751
46.2581
46.242
46.227
46.2119
46.195
46.1764
46.1582
46.1418
46.1271
46.1145
46.1043
46.0954
46.0849
46.07
46.0492
46.0196
45.9803
45.9322
45.879
45.828
45.7892
45.7674
45.7641
45.775
45.7925
45.8072
45.8119
45.7965
45.7525
45.6789
45.5879
45.4855
45.3842
45.3018
45.2503
45.2437
45.254
45.3211
45.3918
45.4866
45.5948
45.7499
45.8875
46.0486
46.2123
46.4237
46.6117
46.8104
46.9504
47.0665
47.1259
47.1949
47.2341
47.3011
47.337
47.3909
47.4198
47.4808
47.5327
47.6306
47.7228
47.8688
48.0031
48.1913
48.3676
48.589
48.7878
49.0126
49.1949
49.399
49.5578
49.7408
49.8803
50.0275
50.1313
50.2539
50.3552
50.491
50.6116
50.7713
50.9147
51.0761
51.2316
51.3912
51.5533
51.7393
51.9294
52.1575
52.3836
52.59
52.8196
53.0424
53.1647
53.1472
53.1413
53.3222
53.0975
53.4187
53.3439
53.6437
53.5922
53.8057
53.8677
53.9586
53.979
54.308
54.2883
54.7367
54.7616
55.0725
54.9984
55.1034
54.7329
54.955
54.709
55.0724
54.8622
55.1459
55.0469
55.1469
54.9719
54.8094
54.3757
54.3196
53.7685
53.5775
53.1588
52.8345
52.6113
52.1304
51.9003
51.1743
50.7095
49.9237
49.1457
48.5333
47.6394
46.8361
45.6153
44.4503
42.8062
41.1323
39.1737
36.9555
34.5695
50.4824
50.0674
48.4556
47.1498
46.4168
46.2294
46.4046
46.7192
47.0225
47.2498
47.3866
47.4394
47.4265
47.3717
47.2967
47.2184
47.1469
47.0875
47.0414
47.0081
46.9854
46.9707
46.9615
46.9556
46.9513
46.9477
46.9437
46.9389
46.933
46.9257
46.917
46.907
46.8956
46.8831
46.8695
46.8549
46.8392
46.8223
46.804
46.7837
46.7613
46.7375
46.7125
46.687
46.6616
46.6375
46.6149
46.5929
46.5709
46.5494
46.529
46.5111
46.4961
46.4832
46.472
46.4631
46.4562
46.4508
46.4464
46.4416
46.4354
46.4287
46.4234
46.4203
46.4193
46.419
46.4179
46.4132
46.4025
46.3838
46.3534
46.3105
46.2584
46.2009
46.1461
46.1083
46.0947
46.1045
46.1315
46.1674
46.2022
46.2268
46.2281
46.1977
46.1366
46.0596
45.9654
45.8825
45.8124
45.7791
45.7817
45.8055
45.8722
45.9373
46.0321
46.1654
46.3348
46.4891
46.664
46.8585
47.0792
47.277
47.4772
47.6189
47.7314
47.7944
47.8576
47.9027
47.9749
48.0252
48.0961
48.1494
48.2341
48.3145
48.4392
48.567
48.739
48.9107
49.1236
49.3356
49.5742
49.7976
50.0343
50.2368
50.4532
50.6286
50.8225
50.9775
51.1393
51.253
51.3937
51.5095
51.6539
51.7908
51.9542
52.1023
52.2653
52.4183
52.5671
52.7355
52.9191
53.1258
53.3598
53.6153
53.8047
54.0627
54.2222
54.3273
54.3285
54.41
54.4521
54.4207
54.6567
54.6441
54.9255
54.8836
55.0527
55.1502
55.2182
55.3514
55.5007
55.7221
56.1008
56.1731
56.37
56.3193
56.3677
56.1637
56.3435
56.2577
56.4189
56.3103
56.4598
56.4079
56.4015
56.2134
56.0227
55.71
55.5455
55.0394
54.7884
54.4542
54.0342
53.9091
53.3128
53.1533
52.1611
51.9538
50.932
50.3771
49.6158
48.8993
48.0066
46.7681
45.6299
43.9083
42.3105
40.3671
38.2871
36.0347
49.7224
49.4007
48.2661
47.3591
46.8666
46.7558
46.8783
47.0775
47.2575
47.3813
47.4428
47.4492
47.4158
47.3596
47.2952
47.2329
47.1781
47.1332
47.0981
47.0719
47.0526
47.0386
47.0284
47.0207
47.0145
47.0093
47.0045
46.9997
46.9945
46.9885
46.9814
46.9733
46.9642
46.9543
46.9436
46.9325
46.921
46.9086
46.8945
46.8785
46.8608
46.8415
46.8215
46.802
46.7828
46.7646
46.7481
46.7333
46.719
46.7041
46.6899
46.6793
46.6727
46.6687
46.6662
46.6661
46.6686
46.6733
46.6783
46.6822
46.6864
46.6923
46.6997
46.7078
46.7161
46.7234
46.7287
46.729
46.7223
46.7063
46.6778
46.6373
46.5862
46.5291
46.4783
46.4488
46.4479
46.4724
46.5135
46.5633
46.6128
46.6515
46.6663
46.6502
46.6065
46.5508
46.4695
46.4161
46.3683
46.3573
46.3662
46.4055
46.4659
46.5389
46.6454
46.797
46.9703
47.1463
47.3404
47.5634
47.7829
47.9905
48.1808
48.3303
48.4398
48.5174
48.576
48.6376
48.7089
48.7841
48.8685
48.9591
49.0637
49.1815
49.322
49.4861
49.6724
49.8755
50.0969
50.3354
50.5747
50.8228
51.0588
51.2807
51.4984
51.6999
51.8996
52.087
52.2533
52.4001
52.5474
52.6899
52.8381
52.9984
53.154
53.3207
53.4754
53.6354
53.7804
53.9616
54.1425
54.3732
54.605
54.8702
55.0548
55.353
55.426
55.5613
55.5125
55.6616
55.6839
55.8385
55.9399
56.0474
56.1756
56.2136
56.3529
56.48
56.4927
56.7586
56.824
57.2567
57.3771
57.5274
57.6062
57.6517
57.6762
57.691
57.7303
57.7267
57.7244
57.7756
57.7472
57.7537
57.6388
57.5009
57.1902
57.0888
56.6978
56.4228
56.0169
55.7908
55.3211
55.27
54.4526
54.2686
53.2356
53.1507
51.9687
51.7136
50.731
50.1579
49.088
47.9686
46.7769
45.0424
43.4612
41.5436
39.5793
37.4127
48.8883
48.7213
48.169
47.6986
47.4183
47.3154
47.3262
47.3825
47.4377
47.4694
47.4706
47.4448
47.4005
47.3478
47.2945
47.2457
47.2038
47.1691
47.1409
47.1184
47.1002
47.0857
47.0739
47.0645
47.057
47.0508
47.0455
47.0407
47.0359
47.0309
47.025
47.0182
47.0109
47.0036
46.9961
46.9879
46.9793
46.9707
46.9612
46.9497
46.9363
46.9225
46.9087
46.8947
46.8815
46.8709
46.8627
46.8555
46.8487
46.8419
46.837
46.8357
46.8378
46.8422
46.8489
46.8581
46.8694
46.8823
46.8964
46.9103
46.9228
46.9355
46.9497
46.9656
46.9808
46.993
47.0013
47.0051
47.0026
46.9906
46.9677
46.9355
46.895
46.8506
46.8132
46.7974
46.8103
46.8468
46.8977
46.9532
47.0069
47.0531
47.0796
47.0811
47.0587
47.0347
46.9824
46.9627
46.936
46.9499
46.9715
47.034
47.0891
47.1799