/*--------------------------------*- C++ -*----------------------------------*\
| =========                 |                                                 |
| \\      /  F ield         | OpenFOAM: The Open Source CFD Toolbox           |
|  \\    /   O peration     | Version:  2.4.0                                 |
|   \\  /    A nd           | Web:      www.OpenFOAM.org                      |
|    \\/     M anipulation  |                                                 |
\*---------------------------------------------------------------------------*/
FoamFile
{
    version     2.0;
    format      ascii;
    class       volVectorField;
    location    "1.39";
    object      UMean;
}
// * * * * * * * * * * * * * * * * * * * * * * * * * * * * * * * * * * * * * //

dimensions      [0 1 -1 0 0 0 0];

internalField   nonuniform List<vector> 
8800
(
(8.09329 0.387237 0)
(5.45723 0.242576 0)
(3.92564 0.0429961 0)
(3.16314 -0.0152258 0)
(2.8196 -0.0184168 0)
(2.60349 -0.0108525 0)
(2.5089 -0.00587152 0)
(2.38586 -0.0019801 0)
(2.34957 -0.001789 0)
(2.25649 -0.000177524 0)
(2.25223 -0.00105115 0)
(2.17326 0.000457625 0)
(2.18372 -0.000567191 0)
(2.10687 0.000998517 0)
(2.12116 -0.000205272 0)
(2.04298 0.00145451 0)
(2.05652 -0.000250759 0)
(1.97303 0.000883086 0)
(2.01623 0.007472 0)
(1.74161 -0.0607463 0)
(10.0875 0.83639 0)
(9.65192 0.866495 0)
(8.89314 0.505645 0)
(8.07082 0.261584 0)
(7.52563 0.137014 0)
(6.9899 0.0821067 0)
(6.74298 0.0527054 0)
(6.37968 0.0407682 0)
(6.28642 0.0281905 0)
(6.00399 0.024825 0)
(6.00154 0.0168316 0)
(5.75931 0.0185176 0)
(5.80677 0.013024 0)
(5.57798 0.0174654 0)
(5.64861 0.0128527 0)
(5.41981 0.0175499 0)
(5.50273 0.0164262 0)
(5.25594 0.0103788 0)
(5.38899 0.0307121 0)
(5.03515 -0.0420985 0)
(10.0807 0.629963 0)
(10.6325 0.861843 0)
(10.9062 0.599338 0)
(10.6508 0.37306 0)
(10.507 0.253904 0)
(10.0361 0.196318 0)
(9.90215 0.150647 0)
(9.43927 0.122772 0)
(9.39721 0.0909062 0)
(8.97572 0.0767514 0)
(9.02725 0.0552171 0)
(8.63975 0.0532866 0)
(8.75957 0.0390742 0)
(8.38455 0.0441476 0)
(8.54745 0.0342079 0)
(8.16724 0.0406745 0)
(8.35973 0.0380833 0)
(7.95456 0.033944 0)
(8.18887 0.0446894 0)
(7.74487 -0.0427293 0)
(10.0544 0.456495 0)
(10.5066 0.703877 0)
(11.2391 0.543591 0)
(11.2974 0.352238 0)
(11.6373 0.259405 0)
(11.3723 0.227764 0)
(11.583 0.196719 0)
(11.2044 0.176373 0)
(11.4022 0.142964 0)
(10.9771 0.126786 0)
(11.2017 0.0991996 0)
(10.7552 0.094438 0)
(11.0153 0.0744451 0)
(10.5498 0.0784156 0)
(10.8424 0.0630523 0)
(10.3536 0.0722667 0)
(10.6738 0.0604141 0)
(10.154 0.0723376 0)
(10.4918 0.0514074 0)
(9.94734 0.0471011 0)
(10.1571 0.346055 0)
(10.2924 0.56653 0)
(11.1625 0.457953 0)
(11.1907 0.295417 0)
(11.7747 0.205488 0)
(11.5569 0.194543 0)
(12.0042 0.173718 0)
(11.7012 0.171969 0)
(12.113 0.139224 0)
(11.7682 0.136103 0)
(12.1686 0.102627 0)
(11.7933 0.110893 0)
(12.1883 0.0804915 0)
(11.785 0.100927 0)
(12.1748 0.0691685 0)
(11.7449 0.101439 0)
(12.127 0.0635422 0)
(11.6711 0.11097 0)
(12.0323 0.0493047 0)
(11.543 0.10507 0)
(10.177 0.249695 0)
(10.214 0.456057 0)
(11.0032 0.371993 0)
(11.0889 0.249817 0)
(11.626 0.156012 0)
(11.5193 0.154262 0)
(11.8971 0.13634 0)
(11.7388 0.145481 0)
(12.0733 0.112759 0)
(11.912 0.117448 0)
(12.2253 0.0832429 0)
(12.0634 0.0967174 0)
(12.3566 0.066715 0)
(12.1912 0.0902272 0)
(12.4619 0.0613638 0)
(12.2915 0.0931238 0)
(12.5359 0.0624087 0)
(12.3571 0.102379 0)
(12.5598 0.0567806 0)
(12.3328 0.059473 0)
(10.0676 0.169274 0)
(10.2609 0.358393 0)
(10.7885 0.281157 0)
(11.0848 0.210833 0)
(11.4173 0.109779 0)
(11.5308 0.122413 0)
(11.6978 0.0956898 0)
(11.748 0.123502 0)
(11.8749 0.0779752 0)
(11.926 0.101955 0)
(12.0392 0.0529693 0)
(12.0929 0.085921 0)
(12.1923 0.0382171 0)
(12.2449 0.0827468 0)
(12.3293 0.033251 0)
(12.3784 0.0885095 0)
(12.4463 0.0328963 0)
(12.486 0.0995027 0)
(12.5182 0.0264353 0)
(12.4856 0.0747178 0)
(9.97485 0.105699 0)
(10.2982 0.261336 0)
(10.637 0.193457 0)
(11.0724 0.162672 0)
(11.273 0.070398 0)
(11.527 0.0907806 0)
(11.5654 0.0605631 0)
(11.7366 0.0967408 0)
(11.7394 0.0487403 0)
(11.9077 0.0808956 0)
(11.9044 0.0298935 0)
(12.0716 0.0690918 0)
(12.0602 0.0186466 0)
(12.2223 0.0670062 0)
(12.2012 0.0147773 0)
(12.3559 0.0714783 0)
(12.324 0.013723 0)
(12.4655 0.0787601 0)
(12.4032 0.00578771 0)
(12.4477 0.0573616 0)
(9.91602 0.0567954 0)
(10.3217 0.160239 0)
(10.5385 0.112542 0)
(11.0636 0.102801 0)
(11.1781 0.0378537 0)
(11.5251 0.0574263 0)
(11.4786 0.0321155 0)
(11.7309 0.0630132 0)
(11.6495 0.0256905 0)
(11.8985 0.0527886 0)
(11.8145 0.0137217 0)
(12.0619 0.0451362 0)
(11.9715 0.00683551 0)
(12.2132 0.0430717 0)
(12.1134 0.00416161 0)
(12.3479 0.0441476 0)
(12.2376 0.00233866 0)
(12.4583 0.0439891 0)
(12.3127 -0.00919781 0)
(12.4251 0.00395629 0)
(9.90129 0.0111024 0)
(10.3209 0.0638444 0)
(10.5048 0.0287917 0)
(11.0482 0.0443556 0)
(11.1481 0.00320761 0)
(11.5148 0.0293175 0)
(11.4555 0.000821903 0)
(11.7198 0.0323659 0)
(11.6271 -0.00161497 0)
(11.887 0.0288831 0)
(11.7941 -0.00648923 0)
(12.0522 0.0261745 0)
(11.9536 -0.0098743 0)
(12.2059 0.0248808 0)
(12.098 -0.0128017 0)
(12.3438 0.0232172 0)
(12.2243 -0.017315 0)
(12.4571 0.0176838 0)
(12.2988 -0.0307582 0)
(12.4234 -0.0119708 0)
(9.92281 -0.0290367 0)
(10.3009 -0.0365694 0)
(10.5277 -0.0521894 0)
(11.0317 -0.0193063 0)
(11.1727 -0.0277457 0)
(11.501 -0.00372421 0)
(11.4821 -0.0265235 0)
(11.7088 -0.00427677 0)
(11.6556 -0.025299 0)
(11.879 -0.000686951 0)
(11.8247 -0.0225856 0)
(12.0472 0.00158207 0)
(11.9864 -0.0228595 0)
(12.2042 0.000590562 0)
(12.133 -0.0263247 0)
(12.3458 -0.00398705 0)
(12.2617 -0.0336032 0)
(12.4626 -0.0133054 0)
(12.3378 -0.0466018 0)
(12.4296 -0.0323749 0)
(9.95787 -0.0732968 0)
(10.2811 -0.136511 0)
(10.584 -0.134243 0)
(11.0289 -0.081265 0)
(11.2292 -0.0599131 0)
(11.4951 -0.0356131 0)
(11.5359 -0.0551452 0)
(11.7056 -0.03924 0)
(11.7124 -0.0498979 0)
(11.8787 -0.0289161 0)
(11.8833 -0.0399725 0)
(12.0482 -0.0217563 0)
(12.0464 -0.0369664 0)
(12.2061 -0.0222138 0)
(12.1949 -0.0409531 0)
(12.348 -0.0296058 0)
(12.3255 -0.0511256 0)
(12.4648 -0.0431621 0)
(12.404 -0.0642117 0)
(12.4307 -0.0516732 0)
(9.98479 -0.121778 0)
(10.2825 -0.240214 0)
(10.6542 -0.214572 0)
(11.0574 -0.143208 0)
(11.2976 -0.0913959 0)
(11.5134 -0.070114 0)
(11.5968 -0.0829619 0)
(11.7253 -0.0743535 0)
(11.7767 -0.0729829 0)
(11.8999 -0.0577727 0)
(11.9481 -0.0567861 0)
(12.0683 -0.0458437 0)
(12.1109 -0.0504398 0)
(12.2243 -0.0451209 0)
(12.2589 -0.0549332 0)
(12.3641 -0.0545642 0)
(12.3891 -0.0688954 0)
(12.4787 -0.0726654 0)
(12.4692 -0.0860269 0)
(12.4469 -0.070284 0)
(10.0176 -0.181339 0)
(10.2947 -0.344353 0)
(10.7527 -0.296852 0)
(11.1092 -0.198166 0)
(11.3908 -0.12539 0)
(11.5518 -0.108251 0)
(11.6779 -0.112 0)
(11.767 -0.109347 0)
(11.8601 -0.0959082 0)
(11.9447 -0.0873151 0)
(12.0298 -0.0736969 0)
(12.1125 -0.071399 0)
(12.1888 -0.0637494 0)
(12.2662 -0.0695317 0)
(12.3317 -0.0675598 0)
(12.4021 -0.0803187 0)
(12.4546 -0.084395 0)
(12.5109 -0.10382 0)
(12.5281 -0.108234 0)
(12.4803 -0.100237 0)
(10.0572 -0.256799 0)
(10.3144 -0.448597 0)
(10.8937 -0.38084 0)
(11.177 -0.243816 0)
(11.524 -0.164534 0)
(11.6018 -0.147507 0)
(11.7987 -0.144279 0)
(11.8174 -0.140562 0)
(11.9768 -0.121121 0)
(11.9886 -0.113581 0)
(12.1306 -0.0929766 0)
(12.1392 -0.0948462 0)
(12.2632 -0.07901 0)
(12.2662 -0.0920166 0)
(12.3684 -0.0796797 0)
(12.3641 -0.103105 0)
(12.4388 -0.0953704 0)
(12.4211 -0.131401 0)
(12.4443 -0.124651 0)
(12.3371 -0.139408 0)
(10.0524 -0.350885 0)
(10.3908 -0.560697 0)
(11.048 -0.463652 0)
(11.2941 -0.290334 0)
(11.6566 -0.211949 0)
(11.6612 -0.18857 0)
(11.8802 -0.180232 0)
(11.8074 -0.167071 0)
(11.9816 -0.146831 0)
(11.8768 -0.131764 0)
(12.0283 -0.111838 0)
(11.9042 -0.1079 0)
(12.0361 -0.0924805 0)
(11.8966 -0.100979 0)
(12.0047 -0.087182 0)
(11.8525 -0.108678 0)
(11.9263 -0.0967489 0)
(11.7599 -0.137537 0)
(11.7667 -0.125298 0)
(11.537 -0.162133 0)
(10.0051 -0.459267 0)
(10.5582 -0.70081 0)
(11.1695 -0.545885 0)
(11.3647 -0.350287 0)
(11.5592 -0.262952 0)
(11.4459 -0.225253 0)
(11.4956 -0.200348 0)
(11.2827 -0.174357 0)
(11.3048 -0.147273 0)
(11.0582 -0.125388 0)
(11.0929 -0.104079 0)
(10.8366 -0.0949967 0)
(10.8913 -0.0801705 0)
(10.628 -0.0836826 0)
(10.6941 -0.0706744 0)
(10.4206 -0.0882495 0)
(10.4802 -0.0745492 0)
(10.1889 -0.11629 0)
(10.1963 -0.0958537 0)
(9.85857 -0.160133 0)
(10.06 -0.632617 0)
(10.654 -0.859267 0)
(10.8673 -0.60045 0)
(10.6886 -0.371845 0)
(10.4598 -0.256277 0)
(10.0811 -0.194782 0)
(9.84583 -0.153189 0)
(9.48796 -0.121042 0)
(9.33325 -0.0941016 0)
(9.02436 -0.0751825 0)
(8.95617 -0.0591023 0)
(8.68394 -0.0526618 0)
(8.67888 -0.044065 0)
(8.41815 -0.0462891 0)
(8.44897 -0.0410101 0)
(8.17935 -0.0507328 0)
(8.21947 -0.0484483 0)
(7.92101 -0.070123 0)
(7.92398 -0.0710852 0)
(7.57594 -0.0893895 0)
(10.0809 -0.837719 0)
(9.65633 -0.864976 0)
(8.87556 -0.50593 0)
(8.08925 -0.260993 0)
(7.50159 -0.138347 0)
(7.01325 -0.0814871 0)
(6.71102 -0.0538608 0)
(6.40558 -0.039965 0)
(6.24938 -0.029667 0)
(6.02861 -0.0241324 0)
(5.96059 -0.0186284 0)
(5.77791 -0.0183321 0)
(5.76053 -0.0153573 0)
(5.58402 -0.0186641 0)
(5.59055 -0.0163602 0)
(5.40093 -0.0230992 0)
(5.41077 -0.0221094 0)
(5.18727 -0.0329169 0)
(5.17621 -0.0384252 0)
(4.88031 -0.0198101 0)
(8.09166 -0.387583 0)
(5.45559 -0.242102 0)
(3.92208 -0.0432014 0)
(3.16931 0.0152787 0)
(2.81296 0.0180523 0)
(2.6099 0.0111118 0)
(2.49853 0.00561611 0)
(2.39301 0.00226689 0)
(2.33736 0.00148407 0)
(2.26284 0.000416217 0)
(2.23792 0.000717876 0)
(2.17655 -0.000261116 0)
(2.16637 0.000197619 0)
(2.10306 -0.0011096 0)
(2.09663 -0.00032394 0)
(2.02337 -0.00229799 0)
(2.01123 -0.00113126 0)
(1.91935 -0.00385237 0)
(1.88147 -0.00427637 0)
(1.72935 0.0113885 0)
(2.25775 -0.108152 0)
(2.32257 -0.0208121 0)
(2.55627 -0.00706719 0)
(2.64389 -0.0169809 0)
(2.86757 -0.0372909 0)
(2.91823 -0.0436497 0)
(3.10963 -0.050914 0)
(3.12085 -0.0451803 0)
(3.28258 -0.0490836 0)
(3.26949 -0.0468503 0)
(3.42263 -0.0531437 0)
(3.39737 -0.0522428 0)
(3.5528 -0.0610092 0)
(3.52338 -0.0612917 0)
(3.6822 -0.0704088 0)
(3.65 -0.0705898 0)
(3.81485 -0.0796373 0)
(3.7815 -0.0797941 0)
(3.95819 -0.0886465 0)
(3.9251 -0.0869463 0)
(4.10863 -0.0980565 0)
(4.07023 -0.100084 0)
(4.25602 -0.114437 0)
(4.20903 -0.118552 0)
(4.39501 -0.135377 0)
(4.33762 -0.140932 0)
(4.52296 -0.157713 0)
(4.45516 -0.160131 0)
(4.64206 -0.173392 0)
(4.57029 -0.172554 0)
(4.76377 -0.186203 0)
(4.6951 -0.187152 0)
(4.89768 -0.204043 0)
(4.82983 -0.206932 0)
(5.03632 -0.224877 0)
(4.96344 -0.227177 0)
(5.17266 -0.24436 0)
(5.09364 -0.245062 0)
(5.30818 -0.262181 0)
(5.22342 -0.26351 0)
(5.44346 -0.282717 0)
(5.35287 -0.286917 0)
(5.57614 -0.310768 0)
(5.47729 -0.317963 0)
(5.6995 -0.34425 0)
(5.58948 -0.350713 0)
(5.81057 -0.376301 0)
(5.6918 -0.378262 0)
(5.9145 -0.401847 0)
(5.79191 -0.398301 0)
(6.01885 -0.41908 0)
(5.8947 -0.409863 0)
(6.13157 -0.427293 0)
(6.00385 -0.414191 0)
(6.25739 -0.430808 0)
(6.12216 -0.416445 0)
(6.39646 -0.43413 0)
(6.24946 -0.419949 0)
(6.54296 -0.438926 0)
(6.38045 -0.425865 0)
(6.69068 -0.449086 0)
(6.51921 -0.439757 0)
(6.84228 -0.470887 0)
(6.67268 -0.467549 0)
(6.99641 -0.508604 0)
(6.83271 -0.510624 0)
(7.14306 -0.556787 0)
(6.97662 -0.560849 0)
(7.27135 -0.605151 0)
(7.09525 -0.606188 0)
(7.38424 -0.649456 0)
(7.19773 -0.643292 0)
(7.48733 -0.682177 0)
(7.29079 -0.668793 0)
(7.59471 -0.705161 0)
(7.39145 -0.686472 0)
(7.7157 -0.721384 0)
(7.51287 -0.699491 0)
(7.85668 -0.73817 0)
(7.65553 -0.713367 0)
(8.01785 -0.755164 0)
(7.8128 -0.727651 0)
(8.1915 -0.768384 0)
(7.97723 -0.741882 0)
(8.36809 -0.785484 0)
(8.15083 -0.761187 0)
(8.53492 -0.814245 0)
(8.32962 -0.793074 0)
(8.6891 -0.853057 0)
(8.49799 -0.834297 0)
(8.82959 -0.895623 0)
(8.64727 -0.875598 0)
(8.9504 -0.935494 0)
(8.77043 -0.914416 0)
(9.05177 -0.974256 0)
(8.87558 -0.94914 0)
(9.13871 -1.00674 0)
(8.96888 -0.978618 0)
(9.2214 -1.03413 0)
(9.06836 -1.00566 0)
(9.31331 -1.06264 0)
(9.17523 -1.0324 0)
(9.41664 -1.0941 0)
(9.28549 -1.05842 0)
(9.51892 -1.11751 0)
(9.38479 -1.07017 0)
(9.60503 -1.13098 0)
(9.45733 -1.07761 0)
(9.66614 -1.13944 0)
(9.50374 -1.07743 0)
(9.70133 -1.13828 0)
(9.52495 -1.0701 0)
(9.70344 -1.1269 0)
(9.52113 -1.05253 0)
(9.68418 -1.10853 0)
(9.51615 -1.0291 0)
(9.67079 -1.08152 0)
(9.522 -0.998908 0)
(9.66353 -1.04875 0)
(9.52603 -0.962452 0)
(9.6575 -1.0079 0)
(9.53024 -0.92112 0)
(9.6577 -0.967628 0)
(9.5307 -0.880359 0)
(9.65542 -0.929395 0)
(9.51544 -0.841731 0)
(9.65105 -0.888134 0)
(9.48904 -0.794686 0)
(9.6409 -0.835554 0)
(9.46207 -0.739515 0)
(9.62093 -0.776526 0)
(9.43878 -0.680935 0)
(9.58954 -0.718009 0)
(9.41668 -0.622667 0)
(9.55241 -0.661756 0)
(9.39223 -0.564729 0)
(9.50953 -0.599457 0)
(9.36164 -0.498565 0)
(9.47002 -0.530224 0)
(9.33637 -0.43232 0)
(9.43311 -0.465861 0)
(9.31346 -0.370593 0)
(9.38917 -0.396569 0)
(9.28998 -0.307747 0)
(9.34547 -0.331993 0)
(9.26555 -0.247908 0)
(9.29054 -0.257708 0)
(9.23305 -0.173969 0)
(9.22781 -0.181049 0)
(9.19987 -0.0965957 0)
(9.16047 -0.102971 0)
(9.1597 -0.0130026 0)
(9.09895 -0.0110685 0)
(9.11654 0.079341 0)
(9.04187 0.0793632 0)
(9.07449 0.179198 0)
(8.99441 0.184228 0)
(9.01703 0.280213 0)
(8.95179 0.286419 0)
(8.96339 0.386463 0)
(8.91283 0.372817 0)
(8.90208 0.480924 0)
(8.88122 0.458719 0)
(8.82845 0.570341 0)
(8.83958 0.542368 0)
(8.74698 0.6653 0)
(8.80246 0.62758 0)
(8.66336 0.758167 0)
(8.75827 0.71717 0)
(8.57391 0.862881 0)
(8.69027 0.799803 0)
(8.45813 0.961631 0)
(8.61719 0.890225 0)
(8.29885 1.07211 0)
(8.53905 0.985378 0)
(8.13168 1.21183 0)
(8.46148 1.09165 0)
(7.96203 1.35643 0)
(8.39343 1.20024 0)
(7.81901 1.51806 0)
(8.30952 1.32903 0)
(7.69185 1.69011 0)
(8.21435 1.47903 0)
(7.56653 1.871 0)
(8.08261 1.64337 0)
(7.43193 2.05765 0)
(7.90493 1.83869 0)
(7.27286 2.26373 0)
(7.70781 2.08056 0)
(7.07504 2.50319 0)
(7.49721 2.37278 0)
(6.82358 2.79929 0)
(7.2266 2.74292 0)
(6.51556 3.20821 0)
(6.83096 3.22093 0)
(6.15354 3.886 0)
(6.32149 3.94805 0)
(5.47406 5.02688 0)
(6.42393 5.59656 0)
(4.09319 8.54969 0)
(5.31336 -0.0710336 0)
(5.24733 -0.0375713 0)
(5.35913 -0.0431355 0)
(5.32748 -0.0646112 0)
(5.4992 -0.0943366 0)
(5.48318 -0.104619 0)
(5.65269 -0.111441 0)
(5.6074 -0.102864 0)
(5.75564 -0.101776 0)
(5.68417 -0.0947029 0)
(5.82867 -0.0997746 0)
(5.74877 -0.0983769 0)
(5.90311 -0.108118 0)
(5.82261 -0.108682 0)
(5.98867 -0.119126 0)
(5.90671 -0.119384 0)
(6.08266 -0.129805 0)
(5.99724 -0.129234 0)
(6.18155 -0.140023 0)
(6.09259 -0.138987 0)
(6.2839 -0.150849 0)
(6.18982 -0.151626 0)
(6.38541 -0.165798 0)
(6.2836 -0.168011 0)
(6.48294 -0.184039 0)
(6.37278 -0.186867 0)
(6.57666 -0.203013 0)
(6.45865 -0.204167 0)
(6.66777 -0.219376 0)
(6.54335 -0.219108 0)
(6.76006 -0.234843 0)
(6.6313 -0.235196 0)
(6.85682 -0.253381 0)
(6.72303 -0.254778 0)
(6.95482 -0.274087 0)
(6.81358 -0.274297 0)
(7.04951 -0.293098 0)
(6.90086 -0.291654 0)
(7.14042 -0.310903 0)
(6.986 -0.30958 0)
(7.22927 -0.331222 0)
(7.07092 -0.331609 0)
(7.31759 -0.356817 0)
(7.15533 -0.358928 0)
(7.40464 -0.386334 0)
(7.23663 -0.387839 0)
(7.488 -0.415358 0)
(7.31277 -0.414141 0)
(7.56715 -0.44013 0)
(7.3834 -0.435203 0)
(7.64441 -0.458421 0)
(7.44962 -0.449167 0)
(7.72244 -0.469777 0)
(7.51494 -0.456633 0)
(7.80363 -0.476331 0)
(7.58415 -0.461084 0)
(7.8903 -0.481737 0)
(7.66155 -0.466782 0)
(7.98407 -0.490418 0)
(7.74977 -0.477094 0)
(8.0846 -0.505368 0)
(7.84855 -0.495057 0)
(8.19015 -0.529941 0)
(7.95556 -0.523765 0)
(8.29685 -0.56539 0)
(8.06582 -0.562276 0)
(8.40021 -0.606758 0)
(8.1703 -0.604861 0)
(8.49895 -0.651108 0)
(8.26601 -0.648394 0)
(8.5928 -0.691736 0)
(8.35132 -0.682364 0)
(8.68237 -0.722935 0)
(8.43352 -0.708047 0)
(8.77199 -0.749211 0)
(8.52156 -0.728635 0)
(8.86639 -0.771572 0)
(8.61979 -0.747373 0)
(8.96859 -0.792709 0)
(8.72614 -0.767175 0)
(9.08166 -0.813612 0)
(8.83978 -0.784714 0)
(9.2005 -0.832461 0)
(8.96213 -0.800742 0)
(9.3176 -0.850486 0)
(9.09069 -0.820358 0)
(9.43155 -0.87676 0)
(9.21994 -0.849302 0)
(9.5372 -0.910764 0)
(9.3388 -0.885625 0)
(9.63368 -0.946975 0)
(9.44206 -0.918717 0)
(9.71361 -0.979452 0)
(9.52446 -0.949945 0)
(9.7759 -1.01003 0)
(9.58997 -0.978027 0)
(9.82591 -1.03747 0)
(9.64747 -1.00549 0)
(9.87613 -1.06711 0)
(9.71 -1.03615 0)
(9.9321 -1.10106 0)
(9.7784 -1.06714 0)
(9.99468 -1.13481 0)
(9.8398 -1.09094 0)
(10.0501 -1.14918 0)
(9.8854 -1.09571 0)
(10.0881 -1.15173 0)
(9.91095 -1.09314 0)
(10.1023 -1.15275 0)
(9.91415 -1.08578 0)
(10.0916 -1.14098 0)
(9.89405 -1.06293 0)
(10.0547 -1.11741 0)
(9.85686 -1.03922 0)
(10.0128 -1.09829 0)
(9.82577 -1.01929 0)
(9.97733 -1.07774 0)
(9.79964 -0.991693 0)
(9.94788 -1.04471 0)
(9.76997 -0.955906 0)
(9.92347 -1.00509 0)
(9.73857 -0.915558 0)
(9.9026 -0.964283 0)
(9.70695 -0.869407 0)
(9.88055 -0.92206 0)
(9.66528 -0.82362 0)
(9.85332 -0.880079 0)
(9.61686 -0.776711 0)
(9.82117 -0.827379 0)
(9.56759 -0.720995 0)
(9.77986 -0.770028 0)
(9.51829 -0.661694 0)
(9.73124 -0.708944 0)
(9.47172 -0.601955 0)
(9.67918 -0.648298 0)
(9.41613 -0.540193 0)
(9.62165 -0.584817 0)
(9.36294 -0.479847 0)
(9.56936 -0.520747 0)
(9.32116 -0.417908 0)
(9.5231 -0.456827 0)
(9.27946 -0.353464 0)
(9.47534 -0.388875 0)
(9.23553 -0.286118 0)
(9.42785 -0.322471 0)
(9.1867 -0.218277 0)
(9.37311 -0.244897 0)
(9.13948 -0.144659 0)
(9.31694 -0.167235 0)
(9.10743 -0.0680365 0)
(9.25492 -0.0856955 0)
(9.07319 0.013797 0)
(9.18935 -0.00117407 0)
(9.03494 0.105126 0)
(9.13417 0.088602 0)
(8.98888 0.203995 0)
(9.08843 0.18857 0)
(8.93818 0.310344 0)
(9.05456 0.285513 0)
(8.89292 0.421337 0)
(9.02835 0.369466 0)
(8.83698 0.520927 0)
(9.00237 0.457191 0)
(8.78484 0.614656 0)
(8.9738 0.536748 0)
(8.73935 0.70886 0)
(8.94315 0.612066 0)
(8.69035 0.813527 0)
(8.89044 0.695969 0)
(8.62628 0.934089 0)
(8.8503 0.784582 0)
(8.51479 1.04897 0)
(8.8105 0.882859 0)
(8.37631 1.1772 0)
(8.75108 0.973019 0)
(8.22895 1.31301 0)
(8.70642 1.06725 0)
(8.08941 1.45553 0)
(8.66802 1.16988 0)
(7.96117 1.61322 0)
(8.62959 1.30783 0)
(7.8524 1.78476 0)
(8.56829 1.47125 0)
(7.75632 1.96562 0)
(8.48038 1.65375 0)
(7.64338 2.15074 0)
(8.37765 1.85955 0)
(7.49619 2.36132 0)
(8.2599 2.10025 0)
(7.34299 2.63347 0)
(8.10071 2.3899 0)
(7.20732 2.99157 0)
(7.87652 2.74656 0)
(7.05493 3.48835 0)
(7.61112 3.23454 0)
(6.76584 4.19188 0)
(7.60435 4.04494 0)
(6.07778 5.44228 0)
(8.54086 4.88967 0)
(6.52243 9.05 0)
(7.99146 -0.0866694 0)
(7.88794 -0.0724272 0)
(8.00428 -0.0870867 0)
(7.92898 -0.101294 0)
(8.10169 -0.122324 0)
(8.04283 -0.124094 0)
(8.21264 -0.128169 0)
(8.12073 -0.116931 0)
(8.26823 -0.11674 0)
(8.14949 -0.108119 0)
(8.29528 -0.115123 0)
(8.17087 -0.113507 0)
(8.32915 -0.126614 0)
(8.20592 -0.128062 0)
(8.37764 -0.142739 0)
(8.25417 -0.143485 0)
(8.43612 -0.157344 0)
(8.30922 -0.156259 0)
(8.49777 -0.169406 0)
(8.36553 -0.167568 0)
(8.55922 -0.181487 0)
(8.42128 -0.180554 0)
(8.61964 -0.196187 0)
(8.47555 -0.196248 0)
(8.67872 -0.213322 0)
(8.5286 -0.213708 0)
(8.73699 -0.231195 0)
(8.58089 -0.230753 0)
(8.79446 -0.247979 0)
(8.63148 -0.246628 0)
(8.85041 -0.264393 0)
(8.68036 -0.263354 0)
(8.90509 -0.282862 0)
(8.72737 -0.282408 0)
(8.95737 -0.303027 0)
(8.77148 -0.301716 0)
(9.0068 -0.322235 0)
(8.81398 -0.319282 0)
(9.05483 -0.340196 0)
(8.85695 -0.336639 0)
(9.10337 -0.359674 0)
(8.90269 -0.357145 0)
(9.1539 -0.383551 0)
(8.95066 -0.382447 0)
(9.2052 -0.411284 0)
(8.99773 -0.41013 0)
(9.2544 -0.439175 0)
(9.03973 -0.435871 0)
(9.29898 -0.463136 0)
(9.07449 -0.456199 0)
(9.33898 -0.4808 0)
(9.10323 -0.46969 0)
(9.37591 -0.492373 0)
(9.1294 -0.477696 0)
(9.41212 -0.500444 0)
(9.15862 -0.483942 0)
(9.45159 -0.509445 0)
(9.19715 -0.493234 0)
(9.49788 -0.523112 0)
(9.24723 -0.50797 0)
(9.55021 -0.541356 0)
(9.30472 -0.527955 0)
(9.60526 -0.565168 0)
(9.36329 -0.555504 0)
(9.66006 -0.596923 0)
(9.41783 -0.590669 0)
(9.71327 -0.636316 0)
(9.46994 -0.63261 0)
(9.76869 -0.681457 0)
(9.52029 -0.676145 0)
(9.82065 -0.72291 0)
(9.56646 -0.711328 0)
(9.87095 -0.754311 0)
(9.6119 -0.738448 0)
(9.9214 -0.781491 0)
(9.65941 -0.761174 0)
(9.97164 -0.80528 0)
(9.71143 -0.781388 0)
(10.0249 -0.82886 0)
(9.77206 -0.803858 0)
(10.0848 -0.852249 0)
(9.84082 -0.82353 0)
(10.1502 -0.872825 0)
(9.91651 -0.838824 0)
(10.2155 -0.889954 0)
(9.99595 -0.8577 0)
(10.2784 -0.911923 0)
(10.0688 -0.882505 0)
(10.3343 -0.941826 0)
(10.132 -0.914631 0)
(10.38 -0.972366 0)
(10.1818 -0.941709 0)
(10.4092 -0.999898 0)
(10.2156 -0.967026 0)
(10.4236 -1.02504 0)
(10.2391 -0.990846 0)
(10.4263 -1.05162 0)
(10.2571 -1.01859 0)
(10.433 -1.08393 0)
(10.2777 -1.05115 0)
(10.4427 -1.12045 0)
(10.2963 -1.08356 0)
(10.4478 -1.15272 0)
(10.3006 -1.10274 0)
(10.4435 -1.16134 0)
(10.295 -1.10163 0)
(10.4287 -1.1578 0)
(10.2809 -1.0909 0)
(10.3978 -1.14659 0)
(10.2463 -1.06992 0)
(10.3404 -1.12267 0)
(10.1899 -1.03805 0)
(10.27 -1.0952 0)
(10.1383 -1.01664 0)
(10.2109 -1.07958 0)
(10.0884 -0.997174 0)
(10.1448 -1.05899 0)
(10.0275 -0.969323 0)
(10.0803 -1.02928 0)
(9.96755 -0.933133 0)
(10.0265 -0.992998 0)
(9.91138 -0.890985 0)
(9.97713 -0.952367 0)
(9.85596 -0.843943 0)
(9.9287 -0.908245 0)
(9.79846 -0.79572 0)
(9.87637 -0.864878 0)
(9.73342 -0.746651 0)
(9.81311 -0.812037 0)
(9.66287 -0.685874 0)
(9.74347 -0.751184 0)
(9.58291 -0.622801 0)
(9.67842 -0.691827 0)
(9.50462 -0.563196 0)
(9.61266 -0.628332 0)
(9.42292 -0.499606 0)
(9.54396 -0.568628 0)
(9.35047 -0.445377 0)
(9.47741 -0.50955 0)
(9.28365 -0.385401 0)
(9.41648 -0.450725 0)
(9.22637 -0.316734 0)
(9.34931 -0.381781 0)
(9.16946 -0.247038 0)
(9.29076 -0.314301 0)
(9.11599 -0.175089 0)
(9.23589 -0.235138 0)
(9.06628 -0.0996246 0)
(9.18951 -0.161939 0)
(9.032 -0.02485 0)
(9.13915 -0.0849559 0)
(9.01414 0.062525 0)
(9.08646 -0.00773838 0)
(8.97994 0.15054 0)
(9.045 0.083601 0)
(8.93337 0.256172 0)
(9.00035 0.174415 0)
(8.88965 0.361205 0)
(8.96287 0.266443 0)
(8.8453 0.469266 0)
(8.9343 0.359306 0)
(8.80109 0.569417 0)
(8.91007 0.439799 0)
(8.77484 0.659742 0)
(8.89118 0.515157 0)
(8.74817 0.757379 0)
(8.86446 0.595545 0)
(8.71359 0.871445 0)
(8.83986 0.688986 0)
(8.64776 0.992374 0)
(8.84001 0.781583 0)
(8.54281 1.12302 0)
(8.83798 0.882049 0)
(8.41157 1.26691 0)
(8.84442 0.976582 0)
(8.26692 1.4014 0)
(8.856 1.06143 0)
(8.13992 1.53729 0)
(8.85297 1.16157 0)
(8.02714 1.68527 0)
(8.83394 1.28793 0)
(7.94324 1.86079 0)
(8.79856 1.44672 0)
(7.86001 2.05579 0)
(8.75407 1.62797 0)
(7.76602 2.26947 0)
(8.69046 1.82285 0)
(7.68073 2.51531 0)
(8.58405 2.04123 0)
(7.62282 2.80696 0)
(8.45465 2.3188 0)
(7.5644 3.18415 0)
(8.37135 2.68667 0)
(7.43768 3.67374 0)
(8.48897 3.19601 0)
(7.1161 4.42415 0)
(9.05178 3.71599 0)
(6.79772 6.00204 0)
(9.805 3.76481 0)
(8.18392 8.3358 0)
(10.2288 -0.105355 0)
(10.1113 -0.164634 0)
(10.2426 -0.202621 0)
(10.1472 -0.196315 0)
(10.3199 -0.189786 0)
(10.2308 -0.163433 0)
(10.3948 -0.153443 0)
(10.2735 -0.131937 0)
(10.4184 -0.131291 0)
(10.2754 -0.119067 0)
(10.42 -0.128301 0)
(10.2729 -0.124158 0)
(10.4284 -0.140477 0)
(10.2828 -0.140075 0)
(10.4497 -0.158542 0)
(10.304 -0.157497 0)
(10.4791 -0.174935 0)
(10.33 -0.171574 0)
(10.5106 -0.187739 0)
(10.3569 -0.182969 0)
(10.5422 -0.199358 0)
(10.3834 -0.19479 0)
(10.5729 -0.21273 0)
(10.4088 -0.208997 0)
(10.602 -0.228535 0)
(10.4329 -0.225189 0)
(10.6292 -0.245508 0)
(10.4553 -0.24157 0)
(10.6542 -0.261985 0)
(10.4756 -0.257238 0)
(10.6764 -0.277967 0)
(10.4932 -0.272995 0)
(10.6958 -0.294697 0)
(10.5078 -0.290123 0)
(10.7125 -0.312862 0)
(10.5195 -0.308176 0)
(10.7274 -0.331411 0)
(10.5298 -0.326394 0)
(10.743 -0.350446 0)
(10.5412 -0.345418 0)
(10.7609 -0.371215 0)
(10.5548 -0.367228 0)
(10.7808 -0.395711 0)
(10.5694 -0.392694 0)
(10.8003 -0.423139 0)
(10.5819 -0.419558 0)
(10.8161 -0.450037 0)
(10.59 -0.443602 0)
(10.8265 -0.472333 0)
(10.5935 -0.461506 0)
(10.8321 -0.487934 0)
(10.594 -0.472741 0)
(10.8345 -0.497534 0)
(10.5938 -0.479526 0)
(10.8366 -0.505028 0)
(10.5976 -0.486722 0)
(10.8424 -0.515491 0)
(10.6074 -0.498175 0)
(10.8522 -0.530421 0)
(10.6203 -0.513903 0)
(10.8626 -0.549328 0)
(10.6327 -0.534167 0)
(10.8711 -0.57323 0)
(10.6427 -0.560472 0)
(10.8764 -0.603283 0)
(10.649 -0.594704 0)
(10.8812 -0.643656 0)
(10.6544 -0.639298 0)
(10.8868 -0.689438 0)
(10.6567 -0.682421 0)
(10.889 -0.730976 0)
(10.6532 -0.718306 0)
(10.8877 -0.76301 0)
(10.6508 -0.746774 0)
(10.8857 -0.789935 0)
(10.6473 -0.770543 0)
(10.8835 -0.813622 0)
(10.6503 -0.793409 0)
(10.8895 -0.840494 0)
(10.6675 -0.81879 0)
(10.904 -0.865222 0)
(10.6943 -0.84086 0)
(10.9222 -0.885238 0)
(10.723 -0.856345 0)
(10.9412 -0.903012 0)
(10.7505 -0.87362 0)
(10.9556 -0.922084 0)
(10.7713 -0.89844 0)
(10.9655 -0.950647 0)
(10.7863 -0.925694 0)
(10.9632 -0.975711 0)
(10.7871 -0.945023 0)
(10.9454 -0.996443 0)
(10.7755 -0.964009 0)
(10.9187 -1.01821 0)
(10.7576 -0.984769 0)
(10.8843 -1.04518 0)
(10.736 -1.01433 0)
(10.8516 -1.07965 0)
(10.7101 -1.04653 0)
(10.8174 -1.11391 0)
(10.6762 -1.07484 0)
(10.7735 -1.14289 0)
(10.6342 -1.09082 0)
(10.7254 -1.15181 0)
(10.5883 -1.08936 0)
(10.6701 -1.14632 0)
(10.534 -1.07167 0)
(10.5993 -1.12486 0)
(10.4622 -1.04039 0)
(10.5052 -1.08936 0)
(10.3753 -1.00601 0)
(10.416 -1.06911 0)
(10.306 -0.990915 0)
(10.3299 -1.0521 0)
(10.2249 -0.965141 0)
(10.2313 -1.02548 0)
(10.129 -0.933532 0)
(10.1275 -0.999427 0)
(10.0366 -0.897162 0)
(10.0379 -0.968419 0)
(9.95119 -0.856765 0)
(9.96345 -0.928668 0)
(9.86931 -0.814004 0)
(9.89472 -0.886404 0)
(9.79033 -0.769521 0)
(9.81805 -0.839162 0)
(9.70622 -0.713408 0)
(9.72943 -0.780379 0)
(9.61527 -0.649326 0)
(9.63796 -0.718534 0)
(9.51858 -0.587086 0)
(9.55193 -0.661133 0)
(9.42011 -0.52562 0)
(9.46928 -0.597575 0)
(9.32028 -0.463671 0)
(9.39166 -0.540866 0)
(9.22468 -0.410038 0)
(9.31059 -0.485616 0)
(9.13515 -0.351194 0)
(9.2354 -0.429724 0)
(9.0497 -0.278053 0)
(9.16075 -0.361263 0)
(8.97831 -0.210145 0)
(9.1063 -0.301391 0)
(8.9207 -0.137817 0)
(9.05542 -0.228316 0)
(8.87512 -0.0676094 0)
(9.02472 -0.164173 0)
(8.83958 0.00297916 0)
(9.00183 -0.0961584 0)
(8.8101 0.0910202 0)
(8.99214 -0.010804 0)
(8.76202 0.181777 0)
(8.97551 0.0820429 0)
(8.72139 0.292748 0)
(8.93867 0.174753 0)
(8.68492 0.407615 0)
(8.90633 0.270112 0)
(8.63304 0.502009 0)
(8.89155 0.348868 0)
(8.60081 0.59954 0)
(8.89566 0.41454 0)
(8.55869 0.687378 0)
(8.91868 0.492197 0)
(8.50725 0.78917 0)
(8.92707 0.575132 0)
(8.45101 0.908777 0)
(8.94865 0.669036 0)
(8.38631 1.04077 0)
(8.97062 0.756047 0)
(8.30951 1.18868 0)
(8.99629 0.849506 0)
(8.2106 1.33167 0)
(9.03396 0.935596 0)
(8.1271 1.46125 0)
(9.038 1.02461 0)
(8.07246 1.5963 0)
(9.01294 1.12917 0)
(8.03283 1.7516 0)
(8.97618 1.24896 0)
(7.99981 1.94018 0)
(8.9514 1.39531 0)
(7.96965 2.15195 0)
(8.92505 1.56313 0)
(7.95067 2.38285 0)
(8.89137 1.74834 0)
(7.93639 2.63458 0)
(8.878 1.97546 0)
(7.88903 2.93568 0)
(8.92029 2.24789 0)
(7.79851 3.32781 0)
(9.09655 2.57913 0)
(7.62072 3.8716 0)
(9.50737 2.88511 0)
(7.44005 4.80535 0)
(10.1372 2.99262 0)
(7.76195 6.25852 0)
(10.3974 3.17487 0)
(9.17904 7.32215 0)
(11.7221 -0.0893457 0)
(11.6361 -0.183448 0)
(11.7991 -0.241568 0)
(11.743 -0.23106 0)
(11.8954 -0.217708 0)
(11.8091 -0.17585 0)
(11.936 -0.160732 0)
(11.8182 -0.131755 0)
(11.9303 -0.134082 0)
(11.7982 -0.119464 0)
(11.9111 -0.133889 0)
(11.7776 -0.127546 0)
(11.8995 -0.148378 0)
(11.7691 -0.14494 0)
(11.9009 -0.16735 0)
(11.772 -0.163031 0)
(11.9107 -0.184315 0)
(11.7802 -0.177648 0)
(11.9233 -0.197541 0)
(11.7892 -0.189268 0)
(11.9352 -0.209161 0)
(11.7965 -0.200789 0)
(11.9446 -0.22202 0)
(11.8008 -0.214295 0)
(11.9506 -0.237047 0)
(11.8018 -0.229644 0)
(11.9534 -0.253281 0)
(11.8002 -0.245332 0)
(11.9539 -0.269264 0)
(11.7973 -0.260331 0)
(11.953 -0.284442 0)
(11.7939 -0.274786 0)
(11.9514 -0.299718 0)
(11.7903 -0.289994 0)
(11.9491 -0.316073 0)
(11.7864 -0.306508 0)
(11.9463 -0.333855 0)
(11.7822 -0.324646 0)
(11.9438 -0.353361 0)
(11.7778 -0.344787 0)
(11.9415 -0.375284 0)
(11.7726 -0.367707 0)
(11.9386 -0.400057 0)
(11.7657 -0.39297 0)
(11.9335 -0.426474 0)
(11.7555 -0.418352 0)
(11.9243 -0.451535 0)
(11.7415 -0.440569 0)
(11.9101 -0.472006 0)
(11.7236 -0.456927 0)
(11.8907 -0.486144 0)
(11.7033 -0.467187 0)
(11.8684 -0.495422 0)
(11.6841 -0.474795 0)
(11.8471 -0.504323 0)
(11.6684 -0.483826 0)
(11.8278 -0.515296 0)
(11.6534 -0.495398 0)
(11.8076 -0.528692 0)
(11.6349 -0.510349 0)
(11.7857 -0.546448 0)
(11.6118 -0.529825 0)
(11.7614 -0.568582 0)
(11.5835 -0.553563 0)
(11.7349 -0.596934 0)
(11.5537 -0.586552 0)
(11.7085 -0.636169 0)
(11.5214 -0.628202 0)
(11.6741 -0.679171 0)
(11.4816 -0.668251 0)
(11.6319 -0.717403 0)
(11.4357 -0.702367 0)
(11.5856 -0.749761 0)
(11.3914 -0.731094 0)
(11.5378 -0.776501 0)
(11.3475 -0.756588 0)
(11.4924 -0.8039 0)
(11.3144 -0.786238 0)
(11.4618 -0.836608 0)
(11.2947 -0.816361 0)
(11.4387 -0.864416 0)
(11.2802 -0.840628 0)
(11.4165 -0.884006 0)
(11.2663 -0.858043 0)
(11.3967 -0.901859 0)
(11.2484 -0.874117 0)
(11.376 -0.920677 0)
(11.2295 -0.897452 0)
(11.3502 -0.946113 0)
(11.2042 -0.916347 0)
(11.3111 -0.962489 0)
(11.1635 -0.929654 0)
(11.2643 -0.980919 0)
(11.117 -0.946644 0)
(11.2132 -1.00286 0)
(11.0675 -0.966313 0)
(11.1558 -1.03053 0)
(11.0156 -0.993785 0)
(11.0911 -1.06366 0)
(10.9573 -1.02437 0)
(11.0244 -1.09495 0)
(10.894 -1.04921 0)
(10.9539 -1.12099 0)
(10.8258 -1.06333 0)
(10.8762 -1.12594 0)
(10.7464 -1.05869 0)
(10.783 -1.11497 0)
(10.6538 -1.03486 0)
(10.6711 -1.08664 0)
(10.5448 -0.994549 0)
(10.5442 -1.04726 0)
(10.4444 -0.967442 0)
(10.436 -1.03471 0)
(10.343 -0.947736 0)
(10.3143 -1.00971 0)
(10.2261 -0.912473 0)
(10.1833 -0.978405 0)
(10.0969 -0.876372 0)
(10.0537 -0.955122 0)
(9.97185 -0.844842 0)
(9.93717 -0.931485 0)
(9.85476 -0.810544 0)
(9.83929 -0.8966 0)
(9.7478 -0.770942 0)
(9.74564 -0.854664 0)
(9.64522 -0.724326 0)
(9.63932 -0.805847 0)
(9.54139 -0.6651 0)
(9.53084 -0.745099 0)
(9.43338 -0.599379 0)
(9.42469 -0.682277 0)
(9.32541 -0.53897 0)
(9.31777 -0.622945 0)
(9.21511 -0.475329 0)
(9.21572 -0.563677 0)
(9.10746 -0.415689 0)
(9.1248 -0.506424 0)
(8.99355 -0.358564 0)
(9.03089 -0.454981 0)
(8.88263 -0.298673 0)
(8.94212 -0.398295 0)
(8.77359 -0.230579 0)
(8.87089 -0.341417 0)
(8.70087 -0.174584 0)
(8.81286 -0.288979 0)
(8.63869 -0.0973984 0)
(8.76465 -0.229439 0)
(8.59925 -0.0323458 0)
(8.74664 -0.175907 0)