/*--------------------------------*- C++ -*----------------------------------*\
| =========                 |                                                 |
| \\      /  F ield         | OpenFOAM: The Open Source CFD Toolbox           |
|  \\    /   O peration     | Version:  2.4.0                                 |
|   \\  /    A nd           | Web:      www.OpenFOAM.org                      |
|    \\/     M anipulation  |                                                 |
\*---------------------------------------------------------------------------*/
FoamFile
{
    version     2.0;
    format      ascii;
    class       surfaceScalarField;
    location    "1.14";
    object      phi;
}
// * * * * * * * * * * * * * * * * * * * * * * * * * * * * * * * * * * * * * //

dimensions      [0 3 -1 0 0 0 0];

internalField   nonuniform List<scalar> 
17320
(
1.76372e-05
7.36278e-06
1.16191e-05
6.01808e-06
8.68439e-06
2.93475e-06
7.351e-06
1.3334e-06
6.72069e-06
6.30302e-07
6.3506e-06
3.70095e-07
6.06507e-06
2.85529e-07
5.87168e-06
1.93394e-07
5.72564e-06
1.46035e-07
5.57186e-06
1.53779e-07
5.46264e-06
1.09226e-07
5.4205e-06
4.21326e-08
5.30424e-06
1.1626e-07
5.21358e-06
9.06596e-08
5.14534e-06
6.82402e-08
5.11202e-06
3.33229e-08
4.97218e-06
1.39844e-07
5.00998e-06
-3.78e-08
4.80661e-06
2.03367e-07
-5.90965e-07
5.39757e-06
2.54607e-05
6.90212e-06
2.32514e-05
8.22732e-06
2.09919e-05
5.19424e-06
1.93114e-05
3.01388e-06
1.80842e-05
1.85757e-06
1.71161e-05
1.33821e-06
1.63525e-05
1.04907e-06
1.5785e-05
7.60909e-07
1.53217e-05
6.09312e-07
1.4917e-05
5.58539e-07
1.4628e-05
3.9818e-07
1.44087e-05
2.614e-07
1.41361e-05
3.88902e-07
1.39393e-05
2.87515e-07
1.37437e-05
2.63833e-07
1.36067e-05
1.70293e-07
1.33358e-05
4.10685e-07
1.33198e-05
-2.18006e-08
1.32062e-05
3.17006e-07
-6.71266e-07
1.32865e-05
2.66196e-05
5.2825e-06
2.71595e-05
7.6874e-06
2.67837e-05
5.57012e-06
2.62381e-05
3.55942e-06
2.56175e-05
2.47815e-06
2.48759e-05
2.07982e-06
2.41458e-05
1.77918e-06
2.3521e-05
1.38577e-06
2.29484e-05
1.18183e-06
2.2422e-05
1.08495e-06
2.20369e-05
7.83273e-07
2.17068e-05
5.91546e-07
2.13377e-05
7.57962e-07
2.10788e-05
5.46428e-07
2.08131e-05
5.29539e-07
2.05877e-05
3.95746e-07
2.02832e-05
7.15132e-07
2.01649e-05
9.64729e-08
2.01804e-05
3.01498e-07
-1.09373e-06
2.06029e-05
2.63234e-05
3.9591e-06
2.75482e-05
6.46257e-06
2.80957e-05
5.02267e-06
2.84316e-05
3.22349e-06
2.86488e-05
2.26097e-06
2.86328e-05
2.09584e-06
2.84606e-05
1.95137e-06
2.82521e-05
1.59428e-06
2.79941e-05
1.43979e-06
2.76723e-05
1.40675e-06
2.74305e-05
1.02504e-06
2.71952e-05
8.26926e-07
2.68948e-05
1.05833e-06
2.66679e-05
7.7332e-07
2.64606e-05
7.36882e-07
2.62039e-05
6.52414e-07
2.59711e-05
9.47932e-07
2.57069e-05
3.60675e-07
2.5613e-05
3.95431e-07
-7.27411e-07
2.52466e-05
2.60308e-05
2.92825e-06
2.72435e-05
5.24991e-06
2.80781e-05
4.18806e-06
2.85094e-05
2.79215e-06
2.89515e-05
1.81887e-06
2.93148e-05
1.73262e-06
2.95781e-05
1.68801e-06
2.97346e-05
1.43782e-06
2.98782e-05
1.29612e-06
2.99283e-05
1.35666e-06
2.99621e-05
9.91315e-07
2.99621e-05
8.26861e-07
2.99522e-05
1.06829e-06
2.98945e-05
8.31007e-07
2.99062e-05
7.25113e-07
2.97835e-05
7.7515e-07
2.97463e-05
9.85095e-07
2.94624e-05
6.44649e-07
2.9418e-05
4.39811e-07
-8.39436e-08
2.87745e-05
2.58313e-05
2.09698e-06
2.69343e-05
4.14687e-06
2.78304e-05
3.29197e-06
2.82838e-05
2.33879e-06
2.8717e-05
1.38569e-06
2.90625e-05
1.38709e-06
2.94618e-05
1.28871e-06
2.96764e-05
1.22322e-06
2.99815e-05
9.91008e-07
3.02028e-05
1.13538e-06
3.04605e-05
7.3359e-07
3.05013e-05
7.86047e-07
3.07565e-05
8.13154e-07
3.07689e-05
8.18573e-07
3.10078e-05
4.86249e-07
3.09853e-05
7.97616e-07
3.1232e-05
7.38447e-07
3.09589e-05
9.17679e-07
3.1117e-05
2.8177e-07
6.47182e-07
3.03858e-05
2.57186e-05
1.37836e-06
2.67235e-05
3.14202e-06
2.75652e-05
2.4502e-06
2.80584e-05
1.84566e-06
2.84844e-05
9.59598e-07
2.8823e-05
1.0485e-06
2.92547e-05
8.57023e-07
2.94403e-05
1.03763e-06
2.97892e-05
6.42093e-07
2.99743e-05
9.50297e-07
3.03076e-05
4.00255e-07
3.03317e-05
7.62013e-07
3.0709e-05
4.35834e-07
3.07451e-05
7.82428e-07
3.10082e-05
2.2316e-07
3.0971e-05
8.34835e-07
3.13446e-05
3.64816e-07
3.1176e-05
1.08633e-06
3.11163e-05
3.41415e-07
1.84876e-06
2.99148e-05
2.55639e-05
8.14423e-07
2.6565e-05
2.141e-06
2.74265e-05
1.58864e-06
2.80481e-05
1.2241e-06
2.83245e-05
6.83156e-07
2.86301e-05
7.42867e-07
2.90428e-05
4.44355e-07
2.93196e-05
7.60809e-07
2.96062e-05
3.55512e-07
2.98448e-05
7.11729e-07
2.99969e-05
2.48143e-07
3.02274e-05
5.31477e-07
3.05157e-05
1.47583e-07
3.07198e-05
5.78333e-07
3.0705e-05
2.37965e-07
3.09269e-05
6.12905e-07
3.11424e-05
1.49277e-07
3.15945e-05
6.34317e-07
3.16094e-05
3.26497e-07
1.11154e-06
3.23466e-05
2.54166e-05
3.97786e-07
2.64384e-05
1.11928e-06
2.73867e-05
6.40266e-07
2.79663e-05
6.44504e-07
2.8262e-05
3.87486e-07
2.85642e-05
4.40644e-07
2.88346e-05
1.73937e-07
2.9207e-05
3.8841e-07
2.95043e-05
5.83005e-08
2.97773e-05
4.38689e-07
2.9869e-05
1.56462e-07
3.01292e-05
2.71285e-07
3.02889e-05
-1.21124e-08
3.05237e-05
3.43462e-07
3.06186e-05
1.4308e-07
3.10075e-05
2.23996e-07
3.11317e-05
2.51034e-08
3.13458e-05
4.20247e-07
3.14613e-05
2.10988e-07
-1.17047e-07
3.26899e-05
2.5422e-05
-2.42008e-08
2.64735e-05
6.77311e-08
2.72669e-05
-1.53116e-07
2.78399e-05
7.14936e-08
2.82498e-05
-2.24285e-08
2.8568e-05
1.22517e-07
2.87448e-05
-2.85852e-09
2.91149e-05
1.82505e-08
2.94458e-05
-2.72583e-07
2.97479e-05
1.36554e-07
2.99129e-05
-8.5326e-09
3.01016e-05
8.26093e-08
3.01616e-05
-7.20731e-08
3.04461e-05
5.89608e-08
3.07419e-05
-1.52757e-07
3.09039e-05
6.19959e-08
3.093e-05
-9.72386e-10
3.1299e-05
5.1265e-08
3.18498e-05
-3.39804e-07
-3.92783e-07
3.21255e-05
2.54278e-05
-4.52019e-07
2.64907e-05
-9.95111e-07
2.72256e-05
-8.88031e-07
2.78568e-05
-5.59739e-07
2.82557e-05
-4.21368e-07
2.85229e-05
-1.44651e-07
2.87787e-05
-2.58683e-07
2.92021e-05
-4.05105e-07
2.93886e-05
-4.59101e-07
2.96866e-05
-1.61411e-07
2.9897e-05
-2.1899e-07
3.01431e-05
-1.63477e-07
3.0177e-05
-1.05956e-07
3.04967e-05
-2.60687e-07
3.06963e-05
-3.52452e-07
3.0812e-05
-5.36244e-08
3.09445e-05
-1.33493e-07
3.14548e-05
-4.59034e-07
3.17189e-05
-6.03918e-07
-1.80451e-07
3.15066e-05
2.54583e-05
-9.10296e-07
2.64775e-05
-2.01436e-06
2.73331e-05
-1.7436e-06
2.79363e-05
-1.16297e-06
2.8188e-05
-6.73039e-07
2.85602e-05
-5.16884e-07
2.89021e-05
-6.00518e-07
2.92747e-05
-7.77729e-07
2.94619e-05
-6.46337e-07
2.96929e-05
-3.92408e-07
2.9928e-05
-4.54057e-07
3.01839e-05
-4.19397e-07
3.02938e-05
-2.15864e-07
3.04934e-05
-4.60316e-07
3.06653e-05
-5.24287e-07
3.09306e-05
-3.18903e-07
3.11779e-05
-3.80864e-07
3.14198e-05
-7.00894e-07
3.15325e-05
-7.1661e-07
-6.00559e-07
3.19526e-05
2.55366e-05
-1.44693e-06
2.66154e-05
-3.09312e-06
2.74339e-05
-2.56206e-06
2.79846e-05
-1.71369e-06
2.82983e-05
-9.86798e-07
2.86896e-05
-9.08125e-07
2.90257e-05
-9.36661e-07
2.93673e-05
-1.11928e-06
2.95429e-05
-8.21942e-07
2.98267e-05
-6.76229e-07
3.00292e-05
-6.56552e-07
3.02797e-05
-6.69944e-07
3.04159e-05
-3.51975e-07
3.0608e-05
-6.5243e-07
3.07505e-05
-6.66868e-07
3.10718e-05
-6.40177e-07
3.13007e-05
-6.09774e-07
3.15169e-05
-9.17055e-07
3.16954e-05
-8.95131e-07
-8.90954e-07
3.19858e-05
2.56832e-05
-2.13009e-06
2.67575e-05
-4.16745e-06
2.75708e-05
-3.37539e-06
2.80378e-05
-2.18063e-06
2.84801e-05
-1.42918e-06
2.88765e-05
-1.30451e-06
2.9187e-05
-1.24717e-06
2.9511e-05
-1.44328e-06
2.97414e-05
-1.05233e-06
2.99714e-05
-9.06216e-07
3.01896e-05
-8.74729e-07
3.04482e-05
-9.28542e-07
3.05854e-05
-4.89248e-07
3.07932e-05
-8.60144e-07
3.09596e-05
-8.33335e-07
3.12045e-05
-8.85091e-07
3.13537e-05
-7.58975e-07
3.16326e-05
-1.19594e-06
3.18296e-05
-1.09209e-06
-1.18843e-06
3.21271e-05
2.58466e-05
-2.97673e-06
2.69566e-05
-5.27736e-06
2.77745e-05
-4.19329e-06
2.82281e-05
-2.63431e-06
2.87338e-05
-1.93479e-06
2.91115e-05
-1.68228e-06
2.94543e-05
-1.58999e-06
2.97283e-05
-1.71721e-06
2.99475e-05
-1.27152e-06
3.01455e-05
-1.10422e-06
3.03866e-05
-1.11586e-06
3.05557e-05
-1.09769e-06
3.07075e-05
-6.4099e-07
3.08558e-05
-1.00844e-06
3.09797e-05
-9.57284e-07
3.11039e-05
-1.00922e-06
3.11739e-05
-8.29036e-07
3.13799e-05
-1.40197e-06
3.15233e-05
-1.23541e-06
-1.45846e-06
3.17933e-05
2.60422e-05
-4.01892e-06
2.7217e-05
-6.45215e-06
2.80077e-05
-4.98403e-06
2.85229e-05
-3.14948e-06
2.89925e-05
-2.40443e-06
2.9325e-05
-2.01474e-06
2.96017e-05
-1.8667e-06
2.97134e-05
-1.82888e-06
2.98217e-05
-1.37986e-06
2.9901e-05
-1.18356e-06
2.99645e-05
-1.17935e-06
2.99405e-05
-1.07364e-06
2.99765e-05
-6.77031e-07
2.99164e-05
-9.48304e-07
2.986e-05
-9.00919e-07
2.97688e-05
-9.17958e-07
2.96865e-05
-7.46739e-07
2.96107e-05
-1.3262e-06
2.95269e-05
-1.15159e-06
-1.52373e-06
2.95921e-05
2.63015e-05
-5.32044e-06
2.75215e-05
-7.67212e-06
2.80817e-05
-5.54423e-06
2.84701e-05
-3.53794e-06
2.86289e-05
-2.56322e-06
2.86289e-05
-2.01468e-06
2.84863e-05
-1.72417e-06
2.81979e-05
-1.54043e-06
2.7961e-05
-1.14301e-06
2.771e-05
-9.32515e-07
2.74184e-05
-8.87711e-07
2.71334e-05
-7.88683e-07
2.69418e-05
-4.85415e-07
2.66486e-05
-6.5513e-07
2.6393e-05
-6.45331e-07
2.61238e-05
-6.48723e-07
2.58974e-05
-5.2031e-07
2.55414e-05
-9.70234e-07
2.52904e-05
-9.00566e-07
-1.35729e-06
2.51239e-05
2.65999e-05
-6.9203e-06
2.71508e-05
-8.22307e-06
2.67861e-05
-5.17953e-06
2.62505e-05
-3.00235e-06
2.5586e-05
-1.89872e-06
2.48846e-05
-1.31329e-06
2.41634e-05
-1.00292e-06
2.34752e-05
-8.5225e-07
2.29343e-05
-6.02077e-07
2.24623e-05
-4.60573e-07
2.20169e-05
-4.42241e-07
2.16414e-05
-4.13254e-07
2.13744e-05
-2.18393e-07
2.10456e-05
-3.2631e-07
2.07525e-05
-3.52246e-07
2.0456e-05
-3.52219e-07
2.02077e-05
-2.71977e-07
1.97705e-05
-5.33114e-07
1.93886e-05
-5.18631e-07
-4.9257e-07
1.85239e-05
2.54477e-05
-7.36804e-06
2.3243e-05
-6.01837e-06
2.09922e-05
-2.92871e-06
1.93173e-05
-1.32743e-06
1.80647e-05
-6.46081e-07
1.71196e-05
-3.68233e-07
1.63709e-05
-2.5417e-07
1.57528e-05
-2.34156e-07
1.53059e-05
-1.55207e-07
1.4949e-05
-1.03681e-07
1.46218e-05
-1.15055e-07
1.43373e-05
-1.28762e-07
1.41582e-05
-3.93085e-08
1.39212e-05
-8.92286e-08
1.36872e-05
-1.18314e-07
1.34519e-05
-1.16937e-07
1.32543e-05
-7.4328e-08
1.29029e-05
-1.81721e-07
1.26139e-05
-2.2962e-07
-8.53162e-08
1.22066e-05
1.7632e-05
1.16136e-05
8.68489e-06
7.35745e-06
6.71137e-06
6.34314e-06
6.08897e-06
5.85481e-06
5.69961e-06
5.59593e-06
5.48087e-06
5.35211e-06
5.3128e-06
5.22357e-06
5.10526e-06
4.98832e-06
4.91399e-06
4.73227e-06
4.50265e-06
4.41734e-06
5.76124e-06
-2.11986e-07
-1.51682e-07
6.15515e-06
1.0204e-08
-4.04113e-07
6.48518e-06
9.14636e-08
-4.21492e-07
6.78308e-06
5.44962e-08
-3.52395e-07
7.04806e-06
-6.58997e-08
-1.99085e-07
7.25294e-06
-1.57178e-07
-4.76975e-08
7.42425e-06
-2.53725e-07
8.24111e-08
7.57337e-06
-2.97145e-07
1.48034e-07
7.69232e-06
-2.64846e-07
1.4589e-07
7.81658e-06
-2.34459e-07
1.10204e-07
7.92857e-06
-1.66525e-07
5.45265e-08
8.04926e-06
-1.30603e-07
9.91702e-09
8.17777e-06
-1.14784e-07
-1.37297e-08
8.28323e-06
-6.77813e-08
-3.76713e-08
8.41259e-06
-8.01883e-08
-4.91731e-08
8.53897e-06
-4.73177e-08
-7.90623e-08
8.65992e-06
-5.00713e-08
-7.0876e-08
8.79664e-06
-4.80974e-08
-8.86223e-08
8.90533e-06
-3.24868e-08
-7.6212e-08
9.02968e-06
-5.17415e-08
-7.2603e-08
9.13591e-06
-5.06908e-08
-5.55367e-08
9.23774e-06
-5.0752e-08
-5.10841e-08
9.33812e-06
-8.09571e-08
-1.94177e-08
9.42894e-06
-7.34434e-08
-1.73755e-08
9.51483e-06
-1.03331e-07
1.74349e-08
9.59899e-06
-1.11493e-07
2.73388e-08
9.6707e-06
-1.20572e-07
4.88607e-08
9.74575e-06
-1.45179e-07
7.01279e-08
9.79655e-06
-1.58521e-07
1.07716e-07
9.84056e-06
-1.8559e-07
1.41586e-07
9.87025e-06
-2.08465e-07
1.78769e-07
9.87877e-06
-2.20958e-07
2.12438e-07
9.85287e-06
-2.50504e-07
2.76409e-07
9.80447e-06
-2.51199e-07
2.99602e-07
9.7275e-06
-2.41978e-07
3.18948e-07
9.63964e-06
-2.04827e-07
2.92681e-07
9.54414e-06
-1.0832e-07
2.03818e-07
9.45905e-06
1.5453e-08
6.96391e-08
9.39097e-06
1.9069e-07
-1.22605e-07
9.37358e-06
4.14097e-07
-3.96708e-07
9.4198e-06
6.66284e-07
-7.12508e-07
9.56439e-06
9.58806e-07
-1.10339e-06
9.82666e-06
1.27598e-06
-1.53825e-06
1.02475e-05
1.56504e-06
-1.9859e-06
1.07982e-05
1.84811e-06
-2.39875e-06
1.14501e-05
2.04055e-06
-2.69247e-06
1.21839e-05
2.08337e-06
-2.81721e-06
1.28749e-05
1.96697e-06
-2.65797e-06
1.34525e-05
1.61555e-06
-2.19317e-06
1.38624e-05
1.08389e-06
-1.49377e-06
1.40258e-05
4.66411e-07
-6.29805e-07
1.39891e-05
-2.0693e-07
2.43597e-07
1.38184e-05
-8.2207e-07
9.92822e-07
1.36227e-05
-1.30202e-06
1.49767e-06
1.34521e-05
-1.67367e-06
1.84425e-06
1.3289e-05
-2.01241e-06
2.17556e-06
1.31302e-05
-2.19174e-06
2.35051e-06
1.30751e-05
-2.29476e-06
2.34994e-06
1.31644e-05
-2.4016e-06
2.31223e-06
1.32423e-05
-2.26536e-06
2.18746e-06
1.33038e-05
-1.98638e-06
1.92492e-06
1.33932e-05
-1.6165e-06
1.52704e-06
1.35749e-05
-1.17774e-06
9.96042e-07
1.38136e-05
-6.09671e-07
3.70969e-07
1.40811e-05
-3.61072e-08
-2.31354e-07
1.45368e-05
5.35147e-07
-9.9084e-07
1.49832e-05
7.06162e-07
-1.15259e-06
1.53222e-05
7.7557e-07
-1.11454e-06
1.55984e-05
9.03106e-07
-1.17927e-06
1.58151e-05
7.8413e-07
-1.00088e-06
1.59689e-05
7.31156e-07
-8.84917e-07
1.60922e-05
7.76855e-07
-9.00182e-07
1.61212e-05
7.29592e-07
-7.58541e-07
1.61343e-05
8.24038e-07
-8.37201e-07
1.62212e-05
9.49053e-07
-1.03593e-06
1.63335e-05
9.54095e-07
-1.06637e-06
1.6519e-05
1.00562e-06
-1.19114e-06
1.68879e-05
1.15883e-06
-1.52775e-06
1.73142e-05
1.29973e-06
-1.726e-06
1.78039e-05
1.2383e-06
-1.72801e-06
1.85366e-05
1.0645e-06
-1.79725e-06
1.93889e-05
1.02542e-06
-1.8777e-06
2.01652e-05
8.07158e-07
-1.58348e-06
2.09074e-05
3.17038e-07
-1.0592e-06
2.17514e-05
-5.78772e-08
-7.86165e-07
2.26222e-05
-4.9565e-07
-3.7508e-07
2.34162e-05
-1.1937e-06
3.99726e-07
2.41807e-05
-1.95569e-06
1.19113e-06
2.48813e-05
-2.74421e-06
2.04359e-06
2.55671e-05
-3.66461e-06
2.97884e-06
2.62427e-05
-4.61251e-06
3.93696e-06
2.68169e-05
-5.4944e-06
4.92014e-06
2.73608e-05
-6.54572e-06
6.00181e-06
2.78905e-05
-7.64228e-06
7.11262e-06
2.84432e-05
-8.58151e-06
8.02881e-06
2.90273e-05
-9.7499e-06
9.16577e-06
2.96086e-05
-1.08087e-05
1.02275e-05
3.02988e-05
-1.18109e-05
1.11207e-05
3.09443e-05
-1.28424e-05
1.21969e-05
3.16966e-05
-1.38864e-05
1.31341e-05
3.24503e-05
-1.46366e-05
1.38828e-05
3.31441e-05
-1.54621e-05
1.47683e-05
3.36758e-05
-1.59953e-05
1.54637e-05
3.4242e-05
-1.63245e-05
1.57583e-05
3.45827e-05
-1.65228e-05
1.61821e-05
3.48063e-05
-1.63672e-05
1.61436e-05
3.49493e-05
-1.60641e-05
1.59211e-05
3.50694e-05
-1.55557e-05
1.54356e-05
3.5283e-05
-1.48121e-05
1.45986e-05
3.55562e-05
-1.39862e-05
1.37129e-05
3.58459e-05
-1.30726e-05
1.27829e-05
3.60086e-05
-1.14997e-05
1.1337e-05
3.61628e-05
-1.01558e-05
1.00015e-05
3.61188e-05
-8.33746e-06
8.38147e-06
3.60558e-05
-6.52998e-06
6.593e-06
3.57464e-05
-4.89521e-06
5.20466e-06
3.53141e-05
-3.09913e-06
3.53144e-06
3.46154e-05
-1.3312e-06
2.02987e-06
3.3845e-05
-6.40205e-08
8.34392e-07
3.28833e-05
1.43021e-06
-4.68451e-07
3.19282e-05
2.21839e-06
-1.2633e-06
3.08462e-05
2.75575e-06
-1.67376e-06
2.9841e-05
3.46652e-06
-2.46139e-06
2.88254e-05
3.14728e-06
-2.13166e-06
2.78288e-05
2.83973e-06
-1.84307e-06
2.67683e-05
3.03052e-06
-1.97007e-06
2.59399e-05
1.89717e-06
-1.0688e-06
2.46176e-05
1.44037e-06
-1.18072e-07
2.34841e-05
1.23529e-06
-1.01768e-07
2.21894e-05
5.44457e-07
7.503e-07
2.05797e-05
-4.46577e-08
1.65432e-06
1.88953e-05
5.66074e-07
1.11838e-06
1.78255e-05
8.85244e-08
9.81271e-07
1.64658e-05
6.08031e-07
7.51658e-07
1.58426e-05
4.10085e-07
2.13086e-07
1.55291e-05
1.06664e-06
-7.5311e-07
1.48944e-05
2.31086e-07
4.03577e-07
1.3749e-05
1.66076e-06
-5.15339e-07
1.37011e-05
-2.55066e-06
2.59858e-06
1.33234e-05
-1.90989e-07
5.68662e-07
1.29181e-05
-1.88168e-06
2.28698e-06
1.24022e-05
1.23049e-06
-7.14634e-07
1.39704e-05
-2.16411e-06
5.95999e-07
1.45381e-05
-3.06179e-06
2.494e-06
1.39497e-05
-3.21275e-06
3.80122e-06
1.29214e-05
-2.58209e-06
3.6104e-06
1.33237e-05
-3.87306e-06
3.47076e-06
1.47326e-05
-6.7946e-06
5.38567e-06
1.64987e-05
-1.01683e-05
8.40223e-06
1.828e-05
-1.20576e-05
1.02762e-05
2.01806e-05
-1.24461e-05
1.05455e-05
2.23245e-05
-1.21115e-05
9.96761e-06
2.46686e-05
-1.16775e-05
9.33335e-06
2.6908e-05
-1.14811e-05
9.24175e-06
2.87676e-05
-1.106e-05
9.20035e-06
3.01393e-05
-9.84646e-06
8.47475e-06
3.09626e-05
-7.39291e-06
6.56959e-06
3.13499e-05
-4.84097e-06
4.45373e-06
3.12716e-05
-2.60425e-06
2.68251e-06
3.10202e-05
-7.03415e-07
9.548e-07
3.07832e-05
9.12801e-07
-6.75761e-07
3.05651e-05
2.19206e-06
-1.97396e-06
3.03933e-05
3.50985e-06
-3.33809e-06
3.02389e-05
5.26654e-06
-5.11206e-06
2.99072e-05
7.25869e-06
-6.92699e-06
2.94622e-05
9.27758e-06
-8.83267e-06
2.87821e-05
1.15615e-05
-1.08814e-05
2.77111e-05
1.38237e-05
-1.27527e-05
2.61426e-05
1.56732e-05
-1.41047e-05
2.43345e-05
1.69498e-05
-1.51416e-05
2.2341e-05
1.88389e-05
-1.68454e-05
2.04544e-05
2.05163e-05
-1.86297e-05
1.8284e-05
2.14012e-05
-1.92309e-05
1.61075e-05
2.13353e-05
-1.91587e-05
1.4379e-05
2.06112e-05
-1.88827e-05
1.24158e-05
1.98294e-05
-1.78663e-05
1.0526e-05
1.90654e-05
-1.71756e-05
8.95502e-06
1.88758e-05
-1.73048e-05
7.56937e-06
1.83125e-05
-1.69269e-05
6.94347e-06
1.60037e-05
-1.53778e-05
6.22608e-06
1.38746e-05
-1.31572e-05
5.38408e-06
1.24879e-05
-1.16459e-05
5.21444e-06
1.08617e-05
-1.06921e-05
4.14066e-06
1.1248e-05
-1.01742e-05
4.86116e-06
7.36072e-06
-8.08122e-06
4.26896e-06
8.54043e-06
-7.94824e-06
5.57519e-06
3.81968e-06
-5.12591e-06
4.96875e-06
6.28039e-06
-5.67395e-06
6.039e-06
1.87663e-06
-2.94688e-06
5.01824e-06
5.04868e-06
-4.02791e-06
5.88975e-06
5.28394e-07
-1.3999e-06
4.90975e-06
4.34036e-06
-3.36036e-06
6.40906e-06
-4.6448e-07
-1.03483e-06
5.44135e-06
3.7381e-06
-2.77039e-06
6.6067e-06
-1.31547e-07
-1.0338e-06
6.8284e-06
4.3514e-06
-4.5731e-06
8.37121e-06
2.25751e-06
-3.80032e-06
7.36468e-06
7.72598e-06
-6.71945e-06
1.01766e-05
5.42985e-06
-8.24175e-06
1.6743e-05
-1.70142e-05
1.04478e-05
1.326e-05
-1.85445e-07
1.32964e-05
-2.62278e-08
1.34056e-05
-1.77682e-08
1.35003e-05
-4.02051e-08
1.36174e-05
-1.82947e-07
1.37126e-05
-2.52373e-07
1.38157e-05
-3.56836e-07
1.39199e-05
-4.01349e-07
1.39739e-05
-3.18815e-07
1.40588e-05
-3.19359e-07
1.41151e-05
-2.22842e-07
1.41821e-05
-1.97654e-07
1.42659e-05
-1.98525e-07
1.43192e-05
-1.21138e-07
1.44131e-05
-1.74108e-07
1.44958e-05
-1.29934e-07
1.45732e-05
-1.27492e-07
1.46756e-05
-1.50508e-07
1.47381e-05
-9.4954e-08
1.48315e-05
-1.45218e-07
1.49066e-05
-1.2571e-07
1.49695e-05
-1.13656e-07
1.50544e-05
-1.65932e-07
1.51101e-05
-1.29126e-07
1.51733e-05
-1.66478e-07
1.5239e-05
-1.772e-07
1.52759e-05
-1.57539e-07
1.53334e-05
-2.02675e-07
1.53603e-05
-1.85368e-07
1.5376e-05
-2.01338e-07
1.53815e-05
-2.1398e-07
1.53587e-05
-1.98133e-07
1.53152e-05
-2.06992e-07
1.52458e-05
-1.81813e-07
1.51538e-05
-1.49952e-07
1.50448e-05
-9.58472e-08
1.49274e-05
9.10522e-09
1.48177e-05
1.25167e-07
1.47005e-05
3.07895e-07
1.46168e-05
4.9775e-07
1.45814e-05
7.01711e-07
1.45827e-05
9.57485e-07
1.46838e-05
1.17493e-06
1.48736e-05
1.37525e-06
1.5179e-05
1.54271e-06
1.55936e-05
1.62589e-06
1.60691e-05
1.60785e-06
1.65867e-05
1.44941e-06
1.70599e-05
1.1423e-06
1.74287e-05
7.15182e-07
1.77026e-05
1.92504e-07
1.78505e-05
-3.54846e-07
1.79321e-05
-9.03684e-07
1.79911e-05
-1.36105e-06
1.80216e-05
-1.70416e-06
1.80957e-05
-2.08652e-06
1.81857e-05
-2.28174e-06
1.82555e-05
-2.3645e-06
1.83338e-05
-2.47999e-06
1.83613e-05
-2.29285e-06
1.84104e-05
-2.03544e-06
1.8571e-05
-1.77714e-06
1.87275e-05
-1.33422e-06
1.89385e-05
-8.20685e-07
1.92094e-05
-3.07015e-07
1.95498e-05
1.94815e-07
1.98305e-05
4.25447e-07
1.99864e-05
6.19653e-07
2.0067e-05
8.22496e-07
2.0097e-05
7.5412e-07
2.00668e-05
7.61397e-07
2.00242e-05
8.19471e-07
1.99671e-05
7.86657e-07
1.99088e-05
8.82293e-07
1.99225e-05
9.35431e-07
1.99662e-05
9.1032e-07
1.99731e-05
9.98764e-07
2.0173e-05
9.5895e-07
2.05568e-05
9.15886e-07
2.09274e-05
8.67697e-07
2.13627e-05
6.29159e-07
2.19463e-05
4.41835e-07
2.25754e-05
1.78111e-07
2.3183e-05
-2.90591e-07
2.38515e-05
-7.26364e-07
2.45753e-05
-1.21943e-06
2.52559e-05
-1.87431e-06
2.59358e-05
-2.63556e-06
2.66461e-05
-3.45452e-06
2.72752e-05
-4.29375e-06
2.79071e-05
-5.24441e-06
2.85695e-05
-6.15683e-06
2.92319e-05
-7.20805e-06
2.98649e-05
-8.27531e-06
3.05218e-05
-9.2384e-06
3.1116e-05
-1.03441e-05
3.18129e-05
-1.15056e-05
3.24612e-05
-1.24593e-05
3.30465e-05
-1.34277e-05
3.35322e-05
-1.43721e-05
3.39695e-05
-1.50739e-05
3.42484e-05
-1.5741e-05
3.43096e-05
-1.60565e-05
3.43464e-05
-1.63613e-05
3.42783e-05
-1.64547e-05
3.42256e-05
-1.63146e-05
3.42885e-05
-1.61269e-05
3.46402e-05
-1.59074e-05
3.50903e-05
-1.52623e-05
3.56813e-05
-1.45771e-05
3.61093e-05
-1.35006e-05
3.64941e-05
-1.18844e-05
3.67351e-05
-1.03969e-05
3.67914e-05
-8.39375e-06
3.66918e-05
-6.43032e-06
3.64074e-05
-4.61083e-06
3.58081e-05
-2.49986e-06
3.49502e-05
-4.73271e-07
3.40242e-05
8.61971e-07
3.27503e-05
2.70417e-06
3.14761e-05
3.49251e-06
3.01237e-05
4.10818e-06
2.89141e-05
4.6761e-06
2.77057e-05
4.3557e-06
2.64788e-05
4.06668e-06
2.54494e-05
4.05993e-06
2.44568e-05
2.88973e-06
2.31084e-05
2.78875e-06
2.19539e-05
2.38986e-06
2.07113e-05
1.78699e-06
1.91338e-05
1.53283e-06
1.78408e-05
1.8591e-06
1.65474e-05
1.38189e-06
1.54081e-05
1.7474e-06
1.53394e-05
4.78747e-07
1.52692e-05
1.13681e-06
1.43234e-05
1.17689e-06
1.44823e-05
1.5019e-06
1.43388e-05
-2.40717e-06
1.34699e-05
6.77886e-07
1.28116e-05
-1.22331e-06
1.33438e-05
6.98294e-07
1.43332e-05
-3.15353e-06
1.33878e-05
-2.11646e-06
1.25039e-05
-2.32881e-06
1.23129e-05
-2.39109e-06
1.35847e-05
-5.14481e-06
1.50415e-05
-8.25147e-06
1.63929e-05
-1.15196e-05
1.79834e-05
-1.36482e-05
2.0369e-05
-1.48317e-05
2.27887e-05
-1.45312e-05
2.53272e-05
-1.4216e-05
2.76072e-05
-1.37612e-05
2.922e-05
-1.26727e-05
3.0115e-05
-1.07415e-05
3.05046e-05
-7.78245e-06
3.04594e-05
-4.79575e-06
3.01667e-05
-2.31158e-06
2.99928e-05
-5.29546e-07
2.98954e-05
1.01026e-06
2.98423e-05
2.24514e-06
2.95883e-05
3.76378e-06
2.92221e-05
5.63279e-06
2.86675e-05
7.81323e-06
2.79833e-05
9.96181e-06
2.71366e-05
1.24083e-05
2.6274e-05
1.46862e-05
2.50855e-05
1.68618e-05
2.35741e-05
1.84611e-05
2.19293e-05
2.04837e-05
2.00608e-05
2.23849e-05
1.83757e-05
2.30863e-05
1.6296e-05
2.3415e-05
1.4412e-05
2.24952e-05
1.28761e-05
2.13653e-05
1.11934e-05
2.07481e-05
1.02519e-05
1.98173e-05
9.43645e-06
1.91279e-05
8.82917e-06
1.6611e-05
8.34286e-06
1.43609e-05
6.41384e-06
1.44169e-05
6.66901e-06
1.06065e-05
5.84772e-06
1.20693e-05
7.61382e-06
5.59462e-06
7.8228e-06
8.33146e-06
9.96625e-06
1.67623e-06
9.75709e-06
6.48954e-06
1.16628e-05
-2.91077e-08
1.08594e-05
5.85207e-06
1.28227e-05
-1.43485e-06
1.15851e-05
5.57792e-06
1.32153e-05
-2.09468e-06
1.16348e-05
5.31863e-06
1.35558e-05
-2.05258e-06
1.09081e-05
6.99916e-06
1.45266e-05
-1.361e-06
1.20979e-05
1.01546e-05
1.5487e-05
2.04076e-06
1.56909e-05
1.65391e-05
2.03079e-05
1.09581e-07
1.99972e-05
2.84501e-07
1.98825e-05
9.6908e-08
1.98852e-05
-4.29477e-08
2.00462e-05
-3.43889e-07
2.01701e-05
-3.76278e-07
2.02404e-05
-4.27169e-07
2.02965e-05
-4.57408e-07
2.02637e-05
-2.86085e-07
2.03066e-05
-3.62215e-07
2.03085e-05
-2.24751e-07
2.03233e-05
-2.12492e-07
2.03979e-05
-2.73109e-07
2.0401e-05
-1.24173e-07
2.04865e-05
-2.59663e-07
2.05425e-05
-1.85926e-07
2.05862e-05
-1.71218e-07
2.06754e-05
-2.39722e-07
2.06929e-05
-1.12369e-07
2.07689e-05
-2.21283e-07
2.0809e-05
-1.65746e-07
2.08286e-05
-1.33292e-07
2.09004e-05
-2.37756e-07
2.09085e-05
-1.37176e-07
2.09499e-05
-2.0789e-07
2.09904e-05
-2.17671e-07
2.09911e-05
-1.58248e-07
2.10296e-05
-2.41233e-07
2.10303e-05
-1.86001e-07
2.10221e-05
-1.93201e-07
2.1019e-05
-2.10886e-07
2.09695e-05
-1.48608e-07
2.09295e-05
-1.6699e-07
2.08674e-05
-1.19729e-07
2.07614e-05
-4.39097e-08
2.06782e-05
-1.27202e-08
2.05607e-05
1.26605e-07
2.0454e-05
2.31895e-07
2.03592e-05
4.02748e-07
2.02647e-05
5.92241e-07
2.02258e-05
7.40609e-07
2.02104e-05
9.72835e-07
2.0252e-05
1.13334e-06
2.03644e-05
1.26281e-06
2.05448e-05
1.36232e-06
2.0822e-05
1.34877e-06
2.11184e-05
1.31144e-06
2.1475e-05
1.09275e-06
2.18383e-05
7.79031e-07
2.21105e-05
4.43026e-07
2.23864e-05
-8.34006e-08
2.25725e-05
-5.40953e-07
2.27091e-05
-1.04035e-06
2.28613e-05
-1.51322e-06
2.29469e-05
-1.78977e-06
2.3059e-05
-2.19861e-06
2.31528e-05
-2.37554e-06
2.31753e-05
-2.38696e-06
2.32452e-05
-2.54988e-06
2.33007e-05
-2.34839e-06
2.33624e-05
-2.09712e-06
2.34983e-05
-1.9131e-06
2.36035e-05
-1.43934e-06
2.37754e-05
-9.92594e-07
2.40337e-05
-5.65341e-07
2.42605e-05
-3.19876e-08
2.44256e-05
2.60301e-07
2.45748e-05
4.70512e-07
2.46351e-05
7.62153e-07
2.46493e-05
7.3999e-07
2.4633e-05
7.77665e-07
2.45379e-05
9.14553e-07
2.451e-05
8.14514e-07
2.44903e-05
9.01999e-07
2.44162e-05
1.00955e-06
2.44522e-05
8.7432e-07
2.45386e-05
9.12353e-07
2.46736e-05
8.23947e-07
2.49162e-05
6.73348e-07
2.52076e-05
5.76232e-07
2.55422e-05
2.94562e-07
2.59595e-05
2.45636e-08
2.64655e-05
-3.2784e-07
2.69824e-05
-8.07589e-07
2.75143e-05
-1.25818e-06
2.81308e-05
-1.83596e-06
2.87392e-05
-2.48272e-06
2.93309e-05
-3.22725e-06
2.99192e-05
-4.0428e-06
3.05065e-05
-4.88111e-06
3.11002e-05
-5.83804e-06
3.16813e-05
-6.73792e-06
3.21911e-05
-7.71784e-06
3.27016e-05
-8.78589e-06
3.31935e-05
-9.73027e-06
3.35938e-05
-1.07443e-05
3.39114e-05
-1.18233e-05
3.40977e-05
-1.26455e-05
3.42351e-05
-1.35651e-05
3.41517e-05
-1.42887e-05
3.3984e-05
-1.49063e-05
3.37223e-05
-1.54793e-05
3.34171e-05
-1.57513e-05
3.31938e-05
-1.6138e-05
3.3203e-05
-1.64639e-05
3.34516e-05
-1.65632e-05
3.39914e-05
-1.66667e-05
3.47971e-05
-1.67132e-05
3.55736e-05
-1.60388e-05
3.62736e-05
-1.52771e-05
3.67957e-05
-1.40228e-05
3.72334e-05
-1.23221e-05
3.74203e-05
-1.05838e-05
3.74887e-05
-8.46217e-06
3.72884e-05
-6.23008e-06
3.69403e-05
-4.26263e-06
3.62919e-05
-1.85153e-06
3.55569e-05
2.61765e-07
3.43927e-05
2.02614e-06
3.30524e-05
4.0445e-06
3.15204e-05
5.02453e-06
2.98881e-05
5.7404e-06
2.81441e-05
6.42009e-06
2.66904e-05
5.80944e-06
2.51335e-05
5.62356e-06
2.41038e-05
5.08966e-06
2.26165e-05
4.37697e-06
2.12867e-05
4.11856e-06
2.00518e-05
3.62481e-06
1.89295e-05
2.90925e-06
1.77014e-05
2.76096e-06
1.69727e-05
2.58785e-06
1.55719e-05
2.7826e-06
1.5165e-05
2.15435e-06
1.49452e-05
6.98496e-07
1.4485e-05
1.59702e-06
1.40415e-05
1.62041e-06
1.47817e-05
7.61685e-07
1.40209e-05
-1.64631e-06
1.34111e-05
1.28767e-06
1.31248e-05
-9.37056e-07
1.40221e-05
-1.98989e-07
1.36201e-05
-2.75152e-06
1.2409e-05
-9.05373e-07
1.21133e-05
-2.03309e-06
1.2483e-05
-2.76079e-06
1.32025e-05
-5.86429e-06
1.45757e-05
-9.62474e-06
1.63837e-05
-1.33276e-05
1.81245e-05
-1.5389e-05
2.04482e-05
-1.71555e-05
2.27428e-05
-1.68257e-05
2.49231e-05
-1.63963e-05
2.65139e-05
-1.5352e-05
2.75542e-05
-1.3713e-05
2.7986e-05
-1.11734e-05
2.80655e-05
-7.86194e-06
2.79545e-05
-4.68478e-06
2.79701e-05
-2.32718e-06
2.81098e-05
-6.69178e-07
2.8425e-05
6.95048e-07
2.86652e-05
2.00497e-06
2.85914e-05
3.83758e-06
2.8154e-05
6.07012e-06
2.74586e-05
8.50868e-06
2.66118e-05
1.08086e-05
2.58837e-05
1.31363e-05
2.4929e-05
1.56409e-05
2.3851e-05
1.79398e-05
2.24778e-05
1.98343e-05
2.13188e-05
2.16427e-05
1.95302e-05
2.41735e-05
1.7748e-05
2.48684e-05
1.63088e-05
2.48543e-05
1.43462e-05
2.44578e-05
1.3408e-05
2.23035e-05
1.21121e-05
2.20441e-05
1.09655e-05
2.09639e-05
1.11015e-05
1.89919e-05
9.56199e-06
1.81505e-05
9.43415e-06
1.44887e-05
8.48235e-06
1.53687e-05
9.07224e-06
1.00166e-05
9.40678e-06
1.17347e-05
1.07374e-05
4.26399e-06
1.1219e-05
7.84985e-06
1.34029e-05
-5.07635e-07
1.29182e-05
6.97419e-06
1.50919e-05
-2.20274e-06
1.39312e-05
7.0127e-06
1.62699e-05
-3.77351e-06
1.44743e-05
7.37353e-06
1.68894e-05
-4.50977e-06
1.49192e-05
7.2888e-06
1.69567e-05
-4.09011e-06
1.57444e-05
8.2115e-06
1.7701e-05
-3.31763e-06
1.75792e-05
1.02764e-05
1.85363e-05
1.08362e-06
1.28938e-05
2.13334e-05
2.51767e-05
1.79545e-07
2.52053e-05
2.5593e-07
2.53153e-05
-1.31795e-08
2.54195e-05
-1.47101e-07
2.55648e-05
-4.89232e-07
2.56597e-05
-4.7113e-07
2.57073e-05
-4.74761e-07
2.5743e-05
-4.93118e-07
2.56844e-05
-2.2748e-07
2.56773e-05
-3.55118e-07
2.56517e-05
-1.99116e-07
2.56094e-05
-1.70273e-07
2.56732e-05
-3.36833e-07
2.56521e-05
-1.03132e-07
2.5703e-05
-3.10522e-07
2.57655e-05
-2.48485e-07
2.57612e-05
-1.6691e-07
2.58485e-05
-3.27013e-07
2.5847e-05
-1.10848e-07
2.59036e-05
-2.77845e-07
2.59537e-05
-2.15921e-07
2.59254e-05
-1.04968e-07
2.60005e-05
-3.12802e-07
2.5973e-05
-1.0972e-07
2.59699e-05
-2.04743e-07
2.60083e-05
-2.5614e-07
2.5965e-05
-1.14974e-07
2.59933e-05
-2.69519e-07
2.59925e-05
-1.85131e-07
2.59559e-05
-1.56646e-07
2.59647e-05
-2.1969e-07
2.59091e-05
-9.3007e-08
2.58595e-05
-1.1734e-07
2.58204e-05
-8.07113e-08
2.57045e-05
7.20097e-08
2.56442e-05
4.75716e-08
2.5566e-05
2.04846e-07
2.54647e-05
3.33192e-07
2.54312e-05
4.36226e-07
2.5375e-05
6.48435e-07
2.53578e-05
7.57818e-07
2.53983e-05
9.32364e-07
2.54512e-05
1.08046e-06
2.55609e-05
1.15304e-06
2.57321e-05
1.19115e-06
2.59519e-05
1.129e-06
2.6182e-05
1.0813e-06
2.64435e-05
8.31236e-07
2.67119e-05
5.10707e-07
2.69174e-05
2.37441e-07
2.71264e-05
-2.92402e-07
2.72787e-05
-6.93258e-07
2.737e-05
-1.1316e-06
2.74822e-05
-1.62538e-06
2.75255e-05
-1.83306e-06
2.75463e-05
-2.21947e-06
2.7575e-05
-2.40421e-06
2.75471e-05
-2.35905e-06
2.75353e-05
-2.53812e-06
2.75372e-05
-2.35027e-06
2.75299e-05
-2.08984e-06
2.75638e-05
-1.94702e-06
2.76122e-05
-1.48773e-06
2.76942e-05
-1.07461e-06
2.78879e-05
-7.59052e-07
2.80626e-05
-2.06607e-07
2.81693e-05
1.53594e-07
2.83273e-05
3.12495e-07
2.84185e-05
6.70966e-07
2.84074e-05
7.51035e-07
2.8416e-05
7.69099e-07
2.83894e-05
9.41109e-07
2.83725e-05
8.31482e-07
2.83918e-05
8.82637e-07
2.84233e-05
9.78126e-07
2.84849e-05
8.12729e-07
2.85993e-05
7.97928e-07
2.87452e-05
6.78053e-07
2.89403e-05
4.78195e-07
2.91925e-05
3.24043e-07
2.94992e-05
-1.21415e-08
2.9824e-05
-3.00198e-07
3.01932e-05
-6.97037e-07
3.05997e-05
-1.21409e-06
3.10076e-05
-1.66613e-06
3.14612e-05
-2.28954e-06
3.19259e-05
-2.94744e-06
3.23494e-05
-3.65069e-06
3.27529e-05
-4.44636e-06
3.31659e-05
-5.29408e-06
3.34832e-05
-6.15538e-06
3.37843e-05
-7.039e-06
3.39944e-05
-7.92788e-06
3.41507e-05
-8.94219e-06
3.42073e-05
-9.78691e-06
3.41748e-05
-1.07118e-05
3.39521e-05
-1.16005e-05
3.36685e-05
-1.2362e-05
3.33097e-05
-1.32063e-05
3.28818e-05
-1.38609e-05
3.24653e-05
-1.44897e-05
3.21737e-05
-1.51877e-05
3.20948e-05
-1.56725e-05
3.22628e-05
-1.6306e-05
3.2811e-05
-1.70121e-05
3.35814e-05
-1.73336e-05