/*--------------------------------*- C++ -*----------------------------------*\
| =========                 |                                                 |
| \\      /  F ield         | OpenFOAM: The Open Source CFD Toolbox           |
|  \\    /   O peration     | Version:  2.4.0                                 |
|   \\  /    A nd           | Web:      www.OpenFOAM.org                      |
|    \\/     M anipulation  |                                                 |
\*---------------------------------------------------------------------------*/
FoamFile
{
    version     2.0;
    format      ascii;
    class       volVectorField;
    location    "1.14";
    object      U_0;
}
// * * * * * * * * * * * * * * * * * * * * * * * * * * * * * * * * * * * * * //

dimensions      [0 1 -1 0 0 0 0];

internalField   nonuniform List<vector> 
8800
(
(8.09247 0.387981 0)
(5.45136 0.242607 0)
(3.90983 0.0429573 0)
(3.15959 -0.01528 0)
(2.79528 -0.0185292 0)
(2.6088 -0.0114102 0)
(2.47155 -0.00450896 0)
(2.39143 -0.00322518 0)
(2.30963 -0.00197635 0)
(2.26302 0.000473617 0)
(2.19791 -0.000153844 0)
(2.18719 -0.00247231 0)
(2.12983 0.00173435 0)
(2.11754 0.000608082 0)
(2.05778 -0.000323269 0)
(2.06631 -0.000960708 0)
(2.00161 0.00181413 0)
(1.99669 -0.00194111 0)
(2.01196 0.00969369 0)
(1.76204 -0.0782107 0)
(10.0805 0.838117 0)
(9.66773 0.867784 0)
(8.86062 0.507097 0)
(8.09795 0.262694 0)
(7.47312 0.136848 0)
(7.03772 0.081575 0)
(6.65904 0.057351 0)
(6.43959 0.0377794 0)
(6.19158 0.0288658 0)
(6.05851 0.0278773 0)
(5.88079 0.0190773 0)
(5.83865 0.0104013 0)
(5.66189 0.0213873 0)
(5.6566 0.015837 0)
(5.49719 0.0134706 0)
(5.50668 0.00862752 0)
(5.35404 0.0251357 0)
(5.34098 -0.00781754 0)
(5.31927 0.0276112 0)
(5.15688 -0.0434388 0)
(10.0452 0.630629 0)
(10.6849 0.863521 0)
(10.8404 0.601046 0)
(10.7244 0.375728 0)
(10.4159 0.252754 0)
(10.1434 0.196998 0)
(9.77209 0.157659 0)
(9.56636 0.11756 0)
(9.25446 0.0944926 0)
(9.09715 0.0826012 0)
(8.84758 0.0576009 0)
(8.79898 0.0420996 0)
(8.53773 0.0546346 0)
(8.54302 0.0392023 0)
(8.32468 0.0375733 0)
(8.3297 0.0267123 0)
(8.12323 0.0545574 0)
(8.12178 0.000600982 0)
(8.03049 0.0263478 0)
(7.96941 -0.085526 0)
(9.95291 0.455011 0)
(10.6272 0.706844 0)
(11.1134 0.546221 0)
(11.4419 0.355986 0)
(11.4739 0.254447 0)
(11.5503 0.230231 0)
(11.4007 0.207077 0)
(11.3972 0.166484 0)
(11.2138 0.149411 0)
(11.1751 0.137126 0)
(10.9726 0.100637 0)
(10.9829 0.0793344 0)
(10.7489 0.100593 0)
(10.7717 0.0676338 0)
(10.5757 0.0715021 0)
(10.5806 0.0522682 0)
(10.3852 0.0927026 0)
(10.3787 0.0164802 0)
(10.2721 0.0413373 0)
(10.2467 -0.106146 0)
(9.94903 0.343522 0)
(10.4931 0.568891 0)
(10.9613 0.459075 0)
(11.4168 0.30621 0)
(11.5501 0.197477 0)
(11.7569 0.193035 0)
(11.7908 0.187472 0)
(11.9166 0.157503 0)
(11.8964 0.146094 0)
(12.0026 0.150369 0)
(11.9531 0.106136 0)
(12.0133 0.0904233 0)
(11.9445 0.114615 0)
(12.0073 0.0875227 0)
(11.9337 0.0768865 0)
(11.9548 0.0818253 0)
(11.8975 0.102208 0)
(11.8655 0.0602771 0)
(11.8513 0.0393238 0)
(11.8495 -0.0283398 0)
(9.97835 0.249895 0)
(10.3877 0.455382 0)
(10.8161 0.371372 0)
(11.2674 0.257563 0)
(11.4896 0.163062 0)
(11.6438 0.147907 0)
(11.7515 0.151777 0)
(11.8795 0.125873 0)
(11.9185 0.120109 0)
(12.0458 0.125045 0)
(12.1513 0.0945299 0)
(12.1819 0.075066 0)
(12.2381 0.10501 0)
(12.3231 0.0746909 0)
(12.3447 0.070943 0)
(12.3906 0.0724388 0)
(12.4513 0.0999857 0)
(12.4661 0.070768 0)
(12.5093 0.0521774 0)
(12.6037 0.0225328 0)
(9.98947 0.177838 0)
(10.3553 0.351994 0)
(10.6882 0.281705 0)
(11.1352 0.211076 0)
(11.3957 0.117671 0)
(11.5453 0.122957 0)
(11.6914 0.107144 0)
(11.7954 0.111877 0)
(11.8345 0.0841707 0)
(11.9552 0.102264 0)
(12.0696 0.05447 0)
(12.1213 0.0825503 0)
(12.1837 0.0610863 0)
(12.324 0.084282 0)
(12.3355 0.0270229 0)
(12.386 0.0873523 0)
(12.4451 0.0479057 0)
(12.5266 0.108141 0)
(12.6055 0.0186726 0)
(12.6071 0.174352 0)
(9.98288 0.0988619 0)
(10.2962 0.270155 0)
(10.629 0.195296 0)
(11.0679 0.162184 0)
(11.3307 0.0804188 0)
(11.4657 0.0901558 0)
(11.6208 0.0571223 0)
(11.7393 0.100293 0)
(11.7799 0.0399919 0)
(11.9057 0.0919536 0)
(11.9448 0.0225048 0)
(12.0286 0.0766025 0)
(12.1302 0.022172 0)
(12.2851 0.0751232 0)
(12.27 0.0134818 0)
(12.2929 0.0868132 0)
(12.4129 0.0170278 0)
(12.5234 0.0893961 0)
(12.5253 0.026048 0)
(12.2909 0.235815 0)
(10.0077 0.0680265 0)
(10.1946 0.151212 0)
(10.6397 0.114178 0)
(11.0189 0.0880594 0)
(11.2679 0.0609457 0)
(11.4647 0.0570518 0)
(11.5629 0.0283865 0)
(11.6506 0.051976 0)
(11.7672 0.032519 0)
(11.8597 0.0498895 0)
(11.9151 0.0281957 0)
(11.9756 0.0277387 0)
(12.086 0.00869321 0)
(12.1648 0.0411983 0)
(12.2256 0.0351048 0)
(12.3074 0.0279885 0)
(12.4246 0.00890263 0)
(12.4122 0.0426295 0)
(12.3895 0.0646859 0)
(12.4023 0.0205756 0)
(9.98999 0.0142283 0)
(10.2423 0.0664825 0)
(10.6171 0.0103804 0)
(10.9373 0.0449545 0)
(11.2356 0.0200191 0)
(11.484 0.0267633 0)
(11.5424 0.00565697 0)
(11.6044 0.0233431 0)
(11.7366 -0.0189299 0)
(11.8427 0.039203 0)
(11.9099 0.00299131 0)
(12.0066 0.0220931 0)
(12.034 -0.00976084 0)
(12.0985 0.027824 0)
(12.2561 -0.00848835 0)
(12.3421 0.0115942 0)
(12.3022 -0.00032262 0)
(12.3367 0.0439777 0)
(12.4773 -0.0243304 0)
(12.5326 -0.06064 0)
(9.97947 -0.0191915 0)
(10.2607 -0.0540168 0)
(10.607 -0.0419258 0)
(10.9183 -0.0275502 0)
(11.2636 -0.024452 0)
(11.4637 -0.000780537 0)
(11.5232 -0.00814423 0)
(11.6605 -0.0224308 0)
(11.7374 -0.0346138 0)
(11.8004 -0.00812264 0)
(11.8981 -0.00532824 0)
(12.0267 -0.00597584 0)
(12.0426 -0.00618987 0)
(12.1128 -0.0157666 0)
(12.265 -0.0230118 0)
(12.306 0.00259494 0)
(12.2591 -0.000900327 0)
(12.4018 -0.0373223 0)
(12.5155 -0.0520161 0)
(12.3637 0.00688582 0)
(10.0082 -0.0723736 0)
(10.2345 -0.141524 0)
(10.6198 -0.131753 0)
(11.0006 -0.0877133 0)
(11.2512 -0.0566827 0)
(11.4303 -0.0283057 0)
(11.5941 -0.042903 0)
(11.681 -0.0627019 0)
(11.7807 -0.0551068 0)
(11.8055 -0.0229766 0)
(11.9029 -0.0375199 0)
(12.0333 -0.027664 0)
(12.084 -0.0149885 0)
(12.1459 -0.0391111 0)
(12.2337 -0.0441293 0)
(12.3025 -0.011976 0)
(12.3775 -0.030102 0)
(12.4498 -0.0625864 0)
(12.423 -0.0592862 0)
(12.3331 -0.0261991 0)
(9.99726 -0.113807 0)
(10.2705 -0.254137 0)
(10.6849 -0.210585 0)
(11.0247 -0.146508 0)
(11.2966 -0.0810702 0)
(11.4972 -0.0716796 0)
(11.6233 -0.0779407 0)
(11.7355 -0.0925988 0)
(11.8008 -0.0723764 0)
(11.8575 -0.0537936 0)
(11.9619 -0.0555799 0)
(12.061 -0.0532412 0)
(12.1362 -0.0300144 0)
(12.1954 -0.0540517 0)
(12.2665 -0.0571304 0)
(12.351 -0.0492336 0)
(12.4465 -0.051888 0)
(12.484 -0.0810761 0)
(12.4708 -0.0862111 0)
(12.4183 -0.0760217 0)
(10.0213 -0.178931 0)
(10.3052 -0.355357 0)
(10.7537 -0.289767 0)
(11.0879 -0.197406 0)
(11.3926 -0.1237 0)
(11.5669 -0.109136 0)
(11.6897 -0.105832 0)
(11.7709 -0.129319 0)
(11.8874 -0.0912672 0)
(11.9251 -0.0812029 0)
(12.0208 -0.077301 0)
(12.1327 -0.0793209 0)
(12.2113 -0.0421406 0)
(12.2514 -0.0765165 0)
(12.3608 -0.0738997 0)
(12.4272 -0.0748414 0)
(12.4808 -0.0728995 0)
(12.5179 -0.106417 0)
(12.5482 -0.100951 0)
(12.4675 -0.0951385 0)
(10.0652 -0.253853 0)
(10.3194 -0.460138 0)
(10.891 -0.372866 0)
(11.1578 -0.243425 0)
(11.5449 -0.165224 0)
(11.6185 -0.146813 0)
(11.8034 -0.140343 0)
(11.8332 -0.158845 0)
(11.9961 -0.115427 0)
(11.9688 -0.103139 0)
(12.1376 -0.102174 0)
(12.17 -0.105019 0)
(12.2801 -0.0563645 0)
(12.2695 -0.0988005 0)
(12.4029 -0.0910947 0)
(12.3937 -0.0970215 0)
(12.4542 -0.0791121 0)
(12.4324 -0.133406 0)
(12.479 -0.124529 0)
(12.3563 -0.147311 0)
(10.0675 -0.351702 0)
(10.3868 -0.567891 0)
(11.0383 -0.454509 0)
(11.2923 -0.292596 0)
(11.6849 -0.218067 0)
(11.6612 -0.18375 0)
(11.8937 -0.177321 0)
(11.8183 -0.184993 0)
(11.9879 -0.138909 0)
(11.872 -0.122782 0)
(12.0458 -0.126394 0)
(11.9186 -0.116004 0)
(12.0549 -0.0718072 0)
(11.9039 -0.106982 0)
(12.0239 -0.0992445 0)
(11.8687 -0.100791 0)
(11.9377 -0.0827827 0)
(11.7753 -0.142154 0)
(11.7959 -0.124729 0)
(11.5598 -0.162604 0)
(10.0193 -0.459952 0)
(10.5446 -0.704842 0)
(11.1725 -0.541845 0)
(11.3722 -0.355254 0)
(11.5707 -0.265748 0)
(11.4403 -0.219544 0)
(11.5163 -0.201497 0)
(11.2762 -0.186957 0)
(11.3084 -0.141168 0)
(11.0651 -0.120572 0)
(11.0977 -0.115586 0)
(10.8275 -0.100449 0)
(10.9062 -0.0650019 0)
(10.6233 -0.0875088 0)
(10.6921 -0.0799155 0)
(10.4224 -0.0821699 0)
(10.4861 -0.0632396 0)
(10.1947 -0.119973 0)
(10.2092 -0.09704 0)
(9.86667 -0.164168 0)
(10.0689 -0.63341 0)
(10.6456 -0.863026 0)
(10.875 -0.599439 0)
(10.6886 -0.374369 0)
(10.4579 -0.257725 0)
(10.0782 -0.192692 0)
(9.85645 -0.154142 0)
(9.46843 -0.128509 0)
(9.33228 -0.0916494 0)
(9.02071 -0.0715204 0)
(8.94249 -0.0656444 0)
(8.66138 -0.0572457 0)
(8.67857 -0.0337897 0)
(8.39931 -0.0470138 0)
(8.43352 -0.0480205 0)
(8.1666 -0.0469202 0)
(8.21365 -0.0402025 0)
(7.91518 -0.0726912 0)
(7.92146 -0.0724049 0)
(7.57124 -0.0906037 0)
(10.0867 -0.838943 0)
(9.65078 -0.867678 0)
(8.87561 -0.50594 0)
(8.08111 -0.262025 0)
(7.49161 -0.13939 0)
(7.00461 -0.0804333 0)
(6.70721 -0.0535018 0)
(6.38139 -0.0441933 0)
(6.23728 -0.0290206 0)
(6.01305 -0.0206921 0)
(5.93979 -0.0218872 0)
(5.74843 -0.0217983 0)
(5.7457 -0.00889663 0)
(5.56271 -0.0182426 0)
(5.56968 -0.0211802 0)
(5.37821 -0.020989 0)
(5.39812 -0.0168227 0)
(5.17702 -0.0345164 0)
(5.1647 -0.0399369 0)
(4.86894 -0.0192472 0)
(8.09179 -0.388016 0)
(5.44733 -0.242537 0)
(3.9123 -0.0428037 0)
(3.15737 0.0155402 0)
(2.80003 0.0177824 0)
(2.59671 0.0114639 0)
(2.48851 0.00611169 0)
(2.37479 0.00112632 0)
(2.31927 0.00172185 0)
(2.24697 0.0018867 0)
(2.22356 -8.86853e-05 0)
(2.15259 -0.00144139 0)
(2.14848 0.00208765 0)
(2.09078 -0.000928627 0)
(2.08125 -0.00183082 0)
(2.00278 -0.00182731 0)
(1.99987 0.000318579 0)
(1.9123 -0.00441202 0)
(1.87062 -0.00452008 0)
(1.7169 0.0106829 0)
(2.3185 -0.118276 0)
(2.3652 0.0221032 0)
(2.50885 0.0629306 0)
(2.61059 0.0531184 0)
(2.76983 0.0126385 0)
(2.85202 -0.0224332 0)
(2.97282 -0.0578894 0)
(3.00896 -0.0733458 0)
(3.09357 -0.0687427 0)
(3.09738 -0.0576369 0)
(3.1698 -0.0398255 0)
(3.1732 -0.02717 0)
(3.25315 -0.0172969 0)
(3.26877 -0.00434504 0)
(3.35407 -0.00545383 0)
(3.37221 0.00498557 0)
(3.4544 0.00261121 0)
(3.47528 0.00582285 0)
(3.55101 0.0057781 0)
(3.57538 0.00256503 0)
(3.64276 0.000125842 0)
(3.66884 -0.00220762 0)
(3.72333 -0.0119576 0)
(3.75103 -0.0122153 0)
(3.79445 -0.0215386 0)
(3.82173 -0.0240171 0)
(3.8537 -0.0313602 0)
(3.88026 -0.0360714 0)
(3.90487 -0.044563 0)
(3.92838 -0.0554925 0)
(3.93846 -0.0656493 0)
(3.94883 -0.0737871 0)
(3.93795 -0.0863085 0)
(3.94421 -0.0905005 0)
(3.90938 -0.0914159 0)
(3.89744 -0.0787533 0)
(3.84861 -0.049672 0)
(3.82305 -0.00411977 0)
(3.77754 0.0551591 0)
(3.77426 0.128768 0)
(3.74239 0.224379 0)
(3.80055 0.329642 0)
(3.85223 0.444951 0)
(3.9913 0.563675 0)
(4.17459 0.671668 0)
(4.40453 0.744758 0)
(4.6861 0.774273 0)
(4.96937 0.719671 0)
(5.23965 0.584857 0)
(5.45796 0.398953 0)
(5.59051 0.164575 0)
(5.65057 -0.0766842 0)
(5.61534 -0.293549 0)
(5.53063 -0.465884 0)
(5.45664 -0.58209 0)
(5.41539 -0.689329 0)
(5.33001 -0.783433 0)
(5.28083 -0.839122 0)
(5.30229 -0.81661 0)
(5.33952 -0.712643 0)
(5.38868 -0.59808 0)
(5.41467 -0.50687 0)
(5.43899 -0.382477 0)
(5.43026 -0.181467 0)
(5.49961 0.0449779 0)
(5.5746 0.245354 0)
(5.79187 0.291112 0)
(5.99597 0.298212 0)
(6.1403 0.322442 0)
(6.3338 0.260534 0)
(6.39299 0.241484 0)
(6.44423 0.259935 0)
(6.49967 0.224685 0)
(6.48526 0.262668 0)
(6.48187 0.314758 0)
(6.54418 0.298693 0)
(6.61161 0.33764 0)
(6.70926 0.442433 0)
(6.85327 0.47128 0)
(7.05482 0.423248 0)
(7.26739 0.423902 0)
(7.61604 0.452632 0)
(7.95975 0.360332 0)
(8.21906 0.195708 0)
(8.51618 0.0987926 0)
(8.90767 -0.0474551 0)
(9.22284 -0.290361 0)
(9.54455 -0.54071 0)
(9.85773 -0.807125 0)
(10.0851 -1.10089 0)
(10.4068 -1.38152 0)
(10.6307 -1.71653 0)
(10.8562 -2.11375 0)
(11.0686 -2.45507 0)
(11.2378 -2.75312 0)
(11.5318 -3.17464 0)
(11.7837 -3.55103 0)
(11.9292 -3.87156 0)
(12.2873 -4.19078 0)
(12.5668 -4.54269 0)
(12.8761 -4.79616 0)
(13.1084 -5.06575 0)
(13.483 -5.2753 0)
(13.5804 -5.37207 0)
(13.8812 -5.47974 0)
(13.9001 -5.43868 0)
(14.0157 -5.31934 0)
(14.0623 -5.10433 0)
(14.0829 -4.81903 0)
(14.2693 -4.5301 0)
(14.2844 -4.20309 0)
(14.4823 -3.66169 0)
(14.3942 -3.21297 0)
(14.589 -2.62107 0)
(14.3821 -2.08923 0)
(14.494 -1.60795 0)
(14.1337 -1.04663 0)
(14.0772 -0.514794 0)
(13.6483 -0.132544 0)
(13.3741 0.326778 0)
(12.866 0.529238 0)
(12.5953 0.704746 0)
(12.0332 0.96443 0)
(11.711 0.781536 0)
(11.2566 0.755768 0)
(10.8409 0.759415 0)
(10.4402 0.396958 0)
(10.1432 0.199499 0)
(9.40303 0.15549 0)
(9.14759 -0.14457 0)
(8.39287 -0.330436 0)
(7.86013 -0.0659544 0)
(7.06627 -0.149121 0)
(7.02142 -0.0277673 0)
(6.04449 0.13336 0)
(6.62144 0.336458 0)
(5.71601 -0.0804931 0)
(6.15267 0.364735 0)
(4.78251 -0.916082 0)
(6.17844 -0.152491 0)
(4.61088 -0.749537 0)
(5.41182 0.375454 0)
(5.00608 -0.521121 0)
(5.98735 -1.12202 0)
(5.89906 -1.30009 0)
(5.12986 -1.03246 0)
(5.19288 -1.20355 0)
(5.67701 -2.17775 0)
(6.26921 -3.30961 0)
(7.01336 -3.83629 0)
(7.74788 -3.78152 0)
(8.44099 -3.59286 0)
(9.4801 -3.44033 0)
(10.3702 -3.47497 0)
(11.2288 -3.39206 0)
(11.8128 -2.9807 0)
(12.3237 -2.17273 0)
(12.4648 -1.42826 0)
(12.5742 -0.791879 0)
(12.4012 -0.19309 0)
(12.3371 0.315323 0)
(12.2818 0.720787 0)
(12.2639 1.18541 0)
(12.1887 1.80078 0)
(12.0928 2.45434 0)
(11.8804 3.12112 0)
(11.7029 3.85963 0)
(11.3127 4.5214 0)
(10.6498 4.95264 0)
(9.93923 5.41868 0)
(9.24886 6.10744 0)
(8.3303 6.61649 0)
(7.58286 6.85175 0)
(6.62408 6.8294 0)
(5.93509 6.65877 0)
(5.26996 6.29169 0)
(4.33971 6.10181 0)
(3.7714 6.01274 0)
(3.2202 5.75851 0)
(2.79355 5.08013 0)
(2.85436 4.25257 0)
(2.09311 3.84745 0)
(2.35939 3.67892 0)
(1.53964 3.74369 0)
(2.24012 2.75106 0)
(1.35831 2.57595 0)
(2.65578 1.34362 0)
(1.52323 1.85357 0)
(3.0079 0.8447 0)
(1.48951 1.36536 0)
(2.9901 0.277628 0)
(1.40357 1.17544 0)
(2.81204 -0.282062 0)
(2.15501 1.48002 0)
(2.54341 -0.324235 0)
(2.37398 1.13767 0)
(3.7745 1.7894 0)
(2.33196 2.00882 0)
(4.58971 2.73063 0)
(2.99146 6.23265 0)
(5.35358 -0.0645284 0)
(5.35371 -0.0358787 0)
(5.3492 -0.0271815 0)
(5.35158 -0.0284517 0)
(5.40126 -0.0568599 0)
(5.44759 -0.0751228 0)
(5.52123 -0.108251 0)
(5.55644 -0.120966 0)
(5.60699 -0.108265 0)
(5.61681 -0.101376 0)
(5.64548 -0.0729108 0)
(5.6583 -0.063427 0)
(5.6853 -0.056022 0)
(5.70995 -0.0388808 0)
(5.74459 -0.0472072 0)
(5.77488 -0.0343554 0)
(5.81761 -0.0384093 0)
(5.8434 -0.0374515 0)
(5.88428 -0.0286543 0)
(5.91277 -0.0393094 0)
(5.94608 -0.0324112 0)
(5.98004 -0.0339445 0)
(6.00355 -0.0421823 0)
(6.03757 -0.0363807 0)
(6.05717 -0.0493582 0)
(6.08401 -0.0481205 0)
(6.10275 -0.0484972 0)
(6.11995 -0.0594565 0)
(6.13649 -0.056272 0)
(6.1475 -0.0638403 0)
(6.1461 -0.067564 0)
(6.15355 -0.0671537 0)
(6.12875 -0.0725341 0)
(6.12012 -0.066566 0)
(6.08794 -0.0583073 0)
(6.05055 -0.0457085 0)
(6.0118 -0.0118447 0)
(5.96543 0.0262487 0)
(5.91183 0.0816438 0)
(5.87532 0.152728 0)
(5.83839 0.22165 0)
(5.81768 0.308041 0)
(5.8394 0.398863 0)
(5.88079 0.463218 0)
(5.97631 0.535458 0)
(6.1147 0.58348 0)
(6.29143 0.564704 0)
(6.49637 0.532822 0)
(6.70917 0.431011 0)
(6.89915 0.26462 0)
(7.05304 0.10532 0)
(7.15243 -0.0979379 0)
(7.21475 -0.297763 0)
(7.2404 -0.437714 0)
(7.26329 -0.570033 0)
(7.28773 -0.696745 0)
(7.30579 -0.749544 0)
(7.36638 -0.765276 0)
(7.39802 -0.782893 0)
(7.40722 -0.742457 0)
(7.41765 -0.684144 0)
(7.43365 -0.595057 0)
(7.50676 -0.438628 0)
(7.50046 -0.234662 0)
(7.54962 -0.0419847 0)
(7.63364 0.120207 0)
(7.77126 0.18755 0)
(7.88985 0.254548 0)
(7.94371 0.310376 0)
(8.05368 0.27245 0)
(8.06269 0.258344 0)
(8.02681 0.266037 0)
(8.03893 0.268033 0)
(8.00408 0.286127 0)
(7.97839 0.294094 0)
(8.00013 0.313667 0)
(8.01658 0.321595 0)
(8.04404 0.303226 0)
(8.14817 0.331648 0)
(8.344 0.321981 0)
(8.46128 0.252905 0)
(8.64681 0.214683 0)
(8.93568 0.118019 0)
(9.16973 -0.0462973 0)
(9.38227 -0.172862 0)
(9.69606 -0.345847 0)
(9.96265 -0.583077 0)
(10.2307 -0.845364 0)
(10.5507 -1.10911 0)
(10.798 -1.40166 0)
(11.0067 -1.74772 0)
(11.3075 -2.06002 0)
(11.5615 -2.39984 0)
(11.8381 -2.75855 0)
(12.0404 -3.06087 0)
(12.3151 -3.45503 0)
(12.6139 -3.80217 0)
(12.8826 -4.10593 0)
(13.0859 -4.41279 0)
(13.3782 -4.74349 0)
(13.5385 -4.97611 0)
(13.6888 -5.21534 0)
(13.7707 -5.31325 0)
(13.7641 -5.45981 0)
(13.828 -5.44965 0)
(13.665 -5.36816 0)
(13.8101 -5.24981 0)
(13.7783 -5.07368 0)
(14.0448 -4.84232 0)
(14.1471 -4.59709 0)
(14.5002 -4.24053 0)
(14.5108 -3.68402 0)
(14.7252 -3.23989 0)
(14.7438 -2.58962 0)
(14.722 -2.01205 0)
(14.675 -1.43527 0)
(14.4476 -0.800481 0)
(14.156 -0.23271 0)
(13.8122 0.189556 0)
(13.2892 0.71249 0)
(12.7908 0.928678 0)
(12.2528 1.12455 0)
(11.7615 1.26863 0)
(11.1932 1.14456 0)
(10.847 1.09512 0)
(10.1656 1.15602 0)
(10.0139 0.654307 0)
(9.38585 0.650973 0)
(8.90812 0.532502 0)
(8.4954 0.353888 0)
(7.83176 0.284011 0)
(7.34546 0.437775 0)
(6.70863 0.183139 0)
(6.41609 0.434123 0)
(5.79493 0.120576 0)
(6.64251 0.359301 0)
(5.30122 0.22586 0)
(6.35461 0.545352 0)
(5.05694 -0.930881 0)
(6.51208 0.0729081 0)
(4.15716 -0.474862 0)
(6.00064 0.393621 0)
(5.13477 -1.14583 0)
(6.01597 -0.980642 0)
(4.91746 -0.859704 0)
(4.83441 -0.860329 0)
(5.23947 -1.70453 0)
(5.81808 -2.71056 0)
(6.26648 -3.77255 0)
(6.88773 -4.2896 0)
(7.66034 -4.36946 0)
(8.65008 -4.31735 0)
(9.6555 -4.28606 0)
(10.7193 -4.33279 0)
(11.5248 -4.10484 0)
(11.884 -3.49322 0)
(12.2258 -2.52559 0)
(12.1491 -1.59111 0)
(12.1595 -0.786767 0)
(11.956 -0.18562 0)
(11.9702 0.298909 0)
(11.9939 0.693278 0)
(12.0014 1.16143 0)
(11.7775 1.78584 0)
(11.6455 2.51211 0)
(11.3382 3.31097 0)
(11.0612 4.12612 0)
(10.5822 4.79398 0)
(10.2618 5.48228 0)
(9.6411 6.05552 0)
(8.97973 6.7304 0)
(8.2076 7.23847 0)
(7.49888 7.56371 0)
(6.79422 7.5057 0)
(5.91318 7.09635 0)
(5.2374 6.8243 0)
(4.74584 6.53966 0)
(3.99526 6.43752 0)
(4.03748 6.16057 0)
(3.51027 5.32796 0)
(3.6189 4.73307 0)
(2.78893 4.53894 0)
(2.70277 3.53338 0)
(2.1321 3.50677 0)
(3.30323 1.84658 0)
(2.2754 2.76244 0)
(4.88878 1.09773 0)
(2.52064 2.20996 0)
(6.09413 0.405833 0)
(2.50713 1.78601 0)
(6.96363 0.0112975 0)
(2.50662 1.50569 0)
(7.47761 0.0023049 0)
(2.33835 0.949602 0)
(7.61495 0.225419 0)
(2.37056 1.96194 0)
(7.22234 0.00930254 0)
(3.39906 3.32622 0)
(7.24407 0.685694 0)
(4.8641 5.78352 0)
(8.02303 -0.0122895 0)
(8.01264 0.0257301 0)
(7.96854 0.0116384 0)
(7.96538 -0.0167366 0)
(7.9841 -0.0802205 0)
(8.01879 -0.0952332 0)
(8.07898 -0.12863 0)
(8.09564 -0.133437 0)
(8.13592 -0.109275 0)
(8.12934 -0.119658 0)
(8.13258 -0.0800537 0)
(8.14293 -0.0800702 0)
(8.13209 -0.0753958 0)
(8.16405 -0.0472457 0)
(8.16899 -0.0733417 0)
(8.19789 -0.050943 0)
(8.23177 -0.0526147 0)
(8.24216 -0.0618908 0)
(8.2771 -0.0385911 0)
(8.2932 -0.0614985 0)
(8.31026 -0.0504359 0)
(8.33537 -0.0470177 0)
(8.34219 -0.0685894 0)
(8.3644 -0.04925 0)
(8.37517 -0.0634161 0)
(8.38353 -0.0670174 0)
(8.40292 -0.0552623 0)
(8.39757 -0.0722335 0)
(8.41242 -0.0648418 0)
(8.413 -0.0670482 0)
(8.39906 -0.0688243 0)
(8.40924 -0.0629251 0)
(8.37435 -0.0614543 0)
(8.36746 -0.047358 0)
(8.33527 -0.0362731 0)
(8.29347 -0.00795634 0)
(8.26318 0.0226462 0)
(8.21789 0.0598531 0)
(8.16506 0.12533 0)
(8.13622 0.170606 0)
(8.0969 0.240161 0)
(8.07238 0.319597 0)
(8.07585 0.362846 0)
(8.09977 0.435962 0)
(8.13995 0.467237 0)
(8.2419 0.468387 0)
(8.3526 0.476523 0)
(8.48261 0.395047 0)
(8.65532 0.298327 0)
(8.79057 0.180535 0)
(8.92534 -0.00439996 0)
(9.03961 -0.160358 0)
(9.10354 -0.331371 0)
(9.18486 -0.482661 0)
(9.21763 -0.588116 0)
(9.26857 -0.722935 0)
(9.30308 -0.768482 0)
(9.34806 -0.804786 0)
(9.35565 -0.86863 0)
(9.3602 -0.806918 0)
(9.39034 -0.727217 0)
(9.39663 -0.637308 0)
(9.46482 -0.469572 0)
(9.45663 -0.297105 0)
(9.47703 -0.12213 0)
(9.56298 0.0326252 0)
(9.62865 0.110472 0)
(9.72384 0.200538 0)
(9.77862 0.280502 0)
(9.8534 0.265757 0)
(9.88285 0.295387 0)
(9.84286 0.308206 0)
(9.83861 0.286706 0)
(9.83644 0.335448 0)
(9.79384 0.325136 0)
(9.78666 0.28452 0)
(9.81383 0.321478 0)
(9.87485 0.281847 0)
(9.91566 0.245216 0)
(10.0545 0.2272 0)
(10.1669 0.12894 0)
(10.2589 0.0406858 0)
(10.5206 -0.0460372 0)
(10.7178 -0.197023 0)
(10.8544 -0.355893 0)
(11.1458 -0.544358 0)
(11.3619 -0.754658 0)
(11.6014 -0.995997 0)
(11.8658 -1.27109 0)
(12.0652 -1.57102 0)
(12.3049 -1.86949 0)
(12.5623 -2.13264 0)
(12.7553 -2.49303 0)
(12.9816 -2.83258 0)
(13.1671 -3.15958 0)
(13.3424 -3.46671 0)
(13.5355 -3.82788 0)
(13.6344 -4.13759 0)
(13.6806 -4.45601 0)
(13.7339 -4.71296 0)
(13.6547 -4.9635 0)
(13.6207 -5.15406 0)
(13.3995 -5.287 0)
(13.4104 -5.36695 0)
(13.2943 -5.4061 0)
(13.3488 -5.3575 0)
(13.5289 -5.34895 0)
(13.8306 -5.32207 0)
(14.1491 -5.09681 0)
(14.3663 -4.89084 0)
(14.7759 -4.47068 0)
(14.7763 -3.973 0)
(15.0754 -3.43941 0)
(14.969 -2.74495 0)
(15.0921 -2.05018 0)
(14.8162 -1.38914 0)
(14.7462 -0.629251 0)
(14.2919 0.0159715 0)
(14.1222 0.541301 0)
(13.3122 1.21627 0)
(12.996 1.41414 0)
(12.0629 1.65464 0)
(11.6351 1.7815 0)
(10.6703 1.60905 0)
(10.4566 1.52002 0)
(9.52187 1.39463 0)
(9.47831 1.12794 0)
(8.47177 1.14441 0)
(8.32402 0.940281 0)
(7.63 0.700289 0)
(7.26714 0.684315 0)
(6.92979 0.749605 0)
(6.38748 0.663529 0)
(6.09598 0.663787 0)
(5.87161 0.135955 0)
(6.26236 0.414407 0)
(5.04024 0.552955 0)
(6.51568 0.207248 0)
(5.0492 -0.759963 0)
(6.33339 0.495485 0)
(4.1668 -0.388764 0)
(6.533 -0.0273072 0)
(4.76461 -1.12444 0)
(5.83351 -0.453034 0)
(4.38723 -0.726069 0)
(5.07361 -0.889483 0)
(5.18592 -1.99083 0)
(5.46574 -3.14921 0)
(6.23207 -4.2375 0)
(7.01771 -4.94537 0)
(7.64431 -5.44068 0)
(8.664 -5.37241 0)
(9.63091 -5.30851 0)
(10.4629 -5.01106 0)
(10.9136 -4.52441 0)
(11.2125 -3.71205 0)
(11.2798 -2.57409 0)
(11.2005 -1.5328 0)
(11.2138 -0.74164 0)
(11.2035 -0.216014 0)
(11.3682 0.25021 0)
(11.5243 0.640763 0)
(11.5688 1.24317 0)
(11.3914 1.96915 0)
(11.1642 2.78816 0)
(10.8013 3.46505 0)
(10.4911 4.23834 0)
(10.1541 5.12017 0)
(9.7101 5.97602 0)
(9.20159 6.49067 0)
(8.61555 7.16647 0)
(8.1383 7.954 0)
(7.27844 8.06211 0)
(6.54438 8.13061 0)
(6.17346 7.8012 0)
(5.21964 7.29707 0)
(5.16694 7.12159 0)
(4.48588 6.63162 0)
(4.21385 6.21594 0)
(4.4903 5.56765 0)
(3.4378 4.73213 0)
(3.51329 4.68071 0)
(4.06693 3.246 0)
(2.45698 3.89936 0)
(6.17755 1.77182 0)
(1.78454 2.54703 0)
(8.18943 -0.00944614 0)
(1.84185 1.92862 0)
(9.19346 -0.56698 0)
(2.34215 2.16584 0)
(9.33772 -1.26177 0)
(3.20737 2.16145 0)
(8.85481 -1.81476 0)
(4.18795 2.26916 0)
(8.41945 -1.87045 0)
(4.52408 2.18901 0)
(8.69616 -1.34477 0)
(5.2126 3.13734 0)
(8.98427 0.393292 0)
(6.61801 4.76356 0)
(10.3008 0.0538673 0)
(10.297 0.0972248 0)
(10.1648 0.0243034 0)
(10.1474 -0.0187815 0)
(10.1582 -0.13166 0)
(10.166 -0.123115 0)
(10.2763 -0.140276 0)
(10.2556 -0.146926 0)
(10.3252 -0.0759546 0)
(10.2969 -0.127575 0)
(10.2665 -0.0627707 0)
(10.2993 -0.0777552 0)
(10.223 -0.0973276 0)
(10.2904 -0.0338747 0)
(10.2542 -0.104027 0)
(10.2751 -0.0560697 0)
(10.3269 -0.0671241 0)
(10.2898 -0.0876208 0)
(10.3545 -0.0328035 0)
(10.3477 -0.0923826 0)
(10.365 -0.0450719 0)
(10.3905 -0.0497582 0)
(10.3745 -0.0848753 0)
(10.4029 -0.0333384 0)
(10.3874 -0.0835934 0)
(10.3897 -0.0653204 0)
(10.4025 -0.0520519 0)
(10.3835 -0.0893287 0)
(10.3977 -0.0448166 0)
(10.399 -0.0622492 0)
(10.3692 -0.061371 0)
(10.3955 -0.0248813 0)
(10.3431 -0.050861 0)
(10.3451 -0.019768 0)
(10.3149 0.00772918 0)
(10.2707 0.00333161 0)
(10.2581 0.0685445 0)
(10.2162 0.0888924 0)
(10.1777 0.144397 0)
(10.1781 0.219365 0)
(10.1358 0.239335 0)
(10.1452 0.323289 0)
(10.1538 0.375861 0)
(10.1765 0.386615 0)
(10.2275 0.42837 0)
(10.3013 0.416345 0)
(10.4031 0.389107 0)
(10.4933 0.318732 0)
(10.6232 0.208819 0)
(10.7402 0.102575 0)
(10.8172 -0.0621039 0)
(10.9316 -0.21251 0)
(10.9855 -0.3663 0)
(11.023 -0.512268 0)
(11.0617 -0.605097 0)
(11.0884 -0.740468 0)
(11.0697 -0.792053 0)
(11.0987 -0.816884 0)
(11.0733 -0.885226 0)
(11.048 -0.798218 0)
(11.0732 -0.726842 0)
(11.026 -0.662952 0)
(11.0588 -0.486009 0)
(11.0519 -0.358145 0)
(11.0248 -0.21975 0)
(11.1118 -0.0182782 0)
(11.1473 0.0728427 0)
(11.2101 0.140437 0)
(11.3059 0.265683 0)
(11.3456 0.269311 0)
(11.3554 0.276377 0)
(11.3886 0.331109 0)
(11.3826 0.29225 0)
(11.3601 0.314656 0)
(11.3897 0.347857 0)
(11.4092 0.290458 0)
(11.4162 0.295618 0)
(11.5005 0.252219 0)
(11.5559 0.188802 0)
(11.6351 0.13925 0)
(11.7633 0.0279553 0)
(11.8419 -0.0523031 0)
(12.0179 -0.180839 0)
(12.1745 -0.358339 0)
(12.3009 -0.502057 0)
(12.4913 -0.700546 0)
(12.6828 -0.912571 0)
(12.8369 -1.15171 0)
(13.0134 -1.42822 0)
(13.1742 -1.67908 0)
(13.3392 -1.97236 0)
(13.4385 -2.27507 0)
(13.5581 -2.5802 0)
(13.6263 -2.932 0)
(13.7082 -3.20097 0)
(13.6674 -3.53828 0)
(13.6577 -3.87569 0)
(13.5358 -4.15039 0)
(13.4493 -4.46967 0)
(13.2284 -4.71478 0)
(13.1271 -4.94384 0)
(12.9287 -5.18083 0)
(12.8563 -5.25014 0)
(12.9031 -5.43377 0)
(13.0474 -5.57244 0)
(13.3099 -5.65891 0)
(13.6453 -5.76268 0)
(14.1141 -5.76013 0)
(14.2516 -5.51336 0)
(14.5627 -5.22777 0)
(14.7155 -4.77706 0)
(14.7481 -4.19524 0)
(14.8927 -3.58325 0)
(14.7894 -2.82204 0)
(14.7914 -2.0478 0)
(14.5202 -1.35407 0)
(14.5009 -0.45647 0)
(14.0898 0.211169 0)
(14.0439 0.902168 0)
(13.2775 1.57321 0)
(13.079 1.93868 0)
(12.0301 2.21935 0)
(11.5649 2.42537 0)
(10.5071 2.14523 0)
(10.0377 2.1297 0)
(9.01093 1.7935 0)
(8.8031 1.62146 0)
(8.07556 1.4708 0)
(7.98825 1.33347 0)
(7.37787 1.16294 0)
(6.81496 1.0769 0)
(6.88194 0.952485 0)
(5.96599 1.14591 0)
(6.21617 0.57148 0)
(5.92409 0.294673 0)
(5.97931 0.69296 0)
(5.18972 0.460366 0)
(6.54881 0.0868025 0)
(4.81416 -0.330801 0)
(6.15325 0.423549 0)
(4.45721 -0.305741 0)
(6.34939 -0.228795 0)
(4.51312 -0.790763 0)
(5.70257 -0.0745726 0)
(4.01966 -0.765461 0)
(5.10412 -1.07187 0)
(4.754 -2.13972 0)
(5.45545 -3.6755 0)
(6.12453 -4.99025 0)
(6.8547 -5.58151 0)
(7.27666 -6.1751 0)
(8.1168 -5.96472 0)
(8.8575 -5.83766 0)
(9.5695 -5.32162 0)
(9.65868 -4.56002 0)
(9.80237 -3.52954 0)
(9.7414 -2.35399 0)
(9.80044 -1.35921 0)
(9.98619 -0.744582 0)
(10.3147 -0.278328 0)
(10.6185 0.109295 0)
(10.8398 0.588154 0)
(10.7092 1.31555 0)
(10.639 2.13927 0)
(10.3547 2.93645 0)
(10.1758 3.75706 0)
(9.90228 4.65938 0)
(9.54592 5.59849 0)
(9.03658 6.20322 0)
(8.768 6.88398 0)
(8.331 7.5861 0)
(7.66092 8.45887 0)
(7.42083 8.64562 0)
(6.4623 8.53041 0)
(6.36714 8.4483 0)
(5.96915 7.5477 0)
(5.11104 7.49908 0)
(5.60029 7.16037 0)
(4.5858 6.28925 0)
(4.48665 6.07402 0)
(5.22722 4.7449 0)
(2.83475 5.09251 0)
(7.12262 3.2346 0)
(1.89497 3.77589 0)
(8.8015 0.533069 0)
(2.7491 2.59537 0)
(9.01117 -0.549735 0)
(3.90964 2.89603 0)
(8.19084 -1.11291 0)
(4.4915 2.47918 0)
(7.0154 -1.49313 0)
(4.56071 2.4622 0)
(6.46235 -1.60643 0)
(4.40938 2.22969 0)
(6.36716 -1.42376 0)
(4.54701 2.80724 0)
(6.63347 -1.21667 0)
(4.78398 3.14706 0)
(7.59248 0.277816 0)
(6.37005 3.71034 0)
(11.8177 0.0644262 0)
(11.8165 0.0419709 0)
(11.6866 -0.0398815 0)
(11.6443 -0.0696162 0)
(11.7483 -0.162751 0)
(11.7203 -0.148276 0)
(11.8848 -0.163099 0)
(11.8571 -0.160262 0)
(11.8825 -0.085126 0)
(11.9095 -0.131097 0)
(11.7718 -0.0682773 0)
(11.8742 -0.0791394 0)
(11.729 -0.129576 0)
(11.7903 -0.0448765 0)
(11.8019 -0.120486 0)
(11.7305 -0.0927164 0)
(11.8819 -0.0588915 0)
(11.7784 -0.118791 0)
(11.8467 -0.0411725 0)
(11.8731 -0.105016 0)
(11.8115 -0.079273 0)
(11.9078 -0.0424943 0)
(11.8379 -0.121645 0)
(11.8666 -0.0343758 0)
(11.8975 -0.0755911 0)
(11.8116 -0.0948504 0)
(11.883 -0.0347736 0)
(11.8317 -0.0951253 0)
(11.8015 -0.0716369 0)
(11.872 -0.0512309 0)
(11.777 -0.0750867 0)
(11.8279 -0.0370409 0)
(11.8282 -0.0291114 0)
(11.7545 -0.0186044 0)
(11.8106 0.0357381 0)
(11.7383 0.0311486 0)
(11.7132 0.0676095 0)
(11.7369 0.124327 0)
(11.6506 0.140878 0)
(11.6985 0.196802 0)
(11.7008 0.253777 0)
(11.686 0.286181 0)
(11.7674 0.331719 0)
(11.8014 0.371666 0)
(11.8649 0.358613 0)
(11.9373 0.348031 0)
(12.0364 0.331376 0)
(12.121 0.224826 0)
(12.2119 0.140306 0)
(12.298 0.0373606 0)
(12.3646 -0.139881 0)
(12.4285 -0.234784 0)
(12.4633 -0.388171 0)
(12.4569 -0.544438 0)
(12.4635 -0.59809 0)
(12.4491 -0.736995 0)
(12.3737 -0.798797 0)
(12.3622 -0.790615 0)
(12.3025 -0.849545 0)
(12.2121 -0.781217 0)
(12.2098 -0.704222 0)
(12.1118 -0.654382 0)
(12.0807 -0.499499 0)
(12.0747 -0.379658 0)
(12.0217 -0.276516 0)
(12.0599 -0.0768598 0)
(12.1123 0.030908 0)
(12.1575 0.0995755 0)
(12.2611 0.212374 0)
(12.349 0.242257 0)
(12.3823 0.283219 0)
(12.4358 0.329384 0)
(12.4434 0.273994 0)
(12.45 0.308075 0)
(12.4705 0.317663 0)
(12.5 0.255874 0)
(12.5162 0.246125 0)
(12.5892 0.188464 0)
(12.6519 0.118347 0)
(12.7188 0.0492235 0)
(12.8589 -0.0634126 0)
(12.9155 -0.148848 0)
(13.0427 -0.288584 0)
(13.1781 -0.450351 0)
(13.2559 -0.597495 0)
(13.3854 -0.800593 0)
(13.492 -1.00821 0)
(13.565 -1.25183 0)
(13.6586 -1.47118 0)
(13.6988 -1.75089 0)
(13.7134 -2.03757 0)
(13.7334 -2.3215 0)
(13.6802 -2.602 0)
(13.6455 -2.91256 0)
(13.4983 -3.2138 0)
(13.3882 -3.55286 0)
(13.2097 -3.82809 0)
(13.0701 -4.11896 0)
(12.8787 -4.43044 0)
(12.7119 -4.6592 0)
(12.6786 -4.88091 0)
(12.6098 -5.09256 0)
(12.7192 -5.29179 0)
(12.8629 -5.53741 0)
(13.2233 -5.84078 0)
(13.4189 -5.96099 0)
(13.7339 -6.06434 0)
(13.924 -5.97595 0)
(13.9181 -5.69408 0)
(14.0492 -5.33412 0)
(13.9963 -4.81079 0)
(13.9905 -4.1649 0)
(13.9655 -3.47873 0)
(13.8687 -2.67993 0)
(13.7216 -1.89482 0)
(13.6372 -1.20185 0)
(13.4986 -0.258959 0)
(13.3187 0.386556 0)
(13.2444 1.15802 0)
(12.8021 1.83015 0)
(12.5626 2.34221 0)
(11.9307 2.76063 0)
(11.2987 3.02725 0)
(10.4634 2.76691 0)
(9.75169 2.81959 0)
(8.959 2.40108 0)
(8.25086 2.12574 0)
(7.81978 1.79626 0)
(7.17444 1.58582 0)
(6.98912 1.55222 0)
(6.32845 1.26852 0)
(6.63861 1.25415 0)
(5.6652 1.34141 0)
(6.30438 0.632812 0)
(5.68708 0.366689 0)
(5.76905 0.942861 0)
(5.43243 0.267468 0)
(6.05571 0.16583 0)
(4.89634 -0.0351675 0)
(5.69712 0.389832 0)
(4.72649 -0.294486 0)
(5.83333 -0.2696 0)
(4.4097 -0.454243 0)
(5.3145 0.0381618 0)
(3.86207 -0.518413 0)
(4.81039 -1.15977 0)
(4.38747 -2.75549 0)
(5.58576 -4.18562 0)
(5.41016 -5.31367 0)
(6.42364 -5.97967 0)
(6.5018 -6.6368 0)
(7.45872 -6.57196 0)
(8.03036 -6.24559 0)
(8.40178 -5.67603 0)
(8.40924 -4.75717 0)
(8.40998 -3.6078 0)
(8.48947 -2.61454 0)
(8.84709 -1.73398 0)
(9.08231 -1.20578 0)
(9.51493 -0.679707 0)