/*--------------------------------*- C++ -*----------------------------------*\
| =========                 |                                                 |
| \\      /  F ield         | OpenFOAM: The Open Source CFD Toolbox           |
|  \\    /   O peration     | Version:  2.4.0                                 |
|   \\  /    A nd           | Web:      www.OpenFOAM.org                      |
|    \\/     M anipulation  |                                                 |
\*---------------------------------------------------------------------------*/
FoamFile
{
    version     2.0;
    format      ascii;
    class       volVectorField;
    location    "1.14";
    object      UMean;
}
// * * * * * * * * * * * * * * * * * * * * * * * * * * * * * * * * * * * * * //

dimensions      [0 1 -1 0 0 0 0];

internalField   nonuniform List<vector> 
8800
(
(8.09341 0.387092 0)
(5.45843 0.242562 0)
(3.92932 0.0429775 0)
(3.16358 -0.015146 0)
(2.82509 -0.0184412 0)
(2.6026 -0.0107901 0)
(2.51665 -0.0059733 0)
(2.38454 -0.00183742 0)
(2.35916 -0.0019414 0)
(2.25473 2.59134e-05 0)
(2.26349 -0.00124131 0)
(2.17082 0.000700324 0)
(2.19637 -0.000801333 0)
(2.10375 0.00130346 0)
(2.13492 -0.000488591 0)
(2.03914 0.00193362 0)
(2.06933 -0.000467306 0)
(1.96658 0.00162546 0)
(2.02061 0.00679807 0)
(1.7327 -0.059096 0)
(10.0888 0.836046 0)
(9.64839 0.866126 0)
(8.90076 0.505343 0)
(8.06377 0.261526 0)
(7.53792 0.136775 0)
(6.97973 0.0821678 0)
(6.76011 0.0522478 0)
(6.36748 0.0409277 0)
(6.30846 0.027629 0)
(5.98988 0.0251731 0)
(6.02858 0.016157 0)
(5.74312 0.0191311 0)
(5.83802 0.0121181 0)
(5.56028 0.0183782 0)
(5.68303 0.0116487 0)
(5.4016 0.0192324 0)
(5.53643 0.0155747 0)
(5.23608 0.0140236 0)
(5.4089 0.0311823 0)
(5.00867 -0.0440437 0)
(10.0882 0.62997 0)
(10.6209 0.861219 0)
(10.9217 0.59902 0)
(10.6329 0.37284 0)
(10.5278 0.253604 0)
(10.0132 0.196243 0)
(9.92891 0.149916 0)
(9.41252 0.122804 0)
(9.43078 0.0898887 0)
(8.94569 0.0771402 0)
(9.0677 0.0539267 0)
(8.60679 0.0541995 0)
(8.80605 0.0373244 0)
(8.34956 0.0456506 0)
(8.59875 0.0317893 0)
(8.1318 0.0434954 0)
(8.41213 0.0359396 0)
(7.91791 0.0410537 0)
(8.22783 0.0469051 0)
(7.69722 -0.0339187 0)
(10.0765 0.456943 0)
(10.4798 0.70275 0)
(11.2694 0.543442 0)
(11.2638 0.351934 0)
(11.6717 0.259238 0)
(11.3339 0.22764 0)
(11.6221 0.19589 0)
(11.162 0.176416 0)
(11.4469 0.141507 0)
(10.9315 0.127285 0)
(11.2522 0.0971946 0)
(10.7072 0.0957529 0)
(11.0712 0.0715502 0)
(10.5003 0.0807952 0)
(10.903 0.0587423 0)
(10.3044 0.076851 0)
(10.7368 0.0550541 0)
(10.1052 0.0841294 0)
(10.5453 0.051093 0)
(9.88278 0.0787702 0)
(10.2034 0.347123 0)
(10.2458 0.564708 0)
(11.2101 0.458154 0)
(11.1439 0.294943 0)
(11.8218 0.205459 0)
(11.5091 0.194437 0)
(12.0516 0.172784 0)
(11.6526 0.172277 0)
(12.1616 0.137331 0)
(11.7191 0.137023 0)
(12.2186 0.100009 0)
(11.7439 0.112734 0)
(12.2396 0.0768111 0)
(11.7361 0.103827 0)
(12.227 0.0639867 0)
(11.6977 0.106208 0)
(12.1796 0.0573134 0)
(11.6269 0.121218 0)
(12.0794 0.0485938 0)
(11.4839 0.132654 0)
(10.223 0.250167 0)
(10.1731 0.455135 0)
(11.0424 0.371238 0)
(11.0549 0.250183 0)
(11.6602 0.154934 0)
(11.487 0.155134 0)
(11.9282 0.134287 0)
(11.7084 0.146828 0)
(12.1019 0.109696 0)
(11.8831 0.119382 0)
(12.2518 0.0795888 0)
(12.0354 0.099467 0)
(12.3809 0.0622656 0)
(12.1639 0.0936662 0)
(12.4839 0.0558506 0)
(12.2651 0.0975376 0)
(12.5561 0.056206 0)
(12.3326 0.108436 0)
(12.5766 0.0514415 0)
(12.2899 0.0705361 0)
(10.0844 0.168252 0)
(10.2478 0.359013 0)
(10.7998 0.279691 0)
(11.0767 0.211401 0)
(11.4241 0.10846 0)
(11.5232 0.123228 0)
(11.702 0.0942506 0)
(11.7413 0.12401 0)
(11.8767 0.0763615 0)
(11.92 0.102336 0)
(12.0391 0.0513174 0)
(12.0867 0.0863973 0)
(12.1901 0.0367422 0)
(12.2382 0.0829834 0)
(12.3247 0.0317879 0)
(12.3713 0.0881271 0)
(12.44 0.031371 0)
(12.4787 0.096371 0)
(12.5094 0.0194858 0)
(12.4609 0.0537396 0)
(9.97195 0.105719 0)
(10.3018 0.26113 0)
(10.6325 0.193251 0)
(11.0774 0.161662 0)
(11.2654 0.0705112 0)
(11.5313 0.0900803 0)
(11.5558 0.0610586 0)
(11.7406 0.0953387 0)
(11.7282 0.0494632 0)
(11.9114 0.0792716 0)
(11.8918 0.0304167 0)
(12.0746 0.0674859 0)
(12.0459 0.0193827 0)
(12.2242 0.065291 0)
(12.1849 0.0153791 0)
(12.3567 0.0690098 0)
(12.3061 0.0129495 0)
(12.4645 0.0719239 0)
(12.3797 -0.0031175 0)
(12.4344 0.0335766 0)
(9.89868 0.0550503 0)
(10.3381 0.162418 0)
(10.5214 0.110549 0)
(11.0793 0.104135 0)
(11.1589 0.0360909 0)
(11.5392 0.0593424 0)
(11.4574 0.0305711 0)
(11.744 0.0645269 0)
(11.6271 0.0241862 0)
(11.9108 0.0544786 0)
(11.7908 0.0117508 0)
(12.0734 0.0470396 0)
(11.9464 0.00463232 0)
(12.2236 0.0453635 0)
(12.0869 0.00117982 0)
(12.3574 0.0460524 0)
(12.2093 -0.00304932 0)
(12.4662 0.0428809 0)
(12.2801 -0.0203269 0)
(12.4272 0.00287224 0)
(9.88026 0.0109692 0)
(10.3403 0.0645649 0)
(10.485 0.0285239 0)
(11.0665 0.0443622 0)
(11.1273 0.00320953 0)
(11.5311 0.0296027 0)
(11.4332 0.0010546 0)
(11.7352 0.0323253 0)
(11.6044 -0.00138246 0)
(11.9018 0.0290399 0)
(11.7707 -0.00655301 0)
(12.0665 0.0263697 0)
(11.9293 -0.0102417 0)
(12.2196 0.0251328 0)
(12.0728 -0.0138344 0)
(12.3569 0.0228314 0)
(12.1979 -0.0203121 0)
(12.4695 0.0151661 0)
(12.2694 -0.037267 0)
(12.4313 -0.0152095 0)
(9.90594 -0.0304597 0)
(10.3167 -0.0344936 0)
(10.5123 -0.0538245 0)
(11.047 -0.0176642 0)
(11.157 -0.0294351 0)
(11.515 -0.00188641 0)
(11.4653 -0.0281121 0)
(11.7224 -0.00242163 0)
(11.6389 -0.0269981 0)
(11.8926 0.00129982 0)
(11.8078 -0.0245161 0)
(12.0609 0.00355566 0)
(11.969 -0.0250768 0)
(12.2179 0.00245716 0)
(12.1152 -0.0290885 0)
(12.3595 -0.00282117 0)
(12.2433 -0.0378542 0)
(12.4765 -0.0141452 0)
(12.3174 -0.053215 0)
(12.441 -0.0338755 0)
(9.94864 -0.0736713 0)
(10.2898 -0.1355 0)
(10.576 -0.134931 0)
(11.038 -0.0803904 0)
(11.2208 -0.0608087 0)
(11.5036 -0.0346268 0)
(11.5268 -0.0560004 0)
(11.7139 -0.0378861 0)
(11.7035 -0.0509288 0)
(11.8874 -0.0275187 0)
(11.8746 -0.0412582 0)
(12.0573 -0.0204213 0)
(12.0377 -0.0384958 0)
(12.2155 -0.0211341 0)
(12.186 -0.0429394 0)
(12.3577 -0.0292511 0)
(12.3164 -0.0542888 0)
(12.4745 -0.0444931 0)
(12.3933 -0.0691209 0)
(12.4387 -0.0529707 0)
(9.98074 -0.122746 0)
(10.2861 -0.238719 0)
(10.651 -0.215781 0)
(11.0617 -0.141758 0)
(11.2939 -0.0927141 0)
(11.5171 -0.0688062 0)
(11.5924 -0.0841655 0)
(11.7289 -0.07273 0)
(11.7723 -0.0742091 0)
(11.9037 -0.0561991 0)
(11.944 -0.0581134 0)
(12.0723 -0.0444502 0)
(12.1067 -0.0519597 0)
(12.2282 -0.0441645 0)
(12.2545 -0.0567914 0)
(12.3676 -0.0543537 0)
(12.3842 -0.0715697 0)
(12.4814 -0.0740019 0)
(12.4628 -0.0897798 0)
(12.4473 -0.072043 0)
(10.016 -0.181902 0)
(10.2955 -0.343195 0)
(10.7516 -0.297692 0)
(11.1105 -0.197009 0)
(11.389 -0.126421 0)
(11.5522 -0.107278 0)
(11.6752 -0.112948 0)
(11.7671 -0.108017 0)
(11.8572 -0.0967938 0)
(11.9446 -0.0860045 0)
(12.0268 -0.0746642 0)
(12.1122 -0.0703533 0)
(12.1854 -0.0649351 0)
(12.2655 -0.0689906 0)
(12.3277 -0.0690208 0)
(12.4006 -0.0804113 0)
(12.4496 -0.0864353 0)
(12.5081 -0.105133 0)
(12.5211 -0.111031 0)
(12.475 -0.102141 0)
(10.0554 -0.257296 0)
(10.315 -0.447577 0)
(10.8925 -0.381339 0)
(11.1775 -0.242906 0)
(11.5221 -0.165398 0)
(11.6011 -0.146707 0)
(11.7958 -0.144992 0)
(11.8161 -0.139441 0)
(11.9736 -0.121656 0)
(11.9869 -0.112439 0)
(12.1272 -0.0936294 0)
(12.1371 -0.0939762 0)
(12.2594 -0.0799002 0)
(12.2634 -0.0916164 0)
(12.364 -0.0808326 0)
(12.3603 -0.103225 0)
(12.4333 -0.0969767 0)
(12.4157 -0.132453 0)
(12.4367 -0.126844 0)
(12.329 -0.140855 0)
(10.0499 -0.351078 0)
(10.3921 -0.559935 0)
(11.0459 -0.463673 0)
(11.2952 -0.289766 0)
(11.6538 -0.212485 0)
(11.6611 -0.187977 0)
(11.8766 -0.180553 0)
(11.8066 -0.166153 0)
(11.9779 -0.146911 0)
(11.8757 -0.130823 0)
(12.0248 -0.112093 0)
(11.9028 -0.107222 0)
(12.0326 -0.0930008 0)
(11.8947 -0.100721 0)
(12.0009 -0.0879723 0)
(11.8495 -0.108834 0)
(11.9217 -0.0979353 0)
(11.7551 -0.138399 0)
(11.7602 -0.126892 0)
(11.5294 -0.163176 0)
(10.003 -0.459334 0)
(10.5592 -0.700112 0)
(11.1675 -0.545687 0)
(11.3658 -0.349917 0)
(11.5565 -0.263227 0)
(11.4463 -0.224782 0)
(11.4925 -0.20038 0)
(11.2831 -0.173607 0)
(11.3022 -0.147128 0)
(11.0589 -0.124675 0)
(11.091 -0.104162 0)
(10.8378 -0.0945233 0)
(10.89 -0.080517 0)
(10.6288 -0.083527 0)
(10.6928 -0.0712827 0)
(10.4205 -0.088375 0)
(10.4782 -0.0755084 0)
(10.1869 -0.116858 0)
(10.1924 -0.0971319 0)
(9.8536 -0.160538 0)
(10.0586 -0.632533 0)
(10.6545 -0.858577 0)
(10.866 -0.60019 0)
(10.69 -0.371565 0)
(10.4584 -0.256361 0)
(10.0825 -0.194425 0)
(9.84465 -0.1531 0)
(9.4901 -0.120516 0)
(9.33324 -0.0939472 0)
(9.02769 -0.0747515 0)
(8.95737 -0.0591676 0)
(8.68799 -0.0524316 0)
(8.68078 -0.0443141 0)
(8.42199 -0.0462725 0)
(8.45081 -0.0414254 0)
(8.18217 -0.0508965 0)
(8.22045 -0.0490693 0)
(7.92176 -0.0705627 0)
(7.92305 -0.071846 0)
(7.57356 -0.0898574 0)
(10.0799 -0.837466 0)
(9.65682 -0.864441 0)
(8.876 -0.505733 0)
(8.09155 -0.260853 0)
(7.50246 -0.138394 0)
(7.01607 -0.0813181 0)
(6.7124 -0.0538153 0)
(6.40943 -0.0397264 0)
(6.25201 -0.0296216 0)
(6.03362 -0.0239717 0)
(5.96421 -0.0187123 0)
(5.78346 -0.0182737 0)
(5.76448 -0.0155212 0)
(5.58923 -0.0186964 0)
(5.59417 -0.0165925 0)
(5.40507 -0.0231958 0)
(5.41345 -0.0224225 0)
(5.18943 -0.0331384 0)
(5.17716 -0.0388018 0)
(4.87952 -0.0203341 0)
(8.0917 -0.387482 0)
(5.45717 -0.242028 0)
(3.92436 -0.043263 0)
(3.17217 0.0152463 0)
(2.81533 0.0180123 0)
(2.61293 0.0111292 0)
(2.50118 0.00559502 0)
(2.39665 0.00228104 0)
(2.34065 0.00145094 0)
(2.26702 0.000422125 0)
(2.24158 0.000672275 0)
(2.1808 -0.000262418 0)
(2.16994 0.000155867 0)
(2.10695 -0.00111246 0)
(2.09977 -0.000364595 0)
(2.02655 -0.00229546 0)
(2.01368 -0.00117185 0)
(1.92138 -0.00386681 0)
(1.88291 -0.00435453 0)
(1.72978 0.0114813 0)
(2.25894 -0.103156 0)
(2.31183 -0.0168542 0)
(2.57023 -0.00976048 0)
(2.65691 -0.0234347 0)
(2.90949 -0.0453449 0)
(2.95622 -0.0496255 0)
(3.17224 -0.0556772 0)
(3.17214 -0.0479126 0)
(3.35354 -0.0530117 0)
(3.32612 -0.0518027 0)
(3.50023 -0.0607764 0)
(3.46035 -0.0611649 0)
(3.63929 -0.0725974 0)
(3.59487 -0.073556 0)
(3.77819 -0.0847364 0)
(3.72987 -0.0853137 0)
(3.92066 -0.0964525 0)
(3.87032 -0.0969981 0)
(4.07558 -0.107883 0)
(4.02516 -0.105882 0)
(4.23906 -0.11925 0)
(4.18243 -0.121375 0)
(4.3999 -0.138185 0)
(4.33362 -0.142329 0)
(4.55271 -0.161946 0)
(4.4752 -0.168159 0)
(4.69513 -0.188617 0)
(4.60613 -0.192298 0)
(4.82877 -0.209601 0)
(4.73481 -0.209867 0)
(4.96496 -0.227457 0)
(4.87365 -0.229229 0)
(5.11428 -0.250385 0)
(5.02366 -0.254223 0)
(5.26911 -0.276364 0)
(5.17248 -0.279108 0)
(5.42158 -0.300014 0)
(5.31765 -0.300728 0)
(5.5737 -0.321635 0)
(5.463 -0.323075 0)
(5.72616 -0.346258 0)
(5.60837 -0.350678 0)
(5.87567 -0.379148 0)
(5.74786 -0.387039 0)
(6.01425 -0.41846 0)
(5.87286 -0.425651 0)
(6.13798 -0.456502 0)
(5.98559 -0.458358 0)
(6.2527 -0.486703 0)
(6.09583 -0.481614 0)
(6.36875 -0.506585 0)
(6.21052 -0.49502 0)
(6.49586 -0.516842 0)
(6.33322 -0.501825 0)
(6.63803 -0.524114 0)
(6.46454 -0.509001 0)
(6.79153 -0.533651 0)
(6.60067 -0.519465 0)
(6.94759 -0.545557 0)
(6.73529 -0.531981 0)
(7.10003 -0.561857 0)
(6.87475 -0.55103 0)
(7.25423 -0.588226 0)
(7.03009 -0.581431 0)
(7.41067 -0.627092 0)
(7.19315 -0.62399 0)
(7.55865 -0.673588 0)
(7.33781 -0.671233 0)
(7.687 -0.718111 0)
(7.45659 -0.71313 0)
(7.80212 -0.761313 0)
(7.56069 -0.750888 0)
(7.90828 -0.797174 0)
(7.65372 -0.780669 0)
(8.01769 -0.826213 0)
(7.75185 -0.804559 0)
(8.13737 -0.848848 0)
(7.8675 -0.822463 0)
(8.27278 -0.869434 0)
(7.99986 -0.83685 0)
(8.42546 -0.88491 0)
(8.14416 -0.846727 0)
(8.58928 -0.892154 0)
(8.29418 -0.85388 0)
(8.7534 -0.901444 0)
(8.4525 -0.864865 0)
(8.90227 -0.922592 0)
(8.61437 -0.889027 0)
(9.03287 -0.954317 0)
(8.76128 -0.923058 0)
(9.14462 -0.989581 0)
(8.88297 -0.955437 0)
(9.22997 -1.01859 0)
(8.97025 -0.981439 0)
(9.29005 -1.04174 0)
(9.03374 -0.997924 0)
(9.33269 -1.05332 0)
(9.0822 -1.00383 0)
(9.37005 -1.05641 0)
(9.1395 -1.00595 0)
(9.41827 -1.06073 0)
(9.2063 -1.00897 0)
(9.47967 -1.06998 0)
(9.27803 -1.01276 0)
(9.54021 -1.07101 0)
(9.33829 -1.00076 0)
(9.58369 -1.06179 0)
(9.36841 -0.985562 0)
(9.60058 -1.04865 0)
(9.36809 -0.963155 0)
(9.58909 -1.02566 0)
(9.33689 -0.93332 0)
(9.53886 -0.9914 0)
(9.27646 -0.892011 0)
(9.46309 -0.949499 0)
(9.21928 -0.84491 0)
(9.39636 -0.899067 0)
(9.18163 -0.791668 0)
(9.34298 -0.845009 0)
(9.14915 -0.734383 0)
(9.3007 -0.785023 0)
(9.12671 -0.675987 0)
(9.27721 -0.73049 0)
(9.11158 -0.623942 0)
(9.26258 -0.684216 0)
(9.08855 -0.580169 0)
(9.25469 -0.638036 0)
(9.05789 -0.528152 0)
(9.24328 -0.577915 0)
(9.02817 -0.465714 0)
(9.2222 -0.510439 0)
(9.00547 -0.400779 0)
(9.19132 -0.447738 0)
(8.99012 -0.342337 0)
(9.16022 -0.395156 0)
(8.97789 -0.292202 0)
(9.12972 -0.344106 0)
(8.96325 -0.240356 0)
(9.10269 -0.286447 0)
(8.9459 -0.182335 0)
(9.07044 -0.230475 0)
(8.93213 -0.131697 0)
(9.0325 -0.173294 0)
(8.91968 -0.0825156 0)
(8.99675 -0.122661 0)
(8.90915 -0.0379165 0)
(8.94949 -0.0626875 0)
(8.89129 0.0193752 0)
(8.89467 -0.00527143 0)
(8.87347 0.0788773 0)
(8.83815 0.0535592 0)
(8.84977 0.143857 0)
(8.7917 0.128669 0)
(8.82366 0.219158 0)
(8.7524 0.201179 0)
(8.79953 0.303673 0)
(8.72739 0.292208 0)
(8.75719 0.388416 0)
(8.70872 0.382486 0)
(8.72043 0.478161 0)
(8.69135 0.451969 0)
(8.6781 0.553151 0)
(8.67492 0.519673 0)
(8.61633 0.626613 0)
(8.64471 0.58697 0)
(8.53519 0.70035 0)
(8.61598 0.651243 0)
(8.45428 0.771187 0)
(8.56642 0.716267 0)
(8.35746 0.8563 0)
(8.50193 0.778722 0)
(8.22385 0.932425 0)
(8.42634 0.841694 0)
(8.05566 1.02566 0)
(8.33846 0.903464 0)
(7.88215 1.14119 0)
(8.25868 0.980907 0)
(7.70823 1.26275 0)
(8.20186 1.06477 0)
(7.56157 1.40405 0)
(8.14302 1.17463 0)
(7.43957 1.56148 0)
(8.07233 1.30813 0)
(7.32999 1.72983 0)
(7.9566 1.45499 0)
(7.2287 1.908 0)
(7.79269 1.63813 0)
(7.09964 2.10216 0)
(7.61327 1.87505 0)
(6.9202 2.32499 0)
(7.4279 2.16912 0)
(6.68113 2.60759 0)
(7.16906 2.53045 0)
(6.39837 3.02135 0)
(6.78236 2.99945 0)
(6.0649 3.70453 0)
(6.29611 3.72636 0)
(5.40417 4.82897 0)
(6.39083 5.36613 0)
(4.10005 8.31461 0)
(5.31207 -0.0674433 0)
(5.22431 -0.031265 0)
(5.35857 -0.0430436 0)
(5.32011 -0.0708114 0)
(5.52615 -0.104622 0)
(5.50059 -0.113276 0)
(5.69781 -0.118623 0)
(5.63277 -0.107666 0)
(5.80373 -0.107777 0)
(5.70916 -0.101746 0)
(5.87896 -0.110424 0)
(5.77674 -0.110753 0)
(5.96014 -0.123795 0)
(5.85749 -0.125072 0)
(6.05483 -0.137889 0)
(5.94957 -0.13821 0)
(6.15835 -0.150921 0)
(6.04827 -0.150366 0)
(6.26698 -0.163708 0)
(6.15242 -0.162618 0)
(6.37978 -0.177145 0)
(6.25923 -0.178021 0)
(6.49229 -0.19506 0)
(6.36291 -0.197406 0)
(6.60129 -0.216636 0)
(6.46252 -0.219987 0)
(6.70723 -0.239942 0)
(6.55956 -0.242008 0)
(6.81119 -0.261506 0)
(6.65586 -0.262241 0)
(6.91659 -0.282388 0)
(6.75555 -0.283538 0)
(7.02656 -0.306252 0)
(6.85912 -0.308298 0)
(7.1377 -0.33206 0)
(6.96122 -0.332384 0)
(7.24493 -0.355303 0)
(7.05949 -0.353472 0)
(7.34777 -0.376848 0)
(7.15542 -0.375088 0)
(7.44834 -0.401239 0)
(7.25125 -0.401303 0)
(7.54834 -0.431494 0)
(7.34653 -0.43342 0)
(7.64689 -0.466157 0)
(7.43817 -0.467356 0)
(7.74101 -0.500339 0)
(7.52344 -0.498309 0)
(7.82978 -0.529515 0)
(7.60187 -0.523089 0)
(7.91636 -0.551154 0)
(7.67532 -0.539946 0)
(8.00439 -0.565511 0)
(7.74803 -0.550429 0)
(8.09617 -0.575863 0)
(7.82453 -0.559174 0)
(8.19238 -0.586368 0)
(7.90753 -0.570219 0)
(8.29303 -0.600727 0)
(7.9992 -0.585791 0)
(8.39761 -0.620635 0)
(8.09963 -0.607703 0)
(8.50473 -0.648594 0)
(8.20695 -0.638352 0)
(8.61098 -0.684835 0)
(8.31699 -0.676026 0)
(8.71304 -0.724056 0)
(8.42062 -0.715394 0)
(8.81089 -0.76523 0)
(8.51574 -0.756384 0)
(8.90521 -0.804459 0)
(8.60012 -0.789923 0)
(8.99533 -0.837221 0)
(8.67989 -0.818252 0)
(9.0829 -0.868025 0)
(8.76241 -0.843074 0)
(9.17067 -0.895117 0)
(8.85103 -0.865034 0)
(9.26152 -0.918331 0)
(8.94311 -0.884658 0)
(9.36003 -0.937036 0)
(9.03945 -0.897271 0)
(9.46214 -0.949672 0)
(9.14393 -0.905171 0)
(9.55981 -0.958843 0)
(9.2541 -0.915251 0)
(9.65171 -0.976063 0)
(9.36326 -0.934881 0)
(9.73186 -1.00099 0)
(9.4578 -0.961994 0)
(9.79936 -1.02708 0)
(9.53133 -0.983324 0)
(9.84492 -1.04619 0)
(9.57697 -0.999271 0)
(9.86702 -1.0595 0)
(9.60011 -1.00754 0)
(9.87313 -1.06559 0)
(9.61304 -1.01185 0)
(9.87948 -1.07192 0)
(9.63329 -1.01906 0)
(9.89452 -1.08322 0)
(9.66301 -1.02729 0)
(9.92001 -1.09574 0)
(9.68745 -1.02867 0)
(9.93972 -1.08679 0)
(9.69662 -1.00921 0)
(9.94115 -1.06557 0)
(9.68454 -0.983163 0)
(9.91546 -1.04434 0)
(9.64631 -0.952994 0)
(9.86104 -1.0087 0)
(9.57966 -0.904856 0)
(9.77808 -0.959857 0)
(9.49406 -0.857122 0)
(9.69326 -0.918205 0)
(9.42157 -0.816667 0)
(9.62086 -0.877852 0)
(9.36445 -0.770315 0)
(9.56224 -0.82688 0)
(9.3134 -0.717836 0)
(9.51928 -0.773068 0)
(9.27042 -0.665004 0)
(9.49099 -0.723133 0)
(9.23738 -0.611081 0)
(9.46886 -0.676118 0)
(9.19768 -0.560106 0)
(9.44212 -0.629292 0)
(9.14924 -0.506763 0)
(9.40959 -0.568452 0)
(9.10062 -0.443958 0)
(9.3699 -0.505374 0)
(9.05608 -0.381194 0)
(9.3287 -0.444159 0)
(9.02148 -0.324492 0)
(9.29014 -0.389668 0)
(8.98222 -0.272056 0)
(9.24941 -0.33838 0)
(8.94485 -0.223119 0)
(9.20708 -0.281717 0)
(8.91436 -0.168725 0)
(9.17328 -0.227676 0)
(8.88719 -0.116015 0)
(9.13882 -0.171897 0)
(8.85927 -0.0618939 0)
(9.10765 -0.12048 0)
(8.82961 -0.00994736 0)
(9.07109 -0.0581327 0)
(8.80633 0.045444 0)
(9.03279 -0.000741848 0)
(8.79752 0.102469 0)
(8.98997 0.0596214 0)
(8.78369 0.164514 0)
(8.94204 0.126312 0)
(8.76496 0.239333 0)
(8.90561 0.199364 0)
(8.73781 0.323678 0)
(8.8827 0.284518 0)
(8.70653 0.415155 0)
(8.87487 0.368441 0)
(8.68487 0.508787 0)
(8.87525 0.43472 0)
(8.64778 0.58989 0)
(8.86784 0.509643 0)
(8.60563 0.668694 0)
(8.85127 0.573001 0)
(8.56846 0.743549 0)
(8.82592 0.628626 0)
(8.52234 0.833939 0)
(8.77165 0.695711 0)
(8.44982 0.934793 0)
(8.72731 0.759735 0)
(8.33689 1.03215 0)
(8.67958 0.826944 0)
(8.18762 1.13944 0)
(8.62206 0.890321 0)
(8.02283 1.2495 0)
(8.58316 0.953401 0)
(7.86943 1.36513 0)
(8.54681 1.029 0)
(7.73974 1.50006 0)
(8.50637 1.14481 0)
(7.64475 1.65579 0)
(8.44703 1.28879 0)
(7.56742 1.82085 0)
(8.36477 1.45572 0)
(7.471 1.99112 0)
(8.27853 1.65654 0)
(7.33812 2.18731 0)
(8.17952 1.89252 0)
(7.20012 2.44882 0)
(8.03156 2.1695 0)
(7.09245 2.80982 0)
(7.809 2.51155 0)
(6.95509 3.29947 0)
(7.55624 3.00118 0)
(6.66997 3.9886 0)
(7.56396 3.81893 0)
(6.02268 5.2358 0)
(8.45609 4.67398 0)
(6.50268 8.77483 0)
(7.98812 -0.093734 0)
(7.86222 -0.087857 0)
(8.00723 -0.108166 0)
(7.91993 -0.120571 0)
(8.13189 -0.138005 0)
(8.05693 -0.133034 0)
(8.25727 -0.134235 0)
(8.13756 -0.120259 0)
(8.31089 -0.12214 0)
(8.16175 -0.114769 0)
(8.33679 -0.126305 0)
(8.18352 -0.126576 0)
(8.37504 -0.143812 0)
(8.22319 -0.146026 0)
(8.43025 -0.163834 0)
(8.277 -0.164409 0)
(8.49549 -0.181041 0)
(8.3373 -0.179576 0)
(8.56345 -0.19566 0)
(8.39869 -0.193568 0)
(8.63124 -0.210705 0)
(8.45989 -0.209698 0)
(8.69855 -0.228828 0)
(8.52026 -0.228902 0)
(8.76533 -0.249773 0)
(8.58028 -0.25038 0)
(8.83223 -0.272065 0)
(8.64035 -0.272102 0)
(8.8989 -0.293893 0)
(8.6988 -0.293132 0)
(8.96378 -0.315657 0)
(8.75488 -0.315106 0)
(9.0266 -0.339441 0)
(8.80818 -0.339253 0)
(9.08616 -0.364636 0)
(8.85778 -0.363147 0)
(9.14221 -0.388204 0)
(8.90548 -0.384553 0)
(9.19663 -0.409956 0)
(8.9539 -0.405459 0)
(9.2518 -0.433289 0)
(9.00579 -0.429848 0)
(9.30947 -0.461575 0)
(9.06049 -0.45965 0)
(9.36813 -0.494206 0)
(9.11416 -0.49217 0)
(9.42426 -0.526992 0)
(9.16161 -0.52245 0)
(9.4747 -0.555198 0)
(9.20015 -0.546407 0)
(9.51953 -0.576191 0)
(9.23139 -0.562717 0)
(9.56072 -0.590708 0)
(9.25953 -0.573552 0)
(9.60081 -0.602312 0)
(9.29067 -0.583579 0)
(9.64348 -0.616033 0)
(9.33095 -0.597655 0)
(9.69164 -0.635016 0)
(9.38222 -0.617083 0)
(9.74409 -0.65752 0)
(9.43946 -0.640212 0)
(9.79691 -0.683504 0)
(9.49528 -0.668739 0)
(9.84721 -0.715031 0)
(9.54465 -0.702497 0)
(9.89476 -0.752377 0)
(9.59087 -0.741904 0)
(9.94544 -0.795346 0)
(9.63582 -0.783461 0)
(9.99294 -0.835542 0)
(9.67632 -0.817793 0)
(10.0385 -0.867198 0)
(9.71499 -0.846074 0)
(10.0819 -0.896928 0)
(9.75271 -0.871156 0)
(10.1207 -0.923313 0)
(9.79096 -0.892632 0)
(10.1579 -0.947619 0)
(9.83477 -0.913957 0)
(10.199 -0.968228 0)
(9.88501 -0.928296 0)
(10.2442 -0.982078 0)
(9.94172 -0.934557 0)
(10.2876 -0.989384 0)
(10.0017 -0.943223 0)
(10.3268 -1.00082 0)
(10.0522 -0.957475 0)
(10.3563 -1.02033 0)
(10.0894 -0.979 0)
(10.3723 -1.03892 0)
(10.1088 -0.992423 0)
(10.3667 -1.05167 0)
(10.1071 -1.00106 0)
(10.342 -1.05849 0)
(10.0921 -1.00478 0)
(10.3033 -1.06408 0)
(10.0712 -1.01071 0)
(10.2715 -1.07463 0)
(10.0559 -1.02126 0)
(10.2475 -1.09003 0)
(10.0428 -1.03208 0)
(10.2231 -1.1015 0)
(10.0165 -1.02855 0)
(10.1913 -1.08631 0)
(9.98165 -1.00261 0)
(10.149 -1.0586 0)
(9.93801 -0.966831 0)
(10.0874 -1.02294 0)
(9.87073 -0.919901 0)
(9.99463 -0.972883 0)
(9.7791 -0.861349 0)
(9.89015 -0.920435 0)
(9.69641 -0.818247 0)
(9.80643 -0.885635 0)
(9.62049 -0.781497 0)
(9.72129 -0.848639 0)
(9.53938 -0.739126 0)
(9.64389 -0.804941 0)
(9.46932 -0.690906 0)
(9.5859 -0.758944 0)
(9.41226 -0.64011 0)
(9.54041 -0.712961 0)
(9.36097 -0.587192 0)
(9.49763 -0.663328 0)
(9.30753 -0.53158 0)
(9.44772 -0.61346 0)
(9.24629 -0.475709 0)
(9.38676 -0.55449 0)
(9.18341 -0.41036 0)
(9.32341 -0.490568 0)
(9.11572 -0.347112 0)
(9.27208 -0.433958 0)
(9.05518 -0.292808 0)
(9.22595 -0.377396 0)
(8.9941 -0.239203 0)
(9.1771 -0.327306 0)
(8.93926 -0.194214 0)
(9.12586 -0.276174 0)
(8.89322 -0.14343 0)
(9.08492 -0.229242 0)
(8.85983 -0.0852897 0)
(9.0387 -0.173857 0)
(8.82907 -0.0302165 0)
(9.00484 -0.124644 0)
(8.80348 0.0234474 0)
(8.97841 -0.062524 0)
(8.78637 0.0786414 0)
(8.96267 -0.00798565 0)
(8.78287 0.13577 0)
(8.93676 0.0518237 0)
(8.7894 0.207981 0)
(8.90239 0.113284 0)
(8.77515 0.280144 0)
(8.87857 0.187841 0)
(8.75112 0.371041 0)
(8.85406 0.258433 0)
(8.73172 0.458636 0)
(8.84285 0.332762 0)
(8.70989 0.547128 0)
(8.83613 0.413053 0)
(8.68486 0.633836 0)
(8.82029 0.486264 0)
(8.66777 0.713993 0)
(8.8048 0.544812 0)
(8.64845 0.794809 0)
(8.77997 0.604342 0)
(8.6061 0.894968 0)
(8.76362 0.683796 0)
(8.53375 1.00087 0)
(8.76654 0.753754 0)
(8.41887 1.1125 0)
(8.77492 0.832543 0)
(8.26801 1.23107 0)
(8.78669 0.896021 0)
(8.10938 1.34445 0)
(8.79518 0.950729 0)
(7.96812 1.45257 0)
(8.78508 1.01868 0)
(7.85165 1.57392 0)
(8.75193 1.11761 0)
(7.77079 1.72891 0)
(8.70815 1.25973 0)
(7.69339 1.90658 0)
(8.65693 1.42662 0)
(7.60521 2.10146 0)
(8.59294 1.61154 0)
(7.53463 2.33631 0)
(8.4853 1.82003 0)
(7.50021 2.62425 0)
(8.3487 2.08679 0)
(7.45862 2.99282 0)
(8.28053 2.46204 0)
(7.33002 3.46794 0)
(8.41618 2.97251 0)
(7.02562 4.21775 0)
(8.95511 3.48536 0)
(6.76542 5.77437 0)
(9.68099 3.5922 0)
(8.12766 8.05189 0)
(10.2116 -0.122106 0)
(10.0754 -0.20899 0)
(10.2525 -0.255151 0)
(10.1471 -0.238028 0)
(10.3599 -0.218477 0)
(10.2465 -0.177947 0)
(10.439 -0.162394 0)
(10.2842 -0.136525 0)
(10.4565 -0.138464 0)
(10.2798 -0.127144 0)
(10.4561 -0.141728 0)
(10.2774 -0.139117 0)
(10.4678 -0.160375 0)
(10.2905 -0.160338 0)
(10.4936 -0.182748 0)
(10.3147 -0.180983 0)
(10.5265 -0.201839 0)
(10.3426 -0.197374 0)
(10.5606 -0.217006 0)
(10.3709 -0.211246 0)
(10.5948 -0.231429 0)
(10.3993 -0.226113 0)
(10.6288 -0.248267 0)
(10.4274 -0.243953 0)
(10.6618 -0.268097 0)
(10.4548 -0.264312 0)
(10.6933 -0.289573 0)
(10.4808 -0.285315 0)
(10.7226 -0.310931 0)
(10.5045 -0.30591 0)
(10.7485 -0.331979 0)
(10.5246 -0.326586 0)
(10.7705 -0.353639 0)
(10.5406 -0.348419 0)
(10.789 -0.376446 0)
(10.553 -0.370833 0)
(10.8052 -0.399225 0)
(10.5637 -0.39304 0)
(10.8221 -0.422265 0)
(10.5757 -0.415925 0)
(10.842 -0.447145 0)
(10.5906 -0.441887 0)
(10.8645 -0.476209 0)
(10.6067 -0.471978 0)
(10.8866 -0.50854 0)
(10.6205 -0.503582 0)
(10.9042 -0.540171 0)
(10.6289 -0.531825 0)
(10.9153 -0.566383 0)
(10.6317 -0.552862 0)
(10.9205 -0.58486 0)
(10.6307 -0.566362 0)
(10.9216 -0.596801 0)
(10.6288 -0.57539 0)
(10.9222 -0.607186 0)
(10.6309 -0.585853 0)
(10.926 -0.621812 0)
(10.6388 -0.601579 0)
(10.9327 -0.641309 0)
(10.6481 -0.621192 0)
(10.9377 -0.663675 0)
(10.6545 -0.643822 0)
(10.9383 -0.68906 0)
(10.6559 -0.670375 0)
(10.9335 -0.718349 0)
(10.6517 -0.7031 0)
(10.9274 -0.757244 0)
(10.6464 -0.746238 0)
(10.9227 -0.801468 0)
(10.6378 -0.787513 0)
(10.9144 -0.841679 0)
(10.6225 -0.822063 0)
(10.9015 -0.873098 0)
(10.6079 -0.850541 0)
(10.8864 -0.900862 0)
(10.5895 -0.875134 0)
(10.8676 -0.925398 0)
(10.5754 -0.898221 0)
(10.855 -0.952347 0)
(10.5753 -0.922032 0)
(10.8497 -0.973785 0)
(10.5842 -0.938731 0)
(10.847 -0.986515 0)
(10.5943 -0.944779 0)
(10.8445 -0.994209 0)
(10.6025 -0.951014 0)
(10.836 -1.00173 0)
(10.6021 -0.964814 0)
(10.8217 -1.01921 0)
(10.5944 -0.979915 0)
(10.7924 -1.03067 0)
(10.5691 -0.983498 0)
(10.744 -1.03479 0)
(10.5285 -0.984365 0)
(10.6851 -1.03767 0)
(10.4812 -0.984851 0)
(10.6182 -1.04452 0)
(10.4314 -0.994002 0)
(10.5565 -1.059 0)
(10.38 -1.00557 0)
(10.4973 -1.07306 0)
(10.3232 -1.0131 0)
(10.431 -1.08191 0)
(10.2599 -1.00726 0)
(10.363 -1.06814 0)
(10.1936 -0.981717 0)
(10.2885 -1.03831 0)
(10.1182 -0.937506 0)
(10.1966 -0.990139 0)
(10.0237 -0.878043 0)
(10.0786 -0.926816 0)
(9.91462 -0.817524 0)
(9.97042 -0.885336 0)
(9.83109 -0.784439 0)
(9.87173 -0.852045 0)
(9.73704 -0.742615 0)
(9.76527 -0.811194 0)
(9.6289 -0.698045 0)
(9.65835 -0.774948 0)
(9.53139 -0.652772 0)
(9.5724 -0.737647 0)
(9.44873 -0.606632 0)
(9.50755 -0.693125 0)
(9.36962 -0.557233 0)
(9.4497 -0.644061 0)
(9.29416 -0.506052 0)
(9.38422 -0.591173 0)
(9.2185 -0.44441 0)
(9.30862 -0.528567 0)
(9.14069 -0.377898 0)
(9.23475 -0.465634 0)
(9.06218 -0.317723 0)
(9.17144 -0.412152 0)
(8.98705 -0.263131 0)
(9.11561 -0.356617 0)
(8.91263 -0.210839 0)
(9.06319 -0.30779 0)
(8.83983 -0.167429 0)
(9.00773 -0.261876 0)
(8.77805 -0.119949 0)
(8.96051 -0.218974 0)
(8.7239 -0.0583822 0)
(8.91682 -0.165852 0)
(8.68533 -0.00690308 0)
(8.89648 -0.127173 0)
(8.66089 0.047664 0)
(8.88174 -0.0739912 0)
(8.65066 0.0969792 0)
(8.88723 -0.0262526 0)
(8.64768 0.153892 0)
(8.8916 0.0288691 0)
(8.64456 0.230002 0)
(8.90475 0.100107 0)
(8.61844 0.303729 0)
(8.91017 0.17409 0)
(8.60312 0.396963 0)
(8.89707 0.246363 0)
(8.58798 0.494414 0)
(8.89253 0.326854 0)
(8.54857 0.570303 0)
(8.89564 0.394509 0)
(8.53133 0.659363 0)
(8.90641 0.453866 0)
(8.49653 0.739338 0)
(8.93151 0.516212 0)
(8.44697 0.833384 0)
(8.94176 0.584022 0)
(8.37402 0.937842 0)
(8.97127 0.658355 0)
(8.29784 1.05332 0)
(9.00622 0.725052 0)
(8.20694 1.17652 0)
(9.03528 0.799216 0)
(8.10954 1.30029 0)
(9.061 0.856974 0)
(8.02455 1.40631 0)
(9.05371 0.918828 0)
(7.95709 1.51965 0)
(9.01401 0.992284 0)
(7.90576 1.65188 0)
(8.95892 1.08277 0)
(7.86572 1.81597 0)
(8.91269 1.21023 0)
(7.84082 2.00715 0)
(8.8642 1.36744 0)
(7.82979 2.21752 0)
(8.81072 1.54222 0)
(7.82864 2.45648 0)
(8.78705 1.76037 0)
(7.78806 2.74306 0)
(8.84204 2.0328 0)
(7.6847 3.11731 0)
(9.04157 2.35823 0)
(7.51674 3.665 0)
(9.43718 2.65152 0)
(7.39023 4.59336 0)
(10.0173 2.79012 0)
(7.73282 5.98512 0)
(10.2931 3.01737 0)
(9.12098 7.05485 0)
(11.6863 -0.106172 0)
(11.5892 -0.223081 0)
(11.8078 -0.288998 0)
(11.7497 -0.268097 0)
(11.9365 -0.244115 0)
(11.8244 -0.188352 0)
(11.9714 -0.168825 0)
(11.8209 -0.13472 0)
(11.9547 -0.140226 0)
(11.7925 -0.125412 0)
(11.9322 -0.145633 0)
(11.7712 -0.139792 0)
(11.9226 -0.166293 0)
(11.7647 -0.162539 0)
(11.9265 -0.189928 0)
(11.7686 -0.184338 0)
(11.9375 -0.210038 0)
(11.7765 -0.201639 0)
(11.9501 -0.22585 0)
(11.7846 -0.215878 0)
(11.962 -0.240391 0)
(11.7913 -0.230564 0)
(11.9717 -0.256904 0)
(11.7953 -0.247898 0)
(11.9782 -0.276189 0)
(11.796 -0.267618 0)
(11.9813 -0.297046 0)
(11.794 -0.287954 0)
(11.9818 -0.317841 0)
(11.7904 -0.307659 0)
(11.9806 -0.3378 0)
(11.786 -0.326662 0)
(11.978 -0.357662 0)
(11.7808 -0.346208 0)
(11.9742 -0.378344 0)
(11.775 -0.366855 0)
(11.9697 -0.400292 0)
(11.7687 -0.38904 0)
(11.9653 -0.423973 0)
(11.7622 -0.413345 0)
(11.9614 -0.450296 0)
(11.7551 -0.440744 0)
(11.9571 -0.479799 0)
(11.7459 -0.470722 0)
(11.9501 -0.511081 0)
(11.7329 -0.500677 0)
(11.9383 -0.540624 0)
(11.7152 -0.526832 0)
(11.9203 -0.564717 0)
(11.693 -0.546073 0)
(11.896 -0.581464 0)
(11.6676 -0.558367 0)
(11.868 -0.592916 0)
(11.6433 -0.568167 0)
(11.8409 -0.604598 0)
(11.6226 -0.580307 0)
(11.8152 -0.619128 0)
(11.6013 -0.595365 0)
(11.7869 -0.635924 0)
(11.574 -0.61322 0)
(11.7547 -0.656145 0)
(11.5394 -0.634258 0)
(11.7181 -0.678937 0)
(11.4974 -0.657445 0)
(11.678 -0.70621 0)
(11.4532 -0.68892 0)
(11.638 -0.744226 0)
(11.4062 -0.729067 0)
(11.589 -0.785684 0)
(11.3511 -0.767023 0)
(11.5313 -0.822024 0)
(11.2893 -0.799232 0)
(11.469 -0.853248 0)
(11.2292 -0.827111 0)
(11.4039 -0.87962 0)
(11.1681 -0.852594 0)
(11.3399 -0.907443 0)
(11.1179 -0.882864 0)
(11.2913 -0.940587 0)
(11.0819 -0.911801 0)
(11.2501 -0.965343 0)
(11.0505 -0.930947 0)
(11.209 -0.97744 0)
(11.0196 -0.939272 0)
(11.1708 -0.985167 0)
(10.984 -0.943934 0)
(11.1321 -0.992261 0)
(10.9479 -0.955773 0)
(11.088 -1.00584 0)
(10.9047 -0.960613 0)
(11.0282 -1.00675 0)
(10.8433 -0.95687 0)
(10.9597 -1.00833 0)
(10.7757 -0.955623 0)
(10.8873 -1.01215 0)
(10.7059 -0.955572 0)
(10.809 -1.021 0)
(10.6359 -0.96343 0)
(10.7244 -1.03538 0)
(10.561 -0.974524 0)
(10.6405 -1.04749 0)
(10.4834 -0.979222 0)
(10.5549 -1.05408 0)
(10.4026 -0.972046 0)
(10.4629 -1.03604 0)
(10.3099 -0.94294 0)
(10.3543 -0.999511 0)
(10.2028 -0.891685 0)
(10.2254 -0.943464 0)
(10.078 -0.822665 0)
(10.0814 -0.877128 0)
(9.96719 -0.773431 0)
(9.96337 -0.847556 0)
(9.85967 -0.737319 0)
(9.83274 -0.80669 0)
(9.73753 -0.685963 0)
(9.69597 -0.762001 0)
(9.60316 -0.637633 0)
(9.56746 -0.731901 0)
(9.47717 -0.600055 0)
(9.45852 -0.704807 0)
(9.36392 -0.56152 0)
(9.37002 -0.663878 0)
(9.26294 -0.515498 0)
(9.29006 -0.616695 0)
(9.1696 -0.464512 0)
(9.20212 -0.564761 0)
(9.08028 -0.40174 0)
(9.11707 -0.502007 0)
(8.99249 -0.334267 0)
(9.04061 -0.439899 0)
(8.9099 -0.277969 0)
(8.96725 -0.386072 0)
(8.82893 -0.222954 0)
(8.90095 -0.335809 0)
(8.75053 -0.171309 0)
(8.84251 -0.286659 0)
(8.66613 -0.123669 0)
(8.78246 -0.247127 0)
(8.58657 -0.0768027 0)
(8.73059 -0.20456 0)
(8.51249 -0.0231359 0)
(8.69786 -0.164999 0)
(8.47792 0.0141425 0)
(8.67901 -0.133251 0)
(8.45116 0.0749673 0)
(8.66916 -0.0954565 0)