/*--------------------------------*- C++ -*----------------------------------*\
| =========                 |                                                 |
| \\      /  F ield         | OpenFOAM: The Open Source CFD Toolbox           |
|  \\    /   O peration     | Version:  2.4.0                                 |
|   \\  /    A nd           | Web:      www.OpenFOAM.org                      |
|    \\/     M anipulation  |                                                 |
\*---------------------------------------------------------------------------*/
FoamFile
{
    version     2.0;
    format      ascii;
    class       volScalarField;
    location    "1.94";
    object      k;
}
// * * * * * * * * * * * * * * * * * * * * * * * * * * * * * * * * * * * * * //

dimensions      [0 2 -2 0 0 0 0];

internalField   nonuniform List<scalar> 
8800
(
8.11598
10.2769
8.78466
6.84257
5.67719
5.0133
4.48174
4.18889
3.86961
3.7128
3.49801
3.41391
3.25017
3.20015
3.05856
3.02182
2.89353
2.86486
2.81006
2.63808
1.39398
4.36199
5.31197
5.29592
5.10565
4.86267
4.51933
4.34242
4.0688
3.93079
3.72744
3.6346
3.47533
3.41668
3.29054
3.2456
3.13977
3.10263
3.00637
2.99949
0.083498
0.745002
1.54378
1.96677
2.24569
2.46947
2.5478
2.62251
2.61368
2.6084
2.5801
2.55659
2.51666
2.47976
2.45425
2.4202
2.38882
2.36304
2.30742
2.29103
0.00329054
0.0712218
0.241504
0.438683
0.575455
0.708315
0.834923
0.931696
1.02352
1.09333
1.16497
1.20441
1.27315
1.29467
1.34416
1.36291
1.40571
1.40929
1.42636
1.41671
0.000119358
0.00509066
0.0208285
0.0538122
0.0934397
0.117144
0.168917
0.198223
0.248126
0.279133
0.324395
0.347923
0.399032
0.421103
0.465773
0.487844
0.53924
0.554554
0.596994
0.61097
2.57194e-05
0.000320976
0.00138532
0.00398806
0.0089655
0.0118349
0.0193331
0.0244055
0.0336101
0.0437793
0.0514974
0.0601621
0.074861
0.0864239
0.0931088
0.107129
0.123408
0.13292
0.148116
0.166357
2.20139e-05
4.65231e-05
0.000114292
0.000297281
0.000654352
0.000845632
0.00142918
0.00197657
0.00249057
0.00384809
0.00455785
0.00613167
0.00721308
0.00995591
0.0109948
0.0137634
0.0154437
0.0190059
0.0213642
0.0283611
2.12795e-05
3.25497e-05
5.04148e-05
8.95019e-05
0.000106477
0.000120035
0.000166414
0.000211196
0.000219516
0.000304668
0.000335706
0.0004358
0.000491486
0.000742967
0.000798205
0.00107108
0.00118495
0.00158973
0.00187939
0.00313519
2.08794e-05
3.09358e-05
3.71033e-05
6.38799e-05
7.05178e-05
7.33363e-05
7.95037e-05
9.00896e-05
9.08857e-05
9.43468e-05
9.97406e-05
9.99285e-05
0.000101333
0.000119599
0.000121818
0.000132944
0.000136415
0.000165695
0.000184203
0.000261538
2.06045e-05
3.72123e-05
4.4761e-05
5.84284e-05
6.96361e-05
6.76598e-05
6.97537e-05
7.04985e-05
7.44679e-05
7.83348e-05
8.01309e-05
7.95342e-05
7.88052e-05
8.08532e-05
8.31489e-05
8.61055e-05
8.61478e-05
8.8305e-05
9.2355e-05
9.51349e-05
2.06793e-05
2.67868e-05
3.78438e-05
6.67882e-05
6.95408e-05
6.50639e-05
6.38555e-05
6.83778e-05
7.50557e-05
7.91363e-05
8.00205e-05
7.95018e-05
7.94707e-05
8.19264e-05
8.22294e-05
8.47089e-05
8.49851e-05
8.66261e-05
8.77958e-05
9.21245e-05
2.08207e-05
3.55846e-05
5.03215e-05
6.52454e-05
6.45544e-05
6.38397e-05
7.52625e-05
8.59543e-05
9.0908e-05
9.19443e-05
9.80172e-05
0.000100188
0.000106941
0.000114117
0.000116655
0.000123336
0.000130251
0.000145057
0.000173336
0.000218478
2.09927e-05
3.24405e-05
4.50178e-05
7.39577e-05
8.2643e-05
0.00011556
0.000141624
0.000190364
0.000218588
0.00029124
0.000363356
0.000420629
0.000498042
0.000696181
0.000756819
0.000943397
0.00113381
0.00155882
0.00185458
0.00268814
2.16141e-05
4.39943e-05
0.00012218
0.000327544
0.000484843
0.000878747
0.00120789
0.00204455
0.00263725
0.00402721
0.00477318
0.00643016
0.00734584
0.00963878
0.0107591
0.0138562
0.0158249
0.0201586
0.0228151
0.0304602
2.48641e-05
0.000306868
0.00154186
0.00439497
0.00685817
0.0129882
0.0172402
0.0269972
0.0329057
0.0454893
0.0515494
0.064754
0.0712857
0.0864025
0.0933047
0.111385
0.121137
0.14325
0.155289
0.189081
0.00012314
0.00492927
0.0243818
0.0526312
0.0816612
0.130406
0.157758
0.208827
0.24123
0.290984
0.31417
0.362214
0.384304
0.432777
0.453158
0.504915
0.529218
0.586481
0.613903
0.686249
0.00336663
0.0696189
0.264771
0.411045
0.584075
0.708058
0.830051
0.930274
1.02783
1.09733
1.15633
1.21704
1.25508
1.30695
1.32966
1.38176
1.40181
1.45128
1.4715
1.52064
0.08466
0.72814
1.57132
1.93056
2.2854
2.43124
2.57762
2.59753
2.62772
2.59886
2.58805
2.53964
2.52464
2.47358
2.4597
2.4188
2.40897
2.38014
2.36891
2.3424
1.40742
4.35016
5.32079
5.28498
5.13246
4.79606
4.59028
4.27525
4.12914
3.87083
3.77942
3.57648
3.52127
3.36584
3.33181
3.20247
3.17421
3.05823
3.02038
2.9204
8.12205
10.2647
8.79299
6.81657
5.71542
4.95638
4.54151
4.12991
3.92605
3.64984
3.55621
3.34872
3.30429
3.13392
3.10982
2.94627
2.91572
2.74215
2.68348
2.46875
1.83277
1.32144
1.03608
0.864575
0.761701
0.700714
0.661535
0.637847
0.620553
0.60931
0.59285
0.577879
0.553836
0.535847
0.514749
0.501224
0.484513
0.476866
0.466581
0.464159
0.459547
0.457911
0.456401
0.454998
0.450796
0.446361
0.439434
0.427358
0.41304
0.398714
0.38915
0.382296
0.380024
0.380731
0.383362
0.385578
0.391054
0.392962
0.397337
0.398237
0.401435
0.401721
0.402099
0.400846
0.396202
0.392625
0.386429
0.37907
0.36749
0.356787
0.340606
0.333222
0.319619
0.306256
0.296583
0.28915
0.288619
0.29068
0.295845
0.305963
0.316746
0.327495
0.339277
0.349538
0.350556
0.353127
0.354282
0.352064
0.351876
0.355647
0.370808
0.368987
0.364536
0.36494
0.378031
0.433134
0.495124
0.503043
0.498141
0.466287
0.343952
0.214067
0.145358
0.106799
0.0889563
0.0774043
0.0729974
0.0684188
0.0662155
0.0642646
0.0634631
0.0633609
0.0637119
0.0649425
0.0680764
0.0703321
0.0767478
0.0811374
0.0812897
0.0814878
0.0808993
0.0817081
0.0850158
0.0932242
0.114476
0.143018
0.158219
0.159491
0.158164
0.152325
0.136653
0.103513
0.0587937
0.0327499
0.0190304
0.0120256
0.00888501
0.00738969
0.00683983
0.00669298
0.00674225
0.00690149
0.00767638
0.00833332
0.00990507
0.0108378
0.0120823
0.0131808
0.0141562
0.0140842
0.0140089
0.0135631
0.0130107
0.0115779
0.0113885
0.0116278
0.0129005
0.0171346
0.0300035
0.0546099
0.101397
0.16073
0.193707
0.204808
0.203525
0.200805
0.194562
0.185801
0.178803
0.161843
0.15464
0.140882
0.135919
0.12588
0.121901
0.12032
0.120495
0.12292
0.126027
0.126576
0.125982
0.123926
0.118087
0.111894
0.0982583
0.0823053
0.0640679
0.0520804
0.0418287
0.0373612
0.0329231
0.0266876
0.0244751
0.0234905
0.0231359
0.0234379
0.0248375
0.0260908
0.025971
0.0265271
0.0281375
0.0286725
0.029219
0.0302023
0.0325329
0.0350163
0.0413721
0.0616709
0.0692847
0.0710079
0.0706943
0.0709002
0.0711093
0.0788131
0.0802137
0.107124
0.148111
0.180104
0.328978
0.832323
2.56035
2.10542
1.76128
1.51626
1.33279
1.19688
1.09089
1.01515
0.951096
0.905827
0.861521
0.830066
0.795314
0.770518
0.742174
0.723672
0.700257
0.686702
0.667168
0.656285
0.640419
0.632464
0.621629
0.616361
0.606382
0.599962
0.59076
0.582611
0.57399
0.562263
0.555137
0.543514
0.537684
0.529431
0.524803
0.520436
0.517613
0.515196
0.512657
0.511598
0.509196
0.507941
0.505429
0.504315
0.501205
0.499049
0.494509
0.491467
0.484627
0.480023
0.470374
0.463919
0.456937
0.451141
0.440397
0.435414
0.427872
0.422887
0.417001
0.413694
0.407159
0.403354
0.396289
0.388689
0.37962
0.372525
0.362624
0.352646
0.347393
0.338257
0.313459
0.298679
0.300086
0.311822
0.316013
0.318259
0.327442
0.348352
0.404687
0.443399
0.445432
0.430093
0.382514
0.281787
0.194016
0.141199
0.111859
0.0946388
0.0849926
0.078441
0.0746164
0.0728931
0.072329
0.0723121
0.0735004
0.0755678
0.0769334
0.0801391
0.0816133
0.085372
0.090942
0.10264
0.12576
0.153156
0.168859
0.169816
0.167912
0.162261
0.147755
0.119785
0.0726661
0.040588
0.0230478
0.0139495
0.00959768
0.00750791
0.0068396
0.0065485
0.0065831
0.00687348
0.00774141
0.00898667
0.0119288
0.0135249
0.0169477
0.0180603
0.0207928
0.0214111
0.022916
0.0226387
0.0224843
0.0213554
0.0206397
0.0189044
0.0171635
0.0141999
0.0137821
0.0141144
0.0159655
0.0216426
0.0363378
0.05971
0.101831
0.149069
0.174328
0.186233
0.187221
0.185014
0.182713
0.177074
0.172691
0.166474
0.161911
0.156883
0.150166
0.147803
0.143894
0.140427
0.138225
0.132635
0.126874
0.121738
0.105957
0.0963797
0.0757242
0.0628441
0.0485019
0.0423078
0.0355626
0.0286754
0.0248634
0.022388
0.0217351
0.0218061
0.0220319
0.0221742
0.0242247
0.0258688
0.0257337
0.0263179
0.0292345
0.0280704
0.0281348
0.0285315
0.0301956
0.0305482
0.0321161
0.0373448
0.0558172
0.0635467
0.0689733
0.0689002
0.0661449
0.0669935
0.0749591
0.0834885
0.167073
0.185694
0.400366
0.600397
2.08048
1.85244
1.64008
1.46493
1.32269
1.21056
1.1153
1.04469
0.977389
0.930948
0.879318
0.846058
0.804993
0.778851
0.746847
0.725515
0.701606
0.683397
0.666074
0.649585
0.637827
0.622757
0.614129
0.602077
0.595027
0.584918
0.578864
0.569445
0.56427
0.554334
0.548515
0.539583
0.533811
0.526569
0.521068
0.516481
0.510612
0.508203
0.503226
0.501028
0.496657
0.495109
0.49138
0.489831
0.487109
0.484327
0.482383
0.478153
0.475765
0.471137
0.46736
0.461669
0.455694
0.452199
0.444039
0.438975
0.428993
0.422707
0.412357
0.403028
0.391998
0.380731
0.36716
0.351307
0.336341
0.319718
0.299838
0.283161
0.263199
0.243485
0.222132
0.215645
0.209057
0.196486
0.194483
0.197093
0.204452
0.224244
0.242529
0.267379
0.326959
0.376687
0.382838
0.378518
0.363356
0.327379
0.277657
0.229551
0.192753
0.162763
0.137534
0.124647
0.116811
0.110162
0.109096
0.109728
0.111607
0.119383
0.130366
0.144134
0.167669
0.184319
0.188682
0.187203
0.182877
0.173242
0.156105
0.126833
0.0803987
0.0455639
0.0257923
0.0152467
0.0101156
0.00763811
0.00673171
0.00641834
0.00644375
0.0067951
0.00760013
0.0102157
0.0124974
0.0172822
0.0212952
0.0253705
0.0290074
0.0308456
0.0349533
0.0362062
0.0386076
0.0383347
0.037525
0.0346813
0.0326714
0.0284094
0.0260359
0.0219346
0.0182152
0.0156959
0.0154293
0.0158649
0.0182534
0.0243865
0.0390815
0.0613927
0.0945159
0.127303
0.151588
0.164304
0.169298
0.169261
0.167562
0.165122
0.160141
0.157443
0.151284
0.147846
0.1432
0.136284
0.131708
0.122629
0.110519
0.102096
0.0814297
0.0730282
0.0547923
0.0472122
0.0387481
0.0313378
0.0258712
0.0225994
0.0212711
0.0208134
0.0206878
0.0211416
0.0214555
0.0215011
0.0236261
0.0250383
0.0249477
0.0256292
0.0289511
0.0293456
0.0275851
0.0292593
0.0289874
0.0317766
0.0309858
0.0312783
0.0342187
0.0439794
0.0564537
0.0641149
0.089775
0.0847046
0.143941
0.139353
0.25944
0.259085
0.33308
0.50392
1.32965
1.23573
1.13875
1.05224
0.971844
0.910323
0.849007
0.805696
0.75996
0.726175
0.691783
0.662308
0.636872
0.609825
0.590948
0.566828
0.551929
0.531736
0.519314
0.502692
0.492409
0.478184
0.469448
0.457366
0.450248
0.440074
0.434175
0.426327
0.420082
0.414683
0.407189
0.40355
0.395935
0.392854
0.38651
0.383928
0.378668
0.375802
0.372647
0.368193
0.366506
0.36353
0.360613
0.359886
0.358027
0.357183
0.355899
0.354421
0.353508
0.351033
0.348393
0.345829
0.339829
0.336068
0.329167
0.322305
0.31478
0.304691
0.295619
0.283891
0.271179
0.257313
0.242436
0.226517
0.207482
0.191539
0.171391
0.153487
0.136638
0.120565
0.107689
0.0958529
0.0866456
0.0790995
0.077214
0.0778139
0.0803684
0.0866649
0.101703
0.1251
0.148963
0.194407
0.249217
0.300714
0.325164
0.325695
0.323028
0.315551
0.301608
0.289737
0.276907
0.261053
0.251115
0.241941
0.234185
0.231934
0.232101
0.231295
0.229854
0.225656
0.221362
0.211919
0.199182
0.183473
0.155361
0.120369
0.0758718
0.0443902
0.0255817
0.0152719
0.00996588
0.00741039
0.00644097
0.00619013
0.00626619
0.00668981
0.0076759
0.0107179
0.0136505
0.0210686
0.0257889
0.0348062
0.0391623
0.0469088
0.0502106
0.0568219
0.0618039
0.0663496
0.0722366
0.0723955
0.0708265
0.066117
0.0591578
0.0501849
0.0421568
0.0354963
0.0283323
0.0222564
0.0182751
0.0164787
0.0163105
0.0168983
0.0195213
0.0258374
0.0376272
0.0593885
0.0772705
0.102974
0.119216
0.13556
0.141507
0.146007
0.14501
0.143571
0.139676
0.135179
0.129748
0.120465
0.111971
0.100616
0.0873452
0.0776743
0.0605782
0.0545799
0.0407862
0.036191
0.0278428
0.023998
0.0217395
0.0205527
0.0203202
0.0202915
0.02032
0.0209193
0.0213005
0.0212932
0.023114
0.0246236
0.0236842
0.0251844
0.0263203
0.0299641
0.0285084
0.0285017
0.0315494
0.0315904
0.0390793
0.0396955
0.0691196
0.0679875
0.0908752
0.0871043
0.106457
0.102271
0.118388
0.132834
0.164688
0.241944
0.283454
0.412207
0.589212
0.564436
0.533785
0.505378
0.477212
0.45339
0.434279
0.414996
0.403256
0.386116
0.376745
0.360371
0.35095
0.336517
0.327161
0.315149
0.306408
0.296526
0.2891
0.280158
0.274528
0.266152
0.261061
0.254073
0.247886
0.243741
0.236439
0.233287
0.228033
0.224269
0.220284
0.215099
0.212855
0.20857
0.204735
0.203081
0.199369
0.19784
0.195734
0.193396
0.191989
0.189778
0.18774
0.187003
0.18547
0.185078
0.18411
0.183699
0.182506
0.181515
0.178931
0.176491
0.173295
0.167248
0.163685
0.156975
0.150054
0.144193
0.134399
0.127792
0.117842
0.108519
0.0993981
0.0887914
0.0799469
0.0702656
0.0621445
0.054339
0.0474472
0.0418646
0.0372463
0.0326255
0.0303212
0.0286209
0.0268552
0.0267449
0.0270985
0.0284095
0.0319717
0.0377169
0.0470103
0.06542
0.0853114
0.116323
0.158004
0.199038
0.235143
0.256863
0.267862
0.270604
0.270136
0.268335
0.265192
0.262452
0.260396
0.254772
0.249252
0.240401
0.226054
0.214205
0.190736
0.161146
0.12936
0.090498
0.0577292
0.0356904
0.0217184
0.0133163
0.00881303
0.00662756
0.00573715
0.00569726
0.00587307
0.00644926
0.00796447
0.0111214
0.0151401
0.0245131
0.0312395
0.0451223
0.0530004
0.0656834
0.0718613
0.0830109
0.0895917
0.104447
0.115829
0.1316
0.147521
0.151494
0.148552
0.140749
0.123796
0.104606
0.0826445
0.0658849
0.0501543
0.0380749
0.0280867
0.0215069
0.018121
0.0167689
0.0167259
0.0173998
0.0197464
0.026972
0.0338216
0.0498478
0.0596202
0.0758873
0.0845875
0.094471
0.0998875
0.102117
0.101299
0.0981938
0.0942391
0.0852533
0.0790358
0.0684634
0.060765
0.0521218
0.0427967
0.0371183
0.0284303
0.0262379
0.0224075
0.0212727
0.0204575
0.0202397
0.0203728
0.0206881
0.0212741
0.0233509
0.0234167
0.0236328
0.0250023
0.0255358
0.02528
0.025076
0.0305096
0.0298014
0.0382525
0.0362838
0.0582044
0.0504316
0.0591826
0.0553316
0.0612916
0.0628507
0.0697452
0.0784795
0.0850175
0.0966713
0.09732
0.114866
0.123765
0.184378
0.211582
0.305073
0.162565
0.157726
0.150503
0.142711
0.137534
0.131544
0.129592
0.126482
0.125613
0.123582
0.122395
0.120134
0.116913
0.114264
0.109554
0.106907
0.103002
0.100014
0.0981741
0.0954114
0.0944214
0.0924834
0.0911535
0.0897855
0.0874337
0.0864654
0.0838633
0.0824956
0.0801738
0.0783917
0.0775093
0.0751221
0.0742
0.0726708
0.0715089
0.0706463
0.0690355
0.0685053
0.0679479
0.0668334
0.0664564
0.0655363
0.064877
0.0641327
0.0633193
0.0629969
0.0624028
0.0622722
0.0618998
0.0616694
0.0610383
0.0599572
0.0589028
0.0560425
0.0540296
0.050623
0.0472038
0.0444351
0.0404465
0.0377702
0.0343201
0.0312525
0.0284331
0.0253839
0.0228987
0.0202093
0.0180612
0.0159297
0.0140296
0.0124762
0.0112793
0.0101449
0.0093723
0.00914744
0.00862401
0.0084722
0.00851396
0.00872788
0.0093101
0.0104686
0.0129403
0.0166218
0.023808
0.0327985
0.046744
0.0639941
0.0823551
0.102219
0.124435
0.144526
0.1569
0.169613
0.173295
0.17285
0.169772
0.163752
0.151507
0.135647
0.11829
0.0951087
0.0717632
0.0521882
0.0361909
0.0241837
0.0158198
0.0101304
0.00698262
0.00523134
0.00470462
0.00478446
0.00510105
0.00589276
0.00805541
0.0113891
0.0186319
0.0254327
0.0394221
0.0548393
0.0701791
0.0888874
0.100127
0.116749
0.126201
0.142341
0.158606
0.197812
0.23634
0.284759
0.310594
0.309699
0.300036
0.281791
0.255854
0.227448
0.190841
0.15564
0.112176
0.0793405
0.0546934
0.0378071
0.0269349
0.0207492
0.0179862
0.0169955
0.0170191
0.0177875
0.0195953
0.024989
0.0290738
0.0384627
0.0428434
0.0515744
0.0553071
0.0601542
0.0608359
0.0602645
0.058798
0.0551567
0.0515619
0.0464772
0.0410248
0.0349515
0.0297148
0.0259662
0.0229627
0.0221972
0.0208409
0.0206077
0.0207692
0.0212001
0.0233861
0.0241907
0.028011
0.0290562
0.0317758
0.0310832
0.0341742
0.0308548
0.0337632
0.0308557
0.0415548
0.0366454
0.0430564
0.0428009
0.0496435
0.0487461
0.0487161
0.0520362
0.0521221
0.0569146
0.0572207
0.0648736
0.0648666
0.0776593
0.0774695
0.0886961
0.0983838
0.146921
0.16811
0.211035
0.0277852
0.0268343
0.0251625
0.0237665
0.0228539
0.0223445
0.0223731
0.022482
0.0228904
0.0232201
0.0233847
0.023405
0.023161
0.0228457
0.0219252
0.0214315
0.0206189
0.0201636
0.0198308
0.0195913
0.0196048
0.0195591
0.0195872
0.0195852
0.0194394
0.0193514
0.0188406
0.0185241
0.0180996
0.0177056
0.0175512
0.017125
0.0169799
0.0168181
0.0166058
0.0165264
0.0162621
0.0161661
0.0161252
0.016015
0.0159916
0.0158953
0.0158127
0.0155788
0.0153526
0.0151287
0.0149516
0.0149029
0.0148451
0.0148121
0.0147456
0.014585
0.0144292
0.0141502
0.013606
0.0126908
0.0117244
0.0107759
0.00971763
0.00885915
0.0079983
0.00722938
0.00654017
0.00589855
0.00531962
0.00477382
0.00431665
0.00385157
0.00346251
0.00312108
0.00289583
0.0026749
0.0025
0.00247486
0.00242696
0.00243456
0.00246049
0.00252465
0.00267773
0.00293705
0.00341051
0.00438914
0.005571
0.00838664
0.0120202
0.016401
0.0239337
0.0301041
0.0376452
0.0458304
0.0507859
0.0566199
0.0590245
0.0587494
0.0572274
0.0537306
0.0479376
0.0410063
0.033641
0.0263674
0.0196772
0.0142493
0.00979396
0.00672902
0.00479404
0.0035991
0.00346416
0.00360691
0.00410057
0.0050932
0.00751323
0.0115486
0.019362
0.0302039
0.0448585
0.0638852
0.0907878
0.113407
0.140962
0.157547
0.175411
0.192379
0.208214
0.237674
0.297195
0.416077
0.460486
0.452639
0.426178
0.393029
0.359969
0.339738
0.31466
0.293463
0.270342
0.245569
0.216133
0.178252
0.133925
0.0871085
0.0560569
0.0371294
0.0263892
0.0207108
0.0182714
0.0174909
0.0174896
0.0180657
0.0190434
0.0220031
0.0238617
0.0281669
0.0303795
0.0332862
0.0351753
0.0358717
0.0355141
0.0348116
0.0327939
0.0308375
0.027529
0.0252283
0.0234749
0.0217097
0.0214198
0.0208905
0.0210809
0.0215576
0.0245854
0.026268
0.0329347
0.0344481
0.0428223
0.0428277
0.0464421
0.0447178
0.0495972
0.0440772
0.0454516
0.0421112
0.043748
0.0401461
0.0393698
0.0409438
0.0441248
0.0454134
0.0451017
0.046733
0.0458704
0.0488358
0.0462349
0.0501811
0.0483981
0.0570085
0.059464
0.0720667
0.0810545
0.116386
0.151839
0.174346
0.00309192
0.00298753
0.00281701
0.00264402
0.00258448
0.00258438
0.00262287
0.00267222
0.00277242
0.00286808
0.00290327
0.00291468
0.00289325
0.00285739
0.00274544
0.00266187
0.00257864
0.00253348
0.00252482
0.00251945
0.00255098
0.00257249
0.00261384
0.0026286
0.0026269
0.0026259
0.00256836
0.00252154
0.00245778
0.00241087
0.00239919
0.002374
0.00237167
0.00236842
0.00236636
0.00237132
0.00237618
0.00239292
0.00241101
0.00242876
0.00244565
0.00245532
0.00244832
0.00240093
0.002333
0.0022901
0.00226629
0.00225179
0.00224666
0.0022486
0.00228389
0.00230235
0.00230181
0.00229074
0.00226626
0.00220318
0.00201675
0.00182414
0.00162333
0.00144625
0.00129403
0.00115908
0.00104751
0.000953521
0.000869689
0.000796307
0.000749714
0.00069028
0.000657887
0.000625964
0.000611195
0.000594074
0.000586401
0.000590299
0.000603109
0.000628444
0.000656847
0.00068392
0.000740455
0.00079527
0.000892849
0.00107824
0.00129117
0.00191316
0.00265439
0.00382258
0.00571639
0.00755163
0.0102035
0.0124885
0.0142494
0.0163065
0.0168219
0.0166581
0.0160728
0.0147664
0.0129142
0.0108266
0.00876292
0.00676713
0.00495555
0.00372919
0.00272303
0.002248
0.00228347
0.00247267
0.00301847
0.00415912
0.0074209
0.0114238
0.0197514
0.0335004
0.0482641
0.0759115
0.104462
0.144767
0.182317
0.220367
0.244416
0.260825
0.279888
0.295958
0.333597
0.446682
0.581945
0.580709
0.548032
0.482846
0.424844
0.370161
0.338928
0.308339
0.289236
0.279464
0.267662
0.255079
0.24182
0.228599
0.206705
0.176958
0.136956
0.0879241
0.0562884
0.0372629
0.0270691
0.0216378
0.0190854
0.0183517
0.0181525
0.0184521
0.018803
0.0199303
0.0206377
0.0221112
0.0228526
0.0236455
0.0237984
0.0237369
0.0232919
0.0230241
0.0220559
0.021801
0.0215156
0.0210648
0.0218079
0.0222146
0.0255611
0.0276376
0.0369884
0.0405037
0.0541661
0.0565844
0.068905
0.0665625
0.0704916
0.0659302
0.0668084
0.0579363
0.0603097
0.0539599
0.0526581
0.0454342
0.0458045
0.0435624
0.0424998
0.0417906
0.0417184
0.0420059
0.0403079
0.0423399
0.0424354
0.0438094
0.0435166
0.048999
0.0493131
0.0595223
0.0665868
0.081704
0.117781
0.142203
0.000258889
0.000257208
0.000256579
0.000254362
0.000250621
0.000248869
0.000250317
0.00025366
0.000260424
0.000269821
0.00027475
0.000279687
0.000279686
0.000279629
0.000277568
0.000274231
0.000269335
0.000264186
0.000262909
0.00026186
0.000262503
0.000262796
0.000263285
0.000263747
0.00026281
0.00026261
0.000261585
0.000261102
0.000261029
0.000259937
0.000259929
0.000259401
0.000258969
0.000258595
0.00025774
0.000257672
0.000257651
0.000258731
0.000260047
0.000261824
0.000263335
0.000264346
0.000264016
0.000260072
0.000254504
0.000250646
0.000248682
0.000248613
0.000254071
0.000265397
0.00028062
0.00029242
0.000301349
0.000304113
0.000304185
0.000299683
0.000281017
0.000260832
0.000238516
0.000221106
0.000204179
0.000189695
0.000178964
0.000175198
0.000176026
0.000179237
0.000192774
0.000211467
0.000229432
0.000253456
0.000268637
0.000275254
0.00027605
0.0002724
0.000269174
0.000266846
0.000267897
0.000279656
0.000307787
0.000335887
0.000358431
0.000383967
0.000416087
0.000493597
0.000601619
0.000887774
0.00116069
0.00156757
0.00233276
0.0027868
0.00340803
0.00401477
0.00412955
0.00409653
0.00397042
0.00364113
0.00320793
0.00263394
0.00223504
0.00179491
0.00148301
0.00146071
0.00150095
0.00168749
0.00228221
0.00364332
0.00698371
0.011273
0.0219349
0.0324011
0.0554091
0.0818193
0.117874
0.174359
0.226347
0.291515
0.340131
0.368476
0.380552
0.390917
0.401589
0.435728
0.595497
0.698702
0.683388
0.610097
0.503191
0.400874
0.33417
0.284848
0.263929
0.241816
0.23454
0.229379
0.230044
0.230162
0.230077
0.226814
0.221982
0.21059
0.197692
0.171103
0.136106
0.0909649
0.0592487
0.0406537
0.0296857
0.0240927
0.0210267
0.0197785
0.019273
0.0193699
0.0194982
0.0198336
0.0202706
0.0205125
0.0207967
0.0208352
0.0208482
0.0210705
0.0210535
0.0213379
0.0221259
0.023115
0.0273116
0.0297765
0.0405937
0.0452627
0.06646
0.0722406
0.0967869
0.0990568
0.113853
0.106439
0.11348
0.104334
0.109255
0.0919767
0.102141
0.0837945
0.0836061
0.0642145
0.0640263
0.0522799
0.0481527
0.0423515
0.0402026
0.038735
0.0359964
0.0373434
0.0369126
0.0397102
0.04043
0.0450493
0.0448133
0.0475778
0.0595151
0.0693847
0.0951854
0.114786
9.53714e-05
9.59049e-05
9.7575e-05
9.84257e-05
9.82221e-05
9.80169e-05
9.85559e-05
9.93888e-05
0.000100785
0.000101885
0.000103177
0.000104067
0.00010494
0.000105084
0.000105149
0.000104943
0.000104753
0.000104494
0.000104421
0.00010413
0.000103505
0.000102937
0.000102536
0.000102457
0.000102453
0.000102496
0.000102478
0.000102446
0.000102615
0.000102963
0.000103581
0.000104055
0.000104165
0.000104256
0.000104276
0.000104236
0.000104242
0.000104192
0.000104212
0.000104218
0.000104258
0.000103953
0.000103162
0.000102621
0.000102211
0.000102088
0.000102033
0.000102007
0.000102264
0.000104032
0.000110384
0.000116132
0.00012293
0.000129156
0.000133919
0.000137276
0.000138415
0.000137596
0.000137297
0.000137394
0.000138178
0.000140005
0.000143386
0.00014953
0.000160927
0.000190886
0.000233169
0.000281635
0.000334956
0.000400524
0.000450419
0.000470053
0.000469959
0.000461174
0.000432327
0.000375393
0.000326128
0.000292423
0.000271414
0.000261843
0.000259567
0.000262103
0.000286313
0.00030821
0.000331921
0.000376974
0.000412545
0.000470575
0.000581364
0.000655464
0.000747508
0.000857424
0.000925779
0.000980137
0.000994646
0.000992887
0.000983931
0.000967243
0.000977061
0.00101412
0.00112106
0.00141119
0.00215005
0.00349915
0.00728677
0.0121661
0.0228711
0.0346454
0.0597012
0.084937
0.135548
0.187951
0.273958
0.363592
0.433673
0.464852
0.462112
0.448554
0.448667
0.453659
0.487169
0.661513
0.786937
0.748728
0.634477
0.509791
0.411682
0.327701
0.283038
0.247088
0.23154
0.222991
0.222171
0.218824
0.216683
0.213751
0.212015
0.212469
0.214095
0.213063
0.210654
0.205003
0.191364
0.170253
0.137646
0.100388
0.0677305
0.0478393
0.0360538
0.0291906
0.0252161
0.023208
0.0218023
0.0216857
0.0213863
0.0217627
0.0216968
0.0220903
0.0222787
0.0229822
0.0237661
0.0259635
0.0297851
0.0341566
0.0444919
0.0517289
0.0751287
0.0845917
0.123696
0.129706
0.155524
0.151128
0.154754
0.143649
0.145197
0.137349
0.136321
0.118525
0.121262
0.10441
0.102947
0.0852079
0.0818459
0.0655922
0.0537208
0.0447082
0.0399068
0.0361277
0.0354052
0.0381549
0.0370724
0.0393972
0.0391961
0.0413406
0.0434
0.0440722
0.0481338
0.0662116
0.094824
0.107195
9.22338e-05
9.292e-05
9.47768e-05
9.77935e-05
9.90608e-05
9.9716e-05
0.00010112
0.000101387
0.00010224
0.000102747
0.000104196
0.000105583
0.000106802
0.000108142
0.000108908
0.000111332
0.000112757
0.000114115
0.000114232
0.000114189
0.000112811
0.000110937
0.000109234
0.000108197
0.000108185
0.000108699
0.000111737
0.000116753
0.000122089
0.000130521
0.000134949
0.000142166
0.000145483
0.000148883
0.00015015
0.000150164
0.000150205
0.000147458
0.000145765
0.000143189
0.000141569
0.000141389
0.000140602
0.000140817
0.000142358
0.000144577
0.000151016
0.000159277
0.000180606
0.000205378
0.000230954
0.000258439
0.000279826
0.000299961
0.000313085
0.000327249
0.000340163
0.000350756
0.000368418
0.000392005
0.000422031
0.000447981
0.000473022
0.000523752
0.000634097
0.000801482
0.00100268
0.00119762
0.00142996
0.00165865
0.00181002
0.00185219
0.00184353
0.00180068
0.00166049
0.00148077
0.00127672
0.00105229
0.000839348
0.000672913
0.000568321
0.000524481
0.000516905
0.000519707
0.00052744
0.000547902
0.000565427
0.000578882
0.000603584
0.000613911
0.000617715
0.000627402
0.000640776
0.000678925
0.000709733
0.000773033
0.000844641
0.000971277
0.00126278
0.00175573
0.00270826
0.00482741
0.00856001
0.0140996
0.0249897
0.0399657
0.0649795
0.0969729
0.142496
0.213158
0.29354
0.420978
0.498727
0.536054
0.532938
0.515649
0.491401
0.458949
0.453113
0.474476
0.671407
0.800008
0.719142
0.630304
0.575097
0.481119
0.380888
0.302743
0.260011
0.2299
0.21738
0.214907
0.216145
0.221996
0.224993
0.224107
0.217209
0.214002
0.21393
0.214625
0.215128
0.215141
0.213119
0.207114
0.196827
0.175355
0.149401
0.115629
0.0851738
0.0633503
0.0480256
0.040526
0.0337213
0.0318349
0.0289112
0.0287982
0.0284975
0.0292952
0.0301895
0.0331518
0.0359445
0.0439376
0.0502762
0.066438
0.0792621
0.104623
0.141531
0.165161
0.185476
0.180741
0.184001
0.174184
0.168723
0.153748
0.150811
0.13741
0.13226
0.120518
0.117563
0.103312
0.101922
0.0949172
0.0882651
0.0689872
0.0604325
0.0488701
0.0464956
0.0393226
0.0379949
0.0403236
0.03792
0.0376873
0.0391156
0.0398907
0.040962
0.0412649
0.0443047
0.060589
0.100962
0.117929
0.000226413
0.000229911
0.000232401
0.000234642
0.000234174
0.000235184
0.000241972
0.000249455
0.000272453
0.000286385
0.000316196
0.000334212
0.00036229
0.000381355
0.000408673
0.000437366
0.000452444
0.000460989
0.00045926
0.000456015
0.000440652
0.000422755
0.000416113
0.000410039
0.000420068
0.000441334
0.0004934
0.000546127
0.00057558
0.000650286
0.000684773
0.000755797
0.000805997
0.000849884
0.000880116
0.000885144
0.000886481
0.000865046
0.000839011
0.000818175
0.000797991
0.000795195
0.000792976
0.000798434
0.000849363
0.000889265
0.000986253
0.00106262
0.00117913
0.00133926
0.00147175
0.00163561
0.00177723
0.00188656
0.00201049
0.00208641
0.00216785
0.00224673
0.00231952
0.00244298
0.00255476
0.00265299
0.00278971
0.0030946
0.00360506
0.00419156
0.0047869
0.00538222
0.00604911
0.00663648
0.00690879
0.00693068
0.00687474
0.00662624
0.00612958
0.00555393
0.00496596
0.00427014
0.00355454
0.0029602
0.00251471
0.00224829
0.00207734
0.00198922
0.00193596
0.00192197
0.00192979
0.00191545
0.00187741
0.0018333
0.00179918
0.00178489
0.00180135
0.00186014
0.00198366
0.00226607
0.00268629
0.00346113
0.00529528
0.00739631
0.0127361
0.0189953
0.0335402
0.0490099
0.0730694
0.117791
0.159231
0.240253
0.322513
0.452547
0.532173
0.578261
0.582486
0.571238
0.543684
0.476468
0.429105
0.431641
0.457277
0.636796
0.751958
0.689101
0.601262
0.597775
0.567242
0.482542
0.373454
0.294743
0.249724
0.223074
0.212331
0.207619
0.208568
0.212153
0.222113
0.229243
0.228645
0.225483
0.220956
0.22118
0.223978
0.22511
0.227486
0.227207
0.224978
0.219301
0.20678
0.187619
0.159249
0.139058
0.109291
0.0885214
0.0692734
0.0612281
0.0539943
0.0507769
0.0497648
0.0507884
0.0531156
0.0606373
0.0675614
0.0845671
0.0968645
0.124384
0.151191
0.20176
0.205992
0.211946
0.204125
0.196173
0.190275
0.170056
0.159089
0.14899
0.141739
0.126872
0.119509
0.117151
0.106724
0.100926
0.0940834
0.0909042
0.0859923
0.0752813
0.0707457
0.0606738
0.0537616
0.0487578
0.0441558
0.0428495
0.0432397
0.0398921
0.041215
0.0405229
0.04021
0.0409745
0.0444833
0.0570794
0.0951404
0.117313
0.0028711
0.00286605
0.00284226
0.00278325
0.00272672
0.00271163
0.00273554
0.00282084
0.00303896
0.00322438
0.00341495
0.00361081
0.00382557
0.0040159
0.00425028
0.00449709
0.00467798
0.004798
0.0048051
0.00480072
0.00473751
0.00462874
0.00460608
0.00457207
0.00463009
0.00476537
0.0050162
0.00531502
0.00547539
0.00583741
0.00602665
0.00634484
0.00660501
0.0067998
0.00695863
0.0069843
0.00698579
0.00689136
0.00672266
0.00664625
0.00655544
0.00654938
0.00657126
0.00664935
0.00706366
0.00730038
0.00768439
0.00804681
0.00834336
0.00887308
0.00925428
0.00973742
0.0102204
0.0105286
0.0109466
0.0112387
0.0114555
0.0118432
0.0121074
0.0125585
0.012922
0.0132684
0.0141497
0.0150912
0.0164998
0.0179692
0.0190756
0.0203963
0.0216137
0.0223497
0.0224575
0.0223347
0.0219561
0.0209413
0.0195973
0.0179697
0.0163574
0.0145102
0.0127546
0.0113534
0.0100562
0.00916471
0.0084665
0.00791456
0.00751906
0.00738187
0.00728691
0.00702632
0.00695506
0.00694926
0.00691234
0.00696888
0.00713317
0.00749999
0.00819985
0.00972964
0.0117074
0.0163054
0.022532
0.0301604
0.0495532
0.0676404
0.101096
0.141392
0.19609
0.280933
0.366777
0.481789
0.551739
0.595365
0.612318
0.605425
0.573682
0.464592
0.341938
0.323253
0.343821
0.416563
0.564611
0.653948
0.633753
0.544744
0.549957
0.592938
0.622197
0.562764
0.410469
0.303961
0.249453
0.22285
0.212064
0.207118
0.207987
0.211531
0.222607
0.235572
0.243769
0.244545
0.243417
0.244231
0.244704
0.244484
0.245026