/*--------------------------------*- C++ -*----------------------------------*\
| =========                 |                                                 |
| \\      /  F ield         | OpenFOAM: The Open Source CFD Toolbox           |
|  \\    /   O peration     | Version:  2.4.0                                 |
|   \\  /    A nd           | Web:      www.OpenFOAM.org                      |
|    \\/     M anipulation  |                                                 |
\*---------------------------------------------------------------------------*/
FoamFile
{
    version     2.0;
    format      ascii;
    class       volScalarField;
    location    "1.94";
    object      p;
}
// * * * * * * * * * * * * * * * * * * * * * * * * * * * * * * * * * * * * * //

dimensions      [0 2 -2 0 0 0 0];

internalField   nonuniform List<scalar> 
8800
(
85.1552
72.778
65.3697
61.8865
59.937
58.5821
57.3876
56.2335
55.2649
54.283
53.3117
52.4205
51.498
50.6278
49.7808
49.0002
48.1622
47.4844
46.7994
45.9662
82.0444
72.4239
65.5381
62.0017
59.9966
58.6057
57.3981
56.2308
55.2639
54.2825
53.3065
52.4195
51.4961
50.6249
49.7804
48.9999
48.1643
47.4726
46.8009
45.9056
80.0788
72.4944
66.1457
62.3774
60.1642
58.6846
57.4446
56.2615
55.2901
54.2992
53.3165
52.4249
51.4978
50.6219
49.782
48.9979
48.1754
47.4693
46.8198
45.8982
78.5443
72.553
66.7361
62.8002
60.3507
58.7684
57.5045
56.317
55.3429
54.3332
53.3484
52.4418
51.5101
50.6213
49.7921
48.9928
48.2034
47.498
46.9558
45.9347
77.2889
72.5198
67.2263
63.1982
60.5282
58.8346
57.5485
56.3771
55.398
54.3824
53.3882
52.4665
51.5303
50.6213
49.8023
48.9873
48.2342
47.5539
47.082
45.9715
76.3047
72.4228
67.5951
63.5483
60.679
58.8729
57.5785
56.4218
55.4539
54.4237
53.44
52.4852
51.5491
50.6255
49.8076
48.9765
48.2493
47.5894
47.183
46.0935
75.5411
72.3095
67.8746
63.8213
60.8292
58.8874
57.5911
56.4552
55.4935
54.4693
53.4696
52.5124
51.5586
50.6251
49.8084
48.9665
48.2378
47.574
47.2285
46.5644
74.9923
72.2182
68.0488
64.0399
60.948
58.9143
57.5775
56.4867
55.5188
54.5007
53.4954
52.5335
51.5591
50.6377
49.784
48.9649
48.1914
47.5207
46.9766
47.0627
74.6237
72.1465
68.1645
64.1849
61.0456
58.9205
57.5648
56.5093
55.5344
54.5256
53.51
52.5481
51.5646
50.6393
49.7853
48.9509
48.1613
47.4864
47.0221
47.5855
74.4564
72.1097
68.2131
64.2635
61.0919
58.9278
57.5548
56.5199
55.5468
54.5328
53.5258
52.5509
51.5683
50.6434
49.7712
48.9378
48.1468
47.4808
47.0749
47.7031
74.445
72.118
68.2102
64.2658
61.0941
58.9275
57.5511
56.5248
55.5443
54.5409
53.5225
52.5534
51.5714
50.6392
49.783
48.9343
48.1412
47.4882
47.0913
47.8207
74.6246
72.1628
68.1515
64.1893
61.0525
58.921
57.5547
56.5212
55.5329
54.5242
53.5188
52.5483
51.568
50.6429
49.7795
48.9403
48.1475
47.4868
47.1161
47.8667
74.9757
72.2411
68.0349
64.0431
60.9667
58.9118
57.5621
56.5093
55.5068
54.5038
53.5023
52.5353
51.5716
50.6382
49.7894
48.9567
48.1508
47.5026
47.1048
47.8236
75.5271
72.3423
67.8498
63.825
60.8478
58.8913
57.5664
56.4898
55.4742
54.4695
53.4798
52.5219
51.5602
50.6461
49.7984
48.9679
48.1735
47.5175
47.0898
47.7148
76.2851
72.4524
67.5833
63.5423
60.7057
58.864
57.561
56.4585
55.43
54.4268
53.4511
52.4932
51.5574
50.643
49.8011
49.0007
48.1987
47.5439
47.0905
47.5089
77.2685
72.5511
67.2168
63.1883
60.5567
58.8161
57.5332
56.4198
55.3779
54.3742
53.4167
52.4672
51.5446
50.6351
49.8169
49.0206
48.2358
47.5886
47.1129
47.2524
78.5195
72.5765
66.7377
62.7832
60.3873
58.7472
57.4881
56.3674
55.3198
54.3203
53.3836
52.438
51.534
50.6305
49.8229
49.0363
48.2789
47.6278
47.1716
46.9702
80.0558
72.5146
66.1519
62.3561
60.2049
58.6602
57.4248
56.3138
55.2718
54.2796
53.3578
52.4196
51.5271
50.6267
49.83
49.0482
48.309
47.6619
47.2291
46.82
82.0233
72.4363
65.549
61.9798
60.0381
58.582
57.3786
56.2821
55.2478
54.262
53.3475
52.4147
51.5262
50.6308
49.8356
49.0554
48.325
47.6829
47.2217
46.7379
85.1371
72.7898
65.3803
61.8658
59.9778
58.5573
57.3714
56.2807
55.2496
54.2654
53.3498
52.417
51.5284
50.6338
49.8388
49.057
48.3295
47.6895
47.2211
46.8579
45.9432
45.8705
45.7299
45.6722
45.7372
45.8937
46.0858
46.265
46.3942
46.4439
46.4036
46.2704
46.0758
45.8861
45.7196
45.5763
45.4633
45.3814
45.3194
45.299
45.3283
45.3786
45.3804
45.2936
45.1318
44.9169
44.6745
44.4014
44.1467
43.9922
43.9477
44.0353
44.2538
44.5654
44.9367
45.3052
45.6205
45.8686
46.0469
46.145
46.1707
46.142
46.0721
45.8826
45.5632
45.1489
44.6314
43.9872
43.2221
42.3234
41.3901
40.5523
39.7337
38.8096
37.9475
37.2617
36.7046
36.3306
36.1335
36.0064
35.9997
36.0807
36.2686
36.7842
37.6278
38.7234
40.0949
41.9036
43.9523
45.9176
48.0603
50.5426
53.1729
55.1256
56.3009
57.4381
58.4868
59.0822
59.1481
58.841
57.9025
56.4348
54.5555
52.4107
49.9723
47.3566
44.7802
42.2271
39.8137
37.5727
35.3955
33.474
31.5386
29.5909
28.013
26.0404
24.0561
22.3889
20.4141
19.0095
17.8377
17.053
17.2011
17.2098
17.8722
18.785
19.886
21.2706
22.8463
24.8385
26.736
28.9641
31.2256
33.5905
35.8769
38.4654
40.775
43.2139
45.4826
47.7015
49.6924
51.6942
53.2115
54.6425
55.7444
56.4563
56.8813
56.9822
56.768
56.2358
55.4597
54.3308
52.9242
51.3092
49.3802
47.3059
45.1065
42.9186
40.4893
38.1617
35.9667
33.8632
31.9793
30.226
28.6598
27.2284
26.1415
24.9455
24.1599
23.4064
22.7104
22.3698
22.0094
21.9196
21.9695
22.4246
23.1842
23.8622
25.4555
26.7897
28.6367
30.7776
32.9738
35.914
38.6542
41.9863
45.6358
49.299
53.1554
56.4767
59.7782
62.6278
65.0901
67.3915
69.1026
70.5204
71.6587
72.3628
72.7643
72.7921
72.5986
72.2267
71.3292
70.4439
69.1677
68.0619
66.326
64.7589
63.9196
62.6263
62.0148
61.9339
62.3189
63.0342
63.5598
63.8126
62.9369
60.0996
57.4148
34.3462
45.6028
45.551
45.5886
45.6819
45.8157
45.9671
46.1164
46.2439
46.3303
46.3558
46.3189
46.2128
46.053
45.8797
45.7198
45.5809
45.4682
45.3908
45.3355
45.3134
45.3151
45.3178
45.3022
45.2234
45.096
44.9117
44.7047
44.4916
44.2736
44.1341
44.0872
44.1663
44.3599
44.62
44.9487
45.2639
45.5493
45.785
45.9433
46.0375
46.0599
46.0165
45.9131
45.7218
45.4104
44.9817
44.4666
43.8483
43.1214
42.3005
41.4174
40.5781
39.7765
38.9359
38.1462
37.4842
36.9612
36.6014
36.3901
36.2884
36.2852
36.3996
36.5983
37.1578
38.0362
39.0308
40.4203
42.1567
44.0138
45.9011
48.1729
50.7789
52.973
54.5065
55.8532
57.2448
58.3215
58.6843
58.4112
58.043
57.4236
56.181
54.3644
52.2705
49.9644
47.4891
45.0106
42.573
40.2865
38.1495
35.9918
34.0684
32.3074
30.3861
28.7685
27.0653
25.0865
23.5919
21.9368
20.4689
19.6553
18.8771
18.8599
19.0093
19.4351
20.4622
21.4988
22.8777
24.313
26.2926
28.1966
30.0835
32.1662
34.216
36.2598
38.5026
40.5927
42.7099
44.7555
46.7793
48.679
50.4064
51.8091
52.9331
53.6959
53.9669
54.0079
53.6534
53.0707
52.1827
51.0838
49.7671
48.4032
46.9898
45.317
43.5821
41.732
39.9891
38.0557
36.1822
34.6214
33.1363
31.7693
30.4697
29.3402
28.1883
27.3674
26.3829
25.6965
25.1793
24.6089
24.2289
24.0745
24.1075
24.1497
24.6841
25.6192
26.3353
27.8816
29.282
31.113
33.3129
35.5154
38.4088
41.0732
44.1503
47.2716
50.2963
53.7423
56.5415
59.4632
62.0359
64.2227
66.3632
67.8736
69.253
70.3882
70.9874
71.2859
71.5125
71.3618
70.9286
70.1184
69.1037
68.4305
67.0863
65.4176
64.5692
63.233
62.3612
61.7265
61.1603
61.0922
61.2414
61.1164
59.7373
59.1282
52.308
48.8482
28.1128
45.7127
45.6372
45.656
45.7901
45.9482
46.0707
46.147
46.1878
46.2143
46.2108
46.1851
46.1094
46.0026
45.8682
45.7263
45.6018
45.4872
45.4127
45.3461
45.3138
45.2917
45.2622
45.2414
45.16
45.0668
44.9128
44.7417
44.5752
44.3938
44.2908
44.2378
44.3018
44.4631
44.668
44.9495
45.209
45.4524
45.6665
45.7921
45.876
45.8901
45.8213
45.7078
45.4976
45.2024
44.7987
44.292
43.7116
43.0377
42.2886
41.4794
40.675
39.8964
39.1401
38.428
37.8048
37.3273
36.9816
36.7815
36.7063
36.7274
36.8835
37.1627
37.7131
38.5166
39.5218
40.8586
42.4407
44.2511
46.2156
48.2457
50.2994
52.2652
54.0411
55.5324
56.5749
57.3287
57.9006
57.8605
57.2674
56.5442
55.488
53.8858
51.9978
49.8467
47.4974
45.1814
42.8676
40.6772
38.6597
36.5769
34.665
33.0573
31.2732
29.5461
28.0872
26.3876
24.8027
23.5154
22.1712
21.4068
20.8468
20.6394
20.98
21.3662
22.3188
23.5044
24.9139
26.2781
27.9306
29.6984
31.2893
33.1014
34.8679
36.5359
38.3626
40.2548
42.1586
44.0511
45.8849
47.7135
49.1735
50.4491
51.2558
51.6578
51.5432
51.0614
50.2122
49.1062
47.8184
46.4247
44.9158
43.4409
42.1861
40.8292
39.5151
38.1465
36.8785
35.5127
34.1661
33.2104
32.3196
31.5111
30.6805
30.1083
29.349
28.814
28.228
27.7074
27.4082
27.1285
26.8573
26.8224
26.9582
27.1941
27.689
28.7219
29.5274
30.9691
32.5693
34.2463
36.3697
38.5076
41.1076
43.5203
46.1474
48.7473
51.1212
54.194
56.4864
59.0327
61.2589
63.2079
65.2169
66.5131
67.767
68.9412
69.5033
69.7601
69.8565
70.1197
69.5082
68.7278
67.9885
67.0445
66.2108
64.5414
63.8388
62.7219
61.7288
61.1923
59.6816
60.3979
58.4488
59.4439
55.4346
54.4953
46.3427
38.9928
27.279
45.0026
45.155
45.7143
46.1347
46.3203
46.3058
46.2014
46.0959
46.0415
46.0195
46.0272
46.015
45.9699
45.8865
45.7669
45.6526
45.5382
45.4516
45.3664
45.3102
45.2671
45.2134
45.1847
45.1029
45.0313
44.9153
44.7771
44.6646
44.5141
44.4532
44.3993
44.4373
44.5682
44.7087
44.9447
45.1447
45.3375
45.5236
45.6096
45.6832
45.6871
45.5959
45.483
45.2603
44.9818
44.6057
44.1343
43.5962
42.9752
42.3107
41.5727
40.8444
40.1201
39.4356
38.8142
38.2351
37.8118
37.487
37.3184
37.2898
37.3192
37.5415
37.8537
38.371
39.1485
40.1138
41.3878
42.8869
44.5568
46.2978
47.9718
49.7565
51.8234
53.5076
54.6031
55.4883
56.1888
56.7921
56.8385
56.196
55.4273
54.5357
53.2209
51.6213
49.6828
47.4529
45.305
43.1933
41.1054
39.1534
37.274
35.4245
33.7781
32.2063
30.538
29.1018
27.7282
26.3062
25.1714
24.079
23.2687
22.9476
22.8868
23.3189
23.8583
24.6975
25.8399
27.1407
28.4175
29.7237
31.1948
32.4755
33.9144
35.3971
36.7786
38.1753
39.8443
41.5887
43.3444
45.0411
46.7426
48.1107
49.2418
49.8381
49.8573
49.3155
48.186
46.7129
44.9544
43.2415
41.518
39.8802
38.2702
37.0184
35.9413
35.0484
34.2485
33.5026
32.7552
32.1691
31.7721
31.4245
31.2063
30.9086
30.8676
30.5986
30.422
30.3248
30.1841
30.1048
30.1708
30.1527
30.3125
30.5941
31.0456
31.6039
32.5956
33.3839
34.7039
36.3557
37.8499
39.719
41.5662
43.6211
45.6335
47.7166
50.046
51.8337
54.489
56.3024
58.4922
60.4059
62.1143
63.8607
65.0393
66.0185
67.3383
67.7764
68.077
68.2674
68.4184
67.8745
67.0053
66.6112
66.1384
64.3808
64.2399
62.3989
62.7233
60.2083
60.9854
58.0599
58.5251
55.8798
55.6238
51.6782
48.6723
42.5779
33.4064
27.2961
44.8052
45.1144
46.0875
46.6336
46.7247
46.512
46.2114
45.9509
45.8125
45.776
45.8292
45.866
45.8927
45.8663
45.7952
45.7042
45.5814
45.495
45.3831
45.3078
45.2443
45.1699
45.1378
45.0446
44.997
44.9082
44.8027
44.744
44.613
44.5986
44.5458
44.5622
44.6704
44.7374
44.9382
45.0729
45.2143
45.3688
45.4088
45.4654
45.436
45.3607
45.2435
45.0181
44.7649
44.4118
43.9923
43.5124
42.9424
42.3664
41.7152
41.0721
40.432
39.8189
39.278
38.7691
38.3899
38.1019
37.9701
37.9729
38.029
38.2738
38.597
39.1199
39.8489
40.7605
41.9656
43.2956
44.7273
46.1837
47.7612
49.4885
51.2014
52.5432
53.5154
54.3997
55.0012
55.4287
55.5718
55.0736
54.311
53.4691
52.3986
51.0763
49.4512
47.5182
45.5706
43.6433
41.734
39.8845
38.1357
36.4476
34.8019
33.3394
31.9039
30.546
29.3391
28.2214
27.1691
26.282
25.6964
25.5879
25.6894
26.056
26.678
27.452
28.3725
29.3624
30.4635
31.4636
32.5815
33.529
34.6096
35.8181
37.0048
38.0762
39.4523
40.9835
42.59
44.2231
45.9061
47.372
48.45
48.8449
48.529
47.471
45.6463
43.377
40.9374
38.6424
36.5215
34.7342
33.0463
31.7033
30.8584
30.3352
30.0781
29.9329
29.773
30.064
30.2969
30.5291
30.8626
31.1793
31.6321
31.8853
32.1137
32.496
32.8234
33.0413
33.439
33.6779
34.1216
34.5514
35.2185
35.8696
36.7081
37.5044
38.6239
40.1952
41.4993
42.9739
44.3479
45.8282
47.518
48.9672
51.0201
52.4033
54.6172
56.0011
57.8232
59.3776
60.8818
62.325
63.4805
64.1503
65.3809
65.7332
66.2396
66.3657
66.6295
65.4746
65.77
64.8085
65.3844
62.6885
62.765
61.1764
61.3477
58.9333
58.7843
56.3966
55.7309
53.2851
51.0895
48.1209
43.8257
39.4221
32.0638
26.9815
44.8698
45.2836
46.3229
46.8604
46.8665
46.5325
46.1373
45.8083
45.6339
45.5919
45.6854
45.7798
45.8554
45.861
45.8256
45.7553
45.6352
45.542
45.4116
45.3186
45.2243
45.1468
45.0938
45.0056
44.9737
44.9064
44.8378
44.8007
44.716
44.7097
44.6791
44.6755
44.7434
44.7894
44.9117
45.0125
45.1066
45.2008
45.2367
45.258
45.2291
45.1456
45.0123
44.8102
44.572
44.2554
43.8765
43.4591
42.9573
42.454
41.9192
41.3514
40.8017
40.2514
39.7834
39.3563
39.0075
38.763
38.6519
38.678
38.7581
38.9904
39.339
39.8425
40.5207
41.3655
42.4365
43.5778
44.8041
46.139
47.6349
49.0949
50.3665
51.5733
52.5618
53.3287
53.8496
54.1981
54.3411
53.9926
53.3011
52.4967
51.5765
50.5155
49.1979
47.6048
45.9166
44.1795
42.4888
40.8667
39.2927
37.7848
36.307
34.9728
33.7765
32.4952
31.3814
30.4876
29.6323
29.0106
28.6087
28.5382
28.7084
28.9936
29.5025
30.1125
30.8448
31.5089
32.2565
32.9839
33.7948
34.5747
35.3201
36.134
37.0437
37.9096
39.0037
40.2975
41.8151
43.507
45.3253
47.0092
48.1517
48.4668
47.9069
46.2661
43.7402
40.6011
37.39
34.3451
31.5958
29.5203
27.868
26.4888
25.7827
25.508
25.727
26.2333
26.7556
27.8294
28.7114
29.6535
30.5812
31.506
32.3736
33.1622
33.8269
34.5958
35.3743
35.9451
36.6451
37.1552
37.8626
38.4088
39.2177
39.9613
40.7643
41.5376
42.4682
43.8168
44.7536
45.9163
46.8909
47.9047
49.2645
50.1391
51.7514
52.7055
54.5603
55.6033
56.8977
58.1263
59.4213
60.5149
61.6506
62.0828
63.3168
63.2641
64.2765
64.0432
64.9036
63.3573
63.8283
63.0272
63.453
61.3269
60.3477
59.4623
59.2445
56.9867
55.8728
54.2955
52.3767
50.5159
48.3051
45.6775
41.4177
38.0033
32.6229
27.5142
45.5804
45.784
46.2928
46.471
46.3216
46.0087
45.7731
45.5973
45.5425
45.5533
45.6613
45.774
45.8515
45.8667
45.8334
45.7788
45.6556
45.5566
45.4259
45.3149
45.2201
45.1288
45.0712
44.9839
44.9644
44.9145
44.8613
44.8466
44.7881
44.7917
44.7746
44.7599
44.7977
44.8261
44.892
44.9544
45.0121
45.0524
45.077
45.0818
45.0245
44.9473
44.8114
44.6242
44.4173
44.1298
43.7957
43.4339
42.9938
42.5712
42.1213
41.6226
41.1421
40.6758
40.2791
39.9161
39.6002
39.3888
39.2972
39.3303
39.4232
39.6424
40.005
40.48
41.0972
41.8475
42.7646
43.7653
44.8509
46.081
47.3539
48.5424
49.6559
50.7982
51.7091
52.3515
52.7973
53.1034
53.2447
53.0037
52.4162
51.7168
50.9035
50.0341
49.0025
47.7195
46.3173
44.8614
43.3777
41.9971
40.6666
39.2905
38.0838
36.8577
35.706
34.6345
33.6737
32.962
32.3098
31.8642
31.5427
31.3985
31.5994
31.8565
32.1117
32.4396
32.978
33.4488
33.9319
34.4521
34.9697
35.5371
35.9636
36.3657
36.8649
37.5135
38.3135
39.4463
40.9332
42.8058
44.9281
46.946
48.3547
48.7846
48.0162
45.8355
42.5516
38.6129
34.6092
30.8424
27.4491
24.9689
23.0617
21.7174
21.0564
20.8453
21.4062
22.5091
23.7781
25.4787
27.0883
28.754
30.3246
31.8963
33.1651
34.4282
35.5419
36.6529
37.7449
38.676
39.654
40.3883
41.3352
42.0131
42.8759
43.6796
44.5801
45.358
45.9744
47.0379
47.6506
48.6452
49.2724
49.9827
50.9048
51.2785
52.5819
52.8521
54.3045
55.1047
55.9344
56.7436
57.7284
58.4624
59.6654
59.7756
61.0392
60.7311
62.0068
61.4415
62.242
60.9801
60.9625
60.362
60.5363
58.7835
57.8328
57.0828
56.1109
54.14
53.2712
52.1573
50.2018
49.4525
47.2757
45.2684
42.0656
38.7861
34.1284
29.2812
48.0468
47.6251
46.5349
45.7393
45.2335
45.0365
45.1166
45.2597
45.4248
45.5975
45.7193
45.8264
45.8801
45.8773
45.8308
45.7727
45.6453
45.5404
45.4166
45.2991
45.2175
45.113
45.0568
44.9729
44.9602
44.9239
44.8778
44.8816
44.8349
44.8498
44.8327
44.8183
44.8322
44.8368
44.8792
44.8985
44.9338
44.9335
44.9387
44.9433
44.8662
44.8023
44.6766
44.4863
44.3054
44.046
43.7543
43.4325
43.0577
42.6897
42.3088
41.88
41.4507
41.0839
40.7393
40.4219
40.149
39.9473
39.8875
39.9057
39.9946
40.2134
40.5436
40.993
41.5336
42.1842
43.019
43.9057
44.8762
45.9451
46.9647
48.0516
49.0848
50.0455
50.9076
51.496
51.9509
52.1785
52.266
52.1319
51.7039
51.1015
50.4167
49.7084
48.88
47.882
46.7422
45.5511
44.2952
43.1148
41.9965
40.8297
39.792
38.7012
37.6802
36.7694
36.0153
35.453
34.9132
34.5378
34.2322
34.0973
34.1745
34.2936
34.4773
34.6461
34.9763
35.2988
35.6783
36.0424
36.1771
36.4074
36.5006
36.5559
36.5987
36.8234
37.372
38.3224
39.8531
41.9779
44.5846
47.0895
48.9402
49.6117
48.7405
46.0628
41.9997
37.2158
32.4086
27.9404
24.2178
21.3376
18.9475
17.6141
16.9857
16.8255
17.6473
19.1572
21.0024
23.1925
25.4802
27.8694
30.06
32.1873
34.0012
35.6941
37.1926
38.694
40.0309
41.2257
42.4279
43.4068
44.4871
45.2853
46.17
47.0713
47.9901
48.7717
49.2435
50.0699
50.4307
51.2385
51.474
52.0334
52.4663
52.418
53.4965
53.1849
54.1439
54.4426
54.9888
55.5811
56.0137
56.3342
57.6041
57.5882
58.3965
57.885
58.6402
58.0436
57.8549
57.4505
57.2614
56.9583
56.8829
55.7158
55.2309
54.5671
53.2509
52.5914
52.5339
51.829
50.5397
49.9137
47.6364
46.0246
43.1994
39.7486
35.515
30.9014
48.9544
48.3705
46.632
45.3286
44.5886
44.4101
44.6918
45.0632
45.3966
45.6634
45.8076
45.9305
45.957
45.9163
45.839
45.762
45.6259
45.5137
45.3986
45.2807
45.2145
45.1094
45.0524
44.9875
44.9681
44.9412
44.8988
44.9073
44.8704
44.8852
44.871
44.8606
44.855
44.8429
44.8732
44.8572
44.8764
44.8462
44.8298
44.8366
44.7346
44.6797
44.5616
44.378
44.2264
43.9911
43.7392
43.4511
43.1214
42.8116
42.4804
42.1144
41.7412
41.4351
41.1603
40.8672
40.6311
40.4708
40.3992
40.4276
40.4963
40.6868
41.0075
41.3796
41.868
42.4486
43.1705
43.9835
44.8181
45.7349
46.6756
47.6672
48.5726
49.372
50.1306
50.7038
51.0868
51.3101
51.4456
51.3767
51.095
50.64
50.0704
49.493
48.8407
48.0583
47.1301
46.1993
45.1518
44.1134
43.2144
42.2601
41.3012
40.3986
39.6041
38.8519
38.2565
37.7863
37.314
36.9246
36.6481
36.5239
36.4961
36.5707
36.7409
36.8941
37.0726
37.3017
37.4761
37.6545
37.4699
37.256
37.0065
36.6485
36.318
35.989
36.2554
36.966
38.5205
41.018
44.1339
47.2989
49.608
50.6459
49.7928
46.4989
41.6217
35.949
30.3122
25.1744
21.0416
17.8131
15.4076
13.9692
13.263
13.3704
14.5497
16.4306
18.6431
21.2945
24.1783
27.1035
29.8153
32.4387
34.8008
36.8848
38.7721
40.6429
42.2234
43.7178
45.0831
46.2858
47.4525
48.4314
49.3374
50.2092
51.0927
51.7702
52.3443
53.0543
53.1893
53.7574
53.5091
53.9647
53.9865
53.6771
54.2369
53.6489
54.1803
53.8399
53.9791
54.5191
54.5613
54.5484
55.3168
55.2622
55.3679
55.1091
54.8169
54.0735
54.2676
53.9986
54.1301
53.4445
53.3609
53.2548
53.5108
53.3832
53.0276
53.4548
53.4579
53.2731
52.3783
51.1068
48.6143
46.865
44.0736
40.3242
36.3043
31.8798
49.3262
48.807
46.8763
45.3494
44.4717
44.1884
44.4575
44.9064
45.308
45.6488
45.8395
45.978
46.0151
45.942
45.8438
45.7394
45.5995
45.4789
45.3725
45.2557
45.1993
45.1024
45.0448
45.009
44.9754
44.9583
44.9172
44.9281
44.8993
44.8987
44.8969
44.8728
44.8653
44.8348
44.8518
44.8246
44.8146
44.7826
44.7439
44.7517
44.6419
44.5807
44.4881
44.3029
44.171
43.9657
43.7343
43.4886
43.1885
42.9296
42.6461
42.322
42.0089
41.7476
41.5248
41.2599
41.0509
40.9244
40.8492
40.8711
40.9293
41.097
41.3879
41.7114
42.1446
42.6627
43.2942
44.0018
44.7136
45.5345
46.3965
47.2548
48.043
48.7434
49.4249
49.959
50.2989
50.5547
50.733
50.7303
50.5731
50.2487
49.8221
49.3581
48.8505
48.2383
47.5072
46.7971
45.939
45.0436
44.3023
43.5322
42.6819
42.0092
41.4162
40.7715
40.2806
39.8017
39.4622
39.123
38.8559
38.7382
38.7256
38.9159
38.9251
39.0794
39.2112
39.314
39.3127
39.2048
38.8893
38.2286
37.7053
36.8224
36.0101
35.2282
34.9521
35.5987
37.0354
39.9474
43.4976
47.0715
50.067
51.14
49.9489
46.364
40.9991
34.6537
28.3755
22.7996
18.2232
14.6273
12.124
10.6218
9.99039
10.4194
11.8805
14.0858
16.6722
19.8105
23.227
26.5743
29.7089
32.7625
35.5729
37.9932
40.2509
42.524
44.3301
46.1026
47.7466
49.0532
50.3405
51.4486
52.5525
53.3483
54.0775
54.7574
55.2528
55.8845
55.8032
56.2473
55.7143
55.8622
55.3509
55.048
54.7887
53.9756
54.1793
53.4957
53.3161
53.2624
53.1746
53.2209
53.0442
52.7976
52.2472
52.1304
51.7337
50.2243
51.0926
51.0105
51.2776
51.0001
51.9385
52.4505
53.2179
53.9231
54.6602
55.546
55.0407
55.0252
53.5061
51.892
49.6347
47.2698
44.3682
40.9038
36.9427
32.6489
49.5684
49.0759
47.0928
45.4406
44.4523
44.0692
44.2844
44.7506
45.2171
45.6253
45.8497
46
46.0501
45.9607
45.8468
45.72
45.573
45.455
45.3493
45.238
45.1876
45.0965
45.0424
45.0319
44.9838
44.9745
44.9386
44.9418
44.9261
44.9029
44.908
44.8816
44.8705
44.8324
44.8347
44.8059
44.7682
44.7399
44.687
44.6781
44.576
44.4974
44.4279
44.258
44.1292
43.9528
43.7492
43.5361
43.2692
43.0523
42.8013
42.5182
42.2582
42.0238
41.8448
41.6165
41.4211
41.3359
41.2585
41.262
41.3245
41.4493
41.71
41.9926
42.3488
42.8216
43.3521
43.9602
44.605
45.3198
46.0914
46.8227
47.5029
48.1449
48.76
49.2654
49.6111
49.9048
50.1252
50.1963
50.142
49.9242
49.6199
49.2843
48.8995
48.4218
47.9003
47.3363
46.6512
45.9608
45.3208
44.7151
44.0473
43.5126
43.0433
42.4751
42.0628
41.6541
41.391
41.1468
40.9413
40.9416
40.874
41.0806
41.0752
41.1315
41.2205
41.1422
41.182
40.8083
40.3932
39.4386
38.5278
37.3041
35.7621
34.784
33.8308
34.1312
35.7798
38.5965
42.5355
46.1738
48.8922
50.0774
48.9227
45.2519
39.6898
33.1598
26.6969
20.9209
16.1978
12.5602
9.93789
8.33573
7.68401
8.14805
9.65303
12.1561
15.1857
18.78
22.5534
26.2496
29.741
33.2088
36.3153
39.0595
41.7221
44.1672
46.3647
48.4415
50.3156
51.7534
53.197
54.3869
55.5327
56.421
57.1058
57.7239
58.1423
58.5174
58.3409
58.569
57.9567
57.8407
56.6973
56.2192
55.2103
54.3293
54.0126
53.0453
52.884
52.3401
51.6842
51.6638
50.9439
50.3967
49.9478
49.8598
49.5369
47.6982
48.6897
49.1087
49.3479
50.1204
52.0558
53.3123
54.4169
55.6511
56.6188
57.5193
56.6137
56.0364
54.22
52.2531
49.9362
47.482
44.3302
40.9749
37.7037
33.9768
49.6665
49.1785
47.1713
45.4767
44.4401
44.0385
44.2317
44.7075
45.2004
45.6327
45.8613
46.0046
46.0546
45.9558
45.839
45.6927
45.5511
45.4346
45.3313
45.2277
45.1819
45.1038
45.0471
45.0597
44.9997
44.9883
44.9656
44.9481
44.9473
44.9065
44.8999
44.8873
44.8573
44.8199
44.8123
44.7781
44.7325
44.703
44.6467
44.6228
44.5368
44.441
44.3861
44.2426
44.105
43.9524
43.7729
43.5895
43.3571
43.166
42.9494
42.7062
42.49
42.276
42.1306
41.9425
41.7564
41.7018
41.6281
41.6127
41.6797
41.7579
41.9884
42.2295
42.5027
42.9409
43.3682
43.8841
44.4775
45.0561
45.7392
46.384
46.9662
47.5734
48.1142
48.5769
48.9745
49.2952
49.5539
49.7271
49.755
49.6547
49.4937
49.2824
49.0109
48.68
48.3018
47.8732
47.3574
46.8155
46.3312
45.8455
45.3336
44.8803
44.4949
44.0539
43.6866
43.4484
43.2192
43.0253
42.8994
42.9427
42.9634
43.0353
43.024
43.03
43.1146
42.8976
42.8632
42.411
41.7085
40.7317
39.3602
38.0708
36.0536
34.3876
33.4426
33.0259
34.2426
37.1091
40.7256
43.8987
46.0996
46.9302
45.8924
42.6481
37.5849
31.4752
25.2087
19.525
14.8267
11.1659
8.5244
6.88529
6.27807
6.63941
8.17711
10.9265
14.1749
18.0856
22.2555
26.2149
29.9464
33.7044
37.0213
40.1198
43.0533
45.6399
48.1975
50.6041
52.5939
54.2766
55.8634
57.1463
58.295
59.1711
59.9558
60.5184
60.9558
61.0147
60.738
60.6765
59.8572
59.5541
58.0861
57.2754
55.5089
54.6115
53.6849
52.842
52.2523
51.6046
50.6038
50.0857
49.2519
48.6892
48.4091
48.3924
48.3024
47.0084
47.5329
48.3808
49.3316
51.0782
53.4175
55.4174
56.8671
57.6815
58.1389
58.6496
57.7216
56.31
54.5
52.4268
49.6712
47.7835
44.8113
41.4027
38.6677
35.4356
49.6436
49.1482
47.161
45.4951
44.4886
44.1302
44.3306
44.7893
45.2576
45.6638
45.8762
45.9962
46.034
45.9336
45.8091
45.6637
45.5224
45.4162
45.3148
45.2194
45.1801
45.1136
45.0588
45.0739
45.0202
44.9955
44.9867
44.9484
44.9588
44.9124
44.8898
44.8923
44.8455
44.8177
44.7945
44.7603
44.7128
44.6741
44.6228
44.5814
44.5095
44.4039
44.352
44.2388
44.0964
43.9633
43.8055
43.6492
43.4521
43.2739
43.0917
42.8889
42.7022
42.5165
42.3892
42.235
42.0755
42.0184
41.961
41.9366
41.9851
42.054
42.2302
42.4323
42.6557
43.0104
43.367
43.7911
44.2872
44.7688
45.3433
45.9104
46.4331
46.992
47.4952
47.9398
48.364
48.7335
49.0448
49.2825
49.4183
49.4355
49.3999
49.3279
49.1771
48.9777
48.7272
48.4467
48.0681
47.6683
47.3257
46.9228
46.5383
46.1538
45.8515
45.5761
45.2826
45.1188
44.9259
44.8184
44.7228
44.6843
44.8781
44.8234
44.6842
44.7212
44.7392
44.466
44.1435
43.7036
42.8165
41.7843
40.3415
38.7097
36.8969
34.71
33.1521
32.8157
33.5443
35.6377
38.3392
40.2889
41.2631
41.6282
40.9226
38.8036
35.0278
29.9053
24.2278
18.8893
14.2878
10.6262
7.94163
6.19896
5.46625
5.89066
7.57106
10.3638
13.7241
17.9166
22.2433
26.3181
30.3199
34.2886
37.7876
41.1168
44.0982
46.9358
49.8404
52.3841
54.5106
56.3789
58.0892
59.4838
60.7352
61.644
62.3384
62.8901
63.2212
63.2145
62.8416
62.5501
61.4827
60.8127
59.2349
58.094
55.8566
54.9505
53.3131
52.954
51.6121
51.1246
49.827
48.7876
48.3777
47.9124
47.8616
47.69
47.6613
47.5266
48.5589
49.4185
50.8184
53.3415
55.5407
57.4762
58.486
58.8952
59.0315
59.1671
58.2787
56.2513
54.4432
52.7275
49.7747
48.4411
45.9314
42.3849
39.7801
36.9989
49.4251
48.9417
47.0433
45.4982
44.5937
44.3228
44.5502
44.9705
45.3842
45.7195
45.9002
45.9753
45.9847
45.8809
45.7551
45.6182
45.4897
45.3957
45.3025
45.2269
45.1839
45.1367
45.0817
45.0865
45.0464
45.0096
45.0002
44.9565
44.9588
44.9138
44.8814
44.8793
44.835
44.8058
44.7737
44.7385
44.6954
44.6466
44.6035
44.5543
44.4826
44.3955
44.3301
44.2413
44.1088
43.9797
43.8513
43.7089
43.5417
43.3801
43.2237
43.0591
42.898
42.7453
42.6288
42.504
42.3739
42.31
42.2611
42.2319
42.2609
42.3141
42.4393
42.5968
42.7791
43.0483
43.3407
43.6754
44.0706
44.478
44.9425
45.439
45.9016
46.4236
46.9042
47.3384
47.7927
48.2063
48.562
48.8783
49.1205
49.2618
49.359
49.4179
49.3911
49.3114
49.1905
49.0307
48.7774
48.4965
48.2557
47.9373
47.6444
47.3965
47.1964
47.0042
46.8198
46.6655
46.4764
46.3978
46.3447
46.3183
46.4249
46.2822
46.078
46.0161
45.8284
45.5277
45.0722
44.5001
43.6511
42.5327
41.1915
39.4424
37.5466
35.6826
34.0391
33.3137
33.8834
35.0821
36.0085
35.8724
35.2053
34.8531
34.796
34.3423
32.574
28.9239
24.1128
19.172
14.6993
11.0539
8.31673
6.5096
5.76618
6.14824
7.81391
10.513
13.9705
18.189
22.42
26.6555
30.8865
34.8727
38.482
41.9024
44.9957
48.103
51.1089
53.7379
56.0889
58.1342
59.8078
61.2585
62.5966
63.5387
64.3067
64.8094
64.9593
64.8004
64.4107
64.0242
62.9248
61.8449
60.0332
58.5839
56.1547
55.1807
53.2507
53.1424
51.0252
51.1497
49.1632
48.154
48.2986
47.4677
47.9255
48.5495
48.3837
48.9438
50.9363
52.3518
53.8575
56.0165
57.5082
59.0252
59.5224
59.7099
59.4534
59.3053
58.1994
55.9757
54.4018
53.045
50.5057
49.2332
47.0255
43.7565
41.0814
38.5919
48.9405
48.4963
46.8709
45.5775
44.8549
44.6902
44.8986
45.2487
45.5619
45.7963
45.9136
45.9382
45.9093
45.8073
45.6921
45.5685
45.4632
45.376
45.2941
45.2359
45.189
45.1518
45.1084
45.0934
45.0635
45.0203
44.9992
44.9637
44.9471
44.9125
44.8762
44.8656
44.8267
44.7959
44.7615
44.7224
44.6865
44.6337
44.598
44.5407
44.4691
44.4006
44.3212
44.2421
44.126
44.0029
43.8985
43.7649
43.6231
43.4888
43.3464
43.2166
43.0776
42.9475
42.8481
42.732
42.6349
42.5678
42.5121
42.4954
42.4962
42.5388
42.6296
42.7333
42.8866
43.0745
43.2903
43.5538
43.8486
44.1835
44.5704
44.9806
45.4025
45.8641
46.3539
46.8215
47.289
47.7256
48.1458
48.5255
48.8612
49.1326
49.3519
49.5331
49.6344
49.6735
49.6646
49.6031
49.4723
49.3057
49.0954
48.8737
48.6763
48.5285
48.4052
48.2716
48.1265
47.9695
47.8127
47.6439
47.5258
47.5894
47.5966
47.299
46.9627
46.7256
46.4727
46.1186
45.574
44.933
44.0959
42.9906
41.7246
40.2129
38.4736
36.7834
35.5125
34.996
35.1259
35.1415
34.1523
31.8621
29.7442
28.9557
29.9137
31.2816
31.6073
29.4957
25.4146
20.6742
16.1968
12.4456
9.56971
7.66588
6.8454
7.17217
8.74329
11.2768
14.6587
18.6975
22.8591
27.1849
31.405
35.3648
39.0549
42.5521
45.8327
49.0346
52.0445
54.8124
57.2743
59.3927
61.1511
62.6132
63.8616
64.7862
65.5664
66.1062
66.336
66.0087
65.4251
64.8998
63.9009
62.731
60.7908
58.9309
56.3259
55.0598
53.224
53.1969
50.8265
51.5919
48.6051
48.8391
48.7514
48.1183
48.9077
49.9426
50.6112
51.9141
53.359
55.0622
56.9822
58.3141
58.8147
59.8031
59.9094
60.2889
59.7665
59.3165
58.1707
56.0955
54.8694
53.675
51.6568
49.88
48.0791
45.5993
42.5909
39.9759
48.1695
47.8094
46.6683
45.7609
45.274
45.1826
45.3278
45.5499
45.7404
45.8594
45.9059
45.8888
45.8234
45.7296
45.6255
45.5201
45.4367
45.3611
45.2942
45.2513
45.2018
45.1673
45.1335
45.0999
45.0734
45.0309
45.0021
44.9688
44.9402
44.9091
44.8756
44.8568
44.8202
44.7925
44.7537
44.7103
44.6759
44.6238
44.5842
44.5259
44.459
44.4038
44.3213
44.2434
44.1468
44.0355
43.9417
43.8161
43.6955
43.5805
43.4521
43.3442
43.2249
43.1166
43.0244
42.9223
42.8465
42.7777
42.7248
42.7043
42.6895
42.717
42.7715
42.8386
42.9534
43.0781
43.2369
43.4405
43.6625
43.9456
44.2678
44.6201
45.0292
45.4745
45.9416
46.4223
46.8985
47.3672
47.8345
48.272
48.6838
49.0576
49.3725
49.6434
49.858
49.9913
50.0661
50.0968
50.0411
49.931
49.7907
49.6272
49.5053
49.4135
49.3162
49.2313
49.109
48.952
48.7588
48.5185
48.3213
48.2098
48.0699
47.84
47.5059
47.0083
46.6245
46.3375
45.805
45.0993
44.2717
43.2692
42.1272
40.8396
39.4915
38.2316
37.3319
36.9419
36.7202
35.7715
33.4027
29.7787
27.003
26.8297
28.5662
30.7812
32.7711
31.8393
28.3871
23.7358
19.0569
14.9793
11.7865
9.61243
8.55398
8.67627
10.0026
12.3497
15.5612
19.3778
23.4162
27.7043
31.8394
35.7993
39.5612
43.1127
46.5027
49.7473
52.7849
55.6356
58.1588
60.3083
62.0472
63.4755
64.6958
65.6301
66.3899
66.8246
66.918
66.6716
66.1686
65.4786
64.4689
63.212
61.2995
59.3152
56.7056
55.1125
53.0387
53.1409
50.6596
51.8182
48.5679
50.514
49.1963
50.172
50.4123
51.2512
53.2589
54.7319
55.7284
57.0553
59.0179
59.817
59.7273
60.392
60.5081
60.8686
60.129
59.7844
58.5231
56.9468
56.0864
54.6757
53.1553
50.9349
49.146
47.3415
44.0703
41.2581
47.3074
47.1136
46.5595
46.0826
45.8069
45.725
45.7451
45.8163
45.8768
45.8966
45.8858
45.8361
45.7569
45.6701
45.5809
45.4917
45.4208
45.3554
45.2987
45.2621
45.2143
45.1816
45.1502
45.1075
45.0767
45.0371
45.0008
44.9663
44.9324
44.9022
44.8714
44.8443
44.8117
44.7846
44.7465
44.7039
44.6724
44.6228
44.5772
44.5212
44.4569
44.4024
44.3206
44.2421
44.1586
44.059
43.9662
43.8548
43.7485
43.6456
43.5336
43.4381
43.3383
43.2433
43.1577
43.0667
42.9933
42.9256
42.8685
42.839
42.8191
42.8315
42.8663
42.9132
42.9954
43.0858
43.2086
43.3676
43.5523
43.7958
44.073
44.3995
44.7901
45.2147
45.665
46.1471
46.6393
47.1385
47.6447
48.1271
48.5945
49.0297
49.4104
49.7484
50.0242
50.2243
50.3612
50.4333
50.4138
50.3462
50.2527
50.138
50.0549
49.9665