/*--------------------------------*- C++ -*----------------------------------*\
| =========                 |                                                 |
| \\      /  F ield         | OpenFOAM: The Open Source CFD Toolbox           |
|  \\    /   O peration     | Version:  2.4.0                                 |
|   \\  /    A nd           | Web:      www.OpenFOAM.org                      |
|    \\/     M anipulation  |                                                 |
\*---------------------------------------------------------------------------*/
FoamFile
{
    version     2.0;
    format      ascii;
    class       volVectorField;
    location    "42";
    object      U;
}
// * * * * * * * * * * * * * * * * * * * * * * * * * * * * * * * * * * * * * //

dimensions      [0 1 -1 0 0 0 0];

internalField   nonuniform List<vector> 
4400
(
(0.0893418 0.000219116 0)
(0.0917184 0.000789024 0)
(0.0950332 -0.00168943 0)
(0.109551 -0.000541438 0)
(0.102918 0.000843009 0)
(0.097371 0.000868771 0)
(0.0862137 0.000455768 0)
(0.102031 -0.00169887 0)
(0.100849 0.000418655 0)
(0.102668 0.000701266 0)
(0.100197 -0.00108147 0)
(0.102646 0.000938813 0)
(0.091494 0.000762522 0)
(0.102076 -0.00159469 0)
(0.106627 2.58328e-05 0)
(0.101227 0.00109086 0)
(0.111004 -0.00172333 0)
(0.105747 0.000658671 0)
(0.11816 0.00185583 0)
(0.0774693 -0.00684431 0)
(0.259661 0.000833233 0)
(0.277806 0.00243396 0)
(0.274061 -0.00559478 0)
(0.290985 -0.00109412 0)
(0.277996 0.00240426 0)
(0.275945 0.00280477 0)
(0.262626 0.000919708 0)
(0.289119 -0.00559938 0)
(0.273449 0.00138186 0)
(0.290052 0.00184204 0)
(0.277743 -0.00307265 0)
(0.279374 0.00279642 0)
(0.274034 0.00195292 0)
(0.284533 -0.00535829 0)
(0.287611 0.000355973 0)
(0.28214 0.00242968 0)
(0.304829 -0.00470034 0)
(0.274541 0.000553095 0)
(0.321912 0.00481041 0)
(0.267455 -0.014937 0)
(0.411972 0.00162657 0)
(0.446004 0.00350869 0)
(0.4362 -0.00945005 0)
(0.446776 -0.000806963 0)
(0.44088 0.00409085 0)
(0.434115 0.00477172 0)
(0.426627 0.000561802 0)
(0.451923 -0.00952863 0)
(0.428766 0.00282455 0)
(0.455304 0.00209762 0)
(0.442265 -0.00406703 0)
(0.433081 0.00453652 0)
(0.442964 0.00239776 0)
(0.444867 -0.00916071 0)
(0.444637 0.00102226 0)
(0.445279 0.00302197 0)
(0.473594 -0.00763454 0)
(0.422588 0.00140298 0)
(0.49647 0.00401844 0)
(0.435671 -0.0178913 0)
(0.546711 0.0022865 0)
(0.586405 0.00371755 0)
(0.587695 -0.011961 0)
(0.578881 -0.000558982 0)
(0.589785 0.00549215 0)
(0.567456 0.00671873 0)
(0.571344 0.000174311 0)
(0.592815 -0.0128347 0)
(0.563449 0.00414468 0)
(0.59695 0.00151814 0)
(0.591733 -0.00422983 0)
(0.568815 0.00653902 0)
(0.587285 0.00214109 0)
(0.593352 -0.0112863 0)
(0.577243 0.00140348 0)
(0.583764 0.00253691 0)
(0.626321 -0.00905195 0)
(0.548871 0.00234271 0)
(0.639347 0.00101644 0)
(0.593037 -0.0167459 0)
(0.668934 0.00393621 0)
(0.693261 0.00185874 0)
(0.721384 -0.0145383 0)
(0.689935 0.000267595 0)
(0.72229 0.00687818 0)
(0.684829 0.00972369 0)
(0.68872 -0.00143678 0)
(0.715425 -0.0152138 0)
(0.675666 0.00590491 0)
(0.708856 -0.00114952 0)
(0.717212 -0.00451348 0)
(0.688866 0.00983993 0)
(0.702396 0.000154967 0)
(0.722365 -0.0128692 0)
(0.696609 0.00394826 0)
(0.692274 -7.2034e-05 0)
(0.754777 -0.0107847 0)
(0.664393 0.00619098 0)
(0.744457 -0.00564368 0)
(0.726283 -0.0155205 0)
(0.778996 0.00679502 0)
(0.776366 -0.00060294 0)
(0.827167 -0.0182414 0)
(0.781464 0.00117552 0)
(0.826321 0.00652533 0)
(0.791481 0.0145346 0)
(0.784969 -0.00302192 0)
(0.817702 -0.0175075 0)
(0.774448 0.00950656 0)
(0.796788 -0.00469835 0)
(0.812012 -0.0066226 0)
(0.789847 0.0141621 0)
(0.793007 -0.00234348 0)
(0.820577 -0.0160593 0)
(0.800038 0.00834684 0)
(0.782022 -0.00250717 0)
(0.85192 -0.0143125 0)
(0.767362 0.0123319 0)
(0.82691 -0.0124836 0)
(0.827836 -0.0159303 0)
(0.869856 0.00992012 0)
(0.84787 -0.00220074 0)
(0.904918 -0.022628 0)
(0.857876 0.00273071 0)
(0.900854 0.00441029 0)
(0.877537 0.0192879 0)
(0.864475 -0.00392923 0)
(0.897113 -0.0201696 0)
(0.85883 0.0141229 0)
(0.871738 -0.00700176 0)
(0.883978 -0.00951232 0)
(0.869951 0.0184293 0)
(0.865746 -0.00420201 0)
(0.892069 -0.0202973 0)
(0.880098 0.0128692 0)
(0.856537 -0.00408637 0)
(0.92258 -0.0187796 0)
(0.850567 0.0189859 0)
(0.895166 -0.0179701 0)
(0.90268 -0.0170661 0)
(0.936689 0.0124741 0)
(0.909657 -0.00265212 0)
(0.958731 -0.0266985 0)
(0.91931 0.00476718 0)
(0.952709 0.00169205 0)
(0.939511 0.0230874 0)
(0.926009 -0.00446412 0)
(0.953109 -0.0228162 0)
(0.923399 0.0183965 0)
(0.932202 -0.00804213 0)
(0.938442 -0.0120169 0)
(0.930938 0.022132 0)
(0.92273 -0.00502302 0)
(0.944095 -0.0244902 0)
(0.937329 0.0168634 0)
(0.91482 -0.0051339 0)
(0.970676 -0.0231882 0)
(0.911562 0.02485 0)
(0.948804 -0.0219926 0)
(0.952452 -0.0184269 0)
(0.979235 0.014164 0)
(0.957974 -0.00247389 0)
(0.991023 -0.0297394 0)
(0.963968 0.00679488 0)
(0.985384 -0.000684535 0)
(0.978756 0.0257146 0)
(0.968915 -0.00486146 0)
(0.986874 -0.0246643 0)
(0.966875 0.0215542 0)
(0.973924 -0.0083753 0)
(0.974396 -0.013817 0)
(0.972951 0.0248799 0)
(0.963004 -0.00494864 0)
(0.978988 -0.0278916 0)
(0.973848 0.0200279 0)
(0.956952 -0.00581136 0)
(0.998134 -0.0265249 0)
(0.951339 0.0291417 0)
(0.986082 -0.0245321 0)
(0.977813 -0.0195705 0)
(0.998945 0.014968 0)
(0.989472 -0.00213816 0)
(1.00243 -0.031279 0)
(0.990368 0.00827571 0)
(0.999379 -0.00216357 0)
(0.99673 0.0271658 0)
(0.992863 -0.00526364 0)
(0.999454 -0.0252414 0)
(0.990114 0.0231566 0)
(0.995454 -0.00824743 0)
(0.990897 -0.0148175 0)
(0.99523 0.0262875 0)
(0.985229 -0.00430949 0)
(0.996093 -0.0299829 0)
(0.990348 0.0220348 0)
(0.982726 -0.00622618 0)
(1.00533 -0.0280114 0)
(0.971991 0.0313276 0)
(1.00512 -0.0254727 0)
(0.981071 -0.0200576 0)
(0.997398 0.0148808 0)
(1.00202 -0.00184391 0)
(0.993168 -0.0310108 0)
(0.997567 0.00874284 0)
(0.994092 -0.00244893 0)
(0.994428 0.0273999 0)
(0.997291 -0.00557506 0)
(0.991593 -0.0244623 0)
(0.993905 0.022949 0)
(0.996726 -0.00773936 0)
(0.988246 -0.0148454 0)
(0.997297 0.0261909 0)
(0.988936 -0.00348276 0)
(0.993901 -0.0303121 0)
(0.987204 0.0225531 0)
(0.990821 -0.00639076 0)
(0.991813 -0.0273998 0)
(0.975383 0.0310788 0)
(1.00357 -0.0247652 0)
(0.965934 -0.0197783 0)
(0.976234 0.0139643 0)
(0.993838 -0.00166422 0)
(0.963454 -0.0289413 0)
(0.984924 0.00802432 0)
(0.968577 -0.00145686 0)
(0.972651 0.0263637 0)
(0.981454 -0.00576258 0)
(0.964175 -0.0225271 0)
(0.978752 0.0209796 0)
(0.978036 -0.00692794 0)
(0.966867 -0.0138583 0)
(0.979092 0.024673 0)
(0.97401 -0.00273119 0)
(0.970802 -0.028684 0)
(0.96543 0.0214341 0)
(0.978883 -0.00621016 0)
(0.958006 -0.0248697 0)
(0.962267 0.0284664 0)
(0.979959 -0.0225071 0)
(0.936059 -0.0189694 0)
(0.937343 0.0122551 0)
(0.962629 -0.00143993 0)
(0.913927 -0.0254334 0)
(0.951895 0.00630568 0)
(0.921836 0.00062257 0)
(0.932392 0.0240659 0)
(0.944842 -0.00577902 0)
(0.918501 -0.0197961 0)
(0.945155 0.0174863 0)
(0.939712 -0.00579742 0)
(0.926442 -0.0119983 0)
(0.941158 0.0218966 0)
(0.939461 -0.00203472 0)
(0.92587 -0.0253824 0)
(0.92655 0.0187511 0)
(0.94446 -0.00550273 0)
(0.906312 -0.0211344 0)
(0.932203 0.0239619 0)
(0.934923 -0.0190531 0)
(0.893392 -0.0180004 0)
(0.882259 0.00977214 0)
(0.905351 -0.000726388 0)
(0.846303 -0.0212736 0)
(0.897478 0.00406959 0)
(0.853503 0.00338164 0)
(0.875915 0.0205024 0)
(0.887501 -0.00538926 0)
(0.856057 -0.0168119 0)
(0.893646 0.0128397 0)
(0.880959 -0.00419285 0)
(0.865988 -0.00958196 0)
(0.884261 0.0181991 0)
(0.883007 -0.00107583 0)
(0.860202 -0.02111 0)
(0.872142 0.0147735 0)
(0.88661 -0.00412509 0)
(0.840337 -0.0172066 0)
(0.884393 0.0183051 0)
(0.870177 -0.0148397 0)
(0.837459 -0.0170167 0)
(0.81011 0.00681167 0)
(0.819706 0.000808383 0)
(0.763735 -0.0173646 0)
(0.819408 0.00203761 0)
(0.766606 0.00588304 0)
(0.806257 0.0156234 0)
(0.808409 -0.00436882 0)
(0.778232 -0.0142366 0)
(0.822702 0.0078733 0)
(0.798442 -0.00178816 0)
(0.785623 -0.00716199 0)
(0.808457 0.014156 0)
(0.802952 0.000449632 0)
(0.777981 -0.0170644 0)
(0.802606 0.00995795 0)
(0.805784 -0.00216137 0)
(0.762696 -0.0139475 0)
(0.816153 0.0125039 0)
(0.785819 -0.0103276 0)
(0.765675 -0.0160377 0)
(0.716151 0.00411366 0)
(0.708084 0.00290876 0)
(0.668517 -0.0142855 0)
(0.71656 0.000610294 0)
(0.668608 0.00651078 0)
(0.719537 0.0103227 0)
(0.704555 -0.0024051 0)
(0.685579 -0.0125582 0)
(0.725255 0.00415432 0)
(0.690323 0.00131184 0)
(0.688729 -0.00577661 0)
(0.711744 0.0103978 0)
(0.70111 0.00206989 0)
(0.683255 -0.0142795 0)
(0.71224 0.0055013 0)
(0.701714 0.000147861 0)
(0.671275 -0.0116817 0)
(0.72017 0.00789064 0)
(0.68097 -0.00606798 0)
(0.673391 -0.0148186 0)
(0.595365 0.00248128 0)
(0.579054 0.00448265 0)
(0.559629 -0.0120013 0)
(0.59089 -0.000568666 0)
(0.558046 0.00530999 0)
(0.602319 0.00685229 0)
(0.578454 -0.000290834 0)
(0.57436 -0.0112432 0)
(0.595127 0.00288598 0)
(0.565209 0.00330672 0)
(0.57542 -0.00557455 0)
(0.589721 0.00765655 0)
(0.581618 0.00277296 0)
(0.570734 -0.0120529 0)
(0.59112 0.00301821 0)
(0.575666 0.00199236 0)
(0.558714 -0.00972636 0)
(0.592701 0.00515315 0)
(0.557752 -0.00280557 0)
(0.556325 -0.0128496 0)
(0.449486 0.00181021 0)
(0.440178 0.00408753 0)
(0.429551 -0.00946583 0)
(0.440908 -0.000726581 0)
(0.424586 0.004072 0)
(0.454984 0.00484716 0)
(0.438595 0.00048004 0)
(0.437365 -0.00881381 0)
(0.441164 0.00254463 0)
(0.429239 0.00294254 0)
(0.436601 -0.00468646 0)
(0.444726 0.00540609 0)
(0.443631 0.00238411 0)
(0.431795 -0.00883006 0)
(0.44258 0.00183666 0)
(0.431526 0.00251816 0)
(0.422203 -0.00738832 0)
(0.441275 0.00326754 0)
(0.417961 -0.000838636 0)
(0.415028 -0.0098194 0)
(0.284262 0.000978172 0)
(0.285322 0.00291557 0)
(0.273462 -0.00557301 0)
(0.271809 -0.0010687 0)
(0.268544 0.0024001 0)
(0.288137 0.00286292 0)
(0.28311 0.000859828 0)
(0.276072 -0.00531498 0)
(0.274055 0.00133136 0)
(0.274297 0.00196317 0)
(0.273923 -0.0031252 0)
(0.281013 0.00294044 0)
(0.283739 0.00213164 0)
(0.272336 -0.00518564 0)
(0.275154 0.000748269 0)
(0.271717 0.00214375 0)
(0.265023 -0.00461656 0)
(0.271454 0.00178985 0)
(0.26214 0.000585878 0)
(0.253842 -0.00577116 0)
(0.100175 0.000345636 0)
(0.108105 0.00100807 0)
(0.0992379 -0.00177488 0)
(0.0897485 -0.000580841 0)
(0.091367 0.000786549 0)
(0.10299 0.000847906 0)
(0.10719 0.000399325 0)
(0.0984235 -0.00166472 0)
(0.0931025 0.000371727 0)
(0.0980852 0.000689303 0)
(0.0944432 -0.00107133 0)
(0.0969147 0.00091495 0)
(0.1048 0.000849501 0)
(0.097125 -0.0016372 0)
(0.0924837 0.000204659 0)
(0.0966022 0.000814504 0)
(0.0905496 -0.00143346 0)
(0.0893192 0.000621153 0)
(0.0921629 0.000534918 0)
(0.0831252 -0.00166616 0)
(0.217579 0.00218107 0)
(0.0997374 0.00896951 0)
(0.245966 -0.00783738 0)
(0.280681 -0.0138554 0)
(0.343566 -0.0310339 0)
(0.208582 -0.020196 0)
(0.411099 -0.0467899 0)
(0.396027 -0.0486054 0)
(0.317673 -0.00498568 0)
(0.435126 0.00314508 0)
(0.479543 0.00531235 0)
(0.66151 -0.0678012 0)
(0.76976 -0.297297 0)
(0.903107 -0.330079 0)
(0.693997 -0.000159747 0)
(0.716089 0.120855 0)
(0.844432 -0.00883096 0)
(0.836267 -0.102994 0)
(0.864617 -0.150719 0)
(0.899805 -0.244914 0)
(0.742723 -0.222663 0)
(0.54151 -0.152048 0)
(0.376046 -0.304196 0)
(0.358988 -0.352879 0)
(0.457321 -0.213516 0)
(0.455815 -0.0638639 0)
(0.584023 0.161456 0)
(0.640056 0.366587 0)
(0.621822 0.41772 0)
(0.613774 0.322506 0)
(0.653524 0.142406 0)
(0.747726 -0.0525555 0)
(0.754057 -0.136099 0)
(0.730643 -0.056117 0)
(0.693345 0.0768312 0)
(0.616089 0.134772 0)
(0.53418 0.123482 0)
(0.471193 0.101053 0)
(0.45186 0.0658653 0)
(0.467281 0.0411098 0)
(0.454784 0.0353857 0)
(0.491228 -0.038441 0)
(0.571876 -0.15242 0)
(0.611668 -0.180121 0)
(0.623572 -0.112579 0)
(0.604381 -0.0342437 0)
(0.561453 0.005531 0)
(0.517563 0.0129668 0)
(0.483896 0.00843251 0)
(0.459815 0.00317173 0)
(0.442353 0.000106736 0)
(0.429265 -0.00117919 0)
(0.419195 -0.00160114 0)
(0.411495 -0.00167954 0)
(0.405812 -0.00159302 0)
(0.401843 -0.00139709 0)
(0.399219 -0.00113539 0)
(0.39759 -0.00085726 0)
(0.396619 -0.000604225 0)
(0.396082 -0.000399781 0)
(0.395781 -0.000249695 0)
(0.395638 -0.000147917 0)
(0.395551 -8.34687e-05 0)
(0.395526 -4.50004e-05 0)
(0.395496 -2.32394e-05 0)
(0.395501 -1.15111e-05 0)
(0.395485 -5.46732e-06 0)
(0.395494 -2.49777e-06 0)
(0.395484 -1.08042e-06 0)
(0.395491 -4.618e-07 0)
(0.395486 -1.70504e-07 0)
(0.395489 -7.40047e-08 0)
(0.395489 -1.71112e-08 0)
(0.395487 -1.49452e-08 0)
(0.39549 -4.63728e-10 0)
(0.395486 -3.65979e-09 0)
(0.39549 -1.05952e-09 0)
(0.395487 8.10482e-10 0)
(0.395488 2.47979e-09 0)
(0.395489 1.15119e-09 0)
(0.395487 5.51417e-10 0)
(0.395489 1.76149e-09 0)
(0.395488 -2.58049e-10 0)
(0.395488 6.2643e-10 0)
(0.395488 7.36505e-10 0)
(0.395488 2.63664e-10 0)
(0.395488 -8.70814e-10 0)
(0.395488 2.12345e-09 0)
(0.395488 -3.80067e-09 0)
(0.395488 4.67097e-09 0)
(0.395488 -3.11744e-09 0)
(0.395488 2.9375e-09 0)
(0.395488 -7.55076e-09 0)
(0.395488 8.48944e-09 0)
(0.395488 -3.59524e-09 0)
(0.395488 -5.43252e-09 0)
(0.395488 1.10564e-08 0)
(0.395488 -1.27131e-08 0)
(0.395488 8.15638e-09 0)
(0.395488 -2.43575e-09 0)
(0.371213 0.00309774 0)
(0.286339 0.00817541 0)
(0.363153 -0.0206606 0)
(0.403576 -0.0266872 0)
(0.502017 -0.0333263 0)
(0.368982 -0.0206012 0)
(0.53063 -0.0564144 0)
(0.544891 -0.0467381 0)
(0.41021 -0.00693114 0)
(0.508255 -0.00316293 0)
(0.585002 -0.0316603 0)
(0.754195 -0.0978699 0)
(0.859752 -0.291745 0)
(0.938225 -0.338412 0)
(0.775712 0.00128101 0)
(0.751211 0.131996 0)
(0.884991 -0.0171553 0)
(0.888707 -0.11756 0)
(0.897835 -0.149561 0)
(0.904031 -0.225519 0)
(0.725248 -0.190557 0)
(0.509855 -0.125571 0)
(0.337051 -0.291054 0)
(0.313743 -0.355638 0)
(0.405529 -0.221249 0)
(0.403157 -0.0711168 0)
(0.526354 0.150834 0)
(0.596411 0.357961 0)
(0.602721 0.412465 0)
(0.603054 0.31899 0)
(0.657301 0.133413 0)
(0.758231 -0.059723 0)
(0.755245 -0.13437 0)
(0.727044 -0.0504698 0)
(0.692805 0.0850352 0)
(0.621377 0.14578 0)
(0.547392 0.134231 0)
(0.487496 0.108188 0)
(0.471951 0.0662298 0)
(0.488258 0.0401816 0)
(0.470427 0.0345506 0)
(0.518646 -0.0466048 0)
(0.60122 -0.162394 0)
(0.629535 -0.184789 0)
(0.633883 -0.111291 0)
(0.611678 -0.0290409 0)
(0.567011 0.0118621 0)
(0.522038 0.0186463 0)
(0.487521 0.0128099 0)
(0.462536 0.00634592 0)
(0.444249 0.00242143 0)
(0.43057 0.000555322 0)
(0.420139 -0.000285887 0)
(0.412221 -0.000698719 0)
(0.406387 -0.000889949 0)
(0.402289 -0.000918226 0)
(0.39955 -0.000826489 0)
(0.397821 -0.000668179 0)
(0.396772 -0.000494028 0)
(0.396177 -0.000338325 0)
(0.395836 -0.000216795 0)
(0.395668 -0.00013091 0)
(0.395567 -7.49845e-05 0)
(0.395533 -4.08764e-05 0)
(0.395499 -2.13023e-05 0)
(0.3955 -1.0624e-05 0)
(0.395484 -5.06329e-06 0)
(0.395492 -2.33666e-06 0)
(0.395482 -9.91701e-07 0)
(0.395489 -4.53562e-07 0)
(0.395484 -1.38956e-07 0)
(0.395486 -9.43511e-08 0)
(0.395486 4.22697e-09 0)
(0.395484 -3.16754e-08 0)
(0.395487 1.02536e-08 0)
(0.395484 -7.23782e-09 0)
(0.395487 -3.7648e-09 0)
(0.395485 9.59853e-09 0)
(0.395486 -9.51396e-09 0)
(0.395486 1.2551e-08 0)
(0.395485 -8.23837e-09 0)
(0.395486 4.3643e-09 0)
(0.395485 2.04109e-10 0)
(0.395486 -3.57135e-09 0)
(0.395486 2.90024e-09 0)
(0.395485 2.5841e-10 0)
(0.395486 -1.76438e-09 0)
(0.395485 5.23045e-09 0)
(0.395486 -3.87829e-09 0)
(0.395486 3.75043e-09 0)
(0.395485 1.45848e-09 0)
(0.395486 -4.79589e-10 0)
(0.395486 -6.9814e-10 0)
(0.395486 4.81879e-09 0)
(0.395486 -3.20248e-09 0)
(0.395486 -1.84648e-09 0)
(0.395486 5.01774e-09 0)
(0.395486 -6.25868e-09 0)
(0.395486 4.24154e-09 0)
(0.395486 -1.83562e-09 0)
(0.506311 -0.000497822 0)
(0.480519 0.00577069 0)
(0.511747 -0.0223378 0)
(0.536654 -0.0368385 0)
(0.635379 -0.0404325 0)
(0.518585 -0.019132 0)
(0.628004 -0.0651534 0)
(0.679925 -0.0476825 0)
(0.538174 -0.00417912 0)
(0.604978 -0.00828291 0)
(0.715189 -0.0690029 0)
(0.837663 -0.126854 0)
(0.933527 -0.282093 0)
(0.957867 -0.341915 0)
(0.822849 0.00236733 0)
(0.784477 0.144569 0)
(0.922325 -0.0247251 0)
(0.925948 -0.130529 0)
(0.914965 -0.145684 0)
(0.894652 -0.202358 0)
(0.698145 -0.155046 0)
(0.472248 -0.097841 0)
(0.296352 -0.277302 0)
(0.273278 -0.358131 0)
(0.352732 -0.22831 0)
(0.348749 -0.078188 0)
(0.464757 0.13964 0)
(0.547463 0.346746 0)
(0.578424 0.404622 0)
(0.585598 0.313218 0)
(0.657558 0.122262 0)
(0.761333 -0.0664205 0)
(0.746824 -0.130826 0)
(0.714 -0.0443417 0)
(0.683925 0.092304 0)
(0.619761 0.155256 0)
(0.555686 0.143951 0)
(0.500013 0.114743 0)
(0.490853 0.0661473 0)
(0.506755 0.039757 0)
(0.483418 0.0332008 0)
(0.545684 -0.0560716 0)
(0.626719 -0.171547 0)
(0.640934 -0.18763 0)
(0.636938 -0.108967 0)
(0.612372 -0.0235994 0)
(0.567224 0.0182116 0)
(0.522414 0.0243691 0)
(0.488051 0.0172705 0)
(0.462899 0.00961546 0)
(0.444319 0.00481282 0)
(0.430454 0.00233573 0)
(0.42 0.00105018 0)
(0.412158 0.000290211 0)
(0.406415 -0.000181962 0)
(0.402377 -0.000433449 0)
(0.399658 -0.000510367 0)
(0.397921 -0.00047174 0)
(0.396849 -0.000377434 0)
(0.396229 -0.000271952 0)
(0.395868 -0.000180466 0)
(0.395685 -0.000111688 0)
(0.395573 -6.51612e-05 0)
(0.395533 -3.59868e-05 0)
(0.395495 -1.89483e-05 0)
(0.395495 -9.5188e-06 0)
(0.395477 -4.55004e-06 0)
(0.395485 -2.1234e-06 0)
(0.395475 -8.78496e-07 0)
(0.395482 -4.34702e-07 0)
(0.395476 -1.02682e-07 0)
(0.395479 -1.12825e-07 0)
(0.395479 2.59585e-08 0)
(0.395477 -4.79148e-08 0)
(0.39548 2.05414e-08 0)
(0.395476 -1.32438e-08 0)
(0.39548 -7.94311e-09 0)
(0.395477 1.80036e-08 0)
(0.395478 -2.51188e-08 0)
(0.395479 2.38524e-08 0)
(0.395477 -1.89472e-08 0)
(0.395479 7.19892e-09 0)
(0.395478 5.59476e-10 0)
(0.395478 -9.79077e-09 0)
(0.395478 6.19142e-09 0)
(0.395478 -5.57324e-10 0)
(0.395479 -2.2787e-09 0)
(0.395478 7.54253e-09 0)
(0.395478 -5.27411e-09 0)
(0.395478 2.21318e-09 0)
(0.395478 5.61936e-09 0)
(0.395478 -4.78812e-09 0)
(0.395478 5.87387e-09 0)
(0.395478 9.65399e-10 0)
(0.395478 -2.99223e-09 0)
(0.395478 2.26897e-09 0)
(0.395478 -1.30935e-09 0)
(0.395478 7.01017e-10 0)
(0.395478 -1.13182e-10 0)
(0.395478 -1.08844e-09 0)
(0.61613 -0.00443268 0)
(0.638501 -0.00104031 0)
(0.645323 -0.0203833 0)
(0.660333 -0.0430293 0)
(0.742351 -0.0497372 0)
(0.653298 -0.0154784 0)
(0.716681 -0.0686804 0)
(0.770946 -0.0518421 0)
(0.657008 -0.00210766 0)
(0.710899 -0.00958544 0)
(0.82979 -0.0962255 0)
(0.90073 -0.151669 0)
(0.98601 -0.269826 0)
(0.963936 -0.338831 0)
(0.843176 0.00187152 0)
(0.815636 0.152837 0)
(0.949953 -0.031344 0)
(0.944617 -0.139919 0)
(0.914762 -0.139056 0)
(0.87182 -0.17618 0)
(0.663155 -0.11705 0)
(0.430776 -0.0689376 0)
(0.25744 -0.262984 0)
(0.232971 -0.359721 0)
(0.296736 -0.23425 0)
(0.292435 -0.0844489 0)
(0.400552 0.127573 0)
(0.494274 0.332363 0)
(0.548814 0.394059 0)
(0.561798 0.304594 0)
(0.654809 0.108917 0)
(0.756073 -0.072166 0)
(0.728237 -0.125416 0)
(0.69133 -0.0378194 0)
(0.666595 0.0984675 0)
(0.611076 0.162941 0)
(0.558744 0.152405 0)
(0.508194 0.12037 0)
(0.508482 0.0655505 0)
(0.521989 0.0399717 0)
(0.494347 0.0310444 0)
(0.572231 -0.0667163 0)
(0.647241 -0.179356 0)
(0.644972 -0.188309 0)
(0.632047 -0.105572 0)
(0.605841 -0.0181165 0)
(0.561564 0.0243464 0)
(0.518273 0.0299494 0)
(0.485163 0.0216782 0)
(0.460672 0.0128821 0)
(0.442411 0.0072088 0)
(0.428827 0.00410535 0)
(0.418727 0.00235999 0)
(0.411271 0.00124809 0)
(0.405873 0.000499818 0)
(0.40209 3.40245e-05 0)
(0.39953 -0.00020312 0)
(0.397876 -0.000278345 0)
(0.396839 -0.000260758 0)
(0.396229 -0.000204288 0)
(0.395866 -0.00014269 0)
(0.395679 -9.12926e-05 0)
(0.395562 -5.4523e-05 0)
(0.395518 -3.0586e-05 0)
(0.395479 -1.62952e-05 0)
(0.395477 -8.24969e-06 0)
(0.395459 -3.95076e-06 0)
(0.395467 -1.86594e-06 0)
(0.395456 -7.42947e-07 0)
(0.395463 -4.03472e-07 0)
(0.395457 -5.9394e-08 0)
(0.39546 -1.24918e-07 0)
(0.39546 4.97127e-08 0)
(0.395458 -6.11539e-08 0)
(0.395461 3.06935e-08 0)
(0.395457 -1.6284e-08 0)
(0.395461 -1.04682e-08 0)
(0.395458 2.56193e-08 0)
(0.395459 -3.46479e-08 0)
(0.39546 3.37662e-08 0)
(0.395458 -2.60647e-08 0)
(0.39546 1.09946e-08 0)
(0.395459 2.37908e-09 0)
(0.395459 -1.32543e-08 0)
(0.395459 9.71275e-09 0)
(0.395459 -2.03082e-09 0)
(0.395459 -2.50024e-09 0)
(0.395459 1.07585e-08 0)
(0.395459 -7.58233e-09 0)
(0.395459 2.0718e-09 0)
(0.395459 7.32058e-09 0)
(0.395459 -6.10588e-09 0)
(0.395459 8.47749e-09 0)
(0.395459 8.0444e-10 0)
(0.395459 -5.10667e-09 0)
(0.395459 3.21573e-09 0)
(0.395459 -2.12298e-09 0)
(0.395459 8.255e-10 0)
(0.395459 3.31226e-10 0)
(0.395459 -1.29633e-09 0)
(0.712768 -0.00521809 0)
(0.760443 -0.0106894 0)
(0.75072 -0.0183232 0)
(0.767607 -0.0448717 0)
(0.825153 -0.059177 0)
(0.757187 -0.0134013 0)
(0.800351 -0.0658917 0)
(0.839214 -0.0558821 0)
(0.752268 -0.00408508 0)
(0.805244 -0.0113127 0)
(0.910673 -0.115047 0)
(0.94241 -0.173687 0)
(1.018 -0.257294 0)
(0.954462 -0.328965 0)
(0.842701 -0.00148969 0)
(0.840693 0.155392 0)
(0.962576 -0.0360813 0)
(0.943137 -0.144248 0)
(0.897327 -0.129853 0)
(0.836565 -0.147987 0)
(0.62053 -0.0775534 0)
(0.385562 -0.0399705 0)
(0.221516 -0.248599 0)
(0.18773 -0.35922 0)
(0.234785 -0.238881 0)
(0.234004 -0.0903925 0)
(0.332897 0.115655 0)
(0.437798 0.316067 0)
(0.514031 0.381553 0)
(0.532757 0.29295 0)
(0.649038 0.0938474 0)
(0.741269 -0.0762091 0)
(0.699192 -0.118065 0)
(0.659231 -0.0308295 0)
(0.640837 0.103461 0)
(0.595362 0.168624 0)
(0.556454 0.159387 0)
(0.51176 0.124688 0)
(0.524701 0.06438 0)
(0.533032 0.040914 0)
(0.50417 0.0277911 0)
(0.597828 -0.0782216 0)
(0.661572 -0.185234 0)
(0.640888 -0.186555 0)
(0.61871 -0.101155 0)
(0.591643 -0.0127059 0)
(0.549658 0.0300931 0)
(0.5093 0.0352175 0)
(0.478597 0.02589 0)
(0.455661 0.0160356 0)
(0.438399 0.00952613 0)
(0.42562 0.0057996 0)
(0.416286 0.00359201 0)
(0.409547 0.00213371 0)
(0.40475 0.00112352 0)
(0.401414 0.000460813 0)
(0.399149 7.90797e-05 0)
(0.397671 -9.84994e-05 0)
(0.396727 -0.000150422 0)
(0.396161 -0.000139062 0)
(0.395816 -0.000105529 0)
(0.395634 -7.08154e-05 0)
(0.395519 -4.36275e-05 0)
(0.395475 -2.49503e-05 0)
(0.395434 -1.34779e-05 0)
(0.395432 -6.87974e-06 0)
(0.395413 -3.29527e-06 0)
(0.395421 -1.57989e-06 0)
(0.39541 -5.93539e-07 0)
(0.395417 -3.65726e-07 0)
(0.395411 -1.30434e-08 0)
(0.395414 -1.36239e-07 0)
(0.395414 7.37241e-08 0)
(0.395412 -7.42581e-08 0)
(0.395415 4.05557e-08 0)
(0.395411 -1.92945e-08 0)
(0.395414 -1.33669e-08 0)
(0.395412 3.306e-08 0)
(0.395413 -4.47488e-08 0)
(0.395414 4.27766e-08 0)
(0.395412 -3.24437e-08 0)
(0.395414 1.39835e-08 0)
(0.395413 3.49731e-09 0)
(0.395413 -1.68703e-08 0)
(0.395413 1.23294e-08 0)
(0.395413 -2.75475e-09 0)
(0.395413 -4.2864e-09 0)
(0.395413 1.39508e-08 0)
(0.395413 -1.01944e-08 0)
(0.395413 1.96782e-09 0)
(0.395413 8.76745e-09 0)
(0.395413 -7.85465e-09 0)
(0.395413 1.08616e-08 0)
(0.395413 4.84989e-10 0)
(0.395413 -6.82791e-09 0)
(0.395413 4.58279e-09 0)
(0.395413 -2.13575e-09 0)
(0.395413 2.27494e-10 0)
(0.395413 9.76936e-10 0)
(0.395413 -1.44948e-09 0)
(0.796138 -0.00290106 0)
(0.853905 -0.0207403 0)
(0.831363 -0.0165687 0)
(0.85374 -0.0443404 0)
(0.887979 -0.0659642 0)
(0.835649 -0.0132274 0)
(0.866305 -0.060444 0)
(0.890254 -0.0587991 0)
(0.825102 -0.00934155 0)
(0.876243 -0.0145264 0)
(0.96282 -0.125038 0)
(0.967109 -0.190695 0)
(1.02938 -0.2449 0)
(0.928599 -0.311875 0)
(0.823286 -0.00639839 0)
(0.853137 0.153393 0)
(0.956265 -0.038603 0)
(0.921776 -0.143681 0)
(0.86321 -0.118486 0)
(0.789337 -0.118737 0)
(0.571407 -0.0377238 0)
(0.339476 -0.0115193 0)
(0.189557 -0.233781 0)
(0.136045 -0.355476 0)
(0.167086 -0.242601 0)
(0.173329 -0.096377 0)
(0.264599 0.102637 0)
(0.379741 0.297363 0)
(0.473173 0.367021 0)
(0.500205 0.277845 0)
(0.639262 0.0775447 0)
(0.715663 -0.078124 0)
(0.659626 -0.108892 0)
(0.618321 -0.0237087 0)
(0.60697 0.107076 0)
(0.572843 0.172112 0)
(0.548636 0.164716 0)
(0.510652 0.12736 0)
(0.539127 0.0626432 0)
(0.538934 0.0425378 0)
(0.51415 0.0231754 0)
(0.621571 -0.090065 0)
(0.668499 -0.188595 0)
(0.628117 -0.182212 0)
(0.596714 -0.095763 0)
(0.569593 -0.00762906 0)
(0.531292 0.0352445 0)
(0.495293 0.0399725 0)
(0.468175 0.0297435 0)
(0.447728 0.0189542 0)
(0.432199 0.0116727 0)
(0.420795 0.00734769 0)
(0.41267 0.00469136 0)
(0.406986 0.00290487 0)
(0.403043 0.00165745 0)
(0.400337 0.000824164 0)
(0.398496 0.000320701 0)
(0.397277 5.7677e-05 0)
(0.39648 -5.26759e-05 0)
(0.395991 -7.99394e-05 0)
(0.395683 -7.10452e-05 0)
(0.395518 -5.137e-05 0)
(0.395409 -3.30562e-05 0)
(0.395367 -1.93728e-05 0)
(0.395327 -1.06397e-05 0)
(0.395326 -5.47801e-06 0)
(0.395307 -2.61582e-06 0)
(0.395314 -1.27979e-06 0)
(0.395303 -4.36259e-07 0)
(0.39531 -3.24437e-07 0)
(0.395305 3.52037e-08 0)
(0.395307 -1.47036e-07 0)
(0.395307 9.78581e-08 0)
(0.395305 -8.72415e-08 0)
(0.395308 5.04344e-08 0)
(0.395305 -2.18182e-08 0)
(0.395308 -1.61564e-08 0)
(0.395306 4.04131e-08 0)
(0.395307 -5.47614e-08 0)
(0.395307 5.18559e-08 0)
(0.395306 -3.85425e-08 0)
(0.395307 1.6391e-08 0)
(0.395306 4.91046e-09 0)
(0.395307 -2.04218e-08 0)
(0.395307 1.54275e-08 0)
(0.395306 -3.7881e-09 0)
(0.395307 -6.06629e-09 0)
(0.395306 1.74867e-08 0)
(0.395306 -1.32103e-08 0)
(0.395307 2.61261e-09 0)
(0.395306 1.02543e-08 0)
(0.395306 -9.98343e-09 0)
(0.395306 1.30101e-08 0)
(0.395306 2.92719e-10 0)
(0.395306 -8.4873e-09 0)
(0.395306 6.00609e-09 0)
(0.395306 -2.23102e-09 0)
(0.395306 -3.60162e-10 0)
(0.395306 1.46359e-09 0)
(0.395306 -1.34685e-09 0)
(0.866114 0.000446331 0)
(0.924114 -0.0293848 0)
(0.891297 -0.0156152 0)
(0.921086 -0.0422639 0)
(0.932086 -0.0696575 0)
(0.893908 -0.01521 0)
(0.914084 -0.0543759 0)
(0.926218 -0.0599689 0)
(0.8774 -0.0164165 0)
(0.922615 -0.0175356 0)
(0.991728 -0.128381 0)
(0.974661 -0.202644 0)
(1.01791 -0.233155 0)
(0.885172 -0.288899 0)
(0.785955 -0.0113053 0)
(0.847039 0.146242 0)
(0.93009 -0.0389194 0)
(0.881664 -0.138167 0)
(0.813325 -0.104838 0)
(0.731526 -0.0886046 0)
(0.516322 0.00164057 0)
(0.293882 0.0154567 0)
(0.160824 -0.218703 0)
(0.0806433 -0.348418 0)
(0.0980503 -0.245344 0)
(0.110648 -0.102765 0)
(0.195183 0.0895958 0)
(0.320636 0.277444 0)
(0.425665 0.350645 0)
(0.46707 0.259349 0)
(0.623574 0.0609986 0)
(0.678142 -0.0774499 0)
(0.610071 -0.0982173 0)
(0.569616 -0.0166572 0)
(0.565579 0.109225 0)
(0.544161 0.173239 0)
(0.5352 0.168213 0)
(0.505365 0.128023 0)
(0.551082 0.0604881 0)
(0.539015 0.0446065 0)
(0.525645 0.0167924 0)
(0.642114 -0.101514 0)
(0.666901 -0.188891 0)
(0.606386 -0.175227 0)
(0.566141 -0.0894913 0)
(0.539773 -0.00309286 0)
(0.506508 0.0395986 0)
(0.47622 0.0440221 0)
(0.453833 0.0330825 0)
(0.436815 0.0215148 0)
(0.423781 0.0135516 0)
(0.414356 0.00867451 0)
(0.407898 0.00560121 0)
(0.403603 0.00351965 0)
(0.400751 0.00207155 0)
(0.398839 0.00110316 0)
(0.39753 0.000507707 0)
(0.396643 0.000181185 0)
(0.396039 2.68632e-05 0)
(0.395654 -3.02788e-05 0)
(0.3954 -4.11634e-05 0)
(0.395261 -3.40232e-05 0)
(0.395164 -2.33798e-05 0)
(0.395127 -1.41496e-05 0)
(0.39509 -7.93035e-06 0)
(0.395089 -4.11801e-06 0)
(0.39507 -1.94754e-06 0)
(0.395078 -9.82139e-07 0)
(0.395067 -2.78609e-07 0)
(0.395074 -2.83108e-07 0)
(0.395068 8.3982e-08 0)
(0.395071 -1.57914e-07 0)
(0.395071 1.21699e-07 0)
(0.395069 -1.00002e-07 0)
(0.395072 6.00181e-08 0)
(0.395068 -2.38105e-08 0)
(0.395071 -1.92992e-08 0)
(0.395069 4.77389e-08 0)
(0.39507 -6.43035e-08 0)
(0.39507 6.05973e-08 0)
(0.395069 -4.42604e-08 0)
(0.395071 1.82835e-08 0)
(0.395069 6.47475e-09 0)
(0.39507 -2.38757e-08 0)
(0.39507 1.87565e-08 0)
(0.39507 -4.91501e-09 0)
(0.39507 -8.04562e-09 0)
(0.39507 2.1105e-08 0)
(0.39507 -1.65463e-08 0)
(0.39507 3.6745e-09 0)
(0.39507 1.16165e-08 0)
(0.39507 -1.25276e-08 0)
(0.39507 1.51263e-08 0)
(0.39507 -1.29601e-10 0)
(0.39507 -1.00908e-08 0)
(0.39507 7.63053e-09 0)
(0.39507 -2.31989e-09 0)
(0.39507 -1.24607e-09 0)
(0.39507 1.81743e-09 0)
(0.39507 -1.13466e-09 0)
(0.92185 0.00367606 0)
(0.972449 -0.0355955 0)
(0.932901 -0.0153201 0)
(0.970216 -0.0395911 0)
(0.958365 -0.0702726 0)
(0.934831 -0.0184037 0)
(0.944108 -0.048467 0)
(0.947929 -0.0589286 0)
(0.910899 -0.0235607 0)
(0.946244 -0.0207541 0)
(1.00032 -0.128099 0)
(0.964668 -0.208423 0)
(0.984428 -0.220697 0)
(0.824048 -0.261603 0)
(0.732062 -0.0159464 0)
(0.820237 0.133434 0)
(0.884962 -0.0375268 0)
(0.823864 -0.128009 0)
(0.748632 -0.0897778 0)
(0.664356 -0.0583622 0)
(0.456814 0.039516 0)
(0.251182 0.0403105 0)
(0.136021 -0.202505 0)
(0.0267901 -0.338463 0)
(0.0338469 -0.246238 0)
(0.0443864 -0.110096 0)
(0.12717 0.0751441 0)
(0.263912 0.256662 0)
(0.370116 0.332223 0)
(0.435802 0.237355 0)
(0.599271 0.0453021 0)
(0.62816 -0.0739993 0)
(0.551634 -0.0866928 0)
(0.514625 -0.0101993 0)
(0.517382 0.109767 0)
(0.510114 0.171991 0)
(0.515813 0.169762 0)
(0.496953 0.12643 0)
(0.559383 0.0581446 0)
(0.533142 0.0467094 0)
(0.539675 0.00842276 0)
(0.657743 -0.111611 0)
(0.655861 -0.185673 0)
(0.575768 -0.165638 0)
(0.527494 -0.0825269 0)
(0.502614 0.000924145 0)
(0.475579 0.0430139 0)
(0.452226 0.0471925 0)
(0.435638 0.0357535 0)
(0.422962 0.0235911 0)
(0.413194 0.0150617 0)
(0.406358 0.00970234 0)
(0.402018 0.00626492 0)
(0.399421 0.00393868 0)
(0.397862 0.00233942 0)
(0.396869 0.00128048 0)
(0.396171 0.0006289 0)
(0.395665 0.0002649 0)
(0.395284 8.37707e-05 0)
(0.395023 7.19764e-06 0)
(0.394835 -1.7496e-05 0)
(0.394729 -1.96997e-05 0)
(0.394649 -1.51133e-05 0)
(0.39462 -9.55883e-06 0)
(0.394585 -5.49547e-06 0)
(0.394586 -2.87401e-06 0)
(0.394568 -1.32714e-06 0)
(0.394576 -7.04726e-07 0)
(0.394565 -1.28721e-07 0)
(0.394572 -2.4554e-07 0)
(0.394567 1.31615e-07 0)
(0.394569 -1.69514e-07 0)
(0.394569 1.44823e-07 0)
(0.394567 -1.12424e-07 0)
(0.39457 6.88369e-08 0)
(0.394567 -2.5081e-08 0)
(0.39457 -2.29216e-08 0)
(0.394568 5.51556e-08 0)
(0.394569 -7.33223e-08 0)
(0.394569 6.87017e-08 0)
(0.394568 -4.9301e-08 0)
(0.394569 1.95187e-08 0)
(0.394568 8.3332e-09 0)
(0.394569 -2.72917e-08 0)
(0.394569 2.21958e-08 0)
(0.394568 -5.98801e-09 0)
(0.394569 -1.02508e-08 0)
(0.394569 2.48409e-08 0)
(0.394569 -2.01183e-08 0)
(0.394569 5.13787e-09 0)
(0.394569 1.2838e-08 0)
(0.394569 -1.53994e-08 0)
(0.394569 1.71854e-08 0)
(0.394569 -6.55944e-10 0)
(0.394569 -1.15482e-08 0)
(0.394569 9.40345e-09 0)
(0.394569 -2.43261e-09 0)
(0.394569 -2.35228e-09 0)
(0.394569 2.15481e-09 0)
(0.394569 -7.80245e-10 0)
(0.962247 0.00611584 0)
(0.997932 -0.038935 0)
(0.957542 -0.0156938 0)
(0.999648 -0.0367733 0)
(0.96744 -0.0681958 0)
(0.959526 -0.0219624 0)
(0.955513 -0.0428701 0)