/*--------------------------------*- C++ -*----------------------------------*\
| =========                 |                                                 |
| \\      /  F ield         | OpenFOAM: The Open Source CFD Toolbox           |
|  \\    /   O peration     | Version:  2.4.0                                 |
|   \\  /    A nd           | Web:      www.OpenFOAM.org                      |
|    \\/     M anipulation  |                                                 |
\*---------------------------------------------------------------------------*/
FoamFile
{
    version     2.0;
    format      ascii;
    class       surfaceScalarField;
    location    "0.02";
    object      phi;
}
// * * * * * * * * * * * * * * * * * * * * * * * * * * * * * * * * * * * * * //

dimensions      [0 3 -1 0 0 0 0];

internalField   nonuniform List<scalar> 
8640
(
0.0497769
0.000223109
0.0496751
0.000101774
0.0496446
3.05301e-05
0.0496422
2.40087e-06
0.0496425
-3.10151e-07
0.0496424
9.69665e-08
0.0496424
-4.34322e-08
0.0496427
-2.84836e-07
0.0496434
-6.77589e-07
0.0496449
-1.53498e-06
0.0496484
-3.46138e-06
0.0496562
-7.76904e-06
0.0496736
-1.74501e-05
0.0497121
-3.85005e-05
0.0497993
-8.71628e-05
0.0499802
-0.000180885
0.0504342
-0.000454053
0.0511221
-0.000687913
0.0576066
-0.00648443
-0.00917878
0.0667853
0.0500354
0.000187718
0.0500426
9.45755e-05
0.0500422
3.09328e-05
0.0500399
4.682e-06
0.0500392
3.73007e-07
0.0500392
1.57829e-07
0.0500393
-1.42549e-07
0.0500395
-5.66611e-07
0.0500402
-1.34105e-06
0.0500417
-3.03928e-06
0.0500451
-6.85162e-06
0.0500527
-1.53802e-05
0.0500698
-3.45825e-05
0.0501074
-7.6054e-05
0.0501951
-0.000174912
0.0503609
-0.000346601
0.0509477
-0.00104092
0.0515188
-0.00125896
0.0569882
-0.0119539
-0.0104507
0.0582602
0.0500316
0.000156112
0.0500409
8.53218e-05
0.0500419
2.99153e-05
0.0500405
6.03145e-06
0.05004
8.88163e-07
0.05004
1.994e-07
0.0500401
-2.47358e-07
0.0500404
-8.46617e-07
0.050041
-1.9672e-06
0.0500424
-4.45483e-06
0.0500456
-1.0073e-05
0.0500529
-2.26284e-05
0.0500691
-5.08493e-05
0.0501052
-0.000112078
0.0501875
-0.000257228
0.0503661
-0.000525259
0.0508376
-0.00151237
0.0518993
-0.00232065
0.0541851
-0.0142397
-0.0183563
0.0620906
0.0500281
0.000128046
0.0500386
7.47877e-05
0.0500408
2.7706e-05
0.0500403
6.5875e-06
0.05004
1.19063e-06
0.05004
1.85778e-07
0.0500401
-3.50584e-07
0.0500403
-1.08111e-06
0.0500409
-2.54779e-06
0.0500422
-5.79053e-06
0.0500452
-1.30469e-05
0.0500519
-2.93043e-05
0.0500669
-6.5911e-05
0.0501006
-0.000145727
0.0501771
-0.00033378
0.0503512
-0.000699374
0.0507655
-0.0019266
0.0518036
-0.0033588
0.0532414
-0.0156775
-0.0205727
0.0554578
0.0500252
0.000102808
0.0500367
6.33668e-05
0.0500399
2.44989e-05
0.05004
6.4419e-06
0.0500399
1.29892e-06
0.0500399
1.65335e-07
0.05004
-4.52101e-07
0.0500403
-1.32063e-06
0.0500408
-3.06638e-06
0.0500419
-6.9562e-06
0.0500446
-1.57057e-05
0.0500506
-3.5305e-05
0.0500641
-7.94065e-05
0.0500945
-0.00017615
0.0501634
-0.000402669
0.0503255
-0.000861483
0.0506731
-0.0022742
0.0516041
-0.00428982
0.0520854
-0.0161587
-0.0229805
0.0544933
0.050023
7.97852e-05
0.0500351
5.13026e-05
0.0500391
2.04986e-05
0.0500398
5.75935e-06
0.0500398
1.22765e-06
0.0500399
1.08284e-07
0.05004
-5.47465e-07
0.0500402
-1.52636e-06
0.0500406
-3.51328e-06
0.0500416
-7.95464e-06
0.0500439
-1.79807e-05
0.0500491
-4.04566e-05
0.0500607
-9.10164e-05
0.0500871
-0.000202564
0.0501466
-0.000462218
0.0502891
-0.0010039
0.0505671
-0.00255222
0.0513142
-0.00503695
0.0513191
-0.0161637
-0.0240599
0.0523985
0.0500213
5.84439e-05
0.0500339
3.87932e-05
0.0500385
1.58832e-05
0.0500396
4.66419e-06
0.0500398
1.01198e-06
0.0500399
1.00683e-08
0.05004
-6.3793e-07
0.0500401
-1.68465e-06
0.0500405
-3.8738e-06
0.0500413
-8.7711e-06
0.0500431
-1.98173e-05
0.0500473
-4.46181e-05
0.0500567
-0.000100455
0.0500784
-0.000224255
0.050127
-0.000510819
0.0502437
-0.00112061
0.0504497
-0.00275821
0.0509906
-0.00557781
0.0506533
-0.0158264
-0.024338
0.0509314
0.0500201
3.83117e-05
0.0500329
2.59959e-05
0.050038
1.08187e-05
0.0500394
3.2588e-06
0.0500397
6.85509e-07
0.0500398
-1.11695e-07
0.0500399
-7.21322e-07
0.05004
-1.80175e-06
0.0500403
-4.13722e-06
0.0500409
-9.37459e-06
0.0500423
-2.11711e-05
0.0500453
-4.7693e-05
0.0500524
-0.00010748
0.0500687
-0.000240587
0.050105
-0.000547075
0.0501917
-0.00120735
0.0503244
-0.00289087
0.0506575
-0.00591095
0.0500747
-0.0152436
-0.0239303
0.0496671
0.0500194
1.8961e-05
0.0500323
1.30286e-05
0.0500377
5.46272e-06
0.0500393
1.64544e-06
0.0500397
2.82655e-07
0.0500398
-2.41434e-07
0.0500399
-7.91871e-07
0.05004
-1.88145e-06
0.0500401
-4.29849e-06
0.0500405
-9.74164e-06
0.0500413
-2.20072e-05
0.0500433
-4.96114e-05
0.0500477
-0.000111902
0.0500581
-0.000251051
0.050081
-0.000569895
0.0501351
-0.00126147
0.0501945
-0.00295029
0.0503313
-0.00604772
0.0495561
-0.0144685
-0.0229927
0.0486185
0.050019
-5.91808e-09
0.050032
-1.79258e-08
0.0500375
-3.53257e-08
0.0500392
-7.08971e-08
0.0500397
-1.58622e-07
0.0500398
-3.70126e-07
0.0500399
-8.4418e-07
0.0500399
-1.91964e-06
0.0500399
-4.3551e-06
0.0500401
-9.8642e-06
0.0500404
-2.23021e-05
0.0500411
-5.03215e-05
0.0500428
-0.000113592
0.050047
-0.000255302
0.0500557
-0.000578557
0.0500758
-0.00128161
0.0500631
-0.00293761
0.050022
-0.00600654
0.0490915
-0.0135381
-0.0216483
0.0477471
0.050019
-1.89725e-05
0.050032
-1.30644e-05
0.0500375
-5.53141e-06
0.0500392
-1.78495e-06
0.0500397
-5.97846e-07
0.0500398
-4.90329e-07
0.0500398
-8.74776e-07
0.0500398
-1.91025e-06
0.0500398
-4.30546e-06
0.0500396
-9.74443e-06
0.0500394
-2.20471e-05
0.0500389
-4.9794e-05
0.0500377
-0.000112484
0.0500356
-0.000253163
0.0500298
-0.000572722
0.0500158
-0.00126766
0.049934
-0.00285578
0.0497356
-0.00580812
0.0486781
-0.0124806
-0.0199976
0.0470273
0.0500193
-3.83224e-05
0.0500323
-2.603e-05
0.0500377
-1.08824e-05
0.0500393
-3.3937e-06
0.0500397
-9.93381e-07
0.0500398
-5.92457e-07
0.0500398
-8.81415e-07
0.0500397
-1.85069e-06
0.0500396
-4.14982e-06
0.0500392
-9.38791e-06
0.0500384
-2.12479e-05
0.0500366
-4.803e-05
0.0500327
-0.00010858
0.0500242
-0.000244634
0.050004
-0.000552463
0.0499569
-0.00122062
0.0498105
-0.00270932
0.0494756
-0.00547327
0.0483134
-0.0113184
-0.0181205
0.0464363
0.0500201
-5.8454e-05
0.0500329
-3.88223e-05
0.050038
-1.59406e-05
0.0500394
-4.79412e-06
0.0500397
-1.30475e-06
0.0500398
-6.65749e-07
0.0500397
-8.6237e-07
0.0500396
-1.74247e-06
0.0500394
-3.89145e-06
0.0500388
-8.80181e-06
0.0500375
-1.99231e-05
0.0500345
-4.50663e-05
0.0500279
-0.000101956
0.0500131
-0.000229892
0.0499789
-0.000518272
0.0499007
-0.00114238
0.0496952
-0.00250383
0.0492439
-0.00502196
0.0479952
-0.0100697
-0.0160797
0.0459545
0.0500213
-7.97946e-05
0.0500338
-5.13266e-05
0.0500385
-2.05502e-05
0.0500395
-5.87985e-06
0.0500397
-1.4946e-06
0.0500398
-7.01195e-07
0.0500397
-8.1656e-07
0.0500396
-1.58896e-06
0.0500392
-3.53638e-06
0.0500384
-7.99756e-06
0.0500366
-1.81039e-05
0.0500325
-4.09741e-05
0.0500233
-9.27616e-05
0.0500027
-0.000209282
0.0499554
-0.000471025
0.0498486
-0.00103557
0.0495905
-0.00224571
0.0490414
-0.00447283
0.0477216
-0.00874996
-0.013923
0.045565
0.050023
-0.000102816
0.0500351
-6.3392e-05
0.0500391
-2.45446e-05
0.0500397
-6.53978e-06
0.0500398
-1.52999e-06
0.0500398
-6.92633e-07
0.0500397
-7.4382e-07
0.0500395
-1.39404e-06
0.0500391
-3.09234e-06
0.0500381
-6.99368e-06
0.0500358
-1.58341e-05
0.0500307
-3.58543e-05
0.0500191
-8.12185e-05
0.0499931
-0.000183312
0.0499341
-0.000411945
0.0498019
-0.000903379
0.0494981
-0.0019419
0.0488683
-0.00384304
0.0474908
-0.00737245
-0.0116861
0.0452538
0.0500252
-0.000128051
0.0500367
-7.48167e-05
0.0500399
-2.77439e-05
0.05004
-6.65683e-06
0.0500398
-1.38355e-06
0.0500398
-6.35352e-07
0.0500397
-6.44851e-07
0.0500394
-1.16357e-06
0.0500389
-2.56951e-06
0.0500377
-5.81518e-06
0.0500351
-1.31704e-05
0.0500291
-2.98331e-05
0.0500154
-6.76099e-05
0.0499848
-0.000152636
0.0499154
-0.00034255
0.0497615
-0.000749465
0.0494193
-0.0015997
0.0487246
-0.00314836
0.0473011
-0.00594893
-0.00939481
0.0450098
0.0500281
-0.000156117
0.0500386
-8.53315e-05
0.0500408
-2.99501e-05
0.0500402
-6.10176e-06
0.0500399
-1.0365e-06
0.0500398
-5.28265e-07
0.0500397
-5.21085e-07
0.0500394
-9.05499e-07
0.0500388
-1.98306e-06
0.0500375
-4.4907e-06
0.0500345
-1.01786e-05
0.0500277
-2.30597e-05
0.0500124
-5.22749e-05
0.0499778
-0.000118034
0.0498998
-0.000264607
0.0497282
-0.000577814
0.0493551
-0.00122662
0.0486101
-0.00240332
0.0471511
-0.00448998
-0.00706784
0.0448242
0.0500316
-0.000187719
0.0500409
-9.45891e-05
0.0500419
-3.09525e-05
0.0500405
-4.72394e-06
0.0500399
-4.80466e-07
0.0500398
-3.8354e-07
0.0500396
-3.74842e-07
0.0500394
-6.21379e-07
0.0500387
-1.35184e-06
0.0500373
-3.05515e-06
0.050034
-6.92873e-06
0.0500267
-1.57027e-05
0.05001
-3.56031e-05
0.0499724
-8.03955e-05
0.0498878
-0.000180083
0.0497027
-0.000392662
0.0493064
-0.000830328
0.0485245
-0.00162142
0.0470398
-0.00300525
-0.00471835
0.0446903
0.0500354
-0.000223112
0.0500426
-0.00010178
0.0500422
-3.05412e-05
0.0500399
-2.42238e-06
0.0500391
2.59024e-07
0.050039
-2.08703e-07
0.0500388
-2.18419e-07
0.0500385
-3.16835e-07
0.0500378
-6.83474e-07
0.0500363
-1.54262e-06
0.0500329
-3.50024e-06
0.0500251
-7.93704e-06
0.0500075
-1.79967e-05
0.0499678
-4.06391e-05
0.0498787
-9.09872e-05
0.0496842
-0.000198201
0.049272
-0.000418109
0.0484652
-0.000814643
0.0469625
-0.00150258
-0.00235445
0.0445986
0.0497769
0.0496751
0.0496446
0.0496421
0.0496424
0.0496422
0.049642
0.0496417
0.049641
0.0496394
0.0496359
0.049628
0.04961
0.0495694
0.0494784
0.0492802
0.0488621
0.0480474
0.0465448
0.0441904
0.0415913
-0.162224
0.187418
0.0327378
-0.0956988
0.104552
0.0271486
-0.0651771
0.0707663
0.0258196
-0.0442013
0.0455303
0.0254094
-0.0295865
0.0299967
0.0252278
-0.0199493
0.0201309
0.0251363
-0.0134971
0.0135886
0.0250861
-0.009134
0.00918411
0.0250572
-0.00617347
0.00620244
0.0250398
-0.00416385
0.00418124
0.0250291
-0.00280145
0.00281218
0.0250223
-0.00187977
0.00188653
0.025018
-0.00125782
0.00126214
0.0250152
-0.00083928
0.000842072
0.0250134
-0.000558418
0.000560233
0.0250122
-0.000370474
0.000371661
0.0250114
-0.000245072
0.000245848
0.0250109
-0.000161653
0.000162161
0.0250106
-0.00010632
0.000106653
0.0250104
-6.97174e-05
6.99342e-05
0.0250102
-4.5576e-05
4.57184e-05
0.0250101
-2.97196e-05
2.98118e-05
0.0250101
-1.93136e-05
1.93731e-05
0.02501
-1.2508e-05
1.25474e-05
0.02501
-8.08873e-06
8.11343e-06
0.02501
-5.20649e-06
5.22241e-06
0.02501
-3.34087e-06
3.35169e-06
0.02501
-2.14193e-06
2.14803e-06
0.02501
-1.36478e-06
1.36878e-06
0.02501
-8.6807e-07
8.71506e-07
0.02501
-5.51053e-07
5.5252e-07
0.02501
-3.49728e-07
3.4989e-07
0.02501
-2.17558e-07
2.19834e-07
0.02501
-1.37523e-07
1.37742e-07
0.02501
-8.67544e-08
8.61936e-08
0.02501
-5.39148e-08
5.44714e-08
0.02501
-3.37912e-08
3.44823e-08
0.02501
-2.09912e-08
2.04349e-08
0.02501
-1.34496e-08
1.26357e-08
0.02501
-7.82694e-09
8.20347e-09
0.02501
-4.61709e-09
5.45694e-09
0.02501
-2.71161e-09
2.88277e-09
0.02501
-2.52483e-09
2.01052e-09
0.02501
-7.23014e-10
4.16751e-10
0.02501
-7.96274e-10
1.25746e-09
0.02501
-4.23588e-10
6.51427e-10
0.02501
3.04936e-10
-8.06943e-10
0.02501
-1.53797e-09
1.04883e-09
0.02501
3.97444e-10
-1.33601e-10
0.02501
6.82341e-10
-2.02689e-10
0.02501
-7.52737e-10
9.04551e-10
0.02501
2.37862e-10
-5.66246e-10
0.02501
9.74509e-10
-1.51621e-09
0.02501
-1.29854e-09
1.69294e-09
0.02501
1.47602e-09
-9.32135e-10
0.02501
2.17332e-10
-3.89432e-10
0.02501
-1.41536e-09
1.14692e-09
0.02501
1.92394e-09
-2.34379e-09
0.02501
-1.44132e-09
1.59612e-09
0.02501
1.62754e-09
-1.20793e-09
0.02501
-9.48714e-10
1.33975e-09
0.02501
8.50826e-10
-9.4489e-10
0.02501
3.51078e-11
-3.48551e-10
0.02501
-1.76653e-09
1.42536e-09
0.02501
2.56061e-09
-2.64558e-09
0.02501
-1.44784e-09
1.68971e-09
0.02501
-8.74615e-10
1.14574e-09
0.02501
2.75916e-09
-2.69367e-09
0.02501
-2.22731e-09
2.1614e-09
0.02501
7.82405e-11
-3.49849e-10
0.02501
2.17004e-09
-2.39296e-09
0.02501
-2.88929e-09
2.84723e-09
0.02501
1.10364e-09
-8.82176e-10
0.02501
2.808e-09
-2.4918e-09
0.02501
-3.7484e-09
3.95136e-09
0.02501
-6.37229e-10
5.80607e-10
0.02501
3.89693e-09
-4.24828e-09
0.02501
-2.77925e-09
2.60896e-09
0.02501
-4.39414e-09
4.29579e-09
0.02501
2.55258e-09
-2.39695e-09
0.02501
2.37271e-09
-2.14608e-09
0.02501
-3.58127e-09
3.64857e-09
0.02501
-2.61924e-09
2.63753e-09
0.02501
2.71547e-09
-2.77137e-09
0.02501
2.40469e-09
-2.47636e-09
0.02501
-1.92385e-09
1.85694e-09
0.02501
-2.56127e-09
2.39183e-09
0.02501
-2.3911e-11
-3.54825e-11
0.02501
2.67108e-09
-2.58274e-09
0.02501
3.44046e-09
-3.21596e-09
0.02501
1.47633e-10
9.80892e-11
0.02501
-2.99659e-09
3.06418e-09
0.02501
-4.66459e-10
3.4246e-10
0.02501
2.23382e-09
-2.43968e-09
0.02501
-8.95548e-12
-2.12152e-10
0.02501
-1.01144e-09
8.40257e-10
0.02501
-6.34605e-10
6.08107e-10
0.02501
-5.8759e-10
6.55089e-10
0.02501
-2.58153e-09
2.49187e-09
-2.51377e-10
6.00802e-11
0.0305823
-0.134546
0.0293098
-0.0944263
0.0275357
-0.0634031
0.0263807
-0.0430462
0.0258013
-0.0290071
0.0254888
-0.0196368
0.0253101
-0.0133185
0.0252024
-0.00902625
0.0251349
-0.00610604
0.0250918
-0.00412068
0.0250637
-0.00277342
0.0250454
-0.00186141
0.0250333
-0.00124575
0.0250253
-0.000831313
0.0250201
-0.000553151
0.0250166
-0.000367004
0.0250143
-0.00024279
0.0250128
-0.000160147
0.0250118
-0.000105328
0.0250112
-6.90697e-05
0.0250107
-4.51608e-05
0.0250105
-2.94378e-05
0.0250103
-1.91327e-05
0.0250102
-1.23989e-05
0.0250101
-8.00815e-06
0.02501
-5.1597e-06
0.02501
-3.31287e-06
0.02501
-2.11731e-06
0.02501
-1.35086e-06
0.02501
-8.62138e-07
0.02501
-5.47042e-07
0.02501
-3.42094e-07
0.02501
-2.16527e-07
0.02501
-1.37743e-07
0.02501
-8.50792e-08
0.02501
-5.3506e-08
0.02501
-3.72364e-08
0.02501
-2.18279e-08
0.02501
-9.73317e-09
0.02501
-4.57249e-09
0.02501
-6.5558e-09
0.02501
-5.19736e-09
0.02501
-1.77435e-09
0.02501
-4.52957e-10
0.02501
-1.64843e-09
0.02501
-3.28635e-09
0.02501
-5.4851e-10
0.02501
3.31037e-09
0.02501
1.08648e-09
0.02501
-2.40453e-09
0.02501
-1.61232e-09
0.02501
-4.41572e-11
0.02501
1.99226e-09
0.02501
2.63354e-09
0.02501
-1.29879e-09
0.02501
-2.4488e-09
0.02501
1.37821e-09
0.02501
3.50491e-09
0.02501
2.0493e-09
0.02501
2.93058e-10
0.02501
-2.92841e-09
0.02501
-3.55876e-09
0.02501
7.32055e-10
0.02501
2.87267e-09
0.02501
1.51258e-09
0.02501
-4.1881e-10
0.02501
-2.81503e-09
0.02501
-3.18058e-09
0.02501
-1.74655e-10
0.02501
2.27328e-09
0.02501
2.48373e-09
0.02501
2.14683e-09
0.02501
6.44789e-11
0.02501
-1.42066e-09
0.02501
-1.10327e-09
0.02501
-1.28894e-09
0.02501
-5.78009e-10
0.02501
1.17735e-09
0.02501
6.96983e-10
0.02501
-2.06887e-09
0.02501
-3.04893e-09
0.02501
-1.69532e-09
0.02501
6.0929e-10
0.02501
1.89015e-09
0.02501
1.68031e-09
0.02501
6.19422e-10
0.02501
-4.28937e-10
0.02501
-7.49164e-10
0.02501
1.3162e-10
0.02501
7.38041e-10
0.02501
1.90976e-10
0.02501
-6.47169e-10
0.02501
-7.25598e-10
0.02501
3.27568e-11
0.02501
1.21048e-09
0.02501
1.73458e-09
0.02501
7.60053e-10
0.02501
-7.28743e-10
0.02501
-2.44168e-09
-1.15412e-09
0.0431145
-0.11557
0.0333999
-0.0847117
0.0287831
-0.0587862
0.0269955
-0.0412586
0.0261873
-0.0281989
0.0257446
-0.0191941
0.0254812
-0.013055
0.025317
-0.00886209
0.0252118
-0.00600079
0.0251432
-0.00405208
0.025098
-0.00272829
0.0250682
-0.00183159
0.0250484
-0.00122599
0.0250354
-0.000818219
0.0250267
-0.00054448
0.0250209
-0.000361269
0.0250172
-0.000239004
0.0250147
-0.000157652
0.025013
-0.000103689
0.025012
-6.79972e-05
0.0250113
-4.44591e-05
0.0250108
-2.89799e-05
0.0250105
-1.88356e-05
0.0250103
-1.22065e-05
0.0250102
-7.88403e-06
0.0250101
-5.07945e-06
0.0250101
-3.26125e-06
0.02501
-2.08448e-06
0.02501
-1.33011e-06
0.02501
-8.48911e-07
0.02501
-5.38256e-07
0.02501
-3.36912e-07
0.02501
-2.12808e-07
0.02501
-1.35568e-07
0.02501
-8.42788e-08
0.02501
-5.31687e-08
0.02501
-3.56874e-08
0.02501
-2.13863e-08
0.02501
-1.00267e-08
0.02501
-4.86672e-09
0.02501
-5.81856e-09
0.02501
-5.11288e-09
0.02501
-1.87046e-09
0.02501
-8.59757e-10
0.02501
-1.38036e-09
0.02501
-2.82908e-09
0.02501
-1.02116e-09
0.02501
2.91172e-09
0.02501
1.41204e-09
0.02501
-2.4045e-09
0.02501
-1.26522e-09
0.02501
-1.00405e-10
0.02501
1.4733e-09
0.02501
2.75514e-09
0.02501
-7.21348e-10
0.02501
-2.80295e-09
0.02501
1.58946e-09
0.02501
2.9935e-09
0.02501
2.11317e-09
0.02501
4.70392e-10
0.02501
-2.58795e-09
0.02501
-3.44788e-09
0.02501
3.81015e-10
0.02501
2.83165e-09
0.02501
1.18428e-09
0.02501
-3.49323e-10
0.02501
-2.4181e-09
0.02501
-3.25085e-09
0.02501
-2.62562e-11
0.02501
2.10665e-09
0.02501
2.19968e-09
0.02501
2.02528e-09
0.02501
3.63866e-10
0.02501
-1.28305e-09
0.02501
-9.88164e-10
0.02501
-1.14894e-09
0.02501
-8.78702e-10
0.02501
9.13706e-10
0.02501
7.1322e-10
0.02501
-1.94241e-09
0.02501
-3.01769e-09
0.02501
-1.52314e-09
0.02501
7.60527e-10
0.02501
1.92512e-09
0.02501
1.50293e-09
0.02501
4.22263e-10
0.02501
-6.24349e-10
0.02501
-6.551e-10
0.02501
3.0488e-10
0.02501
8.12622e-10
0.02501
3.15241e-10
0.02501
-5.80714e-10
0.02501
-8.14291e-10
0.02501
-8.88257e-11
0.02501
1.12641e-09
0.02501
1.54815e-09
0.02501
6.90908e-10
0.02501
-7.42603e-10
0.02501
-2.56357e-09
-1.33583e-09
0.0382474
-0.0983591
0.0326146
-0.079079
0.0293827
-0.0555543
0.0275288
-0.0394047
0.0265543
-0.0272245
0.0259926
-0.0186324
0.0256482
-0.0127106
0.0254293
-0.00864324
0.0252872
-0.00585862
0.0251936
-0.00395858
0.0251318
-0.0026664
0.0250907
-0.0017905
0.0250634
-0.00119869
0.0250452
-0.000800086
0.0250332
-0.000532453
0.0250252
-0.000353306
0.02502
-0.000233744
0.0250165
-0.000154186
0.0250142
-0.00010141
0.0250127
-6.65046e-05
0.0250118
-4.34831e-05
0.0250111
-2.83432e-05
0.0250107
-1.84221e-05
0.0250104
-1.1939e-05
0.0250103
-7.71112e-06
0.0250102
-4.96768e-06
0.0250101
-3.1896e-06
0.02501
-2.03888e-06
0.02501
-1.3012e-06
0.02501
-8.30409e-07
0.02501
-5.2618e-07
0.02501
-3.29419e-07
0.02501
-2.08208e-07
0.02501
-1.32684e-07
0.02501
-8.27836e-08
0.02501
-5.22097e-08
0.02501
-3.42887e-08
0.02501
-2.02941e-08
0.02501
-1.00123e-08
0.02501
-5.53771e-09
0.02501
-5.73073e-09
0.02501
-4.38194e-09
0.02501
-1.95188e-09
0.02501
-1.21954e-09
0.02501
-1.47164e-09
0.02501
-2.34686e-09
0.02501
-8.66403e-10
0.02501
2.53952e-09
0.02501
1.04581e-09
0.02501
-2.12181e-09
0.02501
-1.0473e-09
0.02501
1.81268e-10
0.02501
1.02999e-09
0.02501
2.57741e-09
0.02501
-7.13174e-10
0.02501
-2.1184e-09
0.02501
1.35995e-09
0.02501
2.96147e-09
0.02501
1.61388e-09
0.02501
4.49658e-10
0.02501
-2.20821e-09
0.02501
-3.30082e-09
0.02501
6.2023e-10
0.02501
2.41477e-09
0.02501
9.48447e-10
0.02501
-4.42897e-10
0.02501
-2.43186e-09
0.02501
-2.7193e-09
0.02501
9.46112e-11
0.02501
1.91863e-09
0.02501
2.01957e-09
0.02501
1.8929e-09
0.02501
2.85505e-10
0.02501
-9.64934e-10
0.02501
-9.26985e-10
0.02501
-1.20084e-09
0.02501
-7.08377e-10
0.02501
7.56226e-10
0.02501
3.42638e-10
0.02501
-1.99347e-09
0.02501
-2.71038e-09
0.02501
-1.27778e-09
0.02501
8.94398e-10
0.02501
1.92403e-09
0.02501
1.44714e-09
0.02501
1.0821e-10
0.02501
-8.32472e-10
0.02501
-6.56887e-10
0.02501
4.56447e-10
0.02501
9.91227e-10
0.02501
3.67112e-10
0.02501
-5.90885e-10
0.02501
-8.11389e-10
0.02501
-2.84154e-11
0.02501
1.06793e-09
0.02501
1.4435e-09
0.02501
4.4339e-10
0.02501
-8.49664e-10
0.02501
-2.79513e-09
-1.58645e-09
0.0404534
-0.0843193
0.0336296
-0.0722552
0.0300849
-0.0520096
0.0280392
-0.0373589
0.0269052
-0.0260905
0.0262317
-0.0179588
0.0258101
-0.0122891
0.0255386
-0.00837171
0.0253607
-0.00568066
0.0252429
-0.00384085
0.0251647
-0.00258816
0.0251126
-0.00173841
0.0250779
-0.00116401
0.0250549
-0.000777029
0.0250396
-0.000517146
0.0250294
-0.000343165
0.0250227
-0.000227042
0.0250183
-0.000149769
0.0250154
-9.85069e-05
0.0250135
-6.46012e-05
0.0250123
-4.22387e-05
0.0250114
-2.75318e-05
0.0250109
-1.78949e-05
0.0250106
-1.15978e-05
0.0250104
-7.4906e-06
0.0250102
-4.82508e-06
0.0250101
-3.09831e-06
0.0250101
-1.9809e-06
0.02501
-1.26427e-06
0.02501
-8.06652e-07
0.02501
-5.10854e-07
0.02501
-3.19982e-07
0.02501
-2.02477e-07
0.02501
-1.29113e-07
0.02501
-8.06291e-08
0.02501
-5.06141e-08
0.02501
-3.25784e-08
0.02501
-1.93316e-08
0.02501
-1.01323e-08
0.02501
-5.98239e-09
0.02501
-5.38947e-09
0.02501
-3.9841e-09
0.02501
-1.90686e-09
0.02501
-1.50836e-09
0.02501
-1.40688e-09
0.02501
-1.88727e-09
0.02501
-1.10898e-09
0.02501
2.17237e-09
0.02501
1.23356e-09
0.02501
-2.09617e-09
0.02501
-8.05958e-10
0.02501
2.05836e-10
0.02501
7.37108e-10
0.02501
2.37548e-09
0.02501
-1.76084e-10
0.02501
-2.28547e-09
0.02501
1.45607e-09
0.02501
2.67656e-09
0.02501
1.47286e-09
0.02501
5.44996e-10
0.02501
-1.96067e-09
0.02501
-3.00429e-09
0.02501
3.06249e-10
0.02501
2.31419e-09
0.02501
7.38526e-10
0.02501
-5.0619e-10
0.02501
-2.1119e-09
0.02501
-2.54722e-09
0.02501
6.84158e-11
0.02501
1.83549e-09
0.02501
1.8147e-09
0.02501
1.6914e-09
0.02501
5.372e-10
0.02501
-8.51495e-10
0.02501
-8.97934e-10
0.02501
-1.05429e-09
0.02501
-8.07688e-10
0.02501
4.80823e-10
0.02501
3.08351e-10
0.02501
-1.86626e-09
0.02501
-2.61748e-09
0.02501
-1.12768e-09
0.02501
1.03021e-09
0.02501
1.94583e-09
0.02501
1.2529e-09
0.02501
-9.06774e-11
0.02501
-9.68967e-10
0.02501
-5.4171e-10
0.02501
6.10072e-10
0.02501
1.02573e-09
0.02501
3.92202e-10
0.02501
-5.46812e-10
0.02501
-8.12664e-10
0.02501
-1.03077e-10
0.02501
1.02007e-09
0.02501
1.25275e-09
0.02501
3.78802e-10
0.02501
-8.59261e-10
0.02501
-3.05001e-09
-1.8184e-09
0.0405432
-0.0724639
0.0341654
-0.0658774
0.0306644
-0.0485086
0.0285062
-0.0352007
0.0272366
-0.0248209
0.0264603
-0.0171825
0.0259661
-0.0117949
0.0256442
-0.00804987
0.0254318
-0.00546828
0.0252907
-0.00369972
0.0251967
-0.00249409
0.0251339
-0.00167566
0.0250921
-0.00112219
0.0250642
-0.000749192
0.0250458
-0.000498655
0.0250335
-0.000330908
0.0250254
-0.000218941
0.0250201
-0.000144429
0.0250165
-9.4996e-05
0.0250142
-6.22987e-05
0.0250127
-4.07336e-05
0.0250118
-2.65509e-05
0.0250111
-1.72573e-05
0.0250107
-1.11851e-05
0.0250104
-7.22387e-06
0.0250103
-4.65256e-06
0.0250102
-2.98791e-06
0.0250101
-1.9109e-06
0.02501
-1.21955e-06
0.02501
-7.77738e-07
0.02501
-4.92375e-07
0.02501
-3.08728e-07
0.02501
-1.95653e-07
0.02501
-1.24785e-07
0.02501
-7.77825e-08
0.02501
-4.84498e-08
0.02501
-3.07276e-08
0.02501
-1.83864e-08
0.02501
-1.01855e-08
0.02501
-6.33053e-09
0.02501
-5.17055e-09
0.02501
-3.51669e-09
0.02501
-1.80358e-09
0.02501
-1.72291e-09
0.02501
-1.43079e-09
0.02501
-1.57192e-09
0.02501
-1.01488e-09
0.02501
1.84183e-09
0.02501
1.13812e-09
0.02501
-1.95057e-09
0.02501
-6.9573e-10
0.02501
4.27216e-10
0.02501
4.22643e-10
0.02501
2.21318e-09
0.02501
-7.36833e-11
0.02501
-1.92486e-09
0.02501
1.3001e-09
0.02501
2.58745e-09
0.02501
1.21708e-09
0.02501
4.56242e-10
0.02501
-1.62208e-09
0.02501
-2.88002e-09
0.02501
3.88098e-10
0.02501
2.06269e-09
0.02501
5.44055e-10
0.02501
-5.67922e-10
0.02501
-1.97879e-09
0.02501
-2.2592e-09
0.02501
1.94983e-10
0.02501
1.64046e-09
0.02501
1.63459e-09
0.02501
1.61507e-09
0.02501
5.11303e-10
0.02501
-6.46305e-10
0.02501
-8.4094e-10
0.02501
-1.0686e-09
0.02501
-7.37328e-10
0.02501
4.09614e-10
0.02501
5.80343e-11
0.02501
-1.81877e-09
0.02501
-2.42435e-09
0.02501
-9.10033e-10
0.02501
1.11562e-09
0.02501
1.90762e-09
0.02501
1.13002e-09
0.02501
-2.93908e-10
0.02501
-1.05974e-09
0.02501
-5.12267e-10
0.02501
7.176e-10
0.02501
1.09932e-09
0.02501
4.21925e-10
0.02501
-5.50316e-10
0.02501
-8.10574e-10
0.02501
-5.47379e-11
0.02501
9.37815e-10
0.02501
1.16146e-09
0.02501
2.06689e-10
0.02501
-9.06175e-10
0.02501
-3.30808e-09
-2.14996e-09
0.0409308
-0.0624633
0.0347325
-0.0596791
0.0311904
-0.0449665
0.0289353
-0.0329456
0.0275477
-0.0234333
0.0266773
-0.0163122
0.0261151
-0.0112326
0.0257455
-0.00768032
0.0255003
-0.00522303
0.0253367
-0.00353616
0.0252274
-0.00238481
0.0251544
-0.00160266
0.0251057
-0.00107348
0.0250733
-0.00071675
0.0250517
-0.000477094
0.0250374
-0.000316613
0.025028
-0.00020949
0.0250217
-0.000138199
0.0250176
-9.08992e-05
0.025015
-5.96114e-05
0.0250132
-3.89772e-05
0.0250121
-2.54065e-05
0.0250113
-1.65131e-05
0.0250108
-1.07032e-05
0.0250105
-6.91259e-06
0.0250103
-4.4513e-06
0.0250102
-2.85906e-06
0.0250101
-1.82926e-06
0.0250101
-1.1673e-06
0.02501
-7.43842e-07
0.02501
-4.70864e-07
0.02501
-2.95766e-07
0.02501
-1.87756e-07
0.02501
-1.19634e-07
0.02501
-7.42461e-08
0.02501
-4.58281e-08
0.02501
-2.87764e-08
0.02501
-1.74704e-08
0.02501
-1.01882e-08
0.02501
-6.56827e-09
0.02501
-4.93228e-09
0.02501
-3.07418e-09
0.02501
-1.65189e-09
0.02501
-1.8826e-09
0.02501
-1.4615e-09
0.02501
-1.21266e-09
0.02501
-1.04916e-09
0.02501
1.54137e-09
0.02501
1.16766e-09
0.02501
-1.84161e-09
0.02501
-5.86921e-10
0.02501
5.20597e-10
0.02501
2.23415e-10
0.02501
1.96417e-09
0.02501
2.44249e-10
0.02501
-1.84439e-09
0.02501
1.22081e-09
0.02501
2.44892e-09
0.02501
1.04019e-09
0.02501
4.36235e-10
0.02501
-1.38705e-09
0.02501
-2.61358e-09
0.02501
2.13324e-10
0.02501
1.92915e-09
0.02501
3.99449e-10
0.02501
-6.30191e-10
0.02501
-1.77863e-09
0.02501
-1.98821e-09
0.02501
1.53097e-10
0.02501
1.53452e-09
0.02501
1.47186e-09
0.02501
1.46945e-09
0.02501
6.25119e-10
0.02501
-5.40334e-10
0.02501
-8.12768e-10
0.02501
-9.92098e-10
0.02501
-7.1858e-10
0.02501
2.32725e-10
0.02501
4.66927e-12
0.02501
-1.76146e-09
0.02501
-2.25029e-09
0.02501
-7.60214e-10
0.02501
1.20272e-09
0.02501
1.85172e-09
0.02501
9.71361e-10
0.02501
-4.53824e-10
0.02501
-1.11853e-09
0.02501
-4.02359e-10
0.02501
7.93584e-10
0.02501
1.11693e-09
0.02501
4.04395e-10
0.02501
-5.25633e-10
0.02501
-7.72355e-10
0.02501
-8.78652e-11
0.02501
8.89428e-10
0.02501
1.01871e-09
0.02501
1.36688e-10
0.02501
-8.97807e-10
0.02501
-3.63574e-09
-2.52701e-09
0.0411756
-0.0539718
0.0352242
-0.0537277
0.0316597
-0.0414021
0.0293268
-0.0306127
0.0278375
-0.021944
0.0268818
-0.0153565
0.0262563
-0.0106071
0.0258419
-0.0072659
0.0255655
-0.00494664
0.0253806
-0.00335126
0.0252568
-0.00226104
0.0251741
-0.00151987
0.0251188
-0.00101818
0.0250819
-0.000679904
0.0250574
-0.000452598
0.0250412
-0.000300369
0.0250304
-0.000198748
0.0250233
-0.000131117
0.0250187
-8.62418e-05
0.0250156
-5.65563e-05
0.0250136
-3.69801e-05
0.0250123
-2.41056e-05
0.0250115
-1.5667e-05
0.0250109
-1.0155e-05
0.0250106
-6.55869e-06
0.0250104
-4.22266e-06
0.0250102
-2.71255e-06
0.0250101
-1.73639e-06
0.0250101
-1.10784e-06
0.02501
-7.05218e-07
0.02501
-4.46473e-07
0.02501
-2.81168e-07
0.02501
-1.7879e-07
0.02501
-1.13622e-07
0.02501
-7.0066e-08
0.02501
-4.2853e-08
0.02501
-2.67786e-08
0.02501
-1.65748e-08
0.02501
-1.01093e-08
0.02501
-6.67455e-09
0.02501
-4.67314e-09
0.02501
-2.65614e-09
0.02501
-1.46987e-09
0.02501
-1.98998e-09
0.02501
-1.49899e-09
0.02501
-9.20288e-10
0.02501
-9.78916e-10
0.02501
1.24476e-09
0.02501
1.151e-09
0.02501
-1.70341e-09
0.02501
-5.41238e-10
0.02501
6.51752e-10
0.02501
5.19625e-11
0.02501
1.7367e-09
0.02501
4.18357e-10
0.02501
-1.65282e-09
0.02501
1.08089e-09
0.02501
2.34267e-09
0.02501
8.96657e-10
0.02501
3.29952e-10
0.02501
-1.14015e-09
0.02501
-2.41321e-09
0.02501
1.85207e-10
0.02501
1.74293e-09
0.02501
2.73642e-10
0.02501
-6.77598e-10
0.02501
-1.59774e-09
0.02501
-1.76243e-09
0.02501
1.99771e-10
0.02501
1.3732e-09
0.02501
1.32138e-09
0.02501
1.37158e-09
0.02501
6.46264e-10
0.02501
-4.2379e-10
0.02501
-7.80858e-10
0.02501
-9.47175e-10
0.02501
-6.7426e-10
0.02501
1.74171e-10
0.02501
-1.39744e-10
0.02501
-1.67308e-09
0.02501
-2.07661e-09
0.02501
-5.90974e-10
0.02501
1.24865e-09
0.02501
1.76798e-09
0.02501
8.16949e-10
0.02501
-5.7726e-10
0.02501
-1.12014e-09
0.02501
-3.42745e-10
0.02501
8.61553e-10
0.02501
1.10701e-09
0.02501
3.92479e-10
0.02501
-5.13535e-10
0.02501
-7.4815e-10
0.02501
-5.85953e-11
0.02501
8.13156e-10
0.02501
9.20863e-10
0.02501
2.73543e-11
0.02501
-8.68102e-10
0.02501
-3.98067e-09
-2.97517e-09
0.0413454
-0.0466987
0.0356547
-0.048037
0.0320788
-0.0378262
0.0296821
-0.0282159
0.0281053
-0.0203672
0.0270729
-0.014324
0.0263891
-0.00992341
0.0259329
-0.00680964
0.0256272
-0.00464099
0.0254222
-0.00314623
0.0252847
-0.00212355
0.0251927
-0.0014278
0.0251311
-0.000956658
0.0250901
-0.000638883
0.0250628
-0.000425319
0.0250447
-0.000282277
0.0250328
-0.000186782
0.0250249
-0.000123226
0.0250197
-8.10523e-05
0.0250163
-5.31525e-05
0.0250141
-3.4755e-05
0.0250126
-2.26561e-05
0.0250117
-1.47243e-05
0.0250111
-9.54395e-06
0.0250107
-6.16432e-06
0.0250104
-3.96815e-06
0.0250102
-2.5493e-06
0.0250101
-1.63275e-06
0.0250101
-1.0415e-06
0.02501
-6.62185e-07
0.02501
-4.1938e-07
0.02501
-2.64976e-07
0.02501
-1.68744e-07
0.02501
-1.06762e-07
0.02501
-6.53021e-08
0.02501
-3.96274e-08
0.02501
-2.47781e-08
0.02501
-1.56784e-08
0.02501
-9.91774e-09
0.02501
-6.63836e-09
0.02501
-4.38558e-09
0.02501
-2.26989e-09
0.02501
-1.27387e-09
0.02501
-2.04711e-09
0.02501
-1.53547e-09
0.02501
-6.4581e-10
0.02501
-8.91245e-10
0.02501
9.61862e-10
0.02501
1.12969e-09
0.02501
-1.551e-09
0.02501
-5.17443e-10
0.02501
7.48487e-10
0.02501
-6.62058e-11
0.02501
1.48338e-09
0.02501
5.96166e-10
0.02501
-1.48347e-09
0.02501
9.24872e-10
0.02501
2.23566e-09
0.02501
7.74927e-10
0.02501
2.32586e-10
0.02501
-9.36452e-10
0.02501
-2.16554e-09
0.02501
8.90688e-11
0.02501
1.596e-09
0.02501
1.75645e-10
0.02501
-7.1272e-10
0.02501
-1.42096e-09
0.02501
-1.52125e-09
0.02501
1.82304e-10
0.02501
1.23553e-09
0.02501
1.1834e-09
0.02501
1.26766e-09
0.02501
6.73983e-10
0.02501
-3.40632e-10
0.02501
-7.53041e-10
0.02501
-8.92055e-10
0.02501
-6.11421e-10
0.02501
8.81855e-11
0.02501
-2.068e-10
0.02501
-1.59574e-09
0.02501
-1.89355e-09
0.02501
-4.41098e-10
0.02501
1.27026e-09
0.02501
1.6587e-09
0.02501
6.63761e-10
0.02501
-6.68743e-10
0.02501
-1.10064e-09
0.02501
-2.47098e-10
0.02501
8.90132e-10
0.02501
1.07462e-09
0.02501
3.56767e-10
0.02501
-4.95566e-10
0.02501
-6.98422e-10
0.02501
-5.83528e-11
0.02501
7.51833e-10
0.02501
8.13213e-10
0.02501
-3.70643e-11
0.02501
-8.14844e-10
0.02501
-4.37054e-09
-3.50049e-09
0.0414434
-0.040395
0.0360256
-0.0426191
0.0324515
-0.0342521
0.0300024
-0.0257669
0.0283508
-0.0187156
0.0272497
-0.013223
0.0265129
-0.00918653
0.0260179
-0.0063147
0.025685
-0.00430811
0.0254612
-0.00292239
0.0253109
-0.00197323
0.0252101
-0.00132705
0.0251427
-0.00088928
0.0250978
-0.000593941
0.0250679
-0.000395425
0.0250481
-0.000262448
0.025035
-0.000173666
0.0250263
-0.000114574
0.0250206
-7.53628e-05
0.0250169
-4.9421e-05
0.0250145
-3.23154e-05
0.0250129
-2.10669e-05