/*--------------------------------*- C++ -*----------------------------------*\
| =========                 |                                                 |
| \\      /  F ield         | OpenFOAM: The Open Source CFD Toolbox           |
|  \\    /   O peration     | Version:  2.4.0                                 |
|   \\  /    A nd           | Web:      www.OpenFOAM.org                      |
|    \\/     M anipulation  |                                                 |
\*---------------------------------------------------------------------------*/
FoamFile
{
    version     2.0;
    format      ascii;
    class       volScalarField;
    location    "0.58";
    object      k;
}
// * * * * * * * * * * * * * * * * * * * * * * * * * * * * * * * * * * * * * //

dimensions      [0 2 -2 0 0 0 0];

internalField   nonuniform List<scalar> 
8800
(
8.11795
10.2688
8.79301
6.82046
5.71018
4.96558
4.53351
4.13896
3.91943
3.66106
3.55242
3.3602
3.30288
3.15078
3.11077
2.97336
2.93459
2.79438
2.75868
2.55564
1.4029
4.35336
5.31973
5.28811
5.13212
4.80396
4.57946
4.28434
4.12101
3.87906
3.78038
3.58003
3.52195
3.37102
3.3332
3.2058
3.183
3.06382
3.03901
2.96409
0.0843083
0.730833
1.56516
1.94129
2.27673
2.43918
2.57247
2.60048
2.62477
2.59923
2.58892
2.53832
2.52671
2.46781
2.46272
2.40583
2.41206
2.3539
2.36416
2.30462
0.00334737
0.0698183
0.260172
0.419409
0.580566
0.708721
0.831666
0.927597
1.03136
1.08728
1.16767
1.20258
1.27135
1.29143
1.34907
1.35966
1.41453
1.41772
1.47248
1.45714
0.000122043
0.00494721
0.0226328
0.0559484
0.0804596
0.129714
0.159121
0.207328
0.24334
0.286396
0.315179
0.357626
0.392514
0.416298
0.469082
0.489787
0.530773
0.568184
0.603401
0.650731
2.48807e-05
0.000308068
0.00148291
0.00458743
0.00693201
0.0129276
0.0172443
0.0269404
0.0327771
0.0448645
0.050878
0.0639745
0.0716727
0.0840183
0.0938858
0.110656
0.118646
0.139405
0.148077
0.173178
2.21804e-05
4.62273e-05
0.000118163
0.000362455
0.000495469
0.000889901
0.0012257
0.00204688
0.00264005
0.00394133
0.00466908
0.0061715
0.00768365
0.00902211
0.0110894
0.0145882
0.0159592
0.0197525
0.0214793
0.0268058
2.10987e-05
3.37968e-05
4.8895e-05
7.94712e-05
9.61967e-05
0.000104935
0.000138621
0.000167264
0.000236151
0.000274809
0.000378596
0.000419522
0.000582192
0.000654259
0.000779055
0.00108532
0.00129269
0.00155167
0.00193434
0.002342
2.07551e-05
2.83252e-05
5.77043e-05
6.3135e-05
7.96031e-05
8.11007e-05
8.59434e-05
8.85454e-05
9.31996e-05
9.55568e-05
0.000101346
0.000113808
0.000116369
0.000126708
0.000129144
0.000127998
0.000161294
0.000176975
0.000234637
0.000253895
2.07728e-05
2.82163e-05
3.71271e-05
5.72212e-05
6.57076e-05
7.28676e-05
7.11795e-05
7.11205e-05
7.13681e-05
7.33178e-05
7.80494e-05
8.16409e-05
8.31451e-05
8.1925e-05
8.32076e-05
8.18589e-05
8.21746e-05
8.50351e-05
8.81715e-05
9.67367e-05
2.05675e-05
2.72507e-05
3.96053e-05
5.89253e-05
6.69703e-05
6.65408e-05
6.73513e-05
7.00451e-05
7.20619e-05
7.12691e-05
7.21613e-05
7.27262e-05
7.46804e-05
7.70361e-05
8.4731e-05
8.8327e-05
9.69937e-05
0.000103461
0.000116287
0.000144
2.09775e-05
3.09652e-05
3.92778e-05
6.23809e-05
7.16766e-05
7.63733e-05
7.55747e-05
7.65175e-05
7.70616e-05
8.13866e-05
9.38915e-05
0.000100901
0.000103548
0.000108902
0.000112149
0.000124357
0.000133615
0.000150834
0.000192249
0.000205847
2.11014e-05
2.90298e-05
4.42574e-05
8.15545e-05
9.44097e-05
0.00011337
0.000129953
0.000175087
0.00020536
0.000294986
0.000336758
0.000446057
0.000504443
0.000670185
0.000766274
0.0010803
0.0012732
0.00177944
0.00218165
0.00261216
2.15905e-05
4.29391e-05
0.000119504
0.000362996
0.000516276
0.000892785
0.0012247
0.00205274
0.00260142
0.00395584
0.00466993
0.00639823
0.00738603
0.00972374
0.0110656
0.0145111
0.0165203
0.0211931
0.0242384
0.0306173
2.50722e-05
0.000305161
0.00143578
0.00483975
0.00722751
0.0129658
0.0173131
0.0269498
0.0325471
0.0451646
0.0511825
0.064754
0.0715668
0.0869803
0.0947038
0.113814
0.123548
0.146867
0.159959
0.193703
0.000123634
0.00490283
0.0217114
0.0581787
0.0818758
0.127817
0.159775
0.208957
0.238606
0.291407
0.314278
0.362427
0.385188
0.434365
0.456682
0.510199
0.534588
0.5937
0.622868
0.695633
0.00336548
0.0693468
0.259301
0.420173
0.583339
0.704379
0.836888
0.929446
1.02357
1.09986
1.15425
1.21773
1.25815
1.31036
1.33473
1.3874
1.40817
1.45993
1.48114
1.53031
0.0845112
0.726221
1.56729
1.93862
2.28388
2.43065
2.58338
2.59644
2.62611
2.599
2.58824
2.5412
2.52656
2.47635
2.46273
2.42172
2.41163
2.38248
2.37041
2.34124
1.40532
4.34764
5.32286
5.28682
5.13454
4.79698
4.5907
4.27378
4.13118
3.86869
3.7792
3.57695
3.51999
3.36537
3.32743
3.19574
3.1655
3.04443
3.00123
2.89669
8.11922
10.2623
8.79939
6.8134
5.7181
4.95714
4.54077
4.12785
3.92783
3.64693
3.55477
3.34493
3.29831
3.12716
3.09589
2.92801
2.89114
2.70989
2.6412
2.42482
1.75694
1.25753
0.985915
0.831814
0.756728
0.704837
0.676075
0.647227
0.632541
0.613394
0.604596
0.589004
0.581194
0.566553
0.558061
0.5452
0.53822
0.529109
0.523504
0.514785
0.506751
0.49501
0.484909
0.473989
0.464887
0.45866
0.453602
0.452305
0.449745
0.449068
0.446978
0.445961
0.443591
0.441937
0.439746
0.437768
0.435208
0.433186
0.429179
0.426136
0.420181
0.413515
0.401794
0.388508
0.37041
0.342885
0.328485
0.302186
0.298735
0.288636
0.291954
0.293576
0.304931
0.306371
0.320656
0.317625
0.325808
0.317031
0.323039
0.312299
0.321387
0.312691
0.326891
0.319639
0.33768
0.329679
0.350136
0.342394
0.368709
0.359832
0.391753
0.378559
0.418083
0.400743
0.455139
0.431516
0.500382
0.443424
0.494658
0.360985
0.363954
0.251378
0.23733
0.170186
0.155834
0.114981
0.10956
0.0932302
0.0900943
0.0866716
0.0804736
0.0844759
0.0819118
0.090259
0.0887362
0.0981149
0.0985939
0.11291
0.119871
0.153502
0.167114
0.216228
0.220057
0.253311
0.244934
0.281852
0.266099
0.29777
0.275551
0.293162
0.270047
0.271651
0.253651
0.251921
0.240274
0.248604
0.251704
0.277788
0.27479
0.275271
0.258322
0.251328
0.228815
0.221391
0.20224
0.197274
0.186925
0.183136
0.174653
0.171596
0.163884
0.1558
0.141028
0.126042
0.113392
0.106223
0.0993731
0.0978147
0.0990151
0.10005
0.0995067
0.098049
0.0944179
0.0867845
0.0705401
0.0470742
0.0283735
0.0195497
0.0154073
0.0149342
0.0155317
0.0174212
0.022311
0.0341659
0.0506962
0.0732151
0.0970702
0.115164
0.132331
0.144173
0.151153
0.150147
0.146693
0.138523
0.127054
0.114309
0.0966019
0.0809541
0.0672798
0.0581871
0.0521735
0.0495691
0.0495868
0.0498404
0.0515728
0.0539494
0.055965
0.0585528
0.0621124
0.0618208
0.0619443
0.060353
0.0591605
0.053369
0.0513773
0.0486004
0.0434896
0.0440073
0.042358
0.0380265
0.0389613
0.0377411
0.0359771
0.0380361
0.0514366
0.170737
0.369144
0.434476
0.568727
2.99226
2.48814
2.02376
1.70341
1.4575
1.2984
1.16151
1.08143
0.995912
0.951098
0.889612
0.861723
0.814916
0.795668
0.760506
0.745356
0.718582
0.706717
0.687036
0.677538
0.66274
0.653512
0.641583
0.630134
0.62115
0.607401
0.601705
0.587867
0.583884
0.574049
0.571153
0.562377
0.560278
0.552498
0.55054
0.54329
0.541784
0.535339
0.533952
0.52897
0.527039
0.523212
0.519315
0.51667
0.507078
0.504629
0.489422
0.485463
0.468054
0.465691
0.448222
0.450143
0.438211
0.446022
0.435647
0.448622
0.437121
0.452248
0.435048
0.450443
0.42798
0.444004
0.418459
0.43723
0.411406
0.433012
0.407363
0.430858
0.404994
0.429967
0.403259
0.43283
0.405836
0.443814
0.416938
0.467815
0.439401
0.51186
0.480371
0.568981
0.509022
0.553265
0.463332
0.430534
0.321672
0.270249
0.197776
0.163148
0.141339
0.119795
0.114003
0.100695
0.100846
0.0989398
0.104196
0.104544
0.114329
0.118834
0.14073
0.151097
0.18613
0.196883
0.229835
0.231458
0.249967
0.243377
0.257782
0.242917
0.254377
0.236167
0.251442
0.237439
0.255762
0.245443
0.25895
0.248093
0.254116
0.242269
0.24407
0.235762
0.237594
0.231561
0.229756
0.219913
0.21552
0.203296
0.197211
0.185435
0.179639
0.166953
0.158608
0.145359
0.133566
0.123225
0.117244
0.109075
0.106589
0.106542
0.106456
0.105347
0.102824
0.0990926
0.0902181
0.0770645
0.0525197
0.031074
0.0195851
0.0144895
0.0127917
0.0130688
0.0143482
0.0183776
0.0284661
0.050327
0.0913927
0.127996
0.175931
0.207741
0.230701
0.240028
0.241883
0.239666
0.234621
0.228815
0.219558
0.207538
0.195267
0.179421
0.158759
0.135781
0.111022
0.0847743
0.0671051
0.058277
0.0533449
0.052748
0.053704
0.0544986
0.0571279
0.0598122
0.0614057
0.0606943
0.0601489
0.0589699
0.0551717
0.0544883
0.0528553
0.0474716
0.0445856
0.0440378
0.0400079
0.0384573
0.0380094
0.0365306
0.0384944
0.0519512
0.144767
0.388745
0.443102
0.585965
1.95047
2.05128
1.78865
1.59936
1.41688
1.30721
1.18063
1.11467
1.02078
0.97916
0.908601
0.879586
0.826938
0.80283
0.764153
0.741794
0.715098
0.693312
0.678202
0.655143
0.647849
0.628064
0.621408
0.603755
0.599082
0.581752
0.577238
0.561485
0.558566
0.543912
0.542078
0.530185
0.529288
0.519286
0.518894
0.510823
0.510383
0.503717
0.502845
0.498495
0.496272
0.495791
0.490442
0.492259
0.485354
0.488686
0.477309
0.481842
0.467103
0.473608
0.457241
0.466975
0.450037
0.464398
0.447408
0.466447
0.448095
0.47071
0.449674
0.473568
0.449519
0.472344
0.445809
0.466374
0.438931
0.456324
0.429549
0.4436
0.417644
0.428851
0.4039
0.413253
0.390739
0.400438
0.382297
0.394956
0.385912
0.404814
0.410052
0.435394
0.457462
0.475168
0.498192
0.472825
0.46873
0.419454
0.391414
0.320709
0.277096
0.225083
0.195209
0.166422
0.156724
0.149693
0.154041
0.154984
0.168576
0.174168
0.198089
0.205636
0.233481
0.239089
0.256224
0.252199
0.257004
0.246587
0.245627
0.227834
0.221201
0.193074
0.184137
0.155098
0.154606
0.148036
0.158983
0.162167
0.184745
0.193686
0.216631
0.219757
0.223243
0.219414
0.218147
0.209248
0.203662
0.191077
0.182955
0.168966
0.161184
0.148732
0.140952
0.13198
0.1278
0.121297
0.118993
0.117711
0.116206
0.112759
0.110212
0.104483
0.0950584
0.0802197
0.057357
0.0340509
0.0209017
0.0143226
0.0115067
0.0113573
0.0118541
0.0142057
0.021544
0.0387332
0.0765379
0.146399
0.215382
0.26918
0.293413
0.29311
0.290233
0.280592
0.274996
0.263223
0.258868
0.25005
0.245762
0.239156
0.23316
0.22135
0.211944
0.191808
0.171338
0.147051
0.116892
0.0905434
0.0724775
0.0613659
0.0583061
0.0573836
0.0600762
0.0610546
0.0624025
0.0608599
0.0623139
0.0603525
0.060172
0.0578161
0.0590736
0.0544676
0.0462774
0.0431424
0.0372506
0.0362762
0.0351918
0.0349127
0.0381769
0.0522836
0.11293
0.387672
0.44349
0.578604
1.26769
1.34761
1.21787
1.12261
1.01878
0.961875
0.886784
0.844666
0.785984
0.751362
0.708244
0.677199
0.651953
0.618019
0.60531
0.573117
0.5607
0.532774
0.524284
0.49906
0.492606
0.472522
0.469497
0.452697
0.450055
0.43456
0.432832
0.417058
0.415351
0.400461
0.3997
0.386935
0.386238
0.376256
0.376091
0.368282
0.36824
0.362754
0.36228
0.36017
0.357694
0.359014
0.355735
0.359291
0.354839
0.36051
0.353766
0.360501
0.350941
0.358376
0.346746
0.355089
0.343149
0.352861
0.341773
0.353066
0.343587
0.355415
0.347857
0.358351
0.35187
0.359336
0.352744
0.355667
0.348751
0.347033
0.338925
0.33335
0.323049
0.309607
0.304733
0.285045
0.279714
0.263055
0.261712
0.247359
0.253029
0.247065
0.267246
0.266266
0.307592
0.313464
0.383871
0.387316
0.427734
0.40722
0.418511
0.39201
0.388216
0.355361
0.347462
0.313004
0.306938
0.283463
0.28718
0.27741
0.285122
0.279487
0.286883
0.281798
0.285146
0.277307
0.277224
0.265877
0.260383
0.239304
0.226723
0.193365
0.177365
0.139618
0.127435
0.102231
0.0985253
0.0898059
0.091986
0.0921931
0.0971201
0.102476
0.11857
0.131503
0.161378
0.173083
0.187286
0.187828
0.187751
0.183564
0.180521
0.172355
0.168268
0.159131
0.154409
0.144807
0.14099
0.133412
0.129841
0.123319
0.117085
0.10888
0.0965884
0.0786056
0.0560575
0.0343538
0.0212924
0.0143444
0.0110664
0.00993248
0.0101403
0.0110238
0.0145087
0.0253981
0.0531929
0.108147
0.220278
0.307699
0.335114
0.338762
0.328543
0.314347
0.301122
0.283611
0.274926
0.258904
0.255602
0.246339
0.246695
0.244736
0.245142
0.243685
0.242363
0.233587
0.223358
0.198254
0.174027
0.136848
0.113098
0.0864438
0.0757891
0.0663282
0.066623
0.0665596
0.067531
0.0644119
0.0637625
0.0631005
0.0614274
0.0568713
0.0559106
0.0502146
0.0439056
0.0396036
0.0333969
0.0332004
0.0344993
0.0338484
0.0367631
0.0503113
0.0948483
0.402234
0.44921
0.573334
0.91829
0.620785
0.582196
0.534994
0.504168
0.466773
0.453458
0.424941
0.413315
0.388818
0.379248
0.356715
0.348949
0.329968
0.324824
0.310076
0.305713
0.290641
0.286678
0.27202
0.26892
0.255196
0.253383
0.24317
0.242524
0.234055
0.234079
0.225996
0.226124
0.217592
0.217183
0.209238
0.208378
0.201074
0.200261
0.194343
0.194167
0.190279
0.190292
0.18808
0.187933
0.187154
0.187058
0.186889
0.187001
0.186784
0.186668
0.18615
0.185595
0.183853
0.183207
0.18053
0.180506
0.178129
0.179235
0.176921
0.179382
0.176514
0.180362
0.176437
0.181117
0.175977
0.180517
0.173849
0.177247
0.168509
0.170312
0.159647
0.159866
0.147893
0.147632
0.134858
0.135126
0.124035
0.126451
0.117593
0.123954
0.117914
0.131073
0.129389
0.150508
0.153813
0.189437
0.20052
0.257359
0.272218
0.327213
0.329737
0.349169
0.33719
0.344352
0.329745
0.334529
0.322564
0.325681
0.316742
0.317529
0.309833
0.307803
0.296372
0.290156
0.271913
0.259971
0.231169
0.213329
0.176288
0.149691
0.110913
0.0862179
0.0599619
0.051425
0.039249
0.0368963
0.0342377
0.0354728
0.0366576
0.0402694
0.0432236
0.0507176
0.0563416
0.0693741
0.0808909
0.098345
0.113426
0.12912
0.139866
0.146823
0.147349
0.14667
0.144099
0.141044
0.134814
0.1292
0.120356
0.111361
0.0979537
0.0813579
0.063975
0.0432778
0.0288765
0.0192936
0.0134016
0.0103207
0.00900382
0.00893894
0.00929722
0.0106613
0.0154042
0.029653
0.0687263
0.15471
0.302674
0.37557
0.381903
0.369619
0.355629
0.317968
0.299781
0.262975
0.245931
0.227345
0.216673
0.207493
0.196518
0.195189
0.196708
0.207173
0.217765
0.238002
0.239978
0.239785
0.231481
0.215939
0.187712
0.154762
0.123192
0.103027
0.0884464
0.0768043
0.074665
0.0711578
0.0706426
0.0653449
0.063977
0.0584778
0.0564892
0.0527286
0.0509044
0.0441749
0.0412816
0.0364269
0.0322822
0.0309071
0.0307328
0.0326649
0.044902
0.0823532
0.428856
0.456262
0.541983
0.80191
0.169188
0.164487
0.152978
0.148277
0.137864
0.135159
0.128332
0.126628
0.121625
0.11986
0.114143
0.112452
0.107677
0.106714
0.10352
0.102912
0.10007
0.0993334
0.0953495
0.0940512
0.089144
0.0877285
0.0835926
0.0825817
0.079556
0.0792969
0.0773235
0.0774091
0.0756294
0.0755954
0.0739237
0.0737249
0.0718227
0.0718918
0.0701085
0.0705776
0.0688734
0.0698154
0.0682607
0.069563
0.0679118
0.0697704
0.0678302
0.0702144
0.0680026
0.0705813
0.0682374
0.0706134
0.0682342
0.0703944
0.0680181
0.0703291
0.067981
0.0707333
0.0684872
0.0716288
0.0693464
0.0728813
0.0703977
0.0739901
0.0712424
0.0743238
0.0712764
0.073439
0.0699485
0.0711116
0.0672217
0.0674442
0.0633044
0.0632211
0.0591692
0.0594201
0.0560917
0.057083
0.0547824
0.0571915
0.0560736
0.0605871
0.0608865
0.0676908
0.0699642
0.0818903
0.0873104
0.107689
0.116819
0.144878
0.156941
0.190594
0.20033
0.227262
0.231958
0.245022
0.245103
0.246355
0.243307
0.240868
0.231851
0.225752
0.21007
0.199027
0.176971
0.156424
0.130726
0.104793
0.0794877
0.0606206
0.0446151
0.0342465
0.0253062
0.0211812
0.0169997
0.0153357
0.0144116
0.0145856
0.0151492
0.0169846
0.0185573
0.0218903
0.025085
0.0281256
0.0344482
0.0414096
0.0483289
0.0569981
0.0637983
0.0703471
0.0766667
0.0786721
0.0783865
0.0769523
0.0730928
0.0673738
0.058475
0.0485421
0.0377622
0.0289852
0.0212731
0.0157024
0.0115273
0.00926226
0.00794459
0.00786361
0.00805414
0.0087255
0.0108476
0.0169593
0.0343246
0.0831027
0.209521
0.370393
0.426218
0.422276
0.398624
0.360274
0.312959
0.280562
0.261607
0.240782
0.230931
0.215644
0.208308
0.196095
0.189803
0.176129
0.168315
0.167949
0.171896
0.187516
0.218523
0.232463
0.231231
0.224342
0.213111
0.185181
0.166273
0.126617
0.114166
0.0896387
0.0870735
0.0777828
0.0778474
0.0689122
0.066544
0.0581812
0.0560912
0.0510275
0.045947
0.0403025
0.0400666
0.0381218
0.0348009
0.033248
0.0341856
0.0366039
0.0640974
0.0993599
0.331548
0.441929
0.48271
0.699753
0.0265875
0.0263199
0.0252414
0.0247309
0.0232787
0.0229774
0.0221598
0.0222062
0.0218633
0.0219686
0.021507
0.0214612
0.0208754
0.0207757
0.0204449
0.0203751
0.0200334
0.0200073
0.0195906
0.0194113
0.0187845
0.0183805
0.0179129
0.0173204
0.0170144
0.0169422
0.0167212
0.0166331
0.0166449
0.0164325
0.0164449
0.0162303
0.0162642
0.0161418
0.0161952
0.0162916
0.0164869
0.0169823
0.0172414
0.018193
0.0183942
0.0197948
0.0198566
0.021456
0.021305
0.0229211
0.0225896
0.0240248
0.0236024
0.0247742
0.0243079
0.025457
0.0250677
0.0263786
0.0262099
0.0276772
0.0275747
0.0292071
0.0289571
0.0305479
0.0300554
0.0313157
0.0305553
0.0313819
0.0302964
0.0307194
0.0293602
0.0294169
0.0278866
0.0278693
0.0264346
0.0266043
0.0256168
0.0261178
0.0257817
0.0267601
0.0269517
0.0287474
0.0294776
0.0322116
0.0335166
0.037491
0.0397291
0.0463099
0.0501289
0.0599349
0.0651505
0.0774586
0.0830402
0.0947569
0.100504
0.106737
0.112058
0.114445
0.11412
0.113067
0.109046
0.104927
0.0965718
0.0868044
0.0756001
0.0635725
0.0520517
0.0411786
0.0320623
0.0242343
0.0185679
0.0140722
0.0112553
0.00922305
0.00804039
0.00711333
0.00673301
0.00662789
0.00671066
0.00704032
0.007579
0.00862401
0.0103396
0.0114056
0.0138913
0.0164833
0.0189872
0.0237572
0.0268528
0.0299495
0.0328879
0.0339997
0.0337665
0.032926
0.0304481
0.0276559
0.0228821
0.0192087
0.0149228
0.0119219
0.00932466
0.00784812
0.00687553
0.00685156
0.0070074
0.00752292
0.00875446
0.0119368
0.0195898
0.0397867
0.0957081
0.253357
0.424332
0.47013
0.459818
0.422456
0.354185
0.320042
0.290902
0.273427
0.255723
0.240399
0.234733
0.223662
0.221791
0.212613
0.207216
0.191003
0.180057
0.165634
0.164443
0.164387
0.172378
0.195477
0.219132
0.21753
0.214394
0.196161
0.185968
0.154162
0.142368
0.113555
0.104226
0.0946808
0.0826365
0.0730096
0.0639006
0.0584703
0.0508952
0.0472165
0.0434297
0.0407371
0.0458755
0.0474714
0.0642326
0.0545383
0.0684391
0.0537321
0.0628364
0.0992944
0.135499
0.38706
0.434249
0.602744
0.00231587
0.00228951
0.0021812
0.00213864
0.00203032
0.00203198
0.0020094
0.00204072
0.00202655
0.00207431
0.00202785
0.00207148
0.00201824
0.00205026
0.00202501
0.00206792
0.0020534
0.00210964
0.00208626
0.00214325
0.00211828
0.00214296
0.00212892
0.00212539
0.00209434
0.00209847
0.00206286
0.00204166
0.00200991
0.00195166
0.00194321
0.00190928
0.00190616
0.0019054
0.00192723
0.00194609
0.00203629
0.00208621
0.00221652
0.00238347
0.00247238
0.00276295
0.00285976
0.00331761
0.00335328
0.00388527
0.00390609
0.00442631
0.00442544
0.00489663
0.00487676
0.00540536
0.00539437
0.00599947
0.00608977
0.00689049
0.00699496
0.00799442
0.00801249
0.00886218
0.00870385
0.00944815
0.00914015
0.00973272
0.00927279
0.00972748
0.00919714
0.00952409
0.00896104
0.00925222
0.0087216
0.00906821
0.0087346
0.00921529
0.00920895
0.00986626
0.0101631
0.0113458
0.0119493
0.0137193
0.0145915
0.0168002
0.01791
0.0206775
0.0223162
0.025479
0.0292064
0.0324653
0.0360182
0.0407187
0.0438931
0.0462329
0.0487529
0.0493951
0.049138
0.048329
0.0459194
0.0430602
0.0388053
0.0339878
0.0292817
0.0242395
0.0198094
0.0156313
0.0123912
0.00950344
0.00773788
0.00611269
0.00543937
0.00467351
0.00447988
0.00409759
0.00405051
0.00393341
0.00396106
0.00394066
0.0039842
0.00408845
0.00437884
0.00468694
0.00547116
0.00629969
0.00718518
0.00930262
0.01048
0.0123392
0.0136994
0.0140564
0.0138902
0.0134079
0.0121206
0.0109416
0.00915689
0.00803402
0.00674506
0.00615338
0.00572515
0.00581352
0.00603497
0.00654188
0.00746326
0.00947472
0.0138211
0.0237457
0.0461401
0.108202
0.285956
0.477066
0.510551
0.493073
0.423415
0.374365
0.334423
0.310041
0.283297
0.271443
0.252555
0.249143
0.241097
0.238108
0.23672
0.230244
0.229566
0.219901
0.214078
0.187877
0.178982
0.167377
0.171544
0.171787
0.190175
0.199744
0.209421
0.202804
0.196641
0.17574
0.148777
0.135015
0.10798
0.104067
0.0850036
0.0819769
0.0676151
0.0619747
0.0530682
0.0480049
0.0492682
0.0472959
0.0559752
0.0552543
0.0729387
0.0701303
0.0833094
0.0726134
0.0710385
0.0922816
0.119263
0.318706
0.368685
0.530917
0.000249144
0.000241733
0.000237517
0.000232068
0.000222091
0.00021825
0.00020923
0.000206959
0.00020251
0.000203311
0.000203026
0.000213702
0.000212518
0.000217731
0.000213342
0.000217003
0.000214115
0.000219589
0.000219155
0.000232611
0.000238261
0.000261915
0.000268533
0.000293915
0.000296609
0.00031625
0.000318504
0.000331869
0.000335386
0.000344079
0.000363605
0.000372867
0.000395831
0.000402397
0.00042501
0.000428138
0.000453108
0.000463077
0.000481245
0.000508301
0.000517227
0.000545989
0.000548542
0.0005817
0.000581341
0.000626245
0.000626262
0.000674694
0.000678162
0.000733704
0.000739078
0.000812242
0.000818605
0.000906289
0.000915769
0.00101492
0.00102536
0.00115324
0.00115351
0.00128554
0.00126971
0.00139969
0.00137255
0.00148599
0.00145209
0.00154588
0.001519
0.00159149
0.00157496
0.00163415
0.00161959
0.00168406
0.00168377
0.00177368
0.00181342
0.00197077
0.00207964
0.00238722
0.00259162
0.00311755
0.00344783
0.0042117
0.00470876
0.00564798
0.00670886
0.00735833
0.00926689
0.0103739
0.0118177
0.0133901
0.0144875
0.0155156
0.0158736
0.0157992
0.0153818
0.0148453
0.0136939
0.012788
0.0115493
0.0104258
0.00919815
0.00802276
0.00683208
0.00580698
0.00491834
0.00418511
0.00378595
0.00343354
0.00333748
0.00319741
0.00322473
0.00320515
0.0032405
0.00320412
0.00320506
0.00317892
0.00311818
0.00300242
0.00295144
0.00296881
0.00300944
0.00318551
0.00334552
0.0037865
0.00407675
0.00461952
0.00496562
0.0052157
0.00522797
0.00519141
0.00505937
0.00487541
0.00466379
0.00457322
0.00462136
0.00481685
0.00511992
0.00568122
0.00639632
0.00788134
0.0109029
0.0170795
0.0299687
0.057207
0.121778
0.320808
0.514096
0.557028
0.525235
0.435513
0.389156
0.366116
0.326088
0.295648
0.271715
0.256403
0.24854
0.246343
0.238578
0.237581
0.230668
0.229039
0.225511
0.222075
0.222589
0.216107
0.207153
0.181484
0.177137
0.170357
0.17374
0.185565
0.200229
0.20251
0.194259
0.18854
0.152293
0.146068
0.116447
0.113615
0.0903353
0.0833988
0.0670042
0.0607492
0.0520833
0.0480015
0.0458076
0.0446407
0.04603
0.049117
0.0508444
0.0614642
0.0604976
0.0671569
0.0665623
0.0814571
0.101131
0.249241
0.2962
0.460536
9.98266e-05
0.000101168
0.000105531
0.000106775
0.000107041
0.000106459
0.000105567
0.000105432
0.00010414
0.000104249
0.000104123
0.000103467
0.000102617
0.000103106
0.000103171
0.000102124
0.000102785
0.0001025
0.000103741
0.000104842
0.000108578
0.000110562
0.000114761
0.000119884
0.000125824
0.00013868
0.000146266
0.000162943
0.000170654
0.000189045
0.000198574
0.000218638
0.000235081
0.000255033
0.000286068
0.000310382
0.000361955
0.000389447
0.000456283
0.000483529
0.000556458
0.000580788
0.000651239
0.000712287
0.000751867
0.000824024
0.000849513
0.00090448
0.000923959
0.000970007
0.000987899
0.0010278
0.00104707
0.0010901
0.00110652
0.00113934
0.00116214
0.00121371
0.00123096
0.00127303
0.0012829
0.00131223
0.00131573
0.00133799
0.00133806
0.00134474
0.00134079
0.00134499
0.00135539
0.00136383
0.00138547
0.00138925
0.00140801
0.00140727
0.00142582
0.00142647
0.00145379
0.00146857
0.00150421
0.0015781
0.00163823
0.00176797
0.0018689
0.00206926
0.00223292
0.0025386
0.00276079
0.00324009
0.00346904
0.00398337
0.0041586
0.00454233
0.00460081
0.00464797
0.00458228
0.00455381
0.00444726
0.00439389
0.00421726
0.00409199
0.00378135
0.00355607
0.00323255
0.00303847
0.00284903
0.00275052
0.00275075
0.00276024
0.0028286
0.00287403
0.00301182
0.00309755
0.00321007
0.00319767
0.00318351
0.00312398
0.00307552
0.00300066
0.00287849
0.0027402
0.00265568
0.00264295
0.00264844
0.00268587
0.00274282
0.00285933
0.00297872
0.00313176
0.00332632
0.00341666
0.00355321
0.00362788
0.00381018
0.00397737
0.00435778
0.00471841
0.00557332
0.00683609
0.00903635
0.0138841
0.0238569
0.0429658
0.0771302
0.149786
0.35167
0.551896
0.59074
0.544497
0.435981
0.409445
0.387949
0.360407
0.292294
0.261155
0.235248
0.236849
0.240922
0.241269
0.243509
0.243426
0.233384
0.22948
0.21641
0.217177
0.213074
0.215067
0.207005
0.202114
0.185009
0.177012
0.174896
0.1872
0.19208
0.205395
0.188218
0.191368
0.157666
0.154528
0.12543
0.116382
0.0906479
0.0793579
0.0653282
0.0544403
0.0495158
0.0443655
0.0441745
0.0425897
0.0437251
0.0447023
0.0463428
0.0510345
0.0485519
0.0561667
0.0556808
0.0677336
0.0771978
0.163278
0.202762
0.359522
0.000141447
0.000137668
0.00014184
0.000141957
0.000142584
0.000139209
0.00013594
0.00012744
0.000125546
0.000121657
0.000121811
0.000120871
0.000122556
0.000122681
0.000125785
0.00012591
0.000128254
0.000127488
0.000129232
0.000128634
0.000130185
0.000130136
0.000133779
0.000135071
0.000144807
0.000148682
0.00016259
0.000164436
0.000172387
0.000172684
0.000179026
0.000180909
0.000190635
0.0001958
0.000212139
0.000222273
0.000248394
0.000262459
0.000293726
0.000309611
0.000342392
0.000361465
0.000399028
0.000438105
0.000475336
0.000531385
0.000552081
0.000596564
0.000610521
0.000646694
0.000657123
0.000694319
0.00070603
0.000749053
0.000770579
0.000833765
0.000875617
0.000975027
0.00101866
0.00112369
0.00115513
0.00124579
0.00126465
0.00134449
0.0013603
0.00144133
0.00145565
0.00152454
0.00153358
0.00157963
0.00162334
0.00167164
0.00175019
0.00178868
0.00187501
0.00189876
0.00196151
0.00197038
0.00200021
0.00199924
0.00200046
0.00200692
0.00201018
0.00203922
0.00206343
0.00215566
0.00219503
0.00233319
0.00239606
0.00256788
0.00263013
0.00278945
0.00282107
0.00288358
0.00286893
0.00283507
0.00274116
0.00267053
0.00251095
0.00240705
0.00232022
0.00229855
0.00229914
0.00233549
0.00243096
0.00257125
0.0028446
0.00322875
0.00370521
0.00407482
0.00443688
0.00451381
0.00448068
0.00438524
0.00412911
0.00389374
0.00369482
0.00350967
0.00334777
0.00313707
0.00292765
0.00274835
0.00270291
0.00269153
0.00274854
0.00279388
0.00292439
0.00297961
0.00310902
0.00317259
0.00330877
0.00344768
0.00375355
0.00413559
0.00498648
0.00623437
0.00878596
0.0141248
0.0214241
0.0391194
0.0673676
0.119447
0.194091
0.402638
0.575377
0.613081
0.556244
0.428035
0.412351
0.406608
0.388705
0.326199
0.268301
0.23468
0.210154
0.219852
0.225278
0.235597
0.244123
0.245198
0.2394
0.235014
0.220833
0.219777
0.212257
0.213892
0.203633
0.203864
0.188184
0.191694
0.180531
0.19563
0.189722
0.205379
0.187441
0.190713
0.168631
0.15168
0.133904
0.110569
0.0929167
0.0708453
0.0641303
0.0519172
0.0485156
0.0431103
0.0404785
0.0397384
0.0382482
0.0394329
0.038317
0.0419451
0.0404492
0.0463961
0.0461407
0.0565048
0.0589909
0.0954882
0.119615
0.218921
0.000222701
0.000230247
0.000284755
0.000303945
0.000329647
0.000326177
0.000325248
0.000308927
0.000306696
0.000303182
0.000321911
0.000339516
0.00040237
0.000429328
0.000491988
0.000504323
0.00052705
0.000516798
0.00052318
0.000511112
0.0005166
0.000514145
0.000540649
0.000566479
0.000634058
0.000699791
0.000771907
0.000796347
0.000816219
0.000803921
0.000810945
0.000790293
0.000799599
0.000790917
0.000808012
0.000807788
0.000847166
0.000849039
0.00086653
0.000862514
0.000866068
0.000867332
0.000887818
0.000923861
0.000993134
0.00101414
0.00104765
0.00105113
0.00104278
0.00098682
0.00092271
0.000862833
0.000846105
0.000829764
0.000843859
0.000860836
0.000943924
0.000983706
0.00105899
0.00108167
0.0011138
0.00114583
0.00115315
0.00119445
0.00121173
0.00126304
0.0012785
0.00131531
0.00135106
0.00135237
0.00137534
0.00137579
0.00140418
0.00141702
0.00148086
0.0015118
0.00161614
0.00164248
0.00168115
0.00167368
0.00168157
0.00166786
0.00164541
0.00161076
0.00158804
0.00157601
0.00156408
0.00156467
0.0015811
0.00161459
0.00165082
0.00166256
0.00166233
0.00165126
0.00163778
0.00163663
0.00164724
0.00167725
0.00175978
0.00186467
0.00215298
0.00245888
0.00290213
0.00398242
0.00494348
0.00625725
0.00794512
0.00956562
0.0109253
0.0117796
0.0118181
0.0116812
0.0111423
0.0105148
0.00973457
0.00876342
0.00783054
0.00677461
0.0059325
0.00516728
0.00451911
0.00392327
0.00357748
0.00324778
0.0030674
0.00302249
0.00303471
0.00307537
0.00321861
0.00342665
0.00386534
0.00447332
0.00582921
0.00752832
0.0110772
0.0162302
0.0249365
0.0448816
0.0655088
0.115606
0.180135
0.28511
0.461948
0.59225
0.620701
0.547902
0.423706
0.388001
0.404633
0.405666
0.381485
0.315673
0.26356
0.225552
0.20005
0.197699
0.19501
0.214482
0.223477
0.229627
0.23333
0.232298
0.230306
0.230411
0.219484
0.227921
0.209749
0.210734
0.193064
0.196444
0.18212
0.196612
0.186853
0.203878
0.187122
0.184505
0.17188
0.138316
0.130356
0.101604
0.0907432
0.0691702
0.0638999
0.0521737
0.0454215
0.0422738
0.0348038
0.0341875
0.031627
0.0347459
0.0325017
0.0380777
0.0369401
0.0436409
0.0430514
0.0479072
0.0491011
0.0617072
0.0749497
0.107421
0.0029142
0.00312558
0.00341912
0.00350597
0.00361454
0.00357938
0.00358826
0.00353382
0.00354742
0.0035815
0.00377191
0.00393671
0.00441211
0.00464151
0.00497849
0.00503513
0.00508619
0.00503976
0.00504534
0.00501749
0.00508627
0.00519697
0.00551841
0.00580438
0.00610291
0.00640689
0.0064825
0.00654807
0.00655045
0.00648225
0.00648339
0.00641212
0.00642564
0.00640704
0.0064294
0.00644328
0.00653726
0.00653304
0.00657865
0.00657951
0.00662333
0.00678299
0.00686512
0.00697768
0.00703495
0.00704742
0.00705676
0.00699737
0.00666483
0.00644943
0.00609464
0.0059317
0.00585048
0.00578569
0.00588441
0.00595515
0.00619929
0.00632322
0.00645123
0.00660671
0.00661421
0.00669046
0.00667499
0.00677529
0.00674527
0.00684026
0.00682635
0.0068421
0.00687811
0.00681754
0.00681217
0.00672048
0.00668301
0.00655928
0.00646366
0.00636655
0.00616404
0.00596794
0.00576863
0.00533708
0.00505777
0.00450922
0.00407399
0.00363724
0.00328238
0.00299422
0.00279617
0.00262406
0.00255325
0.00253463
0.00254984
0.00258256
0.00269973
0.00285962
0.00306344
0.0035174
0.00387096
0.00450295
0.00543275
0.0064277
0.00838971
0.0101478
0.0134569
0.0170534
0.0208857
0.025811
0.0296293
0.0333458
0.0362337
0.0365678
0.036189
0.0350696
0.0324997
0.0294581
0.0265932
0.0233002
0.0204474
0.0173338
0.0144295
0.0122015
0.0101007
0.00849346
0.00745331
0.00650777
0.00584842
0.00573342
0.00580438
0.00606352
0.00680752
0.00780354
0.0101173
0.0127404
0.0181555
0.0248231
0.0358518
0.0562699
0.0782506
0.129109
0.182153
0.28077
0.420699
0.514588
0.608758
0.613012
0.512696
0.400693
0.346153
0.360304
0.406186
0.422283
0.388628
0.338703
0.276169
0.226191
0.198104
0.185156
0.185854
0.205579
0.209491
0.219068
0.227589
0.232241
0.238105