/*--------------------------------*- C++ -*----------------------------------*\
| =========                 |                                                 |
| \\      /  F ield         | OpenFOAM: The Open Source CFD Toolbox           |
|  \\    /   O peration     | Version:  2.4.0                                 |
|   \\  /    A nd           | Web:      www.OpenFOAM.org                      |
|    \\/     M anipulation  |                                                 |
\*---------------------------------------------------------------------------*/
FoamFile
{
    version     2.0;
    format      ascii;
    class       volScalarField;
    location    "0.58";
    object      p;
}
// * * * * * * * * * * * * * * * * * * * * * * * * * * * * * * * * * * * * * //

dimensions      [0 2 -2 0 0 0 0];

internalField   nonuniform List<scalar> 
8800
(
107.732
95.3825
87.9793
84.4481
82.5683
81.1543
79.9612
78.8635
77.8435
76.8443
75.9362
74.9924
74.0934
73.1965
72.3925
71.5321
70.8287
70.089
69.4836
68.8926
104.619
95.0287
88.1489
84.5619
82.6283
81.1793
79.9683
78.8645
77.842
76.8409
75.9338
74.9908
74.0906
73.1938
72.392
71.5279
70.8297
70.0833
69.4853
68.8146
102.653
95.1057
88.7522
84.9381
82.7959
81.2571
80.0146
78.8969
77.8666
76.8576
75.945
74.996
74.0921
73.191
72.3916
71.5176
70.8322
70.0683
69.5486
68.85
101.117
95.166
89.3408
85.3634
82.9793
81.3437
80.0771
78.9512
77.9153
76.8972
75.9733
75.0143
74.1044
73.1946
72.3938
71.5084
70.8214
70.0563
69.6186
69.0877
99.8664
95.1388
89.8205
85.7716
83.1483
81.4099
80.1251
79.0064
77.9711
76.9505
76.0087
75.0442
74.1163
73.2119
72.3834
71.5119
70.7983
70.0447
69.546
69.4332
98.8815
95.0401
90.1916
86.121
83.2999
81.4568
80.151
79.0483
78.0223
77.0032
76.0438
75.0747
74.133
73.2178
72.3861
71.5015
70.7673
70.0621
69.5561
69.9278
98.1224
94.9274
90.4624
86.4043
83.4406
81.4839
80.1617
79.078
78.0643
77.0462
76.0771
75.1
74.1437
73.2318
72.3673
71.5144
70.7529
70.0701
69.6675
70.3278
97.5719
94.826
90.6479
86.6195
83.5647
81.5059
80.1549
79.0994
78.0944
77.0811
76.0992
75.1227
74.1544
73.231
72.3746
71.4983
70.7443
70.119
69.7061
70.565
97.2144
94.7521
90.7618
86.7644
83.6527
81.5177
80.1505
79.1095
78.1172
77.1026
76.1193
75.1319
74.1634
73.2385
72.3724
71.5292
70.7561
70.1212
69.7897
70.7239
97.0399
94.7082
90.8201
86.8365
83.6977
81.5245
80.1467
79.1136
78.1291
77.1164
76.126
75.143
74.1673
73.2414
72.379
71.5271
70.7638
70.1873
69.8272
70.7661
97.0393
94.7085
90.82
86.8377
83.6979
81.527
80.1447
79.1145
78.1291
77.1176
76.1278
75.1439
74.1708
73.2479
72.3827
71.5485
70.7834
70.179
69.8646
70.8607
97.2133
94.7489
90.7653
86.7654
83.6542
81.5212
80.1498
79.1078
78.1195
77.1072
76.1185
75.1436
74.1718
73.2526
72.3973
71.5626
70.7927
70.2144
69.8806
70.8494
97.5708
94.8242
90.6509
86.621
83.5665
81.5116
80.1522
79.0986
78.0983
77.087
76.1026
75.1348
74.1715
73.261
72.4086
71.5849
70.8178
70.2332
69.8695
70.7896
98.1204
94.9255
90.4666
86.4073
83.4388
81.4941
80.1564
79.0774
78.0694
77.0562
76.0768
75.1232
74.1668
73.2655
72.4265
71.6115
70.8447
70.265
69.8462
70.646
98.8781
95.0377
90.1992
86.122
83.2991
81.467
80.1477
79.0462
78.03
77.0155
76.0468
75.1014
74.1602
73.2692
72.4422
71.6405
70.8807
70.305
69.8376
70.3977
99.8613
95.1364
89.8312
85.7723
83.1449
81.424
80.122
79.0022
77.9817
76.9656
76.0105
75.0778
74.1515
73.2658
72.4602
71.6662
70.9264
70.3534
69.8555
70.098
101.111
95.1633
89.3536
85.3632
82.9745
81.3605
80.0738
78.9464
77.9274
76.9151
75.9757
75.0528
74.1424
73.262
72.474
71.6863
70.9706
70.3963
69.9134
69.787
102.647
95.101
88.7662
84.9384
82.7899
81.2746
80.0131
78.8911
77.8801
76.8766
75.9495
75.0353
74.137
73.2606
72.4839
71.7001
71.0043
70.4288
69.9689
69.6346
104.614
95.0228
88.1627
84.5625
82.6224
81.1962
79.9676
78.8591
77.8557
76.8602
75.9399
75.0302
74.1376
73.265
72.4899
71.7097
71.0215
70.4461
69.9652
69.5521
107.728
95.3765
87.9925
84.4484
82.5635
81.1701
79.9605
78.8592
77.8567
76.8634
75.9431
75.0316
74.1404
73.2684
72.4924
71.7124
71.0268
70.4492
69.9663
69.6746
68.9954
68.9433
68.7588
68.5582
68.4418
68.429
68.4877
68.5828
68.6803
68.7745
68.8405
68.8741
68.8701
68.8349
68.7795
68.7299
68.6862
68.6485
68.5926
68.5103
68.3968
68.2576
68.12
68.0201
67.9854
68.0284
68.1494
68.3168
68.5042
68.6761
68.8276
68.9557
69.07
69.1602
69.247
69.3039
69.3576
69.3675
69.356
69.2732
69.1284
68.8507
68.4735
67.9578
67.3594
66.7092
66.1611
65.7758
65.6499
65.7777
66.1863
66.7676
67.4731
68.1364
68.7312
69.1084
69.2883
69.2258
69.015
68.5985
68.0832
67.4265
66.7724
66.051
65.4386
64.8631
64.5383
64.3983
64.6691
65.2064
66.1018
67.1928
68.5667
70.0578
71.7025
73.2774
74.8415
76.0177
76.703
76.6611
75.9488
74.3339
72.0832
68.6659
65.8465
62.5818
59.9105
57.2696
54.8977
52.9664
51.1506
50.1702
49.1352
48.664
47.9514
47.4517
46.836
46.4271
46.1887
46.2473
46.686
47.4756
48.8097
50.7557
53.2466
56.4885
60.0989
64.0441
67.9082
71.4657
74.4473
76.6734
77.9831
78.6168
78.4988
77.738
76.5039
74.7283
72.5834
70.0402
67.3738
64.7354
61.8729
59.2146
56.4509
53.9405
51.8865
49.8587
48.0526
46.7676
45.7434
44.9679
44.644
44.7786
45.1216
45.8728
47.0317
48.2184
49.6239
51.2007
52.8352
54.6561
56.3182
57.8522
59.3547
60.5375
61.4601
61.7416
61.6945
61.191
59.8573
58.0319
56.0957
53.6162
50.5774
47.6085
44.7948
41.8745
39.2959
37.173
35.2929
33.9428
33.0526
32.6822
32.8853
33.654
35.0131
36.7052
38.9179
41.7794
44.8319
48.2749
52.5934
57.228
61.5695
65.8676
69.8218
73.6054
77.0318
79.8686
82.4017
84.6097
86.5899
88.0688
89.5292
90.6307
91.3046
92.1654
92.372
92.8096
92.9278
92.8837
92.4962
91.857
91.1688
90.0749
88.1648
81.6324
67.8902
24.1542
68.7296
68.7617
68.7596
68.6409
68.5006
68.4212
68.4188
68.4975
68.5961
68.7158
68.7989
68.8509
68.8591
68.8344
68.7823
68.7291
68.6701
68.6201
68.5586
68.4833
68.3928
68.2794
68.17
68.0873
68.0574
68.0836
68.1832
68.3182
68.4916
68.6503
68.8021
68.9282
69.0447
69.1241
69.2174
69.2522
69.3088
69.2926
69.2747
69.1643
69.0223
68.7354
68.3937
67.915
67.4059
66.8403
66.37
66.0394
65.9216
66.029
66.3734
66.8563
67.491
68.056
68.5985
68.9345
69.1195
69.0527
68.853
68.4434
67.9546
67.322
66.7105
66.0381
65.4922
64.9843
64.7269
64.6047
64.8854
65.3676
66.2515
67.3095
68.6546
70.0922
71.6615
73.1983
74.6378
75.7278
76.3138
76.2262
75.6064
74.025
71.9324
68.98
66.0375
63.2502
60.4637
58.0775
55.6656
53.8197
52.0231
50.9268
49.8772
49.228
48.5409
47.9616
47.364
46.9577
46.6659
46.6734
47.0016
47.748
48.998
50.8737
53.3004
56.4143
59.9178
63.7334
67.4995
70.8749
73.7691
75.9768
77.3207
78.0008
77.923
77.2813
76.0465
74.3212
72.3678
69.9487
67.445
65.0192
62.3413
59.8261
57.4725
55.097
53.1025
51.3988
49.6946
48.3873
47.5482
46.9978
46.7058
46.8434
47.2338
47.8521
48.8599
50.0453
51.3576
52.877
54.3936
56.1221
57.6747
59.1273
60.3297
61.3048
61.9923
61.7952
61.1999
60.2388
58.4432
55.8746
53.1934
50.1156
46.4209
42.6605
39.238
35.95
32.9201
30.4835
28.5125
27.1681
26.4081
26.0902
26.5118
27.3128
28.75
31.0541
33.6584
36.7574
40.4063
44.5682
49.4727
54.8414
60.0597
65.0674
69.5132
73.6858
77.3178
80.3108
82.7662
84.972
86.7559
87.8755
89.1358
89.947
90.1639
90.3266
90.8273
90.7397
90.2325
89.8906
88.735
87.7867
86.2506
84.3295
81.9219
72.2196
57.7782
13.3156
68.6628
68.747
68.8869
68.815
68.6137
68.431
68.3411
68.4001
68.4975
68.6525
68.7591
68.8317
68.8547
68.8385
68.7833
68.7279
68.6542
68.5932
68.5285
68.454
68.3854
68.2961
68.2125
68.1518
68.13
68.1434
68.228
68.325
68.4802
68.6169
68.7616
68.8812
69.0035
69.0623
69.1706
69.1693
69.2383
69.1808
69.172
69.023
68.9087
68.603
68.3263
67.8815
67.4641
66.9988
66.5896
66.3302
66.2008
66.2938
66.5646
66.9553
67.4886
67.9538
68.4401
68.7017
68.9085
68.8096
68.6554
68.2467
67.8154
67.2265
66.6748
66.085
65.6131
65.1944
64.9802
64.9046
65.1898
65.6752
66.4676
67.5117
68.7154
70.0885
71.5383
72.9132
74.1719
75.0578
75.6224
75.516
74.7685
73.4443
71.4476
69.0012
66.1574
63.5691
60.8623
58.5802
56.2906
54.4731
52.7578
51.641
50.5422
49.8505
49.0895
48.5267
47.9577
47.5204
47.2765
47.2202
47.5109
48.2819
49.4546
51.2674
53.6558
56.6158
60.0117
63.5145
67.0252
70.1856
72.86
74.9844
76.2488
76.9575
76.9426
76.3509
75.3707
73.7343
72.0027
69.9101
67.5016
65.2687
62.943
60.5392
58.4271
56.3966
54.5033
53.0221
51.5577
50.299
49.4928
49.071
48.8758
48.916
49.2628
49.9331
50.8647
52.0219
53.3209
54.84
56.3184
57.9068
59.4316
60.7489
61.6954
62.3652
62.6716
62.1918
61.0393
59.5445
57.2531
54.0504
50.5049
46.6331
42.3818
37.9526
33.8145
30.0349
26.6862
23.8857
21.6626
20.2941
19.5963
19.4315
20.1748
21.2236
22.7292
25.3478
28.351
31.6069
35.6173
40.6553
46.3333
52.2376
58.3174
64.108
69.0554
73.5312
77.5227
80.509
82.8981
84.9324
86.636
87.6975
88.5603
89.2396
89.0542
88.7777
89.1134
88.3688
87.7098
86.6847
85.494
83.9674
81.8917
78.7152
76.8678
64.3911
51.0105
16.4209
68.7835
68.8208
68.8903
68.7019
68.4415
68.2469
68.1592
68.2612
68.3831
68.5865
68.7173
68.8142
68.8454
68.8356
68.7752
68.7203
68.6295
68.5671
68.4979
68.4246
68.3728
68.3077
68.2511
68.2104
68.1989
68.2026
68.2835
68.3343
68.4725
68.5777
68.7116
68.8146
68.9392
68.9679
69.1013
69.0483
69.1422
69.0399
69.0471
68.8635
68.7766
68.465
68.2716
67.8576
67.5305
67.1586
66.8078
66.6221
66.4879
66.5602
66.7667
67.0582
67.4936
67.8417
68.2639
68.4491
68.65
68.5376
68.4131
68.0529
67.659
67.1718
66.6619
66.205
65.7767
65.4947
65.3115
65.2995
65.5624
66.0507
66.731
67.7215
68.7428
70.0164
71.2152
72.4277
73.4314
74.2207
74.639
74.5054
73.8
72.6305
70.8427
68.7217
66.131
63.6968
61.2155
59.0122
56.861
55.136
53.4281
52.362
51.1951
50.4718
49.7694
49.1433
48.6696
48.2027
47.9811
47.9772
48.2653
49.0087
50.2285
51.9511
54.2978
57.0279
60.1442
63.3145
66.4954
69.4318
71.807
73.7937
74.9648
75.5817
75.723
75.0829
74.3821
73.0479
71.4214
69.7484
67.6311
65.4913
63.5494
61.403
59.3776
57.6338
55.8579
54.3581
53.3419
52.2805
51.4773
51.0996
51.0061
51.1152
51.4896
52.1978
53.1799
54.2667
55.6325
57.1722
58.596
60.025
61.4152
62.6186
63.3005
63.6768
63.6527
62.9514
61.3482
59.278
56.4442
52.7055
48.3681
43.6301
38.92
33.9019
29.2547
25.1485
21.4134
18.3832
15.9323
14.3677
13.451
13.1919
14.2883
15.7741
17.5303
20.0544
23.1785
26.7038
30.7534
36.1545
42.9158
49.7124
56.4101
62.7561
68.4863
73.3159
77.4239
80.4427
82.89
84.8007
86.3944
87.2568
87.8817
88.3772
87.9245
87.5606
87.2558
86.3267
85.4698
84.1447
82.89
80.0264
77.9668
73.0725
73.0583
58.3089
45.8645
20.9013
70.3175
70.0203
69.0957
68.3082
67.8612
67.7132
67.7624
68.0189
68.2198
68.4928
68.6548
68.7873
68.8347
68.8408
68.7817
68.7369
68.6243
68.5591
68.4871
68.4043
68.3533
68.3013
68.2717
68.2469
68.2389
68.2397
68.3274
68.3406
68.4547
68.5307
68.6581
68.7342
68.8571
68.8508
69.0104
68.9121
69.0272
68.8809
68.9238
68.7064
68.6674
68.3494
68.2268
67.8467
67.6055
67.2981
67.0078
66.8873
66.7488
66.8173
66.9479
67.1722
67.49
67.7518
68.061
68.2265
68.3587
68.274
68.1534
67.8757
67.5153
67.147
66.6803
66.3697
65.993
65.8316
65.6992
65.8279
65.9605
66.4561
66.9969
67.8668
68.719
69.8054
70.7142
71.7925
72.5422
73.1805
73.3705
73.3052
72.7016
71.5876
70.1507
68.1995
66.0418
63.8581
61.556
59.5927
57.5509
55.9357
54.3156
53.1532
52.1233
51.1979
50.6271
49.9004
49.4874
49.1246
48.8544
48.9665
49.2873
50.0318
51.2679
52.9158
55.1026
57.5803
60.3505
63.2179
65.9715
68.5596
70.6613
72.3418
73.5102
74.0469
74.3243
73.8329
73.2554
72.2836
70.8151
69.3796
67.7244
65.8427
64.1136
62.3557
60.5154
58.9135
57.4891
56.1698
55.2344
54.451
53.7529
53.3544
53.3886
53.6117
54.1204
54.7943
55.8511
56.9823
58.205
59.7018
61.0242
62.266
63.5168
64.5815
65.106
65.2965
65.0634
64.1479
62.3058
59.7297
56.3022
52.0475
47.0658
41.6211
36.3085
30.9067
25.7959
21.2976
17.3356
14.0425
11.5864
9.94787
8.801
8.66738
9.69166
11.2397
13.328
15.8898
18.7358
22.2228
26.2351
31.7539
39.1598
46.7811
54.4663
61.5699
67.7302
72.8587
77.2335
80.4318
82.7271
84.5093
85.894
86.6177
86.9581
87.3633
86.8921
86.3305
85.8326
84.7749
82.9436
81.477
80.2574
76.2364
75.1426
67.5057
68.649
53.669
40.3919
22.8564
71.3461
70.8874
69.3252
68.0842
67.4131
67.2455
67.3871
67.7761
68.0804
68.423
68.6201
68.7721
68.8336
68.8348
68.7817
68.7417
68.6112
68.5429
68.4721
68.3868
68.3407
68.2939
68.2944
68.2855
68.272
68.2737
68.3677
68.345
68.4423
68.4828
68.6052
68.6603
68.7505
68.7323
68.8939
68.7699
68.9003
68.7306
68.7933
68.5895
68.5628
68.2713
68.1943
67.8538
67.667
67.4324
67.1511
67.1289
66.9437
67.0432
67.0864
67.2739
67.4624
67.6795
67.8481
68.0341
68.0843
68.0247
67.9331
67.7013
67.4092
67.1123
66.7277
66.5135
66.2306
66.1104
66.0529
66.198
66.311
66.7714
67.1801
67.9468
68.5763
69.4839
70.178
71.0972
71.6893
72.0981
72.3252
72.0867
71.6353
70.5832
69.3515
67.7503
65.8519
64.0439
61.9608
60.1967
58.4353
56.801
55.4253
54.1898
53.2465
52.3214
51.7357
51.0643
50.5696
50.2779
50.0904
50.22
50.6134
51.338
52.531
54.0483
55.9913
58.2045
60.562
63.0362
65.3826
67.598
69.4861
70.9274
72.0394
72.5897
72.8857
72.6731
72.1405
71.4175
70.3023
69.0479
67.7878
66.2389
64.6838
63.2818
61.8
60.4169
59.3015
58.2415
57.2677
56.6691
56.2659
55.9194
56.0413
56.388
56.8636
57.5837
58.589
59.6316
60.7739
62.1239
63.4012
64.5431
65.5964
66.6133
67.2014
67.3183
67.0255
65.9323
63.8455
60.8518
56.9033
52.1236
46.4991
40.5443
34.5767
28.5606
22.9059
17.8071
13.5116
10.0383
7.51032
5.81711
4.8405
4.97745
5.72922
7.48736
9.91766
12.6642
15.5604
18.6194
22.3508
27.9944
35.6411
43.7582
52.3131
60.3187
66.9855
72.4929
76.7673
80.2037
82.4255
84.1128
85.2037
86.023
86.284
86.56
85.8646
85.1099
84.5516
82.7207
80.995
78.6535
78.609
72.5431
71.9235
62.7607
58.589
48.0676
35.8997
24.0085
71.9271
71.4424
69.5737
68.0511
67.1718
66.9147
67.0609
67.5205
67.9168
68.3296
68.5932
68.7831
68.8626
68.8717
68.8156
68.7736
68.6302
68.5496
68.4779
68.3738
68.3289
68.2785
68.2816
68.2839
68.266
68.2731
68.3791
68.3367
68.4287
68.4437
68.5687
68.5978
68.6623
68.6337
68.773
68.6409
68.7279
68.6
68.6315
68.5076
68.428
68.2476
68.1329
67.8875
67.7178
67.5276
67.2901
67.3
67.1057
67.2129
67.203
67.343
67.4586
67.6074
67.6989
67.8728
67.883
67.8094
67.7938
67.5591
67.353
67.1085
66.7923
66.6588
66.4377
66.3428
66.3129
66.4955
66.5498
66.9717
67.3005
67.8834
68.4523
69.1041
69.74
70.4191
70.9486
71.1089
71.4016
71.0585
70.6265
69.8395
68.6434
67.379
65.7767
64.1936
62.4025
60.8195
59.309
57.7803
56.5977
55.4373
54.4887
53.7045
53.0432
52.4952
51.8995
51.605
51.5576
51.6388
52.0429
52.7341
53.8019
55.1218
56.7995
58.6647
60.6342
62.7484
64.7883
66.6777
68.3506
69.6328
70.6114
71.2836
71.5613
71.4949
71.1787
70.6359
69.843
68.8705
67.8273
66.6047
65.4081
64.2286
63.0611
62.0072
61.0683
60.1493
59.3565
58.9478
58.7191
58.4615
58.6019
59.0387
59.4945
60.2054
61.1968
62.1446
63.1812
64.4161
65.7035
66.7966
67.7978
68.831
69.51
69.6966
69.3318
68.0815
65.7993
62.562
58.1736
52.8625
46.5986
40.0138
33.2991
26.51
20.0813
14.3771
9.61328
5.85
3.10628
1.1387
0.275537
0.375724
1.38414
3.77182
6.89999
9.97501
12.9784
16.076
19.4848
24.9133
32.6525
41.3504
50.3961
59.0905
66.0251
72.0767
76.4068
80.0042
82.1674
83.9248
84.895
85.5698
85.6419
85.4167
84.9919
83.9079
83.2349
80.4219
80.0425
76.5867
77.1373
70.1439
66.6583
59.0642
49.5681
44.4733
34.7225
26.6708
72.2841
71.8183
69.8188
68.1727
67.1453
66.7811
66.8682
67.3504
67.7832
68.2408
68.5437
68.7619
68.8518
68.8631
68.8233
68.7711
68.6162
68.5329
68.4663
68.3613
68.3173
68.2764
68.2824
68.2863
68.2621
68.283
68.392
68.3377
68.4211
68.413
68.5165
68.5384
68.5572
68.5566
68.6519
68.5469
68.5999
68.517
68.4916
68.4236
68.2951
68.1988
68.0835
67.9081
67.7762
67.6255
67.4321
67.4647
67.2652
67.3554
67.3315
67.4086
67.4665
67.5755
67.6133
67.7549
67.7655
67.6627
67.7169
67.494
67.3373
67.1467
66.8761
66.8053
66.6073
66.5464
66.5374
66.7131
66.7671
67.0858
67.4018
67.8067
68.3749
68.7968
69.3892
69.8449
70.3095
70.348
70.5654
70.2593
69.794
69.2517
68.125
67.0684
65.8315
64.3267
62.8955
61.4947
60.1
58.8182
57.7044
56.6187
55.7276
55.0133
54.2939
53.7866
53.2608
52.9849
52.9985
53.0508
53.4186
54.0086
54.8934
55.9866
57.377
58.9442
60.6424
62.4651
64.2136
65.8344
67.2955
68.4471
69.3421
70.053
70.3393
70.4367
70.3182
69.936
69.3751
68.7336
67.9436
67.0079
66.1706
65.2726
64.288
63.5011
62.7817
61.9682
61.4202
61.178
61.0434
60.9164
61.0693
61.558
61.9947
62.6178
63.5975
64.516
65.4919
66.6523
67.8722
68.991
70.0562
71.1098
71.8386
72.1997
71.8455
70.5129
68.1714
64.6895
59.9147
54.0537
47.1745
39.8774
32.3843
24.906
17.8855
11.7169
6.62592
2.61497
-0.399954
-2.71304
-3.81938
-4.20993
-2.5623
0.39486
3.94739
7.57392
10.8728
13.9552
17.354
22.7512
30.4233
39.5664
48.8242
58.2233
65.4782
71.8944
76.352
79.8041
82.1292
83.5106
84.5225
84.7981
85.0814
84.3233
84.2104
82.5217
82.2852
79.1052
78.6515
75.2264
73.9425
68.4449
62.3031
57.002
48.6061
46.5499
37.6825
31.3444
72.4893
72.0555
70.0195
68.2776
67.1564
66.7068
66.7402
67.2062
67.6806
68.1788
68.5224
68.7808
68.8792
68.9304
68.8491
68.7944
68.6308
68.5178
68.4552
68.3484
68.2941
68.2636
68.2619
68.281
68.2318
68.261
68.3689
68.3283
68.3939
68.4005
68.4714
68.4904
68.4711
68.4915
68.5473
68.4754
68.4987
68.4187
68.388
68.342
68.1919
68.1581
68.029
67.916
67.816
67.7038
67.5716
67.603
67.4072
67.483
67.4443
67.469
67.5202
67.5594
67.6092
67.6913
67.6762
67.5964
67.6348
67.4812
67.3161
67.2145
66.9514
66.9531
66.7668
66.7164
66.7585
66.8534
66.9633
67.1477
67.4873
67.7341
68.2877
68.5752
69.0217
69.3803
69.6475
69.7295
69.81
69.5445
69.1665
68.6911
67.7424
66.8381
65.9008
64.4816
63.3723
62.1481
60.7955
59.7957
58.7287
57.6864
56.9424
56.2392
55.4901
55.0713
54.6134
54.315
54.3637
54.3072
54.5927
55.0935
55.7642
56.7135
57.8565
59.1772
60.6343
62.1424
63.6111
65.0341
66.3231
67.3675
68.2084
68.9066
69.2876
69.5012
69.5657
69.3545
69.0066
68.7009
68.1346
67.4695
66.8963
66.2748
65.4859
64.8556
64.4027
63.8118
63.3608
63.3067
63.2629
63.1493
63.4357
63.8874
64.2662
64.9524
65.8461
66.6704
67.5968
68.693
69.8752
70.9647
72.1402
73.3083
74.1642
74.7356
74.5048
73.1059
70.6778
66.9539
61.8358
55.4679
48.0525
40.1439
31.9652
23.9644
16.5491
10.1314
4.77705
0.70383
-2.45748
-4.78085
-6.07309
-6.32019
-4.87071
-1.99079
1.68549
5.51834
9.09501
12.3214
15.845
21.4598
29.1735
38.6894
48.1444
57.5976
65.3184
71.4908
76.2334
79.2691
81.8753
82.9344
84.291
84.1936
84.6412
83.6964
83.4895
81.8705
81.2472
78.4128
76.9114
73.4161
69.8511
66.7817
61.1323
57.8726
52.9472
50.8436
42.8787
36.8775
72.5959
72.2058
70.1697
68.3928
67.2173
66.7139
66.7148
67.1625
67.6514
68.1369
68.5044
68.7715
68.8804
68.912
68.8306
68.7689
68.6204
68.4967
68.4407
68.3436
68.2997
68.2969
68.2565
68.2923
68.2282
68.2531
68.3539
68.3077
68.3638
68.3706
68.4113
68.4469
68.3782
68.4329
68.4447
68.4118
68.402
68.3413
68.3013
68.2689
68.1332
68.1141
68.0203
67.9074
67.8597
67.7421
67.6755
67.679
67.5148
67.5569
67.5393
67.5073
67.576
67.5533
67.6305
67.6465
67.6041
67.5488
67.5591
67.4571
67.3011
67.2523
67.0193
67.0397
66.8991
66.7935
66.9443
66.8935
67.0683
67.1812
67.4395
67.6573
68.0773
68.2688
68.5771
68.9705
68.9785
69.183
69.1553
68.8796
68.6774
68.1976
67.4035
66.7125
65.8929
64.6598
63.7797
62.6856
61.4832
60.6377
59.6923
58.712
58.0755
57.3851
56.6809
56.3022
55.8763
55.5777
55.5556
55.4258
55.6301
56.0275
56.4989
57.3231
58.224
59.2796
60.525
61.7132
62.94
64.2291
65.3623
66.3539
67.2238
67.9527
68.3955
68.7341
68.9668
68.9357
68.8012
68.687
68.3992
67.9574
67.5772
67.2102
66.6143
66.1766
65.9111
65.5385
65.2386
65.2231
65.2318
65.2063
65.52
66.0515
66.4139
66.9165
67.8213
68.5806
69.3723
70.4767
71.5855
72.7082
74.0511
75.3619
76.4309
77.0586
76.7872
75.3788
72.8271
69.0105
63.7248
56.9725
49.077
40.718
32.0723
23.7478
15.9136
9.24305
3.65758
-0.611431
-3.82607
-6.10031
-7.27581
-7.37996
-6.11005
-3.30615
0.235959
4.09361
7.75814
11.1543
15.0255
21.0108
29.0568
38.5196
48.3686
57.2699
65.4053
71.1266
76.2503
79.1929
81.8546
82.9435
84.1577
83.8789
84.2149
83.3831
82.7951
81.3467
79.8559
77.582
75.2798
72.2443
68.979
66.6534
62.3527
60.5024
56.5475
53.6454
46.9194
41.2441
72.6508
72.2291
70.2034
68.4128
67.2449
66.7236
66.7257
67.1672
67.659
68.127
68.5104
68.7793
68.8923
68.9109
68.8314
68.7721
68.6226
68.4904
68.4372
68.3426
68.2938
68.2666
68.2389
68.2707
68.2105
68.242
68.3242
68.2804
68.3316
68.328
68.3668
68.4032
68.321
68.3762
68.3742
68.3486
68.3352
68.2755
68.2512
68.2198
68.0868
68.0947
67.9996
67.918
67.8788
67.7774
67.7452
67.7232
67.579
67.6196
67.6048
67.5236
67.6187
67.5347
67.6363
67.6104
67.5333
67.5208
67.5058
67.4123
67.3029
67.2251
67.0824
67.065
66.9745
66.8219
67.0498
66.8897
67.102
67.1645
67.3032
67.5719
67.7813
67.9966
68.1958
68.542
68.4772
68.687
68.633
68.3527
68.2815
67.8123
67.1213
66.6586
65.8253
64.9018
64.1018
63.1496
62.1809
61.3874
60.5688
59.7172
59.104
58.4635
57.8651
57.4167
57.0241
56.7117
56.5817
56.4273
56.5291
56.7997
57.1046
57.7377
58.398
59.2071
60.2574
61.2259
62.2888
63.4789
64.4611
65.4072
66.3393
67.0509
67.5985
68.0769
68.4337
68.6234
68.6949
68.7442
68.6606
68.4442
68.2589
68.0474
67.7445
67.4482
67.3265
67.1198
66.9211
67.003
67.0332
67.0909
67.4413
67.8641
68.2948
68.7469
69.4909
70.25
70.9561
72.0645
73.2643
74.359
75.6043
76.9095
78.0291
78.6441
78.2125
76.8375
74.4778
70.6643
65.212
58.2574
50.2188
41.6975
32.9124
24.4528
16.4878
9.57015
3.7926
-0.715025
-4.22831
-6.50626
-7.7085
-7.83558
-6.49714
-3.89906
-0.490756
3.31588
6.9969
10.6582
15.0622
21.393
30.0075
39.2112
49.3846
57.6498
65.9998
71.5749
76.6914
79.5533
81.8858
83.0398
83.9265
83.6947
83.7557
82.9992
82.1508
80.7332
78.9908
77.0448
74.3913
72.3906
69.8898
67.8346
64.6964
62.8807
59.0919
55.3969
49.76
44.2591
72.6215
72.2103
70.1801
68.4341
67.295
66.8016
66.8449
67.2854
67.7595
68.1896
68.5439
68.7843
68.8831
68.8666
68.7905
68.7329
68.5818
68.4615
68.4148
68.3344
68.2884
68.2524
68.2423
68.2667
68.2064
68.2405
68.3032
68.2612
68.3002
68.2903
68.3248
68.345
68.2717
68.3106
68.3105
68.286
68.2724
68.214
68.2133
68.1736
68.084
68.069
68.0023
67.9285
67.8719
67.8139
67.7773
67.7424
67.6247
67.6641
67.6317
67.572
67.622
67.5419
67.6372
67.5802
67.487
67.5194
67.4459
67.3933
67.2955
67.1992
67.1408
67.0658
67.001
66.856
67.0433
66.8741
67.0461
67.1072
67.1586
67.4673
67.5153
67.7349
67.8884
68.0925
68.1448
68.2069
68.2322
67.9532
67.9244
67.513
66.9235
66.622
65.8247
65.1577
64.4504
63.5765
62.8647
62.0923
61.3264
60.6775
59.9497
59.4741
58.9714
58.4421
58.0521
57.7271
57.5086
57.2997
57.2904
57.4016
57.5657
58.0123
58.4858
59.1037
59.952
60.694
61.6008
62.6574
63.5182
64.4611
65.4152
66.1453
66.8295
67.5004
67.9676
68.3255
68.6586
68.8294
68.9152
68.9838
68.9286
68.8687
68.7599
68.6551
68.6236
68.4921
68.463
68.6115
68.6508
68.7958
69.185
69.4677
69.9234
70.4717
71.0411
71.8692
72.5928
73.5173
74.5657
75.4915
76.5846
77.7396
78.6795
79.0854
78.7513
77.565
75.194
71.3415
66.0312
59.2136
51.3995
42.8561
34.2481
25.8884
18.0104
11.0932
5.19115
0.458998
-3.35112
-5.74262
-7.18918
-7.46711
-6.20809
-3.85242
-0.542362
3.13583
6.98978
10.9895
16.2678
22.7794
32.1773
40.8291
51.1995
58.9838
66.8924
72.3126
77.0416
79.8801
81.9169
83.2703
83.7877
83.7476
83.5471
82.9124
81.9863
80.7549
78.8666
77.5172
75.1188
73.7149
71.13
69.4429
66.663
64.3536
60.6406
56.5092
51.5269
46.3366
72.5682
72.1078
70.1089
68.4272
67.3521
66.923
67.0251
67.4618
67.9025
68.2698
68.5774
68.7794
68.8484
68.8178
68.7397
68.7004
68.5579
68.4535
68.4063
68.3341
68.2856
68.2397
68.2402
68.2544
68.1983
68.2289
68.2702
68.2359
68.2585
68.2487
68.2789
68.2939
68.2358
68.2586
68.2595
68.2369
68.222
68.1599
68.1693
68.1288
68.0537
68.0411
67.9902
67.9267
67.8751
67.8263
67.8089
67.7531
67.6756
67.6889
67.6718
67.6007
67.6263
67.5637
67.6169
67.572
67.4671
67.5249
67.4169
67.382
67.2818
67.1841
67.1408
67.0549
66.9888
66.8893
66.9924
66.876
66.9769
67.0377
67.0199
67.3175
67.2651
67.4647
67.6043
67.6889
67.8189
67.7965
67.8524
67.6405
67.5972
67.2842
66.8271
66.5708
65.9243
65.3831
64.8165
64.0022
63.4909
62.7618
62.0637
61.5789
60.8829
60.4195
59.9654
59.401
58.9918
58.6671
58.3406
58.1127
57.9861
57.9377
58.008
58.2134
58.4819
58.908
59.5152
60.0872
60.8538
61.7652
62.5499
63.451
64.4361
65.2147
66.0801
66.9658
67.5452
68.1095
68.6832
68.9872
69.2537
69.5298
69.6324
69.6767
69.7686
69.8447
69.8362
69.7999
69.8858
70.0323
70.1231
70.3228
70.7993
71.0604
71.338
72.1691
72.6418
73.1027
73.8978
74.4968
75.3506
76.1317
76.8801
77.7785
78.4186
78.7582
78.3584
77.0133
74.6989
71.1106
66.112
59.7171
52.2964
44.1219
35.9187
27.7115
20.1172
13.3317
7.3752
2.46686
-1.46369
-4.04262
-5.7239
-6.01111
-5.07923
-2.93908
0.168881
3.81925
8.00554
12.4756
18.7012
25.3098
35.457
43.1977
53.3686
60.6368
67.7584
72.9719
77.4788
80.2913
82.1488
83.9134
83.9007
84.147
83.8167
83.3804
82.3338
81.2355
79.3413
78.438
75.9758
75.0084
72.2161
70.6394
67.7769
64.939
61.3633
57.3015
52.7761
48.1426
72.3283
71.8719
69.967
68.4188
67.4811
67.1564
67.3073
67.7081
68.0992
68.3933
68.6401
68.7774
68.8144
68.7614
68.6796
68.6337
68.513
68.4181
68.3808
68.3169
68.2795
68.2324
68.2385
68.2419
68.201
68.2223
68.2427
68.2247
68.2232
68.2198
68.2325
68.238
68.1977
68.1995
68.2004
68.1863
68.1654
68.1225
68.1258
68.0844
68.037
68.012
67.9769
67.9288
67.871
67.8544
67.8284
67.7675
67.7169
67.7142
67.6898
67.643
67.6269
67.5918
67.6154
67.5461
67.489
67.4824
67.4207
67.3579
67.2795
67.1776
67.1416
67.0552
66.9666
66.9187
66.9148
66.8627
66.8881
66.9173
66.9044
67.1034
67.0607
67.1996
67.3155
67.3545
67.4686
67.4809
67.4726
67.3977
67.3122
67.1018
66.7833
66.5293
66.0793
65.6201
65.1602
64.504
64.058
63.4311
62.8148
62.363
61.7843
61.3044
60.8513
60.3291
59.9189
59.552
59.1789
58.9003
58.6243
58.4258
58.3558
58.3351
58.4289
58.6784
59.0139
59.4361
60.0498
60.7879
61.5391
62.4624
63.4458
64.3723
65.4092
66.416
67.1923
67.936
68.7166
69.2135
69.6242
70.108
70.3553
70.5373
70.7628
70.9345
71.0171
70.9993
71.2024
71.3453
71.456
71.8222
72.2219
72.6525
72.7745
73.2852
74.0048
73.9986
74.6097
75.272
75.528
76.255
76.6931
77.1226
77.5833
77.4993
76.9608
75.5868
73.2138
69.8184
65.3044
59.6776
52.9749
45.6803
38.0166
30.3638
23.204
16.4763
10.5633
5.46742
1.42543
-1.45157
-3.23567
-3.5986
-3.02315
-1.0017
1.9538
5.71374
10.2023
15.2163
21.8753
28.9264
38.9083
46.2461
55.5681
62.1159
68.4008
73.7576
78.1088
80.6782
82.5467
84.4584
84.0982
84.6297
84.1311
83.7624
82.688
81.6743
79.9183
78.943
76.6897
75.6599
72.9881
71.1469
68.1366
65.1794
61.808
57.9417
53.9314
49.9829
71.8909
71.4314
69.7764
68.4887
67.737
67.5277
67.6908
68.0113
68.3208
68.5324
68.6849
68.7593
68.7458
68.6854
68.6114
68.555
68.4707
68.396
68.3659
68.3158
68.2848
68.2428
68.2408
68.2241
68.2011
68.2034
68.2047
68.2055
68.1802
68.1902
68.1868
68.1781
68.1691
68.1476
68.1552
68.1438
68.1127
68.0882
68.0769
68.0417
68.0143
67.9835
67.9601
67.926
67.8742
67.869
67.8367
67.7852
67.7553
67.7343
67.7011
67.6806
67.6233
67.6267
67.6045
67.5308
67.5231
67.4428
67.4351
67.342
67.2727
67.1867
67.1281
67.0505
66.9433
66.926
66.8328
66.8305
66.8014
66.7783
66.8168
66.8565
66.8846
66.9445
67.0365
67.0595
67.1486
67.1925
67.1581
67.1705
67.0919
66.9479
66.7608
66.5324
66.2265
65.8827
65.477
65.0264
64.5669
64.0959
63.585
63.1038
62.6329
62.1356
61.6838
61.2354
60.7928
60.3737
59.9589
59.5773
59.1912
58.8818
58.6528
58.4321
58.3591
58.3971
58.492
58.795
59.2808
59.8745
60.6547
61.6002
62.6136
63.7011
64.8315
65.9262
66.9074
67.8534
68.7668
69.4559
70.0544
70.664
71.0796
71.3911
71.6706
71.9284
72.095
72.1517
72.3966
72.5325
72.611
73.0823
73.3786
73.7432
74.0964
74.0395
74.6352
74.9299
74.7817
75.4161
75.5929
75.5474
76.0589
76.4447
76.459
76.0064
74.8847
73.138
70.7776
67.6303
63.5965
58.8982
53.4588
47.2927
40.5978
33.8173
26.9843
20.4925
14.6495
9.29658
5.20382
2.08187
-0.0650919
-0.575403
0.0283235
1.90436
4.68396
8.5362
13.287
18.652
25.1933
32.5362
42.4392
48.8339
57.8579
63.6499
69.3111
75.1065
78.6514
80.9559
82.9618
84.5921
84.2899
84.8464
84.168
83.8001
82.8318
81.7936
80.2497
79.1158
77.0856
75.6959
73.2703
71.2486
68.3126
65.35
62.2122
58.7519
55.2713
51.7116
71.0822
70.7523
69.5714
68.6638
68.1439
68.0136
68.1408
68.3392
68.5312
68.6443
68.7103
68.7227
68.6789
68.6229
68.556
68.5005
68.4387
68.3833
68.3511
68.3017
68.2764
68.241
68.2309
68.2158
68.1995
68.1974
68.1802
68.1821
68.1533
68.1565
68.1467
68.1339
68.1336
68.1133
68.1117
68.1006
68.0737
68.054
68.0434
68.0051
67.998
67.9683
67.9431
67.9237
67.8836
67.871
67.8459
67.8059
67.7799
67.7576
67.709
67.7023
67.6416
67.6375
67.596
67.5404
67.5316
67.4352
67.4359
67.3275
67.2664
67.2038
67.0971
67.0477
66.9277
66.8977
66.7856
66.7653
66.7184
66.6753
66.7121
66.6551
66.7314
66.7324
66.7815
66.8494
66.876
66.9444
66.9471
66.9665
66.9419
66.8482
66.7588
66.5806
66.3762
66.1245
65.8017
65.4729
65.0676
64.6797
64.2415
63.7645
63.3543
62.8713
62.4315
61.9973
61.5198
61.0724
60.6057
60.1458
59.6783
59.2403
58.841
58.4738
58.2529
58.1243
58.1108
58.3344
58.7024
59.2483
60.0463
60.9721
62.0079
63.193
64.3928
65.5856
66.7624
67.8527
68.8587
69.7287
70.4731
71.1614
71.6896
72.0947
72.4413
72.7393
72.9686
73.0902
73.2916
73.4293
73.5286
73.9358
74.1512
74.317
74.8397
74.8347
74.686
75.0691
75.0704
74.9997
75.2424
75.3502
75.5337
75.6692
75.3011
74.3442
72.8287
70.6958
67.9351
64.6911
61.4086
57.9035
53.8797
49
43.4851
37.5306
31.2433
25.0906
19.164
13.8256
9.53132
5.94469
3.87456
3.21791
3.25203
5.06319
8.24681
11.8674
16.5548
22.2121
28.1795
35.9686
45.4687
51.0477
59.7348
65.7841
70.6484
77.1503
78.945
81.1292
83.5686
84.5248
84.4927
84.8711
84.1558
83.9111
82.8216
81.7581
80.5594
79.1952
77.2282
75.6391
73.3341
71.2023
68.4445
65.6546
62.7502
59.7066
56.5633
53.0431
70.249
70.07
69.4685
68.9831
68.6772
68.5661
68.5842
68.6292
68.6934
68.7195
68.7126
68.6835
68.6254
68.5695
68.5097
68.4561
68.4155
68.3743
68.3417
68.3009
68.2745
68.2434
68.2223
68.2056
68.1933
68.1841
68.1653
68.163
68.1376
68.1316
68.1161
68.102
68.1038
68.0849
68.0813
68.071
68.0469
68.0339
68.015
67.9877
67.9827
67.9548
67.9347
67.9206
67.8911
67.8765
67.8528
67.82
67.7969
67.7666
67.7219
67.7118
67.6548
67.638
67.6007
67.5439
67.5333
67.4417
67.4194
67.3273
67.2626
67.1943
67.0897
67.0292
66.9161
66.8684
66.7539
66.7223
66.6606
66.5959
66.614
66.5432
66.5921
66.5899
66.6146
66.6891
66.6967
66.7896
66.8068
66.8437
66.8563
66.8087
66.7755
66.6489
66.5078
66.3317
66.0631
65.8048