/*--------------------------------*- C++ -*----------------------------------*\
| =========                 |                                                 |
| \\      /  F ield         | OpenFOAM: The Open Source CFD Toolbox           |
|  \\    /   O peration     | Version:  2.4.0                                 |
|   \\  /    A nd           | Web:      www.OpenFOAM.org                      |
|    \\/     M anipulation  |                                                 |
\*---------------------------------------------------------------------------*/
FoamFile
{
    version     2.0;
    format      ascii;
    class       volScalarField;
    location    "0.58";
    object      pPrime2Mean;
}
// * * * * * * * * * * * * * * * * * * * * * * * * * * * * * * * * * * * * * //

dimensions      [0 4 -4 0 0 0 0];

internalField   nonuniform List<scalar> 
8800
(
1.11471e+06
1.08659e+06
1.05641e+06
1.02649e+06
996978
967894
939240
911015
883218
855849
828904
802381
776270
750560
725222
700211
675430
650687
625539
598577
1.11475e+06
1.08659e+06
1.05641e+06
1.02649e+06
996977
967894
939240
911015
883219
855849
828905
802382
776272
750563
725229
700224
675457
650744
625678
599034
1.11478e+06
1.08659e+06
1.0564e+06
1.02648e+06
996975
967893
939239
911015
883219
855850
828906
802384
776276
750571
725243
700251
675509
650853
625932
599921
1.1148e+06
1.08659e+06
1.05639e+06
1.02648e+06
996973
967892
939239
911014
883218
855850
828908
802387
776282
750582
725263
700289
675584
651008
626286
600954
1.11481e+06
1.08659e+06
1.05639e+06
1.02647e+06
996971
967892
939238
911014
883218
855851
828909
802391
776290
750596
725290
700338
675680
651201
626711
602022
1.11483e+06
1.08659e+06
1.05638e+06
1.02647e+06
996969
967891
939238
911014
883219
855852
828912
802396
776299
750612
725321
700397
675792
651423
627178
603065
1.11484e+06
1.08659e+06
1.05638e+06
1.02647e+06
996968
967891
939239
911014
883219
855853
828914
802401
776309
750632
725356
700463
675917
651666
627665
604057
1.11484e+06
1.08659e+06
1.05638e+06
1.02646e+06
996966
967891
939239
911015
883220
855855
828918
802407
776320
750653
725395
700535
676052
651921
628156
604982
1.11485e+06
1.08659e+06
1.05638e+06
1.02646e+06
996965
967891
939239
911015
883221
855856
828921
802414
776333
750675
725436
700611
676191
652180
628637
605834
1.11485e+06
1.0866e+06
1.05637e+06
1.02646e+06
996965
967891
939240
911016
883222
855858
828925
802421
776345
750698
725478
700688
676332
652437
629098
606610
1.11485e+06
1.0866e+06
1.05638e+06
1.02646e+06
996965
967891
939240
911016
883223
855860
828929
802428
776358
750721
725521
700765
676471
652686
629531
607310
1.11485e+06
1.08659e+06
1.05638e+06
1.02646e+06
996966
967892
939240
911017
883224
855863
828932
802435
776371
750744
725562
700839
676605
652922
629932
607934
1.11484e+06
1.08659e+06
1.05638e+06
1.02646e+06
996967
967892
939241
911018
883225
855865
828936
802441
776383
750766
725602
700910
676731
653141
630295
608484
1.11484e+06
1.08659e+06
1.05638e+06
1.02647e+06
996969
967892
939241
911018
883227
855867
828940
802448
776394
750786
725638
700976
676847
653339
630617
608962
1.11483e+06
1.08659e+06
1.05638e+06
1.02647e+06
996971
967893
939241
911019
883228
855869
828943
802454
776404
750805
725671
701035
676949
653513
630897
609370
1.11481e+06
1.08659e+06
1.05639e+06
1.02647e+06
996973
967894
939242
911020
883230
855871
828947
802459
776413
750821
725700
701085
677038
653661
631131
609709
1.1148e+06
1.08659e+06
1.05639e+06
1.02648e+06
996975
967894
939243
911021
883231
855873
828949
802463
776421
750834
725724
701127
677110
653781
631320
609978
1.11478e+06
1.08659e+06
1.0564e+06
1.02649e+06
996977
967896
939244
911022
883232
855875
828951
802467
776427
750845
725742
701160
677165
653873
631461
610179
1.11475e+06
1.08659e+06
1.05641e+06
1.02649e+06
996979
967897
939244
911023
883233
855875
828953
802469
776431
750851
725754
701181
677202
653934
631556
610312
1.11471e+06
1.08659e+06
1.05641e+06
1.02649e+06
996980
967897
939245
911023
883233
855876
828953
802470
776432
750855
725761
701192
677221
653965
631604
610377
574148
567569
562551
558213
554191
550362
546670
543081
539571
536124
532728
529376
526060
522775
519517
516282
513066
509867
506682
503512
500355
497212
494082
490964
487859
484765
481682
478611
475550
472501
469464
466440
463428
460430
457445
454474
451516
448572
445640
442720
439811
436912
434023
431142
428269
425403
422545
419696
416855
414022
411198
408382
405573
402773
399982
397200
394427
391666
388914
386173
383442
380719
378006
375302
372608
369925
367252
364591
361942
359303
356674
354055
351446
348846
346255
343673
341100
338538
335985
333445
330916
328401
325897
323406
320925
318453
315990
313535
311088
308649
306218
303794
301378
298968
296567
294173
291787
289410
287042
284684
282335
279996
277668
275351
273045
270750
268466
266193
263930
261678
259435
257202
254979
252765
250560
248365
246178
244000
241832
239672
237522
235381
233249
231128
229017
226917
224827
222749
220681
218624
216576
214537
212508
210487
208474
206469
204472
202483
200503
198531
196569
194616
192672
190737
188812
186897
184990
183094
181206
179329
177461
175604
173755
171917
170089
168270
166460
164660
162869
161087
159315
157553
155800
154058
152326
150605
148895
147197
145511
143837
142173
140523
138881
137255
135634
134030
132427
130844
129258
127693
126124
124573
123021
121480
119941
118410
116875
115347
113808
112272
110719
109157
107570
105959
104307
102608
100830
98941.6
96880
94426.7
578834
571824
566110
561189
556737
552575
548613
544799
541098
537487
533948
530470
527043
523659
520313
516999
513712
510449
507208
503986
500783
497598
494429
491278
488141
485019
481911
478817
475736
472669
469615
466575
463550
460539
457543
454561
451593
448639
445697
442769
439852
436946
434051
431164
428286
425417
422556
419703
416860
414025
411199
408382
405573
402773
399983
397202
394431
391670
388919
386179
383448
380728
378016
375314
372622
369940
367269
364609
361959
359321
356692
354074
351464
348865
346274
343692
341120
338558
336007
333468
330941
328427
325925
323435
320955
318484
316022
313568
311122
308685
306254
303831
301415
299005
296603
294208
291822
289445
287077
284718
282369
280030
277701
275383
273076
270780
268495
266220
263955
261700
259454
257218
254992
252776
250569
248372
246185
244007
241838
239679
237529
235389
233259
231139
229030
226932
224845
222769
220704
218648
216602
214565
212537
210516
208504
206499
204502
202513
200533
198561
196598
194645
192701
190766
188840
186923
185015
183117
181228
179349
177480
175622
173773
171934
170104
168283
166471
164668
162874
161088
159312
157545
155787
154039
152301
150573
148854
147148
145451
143767
142091
140428
138772
137132
135493
133873
132252
130649
129043
127454
125863
124284
122705
121133
119560
117991
116416
114842
113256
111664
110052
108420
106757
105053
103297
101462
99542.4
97419.9
95132.1
92448.5
582085
575131
569150
563880
559107
554670
550473
546456
542578
538812
535137
531539
528004
524525
521093
517702
514346
511021
507724
504452
501203
497977
494771
491586
488418
485269
482136
479020
475919
472833
469763
466709
463670
460647
457640
454647
451669
448705
445755
442818
439893
436980
434078
431186
428303
425430
422565
419710
416864
414027
411200
408382
405574
402774
399985
397205
394435
391675
388925
386186
383457
380738
378028
375328
372638
369958
367288
364629
361980
359342
356713
354095
351486
348886
346295
343714
341142
338581
336030
333492
330967
328454
325954
323465
320986
318516
316055
313603
311158
308722
306292
303869
301452
299043
296640
294246
291860
289483
287115
284756
282407
280067
277738
275420
273111
270814
268526
266249
263982
261724
259475
257236
255007
252787
250579
248380
246192
244014
241846
239687
237538
235399
233271
231153
229047
226951
224867
222794
220731
218678
216633
214597
212570
210549
208536
206531
204533
202544
200563
198591
196628
194675
192730
190795
188868
186949
185040
183140
181250
179370
177500
175641
173791
171951
170120
168297
166483
164677
162879
161090
159309
157538
155774
154020
152275
150540
148814
147099
145391
143697
142008
140333
138662
137007
135352
133715
132077
130453
128829
127216
125604
123997
122391
120788
119183
117576
115965
114345
112717
111070
109405
107706
105978
104186
102356
100396
98387.2
96130.2
93731
91060.9
584561
577791
571735
566272
561275
556621
552226
548030
543993
540085
536284
532572
528936
525365
521851
518385
514962
511577
508226
504905
501612
498346
495105
491886
488689
485513
482356
479218
476098
472995
469909
466841
463789
460754
457735
454732
451744
448771
445812
442866
439934
437014
434105
431208
428320
425443
422575
419717
416869
414031
411203
408384
405576
402777
399988
397209
394440
391682
388933
386195
383468
380750
378042
375344
372656
369978
367310
364651
362003
359365
356737
354118
351509
348909
346318
343736
341164
338603
336053
333516
330992
328481
325982
323494
321017
318548
316088
313637
311194
308759
306330
303907
301491
299081
296679
294285
291900
289523
287155
284797
282448
280108
277779
275459
273149
270849
268560
266280
264009
261748
259496
257253
255021
252799
250588
248388
246199
244021
241853
239695
237548
235411
233285
231169
229066
226973
224893
222822
220762
218710
216668
214632
212605
210583
208569
206563
204564
202573
200592
198619
196656
194702
192758
190821
188894
186975
185064
183163
181271
179390
177520
175660
173810
171969
170136
168311
166495
164686
162884
161091
159306
157529
155760
154000
152248
150506
148772
147048
145331
143625
141924
140236
138552
136880
135212
133556
131903
130258
128617
126981
125347
123714
122083
120448
118813
117169
115525
113860
112193
110491
108785
107017
105245
103365
101483
99427.9
97342.9
95047.4
92624.3
90033.2
586551
579968
573930
568375
563231
558414
553858
549510
545333
541297
537380
533563
529832
526175
522582
519046
515559
512116
508713
505345
502010
498706
495429
492179
488954
485752
482572
479413
476274
473154
470053
466971
463906
460859
457829
454816
451818
448836
445869
442915
439976
437049
434134
431231
428339
425458
422587
419726
416876
414037
411207
408388
405580
402781
399993
397215
394448
391691
388944
386207
383481
380764
378058
375362
372675
369999
367332
364675
362028
359390
356762
354142
351532
348931
346339
343756
341184
338623
336074
333538
331015
328505
326008
323521
321045
318578
316120
313671
311229
308795
306367
303945
301529
299120
296718
294324
291939
289563
287196
284838
282489
280150
277820
275499
273187
270885
268593
266309
264036
261771
259516
257269
255035
252810
250597
248396
246207
244028
241861
239704
237558
235423
233299
231187
229086
226997
224919
222851
220794
218744
216702
214667
212639
210617
208602
206594
204594
202601
200619
198645
196682
194727
192782
190845
188918
186998
185087
183184
181293
179411
177541
175678
173828
171985
170151
168324
166505
164693
162887
161090
159301
157518
155744
153977
152219
150470
148728
146995
145269
143552
141841
140139
138442
136754
135072
133398
131730
130066
128407
126748
125094
123434
121781
120113
118455
116770
115098
113386
111690
109932
108192
106362
104547
102605
100664
98567.8
96421.3
94136.6
91737.2
89220.5
588226
581804
575812
570217
564981
560046
555362
550888
546590
542441
538419
534506
530687
526950
523284
519681
516134
512636
509183
505771
502395
499054
495745
492464
489212
485985
482783
479604
476447
473311
470195
467099
464022
460964
457923
454900
451893
448902
445926
442965
440018
437085
434164
431256
428359
425475
422601
419738
416886
414045
411215
408396
405587
402789
400001
397224
394458
391702
388956
386221
383496
380781
378076
375381
372696
370021
367355
364699
362052
359414
356785
354164
351552
348949
346356
343773
341200
338639
336091
333556
331035
328526
326029
323544
321070
318605
316149
313701
311261
308829
306402
303981
301566
299157
296756
294362
291977
289601
287234
284877
282529
280189
277859
275536
273222
270918
268623
266336
264059
261791
259532
257283
255045
252819
250605
248403
246213
244034
241868
239711
237567
235434
233313
231203
229106
227019
224945
222880
220824
218776
216735
214700
212672
210649
208632
206622
204620
202626
200643
198667
196704
194748
192803
190866
188938
187017
185106
183203
181311
179428
177558
175693
173843
171997
170162
168332
166512
164694
162886
161084
159290
157501
155722
153949
152185
150428
148679
146938
145204
143475
141755
140038
138332
136627
134933
133241
131560
129874
128201
126517
124847
123158
121486
119786
118105
116385
114685
112934
111204
109406
107623
105754
103887
101914
99919.3
97813.1
95637.6
93370.5
91002.5
88543.8
589669
583377
577437
571830
566536
561517
556734
552158
547758
543511
539396
535397
531497
527686
523953
520288
516685
513136
509636
506181
502767
499391
496050
492741
489462
486212
482989
479791
476616
473465
470335
467226
464137
461067
458016
454983
451967
448967
445984
443016
440062
437122
434196
431283
428383
425494
422618
419753
416899
414057
411226
408406
405597
402799
400012
397236
394470
391715
388971
386236
383512
380798
378094
375400
372716
370041
367376
364720
362072
359433
356803
354181
351567
348963
346369
343784
341212
338651
336103
333569
331049
328541
326046
323562
321089
318625
316171
313725
311288
308858
306433
304013
301599
299191
296790
294395
292010
289634
287267
284910
282562
280223
277891
275567
273252
270945
268648
266358
264078
261806
259544
257292
255052
252825
250610
248407
246217
244039
241873
239718
237575
235443
233324
231217
229123
227039
224968
222905
220851
218805
216765
214730
212702
210677
208658
206646
204642
202646
200661
198685
196721
194764
192819
190882
188955
187032
185121
183216
181325
179440
177569
175702
173851
172003
170166
168333
166511
164689
162878
161072
159271
157478
155693
153914
152144
150379
148623
146875
145133
143394
141664
139935
138217
136499
134791
133085
131389
129686
127996
126292
124602
122892
121195
119472
117762
116017
114284
112506
110738
108914
107090
105196
103288
101297
99268.4
97160.4
94975.5
92720.5
90376.8
87962.9
590928
584739
578850
573246
567917
562837
557980
553320
548835
544504
540308
536231
532259
528381
524586
520864
517208
513611
510068
506574
503124
499715
496344
493008
489704
486432
483188
479971
476780
473614
470470
467348
464248
461168
458107
455065
452040
449033
446042
443067
440107
437162
434231
431313
428409
425517
422638
419771
416916
414072
411240
408419
405610
402812
400025
397249
394484
391730
388986
386252
383528
380814
378111
375417
372732
370057
367392
364735
362086
359446
356814
354191
351576
348971
346375
343791
341218
338658
336110
333577
331057
328550
326056
323574
321101
318639
316187
313743
311309
308881
306459
304041
301628
299219
296817
294422
292036
289659
287293
284935
282587
280247
277916
275590
273274
270965
268666
266374
264091
261815
259550
257295
255054
252826
250612
248409
246220
244042
241877
239723
237582
235451
233333
231228
229136
227055
224986
222924
220873
218827
216788
214753
212724
210698
208678
206664
204658
202660
200674
198697
196732
194776
192831
190894
188965
187043
185129
183224
181331
179446
177573
175703
173850
172002
170161
168327
166502
164677
162861
161051
159245
157447
155656
153872
152095
150324
148561
146807
145057
143310
141570
139833
138102
136372
134650
132933
131221
129504
127796
126076
124365
122637
120916
119173
117436
115670
113907
112109
110308
108463
106607
104692
102757
100756
98706.1
96596.2
94407.2
92159.4
89836.1
87458.7
592034
585928
580083
574489
569139
564016
559101
554375
549819
545416
541150
537005
532969
529031
525179
521405
517701
514060
510477
506945
503462
500022
496623
493261
489935
486641
483378
480144
476938
473757
470600
467467
464355
461265
458195
455144
452112
449097
446099
443118
440153
437202
434267
431345
428437
425542
422660
419791
416934
414089
411256
408434
405624
402826
400039
397262
394497
391742
388998
386264
383540
380826
378122
375428
372742
370067
367400
364742
362092
359451
356818
354193
351577
348971
346376
343791
341218
338658
336111
333577
331058
328551
326058
323577
321107
318646
316196
313754
311322
308897
306477
304060
301647
299238
296836
294440
292053
289675
287309
284951
282602
280262
277929
275603
273286
270976
268674
266380
264094
261816
259549
257294
255052
252823
250609
248408
246220
244044
241880
239727
237586
235456
233339
231234
229143
227064
224996
222936
220885
218840
216801
214767
212737
210710
208689
206673
204666
202668
200680
198702
196738
194781
192837
190900
188970
187046
185131
183224
181330
179442
177568
175697
173842
171992
170148
168314
166483
164657
162836
161024
159211
157411
155612
153824
152038
150263
148494
146739
144978
143226
141475
139732
137988
136250
134514
132788
131059
129331
127605
125873
124142
122398
120655
118895
117135
115351
113564
111748
109921
108057
106176
104249
102292
100285
98216.9
96101.9
93911.8
91670.7
89367.8
87021.3
593007
586968
581163
575580
570218
565065
560105
555326
550711
546248
541921
537717
533625
529632
525730
521909
518161
514480
510859
507293
503779
500310
496885
493500
490152
486839
483558
480308
477086
473892
470723
467579
464457
461358
458279
455220
452180
449159
446155
443169
440198
437243
434303
431378
428467
425569
422684
419812
416953
414106
411272
408449
405638
402838
400050
397273
394507
391751
389007
386272
383547
380832
378127
375431
372745
370068
367400
364740
362089
359447
356813
354187
351571
348965
346369
343785
341212
338652
336105
333571
331051
328545
326053
323572
321104
318646
316198
313758
311329
308905
306487
304070
301657
299248
296844
294447
292060
289682
287314
284956
282607
280266
277933
275606
273287
270975
268672
266376
264089
261810
259542
257286
255045
252817
250604
248403
246217
244042
241880
239728
237588
235457
233340
231235
229144
227065
224998
222939
220888
218843
216804
214769
212739
210713
208691
206676
204668
202670
200680
198703
196737
194780
192835
190897
188966
187041
185125
183215
181320
179431
177554
175683
173824
171974
170126
168295
166457
164631
162801
160994
159169
157373
155561
153775
151977
150203
148422
146671
144895
143145
141380
139634
137876
136134
134384
132653
130907
129172
127430
125687
123937
122179
120419
118643
116865
115065
113257
111424
109578
107698
105797
103861
101884
99869.6
97785.1
95664.1
93477.5
91245.6
88962.8
86642.9
593863
587878
582106
576536
571167
565991
560997
556175
551513
546999
542620
538366
534223
530183
526236
522372
518585
514867
511213
507616
504072
500578
497129
493722
490354
487023
483726
480461
477226
474019
470839
467684
464553
461445
458358
455292
452246
449219
446210
443218
440242
437283
434339
431410
428495
425595
422707
419833
416971
414122
411286
408461
405649
402848
400058
397280
394512
391756
389010
386274
383548
380832
378125
375428
372740
370061
367392
364730
362078
359435
356800
354174
351558
348952
346357
343773
341200
338640
336092
333558
331038
328532
326040
323560
321093
318637
316191
313755
311328
308905
306488
304070
301656
299246
296841
294443
292056
289677
287308
284948
282599
280257
277924
275596
273277
270964
268660
266363
264075
261796
259529
257274
255033
252806
250594
248396
246211
244038
241878
239727
237586
235455
233337
231231
229138
227059
224991
222932
220881
218836
216796
214762
212732
210707
208687
206672
204665
202667
200677
198699
196731
194773
192825
190885
188954
187025
185109
183196
181297
179411
177530
175662
173799
171951
170099
168269
166422
164600
162762
160960
159125
157333
155506
153723
151912
150143
148351
146604
144812
143064
141285
139543
137770
136024
134263
132532
130768
129027
127270
125517
123752
121983
120207
118420
116624
114813
112986
111141
109275
107383
105465
103521
101523
99496.7
97403.1
95278.9
93099
90877.9
88614
86317.3
594611
588671
582927
577369
571997
566804
561783
556927
552226
547669
543248
538949
534764
530683
526695
522794
518972
515221
511536
507911
504342
500823
497353
493926
490540
487193
483880
480602
477354
474136
470946
467782
464642
461526
458432
455360
452308
449275
446260
443264
440284
437321
434373
431441
428522
425618
422728
419851
416987
414136
411297
408470
405656
402853
400062
397282
394513
391754
389007
386269
383542
380824
378116
375417
372728
370048
367377
364715
362062
359418
356783
354157
351541
348935
346341
343758
341185
338624
336076
333541
331019
328512
326020
323541
321075
318621
316178
313744
311318
308895
306477
304057
301643
299232
296827
294427
292040
289660
287291
284930
282580
280238
277904
275575
273256
270942
268638
266341
264055
261777
259512
257258
255019
252793
250583
248386
246203
244032
241873
239722
237582
235449
233330
231222
229127
227046
224977
222916
220864
218818
216779
214745
212716
210692
208675
206661
204656
202657
200666
198688
196717
194758
192808
190865
188933
187002
185085
183169
181269
179382
177497
175634
173769
171925
170071
168240
166388
164565
162725
160921
159080
157287
155454
153671
151852
150082
148286
146537
144738
142984
141198
139450
137670
135923
134153
132420
130640
128895
127124
125364
123586
121810
120019
118224
116412
114592
112749
110892
109011
107109
105177
103217
101202
99165.4
97068.4
94945.1
92772.9
90562.6
88315.5
86038.9
595262
589357
583637
578089
572716
567510
562469
557585
552852
548261
543803
539467
535246
531128
527106
523172
519319
515539
511826
508177
504584
501045
497555
494111
490709
487346
484021
480730
477471
474243
471043
467871
464724
461600
458500
455422
452364
449326
446307
443306
440322
437355
434404
431467
428546
425639
422745
419865
416998
414145
411304
408475
405658
402853
400060
397278
394507
391747
388998
386259
383530
380810
378101
375401
372711
370030
367359
364696
362043
359398
356763
354138
351522
348917
346323
343741
341168
338607
336058
333521
330999
328490
325997
323518
321052
318600
316158
313725
311299
308875
306455
304034
301619
299206
296801
294401
292014
289634
287265
284902
282553
280209
277876
275546
273227
270912
268610
266314
264030
261754
259492
257239
255002
252777
250569
248373
246192
244022
241864
239713
237573
235439
233319
231208
229113
227028
224957
222894
220841
218794
216755
214720
212693
210670
208655
206642
204639
202638
200648
198667
196695
194735
192782
190837
188904
186971
185054
183136
181236
179349
177465
175601
173739
171893
170037
168205
166354
164526
162692
160882
159037
157236
155404
153614
151793
150014
148222
146467
144663
142913
141120
139369
137582
135826
134047
132309
130521
128775
126993
125228
123439
121656
119853
118050
116227
114397
112543
110675
108785
106867
104924
102946
100921
98877.5
96780.9
94660.5
92495
90295
88062.6
85803.4
595821
589946
584244
578705
573330
568115
563057
558152
553394
548775
544286
539920
535668
531520
527468
523505
519625
515819
512084
508412
504799
501241
497734
494275
490859
487483
484146
480844
477576
474339
471131
467951
464797
461667
458561
455477
452415
449372
446349
443343
440356
437384
434429
431490
428565
425655
422758
419875
417005
414149
411305
408474
405655
402848
400053
397269
394497
391735
388984
386243
383513
380793
378082
375382
372691
370010
367337
364675
362021
359377
356742
354117
351502
348898
346305
343723
341151
338589
336039
333501
330977
328467
325972
323492
321026
318574
316133
313699
311270
308845
306423
304001
301585
299172
296767
294368
291981
289601
287231
284869
282520
280175
277842
275512
273193
270879
268578
266283
264003
261729
259469
257218
254983
252759
250552
248357
246178
244008
241851
239700
237560
235425
233304
231191
229093
227005
224931
222866
220811
218763
216724
214690
212664
210642
208627
206616
204612
202611
200621
198638
196666
194703
192750
190804
188870
186938
185019
183100
181203
179312
177430
175567
173708
171856
170001
168164
166321
164480
162659
160840
158994
157191
155359
153546
151732
149947
148157
146395
144597
142838
141051
139299
137498
135731
133951
132201
130411
128665
126872
125105
123306
121517
119706
117896
116065
114224
112363
110485
108589
106653
104701
102709
100680
98633.4
96539.2
94420.4
92261.1
90070.7
87851
85606.6
596296
590443
584755
579222
573846
568623
563553
558631
553853
549212
544699
540308
536029
531856
527779
523793
519889
516062
512306
508615
504986
501412
497890
494417
490989
487603
484255
480944
477668
474423
471208
468021
464861
461726
458614
455526
452458
449411
446384
443374
440383
437408
434450
431507
428579
425665
422766
419880
417008
414148
411302
408469
405648
402839
400042
397256
394483
391720
388967
386226
383494
380773
378062
375361
372670
369988
367316
364653
361999
359356
356721
354097
351483
348880
346288
343706
341134
338571
336020
333481
330956
328445
325948
323466
320999
318546
316102
313667
311235
308807
306384
303962
301547
299134
296728
294330
291943
289563
287193
284833
282484
280140
277807
275477
273158
270846
268546
266254
263976
261704
259446
257197
254963
252741
250534
248340
246160
243991
241834
239683
237541
235406
233284
231169
229069
226979
224903
222834
220778
218728
216689
214655
212628
210607
208592
206581
204578
202579
200589
198605
196633
194669
192715
190769
188833
186902
184982
183067
181167
179275
177399
175531
173674
171817
169966
168122
166284
164443
162623
160788
158957
157133
155305
153484
151680
149892
148100
146324
144532
142759
140985
139218
137422
135642
133869
132102
130315
128561
126766
124993
123189
121396
119579
117765
115925
114076
112207
110318
108417
106466
104510
102508
100479
98431.1
96339.1
94221.4
92068.1
89885.5
87676.2
85444.4
596690
590854
585175
579644
574267
569039
563960
559026
554233
549574
545042
540631
536331
532137
528040
524033
520110
516265
512493
508787
505142
501556
498022
494538
491099
487704
484348
481029
477745
474493
471272
468080
464914
461774
458658
455565
452494
449443
446412
443399
440404
437427
434465
431519
428588
425672
422769
419881
417006
414144
411296
408461
405638
402827
400029
397242
394467
391704
388951
386208
383476
380755
378043
375341
372649
369967
367295
364632
361978
359335
356701
354077
351464
348862
346271
343690
341118
338555
336003
333463
330937
328424
325926
323442
320973
318516
316069
313631
311196
308767
306341
303921
301505
299094
296688
294292
291904
289524
287155
284797
282447
280105
277771
275444
273125
270816
268517
266228
263950
261681
259423
257177
254943
252723
250515
248322
246141
243972
241813
239663
237520
235386
233261
231146
229044
226953
224873
222804
220744
218693
216651
214616
212587
210566
208551
206542
204540
202542
200553
198570
196597
194633
192679
190732
188796
186864
184947
183036
181138
179248
177370
175498
173639
171779
169933
168083
166248
164402
162588
160737
158909
157065
155256
153430
151633
149843
148049
146257
144473
142693
140924
139135
137357
135572
133793
132018
130238
128469
126675
124892
123091
121290
119473
117653
115806
113951
112073
110177
108270
106312
104348
102345
100317
98267.2
96176.3
94060
91911.6
89734.9
87533.8
85312.1
597004
591181
585506
579976
574597
569367
564282
559339
554535
549863
545316
540889
536573
532362
528248
524226
520288
516429
512643
508925
505269
501671
498128
494635
491188
487785
484422
481097
477807
474550
471324
468127
464957
461813
458693
455596
452521
449467
446433
443417
440420
437439
434475
431527
428593
425675
422770
419879
417003
414139
411289
408452
405628
402817
400017
397230
394454
391689
388935
386192
383460
380738
378026
375324
372631
369949
367276
364613
361960
359316
356683
354060
351448
348846
346255
343675
341103
338541
335989
333449
330921
328407
325908
323421
320948
318488
316037
313596
311158
308728
306300
303880
301463
299054
296649
294255
291866
289489
287119
284763
282412
280073
277738
275414
273095
270789
268490
266205
263927
261662
259404
257160
254925
252706
250496
248303
246120
243952
241790
239641
237497
235364
233238
231124
229021
226930
224847
222776
220711
218659
216612
214576
212545
210524
208507
206500
204498
202504
200514
198533
196560
194597
192642
190696
188760
186830
184914
183007
181111
179219
177343
175463
173601
171740
169897
168042
166209
164363
162541
160679
158862
157022
155225
153380
151590
149786
147993
146202
144423
142631
140862
139067
137298
135503
133728
131953
130175
128392
126603
124811
123011
121206
119389
117559
115710
113849
111966
110064
108153
106190
104219
102222
100192
98139.2
96048.3
93932.9
91787.6
89615.6
87421
85206.9
597238
591424
585750
580221
574842
569610
564521
559573
554760
550078
545521
541082
536754
532531
528405
524371
520422
516553
512757
509029
505364
501759
498208
494708
491255
487846
484478
481148
477853
474592
471362
468161
464988
461841
458718
455619
452541
449485
446448
443430
440430
437448
434482
431531
428596
425676
422770
419878
417000
414135
411284
408446
405621
402808
400008
397220
394443
391678
388923
386180
383447
380724
378012
375310
372617
369934
367261
364598
361945
359302
356669
354046
351434
348833
346243
343662
341091
338529
335977
333436
330909
328395
325894
323405
320929
318465
316009
313565
311124
308694
306266
303847
301428
299021
296616
294224
291834
289460
287088
284734
282382
280046
277710
275389
273070
270767
268468
266186
263908
261646
259387
257145
254910
252691
250479
248286
246100
243932
241769
239620
237476
235346
233220
231108
229003
226912
224826
222754
220687
218632
216580
214542
212507
210485
208466
206461
204459
202468
200479
198500
196527
194566
192609
190665
188727
186802
184885
182980
181082
179190
177310
175428
173566
171701
169858
167998
166169
164319
162492
160641
158828
156979
155184
153338
151552
149734
147950
146153
144375
142582
140813
139015
137247
135450
133683
131899
130124
128334
126548
124751
122951
121144
119324
117490
115639
113772
111889
109979
108065
106105
104128
102135
100100
98047.3
95954.1
93838.9
91695.9
89527.2
87337
85128.6
597388
591581
585912
580385
575006
569772
564681
559728
554910
550222
545657
541211
536875
532643
528510
524468
520512
516635
512832
509098
505428
501817
498262
494757
491300
487887
484515
481182
477884
474620
471387
468184
465008
461859
458734
455633
452554
449495
446457
443438
440437
437453
434485
431534
428598
425676
422770
419877
416998
414132
411280
408442
405616
402803
400002
397213
394436
391670
388915
386171
383438
380715
378002
375299
372606
369922
367249
364586
361933
359290
356657
354035
351423
348822
346232
343651
341080
338519
335967
333428
330901
328386
325883
323392
320915
318449
315988
313540
311096
308667
306238
303821
301402