/*--------------------------------*- C++ -*----------------------------------*\
| =========                 |                                                 |
| \\      /  F ield         | OpenFOAM: The Open Source CFD Toolbox           |
|  \\    /   O peration     | Version:  2.4.0                                 |
|   \\  /    A nd           | Web:      www.OpenFOAM.org                      |
|    \\/     M anipulation  |                                                 |
\*---------------------------------------------------------------------------*/
FoamFile
{
    version     2.0;
    format      ascii;
    class       volScalarField;
    location    "1.44";
    object      pPrime2Mean;
}
// * * * * * * * * * * * * * * * * * * * * * * * * * * * * * * * * * * * * * //

dimensions      [0 4 -4 0 0 0 0];

internalField   nonuniform List<scalar> 
8800
(
449183
437854
425699
413647
401760
390045
378504
367135
355939
344914
334061
323378
312861
302505
292299
282225
272243
262278
252147
241288
449198
437855
425698
413646
401759
390045
378504
367135
355939
344915
334062
323378
312861
302507
292301
282231
272253
262301
252203
241472
449208
437855
425695
413644
401759
390044
378503
367135
355939
344915
334062
323379
312863
302510
292307
282242
272274
262345
252305
241830
449216
437855
425692
413642
401758
390044
378503
367134
355939
344915
334063
323381
312865
302514
292315
282257
272305
262407
252447
242246
449223
437855
425689
413640
401757
390044
378503
367134
355939
344915
334063
323382
312868
302520
292326
282277
272343
262485
252619
242677
449228
437855
425687
413638
401756
390044
378503
367134
355939
344915
334064
323384
312872
302526
292339
282300
272389
262574
252807
243098
449231
437856
425686
413637
401756
390044
378503
367134
355939
344916
334065
323386
312876
302534
292353
282327
272439
262672
253004
243497
449234
437856
425685
413636
401755
390044
378503
367134
355939
344916
334067
323388
312881
302542
292369
282356
272493
262774
253202
243870
449236
437856
425684
413635
401755
390044
378503
367135
355939
344917
334068
323391
312886
302551
292385
282386
272550
262879
253396
244212
449237
437857
425684
413635
401754
390044
378504
367135
355940
344918
334069
323394
312891
302560
292402
282417
272606
262982
253581
244523
449237
437857
425684
413635
401754
390044
378504
367135
355940
344919
334071
323397
312896
302570
292419
282447
272662
263082
253756
244804
449236
437856
425684
413635
401755
390044
378504
367135
355941
344920
334073
323399
312901
302579
292436
282478
272717
263177
253917
245056
449234
437856
425685
413636
401755
390044
378504
367136
355941
344921
334074
323402
312906
302588
292452
282506
272767
263265
254063
245277
449231
437856
425686
413637
401756
390044
378504
367136
355942
344921
334076
323405
312911
302596
292467
282532
272814
263344
254193
245470
449227
437855
425687
413639
401757
390044
378504
367136
355942
344922
334077
323407
312915
302603
292480
282556
272855
263415
254306
245634
449222
437855
425689
413640
401758
390045
378504
367137
355943
344923
334078
323409
312918
302610
292491
282577
272891
263474
254400
245771
449216
437855
425692
413643
401758
390045
378505
367137
355944
344924
334079
323411
312921
302615
292501
282594
272920
263523
254476
245880
449208
437855
425695
413645
401759
390046
378505
367138
355944
344925
334080
323412
312924
302619
292508
282607
272942
263560
254533
245961
449198
437855
425698
413647
401760
390046
378505
367138
355944
344925
334081
323413
312925
302622
292513
282615
272957
263585
254571
246014
449183
437853
425699
413647
401761
390046
378505
367138
355944
344925
334081
323413
312926
302623
292516
282620
272965
263597
254590
246040
231446
228796
226773
225025
223404
221861
220373
218927
217514
216125
214758
213408
212072
210749
209436
208133
206838
205549
204266
202989
201717
200451
199190
197935
196684
195437
194195
192957
191724
190495
189271
188053
186840
185633
184432
183237
182047
180864
179685
178512
177343
176178
175017
173860
172706
171555
170408
169264
168124
166987
165854
164725
163598
162474
161353
160236
159124
158016
156911
155811
154713
153619
152528
151439
150354
149272
148195
147123
146056
144993
143935
142880
141829
140782
139738
138698
137661
136628
135600
134577
133559
132547
131541
130538
129541
128547
127556
126569
125584
124603
123625
122650
121676
120706
119737
118771
117808
116848
115890
114936
113986
113041
112099
111164
110233
109308
108389
107476
106569
105667
104769
103877
102989
102106
101227
100352
99481.4
98614.7
97751.7
96893.3
96038.6
95188.6
94342
93500.1
92660.7
91826
90993.1
90164.8
89338
88515
87693.5
86874.7
86057.5
85242.7
84429.9
83619.6
82812.1
82007.6
81206.5
80409.5
79616.4
78827.8
78043.5
77263.8
76488.5
75717.6
74951.2
74189
73430.6
72675.7
71924.1
71175.6
70429.5
69686.2
68945.2
68206.9
67471
66738.3
66008.7
65282.7
64560.3
63842.9
63129.3
62422
61719
61022.7
60330.8
59646.5
58967.2
58295.8
57629.1
56970.9
56316.2
55671.1
55027.1
54394.8
53760.1
53139.4
52513.9
51902.2
51286.1
50682.3
50074
49474.4
48870.4
48270
47664.9
47059.6
46445.8
45828.8
45198.3
44559
43900.4
43224.7
42520.3
41786
41005.1
40162
39258
38164.5
233334
230510
228207
226224
224430
222753
221157
219620
218129
216675
215250
213849
212468
211105
209757
208422
207098
205784
204478
203181
201890
200607
199331
198061
196798
195540
194288
193041
191799
190563
189333
188108
186890
185678
184472
183272
182079
180891
179709
178532
177359
176192
175028
173868
172712
171559
170410
169265
168123
166986
165852
164721
163594
162470
161349
160232
159119
158011
156907
155806
154709
153615
152524
151436
150351
149271
148194
147122
146055
144992
143933
142879
141827
140780
139736
138696
137659
136627
135600
134577
133560
132548
131542
130540
129542
128548
127558
126570
125586
124605
123627
122651
121677
120706
119738
118772
117808
116848
115891
114938
113989
113044
112104
111170
110240
109316
108398
107486
106579
105677
104780
103887
102999
102115
101236
100361
99489.2
98622.1
97759.2
96900.8
96046.4
95196.8
94350.8
93509.5
92671.1
91837.1
91005.5
90177.7
89352.1
88529.2
87708.3
86889.4
86072.5
85257.5
84444.9
83634.8
82827.6
82023.6
81223.3
80427.1
79635.1
78847.5
78064.6
77286.1
76512.2
75742.5
74977.5
74216.4
73459
72704.9
71954.4
71206.6
70461.2
69718.2
68977.4
68238.5
67502.1
66768.3
66037.3
65309.4
64585.3
63865.6
63149.9
62439.7
61733.9
61033.7
60338.1
59648.9
58964.6
58287
57613.9
56948.1
56285.5
55631.7
54978.2
54335.9
53691.1
53057.8
52421.4
51795
51166.2
50545
49922.1
49302.5
48681.8
48060.2
47434.9
46806.3
46170.4
45526.2
44870.5
44198.1
43508
42789.9
42044
41248.1
40419.8
39463.5
38481.3
37366.5
234644
231842
229432
227309
225385
223597
221906
220288
218726
217209
215729
214279
212856
211454
210072
208706
207354
206015
204686
203368
202060
200760
199469
198185
196910
195641
194378
193123
191873
190630
189393
188163
186939
185722
184511
183307
182109
180918
179731
178551
177375
176204
175038
173875
172717
171563
170412
169265
168122
166984
165848
164717
163589
162465
161344
160227
159115
158006
156902
155801
154704
153610
152520
151433
150349
149269
148193
147121
146054
144991
143932
142877
141826
140779
139735
138695
137659
136627
135600
134577
133561
132549
131543
130542
129544
128550
127560
126573
125589
124608
123629
122653
121679
120708
119739
118773
117810
116851
115895
114943
113995
113051
112113
111179
110251
109328
108411
107499
106592
105691
104794
103901
103012
102128
101248
100372
99500.2
98632.9
97770.2
96912.1
96058.3
95209.1
94364
93523.1
92685.9
91852.4
91022.2
90194.7
89370
88547
87726.4
86907.3
86090.4
85275.2
84462.5
83652.4
82845.5
82042
81242.4
80447.1
79656.2
78870
78088.6
77311.7
76539.2
75771.1
75007.4
74247.2
73490.8
72737.5
71988
71240.8
70495.9
69753.1
69012.1
68272.7
67535.5
66800.4
66067.8
65338.1
64612.1
63890.3
63172.4
62459.4
61751
61046.9
60347.8
59653.8
58964.4
58280.4
57600.4
56927.1
56255.8
55592.9
54930.1
54276.3
53622.3
52975.7
52329.3
51687.7
51047.3
50408.4
49771.5
49132.7
48495
47852.6
47209.1
46556.4
45901.5
45229.9
44552.6
43847.9
43133.4
42372.8
41604.5
40745.5
39897.4
38885.3
37865.8
36787.1
235642
232914
230473
228272
226258
224384
222613
220923
219296
217722
216191
214696
213231
211793
210377
208981
207603
206239
204889
203551
202225
200909
199603
198307
197019
195739
194467
193203
191946
190696
189453
188217
186988
185766
184550
183342
182140
180944
179754
178569
177390
176216
175047
173882
172722
171566
170414
169265
168121
166981
165845
164713
163585
162460
161339
160223
159110
158001
156897
155796
154699
153606
152516
151430
150347
149268
148192
147121
146054
144991
143932
142877
141826
140779
139735
138695
137658
136627
135600
134578
133562
132551
131545
130544
129546
128553
127562
126575
125592
124611
123632
122656
121682
120711
119742
118777
117814
116855
115901
114950
114004
113062
112125
111192
110266
109344
108427
107516
106610
105708
104810
103917
103028
102143
101262
100385
99513.5
98646.1
97783.8
96925.9
96073
95224.3
94380.1
93539.7
92703.5
91870.4
91041.1
90214.1
89389.9
88566.9
87746.3
86926.8
86109.7
85294.2
84481.5
83671.2
82864.6
82061.3
81262.6
80467.9
79678.3
78893.3
78113.5
77338
76567.3
75800.6
75038.5
74279.4
73524.2
72771.8
72023.2
71276.4
70532.1
69789.3
69048.3
68307.9
67569.6
66832.8
66098.3
65366.6
64639.1
63914.8
63195
62479.3
61768.4
61060.7
60358.3
59659.6
58965.3
58274.8
57588.1
56906.7
56227.2
55553.9
54882.7
54217.1
53554.1
52894.5
52238.2
51582.3
50929.9
50274.7
49623
48965.8
48312.2
47648.3
46989.3
46311.7
45641.4
44941
44249.2
43508.8
42783.2
41976.5
41198.9
40292.7
39417.7
38412.8
37392.9
36354.4
236445
233792
231357
229119
227047
225107
223271
221519
219837
218211
216633
215095
213593
212120
210672
209248
207843
206456
205085
203729
202385
201054
199734
198425
197126
195836
194555
193282
192017
190761
189511
188270
187036
185809
184589
183376
182170
180970
179776
178588
177406
176229
175057
173890
172727
171569
170416
169266
168121
166980
165843
164710
163581
162456
161335
160218
159106
157997
156893
155792
154695
153602
152513
151427
150345
149267
148193
147122
146055
144992
143934
142878
141827
140779
139735
138694
137658
136626
135600
134578
133563
132552
131546
130545
129548
128555
127565
126579
125595
124615
123636
122660
121687
120715
119747
118782
117821
116863
115910
114960
114016
113075
112140
111209
110283
109362
108446
107535
106629
105727
104829
103935
103045
102159
101278
100401
99528.6
98661.1
97799.1
96941.4
96089.2
95240.8
94397.3
93557.2
92721.6
91888.9
91060.3
90233.7
89409.7
88586.6
87765.8
86945.9
86128.6
85312.7
84499.9
83689.6
82883.3
82080.2
81282.3
80488
79699.6
78915.5
78137.3
77363.1
76594.4
75829.2
75069
74311.1
73557.4
72805.8
72058.5
71311.5
70568
69824.9
69083.8
68342.2
67603.2
66864.1
66128
65393.8
64664.9
63937.4
63216.2
62497.7
61784.4
61073.6
60368.1
59664.8
58965.8
58268.9
57576
56885.7
56199.1
55515.2
54835.9
54159.2
53487.1
52815.6
52149.1
51479.4
50815.1
50143.7
49479.2
48802.1
48136.1
47448.8
46777.8
46074.5
45392.8
44662.6
43960.3
43187.2
42449.3
41612.3
40812.1
39898.6
38994
38023.4
37024.6
36015.4
237122
234533
232115
229861
227752
225764
223877
222075
220343
218672
217052
215476
213937
212432
210956
209504
208075
206666
205275
203901
202541
201195
199862
198540
197230
195930
194640
193360
192088
190825
189570
188323
187083
185852
184628
183410
182200
180997
179799
178608
177423
176243
175068
173899
172734
171574
170419
169268
168122
166980
165842
164708
163579
162454
161333
160216
159103
157995
156890
155790
154694
153601
152512
151427
150346
149268
148194
147124
146057
144994
143935
142879
141827
140779
139734
138694
137657
136626
135600
134579
133563
132553
131548
130547
129550
128558
127569
126583
125600
124620
123642
122666
121693
120723
119755
118791
117830
116873
115921
114973
114030
113091
112157
111227
110303
109382
108467
107556
106649
105747
104848
103953
103063
102176
101295
100417
99544.6
98676.7
97814.7
96956.9
96105
95256.7
94413.6
93573.6
92738.3
91905.9
91077.6
90251
89427.2
88603.9
87782.9
86962.7
86145.1
85328.7
84515.9
83705.5
82899.4
82096.6
81299
80505.1
79717.7
78934.7
78158
77385.4
76618.7
75855
75096.6
74339.9
73587.7
72837.2
72090.7
71343.5
70600.7
69856.8
69115.9
68373.1
67633.8
66892.4
66155.4
65418.7
64688.2
63957.4
63234.7
62513.2
61798.1
61083.7
60375.7
59668
58964.8
58260.8
57562.6
56863.1
56170.2
55476.2
54789.4
54101.5
53421.5
52737.4
52062.6
51378.2
50704
50015.5
49340.3
48644.1
47966
47259.1
46574.2
45851.6
45154.4
44405.2
43683.8
42894.2
42132.4
41288.3
40461.6
39562.5
38648.1
37704.7
36726.7
35736.2
237704
235167
232771
230511
228379
226357
224431
222587
220815
219104
217446
215835
214265
212730
211226
209749
208298
206868
205458
204067
202692
201332
199985
198653
197332
196022
194724
193436
192157
190887
189627
188374
187130
185894
184666
183445
182231
181024
179823
178629
177440
176258
175081
173909
172742
171581
170424
169272
168125
166982
165843
164709
163579
162454
161333
160216
159103
157995
156890
155790
154694
153601
152513
151428
150347
149270
148196
147126
146059
144996
143937
142880
141828
140779
139734
138693
137656
136625
135599
134578
133563
132553
131549
130548
129552
128560
127572
126587
125605
124626
123649
122674
121702
120732
119765
118801
117841
116885
115934
114987
114046
113108
112176
111247
110322
109402
108487
107576
106670
105766
104867
103971
103080
102193
101311
100433
99559.8
98691.5
97829.1
96971
96118.7
95270.1
94426.5
93586.5
92751.3
91919.1
91091
90264.4
89440.6
88617.2
87795.9
86975.4
86157.3
85340.5
84527.4
83716.9
82910.8
82108.2
81310.6
80517.7
79731.1
78949.5
78174.4
77403.6
76638.8
75876.5
75119.3
74363.7
73612.6
72862.7
72116.9
71369.4
70627.2
69883.1
69141.8
68398.8
67658.9
66915.7
66177.6
65439
64706.2
63972.9
63248.3
62524.3
61807.1
61089.7
60379.1
59667.3
58960
58250
57545.6
56839.1
56138.4
55436.1
54740.8
54043.8
53354.9
52660.8
51976.3
51280.4
50594.2
49893.4
49203.6
48495.1
47799.9
47081.6
46378.3
45645.4
44928.3
44170.7
43428.3
42632.8
41850.3
41008.8
40167.2
39283.8
38371.6
37442.5
36477.4
35498.9
238208
235715
233341
231082
228936
226889
224933
223056
221249
219504
217814
216172
214572
213010
211481
209982
208509
207060
205633
204225
202836
201462
200104
198761
197430
196112
194805
193509
192224
190948
189682
188425
187176
185936
184703
183479
182261
181051
179847
178650
177459
176273
175094
173921
172752
171589
170431
169278
168129
166985
165846
164712
163582
162456
161335
160218
159105
157996
156892
155792
154695
153603
152514
151430
150349
149271
148198
147127
146060
144997
143937
142880
141827
140778
139732
138691
137655
136624
135598
134578
133563
132554
131549
130550
129554
128563
127575
126591
125611
124633
123657
122683
121711
120742
119775
118811
117852
116897
115947
115001
114061
113124
112193
111264
110341
109421
108506
107595
106688
105783
104883
103987
103095
102207
101324
100446
99572.5
98703.8
97840.7
96982
96128.8
95279.4
94435
93594.4
92758.9
91926.5
91098.4
90271.6
89447.5
88623.9
87802.3
86981.5
86163.1
85346
84532.6
83722
82916
82113.8
81316.7
80524.8
79739.3
78959.2
78185.5
77417.1
76653.2
75892.7
75136.2
74381.2
73630.7
72881.3
72135.9
71387.7
70645.8
69901.9
69159.9
68417.4
67676.6
66932.8
66193.1
65453
64717.5
63982.6
63255.2
62529.7
61809.8
61091
60377.3
59662.2
58950.2
58236.1
57525.3
56813.6
56104.5
55395.1
54691.4
53986.6
53288.4
52587.4
51891.6
51187.4
50488.3
49778.4
49073.2
48355.5
47644.4
46917.7
46198.5
45458.9
44725.8
43962.7
43204.6
42407.2
41611.7
40776.6
39927.3
39054.5
38144.6
37220.8
36264.1
35295.2
238653
236193
233838
231584
229428
227365
225385
223481
221646
219872
218154
216484
214859
213272
211721
210200
208708
207242
205798
204376
202972
201587
200218
198863
197524
196197
194882
193580
192288
191007
189736
188473
187220
185976
184740
183511
182291
181077
179871
178671
177477
176290
175109
173933
172763
171599
170439
169285
168135
166991
165851
164716
163585
162459
161337
160220
159107
157998
156894
155793
154697
153604
152515
151430
150349
149271
148197
147127
146060
144996
143935
142878
141825
140775
139730
138689
137653
136622
135596
134576
133562
132553
131549
130550
129555
128565
127578
126595
125616
124639
123665
122692
121721
120751
119785
118821
117862
116907
115958
115013
114073
113138
112207
111279
110356
109436
108521
107609
106701
105796
104896
103998
103106
102217
101334
100455
99580.8
98711.6
97847.6
96988.1
96133.6
95282.9
94437.4
93595.7
92759.4
91926.6
91098.1
90271.1
89446.6
88622.7
87800.8
86979.9
86161.4
85344.3
84531
83720.7
82915.1
82113.7
81317.5
80526.7
79742.4
78963.6
78191.6
77424.8
76662.1
75902.8
75146.8
74392.1
73641.3
72892.4
72146.2
71398.1
70656.6
69912.1
69169.7
68428.3
67686.2
66942.8
66201
65461.3
64721.6
63987.2
63255.4
62529.7
61805.9
61087.4
60370
59653.6
58935.7
58218.8
57500.8
56785
56068.8
55353.2
54641.7
53931.5
53223.1
52519.2
51810.7
51101.4
50389.7
49672.7
48954.2
48228.1
47504.7
46771.7
46040.4
45296.7
44551.3
43786.4
43016.3
42219.9
41414.4
40585.6
39729.8
38861.1
37953
37031
36081.9
35121.8
239045
236612
234273
232024
229864
227787
225789
223864
222005
220208
218465
216771
215123
213515
211943
210404
208894
207411
205953
204517
203101
201704
200324
198960
197612
196277
194956
193646
192349
191062
189786
188520
187262
186014
184775
183543
182319
181103
179894
178692
177496
176307
175124
173946
172775
171609
170448
169292
168142
166997
165856
164720
163589
162462
161340
160222
159109
158000
156895
155794
154697
153604
152515
151429
150348
149270
148195
147124
146056
144992
143931
142874
141821
140771
139726
138686
137650
136619
135593
134573
133559
132550
131547
130548
129554
128565
127580
126598
125620
124645
123671
122699
121728
120759
119792
118829
117870
116915
115966
115022
114082
113147
112217
111289
110366
109447
108531
107618
106710
105804
104902
104004
103111
102221
101337
100458
99583.2
98713.5
97848.7
96988.3
96132.4
95280.4
94433
93589.7
92752
91918.3
91089.2
90262.3
89437.5
88613.7
87791.6
86970.7
86152.4
85335.9
84523.3
83713.9
82909.5
82109.3
81314.5
80524.9
79741.8
78964
78193.2
77427.1
76665.4
75906.8
75151.2
74395.5
73644.9
72896.1
72147.6
71401.6
70658.7
69914.6
69172
68431.9
67687.5
66945.1
66201
65463.7
64718.4
63986.6
63248.2
62525.4
61796
61080
60357.1
59641.7
58916.1
58198.3
57473
56753.8
56031.2
55311.9
54593
53881.1
53161.9
52458.1
51737.5
51024.3
50302.1
49578
48849.8
48118.1
47384.7
46646.4
45905.1
45159.9
44403.7
43640.8
42858.2
42064.6
41248.6
40422.4
39561.7
38692.8
37787.6
36868.5
35927.4
34975.9
239389
236978
234654
232409
230246
228161
226149
224207
222329
220510
218747
217033
215365
213737
212147
210591
209066
207568
206096
204647
203220
201812
200423
199051
197694
196352
195024
193709
192406
191114
189834
188563
187302
186050
184807
183573
182346
181128
179916
178712
177514
176323
175138
173959
172786
171619
170457
169300
168148
167002
165860
164724
163592
162465
161342
160223
159109
158000
156894
155793
154696
153602
152512
151426
150344
149265
148190
147119
146051
144987
143926
142868
141815
140766
139721
138681
137645
136614
135589
134569
133554
132546
131543
130545
129552
128564
127580
126599
125623
124649
123676
122703
121733
120763
119797
118833
117874
116919
115970
115025
114086
113151
112221
111294
110370
109450
108534
107621
106711
105805
104903
104004
103109
102219
101335
100454
99579.6
98709.3
97843.7
96982.2
96125
95271.3
94422.1
93577
92737.6
91902.7
91072.8
90245
89420.3
88596.8
87775
86954.6
86137.2
85321.9
84510.8
83702.9
82900.2
82101.6
81308.5
80520.3
79738.1
78961.3
78191.1
77424.8
76664.1
75904.4
75148.9
74392.2
73640.9
72891.7
72141.7
71397.4
70652.1
69910
69167.2
68427.4
67681.9
66940.6
66194.6
65457.9
64710
63979.1
63234.7
62514.9
61778.5
61065.4
60337.2
59624.8
58890.6
58173.6
57441.7
56721.4
55994.2
55272
54547.4
53833.5
53105.8
52403.2
51673.5
50956
50227.2
49495.1
48760.8
48024.6
47281.7
46544.4
45793.8
45049.6
44279.1
43518.9
42723.8
41931
41106.1
40278.5
39416.1
38546.8
37645.6
36731
35798.4
34855.2
239690
237298
234984
232745
230581
228489
226466
224510
222616
220781
219000
217269
215583
213939
212333
210762
209222
207711
206227
204767
203329
201912
200514
199133
197770
196421
195087
193767
192459
191162
189878
188603
187339
186084
184838
183601
182372
181151
179937
178731
177531
176339
175152
173972
172797
171628
170465
169307
168154
167007
165864
164727
163594
162466
161342
160223
159108
157998
156892
155790
154692
153598
152508
151421
150338
149259
148184
147112
146044
144980
143919
142862
141808
140759
139715
138675
137640
136609
135584
134563
133549
132540
131537
130540
129548
128561
127578
126599
125623
124649
123677
122704
121733
120763
119797
118832
117874
116919
115969
115024
114085
113150
112220
111292
110368
109447
108530
107616
106706
105800
104897
103998
103103
102212
101327
100446
99571
98699.8
97833.6
96970.6
96112.2
95256.5
94405.7
93558.7
92717.7
91881.3
91050.3
90221.8
89397.1
88573.4
87752.9
86933.3
86117.4
85303.7
84494.5
83688.1
82887.3
82089.9
81298.6
80511.7
79731.1
78955.2
78185.8
77418.7
76658.9
75897
75140.6
74381.6
73630.5
72879.2
72128.6
71385.2
70639.6
69898.4
69155.9
68416.9
67671.8
66929.4
66184.3
65446.6
64697
63964.3
63218.5
62498
61757.8
61043.4
60312.6
59601.7
58863.4
58145
57410.1
56686.4
55957.2
55232.9
54504.9
53787
53057.5
52351.5
51615.2
50897.3
50161.3
49425.3
48684.3
47946.3
47198.3
46459.2
45699.1
44954.8
44174.7
43410.7
42608.7
41811.8
40981.8
40152.8
39290.4
38423
37526
36617.2
35693
34757.9
239952
237574
235270
233036
230871
228774
226743
224775
222869
221020
219224
217478
215777
214119
212499
210914
209362
207840
206344
204874
203427
202002
200596
199209
197838
196484
195145
193819
192507
191206
189918
188640
187373
186115
184866
183627
182395
181172
179957
178748
177547
176353
175164
173982
172806
171636
170471
169312
168158
167010
165866
164728
163594
162465
161341
160221
159106
157995
156888
155786
154687
153592
152501
151415
150332
149252
148177
147105
146037
144972
143912
142855
141802
140753
139709
138670
137635
136604
135578
134558
133543
132534
131531
130533
129542
128555
127574
126595
125620
124645
123673
122699
121729
120759
119792
118827
117869
116914
115964
115018
114079
113143
112213
111284
110360
109438
108520
107606
106696
105790
104887
103988
103093
102202
101316
100434
99558.3
98685.9
97819.1
96954.8
96095.3
95237.8
94385.7
93536.8
92694.7
91856.5
91024.6
90195.1
89370.3
88546.8
87727.4
86908.9
86095
85282.5
84475.2
83670.3
82871.2
82074.8
81284.9
80499.3
79720.2
78945.2
78176.9
77409
76649.2
75884.4
75126.3
74364.7
73612.8
72859.6
72111.5
71366
70621.9
69879.4
69138
68399.7
67656.5
66912
66170.8
65429.7
64680.6
63943.1
63198.7
62473.3
61732.9
61014.2
60284.2
59571.7
58831.9
58117.1
57378.1
56652.5
55919.3
55191
54461.6
53741
53010
52301.5
51563.9
50846.3
50103.7
49365.9
48621
47880.2
47128.7
46380.7
45622.1
44869.2
44083.6
43312.6
42508.2
41706.3
40875.5
40045.7
39184.3
38320.2
37427.6
36525.4
35609.2
34681.5
240177
237811
235515
233284
231118
229018
226980
225004
223087
221227
219419
217661
215948
214277
212645
211049
209486
207953
206449
204970
203515
202082
200669
199275
197900
196540
195196
193866
192550
191246
189954
188673
187403
186143
184892
183650
182417
181191
179974
178764
177561
176365
175175
173992
172814
171643
170477
169316
168161
167011
165867
164727
163593
162463
161338
160217
159101
157990
156883
155780
154681
153586
152494
151407
150324
149245
148169
147098
146030
144965
143905
142848
141796
140748
139704
138665
137630
136599
135573
134552
133537
132528
131524
130526
129534
128548
127567
126588
125612
124637
123664
122690
121719
120749
119782
118818
117860
116904
115954
115008
114069
113132
112202
111272
110348
109425
108507
107592
106683
105776
104874
103974
103079
102187
101301
100419
99543
98669.5
97801.9
96936
96075.4
95216.4
94363.3
93513
92670
91830.7
90998.2
90167.9
89342.9
88519.7
87701.2
86884.1
86071.5
85260.5
84454.6
83650.9
82852.9
82057.5
81269
80484.4
79707
78932.5
78164.7
77396
76634.7
75867.9
75107.3
74343.2
73591.2
72833.7
72088.9
71343.6
70600.3
69856.4
69116.6
68376.5
67636
66887.9
66153.5
65407.9
64661.3
63921.5
63178.9
62442.1
61705.6
60980.7
60249.8
59536.4
58800
58080.3
57343.5
56617.3
55879.4
55146
54419.2
53693.7
52968.1
52257.4
51514.5
50799.2
50055.8
49315.4
48568.1
47821.4
47070.2
46313.1
45553.5
44787.1
44004
43223.7
42421
41614.1
40786.6
39956.3
39097.1
38236.3
37348.6
36453.2
35543.7
34622.8
240369
238011
235721
233492
231326
229223
227180
225198
223273
221404
219586
217817
216094
214413
212771
211165
209593
208052
206539
205052
203590
202151
200733
199334
197953
196589
195241
193907
192587
191280
189986
188702
187429
186167
184914
183670
182435
181208
179989
178777
177573
176375
175184
173999
172820
171647
170480
169318
168162
167011
165866
164725
163590
162459
161333
160213
159096
157984
156877
155773
154674
153579
152488
151400
150317
149238
148162
147090
146022
144958
143898
142842
141790
140742
139699
138660
137625
136594
135568
134547
133531
132521
131517
130518
129526
128539
127557
126578
125600
124625
123651
122678
121707
120737
119769
118805
117847
116891
115940
114995
114056
113120
112189
111259
110334
109411
108493
107577
106667
105760
104858
103958
103063
102171
101285
100402
99525.6
98652.2
97783.5
96916.8
96054.6
95194.5
94340.3
93489.2
92645.7
91805.9
90972.9
90142.3
89317.2
88494.1
87676.1
86860
86047.9
85238.4
84433.6
83631.2
82834.1
82040.3
81252.8
80469.4
79692.8
78917.8
78149.6
77379.5
76615.7
75847
75085.8
74321.8
73565.4
72807.5
72064.1
71316.2
70575.4
69831.3
69090.6
68350.6
67614
66864.4
66131.5
65380.3
64642.6
63895
63150.2
62407.9
61680.2
60951.6
60219.5
59499
58763.9
58037.2
57306.5
56574.7
55838.9
55102.7
54381.3
53651.4
52928.8
52208.5
51472.2
50754.9
50012.7
49270
48525.4
47772.3
47015.5
46252.1
45491
44714.6
43932.2
43146
42350.3
41537.9
40715.9
39883.5
39027.5
38168.8
37287.3
36397.6
35493.1
34578.7
240527
238177
235890
233662
231496
229390
227344
225357
223426
221550
219725
217948
216216
214527
212876
211263
209683
208134
206615
205122
203654
202209
200786
199383
197998
196630
195278
193942
192619
191309
190012
188726
187452
186187
184932
183686
182450
181221
180000
178787
177582
176383
175190
174004
172824
171650
170482
169319
168162
167010
165864
164722
163586
162455
161329
160208
159091
157979
156871
155767
154668
153573
152481
151394
150311
149231
148156
147084
146016
144952
143892
142836
141784
140737
139694
138655
137620
136589
135563
134541
133525
132514
131510
130510
129517
128529
127545
126565
125586
124610
123635
122662
121691
120721
119754
118791
117832
116876
115926
114982
114042
113106
112175
111246
110320
109397
108477
107562
106651
105744
104841
103941
103046
102154
101267
100386
99508.3
98635.7
97765.8
96899.2
96035.2
95175.4
94319.7
93468.7
92624.5
91785.5
90951.3
90121.2
89295
88472.6
87653.9
86838.7
86026.3
85218.2
84413.1
83612.5
82815.6
82023.5
81236.3
80454
79676.4
78901.2
78130.7
77359.5
76592.7
75823.6
75060.5
74297
73542.1
72785
72037.2
71289.8
70548.8
69803.8
69065.6
68324.9
67587
66839.5
66107.5
65353.7
64615.1
63859.7
63123.8
62379.1
61653.1
60922
60186.9
59455.6
58725.5
57997.3
57267.9
56528.4
55801.8
55066.5
54343.9
53613.6
52895.3
52164.5
51438.6
50707.4
49974.7
49230.4
48485.5
47726.5
46969
46201.3
45431.3
44653.1
43874.2
43086
42292.4
41480.5
40661.9
39827.4
38975.6
38116.6
37241.3
36354.7
35454.6
34546.3
240654
238309
236023
233796
231629
229522
227474
225483
223548
221666
219835
218052
216314
214618
212961
211341
209755
208201
206676
205178
203705
202256
200829
199422
198034
196663
195309
193970
192645
191333
190033
188746
187469
186203
184946
183699
182461
181231
180009
178795
177588
176388
175195
174008
172827
171652
170483
169319
168161
167009
165861
164720
163583
162452
161325
160204
159087
157974
156866
155762
154663
153568
152476
151389
150305
149225
148150
147078
146010
144946
143887
142831
141779
140732
139689
138651
137616
136585
135558
134536
133520
132509
131503
130503
129508
128519
127533
126552
125572
124595
123620
122647
121675
120706
119739
118777
117817
116863
115913
114969
114029
113094
112161
111233
110306
109384
108463
107548
106636
105729
104825
103926
103030
102139
101252
100371
99492.7
98621.1
97750.3
96884.2
96019.4
95160.1
94303.6
93453.3
92608.5
91769.9
90934.8
90105.3
89277.9
88456
87635.9
86821.1
86007.9
85200.6
84394.8
83595.3
82798.3
82007.3
81219.2
80437.4
79657.7
78882.3
78108.7
77337
76567.2
75800
75035.2
74275.6
73517.1
72761.3
72012.7
71264.6
70520.3
69778.3
69040
68296.9
67558.7
66814.5
66077.8
65323.6
64585.9
63833.9
63101.1
62348.1
61624.2
60884.1
60150.8
59422.8
58692.7
57957.5
57228
56488.5
55766.3
55030.4
54312.1
53584.5
52864.5
52125.9
51406.4
50664.8
49937.9
49190.9
48452.4
47687
46930.5
46156.6
45385.6
44609.5
43828.5
43040.6
42248.1
41440.6
40620.5
39787.2
38937.9
38079.1
37207.1
36322.3
35426.6
34522.5
240749
238407
236121
233894
231728
229620
227571
225578
223639
221754
219918
218130
216387
214686
213024
211400
209809
208250
206721
205220
203744
202292
200862
199452
198061
196688
195332
193990
192663
191350
190049
188760
187482
186214
184957
183709
182469
181239
180016
178801
177593
176392
175198
174010
172828
171653
170483
169319
168161
167008
165860
164718
163581
162449
161323
160201
159084
157971
156863
155759
154659
153564
152472
151384
150301
149221
148145
147073
146005
144942
143882
142826
141775
140728
139685
138647
137612
136581
135554
134532
133515
132504
131498
130497
129501
128510
127523
126540
125559
124583
123606
122634
121662
120694
119727
118766
117805
116853
115901
114959
114017
113083
112150
111223
110295
109374
108452
107538
106625
105718
104813
103915
103017
102128
101239
100359
99480.5
98609.6
97738.5
96873.8
96008.9
95151.3
94293.7
93444.5
92598.2
91760.1
90923.7
90095
89266.7
88445.2
87623.4
86808.6
85993.8
85186.5
84379.5
83580.6
82782.6
81992.3
81202.7
80420.7
79639
78863.1
78086.5
77315.2
76543.2
75779.4
75012
74255.3
73494.4
72742.2
71988.7
71242.6
70495.2
69755.1
69012.3
68271.4
67532
66788.8
66047.8
65298.3
64559.2
63807.4
63075.8
62321.4
61596.2
60849.8
60122.2
59389.5
58657.1
57923.1
57193.9
56456.2
55735.4
54999.9
54283.5
53554.1
52833.7
52095
51373.8
50632.9
49908.7
49158.4
48420.5
47652.1
46899.4
46121.7
45351.8
44577