/*--------------------------------*- C++ -*----------------------------------*\
| =========                 |                                                 |
| \\      /  F ield         | OpenFOAM: The Open Source CFD Toolbox           |
|  \\    /   O peration     | Version:  2.4.0                                 |
|   \\  /    A nd           | Web:      www.OpenFOAM.org                      |
|    \\/     M anipulation  |                                                 |
\*---------------------------------------------------------------------------*/
FoamFile
{
    version     2.0;
    format      ascii;
    class       volVectorField;
    location    "1.44";
    object      U;
}
// * * * * * * * * * * * * * * * * * * * * * * * * * * * * * * * * * * * * * //

dimensions      [0 1 -1 0 0 0 0];

internalField   nonuniform List<vector> 
8800
(
(8.10933 0.386471 0)
(5.38231 0.24843 0)
(3.95759 0.0272777 0)
(3.0448 0.00215759 0)
(2.95671 -0.0368567 0)
(2.34955 0.0111667 0)
(2.83542 -0.0318879 0)
(2.03224 0.0290531 0)
(2.7594 -0.0206174 0)
(1.94029 0.00594354 0)
(2.63495 0.0155596 0)
(1.89347 -0.0236956 0)
(2.63907 0.00218309 0)
(1.79095 0.0234336 0)
(2.59616 -0.0286551 0)
(1.84267 0.0198742 0)
(2.5218 0.000320314 0)
(1.75766 -0.000848639 0)
(2.66921 0.00530798 0)
(1.51937 -0.09504 0)
(10.1414 0.842212 0)
(9.49161 0.890905 0)
(9.05208 0.452651 0)
(7.68676 0.307873 0)
(8.07867 0.0879515 0)
(6.15555 0.131802 0)
(7.87654 -0.0252122 0)
(5.13775 0.106737 0)
(7.81382 -0.0442141 0)
(4.85058 0.0505429 0)
(7.36161 0.0390787 0)
(4.98006 -0.0397424 0)
(7.03736 0.0157357 0)
(4.75852 0.0739829 0)
(7.16891 -0.0960266 0)
(4.61144 0.0714385 0)
(7.12861 0.00187003 0)
(4.50491 -0.0145297 0)
(7.28964 -0.00663274 0)
(4.35252 -0.0262376 0)
(10.149 0.647556 0)
(10.3692 0.899102 0)
(11.2883 0.520605 0)
(9.79698 0.430668 0)
(11.7289 0.191481 0)
(8.29396 0.259504 0)
(12.096 0.0223979 0)
(7.03833 0.234386 0)
(12.1126 -0.0762911 0)
(6.99093 0.155145 0)
(11.2804 0.0334878 0)
(7.45496 -0.0170673 0)
(10.7932 0.0499378 0)
(6.89133 0.115325 0)
(11.192 -0.145406 0)
(6.49062 0.124646 0)
(11.2136 -0.0178623 0)
(6.39755 0.00354506 0)
(11.3588 -0.0490642 0)
(6.30458 -0.00507685 0)
(10.1307 0.502463 0)
(9.9503 0.71386 0)
(12.1482 0.499944 0)
(9.47743 0.375234 0)
(13.9247 0.228482 0)
(8.18607 0.283776 0)
(15.0121 0.0385661 0)
(7.62502 0.344552 0)
(14.9005 -0.196872 0)
(8.55305 0.358426 0)
(14.0437 -0.0553218 0)
(8.79335 0.00133835 0)
(14.0593 0.173311 0)
(7.9744 0.099919 0)
(14.3724 -0.174074 0)
(7.72172 0.208076 0)
(14.55 -0.0436398 0)
(7.50505 0.0118628 0)
(14.6299 -0.115118 0)
(7.82923 0.0968598 0)
(10.4817 0.488272 0)
(8.90194 0.453683 0)
(12.9507 0.557353 0)
(7.93002 0.183855 0)
(15.2617 0.261097 0)
(6.97964 0.21279 0)
(16.0359 -0.136991 0)
(8.19312 0.607614 0)
(14.9031 -0.59503 0)
(9.35046 0.482006 0)
(15.4146 0.024343 0)
(8.1082 -0.132585 0)
(15.8637 0.245634 0)
(8.63049 0.187165 0)
(15.3403 -0.305486 0)
(8.68556 0.279229 0)
(15.9766 -0.0571557 0)
(8.44657 0.0862903 0)
(15.529 -0.303114 0)
(9.34784 0.246941 0)
(10.8433 0.52835 0)
(8.35696 0.16197 0)
(13.3161 0.679227 0)
(7.90268 -0.00238324 0)
(15.2164 0.210855 0)
(8.39545 0.384633 0)
(14.6874 -0.581426 0)
(10.198 0.899402 0)
(13.8292 -0.740165 0)
(9.4701 0.314676 0)
(15.5617 0.220584 0)
(8.15869 -0.181615 0)
(15.4295 0.062196 0)
(9.95989 0.356664 0)
(14.4913 -0.402212 0)
(9.66232 0.228847 0)
(15.4454 -0.105366 0)
(9.77173 0.242555 0)
(14.4132 -0.486397 0)
(10.4804 0.314861 0)
(9.17597 0.583825 0)
(10.5981 -0.19233 0)
(12.2581 0.623662 0)
(10.5295 -0.0380961 0)
(14.0094 -0.0315531 0)
(11.1738 0.593997 0)
(13.256 -0.906098 0)
(11.5769 1.06032 0)
(13.495 -0.628556 0)
(9.89246 0.203385 0)
(15.0489 0.349407 0)
(9.45534 -0.122235 0)
(14.4567 -0.162788 0)
(10.9986 0.537247 0)
(13.9648 -0.439668 0)
(10.4452 0.19087 0)
(14.6361 -0.183765 0)
(10.9223 0.421618 0)
(13.5013 -0.573631 0)
(11.181 0.381313 0)
(6.4895 0.592336 0)
(14.1812 -0.633773 0)
(9.22544 0.631016 0)
(13.4066 -0.261011 0)
(11.9758 -0.192674 0)
(12.5642 0.814841 0)
(11.6652 -0.995489 0)
(12.5382 1.03291 0)
(12.4442 -0.505541 0)
(10.8229 0.0711335 0)
(13.9455 0.266584 0)
(10.671 -0.0324559 0)
(13.4635 -0.346831 0)
(11.5536 0.527574 0)
(13.3333 -0.432648 0)
(11.0912 0.198041 0)
(13.6584 -0.288047 0)
(11.5001 0.511103 0)
(12.9163 -0.530747 0)
(11.4625 0.234393 0)
(5.80056 0.373856 0)
(15.2349 -0.688996 0)
(5.71167 0.696658 0)
(15.6128 -0.496614 0)
(7.71142 0.0224103 0)
(13.9732 0.746305 0)
(10.2662 -1.01769 0)
(11.7558 1.16144 0)
(12.2317 -0.47113 0)
(11.2117 -0.0137595 0)
(12.1668 0.345414 0)
(12.0501 -0.0554197 0)
(12.2062 -0.360826 0)
(11.4223 0.609156 0)
(12.7768 -0.421624 0)
(11.6706 0.166551 0)
(12.4279 -0.272131 0)
(11.6516 0.526143 0)
(12.7258 -0.427929 0)
(11.7253 -0.0280038 0)
(6.47976 0.236344 0)
(14.7059 -0.557641 0)
(5.15541 0.45097 0)
(15.8271 -0.45759 0)
(5.18717 0.100613 0)
(15.2267 0.346264 0)
(8.61345 -0.613881 0)
(10.6845 0.930555 0)
(13.3614 -0.479753 0)
(9.21783 0.327825 0)
(12.0608 -0.0410972 0)
(12.6581 0.00597772 0)
(10.5927 -0.135094 0)
(11.602 0.435715 0)
(12.6862 -0.465736 0)
(11.4528 0.355089 0)
(11.3148 -0.212375 0)
(11.9195 0.306781 0)
(12.7828 -0.323245 0)
(11.2451 0.00186194 0)
(7.77941 0.0207962 0)
(13.7642 -0.371264 0)
(5.82444 0.262324 0)
(15.3618 -0.318478 0)
(5.22386 0.0955882 0)
(15.4228 0.00657773 0)
(7.95274 -0.12669 0)
(11.8218 0.171895 0)
(12.8203 -0.340276 0)
(9.21605 0.474097 0)
(12.4017 -0.603242 0)
(12.054 0.221982 0)
(10.3092 -0.0663112 0)
(12.1339 0.0116809 0)
(12.1632 -0.380292 0)
(11.283 0.460224 0)
(11.3183 -0.307189 0)
(12.1573 -0.00994743 0)
(12.4949 -0.17018 0)
(11.0227 0.156796 0)
(9.26477 -0.186294 0)
(11.8759 -0.11886 0)
(7.9561 -0.0490308 0)
(14.0839 -0.183258 0)
(7.11649 0.0152844 0)
(14.958 -0.188004 0)
(7.84905 0.135982 0)
(13.6598 -0.259621 0)
(10.6377 -0.0805373 0)
(11.3952 0.46409 0)
(12.0929 -0.734205 0)
(11.6651 0.451345 0)
(10.6966 -0.0627167 0)
(12.9735 -0.15825 0)
(11.2655 -0.213332 0)
(11.852 0.447179 0)
(11.7528 -0.296023 0)
(12.5987 -0.141036 0)
(11.9158 0.0127868 0)
(11.5754 0.2702 0)
(9.88255 -0.25063 0)
(10.5066 -0.099012 0)
(10.0039 -0.34331 0)
(12.2036 -0.0106807 0)
(9.7127 -0.179513 0)
(13.3894 -0.0932128 0)
(9.27334 0.0855527 0)
(13.8653 -0.33665 0)
(9.43186 0.0858029 0)
(13.3705 0.205218 0)
(11.0822 -0.631174 0)
(12.243 0.546191 0)
(11.1776 -0.195665 0)
(13.4896 -0.190441 0)
(10.7498 -0.0272896 0)
(12.7838 0.270161 0)
(12.1695 -0.350075 0)
(13.0544 -0.161055 0)
(11.54 0.131511 0)
(12.6036 0.155535 0)
(9.77851 -0.283756 0)
(10.4827 -0.210906 0)
(10.4846 -0.434608 0)
(11.3721 -0.0375189 0)
(11.0679 -0.256234 0)
(11.9165 -0.0490935 0)
(11.1453 -0.0762053 0)
(12.4984 -0.225746 0)
(10.7135 -0.0179016 0)
(12.9715 0.0890549 0)
(11.2096 -0.439944 0)
(12.6872 0.3199 0)
(11.5309 -0.23565 0)
(13.4987 -0.191156 0)
(11.126 0.0486243 0)
(13.1611 0.0086664 0)
(12.4406 -0.297196 0)
(12.9909 -0.112455 0)
(11.7047 0.117405 0)
(13.2878 -0.0819377 0)
(9.61207 -0.327607 0)
(10.7093 -0.361278 0)
(10.545 -0.492531 0)
(11.4476 -0.111275 0)
(11.3383 -0.289354 0)
(11.6536 -0.0912628 0)
(11.7 -0.118885 0)
(11.9048 -0.205288 0)
(11.7033 -0.0742656 0)
(12.2471 0.030553 0)
(11.9733 -0.406892 0)
(12.3234 0.241359 0)
(12.0226 -0.268992 0)
(12.9347 -0.193774 0)
(11.6824 0.112856 0)
(12.7979 -0.146075 0)
(12.4929 -0.229528 0)
(12.4489 -0.064893 0)
(12.0756 0.00968104 0)
(12.8987 -0.196997 0)
(9.5471 -0.396995 0)
(10.9191 -0.519658 0)
(10.5404 -0.510846 0)
(11.6588 -0.22621 0)
(11.4131 -0.28826 0)
(11.7334 -0.152281 0)
(11.8317 -0.163116 0)
(11.8182 -0.204969 0)
(11.8569 -0.114588 0)
(12.0818 -0.0383055 0)
(11.8394 -0.332228 0)
(12.0591 0.149117 0)
(11.9652 -0.251914 0)
(12.0355 -0.167195 0)
(11.7801 0.0956588 0)
(12.0404 -0.198551 0)
(11.8764 -0.159036 0)
(11.6597 -0.0651638 0)
(11.764 -0.0627298 0)
(11.6597 -0.188933 0)
(9.66228 -0.499032 0)
(10.9279 -0.675394 0)
(10.6938 -0.551772 0)
(11.7201 -0.335615 0)
(11.2653 -0.302064 0)
(11.5694 -0.22001 0)
(11.411 -0.177867 0)
(11.2903 -0.19262 0)
(11.2134 -0.137232 0)
(11.2629 -0.051075 0)
(10.8269 -0.259669 0)
(11.0811 0.0701827 0)
(10.8007 -0.180661 0)
(10.5724 -0.135577 0)
(10.7245 0.0574766 0)
(10.4386 -0.151566 0)
(10.3907 -0.105273 0)
(10.1632 -0.0720284 0)
(10.2361 -0.0479039 0)
(9.86828 -0.186497 0)
(9.90657 -0.66395 0)
(10.7989 -0.835483 0)
(10.5632 -0.599862 0)
(10.9221 -0.379091 0)
(10.2124 -0.269778 0)
(10.1912 -0.201892 0)
(9.72437 -0.13006 0)
(9.50625 -0.131854 0)
(9.23853 -0.0958669 0)
(9.18527 -0.0197348 0)
(8.70635 -0.161497 0)
(8.9024 0.0456758 0)
(8.55677 -0.0942844 0)
(8.33839 -0.0922568 0)
(8.51027 0.0427442 0)
(8.11462 -0.0812451 0)
(8.15456 -0.0739194 0)
(7.90583 -0.0446775 0)
(7.93694 -0.0363566 0)
(7.57909 -0.103621 0)
(10.0227 -0.852562 0)
(9.67332 -0.850734 0)
(8.72724 -0.505217 0)
(8.20639 -0.268541 0)
(7.34098 -0.1426 0)
(7.06753 -0.090656 0)
(6.59594 -0.0364503 0)
(6.42708 -0.0466247 0)
(6.15505 -0.0348965 0)
(6.1365 0.0112525 0)
(5.78034 -0.0762166 0)
(5.89783 0.029356 0)
(5.66697 -0.030031 0)
(5.51174 -0.0546246 0)
(5.59965 0.0316031 0)
(5.34859 -0.0314962 0)
(5.36555 -0.0440175 0)
(5.14843 -0.0183362 0)
(5.17902 -0.0152464 0)
(4.89632 -0.0266547 0)
(8.07791 -0.391135 0)
(5.42482 -0.237477 0)
(3.88762 -0.0449185 0)
(3.19698 0.0118925 0)
(2.7518 0.01929 0)
(2.60255 0.00716984 0)
(2.43829 0.0124273 0)
(2.39981 -0.00161837 0)
(2.27642 -0.000961341 0)
(2.30834 0.0119254 0)
(2.16065 -0.0163455 0)
(2.18671 0.012613 0)
(2.14286 0.000349072 0)
(2.04831 -0.0146121 0)
(2.06557 0.0152822 0)
(2.02479 -0.00347538 0)
(1.98486 -0.00990836 0)
(1.87443 -0.000139667 0)
(1.88422 0.0012659 0)
(1.75294 0.00878857 0)
(2.72494 0.0115271 0)
(2.28843 0.122575 0)
(2.96187 0.0805607 0)
(2.47145 0.0420126 0)
(3.25409 -0.0737023 0)
(2.75233 -0.0693233 0)
(3.59183 -0.0890741 0)
(3.10942 -0.0174587 0)
(3.96625 -0.031098 0)
(3.43846 -0.0143584 0)
(4.26827 -0.0949145 0)
(3.66619 -0.154101 0)
(4.41282 -0.332867 0)
(3.66761 -0.498144 0)
(4.23284 -0.768814 0)
(3.36673 -0.925137 0)
(3.77329 -1.05877 0)
(3.06979 -0.938276 0)
(3.56209 -0.716085 0)
(3.24581 -0.265821 0)
(3.82092 0.181712 0)
(3.5511 0.71257 0)
(4.1152 1.10186 0)
(3.60339 1.51341 0)
(4.39295 1.73476 0)
(3.55845 1.93648 0)
(4.83639 1.88646 0)
(3.63003 1.77557 0)
(5.38773 1.40007 0)
(3.85135 1.01418 0)
(5.90523 0.408657 0)
(4.19519 -0.122355 0)
(6.3213 -0.812604 0)
(4.648 -1.34829 0)
(6.68572 -1.93266 0)
(5.21434 -2.19499 0)
(7.00537 -2.32908 0)
(5.75564 -2.09037 0)
(7.27066 -1.78307 0)
(6.07031 -1.29501 0)
(7.19509 -0.97064 0)
(5.66591 -0.627953 0)
(6.51382 -0.476051 0)
(4.76376 -0.206904 0)
(5.77493 -0.0800097 0)
(3.95734 0.202448 0)
(5.28014 0.308453 0)
(3.34484 0.567976 0)
(5.05344 0.650562 0)
(2.89168 0.880196 0)
(5.06824 0.920615 0)
(2.58893 1.09413 0)
(5.23238 1.05534 0)
(2.43396 1.17601 0)
(5.42545 1.05384 0)
(2.43648 1.09286 0)
(5.64445 0.856462 0)
(2.60295 0.780792 0)
(5.88434 0.44938 0)
(2.88949 0.327823 0)
(6.10453 -0.0324148 0)
(3.23523 -0.0814086 0)
(6.29756 -0.389494 0)
(3.57945 -0.32752 0)
(6.4659 -0.55569 0)
(3.88387 -0.40106 0)
(6.56619 -0.557928 0)
(4.15205 -0.394817 0)
(6.60455 -0.510642 0)
(4.36613 -0.380389 0)
(6.6528 -0.479242 0)
(4.5121 -0.345537 0)
(6.65312 -0.451528 0)
(4.58439 -0.320315 0)
(6.53532 -0.399088 0)
(4.48567 -0.244753 0)
(6.26835 -0.275519 0)
(4.26629 -0.0313109 0)
(5.92384 0.0529062 0)
(4.0754 0.366276 0)
(5.77227 0.547041 0)
(4.06986 0.902464 0)
(5.96626 1.05862 0)
(4.26083 1.33036 0)
(6.2614 1.36721 0)
(4.47737 1.51664 0)
(6.63317 1.39644 0)
(4.7548 1.35812 0)
(6.97774 1.1064 0)
(5.02099 0.932223 0)
(7.23648 0.583629 0)
(5.29992 0.373304 0)
(7.48864 -0.0556989 0)
(5.57334 -0.288779 0)
(7.79412 -0.649848 0)
(5.979 -0.823521 0)
(8.16895 -1.17161 0)
(6.3878 -1.27092 0)
(8.49426 -1.46497 0)
(6.68566 -1.37675 0)
(8.71934 -1.37781 0)
(7.00498 -1.16316 0)
(9.01421 -1.09373 0)
(7.28519 -0.753424 0)
(9.24873 -0.632511 0)
(7.44295 -0.300336 0)
(9.19383 -0.222203 0)
(7.44737 -0.0804412 0)
(9.08235 -0.11313 0)
(7.23328 -0.0394753 0)
(9.02125 -0.10379 0)
(7.14141 0.064018 0)
(9.02863 -0.0235506 0)
(7.28135 0.0591981 0)
(9.30698 -0.002152 0)
(7.65271 0.0710449 0)
(9.64808 -0.0954515 0)
(7.87941 -0.26716 0)
(9.78451 -0.678899 0)
(7.74945 -0.792842 0)
(9.50605 -1.09261 0)
(7.45687 -1.27716 0)
(9.06283 -1.66171 0)
(6.73915 -1.80175 0)
(8.19736 -2.24111 0)
(6.31612 -2.25455 0)
(7.54221 -2.50674 0)
(6.02763 -2.29767 0)
(6.72186 -2.43026 0)
(5.70092 -2.15848 0)
(5.68229 -2.20016 0)
(5.2259 -1.51522 0)
(4.74864 -1.11586 0)
(4.63214 -0.329555 0)
(3.77446 0.0703036 0)
(4.03187 1.0244 0)
(3.14011 1.42448 0)
(3.85338 2.60023 0)
(3.68792 2.73268 0)
(3.83214 3.77503 0)
(5.38673 3.6609 0)
(3.29019 3.9912 0)
(6.65768 3.7231 0)
(3.399 3.81606 0)
(6.89396 3.08715 0)
(4.11257 3.11361 0)
(6.91279 2.20336 0)
(4.60073 2.45882 0)
(7.18446 1.70475 0)
(4.84329 1.92532 0)
(7.73014 1.16228 0)
(5.02768 1.41712 0)
(8.19162 0.542338 0)
(5.24663 1.02283 0)
(8.40706 0.276133 0)
(5.30904 0.822734 0)
(8.69498 -0.134597 0)
(5.44798 0.497838 0)
(9.23913 -0.929347 0)
(6.03375 -0.306757 0)
(9.77411 -1.51509 0)
(6.86802 -1.03401 0)
(10.303 -2.05289 0)
(7.85336 -1.47465 0)
(10.608 -2.47826 0)
(9.10071 -2.15827 0)
(10.9262 -3.05709 0)
(10.4486 -3.19985 0)
(11.4282 -3.83353 0)
(11.7699 -4.29187 0)
(11.9219 -4.47824 0)
(12.6486 -4.88219 0)
(12.3963 -4.67342 0)
(12.821 -4.71042 0)
(12.563 -4.3819 0)
(12.5889 -4.04407 0)
(12.6086 -3.74814 0)
(12.0012 -3.21341 0)
(12.3044 -2.89117 0)
(11.5362 -2.39 0)
(11.7826 -1.97988 0)
(10.9456 -1.49209 0)
(11.0853 -1.12768 0)
(10.4034 -0.685327 0)
(10.4107 -0.143433 0)
(9.6069 -0.0686462 0)
(9.78334 0.667939 0)
(8.92325 0.618572 0)
(9.04684 1.27485 0)
(8.29385 1.46226 0)
(8.27955 2.02204 0)
(7.54957 2.31557 0)
(7.57615 2.81208 0)
(6.97465 3.28678 0)
(6.55709 3.42305 0)
(6.50098 4.50213 0)
(6.21958 5.2155 0)
(6.89123 6.67449 0)
(7.47835 7.54595 0)
(4.4638 9.70621 0)
(6.39844 0.0346954 0)
(5.36152 0.130361 0)
(6.37636 0.0390072 0)
(5.31975 -0.0157825 0)
(6.56562 -0.160067 0)
(5.51121 -0.159311 0)
(6.86723 -0.223242 0)
(5.77397 -0.160997 0)
(7.17145 -0.201219 0)
(6.01779 -0.158591 0)
(7.43958 -0.2288 0)
(6.26518 -0.232926 0)
(7.6718 -0.35263 0)
(6.41577 -0.432072 0)
(7.73445 -0.610086 0)
(6.33406 -0.622958 0)
(7.3495 -0.65305 0)
(5.59418 -0.536537 0)
(6.45154 -0.506676 0)
(4.73364 -0.285667 0)
(5.99351 -0.0444208 0)
(4.58446 0.442564 0)
(6.30524 0.886517 0)
(4.87582 1.4013 0)
(6.90341 1.69414 0)
(5.13985 1.92516 0)
(7.48757 1.8765 0)
(5.40958 1.76468 0)
(8.02651 1.35736 0)
(5.8078 0.929648 0)
(8.56128 0.271536 0)
(6.35163 -0.280833 0)
(9.06528 -0.997876 0)
(6.84536 -1.56542 0)
(9.40382 -2.15509 0)
(7.25992 -2.37325 0)
(9.62364 -2.44026 0)
(7.44634 -2.19412 0)
(9.53533 -1.93114 0)
(7.47382 -1.42612 0)
(9.55967 -0.95224 0)
(7.4627 -0.385014 0)
(9.25745 -0.0515741 0)
(6.5881 0.257528 0)
(8.28074 0.326827 0)
(5.25678 0.490617 0)
(7.4097 0.488245 0)
(4.30374 0.690639 0)
(6.9813 0.718566 0)
(3.81992 0.958619 0)
(6.86044 0.944529 0)
(3.70421 1.14245 0)
(6.92402 1.03722 0)
(3.86739 1.16614 0)
(7.09837 0.980103 0)
(4.20492 1.02033 0)
(7.33575 0.735288 0)
(4.62887 0.679907 0)
(7.58829 0.303165 0)
(5.05386 0.214442 0)
(7.84606 -0.166831 0)
(5.43802 -0.216609 0)
(8.09771 -0.513987 0)
(5.7645 -0.475867 0)
(8.32126 -0.666324 0)
(6.08327 -0.538835 0)
(8.50178 -0.623343 0)
(6.33659 -0.440571 0)
(8.59872 -0.467538 0)
(6.38426 -0.29405 0)
(8.49524 -0.364768 0)
(6.16165 -0.225167 0)
(8.18685 -0.338913 0)
(5.77234 -0.219438 0)
(7.8202 -0.317248 0)
(5.32993 -0.151556 0)
(7.4587 -0.182501 0)
(4.93907 0.0475256 0)
(7.1605 0.122924 0)
(4.69587 0.407883 0)
(7.05199 0.532712 0)
(4.71727 0.850617 0)
(7.20112 0.945852 0)
(5.02715 1.20473 0)
(7.47885 1.22735 0)
(5.47367 1.35611 0)
(7.82041 1.24694 0)
(5.98705 1.22454 0)
(8.14836 0.956649 0)
(6.44704 0.814103 0)
(8.45629 0.462013 0)
(6.87923 0.231497 0)
(8.77999 -0.178712 0)
(7.32449 -0.420048 0)
(9.17379 -0.83281 0)
(7.74296 -1.0591 0)
(9.56731 -1.41217 0)
(8.09356 -1.48352 0)
(9.87372 -1.63022 0)
(8.41546 -1.51221 0)
(10.1446 -1.48728 0)
(8.64591 -1.25162 0)
(10.3016 -1.13679 0)
(8.69926 -0.810981 0)
(10.3447 -0.692166 0)
(8.77843 -0.394726 0)
(10.3982 -0.320014 0)
(8.91275 -0.101816 0)
(10.449 -0.0119505 0)
(8.77118 0.134026 0)
(10.22 0.0811554 0)
(8.38185 0.166674 0)
(9.96358 0.0235796 0)
(8.04805 0.024043 0)
(9.85034 -0.184495 0)
(8.09602 -0.0969882 0)
(10.0117 -0.170659 0)
(8.22397 -0.30297 0)
(10.2521 -0.671662 0)
(8.13787 -0.628501 0)
(10.1347 -0.892572 0)
(7.95026 -1.16128 0)
(9.98676 -1.50691 0)
(7.55557 -1.47242 0)
(9.69432 -1.899 0)
(7.11777 -2.02482 0)
(9.04278 -2.21247 0)
(6.5209 -1.98232 0)
(8.33766 -2.30104 0)
(6.2951 -2.00176 0)
(7.62947 -1.94771 0)
(5.95281 -1.26861 0)
(6.81984 -0.99218 0)
(5.66514 0.0319813 0)
(6.13689 0.330448 0)
(4.94185 1.27629 0)
(5.74773 1.50085 0)
(4.20287 2.48031 0)
(6.38016 2.68818 0)
(3.74633 3.3964 0)
(7.36819 3.39034 0)
(4.09597 3.79433 0)
(7.61573 3.42392 0)
(4.969 3.63837 0)
(7.55685 2.90649 0)
(5.62086 2.96604 0)
(7.77814 2.18954 0)
(5.85121 2.30001 0)
(8.28186 1.7116 0)
(6.01666 1.8829 0)
(8.72496 1.00135 0)
(6.28248 1.37782 0)
(8.85816 0.488245 0)
(6.39798 0.991323 0)
(9.03783 0.260421 0)
(6.3059 0.783633 0)
(9.53375 -0.290548 0)
(6.57021 0.296907 0)
(10.0971 -1.15365 0)
(7.31709 -0.565793 0)
(10.7001 -1.92135 0)
(7.92626 -1.15132 0)
(11.4737 -2.48578 0)
(8.44084 -1.63639 0)
(12.1773 -2.86581 0)
(9.4054 -2.43824 0)
(12.7756 -3.49644 0)
(10.8583 -3.54738 0)
(13.2661 -4.31093 0)
(12.3734 -4.53673 0)
(13.3517 -4.89297 0)
(13.5717 -4.89911 0)
(13.0263 -4.89622 0)
(13.9691 -4.58292 0)
(12.7712 -4.33341 0)
(13.6997 -3.92792 0)
(12.5808 -3.55277 0)
(13.0434 -2.98421 0)
(12.4165 -2.73657 0)
(12.264 -2.00232 0)
(12.0674 -1.80207 0)
(11.4275 -1.15174 0)
(11.6304 -0.87251 0)
(10.5326 -0.350829 0)
(10.9732 0.0576132 0)
(9.81308 0.435573 0)
(10.0845 0.673004 0)
(9.32045 1.19263 0)
(9.23682 1.27381 0)
(8.80752 1.96803 0)
(8.52623 2.08789 0)
(8.39281 2.81511 0)
(7.72 2.89656 0)
(8.15002 3.75345 0)
(7.011 3.89879 0)
(7.16312 4.47535 0)
(7.34476 5.4032 0)
(6.47711 6.62354 0)
(9.97795 6.66658 0)
(7.65708 10.8287 0)
(9.72672 0.0243577 0)
(8.10936 0.147185 0)
(9.6777 0.0298184 0)
(7.94934 -0.0537284 0)
(9.77077 -0.253617 0)
(8.00811 -0.259817 0)
(9.98874 -0.352498 0)
(8.211 -0.271811 0)
(10.2816 -0.288006 0)
(8.43338 -0.225339 0)
(10.4875 -0.296491 0)
(8.55068 -0.28512 0)
(10.601 -0.395084 0)
(8.61122 -0.470338 0)
(10.6015 -0.659172 0)
(8.39958 -0.611855 0)
(10.2705 -0.566789 0)
(7.96365 -0.337832 0)
(9.8838 -0.199904 0)
(7.36547 0.067626 0)
(9.28116 0.238584 0)
(6.52796 0.589243 0)
(8.82494 0.833237 0)
(6.17085 1.21497 0)
(8.94396 1.39662 0)
(6.40313 1.61791 0)
(9.37411 1.52277 0)
(6.96842 1.44338 0)
(9.91879 1.00367 0)
(7.68141 0.648694 0)
(10.5385 -0.0273178 0)
(8.50576 -0.496753 0)
(11.2168 -1.19359 0)
(9.11561 -1.73563 0)
(11.5719 -2.40288 0)
(9.30746 -2.60944 0)
(11.7066 -2.60029 0)
(9.32815 -2.1573 0)
(11.4865 -1.82194 0)
(8.85329 -1.33514 0)
(11.0959 -0.960622 0)
(8.63477 -0.342875 0)
(10.9944 0.122488 0)
(8.37031 0.630658 0)
(10.578 0.836595 0)
(7.61026 1.04792 0)
(9.76637 0.994751 0)
(6.60363 1.084 0)
(8.92218 0.949462 0)
(5.85775 1.06039 0)
(8.41576 0.899864 0)
(5.6489 1.03435 0)
(8.34993 0.843584 0)
(5.90602 0.968184 0)
(8.58086 0.758217 0)
(6.38184 0.828496 0)
(8.90583 0.561238 0)
(6.89547 0.516787 0)
(9.23814 0.175235 0)
(7.36926 0.0532303 0)
(9.55488 -0.281113 0)
(7.73096 -0.358904 0)
(9.80784 -0.619738 0)
(8.00107 -0.605309 0)
(9.97987 -0.756977 0)
(8.18096 -0.662791 0)
(10.0893 -0.700799 0)
(8.3112 -0.545645 0)
(10.1823 -0.528686 0)
(8.38958 -0.324907 0)
(10.1839 -0.291488 0)
(8.31402 -0.104892 0)
(9.98779 -0.0978733 0)
(7.96378 0.0216248 0)
(9.55166 -0.0161173 0)
(7.34701 0.0894864 0)
(8.9426 0.044105 0)
(6.66535 0.205749 0)
(8.37305 0.200021 0)
(6.18316 0.442404 0)
(8.0376 0.489461 0)
(6.10004 0.76231 0)
(8.00334 0.812906 0)
(6.40576 1.03894 0)
(8.20966 1.037 0)
(6.92487 1.16792 0)
(8.55773 1.02675 0)
(7.53681 1.04582 0)
(8.97505 0.759806 0)
(8.13282 0.65015 0)
(9.42801 0.272154 0)
(8.69139 0.0586746 0)
(9.93764 -0.365057 0)
(9.22602 -0.619608 0)
(10.4333 -1.04909 0)
(9.6597 -1.25717 0)
(10.8599 -1.54932 0)
(9.9588 -1.5845 0)
(11.1399 -1.71719 0)
(10.0741 -1.59125 0)
(11.2142 -1.55433 0)
(10.0104 -1.32001 0)
(11.2163 -1.18037 0)
(9.96867 -0.87898 0)
(11.262 -0.694454 0)
(9.97102 -0.379545 0)
(11.2804 -0.26926 0)
(9.89296 -0.103139 0)
(11.2654 -0.0117544 0)
(9.80319 0.149358 0)
(11.2488 0.165896 0)
(9.72716 0.280425 0)
(11.2028 0.244287 0)
(9.43206 0.219159 0)
(11.0081 -0.0684445 0)
(9.07276 -0.0326716 0)
(10.7813 -0.188051 0)
(8.99631 -0.401342 0)
(10.8169 -0.653209 0)
(8.63905 -0.634893 0)
(10.837 -1.04354 0)
(8.63731 -1.13033 0)
(10.7508 -1.31249 0)
(8.12684 -1.48702 0)
(10.6972 -1.96892 0)
(7.81568 -1.84504 0)
(10.4262 -2.05615 0)
(7.42693 -1.87909 0)
(10.2609 -2.06489 0)
(6.96141 -1.75806 0)
(9.5371 -1.75261 0)
(6.34154 -0.999132 0)
(8.86777 -0.693736 0)
(5.73125 0.209202 0)
(8.38674 0.600436 0)
(5.24918 1.50531 0)
(8.15399 1.70948 0)
(4.68904 2.4548 0)
(8.13495 2.51587 0)
(4.84619 3.239 0)
(8.21892 3.15121 0)
(5.72452 3.6419 0)
(8.15177 3.29718 0)
(6.47677 3.46641 0)
(8.20895 2.77245 0)
(6.81697 2.73505 0)
(8.49153 2.05789 0)
(6.88142 2.12685 0)
(8.9032 1.38839 0)
(7.08549 1.7662 0)
(9.15985 0.803658 0)
(7.3178 1.20488 0)
(9.26636 0.4943 0)
(7.3985 0.858512 0)
(9.51955 0.154611 0)
(7.61347 0.67041 0)
(10.0193 -0.51775 0)
(8.21989 -0.00503504 0)
(10.7365 -1.39353 0)
(8.73031 -0.838673 0)
(11.575 -2.17377 0)
(9.07304 -1.42659 0)
(12.2191 -2.64097 0)
(9.6193 -1.9335 0)
(12.9843 -3.26975 0)
(10.5159 -2.6451 0)
(13.933 -4.17592 0)
(11.727 -3.65531 0)
(14.7363 -5.02856 0)
(12.7775 -4.52872 0)
(14.9611 -5.27709 0)
(13.511 -4.90442 0)
(14.4579 -4.85389 0)
(13.9234 -4.55313 0)
(13.7132 -4.17885 0)
(14.0213 -3.79485 0)
(13.0387 -3.30581 0)
(13.7984 -2.8655 0)
(12.5481 -2.38154 0)
(13.2534 -1.85116 0)
(12.1201 -1.42205 0)
(12.4917 -0.883891 0)
(11.5254 -0.531027 0)
(11.6531 0.0563615 0)
(10.7282 0.340574 0)
(10.884 0.831909 0)
(9.81888 0.985655 0)
(10.1862 1.42539 0)
(9.0683 1.6752 0)
(9.59849 2.0577 0)
(8.5087 2.47967 0)
(9.15751 2.73243 0)
(8.26805 3.33527 0)
(8.41587 3.54673 0)
(8.75014 4.27503 0)
(7.16506 4.80876 0)
(9.58358 4.46877 0)
(6.72635 7.42891 0)
(10.6945 4.46495 0)
(9.52573 9.96868 0)
(12.3008 0.00731187 0)
(10.2275 0.10736 0)
(12.2055 -0.0305059 0)
(10.0136 -0.0748215 0)
(12.2213 -0.301666 0)
(10.0364 -0.269986 0)
(12.3493 -0.419061 0)
(10.1315 -0.294992 0)
(12.5005 -0.383104 0)
(10.2754 -0.281344 0)
(12.5995 -0.378155 0)
(10.33 -0.304182 0)
(12.6318 -0.426774 0)
(10.3003 -0.430121 0)
(12.5289 -0.601401 0)
(10.0808 -0.488383 0)
(12.3467 -0.442573 0)
(9.86329 -0.131649 0)
(12.1646 -0.000467464 0)
(9.54745 0.309299 0)
(11.7733 0.472056 0)
(9.00474 0.797996 0)
(11.2878 0.964769 0)
(8.64328 1.28948 0)
(11.072 1.37129 0)
(8.77735 1.54412 0)
(11.2473 1.35083 0)
(9.35854 1.26851 0)
(11.6998 0.739873 0)
(10.0754 0.349182 0)
(12.2528 -0.34342 0)
(10.7675 -0.779686 0)
(12.7983 -1.36369 0)
(11.1724 -1.75068 0)
(13.0589 -2.29807 0)
(11.0386 -2.54305 0)
(12.7801 -2.56526 0)
(10.4833 -2.09838 0)
(12.3117 -1.6722 0)
(9.86168 -1.1768 0)
(11.8552 -0.883215 0)
(9.62817 -0.325128 0)
(11.9002 0.12039 0)
(9.80658 0.721897 0)
(11.8672 0.970089 0)
(9.61474 1.25573 0)
(11.3929 1.21452 0)
(9.1293 1.36616 0)
(10.8328 1.2424 0)
(8.72672 1.34306 0)
(10.4897 1.15604 0)
(8.59483 1.18628 0)
(10.4396 0.954966 0)
(8.73491 0.962033 0)
(10.5768 0.719537 0)
(9.0593 0.693598 0)
(10.7917 0.416516 0)
(9.46013 0.316021 0)
(11.0353 0.00544187 0)
(9.83405 -0.135497 0)
(11.2995 -0.431598 0)
(10.1302 -0.525412 0)
(11.4906 -0.726221 0)
(10.2914 -0.730215 0)
(11.5506 -0.81254 0)
(10.335 -0.744152 0)
(11.5275 -0.729609 0)
(10.3101 -0.589932 0)
(11.4753 -0.526262 0)
(10.2641 -0.33255 0)
(11.3843 -0.260338 0)
(10.1608 -0.0610611 0)
(11.2155 -0.0120231 0)
(9.94973 0.167868 0)
(10.9239 0.178448 0)
(9.61596 0.337915 0)
(10.4838 0.333803 0)
(9.16859 0.478919 0)
(9.94053 0.472655 0)
(8.70312 0.625838 0)
(9.43736 0.62042 0)
(8.41756 0.79287 0)
(9.18197 0.766719 0)
(8.44709 0.918885 0)
(9.26154 0.856554 0)
(8.76198 0.942227 0)
(9.62206 0.797967 0)
(9.2684 0.770486 0)
(10.166 0.539158 0)
(9.84399 0.372709 0)
(10.782 0.0540973 0)
(10.434 -0.206257 0)
(11.3927 -0.56676 0)
(10.9503 -0.871228 0)
(11.8891 -1.20224 0)
(11.2879 -1.4142 0)
(12.1929 -1.62516 0)
(11.3714 -1.67882 0)
(12.2277 -1.74461 0)
(11.2012 -1.63051 0)
(12.0893 -1.53337 0)
(10.9778 -1.29971 0)
(11.9758 -1.10069 0)
(10.7529 -0.835649 0)
(11.8592 -0.690946 0)
(10.6037 -0.430486 0)
(11.8334 -0.30229 0)
(10.5688 -0.0878384 0)
(11.9093 -0.00831724 0)
(10.5581 0.221097 0)
(11.9109 0.177537 0)
(10.5844 0.258582 0)
(11.9029 0.274375 0)
(10.6121 0.271502 0)
(11.9525 0.0641117 0)
(10.4464 0.127028 0)
(11.8263 -0.106238 0)
(10.4094 -0.260098 0)
(11.5889 -0.469198 0)
(10.1293 -0.598281 0)
(11.6538 -0.9405 0)
(9.81919 -0.963509 0)
(11.4455 -1.30344 0)
(9.71246 -1.37001 0)
(11.549 -1.70896 0)
(9.09246 -1.64191 0)
(11.3167 -1.8719 0)
(8.51809 -1.71416 0)
(11.0204 -2.00513 0)
(7.86945 -1.55 0)
(10.6246 -1.46329 0)
(7.03068 -0.686779 0)
(9.98726 -0.462861 0)
(6.46974 0.428985 0)
(9.58241 0.686695 0)
(6.25352 1.63794 0)
(9.30927 1.84675 0)
(6.21642 2.57895 0)
(8.85054 2.55314 0)
(6.45354 3.09293 0)
(8.54865 2.99576 0)
(7.18459 3.43875 0)
(8.69154 3.1735 0)
(7.80571 3.34645 0)
(9.06606 2.83413 0)
(7.97817 2.67444 0)
(9.4078 2.06647 0)
(7.95633 2.1257 0)
(9.55472 1.31794 0)
(8.25001 1.65548 0)
(9.58111 0.879506 0)
(8.56444 1.11955 0)
(9.68897 0.507654 0)
(8.73298 0.805451 0)
(10.1389 0.043324 0)
(9.08248 0.378571 0)
(10.8021 -0.619591 0)
(9.72179 -0.420615 0)
(11.4694 -1.53508 0)
(10.2423 -1.13132 0)
(11.9505 -2.33216 0)
(10.6555 -1.61027 0)
(12.5334 -2.94439 0)
(11.1821 -2.19428 0)
(13.6054 -3.68634 0)
(11.9055 -3.08847 0)
(14.9416 -4.58822 0)
(12.5983 -4.09125 0)
(15.9431 -5.29588 0)
(12.9914 -4.66505 0)
(16.208 -5.51629 0)
(13.1799 -4.61287 0)
(15.7306 -5.05132 0)
(13.4695 -4.24288 0)
(14.9859 -4.21624 0)
(13.7167 -3.57721 0)
(14.2278 -3.23784 0)
(13.8518 -2.69512 0)
(13.4777 -2.18393 0)
(13.6953 -1.70901 0)
(12.6907 -1.12859 0)
(13.217 -0.675067 0)
(11.9183 -0.0913698 0)
(12.4425 0.256772 0)
(11.084 0.837412 0)
(11.5724 1.05984 0)
(10.2153 1.54317 0)
(10.5205 1.6226 0)
(9.49973 2.1921 0)
(9.42788 2.24389 0)
(9.14984 2.76093 0)
(8.44587 3.07764 0)
(9.49473 3.24064 0)
(7.47699 4.29107 0)
(10.292 3.4027 0)
(7.19586 6.07587 0)
(10.8648 2.95814 0)
(8.08129 7.6636 0)
(10.7726 3.64813 0)
(10.0326 8.42139 0)
(13.4786 0.00144073 0)
(11.6232 0.0830878 0)
(13.3192 -0.12158 0)
(11.3502 -0.098499 0)
(13.1743 -0.366052 0)
(11.2433 -0.253699 0)
(13.1049 -0.45495 0)
(11.1665 -0.27536 0)
(13.1126 -0.426835 0)
(11.172 -0.266918 0)
(13.1261 -0.401217 0)
(11.1691 -0.297291 0)
(13.1093 -0.425037 0)
(11.0458 -0.368044 0)
(12.926 -0.52672 0)
(10.845 -0.380956 0)
(12.7551 -0.421625 0)
(10.6816 -0.122308 0)
(12.6529 -0.03853 0)
(10.7079 0.353364 0)
(12.6631 0.549478 0)
(10.7963 0.954499 0)
(12.6108 1.10139 0)
(10.9296 1.40567 0)
(12.5843 1.40325 0)
(11.2401 1.52161 0)
(12.8123 1.23729 0)
(11.7626 1.1424 0)
(13.0292 0.609195 0)
(12.1614 0.201894 0)
(13.3426 -0.493721 0)
(12.4557 -0.889604 0)
(13.3847 -1.48342 0)
(12.3765 -1.85291 0)
(13.3516 -2.2495 0)
(12.0162 -2.2434 0)
(12.7394 -2.12461 0)
(11.0315 -1.67465 0)
(12.0553 -1.32822 0)
(10.4717 -0.920846 0)
(11.7349 -0.754141 0)
(10.2675 -0.33434 0)
(11.801 -0.00438433 0)
(10.6384 0.601177 0)
(12.1733 0.970856 0)
(10.9212 1.41163 0)
(12.0629 1.49779 0)
(10.5926 1.62739 0)
(11.5369 1.48434 0)
(10.149 1.4249 0)
(11.2402 1.16731 0)
(10.1408 1.08692 0)
(11.4068 0.815769 0)
(10.5819 0.821263 0)
(11.8255 0.589504 0)
(11.1842 0.602339 0)
(12.2539 0.350063 0)
(11.7085 0.252943 0)
(12.5992 -0.0215902 0)
(12.0933 -0.165726 0)
(12.8443 -0.423035 0)
(12.3046 -0.516483 0)
(12.923 -0.691222 0)
(12.3443 -0.69431 0)
(12.8575 -0.768767 0)
(12.2631 -0.702649 0)
(12.7057 -0.677819 0)
(12.1026 -0.546511 0)
(12.4966 -0.452027 0)
(11.8962 -0.269257 0)
(12.2695 -0.166113 0)
(11.6852 0.0223045 0)
(12.0419 0.0851182 0)
(11.477 0.261326 0)
(11.7965 0.301158 0)
(11.2737 0.432341 0)
(11.5282 0.476065 0)
(11.0501 0.584318 0)
(11.2648 0.625975 0)
(10.8315 0.742793 0)
(11.0501 0.768243 0)
(10.6779 0.866431 0)
(10.9658 0.866573 0)
(10.6614 0.899121 0)
(11.0851 0.855321 0)
(10.8216 0.81361 0)
(11.4236 0.695501 0)
(11.1679 0.562868 0)
(11.9214 0.350475 0)
(11.6217 0.122256 0)
(12.4576 -0.160068 0)
(12.0874 -0.432373 0)
(12.9132 -0.756636 0)
(12.4216 -1.02036 0)
(13.1685 -1.30259 0)
(12.4996 -1.45268 0)
(13.1515 -1.62192 0)
(12.2719 -1.61788 0)
(12.8725 -1.64499 0)
(11.8759 -1.45708 0)
(12.5341 -1.37697 0)
(11.4703 -1.12814 0)
(12.2179 -0.999371 0)
(11.1529 -0.726231 0)
(12.0365 -0.640265 0)
(10.9823 -0.335453 0)
(11.9131 -0.297163 0)
(10.9544 -0.102208 0)
(11.9118 -0.0261328 0)
(11.0273 0.155985 0)
(12.0194 0.110582 0)
(11.2187 0.294973 0)
(12.0622 0.235577 0)
(11.4704 0.245639 0)
(12.0984 0.118053 0)
(11.511 0.108861 0)
(12.1983 -0.124552 0)
(11.545 -0.175246 0)
(12.0634 -0.408214 0)
(11.6029 -0.517115 0)
(11.9779 -0.809662 0)
(11.3353 -0.858394 0)
(12.0181 -1.12612 0)
(11.072 -1.29671 0)
(11.731 -1.58854 0)
(10.5192 -1.46276 0)
(11.4963 -1.7459 0)
(9.88779 -1.55017 0)
(11.1847 -1.64401 0)
(8.90402 -1.14874 0)
(10.4489 -1.12701 0)
(7.93675 -0.424229 0)
(9.96864 -0.289625 0)
(7.5184 0.530632 0)
(9.6833 0.724672 0)
(7.57734 1.58373 0)
(9.60141 1.82653 0)
(7.94217 2.5804 0)
(9.46624 2.68827 0)
(8.18124 3.09006 0)
(9.21443 2.98484 0)
(8.43198 3.22215 0)
(9.31621 3.03712 0)
(8.83723 3.09167 0)
(9.75592 2.70885 0)
(9.0443 2.64952 0)
(10.035 1.93406 0)
(9.21444 2.10311 0)
(10.021 1.33091 0)
(9.54321 1.52352 0)
(10.0892 0.905801 0)
(9.7922 1.00277 0)
(10.366 0.435692 0)
(10.0229 0.616957 0)
(10.8047 -0.0860633 0)
(10.583 0.0237622 0)
(11.3421 -0.821421 0)
(11.1891 -0.721707 0)
(11.8414 -1.73073 0)
(11.55 -1.34495 0)
(12.3647 -2.45234 0)
(11.9263 -1.94117 0)
(13.18 -3.12762 0)
(12.6252 -2.73455 0)
(14.2628 -3.98326 0)
(13.4574 -3.61178 0)
(15.3564 -5.01001 0)
(13.9045 -4.22778 0)
(16.0401 -5.65367 0)
(13.8171 -4.54399 0)
(16.3182 -5.60018 0)
(13.3652 -4.3915 0)
(16.3626 -5.13596 0)
(13.2007 -3.93405 0)
(16.119 -4.37112 0)