/*--------------------------------*- C++ -*----------------------------------*\
| =========                 |                                                 |
| \\      /  F ield         | OpenFOAM: The Open Source CFD Toolbox           |
|  \\    /   O peration     | Version:  2.4.0                                 |
|   \\  /    A nd           | Web:      www.OpenFOAM.org                      |
|    \\/     M anipulation  |                                                 |
\*---------------------------------------------------------------------------*/
FoamFile
{
    version     2.0;
    format      ascii;
    class       volScalarField;
    location    "0.71";
    object      nuSgs;
}
// * * * * * * * * * * * * * * * * * * * * * * * * * * * * * * * * * * * * * //

dimensions      [0 2 -1 0 0 0 0];

internalField   nonuniform List<scalar> 
8800
(
0.00134025
0.00150484
0.0013941
0.00122459
0.00112659
0.00104411
0.00100078
0.000956664
0.000931049
0.000896724
0.000886728
0.000861365
0.000855814
0.000834696
0.000831532
0.000811427
0.000807733
0.00078596
0.000787764
0.000752127
0.000560759
0.000979315
0.00108443
0.00107904
0.00106416
0.00102874
0.00100584
0.000973633
0.00095473
0.000924293
0.000914181
0.000888689
0.000881389
0.000862874
0.000858479
0.000842464
0.000838627
0.000825825
0.000818795
0.000814422
0.000137838
0.000398987
0.000592134
0.000651875
0.000706037
0.000735178
0.000755081
0.000755646
0.000762187
0.000759428
0.000757428
0.000748496
0.000745966
0.000738189
0.000736226
0.000729046
0.000727814
0.000723405
0.00071872
0.000715499
2.75773e-05
0.000123557
0.000244596
0.00030529
0.000346809
0.000397355
0.000435395
0.000447781
0.000474472
0.000495558
0.000511356
0.000520521
0.000528009
0.000536816
0.000543463
0.000547873
0.000554141
0.000559481
0.000562804
0.000567861
5.26832e-06
3.29492e-05
7.77959e-05
0.000114106
0.00012972
0.000159981
0.000197152
0.000208954
0.000228642
0.000253599
0.000267256
0.000289254
0.000296058
0.00030843
0.00031659
0.000333924
0.000340427
0.000353931
0.000358948
0.00037429
2.33074e-06
8.20346e-06
2.11553e-05
3.45379e-05
3.85912e-05
4.75502e-05
6.72596e-05
7.39654e-05
8.54048e-05
9.93616e-05
0.000107145
0.000125994
0.000132515
0.000138783
0.00014369
0.000158367
0.000164515
0.000175084
0.000178064
0.000187708
2.16668e-06
3.14e-06
6.09977e-06
9.58989e-06
1.03109e-05
1.23629e-05
1.79321e-05
2.0213e-05
2.58928e-05
2.95461e-05
3.21944e-05
4.15243e-05
4.90359e-05
5.11242e-05
5.23831e-05
5.71933e-05
6.08998e-05
6.67202e-05
6.78224e-05
6.94536e-05
2.12889e-06
2.92358e-06
4.19612e-06
4.36671e-06
4.12183e-06
4.38226e-06
5.75419e-06
7.14583e-06
8.65453e-06
8.628e-06
8.79901e-06
1.25131e-05
1.77445e-05
1.80511e-05
1.81152e-05
1.88946e-05
2.13071e-05
2.29453e-05
2.29237e-05
2.32235e-05
2.13542e-06
2.62176e-06
3.66324e-06
4.53771e-06
4.48699e-06
4.43853e-06
4.50511e-06
5.26458e-06
6.03754e-06
6.30321e-06
6.22585e-06
6.7385e-06
8.44443e-06
9.21336e-06
9.86793e-06
1.40723e-05
1.70265e-05
1.7077e-05
1.659e-05
1.63401e-05
2.14044e-06
2.5132e-06
2.73224e-06
4.24395e-06
5.069e-06
4.72597e-06
4.18504e-06
4.20395e-06
5.22422e-06
5.62904e-06
5.65046e-06
5.7218e-06
6.30842e-06
6.35576e-06
6.40565e-06
7.28264e-06
1.03863e-05
1.19623e-05
1.22097e-05
1.22192e-05
2.14679e-06
2.53077e-06
2.71674e-06
4.05842e-06
4.55521e-06
4.54943e-06
4.37705e-06
4.78033e-06
6.09713e-06
6.14231e-06
5.97609e-06
5.85598e-06
5.701e-06
5.65963e-06
5.7755e-06
7.49104e-06
1.0309e-05
1.06497e-05
1.05512e-05
1.04827e-05
2.14363e-06
2.50199e-06
3.40951e-06
3.99203e-06
3.71133e-06
3.61361e-06
4.06178e-06
6.30287e-06
6.85464e-06
6.50809e-06
5.71444e-06
5.52142e-06
5.51235e-06
5.80511e-06
7.44298e-06
9.96358e-06
1.05285e-05
1.06073e-05
1.04056e-05
1.01441e-05
2.15544e-06
2.57554e-06
3.76255e-06
3.82964e-06
4.15464e-06
5.49225e-06
7.0328e-06
9.24444e-06
9.3209e-06
9.1405e-06
9.14332e-06
9.1693e-06
9.28197e-06
1.1047e-05
1.58613e-05
2.08544e-05
2.32416e-05
2.69263e-05
2.82516e-05
2.91562e-05
2.19148e-06
3.19182e-06
4.89628e-06
6.76536e-06
1.27207e-05
1.68168e-05
1.95147e-05
2.67034e-05
2.91653e-05
2.98318e-05
3.17112e-05
3.49541e-05
3.66655e-05
4.30198e-05
5.41482e-05
6.67621e-05
7.14085e-05
7.98012e-05
8.23427e-05
8.72317e-05
2.3602e-06
8.44402e-06
1.66363e-05
2.59055e-05
4.75294e-05
5.7818e-05
6.50439e-05
8.42871e-05
9.23598e-05
9.58385e-05
0.000104075
0.000116351
0.000121291
0.000136154
0.000151739
0.000169396
0.000175885
0.000189477
0.000194538
0.000206682
5.23889e-06
3.32574e-05
6.63614e-05
9.74089e-05
0.000152077
0.000171578
0.000186248
0.00022216
0.00023663
0.000243717
0.000260777
0.000280539
0.000288218
0.000309635
0.00032753
0.000345637
0.000351557
0.000366005
0.000371702
0.000387294
2.73733e-05
0.000124618
0.000227047
0.000297435
0.000373703
0.000396339
0.000423522
0.000462098
0.000475667
0.000483287
0.000504342
0.000517918
0.000525204
0.000542368
0.00055239
0.000557642
0.000559179
0.000565895
0.000568911
0.000577702
0.000137184
0.000403231
0.000582408
0.000653877
0.000717293
0.000730478
0.000753594
0.000760174
0.000760005
0.000754828
0.000755302
0.000750661
0.000748302
0.000741631
0.000739949
0.000731583
0.00072812
0.000723131
0.000721381
0.000717381
0.000559896
0.000978009
0.00108396
0.00108146
0.00106505
0.00103009
0.00100736
0.000968722
0.000954896
0.000926049
0.00091267
0.000889859
0.000883135
0.000861801
0.000856463
0.00083932
0.000834436
0.000817472
0.000811785
0.000797406
0.0013412
0.00150397
0.00139423
0.00122844
0.00112118
0.00104777
0.00100214
0.000952077
0.00093141
0.00089898
0.000885946
0.000859811
0.000854154
0.000831731
0.00082559
0.000802113
0.000797026
0.000770563
0.000759574
0.000727049
0.000341463
0.000296258
0.000263775
0.00024988
0.000234147
0.000230087
0.000220725
0.000217883
0.000210551
0.000207949
0.000200819
0.000198499
0.000192155
0.000190076
0.000184517
0.00018295
0.000178935
0.000178242
0.000176189
0.00017649
0.000175879
0.000176529
0.000176189
0.00017689
0.0001769
0.000177853
0.000178447
0.00018043
0.000181278
0.000183321
0.000183761
0.000184771
0.000184657
0.000184939
0.000184822
0.000185234
0.000185086
0.000185559
0.000185234
0.000185324
0.000184835
0.000184294
0.000182647
0.000183041
0.00018339
0.000185606
0.000184932
0.000182179
0.000174126
0.000159382
0.000142004
0.000124428
0.000110268
0.000100873
9.30223e-05
8.87947e-05
8.69317e-05
8.48458e-05
8.34053e-05
8.31213e-05
8.2935e-05
8.19508e-05
8.217e-05
8.32942e-05
8.64553e-05
9.08713e-05
9.86066e-05
0.000106437
0.000112799
0.000117768
0.000119303
0.00011944
0.000118991
0.000118102
0.000117042
0.000114906
0.000110777
0.000106511
0.000100084
9.00465e-05
7.8531e-05
6.64045e-05
5.65903e-05
4.98445e-05
4.65459e-05
4.48595e-05
4.3986e-05
4.39341e-05
4.41456e-05
4.42727e-05
4.3913e-05
4.31527e-05
4.27127e-05
4.26287e-05
4.25158e-05
4.21754e-05
4.18571e-05
4.1529e-05
4.123e-05
4.07958e-05
3.97378e-05
3.85424e-05
3.7898e-05
3.75284e-05
3.75773e-05
3.79369e-05
3.86546e-05
3.95264e-05
4.26183e-05
4.44902e-05
4.66173e-05
5.14748e-05
5.41562e-05
5.70149e-05
5.89646e-05
5.93546e-05
5.96072e-05
6.06015e-05
6.34686e-05
6.76199e-05
6.82133e-05
6.73993e-05
6.69258e-05
6.67645e-05
6.60259e-05
6.61327e-05
6.70958e-05
6.94709e-05
7.33792e-05
7.89989e-05
9.25947e-05
0.000118217
0.000127228
0.000127307
0.000124354
0.000114499
0.000100541
9.07556e-05
8.19326e-05
7.62607e-05
7.2744e-05
7.05943e-05
6.90498e-05
6.65359e-05
6.49481e-05
6.37231e-05
6.35393e-05
6.47375e-05
6.9613e-05
7.34683e-05
7.41839e-05
7.21019e-05
6.99789e-05
6.9505e-05
7.19123e-05
9.94061e-05
0.000173365
0.000195721
0.000181926
0.000129261
8.68306e-05
6.55428e-05
5.84265e-05
5.98724e-05
6.1794e-05
6.7831e-05
7.42852e-05
7.75769e-05
8.05949e-05
8.32619e-05
8.4778e-05
8.47813e-05
8.3721e-05
8.02018e-05
7.92254e-05
8.11202e-05
9.12024e-05
9.65576e-05
0.000101227
0.000114147
0.000145136
0.000166902
0.000171618
0.000168834
0.000157678
0.000133352
0.000113531
9.8494e-05
8.29693e-05
7.46954e-05
6.86565e-05
6.51479e-05
6.4984e-05
6.64408e-05
7.66237e-05
8.14244e-05
0.0001027
9.47498e-05
0.000124217
0.000149635
0.000409792
0.000371784
0.000336634
0.00031588
0.000293797
0.000283057
0.000268793
0.000262604
0.000252032
0.000247932
0.000239577
0.000236317
0.000229869
0.000227447
0.000222544
0.00022059
0.000216469
0.000214711
0.000211215
0.000209919
0.000207248
0.000206231
0.000204017
0.000202968
0.00020069
0.000199644
0.00019732
0.00019621
0.000193782
0.000192625
0.000190062
0.00018892
0.000186589
0.000185495
0.000183821
0.00018339
0.000183023
0.000183298
0.000183862
0.000184773
0.000185692
0.000187505
0.000187948
0.000189015
0.000189397
0.000189398
0.000189051
0.000188721
0.00018791
0.000186029
0.000183004
0.000178077
0.000171982
0.00016465
0.000153288
0.000146281
0.000140101
0.0001313
0.000126677
0.000126863
0.000127511
0.000128332
0.000129581
0.000130831
0.000133186
0.000134979
0.000134785
0.000133627
0.00013177
0.000129871
0.000126312
0.000123148
0.000119232
0.000116039
0.000109432
9.99679e-05
9.08774e-05
7.99614e-05
6.80007e-05
5.84421e-05
5.07958e-05
4.57944e-05
4.2408e-05
4.04796e-05
4.00332e-05
4.01965e-05
4.09148e-05
4.10033e-05
4.10229e-05
4.15153e-05
4.17146e-05
4.15871e-05
4.12555e-05
4.11284e-05
4.10628e-05
4.08274e-05
4.06544e-05
4.03246e-05
3.99649e-05
3.93926e-05
3.82937e-05
3.75858e-05
3.73964e-05
3.73415e-05
3.73973e-05
3.77587e-05
3.88267e-05
4.03314e-05
4.4196e-05
4.71407e-05
5.1651e-05
5.93905e-05
6.38474e-05
6.72843e-05
6.98235e-05
6.98831e-05
6.9163e-05
6.61071e-05
6.5986e-05
6.77021e-05
6.82294e-05
6.73544e-05
6.6405e-05
6.64173e-05
6.55432e-05
6.40868e-05
6.40544e-05
6.43123e-05
6.61771e-05
6.97515e-05
7.34589e-05
8.41045e-05
0.0001132
0.000124921
0.000124987
0.000122515
0.000113152
0.000102545
9.12144e-05
8.30927e-05
7.66042e-05
7.32234e-05
7.06939e-05
6.85976e-05
6.7139e-05
6.62607e-05
6.60865e-05
6.73629e-05
7.22e-05
7.57165e-05
7.60332e-05
7.3527e-05
7.05127e-05
6.99153e-05
7.18203e-05
9.13064e-05
0.000172891
0.000198901
0.000190194
0.000137168
9.16845e-05
6.59527e-05
5.94905e-05
5.91071e-05
6.10695e-05
6.62309e-05
6.77892e-05
7.30755e-05
7.58527e-05
8.13993e-05
8.33239e-05
8.5249e-05
8.47215e-05
8.12727e-05
7.87254e-05
7.8845e-05
8.57179e-05
9.46959e-05
9.85211e-05
0.000104824
0.000123091
0.000152048
0.000164885
0.000165394
0.000160286
0.000143437
0.000120659
0.000106952
9.07917e-05
7.81525e-05
7.23296e-05
6.59998e-05
6.8375e-05
6.76829e-05
7.77865e-05
7.92108e-05
9.99159e-05
0.000101916
0.000111193
0.000134997
0.000371196
0.000348639
0.000326057
0.000309447
0.000293724
0.000282285
0.000271292
0.000263159
0.000254875
0.000248698
0.000242047
0.000236949
0.000231272
0.000227321
0.000222431
0.000219798
0.000215709
0.000213906
0.000210585
0.000208657
0.000205321
0.000203452
0.000200194
0.000198468
0.000195185
0.000193636
0.000190624
0.000188516
0.000186043
0.000182791
0.000179448
0.000176255
0.000171857
0.000168647
0.000164725
0.000161592
0.000159069
0.000157099
0.000156605
0.000156706
0.000157293
0.000159627
0.000162108
0.00016481
0.000169504
0.000173365
0.000176367
0.000179244
0.000181105
0.000181971
0.000181821
0.000181232
0.000180478
0.000179333
0.000176179
0.000174142
0.000172122
0.000167828
0.000165448
0.000163429
0.000160764
0.000158435
0.000156143
0.00015282
0.000148842
0.000145487
0.000139713
0.000134669
0.000128869
0.000119573
0.000110568
0.000100288
9.03938e-05
7.85879e-05
6.84401e-05
6.02693e-05
5.35865e-05
4.79841e-05
4.36612e-05
4.04059e-05
3.82516e-05
3.6889e-05
3.63973e-05
3.64754e-05
3.669e-05
3.72835e-05
3.82107e-05
3.83456e-05
3.83399e-05
3.83618e-05
3.87808e-05
3.9539e-05
4.0093e-05
4.04121e-05
4.05327e-05
4.04279e-05
4.01674e-05
3.97903e-05
3.93033e-05
3.83574e-05
3.77783e-05
3.74009e-05
3.74159e-05
3.7566e-05
3.80028e-05
3.92263e-05
4.20257e-05
4.71801e-05
5.45783e-05
6.04802e-05
6.99566e-05
7.71526e-05
7.98849e-05
8.11743e-05
8.11333e-05
8.07088e-05
7.95317e-05
7.81561e-05
7.52682e-05
7.19723e-05
7.01462e-05
6.7839e-05
6.63465e-05
6.61281e-05
6.5423e-05
6.23811e-05
6.08898e-05
6.07085e-05
6.09874e-05
6.27058e-05
6.35807e-05
6.52479e-05
7.54046e-05
0.000108231
0.0001213
0.000121518
0.000119133
0.000111295
0.000100408
9.12214e-05
8.28914e-05
7.73728e-05
7.29283e-05
7.00159e-05
6.92759e-05
6.9104e-05
6.90654e-05
6.99355e-05
7.47488e-05
7.74979e-05
7.76809e-05
7.41581e-05
7.07704e-05
7.00336e-05
7.08736e-05
8.69125e-05
0.00016646
0.000201351
0.000197658
0.000146027
9.53608e-05
6.88541e-05
6.16493e-05
5.94376e-05
6.27707e-05
6.32608e-05
6.67096e-05
6.89429e-05
7.2039e-05
7.60172e-05
7.94741e-05
8.26161e-05
8.32451e-05
8.12451e-05
7.78891e-05
7.70382e-05
8.03801e-05
9.06891e-05
9.39378e-05
9.80794e-05
0.00010772
0.000133866
0.000152814
0.000157826
0.000156584
0.000148104
0.000129527
0.000110924
9.96906e-05
8.34865e-05
8.10691e-05
7.36964e-05
7.83615e-05
7.41062e-05
7.80842e-05
7.8312e-05
8.16625e-05
9.55713e-05
9.95175e-05
0.000112168
0.000299961
0.000286592
0.00027337
0.000262218
0.00025282
0.000244372
0.000236688
0.000230189
0.000223633
0.000218867
0.000213596
0.000209521
0.000204604
0.000200676
0.000196026
0.000192639
0.000188737
0.000186571
0.000183616
0.000182208
0.000179738
0.000177329
0.00017511
0.000171811
0.000168455
0.000165286
0.000161707
0.00015824
0.000154691
0.000151497
0.000147668
0.000143812
0.000139946
0.000135351
0.000131101
0.000126683
0.000121512
0.000116674
0.000114316
0.00011392
0.000114154
0.000116125
0.000121499
0.000125287
0.000130614
0.000136407
0.00013956
0.000143488
0.000149057
0.000152759
0.000155896
0.000159028
0.000161985
0.000163699
0.000163745
0.000163092
0.000161399
0.000160023
0.000158348
0.000153628
0.000149628
0.000145036
0.000138319
0.000131161
0.000122912
0.000113291
0.000103743
9.20253e-05
8.13648e-05
7.19345e-05
6.38866e-05
5.72484e-05
5.17991e-05
4.72514e-05
4.36156e-05
4.05523e-05
3.80485e-05
3.62302e-05
3.47948e-05
3.38843e-05
3.35177e-05
3.35117e-05
3.37324e-05
3.44118e-05
3.51946e-05
3.63551e-05
3.7426e-05
3.78763e-05
3.79059e-05
3.77134e-05
3.74936e-05
3.78399e-05
3.87799e-05
3.96522e-05
4.01215e-05
4.00755e-05
3.97825e-05
3.89828e-05
3.79475e-05
3.75851e-05
3.75948e-05
3.77799e-05
3.82556e-05
3.93351e-05
4.17338e-05
4.66329e-05
5.57939e-05
6.57813e-05
7.71164e-05
8.71195e-05
9.40468e-05
9.57321e-05
9.53733e-05
9.40353e-05
9.27841e-05
9.10084e-05
8.81897e-05
8.60686e-05
8.44012e-05
8.15415e-05
7.56295e-05
7.06984e-05
6.75826e-05
6.66526e-05
6.56046e-05
6.21447e-05
5.92104e-05
5.78806e-05
5.73371e-05
5.73535e-05
5.72493e-05
5.71393e-05
5.86011e-05
7.00307e-05
0.000103816
0.000116779
0.000117171
0.000114918
0.000107671
9.82409e-05
8.97174e-05
8.26179e-05
7.65105e-05
7.21728e-05
7.15931e-05
7.17588e-05
7.20205e-05
7.33024e-05
7.82115e-05
8.01143e-05
7.92234e-05
7.42007e-05
7.07108e-05
6.97468e-05
7.02743e-05
8.17192e-05
0.000151441
0.000205705
0.000205774
0.000159752
0.00010217
7.22924e-05
6.32806e-05
6.30381e-05
6.4045e-05
6.43122e-05
6.77158e-05
6.81635e-05
7.18734e-05
7.17723e-05
7.52416e-05
7.6776e-05
7.72184e-05
7.73338e-05
7.49483e-05
7.37405e-05
7.6329e-05
8.83626e-05
9.29669e-05
9.47299e-05
9.9492e-05
0.000118536
0.000140652
0.000151369
0.000151647
0.000147254
0.000134179
0.000114622
0.000107224
9.1704e-05
8.84136e-05
8.0275e-05
7.90839e-05
7.78332e-05
7.49634e-05
7.5742e-05
7.45998e-05
8.21266e-05
8.46817e-05
9.43942e-05
0.000200304
0.000193701
0.000187384
0.000180884
0.000176077
0.00017247
0.000167747
0.000165497
0.000161655
0.000159042
0.000157082
0.000154132
0.000152598
0.000149487
0.000146799
0.00014363
0.000139799
0.000137431
0.00013462
0.000132713
0.000131682
0.000130111
0.000129183
0.000127902
0.00012513
0.000122054
0.000117667
0.000113223
0.00010806
0.000103165
9.89505e-05
9.49443e-05
9.25155e-05
8.93109e-05
8.64749e-05
8.34951e-05
7.98509e-05
7.63334e-05
7.28565e-05
6.99526e-05
6.90449e-05
6.92675e-05
7.03255e-05
7.20643e-05
7.60419e-05
8.54894e-05
9.17046e-05
9.59953e-05
0.000100142
0.000104079
0.000107165
0.000108423
0.000109287
0.000111691
0.000114166
0.000114093
0.000113396
0.000112543
0.000110648
0.000107145
0.000103469
9.71325e-05
8.95189e-05
8.21846e-05
7.50489e-05
6.82012e-05
6.20458e-05
5.66173e-05
5.17316e-05
4.76756e-05
4.42282e-05
4.13324e-05
3.8804e-05
3.65637e-05
3.49113e-05
3.3544e-05
3.25707e-05
3.19509e-05
3.16732e-05
3.16885e-05
3.18848e-05
3.22737e-05
3.299e-05
3.40708e-05
3.50782e-05
3.6619e-05
3.77463e-05
3.81104e-05
3.81373e-05
3.80048e-05
3.72059e-05
3.65112e-05
3.6326e-05
3.66461e-05
3.70075e-05
3.7234e-05
3.73238e-05
3.71724e-05
3.72328e-05
3.74528e-05
3.80029e-05
3.91848e-05
4.12295e-05
4.50472e-05
5.18109e-05
6.44387e-05
7.88598e-05
9.31104e-05
0.000101861
0.000104826
0.000104288
0.000102278
9.98837e-05
9.719e-05
9.4803e-05
9.29314e-05
9.07579e-05
8.88976e-05
8.77175e-05
8.60256e-05
8.37572e-05
7.80072e-05
7.14754e-05
6.84314e-05
6.63388e-05
6.26849e-05
5.92715e-05
5.66632e-05
5.57875e-05
5.56563e-05
5.56383e-05
5.51434e-05
5.48786e-05
5.61914e-05
7.2483e-05
0.000101014
0.000111323
0.000111947
0.000110084
0.000103765
9.56565e-05
8.81082e-05
8.04858e-05
7.58298e-05
7.46292e-05
7.49607e-05
7.53908e-05
7.70459e-05
8.14281e-05
8.24585e-05
8.00531e-05
7.34335e-05
6.97144e-05
6.84325e-05
6.87686e-05
7.46344e-05
0.000131392
0.000204864
0.000210711
0.000174768
0.000112791
7.85026e-05
6.83702e-05
6.81566e-05
6.43045e-05
6.51968e-05
6.6469e-05
6.74579e-05
7.48911e-05
7.37346e-05
7.36403e-05
7.71559e-05
7.62236e-05
7.56435e-05
7.3991e-05
7.3084e-05
7.56197e-05
8.46921e-05
9.08906e-05
9.32858e-05
9.57869e-05
0.000104903
0.0001294
0.000140433
0.000143075
0.00014307
0.000136573
0.000122329
0.000112099
9.99329e-05
9.13667e-05
8.56981e-05
8.04876e-05
7.91213e-05
7.54903e-05
7.56243e-05
7.36378e-05
7.68115e-05
7.69362e-05
8.18702e-05
0.00010155
9.95436e-05
9.76399e-05
9.50116e-05
9.30222e-05
9.19997e-05
9.01805e-05
8.96494e-05
8.86627e-05
8.80646e-05
8.79241e-05
8.74548e-05
8.72232e-05
8.67181e-05
8.61119e-05
8.47883e-05
8.22562e-05
8.07427e-05
7.86863e-05
7.73575e-05
7.66402e-05
7.5751e-05
7.52687e-05
7.48654e-05
7.43284e-05
7.32428e-05
7.10074e-05
6.84198e-05
6.53489e-05
6.22614e-05
5.94418e-05
5.67587e-05
5.49657e-05
5.33436e-05
5.23359e-05
5.12976e-05
4.99515e-05
4.84932e-05
4.67957e-05
4.48271e-05
4.33424e-05
4.29776e-05
4.29945e-05
4.32861e-05
4.40941e-05
4.6809e-05
5.20968e-05
5.6406e-05
6.0217e-05
6.3829e-05
6.57537e-05
6.61886e-05
6.62432e-05
6.6515e-05
6.64928e-05
6.60913e-05
6.49007e-05
6.34585e-05
6.19151e-05
6.01453e-05
5.78863e-05
5.53832e-05
5.28739e-05
5.05945e-05
4.85483e-05
4.65532e-05
4.43999e-05
4.22088e-05
4.00378e-05
3.80285e-05
3.61307e-05
3.437e-05
3.28679e-05
3.1816e-05
3.1136e-05
3.0733e-05
3.07317e-05
3.08116e-05
3.10121e-05
3.13022e-05
3.17913e-05
3.27371e-05
3.32709e-05
3.44587e-05
3.58211e-05
3.69466e-05
3.77134e-05
3.78935e-05
3.78555e-05
3.77075e-05
3.71985e-05
3.6389e-05
3.59754e-05
3.58179e-05
3.58017e-05
3.60573e-05
3.64486e-05
3.68048e-05
3.73973e-05
3.86686e-05
4.1169e-05
4.41973e-05
4.91607e-05
5.78818e-05
7.24597e-05
9.33328e-05
0.00010669
0.000112052
0.00011257
0.000111173
0.000107566
0.000103447
0.000100598
9.79368e-05
9.45453e-05
9.19358e-05
9.00875e-05
8.86917e-05
8.76558e-05
8.68111e-05
8.60054e-05
8.41692e-05
7.84573e-05
7.21189e-05
6.85018e-05
6.44699e-05
6.01801e-05
5.67558e-05
5.58e-05
5.5892e-05
5.63721e-05
5.62829e-05
5.56297e-05
5.56283e-05
5.97403e-05
8.50571e-05
0.000101664
0.000107358
0.000107693
0.000106406
0.000101051
9.29465e-05
8.43879e-05
7.93299e-05
7.77675e-05
7.80386e-05
7.86269e-05
8.12286e-05
8.41312e-05
8.42778e-05
7.90731e-05
7.14861e-05
6.77897e-05
6.65946e-05
6.68605e-05
7.02467e-05
0.000109642
0.000196288
0.000215059
0.000190677
0.000126776
8.76089e-05
7.39615e-05
7.1783e-05
6.74757e-05
6.92274e-05
6.65064e-05
6.72382e-05
7.96797e-05
7.95287e-05
7.8489e-05
7.71223e-05
7.78443e-05
7.677e-05
7.54674e-05
7.48852e-05
7.77965e-05
8.49103e-05
8.86991e-05
9.1194e-05
9.36524e-05
9.8527e-05
0.000117661
0.000134814
0.00013703
0.000139672
0.000135141
0.000123689
0.000112175
0.000102577
9.41071e-05
8.96797e-05
8.36471e-05
8.18461e-05
7.71169e-05
7.67093e-05
7.41085e-05
7.50509e-05
7.3559e-05
7.43114e-05
3.77459e-05
3.73465e-05
3.73452e-05
3.74437e-05
3.77145e-05
3.84205e-05
3.87684e-05
3.95703e-05
4.00771e-05
4.05824e-05
4.14422e-05
4.18852e-05
4.25036e-05
4.26757e-05
4.27303e-05
4.26378e-05
4.17268e-05
4.09485e-05
4.01441e-05
3.97142e-05
3.95537e-05
3.9507e-05
3.9791e-05
4.03528e-05
4.06924e-05
4.08459e-05
4.08669e-05
4.08088e-05
4.00974e-05
3.89052e-05
3.76851e-05
3.64474e-05
3.55162e-05
3.47542e-05
3.43863e-05
3.40976e-05
3.36093e-05
3.30174e-05
3.22984e-05
3.14709e-05
3.07386e-05
3.03675e-05
3.02172e-05
3.02014e-05
3.02396e-05
3.10556e-05
3.45368e-05
3.77227e-05
4.05638e-05
4.30434e-05
4.42737e-05
4.45417e-05
4.44051e-05
4.40923e-05
4.36051e-05
4.26119e-05
4.1277e-05
3.99736e-05
3.92434e-05
3.91513e-05
3.94178e-05
3.96102e-05
3.96038e-05
3.94985e-05
3.91929e-05
3.85362e-05
3.73945e-05
3.5831e-05
3.43521e-05
3.2726e-05
3.14306e-05
3.05894e-05
3.00328e-05
3.00246e-05
3.00988e-05
3.02696e-05
3.05523e-05
3.10983e-05
3.14931e-05
3.22999e-05
3.30283e-05
3.39853e-05
3.44986e-05
3.4998e-05
3.62041e-05
3.71563e-05
3.76403e-05
3.76631e-05
3.75244e-05
3.75089e-05
3.74446e-05
3.70961e-05
3.6728e-05
3.65737e-05
3.66351e-05
3.69561e-05
3.7523e-05
3.82209e-05
3.95385e-05
4.26173e-05
4.76281e-05
5.33608e-05
6.36596e-05
8.1143e-05
0.000104603
0.000115388
0.000118906
0.000118752
0.000116756
0.000112126
0.000107612
0.000103652
0.000100618
9.78586e-05
9.43784e-05
9.08358e-05
8.82184e-05
8.67196e-05
8.63244e-05
8.61125e-05
8.59129e-05
8.54486e-05
8.27278e-05
7.76104e-05
7.35785e-05
6.88298e-05
6.29627e-05
5.79663e-05
5.67637e-05
5.70627e-05
5.93968e-05
6.10549e-05
6.10104e-05
6.08011e-05
6.23323e-05
7.66203e-05
9.29879e-05
0.000101394
0.000104757
0.000105424
0.000104603
9.7419e-05
8.75856e-05
8.24832e-05
8.152e-05
8.17984e-05
8.3402e-05
8.56875e-05
8.67371e-05
8.55918e-05
7.60176e-05
6.79378e-05
6.5215e-05
6.46062e-05
6.49927e-05
6.77825e-05
8.86157e-05
0.000177692
0.000217995
0.000206233
0.000146426
9.8665e-05
7.9403e-05
7.42337e-05
7.26227e-05
7.63223e-05
7.19761e-05
7.59708e-05
9.76336e-05
8.83924e-05
9.08519e-05
8.6816e-05
8.56757e-05
8.28988e-05
8.21425e-05
8.05087e-05
8.11521e-05
8.63638e-05
8.87563e-05
9.05652e-05
9.30195e-05
9.64504e-05
0.000105753
0.000129367
0.000130335
0.0001323
0.000130106
0.000122813
0.000112193
0.000104365
9.61135e-05
9.29793e-05
8.65262e-05
8.49607e-05
8.03338e-05
7.91364e-05
7.54424e-05
7.46066e-05
7.19344e-05
7.05317e-05
1.30072e-05
1.31873e-05
1.35671e-05
1.43877e-05
1.50993e-05
1.59703e-05
1.64155e-05
1.7042e-05
1.75453e-05
1.8017e-05
1.88289e-05
1.93431e-05
2.00623e-05
2.05048e-05
2.07885e-05
2.097e-05
2.10055e-05
2.10701e-05
2.11934e-05
2.13751e-05
2.1993e-05
2.2969e-05
2.43898e-05
2.58021e-05
2.70097e-05
2.78095e-05
2.81899e-05
2.82811e-05
2.81996e-05
2.76835e-05
2.69864e-05
2.62819e-05
2.57995e-05
2.54651e-05
2.52944e-05
2.51269e-05
2.48496e-05
2.45169e-05
2.42081e-05
2.39355e-05
2.3761e-05
2.36951e-05
2.3616e-05
2.35565e-05
2.35593e-05
2.41464e-05
2.66182e-05
2.89312e-05
3.09557e-05
3.26486e-05
3.3531e-05
3.38301e-05
3.38553e-05
3.37124e-05
3.3129e-05
3.2331e-05
3.16609e-05
3.14059e-05
3.15612e-05
3.25215e-05
3.39129e-05
3.45627e-05
3.46447e-05
3.45769e-05
3.43467e-05
3.35183e-05
3.21306e-05
3.08969e-05
3.00668e-05
2.94414e-05
2.92973e-05
2.93261e-05
2.94718e-05
2.99478e-05
3.0556e-05
3.17338e-05
3.28813e-05
3.44433e-05
3.61109e-05
3.73082e-05
3.83093e-05
3.89027e-05
3.95603e-05
4.01669e-05
4.02342e-05
4.01423e-05
3.97073e-05
3.93354e-05
3.92983e-05
3.95459e-05
3.99877e-05
4.01844e-05
3.99797e-05
3.95993e-05
3.95944e-05
3.97647e-05
4.02756e-05
4.14783e-05
4.4614e-05
5.09706e-05
5.70182e-05
6.80439e-05
8.84483e-05
0.000111534
0.00012138
0.000124194
0.000123836
0.000121565
0.000116426
0.000111117
0.000106924
0.000104009
0.000101575
9.86495e-05
9.52679e-05
9.15905e-05
8.7998e-05
8.66039e-05
8.5869e-05
8.57006e-05
8.59745e-05
8.59578e-05
8.52708e-05
8.38052e-05
8.23207e-05
7.69428e-05
6.77054e-05
6.12461e-05
6.01237e-05
6.09453e-05
6.77898e-05
7.34511e-05
7.46075e-05
7.39005e-05
7.31112e-05
7.74824e-05
8.9539e-05
9.73621e-05
0.000101953
0.000104642
0.000105088
0.000100644
9.10911e-05
8.67199e-05
8.60854e-05
8.60953e-05
8.79091e-05
8.88351e-05
8.84929e-05
8.44331e-05
7.11872e-05
6.32677e-05
6.17425e-05
6.22199e-05
6.32032e-05
6.58219e-05
7.46086e-05
0.000148044
0.000215079
0.000216004
0.000170122
0.000112211
8.60042e-05
8.05118e-05
8.20008e-05
8.86779e-05
8.44576e-05
0.000100202
0.000126449
0.000102781
9.11371e-05
9.55548e-05
9.06132e-05
8.97172e-05
8.8707e-05
8.77237e-05
8.53739e-05
8.75545e-05
8.96916e-05
9.0507e-05
9.26562e-05
9.81738e-05
0.000102855
0.000120727
0.000122677
0.000123013
0.000122227
0.000118401
0.000111652
0.000104927
9.75232e-05
9.40495e-05
8.7441e-05
8.51771e-05
8.02365e-05
7.85835e-05
7.49302e-05
7.34889e-05
7.12019e-05
6.85887e-05
8.82084e-06
8.81796e-06
8.82643e-06
8.84637e-06
8.98485e-06
9.08598e-06
9.16006e-06
9.19701e-06
9.21248e-06
9.25406e-06
9.40406e-06
9.53709e-06
9.74056e-06
1.01371e-05
1.03942e-05
1.09654e-05
1.13707e-05
1.19454e-05
1.26905e-05
1.35675e-05
1.48122e-05
1.60073e-05
1.73367e-05
1.86709e-05
1.9766e-05
2.05109e-05
2.08694e-05
2.09514e-05
2.09385e-05
2.08514e-05
2.05219e-05
2.01759e-05
1.99345e-05
1.97758e-05
1.96043e-05
1.94397e-05
1.92041e-05
1.90738e-05
1.90608e-05
1.90693e-05
1.91086e-05
1.92503e-05
1.94165e-05
1.95201e-05
1.95239e-05
1.9594e-05
2.04744e-05
2.21515e-05
2.37605e-05
2.50107e-05
2.57857e-05
2.60377e-05
2.60512e-05
2.58604e-05
2.56963e-05
2.57027e-05
2.62872e-05
2.71852e-05
2.82114e-05
2.92897e-05
3.0031e-05
3.0312e-05
3.03585e-05
3.02877e-05
3.00152e-05
2.9525e-05
2.91029e-05
2.88162e-05
2.8797e-05
2.88923e-05
2.92297e-05
3.00107e-05
3.14942e-05
3.42096e-05
3.6718e-05
4.00411e-05
4.39014e-05
4.70639e-05
4.97257e-05
5.17215e-05
5.35356e-05
5.39847e-05
5.38007e-05
5.32508e-05
5.21567e-05
5.07342e-05
4.92854e-05
4.84919e-05
4.72963e-05
4.65921e-05
4.63036e-05
4.61118e-05
4.57989e-05
4.48722e-05
4.46262e-05
4.48277e-05
4.56997e-05
4.82302e-05
5.51914e-05
6.10567e-05
7.16884e-05
9.40325e-05
0.000116758
0.000125414
0.000128273
0.000128125
0.000125884
0.000120053
0.000113734
0.000109059
0.000106415
0.000105474
0.000103608
0.000102425
0.000100163
9.49747e-05
9.0389e-05
8.85245e-05
8.6873e-05
8.65154e-05
8.67456e-05
8.71769e-05
8.75021e-05
8.7156e-05
8.63468e-05
8.44325e-05
7.70142e-05
6.88107e-05
6.77623e-05
7.56624e-05
8.76084e-05
9.12807e-05
9.05375e-05
8.53927e-05
8.20886e-05
8.22442e-05
8.77861e-05
9.46068e-05
0.000100638
0.000104768
0.00010612
0.000102792
9.3383e-05
8.98864e-05
8.955e-05
8.98533e-05
9.19437e-05
9.17979e-05
8.9438e-05
7.87691e-05
6.6167e-05
5.96636e-05
5.87405e-05
6.0938e-05
6.25958e-05
6.36595e-05
6.64743e-05
0.000111343
0.00020378
0.000220754
0.00019383
0.000129242
9.50484e-05
8.9514e-05
9.42338e-05
0.000105281
0.000108436
0.000141498
0.000147911
0.000112869
9.57003e-05
0.000128468
0.000109458
9.43609e-05
9.02935e-05
9.17801e-05
8.92053e-05
8.90805e-05
9.28969e-05
9.18828e-05
9.29216e-05
0.000104609
0.000105221
0.000113626
0.000120528
0.000119813
0.000119868
0.000115995
0.000111193
0.000104606
9.74875e-05
9.34638e-05
8.71132e-05
8.43022e-05
7.96461e-05
7.72538e-05
7.43231e-05
7.15476e-05
6.98014e-05
6.78673e-05
6.66994e-06
6.63281e-06
6.62089e-06
6.62316e-06
6.60954e-06
6.56839e-06
6.53501e-06
6.52956e-06
6.5286e-06
6.5719e-06
6.641e-06
6.70199e-06
6.78281e-06
6.93676e-06
7.35669e-06
7.86023e-06
8.41626e-06
8.95069e-06
9.45523e-06
1.00467e-05
1.08213e-05
1.17949e-05
1.29077e-05
1.39789e-05
1.48019e-05
1.53289e-05
1.55694e-05
1.5624e-05
1.55903e-05
1.53644e-05
1.51383e-05
1.50065e-05
1.49754e-05
1.49809e-05
1.50155e-05
1.51894e-05
1.55954e-05
1.60299e-05
1.64141e-05
1.67367e-05
1.69825e-05
1.71336e-05
1.72067e-05
1.72204e-05
1.71859e-05
1.71625e-05
1.73686e-05
1.84526e-05
1.95003e-05
2.03098e-05
2.08545e-05
2.10762e-05
2.11254e-05
2.11229e-05
2.14968e-05
2.2679e-05
2.39335e-05
2.54711e-05
2.68357e-05
2.77553e-05
2.81827e-05
2.83474e-05
2.83914e-05
2.84228e-05
2.84365e-05
2.84842e-05
2.8663e-05
2.9051e-05
3.00356e-05
3.14053e-05
3.42212e-05
3.79607e-05
4.29795e-05
4.89954e-05
5.46893e-05
6.09102e-05
6.66992e-05
7.12266e-05
7.48743e-05
7.76689e-05
7.81383e-05
7.7739e-05
7.62719e-05
7.40855e-05
7.11058e-05
6.74663e-05
6.48231e-05
6.14213e-05
5.82762e-05
5.64565e-05
5.59062e-05
5.57096e-05
5.37772e-05
5.2241e-05
5.22318e-05
5.26864e-05
5.4363e-05
5.99054e-05
6.44514e-05
7.33842e-05
9.65069e-05
0.000118829
0.000127889
0.000131148
0.000131192
0.000129513
0.000123592
0.000113897
0.000107224
0.000104241
0.000104539
0.000105118
0.000104274
0.000103663
0.000102599
0.000100232
9.7711e-05
9.36955e-05
8.99009e-05
8.86209e-05
8.85129e-05
8.89436e-05
8.9461e-05
9.0376e-05
9.30576e-05
9.1988e-05
8.27279e-05
7.89653e-05
8.68289e-05
0.000101608
0.000105826
0.000105885
0.000100169
9.24353e-05
8.7782e-05
8.64801e-05
8.86433e-05
9.49834e-05
0.000101244
0.000106528
0.000107926
0.000102792
9.41023e-05
9.35036e-05
9.52402e-05
9.50919e-05
9.50851e-05
9.38479e-05
8.37868e-05
7.1423e-05
6.23326e-05
5.78969e-05
5.73118e-05
6.01956e-05
6.23532e-05
6.20342e-05
6.22004e-05
7.9575e-05
0.000176626
0.000221201
0.000211972
0.000150236
0.000106791
9.72648e-05
0.000101314
0.000112419
0.000128222
0.000153092
0.000152871
0.000131609
0.000123427
0.000160284
0.000166193
0.000116396
9.77737e-05
9.24113e-05
9.47631e-05
9.11093e-05
9.46635e-05
9.65958e-05
9.53234e-05
0.000104894
0.000110456
0.000112361
0.000117201
0.000114582
0.000114992
0.000111185
0.000107821
0.000101846
9.47588e-05
8.98504e-05
8.41483e-05
8.05477e-05
7.71688e-05
7.44455e-05
7.2629e-05
7.05081e-05
6.84102e-05
6.63212e-05
5.70074e-06
5.70388e-06
5.72733e-06
5.74646e-06
5.81609e-06
5.85358e-06
5.92144e-06
5.94439e-06
5.94074e-06
5.95889e-06
6.0395e-06
6.11812e-06
6.15082e-06
6.15858e-06
6.28777e-06
6.8593e-06
7.64854e-06
8.33816e-06
9.17245e-06
9.92312e-06
1.06766e-05
1.13527e-05
1.18853e-05
1.22643e-05
1.24616e-05
1.25715e-05
1.26264e-05
1.266e-05
1.27261e-05
1.29064e-05
1.3169e-05
1.33971e-05
1.36766e-05
1.39992e-05
1.43623e-05
1.48465e-05
1.53959e-05
1.59213e-05
1.63675e-05
1.66729e-05
1.68314e-05
1.68676e-05
1.68383e-05
1.67041e-05
1.66369e-05
1.6691e-05
1.7409e-05
1.84535e-05
1.93052e-05
1.99491e-05
2.03364e-05
2.05195e-05
2.0635e-05