/*--------------------------------*- C++ -*----------------------------------*\
| =========                 |                                                 |
| \\      /  F ield         | OpenFOAM: The Open Source CFD Toolbox           |
|  \\    /   O peration     | Version:  2.4.0                                 |
|   \\  /    A nd           | Web:      www.OpenFOAM.org                      |
|    \\/     M anipulation  |                                                 |
\*---------------------------------------------------------------------------*/
FoamFile
{
    version     2.0;
    format      ascii;
    class       volVectorField;
    location    "0.71";
    object      U_0;
}
// * * * * * * * * * * * * * * * * * * * * * * * * * * * * * * * * * * * * * //

dimensions      [0 1 -1 0 0 0 0];

internalField   nonuniform List<vector> 
8800
(
(8.08994 0.388174 0)
(5.44726 0.242131 0)
(3.91305 0.0428203 0)
(3.15115 -0.0149429 0)
(2.81001 -0.0189074 0)
(2.59357 -0.0109021 0)
(2.47857 -0.0034427 0)
(2.37943 -0.00562187 0)
(2.32668 -0.000928631 0)
(2.24143 0.00174242 0)
(2.22192 -0.00278181 0)
(2.16725 -0.000364283 0)
(2.16097 0.00111825 0)
(2.09623 0.000505083 0)
(2.09455 -0.000147685 0)
(2.0344 0.00116698 0)
(2.02298 0.00131748 0)
(1.95022 -0.000467528 0)
(1.98461 0.0114968 0)
(1.65285 -0.0867315 0)
(10.0892 0.839261 0)
(9.64708 0.866951 0)
(8.8802 0.507528 0)
(8.05619 0.261494 0)
(7.5221 0.135319 0)
(6.98856 0.0854208 0)
(6.68942 0.058808 0)
(6.40773 0.0304187 0)
(6.2312 0.0334761 0)
(6.00014 0.0300167 0)
(5.95248 0.0111098 0)
(5.76066 0.0156081 0)
(5.75272 0.0181865 0)
(5.58171 0.0155857 0)
(5.59382 0.0136561 0)
(5.42136 0.016803 0)
(5.43479 0.0245869 0)
(5.24091 0.00532508 0)
(5.31717 0.0410654 0)
(4.98925 -0.0697113 0)
(10.0873 0.634284 0)
(10.6354 0.861526 0)
(10.893 0.603798 0)
(10.6352 0.372032 0)
(10.4948 0.249116 0)
(10.0642 0.20591 0)
(9.82453 0.158248 0)
(9.50896 0.103979 0)
(9.3208 0.105445 0)
(9.00497 0.0822888 0)
(8.96876 0.0464444 0)
(8.6689 0.0510389 0)
(8.67493 0.0472398 0)
(8.42474 0.0391404 0)
(8.4587 0.0375952 0)
(8.20764 0.0388043 0)
(8.24171 0.050872 0)
(7.99738 0.0284802 0)
(8.04478 0.0594951 0)
(7.79636 -0.0704951 0)
(10.0597 0.458986 0)
(10.5262 0.70366 0)
(11.2329 0.555351 0)
(11.2984 0.351944 0)
(11.5772 0.24405 0)
(11.4473 0.243911 0)
(11.4766 0.207184 0)
(11.304 0.145994 0)
(11.3087 0.16874 0)
(11.0594 0.132027 0)
(11.1366 0.086248 0)
(10.8336 0.0944836 0)
(10.901 0.085714 0)
(10.6446 0.0715084 0)
(10.7183 0.0648244 0)
(10.4446 0.0757885 0)
(10.5154 0.0725415 0)
(10.2497 0.0704463 0)
(10.2943 0.0597063 0)
(10.0732 0.0632307 0)
(10.115 0.34669 0)
(10.3451 0.55875 0)
(11.142 0.473628 0)
(11.2539 0.307314 0)
(11.638 0.18263 0)
(11.6831 0.212556 0)
(11.9052 0.187766 0)
(11.809 0.126873 0)
(11.9916 0.171565 0)
(11.8997 0.137822 0)
(12.1451 0.0908461 0)
(11.9527 0.117155 0)
(12.0701 0.0927264 0)
(11.9271 0.0941265 0)
(12.0772 0.0728993 0)
(11.8526 0.103663 0)
(11.9807 0.076793 0)
(11.7983 0.108852 0)
(11.8345 0.0555655 0)
(11.6881 0.112587 0)
(10.1106 0.253253 0)
(10.2751 0.440967 0)
(10.9406 0.392421 0)
(11.1869 0.274303 0)
(11.4857 0.125916 0)
(11.6017 0.158153 0)
(11.8438 0.163252 0)
(11.8413 0.103325 0)
(11.956 0.147331 0)
(11.9582 0.0915986 0)
(12.2605 0.0636084 0)
(12.3037 0.118639 0)
(12.3168 0.092004 0)
(12.2755 0.0715907 0)
(12.4798 0.0786607 0)
(12.4132 0.100438 0)
(12.5 0.0793045 0)
(12.4478 0.0842914 0)
(12.4572 0.0630894 0)
(12.4196 0.0152383 0)
(10.0198 0.174611 0)
(10.2468 0.342624 0)
(10.8045 0.294285 0)
(11.2411 0.238525 0)
(11.2979 0.0974994 0)
(11.4272 0.116616 0)
(11.7596 0.106735 0)
(11.9127 0.0861429 0)
(11.7829 0.138183 0)
(11.7368 0.0575806 0)
(12.0389 -0.000174299 0)
(12.3207 0.105538 0)
(12.2411 0.103555 0)
(12.14 0.0542181 0)
(12.3856 0.0412133 0)
(12.549 0.0901245 0)
(12.591 0.0732832 0)
(12.5041 0.0815001 0)
(12.5392 0.0287029 0)
(12.5328 -0.0325087 0)
(9.95603 0.128651 0)
(10.1887 0.221241 0)
(10.7768 0.179707 0)
(11.1976 0.211438 0)
(11.221 0.108682 0)
(11.3736 0.0427373 0)
(11.7602 0.0268347 0)
(11.8585 0.08503 0)
(11.666 0.172353 0)
(11.6755 0.0179993 0)
(11.9498 -0.0857686 0)
(12.2238 0.0636908 0)
(12.1 0.135112 0)
(11.9376 0.0340462 0)
(12.2238 -0.0249532 0)
(12.5259 0.0384318 0)
(12.5599 0.078301 0)
(12.5146 0.061798 0)
(12.6121 -0.00251076 0)
(12.5112 -0.0657335 0)
(9.97995 0.0969737 0)
(10.1911 0.0971345 0)
(10.6878 0.0693898 0)
(10.9557 0.174884 0)
(11.3086 0.103502 0)
(11.526 -0.00989452 0)
(11.647 -0.0271053 0)
(11.6211 0.0927101 0)
(11.677 0.171742 0)
(11.9044 -0.0201313 0)
(11.9679 -0.133272 0)
(12.0038 0.0689956 0)
(11.9696 0.180952 0)
(12.0195 0.0178909 0)
(12.2191 -0.108145 0)
(12.3491 -0.0146061 0)
(12.3672 0.0630569 0)
(12.4464 0.029485 0)
(12.5245 -0.0213709 0)
(12.3887 -0.0449286 0)
(9.98046 0.053258 0)
(10.286 -0.00302802 0)
(10.5972 0.0129108 0)
(10.744 0.0946612 0)
(11.3518 0.0236964 0)
(11.6442 -0.0260978 0)
(11.5867 -0.00800956 0)
(11.4354 0.0634002 0)
(11.6357 0.0871543 0)
(11.9883 -0.0548216 0)
(11.9576 -0.106525 0)
(11.8706 0.0758007 0)
(12.0496 0.13717 0)
(12.3174 -0.0196349 0)
(12.2416 -0.103501 0)
(12.0194 -0.00830108 0)
(12.0643 0.0399688 0)
(12.3194 -0.00781352 0)
(12.4251 -0.0377259 0)
(12.3856 -0.0441454 0)
(9.95278 0.0014674 0)
(10.3251 -0.104381 0)
(10.591 -0.0253906 0)
(10.8249 0.0167248 0)
(11.3551 -0.0629336 0)
(11.528 -0.0562071 0)
(11.5218 0.0112603 0)
(11.4678 0.0601483 0)
(11.6942 0.0123583 0)
(11.9352 -0.115599 0)
(11.9145 -0.101663 0)
(11.9086 0.0495332 0)
(12.1333 0.0686906 0)
(12.3049 -0.0340267 0)
(12.1697 -0.0353718 0)
(12.0351 0.0113156 0)
(12.1612 -0.0293992 0)
(12.4144 -0.0946934 0)
(12.4672 -0.0910814 0)
(12.4199 -0.0703945 0)
(9.96984 -0.0468712 0)
(10.2846 -0.20663 0)
(10.5951 -0.0963822 0)
(11.03 -0.0661396 0)
(11.3567 -0.0927422 0)
(11.3836 -0.050334 0)
(11.4106 -0.00598808 0)
(11.5851 0.00277233 0)
(11.9634 -0.0465964 0)
(11.9353 -0.124243 0)
(11.8231 -0.0878869 0)
(11.9246 0.0253348 0)
(12.1042 0.0433716 0)
(12.1644 -0.034152 0)
(12.1921 -0.03657 0)
(12.295 -0.0302492 0)
(12.4303 -0.0723729 0)
(12.4673 -0.111513 0)
(12.4257 -0.0961548 0)
(12.3509 -0.0738537 0)
(10.0025 -0.0977206 0)
(10.2507 -0.302981 0)
(10.6735 -0.194249 0)
(11.106 -0.131889 0)
(11.3231 -0.0960428 0)
(11.4476 -0.0565398 0)
(11.4421 -0.0533826 0)
(11.7048 -0.0895442 0)
(12.0484 -0.0872846 0)
(11.9191 -0.0975407 0)
(11.8191 -0.0829827 0)
(11.9735 -0.0185042 0)
(12.1356 0.0114507 0)
(12.2097 -0.055964 0)
(12.2885 -0.0640841 0)
(12.3707 -0.0650494 0)
(12.4557 -0.0826532 0)
(12.4712 -0.120659 0)
(12.4694 -0.119184 0)
(12.3927 -0.0892482 0)
(10.0092 -0.155935 0)
(10.3152 -0.405743 0)
(10.8109 -0.29049 0)
(11.0428 -0.1743 0)
(11.375 -0.130522 0)
(11.5783 -0.0789558 0)
(11.6051 -0.0852601 0)
(11.8032 -0.15867 0)
(12.0223 -0.113026 0)
(11.9257 -0.0947737 0)
(11.9294 -0.0903139 0)
(12.0947 -0.0553871 0)
(12.1998 -0.0143416 0)
(12.246 -0.06971 0)
(12.3834 -0.0736842 0)
(12.4514 -0.0952531 0)
(12.5141 -0.111678 0)
(12.5625 -0.148782 0)
(12.5708 -0.141651 0)
(12.4548 -0.116261 0)
(10.0693 -0.240505 0)
(10.3737 -0.513988 0)
(10.8763 -0.353171 0)
(11.0614 -0.207315 0)
(11.5266 -0.186115 0)
(11.6384 -0.120749 0)
(11.8042 -0.130636 0)
(11.9029 -0.204754 0)
(12.065 -0.120193 0)
(11.9143 -0.0952471 0)
(12.0453 -0.113286 0)
(12.1262 -0.084917 0)
(12.2515 -0.0299719 0)
(12.2848 -0.100986 0)
(12.491 -0.106447 0)
(12.4754 -0.119136 0)
(12.4978 -0.112968 0)
(12.4468 -0.164813 0)
(12.4204 -0.144939 0)
(12.2441 -0.138793 0)
(10.1166 -0.348245 0)
(10.3819 -0.604561 0)
(10.9539 -0.42162 0)
(11.2507 -0.270681 0)
(11.712 -0.25054 0)
(11.6927 -0.161236 0)
(11.9135 -0.171104 0)
(11.8388 -0.227165 0)
(11.9868 -0.128271 0)
(11.8262 -0.102125 0)
(11.9847 -0.135853 0)
(11.9067 -0.106139 0)
(12.068 -0.0618289 0)
(11.9381 -0.121933 0)
(12.0812 -0.116814 0)
(11.8961 -0.113753 0)
(11.9173 -0.103451 0)
(11.7272 -0.157034 0)
(11.6986 -0.132032 0)
(11.4504 -0.160447 0)
(10.0634 -0.459763 0)
(10.4964 -0.72045 0)
(11.1293 -0.519714 0)
(11.3966 -0.34964 0)
(11.5735 -0.294311 0)
(11.4539 -0.199925 0)
(11.5387 -0.192489 0)
(11.2521 -0.216141 0)
(11.2999 -0.130883 0)
(11.0587 -0.104133 0)
(11.0655 -0.125886 0)
(10.8448 -0.0995457 0)
(10.9262 -0.0599413 0)
(10.6331 -0.0972016 0)
(10.7016 -0.091927 0)
(10.4085 -0.0887399 0)
(10.4366 -0.0757173 0)
(10.1339 -0.128823 0)
(10.1227 -0.10321 0)
(9.79365 -0.170309 0)
(10.0904 -0.631283 0)
(10.614 -0.871182 0)
(10.8731 -0.591262 0)
(10.7168 -0.369968 0)
(10.4344 -0.273523 0)
(10.0885 -0.181942 0)
(9.8735 -0.147189 0)
(9.43642 -0.147143 0)
(9.33357 -0.0870788 0)
(9.02583 -0.0583846 0)
(8.92471 -0.0727388 0)
(8.67953 -0.0596045 0)
(8.68459 -0.0291313 0)
(8.39573 -0.0529667 0)
(8.42504 -0.0570295 0)
(8.14112 -0.0503503 0)
(8.16347 -0.0476876 0)
(7.85971 -0.0788048 0)
(7.84896 -0.077384 0)
(7.49809 -0.0927079 0)
(10.0982 -0.837947 0)
(9.6382 -0.871451 0)
(8.87672 -0.502939 0)
(8.09811 -0.257947 0)
(7.47305 -0.148479 0)
(7.00949 -0.0766812 0)
(6.7178 -0.0466271 0)
(6.36187 -0.0542751 0)
(6.23535 -0.0291414 0)
(6.01699 -0.0116255 0)
(5.93518 -0.0263433 0)
(5.75714 -0.0246446 0)
(5.74359 -0.00498329 0)
(5.55954 -0.0217129 0)
(5.55656 -0.0266235 0)
(5.35369 -0.0218262 0)
(5.35816 -0.0204342 0)
(5.13112 -0.0376335 0)
(5.10437 -0.041656 0)
(4.8061 -0.0202085 0)
(8.09478 -0.387539 0)
(5.44524 -0.243069 0)
(3.90984 -0.0426789 0)
(3.16559 0.0171484 0)
(2.79487 0.0152306 0)
(2.59185 0.01213 0)
(2.4944 0.00878628 0)
(2.37315 -0.00209228 0)
(2.31085 0.000936839 0)
(2.2473 0.00492216 0)
(2.22818 -0.00151663 0)
(2.15297 -0.00228742 0)
(2.14691 0.00345193 0)
(2.09202 -0.00192935 0)
(2.07196 -0.00287924 0)
(1.98723 -0.00133555 0)
(1.97865 -0.000208483 0)
(1.88568 -0.00479539 0)
(1.83661 -0.00460632 0)
(1.68405 0.0106411 0)
(2.34503 -0.111448 0)
(2.26821 -0.0620681 0)
(2.59734 -0.0646145 0)
(2.50439 -0.0681835 0)
(2.84068 -0.0854871 0)
(2.73114 -0.0569453 0)
(3.0145 -0.054808 0)
(2.90277 -0.0278846 0)
(3.14245 -0.0170254 0)
(3.02329 0.00574147 0)
(3.24136 0.0036258 0)
(3.14452 0.011379 0)
(3.34867 0.00629156 0)
(3.28695 0.0181013 0)
(3.47614 0.0159648 0)
(3.44332 0.0267431 0)
(3.61354 0.0194045 0)
(3.59073 0.0319285 0)
(3.73967 0.0275358 0)
(3.71191 0.0413276 0)
(3.85461 0.0451702 0)
(3.84041 0.0662539 0)
(3.99974 0.0702162 0)
(4.02699 0.085419 0)
(4.20381 0.0777366 0)
(4.26061 0.0731139 0)
(4.4502 0.0473637 0)
(4.51298 0.00982121 0)
(4.70275 -0.0417412 0)
(4.762 -0.113176 0)
(4.93953 -0.197786 0)
(4.97993 -0.278408 0)
(5.11854 -0.3814 0)
(5.12018 -0.46271 0)
(5.20976 -0.540155 0)
(5.159 -0.594531 0)
(5.18309 -0.638291 0)
(5.09348 -0.647057 0)
(5.05993 -0.642619 0)
(4.92891 -0.605716 0)
(4.89146 -0.558578 0)
(4.73313 -0.452734 0)
(4.71427 -0.329752 0)
(4.55238 -0.183487 0)
(4.52166 -0.0183453 0)
(4.33511 0.178066 0)
(4.27699 0.310336 0)
(4.16968 0.444584 0)
(4.12249 0.575698 0)
(4.14117 0.661693 0)
(4.33274 0.770017 0)
(4.58994 0.925114 0)
(4.92434 1.01354 0)
(5.34419 1.02111 0)
(5.76675 1.12025 0)
(6.18711 1.13968 0)
(6.66899 1.01324 0)
(7.14131 0.90632 0)
(7.52714 0.822147 0)
(7.91069 0.585374 0)
(8.28949 0.297497 0)
(8.60525 0.0813569 0)
(8.85695 -0.189375 0)
(9.14738 -0.516114 0)
(9.34201 -0.802534 0)
(9.43116 -1.00183 0)
(9.60475 -1.3024 0)
(9.77056 -1.59713 0)
(9.82234 -1.71136 0)
(9.96059 -1.83965 0)
(10.1753 -2.01823 0)
(10.3486 -2.14485 0)
(10.5162 -2.21901 0)
(10.8076 -2.20172 0)
(11.0925 -2.24906 0)
(11.3694 -2.38984 0)
(11.6721 -2.44046 0)
(11.93 -2.47881 0)
(12.0845 -2.6001 0)
(12.259 -2.54916 0)
(12.3984 -2.63863 0)
(12.4061 -2.70508 0)
(12.229 -2.57147 0)
(12.0971 -2.49407 0)
(11.8298 -2.3315 0)
(11.522 -2.1734 0)
(11.273 -1.95793 0)
(11.0203 -1.62091 0)
(10.7868 -1.54775 0)
(10.5201 -1.46788 0)
(10.2117 -1.44552 0)
(10.0609 -1.60842 0)
(9.92002 -1.57279 0)
(9.92581 -1.6692 0)
(9.91331 -1.88737 0)
(9.82934 -1.99339 0)
(9.79755 -2.1111 0)
(9.72179 -2.28233 0)
(9.64916 -2.44061 0)
(9.62308 -2.58858 0)
(9.61545 -2.82316 0)
(9.5719 -3.01844 0)
(9.75634 -3.16961 0)
(9.97516 -3.27819 0)
(10.1423 -3.41927 0)
(10.3462 -3.24434 0)
(10.5832 -3.09738 0)
(10.8455 -3.11326 0)
(11.0291 -2.7803 0)
(11.3682 -2.33591 0)
(11.3255 -2.06986 0)
(11.458 -1.57122 0)
(11.5239 -0.961495 0)
(11.428 -0.533419 0)
(11.3359 0.0450733 0)
(11.3537 0.723255 0)
(11.078 1.21113 0)
(10.9453 1.70547 0)
(10.7918 2.24824 0)
(10.4141 2.58975 0)
(9.83582 2.92087 0)
(9.59139 3.26882 0)
(9.24382 3.40436 0)
(8.8913 3.28807 0)
(8.54698 3.33501 0)
(8.72849 3.63654 0)
(8.85738 3.7837 0)
(8.64407 3.5582 0)
(8.34132 3.00151 0)
(7.59495 2.46271 0)
(7.65434 2.24226 0)
(8.34162 2.5811 0)
(9.08244 3.2045 0)
(10.2882 3.79938 0)
(10.7208 4.24853 0)
(10.735 4.46559 0)
(10.8352 4.29982 0)
(10.1907 3.99726 0)
(9.80034 3.4355 0)
(9.3999 2.64585 0)
(8.78635 2.09464 0)
(8.476 1.29624 0)
(8.18657 0.58486 0)
(7.76911 -0.192407 0)
(7.47971 -1.11434 0)
(7.00323 -2.35973 0)
(7.20391 -3.21277 0)
(6.90681 -4.01317 0)
(7.03611 -4.6445 0)
(6.75598 -5.02578 0)
(6.9483 -4.63192 0)
(6.8705 -4.15995 0)
(6.83655 -4.17047 0)
(6.50208 -3.71281 0)
(6.38013 -3.49147 0)
(5.8028 -3.52113 0)
(5.43921 -5.86122 0)
(4.66966 -7.79992 0)
(4.19752 -9.77498 0)
(4.95386 -9.40317 0)
(3.61239 -9.36633 0)
(4.83083 -8.7688 0)
(4.32883 -8.09992 0)
(4.48093 -7.65139 0)
(5.11069 -6.17205 0)
(4.50821 -5.01288 0)
(5.07399 -3.86313 0)
(4.97567 -2.51407 0)
(5.29807 -1.12599 0)
(5.43403 0.456206 0)
(6.14602 1.84248 0)
(6.49818 3.34908 0)
(7.56882 4.40079 0)
(8.11045 5.03533 0)
(8.70775 5.58588 0)
(9.1166 6.2046 0)
(9.86485 7.62585 0)
(11.0397 9.44641 0)
(11.7854 10.9017 0)
(12.0363 11.5554 0)
(11.7462 11.1258 0)
(10.9693 10.2012 0)
(10.1825 8.86584 0)
(9.2908 7.50158 0)
(8.46338 6.32064 0)
(7.62219 5.16204 0)
(7.28877 4.44621 0)
(6.45094 3.62244 0)
(6.14698 3.0696 0)
(5.84623 2.88472 0)
(5.2317 2.13345 0)
(5.29744 2.15083 0)
(4.92413 1.78594 0)
(5.39436 1.97066 0)
(5.23504 1.78284 0)
(4.53736 1.58178 0)
(5.06693 1.72622 0)
(3.2182 2.11652 0)
(5.39684 2.03449 0)
(3.16762 4.78314 0)
(5.29205 -0.0991574 0)
(5.23978 -0.0642294 0)
(5.34106 -0.0731223 0)
(5.32463 -0.0950452 0)
(5.47285 -0.123422 0)
(5.48772 -0.108742 0)
(5.61201 -0.0964754 0)
(5.59434 -0.0700449 0)
(5.68001 -0.0615295 0)
(5.64765 -0.0441788 0)
(5.72277 -0.0370053 0)
(5.70043 -0.0299254 0)
(5.7768 -0.0336265 0)
(5.77263 -0.0291739 0)
(5.85608 -0.0295045 0)
(5.86664 -0.0246958 0)
(5.95467 -0.0249095 0)
(5.96534 -0.0165945 0)
(6.05407 -0.0201339 0)
(6.055 -0.0108179 0)
(6.14982 -0.0108306 0)
(6.15638 -0.0083411 0)
(6.27489 -0.00250207 0)
(6.30657 -0.00786111 0)
(6.45629 -0.0181988 0)
(6.51545 -0.0286294 0)
(6.68008 -0.0690053 0)
(6.76504 -0.0954777 0)
(6.91284 -0.162319 0)
(7.02009 -0.217023 0)
(7.13555 -0.294336 0)
(7.22757 -0.376711 0)
(7.32521 -0.442207 0)
(7.35945 -0.518896 0)
(7.42691 -0.572509 0)
(7.4298 -0.591864 0)
(7.43236 -0.619342 0)
(7.41873 -0.601837 0)
(7.38061 -0.556696 0)
(7.29467 -0.509294 0)
(7.23172 -0.436713 0)
(7.0736 -0.317488 0)
(6.95273 -0.201383 0)
(6.80447 -0.0751856 0)
(6.67947 0.054524 0)
(6.53829 0.199183 0)
(6.44006 0.329539 0)
(6.35146 0.46595 0)
(6.30581 0.591477 0)
(6.27414 0.673743 0)
(6.28605 0.73706 0)
(6.36575 0.806448 0)
(6.53651 0.823387 0)
(6.73677 0.806939 0)
(6.89518 0.866082 0)
(7.23996 0.799329 0)
(7.61759 0.676676 0)
(7.92344 0.644248 0)
(8.23532 0.525944 0)
(8.63787 0.256595 0)
(8.96718 0.00492187 0)
(9.25801 -0.17867 0)
(9.56114 -0.390823 0)
(9.88238 -0.683652 0)
(10.0955 -1.00692 0)
(10.3274 -1.21895 0)
(10.6852 -1.48902 0)
(10.9047 -1.73461 0)
(11.0645 -1.8698 0)
(11.3481 -2.08673 0)
(11.6147 -2.23725 0)
(11.8785 -2.33148 0)
(12.1225 -2.39728 0)
(12.3491 -2.41091 0)
(12.6631 -2.48452 0)
(12.7962 -2.61376 0)
(12.9503 -2.57973 0)
(13.088 -2.58732 0)
(13.1248 -2.62582 0)
(13.027 -2.6188 0)
(13.0159 -2.61755 0)
(12.7047 -2.50639 0)
(12.4392 -2.4206 0)
(12.1318 -2.32627 0)
(11.7681 -1.98764 0)
(11.4049 -1.83199 0)
(11.0319 -1.6963 0)
(10.6756 -1.39738 0)
(10.5093 -1.34809 0)
(10.244 -1.24539 0)
(10.0437 -1.25221 0)
(9.84352 -1.3881 0)
(9.59695 -1.51489 0)
(9.60878 -1.74577 0)
(9.63583 -1.90973 0)
(9.57175 -1.95257 0)
(9.61454 -2.11373 0)
(9.66015 -2.29125 0)
(9.64843 -2.41336 0)
(9.71604 -2.62805 0)
(9.85887 -2.9357 0)
(9.99565 -3.19334 0)
(10.2608 -3.34008 0)
(10.4568 -3.44285 0)
(10.696 -3.61046 0)
(10.9368 -3.594 0)
(11.2158 -3.42458 0)
(11.4173 -3.36648 0)
(11.613 -3.04121 0)
(11.8385 -2.54892 0)
(11.9224 -2.27662 0)
(12.1125 -1.80848 0)
(12.2907 -1.07269 0)
(12.1577 -0.504823 0)
(12.042 0.0798017 0)
(12.0202 0.949819 0)
(11.7058 1.54119 0)
(11.3488 1.91254 0)
(11.1213 2.48886 0)
(10.7568 2.97692 0)
(10.2683 3.25971 0)
(10.011 3.48706 0)
(9.79469 3.67305 0)
(9.43751 3.66777 0)
(8.84621 3.48085 0)
(8.85372 3.5246 0)
(9.09131 3.64182 0)
(9.06691 3.65663 0)
(9.11624 3.38914 0)
(8.36693 2.86461 0)
(7.95316 2.20837 0)
(8.1156 2.05237 0)
(8.66135 2.39179 0)
(9.75305 3.01374 0)
(10.778 3.77058 0)
(11.049 4.24379 0)
(11.4323 4.355 0)
(11.037 4.22776 0)
(10.5321 3.76922 0)
(10.27 3.03372 0)
(9.5518 2.38419 0)
(9.40736 1.58567 0)
(8.88027 0.86311 0)
(8.77887 0.133311 0)
(8.15522 -0.828991 0)
(7.93888 -2.08923 0)
(7.68537 -3.23111 0)
(7.66624 -3.88808 0)
(7.42089 -4.54494 0)
(7.386 -4.96928 0)
(7.10974 -4.52575 0)
(7.23752 -4.22201 0)
(6.82465 -3.84478 0)
(6.71955 -3.66976 0)
(6.29204 -3.04516 0)
(5.94412 -3.41222 0)
(5.53554 -4.99621 0)
(4.36636 -7.5351 0)
(4.64489 -9.56191 0)
(4.04736 -9.18808 0)
(3.82377 -9.59558 0)
(4.58956 -8.58436 0)
(3.63059 -8.49728 0)
(4.82103 -7.65254 0)
(4.33975 -6.28935 0)
(4.74342 -5.24315 0)
(4.88541 -3.94555 0)
(4.92611 -2.79331 0)
(5.18976 -1.16261 0)
(5.31834 0.00659679 0)
(5.99158 1.31469 0)
(6.5037 2.67095 0)
(7.25327 3.81622 0)
(7.99112 4.49901 0)
(8.56406 5.12694 0)
(9.24737 5.68843 0)
(9.59413 6.68997 0)
(10.4985 8.53924 0)
(11.3309 10.2918 0)
(11.7618 11.5732 0)
(11.8105 11.7488 0)
(11.2205 11.0787 0)
(10.4911 9.77194 0)
(9.53864 8.24726 0)
(8.98317 7.03245 0)
(8.04735 5.75407 0)
(7.59029 4.76204 0)
(7.1798 4.15586 0)
(6.31753 3.28999 0)
(6.51678 2.96826 0)
(5.72246 2.48838 0)
(5.56466 2.11426 0)
(5.76895 1.74012 0)
(4.71149 1.82534 0)
(6.71215 1.48733 0)
(4.40395 2.20536 0)
(7.45223 1.30168 0)
(4.41749 3.24754 0)
(7.29627 1.04975 0)
(5.28683 4.564 0)
(7.90165 -0.140543 0)
(7.90103 -0.137481 0)
(7.93184 -0.143602 0)
(7.96175 -0.150852 0)
(8.03535 -0.150702 0)
(8.08056 -0.125756 0)
(8.15808 -0.108271 0)
(8.16996 -0.0700912 0)
(8.2154 -0.0590991 0)
(8.1981 -0.0488422 0)
(8.22414 -0.0383973 0)
(8.20403 -0.0523471 0)
(8.23766 -0.0448016 0)
(8.22997 -0.0543506 0)
(8.2825 -0.0587578 0)
(8.29393 -0.0513967 0)
(8.35997 -0.0626317 0)
(8.38031 -0.0444471 0)
(8.4499 -0.0451517 0)
(8.46329 -0.0428115 0)
(8.53524 -0.0439805 0)
(8.55031 -0.0499684 0)
(8.62355 -0.0596412 0)
(8.66427 -0.0624293 0)
(8.7461 -0.0927846 0)
(8.82518 -0.105038 0)
(8.91901 -0.143778 0)
(9.01057 -0.193017 0)
(9.11389 -0.233959 0)
(9.19776 -0.308894 0)
(9.28583 -0.368107 0)
(9.34831 -0.437357 0)
(9.40564 -0.503338 0)
(9.43954 -0.551173 0)
(9.45187 -0.601319 0)
(9.46882 -0.600628 0)
(9.44005 -0.607337 0)
(9.41569 -0.592747 0)
(9.38319 -0.513096 0)
(9.29243 -0.466624 0)
(9.23198 -0.389931 0)
(9.13356 -0.23727 0)
(9.03051 -0.123071 0)
(8.9303 0.0049956 0)
(8.85689 0.173102 0)
(8.73579 0.313053 0)
(8.66892 0.410125 0)
(8.58751 0.539062 0)
(8.55836 0.638721 0)
(8.52692 0.685546 0)
(8.50885 0.730166 0)
(8.5568 0.748891 0)
(8.68985 0.732413 0)
(8.81472 0.723038 0)
(8.86204 0.723318 0)
(9.15288 0.584043 0)
(9.40772 0.471005 0)
(9.60257 0.464455 0)
(9.95753 0.291393 0)
(10.3172 0.0191238 0)
(10.5279 -0.165353 0)
(10.8394 -0.401899 0)
(11.125 -0.674961 0)
(11.446 -0.911645 0)
(11.7464 -1.15595 0)
(12.0231 -1.37472 0)
(12.3406 -1.65206 0)
(12.5554 -1.87387 0)
(12.7115 -2.00145 0)
(13.0277 -2.23302 0)
(13.1833 -2.3905 0)
(13.3799 -2.39635 0)
(13.4741 -2.48397 0)
(13.5812 -2.60392 0)
(13.6831 -2.64226 0)
(13.7077 -2.59079 0)
(13.6193 -2.57383 0)
(13.6289 -2.60036 0)
(13.4379 -2.52921 0)
(13.2299 -2.45092 0)
(12.9105 -2.4081 0)
(12.6189 -2.18159 0)
(12.2526 -2.04347 0)
(11.8591 -1.89994 0)
(11.4357 -1.66712 0)
(11.1411 -1.56628 0)
(10.7597 -1.35019 0)
(10.4867 -1.21303 0)
(10.3775 -1.19633 0)
(10.0939 -1.07888 0)
(10.0197 -1.10803 0)
(9.93001 -1.27715 0)
(9.79328 -1.39107 0)
(9.75642 -1.66858 0)
(9.64257 -1.92032 0)
(9.59353 -1.9991 0)
(9.61497 -2.14606 0)
(9.61865 -2.33357 0)
(9.70148 -2.51415 0)
(9.86518 -2.77116 0)
(10.0048 -3.02265 0)
(10.1674 -3.28913 0)
(10.3916 -3.55519 0)
(10.6224 -3.69894 0)
(10.82 -3.7847 0)
(10.9356 -3.76436 0)
(11.2478 -3.66674 0)
(11.4304 -3.5857 0)
(11.6557 -3.2033 0)
(11.8589 -2.75129 0)
(12.0158 -2.37384 0)
(12.1181 -1.86607 0)
(12.2899 -1.13625 0)
(12.1784 -0.490308 0)
(12.1576 0.107415 0)
(12.1745 0.950315 0)
(12.1122 1.62141 0)
(11.8043 2.10406 0)
(11.5588 2.8227 0)
(11.1998 3.43031 0)
(10.6869 3.63747 0)
(10.2844 3.65959 0)
(9.99158 3.8158 0)
(9.76341 3.98898 0)
(9.15872 3.6859 0)
(9.02153 3.50209 0)
(9.23799 3.52588 0)
(9.16104 3.59115 0)
(9.53297 3.62217 0)
(9.21514 3.34729 0)
(8.7971 2.53938 0)
(8.62143 1.86749 0)
(8.68407 1.78105 0)
(9.40717 2.19874 0)
(10.492 3.07276 0)
(11.0696 3.97685 0)
(11.5537 4.40939 0)
(11.5576 4.56031 0)
(11.12 4.20332 0)
(10.8612 3.47809 0)
(10.3354 2.68239 0)
(9.97946 1.94815 0)
(9.61105 1.16475 0)
(9.39801 0.492747 0)
(8.97721 -0.486301 0)
(8.55349 -1.79339 0)
(8.35557 -3.09453 0)
(8.17012 -3.7636 0)
(8.03239 -4.42506 0)
(7.68494 -4.70696 0)
(7.53823 -4.51743 0)
(7.36184 -3.96346 0)
(7.06577 -3.66556 0)
(6.75293 -3.40421 0)
(6.43314 -2.7997 0)
(6.17664 -3.00414 0)
(5.40652 -4.33677 0)
(4.56329 -7.35251 0)
(4.26315 -8.96931 0)
(3.46605 -9.35911 0)
(4.1954 -9.39983 0)
(3.45069 -8.67125 0)
(4.06531 -8.8347 0)
(4.06108 -7.75392 0)
(3.84681 -6.59404 0)
(4.66783 -5.45694 0)
(4.22733 -4.15345 0)
(4.97187 -2.82359 0)
(4.68997 -1.45284 0)
(5.53788 -0.303795 0)
(5.59473 0.966497 0)
(6.60755 2.11733 0)
(7.07593 3.00877 0)
(8.02284 3.97072 0)
(8.35588 4.76518 0)
(8.85471 5.54084 0)
(9.35905 6.40344 0)
(10.0088 8.0325 0)
(10.8216 9.6786 0)
(11.2739 10.9543 0)
(11.5429 11.4944 0)
(11.3508 11.2035 0)
(11.0604 10.3442 0)
(10.2361 9.022 0)
(9.59772 7.6819 0)
(9.17455 6.60999 0)
(8.07622 5.40629 0)
(8.13111 4.67842 0)
(7.32302 3.92488 0)
(6.76731 3.38812 0)
(7.59604 2.76384 0)
(5.41258 2.74505 0)
(8.15531 1.47108 0)
(4.62213 2.52676 0)
(8.52516 0.52773 0)
(4.94366 2.55147 0)
(8.66767 0.231344 0)
(5.87338 3.21832 0)
(8.76988 1.34021 0)
(6.84812 3.78821 0)
(10.0887 -0.174173 0)
(10.1251 -0.283928 0)
(10.1602 -0.300292 0)
(10.2141 -0.282932 0)
(10.2718 -0.228373 0)
(10.2994 -0.177898 0)
(10.3472 -0.142341 0)
(10.3261 -0.107251 0)
(10.3676 -0.0930703 0)
(10.3402 -0.069662 0)
(10.3708 -0.0496444 0)
(10.3672 -0.0528939 0)
(10.3682 -0.0466479 0)
(10.392 -0.0588448 0)
(10.3839 -0.0710062 0)
(10.4137 -0.074554 0)
(10.4448 -0.09443 0)
(10.4674 -0.077166 0)
(10.5287 -0.0855514 0)
(10.5431 -0.0754602 0)
(10.5971 -0.0739402 0)
(10.6157 -0.0930451 0)
(10.6491 -0.0860514 0)
(10.6812 -0.115252 0)
(10.7211 -0.146803 0)
(10.7721 -0.169702 0)
(10.8452 -0.216324 0)
(10.898 -0.258299 0)
(10.9758 -0.309839 0)
(11.0416 -0.358972 0)
(11.0765 -0.41652 0)
(11.1274 -0.477281 0)
(11.1173 -0.514598 0)
(11.1233 -0.570222 0)
(11.0914 -0.598941 0)
(11.0461 -0.600742 0)
(11.0148 -0.597376 0)
(10.9605 -0.581893 0)
(10.9234 -0.49099 0)
(10.8728 -0.403851 0)
(10.8391 -0.342166 0)
(10.7818 -0.158864 0)
(10.744 -0.00666252 0)
(10.6521 0.046385 0)
(10.607 0.210197 0)
(10.5541 0.383416 0)
(10.5057 0.425399 0)
(10.435 0.532552 0)
(10.4934 0.649135 0)
(10.5291 0.706739 0)
(10.5184 0.728736 0)
(10.5829 0.699453 0)
(10.7277 0.654273 0)
(10.8423 0.663346 0)
(10.9253 0.634333 0)
(11.1717 0.415213 0)
(11.3141 0.291623 0)
(11.4732 0.254933 0)
(11.8462 0.0379325 0)
(12.0969 -0.198597 0)
(12.244 -0.368394 0)
(12.5742 -0.640548 0)
(12.8132 -0.894191 0)
(12.9911 -1.07742 0)
(13.2484 -1.35576 0)
(13.4559 -1.62255 0)
(13.648 -1.78713 0)
(13.7552 -1.99188 0)
(13.9008 -2.25304 0)
(14.0008 -2.33829 0)
(14.0573 -2.41704 0)
(13.9982 -2.59132 0)
(14.0289 -2.65519 0)
(13.9675 -2.62808 0)
(13.889 -2.60355 0)
(13.7732 -2.57765 0)
(13.6588 -2.5281 0)
(13.3996 -2.47191 0)
(13.1608 -2.35822 0)
(12.949 -2.21253 0)
(12.6232 -2.09295 0)
(12.3092 -1.91139 0)
(11.9851 -1.76249 0)
(11.6012 -1.63042 0)
(11.2969 -1.41141 0)
(11.0335 -1.26454 0)
(10.7687 -1.1566 0)
(10.5695 -1.08673 0)
(10.3859 -1.0545 0)
(10.2659 -1.00946 0)
(10.2715 -1.0704 0)
(10.2121 -1.19068 0)
(10.1638 -1.378 0)
(10.1651 -1.60678 0)
(9.99015 -1.7491 0)
(9.83887 -1.9395 0)
(9.81187 -2.15788 0)
(9.76086 -2.3333 0)
(9.78584 -2.56691 0)
(9.9235 -2.88207 0)
(10.0041 -3.20632 0)
(10.2064 -3.51803 0)
(10.3606 -3.77412 0)
(10.4528 -3.8439 0)
(10.5853 -3.89627 0)
(10.747 -3.94753 0)
(11.0524 -3.84269 0)
(11.2306 -3.66655 0)
(11.4179 -3.29075 0)
(11.6009 -2.89926 0)
(11.7394 -2.48583 0)
(11.8899 -1.91707 0)
(11.9637 -1.16993 0)
(11.8704 -0.497919 0)
(11.8912 0.150858 0)
(11.9169 1.00539 0)
(11.8479 1.68547 0)
(11.7302 2.22242 0)
(11.6082 2.98296 0)
(11.4339 3.67263 0)
(10.9965 4.02565 0)
(10.5713 4.02334 0)
(10.1311 4.14745 0)
(9.93927 4.40639 0)
(9.38664 4.03099 0)
(9.20676 3.60597 0)
(9.43369 3.46582 0)
(9.28706 3.44473 0)
(9.69539 3.50912 0)
(9.6655 3.44506 0)
(9.46219 2.85135 0)
(9.36438 2.04003 0)
(9.19262 1.55299 0)
(9.46877 1.61303 0)
(10.3349 2.24896 0)
(10.9241 3.3556 0)
(11.6148 4.07406 0)
(11.7353 4.46398 0)
(11.5611 4.37035 0)
(11.2268 3.79878 0)
(10.848 3.02824 0)
(10.4691 2.18106 0)
(10.0775 1.45264 0)
(9.91645 0.707762 0)
(9.49305 -0.118988 0)
(9.16513 -1.60908 0)
(8.90869 -2.85073 0)
(8.71908 -3.62974 0)
(8.47367 -4.23161 0)
(8.06387 -4.48536 0)
(7.81554 -4.37013 0)
(7.53171 -3.74661 0)
(7.33875 -3.46903 0)
(6.79015 -3.09356 0)
(6.74518 -2.61281 0)
(6.17885 -2.54988 0)
(5.69738 -3.84427 0)
(4.836 -6.60171 0)
(3.91489 -8.41334 0)
(3.52951 -9.47997 0)
(3.73626 -9.06935 0)
(2.96882 -9.0554 0)
(4.09088 -8.69997 0)
(2.47285 -7.91862 0)
(4.29762 -6.56487 0)
(3.20398 -5.57757 0)
(4.07641 -4.36459 0)
(4.21491 -2.96088 0)
(4.48388 -1.87989 0)
(5.14247 -0.698882 0)
(5.50002 0.380881 0)
(6.33375 1.84793 0)
(6.77669 2.39498 0)
(7.59333 3.387 0)
(8.5229 4.1567 0)
(8.70088 4.88157 0)
(9.12037 5.83647 0)
(9.54674 7.505 0)
(10.2118 9.44395 0)
(10.764 10.9643 0)
(10.9577 11.6669 0)
(10.7432 11.4323 0)
(10.7314 10.674 0)
(10.3655 9.44999 0)
(9.28672 7.89318 0)
(9.31211 6.80277 0)
(8.58825 5.66284 0)
(7.6429 4.77736 0)
(8.86036 3.80786 0)
(5.99846 3.77585 0)
(9.37061 2.14724 0)
(5.45431 3.22494 0)
(9.55457 0.818417 0)
(5.60372 2.73361 0)
(9.38722 0.256795 0)
(6.04418 2.60902 0)
(8.92956 0.353919 0)
(6.55162 2.67897 0)
(9.14195 1.37965 0)
(7.99012 3.06967 0)
(11.6012 -0.134377 0)
(11.6536 -0.297002 0)
(11.7706 -0.325914 0)
(11.8532 -0.317233 0)
(11.9215 -0.258036 0)
(11.9309 -0.184108 0)
(11.9543 -0.152471 0)
(11.9159 -0.0947169 0)
(11.9276 -0.0949915 0)
(11.9005 -0.0738442 0)
(11.8899 -0.0532104 0)
(11.898 -0.0774487 0)
(11.8762 -0.0612673 0)
(11.9147 -0.0818659 0)
(11.9026 -0.083615 0)
(11.9218 -0.092737 0)
(11.9564 -0.115788 0)
(11.9631 -0.0967005 0)
(12.0098 -0.111279 0)
(12.0284 -0.103039 0)
(12.0694 -0.0900149 0)
(12.1008 -0.114891 0)
(12.1325 -0.106806 0)
(12.1523 -0.127324 0)
(12.1808 -0.169074 0)
(12.1894 -0.194374 0)
(12.2192 -0.246028 0)
(12.2324 -0.286787 0)
(12.2305 -0.347137 0)
(12.2576 -0.387538 0)
(12.254 -0.432064 0)
(12.2377 -0.490027 0)
(12.2141 -0.491592 0)
(12.2008 -0.558127 0)
(12.1193 -0.557761 0)
(12.0508 -0.532596 0)
(12.0173 -0.56811 0)
(11.8981 -0.524926 0)
(11.8207 -0.426049 0)
(11.7955 -0.405453 0)
(11.7365 -0.330207 0)
(11.7024 -0.140942 0)
(11.7419 -0.0173435 0)
(11.7539 0.0823631 0)
(11.7633 0.250533 0)
(11.8052 0.402155 0)
(11.8199 0.493586 0)
(11.7854 0.552164 0)
(11.8686 0.571585 0)
(11.8582 0.664376 0)
(11.9316 0.67507 0)
(12.0494 0.580837 0)
(12.1569 0.552233 0)
(12.2836 0.55673 0)
(12.4846 0.490274 0)
(12.6909 0.320914 0)
(12.8125 0.200369 0)
(13.026 0.0771775 0)
(13.2836 -0.119083 0)
(13.422 -0.332324 0)
(13.6242 -0.537282 0)
(13.8517 -0.774562 0)
(13.9223 -1.00987 0)
(14.0572 -1.28014 0)
(14.2144 -1.47286 0)
(14.2475 -1.66414 0)
(14.2689 -1.92161 0)
(14.3496 -2.1072 0)
(14.3317 -2.20398 0)
(14.1816 -2.36673 0)
(14.202 -2.51116 0)
(14.0489 -2.54169 0)
(13.9063 -2.52933 0)
(13.862 -2.51766 0)
(13.7042 -2.46394 0)
(13.5071 -2.43184 0)
(13.3475 -2.36453 0)
(13.2452 -2.19958 0)
(13.0635 -2.10668 0)
(12.8813 -1.95042 0)
(12.6144 -1.81604 0)
(12.419 -1.66823 0)
(12.1935 -1.46338 0)
(11.9012 -1.32403 0)
(11.6864 -1.20557 0)
(11.3824 -1.06046 0)
(11.151 -0.924616 0)
(10.9568 -0.890641 0)
(10.7444 -0.908989 0)
(10.5831 -0.942333 0)
(10.5263 -1.03732 0)
(10.4695 -1.13705 0)
(10.3909 -1.31684 0)
(10.281 -1.49256 0)
(10.1638 -1.61082 0)
(10.0868 -1.83536 0)
(9.99835 -2.08507 0)
(9.92493 -2.29397 0)
(9.92613 -2.63546 0)
(10.0217 -3.02471 0)
(10.0332 -3.31481 0)
(10.0919 -3.62326 0)
(10.1511 -3.84438 0)
(10.2338 -3.93476 0)
(10.4105 -4.07174 0)
(10.6117 -4.18067 0)
(10.8519 -4.06893 0)
(11.0047 -3.85014 0)
(11.1324 -3.48317 0)
(11.3993 -3.06469 0)
(11.5223 -2.5819 0)
(11.5343 -1.88696 0)
(11.4663 -1.0249 0)
(11.3726 -0.394749 0)
(11.379 0.181892 0)
(11.4092 1.0253 0)
(11.1942 1.67498 0)
(11.241 2.22529 0)
(11.254 3.05923 0)
(11.2243 3.84119 0)
(10.9552 4.35432 0)
(10.6325 4.33913 0)
(10.1447 4.51132 0)
(9.90545 4.71533 0)
(9.41464 4.28607 0)
(9.20634 3.69046 0)
(9.40896 3.35709 0)
(9.24676 3.32743 0)
(9.61935 3.41841 0)
(9.72008 3.38369 0)
(9.73972 2.9742 0)
(9.86607 2.19024 0)
(9.80159 1.54593 0)
(9.7733 1.34348 0)
(10.4091 1.73042 0)
(10.8604 2.84495 0)
(11.4429 3.83043 0)
(11.6513 4.44393 0)
(11.5884 4.6071 0)
(11.3814 4.09923 0)
(11.0666 3.34061 0)
(10.8839 2.45819 0)
(10.4518 1.76892 0)
(10.2625 1.02179 0)
(9.85834 0.145468 0)
(9.65993 -1.31422 0)
(9.28475 -2.65732 0)
(9.16718 -3.5099 0)
(8.82968 -3.89253 0)
(8.41721 -4.23789 0)
(7.96875 -4.05953 0)
(7.83897 -3.5831 0)
(7.39977 -3.1259 0)
(7.07609 -2.81452 0)
(6.78984 -2.3975 0)
(6.3655 -2.17877 0)
(6.03028 -3.25832 0)
(4.9629 -5.62824 0)
(3.92547 -7.97321 0)
(3.52648 -9.14552 0)
(3.19269 -9.00105 0)
(3.02594 -9.11398 0)
(3.2815 -8.52488 0)
(2.11928 -8.15691 0)
(3.98615 -6.35021 0)
(1.92976 -6.17941 0)
(4.18767 -4.07968 0)
(2.67987 -3.57202 0)
(4.46351 -2.22583 0)
(4.27006 -1.00592 0)
(5.19825 -0.171163 0)
(5.63529 0.9345 0)
(6.71114 2.04934 0)