/*--------------------------------*- C++ -*----------------------------------*\
| =========                 |                                                 |
| \\      /  F ield         | OpenFOAM: The Open Source CFD Toolbox           |
|  \\    /   O peration     | Version:  2.4.0                                 |
|   \\  /    A nd           | Web:      www.OpenFOAM.org                      |
|    \\/     M anipulation  |                                                 |
\*---------------------------------------------------------------------------*/
FoamFile
{
    version     2.0;
    format      ascii;
    class       surfaceScalarField;
    location    "57";
    object      phi;
}
// * * * * * * * * * * * * * * * * * * * * * * * * * * * * * * * * * * * * * //

dimensions      [0 3 -1 0 0 0 0];

internalField   nonuniform List<scalar> 
8640
(
0.000490642
-3.14244e-06
0.000396222
9.44209e-05
0.000512737
-0.000116516
0.000587312
-7.45747e-05
0.000455678
0.000131633
0.0004616
-5.92141e-06
0.000517544
-5.59446e-05
0.000485412
3.21327e-05
0.000498223
-1.28112e-05
0.000542024
-4.38014e-05
0.000452684
8.93401e-05
0.000500813
-4.81287e-05
0.000549711
-4.88984e-05
0.000463377
8.63341e-05
0.000551812
-8.84347e-05
0.000528019
2.3793e-05
0.000489876
3.81428e-05
0.000594589
-0.000104713
0.000517743
7.68455e-05
-0.00011756
0.000635304
0.00137703
7.32928e-06
0.00128172
0.000189727
0.00144538
-0.000280176
0.00148094
-0.000110131
0.00133788
0.000274689
0.00136739
-3.54271e-05
0.00141607
-0.000104625
0.00138618
6.20261e-05
0.00141
-3.66358e-05
0.00144008
-7.38833e-05
0.00134779
0.000181635
0.00142566
-0.000125999
0.0014495
-7.27353e-05
0.00137594
0.000159892
0.00148001
-0.000192504
0.00143519
6.86091e-05
0.00142466
4.86746e-05
0.00152487
-0.000204928
0.00147189
0.000129825
-0.000185616
0.00153995
0.00217341
2.14199e-05
0.00211316
0.000249976
0.00226751
-0.000434526
0.00227266
-0.00011528
0.0021621
0.000385251
0.00218439
-5.77217e-05
0.00222083
-0.000141068
0.00220156
8.13022e-05
0.00223051
-6.55832e-05
0.00224086
-8.42408e-05
0.00217077
0.000251726
0.00224637
-0.000201601
0.00224709
-7.34489e-05
0.00220878
0.000198201
0.00229065
-0.000274374
0.00225042
0.000108834
0.00225487
4.42265e-05
0.0023309
-0.000280951
0.0023028
0.000157921
-0.000229645
0.00234683
0.00284443
6.44897e-05
0.00284959
0.00024482
0.00301529
-0.000600234
0.00296582
-6.58076e-05
0.00288681
0.000464262
0.00290879
-7.97031e-05
0.00291649
-0.000148771
0.00290797
8.98318e-05
0.00296706
-0.000124675
0.0029383
-5.54843e-05
0.00289582
0.000294209
0.00298086
-0.000286649
0.0029248
-1.73833e-05
0.00294604
0.000176955
0.00299911
-0.000327442
0.00294325
0.000164697
0.00300225
-1.4778e-05
0.00302154
-0.000300235
0.0030167
0.000162763
-0.000278683
0.00306573
0.00339281
0.000159184
0.0034191
0.000218523
0.00365943
-0.000840557
0.00356929
2.43273e-05
0.00349402
0.000539535
0.0035258
-0.000111486
0.0035022
-0.000125171
0.00346613
0.000125901
0.00357888
-0.000237422
0.00352739
-3.99757e-06
0.00347858
0.000343025
0.00362082
-0.00042889
0.00348953
0.000113908
0.00353672
0.00012976
0.0036133
-0.000404021
0.00349229
0.000285709
0.00360923
-0.000131721
0.00360954
-0.000300546
0.00357823
0.000194078
-0.000354519
0.00365406
0.00387383
0.000272859
0.00384954
0.00024281
0.00414171
-0.00113272
0.00405725
0.000108786
0.00398729
0.000609496
0.00403231
-0.000156509
0.00400398
-9.68435e-05
0.00391669
0.000213191
0.00404646
-0.000367193
0.00400622
3.62421e-05
0.00392273
0.000426522
0.00411905
-0.000625211
0.00396385
0.000269103
0.00398912
0.000104492
0.00410816
-0.000523061
0.00394021
0.000453661
0.00406476
-0.000256275
0.00407461
-0.000310389
0.00401746
0.000251225
-0.000441552
0.00410449
0.00429212
0.000368241
0.00422032
0.000314606
0.0044984
-0.0014108
0.00442625
0.000180927
0.00437095
0.000664797
0.00442292
-0.000208474
0.0044123
-8.62295e-05
0.0043031
0.000322391
0.00441427
-0.000478363
0.00438912
6.13962e-05
0.00427841
0.000537234
0.00448108
-0.000827882
0.00434244
0.000407738
0.00434429
0.000102644
0.00448212
-0.000660893
0.00430807
0.00062771
0.00441732
-0.000365518
0.00443172
-0.000324794
0.00436455
0.000318399
-0.0005265
0.0044495
0.00462323
0.000432513
0.00454279
0.000395043
0.00475982
-0.00162783
0.00469541
0.000245338
0.00465606
0.000704141
0.00470126
-0.000253672
0.00470702
-9.19846e-05
0.00460975
0.000419654
0.00469443
-0.000563034
0.00467826
7.75601e-05
0.00456918
0.000646316
0.00473734
-0.000996044
0.00462651
0.000518567
0.00461783
0.000111325
0.00474134
-0.000784405
0.00459283
0.000776221
0.00468058
-0.000453267
0.00469121
-0.000335425
0.00463102
0.000378593
-0.000597907
0.00470243
0.00485297
0.000467041
0.00479682
0.000451195
0.00492482
-0.00175583
0.00487237
0.000297788
0.00484917
0.000727343
0.00487716
-0.000281663
0.00488948
-0.000104306
0.00482061
0.000488523
0.00487688
-0.000619298
0.00486477
8.96709e-05
0.00478678
0.000724303
0.00489639
-0.00110566
0.00481887
0.000596092
0.00481233
0.00011786
0.00489205
-0.000864122
0.00479153
0.000876742
0.00485094
-0.000512676
0.00485123
-0.000335718
0.0048144
0.000415427
-0.000643873
0.00486036
0.00497841
0.000476131
0.00496513
0.000464477
0.0049879
-0.0017786
0.00495791
0.000327785
0.00495038
0.000734868
0.00495655
-0.000287833
0.00496756
-0.000115316
0.00493459
0.000521496
0.00495921
-0.000643922
0.00494762
0.000101264
0.00492012
0.000751802
0.00495698
-0.00114252
0.00491963
0.000633439
0.00492379
0.000113702
0.00494046
-0.000880786
0.00490455
0.000912645
0.00492734
-0.000535461
0.00491387
-0.000322246
0.00491111
0.000418181
-0.000653845
0.00492108
0.00500088
0.000462749
0.00503179
0.000433568
0.00494932
-0.00169614
0.00495272
0.000324391
0.00495856
0.000729028
0.00494111
-0.000270382
0.00494672
-0.000120926
0.0049537
0.000514516
0.00494412
-0.000634345
0.00493266
0.000112726
0.00496256
0.000721902
0.00491951
-0.00109947
0.00492887
0.000624085
0.00494428
9.82865e-05
0.00489252
-0.000829028
0.00492947
0.000875702
0.00490898
-0.000514978
0.00488443
-0.000297691
0.00491754
0.000385065
-0.000623824
0.00488752
0.00492298
0.000427272
0.00498669
0.000369852
0.00481534
-0.00152478
0.00485001
0.000289724
0.00487088
0.000708158
0.00483041
-0.000229911
0.0048315
-0.000122021
0.0048789
0.000467121
0.00483432
-0.000589774
0.00482608
0.00012097
0.00490659
0.000641389
0.00478846
-0.000981337
0.00484399
0.000568554
0.00486473
7.75434e-05
0.00475592
-0.000720217
0.00485801
0.00077361
0.0047978
-0.000454763
0.00476705
-0.000266946
0.00483148
0.000320643
-0.000556855
0.00476451
0.00474726
0.000367512
0.00482444
0.000292676
0.00458476
-0.00128511
0.00464304
0.000231445
0.00467971
0.000671488
0.00462494
-0.000175142
0.00462713
-0.000124206
0.00471043
0.000383814
0.00463027
-0.000509608
0.00463306
0.000118176
0.00474427
0.000530182
0.00456519
-0.000802262
0.00466457
0.000469172
0.00467799
6.41265e-05
0.00453758
-0.000579809
0.0046899
0.000621294
0.00459573
-0.000360589
0.00457076
-0.000241978
0.00465136
0.000240042
-0.000463404
0.00455791
0.00447324
0.000281768
0.00453462
0.000231295
0.00425608
-0.00100656
0.00433214
0.000155384
0.00438427
0.000619352
0.00432939
-0.000120254
0.00434379
-0.000138611
0.00444688
0.000280727
0.004333
-0.000395726
0.00435517
9.6004e-05
0.00446568
0.000419671
0.00425589
-0.000592472
0.00439389
0.000331173
0.00438614
7.18771e-05
0.00425116
-0.000444836
0.00442766
0.000444799
0.00431048
-0.00024341
0.00430117
-0.00023267
0.00437571
0.000165505
-0.000358711
0.00427102
0.00409283
0.000176442
0.00410837
0.00021575
0.00383767
-0.000735863
0.00393219
6.08696e-05
0.00399864
0.000552902
0.00395894
-8.05539e-05
0.00398722
-0.000166897
0.00407703
0.000190917
0.00394202
-0.000260709
0.0039865
5.15247e-05
0.00406742
0.000338746
0.00387736
-0.000402412
0.00403647
0.000172065
0.00400176
0.000106583
0.00390328
-0.000346352
0.00406536
0.000282718
0.0039426
-0.000120652
0.00394771
-0.00023778
0.00399716
0.000116061
-0.000259352
0.0038978
0.00358334
8.06055e-05
0.00355732
0.000241769
0.00335733
-0.000535873
0.00345976
-4.15611e-05
0.00353319
0.000479469
0.00350994
-5.73013e-05
0.00352634
-0.000183293
0.00357488
0.000142376
0.00345584
-0.000141668
0.00351442
-7.06032e-06
0.00356364
0.000289528
0.00343513
-0.000273899
0.00357109
3.61061e-05
0.00352327
0.0001544
0.00346461
-0.000287696
0.00357665
0.000170681
0.00347593
-1.99373e-05
0.00348039
-0.000242232
0.00350164
9.48088e-05
-0.000178512
0.0034208
0.00293909
2.90107e-05
0.00293761
0.000243252
0.00281353
-0.000411795
0.00287099
-9.90193e-05
0.00295357
0.000396893
0.00293548
-3.92121e-05
0.00291776
-0.00016557
0.00294376
0.00011637
0.00287529
-7.31964e-05
0.00291989
-5.16556e-05
0.00296271
0.000246699
0.00288619
-0.00019738
0.00295479
-3.24853e-05
0.00293294
0.000176247
0.00288695
-0.000241708
0.00294803
0.000109604
0.00289479
3.32993e-05
0.00287396
-0.000221401
0.00288356
8.52138e-05
-0.000117424
0.00282247
0.00220708
9.43295e-06
0.00226534
0.000184989
0.00213443
-0.000280886
0.00213342
-9.80122e-05
0.00224878
0.000281533
0.00222812
-1.85439e-05
0.0021853
-0.000122757
0.0022181
8.35709e-05
0.00218497
-4.0066e-05
0.00219386
-6.05467e-05
0.00225845
0.000182114
0.00219167
-0.000130597
0.00220402
-4.4837e-05
0.00223345
0.000146814
0.00216598
-0.00017424
0.0022092
6.6385e-05
0.00219719
4.5308e-05
0.00213921
-0.000163414
0.00215829
6.61311e-05
-6.46582e-05
0.00210552
0.00139776
-8.29913e-07
0.00148723
9.55203e-05
0.00132801
-0.000121666
0.00129676
-6.67627e-05
0.00144265
0.000135645
0.00142065
3.45158e-06
0.00136414
-6.62459e-05
0.00140725
4.04597e-05
0.00138283
-1.56384e-05
0.00136313
-4.08475e-05
0.00145381
9.14348e-05
0.00137771
-5.45001e-05
0.00136698
-3.41097e-05
0.00143406
7.97376e-05
0.00134118
-8.13647e-05
0.00138545
2.21192e-05
0.00139468
3.60738e-05
0.00131205
-8.07772e-05
0.00134589
3.22902e-05
-1.62893e-05
0.00129752
0.00048667
0.000582191
0.000460524
0.000393761
0.000529406
0.000532858
0.000466612
0.000507072
0.000491433
0.000450586
0.000542021
0.000487521
0.000453411
0.000533149
0.000451784
0.000473903
0.000509977
0.0004292
0.00046149
0.0004452
0.000818092
-0.000217046
3.42577e-05
0.000915731
2.1221e-05
-0.00011886
0.000998508
-0.000351958
0.000269181
0.00106129
-9.35982e-05
3.08154e-05
0.00128145
-0.000108594
-0.000111564
0.00130442
0.000697697
-0.000720667
0.00164852
-0.000236687
-0.000107417
0.00214381
-0.00158339
0.0010881
0.00221962
-0.000242354
0.000166543
0.00227712
-0.00330544
0.00324795
0.0020827
-0.00276147
0.00295589
0.00199586
-0.000119001
0.000205838
0.00232403
0.000232449
-0.000560619
0.00277889
0.00155711
-0.00201197
0.00350481
-0.00167841
0.000952487
0.00425914
-0.00610567
0.00535135
0.00469508
-0.0085844
0.00814846
0.00494328
-0.00801826
0.00777007
0.00485236
-0.00593436
0.00602528
0.00428099
-0.00627277
0.00684414
0.00328007
-0.00564463
0.00664556
0.00256281
-0.00628274
0.00699999
0.00268741
-0.00731854
0.00719394
0.00276848
-0.00557795
0.00549688
0.00282417
-0.000674763
0.000619072
0.00277986
0.00649909
-0.00645478
0.00261063
0.0107006
-0.0105314
0.0025045
0.0129226
-0.0128164
0.00268045
0.0117878
-0.0119638
0.00308428
0.00544904
-0.00585287
0.00346452
-0.00406404
0.0036838
0.00342481
-0.00851962
0.00855933
0.00296031
-0.0068899
0.0073544
0.00263788
-0.00638742
0.00670985
0.00269599
-0.00575404
0.00569593
0.0027153
-0.00318525
0.00316594
0.00275385
0.000707514
-0.000746068
0.00279134
0.00538862
-0.0054261
0.00270715
0.00752001
-0.00743583
0.00252538
0.00827134
-0.00808956
0.00245108
0.00881457
-0.00874027
0.00248236
0.00677151
-0.00680279
0.00251673
0.00300273
-0.0030371
0.00264303
-0.00148999
0.00136369
0.00274296
-0.00572757
0.00562763
0.00269141
-0.0084326
0.00848415
0.00267092
-0.00650182
0.00652232
0.00263791
-0.000373901
0.000406915
0.00265851
0.00367123
-0.00369183
0.00265977
0.00353638
-0.00353763
0.00257319
0.00251368
-0.0024271
0.00262858
0.000323586
-0.000378973
0.00275129
-0.00317663
0.00305392
0.00275493
-0.00537235
0.0053687
0.00266299
-0.00539893
0.00549087
0.00264386
-0.00295906
0.00297819
0.00269222
0.00105626
-0.00110462
0.00267126
0.00378809
-0.00376712
0.00256677
0.00421048
-0.00410599
0.00246766
0.00312957
-0.00303047
0.00242432
0.00150629
-0.00146295
0.00241371
8.26993e-05
-7.20912e-05
0.00239679
-0.000710079
0.000726994
0.00235913
-0.000891007
0.000928674
0.00230628
-0.000735989
0.000788836
0.00224902
-0.000496401
0.00055366
0.00219572
-0.000297585
0.000350884
0.00215076
-0.000168478
0.000213434
0.00211542
-9.60277e-05
0.000131376
0.00208912
-5.88083e-05
8.51061e-05
0.00207047
-3.99635e-05
5.86106e-05
0.00205783
-2.94001e-05
4.20444e-05
0.00204961
-2.22049e-05
3.04194e-05
0.00204449
-1.64873e-05
2.16066e-05
0.00204143
-1.17591e-05
1.48238e-05
0.00203966
-7.97967e-06
9.74479e-06
0.00203868
-5.14181e-06
6.12099e-06
0.00203816
-3.14835e-06
3.67281e-06
0.00203789
-1.83628e-06
2.10759e-06
0.00203775
-1.0225e-06
1.15837e-06
0.00203769
-5.4482e-07
6.10838e-07
0.00203766
-2.78517e-07
3.09542e-07
0.00203764
-1.36702e-07
1.50995e-07
0.00203764
-6.45314e-08
7.08704e-08
0.00203763
-2.9653e-08
3.23754e-08
0.00203763
-1.28412e-08
1.40348e-08
0.00203763
-5.71014e-09
6.14648e-09
0.00203763
-2.24442e-09
2.42982e-09
0.00203763
-9.90869e-10
1.05351e-09
0.00203763
-2.62162e-10
2.39894e-10
0.00203763
-1.81793e-10
2.18783e-10
0.00203763
1.07877e-10
-9.26682e-11
0.00203763
-1.49158e-10
1.33186e-10
0.00203763
1.93513e-10
-1.87761e-10
0.00203763
-9.39174e-11
8.24459e-11
0.00203763
1.42453e-10
-1.48126e-10
0.00203763
-1.49609e-10
1.82473e-10
0.00203763
1.98227e-10
-2.02765e-10
0.00203763
-1.25102e-10
9.89478e-11
1.62911e-11
-1.28151e-11
0.00162413
-0.000301229
0.00165293
-7.57553e-06
0.00175052
-0.000449544
0.00171471
-5.77918e-05
0.00191116
-0.000305044
0.00212722
0.000481638
0.00223787
-0.000347336
0.00271853
-0.00206405
0.00292172
-0.000445544
0.00279081
-0.00317452
0.00274139
-0.00271205
0.00254195
8.04403e-05
0.0025685
0.000205896
0.00311705
0.00100856
0.00396674
-0.0025281
0.00461051
-0.00674944
0.00485961
-0.0088335
0.00493505
-0.00809371
0.00474997
-0.00574928
0.00406921
-0.00559201
0.00298543
-0.00456085
0.00228383
-0.00558114
0.00244018
-0.00747488
0.00255145
-0.00568923
0.00261168
-0.000734991
0.00259989
0.00651088
0.00250832
0.0107922
0.00248189
0.012949
0.00271481
0.0115549
0.00318651
0.00497734
0.00353201
-0.00440955
0.00334888
-0.00833648
0.00276841
-0.00630943
0.00242935
-0.00604836
0.00252428
-0.00584897
0.00256311
-0.00322408
0.00260077
0.000669854
0.00267013
0.00531926
0.00264901
0.00754112
0.00253081
0.00838955
0.00251523
0.00883014
0.00257207
0.00671467
0.00260736
0.00296744
0.00274049
-0.00162312
0.00283721
-0.00582429
0.00272714
-0.00832253
0.00263507
-0.00640975
0.00260422
-0.00034305
0.00266562
0.00360983
0.00267519
0.00352681
0.00260704
0.00258183
0.00267891
0.000251722
0.00276569
-0.00326341
0.00271998
-0.00532663
0.00259424
-0.0052732
0.00255419
-0.002919
0.00260877
0.00100168
0.00261867
0.00377818
0.00255161
0.00427754
0.00248357
0.00319762
0.00245788
0.00153198
0.00245081
8.97642e-05
0.00242831
-0.000687582
0.00238236
-0.000845053
0.00232221
-0.000675843
0.00225967
-0.00043386
0.00220287
-0.000240786
0.00215568
-0.000121281
0.00211889
-5.9244e-05
0.00209164
-3.15547e-05
0.00207231
-2.0634e-05
0.00205915
-1.62366e-05
0.00205052
-1.35811e-05
0.00204508
-1.10493e-05
0.00204178
-8.45442e-06
0.00203984
-6.04316e-06
0.00203875
-4.04646e-06
0.00203815
-2.54943e-06
0.00203783
-1.51961e-06
0.00203767
-8.60325e-07
0.00203759
-4.64205e-07
0.00203755
-2.39768e-07
0.00203753
-1.184e-07
0.00203752
-5.62855e-08
0.00203752
-2.59105e-08
0.00203752
-1.12845e-08
0.00203752
-4.98284e-09
0.00203752
-2.03526e-09
0.00203752
-7.85116e-10
0.00203752
-3.47127e-10
0.00203752
-4.8578e-12
0.00203752
-4.81705e-12
0.00203752
3.27134e-12
0.00203752
4.59317e-11
0.00203752
4.68431e-11
0.00203752
-2.76527e-11
0.00203752
5.7939e-11
0.00203752
1.78173e-11
0.00203752
-2.44391e-11
-9.25101e-12
0.0024264
-0.0003808
0.0024128
6.02647e-06
0.00252897
-0.000565722
0.00249472
-2.35407e-05
0.00257024
-0.000380563
0.00294944
0.000102438
0.00293443
-0.000332323
0.00324885
-0.00237848
0.00355294
-0.000749636
0.00325339
-0.00287497
0.00328601
-0.00274468
0.00314562
0.000220832
0.00299397
0.00035755
0.00356281
0.000439725
0.00439023
-0.00335553
0.00487214
-0.00723135
0.00493278
-0.00889414
0.00483884
-0.00799977
0.0045654
-0.00547583
0.00379304
-0.00481966
0.00266065
-0.00342845
0.001988
-0.0049085
0.0021504
-0.00763728
0.00230401
-0.00584284
0.00237802
-0.000809001
0.00240129
0.00648761
0.00238874
0.0108048
0.00244066
0.0128971
0.00273322
0.0112624
0.00327013
0.00444043
0.00355968
-0.00469909
0.00323286
-0.00800966
0.00255484
-0.00563142
0.00221568
-0.0057092
0.00234544
-0.00597873
0.00240036
-0.003279
0.00243539
0.000634827
0.00253282
0.00522183
0.00257241
0.00750154
0.00251757
0.00844438
0.00256372
0.00878399
0.00264776
0.00663064
0.00268764
0.00292756
0.00282802
-0.00176349
0.00291356
-0.00590983
0.00274245
-0.00815142
0.00257766
-0.00624496
0.0025513
-0.000316691
0.0026524
0.00350873
0.00267142
0.00350779
0.00262766
0.00262558
0.00271207
0.000167313
0.00275726
-0.0033086
0.00266249
-0.00523187
0.00250675
-0.00511745
0.00244789
-0.00286014
0.00250712
0.00094246
0.00254704
0.00373826
0.00251871
0.00430587
0.00248349
0.00323284
0.0024762
0.00153928
0.0024726
9.336e-05
0.00244475
-0.00065973
0.00239142
-0.000791727
0.00232557
-0.00060999
0.00225974
-0.000368028
0.00220152
-0.00018257
0.00215404
-7.37993e-05
0.00211752
-2.27235e-05
0.0020907
-4.73182e-06
0.00207176
-1.69391e-06
0.00205886
-3.33632e-06
0.00205037
-5.09286e-06
0.00204497
-5.65142e-06
0.00204165
-5.1365e-06
0.00203968
-4.07139e-06
0.00203855
-2.91379e-06
0.00203792
-1.91971e-06
0.00203758
-1.18095e-06
0.0020374
-6.83877e-07
0.00203731
-3.75048e-07
0.00203727
-1.96173e-07
0.00203725
-9.7591e-08
0.00203724
-4.6715e-08
0.00203723
-2.16116e-08
0.00203723
-9.38499e-09
0.00203723
-4.20803e-09
0.00203723
-1.69869e-09
0.00203723
-6.65153e-10
0.00203723
-3.30691e-10
0.00203723
3.60425e-11
0.00203723
4.15296e-12
0.00203723
-1.12901e-11
0.00203723
5.53834e-11
0.00203723
2.21954e-11
0.00203723
-2.21132e-11
0.00203723
8.7874e-11
0.00203723
-1.26492e-12
0.00203723
-3.70901e-11
-5.20145e-12
0.00311171
-0.000426777
0.00308762
3.01207e-05
0.00318739
-0.000665493
0.00321337
-4.95188e-05
0.0031931
-0.000360297
0.00360849
-0.000312955
0.00356377
-0.000287602
0.0036952
-0.00250991
0.00406112
-0.00111555
0.00366725
-0.00248109
0.00368644
-0.00276387
0.00368025
0.000227017
0.00349493
0.000542875
0.00401979
-8.5138e-05
0.00471312
-0.00404886
0.00501611
-0.00753433
0.00490205
-0.00878008
0.00464927
-0.00774699
0.00429506
-0.00512163
0.00345556
-0.00398016
0.002313
-0.00228589
0.00167492
-0.00427042
0.00182139
-0.00778374
0.00203026
-0.00605171
0.00212486
-0.000903602
0.00218405
0.00642841
0.00225157
0.0107373
0.00237913
0.0127695
0.00273837
0.0109031
0.00333262
0.00384618
0.00354621
-0.00491268
0.00308037
-0.00754381
0.00232844
-0.00487949
0.00200286
-0.00538362
0.00215882
-0.00613469
0.00222403
-0.00334421
0.00225634
0.000602515
0.00237974
0.00509842
0.00247758
0.0074037
0.00248596
0.008436
0.00259659
0.00867336
0.00270931
0.00651792
0.00275972
0.00287714
0.00290688
-0.00191065
0.00297082
-0.00597377
0.00273697
-0.00791758
0.00250141
-0.0060094
0.00248065
-0.00029593
0.00261817
0.00337121
0.0026484
0.00347756
0.00263439
0.0026396
0.00272574
7.59634e-05
0.00272553
-0.00330839
0.00258354
-0.00508988
0.00240166
-0.00493557
0.00232617
-0.00278465
0.00238854
0.000880086
0.0024572
0.0036696
0.00246829
0.00429478
0.00246711
0.00323402
0.00247862
0.00152776
0.00247836
9.36224e-05
0.00244541
-0.000626788
0.00238578
-0.000732088
0.00231594
-0.000540159
0.00224891
-0.000300995
0.00219143
-0.000125093
0.00214567
-2.80374e-05
0.00211114
1.18062e-05
0.00208615
2.02616e-05
0.00206867
1.5786e-05
0.00205681
8.52113e-06
0.002049
2.7208e-06
0.002044
-6.50513e-07
0.00204089
-2.03061e-06
0.00203902
-2.20126e-06
0.00203793
-1.82349e-06
0.00203731
-1.30403e-06
0.00203698
-8.4461e-07
0.0020368
-5.05933e-07
0.00203671
-2.83814e-07
0.00203666
-1.50952e-07
0.00203664
-7.57489e-08
0.00203663
-3.6547e-08
0.00203663
-1.7005e-08
0.00203663
-7.31962e-09
0.00203662
-3.35492e-09
0.00203662
-1.32782e-09
0.00203662
-5.16123e-10
0.00203662
-3.10115e-10
0.00203662
7.85635e-11
0.00203662
1.3129e-11
0.00203662
-3.05636e-11
0.00203662
6.35496e-11
0.00203662
4.13025e-12
0.00203662
-1.90736e-11
0.00203662
1.08217e-10
0.00203662
-1.11334e-11
0.00203662
-5.48718e-11
6.98412e-13
0.00367559
-0.000448303
0.00364983
5.58814e-05
0.00371459
-0.00073025
0.00379298
-0.000127914
0.0037203
-0.000287612
0.00409529
-0.000687944
0.00408095
-0.000273264
0.00405668
-0.00248565
0.00442399
-0.00148286
0.00401574
-0.00207284
0.00396974
-0.00271788
0.0040852
0.000111555
0.00393817
0.000689911
0.00438209
-0.000529056
0.00490475
-0.00457153
0.00503519
-0.00766477
0.00477003
-0.00851493
0.0043806
-0.00735755
0.00395394
-0.00469497
0.00307377
-0.00309998
0.00195438
-0.0011665
0.00135107
-0.00366711
0.00148082
-0.00791349
0.00174669
-0.00631758
0.00185305
-0.00100996
0.00195006
0.00633139
0.00209705
0.0105903
0.00229662
0.0125699
0.00273237
0.0104674
0.00337043
0.00320811
0.00349064
-0.00503289
0.00289551
-0.00694868
0.00209751
-0.00408149
0.00179433
-0.00508044
0.00196171
-0.00630207
0.0020312
-0.0034137
0.00206224
0.000571475
0.00221171
0.00494896
0.00236527
0.00725014
0.00243684
0.00836443
0.00261373
0.00849647
0.00275671
0.00637493
0.00282491
0.00280895
0.00297717
-0.00206291
0.00300758
-0.00600418
0.00271016
-0.00762016
0.00240877
-0.00570801
0.00239402
-0.000281173
0.00256269
0.00320253
0.00260655
0.00343371
0.002626
0.00262015
0.00271856
-1.66046e-05
0.00267078
-0.0032606
0.00248453
-0.00490364
0.0022803
-0.00473134
0.00219019
-0.00269454
0.0022544
0.000815876
0.00235022
0.00357379
0.00240088
0.00424412
0.00243445
0.00320044
0.00246483
0.00149739
0.00246763
9.08222e-05
0.00242994
-0.000589099
0.00236523
-0.000667376
0.0022933
-0.000468231
0.00222724
-0.000234934
0.00217268
-7.05338e-05
0.00213062
1.40192e-05
0.00209977
4.26619e-05
0.00207794
4.2086e-05
0.00206293
3.07963e-05
0.00205284
1.86116e-05
0.0020462
9.36297e-06
0.00204192
3.62627e-06
0.00203924
6.56078e-07
0.00203759
-5.59159e-07
0.00203662
-8.49968e-07
0.00203606
-7.44675e-07
0.00203575
-5.33844e-07
0.00203558
-3.38873e-07
0.0020355
-1.96891e-07
0.00203545
-1.07306e-07
0.00203543
-5.44242e-08
0.00203542
-2.6519e-08
0.00203542
-1.24284e-08
0.00203541
-5.24422e-09
0.00203541
-2.49528e-09
0.00203541
-9.49202e-10
0.00203541
-3.56107e-10
0.00203541
-2.82277e-10
0.00203541
1.19418e-10
0.00203541
2.17398e-11
0.00203541
-5.02282e-11
0.00203541
6.96483e-11
0.00203541
-5.9249e-12
0.00203541
-2.11859e-11
0.00203541
1.21998e-10
0.00203541
-2.16611e-11
0.00203541
-6.83454e-11
7.09015e-12
0.00410874
-0.000452548
0.00409735
6.72651e-05
0.00412472
-0.000757621
0.00423243
-0.000235619
0.0041467
-0.000201887
0.0044417
-0.000982935
0.00448004
-0.000311606
0.00434346
-0.00234906
0.00466944
-0.00180884
0.00430112
-0.00170451
0.00417572
-0.00259248
0.00436348
-7.62021e-05
0.00427084
0.000782546
0.0046182
-0.000876414
0.00497246
-0.00492579
0.00493677
-0.00762908
0.00453787
-0.00811603
0.00403893
-0.00685861
0.00355299
-0.00420902
0.00265921
-0.00220621
0.00158806
-9.53554e-05
0.00102899
-0.00310804
0.00116314
-0.00804764
0.00146553
-0.00661997
0.00155942
-0.00110385
0.00170094
0.00618987
0.0019294
0.0103618
0.00219594
0.0123034
0.00271681
0.0099465
0.00338191
0.00254301
0.00339188
-0.00504286
0.00268271
-0.00623951
0.0018691
-0.00326788
0.00158968
-0.00480102
0.00174876
-0.00646114
0.00181946
-0.0034844
0.00185203
0.0005389
0.00202857
0.00477241
0.00223522
0.0070435
0.00237111
0.00822854
0.00261495
0.00825263
0.00278995
0.00619994
0.00288369
0.00271521
0.003038
-0.00221722
0.00302232
-0.00598851
0.00266161
-0.00725945
0.00230213
-0.00534853
0.00229327
-0.000272317
0.00248623
0.00300958
0.00254648
0.00337346
0.00260181
0.00256481
0.00268964
-0.000104434
0.00259383
-0.00316479
0.00236721
-0.00467702
0.00214413
-0.00450826
0.00204114
-0.00259155
0.00210609
0.000750923
0.00222737
0.00345251
0.00231732
0.00415417
0.0023859
0.00313186
0.00243477
0.00144852
0.00244023
8.53666e-05
0.00239826
-0.000547134
0.00232995
-0.000599069
0.00225798
-0.000396262
0.00219513
-0.000172075
0.00214562
-2.10311e-05
0.00210916
5.04818e-05
0.00208353
6.8297e-05
0.00206606
5.95495e-05
0.00205439
4.24673e-05
0.00204668
2.63279e-05
0.00204161
1.44251e-05
0.00203833
6.91277e-06
0.00203623
2.75524e-06
0.00203492
7.51513e-07
0.00203412
-5.487e-08
0.00203365
-2.77324e-07
0.00203339
-2.68669e-07
0.00203324
-1.93582e-07
0.00203317
-1.20022e-07
0.00203313
-6.81698e-08
0.00203311
-3.5072e-08
0.0020331
-1.73319e-08
0.0020331
-8.20904e-09
0.00203309
-3.31154e-09
0.00203309
-1.69594e-09
0.00203309
-5.94337e-10
0.00203309
-1.99388e-10
0.00203309
-2.51263e-10
0.00203309
1.55989e-10
0.00203309
2.92713e-11
0.00203309
-6.99603e-11
0.00203309
7.63689e-11
0.00203309
-1.0806e-11
0.00203309
-2.44298e-11
0.00203309
1.28187e-10
0.00203309
-3.25875e-11
0.00203309
-7.62832e-11
1.39011e-11
0.0044346
-0.000437649
0.00444278
5.90821e-05
0.00443762
-0.000752466
0.00454908
-0.000347077
0.00448031
-0.000133116
0.0046769
-0.00117952
0.00476532
-0.000400036
0.00456397
-0.00214771
0.00481495
-0.00205983
0.00451217
-0.00140174
0.00431882
-0.00239912
0.00452862
-0.000286006
0.00448864
0.000822523
0.00474266
-0.00113043
0.0049277
-0.00511082
0.0047243
-0.00742568
0.00420563
-0.00759737
0.00362462
-0.00627761
0.00309824
-0.00368264
0.0022196
-0.00132757
0.00122366
0.00090059
0.00072772
-0.0026121
0.000875033
-0.00819495
0.00117848
-0.00692342
0.00124337
-0.00116873
0.00143429
0.00599894
0.00174282
0.0100533
0.00207866
0.0119675
0.00269235
0.00933281
0.00336241
0.00187295
0.0032492
-0.00492965
0.00244724
-0.00543755
0.00164844
-0.00246908
0.00138569
-0.00453827
0.00151496
-0.00659042
0.00158733
-0.00355676
0.00162603
0.000500194
0.00183179
0.00456665
0.00208814
0.00678715
0.00229011
0.00802657
0.00259986
0.00794288
0.0028083
0.0059915
0.00293567
0.00258784
0.00308724
-0.00236879
0.00301333
-0.0059146
0.00259122
-0.00683733
0.00218402
-0.00494132
0.00218031
-0.00026861
0.00238949
0.0028004
0.00246911
0.00329383
0.00256139
0.00247253
0.00263875
-0.000181794
0.00249611
-0.00302215
0.00223359
-0.0044145
0.00199461
-0.00426927
0.00188015
-0.00247709
0.001945
0.000686074
0.00209009
0.00330742
0.00221873
0.00402552
0.00232207
0.00302853
0.00238868
0.00138191
0.00239622
7.78206e-05
0.00235068
-0.000501591
0.00228056
-0.000528951
0.00221079
-0.000326489
0.00215337
-0.000114661
0.00211094
2.13985e-05
0.00208175
7.96753e-05
0.00206263
8.74187e-05
0.00205046
7.17199e-05
0.00204276
5.01626e-05
0.00203784
3.12523e-05
0.00203462
1.76393e-05
0.0020325
9.03892e-06
0.00203109
4.1598e-06
0.00203018
1.66402e-06
0.00202961
5.20877e-07
0.00202925
7.34849e-08
0.00202905
-6.33967e-08
0.00202893
-7.81478e-08
0.00202887
-5.76344e-08
0.00202884
-3.58813e-08
0.00202882
-1.88867e-08
0.00202882
-9.57462e-09
0.00202881
-4.62798e-09
0.00202881
-1.65451e-09
0.00202881
-1.01507e-09
0.00202881
-2.90955e-10
0.00202881
-5.82339e-11
0.00202881
-2.22287e-10
0.00202881
1.86348e-10
0.00202881
3.45332e-11
0.00202881
-8.92751e-11
0.00202881
8.43251e-11
0.00202881
-1.07571e-11
0.00202881
-2.81944e-11
0.00202881
1.27758e-10
0.00202881
-4.3056e-11
0.00202881
-7.86153e-11
2.0684e-11
0.00467049
-0.000405718
0.00469597
3.3607e-05
0.00466485
-0.000721344
0.00475997
-0.000442196
0.00472435
-9.75035e-05
0.00482004
-0.00127521
0.00494111
-0.000521102
0.00471557
-0.00192217
0.0048705
-0.00221476
0.00464296
-0.0011742
0.00440118
-0.00215734
0.00458542
-0.000470241
0.00459902
0.000808922
0.00476842
-0.00129984
0.00477593
-0.00511833
0.0044043
-0.00705405
0.00378423
-0.00697729
0.00315249
-0.00564587
0.00261027
-0.00314042
0.00177527
-0.000492573
0.00088282
0.00179304
0.000459343
-0.00218863
0.00058456
-0.00832017
0.000850992
-0.00718985
0.000905794
-0.00122354
0.00115801
0.00574673
0.00154356
0.00966774
0.00195518
0.0115559
0.00266251
0.00862549
0.00330421
0.00123124
0.00306307
-0.00468851
0.00219545
-0.00456992
0.00143862
-0.00171225
0.00118006
-0.00427972
0.0012604
-0.00667075
0.00133602
-0.00363239
0.00138529
0.000450928
0.00162127
0.00433067
0.00192368
0.00648474
0.00219508
0.00775517
0.00256834
0.00756962
0.00281101
0.00574883
0.00297973
0.00241912
0.0031218
-0.00251086
0.00297884
-0.00577164
0.00249933
-0.00635782
0.00205718
-0.00449918
0.00205689
-0.00026832
0.0022735
0.00258379
0.00237585
0.00319149
0.00250461
0.00234377
0.00256629
-0.000243477
0.00237951
-0.00283537
0.00208588
-0.00412087
0.0018333
-0.0040167
0.00170838
-0.00235216
0.00177256
0.000621888
0.00193995
0.00314004
0.0021065
0.00385896
0.00224388
0.00289115
0.00232691
0.00129888
0.00233596
6.87731e-05
0.00228791
-0.000453544
0.00221815
-0.000459188
0.00215296
-0.000261301
0.00210314
-6.48445e-05
0.00206955
5.49964e-05
0.00204893
0.000100291
0.00203721
9.91411e-05
0.00203087
7.80577e-05
0.00202745
5.35848e-05
0.00202547
3.32327e-05
0.00202418
1.89291e-05
0.00202325
9.96363e-06
0.00202257
4.84422e-06
0.00202207
2.16042e-06
0.00202173
8.64143e-07
0.0020215
2.98358e-07
0.00202137
7.56017e-08
0.00202128
3.34993e-09
0.00202124
-1.21911e-08
0.00202121
-1.18432e-08
0.0020212
-6.63116e-09
0.0020212
-3.63997e-09
0.00202119
-1.87906e-09
0.00202119
-3.67125e-10
0.00202119
-4.94118e-10
0.00202119
-5.85474e-11
0.00202119
5.83796e-11
0.00202119
-2.00081e-10
0.00202119
2.08911e-10
0.00202119
3.74794e-11
0.00202119
-1.08178e-10
0.00202119
9.39387e-11
0.00202119
-6.69301e-12
0.00202119
-3.27932e-11
0.00202119
1.22133e-10
0.00202119
-5.16907e-11
0.00202119
-7.60817e-11
2.67794e-11
0.00481963
-0.000364985
0.00485699
-3.75585e-06
0.00480724
-0.000671591
0.00487571
-0.000510666
0.00487566
-9.74579e-05
0.00488249
-0.00128203
0.0050121
-0.000650715
0.00479182
-0.00170188
0.00484113
-0.00226407
0.00468667
-0.00101974
0.00441936
-0.00189003
0.00453896
-0.000589844
0.00460399
0.000743898
0.00470103
-0.00139688
0.00452259
-0.0049399
0.00398766
-0.00651912
0.00328863
-0.00627826
0.00263518
-0.00499242
0.00210462
-0.00260985
0.0013409
0.000271142
0.000584362
0.00254958
0.000223314
-0.00182758
0.00024356
-0.00834041
0.000451552
-0.00739784
0.000549453