/*--------------------------------*- C++ -*----------------------------------*\
| =========                 |                                                 |
| \\      /  F ield         | OpenFOAM: The Open Source CFD Toolbox           |
|  \\    /   O peration     | Version:  2.4.0                                 |
|   \\  /    A nd           | Web:      www.OpenFOAM.org                      |
|    \\/     M anipulation  |                                                 |
\*---------------------------------------------------------------------------*/
FoamFile
{
    version     2.0;
    format      ascii;
    class       volVectorField;
    location    "57";
    object      U;
}
// * * * * * * * * * * * * * * * * * * * * * * * * * * * * * * * * * * * * * //

dimensions      [0 1 -1 0 0 0 0];

internalField   nonuniform List<vector> 
4400
(
(0.0943399 -0.000113762 0)
(0.0812899 0.00168279 0)
(0.0954066 -0.00213295 0)
(0.110588 -0.00145286 0)
(0.102017 0.00254592 0)
(0.0897217 -0.000170618 0)
(0.100108 -0.00101579 0)
(0.0979374 0.000664783 0)
(0.100748 -0.000281221 0)
(0.103884 -0.000817771 0)
(0.0964442 0.00166045 0)
(0.0966006 -0.000962001 0)
(0.105134 -0.000950483 0)
(0.0975506 0.00168362 0)
(0.105433 -0.00173668 0)
(0.104174 0.00065529 0)
(0.104248 0.000775611 0)
(0.105558 -0.0018638 0)
(0.119282 0.00167391 0)
(0.0867795 -0.00327317 0)
(0.270645 4.1684e-05 0)
(0.255942 0.00542793 0)
(0.288641 -0.00777044 0)
(0.282519 -0.00383389 0)
(0.283921 0.00792627 0)
(0.268183 -0.000963607 0)
(0.281718 -0.00312244 0)
(0.274489 0.0018871 0)
(0.286223 -0.00100025 0)
(0.282205 -0.00234628 0)
(0.273506 0.00524187 0)
(0.285681 -0.00341846 0)
(0.28121 -0.00252547 0)
(0.280592 0.00490477 0)
(0.29555 -0.00556145 0)
(0.277472 0.00176788 0)
(0.299099 0.00191633 0)
(0.284431 -0.00623985 0)
(0.309192 0.00438245 0)
(0.279499 -0.00664101 0)
(0.42677 0.000594421 0)
(0.417242 0.00887273 0)
(0.465361 -0.0142758 0)
(0.431289 -0.0045662 0)
(0.451279 0.0130625 0)
(0.433542 -0.00214032 0)
(0.442748 -0.00497306 0)
(0.434342 0.00294985 0)
(0.453358 -0.0019802 0)
(0.443527 -0.00328758 0)
(0.430592 0.00860837 0)
(0.461198 -0.00666363 0)
(0.432437 -0.00297638 0)
(0.447682 0.00727099 0)
(0.464958 -0.00953335 0)
(0.428898 0.00363124 0)
(0.475841 0.0017229 0)
(0.439516 -0.00998956 0)
(0.475696 0.00606985 0)
(0.445899 -0.00870329 0)
(0.560934 0.00119568 0)
(0.550746 0.0106015 0)
(0.629366 -0.0194176 0)
(0.564114 -0.0041152 0)
(0.595508 0.0170426 0)
(0.58136 -0.00245247 0)
(0.584086 -0.00609598 0)
(0.570593 0.00338222 0)
(0.600392 -0.00305201 0)
(0.591203 -0.00318916 0)
(0.560571 0.0109439 0)
(0.623539 -0.00913416 0)
(0.562747 -0.00260137 0)
(0.587824 0.00811383 0)
(0.622227 -0.011764 0)
(0.552363 0.00483081 0)
(0.631162 0.00168083 0)
(0.582904 -0.0119306 0)
(0.607554 0.0062504 0)
(0.601708 -0.0092286 0)
(0.685385 0.0040408 0)
(0.645822 0.00904744 0)
(0.76283 -0.0270046 0)
(0.686222 -0.000823492 0)
(0.715775 0.0199558 0)
(0.705209 -0.00339711 0)
(0.706147 -0.00563337 0)
(0.682602 0.00367512 0)
(0.712129 -0.00651189 0)
(0.723877 -0.00111466 0)
(0.663296 0.012344 0)
(0.755112 -0.0130804 0)
(0.685963 0.00140645 0)
(0.690741 0.00601004 0)
(0.756763 -0.0136739 0)
(0.661627 0.0082059 0)
(0.743001 -0.00237934 0)
(0.712988 -0.0115886 0)
(0.712064 0.00669798 0)
(0.724445 -0.0119932 0)
(0.799429 0.00869006 0)
(0.725413 0.00840894 0)
(0.85379 -0.0390981 0)
(0.786611 0.0024892 0)
(0.813279 0.022744 0)
(0.805013 -0.00506453 0)
(0.807896 -0.00427463 0)
(0.78182 0.0061809 0)
(0.793308 -0.0121379 0)
(0.829049 0.000825826 0)
(0.750782 0.0148652 0)
(0.845033 -0.0204423 0)
(0.794305 0.00758039 0)
(0.773485 0.0042151 0)
(0.85447 -0.0179456 0)
(0.761261 0.014317 0)
(0.823566 -0.00791303 0)
(0.81338 -0.0119792 0)
(0.79781 0.00851057 0)
(0.816711 -0.0156389 0)
(0.890496 0.0130477 0)
(0.804252 0.0105468 0)
(0.918903 -0.0517081 0)
(0.863853 0.00519912 0)
(0.888195 0.0253226 0)
(0.881851 -0.0072732 0)
(0.886423 -0.00345457 0)
(0.867528 0.0105714 0)
(0.861711 -0.0172852 0)
(0.906921 0.0020216 0)
(0.828782 0.0189915 0)
(0.907085 -0.0293172 0)
(0.876722 0.0134854 0)
(0.84507 0.00379709 0)
(0.922202 -0.0236837 0)
(0.844511 0.0214858 0)
(0.887742 -0.0128908 0)
(0.888425 -0.0127477 0)
(0.867147 0.0112073 0)
(0.887244 -0.0194185 0)
(0.95352 0.0162204 0)
(0.877828 0.0140994 0)
(0.966666 -0.0621698 0)
(0.922361 0.00783758 0)
(0.943298 0.0274262 0)
(0.93718 -0.00949128 0)
(0.941937 -0.00355156 0)
(0.931709 0.015 0)
(0.918772 -0.0213052 0)
(0.960969 0.00268326 0)
(0.894923 0.0238347 0)
(0.952613 -0.0373505 0)
(0.934459 0.0184518 0)
(0.904714 0.00413661 0)
(0.96649 -0.0294606 0)
(0.907927 0.0282545 0)
(0.93744 -0.0168823 0)
(0.94154 -0.0134895 0)
(0.921207 0.0140898 0)
(0.939004 -0.0228205 0)
(0.989603 0.0181484 0)
(0.939227 0.0173258 0)
(0.996041 -0.0694224 0)
(0.963138 0.0103269 0)
(0.979997 0.0289036 0)
(0.972434 -0.0111063 0)
(0.976906 -0.00403734 0)
(0.972495 0.0185937 0)
(0.959855 -0.0241554 0)
(0.991882 0.00310908 0)
(0.944857 0.0280478 0)
(0.982565 -0.0431995 0)
(0.970291 0.0223009 0)
(0.950386 0.00472594 0)
(0.990422 -0.0339601 0)
(0.951212 0.0336291 0)
(0.971432 -0.0198078 0)
(0.972669 -0.0138643 0)
(0.959237 0.0163504 0)
(0.971601 -0.0253873 0)
(1.00157 0.0190451 0)
(0.983966 0.0190143 0)
(1.00534 -0.0726036 0)
(0.985862 0.0123238 0)
(0.998123 0.0298172 0)
(0.988459 -0.0117915 0)
(0.992656 -0.00454845 0)
(0.991574 0.0208132 0)
(0.98294 -0.0257873 0)
(1.00091 0.00355463 0)
(0.976297 0.0304991 0)
(0.995239 -0.0462073 0)
(0.985544 0.0247823 0)
(0.980061 0.00489974 0)
(0.995315 -0.0361304 0)
(0.975058 0.0366721 0)
(0.989109 -0.0213757 0)
(0.982461 -0.0135948 0)
(0.980737 0.0173623 0)
(0.984556 -0.0265692 0)
(0.992356 0.0190144 0)
(1.00911 0.0187449 0)
(0.993991 -0.0711499 0)
(0.989983 0.0133542 0)
(0.997061 0.0300324 0)
(0.985702 -0.0114158 0)
(0.989322 -0.00488852 0)
(0.990832 0.0213702 0)
(0.987433 -0.0260873 0)
(0.989823 0.0041186 0)
(0.988851 0.0305663 0)
(0.989512 -0.0459615 0)
(0.981172 0.0256435 0)
(0.992086 0.00443278 0)
(0.981216 -0.0352775 0)
(0.980257 0.0368695 0)
(0.989376 -0.0212142 0)
(0.972074 -0.012628 0)
(0.985644 0.0167838 0)
(0.977685 -0.0260166 0)
(0.964705 0.0180948 0)
(1.01225 0.0167601 0)
(0.962031 -0.0653908 0)
(0.974588 0.0129495 0)
(0.975923 0.0294858 0)
(0.964256 -0.00999303 0)
(0.96659 -0.00491751 0)
(0.971879 0.0202543 0)
(0.972816 -0.0249428 0)
(0.960009 0.00472372 0)
(0.982837 0.0281795 0)
(0.964159 -0.042411 0)
(0.958232 0.0246007 0)
(0.984823 0.00366326 0)
(0.947492 -0.0315584 0)
(0.967893 0.0340952 0)
(0.970228 -0.0193826 0)
(0.943368 -0.0112903 0)
(0.973585 0.0145846 0)
(0.951194 -0.0238403 0)
(0.921213 0.0162456 0)
(0.990947 0.0136689 0)
(0.909539 -0.0563837 0)
(0.938676 0.0111526 0)
(0.93373 0.0281185 0)
(0.923892 -0.00789683 0)
(0.924312 -0.00485687 0)
(0.936375 0.0174875 0)
(0.937969 -0.0223386 0)
(0.912845 0.00506134 0)
(0.958111 0.0238602 0)
(0.917216 -0.0360215 0)
(0.918669 0.0216378 0)
(0.955813 0.00285516 0)
(0.894626 -0.0259752 0)
(0.93959 0.0287251 0)
(0.92973 -0.0162292 0)
(0.899798 -0.00992718 0)
(0.943565 0.0113685 0)
(0.906193 -0.0204003 0)
(0.864477 0.0133391 0)
(0.941991 0.0103888 0)
(0.836557 -0.0454144 0)
(0.881804 0.00852672 0)
(0.870262 0.0260416 0)
(0.86498 -0.00560505 0)
(0.864201 -0.00508256 0)
(0.886203 0.0133534 0)
(0.880854 -0.0182949 0)
(0.85073 0.00473459 0)
(0.912493 0.0187721 0)
(0.847289 -0.0277425 0)
(0.866307 0.016751 0)
(0.902297 0.00251807 0)
(0.82671 -0.0199837 0)
(0.896486 0.021533 0)
(0.867644 -0.0120194 0)
(0.845084 -0.00910489 0)
(0.893693 0.00793325 0)
(0.844265 -0.0162635 0)
(0.796066 0.00929208 0)
(0.860512 0.00820305 0)
(0.744531 -0.0339013 0)
(0.806453 0.00494595 0)
(0.788635 0.0235039 0)
(0.790041 -0.00361863 0)
(0.789959 -0.00602048 0)
(0.819825 0.00888655 0)
(0.798549 -0.01306 0)
(0.776395 0.00338058 0)
(0.840959 0.0145515 0)
(0.757857 -0.0192239 0)
(0.804541 0.0101297 0)
(0.822748 0.00322409 0)
(0.750168 -0.01512 0)
(0.835122 0.0139375 0)
(0.78479 -0.00714312 0)
(0.778789 -0.00919924 0)
(0.820272 0.00516358 0)
(0.765955 -0.0120671 0)
(0.711557 0.00466852 0)
(0.742162 0.0085897 0)
(0.641852 -0.0242677 0)
(0.715999 2.69159e-05 0)
(0.691994 0.0202654 0)
(0.699881 -0.00260105 0)
(0.699398 -0.0073869 0)
(0.72704 0.00592556 0)
(0.690674 -0.00754314 0)
(0.689566 0.000958866 0)
(0.739182 0.0120594 0)
(0.658306 -0.0126942 0)
(0.726474 0.00327976 0)
(0.715738 0.00501407 0)
(0.665301 -0.0121998 0)
(0.744027 0.0080172 0)
(0.681678 -0.00244316 0)
(0.694004 -0.00969825 0)
(0.718508 0.00375308 0)
(0.670066 -0.00843759 0)
(0.597702 0.00157389 0)
(0.598204 0.0101666 0)
(0.539014 -0.0184827 0)
(0.599413 -0.00391021 0)
(0.574017 0.0172005 0)
(0.586614 -0.00194093 0)
(0.582008 -0.00726125 0)
(0.600916 0.0050253 0)
(0.565191 -0.00369809 0)
(0.582664 -0.00155483 0)
(0.607528 0.0105815 0)
(0.551066 -0.00897238 0)
(0.612798 -0.000899592 0)
(0.583377 0.00690253 0)
(0.562432 -0.0105111 0)
(0.614196 0.00495265 0)
(0.56141 0.000742892 0)
(0.58141 -0.00955717 0)
(0.587885 0.0034494 0)
(0.554479 -0.00574004 0)
(0.451318 0.000719152 0)
(0.45093 0.00875086 0)
(0.419834 -0.013813 0)
(0.444067 -0.00387629 0)
(0.434078 0.0135592 0)
(0.446279 -0.00121745 0)
(0.438905 -0.00561267 0)
(0.450076 0.00410208 0)
(0.426888 -0.00201846 0)
(0.444765 -0.00247558 0)
(0.45363 0.00858491 0)
(0.425601 -0.00650455 0)
(0.458835 -0.00172602 0)
(0.436796 0.00670108 0)
(0.431158 -0.0083688 0)
(0.454726 0.00351385 0)
(0.426443 0.00165348 0)
(0.437736 -0.00777864 0)
(0.436178 0.00306454 0)
(0.417357 -0.00369388 0)
(0.283697 0.000164567 0)
(0.294012 0.00547222 0)
(0.269802 -0.00774549 0)
(0.267071 -0.003349 0)
(0.275543 0.00821006 0)
(0.28482 -0.000191558 0)
(0.277131 -0.00369043 0)
(0.281877 0.00249871 0)
(0.272048 -0.00115049 0)
(0.27852 -0.00215402 0)
(0.285921 0.00541079 0)
(0.274607 -0.00367173 0)
(0.282107 -0.00165582 0)
(0.278331 0.0045493 0)
(0.272436 -0.00505055 0)
(0.280387 0.00181395 0)
(0.272515 0.00175351 0)
(0.271229 -0.00480592 0)
(0.269832 0.00204508 0)
(0.260276 -0.00156448 0)
(0.098611 4.88439e-06 0)
(0.113592 0.00167984 0)
(0.0992932 -0.00234369 0)
(0.0817286 -0.00141845 0)
(0.0950994 0.00257095 0)
(0.106458 1.5024e-05 0)
(0.0986073 -0.00126044 0)
(0.0988372 0.000777225 0)
(0.0978923 -0.000375185 0)
(0.0938709 -0.000786391 0)
(0.102243 0.00169832 0)
(0.100752 -0.00112123 0)
(0.094504 -0.000735572 0)
(0.100657 0.00152442 0)
(0.0956559 -0.00156959 0)
(0.094114 0.000498781 0)
(0.0981952 0.000795467 0)
(0.0923229 -0.00152147 0)
(0.0906097 0.000741634 0)
(0.0899422 -0.000295719 0)
(0.18007 -0.00780893 0)
(0.130334 0.00194155 0)
(0.246771 -0.0126778 0)
(0.162817 -0.00356338 0)
(0.241101 0.000999655 0)
(0.305909 0.0285893 0)
(0.160916 -0.00631056 0)
(0.543107 -0.051821 0)
(0.349656 -0.00502511 0)
(0.440174 -0.12828 0)
(0.573174 -0.107457 0)
(0.267321 -0.00878374 0)
(0.453491 0.00996728 0)
(0.497303 0.0675151 0)
(0.602657 -0.0454904 0)
(0.788385 -0.209855 0)
(0.940394 -0.308753 0)
(0.976845 -0.291056 0)
(0.978427 -0.216697 0)
(0.92498 -0.235182 0)
(0.862369 -0.21846 0)
(0.486582 -0.234556 0)
(0.494238 -0.255118 0)
(0.509383 -0.194622 0)
(0.553761 -0.0229834 0)
(0.62296 0.223774 0)
(0.568436 0.365354 0)
(0.488157 0.44072 0)
(0.46118 0.404288 0)
(0.574439 0.191843 0)
(0.674582 -0.128124 0)
(0.732199 -0.283465 0)
(0.687597 -0.235027 0)
(0.500742 -0.214188 0)
(0.507192 -0.185862 0)
(0.536977 -0.102454 0)
(0.554002 0.0227225 0)
(0.58214 0.171742 0)
(0.571134 0.236464 0)
(0.521828 0.257204 0)
(0.465253 0.274347 0)
(0.481862 0.210806 0)
(0.493074 0.0931564 0)
(0.520216 -0.0431138 0)
(0.570029 -0.172144 0)
(0.541345 -0.255658 0)
(0.521304 -0.196018 0)
(0.536247 -0.0120278 0)
(0.520705 0.108746 0)
(0.539964 0.103667 0)
(0.516825 0.0720381 0)
(0.510531 0.0104451 0)
(0.550217 -0.0894073 0)
(0.559241 -0.153326 0)
(0.530536 -0.154511 0)
(0.518772 -0.0837989 0)
(0.544693 0.0297701 0)
(0.549334 0.104604 0)
(0.523397 0.114579 0)
(0.496489 0.084386 0)
(0.485237 0.0404615 0)
(0.48411 0.00213719 0)
(0.482601 -0.0191883 0)
(0.476638 -0.0241857 0)
(0.466875 -0.0201442 0)
(0.45535 -0.0137841 0)
(0.444004 -0.00845833 0)
(0.43408 -0.00495023 0)
(0.426071 -0.0029291 0)
(0.419987 -0.00184184 0)
(0.415589 -0.00125315 0)
(0.412554 -0.000901996 0)
(0.41055 -0.000659752 0)
(0.40928 -0.000474256 0)
(0.408509 -0.000328656 0)
(0.408058 -0.000217626 0)
(0.407805 -0.000137339 0)
(0.407668 -8.26094e-05 0)
(0.407596 -4.74376e-05 0)
(0.407559 -2.60538e-05 0)
(0.407541 -1.37125e-05 0)
(0.407533 -6.93011e-06 0)
(0.407529 -3.36801e-06 0)
(0.407527 -1.57423e-06 0)
(0.407527 -7.16253e-07 0)
(0.407526 -3.08436e-07 0)
(0.407526 -1.34773e-07 0)
(0.407526 -5.3212e-08 0)
(0.407526 -2.2182e-08 0)
(0.407526 -4.27111e-09 0)
(0.407526 -4.83045e-09 0)
(0.407526 2.83688e-09 0)
(0.407526 -3.48181e-09 0)
(0.407526 4.16998e-09 0)
(0.407526 -2.14918e-09 0)
(0.407526 3.03698e-09 0)
(0.407526 -3.63314e-09 0)
(0.407526 4.25579e-09 0)
(0.407526 -2.56293e-09 0)
(0.407526 3.75819e-10 0)
(0.351899 -0.0106099 0)
(0.278373 -0.000331623 0)
(0.39544 -0.015724 0)
(0.316426 -0.00393707 0)
(0.343324 -0.0103745 0)
(0.461071 0.0263692 0)
(0.326075 -0.0137781 0)
(0.610779 -0.0764332 0)
(0.525536 -0.0112614 0)
(0.535671 -0.12573 0)
(0.685635 -0.105421 0)
(0.426166 -0.00139478 0)
(0.504881 0.00391131 0)
(0.543142 0.0477612 0)
(0.704916 -0.0770105 0)
(0.87152 -0.23614 0)
(0.984787 -0.320766 0)
(0.992679 -0.297085 0)
(0.970917 -0.212739 0)
(0.899431 -0.213154 0)
(0.800929 -0.181021 0)
(0.429617 -0.20906 0)
(0.43836 -0.260842 0)
(0.465814 -0.198236 0)
(0.510786 -0.0250337 0)
(0.579843 0.22526 0)
(0.540131 0.370504 0)
(0.477136 0.443421 0)
(0.465116 0.397431 0)
(0.584959 0.177132 0)
(0.696865 -0.140615 0)
(0.732457 -0.279627 0)
(0.65843 -0.217462 0)
(0.45603 -0.203063 0)
(0.468044 -0.188304 0)
(0.506294 -0.103469 0)
(0.524696 0.0215291 0)
(0.551365 0.170126 0)
(0.553284 0.238271 0)
(0.51552 0.262068 0)
(0.474631 0.275881 0)
(0.498986 0.209495 0)
(0.511414 0.0920439 0)
(0.538835 -0.0471082 0)
(0.589817 -0.17515 0)
(0.555241 -0.253126 0)
(0.519862 -0.194253 0)
(0.527296 -0.0109946 0)
(0.520143 0.107621 0)
(0.543623 0.103563 0)
(0.519416 0.0744337 0)
(0.522266 0.00852967 0)
(0.558261 -0.0923851 0)
(0.554914 -0.152702 0)
(0.518952 -0.151312 0)
(0.502377 -0.0828976 0)
(0.526586 0.0283874 0)
(0.535592 0.10479 0)
(0.516676 0.116978 0)
(0.496733 0.0867153 0)
(0.49064 0.0414199 0)
(0.491644 0.00237993 0)
(0.489706 -0.0186618 0)
(0.482165 -0.023075 0)
(0.470755 -0.0186493 0)
(0.457945 -0.0122066 0)
(0.445723 -0.00701609 0)
(0.435239 -0.00374974 0)
(0.426877 -0.00199473 0)
(0.420567 -0.00115212 0)
(0.416013 -0.000766852 0)
(0.412863 -0.000573467 0)
(0.410767 -0.000446693 0)
(0.409425 -0.000341492 0)
(0.408599 -0.000249061 0)
(0.408108 -0.000171665 0)
(0.407827 -0.00011175 0)
(0.407671 -6.88439e-05 0)
(0.407588 -4.0281e-05 0)
(0.407545 -2.24504e-05 0)
(0.407523 -1.19517e-05 0)
(0.407513 -6.09828e-06 0)
(0.407508 -2.9815e-06 0)
(0.407505 -1.40247e-06 0)
(0.407504 -6.40899e-07 0)
(0.407504 -2.76528e-07 0)
(0.407504 -1.21806e-07 0)
(0.407504 -4.80718e-08 0)
(0.407504 -1.98651e-08 0)
(0.407504 -6.5509e-09 0)
(0.407504 -1.75482e-09 0)
(0.407504 9.37548e-10 0)
(0.407504 -1.53074e-09 0)
(0.407504 2.24992e-09 0)
(0.407504 -7.06291e-10 0)
(0.407504 1.48235e-09 0)
(0.407504 -1.0981e-09 0)
(0.407504 2.39244e-09 0)
(0.407504 -1.46862e-09 0)
(0.407504 1.01082e-10 0)
(0.508258 -0.014053 0)
(0.443194 -0.000249821 0)
(0.534076 -0.0211479 0)
(0.49216 -0.000944168 0)
(0.472606 -0.0165461 0)
(0.600034 0.0129898 0)
(0.514056 -0.0119768 0)
(0.691652 -0.0917451 0)
(0.672079 -0.0209732 0)
(0.639445 -0.116225 0)
(0.761335 -0.107726 0)
(0.581015 0.00582433 0)
(0.583943 0.00855053 0)
(0.63234 0.0258136 0)
(0.810198 -0.110554 0)
(0.937239 -0.257437 0)
(1.00955 -0.325626 0)
(0.989784 -0.295989 0)
(0.946276 -0.204929 0)
(0.859757 -0.187325 0)
(0.727553 -0.141353 0)
(0.375073 -0.183988 0)
(0.373219 -0.267438 0)
(0.415723 -0.203328 0)
(0.462756 -0.027191 0)
(0.532772 0.225484 0)
(0.507809 0.372946 0)
(0.463404 0.443326 0)
(0.464476 0.388657 0)
(0.592743 0.160224 0)
(0.712907 -0.151554 0)
(0.723396 -0.271091 0)
(0.621746 -0.196391 0)
(0.410544 -0.191807 0)
(0.428108 -0.192089 0)
(0.473647 -0.105117 0)
(0.49312 0.0203897 0)
(0.517532 0.167565 0)
(0.531909 0.238113 0)
(0.505506 0.26491 0)
(0.480512 0.275521 0)
(0.51331 0.207261 0)
(0.526816 0.0909537 0)
(0.556172 -0.0513193 0)
(0.606792 -0.177951 0)
(0.56507 -0.248775 0)
(0.514186 -0.190252 0)
(0.513764 -0.0100404 0)
(0.51608 0.10527 0)
(0.542658 0.103212 0)
(0.519204 0.0761434 0)
(0.531411 0.00627536 0)
(0.561869 -0.0942551 0)
(0.545955 -0.150639 0)
(0.503286 -0.147227 0)
(0.48257 -0.0814786 0)
(0.504893 0.0268364 0)
(0.517982 0.104125 0)
(0.506269 0.118322 0)
(0.493668 0.0881567 0)
(0.49297 0.0418906 0)
(0.496122 0.00255558 0)
(0.493744 -0.0179893 0)
(0.484734 -0.0217557 0)
(0.471936 -0.0169816 0)
(0.458213 -0.0105156 0)
(0.445535 -0.00550899 0)
(0.434902 -0.00251588 0)
(0.426559 -0.00104485 0)
(0.420331 -0.000455364 0)
(0.415868 -0.000276636 0)
(0.412784 -0.000241595 0)
(0.410728 -0.00023014 0)
(0.409402 -0.000205226 0)
(0.408576 -0.000166314 0)
(0.408079 -0.000123153 0)
(0.40779 -8.42779e-05 0)
(0.407627 -5.37973e-05 0)
(0.407539 -3.23104e-05 0)
(0.407492 -1.83598e-05 0)
(0.407468 -9.915e-06 0)
(0.407457 -5.11743e-06 0)
(0.407451 -2.51875e-06 0)
(0.407448 -1.19313e-06 0)
(0.407447 -5.46635e-07 0)
(0.407447 -2.36232e-07 0)
(0.407446 -1.05016e-07 0)
(0.407446 -4.23353e-08 0)
(0.407446 -1.65153e-08 0)
(0.407446 -7.53257e-09 0)
(0.407446 7.98612e-10 0)
(0.407446 1.32412e-10 0)
(0.407446 1.09788e-10 0)
(0.407446 1.16415e-09 0)
(0.407446 4.34031e-10 0)
(0.407446 8.38341e-11 0)
(0.407446 1.05367e-09 0)
(0.407446 3.18903e-10 0)
(0.407446 -7.7522e-10 0)
(0.407446 -1.1534e-10 0)
(0.637797 -0.0169589 0)
(0.590144 0.00071126 0)
(0.654521 -0.025789 0)
(0.639292 -0.00073983 0)
(0.60666 -0.0161197 0)
(0.716792 -0.004334 0)
(0.666731 -0.0102478 0)
(0.774179 -0.10011 0)
(0.780372 -0.0354088 0)
(0.739393 -0.101427 0)
(0.81451 -0.109662 0)
(0.703261 0.00936666 0)
(0.671877 0.0174535 0)
(0.74023 0.00520003 0)
(0.898826 -0.139975 0)
(0.979777 -0.273017 0)
(1.01252 -0.324714 0)
(0.966234 -0.289173 0)
(0.903037 -0.194199 0)
(0.805379 -0.15893 0)
(0.644008 -0.100917 0)
(0.323401 -0.160357 0)
(0.299241 -0.273365 0)
(0.360322 -0.2101 0)
(0.4101 -0.0300327 0)
(0.481966 0.224471 0)
(0.471051 0.372489 0)
(0.447074 0.440525 0)
(0.458643 0.377817 0)
(0.599316 0.141227 0)
(0.721806 -0.16027 0)
(0.705269 -0.257991 0)
(0.578734 -0.172544 0)
(0.366452 -0.180886 0)
(0.387598 -0.196975 0)
(0.438571 -0.107184 0)
(0.458515 0.0193545 0)
(0.480844 0.164192 0)
(0.506915 0.236113 0)
(0.49198 0.265795 0)
(0.482789 0.27322 0)
(0.524849 0.204211 0)
(0.539418 0.0896013 0)
(0.57285 -0.0557927 0)
(0.620933 -0.180253 0)
(0.570543 -0.242505 0)
(0.504393 -0.184043 0)
(0.496212 -0.00921626 0)
(0.508461 0.101751 0)
(0.536952 0.102557 0)
(0.516285 0.0770347 0)
(0.537456 0.00383463 0)
(0.560744 -0.0948605 0)
(0.532522 -0.147186 0)
(0.483803 -0.142362 0)
(0.459581 -0.0795088 0)
(0.479884 0.0252061 0)
(0.496712 0.102656 0)
(0.492271 0.118582 0)
(0.487285 0.0886781 0)
(0.49213 0.0418429 0)
(0.497401 0.00260483 0)
(0.494568 -0.0171831 0)
(0.484221 -0.0202546 0)
(0.470324 -0.0151847 0)
(0.456084 -0.00876426 0)
(0.443388 -0.00399213 0)
(0.433032 -0.0012998 0)
(0.425084 -0.000123571 0)
(0.419253 0.000212606 0)
(0.415124 0.000190084 0)
(0.412291 7.37677e-05 0)
(0.410403 -2.37883e-05 0)
(0.409179 -7.44456e-05 0)
(0.40841 -8.60569e-05 0)
(0.407941 -7.54752e-05 0)
(0.407664 -5.68787e-05 0)
(0.407506 -3.85521e-05 0)
(0.407419 -2.41041e-05 0)
(0.407372 -1.40813e-05 0)
(0.407348 -7.7523e-06 0)
(0.407336 -4.05946e-06 0)
(0.40733 -2.01432e-06 0)
(0.407327 -9.61443e-07 0)
(0.407326 -4.43061e-07 0)
(0.407325 -1.90721e-07 0)
(0.407325 -8.57441e-08 0)
(0.407325 -3.4102e-08 0)
(0.407325 -1.305e-08 0)
(0.407325 -7.15755e-09 0)
(0.407325 8.94333e-10 0)
(0.407325 4.68445e-10 0)
(0.407325 -7.18352e-10 0)
(0.407325 1.28497e-09 0)
(0.407325 -5.85048e-11 0)
(0.407325 -2.79381e-10 0)
(0.407325 1.86847e-09 0)
(0.407325 1.29096e-10 0)
(0.407325 -1.06999e-09 0)
(0.407325 -2.71516e-11 0)
(0.74648 -0.0181722 0)
(0.710921 0.0018918 0)
(0.754606 -0.0292622 0)
(0.754078 -0.00310611 0)
(0.720951 -0.0130024 0)
(0.810088 -0.0211337 0)
(0.77997 -0.00917255 0)
(0.847954 -0.100017 0)
(0.857252 -0.051247 0)
(0.818931 -0.0856203 0)
(0.85688 -0.109316 0)
(0.788477 0.00756025 0)
(0.749965 0.0253284 0)
(0.832754 -0.0115887 0)
(0.959663 -0.16311 0)
(0.997731 -0.282323 0)
(0.9943 -0.317982 0)
(0.923343 -0.277103 0)
(0.843605 -0.180394 0)
(0.738616 -0.128575 0)
(0.554865 -0.0606199 0)
(0.272721 -0.138473 0)
(0.222012 -0.277278 0)
(0.305485 -0.218222 0)
(0.352926 -0.033634 0)
(0.427923 0.221959 0)
(0.42986 0.369288 0)
(0.428142 0.435174 0)
(0.447437 0.364671 0)
(0.605939 0.120275 0)
(0.722707 -0.166175 0)
(0.678457 -0.240544 0)
(0.530637 -0.146839 0)
(0.325717 -0.170623 0)
(0.345922 -0.202505 0)
(0.400633 -0.109495 0)
(0.420096 0.0184547 0)
(0.441514 0.160028 0)
(0.478382 0.232268 0)
(0.475171 0.264637 0)
(0.481513 0.268811 0)
(0.533499 0.200297 0)
(0.549378 0.0878353 0)
(0.589206 -0.060396 0)
(0.632004 -0.181673 0)
(0.571376 -0.234281 0)
(0.490678 -0.175726 0)
(0.475318 -0.00853817 0)
(0.497268 0.0972161 0)
(0.526505 0.101487 0)
(0.510704 0.0770386 0)
(0.539955 0.00120847 0)
(0.554794 -0.0941392 0)
(0.514875 -0.142422 0)
(0.46081 -0.136792 0)
(0.433644 -0.0770701 0)
(0.451827 0.0235196 0)
(0.472023 0.100412 0)
(0.474836 0.117749 0)
(0.477642 0.0882422 0)
(0.488095 0.0412682 0)
(0.495398 0.00256376 0)
(0.492086 -0.0162441 0)
(0.480565 -0.0185996 0)
(0.465897 -0.013305 0)
(0.451562 -0.00700852 0)
(0.439295 -0.00252125 0)
(0.42964 -0.000153738 0)
(0.422457 0.000724722 0)
(0.417327 0.000816435 0)
(0.413766 0.000606612 0)
(0.411354 0.000353394 0)
(0.409752 0.000159195 0)
(0.40871 4.22113e-05 0)
(0.408049 -1.37155e-05 0)
(0.40764 -3.19131e-05 0)
(0.407395 -3.14574e-05 0)
(0.407252 -2.41785e-05 0)
(0.407171 -1.62431e-05 0)
(0.407128 -9.91905e-06 0)
(0.407105 -5.6175e-06 0)
(0.407093 -3.00182e-06 0)
(0.407088 -1.50428e-06 0)
(0.407085 -7.24432e-07 0)
(0.407084 -3.36025e-07 0)
(0.407083 -1.42512e-07 0)
(0.407083 -6.58507e-08 0)
(0.407083 -2.54637e-08 0)
(0.407082 -9.73079e-09 0)
(0.407083 -6.59013e-09 0)
(0.407083 2.24468e-09 0)
(0.407082 3.07477e-10 0)
(0.407083 -8.06218e-10 0)
(0.407083 1.40482e-09 0)
(0.407082 1.56724e-10 0)
(0.407083 -5.72824e-10 0)
(0.407083 2.4965e-09 0)
(0.407082 -4.90095e-10 0)
(0.407083 -1.33193e-09 0)
(0.407083 5.61948e-11 0)
(0.830145 -0.0187884 0)
(0.805043 0.00276529 0)
(0.835185 -0.0307698 0)
(0.839649 -0.00729157 0)
(0.812743 -0.00889333 0)
(0.881046 -0.0351556 0)
(0.862784 -0.0100839 0)
(0.906711 -0.0949274 0)
(0.912186 -0.0661148 0)
(0.877933 -0.0710251 0)
(0.891944 -0.104705 0)
(0.846003 0.000895096 0)
(0.810271 0.029856 0)
(0.896728 -0.0247618 0)
(0.993208 -0.17953 0)
(0.993112 -0.285266 0)
(0.955497 -0.306443 0)
(0.86151 -0.261084 0)
(0.769275 -0.164142 0)
(0.661029 -0.0971578 0)
(0.463091 -0.0215483 0)
(0.219527 -0.118494 0)
(0.150458 -0.28083 0)
(0.256114 -0.226876 0)
(0.290737 -0.0370286 0)
(0.369867 0.217786 0)
(0.385448 0.362982 0)
(0.407054 0.427297 0)
(0.431603 0.348854 0)
(0.612855 0.0977055 0)
(0.714692 -0.168703 0)
(0.64341 -0.219098 0)
(0.478804 -0.120296 0)
(0.289645 -0.16119 0)
(0.301644 -0.208126 0)
(0.35923 -0.111833 0)
(0.37739 0.0175877 0)
(0.399576 0.155089 0)
(0.446184 0.226757 0)
(0.455133 0.261537 0)
(0.476893 0.26232 0)
(0.539023 0.195402 0)
(0.556898 0.085466 0)
(0.605265 -0.0650442 0)
(0.639625 -0.181844 0)
(0.567301 -0.224117 0)
(0.47333 -0.165524 0)
(0.451814 -0.00804877 0)
(0.482513 0.0918448 0)
(0.511442 0.0999695 0)
(0.502516 0.0760108 0)
(0.538573 -0.00138363 0)
(0.544057 -0.0920588 0)
(0.493348 -0.136441 0)
(0.43467 -0.130635 0)
(0.404994 -0.0742489 0)
(0.420988 0.0218009 0)
(0.444185 0.0974365 0)
(0.454168 0.115824 0)
(0.46486 0.0868387 0)
(0.480902 0.040175 0)
(0.490078 0.00244123 0)
(0.486261 -0.0151846 0)
(0.473777 -0.0168266 0)
(0.458712 -0.0113945 0)
(0.444727 -0.00530569 0)
(0.433338 -0.00115366 0)
(0.424794 0.000871181 0)
(0.418723 0.00145794 0)
(0.414564 0.00132338 0)
(0.411775 0.000948728 0)
(0.409928 0.000580183 0)
(0.408711 0.000307234 0)
(0.407916 0.000137202 0)
(0.407405 4.59673e-05 0)
(0.407081 4.65008e-06 0)
(0.406883 -9.70943e-06 0)
(0.406765 -1.16404e-05 0)
(0.406696 -9.25737e-06 0)
(0.406659 -6.15602e-06 0)
(0.406639 -3.65744e-06 0)
(0.406628 -2.01783e-06 0)
(0.406623 -1.02399e-06 0)
(0.40662 -4.98987e-07 0)
(0.406619 -2.33427e-07 0)
(0.406619 -9.60437e-08 0)
(0.406618 -4.68038e-08 0)
(0.406618 -1.70907e-08 0)
(0.406618 -6.14844e-09 0)
(0.406618 -5.9039e-09 0)
(0.406618 3.04617e-09 0)
(0.406618 5.98136e-10 0)
(0.406618 -1.34447e-09 0)
(0.406618 1.55805e-09 0)
(0.406618 -3.11766e-10 0)
(0.406618 -4.39269e-10 0)
(0.406618 2.6842e-09 0)
(0.406618 -5.08989e-10 0)
(0.406618 -1.52983e-09 0)
(0.406618 2.0659e-10 0)
(0.894036 -0.0186623 0)
(0.875925 0.00282552 0)
(0.898725 -0.0309454 0)
(0.900773 -0.012082 0)
(0.883767 -0.00554983 0)
(0.932455 -0.0449385 0)
(0.921545 -0.0132642 0)
(0.950587 -0.086807 0)
(0.94914 -0.0779971 0)
(0.917522 -0.05884 0)
(0.916488 -0.0965719 0)
(0.883007 -0.00759316 0)
(0.850338 0.0318978 0)
(0.934125 -0.0351518 0)
(1.00336 -0.189239 0)
(0.966523 -0.281646 0)
(0.895942 -0.290305 0)
(0.781382 -0.241613 0)
(0.681178 -0.14583 0)
(0.573604 -0.0651329 0)
(0.370378 0.0151333 0)
(0.165337 -0.100293 0)
(0.0903578 -0.286052 0)
(0.208549 -0.236414 0)
(0.223868 -0.0395933 0)
(0.307317 0.212464 0)
(0.337032 0.354029 0)
(0.382382 0.417209 0)
(0.412996 0.329907 0)
(0.618804 0.0747176 0)
(0.696937 -0.16728 0)
(0.600718 -0.194147 0)
(0.424863 -0.0938689 0)
(0.258382 -0.152638 0)
(0.253476 -0.213063 0)
(0.31384 -0.114131 0)
(0.330193 0.0167117 0)
(0.355339 0.149232 0)
(0.410566 0.219504 0)
(0.431965 0.256345 0)
(0.469245 0.253699 0)
(0.541004 0.18946 0)
(0.562153 0.0820923 0)
(0.620687 -0.0696354 0)
(0.643272 -0.180383 0)
(0.558064 -0.21208 0)
(0.452738 -0.153767 0)
(0.42643 -0.00778211 0)
(0.464242 0.0858546 0)
(0.492005 0.0979462 0)
(0.491776 0.073859 0)
(0.533095 -0.00381321 0)
(0.528709 -0.0886185 0)
(0.468356 -0.129385 0)
(0.405763 -0.123992 0)
(0.37386 -0.0710984 0)
(0.387625 0.0200717 0)
(0.413488 0.0937794 0)
(0.430518 0.112816 0)
(0.449127 0.0844726 0)
(0.470638 0.0385838 0)
(0.481449 0.00225337 0)
(0.477118 -0.0140172 0)
(0.463948 -0.0149773 0)
(0.448916 -0.00950918 0)
(0.435745 -0.0037147 0)
(0.425669 5.40482e-05 0)
(0.418609 0.00172882 0)
(0.413947 0.00203923 0)
(0.410981 0.00170572 0)
(0.409117 0.00119678 0)
(0.407935 0.000740837 0)
(0.40717 0.00041159 0)
(0.406663 0.000204918 0)
(0.406327 8.94729e-05 0)
(0.406106 3.2058e-05 0)
(0.405964 7.07465e-06 0)
(0.405877 -1.6904e-06 0)
(0.405824 -3.57223e-06 0)
(0.405795 -3.02519e-06 0)
(0.405778 -1.9958e-06 0)
(0.40577 -1.17096e-06 0)
(0.405766 -6.0525e-07 0)
(0.405763 -3.0056e-07 0)
(0.405763 -1.42658e-07 0)
(0.405762 -5.4571e-08 0)
(0.405762 -2.98083e-08 0)
(0.405762 -9.56925e-09 0)
(0.405762 -2.75867e-09 0)
(0.405762 -5.2242e-09 0)
(0.405762 3.8093e-09 0)
(0.405762 7.05696e-10 0)
(0.405762 -1.73707e-09 0)
(0.405762 1.71938e-09 0)
(0.405762 -2.4229e-10 0)
(0.405762 -5.5065e-10 0)
(0.405762 2.72877e-09 0)
(0.405762 -7.94336e-10 0)
(0.405762 -1.64611e-09 0)
(0.405762 3.52901e-10 0)
(0.940953 -0.0176666 0)
(0.927298 0.00209589 0)
(0.945877 -0.0300476 0)
(0.941734 -0.0164477 0)
(0.935164 -0.0035497 0)
(0.966602 -0.0501006 0)
(0.959159 -0.0181477 0)
(0.979361 -0.077896 0)
(0.968928 -0.0859551 0)
(0.938961 -0.0494643 0)
(0.928867 -0.0867125 0)
(0.901384 -0.0153392 0)
(0.869617 0.0323072 0)
(0.949466 -0.0424745 0)
(0.991662 -0.191878 0)
(0.918246 -0.271137 0)
(0.817055 -0.269883 0)
(0.686243 -0.219607 0)
(0.583406 -0.126422 0)
(0.480617 -0.0332805 0)
(0.280286 0.0487317 0)
(0.115231 -0.0846255 0)
(0.0411085 -0.292272 0)
(0.150418 -0.248133 0)
(0.152284 -0.0418752 0)
(0.240385 0.205013 0)
(0.287515 0.341869 0)
(0.353868 0.404562 0)
(0.395602 0.307405 0)
(0.621267 0.0523109 0)
(0.668832 -0.161637 0)
(0.55119 -0.166476 0)
(0.370737 -0.0684195 0)
(0.230842 -0.144663 0)
(0.201789 -0.216561 0)
(0.264406 -0.116448 0)
(0.278884 0.0155768 0)
(0.308793 0.142494 0)
(0.371485 0.210832 0)
(0.405576 0.249081 0)
(0.459052 0.243101 0)
(0.538954 0.182549 0)
(0.565374 0.0776934 0)
(0.634793 -0.0739318 0)
(0.642364 -0.176945 0)
(0.543453 -0.198292 0)
(0.429386 -0.140813 0)
(0.399871 -0.00769425 0)
(0.442503 0.0794965 0)
(0.468544 0.095335 0)
(0.478594 0.0705666 0)
(0.523428 -0.00590964 0)
(0.509053 -0.0838798 0)
(0.440369 -0.121393 0)
(0.374491 -0.116944 0)
(0.340476 -0.0676644 0)
(0.35199 0.0183558 0)
(0.380241 0.0894866 0)
(0.404177 0.108747 0)
(0.430692 0.0811517 0)
(0.457429 0.0365242 0)
(0.469553 0.00201728 0)
(0.46475 -0.0127638 0)
(0.451268 -0.0131039 0)
(0.436755 -0.00771062 0)
(0.424868 -0.00229478 0)
(0.416503 0.00105342 0)
(0.411235 0.00237995 0)
(0.408199 0.00243947 0)
(0.406562 0.00194375 0)
(0.4057 0.00133827 0)
(0.405226 0.000827713 0)
(0.404931 0.000467652 0)
(0.404724 0.000242553 0)
(0.404569 0.000115058 0)
(0.404454 4.92121e-05 0)
(0.404373 1.82039e-05 0)
(0.404318 5.24444e-06 0)
(0.404283 5.52868e-07 0)
(0.404263 -6.79474e-07 0)
(0.404251 -7.17469e-07 0)
(0.404245 -5.06888e-07 0)
(0.404241 -2.7183e-07 0)
(0.40424 -1.41e-07 0)
(0.404239 -6.93335e-08 0)
(0.404239 -2.06781e-08 0)
(0.404238 -1.60522e-08 0)
(0.404238 -3.47515e-09 0)
(0.404238 1.54869e-10 0)
(0.404238 -4.63064e-09 0)
(0.404238 4.39914e-09 0)
(0.404238 7.99078e-10 0)
(0.404238 -2.14464e-09 0)
(0.404238 1.90547e-09 0)
(0.404238 -2.03805e-10 0)
(0.404238 -6.41664e-10 0)
(0.404238 2.66167e-09 0)
(0.404238 -1.00493e-09 0)
(0.404238 -1.63632e-09 0)
(0.404238 4.91788e-10 0)
(0.970356 -0.0160519 0)
(0.960611 0.000777916 0)
(0.975404 -0.0282616 0)
(0.964985 -0.0197659 0)
(0.967077 -0.00306337 0)
(0.984307 -0.0513202 0)
(0.977054 -0.0237416 0)
(0.992201 -0.0692197 0)
(0.971873 -0.0895503 0)
(0.94207 -0.0427934 0)
(0.928083 -0.0762019 0)
(0.90113 -0.0214022 0)
(0.868773 0.0305682 0)
(0.945973 -0.0475978 0)
(0.958642 -0.187809 0)
(0.849314 -0.254092 0)
(0.721328 -0.245813 0)
(0.579547 -0.196184 0)
(0.479009 -0.106258 0)
(0.385062 -0.00405067 0)