/*--------------------------------*- C++ -*----------------------------------*\
| =========                 |                                                 |
| \\      /  F ield         | OpenFOAM: The Open Source CFD Toolbox           |
|  \\    /   O peration     | Version:  2.4.0                                 |
|   \\  /    A nd           | Web:      www.OpenFOAM.org                      |
|    \\/     M anipulation  |                                                 |
\*---------------------------------------------------------------------------*/
FoamFile
{
    version     2.0;
    format      ascii;
    class       volVectorField;
    location    "0.32";
    object      U;
}
// * * * * * * * * * * * * * * * * * * * * * * * * * * * * * * * * * * * * * //

dimensions      [0 1 -1 0 0 0 0];

internalField   nonuniform List<vector> 
8800
(
(8.09237 0.387842 0)
(5.44931 0.24268 0)
(3.91135 0.042866 0)
(3.15702 -0.0156909 0)
(2.8008 -0.0178328 0)
(2.59842 -0.0114369 0)
(2.48606 -0.00580164 0)
(2.37627 -0.00129349 0)
(2.32255 -0.0028292 0)
(2.24721 6.14557e-06 0)
(2.21838 -8.76175e-05 0)
(2.16138 -0.000953735 0)
(2.14819 2.28843e-05 0)
(2.0935 0.00135546 0)
(2.07677 -0.00045634 0)
(2.02522 0.00214431 0)
(1.99767 0.000694367 0)
(1.94337 0.000730238 0)
(1.90961 0.00933557 0)
(1.72894 -0.052637 0)
(10.0877 0.838299 0)
(9.65465 0.868461 0)
(8.87436 0.506456 0)
(8.08166 0.261176 0)
(7.49205 0.139019 0)
(7.00949 0.0809835 0)
(6.69947 0.0541302 0)
(6.38978 0.0435227 0)
(6.23997 0.0259635 0)
(6.00962 0.0265453 0)
(5.93722 0.020119 0)
(5.7685 0.0153197 0)
(5.72761 0.015167 0)
(5.58532 0.0199933 0)
(5.55432 0.0123045 0)
(5.41888 0.0219536 0)
(5.38146 0.0197546 0)
(5.2386 0.0198462 0)
(5.19071 0.0392481 0)
(5.00294 -0.0111707 0)
(10.07 0.631238 0)
(10.6518 0.864867 0)
(10.8734 0.600197 0)
(10.6899 0.373252 0)
(10.4547 0.256998 0)
(10.0902 0.194219 0)
(9.8423 0.154321 0)
(9.48058 0.126838 0)
(9.33827 0.0878229 0)
(9.01215 0.0815855 0)
(8.9416 0.0600068 0)
(8.68915 0.0493465 0)
(8.64622 0.0433953 0)
(8.43502 0.048659 0)
(8.41597 0.0343594 0)
(8.20558 0.0480324 0)
(8.1982 0.0452143 0)
(7.97639 0.051705 0)
(7.93855 0.072413 0)
(7.74309 0.00563545 0)
(10.0153 0.457121 0)
(10.5563 0.707845 0)
(11.1734 0.543167 0)
(11.377 0.352992 0)
(11.5532 0.26282 0)
(11.4618 0.223365 0)
(11.5024 0.203541 0)
(11.2807 0.181205 0)
(11.3251 0.137933 0)
(11.0543 0.135456 0)
(11.0956 0.104879 0)
(10.8528 0.0907856 0)
(10.8761 0.0807804 0)
(10.6509 0.0853021 0)
(10.6911 0.0635506 0)
(10.4347 0.083825 0)
(10.5002 0.069301 0)
(10.2224 0.100559 0)
(10.2263 0.0924562 0)
(10.0027 0.133143 0)
(10.0641 0.345392 0)
(10.3878 0.572255 0)
(11.0417 0.45504 0)
(11.3085 0.297981 0)
(11.6656 0.211447 0)
(11.6641 0.184241 0)
(11.9057 0.182648 0)
(11.8015 0.176485 0)
(12.0092 0.131916 0)
(11.872 0.149167 0)
(12.0556 0.107386 0)
(11.9124 0.10693 0)
(12.0459 0.089237 0)
(11.9111 0.107543 0)
(12.0445 0.0725903 0)
(11.8401 0.113284 0)
(11.9851 0.0760609 0)
(11.7814 0.142955 0)
(11.8113 0.0978318 0)
(11.6615 0.190692 0)
(10.0787 0.251493 0)
(10.3121 0.463192 0)
(10.888 0.367747 0)
(11.1701 0.245472 0)
(11.5586 0.168998 0)
(11.5812 0.142048 0)
(11.8229 0.148724 0)
(11.8286 0.150542 0)
(12.0033 0.102375 0)
(11.9757 0.129301 0)
(12.168 0.0913938 0)
(12.1416 0.0908177 0)
(12.2677 0.080074 0)
(12.2794 0.0893136 0)
(12.4261 0.0746367 0)
(12.3514 0.099795 0)
(12.488 0.0798551 0)
(12.451 0.124786 0)
(12.4794 0.113987 0)
(12.4475 0.0902597 0)
(10.0466 0.169149 0)
(10.2976 0.367149 0)
(10.7449 0.282283 0)
(11.0731 0.201934 0)
(11.4297 0.126118 0)
(11.5471 0.108094 0)
(11.6753 0.102433 0)
(11.7784 0.124044 0)
(11.8752 0.0805655 0)
(11.9328 0.10722 0)
(12.0806 0.0615655 0)
(12.1109 0.0780333 0)
(12.1613 0.0592629 0)
(12.2777 0.062715 0)
(12.3951 0.0566108 0)
(12.3771 0.0893739 0)
(12.4944 0.0588587 0)
(12.5045 0.104051 0)
(12.5996 0.0773275 0)
(12.5662 0.0412831 0)
(9.98851 0.10592 0)
(10.2861 0.268914 0)
(10.6492 0.204083 0)
(11.0409 0.139188 0)
(11.2972 0.0872949 0)
(11.5442 0.0794219 0)
(11.6214 0.0778778 0)
(11.6714 0.087914 0)
(11.7933 0.0483464 0)
(11.8927 0.0748936 0)
(12.0116 0.0465801 0)
(12.0436 0.0646619 0)
(12.1061 0.0426434 0)
(12.216 0.029293 0)
(12.2689 0.0490678 0)
(12.3473 0.066988 0)
(12.43 0.0398105 0)
(12.438 0.0654168 0)
(12.5503 0.0451447 0)
(12.4442 0.0440576 0)
(9.99287 0.0578833 0)
(10.2358 0.16438 0)
(10.6284 0.121248 0)
(11.0025 0.0875086 0)
(11.2295 0.0475304 0)
(11.5087 0.0310445 0)
(11.5664 0.0646095 0)
(11.6653 0.0607752 0)
(11.7673 0.0171874 0)
(11.8191 0.040637 0)
(11.9199 0.0296618 0)
(12.0044 0.045573 0)
(12.1312 0.027564 0)
(12.1354 0.01563 0)
(12.2013 0.0257258 0)
(12.3398 0.0395589 0)
(12.3888 0.0271119 0)
(12.412 0.0336058 0)
(12.4457 0.0251538 0)
(12.3613 0.0136909 0)
(10.0252 0.015374 0)
(10.184 0.0643804 0)
(10.623 0.0338292 0)
(10.9569 0.0274836 0)
(11.2641 0.0136114 0)
(11.4287 0.00808528 0)
(11.5433 0.0320433 0)
(11.6563 0.0164504 0)
(11.7382 -0.00232462 0)
(11.8037 0.0286458 0)
(11.884 0.00315991 0)
(11.9815 0.00576112 0)
(12.106 0.0197398 0)
(12.1321 0.00925952 0)
(12.1904 -0.00244246 0)
(12.2911 0.0082776 0)
(12.3874 0.00952878 0)
(12.383 0.0145792 0)
(12.4047 0.00671724 0)
(12.3418 -0.0168981 0)
(9.99192 -0.0232239 0)
(10.2128 -0.0340401 0)
(10.6389 -0.0528985 0)
(10.9517 -0.0353201 0)
(11.2267 -0.0170535 0)
(11.4397 -0.0235049 0)
(11.5572 0.00212176 0)
(11.6589 -0.0100556 0)
(11.7221 -0.0323339 0)
(11.812 -0.00686764 0)
(11.9265 -0.0119499 0)
(11.9651 -0.0138233 0)
(12.0664 -0.00176878 0)
(12.1702 -0.00847972 0)
(12.2108 -0.0163793 0)
(12.2707 -0.0201664 0)
(12.3569 -0.00955615 0)
(12.3942 -0.00531067 0)
(12.4134 -0.0175989 0)
(12.3661 -0.0391498 0)
(9.9823 -0.0641544 0)
(10.2488 -0.146374 0)
(10.6434 -0.131779 0)
(10.9705 -0.08311 0)
(11.2679 -0.0534097 0)
(11.4677 -0.0588471 0)
(11.5457 -0.0298622 0)
(11.714 -0.047994 0)
(11.7597 -0.053145 0)
(11.8141 -0.0326211 0)
(11.9326 -0.0315766 0)
(11.9918 -0.0344316 0)
(12.0784 -0.0232952 0)
(12.1795 -0.0285085 0)
(12.2501 -0.029916 0)
(12.28 -0.0393238 0)
(12.3668 -0.0352955 0)
(12.4237 -0.0340998 0)
(12.4545 -0.0377427 0)
(12.3915 -0.049949 0)
(10.0011 -0.114522 0)
(10.2665 -0.245615 0)
(10.664 -0.210125 0)
(11.0329 -0.152531 0)
(11.3351 -0.0901002 0)
(11.4971 -0.0803383 0)
(11.6034 -0.0654673 0)
(11.733 -0.0838021 0)
(11.7838 -0.06849 0)
(11.8649 -0.0611623 0)
(11.9793 -0.0527406 0)
(12.0512 -0.0545999 0)
(12.1173 -0.0402698 0)
(12.2229 -0.0546738 0)
(12.2977 -0.0430116 0)
(12.3381 -0.05823 0)
(12.3971 -0.0591283 0)
(12.4587 -0.0616153 0)
(12.516 -0.0677771 0)
(12.4421 -0.0603747 0)
(10.0253 -0.17331 0)
(10.2848 -0.350369 0)
(10.7659 -0.296634 0)
(11.1146 -0.203723 0)
(11.3969 -0.122272 0)
(11.5451 -0.117497 0)
(11.6755 -0.0981475 0)
(11.7761 -0.113369 0)
(11.8722 -0.0938741 0)
(11.9419 -0.0922302 0)
(12.0589 -0.074217 0)
(12.1159 -0.0759823 0)
(12.1998 -0.0569994 0)
(12.28 -0.0776171 0)
(12.3458 -0.0573595 0)
(12.3981 -0.0769439 0)
(12.4698 -0.0754245 0)
(12.5294 -0.0985761 0)
(12.5612 -0.0931475 0)
(12.5057 -0.0876341 0)
(10.0635 -0.250367 0)
(10.3135 -0.453096 0)
(10.9099 -0.383765 0)
(11.1749 -0.247425 0)
(11.5299 -0.16187 0)
(11.6012 -0.152119 0)
(11.8028 -0.134321 0)
(11.8311 -0.148229 0)
(11.9914 -0.11984 0)
(11.9974 -0.117925 0)
(12.1591 -0.0935139 0)
(12.143 -0.0969835 0)
(12.2722 -0.0749883 0)
(12.2867 -0.0978335 0)
(12.3834 -0.0695529 0)
(12.3711 -0.101314 0)
(12.4686 -0.0932823 0)
(12.454 -0.124805 0)
(12.4812 -0.111522 0)
(12.3779 -0.130082 0)
(10.0599 -0.345656 0)
(10.3935 -0.56599 0)
(11.0648 -0.468722 0)
(11.2888 -0.289206 0)
(11.6617 -0.21042 0)
(11.6584 -0.193404 0)
(11.8954 -0.174785 0)
(11.8163 -0.171575 0)
(12.0011 -0.146671 0)
(11.8852 -0.137086 0)
(12.0478 -0.112976 0)
(11.9064 -0.107551 0)
(12.0483 -0.0911321 0)
(11.9087 -0.106916 0)
(12.0193 -0.0786564 0)
(11.8641 -0.106819 0)
(11.9494 -0.0962844 0)
(11.7846 -0.132082 0)
(11.7947 -0.114974 0)
(11.5757 -0.151683 0)
(10.0129 -0.456344 0)
(10.5647 -0.705592 0)
(11.1771 -0.550071 0)
(11.3583 -0.348484 0)
(11.5687 -0.262296 0)
(11.444 -0.229298 0)
(11.5109 -0.197339 0)
(11.283 -0.178704 0)
(11.3183 -0.148846 0)
(11.0559 -0.128707 0)
(11.1001 -0.104378 0)
(10.8325 -0.0947521 0)
(10.8955 -0.0799373 0)
(10.624 -0.0873177 0)
(10.6999 -0.0640886 0)
(10.4219 -0.087319 0)
(10.4878 -0.0743113 0)
(10.1984 -0.112068 0)
(10.2123 -0.0875259 0)
(9.88636 -0.155081 0)
(10.0664 -0.631628 0)
(10.6592 -0.863192 0)
(10.8693 -0.603461 0)
(10.6847 -0.370903 0)
(10.4657 -0.256262 0)
(10.0739 -0.197936 0)
(9.85285 -0.151854 0)
(9.47904 -0.123726 0)
(9.33379 -0.0950575 0)
(9.00973 -0.0772818 0)
(8.94922 -0.0595405 0)
(8.66772 -0.0520498 0)
(8.66903 -0.0435881 0)
(8.39965 -0.0486912 0)
(8.44104 -0.0367572 0)
(8.16726 -0.0493873 0)
(8.21239 -0.0484315 0)
(7.91705 -0.0671009 0)
(7.9269 -0.0653788 0)
(7.58994 -0.0833388 0)
(10.0856 -0.838408 0)
(9.65839 -0.86766 0)
(8.87058 -0.507762 0)
(8.08044 -0.260632 0)
(7.49779 -0.138061 0)
(6.99977 -0.0832438 0)
(6.70575 -0.0531588 0)
(6.38839 -0.04104 0)
(6.23796 -0.030152 0)
(6.00597 -0.0249904 0)
(5.94294 -0.0185998 0)
(5.75444 -0.0175752 0)
(5.74216 -0.0149433 0)
(5.55886 -0.0199404 0)
(5.57373 -0.0138755 0)
(5.38306 -0.0221607 0)
(5.39667 -0.0223949 0)
(5.17607 -0.0312628 0)
(5.17162 -0.035104 0)
(4.8885 -0.0155055 0)
(8.09154 -0.387986 0)
(5.45031 -0.24244 0)
(3.91041 -0.0430999 0)
(3.15628 0.0156246 0)
(2.80282 0.0183009 0)
(2.59592 0.0106949 0)
(2.48626 0.00599911 0)
(2.37685 0.00221804 0)
(2.32298 0.0015545 0)
(2.24378 0.000378584 0)
(2.22037 0.000779778 0)
(2.15773 7.65911e-05 0)
(2.15087 0.000372459 0)
(2.08417 -0.00152904 0)
(2.08117 0.000262444 0)
(2.01021 -0.00211467 0)
(1.99998 -0.00141047 0)
(1.9091 -0.00357175 0)
(1.87599 -0.00346031 0)
(1.73308 0.0112669 0)
(2.11857 0.0157573 0)
(2.2175 0.206344 0)
(2.5903 0.146612 0)
(2.89374 0.0378807 0)
(3.09705 -0.0585039 0)
(3.18331 -0.123067 0)
(3.19351 -0.136207 0)
(3.17104 -0.106564 0)
(3.16088 -0.0590812 0)
(3.16069 -0.0141534 0)
(3.19916 0.0167619 0)
(3.24517 0.0406581 0)
(3.32413 0.0373175 0)
(3.4107 0.0316715 0)
(3.48791 0.0271434 0)
(3.56203 0.018232 0)
(3.64186 0.00926287 0)
(3.70654 0.0013901 0)
(3.77219 0.00900637 0)
(3.82676 0.0182464 0)
(3.89562 0.0236564 0)
(3.96971 0.0257824 0)
(4.05148 0.0198675 0)
(4.14448 0.00701657 0)
(4.24303 -0.0120595 0)
(4.34174 -0.0405156 0)
(4.4472 -0.0799097 0)
(4.53819 -0.142708 0)
(4.63649 -0.219082 0)
(4.68027 -0.299162 0)
(4.72985 -0.388367 0)
(4.72276 -0.467144 0)
(4.7013 -0.543979 0)
(4.61299 -0.595162 0)
(4.50169 -0.586447 0)
(4.31861 -0.476933 0)
(4.24976 -0.288925 0)
(4.15707 -0.03905 0)
(4.15678 0.176345 0)
(4.19191 0.323035 0)
(4.27761 0.479708 0)
(4.58679 0.557689 0)
(4.92076 0.551204 0)
(5.23522 0.567497 0)
(5.55299 0.531876 0)
(5.82313 0.427605 0)
(6.06999 0.346056 0)
(6.27145 0.247666 0)
(6.48374 0.145938 0)
(6.61772 0.0594213 0)
(6.64374 -0.0413523 0)
(6.82861 -0.167766 0)
(6.85341 -0.220305 0)
(7.00114 -0.298746 0)
(7.1515 -0.389066 0)
(7.25807 -0.443599 0)
(7.43048 -0.55535 0)
(7.59375 -0.666108 0)
(7.72744 -0.781841 0)
(7.90245 -0.875262 0)
(8.06521 -0.99759 0)
(8.2946 -1.14772 0)
(8.41945 -1.25616 0)
(8.77209 -1.38958 0)
(8.95666 -1.50191 0)
(9.32371 -1.72998 0)
(9.57887 -1.88298 0)
(9.98617 -1.9987 0)
(10.2941 -2.15264 0)
(10.743 -2.30345 0)
(11.0583 -2.51106 0)
(11.4548 -2.63809 0)
(11.7562 -2.78076 0)
(12.1153 -2.92663 0)
(12.3265 -3.01422 0)
(12.5795 -3.09939 0)
(12.7282 -3.12533 0)
(12.8621 -3.17097 0)
(12.9644 -3.16656 0)
(12.9654 -3.15008 0)
(13.0434 -3.118 0)
(12.9963 -3.07314 0)
(13.012 -2.96922 0)
(12.9582 -2.83148 0)
(12.9561 -2.69992 0)
(12.8453 -2.46273 0)
(12.8495 -2.21353 0)
(12.7506 -1.89903 0)
(12.6987 -1.55264 0)
(12.624 -1.15753 0)
(12.615 -0.710581 0)
(12.5199 -0.235204 0)
(12.5617 0.237555 0)
(12.5287 0.725681 0)
(12.5783 1.1173 0)
(12.6725 1.52794 0)
(12.7868 1.87088 0)
(12.9681 2.13726 0)
(13.0245 2.43858 0)
(13.1968 2.55553 0)
(13.1885 2.69421 0)
(13.2495 2.66202 0)
(13.2445 2.59065 0)
(13.1499 2.41853 0)
(13.1546 2.14056 0)
(12.9672 1.84934 0)
(12.9273 1.42238 0)
(12.7436 1.008 0)
(12.6981 0.479291 0)
(12.5145 -0.0217011 0)
(12.4217 -0.559304 0)
(12.194 -1.10763 0)
(11.9362 -1.59586 0)
(11.6313 -2.10171 0)
(11.1657 -2.5096 0)
(10.7087 -2.80584 0)
(10.1228 -2.94127 0)
(9.50174 -3.07418 0)
(8.85212 -2.91763 0)
(8.17675 -2.57693 0)
(7.82685 -2.73333 0)
(7.58198 -2.85893 0)
(7.20631 -2.28321 0)
(6.85335 -2.1637 0)
(6.7567 -2.86939 0)
(6.33924 -2.90961 0)
(5.66187 -1.68633 0)
(5.2289 -0.516424 0)
(4.85394 -0.755453 0)
(4.64749 -1.58473 0)
(4.5929 -2.96099 0)
(4.43054 -4.77811 0)
(4.4205 -6.85854 0)
(4.48375 -8.20215 0)
(4.42385 -8.65207 0)
(4.4666 -8.42047 0)
(4.68428 -7.92407 0)
(4.58763 -7.66565 0)
(4.89986 -7.22112 0)
(5.01131 -6.7263 0)
(5.24227 -6.05786 0)
(5.21185 -5.47144 0)
(5.28339 -4.88689 0)
(5.55813 -4.06028 0)
(5.83916 -2.97238 0)
(6.15395 -1.84492 0)
(6.58426 -0.739984 0)
(7.00052 0.425621 0)
(7.3556 1.67668 0)
(7.75708 2.91381 0)
(8.06748 4.01195 0)
(8.39168 4.75408 0)
(8.48408 5.12945 0)
(8.83375 5.66561 0)
(9.2687 6.18392 0)
(9.61464 6.75088 0)
(10.2907 7.44308 0)
(10.4693 7.76587 0)
(10.3947 7.78386 0)
(10.5501 7.7324 0)
(10.3079 7.1069 0)
(9.96129 6.84523 0)
(10.7389 6.75352 0)
(9.8935 5.95345 0)
(9.80664 5.5364 0)
(10.9874 5.60086 0)
(9.26161 4.4844 0)
(9.96153 3.94897 0)
(9.34211 3.66611 0)
(8.65745 2.95689 0)
(9.24325 2.753 0)
(7.43229 2.13599 0)
(8.65818 1.82016 0)
(6.78331 1.73214 0)
(8.07638 1.7044 0)
(6.34384 1.76923 0)
(7.24538 1.91634 0)
(6.18196 2.01399 0)
(6.52242 2.18833 0)
(6.63851 2.55361 0)
(6.55581 3.19455 0)
(7.16502 3.5732 0)
(6.2467 3.31245 0)
(6.73817 3.07898 0)
(5.441 2.75716 0)
(5.51083 2.47573 0)
(4.86607 2.32172 0)
(4.49697 2.27687 0)
(4.70848 2.12879 0)
(3.51049 2.11075 0)
(4.7966 1.86614 0)
(2.66237 1.87053 0)
(5.33217 1.39965 0)
(2.57241 1.57127 0)
(5.92629 0.774082 0)
(2.80515 1.25984 0)
(6.25639 0.159396 0)
(3.43925 1.21645 0)
(5.98489 0.0594969 0)
(4.08715 2.11488 0)
(5.14275 0.0514602 0)
(5.10921 0.139556 0)
(5.16631 0.102039 0)
(5.30116 -0.0031867 0)
(5.42659 -0.105393 0)
(5.52313 -0.168449 0)
(5.56166 -0.179588 0)
(5.57071 -0.156866 0)
(5.56387 -0.118462 0)
(5.57071 -0.0824919 0)
(5.58625 -0.0593941 0)
(5.6254 -0.0405062 0)
(5.67501 -0.0399725 0)
(5.73327 -0.0380009 0)
(5.79932 -0.0435172 0)
(5.8514 -0.0484812 0)
(5.91557 -0.0513071 0)
(5.97136 -0.0594326 0)
(6.02646 -0.0559455 0)
(6.08812 -0.0548785 0)
(6.13956 -0.0506638 0)
(6.21012 -0.0555355 0)
(6.27877 -0.0581145 0)
(6.36122 -0.0758757 0)
(6.44551 -0.0930895 0)
(6.5362 -0.124027 0)
(6.61991 -0.166911 0)
(6.70842 -0.217571 0)
(6.78297 -0.292591 0)
(6.83758 -0.35194 0)
(6.88166 -0.431435 0)
(6.88408 -0.48459 0)
(6.87616 -0.525417 0)
(6.82295 -0.532677 0)
(6.78963 -0.48003 0)
(6.66512 -0.373633 0)
(6.63796 -0.217831 0)
(6.52471 -0.05919 0)
(6.50974 0.101891 0)
(6.56808 0.256713 0)
(6.57117 0.389499 0)
(6.70415 0.464979 0)
(6.85142 0.495247 0)
(6.97403 0.4562 0)
(7.09908 0.420401 0)
(7.25938 0.364916 0)
(7.426 0.280577 0)
(7.51797 0.194982 0)
(7.6033 0.0603174 0)
(7.7409 -0.0255483 0)
(7.7194 -0.111814 0)
(7.89358 -0.254191 0)
(7.96646 -0.320115 0)
(8.08966 -0.396003 0)
(8.26221 -0.523178 0)
(8.42761 -0.5892 0)
(8.61148 -0.679826 0)
(8.79972 -0.819996 0)
(9.0201 -0.933528 0)
(9.22781 -1.03362 0)
(9.48528 -1.20735 0)
(9.71946 -1.3254 0)
(10.004 -1.46817 0)
(10.3173 -1.63674 0)
(10.5926 -1.80485 0)
(10.9169 -1.96745 0)
(11.25 -2.13745 0)
(11.5583 -2.26516 0)
(11.8311 -2.44509 0)
(12.1405 -2.59067 0)
(12.3717 -2.78741 0)
(12.6394 -2.86628 0)
(12.7843 -3.00471 0)
(13.0075 -3.09304 0)
(13.0204 -3.11641 0)
(13.1722 -3.18334 0)
(13.1216 -3.15605 0)
(13.1326 -3.16391 0)
(13.0873 -3.13947 0)
(13.0272 -3.09917 0)
(13.0037 -3.05186 0)
(12.9298 -2.97937 0)
(12.8972 -2.87683 0)
(12.8453 -2.75938 0)
(12.8407 -2.61917 0)
(12.7716 -2.39083 0)
(12.7617 -2.14703 0)
(12.7071 -1.84046 0)
(12.6893 -1.49151 0)
(12.6524 -1.0994 0)
(12.6692 -0.641789 0)
(12.5668 -0.216345 0)
(12.6475 0.220827 0)
(12.5505 0.710304 0)
(12.6869 1.0544 0)
(12.6341 1.49874 0)
(12.7958 1.79008 0)
(12.9066 2.04507 0)
(12.9525 2.33058 0)
(13.1647 2.43959 0)
(13.1466 2.61414 0)
(13.2958 2.58694 0)
(13.2934 2.57781 0)
(13.2927 2.41025 0)
(13.2692 2.20521 0)
(13.1905 1.88469 0)
(13.0931 1.51813 0)
(12.9729 1.10803 0)
(12.8329 0.62466 0)
(12.6569 0.110273 0)
(12.4902 -0.399562 0)
(12.153 -0.887029 0)
(11.8574 -1.3777 0)
(11.4125 -1.75527 0)
(10.9008 -2.12718 0)
(10.3941 -2.361 0)
(9.75715 -2.4036 0)
(9.19818 -2.56827 0)
(8.58038 -2.38391 0)
(8.1859 -2.20514 0)
(7.918 -2.53712 0)
(7.7182 -2.59216 0)
(7.30011 -1.97461 0)
(7.00772 -2.00262 0)
(6.8419 -2.67207 0)
(6.37519 -2.44943 0)
(5.63726 -1.10523 0)
(5.14969 -0.173263 0)
(4.66821 -0.461173 0)
(4.37433 -1.48095 0)
(4.32871 -2.85417 0)
(3.96875 -4.75096 0)
(3.93969 -6.81197 0)
(3.83811 -8.0383 0)
(3.79855 -8.66687 0)
(3.9919 -8.32722 0)
(4.14819 -7.90164 0)
(4.1102 -7.80622 0)
(4.36437 -7.30702 0)
(4.36451 -6.81361 0)
(4.65722 -6.14628 0)
(4.58237 -5.55546 0)
(4.68942 -4.99494 0)
(4.8166 -4.1674 0)
(4.99076 -3.21804 0)
(5.27524 -2.20328 0)
(5.67236 -1.09905 0)
(6.03747 0.180292 0)
(6.30317 1.38805 0)
(6.69039 2.59938 0)
(7.1086 3.7422 0)
(7.30808 4.55509 0)
(7.61777 4.90889 0)
(7.94173 5.39174 0)
(8.27693 5.80252 0)
(8.76423 6.33491 0)
(9.36372 7.015 0)
(9.74321 7.45064 0)
(10.0126 7.70352 0)
(9.75803 7.61306 0)
(10.0499 7.36639 0)
(9.63834 6.88981 0)
(9.6649 6.64441 0)
(10.4669 6.44453 0)
(9.17059 5.34945 0)
(10.124 5.42932 0)
(10.3078 5.21102 0)
(8.76267 3.98372 0)
(10.2653 3.90198 0)
(8.73986 3.32529 0)
(9.39432 2.77438 0)
(8.50042 2.52416 0)
(8.16618 2.07868 0)
(8.52066 1.91347 0)
(7.45694 2.0514 0)
(8.33482 1.98658 0)
(6.89429 2.16417 0)
(7.91363 2.12261 0)
(6.35539 2.22344 0)
(7.33364 2.46081 0)
(6.5653 3.04113 0)
(7.28469 3.3476 0)
(7.4757 3.43248 0)
(6.57821 3.46714 0)
(7.84419 3.13439 0)
(5.15176 2.98898 0)
(7.7059 2.51076 0)
(4.0222 2.52561 0)
(7.69131 1.90996 0)
(3.59728 2.55331 0)
(7.9673 1.71458 0)
(3.87198 2.33468 0)
(8.05419 0.837739 0)
(4.3761 1.90478 0)
(8.03438 0.242353 0)
(5.1553 1.41856 0)
(7.94478 -0.372866 0)
(5.80407 1.00664 0)
(7.5851 -0.28368 0)
(6.60352 1.57027 0)
(7.76404 4.83188e-05 0)
(7.78007 0.0228113 0)
(7.79098 0.0100824 0)
(7.8737 -0.0453918 0)
(7.96563 -0.108473 0)
(8.05604 -0.145338 0)
(8.09344 -0.156338 0)
(8.10677 -0.147798 0)
(8.08683 -0.118528 0)
(8.08784 -0.0898125 0)
(8.08726 -0.0726275 0)
(8.10286 -0.0510932 0)
(8.14258 -0.0577458 0)
(8.16182 -0.0542638 0)
(8.22581 -0.0602295 0)
(8.24587 -0.0765033 0)
(8.30424 -0.0692354 0)
(8.33792 -0.0915218 0)
(8.37987 -0.0878315 0)
(8.43543 -0.0932733 0)
(8.46833 -0.097856 0)
(8.54283 -0.0950476 0)
(8.57644 -0.110255 0)
(8.6665 -0.123597 0)
(8.70408 -0.145459 0)
(8.79267 -0.182972 0)
(8.8355 -0.220735 0)
(8.90545 -0.26718 0)
(8.95748 -0.325458 0)
(8.98201 -0.374843 0)
(9.03329 -0.429735 0)
(8.99842 -0.466894 0)
(9.01902 -0.48275 0)
(8.9453 -0.466809 0)
(8.93577 -0.423938 0)
(8.83901 -0.327144 0)
(8.79064 -0.211571 0)
(8.75455 -0.0642007 0)
(8.70278 0.0934982 0)
(8.77896 0.221394 0)
(8.78267 0.345499 0)
(8.87234 0.406721 0)
(8.96316 0.426592 0)
(9.05104 0.405325 0)
(9.17502 0.375704 0)
(9.23317 0.310591 0)
(9.34161 0.203085 0)
(9.43093 0.141295 0)
(9.49289 0.0160137 0)
(9.59654 -0.093599 0)
(9.6182 -0.179747 0)
(9.70774 -0.301835 0)
(9.82322 -0.422973 0)
(9.92018 -0.509912 0)
(10.0732 -0.610788 0)
(10.2283 -0.744647 0)
(10.4273 -0.825641 0)
(10.595 -0.957895 0)
(10.8323 -1.08533 0)
(11.0152 -1.21749 0)
(11.2675 -1.36435 0)
(11.4758 -1.50996 0)
(11.7257 -1.66089 0)
(11.9269 -1.83363 0)
(12.1801 -1.99796 0)
(12.3553 -2.1525 0)
(12.5801 -2.31389 0)
(12.7135 -2.48908 0)
(12.8838 -2.6178 0)
(12.9697 -2.74722 0)
(13.1028 -2.89502 0)
(13.1503 -2.94888 0)
(13.2066 -3.07188 0)
(13.2203 -3.10473 0)
(13.1272 -3.1216 0)
(13.1356 -3.16293 0)
(12.9816 -3.12231 0)
(12.9272 -3.11335 0)
(12.8476 -3.08844 0)
(12.7996 -3.04835 0)
(12.7788 -3.03343 0)
(12.7431 -2.93961 0)
(12.7489 -2.87727 0)
(12.7924 -2.75864 0)
(12.7954 -2.58787 0)
(12.8365 -2.3957 0)
(12.8539 -2.10146 0)
(12.9159 -1.83258 0)
(12.9085 -1.45217 0)
(12.9424 -1.08399 0)
(12.9138 -0.623976 0)
(12.9041 -0.211018 0)
(12.913 0.236024 0)
(12.8531 0.706689 0)
(12.9173 1.08569 0)
(12.7983 1.52117 0)
(12.9268 1.78281 0)
(12.8365 2.06989 0)
(12.9262 2.25526 0)
(12.9619 2.40384 0)
(12.9562 2.52916 0)
(13.0545 2.53693 0)
(13.0514 2.50182 0)
(13.048 2.38657 0)
(13.0328 2.19065 0)
(12.9436 1.92952 0)
(12.8515 1.56471 0)
(12.7712 1.17544 0)
(12.4941 0.770735 0)
(12.3974 0.258948 0)
(12.0926 -0.16487 0)
(11.7674 -0.656272 0)
(11.4392 -1.07023 0)
(10.952 -1.37558 0)
(10.4583 -1.69579 0)
(9.92841 -1.82423 0)
(9.45206 -1.9278 0)
(8.90433 -2.07168 0)
(8.52521 -2.063 0)
(8.22044 -1.98252 0)
(8.00635 -2.37375 0)
(7.82524 -2.38636 0)
(7.35999 -1.72813 0)
(7.16027 -1.80893 0)
(6.92232 -2.4111 0)
(6.36532 -1.86963 0)
(5.65174 -0.532064 0)
(5.06999 0.255813 0)
(4.43692 -0.156371 0)
(4.12313 -1.3453 0)
(3.991 -2.74628 0)
(3.59766 -4.69871 0)
(3.47989 -6.62708 0)
(3.30876 -8.12831 0)
(3.3273 -8.74226 0)
(3.47446 -8.39485 0)
(3.65266 -8.08089 0)
(3.57649 -7.83835 0)
(3.77766 -7.28659 0)
(3.84141 -6.92101 0)
(4.16513 -6.14497 0)
(4.09435 -5.4685 0)
(4.11287 -4.95194 0)
(4.17836 -4.16875 0)
(4.10862 -3.36347 0)
(4.2498 -2.40397 0)
(4.54155 -1.25934 0)
(4.85055 0.00170359 0)
(5.18223 1.17198 0)
(5.51759 2.28894 0)
(5.96558 3.48266 0)
(6.24823 4.27159 0)
(6.63537 4.76606 0)
(6.91031 5.0575 0)
(7.27952 5.46754 0)
(7.84295 6.02653 0)
(8.3705 6.6872 0)
(8.87327 7.22622 0)
(9.26148 7.61725 0)
(9.28651 7.52351 0)
(9.27366 7.28991 0)
(9.66496 7.00104 0)
(8.87119 6.32249 0)
(9.39993 6.25766 0)
(9.96295 5.64507 0)
(8.49514 4.8655 0)
(10.3838 5.14404 0)
(9.21607 4.30161 0)
(9.14892 3.51142 0)
(9.83219 3.53035 0)
(8.55875 3.23528 0)
(9.67367 2.7203 0)
(7.84482 2.27452 0)
(9.03359 2.04701 0)
(7.7911 2.02612 0)
(8.47254 2.11452 0)
(7.87621 2.31582 0)
(7.76247 2.4942 0)
(7.9957 2.48483 0)
(6.74108 2.74489 0)
(8.25081 2.78986 0)
(6.32419 3.37043 0)
(9.18676 3.17679 0)
(6.13151 3.662 0)
(9.79454 3.12836 0)
(5.8531 3.50445 0)
(9.47933 2.37875 0)
(5.83126 3.12534 0)
(9.15692 1.89901 0)
(5.7574 2.78789 0)
(8.75588 1.25425 0)
(6.1152 2.39106 0)
(8.33261 0.618293 0)
(6.21897 1.72781 0)
(8.00282 -0.0362857 0)
(6.45421 1.1737 0)
(8.00584 -0.148859 0)
(6.89587 1.0627 0)
(8.00031 0.142882 0)
(7.0424 0.966801 0)
(9.9836 -0.0617758 0)
(10.0322 -0.151832 0)
(10.0595 -0.180051 0)
(10.1293 -0.175732 0)
(10.2048 -0.170067 0)
(10.2578 -0.168467 0)
(10.2907 -0.162009 0)
(10.2881 -0.15728 0)
(10.2787 -0.131788 0)
(10.2556 -0.112365 0)
(10.2637 -0.0998909 0)
(10.2381 -0.0795019 0)
(10.2916 -0.0935119 0)
(10.2687 -0.0807525 0)
(10.3431 -0.0941665 0)
(10.3452 -0.101677 0)
(10.3905 -0.0982194 0)
(10.43 -0.114401 0)
(10.4275 -0.118996 0)
(10.4972 -0.129113 0)
(10.4829 -0.14027 0)
(10.5585 -0.149636 0)
(10.5681 -0.156814 0)
(10.6413 -0.183942 0)
(10.6725 -0.183429 0)
(10.7261 -0.229156 0)
(10.7652 -0.255506 0)
(10.7914 -0.294413 0)
(10.8295 -0.358901 0)
(10.8095 -0.380397 0)
(10.847 -0.444428 0)
(10.7788 -0.450179 0)
(10.7965 -0.464081 0)
(10.7105 -0.427135 0)
(10.6973 -0.38996 0)
(10.6275 -0.296108 0)
(10.5809 -0.183099 0)
(10.566 -0.0787064 0)
(10.5252 0.0818172 0)
(10.5716 0.163356 0)
(10.6128 0.278391 0)
(10.6709 0.325485 0)
(10.7884 0.364323 0)
(10.8742 0.355963 0)
(10.9715 0.310319 0)
(11.0498 0.253728 0)
(11.1256 0.161189 0)
(11.2289 0.0850756 0)
(11.2422 -0.0374 0)
(11.3621 -0.145238 0)
(11.3742 -0.260117 0)
(11.4619 -0.349301 0)
(11.5272 -0.480168 0)
(11.6535 -0.600347 0)
(11.7361 -0.693863 0)
(11.8909 -0.837261 0)
(12.0207 -0.944173 0)
(12.1813 -1.09158 0)
(12.2978 -1.21202 0)
(12.4994 -1.35952 0)
(12.6055 -1.50844 0)
(12.7932 -1.646 0)
(12.8761 -1.828 0)
(13.0329 -1.95234 0)
(13.0744 -2.12366 0)
(13.1933 -2.25724 0)
(13.1628 -2.3952 0)
(13.2546 -2.54447 0)
(13.2114 -2.68144 0)
(13.2101 -2.78185 0)
(13.1771 -2.90588 0)
(13.1237 -2.95327 0)
(13.0674 -3.03668 0)
(12.9383 -3.07588 0)
(12.8346 -3.07039 0)
(12.7563 -3.11744 0)
(12.6551 -3.04277 0)
(12.611 -3.07663 0)
(12.6152 -3.04374 0)
(12.6111 -3.03668 0)
(12.6644 -3.02047 0)
(12.6909 -2.95019 0)
(12.7855 -2.89662 0)
(12.8512 -2.77422 0)
(12.9358 -2.62204 0)
(13.0521 -2.43004 0)
(13.131 -2.18533 0)
(13.2478 -1.88877 0)
(13.2957 -1.54449 0)
(13.3365 -1.11365 0)
(13.3787 -0.675677 0)
(13.4026 -0.232723 0)
(13.3532 0.272106 0)
(13.3852 0.669544 0)
(13.302 1.13914 0)
(13.2208 1.53416 0)
(13.2237 1.82277 0)
(13.0256 2.1047 0)
(13.0211 2.27956 0)
(12.9101 2.40747 0)
(12.8409 2.50304 0)
(12.7664 2.54308 0)
(12.7325 2.50267 0)
(12.6628 2.35225 0)
(12.5849 2.20095 0)
(12.4347 1.97637 0)
(12.3575 1.60266 0)
(12.1481 1.28135 0)
(12.0056 0.8368 0)
(11.7713 0.45999 0)
(11.4568 0.0553124 0)
(11.2225 -0.37799 0)
(10.816 -0.705402 0)
(10.4095 -0.997922 0)
(9.98798 -1.26223 0)
(9.55501 -1.44428 0)
(9.17302 -1.55406 0)
(8.71771 -1.80563 0)
(8.62039 -1.85976 0)
(8.29481 -1.79866 0)
(8.21384 -2.24457 0)
(7.9083 -2.07277 0)
(7.43085 -1.3988 0)
(7.32113 -1.62785 0)
(6.97709 -2.07465 0)
(6.37179 -1.32407 0)
(5.72698 0.0532966 0)
(4.95709 0.817364 0)
(4.33705 0.291491 0)
(3.9749 -1.05464 0)
(3.67405 -2.5891 0)
(3.32334 -4.48582 0)
(2.99775 -6.47549 0)
(2.69345 -8.0649 0)
(2.65934 -8.64021 0)
(2.77495 -8.55446 0)
(2.975 -8.25235 0)
(2.72178 -7.86938 0)
(3.01632 -7.43664 0)
(3.20813 -7.16776 0)
(3.44832 -6.28921 0)
(3.6465 -5.59289 0)
(3.51387 -4.88724 0)
(3.60502 -4.01541 0)
(3.16757 -3.26191 0)
(3.29411 -2.46037 0)
(3.41166 -1.42569 0)
(3.72788 -0.26253 0)
(4.01552 0.857446 0)
(4.39427 1.9809 0)
(4.7806 3.13391 0)
(5.21404 3.90036 0)
(5.69616 4.42687 0)
(5.94096 4.79504 0)
(6.29612 4.95053 0)
(6.97934 5.47706 0)
(7.39845 6.15695 0)
(8.02245 6.75067 0)
(8.42539 7.44425 0)
(8.64223 7.54821 0)
(8.45308 7.13972 0)
(8.97426 7.19683 0)
(9.09518 6.56307 0)
(7.85754 5.80939 0)
(9.94541 5.82453 0)
(8.76524 5.11822 0)
(8.828 4.79215 0)
(10.0132 4.81396 0)
(8.25822 3.80561 0)
(9.84983 3.36826 0)
(8.70469 3.39668 0)
(9.21721 3.04371 0)
(8.86266 2.40015 0)
(8.16849 2.38555 0)
(8.96241 2.14149 0)
(7.58058 2.33074 0)
(9.09518 2.36087 0)
(7.14597 2.56981 0)
(9.28583 2.39404 0)
(6.63211 2.91179 0)
(9.43784 2.57377 0)
(6.4168 3.40407 0)
(9.86845 2.81087 0)
(6.76506 3.74136 0)
(10.103 2.76655 0)
(7.18677 3.76842 0)
(9.89809 2.29067 0)
(7.20742 3.14002 0)
(9.50324 1.76452 0)
(7.44415 2.94383 0)
(9.37447 1.45539 0)
(7.45039 2.31645 0)
(9.04503 0.928586 0)
(7.5316 1.83834 0)
(8.88189 0.600721 0)
(7.46742 1.04287 0)
(8.55073 -0.0572954 0)
(7.61169 0.550007 0)
(8.63914 0.237676 0)
(7.85384 0.749022 0)
(11.5277 -0.0455911 0)
(11.575 -0.201675 0)
(11.7007 -0.247998 0)
(11.7791 -0.241439 0)
(11.8623 -0.212753 0)
(11.8857 -0.179377 0)
(11.8949 -0.160746 0)
(11.8844 -0.154044 0)
(11.8661 -0.134133 0)
(11.8337 -0.123151 0)
(11.8497 -0.118757 0)
(11.7989 -0.0879767 0)
(11.8506 -0.122175 0)
(11.8075 -0.0870945 0)
(11.8477 -0.121158 0)
(11.8547 -0.123567 0)
(11.8658 -0.117743 0)
(11.9157 -0.148034 0)
(11.9091 -0.132322 0)
(11.969 -0.157419 0)
(11.9655 -0.159213 0)
(12.0008 -0.174171 0)
(12.0058 -0.182976 0)
(12.0259 -0.218271 0)
(12.049 -0.211544 0)
(12.0618 -0.259138 0)
(12.0973 -0.276225 0)
(12.1107 -0.298359 0)
(12.1397 -0.357245 0)
(12.113 -0.353937 0)
(12.1212 -0.418967 0)
(12.038 -0.408858 0)
(12.0147 -0.424027 0)
(11.91 -0.391556 0)
(11.8682 -0.351471 0)
(11.8215 -0.280557 0)
(11.7654 -0.164871 0)
(11.7932 -0.0941051 0)
(11.7604 0.0578391 0)
(11.8145 0.125597 0)
(11.8383 0.209397 0)
(11.9132 0.266636 0)
(11.9879 0.278156 0)
(12.0983 0.273437 0)
(12.1927 0.238052 0)
(12.324 0.206211 0)
(12.3931 0.118967 0)
(12.5246 0.0493033 0)
(12.5437 -0.0828931 0)
(12.6316 -0.165894 0)
(12.6581 -0.3227 0)
(12.6878 -0.411004 0)
(12.7195 -0.536763 0)
(12.7764 -0.67944 0)
(12.8516 -0.774135 0)
(12.893 -0.916073 0)
(13.0238 -1.02889 0)
(13.0748 -1.18454 0)
(13.2063 -1.28638 0)
(13.2667 -1.45767 0)
(13.3637 -1.57633 0)
(13.4048 -1.72961 0)
(13.4422 -1.86747 0)
(13.4391 -1.99137 0)
(13.4175 -2.14149 0)
(13.3725 -2.26954 0)
(13.2818 -2.38274 0)
(13.2147 -2.52428 0)
(13.1258 -2.63358 0)
(13.0527 -2.75297 0)
(12.9542 -2.83989 0)
(12.8628 -2.93384 0)
(12.7069 -2.97645 0)
(12.5914 -2.98872 0)
(12.5116 -3.00405 0)
(12.4886 -3.00416 0)
(12.4766 -3.02848 0)
(12.5027 -3.06916 0)
(12.5761 -3.06628 0)
(12.5918 -3.07531 0)
(12.6877 -3.06131 0)
(12.7532 -3.03453 0)
(12.8648 -2.99549 0)
(12.9626 -2.88494 0)
(13.1077 -2.78349 0)
(13.235 -2.58492 0)
(13.3496 -2.34714 0)
(13.5062 -2.03985 0)
(13.5542 -1.65462 0)
(13.6579 -1.21292 0)
(13.7194 -0.742911 0)
(13.7509 -0.276845 0)
(13.7502 0.24374 0)
(13.7598 0.721003 0)
(13.708 1.13392 0)
(13.6456 1.58217 0)
(13.5388 1.90553 0)
(13.3915 2.16778 0)
(13.2509 2.37665 0)
(13.0421 2.52931 0)
(12.9331 2.58135 0)
(12.6999 2.63015 0)
(12.5626 2.62815 0)
(12.389 2.48498 0)
(12.2559 2.29405 0)
(12.0404 2.07451 0)
(11.8629 1.78005 0)
(11.6224 1.44821 0)
(11.4997 1.02989 0)
(11.1792 0.654207 0)
(11.0179 0.271746 0)
(10.6652 -0.0778091 0)
(10.3889 -0.377674 0)
(10.0482 -0.654637 0)
(9.73177 -0.939135 0)
(9.40034 -1.14148 0)
(9.0561 -1.25578 0)
(8.91562 -1.62015 0)
(8.66306 -1.63518 0)
(8.37141 -1.64254 0)
(8.27106 -2.05625 0)
(7.85718 -1.82892 0)
(7.48395 -1.22048 0)
(7.40217 -1.46693 0)
(7.04159 -1.65044 0)
(6.44392 -0.784789 0)
(5.72677 0.648638 0)
(4.82773 1.38364 0)
(4.18048 0.692739 0)
(3.81294 -0.785983 0)
(3.5016 -2.34464 0)
(3.07429 -4.18535 0)
(2.51648 -6.22098 0)
(2.1882 -7.73813 0)
(1.95915 -8.57881 0)
(2.20909 -8.59519 0)
(2.15777 -8.15228 0)
(2.01011 -7.90864 0)
(2.3885 -7.67993 0)
(2.36313 -7.30806 0)
(2.61497 -6.41583 0)
(2.91513 -5.58601 0)
(2.99384 -4.76653 0)
(2.94394 -3.79741 0)
(2.6664 -3.09006 0)
(2.4219 -2.43964 0)
(2.62181 -1.53725 0)
(2.62379 -0.510068 0)
(2.97867 0.59915 0)
(3.28901 1.7321 0)
(3.69404 2.7446 0)
(4.22972 3.46976 0)
(4.59662 4.1782 0)
(5.0588 4.57375 0)
(5.32283 4.67339 0)
(5.94497 5.24851 0)
(6.52444 5.72024 0)
(6.92322 6.25523 0)
(7.57328 7.12894 0)
(7.90934 7.38832 0)
(7.7711 6.94233 0)
(8.02946 6.91946 0)
(8.94103 6.96411 0)
(7.61244 5.58372 0)
(8.26223 5.40496 0)
(9.59015 5.4355 0)
(7.69297 4.51575 0)
(9.40276 4.40974 0)
(8.46682 3.94762 0)
(8.82956 3.31486 0)
(9.46609 3.21797 0)
(8.18141 3.25521 0)
(9.90849 2.44854 0)
(7.26699 2.54532 0)
(9.86481 1.97616 0)