/*--------------------------------*- C++ -*----------------------------------*\
| =========                 |                                                 |
| \\      /  F ield         | OpenFOAM: The Open Source CFD Toolbox           |
|  \\    /   O peration     | Version:  2.4.0                                 |
|   \\  /    A nd           | Web:      www.OpenFOAM.org                      |
|    \\/     M anipulation  |                                                 |
\*---------------------------------------------------------------------------*/
FoamFile
{
    version     2.0;
    format      ascii;
    class       volVectorField;
    location    "0.32";
    object      U_0;
}
// * * * * * * * * * * * * * * * * * * * * * * * * * * * * * * * * * * * * * //

dimensions      [0 1 -1 0 0 0 0];

internalField   nonuniform List<vector> 
8800
(
(8.09238 0.387842 0)
(5.44926 0.242685 0)
(3.91144 0.0428525 0)
(3.15695 -0.0156721 0)
(2.80082 -0.0178397 0)
(2.5985 -0.011467 0)
(2.48591 -0.00573365 0)
(2.37635 -0.00134751 0)
(2.32264 -0.00285441 0)
(2.24712 0.000102868 0)
(2.21833 -0.000164479 0)
(2.16151 -0.000967111 0)
(2.14818 0.000102869 0)
(2.09342 0.001297 0)
(2.07682 -0.000454391 0)
(2.02531 0.00217672 0)
(1.99767 0.000656286 0)
(1.94322 0.000805774 0)
(1.90972 0.00926266 0)
(1.72924 -0.0526356 0)
(10.0877 0.838307 0)
(9.65453 0.868461 0)
(8.8746 0.506412 0)
(8.08136 0.261243 0)
(7.49227 0.13898 0)
(7.00959 0.0809304 0)
(6.69898 0.0543119 0)
(6.39033 0.0433461 0)
(6.23978 0.0259195 0)
(6.0094 0.0268186 0)
(5.93753 0.0198725 0)
(5.76836 0.015287 0)
(5.72762 0.0154145 0)
(5.58542 0.0198118 0)
(5.55414 0.0122884 0)
(5.41914 0.0220637 0)
(5.38144 0.0196423 0)
(5.2383 0.0200141 0)
(5.19126 0.0390491 0)
(5.00292 -0.0111752 0)
(10.07 0.631264 0)
(10.6516 0.864852 0)
(10.8738 0.600136 0)
(10.6894 0.373391 0)
(10.4549 0.256868 0)
(10.0905 0.194189 0)
(9.84143 0.154588 0)
(9.48152 0.126501 0)
(9.33794 0.0878689 0)
(9.01175 0.0819631 0)
(8.94231 0.0595716 0)
(8.68868 0.0493585 0)
(8.64631 0.0437521 0)
(8.43534 0.0483765 0)
(8.41543 0.0343362 0)
(8.20609 0.0481816 0)
(8.19815 0.0450693 0)
(7.97585 0.0519691 0)
(7.93957 0.0719677 0)
(7.74263 0.00565625 0)
(10.0152 0.45719 0)
(10.5559 0.707746 0)
(11.1742 0.543073 0)
(11.3764 0.353243 0)
(11.5531 0.262559 0)
(11.4625 0.223462 0)
(11.5013 0.203905 0)
(11.2817 0.180583 0)
(11.3249 0.138122 0)
(11.0537 0.13594 0)
(11.0966 0.104259 0)
(10.8521 0.0908795 0)
(10.8763 0.081189 0)
(10.6515 0.0849569 0)
(10.6901 0.0635285 0)
(10.4355 0.0839966 0)
(10.5004 0.0691406 0)
(10.2211 0.10087 0)
(10.2284 0.0919539 0)
(10.0009 0.132481 0)
(10.0641 0.345531 0)
(10.3868 0.572073 0)
(11.0427 0.454956 0)
(11.309 0.29847 0)
(11.6648 0.210819 0)
(11.6648 0.184343 0)
(11.905 0.183257 0)
(11.8015 0.175629 0)
(12.0093 0.13232 0)
(11.8719 0.149655 0)
(12.0563 0.106515 0)
(11.9114 0.107204 0)
(12.0462 0.0896127 0)
(11.9125 0.107183 0)
(12.0428 0.072615 0)
(11.8405 0.113343 0)
(11.9864 0.0761198 0)
(11.779 0.143111 0)
(11.8142 0.0972644 0)
(11.6604 0.190941 0)
(10.0793 0.251804 0)
(10.3107 0.462818 0)
(10.888 0.367202 0)
(11.1719 0.246385 0)
(11.5576 0.168671 0)
(11.5805 0.142012 0)
(11.8244 0.149467 0)
(11.8286 0.149291 0)
(12.002 0.102703 0)
(11.9761 0.130101 0)
(12.1687 0.0905183 0)
(12.1397 0.0910716 0)
(12.2681 0.0802279 0)
(12.2823 0.0891329 0)
(12.4243 0.0749042 0)
(12.3505 0.0993377 0)
(12.4899 0.0800775 0)
(12.4489 0.125298 0)
(12.4821 0.112816 0)
(12.4477 0.0910947 0)
(10.0478 0.169508 0)
(10.2958 0.367145 0)
(10.7431 0.281388 0)
(11.0756 0.202723 0)
(11.4309 0.125965 0)
(11.5448 0.107528 0)
(11.676 0.103152 0)
(11.7792 0.12378 0)
(11.874 0.0808231 0)
(11.9348 0.107263 0)
(12.081 0.0610367 0)
(12.1063 0.0786045 0)
(12.162 0.0585167 0)
(12.2829 0.0625819 0)
(12.3926 0.0578342 0)
(12.3753 0.0887015 0)
(12.4951 0.0588127 0)
(12.5055 0.104287 0)
(12.6036 0.0759801 0)
(12.5585 0.0435725 0)
(9.98861 0.106389 0)
(10.2857 0.269269 0)
(10.6486 0.202386 0)
(11.0412 0.139544 0)
(11.2996 0.0881446 0)
(11.5454 0.0793517 0)
(11.6164 0.0780119 0)
(11.671 0.08685 0)
(11.7964 0.0485278 0)
(11.8952 0.075632 0)
(12.0104 0.0469216 0)
(12.0397 0.0648788 0)
(12.1071 0.0406391 0)
(12.2167 0.0297359 0)
(12.2684 0.0510094 0)
(12.3489 0.0657839 0)
(12.4282 0.0392097 0)
(12.4399 0.0654661 0)
(12.5512 0.046266 0)
(12.4378 0.0466876 0)
(9.99218 0.0583313 0)
(10.2364 0.164593 0)
(10.6297 0.120129 0)
(10.9999 0.0875383 0)
(11.2317 0.0470474 0)
(11.5102 0.0323303 0)
(11.5632 0.0659356 0)
(11.6668 0.0583398 0)
(11.7664 0.016664 0)
(11.8179 0.0419246 0)
(11.921 0.0305639 0)
(12.0075 0.0456528 0)
(12.1293 0.0258123 0)
(12.1307 0.0155932 0)
(12.2055 0.026953 0)
(12.3429 0.0393139 0)
(12.3858 0.0265867 0)
(12.4104 0.033483 0)
(12.4442 0.0258682 0)
(12.367 0.014217 0)
(10.0241 0.0158776 0)
(10.1841 0.064244 0)
(10.6251 0.0328531 0)
(10.9566 0.0277218 0)
(11.264 0.0134739 0)
(11.4268 0.00922807 0)
(11.5443 0.0322905 0)
(11.6573 0.0146601 0)
(11.7369 -0.00138331 0)
(11.8023 0.0290537 0)
(11.8848 0.00210886 0)
(11.9852 0.00685738 0)
(12.1053 0.0198848 0)
(12.1282 0.00788321 0)
(12.1919 -0.00249497 0)
(12.2949 0.00900499 0)
(12.3856 0.00996633 0)
(12.3792 0.0144896 0)
(12.4044 0.00607994 0)
(12.3463 -0.0172697 0)
(9.99072 -0.0225469 0)
(10.2154 -0.0345732 0)
(10.6391 -0.0539053 0)
(10.9485 -0.0347462 0)
(11.2275 -0.0171982 0)
(11.4407 -0.0224959 0)
(11.5577 0.00284781 0)
(11.6583 -0.0120544 0)
(11.7213 -0.0322931 0)
(11.814 -0.00595512 0)
(11.9255 -0.0124511 0)
(11.964 -0.0133043 0)
(12.0692 -0.00154033 0)
(12.1697 -0.00935494 0)
(12.2085 -0.0169486 0)
(12.2716 -0.0194649 0)
(12.3573 -0.00838343 0)
(12.3928 -0.0057222 0)
(12.4138 -0.0190667 0)
(12.3672 -0.0400215 0)
(9.98177 -0.0639886 0)
(10.2509 -0.146835 0)
(10.6422 -0.131368 0)
(10.9693 -0.082958 0)
(11.2694 -0.054545 0)
(11.466 -0.0577811 0)
(11.5478 -0.0291273 0)
(11.7159 -0.0495099 0)
(11.7556 -0.0528091 0)
(11.8144 -0.0320367 0)
(11.9331 -0.0321135 0)
(11.991 -0.0342195 0)
(12.0802 -0.023065 0)
(12.1807 -0.0287624 0)
(12.2477 -0.0303473 0)
(12.2791 -0.0391117 0)
(12.3685 -0.0344358 0)
(12.4242 -0.0340431 0)
(12.4544 -0.0388686 0)
(12.3894 -0.0516055 0)
(10.0009 -0.114251 0)
(10.2663 -0.245886 0)
(10.6638 -0.210382 0)
(11.0343 -0.152688 0)
(11.3353 -0.0901313 0)
(11.4952 -0.0794662 0)
(11.6048 -0.0654778 0)
(11.733 -0.0843813 0)
(11.7814 -0.0681209 0)
(11.8664 -0.061262 0)
(11.9804 -0.053077 0)
(12.0498 -0.0543627 0)
(12.1182 -0.0404568 0)
(12.2247 -0.0546363 0)
(12.2962 -0.0429116 0)
(12.336 -0.0584211 0)
(12.3973 -0.0585251 0)
(12.4609 -0.0615713 0)
(12.5165 -0.0685408 0)
(12.4412 -0.0617637 0)
(10.025 -0.17306 0)
(10.2852 -0.350839 0)
(10.7668 -0.296661 0)
(11.114 -0.203587 0)
(11.396 -0.12249 0)
(11.5445 -0.116891 0)
(11.6764 -0.0978891 0)
(11.7768 -0.113876 0)
(11.8715 -0.0939098 0)
(11.9428 -0.0924288 0)
(12.0592 -0.0742391 0)
(12.1149 -0.0756669 0)
(12.2002 -0.0573353 0)
(12.2798 -0.0774849 0)
(12.3447 -0.0569154 0)
(12.3979 -0.0770537 0)
(12.4707 -0.0755747 0)
(12.5301 -0.0986074 0)
(12.561 -0.0933504 0)
(12.5057 -0.0887333 0)
(10.0634 -0.250132 0)
(10.3139 -0.453568 0)
(10.9098 -0.383811 0)
(11.1742 -0.247192 0)
(11.5297 -0.161883 0)
(11.6009 -0.151714 0)
(11.8035 -0.134507 0)
(11.8316 -0.148545 0)
(11.991 -0.119639 0)
(11.9981 -0.118082 0)
(12.1587 -0.0934373 0)
(12.1419 -0.0968163 0)
(12.2729 -0.075293 0)
(12.2868 -0.0975475 0)
(12.3825 -0.0693574 0)
(12.3717 -0.101807 0)
(12.4696 -0.0931993 0)
(12.454 -0.124525 0)
(12.481 -0.111871 0)
(12.3773 -0.130794 0)
(10.06 -0.345524 0)
(10.3939 -0.56642 0)
(11.0644 -0.468522 0)
(11.2881 -0.288976 0)
(11.6615 -0.210667 0)
(11.6588 -0.193156 0)
(11.8959 -0.174762 0)
(11.8165 -0.171723 0)
(12.001 -0.146698 0)
(11.8852 -0.137229 0)
(12.0474 -0.11271 0)
(11.906 -0.107497 0)
(12.0486 -0.0915623 0)
(11.9087 -0.106586 0)
(12.019 -0.0784134 0)
(11.8644 -0.107299 0)
(11.9498 -0.0962559 0)
(11.7844 -0.131819 0)
(11.7947 -0.115073 0)
(11.5751 -0.152626 0)
(10.0134 -0.456282 0)
(10.5646 -0.705851 0)
(11.1765 -0.549903 0)
(11.3583 -0.348338 0)
(11.5688 -0.262517 0)
(11.4442 -0.229127 0)
(11.5109 -0.197353 0)
(11.2831 -0.178859 0)
(11.3183 -0.148781 0)
(11.0557 -0.128715 0)
(11.1002 -0.104231 0)
(10.8325 -0.0947894 0)
(10.8954 -0.0802142 0)
(10.6241 -0.087036 0)
(10.6999 -0.0639687 0)
(10.4218 -0.0877133 0)
(10.4878 -0.0742384 0)
(10.1983 -0.111851 0)
(10.2124 -0.0876921 0)
(9.88579 -0.155358 0)
(10.0667 -0.631598 0)
(10.659 -0.863317 0)
(10.8691 -0.603369 0)
(10.6849 -0.370824 0)
(10.4655 -0.256422 0)
(10.074 -0.197831 0)
(9.85288 -0.151831 0)
(9.47899 -0.123804 0)
(9.33376 -0.0950306 0)
(9.00962 -0.077325 0)
(8.94935 -0.0594387 0)
(8.66774 -0.052044 0)
(8.66886 -0.0438003 0)
(8.3998 -0.0485243 0)
(8.44108 -0.0366348 0)
(8.16712 -0.0496476 0)
(8.21237 -0.048409 0)
(7.91699 -0.0669454 0)
(7.9269 -0.0654081 0)
(7.58948 -0.083621 0)
(10.0858 -0.838397 0)
(9.65827 -0.867711 0)
(8.87048 -0.507731 0)
(8.08061 -0.260578 0)
(7.49764 -0.138143 0)
(6.99987 -0.0832005 0)
(6.70576 -0.0531323 0)
(6.38837 -0.0410891 0)
(6.23794 -0.0301438 0)
(6.00588 -0.0250084 0)
(5.94305 -0.0185382 0)
(5.75449 -0.0175706 0)
(5.74201 -0.0150776 0)
(5.55889 -0.0198404 0)
(5.57381 -0.0137918 0)
(5.38298 -0.0223251 0)
(5.39657 -0.022388 0)
(5.17602 -0.0311569 0)
(5.17165 -0.035139 0)
(4.88824 -0.0156718 0)
(8.09156 -0.387981 0)
(5.45029 -0.242445 0)
(3.91035 -0.0430987 0)
(3.15636 0.01564 0)
(2.80279 0.0182778 0)
(2.59592 0.0107056 0)
(2.48628 0.00601101 0)
(2.37687 0.0022032 0)
(2.32296 0.00155789 0)
(2.24372 0.000369137 0)
(2.2204 0.000797888 0)
(2.15782 8.41223e-05 0)
(2.15079 0.00032892 0)
(2.08408 -0.00150233 0)
(2.08128 0.000289943 0)
(2.01024 -0.0021621 0)
(1.99983 -0.00141051 0)
(1.90906 -0.00353768 0)
(1.87609 -0.003462 0)
(1.73292 0.0112551 0)
(2.11871 0.0160592 0)
(2.21726 0.207566 0)
(2.59101 0.147882 0)
(2.89523 0.0384622 0)
(3.09913 -0.058462 0)
(3.18564 -0.123575 0)
(3.19536 -0.13722 0)
(3.17256 -0.107317 0)
(3.16173 -0.0596603 0)
(3.16125 -0.0149746 0)
(3.1994 0.0162506 0)
(3.2454 0.0400008 0)
(3.3246 0.0368695 0)
(3.41116 0.0316723 0)
(3.48834 0.0267256 0)
(3.56287 0.0181068 0)
(3.64281 0.00875812 0)
(3.70764 0.0010223 0)
(3.77363 0.00897908 0)
(3.82818 0.0176881 0)
(3.89761 0.0231518 0)
(3.97142 0.0249339 0)
(4.05338 0.0183439 0)
(4.1463 0.00518909 0)
(4.2442 -0.0145561 0)
(4.34249 -0.0434916 0)
(4.44706 -0.0831417 0)
(4.53758 -0.146646 0)
(4.63403 -0.221746 0)
(4.67692 -0.301153 0)
(4.72555 -0.389342 0)
(4.71752 -0.467074 0)
(4.69536 -0.543411 0)
(4.60575 -0.593978 0)
(4.492 -0.582308 0)
(4.31203 -0.46961 0)
(4.24402 -0.281319 0)
(4.15128 -0.0310375 0)
(4.1537 0.180525 0)
(4.1842 0.326846 0)
(4.27674 0.484259 0)
(4.59162 0.557385 0)
(4.92333 0.553098 0)
(5.24084 0.572786 0)
(5.55894 0.531518 0)
(5.82867 0.423882 0)
(6.07728 0.342088 0)
(6.28165 0.243575 0)
(6.49481 0.142401 0)
(6.61511 0.0559943 0)
(6.64755 -0.0466213 0)
(6.83473 -0.170153 0)
(6.85589 -0.220061 0)
(7.01338 -0.299998 0)
(7.15919 -0.388687 0)
(7.26677 -0.44638 0)
(7.44158 -0.561498 0)
(7.59989 -0.671706 0)
(7.73231 -0.785792 0)
(7.90705 -0.880041 0)
(8.07257 -1.00685 0)
(8.29203 -1.15483 0)
(8.42598 -1.26106 0)
(8.78081 -1.39269 0)
(8.96257 -1.51168 0)
(9.33305 -1.74328 0)
(9.58928 -1.88232 0)
(9.99876 -2.00001 0)
(10.3116 -2.15457 0)
(10.7599 -2.31163 0)
(11.0718 -2.51493 0)
(11.4683 -2.63671 0)
(11.7736 -2.78549 0)
(12.1214 -2.92541 0)
(12.3339 -3.0105 0)
(12.581 -3.09045 0)
(12.7277 -3.11763 0)
(12.8615 -3.16283 0)
(12.9588 -3.15672 0)
(12.9636 -3.14422 0)
(13.0459 -3.11396 0)
(12.9943 -3.06612 0)
(13.0167 -2.95708 0)
(12.964 -2.82463 0)
(12.9568 -2.68664 0)
(12.8503 -2.44133 0)
(12.8532 -2.19298 0)
(12.7467 -1.87304 0)
(12.695 -1.5241 0)
(12.6235 -1.12242 0)
(12.6035 -0.672351 0)
(12.5126 -0.200345 0)
(12.5576 0.272176 0)
(12.5175 0.745349 0)
(12.5822 1.12813 0)
(12.6716 1.54169 0)
(12.8035 1.86923 0)
(12.9737 2.14601 0)
(13.0373 2.43635 0)
(13.2062 2.54445 0)
(13.184 2.68293 0)
(13.2603 2.63069 0)
(13.2315 2.56075 0)
(13.1549 2.36946 0)
(13.1453 2.09191 0)
(12.9636 1.78727 0)
(12.9232 1.35552 0)
(12.7427 0.935238 0)
(12.6969 0.40132 0)
(12.5088 -0.0924259 0)
(12.4149 -0.637115 0)
(12.1652 -1.17494 0)
(11.9038 -1.65754 0)
(11.58 -2.16052 0)
(11.1028 -2.54672 0)
(10.6391 -2.82023 0)
(10.0447 -2.95617 0)
(9.41886 -3.06532 0)
(8.7675 -2.86251 0)
(8.11927 -2.56825 0)
(7.81123 -2.77464 0)
(7.55274 -2.81083 0)
(7.16668 -2.22197 0)
(6.84288 -2.24217 0)
(6.7369 -2.95653 0)
(6.2646 -2.81959 0)
(5.57741 -1.48758 0)
(5.16939 -0.443571 0)
(4.8132 -0.849569 0)
(4.64174 -1.75892 0)
(4.59242 -3.20598 0)
(4.44022 -5.08322 0)
(4.42087 -7.11845 0)
(4.50605 -8.37015 0)
(4.44157 -8.6872 0)
(4.46199 -8.3943 0)
(4.65916 -7.88454 0)
(4.58177 -7.59429 0)
(4.87829 -7.14187 0)
(4.99909 -6.63892 0)
(5.20162 -5.97362 0)
(5.17394 -5.39244 0)
(5.26663 -4.77422 0)
(5.56847 -3.89538 0)
(5.86672 -2.7752 0)
(6.20468 -1.64957 0)
(6.64655 -0.548685 0)
(7.05844 0.626459 0)
(7.41878 1.88209 0)
(7.81419 3.09788 0)
(8.12259 4.13954 0)
(8.41351 4.80783 0)
(8.51738 5.15912 0)
(8.88823 5.7208 0)
(9.31991 6.22662 0)
(9.69264 6.80566 0)
(10.3467 7.47166 0)
(10.4717 7.74843 0)
(10.4144 7.7614 0)
(10.5051 7.65045 0)
(10.2928 7.04224 0)
(9.94645 6.79338 0)
(10.6869 6.65687 0)
(9.85395 5.87648 0)
(9.83338 5.48206 0)
(10.9671 5.53627 0)
(9.17083 4.36318 0)
(9.93597 3.88973 0)
(9.28673 3.63285 0)
(8.62683 2.89982 0)
(9.18576 2.71156 0)
(7.38464 2.08296 0)
(8.64359 1.80961 0)
(6.76729 1.75821 0)
(8.06654 1.74735 0)
(6.31219 1.82787 0)
(7.23353 1.97468 0)
(6.1781 2.0624 0)
(6.5448 2.25334 0)
(6.67701 2.66372 0)
(6.54727 3.30967 0)
(7.1793 3.59723 0)
(6.22145 3.3093 0)
(6.69923 3.07756 0)
(5.44094 2.75141 0)
(5.4651 2.46091 0)
(4.91813 2.32249 0)
(4.45072 2.26012 0)
(4.77245 2.11061 0)
(3.46544 2.08922 0)
(4.8712 1.82665 0)
(2.68026 1.82722 0)
(5.41293 1.33843 0)
(2.63646 1.52502 0)
(5.98863 0.719814 0)
(2.8871 1.21518 0)
(6.32835 0.129916 0)
(3.49892 1.20306 0)
(6.04857 0.0546725 0)
(4.06959 2.15863 0)
(5.14333 0.0523707 0)
(5.10894 0.140917 0)
(5.16586 0.103353 0)
(5.3012 -0.00262872 0)
(5.42708 -0.105957 0)
(5.52412 -0.169723 0)
(5.56283 -0.181109 0)
(5.57217 -0.157739 0)
(5.56529 -0.118949 0)
(5.57203 -0.0836229 0)
(5.58712 -0.0600935 0)
(5.62686 -0.0416308 0)
(5.67573 -0.0405262 0)
(5.73496 -0.0378575 0)
(5.80049 -0.0442267 0)
(5.85272 -0.0483215 0)
(5.91755 -0.052003 0)
(5.9727 -0.0600524 0)
(6.02924 -0.0563085 0)
(6.0904 -0.0557631 0)
(6.14221 -0.0515361 0)
(6.21295 -0.056474 0)
(6.28158 -0.05942 0)
(6.36384 -0.0773603 0)
(6.44795 -0.0946522 0)
(6.53773 -0.126449 0)
(6.62091 -0.168954 0)
(6.70876 -0.221036 0)
(6.78115 -0.294536 0)
(6.836 -0.353443 0)
(6.87786 -0.43253 0)
(6.88028 -0.482952 0)
(6.87042 -0.523581 0)
(6.81883 -0.528409 0)
(6.78164 -0.47438 0)
(6.65892 -0.366703 0)
(6.63174 -0.212059 0)
(6.51476 -0.0546796 0)
(6.50899 0.106897 0)
(6.56151 0.26092 0)
(6.56535 0.392994 0)
(6.70412 0.468483 0)
(6.84716 0.496302 0)
(6.96878 0.455327 0)
(7.09816 0.422121 0)
(7.26334 0.36517 0)
(7.42559 0.277786 0)
(7.51139 0.187042 0)
(7.604 0.0529613 0)
(7.73331 -0.0289009 0)
(7.71434 -0.119171 0)
(7.89577 -0.257642 0)
(7.96182 -0.31914 0)
(8.09351 -0.400166 0)
(8.26595 -0.524754 0)
(8.43152 -0.588012 0)
(8.61339 -0.686522 0)
(8.80203 -0.827169 0)
(9.02102 -0.936065 0)
(9.23102 -1.04279 0)
(9.48594 -1.21687 0)
(9.72089 -1.33087 0)
(10.0102 -1.47867 0)
(10.3236 -1.64737 0)
(10.5964 -1.81229 0)
(10.9295 -1.9756 0)
(11.2585 -2.14072 0)
(11.5689 -2.26954 0)
(11.8434 -2.4514 0)
(12.1572 -2.59963 0)
(12.3844 -2.78893 0)
(12.6523 -2.86447 0)
(12.7986 -3.00774 0)
(13.0126 -3.08219 0)
(13.026 -3.10943 0)
(13.1773 -3.17368 0)
(13.1142 -3.14298 0)
(13.1337 -3.15679 0)
(13.0825 -3.13008 0)
(13.0293 -3.09438 0)
(13.0067 -3.0462 0)
(12.9292 -2.97344 0)
(12.9015 -2.86998 0)
(12.8493 -2.75437 0)
(12.8417 -2.60621 0)
(12.766 -2.37107 0)
(12.7587 -2.12702 0)
(12.6984 -1.81208 0)
(12.683 -1.46087 0)
(12.6477 -1.05889 0)
(12.6529 -0.60598 0)
(12.5611 -0.189705 0)
(12.6386 0.255474 0)
(12.5485 0.724565 0)
(12.6852 1.06652 0)
(12.6265 1.51122 0)
(12.8186 1.78098 0)
(12.9006 2.0552 0)
(12.9778 2.32416 0)
(13.174 2.4349 0)
(13.1523 2.60305 0)
(13.3099 2.56336 0)
(13.2854 2.54903 0)
(13.2939 2.36645 0)
(13.2602 2.15667 0)
(13.1801 1.82281 0)
(13.0806 1.45578 0)
(12.9608 1.03782 0)
(12.8135 0.549754 0)
(12.6409 0.0384041 0)
(12.4546 -0.466037 0)
(12.1089 -0.951285 0)
(11.8068 -1.42975 0)
(11.3394 -1.79955 0)
(10.8281 -2.16109 0)
(10.3119 -2.36559 0)
(9.67208 -2.4154 0)
(9.12199 -2.56179 0)
(8.51735 -2.33861 0)
(8.15595 -2.22985 0)
(7.90704 -2.58219 0)
(7.68507 -2.52899 0)
(7.26143 -1.92439 0)
(6.99434 -2.09621 0)
(6.81291 -2.73154 0)
(6.28562 -2.32291 0)
(5.54143 -0.911787 0)
(5.07912 -0.123778 0)
(4.61508 -0.572987 0)
(4.35863 -1.67019 0)
(4.31342 -3.11109 0)
(3.9555 -5.047 0)
(3.93031 -7.076 0)
(3.83653 -8.1834 0)
(3.78531 -8.68296 0)
(3.96777 -8.29231 0)
(4.10829 -7.85757 0)
(4.06946 -7.75316 0)
(4.33536 -7.24529 0)
(4.33732 -6.72815 0)
(4.60536 -6.06803 0)
(4.52302 -5.49084 0)
(4.64714 -4.89949 0)
(4.79869 -4.0325 0)
(5.01069 -3.04916 0)
(5.3195 -2.02105 0)
(5.7222 -0.901518 0)
(6.07513 0.383717 0)
(6.35045 1.58801 0)
(6.75236 2.7851 0)
(7.15454 3.88566 0)
(7.33268 4.61631 0)
(7.66844 4.94731 0)
(7.97691 5.42363 0)
(8.32214 5.837 0)
(8.85109 6.39627 0)
(9.40916 7.05807 0)
(9.78888 7.46303 0)
(10.0119 7.69387 0)
(9.74004 7.54036 0)
(10.025 7.3033 0)
(9.65087 6.83804 0)
(9.65534 6.56547 0)
(10.4089 6.32943 0)
(9.18332 5.26996 0)
(10.0935 5.39896 0)
(10.2447 5.11056 0)
(8.71832 3.87364 0)
(10.2753 3.85215 0)
(8.6905 3.25354 0)
(9.3409 2.73203 0)
(8.44806 2.49073 0)
(8.15004 2.05175 0)
(8.52682 1.95004 0)
(7.42543 2.09353 0)
(8.35214 2.03278 0)
(6.85045 2.21145 0)
(7.9081 2.16046 0)
(6.32169 2.28944 0)
(7.32602 2.57199 0)
(6.60959 3.13115 0)
(7.27971 3.39212 0)
(7.52207 3.46087 0)
(6.51004 3.47965 0)
(7.88892 3.11081 0)
(5.0773 2.98058 0)
(7.76871 2.46542 0)
(4.01054 2.50859 0)
(7.76262 1.8946 0)
(3.6469 2.55919 0)
(8.04652 1.65907 0)
(3.94645 2.27403 0)
(8.11401 0.774851 0)
(4.45049 1.85845 0)
(8.11349 0.175166 0)
(5.22281 1.35336 0)
(8.02252 -0.437436 0)
(5.84387 0.991247 0)
(7.66825 -0.276572 0)
(6.65684 1.64213 0)
(7.76556 0.00206307 0)
(7.7804 0.024652 0)
(7.78986 0.0115031 0)
(7.8736 -0.0453832 0)
(7.96571 -0.109097 0)
(8.05721 -0.145941 0)
(8.09464 -0.158423 0)
(8.10789 -0.14916 0)
(8.08802 -0.118726 0)
(8.08992 -0.0911383 0)
(8.0875 -0.072581 0)
(8.10544 -0.0521502 0)
(8.14244 -0.0587769 0)
(8.16373 -0.0535242 0)
(8.22688 -0.0620282 0)
(8.24602 -0.0759947 0)
(8.30658 -0.0702743 0)
(8.33743 -0.0932136 0)
(8.38322 -0.087551 0)
(8.43687 -0.094846 0)
(8.47226 -0.097695 0)
(8.5455 -0.0956388 0)
(8.57978 -0.111802 0)
(8.6689 -0.124194 0)
(8.70512 -0.14769 0)
(8.794 -0.185092 0)
(8.83405 -0.221806 0)
(8.90654 -0.26961 0)
(8.95389 -0.326244 0)
(8.98251 -0.375503 0)
(9.02925 -0.430021 0)
(8.99609 -0.464987 0)
(9.01476 -0.479674 0)
(8.94081 -0.462817 0)
(8.93145 -0.418722 0)
(8.83032 -0.321138 0)
(8.78842 -0.206277 0)
(8.74558 -0.0575101 0)
(8.70096 0.0988044 0)
(8.77642 0.226293 0)
(8.77667 0.34941 0)
(8.87085 0.407558 0)
(8.9582 0.426835 0)
(9.05056 0.406404 0)
(9.17205 0.37636 0)
(9.22854 0.30654 0)
(9.34194 0.202382 0)
(9.42699 0.138653 0)
(9.49076 0.00906306 0)
(9.59136 -0.0969685 0)
(9.60959 -0.185551 0)
(9.70542 -0.309137 0)
(9.81875 -0.426144 0)
(9.91764 -0.510464 0)
(10.0729 -0.615959 0)
(10.2308 -0.746065 0)
(10.4298 -0.827058 0)
(10.597 -0.963559 0)
(10.835 -1.08993 0)
(11.0161 -1.22407 0)
(11.2707 -1.37235 0)
(11.4759 -1.51789 0)
(11.7269 -1.67045 0)
(11.9284 -1.84524 0)
(12.1817 -2.00755 0)
(12.3546 -2.16184 0)
(12.583 -2.32524 0)
(12.7156 -2.49618 0)
(12.8905 -2.62082 0)
(12.979 -2.75659 0)
(13.1145 -2.89553 0)
(13.1627 -2.94956 0)
(13.2218 -3.07199 0)
(13.224 -3.09015 0)
(13.1348 -3.1149 0)
(13.1423 -3.1506 0)
(12.9783 -3.10903 0)
(12.9393 -3.10585 0)
(12.8534 -3.08066 0)
(12.8128 -3.04689 0)
(12.7878 -3.02706 0)
(12.7502 -2.93316 0)
(12.7621 -2.87229 0)
(12.7966 -2.74431 0)
(12.7953 -2.57188 0)
(12.8324 -2.36894 0)
(12.852 -2.07588 0)
(12.9067 -1.80356 0)
(12.8961 -1.41736 0)
(12.9271 -1.04618 0)
(12.8959 -0.589116 0)
(12.8952 -0.184736 0)
(12.896 0.269607 0)
(12.8518 0.722608 0)
(12.8997 1.10332 0)
(12.7955 1.52476 0)
(12.9259 1.77703 0)
(12.8258 2.07107 0)
(12.9455 2.24344 0)
(12.9558 2.40129 0)
(12.9696 2.51465 0)
(13.0585 2.5171 0)
(13.0441 2.47536 0)
(13.0449 2.34693 0)
(13.018 2.14593 0)
(12.9213 1.87237 0)
(12.8406 1.49861 0)
(12.7335 1.11529 0)
(12.4659 0.697328 0)
(12.3703 0.191975 0)
(12.0373 -0.22448 0)
(11.7229 -0.717395 0)
(11.3776 -1.10815 0)
(10.8748 -1.41078 0)
(10.3815 -1.71771 0)
(9.85754 -1.82676 0)
(9.37839 -1.94353 0)
(8.84702 -2.07858 0)
(8.48299 -2.04293 0)
(8.20015 -2.02131 0)
(7.99367 -2.41941 0)
(7.78688 -2.31465 0)
(7.32363 -1.68001 0)
(7.14786 -1.90446 0)
(6.87654 -2.43732 0)
(6.26913 -1.71023 0)
(5.54912 -0.347238 0)
(4.97691 0.284599 0)
(4.36449 -0.292979 0)
(4.09026 -1.55572 0)
(3.96681 -3.00538 0)
(3.55977 -4.99347 0)
(3.46109 -6.89275 0)
(3.30059 -8.25679 0)
(3.32166 -8.76518 0)
(3.48329 -8.33069 0)
(3.63325 -8.00622 0)
(3.58518 -7.78647 0)
(3.77517 -7.21679 0)
(3.81379 -6.80945 0)
(4.1285 -6.04368 0)
(4.00954 -5.39482 0)
(4.06133 -4.8746 0)
(4.1254 -4.06415 0)
(4.10589 -3.22463 0)
(4.27107 -2.23019 0)
(4.57479 -1.06254 0)
(4.88702 0.204987 0)
(5.22777 1.35976 0)
(5.57172 2.46964 0)
(6.00896 3.62571 0)
(6.29839 4.33913 0)
(6.68338 4.80047 0)
(6.94274 5.08102 0)
(7.33703 5.49544 0)
(7.9216 6.07908 0)
(8.4229 6.73404 0)
(8.93833 7.25875 0)
(9.26896 7.6229 0)
(9.29628 7.47642 0)
(9.25676 7.21399 0)
(9.64181 6.9404 0)
(8.86161 6.25717 0)
(9.34909 6.14532 0)
(9.96986 5.55386 0)
(8.46804 4.82612 0)
(10.3884 5.07112 0)
(9.14166 4.18647 0)
(9.11931 3.45828 0)
(9.83215 3.54655 0)
(8.48894 3.19502 0)
(9.62769 2.64537 0)
(7.79025 2.23319 0)
(9.02173 2.06567 0)
(7.7775 2.06493 0)
(8.4458 2.18817 0)
(7.86858 2.3883 0)
(7.71675 2.54608 0)
(7.98725 2.53809 0)
(6.69094 2.81473 0)
(8.31308 2.85789 0)
(6.31947 3.43234 0)
(9.2402 3.19572 0)
(6.1415 3.695 0)
(9.81989 3.10261 0)
(5.85254 3.4798 0)
(9.51215 2.33245 0)
(5.88647 3.11463 0)
(9.15754 1.8494 0)
(5.83098 2.74937 0)
(8.77835 1.2049 0)
(6.16837 2.33695 0)
(8.33249 0.540038 0)
(6.25865 1.66006 0)
(8.02624 -0.103306 0)
(6.51239 1.15199 0)
(8.06185 -0.169282 0)
(6.92904 1.07637 0)
(8.00757 0.115774 0)
(7.06107 1.00206 0)
(9.98457 -0.0592697 0)
(10.0348 -0.148162 0)
(10.0581 -0.178148 0)
(10.1304 -0.175865 0)
(10.2042 -0.172054 0)
(10.2586 -0.170491 0)
(10.2921 -0.164549 0)
(10.2897 -0.158468 0)
(10.2799 -0.131359 0)
(10.258 -0.113953 0)
(10.2625 -0.0994366 0)
(10.2409 -0.0814088 0)
(10.2912 -0.0945628 0)
(10.2703 -0.0796827 0)
(10.3468 -0.0957854 0)
(10.3438 -0.0999663 0)
(10.3954 -0.0986115 0)
(10.4263 -0.116135 0)
(10.4294 -0.119993 0)
(10.4963 -0.131718 0)
(10.483 -0.142183 0)
(10.5618 -0.150246 0)
(10.5698 -0.15857 0)
(10.6458 -0.182717 0)
(10.6735 -0.183648 0)
(10.7282 -0.231112 0)
(10.7632 -0.254743 0)
(10.7909 -0.298857 0)
(10.8235 -0.359125 0)
(10.8076 -0.381689 0)
(10.8409 -0.444933 0)
(10.775 -0.446836 0)
(10.7932 -0.460356 0)
(10.7055 -0.421729 0)
(10.6965 -0.384634 0)
(10.6206 -0.287904 0)
(10.5799 -0.180093 0)
(10.5593 -0.0724636 0)
(10.5218 0.0854212 0)
(10.5716 0.165823 0)
(10.6096 0.282477 0)
(10.6727 0.327445 0)
(10.7909 0.367966 0)
(10.8729 0.355256 0)
(10.9704 0.309333 0)
(11.0461 0.251099 0)
(11.1259 0.160221 0)
(11.2225 0.0813475 0)
(11.2384 -0.0426384 0)
(11.3595 -0.149692 0)
(11.3669 -0.263844 0)
(11.4602 -0.353161 0)
(11.5261 -0.48718 0)
(11.654 -0.602284 0)
(11.7375 -0.698333 0)
(11.8964 -0.841305 0)
(12.0263 -0.948786 0)
(12.1826 -1.09687 0)
(12.3048 -1.21601 0)
(12.5035 -1.36742 0)
(12.6077 -1.51422 0)
(12.7934 -1.65642 0)
(12.8738 -1.8362 0)
(13.0267 -1.9596 0)
(13.069 -2.13419 0)
(13.1829 -2.26388 0)
(13.1584 -2.40532 0)
(13.2555 -2.55735 0)
(13.2079 -2.68967 0)
(13.2152 -2.79025 0)
(13.1817 -2.90929 0)
(13.1328 -2.94974 0)
(13.0723 -3.03703 0)
(12.9405 -3.06288 0)
(12.8435 -3.06426 0)
(12.7656 -3.10411 0)
(12.6643 -3.02975 0)
(12.6332 -3.07388 0)
(12.6316 -3.0359 0)
(12.6306 -3.0342 0)
(12.6792 -3.0127 0)
(12.7062 -2.94195 0)
(12.7989 -2.8864 0)
(12.8578 -2.7562 0)
(12.9453 -2.60138 0)
(13.0566 -2.40638 0)
(13.1345 -2.15699 0)
(13.2465 -1.85861 0)
(13.2835 -1.50375 0)
(13.3275 -1.07325 0)
(13.3723 -0.644092 0)
(13.3844 -0.196224 0)
(13.342 0.295524 0)
(13.3736 0.687518 0)
(13.2754 1.15974 0)
(13.2195 1.53143 0)
(13.1974 1.82116 0)
(13.0087 2.0977 0)
(13.017 2.26544 0)
(12.8935 2.39917 0)
(12.8373 2.49127 0)
(12.7571 2.52873 0)
(12.7238 2.4737 0)
(12.6463 2.31833 0)
(12.5592 2.16682 0)
(12.4123 1.91722 0)
(12.3273 1.5452 0)
(12.1124 1.22006 0)
(11.979 0.770228 0)
(11.7207 0.408125 0)
(11.4194 -0.00433777 0)
(11.1753 -0.424145 0)
(10.7488 -0.735094 0)
(10.348 -1.02973 0)
(9.92449 -1.28768 0)
(9.497 -1.45205 0)
(9.11366 -1.58137 0)
(8.68714 -1.8271 0)
(8.60174 -1.84796 0)
(8.27887 -1.84467 0)
(8.19759 -2.27513 0)
(7.85392 -1.9803 0)
(7.40151 -1.36935 0)
(7.30705 -1.72575 0)
(6.91231 -2.06856 0)
(6.27483 -1.13447 0)
(5.61427 0.24317 0)
(4.84166 0.83619 0)
(4.25338 0.131068 0)
(3.91822 -1.29068 0)
(3.62939 -2.85776 0)
(3.26968 -4.79083 0)
(2.97346 -6.74189 0)
(2.68375 -8.2366 0)
(2.68914 -8.6851 0)
(2.7881 -8.49875 0)
(3.00535 -8.20457 0)
(2.76428 -7.81561 0)
(3.03296 -7.33692 0)
(3.2267 -7.04543 0)
(3.46237 -6.16689 0)
(3.59537 -5.50048 0)
(3.45419 -4.80441 0)
(3.5399 -3.92898 0)
(3.124 -3.15563 0)
(3.29821 -2.31056 0)
(3.42895 -1.24357 0)
(3.76234 -0.0680835 0)
(4.05507 1.0399 0)
(4.44499 2.15789 0)
(4.83396 3.26416 0)
(5.28878 3.96791 0)
(5.74132 4.47478 0)
(5.98553 4.8178 0)
(6.36249 4.95995 0)
(7.04281 5.53678 0)
(7.46971 6.20168 0)
(8.07561 6.80098 0)
(8.4549 7.48676 0)
(8.63305 7.50532 0)
(8.45692 7.09011 0)
(8.9779 7.1479 0)
(9.06326 6.50104 0)
(7.87212 5.70044 0)
(9.94354 5.76017 0)
(8.74613 5.08767 0)
(8.79842 4.74642 0)
(9.97339 4.73618 0)
(8.19166 3.69242 0)
(9.85904 3.34945 0)
(8.66792 3.39571 0)
(9.15715 2.9703 0)
(8.81132 2.3535 0)
(8.099 2.40211 0)
(8.96794 2.16292 0)
(7.51153 2.403 0)
(9.11879 2.40401 0)
(7.08408 2.61618 0)
(9.28048 2.44332 0)
(6.58593 2.97847 0)
(9.44033 2.62862 0)
(6.43775 3.46156 0)
(9.88503 2.82724 0)
(6.80134 3.76886 0)
(10.1058 2.75852 0)
(7.22011 3.73468 0)
(9.8721 2.21702 0)
(7.22972 3.10996 0)
(9.51237 1.75013 0)
(7.49328 2.91547 0)
(9.35546 1.39567 0)
(7.46047 2.26887 0)
(9.04855 0.88985 0)
(7.55363 1.80131 0)
(8.87483 0.508608 0)
(7.46032 0.962787 0)
(8.57237 -0.108365 0)
(7.64178 0.58434 0)
(8.6552 0.267859 0)
(7.82569 0.783943 0)
(11.5222 -0.0456566 0)
(11.5757 -0.200348 0)
(11.6985 -0.246024 0)
(11.7796 -0.24219 0)
(11.8648 -0.213405 0)
(11.886 -0.180614 0)
(11.898 -0.163584 0)
(11.8872 -0.155081 0)
(11.8665 -0.134099 0)
(11.8385 -0.125299 0)
(11.848 -0.116566 0)
(11.8002 -0.0909703 0)
(11.8495 -0.122616 0)
(11.803 -0.0863175 0)
(11.8499 -0.125366 0)
(11.851 -0.12058 0)
(11.8701 -0.120032 0)
(11.9161 -0.147955 0)
(11.9119 -0.132089 0)
(11.9715 -0.159982 0)
(11.9638 -0.159813 0)
(12.0004 -0.175712 0)
(12.0024 -0.186024 0)
(12.0255 -0.217367 0)
(12.0486 -0.211718 0)
(12.0641 -0.260425 0)
(12.1011 -0.272293 0)
(12.1151 -0.301158 0)
(12.1395 -0.354664 0)
(12.1122 -0.354596 0)
(12.1132 -0.42037 0)
(12.0283 -0.406536 0)
(12.0042 -0.423817 0)
(11.8984 -0.387645 0)
(11.8666 -0.348205 0)
(11.816 -0.271989 0)
(11.7694 -0.160913 0)
(11.7938 -0.0870584 0)
(11.7596 0.0636714 0)
(11.8136 0.125452 0)
(11.8339 0.213519 0)
(11.9118 0.266476 0)
(11.9891 0.278512 0)
(12.1023 0.274465 0)
(12.2014 0.241191 0)
(12.33 0.207194 0)
(12.4005 0.119851 0)
(12.5263 0.0452903 0)
(12.5382 -0.0868771 0)
(12.6287 -0.17275 0)
(12.646 -0.33208 0)
(12.6793 -0.414356 0)
(12.711 -0.547194 0)
(12.7768 -0.682951 0)
(12.849 -0.777505 0)
(12.902 -0.919825 0)
(13.0333 -1.03365 0)
(13.0881 -1.18697 0)
(13.2207 -1.29093 0)
(13.2778 -1.464 0)
(13.3727 -1.57954 0)
(13.4067 -1.7374 0)
(13.4406 -1.87144 0)
(13.4306 -2.00011 0)
(13.4073 -2.15155 0)
(13.3565 -2.2764 0)
(13.2677 -2.39313 0)
(13.2058 -2.5375 0)
(13.1192 -2.64613 0)
(13.0481 -2.76403 0)
(12.9494 -2.8474 0)
(12.8503 -2.93368 0)
(12.6939 -2.96929 0)
(12.5864 -2.97928 0)
(12.5165 -2.99507 0)
(12.4993 -2.9962 0)
(12.4881 -3.02466 0)
(12.5234 -3.06474 0)
(12.5869 -3.05906 0)
(12.6038 -3.06963 0)
(12.7024 -3.05366 0)
(12.7646 -3.02759 0)
(12.8798 -2.98115 0)
(12.9772 -2.87029 0)
(13.1261 -2.76378 0)
(13.2459 -2.55638 0)
(13.3668 -2.31921 0)
(13.5126 -2.00019 0)
(13.556 -1.61166 0)
(13.6648 -1.17001 0)
(13.7176 -0.706575 0)
(13.7427 -0.238862 0)
(13.7437 0.276978 0)
(13.7471 0.737723 0)
(13.6918 1.15136 0)
(13.633 1.59051 0)
(13.5098 1.90147 0)
(13.3718 2.16012 0)
(13.2198 2.36871 0)
(13.0235 2.51604 0)
(12.9121 2.56747 0)
(12.6755 2.62303 0)
(12.547 2.60465 0)
(12.3668 2.45152 0)
(12.2299 2.25812 0)
(12.0135 2.02664 0)
(11.8267 1.72871 0)
(11.6005 1.38413 0)
(11.4661 0.966503 0)
(11.1469 0.599192 0)
(10.9885 0.220009 0)
(10.6185 -0.116666 0)
(10.3454 -0.406038 0)
(10.0003 -0.687878 0)
(9.68677 -0.967251 0)
(9.34913 -1.15255 0)
(9.03129 -1.29568 0)
(8.89039 -1.64966 0)
(8.6278 -1.62531 0)
(8.35376 -1.69101 0)
(8.24009 -2.08012 0)
(7.79841 -1.74066 0)
(7.46709 -1.20307 0)
(7.38649 -1.54364 0)
(6.97086 -1.60757 0)
(6.33774 -0.572717 0)
(5.59494 0.848497 0)
(4.69357 1.39151 0)
(4.08717 0.506974 0)
(3.74782 -1.0369 0)
(3.43916 -2.61915 0)
(3.00274 -4.49109 0)
(2.45692 -6.50429 0)
(2.14993 -7.92561 0)
(1.97597 -8.60921 0)
(2.21703 -8.56761 0)
(2.2026 -8.1256 0)
(1.99543 -7.8429 0)
(2.39673 -7.58517 0)
(2.39072 -7.20172 0)
(2.64467 -6.26166 0)
(2.90171 -5.4634 0)
(2.95422 -4.66513 0)
(2.89533 -3.71162 0)
(2.5876 -3.00122 0)
(2.40359 -2.31287 0)
(2.61781 -1.37729 0)
(2.64334 -0.335491 0)
(3.01614 0.776804 0)
(3.33902 1.89661 0)
(3.75967 2.86157 0)
(4.29214 3.55821 0)
(4.64589 4.2356 0)
(5.10494 4.58257 0)
(5.37878 4.70381 0)
(6.00056 5.29207 0)
(6.60713 5.75904 0)
(6.96091 6.32953 0)
(7.63787 7.17115 0)
(7.90111 7.35605 0)
(7.78261 6.89569 0)
(8.0646 6.86433 0)
(8.86872 6.90038 0)
(7.62753 5.46399 0)
(8.24746 5.34021 0)
(9.56976 5.39558 0)
(7.64631 4.45235 0)
(9.35757 4.32914 0)
(8.46614 3.84803 0)
(8.80506 3.27993 0)
(9.46756 3.23186 0)
(8.11543 3.21015 0)
(9.86506 2.39247 0)
(7.17413 2.54278 0)