/*--------------------------------*- C++ -*----------------------------------*\
| =========                 |                                                 |
| \\      /  F ield         | OpenFOAM: The Open Source CFD Toolbox           |
|  \\    /   O peration     | Version:  2.4.0                                 |
|   \\  /    A nd           | Web:      www.OpenFOAM.org                      |
|    \\/     M anipulation  |                                                 |
\*---------------------------------------------------------------------------*/
FoamFile
{
    version     2.0;
    format      ascii;
    class       volScalarField;
    location    "1.57";
    object      k;
}
// * * * * * * * * * * * * * * * * * * * * * * * * * * * * * * * * * * * * * //

dimensions      [0 2 -2 0 0 0 0];

internalField   nonuniform List<scalar> 
8800
(
8.10848
10.2792
8.78109
6.84611
5.67655
5.01079
4.48718
4.18674
3.86737
3.72469
3.48376
3.42804
3.24479
3.2187
3.05923
3.04938
2.92017
2.89919
2.86459
2.69993
1.38868
4.36569
5.30822
5.29569
5.10757
4.85761
4.52756
4.33939
4.06356
3.94547
3.70965
3.64242
3.46976
3.42298
3.29003
3.25566
3.15142
3.11404
3.02704
3.02977
0.0832021
0.747698
1.53956
1.96991
2.24348
2.46862
2.54826
2.62326
2.61072
2.60907
2.57726
2.55777
2.50856
2.48754
2.44891
2.41167
2.39348
2.35246
2.30271
2.28372
0.00327806
0.0713117
0.242116
0.438382
0.575618
0.710212
0.827934
0.938813
1.02133
1.08708
1.17143
1.20318
1.26797
1.29174
1.34621
1.35523
1.40056
1.39978
1.405
1.3921
0.000118601
0.0050696
0.0208603
0.052019
0.09294
0.118851
0.16422
0.202337
0.248823
0.27397
0.328394
0.350055
0.39638
0.418578
0.466947
0.484526
0.531164
0.550116
0.580977
0.582673
2.56506e-05
0.000324
0.00139912
0.00359966
0.00852875
0.0117606
0.0182994
0.0245784
0.0345773
0.0404136
0.0543046
0.0610657
0.073975
0.0826391
0.0982436
0.104699
0.117241
0.135712
0.141681
0.150942
2.23614e-05
4.61368e-05
0.000118304
0.000257679
0.00057477
0.000890787
0.00118756
0.00193008
0.00247374
0.00361352
0.00452918
0.00609146
0.00711454
0.00956736
0.011249
0.0132178
0.0145983
0.0189512
0.0201703
0.023644
2.12649e-05
3.24364e-05
4.6796e-05
6.87919e-05
9.62272e-05
0.000126645
0.000134938
0.000173793
0.000196344
0.000279639
0.00031876
0.000420996
0.000469588
0.00067519
0.0007726
0.0010013
0.00107579
0.00154127
0.00162882
0.00223395
2.08117e-05
3.02373e-05
4.3974e-05
5.01451e-05
6.39874e-05
7.96765e-05
8.21674e-05
8.10153e-05
7.85853e-05
8.08522e-05
9.40447e-05
0.000101528
0.000101143
0.00010726
0.0001138
0.000131653
0.000136034
0.000157062
0.000155757
0.000199792
2.06335e-05
2.67167e-05
4.69804e-05
5.89076e-05
5.68761e-05
5.69849e-05
6.71822e-05
7.62013e-05
7.50458e-05
7.20458e-05
7.28899e-05
7.94285e-05
7.88736e-05
7.84394e-05
7.84191e-05
7.9612e-05
8.25738e-05
8.56271e-05
8.84077e-05
9.02441e-05
2.0564e-05
2.72776e-05
4.74378e-05
5.55589e-05
5.52116e-05
6.08073e-05
6.88348e-05
7.62442e-05
7.6475e-05
7.74421e-05
8.13872e-05
8.01629e-05
7.92324e-05
8.00231e-05
8.63616e-05
9.00139e-05
9.04966e-05
9.16838e-05
9.31983e-05
9.88792e-05
2.07947e-05
3.16149e-05
4.1333e-05
4.76939e-05
7.04448e-05
8.10435e-05
8.04533e-05
7.79659e-05
7.81326e-05
9.07804e-05
9.4352e-05
9.50612e-05
9.56431e-05
0.000103579
0.000118106
0.000127585
0.000136207
0.000162435
0.000198587
0.00021669
2.10058e-05
3.05477e-05
4.36927e-05
7.58225e-05
0.000104811
0.000116401
0.000128309
0.00016229
0.000206882
0.000306524
0.000346643
0.000448447
0.000507614
0.000678218
0.000779238
0.00101019
0.00121377
0.00172309
0.00220745
0.00263396
2.1628e-05
4.32242e-05
0.000122149
0.000341302
0.000485363
0.000852064
0.00118797
0.00204104
0.00265055
0.0040421
0.00475271
0.00650993
0.00740766
0.00965545
0.0109626
0.0140887
0.0162603
0.0214797
0.024546
0.0315564
2.49781e-05
0.000308644
0.00153835
0.00445421
0.00682706
0.0128616
0.0172596
0.0269956
0.0329218
0.0456295
0.0515109
0.0649446
0.0714378
0.0866746
0.0943392
0.112508
0.123055
0.148094
0.161316
0.198506
0.000123312
0.00494017
0.0241398
0.0534355
0.0807309
0.129782
0.159414
0.207755
0.241534
0.291943
0.314333
0.362418
0.384643
0.433907
0.455895
0.507374
0.534331
0.596904
0.625824
0.705655
0.00336889
0.0697263
0.26308
0.412672
0.583694
0.707366
0.832538
0.928412
1.02845
1.09985
1.15364
1.21787
1.25709
1.30995
1.33362
1.38543
1.40908
1.46316
1.48509
1.54183
0.0846751
0.729197
1.56896
1.93179
2.2849
2.43153
2.57902
2.59628
2.62833
2.59938
2.58781
2.54069
2.52593
2.47563
2.46176
2.42161
2.41268
2.38579
2.37406
2.34926
1.4074
4.3501
5.31935
5.28468
5.13271
4.79627
4.59057
4.27484
4.12881
3.86971
3.7792
3.57519
3.51945
3.36492
3.32764
3.19754
3.16526
3.04523
3.00168
2.89382
8.12179
10.2626
8.79243
6.81664
5.71496
4.95663
4.54104
4.1292
3.92489
3.64732
3.55461
3.34466
3.29857
3.12698
3.09726
2.93055
2.88982
2.70549
2.63281
2.40188
1.9186
1.42165
1.11619
0.932945
0.800543
0.714895
0.651888
0.615556
0.589179
0.574436
0.560774
0.552781
0.546118
0.543107
0.541177
0.540976
0.541351
0.543377
0.545066
0.547988
0.549308
0.550698
0.549326
0.549565
0.54772
0.54822
0.552359
0.566051
0.592195
0.6204
0.639612
0.637209
0.577682
0.433264
0.356428
0.314733
0.294887
0.292957
0.296567
0.299938
0.300263
0.297847
0.294518
0.290717
0.279609
0.273498
0.26622
0.239613
0.228622
0.229955
0.227602
0.228706
0.248759
0.26561
0.268104
0.267849
0.263554
0.249117
0.222523
0.181377
0.133225
0.0916445
0.0584748
0.0368328
0.0256742
0.0178466
0.0134248
0.0105843
0.0083135
0.00715857
0.006089
0.00543767
0.00511018
0.00473856
0.00464523
0.00445365
0.00425112
0.00425457
0.00445632
0.00455057
0.00459156
0.0046251
0.0046511
0.00461011
0.00463594
0.00475243
0.00499922
0.00549954
0.00644604
0.00878567
0.0121683
0.0197798
0.0419156
0.0619508
0.0727372
0.0740131
0.0724989
0.0676717
0.0674239
0.0710868
0.073803
0.073256
0.0731507
0.0806706
0.13569
0.189598
0.204241
0.203202
0.193864
0.160593
0.115185
0.0829782
0.0665487
0.0585793
0.051868
0.0495942
0.0500743
0.0527573
0.0575709
0.0608453
0.0635848
0.0692346
0.0846138
0.091446
0.091946
0.0922298
0.0948782
0.110401
0.120381
0.120147
0.112051
0.106877
0.107933
0.112341
0.112531
0.109935
0.0999352
0.0909774
0.0825962
0.0738993
0.0657411
0.0594208
0.055268
0.0510066
0.046892
0.0461341
0.0468187
0.052424
0.0586794
0.0620869
0.0650525
0.0674972
0.0739689
0.119142
0.183759
0.191437
0.180657
0.195054
0.230387
0.225491
0.164537
0.0931494
0.0608321
0.0479083
0.0444728
0.044502
0.0461988
0.0450548
0.0422927
0.0422701
0.043875
0.0527879
0.0781173
0.0865961
0.0848725
0.0731756
0.0658033
0.0593077
0.0576672
0.057084
0.0564108
0.0534777
0.0475017
0.0470749
0.0435361
0.0388329
0.0321853
0.0309565
0.0313063
0.0402288
0.0447263
0.0475412
0.0445898
0.0440036
0.0416515
0.042796
0.0530074
0.0700454
0.198092
0.795002
2.59483
2.14575
1.80269
1.55464
1.36343
1.22359
1.11486
1.03099
0.962886
0.909194
0.863483
0.828092
0.793905
0.768255
0.740735
0.721032
0.697953
0.679465
0.660397
0.640972
0.623158
0.606331
0.585308
0.572013
0.555287
0.54197
0.529123
0.527966
0.531131
0.543034
0.578907
0.651007
0.69687
0.695028
0.654067
0.537169
0.41671
0.363518
0.336017
0.320731
0.314642
0.304856
0.288506
0.280902
0.27318
0.252026
0.238539
0.232487
0.23176
0.238461
0.261069
0.271651
0.276002
0.276341
0.272278
0.259368
0.238096
0.19758
0.142015
0.0910809
0.0557615
0.0345653
0.0227162
0.0151383
0.0111293
0.0082872
0.00650265
0.00543298
0.00449858
0.00413687
0.00366874
0.00339953
0.00326821
0.0030527
0.00294746
0.00279545
0.00270896
0.00270302
0.00267973
0.00271667
0.00279373
0.00285399
0.00301713
0.0031287
0.00334227
0.00355554
0.00374096
0.00388927
0.00422353
0.00468061
0.00528911
0.0066475
0.0102246
0.0164166
0.0328755
0.0481231
0.0525557
0.0503349
0.0475239
0.0485795
0.0561753
0.0619671
0.0626089
0.062849
0.0722709
0.142293
0.193133
0.204508
0.203431
0.195813
0.164332
0.121157
0.0940429
0.0754955
0.0643237
0.0619191
0.062822
0.0674236
0.0693871
0.0704573
0.072638
0.0803273
0.0963351
0.10034
0.0994563
0.099796
0.10681
0.130405
0.134457
0.128243
0.113637
0.109913
0.111867
0.115388
0.11496
0.108901
0.0977943
0.089189
0.079591
0.0696917
0.0609736
0.0542333
0.050206
0.0468189
0.0441231
0.0438064
0.0448316
0.0496633
0.055267
0.0587744
0.0632558
0.0656466
0.0708663
0.112882
0.174286
0.18544
0.173587
0.1794
0.212123
0.212784
0.185389
0.108511
0.0689087
0.0518792
0.0512359
0.0554546
0.0550518
0.0522105
0.0499517
0.0493803
0.0560406
0.0822142
0.0929175
0.0941428
0.0827752
0.0702098
0.0648924
0.0595407
0.0583597
0.0582474
0.0586491
0.0562465
0.0504165
0.0489006
0.0458949
0.0432791
0.0383728
0.0395782
0.0411227
0.0527462
0.0529003
0.0521497
0.0470362
0.0423724
0.0482858
0.0466865
0.0676029
0.0752867
0.175901
0.421717
2.07131
1.84595
1.63961
1.46912
1.32992
1.21047
1.11857
1.03778
0.972497
0.917845
0.867202
0.82897
0.790838
0.757826
0.729467
0.699
0.675172
0.644873
0.625106
0.593919
0.57082
0.548109
0.518749
0.499189
0.474282
0.456914
0.436582
0.422786
0.422332
0.423527
0.432997
0.453601
0.484419
0.570898
0.61025
0.612864
0.596234
0.540833
0.489726
0.418477
0.369984
0.347786
0.313293
0.292827
0.289446
0.277952
0.275788
0.283593
0.293291
0.293666
0.294416
0.291588
0.280854
0.26281
0.238708
0.195056
0.137892
0.0873425
0.0530153
0.0330187
0.0208372
0.0134569
0.00965744
0.00701432
0.00553943
0.00452755
0.00381396
0.00339376
0.00308251
0.00288173
0.00271009
0.00265143
0.00257644
0.0024371
0.002347
0.00227201
0.00223682
0.00222068
0.00223389
0.0023525
0.00245854
0.00257269
0.00289541
0.00311081
0.00351917
0.00414885
0.00434853
0.0049151
0.00557231
0.00557793
0.00548496
0.00550898
0.00582521
0.00684988
0.0110614
0.0194259
0.0236394
0.023718
0.0236394
0.0294378
0.0436352
0.0522511
0.0541641
0.0530299
0.0531246
0.0716051
0.151358
0.194137
0.204307
0.202839
0.194049
0.160428
0.127953
0.104827
0.0876015
0.0807247
0.0806462
0.0818593
0.0814619
0.0817854
0.0836127
0.0958586
0.109194
0.109409
0.1065
0.107987
0.126482
0.148131
0.147964
0.131262
0.115571
0.113941
0.116989
0.118846
0.11712
0.106957
0.0961783
0.0866042
0.0752595
0.0641378
0.0552984
0.0491122
0.0454218
0.042387
0.041317
0.0414359
0.0431632
0.0465914
0.0525996
0.0567967
0.0606633
0.0640105
0.0696487
0.111428
0.164007
0.177117
0.162618
0.162221
0.192542
0.201434
0.189713
0.140997
0.090947
0.0704844
0.0715937
0.0675001
0.0623403
0.0587824
0.0582499
0.0628666
0.0876217
0.101911
0.100887
0.0911931
0.0783962
0.0682858
0.0637743
0.060238
0.0588618
0.0584873
0.0586913
0.0555335
0.0524928
0.048039
0.0473943
0.0426522
0.0437079
0.0421906
0.0560169
0.0590719
0.0852717
0.0716757
0.0999526
0.0776696
0.138635
0.112247
0.215974
0.167282
0.192395
0.296479
1.30466
1.21283
1.12369
1.04041
0.965572
0.895574
0.835479
0.783393
0.732085
0.693629
0.654413
0.618884
0.594013
0.562358
0.539256
0.51577
0.493287
0.468091
0.449256
0.424238
0.398195
0.378517
0.352599
0.330399
0.31284
0.293693
0.281228
0.26659
0.259738
0.259056
0.261983
0.275575
0.292426
0.327945
0.380317
0.455951
0.517711
0.517277
0.505809
0.492484
0.459111
0.435096
0.41278
0.380653
0.367231
0.361576
0.351594
0.337715
0.327101
0.303592
0.287041
0.259171
0.214598
0.1657
0.114014
0.0731315
0.0456112
0.0285019
0.0176529
0.0113727
0.00775338
0.00557599
0.0044936
0.00375653
0.00331092
0.00313095
0.00295607
0.00283855
0.00278037
0.00262063
0.00251476
0.00244151
0.00236189
0.00232866
0.00226126
0.00221197
0.00220816
0.00222041
0.00226544
0.00250805
0.00273713
0.00297128
0.00374536
0.0042214
0.00488441
0.0065563
0.0072298
0.00909142
0.0112743
0.0115914
0.0114221
0.0106414
0.0087781
0.008438
0.00872804
0.00976082
0.0115958
0.0141267
0.0156903
0.0198531
0.0311437
0.0405799
0.0462268
0.0487168
0.0485514
0.0501973
0.0870749
0.163329
0.19687
0.200542
0.197852
0.187653
0.158148
0.132817
0.111795
0.100014
0.0985495
0.098853
0.095959
0.0957149
0.0987751
0.116542
0.122791
0.116661
0.113517
0.119389
0.152606
0.164952
0.156226
0.129437
0.11756
0.117829
0.122446
0.122869
0.118655
0.104426
0.094247
0.0827584
0.0689094
0.0575863
0.0504443
0.0454872
0.0415868
0.0395638
0.0393975
0.0406512
0.0430988
0.0452089
0.0499945
0.0547931
0.0582946
0.0619768
0.0693445
0.112845
0.16328
0.172117
0.156328
0.144522
0.160105
0.18857
0.185334
0.167597
0.133116
0.103875
0.0947696
0.077566
0.0738948
0.0727355
0.078042
0.097043
0.105206
0.105518
0.0946066
0.0809062
0.0777783
0.0693366
0.0648084
0.063228
0.0619664
0.0622446
0.0616251
0.0590744
0.0531406
0.0520014
0.0483049
0.0451187
0.0444948
0.0453783
0.0528558
0.059514
0.0807437
0.081631
0.0955226
0.0939081
0.114525
0.11567
0.130373
0.16383
0.171869
0.225604
0.562715
0.542994
0.513837
0.494704
0.466986
0.445122
0.418463
0.397804
0.374717
0.349886
0.335382
0.310439
0.295709
0.282691
0.263
0.253824
0.238069
0.224684
0.212119
0.201985
0.184615
0.172359
0.160333
0.139319
0.130886
0.120058
0.111367
0.107699
0.104473
0.104668
0.105876
0.111375
0.123058
0.13451
0.162648
0.192666
0.241735
0.301271
0.344869
0.385649
0.386662
0.381683
0.375096
0.361936
0.334956
0.320548
0.304448
0.265369
0.236045
0.198539
0.154196
0.110987
0.0759803
0.0508239
0.0330095
0.0212964
0.0134992
0.00858793
0.00577041
0.00416731
0.00335354
0.00280415
0.00261005
0.00267673
0.00285283
0.00295788
0.00294955
0.00284564
0.0027766
0.00265653
0.00264469
0.00262625
0.00262723
0.00262433
0.00262637
0.00265113
0.00273697
0.00287252
0.00307345
0.00365895
0.00425794
0.00500159
0.00732725
0.00865473
0.0108704
0.0152543
0.0163549
0.0181664
0.0200261
0.0198478
0.0197522
0.0196459
0.018678
0.0153277
0.0124666
0.0113281
0.0116698
0.0139063
0.0159717
0.0180996
0.0229552
0.0324864
0.042359
0.0498756
0.0524121
0.0531328
0.0579951
0.104059
0.161657
0.188044
0.192635
0.190696
0.183854
0.160157
0.133172
0.120639
0.118936
0.114843
0.111089
0.111848
0.121685
0.135786
0.131938
0.120537
0.120542
0.140735
0.178476
0.179825
0.156673
0.126405
0.11925
0.123398
0.129033
0.128463
0.119186
0.102204
0.0914179
0.0762459
0.0639286
0.0545111
0.0483937
0.043691
0.0397554
0.038369
0.0385871
0.0419164
0.0433688
0.0443031
0.0472476
0.0529924
0.0564637
0.0604205
0.0700732
0.116794
0.16593
0.172012
0.152532
0.134421
0.138947
0.159737
0.172647
0.167472
0.154669
0.132645
0.118682
0.0998996
0.0985342
0.0986162
0.102376
0.108453
0.106034
0.0929135
0.087342
0.0806762
0.0774463
0.0714105
0.0648716
0.0626976
0.0623201
0.0624706
0.0621478
0.0591841
0.0520484
0.0518958
0.0489165
0.0446538
0.0438815
0.045968
0.0558754
0.0627111
0.0726884
0.0778899
0.0819981
0.0893329
0.0895315
0.102004
0.107786
0.143882
0.158443
0.191928
0.147943
0.145124
0.139159
0.136413
0.131005
0.127675
0.122178
0.117687
0.112735
0.104918
0.10141
0.0933481
0.0886013
0.0842423
0.077865
0.0751869
0.0700049
0.0657126
0.0613444
0.0586509
0.0539283
0.050982
0.0475093
0.0414854
0.038546
0.0348838
0.0318544
0.0310271
0.0308666
0.0311505
0.0317883
0.0333309
0.0373044
0.04107
0.047688
0.0641803
0.0760928
0.0949727
0.123622
0.137895
0.163575
0.176171
0.178372
0.176521
0.164497
0.1494
0.129154
0.101741
0.0808527
0.0603029
0.0435802
0.0305389
0.0204612
0.0135933
0.00887422
0.00585481
0.00388434
0.00289363
0.00242781
0.00213747
0.00210868
0.0021387
0.00228356
0.00279149
0.00320989
0.00348749
0.00362765
0.00362759
0.00359447
0.00355393
0.00356471
0.003603
0.00367682
0.00383024
0.00402835
0.00424352
0.00464538
0.00506872
0.00572688
0.00743949
0.00888837
0.0112343
0.017461
0.0211002
0.0291001
0.037917
0.0412491
0.0456308
0.0456134
0.0431902
0.0388455
0.0357369
0.0310328
0.0267368
0.0248227
0.0214527
0.0177967
0.0179819
0.0191378
0.0202442
0.0228889
0.0281131
0.0420435
0.0556145
0.0604939
0.0601448
0.0604187
0.0787682
0.126527
0.16355
0.183553
0.187334
0.186929
0.17514
0.155306
0.15002
0.144133
0.133447
0.131246
0.133775
0.149318
0.148916
0.133967
0.125119
0.130351
0.173102
0.200398
0.191103
0.146834
0.123705
0.123297
0.133588
0.136335
0.133727
0.115747
0.0996987
0.0875064
0.0733418
0.062492
0.0533349
0.047603
0.0429431
0.0392491
0.038181
0.0390177
0.0430708
0.0434341
0.0437327
0.0457307
0.0512655
0.0552958
0.0596127
0.0731687
0.122419
0.168804
0.176334
0.152348
0.131412
0.124345
0.132234
0.164653
0.164468
0.159783
0.14982
0.135086
0.12194
0.115118
0.112098
0.108341
0.103994
0.0943826
0.0836656
0.0850292
0.0826304
0.0755715
0.0698415
0.0654792
0.0623716
0.0640181
0.0636421
0.0614941
0.0562014
0.0487317
0.0469344
0.0442702
0.0428158
0.0410741
0.0442721
0.0477042
0.0600118
0.0600315
0.066657
0.0655311
0.0724106
0.0717722
0.0831489
0.088964
0.134528
0.14345
0.162545
0.0233697
0.0229808
0.0220146
0.0216833
0.0210201
0.0207753
0.0202774
0.0198755
0.0194206
0.0183262
0.017822
0.0166063
0.0158742
0.0151071
0.0141487
0.0135724
0.0127437
0.0119145
0.0113653
0.0109581
0.0104858
0.0101127
0.00941936
0.00857823
0.00773946
0.00701788
0.00647405
0.00634802
0.00640011
0.0065409
0.00673274
0.00710761
0.0079082
0.00897159
0.0104746
0.0149483
0.0187295
0.0225479
0.0328739
0.0370181
0.044437
0.0504539
0.0506316
0.0500962
0.0472378
0.0408137
0.0346519
0.0269672
0.0204922
0.0148285
0.0104643
0.00714877
0.00476992
0.00329722
0.00239686
0.00189258
0.00173141
0.00173255
0.00178224
0.00190246
0.00216225
0.00257356
0.00361898
0.0047915
0.00552922
0.00593759
0.00635663
0.00652199
0.00664527
0.00666699
0.00652383
0.00640332
0.00640599
0.00651237
0.00689725
0.00734806
0.00832668
0.00935908
0.0112522
0.0148425
0.0188224
0.0279311
0.0429097
0.0540499
0.0777452
0.0935222
0.100819
0.10375
0.102336
0.0947277
0.0849993
0.0736436
0.0577525
0.0463602
0.0388968
0.0336097
0.031002
0.0306375
0.0306594
0.0278648
0.0271457
0.0293022
0.040709
0.06099
0.0685189
0.0674017
0.0651964
0.0706771
0.103608
0.141484
0.168568
0.182045
0.185431
0.183909
0.179542
0.174536
0.16082
0.153405
0.153206
0.163663
0.166133
0.155787
0.132437
0.130074
0.151193
0.211312
0.216236
0.187961
0.135634
0.124127
0.131627
0.145703
0.145526
0.136495
0.110204
0.0986581
0.0856807
0.0723263
0.0622462
0.0531313
0.0473986
0.0430093
0.0396666
0.0388807
0.0401824
0.0431073
0.0430661
0.0430883
0.0444105
0.0495685
0.0541256
0.0594995
0.0792685
0.133718
0.170437
0.178502
0.150816
0.120823
0.114666
0.119684
0.156052
0.159998
0.1588
0.153935
0.13916
0.131124
0.118535
0.110206
0.100618
0.0902542
0.0897107
0.0846398
0.0864074
0.0831523
0.0753955
0.0688347
0.0675486
0.0658879
0.0670788
0.0670645
0.0608918
0.0560911
0.0498967
0.0464772
0.0441742
0.0418372
0.041905
0.0428556
0.0539856
0.0584713
0.0580361
0.058832
0.0608161
0.0662517
0.0698477
0.0877835
0.0933022
0.121674
0.143777
0.156149
0.00246812
0.00246127
0.00241769
0.00237007
0.00228767
0.00225675
0.00219246
0.0021613
0.00211943
0.00201896
0.00195694
0.0018657
0.00178404
0.00174028
0.00163402
0.00156743
0.00148995
0.00140687
0.00136537
0.00131024
0.00129265
0.0012684
0.00122524
0.00113924
0.00102226
0.000938526
0.000875217
0.000866357
0.000873045
0.000897854
0.000927651
0.000983975
0.00109414
0.00130106
0.00155195
0.00234066
0.00333649
0.00399869
0.0061236
0.00743441
0.00887076
0.0104505
0.0104587
0.0101434
0.00918385
0.00773672
0.00634872
0.00483291
0.00362421
0.00268618
0.00196719
0.00148681
0.00131951
0.00128912
0.00131901
0.00143601
0.00168501
0.00215863
0.00299535
0.00381861
0.0051257
0.00686745
0.00861926
0.0102842
0.0114295
0.0122068
0.0125864
0.0125976
0.0125554
0.0120837
0.0114827
0.0114093
0.0114431
0.0117736
0.0124587
0.0132589
0.0150271
0.0174456
0.021382
0.0296978
0.042628
0.0737101
0.104691
0.143777
0.176477
0.198669
0.199884
0.197699
0.191295
0.173475
0.156997
0.140117
0.112254
0.0882317
0.0682968
0.0514791
0.0422857
0.0412937
0.042698
0.0420224
0.036761
0.0355582
0.0426701
0.067417
0.075622
0.0738186
0.0700335
0.0724741
0.100183
0.139925
0.166047
0.179417
0.186402
0.188195
0.188943
0.186717
0.178676
0.177366
0.182342
0.184026
0.177382
0.146174
0.132005
0.138546
0.197701
0.23914
0.228344
0.167892
0.130502
0.129053
0.146438
0.158509
0.15586
0.133085
0.108383
0.0990343
0.0834903
0.0723963
0.0652051
0.0552764
0.0486443
0.0435923
0.0402076
0.0397084
0.040463
0.0416234
0.0415725
0.0418572
0.0439757
0.0489963
0.0538004
0.0604655
0.0886028
0.146756
0.172036
0.17615
0.146716
0.108977
0.107324
0.118159
0.137329
0.153871
0.153417
0.150207
0.137425
0.130881
0.109735
0.0955777
0.094732
0.0891862
0.0928473
0.0899478
0.0882184
0.0806775
0.076022
0.0708228
0.0705412
0.0691586
0.0693267
0.0681016
0.0617642
0.0503321
0.0527813
0.0464797
0.0468649
0.0421973
0.0475026
0.0462777
0.0593436
0.057778
0.0596592
0.0607141
0.0669731
0.0742463
0.0782388
0.0951438
0.101101
0.110814
0.137698
0.153172
0.000204977
0.000207262
0.000213733
0.000213186
0.000211317
0.00020859
0.000204457
0.000201822
0.000200703
0.000199336
0.000198883
0.000197675
0.000196883
0.000196439
0.00019505
0.000193881
0.000189063
0.000185087
0.000177685
0.000175963
0.000173001
0.000172077
0.00017271
0.000170116
0.000166443
0.00016204
0.000160075
0.000161194
0.000163481
0.000164249
0.000171371
0.00017572
0.000185351
0.000206208
0.000234187
0.000325662
0.000458148
0.000560849
0.000904131
0.00111744
0.00136555
0.00152326
0.00149117
0.00138313
0.00126156
0.00110274
0.000936757
0.000827399
0.000786059
0.000785094
0.000819814
0.000916903
0.00116629
0.00158208
0.00230239
0.00356589
0.00518434
0.00716563
0.00952413
0.0122774
0.0152343
0.0180788
0.0205175
0.0224779
0.0236912
0.0240419
0.0240179
0.0237556
0.0228602
0.0215663
0.0205228
0.0200195
0.0200142
0.0203246
0.0210941
0.0227955
0.0265395
0.0323159
0.0435928
0.0679729
0.115665
0.1876
0.243728
0.273299
0.276196
0.272978
0.264217
0.256902
0.245718
0.225999
0.21358
0.194926
0.165087
0.141306
0.116022
0.0899815
0.0706098
0.0621821
0.0584784
0.0520101
0.0456773
0.0439921
0.0497295
0.0768593
0.0853968
0.0837504
0.0806337
0.0842148
0.111653
0.145845
0.166701
0.17885
0.189225
0.197583
0.202163
0.201081
0.200391
0.201884
0.201629
0.195213
0.162934
0.137094
0.135999
0.166983
0.252281
0.258802
0.220758
0.146959
0.129514
0.136884
0.167513
0.173055
0.162861
0.130937
0.110315
0.0985834
0.0830081
0.0797516
0.0694075
0.0569744
0.0506824
0.0453504
0.0415044
0.0400387
0.0400262
0.0401995
0.0406925
0.0414419
0.044148
0.0491011
0.0538791
0.0626486
0.100198
0.155893
0.17597
0.171491
0.133502
0.0963215
0.0953848
0.109271
0.111953
0.129777
0.12692
0.126451
0.120026
0.113585
0.103244
0.092635
0.0995617
0.0931513
0.0968757
0.0956466
0.0886038
0.0792875
0.0774046
0.0744905
0.0742398
0.0733963
0.0722862
0.0645639
0.0599217
0.0486201
0.0571671
0.0509665
0.050099
0.0468027
0.0513446
0.0502482
0.0563191
0.0571138
0.059029
0.0687012
0.0715302
0.0891995
0.093891
0.105328
0.117483
0.12363
0.131252
0.147699
8.9872e-05
9.07901e-05
9.4569e-05
9.77252e-05
9.75576e-05
9.70219e-05
9.72114e-05
9.79536e-05
0.000101531
0.000103785
0.000107331
0.000109668
0.000110698
0.000110626
0.000110326
0.000107975
0.000107193
0.000106951
0.000107025
0.000107346
0.000108828
0.000111324
0.000112999
0.000118477
0.000122715
0.000127986
0.000133753
0.000134672
0.000133818
0.000133905
0.000135264
0.000137366
0.000140292
0.00014225
0.000145777
0.000156478
0.000171625
0.000183949
0.000234668
0.000258648
0.000278637
0.000305318
0.000310625
0.000335749
0.000360989
0.000422268
0.000497555
0.000602685
0.000825064
0.00109229
0.00183013
0.00265379
0.00427987
0.00646816
0.00921306
0.0137247
0.0181825
0.0230902
0.0286408
0.033842
0.0386473
0.0429663
0.0454627
0.0458064
0.0456053
0.0447978
0.0437305
0.0414533
0.0378839
0.0354005
0.0336572
0.0329097
0.0329871
0.0338395
0.0362534
0.0404439
0.0488187
0.0658225
0.103137
0.190504
0.279737
0.321124
0.323211
0.316665
0.302952
0.290743
0.27817
0.270691
0.261167
0.252091
0.244657
0.230517
0.203316
0.180511
0.156028
0.120414
0.0956417
0.0886906
0.0820554
0.0653599
0.0546777
0.0525943
0.066006
0.0918024
0.0951208
0.0888386
0.0855703
0.0911614
0.120493
0.148523
0.166425
0.182097
0.196603
0.206296
0.212727
0.216758
0.217543
0.216409
0.210601
0.178946
0.145688
0.137482
0.14938
0.235588
0.281817
0.268462
0.188661
0.135734
0.130962
0.154639
0.184866
0.186026
0.16773
0.131874
0.112613
0.0987027
0.0898209
0.0851693
0.0714816
0.0603554
0.0542261
0.0467043
0.0421558
0.0399871
0.0397846
0.0401968
0.0408086
0.0415081
0.0447552
0.0495009
0.0545787
0.0683508
0.116858
0.162597
0.177693
0.164239
0.117945
0.0891337
0.081803
0.086548
0.0871295
0.0987463
0.0964906
0.0969249
0.106323
0.102659
0.104212
0.0985964
0.107887
0.103665
0.1025
0.0964945
0.0877974
0.0800775
0.0803796
0.0780028
0.0778575
0.0757829
0.0739331
0.0584236
0.0590062
0.0532089
0.0582532
0.0553593
0.0512204
0.0504424
0.0562538
0.0562426
0.0565738
0.0574439
0.060628
0.072309
0.0771859
0.0840925
0.0886552
0.100395
0.113894
0.12566
0.13369
0.145349
9.96313e-05
0.000100821
0.000104269
0.000109144
0.000111635
0.000114994
0.000116959
0.000118998
0.00012015
0.000121043
0.000122696
0.000124524
0.000131683
0.000138572
0.000152332
0.000167756
0.000179132
0.000197058
0.000205634
0.000216515
0.000231105
0.000242069
0.000273465
0.000293567
0.000323654
0.000351897
0.000372892
0.000384201
0.000380863
0.000375085
0.000366406
0.000360148
0.000355604
0.000352738
0.000345027
0.000340137
0.000325123
0.000300547
0.000299655
0.000303943
0.000312637
0.000337109
0.000396893
0.000556723
0.000710465
0.0011168
0.00155485
0.0023464
0.0036128
0.0050224
0.00840491
0.0117916
0.0170541
0.0241364
0.0326191
0.0432713
0.0540657
0.064636
0.0744502
0.0833993
0.0906269
0.092544
0.0920638
0.0904212
0.0864528
0.0815087
0.0749481
0.0666747
0.0614569
0.0573822
0.0542015
0.0538095
0.0542679
0.0562516
0.0611787
0.071232
0.0944618
0.147983
0.278653
0.350796
0.364644
0.357384
0.339233
0.317027
0.298364
0.285908
0.276728
0.267784
0.264621
0.265284
0.264016
0.257117
0.237897
0.223297
0.198023
0.158837
0.129642
0.118643
0.10331
0.0794793
0.0663159
0.0659877
0.0889111
0.105632
0.102934
0.0905419
0.0880869
0.0966069
0.124001
0.145129
0.164892
0.183736
0.196721
0.20647
0.215896
0.219318
0.219212
0.215095
0.184172
0.15247
0.142039
0.148333
0.20684
0.291807
0.296121
0.247395
0.157702
0.129661
0.135155
0.179079
0.205431
0.205705
0.177809
0.139451
0.11904
0.104951
0.0981282
0.091538
0.0754452
0.0658809
0.054906
0.0476781
0.0431439
0.0405813
0.0402058
0.0408818
0.0409323
0.0420169
0.0460773
0.0503084
0.0570297
0.0850945
0.133957
0.165971
0.175992
0.159221
0.108772
0.087707
0.0754504
0.0755357
0.0787399
0.083511
0.0844128
0.0875317
0.108173
0.10453
0.113062
0.11094
0.114413
0.111934
0.104201
0.0924316
0.0885589
0.0844732
0.0856772
0.0828062
0.082253
0.0777826
0.0691255
0.0538877
0.0580907
0.0548328
0.0538849
0.0511299
0.050818
0.0503232
0.0527716
0.0571581
0.0621793
0.0635298
0.0631889
0.0649477
0.0755012
0.0808032
0.0887446
0.110826
0.11931
0.128576
0.135388
0.144246
0.000235618
0.000257376
0.000273389
0.00031086
0.000356731
0.000403528
0.000437839
0.000464816
0.000483364
0.000503324
0.000529926
0.00057425
0.000685586
0.00075054
0.000876996
0.000986538
0.00108511
0.00118012
0.00124443
0.00129209
0.00142317
0.0015239
0.00170712
0.00187651
0.00198628
0.00217688
0.0022453
0.00230694
0.00235097
0.00234279
0.00231969
0.00225797
0.0021867
0.00211245
0.00198964
0.00184689
0.0016731
0.00155565
0.00152458
0.00153003
0.00159041
0.00178738
0.00233849
0.00306914
0.00408087
0.00622499
0.00794975
0.0116192
0.0161997
0.0219296
0.0321814
0.0430699
0.0565619
0.076165
0.095964
0.118949
0.140212
0.156115
0.174186
0.185639
0.186709
0.185047
0.179476
0.16897
0.155043
0.140274
0.122779
0.10899
0.100196
0.0918857
0.087448
0.0870171
0.0880128
0.0923264
0.102743
0.128559
0.205547
0.341367
0.394194
0.394267
0.38096
0.344183
0.305814
0.293864
0.288941
0.279436
0.274974
0.27113
0.260029
0.258664
0.260331
0.259049
0.25284
0.242494
0.214087
0.180704
0.165524
0.151844
0.119875
0.0930687
0.0824989
0.0865718
0.11192
0.117207
0.103821
0.0908491
0.090314
0.105632
0.126374
0.144218
0.165336
0.182909
0.19429
0.204949
0.210279
0.210293
0.207245
0.174438
0.147745
0.145376
0.153132
0.1949
0.287752
0.313085
0.295465
0.20062
0.136983
0.126363
0.145601
0.202278
0.234751
0.232112
0.19233
0.15042
0.126754
0.113934
0.109197
0.0999286
0.0823327
0.0681143
0.0539842
0.0476693
0.0440366
0.0424184
0.0418724
0.0416361
0.041496
0.0442597
0.0475675
0.0521866
0.0626244
0.0979111
0.147809
0.16938
0.172248
0.155334
0.107172
0.0882488
0.0753843
0.0753904
0.0797173
0.0817886
0.0878148
0.0934814
0.118674
0.115491
0.123753
0.123494
0.120261
0.113953
0.103309
0.0922843
0.093096
0.0903704
0.0912618
0.0862998
0.0845513
0.0710197
0.0599624
0.0499226
0.0547427
0.0518349
0.0511418
0.049142
0.0507883
0.0505929
0.0502745
0.0531524
0.0553011
0.0631325
0.0672043
0.0656358
0.0700149
0.084048
0.0988437
0.112279
0.133102
0.148266
0.147018
0.148439
0.00295253
0.00325807
0.0034729
0.00381229
0.00408524
0.00434395
0.00458149
0.00476932
0.00501392
0.0051673
0.00541641
0.00574798
0.00626461
0.00681035
0.00733841
0.00804911
0.00847509
0.00883481
0.00927931
0.00951537
0.0102081
0.0107382
0.01143
0.0122269
0.0125528
0.0130292
0.0132244
0.0134312
0.0134572
0.0133915
0.0132349
0.0128656
0.0124461
0.0119611
0.0113188
0.0106564
0.0100721
0.00990207
0.00994104
0.0101702
0.0107645
0.012223
0.0148465
0.0170627
0.0219825
0.0283462
0.034297
0.0465253
0.0603241
0.0765009
0.101806
0.127177
0.15997
0.204977
0.239968
0.278839
0.31268
0.340084
0.355977
0.356117
0.350971
0.339075
0.314323
0.28541
0.25773
0.228193
0.20217
0.181559
0.16313
0.14835
0.140156
0.138058
0.139586
0.147351
0.172285
0.267475
0.388633
0.420881
0.414992
0.389648
0.326288
0.28902
0.282678
0.286832
0.291522
0.29019
0.284916
0.275722
0.261479
0.245023
0.239318
0.242213
0.244664
0.240498
0.21914
0.193916
0.184074
0.176737
0.14519
0.110522
0.104242
0.120848
0.132787
0.122651
0.0941463
0.0846843
0.0878081
0.108896
0.127098
0.143226
0.161884
0.177258
0.18718
0.192133
0.19302
0.188525
0.149387
0.133381
0.137105
0.160712
0.207361
0.270813
0.320595
0.317223
0.245912
0.150455
0.118439
0.120706
0.160395
0.229868
0.270046
0.263318
0.21478
0.165696
0.136839
0.126336
0.120381
0.103695
0.084936
0.0688857
0.0558891
0.0509363
0.0482269
0.0464739
0.0446302
0.0431626
0.0444524
0.0462515
0.050513
0.0571952
0.0788462
0.126643
0.159785
0.173184
0.172114
0.154862
0.110672
0.0901796
0.0817164
0.085441
0.0893629
0.0937156
0.117527
0.121886
0.131838
0.127559
0.131412
0.128729
0.117883
0.110018
0.103048
0.0974811
0.100634
0.0978682
0.0954643
0.0861755
0.0758391
0.0570591
0.0536667
0.0500436
0.0523775
0.0500652
0.0479109
0.0487454
0.048357
0.054512
0.0533398
0.0561427
0.0566427