/*--------------------------------*- C++ -*----------------------------------*\
| =========                 |                                                 |
| \\      /  F ield         | OpenFOAM: The Open Source CFD Toolbox           |
|  \\    /   O peration     | Version:  2.4.0                                 |
|   \\  /    A nd           | Web:      www.OpenFOAM.org                      |
|    \\/     M anipulation  |                                                 |
\*---------------------------------------------------------------------------*/
FoamFile
{
    version     2.0;
    format      ascii;
    class       surfaceScalarField;
    location    "1.57";
    object      phi;
}
// * * * * * * * * * * * * * * * * * * * * * * * * * * * * * * * * * * * * * //

dimensions      [0 3 -1 0 0 0 0];

internalField   nonuniform List<scalar> 
17320
(
1.76379e-05
7.36207e-06
1.16182e-05
6.01975e-06
8.68424e-06
2.93394e-06
7.35547e-06
1.32877e-06
6.71653e-06
6.38942e-07
6.34628e-06
3.70251e-07
6.079e-06
2.67274e-07
5.86711e-06
2.11896e-07
5.70757e-06
1.59537e-07
5.59633e-06
1.11237e-07
5.47178e-06
1.24549e-07
5.39948e-06
7.23065e-08
5.31769e-06
8.17881e-08
5.24679e-06
7.08983e-08
5.14724e-06
9.95451e-08
5.12062e-06
2.66287e-08
5.02422e-06
9.63983e-08
5.07804e-06
-5.38185e-08
4.8421e-06
2.35935e-07
-6.38333e-07
5.48043e-06
2.54617e-05
6.90038e-06
2.3248e-05
8.2334e-06
2.09951e-05
5.18686e-06
1.93175e-05
3.00635e-06
1.80751e-05
1.88142e-06
1.71168e-05
1.32846e-06
1.63665e-05
1.01762e-06
1.5769e-05
8.09348e-07
1.53141e-05
6.14476e-07
1.49477e-05
4.77639e-07
1.4627e-05
4.45225e-07
1.43943e-05
3.04994e-07
1.41623e-05
3.13833e-07
1.39713e-05
2.61854e-07
1.37468e-05
3.24103e-07
1.36373e-05
1.36154e-07
1.3409e-05
3.24658e-07
1.34164e-05
-6.12337e-08
1.32889e-05
3.6346e-07
-8.97763e-07
1.35483e-05
2.66205e-05
5.2799e-06
2.71517e-05
7.70216e-06
2.6789e-05
5.54959e-06
2.62499e-05
3.54548e-06
2.56056e-05
2.52572e-06
2.48778e-05
2.0562e-06
2.41627e-05
1.73278e-06
2.34942e-05
1.47782e-06
2.29437e-05
1.16494e-06
2.24566e-05
9.64776e-07
2.20276e-05
8.7427e-07
2.16997e-05
6.3284e-07
2.13715e-05
6.41999e-07
2.11041e-05
5.29316e-07
2.0811e-05
6.1715e-07
2.06289e-05
3.18324e-07
2.03573e-05
5.96268e-07
2.02536e-05
4.23735e-08
2.02752e-05
3.41935e-07
-1.36734e-06
2.07448e-05
2.6324e-05
3.95585e-06
2.75312e-05
6.49504e-06
2.80943e-05
4.98645e-06
2.84624e-05
3.17744e-06
2.86496e-05
2.33843e-06
2.86299e-05
2.07598e-06
2.84811e-05
1.88151e-06
2.82208e-05
1.73811e-06
2.79745e-05
1.41126e-06
2.77042e-05
1.23509e-06
2.74184e-05
1.16009e-06
2.71935e-05
8.57725e-07
2.69321e-05
9.03407e-07
2.66952e-05
7.66183e-07
2.64469e-05
8.65442e-07
2.62449e-05
5.20332e-07
2.60402e-05
8.00943e-07
2.57524e-05
3.30228e-07
2.57343e-05
3.59973e-07
-9.85908e-07
2.53529e-05
2.60381e-05
2.91779e-06
2.72308e-05
5.30234e-06
2.80391e-05
4.17808e-06
2.85246e-05
2.69199e-06
2.89916e-05
1.87139e-06
2.93276e-05
1.74003e-06
2.95996e-05
1.60953e-06
2.97255e-05
1.61222e-06
2.98367e-05
1.30006e-06
2.99131e-05
1.15864e-06
2.99475e-05
1.1257e-06
2.9973e-05
8.32252e-07
2.99869e-05
8.89518e-07
2.99331e-05
8.19918e-07
2.99019e-05
8.96647e-07
2.9807e-05
6.15292e-07
2.98092e-05
7.98713e-07
2.94611e-05
6.78339e-07
2.94063e-05
4.14742e-07
-5.59128e-07
2.89795e-05
2.58308e-05
2.08703e-06
2.696e-05
4.17313e-06
2.77973e-05
3.34078e-06
2.82405e-05
2.2488e-06
2.87394e-05
1.3725e-06
2.90867e-05
1.39269e-06
2.94807e-05
1.21552e-06
2.97082e-05
1.38474e-06
2.99944e-05
1.0138e-06
3.01296e-05
1.02347e-06
3.04056e-05
8.4969e-07
3.05036e-05
7.34273e-07
3.07781e-05
6.15044e-07
3.08242e-05
7.738e-07
3.10341e-05
6.86688e-07
3.10222e-05
6.27181e-07
3.12653e-05
5.55712e-07
3.0955e-05
9.88572e-07
3.10105e-05
3.5924e-07
1.10581e-07
3.03408e-05
2.56821e-05
1.40491e-06
2.67526e-05
3.10262e-06
2.75932e-05
2.50024e-06
2.80303e-05
1.81166e-06
2.85201e-05
8.82697e-07
2.88181e-05
1.0947e-06
2.92206e-05
8.1304e-07
2.94718e-05
1.13351e-06
2.98386e-05
6.47054e-07
2.99202e-05
9.41879e-07
3.02577e-05
5.12165e-07
3.03336e-05
6.58362e-07
3.06636e-05
2.85006e-07
3.07422e-05
6.95227e-07
3.10554e-05
3.73531e-07
3.10621e-05
6.20396e-07
3.13861e-05
2.31759e-07
3.11213e-05
1.25337e-06
3.10773e-05
4.03259e-07
1.07321e-06
3.01147e-05
2.55533e-05
8.51592e-07
2.65844e-05
2.07154e-06
2.74487e-05
1.6359e-06
2.7989e-05
1.27138e-06
2.83265e-05
5.45215e-07
2.86935e-05
7.27722e-07
2.90134e-05
4.9312e-07
2.92911e-05
8.55847e-07
2.95934e-05
3.44679e-07
2.9871e-05
6.64281e-07
3.00884e-05
2.94843e-07
3.02152e-05
5.31541e-07
3.04017e-05
9.84979e-08
3.06557e-05
4.41229e-07
3.08318e-05
1.97414e-07
3.0988e-05
4.64185e-07
3.10287e-05
1.91081e-07
3.15366e-05
7.4543e-07
3.1959e-05
-1.91448e-08
2.91382e-07
3.27409e-05
2.54626e-05
3.88962e-07
2.6482e-05
1.05216e-06
2.73352e-05
7.82685e-07
2.79184e-05
6.88169e-07
2.82146e-05
2.49028e-07
2.85958e-05
3.4656e-07
2.88982e-05
1.9068e-07
2.92164e-05
5.37641e-07
2.94716e-05
8.94888e-08
2.96919e-05
4.4405e-07
2.99245e-05
6.21514e-08
3.02017e-05
2.54368e-07
3.02968e-05
3.4552e-09
3.05591e-05
1.78878e-07
3.06022e-05
1.54373e-07
3.0897e-05
1.69381e-07
3.10529e-05
3.519e-08
3.15314e-05
2.66901e-07
3.17299e-05
-2.17623e-07
3.52631e-09
3.20177e-05
2.54259e-05
-3.69479e-08
2.63939e-05
8.42121e-08
2.72738e-05
-9.72878e-08
2.79456e-05
1.64318e-08
2.82208e-05
-2.61874e-08
2.84605e-05
1.06863e-07
2.87644e-05
-1.13202e-07
2.92576e-05
4.43719e-08
2.94837e-05
-1.36546e-07
2.9593e-05
3.34717e-07
2.97908e-05
-1.35601e-07
3.02033e-05
-1.58185e-07
3.03532e-05
-1.46471e-07
3.04407e-05
9.14282e-08
3.05774e-05
1.76552e-08
3.08431e-05
-9.63362e-08
3.10462e-05
-1.67865e-07
3.14497e-05
-1.36591e-07
3.15989e-05
-3.66883e-07
-7.6268e-08
3.16787e-05
2.54099e-05
-4.46811e-07
2.64119e-05
-9.17845e-07
2.72848e-05
-9.70125e-07
2.79171e-05
-6.15924e-07
2.8195e-05
-3.04122e-07
2.85166e-05
-2.14682e-07
2.87642e-05
-3.60796e-07
2.92186e-05
-4.10027e-07
2.94076e-05
-3.25545e-07
2.96769e-05
6.53882e-08
2.98877e-05
-3.46379e-07
3.01443e-05
-4.14781e-07
3.02258e-05
-2.27987e-07
3.0453e-05
-1.35773e-07
3.06223e-05
-1.5159e-07
3.08803e-05
-3.54395e-07
3.10648e-05
-3.52344e-07
3.13164e-05
-3.88173e-07
3.15394e-05
-5.89916e-07
-4.79826e-07
3.1943e-05
2.54488e-05
-8.95605e-07
2.65161e-05
-1.98519e-06
2.7345e-05
-1.799e-06
2.78695e-05
-1.14044e-06
2.82139e-05
-6.4853e-07
2.86284e-05
-6.29147e-07
2.89078e-05
-6.40232e-07
2.91577e-05
-6.59908e-07
2.93702e-05
-5.37979e-07
2.98617e-05
-4.26138e-07
3.00376e-05
-5.22324e-07
3.01278e-05
-5.04943e-07
3.02034e-05
-3.03633e-07
3.04738e-05
-4.06101e-07
3.07621e-05
-4.39876e-07
3.09429e-05
-5.35289e-07
3.11022e-05
-5.11581e-07
3.13873e-05
-6.73277e-07
3.16819e-05
-8.84521e-07
-6.46742e-07
3.18488e-05
2.55444e-05
-1.44002e-06
2.66032e-05
-3.04392e-06
2.74089e-05
-2.60478e-06
2.80055e-05
-1.73705e-06
2.83387e-05
-9.81655e-07
2.87009e-05
-9.91399e-07
2.89975e-05
-9.36809e-07
2.92968e-05
-9.59169e-07
2.95575e-05
-7.98737e-07
2.9913e-05
-7.8166e-07
3.00299e-05
-6.39164e-07
3.02225e-05
-6.97617e-07
3.0387e-05
-4.6812e-07
3.06524e-05
-6.71451e-07
3.07992e-05
-5.86719e-07
3.09866e-05
-7.22624e-07
3.12223e-05
-7.47301e-07
3.15317e-05
-9.82661e-07
3.17307e-05
-1.08359e-06
-8.96471e-07
3.19805e-05
2.56748e-05
-2.11485e-06
2.67436e-05
-4.11268e-06
2.75828e-05
-3.44402e-06
2.80729e-05
-2.22708e-06
2.84884e-05
-1.39722e-06
2.88482e-05
-1.35119e-06
2.91521e-05
-1.24069e-06
2.94764e-05
-1.28343e-06
2.97673e-05
-1.08972e-06
3.00426e-05
-1.0569e-06
3.01841e-05
-7.80632e-07
3.0415e-05
-9.28588e-07
3.0598e-05
-6.51105e-07
3.07996e-05
-8.73083e-07
3.0924e-05
-7.11099e-07
3.11511e-05
-9.49716e-07
3.13578e-05
-9.53946e-07
3.16565e-05
-1.28139e-06
3.18124e-05
-1.23955e-06
-1.26969e-06
3.21857e-05
2.58369e-05
-2.95173e-06
2.69629e-05
-5.23874e-06
2.78121e-05
-4.29323e-06
2.82288e-05
-2.64375e-06
2.86952e-05
-1.8636e-06
2.90983e-05
-1.75434e-06
2.94416e-05
-1.58395e-06
2.97199e-05
-1.56173e-06
2.99915e-05
-1.36129e-06
3.01898e-05
-1.25523e-06
3.03782e-05
-9.69024e-07
3.053e-05
-1.0804e-06
3.07032e-05
-8.24311e-07
3.08349e-05
-1.00477e-06
3.09339e-05
-8.10082e-07
3.10919e-05
-1.10772e-06
3.11978e-05
-1.05985e-06
3.13572e-05
-1.44075e-06
3.14756e-05
-1.35795e-06
-1.60704e-06
3.18129e-05
2.60406e-05
-3.99229e-06
2.72485e-05
-6.44667e-06
2.80223e-05
-5.06708e-06
2.84889e-05
-3.11037e-06
2.8975e-05
-2.34966e-06
2.93251e-05
-2.10447e-06
2.95866e-05
-1.84544e-06
2.97341e-05
-1.70919e-06
2.98576e-05
-1.48476e-06
2.98955e-05
-1.29317e-06
2.99513e-05
-1.02479e-06
2.99324e-05
-1.06155e-06
2.99558e-05
-8.477e-07
2.98901e-05
-9.39078e-07
2.98556e-05
-7.75623e-07
2.97647e-05
-1.01675e-06
2.96556e-05
-9.50746e-07
2.95593e-05
-1.34453e-06
2.94345e-05
-1.23311e-06
-1.65254e-06
2.948e-05
2.63138e-05
-5.30611e-06
2.75437e-05
-7.67654e-06
2.80622e-05
-5.58558e-06
2.84508e-05
-3.499e-06
2.86423e-05
-2.54113e-06
2.86196e-05
-2.08178e-06
2.8477e-05
-1.70286e-06
2.82311e-05
-1.46331e-06
2.79614e-05
-1.21504e-06
2.76772e-05
-1.00898e-06
2.74286e-05
-7.76128e-07
2.71387e-05
-7.71713e-07
2.69065e-05
-6.1544e-07
2.66266e-05
-6.59241e-07
2.63998e-05
-5.48734e-07
2.60989e-05
-7.15861e-07
2.58283e-05
-6.80146e-07
2.5466e-05
-9.82313e-07
2.51795e-05
-9.46523e-07
-1.4538e-06
2.49807e-05
2.6609e-05
-6.91509e-06
2.71566e-05
-8.22419e-06
2.67688e-05
-5.19771e-06
2.62539e-05
-2.98417e-06
2.55989e-05
-1.88606e-06
2.4867e-05
-1.34991e-06
2.41615e-05
-9.97357e-07
2.35014e-05
-8.0326e-07
2.29231e-05
-6.36708e-07
2.24328e-05
-5.18668e-07
2.2031e-05
-3.74285e-07
2.16479e-05
-3.88657e-07
2.13391e-05
-3.06629e-07
2.10199e-05
-3.40019e-07
2.07526e-05
-2.81475e-07
2.04238e-05
-3.87063e-07
2.01246e-05
-3.80935e-07
1.96821e-05
-5.39863e-07
1.92746e-05
-5.38957e-07
-5.66374e-07
1.83872e-05
2.54519e-05
-7.36702e-06
2.32451e-05
-6.01739e-06
2.09824e-05
-2.93501e-06
1.93218e-05
-1.3235e-06
1.80734e-05
-6.37665e-07
1.71061e-05
-3.8263e-07
1.63672e-05
-2.58483e-07
1.57722e-05
-2.08211e-07
1.52999e-05
-1.6448e-07
1.49201e-05
-1.38796e-07
1.46309e-05
-8.5136e-08
1.43506e-05
-1.08317e-07
1.41259e-05
-8.19421e-08
1.3888e-05
-1.02121e-07
1.36869e-05
-8.03731e-08
1.34261e-05
-1.26294e-07
1.31715e-05
-1.26292e-07
1.28163e-05
-1.84734e-07
1.25044e-05
-2.27037e-07
-1.18761e-07
1.20568e-05
1.7633e-05
1.16156e-05
8.68059e-06
7.35708e-06
6.71942e-06
6.33679e-06
6.07831e-06
5.87009e-06
5.70562e-06
5.56682e-06
5.48168e-06
5.37337e-06
5.29142e-06
5.1893e-06
5.10893e-06
4.98264e-06
4.85634e-06
4.67161e-06
4.44457e-06
4.32581e-06
5.93437e-06
-3.77682e-07
-7.6257e-08
6.2992e-06
-1.64958e-07
-1.9987e-07
6.5893e-06
-1.35674e-08
-2.76531e-07
6.83041e-06
1.04033e-07
-3.45147e-07
7.11314e-06
9.98749e-08
-3.82604e-07
7.43504e-06
5.42967e-08
-3.76192e-07
7.74408e-06
-1.67394e-08
-2.92301e-07
8.04385e-06
-9.42139e-08
-2.05562e-07
8.30414e-06
-1.49976e-07
-1.10314e-07
8.54545e-06
-1.87742e-07
-5.35636e-08
8.76926e-06
-2.01783e-07
-2.20305e-08
9.0018e-06
-2.1697e-07
-1.55666e-08
9.23767e-06
-2.14953e-07
-2.09154e-08
9.48809e-06
-2.19554e-07
-3.08658e-08
9.76285e-06
-2.56578e-07
-1.81842e-08
1.00505e-05
-2.83446e-07
-4.20248e-09
1.03771e-05
-3.73987e-07
4.73576e-08
1.07192e-05
-4.88692e-07
1.46605e-07
1.10592e-05
-6.49546e-07
3.09596e-07
1.13976e-05
-8.81734e-07
5.43264e-07
1.17032e-05
-1.14246e-06
8.36936e-07
1.19649e-05
-1.4677e-06
1.20593e-06
1.21462e-05
-1.78889e-06
1.60757e-06
1.22559e-05
-2.17086e-06
2.06125e-06
1.22441e-05
-2.49452e-06
2.50624e-06
1.21101e-05
-2.78229e-06
2.91628e-06
1.18389e-05
-3.02425e-06
3.29546e-06
1.13677e-05
-3.07891e-06
3.55011e-06
1.06465e-05
-2.9786e-06
3.69978e-06
9.64166e-06
-2.62299e-06
3.62787e-06
8.51089e-06
-2.19684e-06
3.32761e-06
7.56258e-06
-1.63259e-06
2.5809e-06
7.13723e-06
-9.57482e-07
1.38284e-06
7.34847e-06
4.96209e-08
-2.60857e-07
7.99695e-06
1.4932e-06
-2.14168e-06
8.92119e-06
3.03509e-06
-3.95934e-06
9.86911e-06
4.67842e-06
-5.62634e-06
1.08122e-05
5.97254e-06
-6.91566e-06
1.19306e-05
6.62226e-06
-7.74061e-06
1.29777e-05
7.13654e-06
-8.18362e-06
1.38326e-05
7.06395e-06
-7.91886e-06
1.49089e-05
6.22556e-06
-7.30189e-06
1.60146e-05
5.53718e-06
-6.64289e-06
1.66974e-05
4.6488e-06
-5.33159e-06
1.75365e-05
3.06093e-06
-3.89999e-06
1.86181e-05
2.01745e-06
-3.09905e-06
1.92381e-05
1.1822e-06
-1.80225e-06
1.97778e-05
-1.66347e-07
-3.73371e-07
2.07483e-05
-1.12734e-06
1.56823e-07
2.15344e-05
-1.80918e-06
1.02316e-06
2.21064e-05
-2.31225e-06
1.7402e-06
2.30104e-05
-3.08117e-06
2.1772e-06
2.39138e-05
-4.04992e-06
3.14651e-06
2.49026e-05
-4.76371e-06
3.77488e-06
2.60294e-05
-5.78059e-06
4.65381e-06
2.7088e-05
-6.58415e-06
5.52552e-06
2.81849e-05
-7.36403e-06
6.26718e-06
2.90116e-05
-8.5259e-06
7.6992e-06
2.99039e-05
-9.24159e-06
8.34933e-06
3.05884e-05
-9.58049e-06
8.89596e-06
3.08192e-05
-1.01256e-05
9.89476e-06
3.11755e-05
-9.95897e-06
9.60274e-06
3.10231e-05
-9.67342e-06
9.82576e-06
3.0703e-05
-9.57834e-06
9.89844e-06
3.04304e-05
-8.76555e-06
9.03818e-06
2.99735e-05
-8.55828e-06
9.01523e-06
2.96367e-05
-7.92762e-06
8.26433e-06
2.91928e-05
-7.41508e-06
7.85898e-06
2.89405e-05
-7.37042e-06
7.6228e-06
2.87436e-05
-6.89239e-06
7.08928e-06
2.85155e-05
-7.04738e-06
7.27549e-06
2.83636e-05
-6.86289e-06
7.01476e-06
2.8109e-05
-6.93281e-06
7.18735e-06
2.78968e-05
-7.12873e-06
7.34096e-06
2.75512e-05
-7.08298e-06
7.42856e-06
2.72273e-05
-7.38821e-06
7.71216e-06
2.71305e-05
-7.42892e-06
7.52564e-06
2.70399e-05
-7.49833e-06
7.58898e-06
2.70156e-05
-7.63838e-06
7.66266e-06
2.70831e-05
-7.49082e-06
7.42335e-06
2.71472e-05
-7.30439e-06
7.24028e-06
2.73506e-05
-7.359e-06
7.15557e-06
2.74475e-05
-6.70655e-06
6.60966e-06
2.72984e-05
-6.27096e-06
6.42007e-06
2.73789e-05
-5.78957e-06
5.70911e-06
2.73439e-05
-4.66333e-06
4.69836e-06
2.71712e-05
-3.83845e-06
4.01111e-06
2.70707e-05
-2.85486e-06
2.95535e-06
2.68928e-05
-1.47504e-06
1.65293e-06
2.64921e-05
-2.95139e-07
6.95828e-07
2.61103e-05
7.73704e-07
-3.91857e-07
2.55771e-05
2.31276e-06
-1.77953e-06
2.47004e-05
3.43215e-06
-2.55544e-06
2.4045e-05
3.66086e-06
-3.00553e-06
2.39422e-05
4.44465e-06
-4.34183e-06
2.34351e-05
5.72234e-06
-5.21523e-06
2.23828e-05
5.56495e-06
-4.51267e-06
2.16309e-05
4.2587e-06
-3.50683e-06
2.18308e-05
3.83024e-06
-4.03008e-06
2.20817e-05
4.89167e-06
-5.14259e-06
2.17088e-05
5.92423e-06
-5.55128e-06
2.09512e-05
5.87533e-06
-5.11777e-06
2.0717e-05
5.19215e-06
-4.95795e-06
2.15177e-05
4.26281e-06
-5.0635e-06
2.33202e-05
3.76322e-06
-5.56573e-06
2.55359e-05
4.9974e-06
-7.21315e-06
2.74925e-05
6.97122e-06
-8.92777e-06
2.89965e-05
8.6681e-06
-1.01721e-05
2.99405e-05
9.66726e-06
-1.06112e-05
3.04248e-05
1.06483e-05
-1.11326e-05
3.01536e-05
1.10409e-05
-1.07697e-05
2.96277e-05
9.87976e-06
-9.35383e-06
2.88627e-05
7.86754e-06
-7.10258e-06
2.80657e-05
5.78076e-06
-4.98375e-06
2.7155e-05
3.41637e-06
-2.50565e-06
2.64542e-05
1.58594e-07
5.42215e-07
2.57308e-05
-3.64459e-06
4.36803e-06
2.49964e-05
-7.02626e-06
7.76061e-06
2.41752e-05
-9.01741e-06
9.83862e-06
2.37447e-05
-1.11957e-05
1.16263e-05
2.34918e-05
-1.44166e-05
1.46695e-05
2.32728e-05
-1.72065e-05
1.74254e-05
2.29113e-05
-1.9081e-05
1.94426e-05
2.25752e-05
-2.02258e-05
2.05619e-05
2.2263e-05
-2.15194e-05
2.18316e-05
2.18303e-05
-2.18772e-05
2.23099e-05
2.12669e-05
-2.13609e-05
2.19243e-05
2.03963e-05
-1.98062e-05
2.06768e-05
1.94933e-05
-1.75102e-05
1.84132e-05
1.88237e-05
-1.55639e-05
1.62335e-05
1.86243e-05
-1.48631e-05
1.50625e-05
1.90319e-05
-1.46251e-05
1.42176e-05
2.00129e-05
-1.53635e-05
1.43825e-05
2.13133e-05
-1.64585e-05
1.5158e-05
2.26234e-05
-1.77065e-05
1.63964e-05
2.37274e-05
-1.80282e-05
1.69242e-05
2.45396e-05
-1.74559e-05
1.66437e-05
2.52112e-05
-1.66506e-05
1.5979e-05
2.57266e-05
-1.52018e-05
1.46864e-05
2.60973e-05
-1.31401e-05
1.27693e-05
2.62365e-05
-1.07853e-05
1.06461e-05
2.60402e-05
-7.97619e-06
8.17252e-06
2.55061e-05
-4.40782e-06
4.94187e-06
2.485e-05
-3.77454e-07
1.03352e-06
2.43781e-05
2.58235e-06
-2.11036e-06
2.38485e-05
5.41999e-06
-4.8904e-06
2.32269e-05
9.66306e-06
-9.04152e-06
2.22534e-05
1.43132e-05
-1.33397e-05
2.12711e-05
1.68972e-05
-1.59149e-05
2.02538e-05
1.95263e-05
-1.85089e-05
1.92397e-05
2.21936e-05
-2.11794e-05
1.84391e-05
2.48529e-05
-2.40523e-05
1.74564e-05
2.77132e-05
-2.67305e-05
1.66831e-05
2.94147e-05
-2.86414e-05
1.55993e-05
2.8901e-05
-2.78173e-05
1.45018e-05
2.49567e-05
-2.38592e-05
1.41151e-05
2.10191e-05
-2.06323e-05
1.41977e-05
2.13558e-05
-2.14385e-05
1.4802e-05
2.36869e-05
-2.42912e-05
1.52308e-05
2.60438e-05
-2.64726e-05
1.53345e-05
2.61789e-05
-2.62826e-05
1.54801e-05
2.46396e-05
-2.47852e-05
1.61655e-05
2.24862e-05
-2.31716e-05
1.66277e-05
2.07076e-05
-2.11697e-05
1.7706e-05
1.75251e-05
-1.86034e-05
1.84892e-05
1.45942e-05
-1.53773e-05
1.94224e-05
1.18824e-05
-1.28157e-05
1.96245e-05
1.00514e-05
-1.02535e-05
1.99791e-05
6.4066e-06
-6.76118e-06
1.99429e-05
5.78787e-06
-5.75172e-06
2.09945e-05
4.08341e-07
-1.45994e-06
2.04637e-05
4.68689e-07
6.21024e-08
2.07012e-05
-5.05098e-06
4.81354e-06
1.90564e-05
-4.80338e-07
2.12512e-06
1.97513e-05
-8.53801e-06
7.84304e-06
1.83503e-05
-2.92212e-06
4.3232e-06
1.97114e-05
-1.1457e-05
1.00959e-05
1.86417e-05
-5.11819e-06
6.18789e-06
1.98372e-05
-1.26606e-05
1.1465e-05
1.88288e-05
-7.62019e-06
8.62866e-06
1.96469e-05
-1.0819e-05
1.00009e-05
1.89461e-05
-7.30339e-06
8.00411e-06
1.97797e-05
-9.35487e-06
8.52129e-06
1.90031e-05
-6.28228e-06
7.05885e-06
1.92447e-05
-5.78754e-06
5.54598e-06
1.85559e-05
-3.16283e-06
3.85167e-06
1.87459e-05
-2.74153e-06
2.55153e-06
1.835e-05
-1.7546e-06
2.15046e-06
1.85353e-05
-1.34817e-06
1.16289e-06
1.76909e-05
5.38436e-07
3.0595e-07
1.77711e-05
2.69596e-06
-2.77613e-06
1.69571e-05
5.07992e-06
-4.26594e-06
1.74601e-05
6.93372e-06
-7.43674e-06
1.61321e-05
8.75488e-06
-7.42692e-06
1.66744e-05
8.0403e-06
-8.58252e-06
1.59109e-05
1.107e-05
-1.03065e-05
1.5948e-05
1.04154e-05
-1.04525e-05
1.43812e-05
1.58883e-05
-1.43215e-05
1.52836e-05
1.7777e-05
-1.86794e-05
2.96654e-05
-2.90717e-05
1.46899e-05
1.35758e-05
-4.05174e-07
1.36138e-05
-2.0299e-07
1.36465e-05
-4.61779e-08
1.37226e-05
2.78597e-08
1.38483e-05
-2.58402e-08
1.40209e-05
-1.18232e-07
1.42088e-05
-2.04693e-07
1.44054e-05
-2.90798e-07
1.45829e-05
-3.27468e-07
1.47635e-05
-3.68335e-07
1.49318e-05
-3.70078e-07
1.51219e-05
-4.0708e-07
1.53268e-05
-4.19848e-07
1.55343e-05
-4.27103e-07
1.57914e-05
-5.13622e-07
1.60356e-05
-5.27694e-07
1.63136e-05
-6.51986e-07
1.66126e-05
-7.87638e-07
1.68967e-05
-9.33682e-07
1.71834e-05
-1.1684e-06
1.74348e-05
-1.3939e-06
1.76542e-05
-1.68704e-06
1.77789e-05
-1.91365e-06
1.78519e-05
-2.24385e-06
1.78065e-05
-2.44912e-06
1.76174e-05
-2.59321e-06
1.73297e-05
-2.7365e-06
1.68781e-05
-2.62736e-06
1.63467e-05
-2.44713e-06
1.5782e-05
-2.05835e-06
1.51565e-05
-1.57131e-06
1.44048e-05
-8.80887e-07
1.347e-05
-2.27259e-08
1.2737e-05
7.82628e-07
1.24165e-05
1.81375e-06
1.26522e-05
2.79934e-06
1.35171e-05
3.81359e-06
1.46062e-05
4.88346e-06
1.57314e-05
5.49696e-06
1.7074e-05
5.79397e-06
1.82811e-05
5.85691e-06
1.91899e-05
5.31668e-06
2.01876e-05
4.53946e-06
2.11433e-05
3.69318e-06
2.1802e-05
2.40215e-06
2.24778e-05
1.34167e-06
2.32913e-05
3.68698e-07
2.37114e-05
-5.8639e-07
2.42054e-05
-1.62132e-06
2.50568e-05
-2.66059e-06
2.58436e-05
-3.09906e-06
2.66801e-05
-3.91772e-06
2.77841e-05
-5.15391e-06
2.89075e-05
-5.88707e-06
2.97707e-05
-6.64378e-06
3.07812e-05
-7.59468e-06
3.17941e-05
-8.37693e-06
3.22767e-05
-9.00855e-06
3.2827e-05
-9.79186e-06
3.29459e-05
-9.69943e-06
3.24627e-05
-9.64241e-06
3.21781e-05
-9.67435e-06
3.16548e-05
-9.15006e-06
3.11487e-05
-9.07227e-06
3.07118e-05
-8.32865e-06
3.0076e-05
-7.92252e-06
2.95902e-05
-7.44185e-06
2.90414e-05
-6.86619e-06
2.85821e-05
-6.91112e-06
2.80928e-05
-6.40316e-06
2.76613e-05
-6.61585e-06
2.74515e-05
-6.6531e-06
2.71535e-05
-6.6348e-06
2.70591e-05
-7.03428e-06
2.6915e-05
-6.93889e-06
2.68024e-05
-7.27567e-06
2.67707e-05
-7.39721e-06
2.6533e-05
-7.26064e-06
2.64714e-05
-7.57673e-06
2.65377e-05
-7.55715e-06
2.64733e-05
-7.23996e-06
2.64556e-05
-7.34135e-06
2.65491e-05
-6.80003e-06
2.64978e-05
-6.21969e-06
2.65718e-05
-5.86356e-06
2.66132e-05
-4.70465e-06
2.65533e-05
-3.77858e-06
2.66797e-05
-2.98127e-06
2.6747e-05
-1.54231e-06
2.6537e-05
-8.51827e-08
2.64307e-05
8.8e-07
2.64797e-05
2.26379e-06
2.62169e-05
3.69494e-06
2.56155e-05
4.2622e-06
2.51919e-05
4.86832e-06
2.47585e-05
6.15571e-06
2.39556e-05
6.36786e-06
2.31563e-05
5.05796e-06
2.30127e-05
3.97384e-06
2.33063e-05
4.5981e-06
2.3247e-05
5.98354e-06
2.25189e-05
6.60343e-06
2.15777e-05
6.1333e-06
2.1432e-05
4.40855e-06
2.24791e-05
2.71615e-06
2.46688e-05
2.80764e-06
2.69874e-05
4.65268e-06
2.8991e-05
6.66446e-06
3.04303e-05
8.22797e-06
3.13735e-05
9.70504e-06
3.15495e-05
1.08649e-05
3.12662e-05
1.0163e-05
3.06627e-05
8.47107e-06
2.98355e-05
6.60791e-06
2.898e-05
4.2719e-06
2.81777e-05
9.60934e-07
2.72703e-05
-2.73715e-06
2.62754e-05
-6.0314e-06
2.53444e-05
-8.08647e-06
2.4972e-05
-1.08233e-05
2.46425e-05
-1.40872e-05
2.42991e-05
-1.6863e-05
2.36944e-05
-1.84764e-05
2.32415e-05
-1.97729e-05
2.27504e-05
-2.10283e-05
2.20812e-05
-2.1208e-05
2.11898e-05
-2.04695e-05
1.99102e-05
-1.85267e-05
1.88315e-05
-1.64314e-05
1.82059e-05
-1.49383e-05
1.81399e-05
-1.47971e-05
1.86478e-05
-1.51331e-05
1.96038e-05
-1.63194e-05
2.08593e-05
-1.7714e-05
2.20219e-05
-1.88691e-05
2.2824e-05
-1.88303e-05
2.34131e-05
-1.8045e-05
2.38894e-05
-1.71269e-05
2.42033e-05
-1.55157e-05
2.43443e-05
-1.32811e-05
2.42384e-05
-1.06794e-05
2.39093e-05
-7.64709e-06
2.33125e-05
-3.81098e-06
2.26483e-05
2.86696e-07
2.21938e-05
3.0369e-06
2.17305e-05
5.88332e-06
2.09364e-05
1.04572e-05
2.01313e-05
1.51182e-05
1.93971e-05
1.76314e-05
1.86861e-05
2.02373e-05
1.77733e-05
2.31064e-05
1.70777e-05
2.55485e-05
1.64458e-05
2.8345e-05
1.56668e-05
3.01938e-05
1.51643e-05
2.94035e-05
1.4305e-05
2.5816e-05
1.35633e-05
2.17608e-05
1.41979e-05
2.07213e-05
1.51e-05
2.27848e-05
1.58005e-05
2.53432e-05
1.64231e-05
2.55564e-05
1.65794e-05
2.44833e-05
1.73703e-05
2.16953e-05
1.77179e-05
2.036e-05
1.86645e-05
1.65785e-05
1.92066e-05
1.40521e-05
1.98939e-05
1.11951e-05
2.0149e-05
9.79626e-06
2.10582e-05
5.49744e-06
2.10459e-05
5.80018e-06
2.20484e-05
-5.94212e-07
2.08415e-05
1.67561e-06
2.12227e-05
-5.43224e-06
1.94692e-05
1.27317e-06
2.07165e-05
-9.78532e-06
1.94224e-05
-1.62796e-06
2.09177e-05
-1.29523e-05
1.95399e-05
-3.74042e-06
2.08484e-05
-1.39691e-05
1.98402e-05
-6.61193e-06
2.13632e-05
-1.2342e-05
2.02462e-05
-6.18637e-06
2.12684e-05
-1.03771e-05
1.97471e-05
-4.76096e-06
2.04721e-05
-6.51252e-06
1.90461e-05
-1.73687e-06
1.98311e-05
-3.52646e-06
1.89501e-05
-8.73634e-07
1.90119e-05
-1.40996e-06
1.77309e-05
1.81942e-06
1.79028e-05
2.52403e-06
1.62923e-05
6.69042e-06
1.70245e-05
6.20158e-06
1.62433e-05
9.53602e-06
1.68338e-05
7.44981e-06
1.64606e-05
1.14433e-05
1.84378e-05
8.43814e-06
1.72917e-05
1.70344e-05
2.42839e-05
1.07849e-05
2.91977e-05
2.47516e-05
2.05353e-05
-1.95704e-07
2.03068e-05
2.54753e-08
2.0181e-05
7.96849e-08
2.01996e-05
9.1963e-09
2.0307e-05
-1.33235e-07
2.04708e-05
-2.81988e-07
2.06111e-05
-3.45008e-07
2.07303e-05
-4.10037e-07
2.08371e-05
-4.34258e-07
2.09548e-05
-4.86012e-07
2.10711e-05
-4.86345e-07
2.12162e-05
-5.52181e-07
2.13809e-05
-5.84587e-07
2.15388e-05
-5.85053e-07
2.17485e-05
-7.23252e-07
2.19463e-05
-7.25551e-07
2.2149e-05
-8.54623e-07
2.23769e-05
-1.01556e-06
2.25828e-05
-1.13961e-06
2.27578e-05
-1.34336e-06
2.29317e-05
-1.56779e-06
2.30412e-05
-1.79657e-06
2.30714e-05
-1.94389e-06
2.30607e-05
-2.23309e-06
2.29523e-05
-2.34078e-06
2.27149e-05
-2.35573e-06
2.24404e-05
-2.462e-06
2.20794e-05
-2.26643e-06
2.16089e-05
-1.97656e-06
2.11337e-05
-1.58317e-06
2.06068e-05
-1.04444e-06
2.00846e-05
-3.58671e-07
1.95239e-05
5.37966e-07
1.89753e-05
1.3312e-06
1.86023e-05
2.18684e-06
1.82849e-05
3.1167e-06
1.83371e-05
3.76136e-06
1.89329e-05
4.28772e-06
1.95927e-05
4.83707e-06
2.04445e-05
4.94218e-06
2.16388e-05
4.66269e-06
2.26977e-05
4.25775e-06
2.34758e-05
3.76132e-06
2.4351e-05
2.818e-06
2.52378e-05
1.51535e-06
2.579e-05
7.89426e-07
2.64837e-05
-3.24919e-07
2.733e-05
-1.43277e-06
2.79711e-05
-2.26238e-06
2.87795e-05
-3.46895e-06
2.98021e-05
-4.12173e-06
3.06873e-05
-4.80288e-06
3.16688e-05
-6.1354e-06
3.27011e-05
-6.91935e-06
3.33225e-05
-7.26518e-06
3.39372e-05
-8.20937e-06
3.45289e-05
-8.96873e-06
3.45691e-05
-9.04868e-06
3.42802e-05
-9.50301e-06
3.38004e-05
-9.21961e-06
3.3297e-05
-9.13902e-06
3.28305e-05
-9.20788e-06
3.21231e-05
-8.44259e-06
3.12878e-05
-8.23702e-06
3.03961e-05
-7.43695e-06
2.95629e-05
-7.08926e-06
2.89835e-05
-6.8625e-06
2.84809e-05
-6.36361e-06
2.81753e-05
-6.60548e-06
2.78099e-05
-6.03776e-06
2.73906e-05
-6.19659e-06
2.70103e-05
-6.27282e-06
2.65144e-05
-6.13885e-06
2.6416e-05
-6.93584e-06
2.62944e-05
-6.81729e-06
2.61122e-05
-7.09355e-06
2.6309e-05
-7.59398e-06
2.6442e-05
-7.39362e-06
2.65946e-05
-7.72933e-06
2.67974e-05
-7.75992e-06
2.69453e-05
-7.38795e-06
2.71206e-05
-7.51662e-06
2.72783e-05
-6.95771e-06
2.72102e-05
-6.15159e-06
2.72163e-05
-5.86969e-06
2.72546e-05
-4.74295e-06
2.69496e-05
-3.47359e-06
2.66847e-05
-2.71636e-06
2.63793e-05
-1.23691e-06
2.6023e-05
2.71105e-07
2.59397e-05
9.63333e-07
2.60999e-05
2.1036e-06
2.60622e-05
3.73258e-06
2.57495e-05
4.57498e-06
2.54872e-05
5.13058e-06
2.54345e-05
6.20844e-06
2.51518e-05
6.65052e-06
2.46353e-05
5.57452e-06
2.41467e-05
4.46242e-06
2.38977e-05
4.84707e-06
2.36905e-05
6.19076e-06
2.31852e-05
7.10871e-06
2.23735e-05
6.94497e-06
2.18001e-05
4.98198e-06
2.21874e-05
2.32886e-06
2.38107e-05
1.18437e-06
2.60199e-05
2.44343e-06
2.82144e-05
4.46995e-06
3.01843e-05
6.25814e-06
3.14896e-05
8.39967e-06
3.20687e-05
1.02859e-05
3.213e-05
1.01016e-05
3.18434e-05
8.75771e-06
3.10833e-05
7.36795e-06
3.03228e-05
5.03241e-06
2.94265e-05
1.85723e-06
2.84664e-05
-1.77703e-06
2.73657e-05
-4.93074e-06
2.65856e-05
-7.30634e-06
2.61338e-05
-1.03714e-05
2.57973e-05
-1.37506e-05
2.5214e-05
-1.62798e-05
2.43683e-05
-1.76306e-05
2.37461e-05
-1.91507e-05
2.2953e-05
-2.02351e-05
2.20786e-05
-2.03337e-05
2.07305e-05
-1.91214e-05
1.91854e-05
-1.69816e-05
1.81013e-05
-1.53474e-05
1.74708e-05
-1.43077e-05
1.75378e-05
-1.48642e-05
1.81252e-05
-1.57205e-05
1.9065e-05
-1.72592e-05
2.01622e-05
-1.88112e-05
2.09718e-05
-1.96787e-05
2.145e-05
-1.93085e-05
2.19309e-05
-1.85259e-05
2.2116e-05
-1.7312e-05
2.21398e-05
-1.55395e-05
2.21527e-05
-1.32941e-05
2.19475e-05
-1.04742e-05
2.15357e-05
-7.2352e-06
2.08569e-05
-3.1322e-06
2.04481e-05
6.95442e-07
2.005e-05
3.435e-06
1.94633e-05
6.47006e-06
1.8669e-05
1.12514e-05
1.82021e-05
1.55851e-05
1.75775e-05
1.82559e-05
1.69827e-05
2.08322e-05
1.63267e-05
2.37623e-05
1.55219e-05
2.63534e-05
1.51523e-05
2.87147e-05
1.4745e-05
3.0601e-05
1.43931e-05
2.97554e-05
1.41119e-05
2.60972e-05
1.35762e-05
2.22965e-05
1.38702e-05
2.04272e-05
1.49717e-05
2.16833e-05
1.59326e-05
2.43823e-05
1.6927e-05
2.45619e-05
1.74894e-05
2.39209e-05
1.82925e-05
2.08921e-05
1.86486e-05
2.00039e-05
1.95673e-05
1.56598e-05
1.97179e-05
1.39015e-05
2.06196e-05
1.02934e-05
2.10056e-05
9.41025e-06
2.20839e-05
4.41918e-06
2.15299e-05
6.35422e-06
2.22614e-05
-1.32573e-06
2.05881e-05
3.34887e-06
2.12572e-05
-6.1013e-06
1.98372e-05
2.69315e-06
2.14179e-05
-1.1366e-05
2.02413e-05
-4.51337e-07
2.12464e-05
-1.39575e-05
2.03655e-05
-2.85948e-06
2.15509e-05
-1.51545e-05
2.05599e-05
-5.62087e-06
2.19532e-05
-1.37353e-05
2.04778e-05
-4.71103e-06
2.21362e-05
-1.20356e-05
2.05772e-05
-3.20188e-06
2.1667e-05
-7.60238e-06
2.02223e-05
-2.92193e-07
2.15793e-05
-4.88344e-06
2.01953e-05
5.10406e-07
2.13458e-05
-2.56049e-06
1.94078e-05
3.75747e-06
2.02615e-05
1.67026e-06
1.8093e-05
8.85899e-06
2.01806e-05
4.11395e-06
1.85368e-05
1.11798e-05
2.13937e-05
4.59295e-06
1.8406e-05
1.44309e-05
2.2328e-05
4.51618e-06
1.87537e-05
2.06086e-05
2.31846e-05
6.35398e-06
2.54334e-05
2.69489e-05
2.53783e-05
-2.21129e-07
2.54327e-05
-2.88872e-08
2.55542e-05
-4.18016e-08
2.56868e-05
-1.23425e-07
2.582e-05
-2.66395e-07
2.59219e-05
-3.83961e-07
2.60185e-05
-4.41547e-07
2.60758e-05
-4.67401e-07
2.61302e-05
-4.88642e-07
2.62098e-05
-5.65575e-07
2.62694e-05
-5.45956e-07
2.63897e-05
-6.72431e-07
2.64894e-05
-6.84317e-07
2.66157e-05
-7.11373e-07
2.67571e-05
-8.6467e-07
2.68917e-05
-8.60161e-07
2.70392e-05
-1.00206e-06
2.71538e-05
-1.1302e-06
2.73025e-05
-1.28831e-06
2.73422e-05
-1.38304e-06
2.74213e-05
-1.64686e-06
2.74303e-05
-1.80558e-06
2.73408e-05
-1.85441e-06
2.72825e-05
-2.17482e-06
2.70883e-05
-2.14657e-06
2.68474e-05
-2.11484e-06
2.65394e-05
-2.15394e-06
2.62217e-05
-1.9488e-06
2.57888e-05
-1.54364e-06
2.5361e-05
-1.15536e-06
2.51182e-05
-8.01648e-07
2.4652e-05
1.0754e-07
2.43207e-05
8.69296e-07
2.41823e-05
1.46961e-06
2.40252e-05
2.34394e-06
2.38968e-05
3.24507e-06
2.39063e-05
3.7519e-06
2.42189e-05
3.97512e-06
2.46707e-05
4.38527e-06
2.51318e-05
4.48103e-06
2.58183e-05
3.97619e-06
2.67689e-05
3.30713e-06
2.7474e-05
3.05629e-06
2.81709e-05
2.12105e-06
2.9149e-05
5.37265e-07
2.9745e-05
1.9344e-07
3.03708e-05
-9.50745e-07
3.13689e-05
-2.43087e-06
3.21157e-05
-3.00919e-06
3.27271e-05
-4.08029e-06
3.36046e-05
-4.99926e-06
3.45152e-05
-5.71344e-06
3.50557e-05
-6.67596e-06
3.53762e-05
-7.23984e-06
3.58446e-05
-7.7336e-06
3.60435e-05
-8.40825e-06
3.57646e-05
-8.68983e-06
3.53108e-05
-8.59488e-06
3.46934e-05
-8.88562e-06
3.41527e-05
-8.67885e-06
3.33962e-05
-8.38259e-06
3.22946e-05
-8.10626e-06
3.11798e-05
-7.32777e-06
3.01623e-05
-7.21952e-06
2.96035e-05
-6.87814e-06
2.91413e-05
-6.62713e-06
2.86919e-05
-6.41303e-06
2.82528e-05
-5.92457e-06
2.77162e-05
-6.06881e-06
2.73418e-05
-5.6634e-06
2.70594e-05
-5.91417e-06
2.69481e-05
-6.1615e-06
2.6813e-05
-6.00381e-06
2.66078e-05
-6.7306e-06
2.64195e-05
-6.62905e-06
2.62881e-05
-6.96211e-06
2.63473e-05
-7.65317e-06
2.63328e-05
-7.37917e-06
2.64711e-05
-7.86754e-06
2.68888e-05
-8.17765e-06
2.71921e-05
-7.69126e-06
2.75269e-05
-7.85146e-06
2.80245e-05
-7.45527e-06
2.83101e-05
-6.43718e-06
2.85082e-05
-6.06777e-06
2.86373e-05
-4.87207e-06
2.84331e-05
-3.26938e-06
2.81523e-05
-2.43556e-06
2.77962e-05
-8.80797e-07
2.72427e-05
8.24593e-07
2.6637e-05
1.56904e-06
2.61046e-05
2.63596e-06
2.55334e-05
4.30381e-06
2.50668e-05
5.04155e-06
2.50267e-05
5.17073e-06
2.52651e-05
5.96998e-06
2.52314e-05
6.68429e-06
2.47807e-05
6.0252e-06
2.41746e-05
5.06855e-06
2.36982e-05
5.32342e-06
2.35313e-05
6.35766e-06
2.33616e-05
7.27841e-06
2.30195e-05
7.28708e-06
2.24779e-05
5.52354e-06
2.24252e-05
2.3816e-06