/*--------------------------------*- C++ -*----------------------------------*\
| =========                 |                                                 |
| \\      /  F ield         | OpenFOAM: The Open Source CFD Toolbox           |
|  \\    /   O peration     | Version:  2.4.0                                 |
|   \\  /    A nd           | Web:      www.OpenFOAM.org                      |
|    \\/     M anipulation  |                                                 |
\*---------------------------------------------------------------------------*/
FoamFile
{
    version     2.0;
    format      ascii;
    class       volScalarField;
    location    "1.57";
    object      pPrime2Mean;
}
// * * * * * * * * * * * * * * * * * * * * * * * * * * * * * * * * * * * * * //

dimensions      [0 4 -4 0 0 0 0];

internalField   nonuniform List<scalar> 
8800
(
412019
401628
390479
379425
368523
357778
347192
336765
326496
316384
306430
296631
286985
277487
268125
258886
249730
240590
231298
221338
412033
401629
390478
379425
368522
357778
347192
336765
326496
316384
306430
296632
286985
277488
268128
258891
249740
240611
231349
221507
412043
401629
390476
379423
368522
357777
347192
336764
326496
316385
306430
296632
286987
277491
268133
258901
249759
240652
231443
221835
412050
401629
390473
379421
368521
357777
347192
336764
326496
316385
306431
296633
286989
277495
268140
258915
249787
240709
231574
222217
412056
401629
390470
379419
368520
357777
347192
336764
326496
316385
306432
296635
286992
277500
268150
258933
249822
240780
231731
222613
412060
401629
390469
379418
368519
357777
347192
336764
326496
316385
306433
296637
286995
277506
268162
258955
249864
240862
231904
222998
412064
401629
390467
379416
368519
357777
347192
336764
326496
316386
306434
296639
286999
277513
268175
258979
249910
240952
232084
223365
412066
401630
390467
379415
368518
357777
347192
336764
326496
316386
306435
296641
287003
277521
268189
259005
249960
241046
232266
223706
412068
401630
390466
379415
368518
357777
347192
336765
326496
316387
306436
296643
287008
277529
268205
259033
250012
241141
232443
224020
412069
401630
390466
379414
368518
357777
347192
336765
326497
316388
306437
296646
287012
277537
268220
259062
250064
241236
232614
224306
412069
401630
390466
379414
368518
357777
347192
336765
326497
316388
306439
296648
287017
277546
268236
259090
250115
241328
232774
224564
412068
401630
390466
379415
368518
357777
347192
336765
326498
316389
306440
296651
287022
277554
268251
259117
250165
241415
232922
224794
412066
401630
390467
379416
368519
357777
347192
336766
326498
316390
306442
296653
287026
277562
268266
259143
250211
241495
233056
224997
412064
401630
390468
379417
368519
357777
347193
336766
326499
316391
306443
296656
287031
277570
268279
259168
250254
241569
233175
225174
412060
401629
390469
379418
368520
357777
347193
336766
326499
316392
306444
296658
287034
277577
268291
259189
250292
241633
233278
225325
412055
401629
390471
379420
368521
357778
347193
336767
326500
316392
306445
296660
287038
277583
268302
259208
250324
241688
233365
225450
412050
401629
390473
379422
368521
357778
347193
336767
326500
316393
306446
296661
287040
277588
268311
259224
250351
241732
233434
225550
412042
401629
390476
379424
368522
357778
347193
336767
326501
316394
306447
296662
287043
277591
268317
259236
250371
241766
233487
225624
412033
401630
390479
379425
368523
357779
347194
336768
326501
316394
306448
296663
287044
277594
268322
259244
250385
241789
233522
225673
412019
401628
390479
379426
368523
357779
347194
336768
326501
316394
306448
296664
287045
277595
268324
259248
250392
241800
233539
225697
212312
209881
208026
206422
204935
203520
202156
200830
199533
198259
197005
195767
194542
193328
192125
190930
189742
188560
187383
186212
185046
183885
182729
181578
180431
179288
178149
177014
175884
174758
173636
172519
171408
170301
169201
168106
167017
165933
164853
163779
162709
161643
160579
159520
158462
157409
156357
155310
154266
153225
152187
151152
150119
149089
148062
147038
146017
145000
143987
142977
141970
140965
139964
138965
137969
136977
135990
135007
134028
133054
132084
131117
130153
129193
128234
127279
126327
125379
124434
123494
122559
121629
120703
119783
118866
117953
117043
116136
115232
114332
113434
112539
111646
110755
109867
108982
108099
107220
106343
105470
104600
103735
102874
102018
101167
100321
99480.9
98646.4
97816.9
96992.9
96173.3
95358.6
94547.7
93741.3
92938.2
92138.7
91342.1
90548.9
89758.5
88971.7
88187.9
87408.1
86630.9
85857.6
85086.2
84318.8
83553
82791.6
82031.8
81275.8
80521.4
79769.8
79019.9
78272.2
77526.4
76782.8
76041.5
75302.6
74566.5
73833.6
73103.9
72378
71655.7
70937.5
70223.2
69512.9
68806.7
68104.4
67405.7
66710.6
66018.7
65329.8
64643.4
63959.7
63278.4
62599.8
61923.6
61251.1
60581.6
59916
59253.8
58596.4
57942.7
57295.2
56651.6
56014.8
55382.1
54756.9
54136.1
53523.6
52914.1
52314.7
51715.5
51128.3
50539.1
49962.6
49382.3
48815.8
48243.4
47684.3
47119.8
46567.1
46009.3
45459.8
44906
44355.6
43800.6
43245.6
42682.5
42116.3
41537.2
40949.8
40343.8
39721.7
39071.1
38392.4
37667.8
36882.7
36042.6
35018.7
214043
211453
209341
207522
205876
204338
202874
201465
200098
198763
197456
196171
194905
193655
192419
191195
189981
188775
187578
186388
185204
184028
182858
181693
180535
179382
178234
177091
175953
174820
173692
172570
171453
170342
169237
168138
167044
165956
164874
163796
162722
161653
160587
159525
158466
157410
156358
155308
154263
153220
152181
151145
150112
149082
148054
147030
146009
144992
143979
142969
141962
140958
139957
138959
137964
136972
135985
135002
134024
133049
132079
131112
130148
129187
128229
127274
126322
125374
124430
123490
122556
121626
120701
119781
118865
117952
117042
116136
115232
114332
113434
112539
111647
110757
109869
108984
108101
107222
106346
105474
104605
103741
102881
102026
101176
100331
99492.1
98658
97829.2
97005.4
96186.2
95371.4
94560.7
93753.9
92950.6
92150.5
91353.6
90559.9
89769.3
88982.5
88198.9
87419.3
86642.7
85869.9
85099.4
84332.6
83567.9
82806.6
82047.5
81291.2
80537
79785
79035.2
78287.3
77541.6
76798.4
76057.6
75319.5
74584.4
73852.5
73124
72399.2
71678.4
70961.3
70248.3
69539.1
68834.2
68133
67435.5
66741.2
66050.5
65362.5
64677
63993.9
63312.9
62634.1
61957.8
61284.3
60613.8
59946.6
59283
58623.6
57968.1
57317.8
56671.7
56031.1
55394.7
54764.9
54139
53520.7
52904.7
52297.9
51691.3
51094.8
50496.9
49910.2
49320.3
48741.3
48158.5
47584.9
47008.5
46438.9
45867.7
45299.1
44729.5
44158.7
43584.8
43007.5
42423.5
41831.4
41228.5
40609.9
39974.4
39312.8
38624.1
37887
37120.3
36227.3
35317
34286.5
215244
212675
210464
208516
206753
205113
203562
202077
200645
199253
197896
196566
195261
193976
192708
191455
190215
188987
187769
186560
185360
184168
182984
181807
180637
179474
178317
177165
176020
174880
173747
172619
171497
170382
169272
168169
167071
165979
164892
163811
162734
161662
160593
159528
158467
157410
156356
155305
154258
153214
152174
151137
150103
149073
148045
147021
146000
144984
143970
142960
141954
140950
139950
138952
137958
136968
135981
134998
134020
133045
132074
131107
130142
129181
128223
127269
126317
125370
124426
123487
122553
121624
120700
119780
118864
117952
117042
116136
115233
114334
113436
112542
111649
110759
109872
108987
108106
107227
106352
105481
104614
103751
102892
102038
101189
100345
99506.8
98673.2
97845
97021.3
96202.3
95387.2
94576.3
93768.9
92965
92164.2
91366.9
90572.9
89782.4
88995.7
88212.6
87433.4
86657.6
85885.3
85116
84349.7
83586.1
82825
82066.4
81309.7
80555.4
79802.9
79052.8
78304.7
77559
76816
76075.7
75338.4
74604.2
73873.5
73146.5
72423.1
71703.9
70988.4
70276.9
69569.2
68865.7
68165.5
67469.2
66775.9
66086.4
65399.3
64714.6
64031.9
63351.2
62672.1
61995.3
61320.7
60648.8
59979.7
59314.5
58653.2
57995.6
57342.8
56694
56049.7
55409.7
54775.5
54144.4
53520.1
52897.6
52282.8
51668.2
51062.2
50455.4
49857.4
49258.3
48666.2
48073.6
47485.3
46897.9
46311.4
45727
45140.2
44554.7
43963.9
43372.8
42772.3
42171
41552.6
40930.2
40280.3
39623.2
38920
38212.5
37414.4
36632
35687.3
34743.3
33752.1
216159
213657
211419
209400
207554
205834
204210
202659
201168
199724
198320
196948
195605
194286
192988
191708
190443
189192
187954
186727
185511
184305
183107
181918
180737
179564
178398
177238
176086
174940
173800
172667
171540
170420
169306
168198
167097
166001
164911
163826
162745
161670
160599
159532
158468
157409
156353
155301
154253
153208
152167
151129
150095
149064
148036
147012
145992
144975
143961
142952
141945
140942
139943
138946
137953
136963
135977
134995
134016
133042
132070
131103
130138
129177
128219
127264
126313
125366
124422
123484
122551
121622
120699
119779
118864
117952
117043
116138
115236
114336
113440
112545
111653
110764
109877
108993
108113
107235
106362
105492
104626
103764
102907
102054
101206
100362
99524.5
98691.2
97863.3
97039.5
96220.4
95404.8
94593.4
93785
92980.4
92178.7
91381
90586.5
89796.3
89009.8
88227.7
87449
86674.2
85902.5
85134.3
84368.5
83605.7
82845.1
82086.8
81329.7
80575.1
79821.9
79071.5
78323
77577.4
76834.4
76094.7
75358
74625
73895.3
73169.8
72447.9
71730.4
71016.5
70306.8
69600.6
68898.8
68199.9
67505
66812.8
66124.6
65438.1
64754.3
64071.8
63391.5
62711.5
62034
61357.7
60684
60013
59346.3
58682.5
58023.1
57367.5
56716.3
56068.5
55425.3
54786.6
54150.9
53520.1
52891.4
52268.2
51645.9
51029.3
50414.5
49804.6
49196.8
48591.7
47989.4
47387
46788.2
46186.1
45588.1
44983.6
44383.5
43772.5
43167.3
42543
41927.5
41281.4
40646.1
39961.7
39295.3
38547.6
37832.7
36990.1
36182.5
35248.3
34305.5
33353
216896
214463
212230
210177
208277
206497
204813
203207
201663
200172
198725
197315
195937
194586
193258
191952
190664
189392
188134
186890
185658
184437
183227
182026
180835
179652
178477
177310
176150
174998
173853
172714
171583
170458
169340
168228
167122
166023
164929
163840
162757
161678
160605
159535
158470
157409
156351
155298
154248
153202
152160
151122
150087
149056
148028
147004
145984
144967
143954
142945
141939
140936
139937
138941
137949
136960
135974
134992
134014
133039
132068
131100
130135
129173
128215
127260
126309
125362
124419
123481
122549
121621
120698
119779
118864
117953
117045
116141
115239
114340
113444
112550
111659
110770
109885
109002
108122
107246
106374
105505
104641
103780
102924
102072
101224
100382
99544.1
98711
97883.1
97059.1
96239.5
95423.2
94611.1
93801.7
92996.4
92193.8
91395.4
90600.4
89810.3
89024.1
88242.7
87464.7
86690.8
85919.7
85152.3
84387
83625
82864.6
82106.3
81348.9
80593.9
79840.3
79089.6
78340.8
77595.3
76852.4
76113.4
75377.2
74645.4
73916.6
73192.5
72471.8
71756
71043.6
70335.9
69631.3
68931.4
68234.1
67540.8
66849.9
66163.1
65476.8
64794
64111.4
63431.1
62750.1
62071.8
61393.3
60718
60044.5
59376.4
58709.4
58048.6
57390
56736.6
56085.8
55439.7
54796.5
54156.5
53519.1
52884.6
52252.4
51623.2
50996.1
50373.4
49752.4
49135.7
48518.7
47906.6
47290.7
46680.7
46063.1
45453.1
44830.3
44218.7
43586
42969.8
42321.4
41695.2
41021
40376
39660.6
38982.4
38206.4
37469.6
36621.7
35786.2
34887.9
33966.9
33041.4
217517
215142
212925
210858
208924
207101
205370
203717
202128
200595
199109
197664
196253
194872
193518
192187
190876
189584
188309
187048
185801
184566
183344
182132
180930
179738
178555
177381
176214
175056
173905
172762
171625
170496
169374
168258
167148
166045
164948
163856
162769
161688
160612
159540
158473
157410
156351
155296
154245
153199
152156
151117
150082
149050
148022
146998
145978
144962
143949
142940
141934
140932
139933
138938
137946
136958
135973
134991
134013
133038
132066
131097
130132
129170
128211
127256
126305
125358
124416
123479
122547
121620
120697
119779
118865
117955
117048
116144
115244
114346
113451
112558
111667
110780
109895
109013
108134
107259
106388
105521
104658
103799
102944
102092
101245
100402
99564.9
98731.8
97903.7
97079.2
96258.9
95441.8
94628.9
93818.7
93012.3
92208.8
91409.6
90614
89823.7
89037.5
88256.6
87478.9
86705.7
85934.9
85168.1
84403.4
83641.9
82881.5
82123.3
81365.5
80610.2
79856.1
79105.1
78356
77610.7
76868
76129.4
75393.8
74662.8
73934.9
73212.2
72493
71778.9
71068
70362.3
69659.2
68961.3
68265.4
67573.8
66884.3
66198.8
65512.5
64830.6
64147.6
63467.3
62785.2
62106.4
61425.5
60749.2
60073
59403.2
58732.9
58070.5
57409.1
56753.9
56099.7
55451.4
54803.8
54160
53515.6
52875.9
52234.4
51598.9
50961.9
50331.8
49699.8
49075.3
48446
47825.7
47196
46576.1
45942.8
45322.8
44682.6
44059.9
43409.1
42780.3
42113.6
41473.3
40781.1
40118
39387.3
38686.4
37904.7
37142.8
36310.2
35466.2
34595.6
33695
32786
218051
215724
213526
211455
209499
207645
205877
204186
202560
200991
199471
197993
196553
195145
193766
192412
191080
189769
188476
187200
185939
184691
183457
182234
181023
179822
178631
177450
176277
175113
173957
172808
171668
170534
169408
168288
167175
166068
164968
163873
162784
161700
160621
159547
158478
157413
156353
155297
154245
153197
152154
151114
150079
149047
148019
146995
145975
144959
143946
142937
141932
140930
139932
138937
137945
136957
135972
134991
134012
133037
132064
131095
130129
129167
128207
127252
126301
125354
124413
123476
122545
121618
120697
119780
118866
117957
117051
116149
115249
114353
113459
112567
111678
110791
109907
109026
108148
107274
106404
105538
104677
103818
102964
102112
101266
100423
99585.8
98752.5
97923.9
97098.5
96277.3
95459.5
94645.5
93834.4
93027
92222.5
91422.4
90626.2
89835.5
89049
88267.8
87489.9
86716.6
85946.1
85179.6
84415.3
83654.3
82894
82135.9
81377.9
80622.2
79867.8
79116.4
78367.1
77621.6
76879.1
76140.7
75405.7
74675.2
73948.6
73227.3
72509.8
71797.5
71088.6
70384.8
69683.1
68986.6
68291.8
67601.7
66913.1
66228.5
65542.6
64861.4
64178.3
63497.6
62814.9
62135.1
61452.2
60774.5
60096.3
59424.1
58751.2
58086.8
57423
56765.8
56108.9
55458.2
54806.7
54159.1
53508.6
52862.6
52214
51571
50925.9
50287.5
49646.8
49013.5
48374.5
47744.7
47104.2
46472.9
45828.3
45194.9
44543.6
43905.5
43244.1
42598.4
41922.3
41263.2
40563.6
39880.6
39145.1
38424.6
37646.6
36871.3
36055
35213.6
34357.6
33468.9
32570.2
218514
216226
214049
211978
210009
208132
206338
204616
202959
201359
199808
198302
196835
195402
194000
192625
191274
189946
188636
187345
186071
184811
183566
182333
181113
179904
178705
177517
176338
175168
174007
172854
171709
170572
169441
168318
167202
166092
164988
163891
162799
161713
160632
159556
158485
157419
156357
155300
154247
153199
152155
151115
150079
149047
148019
146995
145975
144958
143946
142937
141931
140930
139931
138936
137945
136957
135972
134990
134011
133035
132062
131093
130126
129163
128204
127248
126298
125351
124410
123474
122543
121617
120697
119780
118868
117960
117055
116153
115256
114361
113468
112577
111689
110803
109920
109039
108162
107289
106420
105555
104694
103837
102983
102132
101285
100443
99604.9
98771.2
97941.7
97115.4
96293.3
95474.5
94659.4
93847.3
93038.9
92233.5
91432.4
90635.5
89844.2
89057.1
88275
87496.4
86722.4
85951.6
85185
84420.9
83660.2
82900.1
82141.9
81383.7
80627.8
79873
79121.4
78371.8
77626.3
76883.7
76145.7
75411.4
74681.7
73956.7
73236.9
72521.4
71810.9
71104.4
70401.6
69701.8
69006.3
68312.3
67623.1
66935.5
66251.6
65565.3
64884.8
64201.9
63520.2
62837.5
62156.3
61472.3
60792.6
60112.8
59437.6
58763.1
58095.6
57430.3
56770.5
56112.1
55458.8
54804.2
54152.3
53497.3
52845.1
52191.1
51540
50888.1
50241.9
49593.7
48951.3
48305.6
47665.1
47016.8
46373.5
45720.5
45073.4
44414
43761.3
43092.4
42431.6
41749.9
41075.7
40371.7
39674.2
38938.1
38205.7
37434.7
36652.8
35847.8
35008.6
34157.8
33276.4
32385.6
218922
216666
214506
212438
210461
208568
206752
205006
203323
201696
200120
198589
197098
195643
194220
192825
191457
190112
188788
187483
186196
184925
183670
182428
181199
179982
178776
177582
176397
175222
174056
172898
171749
170608
169474
168348
167228
166116
165009
163909
162815
161727
160644
159566
158494
157426
156363
155305
154251
153202
152157
151117
150080
149048
148020
146995
145975
144959
143946
142937
141931
140929
139931
138936
137944
136955
135970
134988
134009
133032
132059
131089
130122
129159
128200
127245
126294
125348
124407
123472
122541
121616
120696
119781
118869
117962
117058
116158
115262
114368
113477
112588
111700
110815
109932
109052
108176
107303
106435
105571
104710
103853
102999
102148
101301
100458
99620.2
98785.7
97955.3
97128
96304.8
95484.9
94668.7
93855.6
93046.1
92239.8
91437.8
90640.3
89848.1
89060.2
88276.9
87497
86721.9
85950.2
85183.1
84418.8
83658
82898.2
82139.9
81381.7
80625.6
79870.8
79119.1
78369.4
77624.1
76881.9
76144.5
75411.2
74682.9
73959.2
73241
72527.3
71818.7
71114.1
70412.7
69714.4
69019.6
68326.3
67637.1
66950.8
66266.1
65580.4
64900.4
64216.8
63534.3
62852.2
62169.2
61485.1
60802.7
60122.9
59443.4
58768.9
58097.2
57431.4
56767.8
56109.4
55452.6
54796.7
54139.4
53481.6
52822.3
52164
51506.1
50848.3
50194.9
49541.5
48889.7
48241.2
47588.6
46935.8
46280.8
45621.3
44962.6
44296.8
43631.6
42958.1
42285.3
41600.5
40915
40210.3
39502.2
38768
38027
37262.6
36474.7
35674.5
34836.6
33987.3
33112.6
32229.2
219281
217050
214905
212842
210860
208956
207123
205358
203653
202004
200405
198852
197340
195865
194424
193012
191627
190267
188930
187612
186314
185032
183767
182516
181279
180055
178843
177643
176453
175273
174102
172940
171788
170643
169506
168376
167254
166139
165030
163928
162832
161741
160657
159577
158503
157434
156370
155311
154256
153206
152161
151119
150082
149050
148021
146996
145976
144959
143946
142937
141931
140928
139930
138934
137942
136953
135967
134984
134005
133028
132055
131084
130117
129154
128195
127240
126290
125344
124404
123469
122539
121614
120695
119780
118870
117964
117062
116163
115268
114375
113486
112597
111710
110825
109942
109062
108186
107314
106446
105582
104722
103864
103010
102159
101312
100469
99629.7
98794.3
97962.7
97134.5
96310.2
95489.3
94672
93857.8
93047.4
92240.3
91437.6
90639.5
89846.5
89057.6
88272.9
87491.7
86714.8
85941.5
85173.2
84408.2
83647.1
82887.6
82129.5
81371.9
80615.8
79861.1
79109.7
78360.5
77616
76874.6
76138.4
75406.7
74679.7
73957.6
73240.8
72528.5
71821.3
71117.8
70417.5
69720.3
69026.2
68332.7
67644.1
66958.6
66271.8
65589
64907.2
64223.7
63540.3
62859
62173.1
61489.5
60804.4
60126.6
59441.5
58768.9
58090.6
57427.3
56758.2
56101.5
55439.4
54784.3
54119.7
53461.2
52794.8
52133.2
51469.1
50807.6
50147.5
49492.4
48831
48182.7
47519.1
46862.9
46199.1
45533.3
44866.4
44195.4
43520.2
42843.2
42160.7
41475.5
40780.4
40078.4
39359.4
38628.3
37878.1
37116.9
36324
35524.1
34688.9
33842
32974.7
32098.5
219597
217386
215253
213195
211211
209298
207453
205672
203949
202282
200664
199092
197562
196069
194611
193184
191785
190411
189061
187732
186423
185132
183858
182599
181355
180124
178906
177700
176505
175320
174145
172980
171824
170676
169536
168404
167279
166161
165050
163946
162848
161756
160669
159589
158513
157443
156377
155317
154261
153210
152164
151122
150085
149051
148022
146997
145976
144958
143945
142935
141929
140926
139927
138931
137938
136949
135962
134979
133999
133022
132049
131078
130112
129149
128190
127235
126285
125340
124400
123465
122535
121611
120693
119779
118870
117965
117064
116166
115273
114381
113492
112603
111716
110831
109949
109069
108193
107321
106453
105588
104728
103870
103016
102164
101316
100472
99632.1
98795.6
97963.2
97134.1
96309.1
95487.3
94669.1
93854
93042.8
92235.1
91431.9
90633.1
89839.1
89049.1
88263.2
87480.4
86701.7
85926.6
85156.6
84390.5
83628.7
82868.6
82111
81354
80598.7
79844.9
79094.3
78346.3
77603.2
76863.3
76128.8
75398.5
74673.3
73952.5
73236.8
72525.5
71819.1
71115.8
70416.5
69718.9
69025.2
68331.5
67643.2
66957.9
66269.9
65589.5
64904.8
64223.4
63538.6
62857.1
62169.5
61486.6
60799.2
60121.8
59433.7
58761.9
58077.6
57416.7
56740.4
56086
55418.3
54765.7
54092.7
53435.2
52762.5
52100.2
51431.1
50767.4
50101.4
49445.1
48776.1
48129.4
47457.8
46798.5
46128.8
45456.4
44784.3
44109
43425.6
42750.2
42059
41375.5
40667.6
39968.8
39238.7
38508.4
37750.2
36988.7
36193.9
35393.7
34562.5
33720.1
32860.7
31991.9
219873
217679
215557
213503
211518
209599
207744
205950
204213
202530
200896
199308
197762
196254
194781
193340
191928
190542
189181
187842
186523
185223
183941
182675
181424
180187
178964
177753
176553
175364
174186
173017
171857
170706
169564
168429
167302
166182
165069
163963
162863
161770
160682
159599
158522
157451
156384
155323
154266
153214
152167
151124
150086
149052
148022
146996
145974
144957
143943
142933
141926
140923
139923
138926
137933
136944
135957
134974
133993
133016
132043
131072
130106
129143
128185
127231
126281
125336
124396
123461
122532
121608
120690
119776
118868
117964
117064
116168
115275
114384
113495
112606
111719
110834
109951
109070
108195
107322
106454
105589
104728
103870
103015
102163
101314
100468
99627.5
98790
97957.1
97127.5
96302.2
95479.6
94660.9
93844.9
93033.4
92225
91421.4
90621.9
89827.2
89035.7
88248.5
87463.8
86683.5
85906.7
85135.1
84367.6
83604.7
82844
82086.5
81329.9
80576
79823.3
79074.3
78328
77586.6
76848.2
76115.4
75386.1
74662.6
73942.9
73228.8
72518.3
71812.8
71108.8
70411
69711.6
69017.6
68322.3
67635.5
66948.3
66260.4
65581
64895.5
64215.4
63529.6
62848.5
62160.3
61476.2
60789.4
60111
59421.1
58747.7
58061.4
57399.7
56718.9
56062.9
55392
54740.3
54063
53404.6
52728.8
52064.3
51392.8
50727.6
50057.8
49398.2
48727.6
48078.6
47401.6
46742.5
46066.8
45391
44713.3
44036.4
43349.7
42673.1
41973
41290.4
40572.9
39871.7
39134.2
38401
37638.2
36876
36081.5
35283.5
34456.9
33620.3
32769
31907.4
220113
217932
215819
213769
211784
209860
207998
206193
204445
202749
201102
199500
197940
196419
194934
193480
192057
190660
189289
187940
186613
185306
184016
182744
181487
180245
179017
177801
176597
175405
174223
173051
171888
170735
169590
168453
167324
166202
165087
163979
162878
161782
160693
159609
158531
157458
156390
155327
154269
153217
152168
151125
150086
149051
148020
146994
145972
144954
143939
142929
141921
140918
139918
138921
137928
136938
135951
134968
133988
133011
132037
131067
130101
129139
128181
127227
126278
125333
124393
123458
122529
121605
120686
119773
118865
117962
117063
116167
115274
114382
113493
112603
111716
110830
109947
109067
108191
107318
106449
105583
104722
103863
103008
102155
101306
100459
99617
98778.7
97945.6
97115.7
96290.1
95466.9
94647.9
93831.2
93019.5
92210.5
91406.9
90606.4
89811.1
89018.3
88230.1
87443.7
86662.2
85883.6
85111
84341.8
83578
82816.5
82059
81302.7
80550.1
79798.5
79051.5
78306.5
77566.8
76829.7
76098.5
75370.1
74647.7
73929.1
73216.4
72506.6
71802.3
71097.9
70400.4
69698.6
69003.5
68306.3
67619.5
66930.1
66245.6
65563.7
64880.4
64198.3
63512.8
62832.3
62145.2
61459.1
60775.9
60094.2
59404.7
58726.8
58041.6
57375
56693.2
56032.9
55361.9
54708.2
54029.1
53373.9
52694.5
52028.8
51353.7
50685.4
50013.8
49352.2
48680.3
48029.5
47351.9
46693.8
46012.8
45335.7
44654.8
43974.7
43286.3
42601.1
41902.8
41213.7
40489.6
39783.4
39042.5
38305.5
37542.4
36779.8
35987
35193.1
34371.4
33541.1
32697.4
31842.6
220320
218149
216043
213997
212011
210084
208215
206403
204645
202939
201281
199668
198097
196564
195068
193604
192170
190764
189384
188028
186693
185379
184083
182805
181543
180296
179064
177844
176637
175441
174256
173081
171916
170760
169613
168474
167343
166219
165103
163993
162890
161793
160702
159617
158538
157463
156394
155330
154272
153218
152169
151124
150084
149049
148018
146991
145968
144949
143935
142924
141916
140912
139912
138915
137922
136932
135945
134962
133982
133005
132032
131062
130097
129135
128177
127224
126275
125331
124391
123455
122526
121601
120682
119769
118860
117957
117058
116162
115269
114376
113486
112596
111709
110822
109939
109058
108182
107308
106439
105573
104712
103852
102997
102143
101293
100445
99602.9
98763.8
97930.5
97100
96274.1
95450.5
94631.2
93814.1
93002.3
92193.1
91389.6
90588.4
89792.4
88998.3
88209
87421.2
86638.8
85858.9
85085.5
84315.2
83551
82788.8
82031.1
81275.1
80523.4
79773.2
79027.5
78283.8
77545.3
76809.3
76079
75351.4
74630.2
73912.6
73201.2
72491.9
71788.3
71083.4
70384.9
69681.5
68984.3
68285.3
67597.9
66904.2
66224.1
65541.1
64859.2
64174.8
63491.8
62809.1
62124.9
61435.6
60758.7
60072.5
59385.3
58704.9
58021.4
57343.7
56665.6
55999.1
55326.8
54671.8
53995.4
53335.3
52658.3
51992.4
51313.5
50640.5
49971.2
49305.4
48638.6
47986.2
47304.3
46648.8
45967.9
45288.6
44606.1
43920.5
43233.1
42537.9
41839.8
41138.1
40417
39702.6
38963
38221.9
37462.4
36699.8
35910.2
35120.4
34303.7
33480.1
32642.7
31794.4
220495
218333
216232
214188
212202
210272
208399
206581
204815
203101
201434
199811
198231
196689
195183
193710
192268
190855
189467
188104
186763
185443
184142
182859
181592
180341
179105
177882
176671
175472
174285
173108
171940
170782
169633
168492
167360
166234
165116
164005
162901
161802
160710
159624
158543
157467
156397
155332
154272
153217
152167
151122
150082
149045
148014
146987
145964
144945
143929
142918
141911
140907
139906
138910
137916
136926
135940
134956
133977
133000
132027
131058
130093
129131
128174
127221
126273
125328
124388
123452
122522
121597
120678
119763
118854
117951
117051
116154
115259
114366
113475
112585
111697
110810
109926
109045
108169
107295
106425
105559
104697
103838
102983
102128
101278
100430
99587.1
98747.4
97913.6
97082.2
96255.7
95431.6
94611.9
93795
92982.8
92174
91370.1
90569.2
89772.4
88977.6
88187
87398.4
86615
85834.4
85060.6
84290
83525.4
82762.9
82005.1
81249.2
80497.9
79748.6
79003.4
78261
77523.3
76788.5
76058.9
75332.5
74612.3
73895.5
73184.9
72475.1
71771.4
71065.3
70364.9
69660
68962.5
68263.5
67571.7
66877.6
66198.5
65511.7
64833.7
64147.3
63465.3
62782.3
62102.9
61412.4
60737.1
60045.7
59366.4
58678.5
57992.8
57309.6
56639.9
55969.6
55296.1
54634
53958.6
53291.4
52620.5
51949
51273.1
50597
49933.4
49263.5
48599.7
47938.7
47263.6
46606.3
45926.9
45246.2
44566.3
43875
43182.5
42481.3
41782.8
41070.4
40351.7
39630.8
38898.8
38153.7
37399.4
36635.7
35850.4
35062.5
34252
33434.3
32601.6
31759.6
220641
218485
216387
214344
212357
210426
208550
206727
204956
203235
201561
199931
198343
196793
195280
193800
192351
190930
189537
188167
186821
185496
184191
182904
181633
180379
179139
177913
176700
175499
174309
173130
171961
170801
169650
168508
167373
166247
165127
164015
162909
161809
160716
159628
158546
157470
156399
155333
154272
153216
152165
151120
150078
149042
148010
146982
145959
144940
143925
142913
141905
140901
139901
138904
137911
136921
135934
134951
133971
132995
132022
131054
130088
129128
128171
127218
126270
125325
124384
123449
122518
121592
120672
119757
118847
117943
117041
116143
115247
114353
113461
112571
111682
110795
109911
109030
108153
107279
106409
105543
104681
103823
102967
102113
101263
100415
99570.8
98731
97895.7
97064
96236.2
95412
94591.5
93775.2
92962.6
92154.9
91350.6
90550.8
89753.1
88958.6
88166.6
87378.3
86593.8
85813.4
85039
84269.1
83503.5
82741.4
81982.7
81227.3
80475.5
79727
78981.3
78240
77502
76768.6
76039.1
75314.1
74593.9
73878.1
73166.6
72456.5
71750.9
71043.8
70341
69635.9
68937.1
68238.2
67547.4
66854.4
66170.3
65483.5
64804.8
64117.4
63439.3
62754.8
62076
61387.6
60713.7
60019.8
59339.6
58644.2
57966.7
57281
56613
55940
55263.7
54591
53920.6
53251
52581.6
51902.7
51235.6
50560
49896.3
49225.9
48566.6
47895.9
47231.1
46560.9
45890.7
45209.1
44528.4
43832.3
43138.8
42434.3
41727.9
41013.8
40298.8
39575.9
38846.8
38103.5
37351.9
36587.4
35807
35018.2
34214.2
33399.8
32571.4
31735.4
220757
218606
216509
214467
212479
210547
208669
206843
205068
203342
201662
200027
198432
196877
195357
193871
192417
190991
189593
188219
186868
185539
184230
182940
181667
180410
179167
177939
176724
175520
174329
173148
171977
170816
169663
168519
167384
166256
165135
164022
162915
161814
160720
159632
158549
157471
156399
155333
154271
153215
152164
151117
150076
149039
148006
146978
145955
144936
143920
142909
141901
140897
139896
138899
137906
136916
135929
134946
133966
132990
132018
131049
130084
129124
128167
127215
126266
125321
124381
123445
122514
121588
120667
119751
118839
117933
117030
116132
115234
114339
113446
112556
111666
110780
109895
109015
108137
107263
106393
105528
104666
103808
102952
102099
101248
100401
99556
98716.2
97879.4
97047.5
96218.5
95394.6
94573.2
93757.5
92944.4
92137.3
91333
90534.3
89736.2
88942.4
88149.7
87362.1
86576.9
85797.2
85022.4
84253
83486.5
82724.9
81965.1
81210.2
80457.1
79709
78962.6
78221.8
77483.1
76750.5
76020.7
75296.6
74575.5
73859.8
73146.3
72436
71727.6
71020.2
70314.9
69611.9
68911.6
68216.2
67522
66830.3
66144.4
65457.4
64774
64090.5
63411.9
62725.8
62048.3
61362.2
60684.9
59990.1
59311.1
58618.7
57944.4
57250.6
56584.4
55902.9
55228.1
54558.3
53888.2
53211.3
52542.6
51863.1
51200.1
50523.5
49864.5
49196.5
48536.2
47858.6
47199.8
46520.5
45856
45172
44496.2
43795.6
43102.4
42393.4
41686.2
40974.6
40257.1
39536.3
38807.3
38069.3
37315.5
36553.5
35775
34986.7
34186.7
33373.9
32549.9
31718.5
220844
218696
216600
214557
212570
210637
208757
206929
205151
203422
201738
200098
198500
196939
195415
193925
192466
191037
189635
188258
186904
185572
184260
182967
181692
180432
179188
177958
176741
175536
174343
173161
171989
170826
169673
168528
167391
166263
165141
164027
162919
161818
160723
159634
158550
157472
156400
155333
154271
153214
152162
151116
150074
149036
148004
146976
145952
144932
143917
142905
141897
140893
139892
138895
137902
136912
135925
134942
133962
132986
132014
131045
130081
129120
128164
127211
126263
125318
124377
123441
122509
121583
120662
119745
118832
117925
117021
116121
115222
114327
113433
112543
111653
110767
109882
109002
108123
107251
106380
105515
104652
103796
102939
102087
101236
100390
99544
98704.6
97866.6
97035.1
96204.8
95381.4
94558.9
93743.7
92930.1
92123.9
91319.1
90521.1
89723
88930.7
88138.2
87352.1
86566.1
85787.5
85011.4
84242.4
83474.9
82713.9
81953.3
81198.8
80444.2
79696
78948.2
78207.3
77467.3
76735.1
76004.3
75280.7
74558
73842.1
73126.6
72415.9
71704.7
70997.8
70290.6
69591
68888.4
68196
67499.3
66810.7
66119.3
65434.6
64747.3
64066.2
63382.7
62700.1
62021.2
61336.2
60655.4
59964.8
59285.1
58592.3
57919.4
57224
56556.8
55869.1
55199.9
54525.5
53853
53177.6
52509.5