/*--------------------------------*- C++ -*----------------------------------*\
| =========                 |                                                 |
| \\      /  F ield         | OpenFOAM: The Open Source CFD Toolbox           |
|  \\    /   O peration     | Version:  2.4.0                                 |
|   \\  /    A nd           | Web:      www.OpenFOAM.org                      |
|    \\/     M anipulation  |                                                 |
\*---------------------------------------------------------------------------*/
FoamFile
{
    version     2.0;
    format      ascii;
    class       volVectorField;
    location    "1.57";
    object      U;
}
// * * * * * * * * * * * * * * * * * * * * * * * * * * * * * * * * * * * * * //

dimensions      [0 1 -1 0 0 0 0];

internalField   nonuniform List<vector> 
8800
(
(8.09285 0.387905 0)
(5.45128 0.24266 0)
(3.90915 0.0430382 0)
(3.16197 -0.0155649 0)
(2.7933 -0.0181866 0)
(2.60871 -0.0113522 0)
(2.47351 -0.00542809 0)
(2.39231 -0.00230467 0)
(2.30441 -0.00124088 0)
(2.26866 -0.00169501 0)
(2.19905 0.000658238 0)
(2.18818 -0.001032 0)
(2.12642 6.60063e-05 0)
(2.12959 -0.000109251 0)
(2.05994 0.00110047 0)
(2.07202 -0.00125497 0)
(2.01182 8.21089e-05 0)
(2.02202 -0.00220321 0)
(2.02381 0.0116713 0)
(1.79218 -0.0766101 0)
(10.0809 0.838084 0)
(9.66763 0.86811 0)
(8.85818 0.506616 0)
(8.10522 0.262182 0)
(7.46617 0.13846 0)
(7.03998 0.0810327 0)
(6.66287 0.0549144 0)
(6.43632 0.0409598 0)
(6.18331 0.0299493 0)
(6.07767 0.0217792 0)
(5.86852 0.0221782 0)
(5.84729 0.0141264 0)
(5.65914 0.0155434 0)
(5.67505 0.0137689 0)
(5.49106 0.0179488 0)
(5.52482 0.00626963 0)
(5.36955 0.0183781 0)
(5.37557 -0.00987704 0)
(5.34194 0.0306253 0)
(5.20992 -0.0600378 0)
(10.0445 0.630222 0)
(10.6855 0.864439 0)
(10.8339 0.600066 0)
(10.7374 0.37484 0)
(10.4073 0.255839 0)
(10.1455 0.195187 0)
(9.77678 0.154526 0)
(9.56353 0.124062 0)
(9.23806 0.093482 0)
(9.12768 0.0734041 0)
(8.825 0.0647032 0)
(8.81226 0.0456232 0)
(8.53775 0.0452573 0)
(8.56309 0.0374925 0)
(8.31089 0.0447115 0)
(8.3529 0.0207045 0)
(8.14253 0.0444028 0)
(8.15067 -0.00414258 0)
(8.05295 0.0337066 0)
(8.03964 -0.124314 0)
(9.94805 0.455305 0)
(10.6313 0.708572 0)
(11.096 0.542482 0)
(11.4607 0.3549 0)
(11.4755 0.26101 0)
(11.5523 0.22613 0)
(11.4003 0.201569 0)
(11.4031 0.179115 0)
(11.1858 0.145457 0)
(11.2036 0.123018 0)
(10.9501 0.11339 0)
(10.9965 0.0826575 0)
(10.7518 0.0858462 0)
(10.7908 0.06814 0)
(10.5655 0.081609 0)
(10.5909 0.0416068 0)
(10.4173 0.0794518 0)
(10.3875 0.0120714 0)
(10.2828 0.0444402 0)
(10.3358 -0.134928 0)
(9.93883 0.342121 0)
(10.5081 0.57457 0)
(10.9352 0.454716 0)
(11.4119 0.298513 0)
(11.566 0.207973 0)
(11.7773 0.191763 0)
(11.7826 0.178968 0)
(11.9329 0.174854 0)
(11.8757 0.142557 0)
(12.0002 0.129831 0)
(11.9276 0.122674 0)
(12.0307 0.0922701 0)
(11.9514 0.0976379 0)
(12.0195 0.0864852 0)
(11.945 0.0944373 0)
(11.9477 0.0644994 0)
(11.9317 0.08632 0)
(11.8682 0.0602503 0)
(11.8283 0.0303218 0)
(11.8908 -0.0687796 0)
(9.96291 0.250123 0)
(10.4023 0.45965 0)
(10.8225 0.372271 0)
(11.2313 0.245334 0)
(11.4891 0.164543 0)
(11.6682 0.149741 0)
(11.7491 0.145504 0)
(11.8905 0.145313 0)
(11.9371 0.12237 0)
(12.0406 0.103849 0)
(12.0845 0.108498 0)
(12.2076 0.0734145 0)
(12.2276 0.0834858 0)
(12.3461 0.0770779 0)
(12.3611 0.0873502 0)
(12.4023 0.0578467 0)
(12.4714 0.0787941 0)
(12.4684 0.0830678 0)
(12.4793 0.051755 0)
(12.5706 -0.0685382 0)
(9.9811 0.175167 0)
(10.3342 0.354822 0)
(10.737 0.289223 0)
(11.1069 0.204267 0)
(11.3986 0.113936 0)
(11.5744 0.121957 0)
(11.6577 0.099976 0)
(11.7985 0.126173 0)
(11.8604 0.0832496 0)
(11.9723 0.103028 0)
(11.9988 0.0637579 0)
(12.1547 0.072372 0)
(12.1581 0.0419194 0)
(12.31 0.0750647 0)
(12.344 0.0541867 0)
(12.425 0.0642386 0)
(12.4795 0.0308089 0)
(12.5185 0.119727 0)
(12.5542 0.0366772 0)
(12.6407 0.101888 0)
(9.99144 0.107664 0)
(10.2794 0.258668 0)
(10.6638 0.197567 0)
(11.0473 0.161712 0)
(11.3042 0.0685413 0)
(11.499 0.101273 0)
(11.6365 0.0560989 0)
(11.6955 0.104874 0)
(11.8028 0.0425774 0)
(11.8734 0.0884117 0)
(11.9994 0.0360679 0)
(12.0427 0.0640246 0)
(12.106 0.011221 0)
(12.207 0.0698065 0)
(12.3025 0.0148786 0)
(12.367 0.0662346 0)
(12.3846 0.0108244 0)
(12.4508 0.111599 0)
(12.5476 0.0171488 0)
(12.587 0.107251 0)
(9.99615 0.0657988 0)
(10.2438 0.149114 0)
(10.622 0.122892 0)
(10.9914 0.0958873 0)
(11.2592 0.04415 0)
(11.4379 0.0451666 0)
(11.6176 0.0396987 0)
(11.6465 0.0665934 0)
(11.7747 0.0265499 0)
(11.8276 0.0449653 0)
(11.8844 0.0224325 0)
(12.0476 0.0420416 0)
(12.0726 0.00958064 0)
(12.1828 0.0153186 0)
(12.2361 0.02769 0)
(12.2745 0.0217071 0)
(12.3673 0.023491 0)
(12.4127 0.0463506 0)
(12.5454 -0.014908 0)
(12.4262 -0.0247864 0)
(10.0015 0.0141791 0)
(10.231 0.0564836 0)
(10.5664 0.0317308 0)
(10.9961 0.042376 0)
(11.2593 0.00721992 0)
(11.4334 0.0226033 0)
(11.5116 -0.00174667 0)
(11.6568 0.0388987 0)
(11.7907 -0.0073168 0)
(11.8158 0.0414894 0)
(11.8172 -0.00965437 0)
(11.9991 0.00693347 0)
(12.1293 -0.00893427 0)
(12.1597 0.0191885 0)
(12.1769 0.00102318 0)
(12.2846 0.0106117 0)
(12.3239 -0.0141958 0)
(12.4178 0.00670081 0)
(12.4888 -0.0335313 0)
(12.3149 0.0162875 0)
(10.009 -0.0221597 0)
(10.2138 -0.0387735 0)
(10.5943 -0.0522407 0)
(10.9812 -0.0384421 0)
(11.2452 -0.0127428 0)
(11.4321 -0.000537546 0)
(11.5527 -0.0223732 0)
(11.621 -0.0293306 0)
(11.7847 -0.0205629 0)
(11.7712 0.0284249 0)
(11.9232 -0.0195527 0)
(11.9864 -0.0389409 0)
(12.0872 -0.0205204 0)
(12.1123 -0.00130412 0)
(12.2218 0.00276854 0)
(12.2884 -0.0294589 0)
(12.3409 -0.0221575 0)
(12.4147 -0.031736 0)
(12.3758 -0.0417378 0)
(12.3851 -0.0242914 0)
(9.99212 -0.067736 0)
(10.2423 -0.142095 0)
(10.6433 -0.137884 0)
(10.9859 -0.0873001 0)
(11.2163 -0.0466767 0)
(11.4858 -0.0438675 0)
(11.5883 -0.0467432 0)
(11.6923 -0.0543652 0)
(11.6735 -0.043583 0)
(11.8423 -0.0160983 0)
(12.0107 -0.0475083 0)
(12.0003 -0.0444724 0)
(12.0703 -0.0242121 0)
(12.096 -0.0247767 0)
(12.2656 -0.034915 0)
(12.3367 -0.0416519 0)
(12.3487 -0.045603 0)
(12.4262 -0.0505773 0)
(12.4244 -0.0708156 0)
(12.4534 -0.0666965 0)
(9.99879 -0.115324 0)
(10.2732 -0.247026 0)
(10.6727 -0.215965 0)
(11.0195 -0.142836 0)
(11.3208 -0.086164 0)
(11.5014 -0.0799497 0)
(11.6252 -0.0792143 0)
(11.7143 -0.0753558 0)
(11.7628 -0.0659683 0)
(11.9081 -0.0659844 0)
(11.99 -0.0587108 0)
(12.0216 -0.0549373 0)
(12.1244 -0.0370785 0)
(12.1936 -0.056659 0)
(12.3062 -0.0505255 0)
(12.3361 -0.0651647 0)
(12.3866 -0.0602078 0)
(12.4942 -0.0818736 0)
(12.4746 -0.111598 0)
(12.4494 -0.0599402 0)
(10.0271 -0.175749 0)
(10.2914 -0.352206 0)
(10.7578 -0.294253 0)
(11.0959 -0.205306 0)
(11.4112 -0.118543 0)
(11.5515 -0.115499 0)
(11.682 -0.103917 0)
(11.7573 -0.113877 0)
(11.8659 -0.0940978 0)
(11.9689 -0.0915451 0)
(12.0463 -0.0695797 0)
(12.0913 -0.0844187 0)
(12.2167 -0.0580449 0)
(12.2682 -0.0750999 0)
(12.3499 -0.0664907 0)
(12.3974 -0.0779199 0)
(12.4664 -0.087795 0)
(12.5491 -0.11775 0)
(12.5367 -0.1145 0)
(12.4761 -0.113241 0)
(10.0641 -0.253087 0)
(10.3118 -0.45323 0)
(10.9051 -0.382794 0)
(11.1747 -0.245408 0)
(11.5266 -0.161616 0)
(11.6019 -0.151498 0)
(11.8121 -0.138437 0)
(11.82 -0.143021 0)
(11.9952 -0.123491 0)
(12.0059 -0.120547 0)
(12.1494 -0.0887996 0)
(12.1393 -0.104043 0)
(12.2806 -0.0731421 0)
(12.277 -0.0987648 0)
(12.3817 -0.0748904 0)
(12.3656 -0.107074 0)
(12.4707 -0.103248 0)
(12.4489 -0.136532 0)
(12.4449 -0.137732 0)
(12.3576 -0.156633 0)
(10.0616 -0.347214 0)
(10.3916 -0.567365 0)
(11.059 -0.465858 0)
(11.2837 -0.289926 0)
(11.6644 -0.208972 0)
(11.6645 -0.193875 0)
(11.8934 -0.176343 0)
(11.8133 -0.170031 0)
(12.0007 -0.151689 0)
(11.8852 -0.135443 0)
(12.044 -0.107622 0)
(11.9005 -0.115267 0)
(12.0536 -0.0923998 0)
(11.9004 -0.104255 0)
(12.0143 -0.0847967 0)
(11.8611 -0.112369 0)
(11.9363 -0.104149 0)
(11.767 -0.144125 0)
(11.7631 -0.134041 0)
(11.5249 -0.179234 0)
(10.015 -0.458119 0)
(10.5591 -0.705623 0)
(11.1744 -0.547383 0)
(11.3566 -0.348979 0)
(11.5716 -0.26319 0)
(11.445 -0.229331 0)
(11.5072 -0.197538 0)
(11.2865 -0.177212 0)
(11.3137 -0.151607 0)
(11.0545 -0.128609 0)
(11.1014 -0.101332 0)
(10.8255 -0.100713 0)
(10.8958 -0.0798936 0)
(10.6176 -0.0859234 0)
(10.6915 -0.0694484 0)
(10.4142 -0.091348 0)
(10.4655 -0.081051 0)
(10.1759 -0.120692 0)
(10.168 -0.102634 0)
(9.82341 -0.17723 0)
(10.0677 -0.632429 0)
(10.6544 -0.863292 0)
(10.8689 -0.601976 0)
(10.6841 -0.37173 0)
(10.4667 -0.25672 0)
(10.073 -0.197263 0)
(9.85081 -0.152316 0)
(9.48195 -0.123171 0)
(9.32841 -0.096996 0)
(9.00908 -0.0773445 0)
(8.95014 -0.0568734 0)
(8.6604 -0.0558456 0)
(8.66733 -0.0444242 0)
(8.39311 -0.0473719 0)
(8.43144 -0.0402778 0)
(8.15578 -0.0525145 0)
(8.18862 -0.0529825 0)
(7.8891 -0.0735987 0)
(7.87891 -0.0758092 0)
(7.5199 -0.100361 0)
(10.086 -0.838782 0)
(9.65507 -0.867679 0)
(8.87104 -0.506991 0)
(8.08044 -0.260944 0)
(7.49779 -0.138413 0)
(6.99884 -0.0829093 0)
(6.70491 -0.0535006 0)
(6.3899 -0.040519 0)
(6.23403 -0.0311027 0)
(6.00488 -0.0253109 0)
(5.94289 -0.0168273 0)
(5.74942 -0.0198203 0)
(5.73884 -0.0156102 0)
(5.55261 -0.0188866 0)
(5.56537 -0.0160203 0)
(5.37076 -0.0239168 0)
(5.37492 -0.0249281 0)
(5.14763 -0.0347182 0)
(5.12679 -0.0409904 0)
(4.81968 -0.0250396 0)
(8.09146 -0.388006 0)
(5.44878 -0.24243 0)
(3.91072 -0.0429968 0)
(3.15669 0.015547 0)
(2.80256 0.0182358 0)
(2.59544 0.0108102 0)
(2.48588 0.00585353 0)
(2.37725 0.00244861 0)
(2.3217 0.00126161 0)
(2.242 0.000232462 0)
(2.22015 0.00144048 0)
(2.15634 -0.000568321 0)
(2.14719 0.000197909 0)
(2.08015 -0.00112832 0)
(2.07662 -0.000251048 0)
(2.00181 -0.00234848 0)
(1.9864 -0.00181898 0)
(1.89014 -0.00409289 0)
(1.84761 -0.00436664 0)
(1.69258 0.0107625 0)
(2.35521 -0.176936 0)
(2.45725 -0.0566906 0)
(2.58014 0.0205701 0)
(2.6631 0.0594144 0)
(2.78068 0.0632516 0)
(2.88626 0.0576384 0)
(3.02329 0.0352741 0)
(3.1498 0.0111487 0)
(3.27791 -0.00985337 0)
(3.3825 -0.0257046 0)
(3.47868 -0.0357931 0)
(3.56264 -0.0407458 0)
(3.65429 -0.0398196 0)
(3.73871 -0.0387083 0)
(3.8459 -0.0442365 0)
(3.94594 -0.0534714 0)
(4.08014 -0.0784922 0)
(4.20067 -0.114214 0)
(4.35088 -0.165171 0)
(4.47591 -0.238818 0)
(4.62303 -0.326532 0)
(4.73787 -0.435544 0)
(4.83311 -0.553099 0)
(4.91178 -0.682197 0)
(4.92786 -0.806359 0)
(4.92057 -0.915328 0)
(4.84624 -1.0109 0)
(4.7083 -1.05605 0)
(4.484 -1.05432 0)
(4.11691 -0.978493 0)
(3.67523 -0.889601 0)
(3.15792 -0.756016 0)
(2.88923 -0.505436 0)
(2.80133 -0.046964 0)
(2.99863 0.540297 0)
(3.31618 1.18004 0)
(3.69906 1.80652 0)
(4.07379 2.23029 0)
(4.47299 2.4586 0)
(4.97848 2.67502 0)
(5.39788 2.59747 0)
(5.6531 2.27219 0)
(6.27682 2.10856 0)
(6.64267 1.79998 0)
(6.71475 1.16334 0)
(7.36931 0.807526 0)
(7.67604 0.540962 0)
(7.62977 0.00163737 0)
(8.24006 -0.303168 0)
(8.55746 -0.438884 0)
(8.50114 -0.620457 0)
(9.20402 -0.932109 0)
(9.39736 -1.204 0)
(9.56374 -1.38414 0)
(10.3578 -1.78153 0)
(10.5701 -2.0547 0)
(10.9813 -2.2728 0)
(11.5066 -2.74324 0)
(11.7433 -2.97067 0)
(12.0881 -3.11933 0)
(12.2545 -3.38719 0)
(12.4677 -3.27331 0)
(12.3507 -3.25046 0)
(12.3847 -3.26499 0)
(12.2731 -2.9349 0)
(11.9475 -2.89011 0)
(12.0686 -2.69546 0)
(11.6855 -2.63687 0)
(11.6084 -2.65094 0)
(11.6065 -2.38166 0)
(11.3751 -2.36674 0)
(11.4784 -2.26756 0)
(11.2917 -2.29473 0)
(11.2231 -2.35796 0)
(11.188 -2.4264 0)
(10.8773 -2.59723 0)
(10.8917 -2.53213 0)
(10.9049 -2.48559 0)
(10.7392 -2.57154 0)
(10.9172 -2.53108 0)
(10.8324 -2.39107 0)
(10.8947 -2.37237 0)
(11.0555 -2.21253 0)
(10.9748 -2.12731 0)
(10.9069 -1.95218 0)
(11.0142 -1.64015 0)
(10.9288 -1.39263 0)
(10.8262 -1.02441 0)
(10.8331 -0.527646 0)
(10.6888 -0.149698 0)
(10.4446 0.194551 0)
(10.3964 0.691948 0)
(10.0219 1.04728 0)
(9.68778 1.11091 0)
(9.52041 1.44926 0)
(9.57847 1.79431 0)
(9.21364 1.60553 0)
(8.72811 1.19753 0)
(8.54835 1.27795 0)
(8.82933 1.71971 0)
(8.84874 1.96755 0)
(8.4979 1.82877 0)
(8.23416 1.59181 0)
(8.3072 1.45984 0)
(8.86641 1.4793 0)
(9.71921 2.05489 0)
(10.6599 2.70104 0)
(11.2899 3.23099 0)
(11.8572 3.46635 0)
(12.1091 3.75402 0)
(12.2305 3.70764 0)
(11.9745 3.2731 0)
(11.7927 2.53234 0)
(11.3803 1.80676 0)
(11.1187 0.988202 0)
(10.7328 -0.026025 0)
(10.5323 -1.3476 0)
(10.1638 -2.47128 0)
(9.82093 -3.10911 0)
(9.58838 -3.73595 0)
(9.4933 -4.81836 0)
(9.38959 -5.69046 0)
(9.22509 -6.38193 0)
(9.12275 -6.77787 0)
(8.9257 -7.20527 0)
(8.84657 -7.39476 0)
(8.56279 -7.22049 0)
(8.38798 -6.77002 0)
(7.87063 -6.04801 0)
(7.67124 -5.31282 0)
(7.35994 -4.99401 0)
(7.47632 -4.81278 0)
(7.68365 -4.96595 0)
(8.19073 -5.31288 0)
(8.69918 -5.73203 0)
(9.28507 -5.88673 0)
(9.59783 -5.7615 0)
(9.86494 -5.4893 0)
(10.298 -5.01359 0)
(10.3503 -4.37163 0)
(10.4592 -3.62957 0)
(10.5724 -2.73232 0)
(10.4082 -1.57221 0)
(10.1676 -0.214728 0)
(9.81627 0.756245 0)
(9.7333 1.68452 0)
(9.57501 3.05008 0)
(9.20216 4.50123 0)
(8.64466 5.36921 0)
(8.43273 6.34254 0)
(7.91688 7.16318 0)
(7.51498 8.09069 0)
(7.22255 9.08274 0)
(6.81587 9.67136 0)
(6.46168 9.48143 0)
(5.90897 8.10313 0)
(5.66378 6.96207 0)
(5.58096 7.25606 0)
(5.71577 8.0731 0)
(5.92288 8.85936 0)
(6.16498 8.80371 0)
(6.05072 8.28067 0)
(6.27263 7.67219 0)
(6.51698 7.02303 0)
(6.83368 6.08649 0)
(7.23059 5.0321 0)
(7.6196 4.11623 0)
(7.81951 3.41064 0)
(8.09801 2.2663 0)
(7.70967 1.9818 0)
(8.43289 0.296313 0)
(8.24054 0.0215606 0)
(8.53913 -1.66818 0)
(7.59084 -0.463048 0)
(8.1624 -2.65589 0)
(7.1727 -1.24377 0)
(7.97932 -3.50248 0)
(7.34493 -1.91768 0)
(7.99596 -3.85016 0)
(7.54535 -2.70224 0)
(7.83895 -3.32874 0)
(7.5178 -2.61883 0)
(7.99923 -2.86217 0)
(7.51621 -2.36079 0)
(7.93258 -1.53294 0)
(7.18853 -1.42697 0)
(7.86735 -0.559945 0)
(6.90895 -0.828698 0)
(8.00154 -0.35623 0)
(6.66251 -0.0842279 0)
(7.63936 1.02117 0)
(6.44706 1.46824 0)
(7.26966 2.20801 0)
(6.69725 3.03454 0)
(6.46851 2.31144 0)
(6.94005 3.968 0)
(6.35439 3.23786 0)
(5.87615 5.24992 0)
(7.28826 7.20495 0)
(4.00891 10.4092 0)
(5.42103 -0.116223 0)
(5.46816 -0.0822147 0)
(5.47937 -0.0354414 0)
(5.47177 -0.00301598 0)
(5.49883 -0.00296528 0)
(5.54893 -0.0247088 0)
(5.62336 -0.0486834 0)
(5.71008 -0.0709443 0)
(5.7978 -0.0878195 0)
(5.88071 -0.100872 0)
(5.95149 -0.104816 0)
(6.0208 -0.112098 0)
(6.09353 -0.112082 0)
(6.17131 -0.116217 0)
(6.25668 -0.133652 0)
(6.35395 -0.141328 0)
(6.45912 -0.175835 0)
(6.57015 -0.215725 0)
(6.69579 -0.267553 0)
(6.80936 -0.340206 0)
(6.91868 -0.419682 0)
(7.03669 -0.517954 0)
(7.08738 -0.605513 0)
(7.17106 -0.724716 0)
(7.15392 -0.806428 0)
(7.14435 -0.887183 0)
(7.04271 -0.950698 0)
(6.9011 -0.953834 0)
(6.7022 -0.91949 0)
(6.44294 -0.793333 0)
(6.24649 -0.627889 0)
(5.91595 -0.369981 0)
(5.59965 -0.126323 0)
(5.15488 0.099374 0)
(4.93371 0.474564 0)
(4.90473 0.834522 0)
(5.07694 1.2976 0)
(5.6276 1.79166 0)
(5.97276 2.01908 0)
(6.4762 2.14826 0)
(7.22356 2.24218 0)
(7.42158 2.01971 0)
(7.82315 1.66713 0)
(8.47682 1.41047 0)
(8.50598 0.993544 0)
(8.81142 0.551669 0)
(9.39455 0.264214 0)
(9.27737 -0.0486073 0)
(9.53091 -0.462764 0)
(10.068 -0.811326 0)
(9.97769 -0.859469 0)
(10.5354 -1.13963 0)
(11.0091 -1.55355 0)
(11.1859 -1.74507 0)
(11.8039 -2.06572 0)
(12.089 -2.3766 0)
(12.4949 -2.60907 0)
(12.8228 -2.92089 0)
(13.0161 -3.19801 0)
(13.1894 -3.24975 0)
(13.0465 -3.33364 0)
(12.9658 -3.35943 0)
(12.698 -3.2051 0)
(12.5653 -3.16156 0)
(12.4101 -2.99487 0)
(12.0951 -2.85392 0)
(12.007 -2.60134 0)
(11.6661 -2.33661 0)
(11.5748 -2.23535 0)
(11.3435 -2.18471 0)
(11.0747 -2.35935 0)
(11.1126 -2.31512 0)
(10.8971 -2.29861 0)
(10.8581 -2.36343 0)
(10.852 -2.30707 0)
(10.6753 -2.34181 0)
(10.8108 -2.36306 0)
(10.6621 -2.47759 0)
(10.5242 -2.55717 0)
(10.7008 -2.47752 0)
(10.6418 -2.42567 0)
(10.5353 -2.46637 0)
(10.677 -2.23667 0)
(10.6255 -2.06785 0)
(10.6074 -1.93676 0)
(10.6717 -1.52313 0)
(10.6819 -1.25505 0)
(10.6036 -0.978764 0)
(10.738 -0.54835 0)
(10.6906 -0.0931044 0)
(10.5056 0.25257 0)
(10.586 0.786524 0)
(10.5757 1.22807 0)
(10.3474 1.32362 0)
(10.1201 1.4957 0)
(9.98419 1.9891 0)
(9.82076 2.05203 0)
(9.39797 1.58899 0)
(9.12201 1.22794 0)
(9.206 1.48928 0)
(9.43414 1.92622 0)
(9.18053 2.06512 0)
(8.78969 1.85485 0)
(8.45779 1.38707 0)
(8.6206 1.03064 0)
(9.32035 1.30953 0)
(10.3629 1.99262 0)
(11.2084 2.63847 0)
(11.9218 3.0946 0)
(12.4333 3.48341 0)
(12.6916 3.75037 0)
(12.6016 3.40917 0)
(12.4719 2.78299 0)
(12.1509 2.09943 0)
(11.7905 1.31014 0)
(11.4819 0.185363 0)
(11.1629 -1.00931 0)
(10.7336 -2.1468 0)
(10.2953 -2.82099 0)
(10.0468 -3.6507 0)
(10.017 -4.72345 0)
(9.80688 -5.68931 0)
(9.59742 -6.28241 0)
(9.4076 -6.65494 0)
(9.17173 -7.09416 0)
(8.99713 -7.16419 0)
(8.63448 -6.98671 0)
(8.25893 -6.41547 0)
(7.6023 -5.63559 0)
(7.44256 -5.06922 0)
(7.07426 -4.94631 0)
(7.36985 -4.95912 0)
(7.49064 -5.30842 0)
(8.00624 -5.72371 0)
(8.53454 -6.12808 0)
(8.96754 -6.1802 0)
(9.14641 -5.9491 0)
(9.41091 -5.69287 0)
(9.74736 -5.17294 0)
(9.62183 -4.43961 0)
(9.76794 -3.60825 0)
(9.7122 -2.59975 0)
(9.53803 -1.38056 0)
(9.29658 -0.0570759 0)
(8.88841 0.909486 0)
(8.94364 1.87035 0)
(8.677 3.33057 0)
(8.25752 4.91031 0)
(7.89208 5.73876 0)
(7.70122 6.52969 0)
(7.38567 7.50915 0)
(6.89076 8.38317 0)
(6.76652 9.33878 0)
(6.44448 9.89449 0)
(6.0361 9.75455 0)
(5.95096 8.49243 0)
(5.47329 7.07323 0)
(5.37894 7.05624 0)
(5.93005 7.78484 0)
(6.00617 8.61029 0)
(6.52631 8.74473 0)
(6.50635 8.22777 0)
(6.7129 7.40212 0)
(7.032 6.85292 0)
(7.23979 5.66904 0)
(7.5814 4.75931 0)
(7.84619 3.85992 0)
(7.88801 3.34321 0)
(8.52438 2.06041 0)
(8.11135 1.93982 0)
(8.98806 -0.0036668 0)
(8.3217 0.285841 0)
(8.86721 -1.67609 0)
(7.60753 0.178648 0)
(8.53151 -3.01967 0)
(7.49639 -0.753882 0)
(8.53595 -4.08811 0)
(7.76628 -1.41467 0)
(8.31213 -4.55622 0)
(7.96354 -2.45056 0)
(8.29325 -3.95096 0)
(8.36313 -2.24007 0)
(8.28864 -3.32092 0)
(8.3403 -1.67184 0)
(7.79195 -2.23686 0)
(8.21319 -0.562908 0)
(7.32161 -1.18458 0)
(8.27982 -0.268813 0)
(7.12191 -0.497712 0)
(7.89211 0.577409 0)
(6.48276 0.718325 0)
(7.59194 2.0938 0)
(5.77914 2.25213 0)
(7.45786 2.9954 0)
(6.1346 2.77469 0)
(6.53534 3.24742 0)
(7.83814 3.78777 0)
(5.63796 4.56932 0)
(9.97165 4.13379 0)
(8.01465 10.4464 0)
(8.09032 -0.0915444 0)
(8.11397 -0.0116242 0)
(8.11064 0.0125124 0)
(8.09821 0.0130795 0)
(8.10276 -0.0236038 0)
(8.12791 -0.0657789 0)
(8.18499 -0.0936891 0)
(8.24988 -0.122488 0)
(8.30792 -0.131084 0)
(8.37242 -0.151211 0)
(8.41577 -0.147725 0)
(8.47595 -0.163488 0)
(8.51872 -0.169311 0)
(8.58934 -0.168348 0)
(8.64848 -0.207559 0)
(8.72309 -0.206628 0)
(8.82047 -0.252134 0)
(8.87763 -0.297925 0)
(8.99809 -0.339932 0)
(9.0614 -0.419547 0)
(9.13187 -0.482829 0)
(9.22541 -0.578447 0)
(9.21253 -0.637551 0)
(9.28789 -0.738271 0)
(9.20416 -0.800703 0)
(9.21164 -0.822361 0)
(9.05347 -0.877101 0)
(8.96258 -0.816367 0)
(8.79767 -0.743702 0)
(8.53819 -0.606281 0)
(8.4357 -0.414893 0)
(8.07188 -0.213103 0)
(7.95798 0.0920475 0)
(7.6542 0.360359 0)
(7.39702 0.638048 0)
(7.41589 0.960835 0)
(7.10121 1.18437 0)
(7.41034 1.3949 0)
(7.73573 1.64901 0)
(7.79441 1.68106 0)
(8.51667 1.59714 0)
(8.95009 1.56594 0)
(9.06341 1.35546 0)
(9.73939 0.972298 0)
(10.0061 0.62423 0)
(9.98928 0.378565 0)
(10.6879 -0.0261383 0)
(10.7826 -0.35029 0)
(10.8894 -0.584679 0)
(11.5607 -1.02276 0)
(11.6165 -1.20669 0)
(12.0684 -1.3921 0)
(12.5622 -1.8622 0)
(12.7978 -2.15749 0)
(13.2521 -2.28788 0)
(13.4157 -2.62218 0)
(13.6975 -2.93514 0)
(13.8569 -3.02992 0)
(13.7535 -3.29795 0)
(13.6314 -3.22826 0)
(13.3527 -3.11302 0)
(13.2497 -3.1403 0)
(12.9759 -2.95132 0)
(12.7035 -2.86684 0)
(12.3493 -2.50696 0)
(11.9373 -2.39958 0)
(11.7334 -2.35092 0)
(11.4697 -2.20902 0)
(11.3449 -2.33878 0)
(11.2042 -2.09275 0)
(11.0346 -2.0284 0)
(10.9425 -2.07241 0)
(10.6704 -2.12451 0)
(10.5709 -2.35787 0)
(10.6155 -2.31859 0)
(10.4349 -2.4657 0)
(10.4835 -2.56763 0)
(10.5718 -2.39336 0)
(10.5762 -2.45626 0)
(10.7504 -2.48312 0)
(10.7557 -2.37631 0)
(10.7834 -2.43867 0)
(10.961 -2.28046 0)
(10.9288 -2.02566 0)
(10.8693 -1.89637 0)
(10.9469 -1.50637 0)
(10.9177 -1.14991 0)
(10.6844 -0.926113 0)
(10.6295 -0.447055 0)
(10.5289 0.0504216 0)
(10.3262 0.312112 0)
(10.3752 0.676882 0)
(10.468 1.15415 0)
(10.3441 1.43613 0)
(10.2379 1.70777 0)
(10.1482 2.12969 0)
(10.1562 2.19575 0)
(9.99148 1.74293 0)
(9.71347 1.36093 0)
(9.55141 1.53571 0)
(9.54436 2.02331 0)
(9.4329 2.29441 0)
(9.09168 2.20759 0)
(8.78828 1.55053 0)
(8.59371 0.818099 0)
(9.10016 0.633797 0)
(9.92755 1.21186 0)
(10.8579 1.92697 0)
(11.6721 2.51627 0)
(12.4577 3.09584 0)
(12.7933 3.60728 0)
(12.88 3.43681 0)
(12.8865 2.91917 0)
(12.668 2.32808 0)
(12.3003 1.56727 0)
(12.0094 0.493107 0)
(11.631 -0.752186 0)
(11.1767 -1.82212 0)
(10.7607 -2.4954 0)
(10.5724 -3.48085 0)
(10.458 -4.57871 0)
(10.2282 -5.49637 0)
(9.9386 -5.9472 0)
(9.60966 -6.44363 0)
(9.35564 -6.88107 0)
(9.02762 -6.91162 0)
(8.5796 -6.61502 0)
(7.96952 -5.91592 0)
(7.33784 -5.26204 0)
(7.1329 -4.86961 0)
(6.78385 -4.93215 0)
(7.18076 -5.12905 0)
(7.23864 -5.61582 0)
(7.80176 -6.13234 0)
(8.20072 -6.49029 0)
(8.42597 -6.44867 0)
(8.56929 -6.19724 0)
(8.84155 -5.78653 0)
(8.8731 -5.21142 0)
(8.77563 -4.47181 0)
(8.91094 -3.5167 0)
(8.72581 -2.50268 0)
(8.6451 -1.15001 0)
(8.22554 0.240564 0)
(8.15077 1.04731 0)
(8.02392 1.99382 0)
(7.75321 3.55797 0)
(7.38747 5.08266 0)
(7.2117 5.9173 0)
(6.92032 6.83744 0)
(6.80518 7.78552 0)
(6.31744 8.56399 0)
(6.12581 9.49984 0)
(6.02011 10.1702 0)
(5.7336 9.81183 0)
(5.63448 8.68956 0)
(5.57633 7.37682 0)
(5.32362 6.75641 0)
(5.74052 7.41512 0)
(6.13765 8.30072 0)
(6.56296 8.38019 0)
(6.81005 8.1524 0)
(7.16659 7.13163 0)
(7.28993 6.75866 0)
(7.72875 5.38434 0)
(7.80185 4.62118 0)
(8.09024 3.62413 0)
(8.15207 3.22863 0)
(8.99859 1.64746 0)
(8.41165 1.98974 0)
(9.12228 -0.381208 0)
(8.25837 0.843644 0)
(8.77209 -1.87928 0)
(7.703 0.693469 0)
(8.69505 -3.48344 0)
(7.97532 -0.249351 0)
(8.64187 -4.48497 0)
(7.97862 -1.07576 0)
(8.70787 -4.86917 0)
(8.13231 -2.00257 0)
(8.76698 -4.31721 0)
(8.27684 -1.93724 0)
(8.6652 -3.65166 0)
(8.47674 -1.59702 0)
(8.52192 -2.08534 0)
(8.2396 -0.579263 0)
(8.43162 -1.14745 0)
(8.36001 -0.258941 0)
(8.28813 -0.413816 0)
(8.18513 0.782039 0)
(8.1188 1.21319 0)
(7.10961 2.50185 0)
(8.43109 2.24059 0)
(6.42476 3.40663 0)
(9.81295 2.70757 0)
(5.70459 4.55117 0)
(10.6519 2.43621 0)
(5.78535 7.40584 0)
(10.1742 2.46208 0)
(8.47459 9.73428 0)
(10.3772 -0.0850924 0)
(10.3538 0.00783348 0)
(10.3003 0.0244583 0)
(10.2293 -0.00180024 0)
(10.2622 -0.0451088 0)
(10.2795 -0.101502 0)
(10.3513 -0.122943 0)
(10.403 -0.144086 0)
(10.4351 -0.161674 0)
(10.4955 -0.177233 0)
(10.503 -0.182394 0)
(10.5641 -0.205695 0)
(10.5767 -0.216873 0)
(10.6201 -0.214099 0)
(10.6874 -0.261105 0)
(10.684 -0.26292 0)
(10.8197 -0.297664 0)
(10.7898 -0.357513 0)
(10.907 -0.395304 0)
(10.9309 -0.450391 0)
(10.9311 -0.539095 0)
(11.0264 -0.59398 0)
(10.9196 -0.641404 0)
(11.0084 -0.734857 0)
(10.8581 -0.75601 0)
(10.8566 -0.757862 0)
(10.7159 -0.780898 0)
(10.5531 -0.721553 0)
(10.5223 -0.595867 0)
(10.1359 -0.475103 0)
(10.2015 -0.307477 0)
(9.91558 -0.033073 0)
(9.73684 0.216154 0)
(9.74868 0.47724 0)
(9.4615 0.754823 0)
(9.65262 1.02428 0)
(9.45566 1.26775 0)
(9.45207 1.36416 0)
(9.92065 1.46068 0)
(9.81347 1.56538 0)
(10.1038 1.40761 0)
(10.7379 1.16359 0)
(10.6731 1.12219 0)
(11.1402 0.835269 0)
(11.7228 0.315368 0)
(11.5474 0.152336 0)
(12.1044 -0.184515 0)
(12.4967 -0.634554 0)
(12.5429 -0.862572 0)
(13.0941 -1.22041 0)
(13.2336 -1.50022 0)
(13.5904 -1.721 0)
(14.018 -2.13257 0)
(14.0205 -2.38366 0)
(14.2528 -2.45819 0)
(14.3659 -2.78612 0)
(14.4008 -3.02303 0)
(14.2316 -2.94954 0)
(13.9013 -3.02723 0)
(13.8215 -2.92611 0)
(13.4992 -2.92729 0)
(13.1373 -2.91494 0)
(12.7155 -2.57217 0)
(12.194 -2.57043 0)
(11.9361 -2.46244 0)
(11.7612 -2.34103 0)
(11.5672 -2.22841 0)
(11.4259 -2.04275 0)
(11.1771 -2.1133 0)
(11.0293 -1.95617 0)
(10.8887 -2.10299 0)
(10.7555 -2.16313 0)
(10.8231 -2.00589 0)
(10.694 -2.2373 0)
(10.6041 -2.21728 0)
(10.5304 -2.30953 0)
(10.5188 -2.52388 0)
(10.573 -2.48507 0)
(10.4875 -2.65242 0)
(10.6867 -2.69432 0)
(10.8689 -2.52695 0)
(10.8937 -2.52237 0)
(11.1495 -2.3216 0)
(11.3246 -2.02445 0)
(11.3452 -1.93895 0)
(11.4966 -1.59536 0)
(11.4806 -1.11335 0)
(11.3289 -0.814916 0)
(11.2074 -0.306105 0)
(11.0813 0.174002 0)
(10.7424 0.409736 0)
(10.5395 0.784859 0)
(10.328 1.35558 0)
(10.0698 1.6018 0)
(9.96905 1.67254 0)
(10.0548 1.96254 0)
(10.1341 2.22404 0)
(10.0443 1.97886 0)
(9.77982 1.63423 0)
(9.50519 1.6975 0)
(9.42201 2.08534 0)
(9.4125 2.40622 0)
(9.2998 2.40835 0)
(9.09025 1.77857 0)
(8.83555 0.766892 0)
(9.03432 0.203504 0)
(9.62404 0.490746 0)
(10.4284 1.13873 0)
(11.3048 1.7422 0)
(12.1306 2.5685 0)
(12.6048 3.31504 0)
(12.8369 3.33873 0)
(13.0225 2.95014 0)
(12.883 2.60064 0)
(12.5587 1.82738 0)
(12.3021 0.77535 0)
(11.9754 -0.378974 0)
(11.4862 -1.39248 0)
(11.0893 -2.30089 0)
(10.9921 -3.33334 0)
(10.8052 -4.45528 0)
(10.4536 -5.24143 0)
(10.0606 -5.71112 0)
(9.73237 -6.25443 0)
(9.46076 -6.52087 0)
(8.93034 -6.57616 0)
(8.3448 -6.08685 0)
(7.58059 -5.34923 0)
(7.02521 -4.9282 0)
(6.74948 -4.64911 0)
(6.53019 -4.95197 0)
(6.89373 -5.36274 0)
(6.93717 -5.92344 0)
(7.51606 -6.45196 0)
(7.62186 -6.70746 0)
(7.83833 -6.53228 0)
(7.91685 -6.22184 0)
(7.94603 -5.78402 0)
(7.91244 -5.2165 0)
(7.9144 -4.41285 0)
(7.87394 -3.44995 0)
(7.79901 -2.32549 0)
(7.6658 -0.931637 0)
(7.36082 0.257516 0)
(7.337 1.26895 0)
(7.05569 2.26455 0)
(6.9152 3.85543 0)
(6.38213 5.23351 0)
(6.35953 6.17453 0)
(6.12472 6.99811 0)
(5.99936 7.98741 0)
(5.67719 8.92876 0)
(5.46543 9.57399 0)
(5.32564 10.175 0)
(5.45627 9.95386 0)
(5.23122 8.68259 0)
(5.58716 7.42887 0)
(5.48026 6.75902 0)
(5.48661 7.00044 0)
(6.28378 7.91686 0)
(6.56821 8.0327 0)
(6.98196 7.87573 0)
(7.48401 6.81822 0)
(7.63055 6.62408 0)
(8.1475 5.05525 0)
(8.23189 4.65029 0)
(8.43024 3.2681 0)
(8.63813 3.09446 0)
(9.18747 1.34866 0)
(8.4319 2.25366 0)
(8.97946 -0.475828 0)
(8.03341 1.43767 0)
(8.53846 -2.1794 0)
(8.09995 1.11869 0)
(8.49892 -4.01269 0)
(8.68553 0.0030091 0)
(8.35063 -4.80489 0)
(8.74321 -0.828342 0)
(8.68507 -5.07033 0)
(8.13646 -1.69443 0)
(8.94353 -4.69362 0)
(7.59628 -1.30123 0)
(9.15979 -4.35858 0)
(7.58912 -0.646827 0)
(9.0543 -2.96211 0)
(7.06046 0.348497 0)
(9.38281 -2.09261 0)
(6.6084 0.507592 0)
(9.79072 -1.36147 0)
(6.72828 1.4153 0)
(10.2159 -0.0785599 0)
(6.72634 3.16319 0)
(11.2043 0.612394 0)
(6.87758 3.87721 0)
(12.3437 0.0875415 0)
(7.69858 4.86068 0)
(13.278 0.0432258 0)
(8.9355 6.38271 0)
(12.7347 1.87923 0)
(10.2041 7.57608 0)
(11.9712 -0.0472227 0)
(11.9136 -0.0202826 0)
(11.8544 -0.0418658 0)
(11.7724 -0.0615658 0)
(11.789 -0.107177 0)
(11.8273 -0.130788 0)
(11.8674 -0.156231 0)
(11.9363 -0.164913 0)
(11.9315 -0.175506 0)
(11.991 -0.21183 0)
(11.9715 -0.196176 0)
(12.017 -0.252522 0)
(12.0277 -0.243618 0)
(12.0156 -0.25719 0)
(12.106 -0.304353 0)
(12.0385 -0.298445 0)
(12.1622 -0.354393 0)
(12.1182 -0.376325 0)
(12.1823 -0.443473 0)
(12.182 -0.450209 0)
(12.1603 -0.541004 0)
(12.1903 -0.597768 0)
(12.0466 -0.592439 0)
(12.1186 -0.72279 0)
(11.9172 -0.693732 0)
(11.8791 -0.682947 0)
(11.8126 -0.688159 0)
(11.575 -0.619188 0)
(11.5908 -0.475621 0)
(11.282 -0.33137 0)
(11.3134 -0.259311 0)
(11.1572 0.0769709 0)
(10.9468 0.317926 0)
(11.1707 0.424126 0)
(10.9731 0.756522 0)
(11.0568 1.0581 0)
(11.3391 1.17951 0)
(11.2539 1.28636 0)
(11.5701 1.40009 0)
(11.854 1.42657 0)
(11.8981 1.27631 0)
(12.4215 0.985354 0)
(12.5205 0.938588 0)
(12.7467 0.641012 0)
(13.3199 0.0313449 0)
(13.1999 -0.030466 0)
(13.576 -0.360244 0)
(14.034 -0.94286 0)
(13.984 -1.06781 0)
(14.2749 -1.37396 0)
(14.5186 -1.75613 0)
(14.6531 -1.99474 0)
(14.6984 -2.20483 0)
(14.6753 -2.39387 0)
(14.8112 -2.64974 0)
(14.6238 -2.75472 0)
(14.3426 -2.72601 0)
(14.1628 -2.76873 0)
(13.9001 -2.85218 0)
(13.6248 -2.76353 0)
(13.1224 -2.64155 0)
(12.7702 -2.53184 0)
(12.5513 -2.37136 0)
(12.3901 -2.31122 0)
(12.2802 -2.12339 0)
(11.9594 -2.04866 0)
(11.693 -2.03971 0)
(11.5317 -1.89017 0)
(11.2651 -1.90451 0)
(11.1653 -1.80273 0)
(11.0026 -1.87664 0)
(10.8167 -1.97681 0)
(10.8126 -1.99003 0)
(10.6012 -2.29835 0)
(10.6046 -2.27855 0)
(10.6814 -2.33743 0)
(10.5463 -2.57525 0)
(10.6676 -2.48152 0)
(10.744 -2.60545 0)
(10.7455 -2.72938 0)
(10.9733 -2.57874 0)
(11.0222 -2.65485 0)
(11.2437 -2.55152 0)
(11.3806 -2.21344 0)
(11.466 -2.11953 0)
(11.7234 -1.66505 0)
(11.7693 -1.05677 0)
(11.7788 -0.809679 0)
(11.7641 -0.315533 0)
(11.7517 0.340137 0)
(11.483 0.669018 0)
(11.1122 1.08311 0)
(10.6892 1.63223 0)
(10.3114 1.83832 0)
(9.98537 1.8236 0)
(9.75685 2.02731 0)
(9.59527 2.22713 0)
(9.41454 2.01037 0)
(9.34811 1.69728 0)
(9.24858 1.81006 0)
(9.23973 2.14435 0)
(9.18863 2.47193 0)
(9.14895 2.49525 0)
(8.99734 1.9375 0)
(8.89725 0.825288 0)
(9.02222 -0.0349734 0)
(9.50023 -0.0877373 0)
(10.1553 0.361698 0)
(10.9562 0.98661 0)
(11.6158 2.01518 0)
(12.1105 2.93332 0)
(12.5293 3.10179 0)
(12.8174 2.97178 0)
(12.7303 2.72169 0)
(12.5709 2.01808 0)
(12.4196 1.01083 0)
(12.091 -0.0803979 0)
(11.6825 -1.05411 0)
(11.3652 -2.00615 0)
(11.2553 -3.14945 0)
(10.9945 -4.27018 0)
(10.53 -4.83915 0)
(10.062 -5.33291 0)
(9.7399 -5.93167 0)
(9.33834 -6.20765 0)
(8.7099 -6.0525 0)
(7.93809 -5.40168 0)
(7.09897 -4.85913 0)
(6.65689 -4.50068 0)
(6.27773 -4.52174 0)
(6.2431 -5.03419 0)
(6.53116 -5.50965 0)
(6.55605 -6.1876 0)
(6.95972 -6.67151 0)
(6.9568 -6.79374 0)
(7.19027 -6.59661 0)
(6.99318 -6.26303 0)
(7.05196 -5.75757 0)
(7.02195 -5.16604 0)
(6.92953 -4.37791 0)
(6.93809 -3.40638 0)
(6.83606 -2.18859 0)
(6.67621 -0.806067 0)
(6.5862 0.36024 0)
(6.49584 1.31661 0)
(6.19058 2.49835 0)
(5.83375 4.23041 0)
(5.54167 5.40726 0)
(5.52141 6.20672 0)
(5.43798 7.13542 0)
(5.20793 8.09359 0)
(5.09895 9.00946 0)
(4.80934 9.78915 0)
(4.77931 10.0932 0)
(4.79976 9.88797 0)
(5.12284 8.54803 0)
(5.17549 7.26744 0)
(5.4593 6.91216 0)
(5.666 6.63004 0)
(6.15549 7.42976 0)
(6.43482 7.59181 0)
(7.34859 7.3824 0)
(7.43513 6.45055 0)
(8.08471 6.38399 0)
(8.51861 4.70994 0)
(8.52241 4.69124 0)
(8.8469 2.8149 0)
(8.76445 3.13216 0)
(9.05993 1.17503 0)
(8.26239 2.72718 0)
(8.55338 -0.857406 0)
(8.36513 2.00719 0)
(8.05507 -2.82367 0)
(9.07189 1.45313 0)
(8.13212 -4.80937 0)
(9.81237 0.327662 0)
(8.22943 -5.15873 0)
(9.76208 -0.8205 0)
(8.75869 -5.37438 0)
(9.31452 -1.5667 0)