/*--------------------------------*- C++ -*----------------------------------*\
| =========                 |                                                 |
| \\      /  F ield         | OpenFOAM: The Open Source CFD Toolbox           |
|  \\    /   O peration     | Version:  2.4.0                                 |
|   \\  /    A nd           | Web:      www.OpenFOAM.org                      |
|    \\/     M anipulation  |                                                 |
\*---------------------------------------------------------------------------*/
FoamFile
{
    version     2.0;
    format      ascii;
    class       volScalarField;
    location    "1.5";
    object      k_0;
}
// * * * * * * * * * * * * * * * * * * * * * * * * * * * * * * * * * * * * * //

dimensions      [0 2 -2 0 0 0 0];

internalField   nonuniform List<scalar> 
8800
(
8.20476
10.2616
8.91949
6.65087
5.91012
4.72527
4.73682
3.95412
4.17304
3.46818
3.87509
3.13608
3.67364
2.89223
3.55548
2.68728
3.46956
2.48403
3.55857
2.31845
1.44126
4.31332
5.43152
5.19435
5.22185
4.66686
4.74076
4.15825
4.32961
3.75519
4.03946
3.44648
3.82981
3.22489
3.68218
3.05428
3.57354
2.9127
3.49975
3.09358
0.0857995
0.673444
1.68359
1.8768
2.4054
2.39599
2.66514
2.50845
2.76221
2.50299
2.75337
2.47326
2.71766
2.41684
2.64402
2.38356
2.57425
2.36531
2.46439
2.44702
0.0035135
0.0688625
0.301514
0.402202
0.657825
0.71497
0.926353
0.938462
1.11924
1.0914
1.23675
1.22488
1.33473
1.32583
1.35469
1.42902
1.41787
1.50391
1.41968
1.55394
0.000298138
0.00708048
0.0351316
0.0589501
0.113454
0.139918
0.196674
0.221008
0.274926
0.307432
0.325085
0.394377
0.410881
0.498878
0.484402
0.574528
0.552849
0.649302
0.608539
0.69364
5.72579e-05
0.000570905
0.00309956
0.00493487
0.0108487
0.0165753
0.0228592
0.0356027
0.0449473
0.0643579
0.0721381
0.0987029
0.109788
0.152553
0.155062
0.186714
0.18733
0.216766
0.213903
0.238773
3.7779e-05
0.000245197
0.00152693
0.00249549
0.00642143
0.00805712
0.0138619
0.0147446
0.0191619
0.0230136
0.0255151
0.031755
0.0355224
0.0468247
0.0473149
0.0540345
0.0536349
0.060114
0.0603427
0.0686132
0.000143664
0.000776237
0.00283954
0.0033405
0.00478905
0.00547031
0.00577659
0.00701404
0.00697163
0.00734261
0.00679813
0.00758196
0.00714239
0.00938834
0.00936523
0.0111069
0.0106602
0.0120236
0.011987
0.0153318
4.23484e-05
0.000142523
0.000347875
0.000588987
0.000523395
0.000689192
0.000568153
0.00078653
0.000711723
0.00102008
0.00103228
0.00116306
0.00106556
0.00178116
0.00185668
0.00238769
0.00272874
0.00265964
0.0024966
0.00297566
2.12579e-05
3.50927e-05
4.10828e-05
6.85932e-05
0.000124489
0.000157837
0.000157814
0.000161278
0.000159689
0.000283561
0.000407599
0.000414123
0.000444431
0.000547929
0.000874658
0.0010255
0.00100153
0.00095643
0.000939879
0.00102225
2.12598e-05
3.45733e-05
3.69293e-05
4.87052e-05
8.24895e-05
0.000131438
0.000113404
0.000119312
0.000144938
0.000244373
0.000276271
0.000354738
0.000388046
0.000625627
0.000750116
0.000961917
0.0010435
0.000999701
0.00110331
0.0011844
2.10627e-05
2.843e-05
4.37625e-05
8.49201e-05
8.42396e-05
7.92002e-05
8.06086e-05
9.45415e-05
0.000198473
0.000241998
0.000241225
0.000258195
0.000352574
0.000561592
0.000561831
0.00058229
0.000631185
0.000723885
0.000839435
0.00091393
2.09081e-05
2.95634e-05
8.904e-05
0.00010067
0.000138482
0.000136073
0.000218942
0.000255904
0.000395928
0.000417662
0.000414567
0.00054778
0.000674953
0.00123522
0.00148453
0.00163373
0.00157434
0.00170206
0.00203529
0.00288214
2.14498e-05
4.2585e-05
0.00028562
0.000358522
0.000964185
0.00111906
0.00209486
0.00247311
0.0036077
0.0040202
0.0043082
0.00697799
0.00832261
0.0131113
0.0144927
0.0163584
0.0167723
0.0189942
0.022038
0.0291141
2.5614e-05
0.000276592
0.00280192
0.00427041
0.0111865
0.0137119
0.0218507
0.0265636
0.0368711
0.0423931
0.0464945
0.0678952
0.0761696
0.0979179
0.102885
0.112452
0.118144
0.137717
0.151993
0.189679
0.000125667
0.00455773
0.0319011
0.0491306
0.102139
0.122821
0.168242
0.207069
0.251494
0.275348
0.295628
0.378851
0.401477
0.448926
0.461172
0.492888
0.51492
0.574934
0.608161
0.691467
0.00333568
0.0668999
0.278217
0.384494
0.620663
0.695876
0.837472
0.936213
1.03363
1.07318
1.13809
1.25557
1.27061
1.30973
1.32387
1.36201
1.38677
1.44406
1.47057
1.5342
0.0831169
0.715693
1.56544
1.91836
2.32393
2.41861
2.58123
2.60832
2.62782
2.58481
2.58808
2.5553
2.52989
2.46642
2.44814
2.41303
2.40598
2.37685
2.37087
2.35154
1.37965
4.35653
5.29964
5.3028
5.12091
4.83583
4.57806
4.27186
4.13435
3.86039
3.78976
3.55665
3.52682
3.36488
3.32363
3.20771
3.17466
3.05347
3.01644
2.9144
8.06979
10.2879
8.76215
6.89758
5.6453
5.0064
4.50685
4.13233
3.91734
3.64999
3.5783
3.31928
3.31784
3.13053
3.10956
2.94369
2.90682
2.73548
2.6634
2.43353
1.49361
1.11917
1.02797
0.832823
0.798006
0.695298
0.684872
0.627975
0.62942
0.596454
0.603664
0.580612
0.591256
0.575462
0.5869
0.57545
0.586054
0.577934
0.585521
0.576442
0.581182
0.570425
0.574847
0.560963
0.562614
0.537752
0.524944
0.460976
0.425961
0.333624
0.277598
0.216305
0.216967
0.221877
0.240519
0.262697
0.285479
0.299051
0.300595
0.296809
0.2879
0.277637
0.276161
0.278776
0.299267
0.311567
0.310812
0.302712
0.282072
0.239643
0.192494
0.139258
0.0986349
0.0741438
0.056052
0.042119
0.0387731
0.0397046
0.046782
0.0637251
0.15484
0.213173
0.220959
0.199596
0.142968
0.0853201
0.0528072
0.0384024
0.0369528
0.0388221
0.0463288
0.0479629
0.0473594
0.0470426
0.0475294
0.050396
0.0549611
0.0601466
0.0655697
0.0694405
0.0717189
0.0753722
0.0859881
0.117184
0.152208
0.179084
0.194851
0.203444
0.204204
0.200741
0.178827
0.142842
0.120409
0.0947011
0.0798731
0.0721711
0.0693504
0.0681313
0.0686906
0.0708717
0.0770274
0.0801499
0.0802515
0.0792893
0.0754645
0.068448
0.0610001
0.0537744
0.0469636
0.0410137
0.0363571
0.0318903
0.0280853
0.0248993
0.0222313
0.020048
0.0182702
0.0175415
0.0175028
0.0175164
0.017896
0.0195087
0.0221867
0.0224728
0.0206234
0.0172966
0.0149645
0.013906
0.0140218
0.0142256
0.0149024
0.0178564
0.022892
0.0271333
0.0330703
0.0350322
0.0349024
0.0355334
0.0429452
0.0463845
0.0441835
0.0380934
0.0352305
0.0358973
0.0423368
0.0612367
0.0795994
0.0886867
0.0893823
0.0857735
0.0757056
0.069384
0.0677105
0.0682306
0.0730416
0.0820675
0.0893558
0.104613
0.136971
0.174861
0.186718
0.185842
0.170532
0.119587
0.0828102
0.0636657
0.0555786
0.0517954
0.0449619
0.0424998
0.0411555
0.0413806
0.040649
0.0408805
0.0405111
0.0406928
0.043305
0.047083
0.0551785
0.0637286
0.0707585
0.0924674
0.152293
0.19455
0.200946
0.205512
0.210988
0.204411
0.18351
0.17475
0.166205
0.164453
0.169489
0.213217
0.268644
0.302765
0.300784
0.303357
0.456482
2.41397
2.37846
1.91465
1.67456
1.43055
1.30157
1.16377
1.08469
1.00684
0.950212
0.905586
0.856479
0.834832
0.790467
0.777002
0.744614
0.734682
0.706991
0.700049
0.677994
0.672927
0.65413
0.653356
0.642635
0.648408
0.641952
0.652908
0.647227
0.653791
0.645276
0.630157
0.585598
0.513126
0.424401
0.352848
0.307847
0.29869
0.297723
0.299405
0.297244
0.295735
0.293956
0.297084
0.314484
0.336451
0.337082
0.332292
0.319188
0.289724
0.241789
0.188508
0.135585
0.100259
0.0712458
0.0524457
0.0417277
0.0297468
0.0231471
0.0222926
0.0228507
0.0264928
0.0401545
0.124752
0.198558
0.208649
0.198504
0.145163
0.0909953
0.0559196
0.0415758
0.0399475
0.0412789
0.0451227
0.0464856
0.0465519
0.0465374
0.0471144
0.0490615
0.0536771
0.0576672
0.0621073
0.0681324
0.0819963
0.114692
0.147903
0.174674
0.191557
0.200406
0.201926
0.19774
0.179578
0.140599
0.11333
0.0894883
0.0763817
0.0715731
0.0691727
0.0693661
0.0713909
0.0764036
0.0873323
0.0970054
0.0998619
0.0992181
0.096376
0.0895302
0.0805045
0.0717699
0.0633034
0.0570025
0.0511227
0.0460233
0.0417782
0.0377452
0.0337167
0.0299527
0.0264482
0.0228536
0.0199799
0.0187613
0.0181481
0.0181364
0.018769
0.0222777
0.0249403
0.0248825
0.0240338
0.0203874
0.0174275
0.0171124
0.0168214
0.0168103
0.0186113
0.0229221
0.0245235
0.0284799
0.0333907
0.0341219
0.0367138
0.0479876
0.0497788
0.0443457
0.0357183
0.0331635
0.0347273
0.0448494
0.0668256
0.0814398
0.0895569
0.0896601
0.0839334
0.0715578
0.0662929
0.0644342
0.0650293
0.0683289
0.0775843
0.0810973
0.0890575
0.107665
0.14662
0.172389
0.178132
0.172774
0.144803
0.0970495
0.0719448
0.0583515
0.052993
0.0456666
0.0433831
0.0427493
0.0420316
0.0409161
0.0410008
0.0409094
0.0410056
0.0427127
0.0463672
0.0572608
0.0651233
0.0737916
0.102842
0.160475
0.216757
0.238917
0.238537
0.22962
0.202182
0.183909
0.17675
0.165749
0.163321
0.164454
0.185825
0.260739
0.31675
0.338784
0.323696
0.45718
1.26535
2.19817
1.95788
1.6765
1.54097
1.33493
1.2633
1.11905
1.07306
0.972601
0.941187
0.866382
0.843653
0.785382
0.768227
0.721195
0.708198
0.670516
0.66077
0.630082
0.62313
0.598084
0.594965
0.578653
0.582007
0.575069
0.586289
0.586906
0.604646
0.60848
0.626667
0.622174
0.623162
0.605994
0.587408
0.536754
0.504179
0.456007
0.434208
0.407517
0.401898
0.399012
0.398205
0.38878
0.378094
0.353088
0.328085
0.28172
0.225036
0.160403
0.110986
0.0692171
0.0468723
0.0356431
0.0264828
0.0217934
0.0206515
0.0164812
0.0136922
0.0133505
0.0137865
0.0171082
0.0282883
0.0988257
0.171636
0.187895
0.18574
0.160496
0.102446
0.0635961
0.0477799
0.044582
0.0450463
0.046249
0.0464853
0.0465041
0.0468071
0.0478322
0.0516666
0.0559853
0.0636865
0.084539
0.112413
0.141896
0.169291
0.187955
0.19756
0.199293
0.195259
0.177349
0.139418
0.109792
0.086586
0.0749734
0.0708644
0.0701945
0.0721862
0.078256
0.0908664
0.109914
0.127393
0.136133
0.136264
0.133512
0.125998
0.114947
0.10174
0.0903479
0.0801613
0.0721471
0.0659928
0.0605992
0.0563063
0.0516234
0.046643
0.0418232
0.0381266
0.0331083
0.0271345
0.0235199
0.0211101
0.0197101
0.019621
0.0205452
0.023692
0.0284234
0.0300175
0.0295106
0.0246815
0.0226487
0.021213
0.0205614
0.0212852
0.0249599
0.0264829
0.0290237
0.0369493
0.0396807
0.0438191
0.0503168
0.0501781
0.0407964
0.033367
0.0319998
0.0338483
0.0515695
0.0758458
0.0874156
0.0894916
0.0887212
0.0784716
0.0688131
0.0634684
0.0618535
0.0620271
0.0658084
0.0738203
0.0783977
0.0817901
0.0906273
0.119603
0.152703
0.165657
0.166846
0.156724
0.118671
0.0873052
0.0665979
0.0565412
0.0481181
0.0450007
0.0433979
0.0425175
0.0422714
0.0425402
0.0431251
0.0443513
0.0457134
0.049504
0.062444
0.0700364
0.0823196
0.124414
0.177063
0.260837
0.271838
0.261462
0.23226
0.196964
0.177617
0.164269
0.158863
0.15852
0.160126
0.16961
0.248635
0.293253
0.402358
0.361075
0.445594
0.765226
1.44151
1.3646
1.20638
1.14775
1.02307
0.978823
0.883139
0.850783
0.777218
0.751913
0.69163
0.67058
0.619616
0.602041
0.558473
0.543693
0.506415
0.494472
0.463534
0.454519
0.429476
0.42366
0.405303
0.404273
0.398663
0.404195
0.405366
0.419182
0.428332
0.459332
0.47547
0.513477
0.525253
0.538469
0.52996
0.522198
0.501095
0.488985
0.463025
0.450899
0.424569
0.404659
0.369338
0.329227
0.277474
0.221654
0.156497
0.103015
0.0671987
0.044484
0.0323743
0.0241415
0.0213259
0.0186952
0.0149333
0.0139898
0.0135485
0.0112951
0.00959747
0.00932883
0.00943607
0.0122323
0.0221572
0.0789044
0.150865
0.173197
0.172182
0.161634
0.11987
0.0787204
0.0593335
0.0514771
0.0499379
0.0495789
0.0492948
0.0494258
0.0503366
0.0548368
0.0664074
0.0880911
0.114429
0.142311
0.167543
0.186252
0.194793
0.195293
0.190778
0.170223
0.135247
0.107444
0.0837562
0.0740223
0.0706314
0.0714683
0.0770441
0.0926259
0.11927
0.152263
0.182313
0.198065
0.199183
0.19598
0.186084
0.17222
0.152966
0.134066
0.118852
0.105918
0.0960208
0.0892749
0.0825972
0.0776765
0.0715559
0.0663679
0.0610926
0.0554796
0.0498523
0.0425828
0.0351449
0.0288047
0.0252459
0.0222145
0.0217868
0.0229777
0.0291637
0.0337533
0.0346506
0.0335262
0.029495
0.0263692
0.0254409
0.02633
0.0285686
0.0293533
0.0310928
0.0417613
0.0455398
0.0456251
0.0460251
0.0426763
0.0341183
0.0313411
0.0312689
0.0343449
0.0577192
0.0841521
0.0898682
0.0890896
0.0823432
0.0709869
0.0644481
0.0602306
0.0597579
0.059436
0.0652704
0.0706134
0.0790296
0.0802618
0.0841765
0.098661
0.132281
0.153502
0.158797
0.155025
0.140922
0.108718
0.0851151
0.0678687
0.0549701
0.0488723
0.0451298
0.0455096
0.047173
0.0479995
0.0491412
0.0496275
0.0514921
0.0572458
0.0709761
0.0779905
0.0944628
0.147812
0.227594
0.300061
0.301513
0.271836
0.225435
0.185471
0.169888
0.158668
0.158654
0.157996
0.165343
0.177076
0.277889
0.303173
0.463042
0.406993
0.449981
0.576258
0.659279
0.636798
0.585437
0.565289
0.519349
0.50143
0.461287
0.446856
0.414081
0.402139
0.374349
0.363496
0.338242
0.328347
0.305435
0.296475
0.276016
0.268297
0.250862
0.244666
0.230476
0.225839
0.214674
0.212018
0.205601
0.205866
0.206297
0.211255
0.216412
0.230361
0.240299
0.262468
0.279475
0.30468
0.327432
0.345055
0.345259
0.341872
0.330294
0.309344
0.277013
0.242873
0.201938
0.156429
0.114487
0.082038
0.0567591
0.0388346
0.0278327
0.0195583
0.016434
0.013614
0.0103975
0.0101547
0.0112118
0.0111196
0.0113052
0.0113267
0.00947597
0.0081473
0.0076196
0.00773023
0.00980408
0.0197435
0.0612609
0.133254
0.161078
0.163498
0.15909
0.137315
0.101224
0.0765674
0.0656252
0.0616822
0.0604015
0.0604445
0.0653829
0.0821303
0.103088
0.124303
0.147927
0.170557
0.183975
0.188043
0.187124
0.1811
0.157188
0.12969
0.10418
0.0815248
0.0724316
0.0708615
0.0735901
0.0854725
0.116185
0.169714
0.222854
0.268225
0.294633
0.296914
0.293381
0.281076
0.261802
0.237986
0.20696
0.18088
0.160353
0.143828
0.132406
0.124521
0.117398
0.111125
0.10563
0.0993723
0.0948623
0.0861297
0.0775393
0.0712456
0.0583826
0.0451354
0.0361599
0.0291391
0.0253973
0.0253721
0.0281698
0.0356758
0.0405213
0.0407573
0.0378902
0.0311281
0.0285331
0.0290735
0.0304391
0.0308725
0.0347359
0.0442567
0.0452963
0.0421016
0.0377412
0.0347868
0.0315656
0.030749
0.0313172
0.035099
0.0602773
0.0871857
0.0919809
0.0904506
0.0798909
0.0700991
0.0625181
0.0595624
0.0586924
0.0586998
0.0646839
0.0710495
0.0778655
0.0806903
0.0824049
0.0890378
0.112017
0.13941
0.149832
0.150401
0.145719
0.133151
0.105551
0.0845586
0.0638393
0.0538038
0.0510276
0.0519612
0.0547941
0.0551888
0.0556559
0.0565022
0.059288
0.0678417
0.0751992
0.0840778
0.112774
0.199348
0.273258
0.323529
0.313181
0.264623
0.218183
0.180468
0.1761
0.166834
0.177577
0.17397
0.22118
0.240435
0.437433
0.379994
0.533358
0.447337
0.452397
0.505948
0.232217
0.226229
0.212052
0.205804
0.192044
0.186489
0.174589
0.169957
0.160174
0.156182
0.147657
0.143681
0.135186
0.131338
0.12321
0.11964
0.112191
0.109031
0.102708
0.100224
0.0955213
0.0939559
0.0906842
0.0899167
0.0885108
0.0884849
0.0887471
0.0901257
0.0920204
0.096539
0.100255
0.108708
0.114168
0.122008
0.130531
0.136354
0.136504
0.134909
0.12958
0.119701
0.104694
0.0879146
0.0706824
0.0545892
0.0401501
0.0290914
0.0210306
0.0148687
0.0113066
0.00923904
0.00719926
0.00649103
0.00650309
0.00612011
0.0061874
0.00658503
0.00750385
0.00999974
0.010844
0.010196
0.00815854
0.0074257
0.00735933
0.00882503
0.0166413
0.0469701
0.112108
0.147645
0.15635
0.155205
0.147242
0.127601
0.110677
0.10181
0.098991
0.0992911
0.104562
0.116756
0.133035
0.14932
0.164786
0.173344
0.174479
0.172752
0.167052
0.143216
0.124314
0.101304
0.0786212
0.0702053
0.0702968
0.0761559
0.0975555
0.151834
0.244875
0.328276
0.391808
0.425931
0.430123
0.426504
0.415528
0.389843
0.363219
0.320359
0.275609
0.240443
0.211702
0.193023
0.181404
0.173452
0.16832
0.164466
0.16086
0.154695
0.148827
0.138312
0.124648
0.113575
0.101981
0.0823527
0.0614906
0.0444423
0.0340855
0.0301812
0.0305496
0.0351054
0.0423942
0.0438486
0.0432013
0.0384259
0.032488
0.0312039
0.0306244
0.0308169
0.0362979
0.0401496
0.0374667
0.0308365
0.028865
0.029445
0.0302912
0.0306531
0.0316876
0.0350374
0.0597135
0.0891592
0.0973473
0.0948753
0.0837042
0.0728761
0.0635222
0.0599134
0.0588501
0.0608773
0.0645165
0.0742633
0.0779199
0.0828076
0.0832119
0.0868953
0.101357
0.122752
0.141235
0.145645
0.144264
0.140552
0.12372
0.0970186
0.074623
0.061979
0.0610038
0.0623878
0.0655195
0.0664353
0.066584
0.0681488
0.0689633
0.0735964
0.0791222
0.0920383
0.154726
0.254013
0.302679
0.331411
0.312879
0.256852
0.218433
0.180666
0.186054
0.182284
0.2187
0.21264
0.257802
0.293062
0.595513
0.529388
0.634675
0.553437
0.461752
0.482267
0.0671966
0.0654217
0.0611774
0.0594305
0.0559752
0.0546672
0.0522601
0.051311
0.0493925
0.0485149
0.0466548
0.0456495
0.0435104
0.0424302
0.0401786
0.0390956
0.0369667
0.035662
0.0342024
0.0331099
0.0323591
0.0319118
0.0318235
0.0319663
0.0323417
0.03327
0.0340199
0.035547
0.0365508
0.0382743
0.0399048
0.0425783
0.0443669
0.0473807
0.0497077
0.0503273
0.0500747
0.0490412
0.0463873
0.0415175
0.0353783
0.0288063
0.0225247
0.0168678
0.012585
0.00919952
0.00700789
0.00573337
0.00474946
0.00438045
0.00439536
0.00424082
0.00424189
0.00431795
0.00436874
0.00455569
0.00488409
0.00637751
0.00931101
0.0106232
0.0104677
0.00868046
0.00737102
0.0072666
0.0081693
0.0141461
0.0313909
0.0867248
0.128732
0.145905
0.148093
0.146851
0.142256
0.138581
0.137233
0.137367
0.138659
0.14245
0.151356
0.159202
0.162757
0.162799
0.160772
0.154653
0.131714
0.118967
0.0974972
0.0735474
0.0668593
0.068053
0.0785955
0.116055
0.201654
0.349086
0.458733
0.510863
0.533175
0.533603
0.529272
0.517519
0.493525
0.46002
0.41658
0.36641
0.322721
0.284264
0.256519
0.244207
0.23581
0.228902
0.219506
0.209321
0.200837
0.188798
0.178311
0.167176
0.153905
0.143344
0.131565
0.112471
0.0955843
0.0759938
0.053942
0.0411032
0.036245
0.0374684
0.0431075
0.0465334
0.0464837
0.0417376
0.0340049
0.0310684
0.0294838
0.0295822
0.0302834
0.0295171
0.0269247
0.0254839
0.0250429
0.0270736
0.0302323
0.0309349
0.0313248
0.0335555
0.053556
0.0890845
0.101175
0.101286
0.0945297
0.0819002
0.0699805
0.0633158
0.0620674
0.0641044
0.0670365
0.0744132
0.0804133
0.0844351
0.0850782
0.087113
0.098091
0.111414
0.129477
0.139927
0.141579
0.140445
0.132749
0.107748
0.0875064
0.0733516
0.0726139
0.0772506
0.0837913
0.0835073
0.0770669
0.0736552
0.0730493
0.0754322
0.0830653
0.107652
0.218355
0.302084
0.326381
0.323043
0.288009
0.231643
0.220253
0.181836
0.179496
0.182479
0.250381
0.241305
0.246835
0.280532
0.418386
0.560639
0.642379
0.650435
0.529548
0.495514
0.0151381
0.0148344
0.0142027
0.0136316
0.0133164
0.0130306
0.0129184
0.0127471
0.0125516
0.0123521
0.0119516
0.0115427
0.0109858
0.0104649
0.00985238
0.0094052
0.00891394
0.00853292
0.00820166
0.00798484
0.00792632
0.00793431
0.00797716
0.0081343
0.00834971
0.00882208
0.00942971
0.0104128
0.0113903
0.0125285
0.0135835
0.0147978
0.0155991
0.016273
0.0165035
0.0164184
0.0158867
0.0145441
0.012717
0.0106946
0.00875032
0.00690334
0.00546031
0.00434375
0.00362759
0.00318894
0.00301212
0.00302126
0.0031181
0.00333053
0.00354607
0.00370215
0.00382265
0.00386322
0.00383235
0.00381899
0.00392727
0.00411175
0.00500021
0.00786398
0.00938594
0.00945256
0.00830599
0.00728998
0.00721096
0.00790813
0.0114695
0.0223973
0.0565492
0.102801
0.128079
0.138451
0.141033
0.142587
0.143805
0.144756
0.146142
0.149588
0.152698
0.153528
0.152767
0.15004
0.138507
0.123246
0.112713
0.0891387
0.0645878
0.0611111
0.064213
0.081311
0.138251
0.277532
0.462611
0.542809
0.572243
0.582449
0.580167
0.57103
0.559653
0.540769
0.511022
0.471313
0.416568
0.364821
0.324833
0.30118
0.292195
0.279608
0.265574
0.252819
0.237108
0.22271
0.211953
0.198062
0.185674
0.176681
0.166375
0.157291
0.147612
0.134512
0.117659
0.0978813
0.0778354
0.0560891
0.0443074
0.0426953
0.0446733
0.0474442
0.0474591
0.0452085
0.0380021
0.0332327
0.0295459
0.0272156
0.0259473
0.0254482
0.0252147
0.0246699
0.0247311
0.0284474
0.0321048
0.0319609
0.0317343
0.0327863
0.0464726
0.0888683
0.108214
0.109729
0.103124
0.0885144
0.0743195
0.0646607
0.0631029
0.0642393
0.0697855
0.0745868
0.0833962
0.0855391
0.0882579
0.0883058
0.0933898
0.109173
0.11942
0.13502
0.138245
0.13842
0.135345
0.119031
0.0961
0.0859155
0.0873387
0.098604
0.101821
0.0938488
0.0807096
0.0742342
0.0740294
0.077058
0.091178
0.16072
0.278626
0.329859
0.340993
0.30453
0.260929
0.218264
0.215849
0.193164
0.181655
0.183595
0.239813
0.258282
0.257684
0.282311
0.295336
0.497647
0.597927
0.712644
0.625584
0.522387
0.00302826
0.00305222
0.00310209
0.00311124
0.00313738
0.00316335
0.00321668
0.00327408
0.00331962
0.00333418
0.00333125
0.00329392
0.00311755
0.00289913
0.00267954
0.00250467
0.00238113
0.00231502
0.0022958
0.00229455
0.00232637
0.00240518
0.00247939
0.00256335
0.00262687
0.00269615
0.00277185
0.00289986
0.00315784
0.00354871
0.00404085
0.00459459
0.00505188
0.00534621
0.00542226
0.00540234
0.00522727
0.00452455
0.00378044
0.00316032
0.00266011
0.00232959
0.00220476
0.00220757
0.00224896
0.0023285
0.0025007
0.0027907
0.00301366
0.0033411
0.00370474
0.00385257
0.00393755
0.00424039
0.00444965
0.00444404
0.00440206
0.00428473
0.00419525
0.00438908
0.00617147
0.00737432
0.00744847
0.00675059
0.00617643
0.00616984
0.00665733
0.0086275
0.0153413
0.0297596
0.0653579
0.0987904
0.11824
0.129088
0.134836
0.138075
0.140517
0.141457
0.141117
0.139053
0.134289
0.123159
0.11411
0.0990672
0.0700154
0.0524631
0.0523433
0.0585298
0.0859838
0.166063
0.370403
0.529679
0.589441
0.601155
0.601272
0.598496
0.586241
0.571082
0.553591
0.523169
0.479072
0.415623
0.365779
0.338548
0.324621
0.316061
0.305729
0.287635
0.274303
0.259178
0.241078
0.227643
0.21682
0.20647
0.19428
0.18171
0.171116
0.161289
0.153038
0.146278
0.133112
0.115312
0.0975455
0.0796074
0.0642289
0.0551416
0.0511409
0.050895
0.0509662
0.0483491
0.0407809
0.0349345
0.0299585
0.027394
0.0261383
0.0255604
0.0255896
0.026194
0.0279903
0.0332525
0.0346124
0.0332181
0.0311473
0.0312549
0.0397519
0.08556
0.114878
0.116912
0.108228
0.0904808
0.0752555
0.0642702
0.0611693
0.0618608
0.0672375
0.0757197
0.0835632
0.086644
0.0882434
0.089787
0.0920488
0.106021
0.115571
0.12962
0.137435
0.13775
0.136381
0.124723
0.108864
0.105709
0.112762
0.122091
0.116764
0.0917137
0.0770218
0.0729657
0.0736477
0.0801318
0.115852
0.239226
0.314809
0.350275
0.331493
0.27707
0.260026
0.227236
0.208264
0.200745
0.192307
0.198474
0.202628
0.254561
0.251723
0.262695
0.321197
0.490449
0.546259
0.758156
0.724724
0.56543
0.00115889
0.00121132
0.0012753
0.00132528
0.0013539
0.00136479
0.00136878
0.00136968
0.00136589
0.00135386
0.00134471
0.00134239
0.00134327
0.00134319
0.00133763
0.0013306
0.00132856
0.00134407
0.00141503
0.00150993
0.00160777
0.00169852
0.00176608
0.00182255
0.00186483
0.00188275
0.00189905
0.00192274
0.00194327
0.00197313
0.0020333
0.00210602
0.00216891
0.00220117
0.0022025
0.00219154
0.00210492
0.00198683
0.00189977
0.00186181
0.00186009
0.00188027
0.00195712
0.00219311
0.00251216
0.00298014
0.00343632
0.00394281
0.00446131
0.00490073
0.00533197
0.00559211
0.00584066
0.00644486
0.00677363
0.00677954
0.00666243
0.00620941
0.00533689
0.00488892
0.00485962
0.00554354
0.00638784
0.00651611
0.00616962
0.00579912
0.0058089
0.00609582
0.00722942
0.0103463
0.0177105
0.0338832
0.0555103
0.0760717
0.0923867
0.104864
0.109988
0.110072
0.108734
0.10468
0.0981707
0.0863993
0.0653272
0.045105
0.0400957
0.0421101
0.0529742
0.0961142
0.207846
0.448242
0.571983
0.614769
0.615381
0.600886
0.567636
0.544661
0.514649
0.495556
0.461036
0.408639
0.367614
0.345535
0.336682
0.330874
0.326863
0.319212
0.305704
0.289214
0.278697
0.262066
0.253511
0.249929
0.241128
0.234278
0.22428
0.201077
0.18377
0.167716
0.15841
0.152293
0.140771
0.124812
0.110509
0.0951433
0.0780094
0.0646114
0.0576797
0.0567045
0.0564823
0.0513868
0.0430994
0.0365948
0.0308806
0.0281089
0.0272437
0.0272
0.0288545
0.0304067
0.0315839
0.0343238
0.0347225
0.0318733
0.0286814
0.0284245
0.0333522
0.0752201
0.119328
0.124108
0.115004
0.0922296
0.0749822
0.0636406
0.0589973
0.0585583
0.0610796
0.0717416
0.0787932
0.0837618
0.0872188
0.0900755
0.0920286
0.0987653
0.114765
0.129635
0.137415
0.138795
0.138538
0.13481
0.129151
0.129563
0.135726
0.134524
0.106856
0.0833992
0.0742601
0.073446
0.0765046
0.0935653
0.180499
0.303109
0.34013
0.35825
0.279132
0.246509
0.220647
0.217718
0.197084
0.199586
0.200177
0.19201
0.206523
0.243276
0.248694
0.256141
0.301333
0.481958
0.535263
0.724069
0.714439
0.620972
0.00119022
0.00119969
0.0012197
0.00127775
0.00135864
0.00147225
0.00156647
0.00166084
0.00172128
0.00176528
0.00177595
0.00176407
0.00168446
0.00161011
0.00156153
0.00155209
0.00162443
0.00183983
0.00207863
0.00226142
0.00241265
0.00247948
0.00250175
0.00248431
0.00237669
0.00225346
0.00215091
0.00208644
0.00205846
0.00205202
0.00206473
0.00210451
0.00214657
0.00217723
0.00219427
0.00218154
0.00214194
0.0021295
0.00213711
0.00217885
0.00229827
0.00269178
0.00332125
0.00443347
0.00541958
0.00658599
0.00780988
0.00889346
0.00974421
0.0105914
0.0112518
0.0113683
0.0113173
0.0115358
0.0115752
0.0115094
0.0112858
0.0108122
0.00933418
0.00724995
0.00613549
0.00593562
0.00605736
0.00639489
0.00643104
0.00630157
0.00609535
0.00612703
0.00633941
0.00694957
0.00849391
0.0116615
0.0198475
0.0290813
0.0374647
0.0477775
0.0547043
0.0556099
0.0545077
0.051027
0.0431297
0.0326157
0.0282453
0.0290962
0.0339384
0.0514878
0.112253
0.279766
0.501333
0.596569
0.628302
0.611868
0.539196
0.457814
0.427092
0.415719
0.403247
0.373268
0.345925
0.33268
0.33041
0.331594
0.332303
0.333246
0.330442
0.317342
0.303869
0.290565
0.278318
0.269069
0.263852
0.261022
0.260634
0.257531
0.244525
0.233108
0.216551
0.1874
0.174213
0.160425
0.145944
0.133252
0.122399
0.10756
0.0917258
0.0810684
0.0728833
0.0668674
0.0615719
0.0533245
0.044602
0.0376856
0.0326503
0.0304649
0.0305048
0.0327286
0.0359065
0.03639
0.0356853
0.034877
0.0331967
0.0299349
0.0275783
0.0271366
0.029863
0.0617621
0.11893
0.130422
0.124241
0.0953105
0.0751896
0.0639864
0.0592575
0.0583815
0.0605141
0.0665629
0.0765216
0.083318
0.0872248
0.0882914
0.0905295
0.0973396
0.115143
0.134227
0.137794
0.1414
0.146443
0.14681
0.143845
0.144269
0.145335
0.126627
0.0950882
0.0788833
0.0766338
0.078039
0.0862879
0.142299
0.254605
0.346339
0.354119
0.315621
0.219191
0.198631
0.189449
0.194608
0.198138
0.19777
0.206061
0.194795
0.217368
0.238539
0.275953
0.282708
0.30765
0.43803
0.485106
0.636216
0.663687
0.621318
0.00101281
0.00106384
0.00112371
0.00119379
0.00125345
0.00129391
0.0013151
0.00132007
0.00131719
0.0013009
0.0012863
0.00127897
0.00129591
0.00141386
0.00161465
0.00187546
0.00215664
0.00244694
0.00269443
0.00287447
0.00297757
0.00301577
0.00302261
0.00300319
0.00288213
0.00270122
0.00251255
0.00233649
0.00221774
0.00215976
0.00214885
0.00215593
0.00216863
0.0021469
0.00213154
0.00213661
0.00217184
0.00227131
0.00267278
0.00364101
0.00539339
0.00729231
0.00962573
0.0125129
0.0151708
0.0180699
0.0206909
0.0229028
0.0247129
0.0260204
0.0266494
0.0265467
0.0260942
0.0251073
0.023375
0.0214595
0.0200724
0.0186915
0.0165969
0.0136731
0.0106777
0.00853412
0.00757066
0.00731265
0.00725604
0.00720831
0.00715406
0.00684291
0.00677085
0.006837
0.00709342
0.00764656
0.00959242
0.0116771
0.0138803
0.01821
0.0206918
0.0207945
0.0204944
0.0189245
0.0185447
0.0192688
0.0218836
0.0307457
0.0600772
0.138763
0.368545
0.541466
0.615604
0.624324
0.585643
0.455414
0.392293
0.365583
0.358534
0.352865
0.332091
0.317165
0.316712
0.320427
0.325081
0.333726
0.335433
0.330383
0.316287
0.301261
0.284295
0.278341
0.272747
0.269886
0.262925
0.247012
0.243291
0.241942
0.238796
0.234424
0.21883
0.200152
0.19456
0.175978
0.154047
0.14016
0.127764
0.115469
0.103143
0.0936103
0.0823764
0.0726189
0.0647165
0.0558334
0.0471891
0.0414142
0.038072
0.0366286
0.0369804
0.0389381
0.0394083
0.0390367
0.0355666
0.032327
0.0309825
0.0295763
0.0274076
0.0264103
0.027417
0.0444396
0.109158
0.134054
0.131088
0.0991218
0.0791727
0.0713472
0.0669585
0.0633371
0.0644673
0.068995
0.0746641
0.0788543
0.080735
0.0847236
0.0909838
0.100103
0.119326
0.135312
0.13853
0.149053
0.153759
0.152358
0.148838
0.147325
0.140921
0.110614
0.0902364
0.0837514
0.0851447
0.0915871
0.110215
0.229948
0.320657
0.367819
0.341531
0.244507
0.191381
0.192765
0.195698
0.205527
0.222794
0.224892
0.253501
0.236017
0.290461
0.288022
0.348319
0.336152
0.389525
0.454587
0.463832
0.519788
0.578614
0.580113
0.00346272
0.00365646
0.00379091
0.00391152
0.00400354
0.00405921
0.00416611
0.00424751
0.00439117
0.00457196
0.00476812
0.00508599
0.00554867
0.0060897
0.00678264
0.00756315
0.00833562
0.0091429
0.00978502
0.0102038
0.0103627
0.0103636
0.0103051
0.010168
0.00966424
0.00885267
0.00790027
0.00701191
0.00619127
0.00550544
0.00494853
0.00458078
0.0045151
0.00454874
0.00469568
0.00508452
0.00645545
0.00920614
0.0130932
0.0171447
0.0221588
0.0278628
0.0335647
0.0394686
0.0453526
0.0504736
0.0550846
0.0585885
0.0618149
0.0636333
0.0635759
0.0627928
0.0607589
0.0572253
0.0521838
0.046286
0.0404908
0.035034
0.0303949
0.0258894
0.020988
0.016497
0.0132611
0.0111477
0.0100152
0.00956308
0.00900898
0.00836406
0.00765584
0.00721538
0.00713501
0.00715047
0.0073312
0.00766929
0.00840922
0.00932686
0.00976571
0.0107334
0.0116103
0.0126649
0.0148115
0.01989
0.0337736
0.0788869
0.194966
0.452383
0.578191
0.625456
0.611825
0.521872
0.414656
0.367159
0.346523
0.335499
0.318127
0.312032
0.305596
0.303486
0.30946
0.324255
0.332731
0.331129
0.323251
0.304051
0.280648
0.270002
0.259241
0.261779
0.261998
0.254676
0.248719
0.242038
0.232835
0.228782
0.231695
0.230448
0.217824
0.211327
0.196743
0.173991
0.162061
0.151054
0.138573
0.128288
0.113948
0.105893
0.0944151
0.0824219
0.0726851
0.0624491
0.0527585
0.0469973
0.0443933
0.0432675
0.0443018
0.0460705
0.0453997
0.0404519
0.0339446
0.0296092
0.0284822
0.0284349
0.0278251
0.0258778
0.0261288
0.034023
0.0910494
0.133964
0.13489
0.10567
0.0851137
0.0887893
0.0903845
0.0801106
0.0758751
0.0743145
0.074818
0.077015
0.0832235
0.0904388
0.094152
0.103349
0.129317
0.136681
0.141777
0.154229
0.154083
0.150383
0.146997
0.145524
0.13451
0.109733
0.0977356
0.096774
0.101696
0.115825
0.180121
0.329526
0.368897
0.367466
0.27404
0.205279
0.176949
0.190313
0.198453
0.259983
0.273487
0.292272
0.334038
0.343479
0.42206
0.386422
0.445282
0.410934
0.547667
0.528997
0.481395
0.467077
0.487712
0.506736
0.0315935
0.0321927
0.032627
0.033024
0.0332431
0.0336115
0.0341071
0.0347348
0.0354341
0.0361425
0.0370051
0.038165
0.0394092
0.0407664
0.0425786
0.0443963
0.0456475
0.0463171
0.0464176
0.0463479
0.0460858
0.04489
0.0432373
0.0412084
0.0393285
0.0376271
0.0357732
0.0344027
0.0330085
0.0318259
0.0313794
0.0313657
0.0315695
0.0320899
0.0334408