/*--------------------------------*- C++ -*----------------------------------*\
| =========                 |                                                 |
| \\      /  F ield         | OpenFOAM: The Open Source CFD Toolbox           |
|  \\    /   O peration     | Version:  2.4.0                                 |
|   \\  /    A nd           | Web:      www.OpenFOAM.org                      |
|    \\/     M anipulation  |                                                 |
\*---------------------------------------------------------------------------*/
FoamFile
{
    version     2.0;
    format      ascii;
    class       volScalarField;
    location    "1.5";
    object      nuSgs;
}
// * * * * * * * * * * * * * * * * * * * * * * * * * * * * * * * * * * * * * //

dimensions      [0 2 -1 0 0 0 0];

internalField   nonuniform List<scalar> 
8800
(
0.00134628
0.00150563
0.0014038
0.00121193
0.00114286
0.00102145
0.00102294
0.00093466
0.000960166
0.00087518
0.000925293
0.0008324
0.000900843
0.000799265
0.00088612
0.000770591
0.000875228
0.000740725
0.000886295
0.00071568
0.000564337
0.00097602
0.00109555
0.00107111
0.00107419
0.00101528
0.0010234
0.000958465
0.000977964
0.000910734
0.000944642
0.000872614
0.00091972
0.000844103
0.000901701
0.000821531
0.000888139
0.000802241
0.000878751
0.00082673
0.000137696
0.000385345
0.000610125
0.000643965
0.000729006
0.000727596
0.000767402
0.000744364
0.000781177
0.000743654
0.000779688
0.000739165
0.000774699
0.000730898
0.000763926
0.000725764
0.000753778
0.000723065
0.000737432
0.000735166
2.78881e-05
0.000123277
0.000258282
0.000298221
0.000381263
0.00039757
0.000452586
0.00045542
0.00049723
0.000491175
0.000522342
0.000520083
0.000542774
0.000541475
0.000546763
0.000561874
0.000559679
0.00057654
0.000560018
0.000585754
8.20309e-06
3.96669e-05
8.83613e-05
0.000114266
0.00015827
0.000175888
0.000208588
0.000221046
0.000246349
0.000261087
0.000268164
0.00029484
0.000300876
0.000332163
0.000327368
0.000356345
0.000349667
0.000378626
0.000366608
0.000391207
3.57456e-06
1.12343e-05
2.63165e-05
3.31223e-05
4.88369e-05
6.07255e-05
7.14004e-05
8.89152e-05
9.99989e-05
0.000119907
0.000126704
0.000147609
0.000155664
0.00018358
0.000185184
0.000203195
0.000203531
0.00021862
0.000217154
0.000229363
2.93005e-06
7.54583e-06
1.88711e-05
2.39166e-05
3.7997e-05
4.26602e-05
5.60507e-05
5.76941e-05
6.55029e-05
7.19048e-05
7.53717e-05
8.3632e-05
8.84277e-05
0.000101563
0.000102226
0.000109395
0.000108977
0.000115197
0.000115346
0.000122946
5.74589e-06
1.33195e-05
2.55039e-05
2.75764e-05
3.27709e-05
3.51273e-05
3.58466e-05
3.94747e-05
3.94058e-05
4.04555e-05
3.89429e-05
4.10671e-05
3.97273e-05
4.54424e-05
4.54625e-05
4.96393e-05
4.87789e-05
5.16889e-05
5.15452e-05
5.81664e-05
3.07817e-06
5.65468e-06
8.72957e-06
1.15812e-05
1.09243e-05
1.24814e-05
1.13331e-05
1.33174e-05
1.25852e-05
1.51093e-05
1.51486e-05
1.61786e-05
1.54877e-05
1.98207e-05
2.01691e-05
2.28748e-05
2.48125e-05
2.44241e-05
2.35525e-05
2.56544e-05
2.16521e-06
2.8047e-06
3.0528e-06
3.88264e-06
5.17985e-06
5.97407e-06
6.0028e-06
6.04663e-06
5.99976e-06
7.87295e-06
9.53836e-06
9.59251e-06
9.93984e-06
1.08949e-05
1.36649e-05
1.51396e-05
1.49559e-05
1.45969e-05
1.44314e-05
1.48957e-05
2.16558e-06
2.78852e-06
2.87674e-06
3.22915e-06
4.22214e-06
5.41922e-06
5.04902e-06
5.21425e-06
5.67865e-06
7.23324e-06
7.75755e-06
8.94896e-06
9.2326e-06
1.15308e-05
1.28466e-05
1.44886e-05
1.52659e-05
1.49222e-05
1.55387e-05
1.61745e-05
2.15704e-06
2.50798e-06
3.06831e-06
4.3295e-06
4.35732e-06
4.21011e-06
4.23202e-06
4.54887e-06
6.45311e-06
7.37516e-06
7.32148e-06
7.57823e-06
8.58602e-06
1.11326e-05
1.12061e-05
1.13496e-05
1.183e-05
1.25693e-05
1.361e-05
1.41584e-05
2.14966e-06
2.55832e-06
4.43531e-06
4.74128e-06
5.56544e-06
5.49989e-06
6.92335e-06
7.4767e-06
9.35158e-06
9.69762e-06
9.66266e-06
1.09267e-05
1.20742e-05
1.63238e-05
1.81429e-05
1.92108e-05
1.88282e-05
1.94975e-05
2.11725e-05
2.50918e-05
2.17617e-06
3.06536e-06
7.99752e-06
8.92068e-06
1.45375e-05
1.56755e-05
2.14703e-05
2.34128e-05
2.83396e-05
3.01152e-05
3.09718e-05
3.89713e-05
4.25077e-05
5.35475e-05
5.66789e-05
6.05302e-05
6.12972e-05
6.48871e-05
6.97704e-05
8.01487e-05
2.37885e-06
7.81373e-06
2.49659e-05
3.06762e-05
4.95605e-05
5.50117e-05
6.94948e-05
7.66938e-05
9.04091e-05
9.73355e-05
0.000101463
0.000121787
0.00012912
0.000147002
0.000151048
0.000158182
0.00016194
0.000174348
0.000183151
0.000204662
5.27205e-06
3.17132e-05
8.40785e-05
0.000104113
0.000150005
0.000164725
0.00019276
0.000213857
0.000235986
0.000247411
0.000255514
0.000288202
0.000297268
0.000315315
0.000319688
0.000330348
0.000337426
0.000356205
0.000366381
0.000390739
2.71557e-05
0.000121529
0.000248129
0.000291347
0.000369943
0.000392186
0.000430104
0.00045473
0.000478126
0.000487267
0.000500581
0.000526467
0.000529904
0.000538215
0.00054107
0.00054857
0.00055345
0.0005647
0.000569868
0.000582104
0.000135528
0.00039753
0.000588159
0.000650637
0.00071658
0.000731162
0.000755015
0.000758993
0.000761996
0.000755609
0.000755958
0.000751319
0.000747674
0.000738298
0.000735447
0.000730015
0.000728988
0.000724599
0.000723656
0.000720705
0.000552111
0.00098097
0.00108193
0.00108227
0.0010637
0.00103338
0.0010058
0.000971315
0.000955712
0.000923315
0.00091502
0.000886446
0.000882658
0.000862293
0.000856854
0.000841689
0.000837393
0.000821274
0.000816264
0.000802353
0.00133513
0.0015075
0.00139118
0.00123441
0.00111681
0.00105141
0.000997965
0.000955326
0.000930313
0.000897744
0.000889241
0.00085635
0.000856066
0.000831638
0.000828786
0.000806407
0.000801253
0.000777288
0.000767022
0.000733177
0.000314642
0.000272389
0.000260995
0.00023487
0.000229861
0.000214548
0.000212904
0.000203897
0.000204114
0.00019876
0.00019992
0.000196131
0.000197872
0.000195269
0.000197157
0.000195299
0.000197049
0.00019576
0.000197016
0.000195574
0.000196352
0.000194635
0.000195376
0.000193178
0.000193515
0.000189579
0.000187555
0.000176313
0.000169531
0.000150279
0.000136769
0.00012009
0.000120036
0.000121195
0.000126146
0.000131613
0.000137463
0.000140922
0.000141579
0.000140809
0.000138705
0.000135748
0.000134992
0.000135332
0.000139256
0.000143067
0.000143204
0.000141653
0.000137635
0.000127461
0.000114949
9.86057e-05
8.27085e-05
7.13121e-05
6.24353e-05
5.35196e-05
5.00735e-05
5.00095e-05
5.3238e-05
6.04642e-05
9.31882e-05
0.000116239
0.000120596
0.000116854
0.000100834
7.82596e-05
6.12438e-05
5.13122e-05
4.97295e-05
5.0539e-05
5.50921e-05
5.64624e-05
5.61613e-05
5.59413e-05
5.62152e-05
5.76557e-05
6.024e-05
6.30405e-05
6.58494e-05
6.7787e-05
6.86745e-05
6.98815e-05
7.28316e-05
8.33657e-05
9.66373e-05
0.000106396
0.000112135
0.000115303
0.000115931
0.000115352
0.000111122
9.93216e-05
9.08457e-05
8.01771e-05
7.33927e-05
6.9633e-05
6.82982e-05
6.7588e-05
6.78295e-05
6.88483e-05
7.17793e-05
7.38774e-05
7.41494e-05
7.3793e-05
7.25265e-05
6.92823e-05
6.552e-05
6.1566e-05
5.75799e-05
5.37346e-05
5.05181e-05
4.73068e-05
4.43019e-05
4.15815e-05
3.91384e-05
3.70742e-05
3.52185e-05
3.42274e-05
3.41071e-05
3.40654e-05
3.4332e-05
3.53344e-05
3.80095e-05
3.85411e-05
3.75289e-05
3.44012e-05
3.18849e-05
3.04026e-05
3.04368e-05
3.05906e-05
3.11061e-05
3.33503e-05
3.79742e-05
4.12828e-05
4.60494e-05
4.79975e-05
4.79388e-05
4.81947e-05
5.22357e-05
5.53442e-05
5.45328e-05
5.08617e-05
4.84294e-05
4.85502e-05
5.13983e-05
6.14608e-05
7.11667e-05
7.63056e-05
7.71096e-05
7.61129e-05
7.17691e-05
6.82078e-05
6.69211e-05
6.69835e-05
6.86388e-05
7.31707e-05
7.62538e-05
8.18413e-05
9.31849e-05
0.00010666
0.000111078
0.000111247
0.000107656
9.20518e-05
7.62683e-05
6.61326e-05
6.12329e-05
5.9164e-05
5.51695e-05
5.32568e-05
5.21892e-05
5.22739e-05
5.18523e-05
5.19815e-05
5.17173e-05
5.17195e-05
5.2846e-05
5.49523e-05
5.93665e-05
6.40814e-05
6.76413e-05
7.47762e-05
9.60026e-05
0.000112636
0.000116242
0.000116846
0.000118424
0.000116765
0.000110698
0.000107565
0.000104733
0.000103853
0.000104968
0.000115206
0.000131421
0.000142086
0.000142321
0.000142966
0.000174947
0.000395817
0.000397229
0.000356481
0.000333175
0.000308068
0.000293665
0.000277833
0.000268045
0.000258406
0.000250857
0.000245073
0.000238142
0.000235237
0.000228828
0.000226859
0.00022206
0.000220607
0.000216407
0.000215321
0.000211881
0.000211098
0.000208081
0.000207946
0.000206187
0.000207109
0.000206067
0.00020784
0.000207013
0.000208176
0.000207001
0.000204878
0.000198145
0.000185605
0.000168717
0.000153404
0.000142869
0.000140402
0.000140296
0.000140792
0.000140291
0.000139857
0.000139166
0.000139578
0.000142583
0.000148372
0.000149034
0.000148264
0.000145688
0.000139859
0.000128345
0.000114144
9.67335e-05
8.29918e-05
7.03669e-05
5.98634e-05
5.37867e-05
4.58448e-05
3.96276e-05
3.80967e-05
3.83659e-05
4.04922e-05
4.73397e-05
8.15042e-05
0.00011155
0.000116844
0.000115458
0.000101657
8.06324e-05
6.28781e-05
5.32876e-05
5.15402e-05
5.20902e-05
5.44391e-05
5.55135e-05
5.56247e-05
5.5614e-05
5.59033e-05
5.68353e-05
5.92884e-05
6.14308e-05
6.34861e-05
6.59353e-05
7.0278e-05
8.22362e-05
9.50286e-05
0.000104821
0.000111004
0.000114304
0.000115329
0.000114565
0.000111124
9.89832e-05
8.84729e-05
7.80173e-05
7.17585e-05
6.93168e-05
6.81192e-05
6.82085e-05
6.91958e-05
7.16744e-05
7.65325e-05
8.1326e-05
8.31207e-05
8.3006e-05
8.19886e-05
7.93763e-05
7.53393e-05
7.11157e-05
6.66399e-05
6.30675e-05
5.96819e-05
5.651e-05
5.37559e-05
5.10912e-05
4.82783e-05
4.54466e-05
4.2692e-05
3.96703e-05
3.68721e-05
3.55198e-05
3.47678e-05
3.46331e-05
3.50402e-05
3.75987e-05
4.04661e-05
4.06174e-05
4.0147e-05
3.74946e-05
3.42123e-05
3.36947e-05
3.33588e-05
3.32342e-05
3.43404e-05
3.83417e-05
3.97448e-05
4.25242e-05
4.67048e-05
4.73522e-05
4.84449e-05
5.53289e-05
5.74733e-05
5.52164e-05
4.93251e-05
4.69571e-05
4.75488e-05
5.22684e-05
6.46369e-05
7.22371e-05
7.66494e-05
7.71168e-05
7.56179e-05
6.97917e-05
6.66416e-05
6.52764e-05
6.53657e-05
6.64189e-05
7.10831e-05
7.28048e-05
7.60272e-05
8.23217e-05
9.68747e-05
0.000106147
0.000108563
0.00010732
0.000100275
8.24934e-05
7.04773e-05
6.29367e-05
5.99452e-05
5.55485e-05
5.37465e-05
5.32209e-05
5.29039e-05
5.20188e-05
5.20339e-05
5.20105e-05
5.20753e-05
5.26727e-05
5.45161e-05
6.02922e-05
6.47828e-05
6.88858e-05
7.83601e-05
9.81111e-05
0.000118574
0.000126256
0.000126256
0.000124054
0.00011679
0.000110445
0.000108277
0.000104679
0.000103532
0.000103663
0.000108213
0.000127969
0.000143924
0.000151135
0.000147958
0.000175829
0.000287348
0.000381753
0.000360362
0.000333398
0.000319685
0.000297499
0.000289411
0.000272413
0.000266769
0.000253987
0.000249854
0.000239722
0.000236545
0.000228213
0.000225688
0.000218637
0.000216622
0.00021073
0.000209161
0.000204201
0.00020304
0.000198858
0.000198289
0.00019545
0.000195949
0.000194745
0.000196573
0.000196682
0.000199641
0.000200365
0.000203602
0.00020303
0.000203311
0.0002007
0.000197683
0.000189022
0.000182913
0.000173686
0.000169311
0.000163756
0.000162301
0.000161689
0.000161801
0.000160314
0.00015834
0.000153442
0.000148417
0.000138326
0.000124724
0.000105634
8.811e-05
6.98552e-05
5.67237e-05
4.94336e-05
4.28929e-05
3.81099e-05
3.72911e-05
3.40655e-05
3.04699e-05
2.96262e-05
2.98399e-05
3.23218e-05
3.9869e-05
7.18486e-05
0.000103283
0.000110763
0.000110734
0.000105376
8.55779e-05
6.68354e-05
5.70182e-05
5.43312e-05
5.45068e-05
5.52419e-05
5.54596e-05
5.5478e-05
5.56158e-05
5.60258e-05
5.78367e-05
6.00187e-05
6.29075e-05
7.0401e-05
8.17271e-05
9.30037e-05
0.000102925
0.000109746
0.000113386
0.000114526
0.000113816
0.000110471
9.87773e-05
8.72486e-05
7.68934e-05
7.10855e-05
6.9001e-05
6.85761e-05
6.95201e-05
7.24814e-05
7.8238e-05
8.6358e-05
9.34678e-05
9.73036e-05
9.7577e-05
9.67484e-05
9.42659e-05
9.01908e-05
8.48546e-05
7.97581e-05
7.49497e-05
7.08015e-05
6.74767e-05
6.44749e-05
6.20468e-05
5.94445e-05
5.65352e-05
5.33761e-05
5.09044e-05
4.7738e-05
4.31622e-05
3.99074e-05
3.76805e-05
3.62352e-05
3.59617e-05
3.66339e-05
3.88049e-05
4.27825e-05
4.44096e-05
4.43516e-05
4.11949e-05
3.90247e-05
3.76482e-05
3.68384e-05
3.71941e-05
4.00381e-05
4.13889e-05
4.31433e-05
4.86429e-05
5.08401e-05
5.30273e-05
5.74468e-05
5.79231e-05
5.33749e-05
4.75592e-05
4.60291e-05
4.67446e-05
5.54709e-05
6.92053e-05
7.54333e-05
7.67258e-05
7.67238e-05
7.30763e-05
6.82735e-05
6.50865e-05
6.40022e-05
6.3861e-05
6.49195e-05
6.90989e-05
7.16706e-05
7.30575e-05
7.63822e-05
8.65734e-05
9.93928e-05
0.000104455
0.000105429
0.000102859
9.09376e-05
7.75692e-05
6.72583e-05
6.19935e-05
5.69438e-05
5.47838e-05
5.36527e-05
5.32167e-05
5.27918e-05
5.29571e-05
5.33834e-05
5.42842e-05
5.49174e-05
5.63594e-05
6.30992e-05
6.7135e-05
7.25417e-05
8.63266e-05
0.000103671
0.000130049
0.000134993
0.000132829
0.000125621
0.000115244
0.000108846
0.000104355
0.000102221
0.000101919
0.000102151
0.000104264
0.000124332
0.000136769
0.000165286
0.000157069
0.00017468
0.000225271
0.000309016
0.000300659
0.000282703
0.000275753
0.000260372
0.000254676
0.000241901
0.00023743
0.000226963
0.000223257
0.000214178
0.000210902
0.000202742
0.000199839
0.000192467
0.000189883
0.000183224
0.000181012
0.000175196
0.00017344
0.000168533
0.00016733
0.000163568
0.000163224
0.000161959
0.000163035
0.000163229
0.000165866
0.000167648
0.000173572
0.000176706
0.000183902
0.000186245
0.000189007
0.00018761
0.000186266
0.000182521
0.000180321
0.00017544
0.000173175
0.000168228
0.00016444
0.00015763
0.000149368
0.000137661
0.000123873
0.000105008
8.51475e-05
6.87676e-05
5.54929e-05
4.71182e-05
4.04396e-05
3.75325e-05
3.59214e-05
3.19773e-05
3.05343e-05
3.03025e-05
2.82146e-05
2.56464e-05
2.49554e-05
2.48793e-05
2.71693e-05
3.55019e-05
6.35098e-05
9.61384e-05
0.000106191
0.000106402
0.000104134
9.1929e-05
7.39102e-05
6.34308e-05
5.84557e-05
5.73093e-05
5.70631e-05
5.68606e-05
5.6878e-05
5.71976e-05
5.87213e-05
6.29401e-05
7.17714e-05
8.267e-05
9.32386e-05
0.000102371
0.000109153
0.000112668
0.00011334
0.000112499
0.000108598
9.70798e-05
8.62923e-05
7.57026e-05
7.06458e-05
6.88135e-05
6.91254e-05
7.16304e-05
7.85136e-05
8.97595e-05
0.000101734
0.000111994
0.000117505
0.000118175
0.000117341
0.000114567
0.000110362
0.000104207
9.73908e-05
9.13969e-05
8.59835e-05
8.14224e-05
7.8212e-05
7.50236e-05
7.26172e-05
6.96472e-05
6.68888e-05
6.41136e-05
6.10164e-05
5.7926e-05
5.3655e-05
4.88171e-05
4.40789e-05
4.12019e-05
3.85763e-05
3.78638e-05
3.8581e-05
4.27151e-05
4.68133e-05
4.7838e-05
4.74043e-05
4.47977e-05
4.21137e-05
4.10475e-05
4.14877e-05
4.32709e-05
4.38417e-05
4.48282e-05
5.13356e-05
5.4681e-05
5.48517e-05
5.52405e-05
5.41284e-05
4.82869e-05
4.56714e-05
4.53855e-05
4.68127e-05
5.83574e-05
7.32486e-05
7.67546e-05
7.67375e-05
7.46112e-05
6.9371e-05
6.58027e-05
6.33123e-05
6.29654e-05
6.25179e-05
6.46346e-05
6.72415e-05
7.18457e-05
7.24739e-05
7.40401e-05
7.88196e-05
9.17953e-05
0.000100048
0.000102482
0.000101774
9.77075e-05
8.60901e-05
7.57913e-05
6.77425e-05
6.09555e-05
5.73384e-05
5.46725e-05
5.48091e-05
5.55404e-05
5.61715e-05
5.70665e-05
5.73948e-05
5.82724e-05
6.03632e-05
6.75065e-05
7.08746e-05
7.70503e-05
9.34667e-05
0.000118566
0.000140133
0.000142358
0.000136236
0.000124061
0.000112162
0.000106637
0.000102383
0.000102418
0.000101882
0.000103489
0.00010646
0.000133055
0.00013949
0.000177367
0.000166718
0.000175868
0.000197824
0.000208908
0.000205319
0.000196879
0.000193464
0.00018547
0.000182246
0.000174785
0.00017201
0.000165557
0.000163142
0.000157425
0.000155135
0.00014967
0.000147461
0.000142227
0.000140109
0.000135167
0.000133234
0.000128788
0.000127158
0.00012338
0.000122115
0.000119046
0.000118271
0.000116385
0.000116403
0.000116457
0.000117703
0.000119096
0.000122805
0.000125456
0.000131183
0.000135507
0.000141713
0.000147065
0.000151622
0.000151884
0.000151327
0.000149129
0.000144698
0.000137308
0.000128884
0.000118113
0.000104541
8.95605e-05
7.581e-05
6.3138e-05
5.20105e-05
4.38345e-05
3.66594e-05
3.29446e-05
3.05009e-05
2.6525e-05
2.56011e-05
2.69596e-05
2.71418e-05
2.73889e-05
2.78097e-05
2.59839e-05
2.37572e-05
2.26526e-05
2.2619e-05
2.44449e-05
3.34634e-05
5.55706e-05
8.98286e-05
0.000101942
0.000103572
0.000102583
9.70363e-05
8.34105e-05
7.1711e-05
6.57105e-05
6.33111e-05
6.23974e-05
6.22064e-05
6.31957e-05
6.94376e-05
7.84997e-05
8.70326e-05
9.55888e-05
0.000103718
0.00010893
0.000110985
0.000111023
0.000109777
0.000104528
9.47041e-05
8.49875e-05
7.46851e-05
6.99043e-05
6.88598e-05
7.0007e-05
7.51393e-05
8.71828e-05
0.000106619
0.000123177
0.000135689
0.000143022
0.000143982
0.00014322
0.000140545
0.000135616
0.00012971
0.000121172
0.000112959
0.000105952
9.98771e-05
9.52962e-05
9.20429e-05
8.91261e-05
8.64398e-05
8.40966e-05
8.12293e-05
7.92429e-05
7.5644e-05
7.14279e-05
6.86126e-05
6.27269e-05
5.52173e-05
4.94725e-05
4.43913e-05
4.10698e-05
4.06712e-05
4.23523e-05
4.75634e-05
5.14927e-05
5.19937e-05
5.07922e-05
4.6139e-05
4.3625e-05
4.37583e-05
4.48465e-05
4.5113e-05
4.69015e-05
5.35054e-05
5.48078e-05
5.33672e-05
5.05083e-05
4.8525e-05
4.59334e-05
4.50599e-05
4.52973e-05
4.72612e-05
5.96085e-05
7.45562e-05
7.77601e-05
7.76258e-05
7.37941e-05
6.90419e-05
6.48575e-05
6.30044e-05
6.22997e-05
6.21036e-05
6.42803e-05
6.74237e-05
7.12152e-05
7.26643e-05
7.33396e-05
7.57198e-05
8.38575e-05
9.50565e-05
9.93448e-05
9.98118e-05
9.85631e-05
9.46273e-05
8.46779e-05
7.63068e-05
6.64351e-05
6.02972e-05
5.78365e-05
5.82506e-05
5.99327e-05
6.0374e-05
6.07952e-05
6.12113e-05
6.22645e-05
6.61232e-05
6.95977e-05
7.34169e-05
8.25951e-05
0.000109189
0.000131136
0.000146286
0.000145436
0.000134699
0.00012231
0.000110611
0.000108557
0.000105193
0.00010932
0.000107208
0.000119253
0.000123299
0.00017161
0.000158998
0.000191666
0.000175616
0.000176617
0.000186432
0.000123905
0.000122308
0.000118439
0.00011669
0.000112765
0.000111131
0.000107521
0.000106065
0.000102922
0.000101613
9.87992e-05
9.74679e-05
9.4557e-05
9.32006e-05
9.02657e-05
8.89359e-05
8.61085e-05
8.48617e-05
8.2319e-05
8.12748e-05
7.92889e-05
7.86138e-05
7.72194e-05
7.68645e-05
7.62701e-05
7.62863e-05
7.63967e-05
7.69524e-05
7.77436e-05
7.95957e-05
8.11089e-05
8.44327e-05
8.67379e-05
8.96791e-05
9.28634e-05
9.54269e-05
9.56772e-05
9.52695e-05
9.36842e-05
9.03128e-05
8.48038e-05
7.79294e-05
7.00335e-05
6.17082e-05
5.30105e-05
4.50265e-05
3.82458e-05
3.21191e-05
2.76315e-05
2.4966e-05
2.21e-05
2.06083e-05
2.06677e-05
2.01487e-05
2.01453e-05
2.06632e-05
2.16598e-05
2.52188e-05
2.70512e-05
2.66949e-05
2.40427e-05
2.25406e-05
2.21855e-05
2.34867e-05
3.08979e-05
4.87966e-05
8.16748e-05
9.69246e-05
0.000101148
0.00010106
9.91343e-05
9.26068e-05
8.54659e-05
8.11202e-05
7.93546e-05
7.92034e-05
8.05498e-05
8.49895e-05
9.10846e-05
9.69228e-05
0.000102567
0.000106206
0.000107071
0.00010683
0.000105486
9.97041e-05
9.23376e-05
8.37917e-05
7.34706e-05
6.86506e-05
6.85395e-05
7.09711e-05
7.9748e-05
9.8829e-05
0.000127013
0.000148947
0.00016347
0.000170941
0.000172182
0.000171555
0.000169537
0.000164547
0.000159182
0.000150251
0.000139535
0.000129926
0.000121333
0.000115106
0.000110984
0.000108065
0.000105996
0.000104402
0.000103092
0.000100936
9.90136e-05
9.5741e-05
9.0858e-05
8.64893e-05
8.2357e-05
7.46037e-05
6.47535e-05
5.50437e-05
4.78902e-05
4.46149e-05
4.45316e-05
4.71459e-05
5.24837e-05
5.38395e-05
5.3624e-05
5.13022e-05
4.68902e-05
4.56189e-05
4.50894e-05
4.50579e-05
4.81746e-05
5.15791e-05
5.06031e-05
4.58655e-05
4.39683e-05
4.40782e-05
4.46363e-05
4.48636e-05
4.54915e-05
4.73089e-05
5.92446e-05
7.50976e-05
8.00611e-05
7.97318e-05
7.57882e-05
7.07317e-05
6.56064e-05
6.32613e-05
6.23561e-05
6.29327e-05
6.44938e-05
6.9008e-05
7.1115e-05
7.36828e-05
7.3747e-05
7.5157e-05
7.98746e-05
8.89093e-05
9.61782e-05
9.80116e-05
9.78176e-05
9.66888e-05
9.2017e-05
8.21492e-05
7.18935e-05
6.44822e-05
6.32446e-05
6.36471e-05
6.54718e-05
6.63167e-05
6.65702e-05
6.72783e-05
6.75408e-05
6.92802e-05
7.13975e-05
7.61178e-05
9.45553e-05
0.000125306
0.00013975
0.000148373
0.000145953
0.000132576
0.000122897
0.000110572
0.000111013
0.000110006
0.000122101
0.000119002
0.000129216
0.000136301
0.00019312
0.000187475
0.00020716
0.000196892
0.0001792
0.000183152
6.66515e-05
6.57725e-05
6.36262e-05
6.27159e-05
6.09023e-05
6.01859e-05
5.88393e-05
5.82926e-05
5.71685e-05
5.66488e-05
5.5552e-05
5.49563e-05
5.36653e-05
5.29977e-05
5.15707e-05
5.08681e-05
4.94857e-05
4.85471e-05
4.7524e-05
4.66962e-05
4.60921e-05
4.57271e-05
4.5617e-05
4.57017e-05
4.59448e-05
4.65994e-05
4.71371e-05
4.82506e-05
4.89876e-05
5.01704e-05
5.11849e-05
5.29812e-05
5.40905e-05
5.59024e-05
5.75231e-05
5.81367e-05
5.80547e-05
5.75682e-05
5.62699e-05
5.34775e-05
4.95685e-05
4.48383e-05
3.9753e-05
3.44029e-05
2.96546e-05
2.53146e-05
2.18772e-05
1.97083e-05
1.78743e-05
1.69532e-05
1.70219e-05
1.68456e-05
1.68168e-05
1.69601e-05
1.70411e-05
1.73031e-05
1.78285e-05
1.93897e-05
2.40893e-05
2.65933e-05
2.67103e-05
2.48992e-05
2.25424e-05
2.20799e-05
2.28994e-05
2.8597e-05
4.13633e-05
7.0196e-05
8.97836e-05
9.72696e-05
9.85755e-05
9.83046e-05
9.68421e-05
9.52626e-05
9.45144e-05
9.44762e-05
9.47988e-05
9.57675e-05
9.8607e-05
0.000101574
0.000103274
0.000103537
0.0001031
0.000101887
9.54192e-05
9.00854e-05
8.21387e-05
7.11789e-05
6.68429e-05
6.72637e-05
7.16035e-05
8.6006e-05
0.000112735
0.000151158
0.000175051
0.000184972
0.000189065
0.000189319
0.000188623
0.000186742
0.00018281
0.00017705
0.000169018
0.000158914
0.000149194
0.000139975
0.000132307
0.000128384
0.000125626
0.000123548
0.000120933
0.000117918
0.000115516
0.000112032
0.000108808
0.000105461
0.000101109
9.73474e-05
9.36649e-05
8.68287e-05
8.00071e-05
7.18818e-05
6.07238e-05
5.26824e-05
4.88549e-05
4.92103e-05
5.26929e-05
5.53869e-05
5.55791e-05
5.34851e-05
4.80732e-05
4.56657e-05
4.42673e-05
4.42253e-05
4.48163e-05
4.45386e-05
4.26114e-05
4.12746e-05
4.07195e-05
4.17604e-05
4.43707e-05
4.50712e-05
4.53524e-05
4.64752e-05
5.57029e-05
7.47334e-05
8.1477e-05
8.21685e-05
8.03206e-05
7.49783e-05
6.91352e-05
6.51073e-05
6.40074e-05
6.4587e-05
6.58692e-05
6.92723e-05
7.20951e-05
7.44226e-05
7.46304e-05
7.54196e-05
7.92653e-05
8.44381e-05
9.19772e-05
9.58743e-05
9.66482e-05
9.64791e-05
9.46759e-05
8.64693e-05
7.7796e-05
7.0082e-05
6.8986e-05
7.03203e-05
7.39734e-05
7.45762e-05
7.24474e-05
7.01705e-05
6.95065e-05
7.03194e-05
7.28016e-05
8.07649e-05
0.000112923
0.000137971
0.000147447
0.000146918
0.000140794
0.000125528
0.000122889
0.000111474
0.00010906
0.000109282
0.000128439
0.000126739
0.000127899
0.000134319
0.000150671
0.000185415
0.000203352
0.000209272
0.000192604
0.00018622
3.16533e-05
3.13304e-05
3.06515e-05
3.00135e-05
2.96761e-05
2.93418e-05
2.923e-05
2.90499e-05
2.88416e-05
2.86372e-05
2.82115e-05
2.77504e-05
2.7097e-05
2.64619e-05
2.56618e-05
2.50489e-05
2.437e-05
2.38112e-05
2.33131e-05
2.29358e-05
2.2791e-05
2.27902e-05
2.28331e-05
2.30134e-05
2.32908e-05
2.3873e-05
2.46212e-05
2.58749e-05
2.71029e-05
2.85058e-05
2.97192e-05
3.11545e-05
3.21069e-05
3.29399e-05
3.33319e-05
3.33181e-05
3.29862e-05
3.18339e-05
2.98899e-05
2.74731e-05
2.48994e-05
2.21058e-05
1.95836e-05
1.73755e-05
1.57431e-05
1.46494e-05
1.41179e-05
1.41118e-05
1.42918e-05
1.47993e-05
1.532e-05
1.57229e-05
1.60194e-05
1.61521e-05
1.60982e-05
1.6014e-05
1.61291e-05
1.64526e-05
1.73565e-05
2.17741e-05
2.47588e-05
2.52109e-05
2.41263e-05
2.23262e-05
2.19923e-05
2.26748e-05
2.61626e-05
3.60942e-05
5.57233e-05
7.93883e-05
9.05262e-05
9.49808e-05
9.60813e-05
9.6619e-05
9.70469e-05
9.73921e-05
9.77758e-05
9.87787e-05
9.99834e-05
0.000100525
0.000100396
9.97642e-05
9.72069e-05
9.13837e-05
8.7346e-05
7.9012e-05
6.67911e-05
6.37571e-05
6.50223e-05
7.2134e-05
9.28304e-05
0.000131234
0.000173616
0.00018943
0.000194799
0.000196788
0.000196544
0.000195117
0.000193357
0.000190383
0.000185518
0.000178811
0.000168685
0.000157849
0.000148574
0.000142284
0.000139828
0.000136661
0.000133074
0.000129849
0.00012583
0.00012181
0.000118802
0.000114941
0.000111111
0.000108304
0.000105092
0.000102171
9.91109e-05
9.46625e-05
8.88164e-05
8.13116e-05
7.27927e-05
6.18391e-05
5.42721e-05
5.27336e-05
5.38295e-05
5.58848e-05
5.60906e-05
5.50824e-05
5.08369e-05
4.73498e-05
4.45589e-05
4.26419e-05
4.15431e-05
4.10965e-05
4.09282e-05
4.04279e-05
4.034e-05
4.25562e-05
4.58374e-05
4.59397e-05
4.57354e-05
4.61951e-05
5.22391e-05
7.36781e-05
8.40968e-05
8.54149e-05
8.35792e-05
7.75711e-05
7.10473e-05
6.576e-05
6.44375e-05
6.47478e-05
6.71275e-05
6.93973e-05
7.36478e-05
7.48353e-05
7.62786e-05
7.61255e-05
7.79624e-05
8.35035e-05
8.79656e-05
9.40334e-05
9.54544e-05
9.57517e-05
9.50155e-05
9.06593e-05
8.14284e-05
7.53486e-05
7.50789e-05
7.9245e-05
8.1875e-05
8.0264e-05
7.44505e-05
7.05209e-05
6.99536e-05
7.08725e-05
7.53503e-05
9.44114e-05
0.000131317
0.000145847
0.000151297
0.000144893
0.000133093
0.000121426
0.000119859
0.000114658
0.000110286
0.000110512
0.00012137
0.000130284
0.000130652
0.000134419
0.000140324
0.000172804
0.000189972
0.000218601
0.000208535
0.000191762
1.41434e-05
1.41707e-05
1.42642e-05
1.42779e-05
1.43294e-05
1.43914e-05
1.45113e-05
1.46509e-05
1.47754e-05
1.48309e-05
1.48313e-05
1.48e-05
1.45242e-05
1.40303e-05
1.34816e-05
1.30028e-05
1.26255e-05
1.23937e-05
1.23059e-05
1.2288e-05
1.23232e-05
1.25081e-05
1.27044e-05
1.29301e-05
1.31056e-05
1.32842e-05
1.3471e-05
1.37331e-05
1.42536e-05
1.50655e-05
1.60638e-05
1.7201e-05
1.81555e-05
1.88279e-05
1.9071e-05
1.90579e-05
1.89145e-05
1.79419e-05
1.64034e-05
1.49656e-05
1.36668e-05
1.26607e-05
1.21376e-05
1.21054e-05
1.21736e-05
1.23782e-05
1.27437e-05
1.35149e-05
1.40806e-05
1.48132e-05
1.57228e-05
1.61481e-05
1.63223e-05
1.68419e-05
1.73726e-05
1.73818e-05
1.7294e-05
1.70384e-05
1.67505e-05
1.6834e-05
1.93375e-05
2.19348e-05
2.23357e-05
2.16069e-05
2.04503e-05
2.03218e-05
2.08333e-05
2.31786e-05
2.99336e-05
4.12381e-05
6.17208e-05
7.85179e-05
8.71187e-05
9.15584e-05
9.38533e-05
9.50697e-05
9.59927e-05
9.64925e-05
9.64884e-05
9.59823e-05
9.47998e-05
9.1135e-05
8.7597e-05
8.25748e-05
7.0494e-05
5.98183e-05
5.91527e-05
6.16953e-05
7.27201e-05
0.000100365
0.000150568
0.000185292
0.000196929
0.000199413
0.00019947
0.000199051
0.000197213
0.000194587
0.000191627
0.000186465
0.000178908
0.000167088
0.000156611
0.000150373
0.000146997
0.00014493
0.000142663
0.0001384
0.000135191
0.000131558
0.0001269
0.000123142
0.000120048
0.000117181
0.000113672
0.000109889
0.000106594
0.000103531
0.000100754
9.84928e-05
9.43053e-05
8.80044e-05
8.10136e-05
7.3053e-05
6.52665e-05
6.03654e-05
5.79161e-05
5.78058e-05
5.79087e-05
5.69493e-05
5.2653e-05
4.86644e-05
4.496e-05
4.27581e-05
4.16885e-05
4.11215e-05
4.10662e-05
4.13996e-05
4.24492e-05
4.6303e-05
4.77467e-05
4.71051e-05
4.54559e-05
4.53172e-05
4.90651e-05
7.12232e-05
8.63794e-05
8.80878e-05
8.56801e-05
7.83724e-05
7.13973e-05
6.56051e-05
6.34639e-05
6.35609e-05
6.57815e-05
6.99028e-05
7.38347e-05
7.54579e-05
7.6308e-05
7.693e-05
7.76937e-05
8.27777e-05
8.63574e-05
9.17364e-05
9.50201e-05
9.54055e-05
9.51112e-05
9.2304e-05
8.53552e-05
8.28797e-05
8.43654e-05
8.92532e-05
8.89282e-05
8.09995e-05
7.27839e-05
6.97851e-05
6.97565e-05
7.1661e-05
8.1511e-05
0.000118194
0.000141158
0.000151854
0.000151001
0.000137895
0.00013215
0.000123456
0.000116947
0.000115675
0.000114223
0.000114384
0.000114675
0.000128098
0.000128179
0.000130063
0.000143118
0.000172921
0.000183458
0.00022374
0.000221131
0.00020125
8.6493e-06
8.87856e-06
9.12985e-06
9.322e-06
9.44326e-06
9.49736e-06
9.52078e-06
9.52908e-06
9.5259e-06
9.49215e-06
9.45305e-06
9.43843e-06
9.44007e-06
9.44288e-06
9.43347e-06
9.40614e-06
9.39194e-06
9.40584e-06
9.57268e-06
9.88261e-06
1.02052e-05
1.05107e-05
1.07422e-05
1.0928e-05
1.10773e-05
1.11467e-05
1.1195e-05
1.12688e-05
1.13347e-05
1.14112e-05
1.15707e-05
1.17839e-05
1.19867e-05
1.21153e-05
1.21352e-05
1.21174e-05
1.1969e-05
1.16263e-05
1.1332e-05
1.11666e-05
1.11369e-05
1.11726e-05
1.13203e-05
1.18664e-05
1.26866e-05
1.38851e-05
1.50149e-05
1.6156e-05
1.72829e-05
1.81662e-05
1.90122e-05
1.95585e-05
1.9901e-05
2.07672e-05
2.14028e-05
2.14609e-05
2.1315e-05
2.07894e-05
1.92537e-05
1.81831e-05
1.79701e-05
1.87106e-05
2.03699e-05
2.0795e-05
2.0459e-05
1.97121e-05
1.96604e-05
1.99975e-05
2.14383e-05
2.5123e-05
3.22636e-05
4.4634e-05
5.82916e-05
6.92409e-05
7.68859e-05
8.24805e-05
8.5149e-05
8.53926e-05
8.50069e-05
8.36748e-05
8.12253e-05
7.69256e-05
6.79916e-05
5.63893e-05
5.16323e-05
5.25463e-05
5.77544e-05
7.59054e-05
0.0001099
0.00016744
0.000193016
0.000201124
0.000201647
0.000199297
0.000192885
0.000188518
0.000183187
0.000179687
0.000173447
0.000163699
0.000155614
0.000150999
0.000149113
0.000147854
0.000147004
0.000145467
0.000142559
0.000138693
0.000136237
0.000132165
0.000129778
0.00012885
0.000126569
0.000124645
0.000122105
0.00011585
0.000110626
0.000105647
0.000102426
0.000100501
9.69577e-05
9.13761e-05
8.59278e-05
7.98764e-05
7.24015e-05
6.56292e-05
6.16027e-05
6.0856e-05
6.0983e-05
5.90078e-05
5.40855e-05
4.98659e-05
4.56766e-05
4.32949e-05
4.24577e-05
4.23422e-05
4.32899e-05
4.45668e-05
4.53214e-05
4.73459e-05
4.78972e-05
4.63776e-05
4.3721e-05
4.3275e-05
4.55772e-05
6.56833e-05
8.74384e-05
9.0681e-05
8.8316e-05
7.93755e-05
7.12469e-05
6.53426e-05
6.25053e-05
6.20326e-05
6.29836e-05
6.80031e-05
7.17345e-05
7.41308e-05
7.57249e-05
7.71332e-05
7.78263e-05
8.02408e-05
8.57182e-05
9.15549e-05
9.5088e-05
9.56932e-05
9.56658e-05
9.46501e-05
9.19358e-05
9.16501e-05
9.38213e-05
9.47238e-05
8.79154e-05
7.67293e-05
7.0936e-05
6.98483e-05
7.07586e-05
7.57174e-05
9.96476e-05
0.000136853
0.000149021
0.000154796
0.000139771
0.00012958
0.00012019
0.000120601
0.000114634
0.000114518
0.000115792
0.000112869
0.00011621
0.000125034
0.000127481
0.000129814
0.000137245
0.000170898
0.000181785
0.000217345
0.000218231
0.000209302
8.87231e-06
8.89716e-06
8.95928e-06
9.10331e-06
9.3474e-06
9.72549e-06
1.00508e-05
1.03859e-05
1.06103e-05
1.07875e-05
1.08512e-05
1.08563e-05
1.06844e-05
1.04247e-05
1.02199e-05
1.01423e-05
1.02181e-05
1.07538e-05
1.14966e-05
1.20613e-05
1.25436e-05
1.27887e-05
1.28939e-05
1.28937e-05
1.27061e-05
1.23635e-05
1.20482e-05
1.18211e-05
1.17051e-05
1.16651e-05
1.16759e-05
1.17684e-05
1.18993e-05
1.20022e-05
1.2081e-05
1.20834e-05
1.19922e-05
1.19365e-05
1.1944e-05
1.20313e-05
1.22593e-05
1.3044e-05
1.43495e-05
1.66923e-05
1.86663e-05
2.06933e-05
2.2702e-05
2.4422e-05
2.56695e-05
2.67879e-05
2.7748e-05
2.79821e-05
2.7877e-05
2.7961e-05