/*--------------------------------*- C++ -*----------------------------------*\
| =========                 |                                                 |
| \\      /  F ield         | OpenFOAM: The Open Source CFD Toolbox           |
|  \\    /   O peration     | Version:  2.4.0                                 |
|   \\  /    A nd           | Web:      www.OpenFOAM.org                      |
|    \\/     M anipulation  |                                                 |
\*---------------------------------------------------------------------------*/
FoamFile
{
    version     2.0;
    format      ascii;
    class       volScalarField;
    location    "1.5";
    object      pPrime2Mean;
}
// * * * * * * * * * * * * * * * * * * * * * * * * * * * * * * * * * * * * * //

dimensions      [0 4 -4 0 0 0 0];

internalField   nonuniform List<scalar> 
8800
(
431232
420356
408688
397118
385706
374460
363380
352466
341718
331135
320716
310460
300363
290422
280624
270953
261370
251804
242078
231653
431248
420358
408687
397117
385706
374460
363380
352466
341718
331135
320716
310460
300364
290423
280626
270959
261380
251826
242131
231830
431257
420358
408684
397115
385705
374460
363380
352466
341718
331135
320717
310461
300366
290426
280632
270969
261400
251868
242230
232174
431265
420357
408681
397113
385705
374459
363380
352466
341718
331135
320717
310462
300368
290430
280640
270984
261429
251928
242367
232574
431271
420357
408678
397111
385704
374459
363380
352466
341718
331136
320718
310464
300371
290436
280650
271003
261466
252003
242531
232987
431276
420358
408677
397110
385703
374459
363380
352466
341718
331136
320719
310466
300374
290442
280662
271025
261510
252088
242712
233391
431279
420358
408675
397108
385702
374459
363380
352466
341718
331136
320720
310468
300378
290450
280676
271051
261559
252182
242900
233774
431282
420358
408674
397107
385702
374459
363380
352466
341718
331137
320721
310470
300383
290458
280691
271078
261611
252280
243091
234132
431284
420359
408674
397107
385701
374459
363380
352466
341719
331138
320722
310472
300387
290466
280707
271107
261665
252380
243277
234460
431285
420359
408674
397106
385701
374459
363380
352466
341719
331138
320724
310475
300392
290475
280723
271137
261719
252480
243455
234759
431285
420359
408674
397106
385701
374459
363381
352467
341720
331139
320725
310478
300397
290484
280739
271167
261773
252576
243623
235029
431284
420359
408674
397107
385702
374459
363381
352467
341720
331140
320727
310480
300402
290493
280755
271195
261825
252667
243778
235270
431282
420359
408674
397108
385702
374459
363381
352467
341721
331141
320728
310483
300407
290501
280771
271223
261874
252751
243918
235483
431279
420358
408675
397109
385703
374460
363381
352468
341721
331142
320730
310485
300411
290509
280785
271248
261918
252828
244043
235668
431275
420358
408677
397110
385703
374460
363381
352468
341722
331142
320731
310488
300415
290516
280798
271271
261958
252895
244150
235826
431271
420358
408679
397112
385704
374460
363381
352468
341722
331143
320732
310490
300419
290522
280809
271291
261992
252952
244241
235957
431265
420357
408681
397114
385705
374460
363381
352469
341723
331144
320733
310491
300422
290528
280818
271307
262020
252999
244314
236062
431257
420358
408684
397116
385706
374461
363382
352469
341723
331145
320734
310493
300424
290532
280825
271319
262041
253034
244369
236139
431247
420358
408687
397118
385707
374461
363382
352469
341724
331145
320734
310493
300425
290534
280830
271328
262056
253058
244405
236191
431232
420356
408688
397118
385707
374461
363382
352469
341724
331145
320735
310494
300426
290536
280832
271332
262063
253070
244424
236216
222206
219661
217719
216041
214485
213004
211576
210188
208830
207498
206185
204889
203607
202336
201077
199826
198582
197345
196114
194888
193667
192452
191241
190036
188835
187639
186447
185259
184075
182896
181722
180552
179389
178231
177078
175932
174791
173655
172525
171400
170279
169162
168048
166938
165831
164727
163626
162529
161435
160345
159259
158175
157094
156016
154940
153868
152800
151736
150675
149618
148564
147512
146463
145417
144374
143334
142299
141269
140243
139221
138204
137190
136179
135172
134169
133169
132172
131180
130192
129209
128232
127259
126292
125329
124371
123416
122465
121517
120572
119630
118692
117756
116823
115892
114963
114038
113114
112194
111276
110362
109452
108546
107644
106748
105856
104970
104090
103215
102346
101482
100622
99767.9
98917.5
98071.6
97229.4
96391.2
95556.3
94725.3
93897.6
93073.9
92253.4
91437.2
90623.8
89814.5
89007.4
88204.6
87403.6
86607.2
85812.5
85021.9
84232.8
83446.7
82662.2
81880
81099.8
80322
79546.6
78773.8
78004.1
77237.8
76475.2
75716.7
74962.1
74211.8
73465.6
72723.5
71985.7
71251.7
70521.4
69794.7
69071.1
68350.7
67632.9
66917.9
66205.5
65495.9
64788.9
64085.6
63385.5
62689.5
61996.8
61309.3
60625.5
59948
59274.8
58608.6
57946.5
57292.4
56642.8
56001.8
55364
54736.7
54109.7
53495
52878.3
52274.8
51667.3
51073.9
50474.5
49888.4
49297.2
48717.3
48132.6
47555.7
46974.9
46397
45814.8
45232.4
44641.9
44048.2
43441.4
42826.2
42192.2
41541.8
40862.6
40154.5
39400.3
38583.9
37710.9
36647.1
224018
221307
219096
217192
215470
213860
212328
210853
209422
208025
206657
205312
203987
202679
201385
200103
198832
197571
196317
195072
193833
192601
191376
190157
188945
187737
186535
185339
184147
182961
181780
180605
179436
178273
177116
175965
174820
173681
172547
171418
170293
169173
168057
166945
165836
164730
163628
162529
161434
160343
159255
158170
157089
156010
154935
153863
152794
151730
150669
149612
148558
147507
146458
145413
144370
143332
142297
141266
140240
139218
138201
137187
136176
135169
134166
133166
132170
131178
130190
129208
128231
127259
126292
125330
124372
123417
122466
121518
120574
119632
118694
117758
116824
115893
114964
114038
113115
112195
111278
110365
109455
108550
107649
106754
105863
104978
104098
103224
102355
101491
100631
99776.5
98925.9
98079.4
97236.8
96397.9
95562.8
94731.5
93903.9
93080.4
92260.4
91444.7
90632.1
89823.6
89017.6
88215.6
87415.8
86619.8
85826.1
85035.3
84246.8
83460.5
82676.2
81894
81113.9
80336.3
79561.3
78789.2
78020.3
77255
76493.5
75736.1
74982.9
74233.8
73489
72748.1
72011.5
71278.7
70549.5
69823.5
69101.2
68381.6
67664.6
66949.9
66237.7
65527.7
64820.3
64115.9
63414.7
62716.8
62022.8
61333.2
60647.6
59967.4
59291.6
58621.7
57956.1
57297.4
56642.7
55996.1
55351.8
54717.1
54082.7
53458.6
52833.2
52219.3
51602.1
50995.9
50385.9
49785
49181.5
48584.4
47985.6
47389.3
46792
46193.3
45591.5
44986.1
44373.9
43753.5
43122.1
42474.5
41809.9
41118.4
40399.5
39630.9
38831.9
37904.3
36956
35879.6
225275
222585
220272
218233
216387
214671
213047
211494
209994
208538
207117
205726
204359
203014
201687
200375
199078
197792
196517
195252
193996
192748
191508
190276
189052
187834
186622
185417
184218
183025
181838
180657
179483
178315
177153
175998
174849
173705
172567
171435
170307
169184
168065
166950
165839
164731
163628
162528
161431
160339
159250
158164
157082
156003
154928
153856
152788
151723
150662
149605
148551
147500
146453
145408
144367
143329
142294
141264
140238
139216
138198
137184
136174
135167
134163
133164
132168
131176
130189
129207
128230
127259
126293
125331
124373
123419
122468
121520
120576
119635
118696
117760
116826
115895
114966
114041
113118
112198
111282
110369
109461
108557
107657
106763
105873
104989
104110
103236
102367
101503
100644
99788.2
98937.1
98089.8
97246.7
96407.2
95571.9
94740.5
93913.3
93090.2
92271
91455.8
90644.3
89836.4
89031.8
88230.5
87432.1
86636.4
85843.5
85052.5
84264.2
83477.6
82693.2
81910.7
81130.7
80353
79578.2
78806.7
78038.6
77274.3
76514.1
75758
75006.5
74258.9
73515.6
72776.2
72041.1
71309.2
70581.2
69856.1
69134.8
68415.9
67699.5
66985.3
66273.1
65562.6
64854.7
64149
63446.3
62746.6
62050.9
61359.3
60671.7
59989
59310.6
58637
57967.9
57304.9
56645.2
55992.5
55341.8
54699.1
54056.7
53423.1
52788.8
52163.3
51536.8
50917.2
50297.3
49681.3
49066.3
48452
47839.7
47224.6
46610.9
45991.8
45372.1
44743
44112.5
43465.2
42813.2
42133.6
41445.9
40711.9
39972.1
39141.7
38324.3
37343.5
36359.4
35321.9
226233
223614
221271
219158
217225
215426
213726
212103
210542
209031
207561
206125
204720
203339
201980
200640
199316
198007
196711
195427
194154
192891
191637
190393
189156
187928
186707
185494
184287
183087
181894
180708
179528
178356
177189
176030
174876
173729
172587
171451
170320
169194
168072
166955
165842
164733
163627
162526
161428
160334
159244
158158
157075
155996
154921
153849
152780
151716
150655
149598
148545
147494
146447
145403
144363
143326
142292
141263
140237
139215
138197
137183
136172
135165
134162
133162
132167
131175
130188
129207
128231
127260
126294
125332
124375
123421
122470
121523
120579
119638
118699
117763
116829
115898
114970
114044
113122
112203
111288
110377
109470
108567
107669
106775
105887
105003
104125
103251
102382
101518
100658
99801.9
98950.2
98102
97258.2
96418.1
95582.7
94751.3
93924.7
93102
92283.8
91469.3
90658.9
89851.8
89048.4
88247.7
87450.4
86655.4
85863
85072
84283.5
83496.3
82711.8
81928.9
81148.7
80370.9
79596.5
78825.2
78058
77294.5
76535.6
75780.9
75031
74285.1
73543.5
72805.7
72072.2
71341.5
70614.7
69890.6
69170.5
68452
67736.3
67022.1
66310.2
65598.9
64890.2
64182.8
63478.3
62776.6
62079.3
61385.3
60695.7
60010.4
59329.6
58652.5
57980.3
57312.8
56648.7
55989.5
55332.8
54681.6
54031.5
53387.2
52744.7
52107.3
51471.9
50839.2
50209.3
49579
48952.3
48321.9
47695.6
47062.5
46433.7
45793.7
45159.4
44505.9
43860.7
43185
42519.2
41804.7
41106.4
40327.4
39579
38702.6
37859.1
36887.1
35903.3
34905.6
227004
224457
222120
219971
217982
216120
214357
212676
211061
209500
207985
206509
205066
203652
202263
200896
199547
198216
196900
195597
194308
193030
191763
190506
189259
188020
186791
185569
184355
183149
181950
180758
179573
178396
177225
176062
174904
173753
172608
171468
170334
169204
168080
166960
165845
164734
163627
162524
161425
160331
159240
158153
157069
155990
154914
153842
152774
151710
150649
149592
148539
147489
146443
145400
144360
143324
142291
141262
140237
139215
138197
137183
136172
135165
134161
133161
132166
131174
130188
129207
128231
127260
126295
125334
124376
123423
122473
121526
120583
119642
118704
117767
116834
115903
114975
114050
113128
112210
111296
110386
109481
108579
107682
106790
105902
105019
104142
103268
102399
101534
100674
99817
98964.5
98115.4
97271.1
96430.5
95595
94763.6
93937.4
93115.1
92297.8
91483.9
90674.4
89867.8
89065.3
88265.2
87468.8
86674.3
85882.3
85091.2
84302.6
83515
82730.1
81946.8
81166.6
80388.7
79614.7
78843.6
78077.3
77314.3
76556.7
75803
75054.8
74310.2
73570.8
72834.5
72103
71373.7
70648.5
69925.3
69206.5
68487.9
67773.1
67058.7
66346.9
65634.5
64925.1
64215.5
63509.4
62805.1
62106.4
61409.1
60718.2
60029.8
59346.9
58666.8
57991.7
57319.8
56651.4
55985.7
55323.2
54662.9
54006
53351
52700.6
52051.9
51407.5
50762.6
50122.8
49478.7
48840.5
48194.4
47555.7
46903.8
46263.2
45600.8
44955
44276.6
43620.4
42915.8
42239.9
41493.3
40783.3
39974.7
39204.4
38321.3
37448.9
36511.9
35549.4
34580
227654
225168
222848
220684
218660
216751
214940
213209
211547
209943
208387
206874
205397
203952
202535
201142
199770
198417
197082
195762
194457
193165
191885
190616
189359
188111
186872
185643
184422
183210
182005
180808
179619
178436
177262
176094
174932
173777
172628
171485
170348
169216
168089
166967
165850
164737
163628
162524
161424
160328
159237
158149
157065
155986
154910
153838
152770
151705
150645
149588
148535
147486
146440
145398
144359
143323
142291
141263
140238
139216
138198
137183
136172
135164
134160
133160
132165
131173
130187
129207
128231
127261
126296
125335
124378
123425
122476
121530
120587
119647
118709
117773
116840
115910
114982
114058
113137
112220
111307
110398
109494
108594
107699
106807
105920
105038
104160
103286
102417
101552
100691
99832.6
98979.3
98129.6
97284.7
96443.6
95607.9
94776.3
93950.2
93128
92311.2
91497.7
90688.8
89882.6
89080.6
88281.1
87485.3
86691.1
85899.4
85108.3
84319.6
83531.7
82746.5
81962.7
81182.4
80404.4
79630.6
78859.8
78094
77331.6
76575.1
75822.6
75076
74333
73595.6
72860.9
72131.4
71403.4
70679.7
69957.6
69239.8
68521.1
67807.1
67092.2
66380.4
65666.9
64957
64245.1
63538
62831.1
62130.8
61430
60737.6
60046.3
59361.6
58678.1
58000.8
57324.5
56652.2
55979.4
55311.6
54642
53978.8
53313.8
52656
51996.2
51343.9
50686.6
50038.4
49380.2
48731.9
48069.6
47420.7
46750.9
46098.9
45417.7
44759
44061.7
43390.9
42667.4
41973.3
41210.4
40477.1
39661.9
38865.6
37997.1
37115.3
36206
35264.3
34312.6
228213
225777
223477
221308
219261
217320
215471
213701
211999
210357
208766
207219
205711
204238
202794
201377
199983
198611
197258
195922
194601
193296
192004
190724
189456
188199
186952
185716
184488
183269
182059
180857
179663
178477
177298
176126
174961
173802
172650
171504
170364
169229
168100
166975
165856
164742
163632
162526
161425
160329
159236
158148
157064
155984
154908
153836
152768
151704
150643
149587
148534
147485
146440
145398
144359
143324
142292
141264
140239
139217
138199
137184
136172
135164
134160
133159
132164
131173
130187
129206
128231
127262
126297
125337
124380
123428
122480
121534
120592
119653
118716
117781
116849
115919
114991
114067
113147
112231
111319
110412
109509
108610
107716
106825
105939
105056
104179
103305
102435
101569
100707
99847.9
98993.7
98143.3
97297.7
96456.2
95620
94788.1
93961.8
93139.6
92322.7
91509.1
90700
89894
89092.4
88293.2
87498
86703.9
85912.5
85121.5
84332.6
83544.5
82758.9
81974.7
81194.2
80416.2
79642.4
78871.9
78106.2
77344.8
76589.3
75838.3
75093.3
74352.4
73616.9
72883.7
72155.4
71428.4
70706
69984.6
69267.5
68548.9
67835.6
67120.5
66408.2
65694.2
64983.4
64269.5
63561.1
62852.1
62149.5
61446.2
60751.7
60057.9
59371.3
58684.9
58005.3
57324.9
56648.7
55969.6
55295.6
54618.8
53947.9
53274.8
52608.7
51940
51279
50611.8
49954
49284.7
48624.7
47950.8
47288.1
46606.8
45938.9
45246.8
44570.7
43863.4
43173.3
42441.8
41727.2
40958.8
40205.2
39392.9
38582
37729.8
36850.4
35955.9
35026.8
34086.4
228697
226303
224024
221856
219795
217831
215953
214151
212416
210741
209119
207542
206007
204507
203039
201600
200186
198795
197425
196074
194740
193421
192118
190828
189550
188285
187030
185786
184552
183328
182112
180905
179707
178516
177333
176158
174989
173827
172672
171523
170380
169243
168112
166985
165864
164748
163637
162530
161428
160331
159238
158149
157064
155984
154908
153836
152768
151704
150643
149587
148534
147485
146440
145398
144360
143325
142293
141265
140240
139218
138199
137183
136171
135163
134159
133158
132163
131172
130186
129206
128232
127262
126298
125338
124382
123431
122483
121539
120598
119660
118724
117790
116858
115928
115001
114078
113158
112242
111332
110425
109524
108626
107732
106842
105956
105074
104196
103322
102452
101584
100721
99861.3
99006.1
98154.9
97308.6
96466.7
95630
94797.8
93971
93148.3
92330.8
91516.6
90707
89900.7
89098.9
88299.9
87504.8
86710.8
85919.4
85128.3
84339.4
83551.2
82765.4
81981
81200.2
80422.1
79648.6
78878.6
78113.4
77353.2
76598.8
75849.4
75106.1
74367.5
73633.1
72901.8
72174.2
71447.9
70725.9
70005.3
69288.7
68569.7
67856.7
67141.8
66428.5
65714.6
65002.5
64287.6
63577.3
62866.8
62161.1
61456.2
60758.7
60063.4
59374.1
58686.2
58003.9
57320.2
56639.5
55955.9
55275.5
54593.3
53914.1
53234.2
52560.1
51883.9
51213.9
50539.8
49871
49193.8
48521.5
47838.9
47162
46472.2
45789.2
45089.4
44397.6
43684.2
42978.3
42242.1
41512.1
40742.6
39976.3
39170.8
38352.6
37511.6
36634.9
35745.8
34824.8
33893
229124
226763
224502
222338
220269
218287
216387
214559
212797
211095
209445
207842
206282
204759
203269
201810
200378
198970
197584
196218
194871
193541
192226
190926
189640
188366
187104
185854
184614
183384
182163
180952
179749
178555
177368
176189
175017
173853
172695
171543
170398
169258
168125
166997
165874
164756
163644
162536
161433
160335
159241
158152
157067
155986
154909
153837
152769
151705
150644
149588
148535
147486
146440
145398
144360
143325
142293
141264
140239
139217
138198
137182
136170
135161
134157
133156
132161
131170
130185
129205
128231
127262
126298
125339
124384
123433
122486
121543
120603
119666
118732
117798
116867
115938
115011
114087
113168
112253
111343
110437
109536
108639
107746
106856
105970
105088
104210
103335
102464
101596
100732
99871
99014.8
98162.8
97315.8
96473.3
95636.1
94803.5
93976
93152.6
92334.1
91518.9
90708.4
89901.3
89099
88299.8
87504.5
86710.5
85918.8
85127.6
84338.5
83550.4
82764.7
81980.4
81199.7
80422.1
79649
78879.9
78115.8
77356.7
76603.7
75855.8
75114.2
74377.3
73644.2
72914.1
72187
71461.1
70739
70019
69301.8
68583.1
67870.5
67154.8
66440.7
65727.4
65013.4
64298.6
63585.8
62875.4
62165.4
61460.6
60758.6
60063
59369.8
58682
57996
57310.8
56624.5
55938
55250.4
54564.1
53877.8
53192
52510.6
51829.3
51149.5
50472.8
49791.5
49109.6
48425.1
47735.7
47046.8
46350.3
45654.4
44949.5
44245.1
43528.5
42810.6
42073.5
41331.9
40564.1
39788.4
38989.5
38165.3
37329
36454.2
35566.9
34653
33729.2
229500
227165
224920
222760
220686
218693
216775
214927
213143
211417
209743
208118
206535
204992
203483
202005
200556
199132
197732
196353
194994
193653
192328
191019
189724
188443
187175
185918
184672
183437
182212
180996
179789
178591
177401
176219
175044
173877
172717
171563
170415
169274
168139
167009
165885
164766
163652
162543
161439
160340
159245
158155
157069
155988
154911
153838
152770
151705
150645
149588
148535
147485
146439
145397
144358
143322
142290
141261
140236
139213
138194
137178
136166
135158
134154
133154
132158
131168
130183
129203
128229
127260
126296
125338
124384
123434
122489
121546
120608
119672
118739
117806
116875
115945
115019
114095
113176
112261
111351
110445
109545
108648
107755
106866
105980
105098
104219
103343
102471
101602
100737
99875.4
99018.2
98165.3
97317.6
96474.6
95636.9
94803.9
93975.7
93151.7
92332
91515.7
90703.6
89895.1
89091.7
88291.8
87496
86702.2
85910.4
85119.5
84330.2
83542.2
82756.8
81973.2
81193.4
80416.8
79644.9
78877.2
78114.6
77356.8
76605
75858.2
75117.8
74381.8
73649.5
72920.3
72193.5
71466.8
70745.1
70025.6
69306.6
68590
67876
67160.4
66445.4
65732.7
65015.9
64301.6
63586.2
62878
62162.3
61459.6
60750.8
60057.8
59358.9
58673
57981.5
57297
56603.1
55915.9
55221
54531.3
53838.8
53149.3
52460.8
51778.1
51088.3
50411.9
49719.2
49033.9
48340.2
47644.2
46946.7
46244.7
45538.2
44829.7
44114.8
43398.1
42669.5
41935.4
41181.9
40417.5
39631.8
38836.2
38007.5
37171.1
36299.3
35414.5
34508.3
33592.2
229830
227516
225285
223130
221054
219052
217120
215256
213453
211707
210014
208369
206767
205205
203679
202185
200720
199283
197869
196478
195108
193757
192423
191106
189803
188515
187240
185978
184727
183487
182257
181038
179827
178626
177433
176248
175070
173901
172738
171582
170432
169289
168152
167021
165895
164775
163660
162550
161444
160344
159249
158158
157072
155990
154912
153839
152770
151705
150644
149586
148533
147483
146437
145394
144354
143318
142286
141257
140231
139208
138189
137173
136161
135153
134149
133150
132155
131164
130179
129200
128225
127257
126294
125335
124382
123434
122489
121548
120612
119677
118743
117811
116879
115950
115023
114099
113180
112265
111355
110449
109548
108652
107759
106870
105984
105101
104221
103345
102472
101602
100736
99874.1
99016.2
98162.4
97314.1
96470.6
95632.4
94798.8
93969.9
93145
92324.2
91506.5
90692.8
89882.7
89077.7
88276.8
87480.4
86685.8
85894.2
85103.5
84314.7
83527.3
82742.8
81960.4
81182.3
80407.2
79637.2
78871.1
78110.2
77353.8
76603
75857.2
75117.2
74381
73649.7
72919.5
72192.8
71465.4
70743.3
70024
69303.9
68589.5
67873
67158.9
66443
65729.9
65011.3
64297.9
63580.1
62872.4
62153.8
61451.8
60737
60046.4
59340.3
58656.6
57959.5
57277.4
56575
55888.5
55187.5
54496.8
53799.6
53107.4
52413.2
51729
51031.3
50356.6
49655.5
48966.8
48267.1
47563.9
46861.1
46154.5
45439.3
44732.5
44008.1
43293.6
42551.2
41820.8
41055.1
40292
39498
38701.7
37871.5
37035
36167
35286.5
34388.3
33479.9
230120
227823
225602
223453
221375
219366
217425
215547
213729
211967
210257
208595
206977
205399
203857
202348
200870
199420
197995
196593
195213
193853
192510
191185
189876
188582
187301
186033
184777
183533
182300
181076
179862
178658
177462
176274
175095
173923
172758
171600
170449
169304
168165
167032
165905
164783
163667
162556
161449
160348
159252
158160
157073
155991
154912
153838
152769
151703
150641
149583
148529
147479
146432
145389
144349
143313
142280
141251
140225
139202
138183
137168
136156
135148
134145
133146
132151
131161
130176
129196
128221
127252
126289
125332
124379
123432
122489
121549
120613
119678
118745
117811
116880
115951
115024
114099
113180
112265
111354
110448
109547
108650
107758
106867
105981
105097
104217
103340
102467
101597
100731
99867.9
99009.6
98155.1
97306.4
96462
95623.4
94789
93959.5
93133.4
92311.5
91492
90676.9
89865
89058.6
88256.2
87458.8
86663.6
85872
85081.4
84293.7
83507.1
82724.2
81943.4
81167.2
80393.6
79625.5
78860.6
78101.5
77346.4
76597.2
75852.1
75113
74375.8
73645.4
72913
72185.6
71456.4
70734.7
70013.9
69293.5
68580.4
67863.6
67150.2
66433.7
65720.8
65002
64287.2
63570
62861.1
62140.9
61437.2
60720.5
60029
59318.4
58633.1
57932.6
57251.6
56544.9
55857
55153.3
54459.6
53760.5
53066.1
52368.5
51680.5
50981.2
50303.8
49597
48908.6
48202.3
47495.6
46786.9
46078.6
45359.6
44651.8
43918.1
43204.7
42452.6
41719.7
40946.6
40180.1
39381.6
38584.3
37754.3
36919.8
36056.2
35181.3
34291.3
33390.4
230371
228088
225877
223731
221653
219640
217690
215801
213971
212196
210472
208796
207163
205571
204016
202495
201005
199543
198108
196696
195307
193939
192589
191257
189942
188642
187356
186083
184823
183575
182338
181112
179895
178687
177489
176299
175117
173943
172776
171617
170464
169317
168177
167042
165914
164791
163673
162560
161453
160351
159254
158161
157073
155990
154911
153836
152766
151700
150637
149579
148524
147474
146426
145383
144343
143307
142274
141244
140218
139196
138177
137162
136150
135143
134140
133142
132147
131157
130172
129192
128217
127248
126285
125327
124375
123428
122486
121546
120610
119675
118742
117808
116877
115946
115019
114094
113176
112259
111349
110441
109540
108643
107750
106859
105972
105087
104207
103329
102456
101586
100720
99857.4
98999
98143.9
97294.9
96449.6
95610.6
94775.1
93945.2
93117.7
92294.9
91473.7
90657.4
89843.9
89036.4
88232.4
87434.1
86638
85846.3
85055.9
84269.4
83483.8
82702.8
81923.3
81148.8
80376.6
79610.2
78846.2
78088.4
77334.6
76586.8
75842.6
75104.5
74366.7
73636.3
72901.1
72172.2
71440.6
70718.3
69995.8
69277.9
68563.2
67847.6
67133.1
66417.1
65704.6
64987.3
64270.2
63556.8
62844.4
62124.5
61416.1
60700.7
60004.1
59292.7
58602.8
57902.4
57219.2
56510.9
55826.3
55119
54423.6
53720.8
53022.5
52323.3
51632.7
50932.1
50252.6
49545.3
48857.6
48145.8
47437.9
46725.4
46014.2
45293.4
44576.7
43845.4
43124.8
42366.5
41627.9
40851.9
40080.9
39282.1
38484.4
37655.6
36824.9
35965.9
35097.3
34215.1
33321.3
230587
228316
226111
223969
221891
219874
217918
216021
214181
212395
210660
208971
207327
205723
204157
202624
201124
199652
198208
196788
195391
194016
192659
191322
190001
188696
187405
186129
184865
183613
182373
181143
179924
178714
177513
176321
175137
173961
172793
171631
170477
169329
168187
167051
165921
164797
163678
162564
161455
160352
159254
158160
157071
155987
154908
153832
152762
151695
150632
149573
148518
147467
146420
145376
144336
143300
142267
141238
140212
139190
138171
137156
136146
135139
134136
133138
132144
131154
130168
129188
128213
127243
126279
125321
124369
123422
122480
121540
120603
119668
118734
117799
116868
115938
115010
114085
113166
112250
111338
110431
109530
108631
107738
106847
105960
105074
104193
103315
102443
101572
100707
99843.6
98985.2
98129.7
97280.4
96434.7
95595.5
94759
93928.3
93099.5
92275.5
91452.9
90635.6
89820.7
89012.5
88207.3
87408.5
86611.7
85819.8
85029.7
84244
83459.8
82680
81901.7
81128.6
80357.6
79592.2
78829.1
78072.7
77319.8
76573.6
75829.8
75092.4
74353.7
73621.9
72885
72153.8
71419.8
70697.3
69970.8
69255.7
68541.1
67826.1
67110.3
66395.8
65681.9
64967.3
64246.8
63539.9
62822.9
62105.4
61394.5
60680.9
59972.9
59265
58568.8
57866.9
57182.4
56477
55787.5
55082.4
54386.6
53679.4
52976.1
52279.5
51584.1
50888.7
50207.4
49495.4
48810.4
48098.4
47388.8
46674.3
45957.6
45237.9
44510.9
43780.6
43046.3
42291.5
41543.9
40769.5
39994.2
39199
38401.1
37574.8
36748.1
35893.9
35032.3
34156.6
33269.4
230771
228508
226309
224169
222090
220071
218110
216207
214359
212565
210820
209122
207468
205854
204278
202736
201227
199747
198294
196867
195464
194082
192720
191377
190052
188742
187448
186168
184901
183646
182403
181171
179949
178737
177535
176340
175155
173977
172807
171644
170488
169338
168195
167058
165926
164801
163681
162566
161456
160352
159252
158158
157069
155984
154904
153828
152757
151689
150626
149567
148512
147461
146414
145370
144330
143293
142261
141232
140206
139184
138166
137152
136141
135135
134133
133135
132141
131150
130165
129184
128208
127238
126273
125315
124362
123414
122471
121531
120593
119656
118722
117788
116856
115925
114997
114073
113153
112236
111324
110417
109516
108618
107725
106833
105945
105059
104178
103300
102427
101557
100691
99827.7
98969.3
98114
97264.2
96418.5
95578.6
94742.2
93910.4
93080.7
92255.2
91431.6
90613.2
89797.5
88988.7
88183.2
87383.8
86586.6
85794.7
85004.6
84219.4
83436.1
82656.8
81879.9
81107.7
80338
79573.4
78811.7
78056.3
77304.4
76559
75814.7
75077.1
74337
73603
72864.2
72132.6
71398.6
70671.9
69944.4
69230.6
68512.7
67800.2
67084
66369.3
65656.1
64945.6
64223.9
63518.4
62796
62086.9
61368.1
60652.4
59938.7
59239.4
58539.3
57836.1
57144.3
56439.7
55743.2
55043.9
54342.7
53637.5
52931.6
52240.3
51540.5
50848.2
50158
49452.7
48766
48055.6
47344.5
46632.7
45910.3
45185.4
44452.1
43721.6
42976.1
42223.7
41468.9
40702.7
39922.8
39133.2
38333.3
37511.2
36686.5
35838.6
34983.1
34112.2
33231.6
230923
228667
226471
224333
222253
220232
218268
216360
214506
212705
210953
209247
207585
205963
204379
202829
201313
199826
198367
196934
195525
194138
192772
191425
190095
188782
187484
186201
184931
183674
182429
181195
179971
178757
177552
176356
175169
173990
172818
171654
170496
169346
168201
167063
165930
164803
163682
162566
161456
160350
159250
158155
157065
155980
154899
153823
152752
151684
150621
149562
148507
147455
146408
145364
144324
143287
142255
141226
140200
139179
138161
137147
136137
135131
134129
133131
132137
131147
130161
129179
128203
127233
126267
125308
124354
123405
122460
121519
120580
119642
118706
117773
116841
115910
114983
114059
113138
112221
111309
110403
109502
108604
107710
106818
105930
105045
104163
103284
102411
101541
100674
99811.4
98952.3
98097.6
97247.3
96402.5
95561.9
94726.3
93893.3
93063.7
92236.4
91412.9
90593.2
89777.5
88968
88163
87362.6
86565.9
85772.8
84983.3
84197.5
83415
82635.2
81859.7
81087.2
80319.1
79554.6
78794.5
78039.2
77288.4
76542.2
75797.5
75057.8
74316.6
73579.9
72840.7
72107.5
71373.7
70648.4
69921.1
69202.8
68484.8
67772.1
67055.1
66343.5
65630
64918.8
64199.5
63495
62770.2
62059.9
61333.6
60626.1
59910
59212.4
58509.6
57803.4
57101
56401.1
55702.5
55004.4
54295.5
53599.2
52894.3
52201.8
51501.7
50813.7
50113.7
49418.5
48718.9
48018
47305.8
46593.4
45866.1
45140.3
44403.3
43664.5
42916.8
42168.3
41411
40648.1
39869.2
39082.9
38281.4
37464.6
36638.9
35797.8
34945.7
34079.3
33204.9
231045
228793
226599
224461
222381
220358
218392
216481
214623
212817
211059
209347
207678
206050
204460
202904
201382
199890
198426
196988
195574
194183
192813
191463
190130
188814
187514
186228
184956
183697
182449
181213
179988
178772
177566
176369
175180
174000
172827
171661
170503
169351
168205
167066
165933
164805
163683
162566
161455
160349
159248
158153
157062
155976
154895
153819
152747
151680
150617
149557
148502
147451
146403
145359
144319
143282
142250
141220
140195
139174
138156
137142
136132
135126
134125
133127
132133
131143
130157
129175
128199
127227
126262
125301
124345
123395
122449
121507
120566
119628
118691
117758
116825
115895
114967
114044
113123
112208
111295
110390
109488
108591
107696
106805
105917
105032
104149
103271
102396
101526
100659
99796.8
98937
98083.1
97232.2
96388
95547.1
94712.4
93878.5
93049.3
92221.1
91398.1
90577.4
89762.4
88952.3
88147.7
87346.3
86550
85755.8
84966.7
84179.5
83397.4
82616.8
81841.9
81068.7
80301.5
79536.9
78777.9
78021.7
77271.2
76522.9
75778.2
75035.3
74293.8
73554.3
72816.9
72082.2
71352
70623.2
69896.7
69177.5
68458.2
67742.3
67028.2
66317.4
65601.8
64891
64174.9
63466.1
62740.9
62031.5
61308.4
60603.8
59879.6
59183.7
58472.1
57767.4
57068.4
56368
55662.6
54964.2
54254.8
53562.9
52857.4
52169.1
51471.8
50782.2
50075
49386.3
48676.9
47982
47267.4
46560.5
45827.9
45102.7
44360.5
43620.8
42875.2
42124.4
41368.5
40606.4
39832
39044.1
38244.6
37430.3
36604.8
35767.9
34917.6
34055.6
33186
231136
228887
226694
224556
222476
220453
218485
216572
214711
212901
211138
209422
207749
206116
204521
202961
201434
199938
198470
197028
195612
194217
192844
191491
190156
188838
187536
186248
184974
183713
182464
181227
180000
178783
177576
176378
175188
174007
172833
171666
170507
169354
168208
167068
165934
164806
163683
162566
161454
160348
159247
158151
157060
155974
154893
153816
152744
151677
150613
149554
148498
147447
146399
145355
144315
143278
142245
141216
140191
139169
138152
137138
136128
135123
134121
133124
132130
131139
130153
129171
128194
127223
126257
125295
124338
123387
122439
121495
120553
119616
118678
117745
116812
115883
114955
114032
113111
112197
111284
110379
109476
108580
107685
106795
105905
105022
104138
103261
102385
101516
100647
99785.9
98925.1
98072.1
97220.6
96377.3
95535.6
94701.5
93867.3
93039.3
92211.1
91389.4
90567.7
89753.6
88942
88137.8
87335.2
86539.6
85744.5
84955.8
84166.9
83384.6
82602.5
81827.6
81053.1
80286.5
79520.8
78762.5
78004.8
77254.2
76503.8
75758.7
75013
74271.9
73530.3
72796.2
72058.9
71331.4
70600.3
69876.9
69152.8
68435.2
67716.5
67004.1
66289.6
65576.2
64864.8
64149.5
63436.9
62716
62005.4
61282.3
60578.9
59853.1
59155.9
58438
57738.9
57035.2
56332.4
55628.4
54929.7
54222
53531.4
52826.5
52140.2
51441.2
50751.3
50044
49354.2
48645.6
47952.8