/*--------------------------------*- C++ -*----------------------------------*\
| =========                 |                                                 |
| \\      /  F ield         | OpenFOAM: The Open Source CFD Toolbox           |
|  \\    /   O peration     | Version:  2.4.0                                 |
|   \\  /    A nd           | Web:      www.OpenFOAM.org                      |
|    \\/     M anipulation  |                                                 |
\*---------------------------------------------------------------------------*/
FoamFile
{
    version     2.0;
    format      ascii;
    class       surfaceScalarField;
    location    "0.06";
    object      phi;
}
// * * * * * * * * * * * * * * * * * * * * * * * * * * * * * * * * * * * * * //

dimensions      [0 3 -1 0 0 0 0];

internalField   nonuniform List<scalar> 
17320
(
1.76312e-05
7.36881e-06
1.16174e-05
6.01375e-06
8.69321e-06
2.92423e-06
7.35134e-06
1.34187e-06
6.71116e-06
6.40176e-07
6.36312e-06
3.48042e-07
6.07359e-06
2.89531e-07
5.84997e-06
2.23618e-07
5.74098e-06
1.08994e-07
5.60198e-06
1.38997e-07
5.47239e-06
1.29588e-07
5.4275e-06
4.48885e-08
5.37972e-06
4.77807e-08
5.27238e-06
1.07335e-07
5.23976e-06
3.26285e-08
5.20631e-06
3.34485e-08
5.16952e-06
3.67826e-08
5.14385e-06
2.56756e-08
5.03362e-06
1.10233e-07
-5.43385e-07
5.577e-06
2.54435e-05
6.92529e-06
2.32542e-05
8.20309e-06
2.1005e-05
5.1734e-06
1.9304e-05
3.04287e-06
1.80762e-05
1.86796e-06
1.71372e-05
1.28712e-06
1.63428e-05
1.08384e-06
1.57693e-05
7.97141e-07
1.53496e-05
5.28715e-07
1.4946e-05
5.42648e-07
1.46408e-05
4.34741e-07
1.44381e-05
2.47544e-07
1.42325e-05
2.53384e-07
1.40217e-05
3.18165e-07
1.38994e-05
1.54948e-07
1.37653e-05
1.67517e-07
1.36642e-05
1.37865e-07
1.3543e-05
1.46885e-07
1.36211e-05
3.21512e-08
-6.12315e-07
1.369e-05
2.65874e-05
5.33793e-06
2.71624e-05
7.6281e-06
2.68049e-05
5.53086e-06
2.62299e-05
3.61788e-06
2.56036e-05
2.49426e-06
2.49065e-05
1.98416e-06
2.4119e-05
1.87133e-06
2.35026e-05
1.41356e-06
2.29809e-05
1.05042e-06
2.24449e-05
1.07866e-06
2.20477e-05
8.31952e-07
2.17507e-05
5.44541e-07
2.14302e-05
5.73847e-07
2.11519e-05
5.96474e-07
2.0974e-05
3.32925e-07
2.07646e-05
3.76918e-07
2.06411e-05
2.61284e-07
2.04123e-05
3.7568e-07
2.04641e-05
-1.9609e-08
-3.91584e-08
1.98909e-05
2.62759e-05
4.06198e-06
2.75259e-05
6.37819e-06
2.8117e-05
4.93968e-06
2.84559e-05
3.27901e-06
2.86306e-05
2.31953e-06
2.86626e-05
1.95224e-06
2.84283e-05
2.10556e-06
2.821e-05
1.63193e-06
2.80135e-05
1.24689e-06
2.76883e-05
1.40389e-06
2.74398e-05
1.08039e-06
2.72464e-05
7.37923e-07
2.69797e-05
8.40613e-07
2.67282e-05
8.47953e-07
2.65753e-05
4.85866e-07
2.63762e-05
5.75952e-07
2.62493e-05
3.88214e-07
2.61166e-05
5.08335e-07
2.62411e-05
-1.44102e-07
-2.89129e-07
2.64911e-05
2.60122e-05
3.04977e-06
2.7188e-05
5.20241e-06
2.80404e-05
4.08723e-06
2.85566e-05
2.76288e-06
2.89834e-05
1.89266e-06
2.93555e-05
1.58019e-06
2.95607e-05
1.90038e-06
2.96694e-05
1.52321e-06
2.98361e-05
1.08015e-06
2.98961e-05
1.34388e-06
2.99722e-05
1.00435e-06
3.0035e-05
6.75049e-07
3.00363e-05
8.39386e-07
2.99743e-05
9.09959e-07
2.99639e-05
4.96245e-07
2.99192e-05
6.20631e-07
2.99181e-05
3.8934e-07
2.99909e-05
4.35505e-07
3.01693e-05
-3.22528e-07
-7.39267e-07
3.06195e-05
2.58414e-05
2.20835e-06
2.69215e-05
4.12229e-06
2.77706e-05
3.23817e-06
2.82695e-05
2.26404e-06
2.87364e-05
1.42572e-06
2.91347e-05
1.18188e-06
2.94803e-05
1.55477e-06
2.96778e-05
1.32568e-06
2.99019e-05
8.56121e-07
3.01257e-05
1.12003e-06
3.03676e-05
7.62435e-07
3.05977e-05
4.4503e-07
3.08049e-05
6.32131e-07
3.09416e-05
7.73238e-07
3.1043e-05
3.94832e-07
3.11707e-05
4.92995e-07
3.12805e-05
2.79503e-07
3.15321e-05
1.83913e-07
3.18295e-05
-6.19895e-07
-1.3679e-06
3.24581e-05
2.56841e-05
1.52428e-06
2.67431e-05
3.06327e-06
2.75746e-05
2.40663e-06
2.80522e-05
1.78643e-06
2.84789e-05
9.99045e-07
2.88641e-05
7.96657e-07
2.92445e-05
1.17441e-06
2.95109e-05
1.05929e-06
2.97217e-05
6.45283e-07
2.99513e-05
8.90462e-07
3.01566e-05
5.57154e-07
3.04104e-05
1.91218e-07
3.06481e-05
3.94436e-07
3.08878e-05
5.33502e-07
3.10411e-05
2.41584e-07
3.12562e-05
2.77859e-07
3.13944e-05
1.41365e-07
3.1687e-05
-1.08724e-07
3.197e-05
-9.02878e-07
-1.79864e-06
3.24007e-05
2.55534e-05
9.70911e-07
2.65953e-05
2.02133e-06
2.74334e-05
1.5685e-06
2.79971e-05
1.22277e-06
2.83299e-05
6.66186e-07
2.86642e-05
4.62445e-07
2.9023e-05
8.1559e-07
2.93382e-05
7.44074e-07
2.9598e-05
3.85473e-07
2.98469e-05
6.4155e-07
3.00059e-05
3.98214e-07
3.02215e-05
-2.44071e-08
3.04269e-05
1.89061e-07
3.06632e-05
2.97137e-07
3.08557e-05
4.90842e-08
3.1085e-05
4.86006e-08
3.1294e-05
-6.76115e-08
3.1567e-05
-3.81793e-07
3.18226e-05
-1.15842e-06
-1.98925e-06
3.20132e-05
2.54668e-05
5.04161e-07
2.64849e-05
1.00318e-06
2.73319e-05
7.21538e-07
2.79335e-05
6.21181e-07
2.82581e-05
3.41494e-07
2.85517e-05
1.68942e-07
2.88804e-05
4.86802e-07
2.92097e-05
4.14859e-07
2.94935e-05
1.01639e-07
2.97655e-05
3.69511e-07
2.99283e-05
2.35486e-07
3.01355e-05
-2.31606e-07
3.03166e-05
7.96104e-09
3.05139e-05
9.97983e-08
3.06983e-05
-1.35314e-07
3.09415e-05
-1.94563e-07
3.11933e-05
-3.19443e-07
3.14474e-05
-6.35924e-07
3.16879e-05
-1.39889e-06
-2.05746e-06
3.17561e-05
2.54251e-05
7.91017e-08
2.64273e-05
9.72572e-10
2.72799e-05
-1.31084e-07
2.78935e-05
7.57097e-09
2.82282e-05
6.7549e-09
2.85129e-05
-1.15689e-07
2.88141e-05
1.85569e-07
2.91374e-05
9.15625e-08
2.9431e-05
-1.91931e-07
2.97172e-05
8.32916e-08
2.98947e-05
5.8012e-08
3.00994e-05
-4.36377e-07
3.02729e-05
-1.65527e-07
3.04494e-05
-7.66829e-08
3.0617e-05
-3.02863e-07
3.08681e-05
-4.45742e-07
3.1123e-05
-5.74294e-07
3.13622e-05
-8.75157e-07
3.15637e-05
-1.60038e-06
-2.13379e-06
3.164e-05
2.54214e-05
-3.42289e-07
2.64235e-05
-1.0011e-06
2.72862e-05
-9.93851e-07
2.78969e-05
-6.03082e-07
2.82286e-05
-3.24947e-07
2.85191e-05
-4.06161e-07
2.88098e-05
-1.05203e-07
2.91331e-05
-2.31696e-07
2.94261e-05
-4.84986e-07
2.97043e-05
-1.94855e-07
2.99004e-05
-1.38091e-07
3.01125e-05
-6.4852e-07
3.02894e-05
-3.42347e-07
3.04397e-05
-2.27051e-07
3.05988e-05
-4.61902e-07
3.08492e-05
-6.96199e-07
3.11064e-05
-8.31492e-07
3.1311e-05
-1.07974e-06
3.15044e-05
-1.79374e-06
-2.54457e-06
3.19151e-05
2.5455e-05
-7.97268e-07
2.64735e-05
-2.01959e-06
2.73502e-05
-1.87058e-06
2.7945e-05
-1.1979e-06
2.82676e-05
-6.47541e-07
2.8574e-05
-7.12563e-07
2.88537e-05
-3.84926e-07
2.91785e-05
-5.56486e-07
2.94757e-05
-7.82144e-07
2.97618e-05
-4.80965e-07
2.99605e-05
-3.36821e-07
3.01717e-05
-8.5972e-07
3.03351e-05
-5.05709e-07
3.04835e-05
-3.7551e-07
3.06367e-05
-6.15023e-07
3.08894e-05
-9.48974e-07
3.11331e-05
-1.07517e-06
3.13386e-05
-1.28522e-06
3.16023e-05
-2.05741e-06
-2.96038e-06
3.20181e-05
2.55294e-05
-1.32662e-06
2.65819e-05
-3.07216e-06
2.74801e-05
-2.76878e-06
2.80283e-05
-1.74607e-06
2.834e-05
-9.59217e-07
2.8662e-05
-1.03458e-06
2.89515e-05
-6.74411e-07
2.92955e-05
-9.00519e-07
2.96053e-05
-1.09197e-06
2.98868e-05
-7.62412e-07
3.00713e-05
-5.21388e-07
3.0271e-05
-1.05938e-06
3.0418e-05
-6.52722e-07
3.05736e-05
-5.31124e-07
3.0729e-05
-7.70395e-07
3.09983e-05
-1.21825e-06
3.12164e-05
-1.29334e-06
3.15132e-05
-1.58198e-06
3.16899e-05
-2.23413e-06
-3.0852e-06
3.18147e-05
2.56547e-05
-1.98135e-06
2.6772e-05
-4.18941e-06
2.76629e-05
-3.65967e-06
2.80504e-05
-2.13361e-06
2.84434e-05
-1.35221e-06
2.88174e-05
-1.40859e-06
2.9147e-05
-1.00399e-06
2.95006e-05
-1.2541e-06
2.98227e-05
-1.41413e-06
3.00689e-05
-1.00859e-06
3.02243e-05
-6.76829e-07
3.03943e-05
-1.2293e-06
3.05543e-05
-8.12725e-07
3.07104e-05
-6.87254e-07
3.08982e-05
-9.5817e-07
3.11814e-05
-1.5015e-06
3.13291e-05
-1.44099e-06
3.1629e-05
-1.88187e-06
3.16736e-05
-2.27879e-06
-3.26904e-06
3.18575e-05
2.58463e-05
-2.8276e-06
2.70369e-05
-5.38003e-06
2.78246e-05
-4.4474e-06
2.8147e-05
-2.45602e-06
2.86548e-05
-1.85996e-06
2.90847e-05
-1.83852e-06
2.94553e-05
-1.37454e-06
2.97873e-05
-1.58611e-06
3.00538e-05
-1.68063e-06
3.01969e-05
-1.15172e-06
3.03448e-05
-8.24724e-07
3.04869e-05
-1.37139e-06
3.06607e-05
-9.86513e-07
3.07769e-05
-8.0344e-07
3.09393e-05
-1.12058e-06
3.10798e-05
-1.642e-06
3.10692e-05
-1.43043e-06
3.12086e-05
-2.0213e-06
3.12369e-05
-2.3071e-06
-3.29349e-06
3.12614e-05
2.6092e-05
-3.91956e-06
2.72873e-05
-6.57535e-06
2.79397e-05
-5.09983e-06
2.84194e-05
-2.93572e-06
2.89837e-05
-2.42425e-06
2.93335e-05
-2.18833e-06
2.96287e-05
-1.66972e-06
2.97973e-05
-1.75472e-06
2.98543e-05
-1.73761e-06
2.987e-05
-1.16747e-06
2.99366e-05
-8.91283e-07
2.989e-05
-1.3248e-06
2.99002e-05
-9.96771e-07
2.98654e-05
-7.68558e-07
2.98072e-05
-1.06239e-06
2.96226e-05
-1.45738e-06
2.94389e-05
-1.24676e-06
2.9264e-05
-1.84638e-06
2.89555e-05
-1.99859e-06
-2.87266e-06
2.85346e-05
2.63554e-05
-5.27493e-06
2.7515e-05
-7.73501e-06
2.7998e-05
-5.58281e-06
2.84712e-05
-3.40889e-06
2.86589e-05
-2.61199e-06
2.86088e-05
-2.13815e-06
2.85201e-05
-1.58103e-06
2.82555e-05
-1.49018e-06
2.7913e-05
-1.39508e-06
2.76622e-05
-9.16638e-07
2.74388e-05
-6.67935e-07
2.70814e-05
-9.67427e-07
2.68323e-05
-7.47634e-07
2.65949e-05
-5.31128e-07
2.62846e-05
-7.52141e-07
2.58742e-05
-1.04699e-06
2.55354e-05
-9.07955e-07
2.50333e-05
-1.34421e-06
2.45059e-05
-1.47125e-06
-2.23554e-06
2.38688e-05
2.66263e-05
-6.90124e-06
2.71355e-05
-8.24422e-06
2.67561e-05
-5.20344e-06
2.62878e-05
-2.94055e-06
2.55938e-05
-1.91796e-06
2.485e-05
-1.39441e-06
2.41934e-05
-9.24388e-07
2.35058e-05
-8.02593e-07
2.2868e-05
-7.57244e-07
2.24206e-05
-4.6928e-07
2.20439e-05
-2.91279e-07
2.15876e-05
-5.11065e-07
2.12475e-05
-4.07526e-07
2.09685e-05
-2.52187e-07
2.06101e-05
-3.93666e-07
2.01657e-05
-6.0268e-07
1.9776e-05
-5.18206e-07
1.91947e-05
-7.6288e-07
1.86092e-05
-8.85786e-07
-1.33815e-06
1.77118e-05
2.54616e-05
-7.36283e-06
2.32384e-05
-6.02107e-06
2.09776e-05
-2.94261e-06
1.93431e-05
-1.30607e-06
1.80687e-05
-6.43576e-07
1.70855e-05
-4.11163e-07
1.63872e-05
-2.2607e-07
1.578e-05
-1.95448e-07
1.52477e-05
-2.24895e-07
1.49025e-05
-1.24043e-07
1.46486e-05
-3.74327e-08
1.42968e-05
-1.5925e-07
1.40266e-05
-1.37322e-07
1.38313e-05
-5.69145e-08
1.35534e-05
-1.15719e-07
1.31741e-05
-2.23437e-07
1.28344e-05
-1.78468e-07
1.23399e-05
-2.68366e-07
1.17866e-05
-3.32528e-07
-4.94073e-07
1.09425e-05
1.76372e-05
1.16161e-05
8.67348e-06
7.36742e-06
6.72384e-06
6.31268e-06
6.08661e-06
5.89116e-06
5.66626e-06
5.54222e-06
5.50479e-06
5.34554e-06
5.20822e-06
5.1513e-06
5.03558e-06
4.81215e-06
4.63368e-06
4.36531e-06
4.03278e-06
3.53871e-06
6.13215e-06
-2.82052e-07
-2.73099e-07
6.74198e-06
-1.15303e-07
-4.94526e-07
7.43819e-06
3.19642e-08
-7.28177e-07
8.17856e-06
1.33499e-07
-8.73864e-07
9.03838e-06
2.52745e-07
-1.11257e-06
1.00008e-05
3.71947e-07
-1.33439e-06
1.10904e-05
4.12467e-07
-1.50205e-06
1.22857e-05
2.50843e-07
-1.44618e-06
1.34651e-05
-2.12454e-07
-9.66882e-07
1.44724e-05
-1.05193e-06
4.4613e-08
1.52443e-05
-2.18785e-06
1.41592e-06
1.57273e-05
-3.44761e-06
2.96468e-06
1.59497e-05
-4.68663e-06
4.46423e-06
1.59336e-05
-5.72587e-06
5.74193e-06
1.56817e-05
-6.41898e-06
6.67086e-06
1.5314e-05
-6.79573e-06
7.16346e-06
1.49834e-05
-6.84762e-06
7.17822e-06
1.47861e-05
-6.5743e-06
6.77158e-06
1.47053e-05
-5.97463e-06
6.05544e-06
1.4572e-05
-4.9547e-06
5.08802e-06
1.42573e-05
-3.58899e-06
3.90368e-06
1.37511e-05
-2.0652e-06
2.5714e-06
1.32848e-05
-6.77376e-07
1.14367e-06
1.30527e-05
5.04058e-07
-2.71941e-07
1.31899e-05
1.57989e-06
-1.71711e-06
1.37471e-05
2.36078e-06
-2.91797e-06
1.46762e-05
2.99303e-06
-3.92217e-06
1.58848e-05
3.60297e-06
-4.81153e-06
1.73012e-05
3.82856e-06
-5.24496e-06
1.87423e-05
3.99385e-06
-5.43497e-06
2.02239e-05
3.78218e-06
-5.26374e-06
2.16454e-05
3.18003e-06
-4.60155e-06
2.29302e-05
2.50429e-06
-3.78911e-06
2.41635e-05
1.23869e-06
-2.47199e-06
2.51571e-05
-1.23897e-08
-9.81194e-07
2.60128e-05
-1.41189e-06
5.56188e-07
2.6722e-05
-3.1875e-06
2.47831e-06
2.72123e-05
-4.74945e-06
4.25915e-06
2.77839e-05
-6.71863e-06
6.14705e-06
2.82562e-05
-8.41688e-06
7.94458e-06
2.88419e-05
-9.98232e-06
9.39659e-06
2.96736e-05
-1.20455e-05
1.12138e-05
3.04148e-05
-1.36268e-05
1.28855e-05
3.12262e-05
-1.51528e-05
1.43415e-05
3.18141e-05
-1.66958e-05
1.61078e-05
3.17593e-05
-1.748e-05
1.75348e-05
3.13317e-05
-1.81432e-05
1.85708e-05
3.04614e-05
-1.86338e-05
1.95041e-05
2.90457e-05
-1.837e-05
1.97857e-05
2.77907e-05
-1.81766e-05
1.94316e-05
2.71989e-05
-1.86064e-05
1.91982e-05
2.69679e-05
-1.90158e-05
1.92468e-05
2.69854e-05
-1.93877e-05
1.93702e-05
2.73707e-05
-2.01807e-05
1.97954e-05
2.78403e-05
-2.10081e-05
2.05384e-05
2.79581e-05
-2.11714e-05
2.10536e-05
2.76507e-05
-2.06073e-05
2.09147e-05
2.7322e-05
-1.98856e-05
2.02143e-05
2.74e-05
-1.93557e-05
1.92776e-05
2.79708e-05
-1.88578e-05
1.8287e-05
2.88257e-05
-1.80376e-05
1.71827e-05
2.96896e-05
-1.65782e-05
1.57143e-05
3.04215e-05
-1.45464e-05
1.38144e-05
3.10019e-05
-1.22017e-05
1.16213e-05
3.14075e-05
-9.50244e-06
9.09688e-06
3.16463e-05
-6.53964e-06
6.3008e-06
3.16755e-05
-3.577e-06
3.54782e-06
3.15177e-05
-6.44651e-07
8.02458e-07
3.10621e-05
2.48399e-06
-2.0284e-06
3.04112e-05
5.21191e-06
-4.56103e-06
2.96668e-05
7.5058e-06
-6.76146e-06
2.90946e-05
9.35376e-06
-8.78149e-06
2.86457e-05
1.09438e-05
-1.04949e-05
2.8169e-05
1.25084e-05
-1.20318e-05
2.75603e-05
1.39366e-05
-1.33279e-05
2.65659e-05
1.48865e-05
-1.38922e-05
2.51198e-05
1.498e-05
-1.35339e-05
2.34975e-05
1.41116e-05
-1.24893e-05
2.1986e-05
1.25614e-05
-1.10499e-05
2.07123e-05
1.07835e-05
-9.50983e-06
1.9693e-05
9.01366e-06
-7.99432e-06
1.88489e-05
7.44064e-06
-6.5965e-06
1.8206e-05
6.02292e-06
-5.38007e-06
1.76895e-05
4.96122e-06
-4.44469e-06
1.72995e-05
4.08398e-06
-3.69398e-06
1.67447e-05
3.64315e-06
-3.08832e-06
1.60919e-05
3.29273e-06
-2.64003e-06
1.51337e-05
3.48927e-06
-2.53101e-06
1.43406e-05
3.65981e-06
-2.86675e-06
1.34547e-05
4.35521e-06
-3.46933e-06
1.31233e-05
4.47647e-06
-4.14505e-06
1.26916e-05
4.94811e-06
-4.51636e-06
1.28935e-05
4.43665e-06
-4.63854e-06
1.27728e-05
4.55334e-06
-4.4327e-06
1.31665e-05
3.77212e-06
-4.16579e-06
1.30999e-05
3.86085e-06
-3.79425e-06
1.33954e-05
3.27282e-06
-3.5683e-06
1.32821e-05
3.2579e-06
-3.14465e-06
1.34118e-05
2.94642e-06
-3.07611e-06
1.32906e-05
2.51837e-06
-2.39713e-06
1.336e-05
2.39175e-06
-2.46117e-06
1.32928e-05
1.62954e-06
-1.56234e-06
1.34154e-05
1.5798e-06
-1.70243e-06
1.34373e-05
1.0153e-06
-1.03715e-06
1.36125e-05
9.46859e-07
-1.12214e-06
1.37035e-05
8.78777e-07
-9.69791e-07
1.38461e-05
7.82732e-07
-9.25235e-07
1.39447e-05
9.42833e-07
-1.04149e-06
1.39653e-05
9.35892e-07
-9.56531e-07
1.40274e-05
9.13533e-07
-9.75564e-07
1.39257e-05
1.05519e-06
-9.53565e-07
1.39366e-05
8.08416e-07
-8.19298e-07
1.37867e-05
9.3484e-07
-7.84942e-07
1.37752e-05
7.30361e-07
-7.18789e-07
1.36181e-05
6.66273e-07
-5.09219e-07
1.36413e-05
6.23588e-07
-6.46785e-07
1.34924e-05
4.73842e-07
-3.24909e-07
1.35367e-05
4.35757e-07
-4.80081e-07
1.34418e-05
4.06561e-07
-3.11642e-07
1.34658e-05
2.64886e-07
-2.88876e-07
1.33926e-05
3.65248e-07
-2.92078e-07
1.3477e-05
1.76799e-07
-2.61182e-07
1.33224e-05
3.00394e-07
-1.45811e-07
1.35005e-05
1.59695e-07
-3.37771e-07
1.33328e-05
2.03207e-07
-3.55308e-08
1.34541e-05
1.95824e-07
-3.17109e-07
1.33798e-05
1.39302e-07
-6.49904e-08
1.34502e-05
1.76841e-07
-2.47255e-07
1.33386e-05
1.97149e-07
-8.55605e-08
1.34964e-05
7.11615e-08
-2.2898e-07
1.33316e-05
2.78277e-07
-1.13451e-07
1.34655e-05
1.37946e-08
-1.47679e-07
1.33583e-05
2.94539e-07
-1.87336e-07
1.34947e-05
5.05245e-08
-1.86946e-07
1.32894e-05
2.07391e-07
-2.10869e-09
1.35363e-05
2.31791e-07
-4.7865e-07
1.33467e-05
3.95426e-08
1.50075e-07
1.34368e-05
2.84826e-07
-3.74944e-07
1.3387e-05
2.42117e-07
-1.92325e-07
1.35196e-05
-2.06503e-08
-1.1196e-07
1.32612e-05
4.49939e-07
-1.91529e-07
1.3551e-05
1.32865e-07
-4.22648e-07
1.33847e-05
1.76552e-07
-1.02766e-08
1.34318e-05
2.58935e-07
-3.06064e-07
1.33404e-05
4.85898e-07
-3.9445e-07
1.36229e-05
-5.36254e-08
-2.28874e-07
1.32364e-05
4.72212e-07
-8.5737e-08
1.35344e-05
4.81087e-07
-7.79124e-07
1.3436e-05
1.31411e-07
-3.29609e-08
1.3523e-05
3.31252e-07
-4.18285e-07
1.32564e-05
7.42413e-07
-4.75816e-07
1.36676e-05
1.92243e-07
-6.03396e-07
1.33766e-05
4.10743e-07
-1.19762e-07
1.35004e-05
6.53729e-07
-7.77517e-07
1.33659e-05
6.8366e-07
-5.4917e-07
1.37102e-05
2.44979e-07
-5.8926e-07
1.33182e-05
8.26639e-07
-4.3465e-07
1.35661e-05
7.32619e-07
-9.80584e-07
1.34389e-05
7.96149e-07
-6.6893e-07
1.3732e-05
4.72333e-07
-7.6541e-07
1.33047e-05
1.1298e-06
-7.025e-07
1.36472e-05
9.36335e-07
-1.27882e-06
1.35014e-05
9.88033e-07
-8.42264e-07
1.37478e-05
7.34743e-07
-9.81093e-07
1.3344e-05
1.5502e-06
-1.14642e-06
1.36985e-05
1.151e-06
-1.50554e-06
1.35404e-05
1.29488e-06
-1.13676e-06
1.37624e-05
1.15654e-06
-1.37852e-06
1.3447e-05
1.90223e-06
-1.58685e-06
1.36854e-05
1.50819e-06
-1.74659e-06
1.35921e-05
1.80267e-06
-1.7094e-06
1.37563e-05
1.65673e-06
-1.82089e-06
1.36366e-05
2.23432e-06
-2.11465e-06
1.36431e-05
2.09066e-06
-2.09715e-06
1.37411e-05
2.42258e-06
-2.52062e-06
1.37363e-05
2.34326e-06
-2.33838e-06
1.39401e-05
2.65218e-06
-2.85605e-06
1.3715e-05
2.87187e-06
-2.64672e-06
1.41193e-05
3.00829e-06
-3.41264e-06
1.37619e-05
3.46994e-06
-3.11255e-06
1.43183e-05
3.31615e-06
-3.87247e-06
1.40725e-05
3.87307e-06
-3.62727e-06
1.45647e-05
3.74272e-06
-4.23501e-06
1.41147e-05
4.8344e-06
-4.38436e-06
1.4522e-05
4.53088e-06
-4.93816e-06
1.45373e-05
5.18947e-06
-5.20476e-06
1.46203e-05
5.31768e-06
-5.40072e-06
1.49132e-05
5.94609e-06
-6.23902e-06
1.44816e-05
6.67527e-06
-6.24366e-06
1.50325e-05
6.81781e-06
-7.36865e-06
1.43437e-05
8.10194e-06
-7.41313e-06
1.48498e-05
8.02286e-06
-8.52899e-06
1.43802e-05
9.87281e-06
-9.40318e-06
1.42146e-05
1.01381e-05
-9.97254e-06
1.4402e-05
1.18429e-05
-1.20302e-05
1.36224e-05
1.36176e-05
-1.28381e-05
1.44207e-05
1.50944e-05
-1.58926e-05
1.30305e-05
1.99196e-05
-1.85294e-05
1.39656e-05
2.12812e-05
-2.22162e-05
3.13883e-05
-3.17455e-05
1.43228e-05
1.37745e-05
-3.66491e-07
1.41107e-05
-4.51528e-07
1.46126e-05
-4.69926e-07
1.51975e-05
-4.5139e-07
1.58267e-05
-3.76431e-07
1.65254e-05
-3.26745e-07
1.73334e-05
-3.95594e-07
1.82264e-05
-6.42136e-07
1.91452e-05
-1.13128e-06
1.99699e-05
-1.87659e-06
2.06354e-05
-2.85341e-06
2.10939e-05
-3.90607e-06
2.13275e-05
-4.92026e-06
2.13839e-05
-5.78225e-06
2.13043e-05
-6.33942e-06
2.11271e-05
-6.6185e-06
2.08523e-05
-6.57279e-06
2.04068e-05
-6.12885e-06
1.98135e-05
-5.38133e-06
1.9198e-05
-4.33919e-06
1.8772e-05
-3.16301e-06
1.86482e-05
-1.94137e-06
1.86369e-05
-6.661e-07
1.86934e-05
4.47603e-07
1.87637e-05
1.50958e-06
1.89133e-05
2.2112e-06
1.91992e-05
2.70716e-06
1.97226e-05
3.0795e-06
2.04678e-05
3.08336e-06
2.13558e-05
3.10589e-06
2.24364e-05
2.70156e-06
2.34967e-05
2.11976e-06
2.46116e-05
1.3894e-06
2.5743e-05
1.07274e-07
2.66237e-05
-8.93095e-07
2.7612e-05
-2.40026e-06
2.84335e-05
-4.00896e-06
2.92559e-05
-5.57184e-06
3.01596e-05
-7.62228e-06
3.0865e-05
-9.12231e-06
3.17741e-05
-1.08914e-05
3.2558e-05
-1.28295e-05
3.2968e-05
-1.40367e-05
3.32748e-05
-1.54597e-05
3.29228e-05
-1.63438e-05
3.19569e-05
-1.65141e-05
3.09113e-05
-1.70976e-05
2.94592e-05
-1.71816e-05
2.80098e-05
-1.69206e-05
2.74016e-05
-1.75684e-05
2.71864e-05
-1.83913e-05
2.68765e-05
-1.87059e-05
2.68088e-05
-1.932e-05
2.70309e-05
-2.04028e-05
2.6916e-05
-2.08932e-05
2.62519e-05
-2.05072e-05
2.55398e-05
-1.98952e-05
2.53692e-05
-1.9715e-05
2.59137e-05
-1.99001e-05
2.69004e-05
-1.98445e-05
2.78792e-05
-1.90164e-05
2.86376e-05
-1.73365e-05
2.9166e-05
-1.50747e-05
2.95295e-05
-1.25652e-05
2.98e-05
-9.77291e-06
2.99521e-05
-6.69182e-06
2.99957e-05
-3.62059e-06
2.99627e-05
-6.11641e-07
2.96576e-05
2.78909e-06
2.90213e-05
5.84827e-06
2.81506e-05
8.37642e-06
2.72217e-05
1.02827e-05
2.6496e-05
1.16695e-05
2.60626e-05
1.29418e-05
2.56123e-05
1.4387e-05
2.48229e-05
1.56759e-05
2.36448e-05
1.61582e-05
2.2222e-05
1.55344e-05
2.08032e-05
1.39802e-05
1.95024e-05
1.20843e-05
1.83545e-05
1.01616e-05
1.7386e-05
8.40908e-06
1.66851e-05
6.72384e-06
1.61931e-05
5.45324e-06
1.58531e-05
4.42395e-06
1.5413e-05
4.08324e-06
1.48504e-05
3.85538e-06
1.40418e-05
4.29786e-06
1.33064e-05
4.39517e-06
1.26217e-05
5.0399e-06
1.23268e-05
4.77141e-06
1.21839e-05
5.09103e-06
1.23523e-05
4.26819e-06
1.25148e-05
4.39085e-06
1.27864e-05
3.50055e-06
1.29205e-05
3.72676e-06
1.30903e-05
3.10301e-06
1.3088e-05
3.26014e-06
1.31593e-05
2.87513e-06
1.3071e-05
2.60674e-06
1.31497e-05
2.31297e-06
1.29917e-05
1.78759e-06
1.32232e-05
1.34827e-06
1.29688e-05
1.26973e-06
1.34049e-05
5.10721e-07
1.31357e-05
1.14799e-06
1.36092e-05
3.09246e-07
1.34603e-05
1.09177e-06
1.37394e-05
6.56716e-07
1.37194e-05
9.33622e-07
1.37925e-05
9.82038e-07
1.37417e-05
8.59268e-07
1.37988e-05
8.77732e-07
1.36008e-05
9.28328e-07
1.37398e-05
5.27241e-07
1.35069e-05
8.56548e-07
1.3605e-05
3.75675e-07
1.34923e-05
5.48534e-07
1.34995e-05
3.99303e-07
1.34434e-05
3.21049e-07
1.34843e-05
3.24322e-07
1.33719e-05
2.89133e-07
1.34742e-05
1.98152e-07
1.33759e-05
2.58002e-07
1.34468e-05
1.32337e-07
1.33862e-05
2.56414e-07
1.34678e-05
5.76643e-08
1.33598e-05
2.84842e-07
1.34768e-05
8.01269e-08
1.33763e-05
1.71667e-07
1.34474e-05
2.07193e-07
1.33888e-05
7.23686e-08
1.3454e-05
2.29404e-07
1.33747e-05
1.29782e-07
1.34389e-05
1.4318e-07
1.34015e-05
2.69215e-07
1.34294e-05
1.16506e-08
1.339e-05
3.24218e-07
1.34718e-05
1.60257e-07
1.33922e-05
5.90432e-08
1.34259e-05
4.16206e-07
1.34196e-05
1.39175e-07
1.34617e-05
1.34436e-07
1.33531e-05
3.67515e-07
1.3511e-05
3.27999e-07
1.34157e-05
4.1657e-08
1.34273e-05
4.60673e-07
1.34201e-05
4.8823e-07
1.35399e-05
1.1643e-08
1.33916e-05
4.79513e-07
1.34925e-05
6.4154e-07
1.35058e-05
1.78923e-07
1.35429e-05
3.73714e-07
1.33836e-05
8.12959e-07
1.36477e-05
4.19596e-07
1.35576e-05
3.35039e-07
1.35681e-05
8.16153e-07
1.34948e-05
8.05972e-07
1.38152e-05
4.75686e-07
1.3591e-05
6.96528e-07
1.36984e-05
1.02239e-06
1.36456e-05
9.89175e-07
1.40141e-05
6.19555e-07
1.36831e-05
1.06572e-06
1.39203e-05
1.31304e-06
1.38129e-05
1.25832e-06
1.42697e-05
8.38144e-07
1.38709e-05
1.55531e-06
1.41897e-05
1.58345e-06
1.39934e-05
1.70444e-06
1.45408e-05
1.25533e-06
1.41517e-05
2.04581e-06
1.44665e-05
1.91956e-06
1.41873e-05
2.36985e-06
1.47063e-05
1.90352e-06
1.44489e-05
2.60069e-06
1.4672e-05
2.42904e-06
1.4497e-05
3.0469e-06
1.46265e-05
2.87884e-06
1.4677e-05
3.41939e-06
1.47185e-05
3.2746e-06
1.50035e-05
3.58813e-06
1.44792e-05
4.267e-06
1.50185e-05
4.29508e-06
1.46772e-05
4.8722e-06
1.53126e-05
4.55404e-06
1.47367e-05
5.89358e-06
1.51017e-05
5.58115e-06
1.47899e-05
6.9871e-06
1.48955e-05
6.7122e-06
1.53023e-05
7.69512e-06
1.46745e-05
8.6506e-06
1.52478e-05
9.29954e-06
1.4395e-05
1.0991e-05
1.53069e-05
1.09309e-05
1.42503e-05
1.46742e-05
1.54926e-05
1.38521e-05
1.51673e-05
2.02449e-05
2.06866e-05
1.57618e-05
3.16349e-05
2.044e-05
2.02431e-05
-7.18607e-07
2.08158e-05
-1.02424e-06
2.13846e-05
-1.03873e-06
2.18778e-05
-9.44565e-07
2.23802e-05
-8.78836e-07
2.29138e-05
-8.60388e-07
2.35137e-05
-9.95489e-07
2.41644e-05
-1.29287e-06
2.47891e-05
-1.75591e-06
2.53495e-05
-2.43708e-06
2.57683e-05
-3.27219e-06
2.59993e-05
-4.137e-06
2.60687e-05
-4.98966e-06
2.59495e-05
-5.6631e-06
2.56772e-05
-6.06714e-06
2.52712e-05
-6.21251e-06
2.47682e-05
-6.06975e-06
2.42864e-05
-5.64704e-06
2.38773e-05
-4.97223e-06
2.36027e-05
-4.06459e-06
2.34403e-05
-3.0006e-06
2.33264e-05
-1.82747e-06
2.33759e-05
-7.15669e-07
2.35007e-05
3.22891e-07
2.36855e-05
1.32472e-06
2.3982e-05
1.91471e-06
2.42758e-05
2.41341e-06
2.47036e-05
2.65162e-06
2.52119e-05
2.57508e-06
2.57912e-05
2.52666e-06
2.65667e-05
1.92603e-06
2.72945e-05
1.39197e-06
2.81862e-05
4.97663e-07
2.90652e-05
-7.7168e-07
2.99107e-05
-1.73861e-06
3.08863e-05
-3.37586e-06
3.16415e-05
-4.76417e-06
3.25319e-05
-6.46223e-06
3.32535e-05
-8.34395e-06
3.37363e-05
-9.60503e-06
3.42911e-05
-1.14462e-05
3.42764e-05
-1.28148e-05
3.40005e-05
-1.37608e-05
3.34717e-05
-1.49309e-05
3.22082e-05
-1.50802e-05
3.09649e-05
-1.52708e-05
2.98117e-05
-1.59444e-05
2.84532e-05
-1.58231e-05
2.77473e-05
-1.62147e-05
2.76062e-05
-1.74274e-05
2.7003e-05
-1.7788e-05
2.63535e-05
-1.80564e-05
2.6273e-05
-1.92395e-05
2.6057e-05
-2.01868e-05
2.50837e-05
-1.992e-05
2.3887e-05
-1.93105e-05
2.33605e-05
-1.93688e-05
2.37007e-05
-2.00552e-05
2.45447e-05
-2.07441e-05
2.54382e-05
-2.0738e-05
2.6094e-05
-1.96722e-05
2.64422e-05
-1.76848e-05
2.66335e-05
-1.5266e-05
2.67988e-05
-1.27305e-05
2.69827e-05
-9.95672e-06
2.70641e-05
-6.77322e-06
2.70572e-05
-3.61377e-06
2.71167e-05
-6.71104e-07
2.7174e-05
2.73176e-06
2.68499e-05
6.17245e-06
2.60986e-05
9.12769e-06
2.52078e-05
1.11735e-05
2.43752e-05
1.25022e-05
2.37089e-05
1.36081e-05
2.32438e-05
1.48521e-05
2.27003e-05
1.62193e-05
2.18077e-05
1.70508e-05
2.06286e-05
1.67135e-05
1.93445e-05
1.52643e-05
1.81066e-05
1.33221e-05
1.70213e-05
1.12469e-05
1.61084e-05
9.32196e-06
1.53524e-05
7.47988e-06
1.47136e-05
6.09205e-06
1.4207e-05
4.93052e-06
1.36795e-05
4.61078e-06
1.32005e-05
4.33438e-06
1.25592e-05
4.93909e-06
1.21796e-05
4.77481e-06
1.16789e-05
5.54055e-06
1.1779e-05
4.67132e-06
1.15456e-05
5.32446e-06
1.20595e-05
3.75426e-06
1.1823e-05
4.62739e-06
1.24829e-05
2.84064e-06
1.21048e-05
4.10491e-06
1.27139e-05
2.49391e-06
1.23623e-05
3.6117e-06
1.27628e-05
2.47462e-06
1.26087e-05
2.76083e-06
1.2731e-05
2.19069e-06
1.27342e-05
1.78437e-06
1.26594e-05
1.42309e-06
1.27161e-05
1.213e-06
1.26806e-05
5.46233e-07
1.26608e-05
1.16783e-06
1.28856e-05
8.43921e-08
1.27086e-05
1.2688e-06
1.31183e-05
2.4705e-07
1.28869e-05
1.16495e-06
1.32049e-05
6.64056e-07
1.3057e-05
1.0072e-06
1.31896e-05
7.45079e-07
1.30569e-05
1.06104e-06
1.32106e-05
3.73593e-07
1.2939e-05
1.12809e-06
1.3253e-05
6.17129e-08
1.29203e-05
8.81223e-07
1.32241e-05
9.55442e-08
1.29932e-05
5.51915e-07
1.31939e-05
1.23658e-07
1.29882e-05
4.94758e-07
1.32331e-05
-4.6754e-08
1.29594e-05
5.31771e-07
1.32332e-05
-1.41459e-07
1.30253e-05
4.64268e-07
1.31786e-05
-9.55981e-08
1.30359e-05
4.27535e-07
1.31975e-05
-8.14485e-08
1.29701e-05
3.9905e-07
1.32352e-05
-5.79535e-08
1.29849e-05
3.22657e-07
1.32054e-05
8.94803e-09
1.3025e-05
3.10133e-07
1.31764e-05
-8.15565e-09
1.30026e-05
4.42971e-07
1.3182e-05
-1.67751e-07
1.29828e-05
5.23397e-07
1.31764e-05
-3.3304e-08
1.29944e-05
2.41075e-07
1.31708e-05
2.39803e-07
1.29931e-05
3.1683e-07
1.31733e-05
-4.57253e-08
1.29942e-05
5.46574e-07
1.31439e-05
1.78289e-07
1.30173e-05
1.68326e-07
1.31642e-05
3.13729e-07
1.29794e-05
6.73053e-07
1.31421e-05
-1.51086e-07
1.29956e-05
6.25995e-07
1.31163e-05
5.20883e-07
1.29805e-05
3.14659e-07
1.31486e-05
2.05656e-07
1.29702e-05
9.91382e-07
1.30957e-05
2.94105e-07
1.29815e-05
4.49167e-07
1.31157e-05
6.82019e-07
1.29938e-05
9.27864e-07
1.30996e-05
3.69873e-07
1.29887e-05
8.07396e-07
1.30982e-05
9.12962e-07
1.3061e-05
1.02638e-06
1.31062e-05
5.74309e-07
1.30575e-05
1.11446e-06
1.31127e-05
1.25777e-06
1.32096e-05
1.16146e-06
1.31908e-05
8.56984e-07
1.32505e-05
1.49553e-06
1.32008e-05
1.63322e-06
1.35181e-05
1.3871e-06
1.3409e-05
1.36446e-06
1.3666e-05
1.78884e-06
1.34483e-05
2.13723e-06
1.40395e-05
1.77859e-06
1.3805e-05
2.13806e-06
1.43138e-05
2.09186e-06
1.39512e-05
2.79171e-06
1.46487e-05
2.34937e-06
1.42562e-05
3.2713e-06
1.49597e-05
2.71589e-06
1.46804e-05
3.55391e-06
1.50318e-05
3.23674e-06
1.48044e-05
4.4944e-06
1.51943e-05
3.90522e-06
1.53903e-05
4.67617e-06
1.50912e-05
4.85315e-06
1.5621e-05
5.36382e-06
1.5051e-05
6.15114e-06
1.59624e-05
6.07562e-06
1.54345e-05
7.24015e-06
1.61858e-05
6.94384e-06
1.55142e-05
9.3222e-06
1.66866e-05
8.12712e-06
1.60446e-05
1.1633e-05
1.75932e-05
9.38227e-06
1.67595e-05
1.55079e-05
2.00443e-05
1.05673e-05
1.80512e-05
2.22381e-05
2.38379e-05
9.97509e-06
2.916e-05
2.63128e-05
2.65491e-05
-7.76653e-07
2.66363e-05
-1.11144e-06
2.6865e-05
-1.26738e-06
2.71966e-05
-1.27617e-06
2.75544e-05
-1.23669e-06
2.79477e-05
-1.25365e-06
2.83798e-05
-1.42756e-06
2.88219e-05
-1.73503e-06
2.91931e-05
-2.12711e-06
2.94875e-05
-2.73146e-06
2.96764e-05
-3.46111e-06
2.96571e-05
-4.11769e-06
2.95022e-05
-4.83467e-06
2.91992e-05
-5.36018e-06
2.87559e-05
-5.62384e-06
2.82677e-05
-5.72425e-06
2.77263e-05
-5.52839e-06
2.72291e-05
-5.14986e-06
2.67534e-05
-4.49654e-06
2.63657e-05
-3.67688e-06
2.61886e-05
-2.82345e-06
2.60986e-05
-1.73745e-06
2.62009e-05
-8.18009e-07
2.64486e-05
7.51563e-08
2.67885e-05
9.84888e-07
2.72789e-05
1.42428e-06
2.77391e-05
1.95324e-06
2.83313e-05
2.05941e-06
2.89048e-05
2.00159e-06
2.95623e-05
1.86916e-06
3.02596e-05
1.22865e-06
3.08559e-05
7.95724e-07
3.16921e-05
-3.38511e-07
3.23094e-05
-1.389e-06
3.30683e-05
-2.49757e-06
3.37272e-05
-4.0347e-06
3.42085e-05
-5.24547e-06
3.48046e-05
-7.05835e-06
3.48495e-05
-8.38887e-06
3.48738e-05
-9.62935e-06
3.47373e-05
-1.13097e-05
3.39958e-05
-1.20733e-05
3.33487e-05
-1.31137e-05
3.2294e-05
-1.38762e-05
3.09976e-05
-1.37838e-05
3.02529e-05
-1.45261e-05
2.92611e-05
-1.49526e-05
2.83163e-05
-1.48783e-05
2.80623e-05
-1.59608e-05
2.73495e-05
-1.67146e-05
2.61581e-05
-1.65966e-05
2.56671e-05
-1.75654e-05
2.53602e-05
-1.89326e-05
2.40978e-05
-1.89243e-05
2.23607e-05
-1.81829e-05
2.13445e-05
-1.82942e-05
2.1404e-05
-1.94283e-05
2.19936e-05
-2.06449e-05
2.26224e-05
-2.13729e-05
2.3101e-05
-2.12166e-05
2.33389e-05
-1.99101e-05
2.33616e-05
-1.77075e-05
2.33579e-05
-1.52623e-05
2.34318e-05
-1.28044e-05
2.34886e-05
-1.00135e-05
2.34693e-05
-6.75389e-06
2.33991e-05
-3.54353e-06
2.34203e-05
-6.92342e-07
2.36251e-05
2.52696e-06
2.36307e-05
6.16686e-06
2.32632e-05
9.49519e-06
2.25754e-05
1.18613e-05
2.18144e-05
1.32632e-05
2.12148e-05
1.42077e-05
2.07254e-05
1.53416e-05
2.02116e-05
1.67331e-05
1.95576e-05
1.77048e-05
1.86585e-05
1.76125e-05
1.75976e-05
1.63251e-05
1.65418e-05
1.43779e-05
1.56396e-05
1.21491e-05
1.48721e-05
1.00895e-05
1.42037e-05
8.14827e-06
1.34486e-05
6.84709e-06
1.28075e-05
5.57165e-06
1.20901e-05
5.32817e-06
1.17283e-05
4.69624e-06
1.11472e-05
5.52021e-06
1.11666e-05
4.75539e-06
1.07187e-05
5.98844e-06
1.11548e-05
4.23519e-06
1.08472e-05
5.63206e-06
1.15486e-05
3.05288e-06
1.13239e-05
4.85214e-06
1.20596e-05
2.10487e-06
1.19308e-05
4.23372e-06
1.25977e-05
1.82701e-06
1.24919e-05
3.71746e-06
1.31983e-05
1.76828e-06
1.28747e-05
3.08437e-06
1.36048e-05
1.46066e-06
1.30481e-05
2.34106e-06
1.35635e-05
9.07719e-07
1.3022e-05
1.75446e-06
1.32934e-05
2.74797e-07
1.29272e-05
1.53406e-06
1.31748e-05
-1.63183e-07
1.29435e-05
1.50008e-06
1.32966e-05
-1.06083e-07
1.30964e-05
1.36519e-06