/*--------------------------------*- C++ -*----------------------------------*\
| =========                 |                                                 |
| \\      /  F ield         | OpenFOAM: The Open Source CFD Toolbox           |
|  \\    /   O peration     | Version:  2.4.0                                 |
|   \\  /    A nd           | Web:      www.OpenFOAM.org                      |
|    \\/     M anipulation  |                                                 |
\*---------------------------------------------------------------------------*/
FoamFile
{
    version     2.0;
    format      ascii;
    class       volVectorField;
    location    "0.06";
    object      U_0;
}
// * * * * * * * * * * * * * * * * * * * * * * * * * * * * * * * * * * * * * //

dimensions      [0 1 -1 0 0 0 0];

internalField   nonuniform List<vector> 
8800
(
(8.0921 0.388079 0)
(5.44731 0.242568 0)
(3.91534 0.0425991 0)
(3.15707 -0.0150618 0)
(2.79774 -0.0179273 0)
(2.60454 -0.0124801 0)
(2.48173 -0.00434817 0)
(2.37777 -0.00152346 0)
(2.32404 -0.00398094 0)
(2.25527 0.000208826 0)
(2.22206 0.000836239 0)
(2.17166 -0.00223449 0)
(2.16887 -0.00099028 0)
(2.11753 0.00204487 0)
(2.1158 -0.00136532 0)
(2.07438 -0.000386553 0)
(2.08932 -0.000671751 0)
(2.04175 -0.000250864 0)
(2.07998 0.00805087 0)
(1.90115 -0.0540702 0)
(10.0831 0.839059 0)
(9.65251 0.866713 0)
(8.88051 0.505668 0)
(8.08089 0.264495 0)
(7.4858 0.137671 0)
(7.02512 0.0782147 0)
(6.6823 0.0587632 0)
(6.39796 0.0413579 0)
(6.2444 0.0231435 0)
(6.01597 0.026195 0)
(5.94124 0.0221712 0)
(5.78931 0.00954874 0)
(5.75686 0.0110794 0)
(5.60934 0.0182269 0)
(5.62963 0.00661288 0)
(5.48365 0.00744877 0)
(5.53111 0.00831994 0)
(5.3931 0.00445038 0)
(5.46831 0.00843136 0)
(5.34475 -0.0787233 0)
(10.0581 0.634245 0)
(10.6485 0.859828 0)
(10.8796 0.598876 0)
(10.6938 0.37965 0)
(10.442 0.253032 0)
(10.113 0.19116 0)
(9.81967 0.164017 0)
(9.48652 0.119229 0)
(9.34559 0.0849241 0)
(9.01784 0.0817448 0)
(8.94064 0.061459 0)
(8.71646 0.0384013 0)
(8.67838 0.0394533 0)
(8.44411 0.0423947 0)
(8.50287 0.0228565 0)
(8.26639 0.0244622 0)
(8.35094 0.0190322 0)
(8.13508 0.0226178 0)
(8.23953 0.00121661 0)
(8.07972 -0.0227585 0)
(9.99811 0.462519 0)
(10.5475 0.698796 0)
(11.1731 0.540673 0)
(11.3987 0.365424 0)
(11.5367 0.255239 0)
(11.4797 0.21678 0)
(11.486 0.220377 0)
(11.2773 0.169174 0)
(11.323 0.13241 0)
(11.0684 0.139295 0)
(11.0877 0.105255 0)
(10.8819 0.0731191 0)
(10.909 0.0790155 0)
(10.6528 0.0766401 0)
(10.7551 0.043591 0)
(10.4952 0.0527929 0)
(10.6091 0.0320924 0)
(10.3686 0.048413 0)
(10.5014 -0.0102312 0)
(10.3032 0.0107369 0)
(10.0447 0.357426 0)
(10.3862 0.558357 0)
(11.0169 0.448309 0)
(11.3441 0.309236 0)
(11.6611 0.209298 0)
(11.6788 0.175416 0)
(11.8888 0.206219 0)
(11.8014 0.15999 0)
(11.9703 0.123895 0)
(11.8863 0.149387 0)
(12.0395 0.113557 0)
(11.9527 0.0778505 0)
(12.0699 0.0940007 0)
(11.9404 0.0950858 0)
(12.0567 0.053363 0)
(11.909 0.0656199 0)
(12.0154 0.0440502 0)
(11.8897 0.052011 0)
(11.9879 -0.0144452 0)
(11.8625 -0.052026 0)
(10.0514 0.263053 0)
(10.3277 0.452611 0)
(10.8556 0.360404 0)
(11.1909 0.253529 0)
(11.5462 0.163171 0)
(11.6186 0.137578 0)
(11.82 0.17431 0)
(11.8379 0.140075 0)
(11.9482 0.094859 0)
(11.9695 0.126674 0)
(12.1322 0.0882325 0)
(12.1731 0.0601472 0)
(12.2973 0.079353 0)
(12.3364 0.0890929 0)
(12.423 0.0437364 0)
(12.4137 0.0596649 0)
(12.484 0.0345971 0)
(12.4856 0.0349025 0)
(12.5563 -0.0464856 0)
(12.5111 -0.0987547 0)
(10.0176 0.185827 0)
(10.3064 0.351238 0)
(10.7447 0.27677 0)
(11.0971 0.204847 0)
(11.4005 0.122168 0)
(11.5546 0.0970824 0)
(11.6999 0.134071 0)
(11.7992 0.117889 0)
(11.8634 0.0769793 0)
(11.9171 0.102789 0)
(12.0218 0.0609507 0)
(12.1068 0.0309433 0)
(12.2052 0.053304 0)
(12.3135 0.0657618 0)
(12.3948 0.0329013 0)
(12.4493 0.039939 0)
(12.4896 0.0236508 0)
(12.5413 0.00111471 0)
(12.5769 -0.0761202 0)
(12.5457 -0.162661 0)
(10.0001 0.124081 0)
(10.2743 0.248786 0)
(10.6709 0.194614 0)
(11.0345 0.153632 0)
(11.3148 0.083734 0)
(11.496 0.0612668 0)
(11.6157 0.0987057 0)
(11.7241 0.0884552 0)
(11.8079 0.0521988 0)
(11.8787 0.075633 0)
(11.9615 0.0462683 0)
(12.034 0.00870029 0)
(12.1229 0.0306452 0)
(12.2164 0.0380217 0)
(12.3135 0.0150216 0)
(12.3746 0.0167172 0)
(12.4239 0.00710926 0)
(12.4957 -0.0270062 0)
(12.5158 -0.100357 0)
(12.4679 -0.202943 0)
(9.99915 0.0739559 0)
(10.2433 0.146732 0)
(10.6231 0.112376 0)
(10.9913 0.094589 0)
(11.2703 0.0511417 0)
(11.4593 0.0317626 0)
(11.5705 0.063775 0)
(11.6649 0.0561139 0)
(11.7648 0.0252799 0)
(11.844 0.0540918 0)
(11.9243 0.0287483 0)
(12.0016 -0.0146035 0)
(12.0869 0.0111888 0)
(12.1575 0.0213683 0)
(12.2505 -0.00506647 0)
(12.3059 -0.00529116 0)
(12.3782 -0.0199392 0)
(12.4458 -0.0505348 0)
(12.4725 -0.127891 0)
(12.4014 -0.206304 0)
(10.0007 0.0295739 0)
(10.2267 0.0477915 0)
(10.5994 0.0293827 0)
(10.9698 0.032275 0)
(11.2454 0.016317 0)
(11.4475 0.00395288 0)
(11.5552 0.0351712 0)
(11.6303 0.0233866 0)
(11.7388 -0.00548159 0)
(11.8251 0.0228422 0)
(11.9016 0.0141702 0)
(11.9928 -0.0327594 0)
(12.0694 -0.00561126 0)
(12.1353 -0.000342877 0)
(12.217 -0.022576 0)
(12.2723 -0.0313363 0)
(12.3524 -0.043424 0)
(12.4093 -0.077493 0)
(12.4412 -0.15114 0)
(12.3429 -0.206644 0)
(10.0013 -0.012728 0)
(10.2224 -0.0497652 0)
(10.601 -0.0559342 0)
(10.9747 -0.0289223 0)
(11.2414 -0.0157236 0)
(11.4515 -0.0250763 0)
(11.5576 0.00315089 0)
(11.6237 -0.00863494 0)
(11.739 -0.0317283 0)
(11.8239 -0.00448911 0)
(11.8932 -0.00739415 0)
(12.0018 -0.0556711 0)
(12.0755 -0.0224032 0)
(12.1372 -0.0148239 0)
(12.2047 -0.03773 0)
(12.2664 -0.0569829 0)
(12.3446 -0.0697914 0)
(12.4017 -0.10198 0)
(12.4063 -0.169871 0)
(12.3465 -0.23017 0)
(10.0011 -0.0566919 0)
(10.2299 -0.148316 0)
(10.6287 -0.13998 0)
(11.0041 -0.0913226 0)
(11.2617 -0.0510812 0)
(11.4751 -0.0536528 0)
(11.576 -0.0217374 0)
(11.6342 -0.0409185 0)
(11.7608 -0.065675 0)
(11.8488 -0.0317993 0)
(11.9155 -0.0257875 0)
(12.0258 -0.0751682 0)
(12.0989 -0.0411088 0)
(12.1521 -0.0292917 0)
(12.2161 -0.0550287 0)
(12.2864 -0.0815512 0)
(12.3576 -0.0961689 0)
(12.416 -0.119635 0)
(12.4152 -0.197578 0)
(12.4173 -0.273608 0)
(10.0028 -0.104797 0)
(10.2488 -0.251484 0)
(10.689 -0.227079 0)
(11.0599 -0.148508 0)
(11.3054 -0.0830222 0)
(11.5092 -0.0852299 0)
(11.6072 -0.0504262 0)
(11.6695 -0.0730826 0)
(11.8162 -0.0929034 0)
(11.9022 -0.0610552 0)
(11.9662 -0.0462341 0)
(12.0621 -0.0969205 0)
(12.1417 -0.0551067 0)
(12.1815 -0.0425965 0)
(12.2467 -0.0687003 0)
(12.338 -0.106712 0)
(12.3968 -0.118908 0)
(12.4653 -0.143202 0)
(12.5038 -0.232861 0)
(12.3832 -0.295042 0)
(10.017 -0.163322 0)
(10.2799 -0.356392 0)
(10.7998 -0.316651 0)
(11.1165 -0.198108 0)
(11.3679 -0.116715 0)
(11.5508 -0.11723 0)
(11.6802 -0.0795625 0)
(11.7331 -0.109068 0)
(11.9123 -0.125344 0)
(11.9788 -0.0897191 0)
(12.0465 -0.0632952 0)
(12.1 -0.114716 0)
(12.2093 -0.0687831 0)
(12.2275 -0.0604687 0)
(12.3068 -0.0863749 0)
(12.4221 -0.134379 0)
(12.4728 -0.137856 0)
(12.5083 -0.176098 0)
(12.5671 -0.231937 0)
(12.318 -0.311865 0)
(10.0441 -0.238132 0)
(10.3367 -0.467567 0)
(10.9426 -0.40272 0)
(11.1437 -0.22975 0)
(11.4816 -0.156384 0)
(11.6128 -0.157107 0)
(11.8116 -0.116226 0)
(11.8163 -0.147217 0)
(12.0462 -0.157108 0)
(12.0213 -0.109186 0)
(12.1249 -0.0774587 0)
(12.1137 -0.134607 0)
(12.2876 -0.0885837 0)
(12.2379 -0.0750686 0)
(12.3574 -0.106418 0)
(12.396 -0.162971 0)
(12.4416 -0.144329 0)
(12.3569 -0.19538 0)
(12.4394 -0.231264 0)
(12.1522 -0.364444 0)
(10.0514 -0.337336 0)
(10.4397 -0.584808 0)
(11.0392 -0.47151 0)
(11.2373 -0.265853 0)
(11.6498 -0.216484 0)
(11.6859 -0.203043 0)
(11.8977 -0.154964 0)
(11.8293 -0.176933 0)
(12.0203 -0.181155 0)
(11.883 -0.120473 0)
(12.0199 -0.0929545 0)
(11.8876 -0.145461 0)
(12.0452 -0.105313 0)
(11.8795 -0.0844085 0)
(11.9933 -0.117059 0)
(11.8359 -0.16195 0)
(11.8655 -0.132864 0)
(11.6461 -0.199556 0)
(11.6714 -0.219522 0)
(11.2017 -0.317601 0)
(10.0253 -0.454152 0)
(10.5773 -0.714864 0)
(11.1303 -0.544821 0)
(11.3588 -0.336727 0)
(11.5793 -0.274592 0)
(11.4463 -0.234882 0)
(11.5156 -0.181577 0)
(11.3005 -0.183315 0)
(11.2991 -0.172241 0)
(11.054 -0.114522 0)
(11.0927 -0.091025 0)
(10.8137 -0.124559 0)
(10.8692 -0.0926083 0)
(10.61 -0.0703616 0)
(10.6488 -0.0964629 0)
(10.3523 -0.126964 0)
(10.3674 -0.109117 0)
(10.0288 -0.161675 0)
(9.97519 -0.170741 0)
(9.46932 -0.27778 0)
(10.0746 -0.63048 0)
(10.6579 -0.86619 0)
(10.8477 -0.601997 0)
(10.706 -0.366578 0)
(10.463 -0.261909 0)
(10.0671 -0.200882 0)
(9.86197 -0.14316 0)
(9.48645 -0.125587 0)
(9.30622 -0.110705 0)
(9.01067 -0.0695171 0)
(8.94589 -0.0487765 0)
(8.64656 -0.072249 0)
(8.63583 -0.0543501 0)
(8.37964 -0.0376028 0)
(8.38064 -0.0571749 0)
(8.07868 -0.0801177 0)
(8.07711 -0.0707645 0)
(7.71828 -0.10468 0)
(7.65408 -0.120576 0)
(7.1423 -0.186062 0)
(10.0891 -0.838055 0)
(9.65788 -0.868765 0)
(8.86203 -0.507588 0)
(8.09496 -0.258002 0)
(7.49282 -0.140389 0)
(6.99409 -0.086411 0)
(6.71042 -0.0481516 0)
(6.39302 -0.0402017 0)
(6.21693 -0.0398624 0)
(6.00108 -0.0216403 0)
(5.94106 -0.0110943 0)
(5.73944 -0.0290998 0)
(5.70635 -0.0225874 0)
(5.53255 -0.0127304 0)
(5.52052 -0.024719 0)
(5.29447 -0.0396981 0)
(5.26578 -0.0344775 0)
(4.9815 -0.0510285 0)
(4.91299 -0.0637276 0)
(4.45461 -0.0926352 0)
(8.09189 -0.387895 0)
(5.45072 -0.242355 0)
(3.90749 -0.043424 0)
(3.16052 0.0162806 0)
(2.80306 0.0180246 0)
(2.59158 0.00948631 0)
(2.48433 0.00752992 0)
(2.38244 0.00292616 0)
(2.31467 -0.00149762 0)
(2.23248 0.00100712 0)
(2.2204 0.00353804 0)
(2.15429 -0.00285342 0)
(2.12373 -0.00184321 0)
(2.06077 0.00119024 0)
(2.05248 -0.00153152 0)
(1.95329 -0.00571721 0)
(1.91136 -0.00268391 0)
(1.78415 -0.00605562 0)
(1.71489 -0.00839019 0)
(1.47485 0.00666144 0)
(2.39018 -0.124794 0)
(2.60931 -0.0276761 0)
(2.80661 0.0581408 0)
(3.10809 0.103236 0)
(3.41773 0.15922 0)
(3.77321 0.215072 0)
(4.15836 0.247138 0)
(4.60263 0.212454 0)
(5.07635 0.0537445 0)
(5.542 -0.239259 0)
(5.95194 -0.64113 0)
(6.244 -1.09526 0)
(6.4072 -1.54725 0)
(6.45854 -1.92117 0)
(6.3789 -2.19409 0)
(6.22557 -2.34485 0)
(6.07652 -2.3604 0)
(5.95906 -2.24928 0)
(5.9123 -2.01604 0)
(5.84796 -1.65055 0)
(5.73888 -1.17897 0)
(5.51769 -0.675142 0)
(5.27429 -0.241308 0)
(5.14531 0.117219 0)
(5.12745 0.475537 0)
(5.3032 0.768988 0)
(5.61807 1.03553 0)
(6.05267 1.29322 0)
(6.60154 1.41902 0)
(7.16777 1.4946 0)
(7.77253 1.43431 0)
(8.39932 1.24483 0)
(8.90207 1.00236 0)
(9.46052 0.564061 0)
(9.93202 0.117694 0)
(10.2771 -0.388572 0)
(10.6602 -1.02471 0)
(10.818 -1.59465 0)
(11.0746 -2.23863 0)
(11.3058 -2.78985 0)
(11.4273 -3.25924 0)
(11.8034 -3.8942 0)
(12.118 -4.42375 0)
(12.3842 -4.91688 0)
(12.7284 -5.49136 0)
(12.7911 -5.88152 0)
(12.6164 -6.18542 0)
(12.3792 -6.46269 0)
(11.8655 -6.44732 0)
(11.2485 -6.28343 0)
(10.9279 -6.29407 0)
(10.7972 -6.41901 0)
(10.7356 -6.55111 0)
(10.8311 -6.77064 0)
(11.0297 -7.0559 0)
(11.1805 -7.16189 0)
(11.126 -6.99281 0)
(10.9322 -6.66822 0)
(10.8876 -6.33844 0)
(11.0496 -6.05399 0)
(11.3541 -5.72719 0)
(11.7742 -5.24629 0)
(12.067 -4.58648 0)
(12.3121 -3.82122 0)
(12.583 -2.97016 0)
(12.6954 -2.0153 0)
(12.7397 -1.08639 0)
(12.7312 -0.135614 0)
(12.6074 0.86215 0)
(12.3692 1.6858 0)
(12.0364 2.38588 0)
(11.7629 3.01477 0)
(11.5958 3.55244 0)
(11.4214 4.1072 0)
(11.2023 4.58034 0)
(10.844 4.79334 0)
(10.269 4.7118 0)
(9.58815 4.35035 0)
(8.93577 3.82225 0)
(8.39182 3.26914 0)
(7.94902 2.73043 0)
(7.60017 2.23931 0)
(7.2983 1.82536 0)
(7.11103 1.51766 0)
(6.92043 1.27133 0)
(6.797 1.09552 0)
(6.47521 0.973699 0)
(6.23225 0.999961 0)
(5.72529 1.11572 0)
(5.58485 1.34845 0)
(5.09605 1.47005 0)
(5.30807 1.61276 0)
(4.85423 1.48654 0)
(5.41401 1.51691 0)
(4.86744 1.25042 0)
(5.62498 1.30368 0)
(4.9267 1.06091 0)
(5.73088 1.08772 0)
(4.95002 0.957847 0)
(5.71661 0.776668 0)
(4.94819 0.835994 0)
(5.70696 0.390845 0)
(4.93663 0.666408 0)
(5.80192 0.141261 0)
(4.95009 0.508476 0)
(5.96197 0.142073 0)
(5.01035 0.398833 0)
(6.08352 0.268691 0)
(5.07109 0.331379 0)
(6.11597 0.331431 0)
(5.07675 0.308506 0)
(6.08578 0.270936 0)
(5.01411 0.304549 0)
(6.04306 0.181041 0)
(4.92528 0.246628 0)
(5.99699 0.165542 0)
(4.87143 0.126295 0)
(5.94723 0.192382 0)
(4.84237 0.047698 0)
(5.94264 0.154033 0)
(4.78349 0.0737882 0)
(5.97705 0.0704866 0)
(4.75033 0.096949 0)
(5.95897 0.063553 0)
(4.7903 0.037758 0)
(5.92233 0.113451 0)
(4.79111 0.0009318 0)
(5.96424 0.0965973 0)
(4.73806 0.0441287 0)
(5.99127 0.0463694 0)
(4.7474 0.0671783 0)
(5.97387 0.0459154 0)
(4.7394 0.0511518 0)
(6.00935 0.0683748 0)
(4.71916 0.0204659 0)
(5.97484 0.122519 0)
(4.7966 -0.0228029 0)
(5.93244 0.136939 0)
(4.75545 0.0376676 0)
(6.02977 0.057976 0)
(4.7005 0.0858846 0)
(5.98723 0.10217 0)
(4.78129 0.0302716 0)
(5.9952 0.114781 0)
(4.66533 0.126402 0)
(6.10511 0.0459477 0)
(4.69886 0.0995086 0)
(5.96156 0.202926 0)
(4.79908 0.0265147 0)
(6.02747 0.158861 0)
(4.69104 0.180231 0)
(6.01614 0.144706 0)
(4.83121 0.103565 0)
(5.94384 0.241122 0)
(4.76196 0.199919 0)
(6.04624 0.156689 0)
(4.80833 0.224472 0)
(5.93931 0.263795 0)
(4.81308 0.277481 0)
(6.0567 0.19316 0)
(4.80846 0.338762 0)
(5.92581 0.324049 0)
(4.91027 0.3741 0)
(5.98361 0.235229 0)
(4.91577 0.517776 0)
(5.82966 0.355786 0)
(5.07658 0.524258 0)
(5.81072 0.321257 0)
(5.14323 0.694922 0)
(5.64235 0.408346 0)
(5.29865 0.750806 0)
(5.57733 0.431042 0)
(5.44537 0.875597 0)
(5.41464 0.535507 0)
(5.5626 0.996525 0)
(5.35515 0.633804 0)
(5.73526 1.06517 0)
(5.28872 0.810866 0)
(5.81574 1.17135 0)
(5.32573 1.05462 0)
(5.8272 1.24117 0)
(5.49766 1.2999 0)
(5.87515 1.23882 0)
(5.67507 1.70576 0)
(5.6381 1.39372 0)
(6.01146 1.96519 0)
(5.55836 1.56172 0)
(6.25814 2.23743 0)
(5.50362 1.9968 0)
(6.25452 2.38663 0)
(5.59876 2.65874 0)
(6.04197 2.4734 0)
(5.80372 3.44245 0)
(5.79905 2.86106 0)
(5.73345 3.98566 0)
(6.01171 4.30071 0)
(5.24748 4.69811 0)
(5.90995 6.28379 0)
(6.07791 7.39255 0)
(4.01539 10.4065 0)
(5.51627 -0.103758 0)
(5.62351 -0.0741262 0)
(5.74522 -0.047513 0)
(5.93623 -0.026985 0)
(6.16391 -0.00369754 0)
(6.42734 0.0097466 0)
(6.71765 -0.00403376 0)
(7.04789 -0.0788827 0)
(7.41317 -0.241239 0)
(7.78961 -0.495738 0)
(8.13739 -0.838944 0)
(8.39571 -1.2086 0)
(8.56808 -1.57242 0)
(8.62122 -1.88918 0)
(8.60634 -2.08638 0)
(8.53096 -2.18616 0)
(8.44194 -2.17684 0)
(8.27832 -2.05287 0)
(8.03297 -1.837 0)
(7.73285 -1.51335 0)
(7.49066 -1.11959 0)
(7.40099 -0.659198 0)
(7.39562 -0.177356 0)
(7.40392 0.213444 0)
(7.40864 0.546257 0)
(7.48361 0.765856 0)
(7.535 0.922456 0)
(7.7059 1.04054 0)
(7.99605 1.04796 0)
(8.27817 1.06779 0)
(8.73818 0.951509 0)
(9.19877 0.750477 0)
(9.57997 0.519814 0)
(10.1419 0.121916 0)
(10.5065 -0.241252 0)
(10.8965 -0.759571 0)
(11.3113 -1.33634 0)
(11.5524 -1.83984 0)
(12.0137 -2.47504 0)
(12.285 -2.95932 0)
(12.5881 -3.48936 0)
(13.0343 -4.13606 0)
(13.1871 -4.56183 0)
(13.3396 -5.05865 0)
(13.3495 -5.49159 0)
(12.9596 -5.68533 0)
(12.5464 -5.93521 0)
(12.0764 -6.03104 0)
(11.3532 -5.8932 0)
(10.9826 -5.95728 0)
(10.9268 -6.22463 0)
(10.771 -6.36486 0)
(10.6551 -6.52689 0)
(10.7337 -6.87252 0)
(10.8116 -7.10647 0)
(10.6271 -7.00552 0)
(10.2798 -6.70213 0)
(10.0749 -6.49663 0)
(10.1763 -6.44654 0)
(10.5331 -6.40974 0)
(10.9902 -6.19961 0)
(11.3767 -5.69128 0)
(11.6269 -4.99814 0)
(11.7748 -4.18531 0)
(11.9757 -3.20809 0)
(12.0742 -2.17815 0)
(12.0417 -1.13222 0)
(12.1138 -0.0826061 0)
(12.0914 0.92538 0)
(11.8253 1.89906 0)
(11.4733 2.67044 0)
(11.0804 3.23678 0)
(10.729 3.75698 0)
(10.5586 4.24771 0)
(10.4171 4.71899 0)
(10.1212 5.09947 0)
(9.65648 5.16665 0)
(9.06513 4.87748 0)
(8.45356 4.33819 0)
(7.92264 3.71196 0)
(7.43348 3.1005 0)
(7.02424 2.56964 0)
(6.69591 2.05901 0)
(6.4965 1.67776 0)
(6.34127 1.36406 0)
(6.21647 1.27433 0)
(5.99977 1.20189 0)
(5.714 1.35249 0)
(5.39692 1.38719 0)
(5.08463 1.62542 0)
(4.98055 1.56156 0)
(4.78362 1.69337 0)
(5.03681 1.44769 0)
(4.78094 1.48121 0)
(5.34826 1.21841 0)
(4.80275 1.24704 0)
(5.64565 1.08149 0)
(4.72362 1.07749 0)
(5.83636 0.966186 0)
(4.58542 0.884655 0)
(5.9419 0.716932 0)
(4.49245 0.659999 0)
(5.95729 0.363447 0)
(4.56459 0.50658 0)
(5.85999 0.125413 0)
(4.82288 0.432358 0)
(5.75366 0.140884 0)
(5.078 0.356274 0)
(5.77453 0.309018 0)
(5.14723 0.269608 0)
(5.89983 0.404874 0)
(5.0668 0.249991 0)
(5.97648 0.325398 0)
(5.0007 0.286129 0)
(5.9222 0.198821 0)
(5.00742 0.237484 0)
(5.84332 0.182701 0)
(4.97634 0.0931452 0)
(5.86511 0.213812 0)
(4.87489 0.0184911 0)
(5.92352 0.164385 0)
(4.81769 0.0409501 0)
(5.91686 0.103536 0)
(4.82533 0.0334515 0)
(5.91062 0.10222 0)
(4.80595 0.00857534 0)
(5.94145 0.093258 0)
(4.79082 0.0202595 0)
(5.9329 0.0831692 0)
(4.8147 0.00209037 0)
(5.91778 0.116997 0)
(4.80791 -0.0385895 0)
(5.93392 0.146885 0)
(4.79706 -0.043045 0)
(5.93111 0.129174 0)
(4.78931 0.0171288 0)
(5.96457 0.0557327 0)
(4.73989 0.0591561 0)
(6.01011 0.110055 0)
(4.72921 -0.0631149 0)
(6.01528 0.226286 0)
(4.69532 -0.0326784 0)
(6.07289 0.0980878 0)
(4.66011 0.0711905 0)
(6.05408 0.182239 0)
(4.72573 -0.0875646 0)
(6.03492 0.250913 0)
(4.66621 0.0936829 0)
(6.12144 0.0576586 0)
(4.65469 0.0870366 0)
(6.10749 0.317868 0)
(4.63489 -0.0466341 0)
(6.23064 0.205357 0)
(4.53258 0.201143 0)
(6.2362 0.239808 0)
(4.63297 -0.00505872 0)
(6.25851 0.369348 0)
(4.53101 0.202264 0)
(6.33839 0.247789 0)
(4.64872 0.113411 0)
(6.27955 0.457953 0)
(4.59823 0.262456 0)
(6.42188 0.281522 0)
(4.68998 0.25372 0)
(6.33593 0.552365 0)
(4.69837 0.360416 0)
(6.47629 0.342172 0)
(4.82396 0.448788 0)
(6.36072 0.597422 0)
(4.88286 0.549977 0)
(6.43165 0.445331 0)
(5.10524 0.664137 0)
(6.28143 0.614938 0)
(5.21309 0.844007 0)
(6.20112 0.57848 0)
(5.53793 0.944269 0)
(6.02138 0.664976 0)
(5.72685 1.15151 0)
(5.81249 0.785763 0)
(5.97648 1.31937 0)
(5.65881 0.904365 0)
(6.27121 1.36031 0)
(5.53478 1.23328 0)
(6.20754 1.60172 0)
(5.64609 1.56731 0)
(6.25829 1.54825 0)
(5.8795 2.02751 0)
(5.95591 1.74021 0)
(6.14631 2.57459 0)
(5.66963 2.09426 0)
(6.4113 2.87514 0)
(5.74913 2.90503 0)
(6.12974 3.15543 0)
(6.20516 4.07122 0)
(5.52026 3.60524 0)
(6.34829 5.04838 0)
(5.96069 5.31146 0)
(5.30088 6.25744 0)
(8.5645 6.54603 0)
(6.44748 11.6429 0)
(8.19648 -0.190806 0)
(8.29866 -0.273781 0)
(8.43064 -0.291661 0)
(8.61002 -0.274317 0)
(8.81029 -0.244272 0)
(9.02355 -0.226144 0)
(9.24754 -0.258587 0)
(9.49302 -0.341706 0)
(9.74538 -0.499171 0)
(10.0051 -0.730381 0)
(10.2436 -1.02273 0)
(10.3928 -1.34196 0)
(10.492 -1.64716 0)
(10.4789 -1.90431 0)
(10.3925 -2.07678 0)
(10.2479 -2.16252 0)
(10.0312 -2.15419 0)
(9.81891 -2.01959 0)
(9.62456 -1.77534 0)
(9.452 -1.41832 0)
(9.37441 -1.0087 0)
(9.30435 -0.596784 0)
(9.27844 -0.202324 0)
(9.32107 0.141691 0)
(9.35661 0.462565 0)
(9.51166 0.674803 0)
(9.58084 0.836443 0)
(9.72485 0.930832 0)
(9.96859 0.913218 0)
(10.1015 0.894466 0)
(10.4633 0.716079 0)
(10.7588 0.526557 0)
(11.0674 0.247381 0)
(11.5426 -0.143337 0)
(11.7784 -0.477871 0)
(12.2435 -1.02796 0)
(12.5876 -1.49519 0)
(12.8683 -2.00746 0)
(13.3294 -2.64708 0)
(13.4522 -3.06252 0)
(13.7235 -3.67809 0)
(13.8569 -4.23938 0)
(13.6646 -4.60935 0)
(13.616 -5.11941 0)
(13.1588 -5.31696 0)
(12.545 -5.37952 0)
(12.1723 -5.61635 0)
(11.6204 -5.54572 0)
(11.1012 -5.50552 0)
(11.0992 -5.87301 0)
(10.9656 -6.12435 0)
(10.5447 -6.20044 0)
(10.4611 -6.48955 0)
(10.4922 -6.85385 0)
(10.2451 -6.86075 0)
(9.70481 -6.61466 0)
(9.30477 -6.48415 0)
(9.30569 -6.61103 0)
(9.59684 -6.84312 0)
(9.98198 -6.87153 0)
(10.3548 -6.55119 0)
(10.5891 -5.94223 0)
(10.6587 -5.14171 0)
(10.7474 -4.2798 0)
(10.8672 -3.32088 0)
(10.9326 -2.24658 0)
(10.9075 -1.19221 0)
(10.9602 -0.108325 0)
(11.0526 1.0094 0)
(10.9741 2.04428 0)
(10.6612 2.93628 0)
(10.2688 3.5931 0)
(9.92381 3.99109 0)
(9.62742 4.39232 0)
(9.4281 4.89651 0)
(9.25553 5.33529 0)
(8.90543 5.51872 0)
(8.39921 5.30714 0)
(7.85949 4.75857 0)
(7.34427 4.11969 0)
(6.88821 3.46564 0)
(6.51127 2.84782 0)
(6.19343 2.2655 0)
(5.92344 1.84416 0)
(5.70468 1.52177 0)
(5.51166 1.43893 0)
(5.318 1.40483 0)
(5.08684 1.5866 0)
(4.88633 1.6159 0)
(4.71803 1.8067 0)
(4.64923 1.6374 0)
(4.67799 1.71479 0)
(4.67058 1.35587 0)
(4.88468 1.44137 0)
(4.71902 1.06956 0)
(5.15163 1.25521 0)
(4.67293 0.950292 0)
(5.37826 1.11528 0)
(4.62435 0.894862 0)
(5.49009 0.833492 0)
(4.68039 0.759625 0)
(5.42924 0.480968 0)
(4.82812 0.505976 0)
(5.22915 0.304692 0)
(5.02289 0.218929 0)
(5.04581 0.348229 0)
(5.18902 0.0687581 0)
(5.02742 0.418135 0)
(5.26359 0.117719 0)
(5.13124 0.389665 0)
(5.27977 0.238563 0)
(5.20324 0.328326 0)
(5.31286 0.260623 0)
(5.16847 0.323392 0)
(5.35562 0.15945 0)
(5.12455 0.33689 0)
(5.32811 0.0570275 0)
(5.17116 0.281801 0)
(5.26245 0.0385977 0)
(5.22332 0.196235 0)
(5.25358 0.0506274 0)
(5.22356 0.151397 0)
(5.24831 0.0333096 0)
(5.26245 0.142967 0)
(5.18626 -0.00968085 0)
(5.32185 0.163309 0)
(5.17457 -0.0505431 0)
(5.28939 0.17585 0)
(5.22096 -0.0328614 0)
(5.25753 0.12483 0)
(5.20036 0.0187008 0)
(5.31077 0.0895099 0)
(5.14755 0.0112618 0)
(5.34665 0.127403 0)
(5.13976 -0.0240774 0)
(5.33305 0.159615 0)
(5.14577 -0.0416876 0)
(5.32395 0.167508 0)
(5.13396 -0.0229324 0)
(5.34245 0.122877 0)
(5.10462 0.0488684 0)
(5.38028 0.107478 0)
(5.07157 0.0124573 0)
(5.40989 0.181316 0)
(5.03446 0.0124505 0)
(5.43927 0.127974 0)
(5.0102 0.0768941 0)
(5.47299 0.202076 0)
(4.97338 -0.0483426 0)
(5.48453 0.276648 0)
(4.95195 0.0708948 0)
(5.50404 0.153563 0)
(4.92135 0.0810306 0)
(5.55363 0.341917 0)
(4.86005 -0.000150855 0)
(5.59747 0.264567 0)
(4.78961 0.186149 0)
(5.70305 0.318871 0)
(4.69254 0.0484537 0)
(5.79669 0.40151 0)
(4.57014 0.215932 0)
(5.93769 0.383324 0)
(4.48508 0.115614 0)
(6.03056 0.519341 0)
(4.36768 0.301845 0)
(6.18103 0.465991 0)
(4.33131 0.205622 0)
(6.27826 0.656633 0)
(4.24105 0.424357 0)
(6.4146 0.583985 0)
(4.30859 0.366201 0)
(6.51017 0.757485 0)
(4.30217 0.629201 0)
(6.57889 0.736963 0)
(4.53892 0.644716 0)
(6.61275 0.813049 0)
(4.71685 0.926021 0)
(6.54043 0.862306 0)
(5.09805 1.11425 0)
(6.36576 0.896437 0)
(5.57798 1.27762 0)
(6.15151 0.978576 0)
(5.90771 1.67513 0)
(5.85008 1.14663 0)
(6.45484 1.70555 0)
(5.67921 1.40036 0)
(6.55955 1.92185 0)
(5.77564 1.9195 0)
(6.39752 1.95853 0)
(6.38554 2.4182 0)
(5.96459 2.06828 0)
(7.03648 3.07627 0)
(5.63583 2.72515 0)
(7.224 3.48254 0)
(6.45221 3.82472 0)
(6.46286 4.33985 0)
(8.47853 4.55862 0)
(5.92428 7.26435 0)
(9.93844 3.56562 0)
(8.52533 10.3598 0)
(10.3375 -0.209218 0)
(10.4413 -0.344548 0)
(10.5978 -0.409345 0)
(10.7816 -0.409026 0)
(10.9453 -0.392652 0)
(11.1019 -0.388514 0)
(11.2552 -0.425596 0)
(11.4274 -0.509772 0)
(11.5836 -0.647134 0)
(11.7205 -0.859328 0)
(11.8566 -1.10545 0)
(11.9021 -1.35849 0)
(11.8947 -1.62387 0)
(11.811 -1.82309 0)
(11.6438 -1.94914 0)
(11.4535 -1.99359 0)
(11.2192 -1.93415 0)
(11.001 -1.78597 0)
(10.7986 -1.5551 0)
(10.5731 -1.27461 0)
(10.4832 -0.945046 0)
(10.3984 -0.58208 0)
(10.4128 -0.250063 0)
(10.5129 0.0843527 0)
(10.5609 0.395362 0)
(10.8143 0.558742 0)
(10.9527 0.742059 0)
(11.1628 0.802269 0)
(11.4566 0.778698 0)
(11.6073 0.747651 0)
(12.0102 0.522561 0)
(12.1822 0.361596 0)
(12.5255 -0.00345907 0)
(12.8893 -0.38622 0)
(13.0552 -0.705644 0)
(13.4903 -1.2402 0)
(13.6203 -1.65208 0)
(13.9063 -2.24884 0)
(14.063 -2.77289 0)
(13.9553 -3.18889 0)
(14.0756 -3.8498 0)
(13.7957 -4.20756 0)
(13.4797 -4.55199 0)
(13.2348 -4.88621 0)
(12.5772 -4.84012 0)
(12.2479 -4.97664 0)
(11.9872 -5.1122 0)
(11.4224 -5.01656 0)
(11.2593 -5.35789 0)
(11.1855 -5.79113 0)
(10.6246 -5.76358 0)
(10.2181 -5.92685 0)
(10.2593 -6.42346 0)
(9.93637 -6.5798 0)
(9.19541 -6.33014 0)
(8.56395 -6.22038 0)
(8.41366 -6.51106 0)
(8.63282 -6.93052 0)
(8.87064 -7.17952 0)
(9.14527 -7.08405 0)
(9.34698 -6.58781 0)
(9.40073 -5.82433 0)
(9.37482 -5.00546 0)
(9.40569 -4.1495 0)
(9.47074 -3.20971 0)
(9.48971 -2.13962 0)
(9.47117 -1.07381 0)
(9.48723 -0.114803 0)
(9.57864 0.951041 0)
(9.63592 2.1467 0)
(9.51795 3.1423 0)
(9.22767 3.81323 0)
(8.87116 4.28818 0)
(8.6138 4.64223 0)
(8.44142 5.01956 0)
(8.24319 5.49805 0)
(7.9716 5.78727 0)
(7.58426 5.67009 0)
(7.12714 5.18904 0)
(6.69263 4.51321 0)
(6.30256 3.78635 0)
(6.01097 3.1378 0)
(5.72344 2.52898 0)
(5.47273 2.08196 0)
(5.14348 1.69667 0)
(4.94377 1.6262 0)
(4.64987 1.51004 0)
(4.59268 1.74552 0)
(4.33957 1.59162 0)
(4.45305 1.88648 0)
(4.24412 1.4525 0)
(4.54024 1.7781 0)
(4.34485 1.10234 0)
(4.7359 1.57109 0)
(4.56896 0.79915 0)
(4.88863 1.42012 0)
(4.90452 0.693426 0)
(4.98398 1.24392 0)
(5.22725 0.712942 0)
(5.18802 0.958769 0)
(5.26417 0.630304 0)
(5.52888 0.652896 0)
(5.00607 0.390999 0)
(5.75732 0.445483 0)
(4.75906 0.135547 0)
(5.74667 0.392663 0)
(4.75139 0.00841944 0)
(5.61536 0.427658 0)
(4.93778 0.0554695 0)
(5.52336 0.408098 0)
(5.13065 0.194367 0)
(5.54181 0.348658 0)
(5.19347 0.224635 0)
(5.66727 0.360617 0)
(5.15071 0.0931375 0)
(5.78521 0.395213 0)
(5.18009 -0.0251906 0)
(5.76052 0.31024 0)
(5.34678 0.00180505 0)
(5.69061 0.176575 0)
(5.42323 0.0240914 0)
(5.7795 0.170315 0)
(5.32018 -0.0572107 0)
(5.90054 0.209789 0)
(5.33112 -0.0825644 0)
(5.83336 0.15499 0)
(5.47597 -0.0196828 0)
(5.79089 0.117588 0)
(5.44336 -0.0231608 0)
(5.90837 0.154545 0)
(5.36781 -0.059445 0)
(5.9213 0.141791 0)
(5.43847 -0.00794913 0)
(5.89464 0.0856238 0)
(5.42513 0.0267747 0)
(5.93747 0.130449 0)
(5.4598 -0.063019 0)
(5.84207 0.198428 0)
(5.56688 -0.0225158 0)
(5.88024 0.0688156 0)
(5.4451 0.110654 0)
(5.98259 0.0930198 0)
(5.47876 -0.0302022 0)
(5.90061 0.20426 0)
(5.48605 0.0800602 0)
(6.04709 0.00291183 0)
(5.37008 0.154533 0)
(5.9792 0.21635 0)
(5.56017 -0.0589391 0)
(5.91032 0.180205 0)
(5.48 0.243668 0)
(5.9969 0.0481552 0)
(5.55539 0.0816208 0)
(5.83312 0.314792 0)
(5.60852 0.156211 0)
(5.91755 0.0715187 0)
(5.58969 0.273358 0)
(5.79934 0.277615 0)
(5.65963 0.185712 0)
(5.83224 0.16906 0)
(5.65264 0.384503 0)
(5.70158 0.278618 0)
(5.76412 0.268785 0)
(5.63805 0.258826 0)
(5.82675 0.521726 0)
(5.47299 0.281413 0)
(5.951 0.39527 0)
(5.3142 0.373476 0)
(6.1151 0.655472 0)
(5.09221 0.317888 0)
(6.26256 0.595489 0)
(4.8607 0.471049 0)
(6.48716 0.812892 0)
(4.64181 0.436259 0)
(6.66283 0.834633 0)
(4.42472 0.610966 0)
(6.88946 0.978434 0)
(4.37922 0.709927 0)
(6.96241 1.09615 0)
(4.47551 0.914583 0)
(7.08249 1.11564 0)
(4.77772 1.27207 0)
(6.81745 1.31286 0)
(5.45384 1.53797 0)
(6.51098 1.36541 0)
(6.12978 2.0131 0)
(5.95028 1.59293 0)
(6.83599 2.40129 0)
(5.45998 1.93996 0)
(7.18302 2.63616 0)
(5.44354 2.53063 0)
(6.76168 3.04419 0)
(6.47725 3.14717 0)
(5.71425 3.85502 0)
(8.3338 3.02181 0)
(5.23648 5.81404 0)
(9.862 2.2309 0)
(6.7441 8.04248 0)
(10.1642 2.63309 0)
(8.78604 8.92725 0)
(11.841 -0.241889 0)
(11.9259 -0.352168 0)
(12.084 -0.421142 0)
(12.2525 -0.45753 0)
(12.3843 -0.459811 0)
(12.5004 -0.473297 0)
(12.5638 -0.52851 0)
(12.6661 -0.621962 0)
(12.7423 -0.732902 0)
(12.7637 -0.919898 0)
(12.7988 -1.13939 0)
(12.7397 -1.32217 0)
(12.6458 -1.54947 0)
(12.5022 -1.70286 0)
(12.2628 -1.77565 0)
(12.0402 -1.80732 0)
(11.7674 -1.72685 0)
(11.5242 -1.61474 0)
(11.2906 -1.40991 0)
(11.0436 -1.1701 0)
(10.9877 -0.931442 0)
(10.9058 -0.566049 0)
(10.9896 -0.285735 0)
(11.0736 -0.00795668 0)
(11.135 0.253374 0)
(11.4557 0.383907 0)
(11.5701 0.56237 0)
(11.9136 0.563033 0)
(12.1596 0.579085 0)
(12.3844 0.499961 0)
(12.805 0.298752 0)
(12.8933 0.135361 0)
(13.3336 -0.265451 0)
(13.5009 -0.531073 0)
(13.7164 -0.945844 0)
(13.9699 -1.39329 0)
(13.9335 -1.78294 0)
(14.1516 -2.39466 0)
(13.9293 -2.73507 0)
(13.8545 -3.24815 0)
(13.7405 -3.74701 0)
(13.2243 -3.9318 0)
(13.0999 -4.34933 0)
(12.6996 -4.45683 0)
(12.2425 -4.39803 0)
(12.2378 -4.71062 0)
(11.8056 -4.75009 0)
(11.3752 -4.84812 0)
(11.3586 -5.33064 0)
(10.8427 -5.37559 0)
(10.1686 -5.32078 0)
(10.0554 -5.81072 0)
(9.78519 -6.13652 0)
(8.84806 -5.89999 0)
(7.90933 -5.71972 0)
(7.55499 -6.06288 0)
(7.5722 -6.64097 0)
(7.7186 -7.08086 0)
(7.8472 -7.28074 0)
(8.00157 -7.14169 0)
(8.11345 -6.60363 0)
(8.08497 -5.77756 0)
(8.02503 -4.91702 0)
(7.99593 -4.09197 0)
(8.00353 -3.11651 0)
(8.01706 -2.00622 0)
(8.01006 -0.999451 0)
(8.00179 -0.11266 0)
(8.04154 0.9228 0)
(8.09478 2.13603 0)
(8.05474 3.25839 0)
(7.918 4.03962 0)
(7.72472 4.46501 0)
(7.47984 4.78799 0)
(7.29309 5.21298 0)
(7.19789 5.67163 0)
(6.96804 5.98004 0)
(6.63773 5.92936 0)
(6.30545 5.47052 0)
(5.96654 4.82425 0)
(5.68896 4.07312 0)
(5.48278 3.37679 0)
(5.24347 2.7405 0)
(5.00414 2.35922 0)
(4.80329 1.94337 0)
(4.61198 1.89472 0)
(4.45705 1.63098 0)
(4.27889 1.9464 0)
(4.2349 1.58176 0)
(4.18108 2.07111 0)
(4.33793 1.31598 0)
(4.34902 1.90693 0)
(4.65669 0.869025 0)
(4.46338 1.61805 0)
(5.03337 0.576085 0)
(4.41618 1.41802 0)
(5.40466 0.514793 0)
(4.52084 1.28792 0)
(5.58516 0.441471 0)
(4.92749 1.13567 0)
(5.57896 0.303044 0)
(5.28146 0.8984 0)
(5.58188 0.179549 0)
(5.34321 0.68777 0)
(5.55432 0.023171 0)
(5.2568 0.599969 0)
(5.43832 -0.12896 0)
(5.22629 0.58385 0)
(5.34491 -0.131097 0)
(5.20217 0.537786 0)
(5.43304 -0.023434 0)
(5.08225 0.515161 0)
(5.6138 -0.034741 0)
(5.04957 0.581681 0)
(5.63336 -0.164961 0)
(5.22819 0.569747 0)
(5.55633 -0.179385 0)
(5.34365 0.413613 0)
(5.66388 -0.121798 0)
(5.23671 0.374132 0)
(5.83427 -0.222597 0)
(5.21613 0.4588 0)
(5.7888 -0.286775 0)
(5.37023 0.365756 0)
(5.72701 -0.174167 0)
(5.38434 0.274976 0)
(5.83797 -0.215913 0)
(5.3026 0.417781 0)
(5.88987 -0.32908 0)
(5.33654 0.384734 0)
(5.85865 -0.176674 0)
(5.37663 0.212052 0)
(5.9031 -0.135838 0)
(5.34243 0.325518 0)
(5.9711 -0.251543 0)
(5.31954 0.347904 0)
(5.98581 -0.167069 0)
(5.35505 0.276341 0)
(6.01886 -0.202075 0)
(5.31199 0.361131 0)
(6.12588 -0.15648 0)
(5.28034 0.213808 0)
(6.12182 -0.0407045 0)
(5.34766 0.299045 0)
(6.16578 -0.192591 0)
(5.29528 0.312741 0)
(6.22001 0.0463336 0)
(5.34775 0.176403 0)
(6.23705 -0.108049 0)
(5.27928 0.478251 0)
(6.37007 -0.0630125 0)
(5.29996 0.146654 0)
(6.34028 0.161185 0)
(5.29754 0.419306 0)
(6.45654 -0.125718 0)
(5.31097 0.3006 0)
(6.41678 0.322941 0)
(5.33668 0.287432 0)
(6.51838 0.00374163 0)
(5.3771 0.435769 0)
(6.43271 0.36563 0)
(5.41193 0.30527 0)
(6.54342 0.140453 0)
(5.46708 0.514534 0)
(6.42883 0.459065 0)
(5.52722 0.382988 0)
(6.47026 0.263836 0)
(5.63899 0.607171 0)
(6.35093 0.55672 0)
(5.72183 0.531789 0)
(6.24886 0.403422 0)
(5.93367 0.712977 0)
(6.06464 0.632861 0)
(6.10404 0.772147 0)
(5.77388 0.569509 0)
(6.42484 0.858658 0)