/*--------------------------------*- C++ -*----------------------------------*\
| =========                 |                                                 |
| \\      /  F ield         | OpenFOAM: The Open Source CFD Toolbox           |
|  \\    /   O peration     | Version:  2.4.0                                 |
|   \\  /    A nd           | Web:      www.OpenFOAM.org                      |
|    \\/     M anipulation  |                                                 |
\*---------------------------------------------------------------------------*/
FoamFile
{
    version     2.0;
    format      ascii;
    class       surfaceScalarField;
    location    "0.63";
    object      phi;
}
// * * * * * * * * * * * * * * * * * * * * * * * * * * * * * * * * * * * * * //

dimensions      [0 3 -1 0 0 0 0];

internalField   nonuniform List<scalar> 
17320
(
1.76228e-05
7.37718e-06
1.16177e-05
6.00511e-06
8.6941e-06
2.92361e-06
7.35993e-06
1.33417e-06
6.68754e-06
6.72384e-07
6.35016e-06
3.37385e-07
6.10027e-06
2.49891e-07
5.8256e-06
2.74669e-07
5.69041e-06
1.35192e-07
5.63947e-06
5.094e-08
5.48502e-06
1.54449e-07
5.38178e-06
1.03243e-07
5.36255e-06
1.92292e-08
5.25528e-06
1.07266e-07
5.13567e-06
1.19609e-07
5.08877e-06
4.68979e-08
4.9819e-06
1.06873e-07
4.94062e-06
4.12843e-08
4.65097e-06
2.89647e-07
-5.87427e-07
5.2384e-06
2.54154e-05
6.96174e-06
2.32624e-05
8.15816e-06
2.10023e-05
5.18371e-06
1.93196e-05
3.01684e-06
1.80408e-05
1.95125e-06
1.71342e-05
1.24399e-06
1.63711e-05
1.01291e-06
1.57053e-05
9.40481e-07
1.52957e-05
5.44771e-07
1.49922e-05
3.54467e-07
1.46291e-05
5.17573e-07
1.44037e-05
3.28689e-07
1.42404e-05
1.82509e-07
1.39938e-05
3.53841e-07
1.37743e-05
3.39102e-07
1.36223e-05
1.98871e-07
1.33896e-05
3.39563e-07
1.32341e-05
1.9687e-07
1.30235e-05
5.00218e-07
-4.69883e-07
1.29059e-05
2.65343e-05
5.42746e-06
2.71785e-05
7.51391e-06
2.68113e-05
5.55091e-06
2.6262e-05
3.56616e-06
2.55634e-05
2.64981e-06
2.49039e-05
1.90353e-06
2.41621e-05
1.75471e-06
2.34162e-05
1.68635e-06
2.29206e-05
1.04039e-06
2.24859e-05
7.89132e-07
2.20089e-05
9.94593e-07
2.17106e-05
6.26979e-07
2.14659e-05
4.27208e-07
2.11271e-05
6.9271e-07
2.08862e-05
5.79914e-07
2.06468e-05
4.38272e-07
2.04142e-05
5.72181e-07
2.00878e-05
5.23271e-07
2.00121e-05
5.75957e-07
1.31255e-07
1.9411e-05
2.6232e-05
4.19551e-06
2.74891e-05
6.2568e-06
2.81219e-05
4.91809e-06
2.85048e-05
3.18328e-06
2.86193e-05
2.53523e-06
2.86539e-05
1.86898e-06
2.85056e-05
1.90304e-06
2.81296e-05
2.06231e-06
2.79412e-05
1.22884e-06
2.76942e-05
1.03605e-06
2.73801e-05
1.30871e-06
2.71616e-05
8.45487e-07
2.702e-05
5.68784e-07
2.6703e-05
1.00977e-06
2.65554e-05
7.27545e-07
2.63039e-05
6.89754e-07
2.61763e-05
6.9978e-07
2.57695e-05
9.30073e-07
2.55606e-05
7.84813e-07
1.19606e-06
2.44958e-05
2.60977e-05
3.09781e-06
2.71653e-05
5.18921e-06
2.80874e-05
3.99603e-06
2.86136e-05
2.65706e-06
2.90467e-05
2.10213e-06
2.94299e-05
1.48577e-06
2.97754e-05
1.55752e-06
2.9739e-05
2.09868e-06
2.98246e-05
1.14326e-06
2.98677e-05
9.92927e-07
2.99318e-05
1.24463e-06
2.99326e-05
8.44748e-07
3.00228e-05
4.78522e-07
2.9969e-05
1.06355e-06
3.00316e-05
6.6495e-07
2.99636e-05
7.57796e-07
2.9973e-05
6.90426e-07
2.9925e-05
9.78026e-07
2.99989e-05
7.10944e-07
7.1554e-07
3.04794e-05
2.59382e-05
2.1596e-06
2.68839e-05
4.2435e-06
2.78884e-05
2.99157e-06
2.84556e-05
2.08979e-06
2.87798e-05
1.778e-06
2.90762e-05
1.18929e-06
2.96984e-05
9.35392e-07
3.00133e-05
1.78375e-06
3.01338e-05
1.02271e-06
3.01733e-05
9.53439e-07
3.03905e-05
1.02742e-06
3.05183e-05
7.16992e-07
3.06816e-05
3.15235e-07
3.09149e-05
8.30198e-07
3.12104e-05
3.69471e-07
3.14054e-05
5.62816e-07
3.15733e-05
5.22568e-07
3.18727e-05
6.7861e-07
3.19979e-05
5.85747e-07
1.34888e-07
3.25785e-05
2.57225e-05
1.43706e-06
2.65462e-05
3.41983e-06
2.75137e-05
2.02413e-06
2.82744e-05
1.32907e-06
2.85788e-05
1.47355e-06
2.86892e-05
1.0789e-06
2.922e-05
4.04611e-07
2.97349e-05
1.26889e-06
2.98378e-05
9.19816e-07
3.00322e-05
7.58991e-07
3.03677e-05
6.91909e-07
3.05134e-05
5.71355e-07
3.0439e-05
3.89634e-07
3.06065e-05
6.62629e-07
3.08852e-05
9.07998e-08
3.12206e-05
2.27376e-07
3.1621e-05
1.22199e-07
3.20859e-05
2.1368e-07
3.24137e-05
2.57951e-07
-1.58672e-07
3.27073e-05
2.55373e-05
8.99746e-07
2.63615e-05
2.59566e-06
2.73743e-05
1.01132e-06
2.81274e-05
5.75994e-07
2.83566e-05
1.24436e-06
2.84016e-05
1.03383e-06
2.87374e-05
6.88595e-08
2.93737e-05
6.32559e-07
2.97693e-05
5.24177e-07
3.01365e-05
3.91821e-07
3.02174e-05
6.11065e-07
3.01063e-05
6.82418e-07
2.99732e-05
5.2275e-07
3.03222e-05
3.13616e-07
3.07037e-05
-2.90734e-07
3.12055e-05
-2.74359e-07
3.16202e-05
-2.92501e-07
3.18802e-05
-4.63322e-08
3.19413e-05
1.96867e-07
1.6451e-07
3.16181e-05
2.55268e-05
3.7295e-07
2.65596e-05
1.56284e-06
2.72971e-05
2.73782e-07
2.77769e-05
9.61936e-08
2.81349e-05
8.86454e-07
2.85335e-05
6.35169e-07
2.86126e-05
-1.0269e-08
2.89788e-05
2.66403e-07
2.9542e-05
-3.89866e-08
2.99644e-05
-3.06119e-08
2.99559e-05
6.19538e-07
2.9922e-05
7.16355e-07
3.01576e-05
2.87155e-07
3.05131e-05
-4.18926e-08
3.0651e-05
-4.28612e-07
3.09022e-05
-5.2562e-07
3.11311e-05
-5.21337e-07
3.12357e-05
-1.50999e-07
3.11118e-05
3.20848e-07
4.18112e-07
3.08581e-05
2.54932e-05
-1.20211e-07
2.67296e-05
3.26407e-07
2.72991e-05
-2.95756e-07
2.75737e-05
-1.78336e-07
2.80238e-05
4.36303e-07
2.87143e-05
-5.53477e-08
2.8778e-05
-7.38996e-08
2.89019e-05
1.42455e-07
2.9299e-05
-4.36035e-07
2.98042e-05
-5.35863e-07
2.98908e-05
5.3296e-07
2.99675e-05
6.39621e-07
3.02922e-05
-3.75231e-08
3.04052e-05
-1.54937e-07
3.02883e-05
-3.1168e-07
3.03992e-05
-6.36549e-07
3.06883e-05
-8.10362e-07
3.09797e-05
-4.4239e-07
3.1151e-05
1.49518e-07
1.34678e-07
3.14344e-05
2.53982e-05
-5.18361e-07
2.65849e-05
-8.60337e-07
2.73062e-05
-1.01706e-06
2.77256e-05
-5.97753e-07
2.80826e-05
7.93537e-08
2.86266e-05
-5.99349e-07
2.89651e-05
-4.1248e-07
2.92177e-05
-1.10129e-07
2.94181e-05
-6.36428e-07
2.96124e-05
-7.30148e-07
2.9716e-05
4.2937e-07
2.99943e-05
3.61272e-07
3.0312e-05
-3.55157e-07
3.04701e-05
-3.13046e-07
3.05042e-05
-3.45744e-07
3.06315e-05
-7.63927e-07
3.08364e-05
-1.01523e-06
3.1076e-05
-6.81941e-07
3.15054e-05
-2.79964e-07
-1.14856e-07
3.1755e-05
2.54565e-05
-9.74889e-07
2.64892e-05
-1.89303e-06
2.7208e-05
-1.73588e-06
2.78051e-05
-1.19486e-06
2.82766e-05
-3.92063e-07
2.87078e-05
-1.03058e-06
2.90142e-05
-7.18871e-07
2.92837e-05
-3.7966e-07
2.94852e-05
-8.37881e-07
2.95331e-05
-7.7805e-07
2.97152e-05
2.47233e-07
3.01316e-05
-5.50809e-08
3.04755e-05
-6.99098e-07
3.0702e-05
-5.39534e-07
3.08293e-05
-4.73019e-07
3.10496e-05
-9.84306e-07
3.10732e-05
-1.03878e-06
3.12e-05
-8.08751e-07
3.14788e-05
-5.58801e-07
-3.3818e-07
3.17022e-05
2.5647e-05
-1.62188e-06
2.65227e-05
-2.76869e-06
2.7231e-05
-2.44426e-06
2.79502e-05
-1.91403e-06
2.83762e-05
-8.18032e-07
2.87152e-05
-1.36959e-06
2.90854e-05
-1.08909e-06
2.93819e-05
-6.76106e-07
2.95727e-05
-1.02867e-06
2.96511e-05
-8.56506e-07
2.98548e-05
4.35544e-08
3.02774e-05
-4.77693e-07
3.05466e-05
-9.6827e-07
3.07443e-05
-7.37205e-07
3.09462e-05
-6.7498e-07
3.11843e-05
-1.22243e-06
3.11534e-05
-1.00786e-06
3.1237e-05
-8.92322e-07
3.14057e-05
-7.27513e-07
-6.3682e-07
3.17043e-05
2.57299e-05
-2.35173e-06
2.65828e-05
-3.62162e-06
2.7513e-05
-3.37445e-06
2.81664e-05
-2.5675e-06
2.85727e-05
-1.22428e-06
2.88673e-05
-1.6642e-06
2.92322e-05
-1.45403e-06
2.94501e-05
-8.94021e-07
2.96446e-05
-1.22315e-06
2.9876e-05
-1.08794e-06
3.01442e-05
-2.24601e-07
3.05298e-05
-8.6329e-07
3.0735e-05
-1.17349e-06
3.08988e-05
-9.0094e-07
3.10097e-05
-7.8589e-07
3.11498e-05
-1.3626e-06
3.11553e-05
-1.01336e-06
3.13002e-05
-1.03723e-06
3.1523e-05
-9.50227e-07
-1.04366e-06
3.19298e-05
2.57652e-05
-3.11697e-06
2.68461e-05
-4.70252e-06
2.79553e-05
-4.48357e-06
2.83727e-05
-2.98497e-06
2.87025e-05
-1.55405e-06
2.90599e-05
-2.02164e-06
2.94099e-05
-1.80403e-06
2.96063e-05
-1.09038e-06
2.98887e-05
-1.50553e-06
3.02057e-05
-1.40497e-06
3.05149e-05
-5.33826e-07
3.07622e-05
-1.11052e-06
3.08616e-05
-1.27292e-06
3.08925e-05
-9.31877e-07
3.08869e-05
-7.80283e-07
3.08745e-05
-1.35016e-06
3.08669e-05
-1.00577e-06
3.10322e-05
-1.20256e-06
3.12426e-05
-1.16055e-06
-1.48564e-06
3.16845e-05
2.59253e-05
-4.04229e-06
2.73232e-05
-6.10042e-06
2.82079e-05
-5.36824e-06
2.84849e-05
-3.26196e-06
2.89438e-05
-2.01294e-06
2.92843e-05
-2.36221e-06
2.95103e-05
-2.02999e-06
2.97194e-05
-1.29945e-06
2.98532e-05
-1.63933e-06
2.9934e-05
-1.48579e-06
3.0077e-05
-6.76884e-07
3.00499e-05
-1.08339e-06
2.99528e-05
-1.17585e-06
2.98445e-05
-8.23522e-07
2.97451e-05
-6.80913e-07
2.95659e-05
-1.17096e-06
2.9475e-05
-9.14851e-07
2.94366e-05
-1.16415e-06
2.94078e-05
-1.1318e-06
-1.61005e-06
2.95322e-05
2.62652e-05
-5.30747e-06
2.7687e-05
-7.52225e-06
2.81073e-05
-5.78855e-06
2.83943e-05
-3.54898e-06
2.86879e-05
-2.30653e-06
2.85862e-05
-2.2605e-06
2.84041e-05
-1.84784e-06
2.82864e-05
-1.18176e-06
2.79445e-05
-1.29746e-06
2.76404e-05
-1.18168e-06
2.7506e-05
-5.42489e-07
2.71649e-05
-7.42314e-07
2.68354e-05
-8.46343e-07
2.65907e-05
-5.78769e-07
2.63489e-05
-4.39107e-07
2.6005e-05
-8.27087e-07
2.57749e-05
-6.84737e-07
2.5466e-05
-8.55273e-07
2.52251e-05
-8.90886e-07
-1.42448e-06
2.50395e-05
2.66053e-05
-6.9128e-06
2.72449e-05
-8.16183e-06
2.67394e-05
-5.283e-06
2.62192e-05
-3.02878e-06
2.56595e-05
-1.74689e-06
2.48272e-05
-1.42819e-06
2.40988e-05
-1.1194e-06
2.35509e-05
-6.33916e-07
2.29014e-05
-6.47904e-07
2.23782e-05
-6.58528e-07
2.20747e-05
-2.38963e-07
2.16568e-05
-3.2438e-07
2.12784e-05
-4.67953e-07
2.10056e-05
-3.06048e-07
2.07525e-05
-1.86012e-07
2.03918e-05
-4.66383e-07
2.01113e-05
-4.04193e-07
1.97119e-05
-4.55837e-07
1.93238e-05
-5.02791e-07
-5.33483e-07
1.84328e-05
2.54544e-05
-7.36721e-06
2.32903e-05
-5.99773e-06
2.09617e-05
-2.95437e-06
1.92898e-05
-1.35687e-06
1.81189e-05
-5.76055e-07
1.70878e-05
-3.97018e-07
1.63039e-05
-3.35548e-07
1.58031e-05
-1.33098e-07
1.52985e-05
-1.43337e-07
1.48597e-05
-2.19701e-07
1.46522e-05
-3.14856e-08
1.43841e-05
-5.62666e-08
1.40848e-05
-1.68668e-07
1.38776e-05
-9.88084e-08
1.37159e-05
-2.42992e-08
1.3415e-05
-1.65512e-07
1.31559e-05
-1.45064e-07
1.28429e-05
-1.42879e-07
1.25531e-05
-2.13004e-07
-9.79067e-08
1.21176e-05
1.76328e-05
1.16351e-05
8.68069e-06
7.32381e-06
6.74776e-06
6.35074e-06
6.01519e-06
5.8821e-06
5.73876e-06
5.51906e-06
5.48757e-06
5.43131e-06
5.26264e-06
5.16383e-06
5.13953e-06
4.97402e-06
4.82895e-06
4.68608e-06
4.47307e-06
4.37516e-06
5.70779e-06
-2.25276e-07
-2.44121e-07
6.08197e-06
-9.4795e-08
-2.79381e-07
6.37152e-06
-1.32824e-07
-1.56727e-07
6.65711e-06
-2.15814e-07
-6.97786e-08
6.93204e-06
-2.76484e-07
1.55513e-09
7.16095e-06
-2.58348e-07
2.94351e-08
7.34341e-06
-2.03224e-07
2.07634e-08
7.48592e-06
-1.13728e-07
-2.87737e-08
7.62679e-06
-4.05132e-08
-1.00361e-07
7.79295e-06
4.20886e-08
-2.08253e-07
7.95899e-06
7.99103e-08
-2.45946e-07
8.13697e-06
9.46233e-08
-2.72603e-07
8.30719e-06
8.26589e-08
-2.52876e-07
8.50456e-06
6.76542e-08
-2.65032e-07
8.70406e-06
3.84698e-08
-2.37964e-07
8.91662e-06
1.82351e-08
-2.30799e-07
9.13004e-06
-3.75247e-08
-1.75894e-07
9.348e-06
-7.70649e-08
-1.40889e-07
9.54789e-06
-1.70154e-07
-2.97387e-08
9.74608e-06
-2.67722e-07
6.95328e-08
9.91608e-06
-4.07665e-07
2.37659e-07
1.00813e-05
-5.45414e-07
3.80169e-07
1.0196e-05
-7.15599e-07
6.00881e-07
1.02825e-05
-8.98188e-07
8.11761e-07
1.02685e-05
-1.09278e-06
1.10673e-06
1.01732e-05
-1.26743e-06
1.36277e-06
9.92364e-06
-1.44251e-06
1.69204e-06
9.5325e-06
-1.50345e-06
1.89459e-06
8.93921e-06
-1.5233e-06
2.11658e-06
8.35924e-06
-1.4973e-06
2.07727e-06
7.84453e-06
-1.34521e-06
1.85992e-06
7.71331e-06
-1.03275e-06
1.16398e-06
7.9868e-06
-4.01894e-07
1.28399e-07
8.84006e-06
5.99432e-07
-1.45269e-06
1.00336e-05
2.03732e-06
-3.23084e-06
1.13299e-05
3.67752e-06
-4.97381e-06
1.26015e-05
5.27591e-06
-6.54754e-06
1.37717e-05
6.4634e-06
-7.63363e-06
1.48525e-05
7.00924e-06
-8.08999e-06
1.57657e-05
6.95568e-06
-7.86887e-06
1.64864e-05
6.2896e-06
-7.0103e-06
1.70124e-05
5.17832e-06
-5.70437e-06
1.74084e-05
3.72932e-06
-4.12534e-06
1.77908e-05
2.29277e-06
-2.67514e-06
1.81725e-05
9.68638e-07
-1.35033e-06
1.86374e-05
-2.89882e-07
-1.75055e-07
1.89138e-05
-1.33398e-06
1.0576e-06
1.91105e-05
-2.44816e-06
2.25146e-06
1.93705e-05
-3.68081e-06
3.42078e-06
1.9802e-05
-5.14087e-06
4.70943e-06
2.031e-05
-6.63071e-06
6.12266e-06
2.08099e-05
-8.04304e-06
7.54317e-06
2.12246e-05
-9.10975e-06
8.69505e-06
2.14822e-05
-9.73715e-06
9.47957e-06
2.1608e-05
-9.67206e-06
9.54623e-06
2.16395e-05
-8.9286e-06
8.89711e-06
2.15216e-05
-7.67278e-06
7.79073e-06
2.1376e-05
-6.24149e-06
6.38707e-06
2.13242e-05
-4.72404e-06
4.77585e-06
2.12547e-05
-3.11576e-06
3.18526e-06
2.10086e-05
-1.39776e-06
1.64382e-06
2.04129e-05
2.64595e-07
3.31136e-07
1.99568e-05
1.38928e-06
-9.332e-07
1.96813e-05
2.37136e-06
-2.09587e-06
1.95988e-05
3.44845e-06
-3.36589e-06
1.95115e-05
4.65169e-06
-4.56447e-06
1.94773e-05
5.35677e-06
-5.3225e-06
1.97093e-05
5.75366e-06
-5.9857e-06
2.0266e-05
5.81467e-06
-6.37131e-06
2.09264e-05
5.87794e-06
-6.53837e-06
2.14589e-05
5.77614e-06
-6.30871e-06
2.21521e-05
5.22612e-06
-5.91924e-06
2.3011e-05
4.23846e-06
-5.09743e-06
2.36457e-05
3.3282e-06
-3.96285e-06
2.41832e-05
2.10675e-06
-2.64422e-06
2.46352e-05
8.35638e-07
-1.28765e-06
2.51489e-05
-7.99995e-07
2.8627e-07
2.54134e-05
-1.91614e-06
1.65164e-06
2.55186e-05
-3.15195e-06
3.04674e-06
2.55073e-05
-4.13897e-06
4.15025e-06
2.55164e-05
-5.8088e-06
5.79968e-06
2.53201e-05
-6.68549e-06
6.88182e-06
2.51092e-05
-7.26761e-06
7.47854e-06
2.46918e-05
-7.3979e-06
7.8153e-06
2.43234e-05
-8.13908e-06
8.50741e-06
2.3708e-05
-8.65739e-06
9.27283e-06
2.26975e-05
-8.7237e-06
9.73417e-06
2.17154e-05
-7.93356e-06
8.9157e-06
2.06857e-05
-6.99098e-06
8.02068e-06
1.95276e-05
-6.53446e-06
7.69257e-06
1.84162e-05
-6.61436e-06
7.72576e-06
1.70697e-05
-6.7282e-06
8.07465e-06
1.59111e-05
-6.78057e-06
7.93922e-06
1.5073e-05
-6.20468e-06
7.0427e-06
1.44523e-05
-5.10617e-06
5.72689e-06
1.42025e-05
-3.26906e-06
3.51886e-06
1.37962e-05
-9.29343e-07
1.33569e-06
1.26947e-05
1.13331e-06
-3.18133e-08
1.04047e-05
2.41228e-06
-1.22283e-07
8.17163e-06
2.38648e-06
-1.53419e-07
6.80189e-06
3.25338e-06
-1.88363e-06
6.54267e-06
4.7449e-06
-4.48568e-06
7.57833e-06
6.83517e-06
-7.87083e-06
7.8124e-06
1.0498e-05
-1.07321e-05
9.7131e-06
1.18465e-05
-1.37472e-05
9.84612e-06
1.45971e-05
-1.47301e-05
1.00902e-05
1.27736e-05
-1.30176e-05
1.01142e-05
1.32157e-05
-1.32398e-05
1.06482e-05
1.12662e-05
-1.18001e-05
1.09486e-05
1.20319e-05
-1.23323e-05
1.21911e-05
9.11708e-06
-1.03597e-05
1.24667e-05
1.02413e-05
-1.05168e-05
1.3902e-05
6.13219e-06
-7.5675e-06
1.41071e-05
7.81814e-06
-8.02328e-06
1.52204e-05
3.35133e-06
-4.46463e-06
1.52903e-05
5.47336e-06
-5.54321e-06
1.59519e-05
1.79039e-06
-2.45202e-06
1.56584e-05
3.82042e-06
-3.52685e-06
1.60922e-05
9.3515e-07
-1.36902e-06
1.56908e-05
2.70672e-06
-2.30534e-06
1.59473e-05
6.64886e-07
-9.21358e-07
1.58626e-05
1.5796e-06
-1.49492e-06
1.61268e-05
2.20275e-07
-4.84415e-07
1.632e-05
2.33115e-07
-4.26304e-07
1.68125e-05
-9.02341e-07
4.09823e-07
1.69177e-05
-9.27787e-07
8.22564e-07
1.75479e-05
-2.74778e-06
2.11755e-06
1.76827e-05
-2.28134e-06
2.14658e-06
1.83023e-05
-5.06237e-06
4.4428e-06
1.86128e-05
-4.33369e-06
4.02312e-06
1.93786e-05
-7.26274e-06
6.49702e-06
1.97345e-05
-6.31293e-06
5.95695e-06
2.08334e-05
-8.46937e-06
7.37047e-06
2.11504e-05
-7.18029e-06
6.86334e-06
2.217e-05
-8.12553e-06
7.10591e-06
2.22629e-05
-6.64034e-06
6.54747e-06
2.27867e-05
-7.15968e-06
6.63585e-06
2.25623e-05
-5.50694e-06
5.73134e-06
2.28351e-05
-6.32907e-06
6.05633e-06
2.24374e-05
-4.49761e-06
4.89527e-06
2.26807e-05
-5.63332e-06
5.39001e-06
2.21622e-05
-4.00069e-06
4.5192e-06
2.23606e-05
-4.9925e-06
4.79408e-06
2.17955e-05
-3.46563e-06
4.0307e-06
2.19393e-05
-4.25292e-06
4.10916e-06
2.13331e-05
-2.97142e-06
3.57763e-06
2.12285e-05
-3.59592e-06
3.70048e-06
2.04217e-05
-2.37108e-06
3.17783e-06
2.01923e-05
-2.86267e-06
3.09214e-06
1.93393e-05
-1.23427e-06
2.08723e-06
1.9329e-05
-1.31719e-06
1.32752e-06
1.87287e-05
7.97757e-07
-1.97433e-07
1.90466e-05
9.61447e-07
-1.2794e-06
1.85716e-05
3.30973e-06
-2.83477e-06
1.92051e-05
3.22518e-06
-3.85862e-06
1.87793e-05
5.66284e-06
-5.23702e-06
1.94342e-05
5.10699e-06
-5.76191e-06
1.87807e-05
7.6627e-06
-7.00918e-06
1.93191e-05
6.26296e-06
-6.80138e-06
1.87581e-05
9.11194e-06
-8.55099e-06
1.94422e-05
6.73908e-06
-7.42313e-06
1.93226e-05
9.88322e-06
-9.76365e-06
2.02112e-05
6.69937e-06
-7.58795e-06
2.01547e-05
1.03433e-05
-1.02868e-05
2.14992e-05
5.80613e-06
-7.15067e-06
2.10087e-05
1.06466e-05
-1.0156e-05
2.28608e-05
4.25617e-06
-6.10826e-06
2.21325e-05
1.06325e-05
-9.90424e-06
2.35554e-05
2.8411e-06
-4.26395e-06
2.3244e-05
9.91525e-06
-9.60391e-06
2.35802e-05
1.78621e-06
-2.12234e-06
2.36699e-05
8.59406e-06
-8.68384e-06
2.36327e-05
7.42803e-07
-7.05565e-07
2.39393e-05
6.99702e-06
-7.30365e-06
2.3596e-05
-6.15061e-07
9.58383e-07
2.39328e-05
5.02843e-06
-5.36522e-06
2.36578e-05
-2.24713e-06
2.52214e-06
2.38864e-05
2.7817e-06
-3.01034e-06
2.36495e-05
-4.49356e-06
4.73046e-06
2.367e-05
2.81545e-07
-3.0202e-07
2.33859e-05
-6.88717e-06
7.17133e-06
2.28537e-05
-1.3718e-06
1.90391e-06
2.24538e-05
-8.46767e-06
8.86763e-06
2.18971e-05
-3.07338e-06
3.63002e-06
2.17626e-05
-1.02706e-05
1.04051e-05
2.09104e-05
-4.69349e-06
5.54567e-06
2.02972e-05
-1.10287e-05
1.16418e-05
1.81293e-05
-2.76628e-06
4.93418e-06
1.76295e-05
-9.24561e-06
9.74543e-06
1.58204e-05
-1.07851e-06
2.88763e-06
1.69923e-05
-1.00849e-05
8.91305e-06
1.61232e-05
-3.91342e-06
4.78255e-06
1.7809e-05
-1.20129e-05
1.0327e-05
1.6479e-05
-4.51778e-06
5.84776e-06
1.79077e-05
-9.35302e-06
7.92441e-06
1.5655e-05
-1.12215e-06
3.37485e-06
1.82557e-05
-4.54403e-06
1.94328e-06
1.64822e-05
6.44829e-06
-4.67475e-06
1.96355e-05
4.19949e-06
-7.35281e-06
1.82296e-05
-1.64169e-05
1.78228e-05
1.2964e-05
-2.83355e-07
1.31373e-05
-2.68125e-07
1.33523e-05
-3.4781e-07
1.35488e-05
-4.12262e-07
1.37194e-05
-4.47057e-07
1.38361e-05
-3.75047e-07
1.39389e-05
-3.06051e-07
1.40144e-05
-1.89242e-07
1.40939e-05
-1.20066e-07
1.41883e-05
-5.22776e-08
1.42934e-05
-2.52161e-08
1.44219e-05
-3.37877e-08
1.45414e-05
-3.68742e-08
1.46869e-05
-7.78582e-08
1.48397e-05
-1.14366e-07
1.50014e-05
-1.43427e-07
1.51824e-05
-2.18574e-07
1.53583e-05
-2.52882e-07
1.55345e-05
-3.46423e-07
1.57015e-05
-4.3472e-07
1.58529e-05
-5.59087e-07
1.59903e-05
-6.8276e-07
1.60848e-05
-8.10057e-07
1.61574e-05
-9.70816e-07
1.61459e-05
-1.08135e-06
1.60501e-05
-1.17156e-06
1.58886e-05
-1.28103e-06
1.5625e-05
-1.23981e-06
1.5263e-05
-1.16133e-06
1.4778e-05
-1.01227e-06
1.40992e-05
-6.66476e-07
1.32763e-05
-2.09795e-07
1.25661e-05
3.08303e-07
1.22039e-05
9.61561e-07
1.25054e-05
1.73583e-06
1.34575e-05
2.72542e-06
1.48822e-05
3.85124e-06
1.64178e-05
4.92779e-06
1.78789e-05
5.54815e-06
1.91864e-05
5.64814e-06
2.02603e-05
5.21569e-06
2.10442e-05
4.39451e-06
2.14884e-05
3.28506e-06
2.17626e-05
2.01863e-06
2.2021e-05
7.10198e-07
2.22804e-05
-5.49333e-07
2.25306e-05
-1.58417e-06
2.28531e-05
-2.77066e-06
2.33748e-05
-4.20249e-06
2.40176e-05
-5.78369e-06
2.45984e-05
-7.21148e-06
2.48957e-05
-8.34033e-06
2.50205e-05
-9.23457e-06
2.49801e-05
-9.6967e-06
2.48471e-05
-9.53903e-06
2.46471e-05
-8.7287e-06
2.441e-05
-7.43565e-06
2.3914e-05
-5.74548e-06
2.34669e-05
-4.27698e-06
2.33116e-05
-2.9604e-06
2.34154e-05
-1.50159e-06
2.3338e-05
3.42e-07
2.28081e-05
1.91919e-06
2.2021e-05
3.15842e-06
2.1439e-05
4.0305e-06
2.14332e-05
4.65742e-06
2.17699e-05
5.02013e-06
2.22163e-05
5.30729e-06
2.24401e-05
5.59079e-06
2.25913e-05
5.72674e-06
2.30458e-05
5.32164e-06
2.36366e-05
4.63536e-06
2.41589e-05
3.71612e-06
2.46554e-05
2.83171e-06
2.52326e-05
1.52959e-06
2.55695e-05
4.98711e-07
2.5947e-05
-1.17751e-06
2.63574e-05
-2.32651e-06
2.67993e-05
-3.59388e-06
2.68903e-05
-4.22989e-06
2.68785e-05
-5.79707e-06
2.65103e-05
-6.31728e-06
2.62236e-05
-6.98088e-06
2.58772e-05
-7.05154e-06
2.55167e-05
-7.77858e-06
2.46853e-05
-7.82593e-06
2.38918e-05
-7.93027e-06
2.32582e-05
-7.29987e-06
2.27214e-05
-6.45423e-06
2.15819e-05
-5.39494e-06
2.04151e-05
-5.44752e-06
1.93284e-05
-5.64152e-06
1.8386e-05
-5.83817e-06
1.73765e-05
-5.19518e-06
1.66253e-05
-4.35498e-06
1.605e-05
-2.69381e-06
1.58328e-05
-7.12139e-07
1.51939e-05
1.77221e-06
1.39867e-05
3.61949e-06
1.16591e-05
4.71411e-06
1.02165e-05
4.69599e-06
8.57853e-06
6.38287e-06
9.22734e-06
6.18635e-06
9.63751e-06
1.00878e-05
1.12021e-05
1.0282e-05
1.25243e-05
1.32749e-05
1.3329e-05
1.19688e-05
1.34215e-05
1.31232e-05
1.44865e-05
1.02012e-05
1.45981e-05
1.19204e-05
1.58876e-05
7.82758e-06
1.60193e-05
1.01095e-05
1.69979e-05
5.15358e-06
1.72142e-05
7.60182e-06
1.7528e-05
3.03753e-06
1.74516e-05
5.54983e-06
1.76025e-05
1.6394e-06
1.72427e-05
4.18027e-06
1.73809e-05
7.9691e-07
1.71192e-05
2.96842e-06
1.74492e-05
3.34895e-07
1.76437e-05
1.38515e-06
1.83377e-05
-4.7379e-07
1.87345e-05
-1.63666e-07
1.96555e-05
-1.82329e-06
1.99244e-05
-1.19667e-06
2.06838e-05
-3.50725e-06
2.09271e-05
-2.52467e-06
2.14522e-05
-5.58746e-06
2.1712e-05
-4.59344e-06
2.23288e-05
-7.87952e-06
2.24961e-05
-6.48027e-06
2.34022e-05
-9.37542e-06
2.34502e-05
-7.22835e-06
2.45034e-05
-9.17873e-06
2.44879e-05
-6.62482e-06
2.5195e-05
-7.86681e-06
2.48439e-05
-5.15583e-06
2.50518e-05
-6.53698e-06
2.4256e-05
-3.70178e-06
2.42918e-05
-5.66916e-06
2.3303e-05
-3.01184e-06
2.35622e-05
-5.25173e-06
2.26705e-05
-2.57391e-06
2.30676e-05
-4.65005e-06
2.21921e-05
-2.09593e-06
2.2601e-05
-4.00478e-06
2.16717e-05
-1.4418e-06
2.19133e-05
-3.10421e-06
2.07815e-05
-1.02454e-07
2.10451e-05
-1.58087e-06
2.01983e-05
1.64457e-06
2.08401e-05
3.19671e-07
2.04004e-05
3.74947e-06
2.13798e-05
2.24575e-06
2.11626e-05
5.88003e-06
2.22993e-05
3.97027e-06
2.21346e-05
7.82739e-06
2.31887e-05
5.20892e-06
2.28901e-05
9.41055e-06
2.39161e-05
5.71306e-06
2.33274e-05
1.04719e-05
2.47178e-05
5.309e-06
2.38825e-05
1.11785e-05
2.55438e-05
4.14491e-06
2.48255e-05
1.13649e-05
2.57408e-05
3.3408e-06
2.57002e-05
1.06731e-05
2.55499e-05
2.99142e-06
2.58156e-05
9.64948e-06
2.54863e-05
2.11556e-06
2.58711e-05
8.20926e-06
2.54934e-05
1.12053e-06
2.60887e-05
6.40169e-06
2.56097e-05
-1.3604e-07
2.61963e-05
4.4418e-06
2.56659e-05
-1.7167e-06
2.61711e-05
2.27645e-06
2.5436e-05
-3.7584e-06
2.57161e-05
1.36446e-09
2.47923e-05
-5.96336e-06
2.46309e-05
-1.21033e-06
2.36575e-05
-7.49435e-06
2.35379e-05
-2.95375e-06
2.27004e-05
-9.43304e-06
2.18044e-05
-3.79752e-06
2.02844e-05
-9.50865e-06
1.90229e-05
-1.50477e-06
1.79268e-05
-8.14958e-06
1.79878e-05
-1.13946e-06
1.83314e-05
-1.04286e-05
1.85325e-05
-4.11452e-06
1.88778e-05
-1.23582e-05
1.7984e-05
-3.6239e-06
1.84187e-05
-9.78772e-06
1.62729e-05
1.02365e-06
1.74061e-05
-5.67723e-06
1.67412e-05
7.11311e-06
2.06328e-05
3.07938e-07
1.42894e-05
2.4573e-05
1.94183e-05
-2.90728e-07
1.96191e-05
-4.68912e-07
1.98839e-05
-6.12585e-07
2.0094e-05
-6.22405e-07
2.02457e-05
-5.98726e-07
2.03168e-05
-4.46173e-07
2.03657e-05
-3.54912e-07
2.04001e-05
-2.23685e-07
2.04353e-05
-1.55193e-07
2.04814e-05
-9.84093e-08
2.05321e-05
-7.58887e-08
2.06217e-05
-1.23446e-07
2.07059e-05
-1.21031e-07
2.08246e-05
-1.96558e-07
2.09448e-05
-2.34587e-07
2.10678e-05
-2.66439e-07
2.12101e-05
-3.6083e-07
2.13297e-05
-3.72526e-07
2.14503e-05
-4.67018e-07
2.15511e-05
-5.35491e-07
2.16453e-05
-6.53265e-07
2.17088e-05
-7.4629e-07
2.1732e-05
-8.33271e-07
2.17578e-05
-9.96635e-07
2.17001e-05
-1.0236e-06
2.15706e-05
-1.04213e-06
2.14272e-05
-1.13762e-06
2.11668e-05
-9.79365e-07
2.07997e-05
-7.94216e-07
2.03951e-05
-6.07662e-07
1.99747e-05
-2.46083e-07
1.94405e-05
3.24324e-07
1.8902e-05
8.46839e-07
1.84003e-05
1.46332e-06
1.79554e-05
2.18074e-06
1.78006e-05
2.88016e-06
1.82082e-05
3.44364e-06
1.91333e-05
4.00275e-06
2.02168e-05
4.46464e-06
2.13174e-05
4.54749e-06
2.24435e-05
4.08965e-06
2.3429e-05
3.40894e-06
2.41017e-05
2.61234e-06
2.45309e-05
1.58948e-06
2.50232e-05
2.17919e-07
2.54401e-05
-9.66244e-07
2.58788e-05
-2.02291e-06
2.64713e-05
-3.36313e-06
2.7205e-05
-4.93624e-06
2.76686e-05
-6.2473e-06
2.78902e-05
-7.43299e-06
2.80317e-05
-8.48183e-06
2.81366e-05
-9.33953e-06
2.80652e-05
-9.62531e-06
2.76107e-05
-9.0845e-06
2.67178e-05
-7.83584e-06
2.59056e-05
-6.62342e-06
2.55497e-05
-5.38959e-06
2.52934e-05
-4.02066e-06
2.48285e-05
-2.49556e-06
2.44103e-05
-1.08336e-06
2.43639e-05
3.88361e-07
2.44742e-05
1.80897e-06
2.44551e-05
3.1775e-06
2.42561e-05
4.22946e-06
2.40596e-05
4.85397e-06
2.39206e-05
5.1591e-06
2.38224e-05
5.40551e-06
2.3982e-05
5.4312e-06
2.46011e-05
5.1076e-06
2.52659e-05
4.65684e-06
2.57075e-05
4.19381e-06
2.6215e-05
3.20856e-06
2.67204e-05
2.32628e-06
2.71348e-05
1.11521e-06
2.7407e-05
2.26527e-07
2.76395e-05
-1.40999e-06
2.76202e-05
-2.30727e-06
2.78936e-05
-3.86724e-06
2.78294e-05
-4.16565e-06
2.77454e-05
-5.71312e-06
2.74212e-05
-5.99304e-06
2.74748e-05
-7.03453e-06
2.69274e-05
-6.50413e-06
2.63475e-05
-7.19867e-06
2.57301e-05
-7.20854e-06
2.53966e-05
-7.59672e-06
2.45329e-05
-6.43624e-06
2.39532e-05
-5.87449e-06
2.31918e-05
-4.63358e-06
2.24686e-05
-4.72435e-06
2.14325e-05
-4.6054e-06
2.08254e-05
-5.231e-06
1.99047e-05
-4.27449e-06
1.91612e-05
-3.61152e-06
1.80867e-05
-1.61932e-06
1.76244e-05
-2.49791e-07
1.70948e-05
2.3018e-06
1.67303e-05
3.98392e-06
1.51298e-05
6.31465e-06
1.35323e-05
6.29344e-06
1.19523e-05
7.96292e-06
1.13394e-05
6.79923e-06
1.16204e-05
9.80686e-06
1.27621e-05
9.14026e-06
1.3768e-05
1.2269e-05
1.55495e-05
1.01874e-05
1.59479e-05
1.27248e-05
1.70435e-05
9.10556e-06
1.72228e-05
1.17411e-05
1.80142e-05
7.03615e-06
1.84683e-05
9.65541e-06
1.85906e-05
5.03127e-06
1.88909e-05
7.30158e-06
1.87074e-05
3.22099e-06
1.85588e-05
5.69844e-06
1.85117e-05
1.6865e-06
1.83311e-05
4.3609e-06
1.8523e-05
6.04982e-07
1.87238e-05
2.7676e-06
1.93834e-05
-3.24623e-07
1.99771e-05
7.91383e-07
2.11281e-05
-1.62474e-06
2.18242e-05
-8.59768e-07
2.29832e-05
-2.98229e-06
2.36303e-05
-1.84379e-06
2.44574e-05
-4.33434e-06
2.49308e-05
-2.99807e-06
2.54312e-05
-6.08785e-06
2.55579e-05
-4.72018e-06
2.59882e-05
-8.30979e-06
2.58225e-05
-6.31461e-06
2.63273e-05
-9.88022e-06
2.58964e-05
-6.79745e-06
2.65055e-05
-9.78778e-06
2.59827e-05
-6.10204e-06
2.66539e-05
-8.53799e-06
2.62108e-05
-4.71273e-06
2.68826e-05
-7.2088e-06
2.62741e-05
-3.09327e-06
2.68154e-05
-6.21046e-06
2.58071e-05
-2.00357e-06
2.60424e-05
-5.48702e-06
2.48544e-05
-1.38589e-06
2.50726e-05
-4.86828e-06
2.4038e-05
-1.06127e-06
2.44456e-05
-4.41242e-06
2.33858e-05
-3.81949e-07
2.38714e-05
-3.58984e-06
2.28354e-05
9.33554e-07
2.35129e-05
-2.25837e-06
2.25471e-05
2.61032e-06
2.35376e-05
-6.70781e-07
2.28541e-05
4.433e-06
2.40745e-05
1.02536e-06
2.36142e-05
6.34031e-06
2.50655e-05
2.51898e-06
2.46634e-05
8.22945e-06
2.6322e-05
3.5503e-06
2.58366e-05
9.89601e-06
2.72628e-05
4.28687e-06
2.67343e-05
1.10004e-05
2.7702e-05
4.3413e-06
2.73895e-05
1.1491e-05
2.74362e-05
4.09829e-06
2.76711e-05
1.113e-05
2.71205e-05
3.8914e-06
2.77841e-05
1.00095e-05
2.73729e-05
3.4026e-06
2.80492e-05
8.97318e-06
2.76452e-05
2.51961e-06
2.82682e-05
7.58625e-06
2.76013e-05
1.78744e-06
2.81601e-05
5.84286e-06
2.74565e-05
5.67566e-07
2.78626e-05
4.03573e-06
2.724e-05
-1.09418e-06
2.76504e-05
1.8661e-06
2.68716e-05
-2.97959e-06
2.69321e-05
-5.91709e-08
2.57585e-05
-4.78971e-06
2.56947e-05
-1.14658e-06
2.43686e-05
-6.1682e-06
2.42043e-05
-2.78947e-06
2.25359e-05
-7.76464e-06
2.18605e-05
-3.12215e-06
2.01874e-05
-7.83555e-06
2.03724e-05
-1.68974e-06
1.96763e-05
-7.45353e-06
2.10916e-05
-2.55476e-06
2.09038e-05
-1.02407e-05
2.19341e-05
-5.14484e-06
2.06625e-05
-1.10865e-05
2.05882e-05
-3.54969e-06
1.93914e-05
-8.59089e-06
1.92663e-05
1.14873e-06
1.7943e-05
-4.35385e-06
1.90973e-05
5.95873e-06
1.88955e-05
5.0981e-07
9.49888e-06
2.3686e-05
2.47357e-05
-5.30597e-07
2.52158e-05
-9.49013e-07
2.55949e-05
-9.91745e-07
2.57667e-05
-7.94198e-07
2.58247e-05
-6.56676e-07
2.58265e-05
-4.47985e-07
2.5829e-05
-3.57428e-07
2.58273e-05
-2.21948e-07
2.58486e-05
-1.765e-07
2.58651e-05
-1.14954e-07
2.58894e-05
-1.0016e-07
2.59431e-05
-1.77129e-07
2.59717e-05
-1.49627e-07
2.6047e-05
-2.71884e-07
2.61141e-05
-3.01715e-07
2.61917e-05
-3.43987e-07
2.62933e-05
-4.62478e-07
2.63711e-05
-4.50303e-07
2.64566e-05
-5.52559e-07
2.65012e-05
-5.80011e-07
2.65533e-05
-7.05445e-07
2.65512e-05
-7.4412e-07
2.65042e-05
-7.86344e-07
2.6463e-05
-9.55382e-07
2.63469e-05
-9.07487e-07
2.61747e-05
-8.69997e-07
2.60206e-05
-9.83522e-07
2.57862e-05
-7.44923e-07
2.54813e-05
-4.89315e-07
2.5223e-05
-3.49399e-07
2.49219e-05
5.50791e-08
2.45477e-05
6.98456e-07
2.41723e-05
1.22233e-06
2.397e-05
1.66556e-06
2.37746e-05
2.37617e-06
2.35474e-05
3.10737e-06
2.35669e-05
3.42416e-06
2.39577e-05
3.61191e-06
2.44504e-05
3.97189e-06
2.50303e-05
3.96765e-06
2.58544e-05
3.26558e-06
2.658e-05
2.68331e-06
2.72332e-05
1.95918e-06
2.78858e-05
9.36878e-07
2.85545e-05
-4.50772e-07
2.90548e-05
-1.46656e-06
2.96564e-05
-2.62455e-06
3.03809e-05
-4.0876e-06
3.08944e-05
-5.44976e-06
3.1084e-05
-6.43686e-06
3.12172e-05
-7.56625e-06
3.13399e-05
-8.60452e-06
3.09214e-05
-8.921e-06
2.97224e-05
-8.42634e-06
2.83658e-05
-7.7279e-06
2.75018e-05
-6.97179e-06
2.67927e-05
-5.91436e-06
2.60674e-05
-4.66423e-06
2.55489e-05
-3.50219e-06
2.5329e-05
-2.27569e-06
2.52249e-05
-9.79204e-07
2.5224e-05
3.89195e-07
2.53603e-05
1.67271e-06
2.56812e-05
2.85657e-06
2.60985e-05
3.81215e-06
2.63267e-05
4.62581e-06
2.6372e-05
5.11377e-06
2.6416e-05
5.36152e-06
2.6584e-05
5.26322e-06
2.66838e-05
5.00784e-06
2.66748e-05
4.66581e-06
2.69204e-05
3.94819e-06
2.75306e-05
2.59842e-06
2.7825e-05
2.0318e-06
2.80095e-05
9.30723e-07
2.82012e-05
3.48411e-08
2.85001e-05
-1.70884e-06
2.83004e-05
-2.10762e-06
2.82683e-05
-3.83507e-06
2.82751e-05
-4.1725e-06
2.83962e-05
-5.83423e-06
2.78861e-05
-5.48294e-06
2.76523e-05
-6.80073e-06
2.7289e-05
-6.14079e-06
2.71767e-05
-7.08644e-06
2.66185e-05
-6.65034e-06
2.61848e-05
-7.16292e-06
2.55141e-05
-5.76561e-06
2.49913e-05
-5.35164e-06
2.44811e-05
-4.12339e-06
2.41123e-05
-4.35561e-06
2.34582e-05
-3.95127e-06
2.2827e-05
-4.59976e-06
2.1924e-05
-3.37149e-06
2.1177e-05
-2.8645e-06
2.02052e-05
-6.47551e-07
1.95884e-05
3.66968e-07
1.89287e-05
2.9615e-06
1.88242e-05
4.08847e-06
1.8266e-05
6.87283e-06
1.73467e-05
7.21269e-06
1.58608e-05
9.44884e-06
1.46316e-05
8.0284e-06
1.39999e-05
1.04386e-05
1.46661e-05
8.47408e-06
1.51862e-05
1.17489e-05