/*--------------------------------*- C++ -*----------------------------------*\
| =========                 |                                                 |
| \\      /  F ield         | OpenFOAM: The Open Source CFD Toolbox           |
|  \\    /   O peration     | Version:  2.4.0                                 |
|   \\  /    A nd           | Web:      www.OpenFOAM.org                      |
|    \\/     M anipulation  |                                                 |
\*---------------------------------------------------------------------------*/
FoamFile
{
    version     2.0;
    format      ascii;
    class       surfaceScalarField;
    location    "0.63";
    object      phi_0;
}
// * * * * * * * * * * * * * * * * * * * * * * * * * * * * * * * * * * * * * //

dimensions      [0 3 -1 0 0 0 0];

internalField   nonuniform List<scalar> 
17320
(
1.76228e-05
7.3772e-06
1.16185e-05
6.00425e-06
8.69433e-06
2.92422e-06
7.35818e-06
1.33615e-06
6.68791e-06
6.70261e-07
6.35274e-06
3.35178e-07
6.09785e-06
2.54886e-07
5.82366e-06
2.7419e-07
5.69445e-06
1.29211e-07
5.63949e-06
5.49567e-08
5.48191e-06
1.57584e-07
5.38433e-06
9.75776e-08
5.36434e-06
1.99927e-08
5.25296e-06
1.11375e-07
5.13616e-06
1.16808e-07
5.09032e-06
4.58336e-08
4.98203e-06
1.08288e-07
4.94096e-06
4.10756e-08
4.65082e-06
2.90141e-07
-5.89441e-07
5.24026e-06
2.54153e-05
6.96186e-06
2.32645e-05
8.15508e-06
2.10018e-05
5.18692e-06
1.93171e-05
3.02083e-06
1.80423e-05
1.94507e-06
1.71361e-05
1.24138e-06
1.63672e-05
1.02379e-06
1.57047e-05
9.36712e-07
1.53003e-05
5.33564e-07
1.49911e-05
3.64174e-07
1.46273e-05
5.21365e-07
1.44077e-05
3.17263e-07
1.42414e-05
1.86236e-07
1.39921e-05
3.60692e-07
1.37759e-05
3.33047e-07
1.3624e-05
1.97698e-07
1.33898e-05
3.42429e-07
1.32344e-05
1.96482e-07
1.30231e-05
5.01528e-07
-4.73868e-07
1.29075e-05
2.65336e-05
5.42823e-06
2.71829e-05
7.50579e-06
2.68117e-05
5.5581e-06
2.62584e-05
3.57416e-06
2.55651e-05
2.63834e-06
2.49059e-05
1.90065e-06
2.41568e-05
1.77284e-06
2.34158e-05
1.67774e-06
2.29251e-05
1.02424e-06
2.24838e-05
8.0548e-07
2.20082e-05
9.96937e-07
2.17157e-05
6.09796e-07
2.14666e-05
4.35384e-07
2.11265e-05
7.00808e-07
2.08891e-05
5.70414e-07
2.06487e-05
4.38093e-07
2.0415e-05
5.76159e-07
2.00885e-05
5.22912e-07
2.00118e-05
5.78288e-07
1.25024e-07
1.94129e-05
2.6229e-05
4.19923e-06
2.74947e-05
6.24009e-06
2.81278e-05
4.92497e-06
2.85016e-05
3.20044e-06
2.86193e-05
2.52058e-06
2.86567e-05
1.86329e-06
2.84991e-05
1.93037e-06
2.81266e-05
2.05031e-06
2.79448e-05
1.20602e-06
2.76915e-05
1.05874e-06
2.73792e-05
1.30924e-06
2.71672e-05
8.2184e-07
2.70214e-05
5.81143e-07
2.67036e-05
1.01866e-06
2.65595e-05
7.14474e-07
2.63066e-05
6.90991e-07
2.61786e-05
7.04149e-07
2.57709e-05
9.30584e-07
2.5561e-05
7.882e-07
1.1906e-06
2.44955e-05
2.60948e-05
3.1044e-06
2.71671e-05
5.16777e-06
2.80967e-05
3.99543e-06
2.86142e-05
2.68288e-06
2.90479e-05
2.08694e-06
2.94374e-05
1.47374e-06
2.9771e-05
1.59681e-06
2.9728e-05
2.09326e-06
2.98216e-05
1.11245e-06
2.98669e-05
1.01347e-06
2.99321e-05
1.24402e-06
2.99364e-05
8.17506e-07
3.00271e-05
4.90492e-07
2.99741e-05
1.07163e-06
3.00373e-05
6.51292e-07
2.99675e-05
7.60842e-07
2.99781e-05
6.93482e-07
2.99273e-05
9.8145e-07
3.00031e-05
7.12343e-07
7.15835e-07
3.04779e-05
2.59351e-05
2.16929e-06
2.68845e-05
4.21833e-06
2.79026e-05
2.9774e-06
2.8455e-05
2.13044e-06
2.87664e-05
1.77554e-06
2.90865e-05
1.15369e-06
2.9717e-05
9.66248e-07
3.00089e-05
1.80138e-06
3.01173e-05
1.00402e-06
3.0165e-05
9.65811e-07
3.03888e-05
1.02017e-06
3.05172e-05
6.89162e-07
3.06878e-05
3.19852e-07
3.09316e-05
8.27847e-07
3.12251e-05
3.57836e-07
3.1414e-05
5.7188e-07
3.15826e-05
5.24896e-07
3.18764e-05
6.87616e-07
3.20034e-05
5.85415e-07
1.41138e-07
3.25781e-05
2.57122e-05
1.45707e-06
2.65401e-05
3.39046e-06
2.75353e-05
1.98218e-06
2.82834e-05
1.38231e-06
2.85563e-05
1.50269e-06
2.86859e-05
1.02411e-06
2.92426e-05
4.09529e-07
2.97359e-05
1.30808e-06
2.98266e-05
9.13302e-07
3.00383e-05
7.54124e-07
3.03711e-05
6.87403e-07
3.04952e-05
5.65018e-07
3.04221e-05
3.93013e-07
3.06117e-05
6.38197e-07
3.08995e-05
7.00503e-08
3.1241e-05
2.30394e-07
3.16462e-05
1.19707e-07
3.21035e-05
2.30298e-07
3.24158e-05
2.73121e-07
-1.26342e-07
3.26833e-05
2.55263e-05
9.30774e-07
2.6361e-05
2.5558e-06
2.73949e-05
9.48272e-07
2.81302e-05
6.46952e-07
2.83302e-05
1.30271e-06
2.8386e-05
9.68327e-07
2.87561e-05
3.94543e-08
2.93983e-05
6.65836e-07
2.97849e-05
5.26736e-07
3.01365e-05
4.02481e-07
3.019e-05
6.33958e-07
3.00692e-05
6.85758e-07
2.99645e-05
4.97687e-07
3.03446e-05
2.5817e-07
3.07345e-05
-3.19846e-07
3.12356e-05
-2.70712e-07
3.16335e-05
-2.78239e-07
3.18682e-05
-4.33857e-09
3.18994e-05
2.41907e-07
2.01011e-07
3.1572e-05
2.55319e-05
3.98908e-07
2.65555e-05
1.53212e-06
2.72848e-05
2.19058e-07
2.77724e-05
1.59305e-07
2.81392e-05
9.35929e-07
2.85236e-05
5.83928e-07
2.86009e-05
-3.78986e-08
2.89983e-05
2.68456e-07
2.95699e-05
-4.48507e-08
2.99615e-05
1.08391e-08
2.99297e-05
6.65836e-07
2.99122e-05
7.03175e-07
3.01713e-05
2.38673e-07
3.05196e-05
-9.02168e-08
3.0651e-05
-4.5118e-07
3.09057e-05
-5.25463e-07
3.1123e-05
-4.95476e-07
3.12059e-05
-8.7287e-08
3.107e-05
3.77789e-07
4.41231e-07
3.08298e-05
2.5509e-05
-1.10081e-07
2.67258e-05
3.15308e-07
2.72654e-05
-3.20521e-07
2.75642e-05
-1.39462e-07
2.8052e-05
4.4803e-07
2.87202e-05
-8.41889e-08
2.87502e-05
-6.79803e-08
2.8898e-05
1.20728e-07
2.93227e-05
-4.6956e-07
2.98123e-05
-4.78757e-07
2.98774e-05
6.00686e-07
2.99693e-05
6.11289e-07
3.0295e-05
-8.70075e-08
3.03809e-05
-1.76157e-07
3.0264e-05
-3.34268e-07
3.03979e-05
-6.59301e-07
3.06963e-05
-7.93876e-07
3.09802e-05
-3.71236e-07
3.1157e-05
2.00965e-07
1.73549e-07
3.14247e-05
2.54062e-05
-5.1625e-07
2.6587e-05
-8.65522e-07
2.72886e-05
-1.02213e-06
2.77184e-05
-5.69209e-07
2.80984e-05
6.79528e-08
2.8641e-05
-6.26738e-07
2.89608e-05
-3.87776e-07
2.92078e-05
-1.26299e-07
2.9411e-05
-6.72752e-07
2.96044e-05
-6.72196e-07
2.97168e-05
4.88326e-07
3.00076e-05
3.2048e-07
3.03168e-05
-3.96215e-07
3.04575e-05
-3.16863e-07
3.04884e-05
-3.65164e-07
3.06249e-05
-7.95762e-07
3.08359e-05
-1.00494e-06
3.10901e-05
-6.25387e-07
3.15248e-05
-2.33748e-07
-4.90467e-08
3.17474e-05
2.54562e-05
-9.7243e-07
2.6483e-05
-1.89234e-06
2.72015e-05
-1.74067e-06
2.7814e-05
-1.18165e-06
2.82917e-05
-4.09768e-07
2.87134e-05
-1.04846e-06
2.90099e-05
-6.84257e-07
2.92747e-05
-3.91063e-07
2.94684e-05
-8.66505e-07
2.95221e-05
-7.25882e-07
2.97294e-05
2.81001e-07
3.01551e-05
-1.05157e-07
3.04864e-05
-7.27565e-07
3.06994e-05
-5.29871e-07
3.08247e-05
-4.90422e-07
3.10368e-05
-1.00784e-06
3.10543e-05
-1.02249e-06
3.11975e-05
-7.68538e-07
3.14881e-05
-5.24419e-07
-2.87607e-07
3.17267e-05
2.5643e-05
-1.6154e-06
2.65068e-05
-2.7562e-06
2.72319e-05
-2.46576e-06
2.79633e-05
-1.913e-06
2.83817e-05
-8.28163e-07
2.87177e-05
-1.3845e-06
2.9087e-05
-1.0536e-06
2.9375e-05
-6.79064e-07
2.95565e-05
-1.048e-06
2.96435e-05
-8.12862e-07
2.98699e-05
5.46154e-08
3.02964e-05
-5.3163e-07
3.05515e-05
-9.82716e-07
3.07451e-05
-7.23487e-07
3.09482e-05
-6.93493e-07
3.11699e-05
-1.22949e-06
3.11283e-05
-9.80918e-07
3.12238e-05
-8.64043e-07
3.14108e-05
-7.11445e-07
-5.95878e-07
3.17191e-05
2.57223e-05
-2.33774e-06
2.65757e-05
-3.60957e-06
2.7526e-05
-3.41606e-06
2.81752e-05
-2.56215e-06
2.8568e-05
-1.22102e-06
2.88642e-05
-1.68072e-06
2.92296e-05
-1.41891e-06
2.94412e-05
-8.90735e-07
2.96382e-05
-1.245e-06
2.98805e-05
-1.05512e-06
3.01595e-05
-2.24417e-07
3.05419e-05
-9.1405e-07
3.07343e-05
-1.17505e-06
3.08932e-05
-8.82444e-07
3.10022e-05
-8.02435e-07
3.11351e-05
-1.36238e-06
3.11375e-05
-9.83386e-07
3.12934e-05
-1.01995e-06
3.15328e-05
-9.50827e-07
-1.01751e-06
3.19545e-05
2.57609e-05
-3.09866e-06
2.68561e-05
-4.70478e-06
2.79664e-05
-4.52632e-06
2.83643e-05
-2.96011e-06
2.86932e-05
-1.54992e-06
2.90573e-05
-2.04479e-06
2.94064e-05
-1.76804e-06
2.96046e-05
-1.0889e-06
2.98958e-05
-1.53617e-06
3.02194e-05
-1.37875e-06
3.0527e-05
-5.32051e-07
3.07639e-05
-1.15095e-06
3.08525e-05
-1.2636e-06
3.08787e-05
-9.08708e-07
3.08712e-05
-7.94859e-07
3.08603e-05
-1.35147e-06
3.08593e-05
-9.82476e-07
3.10357e-05
-1.19633e-06
3.1258e-05
-1.17308e-06
-1.47077e-06
3.17112e-05
2.59301e-05
-4.02873e-06
2.7336e-05
-6.11072e-06
2.82021e-05
-5.39238e-06
2.84741e-05
-3.23215e-06
2.89423e-05
-2.01813e-06
2.92816e-05
-2.38404e-06
2.95123e-05
-1.99881e-06
2.97249e-05
-1.30146e-06
2.98565e-05
-1.66774e-06
2.99407e-05
-1.46295e-06
3.00806e-05
-6.71941e-07
3.00434e-05
-1.11383e-06
2.99445e-05
-1.16469e-06
2.98376e-05
-8.01776e-07
2.97368e-05
-6.9408e-07
2.95615e-05
-1.17609e-06
2.94777e-05
-8.98741e-07
2.94438e-05
-1.16236e-06
2.94159e-05
-1.1452e-06
-1.59259e-06
2.95377e-05
2.62723e-05
-5.30105e-06
2.76908e-05
-7.52919e-06
2.80976e-05
-5.79921e-06
2.8395e-05
-3.52948e-06
2.86891e-05
-2.31228e-06
2.8581e-05
-2.27595e-06
2.84092e-05
-1.82703e-06
2.82893e-05
-1.18151e-06
2.79404e-05
-1.31882e-06
2.76447e-05
-1.16728e-06
2.75076e-05
-5.3487e-07
2.7157e-05
-7.63164e-07
2.68324e-05
-8.40132e-07
2.65916e-05
-5.60993e-07
2.63463e-05
-4.4878e-07
2.60047e-05
-8.34484e-07
2.57796e-05
-6.73623e-07
2.54708e-05
-8.53571e-07
2.52265e-05
-9.00935e-07
-1.4074e-06
2.50413e-05
2.66096e-05
-6.91069e-06
2.72445e-05
-8.16401e-06
2.67336e-05
-5.28835e-06
2.62235e-05
-3.0194e-06
2.56592e-05
-1.74793e-06
2.48223e-05
-1.43907e-06
2.41037e-05
-1.10846e-06
2.35526e-05
-6.30343e-07
2.28965e-05
-6.62722e-07
2.23806e-05
-6.51458e-07
2.2076e-05
-2.3023e-07
2.16508e-05
-3.37956e-07
2.12775e-05
-4.66797e-07
2.10093e-05
-2.92825e-07
2.07525e-05
-1.92001e-07
2.03915e-05
-4.73458e-07
2.01146e-05
-3.96726e-07
1.97149e-05
-4.53868e-07
1.93228e-05
-5.08858e-07
-5.21821e-07
1.84372e-05
2.54561e-05
-7.36683e-06
2.32898e-05
-5.9977e-06
2.09583e-05
-2.95682e-06
1.92928e-05
-1.35391e-06
1.81196e-05
-5.74704e-07
1.70836e-05
-4.03077e-07
1.63067e-05
-3.31603e-07
1.58056e-05
-1.29235e-07
1.52938e-05
-1.50903e-07
1.486e-05
-2.17684e-07
1.46553e-05
-2.55071e-08
1.43802e-05
-6.29078e-08
1.40832e-05
-1.69794e-07
1.38821e-05
-9.16996e-08
1.37168e-05
-2.66609e-08
1.34131e-05
-1.69805e-07
1.31578e-05
-1.41399e-07
1.28454e-05
-1.41457e-07
1.25523e-05
-2.15788e-07
-9.21006e-08
1.21226e-05
1.76332e-05
1.16355e-05
8.67865e-06
7.32475e-06
6.75004e-06
6.34697e-06
6.01536e-06
5.88613e-06
5.73523e-06
5.51754e-06
5.49203e-06
5.42913e-06
5.25933e-06
5.16763e-06
5.14097e-06
4.97117e-06
4.82977e-06
4.68831e-06
4.47252e-06
4.38042e-06
5.70908e-06
-2.27271e-07
-2.41548e-07
6.08386e-06
-9.64572e-08
-2.78322e-07
6.3743e-06
-1.31865e-07
-1.58574e-07
6.66022e-06
-2.119e-07
-7.40281e-08
6.93344e-06
-2.69401e-07
-3.81715e-09
7.16238e-06
-2.50826e-07
2.18864e-08
7.34565e-06
-1.98225e-07
1.4953e-08
7.48879e-06
-1.11319e-07
-3.18177e-08
7.63108e-06
-4.06737e-08
-1.01616e-07
7.79784e-06
4.12593e-08
-2.08016e-07
7.96537e-06
7.68601e-08
-2.44391e-07
8.14419e-06
9.17116e-08
-2.70536e-07
8.31521e-06
7.8359e-08
-2.49373e-07
8.51345e-06
6.20666e-08
-2.60313e-07
8.71246e-06
3.32895e-08
-2.32293e-07
8.92539e-06
1.0386e-08
-2.23316e-07
9.13796e-06
-4.52025e-08
-1.67369e-07
9.35423e-06
-8.62591e-08
-1.30015e-07
9.55273e-06
-1.8271e-07
-1.5791e-08
9.7475e-06
-2.82166e-07
8.73964e-08
9.91368e-06
-4.23891e-07
2.5771e-07
1.00729e-05
-5.61477e-07
4.02294e-07
1.01808e-05
-7.34517e-07
6.26628e-07
1.02575e-05
-9.14267e-07
8.37549e-07
1.02293e-05
-1.10425e-06
1.13241e-06
1.01212e-05
-1.27755e-06
1.38568e-06
9.85343e-06
-1.43988e-06
1.70764e-06
9.44495e-06
-1.48943e-06
1.89791e-06
8.84805e-06
-1.50837e-06
2.10527e-06
8.28278e-06
-1.46979e-06
2.03506e-06
7.80383e-06
-1.29731e-06
1.77626e-06
7.73052e-06
-9.59968e-07
1.03328e-06
8.06039e-06
-2.80567e-07
-4.93077e-08
8.96062e-06
7.61238e-07
-1.66146e-06
1.01768e-05
2.22899e-06
-3.44515e-06
1.14773e-05
3.86768e-06
-5.16822e-06
1.27477e-05
5.42804e-06
-6.69843e-06
1.39128e-05
6.54231e-06
-7.7074e-06
1.49869e-05
7.00493e-06
-8.07906e-06
1.58889e-05
6.87347e-06
-7.77545e-06
1.65888e-05
6.13831e-06
-6.83821e-06
1.70965e-05
4.96822e-06
-5.47592e-06
1.74817e-05
3.49113e-06
-3.87628e-06
1.78608e-05
2.06309e-06
-2.4422e-06
1.82465e-05
7.58723e-07
-1.14442e-06
1.86695e-05
-4.82586e-07
5.95107e-08
1.89144e-05
-1.51475e-06
1.26987e-06
1.9106e-05
-2.66853e-06
2.47695e-06
1.93911e-05
-3.94685e-06
3.66177e-06
1.98496e-05
-5.42772e-06
4.96916e-06
2.03682e-05
-6.90576e-06
6.38722e-06
2.0868e-05
-8.27226e-06
7.77245e-06
2.12622e-05
-9.251e-06
8.85681e-06
2.14965e-05
-9.75142e-06
9.51714e-06
2.16016e-05
-9.52765e-06
9.42248e-06
2.16036e-05
-8.65482e-06
8.65286e-06
2.14637e-05
-7.34378e-06
7.48365e-06
2.13417e-05
-5.91856e-06
6.04058e-06
2.13085e-05
-4.39624e-06
4.4295e-06
2.12044e-05
-2.76893e-06
2.87303e-06
2.08829e-05
-1.06424e-06
1.38571e-06
2.02592e-05
5.19649e-07
1.04047e-07
1.9839e-05
1.57141e-06
-1.15118e-06
1.9589e-05
2.56486e-06
-2.31491e-06
1.95076e-05
3.67305e-06
-3.59163e-06
1.94174e-05
4.82801e-06
-4.73785e-06
1.94137e-05
5.44066e-06
-5.43689e-06
1.97057e-05
5.76942e-06
-6.06146e-06
2.02827e-05
5.81117e-06
-6.38819e-06
2.09139e-05
5.86828e-06
-6.49947e-06
2.14597e-05
5.70101e-06
-6.24682e-06
2.22123e-05
5.06198e-06
-5.81452e-06
2.30713e-05
4.07446e-06
-4.9335e-06
2.36826e-05
3.17099e-06
-3.78225e-06
2.42259e-05
1.92567e-06
-2.46899e-06
2.47083e-05
6.28507e-07
-1.1109e-06
2.5209e-05
-9.52696e-07
4.52009e-07
2.54332e-05
-2.00083e-06
1.77662e-06
2.55131e-05
-3.22425e-06
3.1443e-06
2.5511e-05
-4.30257e-06
4.30476e-06
2.55256e-05
-5.95078e-06
5.93616e-06
2.53356e-05
-6.68218e-06
6.87219e-06
2.51194e-05
-7.18542e-06
7.40161e-06
2.46941e-05
-7.39626e-06
7.82152e-06
2.42901e-05
-8.21947e-06
8.62348e-06
2.36007e-05
-8.69722e-06
9.38659e-06
2.25816e-05
-8.6207e-06
9.63982e-06
2.15765e-05
-7.71287e-06
8.71804e-06
2.04789e-05
-6.87324e-06
7.9708e-06
1.93025e-05
-6.61782e-06
7.79423e-06
1.81614e-05
-6.7851e-06
7.9262e-06
1.68331e-05
-6.9008e-06
8.22907e-06
1.5763e-05
-6.84062e-06
7.91078e-06
1.50021e-05
-6.09711e-06
6.85796e-06
1.44573e-05
-4.83378e-06
5.37856e-06
1.42431e-05
-2.84817e-06
3.06235e-06
1.37532e-05
-4.92008e-07
9.81919e-07
1.25121e-05
1.45628e-06
-2.15154e-07
1.01625e-05
2.56631e-06
-2.16737e-07
7.97128e-06
2.5039e-06
-3.1265e-07
6.70173e-06
3.44116e-06
-2.17161e-06
6.50492e-06
4.96272e-06
-4.7659e-06
7.58856e-06
7.0105e-06
-8.09415e-06
7.8258e-06
1.06916e-05
-1.09288e-05
9.77556e-06
1.18558e-05
-1.38055e-05
9.96715e-06
1.45795e-05
-1.47711e-05
1.0236e-05
1.27097e-05
-1.29786e-05
1.03005e-05
1.31456e-05
-1.32102e-05
1.09111e-05
1.11148e-05
-1.17254e-05
1.11958e-05
1.18975e-05
-1.21821e-05
1.24509e-05
8.86626e-06
-1.01214e-05
1.2743e-05
1.00162e-05
-1.03083e-05
1.41216e-05
5.88196e-06
-7.26058e-06
1.42955e-05
7.60649e-06
-7.78037e-06
1.53638e-05
3.15874e-06
-4.22708e-06
1.5369e-05
5.38257e-06
-5.38777e-06
1.59875e-05
1.65667e-06
-2.2751e-06
1.56544e-05
3.78969e-06
-3.45661e-06
1.60778e-05
8.29503e-07
-1.25289e-06
1.56577e-05
2.69144e-06
-2.27133e-06
1.59431e-05
5.40776e-07
-8.26203e-07
1.58581e-05
1.51425e-06
-1.42924e-06
1.61474e-05
7.55661e-08
-3.64907e-07
1.63466e-05
1.07308e-07
-3.06529e-07
1.68192e-05
-1.02372e-06
5.51118e-07
1.69291e-05
-1.13446e-06
1.02456e-06
1.75468e-05
-2.89432e-06
2.27667e-06
1.76918e-05
-2.57195e-06
2.42697e-06
1.83384e-05
-5.29063e-06
4.64398e-06
1.86855e-05
-4.6188e-06
4.27171e-06
1.94846e-05
-7.44454e-06
6.64548e-06
1.9905e-05
-6.43654e-06
6.01612e-06
2.10076e-05
-8.42256e-06
7.31991e-06
2.13335e-05
-7.04666e-06
6.72082e-06
2.23032e-05
-7.85329e-06
6.88357e-06
2.23394e-05
-6.395e-06
6.35876e-06
2.28123e-05
-6.84288e-06
6.37001e-06
2.25741e-05
-5.31303e-06
5.55126e-06
2.28391e-05
-6.07849e-06
5.81348e-06
2.2463e-05
-4.35908e-06
4.73517e-06
2.27007e-05
-5.4991e-06
5.2614e-06
2.21924e-05
-3.90334e-06
4.41164e-06
2.23828e-05
-4.88676e-06
4.69629e-06
2.18225e-05
-3.38174e-06
3.94209e-06
2.19576e-05
-4.19051e-06
4.05539e-06
2.13384e-05
-2.94615e-06
3.5654e-06
2.12119e-05
-3.57451e-06
3.70103e-06
2.04023e-05
-2.38072e-06
3.19023e-06
2.01659e-05
-2.8215e-06
3.05799e-06
1.9339e-05
-1.1849e-06
2.0118e-06
1.93418e-05
-1.21986e-06
1.21701e-06
1.87626e-05
9.02074e-07
-3.22847e-07
1.90863e-05
1.06385e-06
-1.38755e-06
1.86223e-05
3.39751e-06
-2.93351e-06
1.92656e-05
3.27447e-06
-3.9178e-06
1.88331e-05
5.70874e-06
-5.27624e-06
1.94732e-05
5.12048e-06
-5.76052e-06
1.88146e-05
7.66563e-06
-7.00709e-06
1.93472e-05
6.25691e-06
-6.78952e-06
1.87942e-05
9.09278e-06
-8.5398e-06
1.95033e-05
6.6901e-06
-7.39917e-06
1.9373e-05
9.85877e-06
-9.72847e-06
2.02884e-05
6.62192e-06
-7.53732e-06
2.02136e-05
1.02952e-05
-1.02204e-05
2.15668e-05
5.71961e-06
-7.07279e-06
2.10805e-05
1.05857e-05
-1.00994e-05
2.29215e-05
4.17045e-06
-6.0115e-06
2.22027e-05
1.05768e-05
-9.85792e-06
2.36363e-05
2.75432e-06
-4.18796e-06
2.33147e-05
9.86e-06
-9.53837e-06
2.36497e-05
1.70154e-06
-2.03655e-06
2.37301e-05
8.57222e-06
-8.65261e-06
2.37036e-05
6.54455e-07
-6.27938e-07
2.3987e-05
6.96195e-06
-7.24543e-06
2.36529e-05
-7.3847e-07
1.07266e-06
2.39856e-05
4.98827e-06
-5.32099e-06
2.37133e-05
-2.40284e-06
2.67507e-06
2.39348e-05
2.68076e-06
-2.90218e-06
2.36989e-05
-4.69111e-06
4.92695e-06
2.36965e-05
1.87515e-07
-1.85084e-07
2.33753e-05
-6.96609e-06
7.28726e-06
2.28181e-05
-1.36563e-06
1.92287e-06
2.24852e-05
-8.62979e-06
8.96265e-06
2.19339e-05
-3.12775e-06
3.67909e-06
2.18423e-05
-1.04444e-05
1.0536e-05
2.08886e-05
-4.61482e-06
5.56853e-06
2.02449e-05
-1.08574e-05
1.15011e-05
1.80209e-05
-2.45964e-06
4.68366e-06
1.76527e-05
-9.21705e-06
9.58523e-06
1.59608e-05
-1.22511e-06
2.91697e-06
1.72635e-05
-1.04668e-05
9.16406e-06
1.63751e-05
-4.21781e-06
5.10629e-06
1.80769e-05
-1.2093e-05
1.03911e-05
1.66228e-05
-4.361e-06
5.8151e-06
1.80117e-05
-9.14812e-06
7.7592e-06
1.5791e-05
-9.27925e-07
3.1487e-06
1.85332e-05
-4.24206e-06
1.49985e-06
1.66867e-05
6.79799e-06
-4.95148e-06
1.97143e-05
4.44964e-06
-7.47729e-06
1.82208e-05
-1.63707e-05
1.78642e-05
1.29659e-05
-2.85659e-07
1.3141e-05
-2.71602e-07
1.33563e-05
-3.47106e-07
1.35521e-05
-4.0776e-07
1.37206e-05
-4.37924e-07
1.38367e-05
-3.66839e-07
1.39397e-05
-3.01293e-07
1.40154e-05
-1.86985e-07
1.40973e-05
-1.22621e-07
1.41926e-05
-5.40278e-08
1.43011e-05
-3.16508e-08
1.44308e-05
-3.79695e-08
1.45515e-05
-4.23477e-08
1.46992e-05
-8.56122e-08
1.48506e-05
-1.18152e-07
1.50136e-05
-1.52594e-07
1.51937e-05
-2.25319e-07
1.53675e-05
-2.60023e-07
1.55424e-05
-3.57648e-07
1.57062e-05
-4.45958e-07
1.58542e-05
-5.71877e-07
1.59851e-05
-6.92342e-07
1.60748e-05
-8.24197e-07
1.61393e-05
-9.78766e-07
1.61138e-05
-1.07881e-06
1.60109e-05
-1.17462e-06
1.58395e-05
-1.26846e-06
1.55609e-05
-1.21082e-06
1.51868e-05
-1.13428e-06
1.46824e-05
-9.65432e-07
1.39824e-05
-5.9733e-07
1.31686e-05
-1.46177e-07
1.25003e-05
3.87753e-07
1.22078e-05
1.05374e-06
1.25909e-05
1.84587e-06
1.36061e-05
2.85255e-06
1.50574e-05
3.97668e-06
1.65877e-05
5.01204e-06
1.80315e-05
5.56107e-06
1.9321e-05
5.58406e-06
2.03664e-05
5.09286e-06
2.1102e-05
4.23266e-06
2.15047e-05
3.08836e-06
2.17721e-05
1.79579e-06
2.20375e-05
4.93253e-07
2.22919e-05
-7.36941e-07
2.2551e-05
-1.77386e-06
2.29074e-05
-3.025e-06
2.34658e-05
-4.5052e-06
2.41188e-05
-6.08074e-06
2.46608e-05
-7.44776e-06
2.49081e-05
-8.51952e-06
2.49963e-05
-9.33922e-06
2.49239e-05
-9.67901e-06
2.47794e-05
-9.38314e-06
2.45892e-05
-8.46461e-06
2.43236e-05
-7.07824e-06
2.37983e-05
-5.39326e-06
2.3401e-05
-3.9989e-06
2.33174e-05
-2.68533e-06
2.34138e-05
-1.16063e-06
2.32361e-05
6.97368e-07
2.26066e-05
2.20085e-06
2.18138e-05
3.35768e-06
2.13313e-05
4.15558e-06
2.1438e-05
4.72131e-06
2.18154e-05
5.06326e-06
2.22177e-05
5.36711e-06
2.23842e-05
5.64466e-06
2.25654e-05
5.68705e-06
2.30767e-05
5.18974e-06
2.36677e-05
4.47102e-06
2.41803e-05
3.56184e-06
2.46959e-05
2.6554e-06
2.52628e-05
1.35876e-06
2.56075e-05
2.83828e-07
2.60346e-05
-1.37986e-06
2.64828e-05
-2.449e-06
2.68887e-05
-3.63019e-06
2.69389e-05
-4.35275e-06
2.68905e-05
-5.90236e-06
2.65149e-05
-6.30664e-06
2.62445e-05
-6.91499e-06
2.59092e-05
-7.06093e-06
2.55099e-05
-7.82019e-06
2.46322e-05
-7.81947e-06
2.38467e-05
-7.83523e-06
2.32366e-05
-7.10283e-06
2.26026e-05
-6.23921e-06
2.13727e-05
-5.38787e-06
2.02232e-05
-5.63565e-06
1.91684e-05
-5.84601e-06
1.82316e-05
-5.90379e-06
1.72563e-05
-5.12185e-06
1.65659e-05
-4.14334e-06
1.60676e-05
-2.34987e-06
1.58477e-05
-2.72142e-07
1.51196e-05
2.18444e-06
1.38127e-05
3.87315e-06
1.14647e-05
4.85195e-06
1.00865e-05
4.8193e-06
8.51213e-06
6.53713e-06
9.19921e-06
6.32342e-06
9.65307e-06
1.02377e-05
1.1199e-05
1.03099e-05
1.2555e-05
1.32235e-05
1.34148e-05
1.18499e-05
1.35289e-05
1.30315e-05
1.46435e-05
1.00002e-05
1.47886e-05
1.17524e-05
1.60343e-05
7.62051e-06
1.61624e-05
9.88814e-06
1.70979e-05
4.94643e-06
1.72501e-05
7.45427e-06
1.75096e-05
2.89929e-06
1.74035e-05
5.48863e-06
1.75202e-05
1.53994e-06
1.71632e-05
4.14668e-06
1.73207e-05
6.71977e-07
1.70931e-05
2.91906e-06
1.74785e-05
1.55439e-07
1.77087e-05
1.28403e-06
1.8424e-05
-6.39713e-07
1.88292e-05
-2.97956e-07
1.97084e-05
-1.90284e-06
1.99446e-05
-1.37074e-06
2.06751e-05
-3.6248e-06
2.08857e-05
-2.78256e-06
2.14183e-05
-5.82323e-06
2.16979e-05
-4.89841e-06
2.23245e-05
-8.07106e-06
2.25537e-05
-6.66575e-06
2.34713e-05
-9.34022e-06
2.35692e-05
-7.14455e-06
2.46239e-05
-8.90801e-06
2.45742e-05
-6.34528e-06
2.52175e-05
-7.48616e-06
2.47916e-05
-4.88713e-06
2.4927e-05
-6.21384e-06
2.41145e-05
-3.54663e-06
2.41308e-05
-5.5154e-06
2.31894e-05
-2.96192e-06
2.34804e-05
-5.17772e-06
2.26284e-05
-2.5298e-06
2.30438e-05
-4.60588e-06
2.21794e-05
-2.08176e-06
2.25834e-05
-3.9785e-06
2.16352e-05
-1.43257e-06
2.18504e-05
-3.03667e-06
2.07257e-05
-6.01955e-08
2.10058e-05
-1.49999e-06
2.02002e-05
1.70768e-06
2.08753e-05
3.88784e-07
2.04518e-05
3.821e-06
2.14375e-05
2.28876e-06
2.12242e-05
5.92202e-06
2.23597e-05
3.98496e-06
2.21858e-05
7.83954e-06
2.32382e-05
5.20453e-06
2.29136e-05
9.41733e-06
2.39374e-05
5.66629e-06
2.33447e-05
1.04515e-05
2.47319e-05
5.2347e-06
2.39239e-05
1.11032e-05
2.55877e-05
4.05581e-06
2.48731e-05
1.13003e-05
2.58149e-05
3.22861e-06
2.57524e-05
1.06394e-05
2.55922e-05
2.91445e-06
2.5864e-05
9.58821e-06
2.55361e-05
2.02943e-06
2.59223e-05
8.18607e-06
2.55686e-05
1.00814e-06
2.61603e-05
6.3703e-06
2.56802e-05
-2.58368e-07
2.62544e-05
4.41403e-06
2.57236e-05
-1.87208e-06
2.61971e-05
2.20727e-06
2.54449e-05
-3.93885e-06
2.56916e-05
-5.92635e-08
2.47291e-05
-6.00359e-06
2.45607e-05
-1.19716e-06
2.36376e-05
-7.70668e-06
2.35198e-05
-3.00995e-06
2.2644e-05
-9.56861e-06
2.16506e-05
-3.62144e-06
2.01262e-05
-9.33306e-06
1.8906e-05
-1.23938e-06
1.7964e-05
-8.27504e-06
1.81592e-05
-1.42031e-06
1.85659e-05
-1.08736e-05
1.86564e-05
-4.30828e-06
1.90317e-05
-1.24682e-05
1.80163e-05
-3.34561e-06
1.84162e-05
-9.548e-06
1.62035e-05
1.28478e-06
1.74905e-05
-5.52913e-06
1.69275e-05
7.36106e-06
2.08523e-05
5.24861e-07
1.4303e-05
2.477e-05
1.94199e-05
-2.9273e-07
1.96213e-05
-4.7293e-07
1.98862e-05
-6.12049e-07
2.00982e-05
-6.19695e-07
2.02504e-05
-5.90181e-07
2.03211e-05
-4.37515e-07
2.03688e-05
-3.49046e-07
2.04e-05
-2.18098e-07
2.04344e-05
-1.57061e-07
2.04801e-05
-9.97318e-08
2.05357e-05
-8.72889e-08
2.06286e-05
-1.3081e-07
2.07161e-05
-1.29863e-07
2.08389e-05
-2.08402e-07
2.09567e-05
-2.35929e-07
2.10811e-05
-2.77047e-07
2.12205e-05
-3.6467e-07
2.13357e-05
-3.75259e-07
2.14538e-05
-4.7576e-07
2.15515e-05
-5.43644e-07
2.16421e-05
-6.62501e-07
2.16982e-05
-7.48388e-07
2.17215e-05
-8.47542e-07
2.17418e-05
-9.99087e-07
2.16701e-05
-1.00708e-06
2.15411e-05
-1.04564e-06
2.13906e-05
-1.11789e-06
2.11105e-05
-9.30728e-07
2.07396e-05
-7.63442e-07
2.03392e-05
-5.64984e-07
1.99092e-05
-1.67333e-07
1.93643e-05
3.98745e-07
1.88405e-05
9.11491e-07
1.83471e-05
1.5472e-06
1.79222e-05
2.27075e-06
1.78316e-05
2.94311e-06
1.83174e-05
3.49094e-06
1.92739e-05
4.05548e-06
2.03468e-05
4.48822e-06
2.14516e-05
4.4792e-06
2.25825e-05
3.96201e-06
2.35282e-05
3.28692e-06
2.41526e-05
2.46403e-06
2.45877e-05
1.36061e-06
2.50805e-05
5.21027e-10
2.54957e-05
-1.15223e-06
2.59649e-05
-2.24299e-06
2.6604e-05
-3.66414e-06
2.73133e-05
-5.21445e-06
2.77097e-05
-6.47716e-06
2.79053e-05
-7.64339e-06
2.80393e-05
-8.65354e-06
2.81267e-05
-9.42663e-06
2.80065e-05
-9.55875e-06
2.7461e-05
-8.83763e-06
2.65331e-05
-7.53678e-06
2.58122e-05
-6.35725e-06
2.55224e-05
-5.10351e-06
2.52233e-05
-3.69983e-06
2.47225e-05
-2.18452e-06
2.43567e-05
-7.94773e-07
2.43685e-05
6.85576e-07
2.4471e-05
2.09836e-06
2.4408e-05
3.4206e-06
2.4188e-05
4.37564e-06
2.39887e-05
4.92064e-06
2.38456e-05
5.20631e-06
2.37749e-05
5.43784e-06
2.40317e-05
5.38788e-06
2.47074e-05
5.01134e-06
2.53242e-05
4.57286e-06
2.5743e-05
4.05223e-06
2.62672e-05
3.03769e-06
2.67611e-05
2.16147e-06
2.71511e-05
9.68727e-07
2.7416e-05
1.89915e-08
2.76287e-05
-1.59257e-06
2.76593e-05
-2.47965e-06
2.79608e-05
-3.93166e-06
2.7863e-05
-4.2549e-06
2.77657e-05
-5.80506e-06
2.74968e-05
-6.03773e-06
2.75265e-05
-6.94474e-06
2.69029e-05
-6.43729e-06
2.63339e-05
-7.2512e-06
2.5753e-05
-7.2386e-06
2.53738e-05
-7.45602e-06
2.44814e-05
-6.21041e-06
2.39177e-05
-5.67557e-06
2.31119e-05
-4.58207e-06
2.2345e-05
-4.86869e-06
2.13295e-05
-4.83053e-06
2.07385e-05
-5.31279e-06
1.97993e-05
-4.18264e-06
1.90465e-05
-3.39052e-06
1.80127e-05
-1.31616e-06
1.76184e-05
1.22205e-07
1.71006e-05
2.70227e-06
1.66581e-05
4.31562e-06
1.49802e-05
6.52989e-06
1.33872e-05
6.41229e-06
1.18764e-05
8.04792e-06
1.12889e-05
6.91088e-06
1.16184e-05
9.90826e-06
1.27559e-05
9.17232e-06
1.37388e-05
1.22406e-05
1.55532e-05
1.00355e-05
1.59734e-05
1.26113e-05
1.70395e-05
8.9341e-06
1.72508e-05
1.15411e-05
1.80337e-05
6.83758e-06
1.84565e-05
9.4654e-06
1.8544e-05
4.85886e-06
1.88163e-05
7.18197e-06
1.85916e-05
3.12406e-06
1.84719e-05
5.60827e-06
1.84273e-05
1.58456e-06
1.83032e-05
4.27083e-06
1.85435e-05
4.31594e-07
1.88048e-05
2.65785e-06
1.95223e-05
-5.62107e-07
2.01601e-05
6.46195e-07
2.13165e-05
-1.79613e-06
2.20031e-05
-9.84489e-07
2.31298e-05
-3.02952e-06
2.37196e-05
-1.96054e-06
2.44999e-05
-4.4051e-06
2.49167e-05
-3.19945e-06
2.53657e-05
-6.27221e-06
2.54906e-05
-5.02328e-06
2.58941e-05
-8.47454e-06
2.57543e-05
-6.526e-06
2.62424e-05
-9.82828e-06
2.58329e-05
-6.73509e-06
2.64619e-05
-9.537e-06
2.59734e-05
-5.85674e-06
2.66864e-05
-8.19912e-06
2.62515e-05
-4.45229e-06
2.68966e-05
-6.85898e-06
2.62532e-05
-2.90317e-06
2.67145e-05
-5.97669e-06
2.56596e-05
-1.90703e-06
2.58662e-05
-5.38434e-06
2.46775e-05
-1.34107e-06
2.49329e-05
-4.86132e-06
2.39218e-05
-1.07068e-06
2.4336e-05
-4.39268e-06
2.32911e-05
-3.87706e-07
2.37766e-05
-3.52217e-06
2.27553e-05
9.61122e-07
2.34386e-05
-2.18324e-06
2.25067e-05
2.63959e-06
2.35118e-05
-6.16401e-07
2.28532e-05
4.47961e-06
2.40892e-05
1.05276e-06
2.36482e-05
6.36301e-06
2.5101e-05
2.53222e-06
2.47127e-05
8.22784e-06
2.63578e-05
3.55947e-06
2.58576e-05
9.91749e-06
2.72757e-05
4.2482e-06
2.67561e-05
1.09711e-05
2.7701e-05
4.28987e-06
2.73851e-05
1.14191e-05
2.7434e-05
4.00693e-06
2.76651e-05
1.10692e-05
2.7142e-05
3.75171e-06
2.78422e-05
9.93916e-06
2.74242e-05
3.33242e-06
2.81127e-05
8.89976e-06
2.77029e-05
2.43928e-06
2.83e-05
7.58895e-06
2.76297e-05
1.67845e-06
2.81864e-05
5.81354e-06
2.74581e-05
4.69998e-07
2.78846e-05
3.98751e-06
2.72647e-05
-1.2522e-06
2.76665e-05
1.80542e-06
2.68255e-05
-3.09777e-06
2.68583e-05
-9.21216e-08
2.56863e-05
-4.83156e-06
2.56236e-05
-1.13445e-06
2.43025e-05
-6.38563e-06
2.41161e-05
-2.82357e-06
2.23862e-05
-7.83863e-06
2.17173e-05
-2.95258e-06
2.01238e-05
-7.73958e-06
2.04316e-05
-1.54719e-06
1.98428e-05
-7.68626e-06
2.13254e-05
-2.90288e-06
2.11167e-05
-1.06648e-05
2.19792e-05
-5.17074e-06
2.06614e-05
-1.11505e-05
2.05408e-05
-3.22505e-06
1.93568e-05
-8.36396e-06
1.91431e-05
1.49843e-06
1.77904e-05
-4.17638e-06
1.90497e-05
6.10178e-06
1.89423e-05
6.32191e-07
9.46385e-06
2.37815e-05
2.47369e-05
-5.34164e-07
2.52171e-05
-9.53088e-07
2.55955e-05
-9.90447e-07
2.57695e-05
-7.93743e-07
2.58267e-05
-6.47377e-07
2.58301e-05
-4.40962e-07
2.58316e-05
-3.50483e-07
2.58282e-05
-2.14762e-07
2.58477e-05
-1.76545e-07
2.58606e-05
-1.12653e-07
2.58892e-05
-1.15848e-07
2.59416e-05
-1.83163e-07
2.59739e-05
-1.62162e-07
2.60547e-05
-2.8922e-07
2.61203e-05
-3.01563e-07
2.62029e-05
-3.59628e-07
2.63031e-05
-4.64874e-07
2.63783e-05
-4.50435e-07
2.64591e-05
-5.56549e-07
2.65007e-05
-5.85265e-07
2.65484e-05
-7.10181e-07
2.65342e-05
-7.34254e-07
2.64889e-05
-8.02193e-07
2.64431e-05
-9.53301e-07
2.63147e-05
-8.78668e-07
2.61486e-05
-8.79586e-07
2.59951e-05
-9.64399e-07
2.57462e-05
-6.81818e-07
2.54462e-05
-4.63421e-07
2.51996e-05
-3.1836e-07
2.48819e-05
1.50341e-07
2.44973e-05
7.83303e-07
2.41519e-05
1.25692e-06
2.39676e-05
1.73153e-06
2.3752e-05
2.48631e-06
2.35472e-05
3.148e-06
2.36344e-05
3.40365e-06
2.40491e-05
3.64083e-06
2.45366e-05
4.00068e-06
2.51558e-05
3.86001e-06
2.59921e-05
3.12575e-06
2.66889e-05
2.59013e-06
2.73509e-05
1.80199e-06
2.80138e-05
6.97703e-07
2.86677e-05
-6.53371e-07
2.91594e-05
-1.64389e-06
2.98021e-05
-2.88577e-06
3.05112e-05
-4.37317e-06
3.09495e-05
-5.65273e-06
3.10942e-05
-6.62194e-06
3.12378e-05
-7.78694e-06
3.1307e-05
-8.72276e-06
3.07179e-05
-8.8375e-06
2.94129e-05
-8.25373e-06
2.81363e-05
-7.5611e-06
2.7358e-05
-6.75846e-06
2.66499e-05
-5.6492e-06
2.59533e-05
-4.40688e-06
2.55052e-05
-3.25169e-06
2.53236e-05
-2.00296e-06
2.52221e-05
-6.93236e-07
2.52382e-05
6.69479e-07
2.54093e-05
1.92722e-06
2.57585e-05
3.0714e-06
2.61515e-05
3.98267e-06
2.63218e-05
4.75029e-06
2.63451e-05
5.18306e-06
2.6409e-05
5.37388e-06
2.65719e-05
5.22498e-06
2.66168e-05
4.96645e-06
2.66242e-05
4.56546e-06
2.69637e-05
3.71279e-06
2.75692e-05
2.43212e-06
2.77966e-05
1.9341e-06
2.79815e-05
7.83877e-07
2.82105e-05
-2.10031e-07
2.84682e-05
-1.85026e-06
2.82401e-05
-2.2516e-06
2.82831e-05
-3.97467e-06
2.83435e-05
-4.31526e-06
2.83988e-05
-5.8604e-06
2.78559e-05
-5.49479e-06
2.76868e-05
-6.77563e-06
2.73401e-05
-6.09065e-06
2.71991e-05
-7.11016e-06
2.66077e-05
-6.64719e-06
2.61718e-05
-7.02015e-06
2.54806e-05
-5.51923e-06
2.4984e-05
-5.17896e-06
2.44919e-05
-4.08992e-06
2.40856e-05
-4.46236e-06
2.33933e-05
-4.13831e-06
2.27404e-05
-4.6599e-06
2.18254e-05
-3.26759e-06
2.10709e-05
-2.63604e-06
2.01034e-05
-3.4866e-07
1.95375e-05
6.88162e-07
1.89396e-05
3.30014e-06
1.88389e-05
4.41633e-06
1.8234e-05
7.13476e-06
1.72556e-05
7.39069e-06
1.5763e-05
9.54056e-06
1.45963e-05
8.07751e-06
1.40025e-05
1.0502e-05
1.47033e-05