/*--------------------------------*- C++ -*----------------------------------*\
| =========                 |                                                 |
| \\      /  F ield         | OpenFOAM: The Open Source CFD Toolbox           |
|  \\    /   O peration     | Version:  2.4.0                                 |
|   \\  /    A nd           | Web:      www.OpenFOAM.org                      |
|    \\/     M anipulation  |                                                 |
\*---------------------------------------------------------------------------*/
FoamFile
{
    version     2.0;
    format      ascii;
    class       volScalarField;
    location    "0.63";
    object      pPrime2Mean;
}
// * * * * * * * * * * * * * * * * * * * * * * * * * * * * * * * * * * * * * //

dimensions      [0 4 -4 0 0 0 0];

internalField   nonuniform List<scalar> 
8800
(
1.02627e+06
1.00038e+06
972593
945047
917877
891101
864721
838736
813146
787948
763143
738724
714686
691015
667689
644663
621848
599070
575917
551095
1.02631e+06
1.00038e+06
972591
945046
917876
891101
864721
838736
813146
787949
763143
738725
714688
691019
667695
644675
621873
599122
576045
551516
1.02633e+06
1.00038e+06
972584
945041
917874
891100
864721
838736
813146
787949
763144
738727
714691
691026
667708
644699
621921
599222
576278
552333
1.02635e+06
1.00038e+06
972577
945036
917872
891099
864720
838736
813146
787950
763145
738730
714697
691036
667727
644735
621990
599365
576604
553284
1.02636e+06
1.00038e+06
972571
945032
917871
891099
864720
838735
813146
787950
763147
738733
714704
691049
667751
644780
622078
599543
576996
554268
1.02637e+06
1.00038e+06
972567
945028
917869
891098
864720
838735
813146
787951
763149
738737
714712
691064
667780
644834
622182
599748
577426
555228
1.02638e+06
1.00038e+06
972564
945024
917867
891098
864720
838735
813147
787952
763152
738742
714721
691082
667812
644895
622297
599971
577875
556141
1.02639e+06
1.00038e+06
972561
945022
917866
891098
864721
838736
813147
787954
763155
738748
714732
691101
667848
644961
622421
600206
578326
556992
1.02639e+06
1.00038e+06
972560
945020
917865
891098
864721
838736
813148
787955
763158
738754
714743
691122
667886
645031
622549
600444
578769
557776
1.02639e+06
1.00038e+06
972560
945020
917865
891099
864721
838737
813149
787957
763161
738760
714755
691143
667925
645102
622679
600681
579194
558491
1.02639e+06
1.00038e+06
972560
945020
917865
891099
864722
838737
813150
787959
763165
738767
714766
691164
667964
645172
622807
600910
579593
559134
1.02639e+06
1.00038e+06
972561
945021
917866
891099
864722
838738
813151
787961
763168
738773
714778
691185
668002
645241
622930
601127
579962
559709
1.02639e+06
1.00038e+06
972562
945023
917867
891099
864722
838739
813152
787963
763172
738779
714789
691205
668038
645306
623046
601328
580296
560216
1.02638e+06
1.00038e+06
972564
945025
917868
891100
864722
838739
813154
787965
763175
738785
714799
691224
668072
645367
623153
601511
580593
560656
1.02637e+06
1.00038e+06
972567
945028
917870
891100
864723
838740
813155
787967
763178
738791
714809
691241
668102
645421
623247
601671
580850
561031
1.02636e+06
1.00038e+06
972572
945033
917872
891101
864723
838741
813156
787969
763181
738796
714817
691256
668129
645468
623328
601807
581066
561343
1.02635e+06
1.00038e+06
972577
945037
917874
891101
864724
838742
813157
787971
763184
738800
714824
691268
668151
645506
623395
601918
581239
561592
1.02633e+06
1.00038e+06
972584
945042
917876
891103
864725
838743
813158
787972
763186
738803
714830
691278
668167
645536
623446
602002
581369
561776
1.02631e+06
1.00038e+06
972591
945047
917878
891104
864725
838744
813159
787973
763187
738805
714833
691284
668179
645556
623480
602059
581457
561899
1.02627e+06
1.00037e+06
972593
945048
917879
891104
864725
838744
813159
787973
763187
738806
714835
691287
668185
645566
623498
602087
581501
561958
528604
522548
517929
513935
510232
506708
503309
500005
496773
493600
490474
487387
484334
481310
478310
475331
472370
469425
466492
463573
460667
457773
454891
452021
449163
446314
443476
440649
437832
435026
432231
429448
426677
423918
421172
418439
415718
413009
410312
407625
404948
402280
399619
396966
394320
391680
389048
386422
383805
381195
378593
375998
373411
370832
368260
365698
363145
360602
358069
355545
353030
350525
348028
345540
343062
340594
338135
335688
333251
330823
328405
325996
323595
321202
318817
316440
314071
311711
309360
307020
304691
302374
300068
297773
295488
293213
290945
288686
286436
284193
281958
279731
277510
275296
273088
270887
268692
266504
264322
262148
259983
257827
255680
253543
251417
249303
247198
245105
243021
240947
238882
236826
234779
232740
230709
228686
226672
224666
222669
220680
218700
216729
214768
212816
210874
208943
207022
205112
203211
201320
199437
197563
195697
193838
191987
190143
188306
186476
184654
182840
181034
179236
177446
175665
173892
172127
170370
168622
166881
165150
163427
161713
160008
158312
156626
154949
153281
151624
149976
148338
146710
145092
143482
141884
140295
138717
137148
135590
134042
132505
130977
129460
127950
126453
124960
123482
122004
120544
119080
117636
116187
114755
113323
111901
110481
109069
107654
106246
104830
103416
101986
100550
99089.9
97609
96088.8
94525
92887
91144
89241.2
86960.2
532919
526466
521205
516675
512577
508745
505098
501587
498180
494855
491597
488395
485239
482124
479043
475991
472965
469961
466976
464010
461061
458128
455211
452310
449422
446548
443687
440839
438003
435180
432370
429573
426789
424019
421262
418519
415789
413070
410364
407670
404985
402310
399644
396986
394335
391692
389056
386429
383809
381197
378593
375998
373410
370831
368261
365700
363148
360605
358073
355550
353037
350532
348037
345551
343074
340607
338150
335703
333266
330838
328420
326011
323610
321217
318832
316456
314088
311729
309379
307040
304713
302398
300094
297800
295517
293242
290976
288717
286467
284226
281991
279764
277543
275328
273119
270917
268721
266533
264351
262177
260012
257855
255708
253572
251445
249329
247224
245128
243042
240966
238899
236840
234790
232749
230716
228692
226678
224671
222674
220686
218707
216737
214776
212826
210886
208956
207038
205129
203230
201340
199459
197586
195721
193862
192011
190166
188329
186499
184676
182862
181055
179257
177467
175685
173911
172144
170387
168636
166895
165162
163438
161724
160018
158322
156635
154957
153288
151629
149979
148339
146707
145086
143473
141870
140276
138692
137116
135551
133995
132449
130909
129381
127858
126347
124839
123345
121849
120370
118887
117419
115950
114491
113033
111581
110129
108682
107229
105778
104318
102851
101367
99864.8
98334
96766.3
95150
93459.3
91691.3
89728.7
87617.3
85135.2
535912
529510
524004
519153
514759
510674
506810
503112
499542
496074
492691
489378
486124
482921
479761
476638
473548
470487
467451
464438
461447
458477
455526
452593
449677
446778
443894
441026
438171
435332
432507
429696
426900
424118
421351
418598
415858
413131
410416
407713
405022
402340
399668
397004
394349
391703
389064
386434
383812
381198
378594
375998
373410
370832
368262
365702
363151
360610
358078
355556
353044
350541
348048
345563
343088
340623
338167
335720
333283
330856
328438
326029
323628
321235
318850
316474
314106
311748
309399
307062
304736
302422
300120
297828
295545
293272
291006
288749
286500
284259
282025
279798
277576
275360
273151
270949
268753
266564
264383
262210
260045
257888
255741
253604
251477
249359
247252
245154
243066
240987
238917
236855
234802
232758
230724
228699
226684
224677
222681
220693
218715
216746
214787
212838
210901
208973
207057
205150
203253
201365
199485
197612
195747
193888
192036
190191
188353
186522
184699
182884
181077
179278
177487
175705
173930
172162
170403
168651
166908
165175
163451
161736
160030
158334
156646
154967
153297
151636
149983
148340
146706
145080
143464
141856
140257
138668
137086
135514
133949
132393
130843
129303
127766
126242
124717
123206
121695
120195
118695
117203
115713
114228
112744
111263
109781
108298
106811
105317
103817
102299
100766
99201
97610.3
95959.3
94274.7
92466.6
90617.8
88530.6
86316.2
83854.3
538191
531959
526384
521354
516754
512470
508423
504561
500844
497246
493746
490329
486982
483694
480458
477267
474116
470999
467913
464856
461824
458817
455833
452870
449927
447003
444097
441208
438336
435481
432641
429817
427009
424216
421438
418675
415926
413190
410467
407756
405057
402369
399691
397023
394363
391713
389072
386439
383815
381201
378595
375999
373411
370834
368265
365706
363156
360616
358085
355565
353054
350552
348060
345577
343104
340640
338185
335740
333303
330876
328458
326049
323647
321254
318869
316493
314125
311767
309419
307083
304759
302446
300145
297854
295573
293301
291037
288781
286533
284293
282059
279831
277609
275393
273184
270981
268786
266597
264417
262244
260080
257923
255776
253638
251510
249391
247282
245181
243090
241008
238935
236870
234814
232768
230732
228706
226690
224684
222688
220701
218724
216756
214800
212853
210918
208993
207079
205174
203279
201392
199513
197641
195776
193916
192063
190216
188376
186544
184720
182904
181097
179298
177507
175723
173948
172179
170419
168666
166923
165188
163464
161749
160043
158347
156658
154978
153306
151643
149988
148341
146704
145075
143454
141842
140238
138643
137055
135476
133902
132337
130776
129224
127674
126135
124597
123068
121542
120022
118505
116991
115480
113969
112461
110949
109439
107921
106404
104867
103332
101762
100191
98559.9
96929.3
95195.2
93463.6
91566
89646.5
87526.4
85291.5
82906.2
540023
533963
528404
523290
518555
514121
509926
505924
502078
498362
494756
491241
487806
484439
481131
477875
474665
471495
468361
465261
462190
459148
456132
453140
450170
447223
444296
441388
438499
435627
432773
429936
427116
424312
421524
418751
415993
413248
410518
407799
405093
402399
399715
397042
394379
391725
389081
386446
383821
381205
378599
376002
373415
370837
368270
365711
363163
360624
358095
355575
353065
350565
348074
345593
343121
340658
338205
335760
333325
330898
328480
326069
323667
321273
318887
316510
314142
311784
309437
307102
304779
302468
300168
297879
295599
293328
291065
288811
286565
284325
282092
279864
277642
275426
273217
271014
268818
266630
264451
262278
260115
257959
255812
253673
251543
249422
247310
245207
243114
241028
238952
236883
234826
232777
230740
228712
226696
224690
222694
220708
218733
216767
214813
212868
210936
209013
207102
205200
203307
201421
199542
197670
195804
193943
192089
190240
188400
186565
184741
182923
181115
179315
177524
175740
173964
172195
170434
168681
166938
165203
163479
161762
160057
158359
156670
154987
153315
151648
149990
148341
146700
145067
143442
141825
140217
138616
137022
135435
133854
132279
130708
129144
127583
126027
124477
122931
121390
119851
118317
116781
115250
113712
112183
110639
109107
107551
106009
104428
102866
101243
99640.8
97951.4
96280.5
94488.5
92702.1
90767.2
88789.4
86683.2
84472.3
82156.6
541566
535652
530136
524986
520166
515623
511311
507192
503235
499415
495712
492109
488593
485152
481777
478460
475194
471974
468795
465653
462545
459469
456422
453402
450408
447438
444490
441564
438658
435771
432904
430054
427223
424408
421610
418827
416060
413307
410569
407843
405130
402430
399741
397063
394396
391739
389092
386455
383829
381212
378605
376008
373421
370844
368277
365719
363172
360634
358106
355588
353079
350580
348091
345611
343140
340678
338225
335781
333346
330919
328499
326088
323684
321289
318902
316524
314155
311798
309452
307118
304796
302486
300187
297899
295621
293352
291091
288838
286593
284355
282123
279895
277673
275457
273248
271045
268850
266662
264482
262311
260148
257993
255845
253705
251574
249451
247337
245231
243134
241045
238966
236895
234835
232784
230746
228718
226701
224695
222700
220715
218741
216777
214825
212883
210953
209033
207125
205224
203333
201448
199571
197698
195832
193969
192114
190263
188420
186584
184758
182939
181131
179330
177539
175754
173979
172209
170448
168694
166951
165216
163492
161773
160068
158368
156678
154993
153320
151650
149990
148337
146692
145054
143426
141804
140191
138584
136985
135390
133803
132217
130638
129060
127490
125919
124357
122794
121241
119680
118132
116571
115024
113458
111910
110336
108783
107194
105626
104010
102415
100756
99112.6
97387.7
95667.7
93847.1
92009.8
90067.6
88062.5
85975
83794.4
81532.1
542894
537101
531632
526471
521598
516977
512574
508361
504310
500400
496612
492929
489339
485830
482393
479019
475701
472434
469212
466031
462888
459780
456703
453657
450639
447647
444680
441736
438814
435913
433032
430170
427327
424502
421694
418903
416127
413366
410620
407888
405169
402463
399769
397087
394416
391756
389107
386468
383840
381222
378615
376018
373430
370854
368287
365730
363184
360647
358120
355602
353095
350596
348108
345628
343158
340696
338244
335800
333364
330936
328515
326102
323697
321300
318912
316533
314165
311807
309462
307129
304808
302499
300202
297915
295638
293370
291111
288860
286617
284381
282150
279923
277702
275486
273276
271073
268877
266689
264510
262339
260176
258021
255873
253732
251599
249474
247359
245250
243151
241058
238975
236902
234840
232789
230750
228721
226705
224699
222705
220721
218748
216786
214836
212896
210969
209051
207145
205246
203357
201473
199596
197724
195857
193993
192135
190282
188437
186600
184772
182952
181143
179342
177550
175766
173990
172219
170458
168704
166961
165224
163501
161780
160074
158372
156681
154994
153319
151645
149983
148327
146678
145036
143404
141777
140160
138545
136941
135339
133745
132149
130561
128972
127392
125808
124233
122657
121089
119512
117947
116366
114799
113213
111640
110045
108463
106854
105254
103616
101985
100301
98619.1
96870.7
95112.7
93275.9
91406.2
89464.1
87451
85375.2
83217.2
80995.5
544054
538355
532933
527774
522869
518192
513720
509431
505301
501314
497450
493697
490041
486470
482976
479549
476183
472872
469609
466392
463216
460077
456974
453903
450862
447849
444863
441902
438965
436050
433156
430283
427429
424594
421777
418977
416193
413425
410672
407934
405209
402498
399799
397113
394439
391776
389125
386484
383855
381236
378627
376030
373443
370866
368299
365743
363197
360660
358134
355617
353109
350611
348123
345643
343173
340711
338258
335813
333376
330946
328524
326110
323704
321306
318917
316538
314170
311812
309467
307135
304815
302507
300211
297925
295649
293383
291125
288876
286636
284401
282173
279947
277727
275510
273299
271095
268898
266710
264531
262360
260197
258042
255894
253752
251618
249492
247374
245264
243161
241066
238980
236904
234841
232789
230750
228723
226707
224702
222709
220726
218754
216793
214844
212906
210981
209065
207161
205264
203376
201493
199616
197743
195875
194010
192151
190296
188449
186610
184781
182960
181151
179349
177558
175774
173998
172227
170464
168709
166966
165229
163504
161781
160074
158371
156677
154989
153312
151635
149970
148310
146657
145011
143374
141743
140119
138500
136889
135283
133681
132078
130481
128885
127292
125698
124110
122523
120939
119349
117765
116170
114581
112978
111380
109768
108161
106534
104908
103250
101589
99885.2
98173
96406.6
94621.6
92777.3
90887.6
88944.3
86927.4
84857.7
82718
80529.4
545072
539450
534069
528919
523994
519278
514753
510402
506207
502153
498226
494410
490694
487068
483522
480047
476637
473285
469986
466734
463527
460360
457231
454136
451074
448042
445038
442061
439109
436181
433276
430391
427528
424683
421858
419050
416258
413484
410724
407980
405250
402534
399832
397142
394464
391799
389145
386502
383871
381251
378642
376044
373456
370879
368312
365755
363209
360672
358146
355629
353121
350623
348133
345653
343182
340719
338265
335819
333380
330950
328526
326111
323704
321305
318916
316537
314169
311812
309467
307135
304815
302507
300212
297928
295654
293389
291133
288886
286647
284415
282188
279964
277743
275526
273315
271109
268912
266723
264543
262372
260209
258054
255905
253763
251628
249501
247381
245269
243164
241066
238979
236902
234838
232787
230748
228721
226707
224703
222711
220729
218759
216798
214850
212912
210988
209074
207171
205275
203387
201505
199628
197755
195886
194020
192159
190304
188455
186615
184785
182963
181154
179352
177562
175778
174001
172229
170466
168709
166965
165226
163500
161776
160067
158363
156666
154978
153296
151619
149948
148287
146628
144981
143337
141703
140072
138449
136831
135225
133612
132005
130398
128796
127192
125590
123989
122393
120794
119194
117591
115984
114375
112756
111138
109510
107883
106243
104593
102921
101234
99513.5
97778.1
95999.5
94194.9
92344.9
90438
88489.7
86471.3
84406.9
82285.7
80125
545968
540408
535063
529923
524987
520243
515677
511277
507029
502919
498936
495065
491298
487622
484029
480511
477060
473671
470338
467055
463819
460626
457473
454356
451274
448224
445204
442212
439246
436306
433389
430495
427621
424768
421934
419119
416321
413540
410775
408026
405291
402571
399865
397171
394491
391822
389166
386522
383889
381267
378657
376057
373469
370890
368323
365766
363218
360681
358154
355636
353128
350629
348138
345657
343184
340720
338264
335816
333377
330945
328521
326104
323697
321298
318909
316530
314162
311805
309460
307128
304808
302501
300207
297924
295651
293388
291135
288889
286653
284423
282197
279973
277751
275534
273321
271115
268917
266727
264547
262375
260212
258056
255907
253764
251629
249500
247379
245265
243158
241060
238972
236895
234832
232780
230743
228717
226705
224703
222712
220731
218761
216800
214851
212914
210990
209076
207173
205278
203390
201507
199630
197757
195888
194022
192160
190305
188456
186616
184784
182963
181153
179350
177559
175774
173997
172224
170460
168701
166956
165216
163488
161765
160053
158349
156649
154964
153275
151598
149920
148263
146593
144949
143293
141661
140019
138397
136769
135165
133538
131933
130313
128708
127091
125486
123872
122272
120656
119050
117430
115814
114187
112552
110919
109279
107637
105986
104313
102628
100920
99185.2
97431.8
95645.4
93821.3
91963.9
90041.7
88086.9
86071.4
84014.9
81912
79775.4
546755
541245
535931
530803
525861
521096
516498
512059
507766
503610
499579
495662
491849
488129
484495
480938
477451
474028
470663
467352
464090
460873
457697
454561
451460
448394
445358
442352
439374
436423
433495
430591
427709
424848
422007
419185
416381
413595
410825
408070
405332
402607
399897
397200
394517
391846
389187
386540
383905
381282
378670
376069
373479
370900
368331
365772
363224
360686
358157
355638
353129
350628
348136
345653
343179
340714
338257
335807
333366
330933
328509
326092
323684
321285
318896
316518
314150
311793
309448
307116
304796
302489
300195
297912
295641
293380
291129
288886
286652
284422
282197
279972
277749
275531
273317
271110
268911
266721
264540
262367
260204
258047
255898
253755
251619
249489
247367
245252
243146
241048
238960
236884
234821
232771
230734
228711
226700
224700
222711
220731
218761
216800
214850
212911
210986
209072
207168
205272
203384
201501
199624
197750
195881
194017
192156
190301
188453
186613
184780
182959
181146
179343
177550
175764
173986
172210
170447
168685
166937
165200
163469
161749
160033
158332
156628
154944
153248
151574
149889
148236
146557
144917
143248
141617
139962
138344
136705
135104
133462
131858
130226
128624
126994
125384
123762
122159
120529
118917
117284
115657
114018
112368
110727
109076
107416
105764
104067
102372
100643
98898.7
97128.5
95334.8
93491.3
91622.3
89691.3
87732.8
85723.3
83676.4
81590.8
79475.4
547444
541975
536687
531570
526625
521844
517222
512751
508423
504228
500157
496199
492346
488589
484918
481326
477807
474354
470961
467624
464337
461099
457903
454749
451632
448550
445501
442482
439493
436530
433594
430681
427791
424923
422075
419247
416437
413646
410871
408112
405370
402642
399928
397228
394541
391867
389206
386557
383920
381294
378680
376078
373486
370905
368335
365774
363225
360685
358155
355635
353123
350621
348128
345644
343168
340701
338243
335793
333351
330917
328492
326075
323667
321269
318881
316503
314136
311779
309433
307099
304778
302471
300177
297894
295625
293366
291117
288876
286643
284413
282187
279960
277737
275517
273303
271094
268896
266704
264523
262349
260185
258028
255880
253735
251599
249468
247347
245232
243127
241030
238945
236870
234808
232759
230725
228702
226693
224695
222708
220728
218758
216796
214845
212905
210977
209061
207156
205260
203371
201487
199609
197736
195868
194004
192146
190292
188445
186604
184771
182949
181134
179330
177535
175746
173967
172190
170426
168663
166914
165177
163442
161727
160011
158313
156608
154923
153222
151547
149860
148206
146521
144879
143203
141571
139909
138288
136645
135040
133391
131781
130142
128536
126898
125289
123658
122054
120410
118794
117149
115516
113867
112209
110556
108897
107227
105562
103846
102146
100400
98648.4
96865.7
95057.5
93198
91318.9
89384.6
87426.7
85424.2
83387.3
81317.1
79220
548043
542607
537341
532234
527286
522494
517853
513356
508999
504772
500668
496677
492790
488999
485296
481674
478126
474646
471228
467868
464561
461303
458090
454919
451787
448691
445630
442600
439600
436629
433683
430763
427866
424991
422137
419304
416489
413693
410913
408151
405404
402673
399956
397252
394563
391886
389222
386570
383931
381303
378687
376082
373488
370906
368333
365772
363220
360679
358148
355625
353113
350609
348114
345629
343152
340685
338225
335774
333332
330898
328473
326056
323649
321251
318864
316487
314120
311762
309416
307081
304759
302451
300156
297874
295604
293346
291099
288859
286626
284394
282166
279937
277714
275493
273278
271069
268871
266680
264498
262323
260159
258001
255853
253708
251572
249441
247321
245207
243105
241009
238927
236853
234794
232745
230713
228691
226684
224687
222701
220722
218752
216789
214837
212895
210966
209047
207140
205241
203351
201466
199588
197715
195848
193985
192129
190275
188430
186588
184755
182931
181115
179310
177513
175722
173943
172164
170400
168635
166887
165151
163417
161702
159989
158289
156583
154899
153198
151519
149836
148176
146486
144836
143160
141520
139854
138224
136582
134972
133319
131711
130066
128455
126812
125195
123556
121948
120297
118679
117028
115390
113733
112069
110407
108742
107057
105379
103659
101944
100190
98427.2
96634.4
94810
92941.2
91055.7
89121.8
87166.4
85170.1
83142.9
81086.4
79005.3
548558
543149
537900
532800
527852
523051
518394
513878
509498
505245
501113
497093
493178
489359
485629
481981
478408
474905
471465
468085
464759
461484
458255
455070
451925
448817
445745
442706
439697
436717
433764
430836
427933
425052
422193
419354
416535
413734
410951
408185
405434
402699
399979
397273
394580
391901
389234
386579
383937
381307
378689
376082
373486
370901
368327
365764
363211
360668
358135
355612
353098
350593
348097
345611
343134
340665
338205
335754
333312
330878
328453
326037
323630
321233
318847
316470
314103
311746
309398
307063
304740
302430
300133
297850
295581
293324
291076
288836
286600
284367
282137
279907
277683
275461
273246
271037
268840
266648
264467
262291
260129
257970
255822
253676
251541
249410
247292
245180
243080
240987
238907
236835
234777
232730
230699
228679
226673
224676
222691
220712
218743
216778
214826
212881
210951
209029
207120
205218
203327
201441
199563
197690
195824
193961
192106
190253
188408
186565
184733
182907
181091
179283
177486
175694
173914
172136
170370
168605
166860
165120
163390
161675
159966
158262
156557
154868
153174
151484
149812
148143
146451
144796
143118
141456
139794
138158
136517
134899
133251
131635
129995
128383
126729
125100
123461
121843
120192
118572
116914
115274
113612
111946
110275
108605
106911
105222
103495
101762
100009
98229.9
96430.2
94593.3
92721.3
90832.6
88900.8
86947
84956.6
82938.7
80894.3
78827.1
548995
543607
538371
533276
528327
523519
518851
514320
509921
505648
501493
497450
493511
489669
485916
482245
478651
475128
471670
468272
464931
461641
458398
455201
452045
448927
445846
442798
439781
436794
433834
430901
427992
425106
422242
419398
416575
413770
410983
408213
405459
402721
399998
397289
394593
391911
389241
386584
383940
381307
378686
376077
373480
370893
368318
365753
363199
360655
358120
355596
353081
350575
348079
345592
343115
340645
338185
335734
333291
330858
328433
326018
323612
321216
318830
316455
314087
311729
309381
307045
304721
302409
300111
297827
295556
293298
291048
288806
286567
284333
282101
279871
277647
275426
273210
271002
268805
266613
264431
262258
260095
257938
255789
253644
251509
249380
247264
245153
243056
240965
238886
236816
234760
232715
230684
228665
226659
224663
222678
220699
218728
216764
214811
212865
210932
209009
207097
205193
203300
201412
199534
197660
195794
193931
192076
190224
188379
186538
184706
182879
181063
179254
177456
175664
173883
172106
170340
168578
166831
165090
163365
161647
159939
158232
156530
154835
153147
151455
149784
148098
146418
144744
143066
141395
139740
138101
136457
134827
133183
131555
129926
128302
126651
125012
123379
121744
120099
118471
116813
115167
113505
111840
110166
108490
106783
105082
103350
101604
99851.8
98057.7
96254.5
94410.3
92537.5
90646.9
88716.9
86764.6
84780
82770.2
80736
78680.8
549358
543985
538757
533665
528714
523902
519226
514683
510270
505981
501809
497747
493789
489927
486155
482467
478855
475316
471842
468430
465075
461773
458520
455312
452146
449020
445931
442875
439852
436859
433894
430955
428041
425150
422282
419435
416607
413799
411009
408236
405479
402738
400012
397300
394601
391917
389245
386585
383938
381304
378681
376070
373471
370883
368306
365741
363185
360640
358105
355580
353065
350558
348062
345574
343096
340626
338166
335714
333272
330838
328414
325999
323594
321200
318815
316440
314073
311714
309366
307029
304704
302391
300092
297806
295532
293271
291018
288774
286532
284295
282062
279833
277608
275388
273173
270967
268768
266577
264396
262225
260061
257905
255756
253614
251479
249354
247237
245130
243033
240945
238867
236799
234743
232700
230668
228650
226643
224648
222661
220683
218711
216748
214793
212847
210913
208988
207074
205168
203271
201383
199502
197627
195759
193897
192041
190191
188347
186507
184676
182849
181033
179224
177425
175634
173852
172074
170310
168552
166807
165069
163342
161620
159911
158201
156504
154805
153117
151421
149753
148052
146372
144679
143017
141340
139691
138048
136401
134757
133120
131485
129860
128216
126583
124939
123301
121661
120023
118379
116728
115073
113413
111747
110072
108388
106674
104964
103224
101472
99716.6
97915.2
96105.4
94260.3
92388.1
90494.9
88566
86615.5
84636
82633.1
80607
78561.8
549647
544286
539061
533970
529019
524203
519522
514971
510548
506247
502061
497985
494012
490135
486348
482645
479019
475466
471981
468557
465192
461880
458617
455401
452228
449095
445999
442938
439909
436911
433941
430998
428080
425185
422314
419463
416633
413821
411028
408252
405493
402749
400021
397307
394606
391919
389245
386584
383936
381299
378675
376063
373463
370874
368296
365729
363173
360627
358092
355566
353050
350543
348046
345558
343079
340610
338149
335697
333255
330822
328398
325984
323579
321185
318801
316426
314060
311702
309353
307015
304689
302376
300075
297787
295510
293246
290989
288742
286497
284259
282024
279796
277570
275351
273137
270932
268733
266545
264363
262193
260030
257876
255727
253587
251452
249330
247213
245110
243014
240928
238850
236785
234728
232686
230653
228635
226626
224631
222643
220665
218693
216731
214775
212830
210895
208970
207052
205145
203245
201354
199469
197594
195723
193861
192004
190155
188311
186475
184643
182818
181001
179194
177394
175604
173821
172045
170283
168529
166784
165045
163319
161592
159879
158169
156474
154768
153082
151385
149708
147996
146325
144635
142982
141289
139645
137988
136342
134698
133064
131420
129794
128146
126520
124869
123235
121596
119958
118304
116659
114992
113336
111668
109996
108298
106584
104863
103122
101367
99607.1
97801.3
95985.8
94144.5
92270.8
90375
88446.9
86497.3
84521.4
82524
80504.4
78467.2
549863
544510
539286
534196
529244
524427
519742
515186
510756
506445
502250
498163
494178
490290
486492
482778
479143
475580
472085
468653
465279
461960
458691
455469
452290
449151
446051
442985
439952
436950
433976
431030
428108
425211
422337
419484
416651
413837
411042
408264
405503
402757
400027
397311
394609
391921
389245
386583
383933
381296
378671
376057
373456
370866
368288
365720
363163
360617
358081
355555
353038
350531
348034
345545
343066
340596
338135
335684
333241
330808
328385
325971
323567
321173
318789
316415
314048
311691
309342
307004
304678
302364
300062
297772
295492
293225
290964
288713
286466
284229
281992
279765
277538
275322
273107
270904
268704
266518
264335
262167
260002
257852
255702
253565
251430
249311
247195
245094
242997
240915
238837
236773
234716
232674
230639
228621
226610
224615
222625
220649
218676
216716
214760
212817
210880
208956
207036
205128
203224
201332
199442
197565
195690
193829
191969
190123
188278
186445
184613
182791
180974
179168
177367
175577
173794
172022
170258
168506
166759
165020
163291
161561
159848
158134
156438
154728
153044
151342
149661
147958
146289
144590
142939
141245
139602
137935
136295
134647
133013
131368
129742
128091
126466
124814
123187
121542
119907
118251
116606
114933
113281
111604
109931
108224
106515
104785
103049
101288
99524.1
97720.2
95899.1
94061.8
92184
90288
88358.6
86409.3
84437
82442.9
80428.1
78396.6
550001
544654
539435
534347
529395
524576
519889
515329
510894
506578
502375
498281
494290
490394
486589
482868
479225
475656
472155
468717
465338
462014
458740
455514
452331
449189
446085
443016
439980
436975
433999
431051
428127
425228
422352
419497
416662
413847
411050
408271
405508
402762
400030
397313
394610
391921
389245
386582
383931
381293
378667
376054
373452
370861
368282
365714
363157
360610
358073
355547
353030
350523
348024
345536
343056
340586
338125
335673
333230
330797
328374
325960
323557
321163
318779
316405
314039
311681
309333
306996
304671
302356
300052
297760
295480
293209
290944
288690
286440
284204
281967
279742
277514
275299
273083
270882
268682
266498
264314
262148
259983
257835
255684
253550
251415
249298
247181
245082
242986
240905
238827
236764
234706
232664