/*--------------------------------*- C++ -*----------------------------------*\
| =========                 |                                                 |
| \\      /  F ield         | OpenFOAM: The Open Source CFD Toolbox           |
|  \\    /   O peration     | Version:  2.4.0                                 |
|   \\  /    A nd           | Web:      www.OpenFOAM.org                      |
|    \\/     M anipulation  |                                                 |
\*---------------------------------------------------------------------------*/
FoamFile
{
    version     2.0;
    format      ascii;
    class       volVectorField;
    location    "0.63";
    object      U;
}
// * * * * * * * * * * * * * * * * * * * * * * * * * * * * * * * * * * * * * //

dimensions      [0 1 -1 0 0 0 0];

internalField   nonuniform List<vector> 
8800
(
(8.09038 0.388136 0)
(5.44197 0.242275 0)
(3.92355 0.0425767 0)
(3.14908 -0.0152406 0)
(2.80859 -0.0165476 0)
(2.57684 -0.0129924 0)
(2.5117 -0.00648061 0)
(2.34767 0.00031638 0)
(2.3354 -0.00182099 0)
(2.23026 -0.00388087 0)
(2.25494 0.00230918 0)
(2.13827 0.000962125 0)
(2.18728 -0.00270427 0)
(2.08229 0.00171124 0)
(2.11881 0.0019526 0)
(2.00504 -0.000757656 0)
(2.0561 0.000870755 0)
(1.93309 -5.3589e-05 0)
(2.01636 0.0107533 0)
(1.63527 -0.0775127 0)
(10.0926 0.840477 0)
(9.62073 0.865179 0)
(8.92397 0.50544 0)
(8.03371 0.262561 0)
(7.5412 0.143335 0)
(6.9436 0.0759933 0)
(6.77727 0.053694 0)
(6.29662 0.0501693 0)
(6.30112 0.0252502 0)
(5.94649 0.012768 0)
(6.01646 0.0271378 0)
(5.69635 0.0174978 0)
(5.84822 0.00666886 0)
(5.51638 0.0202149 0)
(5.67933 0.0204649 0)
(5.35588 0.0104339 0)
(5.53151 0.0214261 0)
(5.17991 0.00783448 0)
(5.42439 0.0418901 0)
(4.88959 -0.0568236 0)
(10.1133 0.639133 0)
(10.553 0.853589 0)
(10.9872 0.601543 0)
(10.5907 0.376785 0)
(10.5639 0.263835 0)
(9.96514 0.183138 0)
(9.97895 0.155783 0)
(9.33128 0.140578 0)
(9.44125 0.0840241 0)
(8.90381 0.0584597 0)
(9.05244 0.0736056 0)
(8.56654 0.0460302 0)
(8.82427 0.0299298 0)
(8.31671 0.0488552 0)
(8.59023 0.0461872 0)
(8.1295 0.0280319 0)
(8.3847 0.0490252 0)
(7.92518 0.0296378 0)
(8.19162 0.0637501 0)
(7.69816 -0.0485939 0)
(10.1926 0.476925 0)
(10.3225 0.68402 0)
(11.3618 0.538234 0)
(11.2119 0.358696 0)
(11.7528 0.279123 0)
(11.2674 0.207233 0)
(11.6955 0.203418 0)
(11.1042 0.203198 0)
(11.4457 0.129329 0)
(10.908 0.103264 0)
(11.2177 0.128217 0)
(10.6996 0.0804487 0)
(11.0497 0.0585767 0)
(10.5321 0.0878021 0)
(10.8425 0.0709623 0)
(10.4052 0.0577038 0)
(10.6386 0.0677488 0)
(10.257 0.0761454 0)
(10.4086 0.067644 0)
(10.058 0.0825551 0)
(10.4236 0.369251 0)
(10.0816 0.553015 0)
(11.297 0.442365 0)
(11.1076 0.294725 0)
(11.931 0.230931 0)
(11.4806 0.169582 0)
(12.1365 0.18202 0)
(11.7109 0.218188 0)
(12.1297 0.123438 0)
(11.7214 0.107863 0)
(12.1475 0.136548 0)
(11.8122 0.0935848 0)
(12.1423 0.0544938 0)
(11.8533 0.117965 0)
(12.1296 0.0738327 0)
(11.9059 0.0848273 0)
(12.0461 0.0666643 0)
(11.9073 0.109864 0)
(11.9358 0.0660142 0)
(11.7687 0.137143 0)
(10.3546 0.261861 0)
(10.1047 0.455798 0)
(11.0484 0.346347 0)
(11.0939 0.242076 0)
(11.7807 0.188665 0)
(11.4427 0.122959 0)
(11.9246 0.128515 0)
(11.8997 0.204198 0)
(12.1633 0.108778 0)
(11.9239 0.0928995 0)
(12.1938 0.117698 0)
(12.1283 0.0804765 0)
(12.2835 0.0393171 0)
(12.2587 0.0966666 0)
(12.4704 0.0585961 0)
(12.5187 0.0637226 0)
(12.5614 0.0686443 0)
(12.6692 0.080949 0)
(12.6258 0.0820621 0)
(12.6112 0.0341293 0)
(10.166 0.175255 0)
(10.1879 0.37349 0)
(10.711 0.246064 0)
(11.0807 0.175928 0)
(11.5924 0.168197 0)
(11.4702 0.112058 0)
(11.6047 0.054835 0)
(11.8755 0.152002 0)
(11.9563 0.0983915 0)
(11.8905 0.0990801 0)
(12.1093 0.0880096 0)
(12.192 0.0604868 0)
(12.2094 0.0231842 0)
(12.1536 0.0710636 0)
(12.324 0.0187385 0)
(12.4022 0.0458813 0)
(12.5193 0.0382944 0)
(12.7085 0.0548182 0)
(12.7398 0.047031 0)
(12.7746 -0.0153069 0)
(10.0962 0.116134 0)
(10.1634 0.300453 0)
(10.601 0.149213 0)
(11.0547 0.0891734 0)
(11.4224 0.132106 0)
(11.447 0.104226 0)
(11.4056 0.0230215 0)
(11.7194 0.0992045 0)
(11.8119 0.0841521 0)
(11.9775 0.0528612 0)
(12.0975 0.050666 0)
(12.0849 0.0531225 0)
(11.9888 0.0557873 0)
(12.0088 0.0620655 0)
(12.2399 -0.00122151 0)
(12.3341 -0.000582204 0)
(12.5704 -0.0148479 0)
(12.636 -0.00990935 0)
(12.65 0.0092816 0)
(12.473 -0.0179208 0)
(10.0189 0.066845 0)
(10.2714 0.21284 0)
(10.6593 0.0478591 0)
(10.924 0.0274582 0)
(11.2154 0.120977 0)
(11.4548 0.0995418 0)
(11.5106 -0.0100254 0)
(11.5366 0.0282219 0)
(11.6706 0.0233848 0)
(11.9319 0.0265799 0)
(12.0014 0.0715407 0)
(11.9668 0.0803118 0)
(11.9655 0.0486705 0)
(12.1762 -0.0004473 0)
(12.2366 -0.0554234 0)
(12.2754 -0.0529847 0)
(12.3904 -0.0421929 0)
(12.4109 0.000144102 0)
(12.3567 0.0267089 0)
(12.1069 0.0484131 0)
(9.94648 0.00888119 0)
(10.3392 0.0966024 0)
(10.7292 0.00575999 0)
(10.8537 -0.00460538 0)
(11.1001 0.0590065 0)
(11.4644 0.0278361 0)
(11.6517 0.00886406 0)
(11.5392 0.026457 0)
(11.5988 -0.0316012 0)
(11.8088 -0.0328042 0)
(11.9949 0.0539552 0)
(11.9173 0.0644508 0)
(12.0491 0.0088285 0)
(12.2064 -0.00728909 0)
(12.1185 -0.031463 0)
(12.1008 -0.0529679 0)
(12.1573 -0.0620484 0)
(12.2874 -0.0287335 0)
(12.2621 0.0346468 0)
(12.2091 0.0381443 0)
(9.95861 -0.0330022 0)
(10.2538 -0.0304594 0)
(10.6963 -0.0632598 0)
(10.8923 -0.0316221 0)
(11.1831 0.0303312 0)
(11.414 -0.0390055 0)
(11.6418 -0.0237591 0)
(11.6969 0.000939006 0)
(11.7058 -0.0559287 0)
(11.7872 -0.0737604 0)
(11.8679 0.0503224 0)
(11.8937 0.0612244 0)
(12.097 -0.0175054 0)
(12.1769 -0.0222909 0)
(12.2035 -0.0325754 0)
(12.1807 -0.0725106 0)
(12.2605 -0.100456 0)
(12.3029 -0.060087 0)
(12.3093 -0.00849386 0)
(12.4352 -0.00531777 0)
(9.99837 -0.0727135 0)
(10.2421 -0.137615 0)
(10.6252 -0.13736 0)
(10.8885 -0.0889774 0)
(11.2697 -0.0146413 0)
(11.4783 -0.0819988 0)
(11.6515 -0.0562469 0)
(11.716 -0.0235573 0)
(11.7515 -0.0741688 0)
(11.792 -0.072623 0)
(11.8047 0.0373645 0)
(11.95 0.0130653 0)
(12.1419 -0.0533028 0)
(12.2726 -0.0420334 0)
(12.2922 -0.0367072 0)
(12.347 -0.0840218 0)
(12.4301 -0.104532 0)
(12.3212 -0.0781021 0)
(12.3844 -0.0457422 0)
(12.3271 -0.0190126 0)
(10.0407 -0.125799 0)
(10.3123 -0.234006 0)
(10.5737 -0.202751 0)
(10.967 -0.154219 0)
(11.3525 -0.063455 0)
(11.4806 -0.124385 0)
(11.6585 -0.0862198 0)
(11.7497 -0.0503179 0)
(11.8007 -0.0948666 0)
(11.8207 -0.0820957 0)
(11.8733 0.0109086 0)
(11.998 -0.0228888 0)
(12.194 -0.0857919 0)
(12.2898 -0.0655487 0)
(12.3012 -0.055422 0)
(12.4356 -0.109571 0)
(12.4497 -0.103049 0)
(12.3776 -0.0846443 0)
(12.3534 -0.0663959 0)
(12.3002 -0.0442461 0)
(10.082 -0.20149 0)
(10.2795 -0.311275 0)
(10.645 -0.273811 0)
(11.1418 -0.231766 0)
(11.4663 -0.109347 0)
(11.5381 -0.146622 0)
(11.7146 -0.128341 0)
(11.7883 -0.0829563 0)
(11.8116 -0.113197 0)
(11.8794 -0.0887857 0)
(12.0086 -0.00272713 0)
(12.0944 -0.0721423 0)
(12.2929 -0.107476 0)
(12.3417 -0.0828073 0)
(12.3728 -0.0801274 0)
(12.4167 -0.13357 0)
(12.4535 -0.100314 0)
(12.4043 -0.0963011 0)
(12.3874 -0.0879116 0)
(12.3816 -0.076376 0)
(10.0848 -0.275245 0)
(10.2351 -0.395754 0)
(10.8885 -0.390212 0)
(11.2983 -0.286232 0)
(11.544 -0.140066 0)
(11.5645 -0.18178 0)
(11.8201 -0.15842 0)
(11.7941 -0.0927398 0)
(11.9132 -0.134664 0)
(11.9837 -0.131223 0)
(12.1931 -0.04164 0)
(12.1986 -0.105367 0)
(12.3806 -0.126376 0)
(12.3435 -0.0946264 0)
(12.3746 -0.0783159 0)
(12.3084 -0.137369 0)
(12.3671 -0.100167 0)
(12.2935 -0.111878 0)
(12.3291 -0.107506 0)
(12.2785 -0.14142 0)
(10.0111 -0.357388 0)
(10.3536 -0.518736 0)
(11.152 -0.50011 0)
(11.3377 -0.315095 0)
(11.628 -0.168579 0)
(11.6484 -0.219528 0)
(11.8749 -0.199277 0)
(11.794 -0.122972 0)
(11.9787 -0.16973 0)
(11.891 -0.15853 0)
(12.0937 -0.065738 0)
(11.9415 -0.117592 0)
(12.0734 -0.131268 0)
(11.9125 -0.0913197 0)
(11.9773 -0.0754587 0)
(11.7815 -0.131151 0)
(11.8717 -0.0987779 0)
(11.6974 -0.121978 0)
(11.7247 -0.122903 0)
(11.5351 -0.175144 0)
(9.94119 -0.457912 0)
(10.5994 -0.68354 0)
(11.2397 -0.576151 0)
(11.3266 -0.355008 0)
(11.5779 -0.23238 0)
(11.4467 -0.254159 0)
(11.4701 -0.214536 0)
(11.3059 -0.142066 0)
(11.3084 -0.163333 0)
(11.026 -0.146429 0)
(11.1386 -0.0721348 0)
(10.8396 -0.100315 0)
(10.8669 -0.107067 0)
(10.6224 -0.0746636 0)
(10.6691 -0.0580807 0)
(10.3666 -0.10399 0)
(10.4509 -0.079971 0)
(10.1613 -0.106977 0)
(10.1726 -0.0954241 0)
(9.85 -0.171705 0)
(10.0233 -0.632135 0)
(10.7017 -0.854306 0)
(10.8798 -0.614366 0)
(10.6504 -0.375893 0)
(10.4972 -0.239708 0)
(10.0633 -0.208407 0)
(9.81538 -0.164584 0)
(9.51106 -0.102298 0)
(9.31522 -0.100759 0)
(8.97779 -0.0923888 0)
(8.97917 -0.0399736 0)
(8.65902 -0.050472 0)
(8.63875 -0.0622172 0)
(8.4039 -0.0420846 0)
(8.42061 -0.0304087 0)
(8.13839 -0.0619181 0)
(8.19102 -0.0550957 0)
(7.88994 -0.063262 0)
(7.89196 -0.07159 0)
(7.54529 -0.0970455 0)
(10.0704 -0.838813 0)
(9.67821 -0.864271 0)
(8.87003 -0.511178 0)
(8.05927 -0.265103 0)
(7.51798 -0.12879 0)
(6.99117 -0.0869153 0)
(6.68135 -0.06411 0)
(6.40488 -0.0290594 0)
(6.22499 -0.0293613 0)
(5.98451 -0.0362747 0)
(5.95351 -0.00826475 0)
(5.75146 -0.0136169 0)
(5.72816 -0.0284273 0)
(5.55793 -0.0176636 0)
(5.56294 -0.00824444 0)
(5.37103 -0.0299235 0)
(5.3744 -0.0268194 0)
(5.149 -0.0280306 0)
(5.13857 -0.0379342 0)
(4.84379 -0.0219305 0)
(8.09028 -0.388281 0)
(5.45412 -0.242205 0)
(3.91258 -0.043159 0)
(3.14645 0.0137644 0)
(2.8056 0.0210291 0)
(2.59893 0.0101865 0)
(2.47414 0.00219706 0)
(2.3734 0.00606093 0)
(2.32523 0.00236519 0)
(2.23663 -0.00390268 0)
(2.21679 0.00333107 0)
(2.16687 0.00124065 0)
(2.15053 -0.00421613 0)
(2.07368 -0.000656377 0)
(2.07606 0.00257661 0)
(2.00587 -0.00398113 0)
(1.97983 -0.00227734 0)
(1.88746 -0.00215728 0)
(1.85525 -0.00383595 0)
(1.70606 0.0109603 0)
(2.30418 -0.103827 0)
(2.25822 -0.0326714 0)
(2.54365 -0.0409025 0)
(2.51704 -0.0667523 0)
(2.81629 -0.0882091 0)
(2.74788 -0.083319 0)
(3.01327 -0.0623587 0)
(2.87937 -0.0279558 0)
(3.14388 0.00337372 0)
(2.97191 0.0371062 0)
(3.25693 0.053214 0)
(3.0803 0.0603857 0)
(3.40572 0.0560817 0)
(3.22604 0.0540644 0)
(3.57433 0.0458373 0)
(3.38298 0.0411207 0)
(3.74664 0.024932 0)
(3.54257 0.0134697 0)
(3.92158 -0.0182398 0)
(3.70331 -0.0521163 0)
(4.09322 -0.103187 0)
(3.84697 -0.148817 0)
(4.23403 -0.211107 0)
(3.94658 -0.271657 0)
(4.30616 -0.345471 0)
(3.94796 -0.414251 0)
(4.23272 -0.482448 0)
(3.75992 -0.532396 0)
(3.91205 -0.576981 0)
(3.30594 -0.610999 0)
(3.42051 -0.60193 0)
(2.90179 -0.490113 0)
(3.27088 -0.199612 0)
(3.13615 0.296106 0)
(3.87001 0.9236 0)
(4.06414 1.54808 0)
(4.85377 2.1103 0)
(5.07925 2.48742 0)
(5.74854 2.64211 0)
(6.02742 2.58604 0)
(6.55249 2.3039 0)
(6.72097 1.86657 0)
(7.00572 1.33125 0)
(7.03098 0.828165 0)
(7.2844 0.378654 0)
(7.34446 -0.0204161 0)
(7.62559 -0.388043 0)
(7.56365 -0.802906 0)
(7.77547 -1.23972 0)
(7.78177 -1.70401 0)
(8.13211 -2.19005 0)
(8.17253 -2.66536 0)
(8.51496 -3.03007 0)
(8.46976 -3.26795 0)
(8.69491 -3.21676 0)
(8.54546 -2.91528 0)
(8.71434 -2.55404 0)
(8.45981 -2.21943 0)
(8.63605 -1.65708 0)
(8.43241 -1.01424 0)
(8.56564 -0.379134 0)
(8.1475 0.0266128 0)
(8.08639 0.314181 0)
(7.83206 0.670103 0)
(7.85896 1.08785 0)
(7.72926 1.58412 0)
(7.78027 1.84047 0)
(7.75162 1.96798 0)
(7.96156 1.94663 0)
(8.21878 1.90679 0)
(8.46709 1.94563 0)
(8.63864 1.91027 0)
(9.11259 1.62719 0)
(9.30049 1.25384 0)
(9.73437 0.85923 0)
(9.64886 0.452565 0)
(10.1133 -0.0920132 0)
(10.0417 -0.532558 0)
(10.3565 -0.968748 0)
(10.0724 -1.29938 0)
(10.3869 -1.8547 0)
(10.0305 -2.20118 0)
(10.2324 -2.42493 0)
(9.88658 -2.41826 0)
(9.92013 -2.72326 0)
(9.53917 -2.99373 0)
(9.47226 -3.00702 0)
(8.75353 -2.7891 0)
(8.60242 -2.49922 0)
(7.95873 -2.40945 0)
(7.71965 -2.39321 0)
(7.02452 -2.37136 0)
(6.63236 -2.42218 0)
(6.06514 -2.20327 0)
(6.0078 -1.80582 0)
(5.56355 -1.10519 0)
(5.72059 -0.341594 0)
(5.38091 0.277004 0)
(4.73366 0.513751 0)
(3.64077 0.337042 0)
(2.93319 0.843085 0)
(2.39517 1.44416 0)
(2.99725 2.51183 0)
(2.98777 3.42994 0)
(3.36342 4.34997 0)
(4.0235 4.96866 0)
(4.14089 4.43005 0)
(3.50626 4.42396 0)
(5.1437 3.91344 0)
(2.80895 4.19678 0)
(6.39707 3.37007 0)
(3.03008 3.45208 0)
(7.12439 2.40468 0)
(3.98185 2.64283 0)
(7.37951 1.27542 0)
(4.82592 1.83575 0)
(7.44827 0.669253 0)
(5.37893 1.20289 0)
(7.11199 0.357185 0)
(5.90697 0.845428 0)
(6.52296 0.293004 0)
(6.35796 0.549179 0)
(6.27313 0.188177 0)
(6.61209 0.150368 0)
(6.57307 -0.164927 0)
(6.64788 -0.286642 0)
(7.16313 -0.815179 0)
(6.60353 -0.726873 0)
(7.75594 -1.61015 0)
(6.74347 -1.38897 0)
(8.2573 -2.31099 0)
(7.18487 -2.05483 0)
(8.63733 -2.65673 0)
(7.98059 -2.35516 0)
(8.96384 -2.52558 0)
(8.68568 -2.20794 0)
(9.20436 -2.30879 0)
(8.88292 -1.8769 0)
(9.34226 -2.08761 0)
(8.73761 -1.57803 0)
(9.44259 -1.82933 0)
(8.55078 -1.44725 0)
(9.38007 -1.58882 0)
(8.39351 -1.27281 0)
(9.19434 -1.30362 0)
(8.33607 -1.08158 0)
(8.84955 -1.14014 0)
(8.12014 -0.995268 0)
(8.34279 -1.00754 0)
(7.76514 -0.617662 0)
(7.83297 -0.434355 0)
(7.56688 0.117722 0)
(7.52541 0.392343 0)
(7.60309 1.0006 0)
(7.386 1.21936 0)
(7.77905 1.81602 0)
(7.44474 1.84261 0)
(7.76064 2.44851 0)
(7.62803 2.2391 0)
(7.30949 2.90451 0)
(8.27588 2.3653 0)
(6.54898 3.17937 0)
(9.6916 2.43694 0)
(5.60902 3.42463 0)
(11.3834 2.24243 0)
(4.97786 3.60599 0)
(12.5194 1.6184 0)
(5.25851 3.53609 0)
(12.7065 0.992725 0)
(6.04007 3.26845 0)
(12.4533 0.6258 0)
(6.56966 2.91212 0)
(12.1247 0.269384 0)
(7.04052 2.44359 0)
(11.832 -0.226991 0)
(7.30307 1.76656 0)
(11.6169 -0.834365 0)
(7.5072 0.987545 0)
(11.4504 -1.65964 0)
(7.63216 0.0958974 0)
(11.2505 -2.5316 0)
(7.48585 -0.532397 0)
(10.8241 -3.13535 0)
(7.11997 -1.12531 0)
(10.4545 -3.72662 0)
(6.85449 -1.73171 0)
(10.0827 -4.16179 0)
(5.82192 -1.30157 0)
(9.05241 -3.65338 0)
(4.60112 -0.605125 0)
(8.47628 -3.7231 0)
(4.73714 -1.44371 0)
(8.65161 -4.20735 0)
(5.04189 -1.95129 0)
(8.76772 -3.24902 0)
(4.8376 -1.05875 0)
(8.52628 -1.22193 0)
(5.1509 1.63983 0)
(9.52215 2.09985 0)
(5.86456 6.34944 0)
(5.31496 -0.0769549 0)
(5.18378 -0.0474438 0)
(5.36791 -0.0614914 0)
(5.26769 -0.0912096 0)
(5.5235 -0.114396 0)
(5.42204 -0.106813 0)
(5.66937 -0.0876489 0)
(5.5113 -0.0566856 0)
(5.74044 -0.0342377 0)
(5.55726 -0.0101968 0)
(5.79495 0.000844875 0)
(5.62499 0.00553722 0)
(5.8826 0.000811269 0)
(5.7325 -0.00834329 0)
(6.00076 -0.0203443 0)
(5.86364 -0.0295758 0)
(6.1332 -0.0496291 0)
(6.00248 -0.0631841 0)
(6.27542 -0.0906539 0)
(6.14247 -0.120563 0)
(6.41714 -0.158963 0)
(6.27051 -0.202298 0)
(6.53502 -0.248102 0)
(6.36306 -0.302792 0)
(6.58927 -0.352258 0)
(6.36966 -0.393876 0)
(6.52165 -0.441738 0)
(6.22976 -0.442257 0)
(6.32454 -0.427457 0)
(5.93545 -0.383374 0)
(5.93938 -0.277834 0)
(5.37418 -0.16007 0)
(5.26156 -0.0501143 0)
(4.75321 0.157822 0)
(4.94621 0.49155 0)
(4.96588 0.962806 0)
(5.65698 1.49124 0)
(6.10587 1.92147 0)
(6.86537 2.15834 0)
(7.3499 2.20388 0)
(7.97668 2.04825 0)
(8.29227 1.7259 0)
(8.65337 1.2628 0)
(8.64339 0.773943 0)
(8.84995 0.300335 0)
(8.84326 -0.141599 0)
(9.04136 -0.496378 0)
(9.02972 -0.872402 0)
(9.30848 -1.2751 0)
(9.46309 -1.75638 0)
(9.82951 -2.2298 0)
(9.89071 -2.68746 0)
(10.0606 -3.02911 0)
(9.96249 -3.21514 0)
(9.99021 -3.27471 0)
(9.81028 -3.14328 0)
(9.87216 -2.64181 0)
(9.62428 -1.94253 0)
(9.48128 -1.48542 0)
(9.26272 -1.10495 0)
(9.36709 -0.600473 0)
(9.31862 0.089373 0)
(9.26521 0.622201 0)
(8.92578 0.935005 0)
(8.61541 1.19875 0)
(8.48734 1.50901 0)
(8.56563 1.70192 0)
(8.77202 1.80407 0)
(8.98935 1.92326 0)
(8.92905 2.03426 0)
(9.11477 1.8997 0)
(9.26904 1.55847 0)
(9.67491 1.19553 0)
(9.64963 0.973055 0)
(10.1856 0.523134 0)
(10.0312 0.0927158 0)
(10.4713 -0.428247 0)
(10.3032 -0.715996 0)
(10.876 -1.08441 0)
(10.554 -1.39862 0)
(11.0393 -1.92551 0)
(10.4357 -2.16413 0)
(10.8087 -2.3216 0)
(10.1731 -2.46943 0)
(10.5479 -2.71887 0)
(9.91202 -2.69948 0)
(9.88404 -2.76686 0)
(9.20278 -2.58987 0)
(9.43322 -2.16798 0)
(8.78714 -1.87753 0)
(8.50696 -1.94672 0)
(7.83194 -2.07093 0)
(7.67921 -2.0388 0)
(6.99793 -1.89574 0)
(6.93086 -1.57709 0)
(6.38686 -1.08099 0)
(6.40292 -0.262949 0)
(6.29856 0.491351 0)
(5.81181 1.02502 0)
(5.40477 1.1381 0)
(4.03682 1.24214 0)
(3.97424 1.77795 0)
(3.09873 2.0202 0)
(4.00248 3.37663 0)
(4.08804 3.61294 0)
(4.30268 4.6171 0)
(6.24714 4.23709 0)
(3.81716 4.51592 0)
(7.48968 3.59275 0)
(3.66033 3.99267 0)
(8.22276 2.83589 0)
(4.43779 3.4188 0)
(8.37477 1.72278 0)
(5.31403 2.57995 0)
(8.47357 0.955757 0)
(5.58879 1.77212 0)
(8.42256 0.53185 0)
(5.73149 1.29356 0)
(8.0024 0.275638 0)
(6.06182 0.931974 0)
(7.50284 0.161803 0)
(6.56804 0.505556 0)
(7.53548 -0.0459436 0)
(7.06606 0.00458017 0)
(8.08011 -0.48245 0)
(7.42402 -0.383497 0)
(8.73499 -1.10144 0)
(7.6219 -0.852408 0)
(9.28082 -1.8284 0)
(7.75016 -1.55115 0)
(9.75852 -2.57587 0)
(8.00375 -2.19467 0)
(10.0751 -3.03503 0)
(8.53818 -2.46001 0)
(10.3281 -2.90374 0)
(9.1071 -2.21829 0)
(10.6275 -2.45052 0)
(9.33516 -1.74609 0)
(10.7687 -2.09939 0)
(9.01093 -1.37791 0)
(10.691 -1.90483 0)
(8.48318 -1.21714 0)
(10.4308 -1.73925 0)
(8.21232 -1.01707 0)
(10.1366 -1.48138 0)
(8.20527 -0.847827 0)
(9.71313 -1.25824 0)
(8.23653 -0.621043 0)
(9.31494 -0.917806 0)
(8.03877 -0.192979 0)
(8.84842 -0.41381 0)
(7.74172 0.412422 0)
(8.71022 0.262104 0)
(7.65113 1.17832 0)
(9.0348 0.96193 0)
(7.62987 1.87005 0)
(9.77821 1.61352 0)
(7.46808 2.53414 0)
(10.8743 2.02299 0)
(6.93117 3.04343 0)
(12.1213 2.16717 0)
(6.22173 3.43536 0)
(13.1713 1.95391 0)
(5.91214 3.63185 0)
(13.7254 1.46451 0)
(6.34396 3.68767 0)
(13.6458 1.11264 0)
(7.02686 3.58938 0)
(13.269 0.966485 0)
(7.42233 3.25393 0)
(12.9732 0.591458 0)
(7.65836 2.79034 0)
(12.7474 0.215334 0)
(7.95998 2.2684 0)
(12.5911 -0.151872 0)
(8.19588 1.67098 0)
(12.4765 -0.619906 0)
(8.3504 0.953512 0)
(12.3192 -1.29928 0)
(8.31703 0.114977 0)
(12.045 -2.08601 0)
(7.97692 -0.33826 0)
(11.5529 -2.58032 0)
(7.59073 -0.876452 0)
(11.0711 -3.19382 0)
(7.22261 -1.36788 0)
(10.1546 -3.30836 0)
(6.07622 -0.576366 0)
(9.08526 -2.71362 0)
(5.40018 -0.139775 0)
(8.84431 -3.31506 0)
(6.08866 -1.07551 0)
(8.77025 -4.08055 0)
(6.17672 -1.02 0)
(8.54795 -3.33366 0)
(5.69881 0.232028 0)
(7.95101 -2.2086 0)
(5.54052 2.09503 0)
(8.61292 0.0458867 0)
(8.17754 5.63111 0)
(7.94683 -0.112693 0)
(7.85581 -0.121335 0)
(7.96738 -0.145373 0)
(7.90718 -0.147367 0)
(8.0822 -0.145945 0)
(8.0398 -0.114781 0)
(8.20953 -0.0990409 0)
(8.11886 -0.0612122 0)
(8.25288 -0.0454454 0)
(8.13414 -0.028475 0)
(8.26013 -0.0208679 0)
(8.16238 -0.0315337 0)
(8.30398 -0.027622 0)
(8.24066 -0.0462896 0)
(8.39459 -0.0567398 0)
(8.34724 -0.0655673 0)
(8.50384 -0.0933373 0)
(8.45223 -0.100926 0)
(8.61082 -0.133299 0)
(8.54263 -0.158326 0)
(8.70008 -0.19916 0)
(8.62168 -0.234227 0)
(8.75493 -0.270983 0)
(8.66639 -0.321832 0)
(8.76477 -0.345086 0)
(8.63339 -0.366549 0)
(8.68168 -0.390774 0)
(8.49157 -0.364016 0)
(8.49315 -0.321212 0)
(8.20018 -0.260501 0)
(8.14477 -0.152063 0)
(7.85132 0.018479 0)
(7.70615 0.209154 0)
(7.38359 0.425378 0)
(7.27807 0.640331 0)
(6.99753 0.85261 0)
(7.10676 1.07687 0)
(7.32439 1.36523 0)
(7.85187 1.55023 0)
(8.2398 1.57932 0)
(8.80649 1.46678 0)
(9.19698 1.25151 0)
(9.63431 0.964144 0)
(9.73793 0.591951 0)
(9.97397 0.180631 0)
(10.1033 -0.242715 0)
(10.2944 -0.588907 0)
(10.4714 -0.956273 0)
(10.7734 -1.45227 0)
(11.0526 -2.01336 0)
(11.1393 -2.52095 0)
(11.2135 -2.85521 0)
(11.2236 -3.18204 0)
(11.2711 -3.37506 0)
(11.1585 -3.19494 0)
(10.8737 -2.72591 0)
(10.452 -2.36481 0)
(10.2262 -1.97076 0)
(10.1795 -1.43874 0)
(10.0482 -0.865572 0)
(9.77647 -0.372471 0)
(9.71777 0.119533 0)
(9.69404 0.607262 0)
(9.81654 1.10832 0)
(9.70081 1.46954 0)
(9.65105 1.59125 0)
(9.5242 1.65315 0)
(9.54709 1.78095 0)
(9.48816 1.80308 0)
(9.6432 1.7256 0)
(10.0721 1.63143 0)
(10.1111 1.55099 0)
(10.4773 1.26605 0)
(10.4668 0.880109 0)
(11.0128 0.486212 0)
(10.7183 0.245134 0)
(11.2737 -0.337618 0)
(10.8184 -0.79969 0)
(11.4047 -1.22977 0)
(10.8646 -1.33329 0)
(11.4885 -1.90514 0)
(10.651 -2.05398 0)
(11.3596 -2.34342 0)
(10.5729 -2.24845 0)
(11.0482 -2.44395 0)
(10.0194 -2.57245 0)
(10.5941 -2.61732 0)
(9.7406 -2.26062 0)
(9.91912 -2.09425 0)
(9.23533 -1.75434 0)
(9.36667 -1.73186 0)
(8.64958 -1.71171 0)
(8.53087 -1.8997 0)
(8.12716 -1.60154 0)
(7.80445 -1.34733 0)
(7.56487 -0.713629 0)
(6.8788 -0.227887 0)
(7.17294 0.620746 0)
(6.53972 1.29588 0)
(6.77066 1.93534 0)
(5.54545 1.82721 0)
(5.01781 2.34989 0)
(4.83494 2.05408 0)
(3.86122 3.30003 0)
(5.92585 3.16425 0)
(3.63856 4.27596 0)
(7.91806 3.6529 0)
(4.02159 4.34452 0)
(8.97144 3.26005 0)
(4.62495 3.91943 0)
(9.01317 2.38219 0)
(5.55887 3.30195 0)
(9.0647 1.67529 0)
(5.92099 2.44218 0)
(9.21021 1.1059 0)
(5.74465 1.8698 0)
(9.15254 0.573481 0)
(5.75149 1.47264 0)
(8.77014 0.24069 0)
(6.25231 1.0079 0)
(8.59403 0.0567916 0)
(7.00744 0.373545 0)
(8.99356 -0.296506 0)
(7.84682 -0.125378 0)
(9.7278 -0.768853 0)
(8.51178 -0.437498 0)
(10.533 -1.28116 0)
(8.9126 -0.864787 0)
(11.1643 -1.94149 0)
(9.05189 -1.53758 0)
(11.5688 -2.70547 0)
(9.06749 -2.12974 0)
(11.7641 -3.21685 0)
(9.09043 -2.37236 0)
(11.829 -3.25173 0)
(9.11806 -2.23313 0)
(11.9094 -2.83244 0)
(9.11389 -1.73984 0)
(12.1908 -2.27789 0)
(8.94241 -1.13673 0)
(12.46 -1.88438 0)
(8.63086 -0.794344 0)
(12.365 -1.72269 0)
(8.19708 -0.660723 0)
(11.9421 -1.60371 0)
(7.90128 -0.587907 0)
(11.5688 -1.40835 0)
(7.77605 -0.328146 0)
(11.2368 -1.07997 0)
(7.55892 0.130407 0)
(11.107 -0.587286 0)
(7.25822 0.731811 0)
(11.295 0.00948323 0)
(7.00076 1.36709 0)
(11.8299 0.630858 0)
(6.84956 2.07958 0)
(12.6125 1.11051 0)
(6.81712 2.72724 0)
(13.499 1.40815 0)
(6.94876 3.35113 0)
(14.2166 1.52711 0)
(7.16932 3.69473 0)
(14.4381 1.42725 0)
(7.62463 3.8404 0)
(14.1563 1.21504 0)
(8.05243 3.73657 0)
(13.7068 1.08152 0)
(8.36218 3.3636 0)
(13.5158 1.02089 0)
(8.65801 3.10733 0)
(13.5154 0.830553 0)
(8.87635 2.7257 0)
(13.4066 0.551329 0)
(9.01049 2.08051 0)
(13.2103 0.0959151 0)
(9.0231 1.36807 0)
(13.0115 -0.43085 0)
(9.05346 0.606683 0)
(12.8201 -1.07707 0)
(8.92657 -0.117338 0)
(12.418 -1.73569 0)
(8.37572 -0.415021 0)
(11.9903 -2.23481 0)
(7.75187 -0.993404 0)
(11.396 -2.88911 0)
(6.863 -1.10034 0)
(10.3446 -2.87951 0)
(6.07652 -0.372151 0)
(9.79707 -2.58482 0)
(6.46703 -0.490744 0)
(9.88789 -3.46402 0)
(7.44608 -1.62281 0)
(9.66774 -4.069 0)
(7.32055 -1.3517 0)
(8.88849 -3.09677 0)
(6.99259 0.566638 0)
(8.30284 -1.43748 0)
(6.55055 2.62169 0)
(8.06486 0.26727 0)
(7.76541 4.29265 0)
(10.1409 -0.142994 0)
(10.1261 -0.256794 0)
(10.1955 -0.304829 0)
(10.1992 -0.278286 0)
(10.3094 -0.234534 0)
(10.2831 -0.164282 0)
(10.3887 -0.124492 0)
(10.3189 -0.0822563 0)
(10.4072 -0.0563983 0)
(10.3186 -0.039691 0)
(10.3864 -0.0330884 0)
(10.3286 -0.0513 0)
(10.3901 -0.0513784 0)
(10.37 -0.079205 0)
(10.4349 -0.0927607 0)
(10.4346 -0.104787 0)
(10.5149 -0.138189 0)
(10.5038 -0.138602 0)
(10.5989 -0.167716 0)
(10.5605 -0.188171 0)
(10.6466 -0.22409 0)
(10.6042 -0.250189 0)
(10.6447 -0.271453 0)
(10.5982 -0.32936 0)
(10.5935 -0.327785 0)
(10.5197 -0.324077 0)
(10.479 -0.364832 0)
(10.3654 -0.288719 0)
(10.2999 -0.22131 0)
(10.1386 -0.159118 0)
(10.0491 -0.0167154 0)
(9.90024 0.171085 0)
(9.74532 0.337038 0)
(9.55156 0.513132 0)
(9.55063 0.739789 0)
(9.39361 0.976716 0)
(9.33262 1.12543 0)
(9.39508 1.2067 0)
(9.66604 1.3231 0)
(9.82096 1.34869 0)
(10.1997 1.15957 0)
(10.5171 0.921278 0)
(10.8242 0.69768 0)
(11.0443 0.427638 0)
(11.3397 -0.0473024 0)
(11.5615 -0.403919 0)
(11.7334 -0.705064 0)
(12.069 -1.1948 0)
(12.2805 -1.77862 0)
(12.4856 -2.13524 0)
(12.4203 -2.462 0)
(12.5889 -2.84923 0)
(12.4871 -3.03959 0)
(12.2661 -2.95424 0)
(11.4615 -2.81092 0)
(11.1712 -2.5293 0)
(10.7698 -2.12594 0)
(10.6463 -1.6772 0)
(10.1766 -1.27269 0)
(10.2318 -0.849598 0)
(10.0065 -0.387917 0)
(10.143 0.0734341 0)
(9.9813 0.545904 0)
(10.2322 0.991025 0)
(10.282 1.32791 0)
(10.5169 1.60234 0)
(10.5297 1.76368 0)
(10.4787 1.77352 0)
(10.6323 1.76216 0)
(10.6174 1.70875 0)
(10.786 1.52113 0)
(10.4856 1.23462 0)
(11.0978 0.873021 0)
(10.9107 0.714316 0)
(11.4185 0.276785 0)
(10.9917 -0.0997757 0)
(11.6876 -0.551227 0)
(11.0552 -0.655711 0)
(11.7085 -1.30019 0)
(10.8201 -1.42936 0)
(11.9246 -1.86462 0)
(10.7248 -1.85611 0)
(11.6774 -2.28262 0)
(10.3551 -2.06719 0)
(11.5546 -2.41327 0)
(10.1623 -2.2479 0)
(11.216 -2.41775 0)
(9.71234 -2.03531 0)
(10.7126 -1.88696 0)
(9.30091 -1.34756 0)
(10.3303 -1.45127 0)
(9.01825 -1.39589 0)
(9.7677 -1.62825 0)
(8.52907 -1.24196 0)
(8.98137 -1.08009 0)
(7.95521 -0.378168 0)
(8.27658 0.0322354 0)
(7.26396 0.830352 0)
(8.03986 1.31455 0)
(6.80665 2.16886 0)
(8.10999 2.29631 0)
(5.42364 2.891 0)
(7.6178 2.3961 0)
(3.69556 3.22951 0)
(7.88415 2.77548 0)
(3.39814 3.90566 0)
(8.90985 3.05086 0)
(4.32515 4.09093 0)
(9.1421 2.75819 0)
(5.67068 3.88556 0)
(8.92843 2.22165 0)
(6.386 3.10497 0)
(9.06539 1.71579 0)
(6.4699 2.3769 0)
(9.25075 1.05878 0)
(6.468 1.95217 0)
(9.17222 0.503315 0)
(6.87356 1.45772 0)
(9.11746 0.157688 0)
(7.51083 0.81088 0)
(9.48397 -0.233061 0)
(8.3964 0.158127 0)
(10.0741 -0.756154 0)
(9.39288 -0.406561 0)
(10.8207 -1.17246 0)
(10.1711 -0.739493 0)
(11.6095 -1.53606 0)
(10.6303 -1.09659 0)
(12.2252 -2.03986 0)
(10.6933 -1.57681 0)
(12.5766 -2.78512 0)
(10.4531 -2.07887 0)
(12.8128 -3.34363 0)
(10.1121 -2.15609 0)
(13.0091 -3.23783 0)
(9.73142 -1.82045 0)
(12.9442 -2.83642 0)
(9.14473 -1.43426 0)
(12.7919 -2.56286 0)
(8.54907 -0.970656 0)
(12.8378 -2.29051 0)
(8.22435 -0.550022 0)
(12.9311 -1.98856 0)
(8.04939 -0.31874 0)
(12.9598 -1.72654 0)
(7.96735 -0.169514 0)
(12.9577 -1.5479 0)
(7.70913 0.0474875 0)
(12.9609 -1.36 0)
(7.49006 0.419584 0)
(13.2076 -0.973707 0)
(7.35726 0.96759 0)
(13.6655 -0.505477 0)
(7.33181 1.62131 0)
(14.1695 0.0488849 0)
(7.45895 2.25067 0)
(14.594 0.53211 0)
(7.74953 2.90924 0)
(14.7743 0.904617 0)
(8.09491 3.37264 0)
(14.8104 1.28965 0)
(8.51996 3.65466 0)
(14.683 1.54261 0)
(8.82689 3.76359 0)
(14.3623 1.57628 0)
(8.96779 3.59157 0)
(14.1731 1.56174 0)
(8.94624 3.23164 0)
(14.0451 1.28006 0)
(9.02356 2.86826 0)
(14.0003 0.886961 0)
(9.28773 2.3985 0)
(13.927 0.672389 0)
(9.66326 1.87923 0)
(13.8449 0.285532 0)
(9.80936 1.35656 0)
(13.6566 -0.293214 0)
(9.76651 0.665325 0)
(13.2977 -0.947754 0)
(9.42584 0.0991377 0)
(12.6831 -1.53696 0)
(8.9235 -0.3361 0)
(12.2048 -1.9418 0)
(8.38411 -0.887026 0)
(11.639 -2.34141 0)
(7.64629 -0.976796 0)
(11.1161 -2.2713 0)
(6.98326 -0.710917 0)
(11.1559 -2.21801 0)
(7.45139 -1.117 0)
(11.2282 -3.10969 0)
(7.7272 -1.70695 0)
(10.483 -3.20647 0)
(7.04404 -1.04791 0)
(9.09301 -2.57379 0)
(6.50576 0.235859 0)
(8.37021 -1.33958 0)
(6.82098 1.72138 0)
(8.4844 0.234276 0)
(8.00621 2.4461 0)
(11.6939 -0.103986 0)
(11.711 -0.266784 0)
(11.8466 -0.32287 0)
(11.8772 -0.306519 0)
(11.9841 -0.256783 0)
(11.9237 -0.172288 0)
(11.9886 -0.136536 0)
(11.9032 -0.0766007 0)
(11.9547 -0.0681721 0)
(11.8802 -0.0390806 0)
(11.9045 -0.03732 0)
(11.8711 -0.0684016 0)
(11.8874 -0.0509671 0)
(11.8829 -0.100576 0)
(11.8968 -0.104022 0)
(11.9006 -0.119695 0)
(11.932 -0.161563 0)
(11.9356 -0.152776 0)
(11.9576 -0.191508 0)
(11.9646 -0.188804 0)
(11.9731 -0.23958 0)
(11.9578 -0.239975 0)
(11.9467 -0.251098 0)
(11.9204 -0.310943 0)
(11.848 -0.285485 0)
(11.7954 -0.269436 0)
(11.7375 -0.31094 0)
(11.6107 -0.23041 0)
(11.5516 -0.126637 0)
(11.4701 -0.0847446 0)
(11.3746 0.0339101 0)
(11.2882 0.25893 0)
(11.2684 0.420538 0)
(11.2043 0.530218 0)
(11.2172 0.782158 0)
(11.206 1.03624 0)
(11.3109 1.10494 0)
(11.3871 1.1452 0)
(11.5466 1.28533 0)
(11.7279 1.26439 0)
(12.0746 0.975959 0)
(12.2197 0.840757 0)
(12.4738 0.591166 0)
(12.741 0.174445 0)
(12.9794 -0.210633 0)
(13.0445 -0.490215 0)
(13.3097 -0.945443 0)
(13.5494 -1.43566 0)
(13.5221 -1.76833 0)
(13.5043 -2.0922 0)
(13.5262 -2.48534 0)
(13.3754 -2.71963 0)
(12.6519 -2.80307 0)
(12.27 -2.71849 0)
(11.7754 -2.45662 0)
(11.6007 -2.18029 0)
(11.0554 -1.81049 0)
(10.8619 -1.41654 0)
(10.415 -1.05051 0)
(10.3791 -0.642204 0)
(9.98956 -0.235449 0)
(10.0347 0.175817 0)
(9.9362 0.534436 0)
(10.1527 0.868725 0)
(10.3723 1.16778 0)
(10.5964 1.45288 0)
(10.9737 1.623 0)
(11.0263 1.79124 0)
(11.4495 1.77758 0)
(11.2469 1.59061 0)
(11.7262 1.47228 0)
(11.5293 1.34004 0)
(11.9265 0.845561 0)
(11.5642 0.586757 0)
(12.1713 0.302236 0)
(11.7639 0.111266 0)
(12.102 -0.654337 0)
(11.4373 -0.848753 0)
(12.4036 -1.33955 0)
(11.2938 -1.38541 0)
(12.3299 -2.04888 0)
(10.8835 -1.86069 0)
(12.4 -2.32707 0)
(10.5251 -2.0681 0)
(12.4383 -2.26736 0)
(10.1393 -2.1341 0)
(12.1639 -2.35488 0)
(9.59532 -1.82604 0)
(11.8958 -1.65689 0)
(9.16981 -1.3957 0)
(11.8352 -1.43919 0)
(9.08669 -1.24219 0)
(11.4546 -1.44171 0)
(8.40558 -1.02413 0)
(10.7495 -0.84028 0)
(7.67349 -0.0563279 0)
(10.0391 0.195501 0)
(6.96303 1.13484 0)
(9.68024 1.33395 0)
(6.5677 2.38175 0)
(9.84959 2.37426 0)
(6.08189 3.33306 0)
(9.8757 2.86163 0)
(4.8912 3.61493 0)
(9.55623 2.80527 0)
(4.44159 3.83151 0)
(9.1356 2.67995 0)
(5.4958 3.88647 0)
(8.62197 2.48695 0)
(6.73556 3.53474 0)
(8.56191 2.23388 0)
(7.30277 2.86357 0)
(8.82656 1.59758 0)
(7.60435 2.34811 0)
(9.05557 0.943397 0)
(8.11786 1.81499 0)
(9.23358 0.474041 0)
(8.77708 1.133 0)
(9.75233 0.012558 0)
(9.52298 0.526072 0)
(10.469 -0.61173 0)
(10.3924 -0.13722 0)
(11.0545 -1.13691 0)
(11.2558 -0.720843 0)
(11.5309 -1.49413 0)
(11.9897 -1.00466 0)
(12.0348 -1.78368 0)
(12.5188 -1.22198 0)
(12.4252 -2.22898 0)
(12.6526 -1.54869 0)
(12.6246 -2.85473 0)
(12.4065 -1.88621 0)
(12.7013 -3.40627 0)
(11.7835 -2.01034 0)
(12.7121 -3.52885 0)
(11.1106 -1.63101 0)
(12.6799 -3.00813 0)
(10.421 -0.89729 0)
(12.4129 -2.45726 0)
(9.475 -0.419251 0)
(12.0219 -2.28432 0)
(8.47698 -0.248061 0)
(11.9299 -2.20696 0)
(7.81709 -0.14424 0)
(12.234 -1.96073 0)
(7.44393 -0.0695906 0)
(12.6822 -1.73507 0)
(7.24512 0.173222 0)
(13.2261 -1.56688 0)
(7.17329 0.634349 0)
(13.8092 -1.32483 0)
(7.27212 1.12819 0)
(14.4075 -0.884243 0)
(7.577 1.61123 0)
(14.9555 -0.291523 0)
(8.0564 2.17197 0)
(15.3357 0.277893 0)
(8.64124 2.74698 0)
(15.5209 0.793037 0)
(9.20674 3.22634 0)
(15.667 1.31235 0)
(9.5767 3.49192 0)
(15.6136 1.63503 0)
(9.9466 3.62128 0)
(15.4325 1.82408 0)
(10.0491 3.45895 0)
(15.0822 1.77171 0)
(10.15 3.18367 0)
(14.6759 1.45344 0)
(10.292 2.87252 0)
(14.2014 1.06833 0)
(10.4485 2.24331 0)
(13.7835 0.791958 0)
(10.6408 1.55086 0)
(13.6254 0.452523 0)