/*--------------------------------*- C++ -*----------------------------------*\
| =========                 |                                                 |
| \\      /  F ield         | OpenFOAM: The Open Source CFD Toolbox           |
|  \\    /   O peration     | Version:  2.4.0                                 |
|   \\  /    A nd           | Web:      www.OpenFOAM.org                      |
|    \\/     M anipulation  |                                                 |
\*---------------------------------------------------------------------------*/
FoamFile
{
    version     2.0;
    format      ascii;
    class       surfaceScalarField;
    location    "0.5";
    object      phi;
}
// * * * * * * * * * * * * * * * * * * * * * * * * * * * * * * * * * * * * * //

dimensions      [0 3 -1 0 0 0 0];

internalField   nonuniform List<scalar> 
17320
(
1.76333e-05
7.36671e-06
1.16177e-05
6.01561e-06
8.68527e-06
2.93241e-06
7.35216e-06
1.33311e-06
6.72101e-06
6.31149e-07
6.34341e-06
3.77606e-07
6.07585e-06
2.67563e-07
5.86939e-06
2.06452e-07
5.71012e-06
1.59273e-07
5.58467e-06
1.25446e-07
5.47562e-06
1.09051e-07
5.38065e-06
9.49713e-08
5.32798e-06
5.26752e-08
5.20287e-06
1.25109e-07
5.14494e-06
5.793e-08
5.0555e-06
8.9434e-08
4.94218e-06
1.13327e-07
4.86585e-06
7.63319e-08
4.63258e-06
2.33262e-07
-4.40864e-07
5.07345e-06
2.54515e-05
6.9152e-06
2.32504e-05
8.21669e-06
2.09897e-05
5.19318e-06
1.93142e-05
3.00856e-06
1.80795e-05
1.8659e-06
1.71119e-05
1.34519e-06
1.63644e-05
1.01509e-06
1.57727e-05
7.98125e-07
1.53133e-05
6.1866e-07
1.49356e-05
5.03156e-07
1.46291e-05
4.15577e-07
1.43714e-05
3.52664e-07
1.4166e-05
2.58039e-07
1.39149e-05
3.76222e-07
1.37447e-05
2.28144e-07
1.35334e-05
3.0069e-07
1.33058e-05
3.40945e-07
1.30989e-05
2.83201e-07
1.2904e-05
4.28244e-07
-3.17798e-07
1.27809e-05
2.66055e-05
5.30971e-06
2.71623e-05
7.6599e-06
2.6779e-05
5.57643e-06
2.62459e-05
3.54164e-06
2.56072e-05
2.50469e-06
2.4872e-05
2.08037e-06
2.41602e-05
1.72688e-06
2.34976e-05
1.46065e-06
2.29432e-05
1.17306e-06
2.24445e-05
1.00192e-06
2.20273e-05
8.32747e-07
2.16801e-05
6.99865e-07
2.1368e-05
5.70154e-07
2.10542e-05
6.90022e-07
2.081e-05
4.72328e-07
2.0532e-05
5.78726e-07
2.02663e-05
6.06636e-07
1.99321e-05
6.17397e-07
1.97805e-05
5.79813e-07
2.6591e-07
1.91968e-05
2.63064e-05
4.00328e-06
2.75487e-05
6.41759e-06
2.80804e-05
5.04479e-06
2.8452e-05
3.16998e-06
2.86467e-05
2.31001e-06
2.86208e-05
2.10625e-06
2.84822e-05
1.86555e-06
2.82157e-05
1.72718e-06
2.79826e-05
1.40607e-06
2.76915e-05
1.29306e-06
2.74146e-05
1.10962e-06
2.71833e-05
9.31158e-07
2.69158e-05
8.37665e-07
2.66645e-05
9.41342e-07
2.64449e-05
6.91955e-07
2.61833e-05
8.40285e-07
2.5973e-05
8.16959e-07
2.55765e-05
1.01394e-06
2.53219e-05
8.34346e-07
1.32942e-06
2.42584e-05
2.6029e-05
2.97431e-06
2.72383e-05
5.20827e-06
2.8038e-05
4.24512e-06
2.85093e-05
2.69859e-06
2.89903e-05
1.82908e-06
2.93159e-05
1.78063e-06
2.96102e-05
1.57127e-06
2.97083e-05
1.62899e-06
2.98526e-05
1.26178e-06
2.99208e-05
1.22492e-06
2.99225e-05
1.10786e-06
2.99926e-05
8.6111e-07
2.99385e-05
8.91739e-07
2.99234e-05
9.5648e-07
2.99003e-05
7.14992e-07
2.97866e-05
9.5407e-07
2.9757e-05
8.46489e-07
2.96661e-05
1.10484e-06
2.9691e-05
8.09491e-07
9.60275e-07
3.00601e-05
2.5839e-05
2.13532e-06
2.69744e-05
4.07283e-06
2.78122e-05
3.40732e-06
2.82351e-05
2.27574e-06
2.87302e-05
1.33397e-06
2.90687e-05
1.44213e-06
2.94801e-05
1.15989e-06
2.9694e-05
1.41511e-06
2.99621e-05
9.93655e-07
3.02098e-05
9.77177e-07
3.03472e-05
9.70473e-07
3.05773e-05
6.30993e-07
3.06905e-05
7.78531e-07
3.08416e-05
8.05424e-07
3.10071e-05
5.49487e-07
3.10874e-05
8.73797e-07
3.11944e-05
7.3943e-07
3.15098e-05
7.89486e-07
3.15294e-05
7.89925e-07
5.15537e-07
3.19741e-05
2.56715e-05
1.46386e-06
2.67417e-05
3.00259e-06
2.75968e-05
2.55218e-06
2.81187e-05
1.75391e-06
2.84601e-05
9.92497e-07
2.88604e-05
1.04187e-06
2.92058e-05
8.14452e-07
2.94628e-05
1.15815e-06
2.97692e-05
6.8721e-07
2.99904e-05
7.56054e-07
3.02255e-05
7.35353e-07
3.04704e-05
3.86064e-07
3.06185e-05
6.30463e-07
3.07962e-05
6.27699e-07
3.09868e-05
3.58905e-07
3.11429e-05
7.1771e-07
3.13838e-05
4.9851e-07
3.16763e-05
4.96993e-07
3.19279e-05
5.38272e-07
3.84648e-07
3.20588e-05
2.55373e-05
9.26535e-07
2.66105e-05
1.92942e-06
2.74333e-05
1.72942e-06
2.79767e-05
1.21047e-06
2.83209e-05
6.48338e-07
2.87431e-05
6.19622e-07
2.89719e-05
5.85642e-07
2.93605e-05
7.69603e-07
2.95649e-05
4.82786e-07
2.97926e-05
5.28357e-07
3.00654e-05
4.62518e-07
3.02076e-05
2.43859e-07
3.04351e-05
4.03008e-07
3.06299e-05
4.32914e-07
3.07868e-05
2.01964e-07
3.09939e-05
5.10665e-07
3.13123e-05
1.80099e-07
3.1552e-05
2.57232e-07
3.17285e-05
3.61783e-07
2.8774e-07
3.18254e-05
2.54459e-05
4.80607e-07
2.64875e-05
8.87855e-07
2.73459e-05
8.71041e-07
2.79069e-05
6.49488e-07
2.82682e-05
2.87025e-07
2.85068e-05
3.8094e-07
2.88787e-05
2.13787e-07
2.92394e-05
4.08932e-07
2.94303e-05
2.91808e-07
2.97882e-05
1.70513e-07
2.99376e-05
3.13087e-07
3.01363e-05
4.52162e-08
3.03984e-05
1.40867e-07
3.05492e-05
2.82157e-07
3.06062e-05
1.44973e-07
3.09802e-05
1.36666e-07
3.11314e-05
2.88981e-08
3.13782e-05
1.03435e-08
3.16338e-05
1.06215e-07
2.31144e-07
3.16904e-05
2.54614e-05
1.92341e-08
2.64416e-05
-9.23701e-08
2.72345e-05
7.81298e-08
2.78871e-05
-3.09774e-09
2.82004e-05
-2.62315e-08
2.85228e-05
5.85116e-08
2.88502e-05
-1.13651e-07
2.91497e-05
1.09492e-07
2.94553e-05
-1.38602e-08
2.96646e-05
-3.87161e-08
2.98747e-05
1.02937e-07
3.0122e-05
-2.02112e-07
3.02743e-05
-1.14043e-08
3.04421e-05
1.14376e-07
3.06524e-05
-6.53709e-08
3.09409e-05
-1.51819e-07
3.10821e-05
-1.123e-07
3.12439e-05
-1.51441e-07
3.15988e-05
-2.48647e-07
-4.80541e-08
3.1878e-05
2.54392e-05
-4.19919e-07
2.64034e-05
-1.05663e-06
2.72794e-05
-7.97865e-07
2.7898e-05
-6.21654e-07
2.81842e-05
-3.12466e-07
2.85459e-05
-3.03168e-07
2.87927e-05
-3.60467e-07
2.91506e-05
-2.48426e-07
2.94381e-05
-3.01363e-07
2.97133e-05
-3.13857e-07
2.99143e-05
-9.80909e-08
3.00654e-05
-3.53207e-07
3.0285e-05
-2.31017e-07
3.04836e-05
-8.42588e-08
3.06774e-05
-2.59119e-07
3.08503e-05
-3.24731e-07
3.10451e-05
-3.07084e-07
3.13332e-05
-4.39619e-07
3.15074e-05
-4.22778e-07
-3.44806e-07
3.18041e-05
2.54561e-05
-8.75999e-07
2.64676e-05
-2.06817e-06
2.73187e-05
-1.64889e-06
2.79286e-05
-1.23162e-06
2.82699e-05
-6.53786e-07
2.85589e-05
-5.92091e-07
2.88661e-05
-6.67757e-07
2.92223e-05
-6.04564e-07
2.94706e-05
-5.49647e-07
2.97553e-05
-5.98573e-07
2.99227e-05
-2.65532e-07
3.01745e-05
-6.0498e-07
3.02989e-05
-3.55451e-07
3.05045e-05
-2.89824e-07
3.07433e-05
-4.97921e-07
3.0929e-05
-5.10458e-07
3.11225e-05
-5.00563e-07
3.13465e-05
-6.63599e-07
3.15703e-05
-6.46568e-07
-5.58362e-07
3.17838e-05
2.5554e-05
-1.42996e-06
2.65806e-05
-3.09478e-06
2.74333e-05
-2.50163e-06
2.80094e-05
-1.8077e-06
2.83285e-05
-9.72909e-07
2.86924e-05
-9.56011e-07
2.8981e-05
-9.56374e-07
2.93095e-05
-9.32987e-07
2.96101e-05
-8.5028e-07
2.98294e-05
-8.17881e-07
3.0056e-05
-4.92079e-07
3.02783e-05
-8.2737e-07
3.03948e-05
-4.71907e-07
3.06436e-05
-5.38623e-07
3.08159e-05
-6.70203e-07
3.10314e-05
-7.26016e-07
3.12048e-05
-6.73879e-07
3.14801e-05
-9.38957e-07
3.17152e-05
-8.81694e-07
-8.10284e-07
3.19672e-05
2.56773e-05
-2.10726e-06
2.67281e-05
-4.1456e-06
2.76061e-05
-3.37957e-06
2.8066e-05
-2.26761e-06
2.84708e-05
-1.37771e-06
2.88517e-05
-1.33699e-06
2.91747e-05
-1.27932e-06
2.94997e-05
-1.25799e-06
2.97516e-05
-1.10221e-06
3.00046e-05
-1.07081e-06
3.02362e-05
-7.23754e-07
3.04108e-05
-1.00197e-06
3.05678e-05
-6.28917e-07
3.08125e-05
-7.83235e-07
3.09405e-05
-7.98211e-07
3.11683e-05
-9.53811e-07
3.13446e-05
-8.50213e-07
3.16281e-05
-1.22249e-06
3.1853e-05
-1.10654e-06
-1.06404e-06
3.21067e-05
2.58439e-05
-2.95118e-06
2.6956e-05
-5.25766e-06
2.7817e-05
-4.24055e-06
2.82276e-05
-2.67828e-06
2.86994e-05
-1.84943e-06
2.91041e-05
-1.74167e-06
2.94472e-05
-1.62249e-06
2.97249e-05
-1.53569e-06
2.99916e-05
-1.36892e-06
3.01795e-05
-1.2587e-06
3.03861e-05
-9.30342e-07
3.05299e-05
-1.14571e-06
3.06977e-05
-7.9674e-07
3.08494e-05
-9.34926e-07
3.09542e-05
-9.03047e-07
3.10879e-05
-1.08752e-06
3.11807e-05
-9.42986e-07
3.13704e-05
-1.41223e-06
3.14886e-05
-1.22469e-06
-1.33036e-06
3.17549e-05
2.60422e-05
-3.99334e-06
2.72368e-05
-6.45234e-06
2.80312e-05
-5.03488e-06
2.84946e-05
-3.14171e-06
2.89826e-05
-2.33744e-06
2.93305e-05
-2.08957e-06
2.95863e-05
-1.87826e-06
2.97387e-05
-1.68808e-06
2.98541e-05
-1.48436e-06
2.9891e-05
-1.29555e-06
2.99676e-05
-1.00701e-06
2.99302e-05
-1.10831e-06
2.99536e-05
-8.20146e-07
2.99092e-05
-8.90508e-07
2.98538e-05
-8.47608e-07
2.97597e-05
-9.93485e-07
2.96676e-05
-8.50851e-07
2.95719e-05
-1.31654e-06
2.9475e-05
-1.1278e-06
-1.41405e-06
2.95587e-05
2.6312e-05
-5.30532e-06
2.7539e-05
-7.67932e-06
2.80733e-05
-5.56923e-06
2.84513e-05
-3.51973e-06
2.86446e-05
-2.53067e-06
2.86247e-05
-2.0697e-06
2.84741e-05
-1.72764e-06
2.8236e-05
-1.45006e-06
2.79624e-05
-1.21076e-06
2.768e-05
-1.01311e-06
2.74388e-05
-7.6586e-07
2.7131e-05
-8.00486e-07
2.69108e-05
-5.99964e-07
2.66435e-05
-6.23136e-07
2.63893e-05
-5.93475e-07
2.61021e-05
-7.0621e-07
2.58527e-05
-6.01443e-07
2.54917e-05
-9.55595e-07
2.52374e-05
-8.73484e-07
-1.27164e-06
2.5095e-05
2.66077e-05
-6.91302e-06
2.71553e-05
-8.22694e-06
2.67764e-05
-5.19027e-06
2.62512e-05
-2.99461e-06
2.56023e-05
-1.8817e-06
2.48732e-05
-1.34064e-06
2.41576e-05
-1.01202e-06
2.35049e-05
-7.97393e-07
2.29259e-05
-6.31748e-07
2.24355e-05
-5.22686e-07
2.20378e-05
-3.68145e-07
2.1642e-05
-4.0473e-07
2.13428e-05
-3.0071e-07
2.10332e-05
-3.13581e-07
2.07467e-05
-3.06992e-07
2.04284e-05
-3.87904e-07
2.01538e-05
-3.2685e-07
1.97191e-05
-5.20879e-07
1.93376e-05
-4.91959e-07
-4.35515e-07
1.85015e-05
2.54527e-05
-7.36576e-06
2.32452e-05
-6.01937e-06
2.0987e-05
-2.93205e-06
1.93192e-05
-1.32686e-06
1.8075e-05
-6.37479e-07
1.71115e-05
-3.77189e-07
1.63642e-05
-2.64662e-07
1.57739e-05
-2.07151e-07
1.53033e-05
-1.61144e-07
1.49219e-05
-1.41242e-07
1.46356e-05
-8.19046e-08
1.4346e-05
-1.15083e-07
1.41269e-05
-8.16345e-08
1.39007e-05
-8.73392e-08
1.36848e-05
-9.1143e-08
1.3428e-05
-1.31066e-07
1.32017e-05
-1.00548e-07
1.28559e-05
-1.75129e-07
1.25792e-05
-2.15199e-07
-5.65862e-08
1.22003e-05
1.76342e-05
1.16149e-05
8.68281e-06
7.35595e-06
6.71848e-06
6.34129e-06
6.07662e-06
5.86947e-06
5.70833e-06
5.56709e-06
5.48518e-06
5.3701e-06
5.28847e-06
5.20113e-06
5.10998e-06
4.97892e-06
4.87837e-06
4.70324e-06
4.48804e-06
4.43145e-06
5.48495e-06
-2.11197e-07
-2.00308e-07
5.87904e-06
-2.47664e-08
-3.69319e-07
6.23642e-06
3.23825e-09
-3.6062e-07
6.60698e-06
-3.40883e-08
-3.36469e-07
6.95556e-06
-1.0016e-07
-2.48418e-07
7.25879e-06
-1.51484e-07
-1.51751e-07
7.48667e-06
-1.73003e-07
-5.48785e-08
7.64398e-06
-1.65224e-07
7.91793e-09
7.74864e-06
-1.5564e-07
5.0974e-08
7.8271e-06
-1.35027e-07
5.65734e-08
7.90112e-06
-1.46049e-07
7.2025e-08
7.97096e-06
-1.49888e-07
8.0049e-08
8.043e-06
-1.71122e-07
9.90857e-08
8.117e-06
-1.64887e-07
9.08824e-08
8.20124e-06
-1.71594e-07
8.7357e-08
8.29011e-06
-1.54245e-07
6.5371e-08
8.37724e-06
-1.62907e-07
7.57783e-08
8.45396e-06
-1.49642e-07
7.29245e-08
8.51788e-06
-1.5544e-07
9.15133e-08
8.58128e-06
-1.33535e-07
7.01389e-08
8.62034e-06
-1.23812e-07
8.47543e-08
8.69191e-06
-9.02693e-08
1.86985e-08
8.75996e-06
-4.83925e-08
-1.96575e-08
8.80574e-06
-5.68289e-10
-4.52128e-08
8.83755e-06
1.99889e-08
-5.17957e-08
8.86518e-06
5.55769e-08
-8.32096e-08
8.88631e-06
6.65658e-08
-8.7697e-08
8.9186e-06
1.08868e-07
-1.41154e-07
8.96778e-06
1.24038e-07
-1.73222e-07
9.02495e-06
1.77875e-07
-2.35038e-07
9.10478e-06
1.81448e-07
-2.61285e-07
9.18352e-06
2.23611e-07
-3.02346e-07
9.2698e-06
2.03548e-07
-2.89825e-07
9.34402e-06
2.16063e-07
-2.90291e-07
9.41455e-06
1.63346e-07
-2.33877e-07
9.45365e-06
1.57588e-07
-1.96683e-07
9.47987e-06
9.5679e-08
-1.21901e-07
9.48012e-06
9.32279e-08
-9.3481e-08
9.45704e-06
5.76157e-08
-3.45345e-08
9.44121e-06
8.39912e-08
-6.81568e-08
9.42919e-06
8.04865e-08
-6.84664e-08
9.42813e-06
1.5263e-07
-1.51575e-07
9.43933e-06
1.55464e-07
-1.66657e-07
9.48905e-06
2.47222e-07
-2.96946e-07
9.52841e-06
2.56178e-07
-2.95537e-07
9.62346e-06
2.96754e-07
-3.91808e-07
9.67972e-06
2.6824e-07
-3.24494e-07
9.7841e-06
2.79161e-07
-3.83546e-07
9.8307e-06
1.44563e-07
-1.91163e-07
9.84893e-06
1.59632e-07
-1.77859e-07
9.8659e-06
-5.20154e-08
3.50415e-08
9.786e-06
-2.69439e-08
1.06848e-07
9.72351e-06
-2.06828e-07
2.69313e-07
9.63149e-06
-1.27609e-07
2.1963e-07
9.48568e-06
-2.10232e-07
3.56041e-07
9.47461e-06
-1.56718e-08
2.67482e-08
9.40233e-06
8.15483e-08
-9.27057e-09
9.54074e-06
3.76961e-07
-5.15376e-07
9.70859e-06
7.31464e-07
-8.99314e-07
1.01894e-05
1.16071e-06
-1.64155e-06
1.07694e-05
1.63245e-06
-2.21246e-06
1.16178e-05
2.13497e-06
-2.98334e-06
1.26021e-05
2.55217e-06
-3.53647e-06
1.36594e-05
2.92653e-06
-3.9838e-06
1.4832e-05
2.98833e-06
-4.16098e-06
1.57926e-05
2.96288e-06
-3.92348e-06
1.66021e-05
2.53377e-06
-3.34321e-06
1.72844e-05
2.00322e-06
-2.68552e-06
1.7616e-05
1.44642e-06
-1.77802e-06
1.78663e-05
6.44703e-07
-8.95026e-07
1.7951e-05
5.6334e-08
-1.41079e-07
1.78045e-05
-5.94324e-07
7.40865e-07
1.76012e-05
-1.12635e-06
1.32967e-06
1.72499e-05
-1.55358e-06
1.90487e-06
1.68852e-05
-1.89865e-06
2.26328e-06
1.65043e-05
-2.13427e-06
2.51518e-06
1.6134e-05
-2.2262e-06
2.5965e-06
1.58387e-05
-2.33024e-06
2.6256e-06
1.56103e-05
-2.26151e-06
2.48987e-06
1.54808e-05
-2.24394e-06
2.37348e-06
1.54522e-05
-2.1656e-06
2.19422e-06
1.55495e-05
-2.05171e-06
1.95432e-06
1.57045e-05
-1.97096e-06
1.816e-06
1.60151e-05
-1.87423e-06
1.5636e-06
1.62987e-05
-1.75866e-06
1.47507e-06
1.67455e-05
-1.73905e-06
1.29232e-06
1.71975e-05
-1.61552e-06
1.16348e-06
1.77155e-05
-1.6837e-06
1.16571e-06
1.83065e-05
-1.6159e-06
1.02488e-06
1.88772e-05
-1.73825e-06
1.16761e-06
1.95254e-05
-1.84731e-06
1.1991e-06
2.01145e-05
-1.95271e-06
1.36362e-06
2.07917e-05
-2.25138e-06
1.5741e-06
2.13844e-05
-2.36799e-06
1.7753e-06
2.20363e-05
-2.72726e-06
2.07542e-06
2.26277e-05
-3.01652e-06
2.4251e-06
2.31668e-05
-3.24652e-06
2.70742e-06
2.37193e-05
-3.62992e-06
3.07737e-06
2.4158e-05
-3.71055e-06
3.27187e-06
2.46345e-05
-3.94344e-06
3.46695e-06
2.50167e-05
-4.00357e-06
3.62139e-06
2.53746e-05
-3.96979e-06
3.61184e-06
2.56971e-05
-3.93568e-06
3.6132e-06
2.59508e-05
-3.67177e-06
3.41805e-06
2.62119e-05
-3.43379e-06
3.17277e-06
2.63939e-05
-3.07722e-06
2.89524e-06
2.65846e-05
-2.61142e-06
2.42071e-06
2.66943e-05
-2.21615e-06
2.10643e-06
2.67545e-05
-1.60716e-06
1.54691e-06
2.68529e-05
-1.24711e-06
1.14872e-06
2.68709e-05
-6.76377e-07
6.5837e-07
2.69497e-05
-2.99499e-07
2.20787e-07
2.70046e-05
9.50531e-09
-6.44541e-08
2.70161e-05
4.54944e-07
-4.66423e-07
2.70881e-05
3.89318e-07
-4.61387e-07
2.70727e-05
7.3653e-07
-7.21085e-07
2.71181e-05
5.1366e-07
-5.59012e-07
2.71106e-05
4.81394e-07
-4.7392e-07
2.71569e-05
3.43066e-07
-3.89339e-07
2.71382e-05
-6.58029e-08
8.44183e-08
2.72248e-05
-3.26933e-07
2.40393e-07
2.73059e-05
-8.06011e-07
7.24943e-07
2.737e-05
-1.28668e-06
1.22251e-06
2.75953e-05
-1.85282e-06
1.62755e-06
2.77501e-05
-2.51123e-06
2.35639e-06
2.79758e-05
-3.14966e-06
2.92394e-06
2.83205e-05
-4.04633e-06
3.70166e-06
2.85413e-05
-4.73877e-06
4.518e-06
2.88669e-05
-5.64209e-06
5.31643e-06
2.91302e-05
-6.61719e-06
6.35396e-06
2.93184e-05
-7.29799e-06
7.10974e-06
2.9471e-05
-8.26184e-06
8.10929e-06
2.94783e-05
-8.95294e-06
8.94561e-06
2.94072e-05
-9.58524e-06
9.65639e-06
2.9088e-05
-1.01648e-05
1.0484e-05
2.866e-05
-1.04948e-05
1.09228e-05
2.79792e-05
-1.07593e-05
1.14401e-05
2.72829e-05
-1.10873e-05
1.17835e-05
2.65196e-05
-1.12701e-05
1.20334e-05
2.57875e-05
-1.14416e-05
1.21737e-05
2.50474e-05
-1.15637e-05
1.23038e-05
2.43935e-05
-1.13846e-05
1.20386e-05
2.39226e-05
-1.14453e-05
1.19161e-05
2.35047e-05
-1.14437e-05
1.18616e-05
2.31304e-05
-1.12938e-05
1.16681e-05
2.30729e-05
-1.14544e-05
1.15119e-05
2.29114e-05
-1.18227e-05
1.19842e-05
2.25465e-05
-1.16269e-05
1.19918e-05
2.23413e-05
-1.18191e-05
1.20243e-05
2.19542e-05
-1.20904e-05
1.24775e-05
2.12902e-05
-1.21052e-05
1.27693e-05
2.04675e-05
-1.19397e-05
1.27623e-05
1.95059e-05
-1.15418e-05
1.25034e-05
1.78195e-05
-1.05941e-05
1.22805e-05
1.57491e-05
-8.9293e-06
1.09997e-05
1.36663e-05
-7.76659e-06
9.84945e-06
1.11998e-05
-5.38779e-06
7.85428e-06
9.07354e-06
-4.99536e-06
7.12158e-06
8.41033e-06
-4.95755e-06
5.62077e-06
9.81029e-06
-7.51062e-06
6.11065e-06
1.195e-05
-9.81544e-06
7.67574e-06
1.30177e-05
-7.39078e-06
6.32301e-06
1.51551e-05
-1.15384e-05
9.40109e-06
1.67838e-05
-1.11938e-05
9.56511e-06
1.76784e-05
-8.73121e-06
7.83655e-06
1.88019e-05
-7.39873e-06
6.27527e-06
1.92444e-05
-6.27776e-06
5.83524e-06
1.99416e-05
-4.7073e-06
4.01013e-06
2.05354e-05
-2.0129e-06
1.41904e-06
2.12439e-05
-9.63649e-07
2.55193e-07
2.23592e-05
-6.04483e-08
-1.05489e-06
2.34106e-05
2.13604e-06
-3.18741e-06
2.4014e-05
3.99033e-06
-4.5937e-06
2.46618e-05
4.97355e-06
-5.62138e-06
2.52337e-05
6.76353e-06
-7.33547e-06
2.52483e-05
9.19343e-06
-9.20798e-06
2.47959e-05
1.13295e-05
-1.08771e-05
2.39513e-05
1.34103e-05
-1.25658e-05
2.23489e-05
1.54599e-05
-1.38574e-05
2.04922e-05
1.54791e-05
-1.36224e-05
1.98292e-05
1.46053e-05
-1.39423e-05
2.00226e-05
1.56214e-05
-1.58148e-05
2.025e-05
1.72522e-05
-1.74796e-05
2.03929e-05
1.78987e-05
-1.80415e-05
2.04808e-05
1.84499e-05
-1.85378e-05
2.02252e-05
2.02672e-05
-2.00116e-05
1.93618e-05
2.18009e-05
-2.09374e-05
1.80581e-05
2.08725e-05
-1.95688e-05
1.6891e-05
1.90528e-05
-1.78858e-05
1.57668e-05
1.83779e-05
-1.72537e-05
1.48753e-05
1.73395e-05
-1.6448e-05
1.46489e-05
1.58665e-05
-1.56402e-05
1.40355e-05
1.61467e-05
-1.55332e-05
1.33656e-05
1.57125e-05
-1.50425e-05
1.26886e-05
1.57456e-05
-1.50687e-05
1.28904e-05
1.76956e-05
-1.78974e-05
1.35597e-05
2.04847e-05
-2.1154e-05
1.23646e-05
2.37089e-05
-2.25138e-05
1.21754e-05
2.34735e-05
-2.32843e-05
2.84712e-05
-2.8317e-05
1.20212e-05
1.2774e-05
-2.04283e-07
1.29107e-05
-1.6151e-07
1.31116e-05
-1.97618e-07
1.33378e-05
-2.60335e-07
1.35448e-05
-3.07189e-07
1.37169e-05
-3.23534e-07
1.38384e-05
-2.94553e-07
1.39264e-05
-2.53201e-07
1.3988e-05
-2.17217e-07
1.40435e-05
-1.90489e-07
1.40949e-05
-1.97438e-07
1.41359e-05
-1.90975e-07
1.41807e-05
-2.15868e-07
1.423e-05
-2.14215e-07
1.42875e-05
-2.29066e-07
1.4349e-05
-2.15755e-07
1.44026e-05
-2.16545e-07
1.44574e-05
-2.04359e-07
1.44947e-05
-1.92779e-07
1.45291e-05
-1.67981e-07
1.45528e-05
-1.47448e-07
1.45694e-05
-1.06922e-07
1.45971e-05
-7.60898e-08
1.46125e-05
-1.59917e-08
1.46115e-05
2.09908e-08
1.45967e-05
7.04686e-08
1.45742e-05
8.9015e-08
1.45498e-05
1.33235e-07
1.4534e-05
1.39861e-07
1.45243e-05
1.8757e-07
1.45253e-05
1.80432e-07
1.45348e-05
2.141e-07
1.45426e-05
1.95793e-07
1.45507e-05
2.07951e-07
1.45464e-05
1.6767e-07
1.45418e-05
1.62136e-07
1.45143e-05
1.23188e-07
1.44976e-05
1.0993e-07
1.44562e-05
9.90037e-08
1.44387e-05
1.01567e-07
1.44052e-05
1.13926e-07
1.44123e-05
1.45582e-07
1.43954e-05
1.72297e-07
1.4431e-05
2.1167e-07
1.44568e-05
2.3035e-07
1.44994e-05
2.54203e-07
1.45498e-05
2.17808e-07
1.45852e-05
2.43717e-07
1.46068e-05
1.22993e-07
1.46231e-05
1.43377e-07
1.45585e-05
1.25637e-08
1.45228e-05
8.77591e-09
1.43796e-05
-6.36282e-08
1.42986e-05
-4.6594e-08
1.40922e-05
-3.9037e-09
1.39833e-05
9.326e-08
1.37963e-05
2.68518e-07
1.37064e-05
4.6684e-07
1.36526e-05
7.85333e-07
1.37361e-05
1.07721e-06
1.39531e-05
1.4154e-06
1.43181e-05
1.76999e-06
1.48776e-05
1.99263e-06
1.55499e-05
2.2543e-06
1.62801e-05
2.25813e-06
1.70652e-05
2.17772e-06
1.76544e-05
1.94458e-06
1.81938e-05
1.46381e-06
1.85749e-05
1.06538e-06
1.87623e-05
4.57252e-07
1.89069e-05
-8.82656e-08
1.88474e-05
-5.34788e-07
1.87538e-05
-1.03276e-06
1.86204e-05
-1.42015e-06
1.84463e-05
-1.72459e-06
1.83075e-05
-1.99542e-06
1.82168e-05
-2.13552e-06
1.81595e-05
-2.273e-06
1.82119e-05
-2.31385e-06
1.83425e-05
-2.37455e-06
1.85077e-05
-2.3308e-06
1.88226e-05
-2.36659e-06
1.91261e-05
-2.27451e-06
1.95275e-05
-2.27556e-06
2.00115e-05
-2.24267e-06
2.04649e-05
-2.19253e-06
2.10522e-05
-2.2028e-06
2.16088e-05
-2.24031e-06
2.22191e-05
-2.22614e-06
2.28681e-05
-2.38725e-06
2.35066e-05
-2.4858e-06
2.41452e-05
-2.5913e-06
2.48351e-05
-2.94134e-06
2.54379e-05
-2.97074e-06
2.60989e-05
-3.38835e-06
2.66543e-05
-3.57192e-06
2.71912e-05
-3.7834e-06
2.76717e-05
-4.11045e-06
2.80693e-05
-4.10812e-06
2.84665e-05
-4.34065e-06
2.87547e-05
-4.29177e-06
2.90091e-05
-4.22418e-06
2.92147e-05
-4.14128e-06
2.93277e-05
-3.78473e-06
2.9473e-05
-3.57913e-06
2.94929e-05
-3.09715e-06
2.95477e-05
-2.66615e-06
2.95356e-05
-2.20406e-06
2.95154e-05
-1.58702e-06
2.95301e-05
-1.26181e-06
2.95302e-05
-6.76452e-07
2.95885e-05
-3.57807e-07
2.96119e-05
-1.3871e-08
2.96808e-05
3.86075e-07
2.96997e-05
3.70389e-07
2.97408e-05
6.95422e-07
2.97916e-05
4.62913e-07
2.9753e-05
5.19942e-07
2.98751e-05
2.20966e-07
2.98249e-05
-1.55983e-08
2.99017e-05
-4.03749e-07
3.00102e-05
-9.14468e-07
3.00121e-05
-1.28857e-06
3.01775e-05
-2.01821e-06
3.02598e-05
-2.59358e-06
3.03386e-05
-3.22844e-06
3.04998e-05
-4.20747e-06
3.05185e-05
-4.75752e-06
3.06081e-05
-5.73164e-06
3.05523e-05
-6.56143e-06
3.0443e-05
-7.18866e-06
3.03067e-05
-8.12556e-06
2.99936e-05
-8.63982e-06
2.96e-05
-9.19167e-06
2.90508e-05
-9.6156e-06
2.82695e-05
-9.71347e-06
2.74733e-05
-9.96311e-06
2.67237e-05
-1.03377e-05
2.59155e-05
-1.0462e-05
2.52853e-05
-1.08114e-05
2.46633e-05
-1.09418e-05
2.41952e-05
-1.09165e-05
2.38547e-05
-1.11048e-05
2.357e-05
-1.1159e-05
2.33385e-05
-1.10624e-05
2.32622e-05
-1.13781e-05
2.28721e-05
-1.14326e-05
2.24089e-05
-1.11637e-05
2.19063e-05
-1.13166e-05
2.12135e-05
-1.13976e-05
2.03831e-05
-1.12748e-05
1.9062e-05
-1.06186e-05
1.70104e-05
-9.49021e-06
1.50398e-05
-8.62338e-06
1.26002e-05
-6.48976e-06
9.00198e-06
-4.16835e-06
7.10587e-06
-3.49168e-06
7.11387e-06
-5.00337e-06
8.49795e-06
-6.34163e-06
1.03336e-05
-9.34627e-06
1.12479e-05
-1.07297e-05
1.20272e-05
-8.17013e-06
1.39369e-05
-1.34481e-05
1.55484e-05
-1.28054e-05
1.6311e-05
-9.49378e-06
1.70051e-05
-8.09285e-06
1.73826e-05
-6.65527e-06
1.79128e-05
-5.23749e-06
1.86899e-05
-2.78995e-06
1.9368e-05
-1.64183e-06
2.05004e-05
-1.19277e-06
2.17505e-05
8.85879e-07
2.24358e-05
3.30509e-06
2.316e-05
4.2493e-06
2.39513e-05
5.97223e-06
2.44084e-05
8.73637e-06
2.4565e-05
1.11729e-05
2.43589e-05
1.36164e-05
2.33452e-05
1.64735e-05
2.13848e-05
1.74395e-05
1.99789e-05
1.60112e-05
1.9638e-05
1.59624e-05
1.95332e-05
1.7357e-05
1.94433e-05
1.79885e-05
1.96718e-05
1.82215e-05
1.97911e-05
2.01478e-05
1.94886e-05
2.21034e-05
1.83006e-05
2.20606e-05
1.69213e-05
2.04321e-05
1.61816e-05
1.91176e-05
1.51154e-05
1.84057e-05
1.42842e-05
1.66977e-05
1.36784e-05
1.67525e-05
1.30814e-05
1.63095e-05
1.306e-05
1.57671e-05
1.32595e-05
1.74961e-05
1.5368e-05
1.83762e-05
1.59188e-05
2.31582e-05
1.89967e-05
2.03956e-05
2.92148e-05
1.8253e-05
1.92099e-05
-2.17336e-07
1.93981e-05
-3.49716e-07
1.96617e-05
-4.61296e-07
1.98988e-05
-4.97392e-07
2.00612e-05
-4.69561e-07
2.01488e-05
-4.1114e-07
2.01928e-05
-3.38578e-07
2.02222e-05
-2.82568e-07
2.02594e-05
-2.5445e-07
2.02899e-05
-2.20954e-07
2.0323e-05
-2.30571e-07
2.03384e-05
-2.06351e-07
2.03574e-05
-2.34873e-07
2.03667e-05
-2.23492e-07
2.03827e-05
-2.45152e-07
2.03971e-05
-2.30059e-07
2.04155e-05
-2.34991e-07
2.04404e-05
-2.29254e-07
2.0461e-05
-2.13372e-07
2.04815e-05
-1.88514e-07
2.04942e-05
-1.60131e-07
2.04967e-05
-1.09387e-07
2.04981e-05
-7.74795e-08
2.04906e-05
-8.52773e-09
2.04708e-05
4.07771e-08
2.04475e-05
9.37898e-08
2.04047e-05
1.31835e-07
2.03747e-05
1.63199e-07
2.03271e-05
1.87447e-07
2.03106e-05
2.04109e-07
2.02729e-05
2.18134e-07
2.02671e-05
2.19857e-07
2.0238e-05
2.24905e-07
2.02226e-05
2.23315e-07
2.01921e-05
1.98196e-07
2.01568e-05
1.97489e-07
2.01139e-05
1.66053e-07
2.00659e-05
1.57952e-07
2.00216e-05
1.43253e-07
1.99755e-05
1.47703e-07
1.994e-05
1.49447e-07
1.99129e-05
1.72605e-07
1.98978e-05
1.8742e-07
1.98921e-05
2.17344e-07
1.99039e-05
2.18597e-07
1.991e-05
2.48083e-07
1.99225e-05
2.05319e-07
1.9938e-05
2.28261e-07
1.99102e-05
1.50766e-07
1.99106e-05
1.42982e-07
1.98327e-05
9.04815e-08
1.97871e-05
5.43186e-08
1.96553e-05
6.82254e-08
1.95551e-05
5.35617e-08
1.93894e-05
1.61765e-07
1.92546e-05
2.28061e-07
1.90993e-05
4.23834e-07
1.89555e-05
6.10663e-07
1.8888e-05
8.52863e-07
1.88277e-05
1.13745e-06
1.88726e-05
1.37054e-06
1.90005e-05
1.64206e-06
1.91955e-05
1.79765e-06
1.95274e-05
1.92238e-06
1.9868e-05
1.91758e-06
2.0265e-05
1.78066e-06
2.06504e-05
1.55917e-06
2.09376e-05
1.17665e-06
2.12305e-05
7.72489e-07
2.13889e-05
2.98864e-07
2.14934e-05
-1.92747e-07
2.15739e-05
-6.15383e-07
2.16258e-05
-1.08461e-06
2.16295e-05
-1.42387e-06
2.17085e-05
-1.80356e-06
2.17286e-05
-2.01556e-06
2.18379e-05
-2.24478e-06
2.20009e-05
-2.43599e-06
2.21405e-05
-2.45352e-06
2.24415e-05
-2.67551e-06
2.2698e-05
-2.58731e-06
2.30318e-05
-2.70032e-06
2.34766e-05
-2.71937e-06
2.38361e-05
-2.63508e-06
2.43635e-05
-2.77006e-06
2.48425e-05
-2.67151e-06
2.53531e-05
-2.71344e-06
2.59556e-05
-2.84274e-06
2.64829e-05
-2.75349e-06
2.70975e-05
-3.00178e-06
2.76894e-05
-3.0777e-06
2.82651e-05
-3.16701e-06
2.88622e-05
-3.53849e-06
2.93807e-05
-3.48926e-06
2.99217e-05
-3.92931e-06
3.03472e-05
-3.9974e-06
3.07597e-05
-4.19588e-06
3.10996e-05
-4.45036e-06
3.13485e-05
-4.35706e-06
3.16095e-05
-4.60165e-06
3.16938e-05
-4.37607e-06
3.18124e-05
-4.34275e-06
3.18006e-05
-4.12948e-06
3.17685e-05
-3.75269e-06
3.17397e-05
-3.55035e-06
3.16232e-05
-2.98066e-06
3.16048e-05
-2.64769e-06
3.15024e-05
-2.10172e-06
3.14322e-05
-1.51681e-06
3.13511e-05
-1.18073e-06
3.12455e-05
-5.70767e-07
3.12755e-05
-3.87846e-07
3.12218e-05
3.98633e-08
3.13691e-05
2.38759e-07
3.13366e-05
4.0291e-07
3.14356e-05
5.9638e-07
3.14506e-05
4.47952e-07
3.14532e-05
5.17295e-07
3.15292e-05
1.44948e-07
3.15473e-05
-3.37068e-08
3.15926e-05
-4.49013e-07
3.16713e-05
-9.93153e-07
3.16572e-05
-1.2745e-06
3.17105e-05
-2.07154e-06
3.16523e-05
-2.53534e-06
3.16378e-05
-3.21398e-06
3.15145e-05
-4.08413e-06
3.13336e-05
-4.57658e-06
3.11687e-05
-5.56679e-06
3.07538e-05
-6.14652e-06
3.04195e-05
-6.85437e-06
3.00231e-05
-7.72916e-06
2.94412e-05
-8.0579e-06
2.89154e-05
-8.66586e-06
2.81779e-05
-8.87813e-06
2.73501e-05
-8.88564e-06
2.67931e-05
-9.40618e-06
2.61178e-05
-9.6623e-06
2.55218e-05
-9.86597e-06
2.51216e-05
-1.04112e-05
2.46003e-05
-1.04205e-05
2.42642e-05
-1.05804e-05
2.40559e-05
-1.08965e-05
2.37226e-05
-1.08256e-05
2.3499e-05
-1.08388e-05
2.32279e-05
-1.1107e-05
2.25619e-05
-1.07666e-05
2.18919e-05
-1.04937e-05
2.12654e-05
-1.069e-05
2.05954e-05
-1.07276e-05
1.88492e-05
-9.52864e-06
1.6526e-05
-8.2954e-06
1.4728e-05
-7.69221e-06
1.18478e-05
-5.74312e-06
7.57736e-06
-2.21933e-06
5.221e-06
-1.81199e-06
6.13653e-06
-4.40722e-06
7.20622e-06
-6.07305e-06
7.59368e-06
-6.72909e-06
8.52059e-06
-1.02732e-05
9.87727e-06
-1.20864e-05
1.22556e-05
-1.05484e-05
1.46456e-05
-1.58381e-05
1.59767e-05
-1.41365e-05
1.68839e-05
-1.0401e-05
1.71643e-05
-8.37324e-06
1.76683e-05
-7.1593e-06
1.77958e-05
-5.36497e-06
1.80553e-05
-3.04941e-06
1.82207e-05
-1.80722e-06
1.88861e-05
-1.85822e-06
1.9973e-05
-2.01011e-07
2.08675e-05
2.41064e-06
2.16035e-05
3.51331e-06
2.25028e-05
5.07289e-06
2.29618e-05
8.27736e-06
2.31886e-05
1.0946e-05
2.3485e-05
1.332e-05
2.33285e-05
1.66301e-05
2.19364e-05
1.88316e-05
2.01488e-05
1.77987e-05
1.92821e-05
1.68291e-05
1.91009e-05
1.75381e-05
1.90235e-05
1.8066e-05
1.91197e-05
1.81253e-05
1.94492e-05
1.98184e-05
1.94714e-05
2.20812e-05
1.86133e-05
2.29186e-05
1.72485e-05
2.1797e-05
1.64513e-05
1.99148e-05
1.53657e-05
1.94913e-05
1.40251e-05
1.80382e-05
1.3747e-05
1.70306e-05
1.34024e-05
1.66541e-05
1.39564e-05
1.52131e-05
1.43068e-05
1.71457e-05
1.70833e-05
1.55996e-05
1.77946e-05
2.24469e-05
2.21428e-05
1.60474e-05
2.81818e-05
2.31759e-05
2.45032e-05
-4.62123e-07
2.49581e-05
-8.04626e-07
2.53609e-05
-8.64135e-07
2.55337e-05
-6.70165e-07
2.56087e-05
-5.44501e-07
2.56344e-05
-4.3688e-07
2.5621e-05
-3.25211e-07
2.56216e-05
-2.83146e-07
2.56192e-05
-2.52032e-07
2.56375e-05
-2.39279e-07
2.56487e-05
-2.41737e-07
2.56586e-05
-2.16226e-07
2.56658e-05
-2.42156e-07
2.56663e-05
-2.23982e-07
2.56657e-05
-2.44544e-07
2.56556e-05
-2.19924e-07
2.56473e-05
-2.26699e-07
2.56438e-05
-2.25748e-07
2.56308e-05
-2.00333e-07
2.56352e-05
-1.92975e-07
2.56266e-05
-1.51563e-07
2.56348e-05
-1.17555e-07
2.56308e-05
-7.34691e-08
2.56323e-05
-9.98807e-09
2.56124e-05
6.0609e-08
2.56021e-05
1.04094e-07
2.55592e-05
1.74765e-07
2.55299e-05
1.92515e-07
2.54761e-05
2.41233e-07
2.54455e-05
2.34663e-07
2.54058e-05
2.57863e-07
2.53809e-05
2.44759e-07
2.53565e-05
2.49331e-07
2.53291e-05
2.50673e-07
2.53089e-05
2.18418e-07
2.5275e-05
2.31418e-07
2.52431e-05
1.97941e-07
2.52039e-05
1.97112e-07
2.51638e-05
1.83337e-07
2.51241e-05
1.87445e-07
2.509e-05
1.83528e-07
2.50547e-05
2.07955e-07
2.50363e-05
2.05834e-07
2.50127e-05
2.40889e-07
2.49999e-05
2.31416e-07
2.49945e-05
2.53461e-07
2.49704e-05
2.29433e-07
2.49724e-05
2.26245e-07
2.49267e-05
1.96444e-07
2.4911e-05
1.58705e-07
2.48458e-05
1.55723e-07
2.47792e-05
1.20847e-07
2.46913e-05
1.56201e-07
2.45677e-05
1.7711e-07
2.44628e-05
2.66635e-07
2.43134e-05
3.77497e-07
2.42124e-05
5.24797e-07
2.40856e-05
7.37531e-07
2.40241e-05
9.14302e-07
2.39884e-05
1.17321e-06
2.39934e-05
1.36555e-06
2.40862e-05
1.54927e-06
2.4201e-05
1.68279e-06
2.43877e-05
1.73575e-06
2.46117e-05
1.69358e-06
2.48367e-05
1.5556e-06
2.50737e-05
1.32221e-06
2.52762e-05
9.74174e-07
2.54433e-05
6.05371e-07
2.55772e-05
1.64913e-07
2.56739e-05
-2.89408e-07
2.57728e-05
-7.14329e-07
2.5886e-05
-1.19781e-06
2.59424e-05
-1.4802e-06
2.60546e-05
-1.91584e-06
2.6173e-05
-2.13393e-06
2.62946e-05
-2.36635e-06
2.64898e-05
-2.6312e-06
2.66825e-05
-2.64627e-06
2.69127e-05
-2.90563e-06
2.72237e-05
-2.89839e-06
2.74864e-05
-2.96294e-06
2.78824e-05
-3.11542e-06
2.82191e-05
-2.97176e-06
2.86229e-05
-3.17385e-06
2.90549e-05
-3.10353e-06
2.94807e-05
-3.13923e-06
2.99307e-05
-3.2928e-06
3.04138e-05
-3.23654e-06
3.08502e-05
-3.43817e-06
3.13197e-05
-3.54723e-06
3.1755e-05
-3.6023e-06
3.21433e-05
-3.92675e-06
3.25255e-05
-3.87146e-06
3.28412e-05
-4.24505e-06
3.30949e-05
-4.25114e-06
3.33276e-05
-4.42853e-06
3.34497e-05
-4.57244e-06
3.35368e-05
-4.44417e-06
3.35523e-05
-4.61712e-06
3.34611e-05
-4.28492e-06
3.33758e-05
-4.2574e-06
3.31757e-05
-3.92943e-06
3.30099e-05
-3.58692e-06
3.2797e-05
-3.33742e-06
3.25927e-05