/*--------------------------------*- C++ -*----------------------------------*\
| =========                 |                                                 |
| \\      /  F ield         | OpenFOAM: The Open Source CFD Toolbox           |
|  \\    /   O peration     | Version:  2.4.0                                 |
|   \\  /    A nd           | Web:      www.OpenFOAM.org                      |
|    \\/     M anipulation  |                                                 |
\*---------------------------------------------------------------------------*/
FoamFile
{
    version     2.0;
    format      ascii;
    class       volScalarField;
    location    "0.5";
    object      pMean;
}
// * * * * * * * * * * * * * * * * * * * * * * * * * * * * * * * * * * * * * //

dimensions      [0 2 -2 0 0 0 0];

internalField   nonuniform List<scalar> 
8800
(
92.7036
80.2279
72.7344
69.1159
67.1359
65.6419
64.3435
63.1335
62.0102
60.9186
59.8711
58.8267
57.8195
56.8209
55.8706
54.9467
54.0751
53.2524
52.4575
51.6098
89.602
79.8743
72.9026
69.2292
67.1951
65.667
64.3509
63.1339
62.0082
60.9161
59.8685
58.8245
57.8172
56.8188
55.8689
54.9438
54.0772
53.2503
52.4625
51.6177
87.6428
79.9491
73.5015
69.6025
67.3613
65.7452
64.3968
63.1658
62.0317
60.9329
59.8784
58.8292
57.8184
56.8166
55.8664
54.9356
54.0763
53.2401
52.5272
51.6764
86.1115
80.0086
74.0858
70.0234
67.544
65.8314
64.4586
63.2212
62.0797
60.9711
59.9053
58.8467
57.8284
56.8203
55.8655
54.9275
54.0643
53.2278
52.5791
51.8992
84.866
79.9802
74.5606
70.4275
67.712
65.8976
64.5066
63.2777
62.1351
61.0219
59.9407
58.8741
57.8412
56.8297
55.8614
54.9234
54.0382
53.2099
52.5065
52.239
83.8845
79.883
74.9265
70.7735
67.8637
65.9417
64.5344
63.3225
62.1852
61.0712
59.9771
58.9021
57.8542
56.8379
55.8567
54.9165
54.0147
53.1958
52.5239
52.692
83.13
79.7696
75.194
71.0536
68.0019
65.9703
64.5439
63.3552
62.226
61.1125
60.0094
58.9254
57.8661
56.8421
55.8531
54.9067
54.0031
53.1977
52.6144
53.0083
82.5812
79.6691
75.377
71.2652
68.1255
65.9892
64.5419
63.3769
62.2569
61.1443
60.0346
58.9431
57.8748
56.8443
55.8504
54.9019
54.0023
53.2163
52.7039
53.2337
82.2254
79.5939
75.4916
71.4079
68.2125
66.0007
64.5374
63.3892
62.2782
61.1664
60.0524
58.9547
57.881
56.8459
55.8504
54.9026
54.0104
53.2405
52.7818
53.3958
82.0512
79.5529
75.5475
71.4798
68.2567
66.0063
64.5345
63.3947
62.2894
61.1782
60.062
58.9609
57.8852
56.8488
55.8542
54.9088
54.0238
53.2664
52.8432
53.5067
82.0509
79.5533
75.5475
71.4799
68.2567
66.0065
64.5346
63.3949
62.2898
61.1789
60.0631
58.9625
57.8877
56.8531
55.861
54.9196
54.0403
53.2925
52.8848
53.5724
82.2247
79.5948
75.4918
71.4082
68.2128
66.0011
64.5378
63.3899
62.2794
61.1686
60.0555
58.9595
57.8887
56.8588
55.8711
54.935
54.0602
53.3181
52.9062
53.5938
82.5802
79.6705
75.3772
71.2657
68.1262
65.9898
64.5425
63.378
62.2589
61.148
60.0399
58.951
57.8875
56.8653
55.8843
54.9553
54.0851
53.3449
52.9074
53.5611
83.1282
79.7717
75.1936
71.0543
68.0023
65.9716
64.5441
63.3571
62.2287
61.1177
60.0165
58.9368
57.8834
56.8716
55.8991
54.9807
54.1168
53.3786
52.8939
53.4558
83.8825
79.8854
74.9262
70.774
67.8642
65.9429
64.5355
63.3247
62.189
61.0773
59.9866
58.9162
57.8769
56.8745
55.9147
55.0078
54.1573
53.4219
52.893
53.2685
84.8635
79.9832
74.5607
70.428
67.7122
65.8988
64.5083
63.2803
62.1399
61.0288
59.9524
58.891
57.8688
56.8736
55.9303
55.0326
54.205
53.4747
52.9225
53.0179
86.1081
80.0121
74.0864
70.0245
67.5439
65.8329
64.4604
63.2247
62.0849
60.9793
59.9185
58.8665
57.8603
56.8703
55.9437
55.0517
54.2518
53.5251
52.9815
52.7535
87.6396
79.9519
73.5028
69.6035
67.3614
65.7467
64.399
63.1694
62.0379
60.9414
59.8935
58.85
57.8547
56.8693
55.9539
55.0663
54.2855
53.5638
53.0398
52.6136
89.5989
79.8766
72.9042
69.2304
67.1953
65.6685
64.3532
63.1377
62.0146
60.925
59.8842
58.8461
57.8551
56.873
55.9608
55.077
54.3017
53.5864
53.039
52.5355
92.7009
80.2299
72.736
69.1171
67.1362
65.6433
64.3459
63.1375
62.0165
60.9278
59.8869
58.8487
57.8578
56.8755
55.964
55.0807
54.3055
53.5927
53.0415
52.654
51.3438
51.0241
50.4648
49.9113
49.4573
49.1028
48.8349
48.6297
48.4618
48.3304
48.227
48.1398
48.0593
47.9847
47.9045
47.8151
47.7066
47.5696
47.4063
47.2187
47.0226
46.8448
46.6967
46.5841
46.5075
46.464
46.4403
46.4163
46.3715
46.2903
46.1734
46.0342
45.8938
45.7756
45.6874
45.6284
45.5877
45.5489
45.5047
45.4622
45.4314
45.4232
45.4549
45.5371
45.6731
45.8539
46.0676
46.2973
46.5254
46.7313
46.8959
47.0064
47.059
47.0604
47.0215
46.959
46.8933
46.8418
46.8092
46.7944
46.79
46.7912
46.7936
46.7973
46.8004
46.8081
46.8232
46.8528
46.8995
46.9639
47.0413
47.1322
47.2343
47.3498
47.4749
47.6081
47.7437
47.8771
48.0038
48.1211
48.2314
48.3384
48.4465
48.5585
48.6766
48.8013
48.928
49.0583
49.185
49.3115
49.4393
49.5823
49.7443
49.9258
50.1265
50.3449
50.5781
50.821
51.0718
51.3268
51.577
51.8208
52.0393
52.223
52.3847
52.5295
52.6611
52.7828
52.8985
53.006
53.108
53.2025
53.2866
53.3577
53.4143
53.464
53.5084
53.5528
53.5953
53.6326
53.6648
53.6884
53.7026
53.709
53.7085
53.706
53.7075
53.7143
53.738
53.7794
53.8417
53.9217
54.0208
54.1371
54.275
54.4299
54.6022
54.7864
54.9739
55.167
55.3568
55.5513
55.7461
55.9497
56.1592
56.378
56.6107
56.8573
57.1101
57.3738
57.6253
57.8653
58.0983
58.3116
58.5056
58.6794
58.849
58.9837
59.1148
59.2157
59.3109
59.3686
59.4201
59.437
59.4491
59.432
59.4127
59.3569
59.3173
59.2329
59.1942
59.1023
59.0844
59.0015
59.0314
58.9753
59.0791
59.0578
59.2423
59.2747
59.5102
59.61
59.8566
60.0018
60.2476
60.3956
60.6296
60.7377
60.9345
60.9563
61.0554
60.9283
60.795
60.3112
59.6739
58.4061
56.5867
52.8093
48.2033
27.2084
51.1958
50.9756
50.6069
50.1174
49.6413
49.2602
48.9879
48.8026
48.6691
48.5648
48.4767
48.3957
48.3173
48.2405
48.1592
48.0675
47.9589
47.8295
47.68
47.5134
47.3393
47.178
47.0413
46.9342
46.8573
46.8053
46.7682
46.7327
46.6848
46.6133
46.5149
46.3971
46.2746
46.1638
46.074
46.0059
45.9538
45.91
45.8685
45.8309
45.8045
45.8002
45.83
45.9025
46.0202
46.1772
46.3636
46.564
46.762
46.9401
47.083
47.181
47.2295
47.2333
47.2003
47.1443
47.0785
47.0179
46.9689
46.934
46.9098
46.8929
46.8785
46.8655
46.8528
46.8451
46.8422
46.8506
46.8724
46.9111
46.9647
47.0332
47.1169
47.2159
47.3245
47.4407
47.5543
47.6629
47.7597
47.8461
47.9239
47.9997
48.0773
48.1612
48.2539
48.3534
48.459
48.5691
48.678
48.7877
48.9064
49.0445
49.2058
49.3884
49.5946
49.8221
50.0682
50.3257
50.5958
50.8719
51.1467
51.4149
51.654
51.8578
52.042
52.2103
52.3659
52.5113
52.6488
52.7749
52.8941
52.9985
53.0882
53.1538
53.2013
53.2369
53.2669
53.2945
53.3196
53.3376
53.3505
53.3518
53.3449
53.3286
53.3093
53.2888
53.274
53.2648
53.2733
53.2957
53.3406
53.4018
53.486
53.5878
53.7171
53.8621
54.0338
54.2176
54.4115
54.6087
54.8114
55.014
55.2253
55.4384
55.6642
55.89
56.1403
56.395
56.6657
56.9365
57.1974
57.4444
57.6913
57.9009
58.1058
58.28
58.4638
58.5899
58.7375
58.8339
58.9399
58.9969
59.0616
59.076
59.1042
59.0783
59.0725
58.9984
58.9676
58.8521
58.8105
58.6741
58.6486
58.5104
58.5247
58.4047
58.4851
58.4055
58.5453
58.5415
58.7141
58.7752
58.9745
59.0634
59.283
59.3539
59.5637
59.5781
59.7248
59.6279
59.6156
59.3003
58.977
58.162
57.1868
55.1193
52.9732
46.6328
40.7203
21.2832
51.2177
51.0721
50.8468
50.4176
49.8924
49.4337
49.1164
48.9321
48.8312
48.7655
48.7053
48.6387
48.5645
48.4843
48.3981
48.3023
48.1942
48.0715
47.9342
47.7857
47.6333
47.4898
47.3655
47.2651
47.1892
47.1335
47.0906
47.0509
47.0046
46.9431
46.8628
46.7665
46.6636
46.5653
46.4797
46.4088
46.3509
46.3034
46.2641
46.2334
46.2149
46.2165
46.2459
46.3109
46.4121
46.5464
46.7037
46.8726
47.0379
47.1863
47.3046
47.3851
47.4238
47.4235
47.3904
47.3344
47.2659
47.1965
47.1331
47.08
47.0365
47.0012
46.9708
46.9441
46.92
46.901
46.8881
46.8832
46.8884
46.908
46.9441
46.996
47.065
47.1493
47.2447
47.344
47.437
47.5213
47.589
47.6455
47.6926
47.7389
47.7873
47.844
47.9102
47.984
48.0664
48.1528
48.2381
48.3255
48.4279
48.5542
48.7076
48.8875
49.0978
49.3357
49.5957
49.8709
50.1625
50.4608
50.7616
51.0554
51.3208
51.5514
51.7688
51.9684
52.1548
52.3285
52.4934
52.6449
52.7858
52.9045
52.9985
53.0573
53.0946
53.1166
53.1338
53.1448
53.1527
53.1521
53.1469
53.1254
53.0986
53.0607
53.0278
52.9918
52.9643
52.9408
52.9366
52.9411
52.974
53.019
53.0954
53.1891
53.3174
53.458
53.632
53.8133
54.0119
54.2111
54.4235
54.6371
54.8653
55.0932
55.3335
55.5738
55.8421
56.1126
56.3988
56.6693
56.9339
57.1857
57.4381
57.6472
57.864
58.0427
58.226
58.3541
58.5097
58.6116
58.7189
58.7833
58.8567
58.8675
58.9085
58.8701
58.8734
58.7802
58.7572
58.6174
58.5753
58.3942
58.3655
58.1676
58.1752
57.9976
58.0404
57.9191
57.9958
57.9443
58.0591
58.0452
58.2083
58.2118
58.3956
58.3762
58.5355
58.45
58.5155
58.2952
58.1691
57.6158
57.1649
55.8073
54.8953
51.5289
49.5681
41.735
34.5999
21.326
51.4189
51.2521
50.9555
50.4486
49.8866
49.4328
49.1492
49.0178
48.9784
48.9696
48.9529
48.9127
48.849
48.7675
48.6737
48.5706
48.4594
48.3403
48.214
48.0821
47.9495
47.8242
47.7139
47.6228
47.5512
47.496
47.4519
47.4121
47.3694
47.3175
47.2531
47.1764
47.092
47.0068
46.9274
46.8575
46.799
46.7513
46.7152
46.6909
46.6805
46.6874
46.7167
46.772
46.8543
46.9609
47.0847
47.2163
47.3441
47.4575
47.5469
47.6063
47.6322
47.6254
47.5902
47.5333
47.4632
47.3881
47.3155
47.2494
47.1917
47.142
47.0989
47.0619
47.0295
47.0038
46.9843
46.9719
46.9672
46.9743
46.9975
47.0369
47.0943
47.1663
47.2481
47.329
47.4017
47.4614
47.5035
47.533
47.5529
47.5714
47.5909
47.6194
47.6565
47.702
47.755
47.8085
47.8602
47.9177
47.999
48.1106
48.2563
48.4341
48.6517
48.8996
49.1769
49.4706
49.7887
50.1108
50.4417
50.7612
51.0584
51.3172
51.5708
51.8036
52.0255
52.2307
52.4284
52.6062
52.7703
52.8989
52.9927
53.0425
53.0718
53.0815
53.0908
53.0884
53.0865
53.07
53.0486
53.0037
52.9611
52.9036
52.8623
52.8132
52.7767
52.7408
52.7289
52.7219
52.7501
52.7881
52.8626
52.9551
53.0865
53.2298
53.4085
53.5888
53.792
53.9922
54.2147
54.435
54.681
54.9225
55.1816
55.4399
55.7329
56.0141
56.3173
56.5773
56.8559
57.0994
57.36
57.5632
57.7969
57.9753
58.1584
58.2894
58.4546
58.5486
58.6649
58.7159
58.8084
58.7934
58.8636
58.7916
58.8271
58.6996
58.6989
58.5159
58.4907
58.2618
58.2351
57.996
57.9755
57.7719
57.7493
57.598
57.6087
57.4937
57.5513
57.4639
57.559
57.4878
57.5927
57.4807
57.5765
57.3373
57.4197
56.904
56.9193
55.8017
55.6543
53.335
52.6701
48.3155
45.7618
38.5079
30.6534
21.8535
52.8676
52.4151
51.2127
50.1886
49.4993
49.1346
49.0118
49.0289
49.1012
49.1721
49.2105
49.2052
49.1586
49.0806
48.9823
48.8727
48.7576
48.6401
48.5217
48.4044
48.2905
48.1844
48.0904
48.0115
47.9476
47.8967
47.8548
47.8171
47.7785
47.7347
47.6824
47.6211
47.5527
47.4814
47.4121
47.3489
47.2939
47.2488
47.2151
47.1936
47.1853
47.1913
47.2136
47.2536
47.3118
47.386
47.4717
47.5627
47.6515
47.7303
47.7919
47.8307
47.8434
47.8301
47.7927
47.7364
47.6671
47.5917
47.5156
47.4432
47.3768
47.3172
47.2649
47.2198
47.1818
47.1509
47.1276
47.1122
47.1043
47.107
47.1242
47.1585
47.2089
47.271
47.337
47.3984
47.4498
47.4864
47.5066
47.5135
47.5098
47.5009
47.4916
47.4884
47.4916
47.5011
47.516
47.5288
47.5412
47.5654
47.6228
47.7178
47.858
48.0381
48.2674
48.5295
48.8258
49.1449
49.4902
49.8404
50.204
50.5513
50.8817
51.1721
51.4639
51.7302
51.9872
52.2247
52.4507
52.6496
52.8268
52.9551
53.0448
53.0851
53.1091
53.1138
53.121
53.1126
53.1061
53.0763
53.0448
52.9863
52.9381
52.8724
52.8268
52.7689
52.7292
52.6857
52.6717
52.6587
52.6871
52.7224
52.8001
52.8923
53.0313
53.1768
53.3668
53.5452
53.7599
53.9561
54.1922
54.4103
54.6787
54.9268
55.2156
55.4884
55.8161
56.0978
56.4225
56.6656
56.9683
57.1895
57.4691
57.6573
57.9121
58.0703
58.2723
58.3898
58.5755
58.6386
58.7804
58.7964
58.9155
58.8624
58.9657
58.854
58.9273
58.7608
58.7864
58.5604
58.5468
58.2862
58.2533
58
57.9515
57.7082
57.6541
57.4271
57.4035
57.1998
57.2187
57.024
57.0902
56.8576
56.9811
56.613
56.8114
56.183
56.481
55.4316
55.68
53.9868
53.8293
51.1143
49.8503
45.7475
42.1451
36.5467
29.0117
22.5784
53.8703
53.294
51.5407
50.1038
49.2217
48.8603
48.8529
49.0119
49.207
49.3699
49.4728
49.5093
49.4859
49.4165
49.3173
49.2022
49.0817
48.9625
48.8486
48.7417
48.6431
48.5542
48.4768
48.4115
48.3578
48.3134
48.2758
48.2413
48.2066
48.1685
48.1249
48.0751
48.0197
47.9613
47.9029
47.8476
47.7978
47.7556
47.7224
47.6998
47.6878
47.687
47.697
47.7187
47.7516
47.7945
47.8448
47.8984
47.9507
47.9964
48.0307
48.0488
48.0478
48.027
47.9876
47.9327
47.8666
47.7937
47.7179
47.6431
47.5719
47.5074
47.4503
47.4015
47.3613
47.3291
47.3058
47.2912
47.2856
47.2903
47.3104
47.3476
47.3967
47.4507
47.5022
47.5456
47.5768
47.593
47.594
47.5813
47.5548
47.5194
47.4788
47.439
47.4028
47.3728
47.3481
47.3215
47.2951
47.2815
47.3156
47.3965
47.5314
47.7176
47.9625
48.2435
48.5586
48.9054
49.278
49.6586
50.0528
50.4341
50.798
51.1239
51.4505
51.7463
52.0355
52.2993
52.5461
52.7566
52.9382
53.0602
53.1419
53.1711
53.1936
53.1972
53.2064
53.1952
53.1871
53.1531
53.124
53.0702
53.0312
52.9691
52.9275
52.8651
52.8266
52.7794
52.7703
52.755
52.7873
52.8177
52.9022
52.994
53.144
53.2936
53.4971
53.6764
53.9039
54.0986
54.344
54.5651
54.8569
55.1072
55.4337
55.7216
56.0864
56.3714
56.7101
56.9425
57.2555
57.4539
57.7495
57.9105
58.1921
58.3151
58.5461
58.6315
58.8457
58.86
59.0479
59.0074
59.1655
59.0592
59.2041
59.0449
59.1644
58.9349
59.0036
58.7264
58.7486
58.4409
58.4403
58.1257
58.122
57.7622
57.7404
57.3824
57.3772
57.0225
57.0597
56.6806
56.7747
56.3179
56.4676
55.863
56.0516
55.2173
55.3928
54.2138
54.0997
52.4252
51.6145
49.1665
47.2121
43.829
39.8897
35.7607
29.2441
23.8399
54.4991
53.9265
51.9219
50.2227
49.1616
48.7289
48.7554
49.0045
49.2991
49.5478
49.7174
49.8015
49.807
49.75
49.6512
49.5302
49.4028
49.2797
49.1668
49.0665
48.9794
48.905
48.8426
48.7913
48.7491
48.7138
48.6828
48.6537
48.6238
48.5908
48.5533
48.5109
48.4641
48.4145
48.3642
48.3156
48.2708
48.2311
48.1979
48.1718
48.1535
48.1426
48.139
48.1423
48.1521
48.1675
48.1874
48.2095
48.2307
48.2474
48.2564
48.2545
48.2397
48.2113
48.1697
48.1166
48.0542
47.9853
47.9132
47.8404
47.7705
47.706
47.6482
47.5991
47.5589
47.5276
47.5056
47.494
47.4946
47.5091
47.5396
47.5844
47.6381
47.6876
47.7278
47.7555
47.771
47.7732
47.7592
47.7275
47.6792
47.6182
47.5458
47.4668
47.3917
47.3244
47.2636
47.1979
47.1335
47.0829
47.0909
47.1604
47.2966
47.4953
47.7587
48.0599
48.3985
48.7724
49.1695
49.583
50.0069
50.4202
50.8154
51.1807
51.5296
51.8468
52.1597
52.4411
52.7009
52.916
53.0997
53.2175
53.2912
53.3108
53.3297
53.328
53.3393
53.3318
53.3261
53.3036
53.2891
53.2569
53.2385
53.1919
53.1613
53.1021
53.0669
53.0237
53.0208
53.0092
53.0456
53.0761
53.1643
53.2605
53.4172
53.5768
53.7933
53.9842
54.2227
54.4255
54.6791
54.9143
55.222
55.486
55.842
56.1566
56.5495
56.8419
57.1812
57.4082
57.7182
57.9094
58.1996
58.3289
58.618
58.7131
58.9455
59.0178
59.2415
59.2196
59.4457
59.3642
59.5286
59.392
59.5412
59.3737
59.5004
59.2557
59.3174
59.0419
59.0651
58.7488
58.7524
58.4063
58.3931
57.9795
57.9062
57.4952
57.4114
56.9804
56.9094
56.4463
56.3968
55.8738
55.8146
55.1844
55.1048
54.3208
54.1296
53.0955
52.5905
51.0212
49.9339
47.6552
45.5878
42.9049
39.2119
35.976
30.5712
25.675
54.8821
54.3523
52.2666
50.4312
49.2514
48.7294
48.7351
49.0246
49.3868
49.7038
49.9311
50.0602
50.0955
50.0535
49.9582
49.8345
49.7023
49.5759
49.4633
49.3677
49.2894
49.2269
49.1778
49.1395
49.1092
49.0839
49.0611
49.0384
49.0139
48.9859
48.9537
48.917
48.8765
48.8332
48.7888
48.7449
48.7031
48.6642
48.6289
48.5978
48.5714
48.5496
48.5322
48.5186
48.5088
48.5019
48.4974
48.4939
48.4892
48.4819
48.4698
48.4515
48.4254
48.3912
48.3486
48.2982
48.2414
48.1793
48.1141
48.0479
47.9827
47.9206
47.8641
47.8159
47.7769
47.749
47.7329
47.7297
47.7408
47.7688
47.8114
47.8662
47.9242
47.9721
48.0044
48.0217
48.0261
48.0201
47.9974
47.9509
47.8825
47.7949
47.689
47.5709
47.4594
47.3542
47.2634
47.163
47.0645
46.9853
46.9722
47.0358
47.1783
47.3941
47.6716
47.9908
48.3512
48.7473
49.1724
49.617
50.0755
50.526
50.9489
51.3426
51.7029
52.0411
52.3657
52.652
52.9126
53.124
53.3059
53.4262
53.4959
53.5092
53.5197
53.5182
53.5328
53.5365
53.5456
53.547
53.5583
53.5593
53.5678
53.5466
53.5312
53.4841
53.4577
53.4282
53.4338
53.4307
53.4729
53.5042
53.5938
53.7001
53.868
54.0372
54.2673
54.4726
54.726
54.9446
55.2069
55.4582
55.7794
56.0607
56.4474
56.7845
57.2039
57.4951
57.8401
58.0474
58.3556
58.5502
58.8297
58.9363
59.2119
59.2709
59.495
59.5455
59.7816
59.7284
59.9618
59.867
60.0178
59.8827
60.0232
59.8696
59.9701
59.743
59.7764
59.52
59.5105
59.2045
59.1856
58.8473
58.7974
58.3611
58.2109
57.7706
57.5714
57.0935
56.8678
56.3629
56.116
55.5539
55.2826
54.626
54.3286
53.5837
53.199
52.268
51.6251
50.1143
48.9907
46.9287
44.9292
42.7838
39.4607
36.6451
32.1635
27.6641
55.1227
54.6334
52.5395
50.6436
49.3967
48.8088
48.7821
49.0848
49.4888
49.8549
50.1267
50.2927
50.355
50.3287
50.2393
50.1158
49.9818
49.8543
49.7428
49.6512
49.5797
49.5264
49.4878
49.4606
49.4407
49.4249
49.4103
49.3944
49.3756
49.3526
49.325
49.293
49.2571
49.2184
49.1779
49.1369
49.0958
49.0557
49.0168
48.9799
48.945
48.9124
48.882
48.8536
48.8272
48.8019
48.7774
48.7528
48.7275
48.7014
48.6735
48.6432
48.6096
48.5725
48.5313
48.4859
48.4364
48.3829
48.3264
48.2684
48.2109
48.1554
48.1044
48.0613
48.0292
48.0104
48.0058
48.0156
48.0401
48.0813
48.1364
48.1994
48.2587
48.3045
48.3309
48.34
48.3392
48.3297
48.3005
48.2442
48.162
48.0524
47.9161
47.76
47.6074
47.465
47.3432
47.209
47.0938
46.9948
46.9751
47.0412
47.1987
47.4282
47.7163
48.041
48.4189
48.8354
49.2918
49.7658
50.261
50.754
51.2098
51.6227
51.9948
52.3472
52.671
52.9503
53.197
53.3981
53.5795
53.697
53.7697
53.7851
53.7946
53.7973
53.8238
53.8425
53.8737
53.9011
53.9482
53.988
54.0307
54.0445
54.0478
54.0194
54.0129
53.9981
54.0152
54.0204
54.0709
54.1046
54.2038
54.3234
54.5004
54.6788
54.9293
55.1372
55.4152
55.6447
55.9253
56.2016
56.5321
56.8321
57.2406
57.5988
58.0393
58.3145
58.6858
58.8636
59.1702
59.3594
59.6221
59.7054
59.9806
59.9769
60.2214
60.2159
60.4872
60.3827
60.6221
60.4752
60.6399
60.4861
60.6521
60.5203
60.5873
60.3447
60.3758
60.1354
60.1004
59.8123
59.749
59.4442
59.3425
58.9
58.6796
58.2265
57.9206
57.4282
57.0605
56.5432
56.1264
55.5458
55.1066
54.4927
54.0438
53.4259
52.9213
52.1348
51.3856
49.8942
48.7316
46.8691
44.879
43.0939
40.1888
37.5291
33.7059
29.6061
55.2752
54.814
52.7354
50.8248
49.5539
48.938
48.8953
49.2049
49.6328
50.0274
50.3255
50.5133
50.592
50.5757
50.4912
50.3692
50.2364
50.1109
50.0029
49.9162
49.8513
49.8059
49.7764
49.7585
49.7477
49.7402
49.733
49.7235
49.7102
49.6921
49.6688
49.6406
49.6083
49.5725
49.5341
49.4938
49.4521
49.4096
49.3666
49.3235
49.2805
49.238
49.1959
49.1543
49.1133
49.0728
49.033
48.9934
48.9538
48.9146
48.8757
48.8373
48.7999
48.763
48.7262
48.6884
48.6483
48.6049
48.5584
48.5111
48.4636
48.4176
48.3761
48.3437
48.3231
48.3167
48.3277
48.3541
48.3949
48.4524
48.5207
48.5881
48.6447
48.6873
48.7111
48.7139
48.7075
48.6959
48.6662
48.6077
48.5171
48.3882
48.2272
48.0417
47.8529
47.6687
47.5156
47.3516
47.228
47.1189
47.1057
47.177
47.3591
47.6022
47.9013
48.2283
48.6255
49.0603
49.5389
50.0355
50.5712
51.1064
51.5994
52.029
52.4084
52.7587
53.0702
53.3329
53.5634
53.7547
53.9373
54.0567
54.1376
54.1598
54.1769
54.1914
54.2302
54.2722
54.3304
54.3912
54.479
54.5612
54.6483
54.7011
54.7303
54.7299
54.7458
54.7398
54.7688
54.7807
54.8386
54.8726
54.9865
55.1108
55.3029
55.4858
55.7609
55.9679
56.288
56.5262
56.8382
57.1293
57.4913
57.8034
58.2417
58.6003
59.0733
59.3081
59.7024
59.8353
60.1572
60.3194
60.6
60.6273
60.9137
60.8184
61.1238
61.0376
61.3684
61.1541
61.4641
61.2056
61.461
61.22
61.4442
61.292
61.3805
61.0755
61.159
60.8711
60.8714
60.5913
60.5357
60.2204
60.0913
59.6228
59.4034
58.9112
58.5713
58.0502
57.6235
57.0704
56.5618
55.9619
55.4265
54.8583
54.3338
53.8038
53.2322
52.495
51.6087
50.1031
48.8179
47.1595
45.225
43.6213
41.0544
38.466
35.0896
31.3939
55.3635
54.917
52.858
50.9649
49.7075
49.1019
49.0676
49.3858
49.8224
50.2247
50.5287
50.7212
50.8036
50.7904
50.7093
50.5921
50.4654
50.3471
50.2467
50.168
50.1111
50.0739
50.0526
50.0426
50.0392
50.0383
50.0367
50.0322
50.0233
50.009
49.9893
49.9643
49.9346
49.9006
49.8631
49.8226
49.7794
49.734
49.6867
49.6377
49.5876
49.5364
49.4845
49.4323
49.3802
49.3283
49.277
49.2264
49.1776
49.1308
49.0864
49.0445
49.0057
48.9705
48.939
48.9099
48.8807
48.8499
48.8174
48.7843
48.7507
48.7188
48.693
48.6766
48.6701
48.6781
48.707
48.7527
48.8101
48.8806
48.9568
49.0245
49.078
49.1173
49.1368
49.1374
49.1309
49.12
49.0932
49.0391
48.947
48.8066
48.6266
48.4132
48.1956
47.9756
47.7956
47.6101
47.4855
47.3733
47.3859
47.4628
47.6742
47.9288
48.2419
48.5674
48.99
49.4385
49.9388
50.4485
51.0269
51.5956
52.1206
52.5571
52.9345
53.2648
53.557
53.7989
54.0215
54.2117
54.397
54.5171
54.6157
54.6463
54.6867
54.7101
54.7787
54.8354
54.934
55.0296
55.17
55.2928
55.4324
55.5197
55.5978
55.6212
55.6705
55.6694
55.7091
55.7117
55.781
55.8047
55.934
56.0465
56.26
56.442
56.7458
56.9547
57.3223
57.5704
57.9365
58.242
58.652
58.9498
59.4444
59.7542
60.2878
60.4416
60.8999
60.9355
61.3192
61.4079
61.7461
61.6602
61.996
61.8159
62.211
62.0223
62.4214
62.0552
62.4488
62.0731
62.4554
62.1374
62.446
62.2104
62.3744
61.9728
62.1586
61.8158
61.9013
61.5005
61.5141
61.2008
61.0792
60.5543
60.3946
59.862
59.5371
58.9858
58.5472
57.9473
57.3984
56.8002
56.2128
55.6716
55.0909
54.5858
53.9067
53.0751
52.0308
50.5284
49.1233
47.6374
45.8899
44.2848
41.9184
39.3984
36.3423
33.0141
55.3891
54.9446
52.9091
51.063
49.8559
49.2991
49.2999
49.6314
50.0632
50.4525
50.7427
50.9234
50.9971
50.9805
50.9021
50.7925
50.6763
50.5695
50.4806
50.4125
50.3651
50.3362
50.3219
50.3177
50.3191
50.3223
50.3243
50.3232
50.3174
50.3063
50.2894
50.267
50.2392
50.2064
50.1691
50.1278
50.0829
50.0349
49.9842
49.9312
49.8756
49.8178
49.7585
49.6982
49.6375
49.5775
49.5188
49.4625
49.4096
49.36
49.3137
49.2716
49.2349
49.2043
49.1787
49.1578
49.14
49.1241
49.1089
49.0934
49.0776
49.0643
49.0593
49.0632
49.076
49.1029
49.1512
49.2139
49.2823
49.358
49.436
49.5026
49.5513
49.5807
49.589
49.5861
49.5825
49.5796
49.565
49.5236
49.4387
49.3007
49.1129
48.8814
48.6381
48.3897
48.1849
47.9897
47.8695
47.7737
47.8255
47.9082
48.1494
48.4056
48.7304
49.0434
49.493
49.9494
50.4722
50.9885
51.6131
52.2056
52.7657
53.2029
53.573
53.8577
54.1383
54.3508
54.5803
54.7683
54.9621
55.0834
55.2066
55.2452
55.3263
55.3587
55.4732
55.5419
55.7008
55.8246
56.0274
56.1867
56.3922
56.5093
56.6385
56.6863
56.7757
56.7789
56.8334
56.8304
56.8983
56.9131
57.0558
57.1578
57.3857
57.58
57.8902
58.1319
58.5347
58.7966
59.2156
59.5289
59.983
60.2801
60.8005
61.0504
61.6061
61.7055
62.1602
62.1528
62.6423
62.5797
62.9801
62.7371
63.1301
62.8981
63.372
63.1367
63.5422
63.1094
63.5854
63.1421
63.5774
63.2309
63.5567
63.2922
63.4557
63.0391
63.2614
62.9548
63.0607
62.6589
62.7033
62.3343
62.2502
61.7064
61.6055
61.0411
60.7486
60.1796
59.7213
59.0984
58.5166
57.9285
57.2826
56.7393
56.0723
55.5206
54.7017
53.739
52.5163
51.0612
49.6698
48.2249
46.6757
44.9955
42.745
40.3153
37.5067
34.4834
55.3314
54.8806
52.8902
51.131
50.0149
49.5459
49.6029
49.9442
50.3533
50.7078
50.964
51.1156
51.1686
51.1431
51.0674
50.9685
50.8672
50.7763
50.7025
50.6477
50.6114
50.5911
50.5831
50.5833
50.588
50.5936
50.5978
50.5987
50.5951
50.5862
50.5715
50.5509
50.5245
50.4925
50.4555
50.4139
50.3684
50.3192
50.2666
50.2106
50.151
50.0885
50.0237
49.9582
49.8931
49.8295
49.7691
49.7124
49.6591
49.6098
49.5654
49.5265
49.4946
49.471
49.4548
49.4447
49.439
49.4376
49.4406
49.4463
49.4515
49.4587
49.4752
49.5009
49.5363
49.587
49.6554
49.7315
49.8091
49.8892
49.9654
50.0237
50.0603
50.0746
50.0718
50.0663
50.065
50.0687
50.069
50.0449
49.9755
49.8507
49.6685
49.4307
49.1703
48.9116
48.6946
48.5004
48.3818
48.3161
48.4038
48.5064
48.7697
49.0168
49.3369
49.6459
50.13
50.5842
51.122
51.6452
52.3234
52.9317
53.5349
53.966
54.3297
54.5675
54.8314
55.0134
55.2601
55.4399
55.6534
55.7756
55.9243
55.9774
56.1041
56.1507
56.3156
56.4103
56.6386
56.7938
57.0682
57.2576
57.5249
57.6649
57.8544
57.9206
58.0551
58.064
58.141
58.1195
58.189
58.1898
58.3422
58.4465
58.7006
58.9125
59.237
59.5213
59.9233
60.2181
60.6601
60.9755
61.4426
61.7409
62.2569
62.4786
62.9735
63.0929
63.5055
63.4627
63.9751
63.8434
64.196
63.9417
64.3773
64.1125
64.5667
64.3827
64.6707
64.2532
64.7453
64.3531
64.8056
64.4992
64.7762
64.5636
64.6514
64.2479
64.4794
64.146
64.2792
63.8316
63.9128
63.6238
63.5883
63.06
62.9495
62.3792
62.0927
61.5097
61.0223
60.3893
59.7772
59.2037
58.4853
57.9116
57.1186
56.4807
55.4601
54.4089
53.0889
51.7244
50.4435
48.9602
47.5116
45.7369
43.562
41.2182
38.6135
35.8299
55.1359
54.6827
52.804
51.2052
50.2331
49.8831
49.9946
50.3247
50.6851
50.9811
51.1836
51.2912
51.316
51.2805
51.2097
51.1256
51.0433
50.9721
50.9161
50.8763
50.8513
50.8388
50.8356
50.8384
50.8441
50.8502
50.8548
50.8563
50.8532
50.8449
50.8309
50.8109
50.7849
50.7534
50.7172
50.6767
50.632
50.5834
50.5311
50.4746
50.4135
50.3489
50.2811
50.2132
50.1488
50.0882
50.0304
49.9753
49.9243
49.8789
49.8389
49.8055
49.7813
49.7671
49.7617
49.7648
49.7764
49.7967
49.8227
49.8476
49.872
49.902
49.9417
49.9899
50.0501
50.1236
50.2078
50.2938
50.3781
50.4609
50.5339
50.5852
50.6098
50.6059
50.5862
50.5731
50.5734
50.5871
50.6033
50.6002
50.5558
50.4555
50.2888
50.0609
49.7977
49.5446
49.3193
49.1391
49.0321
49.0103
49.1119
49.2249
49.4903
49.7288
50.0414
50.3929
50.9177
51.3809
51.9291
52.4778
53.1851
53.7915
54.4181
54.8456
55.2085
55.4105
55.6577
55.8167
56.0764
56.2492
56.4779
56.598
56.7687
56.8446
57.0093
57.0902
57.3075
57.4421
57.7326
57.932
58.2688
58.4959
58.8171
58.9912
59.2342
59.3227
59.4933
59.5144
59.6034
59.5722
59.6325
59.6282
59.7867
59.8987
60.1851
60.425
60.775
61.0966
61.474
61.7911
62.206
62.5415
62.9784
63.3072
63.7225
63.9406
64.3991
64.5318
64.8864
64.937
65.3272
65.1847
65.3794
65.2842
65.6248
65.4772
65.7675
65.7344
65.7874
65.5128
65.9608
65.578
66.1088
65.8716
66.0666
65.925
65.9353
65.594
65.7151
65.4364
65.4249
64.9558
65.1965
64.9984
64.9328
64.4711
64.3459
63.7325
63.4564
62.8451
62.3368
61.7208
61.0636
60.5028
59.6471
59.0665
58.1031
57.4068
56.1869
55.1577
53.7163
52.5361
51.3428
49.8064
48.3578
46.4921
44.356
42.0951
39.6495
37.0393
54.6896
54.265
52.654
51.3343
50.5735
50.347
50.4807
50.7605
51.0394
51.2529
51.3854
51.4417
51.4381
51.3954
51.3331
51.2664
51.2049
51.1538
51.1152
51.0888
51.0731
51.0658
51.0647
51.0675
51.0722
51.0769
51.0802
51.0807
51.0771
51.0686
51.0544
51.0346
51.0092
50.9786
50.9437
50.9051
50.8627
50.8168
50.7671
50.7124
50.6525
50.5895
50.5251
50.4605
50.3986
50.3429
50.294
50.2485
50.2048
50.164
50.129
50.1045
50.0926
50.0912
50.0991
50.1189
50.1502
50.1914
50.2409
50.2932
50.345
50.3977
50.4576
50.5272
50.6075
50.6958
50.7901
50.8841
50.9744
51.058
51.126
51.1675
51.1779
51.1572
51.1199
51.0937
51.0936
51.1177
51.1523
51.1746
51.1632
51.0986
50.9604
50.7557
50.5119
50.2856
50.0629
49.9157
49.8205
49.8306
49.9322
50.0686
50.3236
50.5473
50.862
51.291
51.842
52.3215
52.8708
53.4763
54.1772
54.7821
55.3992
55.8283
56.1858
56.3921
56.5996
56.7527
57.0056
57.1836
57.4128
57.5417
57.718
57.8293
58.0135
58.1598
58.4048
58.6194
58.9405
59.2181
59.5815
59.8707
60.2231
60.4464
60.722
60.8511
61.036
61.0753
61.1805
61.1439
61.2151
61.2313
61.382
61.5334
61.8235
62.0897
62.4478
62.779
63.1278
63.4623
63.8182
64.1482
64.5553
64.9103
65.2125
65.4327
65.8285
65.9618
66.3129
66.4419
66.594
66.6068
66.6341
66.707
66.8851
66.8995
67.0099
67.0367
66.9165
66.8449
67.1204
67.0698
67.4334
67.1825
67.4425
67.299
67.1785
66.9559
66.9499
66.7357
66.5931
66.2588
66.4243
66.3346
66.1555
65.8183
65.6604
65.0776
64.7807
64.151
63.6276
63.0298
62.3146
61.7124
60.7534
60.1747
59.0201
58.3255
56.8059
55.9346
54.5051
53.5233
52.3275
50.7471
49.2329
47.2853
45.1743
42.9923
40.6593
38.1789
53.9568
53.6269
52.4868
51.5679
51.0573
50.924
51.0233
51.203
51.3695
51.4858
51.5459
51.5569
51.5325
51.4883
51.4369
51.3873
51.3444
51.3101
51.2848
51.2674
51.2568
51.2514
51.25
51.2512
51.2537
51.2564
51.258
51.2574
51.2533
51.2445
51.23
51.2099
51.1848
51.1553
51.1219
51.0863
51.0495
51.0097
50.9648
50.9147
50.8603
50.802
50.7434
50.688
50.6363
50.5895
50.5503
50.5185
50.49
50.4612
50.4366
50.4265
50.4333
50.4519
50.4795
50.5185
50.5709
50.6347
50.7036
50.7723
50.8442
50.9222
51.0061
51.0966
51.1926
51.2903
51.3883
51.4837
51.5751
51.6575
51.7191
51.7516
51.7503
51.7173
51.6678
51.6318
51.632
51.6644
51.711
51.7511
51.7659
51.737
51.6393
51.4737
51.266
51.0833
50.8726
50.7854
50.715
50.754
50.847
51.0257
51.2513
51.4947
51.8337
52.3063
52.8361
53.3528
53.9256
54.5896
55.2526
55.8658
56.4439
56.8868
57.22
57.4485
57.6109
57.7861
57.9923
58.1936
58.3928
58.565
58.7326
58.9092
59.0989
59.3307
59.582
59.8888
60.2143
60.5778
60.9324
61.3036
61.6418
61.927
62.1944
62.3916
62.5614
62.6708
62.751
62.7775
62.8314
62.9199
63.0437
63.2593
63.5064
63.8251
64.1425
64.4902
64.7983
65.145
65.4253
65.7668
66.0822
66.4235
66.6482
66.9551
67.1839
67.4143
67.6461
67.8088
67.8063
67.9588
67.899
68.0694
68.1086
68.1948
68.1683
68.2706
67.9941
68.3201
68.3127
68.6375
68.6494
68.5761
68.728
68.5906
68.3977
68.2595
68.1463
67.9859
67.6614
67.6258
67.6019
67.4905
67.3232
67.0745
66.8064
66.3516
65.9759
65.3801
64.846
64.2644
63.4704
62.8319
61.7987
61.123
59.8309
59.1278
57.4976
56.8969
55.4181
54.5653
53.2515
51.7024
50.1034
48.1103
46.0284
43.9192
41.669
39.2868
53.1471
52.9694
52.4039
51.9214
51.6314
51.5202
51.5231
51.572
51.6218
51.6509
51.6534
51.6329
51.5974
51.5558
51.5147
51.4782
51.4481
51.4245
51.4065
51.3935
51.3845
51.3788
51.3759
51.3752
51.3758
51.3768
51.3769
51.3749
51.37
51.3606
51.3457
51.325
51.3004
51.2739
51.2455
51.2138
51.1805
51.147
51.1112
51.069
51.0217
50.9746
50.9294
50.8851
50.8451
50.8162
50.7973
50.7838
50.7726
50.7632
50.7622
50.776
50.8038
50.8424
50.8926
50.9548
51.0273
51.1078
51.1948
51.2842
51.3718
51.4592
51.5515
51.6502
51.7515
51.8511
51.9486
52.0424
52.13
52.2034
52.2548
52.283
52.285
52.2579
52.2107
52.1736
52.1718
52.2031
52.2559
52.308
52.3419
52.3411
52.2796
52.1589
52.0038
51.8954
51.7343
51.7057
51.6541
51.7371
51.8401
52.0734
52.2633
52.5556