/*--------------------------------*- C++ -*----------------------------------*\
| =========                 |                                                 |
| \\      /  F ield         | OpenFOAM: The Open Source CFD Toolbox           |
|  \\    /   O peration     | Version:  2.4.0                                 |
|   \\  /    A nd           | Web:      www.OpenFOAM.org                      |
|    \\/     M anipulation  |                                                 |
\*---------------------------------------------------------------------------*/
FoamFile
{
    version     2.0;
    format      ascii;
    class       volVectorField;
    location    "0.5";
    object      UMean;
}
// * * * * * * * * * * * * * * * * * * * * * * * * * * * * * * * * * * * * * //

dimensions      [0 1 -1 0 0 0 0];

internalField   nonuniform List<vector> 
8800
(
(8.09356 0.386463 0)
(5.4696 0.242078 0)
(3.94116 0.043244 0)
(3.1904 -0.0151235 0)
(2.83769 -0.0181075 0)
(2.63701 -0.0109185 0)
(2.52651 -0.00564872 0)
(2.42375 -0.0022014 0)
(2.36714 -0.00155268 0)
(2.29773 -0.000430761 0)
(2.26929 -0.000787656 0)
(2.21713 0.000137179 0)
(2.19989 -0.000279107 0)
(2.1534 0.000732177 0)
(2.13542 0.00015142 0)
(2.0911 0.00143123 0)
(2.06458 0.000266048 0)
(2.01929 0.00152082 0)
(2.00222 0.00413768 0)
(1.82999 -0.0443862 0)
(10.0771 0.834561 0)
(9.65993 0.862788 0)
(8.88485 0.503496 0)
(8.10167 0.2597 0)
(7.51882 0.136474 0)
(7.03686 0.0809703 0)
(6.73534 0.0526515 0)
(6.43937 0.0397227 0)
(6.27774 0.0284683 0)
(6.07387 0.0238768 0)
(5.99091 0.0173085 0)
(5.83732 0.0176122 0)
(5.79236 0.013527 0)
(5.66433 0.0167475 0)
(5.62737 0.0136748 0)
(5.5148 0.017814 0)
(5.46493 0.0186025 0)
(5.35943 0.0140366 0)
(5.30429 0.0317159 0)
(5.16428 -0.0379955 0)
(10.0565 0.629037 0)
(10.6539 0.857966 0)
(10.8674 0.5966 0)
(10.6907 0.370041 0)
(10.4608 0.252392 0)
(10.0911 0.193874 0)
(9.85057 0.149935 0)
(9.50901 0.120553 0)
(9.34108 0.0907928 0)
(9.05934 0.0748622 0)
(8.96577 0.0555826 0)
(8.73565 0.0517189 0)
(8.69071 0.0395625 0)
(8.49256 0.0431847 0)
(8.46799 0.0348639 0)
(8.28719 0.0420628 0)
(8.26043 0.0399089 0)
(8.08268 0.0436242 0)
(8.04057 0.0511624 0)
(7.86487 -0.020933 0)
(9.9977 0.455685 0)
(10.5632 0.70123 0)
(11.164 0.541548 0)
(11.3669 0.349099 0)
(11.5487 0.257958 0)
(11.4488 0.224742 0)
(11.4834 0.195816 0)
(11.2897 0.173657 0)
(11.2924 0.142645 0)
(11.0721 0.124379 0)
(11.0817 0.0994559 0)
(10.8602 0.0924521 0)
(10.8843 0.0747835 0)
(10.6653 0.0772844 0)
(10.6986 0.0635841 0)
(10.4793 0.0740754 0)
(10.5116 0.0624769 0)
(10.2842 0.0848145 0)
(10.2891 0.0648474 0)
(10.049 0.0909076 0)
(10.0414 0.34543 0)
(10.3984 0.564216 0)
(11.0426 0.45737 0)
(11.296 0.291859 0)
(11.6476 0.205355 0)
(11.659 0.190648 0)
(11.8692 0.173797 0)
(11.8022 0.168536 0)
(11.9694 0.14 0)
(11.87 0.133075 0)
(12.016 0.10431 0)
(11.8968 0.107911 0)
(12.0264 0.0826378 0)
(11.8917 0.0980579 0)
(12.0038 0.0725328 0)
(11.8556 0.100038 0)
(11.9457 0.0705897 0)
(11.7843 0.116084 0)
(11.8307 0.0722668 0)
(11.624 0.132037 0)
(10.0512 0.251878 0)
(10.3168 0.452422 0)
(10.8934 0.374571 0)
(11.1742 0.245521 0)
(11.5207 0.159088 0)
(11.5947 0.14937 0)
(11.7928 0.139144 0)
(11.8069 0.140929 0)
(11.9685 0.116284 0)
(11.975 0.113102 0)
(12.1194 0.0882098 0)
(12.1229 0.0917997 0)
(12.25 0.0728395 0)
(12.249 0.084319 0)
(12.356 0.0698445 0)
(12.3499 0.0869121 0)
(12.4326 0.0758655 0)
(12.4191 0.096482 0)
(12.4587 0.0797837 0)
(12.3712 0.0565863 0)
(10.0105 0.173922 0)
(10.2968 0.35188 0)
(10.7515 0.286994 0)
(11.1052 0.204153 0)
(11.3867 0.1166 0)
(11.543 0.114265 0)
(11.6705 0.102991 0)
(11.7539 0.114281 0)
(11.85 0.0869307 0)
(11.9276 0.0919343 0)
(12.016 0.0642083 0)
(12.0915 0.073951 0)
(12.1716 0.0519939 0)
(12.2426 0.0680465 0)
(12.3129 0.0509254 0)
(12.378 0.0707578 0)
(12.437 0.0562763 0)
(12.491 0.074621 0)
(12.5188 0.0495259 0)
(12.4777 0.0158897 0)
(9.99857 0.114561 0)
(10.2625 0.249072 0)
(10.6727 0.204464 0)
(11.031 0.151071 0)
(11.3128 0.0823236 0)
(11.4812 0.077659 0)
(11.6078 0.0734499 0)
(11.6879 0.0812847 0)
(11.7844 0.0635825 0)
(11.8568 0.0644595 0)
(11.9515 0.0466528 0)
(12.0193 0.0505051 0)
(12.11 0.0378593 0)
(12.1705 0.0457985 0)
(12.2547 0.037287 0)
(12.3066 0.0468002 0)
(12.3833 0.0389934 0)
(12.42 0.0439382 0)
(12.4653 0.0247435 0)
(12.3951 -0.0116616 0)
(9.98998 0.0640111 0)
(10.2434 0.148696 0)
(10.6184 0.122106 0)
(10.9874 0.0925685 0)
(11.2592 0.0481346 0)
(11.4483 0.0466279 0)
(11.5613 0.0430285 0)
(11.6543 0.0499337 0)
(11.7338 0.0379806 0)
(11.822 0.0393274 0)
(11.8996 0.0271975 0)
(11.9849 0.0302944 0)
(12.0578 0.0216976 0)
(12.1366 0.0269471 0)
(12.2017 0.0203919 0)
(12.2726 0.0256293 0)
(12.3282 0.0180312 0)
(12.3832 0.0179319 0)
(12.4032 0.000775555 0)
(12.346 -0.0293301 0)
(9.99396 0.0208236 0)
(10.2267 0.0491117 0)
(10.5992 0.0410108 0)
(10.9587 0.0306271 0)
(11.2399 0.0162401 0)
(11.4252 0.0150796 0)
(11.5459 0.0144301 0)
(11.6305 0.0163409 0)
(11.7169 0.0128098 0)
(11.7971 0.0124879 0)
(11.8822 0.00887523 0)
(11.9605 0.00887199 0)
(12.0404 0.00640635 0)
(12.1125 0.00658796 0)
(12.1841 0.00397175 0)
(12.2479 0.00283135 0)
(12.3091 -0.00195988 0)
(12.3567 -0.00782475 0)
(12.3793 -0.0203185 0)
(12.3124 -0.0435522 0)
(9.99259 -0.0222162 0)
(10.2278 -0.0474241 0)
(10.598 -0.0425556 0)
(10.9598 -0.0292401 0)
(11.2387 -0.0178013 0)
(11.4263 -0.0137942 0)
(11.5448 -0.0161415 0)
(11.6314 -0.0151702 0)
(11.7159 -0.0148398 0)
(11.7977 -0.011899 0)
(11.8815 -0.0117743 0)
(11.9606 -0.00982965 0)
(12.0399 -0.0113638 0)
(12.112 -0.0111066 0)
(12.1834 -0.0149333 0)
(12.2467 -0.0169635 0)
(12.3078 -0.0241148 0)
(12.3542 -0.0298285 0)
(12.3761 -0.0425832 0)
(12.3062 -0.0528005 0)
(9.99112 -0.0652471 0)
(10.2421 -0.14728 0)
(10.6195 -0.123425 0)
(10.9861 -0.0913316 0)
(11.2603 -0.0494989 0)
(11.447 -0.0456656 0)
(11.5624 -0.0444963 0)
(11.6528 -0.0491508 0)
(11.7351 -0.0396794 0)
(11.8201 -0.0392158 0)
(11.9008 -0.0297645 0)
(11.9828 -0.0317744 0)
(12.0587 -0.026304 0)
(12.1337 -0.0319225 0)
(12.202 -0.030808 0)
(12.2678 -0.0400514 0)
(12.326 -0.0433184 0)
(12.3749 -0.0558159 0)
(12.3947 -0.0622638 0)
(12.3286 -0.0660667 0)
(9.99637 -0.115708 0)
(10.2648 -0.247609 0)
(10.6698 -0.205801 0)
(11.0339 -0.149664 0)
(11.3093 -0.0836146 0)
(11.4845 -0.0764059 0)
(11.604 -0.0749791 0)
(11.6915 -0.0800311 0)
(11.78 -0.0655615 0)
(11.8609 -0.0637812 0)
(11.9461 -0.049613 0)
(12.0237 -0.0513546 0)
(12.1034 -0.0428562 0)
(12.1743 -0.0500933 0)
(12.2461 -0.0480382 0)
(12.3082 -0.059835 0)
(12.3701 -0.0642576 0)
(12.4158 -0.0795874 0)
(12.4418 -0.0863484 0)
(12.3754 -0.0789852 0)
(10.0149 -0.175418 0)
(10.2923 -0.350108 0)
(10.7553 -0.288813 0)
(11.1012 -0.202331 0)
(11.3902 -0.118466 0)
(11.5393 -0.112385 0)
(11.6739 -0.10517 0)
(11.7504 -0.112529 0)
(11.853 -0.0896723 0)
(11.9239 -0.0906914 0)
(12.0187 -0.0678726 0)
(12.0873 -0.0741817 0)
(12.1736 -0.0578296 0)
(12.2369 -0.0716679 0)
(12.3124 -0.0623681 0)
(12.3685 -0.0825409 0)
(12.4306 -0.0812848 0)
(12.4718 -0.107158 0)
(12.4973 -0.109185 0)
(12.434 -0.105583 0)
(10.0531 -0.2522 0)
(10.315 -0.451994 0)
(10.8944 -0.374961 0)
(11.1732 -0.245499 0)
(11.5211 -0.159318 0)
(11.5941 -0.149434 0)
(11.793 -0.13924 0)
(11.8062 -0.141692 0)
(11.9685 -0.116486 0)
(11.974 -0.114761 0)
(12.1189 -0.0887296 0)
(12.1211 -0.0954636 0)
(12.2482 -0.0747317 0)
(12.2449 -0.0920062 0)
(12.3505 -0.0760739 0)
(12.3397 -0.103026 0)
(12.4175 -0.0934023 0)
(12.3924 -0.132182 0)
(12.418 -0.125546 0)
(12.3025 -0.142356 0)
(10.0493 -0.347049 0)
(10.3906 -0.562207 0)
(11.0487 -0.45918 0)
(11.2897 -0.29018 0)
(11.6528 -0.207383 0)
(11.6533 -0.188741 0)
(11.8735 -0.176066 0)
(11.797 -0.166737 0)
(11.9727 -0.142913 0)
(11.8648 -0.131433 0)
(12.0176 -0.108246 0)
(11.8912 -0.107138 0)
(12.0243 -0.0889374 0)
(11.8838 -0.099746 0)
(11.9929 -0.0842795 0)
(11.8404 -0.107423 0)
(11.9147 -0.095315 0)
(11.7475 -0.136971 0)
(11.7545 -0.12593 0)
(11.522 -0.163351 0)
(10.0034 -0.456112 0)
(10.5559 -0.700544 0)
(11.1707 -0.542141 0)
(11.3585 -0.348593 0)
(11.5567 -0.25882 0)
(11.4389 -0.22407 0)
(11.4929 -0.196821 0)
(11.2774 -0.173115 0)
(11.3036 -0.143987 0)
(11.0563 -0.124292 0)
(11.0942 -0.101221 0)
(10.8391 -0.0937594 0)
(10.8959 -0.0775266 0)
(10.6356 -0.0821906 0)
(10.7029 -0.0687579 0)
(10.4334 -0.086799 0)
(10.4929 -0.074082 0)
(10.2048 -0.115182 0)
(10.2114 -0.0974616 0)
(9.87376 -0.159357 0)
(10.0574 -0.629538 0)
(10.6514 -0.857477 0)
(10.8699 -0.596967 0)
(10.6866 -0.369655 0)
(10.4651 -0.252978 0)
(10.0848 -0.193376 0)
(9.85714 -0.150725 0)
(9.49892 -0.119998 0)
(9.35087 -0.092007 0)
(9.04299 -0.0744469 0)
(8.9795 -0.0573885 0)
(8.7096 -0.0519314 0)
(8.70763 -0.0425153 0)
(8.45056 -0.0454502 0)
(8.48312 -0.0399707 0)
(8.21733 -0.0500249 0)
(8.25819 -0.048351 0)
(7.96162 -0.0698511 0)
(7.96507 -0.0722694 0)
(7.61386 -0.0905112 0)
(10.0771 -0.83467 0)
(9.65887 -0.862625 0)
(8.88559 -0.50355 0)
(8.10002 -0.259599 0)
(7.52074 -0.136695 0)
(7.03361 -0.0808778 0)
(6.73847 -0.0528844 0)
(6.43346 -0.0396495 0)
(6.28288 -0.0288746 0)
(6.06296 -0.0239312 0)
(5.99871 -0.0179676 0)
(5.81766 -0.0180928 0)
(5.8028 -0.0147265 0)
(5.62889 -0.0183668 0)
(5.63687 -0.0160008 0)
(5.4496 -0.0229011 0)
(5.46032 -0.0222969 0)
(5.23634 -0.0329877 0)
(5.22719 -0.039428 0)
(4.92251 -0.0225751 0)
(8.09337 -0.38651 0)
(5.46925 -0.242033 0)
(3.94125 -0.0432556 0)
(3.1902 0.0151216 0)
(2.83802 0.018054 0)
(2.63596 0.0109544 0)
(2.52723 0.00562222 0)
(2.42169 0.0021914 0)
(2.36819 0.00154529 0)
(2.29377 0.000359739 0)
(2.27029 0.000774412 0)
(2.20941 -0.000295489 0)
(2.20027 0.0002467 0)
(2.1379 -0.00115051 0)
(2.13194 -0.000328629 0)
(2.05941 -0.00237267 0)
(2.04716 -0.00121675 0)
(1.95454 -0.00395665 0)
(1.91706 -0.00480331 0)
(1.75749 0.0119455 0)
(2.22174 -0.0867807 0)
(2.37079 0.0082035 0)
(2.62739 0.0114941 0)
(2.85328 -0.0129221 0)
(3.06942 -0.03816 0)
(3.23232 -0.0513817 0)
(3.39084 -0.0604935 0)
(3.5037 -0.0624766 0)
(3.61964 -0.0756441 0)
(3.71575 -0.0906605 0)
(3.82086 -0.107547 0)
(3.91055 -0.12188 0)
(4.01109 -0.138731 0)
(4.10073 -0.152591 0)
(4.19378 -0.167711 0)
(4.28565 -0.180939 0)
(4.38208 -0.194195 0)
(4.48523 -0.207611 0)
(4.60471 -0.220484 0)
(4.72614 -0.23201 0)
(4.85494 -0.252675 0)
(4.97717 -0.275692 0)
(5.09817 -0.302782 0)
(5.20936 -0.329447 0)
(5.31808 -0.357606 0)
(5.41403 -0.383581 0)
(5.51348 -0.408068 0)
(5.59823 -0.427032 0)
(5.69785 -0.443526 0)
(5.78736 -0.459554 0)
(5.89962 -0.48077 0)
(6.00727 -0.504925 0)
(6.13212 -0.535181 0)
(6.24929 -0.566363 0)
(6.37066 -0.598411 0)
(6.48428 -0.62944 0)
(6.59744 -0.658779 0)
(6.70724 -0.687764 0)
(6.81562 -0.718748 0)
(6.9234 -0.752173 0)
(7.02768 -0.787114 0)
(7.12628 -0.824589 0)
(7.22155 -0.864448 0)
(7.30325 -0.903486 0)
(7.3849 -0.94144 0)
(7.44855 -0.97341 0)
(7.52207 -1.00329 0)
(7.57817 -1.02495 0)
(7.65301 -1.04673 0)
(7.71173 -1.05914 0)
(7.79392 -1.07581 0)
(7.86215 -1.08383 0)
(7.95232 -1.10121 0)
(8.0271 -1.11132 0)
(8.11914 -1.1337 0)
(8.19066 -1.14875 0)
(8.27782 -1.1759 0)
(8.33657 -1.19301 0)
(8.41306 -1.21912 0)
(8.45788 -1.23428 0)
(8.52825 -1.26026 0)
(8.5694 -1.27651 0)
(8.63775 -1.30524 0)
(8.68515 -1.3223 0)
(8.74467 -1.34943 0)
(8.79589 -1.36392 0)
(8.84121 -1.38123 0)
(8.88471 -1.38612 0)
(8.92274 -1.39372 0)
(8.96046 -1.39515 0)
(9.00006 -1.40292 0)
(9.03504 -1.40009 0)
(9.06372 -1.40589 0)
(9.10119 -1.40003 0)
(9.12495 -1.40759 0)
(9.17071 -1.40146 0)
(9.1924 -1.40964 0)
(9.24869 -1.40854 0)
(9.27318 -1.41949 0)
(9.33105 -1.41668 0)
(9.36057 -1.42272 0)
(9.4108 -1.40424 0)
(9.43657 -1.3951 0)
(9.4751 -1.36173 0)
(9.49636 -1.33692 0)
(9.52006 -1.29156 0)
(9.5367 -1.26147 0)
(9.55876 -1.21347 0)
(9.56492 -1.1815 0)
(9.58612 -1.13093 0)
(9.58003 -1.09407 0)
(9.60008 -1.03497 0)
(9.57535 -0.99175 0)
(9.5888 -0.93362 0)
(9.55061 -0.892735 0)
(9.56625 -0.837099 0)
(9.51338 -0.799047 0)
(9.53418 -0.749773 0)
(9.47364 -0.720552 0)
(9.51703 -0.684754 0)
(9.44726 -0.670184 0)
(9.51605 -0.640749 0)
(9.44398 -0.64409 0)
(9.53121 -0.620815 0)
(9.45159 -0.610968 0)
(9.53889 -0.58237 0)
(9.44978 -0.568419 0)
(9.52655 -0.534813 0)
(9.42441 -0.51599 0)
(9.48043 -0.480807 0)
(9.36225 -0.459493 0)
(9.39564 -0.422744 0)
(9.25871 -0.40406 0)
(9.2818 -0.364677 0)
(9.13423 -0.354643 0)
(9.18353 -0.314725 0)
(9.03615 -0.31178 0)
(9.10126 -0.266746 0)
(8.94154 -0.258359 0)
(8.9963 -0.202993 0)
(8.83932 -0.193096 0)
(8.89909 -0.142429 0)
(8.75987 -0.144405 0)
(8.83031 -0.0994333 0)
(8.69491 -0.114277 0)
(8.76973 -0.0723962 0)
(8.6403 -0.0933297 0)
(8.70764 -0.0451816 0)
(8.59015 -0.0555526 0)
(8.64097 -0.00482467 0)
(8.53173 -0.00864701 0)
(8.57687 0.0432404 0)
(8.4652 0.0444063 0)
(8.50964 0.102128 0)
(8.38998 0.0976113 0)
(8.44097 0.159509 0)
(8.31333 0.155415 0)
(8.36977 0.228968 0)
(8.23741 0.222527 0)
(8.30217 0.295935 0)
(8.16069 0.28432 0)
(8.22169 0.357505 0)
(8.07958 0.351917 0)
(8.14132 0.41928 0)
(8.01132 0.403765 0)
(8.08886 0.459047 0)
(7.94165 0.449991 0)
(8.04964 0.510988 0)
(7.87268 0.48989 0)
(8.02279 0.549517 0)
(7.82744 0.52074 0)
(7.98728 0.585424 0)
(7.80236 0.566232 0)
(7.94877 0.626347 0)
(7.78011 0.600202 0)
(7.91647 0.667879 0)
(7.76949 0.65025 0)
(7.88728 0.713398 0)
(7.78438 0.701032 0)
(7.88753 0.760601 0)
(7.82142 0.735268 0)
(7.88689 0.798684 0)
(7.84164 0.778469 0)
(7.86398 0.85253 0)
(7.81668 0.840347 0)
(7.80501 0.910931 0)
(7.78425 0.902047 0)
(7.73144 0.957877 0)
(7.73139 0.949408 0)
(7.61794 1.00757 0)
(7.66627 0.991558 0)
(7.44573 1.05099 0)
(7.55864 1.02458 0)
(7.26021 1.10783 0)
(7.43589 1.04753 0)
(7.09122 1.19438 0)
(7.33467 1.08434 0)
(6.92451 1.28731 0)
(7.28109 1.14075 0)
(6.77636 1.40141 0)
(7.22439 1.21899 0)
(6.67354 1.54365 0)
(7.11921 1.31255 0)
(6.60386 1.70396 0)
(6.99094 1.45355 0)
(6.52211 1.88194 0)
(6.87591 1.65434 0)
(6.40504 2.08177 0)
(6.78289 1.92414 0)
(6.226 2.31081 0)
(6.68706 2.24781 0)
(5.99206 2.60255 0)
(6.51176 2.64077 0)
(5.78433 3.05532 0)
(6.20263 3.12675 0)
(5.64131 3.82454 0)
(5.81411 3.8761 0)
(5.19963 5.03429 0)
(6.13357 5.66687 0)
(3.91164 8.5297 0)
(5.26856 -0.0563688 0)
(5.26711 -0.0241118 0)
(5.31615 -0.0395406 0)
(5.40952 -0.0806691 0)
(5.5296 -0.116334 0)
(5.63551 -0.133608 0)
(5.72859 -0.140378 0)
(5.79614 -0.142285 0)
(5.85347 -0.148599 0)
(5.90097 -0.160081 0)
(5.95286 -0.176227 0)
(6.00385 -0.193379 0)
(6.06486 -0.211101 0)
(6.12598 -0.22703 0)
(6.19588 -0.241676 0)
(6.26431 -0.256059 0)
(6.34217 -0.270082 0)
(6.41652 -0.284589 0)
(6.50216 -0.301301 0)
(6.58482 -0.318329 0)
(6.67633 -0.339383 0)
(6.76294 -0.363073 0)
(6.85206 -0.388071 0)
(6.9337 -0.413466 0)
(7.01898 -0.438287 0)
(7.09424 -0.46216 0)
(7.17903 -0.483554 0)
(7.25113 -0.503377 0)
(7.33848 -0.522529 0)
(7.41177 -0.542412 0)
(7.5064 -0.565196 0)
(7.58468 -0.590434 0)
(7.6861 -0.620134 0)
(7.76512 -0.649986 0)
(7.86455 -0.681855 0)
(7.93805 -0.709998 0)
(8.02923 -0.740034 0)
(8.09752 -0.765839 0)
(8.17989 -0.79643 0)
(8.24563 -0.824433 0)
(8.32204 -0.858789 0)
(8.38596 -0.890128 0)
(8.4578 -0.927275 0)
(8.51773 -0.959498 0)
(8.58594 -0.994616 0)
(8.63929 -1.02296 0)
(8.70613 -1.05237 0)
(8.7532 -1.07461 0)
(8.82142 -1.09749 0)
(8.86413 -1.1133 0)
(8.93503 -1.13073 0)
(8.97482 -1.1423 0)
(9.0473 -1.15816 0)
(9.08401 -1.16918 0)
(9.15442 -1.18697 0)
(9.18693 -1.20014 0)
(9.25164 -1.22075 0)
(9.28039 -1.2376 0)
(9.33968 -1.25969 0)
(9.36581 -1.28007 0)
(9.4239 -1.303 0)
(9.44443 -1.32512 0)
(9.50231 -1.34808 0)
(9.51268 -1.367 0)
(9.56543 -1.38586 0)
(9.56761 -1.396 0)
(9.60631 -1.40484 0)
(9.60781 -1.4076 0)
(9.6392 -1.41468 0)
(9.64745 -1.42052 0)
(9.67315 -1.4219 0)
(9.68055 -1.4223 0)
(9.70329 -1.42224 0)
(9.71241 -1.42296 0)
(9.73035 -1.42811 0)
(9.74744 -1.42688 0)
(9.7581 -1.43552 0)
(9.78507 -1.43416 0)
(9.78441 -1.44322 0)
(9.81566 -1.44017 0)
(9.80928 -1.44166 0)
(9.83391 -1.42227 0)
(9.82569 -1.41074 0)
(9.84228 -1.3731 0)
(9.83009 -1.34377 0)
(9.8393 -1.29832 0)
(9.8293 -1.26544 0)
(9.83109 -1.21424 0)
(9.81442 -1.18105 0)
(9.80948 -1.12679 0)
(9.78923 -1.08658 0)
(9.77036 -1.02219 0)
(9.74089 -0.97932 0)
(9.70718 -0.916166 0)
(9.67071 -0.875175 0)
(9.62861 -0.813646 0)
(9.5932 -0.777921 0)
(9.55312 -0.727669 0)
(9.53537 -0.706077 0)
(9.50807 -0.673047 0)
(9.50017 -0.666668 0)
(9.49462 -0.643156 0)
(9.48824 -0.6489 0)
(9.48615 -0.62296 0)
(9.4721 -0.608239 0)
(9.4671 -0.576607 0)
(9.43736 -0.553903 0)
(9.42374 -0.517002 0)
(9.37406 -0.488806 0)
(9.34655 -0.448131 0)
(9.28598 -0.415531 0)
(9.23931 -0.373473 0)
(9.17005 -0.344589 0)
(9.11126 -0.31328 0)
(9.06227 -0.306201 0)
(9.01035 -0.278927 0)
(8.96757 -0.269526 0)
(8.90914 -0.227667 0)
(8.86681 -0.209935 0)
(8.79723 -0.165864 0)
(8.77769 -0.153015 0)
(8.70441 -0.119475 0)
(8.71319 -0.115242 0)
(8.63965 -0.0834509 0)
(8.66499 -0.0878133 0)
(8.58475 -0.0542253 0)
(8.62202 -0.0649718 0)
(8.52055 -0.0249705 0)
(8.56726 -0.0238399 0)
(8.45014 0.0186732 0)
(8.49837 0.0203766 0)
(8.37608 0.070054 0)
(8.42284 0.0721038 0)
(8.29828 0.131578 0)
(8.34766 0.132349 0)
(8.20867 0.190764 0)
(8.27451 0.191918 0)
(8.1204 0.25007 0)
(8.2081 0.256344 0)
(8.04348 0.311254 0)
(8.14874 0.321822 0)
(7.95557 0.382695 0)
(8.07243 0.390686 0)
(7.87392 0.444975 0)
(8.00257 0.428764 0)
(7.81237 0.487378 0)
(7.94026 0.469579 0)
(7.76264 0.528499 0)
(7.9115 0.500322 0)
(7.74514 0.556774 0)
(7.88592 0.523951 0)
(7.73194 0.590861 0)
(7.86276 0.561722 0)
(7.7205 0.631037 0)
(7.85232 0.593126 0)
(7.70702 0.680135 0)
(7.86647 0.627216 0)
(7.70045 0.720182 0)
(7.92567 0.664753 0)
(7.71566 0.767211 0)
(7.99003 0.700497 0)
(7.72972 0.822821 0)
(8.01203 0.756603 0)
(7.7374 0.890116 0)
(8.00084 0.815443 0)
(7.73216 0.951564 0)
(7.98731 0.861525 0)
(7.70256 1.02838 0)
(7.94907 0.914897 0)
(7.63174 1.10564 0)
(7.8903 0.962336 0)
(7.54309 1.18254 0)
(7.7972 0.98979 0)
(7.42479 1.2458 0)
(7.6922 1.00323 0)
(7.27786 1.30697 0)
(7.64219 1.0384 0)
(7.13173 1.39 0)
(7.60895 1.09921 0)
(7.02436 1.50103 0)
(7.55217 1.18074 0)
(6.94687 1.62384 0)
(7.49634 1.30835 0)
(6.84105 1.75363 0)
(7.47882 1.48105 0)
(6.70827 1.90447 0)
(7.48541 1.68947 0)
(6.56915 2.10235 0)
(7.48306 1.93303 0)
(6.4704 2.40237 0)
(7.40107 2.20458 0)
(6.43409 2.81171 0)
(7.18843 2.53504 0)
(6.41584 3.35806 0)
(6.93396 3.05788 0)
(6.24997 4.0808 0)
(7.04996 3.98099 0)
(5.64696 5.32729 0)
(8.23681 4.90814 0)
(6.27366 9.06893 0)
(7.89093 -0.0820522 0)
(7.89441 -0.0892214 0)
(7.92289 -0.109443 0)
(7.99041 -0.133266 0)
(8.07911 -0.149833 0)
(8.15688 -0.156867 0)
(8.21335 -0.159235 0)
(8.24502 -0.161144 0)
(8.26312 -0.167231 0)
(8.27498 -0.179105 0)
(8.29156 -0.196397 0)
(8.31265 -0.21671 0)
(8.34288 -0.238233 0)
(8.37663 -0.259296 0)
(8.41828 -0.279224 0)
(8.46061 -0.297903 0)
(8.50987 -0.315782 0)
(8.55653 -0.333169 0)
(8.60851 -0.351446 0)
(8.65755 -0.370891 0)
(8.71071 -0.392477 0)
(8.76197 -0.416186 0)
(8.81518 -0.440614 0)
(8.86694 -0.465738 0)
(8.91993 -0.489939 0)
(8.9727 -0.513747 0)
(9.02663 -0.535406 0)
(9.08152 -0.556843 0)
(9.1367 -0.57674 0)
(9.19142 -0.598354 0)
(9.24776 -0.62035 0)
(9.3004 -0.646169 0)
(9.35762 -0.672878 0)
(9.4043 -0.702663 0)
(9.45989 -0.731403 0)
(9.49808 -0.760804 0)
(9.55216 -0.788018 0)
(9.58423 -0.815077 0)
(9.63815 -0.84178 0)
(9.66767 -0.868929 0)
(9.72249 -0.898427 0)
(9.75405 -0.92809 0)
(9.80848 -0.961209 0)
(9.84248 -0.992508 0)
(9.89303 -1.026 0)
(9.92706 -1.05532 0)
(9.97053 -1.08501 0)
(10.0017 -1.109 0)
(10.0372 -1.13233 0)
(10.0645 -1.14982 0)
(10.094 -1.16653 0)
(10.1175 -1.17926 0)
(10.1439 -1.19233 0)
(10.1635 -1.20349 0)
(10.1889 -1.21725 0)
(10.2062 -1.23019 0)
(10.2321 -1.24848 0)
(10.2503 -1.26568 0)
(10.2759 -1.28828 0)
(10.2951 -1.30735 0)
(10.3134 -1.32851 0)
(10.3292 -1.34585 0)
(10.3337 -1.36217 0)
(10.3392 -1.37638 0)
(10.3303 -1.38597 0)
(10.3219 -1.39449 0)
(10.3083 -1.39994 0)
(10.2967 -1.4071 0)
(10.2913 -1.41417 0)
(10.2771 -1.42082 0)
(10.272 -1.42397 0)
(10.2555 -1.42478 0)
(10.2533 -1.42272 0)
(10.2324 -1.42569 0)
(10.2326 -1.42694 0)
(10.2038 -1.42925 0)
(10.2004 -1.43295 0)
(10.1687 -1.43177 0)
(10.16 -1.43971 0)
(10.1338 -1.43638 0)
(10.1206 -1.43566 0)
(10.0953 -1.41773 0)
(10.0849 -1.40277 0)
(10.0529 -1.3617 0)
(10.044 -1.33355 0)
(10.0088 -1.28515 0)
(9.99696 -1.24876 0)
(9.94851 -1.19516 0)
(9.93743 -1.16026 0)
(9.8766 -1.10417 0)
(9.86688 -1.05787 0)
(9.79123 -0.990658 0)
(9.77337 -0.945371 0)
(9.68728 -0.877784 0)
(9.66708 -0.835547 0)
(9.58132 -0.774129 0)
(9.55764 -0.743972 0)
(9.48582 -0.699029 0)
(9.48479 -0.685876 0)
(9.42701 -0.65724 0)
(9.44069 -0.660238 0)
(9.39922 -0.638679 0)
(9.4014 -0.647705 0)
(9.3668 -0.612355 0)
(9.35102 -0.598657 0)
(9.32146 -0.553496 0)
(9.27781 -0.534294 0)
(9.25702 -0.480785 0)
(9.18363 -0.458597 0)
(9.16932 -0.397425 0)
(9.07008 -0.373425 0)
(9.05556 -0.30891 0)
(8.94358 -0.299616 0)
(8.96126 -0.263895 0)
(8.85582 -0.270479 0)
(8.87036 -0.227821 0)
(8.74566 -0.226888 0)
(8.76042 -0.172437 0)
(8.62355 -0.171041 0)
(8.65987 -0.115821 0)
(8.52732 -0.126799 0)
(8.57961 -0.0810012 0)
(8.45974 -0.101545 0)
(8.52015 -0.0553702 0)
(8.40627 -0.0780244 0)
(8.47104 -0.0234947 0)
(8.35081 -0.049497 0)
(8.41301 0.0156449 0)
(8.28291 -0.00688417 0)
(8.34702 0.0658927 0)
(8.20441 0.0403263 0)
(8.2641 0.124785 0)
(8.12104 0.0940646 0)
(8.17372 0.189929 0)
(8.03937 0.159169 0)
(8.07562 0.253748 0)
(7.95647 0.220559 0)
(7.98479 0.303455 0)
(7.87728 0.274247 0)
(7.91234 0.359033 0)
(7.79944 0.335944 0)
(7.84678 0.439389 0)
(7.7051 0.40464 0)
(7.79078 0.49547 0)
(7.63826 0.435771 0)
(7.7461 0.53232 0)
(7.59102 0.475501 0)
(7.71647 0.561821 0)
(7.56881 0.493499 0)
(7.71667 0.588601 0)
(7.54262 0.515013 0)
(7.73662 0.63013 0)
(7.52053 0.53808 0)
(7.74563 0.670155 0)
(7.52631 0.56998 0)
(7.76262 0.721262 0)
(7.56896 0.578231 0)
(7.78726 0.747255 0)
(7.63894 0.605665 0)
(7.81712 0.785014 0)
(7.69886 0.655044 0)
(7.85461 0.855773 0)
(7.7191 0.720084 0)
(7.8816 0.939583 0)
(7.74085 0.779403 0)
(7.88728 1.00886 0)
(7.74882 0.830478 0)
(7.86232 1.09448 0)
(7.75484 0.894058 0)
(7.81187 1.1829 0)
(7.74881 0.952428 0)
(7.71792 1.26691 0)
(7.77068 0.999622 0)
(7.56261 1.33544 0)
(7.82193 1.03582 0)
(7.37023 1.39842 0)
(7.85681 1.05489 0)
(7.20937 1.4727 0)
(7.87471 1.10076 0)
(7.08732 1.56675 0)
(7.89838 1.19016 0)
(6.95502 1.6807 0)
(7.93291 1.31008 0)
(6.82066 1.83034 0)
(7.94168 1.441 0)
(6.73408 2.02597 0)
(7.89977 1.59425 0)
(6.71802 2.2799 0)
(7.78587 1.78315 0)
(6.79046 2.60145 0)
(7.63494 2.06194 0)
(6.87526 2.98183 0)
(7.56892 2.46672 0)
(6.82685 3.43038 0)
(7.80016 3.0257 0)
(6.53632 4.19699 0)
(8.55513 3.56243 0)
(6.30897 5.89175 0)
(9.44133 3.55647 0)
(7.8922 8.2875 0)
(10.0611 -0.116 0)
(10.0792 -0.22729 0)
(10.1262 -0.270847 0)
(10.1904 -0.26277 0)
(10.2598 -0.234904 0)
(10.3102 -0.206917 0)
(10.3411 -0.18861 0)
(10.3506 -0.1809 0)
(10.3527 -0.183569 0)
(10.3501 -0.194011 0)
(10.3534 -0.211283 0)
(10.3588 -0.232219 0)
(10.372 -0.25582 0)
(10.3859 -0.279032 0)
(10.4058 -0.302008 0)
(10.4242 -0.322713 0)
(10.4471 -0.342839 0)
(10.4667 -0.361101 0)
(10.4909 -0.38026 0)
(10.512 -0.399124 0)
(10.5385 -0.420362 0)
(10.5611 -0.442089 0)
(10.589 -0.46633 0)
(10.6121 -0.489957 0)
(10.6399 -0.515118 0)
(10.6635 -0.538319 0)
(10.69 -0.561959 0)
(10.7143 -0.583217 0)
(10.7387 -0.605134 0)
(10.7637 -0.625975 0)
(10.7845 -0.648389 0)
(10.8092 -0.671479 0)
(10.8256 -0.696334 0)
(10.8486 -0.723004 0)
(10.8607 -0.749722 0)
(10.8806 -0.777984 0)
(10.8913 -0.804449 0)
(10.9091 -0.833365 0)
(10.9232 -0.859924 0)
(10.94 -0.889808 0)
(10.9599 -0.917975 0)
(10.9759 -0.950395 0)
(11.0001 -0.981289 0)
(11.0129 -1.01474 0)
(11.0366 -1.04582 0)
(11.0435 -1.07652 0)
(11.0619 -1.10358 0)
(11.0624 -1.12778 0)
(11.074 -1.14811 0)
(11.0703 -1.1647 0)
(11.0756 -1.17847 0)
(11.07 -1.18967 0)
(11.0708 -1.19944 0)
(11.065 -1.20965 0)
(11.0653 -1.22069 0)
(11.0615 -1.23511 0)
(11.0643 -1.25111 0)
(11.0595 -1.2692 0)
(11.0615 -1.28745 0)
(11.0476 -1.30365 0)
(11.042 -1.31997 0)
(11.0153 -1.33161 0)
(10.9974 -1.34424 0)
(10.9599 -1.35063 0)
(10.9252 -1.35811 0)
(10.8837 -1.36419 0)
(10.8411 -1.37516 0)
(10.8052 -1.38643 0)
(10.7599 -1.39356 0)
(10.7261 -1.40004 0)
(10.6769 -1.40324 0)
(10.6387 -1.40341 0)
(10.5904 -1.40059 0)
(10.554 -1.40249 0)
(10.5011 -1.39943 0)
(10.4553 -1.40216 0)
(10.401 -1.39926 0)
(10.3557 -1.40483 0)
(10.3094 -1.40867 0)
(10.274 -1.4103 0)
(10.227 -1.40289 0)
(10.1985 -1.39209 0)
(10.1442 -1.36641 0)
(10.1143 -1.33301 0)
(10.0579 -1.29994 0)
(10.0231 -1.25261 0)
(9.96034 -1.2108 0)
(9.91954 -1.16821 0)
(9.86112 -1.12561 0)
(9.81697 -1.07277 0)
(9.7496 -1.01716 0)
(9.69951 -0.94816 0)
(9.62374 -0.894364 0)
(9.574 -0.82706 0)
(9.50414 -0.783427 0)
(9.45889 -0.724781 0)
(9.3925 -0.703051 0)
(9.36252 -0.665356 0)
(9.31419 -0.663164 0)
(9.29016 -0.634764 0)
(9.25996 -0.644428 0)
(9.23071 -0.616752 0)
(9.20095 -0.631727 0)
(9.16943 -0.584884 0)
(9.13493 -0.580368 0)
(9.09953 -0.521226 0)
(9.04732 -0.509518 0)
(9.0131 -0.438807 0)
(8.94315 -0.424474 0)
(8.90703 -0.34627 0)
(8.81177 -0.327914 0)
(8.78299 -0.260724 0)
(8.70676 -0.278036 0)
(8.71245 -0.232237 0)
(8.61796 -0.238993 0)
(8.62319 -0.178828 0)
(8.50212 -0.183213 0)
(8.50516 -0.118527 0)
(8.37221 -0.131929 0)
(8.40356 -0.0714031 0)
(8.27353 -0.103725 0)
(8.322 -0.0477685 0)
(8.20692 -0.0885141 0)
(8.24978 -0.025911 0)
(8.15504 -0.0676265 0)
(8.1847 0.00406452 0)
(8.09364 -0.0345008 0)
(8.1213 0.0516565 0)
(8.02804 0.00861537 0)
(8.05191 0.11083 0)
(7.95923 0.062368 0)
(7.97035 0.175456 0)
(7.87693 0.12214 0)
(7.88593 0.240035 0)
(7.79404 0.186645 0)
(7.79983 0.302177 0)
(7.70972 0.248294 0)
(7.7139 0.34765 0)
(7.6191 0.29775 0)
(7.64417 0.402836 0)
(7.53203 0.358518 0)
(7.5811 0.481852 0)
(7.46571 0.421565 0)
(7.54103 0.523016 0)
(7.44839 0.446258 0)
(7.51187 0.558429 0)
(7.43351 0.482555 0)
(7.49302 0.574696 0)
(7.4439 0.488482 0)
(7.4791 0.592612 0)
(7.46484 0.504971 0)
(7.48364 0.634418 0)
(7.50134 0.528238 0)
(7.47791 0.665987 0)
(7.56328 0.548256 0)
(7.51437 0.696599 0)
(7.62099 0.556909 0)
(7.56437 0.736465 0)
(7.68522 0.588759 0)
(7.5896 0.768325 0)
(7.74833 0.625784 0)
(7.62654 0.850227 0)
(7.8198 0.676487 0)
(7.61362 0.925581 0)
(7.92736 0.742065 0)
(7.56862 1.01545 0)
(8.00282 0.808867 0)
(7.50586 1.12063 0)
(8.07633 0.860071 0)
(7.44367 1.2239 0)
(8.17041 0.908764 0)
(7.34999 1.3147 0)
(8.26266 0.950319 0)
(7.2346 1.38526 0)
(8.31533 0.983064 0)
(7.13872 1.46294 0)
(8.29461 1.01103 0)
(7.06245 1.53922 0)
(8.25835 1.04894 0)
(6.99398 1.64028 0)
(8.24473 1.11652 0)
(6.96336 1.7924 0)
(8.21241 1.20258 0)
(6.9975 1.9771 0)
(8.13106 1.31447 0)
(7.0755 2.18261 0)
(8.04348 1.4753 0)
(7.14501 2.41581 0)
(8.01262 1.71108 0)
(7.14323 2.6956 0)
(8.11568 2.01952 0)
(7.03948 3.07943 0)
(8.41666 2.36294 0)
(6.83246 3.66882 0)
(8.95224 2.61094 0)
(6.71346 4.67534 0)
(9.65135 2.64449 0)
(7.22468 6.14601 0)
(9.95978 2.87449 0)
(8.76989 7.22899 0)
(11.5442 -0.100646 0)
(11.5849 -0.242513 0)
(11.6989 -0.300051 0)
(11.7919 -0.292442 0)
(11.8536 -0.256195 0)
(11.8816 -0.217394 0)
(11.8875 -0.191063 0)
(11.878 -0.180167 0)
(11.8653 -0.182821 0)
(11.8506 -0.194836 0)
(11.8409 -0.213642 0)
(11.8329 -0.235953 0)
(11.8303 -0.260322 0)
(11.8291 -0.284443 0)
(11.8315 -0.308021 0)
(11.8341 -0.329798 0)
(11.8386 -0.350455 0)
(11.8431 -0.369751 0)
(11.8486 -0.388987 0)
(11.8542 -0.408452 0)
(11.8602 -0.429209 0)
(11.8652 -0.451209 0)
(11.8704 -0.474766 0)
(11.8725 -0.498865 0)
(11.8755 -0.52372 0)
(11.8741 -0.547705 0)
(11.8752 -0.571622 0)
(11.8711 -0.59361 0)
(11.8716 -0.616067 0)
(11.8671 -0.636424 0)
(11.8673 -0.658561 0)
(11.8638 -0.679182 0)
(11.8628 -0.703408 0)
(11.8615 -0.7262 0)
(11.8577 -0.752974 0)
(11.859 -0.778015 0)
(11.8517 -0.806926 0)
(11.8561 -0.83414 0)
(11.8462 -0.864561 0)
(11.8532 -0.894033 0)
(11.8415 -0.926005 0)
(11.8488 -0.957777 0)
(11.8354 -0.990289 0)
(11.8396 -1.0223 0)
(11.824 -1.05276 0)
(11.8221 -1.08122 0)
(11.8037 -1.10628 0)
(11.7946 -1.12805 0)
(11.7732 -1.14589 0)
(11.757 -1.15989 0)
(11.7321 -1.17131 0)
(11.7109 -1.17986 0)
(11.6844 -1.18935 0)
(11.6634 -1.19871 0)
(11.6377 -1.21155 0)
(11.6183 -1.2249 0)
(11.5895 -1.24006 0)
(11.5655 -1.25437 0)
(11.5272 -1.26828 0)
(11.4932 -1.28156 0)
(11.446 -1.29339 0)
(11.3987 -1.30262 0)
(11.345 -1.30917 0)
(11.283 -1.31213 0)
(11.2278 -1.3177 0)
(11.1603 -1.32334 0)
(11.1082 -1.3345 0)
(11.0331 -1.34095 0)
(10.972 -1.34918 0)
(10.8928 -1.34884 0)
(10.8249 -1.35148 0)
(10.7423 -1.34719 0)
(10.6759 -1.34855 0)
(10.596 -1.34363 0)
(10.5245 -1.34307 0)
(10.4428 -1.34229 0)
(10.3741 -1.34735 0)
(10.3063 -1.35606 0)
(10.2525 -1.36639 0)
(10.1922 -1.36614 0)
(10.1381 -1.36348 0)
(10.0796 -1.34686 0)
(10.0151 -1.32235 0)
(9.96214 -1.28969 0)
(9.89314 -1.2558 0)
(9.83426 -1.2072 0)
(9.77252 -1.17024 0)
(9.71414 -1.12489 0)
(9.65163 -1.08473 0)
(9.59483 -1.0163 0)
(9.51654 -0.963349 0)
(9.45676 -0.887042 0)
(9.38806 -0.846222 0)
(9.32846 -0.771795 0)
(9.27769 -0.746754 0)
(9.21776 -0.676385 0)
(9.1789 -0.678488 0)
(9.12575 -0.621063 0)
(9.08866 -0.64505 0)
(9.03919 -0.59646 0)
(9.01663 -0.627827 0)
(8.95641 -0.576024 0)
(8.94711 -0.612334 0)
(8.87091 -0.539937 0)
(8.86585 -0.552524 0)
(8.77227 -0.472605 0)
(8.76683 -0.474807 0)
(8.66284 -0.383446 0)
(8.64427 -0.382161 0)
(8.52819 -0.277787 0)
(8.5007 -0.284987 0)
(8.42529 -0.218225 0)
(8.4138 -0.25962 0)
(8.34234 -0.182383 0)
(8.30877 -0.209426 0)
(8.24364 -0.114241 0)
(8.17619 -0.138743 0)
(8.11714 -0.0456701 0)
(8.05322 -0.0957222 0)
(8.00612 -0.0127155 0)
(7.95308 -0.0832266 0)
(7.91541 0.00366082 0)
(7.87921 -0.0712085 0)
(7.83669 0.0221136 0)
(7.82038 -0.0489601 0)
(7.76225 0.0508497 0)
(7.75315 -0.0191698 0)
(7.69957 0.0978601 0)
(7.68512 0.0261731 0)
(7.63982 0.162526 0)
(7.62267 0.0848309 0)
(7.5723 0.227801 0)
(7.54826 0.146534 0)
(7.50299 0.294097 0)
(7.47233 0.205552 0)
(7.43078 0.358554 0)
(7.39296 0.265343 0)
(7.34869 0.40954 0)
(7.30798 0.308408 0)
(7.27271 0.463694 0)
(7.24012 0.362928 0)
(7.20765 0.528807 0)
(7.22212 0.402918 0)
(7.19948 0.544264 0)
(7.2287 0.425952 0)
(7.19176 0.588702 0)
(7.23223 0.454628 0)
(7.18665 0.598572 0)
(7.26739 0.453005 0)
(7.18028 0.62737 0)
(7.31601 0.463081 0)
(7.18002 0.663319 0)
(7.37551 0.483957 0)
(7.22022 0.693416 0)
(7.43778 0.490213 0)
(7.28591 0.714302 0)
(7.49113 0.495688 0)
(7.34934 0.765672 0)
(7.54826 0.519229 0)
(7.40134 0.814447 0)
(7.60302 0.547769 0)
(7.44207 0.906564 0)