/*--------------------------------*- C++ -*----------------------------------*\
| =========                 |                                                 |
| \\      /  F ield         | OpenFOAM: The Open Source CFD Toolbox           |
|  \\    /   O peration     | Version:  2.4.0                                 |
|   \\  /    A nd           | Web:      www.OpenFOAM.org                      |
|    \\/     M anipulation  |                                                 |
\*---------------------------------------------------------------------------*/
FoamFile
{
    version     2.0;
    format      ascii;
    class       volScalarField;
    location    "93";
    object      p;
}
// * * * * * * * * * * * * * * * * * * * * * * * * * * * * * * * * * * * * * //

dimensions      [0 2 -2 0 0 0 0];

internalField   nonuniform List<scalar> 
4400
(
-0.112474
-0.102634
-0.107454
-0.11706
-0.104815
-0.115778
-0.116756
-0.108427
-0.117676
-0.111021
-0.1151
-0.120322
-0.116629
-0.120183
-0.117309
-0.122069
-0.121925
-0.121644
-0.127155
-0.11981
-0.112636
-0.10255
-0.107209
-0.117479
-0.104674
-0.115721
-0.117216
-0.1081
-0.117811
-0.111101
-0.114919
-0.120751
-0.11649
-0.120255
-0.117291
-0.122057
-0.122077
-0.121399
-0.127618
-0.119601
-0.112889
-0.102353
-0.106999
-0.118089
-0.104334
-0.115762
-0.11767
-0.107643
-0.11814
-0.111124
-0.114743
-0.121061
-0.11627
-0.12041
-0.117219
-0.12211
-0.122211
-0.121129
-0.128052
-0.119199
-0.113086
-0.102133
-0.106969
-0.118595
-0.103931
-0.115846
-0.117972
-0.107261
-0.118506
-0.111072
-0.114659
-0.121271
-0.116037
-0.120574
-0.117121
-0.12217
-0.122267
-0.120886
-0.128379
-0.118812
-0.113114
-0.10201
-0.107225
-0.118899
-0.10364
-0.115922
-0.118056
-0.107054
-0.118814
-0.111023
-0.114737
-0.121282
-0.115845
-0.1207
-0.117023
-0.122231
-0.122221
-0.120786
-0.128552
-0.118528
-0.11291
-0.102197
-0.107877
-0.119054
-0.103709
-0.115958
-0.118097
-0.107399
-0.119015
-0.111132
-0.114985
-0.121182
-0.115794
-0.120796
-0.116991
-0.122278
-0.122167
-0.120869
-0.128583
-0.118501
-0.112403
-0.102959
-0.108956
-0.118922
-0.104408
-0.115891
-0.118218
-0.108372
-0.118987
-0.111551
-0.115384
-0.121022
-0.115991
-0.120847
-0.117121
-0.122249
-0.122192
-0.121151
-0.128396
-0.118868
-0.111526
-0.104449
-0.110346
-0.118237
-0.106022
-0.115628
-0.118289
-0.109991
-0.118544
-0.112351
-0.115902
-0.120751
-0.11647
-0.120783
-0.117469
-0.122084
-0.122308
-0.121601
-0.127904
-0.119719
-0.110285
-0.106608
-0.111784
-0.11678
-0.108429
-0.115059
-0.118018
-0.11208
-0.117565
-0.113519
-0.116473
-0.120253
-0.117174
-0.120536
-0.118092
-0.121757
-0.122462
-0.122145
-0.127068
-0.121198
-0.108776
-0.10916
-0.112957
-0.114528
-0.111357
-0.114106
-0.117115
-0.114323
-0.116095
-0.114929
-0.116991
-0.119402
-0.117968
-0.120089
-0.119071
-0.121286
-0.122553
-0.122674
-0.125917
-0.123018
-0.107172
-0.111725
-0.113614
-0.111705
-0.114297
-0.112775
-0.115496
-0.116349
-0.114363
-0.116375
-0.11733
-0.118178
-0.118682
-0.119484
-0.120142
-0.120731
-0.122501
-0.12307
-0.124544
-0.124787
-0.105684
-0.113956
-0.113669
-0.108726
-0.116865
-0.111224
-0.11338
-0.117837
-0.112665
-0.117682
-0.117429
-0.116717
-0.119174
-0.1188
-0.12093
-0.120184
-0.122298
-0.123261
-0.123094
-0.126207
-0.104487
-0.115644
-0.113274
-0.106011
-0.118747
-0.10976
-0.111159
-0.118675
-0.111294
-0.118734
-0.117356
-0.115255
-0.119389
-0.118174
-0.121566
-0.119738
-0.122004
-0.123266
-0.121741
-0.127281
-0.103669
-0.116741
-0.11273
-0.103876
-0.119746
-0.108675
-0.109229
-0.118985
-0.110417
-0.119468
-0.117257
-0.114022
-0.119388
-0.117717
-0.121997
-0.119453
-0.121697
-0.123178
-0.120647
-0.127999
-0.103226
-0.117308
-0.112344
-0.102513
-0.119784
-0.108084
-0.107849
-0.118986
-0.110078
-0.119885
-0.117209
-0.113153
-0.11927
-0.117482
-0.122257
-0.11933
-0.121431
-0.12309
-0.119915
-0.128371
-0.10309
-0.117461
-0.112249
-0.101954
-0.119794
-0.107912
-0.107081
-0.118863
-0.110228
-0.120036
-0.11721
-0.112681
-0.11911
-0.11745
-0.122357
-0.119327
-0.121228
-0.123034
-0.119563
-0.12843
-0.103174
-0.117318
-0.112267
-0.102044
-0.119468
-0.107911
-0.106855
-0.118797
-0.11057
-0.119999
-0.117183
-0.112557
-0.11897
-0.11757
-0.122323
-0.119382
-0.121098
-0.12297
-0.119528
-0.128262
-0.103376
-0.116999
-0.11216
-0.102661
-0.118946
-0.107856
-0.107025
-0.118367
-0.110932
-0.119862
-0.117048
-0.112692
-0.118765
-0.117713
-0.122204
-0.119437
-0.121052
-0.122856
-0.119707
-0.127967
-0.103614
-0.116654
-0.111886
-0.103267
-0.11843
-0.107691
-0.107406
-0.117874
-0.111205
-0.119728
-0.11683
-0.112956
-0.118573
-0.117827
-0.122069
-0.119458
-0.121078
-0.122709
-0.119987
-0.127666
-0.103777
-0.116479
-0.111596
-0.103698
-0.118177
-0.107502
-0.107821
-0.117551
-0.111312
-0.119702
-0.116625
-0.113371
-0.118458
-0.11788
-0.122003
-0.119436
-0.121144
-0.122564
-0.120194
-0.127508
-0.131512
-0.125461
-0.128736
-0.136592
-0.138008
-0.156271
-0.145865
-0.132381
-0.129853
-0.117954
-0.118349
-0.122096
-0.12173
-0.158799
-0.188057
-0.134879
-0.0713469
-0.135413
-0.188089
-0.153966
-0.126355
-0.122511
-0.116683
-0.122121
-0.142484
-0.140915
-0.165276
-0.210005
-0.196982
-0.15423
-0.115505
-0.0697482
-0.0277744
-0.0167094
-0.0219975
-0.0194774
-0.00717813
0.00143098
-0.0182193
-0.0734073
-0.0896314
-0.0515521
-0.0208353
-0.0314917
-0.0544298
-0.0577027
-0.0447047
-0.0256508
-0.00395421
-0.0106678
-0.0303422
-0.0378104
-0.041598
-0.040883
-0.0233331
-0.00846014
-0.0129767
-0.0265196
-0.0366154
-0.0435533
-0.043842
-0.0303425
-0.0147667
-0.0100585
-0.0144976
-0.0204146
-0.0209357
-0.0118773
-0.00285832
-0.00200643
-0.00933464
-0.0166813
-0.0147007
-0.00611894
-0.00205769
-0.00329255
-0.00329161
-0.0023335
-0.00340155
-0.00479217
-0.00400868
-0.00311329
-0.00432412
-0.00629304
-0.00714998
-0.00703726
-0.00646857
-0.00554887
-0.00444722
-0.00342393
-0.00260119
-0.00197406
-0.00148255
-0.00108852
-0.000751119
-0.000466477
-0.000231717
-6.31468e-05
2.0371e-05
2.99905e-05
-0.131119
-0.125447
-0.128025
-0.137586
-0.137456
-0.15684
-0.146273
-0.130877
-0.13035
-0.117384
-0.117139
-0.123489
-0.120676
-0.156171
-0.184975
-0.135675
-0.0787939
-0.13058
-0.177434
-0.14931
-0.119144
-0.111212
-0.109416
-0.123343
-0.145062
-0.142444
-0.171326
-0.218916
-0.20402
-0.160942
-0.122039
-0.0735919
-0.0258433
-0.0104559
-0.0157067
-0.0145305
-0.00341671
0.00305982
-0.0198819
-0.0798269
-0.0963231
-0.0549004
-0.019993
-0.0263206
-0.0473158
-0.0528973
-0.0440989
-0.0300766
-0.00924999
-0.0120246
-0.0281401
-0.0345929
-0.037868
-0.037543
-0.0213821
-0.0083076
-0.0143161
-0.0286099
-0.0389512
-0.0459601
-0.0460168
-0.0315919
-0.0144089
-0.00802707
-0.0115535
-0.0171773
-0.0180507
-0.0100925
-0.00251121
-0.00298564
-0.0112041
-0.0188154
-0.0161503
-0.00612955
-0.000606591
-0.00140218
-0.0021924
-0.00247808
-0.00436636
-0.0057463
-0.00435624
-0.00272356
-0.00347689
-0.0055326
-0.00686601
-0.00721557
-0.00683143
-0.00584776
-0.00459854
-0.00345782
-0.00257813
-0.00193888
-0.00145613
-0.00107487
-0.000746907
-0.000467161
-0.000233708
-6.51261e-05
1.93506e-05
2.97162e-05
-0.130911
-0.125743
-0.127498
-0.138788
-0.136447
-0.156576
-0.146662
-0.129076
-0.130962
-0.117116
-0.115979
-0.125214
-0.119957
-0.151605
-0.180344
-0.136963
-0.0867179
-0.126302
-0.166417
-0.143686
-0.111763
-0.100234
-0.102137
-0.123698
-0.146067
-0.142098
-0.176036
-0.226378
-0.20985
-0.16683
-0.127638
-0.0763769
-0.0232205
-0.0040374
-0.00943232
-0.0095285
0.00053772
0.00524546
-0.0207903
-0.0851617
-0.101955
-0.0573447
-0.0185847
-0.0205496
-0.0397705
-0.0480296
-0.0436945
-0.034866
-0.0148445
-0.0132873
-0.0257089
-0.0312139
-0.0339393
-0.0340152
-0.0192514
-0.00791611
-0.0152855
-0.0303371
-0.040989
-0.0480544
-0.0478964
-0.0326071
-0.0138813
-0.00588393
-0.00851527
-0.0138628
-0.0151194
-0.00824546
-0.00205208
-0.00381754
-0.0128865
-0.02075
-0.0174469
-0.00606126
0.000842682
0.000449844
-0.00110577
-0.00259772
-0.00528698
-0.00666742
-0.00468029
-0.00231125
-0.00261062
-0.00476527
-0.00658618
-0.00740083
-0.00719681
-0.0061452
-0.00474756
-0.00349004
-0.00255407
-0.00190315
-0.00142943
-0.00106113
-0.00074262
-0.000467798
-0.000235523
-6.68471e-05
1.85783e-05
2.98931e-05
-0.130736
-0.126093
-0.126865
-0.14017
-0.135307
-0.155194
-0.147073
-0.127441
-0.131523
-0.117428
-0.114956
-0.126714
-0.119634
-0.146018
-0.174148
-0.138403
-0.0946911
-0.12276
-0.155779
-0.137347
-0.104357
-0.0899183
-0.0951794
-0.123201
-0.145825
-0.14024
-0.179784
-0.232731
-0.214787
-0.171955
-0.132246
-0.0780603
-0.019929
0.00245208
-0.00325907
-0.00455735
0.00460234
0.00794782
-0.0209091
-0.0892616
-0.106379
-0.0588566
-0.0166391
-0.0142002
-0.0318906
-0.0431289
-0.0434875
-0.0399065
-0.0205885
-0.0143762
-0.0230663
-0.0276963
-0.0298691
-0.0303586
-0.0169933
-0.00731977
-0.0159066
-0.0317062
-0.0427268
-0.0498404
-0.0494717
-0.0333776
-0.0131979
-0.00367647
-0.00543933
-0.0105274
-0.0121956
-0.0063754
-0.00149513
-0.00449446
-0.014366
-0.0224616
-0.0185682
-0.00591356
0.00226285
0.00222882
-5.32018e-05
-0.00269249
-0.00614857
-0.00753785
-0.0049724
-0.00188356
-0.00174385
-0.00400775
-0.00631644
-0.00758953
-0.0075581
-0.006436
-0.00489171
-0.00351996
-0.00252933
-0.0018674
-0.00140285
-0.00104746
-0.000738262
-0.000468286
-0.000237065
-6.8232e-05
1.81273e-05
3.04982e-05
-0.13056
-0.126569
-0.126234
-0.14137
-0.134255
-0.152703
-0.14743
-0.12649
-0.131702
-0.118332
-0.114239
-0.127377
-0.119677
-0.140047
-0.166625
-0.139591
-0.10237
-0.120106
-0.146011
-0.130571
-0.0970547
-0.0804654
-0.088812
-0.121976
-0.14469
-0.137368
-0.182952
-0.238277
-0.219096
-0.176391
-0.135866
-0.0786522
-0.0160067
0.00891774
0.00272922
0.000316863
0.00867463
0.011117
-0.0202278
-0.0920178
-0.109492
-0.0594406
-0.0141866
-0.00728947
-0.0237909
-0.0382088
-0.0434473
-0.0450535
-0.0263002
-0.0152165
-0.0202413
-0.0240634
-0.0257262
-0.0266391
-0.0146681
-0.00655978
-0.016211
-0.0327324
-0.0441693
-0.0513273
-0.0507417
-0.0338984
-0.0123755
-0.00145191
-0.00238115
-0.00722826
-0.00933229
-0.00452043
-0.000857534
-0.00501353
-0.0156322
-0.0239266
-0.0194968
-0.00568799
0.00362825
0.00390283
0.000945783
-0.00276257
-0.00693842
-0.00834139
-0.00522487
-0.00144781
-0.000895157
-0.00327624
-0.00606199
-0.00777781
-0.0079088
-0.00671527
-0.00502863
-0.00354708
-0.00250428
-0.0018322
-0.00137675
-0.00103401
-0.000733806
-0.000468494
-0.000238207
-6.91834e-05
1.80827e-05
3.14897e-05
-0.130259
-0.12726
-0.125799
-0.141845
-0.133731
-0.149497
-0.147449
-0.12644
-0.131412
-0.119642
-0.113945
-0.126872
-0.119892
-0.134275
-0.158263
-0.140229
-0.109502
-0.118425
-0.13743
-0.12368
-0.0900425
-0.0720785
-0.0832275
-0.120184
-0.14294
-0.134051
-0.185644
-0.243019
-0.222914
-0.180188
-0.138536
-0.0781947
-0.0115127
0.0152652
0.00844924
0.00495489
0.0126426
0.0146548
-0.0187492
-0.0933376
-0.111242
-0.0591293
-0.0112606
0.000124707
-0.0156207
-0.0332813
-0.0435228
-0.0501308
-0.0317774
-0.0157475
-0.017277
-0.0203422
-0.0215903
-0.0229302
-0.0123426
-0.00568362
-0.0162392
-0.0334384
-0.0453263
-0.0525288
-0.0517118
-0.03417
-0.0114337
0.000745723
0.000607353
-0.00402138
-0.00657937
-0.00271645
-0.000158808
-0.0053769
-0.0166798
-0.0251364
-0.020222
-0.00538806
0.00491589
0.00544443
0.0018747
-0.00280796
-0.00764525
-0.00906377
-0.00543093
-0.00101183
-8.25318e-05
-0.00258549
-0.00582687
-0.00796151
-0.00824265
-0.00697904
-0.00515622
-0.00357099
-0.00247932
-0.00179806
-0.00135152
-0.00102088
-0.000729207
-0.000468273
-0.000238806
-6.96106e-05
1.85217e-05
3.28026e-05
-0.129734
-0.128049
-0.125679
-0.141276
-0.133674
-0.146057
-0.146822
-0.127272
-0.130725
-0.121036
-0.114178
-0.125233
-0.119953
-0.129038
-0.149613
-0.140148
-0.115916
-0.117711
-0.130195
-0.116986
-0.0835278
-0.0648982
-0.0785216
-0.118002
-0.140778
-0.130773
-0.187886
-0.246747
-0.226239
-0.183328
-0.140312
-0.0767522
-0.00652292
0.0213979
0.0138271
0.00927424
0.0164213
0.0184115
-0.0164572
-0.093166
-0.111625
-0.0579896
-0.00789017
0.00791051
-0.00755293
-0.0283752
-0.043648
-0.0549449
-0.0368116
-0.0159298
-0.0142291
-0.0165649
-0.0175507
-0.0193115
-0.0100871
-0.00474294
-0.0160377
-0.0338524
-0.0462106
-0.0534611
-0.0523928
-0.0341981
-0.0103946
0.00287721
0.00347982
-0.000959218
-0.0039823
-0.000996021
0.000579216
-0.00559083
-0.0175097
-0.026093
-0.020739
-0.00501962
0.00610673
0.00683133
0.00272073
-0.00282877
-0.00825932
-0.00969238
-0.00558509
-0.000583701
0.000677663
-0.00194823
-0.00561385
-0.00813621
-0.00855354
-0.00722213
-0.00527266
-0.00359143
-0.00245489
-0.00176552
-0.00132747
-0.00100816
-0.000724399
-0.000467476
-0.000238746
-6.94615e-05
1.94824e-05
3.43474e-05
-0.128954
-0.128684
-0.125887
-0.139663
-0.133971
-0.1427
-0.14537
-0.128783
-0.129779
-0.122176
-0.1148
-0.122708
-0.11953
-0.124469
-0.141219
-0.139375
-0.12155
-0.117888
-0.124338
-0.110781
-0.0777187
-0.0590493
-0.074756
-0.115612
-0.138422
-0.127811
-0.189853
-0.249278
-0.228983
-0.185722
-0.141236
-0.0743786
-0.00111069
0.0272307
0.0188062
0.0132868
0.0199638
0.0222468
-0.0133627
-0.0915422
-0.110689
-0.0561153
-0.00410612
0.0158726
0.000424282
-0.0235507
-0.0437511
-0.059307
-0.0412075
-0.0157514
-0.0111584
-0.0127725
-0.0137005
-0.0158664
-0.00797227
-0.00379103
-0.0156572
-0.0340051
-0.0468375
-0.054141
-0.0527996
-0.0339932
-0.00928202
0.00490815
0.00619588
0.00191089
-0.00157854
0.000612687
0.00133322
-0.00566569
-0.0181279
-0.0268005
-0.021049
-0.00459
0.00718517
0.00804644
0.00347457
-0.00282501
-0.00877255
-0.0102165
-0.00568328
-0.00017165
0.00137098
-0.00137463
-0.00542412
-0.00829717
-0.00883572
-0.00744072
-0.00537637
-0.00360834
-0.0024315
-0.00173506
-0.0013049
-0.000995894
-0.000719323
-0.000466008
-0.000237976
-6.87483e-05
2.09357e-05
3.60142e-05
-0.127951
-0.128901
-0.126346
-0.137217
-0.134383
-0.13977
-0.143106
-0.130644
-0.12877
-0.122832
-0.115636
-0.119695
-0.118435
-0.12057
-0.133518
-0.138068
-0.126443
-0.118831
-0.1198
-0.105327
-0.0728197
-0.0546318
-0.0719462
-0.113194
-0.136063
-0.125463
-0.191467
-0.250612
-0.23103
-0.187245
-0.141337
-0.0711187
0.00465954
0.0326968
0.0233549
0.0169713
0.023233
0.0260782
-0.00955069
-0.088551
-0.108521
-0.053613
5.27936e-05
0.0237411
0.00772971
-0.0189031
-0.0437679
-0.0630571
-0.0448062
-0.0152335
-0.0081276
-0.00901924
-0.0101246
-0.0126782
-0.00606504
-0.00288041
-0.0151492
-0.033928
-0.0472239
-0.0545851
-0.0529502
-0.0335713
-0.00811987
0.00681012
0.00872184
0.0045477
0.000602279
0.00208589
0.00207914
-0.00561662
-0.018544
-0.0272715
-0.0211603
-0.0041075
0.00813829
0.00907876
0.00413039
-0.00279722
-0.00917948
-0.0106285
-0.00572342
0.000216042
0.00198511
-0.000871864
-0.00525727
-0.00843917
-0.00908355
-0.00763144
-0.00546606
-0.00362181
-0.00240964
-0.00170713
-0.00128405
-0.000984149
-0.00071396
-0.00046386
-0.000236542
-6.7566e-05
2.27665e-05
3.76784e-05
-0.126799
-0.128557
-0.12691
-0.134281
-0.134652
-0.137264
-0.140237
-0.132509
-0.127888
-0.122966
-0.116502
-0.116603
-0.116687
-0.117291
-0.126766
-0.136416
-0.130664
-0.120387
-0.116485
-0.100838
-0.0690161
-0.0516956
-0.0700654
-0.110902
-0.133816
-0.124043
-0.192278
-0.250762
-0.232237
-0.18777
-0.140622
-0.0669999
0.0107262
0.0377408
0.0274563
0.0203142
0.0261938
0.0298345
-0.00508465
-0.0842661
-0.10522
-0.050587
0.00454518
0.0311853
0.0144047
-0.0145476
-0.0436607
-0.0660795
-0.047497
-0.0144351
-0.00519529
-0.00537499
-0.00689213
-0.00982498
-0.00442319
-0.0020609
-0.0145631
-0.0336511
-0.0473874
-0.0547944
-0.0528645
-0.032954
-0.00693261
0.00856221
0.011033
0.00691715
0.00253744
0.00340392
0.00279254
-0.00546351
-0.0187715
-0.0275223
-0.0210853
-0.00358199
0.00895608
0.00992435
0.00468623
-0.00274717
-0.00947894
-0.0109247
-0.00570625
0.000571623
0.00251039
-0.000444055
-0.0051115
-0.0085567
-0.00929158
-0.00779136
-0.00554092
-0.0036321
-0.00238987
-0.00168213
-0.00126512
-0.000973006
-0.00070838
-0.000461142
-0.000234607
-6.60917e-05
2.47771e-05
3.92102e-05
-0.125611
-0.127685
-0.127421
-0.131256
-0.134589
-0.135166
-0.137149
-0.134116
-0.127254
-0.122715
-0.117278
-0.113718
-0.11445
-0.114586
-0.121066
-0.134556
-0.134205
-0.122368
-0.114284
-0.0974534
-0.0664376
-0.050225
-0.0690471
-0.10881
-0.131786
-0.123697
-0.192299
-0.249544
-0.232436
-0.187266
-0.139099
-0.0620491
0.0170306
0.0423022
0.0310969
0.0233101
0.0288214
0.0333991
8.26468e-06
-0.0788292
-0.100896
-0.0471342
0.00931588
0.0378512
0.0203623
-0.0105924
-0.0434164
-0.0683109
-0.0492205
-0.013436
-0.0024069
-0.00192914
-0.00405299
-0.00737311
-0.00308998
-0.00137744
-0.0139448
-0.0332018
-0.0473462
-0.0548361
-0.0525632
-0.0321687
-0.00574627
0.0101512
0.0131114
0.00899252
0.0042142
0.00455199
0.00344916
-0.00523002
-0.0188281
-0.0275691
-0.0208388
-0.00302507
0.0096317
0.0105867
0.00514393
-0.00267802
-0.00967515
-0.0111076
-0.00563597
0.000888162
0.00293995
-9.20795e-05
-0.00498398
-0.00864458
-0.00945535
-0.0079184
-0.00560061
-0.00363966
-0.00237267
-0.00166039
-0.00124828
-0.000962614
-0.000702763
-0.000458087
-0.000232439
-6.45607e-05
2.67176e-05
4.0485e-05
-0.124522
-0.126487
-0.127769
-0.128476
-0.134142
-0.133461
-0.134265
-0.135336
-0.126894
-0.122291
-0.117931
-0.111194
-0.111955
-0.112388
-0.116447
-0.132566
-0.13693
-0.124486
-0.113047
-0.0951834
-0.0650944
-0.0501086
-0.0687791
-0.107014
-0.130049
-0.12439
-0.191459
-0.246579
-0.231406
-0.185848
-0.136757
-0.056335
0.023468
0.0463061
0.0342735
0.0259619
0.031103
0.0366526
0.00554784
-0.0725205
-0.0956862
-0.0433388
0.0142516
0.0434106
0.0255046
-0.00710184
-0.0430054
-0.0697216
-0.0499713
-0.0123146
0.000205135
0.00120748
-0.0016317
-0.00536555
-0.00208615
-0.000866593
-0.0133362
-0.0326062
-0.0471174
-0.0546995
-0.0520653
-0.0312485
-0.00458792
0.0115706
0.0149443
0.0107563
0.00562954
0.00551993
0.00402576
-0.00494284
-0.0187338
-0.0274297
-0.0204386
-0.00245005
0.0101619
0.0110764
0.0055086
-0.00259384
-0.00977712
-0.0111846
-0.00552003
0.00115912
0.00327061
0.000186361
-0.00487154
-0.00869888
-0.00957241
-0.00801188
-0.00564548
-0.00364504
-0.00235844
-0.00164213
-0.00123374
-0.000953206
-0.000697399
-0.000455012
-0.000230357
-6.32207e-05
2.83381e-05
4.13979e-05
-0.123659
-0.125215
-0.127931
-0.126146
-0.133375
-0.13218
-0.131863
-0.136138
-0.126776
-0.121852
-0.118448
-0.109122
-0.109454
-0.110594
-0.112933
-0.130527
-0.138615
-0.126365
-0.112597
-0.0939226
-0.0648699
-0.0511345
-0.0691025
-0.105527
-0.128676
-0.125867
-0.189342
-0.241666
-0.22885
-0.183815
-0.133544
-0.0499496
0.0299404
0.049678
0.0369923
0.028271
0.0330394
0.0395275
0.0111943
-0.0656483
-0.08977
-0.0392812
0.0191348
0.0476428
0.029712
-0.00407632
-0.0423313
-0.0702892
-0.0497911
-0.0111311
0.00261402
0.00391629
0.00036633
-0.00381663
-0.00140313
-0.000551323
-0.0127742
-0.0318936
-0.04672
-0.0543899
-0.0513898
-0.0302337
-0.00348583
0.0128196
0.0165231
0.0122024
0.00678833
0.00630225
0.00450185
-0.00463198
-0.018511
-0.027125
-0.019907
-0.00187329
0.0105475
0.0114075
0.00578783
-0.00249876
-0.00979581
-0.0111665
-0.00536807
0.0013778
0.00350411
0.000396069
-0.0047716
-0.0087182
-0.00964321
-0.00807316
-0.00567672
-0.00364897
-0.00234753
-0.00162757
-0.00122169
-0.000945081
-0.000692624
-0.000452245
-0.000228651
-6.2275e-05
2.94486e-05
4.18811e-05
-0.123093
-0.124066
-0.127953
-0.124374
-0.132419
-0.131284
-0.130056
-0.136532
-0.126847
-0.121481
-0.118787
-0.107577
-0.10721
-0.10912
-0.110512
-0.128579
-0.139161
-0.127718
-0.112747
-0.0934608
-0.0655121
-0.0530014
-0.0698053
-0.104376
-0.127705
-0.127821
-0.185767
-0.234988
-0.224928
-0.181424
-0.129539
-0.0430589
0.0362343
0.0523399
0.0392595
0.0302359
0.0346417
0.0419786
0.0166527
-0.0584499
-0.0833258
-0.0350845
0.0236768
0.0505672
0.0328798
-0.00148323
-0.0412541
-0.0700093
-0.0487809
-0.00992444
0.00479136
0.00610127
0.00194285
-0.00271285
-0.00100295
-0.000434637
-0.0122866
-0.0311033
-0.0461806
-0.0539192
-0.0505607
-0.0291739
-0.0024689
0.0139024
0.0178407
0.0133353
0.00770309
0.00689923
0.00486207
-0.00433005
-0.0181882
-0.0266816
-0.0192749
-0.0013171
0.0107946
0.0115995
0.00599014
-0.00239746
-0.00974307
-0.011067
-0.00519255
0.00153781
0.00364806
0.000543237
-0.00468267
-0.00870461
-0.00967192
-0.00810587
-0.00569641
-0.00365232
-0.00234022
-0.00161685
-0.00121235
-0.000938515
-0.000688719
-0.000450023
-0.000227499
-6.18322e-05
2.99621e-05
4.19206e-05
-0.122805
-0.123158
-0.127887
-0.123178
-0.131409
-0.130702
-0.128845
-0.136551
-0.127026
-0.121221
-0.11891
-0.106613
-0.105459
-0.107947
-0.109085
-0.126885
-0.138746
-0.1285
-0.113163
-0.0936449
-0.0665359
-0.0553589
-0.0708313
-0.10338
-0.126994
-0.129902
-0.180944
-0.227143
-0.219996
-0.17876
-0.125042
-0.0356612
0.0421453
0.0542705
0.0410843
0.0318588
0.0359238
0.0439457
0.0216816
-0.0512201
-0.0764987
-0.0309197
0.0276174
0.0524102
0.0349722
0.000661766
-0.0397419
-0.0689832
-0.047144
-0.00871416
0.0066812
0.00769928
0.00310526
-0.00200752
-0.000824266
-0.000494615
-0.0118901
-0.0302858
-0.0455456
-0.0533185
-0.0496274
-0.0281351
-0.00156332
0.0148259
0.0188897
0.0140389
0.00839029
0.00731894
0.00509914
-0.00406857
-0.0178042
-0.0261429
-0.0185904
-0.000812544
0.010918
0.0116905
0.00612441
-0.00229639
-0.0096351
-0.0109081
-0.00501202
0.00163597
0.00371348
0.000634664
-0.00460492
-0.00866415
-0.00966606
-0.00811545
-0.00570728
-0.00365603
-0.00233673
-0.00161006
-0.00120585
-0.000933654
-0.000685801
-0.000448427
-0.000226927
-6.18831e-05
2.99061e-05
4.15634e-05
-0.122715
-0.122549
-0.127745
-0.1225
-0.130478
-0.130342
-0.128168
-0.136257
-0.127223
-0.121096
-0.118836
-0.106208
-0.104342
-0.107098
-0.108456
-0.125553
-0.137697
-0.128764
-0.113653
-0.093707
-0.0676355
-0.0578256
-0.0719399
-0.102578
-0.126425
-0.131784
-0.175431
-0.218991
-0.214698
-0.175958
-0.119946
-0.0279592
0.047342
0.0556213
0.0424871
0.0331456
0.0369033
0.0453717
0.026036
-0.0444714
-0.0690214
-0.0268245
0.0308145
0.0533951
0.036095
0.002308
-0.0379972
-0.0675233
-0.0452181
-0.00751826
0.00818039
0.00878841
0.00387561
-0.00161973
-0.000790281
-0.000684653
-0.0115941
-0.0294989
-0.0448897
-0.0526695
-0.0486791
-0.0272036
-0.000784931
0.0155975
0.0196633
0.0146093
0.00887191
0.00757939
0.00521682
-0.00387175
-0.0174074
-0.0255788
-0.0179255
-0.000395286
0.0109426
0.0117013
0.00620018
-0.00220386
-0.00949612
-0.0107238
-0.00484928
0.00167664
0.00370677
0.00067798
-0.00454018
-0.00860603
-0.00963533
-0.00810826
-0.00571211
-0.0036608
-0.00233699
-0.00160704
-0.00120206
-0.00093042
-0.000683791
-0.000447376
-0.00022681
-6.2307e-05
2.941e-05
4.09122e-05
-0.122719
-0.122246
-0.127502
-0.122249
-0.129742
-0.130099
-0.127922
-0.13576
-0.127347
-0.121111
-0.118642
-0.106275
-0.103859
-0.106584
-0.108383
-0.124609
-0.136348
-0.128563
-0.113626
-0.0936302
-0.0685586
-0.0600186
-0.0729829
-0.101975
-0.125814
-0.133246
-0.170091
-0.211292
-0.209344
-0.172923
-0.114042
-0.0200305
0.0508712
0.0565986
0.0434975
0.0341059
0.0376024
0.0462314
0.0292677
-0.0385833
-0.0628515
-0.0230083
0.033189
0.0537099
0.0364978
0.0034826
-0.036344
-0.0660187
-0.0433686
-0.00636281
0.00917151
0.00944858
0.00429982
-0.00144239
-0.000823583
-0.000938296
-0.0114081
-0.0288107
-0.0442626
-0.0520371
-0.0478021
-0.0264359
-0.000126509
0.0162124
0.0201613
0.0149678
0.00917526
0.00770832
0.00523222
-0.00375109
-0.0170465
-0.0250687
-0.0173559
-8.97679e-05
0.0109003
0.0116561
0.00622765
-0.00212815
-0.00935329
-0.0105475
-0.00472098
0.00167319
0.00366124
0.000682943
-0.00449125
-0.00854123
-0.0095906
-0.00809071
-0.00571314
-0.00366671
-0.0023404
-0.00160715
-0.00120051
-0.000928502
-0.000682453
-0.000446673
-0.000226931
-6.29056e-05
2.86755e-05
4.01128e-05
-0.122729
-0.12221
-0.127195
-0.122356
-0.129261
-0.129893
-0.127978
-0.135197
-0.127351
-0.121241
-0.118409
-0.10666
-0.10387
-0.106363
-0.108629
-0.124025
-0.13502
-0.128013
-0.113298
-0.0933741
-0.0691354
-0.0617018
-0.073885
-0.101579
-0.125098
-0.134181
-0.16589
-0.204801
-0.204305
-0.169387
-0.108189
-0.0132176
0.0529454
0.0571701
0.044142
0.0347399
0.0380193
0.0465762
0.030961
-0.0338143
-0.0578675
-0.0197034
0.0346882
0.0536491
0.036514
0.00426608
-0.034905
-0.06455
-0.0417306
-0.00533583
0.00964601
0.00975575
0.00445979
-0.001368
-0.000846974
-0.00118391
-0.0113372
-0.0282882
-0.0437332
-0.0514718
-0.0470571
-0.0257784
0.000405972
0.0166402
0.0204156
0.0151528
0.00933735
0.00774389
0.0051751
-0.00370633
-0.0167577
-0.0246636
-0.0169255
0.000106296
0.0108248
0.0115756
0.00621768
-0.00207625
-0.00922783
-0.0103971
-0.0046283
0.00164609
0.00359887
0.00066157
-0.00446095
-0.00848164
-0.00954295
-0.00806871
-0.00571165
-0.00367285
-0.00234552
-0.00160921
-0.00120044
-0.000927445
-0.000681497
-0.000446097
-0.000227041
-6.34446e-05
2.79499e-05
3.93408e-05
-0.122702
-0.12235
-0.126905
-0.122744
-0.129035
-0.129708
-0.128188
-0.134737
-0.127247
-0.12142
-0.118203
-0.106891
-0.104107
-0.106341
-0.109001
-0.123744
-0.133991
-0.127498
-0.112891
-0.0929969
-0.0693426
-0.0626314
-0.0746452
-0.101361
-0.124455
-0.134587
-0.163519
-0.200372
-0.200508
-0.166805
-0.104072
-0.00881556
0.0539225
0.0573579
0.0444676
0.035038
0.0381627
0.0465258
0.0315361
-0.0309536
-0.0544565
-0.0174325
0.0356399
0.0535334
0.0364178
0.0046586
-0.0338585
-0.0632114
-0.0404399
-0.00465656
0.00973224
0.00980531
0.00446797
-0.00132578
-0.000838408
-0.00136842
-0.0113767
-0.0280104
-0.0434093
-0.0510529
-0.0464857
-0.0252344
0.000730638
0.0168501
0.0204818
0.0152062
0.00940462
0.00773631
0.00508426
-0.00373313
-0.016576
-0.0243868
-0.0166392
0.000221175
0.0107496
0.0114972
0.00618133
-0.00205728
-0.00913873
-0.0102859
-0.0045612
0.00161979
0.00354038
0.000626537
-0.00445246
-0.00844063
-0.00950407
-0.00804751
-0.00570765
-0.00367681
-0.00234976
-0.00161136
-0.00120073
-0.000926698
-0.000680607
-0.000445398
-0.000226846
-6.36225e-05
2.75627e-05
3.88259e-05
-0.122633
-0.122564
-0.12672
-0.122891
-0.129025
-0.129593
-0.128432
-0.134552
-0.127083
-0.121586
-0.118092
-0.106964
-0.104399
-0.106461
-0.109363
-0.123712
-0.13351
-0.127173
-0.112539
-0.0926083
-0.0691976
-0.0630151
-0.0752161
-0.101351
-0.124077
-0.134838
-0.163099
-0.19854
-0.198654
-0.165543
-0.102115
-0.00697592
0.0542691
0.0573699
0.0445629
0.0352064
0.03825
0.0463153
0.0308697
-0.0300477
-0.0528499
-0.0162354
0.036198
0.0535373
0.0361556
0.0045504
-0.0335055
-0.0625099
-0.0396507
-0.00437555
0.00963159
0.00966213
0.00438756
-0.00130278
-0.000783139
-0.00145702
-0.0115522
-0.0280384
-0.0433973
-0.0508806
-0.0461875
-0.024909
0.000916764
0.01694
0.0204697
0.0151628
0.00941351
0.00772555
0.00497538
-0.00384467
-0.0165643
-0.0242503
-0.0164529
0.000304263
0.0107237
0.011448
0.00611884
-0.00208719
-0.00910854
-0.0102203
-0.0045022
0.00162107
0.00350764
0.000583899
-0.00447262
-0.00843171
-0.00948588
-0.00802956
-0.00569859
-0.00367427
-0.00234931
-0.00161105
-0.00119999
-0.000925504
-0.000679257
-0.000444104
-0.000225827
-6.29387e-05
2.80176e-05
3.89085e-05
-0.13276
-0.132097
-0.134551
-0.133901
-0.136465
-0.136214
-0.135249
-0.134199
-0.130848
-0.130711
-0.131723
-0.130623
-0.135209
-0.139715
-0.141298
-0.141665
-0.138692
-0.144543
-0.160196
-0.168896
-0.170572
-0.153863
-0.118877
-0.0518061
-0.0115559
-0.033322
-0.0558372
-0.0526937
-0.0419563
-0.0371943
-0.0216807
0.00253631
-0.0030789
-0.0409947
-0.0500247
-0.0276959
0.00906316
0.0555151
0.0637302
0.0376333
0.0223176
0.0269315
0.0185527
-0.0165685
-0.0560961
-0.0637497
-0.0391426
-0.00105471
0.00687408
-0.00334248
-0.0281921
-0.0479266
-0.0557663
-0.046437
-0.0129853
0.0224124
0.0310938
0.023081
0.0141049
0.00591482
-0.0023733
-0.00495004
-0.00682301
-0.0156403
-0.0285228
-0.0377221
-0.0336547
-0.0146032
0.00737354
0.0203655
0.0202075
0.0134731
0.0064462
-0.000837035
-0.0104809
-0.0152951
-0.00884907
0.000599563
0.00485788
0.0033439
-0.000499154
-0.00489104
-0.0087857
-0.0102925
-0.00863596
-0.0058726
-0.00392827
-0.00322647
-0.00312773
-0.00303051
-0.00271007
-0.00221814
-0.001674
-0.00117661
-0.000756841
-0.000428765
-0.000180586
-1.97913e-05
5.51988e-05
4.87614e-05
-0.132754
-0.132047
-0.134543
-0.133907
-0.136462
-0.136269
-0.135271
-0.134238
-0.130855
-0.130683
-0.131692
-0.130519
-0.135161
-0.139938
-0.141647
-0.141888
-0.138588
-0.14417
-0.160603
-0.169645
-0.171411
-0.154683
-0.120383
-0.052695
-0.0109159
-0.0331421
-0.0565713
-0.0533284
-0.0420354
-0.0372087
-0.0217306
0.0028717
-0.00236886
-0.0415468
-0.0509363
-0.0286009
0.00811845
0.0545716
0.0638936
0.0375382
0.0222004
0.0270096
0.0191048
-0.0166544
-0.056634
-0.0645576
-0.040025
-0.00141622
0.00689003
-0.0030437
-0.0281799
-0.0481744
-0.0561061
-0.0470006
-0.0136008
0.0220709
0.0309142
0.0230686
0.0141421
0.00601352
-0.00235896
-0.00496103
-0.00671213
-0.0155043
-0.0285083
-0.0378551
-0.0339374
-0.0148573
0.00721766
0.0203542
0.0202544
0.013517
0.00649069
-0.000768484
-0.010489
-0.015386
-0.00893309
0.000574098
0.00489326
0.00338476
-0.000472967
-0.00487296
-0.00878978
-0.0103166
-0.00866246
-0.00588281
-0.00392585
-0.00322311
-0.00312709
-0.00303229
-0.00271278
-0.00222057
-0.00167595
-0.00117823
-0.000758219
-0.00042995
-0.000181513
-2.04226e-05
5.4756e-05
4.86746e-05
-0.13274
-0.131985
-0.134531
-0.133913
-0.13649
-0.13638
-0.135321
-0.134291
-0.130835
-0.130603
-0.131653
-0.130374
-0.135076
-0.140318
-0.142345
-0.142338
-0.138306
-0.146032
-0.16408
-0.172005
-0.172876
-0.15632
-0.122667
-0.0540965
-0.0101478
-0.0328253
-0.057799
-0.0546358
-0.0424078
-0.0373525
-0.0217435
0.00344603
-0.0025008
-0.0425994
-0.0526322
-0.0302087
0.00620586
0.0519177
0.063595
0.0367394
0.02193
0.0274837
0.0194025
-0.0176005
-0.0583109
-0.0664359
-0.0414911
-0.00237263
0.00701032
-0.00318293
-0.0289287
-0.0490073
-0.0568083
-0.0479717
-0.0145826
0.0213128
0.0304647
0.0226239
0.0138435
0.00583692
-0.00245809
-0.00497026
-0.00660119
-0.0154987
-0.0287057
-0.0382109
-0.0344286
-0.0152866
0.0068773
0.0202777
0.0202687
0.0134743
0.00645916
-0.000765397
-0.0105717
-0.0155728
-0.00905532
0.000586035
0.0049728
0.00343034
-0.000459679
-0.00487509
-0.00882143
-0.0103671
-0.0086963
-0.00588523
-0.00391446
-0.00321603
-0.00312744
-0.00303611
-0.00271594
-0.00222244
-0.00167673
-0.00117861
-0.000758408
-0.000430102
-0.000181433
-2.01331e-05
5.51679e-05
4.9213e-05
-0.132717
-0.131898
-0.134515
-0.133918
-0.136548
-0.136558
-0.135399
-0.134365
-0.130779
-0.130487
-0.131579
-0.130179
-0.13501
-0.140925
-0.143451
-0.142946