/*--------------------------------*- C++ -*----------------------------------*\
| =========                 |                                                 |
| \\      /  F ield         | OpenFOAM: The Open Source CFD Toolbox           |
|  \\    /   O peration     | Version:  2.4.0                                 |
|   \\  /    A nd           | Web:      www.OpenFOAM.org                      |
|    \\/     M anipulation  |                                                 |
\*---------------------------------------------------------------------------*/
FoamFile
{
    version     2.0;
    format      ascii;
    class       surfaceScalarField;
    location    "1.17";
    object      phi_0;
}
// * * * * * * * * * * * * * * * * * * * * * * * * * * * * * * * * * * * * * //

dimensions      [0 3 -1 0 0 0 0];

internalField   nonuniform List<scalar> 
17320
(
1.76383e-05
7.36167e-06
1.16203e-05
6.01804e-06
8.68274e-06
2.93756e-06
7.35157e-06
1.33117e-06
6.72233e-06
6.29237e-07
6.34548e-06
3.76852e-07
6.06879e-06
2.76691e-07
5.87464e-06
1.94145e-07
5.71588e-06
1.58768e-07
5.57364e-06
1.42231e-07
5.47244e-06
1.01208e-07
5.40878e-06
6.36608e-08
5.29816e-06
1.10613e-07
5.22049e-06
7.76724e-08
5.14148e-06
7.90145e-08
5.09515e-06
4.63308e-08
4.96512e-06
1.30028e-07
5.00636e-06
-4.1247e-08
4.7987e-06
2.07667e-07
-4.62804e-07
5.2615e-06
2.54632e-05
6.89851e-06
2.32525e-05
8.22866e-06
2.099e-05
5.20013e-06
1.93142e-05
3.0069e-06
1.80835e-05
1.85997e-06
1.71106e-05
1.34972e-06
1.63589e-05
1.02848e-06
1.57828e-05
7.70186e-07
1.53126e-05
6.28992e-07
1.49248e-05
5.30019e-07
1.46326e-05
3.93397e-07
1.43943e-05
3.01959e-07
1.41351e-05
3.69801e-07
1.39411e-05
2.71725e-07
1.37337e-05
2.86434e-07
1.35852e-05
1.9474e-07
1.33249e-05
3.90418e-07
1.33044e-05
-2.07531e-08
1.31649e-05
3.47078e-07
-4.90842e-07
1.3193e-05
2.66232e-05
5.27535e-06
2.71612e-05
7.69063e-06
2.67814e-05
5.5799e-06
2.62442e-05
3.5441e-06
2.56162e-05
2.48795e-06
2.4869e-05
2.09696e-06
2.41542e-05
1.74329e-06
2.35154e-05
1.40893e-06
2.29369e-05
1.20757e-06
2.24343e-05
1.03262e-06
2.2039e-05
7.88671e-07
2.16924e-05
6.48557e-07
2.13429e-05
7.19335e-07
2.1078e-05
5.36568e-07
2.07984e-05
5.6607e-07
2.05707e-05
4.22416e-07
2.02682e-05
6.92958e-07
2.01485e-05
9.89075e-08
2.0136e-05
3.59539e-07
-8.42828e-07
2.0488e-05
2.63262e-05
3.94915e-06
2.75495e-05
6.46728e-06
2.80913e-05
5.03819e-06
2.84444e-05
3.19099e-06
2.86557e-05
2.27664e-06
2.86246e-05
2.128e-06
2.84673e-05
1.90065e-06
2.8247e-05
1.62924e-06
2.79756e-05
1.47892e-06
2.76807e-05
1.32754e-06
2.74355e-05
1.03382e-06
2.71833e-05
9.00816e-07
2.69039e-05
9.98732e-07
2.66713e-05
7.69162e-07
2.64453e-05
7.92089e-07
2.61899e-05
6.77826e-07
2.5959e-05
9.23834e-07
2.56863e-05
3.71614e-07
2.55512e-05
4.94645e-07
-4.74084e-07
2.51824e-05
2.6033e-05
2.91615e-06
2.72522e-05
5.24805e-06
2.80624e-05
4.22804e-06
2.85034e-05
2.74996e-06
2.89703e-05
1.80976e-06
2.93239e-05
1.77439e-06
2.95811e-05
1.64343e-06
2.97363e-05
1.47411e-06
2.98603e-05
1.35484e-06
2.9908e-05
1.27986e-06
2.99614e-05
9.80438e-07
2.99691e-05
8.93099e-07
2.99612e-05
1.00664e-06
2.99033e-05
8.27097e-07
2.99087e-05
7.86633e-07
2.97704e-05
8.16202e-07
2.97327e-05
9.61443e-07
2.94549e-05
6.49499e-07
2.93148e-05
6.34737e-07
8.70164e-08
2.87537e-05
2.58215e-05
2.09467e-06
2.69539e-05
4.11566e-06
2.7834e-05
3.3479e-06
2.82527e-05
2.33121e-06
2.87056e-05
1.35693e-06
2.90789e-05
1.40108e-06
2.94669e-05
1.2554e-06
2.96922e-05
1.2488e-06
3.00071e-05
1.03994e-06
3.01605e-05
1.12651e-06
3.04143e-05
7.26572e-07
3.05172e-05
7.90207e-07
3.07666e-05
7.57274e-07
3.0778e-05
8.15708e-07
3.10478e-05
5.16804e-07
3.09913e-05
8.72755e-07
3.12172e-05
7.35542e-07
3.09596e-05
9.07043e-07
3.09955e-05
5.98902e-07
8.32175e-07
3.02503e-05
2.56767e-05
1.418e-06
2.67361e-05
3.05627e-06
2.76149e-05
2.4691e-06
2.80606e-05
1.88545e-06
2.84999e-05
9.17641e-07
2.8807e-05
1.09397e-06
2.9211e-05
8.51409e-07
2.94509e-05
1.00888e-06
2.98338e-05
6.57032e-07
2.99315e-05
1.02883e-06
3.02729e-05
3.85162e-07
3.03435e-05
7.19657e-07
3.06998e-05
4.00935e-07
3.07046e-05
8.10958e-07
3.10223e-05
1.99034e-07
3.10337e-05
8.6142e-07
3.13704e-05
3.98783e-07
3.11386e-05
1.1389e-06
3.10284e-05
7.09082e-07
1.74741e-06
3.01132e-05
2.55643e-05
8.53696e-07
2.65567e-05
2.0639e-06
2.74276e-05
1.59817e-06
2.80381e-05
1.27491e-06
2.8352e-05
6.03756e-07
2.86212e-05
8.2478e-07
2.89802e-05
4.9239e-07
2.93443e-05
6.44777e-07
2.96398e-05
3.61537e-07
2.98211e-05
8.47561e-07
3.00401e-05
1.66187e-07
3.02867e-05
4.73042e-07
3.04036e-05
2.83997e-07
3.0644e-05
5.70546e-07
3.07903e-05
5.27843e-08
3.10131e-05
6.38653e-07
3.10993e-05
3.125e-07
3.1455e-05
7.83251e-07
3.18219e-05
3.42141e-07
7.70353e-07
3.2799e-05
2.54624e-05
3.91331e-07
2.64582e-05
1.06807e-06
2.73392e-05
7.17181e-07
2.79592e-05
6.54877e-07
2.82418e-05
3.21142e-07
2.8527e-05
5.39589e-07
2.88868e-05
1.32617e-07
2.92648e-05
2.6682e-07
2.9438e-05
1.88288e-07
2.97508e-05
5.34729e-07
2.99177e-05
-7.25048e-10
3.01852e-05
2.05571e-07
3.02887e-05
1.8054e-07
3.05104e-05
3.48818e-07
3.06784e-05
-1.15166e-07
3.09697e-05
3.47338e-07
3.10281e-05
2.54027e-07
3.13869e-05
4.24502e-07
3.15898e-05
1.39199e-07
5.92911e-08
3.23009e-05
2.54283e-05
-3.69531e-08
2.64453e-05
5.11036e-08
2.72624e-05
-9.99733e-08
2.78467e-05
7.06208e-08
2.8195e-05
-2.72311e-08
2.85718e-05
1.62788e-07
2.88426e-05
-1.38134e-07
2.91233e-05
-1.3891e-08
2.93867e-05
-7.51075e-08
2.97157e-05
2.05757e-07
2.99164e-05
-2.01413e-07
3.0105e-05
1.69471e-08
3.02568e-05
2.87568e-08
3.04828e-05
1.2273e-07
3.05524e-05
-1.84746e-07
3.08812e-05
1.85858e-08
3.11066e-05
2.86381e-08
3.13526e-05
1.78424e-07
3.16411e-05
-1.49227e-07
-1.21911e-07
3.18223e-05
2.54179e-05
-4.54903e-07
2.64537e-05
-9.84642e-07
2.72497e-05
-8.9601e-07
2.78578e-05
-5.37481e-07
2.82236e-05
-3.93021e-07
2.85933e-05
-2.06883e-07
2.87845e-05
-3.29309e-07
2.91177e-05
-3.47096e-07
2.942e-05
-3.77438e-07
2.97652e-05
-1.39435e-07
2.98314e-05
-2.67588e-07
3.0101e-05
-2.52679e-07
3.02242e-05
-9.44582e-08
3.04832e-05
-1.36245e-07
3.06189e-05
-3.20506e-07
3.08166e-05
-1.79095e-07
3.10959e-05
-2.50625e-07
3.14507e-05
-1.76401e-07
3.15788e-05
-2.77334e-07
-2.60958e-07
3.17179e-05
2.54519e-05
-9.06825e-07
2.64942e-05
-2.02688e-06
2.73289e-05
-1.73076e-06
2.79302e-05
-1.13877e-06
2.82442e-05
-7.07059e-07
2.85815e-05
-5.44129e-07
2.88522e-05
-6.00013e-07
2.92278e-05
-7.22713e-07
2.94791e-05
-6.28712e-07
2.97558e-05
-4.16202e-07
2.99125e-05
-4.24254e-07
3.01449e-05
-4.85077e-07
3.03341e-05
-2.83612e-07
3.0535e-05
-3.37196e-07
3.06691e-05
-4.54585e-07
3.0925e-05
-4.35032e-07
3.10826e-05
-4.08143e-07
3.14082e-05
-5.02069e-07
3.16973e-05
-5.66384e-07
-4.65929e-07
3.19022e-05
2.55399e-05
-1.44673e-06
2.65892e-05
-3.07617e-06
2.74276e-05
-2.5692e-06
2.80239e-05
-1.73499e-06
2.83138e-05
-9.96962e-07
2.86799e-05
-9.10293e-07
2.89902e-05
-9.10308e-07
2.93427e-05
-1.07524e-06
2.95741e-05
-8.60101e-07
2.98381e-05
-6.80149e-07
3.00337e-05
-6.19877e-07
3.02884e-05
-7.39776e-07
3.03836e-05
-3.78803e-07
3.06167e-05
-5.7025e-07
3.07916e-05
-6.29525e-07
3.10315e-05
-6.7493e-07
3.12353e-05
-6.11912e-07
3.15419e-05
-8.08748e-07
3.17746e-05
-7.99011e-07
-7.2396e-07
3.20326e-05
2.56734e-05
-2.12017e-06
2.67502e-05
-4.15293e-06
2.75926e-05
-3.41162e-06
2.80498e-05
-2.19213e-06
2.84612e-05
-1.40844e-06
2.88664e-05
-1.31548e-06
2.91922e-05
-1.23613e-06
2.95018e-05
-1.38474e-06
2.97402e-05
-1.0986e-06
3.00057e-05
-9.45588e-07
3.02059e-05
-8.20063e-07
3.04227e-05
-9.56579e-07
3.0569e-05
-5.25091e-07
3.07971e-05
-7.98418e-07
3.09648e-05
-7.97239e-07
3.11913e-05
-9.01358e-07
3.13381e-05
-7.58701e-07
3.16523e-05
-1.12296e-06
3.18891e-05
-1.03586e-06
-1.03507e-06
3.22002e-05
2.58449e-05
-2.96502e-06
2.69619e-05
-5.27001e-06
2.77899e-05
-4.23955e-06
2.82199e-05
-2.62222e-06
2.87081e-05
-1.89658e-06
2.91137e-05
-1.72108e-06
2.94568e-05
-1.57922e-06
2.97301e-05
-1.6581e-06
2.99702e-05
-1.33862e-06
3.01614e-05
-1.13684e-06
3.03715e-05
-1.0302e-06
3.05364e-05
-1.12149e-06
3.07055e-05
-6.94171e-07
3.08573e-05
-9.50173e-07
3.09727e-05
-9.12627e-07
3.11044e-05
-1.03308e-06
3.11879e-05
-8.42182e-07
3.14013e-05
-1.33642e-06
3.15435e-05
-1.17803e-06
-1.34362e-06
3.18521e-05
2.60441e-05
-4.00911e-06
2.72273e-05
-6.45327e-06
2.80042e-05
-5.01643e-06
2.8503e-05
-3.12104e-06
2.89932e-05
-2.38677e-06
2.93354e-05
-2.06327e-06
2.95991e-05
-1.84292e-06
2.97232e-05
-1.78219e-06
2.98313e-05
-1.44674e-06
2.98917e-05
-1.19723e-06
2.99591e-05
-1.09757e-06
2.99374e-05
-1.09977e-06
2.99727e-05
-7.29523e-07
2.99179e-05
-8.95329e-07
2.98651e-05
-8.59894e-07
2.97807e-05
-9.48629e-07
2.96983e-05
-7.59821e-07
2.96273e-05
-1.26539e-06
2.95515e-05
-1.1022e-06
-1.42936e-06
2.96372e-05
2.63054e-05
-5.31456e-06
2.75273e-05
-7.67514e-06
2.80718e-05
-5.56094e-06
2.84666e-05
-3.51582e-06
2.8639e-05
-2.55911e-06
2.86238e-05
-2.04809e-06
2.84838e-05
-1.70295e-06
2.82129e-05
-1.5113e-06
2.79536e-05
-1.18746e-06
2.76991e-05
-9.4267e-07
2.74299e-05
-8.28432e-07
2.71335e-05
-8.03295e-07
2.69346e-05
-5.30669e-07
2.66572e-05
-6.17937e-07
2.64063e-05
-6.08963e-07
2.61328e-05
-6.75118e-07
2.59044e-05
-5.31483e-07
2.55631e-05
-9.24073e-07
2.53228e-05
-8.61913e-07
-1.28998e-06
2.51835e-05
2.66035e-05
-6.91806e-06
2.71525e-05
-8.22413e-06
2.67785e-05
-5.18698e-06
2.62544e-05
-2.99169e-06
2.55916e-05
-1.8963e-06
2.48749e-05
-1.33142e-06
2.41656e-05
-9.93628e-07
2.34866e-05
-8.32308e-07
2.29246e-05
-6.25408e-07
2.24562e-05
-4.74275e-07
2.20305e-05
-4.02758e-07
2.16436e-05
-4.16382e-07
2.13677e-05
-2.5482e-07
2.10533e-05
-3.0354e-07
2.07674e-05
-3.23083e-07
2.04642e-05
-3.71858e-07
2.02144e-05
-2.81718e-07
1.97931e-05
-5.02796e-07
1.94242e-05
-4.93014e-07
-4.53034e-07
1.85873e-05
2.54495e-05
-7.36756e-06
2.32435e-05
-6.01814e-06
2.0988e-05
-2.93143e-06
1.93209e-05
-1.32461e-06
1.80679e-05
-6.43336e-07
1.71123e-05
-3.75819e-07
1.6372e-05
-2.53261e-07
1.57619e-05
-2.22246e-07
1.53004e-05
-1.63899e-07
1.49415e-05
-1.15361e-07
1.46338e-05
-9.51213e-08
1.43441e-05
-1.26635e-07
1.41494e-05
-6.01298e-08
1.39255e-05
-7.96046e-08
1.37043e-05
-1.01928e-07
1.34594e-05
-1.26978e-07
1.32585e-05
-8.07845e-08
1.29244e-05
-1.68733e-07
1.26506e-05
-2.19148e-07
-6.69893e-08
1.22645e-05
1.76324e-05
1.16143e-05
8.68287e-06
7.35826e-06
6.71492e-06
6.3391e-06
6.08584e-06
5.8636e-06
5.6997e-06
5.58434e-06
5.48922e-06
5.36258e-06
5.30245e-06
5.22285e-06
5.12092e-06
4.99394e-06
4.91315e-06
4.74442e-06
4.52527e-06
4.45828e-06
5.72258e-06
-2.19538e-07
-2.41536e-07
6.21004e-06
-9.8389e-09
-4.77622e-07
6.51305e-06
7.30625e-08
-3.76074e-07
6.74259e-06
5.57423e-09
-2.35116e-07
6.91942e-06
-9.79798e-08
-7.88528e-08
7.0757e-06
-1.87739e-07
3.14565e-08
7.23166e-06
-2.2518e-07
6.92217e-08
7.37941e-06
-2.22648e-07
7.48981e-08
7.52438e-06
-1.90989e-07
4.60239e-08
7.66108e-06
-1.41491e-07
4.78341e-09
7.79119e-06
-1.0032e-07
-2.97908e-08
7.91927e-06
-5.68857e-08
-7.1189e-08
8.04145e-06
-3.58407e-08
-8.63419e-08
8.17046e-06
-1.47813e-08
-1.14232e-07
8.28764e-06
-1.59745e-08
-1.01197e-07
8.41252e-06
-2.44871e-08
-1.00395e-07
8.52892e-06
-2.9971e-08
-8.6427e-08
8.63963e-06
-4.03596e-08
-7.03537e-08
8.74199e-06
-5.06223e-08
-5.17384e-08
8.84107e-06
-5.79934e-08
-4.10882e-08
8.93612e-06
-6.32048e-08
-3.1848e-08
9.02469e-06
-6.17324e-08
-2.68365e-08
9.11045e-06
-6.16128e-08
-2.41462e-08
9.19292e-06
-6.35255e-08
-1.89458e-08
9.26996e-06
-5.98735e-08
-1.71623e-08
9.34196e-06
-5.83801e-08
-1.36175e-08
9.40819e-06
-6.48665e-08
-1.36396e-09
9.46471e-06
-6.4226e-08
7.70569e-09
9.51109e-06
-6.54975e-08
1.91191e-08
9.55064e-06
-6.4427e-08
2.48775e-08
9.57994e-06
-4.47516e-08
1.54429e-08
9.60607e-06
-2.66697e-08
5.40648e-10
9.62557e-06
1.59358e-08
-3.54345e-08
9.65349e-06
7.04736e-08
-9.83953e-08
9.69595e-06
1.41607e-07
-1.84067e-07
9.76172e-06
2.39921e-07
-3.05684e-07
9.86327e-06
3.34167e-07
-4.35716e-07
1.00179e-05
4.45789e-07
-6.00375e-07
1.02212e-05
5.37843e-07
-7.41242e-07
1.04731e-05
5.90358e-07
-8.42172e-07
1.07769e-05
5.97243e-07
-9.0107e-07
1.10611e-05
5.29337e-07
-8.13523e-07
1.12913e-05
3.62637e-07
-5.92813e-07
1.14531e-05
1.23804e-07
-2.85613e-07
1.15134e-05
-9.93022e-08
3.89326e-08
1.15217e-05
-3.4823e-07
3.39978e-07
1.14875e-05
-5.48848e-07
5.83058e-07
1.14297e-05
-6.88459e-07
7.46201e-07
1.14028e-05
-8.02726e-07
8.29614e-07
1.1387e-05
-8.15597e-07
8.31481e-07
1.14072e-05
-8.48622e-07
8.28423e-07
1.14579e-05
-8.46784e-07
7.95996e-07
1.15102e-05
-8.32882e-07
7.80638e-07
1.15666e-05
-8.48093e-07
7.91714e-07
1.15956e-05
-8.15954e-07
7.86927e-07
1.16234e-05
-7.8635e-07
7.58576e-07
1.16672e-05
-7.2164e-07
6.77861e-07
1.17032e-05
-6.18646e-07
5.82623e-07
1.17552e-05
-5.43255e-07
4.91268e-07
1.17737e-05
-3.59974e-07
3.41469e-07
1.18323e-05
-2.34072e-07
1.75429e-07
1.18823e-05
-3.63929e-08
-1.36378e-08
1.20115e-05
1.49056e-07
-2.78264e-07
1.21999e-05
4.14659e-07
-6.03033e-07
1.23895e-05
5.68918e-07
-7.58458e-07
1.2667e-05
6.98984e-07
-9.76489e-07
1.29906e-05
9.70814e-07
-1.29449e-06
1.35097e-05
8.93669e-07
-1.41276e-06
1.41571e-05
1.06125e-06
-1.70865e-06
1.48769e-05
9.96589e-07
-1.7163e-06
1.56454e-05
6.99403e-07
-1.46796e-06
1.61799e-05
5.21896e-07
-1.05641e-06
1.66085e-05
-3.48802e-09
-4.25074e-07
1.709e-05
-4.26789e-07
-5.4721e-08
1.74604e-05
-8.01432e-07
4.30984e-07
1.77731e-05
-1.37292e-06
1.06024e-06
1.8248e-05
-1.71724e-06
1.24236e-06
1.86031e-05
-2.27991e-06
1.92484e-06
1.90265e-05
-2.79634e-06
2.37291e-06
1.95242e-05
-3.19239e-06
2.6947e-06
2.00084e-05
-3.96592e-06
3.48174e-06
2.05192e-05
-4.45484e-06
3.944e-06
2.1331e-05
-5.22992e-06
4.41817e-06
2.21328e-05
-6.04027e-06
5.23845e-06
2.30426e-05
-7.03003e-06
6.12023e-06
2.36599e-05
-8.03796e-06
7.4207e-06
2.39969e-05
-8.78674e-06
8.44974e-06
2.42506e-05
-9.74294e-06
9.4892e-06
2.41518e-05
-1.07494e-05
1.08482e-05
2.3798e-05
-1.08004e-05
1.11542e-05
2.31586e-05
-1.07299e-05
1.13694e-05
2.25116e-05
-1.01042e-05
1.07512e-05
2.158e-05
-9.19094e-06
1.01226e-05
2.10756e-05
-8.27954e-06
8.78394e-06
1.99625e-05
-6.13459e-06
7.24764e-06
1.91967e-05
-4.83449e-06
5.60037e-06
1.8944e-05
-2.89657e-06
3.14923e-06
1.79513e-05
-5.41021e-07
1.53373e-06
1.60973e-05
7.4346e-07
1.11049e-06
1.48651e-05
2.46706e-06
-1.23486e-06
1.52368e-05
3.93546e-06
-4.30713e-06
1.69165e-05
5.9941e-06
-7.67377e-06
1.87844e-05
8.57525e-06
-1.04432e-05
2.0584e-05
8.98698e-06
-1.07866e-05
2.1836e-05
9.18031e-06
-1.04323e-05
2.30352e-05
8.71886e-06
-9.91801e-06
2.40443e-05
6.92582e-06
-7.93498e-06
2.48805e-05
5.90858e-06
-6.74477e-06
2.56307e-05
4.1519e-06
-4.90203e-06
2.62944e-05
1.85064e-06
-2.51439e-06
2.70565e-05
2.77752e-07
-1.03982e-06
2.78496e-05
-1.91613e-06
1.12304e-06
2.8429e-05
-3.88826e-06
3.3088e-06
2.93783e-05
-6.03495e-06
5.08566e-06
3.01593e-05
-8.18346e-06
7.40246e-06
3.10449e-05
-1.01934e-05
9.30783e-06
3.19648e-05
-1.24093e-05
1.14894e-05
3.27834e-05
-1.44396e-05
1.3621e-05
3.35893e-05
-1.61295e-05
1.53237e-05
3.41881e-05
-1.78268e-05
1.72279e-05
3.42375e-05
-1.88587e-05
1.88093e-05
3.3927e-05
-1.93166e-05
1.96272e-05
3.31775e-05
-1.96476e-05
2.03971e-05
3.19215e-05
-1.90814e-05
2.03374e-05
3.09452e-05
-1.87e-05
1.96763e-05
3.0063e-05
-1.85355e-05
1.94177e-05
2.90919e-05
-1.77617e-05
1.87328e-05
2.8412e-05
-1.72687e-05
1.79486e-05
2.77358e-05
-1.69648e-05
1.7641e-05
2.64834e-05
-1.61968e-05
1.74491e-05
2.5115e-05
-1.52902e-05
1.66586e-05
2.39505e-05
-1.5047e-05
1.62115e-05
2.22025e-05
-1.42459e-05
1.59939e-05
2.00439e-05
-1.29482e-05
1.51068e-05
1.86736e-05
-1.24912e-05
1.38615e-05
1.85397e-05
-1.29516e-05
1.30855e-05
1.93136e-05
-1.3888e-05
1.31141e-05
2.03674e-05
-1.43957e-05
1.33419e-05
2.12483e-05
-1.43859e-05
1.35049e-05
2.20164e-05
-1.39539e-05
1.31858e-05
2.28319e-05
-1.27781e-05
1.19627e-05
2.35991e-05
-1.14411e-05
1.06739e-05
2.43012e-05
-9.6253e-06
8.92322e-06
2.49871e-05
-7.27254e-06
6.58659e-06
2.54346e-05
-4.85168e-06
4.40417e-06
2.58774e-05
-2.13524e-06
1.69249e-06
2.62238e-05
7.81032e-07
-1.12749e-06
2.63981e-05
3.6468e-06
-3.82106e-06
2.64317e-05
6.55135e-06
-6.58491e-06
2.63496e-05
9.20466e-06
-9.12259e-06
2.60858e-05
1.16434e-05
-1.13796e-05
2.55936e-05
1.37958e-05
-1.33036e-05
2.476e-05
1.56071e-05
-1.47735e-05
2.37173e-05
1.68335e-05
-1.57908e-05
2.29995e-05
1.7337e-05
-1.66192e-05
2.27819e-05
1.79778e-05
-1.77602e-05
2.30202e-05
1.91665e-05
-1.94047e-05
2.29514e-05
2.09608e-05
-2.0892e-05
2.21286e-05
2.18333e-05
-2.10105e-05
2.1364e-05
2.12795e-05
-2.0515e-05
2.09565e-05
2.06969e-05
-2.02893e-05
2.10814e-05
2.10683e-05
-2.11933e-05
2.1164e-05
2.22146e-05
-2.22972e-05
2.07016e-05
2.22268e-05
-2.17644e-05
2.01129e-05
2.13333e-05
-2.07447e-05
1.95877e-05
2.03912e-05
-1.98659e-05
1.91912e-05
1.9596e-05
-1.91996e-05
1.88726e-05
1.84888e-05
-1.81702e-05
1.84817e-05
1.72807e-05
-1.68898e-05
1.81255e-05
1.58421e-05
-1.54859e-05
1.76688e-05
1.46262e-05
-1.41695e-05
1.72413e-05
1.3203e-05
-1.27755e-05
1.72314e-05
1.17113e-05
-1.17013e-05
1.68227e-05
1.11097e-05
-1.0701e-05
1.70367e-05
8.72238e-06
-8.93637e-06
1.65153e-05
8.69971e-06
-8.17832e-06
1.64698e-05
5.79048e-06
-5.74504e-06
1.52391e-05
5.64844e-06
-4.41771e-06
1.58238e-05
2.08696e-06
-2.67164e-06
1.50415e-05
3.27255e-06
-2.49027e-06
1.58153e-05
-1.28875e-06
5.14928e-07
1.50002e-05
8.2312e-07
-8.0179e-09
1.59387e-05
-3.57498e-06
2.6365e-06
1.49593e-05
-1.83409e-06
2.81348e-06
1.59718e-05
-5.08435e-06
4.07187e-06
1.54691e-05
-2.32594e-06
2.82865e-06
1.68687e-05
-4.17559e-06
2.77597e-06
1.61431e-05
-1.01386e-06
1.73943e-06
1.60858e-05
-1.16858e-06
1.22595e-06
1.55216e-05
1.23462e-06
-6.70464e-07
1.64285e-05
3.56615e-07
-1.26349e-06
1.69136e-05
3.13958e-06
-3.62472e-06
1.77415e-05
3.35107e-06
-4.17896e-06
1.61759e-05
6.16413e-06
-4.59851e-06
1.41839e-05
5.06359e-06
-3.07154e-06
1.06428e-05
7.73408e-06
-4.19297e-06
8.30585e-06
6.21382e-06
-3.87691e-06
7.45478e-06
9.9367e-06
-9.08564e-06
1.11689e-05
6.9891e-06
-1.07032e-05
1.79189e-05
-1.85774e-05
1.18274e-05
1.32326e-05
-2.59113e-07
1.33256e-05
-1.02868e-07
1.34132e-05
-1.45692e-08
1.34608e-05
-4.20177e-08
1.35012e-05
-1.38336e-07
1.35573e-05
-2.43877e-07
1.36529e-05
-3.20739e-07
1.37594e-05
-3.29203e-07
1.38485e-05
-2.80023e-07
1.39255e-05
-2.18539e-07
1.39936e-05
-1.68391e-07
1.40631e-05
-1.26424e-07
1.41292e-05
-1.01883e-07
1.41972e-05
-8.27823e-08
1.42614e-05
-8.02497e-08
1.43329e-05
-9.59096e-08
1.44012e-05
-9.83548e-08
1.44699e-05
-1.09072e-07
1.45371e-05
-1.17777e-07
1.45944e-05
-1.15272e-07
1.46568e-05
-1.2566e-07
1.47117e-05
-1.16632e-07
1.4763e-05
-1.12861e-07
1.48154e-05
-1.15943e-07
1.48609e-05
-1.05335e-07
1.49013e-05
-9.87991e-08
1.49435e-05
-1.07133e-07
1.49734e-05
-9.41099e-08
1.49968e-05
-8.88578e-08
1.50244e-05
-9.20455e-08
1.50307e-05
-5.10514e-08
1.50476e-05
-4.35602e-08
1.50535e-05
9.99281e-09
1.50619e-05
6.2092e-08
1.50853e-05
1.18179e-07
1.51144e-05
2.10906e-07
1.51853e-05
2.63219e-07
1.52734e-05
3.5772e-07
1.54169e-05
3.94354e-07
1.55757e-05
4.31489e-07
1.57628e-05
4.10165e-07
1.59658e-05
3.26369e-07
1.61106e-05
2.17795e-07
1.62405e-05
-6.06592e-09
1.63101e-05
-1.68912e-07
1.63569e-05
-3.94976e-07
1.63891e-05
-5.8113e-07
1.63818e-05
-6.81167e-07
1.64279e-05
-8.48825e-07
1.64538e-05
-8.41452e-07
1.65312e-05
-9.2604e-07
1.66116e-05
-9.27171e-07
1.66756e-05
-8.96901e-07
1.67598e-05
-9.32319e-07
1.67996e-05
-8.55727e-07
1.68525e-05
-8.39245e-07
1.68907e-05
-7.5978e-07
1.68954e-05
-6.23363e-07
1.69408e-05
-5.88662e-07
1.69149e-05
-3.34082e-07
1.69697e-05
-2.88848e-07
1.6991e-05
-5.77653e-08
1.70421e-05
9.80146e-08
1.71879e-05
2.68875e-07
1.72746e-05
4.82169e-07
1.74746e-05
4.9902e-07
1.77319e-05
7.13507e-07
1.79741e-05
6.51409e-07
1.83705e-05
6.64877e-07
1.88021e-05
5.6505e-07
1.92265e-05
2.74926e-07
1.97185e-05
2.99148e-08
2.01462e-05
-4.31171e-07
2.04833e-05
-7.63888e-07
2.09986e-05
-1.3167e-06
2.13789e-05
-1.75329e-06
2.18086e-05
-2.14691e-06
2.24e-05
-2.87135e-06
2.28562e-05
-3.25253e-06
2.34957e-05
-3.83183e-06
2.42063e-05
-4.67654e-06
2.47368e-05
-4.98533e-06
2.5569e-05
-6.06214e-06
2.62388e-05
-6.71004e-06
2.66998e-05
-7.49106e-06
2.7025e-05
-8.36319e-06
2.71954e-05
-8.95713e-06
2.73801e-05
-9.92758e-06
2.6915e-05
-1.02844e-05
2.62654e-05
-1.01508e-05
2.54354e-05
-9.89991e-06
2.45982e-05
-9.26698e-06
2.35599e-05
-8.15267e-06
2.26072e-05
-7.32679e-06
2.20422e-05
-5.56962e-06
2.12102e-05
-4.00252e-06
2.06326e-05
-2.31898e-06
2.04334e-05
-3.41813e-07
1.98429e-05
1.33401e-06
1.89715e-05
3.33839e-06
1.83602e-05
4.54684e-06
1.85818e-05
5.77246e-06
1.97692e-05
7.38784e-06
2.12829e-05
7.47323e-06
2.26406e-05
7.82265e-06
2.39532e-05
7.40624e-06
2.5055e-05
5.82404e-06
2.60895e-05
4.87411e-06
2.70209e-05
3.22046e-06
2.76887e-05
1.18286e-06
2.86124e-05
-6.45972e-07
2.9422e-05
-2.72572e-06
3.02471e-05
-4.71335e-06
3.11926e-05
-6.98048e-06
3.2065e-05
-9.05586e-06
3.30679e-05
-1.11963e-05
3.39115e-05
-1.32528e-05
3.45443e-05
-1.50725e-05
3.49652e-05
-1.65504e-05
3.49394e-05
-1.78009e-05
3.4327e-05
-1.82464e-05
3.35291e-05
-1.85187e-05
3.24451e-05
-1.85636e-05
3.14455e-05
-1.80818e-05
3.08627e-05
-1.81172e-05
3.00878e-05
-1.77606e-05
2.92824e-05
-1.69563e-05
2.84659e-05
-1.64522e-05
2.71006e-05
-1.55995e-05
2.52383e-05
-1.43345e-05
2.35709e-05
-1.36228e-05
2.15116e-05
-1.29877e-05
1.883e-05
-1.15643e-05
1.69758e-05
-1.10941e-05
1.65646e-05
-1.208e-05
1.71151e-05
-1.3502e-05
1.78656e-05
-1.46385e-05
1.85122e-05
-1.50423e-05
1.91614e-05
-1.5035e-05
1.99331e-05
-1.47256e-05
2.07639e-05
-1.36089e-05
2.15443e-05
-1.22216e-05
2.23323e-05
-1.04132e-05
2.29022e-05
-7.84247e-06
2.33737e-05
-5.32321e-06
2.38366e-05
-2.59808e-06
2.4166e-05
4.51622e-07
2.43888e-05
3.42399e-06
2.45651e-05
6.37508e-06
2.45766e-05
9.19315e-06
2.44527e-05
1.17672e-05
2.41932e-05
1.40552e-05
2.38243e-05
1.5976e-05
2.29827e-05
1.76752e-05
2.2134e-05
1.81857e-05
2.16802e-05
1.84316e-05
2.17769e-05
1.90698e-05
2.20213e-05
2.07165e-05
2.16e-05
2.22546e-05
2.09553e-05
2.19242e-05
2.05101e-05
2.11421e-05
2.05705e-05
2.10079e-05
2.09156e-05
2.18696e-05
2.08435e-05
2.22988e-05
2.04584e-05
2.17184e-05
2.01184e-05
2.07312e-05
1.98262e-05
1.98882e-05
1.96281e-05
1.86869e-05
1.9301e-05
1.76077e-05
1.90983e-05
1.60448e-05
1.89132e-05
1.48114e-05
1.8493e-05
1.36232e-05
1.8702e-05
1.15023e-05
1.79813e-05
1.18304e-05
1.86685e-05
8.03517e-06
1.78693e-05
9.49886e-06
1.91577e-05
4.50212e-06
1.78207e-05
6.98549e-06
1.83365e-05
1.57115e-06
1.73031e-05
4.3059e-06
1.89931e-05
-2.97873e-06
1.79479e-05
1.86832e-06
1.99793e-05
-5.60643e-06
1.90441e-05
-8.98868e-07
2.04058e-05
-6.44599e-06
1.89924e-05
-9.12568e-07
2.06222e-05
-5.8054e-06
1.98436e-05
-2.35278e-07
2.0264e-05
-1.58901e-06
1.85403e-05
2.95834e-06
1.90056e-05
-1.08653e-07
1.85267e-05
3.6185e-06
2.03049e-05
1.57279e-06
1.92607e-05
7.2084e-06
1.96114e-05
4.71281e-06
1.65452e-05
1.08003e-05
1.6973e-05
5.78602e-06
1.3242e-05
1.36677e-05
1.65092e-05
3.72185e-06
1.58749e-05
1.85532e-05
2.02733e-05
-4.4405e-08
2.00281e-05
1.4232e-07
1.98904e-05
1.23138e-07
1.98726e-05
-2.41533e-08
1.99349e-05
-2.00631e-07
2.00186e-05
-3.27613e-07
2.00787e-05
-3.80832e-07
2.01235e-05
-3.74012e-07
2.01601e-05
-3.16582e-07
2.01878e-05
-2.46331e-07
2.02194e-05
-1.99965e-07
2.02506e-05
-1.57644e-07
2.02819e-05
-1.3314e-07
2.032e-05
-1.20892e-07
2.03519e-05
-1.12162e-07
2.03913e-05
-1.3526e-07
2.04329e-05
-1.39963e-07
2.04659e-05
-1.42121e-07
2.051e-05
-1.61896e-07
2.05413e-05
-1.4649e-07
2.05725e-05
-1.56861e-07
2.06029e-05
-1.47074e-07
2.06269e-05
-1.36839e-07
2.06534e-05
-1.42501e-07
2.06737e-05
-1.25547e-07
2.06872e-05
-1.12349e-07
2.07059e-05
-1.25852e-07
2.07136e-05
-1.01779e-07
2.07161e-05
-9.13605e-08
2.07243e-05
-1.00216e-07
2.07165e-05
-4.32895e-08
2.07203e-05
-4.73134e-08
2.07123e-05
1.79241e-08
2.07133e-05
6.11101e-08
2.0725e-05
1.0653e-07
2.07393e-05
1.96591e-07
2.07974e-05
2.05096e-07
2.08473e-05
3.07808e-07
2.09569e-05
2.84802e-07
2.10686e-05
3.19773e-07
2.11815e-05
2.97252e-07
2.1338e-05
1.69862e-07
2.14157e-05
1.4012e-07
2.15206e-05
-1.10971e-07
2.15732e-05
-2.21585e-07
2.15986e-05
-4.20282e-07
2.16573e-05
-6.39903e-07
2.16408e-05
-6.64617e-07
2.1687e-05
-8.95095e-07
2.17144e-05
-8.68773e-07
2.17475e-05
-9.59181e-07
2.1837e-05
-1.01663e-06
2.1856e-05
-9.15976e-07
2.1934e-05
-1.01028e-06
2.19783e-05
-8.99984e-07
2.19899e-05
-8.50878e-07
2.20498e-05
-8.19699e-07
2.20337e-05
-6.07273e-07
2.20668e-05
-6.21747e-07
2.20896e-05
-3.56927e-07
2.21031e-05
-3.02323e-07
2.21569e-05
-1.11542e-07
2.22188e-05
3.60812e-08
2.22968e-05
1.90884e-07
2.24518e-05
3.27176e-07
2.25631e-05
3.87755e-07
2.27596e-05
5.17006e-07
2.30297e-05
3.81295e-07
2.32586e-05
4.35935e-07
2.3607e-05
2.1671e-07
2.39557e-05
-7.38048e-08
2.42633e-05
-2.77703e-07
2.47082e-05
-8.76066e-07
2.50259e-05
-1.08155e-06
2.54125e-05
-1.70335e-06
2.59106e-05
-2.25133e-06
2.62892e-05
-2.52556e-06
2.67826e-05
-3.3647e-06
2.7299e-05
-3.76898e-06
2.7783e-05
-4.31582e-06
2.83459e-05
-5.23944e-06
2.87973e-05
-5.43668e-06
2.92353e-05
-6.50014e-06
2.9595e-05
-7.06975e-06
2.96711e-05
-7.56721e-06
2.98721e-05
-8.5642e-06
2.96758e-05
-8.76075e-06
2.92017e-05
-9.45353e-06
2.83305e-05
-9.41319e-06
2.75294e-05
-9.34975e-06
2.67175e-05
-9.088e-06
2.55127e-05
-8.06218e-06
2.47624e-05
-7.40233e-06
2.3682e-05
-6.24642e-06
2.30378e-05
-4.92547e-06
2.26703e-05
-3.63499e-06
2.21532e-05
-1.80187e-06
2.20548e-05
-2.43434e-07
2.20172e-05
1.3716e-06
2.19467e-05
3.40894e-06
2.19545e-05
4.53906e-06
2.19784e-05
5.74851e-06
2.24972e-05
6.86906e-06
2.33034e-05
6.66697e-06
2.43486e-05
6.77753e-06
2.54663e-05
6.28855e-06
2.64107e-05
4.87958e-06
2.7517e-05
3.76782e-06
2.85596e-05
2.17786e-06
2.93788e-05
3.63686e-07
3.03989e-05
-1.66608e-06
3.13312e-05
-3.65804e-06
3.23568e-05
-5.73897e-06
3.32788e-05
-7.90246e-06
3.41556e-05
-9.93266e-06
3.48746e-05
-1.19152e-05
3.53316e-05
-1.37098e-05
3.5401e-05
-1.51419e-05
3.51609e-05
-1.63103e-05
3.44368e-05
-1.70768e-05
3.35269e-05
-1.73365e-05
3.27382e-05
-1.77299e-05
3.19419e-05
-1.77674e-05
3.15123e-05
-1.76522e-05
3.10215e-05
-1.76265e-05
3.01466e-05
-1.68856e-05
2.91396e-05
-1.59493e-05
2.76755e-05
-1.49881e-05
2.55059e-05
-1.34298e-05
2.32245e-05
-1.20532e-05
2.09068e-05
-1.1305e-05
1.7906e-05
-9.98689e-06
1.53819e-05
-9.04023e-06
1.43952e-05
-1.01074e-05
1.45927e-05
-1.22774e-05
1.52315e-05
-1.41408e-05
1.56974e-05
-1.51045e-05
1.62606e-05
-1.56055e-05
1.70161e-05
-1.57905e-05
1.77156e-05
-1.54251e-05
1.84468e-05
-1.43402e-05
1.92672e-05
-1.3042e-05
1.98067e-05
-1.09528e-05
2.0309e-05
-8.34477e-06
2.08636e-05
-5.87778e-06
2.12451e-05
-2.97954e-06
2.16538e-05
4.28957e-08
2.18951e-05
3.18268e-06
2.21872e-05
6.08294e-06
2.23689e-05
9.01148e-06
2.24648e-05
1.16714e-05
2.2494e-05
1.4026e-05
2.22887e-05
1.61813e-05
2.19201e-05
1.80438e-05
2.09834e-05
1.91224e-05
2.05165e-05
1.88985e-05
2.04078e-05
1.91784e-05
2.08749e-05
2.02494e-05
2.09976e-05
2.21318e-05
2.03364e-05
2.25854e-05
2.00227e-05
2.14558e-05
1.99704e-05
2.10602e-05
2.03567e-05
2.14833e-05
2.0737e-05
2.19186e-05
2.06698e-05
2.17856e-05
2.04456e-05
2.09554e-05
2.03237e-05
2.00101e-05
2.02413e-05
1.87694e-05
2.00591e-05
1.77899e-05
1.99208e-05
1.61831e-05
2.0085e-05
1.46472e-05
1.95797e-05
1.41284e-05
2.03464e-05
1.07356e-05
1.93543e-05
1.28225e-05
2.03618e-05
7.02772e-06
1.93082e-05
1.05524e-05
2.09112e-05
2.89912e-06
2.06018e-05
7.29487e-06
2.15796e-05
5.93401e-07
2.04539e-05
5.43154e-06
2.26384e-05
-5.16318e-06
2.18341e-05
2.67257e-06
2.34583e-05
-7.23061e-06
2.27715e-05
-2.12059e-07
2.491e-05
-8.58446e-06
2.32711e-05
7.26295e-07
2.54692e-05
-8.00351e-06
2.39302e-05
1.30372e-06
2.66115e-05
-4.27027e-06
2.4133e-05
5.43679e-06
2.59934e-05
-1.96904e-06
2.36059e-05
6.00604e-06
2.62559e-05
-1.0772e-06
2.43556e-05
9.10863e-06
2.65061e-05
2.56238e-06
2.42473e-05
1.30591e-05
2.37189e-05
6.31446e-06
2.25233e-05
1.48633e-05
2.03813e-05
5.86386e-06
1.28843e-05
2.33719e-05
2.51797e-05
-4.16948e-08
2.52483e-05
7.37258e-08
2.53302e-05
4.1237e-08
2.54263e-05
-1.20199e-07
2.5499e-05
-2.73404e-07
2.55433e-05
-3.71893e-07
2.55636e-05
-4.01158e-07
2.5551e-05
-3.61423e-07
2.55543e-05
-3.19794e-07
2.55569e-05
-2.48967e-07
2.55668e-05
-2.09851e-07
2.55852e-05
-1.76076e-07
2.55971e-05
-1.45019e-07
2.56143e-05
-1.38089e-07
2.56304e-05
-1.28247e-07
2.5647e-05
-1.5189e-07
2.56697e-05
-1.62631e-07
2.56886e-05
-1.61045e-07
2.57115e-05
-1.84788e-07
2.57337e-05
-1.68712e-07
2.57472e-05
-1.70356e-07
2.57614e-05
-1.61259e-07
2.57699e-05
-1.45398e-07
2.578e-05
-1.52526e-07
2.5786e-05
-1.31591e-07
2.57793e-05
-1.05674e-07
2.57927e-05
-1.39182e-07
2.57762e-05
-8.53164e-08
2.57795e-05
-9.46744e-08
2.57782e-05
-9.88755e-08
2.57505e-05
-1.55569e-08
2.57746e-05
-7.14979e-08
2.57395e-05
5.30356e-08
2.57473e-05
5.33739e-08
2.57661e-05
8.76757e-08
2.57624e-05
2.00267e-07
2.58309e-05
1.3659e-07
2.58701e-05
2.68658e-07
2.59465e-05
2.0838e-07
2.60551e-05
2.11211e-07
2.6127e-05
2.25301e-07
2.62244e-05
7.25335e-08
2.63084e-05
5.606e-08
2.63594e-05
-1.61952e-07
2.64047e-05
-2.66883e-07
2.64248e-05
-4.40351e-07
2.64228e-05
-6.37948e-07
2.64483e-05
-6.90125e-07
2.64188e-05
-8.65543e-07
2.64401e-05
-8.90109e-07
2.64464e-05
-9.65452e-07
2.64466e-05
-1.0168e-06
2.64894e-05
-9.58777e-07
2.64825e-05
-1.0034e-06
2.65174e-05
-9.34925e-07
2.65415e-05
-8.74981e-07
2.65046e-05
-7.82808e-07
2.65724e-05
-6.75059e-07
2.65054e-05
-5.54697e-07
2.65613e-05
-4.12839e-07
2.65893e-05
-3.30318e-07
2.65894e-05
-1.11688e-07
2.67394e-05
-1.13937e-07
2.67812e-05
1.49102e-07
2.6924e-05
1.84382e-07
2.71334e-05
1.78375e-07
2.72259e-05
4.24497e-07
2.75303e-05
7.68883e-08
2.77346e-05
2.31655e-07
2.79888e-05
-3.74641e-08
2.83289e-05
-4.13928e-07
2.85815e-05
-5.30333e-07
2.89243e-05
-1.21886e-06
2.92723e-05
-1.42955e-06
2.95469e-05
-1.97798e-06
2.98903e-05
-2.59469e-06
3.02764e-05
-2.91168e-06
3.05364e-05
-3.62465e-06
3.09326e-05
-4.16524e-06
3.12426e-05
-4.62582e-06
3.1434e-05
-5.43081e-06
3.17829e-05
-5.78561e-06
3.17841e-05
-6.50129e-06
3.18136e-05
-7.09928e-06
3.16732e-05
-7.42684e-06
3.13056e-05
-8.19661e-06
3.06632e-05
-8.11833e-06
2.99971e-05
-8.78744e-06
2.92648e-05
-8.6809e-06
2.81866e-05
-8.27148e-06
2.71465e-05
-8.04794e-06
2.60077e-05
-6.92341e-06
2.51956e-05
-6.59023e-06
2.43053e-05
-5.35611e-06
2.35369e-05
-4.15704e-06
2.3181e-05
-3.27913e-06
2.28044e-05
-1.42522e-06
2.27805e-05
-2.19602e-07
2.30635e-05
1.0887e-06
2.34503e-05
3.02214e-06
2.4039e-05
3.9503e-06
2.4718e-05
5.06953e-06
2.54632e-05
6.12387e-06
2.61538e-05