/*--------------------------------*- C++ -*----------------------------------*\
| =========                 |                                                 |
| \\      /  F ield         | OpenFOAM: The Open Source CFD Toolbox           |
|  \\    /   O peration     | Version:  2.4.0                                 |
|   \\  /    A nd           | Web:      www.OpenFOAM.org                      |
|    \\/     M anipulation  |                                                 |
\*---------------------------------------------------------------------------*/
FoamFile
{
    version     2.0;
    format      ascii;
    class       volVectorField;
    location    "1.17";
    object      U;
}
// * * * * * * * * * * * * * * * * * * * * * * * * * * * * * * * * * * * * * //

dimensions      [0 1 -1 0 0 0 0];

internalField   nonuniform List<vector> 
8800
(
(8.09259 0.387947 0)
(5.45208 0.242622 0)
(3.90934 0.0430473 0)
(3.15993 -0.0153797 0)
(2.79516 -0.0185817 0)
(2.60816 -0.0111304 0)
(2.47213 -0.00490016 0)
(2.39192 -0.00311757 0)
(2.30772 -0.00145059 0)
(2.2635 -0.000155964 0)
(2.19905 -0.000422493 0)
(2.18568 -0.00150882 0)
(2.1279 0.00123332 0)
(2.11747 0.000130475 0)
(2.05742 0.000240832 0)
(2.0621 -0.000750207 0)
(1.99697 0.00152013 0)
(1.997 -0.00264624 0)
(1.99684 0.0103389 0)
(1.77201 -0.0721868 0)
(10.0801 0.837974 0)
(9.66966 0.867823 0)
(8.85908 0.507371 0)
(8.10003 0.262429 0)
(7.47217 0.136983 0)
(7.03613 0.0821659 0)
(6.66131 0.056102 0)
(6.4387 0.0384127 0)
(6.18759 0.0300452 0)
(6.06337 0.0260403 0)
(5.88022 0.018918 0)
(5.8341 0.0131156 0)
(5.6641 0.0197402 0)
(5.65444 0.0148299 0)
(5.49379 0.0153982 0)
(5.50187 0.00998703 0)
(5.34686 0.0233898 0)
(5.3403 -0.00653321 0)
(5.29533 0.0279951 0)
(5.15274 -0.0306829 0)
(10.0434 0.630094 0)
(10.6885 0.863753 0)
(10.8378 0.601655 0)
(10.7281 0.374849 0)
(10.4154 0.253244 0)
(10.1407 0.197928 0)
(9.77485 0.1556 0)
(9.56546 0.119397 0)
(9.24813 0.0955875 0)
(9.10343 0.0791059 0)
(8.84821 0.058611 0)
(8.79094 0.0459484 0)
(8.54517 0.0513977 0)
(8.53945 0.0390671 0)
(8.31954 0.0403345 0)
(8.32434 0.0287177 0)
(8.11966 0.0524299 0)
(8.11505 0.00167689 0)
(8.01074 0.0324 0)
(7.95279 -0.0714157 0)
(9.94806 0.454362 0)
(10.6325 0.706952 0)
(11.1086 0.547025 0)
(11.4469 0.354982 0)
(11.4785 0.255937 0)
(11.5486 0.231064 0)
(11.4009 0.203052 0)
(11.3973 0.170181 0)
(11.2069 0.151035 0)
(11.1756 0.131095 0)
(10.9766 0.103402 0)
(10.9745 0.0842965 0)
(10.7591 0.0949203 0)
(10.7681 0.0685272 0)
(10.5738 0.0761072 0)
(10.5717 0.0534959 0)
(10.3865 0.0907193 0)
(10.3708 0.0198533 0)
(10.25 0.0495054 0)
(10.2282 -0.0893664 0)
(9.94056 0.342532 0)
(10.5017 0.569687 0)
(10.9571 0.459678 0)
(11.4095 0.301773 0)
(11.5556 0.20069 0)
(11.7666 0.19684 0)
(11.791 0.18282 0)
(11.9142 0.161637 0)
(11.8977 0.148709 0)
(11.9903 0.141172 0)
(11.9484 0.108512 0)
(12.0128 0.0981587 0)
(11.9599 0.106302 0)
(11.9995 0.0900283 0)
(11.9426 0.0823267 0)
(11.9492 0.0831764 0)
(11.8933 0.100464 0)
(11.8629 0.0613682 0)
(11.8317 0.0546882 0)
(11.7885 -0.0127462 0)
(9.9698 0.249077 0)
(10.3883 0.454666 0)
(10.8296 0.376327 0)
(11.2533 0.253807 0)
(11.4796 0.15897 0)
(11.6494 0.151396 0)
(11.7617 0.148852 0)
(11.8705 0.131552 0)
(11.9408 0.125316 0)
(12.0417 0.118924 0)
(12.118 0.0929753 0)
(12.176 0.0779352 0)
(12.2635 0.0997854 0)
(12.3088 0.0741696 0)
(12.3645 0.0796283 0)
(12.4027 0.0747363 0)
(12.4443 0.0973146 0)
(12.4635 0.0772516 0)
(12.4936 0.0744615 0)
(12.5179 0.0201465 0)
(9.98379 0.178726 0)
(10.3266 0.347897 0)
(10.7308 0.285883 0)
(11.13 0.211612 0)
(11.4009 0.117601 0)
(11.5557 0.121096 0)
(11.6692 0.106492 0)
(11.7795 0.112195 0)
(11.8615 0.0856989 0)
(11.9611 0.106312 0)
(12.0296 0.0579673 0)
(12.1304 0.0766477 0)
(12.1864 0.052861 0)
(12.3152 0.0902816 0)
(12.3134 0.0222701 0)
(12.4241 0.0996782 0)
(12.4582 0.0487387 0)
(12.5328 0.101707 0)
(12.5519 0.0675311 0)
(12.6011 0.174281 0)
(9.99013 0.10636 0)
(10.2903 0.257691 0)
(10.6316 0.193815 0)
(11.0607 0.169267 0)
(11.3278 0.0706483 0)
(11.4994 0.102532 0)
(11.5795 0.0581638 0)
(11.7248 0.0957247 0)
(11.8105 0.0390472 0)
(11.9059 0.103931 0)
(11.9333 0.0167915 0)
(12.0705 0.071222 0)
(12.1258 0.0226228 0)
(12.1991 0.0768917 0)
(12.2945 0.0156951 0)
(12.3379 0.0756463 0)
(12.433 0.0255715 0)
(12.4645 0.113362 0)
(12.4838 0.036726 0)
(12.5201 0.18616 0)
(10.0011 0.067996 0)
(10.2393 0.148467 0)
(10.6065 0.119119 0)
(11.0083 0.0880392 0)
(11.2754 0.053185 0)
(11.4467 0.062794 0)
(11.5528 0.0412028 0)
(11.699 0.0319352 0)
(11.7625 0.0313942 0)
(11.8128 0.0641627 0)
(11.949 0.0209941 0)
(11.9771 0.0196382 0)
(12.1245 0.0342298 0)
(12.1331 0.0386289 0)
(12.2413 -0.00573913 0)
(12.3275 0.0480072 0)
(12.3771 0.0332815 0)
(12.3936 0.048128 0)
(12.4429 0.0505194 0)
(12.4111 0.00180181 0)
(10.0007 0.0123243 0)
(10.2328 0.0610732 0)
(10.6057 0.0225993 0)
(10.9511 0.0423708 0)
(11.225 0.0102346 0)
(11.4435 0.0449339 0)
(11.5881 -0.0115787 0)
(11.6474 0.0183384 0)
(11.6971 0.00358446 0)
(11.8276 0.0431512 0)
(11.9013 -0.0183182 0)
(12.0178 0.0176143 0)
(12.0271 0.000957899 0)
(12.1877 0.0311781 0)
(12.1828 -0.015034 0)
(12.2555 0.0134314 0)
(12.3815 0.0212491 0)
(12.4048 0.0392641 0)
(12.4244 -0.0211378 0)
(12.4212 -0.00211725 0)
(9.99266 -0.0203375 0)
(10.2357 -0.0496718 0)
(10.6059 -0.0435454 0)
(10.9451 -0.0281054 0)
(11.2311 -0.017182 0)
(11.4656 -0.0102371 0)
(11.5818 -0.0153768 0)
(11.6138 -0.0217095 0)
(11.7114 -0.0208359 0)
(11.847 -0.000516238 0)
(11.9203 -0.0195662 0)
(11.9513 -0.0164297 0)
(12.0857 0.00290704 0)
(12.1146 -0.00345774 0)
(12.2408 -0.0225916 0)
(12.2683 -0.0101027 0)
(12.3129 -0.0181689 0)
(12.4568 -0.00019068 0)
(12.4425 -0.00919748 0)
(12.3601 -0.0193351 0)
(9.99621 -0.070812 0)
(10.2404 -0.144372 0)
(10.6266 -0.131836 0)
(10.9905 -0.0822388 0)
(11.2596 -0.0604981 0)
(11.4675 -0.0332652 0)
(11.5691 -0.0464076 0)
(11.666 -0.048355 0)
(11.7562 -0.0553382 0)
(11.8475 -0.0289202 0)
(11.9191 -0.0324147 0)
(11.998 -0.0353936 0)
(12.0813 -0.0221474 0)
(12.1907 -0.0225075 0)
(12.2177 -0.0394028 0)
(12.3089 -0.028852 0)
(12.3682 -0.0303277 0)
(12.3872 -0.0365625 0)
(12.4735 -0.0443152 0)
(12.4107 -0.0301754 0)
(10.0044 -0.114367 0)
(10.2643 -0.25264 0)
(10.6703 -0.209814 0)
(11.037 -0.147444 0)
(11.3173 -0.084509 0)
(11.4874 -0.0734314 0)
(11.6207 -0.0707795 0)
(11.7106 -0.0922775 0)
(11.8059 -0.0737758 0)
(11.8807 -0.0543248 0)
(11.9542 -0.0511226 0)
(12.0635 -0.0618264 0)
(12.1376 -0.0354418 0)
(12.1825 -0.0426339 0)
(12.2824 -0.050599 0)
(12.3545 -0.0563838 0)
(12.4083 -0.054284 0)
(12.4756 -0.06416 0)
(12.501 -0.0698739 0)
(12.4539 -0.0590449 0)
(10.0235 -0.17746 0)
(10.2938 -0.353503 0)
(10.761 -0.293618 0)
(11.1012 -0.200672 0)
(11.3877 -0.122688 0)
(11.5534 -0.107784 0)
(11.6935 -0.104811 0)
(11.7743 -0.120155 0)
(11.875 -0.0994549 0)
(11.9393 -0.0833188 0)
(12.0416 -0.0716496 0)
(12.1159 -0.0866064 0)
(12.2039 -0.0432556 0)
(12.2582 -0.0675348 0)
(12.3529 -0.0730093 0)
(12.4288 -0.0779045 0)
(12.4742 -0.0687483 0)
(12.5193 -0.0979496 0)
(12.5601 -0.0987965 0)
(12.5089 -0.0835164 0)
(10.0645 -0.252449 0)
(10.3179 -0.459083 0)
(10.899 -0.378601 0)
(11.164 -0.242272 0)
(11.5283 -0.160725 0)
(11.6119 -0.15099 0)
(11.8127 -0.137075 0)
(11.8286 -0.15411 0)
(11.9993 -0.122799 0)
(11.9885 -0.107157 0)
(12.1363 -0.0929979 0)
(12.1498 -0.108149 0)
(12.2803 -0.0627752 0)
(12.2789 -0.0900041 0)
(12.3917 -0.0864578 0)
(12.3933 -0.100411 0)
(12.4615 -0.0805579 0)
(12.4418 -0.126561 0)
(12.4821 -0.115684 0)
(12.3754 -0.130415 0)
(10.0672 -0.349835 0)
(10.3895 -0.568283 0)
(11.046 -0.459727 0)
(11.281 -0.289026 0)
(11.6761 -0.215033 0)
(11.6693 -0.189449 0)
(11.8963 -0.174776 0)
(11.8167 -0.178371 0)
(11.9947 -0.149096 0)
(11.8738 -0.124283 0)
(12.0431 -0.114198 0)
(11.9086 -0.121465 0)
(12.0568 -0.0784144 0)
(11.9095 -0.098222 0)
(12.019 -0.0952145 0)
(11.8719 -0.106103 0)
(11.9478 -0.0835082 0)
(11.7798 -0.133559 0)
(11.8008 -0.120625 0)
(11.5792 -0.154983 0)
(10.0188 -0.459037 0)
(10.5494 -0.705721 0)
(11.1717 -0.544101 0)
(11.3646 -0.351295 0)
(11.575 -0.265525 0)
(11.4425 -0.225011 0)
(11.5119 -0.197424 0)
(11.2829 -0.183455 0)
(11.3081 -0.148453 0)
(11.058 -0.120223 0)
(11.1054 -0.107473 0)
(10.8228 -0.104315 0)
(10.9041 -0.0702969 0)
(10.6301 -0.081156 0)
(10.6933 -0.076284 0)
(10.4245 -0.0866409 0)
(10.493 -0.063696 0)
(10.1991 -0.113985 0)
(10.2195 -0.0921966 0)
(9.88745 -0.15602 0)
(10.0689 -0.632932 0)
(10.6491 -0.863275 0)
(10.8717 -0.600599 0)
(10.6872 -0.372638 0)
(10.4633 -0.257859 0)
(10.074 -0.195081 0)
(9.85515 -0.152072 0)
(9.47611 -0.126409 0)
(9.32693 -0.0955058 0)
(9.01666 -0.0723161 0)
(8.95198 -0.0601304 0)
(8.65711 -0.0588669 0)
(8.67735 -0.0383246 0)
(8.40498 -0.0429519 0)
(8.43553 -0.0446794 0)
(8.16929 -0.0501837 0)
(8.21869 -0.040791 0)
(7.9208 -0.0679104 0)
(7.93352 -0.0693545 0)
(7.5924 -0.0861955 0)
(10.0867 -0.838855 0)
(9.65251 -0.86776 0)
(8.87316 -0.506389 0)
(8.0815 -0.261248 0)
(7.49494 -0.139186 0)
(7.00048 -0.0818473 0)
(6.70764 -0.0528653 0)
(6.38611 -0.0424733 0)
(6.23352 -0.0309087 0)
(6.01099 -0.0220213 0)
(5.94528 -0.0182774 0)
(5.74771 -0.0222487 0)
(5.74538 -0.0123042 0)
(5.56411 -0.0157623 0)
(5.57315 -0.0187689 0)
(5.38231 -0.0232458 0)
(5.40078 -0.0173753 0)
(5.18232 -0.0317165 0)
(5.17702 -0.0380449 0)
(4.88842 -0.0168446 0)
(8.09167 -0.388003 0)
(5.44798 -0.242479 0)
(3.91139 -0.0429219 0)
(3.15739 0.0156017 0)
(2.80149 0.017965 0)
(2.5955 0.0110595 0)
(2.48773 0.00616705 0)
(2.37676 0.00181706 0)
(2.31986 0.00114618 0)
(2.24456 0.00127683 0)
(2.22426 0.00110906 0)
(2.15566 -0.00149396 0)
(2.14803 0.000966307 0)
(2.08863 -0.000228324 0)
(2.08481 -0.00115859 0)
(2.00694 -0.00251213 0)
(2.00032 9.9467e-06 0)
(1.91471 -0.0037823 0)
(1.87861 -0.00424297 0)
(1.72964 0.0110225 0)
(2.27286 -0.110511 0)
(2.3677 0.026547 0)
(2.51297 0.0553634 0)
(2.63741 0.0312216 0)
(2.74545 -0.00542907 0)
(2.81972 -0.0358943 0)
(2.88946 -0.0495991 0)
(2.93233 -0.0496194 0)
(2.99562 -0.0413574 0)
(3.03279 -0.0261602 0)
(3.09319 -0.013781 0)
(3.13063 0.000483517 0)
(3.18914 0.00517966 0)
(3.23246 0.0121674 0)
(3.28565 0.0107525 0)
(3.33671 0.00847723 0)
(3.3847 0.00563057 0)
(3.43355 0.00179539 0)
(3.47609 -0.00224162 0)
(3.51974 -0.00519524 0)
(3.55778 -0.00675477 0)
(3.59343 -0.00747866 0)
(3.63052 -0.00727887 0)
(3.65875 -0.00875847 0)
(3.69491 -0.00845824 0)
(3.71732 -0.00908818 0)
(3.75048 -0.0118783 0)
(3.76961 -0.013069 0)
(3.79869 -0.015032 0)
(3.81195 -0.0151115 0)
(3.83197 -0.0112368 0)
(3.84225 -0.00483464 0)
(3.85456 0.00762529 0)
(3.86746 0.0272863 0)
(3.88083 0.0522765 0)
(3.9021 0.086719 0)
(3.93572 0.125499 0)
(3.98181 0.164674 0)
(4.04385 0.204012 0)
(4.1249 0.225519 0)
(4.22691 0.231129 0)
(4.3237 0.209775 0)
(4.42913 0.151061 0)
(4.53043 0.0672622 0)
(4.57438 -0.0218063 0)
(4.61539 -0.109929 0)
(4.60888 -0.18203 0)
(4.61825 -0.232465 0)
(4.59728 -0.266854 0)
(4.59004 -0.276293 0)
(4.58766 -0.284594 0)
(4.58128 -0.283472 0)
(4.61473 -0.278812 0)
(4.60658 -0.27825 0)
(4.66126 -0.270126 0)
(4.64196 -0.261732 0)
(4.6995 -0.242348 0)
(4.66576 -0.210241 0)
(4.72979 -0.180339 0)
(4.70386 -0.119885 0)
(4.75593 -0.0744619 0)
(4.77475 -0.00875947 0)
(4.78985 0.0676383 0)
(4.85288 0.147095 0)
(4.89371 0.214937 0)
(5.04854 0.269594 0)
(5.02833 0.327568 0)
(5.30919 0.326064 0)
(5.37952 0.400275 0)
(5.83266 0.352744 0)
(6.03666 0.301269 0)
(6.44011 0.260203 0)
(6.52479 0.037271 0)
(6.77145 -0.107527 0)
(7.0106 -0.190195 0)
(7.03106 -0.441643 0)
(7.15654 -0.523712 0)
(7.46258 -0.700216 0)
(7.42105 -0.910813 0)
(7.71072 -0.966242 0)
(7.90444 -1.21969 0)
(7.97191 -1.42487 0)
(8.45027 -1.6169 0)
(8.62339 -1.88046 0)
(9.02551 -2.17507 0)
(9.52787 -2.51907 0)
(9.45181 -2.80356 0)
(9.91038 -3.13785 0)
(9.73023 -3.61828 0)
(9.85427 -3.76437 0)
(9.46804 -3.80452 0)
(9.30206 -3.5538 0)
(8.95518 -3.33406 0)
(8.54268 -2.98599 0)
(8.39059 -2.26361 0)
(7.78481 -1.91861 0)
(7.65356 -1.18692 0)
(7.59254 -0.292074 0)
(7.01459 -0.0145555 0)
(6.04298 0.442434 0)
(5.87705 1.05385 0)
(6.20405 1.9696 0)
(7.04825 3.06705 0)
(7.89306 3.38349 0)
(8.45058 3.35766 0)
(8.8505 3.22363 0)
(9.69109 2.6215 0)
(9.61254 2.24443 0)
(10.0695 1.70737 0)
(10.5267 0.852033 0)
(10.6335 0.340734 0)
(10.9336 -0.373135 0)
(11.331 -1.04225 0)
(11.4459 -1.72149 0)
(12.0324 -2.4709 0)
(12.1071 -3.12709 0)
(12.6667 -3.84133 0)
(12.9128 -4.5476 0)
(13.3032 -5.12353 0)
(13.5773 -5.74984 0)
(13.761 -6.25168 0)
(13.7089 -6.48012 0)
(13.5404 -6.70464 0)
(13.1392 -6.5904 0)
(12.5606 -6.36435 0)
(12.3406 -6.31038 0)
(11.8958 -6.06482 0)
(11.4841 -5.84138 0)
(11.3828 -5.78909 0)
(10.9379 -5.65894 0)
(10.364 -5.34364 0)
(9.75629 -5.21777 0)
(9.40548 -5.10934 0)
(8.37924 -4.70071 0)
(7.64745 -4.27452 0)
(7.20973 -4.2096 0)
(7.41117 -4.48773 0)
(7.86591 -4.68278 0)
(8.19034 -4.75516 0)
(8.54593 -4.64898 0)
(8.87366 -4.18487 0)
(9.18356 -3.74031 0)
(9.60321 -3.15831 0)
(9.78917 -2.36171 0)
(10.1393 -1.58034 0)
(10.2507 -0.650877 0)
(10.5155 0.221582 0)
(10.5688 1.13296 0)
(10.6662 2.08639 0)
(10.6416 2.95046 0)
(10.6002 3.75656 0)
(10.3987 4.39831 0)
(10.1904 5.02951 0)
(9.72756 5.33894 0)
(9.34331 5.62014 0)
(9.0923 5.89345 0)
(9.14194 6.39347 0)
(9.24849 7.00412 0)
(9.10782 7.16247 0)
(8.62707 7.00251 0)
(8.43337 6.82851 0)
(8.26636 6.93324 0)
(8.51468 7.44241 0)
(8.36071 7.39072 0)
(8.123 7.06629 0)
(7.94462 6.71413 0)
(7.65281 6.50096 0)
(7.63035 6.17451 0)
(7.40404 5.78021 0)
(7.37683 5.27774 0)
(7.05973 4.85448 0)
(7.02478 4.33022 0)
(6.82375 3.92243 0)
(6.74726 3.65987 0)
(6.88299 3.0622 0)
(6.48244 2.92614 0)
(6.92301 2.11258 0)
(6.077 1.68715 0)
(6.36055 0.819034 0)
(5.88525 1.08306 0)
(6.56045 -0.124162 0)
(5.64042 0.224066 0)
(6.66866 -0.741819 0)
(5.82677 -0.718891 0)
(6.4486 -1.42939 0)
(5.97104 -1.03475 0)
(6.54818 -1.13405 0)
(6.68654 -0.327308 0)
(6.25526 -0.783803 0)
(6.66286 0.51539 0)
(5.71609 -0.140238 0)
(7.15079 1.2345 0)
(6.37567 1.18509 0)
(7.52236 1.88006 0)
(5.97569 1.56884 0)
(5.22724 1.51336 0)
(3.97282 2.045 0)
(2.16533 2.7503 0)
(4.86716 3.68486 0)
(3.44124 6.9595 0)
(5.32041 -0.075258 0)
(5.34515 -0.042169 0)
(5.34514 -0.0207218 0)
(5.35512 -0.0285453 0)
(5.37892 -0.0555636 0)
(5.41402 -0.0853184 0)
(5.45645 -0.103109 0)
(5.49549 -0.102981 0)
(5.53354 -0.0899176 0)
(5.56031 -0.0693269 0)
(5.58661 -0.0517527 0)
(5.6083 -0.0374252 0)
(5.63316 -0.0287026 0)
(5.65788 -0.0229892 0)
(5.68548 -0.0221489 0)
(5.71275 -0.0254402 0)
(5.74388 -0.0271437 0)
(5.77255 -0.0293925 0)
(5.8013 -0.0319886 0)
(5.82766 -0.0329627 0)
(5.85236 -0.0343618 0)
(5.87481 -0.0326731 0)
(5.89716 -0.032264 0)
(5.91561 -0.0319754 0)
(5.93479 -0.0304703 0)
(5.95166 -0.0285477 0)
(5.96698 -0.0297761 0)
(5.98231 -0.0290123 0)
(5.99415 -0.0267752 0)
(6.00672 -0.0267155 0)
(6.01374 -0.0178666 0)
(6.02446 -0.0123054 0)
(6.02505 0.0030945 0)
(6.03596 0.0208678 0)
(6.03814 0.0420902 0)
(6.05228 0.0719846 0)
(6.06776 0.0952504 0)
(6.09638 0.127889 0)
(6.13308 0.148303 0)
(6.18452 0.161734 0)
(6.2406 0.158566 0)
(6.31306 0.133493 0)
(6.36962 0.093214 0)
(6.44993 0.0164423 0)
(6.48298 -0.0488926 0)
(6.53664 -0.121933 0)
(6.54603 -0.187507 0)
(6.57989 -0.225192 0)
(6.5877 -0.272448 0)
(6.60368 -0.278969 0)
(6.63119 -0.28864 0)
(6.63552 -0.293909 0)
(6.68873 -0.281345 0)
(6.681 -0.28463 0)
(6.74614 -0.273883 0)
(6.73072 -0.258049 0)
(6.77909 -0.244685 0)
(6.76867 -0.202375 0)
(6.79272 -0.178769 0)
(6.79445 -0.123694 0)
(6.79469 -0.0777754 0)
(6.82569 -0.0163621 0)
(6.81203 0.0178057 0)
(6.86326 0.121673 0)
(6.87511 0.160991 0)
(6.95415 0.157771 0)
(6.96808 0.289094 0)
(7.16232 0.230788 0)
(7.12935 0.232907 0)
(7.44692 0.276878 0)
(7.58253 0.131494 0)
(7.753 0.0615585 0)
(8.04928 -0.0268168 0)
(8.06544 -0.204349 0)
(8.40136 -0.372781 0)
(8.5032 -0.493765 0)
(8.5457 -0.67831 0)
(8.94078 -0.851217 0)
(9.00381 -1.00254 0)
(9.20582 -1.19297 0)
(9.62348 -1.42722 0)
(9.61794 -1.55769 0)
(10.1479 -1.84552 0)
(10.3821 -2.06294 0)
(10.6033 -2.36987 0)
(10.9545 -2.69362 0)
(10.7348 -2.95351 0)
(11.1603 -3.27829 0)
(10.9525 -3.53531 0)
(10.7943 -3.49712 0)
(10.5028 -3.43552 0)
(10.0149 -3.33339 0)
(9.89229 -2.90445 0)
(9.16538 -2.77862 0)
(8.97167 -2.09079 0)
(8.77716 -1.46528 0)
(8.26207 -0.972669 0)
(8.26849 -0.230317 0)
(8.16404 0.309483 0)
(7.68063 0.891502 0)
(7.53417 1.28082 0)
(7.17292 1.675 0)
(7.38971 2.3922 0)
(8.31206 2.5848 0)
(8.60158 2.79408 0)
(9.21607 2.73394 0)
(9.92821 2.16925 0)
(10.2067 1.87808 0)
(10.4758 1.37634 0)
(11.0735 0.627225 0)
(11.1626 0.0322587 0)
(11.6701 -0.69181 0)
(11.8388 -1.33725 0)
(12.317 -2.06229 0)
(12.6119 -2.75876 0)
(13.0123 -3.43463 0)
(13.3913 -4.13297 0)
(13.7086 -4.79789 0)
(13.9406 -5.34508 0)
(14.0426 -5.90223 0)
(13.9482 -6.17029 0)
(13.6277 -6.29659 0)
(13.3306 -6.35848 0)
(12.7942 -6.13096 0)
(12.4831 -6.08311 0)
(12.3816 -6.02794 0)
(11.8895 -5.77307 0)
(11.6557 -5.62563 0)
(11.3296 -5.46699 0)
(10.5395 -5.09891 0)
(9.78005 -4.78154 0)
(9.11398 -4.71352 0)
(8.16206 -4.32305 0)
(6.92524 -3.85795 0)
(6.5749 -3.97101 0)
(6.47517 -4.3765 0)
(6.96358 -4.7863 0)
(7.18374 -4.96357 0)
(7.34719 -4.93355 0)
(7.7337 -4.80174 0)
(8.02976 -4.48454 0)
(8.3846 -4.03705 0)
(8.75844 -3.46697 0)
(9.05872 -2.66314 0)
(9.20995 -1.81201 0)
(9.51877 -0.952839 0)
(9.6506 0.10245 0)
(9.7562 1.03344 0)
(9.88741 2.01013 0)
(9.91043 2.91979 0)
(9.93125 3.76527 0)
(9.78465 4.59754 0)
(9.68622 5.22953 0)
(9.46244 5.78616 0)
(9.0189 5.90741 0)
(8.72233 6.03597 0)
(8.597 6.25267 0)
(8.81535 6.87975 0)
(8.81531 7.3891 0)
(8.48107 7.28007 0)
(8.21635 6.97729 0)
(8.1248 7.03142 0)
(8.23424 7.32069 0)
(8.42975 7.44915 0)
(8.16048 7.2233 0)
(8.12199 6.90658 0)
(7.92107 6.62481 0)
(7.85151 6.26193 0)
(7.76481 5.85338 0)
(7.67588 5.41238 0)
(7.55806 4.98832 0)
(7.42713 4.59559 0)
(7.49924 3.93093 0)
(7.11145 3.85836 0)
(7.60782 2.91929 0)
(6.86088 3.04355 0)
(7.81117 1.92474 0)
(6.95795 2.22195 0)
(7.90886 0.726914 0)
(6.10306 1.28661 0)
(8.43064 -0.57737 0)
(6.13762 0.474743 0)
(8.75463 -1.46651 0)
(6.81001 -0.224611 0)
(8.93068 -1.92177 0)
(7.16982 -0.410529 0)
(8.5537 -1.60617 0)
(7.54095 -0.515733 0)
(8.86234 -0.0043689 0)
(6.90051 0.274554 0)
(8.74348 0.368999 0)
(5.92324 0.821495 0)
(9.3436 1.13444 0)
(6.10821 2.06932 0)
(10.0348 1.93579 0)
(4.98796 3.18926 0)
(8.96641 1.85544 0)
(3.86273 4.0243 0)
(7.60867 0.790521 0)
(5.46844 5.88312 0)
(8.00378 -0.0405713 0)
(7.999 0.00477158 0)
(7.97816 0.0148863 0)
(7.96588 -0.00918616 0)
(7.95998 -0.0537904 0)
(7.98025 -0.0909623 0)
(8.01003 -0.115989 0)
(8.04095 -0.118202 0)
(8.0671 -0.101165 0)
(8.08367 -0.0813459 0)
(8.09139 -0.0643591 0)
(8.09859 -0.0495862 0)
(8.10425 -0.0421107 0)
(8.11226 -0.0355063 0)
(8.12906 -0.0331575 0)
(8.13991 -0.0407225 0)
(8.15923 -0.0407696 0)
(8.17875 -0.045054 0)
(8.19129 -0.0495908 0)
(8.21323 -0.0454886 0)
(8.22386 -0.0506572 0)
(8.23617 -0.0472305 0)
(8.24797 -0.0428383 0)
(8.25743 -0.0454082 0)
(8.26385 -0.0411215 0)
(8.27376 -0.0363798 0)
(8.27622 -0.0420999 0)
(8.28463 -0.0346089 0)
(8.2849 -0.0303974 0)
(8.29373 -0.0362313 0)
(8.28549 -0.0167746 0)
(8.30186 -0.0174513 0)
(8.28372 0.000491036 0)
(8.30337 0.0198354 0)
(8.29068 0.0312759 0)
(8.30507 0.0647063 0)
(8.31362 0.074655 0)
(8.3301 0.102775 0)
(8.35761 0.10954 0)
(8.38968 0.118755 0)
(8.42861 0.113476 0)
(8.47213 0.0793631 0)
(8.51806 0.0534312 0)
(8.56034 -0.0208325 0)
(8.59366 -0.0660799 0)
(8.63313 -0.136878 0)
(8.64366 -0.197245 0)
(8.67189 -0.222987 0)
(8.70084 -0.285714 0)
(8.67757 -0.278259 0)
(8.76128 -0.318929 0)
(8.68997 -0.316266 0)
(8.80836 -0.307786 0)
(8.72674 -0.330711 0)
(8.83936 -0.287874 0)
(8.77938 -0.300828 0)
(8.84691 -0.263953 0)
(8.8231 -0.209743 0)
(8.85544 -0.226597 0)
(8.82763 -0.1009 0)
(8.89926 -0.12045 0)
(8.80087 -0.0400085 0)
(8.96986 0.0437917 0)
(8.82221 0.0342831 0)
(8.99252 0.134017 0)
(8.98915 0.160009 0)
(8.9743 0.153978 0)
(9.19678 0.184416 0)
(9.15456 0.184206 0)
(9.33238 0.0950929 0)
(9.54013 0.0431451 0)
(9.56313 -0.041239 0)
(9.9124 -0.24349 0)
(9.85929 -0.275852 0)
(10.1512 -0.520851 0)
(10.3335 -0.691084 0)
(10.3376 -0.74796 0)
(10.7139 -1.05373 0)
(10.7822 -1.15252 0)
(10.9555 -1.32391 0)
(11.3328 -1.65883 0)
(11.2922 -1.67011 0)
(11.6976 -2.04595 0)
(11.8178 -2.27612 0)
(11.8825 -2.48956 0)
(12.046 -2.81878 0)
(11.9424 -2.93296 0)
(11.994 -3.23343 0)
(11.609 -3.31556 0)
(11.2059 -3.37905 0)
(11.0827 -3.28552 0)
(10.3797 -3.03989 0)
(10.2222 -2.73864 0)
(9.74168 -2.31548 0)
(9.2368 -1.88755 0)
(9.3158 -1.39861 0)
(8.76302 -0.800517 0)
(8.9408 -0.185638 0)
(8.81238 0.336276 0)
(8.57564 1.01809 0)
(8.90411 1.45461 0)
(8.71652 1.8478 0)
(8.54493 2.27583 0)
(9.27825 2.21831 0)
(9.36329 2.31589 0)
(9.77247 2.25026 0)
(10.4403 1.75665 0)
(10.736 1.40497 0)
(11.1406 0.92914 0)
(11.5412 0.338682 0)
(11.9279 -0.304849 0)
(12.3155 -0.968473 0)
(12.6953 -1.60765 0)
(13.108 -2.33977 0)
(13.4799 -2.99274 0)
(13.8017 -3.69905 0)
(14.0637 -4.37413 0)
(14.1962 -4.95187 0)
(14.1544 -5.44499 0)
(14.0195 -5.80982 0)
(13.6257 -5.90828 0)
(13.2953 -5.99119 0)
(13.0305 -5.98018 0)
(12.6623 -5.87306 0)
(12.6434 -5.91325 0)
(12.395 -5.7625 0)
(11.9155 -5.4883 0)
(11.5875 -5.27265 0)
(10.827 -4.88317 0)
(9.81137 -4.38597 0)
(8.92819 -4.17758 0)
(7.87479 -3.8541 0)
(6.55243 -3.30754 0)
(5.71604 -3.39616 0)
(5.62679 -3.95712 0)
(5.77524 -4.57806 0)
(6.19512 -4.97422 0)
(6.20775 -5.11183 0)
(6.5267 -5.15832 0)
(6.85658 -5.11553 0)
(7.12777 -4.74325 0)
(7.45079 -4.31075 0)
(7.84128 -3.70543 0)
(7.94871 -2.81129 0)
(8.25934 -1.97368 0)
(8.44639 -0.994979 0)
(8.64017 -0.0452458 0)
(8.78504 0.979783 0)
(8.84281 1.94552 0)
(9.07335 2.92527 0)
(8.95252 3.77 0)
(9.16393 4.49998 0)
(8.97198 5.21974 0)
(8.97608 5.90897 0)
(8.64815 6.20595 0)
(8.18602 6.27038 0)
(8.14488 6.36889 0)
(8.14402 6.80077 0)
(8.58647 7.41193 0)
(8.23528 7.43997 0)
(7.95834 7.23833 0)
(7.9553 6.96165 0)
(7.95967 7.26285 0)
(8.20183 7.45228 0)
(8.25614 7.30616 0)
(8.17209 6.98842 0)
(8.10439 6.68837 0)
(8.06126 6.29848 0)
(8.03459 5.99066 0)
(7.97822 5.46252 0)
(8.01203 5.00442 0)
(7.76269 4.64898 0)
(8.22669 3.86017 0)
(7.50817 4.15588 0)
(8.51949 2.57651 0)
(7.06038 3.39905 0)
(9.15395 1.31308 0)
(6.67661 2.44408 0)
(10.5552 0.469078 0)
(5.92491 1.77 0)
(11.3512 -1.21129 0)
(5.90295 0.867588 0)
(12.3494 -1.94545 0)
(5.65024 -0.372679 0)
(13.2601 -2.22924 0)
(5.90484 -0.229511 0)
(13.5121 -2.24512 0)
(6.19036 0.163512 0)
(13.5958 -1.32791 0)
(6.92515 1.53259 0)
(13.4871 -0.375291 0)
(6.61637 1.59032 0)
(13.1897 -0.183157 0)
(6.92585 2.66051 0)
(13.3211 0.933567 0)
(7.36799 4.01028 0)
(12.2489 1.94422 0)
(7.25827 4.7573 0)
(10.1576 1.68976 0)
(7.2474 4.71756 0)
(10.3084 -0.0110546 0)
(10.2802 0.056792 0)
(10.1932 0.0524375 0)
(10.1472 -0.000340109 0)
(10.1369 -0.058717 0)
(10.1547 -0.105946 0)
(10.1929 -0.12227 0)
(10.2179 -0.123833 0)
(10.2359 -0.111485 0)
(10.2469 -0.083946 0)
(10.245 -0.0684415 0)
(10.2399 -0.0537523 0)
(10.2457 -0.042133 0)
(10.2319 -0.0417516 0)
(10.2442 -0.0375821 0)
(10.2461 -0.0433798 0)
(10.2505 -0.0506297 0)
(10.2708 -0.0454482 0)
(10.274 -0.0554769 0)
(10.2861 -0.050373 0)
(10.3043 -0.0501983 0)
(10.2953 -0.0505684 0)
(10.3156 -0.0460949 0)
(10.3066 -0.0468492 0)
(10.3182 -0.0419643 0)
(10.3094 -0.035355 0)
(10.3193 -0.0372795 0)
(10.3104 -0.0321909 0)
(10.3109 -0.025555 0)
(10.32 -0.0286443 0)
(10.2982 -0.0116872 0)
(10.3218 -0.0120307 0)
(10.3032 0.00860253 0)
(10.3074 0.0215425 0)
(10.3111 0.036224 0)
(10.3108 0.0658885 0)
(10.3298 0.0596467 0)
(10.3287 0.0988921 0)
(10.3799 0.0816499 0)
(10.3572 0.0874139 0)
(10.4515 0.0934934 0)
(10.4213 0.034858 0)
(10.483 0.0434751 0)
(10.5279 -0.04195 0)
(10.4947 -0.0807961 0)
(10.5938 -0.121469 0)
(10.5438 -0.222512 0)
(10.5706 -0.204578 0)
(10.6403 -0.288795 0)
(10.5102 -0.293013 0)
(10.6974 -0.293287 0)
(10.5203 -0.355569 0)
(10.6643 -0.298535 0)
(10.5961 -0.338218 0)
(10.5992 -0.332886 0)
(10.6668 -0.269017 0)
(10.5979 -0.303287 0)
(10.637 -0.210547 0)
(10.6773 -0.198944 0)
(10.5508 -0.154637 0)
(10.7476 -0.0901437 0)
(10.5414 -0.0463105 0)
(10.7494 -0.0227257 0)
(10.6472 0.0693177 0)
(10.7363 0.0755761 0)
(10.8234 0.0874975 0)
(10.7593 0.163916 0)
(11.0082 0.0731457 0)
(10.9508 0.10375 0)
(11.0945 0.0411993 0)
(11.3194 -0.100579 0)
(11.2669 -0.112512 0)
(11.6087 -0.348985 0)
(11.6006 -0.427609 0)
(11.7574 -0.569131 0)
(12.0114 -0.814392 0)
(11.9258 -0.882251 0)
(12.2707 -1.11947 0)
(12.2649 -1.31575 0)
(12.4053 -1.42816 0)
(12.6355 -1.7505 0)
(12.5537 -1.8348 0)
(12.822 -2.10808 0)
(12.7403 -2.36622 0)
(12.7737 -2.43683 0)
(12.7575 -2.78095 0)
(12.4531 -2.81672 0)
(12.2317 -3.08738 0)
(11.9541 -3.0797 0)
(11.5593 -2.92909 0)
(11.251 -2.90996 0)
(10.5233 -2.48176 0)
(10.4158 -2.33451 0)
(9.89334 -1.97649 0)
(9.49305 -1.56611 0)
(9.49304 -1.24227 0)
(9.00516 -0.601013 0)
(9.09491 -0.128371 0)
(9.23917 0.296836 0)
(8.94805 0.999043 0)
(9.55415 1.35237 0)
(9.69178 1.7726 0)
(9.75163 2.20895 0)
(10.3276 2.15651 0)
(10.5755 2.10845 0)
(10.8665 2.01334 0)
(11.3504 1.57359 0)
(11.7175 1.16004 0)
(12.1154 0.638316 0)
(12.4399 0.0918809 0)
(12.87 -0.565197 0)
(13.2083 -1.19394 0)
(13.558 -1.89067 0)
(13.868 -2.56226 0)
(14.0788 -3.26078 0)
(14.1962 -3.90367 0)
(14.2109 -4.50712 0)
(14.0645 -4.96777 0)
(13.8233 -5.33196 0)
(13.5547 -5.52868 0)
(13.1857 -5.60349 0)
(13.0945 -5.74766 0)
(12.9266 -5.77929 0)
(12.789 -5.79908 0)
(12.7032 -5.73603 0)
(12.1896 -5.44564 0)
(11.6776 -5.08918 0)
(10.9755 -4.67691 0)
(9.91128 -4.05898 0)
(8.79416 -3.58558 0)
(7.63975 -3.28676 0)
(6.35267 -2.74105 0)
(5.01119 -2.54564 0)
(4.65178 -3.15156 0)
(4.68921 -4.07138 0)
(4.9974 -4.80076 0)
(5.21867 -5.05747 0)
(5.23472 -5.31497 0)
(5.64863 -5.42439 0)
(5.72602 -5.24515 0)
(6.05798 -4.96228 0)
(6.40692 -4.50199 0)
(6.53065 -3.80112 0)
(6.85138 -2.9868 0)
(7.04839 -2.09939 0)
(7.26623 -1.15378 0)
(7.44049 -0.115553 0)
(7.50565 0.89204 0)
(7.78989 1.87559 0)
(7.81508 2.85429 0)
(8.06754 3.81706 0)
(7.90455 4.61637 0)
(8.2374 5.29734 0)
(8.04888 5.93641 0)
(8.26887 6.44767 0)
(7.56185 6.35308 0)
(7.67883 6.38183 0)
(7.63325 6.60662 0)
(7.8567 7.29225 0)
(8.06014 7.623 0)
(7.74826 7.21159 0)
(7.60991 7.14576 0)
(7.80492 7.07386 0)
(7.98472 7.25109 0)
(8.13937 7.31282 0)
(8.28434 7.08453 0)
(8.21784 6.79019 0)
(8.19699 6.33825 0)
(8.28204 6.01568 0)
(8.12426 5.48236 0)
(8.28253 4.90029 0)
(8.01212 4.97726 0)
(8.78304 3.42835 0)
(7.48859 4.46772 0)
(10.2582 2.34274 0)
(6.36288 3.67089 0)
(11.5677 0.932384 0)
(5.7789 2.59152 0)
(12.4502 -0.00502744 0)
(6.14274 2.36326 0)
(12.031 -2.04688 0)
(6.51215 1.19078 0)
(11.8543 -2.78221 0)
(6.73824 0.466791 0)
(11.1001 -3.9533 0)
(7.46337 0.629338 0)
(10.8971 -3.424 0)
(6.8384 0.264514 0)
(11.6823 -2.19185 0)
(7.73131 1.71581 0)
(11.6772 -1.06015 0)
(7.82072 2.04693 0)
(11.7307 -0.785086 0)
(7.81873 2.72894 0)
(12.23 0.409282 0)
(8.61908 3.97441 0)
(12.5832 2.25724 0)
(9.47712 5.04625 0)
(11.5158 2.82862 0)
(8.46927 3.91613 0)
(11.8848 -0.00973899 0)
(11.8551 0.00256584 0)
(11.7681 -0.0133055 0)
(11.7148 -0.0580884 0)
(11.723 -0.0977569 0)
(11.7442 -0.119715 0)
(11.7849 -0.133493 0)
(11.8035 -0.125224 0)
(11.82 -0.117193 0)
(11.8128 -0.0978096 0)
(11.8116 -0.0840373 0)
(11.7885 -0.0754367 0)
(11.7949 -0.0634577 0)
(11.7785 -0.0581164 0)
(11.7812 -0.05021 0)
(11.7815 -0.0560502 0)
(11.784 -0.0573422 0)
(11.7859 -0.0606856 0)
(11.8043 -0.0688272 0)
(11.792 -0.0678215 0)
(11.8346 -0.0668668 0)
(11.8073 -0.0633048 0)
(11.8351 -0.0553689 0)
(11.8154 -0.0561276 0)
(11.8244 -0.0527657 0)
(11.8044 -0.0355376 0)
(11.8204 -0.0585389 0)
(11.8025 -0.0317044 0)
(11.8101 -0.0368718 0)
(11.8126 -0.045984 0)
(11.787 -0.000516949 0)
(11.8206 -0.0370367 0)
(11.7849 0.0173984 0)
(11.8164 0.0166805 0)
(11.812 0.0137942 0)
(11.8029 0.0652235 0)
(11.8647 0.0300576 0)
(11.7999 0.0734551 0)
(11.9102 0.0616095 0)
(11.8544 0.0503153 0)
(11.9218 0.0598223 0)
(11.9648 0.0156224 0)
(11.8983 -0.00430754 0)
(12.0635 -0.0581345 0)
(11.9195 -0.092546 0)
(12.054 -0.150663 0)
(12.0031 -0.191273 0)
(11.9791 -0.235179 0)
(12.0789 -0.266504 0)
(11.9272 -0.285406 0)
(12.0468 -0.325143 0)
(11.9727 -0.319529 0)
(11.936 -0.337346 0)
(12.028 -0.334988 0)
(11.8563 -0.311121 0)
(12.0327 -0.323434 0)
(11.887 -0.243501 0)
(11.9562 -0.258127 0)
(11.9741 -0.184441 0)
(11.8664 -0.145664 0)
(12.0294 -0.139571 0)
(11.8582 -0.0321376 0)
(12.0063 -0.0762145 0)
(11.9885 0.0223499 0)
(11.9678 0.0488204 0)
(12.162 -0.00911737 0)
(12.0566 0.141211 0)
(12.2794 -0.0223636 0)
(12.2926 0.0294691 0)
(12.3891 -0.0277004 0)
(12.572 -0.198266 0)
(12.6068 -0.204732 0)
(12.7828 -0.418467 0)
(12.8702 -0.519249 0)
(12.9195 -0.660489 0)
(13.1099 -0.862581 0)
(13.0566 -0.988984 0)
(13.2285 -1.17999 0)
(13.2229 -1.38185 0)
(13.2623 -1.52977 0)
(13.3452 -1.7503 0)
(13.2606 -1.93169 0)
(13.3047 -2.10177 0)
(13.1801 -2.29706 0)
(13.082 -2.38487 0)
(12.8265 -2.64923 0)
(12.4911 -2.6465 0)
(12.4105 -2.74087 0)
(11.8567 -2.72261 0)
(11.4022 -2.61012 0)
(11.0284 -2.56973 0)
(10.4559 -2.20801 0)
(10.3326 -2.12062 0)
(9.93176 -1.73982 0)
(9.60846 -1.282 0)
(9.60161 -1.08758 0)
(9.14046 -0.50317 0)
(9.18491 -0.124008 0)
(9.35488 0.213075 0)
(9.19776 0.854567 0)
(9.68443 1.17221 0)
(10.0179 1.46698 0)
(10.2742 1.87922 0)
(10.8459 1.92612 0)
(11.2547 1.85161 0)
(11.6829 1.69662 0)
(12.0734 1.38753 0)
(12.4948 0.905892 0)
(12.856 0.382619 0)
(13.1417 -0.197316 0)
(13.5081 -0.801357 0)
(13.7041 -1.45039 0)
(13.9414 -2.11624 0)
(14.0088 -2.77996 0)
(14.0445 -3.39005 0)
(13.9125 -3.96975 0)
(13.7866 -4.4286 0)
(13.4846 -4.7841 0)
(13.372 -5.09168 0)
(13.1463 -5.2643 0)
(13.0507 -5.497 0)
(13.0806 -5.69877 0)
(12.8719 -5.73667 0)
(12.7676 -5.69477 0)
(12.311 -5.42603 0)
(11.629 -4.98186 0)
(10.9071 -4.47042 0)
(9.89861 -3.83054 0)
(8.70797 -3.07399 0)
(7.39416 -2.61412 0)
(6.13408 -2.15858 0)
(4.53062 -1.64131 0)
(3.64005 -2.02142 0)
(3.68404 -3.15261 0)
(3.71651 -4.25293 0)
(4.02753 -4.83549 0)
(4.12776 -5.16906 0)
(4.18457 -5.50829 0)
(4.47015 -5.50896 0)
(4.64134 -5.43988 0)
(4.97011 -5.23064 0)
(5.04465 -4.73796 0)
(5.44907 -3.92772 0)
(5.60182 -3.15214 0)
(5.78238 -2.31524 0)
(6.02325 -1.28387 0)
(6.11549 -0.266907 0)
(6.26411 0.767056 0)
(6.54118 1.70238 0)
(6.6301 2.66609 0)
(6.94001 3.65698 0)
(6.90963 4.45042 0)
(7.12771 5.23801 0)
(7.27014 5.86897 0)
(7.24216 6.59405 0)
(7.18693 6.56607 0)
(6.78525 6.45708 0)
(7.24763 6.67598 0)
(7.1727 7.01855 0)