/*--------------------------------*- C++ -*----------------------------------*\
| =========                 |                                                 |
| \\      /  F ield         | OpenFOAM: The Open Source CFD Toolbox           |
|  \\    /   O peration     | Version:  2.4.0                                 |
|   \\  /    A nd           | Web:      www.OpenFOAM.org                      |
|    \\/     M anipulation  |                                                 |
\*---------------------------------------------------------------------------*/
FoamFile
{
    version     2.0;
    format      ascii;
    class       volScalarField;
    location    "1.63";
    object      k;
}
// * * * * * * * * * * * * * * * * * * * * * * * * * * * * * * * * * * * * * //

dimensions      [0 2 -2 0 0 0 0];

internalField   nonuniform List<scalar> 
8800
(
8.11288
10.2725
8.78397
6.84308
5.67852
5.01198
4.48348
4.19062
3.86456
3.72308
3.48683
3.42484
3.24465
3.21404
3.05827
3.04032
2.91217
2.88797
2.84717
2.67305
1.39148
4.36191
5.30845
5.29472
5.10786
4.86086
4.52143
4.34513
4.06143
3.94214
3.71465
3.64121
3.46966
3.42179
3.29059
3.2513
3.15074
3.11011
3.01826
3.02206
0.0833764
0.747995
1.53662
1.97039
2.24355
2.46953
2.54841
2.6244
2.61091
2.60841
2.57844
2.55751
2.50964
2.48749
2.45167
2.40913
2.3942
2.36048
2.29698
2.28425
0.00328769
0.0714204
0.23682
0.442196
0.57606
0.70781
0.83157
0.938368
1.021
1.08788
1.17106
1.20322
1.26636
1.29113
1.35101
1.3588
1.39829
1.40795
1.41126
1.3963
0.000119284
0.00508383
0.0204814
0.0547533
0.093127
0.117095
0.165775
0.201991
0.248328
0.274211
0.328201
0.350223
0.395445
0.417195
0.469134
0.487551
0.529284
0.554137
0.591362
0.590914
2.56698e-05
0.000323107
0.00137242
0.00421255
0.00887465
0.0118471
0.0187478
0.0241074
0.0350968
0.0409262
0.0531252
0.0613923
0.0742226
0.0811651
0.0976854
0.108731
0.116386
0.133588
0.147219
0.157825
2.24916e-05
4.53569e-05
0.000116123
0.000309518
0.000648739
0.000920846
0.00123986
0.00186832
0.00285745
0.00344782
0.00425607
0.00645682
0.00762827
0.00869458
0.0113302
0.0141394
0.014932
0.0184271
0.0207722
0.0263254
2.15377e-05
3.04151e-05
4.3017e-05
6.98336e-05
0.000108414
0.000133789
0.000145857
0.000190028
0.0002169
0.000266878
0.000299236
0.000457344
0.000501942
0.00063838
0.000764853
0.00107357
0.00109922
0.00153147
0.00179339
0.00276411
2.06941e-05
3.03514e-05
4.03936e-05
5.84083e-05
7.21198e-05
7.6223e-05
7.90588e-05
8.76837e-05
8.87709e-05
9.07591e-05
9.15466e-05
9.92336e-05
0.000100893
0.000108845
0.000115615
0.000137478
0.000138638
0.000160483
0.000170234
0.000221198
2.04321e-05
3.4224e-05
4.68223e-05
4.88095e-05
5.64962e-05
6.27251e-05
7.12924e-05
7.83692e-05
7.79232e-05
7.58597e-05
7.56091e-05
7.67709e-05
7.7124e-05
7.76888e-05
7.84485e-05
8.09757e-05
8.24445e-05
8.51602e-05
8.55307e-05
8.75304e-05
2.05174e-05
3.33602e-05
4.02151e-05
5.32271e-05
5.54875e-05
6.46044e-05
7.43e-05
7.7274e-05
7.7408e-05
7.75972e-05
7.55023e-05
7.49153e-05
7.40437e-05
7.42107e-05
7.71748e-05
8.5224e-05
8.55319e-05
8.62962e-05
8.71077e-05
9.20263e-05
2.07683e-05
2.98071e-05
4.04578e-05
5.07603e-05
6.33837e-05
8.11331e-05
8.17052e-05
8.26092e-05
8.2781e-05
8.24928e-05
8.41367e-05
9.4792e-05
0.000100169
0.000104636
0.000117205
0.000126482
0.000133344
0.00015123
0.000169066
0.000218944
2.09793e-05
3.07139e-05
4.87325e-05
6.27408e-05
0.000100999
0.00012458
0.000135313
0.000176161
0.000204349
0.000275599
0.000339259
0.000468102
0.000520316
0.000663393
0.000770998
0.00102274
0.00120631
0.00163898
0.00193638
0.00273551
2.1608e-05
4.35889e-05
0.000119592
0.000328557
0.000498272
0.000875913
0.00118631
0.0020815
0.00263862
0.00395733
0.00474723
0.00649069
0.00741058
0.00972977
0.0110611
0.0141778
0.0161006
0.0207357
0.0236128
0.0316561
2.49648e-05
0.000308733
0.00148956
0.00431197
0.0070292
0.0130334
0.0170925
0.027251
0.0328343
0.0451024
0.0514888
0.0650489
0.0715453
0.0869329
0.0946262
0.112449
0.122049
0.145465
0.158508
0.196437
0.000123303
0.00493221
0.0233683
0.0515673
0.0863429
0.128707
0.155225
0.211939
0.238881
0.290268
0.315404
0.362991
0.384883
0.434297
0.456259
0.50675
0.531202
0.591627
0.62155
0.701312
0.00336893
0.0697617
0.262199
0.411913
0.588751
0.703246
0.829183
0.936193
1.02146
1.09728
1.16183
1.21671
1.25482
1.31025
1.33383
1.38331
1.40465
1.45861
1.48159
1.5373
0.0846923
0.729583
1.56797
1.93299
2.28625
2.42723
2.57971
2.59748
2.62696
2.59971
2.58948
2.5411
2.52465
2.47523
2.46152
2.41988
2.41003
2.38408
2.37339
2.34814
1.40778
4.3499
5.31935
5.28503
5.13187
4.79601
4.59192
4.27041
4.13411
3.86954
3.77705
3.57793
3.51999
3.36476
3.3278
3.19879
3.16821
3.04812
3.00742
2.90266
8.12251
10.2624
8.79221
6.81724
5.71277
4.95823
4.5419
4.12598
3.92958
3.64716
3.5533
3.34711
3.30005
3.1306
3.09884
2.93479
2.8993
2.71671
2.64869
2.4225
1.88389
1.39761
1.11247
0.924852
0.789763
0.691864
0.618815
0.567531
0.535299
0.517758
0.510093
0.506725
0.505259
0.50592
0.507543
0.509366
0.511413
0.514056
0.518017
0.523277
0.526856
0.529951
0.531772
0.534196
0.534102
0.534168
0.531436
0.529338
0.523279
0.519081
0.51
0.501054
0.478042
0.452156
0.426046
0.395019
0.367953
0.346141
0.33708
0.337719
0.342214
0.355075
0.37305
0.40082
0.433072
0.456713
0.475828
0.490754
0.498187
0.498118
0.495575
0.490058
0.481028
0.466538
0.453036
0.442406
0.422461
0.404571
0.383059
0.362996
0.336102
0.299632
0.27005
0.218264
0.166301
0.109679
0.0648633
0.0386943
0.0232229
0.01478
0.010238
0.0070406
0.00536792
0.00466797
0.00422164
0.00422122
0.00453552
0.00595837
0.0106879
0.0256924
0.0693768
0.174818
0.273294
0.297474
0.288873
0.268075
0.238402
0.212576
0.185693
0.169507
0.164967
0.166197
0.170669
0.174221
0.174328
0.172632
0.166821
0.160074
0.147415
0.130408
0.0957824
0.0614557
0.0446487
0.0397657
0.0398952
0.0401467
0.0409157
0.0432932
0.0447864
0.0471157
0.054347
0.0605929
0.0615599
0.0608943
0.0611272
0.0696455
0.11209
0.144264
0.157815
0.15981
0.154095
0.133641
0.1061
0.0850902
0.0733892
0.065397
0.0565062
0.0512814
0.0501094
0.0504026
0.0535249
0.0621824
0.0651994
0.0648531
0.0636972
0.0570672
0.0536326
0.0543046
0.0591685
0.0973961
0.278659
0.453672
0.510428
0.48091
0.303921
0.159371
0.0911415
0.0602295
0.0470806
0.040131
0.0377463
0.036174
0.0355437
0.035421
0.034228
0.0339088
0.0338122
0.0341532
0.0356664
0.0401654
0.0648487
0.0826536
0.0839139
0.0803657
0.0758707
0.0746315
0.0790433
0.0955559
0.0980591
0.0950234
0.0907837
0.0912085
0.09739
0.120267
0.127727
0.123046
0.106388
0.0852373
0.0715029
0.0703244
0.0678018
0.0679293
0.0651029
0.0582757
0.0630127
0.0577586
0.0785621
0.0664683
0.0845135
0.07984
0.0865177
0.0849906
0.0785818
0.0721648
0.0538029
0.060682
0.0590275
0.0726056
0.0751342
0.307143
2.58711
2.13611
1.78584
1.53875
1.35515
1.21923
1.11177
1.02608
0.958405
0.901726
0.851906
0.812765
0.778187
0.75207
0.728165
0.708832
0.692218
0.675691
0.662615
0.646378
0.635758
0.622151
0.612923
0.603839
0.592749
0.58829
0.57827
0.575532
0.570081
0.568962
0.566603
0.566511
0.566571
0.564378
0.560648
0.553046
0.534137
0.51718
0.49233
0.478311
0.463475
0.455372
0.454037
0.453686
0.454715
0.4585
0.460092
0.461574
0.461714
0.460432
0.456037
0.449663
0.433472
0.421422
0.40856
0.384017
0.358935
0.328064
0.298634
0.264781
0.222034
0.176462
0.123444
0.0812255
0.0526853
0.0328005
0.0207763
0.0139998
0.00928543
0.00707525
0.00537532
0.00425631
0.0039307
0.00393532
0.00404019
0.00456094
0.00621203
0.01072
0.023804
0.0659808
0.189698
0.314206
0.334537
0.319121
0.283867
0.220818
0.174751
0.144792
0.126998
0.118827
0.118101
0.119462
0.123745
0.136456
0.154444
0.162835
0.16315
0.160978
0.156275
0.143132
0.128461
0.104341
0.0696526
0.0510187
0.044822
0.0419653
0.0415447
0.0423558
0.0429606
0.0445554
0.0528349
0.0607424
0.0620156
0.0610408
0.0599767
0.0629636
0.0871324
0.11859
0.13979
0.147047
0.146747
0.13929
0.117957
0.0960798
0.0835302
0.0723598
0.0618169
0.0583197
0.0582761
0.0593252
0.0652071
0.0687296
0.0676999
0.0656375
0.0638751
0.0550397
0.0480959
0.0482755
0.0523332
0.084257
0.262525
0.462694
0.537989
0.511128
0.324119
0.165761
0.0914082
0.0599626
0.046014
0.0389391
0.0364014
0.0357067
0.0353357
0.0350113
0.0341101
0.0329888
0.032427
0.0326699
0.0340643
0.0369121
0.0561843
0.0808024
0.0825942
0.0790125
0.0751883
0.0747175
0.0756044
0.0848101
0.0924302
0.0917472
0.0849832
0.0832878
0.0846856
0.0939631
0.114923
0.120139
0.115288
0.101731
0.0816277
0.0728264
0.0739256
0.071141
0.0823832
0.0707678
0.0872531
0.0721333
0.0830819
0.0771749
0.0797916
0.0805074
0.0759037
0.0767035
0.0708947
0.0618336
0.0516391
0.0529277
0.0635408
0.0625804
0.060318
0.089041
2.07944
1.86047
1.6528
1.47521
1.32968
1.21113
1.1182
1.04384
0.980869
0.927651
0.878263
0.833243
0.792052
0.754811
0.725485
0.695723
0.67406
0.653744
0.636528
0.618343
0.603462
0.582855
0.564814
0.550021
0.528857
0.518182
0.504206
0.492968
0.487463
0.480045
0.474465
0.472307
0.472785
0.473109
0.473897
0.48013
0.481278
0.482278
0.481831
0.478872
0.47681
0.469325
0.462476
0.454086
0.446694
0.437603
0.42505
0.415906
0.400349
0.386249
0.374239
0.349617
0.326971
0.310452
0.286584
0.257559
0.222734
0.188833
0.154228
0.11767
0.0847259
0.0590861
0.0398303
0.0258861
0.017324
0.0110152
0.00802155
0.00604408
0.00443168
0.0039857
0.00335232
0.00328055
0.00352345
0.00379592
0.0045578
0.00665088
0.0110904
0.0218888
0.0547704
0.171191
0.349072
0.378267
0.355743
0.297224
0.199996
0.151503
0.130357
0.118682
0.110344
0.107187
0.1072
0.108012
0.109442
0.112837
0.119026
0.136393
0.151929
0.156486
0.155676
0.149693
0.141891
0.131393
0.105451
0.0781752
0.0594434
0.0485276
0.0441584
0.0432441
0.0432846
0.044944
0.0537575
0.0626965
0.0650773
0.0637943
0.0606694
0.0616387
0.0771514
0.103129
0.123057
0.132746
0.135745
0.13464
0.127021
0.109316
0.0975814
0.0836034
0.0726081
0.070456
0.0706889
0.0712615
0.0724553
0.0722916
0.0685392
0.0652296
0.0628974
0.0526083
0.0431393
0.0421916
0.0455538
0.0731867
0.235672
0.468818
0.559569
0.53759
0.345177
0.175932
0.0957035
0.0608842
0.0457686
0.0385237
0.0359941
0.0341441
0.0341671
0.0340451
0.0331663
0.0327327
0.0321289
0.0314213
0.0324067
0.0368093
0.0557035
0.0772989
0.0829299
0.0796065
0.0729995
0.0714855
0.0726208
0.080555
0.0877308
0.0881424
0.084443
0.0778015
0.0776791
0.0801354
0.0890215
0.107568
0.11214
0.108007
0.104449
0.0870508
0.0910274
0.084212
0.0958862
0.0875522
0.0933129
0.0884672
0.0884501
0.0864417
0.079626
0.0778515
0.0706366
0.066375
0.0569749
0.0467012
0.0432538
0.0436693
0.0600281
0.0653041
0.0698634
0.0730817
1.30741
1.21445
1.13141
1.04802
0.974012
0.906611
0.842148
0.79225
0.746612
0.711439
0.680704
0.648405
0.616109
0.584081
0.549831
0.522974
0.495463
0.472555
0.457313
0.43737
0.424242
0.410488
0.392118
0.378872
0.3666
0.350287
0.343601
0.332313
0.323257
0.318554
0.314884
0.311339
0.307789
0.304233
0.298918
0.298781
0.298426
0.296316
0.297263
0.298462
0.303137
0.306931
0.306827
0.307366
0.306934
0.304364
0.293617
0.282384
0.263528
0.24476
0.222985
0.197403
0.173302
0.14914
0.12493
0.10042
0.0798978
0.062166
0.0469803
0.0349475
0.0246917
0.01762
0.0117592
0.00820699
0.0058604
0.00414791
0.00370075
0.00298642
0.0027138
0.00274529
0.00277409
0.00306505
0.00380773
0.0047744
0.00753665
0.0124796
0.0208872
0.0448996
0.125805
0.3542
0.422935
0.400318
0.317604
0.198744
0.147637
0.126859
0.118255
0.112534
0.107199
0.105379
0.105159
0.105622
0.108117
0.10971
0.111234
0.116177
0.131106
0.1477
0.152438
0.151113
0.1477
0.142006
0.130616
0.103453
0.0802378
0.0636116
0.0512493
0.0468054
0.0464508
0.0486015
0.0598217
0.0688876
0.0700675
0.0656879
0.0614211
0.06217
0.0727655
0.0907842
0.109371
0.120585
0.126909
0.128813
0.127164
0.119869
0.112812
0.098351
0.0889902
0.0865015
0.0815195
0.0762156
0.0750698
0.0736628
0.0666744
0.0628053
0.0600583
0.0486433
0.0372852
0.0359866
0.0385385
0.0595775
0.20797
0.45989
0.57683
0.55939
0.37435
0.191443
0.101789
0.0624853
0.0462869
0.0385718
0.0356106
0.0336253
0.0313754
0.0312831
0.0315782
0.030962
0.0320152
0.0314407
0.0322238
0.0372088
0.0594685
0.0757643
0.0846519
0.0816228
0.073345
0.0687068
0.0675452
0.0722984
0.0826556
0.0846132
0.0832517
0.0772513
0.072606
0.0719447
0.0740511
0.0814028
0.103984
0.104979
0.107804
0.0988124
0.100004
0.0925957
0.0953959
0.0916434
0.0921012
0.0905194
0.0870041
0.0851961
0.0794918
0.0733897
0.0633361
0.0574794
0.0479054
0.0408803
0.0406603
0.0432489
0.0465092
0.0631622
0.06786
0.0868752
0.569589
0.544504
0.519597
0.495081
0.469019
0.446582
0.422983
0.399507
0.380165
0.363686
0.350531
0.343207
0.328073
0.317364
0.296913
0.277453
0.25764
0.236692
0.222599
0.209583
0.198043
0.191784
0.181502
0.170873
0.164739
0.154482
0.149728
0.146258
0.140897
0.136984
0.133196
0.13238
0.132809
0.135341
0.137946
0.139049
0.138269
0.13341
0.130036
0.126183
0.121513
0.11931
0.11727
0.115235
0.113822
0.111831
0.10886
0.105374
0.099131
0.0919484
0.0810743
0.0696916
0.0581356
0.0471615
0.0376502
0.0290121
0.0226656
0.0168745
0.0128839
0.00936452
0.00685097
0.0050913
0.0034842
0.00295304
0.00231227
0.00213434
0.0021558
0.00212141
0.00228062
0.00249455
0.00290503
0.00450555
0.00592067
0.00851075
0.0154006
0.0227633
0.0382936
0.0934898
0.307692
0.460422
0.454047
0.36649
0.219397
0.15581
0.129041
0.118533
0.115057
0.111925
0.107854
0.105658
0.104937
0.105283
0.107638
0.108158
0.108552
0.110563
0.116041
0.132942
0.143714
0.148404
0.1471
0.145532
0.141943
0.12931
0.110866
0.0862871
0.0648718
0.0590763
0.0593634
0.0625355
0.0713073
0.0735489
0.0708329
0.0641196
0.0609476
0.0616748
0.0706079
0.0901595
0.106385
0.11403
0.121471
0.125385
0.125405
0.123704
0.12056
0.10707
0.0955071
0.0917368
0.0846462
0.0761117
0.0738951
0.0709717
0.0646946
0.0612408
0.0563698
0.0406446
0.0311281
0.0301415
0.0330197
0.0527348
0.178921
0.445809
0.587008
0.581866
0.420227
0.216122
0.108966
0.0635587
0.0472325
0.039705
0.0358985
0.03316
0.0306688
0.0294673
0.0296419
0.0305431
0.0311406
0.0331279
0.0328134
0.0380672
0.0694454
0.0798516
0.0829656
0.0839622
0.0747603
0.0707519
0.0673192
0.0677632
0.0770691
0.0784955
0.0800335
0.0751117
0.0653085
0.0655185
0.0663379
0.0694032
0.084283
0.0956571
0.101403
0.0973066
0.0958469
0.0920804
0.0887017
0.0890407
0.0869226
0.087592
0.084448
0.0832824
0.0781992
0.0734591
0.0624018
0.0576796
0.0483342
0.0464
0.0437673
0.0486726
0.04991
0.0602637
0.0642602
0.0780384
0.154366
0.149797
0.143086
0.136691
0.130821
0.125733
0.121377
0.116596
0.112142
0.108304
0.105946
0.104282
0.102476
0.100845
0.0968753
0.0894377
0.0815328
0.0729526
0.067469
0.0628494
0.059294
0.0578721
0.0549609
0.0517002
0.0489959
0.044617
0.0424241
0.0407511
0.0394768
0.0391166
0.0383826
0.0382859
0.038463
0.0387593
0.039699
0.041111
0.0420576
0.0422133
0.0412227
0.0392639
0.0359547
0.0330069
0.0304076
0.0278456
0.0267037
0.0258204
0.0251775
0.0245882
0.0239027
0.0232612
0.0217042
0.0188205
0.015193
0.0123203
0.00943067
0.00729499
0.00566631
0.00417363
0.00333709
0.00240037
0.00200081
0.00157085
0.00144905
0.00149144
0.00151992
0.00172442
0.00182997
0.00206321
0.0028566
0.00362823
0.0054787
0.00915905
0.011283
0.0175094
0.0263505
0.0367941
0.0677689
0.20479
0.47335
0.5324
0.469967
0.276965
0.178939
0.138703
0.122006
0.115628
0.114133
0.113664
0.112208
0.109431
0.109238
0.109894
0.109065
0.107801
0.108286
0.110519
0.116572
0.129961
0.140118
0.145455
0.145028
0.146066
0.145232
0.14052
0.133121
0.106452
0.0872484
0.0811615
0.0748835
0.0743504
0.075176
0.0725458
0.0646885
0.0593763
0.0579501
0.060291
0.0731731
0.0929088
0.103525
0.107897
0.116139
0.121352
0.122615
0.122164
0.119368
0.105224
0.0940346
0.0894871
0.0803667
0.0724902
0.0701194
0.0669596
0.0623326
0.0583234
0.0491104
0.0333682
0.0253726
0.0249817
0.028408
0.0476004
0.151946
0.414796
0.586307
0.601236
0.474722
0.241539
0.116221
0.0634694
0.0487502
0.0420264
0.0364745
0.0329827
0.0300343
0.0289772
0.0286071
0.029268
0.0303893
0.0373104
0.0354534
0.0415628
0.0806229
0.0889787
0.083407
0.0821577
0.0736138
0.0716323
0.0738414
0.0691672
0.0699786
0.0712048
0.0684532
0.0713189
0.0655595
0.0658104
0.064801
0.0649359
0.0674263
0.0786556
0.0833465
0.088893
0.0864427
0.0872463
0.0844676
0.0850346
0.0825404
0.0831684
0.0821146
0.0823525
0.0791987
0.0749289
0.0634683
0.0583711
0.0495195
0.0485558
0.0473037
0.0484268
0.0501935
0.0555442
0.0587934
0.0660974
0.0258337
0.0250403
0.0232961
0.0219564
0.021009
0.0203459
0.0199714
0.0195093
0.0191696
0.0189245
0.0188403
0.018812
0.0187605
0.0185847
0.0183162
0.0175116
0.0158367
0.0141259
0.0128605
0.0120946
0.0116698
0.011552
0.0112135
0.0105945
0.00978892
0.00873505
0.00818914
0.00783505
0.00771028
0.00775822
0.00787479
0.00802202
0.00830588
0.00841924
0.00859789
0.00885404
0.00899806
0.00902777
0.00881344
0.00817978
0.00726529
0.00641144
0.00560295
0.00501933
0.00478231
0.00483968
0.00499916
0.00501395
0.00500234
0.00491968
0.00465582
0.00389643
0.00312368
0.00255728
0.00201473
0.00169635
0.00134507
0.00119534
0.00102942
0.000979609
0.0010042
0.00102536
0.0011837
0.00133704
0.00157659
0.00219008
0.00271268
0.00421871
0.00629792
0.00802385
0.0131036
0.0161981
0.0199961
0.0315157
0.0399907
0.0577252
0.120339
0.386084
0.587987
0.57071
0.391659
0.231969
0.160454
0.13112
0.119197
0.114685
0.113803
0.11442
0.114159
0.112873
0.114332
0.116618
0.115584
0.113129
0.112822
0.114492
0.121445
0.132844
0.141992
0.143171
0.14291
0.145452
0.147853
0.150931
0.147808
0.126204
0.11182
0.0962417
0.0819954
0.0771896
0.0737439
0.0647562
0.057669
0.0539255
0.0538599
0.0616469
0.0792479
0.0902623
0.0931469
0.0955486
0.10371
0.110821
0.112575
0.112292
0.107011
0.092105
0.0835058
0.0799452
0.0732169
0.0673806
0.0653907
0.0636505
0.0597127
0.0509644
0.0374927
0.026412
0.0221673
0.0226509
0.0271691
0.0454526
0.123918
0.359299
0.573573
0.621373
0.536788
0.268468
0.1193
0.0628271
0.0502304
0.0447353
0.0384787
0.032557
0.0296862
0.0284334
0.0296668
0.0305376
0.0318888
0.0363313
0.0480342
0.0542534
0.0816859
0.111597
0.092033
0.0749608
0.0740718
0.070061
0.0774437
0.0758745
0.0728747
0.0748472
0.0696147
0.0702984
0.0666761
0.0632277
0.0609176
0.0593819
0.0594251
0.0641898
0.0670215
0.0740189
0.0747645
0.0776574
0.0771665
0.079428
0.0786509
0.0804918
0.080414
0.0810779
0.0794266
0.0772087
0.0689862
0.0635053
0.0554278
0.050884
0.0478884
0.0475708
0.0477521
0.0488147
0.0521874
0.0557071
0.00273277
0.00266042
0.0024842
0.00234158
0.00222952
0.0021491
0.00212039
0.00211599
0.00211749
0.00212539
0.00216377
0.00219344
0.00219602
0.00218316
0.00215984
0.00203592
0.0018476
0.00168569
0.00158807
0.00153952
0.00151382
0.00151065
0.00145758
0.00134946
0.00123316
0.00109619
0.00102827
0.000990143
0.000977312
0.000993358
0.0010443
0.00108645
0.00114421
0.00116836
0.00118135
0.00118894
0.00118105
0.00112503
0.0010557
0.000985557
0.000930843
0.000861039
0.000797066
0.000766296
0.000747418
0.000748286
0.000752988
0.000748658
0.000747388
0.000732922
0.00067823
0.000632889
0.000637088
0.000660623
0.000701935
0.000721731
0.000755744
0.000813698
0.000880311
0.00108009
0.00125387
0.00151923
0.00211862
0.00260043
0.00394787
0.00528492
0.00679669
0.0112672
0.0137754
0.0183748
0.0243376
0.0274141
0.0362479
0.048553
0.0607925
0.0946786
0.229954
0.579869
0.654364
0.568152
0.351298
0.215395
0.152799
0.127738
0.117972
0.114558
0.114231
0.115336
0.114929
0.113035
0.1154
0.117631
0.118265
0.121031
0.124094
0.131199
0.140462
0.146416
0.148262
0.143343
0.142804
0.145697
0.154531
0.160302
0.158468
0.147886
0.125257
0.100554
0.082912
0.0755187
0.0680783
0.0593127
0.053149
0.050854
0.0534779
0.0683768
0.0821359
0.0856141
0.0853485
0.0859762
0.0933558
0.0977318
0.0973476
0.0948387
0.0874482
0.0789223
0.0750185
0.0730294
0.0673502
0.0616939
0.0601967
0.0582831
0.053025
0.0403388
0.0285704
0.0218603
0.0202943
0.0216629
0.0270002
0.045445
0.104176
0.29206
0.542935
0.640366
0.59202
0.301943
0.120067
0.0627812
0.0509969
0.0489979
0.0430082
0.0332315
0.0298332
0.0294642
0.0294749
0.0347876
0.0398258
0.0549283
0.0842101
0.0929952
0.0861244
0.0946643
0.122744
0.0848661
0.0788171
0.0710625
0.0735367
0.0858445
0.0785086
0.0867791
0.0792791
0.0729696
0.0700819
0.0645335
0.06285
0.0593342
0.0588206
0.0590577
0.0603162
0.0645076
0.0655289
0.0677673
0.0675328
0.0707171
0.0710583
0.0746506
0.0757703
0.0778009
0.0773881
0.0763573
0.0736501
0.0684487
0.0610986
0.0545772
0.0503048
0.0483071
0.0482274
0.049739
0.0504325
0.0518305
0.000225815
0.000232856
0.000233331
0.000230278
0.00022221
0.000212757
0.000208705
0.000207694
0.000208051
0.00021058
0.000215288
0.000218491
0.000220178
0.000219993
0.000217724
0.000216025
0.000212459
0.000209681
0.000203155
0.000195286
0.000190818
0.000184088
0.000176755
0.000170517
0.000163645
0.00015858
0.000155279
0.000153836
0.000153574
0.000156282
0.000164374
0.000171492
0.000177348
0.000180533
0.000180687
0.000179876
0.000177254
0.000175311
0.000175768
0.000176143
0.000177214
0.000176839
0.000176659
0.00018712
0.000200986
0.000216727
0.000226446
0.000231255
0.000235532
0.000276666
0.000325122
0.000412831
0.00048449
0.000611138
0.000879176
0.0010827
0.00152015
0.00184659
0.00238734
0.00322665
0.0037591
0.00504683
0.00611209
0.00773393
0.0117051
0.0140099
0.018742
0.0245943
0.0278755
0.0359169
0.0420465
0.0478948
0.0639314
0.0762132
0.0969608
0.147992
0.381877
0.67232
0.694967
0.560958
0.346513
0.21237
0.151254
0.126948
0.118073
0.114952
0.115262
0.116495
0.115643
0.110922
0.108406
0.110302
0.114241
0.122868
0.135236
0.148571
0.154744
0.154928
0.150049
0.142972
0.143756
0.148345
0.163878
0.170822
0.170652
0.157037
0.126287
0.0982735
0.0771312
0.0671317
0.0590613
0.0516932
0.0473368
0.0474599
0.0548145
0.0705962
0.0798442
0.0800181
0.0787061
0.081753
0.0889983
0.0895704
0.0884284
0.0864794
0.0791872
0.0712079
0.0682645
0.0649162
0.0592704
0.056456
0.0554431
0.0531456
0.0420253
0.0291512
0.0219991
0.0195195
0.0195006
0.0217556
0.0280786
0.0490884
0.106961
0.224105
0.48225
0.665118
0.646795
0.338234
0.119608
0.0621
0.0516509
0.0519195
0.0506618
0.0384637
0.0313556
0.0312369
0.0340046
0.0385253
0.0586217
0.0943519
0.151763
0.107129
0.109045
0.0965495
0.11834
0.0967911
0.0855929
0.0905391
0.0899699
0.0989024
0.0941518
0.0876901
0.0830812
0.0730944
0.0702893
0.0639881
0.0643141
0.0610613
0.0608417
0.0592659
0.0605998
0.0612461
0.0636166
0.063422
0.0625094
0.0628191
0.0647052
0.0686104
0.0694949
0.0710245
0.0716367
0.0728154
0.0725003
0.0710572
0.067066
0.0616461
0.0574751
0.0548072
0.0543881
0.0547707
0.0551185
0.0538028
8.80739e-05
8.95043e-05
9.37407e-05
9.70688e-05
9.74471e-05
9.6989e-05
9.67939e-05
9.74756e-05
9.90667e-05
9.96648e-05
0.000101277
0.000102123
0.00010376
0.000105758
0.00010599
0.000106038
0.000104331
0.000102571
0.000102045
0.000102225
0.000102572
0.000103128
0.000105666
0.000107253
0.000109686
0.000111757
0.000113858
0.000119236
0.00012427
0.000127506
0.000131949
0.000135138
0.000137722
0.000140977
0.000141356
0.000141654
0.000142107
0.000143832
0.000152086
0.000162283
0.000180202
0.000215932
0.000239746
0.000268053
0.000294612
0.000316951
0.000370042
0.00042772
0.000546494
0.00069567
0.000934566
0.00136802
0.00173023
0.002483
0.00304546
0.00398329
0.00545219
0.00632981
0.00812718
0.00936341
0.0117034
0.0154052
0.0180046
0.0232922
0.0288614
0.0332415
0.043869
0.04925
0.0552154
0.0693761
0.076186
0.0885463
0.10654
0.119621
0.1459
0.218003
0.523502
0.738233
0.727642
0.569603
0.381088
0.231069
0.158062
0.128727
0.120267
0.116678
0.116717
0.119918
0.119451
0.111673
0.104467
0.103129
0.107474
0.120405
0.134889
0.148087
0.1522
0.150859
0.143646
0.142568
0.145666
0.158039
0.173928
0.180493
0.178158
0.155605
0.119506
0.0832969
0.0645816
0.0552255
0.0460526
0.0405042
0.0400564
0.0434308
0.051064
0.0617028
0.0650845
0.0668586
0.0735871
0.0824222
0.0842722
0.0817417
0.0797552
0.0775491
0.0702046
0.0628641
0.0600674
0.057188
0.0539323
0.0525669
0.0510691
0.0435935
0.0299378
0.0222701
0.019235
0.0188379
0.020046
0.0254738
0.0329789
0.0579655
0.115288
0.184495
0.392662
0.686459
0.69797
0.371334
0.11753
0.0629474
0.0523473
0.0534352
0.0552595
0.0496948
0.0396926
0.0373945
0.045762
0.0849635
0.20791
0.53812
1.00332
0.266621
0.172141
0.106219
0.12708
0.112703
0.118233
0.102398
0.0956475
0.0987783
0.104381
0.0929671
0.0905605
0.0763899
0.0734945
0.0653883
0.0660133
0.0631853
0.0625222
0.0601343
0.0603985
0.0591008
0.059833
0.0593096
0.0594289
0.0593849
0.0617307
0.0636552
0.0663853
0.0684263
0.0697392
0.0707492
0.0708969
0.0706756
0.0694936
0.06718
0.0660302
0.0650622
0.0641458
0.0634463
0.061656
0.0573005
9.37595e-05
9.61954e-05
9.81173e-05
0.000100172
0.000101902
0.000103322
0.000103888
0.000104594
0.000104793
0.000105057
0.000107192
0.00011299
0.00011658
0.000125065
0.000132924
0.000140685
0.000154469
0.000162389
0.000167087
0.00017838
0.000186187
0.000204562
0.000231417
0.000250285
0.000274962
0.000290056
0.000298044
0.000308445
0.000330536
0.000378109
0.000428675
0.000465219
0.000487505
0.000495225
0.00049458
0.000492633
0.00049261
0.000508119
0.000626953
0.000737791
0.000882097
0.00101455
0.00114143
0.00129982
0.00144613
0.00169794
0.00192353
0.00222838
0.00306787
0.00379164
0.00502119
0.0058752
0.00742931
0.00951868
0.0109159
0.0141917
0.0161932
0.0200961
0.0237532
0.0268092
0.0343691
0.0401133
0.0475403
0.0587596
0.0647984
0.075524
0.0892828
0.0975825
0.112489
0.13211
0.13984
0.156382
0.170099
0.177076
0.203222
0.347992
0.691748
0.767143
0.736363
0.672292
0.492611
0.294569
0.182881
0.138981
0.122572
0.118886
0.117678
0.121437
0.126095
0.121684
0.109507
0.104352
0.105321
0.112306
0.122097
0.128291
0.131226
0.134402
0.138167
0.142946
0.152086
0.172319
0.186043
0.189857
0.178996
0.141677
0.100265
0.0718015
0.0576445
0.0464043
0.0388305
0.0361484
0.0357034
0.0363313
0.0386201
0.0444305
0.0487916
0.0580586
0.0716159
0.0767279
0.0746752
0.0715663
0.0704155
0.0674329
0.0604467
0.0567002
0.054836
0.0521608
0.0501725
0.0482117
0.0407976
0.029105
0.0227755
0.0194435
0.0188703
0.0199186
0.0278891
0.0384967
0.0443201
0.0671002
0.115442
0.171274
0.31801
0.684381
0.744054
0.413733
0.122028
0.065723
0.0544745
0.0543142
0.0575709
0.0573027
0.0545415
0.0584264
0.0747876
0.156575
0.436591
0.601797
0.520293
0.300575
0.217398
0.148536
0.234806
0.148785
0.306858
0.173802
0.127597
0.100813
0.0986631
0.0894198
0.0910224
0.08143
0.0847751
0.0739916
0.073863
0.0698475
0.0681934
0.0632385
0.061702
0.0581925
0.0572168
0.055254
0.0550403
0.0554944
0.0600324
0.062211
0.0653451
0.0679054
0.0702499
0.0707772
0.0707084
0.0710219
0.0709243
0.069919
0.0685061
0.0677413
0.0662016
0.064743
0.0611846
0.0591608
0.000267306
0.000275653
0.000280241
0.000291786
0.000299033
0.000311223
0.000318731
0.000332353
0.000350481
0.000368676
0.000443946
0.000515022
0.000584653
0.000679455
0.000737747
0.000829423
0.000924027
0.000965317
0.00102836
0.00107497
0.0011367
0.00131769
0.00148707
0.00165827
0.00180852
0.00188448
0.00193526
0.00201098
0.00217012
0.00244929
0.0026986
0.00286494
0.00296473
0.00299797
0.0030074
0.00301879
0.00302827
0.00316382
0.00382602
0.0042656
0.0050826
0.00549729
0.00629641
0.00678836
0.00758915
0.00886087
0.00977743
0.01196
0.0134471
0.0163727
0.0189607
0.0221596
0.0267951
0.0302045
0.0358282
0.0414582
0.0476371
0.0572258
0.0630704
0.073728
0.085931
0.0952336
0.111994
0.124115
0.135846
0.159445
0.175979
0.193316
0.222343
0.237931
0.241237
0.254839
0.254173
0.250261
0.269871
0.459682
0.707642
0.751661
0.740549
0.750681
0.658024
0.406446
0.236656
0.16157
0.132346
0.122308
0.119917
0.122385
0.128886
0.132593
0.129536
0.12043
0.116269
0.116943
0.120657
0.124408
0.129232
0.134447
0.139989
0.149986
0.170714
0.187554
0.196882
0.191367
0.165557
0.124909
0.0904746
0.0682242
0.0544514
0.0445135
0.0389203
0.0364374
0.0348395
0.0346415
0.0351733
0.0368674
0.0405869
0.0515939
0.0598784
0.0602363
0.0608103
0.0617815
0.0614234
0.0579275
0.0530973
0.051111
0.0495461
0.0475552
0.0437335
0.0343716
0.0267717
0.0223919
0.0201627
0.0199777
0.0216823
0.0294685
0.0495761
0.0588354
0.0608934
0.0729136
0.106714
0.150238
0.254092
0.64613
0.800311
0.477995
0.139283
0.0756699
0.0589526
0.0574188
0.0591749
0.0601461
0.0585374
0.0669604
0.105338
0.190455
0.390143
0.426628
0.341989
0.34702
0.48504
0.178785
1.00224
0.288144
0.884551
0.408184
0.389168
0.174099
0.123625
0.0907631
0.0899307
0.0815369
0.0855317
0.0805832
0.0808187
0.0767441
0.0736029
0.0665401
0.0631083
0.0592659
0.0576721
0.0555134
0.0532416
0.0529882
0.0550254
0.0577332
0.061576
0.0639168
0.0680071
0.0700561
0.0716068
0.0722
0.0720664
0.0712765
0.069239
0.0675189
0.0650337
0.062092
0.0588137
0.0572814
0.00337163
0.00342681
0.00344669
0.00344735
0.00341297
0.00343247
0.00347155
0.0035721
0.00395188
0.00426875
0.00513234
0.00559174
0.0060198
0.00653749
0.00674069
0.00718088
0.00753735
0.00771582
0.00811106
0.00837527
0.00896704
0.00994191
0.0106258
0.0114023
0.0118634
0.0120944
0.0122626
0.0124197
0.012789
0.0137404
0.0145878
0.0152571
0.0157197
0.0159285
0.0160764
0.0162244
0.0163789
0.0167873
0.01865
0.0198409
0.0223498
0.0237107
0.0263589
0.0279265
0.0311685
0.0339383
0.0371257
0.0435005
0.0469957
0.0546025
0.0595383
0.0698003
0.0760188
0.0877317
0.100993
0.109499
0.128608
0.140634
0.154817
0.175462
0.188141
0.208501
0.229287
0.245645
0.282657
0.303845
0.329612
0.360796
0.373348
0.376376
0.373162
0.361276
0.323204
0.299995
0.324503
0.534462
0.698033
0.709247
0.687553
0.741013
0.86567
0.602813
0.332641
0.202262
0.150361
0.130611
0.124052
0.123233
0.129362
0.135945
0.138671
0.138958
0.133669
0.130837
0.129852
0.1313
0.134915
0.141706
0.15194
0.168761
0.185613
0.19462
0.196347
0.179215
0.139051
0.106482
0.0791327
0.0621609
0.0512554
0.0442309
0.040872
0.038086
0.0357912
0.0342514
0.0335043
0.0335565
0.0352523
0.0412674
0.0440553
0.047251
0.0500532
0.050256
0.0488352
0.0445557
0.0420537
0.0406063
0.0387636
0.0337648
0.0271561
0.0229351
0.0210335
0.0210184
0.0219423
0.0257875
0.0383286
0.063869
0.0752329
0.0775234
0.0764306
0.0834417
0.10621
0.133319
0.20582
0.56996
0.853977
0.563131
0.178222
0.0999641
0.0679756
0.061776
0.0651017
0.0690626
0.0676374
0.0726429
0.107514
0.187487
0.377648
0.428009
0.343996
0.35274
0.40114
0.223022
0.300083
0.29833
0.241505
0.512917
0.533926
0.330948
0.252632
0.113003
0.104057
0.0861184
0.0884866
0.0865836
0.0806938
0.0745529
0.0719357
0.0663871
0.0625294
0.0616225
0.0603095
0.0592906
0.0555619
0.0535639
0.0533949
0.0534984
0.0541011
0.0545508