/*--------------------------------*- C++ -*----------------------------------*\
| =========                 |                                                 |
| \\      /  F ield         | OpenFOAM: The Open Source CFD Toolbox           |
|  \\    /   O peration     | Version:  2.4.0                                 |
|   \\  /    A nd           | Web:      www.OpenFOAM.org                      |
|    \\/     M anipulation  |                                                 |
\*---------------------------------------------------------------------------*/
FoamFile
{
    version     2.0;
    format      ascii;
    class       volScalarField;
    location    "1.63";
    object      k_0;
}
// * * * * * * * * * * * * * * * * * * * * * * * * * * * * * * * * * * * * * //

dimensions      [0 2 -2 0 0 0 0];

internalField   nonuniform List<scalar> 
8800
(
8.11245
10.2726
8.78432
6.84269
5.67892
5.0117
4.48347
4.19073
3.86454
3.72309
3.4868
3.42489
3.2446
3.21402
3.05823
3.04049
2.91212
2.88792
2.8474
2.67271
1.39125
4.36187
5.30863
5.29473
5.10814
4.86052
4.5214
4.34534
4.06125
3.94222
3.7147
3.64122
3.46963
3.4218
3.29044
3.25142
3.1508
3.10986
3.01867
3.02218
0.0833651
0.747732
1.53676
1.97073
2.24327
2.46955
2.54861
2.6242
2.61075
2.60852
2.57849
2.55745
2.50983
2.4876
2.45108
2.40937
2.39467
2.35966
2.29702
2.28501
0.00328771
0.071388
0.236802
0.442872
0.575478
0.707683
0.832118
0.937939
1.02056
1.08841
1.1711
1.20304
1.2664
1.2914
1.35081
1.35845
1.3989
1.40783
1.41066
1.39605
0.000119322
0.00507978
0.0204857
0.0552033
0.0928334
0.11677
0.16605
0.201901
0.248031
0.274432
0.328349
0.350192
0.395387
0.41733
0.469168
0.487342
0.529451
0.554601
0.59053
0.590619
2.56913e-05
0.000322672
0.00137329
0.00429781
0.00884219
0.0117958
0.0187242
0.0241196
0.0350478
0.0408809
0.0531912
0.061476
0.0741319
0.0811706
0.097976
0.108428
0.116199
0.134047
0.147123
0.157617
2.25113e-05
4.53053e-05
0.000116296
0.000317677
0.00065135
0.000913569
0.0012323
0.00188113
0.00284002
0.00341269
0.00427654
0.0065092
0.00759098
0.0086988
0.0114316
0.0140474
0.0148504
0.0184976
0.0208421
0.0262789
2.15193e-05
3.02282e-05
4.29854e-05
7.10712e-05
0.000109332
0.000133233
0.000145211
0.000189578
0.000215529
0.000264396
0.000299155
0.000459859
0.00050235
0.000642496
0.000771531
0.00106431
0.00109271
0.00154242
0.00179982
0.00274662
2.06803e-05
3.03168e-05
4.02546e-05
5.88226e-05
7.22887e-05
7.61418e-05
7.90709e-05
8.77344e-05
8.85179e-05
9.03961e-05
9.14188e-05
9.92817e-05
0.000100879
0.000109279
0.000116229
0.000137401
0.000138272
0.000160508
0.000170178
0.000221012
2.04397e-05
3.44714e-05
4.59633e-05
4.82894e-05
5.6811e-05
6.32382e-05
7.20041e-05
7.83124e-05
7.7588e-05
7.56044e-05
7.54518e-05
7.67421e-05
7.7103e-05
7.76704e-05
7.84965e-05
8.10637e-05
8.2487e-05
8.5087e-05
8.53915e-05
8.73995e-05
2.05256e-05
3.32324e-05
3.99198e-05
5.28472e-05
5.54976e-05
6.56156e-05
7.46245e-05
7.72219e-05
7.72676e-05
7.73462e-05
7.51594e-05
7.46621e-05
7.39102e-05
7.42113e-05
7.79249e-05
8.5355e-05
8.54862e-05
8.62659e-05
8.71475e-05
9.2274e-05
2.07709e-05
2.97782e-05
4.00458e-05
5.08833e-05
6.45595e-05
8.13503e-05
8.14564e-05
8.22788e-05
8.23371e-05
8.21118e-05
8.41518e-05
9.53828e-05
0.000100195
0.000104821
0.00011753
0.000126127
0.000133009
0.000151133
0.000169137
0.000222372
2.09845e-05
3.08055e-05
4.79983e-05
6.30665e-05
0.00010249
0.00012399
0.000134616
0.000175794
0.000203998
0.000276933
0.000341654
0.000466539
0.000518452
0.000663151
0.000770936
0.00102277
0.00120641
0.00163598
0.00193424
0.00277443
2.1611e-05
4.35775e-05
0.000119348
0.000329431
0.000499417
0.00087418
0.00118636
0.00208514
0.00263978
0.00396073
0.00474888
0.00648177
0.00740501
0.00973303
0.0110611
0.0141733
0.0160973
0.0207311
0.0236155
0.0317973
2.49666e-05
0.00030883
0.00148283
0.00431737
0.00704653
0.0130197
0.0170886
0.0272728
0.0328389
0.0451179
0.0514936
0.0650124
0.0715278
0.0869492
0.0946243
0.112426
0.122037
0.145464
0.158543
0.196554
0.000123332
0.00493329
0.023205
0.0516675
0.0866152
0.128413
0.15514
0.212181
0.238859
0.290353
0.31535
0.362896
0.384881
0.434342
0.45623
0.506696
0.531196
0.591679
0.621643
0.70141
0.00336933
0.069767
0.261926
0.41204
0.589029
0.702852
0.829452
0.936297
1.02122
1.09762
1.16173
1.21647
1.25494
1.31023
1.33377
1.3833
1.40469
1.4587
1.48168
1.53722
0.0846987
0.729637
1.56771
1.93314
2.28631
2.42703
2.5799
2.59755
2.62693
2.59975
2.58946
2.54099
2.52463
2.47528
2.46152
2.41987
2.41006
2.38415
2.37341
2.34811
1.40788
4.34975
5.31933
5.28506
5.13184
4.7962
4.59176
4.27044
4.13424
3.86935
3.77701
3.57802
3.51998
3.36478
3.32782
3.19877
3.16819
3.04816
3.00743
2.90248
8.12265
10.2621
8.79231
6.81722
5.71264
4.95848
4.54175
4.12602
3.92964
3.64702
3.55332
3.34715
3.30004
3.13058
3.09884
2.93481
2.89924
2.71667
2.64863
2.42216
1.88322
1.39782
1.11316
0.925222
0.789833
0.691853
0.618821
0.567689
0.53571
0.518541
0.51105
0.507601
0.505894
0.506514
0.50794
0.509635
0.51158
0.514304
0.518441
0.523785
0.527327
0.530339
0.532123
0.534228
0.534084
0.533913
0.530922
0.528685
0.52227
0.517857
0.508267
0.498349
0.473354
0.447782
0.421436
0.390907
0.364724
0.344146
0.336571
0.337631
0.342688
0.356736
0.375233
0.403468
0.43525
0.458381
0.476942
0.49143
0.498182
0.497902
0.495273
0.489861
0.480157
0.464992
0.45223
0.441321
0.420437
0.402818
0.381269
0.36075
0.332125
0.296638
0.266171
0.213463
0.16242
0.105989
0.0627354
0.0375484
0.0226124
0.0144623
0.00999121
0.00685329
0.00527585
0.0045812
0.00416856
0.00417713
0.00452462
0.00604705
0.0111145
0.0270548
0.0723891
0.180059
0.27399
0.296968
0.288731
0.268216
0.239783
0.214729
0.188624
0.174185
0.170218
0.171386
0.174923
0.176732
0.176227
0.173346
0.16691
0.159603
0.145461
0.126474
0.0904175
0.0582733
0.0434001
0.0396488
0.0396996
0.0399271
0.040829
0.0431098
0.0447216
0.0483111
0.0561916
0.061583
0.0618884
0.0611069
0.0617874
0.0762792
0.120631
0.147343
0.157944
0.159026
0.15152
0.127584
0.101052
0.0818091
0.071527
0.0634068
0.0548253
0.0505912
0.0499269
0.0504286
0.0549659
0.0630003
0.0651326
0.0646778
0.0631369
0.0561097
0.0541565
0.0553596
0.0628643
0.124012
0.324971
0.473925
0.508894
0.457402
0.265979
0.1404
0.0825836
0.0565862
0.0455037
0.0398025
0.0376333
0.0361337
0.0356157
0.0354771
0.0341003
0.0338551
0.0337852
0.0342191
0.0360038
0.0420973
0.0694917
0.0836885
0.0837262
0.0790626
0.0753937
0.0748023
0.0810705
0.0964071
0.0976228
0.0935102
0.0895048
0.0901675
0.0981643
0.121778
0.127539
0.122446
0.10443
0.0843409
0.0714985
0.0707584
0.0686101
0.0685046
0.0653957
0.058156
0.0631548
0.0575854
0.0783333
0.0661947
0.0838287
0.0794962
0.0854165
0.0840507
0.0770428
0.0693149
0.0526107
0.059955
0.0585227
0.0713402
0.0750482
0.311525
2.58716
2.13549
1.78452
1.53869
1.35564
1.21996
1.11203
1.0262
0.958425
0.901174
0.851432
0.812511
0.778121
0.752507
0.728447
0.709385
0.692517
0.675854
0.662446
0.646215
0.63566
0.622001
0.613203
0.603795
0.593166
0.588669
0.578684
0.576077
0.570862
0.569868
0.567527
0.567587
0.567521
0.564915
0.560859
0.552034
0.532126
0.51466
0.490102
0.476482
0.461791
0.454622
0.453542
0.453331
0.454566
0.458442
0.459801
0.460984
0.460924
0.459181
0.454621
0.447538
0.430819
0.419881
0.40548
0.379859
0.354982
0.324075
0.294912
0.260264
0.216976
0.170728
0.118454
0.0780637
0.050716
0.031625
0.0202475
0.0136748
0.00912489
0.00695175
0.00525385
0.00417556
0.00388995
0.00390193
0.00401713
0.00456727
0.00631004
0.0111095
0.0252591
0.0706139
0.198528
0.315224
0.333084
0.317681
0.282749
0.221379
0.176858
0.146302
0.128393
0.121258
0.121101
0.123112
0.12847
0.143513
0.159214
0.164761
0.164366
0.161571
0.156015
0.141014
0.126813
0.100775
0.0667047
0.0500544
0.0443623
0.0415985
0.0414053
0.0422078
0.0429385
0.0460558
0.0555454
0.0620294
0.0625308
0.0610067
0.0603843
0.0659495
0.0948744
0.123471
0.141583
0.146449
0.144916
0.135874
0.112723
0.0926056
0.0809769
0.0696057
0.0602264
0.0579638
0.05813
0.0596543
0.0662525
0.0685652
0.0671792
0.0653462
0.0631336
0.0530917
0.0483015
0.0491622
0.0556471
0.107277
0.314897
0.488296
0.538542
0.490227
0.282898
0.144968
0.0824237
0.0562288
0.0444382
0.0383935
0.036292
0.0357932
0.0354342
0.0350769
0.033984
0.0328935
0.0323951
0.0327117
0.0343062
0.0384846
0.061562
0.0822247
0.0827448
0.0779934
0.0746609
0.0744478
0.0758858
0.0864444
0.0923169
0.0909075
0.0835418
0.0824045
0.084337
0.0956892
0.115378
0.119748
0.114649
0.0997946
0.0810449
0.0730287
0.074659
0.071712
0.0832888
0.0711914
0.0876494
0.0721616
0.0825669
0.0770914
0.0789869
0.0795783
0.0746939
0.0751426
0.0689399
0.059124
0.0508461
0.0532076
0.0631109
0.0613651
0.0588484
0.0894917
2.08064
1.862
1.65247
1.47376
1.32827
1.21032
1.11853
1.04452
0.981587
0.927892
0.877597
0.832214
0.790763
0.754115
0.725122
0.695895
0.674908
0.654843
0.637402
0.619164
0.603641
0.582221
0.564787
0.5493
0.52858
0.518555
0.504425
0.494056
0.488694
0.481099
0.475783
0.474139
0.474661
0.47497
0.476182
0.483238
0.483909
0.484673
0.484021
0.480541
0.477794
0.468766
0.46171
0.452704
0.445222
0.435067
0.422493
0.412868
0.396783
0.383293
0.369897
0.344436
0.323692
0.307147
0.282036
0.252188
0.217411
0.184242
0.149586
0.113281
0.0812514
0.056612
0.0380443
0.0248124
0.0166479
0.0106694
0.00791292
0.0059092
0.00436919
0.00392876
0.00329025
0.00326475
0.00350974
0.00378603
0.00459975
0.00678223
0.0114678
0.0231007
0.0593697
0.186867
0.353646
0.377118
0.353661
0.294295
0.199161
0.151513
0.130635
0.118719
0.110712
0.108333
0.108526
0.109651
0.111444
0.115446
0.122541
0.141796
0.154913
0.157787
0.15662
0.149193
0.14188
0.129782
0.102336
0.0757947
0.0576278
0.0476486
0.0438195
0.0431335
0.0433937
0.0467564
0.0568388
0.0645438
0.065817
0.0633223
0.0608426
0.0636539
0.0838739
0.107947
0.125248
0.132959
0.135266
0.133146
0.123335
0.106304
0.0946675
0.0805507
0.0713569
0.0702253
0.0705051
0.0712637
0.0722725
0.0717415
0.0675452
0.0648591
0.0620444
0.0500482
0.0429073
0.0428907
0.048519
0.0933052
0.291599
0.50114
0.563296
0.519463
0.30172
0.153307
0.0854986
0.0568146
0.0441461
0.0379211
0.0358375
0.0342785
0.0344245
0.0342594
0.0331225
0.0326049
0.0319667
0.0314673
0.0325495
0.0386971
0.0609874
0.0790032
0.0829986
0.0787524
0.07201
0.0706235
0.0721243
0.0817462
0.0880028
0.0878676
0.082972
0.0769992
0.0770889
0.0800804
0.090289
0.107961
0.111929
0.10726
0.103509
0.0865809
0.0913955
0.08471
0.0961369
0.0875623
0.0929873
0.0884422
0.0874103
0.0851238
0.0779222
0.075878
0.0682867
0.0640907
0.0541396
0.044928
0.0428401
0.0438302
0.0618917
0.0655127
0.0693794
0.0726847
1.30782
1.21596
1.13292
1.04857
0.973989
0.905167
0.840961
0.791999
0.747226
0.71295
0.681585
0.648067
0.614855
0.581884
0.547786
0.521545
0.494363
0.473049
0.457841
0.438125
0.425657
0.410709
0.392469
0.379897
0.366815
0.351398
0.344882
0.332964
0.324669
0.320412
0.316581
0.312666
0.308626
0.304378
0.299831
0.299986
0.299447
0.297719
0.299596
0.301772
0.307057
0.309765
0.309431
0.309753
0.308879
0.304149
0.291401
0.279
0.259074
0.239796
0.217068
0.191695
0.168124
0.144337
0.120407
0.0966613
0.0770794
0.0599033
0.0453002
0.0335694
0.0236941
0.0168671
0.011231
0.00791512
0.00565664
0.00408824
0.00365514
0.00292137
0.00268819
0.00271217
0.00275042
0.00308406
0.00379537
0.00481715
0.00775303
0.0127132
0.0218013
0.0483296
0.138859
0.368559
0.424692
0.398584
0.312139
0.196005
0.146512
0.126825
0.118343
0.11237
0.107433
0.10619
0.106156
0.107061
0.109714
0.111055
0.112984
0.118995
0.135788
0.150436
0.153571
0.151836
0.148052
0.14163
0.128462
0.100706
0.0786079
0.0622609
0.0506234
0.0470475
0.0472396
0.0516922
0.0638257
0.0703607
0.0699279
0.0642901
0.0614293
0.0639047
0.0775036
0.0953385
0.112513
0.122024
0.127309
0.128498
0.125942
0.118073
0.110037
0.0954523
0.087776
0.0852369
0.0797439
0.0755074
0.0746315
0.0726431
0.0654013
0.0624235
0.0591595
0.0457896
0.0368271
0.0365246
0.0408654
0.075235
0.265834
0.498668
0.583025
0.544375
0.326891
0.165849
0.0908156
0.058318
0.0445916
0.0379141
0.0354246
0.0335101
0.0315066
0.0314867
0.0317108
0.0309511
0.0318808
0.031437
0.032389
0.0395002
0.0648308
0.0777752
0.0843383
0.0810135
0.0720157
0.0680365
0.0672505
0.0728206
0.0828953
0.0841817
0.0823371
0.0758783
0.0712498
0.0708644
0.0733412
0.0818721
0.104648
0.10459
0.106838
0.0978988
0.0991853
0.0921166
0.0951006
0.0915828
0.0915007
0.0896461
0.0859025
0.0837421
0.0773802
0.0705938
0.060934
0.0549012
0.0456146
0.0399112
0.0403205
0.0434599
0.0471697
0.0644597
0.069357
0.0883931
0.569455
0.544576
0.520314
0.495605
0.469454
0.446625
0.422109
0.39874
0.380278
0.364558
0.352741
0.344846
0.328807
0.316839
0.294656
0.275146
0.254958
0.235001
0.222088
0.209398
0.198931
0.192507
0.181399
0.171463
0.1651
0.155253
0.151342
0.14749
0.14188
0.137837
0.134536
0.13416
0.134947
0.137881
0.139854
0.140213
0.137947
0.132914
0.129744
0.125805
0.121745
0.120016
0.118208
0.116444
0.115026
0.112901
0.109808
0.105673
0.0988061
0.0905801
0.0788846
0.0673735
0.0557767
0.0451051
0.0358848
0.0277287
0.0216855
0.0161767
0.0123916
0.00897412
0.00661209
0.00486856
0.00337531
0.00289335
0.00226296
0.00213117
0.00212058
0.00209759
0.00226928
0.00247688
0.00292879
0.00454601
0.00595693
0.00869358
0.0157528
0.0234346
0.0403843
0.10239
0.32936
0.464349
0.451414
0.355229
0.213741
0.153137
0.128002
0.118643
0.115461
0.111884
0.107925
0.106228
0.105815
0.10643
0.108932
0.109219
0.109791
0.112278
0.119055
0.136393
0.145948
0.149511
0.147573
0.146001
0.141364
0.128437
0.109106
0.0835734
0.0645275
0.0609816
0.0618814
0.0660364
0.0730793
0.0736951
0.0691674
0.0628618
0.0609598
0.0630524
0.0752721
0.0949274
0.109037
0.115585
0.122509
0.125386
0.1249
0.122786
0.118132
0.102783
0.0933667
0.0898602
0.0821835
0.0749228
0.0731928
0.0697768
0.0638891
0.060653
0.0543384
0.0379817
0.0308314
0.030717
0.0352563
0.0659371
0.234733
0.489289
0.598076
0.571422
0.369047
0.187066
0.0969302
0.0597974
0.0456244
0.0388069
0.0356045
0.0330707
0.0306446
0.0296141
0.0297602
0.030594
0.0311369
0.0330517
0.033134
0.0405286
0.0746313
0.0818325
0.0824936
0.0827854
0.0731994
0.0700735
0.0672541
0.0678624
0.0766676
0.0775109
0.0783438
0.0715727
0.0635608
0.0641818
0.0653285
0.0690148
0.0852735
0.0958118
0.100431
0.0963407
0.0949557
0.0915211
0.0882137
0.0886376
0.0863296
0.0868167
0.0835547
0.0821047
0.0765211
0.0706291
0.0601345
0.0551362
0.046776
0.0453693
0.0433963
0.0487902
0.0501428
0.0613215
0.0651784
0.0785397
0.154143
0.14948
0.142865
0.136627
0.130851
0.125797
0.121276
0.116387
0.1121
0.108717
0.106758
0.10523
0.10354
0.101602
0.0960581
0.0881434
0.0800411
0.0719512
0.0671169
0.0628074
0.0598054
0.0584026
0.0549061
0.0517384
0.0487263
0.0445066
0.0426936
0.0411345
0.0400634
0.0396403
0.0389341
0.0389043
0.0391162
0.0394483
0.0407028
0.0419811
0.0426359
0.0425926
0.0408425
0.0386342
0.0352429
0.0324421
0.0299419
0.0277682
0.0269195
0.0261727
0.0256169
0.0250278
0.0243777
0.0236328
0.0213876
0.0181914
0.0145583
0.0117418
0.00893761
0.00697157
0.005391
0.00400119
0.00319861
0.00230248
0.00194146
0.00152567
0.00144808
0.00148835
0.00152018
0.00171573
0.00181408
0.00206799
0.00288102
0.00365521
0.00575063
0.00907488
0.0112511
0.0181262
0.0266369
0.0382073
0.0731434
0.233071
0.486198
0.528371
0.456679
0.263501
0.173547
0.136216
0.121073
0.115759
0.11475
0.114298
0.112248
0.109709
0.109645
0.110273
0.10947
0.108664
0.10951
0.112308
0.119784
0.133049
0.142522
0.14649
0.14571
0.146747
0.145267
0.140948
0.132279
0.103359
0.0878952
0.0820473
0.0757915
0.0752711
0.0751393
0.0704246
0.0624032
0.0584113
0.0579675
0.062455
0.0784091
0.0966362
0.104797
0.108739
0.117034
0.121338
0.122058
0.121094
0.116516
0.100701
0.091718
0.0871427
0.0780667
0.0714227
0.0695007
0.0660726
0.0616739
0.0574114
0.0461483
0.0311149
0.025071
0.0253749
0.0305109
0.0594089
0.202408
0.463251
0.602388
0.596134
0.422954
0.210803
0.104042
0.0601007
0.0473783
0.0410123
0.0359751
0.0329307
0.0300456
0.0291231
0.028757
0.0293286
0.0304656
0.0370056
0.0361237
0.0449391
0.0831645
0.0900752
0.0832196
0.0800095
0.0725883
0.0711054
0.0743266
0.0694864
0.0689711
0.0700303
0.0665939
0.0690311
0.0640233
0.0643775
0.0637369
0.0640964
0.0674283
0.0795462
0.0832706
0.0880292
0.0856753
0.0866573
0.0840189
0.084558
0.0821753
0.0828563
0.0818991
0.0817122
0.0778612
0.072397
0.0610536
0.0561028
0.0483213
0.0480189
0.0469062
0.0484454
0.0503812
0.0560595
0.0594437
0.0671667
0.0257607
0.0249369
0.023139
0.0218794
0.0209845
0.0203608
0.0199587
0.0194996
0.0192117
0.0190419
0.0190147
0.019002
0.0189403
0.0187296
0.0184138
0.0171986
0.015462
0.0138526
0.0127636
0.0121483
0.0118391
0.0117188
0.0112047
0.0105192
0.009623
0.00864419
0.00820302
0.00792504
0.00786202
0.00794969
0.00806927
0.00823494
0.00848307
0.00857793
0.00877938
0.00901446
0.0091147
0.00910431
0.00868045
0.00796071
0.00702262
0.00619534
0.0054473
0.00498899
0.00487316
0.00503903
0.00517587
0.00517791
0.00514767
0.00503551
0.00458414
0.00374552
0.00299994
0.0024484
0.00193624
0.00162123
0.00129448
0.00115346
0.000993401
0.000961158
0.000988686
0.00101755
0.00119549
0.00134204
0.0016008
0.00219745
0.00274336
0.00441119
0.00630318
0.00805131
0.0133129
0.016153
0.0202245
0.0322479
0.0408789
0.0605023
0.132754
0.420071
0.594721
0.566007
0.373439
0.221809
0.155685
0.128952
0.118338
0.11477
0.114633
0.115475
0.115051
0.113592
0.115005
0.116741
0.115532
0.113744
0.113949
0.116354
0.124813
0.136013
0.143947
0.144059
0.14391
0.146514
0.149581
0.152403
0.14719
0.124731
0.111028
0.094606
0.0809798
0.0764996
0.0717589
0.0621672
0.0559759
0.0533181
0.0545064
0.0658956
0.0829235
0.0913903
0.0932339
0.0957358
0.104579
0.110161
0.111064
0.110186
0.102072
0.0883289
0.0815673
0.0783039
0.0716347
0.0666751
0.0651056
0.063056
0.0586536
0.0485989
0.0350525
0.0250189
0.0220138
0.0231584
0.0293442
0.0553441
0.164332
0.413378
0.598756
0.619485
0.488757
0.235309
0.108054
0.0597778
0.0491876
0.0435544
0.0376452
0.0323957
0.0297343
0.0285173
0.0297091
0.0305873
0.0318868
0.0367005
0.0515186
0.0602571
0.0839061
0.108881
0.0910221
0.0736387
0.0734939
0.0697363
0.0766009
0.076645
0.0725335
0.0739158
0.0682596
0.0685374
0.0653071
0.0620515
0.0601551
0.0590874
0.0593314
0.0647181
0.0673663
0.0737834
0.0743716
0.0773412
0.0769858
0.0793059
0.07858
0.0804398
0.0803848
0.0807223
0.0788201
0.0761235
0.0669087
0.0618971
0.053954
0.049904
0.04743
0.0473469
0.0476279
0.0494195
0.0529609
0.0567102
0.00271253
0.00263903
0.00245951
0.00232732
0.00221935
0.00214838
0.00212804
0.00212707
0.00213079
0.00214968
0.00219425
0.00221641
0.00221535
0.00219949
0.00215986
0.00198939
0.0018102
0.00166829
0.00159138
0.00155517
0.00153766
0.00152945
0.0014392
0.00132673
0.00120387
0.00108036
0.00102836
0.00100072
0.000995456
0.00102885
0.00107889
0.00112124
0.00117117
0.00118755
0.00119671
0.00119988
0.0011783
0.00110626
0.00103935
0.000973582
0.000918448
0.000848683
0.00079403
0.000771481
0.000762244
0.000767981
0.000771932
0.000767355
0.000764492
0.00073432
0.000671662
0.000635352
0.000644005
0.000670925
0.000701943
0.000717239
0.000746643
0.000801348
0.000870991
0.00107395
0.00123582
0.00152615
0.00210233
0.0026227
0.00403905
0.00528568
0.00693195
0.0115804
0.0138904
0.0186022
0.0240436
0.0272904
0.0373613
0.0490977
0.062577
0.100566
0.267108
0.599871
0.654128
0.547517
0.332269
0.204762
0.14792
0.125633
0.117152
0.114696
0.115059
0.116387
0.115861
0.11389
0.116193
0.117875
0.118551
0.121818
0.125909
0.134621
0.143987
0.148943
0.149305
0.14373
0.143868
0.147488
0.157521
0.1618
0.158942
0.146093
0.121668
0.0973329
0.080871
0.0734754
0.0654245
0.0570699
0.0517916
0.0505353
0.0556535
0.0722343
0.0840433
0.0858982
0.0853231
0.0863606
0.0943505
0.0969314
0.0958605
0.0924228
0.0844494
0.0771309
0.0741654
0.0720217
0.0657354
0.0611737
0.059975
0.0577992
0.0510633
0.0378812
0.0267845
0.021126
0.0203073
0.0223401
0.0292785
0.0545278
0.130067
0.347552
0.578634
0.641531
0.556334
0.261806
0.10932
0.060097
0.0501818
0.0479347
0.0416068
0.0327793
0.0298034
0.0294539
0.0296023
0.0345448
0.0400061
0.0580556
0.0861443
0.0952891
0.0874401
0.0927093
0.119728
0.0828238
0.0777439
0.0711552
0.0733873
0.0859925
0.0779755
0.0854323
0.0782482
0.0716208
0.0691852
0.0639209
0.0622941
0.0591155
0.0588118
0.0591616
0.0608348
0.0647122
0.0654796
0.0675043
0.0673491
0.0707099
0.0712678
0.0751327
0.0761258
0.0776929
0.0771634
0.0758934
0.0726705
0.066846
0.0593066
0.0532431
0.0496146
0.0482514
0.048385
0.0502203
0.0507802
0.0521507
0.000225638
0.000231731
0.000231536
0.000227806
0.000219486
0.000211331
0.000208602
0.000208222
0.000209428
0.000212853
0.000217515
0.00022022
0.000221239
0.000220716
0.00021805
0.00021649
0.000212641
0.000209191
0.000201781
0.00019461
0.000190007
0.000182504
0.000175389
0.000168967
0.000162301
0.000157757
0.000155213
0.000154292
0.000154478
0.000159724
0.000167952
0.000174568
0.000179404
0.00018142
0.000180823
0.000179239
0.000176501
0.000174964
0.000175623
0.000175921
0.000176453
0.000175885
0.000176647
0.000192536
0.00020509
0.000218684
0.000225216
0.000229163
0.000235778
0.000294155
0.000341514
0.000426534
0.00050187
0.000653386
0.000914533
0.00111237
0.00154392
0.00185541
0.00242309
0.00317593
0.00371175
0.00500464
0.00605675
0.00799736
0.0117926
0.0140673
0.0190125
0.024429
0.0277383
0.0361794
0.041834
0.048286
0.0652665
0.0773698
0.0999678
0.157981
0.426422
0.688134
0.692132
0.535933
0.326216
0.201052
0.146079
0.124787
0.117189
0.115045
0.116018
0.117358
0.116428
0.111402
0.109267
0.111077
0.115015
0.12425
0.137147
0.15049
0.155838
0.155479
0.149792
0.143739
0.145054
0.15126
0.166982
0.172302
0.171125
0.152727
0.121694
0.0936665
0.0731393
0.0640935
0.0562668
0.0496006
0.0463667
0.0477012
0.0576703
0.0731014
0.0802399
0.079707
0.0787758
0.0833839
0.0891512
0.0889968
0.0873436
0.0847754
0.0765596
0.0697777
0.0673603
0.0636765
0.0585081
0.0563523
0.0553499
0.0521774
0.0389389
0.0272496
0.0211397
0.0193068
0.0195766
0.0226165
0.0304587
0.0597465
0.126145
0.267466
0.530041
0.670698
0.622584
0.293645
0.109188
0.0596847
0.0510088
0.0511588
0.0493363
0.0374315
0.0310533
0.0309706
0.0337564
0.0382653
0.0598637
0.0968271
0.152259
0.107828
0.109829
0.0953036
0.113364
0.0958569
0.0855094
0.0915392
0.0907053
0.098193
0.093328
0.085992
0.081623
0.071851
0.0692763
0.0635275
0.0640896
0.0609615
0.0607223
0.05934
0.060964
0.061522
0.0634053
0.0630544
0.0623078
0.0628893
0.0659277
0.0691931
0.0699718
0.0713799
0.0721377
0.0729912
0.0725102
0.0704646
0.065995
0.060716
0.0570646
0.0550533
0.0549337
0.0553909
0.0554181
0.053235
8.7928e-05
8.95437e-05
9.38215e-05
9.681e-05
9.71365e-05
9.67817e-05
9.67637e-05
9.78758e-05
9.93823e-05
9.99774e-05
0.000101675
0.000102513
0.000104252
0.00010575
0.000105756
0.000105273
0.00010318
0.000101825
0.000101556
0.000101868
0.000102242
0.000103075
0.000105883
0.000107265
0.000109658
0.00011163
0.000114366
0.000120107
0.000124566
0.000127615
0.000131913
0.000134653
0.000137164
0.000139554
0.000139584
0.000139808
0.000140475
0.000143438
0.00015371
0.000164387
0.000186148
0.000219782
0.000240401
0.000266083
0.000289434
0.000312298
0.000374072
0.000437177
0.00056257
0.000724987
0.000992321
0.00143349
0.0018002
0.00256724
0.00312252
0.0041371
0.00548474
0.00632058
0.0080877
0.00935041
0.011874
0.0153806
0.0179078
0.0235136
0.0286679
0.0335258
0.0437664
0.0485144
0.0555212
0.0692871
0.0760858
0.0896734
0.107257
0.12101
0.150362
0.234882
0.568753
0.747887
0.718789
0.544228
0.355443
0.215206
0.151029
0.125948
0.119308
0.11658
0.117363
0.120725
0.119891
0.111851
0.104926
0.103745
0.108591
0.121871
0.136444
0.148914
0.152058
0.149868
0.143004
0.143249
0.147299
0.162243
0.176539
0.181624
0.176943
0.149962
0.112335
0.0777251
0.0615828
0.0523942
0.0438278
0.0393674
0.0396635
0.0443206
0.0520714
0.0617855
0.064555
0.0672804
0.0753761
0.0832069
0.0838476
0.0805151
0.078644
0.0758516
0.0678909
0.0616628
0.0593846
0.0565263
0.0537152
0.0525187
0.0506721
0.0406418
0.0278825
0.0212742
0.0189109
0.018769
0.0204827
0.0265704
0.0351781
0.0697589
0.129592
0.206023
0.451096
0.703314
0.682873
0.324993
0.107263
0.0606875
0.0516113
0.0527637
0.0543972
0.0483751
0.0387483
0.0370098
0.0447021
0.0809696
0.200097
0.525728
1.01381
0.271197
0.16888
0.105874
0.12441
0.112
0.117729
0.102627
0.0962006
0.0980295
0.102765
0.0912466
0.0886387
0.0749097
0.0724888
0.0651226
0.0658681
0.0630993
0.0624084
0.0601523
0.0603218
0.058889
0.059579
0.0590836
0.0593334
0.0597302
0.0629616
0.0646989
0.067407
0.06932
0.0705384
0.0712512
0.0712696
0.0708933
0.0693914
0.0673135
0.0664073
0.0654433
0.0644678
0.0636087
0.0607064
0.0564153
9.38307e-05
9.58379e-05
9.74545e-05
9.99499e-05
0.000101878
0.000103063
0.000103447
0.000103938
0.00010415
0.000104581
0.000108137
0.000113447
0.000117128
0.000126119
0.000133238
0.000141674
0.000154225
0.000160456
0.000165175
0.000177321
0.000185574
0.000207876
0.000232476
0.000250723
0.00027306
0.000285089
0.00029229
0.000305858
0.000334841
0.000385205
0.000431165
0.000461417
0.000477473
0.000481168
0.000478983
0.000477028
0.000479587
0.000516363
0.000657689
0.000757984
0.000896334
0.00101931
0.00113929
0.0012939
0.00144459
0.00169168
0.00191719
0.00228891
0.00322195
0.00391958
0.00512903
0.00598385
0.00767815
0.00961882
0.011079
0.0143845
0.016326
0.0202332
0.0235652
0.0268515
0.0348592
0.0400904
0.0478111
0.0582635
0.0641095
0.0753484
0.088547
0.0967866
0.113001
0.131462
0.139134
0.157565
0.169777
0.178083
0.209739
0.390032
0.716604
0.771075
0.731596
0.651532
0.461196
0.27183
0.172302
0.134608
0.121305
0.118635
0.118207
0.122316
0.126679
0.121674
0.109755
0.10502
0.106347
0.113325
0.122468
0.127726
0.130522
0.13423
0.138656
0.143957
0.155578
0.175804
0.188037
0.189644
0.175651
0.133987
0.0946279
0.0686647
0.0553195
0.0444841
0.0378062
0.0357248
0.0354958
0.036339
0.038866
0.0447012
0.0495202
0.0600108
0.0729408
0.0760696
0.0733642
0.070677
0.0694731
0.0656999
0.0591437
0.0561224
0.0543312
0.0518158
0.0499802
0.0476714
0.0380347
0.0273264
0.0218248
0.0190219
0.0187931
0.0202705
0.0298872
0.0392515
0.0459242
0.0776307
0.127363
0.186118
0.370232
0.714226
0.734463
0.365601
0.110404
0.0629337
0.0534115
0.0535947
0.0567296
0.0565016
0.053487
0.0568159
0.072223
0.142089
0.414399
0.596824
0.534933
0.308261
0.220021
0.147769
0.236501
0.149303
0.30023
0.171849
0.126755
0.0998363
0.0974909
0.0878786
0.0894954
0.0803429
0.0839648
0.0737088
0.0737182
0.069983
0.0681072
0.0626629
0.0611665
0.0577732
0.0567806
0.0551437
0.0551062
0.0563099
0.0614794
0.0633439
0.0665189
0.0690935
0.071064
0.0712891
0.0712343
0.0715563
0.0713539
0.0699662
0.0687469
0.0679124
0.0661287
0.0642546
0.0606009
0.0587858
0.000265331
0.000271165
0.000275714
0.000289106
0.000296117
0.000307274
0.000314474
0.000328664
0.0003471
0.000370519
0.000462083
0.000523085
0.000594594
0.000682071
0.000739208
0.000831954
0.000913001
0.000948713
0.00100982
0.00105675
0.00114419
0.00133944
0.00149963
0.00166187
0.00178962
0.00185038
0.00190143
0.0020025
0.00219896
0.00248206
0.002702
0.00283737
0.00290993
0.00292842
0.00293363
0.00293988
0.00296497
0.00325465
0.00394258
0.00437641
0.00514726
0.00554151
0.00630617
0.00678336
0.00767151
0.00891675
0.00987221
0.0121863
0.0136701
0.0166783
0.0191993
0.0225735
0.0270544
0.0304289
0.0361839
0.0417238
0.0481142
0.0572356
0.0628852
0.0740287
0.085488
0.0950037
0.111452
0.122522
0.135248
0.158972
0.174303
0.193172
0.221993
0.23531
0.239361
0.254883
0.253348
0.251166
0.277935
0.504284
0.726046
0.756625
0.74369
0.758612
0.622584
0.374686
0.220415
0.154827
0.129663
0.121534
0.119925
0.123107
0.129644
0.133176
0.129586
0.120735
0.11687
0.117725
0.121229
0.124773
0.129419
0.134749
0.14096
0.152999
0.174079
0.189469
0.196784
0.189753
0.158494
0.119095
0.0863719
0.0656553
0.0525071
0.0433004
0.0383545
0.0361052
0.034711
0.034641
0.0352915
0.0371746
0.0416552
0.0529968
0.0594445
0.0595282
0.0604844
0.0612644
0.0606416
0.0564362
0.0523022
0.05069
0.0491309
0.0470399
0.0420763
0.0324451
0.0255241
0.0216486
0.0198757
0.0199001
0.0221756
0.0323742
0.0516783
0.0589505
0.0614576
0.0799273
0.115328
0.161756
0.291342
0.695848
0.793903
0.429076
0.125125
0.0710062
0.0573834
0.056313
0.0581215
0.059371
0.0579269
0.064321
0.0987692
0.173966
0.380943
0.433898
0.337705
0.351936
0.499099
0.178203
1.0085
0.297313
0.8876
0.412432
0.386397
0.170807
0.121403
0.0891563
0.0886033
0.0807531
0.0848426
0.0804451
0.0802532
0.0755276
0.0723003
0.0651936
0.062076
0.0588235
0.0572791
0.0550267
0.0532805
0.0532963
0.056161
0.0587406
0.0625871
0.0651578
0.0691915
0.07102
0.0723557
0.0726597
0.0723911
0.0710612
0.0691019
0.0671575
0.0644197
0.0613748
0.0583586
0.0570443
0.0033564
0.00338941
0.00340519
0.00340133
0.0033674
0.00338905
0.003431
0.00358118
0.00400473
0.00438441
0.00524424
0.00561461
0.00603948
0.00649693
0.00668855
0.00715597
0.00745286
0.00762982
0.00804685
0.00833003
0.00910696
0.0100317
0.0106775
0.0113835
0.0117527
0.0119426
0.012099
0.012298
0.0128732
0.0138601
0.0146411
0.0152277
0.0155944
0.0157516
0.0158812
0.0160076
0.016183
0.0169616
0.0189402
0.020154
0.0226104
0.0239345
0.0265076
0.0280698
0.0314774
0.0340428
0.0377898
0.0438821
0.0472978
0.0552809
0.0602809
0.0703278
0.0765087
0.0891426
0.101016
0.110192
0.129059
0.139775
0.154473
0.174239
0.186182
0.207293
0.227002
0.244642
0.281405
0.300838
0.327955
0.35854
0.369025
0.373956
0.371228
0.359242
0.318842
0.302384
0.338118
0.573365
0.710778
0.712766
0.696651
0.764119
0.861879
0.55906
0.308336
0.191906
0.146585
0.129328
0.123641
0.123639
0.130235
0.13676
0.139459
0.139591
0.134141
0.131318
0.130317
0.131855
0.135711
0.143102
0.154107
0.170848
0.186523
0.194795
0.194894
0.172869
0.132124
0.100851
0.0753432
0.0597068
0.0496697
0.0433736
0.0403508
0.0376413
0.0354991
0.0340272
0.0333692
0.0334927
0.0357824
0.0415618
0.0439698
0.0472082
0.0495309
0.0494909
0.0474914
0.0434962
0.0414059
0.0400376
0.0379759
0.0322183
0.0259641
0.0222396
0.0208059
0.0209459
0.0221668
0.0266634
0.0421407
0.0664509
0.0758595
0.0771595
0.0763203
0.0884307
0.111732
0.140623
0.22947
0.632164
0.861928
0.517136
0.159292
0.0925176
0.0654032
0.0605262
0.0638584
0.0679002
0.0667263
0.0712071
0.10322
0.175138
0.370767
0.43562
0.337217
0.353811
0.399971
0.223897
0.301091
0.306062
0.243201
0.512928
0.527911
0.322521
0.243962
0.11036
0.102778
0.0863276
0.0884058
0.0862964
0.0789611
0.0730912
0.070576
0.0649135
0.0619722
0.0613745
0.0602585
0.0588362
0.0552021