/*--------------------------------*- C++ -*----------------------------------*\
| =========                 |                                                 |
| \\      /  F ield         | OpenFOAM: The Open Source CFD Toolbox           |
|  \\    /   O peration     | Version:  2.4.0                                 |
|   \\  /    A nd           | Web:      www.OpenFOAM.org                      |
|    \\/     M anipulation  |                                                 |
\*---------------------------------------------------------------------------*/
FoamFile
{
    version     2.0;
    format      ascii;
    class       surfaceScalarField;
    location    "1.63";
    object      phi_0;
}
// * * * * * * * * * * * * * * * * * * * * * * * * * * * * * * * * * * * * * //

dimensions      [0 3 -1 0 0 0 0];

internalField   nonuniform List<scalar> 
17320
(
1.76381e-05
7.36193e-06
1.16134e-05
6.02471e-06
8.68679e-06
2.92657e-06
7.35744e-06
1.32935e-06
6.71147e-06
6.45969e-07
6.35273e-06
3.58738e-07
6.07619e-06
2.76541e-07
5.86373e-06
2.12459e-07
5.71424e-06
1.49497e-07
5.58807e-06
1.26169e-07
5.47319e-06
1.14874e-07
5.40068e-06
7.25164e-08
5.30936e-06
9.13215e-08
5.24142e-06
6.79311e-08
5.14468e-06
9.67454e-08
5.10713e-06
3.7554e-08
5.00279e-06
1.04339e-07
5.05922e-06
-5.64325e-08
4.8344e-06
2.24819e-07
-5.44651e-07
5.37905e-06
2.54602e-05
6.90176e-06
2.32408e-05
8.24411e-06
2.10002e-05
5.16711e-06
1.93164e-05
3.01323e-06
1.80732e-05
1.8891e-06
1.71232e-05
1.30879e-06
1.63612e-05
1.03856e-06
1.57697e-05
8.03957e-07
1.53169e-05
6.02292e-07
1.49394e-05
5.03616e-07
1.46307e-05
4.23637e-07
1.43915e-05
3.1167e-07
1.41526e-05
3.3025e-07
1.3965e-05
2.55483e-07
1.3739e-05
3.2273e-07
1.36145e-05
1.62074e-07
1.33795e-05
3.39348e-07
1.33882e-05
-6.51582e-08
1.32556e-05
3.57498e-07
-7.34639e-07
1.34455e-05
2.66165e-05
5.2853e-06
2.71421e-05
7.71843e-06
2.67966e-05
5.51262e-06
2.62437e-05
3.56613e-06
2.56074e-05
2.5254e-06
2.48844e-05
2.03179e-06
2.41551e-05
1.76785e-06
2.35002e-05
1.45891e-06
2.29421e-05
1.16033e-06
2.24496e-05
9.96188e-07
2.20331e-05
8.40066e-07
2.16928e-05
6.52043e-07
2.13636e-05
6.5942e-07
2.11008e-05
5.18242e-07
2.08001e-05
6.23459e-07
2.06055e-05
3.56675e-07
2.03313e-05
6.13575e-07
2.02169e-05
4.92385e-08
2.02361e-05
3.38234e-07
-1.1376e-06
2.06391e-05
2.63166e-05
3.9687e-06
2.75148e-05
6.52026e-06
2.81035e-05
4.92385e-06
2.84508e-05
3.21883e-06
2.86539e-05
2.32231e-06
2.86398e-05
2.04593e-06
2.84723e-05
1.93536e-06
2.82335e-05
1.69771e-06
2.79695e-05
1.42431e-06
2.7698e-05
1.26772e-06
2.74282e-05
1.10981e-06
2.71789e-05
9.01401e-07
2.69267e-05
9.11581e-07
2.67012e-05
7.43724e-07
2.64347e-05
8.8993e-07
2.62123e-05
5.79079e-07
2.60406e-05
7.85272e-07
2.57285e-05
3.61347e-07
2.56388e-05
4.27999e-07
-7.77257e-07
2.52784e-05
2.60306e-05
2.93814e-06
2.72008e-05
5.35003e-06
2.80495e-05
4.07516e-06
2.85211e-05
2.74723e-06
2.89918e-05
1.85156e-06
2.93375e-05
1.7003e-06
2.9595e-05
1.67786e-06
2.97418e-05
1.55083e-06
2.98276e-05
1.33859e-06
2.99087e-05
1.18653e-06
2.99647e-05
1.05387e-06
2.9947e-05
9.19098e-07
2.99711e-05
8.87493e-07
2.99562e-05
7.58623e-07
2.99062e-05
9.39957e-07
2.97504e-05
7.3484e-07
2.98155e-05
7.20197e-07
2.95041e-05
6.72691e-07
2.93429e-05
5.89249e-07
-2.00125e-07
2.87657e-05
2.58372e-05
2.10097e-06
2.69263e-05
4.26091e-06
2.77792e-05
3.22225e-06
2.82389e-05
2.28753e-06
2.87504e-05
1.34011e-06
2.90894e-05
1.36125e-06
2.94868e-05
1.28049e-06
2.9731e-05
1.30658e-06
2.99621e-05
1.10755e-06
3.01479e-05
1.00073e-06
3.0449e-05
7.52723e-07
3.04638e-05
9.0435e-07
3.07351e-05
6.16169e-07
3.08551e-05
6.38572e-07
3.10521e-05
7.42992e-07
3.09561e-05
8.30844e-07
3.12767e-05
3.99571e-07
3.10153e-05
9.34136e-07
3.10025e-05
6.02041e-07
5.91805e-07
3.02106e-05
2.57115e-05
1.38946e-06
2.67325e-05
3.23994e-06
2.75407e-05
2.41405e-06
2.80563e-05
1.77189e-06
2.85204e-05
8.76072e-07
2.87837e-05
1.09787e-06
2.92771e-05
7.8709e-07
2.95027e-05
1.08097e-06
2.97839e-05
8.264e-07
2.99549e-05
8.29758e-07
3.02656e-05
4.42031e-07
3.02757e-05
8.94176e-07
3.0693e-05
1.98881e-07
3.07543e-05
5.77321e-07
3.10052e-05
4.92035e-07
3.10462e-05
7.89851e-07
3.14284e-05
1.7365e-08
3.11418e-05
1.22077e-06
3.10325e-05
7.11382e-07
1.50965e-06
3.01146e-05
2.5608e-05
7.81441e-07
2.65626e-05
2.28537e-06
2.74031e-05
1.57352e-06
2.8008e-05
1.16705e-06
2.82955e-05
5.88484e-07
2.86914e-05
7.0205e-07
2.90588e-05
4.19707e-07
2.92777e-05
8.62036e-07
2.95988e-05
5.05253e-07
2.98338e-05
5.94797e-07
3.00212e-05
2.54647e-07
3.02949e-05
6.20469e-07
3.04435e-05
5.02669e-08
3.05698e-05
4.51008e-07
3.08149e-05
2.46971e-07
3.10807e-05
5.23999e-07
3.10371e-05
6.10087e-08
3.14599e-05
7.97962e-07
3.18746e-05
2.96716e-07
4.27072e-07
3.29571e-05
2.54578e-05
3.23661e-07
2.64498e-05
1.29331e-06
2.73481e-05
6.75275e-07
2.78996e-05
6.15481e-07
2.82733e-05
2.14847e-07
2.86147e-05
3.6059e-07
2.87858e-05
2.48624e-07
2.92249e-05
4.23004e-07
2.95293e-05
2.00812e-07
2.9707e-05
4.17122e-07
2.99094e-05
5.22669e-08
3.02077e-05
3.22132e-07
3.02674e-05
-9.46238e-09
3.05267e-05
1.91776e-07
3.07264e-05
4.71799e-08
3.09246e-05
3.25882e-07
3.09957e-05
-1.01021e-08
3.14646e-05
3.2904e-07
3.16194e-05
1.41863e-07
-2.19548e-07
3.22661e-05
2.53473e-05
-2.36336e-08
2.64779e-05
1.62757e-07
2.7336e-05
-1.82828e-07
2.78718e-05
7.96133e-08
2.82542e-05
-1.6757e-07
2.84818e-05
1.33042e-07
2.87567e-05
-2.63183e-08
2.92356e-05
-5.5857e-08
2.94204e-05
1.59844e-08
2.96566e-05
1.80905e-07
2.98798e-05
-1.70852e-07
3.01384e-05
6.34891e-08
3.02846e-05
-1.5571e-07
3.04934e-05
-1.70086e-08
3.05845e-05
-4.38631e-08
3.08241e-05
8.62734e-08
3.10824e-05
-2.68404e-07
3.14144e-05
-2.93654e-09
3.16149e-05
-5.86549e-08
-3.43302e-07
3.17386e-05
2.53952e-05
-4.18797e-07
2.64955e-05
-9.37532e-07
2.72942e-05
-9.81586e-07
2.79176e-05
-5.43766e-07
2.81826e-05
-4.32602e-07
2.85037e-05
-1.87989e-07
2.88048e-05
-3.27439e-07
2.91565e-05
-4.07592e-07
2.94162e-05
-2.43676e-07
2.97316e-05
-1.34499e-07
2.98514e-05
-2.90633e-07
3.01309e-05
-2.16018e-07
3.02548e-05
-2.79617e-07
3.04274e-05
-1.89674e-07
3.05791e-05
-1.95527e-07
3.09189e-05
-2.53568e-07
3.10484e-05
-3.97842e-07
3.13219e-05
-2.76502e-07
3.15814e-05
-3.18111e-07
-5.91342e-07
3.18294e-05
2.54715e-05
-8.9029e-07
2.65088e-05
-1.97479e-06
2.73357e-05
-1.80853e-06
2.79376e-05
-1.14563e-06
2.81946e-05
-6.89671e-07
2.85998e-05
-5.93159e-07
2.88687e-05
-5.96314e-07
2.91981e-05
-7.37002e-07
2.94884e-05
-5.33969e-07
2.97602e-05
-4.06284e-07
2.99126e-05
-4.43074e-07
3.01749e-05
-4.78256e-07
3.03038e-05
-4.08552e-07
3.04769e-05
-3.62779e-07
3.07038e-05
-4.22393e-07
3.09444e-05
-4.94171e-07
3.10837e-05
-5.37201e-07
3.13971e-05
-5.89885e-07
3.16887e-05
-6.09669e-07
-7.73877e-07
3.18712e-05
2.55385e-05
-1.42879e-06
2.66122e-05
-3.0485e-06
2.7435e-05
-2.63133e-06
2.79836e-05
-1.69421e-06
2.83274e-05
-1.03345e-06
2.87147e-05
-9.80458e-07
2.89854e-05
-8.67082e-07
2.9316e-05
-1.06756e-06
2.95314e-05
-7.4936e-07
2.98559e-05
-7.30842e-07
3.00766e-05
-6.63746e-07
3.02779e-05
-6.79521e-07
3.03729e-05
-5.03603e-07
3.06306e-05
-6.20412e-07
3.07948e-05
-5.86606e-07
3.1021e-05
-7.20437e-07
3.12195e-05
-7.35623e-07
3.15352e-05
-9.05614e-07
3.17717e-05
-8.46173e-07
-9.96781e-07
3.19946e-05
2.56711e-05
-2.09993e-06
2.67596e-05
-4.13693e-06
2.75822e-05
-3.45398e-06
2.80646e-05
-2.17657e-06
2.84876e-05
-1.45644e-06
2.88405e-05
-1.33335e-06
2.9166e-05
-1.19266e-06
2.94862e-05
-1.3877e-06
2.97417e-05
-1.00485e-06
3.00352e-05
-1.02435e-06
3.02304e-05
-8.58969e-07
3.0408e-05
-8.57176e-07
3.05621e-05
-6.5764e-07
3.08149e-05
-8.73191e-07
3.09439e-05
-7.15652e-07
3.1173e-05
-9.49557e-07
3.1328e-05
-8.90561e-07
3.16308e-05
-1.20842e-06
3.18873e-05
-1.10268e-06
-1.29324e-06
3.21837e-05
2.58461e-05
-2.94602e-06
2.69671e-05
-5.25791e-06
2.77952e-05
-4.2821e-06
2.82377e-05
-2.61904e-06
2.86983e-05
-1.9171e-06
2.90873e-05
-1.72235e-06
2.94506e-05
-1.55592e-06
2.97117e-05
-1.64883e-06
2.99789e-05
-1.27206e-06
3.01932e-05
-1.23861e-06
3.03819e-05
-1.0477e-06
3.05377e-05
-1.01296e-06
3.07078e-05
-8.27769e-07
3.0846e-05
-1.0114e-06
3.09498e-05
-8.19445e-07
3.10868e-05
-1.08654e-06
3.11701e-05
-9.73896e-07
3.1375e-05
-1.41325e-06
3.15316e-05
-1.2593e-06
-1.56345e-06
3.18018e-05
2.60443e-05
-3.99029e-06
2.72421e-05
-6.45569e-06
2.80164e-05
-5.05642e-06
2.85011e-05
-3.10381e-06
2.89694e-05
-2.3854e-06
2.93195e-05
-2.07238e-06
2.9595e-05
-1.83143e-06
2.97172e-05
-1.77101e-06
2.98582e-05
-1.4131e-06
2.99055e-05
-1.28587e-06
2.99543e-05
-1.09656e-06
2.99461e-05
-1.00471e-06
2.99574e-05
-8.39073e-07
2.98961e-05
-9.50111e-07
2.98561e-05
-7.79504e-07
2.9763e-05
-9.93413e-07
2.96661e-05
-8.76952e-07
2.95857e-05
-1.33284e-06
2.94961e-05
-1.16977e-06
-1.56641e-06
2.94991e-05
2.63147e-05
-5.30498e-06
2.75393e-05
-7.68031e-06
2.80645e-05
-5.58163e-06
2.84573e-05
-3.49661e-06
2.86304e-05
-2.55843e-06
2.86207e-05
-2.06268e-06
2.84824e-05
-1.69313e-06
2.82158e-05
-1.50442e-06
2.79748e-05
-1.17213e-06
2.76861e-05
-9.97142e-07
2.74202e-05
-8.30696e-07
2.71491e-05
-7.33611e-07
2.69109e-05
-6.00894e-07
2.66313e-05
-6.70472e-07
2.64024e-05
-5.50592e-07
2.61074e-05
-6.98398e-07
2.58551e-05
-6.24638e-07
2.54994e-05
-9.77225e-07
2.52345e-05
-9.04782e-07
-1.37647e-06
2.50445e-05
2.66095e-05
-6.91443e-06
2.7155e-05
-8.22582e-06
2.67704e-05
-5.19709e-06
2.62549e-05
-2.98107e-06
2.55916e-05
-1.89519e-06
2.48713e-05
-1.34233e-06
2.41652e-05
-9.87063e-07
2.34909e-05
-8.30098e-07
2.2934e-05
-6.15205e-07
2.24399e-05
-5.03093e-07
2.20222e-05
-4.12987e-07
2.1656e-05
-3.67381e-07
2.1346e-05
-2.90932e-07
2.10254e-05
-3.49856e-07
2.07582e-05
-2.83394e-07
2.04368e-05
-3.76998e-07
2.01571e-05
-3.44997e-07
1.97178e-05
-5.3785e-07
1.93299e-05
-5.16892e-07
-5.15168e-07
1.84686e-05
2.54523e-05
-7.36675e-06
2.32444e-05
-6.01788e-06
2.09826e-05
-2.93529e-06
1.93227e-05
-1.32121e-06
1.80694e-05
-6.41821e-07
1.71081e-05
-3.8106e-07
1.6372e-05
-2.50966e-07
1.57641e-05
-2.2217e-07
1.53058e-05
-1.56951e-07
1.49295e-05
-1.26829e-07
1.46222e-05
-1.05629e-07
1.43549e-05
-1.0012e-07
1.41357e-05
-7.17496e-08
1.3894e-05
-1.08079e-07
1.36923e-05
-8.17611e-08
1.34387e-05
-1.23318e-07
1.32036e-05
-1.09961e-07
1.28505e-05
-1.84724e-07
1.25548e-05
-2.21236e-07
-9.5572e-08
1.21352e-05
1.76332e-05
1.16154e-05
8.68008e-06
7.35887e-06
6.71705e-06
6.33599e-06
6.08502e-06
5.86285e-06
5.7059e-06
5.57907e-06
5.47344e-06
5.37333e-06
5.30158e-06
5.1935e-06
5.11174e-06
4.98842e-06
4.87846e-06
4.69373e-06
4.4725e-06
4.37692e-06
5.81814e-06
-3.24919e-07
-1.14173e-07
6.15623e-06
-1.33861e-07
-2.04228e-07
6.4281e-06
-7.61205e-09
-2.64254e-07
6.68119e-06
5.72001e-08
-3.10289e-07
6.98398e-06
6.81038e-08
-3.70894e-07
7.32343e-06
6.53226e-08
-4.04775e-07
7.67418e-06
3.03879e-08
-3.81136e-07
7.99825e-06
-1.90421e-08
-3.05026e-07
8.26189e-06
-7.18811e-08
-1.91766e-07
8.46744e-06
-1.17475e-07
-8.80748e-08
8.63121e-06
-1.61017e-07
-2.75453e-09
8.78805e-06
-2.18001e-07
6.11651e-08
8.95755e-06
-2.78604e-07
1.0911e-07
9.12984e-06
-3.22362e-07
1.50069e-07
9.32356e-06
-3.83039e-07
1.89319e-07
9.51456e-06
-4.18791e-07
2.27791e-07
9.72281e-06
-4.57394e-07
2.49137e-07
9.95421e-06
-4.83469e-07
2.52073e-07
1.01666e-05
-5.00781e-07
2.88418e-07
1.0356e-05
-5.4944e-07
3.59987e-07
1.05443e-05
-6.24359e-07
4.36111e-07
1.0715e-05
-6.9094e-07
5.20208e-07
1.08642e-05
-7.92231e-07
6.4306e-07
1.10033e-05
-8.94383e-07
7.55286e-07
1.11109e-05
-9.47068e-07
8.39446e-07
1.12279e-05
-1.01293e-06
8.959e-07
1.12808e-05
-1.00934e-06
9.56444e-07
1.12924e-05
-1.0144e-06
1.00286e-06
1.13046e-05
-9.77189e-07
9.64938e-07
1.13053e-05
-9.05298e-07
9.04577e-07
1.12983e-05
-8.26848e-07
8.33888e-07
1.13306e-05
-6.64446e-07
6.32102e-07
1.1431e-05
-5.05681e-07
4.05289e-07
1.15862e-05
-3.25987e-07
1.7081e-07
1.18242e-05
-1.49295e-07
-8.872e-08
1.21417e-05
-6.67738e-09
-3.10832e-07
1.24478e-05
7.0932e-08
-3.76985e-07
1.27056e-05
5.28669e-08
-3.10723e-07
1.2851e-05
-1.9729e-08
-1.25675e-07
1.2895e-05
-8.66334e-08
4.26247e-08
1.29178e-05
-1.18611e-07
9.58372e-08
1.2938e-05
-7.31164e-08
5.29065e-08
1.30263e-05
-3.72959e-08
-5.10167e-08
1.32208e-05
8.13882e-08
-2.75814e-07
1.34729e-05
2.56979e-07
-5.0907e-07
1.38235e-05
3.16823e-07
-6.67488e-07
1.43081e-05
3.45285e-07
-8.29828e-07
1.48907e-05
4.89071e-07
-1.07171e-06
1.55957e-05
4.66579e-07
-1.17154e-06
1.64683e-05
4.50815e-07
-1.32346e-06
1.74441e-05
4.45573e-07
-1.4213e-06
1.85329e-05
8.77154e-08
-1.17655e-06
1.96278e-05
-2.07581e-07
-8.87286e-07
2.07322e-05
-5.22863e-07
-5.81551e-07
2.18641e-05
-9.20919e-07
-2.11015e-07
2.30674e-05
-1.62014e-06
4.16836e-07
2.43117e-05
-2.4744e-06
1.23012e-06
2.54553e-05
-3.12111e-06
1.97754e-06
2.66286e-05
-3.98198e-06
2.80865e-06
2.77987e-05
-4.964e-06
3.79387e-06
2.88727e-05
-6.03955e-06
4.96552e-06
2.98716e-05
-7.31056e-06
6.31175e-06
3.06882e-05
-8.42312e-06
7.60644e-06
3.13966e-05
-9.62417e-06
8.91585e-06
3.18791e-05
-1.08369e-05
1.03544e-05
3.21841e-05
-1.17983e-05
1.14933e-05
3.21526e-05
-1.28296e-05
1.28611e-05
3.17353e-05
-1.35452e-05
1.39625e-05
3.10557e-05
-1.40286e-05
1.47081e-05
3.00298e-05
-1.44877e-05
1.55136e-05
2.87346e-05
-1.44436e-05
1.57388e-05
2.75466e-05
-1.4668e-05
1.5856e-05
2.64408e-05
-1.48442e-05
1.59499e-05
2.53904e-05
-1.48188e-05
1.58692e-05
2.48232e-05
-1.52745e-05
1.58417e-05
2.4503e-05
-1.58831e-05
1.62033e-05
2.43069e-05
-1.64353e-05
1.66314e-05
2.43471e-05
-1.72263e-05
1.71861e-05
2.45446e-05
-1.81825e-05
1.7985e-05
2.4957e-05
-1.90045e-05
1.85921e-05
2.54358e-05
-1.96273e-05
1.91485e-05
2.58513e-05
-1.96934e-05
1.9278e-05
2.61301e-05
-1.93426e-05
1.90638e-05
2.6696e-05
-1.87832e-05
1.82173e-05
2.75341e-05
-1.80739e-05
1.72358e-05
2.82196e-05
-1.69228e-05
1.62373e-05
2.90252e-05
-1.49939e-05
1.41883e-05
2.98438e-05
-1.30388e-05
1.22202e-05
3.04194e-05
-1.07413e-05
1.01657e-05
3.07128e-05
-7.65538e-06
7.36198e-06
3.09889e-05
-4.97809e-06
4.70198e-06
3.1171e-05
-2.28249e-06
2.1004e-06
3.14122e-05
4.03845e-07
-6.45057e-07
3.16068e-05
3.00752e-06
-3.20207e-06
3.16378e-05
5.52684e-06
-5.5579e-06
3.16064e-05
7.88792e-06
-7.85648e-06
3.17087e-05
1.00892e-05
-1.01915e-05
3.15183e-05
1.18159e-05
-1.16254e-05
3.08042e-05
1.36313e-05
-1.29172e-05
2.97993e-05
1.50708e-05
-1.40659e-05
2.85818e-05
1.51318e-05
-1.39142e-05
2.72687e-05
1.43498e-05
-1.30367e-05
2.62221e-05
1.40912e-05
-1.30447e-05
2.57313e-05
1.32801e-05
-1.27893e-05
2.53832e-05
1.16094e-05
-1.12613e-05
2.50456e-05
1.11357e-05
-1.07982e-05
2.46929e-05
1.06237e-05
-1.0271e-05
2.39716e-05
9.91039e-06
-9.1891e-06
2.31987e-05
8.59775e-06
-7.82483e-06
2.26362e-05
8.24793e-06
-7.68546e-06
2.21999e-05
8.80717e-06
-8.3708e-06
2.16926e-05
8.20499e-06
-7.69771e-06
2.10409e-05
7.54687e-06
-6.8952e-06
2.05272e-05
6.61643e-06
-6.10273e-06
2.02735e-05
6.38613e-06
-6.1324e-06
2.0545e-05
7.77915e-06
-8.05062e-06
2.12415e-05
1.03146e-05
-1.1011e-05
2.22939e-05
1.30406e-05
-1.4093e-05
2.34318e-05
1.45078e-05
-1.56458e-05
2.42826e-05
1.57357e-05
-1.65866e-05
2.47959e-05
1.60315e-05
-1.65448e-05
2.51034e-05
1.44432e-05
-1.47507e-05
2.53448e-05
1.23822e-05
-1.26236e-05
2.54868e-05
1.0486e-05
-1.0628e-05
2.54966e-05
7.61371e-06
-7.62358e-06
2.53086e-05
4.67871e-06
-4.49065e-06
2.49766e-05
2.56257e-06
-2.23059e-06
2.46433e-05
-2.10497e-07
5.43774e-07
2.43107e-05
-3.63614e-06
3.96875e-06
2.37538e-05
-5.67424e-06
6.23116e-06
2.2758e-05
-7.07031e-06
8.06609e-06
2.17053e-05
-8.98553e-06
1.00382e-05
2.06742e-05
-1.01603e-05
1.11913e-05
1.97769e-05
-1.05432e-05
1.14405e-05
1.88164e-05
-1.12718e-05
1.22322e-05
1.79909e-05
-1.22358e-05
1.30613e-05
1.73031e-05
-1.18646e-05
1.25523e-05
1.67726e-05
-1.00001e-05
1.05307e-05
1.62536e-05
-7.95099e-06
8.47e-06
1.56551e-05
-8.02364e-06
8.62216e-06
1.48694e-05
-1.12774e-05
1.2063e-05
1.42045e-05
-1.71826e-05
1.78476e-05
1.38751e-05
-2.47413e-05
2.50707e-05
1.39395e-05
-3.03142e-05
3.02497e-05
1.42975e-05
-3.22974e-05
3.19395e-05
1.47983e-05
-3.17232e-05
3.12224e-05
1.53897e-05
-2.96654e-05
2.9074e-05
1.5847e-05
-2.64151e-05
2.59578e-05
1.62989e-05
-2.30187e-05
2.25669e-05
1.66907e-05
-1.90744e-05
1.86825e-05
1.73554e-05
-1.50731e-05
1.44084e-05
1.7735e-05
-1.05226e-05
1.01431e-05
1.78586e-05
-6.58195e-06
6.45833e-06
1.81856e-05
-2.1218e-06
1.79481e-06
1.83198e-05
2.37701e-06
-2.51128e-06
1.89656e-05
5.58033e-06
-6.22613e-06
1.92754e-05
8.48457e-06
-8.79437e-06
1.98218e-05
1.10416e-05
-1.15879e-05
2.03901e-05
1.51989e-05
-1.57672e-05
2.02505e-05
1.89602e-05
-1.88206e-05
2.05746e-05
1.9606e-05
-1.99301e-05
2.07322e-05
1.8858e-05
-1.90156e-05
2.06089e-05
1.79909e-05
-1.78676e-05
2.10774e-05
1.80519e-05
-1.85204e-05
2.18834e-05
1.98795e-05
-2.06855e-05
2.25019e-05
2.18585e-05
-2.24771e-05
2.20078e-05
2.31183e-05
-2.26242e-05
2.09235e-05
2.22075e-05
-2.11231e-05
2.04502e-05
1.99729e-05
-1.94996e-05
2.02719e-05
1.83289e-05
-1.81506e-05
2.03835e-05
1.73014e-05
-1.74129e-05
2.05145e-05
1.66546e-05
-1.67857e-05
1.96296e-05
1.5987e-05
-1.51021e-05
1.84624e-05
1.47761e-05
-1.36089e-05
1.69829e-05
1.37602e-05
-1.22807e-05
1.61788e-05
1.20406e-05
-1.12365e-05
1.58385e-05
1.10641e-05
-1.07238e-05
1.57676e-05
1.0052e-05
-9.98104e-06
1.57525e-05
9.53581e-06
-9.52074e-06
1.50385e-05
9.48744e-06
-8.77341e-06
1.49286e-05
8.9194e-06
-8.80947e-06
1.42448e-05
9.59202e-06
-8.90824e-06
1.44035e-05
8.79327e-06
-8.95201e-06
1.38619e-05
1.02805e-05
-9.73884e-06
1.3701e-05
9.45319e-06
-9.29234e-06
1.3476e-05
1.10217e-05
-1.07967e-05
1.31695e-05
1.01737e-05
-9.8671e-06
1.27853e-05
1.18352e-05
-1.14511e-05
1.36808e-05
8.86331e-06
-9.75877e-06
1.33421e-05
1.07572e-05
-1.04185e-05
1.49269e-05
4.85089e-06
-6.43573e-06
1.43261e-05
7.25114e-06
-6.65029e-06
1.51155e-05
3.14261e-07
-1.10366e-06
1.41966e-05
2.90819e-06
-1.98932e-06
1.41311e-05
-4.73329e-06
4.79876e-06
1.26224e-05
-1.97925e-06
3.48797e-06
1.28244e-05
-7.08851e-06
6.88652e-06
1.11142e-05
-1.4302e-07
1.85322e-06
1.26191e-05
-3.67346e-06
2.16863e-06
4.86762e-06
-5.77312e-06
1.35246e-05
1.34399e-05
-3.19309e-07
1.34457e-05
-1.39607e-07
1.34676e-05
-2.95093e-08
1.35516e-05
-2.68011e-08
1.36995e-05
-7.97835e-08
1.38895e-05
-1.2473e-07
1.40919e-05
-1.72022e-07
1.42953e-05
-2.22368e-07
1.4458e-05
-2.34619e-07
1.45928e-05
-2.5232e-07
1.47084e-05
-2.76596e-07
1.48118e-05
-3.21421e-07
1.49427e-05
-4.09507e-07
1.50856e-05
-4.65256e-07
1.5254e-05
-5.51376e-07
1.54391e-05
-6.03884e-07
1.5634e-05
-6.52353e-07
1.58402e-05
-6.896e-07
1.60402e-05
-7.00799e-07
1.62296e-05
-7.38879e-07
1.63965e-05
-7.91204e-07
1.65592e-05
-8.53686e-07
1.67054e-05
-9.38394e-07
1.68232e-05
-1.01224e-06
1.69209e-05
-1.04479e-06
1.702e-05
-1.11201e-06
1.70685e-05
-1.05782e-06
1.7099e-05
-1.04486e-06
1.71221e-05
-1.00036e-06
1.70899e-05
-8.73065e-07
1.70725e-05
-8.09388e-07
1.70767e-05
-6.68701e-07
1.70425e-05
-4.71442e-07
1.70841e-05
-3.676e-07
1.71614e-05
-2.2662e-07
1.72141e-05
-5.93711e-08
1.7359e-05
-7.39601e-08
1.74823e-05
-7.04333e-08
1.75565e-05
-9.392e-08
1.76609e-05
-1.91018e-07
1.77643e-05
-2.22035e-07
1.78965e-05
-2.05308e-07
1.80952e-05
-2.36048e-07
1.83529e-05
-1.76244e-07
1.87004e-05
-9.05186e-08
1.91434e-05
-1.26196e-07
1.96267e-05
-1.38011e-07
2.0232e-05
-1.16249e-07
2.09538e-05
-2.55174e-07
2.17151e-05
-3.10482e-07
2.26016e-05
-4.40975e-07
2.35603e-05
-8.7101e-07
2.45228e-05
-1.17001e-06
2.5496e-05
-1.49614e-06
2.6552e-05
-1.97692e-06
2.76512e-05
-2.71935e-06
2.86111e-05
-3.43426e-06
2.95152e-05
-4.02521e-06
3.05082e-05
-4.975e-06
3.13211e-05
-5.7769e-06
3.20822e-05
-6.80061e-06
3.26794e-05
-7.90779e-06
3.30199e-05
-8.76361e-06
3.33113e-05
-9.91558e-06
3.32186e-05
-1.07443e-05
3.29733e-05
-1.15529e-05
3.24308e-05
-1.22872e-05
3.1491e-05
-1.26053e-05
3.05034e-05
-1.3041e-05
2.92732e-05
-1.32575e-05
2.8077e-05
-1.32474e-05
2.70897e-05
-1.36807e-05
2.60882e-05
-1.38427e-05
2.52647e-05
-1.39953e-05
2.48176e-05
-1.48274e-05
2.43412e-05
-1.54067e-05
2.38146e-05
-1.59088e-05
2.36932e-05
-1.71048e-05
2.3915e-05
-1.84044e-05
2.41169e-05
-1.92063e-05
2.40981e-05
-1.96085e-05
2.41286e-05
-1.97239e-05
2.44802e-05
-1.96942e-05
2.51062e-05
-1.94092e-05
2.58557e-05
-1.88234e-05
2.65737e-05
-1.76408e-05
2.74899e-05
-1.59101e-05
2.82863e-05
-1.38352e-05
2.87217e-05
-1.11768e-05
2.89787e-05
-7.91237e-06
2.90818e-05
-5.08117e-06
2.92283e-05
-2.42903e-06
2.945e-05
1.8218e-07
2.93407e-05
3.11681e-06
2.92452e-05
5.62228e-06
2.92567e-05
7.87649e-06
2.94302e-05
9.91571e-06
2.95384e-05
1.17076e-05
2.94193e-05
1.37504e-05
2.89294e-05
1.55607e-05
2.7888e-05
1.61731e-05
2.65386e-05
1.56992e-05
2.52739e-05
1.5356e-05
2.44563e-05
1.40978e-05
2.37417e-05
1.2324e-05
2.3321e-05
1.15565e-05
2.29505e-05
1.09941e-05
2.23858e-05
1.0475e-05
2.20201e-05
8.96349e-06
2.1657e-05
8.61103e-06
2.12481e-05
9.21608e-06
2.08103e-05
8.64282e-06
2.05826e-05
7.77452e-06
2.05728e-05
6.62624e-06
2.04941e-05
6.46483e-06
2.05206e-05
7.7527e-06
2.07972e-05
1.00379e-05
2.15964e-05
1.22414e-05
2.26726e-05
1.34316e-05
2.37487e-05
1.46596e-05
2.45237e-05
1.52565e-05
2.50282e-05
1.39388e-05
2.54538e-05
1.19565e-05
2.58259e-05
1.01139e-05
2.60062e-05
7.43344e-06
2.60275e-05
4.6574e-06
2.59454e-05
2.64466e-06
2.56463e-05
8.86088e-08
2.51991e-05
-3.18897e-06
2.43166e-05
-4.79167e-06
2.3203e-05
-5.95672e-06
2.2157e-05
-7.93954e-06
2.12688e-05
-9.27207e-06
2.03764e-05
-9.65083e-06
1.93965e-05
-1.02919e-05
1.8531e-05
-1.13702e-05
1.79196e-05
-1.12532e-05
1.73548e-05
-9.43536e-06
1.67294e-05
-7.32555e-06
1.60469e-05
-7.34123e-06
1.51402e-05
-1.03706e-05
1.4311e-05
-1.63534e-05
1.36866e-05
-2.41169e-05
1.34034e-05
-3.00309e-05
1.33902e-05
-3.22842e-05
1.37644e-05
-3.20974e-05
1.39644e-05
-2.98654e-05
1.44039e-05
-2.68546e-05
1.46969e-05
-2.33117e-05
1.4967e-05
-1.93445e-05
1.51585e-05
-1.52646e-05
1.5669e-05
-1.10331e-05
1.58196e-05
-6.73255e-06
1.58766e-05
-2.17887e-06
1.62454e-05
2.0082e-06
1.67413e-05
5.08446e-06
1.71831e-05
8.04278e-06
1.74155e-05
1.08091e-05
1.82599e-05
1.43544e-05
1.83742e-05
1.88459e-05
1.82231e-05
1.97571e-05
1.88421e-05
1.8239e-05
1.93092e-05
1.75238e-05
1.98472e-05
1.75139e-05
2.0648e-05
1.90787e-05
2.17511e-05
2.07555e-05
2.24321e-05
2.24372e-05
2.16978e-05
2.29419e-05
2.06422e-05
2.10284e-05
2.0127e-05
1.88442e-05
1.99729e-05
1.74554e-05
2.04772e-05
1.61503e-05
2.04995e-05
1.59646e-05
2.01298e-05
1.51458e-05
1.93456e-05
1.45445e-05
1.80765e-05
1.33097e-05
1.73542e-05
1.17864e-05
1.65905e-05
1.08156e-05
1.68155e-05
9.31088e-06
1.65232e-05
9.77965e-06
1.66684e-05
8.77429e-06
1.63194e-05
9.94094e-06
1.62738e-05
8.83888e-06
1.58796e-05
1.06747e-05
1.62943e-05
9.03854e-06
1.57157e-05
1.16003e-05
1.67613e-05
9.12803e-06
1.59779e-05
1.26186e-05
1.71132e-05
7.72799e-06
1.67864e-05
1.10841e-05
1.73081e-05
4.32918e-06
1.76139e-05
6.94531e-06
1.71543e-05
7.73863e-07
1.73962e-05
2.66628e-06
1.66513e-05
-3.98839e-06
1.53849e-05
-7.12768e-07
1.38478e-05
-5.55143e-06
1.34725e-05
2.32232e-07
1.27959e-05
-2.99686e-06
2.44547e-06
1.52181e-05
2.0425e-05
-1.05164e-07
2.01716e-05
1.13768e-07
2.00024e-05
1.39717e-07
1.99958e-05
-2.02619e-08
2.01009e-05
-1.84892e-07
2.02851e-05
-3.08943e-07
2.04793e-05
-3.66152e-07
2.06313e-05
-3.74369e-07
2.0754e-05
-3.57335e-07
2.08335e-05
-3.31832e-07
2.08975e-05
-3.40602e-07
2.09537e-05
-3.77637e-07
2.10227e-05
-4.7851e-07
2.11198e-05
-5.62317e-07
2.12342e-05
-6.65761e-07
2.13627e-05
-7.32419e-07
2.15233e-05
-8.12975e-07
2.1677e-05
-8.43286e-07
2.18352e-05
-8.58949e-07
2.19961e-05
-8.99861e-07
2.21303e-05
-9.25364e-07
2.22376e-05
-9.61015e-07
2.23475e-05
-1.04826e-06
2.24317e-05
-1.0964e-06
2.24772e-05
-1.09031e-06
2.25477e-05
-1.18252e-06
2.25641e-05
-1.0742e-06
2.25713e-05
-1.05205e-06
2.25901e-05
-1.01922e-06
2.25555e-05
-8.38474e-07
2.2523e-05
-7.76867e-07
2.25469e-05
-6.92592e-07
2.25426e-05
-4.67147e-07
2.25442e-05
-3.69152e-07
2.26464e-05
-3.28904e-07
2.26992e-05
-1.12129e-07
2.27523e-05
-1.27092e-07
2.28462e-05
-1.64295e-07
2.29036e-05
-1.51289e-07
2.29725e-05
-2.59941e-07
2.30656e-05
-3.15201e-07
2.32124e-05
-3.52067e-07
2.33838e-05
-4.07471e-07
2.36359e-05
-4.28301e-07
2.39724e-05
-4.27064e-07
2.43674e-05
-5.21137e-07
2.48121e-05
-5.82694e-07
2.53516e-05
-6.55781e-07
2.59711e-05
-8.7466e-07
2.66124e-05
-9.51855e-07
2.74134e-05
-1.24192e-06
2.81721e-05
-1.6297e-06
2.89261e-05
-1.92398e-06
2.97836e-05
-2.35372e-06
3.06222e-05
-2.81548e-06
3.14167e-05
-3.51384e-06
3.2066e-05
-4.08361e-06
3.27639e-05
-4.72309e-06
3.33578e-05
-5.56887e-06
3.37456e-05
-6.16467e-06
3.41386e-05
-7.19369e-06
3.42016e-05
-7.97071e-06
3.41769e-05
-8.73895e-06
3.39556e-05
-9.69425e-06
3.33747e-05
-1.01634e-05
3.28037e-05
-1.09818e-05
3.18469e-05
-1.13304e-05
3.07048e-05
-1.14632e-05
2.96953e-05
-1.20315e-05
2.84159e-05
-1.1978e-05
2.74349e-05
-1.22665e-05
2.66058e-05
-1.28515e-05
2.55869e-05
-1.28239e-05
2.49375e-05
-1.33459e-05
2.43319e-05
-1.42218e-05
2.34967e-05
-1.45714e-05
2.30361e-05
-1.54482e-05
2.30018e-05
-1.70705e-05
2.28187e-05
-1.82214e-05
2.22794e-05
-1.86669e-05
2.1839e-05
-1.91681e-05
2.18759e-05
-1.97609e-05
2.23466e-05
-2.01648e-05
2.30118e-05
-2.00743e-05
2.37644e-05
-1.95761e-05
2.45776e-05
-1.8454e-05
2.53307e-05
-1.66632e-05
2.58265e-05
-1.4331e-05
2.59669e-05
-1.13172e-05
2.60301e-05
-7.97559e-06
2.6184e-05
-5.23503e-06
2.65628e-05
-2.80787e-06
2.68803e-05
-1.3525e-07
2.7e-05
2.99704e-06
2.70687e-05
5.55356e-06
2.686e-05
8.0852e-06
2.68202e-05
9.95553e-06
2.68622e-05
1.16656e-05
2.70814e-05
1.35313e-05
2.71566e-05
1.54855e-05
2.64808e-05
1.68488e-05
2.53376e-05
1.68424e-05
2.41325e-05
1.65611e-05
2.31466e-05
1.50836e-05
2.21527e-05
1.33179e-05
2.16092e-05
1.21e-05
2.13323e-05
1.1271e-05
2.11988e-05
1.06086e-05
2.08803e-05
9.28201e-06
2.02604e-05
9.23085e-06
1.99022e-05
9.57433e-06
1.97597e-05
8.7853e-06
1.97839e-05
7.75036e-06
1.98126e-05
6.59752e-06
1.96808e-05
6.59664e-06
1.96527e-05
7.7808e-06
1.99384e-05
9.75223e-06
2.07102e-05
1.14695e-05
2.17188e-05
1.2423e-05
2.27863e-05
1.35922e-05
2.37512e-05
1.42916e-05
2.46213e-05
1.30687e-05
2.51933e-05
1.13845e-05
2.56242e-05
9.68304e-06
2.59544e-05
7.10322e-06
2.62142e-05
4.39761e-06
2.61326e-05
2.72626e-06
2.59006e-05
3.20621e-07
2.54074e-05
-2.69582e-06
2.44716e-05
-3.8558e-06
2.33895e-05
-4.87467e-06
2.23792e-05
-6.92922e-06
2.15499e-05
-8.44276e-06
2.06524e-05
-8.75335e-06
1.96442e-05
-9.2836e-06
1.87572e-05
-1.04833e-05
1.81588e-05
-1.06548e-05
1.75941e-05
-8.87068e-06
1.69639e-05
-6.69543e-06
1.62278e-05
-6.60507e-06
1.52938e-05
-9.43668e-06
1.42606e-05
-1.53202e-05
1.33228e-05
-2.31792e-05
1.26732e-05
-2.93813e-05
1.26248e-05
-3.22358e-05
1.27286e-05
-3.22012e-05
1.28878e-05
-3.00246e-05
1.29971e-05
-2.69639e-05
1.30682e-05
-2.33828e-05
1.31941e-05
-1.94704e-05
1.34416e-05
-1.55121e-05
1.36858e-05
-1.12773e-05
1.37785e-05
-6.82529e-06
1.39075e-05
-2.30783e-06
1.38535e-05
2.06221e-06
1.45704e-05
4.36754e-06
1.51421e-05
7.47109e-06
1.50122e-05
1.09391e-05
1.56023e-05
1.37643e-05
1.68292e-05
1.76189e-05
1.6998e-05
1.95884e-05
1.72599e-05
1.7977e-05
1.78782e-05
1.69056e-05
1.83944e-05
1.69977e-05
1.92636e-05
1.82095e-05
1.98248e-05
2.01943e-05
2.10261e-05
2.12359e-05
2.20254e-05
2.19426e-05
2.17143e-05
2.13395e-05
2.14293e-05
1.91291e-05
2.10219e-05
1.78629e-05
2.10101e-05
1.61621e-05
2.12061e-05
1.57685e-05
2.1017e-05
1.53349e-05
2.11168e-05
1.44447e-05
2.02334e-05
1.41932e-05
1.95838e-05
1.2436e-05
1.81815e-05
1.22179e-05
1.77273e-05
9.76512e-06
1.72766e-05
1.02303e-05
1.80151e-05
8.03584e-06
1.78392e-05
1.01168e-05
1.88912e-05
7.78686e-06
1.82747e-05
1.12912e-05
1.9426e-05
7.88728e-06
1.8816e-05
1.22102e-05
1.98172e-05
8.12688e-06
1.98724e-05
1.25634e-05
2.02509e-05
7.34945e-06
2.07515e-05
1.05834e-05
2.03239e-05
4.75684e-06
2.05446e-05
6.72452e-06
2.00001e-05
1.31839e-06
2.00572e-05
2.60916e-06
1.83744e-05
-2.30557e-06
1.79084e-05
-2.46729e-07
1.50199e-05
-2.663e-06
1.48146e-05
4.37587e-07
1.33125e-05
-1.49476e-06
1.28025e-06
1.44777e-05
2.53125e-05
-1.39219e-07
2.54143e-05
1.19717e-08
2.55263e-05
2.77043e-08
2.56362e-05
-1.302e-07
2.57265e-05
-2.75208e-07
2.57924e-05
-3.74761e-07
2.58648e-05
-4.38613e-07
2.59262e-05
-4.35764e-07
2.60002e-05
-4.31272e-07
2.60865e-05
-4.18131e-07
2.61428e-05
-3.96936e-07
2.61909e-05
-4.25738e-07
2.62283e-05
-5.15913e-07
2.62449e-05
-5.78894e-07
2.63099e-05
-7.30792e-07
2.63767e-05
-7.99223e-07
2.64744e-05
-9.10708e-07
2.66073e-05
-9.76157e-07
2.67257e-05
-9.77328e-07
2.68481e-05
-1.02223e-06
2.6965e-05
-1.04231e-06
2.7019e-05
-1.01498e-06
2.7064e-05
-1.09327e-06
2.70965e-05
-1.12896e-06
2.70755e-05
-1.0693e-06
2.70746e-05
-1.18156e-06
2.70631e-05
-1.06269e-06
2.70386e-05
-1.02763e-06
2.70343e-05
-1.0149e-06
2.70405e-05
-8.44694e-07
2.70392e-05
-7.75511e-07
2.7011e-05
-6.64467e-07
2.7036e-05
-4.92141e-07
2.70385e-05
-3.71575e-07
2.70483e-05
-3.38784e-07
2.71435e-05
-2.07237e-07
2.72252e-05
-2.08809e-07
2.73361e-05
-2.75268e-07
2.74583e-05
-2.73484e-07
2.75893e-05
-3.9088e-07
2.77333e-05
-4.59264e-07
2.79044e-05
-5.23135e-07
2.80963e-05
-5.9938e-07
2.83397e-05
-6.71697e-07
2.8629e-05
-7.16316e-07
2.89294e-05
-8.21582e-07
2.93035e-05
-9.56766e-07
2.97318e-05
-1.08409e-06
3.0132e-05
-1.27482e-06
3.06305e-05
-1.45041e-06
3.12273e-05
-1.83876e-06
3.16904e-05
-2.09272e-06
3.22593e-05
-2.49295e-06
3.28661e-05
-2.96049e-06
3.33754e-05
-3.32474e-06
3.38726e-05
-4.01107e-06
3.42013e-05
-4.41229e-06
3.45887e-05
-5.11048e-06
3.47247e-05
-5.70494e-06
3.47764e-05
-6.21633e-06
3.47368e-05
-7.15409e-06
3.4326e-05
-7.55992e-06
3.40256e-05
-8.43857e-06
3.33741e-05
-9.04272e-06
3.25862e-05
-9.37555e-06
3.17982e-05
-1.01938e-05
3.05999e-05
-1.01321e-05
2.97069e-05
-1.05702e-05
2.87375e-05
-1.10621e-05
2.76703e-05
-1.09109e-05
2.71099e-05
-1.17061e-05
2.62237e-05
-1.19653e-05
2.52593e-05
-1.18594e-05
2.47764e-05
-1.28631e-05
2.38481e-05
-1.32935e-05
2.27877e-05
-1.35109e-05
2.24609e-05
-1.51215e-05
2.19967e-05
-1.66063e-05
2.08152e-05
-1.70398e-05
1.97218e-05
-1.75735e-05
1.93813e-05
-1.88276e-05
1.97683e-05
-2.01479e-05
2.03322e-05
-2.07288e-05
2.0927e-05
-2.06691e-05
2.15842e-05
-2.02332e-05
2.22957e-05
-1.91655e-05
2.28049e-05
-1.71725e-05
2.29591e-05
-1.44851e-05
2.28728e-05
-1.12309e-05
2.27994e-05
-7.90227e-06
2.2905e-05
-5.3406e-06
2.32065e-05
-3.10936e-06
2.37483e-05
-6.77015e-07
2.44008e-05
2.3445e-06
2.44223e-05
5.5321e-06
2.42654e-05
8.24205e-06
2.42367e-05
9.98427e-06
2.39952e-05
1.19071e-05
2.43603e-05
1.31662e-05
2.46323e-05
1.52135e-05
2.44145e-05
1.70667e-05
2.36973e-05
1.75596e-05
2.2658e-05