/*--------------------------------*- C++ -*----------------------------------*\
| =========                 |                                                 |
| \\      /  F ield         | OpenFOAM: The Open Source CFD Toolbox           |
|  \\    /   O peration     | Version:  2.4.0                                 |
|   \\  /    A nd           | Web:      www.OpenFOAM.org                      |
|    \\/     M anipulation  |                                                 |
\*---------------------------------------------------------------------------*/
FoamFile
{
    version     2.0;
    format      ascii;
    class       volScalarField;
    location    "1.63";
    object      pMean;
}
// * * * * * * * * * * * * * * * * * * * * * * * * * * * * * * * * * * * * * //

dimensions      [0 2 -2 0 0 0 0];

internalField   nonuniform List<scalar> 
8800
(
87.2014
74.7535
67.3502
63.7853
61.895
60.4575
59.2491
58.0943
57.0643
56.0254
55.0744
54.0789
53.174
52.2213
51.3813
50.4973
49.7371
48.94
48.2446
47.4516
84.0901
74.3991
67.5185
63.8992
61.955
60.4828
59.2567
58.0946
57.0622
56.023
55.0715
54.0767
53.1714
52.2196
51.3794
50.4953
49.7389
48.9343
48.2461
47.41
82.125
74.4753
68.12
64.2748
62.1225
60.5622
59.3033
58.1273
57.0865
56.04
55.0818
54.0814
53.1729
52.2178
51.3784
50.4889
49.743
48.9245
48.2993
47.4469
80.5897
74.5373
68.7058
64.6983
62.3062
60.6503
59.3659
58.1841
57.135
56.0789
55.1093
54.0989
53.1839
52.2218
51.3811
50.4835
49.7459
48.9266
48.3888
47.6244
79.3412
74.511
69.1803
65.1039
62.4747
60.7181
59.4151
58.242
57.1906
56.1308
55.1443
54.1262
53.1965
52.2322
51.3799
50.4847
49.7369
48.944
48.3872
47.8624
78.3563
74.4142
69.5443
65.4498
62.6247
60.761
59.4432
58.2869
57.2404
56.1806
55.1789
54.1533
53.2072
52.2414
51.3749
50.4841
49.7211
48.9579
48.4334
48.2031
77.5998
74.2974
69.8112
65.7292
62.7595
60.7868
59.4517
58.3183
57.2793
56.2223
55.2072
54.1762
53.2136
52.2479
51.3666
50.4815
49.7014
48.9636
48.5088
48.5721
77.0463
74.1968
69.9918
65.9415
62.8771
60.8061
59.4443
58.3422
57.3062
56.2563
55.2261
54.197
53.2144
52.2559
51.3544
50.4847
49.6794
48.9649
48.4685
48.8962
76.6858
74.1265
70.1056
66.0861
62.9617
60.8195
59.4353
58.3583
57.3263
56.2812
55.2408
54.2123
53.2179
52.2628
51.3509
50.4883
49.6705
48.9815
48.5383
49.1996
76.5062
74.0951
70.1637
66.1634
63.0068
60.8295
59.4309
58.3693
57.3395
56.298
55.2509
54.2238
53.2233
52.2713
51.3543
50.497
49.6794
49.006
48.6025
49.3185
76.4991
74.1063
70.1647
66.1686
63.0064
60.8333
59.4285
58.3735
57.3395
56.303
55.2516
54.2298
53.2256
52.2799
51.3595
50.5095
49.69
49.0308
48.6409
49.4116
76.6677
74.1553
70.1087
66.0973
62.9616
60.8283
59.4305
58.3679
57.3277
56.2932
55.2441
54.2282
53.2266
52.2858
51.3679
50.5223
49.7062
49.049
48.665
49.4428
77.0183
74.238
69.9936
65.955
62.8753
60.8193
59.4357
58.3569
57.3069
56.2745
55.2301
54.2227
53.227
52.2936
51.3812
50.5411
49.7298
49.0708
48.6697
49.4109
77.5642
74.3445
69.8114
65.7426
62.7522
60.8019
59.4389
58.3357
57.2764
56.2447
55.2085
54.2102
53.225
52.2999
51.3966
50.564
49.7611
49.0992
48.6589
49.2992
78.3175
74.461
69.5463
65.4606
62.6133
60.773
59.4315
58.3024
57.2362
56.2039
55.1801
54.19
53.2202
52.3017
51.4128
50.588
49.8014
49.1377
48.6591
49.1027
79.2993
74.559
69.1836
65.1138
62.4606
60.728
59.4053
58.2571
57.1871
56.1548
55.1473
54.1649
53.2138
52.2996
51.4289
50.6102
49.849
49.1876
48.689
48.842
80.5457
74.5863
68.7111
64.7104
62.2911
60.6603
59.3577
58.2007
57.1322
56.1047
55.1144
54.1403
53.2065
52.2953
51.4426
50.6269
49.8956
49.2357
48.7488
48.5678
82.0801
74.5231
68.1284
64.289
62.1075
60.5721
59.2961
58.1445
57.0851
56.0661
55.09
54.1234
53.2014
52.2934
51.4527
50.6396
49.929
49.2726
48.8081
48.4256
84.0441
74.4443
67.529
63.915
61.9407
60.4925
59.2497
58.1121
57.0616
56.0494
55.0809
54.1195
53.2021
52.2966
51.4594
50.6495
49.9446
49.2941
48.8051
48.3495
87.1544
74.7967
67.3603
63.8016
61.8814
60.4671
59.2423
58.112
57.0636
56.0524
55.0837
54.1222
53.2048
52.2991
51.4625
50.6528
49.9482
49.2999
48.8065
48.4694
47.5163
47.4367
47.2217
46.9859
46.7905
46.6409
46.5352
46.4614
46.4105
46.3767
46.3561
46.3387
46.3218
46.3001
46.272
46.2343
46.1881
46.129
46.061
45.9815
45.8972
45.8126
45.7339
45.6616
45.6001
45.55
45.5114
45.4769
45.4411
45.395
45.3367
45.266
45.1895
45.1125
45.0391
44.9663
44.8924
44.8074
44.7109
44.5978
44.4754
44.3426
44.2151
44.0972
44.002
43.9274
43.8791
43.849
43.8365
43.8312
43.8278
43.8132
43.7857
43.7342
43.6644
43.5672
43.4547
43.3212
43.1788
43.0188
42.8491
42.6634
42.4745
42.2829
42.1073
41.9558
41.8442
41.7804
41.771
41.8043
41.8792
41.9771
42.0964
42.2163
42.3413
42.45
42.5504
42.6213
42.6732
42.6904
42.6856
42.6511
42.6043
42.5352
42.4679
42.3955
42.3368
42.2917
42.2666
42.2646
42.2885
42.3387
42.4148
42.5088
42.6214
42.7437
42.8817
43.0235
43.1748
43.3223
43.4707
43.6046
43.7336
43.8328
43.9272
43.9939
44.0593
44.1059
44.1596
44.1959
44.2348
44.2561
44.2763
44.2776
44.2796
44.2702
44.2689
44.2627
44.269
44.2725
44.2894
44.3029
44.3326
44.3554
44.3989
44.4272
44.4841
44.524
44.5975
44.667
44.7685
44.8719
44.9967
45.1208
45.2591
45.3947
45.5421
45.681
45.8267
45.9613
46.1054
46.2443
46.3939
46.5404
46.6971
46.8494
47.0122
47.1766
47.3487
47.522
47.7002
47.8769
48.0596
48.2355
48.4148
48.5907
48.7772
48.9523
49.1447
49.3249
49.5257
49.6969
49.8944
50.0519
50.2333
50.3686
50.5353
50.6474
50.7934
50.8713
51.0107
51.0585
51.2068
51.2497
51.4231
51.4722
51.6841
51.7438
51.9932
52.0873
52.3686
52.5097
52.8361
53.0427
53.4124
53.6884
54.0951
54.4115
54.8479
55.1678
55.5925
55.84
56.1308
56.1076
55.9898
55.2208
53.978
50.682
46.466
25.9109
47.2908
47.263
47.195
47.0418
46.8586
46.6925
46.5721
46.4953
46.454
46.4323
46.4224
46.4121
46.3996
46.3792
46.3523
46.3147
46.2691
46.2123
46.1486
46.0759
45.9998
45.923
45.8523
45.7871
45.7322
45.6851
45.6473
45.6127
45.579
45.5384
45.4897
45.4298
45.3641
45.2937
45.2241
45.151
45.0761
44.9913
44.8981
44.7905
44.6754
44.5527
44.434
44.323
44.2301
44.155
44.1026
44.0671
44.0475
44.0333
44.0224
44.002
43.9725
43.9217
43.8557
43.7647
43.6585
43.5314
43.394
43.2406
43.0788
42.9045
42.7269
42.5492
42.3839
42.2399
42.1298
42.0588
42.0353
42.0505
42.1044
42.1816
42.2808
42.384
42.4905
42.585
42.6675
42.7249
42.7609
42.7671
42.7528
42.7133
42.6625
42.5977
42.5323
42.4675
42.4114
42.3708
42.3467
42.3446
42.3663
42.4127
42.4834
42.5719
42.6799
42.7998
42.9337
43.0716
43.2173
43.3604
43.5035
43.634
43.7555
43.8508
43.9388
44.0051
44.0662
44.1106
44.1552
44.1854
44.2127
44.2249
44.2307
44.2212
44.2063
44.1863
44.1687
44.152
44.1417
44.1295
44.1304
44.1274
44.1433
44.1541
44.1871
44.2087
44.2544
44.2891
44.3484
44.4057
44.4892
44.5754
44.6835
44.7917
44.9159
45.0349
45.1677
45.2912
45.4215
45.5409
45.6695
45.7928
45.9247
46.0518
46.1919
46.3215
46.4696
46.6128
46.7731
46.9304
47.0983
47.2628
47.4428
47.6085
47.7909
47.9593
48.1545
48.3249
48.5265
48.7042
48.9097
49.0752
49.2748
49.4242
49.6049
49.7325
49.8944
49.9881
50.1288
50.1785
50.3066
50.3248
50.459
50.468
50.6315
50.647
50.8463
50.8807
51.1115
51.1844
51.439
51.5566
51.8419
52.018
52.3415
52.5572
52.9182
53.1356
53.5046
53.6793
53.9756
53.9939
54.0685
53.6445
53.152
51.5216
49.7737
43.9869
38.074
19.139
47.268
47.2772
47.2978
47.1967
46.9979
46.7774
46.6061
46.503
46.4643
46.4602
46.4715
46.4779
46.476
46.4594
46.4328
46.3929
46.3455
46.2882
46.2264
46.1581
46.0894
46.0203
45.9577
45.8996
45.8508
45.8076
45.7723
45.7389
45.7077
45.671
45.6297
45.5782
45.5217
45.4577
45.3924
45.3209
45.2467
45.1635
45.0745
44.9748
44.8695
44.7587
44.6509
44.5492
44.4616
44.3881
44.3334
44.2925
44.266
44.2436
44.2248
44.1978
44.1637
44.1122
44.047
43.9608
43.8594
43.7392
43.607
43.4612
43.3072
43.1447
42.9804
42.8175
42.6657
42.5317
42.4266
42.3532
42.3191
42.3194
42.3544
42.4133
42.4927
42.5792
42.6682
42.7471
42.8125
42.8556
42.8763
42.8725
42.8489
42.807
42.7531
42.692
42.6277
42.5678
42.5154
42.4776
42.4538
42.4496
42.4664
42.5065
42.569
42.6521
42.7549
42.873
43.0028
43.1387
43.2804
43.4203
43.5583
43.6867
43.8025
43.8973
43.9832
44.0519
44.1116
44.1568
44.1964
44.2241
44.243
44.25
44.2441
44.2262
44.1985
44.1691
44.1399
44.1106
44.0873
44.0601
44.0499
44.0328
44.0397
44.0413
44.0671
44.0863
44.1232
44.1554
44.2028
44.2521
44.3194
44.3903
44.4821
44.575
44.6842
44.7877
44.9035
45.0118
45.1257
45.2291
45.3423
45.4506
45.5677
45.6808
45.8064
45.921
46.0577
46.1841
46.3339
46.4711
46.6259
46.7735
46.9462
47.0987
47.2839
47.4462
47.646
47.8173
48.0283
48.2106
48.4191
48.5833
48.7841
48.9238
49.1048
49.2179
49.3759
49.4442
49.5789
49.6027
49.7193
49.7089
49.838
49.8136
49.9741
49.9624
50.1401
50.1579
50.3511
50.4091
50.6169
50.7103
50.9514
51.0756
51.3617
51.4931
51.8049
51.9071
52.1902
52.193
52.371
52.0954
52.0156
51.0411
50.4355
47.649
45.7372
38.5882
31.4641
18.5868
47.1467
47.1702
47.3283
47.2711
47.0513
46.7873
46.5834
46.4733
46.4508
46.4754
46.5184
46.5517
46.5677
46.5592
46.5332
46.4895
46.4372
46.3761
46.3134
46.2473
46.184
46.1217
46.0668
46.0162
45.974
45.9359
45.9044
45.8736
45.8451
45.8119
45.7757
45.7308
45.681
45.6228
45.5612
45.4925
45.4206
45.3411
45.2575
45.1665
45.0723
44.9741
44.8787
44.7869
44.7059
44.6349
44.5787
44.5326
44.4983
44.4676
44.4403
44.4073
44.3686
44.3163
44.2518
44.1699
44.0736
43.9611
43.8368
43.701
43.5579
43.4088
43.2589
43.1115
42.9741
42.8516
42.7528
42.6798
42.6384
42.6264
42.645
42.686
42.7461
42.8143
42.8849
42.9464
42.9947
43.0237
43.0313
43.0191
42.9887
42.9443
42.8884
42.8288
42.7672
42.7111
42.6622
42.6246
42.5984
42.5883
42.5974
42.6292
42.684
42.7612
42.8604
42.9757
43.1026
43.2355
43.3746
43.5117
43.6466
43.7728
43.8858
43.9806
44.0667
44.1388
44.2
44.2485
44.2875
44.3155
44.3312
44.3341
44.32
44.2939
44.2587
44.2199
44.1845
44.1445
44.1135
44.0757
44.0567
44.029
44.0289
44.0234
44.0449
44.0602
44.0924
44.119
44.1617
44.2045
44.2634
44.3241
44.4007
44.4805
44.5741
44.6636
44.7633
44.8559
44.9529
45.0402
45.1392
45.2327
45.3389
45.4422
45.5581
45.6665
45.7948
45.9085
46.0465
46.1624
46.3034
46.4284
46.5921
46.7272
46.913
47.0731
47.278
47.4529
47.6755
47.8563
48.0707
48.229
48.4384
48.5558
48.7476
48.8314
48.9954
49.0299
49.1645
49.1567
49.2692
49.2294
49.3625
49.321
49.4652
49.4462
49.5833
49.595
49.7361
49.7753
49.9356
49.9945
50.1931
50.2528
50.491
50.5288
50.7829
50.7347
50.9814
50.7175
50.8852
50.1642
50.1139
48.4073
47.7995
44.1413
41.6701
34.9557
27.3823
18.7755
47.9905
47.8835
47.5711
47.2148
46.8765
46.5984
46.4342
46.3792
46.4072
46.4773
46.5612
46.628
46.6666
46.6698
46.6459
46.5989
46.5404
46.4737
46.4074
46.3414
46.2815
46.2254
46.1778
46.1351
46.1003
46.0687
46.0423
46.0157
45.9905
45.9611
45.9292
45.8898
45.8457
45.7936
45.7372
45.674
45.6072
45.534
45.4577
45.3761
45.2927
45.2065
45.1222
45.0395
44.9642
44.8952
44.8368
44.7859
44.7441
44.7061
44.6713
44.6331
44.5902
44.5375
44.4741
44.3972
44.3077
44.205
44.0915
43.9681
43.8385
43.7041
43.5698
43.4379
43.3152
43.2046
43.1134
43.0432
42.9985
42.9776
42.9824
43.007
43.048
43.097
43.1472
43.1902
43.2215
43.237
43.234
43.2146
43.1796
43.133
43.0773
43.0186
42.9592
42.9037
42.8542
42.8117
42.778
42.7576
42.7573
42.7794
42.8276
42.8995
42.9968
43.1103
43.2358
43.3683
43.5063
43.643
43.7779
43.9037
44.0168
44.1133
44.2013
44.2769
44.3401
44.3932
44.4322
44.4611
44.4748
44.4732
44.4537
44.4204
44.3815
44.3373
44.2995
44.2548
44.2185
44.1763
44.1504
44.1206
44.1155
44.1094
44.1253
44.1378
44.1651
44.1877
44.2301
44.2666
44.324
44.3758
44.444
44.5106
44.5922
44.6672
44.7555
44.8302
44.9165
44.9877
45.0768
45.1551
45.2561
45.3511
45.4654
45.571
45.6939
45.7955
45.9245
46.0172
46.1481
46.2475
46.4005
46.519
46.703
46.8564
47.0713
47.2411
47.4782
47.6479
47.8741
48.0204
48.2406
48.3342
48.5396
48.5883
48.7572
48.7581
48.8921
48.8504
48.9586
48.9044
49.0334
48.9994
49.1212
49.1
49.2075
49.196
49.302
49.2993
49.4321
49.4317
49.6064
49.5742
49.7903
49.6789
49.9259
49.6408
49.9003
49.2934
49.4676
48.2981
48.1707
46.0031
44.9928
41.3321
38.0888
32.7639
25.6481
19.2874
48.6565
48.49
47.8299
47.184
46.6827
46.3674
46.2478
46.2682
46.3692
46.5008
46.631
46.7299
46.7864
46.7973
46.7729
46.7212
46.6552
46.5818
46.5105
46.4432
46.3847
46.3336
46.2921
46.257
46.2293
46.2047
46.1838
46.1624
46.1411
46.116
46.0879
46.0536
46.0147
45.969
45.9189
45.8627
45.8027
45.7376
45.6697
45.598
45.5246
45.4491
45.3743
45.3001
45.2301
45.1642
45.1049
45.051
45.0033
44.959
44.917
44.8734
44.8261
44.7722
44.71
44.638
44.5558
44.4631
44.3611
44.2509
44.1354
44.0166
43.8983
43.7829
43.6754
43.5779
43.4961
43.4308
43.3858
43.3597
43.3543
43.3663
43.391
43.4218
43.4525
43.4779
43.4932
43.496
43.4837
43.4583
43.4197
43.3715
43.3156
43.2557
43.195
43.136
43.0812
43.0295
42.9843
42.9499
42.9395
42.9528
42.9951
43.064
43.1612
43.2744
43.3991
43.5332
43.6727
43.8127
43.9511
44.0818
44.1989
44.3005
44.3923
44.4707
44.5363
44.5923
44.6316
44.659
44.6695
44.6618
44.6375
44.5978
44.5582
44.5135
44.476
44.4325
44.3939
44.3527
44.3254
44.3015
44.2965
44.2957
44.3078
44.3208
44.3425
44.3673
44.4079
44.4476
44.5048
44.5521
44.6167
44.6698
44.7423
44.8029
44.8824
44.9427
45.0226
45.0817
45.1627
45.2311
45.331
45.4193
45.5393
45.6434
45.7638
45.8578
45.9762
46.0472
46.1634
46.2416
46.3794
46.4787
46.6637
46.8024
47.0264
47.1856
47.434
47.5885
47.8336
47.9599
48.2001
48.2629
48.4822
48.4986
48.6731
48.6322
48.7727
48.6914
48.8057
48.7427
48.8763
48.8411
48.9675
48.921
49.028
48.9686
49.0644
48.9885
49.1182
49.0302
49.1904
49.0468
49.2366
48.9759
49.1781
48.7118
48.8659
48.0486
48.0152
46.6461
46.1653
43.9913
42.4812
39.3299
35.8166
31.7982
25.6787
20.4042
49.2996
49.0497
48.0258
47.0696
46.397
46.0583
46.0131
46.1414
46.3404
46.5459
46.7229
46.8491
46.9167
46.9287
46.8982
46.838
46.7624
46.6818
46.6051
46.5364
46.4789
46.4321
46.396
46.3679
46.3468
46.3293
46.3141
46.2984
46.2814
46.2606
46.2361
46.2063
46.1717
46.1317
46.0872
46.0379
45.9851
45.9284
45.8689
45.8064
45.7423
45.6764
45.6101
45.5439
45.4792
45.4169
45.3581
45.303
45.2516
45.2029
45.1557
45.108
45.0576
45.0032
44.9429
44.8758
44.8008
44.7179
44.6274
44.5307
44.4295
44.3263
44.2236
44.1241
44.0307
43.9461
43.8731
43.8139
43.7706
43.7438
43.7332
43.7367
43.7497
43.766
43.7801
43.7894
43.7904
43.7823
43.7624
43.7315
43.6899
43.6399
43.5818
43.5176
43.4518
43.3868
43.3242
43.2614
43.2034
43.1551
43.1331
43.1394
43.1788
43.249
43.3484
43.4634
43.5908
43.7293
43.8727
44.0206
44.1661
44.3052
44.43
44.5411
44.6354
44.7157
44.7837
44.8394
44.877
44.8998
44.9072
44.8939
44.866
44.8221
44.7816
44.7386
44.703
44.6648
44.6276
44.5937
44.5735
44.5629
44.5661
44.5762
44.5912
44.6072
44.6268
44.6537
44.6936
44.7402
44.7961
44.8486
44.9069
44.9561
45.0193
45.073
45.1445
45.2004
45.2741
45.3292
45.4053
45.4734
45.5705
45.6582
45.7771
45.884
46.0033
46.0935
46.1987
46.2541
46.3478
46.4134
46.5298
46.6088
46.7917
46.9168
47.1357
47.2985
47.5514
47.6873
47.9568
48.0654
48.3183
48.3623
48.5813
48.5812
48.7518
48.6897
48.8168
48.7158
48.825
48.7783
48.9065
48.8803
48.9984
48.9476
49.0378
48.9483
49.0071
48.8867
48.9624
48.8194
48.8953
48.681
48.7677
48.4191
48.4943
47.9203
47.8853
46.9783
46.7123
45.3015
44.5517
42.5357
40.8254
38.2981
34.9492
31.822
26.7539
22.0726
50.397
49.9634
48.2833
46.8766
46.0091
45.6662
45.7246
45.9928
46.314
46.6027
46.8251
46.9727
47.0453
47.0533
47.0123
46.9409
46.855
46.7678
46.6874
46.6188
46.5633
46.5212
46.4903
46.4689
46.4538
46.4428
46.4329
46.4224
46.4092
46.3926
46.3713
46.3454
46.3145
46.2792
46.2394
46.1961
46.1491
46.0993
46.0465
45.9916
45.9345
45.8762
45.8166
45.7569
45.6972
45.6388
45.5818
45.5273
45.4744
45.4238
45.3739
45.3247
45.2737
45.2209
45.1638
45.1027
45.0355
44.9629
44.884
44.8007
44.7131
44.6241
44.535
44.4493
44.3681
44.2949
44.2308
44.1787
44.1388
44.1134
44.0999
44.0978
44.1013
44.1059
44.1063
44.1023
44.0911
44.0747
44.0495
44.0151
43.9706
43.9179
43.8554
43.786
43.7146
43.6425
43.5728
43.5003
43.4305
43.3717
43.3405
43.3437
43.3836
43.4586
43.5602
43.6791
43.811
43.9555
44.1067
44.265
44.4225
44.5747
44.7095
44.83
44.9262
45.0103
45.0786
45.13
45.1627
45.1789
45.1819
45.1657
45.1344
45.0892
45.0471
45.0093
44.9784
44.9487
44.9195
44.9001
44.8948
44.9038
44.9216
44.9473
44.9703
44.9929
45.0163
45.0481
45.0914
45.1421
45.1989
45.254
45.3073
45.361
45.4187
45.4733
45.541
45.5996
45.67
45.7281
45.8015
45.8726
45.9679
46.0579
46.1795
46.2851
46.407
46.4931
46.5948
46.63
46.7026
46.7623
46.858
46.9253
47.1024
47.2102
47.4226
47.5766
47.8429
47.9577
48.2414
48.3484
48.6058
48.6433
48.8586
48.8634
49.0202
48.9484
49.0485
48.941
49.0317
49.0105
49.1366
49.127
49.2354
49.1862
49.2657
49.1406
49.1596
49.001
49.0105
48.8035
48.7875
48.4975
48.4897
48.0454
48.0354
47.3428
47.1942
46.2136
45.8187
44.4492
43.5972
41.8305
40.1008
38.0989
35.0693
32.4131
28.2156
23.9827
50.8624
50.387
48.47
46.8352
45.8342
45.4594
45.5621
45.9134
46.3162
46.6686
46.9307
47.0978
47.1735
47.1742
47.1201
47.0363
46.9405
46.8477
46.765
46.6974
46.6448
46.6074
46.5819
46.5665
46.557
46.5514
46.546
46.5397
46.5298
46.5164
46.4978
46.4751
46.4472
46.4156
46.3796
46.3409
46.2984
46.2538
46.206
46.1567
46.1048
46.0521
45.9975
45.9428
45.8871
45.8324
45.7775
45.7243
45.6716
45.621
45.5707
45.5219
45.4721
45.4222
45.3695
45.3148
45.2554
45.1927
45.1245
45.0533
44.9783
44.9025
44.826
44.7529
44.6834
44.6217
44.5672
44.523
44.4878
44.4646
44.4499
44.4433
44.4379
44.4319
44.4199
44.4042
44.3841
44.3625
44.3342
44.2988
44.2539
44.1999
44.1342
44.0597
43.9811
43.902
43.8246
43.7425
43.6667
43.601
43.5668
43.5713
43.6168
43.6973
43.8029
43.9249
44.063
44.2151
44.3783
44.5488
44.7218
44.8909
45.0404
45.1695
45.2707
45.3571
45.422
45.4653
45.4889
45.4975
45.4964
45.4769
45.4444
45.4014
45.3618
45.3316
45.3093
45.2908
45.2768
45.2762
45.2924
45.3249
45.3627
45.4084
45.4439
45.4779
45.5097
45.5477
45.5967
45.6498
45.7095
45.7653
45.8183
45.8789
45.9354
45.9937
46.0629
46.1217
46.1945
46.2558
46.3297
46.409
46.5075
46.6023
46.732
46.8347
46.9712
47.0482
47.1658
47.1638
47.2346
47.277
47.3546
47.4181
47.5902
47.6724
47.8953
48.0299
48.3184
48.4018
48.7082
48.8021
49.0734
49.078
49.32
49.3202
49.4901
49.3744
49.4594
49.3527
49.4474
49.4456
49.5671
49.5777
49.6816
49.6368
49.7138
49.5289
49.5306
49.3244
49.2891
49
48.9332
48.5431
48.456
47.9689
47.8816
47.1755
46.9684
45.9262
45.4784
44.1771
43.2888
41.7869
40.0923
38.4346
35.7451
33.3111
29.7604
25.9479
51.0983
50.6578
48.6725
46.9337
45.8447
45.4126
45.5063
45.8907
46.3407
46.7353
47.0263
47.2082
47.2858
47.28
47.2151
47.1208
47.0171
46.9204
46.8368
46.7711
46.7219
46.6894
46.6692
46.6592
46.6546
46.6533
46.6514
46.6481
46.6406
46.6296
46.6132
46.593
46.5677
46.5392
46.5064
46.4711
46.4323
46.3917
46.348
46.303
46.2553
46.2069
46.1563
46.1055
46.0532
46.0015
45.9491
45.8981
45.8469
45.7978
45.7489
45.7019
45.6549
45.609
45.5616
45.5137
45.4623
45.4086
45.3503
45.2901
45.2266
45.1626
45.0978
45.0367
44.9786
44.9275
44.8828
44.847
44.8177
44.7981
44.7834
44.7721
44.7582
44.7429
44.7223
44.6981
44.672
44.6481
44.62
44.5868
44.5442
44.4908
44.424
44.3467
44.2616
44.1729
44.0873
43.9965
43.9178
43.8495
43.8184
43.8272
43.8829
43.9709
44.0836
44.2096
44.3568
44.5178
44.6926
44.8752
45.0662
45.2535
45.4198
45.5567
45.6626
45.747
45.8055
45.8392
45.8542
45.8563
45.8521
45.8301
45.7993
45.7611
45.7286
45.7092
45.6995
45.6973
45.7037
45.7261
45.7687
45.8267
45.8907
45.9577
46.0116
46.0614
46.1049
46.1487
46.2016
46.2547
46.3172
46.3722
46.4317
46.4963
46.5581
46.6208
46.6961
46.7534
46.8351
46.8987
46.9799
47.0677
47.1769
47.2786
47.4264
47.5223
47.6886
47.7504
47.8942
47.8338
47.9348
47.9359
48.0264
48.074
48.2445
48.2945
48.5429
48.6545
48.9756
49.0099
49.3701
49.4157
49.75
49.6593
49.9797
49.951
50.1803
49.9625
50.071
49.9285
50.0707
50.0786
50.2281
50.2314
50.3476
50.2849
50.3757
50.0997
50.1245
49.8667
49.8072
49.4151
49.3033
48.8301
48.7358
48.2426
48.1449
47.3406
47.1381
46.0204
45.5665
44.3494
43.4308
42.1536
40.5433
39.0607
36.6813
34.368
31.2685
27.8497
51.2432
50.8217
48.8144
47.0282
45.8971
45.4324
45.519
45.9182
46.3918
46.8076
47.1126
47.3005
47.3766
47.3638
47.2908
47.1901
47.0831
46.9859
46.9041
46.8418
46.7971
46.7694
46.7541
46.7486
46.7475
46.7491
46.7492
46.7476
46.7416
46.732
46.7174
46.6991
46.676
46.6501
46.6201
46.5879
46.5523
46.515
46.4748
46.4332
46.389
46.344
46.2969
46.2494
46.2005
46.1519
46.1024
46.054
46.0056
45.9592
45.9132
45.8693
45.8257
45.7842
45.7424
45.7013
45.658
45.6132
45.5653
45.516
45.4638
45.4114
45.3588
45.3094
45.2619
45.2206
45.1857
45.1585
45.1353
45.1184
45.1032
45.0871
45.0666
45.0445
45.0176
44.9887
44.9605
44.9371
44.9129
44.8863
44.8494
44.799
44.7332
44.6539
44.5649
44.4681
44.3755
44.2789
44.2011
44.1341
44.1142
44.1282
44.1968
44.2928
44.4146
44.5449
44.705
44.8745
45.0608
45.2512
45.4601
45.6619
45.843
45.9841
46.0914
46.1684
46.219
46.2432
46.2542
46.2539
46.2492
46.2282
46.2056
46.1738
46.1557
46.1479
46.159
46.1733
46.2082
46.2557
46.3302
46.4126
46.5067
46.5919
46.6728
46.738
46.7993
46.8491
46.9068
46.9549
47.0213
47.0702
47.1401
47.2027
47.2782
47.3444
47.4291
47.4913
47.5843
47.6529
47.749
47.8451
47.9743
48.0786
48.251
48.3382
48.5422
48.5821
48.7497
48.6192
48.7849
48.7335
48.8712
48.8727
49.0721
49.0937
49.3758
49.4491
49.7908
49.7801
50.1964
50.1977
50.5774
50.4218
50.8587
50.7604
51.0602
50.7261
50.9075
50.6923
50.9406
50.8917
51.1086
51.0819
51.2256
51.1548
51.2559
50.8633
50.8995
50.6117
50.4773
50.0537
49.9067
49.4601
49.3911
48.7864
48.6565
47.745
47.6232
46.4373
45.9669
44.8439
43.8976
42.7695
41.3004
39.8602
37.7134
35.5013
32.7174
29.6432
51.298
50.8739
48.8639
47.0822
45.9613
45.5092
45.6094
46.0174
46.4937
46.9058
47.2037
47.3822
47.448
47.4261
47.3476
47.2451
47.1398
47.0462
46.9695
46.9124
46.8733
46.8503
46.839
46.8363
46.8373
46.84
46.841
46.8399
46.8347
46.826
46.8128
46.7961
46.7753
46.7516
46.7243
46.6948
46.6622
46.6279
46.591
46.5526
46.5117
46.4697
46.4257
46.3811
46.3353
46.2897
46.2436
46.1987
46.1542
46.1115
46.0694
46.0294
45.9905
45.9539
45.9178
45.8831
45.8478
45.8122
45.7748
45.7364
45.6957
45.6549
45.6149
45.5775
45.5418
45.5109
45.4862
45.4667
45.4485
45.4328
45.4164
45.3965
45.3705
45.341
45.3078
45.2762
45.2491
45.2307
45.2157
45.1996
45.1725
45.1302
45.0692
44.9907
44.8989
44.7973
44.7
44.6032
44.5296
44.4715
44.4678
44.4881
44.5707
44.6717
44.802
44.9331
45.1064
45.2823
45.4792
45.6742
45.9009
46.1124
46.3061
46.4473
46.5526
46.6128
46.658
46.67
46.6838
46.6839
46.6855
46.6694
46.6613
46.6412
46.6467
46.6538
46.6936
46.7275
46.7976
46.8687
46.9782
47.0845
47.2131
47.3168
47.4234
47.5024
47.5864
47.6431
47.7108
47.7589
47.8236
47.8693
47.9473
48.0083
48.0954
48.1709
48.263
48.3389
48.443
48.5208
48.6292
48.7344
48.8813
48.9993
49.1825
49.2736
49.4963
49.5408
49.6701
49.5152
49.7719
49.637
49.8476
49.7889
50.038
50.0327
50.3512
50.4226
50.7414
50.7162
51.1792
51.1446
51.5223
51.376
51.8782
51.7513
52.0588
51.668
51.8812
51.6214
52.007
51.9212
52.1935
52.1171
52.2955
52.2334
52.2421
51.8293
51.8587
51.4656
51.3361
50.9344
50.7549
50.2732
50.1246
49.4971
49.3707
48.4756
48.207
47.109
46.6064
45.5828
44.6544
43.5589
42.2236
40.7591
38.7931
36.6828
34.1305
31.3402
51.2469
50.8132
48.8348
47.1149
46.0575
45.6649
45.7992
46.2056
46.6576
47.0369
47.3034
47.4542
47.4995
47.466
47.3852
47.2862
47.188
47.1026
47.0345
46.9849
46.9522
46.9339
46.9256
46.9241
46.9255
46.9278
46.9285
46.927
46.922
46.9138
46.9018
46.8866
46.8679
46.8465
46.822
46.7953
46.766
46.7348
46.7013
46.666
46.6285
46.5894
46.5486
46.5071
46.4648
46.4228
46.3812
46.3407
46.3009
46.2625
46.2254
46.1902
46.1568
46.126
46.0968
46.069
46.0415
46.0146
45.9876
45.9604
45.9316
45.9024
45.8749
45.8498
45.8267
45.808
45.7939
45.7818
45.7688
45.7551
45.7369
45.7115
45.6796
45.6444
45.608
45.5766
45.5534
45.5418
45.5384
45.5352
45.5206
45.4898
45.4377
45.363
45.2717
45.1718
45.0756
44.9834
44.9146
44.8703
44.8829
44.9149
45.0088
45.1112
45.2433
45.3763
45.5638
45.7424
45.9463
46.1449
46.3886
46.604
46.8084
46.9437
47.0442
47.0865
47.1248
47.1281
47.1529
47.1532
47.1668
47.1583
47.1706
47.1692
47.2052
47.2334
47.3074
47.3687
47.478
47.5759
47.7218
47.8484
48.0056
48.1251
48.2592
48.351
48.4593
48.5257
48.6076
48.6556
48.725
48.7723
48.8571
48.9257
49.0258
49.1118
49.2132
49.3038
49.4121
49.5005
49.6239
49.7384
49.8944
50.0338
50.219
50.3403
50.5417
50.6229
50.68
50.5573
50.8314
50.6447
50.9136
50.8471
51.1552
51.1278
51.4504
51.538
51.8011
51.8089
52.2537
52.2595
52.6517
52.5764
53.0234
52.9514
53.1536
52.7606
53.031
52.7035
53.2182
53.091
53.4091
53.3283
53.5026
53.3979
53.3902
52.9718
52.9553
52.4725
52.3873
51.9307
51.6832
51.2941
51.0467
50.6027
50.1609
49.3923
48.9537
47.9865
47.4514
46.4936
45.6229
44.4881
43.2606
41.7255
39.9149
37.8923
35.5235
32.9637
51.042
50.6036
48.7287
47.1527
46.2207
45.9266
46.0969
46.4775
46.8731
47.1902
47.4018
47.5086
47.5262
47.4816
47.4026
47.3128
47.2273
47.1548
47.0982
47.0581
47.032
47.0174
47.0106
47.0087
47.0088
47.0093
47.0086
47.0059
47.0006
46.9926
46.9814
46.9676
46.9509
46.9317
46.9102
46.8867
46.8609
46.8333
46.8035
46.7719
46.7379
46.7022
46.6646
46.6267
46.5891
46.5524
46.5161
46.4805
46.4459
46.4129
46.3813
46.3518
46.3248
46.3007
46.2787
46.259
46.241
46.2251
46.2098
46.1934
46.1759
46.1593
46.1449
46.1328
46.1234
46.1172
46.1131
46.1082
46.1002
46.0882
46.0693
46.042
46.0067
45.9665
45.9272
45.8972
45.8806
45.8795
45.8894
45.9008
45.9018
45.8847
45.8432
45.7768
45.6902
45.598
45.5055
45.4222
45.3626
45.3374
45.3603
45.4003
45.4989
45.6017
45.7325
45.8798
46.0806
46.2646
46.4725
46.6788
46.9279
47.1381
47.3436
47.4738
47.5711
47.6013
47.6371
47.6395
47.674
47.6803
47.7098
47.712
47.7465
47.7682
47.835
47.8915
48.0023
48.0964
48.2441
48.3737
48.5502
48.6982
48.8771
49.0117
49.1668
49.2714
49.4002
49.4834
49.5808
49.6366
49.7154
49.7729
49.8704
49.9501
50.067
50.1674
50.2789
50.3826
50.4834
50.5826
50.7073
50.8392
51.0003
51.1765
51.3475
51.5075
51.6806
51.7864
51.7959
51.7932
51.9671
51.7823
52.0872
52.0437
52.3564
52.3669
52.6589
52.7814
52.9489
53.0281
53.3963
53.4948
53.893
53.968
54.2945
54.2516
54.3813
54.0357
54.293
54.1014
54.5163
54.3652
54.6978
54.6542
54.8015
54.6757
54.5598
54.1513
54.1473
53.6172
53.4644
53.0511
52.7503
52.5264
52.0584
51.8156
51.0894
50.593
49.8474
49.0544
48.4395
47.5758
46.7495
45.5454
44.3818
42.752
41.0685
39.1011
36.8909
34.5103
50.5773
50.1636
48.554
47.2497
46.5172
46.3295
46.5041
46.8183
47.1215
47.3495
47.4875
47.5422
47.5316
47.4793
47.4068
47.3309
47.2618
47.2046
47.1607
47.1296
47.1089
47.0963
47.0891
47.0852
47.0827
47.0806
47.0778
47.0737
47.0678
47.0598
47.0495
47.037
47.0223
47.0055
46.9869
46.9665
46.9445
46.9208
46.8952
46.8675
46.8375
46.8059
46.7734
46.7403
46.7076
46.6764
46.647
46.6185
46.5903
46.5628
46.537
46.5142
46.495
46.4788
46.4651
46.4547
46.4472
46.4423
46.4394
46.4366
46.4331
46.4294
46.4275
46.4282
46.4314
46.4359
46.4406
46.4429
46.4405
46.4316
46.4131
46.384
46.3473
46.3056
46.2648
46.2368
46.2285
46.2395
46.2636
46.2899
46.3067
46.3046
46.275
46.2192
46.1434
46.0647
45.9794
45.9134
45.8653
45.8575
45.8872
45.9391
46.0376
46.136
46.2668
46.4383
46.6486
46.8399
47.047
47.2679
47.5079
47.7122
47.9089
48.0364
48.1293
48.1648
48.1968
48.2089
48.252
48.2748
48.3209
48.3441
48.3976
48.4459
48.5398
48.6356
48.7751
48.9094
49.0819
49.2474
49.438
49.6092
49.7998
49.9548
50.1245
50.2485
50.3915
50.4939
50.6116
50.6802
50.7792
50.857
50.9673
51.0687
51.1952
51.3062
51.4249
51.5315
51.6252
51.737
51.8637
52.0158
52.1924
52.4083
52.5652
52.7647
52.8905
53.0032
53.0366
53.1106
53.1577
53.1412
53.3581
53.3827
53.6809
53.7064
53.9421
54.0821
54.2144
54.379
54.602
54.895
55.2561
55.3947
55.5835
55.5619
55.627
55.4492
55.6778
55.6475
55.8569
55.8108
56.0106
56.0227
56.0568
55.9175
55.7695
55.4908
55.3739
54.8846
54.6671
54.3406
53.9421
53.8213
53.2334
53.0615
52.0882
51.872
50.8903
50.3004
49.546
48.8349
47.9281
46.7068
45.5671
43.8558
42.248
40.3064
38.2416
35.9922
49.8178
49.4973
48.3646
47.459
46.9673
46.8568
46.9792
47.1785
47.359
47.4836
47.5462
47.5542
47.5226
47.4684
47.4061
47.3457
47.2928
47.2497
47.2164
47.1917
47.1739
47.1614
47.1524
47.1458
47.1405
47.1359
47.1312
47.126
47.1197
47.1121
47.1025
47.0912
47.0782
47.0636
47.0475
47.0304
47.0125
46.9933
46.9721
46.9487
46.9235
46.8967
46.8693
46.8425
46.8164
46.7916
46.7688
46.7482
46.7283
46.7083
46.6895
46.675
46.6654
46.6592
46.6555
46.6551
46.6585
46.6651
46.673
46.6805
46.6886
46.6988
46.7108
46.7242
46.7381
46.7514
46.7629
46.7703
46.7723
46.767
46.7506
46.724
46.6885
46.6477
46.611
46.5896
46.5901
46.6108
46.6442
46.6802
46.7074
46.7175
46.7022
46.6612
46.6004
46.5409
46.4664
46.4279
46.3979
46.408
46.442
46.5108
46.6016
46.7058
46.8458
47.0326
47.2381
47.4392
47.6513
47.8868
48.1106
48.3131
48.491
48.6226
48.7111
48.7644
48.7961
48.8315
48.8787
48.9306
48.989
49.0464
49.1136
49.1979
49.309
49.4474
49.607
49.7796
49.9635
50.1578
50.3474
50.544
50.7323
50.9078
51.0805
51.2349
51.3873
51.5282
51.6555
51.7606
51.8682
51.9789
52.0947
52.2248
52.3491
52.4832
52.5986
52.7179
52.8133
52.9456
53.0728
53.2524
53.435
53.6681
53.8264
54.0755
54.1322
54.2919
54.2883
54.4139
54.4448
54.5695
54.6752
54.8165
54.9762
55.0608
55.2601
55.4167
55.4863
55.7948
55.932
56.4014
56.5447
56.7508
56.8086
56.8889
56.9274
56.9839
57.0655
57.1178
57.1638
57.281
57.3041
57.3713
57.3
57.2142
56.9349
56.8837
56.5217
56.2766
55.8908
55.6785
55.2256
55.186
54.3666
54.1768
53.1805
53.0895
51.9519
51.6556
50.6783
50.0982
49.0171
47.912
46.7191
44.9881
43.4056
41.5006
39.5501
37.3834
48.9846
48.8186
48.2675
47.7982
47.5189
47.4167
47.4281
47.485
47.5409
47.5735
47.5758
47.5514
47.5086
47.4574
47.4058
47.3586
47.3182
47.2849
47.2581
47.2367
47.2196
47.2059
47.1949
47.1859
47.1785
47.1721
47.1662
47.1602
47.1537
47.1463
47.1374
47.1269
47.1152
47.103
47.09
47.0759
47.061
47.0457
47.0294
47.0109
46.9903
46.9694
46.9488
46.9281
46.9084
46.8919
46.8782
46.8661
46.8545
46.8434
46.8349
46.8308
46.8309
46.8341
46.8408
46.851
46.8644
46.8803
46.8983
46.9168
46.9347
46.9529
46.9728
46.9944
47.0154
47.0337
47.0488
47.0599
47.0656
47.0628
47.0502
47.03
47.0037
46.974
46.9475
46.9337
46.9399
46.9653
47.0039
47.0443
47.0768
47.0952
47.0915
47.0666
47.0268
46.9962
46.9458
46.9368
46.9236
46.9564
47.0007
47.0912