/*--------------------------------*- C++ -*----------------------------------*\
| =========                 |                                                 |
| \\      /  F ield         | OpenFOAM: The Open Source CFD Toolbox           |
|  \\    /   O peration     | Version:  2.4.0                                 |
|   \\  /    A nd           | Web:      www.OpenFOAM.org                      |
|    \\/     M anipulation  |                                                 |
\*---------------------------------------------------------------------------*/
FoamFile
{
    version     2.0;
    format      ascii;
    class       volVectorField;
    location    "1.63";
    object      U_0;
}
// * * * * * * * * * * * * * * * * * * * * * * * * * * * * * * * * * * * * * //

dimensions      [0 1 -1 0 0 0 0];

internalField   nonuniform List<vector> 
8800
(
(8.09342 0.387847 0)
(5.44975 0.242825 0)
(3.90984 0.0427771 0)
(3.16218 -0.0155752 0)
(2.79299 -0.0178219 0)
(2.60935 -0.0119636 0)
(2.47274 -0.00491864 0)
(2.39261 -0.00229753 0)
(2.3043 -0.00176157 0)
(2.26763 -0.000904595 0)
(2.19949 0.000126341 0)
(2.18689 -0.0010327 0)
(2.12632 0.000469567 0)
(2.12589 -0.00031214 0)
(2.05972 0.000941888 0)
(2.06722 -0.000889264 0)
(2.00591 0.00046989 0)
(2.01455 -0.00293123 0)
(2.01571 0.0109831 0)
(1.7875 -0.0700799 0)
(10.0833 0.838073 0)
(9.66269 0.868832 0)
(8.8616 0.505416 0)
(8.10294 0.262465 0)
(7.46637 0.139319 0)
(7.04339 0.0794086 0)
(6.65779 0.0563326 0)
(6.44029 0.0408904 0)
(6.18234 0.0286525 0)
(6.07339 0.0238594 0)
(5.87396 0.0207431 0)
(5.84119 0.01433 0)
(5.66107 0.0168791 0)
(5.66857 0.0133471 0)
(5.49257 0.0177761 0)
(5.51359 0.00812394 0)
(5.36311 0.019254 0)
(5.3631 -0.00972948 0)
(5.32989 0.0296905 0)
(5.18563 -0.0482198 0)
(10.0491 0.630534 0)
(10.6763 0.865862 0)
(10.8397 0.597328 0)
(10.733 0.375926 0)
(10.4065 0.256395 0)
(10.1529 0.193068 0)
(9.76739 0.157198 0)
(9.57088 0.123102 0)
(9.23755 0.0924418 0)
(9.11915 0.0761319 0)
(8.83647 0.0619896 0)
(8.80088 0.0469148 0)
(8.54197 0.0469909 0)
(8.55589 0.036625 0)
(8.3153 0.0447519 0)
(8.33624 0.0242245 0)
(8.14091 0.046451 0)
(8.1367 -0.00529838 0)
(8.03566 0.0333315 0)
(8.01587 -0.0996238 0)
(9.95585 0.455948 0)
(10.6164 0.710684 0)
(11.1015 0.537828 0)
(11.4566 0.357946 0)
(11.4711 0.260665 0)
(11.5644 0.2231 0)
(11.3891 0.205717 0)
(11.4118 0.176459 0)
(11.1882 0.145542 0)
(11.1901 0.126644 0)
(10.9673 0.10946 0)
(10.9817 0.0848344 0)
(10.7546 0.0877063 0)
(10.7864 0.0668598 0)
(10.5743 0.0828776 0)
(10.5689 0.0455112 0)
(10.414 0.0808133 0)
(10.3968 0.0153631 0)
(10.253 0.0440211 0)
(10.2856 -0.117134 0)
(9.95026 0.344314 0)
(10.4897 0.577362 0)
(10.9328 0.446801 0)
(11.4174 0.303528 0)
(11.5589 0.205317 0)
(11.7884 0.188955 0)
(11.7731 0.185616 0)
(11.9431 0.169393 0)
(11.8792 0.144842 0)
(11.9836 0.132334 0)
(11.9481 0.116889 0)
(12.0186 0.0991873 0)
(11.9436 0.0968982 0)
(12.0167 0.083692 0)
(11.9657 0.0973543 0)
(11.9279 0.0724225 0)
(11.9068 0.0823122 0)
(11.9025 0.0634727 0)
(11.8286 0.046007 0)
(11.8246 -0.0487033 0)
(9.97551 0.251962 0)
(10.3942 0.466682 0)
(10.8063 0.359272 0)
(11.2298 0.25235 0)
(11.4899 0.162667 0)
(11.68 0.143646 0)
(11.7343 0.153201 0)
(11.9137 0.13837 0)
(11.9332 0.127526 0)
(12.0147 0.108488 0)
(12.1292 0.09861 0)
(12.1946 0.0833783 0)
(12.2099 0.0853171 0)
(12.33 0.0666121 0)
(12.4026 0.0936375 0)
(12.3728 0.0725857 0)
(12.4497 0.0663603 0)
(12.5002 0.0792648 0)
(12.4976 0.0744476 0)
(12.5356 -0.005307 0)
(9.98641 0.176319 0)
(10.3517 0.364904 0)
(10.7059 0.2792 0)
(11.0936 0.204403 0)
(11.4329 0.109264 0)
(11.5442 0.122784 0)
(11.6557 0.104673 0)
(11.8481 0.116984 0)
(11.8374 0.0974719 0)
(11.9474 0.0921333 0)
(12.0548 0.0555439 0)
(12.1032 0.0972737 0)
(12.1643 0.0388997 0)
(12.3271 0.0587377 0)
(12.3378 0.0583668 0)
(12.3901 0.0920647 0)
(12.503 0.0117567 0)
(12.5296 0.108084 0)
(12.5579 0.0672688 0)
(12.6014 0.1471 0)
(9.99618 0.103209 0)
(10.3179 0.276012 0)
(10.6098 0.190558 0)
(11.0632 0.153819 0)
(11.3033 0.0717153 0)
(11.4791 0.100538 0)
(11.6507 0.0460498 0)
(11.7188 0.104048 0)
(11.7704 0.0636027 0)
(11.9071 0.0780814 0)
(11.9375 0.0293471 0)
(12.0521 0.0851776 0)
(12.1581 -0.00171796 0)
(12.1854 0.0623295 0)
(12.2523 0.0344398 0)
(12.4007 0.0709124 0)
(12.4248 -0.0102225 0)
(12.4152 0.119543 0)
(12.5283 0.0399081 0)
(12.5376 0.156357 0)
(10.0103 0.0561484 0)
(10.2255 0.174773 0)
(10.6155 0.117509 0)
(11.0073 0.0823363 0)
(11.2271 0.0500869 0)
(11.5207 0.040244 0)
(11.547 0.0353379 0)
(11.6271 0.0682704 0)
(11.8043 0.0384185 0)
(11.8407 0.039367 0)
(11.8847 0.0230889 0)
(12.0351 0.0386608 0)
(12.0894 0.0124288 0)
(12.142 0.0257894 0)
(12.2514 0.0172473 0)
(12.3603 0.0293781 0)
(12.3021 0.0204639 0)
(12.4318 0.0467598 0)
(12.4732 0.0356803 0)
(12.4144 -0.0485832 0)
(9.97847 0.0113164 0)
(10.1908 0.0788328 0)
(10.6739 0.0156985 0)
(10.9385 0.0420135 0)
(11.256 -0.00604409 0)
(11.4674 0.0305024 0)
(11.4921 0.0134235 0)
(11.6694 0.0141676 0)
(11.7645 0.00321445 0)
(11.789 0.0428024 0)
(11.8951 -0.0121988 0)
(11.9944 0.0235392 0)
(12.0793 -0.0138125 0)
(12.1521 0.0105962 0)
(12.2231 -0.00862396 0)
(12.2428 0.0339826 0)
(12.3472 -0.0215888 0)
(12.4234 0.0195951 0)
(12.4519 -0.00679106 0)
(12.3794 -0.0116355 0)
(9.9584 -0.0163815 0)
(10.2526 -0.0453652 0)
(10.6222 -0.0532889 0)
(10.9613 -0.0251013 0)
(11.2632 -0.0284117 0)
(11.4079 -0.00298462 0)
(11.565 -0.019665 0)
(11.6391 -0.0249167 0)
(11.7213 -0.000611178 0)
(11.8379 -0.0057484 0)
(11.9007 -0.0227558 0)
(11.9845 -0.0102179 0)
(12.0796 -0.0187592 0)
(12.1401 -0.0138484 0)
(12.1748 -0.000415953 0)
(12.3013 -0.0164109 0)
(12.3574 -0.0337328 0)
(12.3837 -0.0189895 0)
(12.4079 -0.00726958 0)
(12.3984 -0.0516948 0)
(9.97911 -0.0675885 0)
(10.2732 -0.139677 0)
(10.6066 -0.1391 0)
(11.0156 -0.0863334 0)
(11.2386 -0.0567062 0)
(11.4516 -0.0356901 0)
(11.5982 -0.0431214 0)
(11.6485 -0.0583046 0)
(11.7542 -0.0469494 0)
(11.8542 -0.0229834 0)
(11.915 -0.0342413 0)
(12.0016 -0.033866 0)
(12.1045 -0.0356347 0)
(12.1379 -0.0255158 0)
(12.225 -0.0371265 0)
(12.3271 -0.0359033 0)
(12.3582 -0.0441264 0)
(12.3987 -0.0404019 0)
(12.4587 -0.0513055 0)
(12.4308 -0.0611494 0)
(9.9973 -0.11441 0)
(10.2697 -0.247462 0)
(10.6836 -0.216749 0)
(11.0303 -0.14426 0)
(11.2896 -0.0851209 0)
(11.5273 -0.080695 0)
(11.6092 -0.0737834 0)
(11.7171 -0.0869903 0)
(11.7815 -0.0618753 0)
(11.8653 -0.0566466 0)
(11.9844 -0.0557842 0)
(12.0713 -0.0601763 0)
(12.1175 -0.0466061 0)
(12.1877 -0.0452761 0)
(12.2943 -0.0482655 0)
(12.3441 -0.0609552 0)
(12.4037 -0.0657124 0)
(12.4712 -0.0764761 0)
(12.5018 -0.0739373 0)
(12.4575 -0.0941437 0)
(10.0208 -0.174451 0)
(10.2944 -0.352775 0)
(10.7676 -0.298522 0)
(11.0861 -0.196037 0)
(11.4122 -0.129052 0)
(11.5525 -0.113612 0)
(11.6748 -0.0956077 0)
(11.7708 -0.124151 0)
(11.8676 -0.0879561 0)
(11.943 -0.0899672 0)
(12.0627 -0.0776383 0)
(12.1187 -0.0759826 0)
(12.1828 -0.0552039 0)
(12.2725 -0.0765283 0)
(12.3599 -0.0671955 0)
(12.405 -0.0815604 0)
(12.4754 -0.0818399 0)
(12.5128 -0.106302 0)
(12.5536 -0.104251 0)
(12.5167 -0.106019 0)
(10.063 -0.251498 0)
(10.3201 -0.457088 0)
(10.9001 -0.380957 0)
(11.1674 -0.243394 0)
(11.5379 -0.165031 0)
(11.5965 -0.148901 0)
(11.8083 -0.136891 0)
(11.8262 -0.15318 0)
(11.9899 -0.113196 0)
(11.9976 -0.116621 0)
(12.1546 -0.0963676 0)
(12.1454 -0.0970204 0)
(12.2776 -0.0769178 0)
(12.2829 -0.0984012 0)
(12.3871 -0.0754216 0)
(12.3748 -0.104671 0)
(12.4592 -0.0944214 0)
(12.4329 -0.134772 0)
(12.4756 -0.122331 0)
(12.375 -0.156942 0)
(10.0631 -0.347481 0)
(10.3928 -0.567739 0)
(11.0529 -0.464858 0)
(11.2855 -0.288082 0)
(11.6701 -0.214914 0)
(11.6571 -0.190577 0)
(11.8965 -0.172709 0)
(11.8113 -0.177099 0)
(11.9974 -0.143435 0)
(11.8862 -0.13521 0)
(12.044 -0.116431 0)
(11.9128 -0.109016 0)
(12.0486 -0.0903117 0)
(11.9049 -0.10531 0)
(12.0164 -0.086055 0)
(11.8607 -0.110197 0)
(11.9384 -0.0962232 0)
(11.7674 -0.141224 0)
(11.7856 -0.128051 0)
(11.5539 -0.173505 0)
(10.0164 -0.457725 0)
(10.5582 -0.706497 0)
(11.1719 -0.546771 0)
(11.3618 -0.349091 0)
(11.5692 -0.265335 0)
(11.4403 -0.225973 0)
(11.5138 -0.197076 0)
(11.2775 -0.182699 0)
(11.3185 -0.145871 0)
(11.0592 -0.127536 0)
(11.095 -0.107316 0)
(10.8355 -0.0957585 0)
(10.8917 -0.0790984 0)
(10.6219 -0.0872845 0)
(10.6928 -0.0693932 0)
(10.4156 -0.0891811 0)
(10.4747 -0.0743929 0)
(10.1825 -0.120651 0)
(10.1899 -0.0974519 0)
(9.84753 -0.16622 0)
(10.0686 -0.632437 0)
(10.6536 -0.86344 0)
(10.8685 -0.601844 0)
(10.6866 -0.371322 0)
(10.4628 -0.257839 0)
(10.0733 -0.196394 0)
(9.85541 -0.151237 0)
(9.47368 -0.126108 0)
(9.3354 -0.0941367 0)
(9.01098 -0.0759775 0)
(8.94459 -0.0613719 0)
(8.66846 -0.0531843 0)
(8.66445 -0.0427647 0)
(8.39757 -0.0482451 0)
(8.4333 -0.0404991 0)
(8.15864 -0.051129 0)
(8.19996 -0.0485711 0)
(7.89847 -0.0728279 0)
(7.89972 -0.0726678 0)
(7.5469 -0.0947703 0)
(10.0865 -0.838707 0)
(9.65482 -0.867798 0)
(8.87084 -0.507001 0)
(8.08164 -0.260668 0)
(7.49539 -0.139055 0)
(6.99974 -0.0824782 0)
(6.7073 -0.052539 0)
(6.38514 -0.042559 0)
(6.23851 -0.0298569 0)
(6.00591 -0.0237807 0)
(5.94058 -0.0197809 0)
(5.75314 -0.0183901 0)
(5.73806 -0.0142193 0)
(5.55733 -0.019749 0)
(5.56702 -0.0160931 0)
(5.37385 -0.0231461 0)
(5.38528 -0.0222601 0)
(5.15831 -0.0345814 0)
(5.14512 -0.0394042 0)
(4.8433 -0.0213383 0)
(8.09151 -0.388009 0)
(5.44882 -0.242425 0)
(3.91052 -0.0430126 0)
(3.15724 0.0156729 0)
(2.80195 0.0180233 0)
(2.59526 0.0108586 0)
(2.48718 0.00624662 0)
(2.37601 0.00175663 0)
(2.32182 0.00161586 0)
(2.24367 0.000824957 0)
(2.22039 0.000429602 0)
(2.15591 -0.000146682 0)
(2.14818 0.00059702 0)
(2.08355 -0.00140205 0)
(2.07763 -0.000248706 0)
(2.00343 -0.00233069 0)
(1.99239 -0.00115243 0)
(1.89816 -0.00426486 0)
(1.85823 -0.00414046 0)
(1.70613 0.0111389 0)
(2.30069 -0.158927 0)
(2.41704 -0.051929 0)
(2.51705 0.0179397 0)
(2.61349 0.0466429 0)
(2.72352 0.0543469 0)
(2.83894 0.056338 0)
(2.97734 0.0500321 0)
(3.11583 0.0353107 0)
(3.24437 0.0159998 0)
(3.35172 -0.00502274 0)
(3.43367 -0.0254787 0)
(3.50412 -0.0460292 0)
(3.56233 -0.0666141 0)
(3.62442 -0.0811352 0)
(3.69708 -0.0926657 0)
(3.76393 -0.10694 0)
(3.85779 -0.119021 0)
(3.93183 -0.124304 0)
(4.02426 -0.134257 0)
(4.09917 -0.14603 0)
(4.18805 -0.170713 0)
(4.25587 -0.200181 0)
(4.31584 -0.23927 0)
(4.38723 -0.269027 0)
(4.44042 -0.29111 0)
(4.46626 -0.314904 0)
(4.52176 -0.322045 0)
(4.51932 -0.336063 0)
(4.50648 -0.323328 0)
(4.53617 -0.305527 0)
(4.52559 -0.28784 0)
(4.49776 -0.230549 0)
(4.53391 -0.175607 0)
(4.58594 -0.11076 0)
(4.62752 -0.0407588 0)
(4.7581 0.0242586 0)
(4.90218 0.0510015 0)
(5.01701 0.0425647 0)
(5.15726 0.0304374 0)
(5.20358 -0.000877252 0)
(5.22371 -0.0160181 0)
(5.21907 0.00331547 0)
(5.21544 0.00820017 0)
(5.24307 0.0599968 0)
(5.31735 0.135168 0)
(5.40655 0.161465 0)
(5.60866 0.18709 0)
(5.79447 0.26062 0)
(6.09097 0.268479 0)
(6.36624 0.276129 0)
(6.72816 0.289241 0)
(7.17219 0.196643 0)
(7.61493 0.116605 0)
(8.03976 0.00127871 0)
(8.48947 -0.128612 0)
(8.94688 -0.344481 0)
(9.49057 -0.633206 0)
(9.94298 -0.878921 0)
(10.363 -1.13975 0)
(10.949 -1.4489 0)
(11.3262 -1.81273 0)
(11.7995 -2.25257 0)
(12.1263 -2.62952 0)
(12.4659 -2.99213 0)
(12.7513 -3.47548 0)
(12.8509 -3.83588 0)
(12.9825 -4.18322 0)
(12.8659 -4.54323 0)
(12.6492 -4.79561 0)
(12.3115 -4.99096 0)
(11.8072 -5.0826 0)
(11.2667 -5.16678 0)
(10.8292 -5.17408 0)
(10.324 -5.19283 0)
(10.0211 -5.23975 0)
(9.83275 -5.35992 0)
(9.73268 -5.55736 0)
(9.6924 -5.78872 0)
(9.71289 -6.07465 0)
(9.80524 -6.34273 0)
(10.0298 -6.58755 0)
(10.2182 -6.6423 0)
(10.3148 -6.48556 0)
(10.5386 -6.20639 0)
(10.7274 -5.92763 0)
(11.1224 -5.5541 0)
(11.4336 -4.8967 0)
(11.7626 -4.24826 0)
(12.0746 -3.51683 0)
(12.2933 -2.49661 0)
(12.3209 -1.57224 0)
(12.5351 -0.70361 0)
(12.5236 0.170274 0)
(12.6865 0.991872 0)
(12.7288 1.7659 0)
(12.7376 2.55217 0)
(12.6664 3.3303 0)
(12.7477 3.85806 0)
(12.5328 4.45263 0)
(12.1869 4.92859 0)
(11.7183 4.81412 0)
(11.099 4.52199 0)
(10.6787 4.51688 0)
(10.2588 4.27576 0)
(10.2474 3.73058 0)
(10.0723 3.68257 0)
(9.92887 3.55308 0)
(9.78635 3.2099 0)
(9.36213 2.77359 0)
(9.11877 2.74075 0)
(9.00266 2.94894 0)
(8.77006 2.67543 0)
(8.46093 2.42921 0)
(8.42491 2.18834 0)
(8.03758 2.17617 0)
(8.02969 2.69703 0)
(8.41297 3.57793 0)
(8.64322 4.54804 0)
(9.08501 5.07383 0)
(9.5942 5.50146 0)
(9.87852 5.55001 0)
(9.93972 4.91911 0)
(10.1063 4.21173 0)
(10.2133 3.60275 0)
(10.242 2.57817 0)
(10.187 1.53893 0)
(10.1182 0.802076 0)
(10.0181 -0.0901238 0)
(9.85255 -1.21029 0)
(9.67515 -1.96083 0)
(9.41159 -2.50667 0)
(8.90919 -3.14228 0)
(8.53305 -3.54223 0)
(8.05107 -3.70133 0)
(7.76858 -3.96733 0)
(7.28094 -4.22826 0)
(7.08784 -4.04974 0)
(6.69098 -3.4436 0)
(6.65898 -2.75731 0)
(6.3284 -2.80097 0)
(6.13662 -3.93466 0)
(5.71526 -5.85254 0)
(5.62997 -8.39815 0)
(5.35205 -10.1367 0)
(5.68211 -10.7463 0)
(5.65436 -10.5117 0)
(5.99587 -9.91027 0)
(6.32494 -8.75118 0)
(6.34003 -7.69533 0)
(6.69509 -6.21675 0)
(6.7334 -4.96515 0)
(7.19415 -3.35525 0)
(7.05018 -2.27467 0)
(7.44746 -0.580368 0)
(7.23065 0.78662 0)
(7.53496 1.88134 0)
(7.75573 2.94393 0)
(7.75601 3.7674 0)
(8.25311 5.04175 0)
(8.22539 6.25301 0)
(7.98141 6.61764 0)
(8.31336 6.54097 0)
(8.24698 6.25761 0)
(8.17986 6.42558 0)
(8.65806 6.88545 0)
(8.94051 7.52837 0)
(8.96304 7.53973 0)
(8.6381 6.87192 0)
(8.07779 6.2967 0)
(8.21679 5.80524 0)
(7.9862 5.62077 0)
(8.27387 5.52007 0)
(8.10305 5.25812 0)
(7.55367 4.81683 0)
(7.20907 4.31656 0)
(6.35622 3.93816 0)
(6.56266 3.62133 0)
(6.16972 3.55374 0)
(6.43864 3.3349 0)
(6.1817 3.18223 0)
(5.87927 2.99545 0)
(6.02474 3.12191 0)
(5.48226 2.99013 0)
(5.84431 3.32175 0)
(5.56051 3.25544 0)
(4.97516 3.45038 0)
(6.27885 3.50677 0)
(3.66589 3.79854 0)
(7.07623 3.22783 0)
(3.3177 3.55094 0)
(7.66299 1.97277 0)
(3.99873 2.48199 0)
(7.57958 0.0196349 0)
(4.6457 1.14005 0)
(6.94645 -2.15038 0)
(4.3672 -0.990676 0)
(6.08012 -2.75131 0)
(3.86823 -0.371781 0)
(5.46853 -1.50889 0)
(4.99669 2.1428 0)
(5.36728 -0.0977425 0)
(5.40487 -0.0644064 0)
(5.40854 -0.0297655 0)
(5.41177 -0.0184771 0)
(5.4338 -0.0171418 0)
(5.49187 -0.0161329 0)
(5.56695 -0.0303393 0)
(5.65831 -0.0463348 0)
(5.73843 -0.0601791 0)
(5.81384 -0.0707585 0)
(5.86858 -0.0772667 0)
(5.9229 -0.101138 0)
(5.96349 -0.122365 0)
(6.01206 -0.13622 0)
(6.07422 -0.17056 0)
(6.13707 -0.178862 0)
(6.21787 -0.191184 0)
(6.29066 -0.205692 0)
(6.37941 -0.199259 0)
(6.44987 -0.215532 0)
(6.53567 -0.241808 0)
(6.59237 -0.257802 0)
(6.65897 -0.285803 0)
(6.71058 -0.319654 0)
(6.76351 -0.326059 0)
(6.79422 -0.350085 0)
(6.82579 -0.353535 0)
(6.85571 -0.341331 0)
(6.81843 -0.329769 0)
(6.86534 -0.301196 0)
(6.82264 -0.266037 0)
(6.82056 -0.216615 0)
(6.80827 -0.169178 0)
(6.8012 -0.1133 0)
(6.82952 -0.0557811 0)
(6.82601 -0.0327265 0)
(6.90736 -0.0125893 0)
(6.9672 -0.00675104 0)
(7.02708 -0.0412416 0)
(7.10106 -0.053271 0)
(7.12736 -0.0641301 0)
(7.17496 -0.0602127 0)
(7.22232 -0.0398287 0)
(7.28054 -0.0156695 0)
(7.40271 0.0180226 0)
(7.52988 0.0370555 0)
(7.7292 0.0306946 0)
(7.91077 0.0499847 0)
(8.23768 0.0399914 0)
(8.48474 0.0157874 0)
(8.81094 -0.0108812 0)
(9.23449 -0.141495 0)
(9.57321 -0.24083 0)
(9.97026 -0.353918 0)
(10.3822 -0.481988 0)
(10.8214 -0.715609 0)
(11.2642 -1.00732 0)
(11.6176 -1.18644 0)
(11.9756 -1.45469 0)
(12.4247 -1.78474 0)
(12.6844 -2.13225 0)
(13.0334 -2.50457 0)
(13.1685 -2.8332 0)
(13.3175 -3.2514 0)
(13.4197 -3.57785 0)
(13.2768 -3.86974 0)
(13.2094 -4.21729 0)
(12.8299 -4.37971 0)
(12.4771 -4.52988 0)
(12.0354 -4.70427 0)
(11.4538 -4.62827 0)
(11.0722 -4.73585 0)
(10.6643 -4.82509 0)
(10.2344 -4.76676 0)
(10.0278 -5.01285 0)
(9.85019 -5.26994 0)
(9.596 -5.43162 0)
(9.4138 -5.77189 0)
(9.43959 -6.19316 0)
(9.53976 -6.51616 0)
(9.60102 -6.68646 0)
(9.5655 -6.63969 0)
(9.61568 -6.49465 0)
(9.89449 -6.36068 0)
(10.0688 -6.14497 0)
(10.4664 -5.7243 0)
(10.7681 -5.10683 0)
(11.1543 -4.49699 0)
(11.4 -3.7235 0)
(11.6538 -2.66138 0)
(11.636 -1.73653 0)
(11.7014 -0.802215 0)
(11.7931 0.076059 0)
(11.8611 0.980001 0)
(11.746 1.84803 0)
(11.8245 2.58938 0)
(11.6781 3.24373 0)
(11.9097 3.85999 0)
(11.8406 4.55719 0)
(11.8164 5.12248 0)
(11.3836 5.26611 0)
(10.883 5.02497 0)
(10.308 4.85889 0)
(9.82559 4.54588 0)
(9.64543 3.99495 0)
(9.36153 3.76442 0)
(9.2587 3.58305 0)
(9.06841 3.4565 0)
(8.79795 3.0127 0)
(8.73795 2.82543 0)
(8.63096 2.98736 0)
(8.33834 2.82893 0)
(8.17408 2.61021 0)
(8.36364 2.23447 0)
(8.11471 2.1153 0)
(8.13233 2.53202 0)
(8.343 3.37262 0)
(8.40033 4.25538 0)
(8.72478 4.70725 0)
(9.3695 5.11298 0)
(9.73189 5.2642 0)
(9.84314 4.81264 0)
(10.1105 4.12869 0)
(10.3231 3.48681 0)
(10.416 2.59279 0)
(10.4033 1.65729 0)
(10.4859 0.925012 0)
(10.4158 0.0172845 0)
(10.255 -1.11571 0)
(9.98778 -1.72398 0)
(9.55046 -2.12467 0)
(9.10595 -2.81935 0)
(8.70369 -3.2364 0)
(8.35362 -3.35323 0)
(7.95044 -3.56967 0)
(7.55899 -3.94481 0)
(7.23765 -3.91065 0)
(7.0647 -3.26232 0)
(6.74456 -2.57881 0)
(6.65745 -2.5748 0)
(6.12501 -3.62051 0)
(5.96335 -5.65401 0)
(5.46171 -8.15898 0)
(5.33414 -10.1307 0)
(5.28173 -10.8221 0)
(5.28776 -10.7002 0)
(5.57377 -9.91242 0)
(5.57364 -8.96601 0)
(5.88494 -7.77602 0)
(5.9744 -6.49683 0)
(6.00645 -5.04728 0)
(6.17035 -3.6387 0)
(6.43585 -2.08679 0)
(6.39966 -0.865572 0)
(6.53461 0.856352 0)
(6.43368 1.74192 0)
(7.09049 2.62189 0)
(6.86764 3.68692 0)
(7.13087 5.06598 0)
(7.63107 6.26999 0)
(7.14408 6.30402 0)
(7.2056 5.83162 0)
(7.7473 5.55753 0)
(7.76802 5.67824 0)
(8.01307 6.44545 0)
(8.58126 7.15239 0)
(8.86622 8.00647 0)
(8.96055 7.88811 0)
(8.41587 7.00113 0)
(8.06752 6.37026 0)
(8.01213 5.89327 0)
(7.98903 5.63338 0)
(8.33295 5.35853 0)
(8.1309 5.06972 0)
(7.84718 4.72992 0)
(7.6988 4.09748 0)
(6.78103 3.68996 0)
(7.0858 3.17384 0)
(6.31966 3.08709 0)
(6.96223 3.08307 0)
(6.5237 3.05473 0)
(6.49925 3.18984 0)
(6.9872 3.04013 0)
(5.5242 3.38835 0)
(7.73599 3.17084 0)
(4.70976 3.93068 0)
(8.39064 3.23153 0)
(4.48079 4.2745 0)
(8.48833 2.6296 0)
(5.12055 3.78146 0)
(8.18258 1.29642 0)
(5.83553 2.38927 0)
(8.09133 0.179611 0)
(6.03338 0.764333 0)
(7.89788 -1.14854 0)
(5.79954 -0.266251 0)
(6.34937 -2.30583 0)
(5.00771 0.232491 0)
(5.57018 -1.23602 0)
(5.14596 1.18805 0)
(8.04911 -0.0596233 0)
(8.0721 0.00501112 0)
(8.04736 0.0186589 0)
(8.02655 -0.00804061 0)
(8.01413 -0.0490895 0)
(8.04858 -0.080033 0)
(8.12 -0.0867153 0)
(8.19368 -0.0966045 0)
(8.26835 -0.0900714 0)
(8.32578 -0.0920873 0)
(8.35205 -0.109216 0)
(8.39375 -0.115607 0)
(8.40583 -0.155933 0)
(8.43327 -0.178118 0)
(8.48577 -0.197045 0)
(8.50392 -0.228372 0)
(8.58867 -0.243951 0)
(8.6296 -0.249074 0)
(8.7068 -0.264271 0)
(8.76335 -0.273042 0)
(8.83577 -0.281862 0)
(8.87371 -0.311036 0)
(8.92748 -0.337679 0)
(8.9627 -0.349209 0)
(8.98058 -0.369867 0)
(9.02911 -0.385556 0)
(9.00817 -0.349233 0)
(9.06399 -0.360576 0)
(9.00207 -0.337752 0)
(9.04889 -0.280838 0)
(9.0076 -0.27662 0)
(8.99115 -0.238983 0)
(9.02488 -0.148681 0)
(8.97988 -0.134126 0)
(9.0283 -0.103204 0)
(9.04854 -0.00783249 0)
(9.06991 -0.0365734 0)
(9.13982 -0.0427303 0)
(9.15372 -0.0252822 0)
(9.23281 -0.0848942 0)
(9.23749 -0.0935729 0)
(9.2859 -0.0876001 0)
(9.36135 -0.127902 0)
(9.37577 -0.106109 0)
(9.52044 -0.0895336 0)
(9.64322 -0.135838 0)
(9.80013 -0.129396 0)
(9.96758 -0.135268 0)
(10.2605 -0.224629 0)
(10.472 -0.221278 0)
(10.7448 -0.273366 0)
(11.131 -0.452508 0)
(11.3712 -0.540974 0)
(11.7118 -0.612703 0)
(12.0625 -0.805476 0)
(12.4061 -1.05854 0)
(12.7017 -1.22708 0)
(12.9538 -1.43412 0)
(13.2686 -1.77515 0)
(13.4301 -1.95662 0)
(13.627 -2.28712 0)
(13.7451 -2.6512 0)
(13.7077 -2.87689 0)
(13.7123 -3.22501 0)
(13.5232 -3.4671 0)
(13.3017 -3.73187 0)
(13.0461 -3.92015 0)
(12.511 -4.0109 0)
(12.1651 -4.17413 0)
(11.6618 -4.19086 0)
(11.1403 -4.26473 0)
(10.9008 -4.42375 0)
(10.4482 -4.44977 0)
(10.0901 -4.58366 0)
(9.93925 -4.88381 0)
(9.55914 -5.05561 0)
(9.20111 -5.2866 0)
(9.14209 -5.78947 0)
(9.15413 -6.21581 0)
(8.94683 -6.38903 0)
(8.71198 -6.45793 0)
(8.64188 -6.52447 0)
(8.75539 -6.61393 0)
(9.0046 -6.59503 0)
(9.23302 -6.43586 0)
(9.65625 -6.03364 0)
(9.95767 -5.47548 0)
(10.1901 -4.74387 0)
(10.4257 -3.77817 0)
(10.5263 -2.63323 0)
(10.3904 -1.69668 0)
(10.5913 -0.88474 0)
(10.7767 -0.0108079 0)
(10.8414 1.03918 0)
(10.9122 1.83164 0)
(10.9179 2.5738 0)
(10.6482 3.26572 0)
(10.875 3.83286 0)
(10.7397 4.49612 0)
(11.059 5.15313 0)
(10.7737 5.47769 0)
(10.3954 5.44625 0)
(9.81377 5.38061 0)
(9.39103 4.88134 0)
(9.01966 4.2493 0)
(8.67208 3.93033 0)
(8.56073 3.72491 0)
(8.49948 3.5329 0)
(8.43347 3.00733 0)
(8.19417 2.96404 0)
(8.06885 3.19237 0)
(7.79479 2.96975 0)
(7.88769 2.60405 0)
(8.01696 2.19996 0)
(7.79518 2.19418 0)
(7.83544 2.65324 0)
(8.00562 3.36881 0)
(8.02696 3.95884 0)
(8.37615 4.3082 0)
(9.00784 4.75026 0)
(9.32148 5.00334 0)
(9.6243 4.57204 0)
(10.0177 3.96213 0)
(10.2162 3.37092 0)
(10.3328 2.45342 0)
(10.4682 1.50369 0)
(10.572 0.881923 0)
(10.474 0.106472 0)
(10.3725 -0.931019 0)
(10.0398 -1.41151 0)
(9.63201 -1.79311 0)
(9.17576 -2.4168 0)
(8.8032 -2.90251 0)
(8.48393 -3.0625 0)
(8.05733 -3.26963 0)
(7.61077 -3.67153 0)
(7.38677 -3.63462 0)
(7.11308 -3.05381 0)
(6.91626 -2.32911 0)
(6.65919 -2.35353 0)
(6.30318 -3.3081 0)
(5.93696 -5.24386 0)
(5.43604 -7.91975 0)
(5.05497 -9.92937 0)
(4.92661 -10.7885 0)
(5.03729 -10.7488 0)
(5.04931 -9.98649 0)
(5.16318 -8.97524 0)
(5.20274 -7.77809 0)
(5.25912 -6.51376 0)
(5.32431 -5.21231 0)
(5.4972 -3.72405 0)
(5.51581 -2.41411 0)
(5.71627 -0.573702 0)
(5.54223 0.421434 0)
(5.68859 1.7554 0)
(5.99579 2.61057 0)
(6.29788 3.35234 0)
(5.92003 4.59535 0)
(6.6637 6.45832 0)
(6.87117 7.10327 0)
(6.54511 6.55761 0)
(7.02088 6.14767 0)
(7.29317 5.88894 0)
(7.44914 6.18958 0)
(7.92779 6.61221 0)
(8.0623 7.03929 0)
(8.71516 7.51074 0)
(8.79989 7.04957 0)
(8.60721 6.29578 0)
(8.48962 5.75776 0)
(8.39878 5.24623 0)
(8.28733 5.30092 0)
(8.67674 5.06121 0)
(8.15874 5.04213 0)
(8.58316 4.73759 0)
(7.84587 4.25216 0)
(7.49468 3.88072 0)
(7.44533 3.18411 0)
(6.3235 3.32712 0)
(7.99527 2.81421 0)
(5.88487 3.4182 0)
(8.96996 2.82319 0)
(5.54421 3.84139 0)
(9.59776 2.77025 0)
(5.52072 4.0296 0)
(9.64005 2.80789 0)
(6.18701 4.23932 0)
(9.48108 2.56375 0)
(6.92262 3.61903 0)
(9.39571 1.54973 0)
(7.17494 2.2963 0)
(9.01741 0.355738 0)
(7.36696 1.09399 0)
(8.57525 -1.26402 0)
(6.546 -0.158722 0)
(7.46858 -1.09876 0)
(4.94851 0.0413721 0)
(6.41655 -0.484628 0)
(4.69868 0.676415 0)
(10.3481 -0.0431949 0)
(10.3463 0.0366107 0)
(10.2787 0.0557546 0)
(10.2326 0.0009819 0)
(10.2272 -0.0547591 0)
(10.2417 -0.104177 0)
(10.2805 -0.145074 0)
(10.3374 -0.147991 0)
(10.3725 -0.14805 0)
(10.4359 -0.131418 0)
(10.4636 -0.117759 0)
(10.4864 -0.132785 0)
(10.5083 -0.157451 0)
(10.4937 -0.189573 0)
(10.5274 -0.237031 0)
(10.5203 -0.252731 0)
(10.579 -0.292715 0)
(10.6005 -0.30604 0)
(10.6768 -0.30402 0)
(10.7078 -0.319964 0)
(10.7733 -0.326428 0)
(10.8011 -0.323433 0)
(10.8262 -0.35483 0)
(10.8426 -0.373966 0)
(10.8275 -0.356328 0)
(10.8607 -0.404777 0)
(10.7954 -0.369407 0)
(10.8605 -0.355787 0)
(10.7961 -0.355122 0)
(10.807 -0.29276 0)
(10.8352 -0.258777 0)
(10.7799 -0.228512 0)
(10.8059 -0.169772 0)
(10.8073 -0.118967 0)
(10.7939 -0.115969 0)
(10.8347 -0.0653287 0)
(10.8569 -0.0484291 0)
(10.929 -0.0658411 0)
(10.9729 -0.0676424 0)
(11.032 -0.0882704 0)
(11.1192 -0.11155 0)
(11.134 -0.137569 0)
(11.2388 -0.150829 0)
(11.2757 -0.177879 0)
(11.3756 -0.192887 0)
(11.5009 -0.218702 0)
(11.594 -0.26795 0)
(11.7574 -0.311461 0)
(11.9626 -0.352336 0)
(12.0878 -0.40175 0)
(12.3378 -0.548319 0)
(12.5866 -0.611438 0)
(12.7259 -0.708807 0)
(13.0442 -0.915063 0)
(13.2087 -1.01205 0)
(13.4551 -1.22597 0)
(13.6476 -1.42912 0)
(13.744 -1.62085 0)
(13.939 -1.84807 0)
(13.8925 -2.05622 0)
(13.9941 -2.3925 0)
(13.8554 -2.5508 0)
(13.7014 -2.85584 0)
(13.5979 -3.15639 0)
(13.1654 -3.2439 0)
(13.0093 -3.5676 0)
(12.5253 -3.65151 0)
(12.0307 -3.68104 0)
(11.8247 -3.92358 0)
(11.2335 -3.86791 0)
(10.9821 -3.99591 0)
(10.8177 -4.21915 0)
(10.2557 -4.15601 0)
(10.0336 -4.39724 0)
(9.87962 -4.68367 0)
(9.24608 -4.72245 0)
(8.95041 -5.06689 0)
(8.93077 -5.63062 0)
(8.54155 -5.9248 0)
(7.96317 -5.98126 0)
(7.65778 -6.22297 0)
(7.69938 -6.62898 0)
(7.98024 -6.91233 0)
(8.16516 -6.90255 0)
(8.38162 -6.7577 0)
(8.74809 -6.43674 0)
(8.98361 -5.81565 0)
(9.16732 -4.92443 0)
(9.26743 -3.76606 0)
(9.22165 -2.64609 0)
(9.02863 -1.76951 0)
(9.30815 -0.984425 0)
(9.38499 -0.104026 0)
(9.71513 0.888097 0)
(10.011 1.79299 0)
(9.68971 2.7199 0)
(9.7707 3.2471 0)
(9.73415 3.85348 0)
(9.54837 4.41893 0)
(10.0654 5.03282 0)
(9.80873 5.65401 0)
(9.73906 5.736 0)
(9.18113 5.6701 0)
(8.81373 5.18513 0)
(8.52126 4.62197 0)
(8.07991 4.13419 0)
(7.91625 3.78261 0)
(8.034 3.53738 0)
(7.82608 3.17905 0)
(7.65671 3.19904 0)
(7.54478 3.24609 0)
(7.24786 2.96042 0)
(7.31752 2.63428 0)
(7.25488 2.24867 0)
(7.20555 2.22436 0)
(7.43365 2.56959 0)
(7.62088 3.15399 0)
(7.58143 3.68106 0)
(7.98763 3.99778 0)
(8.52991 4.35957 0)
(8.86518 4.57029 0)
(9.29684 4.19854 0)
(9.61821 3.69873 0)
(9.88376 3.11821 0)
(10.2148 2.29601 0)
(10.4353 1.44572 0)
(10.3913 0.954768 0)
(10.293 0.129661 0)
(10.2606 -0.827299 0)
(9.91976 -1.11474 0)
(9.54664 -1.41856 0)
(9.04509 -2.16106 0)
(8.86854 -2.69979 0)
(8.58741 -2.73075 0)
(8.14743 -2.90582 0)
(7.73139 -3.29515 0)
(7.40813 -3.43294 0)
(7.22855 -2.85968 0)
(7.02822 -2.15259 0)
(6.86551 -2.05247 0)
(6.39012 -2.95627 0)
(5.9932 -4.93463 0)
(5.42349 -7.52281 0)
(4.7997 -9.67063 0)
(4.69456 -10.7266 0)
(4.51335 -10.7589 0)
(4.73004 -10.1078 0)
(4.60579 -8.9802 0)
(4.47903 -7.81649 0)
(4.51212 -6.51497 0)
(4.60469 -5.22752 0)
(4.51785 -3.90741 0)
(4.89359 -2.16108 0)
(4.40553 -1.01125 0)
(5.01902 0.899435 0)
(4.72216 1.06203 0)
(4.92499 2.58226 0)
(5.24545 3.89288 0)
(5.14258 4.36598 0)
(4.86501 5.06426 0)
(5.88897 5.74669 0)
(5.93381 5.50491 0)
(6.25453 5.33085 0)
(6.88337 5.6435 0)
(6.91007 6.10192 0)
(7.4596 6.83907 0)
(7.67845 7.04146 0)
(7.87543 7.23784 0)
(8.42157 7.27221 0)
(8.23815 6.58869 0)
(8.15122 6.14174 0)
(8.45998 5.46007 0)
(8.09103 5.1893 0)
(8.67777 5.0909 0)
(8.42547 4.68143 0)
(8.23556 4.684 0)
(8.9233 4.05827 0)
(7.25929 4.25294 0)
(9.30837 3.26707 0)
(6.18747 3.55165 0)
(9.64594 2.51069 0)
(5.69728 3.44547 0)
(10.212 2.34433 0)
(5.94121 3.84581 0)
(10.6072 2.52993 0)
(6.62497 4.10638 0)
(10.5313 2.67135 0)
(7.30906 4.13337 0)
(10.5726 2.41322 0)
(7.89098 3.46823 0)
(10.6058 1.72205 0)
(7.81839 2.27118 0)
(10.0256 0.531132 0)
(7.65003 0.669224 0)
(9.68155 -0.31429 0)
(6.85488 -0.00678961 0)
(8.38698 -0.605972 0)
(6.27653 0.250849 0)
(7.36902 -0.390382 0)
(6.24124 0.233277 0)
(11.8819 -0.0414312 0)
(11.8612 -0.0213791 0)
(11.7956 -0.0257208 0)
(11.7719 -0.0644591 0)
(11.8101 -0.100627 0)
(11.8619 -0.121393 0)
(11.8992 -0.136896 0)
(11.9453 -0.149757 0)
(11.935 -0.154133 0)
(11.9771 -0.159514 0)
(11.9595 -0.152936 0)
(11.9679 -0.160243 0)
(11.9817 -0.191419 0)
(11.9508 -0.200831 0)
(11.9808 -0.253749 0)
(11.954 -0.272317 0)
(11.9839 -0.304139 0)
(11.9812 -0.334446 0)
(12.0338 -0.333288 0)
(12.0123 -0.351277 0)
(12.0661 -0.364853 0)
(12.0476 -0.353531 0)
(12.0529 -0.383129 0)
(12.0664 -0.397537 0)
(12.041 -0.372257 0)
(12.0757 -0.403104 0)
(12.0439 -0.359018 0)
(12.0751 -0.339742 0)
(12.0433 -0.337388 0)
(12.0357 -0.285342 0)
(12.0325 -0.266884 0)
(12.0105 -0.227904 0)
(12.0065 -0.173013 0)
(12.032 -0.127165 0)
(11.993 -0.119062 0)
(12.0602 -0.0850846 0)
(12.0557 -0.0813701 0)
(12.0526 -0.126558 0)
(12.1854 -0.116092 0)
(12.1488 -0.155414 0)
(12.2518 -0.192864 0)
(12.3724 -0.197166 0)
(12.365 -0.235443 0)
(12.545 -0.258697 0)
(12.606 -0.258717 0)
(12.7048 -0.320521 0)
(12.8615 -0.356522 0)
(12.9302 -0.376524 0)
(13.0415 -0.477894 0)
(13.181 -0.543319 0)
(13.295 -0.631535 0)
(13.36 -0.739624 0)
(13.5415 -0.909137 0)
(13.6808 -1.00297 0)
(13.6846 -1.14931 0)
(13.9059 -1.39427 0)
(13.9147 -1.43358 0)
(13.9197 -1.72033 0)
(13.9309 -1.90388 0)
(13.8528 -2.01994 0)
(13.7881 -2.33223 0)
(13.5247 -2.46679 0)
(13.4632 -2.76467 0)
(13.1244 -2.90385 0)
(12.781 -3.06114 0)
(12.6483 -3.30951 0)
(12.0851 -3.21559 0)
(11.8952 -3.4572 0)
(11.6868 -3.53101 0)
(11.1959 -3.47632 0)
(11.2359 -3.81561 0)
(10.8105 -3.75537 0)
(10.3066 -3.73857 0)
(10.2254 -4.11679 0)
(9.60663 -4.10977 0)
(8.92648 -4.2213 0)
(8.80612 -4.91044 0)
(8.3397 -5.27683 0)
(7.37375 -5.28871 0)
(6.83204 -5.66304 0)
(6.81413 -6.32234 0)
(6.91907 -6.82732 0)
(6.97739 -6.94892 0)
(7.11037 -6.94649 0)
(7.30803 -6.81144 0)
(7.60711 -6.44991 0)
(7.74514 -5.74008 0)
(8.02945 -4.82846 0)
(8.16195 -3.76817 0)
(8.01834 -2.68867 0)
(7.95986 -1.85948 0)
(8.14708 -1.0771 0)
(8.20282 -0.349876 0)
(8.65112 0.590094 0)
(8.76907 1.77144 0)
(8.58597 2.66316 0)
(8.67426 3.34036 0)
(8.37373 3.99111 0)
(8.58923 4.24701 0)
(8.74299 5.03224 0)
(8.76551 5.66129 0)
(8.79796 5.91531 0)
(8.22688 6.03272 0)
(8.20016 5.41969 0)
(7.86417 4.93805 0)
(7.33874 4.44636 0)
(7.4986 3.87001 0)
(7.4238 3.58285 0)
(7.12922 3.31939 0)
(7.1182 3.34653 0)
(6.81869 3.32899 0)
(6.53752 3.07564 0)
(6.61694 2.65834 0)
(6.73005 2.15477 0)
(6.81232 2.06414 0)
(7.01298 2.45261 0)
(6.95623 3.13916 0)
(7.02391 3.53952 0)
(7.54888 3.63469 0)
(8.02482 3.99095 0)
(8.37077 4.2012 0)
(8.84652 3.89502 0)
(9.18602 3.45417 0)
(9.51676 2.84502 0)
(9.82382 1.99918 0)
(10.1105 1.35593 0)
(10.1059 1.01556 0)
(10.0819 0.19232 0)
(9.94577 -0.66092 0)
(9.72811 -0.850808 0)
(9.38915 -1.08538 0)
(8.95761 -1.89816 0)
(8.84554 -2.52663 0)
(8.54618 -2.56078 0)
(8.20978 -2.59389 0)
(7.77281 -3.01262 0)
(7.49522 -3.27771 0)
(7.35786 -2.7227 0)
(7.20162 -1.953 0)
(6.91301 -1.76272 0)
(6.43378 -2.58233 0)
(6.04391 -4.52046 0)
(5.30705 -7.04894 0)
(4.6769 -9.30394 0)
(4.44327 -10.5142 0)
(4.32312 -10.7471 0)
(4.21221 -9.93137 0)
(3.93564 -8.88467 0)
(3.89356 -7.66148 0)
(3.58055 -6.53319 0)
(3.69058 -5.13173 0)
(3.72148 -3.67845 0)
(3.52308 -2.40426 0)
(3.87336 -0.551498 0)
(3.41024 0.109562 0)
(4.33002 1.9729 0)
(3.70845 1.56035 0)
(4.1021 3.59674 0)
(4.45185 5.38209 0)
(4.33552 6.1523 0)
(4.59642 6.50645 0)
(5.46058 5.92755 0)
(5.02829 4.9753 0)
(6.17109 5.18342 0)
(6.42844 5.4662 0)
(6.76449 6.1666 0)
(7.54441 6.76757 0)
(7.52591 6.5932 0)
(7.8797 6.71573 0)
(8.60618 6.22454 0)
(8.01833 5.78492 0)
(8.91538 5.49546 0)
(8.42391 5.10122 0)
(8.50304 5.27462 0)