/*--------------------------------*- C++ -*----------------------------------*\
| =========                 |                                                 |
| \\      /  F ield         | OpenFOAM: The Open Source CFD Toolbox           |
|  \\    /   O peration     | Version:  2.4.0                                 |
|   \\  /    A nd           | Web:      www.OpenFOAM.org                      |
|    \\/     M anipulation  |                                                 |
\*---------------------------------------------------------------------------*/
FoamFile
{
    version     2.0;
    format      ascii;
    class       volSymmTensorField;
    location    "1.63";
    object      UPrime2Mean;
}
// * * * * * * * * * * * * * * * * * * * * * * * * * * * * * * * * * * * * * //

dimensions      [0 2 -2 0 0 0 0];

internalField   nonuniform List<symmTensor> 
8800
(
(0.00106292 5.61809e-05 0 0.000118582 0 0)
(0.0198048 -0.000768856 0 4.48567e-05 0 0)
(0.0388818 -7.15817e-05 0 1.23057e-05 0 0)
(0.0491664 9.97241e-05 0 6.85264e-06 0 0)
(0.0557005 6.67496e-05 0 5.78125e-06 0 0)
(0.0626418 2.45499e-05 0 7.40238e-06 0 0)
(0.0659827 -9.78271e-06 0 8.64137e-06 0 0)
(0.069521 -5.88602e-05 0 1.12183e-05 0 0)
(0.0722908 -7.65208e-05 0 1.18967e-05 0 0)
(0.0737931 -0.000110327 0 1.47364e-05 0 0)
(0.0768145 -0.000121701 0 1.47953e-05 0 0)
(0.0773 -0.000159599 0 1.83761e-05 0 0)
(0.0806049 -0.000179152 0 1.7797e-05 0 0)
(0.0811212 -0.000211303 0 2.20492e-05 0 0)
(0.0853954 -0.000292677 0 2.11587e-05 0 0)
(0.0863163 -0.00022462 0 2.70333e-05 0 0)
(0.0961255 -0.000825875 0 2.95899e-05 0 0)
(0.0945761 0.000935785 0 7.76744e-05 0 0)
(0.154202 -0.0103955 0 0.0010837 0 0)
(0.162587 0.0184535 0 0.00365993 0 0)
(0.00638603 0.00163607 0 0.0007225 0 0)
(0.00179414 -0.000751978 0 0.000960428 0 0)
(0.0124813 -0.00125194 0 0.000418064 0 0)
(0.0198701 -0.00150832 0 0.000181062 0 0)
(0.0295821 -0.00136695 0 0.000114665 0 0)
(0.0440403 -0.00130071 0 9.80976e-05 0 0)
(0.0559731 -0.00162446 0 0.000114102 0 0)
(0.0662234 -0.00114545 0 8.82439e-05 0 0)
(0.083802 -0.00171593 0 0.000115863 0 0)
(0.0841041 -0.00129497 0 9.86062e-05 0 0)
(0.109216 -0.00188904 0 0.000130262 0 0)
(0.100254 -0.00166211 0 0.000124618 0 0)
(0.132088 -0.00240657 0 0.000169546 0 0)
(0.116137 -0.00214808 0 0.00016662 0 0)
(0.155817 -0.00328754 0 0.000243492 0 0)
(0.132107 -0.00333497 0 0.00027763 0 0)
(0.187884 -0.0036683 0 0.000379885 0 0)
(0.157445 -0.00798946 0 0.000984403 0 0)
(0.264452 -0.00431633 0 0.000769642 0 0)
(0.258423 -0.0344335 0 0.0128858 0 0)
(0.0158527 0.00065288 0 0.000490788 0 0)
(0.0155039 0.00010267 0 0.00116081 0 0)
(0.0402449 -8.14183e-05 0 0.000764993 0 0)
(0.0435147 -0.00122656 0 0.000446218 0 0)
(0.061502 -0.00120485 0 0.000365851 0 0)
(0.0714989 -0.00184977 0 0.000349576 0 0)
(0.0932576 -0.00363287 0 0.000417531 0 0)
(0.0987244 -0.00229978 0 0.000295601 0 0)
(0.138417 -0.00515237 0 0.000397462 0 0)
(0.125952 -0.00335135 0 0.00027504 0 0)
(0.18896 -0.0063261 0 0.000409346 0 0)
(0.153147 -0.0046561 0 0.000326618 0 0)
(0.240721 -0.00837827 0 0.000566836 0 0)
(0.177391 -0.0059325 0 0.00047272 0 0)
(0.296885 -0.0119665 0 0.00095799 0 0)
(0.19322 -0.00723382 0 0.00081871 0 0)
(0.364178 -0.0163303 0 0.00168661 0 0)
(0.208442 -0.00932927 0 0.0020212 0 0)
(0.459994 -0.0220186 0 0.00388343 0 0)
(0.259208 -0.0293563 0 0.0157239 0 0)
(0.0769852 -0.000444069 0 0.000400378 0 0)
(0.0894529 -0.000207505 0 0.000955417 0 0)
(0.139453 -0.00129143 0 0.000795829 0 0)
(0.144887 -0.00251472 0 0.000563473 0 0)
(0.180012 -0.00164062 0 0.000577672 0 0)
(0.186254 -0.00303977 0 0.000610861 0 0)
(0.226482 -0.0057297 0 0.000815158 0 0)
(0.221297 -0.003014 0 0.000617206 0 0)
(0.285011 -0.00962091 0 0.000939945 0 0)
(0.253133 -0.00525776 0 0.000623203 0 0)
(0.351444 -0.0127999 0 0.00103109 0 0)
(0.283493 -0.00830586 0 0.000755525 0 0)
(0.422865 -0.0173685 0 0.00143674 0 0)
(0.310348 -0.0111624 0 0.00106394 0 0)
(0.501863 -0.0247752 0 0.00237723 0 0)
(0.324815 -0.0137138 0 0.00171599 0 0)
(0.594478 -0.033509 0 0.0038134 0 0)
(0.322829 -0.0168456 0 0.00407266 0 0)
(0.715898 -0.0411737 0 0.00652574 0 0)
(0.314152 -0.0311282 0 0.0225336 0 0)
(0.299714 -0.0015527 0 0.000666545 0 0)
(0.296585 -0.000104448 0 0.00127095 0 0)
(0.332139 -0.00461496 0 0.0015338 0 0)
(0.319809 -0.00474203 0 0.00114768 0 0)
(0.346912 -0.00487254 0 0.00126016 0 0)
(0.337775 -0.0066065 0 0.00116003 0 0)
(0.372156 -0.00970624 0 0.00178669 0 0)
(0.354824 -0.00597967 0 0.00131334 0 0)
(0.408945 -0.0149437 0 0.0022497 0 0)
(0.372581 -0.00832657 0 0.00151666 0 0)
(0.449617 -0.0192777 0 0.00262477 0 0)
(0.391555 -0.0122918 0 0.00181035 0 0)
(0.491127 -0.0251272 0 0.00345152 0 0)
(0.411496 -0.0161135 0 0.00231502 0 0)
(0.53448 -0.0345197 0 0.00502306 0 0)
(0.42725 -0.0200817 0 0.00315242 0 0)
(0.584055 -0.0463205 0 0.00729459 0 0)
(0.432047 -0.0250769 0 0.00581197 0 0)
(0.650869 -0.0583732 0 0.0113257 0 0)
(0.414497 -0.0331677 0 0.0264076 0 0)
(0.377287 -0.006163 0 0.00219986 0 0)
(0.323979 -0.00133943 0 0.00298852 0 0)
(0.316411 -0.0083681 0 0.00378382 0 0)
(0.271966 -0.00658173 0 0.00245083 0 0)
(0.281591 -0.00918129 0 0.0033468 0 0)
(0.259023 -0.00865434 0 0.00274173 0 0)
(0.265123 -0.0121091 0 0.00395745 0 0)
(0.248581 -0.00808117 0 0.00287369 0 0)
(0.260296 -0.0154026 0 0.00473605 0 0)
(0.24614 -0.0101825 0 0.00318628 0 0)
(0.258586 -0.0185458 0 0.00535222 0 0)
(0.249189 -0.0136323 0 0.0037989 0 0)
(0.257169 -0.0220222 0 0.00651333 0 0)
(0.258911 -0.0169804 0 0.00458227 0 0)
(0.253424 -0.0273036 0 0.00876881 0 0)
(0.274805 -0.0210565 0 0.00571073 0 0)
(0.246369 -0.033502 0 0.012264 0 0)
(0.297034 -0.0265657 0 0.00862457 0 0)
(0.238756 -0.0384932 0 0.0199353 0 0)
(0.324836 -0.0354525 0 0.0245728 0 0)
(0.177423 -0.00986743 0 0.00410552 0 0)
(0.157962 -0.00848791 0 0.00606868 0 0)
(0.147553 -0.00780956 0 0.00591528 0 0)
(0.136883 -0.0112028 0 0.00503159 0 0)
(0.133688 -0.0100281 0 0.00611936 0 0)
(0.135587 -0.01034 0 0.00545825 0 0)
(0.130779 -0.0107395 0 0.00614293 0 0)
(0.133115 -0.0104258 0 0.00557614 0 0)
(0.133623 -0.0114351 0 0.00678829 0 0)
(0.135879 -0.0113726 0 0.00601773 0 0)
(0.134 -0.0131178 0 0.00760409 0 0)
(0.143384 -0.0125473 0 0.00681951 0 0)
(0.137823 -0.013772 0 0.0089667 0 0)
(0.154265 -0.0141511 0 0.00804863 0 0)
(0.140294 -0.0139721 0 0.01135 0 0)
(0.169969 -0.0161086 0 0.00977375 0 0)
(0.141974 -0.0125052 0 0.0152236 0 0)
(0.193156 -0.0182073 0 0.0141419 0 0)
(0.144707 -0.00560271 0 0.0240707 0 0)
(0.227358 -0.0175569 0 0.0359776 0 0)
(0.157148 -0.0116679 0 0.00507602 0 0)
(0.191585 -0.0186904 0 0.0101505 0 0)
(0.153479 -0.00855044 0 0.0079651 0 0)
(0.194248 -0.0140096 0 0.00690453 0 0)
(0.168282 -0.011683 0 0.00801977 0 0)
(0.191412 -0.0114618 0 0.00794805 0 0)
(0.188047 -0.0098077 0 0.00736139 0 0)
(0.195867 -0.0116239 0 0.00806014 0 0)
(0.202225 -0.00918561 0 0.00823373 0 0)
(0.201367 -0.0110147 0 0.00832253 0 0)
(0.215496 -0.00885776 0 0.00890485 0 0)
(0.208097 -0.0104538 0 0.00948658 0 0)
(0.233503 -0.00692582 0 0.0101704 0 0)
(0.21881 -0.0103728 0 0.0108883 0 0)
(0.246971 -0.00370254 0 0.0124208 0 0)
(0.232889 -0.00978284 0 0.0129929 0 0)
(0.265027 0.00200399 0 0.0159143 0 0)
(0.252033 -0.00797324 0 0.0187633 0 0)
(0.283169 0.0142307 0 0.0246215 0 0)
(0.278946 -0.000864372 0 0.042072 0 0)
(0.267886 -0.00845176 0 0.00485681 0 0)
(0.299614 -0.0179004 0 0.0129517 0 0)
(0.25848 -0.00567543 0 0.00904287 0 0)
(0.266392 -0.00893338 0 0.00802261 0 0)
(0.293625 -0.00678642 0 0.00796911 0 0)
(0.253112 -0.00677475 0 0.00890352 0 0)
(0.328567 -0.00439509 0 0.00744455 0 0)
(0.251592 -0.00657231 0 0.00899069 0 0)
(0.346607 -0.00211042 0 0.00797118 0 0)
(0.255843 -0.00642418 0 0.0095875 0 0)
(0.358107 1.22874e-05 0 0.00856243 0 0)
(0.265593 -0.00513344 0 0.0105365 0 0)
(0.373279 0.00294258 0 0.00981077 0 0)
(0.278812 -0.00439623 0 0.0120551 0 0)
(0.39087 0.0071993 0 0.0112484 0 0)
(0.295476 -0.00272595 0 0.0141546 0 0)
(0.40777 0.0140509 0 0.0139209 0 0)
(0.319536 0.000632388 0 0.0195345 0 0)
(0.425972 0.0269545 0 0.0206965 0 0)
(0.363556 0.00655205 0 0.0360716 0 0)
(0.299686 -0.0041039 0 0.0035395 0 0)
(0.332865 -0.00831052 0 0.00988695 0 0)
(0.321469 -0.000857135 0 0.00592293 0 0)
(0.276286 -0.00171178 0 0.00607751 0 0)
(0.34547 -0.000769046 0 0.00542342 0 0)
(0.266758 -0.000973677 0 0.00654226 0 0)
(0.357173 0.00136837 0 0.0050565 0 0)
(0.266851 -0.000647675 0 0.00677969 0 0)
(0.357113 0.00367915 0 0.00543805 0 0)
(0.271816 -0.000391435 0 0.00709366 0 0)
(0.364083 0.00485046 0 0.0059371 0 0)
(0.287737 0.000912994 0 0.0076242 0 0)
(0.372613 0.00766028 0 0.00663881 0 0)
(0.30617 0.00181441 0 0.00859952 0 0)
(0.382406 0.0112644 0 0.00733377 0 0)
(0.330973 0.00435804 0 0.00988074 0 0)
(0.395706 0.0168508 0 0.00858071 0 0)
(0.370329 0.00942752 0 0.0130443 0 0)
(0.414762 0.026875 0 0.0125152 0 0)
(0.449599 0.0156888 0 0.0235664 0 0)
(0.203011 -0.00148681 0 0.00263767 0 0)
(0.232708 -0.00145004 0 0.00612544 0 0)
(0.220868 0.0020556 0 0.00417321 0 0)
(0.197062 0.00325391 0 0.00386302 0 0)
(0.229812 0.00201311 0 0.00462578 0 0)
(0.19931 0.00299536 0 0.00468389 0 0)
(0.23103 0.00346848 0 0.00449115 0 0)
(0.203152 0.00418918 0 0.00495604 0 0)
(0.230916 0.00494726 0 0.00469303 0 0)
(0.212362 0.00508075 0 0.00519736 0 0)
(0.230431 0.00620507 0 0.00503681 0 0)
(0.23102 0.00635919 0 0.00544965 0 0)
(0.235723 0.00835342 0 0.00539196 0 0)
(0.246697 0.00814735 0 0.00594907 0 0)
(0.242017 0.0108331 0 0.00579006 0 0)
(0.269678 0.0116333 0 0.00662768 0 0)
(0.248533 0.0143144 0 0.00654432 0 0)
(0.3067 0.0179935 0 0.00818263 0 0)
(0.253998 0.0208788 0 0.00906007 0 0)
(0.375999 0.026602 0 0.0147445 0 0)
(0.0882199 -0.000363712 0 0.00233348 0 0)
(0.099256 0.000657786 0 0.00506158 0 0)
(0.0891996 0.00138777 0 0.00392761 0 0)
(0.0937448 0.00268408 0 0.00384527 0 0)
(0.0949091 0.00148097 0 0.00423429 0 0)
(0.0989922 0.0024204 0 0.00449315 0 0)
(0.0990025 0.00163712 0 0.00430634 0 0)
(0.104505 0.00378015 0 0.0047615 0 0)
(0.0999856 0.00245457 0 0.00430114 0 0)
(0.11482 0.00463012 0 0.00481234 0 0)
(0.0991921 0.00326967 0 0.00444015 0 0)
(0.127822 0.00553398 0 0.00492237 0 0)
(0.103098 0.00417713 0 0.00456673 0 0)
(0.140679 0.00673783 0 0.00512131 0 0)
(0.106825 0.00480939 0 0.00459828 0 0)
(0.157946 0.00910442 0 0.0053316 0 0)
(0.108662 0.00590563 0 0.00482934 0 0)
(0.183863 0.0131426 0 0.00615522 0 0)
(0.110021 0.00924022 0 0.00619802 0 0)
(0.231556 0.0187904 0 0.0102191 0 0)
(0.0292768 -0.000128577 0 0.00191151 0 0)
(0.0319951 0.000224359 0 0.00418236 0 0)
(0.02907 -0.000348576 0 0.00342783 0 0)
(0.0378943 0.000713472 0 0.0031638 0 0)
(0.0349275 0.00025701 0 0.00321792 0 0)
(0.0397461 0.000896932 0 0.00338999 0 0)
(0.0381924 8.60898e-05 0 0.00338417 0 0)
(0.0445981 0.00155965 0 0.0037406 0 0)
(0.039654 0.000212192 0 0.00331369 0 0)
(0.0509499 0.00219194 0 0.00356232 0 0)
(0.0401789 0.000918473 0 0.00325596 0 0)
(0.0562593 0.0025999 0 0.0035792 0 0)
(0.0426118 0.00125004 0 0.00336134 0 0)
(0.0628287 0.00305449 0 0.00348487 0 0)
(0.0458816 0.00143428 0 0.00314068 0 0)
(0.070585 0.00421214 0 0.00331763 0 0)
(0.0488853 0.00218512 0 0.00307082 0 0)
(0.08225 0.00634621 0 0.00358685 0 0)
(0.0543881 0.00474895 0 0.00385039 0 0)
(0.10473 0.0103154 0 0.00597117 0 0)
(0.00888798 -0.00025133 0 0.00138562 0 0)
(0.00645724 -0.000637991 0 0.00313936 0 0)
(0.00763925 -0.00139052 0 0.00279656 0 0)
(0.0113426 -0.000585841 0 0.00217421 0 0)
(0.0114273 -0.000238046 0 0.00224767 0 0)
(0.0128587 -0.000291624 0 0.00217538 0 0)
(0.0144336 -0.000332217 0 0.0023232 0 0)
(0.015815 -0.000311994 0 0.00249057 0 0)
(0.0173211 -0.000672739 0 0.00225544 0 0)
(0.0196316 -7.63801e-06 0 0.00222554 0 0)
(0.0188222 -0.000155414 0 0.00208872 0 0)
(0.0221245 0.00016091 0 0.00214709 0 0)
(0.0209278 -0.000150175 0 0.00215276 0 0)
(0.0259138 3.20447e-06 0 0.00205616 0 0)
(0.0241843 -6.36493e-05 0 0.00190079 0 0)
(0.0304959 0.000514925 0 0.00179578 0 0)
(0.0284208 0.000648983 0 0.00170658 0 0)
(0.0382287 0.00199053 0 0.00191554 0 0)
(0.037088 0.00309307 0 0.00219939 0 0)
(0.0533752 0.00668386 0 0.00371282 0 0)
(0.00744423 -0.000376959 0 0.00102767 0 0)
(0.00319627 -0.000883338 0 0.0024679 0 0)
(0.00448152 -0.0015135 0 0.00227996 0 0)
(0.00597234 -0.00100451 0 0.00165074 0 0)
(0.00768634 -0.000502272 0 0.00172523 0 0)
(0.00752875 -0.000487456 0 0.00165315 0 0)
(0.00930935 -0.00059079 0 0.00188142 0 0)
(0.00963328 -0.000968836 0 0.00201053 0 0)
(0.0121674 -0.00100603 0 0.00186076 0 0)
(0.0124074 -0.00070304 0 0.00175014 0 0)
(0.0143203 -0.000503749 0 0.0016157 0 0)
(0.0143674 -0.00045519 0 0.00159542 0 0)
(0.0163439 -0.000450418 0 0.00157939 0 0)
(0.0169942 -0.000674925 0 0.00146694 0 0)
(0.0193045 -0.000472362 0 0.00132125 0 0)
(0.0202644 -0.000375849 0 0.00117567 0 0)
(0.0231884 0.000197535 0 0.00104734 0 0)
(0.0260786 0.000843797 0 0.00107325 0 0)
(0.03108 0.00242223 0 0.00123887 0 0)
(0.0386553 0.00492033 0 0.00204545 0 0)
(0.00910527 -0.000366303 0 0.000612212 0 0)
(0.00511178 -0.000254666 0 0.00162608 0 0)
(0.00525889 -0.000903179 0 0.00156221 0 0)
(0.00635817 -0.000681277 0 0.00115864 0 0)
(0.00838639 -0.000353572 0 0.00130663 0 0)
(0.00780314 -0.000155497 0 0.00118418 0 0)
(0.0100263 -0.000312438 0 0.00130784 0 0)
(0.00913911 -0.000367325 0 0.00140939 0 0)
(0.0111335 -0.000513168 0 0.00133992 0 0)
(0.00965417 -0.000149263 0 0.00124739 0 0)
(0.011547 -0.000141403 0 0.00111001 0 0)
(0.00971178 8.19377e-05 0 0.00104161 0 0)
(0.0113101 5.18615e-06 0 0.000986055 0 0)
(0.00936365 -7.83005e-06 0 0.000912419 0 0)
(0.0109589 -2.07616e-05 0 0.000800447 0 0)
(0.00927649 2.76852e-05 0 0.000723421 0 0)
(0.0112237 0.000348773 0 0.0005945 0 0)
(0.0109484 0.000654582 0 0.000600976 0 0)
(0.0145558 0.00172381 0 0.000676151 0 0)
(0.0184036 0.00290622 0 0.00112761 0 0)
(0.00788607 -0.000584008 0 0.000381187 0 0)
(0.00415948 -2.31754e-06 0 0.00111899 0 0)
(0.00453941 -0.000329509 0 0.000955344 0 0)
(0.00609042 -0.000289349 0 0.000651911 0 0)
(0.00754227 -0.000101239 0 0.000780165 0 0)
(0.00659465 7.59195e-05 0 0.000741042 0 0)
(0.00740851 0.000146242 0 0.000771146 0 0)
(0.00584371 0.000458712 0 0.000782426 0 0)
(0.00563827 0.00046255 0 0.000712518 0 0)
(0.00458664 0.000792388 0 0.000640517 0 0)
(0.00415459 0.000693705 0 0.000562137 0 0)
(0.00406076 0.000923081 0 0.000519105 0 0)
(0.00330188 0.000755777 0 0.000482328 0 0)
(0.00408669 0.000888581 0 0.00044853 0 0)
(0.00326028 0.000593429 0 0.000386548 0 0)
(0.00482795 0.000754059 0 0.000364024 0 0)
(0.00427592 0.000424822 0 0.000303107 0 0)
(0.00643645 0.000768406 0 0.000308829 0 0)
(0.00713014 0.000700067 0 0.000413657 0 0)
(0.0103892 0.00148585 0 0.000578212 0 0)
(0.0063223 -0.00117179 0 0.00044789 0 0)
(0.00198193 -0.000344062 0 0.00113701 0 0)
(0.00215171 -4.85052e-05 0 0.000741015 0 0)
(0.00292292 0.000141347 0 0.000434153 0 0)
(0.00304143 0.000546354 0 0.000414464 0 0)
(0.00318669 0.000864506 0 0.000370965 0 0)
(0.00496891 0.00105185 0 0.000350638 0 0)
(0.00781182 0.00124318 0 0.000328849 0 0)
(0.00975716 0.00116005 0 0.000283608 0 0)
(0.0144382 0.00119467 0 0.000247464 0 0)
(0.0153556 0.00101825 0 0.000215278 0 0)
(0.0212459 0.00104945 0 0.000200089 0 0)
(0.0206382 0.000857526 0 0.000192121 0 0)
(0.0274131 0.000909608 0 0.000178822 0 0)
(0.0255168 0.000552709 0 0.000158991 0 0)
(0.0323997 0.00069652 0 0.000150826 0 0)
(0.029748 4.27063e-05 0 0.000134004 0 0)
(0.0348524 0.000512699 0 0.00014287 0 0)
(0.0329034 -0.000406543 0 0.00019623 0 0)
(0.0342284 0.000952181 0 0.000369172 0 0)
(0.0055813 -0.00174654 0 0.00070781 0 0)
(0.000960871 0.000674186 0 0.000946825 0 0)
(0.00524532 0.00133904 0 0.000402345 0 0)
(0.0104248 0.00117544 0 0.000167721 0 0)
(0.0163626 0.00115017 0 0.00011649 0 0)
(0.0239522 0.00103763 0 9.33215e-05 0 0)
(0.0311795 0.000870861 0 8.51635e-05 0 0)
(0.0389113 0.000745481 0 7.94859e-05 0 0)
(0.0436075 0.000598997 0 7.40392e-05 0 0)
(0.0504005 0.000533849 0 7.05449e-05 0 0)
(0.05256 0.000436095 0 6.76665e-05 0 0)
(0.0590157 0.000432975 0 6.50955e-05 0 0)
(0.0591657 0.000341745 0 6.4698e-05 0 0)
(0.0657321 0.000364121 0 5.93753e-05 0 0)
(0.0641898 0.000175209 0 5.44675e-05 0 0)
(0.070295 0.000217785 0 4.91622e-05 0 0)
(0.067174 -0.000181342 0 4.64238e-05 0 0)
(0.0703196 7.56429e-05 0 4.6226e-05 0 0)
(0.0677845 -0.000716131 0 6.77113e-05 0 0)
(0.0630169 0.00038346 0 0.000202071 0 0)
(0.00103481 -6.10615e-05 0 0.000117645 0 0)
(0.019796 0.000769938 0 4.34884e-05 0 0)
(0.038625 7.0929e-05 0 1.10874e-05 0 0)
(0.0480999 -0.000117547 0 5.13031e-06 0 0)
(0.0551414 -8.64163e-05 0 4.39584e-06 0 0)
(0.0605442 -6.6489e-05 0 4.81577e-06 0 0)
(0.0640033 -4.39063e-05 0 5.82165e-06 0 0)
(0.0669557 -1.93935e-05 0 6.24291e-06 0 0)
(0.0685916 -1.07329e-05 0 6.89874e-06 0 0)
(0.0707041 4.60452e-07 0 6.9646e-06 0 0)
(0.0714021 -3.89572e-06 0 7.08723e-06 0 0)
(0.0731662 6.19732e-06 0 6.72468e-06 0 0)
(0.0732786 -6.93135e-06 0 6.53693e-06 0 0)
(0.0749155 2.52801e-06 0 5.79263e-06 0 0)
(0.0743813 -3.05793e-05 0 5.31813e-06 0 0)
(0.0755388 -2.70558e-05 0 4.43414e-06 0 0)
(0.0738603 -9.01904e-05 0 4.03419e-06 0 0)
(0.0733967 -7.40952e-05 0 3.55475e-06 0 0)
(0.0712711 -0.000265835 0 4.49726e-06 0 0)
(0.0644916 0.000358943 0 2.57412e-05 0 0)
(0.306475 -0.147809 0 0.0920674 0 0)
(0.333635 -0.175249 0 0.129336 0 0)
(0.339031 -0.166522 0 0.153947 0 0)
(0.358436 -0.14724 0 0.171893 0 0)
(0.365247 -0.124146 0 0.182485 0 0)
(0.430198 -0.110368 0 0.189872 0 0)
(0.462152 -0.104631 0 0.196723 0 0)
(0.563136 -0.116151 0 0.207051 0 0)
(0.611854 -0.130634 0 0.219149 0 0)
(0.715616 -0.15265 0 0.231888 0 0)
(0.751663 -0.167321 0 0.245537 0 0)
(0.846307 -0.187184 0 0.262787 0 0)
(0.872166 -0.195878 0 0.280812 0 0)
(0.968256 -0.214486 0 0.297424 0 0)
(0.997041 -0.224739 0 0.308722 0 0)
(1.10114 -0.251389 0 0.318361 0 0)
(1.12981 -0.271884 0 0.330467 0 0)
(1.24315 -0.31083 0 0.348965 0 0)
(1.27097 -0.334938 0 0.37425 0 0)
(1.41212 -0.376837 0 0.40654 0 0)
(1.4654 -0.398039 0 0.434537 0 0)
(1.64298 -0.447861 0 0.465342 0 0)
(1.70718 -0.476786 0 0.495803 0 0)
(1.90107 -0.537659 0 0.530685 0 0)
(1.97007 -0.567102 0 0.564992 0 0)
(2.17188 -0.634934 0 0.606027 0 0)
(2.25351 -0.661249 0 0.646074 0 0)
(2.46073 -0.742353 0 0.691702 0 0)
(2.56503 -0.773252 0 0.737452 0 0)
(2.77612 -0.869766 0 0.792158 0 0)
(2.90511 -0.907555 0 0.849096 0 0)
(3.13142 -1.01583 0 0.912342 0 0)
(3.27832 -1.06026 0 0.973959 0 0)
(3.53556 -1.18357 0 1.042 0 0)
(3.68076 -1.23558 0 1.1067 0 0)
(3.96478 -1.37502 0 1.17846 0 0)
(4.07587 -1.42197 0 1.24141 0 0)
(4.37066 -1.56871 0 1.3125 0 0)
(4.43338 -1.59939 0 1.37255 0 0)
(4.73032 -1.7455 0 1.44302 0 0)
(4.73921 -1.74578 0 1.50276 0 0)
(5.02791 -1.88669 0 1.56941 0 0)
(4.99178 -1.85562 0 1.62273 0 0)
(5.28579 -1.99129 0 1.68725 0 0)
(5.22622 -1.94705 0 1.7389 0 0)
(5.55087 -2.08712 0 1.80396 0 0)
(5.48658 -2.0407 0 1.85294 0 0)
(5.8583 -2.18827 0 1.92655 0 0)
(5.79233 -2.15224 0 1.98025 0 0)
(6.22143 -2.30726 0 2.0653 0 0)
(6.13062 -2.28216 0 2.12845 0 0)
(6.61627 -2.44662 0 2.22817 0 0)
(6.45344 -2.41218 0 2.30313 0 0)
(6.97702 -2.58249 0 2.41202 0 0)
(6.70268 -2.50884 0 2.4821 0 0)
(7.24115 -2.67969 0 2.5849 0 0)
(6.84891 -2.55345 0 2.63267 0 0)
(7.40705 -2.73018 0 2.71764 0 0)
(6.91383 -2.57168 0 2.74882 0 0)
(7.53113 -2.76745 0 2.82523 0 0)
(6.93487 -2.60538 0 2.85837 0 0)
(7.64413 -2.82535 0 2.94155 0 0)
(6.91737 -2.6569 0 2.98246 0 0)
(7.70222 -2.88408 0 3.07323 0 0)
(6.83436 -2.67964 0 3.10585 0 0)
(7.66556 -2.88248 0 3.18521 0 0)
(6.69635 -2.63064 0 3.17564 0 0)
(7.58704 -2.78141 0 3.20862 0 0)
(6.55415 -2.51684 0 3.17191 0 0)
(7.57481 -2.67123 0 3.21005 0 0)
(6.47987 -2.41359 0 3.19672 0 0)
(7.66434 -2.59907 0 3.24019 0 0)
(6.4837 -2.33038 0 3.22868 0 0)
(7.85724 -2.58559 0 3.28311 0 0)
(6.55695 -2.30117 0 3.30674 0 0)
(8.09134 -2.63825 0 3.41002 0 0)
(6.68989 -2.32168 0 3.4748 0 0)
(8.29441 -2.70827 0 3.63211 0 0)
(6.81638 -2.35565 0 3.71059 0 0)
(8.45008 -2.74034 0 3.89013 0 0)
(6.86377 -2.36602 0 3.95976 0 0)
(8.55816 -2.73473 0 4.11525 0 0)
(6.8375 -2.34507 0 4.14906 0 0)
(8.62284 -2.72233 0 4.28277 0 0)
(6.7894 -2.30776 0 4.29147 0 0)
(8.59063 -2.67232 0 4.41816 0 0)
(6.77552 -2.23713 0 4.42539 0 0)
(8.54878 -2.5957 0 4.59599 0 0)
(6.81297 -2.17915 0 4.62591 0 0)
(8.59219 -2.51922 0 4.79598 0 0)
(6.90621 -2.14767 0 4.83532 0 0)
(8.72659 -2.53168 0 5.03233 0 0)
(7.09196 -2.19252 0 5.11024 0 0)
(8.94444 -2.61076 0 5.33584 0 0)
(7.3209 -2.25475 0 5.41951 0 0)
(9.14526 -2.69477 0 5.67035 0 0)
(7.53603 -2.31261 0 5.76681 0 0)
(9.29042 -2.76187 0 6.06099 0 0)
(7.67985 -2.35214 0 6.16492 0 0)
(9.27901 -2.78574 0 6.48932 0 0)
(7.68676 -2.35219 0 6.63307 0 0)
(9.20937 -2.80741 0 7.00651 0 0)
(7.56831 -2.34321 0 7.17269 0 0)
(9.11609 -2.81229 0 7.55635 0 0)
(7.37986 -2.31176 0 7.63077 0 0)
(8.99424 -2.8019 0 7.96015 0 0)
(7.19143 -2.21615 0 7.95192 0 0)
(8.84604 -2.69737 0 8.18503 0 0)
(7.0696 -2.0577 0 8.09941 0 0)
(8.70689 -2.55892 0 8.33398 0 0)
(7.0155 -1.9341 0 8.23362 0 0)
(8.583 -2.44951 0 8.46286 0 0)
(7.02621 -1.82248 0 8.3456 0 0)
(8.49943 -2.33263 0 8.59197 0 0)
(7.07931 -1.66491 0 8.48151 0 0)
(8.39425 -2.15711 0 8.74242 0 0)
(7.12355 -1.51544 0 8.68363 0 0)
(8.2781 -1.98962 0 8.97892 0 0)
(7.20548 -1.41915 0 8.96689 0 0)
(8.25518 -1.86903 0 9.29612 0 0)
(7.35497 -1.38106 0 9.34992 0 0)
(8.25524 -1.79706 0 9.68777 0 0)
(7.42721 -1.33995 0 9.79174 0 0)
(8.19358 -1.74029 0 10.1235 0 0)
(7.41374 -1.30969 0 10.1883 0 0)
(8.11566 -1.6828 0 10.4675 0 0)
(7.31473 -1.2577 0 10.5366 0 0)
(8.00839 -1.6327 0 10.7969 0 0)
(7.24473 -1.24724 0 10.8686 0 0)
(7.86899 -1.62418 0 11.066 0 0)
(7.27271 -1.3279 0 11.2131 0 0)
(7.76269 -1.64437 0 11.4407 0 0)
(7.37954 -1.43277 0 11.6066 0 0)
(7.72979 -1.63317 0 11.7825 0 0)
(7.50034 -1.51251 0 11.9303 0 0)
(7.73912 -1.59559 0 12.0649 0 0)
(7.63232 -1.52365 0 12.1991 0 0)
(7.81772 -1.5273 0 12.3841 0 0)
(7.73813 -1.47872 0 12.589 0 0)
(7.9038 -1.44251 0 12.7742 0 0)
(7.80511 -1.41383 0 12.9908 0 0)
(7.91711 -1.33605 0 13.1033 0 0)
(7.86926 -1.33968 0 13.3265 0 0)
(7.84148 -1.21001 0 13.4905 0 0)
(7.7726 -1.22369 0 13.7202 0 0)
(7.6649 -1.06001 0 13.8001 0 0)
(7.64897 -1.04736 0 13.8871 0 0)
(7.52243 -0.916353 0 13.9314 0 0)
(7.54282 -0.821945 0 14.0543 0 0)
(7.39502 -0.765755 0 14.0816 0 0)
(7.42288 -0.613574 0 14.1011 0 0)
(7.27393 -0.584878 0 14.045 0 0)
(7.27896 -0.399369 0 14.064 0 0)
(7.17298 -0.3914 0 14.0294 0 0)
(7.15746 -0.224421 0 14.1104 0 0)
(7.05874 -0.238207 0 14.1046 0 0)
(7.0907 -0.105403 0 14.1974 0 0)
(7.03295 -0.108756 0 14.1304 0 0)
(7.04922 -0.00988474 0 14.2232 0 0)
(6.91718 -0.0451967 0 14.1831 0 0)
(6.9261 0.0282984 0 14.3037 0 0)
(6.75333 -0.00412788 0 14.3042 0 0)
(6.74957 0.0433844 0 14.368 0 0)
(6.61516 -0.00648897 0 14.3053 0 0)
(6.67815 0.0330226 0 14.3079 0 0)
(6.53206 -0.0805122 0 14.1783 0 0)
(6.63248 -0.0286208 0 14.1793 0 0)
(6.43283 -0.269885 0 14.059 0 0)
(6.55146 -0.135486 0 13.9641 0 0)
(6.40237 -0.462132 0 13.7911 0 0)
(6.41622 -0.340774 0 13.6371 0 0)
(6.43759 -0.713583 0 13.5152 0 0)
(6.23765 -0.534667 0 13.119 0 0)
(6.54498 -0.996345 0 12.8582 0 0)
(6.17655 -0.602992 0 12.4225 0 0)
(6.55905 -1.07717 0 12.1303 0 0)
(6.22246 -0.614589 0 11.7765 0 0)
(6.60589 -1.07583 0 11.3447 0 0)
(6.2772 -0.670632 0 11.1693 0 0)
(6.62594 -0.965861 0 10.6068 0 0)
(6.29935 -0.761088 0 10.6189 0 0)
(6.53123 -0.841496 0 9.8256 0 0)
(6.17703 -0.873032 0 10.1664 0 0)
(6.34959 -0.691184 0 9.05911 0 0)
(6.01106 -0.952895 0 9.77522 0 0)
(6.11298 -0.441438 0 8.4017 0 0)
(5.82143 -1.00257 0 9.49559 0 0)
(5.78014 -0.136444 0 7.93523 0 0)
(5.52132 -0.945576 0 9.45607 0 0)
(5.42401 0.317224 0 7.77407 0 0)
(5.11666 -0.771517 0 9.71713 0 0)
(5.06555 0.878834 0 7.9144 0 0)
(4.66393 -0.462011 0 10.5228 0 0)
(4.51084 1.50691 0 8.54503 0 0)
(4.27942 0.029845 0 12.05 0 0)
(3.91239 2.43236 0 10.0899 0 0)
(3.77286 0.384307 0 14.3275 0 0)
(3.07848 3.63542 0 13.0037 0 0)
(3.41498 2.29015 0 19.5677 0 0)
(1.11781 0.620758 0 21.4079 0 0)
(0.287189 -0.122212 0 0.10374 0 0)
(0.255414 -0.13041 0 0.135126 0 0)
(0.272526 -0.116337 0 0.142287 0 0)
(0.239514 -0.106729 0 0.146221 0 0)
(0.260812 -0.0935101 0 0.146067 0 0)
(0.257265 -0.0942534 0 0.145348 0 0)
(0.295667 -0.0980637 0 0.148399 0 0)
(0.309849 -0.114152 0 0.157113 0 0)
(0.359266 -0.125226 0 0.167111 0 0)
(0.37248 -0.143105 0 0.177815 0 0)
(0.419588 -0.151928 0 0.189147 0 0)
(0.427864 -0.169762 0 0.203828 0 0)
(0.475732 -0.177065 0 0.218631 0 0)
(0.492754 -0.196541 0 0.234019 0 0)
(0.549701 -0.204658 0 0.247285 0 0)
(0.586876 -0.232033 0 0.261888 0 0)
(0.656901 -0.248474 0 0.277618 0 0)
(0.716989 -0.29047 0 0.298001 0 0)
(0.794065 -0.312903 0 0.319559 0 0)
(0.867837 -0.361756 0 0.346108 0 0)
(0.944459 -0.381974 0 0.371843 0 0)
(1.034 -0.434791 0 0.401484 0 0)
(1.11337 -0.453942 0 0.430245 0 0)
(1.22279 -0.515284 0 0.464087 0 0)
(1.30519 -0.53343 0 0.497068 0 0)
(1.43712 -0.604402 0 0.537845 0 0)
(1.52992 -0.622875 0 0.577505 0 0)
(1.68948 -0.706515 0 0.625121 0 0)
(1.79892 -0.73207 0 0.670197 0 0)
(1.98398 -0.832059 0 0.724972 0 0)
(2.10172 -0.866539 0 0.776215 0 0)
(2.30702 -0.980813 0 0.837263 0 0)
(2.41266 -1.01709 0 0.892665 0 0)
(2.63512 -1.1427 0 0.95808 0 0)
(2.7067 -1.17188 0 1.01562 0 0)
(2.9446 -1.30709 0 1.08325 0 0)
(2.95918 -1.31701 0 1.14137 0 0)
(3.20867 -1.4575 0 1.20786 0 0)
(3.15711 -1.4414 0 1.2649 0 0)
(3.42344 -1.58725 0 1.3292 0 0)
(3.31676 -1.54183 0 1.38264 0 0)
(3.60303 -1.68999 0 1.44776 0 0)
(3.46548 -1.6263 0 1.49689 0 0)
(3.78309 -1.77692 0 1.56506 0 0)
(3.63705 -1.70741 0 1.61194 0 0)
(3.99262 -1.86601 0 1.68993 0 0)
(3.84905 -1.80156 0 1.74018 0 0)
(4.24496 -1.96956 0 1.82595 0 0)
(4.08839 -1.90679 0 1.88017 0 0)
(4.52509 -2.08395 0 1.97147 0 0)
(4.31943 -2.00659 0 2.02917 0 0)
(4.8005 -2.19562 0 2.1245 0 0)
(4.51162 -2.08145 0 2.18156 0 0)
(5.03378 -2.28173 0 2.27633 0 0)
(4.64824 -2.115 0 2.32714 0 0)
(5.20986 -2.3317 0 2.4145 0 0)
(4.74332 -2.1166 0 2.45333 0 0)
(5.34514 -2.35644 0 2.53684 0 0)
(4.83087 -2.12317 0 2.56807 0 0)
(5.47572 -2.3863 0 2.66357 0 0)
(4.92112 -2.1653 0 2.69601 0 0)
(5.60957 -2.42913 0 2.79951 0 0)
(4.99043 -2.22123 0 2.82677 0 0)
(5.7139 -2.44904 0 2.91927 0 0)
(4.99455 -2.22861 0 2.92732 0 0)
(5.75511 -2.40568 0 2.98488 0 0)
(4.92469 -2.15303 0 2.96261 0 0)
(5.77129 -2.31686 0 2.99984 0 0)
(4.8582 -2.05101 0 2.98119 0 0)
(5.83301 -2.25386 0 3.04063 0 0)
(4.85616 -1.97288 0 3.02977 0 0)
(5.97878 -2.22478 0 3.10618 0 0)
(4.94321 -1.92503 0 3.10017 0 0)
(6.20107 -2.25089 0 3.19566 0 0)
(5.10761 -1.92771 0 3.21788 0 0)
(6.44895 -2.32728 0 3.35608 0 0)
(5.30509 -1.97022 0 3.41507 0 0)
(6.655 -2.39751 0 3.59732 0 0)
(5.45321 -1.99084 0 3.66103 0 0)
(6.78058 -2.40645 0 3.84672 0 0)
(5.50212 -1.976 0 3.89606 0 0)
(6.8632 -2.38682 0 4.05941 0 0)
(5.52403 -1.94915 0 4.08646 0 0)
(6.9137 -2.35765 0 4.22182 0 0)
(5.57549 -1.93729 0 4.21475 0 0)
(6.96508 -2.30839 0 4.3559 0 0)
(5.66633 -1.93051 0 4.37272 0 0)
(7.05695 -2.26031 0 4.54395 0 0)
(5.81583 -1.90417 0 4.56397 0 0)
(7.23305 -2.21893 0 4.74879 0 0)
(6.01602 -1.91676 0 4.80711 0 0)
(7.48291 -2.27931 0 5.02705 0 0)
(6.26151 -1.97068 0 5.1105 0 0)
(7.77245 -2.3667 0 5.34542 0 0)
(6.53364 -2.02516 0 5.41672 0 0)
(8.04019 -2.46747 0 5.67437 0 0)
(6.79303 -2.06772 0 5.76326 0 0)
(8.2501 -2.52256 0 6.05703 0 0)
(6.99109 -2.0872 0 6.16085 0 0)
(8.35508 -2.55769 0 6.51376 0 0)
(7.06409 -2.07845 0 6.64889 0 0)
(8.36011 -2.57697 0 7.04754 0 0)
(6.9894 -2.03135 0 7.17034 0 0)
(8.28522 -2.53622 0 7.54305 0 0)
(6.80072 -1.95177 0 7.5495 0 0)
(8.12376 -2.45614 0 7.87235 0 0)
(6.59516 -1.81013 0 7.81459 0 0)
(7.96757 -2.31194 0 8.08834 0 0)
(6.48116 -1.65414 0 7.98544 0 0)
(7.91506 -2.17055 0 8.2485 0 0)
(6.4692 -1.51643 0 8.13289 0 0)
(7.93455 -2.02897 0 8.388 0 0)
(6.58133 -1.38004 0 8.25353 0 0)
(7.99354 -1.87342 0 8.52226 0 0)
(6.74145 -1.26858 0 8.41124 0 0)
(8.01641 -1.75973 0 8.67408 0 0)
(6.95318 -1.21379 0 8.62437 0 0)
(8.0843 -1.67599 0 8.92304 0 0)
(7.18389 -1.18154 0 8.95173 0 0)
(8.20903 -1.62083 0 9.29711 0 0)
(7.34926 -1.17593 0 9.36686 0 0)
(8.27111 -1.57736 0 9.73305 0 0)
(7.36979 -1.13481 0 9.81499 0 0)
(8.25573 -1.52337 0 10.1672 0 0)
(7.32157 -1.05785 0 10.2463 0 0)
(8.2186 -1.47391 0 10.5349 0 0)
(7.2996 -1.02043 0 10.6092 0 0)
(8.17816 -1.46449 0 10.8575 0 0)
(7.3664 -1.10275 0 10.9672 0 0)
(8.15045 -1.52313 0 11.1661 0 0)
(7.45188 -1.29627 0 11.3181 0 0)
(8.12491 -1.58705 0 11.5257 0 0)
(7.56658 -1.44633 0 11.7006 0 0)
(8.13287 -1.5983 0 11.8984 0 0)
(7.72235 -1.53354 0 12.0708 0 0)
(8.28421 -1.59176 0 12.1768 0 0)
(7.94827 -1.57864 0 12.3198 0 0)
(8.45394 -1.55408 0 12.48 0 0)
(8.11128 -1.57625 0 12.7229 0 0)
(8.54074 -1.46781 0 12.9035 0 0)
(8.17002 -1.47423 0 13.1618 0 0)
(8.52059 -1.34763 0 13.261 0 0)
(8.13214 -1.35526 0 13.5146 0 0)
(8.36807 -1.16794 0 13.6573 0 0)
(7.92375 -1.17267 0 13.9292 0 0)
(8.16192 -0.942382 0 13.9567 0 0)
(7.69091 -0.994955 0 14.1336 0 0)
(7.96371 -0.757096 0 14.1425 0 0)
(7.43657 -0.797267 0 14.2757 0 0)
(7.70338 -0.581705 0 14.2742 0 0)
(7.29998 -0.518152 0 14.3233 0 0)
(7.4999 -0.420741 0 14.1975 0 0)
(7.23582 -0.330333 0 14.2428 0 0)
(7.41993 -0.272849 0 14.2844 0 0)
(7.19091 -0.204673 0 14.3374 0 0)
(7.36549 -0.199993 0 14.3286 0 0)
(7.18677 -0.069255 0 14.4158 0 0)
(7.31704 -0.100411 0 14.4142 0 0)
(7.15862 0.0186514 0 14.4351 0 0)
(7.15381 -0.0271066 0 14.5327 0 0)
(7.07285 0.102329 0 14.5311 0 0)
(6.98319 -0.0102479 0 14.5521 0 0)
(6.94242 0.125697 0 14.6296 0 0)
(6.84098 0.0130158 0 14.5768 0 0)
(6.80998 0.10768 0 14.6153 0 0)
(6.69555 -0.0721236 0 14.5082 0 0)
(6.70892 0.0825784 0 14.5862 0 0)
(6.58881 -0.200586 0 14.4604 0 0)
(6.63445 -0.00051964 0 14.3063 0 0)
(6.53259 -0.371515 0 14.2777 0 0)
(6.4533 -0.102289 0 14.0906 0 0)
(6.44933 -0.632667 0 13.9439 0 0)
(6.32874 -0.20683 0 13.5884 0 0)
(6.29481 -0.86165 0 13.2718 0 0)
(6.37712 -0.331333 0 12.7786 0 0)
(6.19178 -1.03458 0 12.3527 0 0)
(6.49634 -0.462594 0 12.0818 0 0)
(6.17083 -1.11319 0 11.5697 0 0)
(6.53862 -0.705997 0 11.4891 0 0)
(6.21073 -1.06607 0 10.7638 0 0)
(6.51419 -0.924747 0 11.0963 0 0)
(6.18547 -0.974793 0 9.99654 0 0)
(6.40179 -1.19032 0 10.7257 0 0)
(6.00947 -0.807197 0 9.2074 0 0)
(6.2212 -1.47218 0 10.339 0 0)
(5.81289 -0.533365 0 8.44731 0 0)
(5.95334 -1.62543 0 10.1019 0 0)
(5.70012 -0.214294 0 7.82925 0 0)