/*--------------------------------*- C++ -*----------------------------------*\
| =========                 |                                                 |
| \\      /  F ield         | OpenFOAM: The Open Source CFD Toolbox           |
|  \\    /   O peration     | Version:  2.4.0                                 |
|   \\  /    A nd           | Web:      www.OpenFOAM.org                      |
|    \\/     M anipulation  |                                                 |
\*---------------------------------------------------------------------------*/
FoamFile
{
    version     2.0;
    format      ascii;
    class       volVectorField;
    location    "61";
    object      U;
}
// * * * * * * * * * * * * * * * * * * * * * * * * * * * * * * * * * * * * * //

dimensions      [0 1 -1 0 0 0 0];

internalField   nonuniform List<vector> 
4400
(
(0.0931104 0.000254572 0)
(0.101371 -0.000978461 0)
(0.0985925 0.000706894 0)
(0.0872463 0.00123588 0)
(0.106534 -0.00262935 0)
(0.105363 0.00121885 0)
(0.0921515 0.00184034 0)
(0.0968562 -0.00201013 0)
(0.097155 0.00134383 0)
(0.096582 -0.000552757 0)
(0.105841 -0.00121556 0)
(0.097631 0.00173966 0)
(0.0987196 -0.000850804 0)
(0.103218 -0.000849759 0)
(0.102143 0.00134393 0)
(0.100298 -0.0010715 0)
(0.110925 -0.000424673 0)
(0.0976603 0.00113603 0)
(0.123171 -0.000483392 0)
(0.082337 -0.00361385 0)
(0.271807 0.00108272 0)
(0.283088 -0.00307502 0)
(0.270946 0.00231584 0)
(0.270026 0.00332826 0)
(0.294389 -0.00884215 0)
(0.273753 0.00413854 0)
(0.279905 0.00500613 0)
(0.27258 -0.00641755 0)
(0.274255 0.00411134 0)
(0.28364 -0.00227353 0)
(0.284411 -0.00325073 0)
(0.275606 0.00526018 0)
(0.288201 -0.00277419 0)
(0.277636 -0.002503 0)
(0.289605 0.00418614 0)
(0.280921 -0.00422936 0)
(0.297992 -0.000104286 0)
(0.276164 0.00146065 0)
(0.319755 -0.00278108 0)
(0.276131 -0.00482093 0)
(0.429113 0.00170935 0)
(0.450861 -0.00478628 0)
(0.421845 0.00446953 0)
(0.436464 0.00419976 0)
(0.462732 -0.0150087 0)
(0.418527 0.00809201 0)
(0.459518 0.00713151 0)
(0.428498 -0.0103583 0)
(0.431505 0.00671083 0)
(0.456235 -0.00488029 0)
(0.441406 -0.00402619 0)
(0.437069 0.0081052 0)
(0.461717 -0.00469703 0)
(0.431021 -0.00374445 0)
(0.456522 0.00676407 0)
(0.449698 -0.00739066 0)
(0.451633 9.46193e-06 0)
(0.450169 0.00285301 0)
(0.476296 -0.0089249 0)
(0.447545 -0.00229139 0)
(0.562652 0.00182926 0)
(0.603133 -0.00620489 0)
(0.552 0.00723563 0)
(0.575349 0.0037028 0)
(0.622757 -0.0190585 0)
(0.536822 0.0117315 0)
(0.618616 0.00838269 0)
(0.573155 -0.0117966 0)
(0.559533 0.00826805 0)
(0.6116 -0.00765261 0)
(0.578751 -0.00367433 0)
(0.576041 0.00971029 0)
(0.615057 -0.00594315 0)
(0.571949 -0.00382157 0)
(0.590774 0.00748151 0)
(0.609578 -0.00868496 0)
(0.579013 -0.000336358 0)
(0.599791 0.00360302 0)
(0.617353 -0.0131538 0)
(0.590851 0.000475019 0)
(0.673852 0.00137962 0)
(0.734493 -0.00762831 0)
(0.67322 0.0126645 0)
(0.673306 -0.0010459 0)
(0.766522 -0.0223236 0)
(0.641353 0.0172088 0)
(0.737986 0.00544738 0)
(0.711983 -0.00998501 0)
(0.660628 0.0099987 0)
(0.735857 -0.0128638 0)
(0.697764 -0.00127618 0)
(0.686551 0.0100846 0)
(0.7355 -0.0088929 0)
(0.700027 -0.00114817 0)
(0.694716 0.00667592 0)
(0.740949 -0.0106171 0)
(0.692504 0.00141159 0)
(0.715219 0.00282319 0)
(0.734781 -0.0175149 0)
(0.711266 0.00447392 0)
(0.768895 0.0011495 0)
(0.83308 -0.0115347 0)
(0.790179 0.0220567 0)
(0.749703 -0.00682245 0)
(0.8726 -0.0288318 0)
(0.742587 0.0260557 0)
(0.818017 -0.00139171 0)
(0.827741 -0.00854776 0)
(0.752074 0.0146127 0)
(0.828328 -0.0203643 0)
(0.797598 0.00197354 0)
(0.777102 0.0113058 0)
(0.820667 -0.0146447 0)
(0.803537 0.00229927 0)
(0.779322 0.00640024 0)
(0.836473 -0.014512 0)
(0.78922 0.00475645 0)
(0.805709 0.00196466 0)
(0.82547 -0.0217612 0)
(0.80596 0.00768021 0)
(0.851663 0.00199148 0)
(0.901381 -0.0177713 0)
(0.885654 0.0320674 0)
(0.824574 -0.00999198 0)
(0.943618 -0.0377035 0)
(0.834134 0.0372521 0)
(0.879015 -0.00861238 0)
(0.910168 -0.00920835 0)
(0.833909 0.0211688 0)
(0.899035 -0.0280798 0)
(0.87776 0.00493607 0)
(0.854862 0.0142277 0)
(0.886206 -0.020792 0)
(0.881666 0.00544675 0)
(0.85014 0.00704935 0)
(0.904592 -0.0195824 0)
(0.865375 0.00847141 0)
(0.8769 0.00106935 0)
(0.895088 -0.0253853 0)
(0.877999 0.0102683 0)
(0.918857 0.00349363 0)
(0.949456 -0.0242383 0)
(0.951595 0.0403383 0)
(0.894026 -0.0108517 0)
(0.988428 -0.0465636 0)
(0.907268 0.0484828 0)
(0.93022 -0.0144012 0)
(0.963731 -0.0107779 0)
(0.901358 0.0278906 0)
(0.949897 -0.0349054 0)
(0.936764 0.00721416 0)
(0.917205 0.0177647 0)
(0.937549 -0.0260018 0)
(0.938659 0.00812662 0)
(0.908288 0.0085214 0)
(0.952844 -0.0246641 0)
(0.921659 0.0121385 0)
(0.930697 -3.45165e-05 0)
(0.944993 -0.0282584 0)
(0.930007 0.0122401 0)
(0.967064 0.00493581 0)
(0.981017 -0.0292856 0)
(0.990218 0.0460264 0)
(0.949692 -0.0104736 0)
(1.01073 -0.0535459 0)
(0.958626 0.0577808 0)
(0.96943 -0.0182544 0)
(0.992397 -0.0123412 0)
(0.952247 0.0334814 0)
(0.980802 -0.0398916 0)
(0.974101 0.00890464 0)
(0.960885 0.0208082 0)
(0.971923 -0.0298467 0)
(0.97508 0.010058 0)
(0.951412 0.0103529 0)
(0.983421 -0.0288271 0)
(0.958814 0.0154446 0)
(0.968251 -0.00117404 0)
(0.975172 -0.0300037 0)
(0.96342 0.0136943 0)
(0.995076 0.00581664 0)
(0.995285 -0.0320154 0)
(1.00498 0.048734 0)
(0.987165 -0.00967432 0)
(1.01181 -0.0573134 0)
(0.98821 0.0636628 0)
(0.992968 -0.0198464 0)
(0.99837 -0.013349 0)
(0.985231 0.0368622 0)
(0.992291 -0.0422385 0)
(0.990748 0.0100002 0)
(0.985262 0.0226982 0)
(0.98764 -0.0318509 0)
(0.991211 0.0110784 0)
(0.977084 0.0118124 0)
(0.996154 -0.0314244 0)
(0.976626 0.0178557 0)
(0.989727 -0.0022497 0)
(0.985518 -0.0302931 0)
(0.979432 0.0144302 0)
(1.00267 0.00592339 0)
(0.990662 -0.0320233 0)
(0.998339 0.0483471 0)
(1.00439 -0.00902779 0)
(0.992332 -0.0569775 0)
(0.996884 0.0649127 0)
(0.998175 -0.0191398 0)
(0.983247 -0.0131369 0)
(0.999327 0.0373231 0)
(0.98456 -0.0414984 0)
(0.987792 0.0104148 0)
(0.990476 0.0230322 0)
(0.984593 -0.0316976 0)
(0.987891 0.0111418 0)
(0.984319 0.0123389 0)
(0.990551 -0.0319442 0)
(0.974941 0.0189781 0)
(0.994506 -0.00321715 0)
(0.975392 -0.0289061 0)
(0.97905 0.0140223 0)
(0.989856 0.00524441 0)
(0.965735 -0.0293248 0)
(0.972201 0.0450928 0)
(1.00003 -0.00868855 0)
(0.952662 -0.0525657 0)
(0.985632 0.0611594 0)
(0.982738 -0.0165563 0)
(0.94836 -0.0116873 0)
(0.993622 0.0346309 0)
(0.957334 -0.0378964 0)
(0.966287 0.0098313 0)
(0.976596 0.021848 0)
(0.962914 -0.0293928 0)
(0.965797 0.0102719 0)
(0.972929 0.0117554 0)
(0.965664 -0.030083 0)
(0.954411 0.0185265 0)
(0.981043 -0.00387511 0)
(0.944568 -0.0259267 0)
(0.963246 0.0122212 0)
(0.95673 0.0040139 0)
(0.918884 -0.0244154 0)
(0.928962 0.0392262 0)
(0.972478 -0.00830081 0)
(0.893124 -0.0450956 0)
(0.955831 0.053138 0)
(0.943692 -0.0123505 0)
(0.895801 -0.00969369 0)
(0.967356 0.0293165 0)
(0.910463 -0.0320815 0)
(0.927937 0.00819407 0)
(0.943722 0.019359 0)
(0.922468 -0.0253575 0)
(0.925727 0.0085823 0)
(0.94239 0.0103917 0)
(0.920322 -0.0260806 0)
(0.916962 0.0163906 0)
(0.946905 -0.00394545 0)
(0.895182 -0.0219879 0)
(0.932306 0.00915591 0)
(0.902639 0.00268661 0)
(0.848743 -0.0181758 0)
(0.87293 0.0309965 0)
(0.918747 -0.00721773 0)
(0.815591 -0.036103 0)
(0.909084 0.0422258 0)
(0.877777 -0.00676711 0)
(0.830355 -0.00801928 0)
(0.920666 0.0223185 0)
(0.844937 -0.0249766 0)
(0.875547 0.00536162 0)
(0.891585 0.0160943 0)
(0.862829 -0.0202498 0)
(0.869089 0.00614104 0)
(0.891126 0.00881265 0)
(0.854954 -0.0207914 0)
(0.86526 0.0127549 0)
(0.890444 -0.00322916 0)
(0.831792 -0.0180777 0)
(0.884527 0.00536773 0)
(0.824439 0.00195223 0)
(0.758415 -0.0121127 0)
(0.80781 0.0211124 0)
(0.83341 -0.00457153 0)
(0.726657 -0.0276981 0)
(0.844276 0.0303682 0)
(0.784905 -0.000275413 0)
(0.760139 -0.00800317 0)
(0.852439 0.0150785 0)
(0.762817 -0.0176863 0)
(0.809843 0.00140993 0)
(0.816938 0.0132166 0)
(0.783636 -0.0148258 0)
(0.796606 0.00316514 0)
(0.817291 0.0076079 0)
(0.772766 -0.0154906 0)
(0.799732 0.00813964 0)
(0.81133 -0.00183217 0)
(0.756775 -0.0148116 0)
(0.815297 0.0018172 0)
(0.718878 0.00223302 0)
(0.658468 -0.00833002 0)
(0.724593 0.0119861 0)
(0.714193 0.000161608 0)
(0.636065 -0.0222629 0)
(0.752535 0.0200039 0)
(0.673854 0.00547279 0)
(0.685912 -0.0102923 0)
(0.75337 0.00987947 0)
(0.664983 -0.0112996 0)
(0.722502 -0.00224888 0)
(0.714017 0.011839 0)
(0.686106 -0.0101468 0)
(0.705676 0.000126275 0)
(0.718981 0.00696456 0)
(0.675657 -0.0112546 0)
(0.71376 0.0037095 0)
(0.707346 0.000187085 0)
(0.666622 -0.0122225 0)
(0.718354 -0.000524233 0)
(0.590048 0.00258252 0)
(0.551049 -0.00682323 0)
(0.604609 0.00700379 0)
(0.577012 0.00410156 0)
(0.540312 -0.0193505 0)
(0.622251 0.013244 0)
(0.555955 0.00813739 0)
(0.586584 -0.0118017 0)
(0.615349 0.0081128 0)
(0.552073 -0.00676544 0)
(0.601791 -0.00415712 0)
(0.585334 0.0110781 0)
(0.571418 -0.00718897 0)
(0.588774 -0.00191245 0)
(0.593615 0.00669502 0)
(0.560589 -0.00819105 0)
(0.596812 0.000898866 0)
(0.578348 0.00224841 0)
(0.556493 -0.0101834 0)
(0.59005 -0.00128493 0)
(0.443968 0.00222868 0)
(0.422965 -0.00509618 0)
(0.453344 0.00454508 0)
(0.437271 0.00425426 0)
(0.416023 -0.0149967 0)
(0.4593 0.00911987 0)
(0.427428 0.00743698 0)
(0.446838 -0.00985734 0)
(0.455287 0.00673726 0)
(0.422342 -0.00419064 0)
(0.449431 -0.00405747 0)
(0.440122 0.00892925 0)
(0.43496 -0.00508305 0)
(0.442837 -0.00218769 0)
(0.445277 0.00574524 0)
(0.425315 -0.00583376 0)
(0.44856 -0.000208149 0)
(0.431646 0.00292848 0)
(0.422129 -0.00785981 0)
(0.43466 -0.000944508 0)
(0.28074 0.00144979 0)
(0.270064 -0.00291612 0)
(0.284548 0.00229786 0)
(0.283236 0.00318262 0)
(0.260542 -0.00894804 0)
(0.280043 0.00451322 0)
(0.278088 0.00538439 0)
(0.281037 -0.00614865 0)
(0.285155 0.00399632 0)
(0.271135 -0.00202252 0)
(0.277106 -0.00324786 0)
(0.278934 0.00555561 0)
(0.276622 -0.00280635 0)
(0.275732 -0.00194954 0)
(0.280234 0.00381635 0)
(0.269642 -0.00342136 0)
(0.277741 -0.000614087 0)
(0.270838 0.00249175 0)
(0.264022 -0.00464661 0)
(0.262988 -0.000527742 0)
(0.0995574 0.000525913 0)
(0.0957694 -0.000840754 0)
(0.0991269 0.000566635 0)
(0.108184 0.00112333 0)
(0.0884103 -0.00277471 0)
(0.0882673 0.00115451 0)
(0.104191 0.00191241 0)
(0.0998439 -0.00200709 0)
(0.10073 0.00122046 0)
(0.0994876 -0.000586877 0)
(0.092097 -0.00124932 0)
(0.0986352 0.00178117 0)
(0.100445 -0.000893149 0)
(0.0934786 -0.000792155 0)
(0.0988676 0.00127858 0)
(0.0957788 -0.00107391 0)
(0.0928369 -0.000283181 0)
(0.0953721 0.000978726 0)
(0.0905839 -0.00139837 0)
(0.0845161 -0.000104065 0)
(0.192408 -0.00369007 0)
(0.130095 0.0016302 0)
(0.189243 -0.014085 0)
(0.29809 0.0104094 0)
(0.0367569 0.00379487 0)
(0.509966 -0.0464343 0)
(0.200558 0.000871216 0)
(0.337215 -0.0676302 0)
(0.415145 -0.0375851 0)
(0.291599 -0.00212841 0)
(0.408973 0.0264019 0)
(0.404174 0.00162201 0)
(0.67294 -0.184305 0)
(0.573656 -0.0247122 0)
(0.554531 0.0362919 0)
(0.871875 -0.17026 0)
(0.86512 -0.219951 0)
(0.633697 -0.0850229 0)
(0.82171 -0.147912 0)
(0.850677 -0.326104 0)
(0.705293 -0.3856 0)
(0.534755 -0.317612 0)
(0.446193 -0.16103 0)
(0.260077 -0.228019 0)
(0.367784 -0.247183 0)
(0.516605 -0.0587079 0)
(0.523508 0.0392578 0)
(0.517102 0.157009 0)
(0.56059 0.279232 0)
(0.585878 0.322322 0)
(0.569052 0.308429 0)
(0.56233 0.362805 0)
(0.462231 0.287064 0)
(0.540451 -0.0347359 0)
(0.565128 -0.177834 0)
(0.459942 -0.236278 0)
(0.394253 -0.304619 0)
(0.455405 -0.239405 0)
(0.474491 -0.106983 0)
(0.52029 0.0707719 0)
(0.566432 0.21403 0)
(0.547956 0.237168 0)
(0.514076 0.222091 0)
(0.452419 0.227582 0)
(0.48554 0.171581 0)
(0.493187 0.076347 0)
(0.517523 -0.0573451 0)
(0.57761 -0.188858 0)
(0.569863 -0.241262 0)
(0.516772 -0.178221 0)
(0.495048 -0.0213997 0)
(0.511719 0.0893948 0)
(0.536059 0.106294 0)
(0.516791 0.0797582 0)
(0.525061 -0.00238397 0)
(0.546208 -0.098572 0)
(0.538497 -0.143997 0)
(0.512303 -0.125544 0)
(0.516203 -0.0392926 0)
(0.54099 0.0621233 0)
(0.541872 0.109469 0)
(0.518758 0.102087 0)
(0.492619 0.0709052 0)
(0.481095 0.0320928 0)
(0.482956 -0.00312255 0)
(0.486212 -0.0235083 0)
(0.484514 -0.0274269 0)
(0.477662 -0.0217564 0)
(0.467441 -0.0139649 0)
(0.455983 -0.00789794 0)
(0.445035 -0.00425806 0)
(0.435601 -0.00240834 0)
(0.428038 -0.00155722 0)
(0.422307 -0.00115977 0)
(0.418169 -0.000929796 0)
(0.41531 -0.000748491 0)
(0.413416 -0.000582109 0)
(0.412213 -0.000430674 0)
(0.411477 -0.000301854 0)
(0.411045 -0.000200512 0)
(0.4108 -0.000126504 0)
(0.410666 -7.5992e-05 0)
(0.410595 -4.35858e-05 0)
(0.410559 -2.39174e-05 0)
(0.410541 -1.25889e-05 0)
(0.410532 -6.36546e-06 0)
(0.410528 -3.09794e-06 0)
(0.410526 -1.45519e-06 0)
(0.410526 -6.6048e-07 0)
(0.410525 -2.87872e-07 0)
(0.410525 -1.27301e-07 0)
(0.410525 -4.51843e-08 0)
(0.410525 -2.47855e-08 0)
(0.410525 -3.62668e-10 0)
(0.410525 -9.86936e-09 0)
(0.410525 6.51004e-09 0)
(0.410525 -4.04246e-09 0)
(0.410525 3.18017e-09 0)
(0.410525 -1.6624e-09 0)
(0.410525 8.97045e-10 0)
(0.347622 -0.00674396 0)
(0.31091 0.00293384 0)
(0.297255 -0.0238188 0)
(0.464573 0.013071 0)
(0.211607 -0.00314446 0)
(0.596166 -0.0652766 0)
(0.373885 0.00410465 0)
(0.467357 -0.066452 0)
(0.536908 -0.0403598 0)
(0.412777 -0.00161236 0)
(0.473047 0.0175866 0)
(0.514006 -0.0185259 0)
(0.757422 -0.196429 0)
(0.68433 -0.0425897 0)
(0.675665 0.0185576 0)
(0.941496 -0.176602 0)
(0.900057 -0.211937 0)
(0.701638 -0.0851671 0)
(0.859776 -0.154181 0)
(0.833873 -0.312192 0)
(0.665957 -0.361695 0)
(0.487044 -0.285627 0)
(0.366947 -0.133835 0)
(0.22237 -0.235596 0)
(0.303555 -0.26716 0)
(0.473054 -0.0663456 0)
(0.481156 0.0375696 0)
(0.463472 0.155594 0)
(0.514143 0.272155 0)
(0.5401 0.318445 0)
(0.550858 0.306533 0)
(0.55518 0.369994 0)
(0.465965 0.288774 0)
(0.551192 -0.0370185 0)
(0.56767 -0.171967 0)
(0.456307 -0.226122 0)
(0.380533 -0.304573 0)
(0.429506 -0.243969 0)
(0.449828 -0.109149 0)
(0.490422 0.0657699 0)
(0.537006 0.210146 0)
(0.533265 0.238068 0)
(0.512132 0.227564 0)
(0.46237 0.228299 0)
(0.505794 0.168881 0)
(0.510889 0.0759828 0)
(0.543955 -0.0620527 0)
(0.598672 -0.193298 0)
(0.57875 -0.237735 0)
(0.514652 -0.17173 0)
(0.486207 -0.0199707 0)
(0.507754 0.0860431 0)
(0.532919 0.105601 0)
(0.517108 0.0805967 0)
(0.531461 -0.00398198 0)
(0.546583 -0.0995868 0)
(0.530052 -0.142189 0)
(0.499196 -0.123072 0)
(0.499256 -0.0397219 0)
(0.524277 0.0603511 0)
(0.530035 0.109728 0)
(0.513233 0.10453 0)
(0.493283 0.0732119 0)
(0.486678 0.0328014 0)
(0.490722 -0.00339589 0)
(0.493444 -0.0235712 0)
(0.489898 -0.0267981 0)
(0.481177 -0.0205636 0)
(0.469621 -0.0125051 0)
(0.457369 -0.00642601 0)
(0.445983 -0.00293724 0)
(0.436301 -0.00131614 0)
(0.428583 -0.000708179 0)
(0.422739 -0.000532458 0)
(0.418507 -0.000486653 0)
(0.415566 -0.00044821 0)
(0.4136 -0.000386581 0)
(0.412334 -0.000308183 0)
(0.411549 -0.000227948 0)
(0.411079 -0.000157524 0)
(0.410808 -0.000102369 0)
(0.410657 -6.29005e-05 0)
(0.410575 -3.67174e-05 0)
(0.410532 -2.0427e-05 0)
(0.410511 -1.0869e-05 0)
(0.4105 -5.5436e-06 0)
(0.410495 -2.71568e-06 0)
(0.410493 -1.28345e-06 0)
(0.410492 -5.84398e-07 0)
(0.410491 -2.56431e-07 0)
(0.410491 -1.11948e-07 0)
(0.410491 -4.29963e-08 0)
(0.410491 -1.98954e-08 0)
(0.410491 -2.96263e-09 0)
(0.410491 -6.42144e-09 0)
(0.410491 4.13247e-09 0)
(0.410491 -2.99395e-09 0)
(0.410491 2.56854e-09 0)
(0.410491 -8.61606e-10 0)
(0.410491 8.6575e-10 0)
(0.493631 -0.011978 0)
(0.49326 0.00361592 0)
(0.435463 -0.0267826 0)
(0.611816 0.00574096 0)
(0.419065 -0.0022803 0)
(0.672457 -0.0762763 0)
(0.538717 0.000975213 0)
(0.57362 -0.0644318 0)
(0.652198 -0.0455628 0)
(0.549495 -0.000207196 0)
(0.571141 0.0125016 0)
(0.642637 -0.0349687 0)
(0.842966 -0.206139 0)
(0.779568 -0.0621268 0)
(0.778981 0.00495247 0)
(0.99506 -0.175092 0)
(0.920411 -0.201162 0)
(0.753036 -0.0860092 0)
(0.878089 -0.155254 0)
(0.803165 -0.293316 0)
(0.619992 -0.333739 0)
(0.434373 -0.25077 0)
(0.291628 -0.107982 0)
(0.190785 -0.245415 0)
(0.225426 -0.285073 0)
(0.419285 -0.0756773 0)
(0.43125 0.036015 0)
(0.408381 0.154464 0)
(0.467064 0.264394 0)
(0.490658 0.311926 0)
(0.52956 0.302219 0)
(0.543212 0.375782 0)
(0.467306 0.287793 0)
(0.560075 -0.0390687 0)
(0.566845 -0.164533 0)
(0.451067 -0.214961 0)
(0.364252 -0.302774 0)
(0.401077 -0.247463 0)
(0.421029 -0.110864 0)
(0.457898 0.0611498 0)
(0.504689 0.205012 0)
(0.515209 0.236833 0)
(0.506119 0.231201 0)
(0.469924 0.227205 0)
(0.522534 0.1656 0)
(0.525921 0.0750707 0)
(0.568898 -0.0670549 0)
(0.616169 -0.196501 0)
(0.58273 -0.232389 0)
(0.508782 -0.163689 0)
(0.474955 -0.0184193 0)
(0.500814 0.0821769 0)
(0.525674 0.104586 0)
(0.514344 0.0806499 0)
(0.534392 -0.00565669 0)
(0.542794 -0.0995904 0)
(0.517594 -0.139389 0)
(0.482581 -0.119951 0)
(0.479191 -0.0398738 0)
(0.504154 0.0582297 0)
(0.514601 0.109172 0)
(0.504266 0.106064 0)
(0.490882 0.0747546 0)
(0.489463 0.0330256 0)
(0.495671 -0.00377036 0)
(0.497727 -0.0234633 0)
(0.492288 -0.0259215 0)
(0.481802 -0.0191742 0)
(0.46916 -0.0109302 0)
(0.456465 -0.00490159 0)
(0.445039 -0.00159838 0)
(0.435506 -0.000221926 0)
(0.427993 0.000137312 0)
(0.422341 9.10285e-05 0)
(0.418259 -4.55443e-05 0)
(0.415418 -0.000147852 0)
(0.413508 -0.000189404 0)
(0.412269 -0.000183276 0)
(0.41149 -0.000151553 0)
(0.411018 -0.000112395 0)
(0.410741 -7.66011e-05 0)
(0.410584 -4.8674e-05 0)
(0.410498 -2.91161e-05 0)
(0.410453 -1.64933e-05 0)
(0.410429 -8.89569e-06 0)
(0.410417 -4.58386e-06 0)
(0.410412 -2.26121e-06 0)
(0.410409 -1.07523e-06 0)
(0.410408 -4.91551e-07 0)
(0.410407 -2.17388e-07 0)
(0.410407 -9.33158e-08 0)
(0.410407 -3.85668e-08 0)
(0.410407 -1.47255e-08 0)
(0.410407 -5.7995e-09 0)
(0.410407 -1.98832e-09 0)
(0.410407 8.81403e-10 0)
(0.410407 -3.84266e-10 0)
(0.410407 7.06557e-10 0)
(0.410407 6.4113e-10 0)
(0.410407 9.61169e-10 0)
(0.618015 -0.0166566 0)
(0.646233 0.00186973 0)
(0.576128 -0.0237414 0)
(0.718901 -0.00863185 0)
(0.596441 0.00064779 0)
(0.74472 -0.0794653 0)
(0.676569 -0.00672917 0)
(0.679892 -0.056905 0)
(0.740716 -0.0518387 0)
(0.674314 -0.000194881 0)
(0.681578 0.0103529 0)
(0.763242 -0.0487813 0)
(0.915288 -0.213881 0)
(0.848252 -0.0800151 0)
(0.85536 -0.00617092 0)
(1.02801 -0.168438 0)
(0.927402 -0.187946 0)
(0.786104 -0.0867241 0)
(0.877243 -0.15203 0)
(0.760711 -0.27015 0)
(0.568901 -0.302749 0)
(0.378199 -0.214533 0)
(0.222974 -0.0844763 0)
(0.156138 -0.25349 0)
(0.144562 -0.299858 0)
(0.357634 -0.0867485 0)
(0.373108 0.034081 0)
(0.350996 0.153209 0)
(0.419203 0.256213 0)
(0.438364 0.303067 0)
(0.505687 0.295601 0)
(0.526607 0.380007 0)
(0.466636 0.283898 0)
(0.566862 -0.0407065 0)
(0.56271 -0.155544 0)
(0.444551 -0.202689 0)
(0.34549 -0.299062 0)
(0.370513 -0.249719 0)
(0.388295 -0.112249 0)
(0.422536 0.0567774 0)
(0.469561 0.19876 0)
(0.494067 0.233714 0)
(0.495923 0.232978 0)
(0.475151 0.224313 0)
(0.535412 0.161799 0)
(0.538304 0.0734469 0)
(0.591867 -0.0722699 0)
(0.629607 -0.198217 0)
(0.58162 -0.225232 0)
(0.499239 -0.154327 0)
(0.461714 -0.0168436 0)
(0.490984 0.0779709 0)
(0.514452 0.10325 0)
(0.508696 0.0798683 0)
(0.533763 -0.00733068 0)
(0.534877 -0.0985052 0)
(0.501364 -0.135687 0)
(0.462677 -0.116248 0)
(0.456223 -0.0396714 0)
(0.480842 0.055823 0)
(0.495728 0.107812 0)
(0.491941 0.106657 0)
(0.48542 0.0754741 0)
(0.489383 0.0327666 0)
(0.49768 -0.00422169 0)
(0.498925 -0.0231682 0)
(0.491573 -0.0248016 0)
(0.47947 -0.0176126 0)
(0.466021 -0.00928007 0)
(0.453247 -0.00337176 0)
(0.442184 -0.000292851 0)
(0.433197 0.000825868 0)
(0.426249 0.000937308 0)
(0.421092 0.000676476 0)
(0.417398 0.000367244 0)
(0.414835 0.000133482 0)
(0.413109 -3.77996e-06 0)
(0.41198 -6.46654e-05 0)
(0.411264 -7.81673e-05 0)
(0.410823 -6.84501e-05 0)
(0.410561 -5.11371e-05 0)
(0.41041 -3.43974e-05 0)
(0.410326 -2.13699e-05 0)
(0.410281 -1.24228e-05 0)
(0.410257 -6.82401e-06 0)
(0.410245 -3.56215e-06 0)
(0.410239 -1.77234e-06 0)
(0.410237 -8.48939e-07 0)
(0.410235 -3.88778e-07 0)
(0.410235 -1.71384e-07 0)
(0.410235 -7.48189e-08 0)
(0.410235 -3.07387e-08 0)
(0.410234 -1.15828e-08 0)
(0.410234 -4.8221e-09 0)
(0.410234 -2.41985e-11 0)
(0.410234 -3.05464e-10 0)
(0.410234 7.08432e-11 0)
(0.410234 -1.62286e-10 0)
(0.410234 1.60974e-09 0)
(0.410234 9.72957e-10 0)
(0.722838 -0.0191216 0)
(0.760826 -0.00385259 0)
(0.700791 -0.0167802 0)
(0.801378 -0.0234171 0)
(0.729181 0.00300247 0)
(0.811905 -0.0757701 0)
(0.782352 -0.0180346 0)
(0.775903 -0.0469 0)
(0.809356 -0.0568902 0)
(0.776015 -0.00524662 0)
(0.779777 0.00767072 0)
(0.86066 -0.0584305 0)
(0.970008 -0.216188 0)
(0.892778 -0.0943013 0)
(0.906344 -0.0159545 0)
(1.04126 -0.157802 0)
(0.923352 -0.172275 0)
(0.804837 -0.0865304 0)
(0.860661 -0.144291 0)
(0.708267 -0.243078 0)
(0.5137 -0.269645 0)
(0.32058 -0.177988 0)
(0.163155 -0.0636084 0)
(0.118079 -0.256007 0)
(0.0728886 -0.314078 0)
(0.292148 -0.0991449 0)
(0.307847 0.0317292 0)
(0.29187 0.150956 0)
(0.370207 0.247316 0)
(0.383672 0.292054 0)
(0.479297 0.287166 0)
(0.505168 0.382179 0)
(0.464169 0.277146 0)
(0.571191 -0.0419681 0)
(0.555476 -0.145217 0)
(0.436855 -0.189422 0)
(0.324709 -0.293413 0)
(0.338257 -0.250705 0)
(0.352137 -0.113142 0)
(0.384389 0.0525327 0)
(0.431862 0.191294 0)
(0.470249 0.228731 0)
(0.481561 0.23274 0)
(0.478118 0.219519 0)
(0.54409 0.157521 0)
(0.548094 0.0708113 0)
(0.612359 -0.0776312 0)
(0.638521 -0.198222 0)
(0.575299 -0.216302 0)
(0.486145 -0.143975 0)
(0.446863 -0.0153385 0)
(0.478295 0.0736422 0)
(0.49945 0.101584 0)
(0.500419 0.0782082 0)
(0.529522 -0.00886725 0)
(0.522952 -0.0963526 0)
(0.481655 -0.13113 0)
(0.439715 -0.112023 0)
(0.43055 -0.0391827 0)
(0.454582 0.0531703 0)
(0.473614 0.105678 0)
(0.476387 0.106292 0)
(0.476959 0.0753276 0)
(0.486433 0.0320165 0)
(0.496668 -0.00473522 0)
(0.496939 -0.0226755 0)
(0.487696 -0.0234493 0)
(0.474175 -0.0159087 0)
(0.460235 -0.00759653 0)
(0.447763 -0.00188607 0)
(0.437464 0.000928371 0)
(0.42941 0.00178012 0)
(0.42337 0.00165119 0)
(0.418992 0.00119108 0)
(0.415907 0.000726748 0)
(0.413783 0.000377774 0)
(0.412353 0.000157889 0)
(0.411411 3.94765e-05 0)
(0.410805 -1.2965e-05 0)
(0.410427 -2.88425e-05 0)
(0.410199 -2.78261e-05 0)
(0.410064 -2.11185e-05 0)
(0.409989 -1.40524e-05 0)
(0.409947 -8.52047e-06 0)
(0.409925 -4.81113e-06 0)
(0.409914 -2.55707e-06 0)
(0.409908 -1.2855e-06 0)
(0.409905 -6.20903e-07 0)
(0.409904 -2.84449e-07 0)
(0.409904 -1.2521e-07 0)
(0.409903 -5.56223e-08 0)
(0.409903 -2.2573e-08 0)
(0.409903 -8.22409e-09 0)
(0.409903 -3.92865e-09 0)
(0.409903 7.32885e-10 0)
(0.409903 1.87804e-10 0)
(0.409903 -4.42174e-10 0)
(0.409903 2.60933e-10 0)
(0.409903 1.59523e-09 0)
(0.409903 9.9198e-10 0)
(0.81071 -0.0196936 0)
(0.844577 -0.0109752 0)
(0.79967 -0.0095499 0)
(0.866184 -0.0351259 0)
(0.827571 0.00316077 0)
(0.869762 -0.0676496 0)
(0.860972 -0.0312579 0)
(0.850876 -0.0371069 0)
(0.86437 -0.0580902 0)
(0.854084 -0.0143421 0)
(0.852236 0.00424346 0)
(0.931044 -0.0647636 0)
(1.00301 -0.214545 0)
(0.914547 -0.105559 0)
(0.935781 -0.0248573 0)
(1.03639 -0.144637 0)
(0.90748 -0.155216 0)
(0.808893 -0.0846676 0)
(0.827721 -0.132386 0)
(0.646613 -0.21328 0)
(0.455901 -0.235644 0)
(0.263262 -0.142476 0)
(0.113478 -0.0454738 0)
(0.0833846 -0.253366 0)
(0.014693 -0.328345 0)
(0.226342 -0.11219 0)
(0.237232 0.0290613 0)
(0.230746 0.147697 0)
(0.319612 0.237986 0)
(0.327887 0.279192 0)
(0.450955 0.277217 0)
(0.479127 0.381889 0)
(0.460057 0.267311 0)
(0.572672 -0.042794 0)
(0.545452 -0.133607 0)
(0.428055 -0.175221 0)
(0.302837 -0.285731 0)
(0.304674 -0.250266 0)
(0.313358 -0.11335 0)
(0.343632 0.0484301 0)
(0.391655 0.182792 0)
(0.44399 0.222204 0)
(0.463102 0.230481 0)
(0.478925 0.212946 0)
(0.548308 0.152806 0)
(0.555432 0.0671283 0)
(0.62986 -0.0829132 0)
(0.642479 -0.196287 0)
(0.563713 -0.205691 0)
(0.469655 -0.13298 0)
(0.430645 -0.0139133 0)
(0.462683 0.06937 0)
(0.480939 0.0995472 0)
(0.489744 0.0756878 0)
(0.521671 -0.01017 0)
(0.507226 -0.0931425 0)
(0.458805 -0.125786 0)
(0.413963 -0.107395 0)
(0.402358 -0.0384095 0)
(0.425613 0.0503212 0)
(0.448482 0.102807 0)
(0.457776 0.104957 0)
(0.465621 0.0743006 0)
(0.480656 0.0307676 0)
(0.492591 -0.00529311 0)
(0.491717 -0.0219781 0)
(0.480662 -0.0218829 0)
(0.465986 -0.0140998 0)
(0.451911 -0.00592556 0)
(0.440133 -0.000496739 0)
(0.43099 0.00201746 0)
(0.42423 0.00259721 0)
(0.419408 0.00224175 0)
(0.416055 0.00160549 0)
(0.413762 0.00101115 0)
(0.412208 0.000569564 0)
(0.411162 0.000285101 0)
(0.410466 0.000122276 0)
(0.41001 3.97041e-05 0)
(0.409718 3.75665e-06 0)
(0.409537 -8.25344e-06 0)
(0.409428 -9.74771e-06 0)
(0.409365 -7.67034e-06 0)
(0.40933 -5.05979e-06 0)
(0.409311 -2.9995e-06 0)
(0.409301 -1.64064e-06 0)
(0.409296 -8.36585e-07 0)
(0.409294 -4.08874e-07 0)
(0.409293 -1.87026e-07 0)
(0.409292 -8.16063e-08 0)
(0.409292 -3.72151e-08 0)
(0.409292 -1.45423e-08 0)
(0.409292 -5.08202e-09 0)
(0.409292 -2.80712e-09 0)
(0.409292 1.28526e-09 0)
(0.409292 1.52117e-10 0)
(0.409292 -8.51636e-10 0)
(0.409292 4.33288e-10 0)
(0.409292 1.61195e-09 0)
(0.409292 1.0095e-09 0)
(0.882404 -0.0193786 0)
(0.905555 -0.0176715 0)
(0.875681 -0.00342084 0)
(0.916623 -0.0424089 0)
(0.898145 0.000588438 0)
(0.917121 -0.0582106 0)
(0.917639 -0.0431621 0)
(0.903787 -0.0290415 0)
(0.907345 -0.0561135 0)
(0.909267 -0.0240685 0)
(0.898752 0.00110783 0)
(0.976277 -0.0686044 0)
(1.01517 -0.208439 0)
(0.918767 -0.113332 0)
(0.947448 -0.0328121 0)
(1.01481 -0.129454 0)
(0.881239 -0.137077 0)
(0.797914 -0.0803444 0)
(0.779738 -0.116368 0)
(0.578423 -0.181659 0)
(0.39722 -0.201677 0)
(0.207286 -0.108866 0)
(0.0741884 -0.0301756 0)
(0.0555378 -0.249359 0)
(-0.0352415 -0.338502 0)
(0.16158 -0.124507 0)
(0.162708 0.0264266 0)
(0.169872 0.142246 0)
(0.267218 0.227312 0)
(0.271756 0.264783 0)
(0.420411 0.266054 0)
(0.448304 0.378692 0)
(0.454462 0.254677 0)
(0.570973 -0.0431301 0)
(0.532925 -0.120886 0)
(0.418225 -0.160187 0)
(0.280994 -0.276177 0)
(0.270031 -0.248415 0)
(0.272755 -0.112988 0)
(0.300625 0.0443174 0)
(0.349413 0.173089 0)
(0.415603 0.214117 0)
(0.440734 0.226014 0)
(0.477598 0.204595 0)
(0.547854 0.147602 0)
(0.560523 0.0623497 0)
(0.643882 -0.0879372 0)
(0.641111 -0.192258 0)
(0.546878 -0.193533 0)
(0.449922 -0.121648 0)
(0.413066 -0.0125769 0)
(0.443948 0.0653309 0)
(0.45926 0.0970736 0)
(0.476904 0.0723346 0)
(0.510253 -0.0111282 0)
(0.487971 -0.0889167 0)
(0.433185 -0.119732 0)
(0.385697 -0.102415 0)
(0.371824 -0.0373887 0)
(0.394162 0.0473106 0)
(0.420577 0.0992352 0)
(0.436316 0.102647 0)
(0.451587 0.0723772 0)
(0.47214 0.0290461 0)
(0.485431 -0.00585572 0)
(0.483255 -0.0210676 0)
(0.470548 -0.020128 0)
(0.455057 -0.0122285 0)
(0.441246 -0.00431931 0)
(0.430557 0.000747357 0)
(0.422937 0.00292889 0)
(0.417788 0.00323722 0)
(0.414435 0.00267713 0)
(0.412291 0.00189599 0)
(0.410916 0.00120375 0)
(0.410015 0.000697585 0)
(0.409406 0.000370469 0)
(0.408989 0.000178988 0)
(0.408703 7.68485e-05 0)
(0.40851 2.75031e-05 0)
(0.408385 6.45981e-06 0)
(0.408307 -9.5023e-07 0)
(0.40826 -2.60437e-06 0)
(0.408233 -2.2517e-06 0)
(0.408218 -1.50242e-06 0)
(0.40821 -8.7216e-07 0)
(0.408206 -4.55659e-07 0)
(0.408204 -2.27391e-07 0)
(0.408203 -1.03017e-07 0)
(0.408203 -4.37241e-08 0)
(0.408203 -2.1137e-08 0)
(0.408203 -7.51502e-09 0)
(0.408203 -2.23852e-09 0)
(0.408203 -1.86909e-09 0)
(0.408203 1.76034e-09 0)
(0.408203 9.53614e-11 0)
(0.408203 -9.53917e-10 0)
(0.408203 6.08577e-10 0)
(0.408203 1.5372e-09 0)
(0.408203 9.58546e-10 0)
(0.937158 -0.0191201 0)
(0.947474 -0.0222374 0)
(0.931545 0.00048405 0)
(0.95373 -0.0450666 0)
(0.945014 -0.00399526 0)
(0.952571 -0.0495149 0)
(0.954013 -0.0515548 0)
(0.936386 -0.0239669 0)
(0.936788 -0.0518245 0)
(0.940694 -0.0325286 0)
(0.922415 -0.00241791 0)
(0.999285 -0.0708645 0)
(1.00713 -0.199225 0)
(0.908428 -0.118706 0)
(0.942921 -0.0396949 0)
(0.977097 -0.112981 0)
(0.843853 -0.118623 0)
(0.770732 -0.0731908 0)
(0.71758 -0.0968982 0)
(0.505502 -0.149613 0)
(0.339197 -0.16874 0)
(0.153948 -0.0778864 0)
(0.0449084 -0.017054 0)
(0.0338959 -0.244028 0)
(-0.0831023 -0.342732 0)
(0.0973349 -0.135862 0)
(0.0857144 0.0239585 0)
(0.108081 0.135363 0)
(0.211985 0.215969 0)
(0.217545 0.249384 0)
(0.388325 0.253749 0)
(0.413081 0.372354 0)
(0.447844 0.23934 0)
(0.565961 -0.0431058 0)
(0.518303 -0.107298 0)
(0.407645 -0.144353 0)
(0.260299 -0.264895 0)
(0.234348 -0.245144 0)
(0.231051 -0.112112 0)
(0.255499 0.0402611 0)
(0.305378 0.162504 0)
(0.385126 0.204805 0)
(0.414807 0.219418 0)
(0.47418 0.194668 0)
(0.542659 0.141957 0)
(0.56371 0.0563997 0)
(0.653986 -0.092465 0)
(0.634095 -0.185993 0)
(0.524883 -0.179975 0)
(0.427044 -0.110295 0)
(0.3938 -0.0113248 0)
(0.42178 0.0616442 0)
(0.434818 0.0940812 0)
(0.462065 0.0682046 0)
(0.49536 -0.0116283 0)
(0.465555 -0.0837486 0)
(0.405208 -0.113044 0)
(0.355201 -0.0971032 0)
(0.339126 -0.0361658 0)
(0.36045 0.0441672 0)
(0.39016 0.0949999 0)
(0.412251 0.0993594 0)
(0.435108 0.0695607 0)
(0.460996 0.0268768 0)
(0.475189 -0.0063956 0)
(0.471611 -0.0199524 0)
(0.457524 -0.0182247 0)
(0.44164 -0.0103475 0)
(0.42852 -0.0028291 0)
(0.419305 0.00180125 0)
(0.413526 0.003622 0)
(0.410232 0.00366823 0)
(0.40851 0.00293461 0)
(0.407669 0.00204775 0)
(0.407258 0.00129556 0)
(0.407027 0.000756617 0)
(0.406861 0.000410967 0)
(0.406724 0.000207794 0)
(0.406608 9.73237e-05 0)
(0.406515 4.16525e-05 0)
(0.406447 1.58285e-05 0)
(0.406401 4.96338e-06 0)
(0.406371 9.48546e-07 0)
(0.406353 -2.15903e-07 0)
(0.406342 -3.88792e-07 0)
(0.406337 -2.89443e-07 0)
(0.406334 -1.62544e-07 0)
(0.406332 -8.63702e-08 0)
(0.406332 -3.73203e-08 0)
(0.406331 -1.3985e-08 0)
(0.406331 -8.51866e-09 0)
(0.406331 -1.90791e-09 0)
(0.406331 6.39015e-11 0)
(0.406331 -1.17342e-09 0)
(0.406331 2.07011e-09 0)
(0.406331 7.15249e-11 0)
(0.406331 -9.44487e-10 0)
(0.406331 7.33355e-10 0)
(0.406331 1.39393e-09 0)
(0.406331 8.72379e-10 0)
(0.973515 -0.0192543 0)
(0.970922 -0.0243555 0)
(0.967853 0.00179758 0)
(0.975999 -0.044512 0)
(0.969997 -0.00914198 0)
(0.974277 -0.0424168 0)
(0.970307 -0.0553419 0)
(0.95019 -0.0217525 0)
(0.951558 -0.0466829 0)
(0.948757 -0.0379545 0)
(0.927343 -0.00763699 0)
(1.00158 -0.072298 0)
(0.98041 -0.187365 0)
(0.885249 -0.121694 0)
(0.921055 -0.0446341 0)
(0.922721 -0.095446 0)
(0.794841 -0.0999977 0)
(0.726891 -0.0630793 0)
(0.643497 -0.0746698 0)
(0.431028 -0.118313 0)
(0.283415 -0.137517 0)
(0.104309 -0.0499458 0)