/*--------------------------------*- C++ -*----------------------------------*\
| =========                 |                                                 |
| \\      /  F ield         | OpenFOAM: The Open Source CFD Toolbox           |
|  \\    /   O peration     | Version:  2.4.0                                 |
|   \\  /    A nd           | Web:      www.OpenFOAM.org                      |
|    \\/     M anipulation  |                                                 |
\*---------------------------------------------------------------------------*/
FoamFile
{
    version     2.0;
    format      ascii;
    class       surfaceScalarField;
    location    "1.38";
    object      phi;
}
// * * * * * * * * * * * * * * * * * * * * * * * * * * * * * * * * * * * * * //

dimensions      [0 3 -1 0 0 0 0];

internalField   nonuniform List<scalar> 
8640
(
0.0500418
-4.17967e-05
0.0474383
0.00260351
0.0484562
-0.00101793
0.0477496
0.000706635
0.0467968
0.000952783
0.04911
-0.00231318
0.0478469
0.0012631
0.0484832
-0.000636327
0.0465348
0.00194841
0.0467892
-0.00025438
0.0432102
0.00357897
0.043495
-0.00028478
0.0443612
-0.000866182
0.039286
0.00507519
0.0440728
-0.00478681
0.0409474
0.00312537
0.0395368
0.00141067
0.0441064
-0.00456963
0.0388053
0.00530107
0.00527441
0.0335309
0.0499778
-1.96079e-05
0.0503007
0.00228063
0.0510267
-0.00174391
0.0491591
0.00257417
0.0488569
0.00125505
0.0495387
-0.00299498
0.0482117
0.0025901
0.0523281
-0.00475272
0.052637
0.00163946
0.054001
-0.00161831
0.0528128
0.00476711
0.0490114
0.0035166
0.0504202
-0.00227492
0.0443773
0.0111181
0.0473315
-0.00774101
0.0470658
0.00339106
0.0435814
0.00489507
0.0524745
-0.0134627
0.0481356
0.00964002
0.00884479
0.0445652
0.0509688
-0.000988399
0.0497476
0.00350181
0.0489745
-0.000970845
0.0488639
0.00268481
0.0505123
-0.00039334
0.0518554
-0.00433809
0.0485358
0.00590971
0.0515513
-0.0077682
0.0512316
0.0019591
0.0497001
-8.67667e-05
0.0540383
0.000428917
0.0515792
0.0059757
0.0521704
-0.00286613
0.0502874
0.0130011
0.0509895
-0.00844309
0.050236
0.00414455
0.0463191
0.00881188
0.0529845
-0.0201281
0.0500357
0.0125889
0.0111601
0.0477204
0.0497795
-0.000767878
0.0495483
0.00373297
0.050904
-0.00232655
0.0489936
0.00459528
0.0495072
-0.00090697
0.0532737
-0.00810465
0.0488921
0.0102913
0.0508868
-0.00976286
0.0521764
0.000669453
0.0476685
0.00442117
0.0518394
-0.00374197
0.0519378
0.00587728
0.051167
-0.00209533
0.052782
0.0113861
0.0541921
-0.00985323
0.0532525
0.00508416
0.0500815
0.0119829
0.0528158
-0.0228625
0.0507846
0.0146201
0.0127069
0.0492377
0.0497998
-0.000567673
0.0492264
0.00430631
0.0504698
-0.00356994
0.0497344
0.00533072
0.0499883
-0.00116087
0.0521896
-0.0103059
0.0487265
0.0137544
0.0504918
-0.0115281
0.05133
-0.000168758
0.0468773
0.00887384
0.0503217
-0.00718642
0.0524819
0.00371715
0.0488323
0.00155426
0.0518534
0.00836501
0.0537592
-0.0117591
0.0512412
0.00760218
0.0499415
0.0132827
0.0523001
-0.0252211
0.0504891
0.0164312
0.0138851
0.0493108
0.0505998
-0.00116752
0.0494864
0.00541971
0.0496106
-0.00369412
0.0504336
0.00450772
0.0497267
-0.000453959
0.0509474
-0.0115266
0.0501639
0.0145379
0.0497844
-0.0111486
0.0507695
-0.00115381
0.0481496
0.0114937
0.0492605
-0.00829729
0.0519423
0.00103535
0.0480288
0.00546779
0.0509723
0.00542143
0.0523024
-0.0130891
0.0490647
0.0108398
0.0503556
0.0119918
0.0528153
-0.0276808
0.0495108
0.0197357
0.0142879
0.0491081
0.0501762
-0.00134369
0.0497127
0.00588316
0.049884
-0.0038654
0.0512064
0.00318528
0.0501312
0.000621237
0.050723
-0.0121184
0.0510394
0.0142215
0.0493782
-0.00948735
0.0508155
-0.00259116
0.0500311
0.0122781
0.0496262
-0.00789232
0.0523706
-0.00170908
0.0495558
0.00828258
0.0515513
0.00342595
0.0520086
-0.0135464
0.0493356
0.0135127
0.0514911
0.00983632
0.0527182
-0.0289079
0.0489482
0.0235057
0.0135997
0.0496364
0.0499652
-0.00130884
0.0506079
0.0052404
0.0500334
-0.00329093
0.0509775
0.0022412
0.0502882
0.00131057
0.0496717
-0.0115018
0.0513818
0.0125113
0.0497347
-0.00784022
0.0501666
-0.00302314
0.0514777
0.010967
0.0502403
-0.00665488
0.0513461
-0.00281494
0.0509772
0.00865146
0.052167
0.00223617
0.0509379
-0.0123173
0.0503165
0.0141341
0.052561
0.00759187
0.051237
-0.027584
0.0488963
0.0258464
0.0115874
0.0509086
0.0499027
-0.00121156
0.0504667
0.00467639
0.0502742
-0.00309841
0.0507305
0.0017849
0.0503907
0.00165034
0.0494042
-0.0105153
0.0511644
0.010751
0.0500438
-0.0067196
0.0499286
-0.00290796
0.0516666
0.00922907
0.0507208
-0.00570912
0.0504958
-0.00258987
0.0514412
0.00770604
0.0520916
0.00158574
0.0498321
-0.0100577
0.0516123
0.0123539
0.0526131
0.00659108
0.0491766
-0.0241475
0.0499693
0.0250537
0.00948806
0.0520686
0.0495809
-0.000792435
0.0504337
0.00382351
0.0503266
-0.00299123
0.0502931
0.00181832
0.0505746
0.00136888
0.0492216
-0.00916225
0.0507133
0.00925934
0.0501333
-0.00613961
0.049683
-0.00245765
0.0513754
0.00753664
0.0508736
-0.00520733
0.0497873
-0.00150354
0.0514084
0.00608491
0.0517971
0.00119708
0.0490094
-0.00727
0.0520905
0.00927278
0.0523198
0.00636175
0.0482851
-0.0201128
0.0512731
0.0220658
0.00791262
0.0528485
0.049804
-0.000596472
0.0505633
0.00306422
0.0499587
-0.00238664
0.0503657
0.00141139
0.0503991
0.0013354
0.0493967
-0.00815984
0.0508762
0.0077799
0.0501086
-0.00537202
0.0498579
-0.00220696
0.0511718
0.00622272
0.0505784
-0.00461395
0.0496739
-0.000599025
0.0513913
0.0043675
0.0513308
0.00125755
0.0490985
-0.00503765
0.0523693
0.00600196
0.0520588
0.00667226
0.0483972
-0.0164512
0.0525686
0.0178944
0.00719845
0.0532828
0.0498227
-0.000419181
0.0504298
0.00245709
0.0502646
-0.00222135
0.0503681
0.00130784
0.050504
0.00119947
0.0496842
-0.00734003
0.0506083
0.00685583
0.0503412
-0.0051049
0.049817
-0.0016828
0.0509856
0.00505415
0.0506649
-0.00429331
0.0496776
0.000388361
0.051308
0.00273709
0.0512833
0.00128226
0.0493977
-0.00315208
0.0521529
0.0032468
0.0521757
0.00664943
0.0489394
-0.0132149
0.053085
0.0137488
0.00683725
0.0534462
0.0500086
-0.000427799
0.0506114
0.00185427
0.0500709
-0.00168082
0.050209
0.00116973
0.050566
0.000842509
0.0493122
-0.00608621
0.0506094
0.00555859
0.0503334
-0.00482892
0.0496318
-0.000981214
0.0509129
0.00377309
0.0503862
-0.00376659
0.0497109
0.0010637
0.0509167
0.00153128
0.051073
0.00112597
0.0495571
-0.00163627
0.0516558
0.00114811
0.0521515
0.00615376
0.0490088
-0.0100722
0.0527454
0.0100122
0.00570702
0.0538756
0.0500314
-0.000459205
0.050313
0.00157267
0.0500928
-0.00146061
0.0503537
0.000908798
0.0504755
0.000720702
0.0496389
-0.00524962
0.0507361
0.00446146
0.0502066
-0.00429941
0.0499027
-0.000677389
0.0509254
0.00275039
0.0504113
-0.00325243
0.0500245
0.00145042
0.0508441
0.000711743
0.0512391
0.000730982
0.0499257
-0.000322953
0.0512398
-0.000165921
0.0524014
0.00499212
0.0497991
-0.00746989
0.0516376
0.00817357
0.00333316
0.0540115
0.0499383
-0.0003975
0.0505187
0.000992249
0.0501233
-0.00106517
0.0502334
0.000798656
0.0506286
0.000325524
0.0494943
-0.00411531
0.0506381
0.00331768
0.050401
-0.00406236
0.0497164
7.21007e-06
0.0509956
0.00147118
0.0501988
-0.00245563
0.050107
0.00154221
0.0508382
-1.94298e-05
0.050744
0.000825217
0.0504044
1.66536e-05
0.0512966
-0.00105813
0.0514897
0.00479905
0.0505003
-0.00648054
0.0517152
0.00695867
0.00227028
0.0527781
0.0501277
-0.000525159
0.0504737
0.000646256
0.0499817
-0.000573177
0.0504044
0.000375912
0.0504793
0.000250603
0.0495386
-0.00317455
0.0508466
0.00200965
0.0501218
-0.00333756
0.0498201
0.000308945
0.0511203
0.000170896
0.0499017
-0.001237
0.05019
0.00125393
0.0508589
-0.000688289
0.0507378
0.00094628
0.0500652
0.000689224
0.0515714
-0.00256427
0.0516273
0.00474308
0.050163
-0.00501617
0.0523616
0.00476008
0.00134268
0.0532892
0.0501542
-0.000679399
0.0504017
0.000398766
0.0500925
-0.000263972
0.050361
0.000107425
0.0505028
0.000108824
0.0497146
-0.0023864
0.0507336
0.000990695
0.0502842
-0.00288815
0.0500086
0.000584529
0.0508527
-0.000673183
0.0502818
-0.000666087
0.0502529
0.00128283
0.0505462
-0.000981598
0.051176
0.000316494
0.0502537
0.00161146
0.0512866
-0.00359717
0.0523237
0.00370599
0.050622
-0.00331448
0.0522638
0.00311831
-0.000398942
0.0540054
0.050234
-0.000913397
0.0502746
0.00035817
0.0500658
-5.51419e-05
0.0504516
-0.000278437
0.0505153
4.5118e-05
0.0498943
-0.00176535
0.0508668
1.8136e-05
0.0500705
-0.00209178
0.0502219
0.000433155
0.050627
-0.00107828
0.0501676
-0.000206705
0.0503177
0.00113274
0.0506377
-0.00130165
0.0509094
4.47689e-05
0.0506416
0.00187927
0.0512697
-0.0042252
0.0524912
0.00248443
0.0505385
-0.0013618
0.0523346
0.0013222
-0.00191602
0.0538517
0.0499971
-0.00091053
0.0500956
0.000259673
0.0502972
-0.000256663
0.0505616
-0.000542931
0.0506291
-2.22998e-05
0.0501493
-0.00128562
0.0506015
-0.000434014
0.0496441
-0.00113437
0.0500876
-1.03777e-05
0.0497866
-0.000777283
0.0499266
-0.000346696
0.0501108
0.0009485
0.0502828
-0.00147365
0.05052
-0.00019243
0.0508446
0.0015547
0.0501934
-0.00357399
0.0516903
0.000987537
0.0498517
0.000476751
0.0515627
-0.0003888
-0.00217026
0.051817
0.0490895
0.0493491
0.0490925
0.0485495
0.0485272
0.0472416
0.0468076
0.0456732
0.0456629
0.0448856
0.0445389
0.0454874
0.0440137
0.0438213
0.045376
0.041802
0.0427896
0.0432663
0.0428775
0.0407073
0.0311492
0.0260731
-0.0236914
0.0327935
0.00118799
-0.00283232
0.0306611
0.0217841
-0.0196517
0.0421979
0.025434
-0.0369708
0.0481886
0.0272882
-0.0332789
0.0431159
0.0216962
-0.0166235
0.045286
-0.0306191
0.028449
0.0481595
-0.089033
0.0861595
0.0471051
-0.101749
0.102804
0.0449769
-0.092882
0.0950101
0.0442672
-0.0795584
0.0802681
0.0414267
-0.0582355
0.061076
0.0370604
-0.0422832
0.0466494
0.0340484
-0.0359792
0.0389913
0.0317412
-0.0268389
0.029146
0.0289484
-0.0182273
0.0210201
0.0278995
-0.0129673
0.0140161
0.0279435
-0.00706413
0.00702014
0.0274577
-0.00223828
0.00272416
0.0268358
0.000328482
0.000293396
0.0267012
0.00152935
-0.00139477
0.0268995
0.00160925
-0.00180758
0.0270584
0.000623638
-0.000782542
0.0269806
-0.000876087
0.000953886
0.0267155
-0.00228307
0.00254823
0.0263919
-0.00320931
0.00353289
0.0261096
-0.00352332
0.0038056
0.0259042
-0.00329173
0.00349711
0.0257684
-0.00271882
0.00285462
0.0256821
-0.00204083
0.00212718
0.0256279
-0.00142631
0.00148046
0.0255945
-0.000947332
0.000980803
0.0255743
-0.000607502
0.000627672
0.0255626
-0.000380474
0.000392211
0.025556
-0.000234551
0.000241112
0.0255525
-0.000143022
0.000146546
0.0255506
-8.65089e-05
8.83354e-05
0.0255497
-5.19823e-05
5.29018e-05
0.0255493
-3.10609e-05
3.15139e-05
0.025549
-1.84636e-05
1.86843e-05
0.0255489
-1.09247e-05
1.10325e-05
0.0255489
-6.43405e-06
6.48645e-06
0.0255489
-3.77601e-06
3.80128e-06
0.0255489
-2.20551e-06
2.21862e-06
0.0255488
-1.28224e-06
1.28974e-06
0.0255488
-7.46578e-07
7.50174e-07
0.0255488
-4.28931e-07
4.30192e-07
0.0255488
-2.49352e-07
2.50285e-07
0.0255488
-1.41236e-07
1.42325e-07
0.0255488
-7.97143e-08
8.0545e-08
0.0255488
-4.78221e-08
4.81163e-08
0.0255488
-2.4655e-08
2.46851e-08
0.0255488
-1.55062e-08
1.58125e-08
0.0255488
-8.98943e-09
9.08957e-09
0.0255488
-3.63086e-09
2.81756e-09
0.0255488
-4.87512e-09
4.25408e-09
0.0255488
-7.72658e-10
1.35066e-09
0.0255488
5.65783e-11
9.36706e-10
0.0255488
-2.39425e-09
2.62896e-09
0.0255488
8.54449e-10
-1.55032e-09
0.0255488
-6.53511e-10
-4.11167e-11
0.0255488
-1.43265e-09
1.52202e-09
0.0255488
2.32412e-09
-1.94848e-09
0.0255488
-1.18538e-09
9.58693e-10
0.0255488
-1.50833e-09
8.36862e-10
0.0255488
1.96489e-09
-2.18943e-09
0.0255488
-1.29584e-09
1.77184e-09
0.0255488
-2.22595e-10
6.94941e-10
0.0255488
2.34171e-09
-2.53833e-09
0.0255488
-2.06466e-09
1.34219e-09
0.0255488
-9.28616e-10
5.12629e-10
0.0255488
2.90677e-09
-2.35647e-09
0.0255488
-1.02271e-10
1.15554e-09
0.0255488
-1.54027e-09
2.06522e-09
0.0255488
1.98123e-09
-2.30783e-09
0.0255488
6.21924e-10
-1.16411e-09
0.0255488
-2.09403e-09
1.858e-09
0.0255488
5.09754e-10
-1.07258e-10
0.0255488
2.15719e-09
-1.73318e-09
0.0255488
-3.55658e-10
6.23512e-10
0.0255488
-2.18105e-09
1.59204e-09
0.0255488
1.04508e-09
-1.6742e-09
0.0255488
6.71689e-10
-1.40284e-09
0.0255488
-8.43428e-10
8.81521e-10
0.0255488
-8.71905e-10
1.58806e-09
0.0255488
9.08856e-10
-7.71301e-10
0.0255488
2.10694e-09
-1.13115e-09
0.0255488
-1.43009e-09
6.04679e-11
0.0255488
-9.51909e-10
1.60269e-09
0.0255488
-5.55001e-11
-1.57931e-11
0.0255488
1.39127e-09
-1.89287e-09
0.0255488
1.85041e-09
5.51237e-10
0.0255488
-5.36711e-09
2.59987e-09
0.0255488
-1.02517e-09
1.57052e-09
0.0255488
2.33407e-09
-1.36724e-09
0.0255488
-1.90324e-09
-7.85894e-10
0.0255488
1.11142e-09
1.28343e-09
0.0255488
-8.63824e-10
1.45626e-09
0.0255488
-1.99914e-09
6.0464e-10
3.93108e-10
-2.17629e-10
0.0514418
0.0191965
0.0478415
0.00478826
0.0384308
0.0311948
0.0444492
0.0194157
0.045623
0.0261144
0.0455488
0.0217704
0.0510002
-0.0360706
0.0519039
-0.0899367
0.0489195
-0.098765
0.0447264
-0.0886888
0.0426023
-0.0774343
0.0404817
-0.0561149
0.0370506
-0.0388521
0.0339458
-0.0328745
0.0321124
-0.0250055
0.0294227
-0.0155376
0.0275964
-0.0111409
0.0276183
-0.00708604
0.0277036
-0.00232359
0.0272654
0.000766702
0.0268965
0.0018982
0.0268193
0.0016865
0.0268217
0.00062119
0.0267491
-0.000803403
0.0265737
-0.00210776
0.0263497
-0.00298525
0.026132
-0.00330563
0.0259514
-0.0031111
0.0258147
-0.00258216
0.0257174
-0.0019435
0.0256515
-0.00136042
0.025609
-0.000904885
0.025583
-0.000581414
0.0255676
-0.000365127
0.0255589
-0.000225872
0.0255542
-0.000138271
0.0255516
-8.39728e-05
0.0255503
-5.06494e-05
0.0255496
-3.03654e-05
0.0255493
-1.81025e-05
0.0255491
-1.07312e-05
0.025549
-6.33284e-06
0.0255489
-3.7234e-06
0.0255489
-2.17468e-06
0.0255489
-1.26469e-06
0.0255488
-7.36757e-07
0.0255488
-4.2572e-07
0.0255488
-2.4609e-07
0.0255488
-1.38928e-07
0.0255488
-7.74136e-08
0.0255488
-4.6585e-08
0.0255488
-2.57823e-08
0.0255488
-1.39077e-08
0.0255488
-8.87887e-09
0.0255488
-6.14069e-09
0.0255488
-4.46374e-09
0.0255488
-2.26764e-10
0.0255488
1.18513e-09
0.0255488
-9.52273e-10
0.0255488
-1.68792e-09
0.0255488
-1.91844e-09
0.0255488
3.11808e-10
0.0255488
1.67296e-09
0.0255488
-1.37667e-09
0.0255488
-2.0405e-09
0.0255488
-9.29012e-11
0.0255488
8.10941e-10
0.0255488
1.50059e-09
0.0255488
1.34693e-11
0.0255488
-2.50353e-09
0.0255488
-9.00279e-10
0.0255488
2.25176e-09
0.0255488
2.67549e-09
0.0255488
1.13917e-09
0.0255488
-5.50181e-10
0.0255488
-1.26443e-09
0.0255488
-4.40394e-10
0.0255488
1.23905e-09
0.0255488
1.21781e-09
0.0255488
7.20637e-10
0.0255488
-1.49587e-09
0.0255488
-1.4905e-09
0.0255488
-1.86956e-09
0.0255488
4.2464e-11
0.0255488
1.72089e-09
0.0255488
1.0582e-09
0.0255488
2.08859e-09
0.0255488
-3.20155e-09
0.0255488
8.84609e-10
0.0255488
2.47094e-10
0.0255488
-2.80666e-10
0.0255488
4.20939e-09
0.0255488
-6.91958e-09
0.0255488
-4.16191e-10
0.0255488
1.56381e-09
0.0255488
-5.54433e-09
0.0255488
4.33726e-09
0.0255488
9.18919e-10
0.0255488
-3.09537e-09
3.67939e-10
0.0539085
0.0130084
0.0550821
0.00361466
0.0493855
0.0368914
0.0463763
0.0224249
0.0432548
0.0292359
0.0490106
0.0160147
0.0567713
-0.0438313
0.0569084
-0.0900737
0.0526312
-0.0944878
0.0472615
-0.0833191
0.0440624
-0.0742353
0.0418915
-0.0539439
0.038685
-0.0356455
0.0345865
-0.028776
0.0322043
-0.0226232
0.0300203
-0.0133536
0.0278432
-0.00896394
0.0273574
-0.00660022
0.0277253
-0.00269149
0.027687
0.000805023
0.0272741
0.00231111
0.0269049
0.00205571
0.0267072
0.000818902
0.0265821
-0.000678375
0.0264478
-0.00197345
0.0262883
-0.00282568
0.0261228
-0.00314012
0.0259711
-0.00295944
0.0258435
-0.00245456
0.0257437
-0.00184368
0.0256712
-0.00128793
0.0256222
-0.000855913
0.0255912
-0.000550385
0.0255726
-0.000346494
0.0255618
-0.000215158
0.0255559
-0.000132308
0.0255526
-8.07268e-05
0.0255509
-4.89036e-05
0.02555
-2.94287e-05
0.0255495
-1.7599e-05
0.0255492
-1.04573e-05
0.025549
-6.1829e-06
0.0255489
-3.64039e-06
0.0255489
-2.12773e-06
0.0255489
-1.2382e-06
0.0255489
-7.21953e-07
0.0255488
-4.17845e-07
0.0255488
-2.40885e-07
0.0255488
-1.36015e-07
0.0255488
-7.57082e-08
0.0255488
-4.53578e-08
0.0255488
-2.57583e-08
0.0255488
-1.33766e-08
0.0255488
-8.57783e-09
0.0255488
-6.75155e-09
0.0255488
-4.28979e-09
0.0255488
-4.01129e-11
0.0255488
1.4066e-09
0.0255488
-5.08331e-10
0.0255488
-2.2801e-09
0.0255488
-2.14842e-09
0.0255488
6.0293e-10
0.0255488
1.38973e-09
0.0255488
-1.29316e-09
0.0255488
-2.16548e-09
0.0255488
-5.91016e-10
0.0255488
1.28747e-09
0.0255488
1.81941e-09
0.0255488
-5.59455e-10
0.0255488
-2.48012e-09
0.0255488
-7.76442e-10
0.0255488
1.98057e-09
0.0255488
3.2482e-09
0.0255488
1.82064e-09
0.0255488
-1.17293e-09
0.0255488
-1.57136e-09
0.0255488
3.19427e-11
0.0255488
1.34339e-09
0.0255488
8.10559e-10
0.0255488
1.04131e-09
0.0255488
-1.42315e-09
0.0255488
-1.88572e-09
0.0255488
-2.57945e-09
0.0255488
1.81193e-10
0.0255488
2.48146e-09
0.0255488
7.43252e-10
0.0255488
2.64707e-09
0.0255488
-4.34651e-09
0.0255488
2.14305e-09
0.0255488
2.20786e-10
0.0255488
-1.54656e-09
0.0255488
6.34385e-09
0.0255488
-9.18921e-09
0.0255488
4.17404e-10
0.0255488
2.5821e-09
0.0255488
-8.41199e-09
0.0255488
6.67354e-09
0.0255488
1.71822e-09
0.0255488
-4.67527e-09
3.01852e-10
0.0522102
0.0100359
0.0557413
8.36094e-05
0.0575558
0.0350769
0.051672
0.0283087
0.0480781
0.0328298
0.0559257
0.00816706
0.0607136
-0.0486193
0.0561637
-0.0855238
0.0512993
-0.0896234
0.0475232
-0.079543
0.0437766
-0.0704887
0.0415393
-0.0517066
0.0398944
-0.0340006
0.03641
-0.0252916
0.0329159
-0.0191291
0.030245
-0.0106826
0.0279073
-0.0066263
0.0270275
-0.00572039
0.0273832
-0.00304717
0.0277154
0.000472841
0.0276275
0.00239896
0.0273464
0.00233683
0.0270522
0.00111309
0.0267912
-0.000417369
0.0265623
-0.00174451
0.0263556
-0.00261908
0.0261711
-0.00295558
0.0260104
-0.00279877
0.0258751
-0.00231921
0.0257672
-0.00173582
0.0256875
-0.00120815
0.0256328
-0.000801286
0.0255979
-0.000515417
0.0255767
-0.000325297
0.0255643
-0.000202837
0.0255574
-0.000125357
0.0255535
-7.68803e-05
0.0255514
-4.6794e-05
0.0255503
-2.82728e-05
0.0255496
-1.69639e-05
0.0255493
-1.01057e-05
0.0255491
-5.9861e-06
0.025549
-3.52923e-06
0.0255489
-2.06484e-06
0.0255489
-1.20272e-06
0.0255489
-7.01801e-07
0.0255489
-4.06073e-07
0.0255488
-2.33771e-07
0.0255488
-1.32436e-07
0.0255488
-7.3841e-08
0.0255488
-4.3958e-08
0.0255488
-2.51774e-08
0.0255488
-1.31741e-08
0.0255488
-8.28372e-09
0.0255488
-6.57766e-09
0.0255488
-3.96344e-09
0.0255488
-1.19542e-11
0.0255488
1.2152e-09
0.0255488
-5.2607e-10
0.0255488
-2.14573e-09
0.0255488
-2.00346e-09
0.0255488
4.56799e-10
0.0255488
1.21081e-09
0.0255488
-1.21884e-09
0.0255488
-2.05553e-09
0.0255488
-6.10984e-10
0.0255488
1.18736e-09
0.0255488
1.69808e-09
0.0255488
-5.623e-10
0.0255488
-2.25803e-09
0.0255488
-5.91967e-10
0.0255488
1.86541e-09
0.0255488
3.00017e-09
0.0255488
1.77071e-09
0.0255488
-1.08832e-09
0.0255488
-1.34082e-09
0.0255488
1.62929e-10
0.0255488
1.27619e-09
0.0255488
4.4047e-10
0.0255488
1.0641e-09
0.0255488
-1.43049e-09
0.0255488
-1.58875e-09
0.0255488
-2.70219e-09
0.0255488
1.64301e-10
0.0255488
2.58846e-09
0.0255488
1.79475e-10
0.0255488
3.45231e-09
0.0255488
-5.33443e-09
0.0255488
3.29403e-09
0.0255488
8.3268e-11
0.0255488
-2.65192e-09
0.0255488
8.27396e-09
0.0255488
-1.16717e-08
0.0255488
1.52115e-09
0.0255488
4.0724e-09
0.0255488
-1.10722e-08
0.0255488
8.74024e-09
0.0255488
2.17348e-09
0.0255488
-6.35962e-09
2.40683e-10
0.0518656
0.00748119
0.0547934
-0.00284426
0.0600852
0.0297852
0.0563677
0.0320261
0.0562848
0.0329127
0.0624912
0.00196065
0.0628199
-0.048948
0.0562904
-0.0789942
0.0508336
-0.0841667
0.048056
-0.0767654
0.0447245
-0.0671572
0.0414609
-0.048443
0.0393881
-0.0319278
0.0367289
-0.0226324
0.0338254
-0.0162257
0.0316615
-0.00851874
0.029135
-0.00409976
0.0274067
-0.00399208
0.0272859
-0.00292639
0.0276638
9.49734e-05
0.0276746
0.00238807
0.0273859
0.00262553
0.0270654
0.00143359
0.0268118
-0.000163712
0.026589
-0.00152171
0.026387
-0.00241715
0.0262071
-0.0027756
0.0260489
-0.00264057
0.0259106
-0.00218092
0.0257953
-0.0016205
0.0257069
-0.00111982
0.0256452
-0.000739521
0.0256052
-0.000475496
0.025581
-0.000301019
0.0255668
-0.000188712
0.0255588
-0.000117373
0.0255544
-7.24383e-05
0.0255519
-4.43364e-05
0.0255506
-2.69107e-05
0.0255498
-1.62052e-05
0.0255494
-9.67999e-06
0.0255492
-5.74494e-06
0.025549
-3.39163e-06
0.0255489
-1.98658e-06
0.0255489
-1.15812e-06
0.0255489
-6.76222e-07
0.0255489
-3.91245e-07
0.0255488
-2.2483e-07
0.0255488
-1.27791e-07
0.0255488
-7.15418e-08
0.0255488
-4.24368e-08
0.0255488
-2.44357e-08
0.0255488
-1.27951e-08
0.0255488
-7.8169e-09
0.0255488
-6.25346e-09
0.0255488
-3.79789e-09
0.0255488
7.57285e-11
0.0255488
1.08999e-09
0.0255488
-5.47754e-10
0.0255488
-1.98285e-09
0.0255488
-1.92561e-09
0.0255488
3.32492e-10
0.0255488
1.06192e-09
0.0255488
-1.13527e-09
0.0255488
-1.947e-09
0.0255488
-6.06013e-10
0.0255488
1.11837e-09
0.0255488
1.55948e-09
0.0255488
-5.56962e-10
0.0255488
-2.04323e-09
0.0255488
-4.82553e-10
0.0255488
1.77801e-09
0.0255488
2.79265e-09
0.0255488
1.63859e-09
0.0255488
-9.75425e-10
0.0255488
-1.08041e-09
0.0255488
1.51619e-10
0.0255488
1.20691e-09
0.0255488
2.17533e-10
0.0255488
1.09393e-09
0.0255488
-1.51571e-09
0.0255488
-1.25168e-09
0.0255488
-2.77863e-09
0.0255488
1.61573e-10
0.0255488
2.60617e-09
0.0255488
-3.40705e-10
0.0255488
4.28124e-09
0.0255488
-6.35358e-09
0.0255488
4.44696e-09
0.0255488
-2.21219e-10
0.0255488
-3.59912e-09
0.0255488
1.02393e-08
0.0255488
-1.42548e-08
0.0255488
2.84258e-09
0.0255488
5.39376e-09
0.0255488
-1.36984e-08
0.0255488
1.08905e-08
0.0255488
2.46436e-09
0.0255488
-8.00495e-09
2.25762e-10
0.0547839
0.00180537
0.0556532
-0.00371356
0.0582051
0.0272333
0.0573362
0.032895
0.0615731
0.0286758
0.0658408
-0.00230706
0.0633857
-0.0464929
0.0568718
-0.0724803
0.0521781
-0.0794731
0.0496945
-0.0742817
0.0460422
-0.0635049
0.0415859
-0.0439867
0.0388441
-0.029186
0.0366671
-0.0204554
0.0333568
-0.0129154
0.0315495
-0.00671143
0.0300862
-0.00263649
0.0281204
-0.00202629
0.0272761
-0.00208212
0.0276287
-0.000257576
0.0279812
0.00203557
0.0278896
0.00271713
0.0275574
0.00176579
0.0271448
0.000248906
0.026751
-0.0011279
0.026424
-0.0020902
0.0261871
-0.00253872
0.0260206
-0.00247407
0.0258937
-0.00205398
0.0257906
-0.00151738
0.0257091
-0.00103835
0.0256496
-0.000679958
0.0256094
-0.000435337
0.0255841
-0.000275713
0.0255689
-0.000173563
0.0255602
-0.000108614
0.0255552
-6.74776e-05
0.0255524
-4.15523e-05
0.0255509
-2.53494e-05
0.02555
-1.53266e-05
0.0255495
-9.18262e-06
0.0255492
-5.46102e-06
0.0255491
-3.22877e-06
0.025549
-1.89348e-06
0.0255489
-1.10489e-06
0.0255489
-6.45486e-07
0.0255489
-3.73246e-07
0.0255488
-2.14169e-07
0.0255488
-1.22287e-07
0.0255488
-6.87998e-08
0.0255488
-4.06806e-08
0.0255488
-2.34676e-08
0.0255488
-1.23174e-08
0.0255488
-7.2708e-09
0.0255488
-5.82731e-09
0.0255488
-3.53799e-09
0.0255488
1.52982e-10
0.0255488
8.92715e-10
0.0255488
-6.01624e-10
0.0255488
-1.79012e-09
0.0255488
-1.80761e-09
0.0255488
1.91193e-10
0.0255488
9.2928e-10
0.0255488
-1.04504e-09
0.0255488
-1.81793e-09
0.0255488
-5.75851e-10
0.0255488
1.01247e-09
0.0255488
1.38247e-09
0.0255488
-5.09541e-10
0.0255488
-1.81837e-09
0.0255488
-3.50841e-10
0.0255488
1.70497e-09
0.0255488
2.51478e-09
0.0255488
1.45322e-09
0.0255488
-8.37315e-10
0.0255488
-7.95882e-10
0.0255488
1.50486e-10
0.0255488
1.13525e-09
0.0255488
-3.10819e-11
0.0255488
1.10468e-09
0.0255488
-1.61196e-09
0.0255488
-8.49077e-10
0.0255488
-2.84426e-09
0.0255488
2.02007e-10
0.0255488
2.57651e-09
0.0255488
-8.7877e-10
0.0255488
5.10236e-09
0.0255488
-7.42231e-09
0.0255488
5.71531e-09
0.0255488
-6.79687e-10
0.0255488
-4.40979e-09
0.0255488
1.21207e-08
0.0255488
-1.68945e-08
0.0255488
4.4446e-09
0.0255488
6.50532e-09
0.0255488
-1.62754e-08
0.0255488
1.30933e-08
0.0255488
2.63548e-09
0.0255488
-9.5942e-09
2.50978e-10
0.0566963
-0.00525451
0.0552611
-0.00227839
0.0546394
0.027855
0.0566131
0.0309213
0.0634803
0.0218086
0.0657319
-0.00455862
0.0625069
-0.0432679
0.0565977
-0.0665711
0.0521334
-0.0750088
0.0503224
-0.0724708
0.0477385
-0.060921
0.0430183
-0.0392664
0.038433
-0.0246008
0.0363725
-0.0183949
0.0339611
-0.010504
0.0316447
-0.00439496
0.030762
-0.00175383
0.0293633
-0.000627581
0.0275178
-0.000236587
0.0268564
0.000403732
0.0275045
0.00138752
0.0285374
0.00168425
0.0291443
0.00115886
0.0290003
0.000392905
0.0282815
-0.000409084
0.0274316
-0.0012403
0.0267552
-0.00186236
0.0263088
-0.00202768
0.0260289
-0.00177401
0.02585
-0.00133847
0.0257339
-0.000922326
0.0256598
-0.000605839
0.0256139
-0.000389452
0.0255864
-0.000248207
0.0255704
-0.000157493
0.0255611
-9.93759e-05
0.0255558
-6.22092e-05
0.0255528
-3.85535e-05
0.0255511
-2.36396e-05
0.0255502
-1.4349e-05
0.0255496
-8.62173e-06
0.0255493
-5.13775e-06
0.0255491
-3.04212e-06
0.025549
-1.78636e-06
0.0255489
-1.04329e-06
0.0255489
-6.09701e-07
0.0255489
-3.52399e-07
0.0255489
-2.01957e-07
0.0255488
-1.15868e-07
0.0255488
-6.5558e-08
0.0255488
-3.8699e-08
0.0255488
-2.23706e-08
0.0255488
-1.16251e-08
0.0255488
-6.62822e-09
0.0255488
-5.35564e-09
0.0255488
-3.33581e-09
0.0255488
2.22969e-10
0.0255488
7.84586e-10
0.0255488
-6.36174e-10
0.0255488
-1.62929e-09
0.0255488
-1.74486e-09
0.0255488
9.8959e-11
0.0255488
8.34625e-10
0.0255488
-9.74522e-10
0.0255488
-1.70118e-09
0.0255488
-5.60036e-10
0.0255488
9.43519e-10
0.0255488
1.27149e-09
0.0255488
-5.08521e-10
0.0255488
-1.62526e-09
0.0255488
-2.60555e-10
0.0255488
1.61049e-09
0.0255488
2.31204e-09
0.0255488
1.30596e-09
0.0255488
-7.46685e-10
0.0255488
-5.52371e-10
0.0255488
1.0721e-10
0.0255488
1.06345e-09
0.0255488
-2.10235e-10
0.0255488
1.16147e-09
0.0255488
-1.72796e-09
0.0255488
-4.77656e-10
0.0255488
-2.94867e-09
0.0255488
2.95063e-10
0.0255488
2.52053e-09
0.0255488
-1.36367e-09
0.0255488
5.90855e-09
0.0255488
-8.54475e-09
0.0255488
7.07108e-09
0.0255488
-1.36762e-09
0.0255488
-5.02676e-09
0.0255488
1.40022e-08
0.0255488
-1.96084e-08
0.0255488
6.33423e-09
0.0255488
7.29634e-09
0.0255488
-1.88254e-08
0.0255488
1.54449e-08
0.0255488
2.6401e-09
0.0255488
-1.11122e-08
3.30079e-10
0.0560919
-0.0104379
0.0530539
0.000759624
0.0522688
0.0286401
0.0556051
0.027585
0.062325
0.0150887
0.064201
-0.0064346
0.0612856
-0.0403524
0.0555902
-0.0608757
0.0518291
-0.0712476
0.0506696
-0.0713113
0.0482636
-0.058515
0.044032
-0.0350348
0.0396723
-0.020241
0.0357496
-0.0144722
0.0332713
-0.00802566
0.0313635
-0.00248715
0.030438
-0.000828324
0.0301552
-0.000344804
0.029244
0.000674664
0.0278594
0.00178833
0.0269684
0.00227852
0.026751
0.00190157
0.026781
0.00112894
0.0267351
0.000438737
0.0265778
-0.000251737
0.0263933
-0.00105586
0.0262258
-0.00169478
0.0260815
-0.00188339
0.0259511
-0.00164367
0.0258345
-0.00122185
0.0257386
-0.000826435
0.0256677
-0.000534949
0.02562
-0.000341769
0.0255902
-0.000218389
0.0255725
-0.000139782
0.0255623
-8.91762e-05
0.0255565
-5.64171e-05
0.0255532
-3.52716e-05
0.0255514
-2.17715e-05
0.0255503
-1.32784e-05
0.0255497
-8.00447e-06
0.0255493
-4.77991e-06
0.0255491
-2.83446e-06
0.025549
-1.66651e-06
0.0255489
-9.74072e-07
0.0255489
-5.69329e-07
0.0255489
-3.28799e-07
0.0255489
-1.88285e-07
0.0255488
-1.08664e-07
0.0255488
-6.18285e-08
0.0255488
-3.64573e-08
0.0255488
-2.10479e-08
0.0255488
-1.08256e-08
0.0255488
-5.94737e-09
0.0255488
-4.82332e-09
0.0255488
-3.08986e-09
0.0255488
2.85135e-10
0.0255488
6.33805e-10
0.0255488
-6.81904e-10
0.0255488
-1.44036e-09
0.0255488
-1.66702e-09
0.0255488
2.56516e-12
0.0255488
7.56539e-10
0.0255488
-9.04187e-10
0.0255488
-1.56432e-09
0.0255488
-5.24603e-10
0.0255488
8.56878e-10
0.0255488
1.12767e-09
0.0255488
-4.8267e-10
0.0255488
-1.42877e-09
0.0255488
-1.58821e-10
0.0255488
1.52294e-09
0.0255488
2.08195e-09
0.0255488
1.12579e-09
0.0255488
-6.59033e-10
0.0255488
-3.02674e-10
0.0255488
6.84385e-11
0.0255488
9.98536e-10
0.0255488
-4.00675e-10
0.0255488
1.22408e-09
0.0255488
-1.87476e-09
0.0255488
-6.15312e-11
0.0255488
-3.0556e-09
0.0255488
4.48238e-10
0.0255488
2.40158e-09
0.0255488
-1.82579e-09
0.0255488
6.69366e-09
0.0255488
-9.72429e-09
0.0255488
8.56437e-09
0.0255488
-2.2827e-09
0.0255488
-5.42346e-09
0.0255488
1.57824e-08
0.0255488
-2.24078e-08
0.0255488
8.57126e-09
0.0255488
7.75688e-09
0.0255488
-2.1267e-08
0.0255488
1.78824e-08
0.0255488
2.4743e-09
0.0255488
-1.25522e-08
4.5793e-10
0.0539679
-0.0123371
0.0503468
0.00438071
0.0513152
0.0276717
0.0553981
0.0235021
0.0602851
0.0102017
0.0617693
-0.00791877
0.0596938
-0.0382769
0.0552449
-0.0564269
0.0521694
-0.0681721
0.0507962
-0.0699381
0.0491904
-0.0569093
0.044213
-0.0300574
0.0401397
-0.0161678
0.0365165
-0.010849
0.032673
-0.0041822
0.0311283
-0.000942445
0.0308634
-0.000563402
0.0300884
0.000430236
0.0289148
0.00184821
0.0282153
0.00248785
0.0281246
0.00236923
0.0283823
0.00164383
0.0286181
0.000893176
0.0285324
0.000524424
0.0280729
0.000207746
0.0274156
-0.000398567
0.0268024
-0.00108151
0.026347
-0.00142806
0.0260459
-0.00134257
0.0258556
-0.00103146
0.0257368
-0.000707685
0.0256631
-0.000461276
0.0256177
-0.000296329
0.0255899
-0.000190591
0.0255731
-0.000122979
0.0255631
-7.91423e-05
0.0255571
-5.04907e-05
0.0255537
-3.18003e-05
0.0255516
-1.97491e-05
0.0255505
-1.21031e-05
0.0255498
-7.32212e-06
0.0255494
-4.38348e-06
0.0255491
-2.60433e-06
0.025549
-1.53368e-06
0.0255489
-8.97289e-07
0.0255489
-5.24477e-07
0.0255489
-3.02669e-07
0.0255489
-1.73317e-07
0.0255488
-1.00667e-07
0.0255488
-5.75829e-08
0.0255488
-3.39303e-08
0.0255488
-1.95665e-08
0.0255488
-9.87809e-09
0.0255488
-5.22419e-09
0.0255488
-4.28535e-09
0.0255488
-2.85833e-09
0.0255488
3.22214e-10
0.0255488
5.36531e-10
0.0255488
-7.03834e-10
0.0255488
-1.27143e-09
0.0255488
-1.61102e-09
0.0255488
-6.62835e-11
0.0255488
7.14407e-10
0.0255488
-8.41334e-10
0.0255488
-1.44527e-09
0.0255488
-4.89371e-10
0.0255488
7.80457e-10
0.0255488
1.03006e-09
0.0255488
-4.67031e-10
0.0255488
-1.26303e-09
0.0255488
-8.64509e-11
0.0255488
1.41778e-09
0.0255488
1.87962e-09
0.0255488
9.85974e-10
0.0255488
-5.97101e-10
0.0255488
-9.75126e-11
0.0255488
1.34663e-11
0.0255488
9.30638e-10
0.0255488
-5.53687e-10
0.0255488
1.32008e-09
0.0255488
-2.02621e-09
0.0255488
3.48733e-10
0.0255488
-3.20454e-09
0.0255488
6.58256e-10
0.0255488
2.23343e-09
0.0255488
-2.22726e-09
0.0255488
7.45011e-09
0.0255488
-1.0956e-08
0.0255488
1.01843e-08
0.0255488
-3.48177e-09
0.0255488
-5.55223e-09
0.0255488
1.74847e-08
0.0255488