/*--------------------------------*- C++ -*----------------------------------*\
| =========                 |                                                 |
| \\      /  F ield         | OpenFOAM: The Open Source CFD Toolbox           |
|  \\    /   O peration     | Version:  2.4.0                                 |
|   \\  /    A nd           | Web:      www.OpenFOAM.org                      |
|    \\/     M anipulation  |                                                 |
\*---------------------------------------------------------------------------*/
FoamFile
{
    version     2.0;
    format      ascii;
    class       volVectorField;
    location    "1.38";
    object      U;
}
// * * * * * * * * * * * * * * * * * * * * * * * * * * * * * * * * * * * * * //

dimensions      [0 1 -1 0 0 0 0];

internalField   nonuniform List<vector> 
4400
(
(9.23574 -0.016545 0)
(10.7394 0.161381 0)
(8.24527 -0.0408767 0)
(11.1707 -0.0735278 0)
(7.7933 -7.17e-05 0)
(11.0607 -0.0882304 0)
(8.50866 0.0790657 0)
(10.6554 0.0477122 0)
(8.76973 0.105437 0)
(9.78351 0.0196981 0)
(8.98069 0.0329965 0)
(8.26466 -0.10226 0)
(9.15214 0.120355 0)
(8.65261 -0.0273968 0)
(6.8745 -0.0309873 0)
(11.0966 0.157517 0)
(4.82973 -0.0487232 0)
(11.3586 0.0435048 0)
(6.05382 0.172612 0)
(9.82476 -0.0212888 0)
(9.2078 0.0117681 0)
(10.7469 0.0426929 0)
(9.38311 -0.0464206 0)
(11.0631 0.128731 0)
(8.45557 0.0764825 0)
(11.2253 -0.0992196 0)
(8.52169 0.0273728 0)
(10.779 -0.0988793 0)
(10.1918 0.0483723 0)
(10.7994 -0.0435707 0)
(10.856 0.24737 0)
(10.2285 0.0844236 0)
(9.40159 -0.182971 0)
(10.8197 0.41935 0)
(6.73556 -0.362549 0)
(12.5522 0.0760164 0)
(5.80096 0.152703 0)
(12.0169 -0.397568 0)
(8.76264 0.257962 0)
(10.7423 0.361289 0)
(9.73065 -0.0125793 0)
(10.6268 0.141227 0)
(9.27369 -0.0843954 0)
(10.3603 0.0755752 0)
(9.03017 0.0243948 0)
(11.3134 -0.13079 0)
(9.37253 0.181673 0)
(10.0432 -0.270957 0)
(10.6166 0.0859258 0)
(9.82231 -0.080554 0)
(10.1045 0.128928 0)
(11.4788 0.18964 0)
(9.16748 -0.0170164 0)
(11.774 0.449894 0)
(8.10708 -0.290989 0)
(12.6737 0.214686 0)
(6.9601 0.260678 0)
(11.9189 -0.724097 0)
(9.11579 0.472536 0)
(11.0595 0.378962 0)
(9.86568 -0.0642263 0)
(10.0105 0.13547 0)
(9.82107 -0.000808361 0)
(10.5909 0.144432 0)
(8.8515 -0.0565538 0)
(11.0835 -0.227627 0)
(10.1865 0.300985 0)
(9.33621 -0.364617 0)
(11.0927 0.0706821 0)
(9.69854 0.0766009 0)
(9.42547 -0.0873046 0)
(11.2819 0.301062 0)
(9.49972 -0.197676 0)
(11.0316 0.563066 0)
(9.86116 -0.349245 0)
(12.1829 0.125711 0)
(8.69285 0.449899 0)
(11.6494 -0.882178 0)
(9.37258 0.523577 0)
(10.9919 0.492352 0)
(9.96002 0.000372215 0)
(9.92779 0.166684 0)
(9.7687 -0.175221 0)
(10.4748 0.212739 0)
(9.26527 -0.0234265 0)
(10.8601 -0.413192 0)
(9.97321 0.496286 0)
(9.48199 -0.437723 0)
(10.7948 -0.0262942 0)
(9.6435 0.275339 0)
(9.16606 -0.225405 0)
(10.9471 0.154089 0)
(10.0118 0.0158032 0)
(9.63719 0.387498 0)
(10.8641 -0.454169 0)
(10.9823 0.262164 0)
(9.14853 0.520635 0)
(11.0854 -0.959572 0)
(9.78317 0.619345 0)
(10.3429 0.533761 0)
(10.0359 -0.0441278 0)
(10.1627 0.177165 0)
(9.6508 -0.121289 0)
(10.2478 0.216767 0)
(9.78052 -0.0675967 0)
(10.2255 -0.414774 0)
(10.1186 0.599106 0)
(9.9041 -0.486002 0)
(10.1039 0.00928884 0)
(10.086 0.421156 0)
(9.24185 -0.362546 0)
(10.4474 0.135138 0)
(10.29 0.126605 0)
(9.03765 0.277178 0)
(11.1325 -0.4762 0)
(10.0918 0.357219 0)
(9.21428 0.524439 0)
(11.1507 -1.06506 0)
(9.97459 0.706747 0)
(9.6269 0.575575 0)
(9.98546 -0.0524833 0)
(10.0412 0.252597 0)
(9.857 -0.171939 0)
(10.1636 0.143219 0)
(10.1722 0.0273744 0)
(9.98773 -0.508451 0)
(10.2719 0.560318 0)
(10.0971 -0.40146 0)
(9.7607 -0.0965033 0)
(10.4319 0.492117 0)
(9.6509 -0.311437 0)
(10.1985 -0.0444388 0)
(10.691 0.293537 0)
(9.25912 0.154638 0)
(11.157 -0.569367 0)
(9.91164 0.484207 0)
(9.54865 0.436926 0)
(11.2375 -1.16794 0)
(9.89447 0.842162 0)
(9.40635 0.563693 0)
(9.80434 -0.0527424 0)
(10.1292 0.220225 0)
(10.1389 -0.1419 0)
(9.94298 0.114783 0)
(10.3093 0.025439 0)
(9.89401 -0.465244 0)
(9.96562 0.578352 0)
(10.5244 -0.346846 0)
(9.48908 -0.113654 0)
(10.4409 0.493364 0)
(10.2162 -0.310854 0)
(9.89102 -0.0962434 0)
(10.583 0.369276 0)
(9.92636 0.11302 0)
(10.769 -0.512295 0)
(9.82646 0.591612 0)
(10.0677 0.339464 0)
(11.1249 -1.12845 0)
(9.44704 1.01484 0)
(9.80176 0.507312 0)
(9.9809 -0.0540971 0)
(9.92396 0.196868 0)
(10.2894 -0.114115 0)
(9.89795 0.0665107 0)
(10.2522 0.0745924 0)
(9.98283 -0.450533 0)
(9.79079 0.437985 0)
(10.5925 -0.272859 0)
(9.55739 -0.126623 0)
(10.2771 0.395797 0)
(10.4498 -0.213654 0)
(9.86452 -0.12549 0)
(10.2566 0.330372 0)
(10.4381 0.072602 0)
(10.248 -0.471659 0)
(9.86889 0.554049 0)
(10.5885 0.27784 0)
(10.5933 -1.05063 0)
(9.19834 1.066 0)
(10.4688 0.42709 0)
(10.0647 -0.0408833 0)
(9.70362 0.181621 0)
(10.5055 -0.138457 0)
(9.70929 0.0731626 0)
(10.2667 0.0593452 0)
(10.028 -0.391106 0)
(9.70057 0.426788 0)
(10.4809 -0.259375 0)
(9.71153 -0.108716 0)
(10.0303 0.34172 0)
(10.5731 -0.236458 0)
(9.81469 -0.081552 0)
(10.0117 0.286744 0)
(10.6643 0.0485699 0)
(9.9303 -0.329257 0)
(9.82284 0.448043 0)
(10.8668 0.246137 0)
(10.1641 -0.874275 0)
(9.32693 0.982409 0)
(10.8454 0.335576 0)
(9.93801 -0.0228147 0)
(9.91385 0.122443 0)
(10.3498 -0.0980928 0)
(9.7285 0.0757656 0)
(10.2737 0.0491779 0)
(9.94007 -0.340034 0)
(9.88188 0.320543 0)
(10.346 -0.232188 0)
(9.84103 -0.0869367 0)
(9.97826 0.266183 0)
(10.5318 -0.179049 0)
(9.75175 -0.0401806 0)
(10.0181 0.204713 0)
(10.6478 0.0509443 0)
(9.78138 -0.251012 0)
(9.97543 0.302404 0)
(10.8684 0.266666 0)
(10.0213 -0.740075 0)
(9.55947 0.809701 0)
(11.1286 0.308124 0)
(9.92018 -0.0249396 0)
(9.93331 0.123634 0)
(10.2787 -0.0937577 0)
(9.93261 0.0344798 0)
(10.0709 0.0588527 0)
(10.1728 -0.314746 0)
(9.78376 0.294647 0)
(10.3236 -0.201444 0)
(9.95962 -0.0888516 0)
(9.85027 0.228041 0)
(10.5725 -0.192567 0)
(9.76467 -0.00670191 0)
(9.99236 0.139731 0)
(10.6387 0.0483396 0)
(9.79484 -0.150169 0)
(10.0451 0.16861 0)
(10.7581 0.261077 0)
(10.1471 -0.582144 0)
(9.6751 0.620813 0)
(11.2305 0.260287 0)
(9.94119 -0.00824621 0)
(9.98096 0.0721916 0)
(10.304 -0.086194 0)
(9.84042 0.0723301 0)
(10.0989 0.0369139 0)
(10.159 -0.270993 0)
(9.6645 0.256779 0)
(10.4335 -0.206278 0)
(9.84561 -0.049408 0)
(9.90058 0.179586 0)
(10.4762 -0.153573 0)
(9.76906 0.0341318 0)
(9.99139 0.0835733 0)
(10.4749 0.0535059 0)
(9.90124 -0.107673 0)
(9.96697 0.0960205 0)
(10.6766 0.272168 0)
(10.2013 -0.482253 0)
(9.64063 0.473531 0)
(11.1611 0.293652 0)
(10.0222 -0.0267084 0)
(9.90509 0.076308 0)
(10.2581 -0.046472 0)
(9.90731 0.0197672 0)
(10.0892 0.0306045 0)
(10.1233 -0.215308 0)
(9.84364 0.185618 0)
(10.2981 -0.178896 0)
(9.93058 -0.0255911 0)
(9.92975 0.118138 0)
(10.4398 -0.144301 0)
(9.83254 0.0550507 0)
(10.0401 0.0348044 0)
(10.3986 0.0383729 0)
(10.0622 -0.0200273 0)
(9.91559 -0.013182 0)
(10.6066 0.220279 0)
(10.3557 -0.311439 0)
(9.7786 0.323839 0)
(10.6239 0.16395 0)
(9.97947 -0.00924446 0)
(9.90579 0.0492133 0)
(10.3383 -0.0728269 0)
(9.84992 0.0537515 0)
(10.0982 0.0275187 0)
(10.1664 -0.206043 0)
(9.75366 0.173013 0)
(10.3445 -0.166545 0)
(9.9575 -0.0320023 0)
(9.84111 0.105849 0)
(10.5356 -0.122158 0)
(9.67399 0.0578256 0)
(10.2226 0.026112 0)
(10.2019 0.0175847 0)
(10.0962 -0.00832776 0)
(10.0267 0.00184843 0)
(10.5469 0.176238 0)
(10.0477 -0.286054 0)
(10.3221 0.315915 0)
(10.1672 0.10153 0)
(9.97155 -0.0232781 0)
(9.98661 0.0311534 0)
(10.2351 -0.0115381 0)
(9.90737 0.0106457 0)
(10.1084 -0.00169704 0)
(10.0893 -0.121797 0)
(9.85545 0.0903246 0)
(10.3238 -0.155898 0)
(9.86416 0.0355994 0)
(9.98094 0.00860258 0)
(10.4367 -0.0666195 0)
(9.66441 0.0672932 0)
(10.2578 -0.0287182 0)
(10.1742 0.0531625 0)
(10.1357 0.0104673 0)
(9.82263 -0.092375 0)
(10.8855 0.214019 0)
(9.75369 -0.240443 0)
(10.4453 0.228194 0)
(10.355 0.0813646 0)
(9.99016 -0.0181967 0)
(9.97469 0.0196849 0)
(10.2164 -0.0348838 0)
(9.97887 0.0178071 0)
(10.02 0.0215899 0)
(10.1805 -0.132381 0)
(9.84093 0.0720752 0)
(10.2916 -0.11378 0)
(9.95857 -0.0127595 0)
(9.97118 0.00616725 0)
(10.3204 -0.0383709 0)
(9.95184 0.0333388 0)
(9.98911 -0.0202735 0)
(10.3065 0.0142194 0)
(10.2138 0.0412903 0)
(9.77991 -0.104885 0)
(10.8301 0.150876 0)
(10.099 -0.155057 0)
(10.2293 0.157155 0)
(10.601 0.0269816 0)
(10.009 -0.0364593 0)
(9.98401 0.0130697 0)
(10.1541 0.0153331 0)
(10.0389 -0.00808268 0)
(9.9955 -0.0121771 0)
(10.2049 -0.0584367 0)
(9.89248 0.00544341 0)
(10.2935 -0.113895 0)
(9.86797 0.0582166 0)
(10.1515 -0.0633366 0)
(10.0449 -0.0101772 0)
(10.1851 0.0683011 0)
(9.77998 -0.0636654 0)
(10.5509 0.0191218 0)
(9.8733 0.0850327 0)
(10.2577 -0.193418 0)
(10.3562 0.161593 0)
(10.6478 -0.115303 0)
(9.61082 0.0884455 0)
(11.2938 -0.0554373 0)
(10.0378 -0.0389332 0)
(9.85671 0.0138984 0)
(10.2092 -0.0210521 0)
(10.0822 -0.0159005 0)
(9.99728 0.0152803 0)
(10.2443 -0.0848791 0)
(9.95681 -0.00387815 0)
(10.1238 -0.0575276 0)
(9.86621 -0.0224669 0)
(10.1041 -0.0204025 0)
(9.7432 -0.00842029 0)
(10.4057 0.0239324 0)
(9.46987 -0.0375537 0)
(10.7082 -0.0200419 0)
(9.59548 0.0718125 0)
(10.5802 -0.145965 0)
(9.61406 0.0208235 0)
(11.0872 0.0148108 0)
(8.83265 0.0218305 0)
(11.8134 -0.110223 0)
(9.95585 -0.0279504 0)
(9.57112 0.00894764 0)
(10.196 0.00261778 0)
(9.61763 -0.0262146 0)
(9.66062 -0.0161993 0)
(9.73455 -0.0155299 0)
(9.30485 -0.0317941 0)
(9.26193 -0.0304391 0)
(9.13275 0.0218319 0)
(9.07567 -0.043797 0)
(8.80744 -0.0163518 0)
(9.1821 0.0504102 0)
(8.85236 -0.0804753 0)
(8.81013 0.00859812 0)
(8.81817 0.0495899 0)
(9.1716 -0.13139 0)
(7.65502 0.0671984 0)
(9.49075 0.019454 0)
(7.77945 -0.0512302 0)
(9.39443 -0.0519973 0)
(3.80017 1.23394 0)
(8.36576 -0.268659 0)
(5.2603 0.650027 0)
(6.49164 1.30982 0)
(10.2458 1.21832 0)
(8.56902 0.762818 0)
(9.00339 -1.14649 0)
(9.51788 -3.44358 0)
(9.81242 -4.00124 0)
(9.03907 -3.67552 0)
(9.06722 -3.09269 0)
(8.77892 -2.26018 0)
(7.86437 -1.67634 0)
(6.86873 -1.4091 0)
(6.61435 -1.03403 0)
(5.97836 -0.739778 0)
(5.52395 -0.517132 0)
(5.58331 -0.25996 0)
(5.56083 -0.0856309 0)
(5.40136 -0.000775213 0)
(5.32032 0.0446811 0)
(5.35086 0.0559601 0)
(5.40525 0.0280509 0)
(5.41617 -0.0250637 0)
(5.37517 -0.0783275 0)
(5.30936 -0.11344 0)
(5.24558 -0.124614 0)
(5.19669 -0.115452 0)
(5.16374 -0.0943793 0)
(5.14276 -0.0701423 0)
(5.12958 -0.0485755 0)
(5.12135 -0.03199 0)
(5.11632 -0.0203478 0)
(5.11334 -0.0126411 0)
(5.11165 -0.00772939 0)
(5.11073 -0.00467416 0)
(5.11025 -0.00280362 0)
(5.11 -0.00167062 0)
(5.10988 -0.000990046 0)
(5.10982 -0.000583721 0)
(5.1098 -0.000342703 0)
(5.10978 -0.000200243 0)
(5.10977 -0.000116617 0)
(5.10977 -6.7636e-05 0)
(5.10977 -3.90319e-05 0)
(5.10977 -2.25688e-05 0)
(5.10977 -1.28432e-05 0)
(5.10977 -7.43502e-06 0)
(5.10977 -4.18021e-06 0)
(5.10977 -2.35203e-06 0)
(5.10977 -1.41715e-06 0)
(5.10977 -6.9071e-07 0)
(5.10977 -4.65033e-07 0)
(5.10977 -2.64031e-07 0)
(5.10977 -6.68941e-08 0)
(5.10977 -1.57491e-07 0)
(5.10977 -1.22099e-08 0)
(5.10977 -5.24731e-10 0)
(5.10977 -9.76266e-08 0)
(5.10977 5.52826e-08 0)
(5.10977 -1.18488e-08 0)
(5.10977 -5.93425e-08 0)
(5.10977 8.07362e-08 0)
(5.10977 -3.76774e-08 0)
(5.10977 -4.45842e-08 0)
(5.10977 8.25125e-08 0)
(5.10977 -5.52852e-08 0)
(5.10977 -2.4762e-08 0)
(5.10977 9.28005e-08 0)
(5.10977 -6.10586e-08 0)
(5.10977 -3.40289e-08 0)
(5.10977 1.01059e-07 0)
(5.10977 -2.42062e-08 0)
(5.10977 -7.72018e-08 0)
(5.10977 8.41646e-08 0)
(5.10977 3.32739e-08 0)
(5.10977 -8.31467e-08 0)
(5.10977 1.16339e-08 0)
(5.10977 7.69367e-08 0)
(5.10977 -2.20654e-08 0)
(5.10976 -7.05324e-08 0)
(5.10977 4.66089e-08 0)
(5.10976 4.29667e-08 0)
(5.10978 -2.7466e-08 0)
(5.10976 -4.85976e-08 0)
(5.10978 2.65818e-08 0)
(5.10976 5.5107e-08 0)
(5.10977 -1.8106e-08 0)
(5.10977 -4.97647e-08 0)
(5.10976 -6.85967e-09 0)
(5.10977 6.36311e-08 0)
(5.10976 1.51537e-08 0)
(5.10977 -1.08686e-07 0)
(5.10976 -2.85983e-08 0)
(5.10977 5.17634e-08 0)
(5.10977 -3.65178e-10 0)
(5.10976 -8.72313e-09 0)
(5.10977 -4.23478e-08 0)
(5.10977 -2.31162e-08 0)
(5.10977 1.31793e-08 0)
(7.38992 0.883917 0)
(12.8442 0.33561 0)
(6.8481 1.10711 0)
(8.01756 0.764988 0)
(9.57874 0.923496 0)
(8.21044 0.927769 0)
(10.3422 -1.33401 0)
(10.5197 -3.55769 0)
(10.3045 -3.90336 0)
(9.25951 -3.47868 0)
(8.71711 -2.96809 0)
(8.43771 -2.16777 0)
(7.88775 -1.51855 0)
(6.86327 -1.30288 0)
(6.57951 -0.959555 0)
(6.16129 -0.600705 0)
(5.52955 -0.437561 0)
(5.45285 -0.260623 0)
(5.56094 -0.0793679 0)
(5.4992 0.0249724 0)
(5.39105 0.0670466 0)
(5.35668 0.0608318 0)
(5.36509 0.0160881 0)
(5.36266 -0.0413714 0)
(5.33547 -0.0868812 0)
(5.29214 -0.113456 0)
(5.24581 -0.120584 0)
(5.20533 -0.111019 0)
(5.17387 -0.0909533 0)
(5.15107 -0.0678323 0)
(5.13534 -0.0471024 0)
(5.12499 -0.0310736 0)
(5.1185 -0.0197882 0)
(5.11462 -0.0123074 0)
(5.11239 -0.00753635 0)
(5.11116 -0.00456595 0)
(5.1105 -0.00274475 0)
(5.11015 -0.00163932 0)
(5.10997 -0.000973624 0)
(5.10988 -0.000575277 0)
(5.10983 -0.000338215 0)
(5.1098 -0.000197965 0)
(5.10978 -0.000115447 0)
(5.10978 -6.69538e-05 0)
(5.10977 -3.86754e-05 0)
(5.10977 -2.2355e-05 0)
(5.10977 -1.27896e-05 0)
(5.10977 -7.36135e-06 0)
(5.10977 -4.1447e-06 0)
(5.10977 -2.30761e-06 0)
(5.10977 -1.36367e-06 0)
(5.10977 -7.30562e-07 0)
(5.10977 -4.24976e-07 0)
(5.10977 -2.51182e-07 0)
(5.10977 -1.36564e-07 0)
(5.10977 -1.16941e-07 0)
(5.10977 -2.68632e-08 0)
(5.10977 3.17946e-09 0)
(5.10977 -3.6383e-08 0)
(5.10977 -7.47611e-09 0)
(5.10977 -2.66857e-08 0)
(5.10977 -1.27437e-08 0)
(5.10977 4.21356e-08 0)
(5.10977 -2.70042e-08 0)
(5.10977 -3.33076e-08 0)
(5.10977 1.90776e-08 0)
(5.10977 -8.65155e-09 0)
(5.10977 1.38306e-08 0)
(5.10977 2.43716e-08 0)
(5.10977 -4.33045e-08 0)
(5.10977 -1.47705e-08 0)
(5.10977 4.69355e-08 0)
(5.10977 2.13962e-08 0)
(5.10977 -8.18259e-10 0)
(5.10977 1.30264e-08 0)
(5.10977 -4.22211e-09 0)
(5.10977 -1.79348e-08 0)
(5.10977 1.51603e-08 0)
(5.10977 2.57883e-08 0)
(5.10977 4.82315e-09 0)
(5.10976 -3.04707e-08 0)
(5.10977 -7.54148e-10 0)
(5.10976 -1.29019e-08 0)
(5.10978 -8.51045e-09 0)
(5.10976 8.44382e-09 0)
(5.10978 1.36407e-08 0)
(5.10976 4.16504e-08 0)
(5.10977 -4.58497e-08 0)
(5.10977 6.36505e-09 0)
(5.10976 3.25148e-09 0)
(5.10977 -2.67778e-09 0)
(5.10976 6.2314e-08 0)
(5.10977 -1.22925e-07 0)
(5.10976 -1.33024e-08 0)
(5.10977 4.52277e-08 0)
(5.10977 -8.20368e-08 0)
(5.10976 5.5619e-08 0)
(5.10977 7.86951e-09 0)
(5.10977 -5.79937e-08 0)
(5.10977 2.81772e-09 0)
(8.33126 0.66588 0)
(13.1308 0.149471 0)
(9.36814 1.39204 0)
(9.91761 0.736693 0)
(8.40714 1.07386 0)
(8.44908 0.768659 0)
(11.5113 -1.58515 0)
(11.6998 -3.51993 0)
(11.1343 -3.74374 0)
(9.89954 -3.35224 0)
(9.04573 -2.97005 0)
(8.67746 -2.10983 0)
(8.2622 -1.42846 0)
(7.17146 -1.17119 0)
(6.52245 -0.924267 0)
(6.25493 -0.556831 0)
(5.67594 -0.37928 0)
(5.40143 -0.254545 0)
(5.50426 -0.0879717 0)
(5.56468 0.0291142 0)
(5.49383 0.0662931 0)
(5.40372 0.056318 0)
(5.35235 0.0272723 0)
(5.32704 -0.00933013 0)
(5.30351 -0.0521931 0)
(5.27353 -0.0863164 0)
(5.23994 -0.10186 0)
(5.20758 -0.0983699 0)
(5.17951 -0.0823207 0)
(5.15693 -0.0619869 0)
(5.14 -0.043284 0)
(5.12821 -0.0287046 0)
(5.12055 -0.0183949 0)
(5.11586 -0.0115266 0)
(5.11313 -0.00711614 0)
(5.11159 -0.00434664 0)
(5.11075 -0.00263258 0)
(5.1103 -0.0015825 0)
(5.11006 -0.00094485 0)
(5.10993 -0.0005606 0)
(5.10985 -0.000330496 0)
(5.10982 -0.000193929 0)
(5.10979 -0.000113355 0)
(5.10978 -6.57528e-05 0)
(5.10978 -3.79609e-05 0)
(5.10977 -2.19833e-05 0)
(5.10977 -1.26464e-05 0)
(5.10977 -7.24037e-06 0)
(5.10977 -4.03988e-06 0)
(5.10977 -2.22666e-06 0)
(5.10977 -1.33977e-06 0)
(5.10977 -7.56728e-07 0)
(5.10977 -3.71845e-07 0)
(5.10977 -2.49759e-07 0)
(5.10977 -2.12404e-07 0)
(5.10977 -1.30932e-07 0)
(5.10977 1.04257e-08 0)
(5.10977 6.40005e-08 0)
(5.10977 -1.39848e-08 0)
(5.10977 -8.57031e-08 0)
(5.10977 -7.30618e-08 0)
(5.10977 2.49561e-08 0)
(5.10977 4.81865e-08 0)
(5.10977 -4.36751e-08 0)
(5.10977 -7.50578e-08 0)
(5.10977 -1.96621e-08 0)
(5.10977 4.81283e-08 0)
(5.10977 6.18276e-08 0)
(5.10977 -2.36919e-08 0)
(5.10977 -8.4211e-08 0)
(5.10977 -2.84399e-08 0)
(5.10977 6.40132e-08 0)
(5.10977 1.08929e-07 0)
(5.10977 5.86868e-08 0)
(5.10977 -4.18572e-08 0)
(5.10977 -5.64633e-08 0)
(5.10977 -4.691e-10 0)
(5.10977 4.21537e-08 0)
(5.10977 3.30161e-08 0)
(5.10977 3.01735e-08 0)
(5.10976 -4.14049e-08 0)
(5.10977 -6.60557e-08 0)
(5.10976 -7.25343e-08 0)
(5.10978 8.50483e-09 0)
(5.10976 7.04207e-08 0)
(5.10978 3.49665e-08 0)
(5.10976 5.07246e-08 0)
(5.10977 -9.68654e-08 0)
(5.10977 3.42456e-08 0)
(5.10976 7.07354e-09 0)
(5.10977 -1.13724e-08 0)
(5.10976 1.22208e-07 0)
(5.10977 -1.76926e-07 0)
(5.10976 -5.83386e-09 0)
(5.10977 2.33847e-08 0)
(5.10977 -1.51589e-07 0)
(5.10976 1.26473e-07 0)
(5.10977 2.99932e-08 0)
(5.10977 -7.1219e-08 0)
(5.10977 1.22726e-08 0)
(9.05775 0.426595 0)
(11.6243 0.0803634 0)
(11.0878 1.49153 0)
(11.5257 1.03623 0)
(8.85435 1.22285 0)
(9.94143 0.454005 0)
(12.8264 -1.81525 0)
(11.9674 -3.45037 0)
(10.575 -3.57798 0)
(9.93046 -3.0685 0)
(9.04674 -2.75431 0)
(8.54663 -1.99854 0)
(8.29565 -1.28598 0)
(7.65299 -0.985377 0)
(6.76819 -0.751784 0)
(6.28977 -0.436528 0)
(5.73214 -0.288376 0)
(5.36857 -0.23483 0)
(5.40367 -0.111238 0)
(5.52528 0.0293989 0)
(5.54331 0.10233 0)
(5.49493 0.0930578 0)
(5.43599 0.0307079 0)
(5.38165 -0.0446054 0)
(5.33307 -0.0948787 0)
(5.2896 -0.11813 0)
(5.25053 -0.12044 0)
(5.21608 -0.107785 0)
(5.18657 -0.0865416 0)
(5.1624 -0.0635272 0)
(5.14389 -0.0435703 0)
(5.13079 -0.0285019 0)
(5.12219 -0.0180753 0)
(5.11688 -0.0112419 0)
(5.11375 -0.00690784 0)
(5.11197 -0.00420957 0)
(5.11098 -0.00254818 0)
(5.11043 -0.00153264 0)
(5.11014 -0.000916078 0)
(5.10997 -0.000544276 0)
(5.10988 -0.000321349 0)
(5.10983 -0.000188752 0)
(5.1098 -0.000110378 0)
(5.10979 -6.40886e-05 0)
(5.10978 -3.70652e-05 0)
(5.10977 -2.14605e-05 0)
(5.10977 -1.23179e-05 0)
(5.10977 -7.0503e-06 0)
(5.10977 -3.97338e-06 0)
(5.10977 -2.20238e-06 0)
(5.10977 -1.29632e-06 0)
(5.10977 -7.30899e-07 0)
(5.10977 -3.93006e-07 0)
(5.10977 -2.42161e-07 0)
(5.10977 -1.7169e-07 0)
(5.10977 -1.0921e-07 0)
(5.10977 -1.1948e-08 0)
(5.10977 1.59043e-08 0)
(5.10977 -1.5957e-08 0)
(5.10977 -4.14214e-08 0)
(5.10977 -4.43366e-08 0)
(5.10977 8.44668e-09 0)
(5.10977 2.79209e-08 0)
(5.10977 -2.75541e-08 0)
(5.10977 -4.09082e-08 0)
(5.10977 -1.04704e-08 0)
(5.10977 2.02915e-08 0)
(5.10977 3.43574e-08 0)
(5.10977 -6.90494e-09 0)
(5.10977 -4.4776e-08 0)
(5.10977 -1.06404e-08 0)
(5.10977 3.72613e-08 0)
(5.10977 5.58393e-08 0)
(5.10977 3.29095e-08 0)
(5.10977 -1.82551e-08 0)
(5.10977 -2.22129e-08 0)
(5.10977 2.58187e-09 0)
(5.10977 2.30854e-08 0)
(5.10977 6.1093e-09 0)
(5.10977 2.01153e-08 0)
(5.10976 -2.65321e-08 0)
(5.10977 -2.46044e-08 0)
(5.10976 -4.90828e-08 0)
(5.10978 9.57811e-10 0)
(5.10976 4.53334e-08 0)
(5.10978 -1.21357e-10 0)
(5.10976 6.90814e-08 0)
(5.10977 -9.97133e-08 0)
(5.10977 6.24179e-08 0)
(5.10976 4.37115e-09 0)
(5.10977 -5.64418e-08 0)
(5.10976 1.54063e-07 0)
(5.10977 -2.20686e-07 0)
(5.10976 2.36116e-08 0)
(5.10977 8.58147e-08 0)
(5.10977 -2.04591e-07 0)
(5.10976 1.56077e-07 0)
(5.10977 4.21513e-08 0)
(5.10977 -1.21683e-07 0)
(5.10977 4.75704e-10 0)
(9.768 0.407681 0)
(10.6369 -0.0801838 0)
(11.645 1.32708 0)
(12.0504 1.26862 0)
(10.1519 1.42321 0)
(11.9844 0.199258 0)
(13.4166 -1.91022 0)
(12.1912 -3.21704 0)
(10.4316 -3.40466 0)
(9.89041 -3.07755 0)
(9.19987 -2.64516 0)
(8.74042 -1.96713 0)
(8.11085 -1.26603 0)
(7.65517 -0.913233 0)
(6.89143 -0.670464 0)
(6.52878 -0.346968 0)
(6.05926 -0.19029 0)
(5.52899 -0.173286 0)
(5.39226 -0.104523 0)
(5.49798 0.0045854 0)
(5.54874 0.0664719 0)
(5.50712 0.0701949 0)
(5.43937 0.0477391 0)
(5.38312 0.020879 0)
(5.33749 -0.016405 0)
(5.29546 -0.0529449 0)
(5.25738 -0.0750621 0)
(5.22383 -0.0783156 0)
(5.19429 -0.0677287 0)
(5.1689 -0.051664 0)
(5.14861 -0.0363032 0)
(5.13387 -0.0242354 0)
(5.12406 -0.0156804 0)
(5.11797 -0.00994997 0)
(5.11438 -0.00623207 0)
(5.11234 -0.00386299 0)
(5.11119 -0.00237187 0)
(5.11056 -0.0014427 0)
(5.11021 -0.000869711 0)
(5.11002 -0.000519982 0)
(5.10991 -0.000308315 0)
(5.10985 -0.000181653 0)
(5.10981 -0.000106483 0)
(5.10979 -6.19105e-05 0)
(5.10978 -3.58192e-05 0)
(5.10978 -2.07721e-05 0)
(5.10977 -1.19494e-05 0)
(5.10977 -6.82112e-06 0)
(5.10977 -3.83222e-06 0)
(5.10977 -2.12026e-06 0)
(5.10977 -1.25788e-06 0)
(5.10977 -7.19461e-07 0)
(5.10977 -3.62956e-07 0)
(5.10977 -2.27125e-07 0)
(5.10977 -1.97273e-07 0)
(5.10977 -1.13391e-07 0)
(5.10977 1.06113e-08 0)
(5.10977 4.92265e-08 0)
(5.10977 -1.13651e-08 0)
(5.10977 -7.29704e-08 0)
(5.10977 -6.3116e-08 0)
(5.10977 1.57315e-08 0)
(5.10977 3.51603e-08 0)
(5.10977 -3.54155e-08 0)
(5.10977 -6.55266e-08 0)
(5.10977 -2.11778e-08 0)
(5.10977 4.03409e-08 0)
(5.10977 5.13674e-08 0)
(5.10977 -2.11464e-08 0)
(5.10977 -6.75332e-08 0)
(5.10977 -1.94301e-08 0)
(5.10977 5.41879e-08 0)
(5.10977 9.10648e-08 0)
(5.10977 5.3031e-08 0)
(5.10977 -3.34385e-08 0)
(5.10977 -4.10906e-08 0)
(5.10977 3.92443e-09 0)
(5.10977 3.69679e-08 0)
(5.10977 1.46817e-08 0)
(5.10977 2.95544e-08 0)
(5.10976 -4.00316e-08 0)
(5.10977 -4.74923e-08 0)
(5.10976 -7.46505e-08 0)
(5.10978 5.67934e-09 0)
(5.10976 7.08492e-08 0)
(5.10978 7.64101e-09 0)
(5.10976 8.68287e-08 0)
(5.10977 -1.37651e-07 0)
(5.10977 8.37025e-08 0)
(5.10976 -1.16983e-09 0)
(5.10977 -6.11494e-08 0)
(5.10976 2.07005e-07 0)
(5.10977 -2.83781e-07 0)
(5.10976 4.25153e-08 0)
(5.10977 8.92146e-08 0)
(5.10977 -2.6346e-07 0)
(5.10976 2.10362e-07 0)
(5.10977 4.82965e-08 0)
(5.10977 -1.42742e-07 0)
(5.10977 9.22754e-09 0)
(10.4292 0.224733 0)
(11.094 -0.154032 0)
(11.494 1.1676 0)
(11.5044 1.38991 0)
(11.081 1.32396 0)
(13.2105 -0.0288506 0)
(13.5228 -1.85389 0)
(12.2586 -2.9663 0)
(10.6326 -3.1846 0)
(10.2147 -2.87671 0)
(9.46837 -2.47675 0)
(8.97127 -1.72923 0)
(7.9514 -1.18316 0)
(7.63102 -0.80715 0)
(6.88443 -0.564073 0)
(6.35036 -0.297386 0)
(6.19252 -0.122095 0)
(5.77363 -0.132223 0)
(5.42916 -0.1149 0)
(5.45413 0.00253671 0)
(5.57879 0.107521 0)
(5.59996 0.119296 0)
(5.54711 0.0535211 0)
(5.46986 -0.0358141 0)
(5.38621 -0.100385 0)
(5.31165 -0.125667 0)
(5.25562 -0.124369 0)
(5.21717 -0.107486 0)
(5.18935 -0.0833553 0)
(5.16695 -0.0592073 0)
(5.14864 -0.0394877 0)
(5.13469 -0.0253217 0)
(5.12498 -0.015887 0)
(5.11871 -0.00985723 0)
(5.11489 -0.00608028 0)
(5.11267 -0.00373279 0)
(5.1114 -0.00227933 0)
(5.11069 -0.00138252 0)
(5.11029 -0.00083242 0)
(5.11006 -0.000497561 0)
(5.10994 -0.000295136 0)
(5.10986 -0.000173944 0)
(5.10982 -0.000101976 0)
(5.1098 -5.93294e-05 0)
(5.10979 -3.43619e-05 0)
(5.10978 -1.99225e-05 0)
(5.10977 -1.14308e-05 0)
(5.10977 -6.51874e-06 0)
(5.10977 -3.69399e-06 0)
(5.10977 -2.06419e-06 0)
(5.10977 -1.20853e-06 0)
(5.10977 -6.90896e-07 0)
(5.10977 -3.69288e-07 0)
(5.10977 -2.18407e-07 0)
(5.10977 -1.58642e-07 0)
(5.10977 -9.95098e-08 0)
(5.10977 -5.01396e-09 0)
(5.10977 1.29831e-08 0)
(5.10977 -1.96782e-08 0)
(5.10977 -3.79805e-08 0)
(5.10977 -4.21586e-08 0)
(5.10977 2.45201e-09 0)
(5.10977 2.28263e-08 0)
(5.10977 -2.58578e-08 0)
(5.10977 -3.90889e-08 0)
(5.10977 -1.06307e-08 0)
(5.10977 1.88743e-08 0)
(5.10977 3.02975e-08 0)
(5.10977 -7.76819e-09 0)
(5.10977 -3.86465e-08 0)
(5.10977 -4.88998e-09 0)
(5.10977 3.73354e-08 0)
(5.10977 5.03679e-08 0)
(5.10977 2.92925e-08 0)
(5.10977 -1.57425e-08 0)
(5.10977 -1.3532e-08 0)
(5.10977 4.27697e-09 0)
(5.10977 2.26876e-08 0)
(5.10977 -3.9169e-09 0)
(5.10977 2.25849e-08 0)
(5.10976 -3.22898e-08 0)
(5.10977 -1.29892e-08 0)
(5.10976 -5.60647e-08 0)
(5.10978 2.54985e-09 0)
(5.10976 5.07648e-08 0)
(5.10978 -2.24079e-08 0)
(5.10976 1.06158e-07 0)
(5.10977 -1.48748e-07 0)
(5.10977 1.14369e-07 0)
(5.10976 -7.66928e-09 0)
(5.10977 -9.55459e-08 0)
(5.10976 2.38354e-07 0)
(5.10977 -3.33362e-07 0)
(5.10976 7.86359e-08 0)
(5.10977 1.39299e-07 0)
(5.10977 -3.1596e-07 0)
(5.10976 2.47257e-07 0)
(5.10977 5.49756e-08 0)
(5.10977 -1.88101e-07 0)
(5.10977 3.88105e-10 0)
(10.864 -0.0823642 0)
(11.428 -0.139414 0)
(10.96 1.09569 0)
(10.6543 1.31083 0)
(11.6467 1.03137 0)
(13.456 -0.120483 0)
(13.2087 -1.8112 0)
(12.1719 -2.724 0)
(10.6392 -3.03065 0)
(10.1558 -2.85313 0)
(9.72437 -2.42832 0)
(9.39392 -1.59608 0)
(8.12651 -1.02565 0)
(7.32205 -0.733347 0)
(7.07232 -0.405026 0)
(6.40304 -0.205711 0)
(6.17825 -0.0667652 0)
(6.05645 -0.00309115 0)
(5.64024 -0.0279298 0)
(5.33872 -0.0206983 0)
(5.38292 0.0360255 0)
(5.6045 0.0733435 0)
(5.80212 0.0724425 0)
(5.85158 0.055453 0)
(5.74363 0.0312907 0)
(5.56508 -0.00780572 0)
(5.40504 -0.0411907 0)
(5.29517 -0.0556046 0)
(5.22673 -0.0525642 0)
(5.18366 -0.0411822 0)
(5.1557 -0.0290463 0)
(5.13758 -0.0193945 0)
(5.1262 -0.0126131 0)
(5.1193 -0.00809953 0)
(5.11524 -0.00515994 0)
(5.11289 -0.00325928 0)
(5.11155 -0.00203759 0)
(5.11079 -0.00125877 0)
(5.11035 -0.000768347 0)
(5.1101 -0.000463815 0)
(5.10996 -0.000276948 0)
(5.10988 -0.00016395 0)
(5.10983 -9.64164e-05 0)
(5.1098 -5.62063e-05 0)
(5.10979 -3.25845e-05 0)
(5.10978 -1.89125e-05 0)
(5.10977 -1.08706e-05 0)
(5.10977 -6.18786e-06 0)
(5.10977 -3.51099e-06 0)
(5.10977 -1.96338e-06 0)
(5.10977 -1.15561e-06 0)
(5.10977 -6.62656e-07 0)
(5.10977 -3.36768e-07 0)
(5.10977 -1.95311e-07 0)
(5.10977 -1.6837e-07 0)
(5.10977 -9.92942e-08 0)
(5.10977 1.22342e-08 0)
(5.10977 3.48637e-08 0)
(5.10977 -1.28875e-08 0)
(5.10977 -5.72751e-08 0)
(5.10977 -5.49291e-08 0)
(5.10977 7.69483e-09 0)
(5.10977 2.58346e-08 0)
(5.10977 -2.89474e-08 0)
(5.10977 -5.47436e-08 0)
(5.10977 -1.94426e-08 0)
(5.10977 3.26184e-08 0)
(5.10977 4.0275e-08 0)
(5.10977 -1.80648e-08 0)
(5.10977 -5.19886e-08 0)
(5.10977 -1.27691e-08 0)
(5.10977 4.60086e-08 0)
(5.10977 7.26826e-08 0)
(5.10977 4.15508e-08 0)
(5.10977 -2.43358e-08 0)
(5.10977 -2.37019e-08 0)
(5.10977 2.51193e-09 0)
(5.10977 3.04383e-08 0)
(5.10977 2.27197e-09 0)
(5.10977 2.95742e-08 0)
(5.10976 -4.25578e-08 0)
(5.10977 -2.49583e-08 0)
(5.10976 -7.45284e-08 0)
(5.10978 6.12411e-09 0)
(5.10976 6.53396e-08 0)
(5.10978 -1.89026e-08 0)
(5.10976 1.24436e-07 0)
(5.10977 -1.828e-07 0)
(5.10977 1.40343e-07 0)
(5.10976 -2.38541e-08 0)
(5.10977 -9.90546e-08 0)
(5.10976 2.90041e-07 0)
(5.10977 -3.95909e-07 0)
(5.10976 1.12612e-07 0)
(5.10977 1.39558e-07 0)
(5.10977 -3.73605e-07 0)
(5.10976 3.02311e-07 0)
(5.10977 5.48478e-08 0)
(5.10977 -2.10365e-07 0)
(5.10977 9.68108e-09 0)
(10.9845 -0.359345 0)
(11.0798 -0.0546155 0)
(10.3921 1.14458 0)
(10.3036 1.15488 0)
(11.6036 0.701351 0)
(13.0696 -0.231359 0)
(12.972 -1.61149 0)
(11.8654 -2.51438 0)
(10.5885 -2.82703 0)
(10.0161 -2.77249 0)
(9.9701 -2.22663 0)
(9.34566 -1.40638 0)
(8.61862 -0.83334 0)
(7.34537 -0.651282 0)
(6.79617 -0.367184 0)
(6.40587 -0.112453 0)
(6.06003 -0.0667621 0)
(6.03896 -0.0515336 0)
(5.97628 0.00684704 0)
(5.69145 0.0511248 0)
(5.43039 0.0665627 0)
(5.34163 0.0475519 0)
(5.34938 0.00876644 0)
(5.35653 -0.0300253 0)
(5.33345 -0.0652987 0)
(5.2956 -0.0867266 0)
(5.25946 -0.0945807 0)
(5.22882 -0.0880892 0)
(5.20191 -0.0706822 0)
(5.17726 -0.0503942 0)
(5.15587 -0.0332694 0)
(5.13926 -0.0211026 0)
(5.12768 -0.0131834 0)
(5.12026 -0.00820736 0)
(5.11579 -0.0051072 0)
(5.1132 -0.00317001 0)
(5.11172 -0.00195687 0)
(5.11089 -0.0011983 0)
(5.11041 -0.000727143 0)
(5.11014 -0.000437314 0)
(5.10998 -0.000260586 0)
(5.10989 -0.000154076 0)
(5.10984 -9.05582e-05 0)
(5.10981 -5.28112e-05 0)
(5.10979 -3.0637e-05 0)
(5.10978 -1.77789e-05 0)
(5.10977 -1.01907e-05 0)
(5.10977 -5.7969e-06 0)
(5.10977 -3.3142e-06 0)
(5.10977 -1.87107e-06 0)
(5.10977 -1.09363e-06 0)
(5.10977 -6.2736e-07 0)
(5.10977 -3.2872e-07 0)
(5.10977 -1.81595e-07 0)
(5.10977 -1.36023e-07 0)
(5.10977 -8.77422e-08 0)
(5.10977 1.58905e-09 0)
(5.10977 9.91062e-09 0)
(5.10977 -2.20931e-08 0)
(5.10977 -3.37182e-08 0)
(5.10977 -4.06688e-08 0)
(5.10977 -1.96238e-09 0)
(5.10977 1.941e-08 0)
(5.10977 -2.31567e-08 0)
(5.10977 -3.65361e-08 0)
(5.10977 -1.00988e-08 0)
(5.10977 1.75562e-08 0)
(5.10977 2.59166e-08 0)
(5.10977 -8.43609e-09 0)
(5.10977 -3.21897e-08 0)
(5.10977 -5.20131e-10 0)
(5.10977 3.67581e-08 0)
(5.10977 4.468e-08 0)
(5.10977 2.37892e-08 0)
(5.10977 -1.32738e-08 0)
(5.10977 -4.51186e-09 0)
(5.10977 3.02087e-09 0)
(5.10977 2.20496e-08 0)
(5.10977 -1.20617e-08 0)
(5.10977 2.55674e-08 0)
(5.10976 -4.01187e-08 0)
(5.10977 1.05877e-09 0)
(5.10976 -6.36559e-08 0)
(5.10978 8.11507e-09 0)
(5.10976 5.14877e-08 0)
(5.10978 -4.16513e-08 0)
(5.10976 1.42143e-07 0)
(5.10977 -2.01157e-07 0)
(5.10977 1.73746e-07 0)
(5.10976 -3.58455e-08 0)
(5.10977 -1.20341e-07 0)
(5.10976 3.19463e-07 0)
(5.10977 -4.53033e-07 0)
(5.10976 1.5803e-07 0)
(5.10977 1.70078e-07 0)
(5.10977 -4.224e-07 0)
(5.10976 3.46432e-07 0)
(5.10977 5.55692e-08 0)
(5.10977 -2.49175e-07 0)
(5.10977 4.31841e-09 0)
(10.7783 -0.503364 0)
(10.4707 0.117331 0)
(9.87517 1.15027 0)
(10.4688 1.04479 0)
(11.3673 0.480637 0)
(12.4975 -0.312023 0)
(12.5691 -1.54911 0)
(11.5728 -2.31679 0)
(10.7848 -2.71436 0)
(9.88817 -2.72174 0)
(10.1078 -2.23215 0)
(9.58117 -1.24053 0)
(8.48674 -0.703691 0)
(7.6855 -0.450856 0)
(6.75305 -0.249758 0)
(6.21227 -0.0841728 0)
(6.16026 0.00638954 0)
(6.10845 0.0327853 0)
(5.87196 0.0477431 0)
(5.66525 0.0737953 0)
(5.59787 0.0923082 0)
(5.63612 0.0865631 0)
(5.70759 0.0716202 0)
(5.73376 0.0627801 0)
(5.6745 0.0516461 0)
(5.55017 0.021507 0)
(5.4139 -0.0149776 0)
(5.30519 -0.0358857 0)
(5.23178 -0.0384101 0)
(5.18531 -0.0311025 0)
(5.15627 -0.0218999 0)
(5.13817 -0.0144406 0)
(5.12695 -0.00935281 0)
(5.12006 -0.00607709 0)
(5.11587 -0.0039657 0)
(5.11335 -0.00257645 0)
(5.11186 -0.00165356 0)
(5.11099 -0.00104373 0)
(5.11048 -0.000647516 0)
(5.11018 -0.000395462 0)
(5.11001 -0.00023803 0)
(5.10991 -0.000141644 0)
(5.10985 -8.35994e-05 0)
(5.10981 -4.88803e-05 0)
(5.10979 -2.83891e-05 0)
(5.10978 -1.64763e-05 0)
(5.10978 -9.45489e-06 0)
(5.10977 -5.3749e-06 0)
(5.10977 -3.08674e-06 0)
(5.10977 -1.74802e-06 0)
(5.10977 -1.0251e-06 0)
(5.10977 -5.87368e-07 0)
(5.10977 -2.9236e-07 0)
(5.10977 -1.57007e-07 0)
(5.10977 -1.3476e-07 0)
(5.10977 -8.57776e-08 0)
(5.10977 1.288e-08 0)
(5.10977 2.40079e-08 0)
(5.10977 -1.52872e-08 0)
(5.10977 -4.32492e-08 0)
(5.10977 -4.889e-08 0)
(5.10977 1.99027e-09 0)
(5.10977 2.06841e-08 0)
(5.10977 -2.44775e-08 0)
(5.10977 -4.44751e-08 0)
(5.10977 -1.71662e-08 0)
(5.10977 2.58606e-08 0)
(5.10977 3.17951e-08 0)
(5.10977 -1.5758e-08 0)