/*--------------------------------*- C++ -*----------------------------------*\
| =========                 |                                                 |
| \\      /  F ield         | OpenFOAM: The Open Source CFD Toolbox           |
|  \\    /   O peration     | Version:  2.4.0                                 |
|   \\  /    A nd           | Web:      www.OpenFOAM.org                      |
|    \\/     M anipulation  |                                                 |
\*---------------------------------------------------------------------------*/
FoamFile
{
    version     2.0;
    format      ascii;
    class       surfaceScalarField;
    location    "1.46";
    object      phi;
}
// * * * * * * * * * * * * * * * * * * * * * * * * * * * * * * * * * * * * * //

dimensions      [0 3 -1 0 0 0 0];

internalField   nonuniform List<scalar> 
17320
(
1.75945e-05
7.40554e-06
1.16887e-05
5.90572e-06
8.66207e-06
3.02667e-06
7.29309e-06
1.36899e-06
6.80617e-06
4.86921e-07
6.3169e-06
4.8927e-07
5.96367e-06
3.53229e-07
5.89841e-06
6.52545e-08
5.79444e-06
1.0397e-07
5.62836e-06
1.66084e-07
5.52986e-06
9.84992e-08
5.51208e-06
1.77784e-08
5.27591e-06
2.36172e-07
5.26703e-06
8.88274e-09
5.28256e-06
-1.5536e-08
5.14522e-06
1.37339e-07
5.00594e-06
1.39286e-07
5.18247e-06
-1.76533e-07
4.75987e-06
4.226e-07
-9.22085e-07
5.68196e-06
2.53712e-05
7.03438e-06
2.33977e-05
7.87914e-06
2.08841e-05
5.54031e-06
1.92959e-05
2.95721e-06
1.81893e-05
1.59347e-06
1.70543e-05
1.62425e-06
1.62492e-05
1.15838e-06
1.57846e-05
5.29791e-07
1.54102e-05
4.78387e-07
1.50399e-05
5.36387e-07
1.4768e-05
3.70443e-07
1.45622e-05
2.23568e-07
1.41853e-05
6.13035e-07
1.41452e-05
4.90609e-08
1.39423e-05
1.87281e-07
1.3779e-05
3.00692e-07
1.34667e-05
4.51567e-07
1.36021e-05
-3.11931e-07
1.33799e-05
6.44784e-07
-9.91805e-07
1.34496e-05
2.649e-05
5.54434e-06
2.74353e-05
6.93392e-06
2.66661e-05
6.30943e-06
2.62104e-05
3.41299e-06
2.56425e-05
2.16128e-06
2.47378e-05
2.52895e-06
2.40938e-05
1.80246e-06
2.34884e-05
1.13513e-06
2.30416e-05
9.25197e-07
2.25837e-05
9.94297e-07
2.22409e-05
7.13254e-07
2.18968e-05
5.67663e-07
2.14598e-05
1.05009e-06
2.14236e-05
8.52611e-08
2.1053e-05
5.57821e-07
2.08641e-05
4.89613e-07
2.06003e-05
7.15322e-07
2.04622e-05
-1.73776e-07
2.05749e-05
5.32101e-07
-8.05343e-07
2.03884e-05
2.62203e-05
4.324e-06
2.79109e-05
5.24332e-06
2.81093e-05
6.11112e-06
2.83185e-05
3.20379e-06
2.85109e-05
1.96883e-06
2.82491e-05
2.79076e-06
2.8448e-05
1.60353e-06
2.8151e-05
1.43216e-06
2.81069e-05
9.69353e-07
2.78412e-05
1.25995e-06
2.77546e-05
7.99814e-07
2.74497e-05
8.72578e-07
2.70804e-05
1.41944e-06
2.71478e-05
1.7832e-08
2.68432e-05
8.62393e-07
2.65283e-05
8.0454e-07
2.65591e-05
6.84554e-07
2.61122e-05
2.73066e-07
2.6311e-05
3.33333e-07
-3.0198e-07
2.58076e-05
2.6388e-05
2.93599e-06
2.78478e-05
3.78357e-06
2.87233e-05
5.23561e-06
2.85732e-05
3.35384e-06
2.87089e-05
1.83317e-06
2.83859e-05
3.11374e-06
2.94183e-05
5.7109e-07
2.96128e-05
1.23767e-06
3.01631e-05
4.19063e-07
3.02961e-05
1.12695e-06
3.06408e-05
4.55087e-07
3.06105e-05
9.0288e-07
3.03791e-05
1.65085e-06
3.05063e-05
-1.09345e-07
3.06467e-05
7.21995e-07
3.02157e-05
1.23554e-06
3.04348e-05
4.65461e-07
2.99854e-05
7.22404e-07
2.98849e-05
4.33892e-07
3.33375e-07
2.92495e-05
2.64123e-05
1.52369e-06
2.67489e-05
3.44694e-06
2.87163e-05
3.26825e-06
2.95355e-05
2.53466e-06
2.97858e-05
1.58286e-06
2.84183e-05
4.48124e-06
2.88338e-05
1.55628e-07
2.92079e-05
8.6348e-07
2.98171e-05
-1.90105e-07
3.03071e-05
6.36973e-07
3.10761e-05
-3.13938e-07
3.16443e-05
3.34748e-07
3.16193e-05
1.67582e-06
3.15493e-05
-3.94045e-08
3.20395e-05
2.31802e-07
3.16736e-05
1.60143e-06
3.16077e-05
5.3143e-07
3.11907e-05
1.13941e-06
3.10045e-05
6.20059e-07
1.03614e-06
3.03017e-05
2.6213e-05
3.10659e-07
2.57049e-05
3.95511e-06
2.73071e-05
1.66601e-06
2.91663e-05
6.75474e-07
3.03729e-05
3.76253e-07
2.93034e-05
5.55074e-06
2.87969e-05
6.6217e-07
2.88467e-05
8.13652e-07
2.89994e-05
-3.42833e-07
2.95036e-05
1.32802e-07
3.01805e-05
-9.9089e-07
3.11464e-05
-6.31136e-07
3.13732e-05
1.44903e-06
3.13031e-05
3.07043e-08
3.16282e-05
-9.32896e-08
3.14313e-05
1.79829e-06
3.10059e-05
9.56833e-07
3.06916e-05
1.45374e-06
3.03062e-05
1.00541e-06
1.7879e-06
2.95545e-05
2.60244e-05
-7.13708e-07
2.57239e-05
4.25563e-06
2.64943e-05
8.95593e-07
2.80371e-05
-8.67403e-07
2.95763e-05
-1.16294e-06
3.00554e-05
5.07165e-06
2.94525e-05
1.26511e-06
2.89899e-05
1.27628e-06
2.86684e-05
-2.13273e-08
2.93207e-05
-5.19528e-07
2.97642e-05
-1.43438e-06
3.05982e-05
-1.46513e-06
3.09797e-05
1.06747e-06
3.09956e-05
1.48275e-08
3.06762e-05
2.26154e-07
3.05629e-05
1.9116e-06
3.00826e-05
1.43711e-06
3.04e-05
1.13632e-06
3.06799e-05
7.25535e-07
6.05014e-07
3.18628e-05
2.55179e-05
-1.23158e-06
2.61863e-05
3.58717e-06
2.72038e-05
-1.21909e-07
2.74961e-05
-1.15965e-06
2.80694e-05
-1.73624e-06
2.97404e-05
3.40058e-06
2.94909e-05
1.51467e-06
2.90392e-05
1.72796e-06
2.90073e-05
1.06257e-08
2.99946e-05
-1.50688e-06
2.98969e-05
-1.33671e-06
2.98182e-05
-1.38643e-06
3.03233e-05
5.62423e-07
3.04128e-05
-7.47103e-08
2.97603e-05
8.7869e-07
2.98466e-05
1.82527e-06
3.00343e-05
1.2494e-06
3.06859e-05
4.84787e-07
3.10246e-05
3.86827e-07
-2.07472e-07
3.18371e-05
2.53454e-05
-1.57699e-06
2.7381e-05
1.55157e-06
2.7979e-05
-7.1994e-07
2.60349e-05
7.84522e-07
2.58209e-05
-1.5223e-06
2.91354e-05
8.61197e-08
2.98164e-05
8.33643e-07
2.98375e-05
1.70684e-06
3.00692e-05
-2.21078e-07
3.04512e-05
-1.88884e-06
2.91261e-05
-1.1614e-08
2.82335e-05
-4.93787e-07
2.93852e-05
-5.89284e-07
2.9735e-05
-4.24566e-07
2.92064e-05
1.40728e-06
2.98076e-05
1.22412e-06
3.08224e-05
2.34568e-07
3.14864e-05
-1.79229e-07
3.17302e-05
1.43093e-07
-4.84089e-07
3.20068e-05
2.5695e-05
-2.27195e-06
2.73112e-05
-6.46725e-08
2.7203e-05
-6.11759e-07
2.60375e-05
1.95006e-06
2.62769e-05
-1.76167e-06
2.94876e-05
-3.12464e-06
3.01328e-05
1.88445e-07
3.05367e-05
1.30293e-06
3.0495e-05
-1.79382e-07
3.02712e-05
-1.66503e-06
2.88735e-05
1.38611e-06
2.8077e-05
3.02715e-07
2.94392e-05
-1.95145e-06
2.95415e-05
-5.2686e-07
2.9401e-05
1.54777e-06
3.04111e-05
2.13957e-07
3.15024e-05
-8.56662e-07
3.18802e-05
-5.57091e-07
3.18958e-05
1.27505e-07
-4.49224e-07
3.18609e-05
2.56701e-05
-2.94207e-06
2.59359e-05
-3.30477e-07
2.63403e-05
-1.01613e-06
2.78631e-05
4.2722e-07
2.85443e-05
-2.4428e-06
2.94914e-05
-4.07175e-06
2.9375e-05
3.04792e-07
3.00643e-05
6.1367e-07
2.97686e-05
1.16291e-07
2.96657e-05
-1.56212e-06
2.93396e-05
1.7122e-06
2.92752e-05
3.67136e-07
3.00947e-05
-2.77095e-06
2.9747e-05
-1.79184e-07
3.017e-05
1.12481e-06
3.11239e-05
-7.40024e-07
3.15828e-05
-1.31557e-06
3.16287e-05
-6.02983e-07
3.17881e-05
-3.18764e-08
-6.53189e-07
3.19921e-05
2.53305e-05
-3.27255e-06
2.54189e-05
-4.18895e-07
2.66579e-05
-2.25516e-06
2.91765e-05
-2.09133e-06
2.90779e-05
-2.34418e-06
2.82e-05
-3.19385e-06
2.8431e-05
7.37375e-08
2.95157e-05
-4.70976e-07
2.91757e-05
4.56279e-07
2.9345e-05
-1.73146e-06
2.98639e-05
1.19331e-06
3.04564e-05
-2.25346e-07
3.05162e-05
-2.83077e-06
3.00779e-05
2.59074e-07
3.08885e-05
3.14231e-07
3.147e-05
-1.32147e-06
3.12676e-05
-1.11321e-06
3.13129e-05
-6.48309e-07
3.17508e-05
-4.6971e-07
-1.03232e-06
3.21299e-05
2.52953e-05
-3.5678e-06
2.62489e-05
-1.37258e-06
2.74987e-05
-3.50492e-06
2.91534e-05
-3.74608e-06
2.84933e-05
-1.68406e-06
2.78513e-05
-2.55186e-06
2.88224e-05
-8.97307e-07
2.95272e-05
-1.1758e-06
2.95167e-05
4.66811e-07
2.97839e-05
-1.99868e-06
3.04937e-05
4.83525e-07
3.08988e-05
-6.30454e-07
3.05562e-05
-2.48824e-06
3.05435e-05
2.71814e-07
3.12119e-05
-3.54187e-07
3.13533e-05
-1.4629e-06
3.11605e-05
-9.20355e-07
3.15223e-05
-1.01014e-06
3.19916e-05
-9.39019e-07
-1.40033e-06
3.23596e-05
2.5409e-05
-3.97676e-06
2.68994e-05
-2.86301e-06
2.82457e-05
-4.85119e-06
2.88899e-05
-4.39031e-06
2.8293e-05
-1.08714e-06
2.84245e-05
-2.68337e-06
2.9352e-05
-1.82486e-06
2.93627e-05
-1.18643e-06
2.97873e-05
4.21404e-08
3.00658e-05
-2.27712e-06
3.06092e-05
-5.98785e-08
3.06143e-05
-6.35583e-07
3.04723e-05
-2.3462e-06
3.0866e-05
-1.21908e-07
3.10695e-05
-5.57695e-07
3.10258e-05
-1.41918e-06
3.11287e-05
-1.02323e-06
3.14438e-05
-1.32529e-06
3.16165e-05
-1.11171e-06
-1.59941e-06
3.18156e-05
2.55898e-05
-4.56658e-06
2.75361e-05
-4.80928e-06
2.85839e-05
-5.89899e-06
2.85402e-05
-4.34665e-06
2.85095e-05
-1.05637e-06
2.87897e-05
-2.96357e-06
2.92623e-05
-2.2975e-06
2.92042e-05
-1.12833e-06
2.97807e-05
-5.34304e-07
2.97029e-05
-2.19933e-06
3.00306e-05
-3.87596e-07
2.99772e-05
-5.82238e-07
2.9743e-05
-2.11193e-06
2.99875e-05
-3.66471e-07
2.98406e-05
-4.10762e-07
2.97056e-05
-1.28422e-06
2.97092e-05
-1.02682e-06
2.95996e-05
-1.21563e-06
2.94838e-05
-9.95949e-07
-1.63472e-06
2.95191e-05
2.60565e-05
-5.62306e-06
2.80068e-05
-6.75964e-06
2.82874e-05
-6.17956e-06
2.81245e-05
-4.18374e-06
2.85334e-05
-1.46523e-06
2.83016e-05
-2.73179e-06
2.81595e-05
-2.1554e-06
2.8009e-05
-9.7787e-07
2.80524e-05
-5.77719e-07
2.74803e-05
-1.62722e-06
2.75421e-05
-4.49406e-07
2.72869e-05
-3.27011e-07
2.67101e-05
-1.5351e-06
2.67178e-05
-3.74227e-07
2.6453e-05
-1.45892e-07
2.61111e-05
-9.42366e-07
2.58828e-05
-7.98537e-07
2.5499e-05
-8.31818e-07
2.52714e-05
-7.68303e-07
-1.46928e-06
2.51059e-05
2.64613e-05
-7.08441e-06
2.74835e-05
-7.7818e-06
2.67519e-05
-5.44796e-06
2.5964e-05
-3.39585e-06
2.5747e-05
-1.24818e-06
2.46931e-05
-1.67794e-06
2.38933e-05
-1.35561e-06
2.34111e-05
-4.95658e-07
2.30287e-05
-1.95332e-07
2.23097e-05
-9.08214e-07
2.21498e-05
-2.89504e-07
2.18283e-05
-5.53213e-09
2.11827e-05
-8.89459e-07
2.10682e-05
-2.59709e-07
2.08521e-05
7.02263e-08
2.04553e-05
-5.45641e-07
2.01503e-05
-4.93475e-07
1.97317e-05
-4.13218e-07
1.93953e-05
-4.31933e-07
-5.96264e-07
1.85223e-05
2.53503e-05
-7.43468e-06
2.34319e-05
-5.86343e-06
2.09573e-05
-2.97339e-06
1.90956e-05
-1.53412e-06
1.82365e-05
-3.89022e-07
1.70155e-05
-4.56933e-07
1.61119e-05
-4.52052e-07
1.56988e-05
-8.25545e-08
1.5445e-05
5.84969e-08
1.48608e-05
-3.24047e-07
1.46846e-05
-1.13331e-07
1.4555e-05
1.2412e-07
1.40047e-05
-3.39209e-07
1.38657e-05
-1.20647e-07
1.38119e-05
1.24006e-07
1.34657e-05
-1.99473e-07
1.31681e-05
-1.9587e-07
1.28761e-05
-1.21234e-07
1.26299e-05
-1.85681e-07
-1.4047e-07
1.21741e-05
1.75653e-05
1.17019e-05
8.7285e-06
7.19437e-06
6.80535e-06
6.34842e-06
5.89637e-06
5.81381e-06
5.87231e-06
5.54826e-06
5.43493e-06
5.55905e-06
5.21984e-06
5.09919e-06
5.2232e-06
5.02373e-06
4.82786e-06
4.70662e-06
4.52094e-06
4.38047e-06
6.11193e-06
-2.44144e-07
-1.85829e-07
6.3462e-06
-4.01483e-08
-1.9412e-07
6.46831e-06
-2.85281e-08
-9.35899e-08
6.64997e-06
-1.79313e-08
-1.63729e-07
6.8727e-06
-9.67896e-08
-1.25938e-07
7.15699e-06
-5.52874e-08
-2.29001e-07
7.44647e-06
-8.86944e-08
-2.0079e-07
7.72091e-06
-3.05629e-08
-2.43872e-07
7.96633e-06
-8.29813e-08
-1.62443e-07
8.18277e-06
-3.7391e-08
-1.79047e-07
8.37525e-06
-1.29852e-07
-6.26229e-08
8.56532e-06
-1.29442e-07
-6.06346e-08
8.75653e-06
-2.93578e-07
1.02371e-07
8.96133e-06
-3.58209e-07
1.53408e-07
9.14778e-06
-5.94758e-07
4.08306e-07
9.31993e-06
-7.21507e-07
5.49363e-07
9.44266e-06
-1.01849e-06
8.95756e-07
9.48913e-06
-1.14735e-06
1.10088e-06
9.37487e-06
-1.42093e-06
1.53519e-06
9.13976e-06
-1.46359e-06
1.69871e-06
8.69229e-06
-1.61501e-06
2.06247e-06
8.15512e-06
-1.48542e-06
2.0226e-06
7.48636e-06
-1.5565e-06
2.22526e-06
6.95586e-06
-1.32254e-06
1.85304e-06
6.56319e-06
-1.22875e-06
1.62143e-06
6.54803e-06
-5.65851e-07
5.81005e-07
6.92124e-06
7.57448e-08
-4.48958e-07
7.75378e-06
1.45951e-06
-2.29205e-06
8.77947e-06
2.97231e-06
-3.998e-06
1.00539e-05
4.85642e-06
-6.13081e-06
1.13224e-05
6.37245e-06
-7.64102e-06
1.2646e-05
7.46668e-06
-8.79023e-06
1.39085e-05
7.89159e-06
-9.15414e-06
1.51184e-05
7.71475e-06
-8.92462e-06
1.63021e-05
6.63759e-06
-7.82128e-06
1.73417e-05
5.29243e-06
-6.33199e-06
1.81765e-05
3.4537e-06
-4.28856e-06
1.89544e-05
1.50467e-06
-2.28252e-06
1.96278e-05
-5.06358e-07
-1.67052e-07
2.02275e-05
-2.14657e-06
1.54684e-06
2.06899e-05
-3.76502e-06
3.30267e-06
2.11517e-05
-5.38851e-06
4.92667e-06
2.16295e-05
-7.12504e-06
6.64725e-06
2.2151e-05
-8.60925e-06
8.08775e-06
2.2527e-05
-1.0065e-05
9.68899e-06
2.27434e-05
-1.11939e-05
1.09775e-05
2.26977e-05
-1.17063e-05
1.17521e-05
2.2522e-05
-1.11408e-05
1.13165e-05
2.22894e-05
-1.00577e-05
1.02903e-05
2.1921e-05
-8.31155e-06
8.6799e-06
2.15179e-05
-6.72005e-06
7.1232e-06
2.13284e-05
-4.97591e-06
5.16537e-06
2.14358e-05
-3.34942e-06
3.24199e-06
2.15809e-05
-1.47443e-06
1.32938e-06
2.14265e-05
4.68568e-07
-3.14166e-07
2.09925e-05
2.18184e-06
-1.74784e-06
2.05442e-05
3.21949e-06
-2.77115e-06
2.02973e-05
4.44873e-06
-4.20185e-06
2.0454e-05
5.38528e-06
-5.54198e-06
2.09318e-05
6.45203e-06
-6.92983e-06
2.1686e-05
7.06964e-06
-7.82387e-06
2.2494e-05
7.59412e-06
-8.40214e-06
2.31258e-05
7.5261e-06
-8.15783e-06
2.35662e-05
7.15092e-06
-7.59138e-06
2.37899e-05
5.98435e-06
-6.20804e-06
2.37059e-05
4.78384e-06
-4.69982e-06
2.35154e-05
3.07826e-06
-2.88779e-06
2.34712e-05
1.34753e-06
-1.30332e-06
2.34939e-05
-6.14275e-07
5.91535e-07
2.31939e-05
-1.91087e-06
2.21092e-06
2.25283e-05
-3.53928e-06
4.20486e-06
2.17024e-05
-5.10114e-06
5.92704e-06
2.10886e-05
-6.91309e-06
7.52685e-06
2.07594e-05
-7.55122e-06
7.88042e-06
2.0178e-05
-7.57678e-06
8.15817e-06
1.90796e-05
-7.13354e-06
8.23201e-06
1.81357e-05
-7.49802e-06
8.44186e-06
1.75333e-05
-7.34166e-06
7.94414e-06
1.72123e-05
-7.14394e-06
7.46495e-06
1.6747e-05
-6.12115e-06
6.58645e-06
1.65722e-05
-5.38012e-06
5.55491e-06
1.67222e-05
-3.88882e-06
3.73877e-06
1.71462e-05
-2.57809e-06
2.15414e-06
1.74774e-05
-7.32499e-07
4.01201e-07
1.76508e-05
7.98682e-07
-9.72065e-07
1.68287e-05
2.70943e-06
-1.88725e-06
1.5131e-05
3.59494e-06
-1.89726e-06
1.35454e-05
3.96541e-06
-2.37979e-06
1.29298e-05
3.38584e-06
-2.77027e-06
1.29618e-05
4.10692e-06
-4.13896e-06
1.32127e-05
4.77202e-06
-5.02291e-06
1.33e-05
6.20677e-06
-6.29408e-06
1.30774e-05
6.70913e-06
-6.48649e-06
1.25649e-05
7.42314e-06
-6.91067e-06
1.20635e-05
6.49772e-06
-5.99633e-06
1.14176e-05
6.43662e-06
-5.79066e-06
1.10537e-05
5.05402e-06
-4.69015e-06
1.05058e-05
5.68057e-06
-5.13267e-06
1.02952e-05
4.25276e-06
-4.04217e-06
9.95672e-06
5.41207e-06
-5.07357e-06
1.001e-05
3.74604e-06
-3.79928e-06
9.98076e-06
5.16808e-06
-5.13888e-06
1.03248e-05
3.03597e-06
-3.38002e-06
1.0584e-05
4.69796e-06
-4.95715e-06
1.1252e-05
2.23216e-06
-2.90019e-06
1.159e-05
4.10696e-06
-4.44495e-06
1.27447e-05
9.98404e-07
-2.15304e-06
1.31521e-05
3.06782e-06
-3.47526e-06
1.44412e-05
-4.23869e-07
-8.65251e-07
1.50238e-05
1.48442e-06
-2.06696e-06
1.61838e-05
-1.5212e-06
3.61111e-07
1.67847e-05
-3.29147e-07
-2.71724e-07
1.78458e-05
-2.8594e-06
1.79835e-06
1.84934e-05
-2.22664e-06
1.57903e-06
1.95537e-05
-4.36639e-06
3.30604e-06
2.02643e-05
-4.24738e-06
3.53683e-06
2.13875e-05
-5.76754e-06
4.64433e-06
2.21541e-05
-5.63653e-06
4.86994e-06
2.31839e-05
-6.4235e-06
5.39364e-06
2.37992e-05
-6.17799e-06
5.56272e-06
2.46103e-05
-6.52106e-06
5.70991e-06
2.50476e-05
-6.19575e-06
5.75852e-06
2.56366e-05
-6.36435e-06
5.77535e-06
2.60142e-05
-6.1561e-06
5.77848e-06
2.65578e-05
-6.20323e-06
5.65957e-06
2.70185e-05
-6.16929e-06
5.70867e-06
2.74671e-05
-6.17339e-06
5.7248e-06
2.78057e-05
-6.24244e-06
5.90386e-06
2.81065e-05
-6.51484e-06
6.214e-06
2.82825e-05
-6.71674e-06
6.54069e-06
2.841e-05
-6.8003e-06
6.67288e-06
2.84315e-05
-7.01462e-06
6.99304e-06
2.85481e-05
-7.06406e-06
6.94752e-06
2.86813e-05
-7.07789e-06
6.94466e-06
2.87859e-05
-7.29365e-06
7.18902e-06
2.90696e-05
-7.64835e-06
7.36465e-06
2.92002e-05
-7.48979e-06
7.35918e-06
2.93915e-05
-7.90221e-06
7.71092e-06
2.96127e-05
-7.7986e-06
7.57747e-06
3.00539e-05
-8.40159e-06
7.96036e-06
3.05147e-05
-9.15278e-06
8.69195e-06
3.08357e-05
-1.00436e-05
9.72261e-06
3.07653e-05
-1.09106e-05
1.09811e-05
3.07232e-05
-1.11817e-05
1.12238e-05
3.04394e-05
-1.17939e-05
1.20776e-05
2.97196e-05
-1.18609e-05
1.25807e-05
2.86512e-05
-1.13998e-05
1.24682e-05
2.72474e-05
-1.1102e-05
1.25059e-05
2.60046e-05
-1.04982e-05
1.1741e-05
2.42797e-05
-8.83839e-06
1.05633e-05
2.22762e-05
-7.02922e-06
9.03267e-06
2.04271e-05
-5.09985e-06
6.949e-06
1.87676e-05
-3.53887e-06
5.19834e-06
1.75358e-05
-3.46445e-06
4.69629e-06
1.63678e-05
-3.73168e-06
4.89967e-06
1.53323e-05
-4.36041e-06
5.39588e-06
1.38994e-05
-5.05888e-06
6.49176e-06
1.23948e-05
-6.39423e-06
7.89887e-06
1.11776e-05
-8.48741e-06
9.70459e-06
9.71767e-06
-9.19757e-06
1.06575e-05
9.31536e-06
-7.03683e-06
7.43914e-06
9.47734e-06
-1.7659e-07
1.46134e-08
9.6373e-06
6.7811e-06
-6.94106e-06
9.04244e-06
1.19439e-05
-1.1349e-05
8.34696e-06
1.42213e-05
-1.35258e-05
9.06086e-06
1.58036e-05
-1.65175e-05
8.58306e-06
1.98756e-05
-1.93978e-05
8.07224e-06
2.36419e-05
-2.31311e-05
8.53533e-06
2.69068e-05
-2.73698e-05
8.5546e-06
2.85832e-05
-2.86025e-05
7.1346e-06
2.94794e-05
-2.80595e-05
5.89606e-06
2.84698e-05
-2.72312e-05
8.95736e-06
2.48279e-05
-2.78892e-05
9.3098e-06
2.78247e-05
-2.81771e-05
9.34843e-06
2.14485e-05
-2.14872e-05
9.95008e-06
2.27013e-05
-2.33029e-05
1.31231e-05
1.37499e-05
-1.69229e-05
1.27384e-05
1.85531e-05
-1.81683e-05
1.33966e-05
7.83932e-06
-8.49755e-06
1.43381e-05
1.27879e-05
-1.37293e-05
1.41787e-05
3.6486e-06
-3.48919e-06
1.5549e-05
7.41216e-06
-8.78254e-06
1.48398e-05
2.04363e-06
-1.33441e-06
1.62217e-05
4.45468e-06
-5.83658e-06
1.63094e-05
-1.82957e-06
1.74185e-06
1.68327e-05
7.58992e-07
-1.28225e-06
1.53467e-05
-1.3571e-06
2.84313e-06
1.55289e-05
-6.24492e-07
4.42206e-07
1.47252e-05
-6.01792e-06
6.82166e-06
1.42816e-05
-5.53774e-06
5.98138e-06
1.34461e-05
-8.34618e-06
9.18169e-06
1.20883e-05
-3.83866e-06
5.19637e-06
1.03753e-05
-5.54164e-06
7.25469e-06
7.15703e-06
1.15012e-06
2.06815e-06
4.17436e-06
-7.0803e-07
3.69069e-06
3.10301e-06
4.02936e-06
-2.958e-06
2.77927e-06
-2.11236e-06
2.4361e-06
3.9407e-06
-1.19043e-06
2.90007e-08
4.25128e-06
-9.49092e-06
9.18034e-06
-7.67649e-06
7.42302e-06
4.50475e-06
1.35448e-05
-3.39316e-07
1.36245e-05
-1.19847e-07
1.36848e-05
-8.88472e-08
1.37626e-05
-9.56718e-08
1.3872e-05
-2.06201e-07
1.40255e-05
-2.08809e-07
1.4209e-05
-2.72219e-07
1.43934e-05
-2.14943e-07
1.45594e-05
-2.48934e-07
1.47201e-05
-1.98113e-07
1.48713e-05
-2.81112e-07
1.50223e-05
-2.80418e-07
1.5165e-05
-4.36228e-07
1.53224e-05
-5.15659e-07
1.54568e-05
-7.29151e-07
1.55709e-05
-8.35626e-07
1.56402e-05
-1.08772e-06
1.56681e-05
-1.1753e-06
1.55813e-05
-1.33411e-06
1.544e-05
-1.32232e-06
1.52231e-05
-1.39807e-06
1.49468e-05
-1.2091e-06
1.44917e-05
-1.10144e-06
1.3908e-05
-7.38803e-07
1.31192e-05
-4.39985e-07
1.23372e-05
2.16145e-07
1.16523e-05
7.60672e-07
1.15243e-05
1.58749e-06
1.19797e-05
2.51691e-06
1.30106e-05
3.82552e-06
1.44955e-05
4.88756e-06
1.6079e-05
5.8832e-06
1.76554e-05
6.31516e-06
1.91548e-05
6.21529e-06
2.04685e-05
5.32391e-06
2.15568e-05
4.20417e-06
2.24005e-05
2.60998e-06
2.30476e-05
8.5754e-07
2.34651e-05
-9.23779e-07
2.3936e-05
-2.61755e-06
2.44934e-05
-4.32243e-06
2.49709e-05
-5.86592e-06
2.53383e-05
-7.49252e-06
2.58892e-05
-9.1601e-06
2.62753e-05
-1.04511e-05
2.63095e-05
-1.12282e-05
2.61072e-05
-1.15041e-05
2.54791e-05
-1.05126e-05
2.44228e-05
-9.0015e-06
2.36891e-05
-7.57785e-06
2.3338e-05
-6.3689e-06
2.30004e-05
-4.63834e-06
2.2878e-05
-3.22695e-06
2.31426e-05
-1.73909e-06
2.35163e-05
9.49032e-08
2.32825e-05
2.41565e-06
2.25806e-05
3.92133e-06
2.21666e-05
4.86275e-06
2.23859e-05
5.16599e-06
2.30339e-05
5.80399e-06
2.37211e-05
6.38252e-06
2.42775e-05
7.03772e-06
2.49041e-05
6.8995e-06
2.57296e-05
6.32538e-06
2.63112e-05
5.40271e-06
2.65468e-05
4.54831e-06
2.65414e-05
3.08363e-06
2.64959e-05
1.393e-06
2.63337e-05
-4.5205e-07
2.62955e-05
-1.87264e-06
2.60976e-05
-3.3414e-06
2.56213e-05
-4.62488e-06
2.49818e-05
-6.2735e-06
2.44425e-05
-7.01193e-06
2.37479e-05
-6.88225e-06
2.25749e-05
-5.96055e-06
2.11843e-05
-6.10735e-06
2.02043e-05
-6.36169e-06
1.96912e-05
-6.6308e-06
1.92437e-05
-5.67365e-06
1.87298e-05
-4.86628e-06
1.84786e-05
-3.63759e-06
1.85764e-05
-2.67592e-06
1.88431e-05
-9.99196e-07
1.92084e-05
4.33431e-07
1.94357e-05
2.48213e-06
1.91457e-05
3.88491e-06
1.79897e-05
5.12141e-06
1.64166e-05
4.95894e-06
1.52419e-05
5.28157e-06
1.51226e-05
4.89135e-06
1.53083e-05
6.02105e-06
1.58623e-05
6.15518e-06
1.5874e-05
7.41138e-06
1.58648e-05
6.50693e-06
1.53654e-05
6.93607e-06
1.48974e-05
5.52204e-06
1.44524e-05
6.12549e-06
1.41663e-05
4.53889e-06
1.39957e-05
5.58272e-06
1.38456e-05
3.89614e-06
1.38073e-05
5.20634e-06
1.39742e-05
2.86909e-06
1.42149e-05
4.45728e-06
1.47438e-05
1.70319e-06
1.51339e-05
3.71684e-06
1.58139e-05
3.18477e-07
1.64833e-05
2.39838e-06
1.73114e-05
-1.25196e-06
1.81289e-05
6.66947e-07
1.89709e-05
-2.36326e-06
1.96174e-05
-9.75601e-07
2.03925e-05
-3.63453e-06
2.0927e-05
-2.76113e-06
2.18335e-05
-5.27288e-06
2.23592e-05
-4.77308e-06
2.34196e-05
-6.82797e-06
2.40675e-05
-6.28446e-06
2.50807e-05
-7.43671e-06
2.56039e-05
-6.70111e-06
2.64109e-05
-7.32806e-06
2.67801e-05
-6.56496e-06
2.73564e-05
-6.94063e-06
2.75968e-05
-6.3965e-06
2.80775e-05
-6.68397e-06
2.82561e-05
-6.34794e-06
2.86214e-05
-6.53867e-06
2.88066e-05
-6.42757e-06
2.90357e-05
-6.74393e-06
2.90244e-05
-6.7055e-06
2.91792e-05
-6.95512e-06
2.91244e-05
-6.95976e-06
2.90856e-05
-7.02528e-06
2.93486e-05
-7.34087e-06
2.94879e-05
-7.43299e-06
2.96186e-05
-7.77906e-06
2.99133e-05
-7.78446e-06
3.03178e-05
-8.30667e-06
3.083e-05
-8.31085e-06
3.13816e-05
-8.95315e-06
3.20374e-05
-9.80857e-06
3.24012e-05
-1.04075e-05
3.22858e-05
-1.07952e-05
3.21987e-05
-1.10946e-05
3.15815e-05
-1.11767e-05
3.06446e-05
-1.09239e-05
2.93704e-05
-1.01256e-05
2.79118e-05
-9.6434e-06
2.6257e-05
-8.84344e-06
2.39569e-05
-6.53836e-06
2.18858e-05
-4.9581e-06
2.0285e-05
-3.49904e-06
1.89917e-05
-2.24556e-06
1.74053e-05
-1.87806e-06
1.59958e-05
-2.3222e-06
1.42965e-05
-2.66109e-06
1.29031e-05
-3.6655e-06
1.18586e-05
-5.34974e-06
1.01617e-05
-6.79051e-06
9.10335e-06
-8.13917e-06
8.53518e-06
-6.46867e-06
9.19455e-06
-8.35954e-07
9.43205e-06
6.5436e-06
1.0468e-05
1.09079e-05
1.01737e-05
1.45156e-05
9.68969e-06
1.62876e-05
9.86778e-06
1.96975e-05
8.87486e-06
2.46348e-05
8.2543e-06
2.75273e-05
8.98736e-06
2.78502e-05
1.02644e-05
2.82024e-05
8.67918e-06
3.0055e-05
9.42763e-06
2.40794e-05
1.0704e-05
2.65483e-05
1.3534e-05
1.86186e-05
1.30272e-05
2.32081e-05
1.43264e-05
1.24507e-05
1.54119e-05
1.74676e-05
1.4836e-05
8.41516e-06
1.63504e-05
1.12735e-05
1.60146e-05
3.98444e-06
1.69099e-05
6.51683e-06
1.6199e-05
2.75453e-06
1.76359e-05
3.01778e-06
1.76582e-05
-1.85191e-06
1.72566e-05
1.16059e-06
1.61496e-05
-2.50081e-07
1.62345e-05
-7.09357e-07
1.45425e-05
-4.3259e-06
1.129e-05
-2.28529e-06
7.80361e-06
-4.85977e-06
5.27625e-06
-1.31129e-06
3.95141e-06
-4.2168e-06
3.8927e-06
1.20883e-06
4.41986e-06
-1.2352e-06
5.90014e-06
2.54909e-06
7.97213e-06
-4.18435e-06
1.12647e-05
-4.48297e-06
1.16251e-05
-9.85135e-06
-9.69943e-06
1.3648e-05
2.02572e-05
-2.08096e-07
2.02361e-05
-9.87218e-08
2.02783e-05
-1.31059e-07
2.03685e-05
-1.85881e-07
2.04828e-05
-3.20516e-07
2.06078e-05
-3.33809e-07
2.07415e-05
-4.05958e-07
2.08735e-05
-3.46958e-07
2.09964e-05
-3.71822e-07
2.11183e-05
-3.20007e-07
2.125e-05
-4.12784e-07
2.13762e-05
-4.06585e-07
2.14895e-05
-5.49519e-07
2.16017e-05
-6.27893e-07
2.16863e-05
-8.13755e-07
2.17093e-05
-8.58606e-07
2.17138e-05
-1.0922e-06
2.16723e-05
-1.13383e-06
2.15523e-05
-1.2141e-06
2.139e-05
-1.16e-06
2.12042e-05
-1.2123e-06
2.0924e-05
-9.28951e-07
2.05296e-05
-7.06959e-07
2.01245e-05
-3.33731e-07
1.96468e-05
3.77044e-08
1.9045e-05
8.17951e-07
1.84394e-05
1.36626e-06
1.79638e-05
2.06312e-06
1.77071e-05
2.77362e-06
1.78144e-05
3.71819e-06
1.85036e-05
4.19836e-06
1.96634e-05
4.72345e-06
2.09781e-05
5.0004e-06
2.22767e-05
4.91675e-06
2.35467e-05
4.05388e-06
2.46957e-05
3.05521e-06
2.56094e-05
1.69626e-06
2.63717e-05
9.52504e-08
2.70628e-05
-1.61489e-06
2.7647e-05
-3.20178e-06
2.81933e-05
-4.86877e-06
2.88926e-05
-6.56517e-06
2.93508e-05
-7.95076e-06
2.95459e-05
-9.35518e-06
2.95233e-05
-1.04285e-05
2.8745e-05
-1.04499e-05
2.73676e-05
-1.01266e-05
2.64965e-05
-9.64153e-06
2.57554e-05
-8.26038e-06
2.47571e-05
-6.57957e-06
2.40591e-05
-5.67086e-06
2.39476e-05
-4.52686e-06
2.3705e-05
-2.9844e-06
2.33763e-05
-1.4103e-06
2.35693e-05
-9.81313e-08
2.43118e-05
1.67318e-06
2.47585e-05
3.47456e-06
2.46482e-05
4.97309e-06
2.42405e-05
5.57364e-06
2.41646e-05
5.87994e-06
2.45694e-05
5.97775e-06
2.54369e-05
6.17013e-06
2.64372e-05
5.89926e-06
2.72879e-05
5.47465e-06
2.80063e-05
4.68434e-06
2.86037e-05
3.95088e-06
2.89999e-05
2.6875e-06
2.92076e-05
1.18527e-06
2.92973e-05
-5.41764e-07
2.89494e-05
-1.52474e-06
2.84301e-05
-2.82212e-06
2.80169e-05
-4.21168e-06
2.74536e-05
-5.71015e-06
2.65414e-05
-6.09979e-06
2.57439e-05
-6.08471e-06
2.49156e-05
-5.13226e-06
2.37557e-05
-4.94745e-06
2.24973e-05
-5.10327e-06
2.17392e-05
-5.87275e-06
2.13217e-05
-5.25612e-06
2.09105e-05
-4.45512e-06
2.03718e-05
-3.09886e-06
2.02045e-05
-2.50863e-06
2.02282e-05
-1.02287e-06
2.05367e-05
1.2492e-07
2.0783e-05
2.23584e-06
2.12172e-05
3.45067e-06
2.12298e-05
5.10885e-06
2.06698e-05
5.51896e-06
1.92839e-05
6.66746e-06
1.79999e-05
6.1753e-06
1.73452e-05
6.67581e-06
1.74994e-05
6.00095e-06
1.78953e-05
7.01551e-06
1.84029e-05
5.99934e-06
1.86523e-05
6.6866e-06
1.86586e-05
5.51581e-06
1.85535e-05
6.23054e-06
1.85527e-05
4.53974e-06
1.84426e-05
5.69278e-06
1.846e-05
3.87875e-06
1.84444e-05
5.22197e-06
1.88337e-05
2.47973e-06
1.91856e-05
4.10545e-06
1.95078e-05
1.38095e-06
2.00011e-05
3.22351e-06
2.02927e-05
2.69145e-08
2.11131e-05
1.57796e-06
2.16269e-05
-1.76574e-06
2.24911e-05
-1.97258e-07
2.30612e-05
-2.93339e-06
2.36854e-05
-1.59972e-06
2.40772e-05
-4.02633e-06
2.44401e-05
-3.12403e-06
2.48674e-05
-5.70018e-06
2.52055e-05
-5.11118e-06
2.59269e-05
-7.54941e-06
2.637e-05
-6.72754e-06
2.71781e-05
-8.24478e-06
2.7503e-05
-7.026e-06
2.80582e-05
-7.88329e-06
2.8133e-05
-6.63976e-06
2.85476e-05
-7.35529e-06
2.86226e-05
-6.47145e-06
2.9153e-05
-7.21435e-06
2.93565e-05
-6.55147e-06
2.98626e-05
-7.04477e-06
3.0027e-05
-6.592e-06
3.03816e-05
-7.09852e-06
3.03856e-05
-6.70953e-06
3.05167e-05
-7.08614e-06
3.05152e-05
-6.95832e-06
3.05796e-05
-7.08964e-06
3.06522e-05
-7.41355e-06
3.08693e-05
-7.65005e-06
3.10696e-05
-7.97937e-06
3.15062e-05
-8.22105e-06
3.18088e-05
-8.60928e-06
3.25222e-05
-9.02425e-06
3.32337e-05
-9.66462e-06
3.36043e-05
-1.01792e-05
3.36699e-05
-1.04731e-05
3.35643e-05
-1.06896e-05
3.32688e-05
-1.07991e-05
3.22185e-05
-1.01263e-05
3.10696e-05
-9.7751e-06
2.97195e-05
-8.77554e-06
2.78503e-05
-7.77413e-06
2.55021e-05
-6.49531e-06
2.3574e-05
-4.61021e-06
2.17306e-05
-3.11467e-06
2.00697e-05
-1.83814e-06
1.86841e-05
-8.60059e-07
1.72083e-05
-4.02191e-07
1.58264e-05
-9.40298e-07
1.44569e-05
-1.2916e-06
1.32598e-05
-2.46844e-06
1.14777e-05
-3.56757e-06
1.00213e-05
-5.33412e-06
8.40284e-06
-6.52074e-06
7.51885e-06
-5.58468e-06
8.06829e-06
-1.3854e-06
9.45896e-06
5.15293e-06
9.80158e-06
1.05653e-05
1.07295e-05
1.35876e-05
9.95137e-06
1.70658e-05
9.79833e-06
1.98505e-05
1.09412e-05
2.3492e-05
1.03317e-05
2.81368e-05
8.76531e-06
2.94165e-05
1.12731e-05
2.56946e-05
1.16494e-05
2.96787e-05
1.30831e-05
2.26458e-05
1.2981e-05
2.66504e-05
1.50013e-05
1.65983e-05
1.56248e-05
2.25846e-05
1.60402e-05
1.20354e-05
1.74243e-05
1.60835e-05
1.65968e-05
9.24261e-06
1.81403e-05
9.72999e-06
1.79235e-05
4.20126e-06
1.82987e-05
6.14162e-06
1.81686e-05
2.88465e-06
1.92147e-05
1.97166e-06
1.82726e-05
-9.09779e-07
1.77539e-05
1.67927e-06
1.76249e-05
-1.21084e-07
1.64918e-05
4.23751e-07
1.22185e-05
-5.25474e-08
8.23007e-06
1.70309e-06
5.56669e-06
-2.1964e-06
5.39241e-06
-1.137e-06
5.96911e-06
-4.7935e-06
8.17449e-06
-9.96549e-07
9.99496e-06
-3.05567e-06
1.43527e-05
-1.80869e-06
1.56983e-05
-5.52992e-06
1.94371e-05
-8.22172e-06
1.96331e-05
-1.00474e-05
-1.07708e-05
2.07045e-05
2.57246e-05
-1.25062e-07
2.57525e-05
-1.26646e-07
2.58533e-05
-2.31785e-07
2.59997e-05
-3.32314e-07
2.61221e-05
-4.42921e-07
2.62161e-05
-4.27832e-07
2.62802e-05
-4.70068e-07
2.63466e-05
-4.13308e-07
2.64119e-05
-4.37152e-07
2.64774e-05
-3.8549e-07
2.65594e-05
-4.94772e-07
2.66302e-05
-4.77413e-07
2.6686e-05
-6.05283e-07
2.67337e-05
-6.75616e-07
2.67792e-05
-8.5929e-07
2.67446e-05
-8.23974e-07
2.67108e-05
-1.05844e-06
2.66457e-05
-1.06871e-06
2.65021e-05
-1.0705e-06
2.63187e-05
-9.76582e-07
2.6149e-05
-1.04257e-06
2.59136e-05
-6.93612e-07
2.56179e-05
-4.1119e-07
2.53799e-05
-9.57352e-08
2.51091e-05
3.08475e-07
2.47276e-05
1.1994e-06
2.44321e-05
1.66181e-06
2.42424e-05
2.2528e-06
2.40388e-05
2.97722e-06
2.39699e-05
3.78707e-06
2.42448e-05
3.92355e-06
2.48468e-05
4.12137e-06
2.56162e-05
4.23099e-06
2.66064e-05
3.92655e-06
2.76579e-05
3.00237e-06
2.86133e-05
2.09985e-06
2.94781e-05
8.31506e-07
3.02933e-05
-7.1999e-07
3.10192e-05
-2.34082e-06
3.16575e-05
-3.84009e-06
3.20717e-05
-5.28288e-06
3.23852e-05
-6.87875e-06
3.25706e-05
-8.13612e-06
3.20129e-05
-8.79749e-06
3.10473e-05
-9.4629e-06
3.04374e-05
-9.83999e-06
2.93022e-05
-8.99137e-06
2.75842e-05
-7.9236e-06
2.63525e-05
-7.0287e-06
2.54977e-05
-5.72477e-06
2.43891e-05
-4.56219e-06
2.37653e-05
-3.90307e-06
2.3797e-05
-3.01605e-06
2.3861e-05
-1.47429e-06
2.38528e-05
-8.99656e-08
2.4292e-05
1.23402e-06
2.51812e-05
2.58533e-06
2.59259e-05
4.22836e-06
2.62225e-05
5.27703e-06
2.62747e-05
5.82777e-06
2.63297e-05
5.9227e-06
2.63807e-05
6.11918e-06
2.67405e-05
5.53948e-06
2.75721e-05
4.64307e-06
2.85543e-05
3.70207e-06
2.93023e-05
3.20291e-06
2.99202e-05
2.06957e-06
3.03548e-05
7.50722e-07
3.05374e-05
-7.24422e-07
3.05011e-05
-1.48839e-06
3.03007e-05
-2.62175e-06
2.97655e-05
-3.67651e-06
2.9164e-05
-5.10861e-06
2.81655e-05
-5.10128e-06
2.69344e-05
-4.85364e-06
2.59817e-05
-4.17954e-06
2.55692e-05
-4.53498e-06
2.48821e-05
-4.41616e-06
2.40652e-05
-5.05579e-06
2.33514e-05
-4.54233e-06
2.28696e-05
-3.97333e-06
2.21054e-05
-2.33468e-06
2.14606e-05
-1.86376e-06
2.12531e-05
-8.15444e-07
2.15796e-05
-2.01542e-07
2.19611e-05
1.85433e-06
2.23894e-05
3.02242e-06
2.26822e-05
4.81599e-06
2.27665e-05
5.43467e-06
2.24909e-05
6.94301e-06
2.19525e-05
6.71375e-06
2.11651e-05
7.46317e-06
2.06228e-05
6.54333e-06
2.04595e-05
7.1788e-06
2.07589e-05
5.69995e-06
2.09663e-05
6.47917e-06
2.1444e-05
5.03806e-06
2.16182e-05
6.05642e-06
2.21472e-05
4.0107e-06
2.22802e-05
5.55976e-06
2.25998e-05
3.55913e-06
2.27467e-05
5.07511e-06
2.31353e-05
2.0911e-06
2.3545e-05
3.69579e-06
2.372e-05
1.20587e-06
2.43131e-05