/*--------------------------------*- C++ -*----------------------------------*\
| =========                 |                                                 |
| \\      /  F ield         | OpenFOAM: The Open Source CFD Toolbox           |
|  \\    /   O peration     | Version:  2.4.0                                 |
|   \\  /    A nd           | Web:      www.OpenFOAM.org                      |
|    \\/     M anipulation  |                                                 |
\*---------------------------------------------------------------------------*/
FoamFile
{
    version     2.0;
    format      ascii;
    class       volVectorField;
    location    "1.46";
    object      U;
}
// * * * * * * * * * * * * * * * * * * * * * * * * * * * * * * * * * * * * * //

dimensions      [0 1 -1 0 0 0 0];

internalField   nonuniform List<vector> 
8800
(
(8.07161 0.389972 0)
(5.44981 0.237953 0)
(3.95029 0.0449549 0)
(3.07851 -0.0105168 0)
(2.88974 -0.022317 0)
(2.50178 -0.00742024 0)
(2.56782 -0.00288556 0)
(2.24393 -0.00788588 0)
(2.45914 -0.00132425 0)
(2.1589 0.00162674 0)
(2.35653 -0.000113237 0)
(2.0852 -0.00361385 0)
(2.27196 0.00756424 0)
(1.99013 -0.00197539 0)
(2.23841 -0.00556408 0)
(1.94089 0.00560344 0)
(2.19169 -0.000261608 0)
(1.84681 -0.0038886 0)
(2.28387 0.0163436 0)
(1.40037 -0.108766 0)
(10.0907 0.843849 0)
(9.60442 0.850982 0)
(9.04107 0.523956 0)
(7.81329 0.260122 0)
(7.81823 0.117143 0)
(6.65686 0.10395 0)
(7.0362 0.0675837 0)
(6.00022 0.0180495 0)
(6.60939 0.0207766 0)
(5.69876 0.0290429 0)
(6.35036 0.017769 0)
(5.48099 0.0076847 0)
(6.10708 0.0380943 0)
(5.30044 0.00286541 0)
(6.02334 0.00278078 0)
(5.0735 0.0222077 0)
(5.98342 0.0261332 0)
(4.81358 -0.0321794 0)
(6.07901 0.0639431 0)
(4.43747 -0.09845 0)
(10.2566 0.649587 0)
(10.3967 0.810718 0)
(11.3342 0.655477 0)
(10.1263 0.369722 0)
(11.0544 0.22114 0)
(9.39851 0.228784 0)
(10.4636 0.165494 0)
(8.84419 0.0894896 0)
(9.92785 0.0734555 0)
(8.48371 0.0781595 0)
(9.60434 0.055757 0)
(8.20552 0.0380456 0)
(9.24485 0.0809174 0)
(7.98986 0.00707755 0)
(9.15578 0.0339515 0)
(7.62063 0.0356423 0)
(9.12068 0.0625826 0)
(7.35889 -0.0354452 0)
(9.04982 0.0646714 0)
(7.22066 -0.0851535 0)
(10.7239 0.493465 0)
(9.81196 0.617393 0)
(12.1695 0.629006 0)
(10.3932 0.328783 0)
(12.4738 0.219307 0)
(10.3271 0.290163 0)
(12.3684 0.209606 0)
(10.4122 0.145951 0)
(12.0905 0.114959 0)
(10.3705 0.123752 0)
(11.9317 0.0873421 0)
(10.2833 0.0769935 0)
(11.6111 0.129136 0)
(10.1236 0.0106045 0)
(11.6015 0.0815149 0)
(9.79474 0.0578122 0)
(11.4973 0.0846901 0)
(9.72537 -0.000214454 0)
(11.2313 0.0443765 0)
(9.72419 -0.0620003 0)
(11.7019 0.37 0)
(9.07215 0.431133 0)
(12.7929 0.595073 0)
(10.1807 0.312837 0)
(12.869 0.161336 0)
(10.1604 0.271666 0)
(12.6611 0.122122 0)
(10.8908 0.150648 0)
(12.7808 0.0833127 0)
(11.3215 0.135426 0)
(12.9575 0.0763601 0)
(11.5524 0.100451 0)
(12.8844 0.157782 0)
(11.4779 -0.00751054 0)
(12.9418 0.0910343 0)
(11.4884 0.106784 0)
(12.7547 0.0551998 0)
(11.5697 0.0629711 0)
(12.5107 0.0293842 0)
(11.5762 -0.0019384 0)
(12.1286 0.224153 0)
(8.75344 0.299465 0)
(12.2198 0.436358 0)
(10.6962 0.369038 0)
(13.0723 0.21319 0)
(10.863 0.360586 0)
(11.9944 -0.00617573 0)
(11.1021 0.0979509 0)
(12.2383 0.00591772 0)
(11.5862 0.0924363 0)
(12.7141 0.0193193 0)
(12.1286 0.0809206 0)
(13.1533 0.178521 0)
(12.1842 -0.0140021 0)
(13.0795 0.0530362 0)
(12.4652 0.147293 0)
(12.9297 0.0425719 0)
(12.337 0.0857185 0)
(12.7342 0.0648956 0)
(12.3131 0.0519637 0)
(11.5563 0.0902993 0)
(9.23359 0.364673 0)
(10.9204 0.218109 0)
(10.8313 0.153852 0)
(12.5589 0.118695 0)
(11.8608 0.532441 0)
(11.7106 0.0328254 0)
(11.3919 0.0686877 0)
(11.6253 -0.0475968 0)
(11.5641 0.0279184 0)
(12.0856 -0.0844431 0)
(12.0498 -0.0195903 0)
(12.8233 0.156935 0)
(12.3282 0.00325036 0)
(12.7192 -0.0115094 0)
(12.5328 0.171227 0)
(12.6209 0.0626114 0)
(12.1775 0.13422 0)
(12.4229 0.0755018 0)
(12.1269 0.184869 0)
(10.8308 -0.0256814 0)
(9.86659 0.410635 0)
(10.3092 0.108654 0)
(10.7737 -0.0199648 0)
(11.6252 -0.0457104 0)
(12.1679 0.555734 0)
(12.0056 0.0998314 0)
(11.6618 0.0999828 0)
(11.4304 -0.0199282 0)
(11.5176 0.000145858 0)
(11.9684 -0.114744 0)
(11.8584 -0.104874 0)
(12.5476 0.131071 0)
(12.3215 0.00742398 0)
(12.4382 -0.00859488 0)
(12.1114 0.189899 0)
(12.2848 0.122237 0)
(11.8761 0.145348 0)
(12.2163 0.0909263 0)
(11.9782 0.163512 0)
(10.2791 -0.114186 0)
(10.0645 0.435167 0)
(10.4741 0.0653731 0)
(11.1444 -0.162744 0)
(10.7834 -0.192758 0)
(11.8196 0.452014 0)
(12.0909 0.15335 0)
(11.6317 0.148664 0)
(11.4856 0.0113762 0)
(11.7281 -0.112468 0)
(12.3025 -0.17934 0)
(11.6346 -0.194046 0)
(12.1499 0.0803853 0)
(12.1841 -0.00767895 0)
(12.1216 0.0544759 0)
(11.6906 0.188658 0)
(12.1236 0.158874 0)
(11.9715 0.0780743 0)
(12.3111 0.071095 0)
(12.1637 -0.0174271 0)
(9.85222 -0.13101 0)
(10.3899 0.278053 0)
(11.0985 -0.0758555 0)
(11.1287 -0.054533 0)
(9.597 -0.142191 0)
(11.2189 0.257323 0)
(12.1981 0.162807 0)
(11.7938 0.20359 0)
(11.96 -0.00410191 0)
(12.0933 -0.183585 0)
(12.3113 -0.0812593 0)
(11 -0.0804122 0)
(11.5321 0.0383664 0)
(12.0301 -0.00646139 0)
(11.762 0.129726 0)
(11.5719 0.179208 0)
(12.2379 0.0950382 0)
(12.4172 0.0196609 0)
(12.5437 0.0160991 0)
(12.3878 -0.0414525 0)
(9.84342 -0.191976 0)
(10.7117 0.0336506 0)
(10.7117 -0.0678948 0)
(10.9185 0.203423 0)
(9.77691 -0.171265 0)
(11.4185 -0.231922 0)
(12.2632 0.00347689 0)
(11.9847 0.141866 0)
(12.3311 -0.032082 0)
(12.0511 -0.188404 0)
(12.2199 0.0799769 0)
(10.8698 -0.0151615 0)
(11.565 -0.153726 0)
(12.0134 -0.0750053 0)
(11.6504 0.152751 0)
(11.812 0.0655379 0)
(12.499 -0.0475111 0)
(12.6775 -0.0527387 0)
(12.6112 0.0101427 0)
(12.4403 -0.0440826 0)
(10.031 -0.268228 0)
(10.51 -0.0456358 0)
(9.80836 -0.0507776 0)
(11.1204 0.18784 0)
(11.0659 -0.20186 0)
(11.9309 -0.421094 0)
(11.7681 0.0146267 0)
(11.8615 0.112171 0)
(12.0924 -0.0102689 0)
(11.6812 -0.146782 0)
(12.1299 0.188249 0)
(11.3094 0.0687852 0)
(12.1088 -0.246689 0)
(11.9767 -0.0350856 0)
(11.8681 0.154834 0)
(12.193 -0.0256823 0)
(12.6941 -0.130371 0)
(12.5503 -0.0617339 0)
(12.5287 0.0152066 0)
(12.4211 -0.040786 0)
(10.0255 -0.318063 0)
(10.2186 -0.0187702 0)
(9.66618 -0.150903 0)
(11.5377 -0.098556 0)
(11.7385 -0.263507 0)
(11.6752 -0.375752 0)
(10.9939 0.0587283 0)
(11.8607 0.0141506 0)
(11.6768 0.0349149 0)
(11.5996 -0.162514 0)
(11.9732 0.160631 0)
(11.8781 0.013118 0)
(12.4798 -0.301758 0)
(11.9529 0.00231978 0)
(12.151 0.0729158 0)
(12.4912 -0.115642 0)
(12.6549 -0.130793 0)
(12.3517 -0.0575588 0)
(12.4546 -0.0224058 0)
(12.4608 -0.0751732 0)
(9.89409 -0.339507 0)
(10.2668 -0.0631278 0)
(10.259 -0.301696 0)
(11.6648 -0.337667 0)
(11.6637 -0.20385 0)
(11.2601 -0.25841 0)
(11.145 -0.0341953 0)
(11.9806 -0.11364 0)
(11.6041 0.0532522 0)
(11.9121 -0.188903 0)
(12.0348 0.0796091 0)
(12.3163 -0.0584783 0)
(12.3758 -0.263732 0)
(12.1109 0.05044 0)
(12.3525 -0.0109465 0)
(12.5566 -0.147384 0)
(12.4886 -0.0893307 0)
(12.4423 -0.0756641 0)
(12.5328 -0.0799327 0)
(12.5875 -0.122936 0)
(9.97675 -0.381102 0)
(10.1859 -0.197405 0)
(10.8516 -0.393345 0)
(11.7221 -0.421955 0)
(11.5241 -0.140306 0)
(11.1912 -0.265022 0)
(11.6901 -0.149701 0)
(11.8119 -0.126808 0)
(11.6915 0.0384064 0)
(12.0012 -0.213847 0)
(12.1905 0.017247 0)
(12.2615 -0.0659972 0)
(12.1651 -0.242099 0)
(12.2861 0.00780793 0)
(12.4224 -0.0570932 0)
(12.373 -0.148305 0)
(12.4226 -0.090676 0)
(12.4954 -0.126318 0)
(12.4568 -0.11419 0)
(12.4282 -0.164109 0)
(9.95872 -0.420471 0)
(10.2374 -0.359402 0)
(11.3266 -0.556951 0)
(11.5679 -0.449145 0)
(11.5038 -0.0761602 0)
(11.3148 -0.280053 0)
(11.8481 -0.221174 0)
(11.5731 -0.1084 0)
(11.8251 -0.0300978 0)
(11.8504 -0.242967 0)
(12.042 -0.0306053 0)
(11.9813 -0.0579587 0)
(11.8846 -0.234957 0)
(12.0095 -0.0345091 0)
(11.9983 -0.0480355 0)
(11.7986 -0.139615 0)
(11.9671 -0.112123 0)
(11.8187 -0.132745 0)
(11.7336 -0.108603 0)
(11.5672 -0.174169 0)
(9.87428 -0.498539 0)
(10.5771 -0.587818 0)
(11.4225 -0.62275 0)
(11.2716 -0.434581 0)
(11.5139 -0.127591 0)
(11.252 -0.305753 0)
(11.4721 -0.251219 0)
(11.0974 -0.121597 0)
(11.34 -0.0774391 0)
(10.9635 -0.203445 0)
(11.1239 -0.0504362 0)
(10.9487 -0.0534407 0)
(10.7319 -0.18915 0)
(10.7363 -0.0417706 0)
(10.6759 -0.0290448 0)
(10.3918 -0.116841 0)
(10.5179 -0.0919532 0)
(10.1981 -0.105853 0)
(10.1641 -0.0814545 0)
(9.87963 -0.178856 0)
(9.95362 -0.656769 0)
(10.7155 -0.799628 0)
(10.9802 -0.640664 0)
(10.508 -0.423805 0)
(10.5446 -0.172218 0)
(9.96694 -0.244369 0)
(9.81458 -0.192015 0)
(9.36812 -0.0832736 0)
(9.38784 -0.0427017 0)
(8.9108 -0.123521 0)
(9.01446 -0.0389813 0)
(8.76669 -0.0159041 0)
(8.54396 -0.115388 0)
(8.48752 -0.03095 0)
(8.42031 -0.00181658 0)
(8.16242 -0.0703014 0)
(8.22686 -0.0650915 0)
(7.89889 -0.0582702 0)
(7.89937 -0.0612265 0)
(7.58141 -0.10378 0)
(10.0221 -0.848572 0)
(9.68699 -0.843241 0)
(8.9135 -0.51847 0)
(7.95301 -0.289116 0)
(7.56864 -0.0971333 0)
(6.94328 -0.103687 0)
(6.66222 -0.0809104 0)
(6.30019 -0.0189744 0)
(6.28568 0.00227155 0)
(5.95892 -0.0536901 0)
(5.99037 -0.0178482 0)
(5.82266 0.0120348 0)
(5.68331 -0.0565685 0)
(5.58904 -0.0185993 0)
(5.55979 0.0145664 0)
(5.39999 -0.036085 0)
(5.39207 -0.0332982 0)
(5.15455 -0.0236661 0)
(5.15919 -0.0343447 0)
(4.87235 -0.0280231 0)
(8.07341 -0.391253 0)
(5.44548 -0.237734 0)
(3.93835 -0.0428569 0)
(3.10645 0.00496527 0)
(2.81138 0.0274317 0)
(2.5897 0.00811894 0)
(2.45565 -0.00187581 0)
(2.32079 0.00613112 0)
(2.36047 0.00916605 0)
(2.25049 -0.00937852 0)
(2.2217 -0.00186474 0)
(2.19458 0.0119649 0)
(2.14857 -0.0117981 0)
(2.0624 -0.00272727 0)
(2.07717 0.00983638 0)
(2.0347 -0.00624407 0)
(1.98891 -0.00430234 0)
(1.8915 -0.0016144 0)
(1.87018 -0.00340091 0)
(1.71798 0.0103797 0)
(2.62217 -0.0975708 0)
(2.2463 -0.0113092 0)
(2.81222 -0.0123739 0)
(2.34733 -0.00686744 0)
(2.98384 -0.0273761 0)
(2.49184 0.00202675 0)
(3.21873 0.000940573 0)
(2.6997 0.0253069 0)
(3.46386 0.00321795 0)
(2.88314 0.016542 0)
(3.67207 -0.0191884 0)
(3.02836 -0.0189944 0)
(3.85086 -0.0750736 0)
(3.15367 -0.0910895 0)
(4.02333 -0.169157 0)
(3.28428 -0.205381 0)
(4.18637 -0.304911 0)
(3.38209 -0.34321 0)
(4.24982 -0.450665 0)
(3.29629 -0.481383 0)
(4.06387 -0.584541 0)
(2.94103 -0.573617 0)
(3.62436 -0.647987 0)
(2.44231 -0.58108 0)
(3.14158 -0.561904 0)
(2.18491 -0.288957 0)
(3.04384 0.0153173 0)
(2.5034 0.617533 0)
(3.64783 1.20525 0)
(3.26152 1.91602 0)
(4.665 2.45992 0)
(4.1876 2.83742 0)
(5.76463 2.94892 0)
(5.26097 2.87757 0)
(6.7914 2.49611 0)
(6.3353 1.99969 0)
(7.61268 1.30876 0)
(7.06196 0.622798 0)
(8.18545 -0.0464048 0)
(7.6037 -0.594722 0)
(8.64471 -1.16505 0)
(8.0143 -1.69437 0)
(9.00775 -2.26571 0)
(8.40818 -2.79528 0)
(9.39874 -3.33827 0)
(8.76157 -3.70858 0)
(9.46877 -3.99168 0)
(8.67795 -3.95334 0)
(9.25848 -3.54145 0)
(8.509 -2.83353 0)
(8.94847 -2.34661 0)
(8.24206 -1.78528 0)
(8.7633 -1.09372 0)
(8.338 -0.350128 0)
(8.85995 0.186791 0)
(8.18275 0.615221 0)
(8.56757 0.954768 0)
(7.76002 1.47482 0)
(8.39856 1.90671 0)
(7.82994 2.28293 0)
(8.81833 2.45549 0)
(8.39829 2.62616 0)
(9.56383 2.67634 0)
(8.90596 2.59485 0)
(9.99644 2.17807 0)
(9.06721 1.68791 0)
(9.95021 1.01569 0)
(8.94456 0.418479 0)
(10.0392 -0.122551 0)
(8.89713 -0.599751 0)
(9.75945 -1.26258 0)
(8.38193 -1.82897 0)
(9.07201 -2.43135 0)
(7.85721 -2.61521 0)
(8.69866 -2.65995 0)
(7.43569 -2.58981 0)
(7.76749 -2.69958 0)
(6.70825 -2.55697 0)
(7.25336 -2.41034 0)
(6.49785 -2.05439 0)
(6.82292 -1.79416 0)
(6.41423 -1.24474 0)
(6.92948 -0.795456 0)
(6.75693 -0.172636 0)
(7.26786 0.376314 0)
(6.85654 0.980513 0)
(6.66202 1.02885 0)
(5.36133 1.02149 0)
(5.53427 0.936508 0)
(4.71658 1.35773 0)
(5.70298 1.66804 0)
(4.69288 2.08767 0)
(5.99132 2.20877 0)
(4.278 2.33109 0)
(5.95645 2.00614 0)
(3.56917 1.9504 0)
(5.77696 1.55376 0)
(2.91065 1.76152 0)
(5.70681 1.32568 0)
(2.32834 1.71168 0)
(5.86155 1.21627 0)
(1.90761 1.69719 0)
(6.34088 1.05122 0)
(1.65619 1.59437 0)
(7.05207 0.862791 0)
(1.70826 1.38945 0)
(7.72763 0.504441 0)
(2.34997 1.0584 0)
(8.13493 0.00866966 0)
(3.50728 0.568294 0)
(8.30357 -0.383561 0)
(4.82444 -0.0372333 0)
(8.39031 -0.825347 0)
(6.05794 -0.653441 0)
(8.54327 -1.28682 0)
(7.25451 -1.29448 0)
(8.8146 -1.72163 0)
(8.39941 -1.73881 0)
(9.24747 -1.95392 0)
(9.36273 -1.94905 0)
(9.65519 -2.03119 0)
(10.0895 -1.98944 0)
(9.95241 -2.0279 0)
(10.5685 -2.00429 0)
(10.264 -1.99065 0)
(10.9425 -1.99629 0)
(10.6816 -1.96855 0)
(11.2317 -2.01196 0)
(11.0284 -2.09616 0)
(11.3808 -2.17846 0)
(11.2764 -2.20225 0)
(11.4054 -2.30651 0)
(11.3839 -2.30003 0)
(11.4419 -2.2722 0)
(11.5831 -2.36823 0)
(11.4513 -2.48678 0)
(11.8618 -2.40956 0)
(11.581 -2.54508 0)
(11.9537 -2.52908 0)
(11.8298 -2.68575 0)
(12.2565 -2.88372 0)
(12.295 -3.23316 0)
(12.4009 -3.62504 0)
(12.3345 -3.6274 0)
(12.2914 -3.91907 0)
(12.168 -4.12841 0)
(11.6421 -3.99651 0)
(11.3044 -3.84234 0)
(10.5319 -3.70756 0)
(10.2036 -3.39146 0)
(9.23192 -2.71591 0)
(8.53928 -1.88171 0)
(7.84444 -1.30501 0)
(7.16388 -1.42641 0)
(6.97279 -1.49632 0)
(6.21546 -1.67875 0)
(5.99322 -1.8338 0)
(5.13671 -2.28903 0)
(4.53771 -3.06102 0)
(4.24925 -3.15786 0)
(3.28442 -2.5079 0)
(4.28718 0.155633 0)
(3.61547 2.10165 0)
(4.1953 4.07751 0)
(3.16469 4.40088 0)
(3.58713 5.42444 0)
(3.68983 6.39505 0)
(3.16206 7.47246 0)
(3.251 9.14346 0)
(3.47905 9.99418 0)
(3.20939 9.62463 0)
(2.46391 8.86719 0)
(2.50322 8.86434 0)
(3.91427 9.29013 0)
(4.63954 7.32502 0)
(1.5011 7.80677 0)
(7.68487 5.0563 0)
(2.25694 6.13516 0)
(7.70781 2.50307 0)
(3.45773 4.43783 0)
(7.48716 1.07548 0)
(4.43297 2.82348 0)
(7.49727 0.498967 0)
(4.79683 1.85218 0)
(7.79338 -0.634712 0)
(5.61584 0.330458 0)
(7.52292 -0.697956 0)
(5.02854 -0.0586249 0)
(7.13652 -2.15412 0)
(4.91957 -1.95238 0)
(6.29706 -3.04719 0)
(4.24769 -1.7353 0)
(5.7002 -2.47078 0)
(2.35565 -0.305247 0)
(3.85245 -0.736505 0)
(-0.978734 1.39495 0)
(3.26224 -0.740208 0)
(-0.635606 0.220714 0)
(3.01548 -2.69142 0)
(1.26149 -2.41828 0)
(5.76317 -0.09712 0)
(5.19421 -0.0262911 0)
(5.79281 -0.0132101 0)
(5.14449 -0.00808237 0)
(5.84654 -0.0419683 0)
(5.19504 -0.043032 0)
(6.00403 -0.0651016 0)
(5.32609 -0.0471459 0)
(6.17944 -0.0558592 0)
(5.4472 -0.0394372 0)
(6.33863 -0.0691313 0)
(5.55635 -0.0700336 0)
(6.48509 -0.120263 0)
(5.64916 -0.143795 0)
(6.62238 -0.21822 0)
(5.7379 -0.258495 0)
(6.73726 -0.345493 0)
(5.79053 -0.384304 0)
(6.7873 -0.453951 0)
(5.71497 -0.462531 0)
(6.68788 -0.490632 0)
(5.52621 -0.430474 0)
(6.4884 -0.403982 0)
(5.16177 -0.294646 0)
(6.02836 -0.225703 0)
(4.4909 -0.0603814 0)
(5.38148 0.0786411 0)
(3.9117 0.389411 0)
(5.23641 0.800186 0)
(4.25195 1.35673 0)
(6.00022 1.84138 0)
(5.4585 2.23331 0)
(7.20224 2.43195 0)
(6.86664 2.40923 0)
(8.42073 2.08417 0)
(8.02969 1.65999 0)
(9.28253 1.09141 0)
(8.77274 0.434912 0)
(9.74291 -0.237416 0)
(9.11506 -0.786112 0)
(10.1183 -1.28508 0)
(9.56961 -1.86124 0)
(10.4877 -2.49596 0)
(9.89613 -2.93974 0)
(10.9107 -3.36529 0)
(10.174 -3.82334 0)
(10.896 -3.90861 0)
(9.97398 -3.5287 0)
(10.3375 -3.20478 0)
(9.12185 -2.76527 0)
(9.7567 -2.1888 0)
(8.88434 -1.57707 0)
(9.46895 -1.18926 0)
(8.75746 -0.666238 0)
(9.71114 0.0662145 0)
(9.03087 0.854513 0)
(9.52634 1.21405 0)
(8.43073 1.48635 0)
(9.23851 1.68564 0)
(8.55091 2.05518 0)
(9.80356 2.33726 0)
(9.08378 2.55972 0)
(10.2881 2.43974 0)
(9.62718 2.24371 0)
(11.0226 1.9121 0)
(10.0401 1.57828 0)
(11.269 1.08883 0)
(10.101 0.541945 0)
(11.1997 -0.215309 0)
(9.9697 -0.703045 0)
(11.2244 -1.04508 0)
(9.76747 -1.45858 0)
(10.7911 -2.11908 0)
(9.23025 -2.39657 0)
(10.3029 -2.34106 0)
(8.65367 -2.15295 0)
(9.36033 -2.33417 0)
(7.56361 -2.3814 0)
(8.54464 -2.37678 0)
(7.20108 -2.02882 0)
(8.12548 -1.76178 0)
(6.82844 -1.32201 0)
(7.91224 -0.916222 0)
(6.92543 -0.314999 0)
(8.19849 0.181788 0)
(7.12814 0.804548 0)
(8.45225 1.28218 0)
(6.78686 1.57237 0)
(7.70625 1.34893 0)
(5.29006 1.37783 0)
(6.95648 1.47838 0)
(4.96604 2.03658 0)
(7.33581 2.24049 0)
(5.18968 2.6372 0)
(7.69139 2.31273 0)
(4.87135 2.33566 0)
(7.65584 1.80653 0)
(4.08455 1.99041 0)
(7.73366 1.4838 0)
(3.36004 1.83552 0)
(8.09721 1.28062 0)
(2.72226 1.70021 0)
(8.58416 0.959399 0)
(2.37568 1.4743 0)
(9.12288 0.570137 0)
(2.59891 1.28324 0)
(9.43289 0.129102 0)
(3.34042 0.922486 0)
(9.62702 -0.357643 0)
(4.4493 0.382226 0)
(9.76773 -0.707279 0)
(5.62863 -0.22334 0)
(9.84552 -1.14827 0)
(6.62889 -0.885651 0)
(9.95132 -1.681 0)
(7.64795 -1.5738 0)
(10.1185 -2.1667 0)
(8.72116 -2.03646 0)
(10.4383 -2.34194 0)
(9.70729 -2.17256 0)
(10.7197 -2.32987 0)
(10.4818 -2.15995 0)
(10.9149 -2.22418 0)
(11.0152 -2.09836 0)
(11.0509 -2.13087 0)
(11.4288 -2.08571 0)
(11.16 -2.1174 0)
(11.7168 -2.12957 0)
(11.3344 -2.21874 0)
(11.8371 -2.27093 0)
(11.4032 -2.29102 0)
(11.8861 -2.33411 0)
(11.4612 -2.36057 0)
(11.7648 -2.40087 0)
(11.8072 -2.4466 0)
(11.756 -2.56954 0)
(12.0079 -2.54861 0)
(11.9539 -2.69051 0)
(12.3608 -2.63264 0)
(12.3735 -2.83951 0)
(12.8005 -3.13811 0)
(12.9386 -3.38688 0)
(13.0368 -3.54858 0)
(12.9092 -3.72722 0)
(12.8783 -3.87586 0)
(12.4819 -3.76219 0)
(12.0667 -3.56044 0)
(11.4801 -3.56732 0)
(10.8239 -3.3058 0)
(10.1868 -2.48357 0)
(8.94513 -1.94284 0)
(8.54618 -1.49409 0)
(7.74457 -1.02615 0)
(7.47625 -0.823585 0)
(6.58491 -0.920353 0)
(6.21617 -1.17289 0)
(5.30028 -1.42293 0)
(4.90663 -2.04206 0)
(4.52753 -2.47964 0)
(3.34408 -3.10102 0)
(3.64607 -2.23926 0)
(3.4275 -0.0948919 0)
(3.95106 2.26326 0)
(3.83069 3.72651 0)
(4.61416 4.82961 0)
(3.65208 5.0429 0)
(4.14764 6.77132 0)
(3.78057 8.38519 0)
(3.14755 8.70204 0)
(3.48832 9.16149 0)
(3.75263 10.2537 0)
(3.96225 9.61356 0)
(3.8418 7.95242 0)
(2.4334 9.31901 0)
(7.51661 6.65213 0)
(2.16126 7.78085 0)
(8.41769 4.20491 0)
(3.35404 5.94384 0)
(8.40885 2.72187 0)
(4.03745 4.12588 0)
(8.55601 1.46101 0)
(4.75296 2.27447 0)
(8.3314 0.92999 0)
(4.97521 1.18584 0)
(8.86074 -0.538497 0)
(5.45972 0.200066 0)
(8.13509 -0.0943562 0)
(5.11071 -0.239837 0)
(7.71112 -1.75167 0)
(3.71969 -1.75448 0)
(5.51504 -2.28226 0)
(0.408384 -0.806305 0)
(4.19192 -1.04777 0)
(-1.33943 0.789386 0)
(4.46645 0.106357 0)
(-0.660361 1.46078 0)
(4.55822 -0.898404 0)
(2.74269 -0.906046 0)
(5.26637 -3.19195 0)
(5.07711 -3.04285 0)
(8.50706 -0.100943 0)
(7.91712 -0.0474051 0)
(8.4612 -0.0470727 0)
(7.81238 -0.0541246 0)
(8.45105 -0.0882883 0)
(7.84321 -0.0888646 0)
(8.5809 -0.113198 0)
(7.96275 -0.0983318 0)
(8.72886 -0.111714 0)
(8.06252 -0.0915657 0)
(8.85276 -0.11588 0)
(8.15104 -0.113348 0)
(8.97674 -0.16182 0)
(8.2218 -0.186314 0)
(9.07808 -0.248639 0)
(8.26471 -0.280099 0)
(9.12622 -0.358166 0)
(8.25515 -0.382753 0)
(9.12216 -0.422721 0)
(8.15343 -0.408365 0)
(9.01341 -0.421132 0)
(7.98178 -0.344228 0)
(8.81307 -0.294771 0)
(7.6591 -0.1729 0)
(8.48489 -0.0611199 0)
(7.22746 0.170012 0)
(8.01839 0.357031 0)
(6.70639 0.601143 0)
(7.58837 0.826357 0)
(6.47368 1.13669 0)
(7.62873 1.37517 0)
(7.06181 1.65567 0)
(8.48708 1.77738 0)
(8.23829 1.73285 0)
(9.56188 1.47258 0)
(9.3388 1.15711 0)
(10.475 0.648789 0)
(10.1297 0.127453 0)
(11.0636 -0.360036 0)
(10.6725 -0.928118 0)
(11.5143 -1.58713 0)
(11.1281 -2.02003 0)
(12.0848 -2.43457 0)
(11.4765 -3.11268 0)
(12.2395 -3.53549 0)
(11.4345 -3.54007 0)
(11.5714 -3.68751 0)
(10.2534 -3.53525 0)
(10.8872 -2.92508 0)
(9.6563 -2.42972 0)
(10.0881 -2.17769 0)
(9.12485 -1.5936 0)
(9.9971 -0.990873 0)
(8.90554 -0.496607 0)
(9.74073 -0.0328339 0)
(9.04212 0.697365 0)
(10.3431 1.36004 0)
(9.39174 1.78872 0)
(10.263 1.82582 0)
(9.02481 1.87707 0)
(10.245 1.97159 0)
(9.32815 2.1642 0)
(10.9999 2.22605 0)
(10.1849 2.10905 0)
(11.6697 1.79108 0)
(10.7629 1.51455 0)
(12.1938 1.00483 0)
(11.0467 0.367189 0)
(12.4565 -0.125356 0)
(11.1212 -0.439368 0)
(12.167 -1.01746 0)
(10.612 -1.53813 0)
(11.8995 -1.99 0)
(10.0598 -2.24236 0)
(11.1707 -2.26846 0)
(9.34451 -1.87544 0)
(10.5965 -1.77792 0)
(8.36576 -1.90456 0)
(9.62017 -2.09242 0)
(7.73025 -1.82266 0)
(9.30107 -1.55225 0)
(7.36354 -1.1713 0)
(8.95055 -0.905289 0)
(7.17703 -0.345019 0)
(9.01222 0.0854577 0)
(7.36079 0.793895 0)
(9.3024 1.25115 0)
(7.59763 1.79209 0)
(9.45128 1.88335 0)
(6.94947 2.13216 0)
(8.55095 1.8258 0)
(5.66064 2.03342 0)
(8.30187 1.944 0)
(5.52967 2.38846 0)
(8.97607 2.10866 0)
(5.60293 2.32543 0)
(9.5675 1.91317 0)
(5.16642 2.07389 0)
(9.93337 1.53462 0)
(4.69199 1.87127 0)
(10.2672 1.27966 0)
(4.33391 1.72699 0)
(10.5533 0.879117 0)
(4.479 1.48835 0)
(10.7813 0.522786 0)
(4.96039 1.2054 0)
(10.8226 0.0769638 0)
(5.61697 0.68293 0)
(11.0305 -0.50588 0)
(6.47484 0.0576852 0)
(11.2723 -0.93043 0)
(7.35788 -0.487681 0)
(11.3856 -1.36789 0)
(8.01261 -1.04595 0)
(11.4165 -1.90314 0)
(8.57876 -1.66647 0)
(11.5011 -2.42498 0)
(9.3082 -2.18729 0)
(11.716 -2.66044 0)
(10.0892 -2.33117 0)
(11.8631 -2.57767 0)
(10.6518 -2.22362 0)
(11.8104 -2.40198 0)
(11.0881 -2.15964 0)
(11.7737 -2.33562 0)
(11.5866 -2.17032 0)
(11.8681 -2.25977 0)
(12.0448 -2.162 0)
(11.9632 -2.27895 0)
(12.3323 -2.19201 0)
(11.9647 -2.33992 0)
(12.434 -2.28246 0)
(11.9975 -2.29631 0)
(12.4448 -2.46333 0)
(12.1397 -2.4966 0)
(12.5366 -2.59541 0)
(12.3893 -2.6207 0)
(12.7962 -2.82735 0)
(12.7765 -2.84163 0)
(13.2114 -3.11503 0)
(13.4892 -3.36038 0)
(13.4441 -3.51089 0)
(13.582 -3.63051 0)
(13.3339 -3.68215 0)
(13.365 -3.53366 0)
(12.5158 -3.4618 0)
(12.3427 -3.19826 0)
(11.5191 -2.84807 0)
(10.7163 -2.55902 0)
(9.70731 -1.87077 0)
(9.07871 -1.36014 0)
(8.29844 -0.864631 0)
(7.78732 -0.456368 0)
(7.25322 -0.373409 0)
(6.56722 -0.602069 0)
(6.13975 -0.590273 0)
(5.44018 -1.01398 0)
(5.17816 -1.40708 0)
(3.97857 -1.98885 0)
(3.76114 -2.42622 0)
(2.97912 -2.02457 0)
(2.73274 -0.548955 0)
(4.0056 2.14087 0)
(3.71729 3.64646 0)
(4.25459 4.88884 0)
(4.44276 5.83476 0)
(3.59005 6.25883 0)
(4.35819 8.0333 0)
(4.26396 9.57516 0)
(3.80888 9.16382 0)
(3.75752 8.9128 0)
(4.12788 10.1486 0)
(6.57726 7.91891 0)
(2.40439 9.05312 0)
(8.87909 5.88805 0)
(3.03947 7.47046 0)
(8.97919 4.11299 0)
(4.39628 5.65631 0)
(8.98891 3.02633 0)
(4.87641 3.59637 0)
(9.19229 1.31981 0)
(5.54267 2.14125 0)
(8.68681 0.872469 0)
(6.15345 0.827942 0)
(9.05458 -0.63264 0)
(5.62983 0.579202 0)
(8.46361 -0.0605557 0)
(5.99354 -0.103563 0)
(7.24218 -0.690867 0)
(2.02453 0.29108 0)
(4.5427 -1.18227 0)
(0.0662007 -0.117805 0)
(4.10382 -1.84226 0)
(1.28055 0.359341 0)
(4.46807 -0.974517 0)
(4.22381 0.183214 0)
(6.21962 -1.56472 0)
(7.19999 -2.42593 0)
(8.03024 -3.42694 0)
(8.27072 -3.71476 0)
(10.7504 -0.0645124 0)
(10.2734 -0.035316 0)
(10.6517 -0.0541698 0)
(10.1404 -0.0790629 0)
(10.6059 -0.120427 0)
(10.1522 -0.122128 0)
(10.7025 -0.146064 0)
(10.2456 -0.131402 0)
(10.8243 -0.142322 0)
(10.3178 -0.125981 0)
(10.9085 -0.15359 0)
(10.3576 -0.148265 0)
(10.9801 -0.193495 0)
(10.3825 -0.220126 0)
(11.0253 -0.280022 0)
(10.393 -0.279308 0)
(11.0203 -0.36213 0)
(10.3554 -0.36921 0)
(10.9907 -0.388349 0)
(10.2469 -0.359045 0)
(10.8587 -0.386316 0)
(10.0835 -0.282301 0)
(10.6912 -0.190532 0)
(9.84363 -0.0533816 0)
(10.4908 0.0622543 0)
(9.58265 0.339103 0)
(10.2006 0.518747 0)
(9.31724 0.716628 0)
(9.98204 0.925832 0)
(9.15214 1.24078 0)
(9.90948 1.33877 0)
(9.37139 1.38919 0)
(10.359 1.44292 0)
(10.0852 1.44221 0)
(11.1822 1.13396 0)
(10.9933 0.779871 0)
(11.9583 0.426559 0)
(11.7364 -0.0543415 0)
(12.5879 -0.689271 0)
(12.3137 -1.14382 0)
(13.0913 -1.54006 0)
(12.6312 -2.23275 0)
(13.3742 -2.74185 0)
(12.7639 -2.97169 0)
(12.9018 -3.34361 0)
(11.9142 -3.49944 0)
(12.4528 -3.15119 0)
(10.9471 -2.87415 0)
(11.0951 -2.49467 0)
(9.91724 -1.87247 0)
(10.435 -1.55081 0)
(9.01603 -1.41998 0)
(9.97309 -1.01159 0)
(9.01151 -0.454138 0)
(10.0285 -0.0623638 0)
(8.98894 0.401513 0)
(10.3978 0.963462 0)
(9.6836 1.51285 0)
(10.9862 1.86001 0)
(9.93268 2.04434 0)
(11.0203 2.03287 0)
(9.99826 2.00763 0)
(11.1037 1.80784 0)
(10.3138 1.6128 0)
(11.7628 1.40512 0)
(11.13 1.22181 0)
(12.3402 0.846625 0)
(11.659 0.453446 0)
(12.7577 -0.133052 0)
(11.7484 -0.491147 0)
(12.7626 -0.827957 0)
(11.5083 -1.20407 0)
(12.3996 -1.75568 0)
(10.8873 -1.80524 0)
(11.6896 -1.77928 0)
(9.76942 -1.54319 0)
(11.0513 -1.53963 0)
(9.35188 -1.51364 0)
(10.5973 -1.81836 0)
(8.58296 -1.6815 0)
(10.1214 -1.41198 0)
(8.09702 -0.871377 0)
(9.61288 -0.756449 0)
(7.49556 -0.35767 0)
(9.51623 -0.0587538 0)
(7.69418 0.674244 0)
(9.91901 1.0798 0)
(7.91123 1.65161 0)
(10.2895 1.82431 0)
(7.76803 2.28208 0)
(10.3136 2.22542 0)
(7.07054 2.38123 0)
(10.0031 2.06512 0)
(6.28372 2.28044 0)
(10.2951 1.9098 0)
(6.16586 2.15586 0)
(10.8215 1.77305 0)
(6.18727 2.09578 0)
(11.2717 1.45543 0)
(6.35036 1.92905 0)
(11.5446 1.27408 0)
(6.53942 1.78904 0)
(11.6376 0.798811 0)
(6.98089 1.30824 0)
(11.6611 0.439671 0)
(7.49284 0.960949 0)
(11.7392 -0.0347921 0)
(8.14543 0.38017 0)
(12.0942 -0.635222 0)
(8.90548 -0.167137 0)
(12.5275 -0.98699 0)
(9.64614 -0.546367 0)
(12.797 -1.27503 0)
(9.97887 -1.01705 0)
(12.7041 -1.89342 0)
(9.91274 -1.76316 0)
(12.591 -2.6149 0)
(10.0897 -2.30981 0)
(12.7821 -2.83923 0)
(10.6334 -2.34541 0)
(12.9647 -2.68975 0)
(10.9775 -2.21702 0)
(12.8462 -2.53839 0)
(11.1108 -2.19858 0)
(12.6407 -2.49413 0)
(11.3802 -2.19942 0)
(12.5514 -2.4304 0)
(11.8512 -2.20509 0)
(12.5902 -2.44729 0)
(12.2656 -2.26569 0)
(12.585 -2.37767 0)
(12.5488 -2.34362 0)
(12.4986 -2.42546 0)
(12.9308 -2.43859 0)
(12.4987 -2.55656 0)
(13.2171 -2.68073 0)
(12.7041 -2.79191 0)
(13.5768 -2.85276 0)
(13.171 -3.14923 0)
(13.9577 -3.28128 0)
(13.5838 -3.41044 0)
(13.9034 -3.5192 0)
(13.8268 -3.51438 0)
(13.4419 -3.49454 0)
(13.3566 -3.24839 0)
(12.6174 -3.08867 0)
(12.4197 -2.59887 0)
(11.1108 -2.27629 0)
(10.6675 -1.79723 0)
(9.45502 -1.23275 0)
(9.08948 -0.722901 0)
(8.00663 -0.319459 0)
(7.69492 -0.0799574 0)
(6.93301 0.0777411 0)
(6.78208 -0.0684697 0)
(5.76189 -0.291435 0)
(5.8721 -0.597903 0)
(4.95744 -0.903648 0)
(4.50975 -1.4661 0)
(3.55766 -1.69659 0)
(2.32962 -1.73211 0)
(2.89374 -0.338928 0)
(2.22866 1.26725 0)
(4.19708 3.43558 0)
(3.36867 4.11161 0)
(4.49459 5.66271 0)
(4.09632 6.80183 0)
(3.75826 7.67893 0)
(4.2606 9.59526 0)
(4.59793 10.0126 0)
(5.11699 8.15572 0)
(3.09063 10.0435 0)
(8.60682 7.18746 0)
(2.88161 8.72047 0)
(9.49875 5.24877 0)
(3.89348 7.45121 0)
(9.80325 4.03042 0)
(4.72761 5.24896 0)
(9.66403 3.24252 0)
(5.71548 2.97953 0)
(9.62429 1.47101 0)
(6.23853 1.97267 0)
(9.11165 1.05085 0)
(6.91185 0.465337 0)
(8.46887 -0.00944644 0)
(6.49143 0.526199 0)
(8.35102 -0.0305641 0)
(6.76322 0.274396 0)
(7.38679 0.583735 0)
(6.19049 0.629155 0)
(7.55691 -0.234227 0)
(6.12708 -0.616551 0)
(7.23143 -1.2869 0)
(6.07561 -1.17918 0)
(7.60707 -0.881672 0)
(7.94143 -1.4319 0)
(9.65767 -1.91186 0)
(9.80748 -2.90906 0)
(10.434 -3.3755 0)
(9.65631 -3.45756 0)
(12.2251 -0.0400934 0)
(11.9018 -0.0580692 0)
(12.0947 -0.0836036 0)
(11.7465 -0.117625 0)
(12.0413 -0.146908 0)
(11.7435 -0.139612 0)
(12.1153 -0.149157 0)
(11.806 -0.135173 0)
(12.1915 -0.152051 0)
(11.8345 -0.136956 0)
(12.2425 -0.182732 0)
(11.8299 -0.171842 0)
(12.2669 -0.212062 0)
(11.8378 -0.228819 0)
(12.2731 -0.2876 0)
(11.7965 -0.262212 0)
(12.2554 -0.339184 0)
(11.7239 -0.343135 0)
(12.172 -0.332951 0)
(11.6066 -0.30963 0)
(12.0512 -0.334893 0)
(11.4056 -0.204614 0)
(11.9078 -0.109173 0)
(11.2665 -0.018571 0)
(11.7492 0.110878 0)
(11.0771 0.40645 0)
(11.7133 0.508447 0)
(11.1452 0.696908 0)
(11.7186 0.995477 0)
(11.22 1.22208 0)
(11.9929 1.20888 0)
(11.6182 1.3325 0)
(12.3401 1.37874 0)
(12.1758 1.173 0)
(13.0017 0.875898 0)
(12.851 0.657087 0)
(13.5229 0.137134 0)
(13.4835 -0.369623 0)
(14.0283 -0.744559 0)
(13.7195 -1.27012 0)
(14.1711 -1.86172 0)
(13.9182 -2.20837 0)
(13.8991 -2.57452 0)
(13.2417 -2.91976 0)
(13.4333 -2.98644 0)
(12.3634 -2.96947 0)
(12.0733 -2.71724 0)
(10.9173 -2.37436 0)
(10.9998 -2.21374 0)
(10.1726 -1.95095 0)
(10.8068 -1.45829 0)
(9.77077 -1.13949 0)
(10.212 -0.946737 0)
(9.35255 -0.498566 0)
(10.2135 0.0352037 0)
(9.33897 0.441648 0)
(10.1979 0.754975 0)
(9.59782 1.30946 0)
(10.7136 1.68369 0)
(10.333 1.86322 0)
(11.3541 1.93542 0)
(10.8192 2.08208 0)
(11.649 1.85475 0)
(11.0656 1.46464 0)
(11.8105 1.08095 0)
(11.3329 0.936128 0)
(12.2047 0.571689 0)
(11.7368 0.0781897 0)
(12.6807 -0.365548 0)
(12.06 -0.464126 0)
(12.6429 -0.828895 0)
(11.7036 -1.21269 0)
(12.4026 -1.68838 0)
(11.1634 -1.63304 0)
(11.828 -1.49271 0)
(10.3404 -1.24313 0)
(11.3513 -1.46684 0)
(10.0202 -1.41299 0)
(11.2987 -1.55074 0)
(9.47361 -1.33963 0)
(10.7264 -1.23015 0)
(8.76503 -0.673456 0)
(10.3732 -0.484328 0)
(8.05568 -0.175185 0)
(9.98641 -0.0586477 0)
(7.80467 0.553485 0)
(10.3622 0.889003 0)
(8.13955 1.47034 0)
(10.956 1.70233 0)
(8.26074 2.27873 0)
(11.3248 2.22295 0)
(8.16 2.55918 0)
(11.4121 2.26514 0)
(7.64377 2.49602 0)
(11.4436 1.90011 0)
(7.44297 2.21985 0)
(11.5013 1.64085 0)
(7.64515 2.03313 0)
(11.7822 1.29423 0)
(8.12669 1.86628 0)
(11.9724 1.1895 0)
(8.69518 1.64356 0)
(12.2013 0.634532 0)
(9.33209 1.12727 0)
(12.3431 0.359387 0)
(10.0288 0.760582 0)
(12.6174 -0.162137 0)
(10.4636 0.0615029 0)
(12.6344 -0.838568 0)
(10.5798 -0.528321 0)
(12.8275 -1.26626 0)
(11.173 -0.930816 0)
(13.3004 -1.47014 0)
(11.5917 -1.12529 0)
(13.3758 -1.72817 0)
(11.425 -1.61622 0)
(13.2534 -2.50916 0)
(11.2745 -2.36871 0)
(13.3693 -3.05984 0)
(11.4181 -2.54558 0)
(13.5895 -2.82783 0)
(11.5183 -2.15317 0)
(13.5924 -2.43076 0)
(11.383 -1.98244 0)
(13.2598 -2.48601 0)
(11.1984 -2.15259 0)
(12.9994 -2.58809 0)
(11.3561 -2.31087 0)
(13.0105 -2.55955 0)
(11.7949 -2.25565 0)
(12.9905 -2.50161 0)
(12.3611 -2.25754 0)
(12.9811 -2.51047 0)
(12.7654 -2.50495 0)
(13.0067 -2.736 0)
(13.2565 -2.69398 0)
(13.0613 -3.00116 0)
(13.7167 -3.10635 0)
(13.3319 -3.23911 0)
(13.9875 -3.3799 0)
(13.5304 -3.41054 0)
(14.0017 -3.50826 0)
(13.4669 -3.28377 0)
(13.6054 -3.32164 0)
(13.1601 -2.8507 0)
(12.7017 -2.57448 0)
(12.0284 -2.07251 0)
(11.2181 -1.5715 0)
(10.441 -1.08527 0)
(9.35999 -0.516094 0)
(8.85623 -0.0486814 0)
(7.71266 0.201615 0)
(7.66885 0.41602 0)
(6.58823 0.391326 0)
(6.87384 0.459775 0)
(5.74735 0.149311 0)
(5.68242 -0.24809 0)
(4.75131 -0.535645 0)
(4.80703 -0.748078 0)
(2.97234 -1.18794 0)
(3.15095 -1.18605 0)
(1.72817 -0.263212 0)
(2.68292 1.16026 0)
(2.29579 3.02995 0)
(3.90505 4.59118 0)
(3.14888 5.24556 0)
(4.33564 7.43737 0)
(4.04292 7.82312 0)
(3.99008 7.88409 0)
(4.21328 10.4904 0)
(7.52451 7.91816 0)
(2.65015 9.81096 0)
(9.74656 6.32048 0)
(3.54985 8.51154 0)
(10.0985 5.46921 0)