/*--------------------------------*- C++ -*----------------------------------*\
| =========                 |                                                 |
| \\      /  F ield         | OpenFOAM: The Open Source CFD Toolbox           |
|  \\    /   O peration     | Version:  2.4.0                                 |
|   \\  /    A nd           | Web:      www.OpenFOAM.org                      |
|    \\/     M anipulation  |                                                 |
\*---------------------------------------------------------------------------*/
FoamFile
{
    version     2.0;
    format      ascii;
    class       volScalarField;
    location    "32";
    object      p;
}
// * * * * * * * * * * * * * * * * * * * * * * * * * * * * * * * * * * * * * //

dimensions      [0 2 -2 0 0 0 0];

internalField   nonuniform List<scalar> 
4400
(
-0.103655
-0.106118
-0.116533
-0.109981
-0.104934
-0.109077
-0.116453
-0.113165
-0.108544
-0.119406
-0.113787
-0.113037
-0.121725
-0.11618
-0.119423
-0.122441
-0.12245
-0.123666
-0.124342
-0.134988
-0.103663
-0.105899
-0.116783
-0.110174
-0.10467
-0.108992
-0.116644
-0.113305
-0.108213
-0.119594
-0.11395
-0.112667
-0.121986
-0.11616
-0.119323
-0.122578
-0.122423
-0.123671
-0.124178
-0.134403
-0.103649
-0.105682
-0.117156
-0.11033
-0.10437
-0.108925
-0.11691
-0.113423
-0.107814
-0.119967
-0.114096
-0.112289
-0.122373
-0.116037
-0.119221
-0.122736
-0.122327
-0.123619
-0.123948
-0.133364
-0.103644
-0.105563
-0.117421
-0.110364
-0.104111
-0.108914
-0.1171
-0.113449
-0.107551
-0.120331
-0.114144
-0.11202
-0.122692
-0.115871
-0.119129
-0.122873
-0.122146
-0.123515
-0.123634
-0.131982
-0.103705
-0.105585
-0.117423
-0.110296
-0.104185
-0.108991
-0.1171
-0.11339
-0.107554
-0.120535
-0.114109
-0.112002
-0.122743
-0.115757
-0.119015
-0.122924
-0.121895
-0.123262
-0.12351
-0.130426
-0.103921
-0.105767
-0.117058
-0.110202
-0.104618
-0.109173
-0.116823
-0.113353
-0.10794
-0.120487
-0.114113
-0.11232
-0.122572
-0.115784
-0.118905
-0.122812
-0.121684
-0.122879
-0.123491
-0.128899
-0.104395
-0.106103
-0.116215
-0.110129
-0.105421
-0.109469
-0.116205
-0.113474
-0.108814
-0.120086
-0.114287
-0.112987
-0.122136
-0.116019
-0.118834
-0.12249
-0.121532
-0.122447
-0.123457
-0.127475
-0.105177
-0.106566
-0.114787
-0.110079
-0.10652
-0.109913
-0.115246
-0.113772
-0.110195
-0.119282
-0.114678
-0.113954
-0.12138
-0.116475
-0.118816
-0.121968
-0.121416
-0.122075
-0.123334
-0.126111
-0.106233
-0.107086
-0.112763
-0.110035
-0.10782
-0.110523
-0.113985
-0.114139
-0.111971
-0.117827
-0.115264
-0.115111
-0.120293
-0.117107
-0.118848
-0.121289
-0.121213
-0.121853
-0.123112
-0.124699
-0.107444
-0.107575
-0.11028
-0.109963
-0.109227
-0.11126
-0.112487
-0.114403
-0.113937
-0.115929
-0.11595
-0.11629
-0.118918
-0.117833
-0.11892
-0.120532
-0.12089
-0.12181
-0.122814
-0.123168
-0.108647
-0.107958
-0.107585
-0.109818
-0.110653
-0.112041
-0.110867
-0.114432
-0.11583
-0.11383
-0.116607
-0.117314
-0.11737
-0.118533
-0.119003
-0.119788
-0.120438
-0.121906
-0.12245
-0.121541
-0.109701
-0.108202
-0.104961
-0.109569
-0.112003
-0.112763
-0.109291
-0.114204
-0.117396
-0.111827
-0.117137
-0.118056
-0.11582
-0.119072
-0.119077
-0.119125
-0.119902
-0.122066
-0.122018
-0.119907
-0.11053
-0.108328
-0.102653
-0.109223
-0.113188
-0.11335
-0.107948
-0.113803
-0.118488
-0.110198
-0.117488
-0.118503
-0.114448
-0.11924
-0.119149
-0.11857
-0.119352
-0.122222
-0.121534
-0.11839
-0.111114
-0.108392
-0.100841
-0.108814
-0.114133
-0.113757
-0.106974
-0.113352
-0.119104
-0.109099
-0.117639
-0.11874
-0.113403
-0.119164
-0.119227
-0.11812
-0.11887
-0.122322
-0.121044
-0.11711
-0.111466
-0.108453
-0.0996299
-0.108399
-0.114784
-0.113978
-0.106416
-0.112964
-0.119348
-0.108551
-0.117609
-0.11886
-0.112764
-0.119105
-0.119304
-0.117767
-0.118505
-0.122339
-0.120607
-0.116156
-0.111616
-0.108543
-0.099014
-0.108037
-0.115164
-0.114051
-0.106224
-0.1127
-0.119359
-0.108461
-0.117468
-0.118921
-0.112508
-0.118952
-0.119368
-0.117483
-0.118273
-0.122261
-0.120259
-0.115564
-0.111617
-0.108603
-0.0988718
-0.107781
-0.115323
-0.114016
-0.10629
-0.112565
-0.119191
-0.108668
-0.117304
-0.118898
-0.112544
-0.118773
-0.11939
-0.117362
-0.11817
-0.122104
-0.120002
-0.115309
-0.111526
-0.108544
-0.0990578
-0.107651
-0.115176
-0.113895
-0.106508
-0.11254
-0.11884
-0.109009
-0.11717
-0.118729
-0.112767
-0.118609
-0.119336
-0.117347
-0.118165
-0.121904
-0.119815
-0.115315
-0.111415
-0.108359
-0.0993858
-0.107646
-0.114917
-0.113721
-0.106773
-0.112594
-0.118405
-0.109346
-0.117106
-0.118453
-0.11305
-0.11849
-0.119223
-0.11739
-0.118218
-0.121719
-0.119676
-0.115474
-0.111368
-0.108144
-0.0996451
-0.10774
-0.114689
-0.113571
-0.106959
-0.112694
-0.117831
-0.109535
-0.11714
-0.118168
-0.113268
-0.118455
-0.119111
-0.117524
-0.11828
-0.121616
-0.11958
-0.115736
-0.12359
-0.112381
-0.143008
-0.180595
-0.136824
-0.0755348
-0.0767216
-0.131655
-0.185856
-0.15264
-0.0794109
-0.0876989
-0.155211
-0.192488
-0.180131
-0.173561
-0.200418
-0.220879
-0.202517
-0.144142
-0.0764289
-0.00961795
0.0102277
-0.0528947
-0.107575
-0.143912
-0.155292
-0.104971
-0.0433021
-0.0211841
-0.0289622
-0.0357564
-0.0345268
-0.0290519
-0.0201882
-0.0083218
0.00331606
0.0118351
0.0167465
0.0192451
0.0204908
0.0210731
0.0212595
0.021211
0.0210326
0.0207855
0.0205025
0.0202004
0.0198879
0.0195693
0.0192465
0.0189206
0.018592
0.0182608
0.0179273
0.0175913
0.0172529
0.0169122
0.0165691
0.0162236
0.0158757
0.0155255
0.0151727
0.0148174
0.0144596
0.0140994
0.0137366
0.0133714
0.0130035
0.0126331
0.0122599
0.0118842
0.0115058
0.0111248
0.0107412
0.0103548
0.00996597
0.00957417
0.00918002
0.00878281
0.00838307
0.00798042
0.00757491
0.00716671
0.00675539
0.00634143
0.00592439
0.00550444
0.00508165
0.00465572
0.00422694
0.00379511
0.00336018
0.0029223
0.00248126
0.00203712
0.0015899
0.00113949
0.000685917
0.000229174
-0.123942
-0.111355
-0.142212
-0.181194
-0.137884
-0.0760741
-0.0755393
-0.126883
-0.179289
-0.153912
-0.0836252
-0.0844807
-0.144003
-0.180876
-0.17886
-0.184748
-0.21657
-0.237132
-0.211906
-0.144881
-0.074808
-0.00567298
0.0140731
-0.0551929
-0.115087
-0.154462
-0.166333
-0.111542
-0.0437847
-0.0174436
-0.0244724
-0.0320036
-0.0316478
-0.0268946
-0.0188469
-0.00785591
0.00309211
0.0112692
0.0161455
0.0187629
0.0201621
0.0208736
0.021148
0.0211522
0.021003
0.0207713
0.020496
0.0201977
0.0198869
0.019569
0.0192465
0.0189207
0.0185921
0.0182609
0.0179273
0.0175913
0.017253
0.0169122
0.0165691
0.0162236
0.0158758
0.0155255
0.0151727
0.0148174
0.0144596
0.0140994
0.0137366
0.0133714
0.0130035
0.0126331
0.0122599
0.0118842
0.0115058
0.0111248
0.0107412
0.0103548
0.00996597
0.00957417
0.00918002
0.0087828
0.00838307
0.00798042
0.0075749
0.00716672
0.00675539
0.00634143
0.00592439
0.00550444
0.00508165
0.00465573
0.00422694
0.00379511
0.00336018
0.00292231
0.00248125
0.00203712
0.00158991
0.00113948
0.00068593
0.000229171
-0.124348
-0.111987
-0.140933
-0.179214
-0.139528
-0.0780485
-0.0764603
-0.123327
-0.17148
-0.1529
-0.0880782
-0.0817678
-0.132146
-0.167598
-0.175672
-0.194722
-0.23197
-0.252662
-0.221485
-0.147983
-0.0744306
-0.00257442
0.0171829
-0.0571619
-0.121882
-0.164139
-0.176157
-0.116902
-0.043244
-0.012747
-0.0190702
-0.0275498
-0.028323
-0.0244522
-0.0173345
-0.00733134
0.00285142
0.0106666
0.0155199
0.0182712
0.0198319
0.0206756
0.0210386
0.0210951
0.0209746
0.0207578
0.02049
0.0201952
0.0198861
0.0195688
0.0192465
0.0189207
0.0185921
0.0182609
0.0179273
0.0175913
0.017253
0.0169122
0.0165691
0.0162236
0.0158758
0.0155255
0.0151727
0.0148174
0.0144596
0.0140994
0.0137366
0.0133714
0.0130035
0.0126331
0.0122599
0.0118842
0.0115058
0.0111248
0.0107412
0.0103548
0.00996598
0.00957418
0.00918003
0.00878281
0.00838307
0.00798042
0.0075749
0.00716672
0.00675539
0.00634143
0.00592439
0.00550444
0.00508165
0.00465573
0.00422694
0.00379511
0.00336018
0.00292231
0.00248125
0.00203712
0.00158991
0.00113948
0.00068593
0.000229171
-0.124803
-0.113766
-0.137904
-0.173819
-0.14129
-0.0811567
-0.077998
-0.1206
-0.16243
-0.149237
-0.092
-0.0796009
-0.120254
-0.153295
-0.170539
-0.202659
-0.245704
-0.266683
-0.230784
-0.152474
-0.0754622
-0.000511397
0.0193619
-0.0588869
-0.127888
-0.172795
-0.184606
-0.120921
-0.0416314
-0.00714289
-0.0128403
-0.0224705
-0.0246068
-0.021763
-0.0156772
-0.0067672
0.00258158
0.0100231
0.0148719
0.0177744
0.0195042
0.0204813
0.0209324
0.0210404
0.0209478
0.0207453
0.0204845
0.0201931
0.0198853
0.0195686
0.0192466
0.0189208
0.0185922
0.018261
0.0179274
0.0175914
0.017253
0.0169122
0.0165691
0.0162236
0.0158758
0.0155255
0.0151727
0.0148174
0.0144596
0.0140994
0.0137366
0.0133714
0.0130035
0.0126331
0.0122599
0.0118842
0.0115058
0.0111248
0.0107412
0.0103548
0.00996599
0.00957418
0.00918003
0.00878281
0.00838307
0.00798042
0.0075749
0.00716672
0.00675539
0.00634143
0.00592439
0.00550444
0.00508165
0.00465573
0.00422694
0.00379511
0.00336018
0.00292231
0.00248125
0.00203712
0.00158991
0.00113948
0.000685928
0.000229171
-0.124868
-0.116163
-0.133749
-0.166085
-0.14275
-0.0851083
-0.0796963
-0.118211
-0.152824
-0.143256
-0.094734
-0.0779099
-0.108832
-0.138707
-0.163794
-0.208125
-0.257067
-0.278568
-0.239344
-0.158024
-0.0777202
0.000387687
0.020406
-0.0604392
-0.133042
-0.180303
-0.191559
-0.123511
-0.0389295
-0.000710131
-0.00590023
-0.0168675
-0.0205684
-0.0188728
-0.0139056
-0.00618358
0.00227006
0.00933473
0.0142042
0.0172773
0.0191827
0.0202935
0.0208309
0.0209889
0.0209229
0.0207339
0.0204797
0.0201912
0.0198848
0.0195685
0.0192466
0.0189209
0.0185923
0.0182611
0.0179274
0.0175914
0.017253
0.0169123
0.0165691
0.0162237
0.0158758
0.0155255
0.0151727
0.0148174
0.0144596
0.0140994
0.0137366
0.0133714
0.0130035
0.0126331
0.0122599
0.0118842
0.0115058
0.0111248
0.0107412
0.0103548
0.009966
0.00957419
0.00918004
0.00878281
0.00838307
0.00798042
0.0075749
0.00716672
0.00675539
0.00634143
0.00592439
0.00550444
0.00508165
0.00465573
0.00422694
0.00379511
0.00336018
0.00292231
0.00248125
0.00203712
0.00158991
0.00113948
0.000685927
0.000229171
-0.124481
-0.118583
-0.129858
-0.157346
-0.143226
-0.0896832
-0.081464
-0.11578
-0.143354
-0.135741
-0.0960376
-0.0765439
-0.0983111
-0.124583
-0.155941
-0.210997
-0.265645
-0.287945
-0.246824
-0.164158
-0.080895
5.1238e-05
0.0201501
-0.0618267
-0.137267
-0.186556
-0.196933
-0.124622
-0.0351463
0.00644279
0.00160177
-0.010865
-0.0162879
-0.0158333
-0.0120532
-0.00560061
0.00190512
0.00859834
0.0135199
0.0167847
0.0188716
0.0201146
0.0207357
0.0209412
0.0209003
0.0207239
0.0204756
0.0201897
0.0198844
0.0195685
0.0192468
0.018921
0.0185924
0.0182611
0.0179274
0.0175914
0.017253
0.0169123
0.0165691
0.0162237
0.0158758
0.0155255
0.0151727
0.0148174
0.0144596
0.0140994
0.0137366
0.0133714
0.0130035
0.0126331
0.0122599
0.0118842
0.0115058
0.0111248
0.0107412
0.0103548
0.00996601
0.0095742
0.00918004
0.00878281
0.00838307
0.00798042
0.0075749
0.00716672
0.00675539
0.00634143
0.00592439
0.00550444
0.00508165
0.00465573
0.00422694
0.00379511
0.00336017
0.00292231
0.00248125
0.00203712
0.00158991
0.00113948
0.000685925
0.000229171
-0.123747
-0.120581
-0.126656
-0.148543
-0.142324
-0.0946201
-0.0835581
-0.113052
-0.134336
-0.12756
-0.0958893
-0.0753678
-0.0889508
-0.111523
-0.147593
-0.211474
-0.271338
-0.294708
-0.253008
-0.170331
-0.0845973
-0.00150347
0.0185166
-0.0629793
-0.140447
-0.191455
-0.200677
-0.124248
-0.0303188
0.014182
0.00949633
-0.00460225
-0.0118528
-0.0126986
-0.0101553
-0.00503767
0.00147678
0.00781288
0.0128233
0.0163017
0.0185748
0.0199472
0.020648
0.0208982
0.0208805
0.0207154
0.0204722
0.0201887
0.0198842
0.0195687
0.0192469
0.0189212
0.0185925
0.0182612
0.0179275
0.0175914
0.017253
0.0169123
0.0165692
0.0162237
0.0158758
0.0155255
0.0151727
0.0148174
0.0144596
0.0140994
0.0137366
0.0133714
0.0130035
0.0126331
0.0122599
0.0118842
0.0115058
0.0111248
0.0107412
0.0103548
0.00996602
0.0095742
0.00918004
0.00878281
0.00838307
0.00798042
0.0075749
0.00716672
0.00675539
0.00634143
0.00592439
0.00550444
0.00508166
0.00465573
0.00422694
0.00379511
0.00336017
0.0029223
0.00248125
0.00203711
0.0015899
0.00113948
0.000685924
0.000229171
-0.122867
-0.12191
-0.124178
-0.140493
-0.140028
-0.0995461
-0.086243
-0.110055
-0.125798
-0.119388
-0.0945357
-0.074268
-0.0809122
-0.100003
-0.139397
-0.20999
-0.274314
-0.298913
-0.257733
-0.175985
-0.0884058
-0.00418929
0.0155046
-0.0637915
-0.142432
-0.194911
-0.202766
-0.122424
-0.0245066
0.0223543
0.017599
0.00177216
-0.00735278
-0.00952332
-0.0082474
-0.00451219
0.000978226
0.00698089
0.0121205
0.0158338
0.018296
0.0197935
0.020569
0.0208603
0.0208636
0.0207085
0.0204698
0.020188
0.0198842
0.0195689
0.0192471
0.0189213
0.0185926
0.0182612
0.0179275
0.0175915
0.017253
0.0169123
0.0165692
0.0162237
0.0158758
0.0155255
0.0151727
0.0148174
0.0144596
0.0140994
0.0137366
0.0133714
0.0130035
0.0126331
0.0122599
0.0118842
0.0115058
0.0111248
0.0107412
0.0103548
0.00996602
0.00957421
0.00918005
0.00878281
0.00838307
0.00798042
0.0075749
0.00716671
0.00675538
0.00634143
0.00592439
0.00550444
0.00508166
0.00465572
0.00422694
0.00379511
0.00336017
0.0029223
0.00248125
0.00203711
0.0015899
0.00113948
0.000685923
0.000229171
-0.122085
-0.122522
-0.12225
-0.133698
-0.136595
-0.104024
-0.0895753
-0.106946
-0.117771
-0.111688
-0.0923762
-0.0731931
-0.0743381
-0.0903462
-0.13185
-0.207085
-0.274959
-0.300769
-0.26088
-0.180608
-0.0919089
-0.00787588
0.011168
-0.0641628
-0.14307
-0.196858
-0.203184
-0.11922
-0.0177973
0.0307873
0.0257178
0.0081077
-0.00287489
-0.00636042
-0.00636306
-0.00403821
0.000408074
0.00611054
0.0114206
0.0153877
0.0180392
0.0196555
0.0204997
0.0208282
0.02085
0.0207034
0.0204683
0.0201879
0.0198845
0.0195692
0.0192474
0.0189215
0.0185927
0.0182613
0.0179276
0.0175915
0.0172531
0.0169123
0.0165692
0.0162237
0.0158758
0.0155255
0.0151727
0.0148174
0.0144596
0.0140994
0.0137366
0.0133714
0.0130035
0.0126331
0.0122599
0.0118842
0.0115058
0.0111248
0.0107412
0.0103548
0.00996603
0.00957421
0.00918005
0.00878281
0.00838307
0.00798042
0.0075749
0.00716671
0.00675538
0.00634143
0.00592439
0.00550444
0.00508166
0.00465572
0.00422695
0.00379511
0.00336017
0.0029223
0.00248125
0.00203711
0.0015899
0.00113948
0.000685922
0.000229171
-0.121541
-0.122483
-0.120614
-0.128298
-0.132424
-0.107673
-0.0933824
-0.104003
-0.110341
-0.104729
-0.0898305
-0.0721981
-0.0693087
-0.0827292
-0.125281
-0.20325
-0.273686
-0.300541
-0.262401
-0.183794
-0.0947411
-0.0123854
0.00564028
-0.0640244
-0.142284
-0.19727
-0.201928
-0.114745
-0.010301
0.0392952
0.0336624
0.0142598
0.00150157
-0.00326109
-0.00453223
-0.00362501
-0.000226689
0.00521784
0.0107363
0.0149702
0.0178078
0.0195347
0.020441
0.0208021
0.0208397
0.0207001
0.0204677
0.0201882
0.0198849
0.0195696
0.0192477
0.0189217
0.0185928
0.0182614
0.0179276
0.0175915
0.0172531
0.0169123
0.0165692
0.0162237
0.0158758
0.0155255
0.0151727
0.0148174
0.0144596
0.0140994
0.0137366
0.0133714
0.0130035
0.0126331
0.0122599
0.0118842
0.0115058
0.0111248
0.0107412
0.0103548
0.00996604
0.00957422
0.00918005
0.00878282
0.00838307
0.00798042
0.0075749
0.00716671
0.00675538
0.00634143
0.00592439
0.00550444
0.00508166
0.00465572
0.00422695
0.00379511
0.00336017
0.0029223
0.00248125
0.00203711
0.0015899
0.00113948
0.000685921
0.000229171
-0.121227
-0.121887
-0.11909
-0.124178
-0.127961
-0.110289
-0.0973418
-0.101468
-0.103618
-0.0986697
-0.0872847
-0.0713933
-0.0658383
-0.0772093
-0.119846
-0.19884
-0.270879
-0.298489
-0.262305
-0.185276
-0.0966034
-0.0174687
-0.000781755
-0.0634083
-0.140107
-0.196153
-0.198983
-0.109149
-0.00216934
0.0476945
0.0412468
0.0200984
0.00570531
-0.000275644
-0.00277867
-0.00327507
-0.000906808
0.00432873
0.0100846
0.0145867
0.017605
0.0194326
0.0203933
0.0207823
0.0208329
0.0206986
0.0204681
0.020189
0.0198856
0.0195701
0.019248
0.0189219
0.0185929
0.0182614
0.0179276
0.0175915
0.0172531
0.0169123
0.0165692
0.0162237
0.0158758
0.0155255
0.0151727
0.0148174
0.0144596
0.0140994
0.0137366
0.0133714
0.0130035
0.012633
0.0122599
0.0118842
0.0115058
0.0111248
0.0107412
0.0103548
0.00996604
0.00957422
0.00918005
0.00878282
0.00838307
0.00798042
0.0075749
0.00716671
0.00675538
0.00634143
0.00592439
0.00550444
0.00508166
0.00465572
0.00422695
0.00379511
0.00336017
0.0029223
0.00248125
0.00203711
0.0015899
0.00113948
0.000685921
0.000229171
-0.121064
-0.12093
-0.117592
-0.121087
-0.123636
-0.111889
-0.101098
-0.0994583
-0.0977398
-0.0936152
-0.0850356
-0.0708831
-0.0638534
-0.0737062
-0.115544
-0.19407
-0.266863
-0.29488
-0.260659
-0.184941
-0.0972552
-0.0228281
-0.00765735
-0.0623899
-0.136587
-0.193555
-0.194325
-0.102598
0.0064141
0.0557869
0.0482915
0.0255176
0.00967461
0.00254719
-0.00111804
-0.00298204
-0.00159727
0.00347972
0.00948603
0.0142507
0.0174332
0.0193495
0.0203565
0.0207684
0.0208292
0.0206988
0.0204693
0.0201901
0.0198865
0.0195706
0.0192483
0.0189221
0.018593
0.0182615
0.0179277
0.0175915
0.0172531
0.0169123
0.0165692
0.0162237
0.0158758
0.0155255
0.0151727
0.0148174
0.0144596
0.0140994
0.0137366
0.0133714
0.0130034
0.012633
0.0122599
0.0118842
0.0115058
0.0111248
0.0107412
0.0103549
0.00996605
0.00957423
0.00918006
0.00878282
0.00838307
0.00798042
0.0075749
0.00716671
0.00675538
0.00634143
0.00592439
0.00550445
0.00508166
0.00465572
0.00422695
0.00379511
0.00336017
0.0029223
0.00248125
0.00203711
0.0015899
0.00113948
0.00068592
0.000229171
-0.120955
-0.119877
-0.116125
-0.118756
-0.119787
-0.112656
-0.104371
-0.0980092
-0.092886
-0.0896198
-0.0832725
-0.0707453
-0.0631897
-0.072044
-0.112334
-0.189173
-0.261854
-0.28995
-0.257598
-0.182868
-0.0965277
-0.028118
-0.0145127
-0.0607177
-0.131885
-0.189553
-0.188141
-0.0952991
0.0151781
0.0634102
0.054646
0.0304433
0.0133531
0.00516363
0.000441113
-0.0027287
-0.00224636
0.00271604
0.00896199
0.0139663
0.0172935
0.0192849
0.0203297
0.0207597
0.0208281
0.0207001
0.020471
0.0201915
0.0198874
0.0195712
0.0192487
0.0189223
0.0185931
0.0182616
0.0179277
0.0175916
0.0172531
0.0169123
0.0165692
0.0162237
0.0158758
0.0155255
0.0151727
0.0148174
0.0144596
0.0140994
0.0137366
0.0133714
0.0130034
0.012633
0.0122599
0.0118842
0.0115058
0.0111248
0.0107413
0.0103549
0.00996605
0.00957423
0.00918006
0.00878282
0.00838307
0.00798042
0.0075749
0.00716671
0.00675538
0.00634143
0.00592438
0.00550445
0.00508166
0.00465572
0.00422695
0.00379511
0.00336017
0.0029223
0.00248125
0.00203711
0.0015899
0.00113948
0.000685919
0.000229171
-0.120802
-0.118928
-0.11478
-0.116971
-0.116648
-0.112834
-0.106967
-0.0970934
-0.0892436
-0.0866931
-0.0820394
-0.0709544
-0.0636029
-0.0719555
-0.110188
-0.184478
-0.25598
-0.283969
-0.253187
-0.178988
-0.0943117
-0.033003
-0.0208595
-0.0582141
-0.126205
-0.184165
-0.180656
-0.0873491
0.0237987
0.0703816
0.0601694
0.0348282
0.0166864
0.00754049
0.00189088
-0.00248652
-0.00279005
0.0020849
0.00853236
0.013737
0.0171848
0.0192368
0.020311
0.0207548
0.0208287
0.0207021
0.0204729
0.0201929
0.0198884
0.0195718
0.019249
0.0189225
0.0185933
0.0182616
0.0179277
0.0175916
0.0172531
0.0169123
0.0165692
0.0162237
0.0158758
0.0155255
0.0151727
0.0148174
0.0144596
0.0140994
0.0137366
0.0133714
0.0130034
0.012633
0.0122599
0.0118842
0.0115058
0.0111248
0.0107413
0.0103549
0.00996606
0.00957423
0.00918006
0.00878282
0.00838307
0.00798042
0.0075749
0.00716671
0.00675538
0.00634143
0.00592438
0.00550445
0.00508166
0.00465572
0.00422695
0.00379511
0.00336017
0.0029223
0.00248125
0.00203711
0.0015899
0.00113948
0.000685918
0.000229171
-0.120543
-0.118172
-0.113679
-0.115591
-0.114326
-0.112674
-0.108765
-0.0966103
-0.0869141
-0.0848083
-0.0812627
-0.0714016
-0.0647782
-0.0730778
-0.108989
-0.180052
-0.249482
-0.277238
-0.247669
-0.173589
-0.090627
-0.0369865
-0.0261797
-0.0550538
-0.11977
-0.177532
-0.172331
-0.0785343
0.0318579
0.0765311
0.0647647
0.0386453
0.0196093
0.00965501
0.00320854
-0.00222356
-0.00316675
0.00162297
0.0082072
0.0135621
0.0171033
0.0192015
0.0202978
0.0207517
0.0208296
0.020704
0.0204745
0.0201941
0.0198892
0.0195723
0.0192493
0.0189227
0.0185933
0.0182617
0.0179278
0.0175916
0.0172531
0.0169124
0.0165692
0.0162237
0.0158758
0.0155255
0.0151727
0.0148174
0.0144596
0.0140994
0.0137366
0.0133714
0.0130034
0.012633
0.0122599
0.0118842
0.0115058
0.0111248
0.0107413
0.0103549
0.00996606
0.00957423
0.00918006
0.00878282
0.00838307
0.00798042
0.0075749
0.00716671
0.00675538
0.00634143
0.00592438
0.00550445
0.00508166
0.00465572
0.00422695
0.00379511
0.00336017
0.0029223
0.00248125
0.00203711
0.0015899
0.00113948
0.000685918
0.000229171
-0.120185
-0.117615
-0.112907
-0.114544
-0.112794
-0.11238
-0.109771
-0.0965151
-0.0858601
-0.0838387
-0.0808192
-0.0719421
-0.0663574
-0.0749664
-0.108685
-0.175808
-0.242753
-0.270175
-0.241405
-0.167087
-0.0857626
-0.0397358
-0.0300933
-0.0515788
-0.112893
-0.170055
-0.163629
-0.0692348
0.03899
0.0817335
0.0684644
0.0418734
0.0220544
0.011477
0.00434237
-0.00192308
-0.00334349
0.00134278
0.00798521
0.0134352
0.0170424
0.0191738
0.0202865
0.0207484
0.0208296
0.020705
0.0204756
0.0201949
0.0198897
0.0195726
0.0192495
0.0189228
0.0185934
0.0182617
0.0179278
0.0175916
0.0172531
0.0169124
0.0165692
0.0162237
0.0158758
0.0155255
0.0151727
0.0148174
0.0144596
0.0140994
0.0137366
0.0133714
0.0130034
0.012633
0.0122599
0.0118842
0.0115058
0.0111248
0.0107413
0.0103549
0.00996606
0.00957424
0.00918006
0.00878282
0.00838307
0.00798042
0.0075749
0.00716671
0.00675538
0.00634143
0.00592438
0.00550445
0.00508166
0.00465572
0.00422695
0.00379511
0.00336017
0.0029223
0.00248125
0.00203711
0.0015899
0.00113948
0.000685917
0.000229171
-0.119795
-0.117243
-0.112478
-0.113811
-0.111934
-0.112072
-0.110126
-0.0966673
-0.085789
-0.0835251
-0.0805453
-0.0723642
-0.0678973
-0.0771559
-0.109027
-0.171919
-0.236217
-0.263263
-0.234941
-0.160069
-0.080111
-0.0412865
-0.0324413
-0.0483393
-0.106062
-0.162309
-0.155138
-0.060382
0.045308
0.0857433
0.0714176
0.0444591
0.0239883
0.0129392
0.00522199
-0.00159943
-0.00333362
0.00124382
0.00785238
0.0133456
0.0169944
0.0191492
0.0202744
0.0207433
0.020828
0.0207049
0.0204759
0.0201953
0.01989
0.0195728
0.0192497
0.0189229
0.0185935
0.0182617
0.0179278
0.0175916
0.0172531
0.0169124
0.0165692
0.0162237
0.0158758
0.0155255
0.0151727
0.0148174
0.0144596
0.0140994
0.0137366
0.0133714
0.0130034
0.012633
0.0122599
0.0118842
0.0115058
0.0111248
0.0107413
0.0103549
0.00996606
0.00957424
0.00918006
0.00878282
0.00838308
0.00798042
0.0075749
0.00716671
0.00675538
0.00634143
0.00592438
0.00550445
0.00508166
0.00465572
0.00422695
0.00379511
0.00336017
0.0029223
0.00248125
0.00203711
0.0015899
0.00113948
0.000685917
0.000229171
-0.119456
-0.117005
-0.112352
-0.11338
-0.111558
-0.111832
-0.110059
-0.0969236
-0.0862075
-0.0835332
-0.0803287
-0.0725982
-0.069085
-0.0791533
-0.109711
-0.168698
-0.230371
-0.256928
-0.228638
-0.153421
-0.0747646
-0.0414328
-0.0334347
-0.0458697
-0.100055
-0.155074
-0.147321
-0.0527698
0.0504055
0.0885522
0.07365
0.0463281
0.0254073
0.0139478
0.00579228
-0.00129962
-0.003201
0.00125376
0.00778624
0.0132831
0.0169547
0.0191255
0.0202609
0.0207363
0.0208248
0.0207036
0.0204755
0.0201952
0.01989
0.0195729
0.0192497
0.0189229
0.0185935
0.0182617
0.0179278
0.0175916
0.0172531
0.0169124
0.0165692
0.0162237
0.0158758
0.0155255
0.0151727
0.0148174
0.0144596
0.0140994
0.0137366
0.0133714
0.0130034
0.012633
0.0122599
0.0118842
0.0115058
0.0111248
0.0107413
0.0103549
0.00996606
0.00957424
0.00918006
0.00878282
0.00838308
0.00798042
0.0075749
0.00716671
0.00675538
0.00634143
0.00592438
0.00550445
0.00508166
0.00465572
0.00422695
0.0037951
0.00336017
0.0029223
0.00248125
0.00203711
0.0015899
0.00113948
0.000685917
0.000229171
-0.119228
-0.116843
-0.112439
-0.113197
-0.111459
-0.111704
-0.109815
-0.09695
-0.0865898
-0.0836226
-0.0801029
-0.0726571
-0.069798
-0.080463
-0.11047
-0.166678
-0.226117
-0.252014
-0.223723
-0.148585
-0.070883
-0.0409368
-0.0331446
-0.0447337
-0.0960244
-0.149466
-0.141071
-0.0472293
0.0538473
0.090325
0.0750588
0.0474606
0.0262335
0.014438
0.00603822
-0.00109981
-0.0030424
0.00131446
0.00776625
0.0132443
0.0169249
0.0191057
0.0202486
0.0207293
0.0208212
0.0207019
0.0204748
0.0201949
0.01989
0.0195729
0.0192497
0.0189229
0.0185935
0.0182618
0.0179278
0.0175916
0.0172531
0.0169124
0.0165692
0.0162237
0.0158758
0.0155255
0.0151727
0.0148174
0.0144596
0.0140994
0.0137366
0.0133714
0.0130034
0.012633
0.0122599
0.0118842
0.0115058
0.0111248
0.0107413
0.0103549
0.00996606
0.00957424
0.00918006
0.00878282
0.00838308
0.00798041
0.0075749
0.00716671
0.00675538
0.00634143
0.00592438
0.00550445
0.00508165
0.00465572
0.00422695
0.0037951
0.00336018
0.0029223
0.00248125
0.00203711
0.0015899
0.00113948
0.000685917
0.000229171
-0.119152
-0.116745
-0.112669
-0.113208
-0.111509
-0.111717
-0.109689
-0.0967963
-0.0867269
-0.0836151
-0.0798723
-0.0725418
-0.0700022
-0.0810189
-0.111423
-0.166036
-0.224319
-0.249617
-0.22147
-0.146269
-0.0690592
-0.0405828
-0.0331486
-0.045528
-0.0946123
-0.146768
-0.137858
-0.0442821
0.0555763
0.0911768
0.0756533
0.0478217
0.0263876
0.0143777
0.00596693
-0.00105562
-0.00296185
0.00139218
0.00778249
0.0132361
0.0169159
0.0190989
0.020244
0.0207266
0.0208197
0.0207012
0.0204745
0.0201948
0.0198899
0.0195729
0.0192497
0.0189229
0.0185935
0.0182618
0.0179278
0.0175916
0.0172531
0.0169124
0.0165692
0.0162237
0.0158758
0.0155255
0.0151727
0.0148174
0.0144596
0.0140994
0.0137366
0.0133714
0.0130034
0.012633
0.0122599
0.0118842
0.0115058
0.0111248
0.0107413
0.0103549
0.00996606
0.00957425
0.00918006
0.00878282
0.00838308
0.00798041
0.00757491
0.0071667
0.00675538
0.00634143
0.00592438
0.00550445
0.00508165
0.00465572
0.00422695
0.0037951
0.00336018
0.0029223
0.00248125
0.00203711
0.0015899
0.00113948
0.000685917
0.000229171
-0.123157
-0.12533
-0.131162
-0.132439
-0.122065
-0.120919
-0.117334
-0.126532
-0.123883
-0.123872
-0.137791
-0.139503
-0.170168
-0.177784
-0.157102
-0.136152
-0.124223
-0.130812
-0.139349
-0.120117
-0.0846122
-0.0351761
0.0134055
0.0313535
0.0273154
0.0181713
0.0135473
0.00917038
-0.000507171
-0.0131044
-0.024558
-0.03185
-0.0333788
-0.0286237
-0.0179413
-0.00412744
0.00816351
0.0169731
0.0217448
0.0235499
0.0237185
0.0232081
0.0225404
0.0219198
0.0213977
0.0209605
0.0205798
0.020231
0.0198979
0.019571
0.0192455
0.0189191
0.0185907
0.01826
0.0179267
0.017591
0.0172527
0.0169121
0.016569
0.0162236
0.0158757
0.0155255
0.0151727
0.0148174
0.0144597
0.0140995
0.0137366
0.0133714
0.0130034
0.012633
0.0122599
0.0118842
0.0115059
0.0111249
0.0107413
0.0103548
0.009966
0.0095742
0.00918005
0.00878284
0.00838311
0.00798043
0.00757493
0.00716671
0.00675539
0.00634143
0.00592438
0.00550444
0.00508164
0.00465571
0.00422695
0.0037951
0.00336018
0.00292229
0.00248125
0.00203711
0.00158989
0.00113949
0.000685907
0.000229174
-0.123279
-0.125511
-0.131365
-0.132558
-0.122035
-0.120883
-0.117075
-0.126687
-0.124184
-0.12559
-0.138357
-0.13895
-0.171377
-0.179605
-0.157853
-0.135995
-0.123637
-0.130522
-0.1402
-0.121176
-0.0854122
-0.0361439
0.0125742
0.0308568
0.0273906
0.0182601
0.0136932
0.00940564
-0.000337738
-0.0130522
-0.0246061
-0.0319582
-0.0335105
-0.0288146
-0.0180921
-0.00419701
0.00813065
0.016979
0.0217608
0.0235626
0.0237254
0.0232122
0.0225412
0.0219197
0.0213974
0.0209603
0.0205797
0.020231
0.0198979
0.019571
0.0192455
0.0189191
0.0185907
0.01826
0.0179267
0.017591
0.0172527
0.0169121
0.016569
0.0162236
0.0158757
0.0155255
0.0151727
0.0148174
0.0144597
0.0140995
0.0137366
0.0133714
0.0130034
0.012633
0.0122599
0.0118842
0.0115059
0.0111249
0.0107413
0.0103548
0.009966
0.0095742
0.00918005
0.00878284
0.00838311
0.00798044
0.00757492
0.00716671
0.00675539
0.00634143
0.00592438
0.00550444
0.00508165
0.00465571
0.00422695
0.0037951
0.00336018
0.00292229
0.00248125
0.00203711
0.00158989
0.00113949
0.000685906
0.000229174
-0.123439
-0.125784
-0.131904
-0.133054
-0.121854
-0.120726
-0.116807
-0.127815
-0.125105
-0.128384
-0.139078
-0.139963
-0.175208
-0.183799
-0.158935
-0.135586
-0.122537
-0.129969
-0.14182
-0.123113
-0.0868481
-0.0378891
0.0111313
0.0293097
0.026591
0.0175684
0.0134571
0.00948574
-0.000269147
-0.0131363
-0.0248252
-0.0322394
-0.0337921
-0.0290845
-0.0182459
-0.00435018
0.00810535
0.0170081
0.0217964
0.0235844
0.0237334
0.023214
0.0225393
0.0219178
0.021396
0.0209595
0.0205793
0.0202308
0.0198978
0.019571
0.0192456
0.0189191
0.0185907
0.01826
0.0179267
0.017591
0.0172527
0.0169121
0.016569
0.0162236
0.0158757
0.0155255
0.0151727
0.0148174
0.0144597
0.0140995
0.0137366
0.0133714
0.0130034
0.012633
0.0122599
0.0118842
0.0115059
0.0111249
0.0107413
0.0103548
0.009966
0.0095742
0.00918005
0.00878284
0.00838311
0.00798044
0.00757492
0.00716671
0.00675539
0.00634143
0.00592438
0.00550444
0.00508165
0.00465571
0.00422695
0.0037951
0.00336018
0.00292229
0.00248125
0.00203711
0.00158989
0.00113949
0.000685906
0.000229174
-0.123643
-0.126107
-0.132893
-0.13378
-0.121544
-0.120458
-0.116438
-0.130261
-0.12671
-0.132561
-0.139707
-0.142653
-0.181006
-0.189701
-0.160076
-0.134797
-0.121178
-0.129196
-0.144052
-0.125804
-0.0888417
-0.0403338
0.00912994
0.0267766
0.0248006
0.0159922
0.0125463
0.00925622
-0.000337455
-0.0133413
-0.0251955
-0.0326728
-0.0342068
-0.0294414
-0.0185351
-0.0045702
0.00803903
0.0170143
0.0218136
0.0235893
0.0237286
0.0232064
0.0225332
0.021914
0.0213941
0.0209586
0.020579
0.0202308
0.0198979
0.0195711
0.0192456
0.0189192
0.0185907
0.01826
0.0179267
0.017591
0.0172527
0.0169121
0.016569
0.0162236
0.0158757
0.0155255
0.0151727
0.0148174
0.0144597
0.0140995
0.0137366
0.0133714
0.0130034
0.012633
0.0122599
0.0118842
0.0115059
0.0111249
0.0107413
0.0103548
0.009966
0.0095742
0.00918005
0.00878284
0.00838311
0.00798044
0.00757492
0.00716671
0.00675539
0.00634143
0.00592438
0.00550444
0.00508165
0.00465571
0.00422695
0.0037951
0.00336018
0.00292229
0.00248125
0.00203711
0.00158989
0.00113949
0.000685906
0.000229174
-0.12384
-0.126364
-0.133946
-0.134593
-0.121155
-0.120102
-0.115992
-0.134414
-0.129838
-0.137524
-0.141101
-0.146199
-0.187934
-0.19634
-0.161251
-0.13354
-0.119762
-0.128522
-0.146786
-0.129136
-0.0910775
-0.0432805
0.00658629
0.0235999
0.0216194
0.0134906
0.0105751
0.00847074
-0.00060891
-0.0136672
-0.0257086
-0.0332514
-0.0347452
-0.0299189
-0.0189446
-0.00487551