/*--------------------------------*- C++ -*----------------------------------*\
| =========                 |                                                 |
| \\      /  F ield         | OpenFOAM: The Open Source CFD Toolbox           |
|  \\    /   O peration     | Version:  2.4.0                                 |
|   \\  /    A nd           | Web:      www.OpenFOAM.org                      |
|    \\/     M anipulation  |                                                 |
\*---------------------------------------------------------------------------*/
FoamFile
{
    version     2.0;
    format      ascii;
    class       surfaceScalarField;
    location    "32";
    object      phi;
}
// * * * * * * * * * * * * * * * * * * * * * * * * * * * * * * * * * * * * * //

dimensions      [0 3 -1 0 0 0 0];

internalField   nonuniform List<scalar> 
8640
(
0.000539633
-5.21326e-05
0.000505759
3.38741e-05
0.000417052
8.87063e-05
0.000515386
-9.83342e-05
0.000535602
-2.0216e-05
0.000502164
3.34387e-05
0.00045038
5.17841e-05
0.000510562
-6.01825e-05
0.000539233
-2.86713e-05
0.000440866
9.83676e-05
0.000538309
-9.74434e-05
0.000506083
3.22264e-05
0.000461199
4.48843e-05
0.000537272
-7.60738e-05
0.000497535
3.97375e-05
0.000506249
-8.71422e-06
0.000530903
-2.46543e-05
0.000544576
-1.36728e-05
0.000582001
-3.74242e-05
-3.29739e-05
0.000614974
0.0014369
-0.00010153
0.00137632
9.44559e-05
0.00130941
0.000155615
0.00142541
-0.00021434
0.00142644
-2.12422e-05
0.00139118
6.86945e-05
0.0013488
9.41633e-05
0.00142057
-0.000131945
0.00143331
-4.14139e-05
0.00132962
0.000202053
0.00145622
-0.000224043
0.00137496
0.000113487
0.00137222
4.7623e-05
0.00142888
-0.000132728
0.00139313
7.54843e-05
0.00141996
-3.55432e-05
0.00142132
-2.6009e-05
0.00150158
-9.39389e-05
0.00146132
2.83522e-06
-0.000111451
0.0015398
0.00222425
-0.000138284
0.0021612
0.000157512
0.00213816
0.000178651
0.0022243
-0.000300479
0.00223349
-3.04333e-05
0.00218694
0.000115241
0.00216621
0.000114896
0.00222509
-0.000190826
0.0022256
-4.19251e-05
0.00215505
0.000272603
0.00225714
-0.000326125
0.00218018
0.00019044
0.00219048
3.73255e-05
0.00223758
-0.000179827
0.00218464
0.000128425
0.00225324
-0.000104145
0.00221618
1.10525e-05
0.00230929
-0.000187047
0.00229383
1.8294e-05
-0.000115042
0.00229742
0.00291281
-0.000163591
0.00282458
0.000245743
0.0028694
0.000133822
0.00293199
-0.000363061
0.00294637
-4.48162e-05
0.00288538
0.000176235
0.00287744
0.000122831
0.00294653
-0.000259912
0.00289373
1.08707e-05
0.00290328
0.000263056
0.00296369
-0.000386541
0.00289712
0.000257013
0.00292579
8.65737e-06
0.00295698
-0.000211016
0.00290154
0.000183867
0.00295933
-0.000161942
0.00294529
2.5092e-05
0.00299703
-0.000238786
0.00298508
3.02466e-05
-0.000141968
0.00301201
0.00352386
-0.000199952
0.0033722
0.000397401
0.00346061
4.54123e-05
0.00352691
-0.00042936
0.00355367
-7.1574e-05
0.00348982
0.000240083
0.00346164
0.000151008
0.00358791
-0.000386172
0.00344298
0.000155795
0.00352003
0.000186008
0.00358071
-0.000447221
0.00347911
0.000358609
0.00355342
-6.56483e-05
0.0035586
-0.000216201
0.00351884
0.000223635
0.00355047
-0.00019358
0.00355395
2.16183e-05
0.00359532
-0.000280154
0.00355865
6.69168e-05
-0.000189237
0.00360591
0.00405197
-0.000264424
0.00385047
0.000598906
0.00393286
-3.69779e-05
0.00399519
-0.00049169
0.00403078
-0.000107168
0.00400398
0.000266882
0.00392934
0.000225654
0.00412118
-0.000578012
0.00391424
0.000362732
0.00398944
0.00011081
0.00408414
-0.00054192
0.00394245
0.000500294
0.00404688
-0.000170078
0.00403769
-0.000207008
0.00401436
0.000246959
0.00402901
-0.000208227
0.00403701
1.36206e-05
0.00407733
-0.000320478
0.00402835
0.000115903
-0.000246803
0.00408591
0.00446976
-0.000346684
0.00426258
0.000806089
0.00432393
-9.8334e-05
0.00437313
-0.000540884
0.00439155
-0.000125592
0.00441216
0.000246276
0.00430355
0.00033426
0.00452139
-0.000795854
0.00431363
0.000570491
0.00436046
6.39806e-05
0.00447304
-0.000654498
0.0043156
0.000657735
0.00442584
-0.000280315
0.00440593
-0.000187103
0.00439899
0.000253901
0.00440112
-0.000210359
0.00441262
2.12022e-06
0.00445224
-0.000360098
0.00439207
0.00017608
-0.000316751
0.00446201
0.00476694
-0.000426128
0.00459187
0.000981159
0.00463169
-0.000138146
0.00466949
-0.000578684
0.0046639
-0.000120006
0.00470956
0.000200615
0.00459678
0.000447042
0.00479346
-0.000992533
0.00462316
0.000740792
0.00465046
3.66781e-05
0.00475267
-0.000756707
0.00460772
0.000802681
0.00470573
-0.000378328
0.00467519
-0.000156556
0.00468471
0.000244383
0.00467386
-0.000199517
0.00468754
-1.15545e-05
0.00472737
-0.000399927
0.00465936
0.000244093
-0.000390321
0.00473292
0.00494587
-0.000484498
0.00482798
0.00109905
0.00484651
-0.000156676
0.00487174
-0.000603913
0.00485421
-0.000102477
0.00489946
0.000155367
0.00481176
0.000534742
0.00495122
-0.00113199
0.00483545
0.000856553
0.00485338
1.87485e-05
0.00492062
-0.00082394
0.00481448
0.000908823
0.00488677
-0.000450619
0.0048488
-0.000118588
0.00487405
0.000219129
0.0048508
-0.000176261
0.00486416
-2.49211e-05
0.00490069
-0.00043645
0.00483423
0.000310553
-0.000456467
0.00490037
0.00501209
-0.000509092
0.00496591
0.00114523
0.00496282
-0.000153583
0.00497288
-0.00061397
0.00495695
-8.65519e-05
0.00498579
0.000126527
0.00494354
0.000576997
0.00500187
-0.00119032
0.00495074
0.000907681
0.00496246
7.02776e-06
0.00497872
-0.000840193
0.00493157
0.000955972
0.00496686
-0.000485912
0.00492843
-8.01642e-05
0.00496626
0.000181299
0.0049327
-0.000142693
0.00494699
-3.92198e-05
0.00497071
-0.000460163
0.00491818
0.000363081
-0.000507803
0.00496952
0.00497227
-0.000493867
0.00500017
0.00111733
0.00497971
-0.000133124
0.00497242
-0.00060668
0.00496594
-8.00676e-05
0.00497168
0.000120783
0.00498294
0.000565733
0.00494977
-0.00115714
0.00496754
0.000889906
0.00497294
1.63468e-06
0.00493317
-0.000800424
0.00495675
0.00093239
0.00494789
-0.000477052
0.00491704
-4.93137e-05
0.00496113
0.000137202
0.00492085
-0.000102409
0.00493928
-5.76507e-05
0.00493965
-0.00046053
0.00491372
0.000389009
-0.000537173
0.00494309
0.00483553
-0.000441896
0.00493177
0.00102109
0.00489867
-0.000100022
0.0048734
-0.000581414
0.00487573
-8.23918e-05
0.0048607
0.000135807
0.00491933
0.000507108
0.0048028
-0.00104061
0.00488326
0.000809446
0.00488388
1.00814e-06
0.00479417
-0.000710709
0.00488783
0.000838731
0.00483351
-0.000422731
0.00481879
-3.45989e-05
0.00485897
9.70207e-05
0.00481862
-6.20584e-05
0.00484131
-8.03375e-05
0.00481204
-0.000431257
0.00482279
0.000378256
-0.000534803
0.00482042
0.00461141
-0.000365809
0.00476428
0.000868224
0.00471901
-5.47597e-05
0.00468002
-0.000542425
0.00467901
-8.13746e-05
0.00465645
0.000158366
0.00474429
0.000419266
0.004567
-0.000863313
0.00470164
0.000674804
0.0046931
9.55128e-06
0.00457328
-0.000590892
0.00471969
0.000692317
0.0046292
-0.000332242
0.00463167
-3.70689e-05
0.0046615
6.71941e-05
0.00462804
-2.8601e-05
0.00465007
-0.000102369
0.00459405
-0.000375233
0.0046434
0.000328906
-0.000492001
0.0046006
0.00430843
-0.000286734
0.00449677
0.000679875
0.00443831
3.70619e-06
0.00438762
-0.000491732
0.00437064
-6.43988e-05
0.00436088
0.000168125
0.00445316
0.000326984
0.00425146
-0.000661612
0.0044285
0.000497769
0.00440013
3.79123e-05
0.00427591
-0.000466665
0.00444803
0.000520196
0.00433485
-0.000219063
0.00435216
-5.43792e-05
0.00437002
4.93395e-05
0.00434816
-6.74718e-06
0.00436165
-0.000115856
0.00429191
-0.000305493
0.00436786
0.000252955
-0.000411062
0.00428692
0.00392835
-0.00022758
0.00411881
0.000489409
0.00404908
7.34335e-05
0.0039848
-0.00042745
0.00395737
-3.69678e-05
0.00397691
0.000148586
0.00404893
0.000254967
0.00386823
-0.000480911
0.00406057
0.000305424
0.00400269
9.57946e-05
0.00390196
-0.000365933
0.00406772
0.000354436
0.00394914
-0.000100484
0.00397947
-8.47099e-05
0.00398584
4.2963e-05
0.00397517
3.92339e-06
0.00397392
-0.000114605
0.00390614
-0.000237707
0.00398686
0.000172237
-0.000308619
0.00388441
0.0034577
-0.000197775
0.00360889
0.000338212
0.00354275
0.000139579
0.00347372
-0.000358426
0.00345961
-2.28581e-05
0.00349926
0.000108934
0.00354104
0.000213189
0.00341299
-0.000352861
0.00356937
0.000149047
0.00350123
0.000163936
0.00344345
-0.000308151
0.00356879
0.000229091
0.00347135
-3.04637e-06
0.00350699
-0.000120349
0.00350036
4.95901e-05
0.00349846
5.8309e-06
0.00348292
-9.9071e-05
0.00342483
-0.000179611
0.00349174
0.000105324
-0.000204982
0.0033881
0.00286465
-0.000174929
0.00296222
0.000240647
0.00293839
0.000163403
0.00287104
-0.000291066
0.00287019
-2.2011e-05
0.00290183
7.72915e-05
0.00293691
0.000178115
0.00284853
-0.000264482
0.00293565
6.19262e-05
0.00291103
0.000188551
0.00286944
-0.000266559
0.00294312
0.000155411
0.0028961
4.39743e-05
0.00291044
-0.000134689
0.00289994
6.00901e-05
0.002907
-1.23154e-06
0.00287936
-7.14247e-05
0.00283129
-0.000131549
0.00287649
6.01256e-05
-0.000115619
0.00278713
0.00214186
-0.000129285
0.00222549
0.00015701
0.00225257
0.000136327
0.00216446
-0.000202953
0.00216473
-2.22827e-05
0.00218897
5.30489e-05
0.00224014
0.000126943
0.00215282
-0.000177156
0.00219581
1.89326e-05
0.00222959
0.00015477
0.00215768
-0.000194648
0.00221622
9.68723e-05
0.00221139
4.88081e-05
0.00218653
-0.000109832
0.00219413
5.2489e-05
0.00219767
-4.77365e-06
0.00216589
-3.96413e-05
0.00212473
-9.03908e-05
0.00214964
3.52138e-05
-5.07722e-05
0.0020848
0.00132035
-6.21336e-05
0.00141179
6.55655e-05
0.0014673
8.08208e-05
0.0013583
-9.39503e-05
0.0013571
-2.10886e-05
0.00138337
2.67841e-05
0.00144634
6.39686e-05
0.00134896
-7.97768e-05
0.00137426
-6.36811e-06
0.00144305
8.59807e-05
0.0013414
-9.29945e-05
0.00140308
3.51858e-05
0.00141582
3.60718e-05
0.0013657
-5.97073e-05
0.00139162
2.65672e-05
0.0013858
1.0429e-06
0.00136205
-1.58892e-05
0.00131647
-4.48152e-05
0.00133453
1.71597e-05
-9.78231e-06
0.00129354
0.000425366
0.000490932
0.000571753
0.000477802
0.000456714
0.000483498
0.000547466
0.00046769
0.000461322
0.000547302
0.000454308
0.000489494
0.000525565
0.000465858
0.000492425
0.000493468
0.000477579
0.000432764
0.000449923
0.000440141
0.000782153
-0.000747617
0.000580439
0.000940425
0.000407744
-0.000566017
0.00110495
0.00111055
-0.00127508
0.00159962
-0.00100541
0.000510744
0.00141136
-0.00231407
0.00250233
0.00115523
-0.00150177
0.0017579
0.0019348
0.000207335
-0.000986906
0.00247935
0.00171311
-0.00225766
0.00247615
-0.00115675
0.00115995
0.00271939
-0.00384379
0.00360055
0.00319164
-0.00251691
0.00204466
0.00364846
-0.00188481
0.00142799
0.00430629
-0.00367862
0.00302079
0.00481396
-0.00735298
0.00684532
0.00505051
-0.00980723
0.00957067
0.00523551
-0.00776939
0.00758439
0.00529049
-0.0046262
0.00457122
0.00520333
-0.00162829
0.00171545
0.00495771
0.000949923
-0.000704305
0.00440547
0.000191419
0.000360818
0.00357463
-0.000868841
0.00169968
0.00287536
-0.000460705
0.00115998
0.00256859
-0.00435199
0.00465875
0.00270115
-0.00636892
0.00623636
0.00287927
-0.00339537
0.00321725
0.00290908
-0.000956767
0.000926959
0.00308468
0.00510492
-0.00528053
0.00311884
0.0112681
-0.0113023
0.00287045
0.0122922
-0.0120438
0.00254611
0.00930952
-0.00898518
0.00234456
0.00524772
-0.00504617
0.00228991
0.00189568
-0.00184104
0.00229841
-0.000209273
0.000200776
0.00233057
-0.00164679
0.00161463
0.00237768
-0.0028243
0.00277719
0.00240302
-0.00346068
0.00343535
0.00237843
-0.00333061
0.00335519
0.00231721
-0.00265062
0.00271184
0.00224337
-0.00179238
0.00186622
0.00216927
-0.00105007
0.00112418
0.00210121
-0.000551598
0.000619651
0.00204455
-0.000275836
0.0003325
0.00200211
-0.000142247
0.000184687
0.00197327
-8.06794e-05
0.000109517
0.00195523
-5.04797e-05
6.85242e-05
0.00194468
-3.32192e-05
4.37719e-05
0.00193883
-2.18841e-05
2.77251e-05
0.00193574
-1.40255e-05
1.71163e-05
0.00193417
-8.64325e-06
1.02189e-05
0.00193339
-5.10577e-06
5.88401e-06
0.00193302
-2.89314e-06
3.26703e-06
0.00193284
-1.57461e-06
1.74978e-06
0.00193276
-8.2516e-07
9.05346e-07
0.00193272
-4.16795e-07
4.52677e-07
0.00193271
-2.03509e-07
2.1917e-07
0.0019327
-9.63696e-08
1.03054e-07
0.0019327
-4.43972e-08
4.71948e-08
0.0019327
-1.99835e-08
2.11816e-08
0.0019327
-9.0159e-09
9.48257e-09
0.0019327
-3.92459e-09
4.17327e-09
0.0019327
-1.96673e-09
2.01806e-09
0.0019327
-9.10799e-10
1.02311e-09
0.0019327
-7.91547e-10
7.0403e-10
0.0019327
-9.45927e-11
2.69111e-10
0.0019327
-4.36925e-10
3.03081e-10
0.0019327
3.79488e-11
2.56092e-10
0.0019327
-2.58485e-10
-8.33211e-11
0.0019327
9.40513e-11
2.23849e-10
0.0019327
-2.05427e-10
-3.08647e-10
0.0019327
4.07438e-10
8.03116e-11
0.0019327
-2.22293e-10
-3.10881e-10
0.0019327
4.22939e-10
8.80827e-11
0.0019327
-2.27938e-10
-2.19194e-10
0.0019327
2.1024e-10
1.02762e-10
0.0019327
-3.43691e-11
-9.99465e-12
0.0019327
-2.09086e-10
7.70861e-11
0.0019327
3.82878e-10
8.14925e-11
0.0019327
-7.07153e-10
-8.48784e-11
0.0019327
9.23185e-10
1.3329e-10
0.0019327
-1.19748e-09
5.0197e-11
0.0019327
1.50973e-09
-2.18624e-10
0.0019327
-1.32686e-09
1.69098e-10
0.0019327
9.83903e-10
-1.95049e-10
0.0019327
-4.54464e-10
7.93583e-11
0.0019327
-8.41548e-11
-7.27644e-12
0.0019327
7.25003e-10
1.1309e-12
0.0019327
-1.20398e-09
2.62928e-10
0.0019327
1.12257e-09
-2.78175e-10
0.0019327
-6.56756e-10
7.3877e-11
0.0019327
-9.5867e-11
9.69146e-11
0.0019327
4.83392e-10
-1.93212e-11
0.0019327
-6.17642e-10
1.35663e-10
0.0019327
3.25161e-10
-9.91672e-11
0.0019327
-1.69741e-11
1.28884e-11
0.0019327
-2.93443e-10
-4.47381e-11
0.0019327
1.94927e-12
1.3094e-10
0.0019327
1.01098e-10
2.36252e-12
0.0019327
1.29272e-10
-1.94654e-10
0.0019327
-2.34334e-10
2.97711e-10
9.6998e-11
-3.8583e-11
0.00157084
-0.000778655
0.0015205
0.000458082
0.0015616
0.00106945
0.00205312
-0.00149692
0.00215253
-0.00241349
0.00189337
-0.0012426
0.00235087
-0.000250172
0.00288173
0.00118225
0.00296278
-0.00123781
0.00321428
-0.00409529
0.00370099
-0.00300362
0.00409255
-0.00227637
0.004609
-0.00419507
0.00492905
-0.00767303
0.0049912
-0.00986938
0.0050775
-0.00785569
0.00508158
-0.00463027
0.00498898
-0.00153569
0.00477251
0.0011664
0.00422309
0.000740841
0.0033454
8.84207e-06
0.00262651
0.000258188
0.00236375
-0.00408922
0.00250248
-0.00650766
0.00269026
-0.00358314
0.00272589
-0.000992402
0.00292109
0.00490972
0.00303397
0.0111553
0.00288656
0.0124396
0.00264303
0.00955306
0.00248669
0.00540406
0.00244561
0.00193676
0.00244586
-0.000209514
0.00246108
-0.00166202
0.0024928
-0.00285602
0.00250148
-0.00346936
0.00245427
-0.00328339
0.00236811
-0.00256445
0.00227408
-0.00169835
0.0021874
-0.00096339
0.00211264
-0.000476842
0.00205236
-0.000215555
0.00200761
-9.74989e-05
0.00197707
-5.01342e-05
0.00195773
-3.11403e-05
0.00194624
-2.1731e-05
0.00193977
-1.54113e-05
0.00193628
-1.05346e-05
0.00193446
-6.82741e-06
0.00193355
-4.19013e-06
0.0019331
-2.44334e-06
0.00193288
-1.35927e-06
0.00193278
-7.24126e-07
0.00193273
-3.70635e-07
0.00193271
-1.82705e-07
0.0019327
-8.72365e-08
0.0019327
-4.04465e-08
0.0019327
-1.83569e-08
0.0019327
-8.52732e-09
0.0019327
-3.77739e-09
0.0019327
-1.81434e-09
0.0019327
-6.94075e-10
0.0019327
-5.99882e-10
0.0019327
7.16414e-11
0.0019327
-6.10515e-10
0.0019327
2.13288e-10
0.0019327
-9.12075e-10
0.0019327
5.9757e-10
0.0019327
-8.45148e-10
0.0019327
1.42391e-09
0.0019327
-6.96132e-10
0.0019327
1.24279e-09
0.0019327
-9.17439e-10
0.0019327
4.32793e-10
0.0019327
-5.17715e-10
0.0019327
-6.88178e-10
0.0019327
5.74073e-10
0.0019327
-1.85633e-09
0.0019327
1.88833e-09
0.0019327
-2.39797e-09
0.0019327
2.57866e-09
0.0019327
-2.29229e-09
0.0019327
1.57733e-09
0.0019327
-6.63733e-10
0.0019327
-1.5862e-10
0.0019327
1.33353e-09
0.0019327
-1.88548e-09
0.0019327
1.69529e-09
0.0019327
-1.10112e-09
0.0019327
-3.80123e-11
0.0019327
7.81136e-10
0.0019327
-9.79995e-10
0.0019327
5.19977e-10
0.0019327
6.28862e-11
0.0019327
-6.92858e-10
0.0019327
3.00066e-10
0.0019327
2.45676e-10
0.0019327
-1.82568e-10
0.0019327
1.24327e-10
9.70924e-11
0.00229276
-0.000773997
0.00238709
0.000363757
0.00248274
0.0009738
0.00270575
-0.00171993
0.00286587
-0.00257361
0.00274864
-0.00112537
0.00291142
-0.000412952
0.00334961
0.000744065
0.00347504
-0.00136324
0.00366504
-0.00428529
0.00406729
-0.00340587
0.0044022
-0.00261128
0.00480113
-0.004594
0.00494047
-0.00781238
0.004823
-0.00975191
0.00480033
-0.00783302
0.00476341
-0.00459335
0.00467824
-0.00145052
0.00449937
0.00134527
0.00396716
0.00127306
0.00307207
0.00090393
0.00235699
0.000973269
0.00213942
-0.00387166
0.0022854
-0.00665363
0.00247793
-0.00377568
0.00252222
-0.00103669
0.00273542
0.00469652
0.00292356
0.0109671
0.00287748
0.0124857
0.00271839
0.00971215
0.00261126
0.00551119
0.00258579
0.00196222
0.00257872
-0.000202444
0.00257816
-0.00166146
0.00259623
-0.00287409
0.00258967
-0.0034628
0.00252072
-0.00321445
0.00241027
-0.002454
0.00229664
-0.00158472
0.00219821
-0.000864966
0.00211804
-0.000396665
0.00205568
-0.000153193
0.00201007
-5.18949e-05
0.00197897
-1.9032e-05
0.00195913
-1.13022e-05
0.00194721
-9.80518e-06
0.00194039
-8.594e-06
0.00193665
-6.79897e-06
0.00193468
-4.85193e-06
0.00193366
-3.17669e-06
0.00193316
-1.93707e-06
0.00193291
-1.11237e-06
0.00193279
-6.06393e-07
0.00193274
-3.15672e-07
0.00193271
-1.57655e-07
0.0019327
-7.60354e-08
0.0019327
-3.55747e-08
0.00193269
-1.62431e-08
0.00193269
-7.65405e-09
0.00193269
-3.38626e-09
0.00193269
-1.70046e-09
0.00193269
-5.63744e-10
0.00193269
-6.92113e-10
0.00193269
2.4495e-10
0.00193269
-7.60721e-10
0.00193269
5.08993e-10
0.00193269
-1.24338e-09
0.00193269
9.51321e-10
0.00193269
-1.3405e-09
0.00193269
1.91005e-09
0.00193269
-1.24623e-09
0.00193269
1.75245e-09
0.00193269
-1.37615e-09
0.00193269
7.45908e-10
0.00193269
-5.74182e-10
0.00193269
-8.26619e-10
0.00193269
1.04453e-09
0.00193269
-2.65924e-09
0.00193269
2.95889e-09
0.00193269
-3.56328e-09
0.00193269
3.85895e-09
0.00193269
-3.44444e-09
0.00193269
2.39513e-09
0.00193269
-1.04845e-09
0.00193269
-2.63342e-10
0.00193269
2.03942e-09
0.00193269
-2.81163e-09
0.00193269
2.54114e-09
0.00193269
-1.67972e-09
0.00193269
-2.4514e-11
0.00193269
1.22767e-09
0.00193269
-1.45862e-09
0.00193269
7.5248e-10
0.00193269
6.83029e-11
0.00193269
-1.00089e-09
0.00193269
4.44429e-10
0.00193269
3.26969e-10
0.00193269
-2.58821e-10
0.00193269
1.84651e-10
1.59627e-10
0.0029606
-0.000722592
0.00312226
0.000202093
0.00333579
0.000760278
0.00332795
-0.0017121
0.00340485
-0.00265051
0.00344643
-0.00116696
0.00349892
-0.000465443
0.00385549
0.000387498
0.00397336
-0.00148111
0.00403938
-0.00435131
0.00431287
-0.00367937
0.0046198
-0.0029182
0.00490692
-0.00488112
0.00484927
-0.00775473
0.00454967
-0.00945231
0.00441548
-0.00769883
0.00434764
-0.00452551
0.0042831
-0.00138598
0.00415014
0.00147822
0.00365256
0.00177064
0.0027677
0.00178879
0.00207595
0.00166501
0.00190109
-0.00369679
0.00205269
-0.00680523
0.00224503
-0.00396803
0.0023006
-0.00109225
0.00252866
0.00446846
0.00278638
0.0107094
0.0028412
0.0124308
0.00277019
0.00978316
0.00271595
0.00556542
0.00270792
0.00197026
0.00269451
-0.000189032
0.00268021
-0.00164716
0.00268721
-0.00288108
0.00266678
-0.00344237
0.00257681
-0.00312448
0.00244286
-0.00232006
0.00231054
-0.00145239
0.00220147
-0.0007559
0.00211727
-0.000312458
0.00205437
-9.03005e-05
0.00200937
-6.88864e-06
0.00197887
1.14646e-05
0.00195935
8.21507e-06
0.00194751
2.03664e-06
0.00194066
-1.73872e-06
0.00193685
-2.98764e-06
0.0019348
-2.80499e-06
0.00193373
-2.10983e-06
0.00193319
-1.39562e-06
0.00193292
-8.44168e-07
0.00193279
-4.76544e-07
0.00193273
-2.54179e-07
0.0019327
-1.29224e-07
0.00193269
-6.31561e-08
0.00193268
-2.99052e-08
0.00193268
-1.37787e-08
0.00193268
-6.63215e-09
0.00193268
-2.93117e-09
0.00193268
-1.5827e-09
0.00193268
-4.28677e-10
0.00193268
-7.86769e-10
0.00193268
4.10857e-10
0.00193268
-9.21484e-10
0.00193268
8.02197e-10
0.00193268
-1.56705e-09
0.00193268
1.33059e-09
0.00193268
-1.82536e-09
0.00193268
2.39629e-09
0.00193268
-1.81126e-09
0.00193268
2.26911e-09
0.00193268
-1.83734e-09
0.00193268
1.062e-09
0.00193268
-6.38934e-10
0.00193268
-9.68578e-10
0.00193268
1.51427e-09
0.00193268
-3.45411e-09
0.00193268
4.0297e-09
0.00193268
-4.74879e-09
0.00193268
5.13637e-09
0.00193268
-4.58933e-09
0.00193268
3.22317e-09
0.00193268
-1.42747e-09
0.00193268
-3.84436e-10
0.00193268
2.71676e-09
0.00193268
-3.71687e-09
0.00193268
3.38165e-09
0.00193268
-2.23963e-09
0.00193268
-9.68151e-12
0.00193268
1.65658e-09
0.00193268
-1.93158e-09
0.00193268
9.86647e-10
0.00193268
9.22879e-11
0.00193268
-1.28697e-09
0.00193268
5.93838e-10
0.00193268
3.97581e-10
0.00193268
-3.4705e-10
0.00193268
2.39558e-10
2.20325e-10
0.00355008
-0.000666762
0.00370681
4.53714e-05
0.00396371
0.000503379
0.00383108
-0.00157947
0.00382215
-0.00264158
0.00396564
-0.00131045
0.00398684
-0.000486635
0.00427162
0.000102718
0.0043863
-0.0015958
0.0043108
-0.0042758
0.00447306
-0.00384163
0.00476488
-0.00321001
0.00490812
-0.00502437
0.00464487
-0.00749148
0.00418317
-0.00899061
0.00394995
-0.00746561
0.00386231
-0.00443788
0.00382195
-0.00134561
0.00373375
0.00156642
0.00328279
0.00222161
0.00243518
0.0026364
0.00178943
0.00231076
0.00165408
-0.00356144
0.0018058
-0.00695696
0.00199357
-0.00415579
0.00206177
-0.00116046
0.00230296
0.00422727
0.00262621
0.0103862
0.00278024
0.0122768
0.00279855
0.00976485
0.00279946
0.00556452
0.00281001
0.00195971
0.00279117
-0.000170188
0.00276616
-0.00162215
0.00276536
-0.00288028
0.00273211
-0.00340912
0.00262138
-0.00301375
0.00246487
-0.00216355
0.00231521
-0.00130273
0.00219696
-0.00063765
0.00211028
-0.000225776
0.00204844
-2.84629e-05
0.00200547
3.60838e-05
0.00197672
4.02078e-05
0.00195834
2.65932e-05
0.00194712
1.32649e-05
0.00194054
4.83762e-06
0.00193683
7.21858e-07
0.00193481
-7.8099e-07
0.00193373
-1.03761e-06
0.00193318
-8.42576e-07
0.0019329
-5.65919e-07
0.00193277
-3.39839e-07
0.0019327
-1.88565e-07
0.00193267
-9.85021e-08
0.00193265
-4.90862e-08
0.00193265
-2.3648e-08
0.00193265
-1.10445e-08
0.00193264
-5.49377e-09
0.00193264
-2.42617e-09
0.00193264
-1.45632e-09
0.00193264
-2.85751e-10
0.00193264
-8.7524e-10
0.00193264
5.74241e-10
0.00193264
-1.09234e-09
0.00193264
1.08857e-09
0.00193264
-1.88963e-09
0.00193264
1.72905e-09
0.00193264
-2.30559e-09
0.00193264
2.88887e-09
0.00193264
-2.38757e-09
0.00193264
2.79471e-09
0.00193264
-2.30271e-09
0.00193264
1.38611e-09
0.00193264
-7.16288e-10
0.00193264
-1.11233e-09
0.00193264
1.98915e-09
0.00193264
-4.24295e-09
0.00193264
5.10814e-09
0.00193264
-5.95825e-09
0.00193264
6.41077e-09
0.00193264
-5.733e-09
0.00193264
4.05885e-09
0.00193264
-1.80299e-09
0.00193264
-5.18217e-10
0.00193264
3.35887e-09
0.00193264
-4.59999e-09
0.00193264
4.2167e-09
0.00193264
-2.77852e-09
0.00193264
1.40167e-11
0.00193264
2.05916e-09
0.00193264
-2.40181e-09
0.00193264
1.22271e-09
0.00193264
1.38175e-10
0.00193264
-1.55082e-09
0.00193264
7.50812e-10
0.00193264
4.59481e-10
0.00193264
-4.54165e-10
0.00193264
2.84144e-10
2.78921e-10
0.00403693
-0.000617782
0.00415668
-7.43767e-05
0.00443016
0.000229903
0.00424946
-0.00139878
0.0041584
-0.00255051
0.00436134
-0.0015134
0.00436013
-0.000485423
0.0045605
-9.76499e-05
0.00467602
-0.00171132
0.00448783
-0.00408761
0.0045667
-0.0039205
0.00481141
-0.00345472
0.00478689
-0.00499985
0.00434059
-0.00704517
0.00374985
-0.00839988
0.00343925
-0.00715501
0.00334336
-0.00434199
0.00332327
-0.00132552
0.00327031
0.00161938
0.00287345
0.00261846
0.00208682
0.00342303
0.00150925
0.00288834
0.00140359
-0.00345578
0.00154349
-0.00709686
0.00172455
-0.00433686
0.00180806
-0.00124397
0.00205907
0.00397626
0.00244071
0.0100045
0.00269262
0.0120249
0.00280212
0.00965535
0.00286048
0.00550615
0.00289055
0.00192964
0.00286711
-0.00014675
0.00283557
-0.00159061
0.00283065
-0.00287536
0.00278478
-0.00336325
0.00265298
-0.00288195
0.00247502
-0.00198559
0.00230991
-0.00113762
0.00218441
-0.000512154
0.00209706
-0.000138419
0.00203791
3.06879e-05
0.00199838
7.56123e-05
0.0019725
6.609e-05
0.00195605
4.30391e-05
0.00194596
2.3359e-05
0.00193998
1.08182e-05
0.00193655
4.14841e-06
0.00193465
1.1218e-06
0.00193362
-1.10282e-08
0.00193308
-3.03514e-07
0.0019328
-2.9007e-07
0.00193267
-2.02198e-07
0.0019326
-1.21591e-07
0.00193257
-6.67623e-08
0.00193255
-3.44048e-08
0.00193255
-1.70649e-08
0.00193254
-8.15352e-09
0.00193254
-4.28612e-09
0.00193254
-1.89021e-09
0.00193254
-1.32244e-09
0.00193254
-1.34586e-10
0.00193254
-9.54772e-10
0.00193254
7.41243e-10
0.00193254
-1.27274e-09
0.00193254
1.36771e-09
0.00193254
-2.21501e-09
0.00193254
2.14267e-09
0.00193254
-2.78549e-09
0.00193254
3.39123e-09
0.00193254
-2.97487e-09
0.00193254
3.33071e-09
0.00193254
-2.77479e-09
0.00193254
1.72197e-09
0.00193254
-8.07681e-10
0.00193254
-1.25676e-09
0.00193254
2.47395e-09
0.00193254
-5.02871e-09
0.00193254
6.1977e-09
0.00193254
-7.19255e-09
0.00193254
7.6832e-09
0.00193254
-6.87585e-09
0.00193254
4.89787e-09
0.00193254
-2.17461e-09
0.00193254
-6.62182e-10
0.00193254
3.96369e-09
0.00193254
-5.45772e-09
0.00193254
5.03963e-09
0.00193254
-3.29267e-09
0.00193254
4.73759e-11
0.00193254
2.43156e-09
0.00193254
-2.86574e-09
0.00193254
1.45804e-09
0.00193254
2.05019e-10
0.00193254
-1.79396e-09
0.00193254
9.14611e-10
0.00193254
5.15632e-10
0.00193254
-5.79184e-10
0.00193254
3.16366e-10
3.34325e-10
0.00442665
-0.000582416
0.00448539
-0.000133123
0.00476398
-4.86868e-05
0.00457488
-0.00120968
0.00441839
-0.00239402
0.00464357
-0.00173858
0.00462598
-0.00046783
0.00474458
-0.000216249
0.0048443
-0.00181104
0.0045887
-0.00383201
0.00459388
-0.00392569
0.00474696
-0.0036078
0.0045504
-0.00480329
0.00395145
-0.00644623
0.00326769
-0.00771611
0.00290732
-0.00679464
0.0028105
-0.00424517
0.00280428
-0.0013193
0.00277796
0.0016457
0.00244067
0.00295575
0.00173412
0.00412958
0.00124345
0.00337901
0.00115093
-0.00336327
0.00126324
-0.00720916
0.001438
-0.00451162
0.00153824
-0.00134421
0.00179935
0.00371515
0.00223569
0.00956817
0.00258216
0.0116784
0.00278207
0.00945544
0.00289891
0.00538931
0.00294836
0.00188018
0.00292135
-0.000119734
0.00288878
-0.00155804
0.00288323
-0.00286981
0.00282349
-0.00330351
0.00266959
-0.00272805
0.00247163
-0.00178763
0.00229372
-0.000959719
0.00216354
-0.000381968
0.00207761
-5.24963e-05
0.00202287
8.54351e-05
0.00198815
0.00011033
0.00196617
8.80683e-05
0.0019524
5.68101e-05
0.00194393
3.1826e-05
0.00193885
1.58976e-05
0.00193589
7.1133e-06
0.00193421
2.80411e-06
0.00193328
9.1694e-07
0.00193278
1.94288e-07
0.00193252
-3.02793e-08
0.00193239
-7.03033e-08
0.00193232
-5.64654e-08
0.00193229
-3.55215e-08
0.00193228
-1.98199e-08
0.00193227
-1.04832e-08
0.00193227
-5.25335e-09
0.00193227
-3.07439e-09
0.00193227
-1.35147e-09
0.00193227
-1.1892e-09
0.00193227
2.12209e-11
0.00193227
-1.02742e-09
0.00193227
9.13321e-10
0.00193227
-1.46235e-09
0.00193227
1.64163e-09
0.00193227
-2.54452e-09
0.00193227
2.56934e-09
0.00193227
-3.26835e-09
0.00193227
3.90581e-09
0.00193227
-3.57372e-09
0.00193227
3.87806e-09
0.00193227
-3.25589e-09
0.00193227
2.07123e-09
0.00193227
-9.1183e-10
0.00193227
-1.40263e-09
0.00193227
2.97174e-09
0.00193227
-5.81555e-09
0.00193227
7.30105e-09
0.00193227
-8.45054e-09
0.00193227
8.95434e-09
0.00193227
-8.01422e-09
0.00193227
5.73244e-09
0.00193227
-2.53844e-09
0.00193227
-8.14466e-10
0.00193227
4.53034e-09
0.00193227
-6.28308e-09
0.00193227
5.83859e-09
0.00193227
-3.77743e-09
0.00193227
8.97063e-11
0.00193227
2.77126e-09
0.00193227
-3.31674e-09
0.00193227
1.68836e-09
0.00193227
2.91305e-10
0.00193227
-2.02026e-09
0.00193227
1.08285e-09
0.00193227
5.6971e-10
0.00193227
-7.19914e-10
0.00193227
3.36316e-10
3.86467e-10
0.00471128
-0.000560772
0.00471124
-0.000133084
0.00497889
-0.000316335
0.00480268
-0.00103347
0.00460692
-0.00219826
0.00481431
-0.00194597
0.0047885
-0.000442027
0.00484731
-0.000275055
0.00489696
-0.00186069
0.00460975
-0.0035448
0.0045432
-0.00385913
0.00456548
-0.00363008
0.00419672
-0.00443453
0.00348488
-0.00573439
0.0027626
-0.00699383
0.00238476
-0.00641679
0.00228507
-0.00414549
0.00227937
-0.0013136
0.00227248
0.00165258
0.00199963
0.0032286
0.00138857
0.00474065
0.000998354
0.00376923
0.000898108
-0.00326302
0.000964863
-0.00727591
0.00113455
-0.0046813
0.00125438
-0.00146405
0.00152396
0.00344557
0.00200724
0.0090849
0.0024474
0.0112383
0.00273794
0.0091649
0.00291431
0.00521294
0.0029826
0.0018119
0.00295356
-9.07033e-05
0.00292696
-0.00153144
0.00292303
-0.00286588
0.00284606
-0.00322654
0.00266841
-0.0025504
0.00245252
-0.00157174
0.00226543
-0.000772635
0.0021339
-0.00025043
0.00205191
2.94861e-05
0.00200339
0.000133964
0.00197479
0.000138927
0.00195766
0.000105195
0.00194723
6.72435e-05
0.00194083
3.82244e-05
0.00193693
1.97965e-05
0.0019346
9.44876e-06
0.00193323
4.1696e-06
0.00193245
1.69314e-06
0.00193203
6.22451e-07
0.0019318
1.98704e-07
0.00193168
4.836e-08
0.00193162
3.09336e-09
0.00193159
-6.59632e-09
0.00193158
-6.20469e-09
0.00193157
-4.31553e-09
0.00193157
-2.53451e-09
0.00193157
-1.94514e-09
0.00193157
-8.48158e-10
0.00193157
-1.07133e-09
0.00193156
1.74629e-10
0.00193156
-1.09846e-09
0.00193156
1.08809e-09
0.00193156
-1.66152e-09
0.00193156
1.91282e-09
0.00193157
-2.87856e-09
0.00193156
3.00814e-09
0.00193157
-3.75638e-09
0.00193156
4.43422e-09
0.00193157
-4.18427e-09
0.00193156
4.43679e-09
0.00193157
-3.74683e-09
0.00193156
2.43263e-09
0.00193156
-1.02449e-09
0.00193156
-1.55341e-09
0.00193156
3.48626e-09
0.00193157
-6.60945e-09
0.00193156
8.42029e-09
0.00193157
-9.72875e-09
0.00193156
1.0221e-08
0.00193157
-9.13794e-09
0.00193156
6.54846e-09
0.00193156
-2.88569e-09
0.00193156
-9.75124e-10
0.00193156
5.05756e-09
0.00193157
-7.06385e-09
0.00193156
6.59655e-09
0.00193156
-4.22605e-09
0.00193156
1.39339e-10
0.00193156
3.07531e-09
0.00193156
-3.74557e-09
0.00193156
1.9087e-09
0.00193156
3.95212e-10
0.00193156
-2.2345e-09
0.00193156
1.25246e-09
0.00193156
6.2502e-10
0.00193156
-8.74157e-10
0.00193156
3.45424e-10
4.36095e-10
0.0048869
-0.000547305
0.00484909
-9.52704e-05
0.00508377
-0.000551017
0.00492983
-0.000879518
0.00472249
-0.00199093
0.00487131
-0.00209479
0.00484572
-0.000416435
0.00486451
-0.000293842
0.00484164
-0.00183783
0.00455394
-0.00325709
0.0044124
-0.0037176
0.00427183
-0.00348951
0.00374827
-0.00391097
0.00296995
-0.00495607
0.00226001
-0.00628389
0.00188875
-0.00604553
0.00177813
-0.00403487
0.0017594
-0.00129487
0.00176691
0.00164507
0.00156169
0.00343383
0.00105936
0.00524297
0.000777273