/*--------------------------------*- C++ -*----------------------------------*\
| =========                 |                                                 |
| \\      /  F ield         | OpenFOAM: The Open Source CFD Toolbox           |
|  \\    /   O peration     | Version:  2.4.0                                 |
|   \\  /    A nd           | Web:      www.OpenFOAM.org                      |
|    \\/     M anipulation  |                                                 |
\*---------------------------------------------------------------------------*/
FoamFile
{
    version     2.0;
    format      ascii;
    class       volScalarField;
    location    "0.94";
    object      p;
}
// * * * * * * * * * * * * * * * * * * * * * * * * * * * * * * * * * * * * * //

dimensions      [0 2 -2 0 0 0 0];

internalField   nonuniform List<scalar> 
8800
(
91.1151
78.7407
71.3463
67.8262
65.9422
64.5197
63.3603
62.1979
61.2485
60.2308
59.2582
58.4572
57.3619
56.6567
55.7172
54.8483
54.4057
53.1948
52.9593
52.8033
88.0013
78.3862
71.5158
67.9401
66.0025
64.5436
63.3696
62.1967
61.2463
60.2314
59.2481
58.4649
57.3533
56.6545
55.7225
54.8268
54.4361
53.1776
52.9123
52.7906
86.0339
78.4633
72.1202
68.3165
66.1695
64.6211
63.4173
62.2269
61.2718
60.2503
59.2529
58.4799
57.3464
56.6553
55.7269
54.7977
54.467
53.1478
52.9672
52.9171
84.4964
78.5234
72.7109
68.7409
66.354
64.7084
63.4772
62.2835
61.3196
60.2914
59.2793
58.499
57.359
56.658
55.7329
54.7806
54.4616
53.1388
53.0075
53.2011
83.2456
78.4968
73.1911
69.1488
66.5208
64.7792
63.5216
62.3423
61.375
60.3405
59.3226
58.5192
57.379
56.6669
55.7334
54.7759
54.4302
53.1483
52.8842
53.5868
82.2603
78.3969
73.559
69.4978
66.6753
64.8197
63.5488
62.3907
61.4199
60.3982
59.353
58.5372
57.3973
56.6569
55.7456
54.7703
54.3727
53.194
52.8873
54.0238
81.5036
78.2863
73.8241
69.7785
66.8133
64.8525
63.5473
62.4318
61.4532
60.4452
59.3796
58.5472
57.4058
56.6445
55.7538
54.75
54.338
53.2596
52.891
54.3472
80.9554
78.1896
74.0045
69.9921
66.937
64.8677
63.5498
62.4462
61.4869
60.4899
59.4041
58.5706
57.4198
56.6384
55.7523
54.7387
54.3153
53.3573
52.9037
54.5813
80.5966
78.1181
74.1248
70.1331
67.0263
64.8839
63.5363
62.4714
61.4931
60.5148
59.429
58.58
57.4549
56.642
55.7764
54.7551
54.302
53.4481
52.9157
54.6807
80.4187
78.085
74.1773
70.2107
67.0709
64.8867
63.5348
62.4754
61.5022
60.5258
59.4397
58.5805
57.4741
56.6355
55.7865
54.7583
54.2843
53.5052
52.9504
54.5801
80.4201
78.086
74.1813
70.2093
67.0721
64.8889
63.5312
62.4859
61.4909
60.5352
59.445
58.5669
57.4974
56.6262
55.789
54.7864
54.2628
53.5681
52.9773
54.3915
80.591
78.1358
74.1241
70.1371
67.0273
64.8818
63.5359
62.4811
61.4759
60.5135
59.4441
58.5514
57.5185
56.6172
55.8042
54.8197
54.2422
53.6042
52.9958
54.1947
80.9489
78.2116
74.0125
69.9887
66.9426
64.8728
63.5388
62.475
61.4442
60.5018
59.4356
58.5247
57.5371
56.6145
55.8014
54.8541
54.2435
53.5999
53.0301
53.9858
81.4947
78.3168
73.8273
69.7739
66.817
64.8539
63.5432
62.4538
61.4086
60.4772
59.4159
58.4926
57.5543
56.6076
55.8104
54.9072
54.231
53.6209
53.0416
53.7819
82.2513
78.4294
73.5629
69.486
66.6788
64.8253
63.535
62.4285
61.3567
60.4446
59.3914
58.4478
57.5714
56.6049
55.8129
54.9525
54.2552
53.6421
53.0456
53.5933
83.2318
78.5312
73.1964
69.134
66.528
64.7774
63.5109
62.3882
61.2967
60.4053
59.3625
58.401
57.5837
56.5971
55.8122
55.0044
54.2835
53.6671
53.085
53.3486
84.4798
78.5579
72.722
68.7231
66.3576
64.7118
63.4629
62.3391
61.2334
60.3575
59.3372
58.3576
57.5846
56.5965
55.8137
55.0357
54.3193
53.7011
53.1485
53.0495
86.0144
78.4956
72.1379
68.2966
66.1736
64.6258
63.4005
62.2861
61.1846
60.3171
59.3172
58.3341
57.5799
56.5988
55.8156
55.0558
54.349
53.7238
53.2081
52.8887
87.9807
78.4153
71.5366
67.9211
66.0049
64.5485
63.3537
62.2537
61.1643
60.2956
59.3095
58.3322
57.5746
56.6069
55.82
55.0658
54.3634
53.7363
53.2077
52.7814
91.0935
78.7681
71.3666
67.8078
65.9449
64.5234
63.3469
62.2504
61.1708
60.2956
59.3099
58.3413
57.5718
56.6107
55.8241
55.0667
54.3673
53.7378
53.2111
52.9018
51.9602
51.5286
51.1434
50.8888
50.8849
51.08
51.3966
51.7664
52.1222
52.4207
52.641
52.7604
52.8023
52.7322
52.5954
52.3631
52.0497
51.664
51.233
50.7803
50.3343
49.9131
49.5458
49.2296
48.9982
48.8637
48.841
48.9164
49.1002
49.3383
49.632
49.9383
50.2493
50.5173
50.7161
50.8112
50.8109
50.6965
50.5256
50.3004
50.0814
49.8583
49.7015
49.5903
49.588
49.6439
49.7931
50.005
50.2721
50.6198
51.0162
51.4974
52.0763
52.7798
53.6078
54.4942
55.412
56.1816
56.6781
56.6951
56.1338
54.8032
52.8259
50.3219
47.6668
45.1974
42.7441
40.607
38.7813
37.6206
37.0047
37.1757
37.8673
39.0743
40.4547
41.8989
43.3021
44.5974
45.7762
46.7899
47.67
48.4339
49.0141
49.4495
49.7561
49.8943
49.9614
49.9255
49.8197
49.7173
49.5607
49.3609
49.1727
48.9524
48.6943
48.4356
48.0776
47.7318
47.241
46.6816
45.9972
45.148
44.2284
43.142
42.0736
40.9003
39.7129
38.6494
37.4005
36.4992
35.2542
34.495
33.4793
32.7093
32.101
31.4586
31.0221
30.6162
30.3244
30.088
29.8182
29.7706
29.4318
29.3784
29.3158
28.8875
28.9891
28.8117
28.548
28.6396
28.7553
28.6992
29.1379
29.6676
30.294
31.2993
32.5918
34.1647
35.8421
38.0418
40.188
42.5902
44.8926
47.2845
49.564
51.7267
53.7383
55.621
57.5225
59.1365
60.7655
62.2042
63.5229
64.857
66.0418
67.137
68.1013
68.8095
69.5044
69.0538
68.9518
68.2604
65.3906
63.095
61.017
57.9642
55.2185
53.077
50.9892
49.2371
48.0328
47.1319
46.6043
46.4213
46.3535
46.8042
47.7957
49.1958
51.4781
54.3577
57.1961
60.1015
62.9074
65.057
66.7776
68.3971
69.7288
70.6614
71.5914
72.3963
72.6439
72.5202
72.0131
70.5151
66.8866
60.1903
51.5647
41.268
28.6251
1.33718
51.8369
51.3627
50.9436
50.7368
50.7568
50.9741
51.3169
51.7325
52.1313
52.4738
52.7213
52.8335
52.8478
52.7372
52.556
52.291
51.9541
51.5673
51.1467
50.7056
50.2807
49.8707
49.5309
49.2422
49.054
48.9325
48.9288
49.0139
49.2006
49.4373
49.731
50.0207
50.321
50.5712
50.7453
50.8283
50.8017
50.6862
50.496
50.2582
50.0284
49.8031
49.6397
49.527
49.5299
49.5998
49.7611
50.0029
50.2983
50.6855
51.1183
51.6453
52.2358
52.9397
53.7209
54.5194
55.3069
55.8992
56.2863
56.2112
55.6215
54.4124
52.5442
50.3389
47.7843
45.4345
43.1168
41.1149
39.4129
38.2494
37.6498
37.742
38.3647
39.3747
40.6146
41.9383
43.2537
44.4859
45.6331
46.6471
47.5669
48.3244
48.9667
49.409
49.7728
49.9479
50.046
50.0521
49.9858
49.8768
49.7309
49.5382
49.2705
49.074
48.7087
48.4415
48.0007
47.5948
47.0689
46.4067
45.7552
44.822
43.975
42.8835
41.8618
40.8107
39.5883
38.7014
37.4835
36.6169
35.6259
34.7096
34.0523
33.2188
32.6214
32.1455
31.6031
31.2539
31.0473
30.7145
30.5134
30.4349
30.1476
29.9978
29.9799
29.6486
29.6166
29.5456
29.4722
29.4121
29.7151
29.8458
30.2273
30.8964
31.6909
32.7213
34.0476
35.684
37.3799
39.427
41.4751
43.7566
45.8342
48.0838
50.1508
52.1998
54.0925
55.8961
57.7243
59.2603
60.9003
62.324
63.7053
65.0423
66.2934
67.5448
68.4974
69.4589
70.2576
69.6708
69.7706
68.7609
65.3471
62.7602
60.3761
56.9237
53.5809
50.8425
48.4732
46.7179
45.3871
44.4378
44.3062
44.7372
44.9483
45.2473
45.8601
47.068
49.1555
51.5732
54.2497
57.5238
60.5763
62.7512
64.6655
66.5657
68.0365
68.8553
69.6527
70.2408
70.4224
70.0335
69.2948
67.5289
63.8253
56.8947
47.0188
34.827
21.256
-5.80337
51.768
51.3237
51.0987
50.846
50.7588
50.922
51.2529
51.6816
52.093
52.44
52.7085
52.8094
52.8272
52.663
52.4611
52.1689
51.8292
51.4628
51.0559
50.6606
50.2537
49.8959
49.5753
49.3289
49.1543
49.0587
49.0644
49.1474
49.3271
49.5432
49.8184
50.0842
50.3516
50.5708
50.7209
50.779
50.7512
50.6256
50.442
50.217
49.9716
49.7901
49.6143
49.5478
49.5383
49.6226
49.798
50.0554
50.3723
50.7741
51.2252
51.7535
52.3315
52.984
53.673
54.3625
54.9849
55.4553
55.683
55.5486
54.9442
53.8331
52.1638
50.1639
47.8591
45.6482
43.5027
41.627
40.0516
38.943
38.38
38.4101
38.9416
39.8059
40.9003
42.0969
43.3063
44.4543
45.5515
46.5392
47.4638
48.1944
48.8738
49.3152
49.706
49.915
50.0358
50.0677
50.0144
49.9364
49.719
49.6071
49.2665
49.0811
48.6698
48.352
47.9046
47.3805
46.9019
46.1094
45.5232
44.5469
43.7518
42.7526
41.6934
40.8411
39.6076
38.8119
37.7775
36.8172
36.1364
35.1645
34.5636
33.9342
33.2142
32.8678
32.4084
31.9577
31.8188
31.5197
31.2615
31.2121
30.9743
30.7734
30.7337
30.5602
30.4797
30.4317
30.5383
30.4988
30.7951
31.1314
31.5936
32.2491
33.2141
34.267
35.5768
37.1794
38.8291
40.7334
42.5934
44.7495
46.6225
48.7448
50.6531
52.5691
54.3718
56.095
57.8382
59.349
61.0015
62.4176
63.9521
65.3107
66.6482
68.0379
68.971
70.2626
71.0157
70.4541
71.0275
69.5811
65.7036
62.6499
59.7255
55.5803
51.3154
47.716
45.1618
43.5899
42.0136
40.8306
41.361
42.7166
43.5615
44.156
44.6998
45.6556
47.3385
49.3387
51.965
55.4844
58.5568
60.6136
62.6803
64.8631
66.4378
67.1537
67.8359
68.3245
68.3759
67.9048
66.8475
64.9248
60.9645
54.3426
44.4624
30.469
17.6011
-2.7148
51.6325
51.2109
51.1938
50.8879
50.6151
50.6657
50.996
51.5196
51.9778
52.3336
52.5927
52.6889
52.714
52.5502
52.3251
52.046
51.699
51.3726
50.9837
50.6303
50.2762
49.9514
49.6858
49.4476
49.3117
49.2266
49.2285
49.3122
49.4547
49.6601
49.8816
50.1229
50.3438
50.5312
50.656
50.6974
50.6637
50.5471
50.3716
50.1847
49.9477
49.7975
49.6458
49.5953
49.6156
49.7006
49.8845
50.1425
50.4519
50.8522
51.2817
51.778
52.3112
52.8763
53.4588
54.0162
54.5067
54.8427
54.9489
54.7499
54.1668
53.1568
51.7197
49.9394
47.9357
45.9195
43.9847
42.2704
40.8446
39.8215
39.2703
39.2417
39.6333
40.3876
41.3286
42.3948
43.4896
44.5205
45.5505
46.4531
47.3487
48.0398
48.7144
49.1418
49.5507
49.7657
49.9089
49.9759
49.8975
49.8868
49.6288
49.531
49.1884
48.9515
48.563
48.1694
47.7488
47.1543
46.6939
45.8917
45.3019
44.4051
43.581
42.7666
41.6593
40.9576
39.8419
38.9953
38.219
37.2331
36.5983
35.8677
35.1441
34.6682
34.0452
33.6085
33.2717
32.8517
32.5967
32.4379
32.1739
32.0292
31.924
31.727
31.6186
31.601
31.5149
31.4954
31.7007
31.7261
32.0666
32.4433
33.0406
33.6899
34.6612
35.7516
36.9748
38.5067
40.0488
41.8389
43.5234
45.5543
47.2508
49.2578
51.0733
52.8428
54.5966
56.27
57.9132
59.4737
61.0815
62.5317
64.2491
65.5723
67.0842
68.5771
69.4616
71.0907
71.8761
71.6137
72.6044
70.5061
66.0868
62.6834
59.2712
54.1651
49.0811
44.6197
41.8931
40.492
38.4729
36.7673
37.7711
40.1492
42.0415
43.2137
43.9639
44.7543
45.9531
47.5731
50.2975
53.9944
56.9668
58.8731
61.0179
63.3875
64.9974
65.7109
66.2529
66.7561
66.58
66.1452
64.8125
62.8871
58.9935
52.2534
43.9116
29.3167
16.8907
2.16259
53.1505
52.3502
51.3864
50.6628
50.2251
50.1891
50.5516
51.2075
51.7567
52.1685
52.3995
52.4898
52.5141
52.4018
52.1845
51.9211
51.5925
51.2969
50.9408
50.6192
50.3397
50.0439
49.8303
49.6073
49.4922
49.4304
49.3982
49.4806
49.5715
49.7569
49.9315
50.122
50.3113
50.4527
50.5619
50.589
50.5512
50.4672
50.3194
50.1694
49.987
49.8465
49.743
49.6955
49.7352
49.8277
49.9974
50.2373
50.5298
50.8881
51.2821
51.7127
52.1714
52.634
53.1044
53.5129
53.9008
54.1007
54.1287
53.8788
53.3407
52.4703
51.2439
49.7264
48.0273
46.2717
44.5819
43.0669
41.7942
40.8667
40.3175
40.223
40.4842
41.108
41.9032
42.8291
43.7983
44.6953
45.6203
46.4082
47.2219
47.8582
48.4794
48.9075
49.2743
49.5269
49.6493
49.7766
49.6901
49.7002
49.4802
49.3381
49.0498
48.7657
48.4021
47.9832
47.5646
46.9775
46.5024
45.7805
45.1671
44.4072
43.5441
42.8742
41.8876
41.1275
40.2754
39.3792
38.6622
37.8988
37.1512
36.5795
35.9655
35.3813
34.9344
34.5249
34.0972
33.8328
33.5145
33.3224
33.2053
32.9419
32.9048
32.7959
32.5955
32.6929
32.6276
32.603
32.8875
32.9644
33.3483
33.6969
34.3772
35.0356
35.9231
37.0417
38.1656
39.5901
41.0204
42.7043
44.2796
46.1582
47.7914
49.6603
51.39
53.0877
54.7956
56.4129
58.0316
59.6176
61.1909
62.6284
64.3968
65.6583
67.4374
69.009
69.9493
71.9852
72.8741
73.0731
74.3636
71.549
66.4749
62.6825
58.6301
52.2657
46.7797
42.174
39.5255
38.1694
35.7603
33.676
34.5034
37.361
40.2046
42.2225
43.5089
44.3238
45.1191
46.3686
49.1347
52.8788
55.6249
57.3701
59.5679
62.0991
63.7573
64.575
65.0011
65.5469
65.2188
64.7111
63.4112
61.2988
58.369
51.0841
44.382
31.2492
18.5456
7.13736
54.024
53.0978
51.6053
50.6239
50.0406
49.8771
50.1551
50.8488
51.4824
51.968
52.1998
52.2726
52.332
52.2281
52.0605
51.8008
51.5355
51.2479
50.9273
50.6443
50.4033
50.1674
49.9518
49.7828
49.6578
49.626
49.5745
49.6244
49.6993
49.8321
49.987
50.1083
50.2666
50.3741
50.4698
50.4904
50.4556
50.399
50.2902
50.1636
50.0373
49.9078
49.8457
49.816
49.8423
49.9567
50.1007
50.3075
50.5877
50.8755
51.2204
51.5721
51.9396
52.3009
52.6696
52.9784
53.2463
53.3609
53.3121
53.0552
52.5724
51.8258
50.7976
49.5352
48.1226
46.6448
45.2241
43.9222
42.8105
41.9942
41.4639
41.3068
41.4609
41.9075
42.5746
43.34
44.1721
44.9482
45.7156
46.4221
47.0907
47.683
48.2165
48.6318
48.9526
49.2153
49.3278
49.4734
49.4444
49.4185
49.2787
49.0887
48.8526
48.5525
48.2209
47.8135
47.3955
46.8942
46.3621
45.7875
45.1662
44.5002
43.7709
43.042
42.2703
41.4769
40.7286
39.9511
39.2091
38.573
37.8771
37.2911
36.8066
36.2393
35.7746
35.4697
35.0277
34.7301
34.5351
34.2414
34.1664
33.9993
33.8376
33.8507
33.6766
33.688
33.7552
33.6911
34.011
34.1224
34.5218
34.8673
35.5107
36.2078
36.9779
38.0791
39.1389
40.459
41.8168
43.3772
44.9364
46.6221
48.2807
50.011
51.6469
53.3206
54.9971
56.5255
58.1382
59.6733
61.1956
62.6233
64.3593
65.5944
67.5769
69.1778
70.5379
72.7631
73.7018
74.3149
75.8777
72.7224
67.2726
62.9821
57.6272
49.674
43.366
39.2055
37.1508
35.8937
33.6192
31.6933
32.3724
35.1153
38.2839
41.0968
43.1597
44.2133
44.7331
45.8062
48.6447
52.2718
54.6656
56.1021
58.2107
60.8966
62.7493
63.6716
64.1211
64.6541
64.3748
63.5739
62.7244
60.1537
58.3619
51.4569
45.3141
34.6655
22.2566
12.6051
54.5847
53.6616
51.9167
50.7365
50.0397
49.7027
49.8736
50.4889
51.1984
51.7493
52.0216
52.1098
52.1791
52.0821
51.958
51.7326
51.5081
51.2419
50.9059
50.6825
50.4594
50.2802
50.0669
49.9271
49.8311
49.7871
49.758
49.7415
49.8178
49.8953
50.0188
50.0954
50.2134
50.3081
50.385
50.4057
50.3689
50.3482
50.2624
50.1748
50.0822
49.9793
49.9433
49.9319
49.9381
50.0622
50.1763
50.3406
50.5992
50.8176
51.1047
51.3984
51.6686
51.958
52.2374
52.4779
52.6378
52.6917
52.6007
52.3405
51.9244
51.2756
50.4247
49.3905
48.2324
47.0109
45.8404
44.7352
43.7797
43.0641
42.577
42.3466
42.4283
42.7159
43.2418
43.8698
44.5441
45.2116
45.8165
46.4428
46.9862
47.5074
47.9822
48.3638
48.6496
48.9145
49.0271
49.1651
49.1953
49.1236
49.0656
48.8515
48.6469
48.3801
48.0423
47.7058
47.2642
46.863
46.3208
45.8229
45.28
44.6185
44.0368
43.3187
42.6454
41.9297
41.2216
40.5242
39.8453
39.2268
38.5854
38.0731
37.5657
37.0944
36.6764
36.2829
36.0242
35.6372
35.4259
35.2904
35.0284
35.0159
34.8552
34.7506
34.7982
34.6428
34.7861
34.7827
34.9756
35.2058
35.5236
35.8975
36.4818
37.1551
37.8931
38.9229
39.9805
41.1759
42.4913
43.9575
45.4881
47.0246
48.6696
50.3242
51.861
53.4927
55.1466
56.5941
58.1354
59.6125
61.0349
62.4682
64.1783
65.498
67.4345
68.9987
70.8443
73.1178
73.8957
75.0942
76.5101
73.2471
67.8668
63.1483
56.5555
47.7871
40.4555
36.1719
34.4083
33.2316
31.4554
29.9179
30.6366
33.2697
36.5598
40.0614
42.8852
44.2939
44.8558
46.0886
48.9698
52.2802
54.2604
55.297
57.2551
60.0454
62.1365
63.0531
63.6119
63.9763
64.0539
62.8912
62.5341
59.7152
58.1077
52.5809
46.4612
38.2605
27.5228
18.661
55.0062
54.019
52.1614
50.8242
50.0921
49.6407
49.7106
50.2208
50.9688
51.5548
51.8848
52.0158
52.0748
51.9949
51.8531
51.6983
51.4746
51.2424
50.8937
50.6978
50.5265
50.355
50.1803
50.0169
49.9707
49.9109
49.8814
49.845
49.9052
49.972
50.0536
50.1109
50.1866
50.2659
50.3279
50.3394
50.3019
50.3103
50.2319
50.1852
50.1032
50.0266
50.0147
49.9974
50.0111
50.1124
50.2115
50.3403
50.5626
50.7419
50.9677
51.2207
51.4184
51.6783
51.8634
52.0239
52.1177
52.1198
52.0157
51.7587
51.4136
50.8516
50.1427
49.312
48.3446
47.3488
46.3828
45.4342
44.6182
43.9861
43.5216
43.2579
43.273
43.4606
43.8457
44.3601
44.8788
45.4423
45.9239
46.4568
46.9168
47.3598
47.7871
48.1324
48.3969
48.6468
48.7851
48.8852
48.9703
48.8588
48.8567
48.6669
48.4612
48.2606
47.9154
47.6212
47.2223
46.8231
46.3525
45.8934
45.3945
44.8104
44.2554
43.6359
43.019
42.3544
41.7202
41.0516
40.4448
39.867
39.2421
38.8197
38.3144
37.8721
37.5546
37.1152
36.8984
36.5927
36.2827
36.253
35.9795
35.8944
35.9004
35.6517
35.7722
35.6626
35.6621
35.8353
35.846
36.1611
36.4514
36.7496
37.3888
37.9387
38.7262
39.6558
40.6719
41.8416
43.0483
44.4419
45.8812
47.3962
48.9472
50.5575
52.0177
53.5997
55.1367
56.5974
58.0136
59.4431
60.7279
62.2325
63.8517
65.1928
67.0734
68.7063
70.5795
72.6374
73.5557
74.7566
75.57
72.5981
67.4363
62.2532
55.2064
47.2047
39.7171
34.935
32.6004
31
29.6225
28.5136
29.373
32.0136
35.3496
39.2677
42.6539
44.4452
45.3216
46.8997
49.8022
52.6449
54.1949
54.9579
56.8111
59.6192
61.9241
62.7592
63.4361
63.629
64.117
62.8834
62.5685
60.0123
57.7955
53.8277
48.0105
42.0006
33.4184
25.0114
55.4164
54.3843
52.3852
50.9432
50.1765
49.6877
49.6413
50.0541
50.7522
51.3759
51.7497
51.9665
52.0078
51.9373
51.7725
51.6563
51.4505
51.2268
50.8947
50.6901
50.5811
50.3925
50.2703
50.1011
50.084
50.0408
49.9729
49.9645
49.9701
50.0475
50.0808
50.1191
50.1733
50.2269
50.2948
50.2827
50.2626
50.2839
50.2175
50.1936
50.1189
50.0496
50.0672
50.029
50.054
50.135
50.2027
50.3243
50.4992
50.6541
50.8363
51.0345
51.19
51.3704
51.5213
51.6111
51.6699
51.6423
51.5299
51.3004
51.0062
50.5321
49.934
49.2696
48.4585
47.6344
46.8411
46.0058
45.3137
44.7493
44.3066
44.0482
44.0121
44.1246
44.3824
44.7867
45.1704
45.6393
46.0293
46.4778
46.8706
47.251
47.6295
47.9387
48.1953
48.4178
48.5728
48.658
48.7499
48.6798
48.6649
48.5151
48.3343
48.1342
47.8497
47.5481
47.2068
46.8358
46.3932
46.022
45.5067
45.0249
44.5003
43.9209
43.4021
42.739
42.187
41.5708
40.9798
40.4921
39.8699
39.5187
39.0346
38.6307
38.3528
37.9396
37.7384
37.4591
37.2026
37.103
36.928
36.7877
36.7925
36.654
36.6338
36.628
36.563
36.7181
36.7675
37
37.3157
37.5542
38.2066
38.6637
39.4214
40.2973
41.2112
42.4062
43.4331
44.8277
46.1254
47.6669
49.1703
50.6479
52.1391
53.6742
55.0298
56.5294
57.8341
59.1044
60.4285
61.7681
63.3014
64.5417
66.4132
68.2644
69.8049
71.4189
72.3683
73.5481
73.5257
71.0552
66.4183
61.0302
53.7773
46.4651
39.1709
34.1353
31.23
29.4764
28.6544
28.1851
29.2708
31.7296
34.8497
38.8224
42.5744
44.6916
46.0075
47.8408
50.5291
52.8092
54.1498
54.9953
56.8885
59.6881
62.0514
62.7481
63.4844
63.6902
64.4141
63.5712
62.8934
60.8992
58.2096
55.5587
50.6469
45.987
39.0166
31.2111
55.792
54.7209
52.5975
51.0305
50.2049
49.7539
49.6376
50.0188
50.6162
51.2639
51.6432
51.9085
51.9538
51.8549
51.7114
51.5848
51.4361
51.2078
50.9182
50.7007
50.6144
50.4343
50.3221
50.1815
50.1581
50.141
50.0419
50.0429
50.0363
50.1064
50.1169
50.1359
50.1753
50.217
50.2729
50.24
50.2296
50.2575
50.2026
50.1879
50.1207
50.0541
50.0933
50.0433
50.0759
50.1367
50.1747
50.2939
50.4137
50.5597
50.6974
50.8502
50.9749
51.0917
51.2208
51.2615
51.2931
51.257
51.1417
50.9421
50.6907
50.2896
49.7817
49.2412
48.5612
47.8634
47.2095
46.4769
45.8866
45.3838
44.9745
44.72
44.6506
44.6992
44.851
45.1596
45.4424
45.8224
46.1492
46.5163
46.8555
47.179
47.5049
47.7829
48.0202
48.2207
48.3716
48.4566
48.537
48.5075
48.4981
48.3753
48.2423
48.0327
47.7958
47.5393
47.2082
46.9233
46.4654
46.1443
45.6761
45.1988
44.7839
44.1943
43.7644
43.141
42.6051
42.1145
41.4588
41.0991
40.4952
40.136
39.7788
39.313
39.1302
38.7275
38.5422
38.3077
38.0528
37.9922
37.7726
37.7178
37.6451
37.5644
37.5641
37.4314
37.5367
37.5081
37.6311
37.8393
38.0149
38.4058
38.8543
39.3105
40.0174
40.7783
41.6497
42.7774
43.7312
45.0999
46.3098
47.7686
49.3191
50.5877
52.1908
53.6342
54.8635
56.3728
57.5959
58.7751
60.0307
61.2261
62.524
63.6072
65.2716
67.141
68.9673
70.2139
70.8371
71.9346
71.4017
69.267
65.9767
60.4816
52.9772
45.281
37.8517
32.7741
29.5053
28.1471
28.39
28.8921
30.1169
32.1287
34.8959
38.686
42.5878
44.8499
46.7865
48.8516
51.1889
53.0567
54.3222
55.466
57.561
60.2246
62.3865
62.9975
63.74
64.147
64.9776
64.7067
63.7162
62.4264
59.6235
57.8637
53.9382
49.7498
43.8295
36.9371
56.0866
55.0509
52.8011
51.1098
50.212
49.8186
49.6855
50.0659
50.5563
51.1875
51.577
51.8432
51.9298
51.7923
51.6825
51.5054
51.4072
51.1789
50.9154
50.7376
50.6108
50.4971
50.3544
50.2568
50.2358
50.2027
50.1334
50.088
50.1136
50.1508
50.1426
50.1608
50.1665
50.2273
50.2497
50.2057
50.2089
50.2245
50.2002
50.1807
50.1107
50.0661
50.094
50.0593
50.0812
50.1263
50.1428
50.2372
50.332
50.4442
50.5494
50.6594
50.7589
50.8424
50.9446
50.973
50.9738
50.9435
50.8224
50.6534
50.433
50.0871
49.6706
49.2145
48.6523
48.0667
47.5156
46.8888
46.3746
45.9344
45.5528
45.3182
45.2072
45.2041
45.2832
45.4926
45.717
46.0007
46.275
46.5711
46.8451
47.1279
47.3953
47.6386
47.875
48.0292
48.1977
48.2762
48.3493
48.3617
48.3455
48.2727
48.1546
47.9771
47.7735
47.5492
47.2501
46.9891
46.5819
46.2619
45.8821
45.3991
45.0521
44.5087
44.0712
43.5639
42.9953
42.6059
41.9731
41.6113
41.1454
40.6958
40.4701
40.0189
39.8039
39.5535
39.2806
39.1385
38.897
38.8211
38.6584
38.5736
38.5416
38.4135
38.4557
38.2727
38.3917
38.3281
38.3775
38.6268
38.6479
39.1086
39.4111
39.8261
40.5348
41.1041
42.0378
43.0196
43.9248
45.2492
46.4205
47.7582
49.2338
50.5099
52.0123
53.482
54.7959
56.157
57.307
58.4607
59.4378
60.4441
61.6038
62.4053
63.853
65.7234
67.5387
68.8147
69.4754
69.9532
69.9293
68.7158
66.2571
60.8006
53.3478
45.4445
37.6161
32.3278
28.1247
26.7959
28.1268
29.3748
30.969
32.6571
35.4378
39.0349
42.8566
45.2901
47.4548
49.763
51.9248
53.5902
54.7495
56.136
58.3688
60.9313
62.8517
63.4139
64.2534
64.9323
65.8795
66.1297
65.084
64.3231
61.6472
60.2493
57.0175
53.0064
47.9083
41.9648
56.1914
55.2431
52.9144
51.1667
50.2026
49.9014
49.7922
50.1984
50.5977
51.1568
51.5665
51.7624
51.9112
51.6954
51.6486
51.4324
51.3404
51.1736
50.8836
50.7974
50.5981
50.5532
50.3982
50.3044
50.3246
50.2391
50.2255
50.1264
50.174
50.1984
50.1523
50.1926
50.1533
50.2387
50.2432
50.1698
50.2046
50.1913
50.1991
50.1751
50.0929
50.0793
50.0781
50.0578
50.0719
50.0844
50.0979
50.1596
50.2365
50.3301
50.4047
50.4925
50.5562
50.614
50.7005
50.7063
50.6952
50.6649
50.5476
50.4135
50.2238
49.9244
49.5963
49.2077
48.7333
48.2596
47.775
47.2476
46.8026
46.4112
46.0639
45.8428
45.7028
45.6593
45.6816
45.806
45.9739
46.1738
46.3893
46.6225
46.8392
47.0758
47.3034
47.5061
47.7329
47.8649
48.0311
48.1223
48.1896
48.2343
48.2243
48.1814
48.0953
47.9468
47.7757
47.5802
47.3192
47.08
46.7277
46.4254
46.0852
45.6395
45.2992
44.8217
44.3888
43.9229
43.4237
43.0097
42.4934
42.1161
41.7003
41.3242
41.0417
40.7428
40.4624
40.2905
40.0684
39.8726
39.7734
39.5967
39.5342
39.4416
39.3526
39.3285
39.2235
39.1631
39.1382
39.0858
39.1454
39.1869
39.341
39.6114
39.8957
40.3101
40.8424
41.4499
42.2275
43.1313
44.0752
45.2071
46.4365
47.681
48.9681
50.536
51.7846
53.1216
54.7747
55.782
56.7937
58.1172
58.9939
59.7078
60.4957
61.1988
62.5606
64.3123
66.0473
67.2118
67.7838
68.4926
68.8221
68.3946
66.2165
61.5146
54.3107
46.5247
39.2281
33.4626
27.7893
26.432
28.0923
29.4464
30.9268
32.4608
35.3754
39.557
43.7675
46.2879
48.3351
50.6864
52.5869
54.1151
55.2051
56.8409
59.1247
61.6634
63.3282
63.9784
64.9738
65.94
67.2392
67.8001
66.993
66.3705
63.7866
62.3383
59.5709
55.8029
51.3002
46.1595
56.0566
55.2643
52.942
51.2166
50.2296
50.0054
49.9725
50.3858
50.7332
51.168
51.5798
51.6923
51.8548
51.6251
51.5819
51.3932
51.2626
51.1763
50.8788
50.8454
50.6271
50.5834
50.4659
50.341
50.395
50.2771
50.2797
50.1829
50.1996
50.2495
50.1618
50.216
50.1623
50.2322
50.2489
50.1418
50.1997
50.1687
50.1851
50.1728
50.0751
50.0836
50.0581
50.0466
50.0546
50.037
50.0559
50.0767
50.139
50.2024
50.2482
50.3166
50.3493
50.3967
50.4626
50.4622
50.4484
50.4266
50.3177
50.2147
50.0596
49.7937
49.5491
49.2099
48.8196
48.4375
48.015
47.5737
47.1901
46.8433
46.5214
46.3141
46.1518
46.0693
46.0535
46.1015
46.2076
46.3408
46.4914
46.6677
46.8342
47.0241
47.2184
47.386
47.5973
47.7247
47.8747
47.9852
48.0539
48.1147
48.1284
48.1084
48.0494
47.9475
47.7961
47.6467
47.4151
47.207
46.9006
46.6064
46.3012
45.8783
45.5635
45.1126
44.7187
44.2725
43.8202
43.4316
42.95
42.6276
42.2018
41.9173
41.6243
41.3506
41.1632
40.9305
40.8278
40.6122
40.5312
40.432
40.2934
40.291
40.1339
40.1329
40.0094
39.8963
39.8922
39.7098
39.8071
39.7171
39.8638
40.067
40.2189
40.7453
41.0552
41.6592
42.3651
43.0462
44.1495
45.1983
46.3371
47.5961
48.7532
50.2934
51.6872
52.8589
54.3071
55.5674
56.4686
57.4511
58.5842
59.4924
59.901
60.3982
61.7617
63.4344
64.978
66.1228
66.3623
66.6411
66.9598
66.6792
65.1733
61.2991
55.4814
48.159
41.672
35.4056
29.8585
28.3006
28.9352
29.8162
31.2485
32.2942
35.1608
40.3032
44.9607
47.1907
49.1106
51.6221
53.1067
54.5246
55.8103
57.7255
60.0534
62.4494
63.7855
64.7263
65.8445
67.2962
69.0219
69.6047
69.1984
68.3755
65.8901
64.2353
61.6849
58.2136
54.2177
49.68
55.6621
55.0392
52.8958
51.2671
50.3388
50.1548
50.2426
50.6166
50.9395
51.2482
51.5773
51.6574
51.7451
51.5788
51.4818
51.3315
51.1911
51.1204
50.8965
50.8379
50.6752
50.601
50.5226
50.4012
50.4303
50.3348
50.3134
50.2417
50.2295
50.2705
50.1888
50.2211
50.1811
50.2262
50.2389
50.1496
50.1864
50.1611
50.1751
50.1546
50.0737
50.0731
50.0391
50.0262
50.0176
49.9884
49.9887
49.993
50.0245
50.0676
50.0984
50.147
50.1642
50.1957
50.2468
50.2434
50.2343
50.2108
50.1248
50.0436
49.9147
49.705
49.505
49.2313
48.9145
48.6022
48.245
47.8756
47.549
47.2292
46.9454
46.7318
46.5578
46.4458
46.3822
46.3776
46.4179
46.4962
46.5835
46.7083
46.8351
46.9706
47.1474
47.2759
47.4673
47.5968
47.723
47.8621
47.9218
48.0202
48.0453
48.0563
48.0347
47.9591
47.8599
47.7197
47.5514
47.3443
47.0887
46.8155
46.5146
46.1562
45.8209
45.4186
45.0326
44.6147
44.1891
43.8144
43.3872
43.0598
42.6998
42.4205
42.1661
41.9156
41.7667
41.5641
41.4596
41.3274
41.206
41.1616
41.0286
40.9974
40.8819
40.7936
40.7158
40.5385
40.4737
40.2977
40.2563
40.21
40.223
40.373
40.5407
40.92
41.2651
41.7699
42.4096
43.0692
44.1158
45.2019
46.248
47.4988
48.6643
49.9627
51.4174
52.8152
53.8562
54.9972
56.3883
57.3632
58.2652
59.1969
59.6724
60.3322
61.6808
63.2274
64.5387
65.5117
65.4542
64.7012
65.2992
64.7457
63.8769
61.5365
57.4108
50.8809
44.3684
38.3162
33.289
31.3755
30.776
30.8879
31.8868
33.9362
37.2003
41.2963
45.571
48.1796
49.9151
52.264
53.5948
54.944
56.4735
58.7471
61.1693
63.1176
64.3435
65.6556
66.9272
69.1042
70.9714
71.6427
71.4362
70.2614
68.0441
66.1261
63.4852
60.3836
56.846
52.6234
54.9698
54.4671
52.7181
51.3487
50.6321
50.4763
50.6803
50.9162
51.1675
51.3705
51.5369
51.6162
51.5893
51.5132
51.3965
51.2968
51.1785
51.0651
50.9506
50.8371
50.7293
50.6425
50.5482
50.4846
50.4398
50.3928
50.3437
50.282
50.2779
50.2592
50.2303
50.2121
50.1961
50.2244
50.203
50.1707
50.1655
50.1588
50.1685
50.1324
50.0874
50.0641
50.027
50.0067
49.9759
49.9381
49.9213
49.9063
49.9145
49.9317
49.9405
49.9584
49.9778
50.0149
50.0399
50.0414
50.0433
50.0142
49.965
49.898
49.7974
49.6414
49.4785
49.2657
49.0094
48.7571
48.4506
48.1567
47.8642
47.5799
47.3293
47.1035
46.9234
46.7778
46.681
46.6304
46.6091
46.6352
46.6703
46.7401
46.8332
46.927
47.0689
47.1825
47.3416
47.4768
47.5959
47.7422
47.8256
47.9344
47.9903
48.022
48.0386
47.9888
47.9293
47.8191
47.6741
47.5053
47.2649
47.0278
46.7284
46.404
46.082
45.6743
45.3262
44.9048
44.5154
44.1519
43.7481
43.4483
43.1142
42.8594
42.6332
42.4144
42.2786
42.1043
42.0067
41.8964
41.7902
41.7472
41.6313
41.582
41.4529
41.3558
41.2259
41.0339
40.9113
40.6894
40.6075
40.5179
40.4893
40.6126
40.7674
41.0851
41.4231
41.8721
42.4653
43.1431
44.1379
45.1475
46.1536
47.4601
48.6345
49.6993
51.1839
52.6323
53.7221
54.8979
56.0049
57.1143
58.2692
59.2037
59.8109
60.6212
61.9879
63.2807
64.5341
65.1573
65.0083
64.1504
64.274
63.9039
63.3362
62.5529
59.3639
54.4625
48.4377
42.3795
37.3607
34.9061
33.45
33.1238
33.7604
35.7879
39.8333
43.4316
46.4424
48.8541
50.747
52.835
54.0166
55.4405
57.3653
59.8897
62.2153
63.7455
65.1072
66.634
68.2769
71.2198
73.1223
74.0179
73.5717
72.2084
70.2057
67.8552
65.1164
62.3905
59.0034
54.8923
54.0745
53.6707
52.5096
51.5435
51.0653
50.9307
51.0988
51.2274
51.3633
51.4757
51.5034
51.5678
51.4901
51.4473
51.3398
51.2263
51.168
51.0283
50.9757
50.8437
50.7567
50.6785
50.5693
50.5407
50.4499
50.4228
50.364
50.3111
50.3075
50.2562
50.258
50.2205
50.2195
50.2273
50.1918
50.1919
50.1642
50.1628
50.1576
50.1149
50.0892
50.0481
50.0099
49.9794
49.9306
49.8926
49.8558
49.8285
49.8167
49.8074
49.8137
49.8155
49.833
49.8613
49.8696
49.8861
49.8888
49.8689
49.8451
49.7899
49.7122
49.6009
49.4703
49.2991
49.1016
48.8872
48.636
48.3926
48.131
47.8751
47.6392
47.4088
47.2165
47.0547
46.9204
46.8322
46.766
46.742
46.74
46.7646
46.8265
46.8894
47.0016
47.1071
47.2396
47.3772
47.4988
47.6483
47.7511
47.8673
47.9478
48.0007
48.0387
48.0195
47.9872
47.9021
47.7806
47.6279
47.4211
47.1854
46.9072
46.5929
46.2726
45.8879
45.5293
45.1437
44.7651
44.4166
44.0465
43.7512
43.4517
43.2109
43.0045
42.8042
42.6763
42.525
42.4205
42.3299
42.2236
42.1744
42.0689
41.9867
41.8672
41.7344
41.5847
41.3782
41.1963
40.9613
40.8271
40.7259
40.7003
40.8046
40.9624
41.2307
41.5317
41.9466
42.5451
43.2858
44.2314
45.1275
46.1047
47.3246
48.5393
49.8134
51.2271
52.3591
53.4571
54.8154
56.03
57.1529
58.2909
59.216
60.0274
61.0206
62.4359
63.4504
64.5166
65.2032
65.0004
64.247
63.9729
64.0114
63.3049
63.2529
60.9981
57.578
52.5974
47.2136
42.69
39.5771
36.965
35.3607
36.1671
38.4872
41.7316
44.9349
47.7203
49.6134
51.1554
53.3742
54.8943
56.0991
58.5191
61.0088
63.0743
64.4258
66.0713
67.797
70.0121
73.5756
75.6246
76.5239
75.759
74.3442
72.2656
69.4879
66.7509
64.1249
60.5689
56.5359
53.148
52.9273
52.3835
51.8759
51.6151
51.4794
51.4985
51.5041
51.5123
51.5307
51.4809
51.5016
51.4155
51.3772
51.2946
51.1984
51.1498
51.0179
50.9722
50.852
50.7729
50.7044
50.605
50.5772
50.4854
50.45
50.3924
50.34
50.3197
50.2633
50.2603
50.2258
50.2198
50.2141
50.1857
50.1948
50.169
50.1634
50.1488
50.11
50.0865
50.0384
49.9947
49.9511
49.8952
49.8518
49.8046
49.7705
49.7436
49.7224
49.7188
49.7186
49.7288
49.7459
49.7539
49.7717
49.7788
49.77
49.7603
49.7194
49.6619
49.5828
49.4732
49.3358
49.173
48.9897
48.7749
48.5592
48.3244
48.0855
47.8584
47.6288
47.4326
47.2516
47.0936
46.9767
46.8775
46.8203
46.7874
46.7837
46.8175
46.8641
46.9555
47.051
47.1704
47.3066
47.4321
47.5801
47.6977
47.8185
47.9147