/*--------------------------------*- C++ -*----------------------------------*\
| =========                 |                                                 |
| \\      /  F ield         | OpenFOAM: The Open Source CFD Toolbox           |
|  \\    /   O peration     | Version:  2.4.0                                 |
|   \\  /    A nd           | Web:      www.OpenFOAM.org                      |
|    \\/     M anipulation  |                                                 |
\*---------------------------------------------------------------------------*/
FoamFile
{
    version     2.0;
    format      ascii;
    class       surfaceScalarField;
    location    "0.94";
    object      phi_0;
}
// * * * * * * * * * * * * * * * * * * * * * * * * * * * * * * * * * * * * * //

dimensions      [0 3 -1 0 0 0 0];

internalField   nonuniform List<scalar> 
17320
(
1.76372e-05
7.3628e-06
1.16163e-05
6.02094e-06
8.67974e-06
2.93651e-06
7.35617e-06
1.32357e-06
6.72062e-06
6.35557e-07
6.33696e-06
3.83652e-07
6.0907e-06
2.46263e-07
5.85187e-06
2.3883e-07
5.73454e-06
1.17331e-07
5.56249e-06
1.72048e-07
5.48353e-06
7.89585e-08
5.4162e-06
6.73306e-08
5.26355e-06
1.52655e-07
5.28153e-06
-1.79785e-08
5.11144e-06
1.70085e-07
5.07162e-06
3.98194e-08
5.03061e-06
4.10075e-08
4.75773e-06
2.72888e-07
4.75889e-06
-1.16698e-09
-3.18362e-07
5.07725e-06
2.54573e-05
6.90546e-06
2.32468e-05
8.23152e-06
2.09854e-05
5.1979e-06
1.9319e-05
2.9899e-06
1.80773e-05
1.87729e-06
1.71097e-05
1.35129e-06
1.6375e-05
9.80978e-07
1.57611e-05
8.5272e-07
1.53324e-05
5.4596e-07
1.4916e-05
5.88531e-07
1.46498e-05
3.45129e-07
1.43869e-05
3.30177e-07
1.41245e-05
4.15056e-07
1.39888e-05
1.1776e-07
1.37141e-05
4.44798e-07
1.3578e-05
1.75938e-07
1.33805e-05
2.3851e-07
1.30221e-05
6.31264e-07
1.31306e-05
-1.09644e-07
-1.93909e-07
1.30061e-05
2.66132e-05
5.29227e-06
2.71603e-05
7.68438e-06
2.67826e-05
5.57568e-06
2.62497e-05
3.52271e-06
2.56028e-05
2.52426e-06
2.4876e-05
2.07808e-06
2.41585e-05
1.69847e-06
2.35026e-05
1.50861e-06
2.29477e-05
1.10088e-06
2.24316e-05
1.10459e-06
2.20628e-05
7.13885e-07
2.16647e-05
7.28363e-07
2.13728e-05
7.06898e-07
2.10878e-05
4.02774e-07
2.08141e-05
7.18535e-07
2.05672e-05
4.22807e-07
2.03377e-05
4.68044e-07
1.98865e-05
1.08247e-06
1.99794e-05
-2.02628e-07
3.14419e-07
1.94711e-05
2.63129e-05
3.97941e-06
2.75348e-05
6.46241e-06
2.80954e-05
5.01506e-06
2.84458e-05
3.17231e-06
2.8639e-05
2.33114e-06
2.86419e-05
2.07514e-06
2.84517e-05
1.88865e-06
2.82493e-05
1.7111e-06
2.79739e-05
1.37619e-06
2.76661e-05
1.41249e-06
2.74898e-05
8.90147e-07
2.70984e-05
1.11976e-06
2.70128e-05
7.92536e-07
2.65992e-05
8.16286e-07
2.65157e-05
8.02044e-07
2.62059e-05
7.3259e-07
2.59621e-05
7.11901e-07
2.56663e-05
1.37826e-06
2.54668e-05
-3.14116e-09
1.22785e-06
2.45534e-05
2.605e-05
2.92936e-06
2.71936e-05
5.31881e-06
2.80673e-05
4.14142e-06
2.85102e-05
2.72935e-06
2.89266e-05
1.91481e-06
2.939e-05
1.61166e-06
2.95233e-05
1.75544e-06
2.9754e-05
1.48039e-06
2.98809e-05
1.24922e-06
2.98296e-05
1.46388e-06
3.01108e-05
6.08894e-07
2.97502e-05
1.48039e-06
3.01982e-05
3.44498e-07
2.97292e-05
1.28535e-06
2.9929e-05
6.02244e-07
2.99451e-05
7.16431e-07
2.94751e-05
1.18195e-06
2.98661e-05
9.87254e-07
2.98805e-05
-1.75568e-08
1.39952e-06
2.97088e-05
2.5939e-05
1.99036e-06
2.69184e-05
4.33941e-06
2.77789e-05
3.28089e-06
2.8306e-05
2.20233e-06
2.85584e-05
1.66237e-06
2.91408e-05
1.02922e-06
2.9411e-05
1.48524e-06
2.96525e-05
1.23897e-06
3.00725e-05
8.29158e-07
3.00273e-05
1.50909e-06
3.06178e-05
1.8377e-08
3.02644e-05
1.83385e-06
3.10042e-05
-3.95371e-07
3.06961e-05
1.59351e-06
3.09654e-05
3.32953e-07
3.13392e-05
3.42638e-07
3.09648e-05
1.5563e-06
3.14661e-05
4.86001e-07
3.19894e-05
-5.40856e-07
1.69664e-06
3.16923e-05
2.56877e-05
1.3027e-06
2.65675e-05
3.45959e-06
2.75618e-05
2.28661e-06
2.80331e-05
1.73101e-06
2.84129e-05
1.28252e-06
2.88552e-05
5.86922e-07
2.91435e-05
1.19691e-06
2.95008e-05
8.81713e-07
2.96937e-05
6.36299e-07
3.00645e-05
1.13826e-06
3.02976e-05
-2.14788e-07
3.02814e-05
1.85008e-06
3.08577e-05
-9.71642e-07
3.06949e-05
1.75631e-06
3.10757e-05
-4.78423e-08
3.12861e-05
1.32246e-07
3.12848e-05
1.55761e-06
3.17074e-05
6.33592e-08
3.19191e-05
-7.52585e-07
1.48747e-06
3.21283e-05
2.54912e-05
8.11522e-07
2.65959e-05
2.35488e-06
2.74599e-05
1.42263e-06
2.7956e-05
1.23488e-06
2.84622e-05
7.76335e-07
2.86872e-05
3.61925e-07
2.89356e-05
9.48537e-07
2.94103e-05
4.07002e-07
2.94668e-05
5.79791e-07
2.99969e-05
6.0817e-07
2.98734e-05
-9.13431e-08
3.0432e-05
1.29147e-06
3.01763e-05
-7.15904e-07
3.0735e-05
1.19757e-06
3.07276e-05
-4.04017e-08
3.08155e-05
4.43322e-08
3.1471e-05
9.02104e-07
3.13814e-05
1.52936e-07
3.12285e-05
-5.99665e-07
5.78682e-07
3.21373e-05
2.55314e-05
2.80131e-07
2.66235e-05
1.26279e-06
2.72186e-05
8.27517e-07
2.80253e-05
4.2816e-07
2.8223e-05
5.78619e-07
2.85328e-05
5.21499e-08
2.90025e-05
4.788e-07
2.90116e-05
3.97949e-07
2.96282e-05
-3.68048e-08
2.96401e-05
5.96264e-07
2.99229e-05
-3.74177e-07
3.03704e-05
8.43997e-07
2.98795e-05
-2.24974e-07
3.07873e-05
2.8979e-07
3.05573e-05
1.89516e-07
3.09409e-05
-3.39267e-07
3.11954e-05
6.47653e-07
3.12104e-05
1.37974e-07
3.13953e-05
-7.84605e-07
-2.39094e-07
3.22131e-05
2.54331e-05
-1.52958e-07
2.63503e-05
3.4559e-07
2.73447e-05
-1.66864e-07
2.77956e-05
-2.27395e-08
2.82288e-05
1.45413e-07
2.85363e-05
-2.55362e-07
2.87744e-05
2.40678e-07
2.92472e-05
-7.48602e-08
2.93738e-05
-1.63379e-07
2.96888e-05
2.81285e-07
2.99927e-05
-6.78157e-07
3.00119e-05
8.2484e-07
3.03641e-05
-5.77178e-07
3.05066e-05
1.47299e-07
3.05921e-05
1.03978e-07
3.0948e-05
-6.95088e-07
3.10851e-05
5.10498e-07
3.14524e-05
-2.29327e-07
3.14204e-05
-7.52571e-07
-4.06468e-07
3.15878e-05
2.53449e-05
-4.97828e-07
2.65133e-05
-8.22798e-07
2.7286e-05
-9.3958e-07
2.78769e-05
-6.13683e-07
2.82585e-05
-2.36218e-07
2.8477e-05
-4.73822e-07
2.88324e-05
-1.1471e-07
2.91968e-05
-4.3925e-07
2.94219e-05
-3.88468e-07
2.97189e-05
-1.57366e-08
2.97823e-05
-7.41521e-07
3.02039e-05
4.03191e-07
3.02332e-05
-6.06483e-07
3.04365e-05
-5.59577e-08
3.07439e-05
-2.03474e-07
3.06524e-05
-6.0358e-07
3.116e-05
2.89906e-09
3.14437e-05
-5.13049e-07
3.12574e-05
-5.66229e-07
-7.39506e-07
3.15904e-05
2.54949e-05
-9.92679e-07
2.65133e-05
-1.84127e-06
2.73098e-05
-1.73602e-06
2.79374e-05
-1.24134e-06
2.82427e-05
-5.41524e-07
2.85537e-05
-7.8485e-07
2.89029e-05
-4.63861e-07
2.92237e-05
-7.60099e-07
2.94725e-05
-6.37213e-07
2.97488e-05
-2.92047e-07
2.98673e-05
-8.59995e-07
3.02523e-05
1.81947e-08
3.01921e-05
-5.46321e-07
3.065e-05
-5.1385e-07
3.06279e-05
-1.81408e-07
3.08645e-05
-8.40181e-07
3.12321e-05
-3.64665e-07
3.13243e-05
-6.05237e-07
3.15212e-05
-7.63183e-07
-1.04477e-06
3.18265e-05
2.55237e-05
-1.51637e-06
2.65775e-05
-2.8951e-06
2.74698e-05
-2.62824e-06
2.79967e-05
-1.76831e-06
2.83349e-05
-8.79746e-07
2.86833e-05
-1.13316e-06
2.89726e-05
-7.53203e-07
2.93537e-05
-1.14123e-06
2.95997e-05
-8.83192e-07
2.98376e-05
-5.29938e-07
3.00365e-05
-1.05888e-06
3.02689e-05
-2.14179e-07
3.03978e-05
-6.75265e-07
3.06942e-05
-8.10226e-07
3.07607e-05
-2.47887e-07
3.0993e-05
-1.07255e-06
3.12509e-05
-6.2251e-07
3.15207e-05
-8.75066e-07
3.16705e-05
-9.12967e-07
-1.23531e-06
3.1861e-05
2.56594e-05
-2.17575e-06
2.67731e-05
-4.00879e-06
2.75994e-05
-3.45461e-06
2.80377e-05
-2.20655e-06
2.8506e-05
-1.34805e-06
2.88488e-05
-1.47596e-06
2.91964e-05
-1.10085e-06
2.95296e-05
-1.47436e-06
2.97298e-05
-1.08345e-06
3.00181e-05
-8.18216e-07
3.01544e-05
-1.19516e-06
3.04709e-05
-5.30748e-07
3.05671e-05
-7.71393e-07
3.07856e-05
-1.02876e-06
3.09835e-05
-4.45821e-07
3.11241e-05
-1.21309e-06
3.13616e-05
-8.60019e-07
3.1643e-05
-1.15649e-06
3.17947e-05
-1.0646e-06
-1.48877e-06
3.20481e-05
2.58337e-05
-3.00945e-06
2.69571e-05
-5.13215e-06
2.78033e-05
-4.30085e-06
2.82409e-05
-2.64411e-06
2.87423e-05
-1.84952e-06
2.90986e-05
-1.83217e-06
2.94652e-05
-1.46745e-06
2.97344e-05
-1.74359e-06
2.99531e-05
-1.30213e-06
3.01911e-05
-1.05619e-06
3.03436e-05
-1.3477e-06
3.05694e-05
-7.56563e-07
3.06897e-05
-8.9169e-07
3.08376e-05
-1.17664e-06
3.09843e-05
-5.92504e-07
3.10626e-05
-1.29148e-06
3.1163e-05
-9.60343e-07
3.13571e-05
-1.35065e-06
3.1543e-05
-1.25047e-06
-1.60637e-06
3.16606e-05
2.60198e-05
-4.02924e-06
2.72462e-05
-6.35856e-06
2.80292e-05
-5.0839e-06
2.85214e-05
-3.13625e-06
2.90051e-05
-2.33323e-06
2.93154e-05
-2.14248e-06
2.96211e-05
-1.77312e-06
2.97143e-05
-1.83686e-06
2.98336e-05
-1.42137e-06
2.99283e-05
-1.15095e-06
2.99055e-05
-1.32487e-06
2.99773e-05
-8.28372e-07
2.99544e-05
-8.68785e-07
2.98695e-05
-1.0917e-06
2.98861e-05
-6.0912e-07
2.97348e-05
-1.14025e-06
2.96427e-05
-8.68219e-07
2.95747e-05
-1.28259e-06
2.94956e-05
-1.1714e-06
-1.49667e-06
2.93859e-05
2.62936e-05
-5.32283e-06
2.75562e-05
-7.62116e-06
2.80751e-05
-5.60277e-06
2.8468e-05
-3.52916e-06
2.86511e-05
-2.51641e-06
2.86129e-05
-2.1042e-06
2.85037e-05
-1.6639e-06
2.82024e-05
-1.53557e-06
2.79651e-05
-1.1841e-06
2.77171e-05
-9.02967e-07
2.73722e-05
-9.79937e-07
2.71788e-05
-6.34962e-07
2.69092e-05
-5.99262e-07
2.65954e-05
-7.77869e-07
2.64287e-05
-4.42388e-07
2.60727e-05
-7.84279e-07
2.5826e-05
-6.21474e-07
2.54946e-05
-9.51249e-07
2.52124e-05
-8.89201e-07
-1.27035e-06
2.49861e-05
2.65975e-05
-6.92036e-06
2.71736e-05
-8.19726e-06
2.6777e-05
-5.20613e-06
2.62551e-05
-3.00726e-06
2.56058e-05
-1.86717e-06
2.48651e-05
-1.36343e-06
2.41769e-05
-9.75753e-07
2.34801e-05
-8.38764e-07
2.29291e-05
-6.33034e-07
2.24653e-05
-4.39164e-07
2.19852e-05
-4.99918e-07
2.16747e-05
-3.24469e-07
2.13458e-05
-2.70278e-07
2.09913e-05
-4.2338e-07
2.07735e-05
-2.24601e-07
2.04047e-05
-4.15527e-07
2.0131e-05
-3.47779e-07
1.97046e-05
-5.2483e-07
1.93062e-05
-4.90799e-07
-4.38319e-07
1.84742e-05
2.54477e-05
-7.36805e-06
2.32597e-05
-6.00931e-06
2.099e-05
-2.93641e-06
1.93176e-05
-1.33484e-06
1.80789e-05
-6.28466e-07
1.71043e-05
-3.88796e-07
1.63767e-05
-2.48228e-07
1.57594e-05
-2.21452e-07
1.52981e-05
-1.71711e-07
1.49518e-05
-9.28738e-08
1.45953e-05
-1.43366e-07
1.43602e-05
-8.94216e-08
1.41411e-05
-5.12042e-08
1.38638e-05
-1.46011e-07
1.36973e-05
-5.81142e-08
1.34148e-05
-1.33083e-07
1.31811e-05
-1.14023e-07
1.28341e-05
-1.77828e-07
1.25503e-05
-2.07038e-07
-5.914e-08
1.21711e-05
1.76319e-05
1.16226e-05
8.68622e-06
7.35138e-06
6.72292e-06
6.33412e-06
6.08589e-06
5.86444e-06
5.69273e-06
5.59985e-06
5.45649e-06
5.36707e-06
5.31586e-06
5.16985e-06
5.11174e-06
4.97865e-06
4.86463e-06
4.6868e-06
4.47977e-06
4.42062e-06
5.49742e-06
-6.62987e-08
-3.53863e-07
5.84122e-06
9.10197e-08
-4.34828e-07
6.16488e-06
-1.15181e-08
-3.12134e-07
6.45859e-06
-1.82385e-07
-1.1133e-07
6.76378e-06
-3.97266e-07
9.20807e-08
7.04324e-06
-4.89033e-07
2.09571e-07
7.28538e-06
-5.34895e-07
2.92756e-07
7.47566e-06
-4.80429e-07
2.90148e-07
7.62196e-06
-4.22438e-07
2.7614e-07
7.72364e-06
-3.17053e-07
2.15369e-07
7.8016e-06
-2.31467e-07
1.5351e-07
7.84143e-06
-1.01741e-07
6.19065e-08
7.87906e-06
-2.64576e-08
-1.11682e-08
7.89228e-06
1.05737e-07
-1.18962e-07
7.94347e-06
1.63918e-07
-2.15105e-07
7.99732e-06
2.96307e-07
-3.50158e-07
8.11466e-06
3.21114e-07
-4.38453e-07
8.24399e-06
4.16247e-07
-5.45581e-07
8.41901e-06
3.81791e-07
-5.56805e-07
8.5988e-06
4.24349e-07
-6.04147e-07
8.80716e-06
3.39097e-07
-5.47447e-07
9.01484e-06
3.26627e-07
-5.34311e-07
9.23773e-06
1.99157e-07
-4.22053e-07
9.43899e-06
1.54233e-07
-3.55487e-07
9.62187e-06
7.55195e-11
-1.82961e-07
9.7529e-06
-5.4106e-08
-7.69166e-08
9.86672e-06
-2.26854e-07
1.13032e-07
9.92609e-06
-2.51202e-07
1.91826e-07
9.97338e-06
-3.96244e-07
3.48957e-07
9.96233e-06
-3.61797e-07
3.72847e-07
9.96241e-06
-4.72386e-07
4.7231e-07
9.93275e-06
-3.77276e-07
4.06929e-07
9.92619e-06
-4.23941e-07
4.30502e-07
9.92968e-06
-2.58704e-07
2.55217e-07
9.96435e-06
-2.40517e-07
2.05849e-07
1.00106e-05
-2.95317e-08
-1.67236e-08
1.00952e-05
-1.34008e-08
-7.12084e-08
1.01759e-05
1.80311e-07
-2.61035e-07
1.02877e-05
1.40372e-07
-2.5216e-07
1.03888e-05
2.83438e-07
-3.84483e-07
1.05111e-05
1.59439e-07
-2.81764e-07
1.06038e-05
2.43242e-07
-3.35974e-07
1.07137e-05
3.17365e-08
-1.41644e-07
1.07984e-05
7.47121e-08
-1.59418e-07
1.0902e-05
-1.84856e-07
8.13315e-08
1.0978e-05
-1.36898e-07
6.08654e-08
1.10839e-05
-4.19104e-07
3.1323e-07
1.11437e-05
-3.49072e-07
2.89231e-07
1.12308e-05
-6.28024e-07
5.40906e-07
1.12658e-05
-5.33385e-07
4.98432e-07
1.13102e-05
-7.81416e-07
7.36975e-07
1.1286e-05
-6.59859e-07
6.84095e-07
1.12231e-05
-8.9829e-07
9.61207e-07
1.10745e-05
-7.007e-07
8.49288e-07
1.08367e-05
-8.81986e-07
1.1198e-06
1.05653e-05
-5.31748e-07
8.03112e-07
1.01905e-05
-5.77893e-07
9.52741e-07
9.91604e-06
-3.14116e-08
3.05821e-07
9.53745e-06
1.47742e-07
2.30853e-07
9.35984e-06
8.80867e-07
-7.03254e-07
9.25925e-06
1.25087e-06
-1.15028e-06
9.60726e-06
1.98008e-06
-2.32809e-06
1.04225e-05
2.17728e-06
-2.9925e-06
1.11485e-05
2.79579e-06
-3.52179e-06
1.22186e-05
2.47839e-06
-3.54851e-06
1.30164e-05
2.9335e-06
-3.73127e-06
1.38785e-05
2.34343e-06
-3.20555e-06
1.44792e-05
2.39089e-06
-2.99162e-06
1.48886e-05
1.51698e-06
-1.92632e-06
1.50438e-05
1.21189e-06
-1.36709e-06
1.49596e-05
2.6821e-07
-1.8406e-07
1.46426e-05
-8.80738e-08
4.0512e-07
1.41087e-05
-8.27986e-07
1.36185e-06
1.36046e-05
-9.82236e-07
1.48637e-06
1.30188e-05
-1.42307e-06
2.00889e-06
1.26557e-05
-1.32776e-06
1.69078e-06
1.22641e-05
-1.61616e-06
2.00778e-06
1.21284e-05
-1.3943e-06
1.52998e-06
1.19374e-05
-1.64163e-06
1.83266e-06
1.19245e-05
-1.3247e-06
1.33761e-06
1.18247e-05
-1.53633e-06
1.63617e-06
1.18751e-05
-1.17408e-06
1.12365e-06
1.18537e-05
-1.32667e-06
1.34805e-06
1.19664e-05
-9.48671e-07
8.36002e-07
1.19907e-05
-1.04861e-06
1.02424e-06
1.21942e-05
-6.83671e-07
4.80255e-07
1.22825e-05
-7.35071e-07
6.46762e-07
1.25144e-05
-3.77969e-07
1.46034e-07
1.26005e-05
-4.2395e-07
3.37811e-07
1.28203e-05
-1.1114e-07
-1.08576e-07
1.2836e-05
-5.66716e-08
4.09687e-08
1.29978e-05
1.57802e-07
-3.19627e-07
1.29419e-05
2.89098e-07
-2.33199e-07
1.30216e-05
4.56717e-07
-5.36468e-07
1.2909e-05
6.10103e-07
-4.97428e-07
1.29421e-05
7.48282e-07
-7.81455e-07
1.27781e-05
8.88448e-07
-7.2445e-07
1.28224e-05
1.01766e-06
-1.0619e-06
1.2728e-05
1.1429e-06
-1.04854e-06
1.27988e-05
1.27366e-06
-1.3444e-06
1.28633e-05
1.30276e-06
-1.3673e-06
1.30462e-05
1.47376e-06
-1.65667e-06
1.326e-05
1.30226e-06
-1.51601e-06
1.3598e-05
1.49e-06
-1.82805e-06
1.39326e-05
1.12149e-06
-1.45604e-06
1.43987e-05
1.34365e-06
-1.8098e-06
1.48518e-05
7.74684e-07
-1.22774e-06
1.53643e-05
1.07679e-06
-1.58935e-06
1.58903e-05
2.94734e-07
-8.20703e-07
1.65151e-05
7.11882e-07
-1.33674e-06
1.69028e-05
-1.5253e-07
-2.35133e-07
1.77703e-05
9.12954e-08
-9.58802e-07
1.7993e-05
-4.41021e-07
2.18315e-07
1.88773e-05
-6.34787e-07
-2.49531e-07
1.91476e-05
-8.07297e-07
5.3706e-07
1.98187e-05
-1.20561e-06
5.34449e-07
2.01721e-05
-1.29443e-06
9.41085e-07
2.07809e-05
-1.58207e-06
9.73245e-07
2.10412e-05
-1.81994e-06
1.55969e-06
2.17329e-05
-1.8794e-06
1.18763e-06
2.19206e-05
-2.28669e-06
2.09901e-06
2.26368e-05
-2.23542e-06
1.51928e-06
2.28887e-05
-2.6571e-06
2.4051e-06
2.35987e-05
-2.70197e-06
1.99202e-06
2.39459e-05
-2.99277e-06
2.64559e-06
2.46451e-05
-3.20209e-06
2.50284e-06
2.50833e-05
-3.63532e-06
3.19719e-06
2.58677e-05
-3.6137e-06
2.82931e-06
2.62731e-05
-4.47372e-06
4.06828e-06
2.72218e-05
-4.41603e-06
3.4673e-06
2.76031e-05
-5.30287e-06
4.92157e-06
2.85159e-05
-5.56523e-06
4.65245e-06
2.89849e-05
-6.40464e-06
5.93566e-06
2.97974e-05
-6.81014e-06
5.99767e-06
3.0197e-05
-7.76761e-06
7.36794e-06
3.08518e-05
-8.2401e-06
7.58532e-06
3.11345e-05
-9.12016e-06
8.8375e-06
3.14835e-05
-9.5916e-06
9.24253e-06
3.1474e-05
-1.03351e-05
1.03447e-05
3.15595e-05
-1.0612e-05
1.05264e-05
3.11011e-05
-1.11374e-05
1.15959e-05
3.08017e-05
-1.08929e-05
1.11922e-05
3.00548e-05
-1.15052e-05
1.22522e-05
2.92626e-05
-1.04841e-05
1.12763e-05
2.8444e-05
-1.12151e-05
1.20337e-05
2.7435e-05
-9.90011e-06
1.09091e-05
2.65872e-05
-1.04815e-05
1.13293e-05
2.56509e-05
-9.2084e-06
1.01447e-05
2.49585e-05
-9.95348e-06
1.06459e-05
2.4043e-05
-8.58102e-06
9.49655e-06
2.36892e-05
-9.6624e-06
1.00162e-05
2.29932e-05
-8.42e-06
9.11597e-06
2.27321e-05
-9.37825e-06
9.63936e-06
2.24268e-05
-8.80462e-06
9.10997e-06
2.21903e-05
-9.40008e-06
9.63653e-06
2.19488e-05
-8.99474e-06
9.2362e-06
2.21211e-05
-1.05266e-05
1.03544e-05
2.18876e-05
-9.6177e-06
9.8512e-06
2.17389e-05
-1.12395e-05
1.13882e-05
2.16948e-05
-1.1184e-05
1.12281e-05
2.20444e-05
-1.21977e-05
1.18481e-05
2.20823e-05
-1.35808e-05
1.35429e-05
2.13195e-05
-1.22059e-05
1.29686e-05
2.06224e-05
-1.15705e-05
1.22676e-05
2.04289e-05
-1.22414e-05
1.2435e-05
2.01672e-05
-1.08957e-05
1.11574e-05
2.05812e-05
-9.76057e-06
9.34654e-06
2.11502e-05
-9.35789e-06
8.78888e-06
2.14469e-05
-8.43044e-06
8.13381e-06
2.16262e-05
-6.99022e-06
6.81088e-06
2.14552e-05
-5.55425e-06
5.7253e-06
2.06788e-05
-3.64914e-06
4.4255e-06
1.98399e-05
-1.83737e-06
2.67631e-06
1.93798e-05
-7.71535e-07
1.23158e-06
1.96261e-05
6.83792e-07
-9.30051e-07
2.03002e-05
2.63233e-06
-3.30649e-06
2.12252e-05
4.65784e-06
-5.58278e-06
2.21402e-05
7.48207e-06
-8.39712e-06
2.28651e-05
9.87818e-06
-1.06031e-05
2.30847e-05
1.19049e-05
-1.21245e-05
2.26857e-05
1.36732e-05
-1.32742e-05
2.21306e-05
1.45224e-05
-1.39674e-05
2.13926e-05
1.44508e-05
-1.37127e-05
2.03933e-05
1.47787e-05
-1.37794e-05
1.93272e-05
1.55066e-05
-1.44406e-05
1.82907e-05
1.45011e-05
-1.34645e-05
1.79052e-05
1.32482e-05
-1.28627e-05
1.78648e-05
1.43407e-05
-1.43003e-05
1.78471e-05
1.62978e-05
-1.62801e-05
1.72918e-05
1.77355e-05
-1.71802e-05
1.63209e-05
1.59678e-05
-1.49969e-05
1.52159e-05
1.30568e-05
-1.19517e-05
1.48741e-05
1.26211e-05
-1.22794e-05
1.49266e-05
1.81433e-05
-1.81958e-05
1.50294e-05
2.50861e-05
-2.51889e-05
1.54374e-05
2.8801e-05
-2.9209e-05
1.46854e-05
3.00715e-05
-2.93195e-05
1.25689e-05
3.03641e-05
-2.82475e-05
1.20083e-05
2.90629e-05
-2.85024e-05
3.3346e-05
-3.34659e-05
1.21282e-05
1.29087e-05
3.11137e-08
1.28994e-05
1.00328e-07
1.30342e-05
-1.46352e-07
1.32422e-05
-3.90348e-07
1.34836e-05
-6.38638e-07
1.36707e-05
-6.76136e-07
1.38468e-05
-7.10993e-07
1.39637e-05
-5.97375e-07
1.40496e-05
-5.08302e-07
1.40864e-05
-3.53862e-07
1.41085e-05
-2.5353e-07
1.40996e-05
-9.29242e-08
1.40906e-05
-1.738e-08
1.40653e-05
1.30965e-07
1.40707e-05
1.58573e-07
1.40813e-05
2.85668e-07
1.41308e-05
2.71608e-07
1.42019e-05
3.45118e-07
1.42928e-05
2.90907e-07
1.43992e-05
3.17954e-07
1.4514e-05
2.24316e-07
1.46374e-05
2.03254e-07
1.47724e-05
6.41002e-08
1.48811e-05
4.5539e-08
1.50056e-05
-1.24385e-07
1.50845e-05
-1.33037e-07
1.51569e-05
-2.99196e-07
1.51888e-05
-2.83161e-07
1.52135e-05
-4.20962e-07
1.5202e-05
-3.50266e-07
1.51869e-05
-4.57306e-07
1.51393e-05
-3.29652e-07
1.5122e-05
-4.06598e-07
1.5079e-05
-2.15702e-07
1.50914e-05
-2.52977e-07
1.50932e-05
-3.12687e-08
1.51578e-05
-7.80683e-08
1.52058e-05
1.32369e-07
1.53131e-05
3.30481e-08
1.54086e-05
1.87883e-07
1.55439e-05
2.42194e-08
1.56561e-05
1.3104e-07
1.58009e-05
-1.13125e-07
1.59042e-05
-2.85147e-08
1.60543e-05
-3.34969e-07
1.61369e-05
-2.19544e-07
1.62761e-05
-5.58313e-07
1.63392e-05
-4.12142e-07
1.64308e-05
-7.19637e-07
1.64546e-05
-5.572e-07
1.64798e-05
-8.06566e-07
1.64281e-05
-6.08223e-07
1.63372e-05
-8.07368e-07
1.61722e-05
-5.35658e-07
1.59426e-05
-6.5243e-07
1.56781e-05
-2.67248e-07
1.5377e-05
-2.76727e-07
1.50551e-05
2.90432e-07
1.48096e-05
3.93227e-07
1.45663e-05
1.12419e-06
1.45714e-05
1.24579e-06
1.4536e-05
2.01546e-06
1.47777e-05
1.93554e-06
1.50228e-05
2.55072e-06
1.53437e-05
2.15748e-06
1.58232e-05
2.45399e-06
1.62169e-05
1.94977e-06
1.66845e-05
1.92329e-06
1.69314e-05
1.27005e-06
1.71592e-05
9.84075e-07
1.71329e-05
2.9448e-07
1.70928e-05
-4.79716e-08
1.68707e-05
-6.0585e-07
1.67566e-05
-8.68084e-07
1.65285e-05
-1.195e-06
1.64982e-05
-1.29744e-06
1.63634e-05
-1.48142e-06
1.64281e-05
-1.459e-06
1.63554e-05
-1.56889e-06
1.64509e-05
-1.42022e-06
1.63909e-05
-1.47629e-06
1.64822e-05
-1.26546e-06
1.64015e-05
-1.24589e-06
1.64607e-05
-1.00793e-06
1.63588e-05
-9.46715e-07
1.6362e-05
-6.86836e-07
1.62696e-05
-6.42716e-07
1.62667e-05
-3.75056e-07
1.61667e-05
-3.23926e-07
1.61742e-05
-1.18608e-07
1.61232e-05
-5.73006e-09
1.61259e-05
1.55148e-07
1.61265e-05
2.88497e-07
1.61332e-05
4.49954e-07
1.61696e-05
5.73742e-07
1.62021e-05
7.15786e-07
1.62366e-05
8.53955e-07
1.63256e-05
9.287e-07
1.64007e-05
1.06777e-06
1.65793e-05
1.09506e-06
1.67332e-05
1.14885e-06
1.70476e-05
1.15933e-06
1.72938e-05
1.05604e-06
1.77096e-05
1.07421e-06
1.80826e-05
7.48459e-07
1.85418e-05
8.84513e-07
1.90087e-05
3.07801e-07
1.95771e-05
5.08376e-07
1.99716e-05
-9.97497e-08
2.07214e-05
-3.79536e-08
2.10333e-05
-4.64483e-07
2.1762e-05
-6.37346e-07
2.21934e-05
-8.72389e-07
2.26942e-05
-1.13566e-06
2.32459e-05
-1.35895e-06
2.36344e-05
-1.59411e-06
2.41228e-05
-1.78287e-06
2.458e-05
-2.03923e-06
2.49472e-05
-2.18712e-06
2.54632e-05
-2.39539e-06
2.58262e-05
-2.64969e-06
2.6315e-05
-2.72425e-06
2.67358e-05
-3.07794e-06
2.72213e-05
-3.18742e-06
2.77335e-05
-3.50496e-06
2.82164e-05
-3.68506e-06
2.87498e-05
-4.16865e-06
2.93703e-05
-4.23419e-06
2.98204e-05
-4.92388e-06
3.05278e-05
-5.12341e-06
3.09763e-05
-5.75137e-06
3.16046e-05
-6.19356e-06
3.19925e-05
-6.79252e-06
3.25649e-05
-7.38253e-06
3.2747e-05
-7.9497e-06
3.30742e-05
-8.56734e-06
3.30575e-05
-9.10343e-06
3.30176e-05
-9.55171e-06
3.26257e-05
-9.94317e-06
3.22628e-05
-1.02491e-05
3.14139e-05
-1.02886e-05
3.08047e-05
-1.02836e-05
2.96572e-05
-1.03577e-05
2.88179e-05
-9.64484e-06
2.77646e-05
-1.01619e-05
2.6834e-05
-8.96948e-06
2.59705e-05
-9.61805e-06
2.52542e-05
-8.4921e-06
2.45987e-05
-9.29796e-06
2.40178e-05
-8.00009e-06
2.37597e-05
-9.40425e-06
2.3131e-05
-7.79133e-06
2.30555e-05
-9.30277e-06
2.27254e-05
-8.47449e-06
2.22932e-05
-8.96795e-06
2.21661e-05
-8.86762e-06
2.21062e-05
-1.04668e-05
2.11211e-05
-8.63253e-06
2.10066e-05
-1.1125e-05
2.11317e-05
-1.13091e-05
2.08447e-05
-1.19107e-05
2.00968e-05
-1.2833e-05
1.92707e-05
-1.13798e-05
1.87759e-05
-1.10757e-05
1.91169e-05
-1.25825e-05
1.98829e-05
-1.16617e-05
2.10177e-05
-1.08954e-05
2.17149e-05
-1.00551e-05
2.18236e-05
-8.53913e-06
2.2072e-05
-7.23863e-06
2.19806e-05
-5.46289e-06
2.07764e-05
-2.44492e-06
1.91234e-05
-1.84342e-07
1.78515e-05
5.00348e-07
1.74289e-05
1.10636e-06
1.78253e-05
2.23597e-06
1.85723e-05
3.91088e-06
1.95679e-05
6.48638e-06
2.05417e-05
8.90446e-06
2.13464e-05
1.11002e-05
2.1503e-05
1.35166e-05
2.13627e-05
1.46627e-05
2.11311e-05
1.46824e-05
2.05029e-05
1.54069e-05
1.97336e-05
1.62759e-05
1.87779e-05
1.54568e-05
1.81074e-05
1.39186e-05
1.79487e-05
1.44994e-05
1.77974e-05
1.64491e-05
1.73693e-05
1.81637e-05
1.64414e-05
1.68956e-05
1.56689e-05
1.38293e-05
1.51588e-05
1.31312e-05
1.57629e-05
1.75391e-05
1.63516e-05
2.44974e-05
1.66666e-05
2.8486e-05
1.72145e-05
2.95236e-05
1.63219e-05
3.12567e-05
1.83537e-05
2.70311e-05
3.42185e-05
1.74812e-05
1.94569e-05
4.53465e-08
1.96091e-05
-5.19274e-08
1.97599e-05
-2.97119e-07
1.99015e-05
-5.31983e-07
2.00287e-05
-7.65793e-07
2.00999e-05
-7.47391e-07
2.01415e-05
-7.52536e-07
2.01862e-05
-6.42126e-07
2.02087e-05
-5.30776e-07
2.02422e-05
-3.87334e-07
2.02395e-05
-2.50884e-07
2.02356e-05
-8.89454e-08
2.02252e-05
-7.00227e-09
2.02104e-05
1.45771e-07
2.02281e-05
1.40844e-07
2.0223e-05
2.90769e-07
2.02716e-05
2.22989e-07
2.0289e-05
3.27691e-07
2.03691e-05
2.10843e-07
2.04004e-05
2.86691e-07
2.04995e-05
1.2521e-07
2.05396e-05
1.6318e-07
2.06414e-05
-3.77916e-08
2.0693e-05
-6.02953e-09
2.07746e-05
-2.0594e-07
2.08182e-05
-1.76708e-07
2.0865e-05
-3.45961e-07
2.08798e-05
-2.97933e-07
2.08909e-05
-4.3205e-07
2.08715e-05
-3.30932e-07
2.08616e-05
-4.47409e-07
2.08055e-05
-2.73488e-07
2.07891e-05
-3.90205e-07
2.07178e-05
-1.44382e-07
2.07205e-05
-2.55698e-07
2.06823e-05
6.92158e-09
2.07146e-05
-1.1038e-07
2.07235e-05
1.23452e-07
2.07984e-05
-4.18828e-08
2.08411e-05
1.45182e-07
2.09574e-05
-9.20477e-08
2.10285e-05
5.99945e-08
2.1146e-05
-2.3065e-07
2.12348e-05
-1.17311e-07
2.13339e-05
-4.34085e-07
2.14197e-05
-3.05327e-07
2.14967e-05
-6.35297e-07
2.15509e-05
-4.66336e-07
2.15943e-05
-7.63058e-07
2.15978e-05
-5.6069e-07
2.15838e-05
-7.92577e-07
2.1519e-05
-5.4343e-07
2.14189e-05
-7.07251e-07
2.12694e-05
-3.86172e-07
2.10836e-05
-4.66658e-07
2.08572e-05
-4.0805e-08
2.06137e-05
-3.32213e-08
2.03629e-05
5.41181e-07
2.01487e-05
6.07451e-07
1.9988e-05
1.28491e-06
1.98758e-05
1.35797e-06
1.98887e-05
2.0025e-06
1.98821e-05
1.94219e-06
2.00723e-05
2.36053e-06
2.01245e-05
2.10531e-06
2.03924e-05
2.18604e-06
2.0519e-05
1.8232e-06
2.08003e-05
1.64195e-06
2.09065e-05
1.16383e-06
2.10889e-05
8.01686e-07
2.10946e-05
2.88811e-07
2.11691e-05
-1.22501e-07
2.11144e-05
-5.51068e-07
2.11315e-05
-8.85214e-07
2.10869e-05
-1.15046e-06
2.11355e-05
-1.34604e-06
2.11269e-05
-1.47279e-06
2.12174e-05
-1.54952e-06
2.12132e-05
-1.56463e-06
2.13169e-05
-1.52393e-06
2.13137e-05
-1.47313e-06
2.13783e-05
-1.32998e-06
2.13718e-05
-1.23948e-06
2.13732e-05
-1.00931e-06
2.1356e-05
-9.29466e-07
2.12876e-05
-6.18458e-07
2.12307e-05
-5.85807e-07
2.11127e-05
-2.57057e-07
2.10301e-05
-2.41303e-07
2.0823e-05
8.84539e-08
2.07731e-05
4.41369e-08
2.055e-05
3.78329e-07
2.05189e-05
3.19544e-07
2.03881e-05
5.80758e-07
2.0359e-05
6.02843e-07
2.03778e-05
6.97027e-07
2.03722e-05
8.59517e-07
2.05351e-05
7.65766e-07
2.05869e-05
1.01602e-06
2.08682e-05
8.13777e-07
2.10594e-05
9.57643e-07
2.13878e-05
8.30958e-07
2.17692e-05
6.74589e-07
2.20901e-05
7.5331e-07
2.26148e-05
2.23805e-07
2.30164e-05
4.82917e-07
2.34974e-05
-1.73217e-07
2.40656e-05
-5.9822e-08
2.4465e-05
-4.99176e-07
2.50729e-05
-6.45798e-07
2.55375e-05
-9.29117e-07
2.59828e-05
-1.08268e-06
2.65967e-05
-1.48622e-06
2.68884e-05
-1.42737e-06
2.74987e-05
-1.96924e-06
2.77878e-05
-1.88322e-06
2.8309e-05
-2.30413e-06
2.8618e-05
-2.34816e-06
2.90998e-05
-2.66893e-06
2.93886e-05
-2.6842e-06
2.98569e-05
-3.11798e-06
3.01667e-05
-3.0341e-06
3.06336e-05
-3.54484e-06
3.09396e-05
-3.49344e-06
3.1464e-05
-4.02928e-06
3.17585e-05
-3.97959e-06
3.22646e-05
-4.6748e-06
3.26368e-05
-4.60638e-06
3.30646e-05
-5.35168e-06
3.34185e-05
-5.4773e-06
3.37999e-05
-6.13274e-06
3.40693e-05
-6.463e-06
3.42493e-05
-6.97245e-06
3.44258e-05
-7.55909e-06
3.43166e-05
-7.84046e-06
3.4223e-05
-8.47378e-06
3.38557e-05
-8.73613e-06
3.337e-05
-9.06604e-06
3.27287e-05
-9.30189e-06
3.19028e-05
-9.42311e-06
3.0951e-05
-9.33682e-06
3.01208e-05
-9.4534e-06
2.89156e-05
-9.15251e-06
2.82678e-05
-8.99706e-06
2.72083e-05
-9.10242e-06
2.66023e-05
-8.36346e-06
2.59227e-05
-8.93846e-06
2.54762e-05
-8.04562e-06
2.49292e-05
-8.7509e-06
2.46812e-05
-7.75211e-06
2.42256e-05
-8.94867e-06
2.37964e-05
-7.36211e-06
2.36464e-05
-9.15275e-06
2.28936e-05
-7.72171e-06
2.23976e-05
-8.47201e-06
2.23639e-05
-8.83388e-06
2.13564e-05
-9.4593e-06
2.02823e-05
-7.55837e-06
2.07968e-05
-1.16395e-05
2.00753e-05
-1.05876e-05
1.86118e-05
-1.04472e-05
1.75533e-05
-1.17746e-05
1.76859e-05
-1.15123e-05
1.80144e-05
-1.14043e-05
1.88265e-05
-1.33945e-05
2.01584e-05
-1.29935e-05
2.11764e-05
-1.19134e-05
2.159e-05
-1.04687e-05
2.11736e-05
-8.12274e-06
2.12509e-05
-7.31594e-06
2.15271e-05
-5.73911e-06
2.08532e-05
-1.77103e-06
1.92572e-05
1.41171e-06
1.73816e-05
2.37591e-06
1.62298e-05
2.25814e-06
1.60468e-05
2.41898e-06
1.65018e-05
3.45595e-06
1.75235e-05
5.46459e-06
1.85116e-05
7.91637e-06
1.93595e-05
1.02523e-05
1.98759e-05
1.30002e-05
1.99741e-05
1.45645e-05
2.00657e-05
1.45908e-05
1.98297e-05
1.56429e-05
1.92417e-05
1.68638e-05
1.85952e-05
1.61034e-05
1.79165e-05
1.45973e-05
1.78158e-05
1.46001e-05
1.76837e-05
1.65812e-05
1.74438e-05
1.84035e-05
1.65314e-05
1.7808e-05
1.59904e-05
1.43703e-05
1.5562e-05
1.35597e-05
1.62761e-05
1.6825e-05
1.77637e-05
2.30098e-05
1.82313e-05
2.80184e-05
1.90326e-05
2.87223e-05
1.87004e-05
3.15888e-05
2.19726e-05
2.3759e-05
3.39083e-05
2.22828e-05
2.47488e-05
-1.50056e-07
2.52252e-05
-5.28306e-07
2.56094e-05
-6.81388e-07
2.5701e-05
-6.23499e-07
2.57554e-05
-8.20196e-07
2.57339e-05
-7.2595e-07
2.57279e-05
-7.46493e-07
2.56714e-05
-5.8568e-07
2.56464e-05
-5.05777e-07
2.55969e-05
-3.37803e-07
2.5572e-05
-2.25943e-07
2.54973e-05
-1.42777e-08
2.54798e-05
1.04695e-08
2.54047e-05
2.2084e-07
2.54212e-05
1.24396e-07
2.53807e-05
3.31238e-07
2.5427e-05
1.76719e-07
2.54336e-05
3.21059e-07
2.54945e-05
1.4999e-07
2.55347e-05
2.46424e-07
2.5597e-05
6.29363e-08
2.56562e-05
1.03964e-07
2.57113e-05
-9.28571e-08
2.57644e-05
-5.91227e-08
2.58036e-05
-2.45121e-07
2.58356e-05
-2.08712e-07
2.58613e-05
-3.71641e-07
2.58692e-05
-3.05869e-07
2.58815e-05
-4.44324e-07
2.58706e-05
-3.20057e-07
2.58759e-05
-4.52712e-07
2.58498e-05
-2.47354e-07
2.58331e-05
-3.73576e-07
2.5806e-05
-1.17201e-07
2.57838e-05
-2.33585e-07
2.5772e-05
1.87352e-08
2.57665e-05
-1.04892e-07
2.5777e-05
1.13029e-07
2.5809e-05
-7.39675e-08
2.58446e-05
1.0964e-07
2.58954e-05
-1.42868e-07
2.59786e-05
-2.31724e-08
2.60101e-05
-2.62123e-07
2.61162e-05
-2.23438e-07
2.61233e-05
-4.41161e-07
2.62045e-05
-3.86575e-07
2.61956e-05
-6.2643e-07
2.62283e-05
-4.99012e-07
2.6183e-05
-7.17776e-07
2.61725e-05
-5.50151e-07
2.60756e-05
-6.95726e-07
2.60206e-05
-4.88436e-07
2.58686e-05
-5.55197e-07
2.57717e-05
-2.8931e-07
2.55757e-05
-2.70677e-07
2.54548e-05
8.01408e-08
2.52215e-05
2.00092e-07
2.5121e-05
6.41662e-07
2.49084e-05
8.20103e-07
2.48801e-05
1.31314e-06
2.47529e-05
1.48521e-06
2.48474e-05
1.90798e-06
2.48333e-05
1.95624e-06
2.50091e-05
2.18479e-06
2.50714e-05
2.04297e-06
2.52343e-05
2.02321e-06
2.53358e-05
1.72163e-06
2.54857e-05
1.49208e-06
2.55735e-05
1.076e-06
2.56656e-05
7.09632e-07
2.57054e-05
2.48957e-07
2.57414e-05
-1.58474e-07
2.57502e-05
-5.59895e-07
2.57634e-05
-8.98407e-07
2.57452e-05
-1.13225e-06
2.57857e-05
-1.38649e-06
2.576e-05
-1.44711e-06
2.58226e-05
-1.6121e-06
2.5788e-05
-1.53005e-06
2.58562e-05
-1.59216e-06
2.58193e-05
-1.43618e-06
2.58535e-05
-1.36421e-06
2.58286e-05
-1.21464e-06
2.58057e-05
-9.86393e-07
2.57948e-05
-9.1854e-07
2.57188e-05
-5.42427e-07
2.57218e-05
-5.88858e-07
2.55708e-05
-1.06079e-07
2.5595e-05
-2.65413e-07
2.54101e-05
2.73309e-07
2.53922e-05
6.20851e-08
2.52483e-05
5.22152e-07
2.51849e-05
3.83023e-07
2.51164e-05
6.4919e-07
2.50518e-05
6.67486e-07
2.50677e-05
6.81091e-07
2.50575e-05
8.6976e-07
2.51599e-05
6.63362e-07
2.52873e-05
8.88581e-07
2.54298e-05
6.71311e-07
2.57377e-05
6.4972e-07
2.59332e-05
6.35498e-07
2.63644e-05
2.43343e-07
2.66484e-05
4.69337e-07
2.70924e-05