/*--------------------------------*- C++ -*----------------------------------*\
| =========                 |                                                 |
| \\      /  F ield         | OpenFOAM: The Open Source CFD Toolbox           |
|  \\    /   O peration     | Version:  2.4.0                                 |
|   \\  /    A nd           | Web:      www.OpenFOAM.org                      |
|    \\/     M anipulation  |                                                 |
\*---------------------------------------------------------------------------*/
FoamFile
{
    version     2.0;
    format      ascii;
    class       volScalarField;
    location    "0.23";
    object      k_0;
}
// * * * * * * * * * * * * * * * * * * * * * * * * * * * * * * * * * * * * * //

dimensions      [0 2 -2 0 0 0 0];

internalField   nonuniform List<scalar> 
8800
(
8.12307
10.2609
8.80369
6.80936
5.71954
4.95903
4.5413
4.12393
3.94008
3.64026
3.55806
3.35703
3.30321
3.14756
3.10079
2.97498
2.90492
2.7781
2.70037
2.48156
1.40782
4.34573
5.32563
5.28744
5.13371
4.7979
4.59182
4.26744
4.14061
3.86247
3.77846
3.58614
3.52114
3.37582
3.32914
3.21698
3.17088
3.07695
3.0009
2.96428
0.0846457
0.72629
1.56668
1.94257
2.28167
2.42641
2.58899
2.59688
2.62473
2.5965
2.58822
2.53741
2.52391
2.48065
2.46066
2.41699
2.41045
2.37363
2.35926
2.33637
0.0033695
0.0694422
0.25596
0.423707
0.587629
0.691706
0.847082
0.929185
1.017
1.09867
1.16585
1.20215
1.25856
1.31257
1.33303
1.36653
1.41548
1.43427
1.4669
1.50398
0.000123641
0.00491665
0.0215172
0.0568444
0.088287
0.118009
0.164315
0.212158
0.235265
0.28971
0.317172
0.359686
0.382681
0.434359
0.454973
0.499892
0.529124
0.583522
0.609703
0.679696
2.49884e-05
0.000306007
0.00142667
0.00481608
0.007515
0.0121511
0.017148
0.0276919
0.0324147
0.0452691
0.0515328
0.0647654
0.0714157
0.0868409
0.0937614
0.110533
0.1206
0.143567
0.154363
0.185803
2.17365e-05
4.23941e-05
0.000117393
0.000364712
0.000536323
0.000855723
0.00120547
0.00210134
0.00256547
0.00401673
0.00474775
0.00642062
0.00737554
0.00972755
0.0109069
0.0136893
0.0157631
0.020564
0.0228303
0.028938
2.10856e-05
2.90387e-05
4.37246e-05
8.25779e-05
9.83123e-05
0.000113727
0.000129925
0.00018156
0.00020481
0.00028766
0.000330392
0.000437834
0.000507822
0.000678699
0.000750678
0.000936738
0.00119311
0.00166453
0.00186006
0.0023752
2.08558e-05
2.94854e-05
3.75029e-05
5.91887e-05
7.43427e-05
7.60572e-05
7.64123e-05
7.88939e-05
7.82297e-05
7.94462e-05
8.35634e-05
9.75919e-05
0.000104481
0.000109144
0.00011167
0.000118635
0.000128054
0.000149893
0.000163837
0.000199775
2.06805e-05
2.86526e-05
3.57412e-05
5.42713e-05
7.00373e-05
7.05509e-05
6.81592e-05
6.8588e-05
6.99768e-05
7.0881e-05
7.20197e-05
7.29905e-05
7.46186e-05
7.69116e-05
7.87811e-05
8.12718e-05
8.07902e-05
8.11194e-05
8.23321e-05
8.74437e-05
2.05201e-05
3.07678e-05
4.32719e-05
5.34899e-05
6.27584e-05
6.24761e-05
6.24344e-05
6.92443e-05
7.58321e-05
7.57952e-05
7.43676e-05
7.53536e-05
7.49538e-05
7.5022e-05
7.84802e-05
7.89708e-05
7.83321e-05
7.96288e-05
8.33294e-05
8.82812e-05
2.06155e-05
3.23391e-05
4.88322e-05
5.59489e-05
6.25418e-05
6.41234e-05
6.78906e-05
8.4547e-05
9.09776e-05
9.07105e-05
9.35037e-05
0.000100159
9.96316e-05
0.000103725
0.000108383
0.000111608
0.000117397
0.000146321
0.000183006
0.000223442
2.09706e-05
3.29647e-05
4.74832e-05
7.66054e-05
8.72802e-05
0.000105945
0.000125301
0.000196328
0.000243767
0.000289184
0.000371925
0.000491467
0.000520092
0.000627786
0.000730177
0.00097837
0.00115406
0.00161468
0.00193727
0.00261603
2.16218e-05
4.35395e-05
0.000121162
0.000322771
0.000469039
0.000862438
0.001204
0.00215213
0.00278076
0.0041273
0.0049076
0.00668089
0.0074464
0.00944328
0.0107387
0.0139534
0.0158913
0.0205482
0.0232999
0.0301086
2.49168e-05
0.00031
0.00153471
0.00426493
0.00670732
0.0130341
0.017354
0.0274952
0.0334685
0.0457711
0.0519459
0.0653859
0.0714323
0.0859743
0.093495
0.111587
0.121404
0.144812
0.156956
0.189561
0.000122961
0.00494356
0.0243886
0.0514603
0.0809684
0.131155
0.158251
0.210277
0.241722
0.290738
0.314727
0.363264
0.384346
0.4322
0.453904
0.505578
0.530417
0.589788
0.616792
0.687312
0.00336806
0.0698106
0.262713
0.410118
0.583764
0.709209
0.830109
0.9314
1.0293
1.09742
1.15758
1.21716
1.25486
1.30862
1.33149
1.38239
1.40366
1.45439
1.47334
1.52231
0.0847398
0.729937
1.56785
1.93057
2.28561
2.43194
2.57879
2.59809
2.62914
2.59944
2.58875
2.54079
2.52474
2.47482
2.46012
2.41962
2.4093
2.37943
2.36668
2.33961
1.40884
4.34923
5.3197
5.28506
5.13332
4.7964
4.59374
4.2738
4.13034
3.87201
3.77919
3.57583
3.52024
3.36731
3.32914
3.20024
3.1707
3.05194
3.0123
2.9114
8.12419
10.2628
8.79383
6.81735
5.71605
4.95638
4.54397
4.12881
3.92648
3.65004
3.55566
3.3475
3.30168
3.13398
3.10498
2.94256
2.90985
2.73642
2.67769
2.46544
1.68343
1.18778
0.883859
0.688066
0.542676
0.43561
0.353469
0.298166
0.264155
0.248553
0.241458
0.242501
0.247058
0.255639
0.276027
0.30461
0.358645
0.384909
0.428872
0.459826
0.495023
0.52592
0.549234
0.560545
0.561052
0.586387
0.595087
0.593573
0.582316
0.548218
0.458221
0.348308
0.263799
0.212436
0.18038
0.156901
0.136368
0.117523
0.101889
0.0911616
0.0832513
0.0757561
0.0701234
0.0669976
0.0658388
0.0658474
0.0662375
0.0675334
0.0704432
0.0770978
0.0896444
0.102951
0.120187
0.138956
0.148407
0.152434
0.153195
0.151392
0.146172
0.134105
0.116299
0.0937547
0.0656264
0.0436728
0.0287758
0.0191096
0.0132865
0.00966015
0.00767175
0.00664771
0.00624417
0.00628651
0.0064394
0.00700327
0.00766438
0.00890719
0.011457
0.0136139
0.0180885
0.0225963
0.0275517
0.0317907
0.0357167
0.0383167
0.0384889
0.0379044
0.0363679
0.0335931
0.0296972
0.0264016
0.0225637
0.019012
0.0167356
0.0147128
0.0135349
0.0130531
0.0130834
0.0134528
0.0145221
0.0164358
0.0174371
0.0189234
0.0235691
0.0256764
0.0262236
0.026071
0.0266273
0.0276809
0.0276855
0.0266448
0.0265421
0.0273469
0.0317971
0.0377275
0.0455577
0.0636409
0.115021
0.225251
0.254609
0.247946
0.230479
0.194698
0.161975
0.13981
0.122865
0.111366
0.103556
0.0982716
0.0967199
0.0969273
0.0981631
0.101069
0.10992
0.114557
0.11427
0.111013
0.106321
0.103094
0.0961215
0.0804639
0.0679861
0.0610882
0.056149
0.0452768
0.0341023
0.0276395
0.0248559
0.024547
0.0258086
0.0321069
0.0328935
0.032145
0.0323946
0.0331816
0.0392019
0.0663744
0.0934517
0.106538
0.106861
0.108746
0.131741
0.150962
0.148484
0.130692
0.0930324
0.0689706
0.0576751
0.0482186
0.0448758
0.0365062
0.0346688
0.0302011
0.0300011
0.028188
0.0306908
0.0300821
0.0389778
0.0428399
0.0592775
0.0594579
0.0664641
0.0648509
0.0693221
0.0672271
0.0724158
0.0777396
0.088119
0.0867717
0.092068
0.0916532
0.103909
0.111789
0.155379
0.158573
0.175341
0.129315
0.136365
0.112759
0.21336
0.552143
2.49388
2.03177
1.68
1.44757
1.26197
1.12733
1.00716
0.903229
0.815063
0.727234
0.669854
0.619254
0.590239
0.571669
0.566624
0.567922
0.567589
0.566288
0.560342
0.558835
0.557373
0.553135
0.539492
0.517848
0.480651
0.462398
0.462837
0.468595
0.488218
0.523687
0.530256
0.526829
0.511235
0.47705
0.397455
0.304275
0.235209
0.188048
0.154923
0.131966
0.115615
0.101199
0.0907127
0.0860579
0.0857772
0.0866335
0.0893677
0.0935223
0.104042
0.115169
0.131135
0.149175
0.157337
0.157984
0.156498
0.152734
0.144101
0.129459
0.107891
0.0774632
0.05008
0.0324163
0.0209764
0.0140304
0.00984987
0.00741819
0.0061748
0.0055241
0.00551019
0.00556336
0.0058312
0.00647716
0.00756467
0.0104535
0.013254
0.0189347
0.0254318
0.0343604
0.0466082
0.05776
0.0693992
0.0779739
0.0853884
0.0877618
0.087111
0.0844177
0.0803794
0.0735316
0.0651978
0.0577294
0.0496441
0.0424313
0.036428
0.0309862
0.0268603
0.0235272
0.021239
0.0197965
0.0198926
0.020782
0.0210583
0.0227916
0.0245022
0.0249338
0.0255552
0.0253942
0.0257489
0.0263422
0.0269743
0.028586
0.0302998
0.0344222
0.0410808
0.0481202
0.0634046
0.107963
0.238479
0.281823
0.270749
0.242524
0.188464
0.164252
0.145059
0.129629
0.115223
0.10502
0.0972751
0.0907236
0.0875946
0.0870024
0.0877668
0.089769
0.0960039
0.0993784
0.100768
0.103639
0.103415
0.102118
0.0990479
0.0905173
0.0822834
0.0779286
0.0756566
0.0712672
0.0539756
0.0393347
0.0319391
0.0296461
0.0302868
0.0393173
0.0430284
0.0412049
0.0356139
0.0345467
0.036863
0.0578133
0.0801836
0.0911517
0.0926503
0.0929676
0.101546
0.13741
0.146257
0.141687
0.119817
0.0836211
0.0690544
0.0535961
0.0496961
0.0389643
0.0375575
0.0323593
0.0347586
0.0324573
0.0356752
0.0352859
0.0402764
0.0434259
0.0538425
0.0557775
0.0610604
0.0610304
0.0625945
0.0612161
0.0660719
0.0653092
0.0754112
0.0761201
0.0911838
0.0907027
0.119622
0.120681
0.19276
0.200508
0.326609
0.276978
0.352288
0.225772
0.27831
0.384761
2.09617
1.8444
1.62711
1.46295
1.33001
1.22495
1.13771
1.0584
0.996673
0.930528
0.881626
0.831659
0.79164
0.749702
0.713876
0.683625
0.643612
0.616462
0.583603
0.551322
0.519981
0.487185
0.448402
0.40902
0.39394
0.381474
0.370457
0.363276
0.361849
0.363291
0.368861
0.380452
0.413611
0.427369
0.426775
0.42104
0.405731
0.367891
0.326215
0.286048
0.250751
0.219362
0.195416
0.17945
0.173718
0.17366
0.175947
0.178524
0.184509
0.184853
0.182517
0.177211
0.169398
0.162726
0.150838
0.132465
0.105833
0.0710944
0.0435764
0.0267791
0.0168308
0.0111137
0.00776992
0.00603828
0.00520874
0.004918
0.00493006
0.00504024
0.0054441
0.00633445
0.00857452
0.0111095
0.0155989
0.0238919
0.0315534
0.0467756
0.0647409
0.0872265
0.113799
0.134935
0.155673
0.1704
0.178112
0.177828
0.174573
0.166589
0.155519
0.140758
0.126276
0.110024
0.0940338
0.0797196
0.0671847
0.0583941
0.0501633
0.0443346
0.039
0.0332414
0.0322004
0.0317137
0.0307268
0.0306821
0.0294889
0.028
0.0272264
0.0274353
0.0278029
0.0284381
0.0305155
0.03486
0.0407354
0.0463543
0.051084
0.0625554
0.0978417
0.232557
0.305339
0.299288
0.251475
0.198556
0.168198
0.155153
0.139271
0.127332
0.113935
0.104683
0.0963089
0.0898208
0.0854051
0.0822612
0.0816597
0.0821298
0.0852165
0.091652
0.092926
0.0935712
0.0953972
0.0961328
0.0956493
0.0925719
0.0878929
0.0854034
0.0842134
0.0816032
0.0736094
0.0562426
0.0423067
0.0364974
0.0379687
0.0483644
0.055465
0.0548491
0.0456268
0.0375118
0.0379765
0.0534289
0.0722778
0.0810148
0.082211
0.0815258
0.0840245
0.110193
0.141317
0.142744
0.138302
0.111208
0.0966075
0.0660707
0.0622531
0.0475714
0.0459952
0.0387566
0.0387815
0.03561
0.0355301
0.0358255
0.0401533
0.0435144
0.0514189
0.0610282
0.0612143
0.0641261
0.056747
0.0576467
0.0561053
0.0571323
0.0604765
0.0609109
0.0637941
0.0677739
0.0812108
0.0900111
0.115217
0.135423
0.197945
0.236582
0.347974
0.352484
0.360261
0.391224
1.40305
1.28431
1.1768
1.08842
1.01945
0.961044
0.913968
0.866491
0.82687
0.785895
0.743203
0.704363
0.667641
0.632519
0.596401
0.560711
0.526739
0.485523
0.447635
0.406797
0.371372
0.336411
0.304919
0.271392
0.242358
0.228675
0.213311
0.196367
0.187702
0.186803
0.188549
0.19344
0.210691
0.231211
0.2625
0.304116
0.32716
0.330136
0.328564
0.322123
0.312694
0.302907
0.289627
0.277915
0.26565
0.252517
0.240961
0.227263
0.215967
0.203452
0.187421
0.171447
0.153471
0.126971
0.0968432
0.0620293
0.0380142
0.023163
0.0144287
0.00944699
0.00664661
0.00528207
0.00464543
0.00447402
0.00454385
0.00478467
0.00547728
0.0066049
0.00953131
0.0125372
0.0193576
0.025689
0.039319
0.0547442
0.079714
0.116527
0.158582
0.208139
0.249076
0.273011
0.285206
0.284759
0.281536
0.276301
0.265507
0.257246
0.246145
0.229553
0.216292
0.191517
0.169328
0.146338
0.119466
0.101899
0.0812191
0.0696999
0.0606957
0.0528034
0.0474396
0.043648
0.0426858
0.0409568
0.039372
0.0350766
0.0329349
0.0328054
0.0328079
0.0340872
0.0359799
0.0393627
0.0524727
0.0612321
0.0709112
0.0937622
0.195962
0.317528
0.321714
0.272273
0.208041
0.179481
0.159275
0.150017
0.135586
0.12692
0.114591
0.107472
0.101166
0.0952258
0.0879595
0.0827002
0.077755
0.0766301
0.0778278
0.081467
0.0847129
0.0869252
0.0905612
0.0905254
0.0898369
0.0901506
0.089389
0.0867411
0.0858687
0.0853715
0.081733
0.0658768
0.0538842
0.0516511
0.0527684
0.0651337
0.07236
0.0721024
0.0634257
0.0461132
0.0430851
0.0533826
0.0701373
0.0761841
0.0767779
0.0736375
0.0730634
0.0791836
0.119446
0.139383
0.143926
0.127412
0.119115
0.0855369
0.0790965
0.0607371
0.0565498
0.0466002
0.0432643
0.0400058
0.0390487
0.0396146
0.0431855
0.0500098
0.0655854
0.0722479
0.0669052
0.0564195
0.049517
0.0468562
0.0486919
0.0483925
0.0524414
0.0523011
0.0572346
0.0578849
0.0656749
0.0683073
0.0761026
0.0941676
0.095625
0.144239
0.149181
0.244136
0.258775
0.327764
0.653359
0.618247
0.583014
0.551299
0.528053
0.50465
0.487413
0.476061
0.456776
0.443306
0.423864
0.396397
0.373229
0.350504
0.324028
0.301357
0.277657
0.248546
0.220399
0.19044
0.164433
0.142568
0.12246
0.104995
0.0886629
0.0785012
0.0742322
0.0711312
0.0675269
0.0659089
0.0662492
0.06779
0.0714952
0.0785625
0.0949911
0.111724
0.131933
0.159168
0.181991
0.19545
0.207153
0.210348
0.209635
0.207261
0.201404
0.193468
0.182099
0.168633
0.154176
0.133693
0.109909
0.0879594
0.0613613
0.0417637
0.0276261
0.0178641
0.0116586
0.00784419
0.00576985
0.00474213
0.00433469
0.00426255
0.00437668
0.00477569
0.00611444
0.00776861
0.011337
0.0147781
0.0227688
0.0300613
0.0446467
0.0594916
0.0924455
0.128813
0.200492
0.270298
0.330147
0.348429
0.346986
0.340533
0.331041
0.320761
0.311121
0.302998
0.292821
0.28784
0.27972
0.272128
0.265541
0.248124
0.23685
0.216958
0.191106
0.166812
0.136207
0.114336
0.0948915
0.0788321
0.0630962
0.0571618
0.0550559
0.0529682
0.0488179
0.041556
0.0398196
0.039764
0.0408051
0.0417016
0.0432181
0.0523202
0.0672444
0.0727121
0.0832915
0.125669
0.289288
0.339955
0.30079
0.234932
0.19495
0.170449
0.152541
0.137643
0.128707
0.120951
0.111776
0.106794
0.103233
0.0993289
0.0956827
0.0897178
0.0805252
0.0757319
0.0753132
0.0768242
0.0782333
0.0847357
0.0880595
0.0882532
0.0867944
0.0877483
0.0880783
0.0864634
0.0855567
0.0851878
0.0826358
0.0756052
0.0703978
0.0649171
0.0648349
0.0784697
0.0880632
0.0871089
0.0707163
0.052626
0.0479478
0.0552739
0.0709653
0.0723113
0.0705473
0.0705961
0.0711907
0.0756387
0.108808
0.132163
0.160878
0.153837
0.147141
0.118403
0.102407
0.0735299
0.0640311
0.0518521
0.0470064
0.0417857
0.0415477
0.0423118
0.0484897
0.0726691
0.0748293
0.061422
0.0516925
0.0477852
0.0490973
0.0502067
0.0544937
0.055487
0.0650535
0.0669707
0.0827288
0.08048
0.0934495
0.0879727
0.0937575
0.0894093
0.0850273
0.0917199
0.092961
0.134031
0.154167
0.215634
0.182813
0.177979
0.172368
0.166777
0.163678
0.158949
0.155037
0.153695
0.15118
0.149182
0.146395
0.138023
0.128081
0.11671
0.104775
0.0956966
0.0870126
0.0766422
0.0662193
0.0564877
0.0481825
0.0417895
0.0361444
0.0312196
0.0263804
0.0230421
0.0217554
0.0212671
0.020418
0.0192393
0.0190401
0.0192484
0.0199953
0.0214409
0.0248952
0.0311313
0.0386098
0.04801
0.057891
0.065262
0.0723027
0.0763107
0.0762955
0.0751748
0.0722586
0.0671168
0.0593868
0.0511666
0.0424728
0.0340012
0.0265526
0.0204071
0.0151789
0.0110744
0.0078751
0.00577124
0.00455015
0.00390132
0.00390296
0.00402588
0.00438561
0.00517424
0.00679506
0.00933274
0.0150113
0.0197569
0.0276543
0.0363957
0.0526991
0.0694063
0.0945774
0.133885
0.209003
0.314369
0.391103
0.409847
0.401187
0.383166
0.363509
0.345756
0.333934
0.323194
0.315287
0.306335
0.300739
0.298508
0.295426
0.29434
0.292073
0.285111
0.278503
0.26224
0.244746
0.217954
0.195227
0.165275
0.14136
0.117684
0.0963953
0.0839314
0.0703993
0.0645951
0.0579784
0.0531028
0.0484334
0.0465943
0.0472555
0.0492219
0.053502
0.0704465
0.0787784
0.0855121
0.101248
0.210369
0.339216
0.336437
0.272688
0.224719
0.189945
0.166638
0.144003
0.122511
0.113924
0.10767
0.10378
0.101395
0.0991131
0.0983653
0.0983203
0.0968998
0.0907928
0.0801969
0.0759251
0.075308
0.0755816
0.0808795
0.0878081
0.087188
0.0867449
0.0873216
0.0875179
0.0845956
0.082576
0.0826528
0.081826
0.0779362
0.0725978
0.0691125
0.0701021
0.0857348
0.100373
0.0978654
0.0759425
0.0552396
0.0502923
0.0571987
0.0641768
0.0734324
0.0745978
0.0764647
0.0821286
0.0834091
0.0998986
0.118922
0.153448
0.154233
0.154218
0.140707
0.126288
0.0916883
0.079955
0.0608145
0.0526743
0.045377
0.0450247
0.0462764
0.0577886
0.0608531
0.0572092
0.0532826
0.0499095
0.0504491
0.0503321
0.0513667
0.0553135
0.0592161
0.0754797
0.0861682
0.122882
0.126732
0.147168
0.14122
0.158054
0.141832
0.14016
0.115459
0.102112
0.107965
0.116059
0.167202
0.0290932
0.0290362
0.0290762
0.0290551
0.0290961
0.0289083
0.0283171
0.0282657
0.0280633
0.0278299
0.0274874
0.0265066
0.0247053
0.022249
0.0198177
0.0180464
0.0164353
0.0145076
0.0126973
0.0110779
0.00965558
0.00860802
0.00754547
0.00653129
0.00562931
0.00500283
0.004715
0.00458421
0.00442224
0.00412668
0.00404173
0.00408741
0.00421929
0.00455429
0.00511825
0.00676051
0.00822476
0.0118405
0.0159976
0.0182092
0.0210985
0.0231676
0.0233841
0.0230292
0.0220123
0.0198391
0.0166187
0.013572
0.01077
0.00843167
0.00667149
0.00541711
0.0042855
0.00352415
0.00300657
0.0030243
0.00314756
0.00343524
0.00426276
0.00580541
0.00836126
0.0120472
0.0175005
0.0270431
0.0370444
0.048991
0.0631642
0.084314
0.106192
0.145373
0.198478
0.315469
0.437642
0.471708
0.462233
0.440436
0.394881
0.356852
0.33424
0.329176
0.323666
0.320383
0.31517
0.307409
0.305623
0.304597
0.305001
0.308842
0.308505
0.307744
0.305178
0.298126
0.283093
0.261167
0.240424
0.203666
0.184348
0.156189
0.131505
0.115548
0.101613
0.0837547
0.0699656
0.0661662
0.0604123
0.0585392
0.05904
0.0610592
0.0702974
0.0777112
0.0795743
0.0864678
0.120713
0.293307
0.358673
0.316509
0.26296
0.222425
0.191444
0.170934
0.143509
0.119885
0.108514
0.10349
0.101141
0.0963141
0.094377
0.0946899
0.0977849
0.0980029
0.096979
0.0895619
0.0833736
0.0774487
0.0772342
0.080092
0.0844207
0.0840066
0.0852608
0.0892721
0.0894104
0.0858574
0.0835027
0.0832062
0.0834524
0.0806757
0.0744196
0.0712087
0.0719324
0.0883474
0.104788
0.108806
0.0907453
0.0608971
0.0547994
0.060297
0.0650432
0.0743379
0.0838806
0.0851812
0.089418
0.0885866
0.0916234
0.0996765
0.121486
0.145751
0.150115
0.146454
0.138264
0.112191
0.100192
0.0761457
0.0639443
0.0526547
0.052413
0.0553156
0.0570686
0.0588403
0.0552293
0.0550046
0.0514176
0.0545485
0.0556265
0.0677642
0.0703618
0.0875989
0.0941987
0.12832
0.148337
0.182976
0.206341
0.207484
0.213677
0.205677
0.19694
0.170423
0.143237
0.13678
0.131576
0.137784
0.00251206
0.00254552
0.00265608
0.00271244
0.00272233
0.00271709
0.00266704
0.00264125
0.00259839
0.00257063
0.00253843
0.00246745
0.00231305
0.00210315
0.00188278
0.00173837
0.00158999
0.00144846
0.0013479
0.00123727
0.00113937
0.00104185
0.000918749
0.000826921
0.000759668
0.000715397
0.000698747
0.000677106
0.000642345
0.000620416
0.000617918
0.00062747
0.000651404
0.00071562
0.000818864
0.00115198
0.00145646
0.00214937
0.00330934
0.00399967
0.00473607
0.00510262
0.00511056
0.00501294
0.00472351
0.00428887
0.00355713
0.00290715
0.0023361
0.00191157
0.00169367
0.0017039
0.00177915
0.00197728
0.00224545
0.00282399
0.00381864
0.00564674
0.0101769
0.0160065
0.0221491
0.0334286
0.0476711
0.0670962
0.084316
0.108694
0.132332
0.164389
0.209489
0.301745
0.463085
0.536813
0.532874
0.507301
0.445679
0.36429
0.32709
0.323873
0.325717
0.331906
0.341239
0.342051
0.340886
0.336794
0.330239
0.32302
0.321407
0.321875
0.322981
0.323503
0.322053
0.317747
0.306325
0.293098
0.273375
0.241025
0.214274
0.183558
0.156504
0.13146
0.116272
0.0999573
0.0896561
0.0803152
0.0732697
0.0725986
0.0745671
0.0802346
0.0844192
0.0829984
0.0840292
0.0968663
0.189536
0.338476
0.35201
0.298198
0.271573
0.25063
0.232937
0.207404
0.16119
0.12402
0.108123
0.102224
0.0997272
0.0938515
0.0879178
0.0882863
0.0934166
0.0974969
0.0970098
0.0931188
0.0883371
0.0828743
0.0824565
0.082391
0.0820174
0.081508
0.0831007
0.0897263
0.0881933
0.086798
0.0860734
0.0904167
0.091212
0.0886874
0.077966
0.0766265
0.0763397
0.0957883
0.111264
0.116778
0.113533
0.0826238
0.0698776
0.0668152
0.0691576
0.0732373
0.0806997
0.0837792
0.0898954
0.0896857
0.089569
0.0917766
0.0943753
0.115662
0.13389
0.140614
0.138588
0.129768
0.120313
0.0978355
0.0821707
0.0682974
0.0638256
0.0628541
0.060481
0.0593559
0.0528853
0.0527948
0.0516678
0.0593379
0.0596397
0.0732876
0.0736918
0.0925321
0.0967581
0.133881
0.148535
0.209676
0.226468
0.274827
0.286778
0.307993
0.303341
0.258471
0.180392
0.147215
0.125798
0.121042
0.000206645
0.000208417
0.000214861
0.000217917
0.000217379
0.000215804
0.00021296
0.000211939
0.000209273
0.000205829
0.000204313
0.000201218
0.000195692
0.000190122
0.000183049
0.000178813
0.000172923
0.000169968
0.000167571
0.000161262
0.000159027
0.000159382
0.000163205
0.000172839
0.000179302
0.000180231
0.000180606
0.000180392
0.000182083
0.00019594
0.000207232
0.000212381
0.000218686
0.00022917
0.00023952
0.00027959
0.000334513
0.000385708
0.000549659
0.000684504
0.000782814
0.000814619
0.00082945
0.000831212
0.000823871
0.000810632
0.000770686
0.000766741
0.000795296
0.000847019
0.000941163
0.00126115
0.00163879
0.00249886
0.00369655
0.00674437
0.0103976
0.0180453
0.0292593
0.0417291
0.0609178
0.0839036
0.115115
0.146145
0.176665
0.207944
0.253452
0.310253
0.44282
0.581826
0.605368
0.587292
0.52459
0.383278
0.320465
0.304469
0.310091
0.324273
0.344244
0.361378
0.370477
0.372971
0.372936
0.372043
0.367762
0.35685
0.349649
0.33956
0.336303
0.335481
0.333895
0.331061
0.324134
0.315322
0.292412
0.273169
0.246606
0.221112
0.196994
0.165351
0.144646
0.122319
0.104622
0.0941835
0.0890591
0.0864182
0.0867694
0.0877788
0.0853783
0.0822405
0.0852061
0.108219
0.244348
0.339967
0.333065
0.30878
0.329381
0.327902
0.320646
0.282223
0.220611
0.151212
0.115578
0.102205
0.0965642
0.0892117
0.0842748
0.0836451
0.0887143
0.0935875
0.0918559
0.0878819
0.0827923
0.0871123
0.0867673
0.0877192
0.0854229
0.0829485
0.0842772
0.0852791
0.0855823
0.0844997
0.0942673
0.0953611
0.0974326
0.0945625
0.0845934
0.0845237
0.083464
0.101157
0.110556
0.111442
0.112653
0.0971959
0.0934049
0.078778
0.0800852
0.07863
0.0824347
0.0850764
0.0855864
0.0866403
0.0842779
0.0846409
0.084181
0.0892279
0.101092
0.125993
0.132198
0.130813
0.126013
0.111471
0.0963434
0.0825326
0.0738807
0.0704495
0.064215
0.0597806
0.0530053
0.0525548
0.0518476
0.0556917
0.0554414
0.0590642
0.0607694
0.069847
0.0796527
0.114639
0.13472
0.189378
0.209792
0.253301
0.264841
0.306833
0.319494
0.321854
0.274562
0.191662
0.142731
0.119252
8.82643e-05
8.93383e-05
9.34312e-05
9.53173e-05
9.55779e-05
9.61075e-05
9.65947e-05
9.77258e-05
9.81021e-05
9.85227e-05
9.87012e-05
9.87078e-05
9.88788e-05
9.93317e-05
9.99533e-05
0.000100929
0.000102227
0.000106025
0.000109567
0.00011602
0.000120559
0.000127231
0.000140467
0.000153978
0.000172634
0.000183963
0.000187719
0.000190075
0.000198372
0.000208177
0.000215731
0.000218168
0.000224228
0.00022788
0.000230939
0.000231575
0.000228187
0.000226523
0.000226998
0.00022904
0.000239274
0.000265579
0.000283498
0.000313949
0.00035976
0.000410998
0.00049317
0.00059084
0.000801924
0.0010768
0.00170817
0.00268977
0.00426765
0.00781795
0.0118107
0.0221141
0.0318851
0.0523665
0.0771908
0.100644
0.149256
0.191327
0.243518
0.284457
0.328559
0.368796
0.450748
0.590996
0.669693
0.669405
0.61846
0.448188
0.327137
0.287779
0.280808
0.286634
0.309305
0.328508
0.347134
0.362686
0.36957
0.373247
0.374566
0.373516
0.369762
0.36349
0.352294
0.340257
0.337148
0.333904
0.332607
0.33235
0.330565
0.325376
0.308381
0.290922
0.259352
0.236916
0.208175
0.178676
0.159136
0.136933
0.123848
0.118222
0.112574
0.105591
0.0979864
0.0885362
0.0802844
0.0790763
0.085531
0.125203
0.275236
0.331139
0.328604
0.346571
0.382278
0.416473
0.445844
0.399957
0.323327
0.218733
0.145479
0.110525
0.0954617
0.0876797
0.0840238
0.0835312
0.0878166
0.0914068
0.08979
0.081682
0.0804739
0.0826188
0.0832717
0.0885085
0.0877071
0.0893114
0.0875454
0.0836203
0.0843686
0.0866287
0.0929184
0.106169
0.105075
0.110136
0.104546
0.102353
0.10255
0.110973
0.113685
0.110324
0.10767
0.0963045
0.0934766
0.0878613
0.0935194
0.0920905
0.0948956
0.0904624
0.0865132
0.0837285
0.0827261
0.0819742
0.0821545
0.0830285
0.0856977
0.108623
0.120841
0.125889
0.124566
0.118247
0.108879
0.0940869
0.0851069
0.0784871
0.0692317
0.0616029
0.0556769
0.0541705
0.0536328
0.0543604
0.0544666
0.0559923
0.0598679
0.069366
0.0924001
0.144113
0.198375
0.267731
0.294811
0.299786
0.291399
0.293081
0.293958
0.298618
0.290862
0.244174
0.187319
0.144063
8.84204e-05
8.91849e-05
9.29289e-05
9.51848e-05
9.60633e-05
9.63212e-05
9.63654e-05
9.70137e-05
9.92277e-05
0.000101492
0.000104656
0.000108285
0.00011193
0.000115975
0.000128434
0.000141779
0.000166402
0.000206857
0.000233786
0.000290437
0.000323547
0.000377544
0.000441182
0.000494083
0.000563427
0.000630754
0.000658223
0.000657769
0.000662599
0.0006668
0.000663921
0.000657677
0.000648333
0.000637464
0.000608427
0.00054572
0.000484691
0.000427301
0.000383139
0.000370488
0.000374549
0.000393896
0.000429672
0.000516761
0.000626985
0.000862883
0.00114479
0.0017621
0.00278803
0.00398178
0.00675455
0.00977803
0.0165393
0.0252657
0.036114
0.064585
0.0866372
0.133419
0.180828
0.239408
0.327837
0.389283
0.440755
0.490258
0.527305
0.599855
0.696755
0.734485
0.707214
0.560029
0.36241
0.28626
0.259827
0.256886
0.255724
0.26105
0.273405
0.285615
0.30706
0.322434
0.33838
0.352202
0.361288
0.363178
0.361497
0.359396
0.349819
0.344665
0.340608
0.335461
0.334155
0.33313
0.331162
0.32722
0.321545
0.30683
0.282761
0.257878
0.22228
0.204887
0.189451
0.171873
0.154877
0.139287
0.124813
0.112225
0.0995401
0.0847321
0.0757666
0.0757037
0.0860436
0.144979
0.283193
0.318116
0.330316
0.36262
0.39469
0.43792
0.506586
0.555219
0.456842
0.329806
0.206709
0.136509
0.102118
0.0898592
0.0872314
0.0870395
0.0902607
0.093053
0.093794
0.0920712
0.0926168
0.0816162
0.0854891
0.0873294
0.0892497
0.0886435
0.087583
0.0835599
0.0827245
0.087531
0.0913304
0.106844
0.103734
0.122548
0.161319
0.129106
0.188744
0.144192
0.165657
0.131384
0.121163
0.0984189
0.0993561
0.0975491
0.108637
0.103974
0.104831
0.0968861
0.0932121
0.0850177
0.0851748
0.0830614
0.0850594
0.0841773
0.0855093
0.0953125
0.106044
0.115082
0.118693
0.116939
0.113213
0.102803
0.0932234
0.082504
0.0724234
0.0636473
0.0595867
0.0583647
0.0584591
0.0588444
0.0599683
0.0637982
0.0749513
0.098403
0.165744
0.255334
0.345948
0.407004
0.417189
0.410801
0.388655
0.346731
0.311306
0.300053
0.291372
0.251783
0.197765
0.157379
0.000228095
0.00023586
0.000243613
0.000243133
0.000239174
0.000234032
0.000234602
0.000246535
0.000293901
0.000333272
0.000385339
0.000441958
0.000483984
0.000540092
0.000691026
0.000804053
0.00105462
0.00133362
0.00151634
0.00181563
0.00206199
0.00233028
0.0027343
0.00311537
0.00335471
0.00340952
0.00340512
0.00353341
0.00359803
0.00359054
0.00355012
0.00345717
0.00329375
0.00310604
0.0028213
0.00252254
0.00230339
0.00208847
0.00189515
0.00183126
0.00184866
0.00192901
0.00210123
0.00251688
0.00305022
0.00418309
0.00539945
0.00824552
0.0110303
0.0160509
0.0241468
0.0328084
0.0524372
0.0715789
0.107415
0.161659
0.207907
0.312841
0.397384
0.493807
0.547092
0.572792
0.590971
0.621079
0.667531
0.743662
0.754736
0.675072
0.430837
0.315276
0.256061
0.237293
0.220288
0.195847
0.183251
0.181692
0.200024
0.233862
0.26867
0.297571
0.325386
0.345944
0.35842
0.367181
0.372151
0.377446
0.373979
0.375555
0.374233
0.365018
0.357246
0.346425
0.339184
0.33608
0.326368
0.308167
0.293082
0.268601
0.242362
0.225771
0.2052
0.182571
0.159116
0.140118
0.123397
0.109311
0.0936513
0.0780008
0.0716975
0.0728432
0.0862403
0.159676
0.280317
0.303315
0.322146
0.348763
0.368871
0.401858
0.495057
0.626089
0.627466
0.472019
0.317497
0.202054
0.132395
0.102573
0.0958747
0.0958497
0.098104
0.0972703
0.0958442
0.0977215
0.0997596
0.0978575
0.0997628
0.0913816
0.0990267
0.0905539
0.0915702
0.0838508
0.0830971
0.0865696
0.0877574
0.105044
0.111519
0.120099
0.364643
0.206728
0.561321
0.30225
0.565196
0.310264
0.30028
0.167745
0.170485
0.137276
0.162233
0.14265
0.147522
0.122448
0.1111
0.0922856
0.0933568
0.0880402
0.0910337
0.0885537
0.0886745
0.0900526
0.0996907
0.1101
0.11299
0.113166
0.111817
0.106763
0.0985825
0.0870392
0.0777311
0.0706132
0.0683318
0.0675945
0.0677896
0.0685383
0.0713318
0.0818019
0.112963
0.18294
0.35073
0.492996
0.599397
0.621045
0.614341
0.594255
0.545735
0.471172
0.385912
0.331162
0.302069
0.258063
0.210651
0.169149
0.0028509
0.00292605
0.0029336
0.00289935
0.00284141
0.00282287
0.00285414
0.00312309
0.00356057
0.00392001
0.00439223
0.00482416
0.00510657
0.00569454
0.00655383
0.00734551
0.00879616
0.00988602
0.010653
0.011925
0.0130178
0.0142993
0.0158163
0.0169039
0.0173947
0.0173913
0.0174768
0.0174609
0.0173383
0.0170392
0.0167005
0.0160262
0.0150587
0.0139962
0.0128331
0.0116777
0.0111044
0.0105383
0.0100135
0.00993521
0.0100337
0.0104001
0.0111763
0.0125273
0.0148837
0.0187516
0.0228587
0.0313168
0.039272
0.0558517
0.0705499
0.100777
0.141284
0.184131
0.269656
0.359165
0.482991
0.570724
0.608701
0.621191
0.622365
0.621014
0.63438
0.677848
0.713556
0.685228
0.499075
0.328881
0.268624
0.240691
0.213976
0.184745
0.16497
0.149257
0.14096
0.142805
0.160014
0.185936
0.220288
0.259
0.288089
0.31506
0.335344
0.356183
0.365556
0.368602
0.363284
0.362033
0.359548
0.355122
0.347328
0.337293
0.331841
0.326626
0.31517
0.299933
0.285832
0.261833
0.238973
0.221204
0.19941
0.175022
0.149839
0.129296
0.110045
0.0967497
0.0850812
0.0748345
0.070716
0.0722769
0.0868374
0.165787
0.267391
0.285857
0.306211
0.31843
0.306787
0.287833
0.364972
0.608536
0.760591
0.643051
0.474915
0.322744
0.199193
0.128399
0.106072
0.103218
0.104828
0.104402
0.101827
0.10131
0.101274
0.102536
0.103495
0.101403
0.101496
0.0954085
0.100933
0.0868689
0.0861673
0.0880885
0.0887592
0.110499
0.114075
0.133709
0.425151
0.217708
0.400007
0.289116
0.434438
0.330011
0.454109
0.327784
0.338426
0.262558
0.279978
0.221226
0.205455
0.14633
0.136923
0.11791
0.124833
0.112662
0.112429
0.103898
0.096397
0.0940231
0.0974309
0.104875
0.109645
0.110777
0.11119
0.11046
0.108625
0.0983812
0.0898564
0.0847798
0.0820045
0.0815638
0.0816181
0.0837675
0.0944229
0.136122
0.247906
0.475405
0.678862
0.738449
0.735268
0.719927
0.685369
0.664022
0.62948
0.586822
0.507105
0.411169
0.341218
0.290058
0.238157
0.188939
0.0311852
0.0312043
0.031052
0.0303158
0.0298415
0.0298095
0.0300857
0.0314074
0.0329708
0.0344258
0.036277
0.0375514
0.0387936
0.0413775
0.0442123