/*--------------------------------*- C++ -*----------------------------------*\
| =========                 |                                                 |
| \\      /  F ield         | OpenFOAM: The Open Source CFD Toolbox           |
|  \\    /   O peration     | Version:  2.4.0                                 |
|   \\  /    A nd           | Web:      www.OpenFOAM.org                      |
|    \\/     M anipulation  |                                                 |
\*---------------------------------------------------------------------------*/
FoamFile
{
    version     2.0;
    format      ascii;
    class       volSymmTensorField;
    location    "0.23";
    object      UPrime2Mean;
}
// * * * * * * * * * * * * * * * * * * * * * * * * * * * * * * * * * * * * * //

dimensions      [0 2 -2 0 0 0 0];

internalField   nonuniform List<symmTensor> 
8800
(
(0.00720796 0.000466151 0 0.000819862 0 0)
(0.137883 -0.00543061 0 0.000296189 0 0)
(0.269732 -0.000495678 0 6.13158e-05 0 0)
(0.335818 0.000836912 0 1.65891e-05 0 0)
(0.384142 0.000694438 0 4.0428e-06 0 0)
(0.42174 0.000527833 0 2.61788e-06 0 0)
(0.445232 0.000391591 0 2.8061e-06 0 0)
(0.465354 0.000211158 0 2.81377e-06 0 0)
(0.476954 0.000151682 0 3.51119e-06 0 0)
(0.490704 3.99047e-05 0 3.2657e-06 0 0)
(0.496555 6.44802e-05 0 3.39248e-06 0 0)
(0.509155 -7.85863e-05 0 3.75173e-06 0 0)
(0.512403 -3.50195e-05 0 3.94221e-06 0 0)
(0.529275 -0.000246337 0 4.41475e-06 0 0)
(0.5333 -0.000425343 0 5.51875e-06 0 0)
(0.561713 -0.000224982 0 7.58334e-06 0 0)
(0.592011 -0.00378101 0 5.09504e-05 0 0)
(0.617152 0.00799748 0 0.000295926 0 0)
(0.960489 -0.0726426 0 0.00742108 0 0)
(0.9962 0.112722 0 0.0224229 0 0)
(0.0376787 0.0124619 0 0.00486919 0 0)
(0.00324208 -0.00429844 0 0.00635979 0 0)
(0.0329037 -0.00874385 0 0.00254551 0 0)
(0.0668296 -0.00764124 0 0.000916035 0 0)
(0.105936 -0.00673897 0 0.000461859 0 0)
(0.15941 -0.0061095 0 0.000326856 0 0)
(0.207032 -0.00491476 0 0.000239603 0 0)
(0.260039 -0.00402982 0 0.000168723 0 0)
(0.29451 -0.00296576 0 9.98085e-05 0 0)
(0.338857 -0.00280988 0 7.98439e-05 0 0)
(0.355457 -0.00207992 0 3.87353e-05 0 0)
(0.40356 -0.00266126 0 4.91649e-05 0 0)
(0.400527 -0.00208542 0 3.69357e-05 0 0)
(0.469307 -0.00397991 0 8.92717e-05 0 0)
(0.444662 -0.00205747 0 4.70877e-05 0 0)
(0.556788 -0.0109388 0 0.000324719 0 0)
(0.530179 0.00123314 0 0.000195313 0 0)
(0.709581 -0.0442248 0 0.00318951 0 0)
(0.847649 -0.0181125 0 0.00199966 0 0)
(1.22414 -0.252304 0 0.0813257 0 0)
(0.0373071 0.00918994 0 0.00265813 0 0)
(0.00323484 0.0041676 0 0.00672839 0 0)
(0.00331988 0.00216373 0 0.00411804 0 0)
(0.0048344 0.000969925 0 0.00215443 0 0)
(0.00363253 -0.000305983 0 0.00160207 0 0)
(0.00689872 -0.00257417 0 0.00148151 0 0)
(0.0152915 -0.00375546 0 0.00127236 0 0)
(0.0357772 -0.00489294 0 0.000981972 0 0)
(0.0525366 -0.00449346 0 0.000689658 0 0)
(0.0833395 -0.00495987 0 0.000474714 0 0)
(0.0928676 -0.00412562 0 0.000256151 0 0)
(0.13722 -0.00465554 0 0.000283503 0 0)
(0.132034 -0.00449436 0 0.000211428 0 0)
(0.190677 -0.00569305 0 0.000415406 0 0)
(0.182642 -0.00589016 0 0.00040901 0 0)
(0.247324 -0.0099735 0 0.000856046 0 0)
(0.268765 -0.0125133 0 0.00129397 0 0)
(0.344824 -0.0250877 0 0.00277982 0 0)
(0.445415 -0.0632558 0 0.013686 0 0)
(0.644298 -0.167497 0 0.0861759 0 0)
(0.0360316 0.00630276 0 0.00131063 0 0)
(0.00330965 0.00281425 0 0.004428 0 0)
(0.00783867 0.00434141 0 0.00356318 0 0)
(0.017097 0.00483588 0 0.00198829 0 0)
(0.027773 0.0057323 0 0.00167466 0 0)
(0.0251391 0.00521557 0 0.00192248 0 0)
(0.0266191 0.00502307 0 0.00200489 0 0)
(0.0181956 0.00293013 0 0.0019055 0 0)
(0.0188104 0.0022483 0 0.00153123 0 0)
(0.0133164 0.000100268 0 0.00121174 0 0)
(0.0131814 0.000457396 0 0.000685518 0 0)
(0.014338 -0.00162011 0 0.000938086 0 0)
(0.0124648 -0.000644999 0 0.000481082 0 0)
(0.0194814 -0.00344449 0 0.00115762 0 0)
(0.0197612 -0.00149999 0 0.000655772 0 0)
(0.0310304 -0.00603354 0 0.00189532 0 0)
(0.0371827 -0.00456827 0 0.00131384 0 0)
(0.0607346 -0.0135353 0 0.00624714 0 0)
(0.0870239 -0.0277735 0 0.0157148 0 0)
(0.143078 -0.0664347 0 0.0766674 0 0)
(0.0385616 0.00485886 0 0.000763627 0 0)
(0.00304316 0.00137704 0 0.00286969 0 0)
(0.00686637 0.00316298 0 0.00264578 0 0)
(0.0160785 0.00381573 0 0.00147072 0 0)
(0.0332092 0.00504614 0 0.00114765 0 0)
(0.0361954 0.00557876 0 0.0014437 0 0)
(0.0504746 0.00687406 0 0.00170021 0 0)
(0.0456129 0.00624236 0 0.00181118 0 0)
(0.0592888 0.00635607 0 0.00156389 0 0)
(0.0512027 0.00480185 0 0.0015685 0 0)
(0.0642159 0.00508954 0 0.000800075 0 0)
(0.05369 0.00418152 0 0.00137928 0 0)
(0.0651469 0.00410947 0 0.000657625 0 0)
(0.0520405 0.00461001 0 0.00170798 0 0)
(0.0603479 0.00398738 0 0.000966626 0 0)
(0.0452178 0.00597623 0 0.00285883 0 0)
(0.0474225 0.00607939 0 0.00217703 0 0)
(0.0313432 0.0105775 0 0.0101324 0 0)
(0.0298654 0.0139496 0 0.0177852 0 0)
(0.0304326 0.0230582 0 0.102098 0 0)
(0.0396295 0.00345404 0 0.000446108 0 0)
(0.00276658 0.000730067 0 0.00197363 0 0)
(0.00488397 0.00192562 0 0.00188233 0 0)
(0.0128554 0.00272185 0 0.00111336 0 0)
(0.027229 0.0033524 0 0.00072727 0 0)
(0.0324271 0.00398269 0 0.000948648 0 0)
(0.0448886 0.00513129 0 0.00119427 0 0)
(0.0458148 0.00541525 0 0.00140288 0 0)
(0.0591114 0.00518663 0 0.00121261 0 0)
(0.0606312 0.00490037 0 0.00129484 0 0)
(0.0745942 0.00459099 0 0.000696984 0 0)
(0.0766828 0.00523101 0 0.00112943 0 0)
(0.0906651 0.00455963 0 0.000686043 0 0)
(0.0915606 0.00683446 0 0.00131237 0 0)
(0.103201 0.00651597 0 0.00102991 0 0)
(0.101656 0.0103086 0 0.00221966 0 0)
(0.106925 0.0140815 0 0.00279471 0 0)
(0.101711 0.0234593 0 0.00876444 0 0)
(0.102352 0.0415723 0 0.0235193 0 0)
(0.110818 0.0731943 0 0.0784541 0 0)
(0.037551 0.00226832 0 0.000269556 0 0)
(0.00284886 0.000560466 0 0.00134733 0 0)
(0.00366746 0.000919521 0 0.00125809 0 0)
(0.0116498 0.00207964 0 0.000875003 0 0)
(0.0220769 0.00213452 0 0.000471988 0 0)
(0.0307467 0.00284939 0 0.000652048 0 0)
(0.037009 0.00340219 0 0.000867197 0 0)
(0.0433772 0.00425758 0 0.000996277 0 0)
(0.0493682 0.00346861 0 0.000727625 0 0)
(0.0578196 0.00407641 0 0.00104432 0 0)
(0.0641764 0.00291625 0 0.000470933 0 0)
(0.0749171 0.00481343 0 0.000951191 0 0)
(0.0815405 0.00284165 0 0.000488159 0 0)
(0.0932139 0.00672053 0 0.00115679 0 0)
(0.0981006 0.00463819 0 0.000775395 0 0)
(0.109858 0.0118566 0 0.00219903 0 0)
(0.111389 0.0125167 0 0.00265568 0 0)
(0.122806 0.0293942 0 0.00953599 0 0)
(0.12508 0.0426103 0 0.0213852 0 0)
(0.154372 0.0882028 0 0.0691788 0 0)
(0.0380692 0.00152826 0 0.00015206 0 0)
(0.00343854 0.000352236 0 0.000764623 0 0)
(0.00400955 0.00053503 0 0.000710952 0 0)
(0.0107373 0.00130613 0 0.00051662 0 0)
(0.0206058 0.00140141 0 0.000271393 0 0)
(0.0278628 0.0018308 0 0.000404952 0 0)
(0.0352104 0.00229936 0 0.000541368 0 0)
(0.0389334 0.00276969 0 0.000605556 0 0)
(0.0463107 0.00236324 0 0.000474021 0 0)
(0.0513334 0.0025403 0 0.000625541 0 0)
(0.0605907 0.00203267 0 0.000391511 0 0)
(0.0668085 0.00291506 0 0.000610771 0 0)
(0.077336 0.00223577 0 0.000431345 0 0)
(0.083729 0.00417068 0 0.000724252 0 0)
(0.0944553 0.00439097 0 0.000607173 0 0)
(0.0999704 0.00878013 0 0.00160415 0 0)
(0.110602 0.0128057 0 0.00247162 0 0)
(0.116817 0.0258973 0 0.00835142 0 0)
(0.133535 0.0428459 0 0.0193981 0 0)
(0.15909 0.0833638 0 0.0592096 0 0)
(0.0367656 0.000695677 0 0.000112 0 0)
(0.00275183 -2.75758e-05 0 0.000420734 0 0)
(0.00324672 1.33313e-05 0 0.000391118 0 0)
(0.00954837 0.00057702 0 0.000293264 0 0)
(0.0179099 0.000595154 0 0.000202752 0 0)
(0.0265171 0.000866599 0 0.000304896 0 0)
(0.0311103 0.00105795 0 0.000399523 0 0)
(0.0372397 0.00146541 0 0.000413061 0 0)
(0.0411145 0.00108052 0 0.000308205 0 0)
(0.0491995 0.00143262 0 0.000444029 0 0)
(0.0541856 0.000866986 0 0.000331815 0 0)
(0.0642636 0.00187028 0 0.000478079 0 0)
(0.0697228 0.0011975 0 0.000342062 0 0)
(0.0812101 0.00302265 0 0.000551541 0 0)
(0.0857382 0.00328236 0 0.00048111 0 0)
(0.0984119 0.00732066 0 0.00132443 0 0)
(0.103107 0.0116828 0 0.00219091 0 0)
(0.119519 0.0232489 0 0.00721041 0 0)
(0.132297 0.0416484 0 0.0170654 0 0)
(0.170215 0.076876 0 0.0480937 0 0)
(0.0363155 0.000243031 0 7.05955e-05 0 0)
(0.00162122 -3.21045e-05 0 0.000211149 0 0)
(0.00240244 -2.70033e-05 0 0.000215173 0 0)
(0.00802403 0.000179117 0 0.000134879 0 0)
(0.0166039 0.000213512 0 0.00011819 0 0)
(0.0241669 0.00023527 0 0.000208377 0 0)
(0.0299802 0.000300036 0 0.000268047 0 0)
(0.0342236 0.000427957 0 0.000233703 0 0)
(0.039614 0.000339653 0 0.000188141 0 0)
(0.0453793 0.000423467 0 0.000253607 0 0)
(0.0525651 0.000193995 0 0.000284645 0 0)
(0.0598143 0.000780534 0 0.000328366 0 0)
(0.0680837 0.000546295 0 0.00029941 0 0)
(0.0762807 0.00183717 0 0.00036027 0 0)
(0.0849527 0.00228721 0 0.000426667 0 0)
(0.0941579 0.00624928 0 0.000926481 0 0)
(0.104526 0.00994157 0 0.00203019 0 0)
(0.118958 0.0222417 0 0.00578712 0 0)
(0.139494 0.0378164 0 0.0148709 0 0)
(0.178192 0.0729639 0 0.0383251 0 0)
(0.0359077 -0.000374621 0 8.24237e-05 0 0)
(0.00110978 -0.000219878 0 0.000226411 0 0)
(0.001899 -0.000216561 0 0.000232871 0 0)
(0.00746802 -0.000345868 0 0.000173325 0 0)
(0.0160515 -0.000387022 0 0.000168082 0 0)
(0.0236618 -0.000464709 0 0.000237787 0 0)
(0.0293323 -0.00064027 0 0.000289249 0 0)
(0.0337185 -0.000619009 0 0.000279672 0 0)
(0.0390866 -0.000719979 0 0.000254201 0 0)
(0.0450775 -0.000541055 0 0.000258959 0 0)
(0.0520211 -0.000731073 0 0.00031105 0 0)
(0.0595761 -0.000219204 0 0.000359057 0 0)
(0.0677007 -0.00030026 0 0.000287451 0 0)
(0.0763667 0.000680119 0 0.000332141 0 0)
(0.0851765 0.00144276 0 0.00029283 0 0)
(0.0954817 0.00450036 0 0.000842325 0 0)
(0.107364 0.00888006 0 0.00147886 0 0)
(0.124418 0.0191582 0 0.00502374 0 0)
(0.149493 0.0353431 0 0.011585 0 0)
(0.189803 0.0656245 0 0.030941 0 0)
(0.0356784 -0.000904902 0 8.48536e-05 0 0)
(0.00115925 -0.000341539 0 0.000363424 0 0)
(0.00202401 -0.000352405 0 0.000349892 0 0)
(0.00795012 -0.000841792 0 0.000257361 0 0)
(0.0165878 -0.000860913 0 0.000181258 0 0)
(0.024763 -0.00121042 0 0.000281411 0 0)
(0.0299411 -0.00145574 0 0.000355432 0 0)
(0.0352148 -0.00177074 0 0.000381003 0 0)
(0.0399199 -0.0015137 0 0.000332804 0 0)
(0.0470665 -0.00160963 0 0.000326286 0 0)
(0.0533198 -0.00139956 0 0.000358214 0 0)
(0.0622264 -0.00129251 0 0.000371958 0 0)
(0.0693557 -0.000945742 0 0.000314442 0 0)
(0.0798961 -0.000621032 0 0.000306104 0 0)
(0.087792 0.000504453 0 0.00035319 0 0)
(0.100803 0.00289116 0 0.000599603 0 0)
(0.112605 0.00727041 0 0.00135214 0 0)
(0.134691 0.0164046 0 0.00366107 0 0)
(0.160979 0.0313543 0 0.00936168 0 0)
(0.208362 0.0592068 0 0.0229129 0 0)
(0.0359656 -0.00159025 0 0.000138482 0 0)
(0.00106428 -0.000478554 0 0.0007068 0 0)
(0.00213387 -0.000622171 0 0.000662539 0 0)
(0.00858599 -0.0014058 0 0.000483889 0 0)
(0.0182542 -0.0015236 0 0.000288802 0 0)
(0.0260058 -0.00197164 0 0.000394631 0 0)
(0.0326039 -0.00251526 0 0.000528357 0 0)
(0.0371236 -0.00288244 0 0.000607127 0 0)
(0.0435526 -0.00264045 0 0.000537741 0 0)
(0.0495995 -0.00259386 0 0.000486804 0 0)
(0.0579077 -0.00239517 0 0.000440119 0 0)
(0.0653823 -0.0023213 0 0.000468646 0 0)
(0.0751667 -0.0019844 0 0.000350289 0 0)
(0.084063 -0.00185694 0 0.000352955 0 0)
(0.09547 -0.000761069 0 0.000348112 0 0)
(0.106965 0.00116216 0 0.000570409 0 0)
(0.123945 0.00523429 0 0.00106449 0 0)
(0.14527 0.0130271 0 0.00278464 0 0)
(0.179796 0.0265051 0 0.00696941 0 0)
(0.226775 0.0509718 0 0.017034 0 0)
(0.0362976 -0.00242345 0 0.000239189 0 0)
(0.00101842 -0.000751862 0 0.00125758 0 0)
(0.00250198 -0.00114979 0 0.00115272 0 0)
(0.0100005 -0.00215414 0 0.000784781 0 0)
(0.0209846 -0.00232705 0 0.000439291 0 0)
(0.0287709 -0.0030525 0 0.000593344 0 0)
(0.0363549 -0.00366022 0 0.000752795 0 0)
(0.0412975 -0.00433884 0 0.000930992 0 0)
(0.0488406 -0.00383129 0 0.000779137 0 0)
(0.0553614 -0.00401853 0 0.000773781 0 0)
(0.0644616 -0.00338409 0 0.000546697 0 0)
(0.0726131 -0.00384004 0 0.00064845 0 0)
(0.0829323 -0.00297093 0 0.000408097 0 0)
(0.0929048 -0.00370605 0 0.000509175 0 0)
(0.105023 -0.00189086 0 0.000397749 0 0)
(0.118518 -0.00133348 0 0.000618477 0 0)
(0.136128 0.00325777 0 0.000849249 0 0)
(0.160873 0.0084967 0 0.00205 0 0)
(0.197022 0.0210084 0 0.00490563 0 0)
(0.249047 0.0404251 0 0.0119506 0 0)
(0.0379505 -0.00361502 0 0.000436859 0 0)
(0.00132049 -0.000971072 0 0.00194878 0 0)
(0.00390925 -0.00215322 0 0.00186227 0 0)
(0.0118488 -0.00289433 0 0.00109795 0 0)
(0.0264634 -0.00359974 0 0.000724414 0 0)
(0.0316123 -0.00425991 0 0.000927078 0 0)
(0.0441908 -0.00536276 0 0.00117546 0 0)
(0.044988 -0.00567166 0 0.00140115 0 0)
(0.0586043 -0.0056303 0 0.00121498 0 0)
(0.0594686 -0.00521616 0 0.0011471 0 0)
(0.0748268 -0.00488929 0 0.000779296 0 0)
(0.0759131 -0.00506676 0 0.000915649 0 0)
(0.0923366 -0.00434086 0 0.000554544 0 0)
(0.0934935 -0.00514991 0 0.000737699 0 0)
(0.111105 -0.00316164 0 0.000486096 0 0)
(0.114417 -0.00337361 0 0.000738326 0 0)
(0.136043 0.00131044 0 0.000712591 0 0)
(0.148952 0.00394797 0 0.00148146 0 0)
(0.185581 0.0150531 0 0.00327146 0 0)
(0.223854 0.0270325 0 0.00741691 0 0)
(0.0377943 -0.00498475 0 0.000774387 0 0)
(0.00204656 -0.00149504 0 0.00287121 0 0)
(0.00596566 -0.00338468 0 0.00267505 0 0)
(0.0148525 -0.00391363 0 0.00146627 0 0)
(0.0324509 -0.00528976 0 0.0011699 0 0)
(0.0350114 -0.00575013 0 0.00143427 0 0)
(0.0497077 -0.00716568 0 0.00171411 0 0)
(0.0442639 -0.00641535 0 0.00184321 0 0)
(0.058439 -0.00674595 0 0.00162428 0 0)
(0.0497597 -0.00511237 0 0.00139451 0 0)
(0.0636372 -0.00533005 0 0.000971789 0 0)
(0.0528947 -0.00426383 0 0.00103863 0 0)
(0.065764 -0.00419198 0 0.000636067 0 0)
(0.0536718 -0.00361605 0 0.000845619 0 0)
(0.0657094 -0.00262564 0 0.000495109 0 0)
(0.0551687 -0.0020291 0 0.000787143 0 0)
(0.068344 0.00081608 0 0.000553197 0 0)
(0.0652794 0.00239432 0 0.00113667 0 0)
(0.0874744 0.00923682 0 0.00210855 0 0)
(0.105184 0.0146912 0 0.00434271 0 0)
(0.0357739 -0.00635749 0 0.00131402 0 0)
(0.00282118 -0.00281909 0 0.0044223 0 0)
(0.00727623 -0.00445223 0 0.00358159 0 0)
(0.0160821 -0.00483182 0 0.00199671 0 0)
(0.0271355 -0.00587468 0 0.00169951 0 0)
(0.0237558 -0.00523667 0 0.00193333 0 0)
(0.0259029 -0.00517952 0 0.00204255 0 0)
(0.0166189 -0.00289687 0 0.00190333 0 0)
(0.0175351 -0.00254142 0 0.00152084 0 0)
(0.011646 -0.000334385 0 0.00114879 0 0)
(0.0118363 -0.000636397 0 0.000766841 0 0)
(0.0123891 0.001071 0 0.000737768 0 0)
(0.010755 0.000423491 0 0.000452029 0 0)
(0.0180121 0.00205536 0 0.00056819 0 0)
(0.0152904 0.000931867 0 0.000313359 0 0)
(0.0275458 0.00278051 0 0.000515171 0 0)
(0.0252205 0.00120293 0 0.000368588 0 0)
(0.0402231 0.00384265 0 0.000693711 0 0)
(0.0437676 0.00326759 0 0.00141662 0 0)
(0.0626741 0.00811106 0 0.00211955 0 0)
(0.0372702 -0.00921149 0 0.00266054 0 0)
(0.00312901 -0.00415515 0 0.00671783 0 0)
(0.00308883 -0.00219611 0 0.00412224 0 0)
(0.00452304 -0.00095151 0 0.00214938 0 0)
(0.00320708 0.000256354 0 0.00160691 0 0)
(0.00653112 0.00257919 0 0.00147695 0 0)
(0.0143843 0.00369332 0 0.0012774 0 0)
(0.035713 0.00495876 0 0.000995283 0 0)
(0.0502062 0.00441257 0 0.000671056 0 0)
(0.0827534 0.00478828 0 0.000444789 0 0)
(0.0915171 0.00380845 0 0.000257531 0 0)
(0.131773 0.00434658 0 0.000240142 0 0)
(0.13033 0.00323051 0 0.000151205 0 0)
(0.177185 0.00412103 0 0.000187335 0 0)
(0.166635 0.00213239 0 0.000110081 0 0)
(0.214218 0.00361804 0 0.00019289 0 0)
(0.1977 -0.000384105 0 0.000168742 0 0)
(0.233421 0.00307207 0 0.000338757 0 0)
(0.2198 -0.00298672 0 0.000655941 0 0)
(0.22913 0.00607124 0 0.0013448 0 0)
(0.0376719 -0.0124652 0 0.00486998 0 0)
(0.003251 0.00430441 0 0.0063568 0 0)
(0.0328106 0.00873852 0 0.00254587 0 0)
(0.0668708 0.00764482 0 0.000914632 0 0)
(0.105646 0.00673586 0 0.000461693 0 0)
(0.159656 0.0061084 0 0.000325676 0 0)
(0.206352 0.00490693 0 0.000238213 0 0)
(0.260782 0.0040344 0 0.000165562 0 0)
(0.292822 0.00297149 0 9.97644e-05 0 0)
(0.339054 0.00264763 0 6.75614e-05 0 0)
(0.354334 0.00201255 0 3.92873e-05 0 0)
(0.397731 0.00218021 0 4.3265e-05 0 0)
(0.399635 0.00156431 0 3.39685e-05 0 0)
(0.444137 0.00193275 0 3.88397e-05 0 0)
(0.43465 0.000785658 0 2.96256e-05 0 0)
(0.476524 0.00123249 0 4.32893e-05 0 0)
(0.455914 -0.00127359 0 5.50374e-05 0 0)
(0.479366 0.000523743 0 9.69703e-05 0 0)
(0.460949 -0.00463702 0 0.000220795 0 0)
(0.432581 0.00303366 0 0.000804121 0 0)
(0.00720815 -0.000465609 0 0.00081987 0 0)
(0.1379 0.00543035 0 0.000296141 0 0)
(0.269704 0.00049754 0 6.12169e-05 0 0)
(0.335848 -0.000838772 0 1.65043e-05 0 0)
(0.384056 -0.000692357 0 3.89702e-06 0 0)
(0.421879 -0.000529288 0 2.51369e-06 0 0)
(0.445046 -0.000392771 0 2.70596e-06 0 0)
(0.465599 -0.000213445 0 2.68026e-06 0 0)
(0.476456 -0.000167402 0 2.73845e-06 0 0)
(0.490706 -5.91516e-05 0 2.53894e-06 0 0)
(0.495347 -9.38815e-05 0 2.96265e-06 0 0)
(0.507187 -5.52468e-07 0 2.8499e-06 0 0)
(0.508029 -9.65426e-05 0 2.53605e-06 0 0)
(0.519096 -7.92091e-06 0 1.99996e-06 0 0)
(0.515748 -0.000225511 0 2.06124e-06 0 0)
(0.523748 -0.000185923 0 1.97099e-06 0 0)
(0.512678 -0.0006084 0 3.21117e-06 0 0)
(0.510199 -0.00049131 0 5.42369e-06 0 0)
(0.495445 -0.00171853 0 1.52439e-05 0 0)
(0.451002 0.00238996 0 0.000163421 0 0)
(1.97675 -1.01494 0 0.626846 0 0)
(2.21245 -1.20145 0 0.877136 0 0)
(2.16722 -1.15451 0 1.04756 0 0)
(2.11842 -1.02083 0 1.17393 0 0)
(2.10037 -0.855551 0 1.25206 0 0)
(2.23653 -0.73701 0 1.30904 0 0)
(2.41547 -0.691152 0 1.35848 0 0)
(2.75866 -0.732784 0 1.42406 0 0)
(3.01874 -0.802791 0 1.49669 0 0)
(3.28552 -0.878133 0 1.56694 0 0)
(3.39785 -0.937527 0 1.64681 0 0)
(3.5463 -0.985508 0 1.74944 0 0)
(3.59204 -0.994961 0 1.86005 0 0)
(3.719 -1.0137 0 1.95394 0 0)
(3.83574 -1.0294 0 2.00921 0 0)
(3.97747 -1.09242 0 2.04401 0 0)
(4.08992 -1.18925 0 2.09452 0 0)
(4.14326 -1.31497 0 2.17838 0 0)
(4.0637 -1.42343 0 2.31441 0 0)
(4.00387 -1.53299 0 2.48662 0 0)
(3.9719 -1.56594 0 2.61418 0 0)
(3.93074 -1.61889 0 2.73375 0 0)
(4.00715 -1.68638 0 2.84952 0 0)
(4.01216 -1.74606 0 2.96606 0 0)
(4.14752 -1.82722 0 3.08273 0 0)
(4.21561 -1.87821 0 3.20751 0 0)
(4.36814 -1.94056 0 3.32143 0 0)
(4.50941 -2.0198 0 3.43068 0 0)
(4.69935 -2.1166 0 3.52983 0 0)
(4.81209 -2.23325 0 3.64753 0 0)
(4.97478 -2.37482 0 3.78157 0 0)
(5.04928 -2.50122 0 3.91347 0 0)
(5.14408 -2.63154 0 4.04703 0 0)
(5.2262 -2.74401 0 4.15699 0 0)
(5.32761 -2.86349 0 4.26229 0 0)
(5.49646 -2.9845 0 4.3264 0 0)
(5.6244 -3.09569 0 4.37928 0 0)
(5.83755 -3.22128 0 4.39428 0 0)
(5.96686 -3.31729 0 4.40571 0 0)
(6.1069 -3.39821 0 4.40544 0 0)
(6.18739 -3.46201 0 4.42913 0 0)
(6.21599 -3.48899 0 4.4578 0 0)
(6.25754 -3.51726 0 4.50123 0 0)
(6.22801 -3.49644 0 4.55841 0 0)
(6.30367 -3.52004 0 4.61828 0 0)
(6.30559 -3.49731 0 4.69988 0 0)
(6.46611 -3.54472 0 4.78256 0 0)
(6.55181 -3.55373 0 4.89766 0 0)
(6.81286 -3.63603 0 5.02439 0 0)
(6.99206 -3.6834 0 5.18611 0 0)
(7.31964 -3.78438 0 5.35614 0 0)
(7.5749 -3.84767 0 5.55529 0 0)
(7.89798 -3.92318 0 5.74017 0 0)
(8.18423 -3.96056 0 5.93405 0 0)
(8.4182 -3.95713 0 6.07758 0 0)
(8.68679 -3.93877 0 6.23565 0 0)
(8.81926 -3.84374 0 6.30043 0 0)
(9.05786 -3.75854 0 6.40539 0 0)
(9.16936 -3.63369 0 6.40789 0 0)
(9.43302 -3.5138 0 6.46944 0 0)
(9.59187 -3.43818 0 6.48107 0 0)
(9.95788 -3.36317 0 6.568 0 0)
(10.1537 -3.3445 0 6.66563 0 0)
(10.5714 -3.36061 0 6.83706 0 0)
(10.7265 -3.30027 0 6.97124 0 0)
(11.0336 -3.33997 0 7.16556 0 0)
(11.0847 -3.17535 0 7.21817 0 0)
(11.1783 -3.05607 0 7.2792 0 0)
(11.1127 -2.838 0 7.27703 0 0)
(11.1347 -2.64499 0 7.44281 0 0)
(11.0002 -2.45175 0 7.65602 0 0)
(11.0359 -2.19144 0 7.82829 0 0)
(10.9336 -1.91277 0 7.9691 0 0)
(11.0199 -1.68432 0 8.06181 0 0)
(10.8667 -1.38138 0 8.29086 0 0)
(10.9459 -1.17164 0 8.51498 0 0)
(10.8269 -0.843666 0 8.88744 0 0)
(10.8047 -0.606954 0 9.25559 0 0)
(10.6174 -0.240649 0 9.72379 0 0)
(10.4269 0.108536 0 10.1548 0 0)
(10.0603 0.504679 0 10.6075 0 0)
(9.74805 0.887738 0 10.8885 0 0)
(9.43137 1.23009 0 11.153 0 0)
(9.1024 1.53453 0 11.2821 0 0)
(8.86603 1.79797 0 11.3256 0 0)
(8.56991 2.08387 0 11.3496 0 0)
(8.37568 2.32414 0 11.388 0 0)
(8.04868 2.56853 0 11.5385 0 0)
(7.89033 2.85017 0 11.6973 0 0)
(7.56774 3.1291 0 11.9151 0 0)
(7.38008 3.36375 0 12.0114 0 0)
(7.04741 3.57327 0 12.0398 0 0)
(6.91671 3.83361 0 11.953 0 0)
(6.67337 4.05324 0 11.8306 0 0)
(6.62995 4.28487 0 11.6578 0 0)
(6.46441 4.44088 0 11.52 0 0)
(6.56761 4.57967 0 11.4446 0 0)
(6.5338 4.70892 0 11.4533 0 0)
(6.55857 4.75505 0 11.5802 0 0)
(6.3327 4.85996 0 11.8271 0 0)
(6.20057 4.92679 0 12.2249 0 0)
(5.78864 4.85614 0 12.5947 0 0)
(5.54939 4.85308 0 13.3181 0 0)
(5.17212 4.69019 0 13.7979 0 0)
(5.00092 4.51561 0 14.0559 0 0)
(4.69369 4.29421 0 14.2652 0 0)
(4.64287 4.17384 0 14.3931 0 0)
(4.34383 3.93944 0 14.4675 0 0)
(4.35141 3.80557 0 14.4201 0 0)
(4.0285 3.58448 0 14.4248 0 0)
(4.03625 3.33709 0 14.1747 0 0)
(3.65343 3.00395 0 14.1129 0 0)
(3.65348 2.65933 0 13.865 0 0)
(3.26386 2.24831 0 13.9748 0 0)
(3.29017 1.94329 0 13.93 0 0)
(2.96355 1.52112 0 14.0524 0 0)
(3.1149 1.36576 0 14.0139 0 0)
(2.85482 0.923174 0 14.1231 0 0)
(3.11148 0.864886 0 14.0827 0 0)
(2.88072 0.545736 0 14.0961 0 0)
(3.2287 0.507421 0 14.0468 0 0)
(2.9628 0.367763 0 13.9542 0 0)
(3.39545 0.433108 0 13.9765 0 0)
(3.05159 0.300399 0 13.8403 0 0)
(3.54195 0.471236 0 13.8821 0 0)
(3.15702 0.325233 0 13.5981 0 0)
(3.70565 0.600765 0 13.6012 0 0)
(3.27014 0.410327 0 13.3647 0 0)
(3.89482 0.808442 0 13.3866 0 0)
(3.35227 0.490866 0 13.137 0 0)
(4.06963 0.924352 0 13.2274 0 0)
(3.43848 0.545396 0 13.0328 0 0)
(4.12321 0.919915 0 13.1315 0 0)
(3.37178 0.526198 0 13.0421 0 0)
(3.99431 0.704816 0 13.0164 0 0)
(3.10298 0.329605 0 13.015 0 0)
(3.75974 0.426717 0 12.8804 0 0)
(2.79741 0.0835345 0 12.9949 0 0)
(3.52004 0.191031 0 12.8381 0 0)
(2.51555 -0.187414 0 12.8912 0 0)
(3.27178 -0.0800852 0 12.8161 0 0)
(2.29325 -0.460611 0 12.7676 0 0)
(3.11864 -0.371101 0 12.769 0 0)
(2.18613 -0.691553 0 12.5896 0 0)
(3.03519 -0.661323 0 12.6114 0 0)
(2.17165 -0.821068 0 12.4295 0 0)
(2.99977 -0.822965 0 12.451 0 0)
(2.19792 -0.839833 0 12.2855 0 0)
(2.95667 -0.824112 0 12.2919 0 0)
(2.22682 -0.932602 0 12.0365 0 0)
(2.88417 -0.843813 0 12.0189 0 0)
(2.27604 -1.05865 0 11.6939 0 0)
(2.80364 -0.905565 0 11.6577 0 0)
(2.31614 -1.10946 0 11.2769 0 0)
(2.73704 -1.02172 0 11.096 0 0)
(2.37546 -1.18613 0 10.6744 0 0)
(2.70812 -1.15096 0 10.3922 0 0)
(2.4516 -1.32483 0 10.0871 0 0)
(2.73728 -1.30255 0 9.78204 0 0)
(2.52395 -1.51325 0 9.73211 0 0)
(2.77563 -1.3904 0 9.64372 0 0)
(2.64506 -1.70662 0 9.51438 0 0)
(2.83039 -1.53776 0 9.41207 0 0)
(2.76652 -1.72031 0 9.13821 0 0)
(2.96637 -1.67208 0 9.01102 0 0)
(2.8484 -1.65142 0 8.70971 0 0)
(3.06509 -1.80347 0 8.70606 0 0)
(2.95456 -1.66472 0 8.45015 0 0)
(3.10073 -1.78132 0 8.41662 0 0)
(3.02745 -1.724 0 8.0451 0 0)
(3.14956 -1.70703 0 7.98519 0 0)
(3.03874 -1.77257 0 7.6789 0 0)
(3.13278 -1.64696 0 7.52504 0 0)
(2.97231 -1.71982 0 7.45838 0 0)
(3.02126 -1.51736 0 7.18127 0 0)
(2.92985 -1.47828 0 7.14614 0 0)
(2.88737 -1.27528 0 6.95717 0 0)
(2.92128 -1.12621 0 6.75895 0 0)
(2.76233 -0.967768 0 6.68868 0 0)
(2.93311 -0.67715 0 6.34844 0 0)
(2.6677 -0.657836 0 6.35815 0 0)
(2.892 -0.234125 0 5.92293 0 0)
(2.61433 -0.314404 0 6.02354 0 0)
(2.75435 0.105495 0 5.49144 0 0)
(2.50558 -0.00385992 0 5.73078 0 0)
(2.53401 0.383963 0 5.16956 0 0)
(2.27034 0.218907 0 5.49578 0 0)
(2.23934 0.590344 0 4.90023 0 0)
(2.028 0.37969 0 5.33025 0 0)
(1.90758 0.726988 0 4.56843 0 0)
(1.7362 0.357472 0 5.11238 0 0)
(1.71146 0.829531 0 4.1535 0 0)
(1.30795 0.160069 0 4.93893 0 0)
(1.57014 0.987211 0 4.05576 0 0)
(0.952214 0.134684 0 5.29761 0 0)
(1.46758 1.2241 0 4.20838 0 0)
(0.949119 0.257158 0 6.27193 0 0)
(1.25835 1.79593 0 5.57042 0 0)
(1.01429 0.835435 0 8.39374 0 0)
(0.487629 0.50213 0 8.79203 0 0)
(1.61677 -0.826184 0 0.71082 0 0)
(1.62063 -0.866503 0 0.920745 0 0)
(1.53148 -0.788978 0 0.970846 0 0)
(1.46835 -0.698486 0 0.997638 0 0)
(1.43968 -0.617776 0 0.998388 0 0)
(1.4774 -0.59296 0 0.99454 0 0)
(1.56167 -0.627074 0 1.01565 0 0)
(1.69599 -0.698257 0 1.06663 0 0)
(1.83016 -0.768579 0 1.12361 0 0)
(1.94464 -0.82399 0 1.1759 0 0)
(2.01745 -0.868389 0 1.2355 0 0)
(2.08325 -0.905872 0 1.31141 0 0)
(2.12892 -0.938086 0 1.39389 0 0)
(2.21336 -0.967407 0 1.47147 0 0)
(2.29859 -1.00563 0 1.53957 0 0)
(2.45614 -1.06299 0 1.60217 0 0)
(2.60216 -1.15443 0 1.67766 0 0)
(2.82636 -1.28216 0 1.76781 0 0)
(2.97088 -1.39807 0 1.8687 0 0)
(3.14532 -1.52437 0 1.98534 0 0)
(3.23198 -1.60067 0 2.09498 0 0)
(3.34817 -1.67726 0 2.20162 0 0)
(3.44444 -1.73685 0 2.30967 0 0)
(3.5799 -1.81235 0 2.42227 0 0)
(3.69341 -1.87148 0 2.54314 0 0)
(3.87281 -1.95149 0 2.67766 0 0)
(4.02826 -2.00774 0 2.81764 0 0)
(4.26736 -2.10036 0 2.95828 0 0)
(4.51376 -2.19481 0 3.09451 0 0)
(4.776 -2.32021 0 3.2315 0 0)
(5.06732 -2.46462 0 3.36827 0 0)
(5.28451 -2.60538 0 3.50129 0 0)
(5.53828 -2.75459 0 3.62631 0 0)
(5.66832 -2.86605 0 3.73792 0 0)
(5.8534 -2.98866 0 3.83558 0 0)
(5.92306 -3.06924 0 3.91803 0 0)
(6.03463 -3.14931 0 3.98099 0 0)
(6.07573 -3.19459 0 4.02372 0 0)
(6.1346 -3.23616 0 4.05049 0 0)
(6.18987 -3.26638 0 4.07033 0 0)
(6.21681 -3.27305 0 4.08081 0 0)
(6.29433 -3.29697 0 4.11263 0 0)
(6.33859 -3.29614 0 4.13986 0 0)
(6.4659 -3.33316 0 4.20968 0 0)
(6.58515 -3.3603 0 4.27456 0 0)
(6.77466 -3.42839 0 4.39728 0 0)
(6.99031 -3.49926 0 4.51417 0 0)
(7.22694 -3.5959 0 4.68736 0 0)
(7.51601 -3.68936 0 4.85194 0 0)
(7.74684 -3.78066 0 5.05904 0 0)
(8.05589 -3.85429 0 5.24324 0 0)
(8.22922 -3.89607 0 5.44681 0 0)
(8.49346 -3.9032 0 5.61542 0 0)
(8.58956 -3.86945 0 5.77547 0 0)
(8.77112 -3.78081 0 5.9042 0 0)
(8.83716 -3.6935 0 6.01536 0 0)
(8.97573 -3.53002 0 6.10618 0 0)
(9.08209 -3.44396 0 6.20752 0 0)
(9.24674 -3.27535 0 6.30104 0 0)
(9.42605 -3.25302 0 6.45213 0 0)
(9.65004 -3.1504 0 6.57652 0 0)
(9.90481 -3.1829 0 6.75936 0 0)
(10.1421 -3.14286 0 6.88738 0 0)
(10.4364 -3.13616 0 7.04245 0 0)
(10.5594 -3.05329 0 7.1319 0 0)
(10.7648 -2.92893 0 7.17516 0 0)
(10.7469 -2.74182 0 7.19039 0 0)
(10.8472 -2.58824 0 7.23167 0 0)
(10.7494 -2.38551 0 7.3321 0 0)
(10.7509 -2.24573 0 7.51904 0 0)
(10.6573 -2.04654 0 7.7087 0 0)
(10.7067 -1.84369 0 7.95264 0 0)
(10.5966 -1.60999 0 8.10697 0 0)
(10.7164 -1.38866 0 8.29967 0 0)
(10.5918 -1.14482 0 8.53219 0 0)
(10.7503 -0.960351 0 8.81973 0 0)
(10.5757 -0.647283 0 9.23789 0 0)
(10.5932 -0.385977 0 9.62705 0 0)
(10.2848 0.0857033 0 10.0772 0 0)
(10.0286 0.460448 0 10.4845 0 0)
(9.5928 0.924086 0 10.8707 0 0)
(9.33603 1.23484 0 11.1559 0 0)
(8.95399 1.58492 0 11.4283 0 0)
(8.72099 1.80349 0 11.4954 0 0)
(8.43219 2.08653 0 11.5316 0 0)
(8.22329 2.33266 0 11.593 0 0)
(7.93766 2.54648 0 11.6763 0 0)
(7.74941 2.84488 0 11.8385 0 0)
(7.50508 3.1124 0 11.9947 0 0)
(7.27198 3.4165 0 12.203 0 0)
(7.02275 3.62365 0 12.2267 0 0)
(6.83236 3.8423 0 12.1398 0 0)
(6.62831 4.0992 0 12.0316 0 0)
(6.57857 4.2942 0 11.8977 0 0)
(6.3886 4.43483 0 11.7437 0 0)
(6.50457 4.52214 0 11.619 0 0)
(6.45161 4.5939 0 11.6036 0 0)
(6.65095 4.69471 0 11.6468 0 0)
(6.45396 4.71204 0 11.8361 0 0)
(6.44438 4.85858 0 12.1126 0 0)
(6.14421 4.89599 0 12.5401 0 0)
(5.92198 4.87993 0 13.0067 0 0)
(5.57675 4.90354 0 13.7403 0 0)
(5.378 4.76669 0 14.0906 0 0)
(5.06773 4.63148 0 14.2956 0 0)
(4.95333 4.43492 0 14.4146 0 0)
(4.70495 4.33543 0 14.4853 0 0)
(4.67953 4.14117 0 14.4791 0 0)
(4.40705 4.00096 0 14.4526 0 0)
(4.50506 3.85298 0 14.4205 0 0)
(4.14637 3.57544 0 14.2451 0 0)
(4.34998 3.40809 0 14.2733 0 0)
(3.84353 2.97877 0 14.1278 0 0)
(4.04515 2.73898 0 14.3527 0 0)
(3.37953 2.18089 0 14.2555 0 0)
(3.64738 1.895 0 14.3204 0 0)
(3.01043 1.40198 0 14.2778 0 0)
(3.39691 1.15968 0 14.3075 0 0)
(2.82048 0.883558 0 14.2347 0 0)
(3.29291 0.719291 0 14.19 0 0)
(2.74325 0.495433 0 14.058 0 0)
(3.25855 0.513421 0 13.9709 0 0)
(2.73348 0.325754 0 13.9744 0 0)
(3.28063 0.406966 0 13.8852 0 0)
(2.75189 0.328693 0 13.8502 0 0)
(3.34717 0.345793 0 13.5754 0 0)
(2.82536 0.412484 0 13.5249 0 0)
(3.45971 0.397447 0 13.2188 0 0)
(2.9564 0.556281 0 13.3101 0 0)
(3.59499 0.488715 0 13.0646 0 0)
(3.04136 0.584979 0 13.1742 0 0)
(3.7503 0.573234 0 13.0192 0 0)
(3.07476 0.60122 0 13.1376 0 0)
(3.8075 0.625072 0 13.1714 0 0)
(2.99393 0.535311 0 13.1889 0 0)
(3.6749 0.455082 0 13.1838 0 0)
(2.81573 0.354222 0 13.0303 0 0)
(3.47771 0.221303 0 13.0286 0 0)
(2.63425 0.167893 0 12.9402 0 0)
(3.29242 -0.0164653 0 12.9383 0 0)
(2.41211 -0.115434 0 12.9357 0 0)
(3.08599 -0.281296 0 12.8647 0 0)
(2.24166 -0.454088 0 12.8729 0 0)
(2.99595 -0.522438 0 12.7428 0 0)
(2.14322 -0.7402 0 12.7065 0 0)
(2.97664 -0.678768 0 12.5367 0 0)
(2.09574 -0.87175 0 12.5314 0 0)
(3.01357 -0.738578 0 12.3919 0 0)
(2.04325 -0.847929 0 12.4019 0 0)
(3.1097 -0.7848 0 12.165 0 0)
(1.9923 -0.869599 0 12.1538 0 0)
(3.19157 -0.899184 0 11.8298 0 0)
(1.94836 -0.840629 0 11.7701 0 0)
(3.2206 -0.991792 0 11.3815 0 0)
(1.93578 -0.817651 0 11.233 0 0)
(3.21981 -1.15808 0 10.8788 0 0)
(1.96223 -0.940041 0 10.585 0 0)
(3.23967 -1.39226 0 10.4021 0 0)
(2.07168 -1.13778 0 10.0662 0 0)
(3.24818 -1.70565 0 10.0079 0 0)
(2.13357 -1.34186 0 9.74037 0 0)
(3.25695 -1.78471 0 9.68086 0 0)
(2.19909 -1.50184 0 9.36798 0 0)
(3.25829 -1.7792 0 9.09272 0 0)
(2.29683 -1.50821 0 9.0182 0 0)
(3.18615 -1.82662 0 8.77987 0 0)
(2.41255 -1.5648 0 8.70312 0 0)
(3.05896 -1.83259 0 8.52672 0 0)
(2.62305 -1.51081 0 8.26028 0 0)
(2.91871 -1.85116 0 8.20414 0 0)
(2.81097 -1.51574 0 7.76937 0 0)
(2.72924 -1.75847 0 7.80474 0 0)
(2.89314 -1.63105 0 7.34332 0 0)
(2.53431 -1.6371 0 7.40972 0 0)
(2.93121 -1.63015 0 7.12418 0 0)
(2.38733 -1.49869 0 6.99705 0 0)
(2.95935 -1.52272 0 6.92092 0 0)
(2.25056 -1.24213 0 6.6319 0 0)
(2.97661 -1.35036 0 6.6484 0 0)
(2.15377 -0.933666 0 6.26105 0 0)
(2.95921 -1.06135 0 6.43998 0 0)
(2.06782 -0.617427 0 5.84078 0 0)
(2.90651 -0.727977 0 6.24387 0 0)
(2.06766 -0.222132 0 5.42143 0 0)
(2.74406 -0.489352 0 6.00973 0 0)
(2.11498 0.240808 0 5.0553 0 0)
(2.39489 -0.283322 0 5.86125 0 0)
(2.10737 0.575782 0 4.71653 0 0)
(1.85978 -0.095521 0 5.77005 0 0)
(2.04382 0.764176 0 4.45125 0 0)
(1.38694 0.0163627 0 5.65525 0 0)
(1.84488 0.812935 0 4.08262 0 0)
(1.18388 0.019022 0 5.5056 0 0)
(1.60095 0.81538 0 3.77065 0 0)