/*--------------------------------*- C++ -*----------------------------------*\
| =========                 |                                                 |
| \\      /  F ield         | OpenFOAM: The Open Source CFD Toolbox           |
|  \\    /   O peration     | Version:  2.4.0                                 |
|   \\  /    A nd           | Web:      www.OpenFOAM.org                      |
|    \\/     M anipulation  |                                                 |
\*---------------------------------------------------------------------------*/
FoamFile
{
    version     2.0;
    format      ascii;
    class       volScalarField;
    location    "0.17";
    object      k_0;
}
// * * * * * * * * * * * * * * * * * * * * * * * * * * * * * * * * * * * * * //

dimensions      [0 2 -2 0 0 0 0];

internalField   nonuniform List<scalar> 
8800
(
8.12743
10.2617
8.81383
6.79459
5.73523
4.94217
4.55137
4.11975
3.93504
3.64378
3.5506
3.36012
3.28549
3.15109
3.07328
2.96769
2.86467
2.77051
2.65146
2.5093
1.4084
4.34426
5.33414
5.28543
5.13621
4.78688
4.59839
4.27284
4.13188
3.87153
3.7751
3.5905
3.50683
3.38319
3.31315
3.2103
3.15011
3.05956
2.96405
2.91701
0.0846008
0.721454
1.57615
1.93974
2.28238
2.42751
2.58471
2.59744
2.62343
2.6066
2.58812
2.54229
2.52487
2.47623
2.46071
2.41796
2.40906
2.37259
2.36006
2.31504
0.00336663
0.0692066
0.258017
0.430423
0.574688
0.704874
0.836551
0.930693
1.01485
1.10847
1.15766
1.20626
1.27482
1.29754
1.34361
1.37361
1.4132
1.44125
1.49331
1.50648
0.000124009
0.00492052
0.0217207
0.0607959
0.0830632
0.129213
0.156691
0.208897
0.235216
0.294398
0.317169
0.357337
0.393363
0.430269
0.452681
0.506782
0.533494
0.588421
0.620555
0.697175
2.48948e-05
0.000306943
0.00144615
0.00530863
0.00760346
0.0133995
0.0173308
0.0266372
0.0319935
0.046224
0.0521933
0.0647465
0.0727809
0.0873188
0.0942199
0.112951
0.122589
0.144991
0.157566
0.195586
2.16315e-05
4.24028e-05
0.000119971
0.000412253
0.000558299
0.000948334
0.00124635
0.0020391
0.00252586
0.00411951
0.00487139
0.00648393
0.00776761
0.0100833
0.0111966
0.0144069
0.0162696
0.0206113
0.023584
0.0322662
2.10372e-05
2.86993e-05
4.43188e-05
8.33515e-05
9.381e-05
0.000119094
0.000134649
0.000177138
0.000198172
0.000300346
0.00035229
0.000432372
0.000567098
0.000740569
0.000812343
0.00106187
0.00123063
0.00163878
0.00195286
0.00274098
2.09553e-05
2.76172e-05
4.05665e-05
6.62547e-05
6.88429e-05
7.12339e-05
7.20774e-05
7.58195e-05
7.81875e-05
8.8236e-05
9.12081e-05
9.29364e-05
9.85546e-05
0.00010958
0.000113635
0.000127006
0.000136317
0.000154998
0.000168544
0.000201249
2.06325e-05
2.6339e-05
4.63539e-05
6.40845e-05
6.29947e-05
6.21802e-05
6.36264e-05
6.76872e-05
6.93911e-05
7.46612e-05
7.58629e-05
7.51664e-05
7.51587e-05
7.49134e-05
7.46383e-05
7.59632e-05
8.01893e-05
8.19731e-05
8.26818e-05
8.58045e-05
2.05995e-05
2.79862e-05
5.07002e-05
5.4329e-05
5.4827e-05
6.27432e-05
6.78417e-05
7.2908e-05
7.37288e-05
7.63135e-05
7.56741e-05
7.34613e-05
7.39208e-05
7.57834e-05
7.75501e-05
7.84502e-05
7.9454e-05
8.22515e-05
8.41181e-05
8.59477e-05
2.07985e-05
3.41961e-05
4.28679e-05
4.67941e-05
6.33545e-05
7.60766e-05
8.18352e-05
8.64756e-05
8.69255e-05
8.8554e-05
8.73e-05
8.84527e-05
9.91971e-05
0.000107066
0.000109458
0.000116204
0.000129142
0.000148374
0.000156063
0.000172919
2.10748e-05
3.33261e-05
4.28568e-05
6.99582e-05
9.40149e-05
0.000125828
0.000143564
0.000187001
0.000216812
0.000287018
0.00032418
0.0004053
0.000515257
0.00061966
0.000700216
0.000972211
0.00115244
0.00153423
0.00172132
0.00207919
2.16189e-05
4.28439e-05
0.000120545
0.000335838
0.000483193
0.00091655
0.00125455
0.00216418
0.00272935
0.00389091
0.00458943
0.00625181
0.0071944
0.00932689
0.0106468
0.0138757
0.0155378
0.0195204
0.0216895
0.0272909
2.50521e-05
0.000300138
0.00155637
0.00437473
0.00679221
0.013456
0.0177303
0.0276312
0.033373
0.0441608
0.0503325
0.0643943
0.0710442
0.0852588
0.0927664
0.111012
0.119464
0.139919
0.150403
0.178017
0.000124737
0.0048588
0.0246229
0.0526711
0.0812215
0.132759
0.158595
0.208839
0.245392
0.283638
0.311315
0.363971
0.385077
0.42913
0.451062
0.502957
0.524172
0.578052
0.601923
0.665193
0.00337907
0.0690803
0.260947
0.415495
0.582481
0.713477
0.823122
0.934694
1.03172
1.08718
1.15593
1.22008
1.25321
1.30139
1.32928
1.37847
1.39427
1.43948
1.45788
1.50015
0.0846823
0.724977
1.56706
1.93466
2.28594
2.43336
2.57463
2.60386
2.62478
2.59731
2.58727
2.54169
2.52501
2.47105
2.45846
2.41813
2.40652
2.37736
2.36853
2.34312
1.4067
4.34559
5.32089
5.28632
5.13527
4.79523
4.59445
4.27729
4.12279
3.88132
3.77986
3.57833
3.52438
3.37192
3.33578
3.21215
3.18825
3.07694
3.04682
2.95679
8.11713
10.2612
8.79722
6.81685
5.71821
4.95466
4.54743
4.12914
3.92326
3.66147
3.55635
3.35667
3.30883
3.14863
3.12131
2.96533
2.94123
2.77623
2.72435
2.51806
1.62472
1.0387
0.757184
0.645041
0.577813
0.54087
0.510666
0.470171
0.419765
0.379644
0.341682
0.333606
0.32218
0.309959
0.28539
0.274931
0.254867
0.248345
0.239124
0.230993
0.226968
0.229772
0.22781
0.226928
0.219056
0.210453
0.191554
0.177331
0.167889
0.163858
0.162748
0.16519
0.180401
0.197077
0.213461
0.221517
0.225127
0.226218
0.227109
0.230329
0.239453
0.2557
0.257206
0.253995
0.246313
0.228885
0.201765
0.138795
0.0761661
0.0430503
0.0270777
0.0190081
0.0153297
0.0139691
0.0136401
0.0131693
0.0123691
0.0119099
0.0115303
0.0115798
0.0116476
0.0112049
0.0104662
0.0102861
0.0103132
0.0105544
0.0113682
0.0132559
0.0175173
0.0277983
0.0527559
0.12044
0.157968
0.17488
0.182328
0.182451
0.179991
0.174463
0.169402
0.167171
0.164001
0.155873
0.151968
0.145028
0.138218
0.132535
0.120883
0.0935327
0.0595915
0.0480652
0.0507753
0.0796797
0.0917526
0.0882946
0.0728858
0.0608797
0.0587077
0.0596126
0.0647104
0.0866676
0.118013
0.129885
0.129741
0.125164
0.110337
0.0871
0.0710906
0.0612972
0.0550458
0.0491362
0.044893
0.0419393
0.0375913
0.0331029
0.0296236
0.0282097
0.0278266
0.0283651
0.0313106
0.041816
0.0759921
0.0982495
0.115624
0.163231
0.212994
0.221326
0.199546
0.184931
0.19563
0.210726
0.20425
0.181964
0.161757
0.141968
0.122312
0.101203
0.0841955
0.0700233
0.0611619
0.0550353
0.0506953
0.0478863
0.0451731
0.0422082
0.041702
0.0420874
0.043149
0.0456519
0.0530366
0.0589066
0.0611897
0.0642463
0.0714566
0.100061
0.216646
0.284301
0.282784
0.212701
0.115678
0.0866476
0.0868734
0.0980165
0.11152
0.110966
0.104199
0.0859551
0.0790325
0.065231
0.062715
0.0566525
0.0566357
0.0535562
0.0531988
0.0504736
0.0513019
0.0499126
0.0514492
0.0518133
0.0560543
0.0621105
0.0653101
0.0668469
0.0670017
0.0654224
0.0637984
0.0588926
0.0600735
0.0584055
0.0620511
0.0630026
0.0693169
0.0761249
0.111403
0.113644
0.11803
0.0957293
0.108646
0.105693
0.232347
0.578634
2.45521
1.98014
1.62456
1.3752
1.20112
1.08676
0.999944
0.935722
0.858381
0.807045
0.741814
0.664822
0.581264
0.527177
0.460327
0.414301
0.386998
0.362626
0.347659
0.337785
0.33556
0.33321
0.325879
0.321983
0.317348
0.305906
0.290227
0.280728
0.261568
0.250392
0.241061
0.23838
0.239137
0.243076
0.246947
0.254486
0.262656
0.270412
0.286919
0.289213
0.286442
0.279221
0.26754
0.243638
0.217525
0.163705
0.0968408
0.0536138
0.0307482
0.0203154
0.015187
0.0130033
0.0121252
0.0121668
0.0127197
0.0127506
0.0121247
0.0118164
0.012369
0.0135362
0.014121
0.0144948
0.0144286
0.0143118
0.0144662
0.0150702
0.0165518
0.0197772
0.0283222
0.0524674
0.122137
0.164034
0.17518
0.18028
0.179064
0.171038
0.158991
0.15749
0.158675
0.158769
0.156033
0.147623
0.144887
0.142025
0.137774
0.131747
0.127289
0.118653
0.0916361
0.058973
0.0540209
0.0647179
0.08756
0.0878412
0.0833115
0.0700681
0.0624079
0.0609609
0.0619082
0.0679403
0.094914
0.125773
0.134567
0.133728
0.128343
0.113196
0.092523
0.0767994
0.064924
0.0545967
0.0498241
0.0465339
0.0409876
0.0342618
0.0304009
0.0294764
0.0294897
0.0305016
0.0350347
0.0482838
0.0902608
0.116382
0.133019
0.180697
0.229458
0.232246
0.208251
0.205337
0.223352
0.226113
0.206377
0.182008
0.162426
0.140681
0.112731
0.089836
0.0730849
0.0626997
0.0553101
0.0488389
0.0438968
0.0407109
0.0390156
0.0378119
0.0379333
0.0381882
0.038693
0.0403144
0.0449475
0.0524971
0.0556783
0.0590727
0.065488
0.084113
0.178265
0.269116
0.279409
0.242144
0.134572
0.0886683
0.0789871
0.0813693
0.0930301
0.101367
0.10132
0.0941035
0.0894144
0.0761953
0.072912
0.0633433
0.062339
0.0572314
0.0566249
0.0539167
0.0551115
0.054293
0.0563907
0.0608458
0.0642191
0.068679
0.0658113
0.0672272
0.0617675
0.0604226
0.0534502
0.0514282
0.0526505
0.0519348
0.0611896
0.0597383
0.0765051
0.0768577
0.121232
0.129919
0.235678
0.216322
0.305209
0.195339
0.318591
0.452382
2.06828
1.8241
1.59141
1.41781
1.2751
1.17092
1.08834
1.02743
0.964397
0.92259
0.873846
0.842714
0.801921
0.773862
0.727541
0.695569
0.6631
0.619967
0.596508
0.579299
0.555958
0.543079
0.538874
0.52726
0.521919
0.513254
0.488511
0.475911
0.455679
0.434701
0.414147
0.394357
0.38032
0.373147
0.369015
0.364768
0.354666
0.342344
0.327972
0.306666
0.281258
0.248342
0.204073
0.149921
0.0917093
0.0536116
0.0312898
0.0190873
0.0135015
0.0114638
0.0104446
0.0104737
0.0108689
0.0118077
0.0133232
0.013355
0.0131807
0.0135867
0.0161357
0.0180687
0.0188173
0.0188144
0.0186136
0.0187175
0.01949
0.0207542
0.0228505
0.0285217
0.0469466
0.11271
0.161067
0.176452
0.176717
0.167083
0.146773
0.128475
0.12445
0.126982
0.134366
0.134933
0.132519
0.129446
0.12639
0.126896
0.128522
0.127657
0.125308
0.122291
0.114814
0.0809168
0.0593097
0.0597359
0.0733322
0.0837812
0.0822149
0.0766296
0.0682716
0.0635252
0.0624223
0.0633515
0.0709329
0.108222
0.134311
0.138805
0.13671
0.130027
0.112266
0.096215
0.0820231
0.0675373
0.0586224
0.0531997
0.0463941
0.0378832
0.0336048
0.0328769
0.0331526
0.0348264
0.0408489
0.0593592
0.107087
0.134047
0.149581
0.19497
0.240931
0.238113
0.221437
0.229937
0.24399
0.235777
0.204478
0.185692
0.167238
0.134858
0.10468
0.0819443
0.0659725
0.0566182
0.0468987
0.0417561
0.0352574
0.033651
0.0335173
0.0337997
0.0346742
0.0347704
0.0348726
0.0357557
0.0386864
0.0463221
0.0502705
0.0535192
0.0598858
0.0739521
0.147329
0.252697
0.275776
0.257833
0.166004
0.0960561
0.0744784
0.0730644
0.0774503
0.087116
0.0962352
0.0934692
0.0935427
0.0853496
0.0822596
0.0717384
0.0704391
0.0643999
0.0640479
0.061658
0.0633431
0.0631641
0.0664857
0.0689652
0.0683417
0.0691914
0.0624403
0.0613543
0.0528745
0.0518498
0.0486684
0.0485152
0.0488291
0.0497573
0.05309
0.0544375
0.0635739
0.0637962
0.0758686
0.0883701
0.152808
0.184111
0.284635
0.314284
0.361989
0.437778
1.40174
1.28215
1.16951
1.06936
0.981174
0.906474
0.860249
0.822419
0.790111
0.76454
0.722821
0.701278
0.673274
0.658487
0.649655
0.630617
0.613362
0.602811
0.579131
0.560291
0.547206
0.536185
0.532404
0.521726
0.519599
0.520443
0.51952
0.50785
0.497936
0.485375
0.472465
0.459498
0.443042
0.420238
0.398539
0.370722
0.342137
0.304508
0.251003
0.198379
0.145161
0.0950934
0.0602247
0.0376817
0.0238165
0.0151774
0.0107
0.00854017
0.00846994
0.00870515
0.00906774
0.00978252
0.0115091
0.0143328
0.016232
0.0165836
0.0168884
0.0195948
0.023709
0.0256226
0.0262668
0.0259516
0.0257395
0.0260262
0.0266147
0.0276596
0.0309549
0.0439755
0.097456
0.153673
0.174232
0.17359
0.158105
0.130094
0.120925
0.116672
0.115411
0.116814
0.118642
0.119342
0.118911
0.119433
0.120202
0.118439
0.117131
0.117509
0.118583
0.119562
0.118545
0.106814
0.0703864
0.061536
0.0641586
0.0729478
0.0772643
0.0757332
0.0713842
0.0664521
0.0633125
0.06309
0.0650339
0.0789714
0.123084
0.139001
0.139362
0.136063
0.125818
0.110758
0.0973023
0.0834594
0.073282
0.0653992
0.0553615
0.0438263
0.0386358
0.0378407
0.0383977
0.0409458
0.0488847
0.0795001
0.12624
0.149627
0.162191
0.213155
0.24809
0.239217
0.234471
0.250683
0.257217
0.235736
0.205509
0.195323
0.168434
0.12724
0.0953625
0.0713757
0.0572337
0.0455493
0.0387894
0.0339689
0.0306427
0.0292847
0.0292551
0.0295467
0.0301838
0.0318354
0.0327249
0.0334544
0.0352908
0.0412032
0.0448366
0.0478237
0.0533931
0.0647673
0.109573
0.217909
0.263487
0.258546
0.203596
0.11344
0.0780999
0.0678241
0.070965
0.0751872
0.0886107
0.0897162
0.0932194
0.0880664
0.0858555
0.0769785
0.0761357
0.0715521
0.071713
0.0708211
0.0703573
0.0703594
0.0692817
0.068665
0.0627023
0.0602985
0.0532122
0.0499103
0.0488848
0.0474759
0.0472518
0.0478694
0.0482301
0.0516311
0.051091
0.0546797
0.0540873
0.055298
0.0548486
0.060379
0.0646702
0.106817
0.129771
0.230764
0.25395
0.344034
0.667496
0.628135
0.586253
0.548764
0.516394
0.476598
0.443879
0.433019
0.428552
0.427935
0.427058
0.419228
0.403691
0.388312
0.383136
0.381049
0.375739
0.37412
0.373266
0.371855
0.36474
0.349034
0.337372
0.330228
0.321914
0.320953
0.324699
0.32595
0.3264
0.323669
0.310592
0.298514
0.274206
0.246928
0.216319
0.176183
0.136976
0.0996269
0.0692331
0.0467526
0.0306565
0.0202494
0.013287
0.00956286
0.00722251
0.00617183
0.00625136
0.00655122
0.00761333
0.00841796
0.00975317
0.0125693
0.0167625
0.021416
0.0239467
0.0241193
0.0250243
0.0312916
0.0331415
0.0332692
0.0333335
0.0332203
0.0341606
0.0348816
0.0343334
0.0348557
0.041272
0.0787432
0.141149
0.167055
0.166337
0.148299
0.129081
0.120554
0.117599
0.11618
0.115365
0.114245
0.11306
0.113231
0.114984
0.116752
0.117849
0.117064
0.113173
0.111391
0.111351
0.113188
0.116909
0.113738
0.091858
0.0677443
0.0656172
0.0691159
0.0703121
0.0713279
0.070252
0.0674012
0.0649722
0.0644862
0.0651219
0.0689236
0.0968582
0.132167
0.139248
0.138161
0.133136
0.120363
0.109278
0.0992945
0.0892197
0.0788574
0.0644294
0.0504333
0.0447406
0.044289
0.0452568
0.0491984
0.0600745
0.105163
0.147368
0.158858
0.168882
0.222496
0.250317
0.23956
0.243204
0.264125
0.26362
0.231863
0.216939
0.20371
0.16281
0.115318
0.0834008
0.0625982
0.0494166
0.0410144
0.0356013
0.0315615
0.0295434
0.0278235
0.0270366
0.0270438
0.0277278
0.0306923
0.0329266
0.0334858
0.0345659
0.0391224
0.0414707
0.0436246
0.0482396
0.0580652
0.0911706
0.192187
0.249278
0.253633
0.226616
0.143894
0.089857
0.069421
0.0692911
0.0700314
0.0773406
0.0799192
0.0903497
0.0870956
0.08678
0.081583
0.0788765
0.0747995
0.0720482
0.0711638
0.0685193
0.0678939
0.0635649
0.060461
0.0552707
0.0505724
0.0502023
0.0484725
0.0504461
0.0493989
0.0520015
0.0505096
0.0530392
0.052514
0.0529092
0.0557672
0.0549142
0.0586041
0.0557834
0.058622
0.0551172
0.0686118
0.0717016
0.119513
0.144294
0.228557
0.192654
0.187887
0.177259
0.17171
0.163363
0.150225
0.142011
0.141103
0.141921
0.146341
0.153116
0.155288
0.154063
0.148719
0.146578
0.145945
0.143349
0.142485
0.14601
0.147111
0.146671
0.14534
0.141596
0.134728
0.122824
0.118163
0.118266
0.117793
0.117178
0.115414
0.110882
0.106731
0.0969342
0.08308
0.0660284
0.0495795
0.0354242
0.0240416
0.0158086
0.0103232
0.00703531
0.00518084
0.00430857
0.00430123
0.00445767
0.00508829
0.006088
0.00767631
0.0109979
0.0137347
0.0192533
0.0256969
0.0305951
0.0363486
0.0387343
0.0392243
0.0420761
0.0441432
0.0454894
0.0466696
0.0463719
0.043383
0.041586
0.0392041
0.0390957
0.0421189
0.0591238
0.125935
0.158367
0.160046
0.149172
0.136072
0.126038
0.121901
0.122459
0.122095
0.11865
0.113359
0.111282
0.111546
0.116122
0.119271
0.119214
0.117063
0.11245
0.107965
0.106489
0.107304
0.113618
0.1132
0.10176
0.0747499
0.0682335
0.0695855
0.0690478
0.0667529
0.066343
0.0658722
0.0668454
0.0691949
0.0705022
0.0731341
0.0812277
0.11655
0.135785
0.137227
0.135059
0.126381
0.11687
0.111009
0.102645
0.0911775
0.0738152
0.0594385
0.0537209
0.0534951
0.0547138
0.059895
0.075201
0.132527
0.15911
0.16241
0.171294
0.228127
0.24785
0.239375
0.25132
0.27269
0.263478
0.23247
0.228209
0.210054
0.157764
0.109424
0.0784929
0.0579255
0.0466544
0.03953
0.0344903
0.0311151
0.029317
0.0278243
0.0269525
0.0267256
0.0276583
0.0314307
0.0344653
0.0343566
0.035145
0.0393933
0.0412803
0.042048
0.044558
0.0519603
0.0757215
0.16867
0.23014
0.249754
0.235632
0.173709
0.109433
0.0749597
0.0699318
0.0639656
0.0657764
0.0701037
0.0724359
0.0797276
0.0790429
0.0788212
0.0744072
0.0727664
0.0687663
0.0679516
0.0639339
0.0603587
0.0568307
0.0530432
0.0525517
0.0515085
0.0538609
0.0543696
0.0591096
0.0588807
0.062385
0.0609091
0.0628371
0.0596802
0.0589499
0.0547829
0.053971
0.0527659
0.049691
0.0525273
0.0517897
0.0629285
0.064189
0.086557
0.0927382
0.127996
0.0323729
0.0321478
0.031263
0.0307063
0.0294721
0.0279365
0.0275046
0.0275885
0.0288617
0.0317184
0.0349722
0.0362561
0.0358976
0.034904
0.0340212
0.0329776
0.0316207
0.0312261
0.0334967
0.0362772
0.0378342
0.0383137
0.0381617
0.0361346
0.0307618
0.027368
0.0258646
0.0255172
0.0262678
0.0263193
0.0260364
0.0250655
0.0236427
0.0201912
0.0153083
0.0108918
0.00723871
0.00494531
0.00345086
0.00271088
0.00269253
0.00281938
0.00329265
0.00409234
0.00577651
0.00942316
0.0132024
0.0186796
0.0264388
0.0350052
0.0450455
0.0512403
0.0582013
0.0632455
0.0631965
0.0623885
0.059432
0.0558359
0.0572634
0.060639
0.0600287
0.0546971
0.0472747
0.0461562
0.0480068
0.0563536
0.101918
0.155966
0.162856
0.153335
0.143076
0.136834
0.133917
0.13548
0.136054
0.132545
0.121366
0.112885
0.110526
0.111129
0.116255
0.118093
0.116339
0.112946
0.110676
0.106773
0.102486
0.102375
0.108439
0.111711
0.106284
0.0837122
0.0733873
0.0724514
0.0700696
0.065587
0.0644556
0.0649783
0.0718191
0.079278
0.0806738
0.0807884
0.0825614
0.103081
0.128985
0.134874
0.134177
0.128423
0.121275
0.118129
0.113773
0.102121
0.0825732
0.0683608
0.0631014
0.0625771
0.0639164
0.0701547
0.0969443
0.15072
0.163339
0.162172
0.171399
0.22938
0.239187
0.234978
0.258176
0.275454
0.258338
0.245919
0.239513
0.21715
0.157223
0.107295
0.0753533
0.0559655
0.0461024
0.0394276
0.0348331
0.032186
0.0312357
0.0307248
0.0292903
0.027723
0.0280996
0.0311506
0.0338893
0.036103
0.036755
0.0405569
0.0419711
0.0416961
0.0429313
0.0477501
0.0642379
0.146436
0.212868
0.239993
0.231632
0.192483
0.140675
0.0877464
0.0751957
0.0637624
0.0570477
0.0596012
0.0573624
0.0633818
0.0615277
0.0670356
0.062266
0.0628431
0.0582083
0.0573578
0.0535063
0.052773
0.052812
0.0523956
0.0540841
0.0551782
0.0612037
0.0684462
0.0726676
0.0730515
0.0700733
0.0706593
0.068563
0.0683532
0.064602
0.0626214
0.0637616
0.0598092
0.0596683
0.0561258
0.0517145
0.0530987
0.0525131
0.0597118
0.0633159
0.072357
0.00295449
0.00300252
0.00299287
0.00299144
0.00297195
0.00292972
0.00292142
0.00299032
0.00337861
0.00374158
0.00422071
0.00436587
0.0043333
0.00429139
0.00410803
0.00392798
0.00369397
0.00365731
0.00418732
0.00496664
0.0054953
0.00564478
0.00563641
0.00522807
0.00422725
0.00351612
0.00317051
0.00313989
0.00355441
0.003882
0.00395277
0.00393178
0.0038304
0.00318059
0.00249672
0.00185408
0.00162043
0.00162614
0.00171939
0.00206795
0.0027882
0.00455759
0.00758871
0.0111456
0.0196304
0.0271433
0.0380235
0.0526814
0.0657659
0.0804274
0.0903299
0.0974775
0.101272
0.100212
0.0923441
0.0835569
0.0806966
0.0812886
0.0811258
0.0766334
0.0646534
0.0602101
0.0605571
0.0631411
0.0683512
0.0876553
0.151708
0.169043
0.160269
0.144494
0.145356
0.153007
0.152343
0.144091
0.139559
0.134306
0.121318
0.11187
0.108893
0.109502
0.112252
0.112909
0.112031
0.110985
0.11076
0.1077
0.101164
0.100581
0.107182
0.112065
0.109797
0.0947669
0.0863335
0.0807816
0.0727983
0.0660445
0.0643564
0.0653779
0.0781817
0.0898451
0.0908675
0.0860891
0.0838822
0.0914796
0.120023
0.131395
0.132441
0.130167
0.125629
0.123435
0.12079
0.111219
0.0904867
0.0772431
0.073496
0.0732682
0.0753367
0.0827281
0.122259
0.161443
0.162754
0.151727
0.163203
0.219955
0.224643
0.225004
0.263164
0.271248
0.260004
0.252909
0.252098
0.236021
0.166465
0.106898
0.0740624
0.0556482
0.0484613
0.0422219
0.0393462
0.0369218
0.0349221
0.0345563
0.0342562
0.0321536
0.0299983
0.0310461
0.0333195
0.0359736
0.0404795
0.0431012
0.0434462
0.0425622
0.0424714
0.046591
0.0600069
0.130288
0.190202
0.235146
0.228767
0.207695
0.160249
0.106535
0.0844398
0.066026
0.0558716
0.0537436
0.0486647
0.050843
0.0481721
0.0518183
0.0480697
0.0494636
0.0470744
0.0472139
0.0472801
0.0483641
0.0510183
0.0522021
0.0582957
0.0691305
0.0780598
0.0795723
0.0782086
0.074503
0.067249
0.064082
0.0617591
0.0598576
0.0544754
0.0543696
0.0548668
0.0616932
0.0640876
0.0652181
0.0635993
0.0573506
0.0487105
0.0477961
0.0502112
0.0558031
0.000220994
0.000232371
0.000236104
0.000241169
0.000251161
0.000254555
0.000255745
0.000256094
0.000260092
0.000284349
0.000336965
0.00036167
0.000384593
0.000388062
0.00038556
0.000372726
0.000353409
0.000351169
0.000387334
0.000432177
0.000456018
0.000459418
0.000460658
0.000444636
0.000382028
0.000340985
0.00033147
0.000354393
0.000399603
0.00048278
0.000560999
0.00059233
0.000650204
0.000709811
0.000780314
0.000929576
0.00131622
0.00194896
0.00337184
0.00621598
0.0097353
0.0176081
0.0248917
0.0393102
0.0575287
0.0755506
0.10159
0.12549
0.143918
0.161117
0.166536
0.165701
0.16153
0.145732
0.13247
0.125099
0.115646
0.110871
0.101345
0.08484
0.0771023
0.0765006
0.0771824
0.0778454
0.0841965
0.135332
0.170658
0.167235
0.145689
0.143392
0.163977
0.176622
0.160211
0.143839
0.139378
0.135158
0.122441
0.112198
0.108872
0.109223
0.110834
0.109507
0.10963
0.11328
0.116609
0.112202
0.101492
0.10098
0.108466
0.11334
0.111112
0.100078
0.094698
0.0901257
0.0779014
0.0676093
0.0649339
0.0668972
0.0836816
0.0955613
0.0961839
0.0883778
0.0815866
0.0822321
0.100027
0.120293
0.128126
0.12854
0.126963
0.126003
0.124828
0.116384
0.0975796
0.0871146
0.083349
0.0830885
0.0854125
0.0946672
0.140028
0.165186
0.159112
0.139275
0.152555
0.205951
0.211949
0.222389
0.263038
0.267236
0.267457
0.264656
0.27956
0.268713
0.17729
0.108253
0.0745956
0.0604487
0.0535158
0.0471589
0.0457965
0.0415155
0.0375881
0.0363576
0.03739
0.0363276
0.0327785
0.0314308
0.0322915
0.0352349
0.0408689
0.0448751
0.0444425
0.0429114
0.0426451
0.0445561
0.056031
0.128171
0.183953
0.226558
0.224876
0.212907
0.181477
0.116083
0.0986266
0.0716629
0.0603614
0.0560198
0.0466536
0.0461961
0.0427184
0.0442149
0.0418529
0.0424237
0.041971
0.0422043
0.0440064
0.0467392
0.0516966
0.0694869
0.0785925
0.0913169
0.0872677
0.0865081
0.0796609
0.0736214
0.0662691
0.0631047
0.0618649
0.0587089
0.0529759
0.0468951
0.042493
0.0422798
0.041871
0.0444807
0.0484414
0.0540841
0.052076
0.0501936
0.0489349
0.0497826
8.56365e-05
8.63937e-05
9.18384e-05
9.399e-05
9.57797e-05
9.64132e-05
9.92675e-05
0.000100828
0.000101807
0.00010246
0.000102412
0.000102695
0.000103517
0.000105269
0.000106206
0.000110623
0.000111445
0.000113065
0.000113642
0.000113968
0.000116345
0.000124877
0.000127755
0.000133452
0.00013749
0.000145018
0.000153432
0.000167148
0.000217896
0.000264758
0.000354625
0.000449536
0.000628227
0.000985225
0.00152829
0.00266408
0.00529987
0.00806376
0.0149299
0.0220162
0.0367707
0.0542584
0.0749521
0.111196
0.14655
0.188225
0.227967
0.257824
0.280987
0.284113
0.279721
0.268703
0.247416
0.215001
0.193745
0.183435
0.164428
0.139317
0.123583
0.112014
0.0996557
0.0875218
0.0811485
0.0817903
0.108317
0.168883
0.174448
0.156339
0.144236
0.157312
0.188279
0.183646
0.155779
0.138137
0.136994
0.13543
0.123953
0.11397
0.109828
0.109546
0.111502
0.112055
0.113593
0.117838
0.118476
0.110931
0.102143
0.10268
0.112236
0.116431
0.114251
0.107447
0.106826
0.105225
0.0853289
0.0705181
0.0668507
0.0710098
0.0925468
0.102777
0.102612
0.0913274
0.0828393
0.08174
0.0898809
0.111998
0.124089
0.126635
0.126662
0.127198
0.127614
0.122557
0.105036
0.0962762
0.0922176
0.0914961
0.0934688
0.111597
0.152919
0.166104
0.152472
0.130971
0.150139
0.18775
0.189748
0.217481
0.242139
0.2654
0.267931
0.278766
0.320879
0.297146
0.180266
0.114504
0.0856711
0.0705596
0.0574032
0.0518588
0.0503442
0.0454579
0.0411842
0.0374946
0.0369021
0.0360748
0.0328246
0.0303567
0.0302721
0.0325034
0.0382577
0.0435658
0.0434138
0.0427131
0.0433661
0.0448428
0.0568032
0.122732
0.179028
0.224693
0.22317
0.210855
0.192828
0.133953
0.113295
0.082833
0.0690244
0.0631026
0.0497089
0.0467376
0.0415127
0.0403758
0.0396989
0.0396909
0.0410404
0.0429604
0.0454881
0.0603153
0.0726634
0.092596
0.0931445
0.0950918
0.0888377
0.0849618
0.0733615
0.0710902
0.0654541
0.0653155
0.0627576
0.0605349
0.052693
0.048327
0.0428997
0.0400029
0.0380941
0.0381719
0.038904
0.043957
0.0452454
0.0461708
0.04598
0.0463254
8.60983e-05
8.66186e-05
8.98285e-05
9.05287e-05
9.25686e-05
9.25894e-05
9.28468e-05
9.32012e-05
9.48856e-05
9.96085e-05
0.000100717
0.00010131
0.000102423
0.000100713
0.000100637
0.00010102
0.000102165
0.000104246
0.000110694
0.000114006
0.000122699
0.000129159
0.000142435
0.000164645
0.000202047
0.000275274
0.000343442
0.000514274
0.000718379
0.000928135
0.00143439
0.00202123
0.00307281
0.00503282
0.00752134
0.0132502
0.0212354
0.0308832
0.0509156
0.070463
0.10821
0.148117
0.201887
0.267202
0.336212
0.39861
0.441577
0.465638
0.466116
0.458653
0.434656
0.411661
0.367028
0.323253
0.297072
0.252406
0.198428
0.162344
0.138464
0.128433
0.117898
0.0993133
0.0927375
0.10159
0.159218
0.178311
0.172732
0.152609
0.153888
0.173584
0.191292
0.178393
0.150301
0.137202
0.136933
0.137513
0.126157
0.114856
0.109761
0.10943
0.111749
0.114683
0.114634
0.11506
0.112436
0.106618
0.104251
0.111014
0.121695
0.120493
0.117218
0.117791
0.121567
0.112228
0.0866661
0.0734965
0.0708185
0.0783632
0.105732
0.116514
0.116444
0.104723
0.088776
0.0828652
0.0833269
0.0994928
0.116288
0.122018
0.125641
0.129528
0.13091
0.129302
0.117055
0.107303
0.101809
0.100672
0.10197
0.125217
0.16004
0.167626
0.147605
0.120592
0.129381
0.160834
0.16946
0.202132
0.223366
0.259576
0.267511
0.309184
0.346416
0.313463
0.201462
0.142412
0.106719
0.0801983
0.0634337
0.0597589
0.0559756
0.049612
0.0451281
0.0374204
0.0384684
0.0344111
0.0337952
0.029927
0.0300468
0.0317579
0.0360735
0.0383006
0.0397353
0.0394544
0.0457972
0.0458739
0.0600149
0.124443
0.171617
0.217606
0.216189
0.204897
0.189426
0.146904
0.131268
0.0995674
0.0826158
0.0686312
0.0540733
0.0483082
0.0426708
0.0411311
0.0398728
0.04031
0.0416829
0.0453876
0.0596705
0.0833891
0.0927138
0.0987941
0.0983224
0.0948662
0.0820834
0.0772713
0.0700165
0.068183
0.065145
0.0643763
0.0604795
0.0553494
0.0488798
0.0462268
0.0406186
0.0395886
0.0370041
0.0368835
0.0364316
0.0371751
0.0374608
0.0379979
0.0408093
0.0419244
0.000172056
0.000171103
0.000172975
0.000173098
0.000179552
0.000189529
0.000203735
0.000210652
0.000219358
0.000221294
0.000208823
0.00020144
0.000196766
0.000196513
0.000203474
0.000230758
0.000279008
0.000341608
0.000380425
0.000422532
0.000527869
0.000615599
0.000798921
0.000978647
0.00134773
0.00188072
0.00231614
0.00336699
0.00451372
0.0057376
0.008606
0.0111418
0.0153127
0.0227617
0.0332854
0.0464222
0.0736543
0.0994841
0.142488
0.19865
0.272416
0.361095
0.45458
0.53985
0.583192
0.604658
0.604947
0.598162
0.583035
0.556054
0.523168
0.493382
0.454496
0.404335
0.337973
0.266778
0.228658
0.201572
0.171122
0.150275
0.124283
0.102544
0.0999797
0.120838
0.172949
0.182961
0.176437
0.156378
0.153891
0.171535
0.189901
0.180121
0.164331
0.146032
0.139471
0.138371
0.128117
0.119253
0.113152
0.11067
0.110058
0.11195
0.112405
0.111908
0.109716
0.10772
0.111131
0.121964
0.126293
0.126889
0.126802
0.13385
0.132126
0.110469
0.0855338
0.0754275
0.0765858
0.0999388
0.128015
0.135051
0.131582
0.107872
0.0888115
0.082761
0.0839713
0.0991163
0.10888
0.115208
0.123865
0.131967
0.134517
0.133896
0.12318
0.112093
0.107036
0.106811
0.109761
0.136496
0.164267
0.170336
0.145266
0.115685
0.119692
0.133394
0.153612
0.181341
0.20395
0.235256
0.266296
0.333025
0.352688
0.356789
0.268598
0.179226
0.12879
0.0935214
0.0767514
0.0722367
0.0602462
0.0531023
0.0520819
0.0403992
0.0378524
0.0343908
0.0338247
0.0302297
0.0312257
0.0328297
0.0382327
0.0382255
0.0429677
0.0402071
0.0555504
0.0510377
0.0632559
0.122713
0.179452
0.205816
0.211737
0.202844
0.190087
0.159313
0.143606
0.111068
0.0910988
0.0745485
0.05807
0.0519764
0.0478259
0.0469104
0.0466154
0.0494608
0.0534453
0.0699885
0.0859184
0.100491
0.102032
0.103598
0.0979541
0.0890413
0.0802081
0.0750981
0.0717998
0.0712234
0.0713711
0.0679038
0.0626697
0.0533231
0.0503244
0.0444782
0.0379169
0.0346061
0.0335142
0.033796
0.0340106
0.0350434
0.0363607
0.0359799
0.0354632
0.0356056
0.00216312
0.00227182
0.00231881
0.00232225
0.00228604
0.00220895
0.00221756
0.00224012
0.00232295
0.00238016
0.00234953
0.00234469
0.00235568
0.00240518
0.00267238
0.00317153
0.00358023
0.00392789
0.00427006
0.00456021
0.00530475
0.0059562
0.00689623
0.00839567
0.0101537
0.0123569
0.014978
0.0199222
0.0235248
0.0289542
0.0386583
0.0463712
0.0571225
0.0849069
0.106765
0.14892
0.195899
0.266852
0.35254
0.465937
0.564419
0.619251
0.652919
0.66668
0.665676
0.660317
0.64941
0.625574
0.593956
0.573793
0.543336
0.493984
0.457935
0.413704
0.352263
0.307788
0.272312
0.222754
0.178424
0.148278
0.121911
0.111948
0.116523
0.157129
0.188515
0.190942
0.174122
0.145371
0.144218
0.170222
0.205943
0.212702
0.208324
0.170161
0.14133
0.135782
0.128203
0.123695
0.120149
0.116384
0.11231
0.111418
0.112709
0.115272
0.116044
0.119695
0.129618
0.135664
0.136859
0.135307
0.144292
0.145718
0.12913
0.0993935
0.0843343
0.0821396
0.0908596
0.122893
0.142497
0.144162
0.127601
0.0964196
0.0832746
0.0807236
0.0838063
0.0918689
0.101411
0.112247
0.124658
0.133228
0.136112
0.134556
0.123581
0.115622
0.113531
0.113942
0.117529
0.140172
0.169415
0.175334
0.144281
0.102311
0.0990962
0.108045
0.135193
0.153297
0.165585
0.191223
0.262363
0.332861
0.357837
0.444081
0.341788
0.216807
0.157305
0.122593
0.099478
0.0820125
0.0664673
0.0632709
0.056412
0.0510595
0.0480866
0.0384278
0.036906
0.040197
0.0334808
0.0366362
0.0386199
0.0370448
0.0525188
0.0427002
0.0731254
0.0596779
0.0836029
0.124675
0.196839
0.206951
0.205642
0.206496
0.200578
0.177713
0.149931
0.131406
0.105127
0.0922837
0.0723339
0.0687046
0.0653616
0.0654291
0.0660663
0.0702975
0.0781012
0.0961441
0.104176
0.107491
0.107137
0.103323
0.0934878
0.0854548
0.0807848
0.0775983
0.0772885
0.0770538
0.0769469
0.0686645
0.0643511
0.057795
0.0522871
0.044714
0.0384378
0.0345307
0.031604
0.0310801
0.0309283
0.0312271
0.032188
0.0329731
0.032732
0.0327544
0.0274801
0.0273836
0.0270398
0.0266422
0.0256472
0.0247158
0.0245963
0.0247289
0.0250346
0.0255389
0.0255849
0.0256414
0.0258029
0.0268765
0.0282872
0.0293647
0.0309128
0.0315223
0.0325454
0.0336633
0.0361688
0.0390592
0.0414854
0.0481376
0.0522667
0.0600027
0.0672643
0.078347
0.0882298
0.102856