/*--------------------------------*- C++ -*----------------------------------*\
| =========                 |                                                 |
| \\      /  F ield         | OpenFOAM: The Open Source CFD Toolbox           |
|  \\    /   O peration     | Version:  2.4.0                                 |
|   \\  /    A nd           | Web:      www.OpenFOAM.org                      |
|    \\/     M anipulation  |                                                 |
\*---------------------------------------------------------------------------*/
FoamFile
{
    version     2.0;
    format      ascii;
    class       volScalarField;
    location    "0.17";
    object      nuSgs;
}
// * * * * * * * * * * * * * * * * * * * * * * * * * * * * * * * * * * * * * //

dimensions      [0 2 -1 0 0 0 0];

internalField   nonuniform List<scalar> 
8800
(
0.00133993
0.00150557
0.00139536
0.00122513
0.00112554
0.00104492
0.00100265
0.000953985
0.00093233
0.000897213
0.000885583
0.000861592
0.000851915
0.000834335
0.000823994
0.000809723
0.000795626
0.00078242
0.000765595
0.000745125
0.000557819
0.000979585
0.00108551
0.00108055
0.00106516
0.00102836
0.0010078
0.000971548
0.00095537
0.000924803
0.00091315
0.000890642
0.000880119
0.000864472
0.000855546
0.000842093
0.000834208
0.000822138
0.000809315
0.000802754
0.000136716
0.000399218
0.000589987
0.000654672
0.000710051
0.000732266
0.000755626
0.000757503
0.000761226
0.000758823
0.000756141
0.000749369
0.00074681
0.000739603
0.000737262
0.000730812
0.000729472
0.000723878
0.000722036
0.000715042
2.72736e-05
0.000123646
0.000238492
0.000308459
0.00035648
0.000394431
0.000429913
0.000453562
0.000473309
0.000494791
0.000505887
0.000516024
0.000530669
0.000535432
0.000544756
0.00055082
0.000558747
0.00056402
0.00057433
0.00057678
5.23457e-06
3.29655e-05
6.91918e-05
0.000115821
0.000135469
0.000168977
0.000186182
0.000214902
0.00022787
0.000254836
0.000264795
0.000280802
0.000294783
0.000308502
0.000316263
0.00033439
0.000343202
0.000360497
0.000370124
0.000392184
2.34513e-06
8.23334e-06
1.78444e-05
3.42051e-05
4.09919e-05
5.44579e-05
6.19547e-05
7.67745e-05
8.4029e-05
0.000100932
0.000107353
0.000119542
0.000126772
0.000138991
0.000144299
0.000157877
0.000164528
0.000178953
0.000186428
0.000207503
2.18631e-06
3.0609e-06
5.13884e-06
9.53549e-06
1.11179e-05
1.44964e-05
1.66243e-05
2.12654e-05
2.36163e-05
3.01012e-05
3.27824e-05
3.78042e-05
4.13674e-05
4.7263e-05
4.97705e-05
5.6398e-05
5.99545e-05
6.74356e-05
7.20508e-05
8.42298e-05
2.15595e-06
2.51789e-06
3.12571e-06
4.29169e-06
4.55594e-06
5.13194e-06
5.4597e-06
6.27461e-06
6.62146e-06
8.11511e-06
8.82202e-06
9.74262e-06
1.11455e-05
1.28233e-05
1.34239e-05
1.53186e-05
1.64927e-05
1.90064e-05
2.07168e-05
2.44983e-05
2.15186e-06
2.47114e-06
2.97403e-06
3.8269e-06
3.90953e-06
3.97468e-06
3.99582e-06
4.09214e-06
4.1514e-06
4.4067e-06
4.49189e-06
4.53337e-06
4.65744e-06
4.92085e-06
5.01083e-06
5.29309e-06
5.4867e-06
5.85588e-06
6.10046e-06
6.63363e-06
2.13561e-06
2.41108e-06
3.17459e-06
3.77603e-06
3.74948e-06
3.71704e-06
3.7463e-06
3.86242e-06
3.90895e-06
4.05348e-06
4.0959e-06
4.07874e-06
4.07811e-06
4.07231e-06
4.0625e-06
4.09173e-06
4.20198e-06
4.25472e-06
4.27309e-06
4.35727e-06
2.13317e-06
2.47814e-06
3.35261e-06
3.49034e-06
3.49127e-06
3.70254e-06
3.85945e-06
4.0098e-06
4.03378e-06
4.10846e-06
4.09653e-06
4.03418e-06
4.04162e-06
4.08805e-06
4.13771e-06
4.16251e-06
4.18706e-06
4.25719e-06
4.30835e-06
4.36008e-06
2.14324e-06
2.75168e-06
3.10828e-06
3.2253e-06
3.70417e-06
4.08156e-06
4.24416e-06
4.37532e-06
4.38896e-06
4.43672e-06
4.40423e-06
4.42457e-06
4.66186e-06
4.86499e-06
4.92119e-06
5.06162e-06
5.32822e-06
5.73451e-06
5.89105e-06
6.21721e-06
2.15685e-06
2.72673e-06
3.08798e-06
3.9117e-06
4.53075e-06
5.26306e-06
5.63115e-06
6.43886e-06
6.92915e-06
7.97752e-06
8.48283e-06
9.44921e-06
1.06554e-05
1.17353e-05
1.24522e-05
1.46025e-05
1.59209e-05
1.84494e-05
1.95882e-05
2.15422e-05
2.18482e-06
3.07725e-06
5.15788e-06
8.62925e-06
1.03269e-05
1.4192e-05
1.66221e-05
2.18509e-05
2.45723e-05
2.93698e-05
3.18763e-05
3.71676e-05
3.9866e-05
4.5378e-05
4.84679e-05
5.53488e-05
5.85997e-05
6.57308e-05
6.932e-05
7.77328e-05
2.35212e-06
8.14322e-06
1.85501e-05
3.12034e-05
3.87155e-05
5.43915e-05
6.25121e-05
7.81199e-05
8.59613e-05
9.88506e-05
0.000105463
0.000119227
0.000125262
0.000137253
0.000143138
0.000156588
0.000162484
0.000175906
0.000182396
0.000198457
5.24914e-06
3.27681e-05
7.37403e-05
0.000108197
0.000133522
0.000171195
0.000187237
0.000214686
0.000232989
0.000250488
0.000262067
0.000283508
0.000291683
0.00030794
0.00031566
0.000333339
0.000340334
0.00035745
0.000364757
0.000383471
2.73226e-05
0.000123536
0.00024009
0.000303024
0.000358503
0.0003971
0.000426494
0.000454202
0.000477513
0.000490173
0.000505192
0.000519127
0.000526243
0.000536156
0.000541824
0.000551892
0.000555062
0.000563966
0.000567566
0.00057582
0.000136777
0.000400195
0.00058837
0.000653714
0.000710546
0.000733236
0.000754108
0.000758403
0.000761489
0.000757467
0.000755988
0.00074929
0.000746855
0.000738837
0.000736939
0.000730898
0.000729154
0.000724704
0.000723358
0.00071949
0.000557457
0.000979765
0.00108414
0.00108061
0.00106507
0.00102921
0.0010074
0.000972108
0.000954268
0.000925941
0.000913817
0.000889034
0.000882327
0.000863068
0.000858418
0.000842328
0.000839189
0.000824394
0.000820331
0.000808077
0.00133906
0.00150555
0.00139402
0.00122711
0.00112393
0.00104615
0.00100225
0.000955114
0.000930883
0.000899341
0.000886359
0.000861074
0.000854915
0.000833943
0.000830333
0.000809269
0.000805921
0.000782937
0.000775545
0.000745469
0.00032819
0.000262484
0.000224296
0.000207477
0.000196873
0.0001907
0.000185463
0.00017814
0.000168207
0.000159855
0.000151461
0.000149415
0.000146533
0.000143622
0.00013766
0.000135056
0.000130018
0.000128291
0.000125984
0.000123841
0.00012259
0.000123349
0.000122841
0.000122656
0.000120632
0.000118305
0.000112819
0.000108201
0.000104988
0.000103436
0.000102878
0.00010335
0.000107278
0.000112431
0.000117563
0.00012033
0.000121677
0.000122196
0.000122533
0.000123291
0.000125377
0.00012967
0.000130406
0.000129664
0.000127882
0.000123702
0.000116797
9.99206e-05
7.44135e-05
5.55895e-05
4.37248e-05
3.65402e-05
3.25483e-05
3.08261e-05
3.0427e-05
3.00113e-05
2.9078e-05
2.844e-05
2.79009e-05
2.79383e-05
2.8128e-05
2.78646e-05
2.69123e-05
2.65915e-05
2.65998e-05
2.68227e-05
2.76666e-05
2.96111e-05
3.36432e-05
4.16984e-05
5.69632e-05
8.66838e-05
0.000101002
0.000106592
0.000109199
0.000109421
0.00010874
0.000107214
0.000105718
0.000105005
0.000104333
0.000101913
0.000100543
9.84157e-05
9.59895e-05
9.4097e-05
9.02255e-05
8.10608e-05
6.43798e-05
5.64655e-05
5.72949e-05
7.04773e-05
7.75951e-05
7.65069e-05
7.00464e-05
6.35339e-05
6.20871e-05
6.24749e-05
6.47502e-05
7.36819e-05
8.70724e-05
9.20212e-05
9.21567e-05
9.0823e-05
8.61753e-05
7.67762e-05
6.93192e-05
6.41896e-05
6.08445e-05
5.76285e-05
5.49829e-05
5.32736e-05
5.07368e-05
4.76391e-05
4.47933e-05
4.34623e-05
4.29836e-05
4.32142e-05
4.50118e-05
5.02102e-05
6.79692e-05
7.98471e-05
8.63531e-05
0.000100489
0.000117443
0.000121515
0.000116704
0.000111152
0.000113222
0.000118158
0.000117036
0.000111401
0.000105171
9.85941e-05
9.14398e-05
8.30347e-05
7.56358e-05
6.88675e-05
6.41513e-05
6.06763e-05
5.81442e-05
5.64375e-05
5.50466e-05
5.31413e-05
5.26911e-05
5.29185e-05
5.3563e-05
5.49964e-05
5.89252e-05
6.25887e-05
6.39208e-05
6.52209e-05
6.82624e-05
7.82178e-05
0.00011479
0.000135994
0.000136563
0.000121852
9.00865e-05
7.69231e-05
7.66184e-05
8.09118e-05
8.65134e-05
8.63862e-05
8.37298e-05
7.59828e-05
7.27069e-05
6.58316e-05
6.45705e-05
6.12645e-05
6.12997e-05
5.96817e-05
5.9542e-05
5.79661e-05
5.83559e-05
5.75314e-05
5.83083e-05
5.84016e-05
6.034e-05
6.36403e-05
6.54933e-05
6.65366e-05
6.66445e-05
6.60771e-05
6.53533e-05
6.27789e-05
6.33539e-05
6.23188e-05
6.42e-05
6.45511e-05
6.78001e-05
7.02793e-05
8.50295e-05
8.71251e-05
8.99494e-05
8.11429e-05
8.61259e-05
8.42861e-05
0.000124218
0.000194908
0.000403414
0.000362413
0.000328191
0.000301945
0.000282222
0.000268506
0.00025773
0.000249602
0.00023923
0.000231871
0.000222531
0.000210945
0.000197048
0.00018774
0.000175674
0.000166386
0.00016065
0.000155472
0.000152144
0.000149822
0.000149255
0.000148852
0.00014733
0.000146381
0.000145327
0.000142989
0.00013905
0.000136769
0.000131979
0.000128929
0.000126257
0.00012524
0.000125329
0.000126275
0.000127382
0.000129342
0.000131678
0.000133395
0.000137348
0.000138242
0.000137608
0.000135959
0.000133385
0.000127429
0.00012081
0.000106765
8.33825e-05
6.21112e-05
4.67096e-05
3.76333e-05
3.2334e-05
2.9843e-05
2.87138e-05
2.86839e-05
2.93161e-05
2.94958e-05
2.88957e-05
2.8294e-05
2.86593e-05
3.00786e-05
3.08443e-05
3.13771e-05
3.13943e-05
3.12614e-05
3.13865e-05
3.19212e-05
3.32243e-05
3.59591e-05
4.22234e-05
5.64342e-05
8.67787e-05
0.000102745
0.00010674
0.000108362
0.000108015
0.000105485
0.000101056
0.000100504
0.000101248
0.000101771
0.000101578
9.92516e-05
9.81249e-05
9.72477e-05
9.58755e-05
9.37899e-05
9.2143e-05
8.92055e-05
8.04311e-05
6.36582e-05
5.93762e-05
6.34296e-05
7.5614e-05
7.62902e-05
7.45434e-05
6.85612e-05
6.41463e-05
6.32067e-05
6.36616e-05
6.63297e-05
7.69137e-05
8.9906e-05
9.38811e-05
9.37809e-05
9.21555e-05
8.73962e-05
7.92188e-05
7.2126e-05
6.64632e-05
6.09452e-05
5.78969e-05
5.62013e-05
5.32361e-05
4.87546e-05
4.54085e-05
4.4368e-05
4.42915e-05
4.47942e-05
4.74606e-05
5.41093e-05
7.41414e-05
8.69007e-05
9.27876e-05
0.000105951
0.000122273
0.000124529
0.000118666
0.000116695
0.000121065
0.000122751
0.00011841
0.00011145
0.000105567
9.83365e-05
8.80092e-05
7.83673e-05
7.02617e-05
6.49247e-05
6.08754e-05
5.72307e-05
5.41221e-05
5.19904e-05
5.09439e-05
5.00869e-05
5.016e-05
5.03928e-05
5.07492e-05
5.1731e-05
5.42996e-05
5.89392e-05
6.09514e-05
6.25668e-05
6.54788e-05
7.27017e-05
0.000102739
0.000131141
0.000135633
0.000128555
9.77422e-05
7.82003e-05
7.31257e-05
7.40196e-05
7.88959e-05
8.24647e-05
8.24801e-05
7.95235e-05
7.74843e-05
7.14723e-05
6.99417e-05
6.50856e-05
6.45349e-05
6.17692e-05
6.13757e-05
5.97362e-05
6.02806e-05
5.97758e-05
6.06869e-05
6.26811e-05
6.47767e-05
6.72975e-05
6.60721e-05
6.69132e-05
6.4144e-05
6.36685e-05
5.99035e-05
5.87707e-05
5.92161e-05
5.88266e-05
6.34493e-05
6.27309e-05
7.09723e-05
7.09931e-05
8.8354e-05
9.14335e-05
0.000124661
0.0001205
0.000144217
0.000116246
0.000145179
0.000172526
0.000370126
0.000347601
0.000324852
0.000306493
0.00029063
0.000278255
0.000268179
0.000260835
0.000252819
0.000247408
0.00024082
0.000236408
0.000230434
0.000226454
0.000219737
0.000214743
0.000209952
0.000203108
0.000198982
0.000196129
0.000192069
0.000189602
0.000188895
0.000186941
0.000185967
0.000184717
0.000180548
0.000178022
0.000174281
0.000170287
0.000166319
0.000162204
0.000159005
0.000157293
0.000156269
0.000155422
0.000153472
0.000150767
0.000147665
0.000142947
0.000136993
0.000129084
0.000117107
0.000101419
7.98698e-05
6.12699e-05
4.68591e-05
3.64542e-05
3.03333e-05
2.78077e-05
2.65193e-05
2.65377e-05
2.70019e-05
2.79956e-05
3.01158e-05
3.03598e-05
3.01283e-05
3.03445e-05
3.25285e-05
3.48066e-05
3.57893e-05
3.58502e-05
3.56416e-05
3.56891e-05
3.62469e-05
3.73449e-05
3.89622e-05
4.2906e-05
5.38245e-05
8.26386e-05
0.000101516
0.000106978
0.000107332
0.000104479
9.78327e-05
9.16171e-05
8.95346e-05
8.99287e-05
9.25528e-05
9.35191e-05
9.32264e-05
9.25085e-05
9.15306e-05
9.16921e-05
9.24419e-05
9.21762e-05
9.136e-05
9.02278e-05
8.78518e-05
7.56933e-05
6.32449e-05
6.27947e-05
6.89931e-05
7.45316e-05
7.4025e-05
7.15934e-05
6.73906e-05
6.47875e-05
6.41084e-05
6.44757e-05
6.75244e-05
8.19049e-05
9.31396e-05
9.56654e-05
9.51202e-05
9.3152e-05
8.72777e-05
8.07171e-05
7.48591e-05
6.80729e-05
6.31639e-05
6.02433e-05
5.68283e-05
5.14389e-05
4.77928e-05
4.6897e-05
4.69898e-05
4.78623e-05
5.11825e-05
5.97816e-05
8.12062e-05
9.31404e-05
9.83965e-05
0.000110616
0.000125676
0.000126072
0.000121497
0.00012269
0.000126999
0.000125534
0.000118081
0.000112599
0.000107281
9.6329e-05
8.47518e-05
7.46733e-05
6.67135e-05
6.15536e-05
5.59139e-05
5.28404e-05
4.84225e-05
4.70325e-05
4.69832e-05
4.71922e-05
4.79343e-05
4.81419e-05
4.82368e-05
4.87848e-05
5.04026e-05
5.51401e-05
5.78623e-05
5.96199e-05
6.27521e-05
6.88009e-05
9.32369e-05
0.000126884
0.000134489
0.000131325
0.000108076
8.18518e-05
7.12902e-05
7.02598e-05
7.21215e-05
7.63602e-05
8.04224e-05
7.92901e-05
7.93455e-05
7.58029e-05
7.44053e-05
6.93321e-05
6.8544e-05
6.54065e-05
6.50267e-05
6.36066e-05
6.45221e-05
6.42161e-05
6.58048e-05
6.72558e-05
6.71831e-05
6.77595e-05
6.47303e-05
6.43673e-05
5.96002e-05
5.88719e-05
5.68877e-05
5.68162e-05
5.70371e-05
5.76219e-05
5.93589e-05
6.01891e-05
6.50244e-05
6.52035e-05
7.0355e-05
7.55749e-05
9.81688e-05
0.000109238
0.000136238
0.000143319
0.000154476
0.000169788
0.000304683
0.000291245
0.000278174
0.000266188
0.000255135
0.000244861
0.00023801
0.000232775
0.000228218
0.000224971
0.000218987
0.000215722
0.00021121
0.00020844
0.000207095
0.000204252
0.000201179
0.000199611
0.00019609
0.000192746
0.000190289
0.000188144
0.000187542
0.000185696
0.00018501
0.00018513
0.000185118
0.000183683
0.000181812
0.000179509
0.000177087
0.000174627
0.000171711
0.000167224
0.000162971
0.000157328
0.000151205
0.00014315
0.000130541
0.000116189
9.96378e-05
8.05588e-05
6.418e-05
5.06757e-05
4.03403e-05
3.22108e-05
2.6968e-05
2.38326e-05
2.36557e-05
2.40523e-05
2.45839e-05
2.55143e-05
2.73292e-05
3.08117e-05
3.33612e-05
3.39262e-05
3.41251e-05
3.58226e-05
3.9639e-05
4.15018e-05
4.22422e-05
4.20916e-05
4.18685e-05
4.2062e-05
4.2472e-05
4.31139e-05
4.5139e-05
5.26278e-05
7.65617e-05
9.88753e-05
0.000106201
0.000106317
0.000102117
9.29407e-05
8.95793e-05
8.79264e-05
8.71776e-05
8.72993e-05
8.77578e-05
8.80519e-05
8.81024e-05
8.83621e-05
8.88654e-05
8.85537e-05
8.81286e-05
8.83125e-05
8.86449e-05
8.91064e-05
8.88249e-05
8.53524e-05
6.99811e-05
6.38759e-05
6.48997e-05
6.93209e-05
7.1682e-05
7.10383e-05
6.8978e-05
6.64747e-05
6.4708e-05
6.44927e-05
6.52015e-05
7.00271e-05
8.78533e-05
9.54212e-05
9.60329e-05
9.51316e-05
9.20695e-05
8.65095e-05
8.13255e-05
7.5447e-05
7.05846e-05
6.69352e-05
6.23283e-05
5.55072e-05
5.13111e-05
5.03517e-05
5.05923e-05
5.18304e-05
5.59042e-05
6.88615e-05
8.9242e-05
9.86188e-05
0.000102516
0.000115929
0.000127847
0.000126457
0.000124391
0.000127899
0.000130514
0.000126259
0.000118098
0.000115405
0.000107676
9.34558e-05
8.0622e-05
6.95186e-05
6.19795e-05
5.52598e-05
5.09843e-05
4.76425e-05
4.51953e-05
4.39898e-05
4.39045e-05
4.4128e-05
4.46325e-05
4.57952e-05
4.64509e-05
4.69447e-05
4.80467e-05
5.18395e-05
5.46029e-05
5.63609e-05
5.92858e-05
6.4741e-05
8.08851e-05
0.000116989
0.000131428
0.000130821
0.000118558
8.87645e-05
7.3069e-05
6.77645e-05
6.90959e-05
7.10804e-05
7.7119e-05
7.76281e-05
7.90999e-05
7.68735e-05
7.59318e-05
7.17405e-05
7.11971e-05
6.88285e-05
6.88101e-05
6.82462e-05
6.8152e-05
6.811e-05
6.77996e-05
6.75741e-05
6.49742e-05
6.37483e-05
5.99247e-05
5.77093e-05
5.69584e-05
5.62235e-05
5.60465e-05
5.64369e-05
5.66265e-05
5.85845e-05
5.82456e-05
6.02348e-05
6.00193e-05
6.07266e-05
6.03991e-05
6.28584e-05
6.48847e-05
8.19592e-05
9.08619e-05
0.000122554
0.000128957
0.000150775
0.000210156
0.000203855
0.000196784
0.000190306
0.000184999
0.00017816
0.000171312
0.000168469
0.000167378
0.000167302
0.000167378
0.000166698
0.000163976
0.000160538
0.000159029
0.000158503
0.000157284
0.000156708
0.000156492
0.000156228
0.000155425
0.000152317
0.000149496
0.000147892
0.000145643
0.000145067
0.000145652
0.000146008
0.000146202
0.000145888
0.000143491
0.000140941
0.00013566
0.000128916
0.000121197
0.000109868
9.7114e-05
8.32039e-05
6.94422e-05
5.70566e-05
4.6046e-05
3.72922e-05
3.00273e-05
2.52966e-05
2.2001e-05
2.01763e-05
2.02776e-05
2.07226e-05
2.23083e-05
2.36669e-05
2.54003e-05
2.86201e-05
3.29316e-05
3.76884e-05
4.0611e-05
4.09513e-05
4.12667e-05
4.52902e-05
4.73203e-05
4.75251e-05
4.75457e-05
4.7402e-05
4.78821e-05
4.85508e-05
4.81648e-05
4.83185e-05
5.15937e-05
6.82333e-05
9.44368e-05
0.000103803
0.00010402
9.92355e-05
9.3038e-05
8.97923e-05
8.85124e-05
8.78803e-05
8.73737e-05
8.67433e-05
8.6018e-05
8.59367e-05
8.65123e-05
8.72864e-05
8.78885e-05
8.78196e-05
8.66438e-05
8.59729e-05
8.59352e-05
8.63851e-05
8.81235e-05
8.72669e-05
7.97446e-05
6.76681e-05
6.57483e-05
6.74579e-05
6.83496e-05
6.88946e-05
6.83832e-05
6.69149e-05
6.55244e-05
6.51449e-05
6.53572e-05
6.67941e-05
7.64587e-05
9.21049e-05
9.58497e-05
9.57011e-05
9.43647e-05
9.00792e-05
8.5744e-05
8.17849e-05
7.77386e-05
7.37033e-05
6.75082e-05
5.96219e-05
5.51873e-05
5.4501e-05
5.49066e-05
5.66894e-05
6.16771e-05
7.93442e-05
9.72183e-05
0.000101806
0.000104534
0.000118631
0.000128596
0.000126339
0.000126113
0.000131443
0.000132057
0.000125241
0.000121301
0.000117829
0.000106021
8.90391e-05
7.55383e-05
6.50855e-05
5.77141e-05
5.25431e-05
4.89012e-05
4.59497e-05
4.44004e-05
4.30276e-05
4.22908e-05
4.22396e-05
4.26563e-05
4.46316e-05
4.64549e-05
4.69015e-05
4.74939e-05
5.03594e-05
5.23387e-05
5.36986e-05
5.63363e-05
6.13272e-05
7.39119e-05
0.000108478
0.000127396
0.000129458
0.000123639
0.000100327
7.87222e-05
6.86713e-05
6.85266e-05
6.88392e-05
7.23956e-05
7.32757e-05
7.75699e-05
7.6328e-05
7.63132e-05
7.39185e-05
7.2759e-05
7.05889e-05
6.92375e-05
6.8734e-05
6.75238e-05
6.72296e-05
6.53406e-05
6.40612e-05
6.10303e-05
5.82053e-05
5.79714e-05
5.67528e-05
5.78554e-05
5.72597e-05
5.89075e-05
5.80332e-05
5.96202e-05
5.92441e-05
5.94375e-05
6.08746e-05
6.05049e-05
6.25087e-05
6.11863e-05
6.27302e-05
6.08188e-05
6.73504e-05
6.85817e-05
8.81613e-05
9.67998e-05
0.000122071
0.00011281
0.000111526
0.000108197
0.000106242
0.000104165
0.000100148
9.67529e-05
9.60401e-05
9.61952e-05
9.71881e-05
9.97883e-05
0.000101044
0.000101111
9.96286e-05
9.85433e-05
9.82675e-05
9.73994e-05
9.66978e-05
9.74565e-05
9.80572e-05
9.79866e-05
9.76768e-05
9.67983e-05
9.51085e-05
9.07056e-05
8.80448e-05
8.77964e-05
8.75212e-05
8.72467e-05
8.66989e-05
8.50014e-05
8.34275e-05
8.02634e-05
7.50231e-05
6.75221e-05
5.88451e-05
5.00183e-05
4.13278e-05
3.35372e-05
2.69592e-05
2.20844e-05
1.87718e-05
1.69202e-05
1.68458e-05
1.70948e-05
1.81353e-05
2.0006e-05
2.23145e-05
2.6934e-05
3.02388e-05
3.54464e-05
4.13181e-05
4.51608e-05
4.95099e-05
5.15727e-05
5.19886e-05
5.32921e-05
5.44728e-05
5.52284e-05
5.61694e-05
5.61492e-05
5.46097e-05
5.32722e-05
5.14659e-05
5.11891e-05
5.26551e-05
6.05449e-05
8.79486e-05
0.000101102
0.000102179
9.95029e-05
9.5689e-05
9.22134e-05
9.05335e-05
9.08182e-05
9.06785e-05
8.92235e-05
8.66196e-05
8.545e-05
8.53712e-05
8.67377e-05
8.82946e-05
8.83838e-05
8.79295e-05
8.63474e-05
8.46847e-05
8.40561e-05
8.42435e-05
8.66193e-05
8.6859e-05
8.34993e-05
7.14837e-05
6.72336e-05
6.78196e-05
6.77997e-05
6.67376e-05
6.64264e-05
6.60264e-05
6.60538e-05
6.70056e-05
6.76408e-05
6.88589e-05
7.17593e-05
8.47179e-05
9.40115e-05
9.52714e-05
9.47074e-05
9.2178e-05
8.83497e-05
8.60519e-05
8.31716e-05
7.92822e-05
7.21923e-05
6.44825e-05
6.03502e-05
5.98642e-05
6.03075e-05
6.25371e-05
6.82763e-05
8.98092e-05
0.00010158
0.000102951
0.000105165
0.0001203
0.000128143
0.000125971
0.000127592
0.000133756
0.000132413
0.00012512
0.000124086
0.000119773
0.000104879
8.7036e-05
7.33446e-05
6.27499e-05
5.61912e-05
5.16553e-05
4.81687e-05
4.56424e-05
4.42497e-05
4.30464e-05
4.2285e-05
4.20061e-05
4.25554e-05
4.51566e-05
4.7636e-05
4.74884e-05
4.78208e-05
5.05104e-05
5.21995e-05
5.27414e-05
5.4163e-05
5.82367e-05
6.8324e-05
0.000100893
0.000121721
0.000128303
0.00012533
0.000110159
8.72859e-05
7.16706e-05
6.91576e-05
6.57538e-05
6.66918e-05
6.85883e-05
6.96556e-05
7.30761e-05
7.28216e-05
7.27239e-05
7.08433e-05
6.98932e-05
6.78097e-05
6.74291e-05
6.56445e-05
6.39537e-05
6.18256e-05
5.96614e-05
5.92793e-05
5.84604e-05
5.959e-05
5.98803e-05
6.26162e-05
6.26456e-05
6.46016e-05
6.40217e-05
6.5027e-05
6.36158e-05
6.33251e-05
6.09878e-05
6.06254e-05
5.98652e-05
5.79234e-05
5.93287e-05
5.87959e-05
6.45939e-05
6.52247e-05
7.56993e-05
7.81848e-05
9.09036e-05
4.62623e-05
4.61152e-05
4.54777e-05
4.50177e-05
4.42845e-05
4.30228e-05
4.24863e-05
4.24742e-05
4.29887e-05
4.48462e-05
4.74949e-05
4.89025e-05
4.89555e-05
4.84148e-05
4.77581e-05
4.70884e-05
4.59648e-05
4.53459e-05
4.61011e-05
4.81154e-05
4.94233e-05
4.99597e-05
4.99685e-05
4.9434e-05
4.60956e-05
4.29884e-05
4.13181e-05
4.05827e-05
4.08987e-05
4.09796e-05
4.08299e-05
4.01833e-05
3.9098e-05
3.69359e-05
3.26489e-05
2.78435e-05
2.28416e-05
1.88081e-05
1.57003e-05
1.36545e-05
1.34843e-05
1.37006e-05
1.46824e-05
1.63551e-05
1.93055e-05
2.46888e-05
2.96202e-05
3.52228e-05
4.17172e-05
4.80836e-05
5.49339e-05
5.87578e-05
6.25814e-05
6.57599e-05
6.58661e-05
6.55239e-05
6.41925e-05
6.15905e-05
6.16976e-05
6.36823e-05
6.36393e-05
6.16726e-05
5.69537e-05
5.58195e-05
5.66661e-05
6.05681e-05
7.88158e-05
0.000100216
0.000103277
0.000100913
9.79301e-05
9.62533e-05
9.54079e-05
9.57364e-05
9.53899e-05
9.41884e-05
9.01892e-05
8.6464e-05
8.51598e-05
8.51673e-05
8.69205e-05
8.8028e-05
8.76324e-05
8.63967e-05
8.5488e-05
8.41791e-05
8.24777e-05
8.23211e-05
8.43669e-05
8.61369e-05
8.44772e-05
7.55343e-05
6.95782e-05
6.90972e-05
6.84616e-05
6.61634e-05
6.5303e-05
6.53101e-05
6.75263e-05
7.14208e-05
7.25958e-05
7.28748e-05
7.34092e-05
7.95453e-05
9.08889e-05
9.41848e-05
9.41771e-05
9.26886e-05
8.9702e-05
8.83555e-05
8.71055e-05
8.39532e-05
7.62513e-05
6.88855e-05
6.53632e-05
6.47261e-05
6.51171e-05
6.76616e-05
7.59676e-05
9.75038e-05
0.000103234
0.000103025
0.000105072
0.000121048
0.000125906
0.00012439
0.000129073
0.000134453
0.000131236
0.000128349
0.000127002
0.000122245
0.00010502
8.62297e-05
7.18292e-05
6.17338e-05
5.59046e-05
5.16088e-05
4.84794e-05
4.65054e-05
4.56388e-05
4.52256e-05
4.417e-05
4.28356e-05
4.29401e-05
4.51058e-05
4.72658e-05
4.8754e-05
4.88188e-05
5.13052e-05
5.27205e-05
5.26057e-05
5.32617e-05
5.57371e-05
6.32363e-05
9.34374e-05
0.000117021
0.000125938
0.000124276
0.000115051
9.88627e-05
7.77835e-05
7.18339e-05
6.59083e-05
6.20875e-05
6.33032e-05
6.21507e-05
6.52602e-05
6.42543e-05
6.7224e-05
6.49471e-05
6.52324e-05
6.28206e-05
6.23703e-05
6.00259e-05
5.93699e-05
5.92094e-05
5.8945e-05
5.9714e-05
6.00895e-05
6.28305e-05
6.6734e-05
6.95374e-05
7.00113e-05
6.85673e-05
6.8821e-05
6.76075e-05
6.78565e-05
6.60338e-05
6.50684e-05
6.55425e-05
6.39553e-05
6.37379e-05
6.17756e-05
5.92064e-05
5.98438e-05
5.9356e-05
6.29811e-05
6.48352e-05
6.90493e-05
1.39395e-05
1.40901e-05
1.40635e-05
1.40465e-05
1.40093e-05
1.3907e-05
1.38654e-05
1.39129e-05
1.45766e-05
1.53696e-05
1.65224e-05
1.70304e-05
1.70151e-05
1.69787e-05
1.66754e-05
1.63305e-05
1.57654e-05
1.55239e-05
1.60221e-05
1.75382e-05
1.87128e-05
1.91523e-05
1.92072e-05
1.89319e-05
1.729e-05
1.56161e-05
1.45448e-05
1.41867e-05
1.46843e-05
1.55159e-05
1.57825e-05
1.57601e-05
1.56559e-05
1.47587e-05
1.32035e-05
1.14559e-05
1.05301e-05
1.05337e-05
1.07578e-05
1.16679e-05
1.34928e-05
1.6934e-05
2.22337e-05
2.70902e-05
3.56018e-05
4.25153e-05
5.00759e-05
5.92217e-05
6.62218e-05
7.34921e-05
7.8222e-05
8.12675e-05
8.32335e-05
8.30182e-05
8.05144e-05
7.5954e-05
7.37889e-05
7.38718e-05
7.39214e-05
7.25611e-05
6.68883e-05
6.3736e-05
6.37156e-05
6.49171e-05
6.73132e-05
7.45902e-05
9.80607e-05
0.000105171
0.000103283
9.82944e-05
9.89411e-05
0.000102073
0.000101708
9.82984e-05
9.63796e-05
9.47132e-05
9.01275e-05
8.61397e-05
8.46277e-05
8.46848e-05
8.57063e-05
8.6167e-05
8.60055e-05
8.54844e-05
8.53947e-05
8.45278e-05
8.19175e-05
8.14319e-05
8.36231e-05
8.61467e-05
8.55251e-05
7.98663e-05
7.52938e-05
7.31994e-05
7.00562e-05
6.64664e-05
6.5224e-05
6.53159e-05
6.98478e-05
7.61518e-05
7.73653e-05
7.59623e-05
7.45181e-05
7.60097e-05
8.66825e-05
9.25024e-05
9.33881e-05
9.29093e-05
9.11037e-05
9.01915e-05
8.95033e-05
8.74138e-05
7.96809e-05
7.286e-05
7.03213e-05
6.99477e-05
7.05626e-05
7.32036e-05
8.58576e-05
0.000101637
0.000103484
0.000100155
0.000102122
0.000118949
0.000122077
0.0001213
0.000130158
0.000133426
0.000131611
0.000129772
0.00013034
0.000127704
0.000108772
8.60922e-05
7.12296e-05
6.16082e-05
5.73492e-05
5.34308e-05
5.15923e-05
4.98909e-05
4.82384e-05
4.78215e-05
4.76451e-05
4.61144e-05
4.43966e-05
4.51302e-05
4.68403e-05
4.8604e-05
5.13728e-05
5.32671e-05
5.38287e-05
5.3267e-05
5.30429e-05
5.51781e-05
6.12927e-05
8.74818e-05
0.000109682
0.000124528
0.000123198
0.000118745
0.000105533
8.59924e-05
7.6644e-05
6.72106e-05
6.16911e-05
6.03786e-05
5.73576e-05
5.85207e-05
5.6937e-05
5.92208e-05
5.7027e-05
5.78108e-05
5.62465e-05
5.63338e-05
5.60042e-05
5.63671e-05
5.78638e-05
5.84082e-05
6.07255e-05
6.61186e-05
7.14745e-05
7.28365e-05
7.24275e-05
7.13279e-05
6.75141e-05
6.56731e-05
6.42791e-05
6.3399e-05
6.05236e-05
5.99492e-05
5.96054e-05
6.32375e-05
6.50055e-05
6.62645e-05
6.58708e-05
6.33297e-05
5.76642e-05
5.66298e-05
5.74775e-05
6.01919e-05
3.80082e-06
3.91288e-06
3.95388e-06
3.97704e-06
4.05756e-06
4.0911e-06
4.10841e-06
4.1152e-06
4.12817e-06
4.22124e-06
4.62554e-06
4.82727e-06
5.01934e-06
5.07005e-06
5.07409e-06
5.0269e-06
4.87221e-06
4.81585e-06
4.93794e-06
5.24537e-06
5.44305e-06
5.48302e-06
5.501e-06
5.47137e-06
5.16066e-06
4.80998e-06
4.67992e-06
4.73146e-06
4.95977e-06
5.4246e-06
5.96192e-06
6.17805e-06
6.51305e-06
6.87043e-06
7.1998e-06
7.79354e-06
9.20392e-06
1.11827e-05
1.43558e-05
1.981e-05
2.49692e-05
3.37577e-05
4.01781e-05
5.03853e-05
6.17201e-05
7.08018e-05
8.2052e-05
9.1764e-05
9.85413e-05
0.000104523
0.000106764
0.000106622
0.00010547
0.000100972
9.54385e-05
9.24592e-05
8.85797e-05
8.66589e-05
8.35746e-05
7.65374e-05
7.2167e-05
7.15508e-05
7.18718e-05
7.20975e-05
7.42753e-05
9.21512e-05
0.000105465
0.00010519
9.88929e-05
9.79536e-05
0.00010496
0.000109099
0.000104195
9.78769e-05
9.61271e-05
9.49615e-05
9.06535e-05
8.63532e-05
8.46958e-05
8.46549e-05
8.53161e-05
8.48906e-05
8.48649e-05
8.59641e-05
8.74321e-05
8.63689e-05
8.20683e-05
8.15266e-05
8.40625e-05
8.66121e-05
8.59995e-05
8.17484e-05
7.89155e-05
7.72611e-05
7.26816e-05
6.73678e-05
6.54761e-05
6.58052e-05
7.21364e-05
7.87672e-05
7.98388e-05
7.75951e-05
7.37789e-05
7.3366e-05
7.85064e-05
8.74896e-05
9.13522e-05
9.19589e-05
9.14366e-05
9.10298e-05
9.08366e-05
8.92218e-05
8.22429e-05
7.7041e-05
7.47771e-05
7.43871e-05
7.5115e-05
7.77848e-05
9.25181e-05
0.000103295
0.000103129
9.64661e-05
9.92176e-05
0.000115392
0.000118428
0.000119912
0.000130409
0.000132484
0.000132877
0.000132633
0.000137436
0.00013587
0.000111536
8.65295e-05
7.17017e-05
6.44267e-05
6.01331e-05
5.63632e-05
5.55443e-05
5.28419e-05
5.00555e-05
4.9049e-05
4.96101e-05
4.89636e-05
4.65439e-05
4.55031e-05
4.61532e-05
4.81503e-05
5.18784e-05
5.48254e-05
5.48013e-05
5.36629e-05
5.31962e-05
5.40993e-05
5.93542e-05
8.67619e-05
0.000107384
0.00012177
0.00012172
0.000119711
0.000112097
8.98842e-05
8.27415e-05
7.01463e-05
6.40605e-05
6.16585e-05
5.63361e-05
5.60632e-05
5.37605e-05
5.46855e-05
5.30736e-05
5.33122e-05
5.28644e-05
5.28061e-05
5.37759e-05
5.4977e-05
5.74489e-05
6.55217e-05
7.0555e-05
7.76993e-05
7.64462e-05
7.63307e-05
7.35366e-05
7.12513e-05
6.7026e-05
6.52467e-05
6.44734e-05
6.3138e-05
6.04303e-05
5.67308e-05
5.3698e-05
5.29688e-05
5.25294e-05
5.40063e-05
5.57047e-05
6.00033e-05
5.91169e-05
5.80602e-05
5.69667e-05
5.72847e-05
2.38393e-06
2.39246e-06
2.45969e-06
2.50091e-06
2.52003e-06
2.52296e-06
2.55309e-06
2.58047e-06
2.59377e-06
2.60698e-06
2.6064e-06
2.60921e-06
2.61495e-06
2.63722e-06
2.64627e-06
2.69713e-06
2.7128e-06
2.73666e-06
2.74838e-06
2.74946e-06
2.76451e-06
2.85654e-06
2.8974e-06
2.96726e-06
3.01426e-06
3.09879e-06
3.18738e-06
3.31382e-06
3.70263e-06
4.10983e-06
4.79627e-06
5.4134e-06
6.29591e-06
7.96162e-06
9.87976e-06
1.26224e-05
1.82352e-05
2.26629e-05
3.06592e-05
3.73496e-05
4.83534e-05
5.97834e-05
6.981e-05
8.51607e-05
9.84922e-05
0.000111824
0.000123715
0.000131867
0.000138151
0.000139453
0.00013853
0.000135967
0.000130998
0.000122107
0.000114894
0.000111477
0.000106388
9.8117e-05
9.1973e-05
8.73986e-05
8.2588e-05
7.73299e-05
7.38922e-05
7.3758e-05
8.21241e-05
0.000104306
0.0001072
0.00010237
9.82553e-05
0.000102368
0.000112058
0.000110996
0.000102491
9.59363e-05
9.52838e-05
9.49501e-05
9.11278e-05
8.70426e-05
8.51173e-05
8.48567e-05
8.55225e-05
8.57567e-05
8.62172e-05
8.79139e-05
8.84352e-05
8.61633e-05
8.21813e-05
8.20786e-05
8.54076e-05
8.77942e-05
8.721e-05
8.41316e-05
8.34054e-05
8.34653e-05
7.69098e-05
6.9037e-05
6.63457e-05
6.7243e-05
7.59593e-05
8.19383e-05
8.26077e-05
7.91878e-05
7.4524e-05
7.33594e-05
7.50439e-05
8.37028e-05
8.95271e-05
9.10853e-05
9.11662e-05
9.13261e-05
9.16701e-05
9.09098e-05
8.50419e-05
8.07653e-05
7.86234e-05
7.79838e-05
7.8545e-05
8.3062e-05
9.81742e-05
0.000104124
0.000101989
9.365e-05
9.79771e-05
0.00011122
0.000111925
0.000117963
0.000125028
0.000131748
0.000132674
0.000135875
0.000146857
0.000142268
0.000112399
8.96644e-05
7.7373e-05
6.95666e-05
6.22357e-05
5.91422e-05
5.80915e-05
5.51567e-05
5.24681e-05
4.97546e-05
4.931e-05
4.87865e-05
4.66432e-05
4.48819e-05
4.47778e-05
4.6404e-05
5.06372e-05
5.43824e-05
5.44456e-05
5.37134e-05
5.37532e-05
5.42438e-05
5.97056e-05
8.53173e-05
0.000105752
0.000121244
0.000121321
0.000119183
0.000114554
9.66644e-05
8.86347e-05
7.53256e-05
6.84732e-05
6.57915e-05
5.85543e-05
5.66276e-05
5.3092e-05
5.2196e-05
5.15328e-05
5.13992e-05
5.19691e-05
5.29704e-05
5.41807e-05
6.03593e-05
6.65183e-05
7.7139e-05
7.82792e-05
7.96608e-05
7.74911e-05
7.60412e-05
7.07103e-05
6.94291e-05
6.63095e-05
6.61657e-05
6.50004e-05
6.41603e-05
6.04216e-05
5.78423e-05
5.43275e-05
5.21309e-05
5.03473e-05
5.02321e-05
5.0496e-05
5.3363e-05
5.46515e-05
5.54548e-05
5.53013e-05
5.54193e-05
2.39214e-06
2.40061e-06
2.44328e-06
2.45013e-06
2.47769e-06
2.48262e-06
2.48665e-06
2.48375e-06
2.49693e-06
2.55655e-06
2.58138e-06
2.58875e-06
2.61476e-06
2.59463e-06
2.59143e-06
2.59114e-06
2.60111e-06
2.62471e-06
2.70175e-06
2.74598e-06
2.84869e-06
2.92051e-06
3.05964e-06
3.27706e-06
3.57735e-06
4.2134e-06
4.71057e-06
5.67552e-06
6.86453e-06
7.79725e-06
9.6072e-06
1.14881e-05
1.38411e-05
1.79265e-05
2.195e-05
2.82375e-05
3.7014e-05
4.40689e-05
5.70655e-05
6.72418e-05
8.35002e-05
9.85323e-05
0.000114928
0.00013249
0.000149532
0.000163458
0.00017244
0.000177633
0.00017792
0.000176633
0.000172178
0.000167668
0.000158934