/*--------------------------------*- C++ -*----------------------------------*\
| =========                 |                                                 |
| \\      /  F ield         | OpenFOAM: The Open Source CFD Toolbox           |
|  \\    /   O peration     | Version:  2.4.0                                 |
|   \\  /    A nd           | Web:      www.OpenFOAM.org                      |
|    \\/     M anipulation  |                                                 |
\*---------------------------------------------------------------------------*/
FoamFile
{
    version     2.0;
    format      ascii;
    class       volScalarField;
    location    "1.03";
    object      pPrime2Mean;
}
// * * * * * * * * * * * * * * * * * * * * * * * * * * * * * * * * * * * * * //

dimensions      [0 4 -4 0 0 0 0];

internalField   nonuniform List<scalar> 
8800
(
627869
612031
595037
578188
561569
545191
529056
513161
497509
482096
466923
451987
437284
422805
408537
394453
380498
366565
352403
337221
627891
612033
595036
578187
561569
545191
529056
513161
497509
482096
466924
451988
437285
422808
408541
394461
380513
366597
352481
337478
627905
612032
595031
578185
561568
545191
529055
513161
497509
482097
466924
451989
437287
422812
408549
394476
380542
366659
352624
337978
627916
612032
595027
578182
561566
545190
529055
513161
497509
482097
466925
451991
437290
422818
408560
394497
380585
366746
352823
338560
627925
612032
595024
578179
561565
545190
529055
513161
497509
482097
466926
451993
437295
422826
408575
394525
380639
366855
353063
339161
627932
612032
595021
578176
561564
545190
529055
513161
497509
482098
466927
451995
437300
422835
408593
394558
380702
366980
353326
339748
627937
612033
595019
578174
561563
545189
529055
513161
497509
482098
466929
451998
437306
422846
408613
394595
380772
367116
353600
340306
627941
612034
595018
578173
561562
545189
529055
513161
497510
482099
466931
452002
437312
422858
408635
394635
380848
367260
353877
340827
627943
612034
595017
578172
561562
545190
529055
513161
497510
482100
466933
452005
437319
422870
408658
394678
380927
367406
354148
341306
627945
612034
595017
578171
561562
545190
529056
513162
497511
482101
466935
452009
437326
422883
408682
394721
381006
367550
354407
341743
627945
612034
595017
578171
561562
545190
529056
513162
497511
482102
466937
452013
437333
422896
408705
394764
381084
367690
354652
342137
627943
612034
595017
578172
561562
545190
529056
513162
497512
482104
466939
452017
437340
422909
408729
394807
381160
367823
354877
342488
627941
612034
595018
578173
561563
545190
529056
513163
497513
482105
466941
452021
437347
422921
408751
394846
381231
367946
355082
342798
627937
612033
595019
578175
561564
545190
529056
513163
497513
482106
466943
452025
437353
422933
408772
394883
381296
368058
355263
343068
627932
612032
595021
578177
561565
545191
529056
513164
497514
482108
466945
452028
437359
422943
408790
394916
381354
368156
355420
343298
627925
612032
595024
578179
561566
545191
529057
513164
497515
482109
466947
452031
437364
422952
408806
394945
381403
368239
355552
343489
627916
612032
595027
578182
561567
545191
529057
513165
497516
482110
466948
452033
437368
422960
408820
394969
381444
368307
355658
343641
627905
612032
595032
578185
561569
545192
529058
513166
497516
482111
466949
452035
437372
422966
408830
394987
381475
368359
355738
343754
627891
612033
595036
578188
561570
545193
529058
513166
497517
482111
466950
452036
437374
422970
408837
394999
381496
368393
355792
343829
627869
612030
595037
578189
561570
545193
529058
513166
497517
482111
466951
452037
437375
422972
408840
395005
381507
368411
355818
343865
323462
319757
316929
314485
312219
310062
307982
305961
303984
302042
300130
298242
296375
294525
292690
290868
289057
287255
285461
283676
281898
280128
278366
276610
274862
273120
271383
269654
267930
266213
264503
262800
261105
259418
257738
256067
254403
252747
251097
249455
247818
246187
244561
242940
241323
239711
238104
236502
234906
233315
231729
230148
228572
227001
225434
223872
222316
220766
219221
217681
216146
214615
213087
211565
210046
208533
207025
205523
204028
202539
201057
199580
198109
196645
195185
193733
192286
190845
189411
187984
186564
185151
183745
182345
180951
179562
178178
176799
175425
174055
172689
171327
169968
168613
167261
165913
164568
163226
161889
160557
159229
157907
156591
155282
153979
152683
151395
150114
148840
147573
146312
145058
143809
142567
141330
140099
138874
137654
136441
135233
134031
132835
131645
130461
129282
128110
126942
125780
124622
123470
122320
121176
120033
118895
117759
116628
115500
114376
113257
112143
111033
109929
108830
107737
106649
105567
104491
103421
102356
101297
100243
99195.2
98152
97114.4
96081.9
95054.8
94032.6
93016.3
92005.2
91000.2
90000.5
89007.8
88020.5
87041.2
86066.9
85101
84139.7
83187.4
82240.3
81302.1
80368.7
79444.8
78524.6
77615.1
76707.8
75813.4
74917.8
74038.2
73154.5
72287.5
71416.7
70560.7
69701.1
68851.8
67998.7
67150.5
66297
65445
64583.2
63719.4
62840.6
61952.9
61043.5
60114.5
59152.1
58153.6
57098.5
55965.3
54743.4
53269.4
326101
322153
318934
316162
313653
311309
309077
306929
304845
302811
300818
298859
296929
295023
293139
291272
289421
287584
285758
283943
282140
280346
278562
276787
275021
273263
271513
269770
268035
266308
264589
262878
261175
259480
257794
256116
254446
252784
251130
249482
247841
246206
244577
242952
241333
239719
238110
236506
234908
233316
231728
230147
228570
226998
225431
223869
222313
220763
219218
217678
216143
214613
213086
211564
210047
208534
207027
205526
204031
202543
201060
199583
198113
196648
195189
193736
192289
190849
189415
187988
186569
185156
183751
182351
180958
179569
178185
176806
175432
174062
172696
171334
169975
168619
167267
165919
164574
163233
161896
160565
159239
157918
156603
155295
153993
152698
151410
150130
148856
147588
146327
145072
143823
142579
141342
140110
138884
137664
136450
135242
134040
132845
131655
130472
129294
128122
126955
125795
124637
123486
122337
121192
120050
118912
117777
116646
115518
114395
113276
112162
111053
109950
108851
107758
106671
105589
104513
103442
102378
101318
100265
99216.6
98173.5
97135.9
96103.2
95075.4
94052.6
93035
92022.4
91015.3
90013.7
89018.6
88028.9
87046.2
86068.8
85098.4
84133
83174.9
82221.9
81276.3
80335.1
79402
78472.1
77551.9
76632.9
75726.2
74817.5
73922.9
73025.5
72140.8
71254.4
70377.8
69500.3
68627.3
67753.4
66879.3
66000.7
65119.2
64228.9
63329.6
62416.8
61485.2
60531.9
59546.3
58525.3
57444.6
56316.8
55037.2
53696.5
52150
327932
324016
320646
317678
314989
312489
310125
307862
305678
303557
301488
299461
297471
295511
293579
291669
289779
287906
286049
284206
282377
280560
278755
276961
275178
273404
271640
269885
268139
266402
264673
262954
261243
259542
257849
256165
254489
252822
251162
249509
247864
246224
244591
242964
241342
239726
238115
236509
234909
233315
231727
230144
228567
226994
225428
223866
222310
220760
219215
217675
216140
214610
213085
211564
210048
208537
207031
205530
204036
202547
201065
199588
198117
196653
195194
193741
192294
190854
189420
187994
186574
185162
183757
182358
180965
179577
178193
176814
175440
174071
172705
171342
169983
168627
167275
165926
164582
163242
161907
160576
159251
157932
156619
155312
154011
152717
151430
150150
148876
147608
146347
145090
143840
142595
141356
140123
138897
137676
136462
135255
134054
132859
131670
130487
129310
128139
126973
125813
124656
123504
122356
121211
120069
118931
117796
116665
115538
114415
113296
112183
111074
109971
108873
107781
106693
105612
104536
103465
102400
101341
100288
99239.6
98196.6
97159.1
96126
95097.3
94073.4
93054.3
92039.8
91030.7
90027.2
89029.6
88037.5
87051.6
86071.4
85096.7
84127.2
83163.9
82204.8
81251.8
80302.4
79360.2
78420.1
77489
76558.4
75638.1
74718
73807.1
72897.5
71994.4
71093.7
70195.8
69300.9
68404.7
67510.1
66610.4
65709.1
64797.5
63882.2
62948
62005.1
61031.7
60042.8
59001.5
57944.4
56782.9
55618
54261.9
52864.9
51352.9
329327
325513
322102
319025
316210
313588
311113
308750
306476
304275
302134
300044
297996
295985
294006
292054
290126
288220
286332
284462
282608
280769
278943
277131
275331
273543
271765
269998
268241
266494
264756
263029
261311
259602
257903
256213
254531
252858
251193
249536
247886
246243
244606
242975
241351
239732
238119
236512
234910
233315
231726
230142
228564
226991
225424
223863
222307
220757
219212
217672
216138
214609
213084
211564
210049
208539
207034
205535
204041
202553
201071
199594
198124
196659
195200
193746
192299
190859
189425
187999
186580
185169
183764
182365
180972
179585
178202
176823
175450
174080
172714
171351
169992
168636
167284
165936
164592
163253
161919
160591
159268
157950
156638
155333
154033
152740
151454
150174
148900
147631
146369
145111
143860
142614
141374
140140
138913
137692
136478
135271
134070
132875
131687
130505
129329
128158
126993
125833
124677
123525
122377
121231
120089
118951
117816
116684
115557
114434
113316
112203
111095
109992
108894
107802
106716
105634
104559
103488
102424
101364
100312
99263.7
98221.1
97183.5
96149.9
95119.9
94094.6
93073.3
92056.6
91045.2
90039.7
89039.3
88045
87055.9
86073
85094.2
84121
83152.4
82187.8
81227.2
80270.2
79318.7
78368.8
77425.8
76485.1
75550.6
74619.9
73693.3
72771.3
71850.6
70935
70017.2
69104.2
68185.7
67271.1
66345.9
65424.3
64482.6
63546
62576
61611.8
60592.5
59584.9
58484.8
57407.8
56186.4
54981.3
53622.2
52219.4
50760.4
330447
326739
323338
320209
317312
314599
312033
309584
307231
304958
302752
300602
298501
296442
294418
292427
290463
288524
286607
284711
282833
280972
279127
277297
275481
273678
271887
270108
268341
266584
264838
263103
261377
259662
257957
256260
254573
252895
251225
249563
247908
246261
244621
242987
241360
239739
238124
236515
234913
233316
231725
230141
228562
226989
225422
223861
222305
220755
219210
217671
216137
214608
213084
211565
210051
208542
207039
205540
204047
202560
201078
199602
198131
196665
195206
193752
192305
190864
189431
188005
186586
185175
183771
182372
180980
179592
178210
176832
175459
174089
172724
171361
170002
168646
167295
165947
164605
163267
161935
160608
159287
157971
156661
155356
154058
152766
151480
150200
148926
147656
146393
145134
143881
142634
141393
140158
138931
137709
136496
135288
134088
132894
131706
130524
129348
128178
127014
125854
124698
123545
122397
121251
120109
118969
117834
116702
115575
114452
113334
112221
111113
110010
108914
107822
106737
105655
104581
103511
102447
101388
100336
99287.9
98245.9
97207.5
96173.6
95141.9
94115.2
93091
92072.1
91057.8
90050.1
89046.5
88049.9
87057.7
86072.2
85089.8
84113
83139.4
82169.5
81201.9
80237.9
79276.7
78318.6
77363.6
76413.2
75465.7
74523.9
73582.7
72647.9
71710.3
70779.7
69842.2
68912.7
67970.9
67040.2
66087.1
65149.8
64176.3
63224.2
62216.6
61236.6
60176.5
59148.1
58010.3
56900
55664
54420.9
53091.8
51711.3
50294.5
331390
327773
324398
321247
318298
315519
312880
310360
307940
305603
303338
301134
298983
296879
294814
292785
290788
288818
286873
284952
283051
281169
279306
277458
275627
273810
272007
270217
268439
266674
264919
263176
261444
259722
258010
256308
254616
252932
251257
249591
247932
246281
244638
243001
241371
239748
238131
236521
234917
233319
231727
230142
228563
226989
225422
223860
222305
220755
219210
217671
216138
214609
213086
211568
210055
208547
207045
205547
204055
202568
201086
199609
198137
196671
195211
193757
192309
190868
189435
188009
186591
185180
183776
182378
180986
179599
178218
176840
175468
174099
172734
171372
170013
168658
167307
165960
164619
163282
161952
160626
159307
157993
156685
155382
154085
152793
151507
150227
148952
147682
146417
145157
143903
142655
141413
140178
138950
137728
136514
135306
134106
132912
131724
130542
129367
128197
127033
125873
124717
123564
122415
121268
120125
118985
117850
116717
115590
114467
113349
112235
111128
110026
108930
107839
106755
105674
104601
103531
102468
101410
100359
99309.4
98268.2
97228.4
96194
95160.6
94133
93105.6
92085
91067.6
90057.4
89050.2
88051.5
87055.7
86068.1
85081.7
84102
83123.6
82149.2
81174.1
80204.3
79233
78267.8
77301.4
76342.6
75381.8
74430.6
73473.6
72528.1
71572.3
70628.8
69670.5
68727.5
67762.7
66817
65840
64885.6
63887.4
62915
61883
60876.6
59795.7
58734.3
57585.2
56441.4
55213.9
53956.1
52653
51296.9
49909.6
332203
328659
325313
322156
319175
316347
313654
311076
308598
306206
303889
301637
299441
297294
295192
293128
291099
289100
287129
285184
283261
281360
279479
277615
275769
273939
272124
270323
268536
266761
264999
263248
261509
259781
258063
256356
254658
252969
251290
249619
247957
246302
244655
243016
241384
239758
238140
236528
234923
233324
231731
230145
228565
226992
225424
223863
222307
220757
219213
217674
216141
214613
213090
211572
210060
208553
207051
205554
204061
202574
201092
199614
198142
196676
195215
193760
192312
190871
189438
188012
186594
185183
183780
182382
180991
179605
178224
176848
175476
174109
172745
171383
170025
168671
167320
165974
164633
163298
161968
160645
159328
158015
156709
155407
154110
152819
151533
150252
148977
147706
146440
145178
143924
142675
141432
140196
138968
137745
136531
135323
134122
132927
131740
130557
129382
128212
127048
125887
124732
123578
122428
121281
120138
118997
117861
116728
115601
114477
113359
112245
111139
110037
108943
107853
106770
105690
104617
103548
102485
101427
100376
99325.8
98285
97244.3
96208.7
95174.1
94145.4
93115.4
92092.8
91072.5
90059.3
89049
88047.6
87049.2
86058.6
85068.8
84086
83103.3
82124.5
81142.8
80166.3
79187.3
78214
77238.2
76269.9
75298.6
74336.7
73367
72408.7
71438.5
70479.7
69505.8
68544.9
67564.9
66599
65607.8
64631.4
63619.1
62621.2
61577.1
60543.3
59452
58365.6
57213.2
56050.5
54834.8
53576.5
52287.9
50948.5
49582.1
332912
329427
326110
322953
319952
317091
314356
311731
309205
306766
304403
302107
299870
297686
295549
293453
291394
289369
287374
285406
283463
281543
279645
277766
275906
274063
272237
270426
268629
266846
265076
263318
261573
259838
258115
256402
254700
253007
251323
249649
247982
246325
244675
243033
241398
239771
238151
236537
234931
233331
231737
230151
228570
226996
225428
223867
222311
220761
219216
217678
216145
214617
213094
211577
210065
208557
207055
205558
204066
202578
201095
199617
198145
196677
195216
193761
192313
190872
189439
188013
186595
185185
183782
182385
180994
179609
178229
176854
175484
174118
172755
171395
170038
168683
167333
165987
164646
163312
161984
160662
159346
158035
156730
155428
154133
152842
151556
150275
148999
147726
146459
145197
143941
142691
141448
140212
138983
137761
136546
135337
134136
132940
131751
130568
129392
128222
127058
125897
124740
123586
122436
121288
120144
119002
117866
116733
115605
114481
113363
112250
111144
110044
108950
107862
106779
105701
104628
103559
102497
101439
100388
99336.3
98295.3
97254
96216.5
95181.8
94151.3
93119.8
92095
91072.1
90055.5
89042.8
88037.6
87037.7
86042.7
85050.9
84064.6
83078.3
82094.4
81108
80125.1
79140.1
78158.2
77174.4
76196.7
75216.7
74243.5
73264.4
72291.9
71310.7
70335.9
69349.8
68370.4
67378.7
66394.7
65392.4
64396.6
63374.2
62355.8
61302
60249
59150.1
58048.1
56897.6
55723.8
54516.1
53259.4
51977.3
50650.1
49300.5
333535
330097
326805
323654
320641
317756
314988
312326
309760
307280
304878
302544
300271
298053
295884
293759
291673
289622
287604
285616
283654
281717
279803
277910
276037
274182
272345
270524
268719
266927
265150
263386
261634
259894
258166
256448
254741
253044
251356
249678
248009
246348
244695
243051
241414
239785
238163
236548
234940
233339
231745
230157
228576
227002
225433
223871
222315
220765
219220
217681
216148
214620
213097
211579
210067
208559
207057
205559
204066
202578
201095
199617
198144
196676
195215
193760
192312
190871
189438
188012
186594
185184
183781
182385
180995
179611
178232
176858
175489
174125
172764
171404
170047
168693
167343
165997
164657
163323
161995
160674
159359
158050
156745
155445
154150
152859
151574
150292
149014
147741
146472
145209
143953
142703
141460
140224
138995
137772
136557
135347
134145
132947
131757
130573
129396
128225
127060
125898
124741
123586
122435
121287
120143
119001
117864
116731
115603
114480
113362
112249
111145
110045
108953
107866
106784
105707
104634
103565
102503
101444
100393
99340.8
98300
97256.9
96217.6
95183.7
94150.8
93118.7
92091.1
91067.3
90045.9
89032.3
88021.8
87021.8
86021.2
85028.9
84038.4
83050.3
82060.2
81070.5
80079.7
79090.6
78100.8
77111.2
76124
75138.8
74153
73168.6
72180.8
71192.5
70201.8
69205.7
68210.4
67207.8
66209.4
65199.1
64186.9
63157.9
62123.3
61062.5
59995.5
58892.2
57778.5
56631.1
55448.2
54242.6
52987.8
51709.7
50394.4
49059.5
334083
330683
327413
324269
321249
318347
315554
312862
310263
307750
305313
302945
300641
298392
296195
294043
291933
289860
287821
285813
283833
281880
279952
278046
276160
274295
272447
270617
268803
267005
265221
263450
261692
259947
258214
256492
254780
253079
251388
249707
248035
246371
244716
243070
241431
239800
238176
236560
234950
233348
231753
230164
228583
227007
225438
223875
222318
220768
219223
217683
216149
214620
213097
211579
210065
208557
207054
205556
204063
202575
201091
199613
198139
196672
195211
193756
192308
190867
189434
188009
186591
185181
183778
182382
180993
179610
178233
176860
175493
174130
172770
171411
170054
168700
167349
166003
164663
163330
162002
160682
159367
158059
156755
155455
154160
152869
151583
150301
149022
147748
146479
145216
143959
142708
141465
140229
139000
137777
136562
135352
134148
132949
131757
130570
129392
128219
127054
125892
124734
123579
122427
121279
120134
118993
117856
116724
115597
114474
113357
112246
111142
110043
108952
107865
106784
105707
104636
103565
102503
101445
100392
99340.8
98297.9
97254.4
96214.1
95181.6
94145.3
93113.8
92082.8
91060
90031.6
89019
88000.5
87002.7
85994.7
85004.7
84007.5
83020.2
82021.4
81031.9
80032.5
79040.4
78042.4
77050
76053.2
75067.4
74068
73082.1
72079.9
71086.5
70082.2
69076.1
68070.4
67059.6
66048.3
65032
64005.2
62971.2
61923.6
60857.4
59777
58672.6
57546.5
56399.5
55209.4
54002.4
52751.8
51479
50175.8
48854.6
334565
331195
327945
324808
321784
318869
316057
313341
310715
308173
305707
303311
300979
298703
296481
294305
292172
290078
288021
285995
284000
282032
280090
278172
276275
274399
272543
270704
268883
267077
265287
263510
261747
259997
258259
256533
254818
253114
251420
249735
248060
246394
244737
243088
241447
239814
238189
236571
234960
233357
231760
230171
228588
227011
225441
223877
222320
220768
219222
217682
216147
214618
213094
211575
210061
208552
207049
205550
204056
202568
201084
199605
198132
196665
195204
193750
192302
190861
189428
188002
186584
185174
183772
182376
180988
179606
178230
176859
175494
174132
172772
171412
170056
168701
167350
166004
164664
163330
162003
160682
159368
158060
156757
155457
154162
152871
151584
150301
149022
147747
146478
145215
143957
142707
141464
140228
138999
137776
136560
135350
134145
132945
131750
130562
129381
128207
127040
125877
124720
123564
122413
121264
120120
118980
117844
116713
115587
114466
113351
112240
111137
110039
108948
107860
106780
105702
104631
103559
102497
101439
100384
99335.7
98289.8
97247.7
96207.3
95175
94135.9
93105.8
92071.5
91049.5
90016.4
89002.6
87976.9
86979.5
85962.4
84974.3
83970.9
82987.1
81977.8
80989.7
79982.3
78991.7
77986.2
76992.2
75986.9
75002.1
73991.2
73003.7
71990.9
70991.1
69978.4
68961.9
67948.1
66931.1
65908.2
64893.2
63851.6
62815.2
61751.1
60681.9
59588.6
58483.3
57345.2
56193.8
55000.8
53792.9
52547.9
51282
49990.5
48681.9
334987
331641
328407
325277
322252
319327
316500
313765
311117
308551
306061
303640
301284
298985
296740
294543
292391
290278
288203
286162
284152
282171
280217
278287
276381
274496
272631
270785
268956
267144
265348
263566
261798
260044
258302
256572
254854
253146
251449
249762
248084
246416
244756
243105
241463
239828
238200
236581
234969
233364
231766
230175
228591
227013
225442
223877
222319
220766
219219
217678
216143
214613
213088
211568
210053
208544
207040
205541
204047
202559
201075
199596
198124
196657
195197
193743
192295
190854
189421
187994
186576
185165
183763
182368
180980
179600
178225
176856
175491
174128
172769
171408
170051
168696
167345
165998
164658
163323
161996
160675
159361
158053
156750
155451
154156
152863
151576
150293
149014
147740
146471
145207
143950
142699
141457
140221
138992
137769
136553
135342
134136
132934
131738
130548
129365
128189
127021
125857
124698
123543
122392
121244
120101
118962
117829
116698
115575
114454
113340
112231
111129
110031
108940
107851
106773
105692
104621
103547
102487
101427
100371
99324.7
98277.9
97237.6
96197.8
95165.7
94126.5
93094.3
92059.4
91035.5
89999.9
88982.2
87953.3
86952.5
85930.8
84938.4
83933
82949.4
81936.1
80946.4
79934.4
78941.1
77930.2
76936.1
75925.8
74939.3
73920.9
72930.2
71910.2
70906.5
69886.2
68864.1
67843
66821.3
65791.7
64771.9
63716
62676.6
61601.9
60529.2
59427.6
58315.8
57169.3
56013.4
54819.9
53613.6
52374.7
51115.9
49835.2
48538.1
335353
332028
328807
325683
322657
319725
316886
314136
311470
308885
306374
303933
301555
299237
296972
294757
292587
290458
288368
286313
284290
282297
280332
278392
276476
274583
272711
270858
269023
267205
265404
263617
261845
260087
258341
256608
254886
253176
251476
249786
248106
246436
244774
243121
241476
239839
238210
236589
234975
233369
231770
230177
228592
227013
225441
223875
222315
220762
219214
217672
216135
214604
213079
211559
210044
208535
207030
205531
204037
202548
201065
199587
198114
196648
195189
193735
192288
190847
189413
187986
186567
185156
183753
182358
180970
179590
178217
176848
175483
174120
172759
171398
170040
168685
167333
165985
164646
163311
161984
160661
159348
158039
156737
155436
154142
152849
151562
150278
149000
147726
146459
145195
143938
142687
141445
140208
138979
137756
136540
135328
134122
132918
131722
130529
129346
128168
126998
125832
124673
123517
122367
121219
120078
118940
117809
116680
115559
114439
113326
112217
111116
110018
108928
107839
106761
105679
104606
103532
102471
101410
100356
99308.7
98264.1
97222
96183.1
95152.4
94114.4
93079.2
92048.1
91018.5
89982.2
88955.9
87929.4
86918.7
85896.8
84897.8
83892.9
82907.2
81890.7
80906.2
79889.1
78893.4
77876.7
76877.3
75865.2
74873.6
73853.8
72860.4
71836.3
70831.2
69804.7
68779.3
67752
66727.4
65689.4
64660.1
63602.2
62554.8
61473.6
60392.5
59287.6
58167.6
57017.4
55859.3
54666.5
53463
52229.5
50977.8
49706.8
48419.8
335668
332359
329149
326030
323003
320066
317218
314455
311776
309175
306647
304189
301794
299458
297176
294945
292760
290617
288513
286446
284412
282408
280433
278485
276562
274661
272782
270923
269083
267260
265454
263663
261887
260125
258376
256640
254915
253202
251500
249808
248126
246453
244789
243134
241487
239849
238218
236595
234979
233371
231771
230177
228590
227010
225437
223870
222309
220755
219206
217663
216126
214595
213069
211548
210033
208524
207019
205520
204027
202538
201055
199577
198105
196640
195181
193727
192280
190839
189405
187977
186557
185145
183741
182345
180958
179578
178204
176835
175469
174105
172743
171381
170024
168667
167316
165968
164629
163293
161965
160643
159330
158021
156718
155418
154123
152829
151543
150259
148982
147709
146442
145179
143923
142671
141428
140191
138963
137739
136523
135310
134103
132898
131701
130508
129323
128143
126973
125805
124646
123489
122340
121193
120053
118917
117787
116660
115539
114420
113309
112200
111099
110001
108912
107823
106746
105662
104589
103512
102452
101387
100337
99290.1
98247.3
97203.3
96166.3
95133.9
94098.1
93058.4
92034.2
90997.5
89961.8
88932
87906.6
86877.8
85861.8
84853.6
83846.7
82860.9
81847.3
80857.4
79841.4
78845.1
77822.3
76815.3
75805.2
74805.3
73788.9
72794.2
71765.9
70761.5
69731.9
68703.9
67673.7
66644.7
65602.1
64564.9
63502.3
62442.1
61362.6
60271.5
59166.2
58040
56889.4
55730.6
54539.6
53338.2
52109.2
50864.6
49601.8
48323.7
335935
332640
329437
326321
323294
320353
317497
314726
312035
309421
306880
304407
301998
299648
297352
295108
292909
290754
288639
286561
284517
282505
280522
278566
276636
274729
272844
270980
269135
267308
265498
263703
261924
260159
258407
256668
254941
253225
251520
249826
248142
246467
244801
243144
241496
239855
238223
236598
234981
233371
231769
230174
228586
227005
225431
223863
222302
220746
219197
217654
216117
214585
213059
211538
210023
208513
207009
205510
204016
202528
201045
199568
198097
196631
195173
193720
192273
190831
189396
187968
186547
185134
183730
182333
180944
179564
178188
176818
175450
174085
172722
171361
170003
168647
167295
165948
164608
163272
161944
160623
159310
158001
156698
155398
154102
152809
151523
150239
148963
147690
146424
145161
143904
142653
141410
140172
138944
137720
136504
135290
134082
132877
131679
130485
129300
128119
126947
125779
124619
123462
122313
121167
120028
118892
117763
116638
115518
114401
113290
112182
111082
109983
108895
107806
106727
105642
104571
103495
102429
101365
100317
99266.6
98226.7
97181.8
96143.8
95111.7
94080
93038.6
92013.2
90967.1
89943.7
88903.3
87871.8
86838.2
85830.1
84815.1
83807.8
82811.9
81799.9
80801.5
79792.7
78787.9
77768.4
76755.6
75749.5
74740.5
73728.9
72725.6
71703.1
70695.1
69667.1
68639
67610.1
66575.1
65523.8
64478.1
63413.8
62345.4
61265.6
60167.9
59064.8
57934.7
56785.3
55625.9
54436.5
53236.9
52012.3
50773.5
49517
48246.9
336158
332872
329673
326559
323531
320587
317727
314948
312249
309626
307074
304590
302169
299807
297500
295244
293035
290870
288745
286658
284606
282587
280597
278635
276699
274787
272897
271028
269179
267348
265535
263737
261955
260187
258432
256691
254961
253244
251537
249841
248154
246478
244810
243152
241501
239859
238225
236599
234981
233370
231766
230170
228581
226999
225424
223856
222294
220738
219189
217645
216108
214576
213049
211528
210013
208503
206999
205500
204006
202518
201036
199559
198088
196623
195165
193713
192265
190824
189388
187959
186538
185124
183718
182321
180931
179548
178171
176799
175430
174063
172699
171339
169980
168624
167273
165926
164586
163251
161923
160603
159289
157981
156678
155378
154083
152791
151503
150220
148944
147671
146404
145142
143885
142634
141390
140153
138923
137701
136483
135270
134061
132857
131658
130464
129278
128099
126925
125757
124595
123438
122288
121143
120003
118869
117739
116616
115496
114381
113270
112164
111063
109965
108875
107786
106705
105620
104548
103472
102410
101347
100295
99244.7
98203.4
97157.4
96122.5
95088.3
94055.3
93013.8
91989.2
90939.3
89912.1
88861.6
87841.3
86806.8
85796.8
84779.9
83767.6
82755.1
81751.3
80749.7
79742.8
78726.8
77720.2
76705.8
75696.9
74684.7
73676.8
72663.5
71651.8
70632.8
69610.3
68582.3
67553.3
66510.4
65457.3
64406.2
63334.9
62262.7
61183.7
60085.4
58980.5
57851.4
56703.4
55543.1
54355.6
53156.6
51936.3
50701.4
49449.7
48186.6
336335
333056
329860
326746
323717
320772
317908
315125
312420
309789
307228
304735
302305
299934
297618
295353
293135
290962
288830
286736
284678
282652
280657
278690
276749
274833
272939
271067
269215
267381
265564
263764
261979
260209
258452
256709
254977
253258
251549
249851
248164
246485
244817
243157
241505
239862
238226
236599
234980
233368
231763
230166
228577
226994
225418
223850
222287
220731
219182
217638
216100
214568
213041
211520
210005
208495
206990
205491
203998
202510
201027
199551
198080
196616
195158
193705
192258
190817
189381
187952
186530
185116
183709
182310
180918
179533
178154
176781
175409
174042
172677
171317
169958
168603
167251
165907
164565
163232
161904
160585
159270
157963
156659
155361
154065
152774
151485
150204
148926
147655
146387
145125
143867
142617
141371
140136
138905
137684
136464
135252
134042
132839
131640
130447
129261
128081
126906
125739
124575
123419
122267
121122
119980
118847
117717
116594
115475
114361
113250
112144
111042
109945
108852
107764
106680
105599
104525
103454
102389
101326
100274
99220.8
98176.8
97134.6
96099.3
95059.6
94025
92985.6
91955.7
90905.1
89878.8
88833.6
87817
86769.1
85761.8
84735.8
83721.7
82716.2
81712.3
80698
79692.5
78674.7
77674
76657.4
75652.6
74639.1
73631.9
72613.9
71607.5
70577.9
69561.5
68530.5
67505.6
66453.1
65401.4
64342.7
63272.5
62199.3
61118.5
60020.5
58915.2
57789.8
56641.1
55480.7
54294.2
53095.4
51878.3
50645.8
49398.5
48140.3
336467
333193
329998
326884
323855
320909
318043
315257
312547
309910
307344
304844
302407
300029
297706
295435
293211
291032
288894
286795
284732
282702
280702
278731
276787
274868
272971
271096
269241
267405
265586
263784
261997
260225
258467
256721
254989
253268
251558
249859
248170
246491
244821
243160
241507
239863
238227
236599
234979
233366
231761
230164
228574
226991
225415
223845
222283
220726
219176
217632
216094
214562
213035
211514
209998
208488
206983
205484
203990
202503
201021
199544
198074
196610
195152
193700
192253
190811
189375
187946
186524
185109
183702
182301
180907
179521
178139
176764
175391
174025
172659
171300
169940
168587
167235
165891
164549
163218
161888
160570
159255
157949
156644
155347
154049
152760
151471
150191
148912
147642
146373
145112
143853
142604
141357
140122
138890
137669
136449
135239
134028
132828
131627
130436
129248
128070
126894
125727
124562
123406
122251
121106
119962
118829
117697
116575
115455
114343
113230
112126
111022
109926
108831
107743
106657
105580
104503
103436
102368
101307
100251
99198.4
98153.5
97110
96070.7
95030.8
93996.2
92955.5
91921.8
90878.6
89849.5
88803.8
87788.1
86737.5
85729.5
84695.2
83688.6
82676.5
81668.4
80655.3
79652.1
78634.1
77634.2
76617.8
75616.6
74600.1
73595
72574.8
71567.6
70536.6
69523.7
68487.7
67462.1
66404.4
65359.2
64294.7
63226
62151.1
61069.9
59978
58869
57747.3
56596.9
55437.3
54250
53052.3
51836.8
50605.9
49361.6
48106.6
336551
333281
330089
326976
323948
321000
318133
315344
312631
309991
307421
304917
302475
300093
297765
295489
293262
291079
288937
286835
284768
282735
280733
278759
276812
274891
272992
271115
269258
267420
265600
263797
262009
260235
258476
256730
254996
253274
251563
249864
248174
246494
244823
243162
241509
239864
238228
236599
234978
233366
231760
230162
228572
226989
225412
223843
222280
220723