/*--------------------------------*- C++ -*----------------------------------*\
| =========                 |                                                 |
| \\      /  F ield         | OpenFOAM: The Open Source CFD Toolbox           |
|  \\    /   O peration     | Version:  2.4.0                                 |
|   \\  /    A nd           | Web:      www.OpenFOAM.org                      |
|    \\/     M anipulation  |                                                 |
\*---------------------------------------------------------------------------*/
FoamFile
{
    version     2.0;
    format      ascii;
    class       volScalarField;
    location    "0.95";
    object      p;
}
// * * * * * * * * * * * * * * * * * * * * * * * * * * * * * * * * * * * * * //

dimensions      [0 2 -2 0 0 0 0];

internalField   nonuniform List<scalar> 
8800
(
102.677
90.3507
82.8942
79.4619
77.5011
76.119
75.0056
73.7276
72.8897
71.8341
70.8234
70.0572
69.0235
68.0814
67.4692
66.4329
65.6942
65.1445
64.4871
63.6612
99.5615
89.9991
83.0622
79.5758
77.5627
76.1391
75.0208
73.722
72.8858
71.8391
70.8081
70.0649
69.0214
68.0693
67.4817
66.4314
65.6811
65.1521
64.4954
63.5784
97.5954
90.0761
83.6631
79.9517
77.7302
76.2175
75.0692
73.7499
72.9147
71.8576
70.8115
70.0793
69.018
68.0624
67.4894
66.4209
65.6718
65.146
64.5656
63.6338
96.0552
90.1388
84.2592
80.3697
77.9179
76.3074
75.1208
73.8103
72.9672
71.8899
70.845
70.099
69.0199
68.0731
67.4913
66.4112
65.6602
65.1428
64.629
63.9264
94.8051
90.1038
84.7398
80.772
78.0967
76.3794
75.1557
73.8769
73.0226
71.9321
70.8966
70.1176
69.0268
68.1019
67.474
66.4134
65.6358
65.1456
64.5411
64.3211
93.808
90.0059
85.1151
81.1029
78.2644
76.4184
75.1671
73.9389
73.0623
71.9735
70.9534
70.1293
69.0377
68.1359
67.4416
66.4161
65.6252
65.1401
64.5469
64.9006
93.0276
89.872
85.3873
81.3757
78.4174
76.4417
75.1591
73.9792
73.0888
72.007
70.9747
70.1387
69.052
68.1561
67.4095
66.4187
65.638
65.1278
64.6476
65.2681
92.4821
89.7863
85.5495
81.5851
78.5473
76.4538
75.1451
74.0072
73.1112
72.0403
71.0095
70.1465
69.0622
68.1737
67.391
66.4267
65.6561
65.1278
64.7455
65.5254
92.1256
89.7303
85.6699
81.7442
78.6345
76.4623
75.1397
74.0719
73.1304
72.0746
71.037
70.1462
69.0766
68.1872
67.3771
66.4423
65.6788
65.1437
64.8191
65.7445
91.9431
89.7109
85.7299
81.8177
78.6848
76.4591
75.1348
74.0793
73.1256
72.093
71.0573
70.1388
69.0884
68.1941
67.3702
66.4559
65.7028
65.1525
64.8761
65.8805
91.9418
89.7175
85.7332
81.8115
78.692
76.4606
75.1285
74.0815
73.1152
72.0992
71.0657
70.1253
69.1054
68.1967
67.3669
66.4768
65.7307
65.1523
64.9244
65.9056
92.1181
89.7832
85.6807
81.728
78.6598
76.4501
75.1324
74.0859
73.0882
72.102
71.0654
70.1113
69.1192
68.2029
67.3648
66.5096
65.7478
65.1667
64.9321
65.8486
92.4724
89.8663
85.5691
81.5741
78.5856
76.4316
75.142
74.0816
73.0483
72.085
71.0551
70.0851
69.1385
68.2057
67.3644
66.5504
65.7644
65.1805
64.9185
65.7328
93.0222
89.9741
85.3882
81.3483
78.4676
76.4056
75.1409
74.0744
72.9936
72.069
71.0396
70.0531
69.1552
68.2034
67.373
66.5951
65.7825
65.1966
64.9034
65.5533
93.7755
90.0918
85.1262
81.0505
78.3385
76.3665
75.144
74.0575
72.9258
72.0493
71.0106
70.012
69.1772
68.1948
67.3745
66.6519
65.8114
65.2206
64.892
65.2908
94.7586
90.1939
84.766
80.6853
78.1972
76.312
75.1132
74.0404
72.8459
72.0111
70.9903
69.9618
69.1927
68.1872
67.3775
66.703
65.8479
65.2556
64.9119
64.9896
96.0045
90.2191
84.3006
80.2652
78.0367
76.2412
75.0591
74.0111
72.7675
71.9675
70.9699
69.9168
69.1997
68.1824
67.3784
66.737
65.8934
65.2914
64.9608
64.7064
97.5389
90.1528
83.7262
79.8326
77.8537
76.1582
74.9878
73.9678
72.7164
71.9226
70.9524
69.8964
69.1937
68.1834
67.3862
66.7519
65.9296
65.324
65.0067
64.5626
99.5042
90.0653
83.1327
79.457
77.6799
76.0874
74.9376
73.9339
72.6992
71.9
70.9439
69.8977
69.1869
68.1919
67.3955
66.7544
65.9508
65.3462
64.9895
64.4985
102.616
90.4144
82.9624
79.3476
77.6149
76.0639
74.9365
73.9229
72.7101
71.9027
70.94
69.9102
69.1824
68.195
67.4046
66.7485
65.9577
65.3554
64.9834
64.6214
63.9842
64.0905
64.1377
64.1476
64.1578
64.1473
64.1218
64.0921
64.0824
64.0828
64.0851
64.0897
64.1086
64.1281
64.1468
64.1296
64.0792
63.9907
63.8604
63.6757
63.4553
63.2022
62.9414
62.6586
62.389
62.1172
61.884
61.696
61.5787
61.5579
61.6472
61.853
62.1665
62.5436
62.891
63.1367
63.202
63.0896
62.8304
62.4871
62.1499
61.8658
61.7022
61.7148
61.8794
62.1687
62.5578
63.0052
63.4403
63.8093
64.0773
64.2491
64.3626
64.5123
64.7217
65.0168
65.4313
65.8398
66.0561
65.9565
65.5418
64.7661
63.6235
62.2408
60.6741
59.1856
57.8251
56.8569
56.1711
55.7233
55.4691
55.3399
55.2661
55.2268
55.2934
55.4145
55.623
55.8595
56.1736
56.7213
57.4938
58.3575
59.0216
59.2907
59.199
58.7884
58.1272
57.2805
56.363
55.3837
54.4632
53.6274
52.9034
52.4718
52.2747
52.4485
53.017
54.037
55.4527
57.3431
59.5078
61.8349
64.218
66.449
68.3234
69.7632
70.5666
70.8236
70.2818
69.4812
67.9411
66.387
64.3209
62.3081
60.1072
57.955
55.969
53.9062
52.074
50.4661
48.7437
47.4829
46.2164
44.929
44.2939
43.3785
42.4025
42.239
41.7225
41.0394
41.1233
40.988
40.687
40.9189
41.3739
41.4855
41.8655
43.0426
43.2293
43.8394
45.159
45.1976
45.7312
46.7315
46.6417
46.8122
47.6401
47.5329
47.555
48.5025
48.7529
49.3027
50.7408
51.8469
53.3992
55.7854
57.8331
60.3326
63.4636
66.2114
69.0355
72.3077
75.0519
77.2531
79.9348
82.0704
83.4116
85.0659
86.4005
87.0372
87.5511
87.5806
87.2046
86.5929
85.5024
83.9818
82.5639
81.7229
80.6934
78.6356
76.7711
75.5186
74.6645
74.5498
75.0576
76.0388
77.4889
78.809
79.8956
80.7689
81.702
82.1967
81.9826
81.0889
79.0778
75.8642
70.2733
61.8344
49.1724
9.13984
63.7578
63.9398
64.1119
64.184
64.1867
64.1282
64.0735
64.0372
64.0463
64.0689
64.0821
64.08
64.082
64.0837
64.0902
64.069
64.0236
63.9349
63.8021
63.6174
63.3918
63.1344
62.8749
62.6039
62.3541
62.1149
61.9137
61.7756
61.6923
61.7161
61.8247
62.0443
62.342
62.677
62.9754
63.1696
63.1858
63.0357
62.7576
62.4015
62.0641
61.7934
61.6625
61.6529
61.801
62.0965
62.4905
62.9552
63.4165
63.8347
64.1611
64.3997
64.5832
64.7533
64.9318
65.1812
65.4228
65.6684
65.7357
65.5318
65.0095
64.2515
63.2376
61.9946
60.6012
59.2164
57.9353
56.9392
56.2812
55.8812
55.6392
55.5522
55.5154
55.5032
55.5656
55.6795
55.8744
56.1023
56.4242
56.8719
57.5471
58.2689
58.8672
59.1263
59.039
58.6942
58.0842
57.3282
56.4329
55.5223
54.6183
53.8176
53.1377
52.6849
52.5578
52.7157
53.3414
54.3804
55.7716
57.6523
59.7155
61.9546
64.2213
66.3189
68.0625
69.3572
70.1904
70.4315
70.0221
69.2192
67.8744
66.3274
64.3407
62.422
60.4431
58.2489
56.456
54.4636
52.6401
51.2183
49.4533
48.1673
47.2182
45.7483
45.0038
44.4828
43.2773
43.0382
42.7129
41.9111
41.9812
41.8584
41.6247
41.8292
42.0441
42.4331
42.7772
43.3874
43.9286
44.311
45.0561
45.4668
45.6755
46.2799
46.4877
46.4624
47.0483
47.1326
47.2016
48.0109
48.3724
48.9624
50.2974
51.4489
52.8703
55.0769
57.097
59.4609
62.5255
65.2624
67.9877
71.3323
74.1041
76.359
79.2753
81.4993
83.0341
84.9026
86.2538
86.9703
87.4035
87.2207
86.7128
85.9175
84.4132
82.367
80.5564
79.0415
77.1164
74.4389
71.9623
70.2185
69.2025
68.8781
69.1933
70.5545
72.3371
74.0298
75.593
76.8332
77.6497
77.6789
77.2689
76.0984
73.3367
69.0162
62.2025
50.2494
35.9184
-2.73001
63.6856
63.9227
64.1976
64.2886
64.2507
64.0955
63.9776
63.9252
63.9605
64.0292
64.0641
64.074
64.0593
64.0354
64.0239
63.989
63.9452
63.8639
63.7325
63.557
63.3314
63.08
62.8242
62.5792
62.3605
62.1689
62.0032
61.9164
61.8597
61.9123
62.0161
62.2113
62.4604
62.7226
62.9492
63.0764
63.0789
62.9326
62.6665
62.3306
62.0253
61.7702
61.6519
61.6542
61.814
62.0998
62.4882
62.9476
63.403
63.838
64.1785
64.4564
64.6526
64.842
64.9596
65.1249
65.2437
65.3372
65.2897
65.0129
64.4958
63.7621
62.8884
61.7824
60.558
59.3055
58.1268
57.1854
56.5071
56.1562
55.9354
55.8561
55.8538
55.8007
55.8981
55.9106
56.1457
56.3645
56.6637
57.0682
57.5799
58.2618
58.7475
59.0453
58.9142
58.5873
58.0459
57.3283
56.5164
55.6478
54.8051
54.0661
53.4479
53.0391
52.9918
53.1718
53.8181
54.875
56.167
57.9989
59.8935
61.9693
64.0965
65.9378
67.6449
68.743
69.5801
69.7269
69.3059
68.7321
67.3355
66.0451
64.2766
62.4078
60.7398
58.5265
56.8834
55.1339
53.1822
51.9534
50.4169
48.8893
48.2109
46.9459
45.8753
45.5699
44.5441
43.9888
43.8052
43.1882
43.0968
42.9786
42.8107
43.0348
43.1225
43.4232
43.7851
44.0336
44.5246
44.8273
45.1677
45.5762
45.667
45.9691
46.207
46.1664
46.4964
46.7165
46.8158
47.3557
47.8843
48.4326
49.5662
50.6992
51.9767
54.0599
56.0714
58.3143
61.2929
64.0303
66.7416
70.1142
72.9755
75.4639
78.575
80.9519
82.8221
84.9039
86.2847
87.1358
87.5211
87.2005
86.5231
85.3323
83.1264
80.492
78.299
76.2672
73.5763
70.3734
67.3607
65.3229
64.1215
63.382
63.3194
64.898
67.0689
69.2535
71.3923
72.9688
73.8967
73.7933
72.8463
71.4227
68.1289
62.5896
55.8715
41.1349
26.7059
-0.831734
63.8447
64.0283
64.1568
64.0963
63.9713
63.8276
63.7573
63.7606
63.8437
63.9555
64.0156
64.0528
64.0454
64.0115
63.9757
63.9191
63.8557
63.7563
63.6245
63.4711
63.2741
63.0535
62.8347
62.6171
62.4291
62.271
62.1344
62.0692
62.0255
62.0779
62.1645
62.3205
62.5167
62.7207
62.8784
62.9818
62.9472
62.8121
62.5831
62.2857
62.0443
61.8195
61.7459
61.7482
61.9132
62.1677
62.5244
62.9347
63.3588
63.7666
64.1149
64.389
64.5713
64.7247
64.8265
64.9249
64.9367
64.9188
64.7729
64.4912
64.0021
63.3289
62.5659
61.5912
60.556
59.4409
58.4339
57.5546
56.8876
56.5159
56.2872
56.2153
56.2045
56.1711
56.2447
56.2331
56.4336
56.6508
56.9081
57.2833
57.659
58.2679
58.6219
58.8794
58.7467
58.4195
57.9312
57.2842
56.5989
55.8026
55.0693
54.4096
53.889
53.5723
53.5627
53.8369
54.4349
55.4823
56.6992
58.3352
60.1114
61.8975
63.8633
65.3965
66.958
67.9161
68.6172
68.9037
68.4142
68.0833
66.8234
65.6681
64.2748
62.3483
60.977
58.9921
57.2772
55.9021
53.9791
52.7265
51.6051
50.0351
49.2142
48.3699
47.1901
46.7233
46.0295
45.3967
45.1757
44.7394
44.5458
44.415
44.2963
44.4196
44.4415
44.5157
44.7811
44.9178
45.1023
45.2944
45.4536
45.5957
45.6514
45.8209
45.8554
45.8827
46.0746
46.1774
46.2882
46.7008
47.1762
47.5842
48.5856
49.6742
50.8371
52.7577
54.7258
56.8852
59.7124
62.4625
65.2313
68.5928
71.6757
74.496
77.7219
80.4161
82.6839
84.8959
86.3906
87.4236
87.8686
87.4187
86.5839
84.6996
81.4724
78.2656
75.9058
73.6893
70.7168
67.2693
63.8107
61.4814
60.1376
58.744
58.1589
59.5008
61.9541
64.6326
67.4434
69.4683
70.5087
70.5706
69.4517
67.3502
63.5871
56.6918
51.1091
35.5071
21.1321
2.4366
65.3371
65.1902
64.3082
63.6484
63.2952
63.1991
63.3024
63.4767
63.6704
63.8314
63.9551
64.0415
64.048
63.9898
63.9142
63.8358
63.7682
63.6675
63.5405
63.3977
63.2364
63.041
62.8363
62.6325
62.4938
62.3646
62.2491
62.1926
62.1714
62.225
62.2893
62.4159
62.5454
62.6955
62.7843
62.8615
62.8226
62.7021
62.5207
62.2625
62.0993
61.9184
61.8966
61.8876
62.0558
62.2661
62.5799
62.9199
63.281
63.6511
63.9618
64.2194
64.3611
64.5062
64.5544
64.6146
64.5149
64.4724
64.2523
63.9948
63.5589
62.9315
62.3055
61.4281
60.6277
59.633
58.8078
58.0106
57.3407
56.9748
56.6675
56.6241
56.564
56.5493
56.6028
56.5788
56.7391
56.9114
57.1458
57.4872
57.7525
58.2405
58.5145
58.6945
58.6236
58.3139
57.9049
57.3245
56.738
56.0959
55.4452
54.8919
54.4772
54.2551
54.2988
54.6216
55.2145
56.1406
57.3038
58.67
60.2509
61.8018
63.4271
64.8099
66.0865
67.0045
67.5676
67.9402
67.5558
67.2363
66.2927
65.2024
64.1441
62.4357
61.1988
59.6511
57.9346
56.7626
55.1962
53.7875
52.925
51.5838
50.5637
49.8978
48.9423
48.2739
47.7814
47.275
46.888
46.5574
46.3041
46.1236
45.9561
45.8881
45.8312
45.7127
45.7898
45.7673
45.7055
45.7228
45.7104
45.6917
45.6011
45.6588
45.5692
45.5214
45.5784
45.5876
45.6754
45.8825
46.2591
46.6152
47.3956
48.4014
49.4414
51.1177
52.9958
55.0487
57.7024
60.4841
63.3854
66.7444
70.1214
73.3545
76.8055
79.7418
82.4033
84.8802
86.49
87.7331
88.3499
87.7775
86.5583
83.8945
79.8175
76.013
73.6465
71.416
68.3986
64.8934
61.3646
58.686
56.9108
55.3019
54.4943
55.3002
57.3939
60.4958
63.5939
66.5539
68.0659
68.1619
66.739
63.7894
60.7802
51.5983
47.0342
33.1979
18.5638
4.77674
66.4124
66.0249
64.5032
63.3727
62.7518
62.6174
62.8353
63.1841
63.4949
63.6923
63.8901
64.0314
64.0545
63.985
63.8859
63.8145
63.7287
63.6034
63.4599
63.2967
63.1886
63.0081
62.8445
62.6913
62.5792
62.4976
62.3757
62.3177
62.3015
62.3295
62.3632
62.4503
62.5257
62.6443
62.6865
62.7436
62.7365
62.6379
62.4988
62.3042
62.1892
62.0593
62.0568
62.0394
62.1934
62.3679
62.636
62.8944
63.1805
63.4958
63.7287
63.9675
64.056
64.2024
64.19
64.2357
64.0706
64.0063
63.7917
63.5172
63.1757
62.5865
62.0946
61.3454
60.7162
59.8817
59.1552
58.4906
57.8044
57.4861
57.1045
57.0408
56.952
56.8977
56.9645
56.9029
57.0523
57.1382
57.3679
57.6588
57.8605
58.2425
58.4424
58.5796
58.5307
58.2438
57.9228
57.4146
56.9549
56.4384
55.9185
55.493
55.1671
55.0342
55.1348
55.4483
56.0217
56.8164
57.8286
59.0107
60.3125
61.6863
62.9895
64.2045
65.2782
66.0523
66.5206
66.8605
66.6693
66.4232
65.7865
64.7653
63.9935
62.6481
61.4741
60.3519
58.8302
57.7378
56.5827
55.2704
54.3249
53.3305
52.3321
51.6201
50.9529
50.2476
49.7603
49.3149
48.8629
48.5104
48.1912
47.8972
47.5967
47.3695
47.1684
46.9014
46.7138
46.5364
46.2908
46.1276
45.9801
45.7816
45.5883
45.478
45.2627
45.0807
45.0367
44.9295
44.8942
45.0086
45.2295
45.5418
46.0612
46.8872
47.8078
49.168
50.8569
52.7683
55.2767
58.0739
61.167
64.7242
68.2534
71.8353
75.6321
78.8511
81.8293
84.5829
86.433
88.0003
88.7193
87.9433
86.2424
82.9854
78.3766
74.3557
71.9853
69.549
66.3057
62.7254
59.3973
56.6007
54.6323
52.947
52.2051
52.7674
54.4999
57.7446
61.235
64.0277
66.2313
66.7004
65.7005
60.3093
59.4149
48.3899
42.3247
32.1984
18.5515
7.51445
67.0648
66.5823
64.7837
63.3511
62.4603
62.226
62.4677
62.9366
63.3146
63.5418
63.8233
64.0212
64.0726
63.9824
63.8647
63.8085
63.6875
63.5472
63.3941
63.2447
63.1734
62.9913
62.8527
62.7439
62.6437
62.6003
62.4542
62.3925
62.4062
62.4025
62.4305
62.4752
62.5184
62.6025
62.6162
62.6454
62.6664
62.5993
62.494
62.3538
62.2734
62.1979
62.1921
62.1707
62.292
62.4416
62.6424
62.8426
63.0467
63.3265
63.4957
63.7067
63.757
63.8675
63.8617
63.8468
63.6908
63.5797
63.407
63.1127
62.8478
62.3383
61.9219
61.3389
60.7806
60.1233
59.4566
58.9028
58.2607
57.9373
57.5583
57.394
57.3329
57.2222
57.2783
57.217
57.3296
57.389
57.5706
57.8216
57.9956
58.2675
58.4225
58.5202
58.4818
58.2593
57.9953
57.578
57.2313
56.8157
56.4426
56.106
55.8551
55.8039
55.8834
56.2213
56.6764
57.3963
58.2232
59.2394
60.3487
61.478
62.6419
63.6337
64.5518
65.2754
65.6552
66.0753
65.8879
65.7413
65.3675
64.4587
63.9101
62.8991
61.8745
60.9909
59.827
58.7915
57.8826
56.817
55.7815
55.0512
54.231
53.4777
52.9289
52.2961
51.7633
51.3012
50.833
50.4292
49.9927
49.5768
49.1411
48.7772
48.404
47.9711
47.6151
47.2714
46.9085
46.5483
46.2457
45.8942
45.5907
45.267
44.9532
44.6694
44.3887
44.2816
44.0774
44.1079
44.1918
44.3119
44.7205
45.1845
45.8958
46.999
48.3551
50.1905
52.5878
55.3246
58.4865
62.2586
66.0901
69.9138
74.0133
77.5967
80.9751
83.9909
86.0623
87.9389
88.73
87.6539
85.5367
81.8844
77.0422
73.1327
70.768
68.2096
64.7287
61.0006
57.5122
54.8825
53.2864
51.7818
51.3925
51.9108
53.5591
56.6353
60.2028
62.9017
66.3007
64.2042
66.2547
56.922
55.3529
46.0307
38.5466
31.6635
20.4471
11.1756
67.3784
66.9205
65.0604
63.4417
62.3352
61.9803
62.2051
62.7331
63.1389
63.4003
63.7527
64.0072
64.0841
63.9783
63.8545
63.8067
63.66
63.4961
63.341
63.2166
63.1568
62.9524
62.8232
62.7678
62.7034
62.6833
62.5248
62.4588
62.4994
62.4739
62.4938
62.5
62.5136
62.5758
62.5705
62.5788
62.6197
62.5846
62.4983
62.4008
62.3355
62.3016
62.2828
62.2635
62.3473
62.4908
62.6332
62.7789
62.9317
63.167
63.3042
63.4603
63.4987
63.5505
63.587
63.5064
63.3755
63.2399
63.0918
62.8165
62.5809
62.1658
61.7857
61.3458
60.8216
60.3029
59.7037
59.2223
58.6658
58.337
57.9974
57.7637
57.6813
57.5449
57.5662
57.5186
57.5961
57.638
57.7679
57.9807
58.1218
58.3345
58.4458
58.5227
58.4925
58.3031
58.1233
57.7539
57.5189
57.1908
56.9038
56.6909
56.4537
56.4736
56.5165
56.8132
57.2189
57.8093
58.5161
59.3757
60.3071
61.2676
62.2851
63.1424
63.9617
64.6392
65.0209
65.4189
65.4288
65.226
65.0001
64.3604
63.8631
63.1824
62.3508
61.5864
60.7805
59.8435
59.0427
58.2473
57.3152
56.6723
56.0396
55.3389
54.7902
54.2399
53.6838
53.1851
52.6816
52.1871
51.6494
51.1331
50.6165
50.0883
49.6198
49.0353
48.5615
48.0514
47.5195
46.9943
46.4806
46.0138
45.5478
45.0996
44.6483
44.2712
43.8529
43.6558
43.352
43.1907
43.2239
43.0872
43.2848
43.4674
43.8488
44.7522
45.7851
47.4366
49.6579
52.3397
55.6461
59.4463
63.5187
67.8149
72.0942
75.8915
79.7085
82.9663
85.2969
87.4324
88.1987
86.908
84.4129
80.438
75.6661
71.9486
69.4787
67.073
63.8342
60.0469
56.3756
53.5717
51.4019
50.6858
50.8189
51.4408
53.3289
56.5573
60.7706
60.7257
69.0479
60.932
65.3367
54.2674
48.5989
43.7488
37.0019
32.1167
23.5719
15.605
67.4769
67.0921
65.282
63.5526
62.3112
61.8375
62.0393
62.5721
62.9849
63.3028
63.6911
63.9812
64.072
63.9553
63.8572
63.8014
63.6367
63.4444
63.2895
63.2131
63.1406
62.9226
62.7952
62.7708
62.7729
62.7415
62.5803
62.5003
62.5469
62.5418
62.5467
62.5292
62.5221
62.5672
62.5683
62.5822
62.6037
62.5845
62.5017
62.4301
62.3828
62.3682
62.3446
62.3283
62.3747
62.507
62.5964
62.7021
62.8333
63.0148
63.1391
63.235
63.2829
63.2901
63.3397
63.2267
63.1001
62.969
62.8224
62.588
62.3537
62.0212
61.6725
61.3321
60.8525
60.4264
59.9124
59.4742
59.0154
58.6684
58.3657
58.0996
57.9871
57.8549
57.8135
57.8039
57.8308
57.889
57.9774
58.1476
58.277
58.4139
58.5439
58.5506
58.5508
58.3992
58.2499
57.9955
57.7736
57.5433
57.3154
57.1406
56.9825
56.9577
57.027
57.2629
57.6044
58.1464
58.7054
59.4672
60.2533
61.072
61.986
62.7266
63.4789
64.0924
64.4985
64.8383
64.9832
64.8434
64.7011
64.3525
63.8977
63.4604
62.8246
62.1881
61.5959
60.8573
60.1698
59.5339
58.8637
58.2176
57.6816
57.1246
56.5039
56.0294
55.4868
54.9411
54.4226
53.8408
53.2848
52.6757
52.0835
51.4403
50.8488
50.1659
49.5072
48.8273
48.1248
47.4473
46.7376
46.158
45.5182
44.9645
44.4469
43.9296
43.4869
43.0669
42.7441
42.4617
42.2599
42.1115
41.9589
41.8836
42.1206
42.5154
43.2259
44.785
46.6587
49.1866
52.6876
56.6175
60.8368
65.3717
69.8079
73.944
78.0353
81.351
83.9299
86.2146
86.9846
85.4799
82.7887
78.9393
74.5363
71.0506
68.6192
66.0623
63.1516
59.8865
56.2335
53.3963
51.3505
50.2428
50.3994
50.9223
53.3134
55.5916
62.9707
58.0285
68.7729
57.0871
59.2777
49.0947
44.0535
42.9013
37.5098
33.7412
27.2355
20.4543
67.4935
67.145
65.4011
63.6162
62.3326
61.7913
61.9604
62.4685
62.8803
63.2697
63.6664
63.9508
64.0378
63.9324
63.8747
63.8051
63.6012
63.3775
63.229
63.2165
63.1423
62.9066
62.7693
62.758
62.8278
62.7976
62.6353
62.5334
62.5729
62.6092
62.6031
62.5679
62.5394
62.5553
62.5615
62.5556
62.5856
62.5814
62.4952
62.4467
62.4092
62.3992
62.3763
62.3593
62.3856
62.502
62.5653
62.6311
62.7425
62.8636
62.9761
63.026
63.0696
63.0599
63.0951
62.9816
62.8533
62.75
62.5895
62.4099
62.1624
61.8997
61.5903
61.291
60.8929
60.4947
60.0857
59.6683
59.292
58.9512
58.6672
58.4155
58.2623
58.1541
58.0516
58.0728
58.0691
58.1169
58.2039
58.3002
58.4437
58.5148
58.6541
58.6415
58.6146
58.5457
58.3896
58.2333
58.027
57.8254
57.6864
57.4978
57.4226
57.3833
57.4233
57.6751
57.9005
58.4079
58.869
59.4803
60.2318
60.8561
61.7086
62.3788
62.9975
63.6413
63.9983
64.3479
64.5675
64.5481
64.5224
64.338
64.0271
63.7253
63.2916
62.8216
62.3644
61.8566
61.2913
60.7826
60.288
59.7028
59.2013
58.7446
58.1782
57.6838
57.2149
56.6426
56.0982
55.5242
54.9085
54.2478
53.5355
52.8117
52.06
51.2559
50.4323
49.5811
48.7565
47.9306
47.1079
46.3763
45.6324
44.9804
44.377
43.7477
43.2465
42.7045
42.2876
41.9978
41.5958
41.3701
41.0881
40.6765
40.6236
40.7458
41.0975
42.2134
44.0071
46.5658
49.8977
53.7219
58.1555
62.9239
67.4924
71.7834
75.9002
79.2804
82.0278
84.1353
84.8265
83.2671
80.7639
77.356
73.8225
70.7326
68.2749
65.7843
62.9868
59.9643
56.902
54.1773
52.1948
51.0109
50.9861
50.9975
54.1761
54.9532
61.8032
55.776
60.4526
49.5212
48.3497
43.3344
42.9849
43.4099
39.5354
36.1371
31.0759
25.5637
67.5467
67.1941
65.4389
63.6267
62.3553
61.8254
61.9707
62.4256
62.8347
63.2794
63.6848
63.9278
63.9786
63.8975
63.8804
63.8064
63.567
63.3104
63.1739
63.2153
63.157
62.9067
62.7401
62.7379
62.8605
62.8559
62.6875
62.5591
62.5814
62.6536
62.6515
62.6061
62.5606
62.5534
62.5621
62.5487
62.5751
62.5814
62.49
62.4582
62.4261
62.4243
62.4026
62.3737
62.3929
62.4731
62.5247
62.5445
62.6436
62.7139
62.8076
62.8323
62.8648
62.86
62.8665
62.7759
62.6521
62.5678
62.4102
62.2574
62.0171
61.7907
61.5267
61.2528
60.9251
60.5542
60.2214
59.8439
59.51
59.2062
58.9093
58.6763
58.4796
58.3874
58.2951
58.3017
58.3047
58.3374
58.4077
58.4872
58.6131
58.6544
58.7774
58.763
58.7187
58.7003
58.5579
58.4467
58.2751
58.0922
58.0059
57.8431
57.7803
57.7609
57.7454
57.9763
58.1567
58.555
59.0018
59.4566
60.1495
60.676
61.3829
62.0656
62.567
63.2063
63.602
63.938
64.2651
64.331
64.4053
64.362
64.2132
64.0075
63.7881
63.4805
63.1278
62.8317
62.3869
61.9992
61.5815
61.1255
60.6836
60.2528
59.8352
59.3139
58.8828
58.3485
57.7612
57.1849
56.4725
55.7691
54.9529
54.1318
53.2517
52.2949
51.3682
50.3418
49.4119
48.4504
47.5515
46.7334
45.9052
45.1773
44.4662
43.8087
43.1925
42.64
42.1811
41.7603
41.3698
41.0431
40.5497
40.0813
39.7644
39.4806
39.6405
40.583
42.0531
44.2872
47.5491
51.5146
55.8836
60.5265
65.2435
69.7496
73.7575
77.0443
79.6088
81.0761
80.9123
80.0774
78.3226
75.7925
73.0826
70.4929
68.1471
65.8328
63.2035
60.5122
57.7596
55.2863
53.4347
52.1391
52.1724
51.6205
54.0626
55.1476
55.1118
50.3422
48.7052
40.7217
43.522
44.6807
44.9941
44.9408
41.7251
38.5896
34.7423
30.554
67.6108
67.2722
65.4128
63.5809
62.3723
61.8958
62.055
62.4419
62.8592
63.3379
63.7287
63.9307
63.9069
63.858
63.8647
63.7846
63.5428
63.2335
63.1198
63.1838
63.1637
62.929
62.7204
62.7269
62.8759
62.9097
62.7424
62.5903
62.5876
62.678
62.6902
62.6351
62.5827
62.5568
62.5668
62.5507
62.5679
62.591
62.4919
62.4688
62.437
62.4381
62.4176
62.3691
62.3901
62.4241
62.4689
62.4553
62.5329
62.5885
62.6437
62.6724
62.6823
62.6832
62.6841
62.5989
62.4911
62.4103
62.2649
62.1295
61.898
61.702
61.4706
61.2195
60.9445
60.6005
60.3282
59.987
59.6864
59.4176
59.1336
58.9131
58.723
58.633
58.5349
58.5324
58.5171
58.5539
58.6191
58.6688
58.7984
58.8129
58.9039
58.9199
58.8474
58.8705
58.742
58.6398
58.5188
58.3307
58.2888
58.1382
58.0748
58.0688
58.0134
58.2128
58.3575
58.6633
59.0639
59.4143
60.0045
60.4901
61.0744
61.7242
62.2251
62.7817
63.2688
63.6034
63.9644
64.2213
64.3038
64.4417
64.4351
64.3514
64.3083
64.1319
63.935
63.7478
63.4568
63.1371
62.8362
62.4823
62.1378
61.7623
61.3997
60.958
60.4817
60.0181
59.3724
58.7544
58.003
57.1986
56.3603
55.3754
54.4327
53.3289
52.2613
51.1358
50.0317
49.0297
48.0338
47.1657
46.3097
45.5187
44.756
44.0498
43.391
42.8203
42.3337
41.8842
41.4724
41.0342
40.5493
39.9809
39.4214
38.9934
38.9204
39.5795
40.8446
42.9216
46.0302
49.8892
54.1076
58.6953
63.4937
67.8816
71.567
74.6824
76.9254
77.58
77.0456
76.4936
75.6559
74.2463
72.2035
70.068
67.8381
65.5599
63.1604
60.8015
58.3568
56.2002
54.2978
53.1947
52.9086
51.9436
53.7525
52.8294
46.9576
43.5008
41.8516
40.1919
46.6296
50.2269
48.3071
46.6926
43.75
40.9982
38.2481
35.2849
67.5695
67.2721
65.3216
63.5113
62.4163
62.0319
62.2259
62.5454
62.9536
63.4317
63.7753
63.9324
63.8468
63.8031
63.8201
63.7395
63.5154
63.1914
63.0746
63.1464
63.1534
62.952
62.7248
62.7224
62.8793
62.9345
62.7951
62.6302
62.6073
62.6967
62.72
62.6655
62.6064
62.5694
62.5682
62.553
62.5675
62.5945
62.5081
62.4775
62.4492
62.4385
62.4172
62.3542
62.3653
62.3671
62.4008
62.3744
62.4217
62.4711
62.4893
62.5197
62.5145
62.5147
62.5056
62.4345
62.3384
62.2703
62.1412
62.0166
61.8103
61.633
61.4363
61.194
60.9736
60.6519
60.4119
60.1129
59.8192
59.5975
59.3202
59.1241
58.942
58.8534
58.7741
58.7521
58.7588
58.7633
58.8376
58.8704
58.9769
59.0089
59.0382
59.0913
59.0156
59.0307
58.9588
58.8243
58.7645
58.5805
58.536
58.428
58.325
58.339
58.2475
58.3912
58.5081
58.7126
59.0632
59.3335
59.8235
60.2722
60.7714
61.3756
61.8694
62.398
62.9286
63.3318
63.7187
64.1129
64.3082
64.5331
64.7152
64.739
64.817
64.8102
64.7279
64.626
64.4798
64.2584
64.0645
63.8237
63.5357
63.2483
62.8943
62.5222
62.0389
61.546
60.9248
60.1991
59.4195
58.4939
57.5513
56.5117
55.4242
54.2735
53.0678
51.864
50.6975
49.6146
48.5782
47.6501
46.7694
45.9628
45.1877
44.4359
43.7724
43.1561
42.662
42.2434
41.8138
41.3532
40.8776
40.3243
39.6445
39.0099
38.7879
39.3118
40.2808
42.1934
45.225
49.007
53.14
57.742
62.428
66.4787
69.9348
72.8654
74.5841
74.4874
73.636
73.1839
73.2052
72.8813
71.704
69.7725
67.6726
65.4829
63.1996
61.0312
58.7996
56.864
54.8718
54.073
52.8357
52.0992
52.3782
48.8478
41.9299
42.3431
43.4884
47.7294
53.3806
54.027
50.4784
47.5831
45.186
43.1956
41.7575
39.6368
67.371
67.0543
65.1441
63.456
62.5152
62.2639
62.4665
62.7475
63.1176
63.5435
63.8211
63.9249
63.8193
63.7565
63.7563
63.6648
63.4593
63.1576
63.0378
63.0977
63.1182
62.9646
62.7577
62.7479
62.8799
62.9373
62.8294
62.6764
62.6381
62.7012
62.7219
62.6813
62.6207
62.5864
62.5768
62.5709
62.5846
62.5954
62.5352
62.4885
62.4625
62.4359
62.4079
62.336
62.3324
62.3104
62.3186
62.2958
62.2973
62.3415
62.3302
62.3694
62.3565
62.3524
62.347
62.286
62.2246
62.1516
62.0503
61.923
61.7508
61.5841
61.4007
61.1828
60.9778
60.6974
60.463
60.2136
59.933
59.7438
59.4989
59.3181
59.1784
59.0635
59.0058
58.9572
58.9751
58.9746
59.0224
59.0809
59.14
59.1963
59.2029
59.2494
59.2255
59.1975
59.1778
59.0515
58.9836
58.8592
58.7507
58.6891
58.5613
58.5371
58.4815
58.5104
58.6329
58.7418
59.0108
59.2468
59.6058
60.0424
60.451
61.0249
61.5126
62.0361
62.6098
63.0664
63.5573
63.9997
64.3707
64.674
64.9783
65.1683
65.3146
65.4755
65.4908
65.5055
65.4701
65.3706
65.2455
65.072
64.8557
64.5908
64.2874
63.9077
63.4418
62.8863
62.2124
61.427
60.527
59.5426
58.4801
57.3736
56.2149
55.005
53.7619
52.5152
51.3365
50.2147
49.1551
48.1595
47.2331
46.4004
45.6194
44.8976
44.2089
43.5825
43.1266
42.6949
42.2734
41.823
41.387
40.8444
40.1669
39.4881
39.129
39.2957
40.2293
42.1461
45.0565
48.8371
53.1551
57.823
62.2265
65.9622
69.2221
71.9492
73.2078
72.8515
71.8966
71.4092
71.8791
72.108
71.5005
69.6256
67.6025
65.5098
63.4225
61.4132
59.2695
57.5108
55.4121
55.3009
52.8415
52.0484
49.0491
47.8996
41.6407
45.6734
48.5576
55.6167
58.0459
55.7714
52.1172
48.039
46.063
45.5177
45.4211
43.1842
66.9374
66.6105
64.9087
63.51
62.7679
62.6072
62.7711
63.0088
63.3294
63.642
63.8478
63.8939
63.7988
63.7283
63.6846
63.5885
63.3948
63.1445
63.0274
63.0449
63.0545
62.9421
62.7998
62.7858
62.878
62.9228
62.8456
62.7347
62.6847
62.7179
62.7212
62.6908
62.6342
62.6011
62.5873
62.5829
62.5978
62.5871
62.5537
62.5048
62.4758
62.4393
62.3981
62.326
62.2968
62.2537
62.2301
62.2072
62.1819
62.2121
62.1909
62.225
62.208
62.2096
62.2049
62.1492
62.1171
62.0377
61.961
61.8466
61.7037
61.5565
61.3872
61.1942
60.9968
60.7477
60.523
60.2918
60.0357
59.8569
59.6324
59.4747
59.3494
59.237
59.2062
59.1448
59.1711
59.1771
59.216
59.2885
59.3015
59.3927
59.3883
59.4231
59.4344
59.3729
59.3821
59.2646
59.1966
59.1028
58.9734
58.9146
58.7781
58.7195
58.6557
58.627
58.6906
58.7547
58.9247
59.1295
59.4109
59.7779
60.1811
60.6773
61.1933
61.7248
62.3196
62.8684
63.4182
63.9504
64.4204
64.8608
65.2453
65.5847
65.8277
66.0585
66.2221
66.3015
66.3674
66.3284
66.262
66.1254
65.9393
65.6979
65.3793
65.0006
64.4895
63.8903
63.1415
62.2718
61.3039
60.2516
59.1641
58.0101
56.811
55.5552
54.2758
53.0326
51.8659
50.7622
49.6939
48.6608
47.6926
46.8276
46.0438
45.3154
44.6276
43.9864
43.5752
43.1727
42.7644
42.3754
41.9608
41.4549
40.809
40.1495
39.7019
39.6925
40.6921
42.4187
45.4123
49.3366
53.973
58.5212
62.5765
66.1816
69.3899
71.9946
73.071
72.8881
72.0502
71.4719
72.1863
72.6978
71.8412
69.7923
67.683
65.499
63.5011
61.666
59.4618
57.8682
55.3787
55.1172
51.9022
53.2588
46.4719
50.0293
44.2874
50.2605
55.3666
60.075
59.9929
57.2197
52.9494
48.5756
47.0168
48.5252
48.5833
45.635
66.14
65.8763
64.6625
63.7026
63.1968
63.0818
63.1609
63.3234
63.5367
63.7236
63.8528
63.856
63.7759
63.691
63.6121
63.5012
63.323
63.1389
63.039
63.0204
62.9978
62.9224
62.8461
62.8339
62.8835
62.8946
62.8426
62.7727
62.7246
62.7301
62.7134
62.6894
62.6454
62.6184
62.6069
62.6021
62.6107
62.5914
62.573
62.5286
62.4903
62.4401
62.3826
62.3084
62.255
62.1952
62.1506
62.1229
62.0833
62.0983
62.0755
62.1
62.0881
62.0936
62.0935
62.0492
62.0398
61.9615
61.903
61.7957
61.6702
61.5358
61.3707
61.196
60.9967
60.7829
60.5638
60.3515
60.1257
59.9462
59.7514
59.605
59.495
59.3905
59.3713
59.3188
59.3372
59.3642
59.3783
59.4554
59.4644
59.5465
59.5658
59.5685
59.6037
59.5382
59.54
59.457
59.3746
59.3047
59.1615
59.087
58.9481
58.8521
58.7771
58.7037
58.7221
58.7447
58.8567
59.0216
59.258
59.5803
59.9691
60.4377
60.9564
61.5399
62.1202
62.7257
63.3359
63.9297
64.4925
65.0114
65.4684
65.8845
66.2299
66.519
66.7647
66.9092
67.0101
67.0294
66.9825
66.8761
66.692
66.4428
66.105
65.6815
65.1487
64.4987
63.7078
62.7804
61.7505
60.6686
59.5639
58.4266
57.2295
55.9582
54.6656
53.4408
52.3033
51.1971
50.1225
49.0612
48.0859
47.2121
46.4149
45.7062
45.027
44.3977
43.9226
43.5058
43.1052
42.8006
42.5259
42.1254
41.5918
40.9844
40.3716
40.4093
41.506
43.294
46.1909
50.1541
54.9138
59.3086
63.4686
67.2245
70.7054
73.0982
73.9695
73.8973
73.2027
72.6947
73.4524
74.1169
73.0851
70.9489
68.5392
65.9633
63.7594
61.9649
59.5087
58.2003
55.3576
56.6757
49.2412
54.587
45.5082
50.685
49.3854
55.1529
58.9561
60.3657
60.6449
57.8173
52.7811
49.7234
48.6338
51.5226
50.4218
47.7832
65.2695
65.1356
64.5389
64.0431
63.7092
63.5551
63.5372
63.5854
63.6773
63.7693
63.8453
63.8339
63.7678
63.6773
63.559
63.4227
63.2606
63.126
63.0412
62.9908
62.9586
62.9207
62.8981
62.8889
62.8938
62.88
62.8408
62.7984
62.7534
62.7337
62.705
62.6822
62.6527
62.6308
62.6238
62.6163
62.6186
62.5983
62.5822
62.5417
62.4917
62.4332
62.3644
62.2892
62.2217
62.153
62.0985
62.0607
62.0174
62.0124
61.9942
62.0067
62.0017
62.0051
62.0044
61.9789
61.97
61.9103
61.8574
61.7639
61.6537
61.5277
61.3703
61.2018
61.0104
60.8096
60.5983
60.3936
60.1871
60.01
59.8395
59.7067
59.6047
59.5195
59.4974
59.457
59.4723
59.498
59.5115
59.5787
59.5964
59.6593
59.6842
59.687
59.7132
59.6696
59.6539
59.5889
59.5038