/*--------------------------------*- C++ -*----------------------------------*\
| =========                 |                                                 |
| \\      /  F ield         | OpenFOAM: The Open Source CFD Toolbox           |
|  \\    /   O peration     | Version:  2.4.0                                 |
|   \\  /    A nd           | Web:      www.OpenFOAM.org                      |
|    \\/     M anipulation  |                                                 |
\*---------------------------------------------------------------------------*/
FoamFile
{
    version     2.0;
    format      ascii;
    class       volVectorField;
    location    "0.95";
    object      U;
}
// * * * * * * * * * * * * * * * * * * * * * * * * * * * * * * * * * * * * * //

dimensions      [0 1 -1 0 0 0 0];

internalField   nonuniform List<vector> 
8800
(
(8.09022 0.388204 0)
(5.4513 0.24197 0)
(3.90659 0.0437746 0)
(3.16176 -0.0170079 0)
(2.79319 -0.01642 0)
(2.60601 -0.0122125 0)
(2.4792 -0.00650495 0)
(2.3801 0.00102901 0)
(2.32334 -0.00600292 0)
(2.24538 0.00325078 0)
(2.22294 -0.00162497 0)
(2.16335 -0.00151399 0)
(2.15632 0.00272212 0)
(2.08352 -0.000145772 0)
(2.10663 -0.00330935 0)
(2.01028 0.00642115 0)
(2.03498 -0.0023399 0)
(1.92763 0.000146127 0)
(2.00317 0.00874905 0)
(1.65014 -0.0598657 0)
(10.0861 0.83853 0)
(9.65829 0.867159 0)
(8.86381 0.50994 0)
(8.10013 0.256937 0)
(7.46173 0.14308 0)
(7.04394 0.0783149 0)
(6.66996 0.0527031 0)
(6.40612 0.0493262 0)
(6.2427 0.0168448 0)
(5.99342 0.0353915 0)
(5.9649 0.0146788 0)
(5.75217 0.0126956 0)
(5.75317 0.0242445 0)
(5.55941 0.0132014 0)
(5.62375 0.00552049 0)
(5.34828 0.0333863 0)
(5.51061 0.00822369 0)
(5.13862 0.0139386 0)
(5.4222 0.0339292 0)
(4.80968 -0.0371332 0)
(10.0759 0.632755 0)
(10.6558 0.861663 0)
(10.8547 0.60421 0)
(10.7296 0.367333 0)
(10.3895 0.263438 0)
(10.1637 0.188107 0)
(9.77663 0.155293 0)
(9.52176 0.133232 0)
(9.33739 0.0751897 0)
(8.98043 0.0956367 0)
(8.99451 0.0484034 0)
(8.65092 0.0468812 0)
(8.68914 0.0575671 0)
(8.3901 0.0344865 0)
(8.52557 0.0280466 0)
(8.06496 0.0621518 0)
(8.42564 0.03002 0)
(7.76581 0.0307571 0)
(8.29876 0.0682592 0)
(7.42328 -0.0245126 0)
(10.0364 0.454904 0)
(10.5532 0.712117 0)
(11.1453 0.5477 0)
(11.4725 0.346954 0)
(11.4144 0.271375 0)
(11.616 0.211785 0)
(11.3629 0.207207 0)
(11.3628 0.18513 0)
(11.3159 0.124986 0)
(11.0097 0.153084 0)
(11.1587 0.0885916 0)
(10.816 0.0879143 0)
(10.9067 0.102236 0)
(10.6087 0.0588692 0)
(10.8139 0.0652493 0)
(10.2643 0.0937865 0)
(10.7406 0.0527411 0)
(10.0135 0.0731848 0)
(10.5518 0.0745373 0)
(9.69682 0.102039 0)
(10.1331 0.34496 0)
(10.3916 0.571923 0)
(10.8621 0.44735 0)
(11.5689 0.309882 0)
(11.3159 0.218101 0)
(12.0052 0.172543 0)
(11.6519 0.203781 0)
(11.9461 0.158593 0)
(11.9698 0.132386 0)
(11.8873 0.16738 0)
(11.9858 0.0781728 0)
(12.0278 0.114505 0)
(11.914 0.115254 0)
(11.9937 0.0651234 0)
(12.016 0.0832427 0)
(11.8493 0.129346 0)
(11.9683 0.0436266 0)
(11.811 0.118232 0)
(11.8419 0.075807 0)
(11.5953 0.16183 0)
(10.0316 0.232713 0)
(10.6707 0.53087 0)
(10.3804 0.309711 0)
(11.7765 0.267971 0)
(10.8387 0.166892 0)
(12.1735 0.0932795 0)
(11.3734 0.21043 0)
(12.1192 0.10954 0)
(11.7364 0.102698 0)
(12.34 0.18217 0)
(11.7142 0.0274017 0)
(12.6251 0.11071 0)
(11.8869 0.115344 0)
(12.5926 0.0354193 0)
(12.1028 0.0775662 0)
(12.707 0.139149 0)
(12.1269 0.0302827 0)
(12.7172 0.093045 0)
(12.2736 0.106255 0)
(12.6082 0.0728269 0)
(10.0883 0.0813187 0)
(10.5864 0.466376 0)
(10.405 0.225352 0)
(11.6378 0.250107 0)
(10.707 0.141725 0)
(12.1368 0.02447 0)
(11.2819 0.194541 0)
(12.0741 0.0647459 0)
(11.6857 0.0416958 0)
(12.2655 0.190667 0)
(11.7663 -0.0229695 0)
(12.4084 0.0797156 0)
(12.0304 0.124352 0)
(12.4308 0.00308321 0)
(12.199 0.0484823 0)
(12.6119 0.131309 0)
(12.3639 0.0259022 0)
(12.5711 0.0359149 0)
(12.5537 0.0875136 0)
(12.5987 0.0209543 0)
(10.3344 0.0199672 0)
(9.71826 0.44263 0)
(11.0668 0.0725764 0)
(10.5798 0.258986 0)
(11.6958 0.0822482 0)
(11.217 -0.0576714 0)
(11.8216 0.213972 0)
(11.5709 0.00100567 0)
(11.9552 0.0312056 0)
(11.6138 0.179462 0)
(12.3188 -0.0238621 0)
(11.616 0.0521655 0)
(12.4276 0.114405 0)
(12.0258 -0.0141206 0)
(12.4294 0.0342503 0)
(12.0943 0.0977064 0)
(12.7502 0.0245678 0)
(12.1696 0.00885338 0)
(12.6591 0.0502422 0)
(12.2991 0.013997 0)
(9.82879 0.0183015 0)
(10.3522 0.241318 0)
(10.788 0.0656468 0)
(10.6753 0.133348 0)
(11.7042 0.0439359 0)
(10.9597 -0.00554465 0)
(11.844 0.102796 0)
(11.446 0.0169881 0)
(11.8538 0.0159047 0)
(11.6297 0.114605 0)
(12.2161 -0.0345267 0)
(11.6752 0.0572626 0)
(12.3158 0.0404164 0)
(11.988 -0.0165551 0)
(12.3785 0.042041 0)
(12.1324 0.0455794 0)
(12.552 -0.00659349 0)
(12.2101 0.0214673 0)
(12.4999 0.00201725 0)
(12.3413 0.00704832 0)
(9.91912 -0.0525527 0)
(10.3715 0.140628 0)
(10.339 0.0133479 0)
(11.2886 0.0448325 0)
(10.9241 0.0748377 0)
(11.7417 -0.0918383 0)
(11.3993 0.0940657 0)
(11.8209 -0.0319878 0)
(11.6319 -0.0319601 0)
(11.9663 0.082641 0)
(11.8212 -0.0412352 0)
(12.0837 0.0167219 0)
(11.9973 0.0521576 0)
(12.2368 -0.0523335 0)
(12.1398 0.0101813 0)
(12.3688 0.0297641 0)
(12.2905 -0.00293595 0)
(12.4932 -0.0228008 0)
(12.3302 -0.0230096 0)
(12.4446 -0.0179102 0)
(10.0848 -0.0792873 0)
(10.0603 0.0761169 0)
(10.7392 -0.128297 0)
(10.9113 0.00840259 0)
(11.2492 -0.00185082 0)
(11.5917 -0.108572 0)
(11.3237 0.0721144 0)
(11.8666 -0.0619063 0)
(11.5532 -0.0346416 0)
(11.8426 0.0635589 0)
(11.8725 -0.0683286 0)
(12.051 0.0132051 0)
(11.9354 0.0180114 0)
(12.3173 -0.0699153 0)
(12.0657 0.0214633 0)
(12.3649 -0.00446512 0)
(12.2523 -0.0515196 0)
(12.5537 -0.0251558 0)
(12.2558 -0.0301446 0)
(12.446 -0.0344356 0)
(9.9838 -0.108506 0)
(10.1839 -0.0820387 0)
(10.731 -0.169697 0)
(10.8445 -0.0563637 0)
(11.4279 -0.0305519 0)
(11.3129 -0.104272 0)
(11.6661 0.0282601 0)
(11.6192 -0.114408 0)
(11.7632 -0.0386097 0)
(11.7886 0.00488435 0)
(12.0176 -0.0966856 0)
(11.8984 0.00467302 0)
(12.1599 -0.00565943 0)
(12.1662 -0.0902529 0)
(12.1735 -0.00147252 0)
(12.3149 -0.0240433 0)
(12.3761 -0.0763377 0)
(12.4301 -0.0398842 0)
(12.3877 -0.0667858 0)
(12.3859 -0.0511038 0)
(10.014 -0.153989 0)
(10.2525 -0.169906 0)
(10.6286 -0.253839 0)
(11.0921 -0.13974 0)
(11.2725 -0.0586532 0)
(11.564 -0.156231 0)
(11.5899 -0.0153013 0)
(11.7291 -0.113258 0)
(11.8075 -0.0864086 0)
(11.8357 -0.0122725 0)
(12.0217 -0.0943063 0)
(11.9984 -0.0285451 0)
(12.161 -0.0354393 0)
(12.2223 -0.0902971 0)
(12.2744 -0.00791782 0)
(12.3026 -0.0708659 0)
(12.4674 -0.0952864 0)
(12.4438 -0.0617651 0)
(12.518 -0.0777301 0)
(12.3744 -0.0711087 0)
(10.0438 -0.208021 0)
(10.1999 -0.288515 0)
(10.8307 -0.33815 0)
(11.1019 -0.186297 0)
(11.3869 -0.0986676 0)
(11.618 -0.173012 0)
(11.6147 -0.0289023 0)
(11.804 -0.177148 0)
(11.8705 -0.0831059 0)
(11.9048 -0.0518449 0)
(12.079 -0.134908 0)
(12.1055 -0.0331831 0)
(12.1821 -0.0567616 0)
(12.3044 -0.120242 0)
(12.3113 -0.0186483 0)
(12.4125 -0.0886683 0)
(12.4995 -0.119611 0)
(12.5156 -0.0889787 0)
(12.5439 -0.101023 0)
(12.4619 -0.0963544 0)
(10.0515 -0.270888 0)
(10.284 -0.400326 0)
(10.9559 -0.429149 0)
(11.1528 -0.227745 0)
(11.5398 -0.148524 0)
(11.6176 -0.206332 0)
(11.7891 -0.0768945 0)
(11.8386 -0.194487 0)
(11.9811 -0.115852 0)
(11.9871 -0.0796925 0)
(12.1494 -0.142314 0)
(12.1287 -0.0583197 0)
(12.2878 -0.0802539 0)
(12.2797 -0.130362 0)
(12.3632 -0.0329583 0)
(12.4011 -0.122713 0)
(12.4637 -0.128366 0)
(12.4255 -0.110124 0)
(12.4463 -0.11918 0)
(12.3486 -0.131345 0)
(10.0243 -0.361182 0)
(10.3933 -0.532858 0)
(11.101 -0.498345 0)
(11.2506 -0.272147 0)
(11.7182 -0.20048 0)
(11.6319 -0.23351 0)
(11.909 -0.119948 0)
(11.8124 -0.214724 0)
(11.966 -0.143728 0)
(11.9129 -0.0987586 0)
(12.0078 -0.158965 0)
(11.9131 -0.0802411 0)
(12.073 -0.0913015 0)
(11.875 -0.133856 0)
(12.0257 -0.0542235 0)
(11.8802 -0.121841 0)
(11.9218 -0.120194 0)
(11.7575 -0.120108 0)
(11.7578 -0.119473 0)
(11.564 -0.169396 0)
(9.97585 -0.46507 0)
(10.5856 -0.682905 0)
(11.1793 -0.567332 0)
(11.3358 -0.342284 0)
(11.6314 -0.25623 0)
(11.3731 -0.255496 0)
(11.567 -0.16385 0)
(11.2588 -0.202828 0)
(11.2873 -0.14857 0)
(11.1119 -0.104062 0)
(11.0423 -0.133601 0)
(10.8588 -0.0785 0)
(10.9106 -0.0804429 0)
(10.5828 -0.104461 0)
(10.7223 -0.0492386 0)
(10.4154 -0.0983249 0)
(10.4489 -0.0906224 0)
(10.1806 -0.102727 0)
(10.1817 -0.097194 0)
(9.86663 -0.172738 0)
(10.0402 -0.637167 0)
(10.6753 -0.851302 0)
(10.8604 -0.611063 0)
(10.6798 -0.371507 0)
(10.5047 -0.248964 0)
(10.0109 -0.213968 0)
(9.91385 -0.132723 0)
(9.44153 -0.134103 0)
(9.32351 -0.100637 0)
(9.05525 -0.0590349 0)
(8.89629 -0.0761335 0)
(8.70034 -0.0473542 0)
(8.66949 -0.039685 0)
(8.36806 -0.0604877 0)
(8.45925 -0.0304778 0)
(8.14969 -0.0530603 0)
(8.17872 -0.05968 0)
(7.90043 -0.0637021 0)
(7.8911 -0.0699548 0)
(7.54355 -0.0884692 0)
(10.0717 -0.840743 0)
(9.66548 -0.86182 0)
(8.8663 -0.510619 0)
(8.07924 -0.263112 0)
(7.5168 -0.132189 0)
(6.96197 -0.0928975 0)
(6.74421 -0.044374 0)
(6.36164 -0.0432869 0)
(6.23692 -0.0371255 0)
(6.02773 -0.0130237 0)
(5.91506 -0.0272212 0)
(5.77457 -0.0180591 0)
(5.73547 -0.00989678 0)
(5.54321 -0.0279687 0)
(5.57833 -0.0110531 0)
(5.36669 -0.0220902 0)
(5.37161 -0.0299032 0)
(5.15517 -0.0290064 0)
(5.13652 -0.0362003 0)
(4.85118 -0.0181719 0)
(8.08784 -0.388673 0)
(5.44968 -0.241485 0)
(3.91274 -0.0437378 0)
(3.15397 0.0145865 0)
(2.80886 0.0208185 0)
(2.58445 0.00729714 0)
(2.49468 0.00856802 0)
(2.37226 0.00206021 0)
(2.32004 -0.00171905 0)
(2.24759 0.00492021 0)
(2.21806 -0.00213954 0)
(2.15909 -0.000431829 0)
(2.14783 0.00253362 0)
(2.08037 -0.00428149 0)
(2.0753 0.00150104 0)
(2.0033 -0.00150154 0)
(1.98645 -0.00367564 0)
(1.8911 -0.00237985 0)
(1.85651 -0.00339546 0)
(1.71441 0.0107498 0)
(2.20824 -0.136012 0)
(2.23362 -0.0749531 0)
(2.43543 -0.0717405 0)
(2.44843 -0.0718116 0)
(2.68162 -0.0757691 0)
(2.68285 -0.0490493 0)
(2.89508 -0.0389949 0)
(2.84194 -0.01636 0)
(3.02965 -0.0177578 0)
(2.9365 -0.00011872 0)
(3.1357 -0.00465626 0)
(3.00965 0.0084709 0)
(3.22814 -0.00416056 0)
(3.0668 0.011172 0)
(3.31686 0.00801384 0)
(3.1212 0.0396461 0)
(3.41308 0.0339418 0)
(3.1902 0.0642445 0)
(3.51621 0.0611401 0)
(3.25615 0.0871771 0)
(3.64389 0.0770567 0)
(3.33635 0.0937757 0)
(3.79591 0.0729184 0)
(3.43978 0.0827096 0)
(3.98672 0.0485066 0)
(3.57515 0.0490087 0)
(4.20041 -0.000924972 0)
(3.71346 -0.0135942 0)
(4.39331 -0.0695901 0)
(3.81223 -0.0895264 0)
(4.51712 -0.141701 0)
(3.82088 -0.149249 0)
(4.53426 -0.1756 0)
(3.732 -0.136406 0)
(4.47746 -0.113642 0)
(3.64619 -0.0240958 0)
(4.47569 0.0308213 0)
(3.64816 0.123122 0)
(4.55895 0.142137 0)
(3.71227 0.178797 0)
(4.66726 0.137126 0)
(3.76063 0.122107 0)
(4.75348 0.0356866 0)
(3.77247 -0.0022846 0)
(4.81114 -0.0990581 0)
(3.76764 -0.122341 0)
(4.8443 -0.195882 0)
(3.75823 -0.191059 0)
(4.87516 -0.217531 0)
(3.78483 -0.183551 0)
(4.9487 -0.170382 0)
(3.8628 -0.128657 0)
(5.04951 -0.11857 0)
(3.93944 -0.0856456 0)
(5.10274 -0.0782841 0)
(3.91991 -0.0318578 0)
(5.03501 0.00418316 0)
(3.735 0.110793 0)
(4.82162 0.161372 0)
(3.51848 0.265832 0)
(4.64627 0.308592 0)
(3.39864 0.450523 0)
(4.52346 0.469018 0)
(3.57663 0.584204 0)
(4.54882 0.491619 0)
(4.03193 0.526246 0)
(4.76357 0.358131 0)
(4.47898 0.350424 0)
(4.90495 0.216332 0)
(4.72814 0.176816 0)
(5.04154 0.0770319 0)
(4.92225 0.038861 0)
(5.23026 -0.0214579 0)
(5.19395 -0.0536657 0)
(5.51172 -0.0686588 0)
(5.49433 -0.0739724 0)
(5.79612 -0.0967307 0)
(5.76452 -0.0988339 0)
(6.04977 -0.159927 0)
(5.91509 -0.225096 0)
(6.0319 -0.339105 0)
(5.68653 -0.329406 0)
(5.72413 -0.335006 0)
(5.37673 -0.168815 0)
(5.52542 -0.112299 0)
(5.27453 0.0767436 0)
(5.52191 0.124745 0)
(5.36365 0.243028 0)
(5.62229 0.251631 0)
(5.51045 0.295675 0)
(5.71484 0.225986 0)
(5.66948 0.240129 0)
(5.77779 0.0498503 0)
(5.85401 0.0481446 0)
(5.82372 -0.245057 0)
(6.0598 -0.249854 0)
(5.89342 -0.623212 0)
(6.22093 -0.593273 0)
(5.95661 -0.96346 0)
(6.28643 -0.901001 0)
(5.95133 -1.17671 0)
(6.20007 -1.01164 0)
(5.90114 -1.18321 0)
(5.95551 -0.831092 0)
(5.67626 -0.987594 0)
(5.67512 -0.484766 0)
(5.42272 -0.72785 0)
(5.56472 -0.0227219 0)
(5.36594 -0.295097 0)
(5.74144 0.3668 0)
(5.58318 0.270974 0)
(6.10332 0.636246 0)
(5.88844 0.632856 0)
(6.63658 0.792117 0)
(6.17566 0.726161 0)
(7.13151 0.837783 0)
(6.49881 0.61001 0)
(7.39888 0.6845 0)
(7.04259 0.504921 0)
(7.51504 0.419836 0)
(7.43368 0.234267 0)
(7.8559 0.18709 0)
(7.69002 -0.00758347 0)
(8.17175 -0.175361 0)
(8.05842 -0.263932 0)
(8.37654 -0.46258 0)
(8.50736 -0.61371 0)
(8.78981 -0.783823 0)
(8.8111 -0.929854 0)
(9.33591 -1.1338 0)
(9.52191 -1.39307 0)
(9.77025 -1.42754 0)
(10.3486 -1.83243 0)
(10.65 -2.03869 0)
(10.9866 -2.17132 0)
(11.5898 -2.49 0)
(11.9569 -2.80153 0)
(12.1732 -2.7507 0)
(12.8237 -3.16989 0)
(13.0345 -3.22879 0)
(13.0971 -3.14332 0)
(13.8163 -3.42613 0)
(13.5262 -3.32309 0)
(13.9458 -3.149 0)
(14.0267 -3.40142 0)
(14.0296 -3.03813 0)
(14.1128 -3.08798 0)
(14.1487 -3.07893 0)
(14.0759 -2.79617 0)
(14.0838 -2.92424 0)
(13.974 -2.80154 0)
(13.8426 -2.65538 0)
(13.7182 -2.79757 0)
(13.4963 -2.61503 0)
(13.2102 -2.56839 0)
(12.9515 -2.66575 0)
(12.522 -2.42101 0)
(12.1957 -2.34976 0)
(11.7457 -2.37419 0)
(11.2369 -1.98176 0)
(10.7078 -1.92719 0)
(10.4324 -1.8839 0)
(9.63157 -1.47654 0)
(9.42036 -1.3698 0)
(9.1301 -1.50973 0)
(8.56125 -1.1673 0)
(8.34847 -1.08633 0)
(8.32528 -1.49688 0)
(8.08644 -1.39059 0)
(7.78883 -1.26842 0)
(7.72882 -1.6255 0)
(7.79894 -1.80194 0)
(7.91486 -1.60543 0)
(7.68449 -1.64689 0)
(7.63235 -1.7259 0)
(7.71325 -1.63632 0)
(8.27018 -1.34527 0)
(8.5461 -1.29428 0)
(9.26184 -1.18246 0)
(9.9177 -1.11102 0)
(10.5877 -0.837548 0)
(10.7147 -0.255428 0)
(11.1308 0.52386 0)
(10.9665 1.18689 0)
(11.0817 2.21021 0)
(10.5413 2.80707 0)
(10.1676 3.48415 0)
(9.75136 4.07982 0)
(9.30342 4.58974 0)
(9.34967 5.0619 0)
(9.06737 5.45145 0)
(9.38324 6.32579 0)
(9.07978 6.88064 0)
(8.30363 6.91229 0)
(8.44919 7.73481 0)
(8.34308 8.76669 0)
(7.81386 9.57077 0)
(7.60963 10.1534 0)
(7.39495 11.3279 0)
(4.21101 14.5189 0)
(5.25234 -0.0915247 0)
(5.10946 -0.0633134 0)
(5.32996 -0.0741635 0)
(5.18549 -0.087554 0)
(5.47528 -0.117383 0)
(5.32821 -0.0994969 0)
(5.63582 -0.0876443 0)
(5.41325 -0.0527358 0)
(5.7111 -0.0507466 0)
(5.42035 -0.0296815 0)
(5.75929 -0.033673 0)
(5.42758 -0.0203069 0)
(5.81796 -0.0302304 0)
(5.43954 -0.0177069 0)
(5.8775 -0.0278894 0)
(5.45649 -0.00693635 0)
(5.95187 -0.0094745 0)
(5.49103 0.0212814 0)
(6.04304 0.0243715 0)
(5.53488 0.0524386 0)
(6.14081 0.0469113 0)
(5.58248 0.0612423 0)
(6.23976 0.0387593 0)
(5.63064 0.0404749 0)
(6.34573 0.00360862 0)
(5.68618 0.00196289 0)
(6.45412 -0.043596 0)
(5.7393 -0.0484618 0)
(6.53904 -0.0973903 0)
(5.7679 -0.0997068 0)
(6.57021 -0.146453 0)
(5.73856 -0.132501 0)
(6.52667 -0.160472 0)
(5.64616 -0.110834 0)
(6.44476 -0.0994166 0)
(5.55979 -0.0189803 0)
(6.42011 0.0101964 0)
(5.5666 0.0817177 0)
(6.49249 0.0912831 0)
(5.66617 0.124729 0)
(6.60973 0.0843601 0)
(5.78803 0.0762696 0)
(6.71878 -0.00779068 0)
(5.89568 -0.0274946 0)
(6.79422 -0.121552 0)
(5.97652 -0.127594 0)
(6.83259 -0.206984 0)
(6.02592 -0.181042 0)
(6.83461 -0.23038 0)
(6.04764 -0.16584 0)
(6.8079 -0.191124 0)
(6.061 -0.111891 0)
(6.77414 -0.136974 0)
(6.05383 -0.0575542 0)
(6.71704 -0.0720548 0)
(6.00628 0.0172465 0)
(6.61238 0.0186094 0)
(5.89714 0.147393 0)
(6.43353 0.17181 0)
(5.80987 0.321079 0)
(6.31212 0.336881 0)
(5.82256 0.479669 0)
(6.21736 0.467143 0)
(5.91119 0.537789 0)
(6.23852 0.472795 0)
(6.10674 0.450342 0)
(6.39047 0.357961 0)
(6.35209 0.27502 0)
(6.52405 0.217984 0)
(6.48658 0.138336 0)
(6.58429 0.0761773 0)
(6.5931 0.0196234 0)
(6.60771 -0.0416205 0)
(6.69077 -0.0685032 0)
(6.65275 -0.135953 0)
(6.78354 -0.113078 0)
(6.70877 -0.190909 0)
(6.86947 -0.142081 0)
(6.78559 -0.236776 0)
(6.91486 -0.22281 0)
(6.75851 -0.282794 0)
(6.71745 -0.241091 0)
(6.57641 -0.196031 0)
(6.49336 -0.120944 0)
(6.51783 -0.0505262 0)
(6.45256 0.052504 0)
(6.57531 0.0855417 0)
(6.59051 0.20943 0)
(6.68919 0.131401 0)
(6.86241 0.276689 0)
(6.82735 0.0914268 0)
(7.1824 0.19152 0)
(7.0126 -0.0424978 0)
(7.50279 -0.0516809 0)
(7.23137 -0.292991 0)
(7.75694 -0.381293 0)
(7.47146 -0.631845 0)
(7.91478 -0.730982 0)
(7.63334 -0.954688 0)
(8.02018 -0.998486 0)
(7.64328 -1.14986 0)
(8.055 -1.05535 0)
(7.61154 -1.15213 0)
(7.99224 -0.868421 0)
(7.58887 -0.908643 0)
(7.92854 -0.505958 0)
(7.50901 -0.458395 0)
(7.70604 -0.10323 0)
(7.39278 -0.00422589 0)
(7.48742 0.170582 0)
(7.26914 0.311825 0)
(7.44196 0.409203 0)
(7.29382 0.479962 0)
(7.70951 0.59229 0)
(7.42077 0.536729 0)
(8.03584 0.610045 0)
(7.82982 0.541666 0)
(8.16005 0.490146 0)
(8.33395 0.37401 0)
(8.37124 0.348122 0)
(8.60985 0.122179 0)
(8.78402 0.0396355 0)
(8.83942 -0.0640078 0)
(9.06592 -0.311752 0)
(9.33503 -0.454837 0)
(9.30491 -0.530158 0)
(9.73566 -0.825259 0)
(9.97612 -1.02395 0)
(10.049 -1.06973 0)
(10.675 -1.43694 0)
(10.859 -1.61912 0)
(11.1679 -1.75786 0)
(11.8224 -2.17542 0)
(11.9811 -2.28236 0)
(12.5141 -2.57675 0)
(12.9105 -2.8518 0)
(13.1985 -3.00017 0)
(13.4907 -3.19014 0)
(13.9117 -3.36166 0)
(13.9057 -3.38054 0)
(14.1618 -3.43436 0)
(14.3678 -3.50392 0)
(14.1564 -3.34863 0)
(14.4486 -3.34954 0)
(14.2635 -3.33101 0)
(14.2768 -3.03918 0)
(14.2003 -3.1767 0)
(14.16 -2.91789 0)
(13.9876 -2.81346 0)
(13.9648 -2.88511 0)
(13.7313 -2.63037 0)
(13.6452 -2.5873 0)
(13.4459 -2.65953 0)
(13.1623 -2.37377 0)
(12.9742 -2.39416 0)
(12.7344 -2.36108 0)
(12.2713 -2.03995 0)
(12.0969 -2.04574 0)
(11.6304 -1.97344 0)
(11.151 -1.5329 0)
(10.8294 -1.62675 0)
(10.5194 -1.47798 0)
(9.68032 -1.04479 0)
(9.77423 -1.17681 0)
(9.25595 -1.20942 0)
(8.64014 -0.761512 0)
(8.60452 -1.02024 0)
(8.43882 -1.36042 0)
(7.83074 -1.05586 0)
(7.67316 -1.13078 0)
(7.61627 -1.74868 0)
(7.64132 -1.78611 0)
(7.2422 -1.45479 0)
(7.11618 -1.52448 0)
(7.36505 -1.9024 0)
(7.91219 -2.05592 0)
(8.56736 -1.842 0)
(8.95764 -1.91031 0)
(9.60068 -1.79931 0)
(10.0167 -1.57258 0)
(10.4589 -1.14181 0)
(10.5669 -0.433355 0)
(10.7474 0.407165 0)
(10.8318 1.23325 0)
(10.9142 2.1814 0)
(10.9177 3.10843 0)
(10.3086 3.5607 0)
(10.2359 4.26852 0)
(9.52716 4.74298 0)
(9.21588 4.94629 0)
(9.14064 5.64483 0)
(9.14556 6.14302 0)
(9.3955 6.91518 0)
(9.09946 7.79834 0)
(8.51407 7.91507 0)
(8.8207 8.44312 0)
(8.7527 10.1233 0)
(8.3299 11.1011 0)
(10.1071 10.9176 0)
(7.03203 15.6452 0)
(7.97162 -0.140113 0)
(7.70601 -0.147457 0)
(8.00974 -0.164312 0)
(7.75304 -0.158447 0)
(8.12969 -0.150052 0)
(7.85542 -0.113548 0)
(8.27041 -0.092582 0)
(7.92303 -0.0497428 0)
(8.3416 -0.0435684 0)
(7.91992 -0.0184745 0)
(8.35982 -0.0282469 0)
(7.90001 -0.0121589 0)
(8.37433 -0.0327704 0)
(7.89647 -0.0164388 0)
(8.40035 -0.0322917 0)
(7.89481 -0.00819269 0)
(8.42812 -0.0225757 0)
(7.89619 0.00708537 0)
(8.46729 -0.0054674 0)
(7.91888 0.0245329 0)
(8.51986 0.00504806 0)
(7.96926 0.0290539 0)
(8.58706 -0.0019439 0)
(8.03442 0.0198593 0)
(8.65199 -0.0266546 0)
(8.09664 -0.00425266 0)
(8.71117 -0.0615007 0)
(8.14463 -0.0420736 0)
(8.72978 -0.0986372 0)
(8.14693 -0.0843116 0)
(8.69181 -0.129416 0)
(8.09881 -0.102433 0)
(8.60455 -0.126208 0)
(8.01338 -0.0732657 0)
(8.50789 -0.0707548 0)
(7.94219 -0.00152756 0)
(8.44987 0.00831841 0)
(7.94889 0.0690719 0)
(8.4633 0.0532904 0)
(8.03921 0.0902856 0)
(8.52872 0.0276641 0)
(8.15844 0.0392761 0)
(8.60788 -0.057243 0)
(8.26517 -0.0584943 0)
(8.66689 -0.159311 0)
(8.33006 -0.150983 0)
(8.69038 -0.234172 0)
(8.35103 -0.199939 0)
(8.67889 -0.246695 0)
(8.34895 -0.178772 0)
(8.65431 -0.195207 0)
(8.34983 -0.107646 0)
(8.62616 -0.111018 0)
(8.3293 -0.01032 0)
(8.56494 -0.0102949 0)
(8.26413 0.0869344 0)
(8.45337 0.100592 0)
(8.15201 0.196475 0)
(8.31192 0.247816 0)
(8.04246 0.326828 0)
(8.22239 0.384247 0)
(8.00943 0.422151 0)
(8.17713 0.458758 0)
(8.04202 0.456794 0)
(8.2046 0.426605 0)
(8.18994 0.398106 0)
(8.3021 0.29766 0)
(8.38267 0.26054 0)
(8.39839 0.132715 0)
(8.49263 0.125189 0)
(8.4393 0.0125147 0)
(8.53546 0.00728186 0)
(8.4864 -0.0608146 0)
(8.55005 -0.0743533 0)
(8.56299 -0.101787 0)
(8.52689 -0.124678 0)
(8.63545 -0.123816 0)
(8.43731 -0.151362 0)
(8.6539 -0.169139 0)
(8.32314 -0.184997 0)
(8.58118 -0.216739 0)
(8.12472 -0.156999 0)
(8.37868 -0.196621 0)
(7.96366 -0.0570592 0)
(8.24076 -0.107143 0)
(7.99589 0.0546712 0)
(8.19893 0.0034716 0)
(8.15108 0.132038 0)
(8.26912 0.0554443 0)
(8.3749 0.132592 0)
(8.48604 0.00981466 0)
(8.61804 0.0282762 0)
(8.79552 -0.138922 0)
(8.89371 -0.191847 0)
(9.1063 -0.397753 0)
(9.15714 -0.489851 0)
(9.38094 -0.721922 0)
(9.35564 -0.795208 0)
(9.54118 -1.00166 0)
(9.48937 -1.02898 0)
(9.54373 -1.13145 0)
(9.50987 -1.09228 0)
(9.47822 -1.06345 0)
(9.3781 -0.938014 0)
(9.38953 -0.788181 0)
(9.20101 -0.598926 0)
(9.34694 -0.399699 0)
(9.07629 -0.152034 0)
(9.41449 0.0229717 0)
(9.03439 0.263857 0)
(9.35003 0.327234 0)
(9.14203 0.516204 0)
(9.11866 0.488062 0)
(9.28491 0.541366 0)
(9.0033 0.528847 0)
(9.29914 0.479522 0)
(9.2386 0.410855 0)
(9.25087 0.415785 0)
(9.53718 0.169267 0)
(9.50142 0.240929 0)
(9.66482 -0.00404268 0)
(9.93095 -0.137431 0)
(9.96677 -0.254305 0)
(10.165 -0.393502 0)
(10.5538 -0.730814 0)
(10.5202 -0.703251 0)
(10.9998 -1.04854 0)
(11.271 -1.25486 0)
(11.4466 -1.34329 0)
(12.0158 -1.74037 0)
(12.2201 -1.891 0)
(12.5948 -2.12711 0)
(13.1469 -2.47945 0)
(13.2232 -2.58739 0)
(13.7829 -2.93303 0)
(13.955 -3.10305 0)
(14.1549 -3.21219 0)
(14.4144 -3.4256 0)
(14.5052 -3.45258 0)
(14.4573 -3.47356 0)
(14.6503 -3.52952 0)
(14.462 -3.45068 0)
(14.4056 -3.34366 0)
(14.4746 -3.34916 0)
(14.1512 -3.19346 0)
(14.222 -3.02054 0)
(14.0641 -3.09995 0)
(13.9269 -2.80078 0)
(13.8089 -2.77696 0)
(13.8149 -2.75914 0)
(13.4697 -2.49002 0)
(13.5326 -2.49404 0)
(13.2884 -2.45381 0)
(13.0591 -2.13419 0)
(12.988 -2.20344 0)
(12.7011 -2.04709 0)
(12.2998 -1.74525 0)
(12.2562 -1.81119 0)
(11.7201 -1.59046 0)
(11.3255 -1.21147 0)
(11.1385 -1.38248 0)
(10.6453 -1.03755 0)
(9.93116 -0.720008 0)
(10.1297 -0.969533 0)
(9.22079 -0.750959 0)
(8.77217 -0.446778 0)
(8.79654 -0.932571 0)
(8.18593 -0.943928 0)
(7.51991 -0.694656 0)
(7.57203 -1.09777 0)
(7.32966 -1.67244 0)
(6.92545 -1.40266 0)
(6.46353 -1.26407 0)
(6.77449 -1.77946 0)
(7.31066 -2.43024 0)
(8.16526 -2.48444 0)
(8.48012 -2.33687 0)
(8.88278 -2.2422 0)
(8.95887 -2.04441 0)
(9.31707 -1.67881 0)
(9.45966 -1.29671 0)
(9.57651 -0.428942 0)
(9.61155 0.296614 0)
(9.9963 1.08244 0)
(10.1534 2.20027 0)
(10.4413 3.23825 0)
(10.1398 4.21603 0)
(9.8536 4.62587 0)
(9.71541 5.50251 0)
(8.94702 5.39309 0)
(8.68378 5.55642 0)
(9.1728 6.50067 0)
(9.23093 6.68467 0)
(9.5476 7.39899 0)
(9.35336 8.46337 0)
(9.23979 8.63455 0)
(9.72398 9.27292 0)
(8.66261 11.5453 0)
(12.2988 10.1599 0)
(9.28639 15.7689 0)
(10.1845 -0.15979 0)
(9.96518 -0.271522 0)
(10.2407 -0.311911 0)
(10.0409 -0.275309 0)
(10.3392 -0.232627 0)
(10.1047 -0.149948 0)
(10.3995 -0.129045 0)
(10.1206 -0.070075 0)
(10.41 -0.0821658 0)
(10.1147 -0.0347498 0)
(10.4076 -0.0447718 0)
(10.1122 -0.00990177 0)
(10.4029 -0.0355888 0)
(10.1086 -0.0121071 0)
(10.3987 -0.0444616 0)
(10.1 -0.0120383 0)
(10.4027 -0.0431081 0)
(10.118 -0.000315195 0)
(10.4324 -0.0229744 0)
(10.1628 0.0235214 0)
(10.4618 -0.00541739 0)
(10.2098 0.0278196 0)
(10.4877 -0.0203676 0)
(10.2385 0.0066477 0)
(10.5058 -0.0564451 0)
(10.2572 -0.0339382 0)
(10.5312 -0.0920735 0)
(10.2928 -0.0675849 0)
(10.5465 -0.102447 0)
(10.3191 -0.080717 0)
(10.5258 -0.0957673 0)
(10.3011 -0.07057 0)
(10.4542 -0.0738507 0)
(10.2315 -0.0392102 0)
(10.3538 -0.0325845 0)
(10.1689 0.0111882 0)
(10.2784 0.0196457 0)
(10.1691 0.0575053 0)
(10.2727 0.0458485 0)
(10.2337 0.0612456 0)
(10.3294 0.0117801 0)
(10.3162 0.00576793 0)
(10.4112 -0.0775185 0)
(10.3767 -0.0861771 0)
(10.4767 -0.177818 0)
(10.39 -0.168269 0)
(10.5068 -0.241918 0)
(10.3564 -0.204681 0)
(10.5027 -0.239136 0)
(10.2871 -0.180093 0)
(10.4773 -0.17464 0)
(10.2074 -0.115161 0)
(10.4495 -0.0733573 0)
(10.1313 -0.0188305 0)
(10.4089 0.0509806 0)
(10.0535 0.0876481 0)
(10.3443 0.178805 0)
(9.985 0.215442 0)
(10.2572 0.302317 0)
(9.94661 0.345644 0)
(10.1735 0.384989 0)
(9.97158 0.434385 0)
(10.1262 0.401902 0)
(10.0278 0.467455 0)
(10.1572 0.355428 0)
(10.1199 0.395461 0)
(10.2708 0.258726 0)
(10.1946 0.22869 0)
(10.4116 0.140657 0)
(10.2129 0.0566882 0)
(10.4913 0.0511331 0)
(10.198 -0.0540956 0)
(10.5222 -0.0264711 0)
(10.192 -0.0936795 0)
(10.5414 -0.114306 0)
(10.1878 -0.0850249 0)
(10.5514 -0.182515 0)
(10.1311 -0.0661312 0)
(10.5171 -0.205946 0)
(10.0406 -0.0829543 0)
(10.4237 -0.203795 0)
(9.90198 -0.0947185 0)
(10.2373 -0.148247 0)
(9.81081 -0.0440262 0)
(10.0895 -0.0623566 0)
(9.8442 0.0416609 0)
(10.0322 -0.0124363 0)
(9.94379 0.10065 0)
(10.1078 -0.00232874 0)
(10.0697 0.0608837 0)
(10.331 -0.0561985 0)
(10.2312 -0.0944093 0)
(10.6246 -0.209419 0)
(10.4453 -0.324896 0)
(10.9079 -0.485163 0)
(10.6578 -0.586622 0)
(11.1288 -0.806975 0)
(10.8109 -0.863896 0)
(11.2186 -1.02731 0)
(10.8818 -1.10166 0)
(11.1606 -1.07382 0)
(10.8425 -1.15482 0)
(11.0467 -0.97934 0)
(10.6784 -0.934617 0)
(10.9745 -0.748023 0)
(10.475 -0.519746 0)
(10.9552 -0.407147 0)
(10.3361 -0.0664928 0)
(10.9104 -0.0264186 0)
(10.4214 0.272077 0)
(10.7404 0.325572 0)
(10.7032 0.466715 0)
(10.5615 0.556447 0)
(10.8826 0.508627 0)
(10.6215 0.59637 0)
(10.8153 0.496164 0)
(10.8624 0.394216 0)
(10.7644 0.406906 0)
(11.0024 0.149185 0)
(11.0039 0.109929 0)
(11.0645 -0.0600804 0)
(11.3101 -0.264692 0)
(11.4025 -0.434366 0)
(11.5466 -0.551949 0)
(11.9121 -0.878274 0)
(11.9654 -0.96142 0)
(12.4111 -1.24742 0)
(12.5951 -1.4643 0)
(12.8888 -1.66812 0)
(13.3162 -1.98518 0)
(13.443 -2.15081 0)
(13.892 -2.43896 0)
(14.1139 -2.70168 0)
(14.2356 -2.82702 0)
(14.616 -3.13668 0)
(14.5434 -3.21 0)
(14.7374 -3.3274 0)
(14.7243 -3.48134 0)
(14.6581 -3.43382 0)
(14.609 -3.47058 0)
(14.5569 -3.46245 0)
(14.3369 -3.35047 0)
(14.343 -3.28323 0)
(14.1816 -3.25547 0)
(14.0504 -3.06957 0)
(14.0415 -2.99699 0)
(13.9064 -2.98374 0)
(13.8253 -2.71321 0)
(13.7649 -2.72114 0)
(13.7527 -2.62656 0)
(13.4576 -2.38753 0)
(13.6291 -2.38078 0)
(13.3175 -2.26369 0)
(13.2039 -1.98562 0)
(13.1211 -2.04259 0)
(12.8332 -1.79499 0)
(12.5127 -1.55584 0)
(12.4587 -1.57104 0)
(11.8611 -1.24702 0)
(11.5882 -0.973833 0)
(11.3155 -1.05588 0)
(10.7122 -0.595325 0)
(10.1639 -0.481972 0)
(10.1774 -0.60937 0)
(9.05841 -0.236097 0)
(8.87918 -0.250498 0)
(8.60667 -0.604743 0)
(7.71131 -0.369096 0)
(7.26122 -0.478114 0)
(7.30508 -0.986204 0)
(6.56973 -1.21929 0)
(6.02939 -0.99123 0)
(5.99099 -1.38435 0)
(6.44441 -2.33235 0)
(7.35145 -2.98075 0)
(7.87871 -2.90069 0)
(7.90072 -2.53289 0)
(7.82052 -2.15901 0)
(7.65491 -1.95416 0)
(8.03599 -1.70101 0)
(7.98368 -1.27845 0)
(8.32963 -0.496624 0)
(8.28645 0.0484599 0)
(8.81893 0.873986 0)
(9.30322 1.76773 0)
(9.56001 2.82359 0)
(9.90078 3.93431 0)
(9.54589 4.55943 0)
(9.49015 5.318 0)
(9.46738 5.9793 0)
(8.48627 5.35934 0)
(8.73517 5.88831 0)
(9.25877 7.15167 0)
(9.50678 7.40677 0)
(9.75481 8.06613 0)
(9.68307 9.13609 0)
(11.1957 9.05174 0)
(8.66156 11.7906 0)
(13.2819 8.10601 0)
(11.0066 14.9723 0)
(11.5515 -0.150808 0)
(11.5825 -0.285035 0)
(11.6996 -0.336676 0)
(11.7766 -0.304149 0)
(11.8304 -0.249744 0)
(11.8421 -0.159758 0)
(11.8387 -0.123608 0)
(11.8157 -0.0581051 0)
(11.7966 -0.0740485 0)
(11.784 -0.0275849 0)
(11.7648 -0.03924 0)
(11.7617 -0.014525 0)
(11.7536 -0.0323321 0)
(11.763 -0.0171666 0)
(11.7618 -0.0331779 0)
(11.7603 -0.0121017 0)
(11.7573 -0.0414881 0)
(11.7561 -0.0110426 0)
(11.7595 -0.0424339 0)
(11.7726 -0.00528247 0)
(11.7824 -0.0295629 0)
(11.8009 -0.00490288 0)
(11.8292 -0.0255552 0)
(11.8249 -0.0126011 0)
(11.866 -0.0449369 0)
(11.8339 -0.035357 0)
(11.8867 -0.0782588 0)
(11.8531 -0.0590386 0)
(11.8879 -0.0872044 0)
(11.8672 -0.0727459 0)
(11.8743 -0.075555 0)
(11.8661 -0.0579123 0)
(11.8309 -0.0448271 0)
(11.83 -0.0190278 0)
(11.7525 -0.00116328 0)
(11.7732 0.0190399 0)
(11.6689 0.0385331 0)
(11.7345 0.0277299 0)
(11.6509 0.037946 0)
(11.7393 0.00828447 0)
(11.717 -0.00805229 0)
(11.769 -0.0430465 0)
(11.8362 -0.0893068 0)
(11.7996 -0.117692 0)
(11.962 -0.166105 0)
(11.7974 -0.179134 0)
(12.0502 -0.209407 0)
(11.7532 -0.203479 0)
(12.0838 -0.196656 0)
(11.6716 -0.164933 0)
(12.0568 -0.135692 0)
(11.5821 -0.0772683 0)
(11.9954 -0.0380104 0)
(11.5209 0.0346044 0)
(11.899 0.076162 0)
(11.4848 0.148287 0)
(11.7849 0.187372 0)
(11.4858 0.268136 0)
(11.6609 0.286699 0)
(11.5111 0.364797 0)
(11.5773 0.3604 0)
(11.5553 0.411996 0)
(11.5829 0.387276 0)
(11.5908 0.404237 0)
(11.6748 0.354286 0)
(11.6316 0.318545 0)
(11.8179 0.256996 0)
(11.6721 0.185851 0)
(11.9411 0.121339 0)
(11.72 0.0618623 0)
(11.9661 0.00582778 0)
(11.7664 -0.0169243 0)
(11.9236 -0.0713843 0)
(11.8049 -0.0508911 0)
(11.8954 -0.119065 0)
(11.8031 -0.0565817 0)
(11.9018 -0.15002 0)
(11.7326 -0.0575398 0)
(11.891 -0.150606 0)
(11.6403 -0.0647274 0)
(11.826 -0.144209 0)
(11.5687 -0.0567112 0)
(11.6859 -0.0962327 0)
(11.5437 -0.0102915 0)
(11.5907 -0.0287967 0)
(11.576 0.0269844 0)
(11.5982 0.0141856 0)
(11.6359 0.0169728 0)
(11.702 0.00951317 0)
(11.7144 -0.0617365 0)
(11.8906 -0.086511 0)
(11.8328 -0.210309 0)
(12.1214 -0.281777 0)
(11.9691 -0.419006 0)
(12.3218 -0.547955 0)
(12.0877 -0.673194 0)
(12.4129 -0.814613 0)
(12.1583 -0.929383 0)
(12.348 -0.992261 0)
(12.1449 -1.09736 0)
(12.176 -1.03657 0)
(12.014 -1.08382 0)
(11.9938 -0.943593 0)
(11.7836 -0.852565 0)
(11.8685 -0.723099 0)
(11.5512 -0.469548 0)
(11.7806 -0.419133 0)
(11.4655 -0.0356064 0)
(11.682 -0.0612131 0)
(11.6289 0.273626 0)
(11.5513 0.29931 0)
(11.9331 0.42005 0)
(11.5244 0.550945 0)
(12.1314 0.477657 0)
(11.7377 0.55086 0)
(12.1558 0.496433 0)
(12.0375 0.354939 0)
(12.2556 0.350375 0)
(12.205 0.141976 0)
(12.5094 0.0184934 0)
(12.3876 -0.156114 0)
(12.734 -0.31196 0)
(12.7409 -0.564623 0)
(12.9968 -0.704843 0)
(13.1365 -0.950464 0)
(13.3602 -1.18843 0)
(13.6007 -1.39614 0)
(13.7347 -1.65108 0)
(14.0482 -1.91269 0)
(14.1873 -2.12775 0)
(14.3576 -2.37072 0)
(14.5975 -2.62952 0)
(14.5769 -2.78633 0)
(14.7544 -3.00059 0)
(14.7473 -3.17393 0)
(14.6682 -3.20791 0)
(14.7196 -3.40783 0)
(14.5326 -3.3706 0)
(14.4766 -3.39377 0)
(14.3889 -3.42231 0)
(14.2755 -3.33086 0)
(14.1493 -3.2965 0)
(14.1862 -3.23026 0)
(14.0242 -3.16676 0)
(14.0325 -3.03148 0)
(13.9909 -2.97592 0)
(13.9669 -2.89082 0)