/*--------------------------------*- C++ -*----------------------------------*\
| =========                 |                                                 |
| \\      /  F ield         | OpenFOAM: The Open Source CFD Toolbox           |
|  \\    /   O peration     | Version:  2.4.0                                 |
|   \\  /    A nd           | Web:      www.OpenFOAM.org                      |
|    \\/     M anipulation  |                                                 |
\*---------------------------------------------------------------------------*/
FoamFile
{
    version     2.0;
    format      ascii;
    class       volVectorField;
    location    "0.36";
    object      U;
}
// * * * * * * * * * * * * * * * * * * * * * * * * * * * * * * * * * * * * * //

dimensions      [0 1 -1 0 0 0 0];

internalField   nonuniform List<vector> 
4400
(
(9.93491 0.0114031 0)
(9.87192 0.0128567 0)
(9.78277 0.0117698 0)
(9.75674 0.0241688 0)
(9.43961 -0.00599634 0)
(9.75639 0.0617528 0)
(9.15458 -0.0676278 0)
(9.7508 0.148289 0)
(8.56091 -0.149128 0)
(9.91806 0.196338 0)
(8.26567 -0.1139 0)
(9.57992 0.0826309 0)
(8.36656 0.0139506 0)
(9.32082 0.0092559 0)
(7.52077 -0.0588123 0)
(11.3175 0.192751 0)
(3.17262 -0.0718912 0)
(14.6452 0.165044 0)
(-1.90514 -0.00128874 0)
(15.7978 0.114718 0)
(9.96365 0.0147901 0)
(10.081 0.024104 0)
(9.9038 0.0140539 0)
(10.2874 0.0247159 0)
(9.55363 0.0212698 0)
(10.7773 0.00930842 0)
(9.10626 0.0461438 0)
(11.2149 -0.0294916 0)
(8.645 0.0984432 0)
(11.3006 -0.0747619 0)
(9.20047 0.121951 0)
(10.481 -0.0460039 0)
(9.90066 -0.0120376 0)
(10.435 0.167485 0)
(8.71304 -0.268021 0)
(13.1235 0.452199 0)
(4.10479 -0.340746 0)
(17.5491 0.579692 0)
(-0.139223 0.0239041 0)
(16.1134 -1.36247 0)
(9.98264 0.00338649 0)
(10.0292 0.0321897 0)
(10.0018 -0.0175566 0)
(10.0997 0.0719313 0)
(9.89912 -0.0764249 0)
(10.2706 0.149026 0)
(9.89505 -0.157795 0)
(10.3209 0.208295 0)
(9.72789 -0.150209 0)
(10.5051 0.112108 0)
(9.81281 0.0142811 0)
(10.3689 -0.0319749 0)
(10.0664 -0.00538378 0)
(10.0366 0.234404 0)
(10.0408 -0.493529 0)
(11.4201 0.883371 0)
(7.08723 -0.745642 0)
(16.2058 0.548296 0)
(6.17725 0.620353 0)
(11.9099 -2.23807 0)
(9.97502 0.00480623 0)
(10.0477 0.0209144 0)
(9.9614 0.0035267 0)
(10.1683 0.0315722 0)
(9.77449 -0.00797202 0)
(10.4517 0.0411709 0)
(9.63801 -0.0104924 0)
(10.5908 0.0327922 0)
(9.47233 0.0196215 0)
(10.6158 -0.00845498 0)
(9.85439 0.0686257 0)
(10.2496 -0.0259692 0)
(10.0553 0.000977777 0)
(10.3333 0.173496 0)
(9.70876 -0.400073 0)
(10.9159 0.847068 0)
(9.4285 -0.876727 0)
(12.5455 0.635889 0)
(9.0767 0.950044 0)
(11.6897 -2.27964 0)
(9.98539 -0.00306143 0)
(10.0186 0.0348346 0)
(10.0122 -0.0285531 0)
(10.0663 0.0802646 0)
(9.94801 -0.0941909 0)
(10.1756 0.155573 0)
(10.0379 -0.162642 0)
(10.1085 0.180557 0)
(9.98683 -0.109296 0)
(10.2295 0.0391313 0)
(10.0267 0.0710849 0)
(10.2995 -0.0606295 0)
(9.97902 -0.0321044 0)
(10.1911 0.273967 0)
(10.2513 -0.499943 0)
(10.1307 0.777605 0)
(10.3367 -0.76148 0)
(10.8024 0.32111 0)
(9.85185 1.06009 0)
(11.5882 -2.40409 0)
(9.98274 2.09352e-05 0)
(10.0244 0.0198237 0)
(9.99761 -0.00609397 0)
(10.0897 0.036515 0)
(9.90015 -0.0289338 0)
(10.2445 0.0604387 0)
(9.92795 -0.0498857 0)
(10.2191 0.0749655 0)
(9.86337 -0.0458928 0)
(10.2561 0.0572658 0)
(10.0813 -0.00593786 0)
(10.1171 0.0242797 0)
(10.1403 -0.0137385 0)
(10.1094 0.120089 0)
(10.1795 -0.276086 0)
(9.95244 0.591361 0)
(10.7081 -0.720541 0)
(9.1898 0.407044 0)
(10.6259 0.920016 0)
(11.259 -2.03996 0)
(9.9871 -0.00578832 0)
(10.0129 0.0288575 0)
(10.0156 -0.0287501 0)
(10.0538 0.0679342 0)
(9.95658 -0.0834814 0)
(10.1568 0.125875 0)
(10.0482 -0.130199 0)
(10.0824 0.128618 0)
(9.99655 -0.0645335 0)
(10.19 -0.00524763 0)
(10.0539 0.0794322 0)
(10.2524 -0.0534589 0)
(9.98461 -0.0369627 0)
(10.2142 0.224301 0)
(10.1698 -0.35749 0)
(10.0216 0.454312 0)
(10.4109 -0.410736 0)
(9.5546 0.123429 0)
(10.5161 0.814902 0)
(10.8708 -1.73572 0)
(9.98717 -0.00346874 0)
(10.0121 0.0180626 0)
(10.0154 -0.01473 0)
(10.0515 0.0395392 0)
(9.95729 -0.0445863 0)
(10.1505 0.07269 0)
(10.0562 -0.0774263 0)
(10.0536 0.0997112 0)
(10.0398 -0.0864959 0)
(10.0934 0.09091 0)
(10.1875 -0.0426777 0)
(10.0746 0.0405539 0)
(10.134 -0.0124698 0)
(10.1213 0.0636459 0)
(10.1506 -0.150847 0)
(10.0621 0.355264 0)
(10.4712 -0.417257 0)
(9.4247 0.158261 0)
(10.6764 0.79953 0)
(10.7449 -1.38962 0)
(9.98907 -0.00654236 0)
(10.0077 0.0210225 0)
(10.0212 -0.0257983 0)
(10.0409 0.0502526 0)
(9.96979 -0.0652889 0)
(10.135 0.0892302 0)
(10.0677 -0.0921452 0)
(10.0523 0.0799419 0)
(10.018 -0.0320256 0)
(10.1473 -0.020758 0)
(10.0996 0.0606828 0)
(10.1677 -0.0331953 0)
(10.0635 -0.0508274 0)
(10.1341 0.182967 0)
(10.2109 -0.232909 0)
(9.96963 0.226739 0)
(10.4173 -0.0925781 0)
(9.69816 -0.0592707 0)
(10.579 0.640266 0)
(10.1576 -0.987218 0)
(9.9899 -0.00570595 0)
(10.0055 0.0147449 0)
(10.0244 -0.0205892 0)
(10.0346 0.0367075 0)
(9.97914 -0.0509543 0)
(10.1186 0.0714079 0)
(10.0915 -0.0857385 0)
(10.0155 0.0977925 0)
(10.0671 -0.0919896 0)
(10.0823 0.0769365 0)
(10.1674 -0.0412523 0)
(10.1192 0.0235433 0)
(10.0819 0.0135516 0)
(10.1494 0.00390667 0)
(10.1415 -0.0479063 0)
(10.1016 0.181953 0)
(10.2818 -0.175542 0)
(9.80378 -0.0379182 0)
(10.4785 0.771476 0)
(10.5195 -0.969474 0)
(9.99098 -0.0069118 0)
(10.0034 0.0133893 0)
(10.0274 -0.0236505 0)
(10.0304 0.0345074 0)
(9.98366 -0.0510157 0)
(10.1148 0.0611013 0)
(10.0913 -0.0676306 0)
(10.0215 0.0530747 0)
(10.0506 -0.0275463 0)
(10.1046 -0.0107524 0)
(10.1513 0.0355142 0)
(10.1049 -0.0158023 0)
(10.1146 -0.0467774 0)
(10.1159 0.127266 0)
(10.1653 -0.127149 0)
(10.0793 0.0756179 0)
(10.2685 0.07656 0)
(9.97356 -0.184257 0)
(10.2842 0.515291 0)
(10.3331 -0.556612 0)
(9.99183 -0.00699972 0)
(10.0017 0.00949445 0)
(10.0305 -0.0229378 0)
(10.0263 0.0280118 0)
(9.9902 -0.0479046 0)
(10.1064 0.0564896 0)
(10.1025 -0.0743257 0)
(10.0081 0.0706824 0)
(10.0666 -0.0692311 0)
(10.0907 0.0452544 0)
(10.1521 -0.028541 0)
(10.1319 0.000965749 0)
(10.0786 0.0266404 0)
(10.1334 -0.0223644 0)
(10.1776 0.00267302 0)
(10.0732 0.0816374 0)
(10.2425 -0.0440525 0)
(9.99861 -0.112574 0)
(10.3223 0.620566 0)
(10.3973 -0.648518 0)
(9.9926 -0.00749867 0)
(10.0006 0.00623279 0)
(10.0331 -0.0229735 0)
(10.0242 0.0216954 0)
(9.99392 -0.0424674 0)
(10.1041 0.0422013 0)
(10.104 -0.0567465 0)
(10.0105 0.0396013 0)
(10.0614 -0.0312665 0)
(10.0965 -0.00453981 0)
(10.1595 0.0158098 0)
(10.1033 -0.011145 0)
(10.1132 -0.0311801 0)
(10.1291 0.0674914 0)
(10.1381 -0.0466047 0)
(10.1302 -0.0137063 0)
(10.209 0.14285 0)
(10.0559 -0.191667 0)
(10.2211 0.362508 0)
(10.3724 -0.306949 0)
(9.99328 -0.00796583 0)
(9.99984 0.0026948 0)
(10.0358 -0.0229006 0)
(10.0226 0.0162832 0)
(9.99831 -0.0403384 0)
(10.1009 0.0361666 0)
(10.1088 -0.0568165 0)
(10.0074 0.0417725 0)
(10.0659 -0.0484229 0)
(10.097 0.0181907 0)
(10.1522 -0.0163356 0)
(10.1274 -0.0140639 0)
(10.0909 0.0301802 0)
(10.1281 -0.0297238 0)
(10.1742 0.0247931 0)
(10.0999 0.0265492 0)
(10.1904 0.0178783 0)
(10.1106 -0.11593 0)
(10.2209 0.426168 0)
(10.3419 -0.362179 0)
(9.99386 -0.00854021 0)
(9.99959 -0.00113742 0)
(10.0384 -0.0223606 0)
(10.022 0.00998759 0)
(10.0018 -0.0358263 0)
(10.1001 0.0251208 0)
(10.1108 -0.0468609 0)
(10.0095 0.0245048 0)
(10.0639 -0.0311884 0)
(10.1014 -0.00589844 0)
(10.1571 0.00181602 0)
(10.1156 -0.0140635 0)
(10.1076 -0.015525 0)
(10.1359 0.0279182 0)
(10.14 -0.00368392 0)
(10.1385 -0.0425959 0)
(10.1851 0.125152 0)
(10.1062 -0.132955 0)
(10.2015 0.242897 0)
(10.3431 -0.167948 0)
(9.99434 -0.00943425 0)
(9.99982 -0.00477938 0)
(10.0411 -0.0222774 0)
(10.0222 0.00446721 0)
(10.0054 -0.0331678 0)
(10.0997 0.0178872 0)
(10.1137 -0.042931 0)
(10.0104 0.0188089 0)
(10.0655 -0.034761 0)
(10.1051 0.00146283 0)
(10.1535 -0.0111182 0)
(10.1284 -0.0200668 0)
(10.0987 0.0210891 0)
(10.1335 -0.0308803 0)
(10.1605 0.0231404 0)
(10.1273 0.000555285 0)
(10.167 0.0372373 0)
(10.1459 -0.0875814 0)
(10.1974 0.250452 0)
(10.3104 -0.158212 0)
(9.99476 -0.0105083 0)
(10.0006 -0.00889118 0)
(10.044 -0.0214075 0)
(10.0232 -0.00233851 0)
(10.009 -0.0307917 0)
(10.1006 0.00731092 0)
(10.1158 -0.0370495 0)
(10.013 0.00673308 0)
(10.0658 -0.0292061 0)
(10.1094 -0.012147 0)
(10.1562 -0.0100233 0)
(10.127 -0.0180758 0)
(10.1057 -0.00706332 0)
(10.1403 0.00444244 0)
(10.1454 0.011146 0)
(10.1434 -0.0352541 0)
(10.1678 0.0789414 0)
(10.1426 -0.0720642 0)
(10.1941 0.145182 0)
(10.3064 -0.0811273 0)
(9.99498 -0.011805 0)
(10.0021 -0.011592 0)
(10.0468 -0.0186633 0)
(10.0251 -0.00663021 0)
(10.0115 -0.025382 0)
(10.1026 0.00180547 0)
(10.1173 -0.0303919 0)
(10.016 0.00174899 0)
(10.0658 -0.0266 0)
(10.1123 -0.010054 0)
(10.1549 -0.0138261 0)
(10.1313 -0.0193357 0)
(10.1037 0.00920992 0)
(10.1379 -0.0193299 0)
(10.1522 0.0129539 0)
(10.1406 -0.00660162 0)
(10.1579 0.02963 0)
(10.1578 -0.048859 0)
(10.1954 0.119767 0)
(10.2884 -0.0505786 0)
(9.99449 -0.017234 0)
(10.0036 -0.0189444 0)
(10.0471 -0.0222928 0)
(10.027 -0.016898 0)
(9.99714 -0.0278061 0)
(10.0985 -0.0100378 0)
(10.0934 -0.0293132 0)
(10.006 -0.0111635 0)
(10.0291 -0.026546 0)
(10.0763 -0.019007 0)
(10.1091 -0.0208593 0)
(10.0666 -0.0205318 0)
(10.0588 -0.00986872 0)
(10.0765 -0.00501887 0)
(10.107 0.00463925 0)
(10.0857 -0.0174308 0)
(10.1256 0.0340289 0)
(10.1069 -0.0261243 0)
(10.1642 0.0593314 0)
(10.2424 -0.0251914 0)
(9.94344 -0.0109101 0)
(9.85269 -0.0129771 0)
(9.81774 -0.0137268 0)
(9.69314 -0.0143368 0)
(9.55326 -0.0168462 0)
(9.56605 -0.010928 0)
(9.47161 -0.0166306 0)
(9.29504 -0.0121642 0)
(9.22521 -0.0171661 0)
(9.18551 -0.0141201 0)
(9.1128 -0.0156907 0)
(8.96849 -0.0145818 0)
(8.8973 -0.00275556 0)
(8.87379 -0.0101147 0)
(8.87733 0.000737018 0)
(8.84189 -0.000567179 0)
(8.87235 0.00240871 0)
(8.863 -0.0102241 0)
(8.91453 0.022769 0)
(8.98933 -0.00619715 0)
(5.29865 -0.21569 0)
(3.37008 4.90236 0)
(10.827 -2.40281 0)
(9.2203 -4.56318 0)
(7.58533 -4.64957 0)
(6.13406 -3.85771 0)
(5.66925 -2.73678 0)
(5.51651 -1.86978 0)
(5.30808 -1.30564 0)
(5.19072 -0.898453 0)
(5.1305 -0.60674 0)
(5.09149 -0.407568 0)
(5.06657 -0.272792 0)
(5.05201 -0.181544 0)
(5.04391 -0.120127 0)
(5.03948 -0.0791094 0)
(5.03703 -0.0518923 0)
(5.03565 -0.0339241 0)
(5.03487 -0.0221091 0)
(5.03441 -0.014365 0)
(5.03413 -0.00930674 0)
(5.03397 -0.00601223 0)
(5.03387 -0.00387201 0)
(5.0338 -0.002487 0)
(5.03376 -0.00159256 0)
(5.03374 -0.00101671 0)
(5.03372 -0.000647423 0)
(5.03371 -0.000410788 0)
(5.03371 -0.000260134 0)
(5.0337 -0.000164009 0)
(5.0337 -0.000103257 0)
(5.0337 -6.47172e-05 0)
(5.0337 -4.04971e-05 0)
(5.0337 -2.52186e-05 0)
(5.0337 -1.56784e-05 0)
(5.0337 -9.75476e-06 0)
(5.0337 -6.04783e-06 0)
(5.0337 -3.7157e-06 0)
(5.0337 -2.3247e-06 0)
(5.0337 -1.37821e-06 0)
(5.0337 -8.52265e-07 0)
(5.0337 -5.34598e-07 0)
(5.0337 -2.74956e-07 0)
(5.0337 -2.5604e-07 0)
(5.0337 -7.99122e-08 0)
(5.0337 -6.82487e-08 0)
(5.0337 -7.65332e-08 0)
(5.0337 -7.19316e-09 0)
(5.0337 1.9199e-08 0)
(5.0337 -9.7173e-08 0)
(5.0337 6.09964e-08 0)
(5.0337 1.269e-08 0)
(5.0337 -1.00165e-07 0)
(5.0337 1.20403e-07 0)
(5.0337 -9.45552e-08 0)
(5.0337 5.01185e-08 0)
(5.0337 5.91558e-09 0)
(5.0337 -2.04187e-08 0)
(5.0337 6.18832e-08 0)
(5.0337 -9.22027e-08 0)
(5.0337 1.09106e-07 0)
(5.0337 -4.18601e-08 0)
(5.0337 -5.43252e-08 0)
(5.0337 1.39155e-07 0)
(5.0337 -1.113e-07 0)
(5.0337 -1.61186e-09 0)
(5.0337 1.22608e-07 0)
(5.0337 -1.3083e-07 0)
(5.0337 4.28029e-08 0)
(5.0337 7.71081e-08 0)
(5.0337 -1.42852e-07 0)
(5.0337 8.55266e-08 0)
(5.0337 8.84152e-08 0)
(5.0337 -1.82693e-07 0)
(5.0337 5.93306e-08 0)
(5.0337 1.68589e-07 0)
(5.0337 -1.62981e-07 0)
(5.0337 -8.63729e-08 0)
(5.0337 2.00912e-07 0)
(5.0337 -7.28432e-09 0)
(5.0337 -1.8907e-07 0)
(5.0337 2.24396e-08 0)
(5.0337 1.08948e-07 0)
(5.0337 -3.2529e-08 0)
(5.0337 -1.1332e-07 0)
(5.0337 -2.12096e-08 0)
(5.0337 6.25192e-08 0)
(5.0337 7.84642e-08 0)
(5.0337 -6.89568e-08 0)
(5.0337 -1.12884e-07 0)
(5.0337 1.80705e-08 0)
(5.0337 1.1276e-07 0)
(5.03369 7.82719e-08 0)
(5.03371 -5.80601e-08 0)
(5.03368 -6.61347e-08 0)
(5.03371 2.67378e-08 0)
(5.03368 9.24959e-09 0)
(5.0337 2.69421e-08 0)
(5.03371 -5.38729e-09 0)
(5.03369 -1.04162e-08 0)
(10.9137 1.27433 0)
(6.49306 3.8787 0)
(11.8634 -2.34915 0)
(10.1335 -4.36475 0)
(8.10814 -4.2614 0)
(6.82112 -3.54446 0)
(5.8305 -2.68107 0)
(5.58291 -1.86091 0)
(5.43307 -1.26478 0)
(5.27593 -0.866859 0)
(5.17662 -0.591287 0)
(5.12076 -0.399628 0)
(5.08715 -0.268122 0)
(5.06626 -0.17876 0)
(5.05349 -0.118511 0)
(5.04581 -0.0781811 0)
(5.04118 -0.0513549 0)
(5.03837 -0.0336076 0)
(5.03664 -0.0219191 0)
(5.03556 -0.0142501 0)
(5.03488 -0.00923598 0)
(5.03445 -0.00596797 0)
(5.03418 -0.00384469 0)
(5.034 -0.0024696 0)
(5.03389 -0.00158158 0)
(5.03382 -0.00100996 0)
(5.03378 -0.000642937 0)
(5.03375 -0.000408128 0)
(5.03373 -0.00025837 0)
(5.03372 -0.000162966 0)
(5.03371 -0.000102531 0)
(5.0337 -6.43349e-05 0)
(5.0337 -4.01688e-05 0)
(5.0337 -2.50722e-05 0)
(5.0337 -1.56445e-05 0)
(5.0337 -9.67914e-06 0)
(5.0337 -5.94111e-06 0)
(5.0337 -3.65574e-06 0)
(5.0337 -2.27204e-06 0)
(5.0337 -1.44045e-06 0)
(5.0337 -9.05294e-07 0)
(5.0337 -5.11904e-07 0)
(5.0337 -3.10148e-07 0)
(5.0337 -2.00205e-07 0)
(5.0337 -1.08803e-07 0)
(5.0337 -1.16128e-07 0)
(5.0337 -1.61953e-08 0)
(5.0337 4.49212e-10 0)
(5.0337 -4.4653e-08 0)
(5.0337 -1.67605e-08 0)
(5.0337 2.60617e-08 0)
(5.0337 -2.37841e-08 0)
(5.0337 2.59119e-09 0)
(5.0337 1.70653e-08 0)
(5.0337 -5.12348e-08 0)
(5.0337 3.70424e-08 0)
(5.0337 1.40334e-08 0)
(5.0337 -1.46439e-08 0)
(5.0337 2.35142e-08 0)
(5.0337 -1.83353e-08 0)
(5.0337 1.71543e-08 0)
(5.0337 2.08423e-08 0)
(5.0337 4.67674e-09 0)
(5.0337 1.38514e-08 0)
(5.0337 -2.27071e-08 0)
(5.0337 -1.48894e-08 0)
(5.0337 2.52248e-08 0)
(5.0337 -5.96781e-09 0)
(5.0337 8.20652e-09 0)
(5.0337 5.74004e-09 0)
(5.0337 -3.99531e-08 0)
(5.0337 5.31428e-09 0)
(5.0337 1.66248e-08 0)
(5.0337 -1.83168e-08 0)
(5.0337 1.89823e-08 0)
(5.0337 3.60834e-08 0)
(5.0337 -1.88686e-08 0)
(5.0337 -1.36654e-08 0)
(5.0337 9.95301e-09 0)
(5.0337 -1.26347e-08 0)
(5.0337 -1.66931e-08 0)
(5.0337 7.31949e-09 0)
(5.0337 -1.13867e-08 0)
(5.0337 -3.49938e-08 0)
(5.0337 -3.23733e-08 0)
(5.0337 5.8254e-09 0)
(5.0337 2.18956e-08 0)
(5.0337 1.97122e-08 0)
(5.0337 -2.03103e-08 0)
(5.0337 -2.45085e-08 0)
(5.03369 2.60042e-09 0)
(5.0337 1.9301e-08 0)
(5.03369 2.46287e-08 0)
(5.03371 4.82508e-09 0)
(5.03368 6.96277e-09 0)
(5.03371 1.56075e-08 0)
(5.03368 4.3712e-09 0)
(5.0337 5.10259e-09 0)
(5.03371 -2.8757e-08 0)
(5.03369 -1.6978e-08 0)
(12.0087 1.26105 0)
(9.92354 3.8607 0)
(12.2722 -2.25659 0)
(10.4919 -4.32586 0)
(8.41694 -4.1184 0)
(7.33067 -3.2422 0)
(6.32661 -2.43846 0)
(5.67562 -1.81308 0)
(5.48799 -1.26106 0)
(5.35863 -0.846538 0)
(5.23675 -0.57094 0)
(5.15523 -0.386907 0)
(5.10779 -0.260979 0)
(5.07977 -0.17467 0)
(5.06261 -0.116098 0)
(5.05193 -0.0767334 0)
(5.04525 -0.0504772 0)
(5.04105 -0.0330694 0)
(5.03839 -0.0215853 0)
(5.0367 -0.0140417 0)
(5.03562 -0.00910445 0)
(5.03493 -0.0058846 0)
(5.03448 -0.00379201 0)
(5.0342 -0.00243595 0)
(5.03402 -0.00156026 0)
(5.0339 -0.000996465 0)
(5.03383 -0.000634354 0)
(5.03378 -0.00040269 0)
(5.03375 -0.000254786 0)
(5.03373 -0.000161059 0)
(5.03372 -0.000101118 0)
(5.03371 -6.32514e-05 0)
(5.0337 -3.97975e-05 0)
(5.0337 -2.48587e-05 0)
(5.0337 -1.52259e-05 0)
(5.0337 -9.38479e-06 0)
(5.0337 -5.92106e-06 0)
(5.0337 -3.5484e-06 0)
(5.0337 -2.03079e-06 0)
(5.0337 -1.4387e-06 0)
(5.0337 -1.05269e-06 0)
(5.0337 -5.31245e-07 0)
(5.0337 -2.07513e-07 0)
(5.0337 -1.12277e-07 0)
(5.0337 -1.77778e-07 0)
(5.0337 -1.45908e-07 0)
(5.0337 9.19461e-08 0)
(5.0337 -1.09509e-09 0)
(5.0337 -2.43253e-07 0)
(5.0337 -8.1034e-08 0)
(5.0337 5.54611e-08 0)
(5.0337 7.46577e-08 0)
(5.0337 5.88799e-08 0)
(5.0337 -1.09892e-07 0)
(5.0337 -1.19955e-07 0)
(5.0337 7.55968e-08 0)
(5.0337 1.35389e-07 0)
(5.0337 -2.45455e-08 0)
(5.0337 -5.74393e-08 0)
(5.0337 -5.23504e-08 0)
(5.0337 3.4131e-08 0)
(5.0337 1.89842e-07 0)
(5.0337 9.8476e-08 0)
(5.0337 -5.94944e-08 0)
(5.0337 -1.1496e-07 0)
(5.0337 -9.81557e-08 0)
(5.0337 3.81971e-08 0)
(5.0337 1.20619e-07 0)
(5.0337 4.18224e-08 0)
(5.0337 -5.34486e-08 0)
(5.0337 -1.10965e-07 0)
(5.0337 -1.03682e-07 0)
(5.0337 1.15853e-08 0)
(5.0337 8.58325e-08 0)
(5.0337 7.06188e-08 0)
(5.0337 6.2516e-08 0)
(5.0337 2.92725e-08 0)
(5.0337 -6.16657e-08 0)
(5.0337 -8.23982e-08 0)
(5.0337 -1.37263e-08 0)
(5.0337 5.2603e-08 0)
(5.0337 3.83659e-08 0)
(5.0337 -3.81689e-08 0)
(5.0337 -9.24202e-08 0)
(5.0337 -7.73598e-08 0)
(5.0337 -1.55453e-08 0)
(5.0337 4.0905e-08 0)
(5.0337 5.767e-08 0)
(5.0337 3.33948e-08 0)
(5.0337 2.77083e-09 0)
(5.0337 -8.89744e-09 0)
(5.0337 5.97365e-09 0)
(5.03369 3.146e-09 0)
(5.03371 1.28927e-09 0)
(5.03368 -4.3736e-08 0)
(5.03371 -4.32738e-08 0)
(5.03368 5.62425e-09 0)
(5.0337 4.04065e-08 0)
(5.03371 6.61812e-08 0)
(5.03369 2.59302e-08 0)
(11.1619 1.50866 0)
(10.9156 3.9923 0)
(12.1743 -1.84066 0)
(10.5362 -3.86992 0)
(8.57818 -3.84522 0)
(7.20608 -3.20741 0)
(6.70492 -2.28289 0)
(6.00503 -1.62617 0)
(5.55394 -1.18846 0)
(5.38043 -0.827914 0)
(5.27528 -0.560056 0)
(5.19111 -0.377357 0)
(5.13218 -0.253906 0)
(5.09496 -0.170018 0)
(5.07213 -0.113149 0)
(5.05806 -0.0748738 0)
(5.04925 -0.0493024 0)
(5.04366 -0.032326 0)
(5.0401 -0.0211141 0)
(5.03781 -0.013742 0)
(5.03634 -0.00891344 0)
(5.0354 -0.00576294 0)
(5.03479 -0.00371425 0)
(5.03439 -0.00238634 0)
(5.03414 -0.00152875 0)
(5.03398 -0.000976295 0)
(5.03388 -0.000621576 0)
(5.03381 -0.000394543 0)
(5.03377 -0.000249866 0)
(5.03374 -0.000157624 0)
(5.03373 -9.90378e-05 0)
(5.03371 -6.21778e-05 0)
(5.03371 -3.8947e-05 0)
(5.0337 -2.41612e-05 0)
(5.0337 -1.5044e-05 0)
(5.0337 -9.38863e-06 0)
(5.0337 -5.77372e-06 0)
(5.0337 -3.54461e-06 0)
(5.0337 -2.22376e-06 0)
(5.0337 -1.47242e-06 0)
(5.0337 -9.03132e-07 0)
(5.0337 -4.62725e-07 0)
(5.0337 -2.90444e-07 0)
(5.0337 -1.90949e-07 0)
(5.0337 -1.24484e-07 0)
(5.0337 -1.31648e-07 0)
(5.0337 -1.08097e-09 0)
(5.0337 1.51866e-09 0)
(5.0337 -1.08155e-07 0)
(5.0337 -7.85235e-09 0)
(5.0337 4.23746e-08 0)
(5.0337 -1.46001e-08 0)
(5.0337 6.34108e-09 0)
(5.0337 -9.78678e-11 0)
(5.0337 -4.86723e-08 0)
(5.0337 4.20092e-08 0)
(5.0337 4.18295e-08 0)
(5.0337 -2.71702e-08 0)
(5.0337 1.06667e-08 0)
(5.0337 2.42411e-09 0)
(5.0337 1.37477e-08 0)
(5.0337 4.75394e-08 0)
(5.0337 2.18143e-08 0)
(5.0337 -7.75269e-09 0)
(5.0337 -3.75376e-08 0)
(5.0337 -1.7978e-08 0)
(5.0337 2.12934e-08 0)
(5.0337 1.76568e-08 0)
(5.0337 4.89535e-09 0)
(5.0337 -1.34944e-08 0)
(5.0337 -4.05865e-08 0)
(5.0337 -1.62574e-08 0)
(5.0337 1.78255e-08 0)
(5.0337 1.01823e-08 0)
(5.0337 2.43307e-08 0)
(5.0337 3.47994e-08 0)
(5.0337 -2.29752e-09 0)
(5.0337 -1.89815e-08 0)
(5.0337 -1.6977e-08 0)
(5.0337 -9.8772e-09 0)
(5.0337 4.50487e-09 0)
(5.0337 1.47809e-09 0)
(5.0337 -2.69083e-08 0)
(5.0337 -5.33366e-08 0)
(5.0337 -3.13156e-08 0)
(5.0337 1.34545e-08 0)
(5.0337 4.12119e-08 0)
(5.0337 1.99599e-08 0)
(5.0337 -1.65545e-08 0)
(5.0337 -2.49211e-08 0)
(5.0337 -7.81532e-09 0)
(5.0337 1.75594e-08 0)
(5.03369 1.37065e-08 0)
(5.03371 2.01322e-08 0)
(5.03368 8.39886e-09 0)
(5.03371 1.05639e-09 0)
(5.03368 1.57157e-08 0)
(5.0337 6.54131e-09 0)
(5.03371 -1.67478e-08 0)
(5.03369 -1.87486e-08 0)
(9.44259 1.40152 0)
(10.604 3.71582 0)
(12.5178 -1.86428 0)
(10.1161 -3.83476 0)
(7.99416 -3.40796 0)
(6.61935 -2.94681 0)
(6.26015 -2.36507 0)
(6.19538 -1.61443 0)
(5.81532 -1.08081 0)
(5.46964 -0.744189 0)
(5.28863 -0.515211 0)
(5.19836 -0.354562 0)
(5.14342 -0.241566 0)
(5.10593 -0.162965 0)
(5.08054 -0.108995 0)
(5.06388 -0.0723693 0)
(5.05313 -0.0477603 0)
(5.04622 -0.0313604 0)
(5.04177 -0.0205026 0)
(5.0389 -0.0133521 0)
(5.03705 -0.00866429 0)
(5.03585 -0.00560335 0)
(5.03508 -0.00361216 0)
(5.03458 -0.00232117 0)
(5.03426 -0.00148703 0)
(5.03406 -0.000949768 0)
(5.03393 -0.000604709 0)
(5.03384 -0.000383907 0)
(5.03379 -0.000242979 0)
(5.03376 -0.000153382 0)
(5.03373 -9.64804e-05 0)
(5.03372 -6.03857e-05 0)
(5.03371 -3.78326e-05 0)
(5.03371 -2.36866e-05 0)
(5.0337 -1.46547e-05 0)
(5.0337 -9.00181e-06 0)
(5.0337 -5.62354e-06 0)
(5.0337 -3.46594e-06 0)
(5.0337 -2.00329e-06 0)
(5.0337 -1.34359e-06 0)
(5.0337 -9.52448e-07 0)
(5.0337 -4.89066e-07 0)
(5.0337 -2.4445e-07 0)
(5.0337 -1.1737e-07 0)
(5.0337 -1.33419e-07 0)
(5.0337 -1.45098e-07 0)
(5.0337 7.37759e-08 0)
(5.0337 8.88971e-09 0)
(5.0337 -2.21922e-07 0)
(5.0337 -5.97794e-08 0)
(5.0337 5.89734e-08 0)
(5.0337 3.04353e-08 0)
(5.0337 4.51581e-08 0)
(5.0337 -7.42913e-08 0)
(5.0337 -9.86282e-08 0)
(5.0337 6.05417e-08 0)
(5.0337 1.02249e-07 0)
(5.0337 -1.85575e-08 0)
(5.0337 -4.62036e-08 0)
(5.0337 -2.56066e-08 0)
(5.0337 2.22929e-08 0)
(5.0337 1.41076e-07 0)
(5.0337 9.22948e-08 0)
(5.0337 -4.51447e-08 0)
(5.0337 -8.45955e-08 0)
(5.0337 -7.29884e-08 0)
(5.0337 2.01746e-08 0)
(5.0337 9.16107e-08 0)
(5.0337 2.86129e-08 0)
(5.0337 -4.43433e-08 0)
(5.0337 -8.13712e-08 0)
(5.0337 -8.13059e-08 0)
(5.0337 -1.54648e-09 0)
(5.0337 6.63149e-08 0)
(5.0337 5.39938e-08 0)
(5.0337 5.47171e-08 0)
(5.0337 3.70232e-08 0)
(5.0337 -4.38856e-08 0)
(5.0337 -7.14289e-08 0)
(5.0337 -1.25144e-08 0)
(5.0337 4.07724e-08 0)
(5.0337 2.81575e-08 0)
(5.0337 -3.80223e-08 0)
(5.0337 -7.96787e-08 0)
(5.0337 -5.99784e-08 0)
(5.0337 -6.37464e-09 0)
(5.0337 3.62482e-08 0)
(5.0337 4.38347e-08 0)
(5.0337 2.07005e-08 0)
(5.0337 -2.07904e-09 0)
(5.0337 -1.08449e-08 0)
(5.0337 1.32158e-08 0)
(5.03369 9.70052e-09 0)
(5.03371 8.76269e-09 0)
(5.03368 -3.19308e-08 0)
(5.03371 -4.42686e-08 0)
(5.03368 9.16089e-09 0)
(5.0337 2.24902e-08 0)
(5.03371 3.82239e-08 0)
(5.03369 2.01494e-08 0)
(7.1261 1.62732 0)
(9.54036 3.16224 0)
(12.8643 -1.41608 0)
(11.1041 -3.29827 0)
(8.64895 -3.14144 0)
(7.35336 -2.48513 0)
(6.14799 -2.07235 0)
(5.75803 -1.64804 0)
(5.79042 -1.16419 0)
(5.65163 -0.779006 0)
(5.42587 -0.518858 0)
(5.26245 -0.349063 0)
(5.17051 -0.235172 0)
(5.11928 -0.157691 0)
(5.08862 -0.105126 0)
(5.06927 -0.0697086 0)
(5.05676 -0.0459979 0)
(5.04865 -0.0302148 0)
(5.04337 -0.0197637 0)
(5.03995 -0.0128769 0)
(5.03773 -0.00835885 0)
(5.0363 -0.00540723 0)
(5.03537 -0.00348651 0)
(5.03477 -0.00224068 0)
(5.03438 -0.00143557 0)
(5.03413 -0.000917003 0)
(5.03397 -0.00058386 0)
(5.03387 -0.000370635 0)
(5.03381 -0.000234645 0)
(5.03377 -0.000148147 0)
(5.03374 -9.30726e-05 0)
(5.03372 -5.83085e-05 0)
(5.03371 -3.6641e-05 0)
(5.03371 -2.28091e-05 0)
(5.0337 -1.40764e-05 0)
(5.0337 -8.73947e-06 0)
(5.0337 -5.4135e-06 0)
(5.0337 -3.32197e-06 0)
(5.0337 -2.0412e-06 0)
(5.0337 -1.36389e-06 0)
(5.0337 -8.46222e-07 0)
(5.0337 -4.0592e-07 0)
(5.0337 -2.74328e-07 0)
(5.0337 -1.85133e-07 0)
(5.0337 -1.12865e-07 0)
(5.0337 -1.37806e-07 0)
(5.0337 3.59263e-09 0)
(5.0337 7.66296e-09 0)
(5.0337 -1.40903e-07 0)
(5.0337 -9.96699e-09 0)
(5.0337 6.46062e-08 0)
(5.0337 -2.44527e-08 0)
(5.0337 1.59372e-10 0)
(5.0337 -2.18721e-09 0)
(5.0337 -4.51817e-08 0)
(5.0337 4.01829e-08 0)
(5.0337 5.23166e-08 0)
(5.0337 -3.22236e-08 0)
(5.0337 3.24934e-09 0)
(5.0337 1.62343e-08 0)
(5.0337 1.71462e-08 0)
(5.0337 5.32066e-08 0)
(5.0337 2.56683e-08 0)
(5.0337 -1.70804e-08 0)
(5.0337 -4.24887e-08 0)
(5.0337 -2.02816e-08 0)
(5.0337 2.48261e-08 0)
(5.0337 2.2892e-08 0)
(5.0337 -1.74638e-09 0)
(5.0337 -2.05507e-08 0)
(5.0337 -3.88136e-08 0)
(5.0337 -2.27757e-08 0)
(5.0337 2.0086e-08 0)
(5.0337 1.97277e-08 0)
(5.0337 2.68131e-08 0)
(5.0337 3.59099e-08 0)
(5.0337 4.86351e-09 0)
(5.0337 -2.49569e-08 0)
(5.0337 -2.41441e-08 0)
(5.0337 -7.29207e-09 0)
(5.0337 8.65722e-09 0)
(5.0337 -3.41829e-09 0)
(5.0337 -3.53458e-08 0)
(5.0337 -5.85919e-08 0)
(5.0337 -3.14172e-08 0)
(5.0337 2.38858e-08 0)
(5.0337 5.01156e-08 0)
(5.0337 2.53235e-08 0)
(5.0337 -2.0873e-08 0)
(5.0337 -3.2658e-08 0)
(5.0337 -1.33436e-08 0)
(5.0337 2.02098e-08 0)
(5.03369 1.08732e-08 0)
(5.03371 2.21542e-08 0)
(5.03368 7.48976e-09 0)
(5.03371 -6.91757e-09 0)
(5.03368 2.83268e-08 0)
(5.0337 8.70161e-09 0)
(5.03371 -1.99906e-08 0)
(5.03369 -2.08029e-08 0)
(6.92009 1.45771 0)
(10.4249 2.49596 0)
(12.8344 -1.52544 0)
(11.0789 -3.04089 0)
(8.8268 -3.05459 0)
(8.10495 -2.64798 0)
(7.56858 -1.87865 0)
(6.26051 -1.27272 0)
(5.49808 -0.885694 0)
(5.34575 -0.623125 0)
(5.3149 -0.438524 0)
(5.25508 -0.308449 0)
(5.18719 -0.214695 0)
(5.13396 -0.147079 0)
(5.09814 -0.0992804 0)
(5.07515 -0.06626 0)
(5.06048 -0.0438628 0)
(5.05103 -0.0288599 0)
(5.04492 -0.0188949 0)
(5.04096 -0.0123179 0)
(5.03839 -0.00799909 0)
(5.03672 -0.00517591 0)
(5.03564 -0.00333799 0)
(5.03494 -0.00214552 0)
(5.0345 -0.00137471 0)
(5.03421 -0.000878168 0)
(5.03402 -0.000559158 0)
(5.0339 -0.000354991 0)
(5.03383 -0.000224741 0)
(5.03378 -0.000141834 0)
(5.03375 -8.91398e-05 0)
(5.03373 -5.58981e-05 0)
(5.03372 -3.50626e-05 0)
(5.03371 -2.18184e-05 0)
(5.0337 -1.35125e-05 0)
(5.0337 -8.36275e-06 0)
(5.0337 -5.19249e-06 0)
(5.0337 -3.25252e-06 0)
(5.0337 -1.92448e-06 0)
(5.0337 -1.23648e-06 0)
(5.0337 -8.22916e-07 0)
(5.0337 -4.1893e-07 0)
(5.0337 -2.64019e-07 0)
(5.0337 -1.37228e-07 0)
(5.0337 -9.50675e-08 0)
(5.0337 -1.43056e-07 0)
(5.0337 4.58346e-08 0)
(5.0337 2.72513e-08 0)
(5.0337 -1.95539e-07 0)
(5.0337 -5.17625e-08 0)
(5.0337 6.49223e-08 0)
(5.0337 3.25211e-09 0)
(5.0337 2.70394e-08 0)
(5.0337 -4.06574e-08 0)
(5.0337 -8.17491e-08 0)
(5.0337 4.47665e-08 0)
(5.0337 7.97027e-08 0)
(5.0337 -1.60994e-08 0)
(5.0337 -3.68068e-08 0)
(5.0337 -9.88207e-09 0)
(5.0337 1.64451e-08 0)
(5.0337 9.97784e-08 0)
(5.0337 8.04793e-08 0)
(5.0337 -2.91227e-08 0)
(5.0337 -6.37936e-08 0)
(5.0337 -5.10811e-08 0)
(5.0337 1.07538e-08 0)
(5.0337 6.35702e-08 0)
(5.0337 1.87759e-08 0)
(5.0337 -3.53916e-08 0)
(5.0337 -5.89402e-08 0)
(5.0337 -6.054e-08 0)
(5.0337 -1.05617e-08 0)
(5.0337 4.72425e-08 0)
(5.0337 4.30469e-08 0)
(5.0337 4.74874e-08 0)
(5.0337 3.66315e-08 0)
(5.0337 -3.03768e-08 0)
(5.0337 -5.8807e-08 0)
(5.0337 -1.09965e-08 0)
(5.0337 3.02789e-08 0)
(5.0337 1.95762e-08 0)
(5.0337 -3.58063e-08 0)
(5.0337 -6.82354e-08 0)
(5.0337 -4.4922e-08 0)
(5.0337 1.765e-09 0)
(5.0337 3.2577e-08 0)
(5.0337 3.18346e-08 0)
(5.0337 9.57973e-09 0)
(5.0337 -5.49938e-09 0)
(5.0337 -1.00071e-08 0)
(5.0337 2.03426e-08 0)
(5.03369 1.1449e-08 0)
(5.03371 1.41081e-08 0)
(5.03368 -2.2403e-08 0)
(5.03371 -4.42962e-08 0)
(5.03368 1.40942e-08 0)
(5.0337 7.79803e-09 0)
(5.03371 1.86691e-08 0)
(5.03369 1.44454e-08 0)
(7.52309 1.35043 0)
(11.066 1.92897 0)
(12.3255 -1.33573 0)
(11.3862 -2.65013 0)
(9.55128 -2.39781 0)
(7.26791 -2.27407 0)
(7.04247 -2.08579 0)
(7.30076 -1.60597 0)
(6.63701 -1.09902 0)
(5.85181 -0.727355 0)
(5.4382 -0.4809 0)
(5.26659 -0.317826 0)
(5.18591 -0.211262 0)
(5.13664 -0.141111 0)
(5.10274 -0.0942618 0)
(5.07937 -0.0627227 0)
(5.06363 -0.0415155 0)
(5.05322 -0.0273328 0)
(5.04638 -0.0179069 0)
(5.04192 -0.0116797 0)
(5.03901 -0.00758755 0)
(5.03713 -0.00491089 0)
(5.0359 -0.00316764 0)
(5.03511 -0.00203632 0)
(5.0346 -0.00130481 0)
(5.03427 -0.000833548 0)
(5.03406 -0.000530804 0)
(5.03393 -0.000336998 0)
(5.03384 -0.000213315 0)
(5.03379 -0.000134623 0)
(5.03376 -8.46355e-05 0)
(5.03373 -5.30619e-05 0)
(5.03372 -3.32863e-05 0)
(5.03371 -2.07193e-05 0)
(5.03371 -1.28095e-05 0)
(5.0337 -7.95066e-06 0)
(5.0337 -4.95845e-06 0)
(5.0337 -3.07077e-06 0)
(5.0337 -1.8344e-06 0)
(5.0337 -1.1866e-06 0)
(5.0337 -7.52799e-07 0)
(5.0337 -3.60052e-07 0)
(5.0337 -2.62738e-07 0)
(5.0337 -1.76463e-07 0)
(5.0337 -8.63818e-08 0)
(5.0337 -1.32795e-07 0)
(5.0337 1.42834e-09 0)
(5.0337 1.89775e-08 0)
(5.0337 -1.57176e-07 0)
(5.0337 -1.85126e-08 0)
(5.0337 8.21401e-08 0)
(5.0337 -2.52722e-08 0)
(5.0337 -5.78065e-09 0)
(5.0337 -5.03231e-10 0)
(5.0337 -4.10005e-08 0)
(5.0337 3.49827e-08 0)
(5.0337 5.7301e-08 0)
(5.0337 -2.90481e-08 0)
(5.0337 -5.17962e-09 0)
(5.0337 2.55624e-08 0)
(5.0337 2.17977e-08 0)
(5.0337 5.40435e-08 0)
(5.0337 2.96736e-08 0)
(5.0337 -2.25714e-08 0)
(5.0337 -4.40514e-08 0)
(5.0337 -2.12112e-08 0)
(5.0337 2.53092e-08 0)
(5.0337 2.64322e-08 0)
(5.0337 -8.47805e-09 0)
(5.0337 -2.46408e-08 0)
(5.0337 -3.37692e-08 0)
(5.0337 -2.61735e-08 0)
(5.0337 1.5708e-08 0)
(5.0337 2.65135e-08 0)
(5.0337 2.78653e-08 0)
(5.0337 3.58265e-08 0)
(5.0337 1.10292e-08 0)
(5.0337 -2.71113e-08 0)
(5.0337 -2.92583e-08 0)
(5.0337 -4.71057e-09 0)
(5.0337 1.24656e-08 0)
(5.0337 -6.86237e-09 0)
(5.0337 -4.07298e-08 0)
(5.0337 -5.86868e-08 0)
(5.0337 -2.76629e-08 0)
(5.0337 2.66621e-08 0)
(5.0337 5.09826e-08 0)
(5.0337 2.44356e-08 0)
(5.0337 -2.05781e-08 0)
(5.0337 -3.25444e-08 0)
(5.0337 -1.66475e-08 0)
(5.0337 2.28722e-08 0)
(5.03369 6.7739e-09 0)
(5.03371 2.40212e-08 0)
(5.03368 5.66185e-09 0)
(5.03371 -1.64773e-08 0)
(5.03368 4.33079e-08 0)
(5.0337 6.51618e-09 0)
(5.03371 -2.88615e-08 0)
(5.03369 -2.0608e-08 0)
(9.11632 1.0424 0)
(11.4852 1.42986 0)
(12.2604 -1.26726 0)
(10.2287 -2.69634 0)
(8.73549 -2.47527 0)
(7.27113 -1.80854 0)
(5.56709 -1.37195 0)
(5.07876 -0.957703 0)
(5.41801 -0.62588 0)
(5.61234 -0.448697 0)
(5.52304 -0.348837 0)
(5.35924 -0.261833 0)
(5.23507 -0.18731 0)
(5.15883 -0.129574 0)
(5.11317 -0.0877653 0)
(5.08496 -0.0586826 0)
(5.06699 -0.0389096 0)
(5.05535 -0.0256395 0)
(5.04777 -0.0168073 0)
(5.04282 -0.0109674 0)
(5.0396 -0.00712716 0)
(5.03751 -0.004614 0)
(5.03615 -0.00297662 0)
(5.03527 -0.00191378 0)
(5.0347 -0.00122635 0)
(5.03434 -0.000783452 0)
(5.03411 -0.000498955 0)
(5.03396 -0.000316776 0)
(5.03386 -0.00020049 0)
(5.0338 -0.000126529 0)
(5.03376 -7.95565e-05 0)
(5.03374 -4.98905e-05 0)
(5.03372 -3.1299e-05 0)
(5.03371 -1.94571e-05 0)
(5.03371 -1.20297e-05 0)
(5.0337 -7.49409e-06 0)
(5.0337 -4.66435e-06 0)
(5.0337 -2.90995e-06 0)
(5.0337 -1.72862e-06 0)
(5.0337 -1.0801e-06 0)
(5.0337 -6.91535e-07 0)
(5.0337 -3.42631e-07 0)
(5.0337 -2.63649e-07 0)
(5.0337 -1.57527e-07 0)
(5.0337 -6.35572e-08 0)
(5.0337 -1.34229e-07 0)
(5.0337 1.31903e-08 0)
(5.0337 4.22715e-08 0)
(5.0337 -1.66741e-07 0)
(5.0337 -5.00488e-08 0)
(5.0337 7.21345e-08 0)
(5.0337 -1.64933e-08 0)
(5.0337 9.10204e-09 0)
(5.0337 -1.36517e-08 0)
(5.0337 -6.51884e-08 0)
(5.0337 2.82266e-08 0)
(5.0337 6.42402e-08 0)
(5.0337 -1.40844e-08 0)
(5.0337 -3.04795e-08 0)
(5.0337 4.31143e-10 0)
(5.0337 1.40212e-08 0)
(5.0337 6.89551e-08 0)
(5.0337 6.4183e-08 0)
(5.0337 -1.67579e-08 0)
(5.0337 -4.8494e-08 0)
(5.0337 -3.52087e-08 0)
(5.0337 7.6497e-09 0)
(5.0337 4.1129e-08 0)
(5.0337 1.09499e-08 0)
(5.0337 -2.63555e-08 0)