/*--------------------------------*- C++ -*----------------------------------*\
| =========                 |                                                 |
| \\      /  F ield         | OpenFOAM: The Open Source CFD Toolbox           |
|  \\    /   O peration     | Version:  2.4.0                                 |
|   \\  /    A nd           | Web:      www.OpenFOAM.org                      |
|    \\/     M anipulation  |                                                 |
\*---------------------------------------------------------------------------*/
FoamFile
{
    version     2.0;
    format      ascii;
    class       volScalarField;
    location    "1.53";
    object      k;
}
// * * * * * * * * * * * * * * * * * * * * * * * * * * * * * * * * * * * * * //

dimensions      [0 2 -2 0 0 0 0];

internalField   nonuniform List<scalar> 
8800
(
8.12311
10.2588
8.79675
6.81574
5.70759
4.97277
4.5157
4.15394
3.90268
3.67191
3.53248
3.39649
3.27817
3.18904
3.09862
3.00424
2.94876
2.82833
2.89532
2.61836
1.41393
4.34519
5.32031
5.28825
5.12853
4.81282
4.5602
4.30053
4.10413
3.89351
3.75388
3.61734
3.49003
3.4072
3.3176
3.22793
3.17328
3.08649
3.02312
3.03281
0.0852017
0.728788
1.56241
1.94681
2.27087
2.44406
2.57282
2.60157
2.62079
2.61068
2.57851
2.54772
2.51778
2.48599
2.44734
2.42165
2.3913
2.36732
2.29204
2.3014
0.00339739
0.0695756
0.25671
0.423078
0.578771
0.702532
0.844312
0.927575
1.02082
1.11123
1.156
1.20319
1.27401
1.30333
1.34126
1.36709
1.40357
1.41879
1.41554
1.4054
0.000124127
0.00492528
0.0218715
0.0539557
0.0875014
0.116029
0.172301
0.203279
0.239059
0.292665
0.323897
0.344217
0.397992
0.422756
0.470535
0.492841
0.541563
0.55859
0.593738
0.597973
2.49197e-05
0.000308262
0.00143199
0.00441729
0.00762228
0.0108226
0.0193244
0.0264637
0.0318767
0.0451315
0.0545933
0.0596947
0.0734277
0.0816622
0.0960092
0.109362
0.122382
0.137305
0.146828
0.157954
2.16711e-05
4.33096e-05
0.000117011
0.000339408
0.000515458
0.000737412
0.00133145
0.00208262
0.00255288
0.00412952
0.00503595
0.006036
0.00717179
0.00944564
0.0109014
0.0145815
0.0163687
0.0206397
0.0224574
0.0272019
2.08891e-05
3.3443e-05
5.07637e-05
8.0321e-05
8.78088e-05
0.000104932
0.000123861
0.000171294
0.000201928
0.000328608
0.000364336
0.000448885
0.000522706
0.000728835
0.000830117
0.00125264
0.00147707
0.0022188
0.00253546
0.00363329
2.076e-05
2.95564e-05
5.48771e-05
6.17346e-05
6.18493e-05
7.60753e-05
8.50282e-05
8.48204e-05
8.10094e-05
8.38866e-05
8.27886e-05
8.48932e-05
9.85316e-05
0.000129829
0.000140893
0.000186376
0.000258029
0.000392951
0.000429449
0.000499685
2.06759e-05
2.67928e-05
4.13812e-05
6.42317e-05
6.318e-05
6.08858e-05
6.70033e-05
8.16816e-05
8.39696e-05
8.4973e-05
8.25429e-05
7.80298e-05
7.93205e-05
8.35744e-05
8.32274e-05
8.66188e-05
0.000104449
0.000155806
0.00016332
0.000169099
2.06124e-05
2.67204e-05
4.30766e-05
7.05276e-05
6.88435e-05
6.11512e-05
6.0843e-05
7.11512e-05
8.38755e-05
8.66717e-05
8.42121e-05
8.24305e-05
8.54169e-05
8.54698e-05
8.55964e-05
9.11983e-05
0.000122112
0.000140832
0.000144742
0.000144742
2.07671e-05
3.15427e-05
4.51939e-05
4.81148e-05
5.90625e-05
8.27676e-05
9.1332e-05
9.14497e-05
8.94726e-05
8.75731e-05
8.84295e-05
0.000105556
0.000117135
0.000117568
0.000117677
0.000132724
0.000169572
0.000201808
0.000220543
0.000239782
2.10627e-05
3.21329e-05
4.31783e-05
6.28668e-05
0.000108084
0.000134582
0.000148702
0.000187061
0.000218361
0.000289212
0.000357647
0.000491328
0.000530843
0.000604219
0.000699108
0.00100156
0.00124347
0.00177155
0.00225954
0.00302841
2.16525e-05
4.30958e-05
0.000119486
0.000315577
0.000485223
0.000902816
0.00128632
0.0022352
0.00284732
0.0042108
0.00488903
0.00647715
0.00726294
0.00920915
0.0106675
0.0143839
0.0165669
0.0216017
0.0246789
0.0324697
2.50122e-05
0.000308955
0.00151232
0.00396407
0.00674978
0.0134777
0.0181318
0.0282724
0.033811
0.0458957
0.0516344
0.0646489
0.0708463
0.0852543
0.0935691
0.113743
0.123872
0.147553
0.160991
0.197236
0.000123473
0.0049213
0.0243594
0.0485133
0.0859396
0.131434
0.159881
0.212513
0.239734
0.291649
0.314542
0.362047
0.38313
0.431019
0.455738
0.511988
0.536306
0.595788
0.625404
0.700282
0.00336665
0.0697143
0.259959
0.409427
0.5915
0.705371
0.835299
0.935098
1.02297
1.09927
1.15596
1.21595
1.25247
1.30984
1.33646
1.38897
1.40893
1.46162
1.48291
1.53277
0.0846094
0.729613
1.5638
1.93231
2.29047
2.42992
2.58423
2.59714
2.6262
2.59936
2.58682
2.53815
2.52283
2.47485
2.46252
2.42213
2.41129
2.38328
2.37026
2.34241
1.40704
4.34785
5.31872
5.28627
5.13347
4.79865
4.5904
4.26775
4.13204
3.8658
3.77477
3.57482
3.51889
3.36665
3.3288
3.19838
3.16693
3.04471
3.00218
2.89723
8.12245
10.2602
8.79212
6.81855
5.70998
4.95934
4.53753
4.12342
3.92662
3.6415
3.55229
3.34653
3.30231
3.13615
3.10257
2.93383
2.89661
2.71413
2.64652
2.42424
1.81269
1.38122
1.08977
0.930403
0.781815
0.720588
0.643544
0.623104
0.581549
0.571728
0.546292
0.540335
0.521437
0.516326
0.499662
0.494829
0.479312
0.475616
0.463042
0.461402
0.454987
0.456517
0.456085
0.459814
0.462687
0.472155
0.479545
0.486355
0.486782
0.48646
0.485201
0.484788
0.480746
0.478261
0.483849
0.520157
0.584752
0.618247
0.617149
0.571987
0.400268
0.289047
0.256275
0.254494
0.258526
0.272496
0.29036
0.300296
0.305525
0.308168
0.309805
0.309679
0.308531
0.305041
0.29849
0.289398
0.275486
0.265891
0.263193
0.260831
0.260601
0.271357
0.278455
0.28234
0.287357
0.285715
0.280563
0.272033
0.248826
0.224601
0.188404
0.160619
0.134772
0.109596
0.0860306
0.0654932
0.0505599
0.0397258
0.0317585
0.0255606
0.0208629
0.0166853
0.0137224
0.0110249
0.0087721
0.00731063
0.00601734
0.00530359
0.00495462
0.00463494
0.00467263
0.00496719
0.00526706
0.00624607
0.0071207
0.00793663
0.0101407
0.0116299
0.015265
0.0211658
0.0226434
0.0235467
0.0262384
0.0343644
0.0580589
0.123243
0.247227
0.300435
0.30866
0.297647
0.257862
0.168761
0.109367
0.0760585
0.059662
0.0494144
0.042411
0.0373831
0.0348961
0.0347133
0.0359724
0.0366531
0.0376113
0.0398861
0.0451913
0.066527
0.0904229
0.104115
0.105227
0.097545
0.0773018
0.0613815
0.0508672
0.0418995
0.0381881
0.0374905
0.0379748
0.0411183
0.0531385
0.0939425
0.149302
0.174023
0.173665
0.166444
0.14756
0.132043
0.12041
0.108092
0.0978577
0.0880367
0.082109
0.0765639
0.0722642
0.0677041
0.0646247
0.0632327
0.0645898
0.0658348
0.0666764
0.0698035
0.0776175
0.107015
0.142827
0.159194
0.164006
0.16009
0.122756
0.073056
0.0473706
0.0369025
0.0339436
0.0336218
0.0343057
0.0356115
0.0376248
0.0479931
0.0556405
0.0584624
0.0596412
0.0638823
0.0671542
0.0752165
0.0733398
0.075547
0.0799208
0.0791094
0.0810489
0.0774361
0.0791631
0.0734897
0.0661619
0.0517483
0.0476769
0.0492621
0.0556574
0.0720348
0.0824128
0.0911347
0.179209
0.740894
2.58202
2.13381
1.76578
1.55206
1.34149
1.22927
1.09565
1.03632
0.948189
0.914564
0.851948
0.830062
0.785479
0.770322
0.737967
0.726804
0.701358
0.691185
0.669051
0.659455
0.638845
0.628749
0.610659
0.598334
0.585578
0.569749
0.553329
0.536993
0.518637
0.501443
0.486613
0.471917
0.448017
0.427811
0.419905
0.419968
0.42626
0.450828
0.536821
0.621487
0.629753
0.596694
0.452291
0.326305
0.279284
0.261271
0.258892
0.260446
0.263504
0.270846
0.27209
0.270201
0.266441
0.259225
0.245981
0.23741
0.235245
0.234964
0.236063
0.245
0.25671
0.268467
0.275352
0.275079
0.271906
0.263586
0.240355
0.218846
0.178314
0.142132
0.111934
0.083814
0.061417
0.0457007
0.0338772
0.0258902
0.0200437
0.015848
0.0131043
0.0111347
0.00954381
0.00817728
0.00703107
0.00598293
0.00506097
0.004537
0.00423962
0.00402417
0.00404961
0.00417519
0.00441947
0.00509759
0.00573593
0.00691244
0.00841564
0.00989062
0.011899
0.013091
0.0147024
0.022506
0.0261068
0.0258573
0.0265041
0.0286162
0.0354953
0.0566897
0.126027
0.257245
0.3063
0.311008
0.299347
0.252574
0.157631
0.101148
0.0724812
0.0567753
0.0468335
0.0397318
0.0362295
0.0359094
0.0363336
0.0369714
0.0382511
0.0414592
0.0495272
0.0764666
0.0980717
0.108197
0.107637
0.094406
0.0719634
0.0596084
0.050031
0.0435802
0.0423396
0.0425653
0.0449204
0.0538361
0.0829317
0.148334
0.18307
0.185206
0.177909
0.158921
0.144598
0.13098
0.121469
0.109853
0.0979572
0.0877856
0.0788485
0.0731285
0.0695662
0.0645518
0.0621573
0.0617925
0.062217
0.0645731
0.0654878
0.0674463
0.0724674
0.0920388
0.129211
0.152294
0.160623
0.158104
0.128809
0.0811162
0.0542835
0.0409959
0.0354316
0.0349352
0.0349126
0.0356533
0.0373933
0.0480915
0.055623
0.0602603
0.0647216
0.0646446
0.0691585
0.0696166
0.071143
0.0739724
0.078208
0.0793395
0.0780657
0.0779516
0.0740265
0.0734639
0.0680338
0.0649933
0.0523433
0.0514428
0.0537673
0.0637756
0.0954931
0.0958145
0.178774
0.420186
2.09529
1.87386
1.64631
1.48547
1.33096
1.22649
1.1216
1.0537
0.978871
0.932001
0.875809
0.841393
0.79939
0.774992
0.742948
0.725542
0.701498
0.685329
0.667373
0.650511
0.634834
0.615921
0.599313
0.579824
0.560196
0.538121
0.515427
0.491056
0.463169
0.438466
0.411385
0.384238
0.359415
0.341599
0.327455
0.324837
0.326236
0.331081
0.341481
0.365599
0.443496
0.518437
0.52304
0.505021
0.448734
0.35496
0.297094
0.27169
0.255279
0.244171
0.237817
0.23033
0.223521
0.219173
0.21793
0.218175
0.221125
0.235693
0.254852
0.263976
0.268134
0.267743
0.264211
0.25443
0.231637
0.20871
0.168252
0.128773
0.0947758
0.06643
0.0466739
0.0326327
0.0236963
0.0176137
0.0132766
0.0105481
0.00856028
0.00717102
0.00635397
0.00573428
0.00521472
0.00476259
0.00431661
0.00401724
0.00384543
0.00374557
0.00377775
0.00383858
0.00396809
0.00435032
0.0048231
0.00578621
0.0073461
0.00889156
0.0122452
0.0138625
0.0164834
0.0210717
0.0222262
0.0248467
0.030707
0.0304401
0.0287258
0.028283
0.0290073
0.0339866
0.0535721
0.139001
0.267877
0.306882
0.307578
0.293936
0.238267
0.152717
0.0988492
0.0703819
0.054602
0.0445312
0.039449
0.0384732
0.0386077
0.0394338
0.0417035
0.0469529
0.0630698
0.0926175
0.110268
0.114822
0.110203
0.0871995
0.0675139
0.0584363
0.0495726
0.047561
0.0478057
0.0498125
0.0568771
0.0754875
0.134556
0.187273
0.198476
0.191689
0.174985
0.158691
0.153517
0.140322
0.134259
0.120841
0.102038
0.0850856
0.0720959
0.0653966
0.0635635
0.0606019
0.0582455
0.0583695
0.0587273
0.0612861
0.063007
0.0647286
0.0686953
0.0846699
0.116113
0.142845
0.155416
0.155111
0.134545
0.0914887
0.0612864
0.0454096
0.0372976
0.0356485
0.0350965
0.0356635
0.0374552
0.0478471
0.0542408
0.0584226
0.064549
0.0662911
0.0734655
0.0718565
0.0794061
0.0771631
0.0870192
0.0834779
0.0875164
0.0809433
0.0819032
0.0786553
0.0733676
0.0625763
0.0624338
0.0532768
0.0684475
0.0680245
0.145955
0.115566
0.149036
0.259283
1.3185
1.22824
1.13074
1.0508
0.975039
0.90952
0.851603
0.803753
0.756271
0.721015
0.682512
0.650887
0.619177
0.59435
0.569333
0.548982
0.535556
0.516171
0.505778
0.490885
0.476666
0.462675
0.444931
0.428284
0.408498
0.386526
0.363635
0.339601
0.313506
0.287482
0.2631
0.239694
0.215358
0.199437
0.184916
0.172167
0.171245
0.174488
0.183227
0.204615
0.23304
0.272448
0.369469
0.432922
0.436354
0.430299
0.411258
0.371571
0.337702
0.310409
0.287931
0.271486
0.263225
0.261483
0.262534
0.26906
0.271693
0.274171
0.274258
0.271111
0.259656
0.246091
0.218115
0.182853
0.145311
0.105581
0.0718666
0.0493683
0.0337903
0.0235563
0.0167684
0.0122207
0.00943347
0.0074181
0.00614537
0.00529522
0.00465592
0.00423126
0.00399502
0.00380467
0.00365942
0.0035696
0.00356057
0.00357688
0.00365517
0.0037188
0.00381041
0.00400812
0.00426085
0.00496
0.00618308
0.00737897
0.0113974
0.0131262
0.0159039
0.0189671
0.0201951
0.0244911
0.0264041
0.0273432
0.0314138
0.0384713
0.0376747
0.0326704
0.0288947
0.0288573
0.0324963
0.0530234
0.147528
0.26538
0.30049
0.298868
0.282383
0.220666
0.147898
0.0995813
0.070752
0.0545151
0.0463579
0.0441128
0.0445289
0.0460089
0.049477
0.0561963
0.0803847
0.106553
0.119315
0.119549
0.107102
0.0791016
0.0648537
0.0574967
0.0531501
0.053207
0.0549947
0.06106
0.0751444
0.111523
0.180964
0.2082
0.206353
0.190811
0.175379
0.179108
0.174874
0.163532
0.156916
0.136949
0.106869
0.0841918
0.0672025
0.0587096
0.056167
0.054079
0.0528944
0.0529851
0.0538717
0.0571993
0.0588262
0.0603412
0.0643608
0.0792103
0.109537
0.136323
0.149461
0.150817
0.136608
0.097671
0.0655453
0.0486208
0.0384179
0.035825
0.0348977
0.0352325
0.0369421
0.0474136
0.0527014
0.0595925
0.0609178
0.0642843
0.0674084
0.0707739
0.0813005
0.0800527
0.092802
0.0912672
0.107903
0.0942463
0.10565
0.0907274
0.117042
0.0936528
0.124102
0.0870429
0.126612
0.101889
0.157225
0.146911
0.147556
0.188041
0.576098
0.554793
0.521444
0.496849
0.475882
0.450864
0.431515
0.413244
0.395333
0.378581
0.366228
0.351112
0.333117
0.321097
0.304429
0.2896
0.281356
0.269955
0.262256
0.255767
0.246522
0.240211
0.228914
0.218651
0.207334
0.191962
0.177466
0.160705
0.143509
0.126167
0.109859
0.0971747
0.0848128
0.0765798
0.0702874
0.0650099
0.0647505
0.0659182
0.0689663
0.0751816
0.0905316
0.108681
0.133659
0.188515
0.25067
0.315471
0.34851
0.348731
0.343603
0.334593
0.322769
0.31338
0.301947
0.296739
0.289553
0.28123
0.273161
0.254194
0.236807
0.209579
0.173484
0.137815
0.100124
0.0714861
0.0503538
0.03491
0.0243154
0.0169201
0.0119768
0.00887053
0.0067458
0.00541631
0.00467463
0.00410047
0.00383482
0.00363852
0.00346618
0.00341922
0.00335138
0.003347
0.00336213
0.00343798
0.00358782
0.00388933
0.00422952
0.00455102
0.00484295
0.00548558
0.00637333
0.00793855
0.0116929
0.0142907
0.0222436
0.0255527
0.0292375
0.0342294
0.0341071
0.0335618
0.0331737
0.0308074
0.0309459
0.0355903
0.0393505
0.0387241
0.0321593
0.0288542
0.0289059
0.0333057
0.0546202
0.161561
0.26543
0.290302
0.285683
0.265652
0.202383
0.140305
0.100006
0.0770266
0.0637483
0.0571065
0.0566582
0.0576922
0.0618128
0.0733919
0.104054
0.123371
0.128779
0.123457
0.0965762
0.0721102
0.0633055
0.0592483
0.0595742
0.0617932
0.0673077
0.0787523
0.0984161
0.153225
0.21726
0.221658
0.211691
0.189462
0.201376
0.20306
0.198544
0.190162
0.182082
0.152809
0.111901
0.0827037
0.0657473
0.054465
0.0518645
0.0485977
0.0479794
0.0480967
0.0490326
0.0518323
0.0561507
0.0574619
0.0603704
0.0711336
0.102893
0.130481
0.142515
0.145598
0.137269
0.104351
0.0689398
0.050017
0.0390037
0.0353772
0.0341546
0.0343425
0.0376977
0.0462437
0.0562286
0.0605118
0.0650919
0.0658775
0.0667675
0.0676396
0.070463
0.0727361
0.0814669
0.0864469
0.0911252
0.0911355
0.0963289
0.0881221
0.0932716
0.0943214
0.125424
0.115873
0.121201
0.115731
0.115861
0.139069
0.139345
0.157562
0.154318
0.150513
0.143929
0.135965
0.133177
0.128716
0.126162
0.123519
0.120692
0.116718
0.114363
0.112764
0.107842
0.105179
0.100461
0.094291
0.0909277
0.0863578
0.0836273
0.0815835
0.0784902
0.0768026
0.0730889
0.0697805
0.0662716
0.0612246
0.0571117
0.0517345
0.0466132
0.0415578
0.036537
0.033233
0.0293201
0.0269684
0.0253413
0.023557
0.0234232
0.0236851
0.0244488
0.0261802
0.0307069
0.0359729
0.0436028
0.0622782
0.0791378
0.10448
0.144004
0.18092
0.207928
0.228864
0.236236
0.235146
0.229516
0.222196
0.206318
0.18488
0.165736
0.136239
0.107693
0.0831524
0.0615416
0.0456198
0.0328189
0.0236035
0.0167602
0.0119304
0.00870406
0.0064421
0.00500024
0.00412046
0.00363068
0.00335182
0.00328469
0.0033062
0.00331838
0.00335351
0.00337632
0.00341413
0.00350709
0.00370107
0.00398129
0.0045958
0.00523817
0.00610067
0.00676691
0.00742916
0.00830135
0.0102155
0.0130783
0.0175328
0.0289577
0.0354794
0.0474713
0.0527038
0.0552577
0.0601799
0.0600542
0.0578637
0.0548493
0.0444479
0.0352753
0.0352742
0.0376819
0.0381247
0.0357989
0.0303367
0.0299094
0.0317052
0.0382145
0.0897047
0.207033
0.266299
0.276467
0.269999
0.242397
0.18166
0.137488
0.109177
0.0847113
0.0740943
0.0724771
0.0748982
0.081674
0.0991955
0.125226
0.137867
0.135704
0.116073
0.0833484
0.0687646
0.0644247
0.0646111
0.0670926
0.0756595
0.0871148
0.100579
0.12308
0.19989
0.23524
0.230362
0.206135
0.203071
0.212338
0.206913
0.206946
0.208979
0.208072
0.18053
0.129903
0.0879817
0.0690933
0.055181
0.0515775
0.0490493
0.0459888
0.0455641
0.0461109
0.0481915
0.0507921
0.0532963
0.0571643
0.0673655
0.0980008
0.129036
0.14013
0.144504
0.137467
0.105451
0.0713547
0.0511053
0.039672
0.0350191
0.0336053
0.0336458
0.0370119
0.0461006
0.0546614
0.0601829
0.0631697
0.0677541
0.06944
0.0738461
0.0724929
0.0760083
0.0806123
0.0862004
0.0842309
0.0868197
0.0812328
0.0765067
0.0587862
0.0652343
0.0657398
0.0982228
0.103568
0.10873
0.106082
0.120288
0.122834
0.137645
0.0266768
0.0259491
0.0245236
0.0232431
0.0230159
0.022626
0.0225993
0.0225788
0.0225816
0.0225462
0.0225088
0.0224785
0.0222743
0.0220613
0.0215466
0.0206466
0.0200649
0.0192166
0.0188195
0.0184213
0.0179647
0.0177054
0.0170717
0.0166522
0.0159709
0.01511
0.0145031
0.0134854
0.012681
0.0117111
0.0108623
0.0102726
0.00944376
0.00908135
0.00869295
0.00846519
0.00852693
0.00871738
0.00902115
0.00959436
0.0110021
0.0124093
0.014955
0.0192494
0.0251227
0.0314033
0.0420564
0.0580684
0.0673738
0.0774856
0.0872769
0.0883518
0.0871165
0.0837609
0.0761235
0.0654132
0.0551841
0.044635
0.0350739
0.0271052
0.0203168
0.0150678
0.0110505
0.00817244
0.00614025
0.00478127
0.00394854
0.00343441
0.0031842
0.00303465
0.00301825
0.00305809
0.00316111
0.00356288
0.00379233
0.00409987
0.00452978
0.00479042
0.00548654
0.00620509
0.0071663
0.00848211
0.00978505
0.0109388
0.011865
0.0133821
0.0159703
0.0222897
0.0308894
0.0450157
0.0694654
0.0850143
0.099234
0.109715
0.109326
0.10682
0.100881
0.0894475
0.0832202
0.0711519
0.0496637
0.0402487
0.0386916
0.0382456
0.0357536
0.0337966
0.0343928
0.0370633
0.0422202
0.0786129
0.174217
0.235268
0.261066
0.262752
0.255184
0.221575
0.176607
0.135682
0.104552
0.0950977
0.0951486
0.0992658
0.106616
0.128634
0.147965
0.148972
0.137655
0.0977592
0.0769219
0.0691351
0.0692298
0.0733414
0.0837478
0.101771
0.11212
0.121538
0.158807
0.233114
0.248864
0.234268
0.202132
0.205209
0.208132
0.209639
0.219805
0.231992
0.23647
0.214007
0.155199
0.11285
0.0882887
0.0676225
0.0537502
0.0481184
0.0444839
0.0430249
0.0432398
0.0447896
0.04812
0.0505565
0.0545615
0.0667944
0.0956662
0.127348
0.138201
0.142816
0.135915
0.106688
0.0732912
0.0527416
0.041326
0.035508
0.0336939
0.0336011
0.0359332
0.0445477
0.053654
0.0597245
0.0642662
0.0684468
0.0703225
0.0730511
0.0725564
0.07609
0.0851628
0.0902011
0.0881572
0.0880094
0.0851536
0.0782551
0.0577931
0.0532588
0.0491678
0.0664113
0.0770796
0.103364
0.107391
0.11689
0.116687
0.12265
0.00359481
0.00352809
0.00341096
0.00331487
0.00331286
0.00332606
0.00338492
0.00343896
0.00356182
0.00365217
0.00375905
0.00387615
0.00393297
0.00396256
0.00395918
0.00394894
0.00391381
0.00386829
0.00382966
0.0037575
0.00371363
0.00366439
0.00359312
0.00350455
0.00343566
0.0033903
0.00336105
0.00334744
0.00333355
0.00328708
0.00325369
0.00321464
0.00309242
0.00299851
0.00298659
0.00301122
0.00311831
0.00333869
0.0035196
0.00391002
0.0043607
0.00474386
0.00556929
0.0063796
0.00829173
0.00994047
0.0122998
0.0173043
0.0205896
0.023553
0.0267347
0.0273391
0.026958
0.0255975
0.0235747
0.0204666
0.0172061
0.0142028
0.0112004
0.00872144
0.00672727
0.00528535
0.00430594
0.00367522
0.00340632
0.00316032
0.0030405
0.00305475
0.00310856
0.00325773
0.00365522
0.00414393
0.0048968
0.00596033
0.00653322
0.00744566
0.00839848
0.00910184
0.0109336
0.0122727
0.0141755
0.0160499
0.0172741
0.0182715
0.0202288
0.0242625
0.032891
0.0519411
0.0795494
0.115897
0.153593
0.180853
0.196814
0.196617
0.190624
0.180316
0.164483
0.138989
0.125921
0.110145
0.0754276
0.0530325
0.0437608
0.0393947
0.036081
0.035737
0.037982
0.0433488
0.0500552
0.0804738
0.149841
0.208202
0.243058
0.253117
0.25216
0.24313
0.208272
0.162195
0.137899
0.128135
0.128492
0.130522
0.136819
0.159639
0.165016
0.157511
0.116789
0.0866213
0.0742
0.0737378
0.0790065
0.0953933
0.113492
0.129276
0.135514
0.145537
0.198767
0.256328
0.260542
0.231229
0.198871
0.193462
0.199786
0.225444
0.233664
0.246559
0.256526
0.235423
0.191516
0.155643
0.1162
0.0797668
0.0567749
0.0463842
0.0417865
0.0411985
0.0415167
0.0425472
0.0453515
0.0477319
0.052064
0.0676378
0.0962117
0.127826
0.136146
0.13952
0.134236
0.107932
0.0770682
0.0554595
0.0447798
0.0371756
0.0344711
0.033849
0.0348592
0.0419561
0.0521744
0.0616908
0.0681308
0.0703546
0.0738182
0.0750756
0.0767802
0.0766781
0.0825947
0.0915237
0.0971381
0.0893593
0.0837269
0.0725489
0.0634442
0.0518648
0.0490365
0.0535467
0.0565875
0.0887303
0.106419
0.123199
0.120321
0.121268
0.000526501
0.000564486
0.000598315
0.00062574
0.000668524
0.000703899
0.000745116
0.000779026
0.000811308
0.000832403
0.000851937
0.000873857
0.000893364
0.000903329
0.000906058
0.000906506
0.000905215
0.000900948
0.000883935
0.000868306
0.000846326
0.000828371
0.000814954
0.000802376
0.000801191
0.000818723
0.000894336
0.000992448
0.00104025
0.00106846
0.00107421
0.00106546
0.00104315
0.00103722
0.00104185
0.00106293
0.00113786
0.0012285
0.00139086
0.00165708
0.00178797
0.00201243
0.00217051
0.00236952
0.00272134
0.00313075
0.00370294
0.00463053
0.00581446
0.00664478
0.00745084
0.0077381
0.00766551
0.00738434
0.00685318
0.00612098
0.00521085
0.00438931
0.00373532
0.00321737
0.00301116
0.00296751
0.0029872
0.00306951
0.00324324
0.00359601
0.00411149
0.00504253
0.00571994
0.00695932
0.00865803
0.00992031
0.0115903
0.0132424
0.0143502
0.0154828
0.01677
0.0184581
0.0211411
0.0234319
0.0251995
0.0264584
0.027629
0.030115
0.0361303
0.0487342
0.0775396
0.130181
0.194472
0.249286
0.271979
0.270244
0.263223
0.250813
0.23424
0.222246
0.210776
0.181609
0.161793
0.147224
0.112785
0.0794222
0.0569979
0.0437843
0.0384085
0.0382076
0.0421137
0.0506459
0.0583744
0.0827339
0.144553
0.20258
0.236078
0.247683
0.250664
0.248121
0.221924
0.196295
0.179368
0.163633
0.157326
0.157804
0.175996
0.183828
0.177727
0.139254
0.0978899
0.0812553
0.0798665
0.0860178
0.109874
0.132012
0.150784
0.15818
0.162637
0.172985
0.228771
0.270315
0.267501
0.228455
0.177872
0.174534
0.200034
0.262013
0.267176
0.273994
0.279249
0.268571
0.241013
0.183856
0.155401
0.0937611
0.058949
0.0472635
0.0420158
0.0410833
0.0416021
0.0425835
0.0440843
0.0463529
0.0513859
0.0715885
0.098421
0.129697
0.136682
0.139187
0.135309
0.111241
0.0855918
0.0622718
0.0484212
0.0388067
0.0359214
0.0345644
0.034915
0.040202
0.0508977
0.0606217
0.0680366
0.0732826
0.0760748
0.0777527
0.0799906
0.0816161
0.0851108
0.0885672
0.102267
0.100064
0.0916075
0.0699078
0.0594852
0.0510111
0.0482514
0.0511257
0.0543559
0.0808457
0.0921978
0.125517
0.128966
0.127467
0.000175534
0.000182024
0.000188575
0.000192583
0.000203398
0.000216072
0.000235134
0.000256708
0.000277449
0.000299067
0.000322453
0.000339699
0.000355685
0.000367626
0.000376363
0.000383195
0.000388504
0.000391672
0.00039481
0.000396206
0.000397086
0.000401311
0.000402553
0.000406497
0.000411108
0.000421259
0.000454117
0.000473515
0.000493725
0.000506718
0.000514401
0.000517594
0.000524403
0.000552133
0.00057061
0.00060768
0.000641878
0.000654513
0.000684501
0.000708941
0.000751593
0.0008192
0.00085801
0.00094476
0.00100252
0.00111365
0.00122134
0.00132348
0.00160879
0.00185065
0.00194151
0.00205304
0.00208757
0.00207497
0.00202796
0.00197028
0.00197513
0.00203271
0.00212214
0.00237262
0.00263252
0.00327756
0.0040783
0.00553143
0.00717598
0.0093767
0.0119062
0.0149235
0.0178258
0.0209037
0.0240278
0.0266248
0.0289729
0.0308497
0.0321191
0.0328241
0.0337437
0.0356468
0.0381539
0.0399518
0.0410019
0.042812
0.0465702
0.0551379
0.0758374
0.116995
0.20986
0.295987
0.33067
0.328114
0.315799
0.294331
0.276112
0.259039
0.244933
0.237326
0.223686
0.203584
0.187815
0.168015
0.139992
0.107498
0.0789584
0.0560685
0.0456062
0.0451851
0.0508398
0.0600392
0.0680071
0.0921176
0.15295
0.206829
0.235293
0.248186
0.253132
0.25154
0.237738
0.224045
0.200736
0.186783
0.185517
0.200116
0.207835
0.20206
0.162389
0.10984
0.0886587
0.0873302
0.095401
0.128487
0.160348
0.181354
0.19135
0.195342
0.194862
0.205042
0.24921
0.274053
0.269846
0.208054
0.16076
0.173086
0.2419
0.314477
0.311724
0.311843
0.310426
0.293247
0.252564
0.184003
0.168396
0.109336
0.0590052
0.0470025
0.0418112
0.0414019
0.0430128
0.043173
0.0440028
0.0464383
0.0518392
0.0774809
0.103287
0.132881
0.138753
0.139792
0.139426
0.117192
0.0887895
0.0667215
0.0542808
0.0432992
0.0386959
0.036752
0.0364201
0.040217
0.0523654
0.0642883
0.073614
0.0798219
0.0820806
0.0853908
0.0856363
0.086471
0.0925716
0.0937384
0.101895
0.106963
0.1045
0.0813584
0.0669047
0.0581234
0.0538129
0.0542315
0.0566055
0.0685937
0.0737841
0.0947551
0.111391
0.122897
0.000142531
0.000141934
0.000143419
0.000146912
0.000158082
0.000172294
0.000187695
0.000204805
0.000219473
0.000231016
0.000241148
0.000254879
0.000270438
0.000293714
0.000316384
0.000342291
0.000361686
0.000377996
0.000388941
0.000391021
0.000390332
0.00038336
0.000383459
0.000385722
0.000391953
0.000412003
0.00047418
0.000529438
0.000586888
0.000641425
0.000673574
0.000698363
0.000706012
0.000721285
0.000787283
0.000838098
0.000847071
0.000841372
0.000832638
0.000818357
0.000771092
0.000703669
0.000663569
0.000654874
0.000650528
0.000664202
0.000745898
0.000815225
0.000909917
0.000989633
0.00102879
0.00105276
0.00110442
0.00116822
0.00127333
0.00148042
0.00172281
0.00233806
0.00299458
0.00446836
0.00615549
0.00911423
0.013435
0.0176809
0.0238791
0.0307011
0.0376449
0.0453321
0.0518548
0.0572491
0.0617241
0.0645575
0.0662984
0.0667945
0.0666664
0.066314
0.0656258
0.0639318
0.063795
0.0643994
0.0663774
0.0716182
0.0840915
0.113917
0.181592
0.310881
0.378204
0.385439
0.373442
0.347396
0.318859
0.294511
0.271733
0.256995
0.247186
0.240083
0.228565
0.210342
0.198253
0.184881
0.157725
0.134988
0.104484
0.0712289
0.0562351
0.0557091
0.0620264
0.069108
0.0744214
0.0961472
0.157544
0.206094
0.235407
0.254846
0.262951
0.263139
0.260274
0.241447
0.226143
0.225219
0.232819
0.234648
0.229091
0.181531
0.120321
0.0953662
0.0946925
0.107818
0.154545
0.207233
0.232692
0.22688
0.221586
0.221276
0.218317
0.226837
0.253083
0.278554
0.268751
0.19151
0.162278
0.191278
0.314268
0.351134
0.33303
0.343345
0.321771
0.2897
0.229992
0.180535
0.16056
0.109199
0.0656174
0.0507403
0.0427424
0.0420195
0.0438806
0.0438436
0.044186
0.0474927
0.0546454
0.0898846
0.114455
0.136884
0.143085
0.142106
0.141529
0.121231
0.0918426
0.0689575
0.0561773
0.0454185
0.0396814
0.0391932
0.0405484
0.0465579
0.0605932
0.0710352
0.0818453
0.0872767
0.0878074
0.0888098
0.0893166
0.0911451
0.0996465
0.102688
0.103176
0.102456
0.0979154
0.0879641
0.0721236
0.0678859
0.0620147
0.0629488
0.0615915
0.0630916
0.0625002
0.0629981
0.0648522
0.0832171
0.000252705
0.00026225
0.00027894
0.00031343
0.000368211
0.000433097
0.000515171
0.000593715
0.000673709
0.000736457
0.000782812
0.00080669
0.000814197
0.000813151
0.000793626
0.000773124
0.000753918
0.000748176
0.000748085
0.000754499
0.000776734
0.000853364
0.000976926
0.0012145
0.00149132
0.00170549
0.00203731
0.00223872
0.00243294
0.00267497
0.00276072
0.00286205
0.00298962
0.00300725
0.00299499
0.00294231
0.00280417
0.00259697
0.00234362
0.0020591
0.00178025
0.00154067
0.00134896
0.00123624
0.00119358
0.00118865
0.00120838
0.00129818
0.00135524
0.00145319
0.00159177
0.00176225
0.00219609
0.00260057
0.00346975
0.00439937
0.006048
0.00891135
0.0116472
0.0175655
0.0240072
0.0337318
0.0459226
0.0588099
0.0751908
0.0909368
0.106014
0.119629
0.129348
0.136426
0.138243
0.137513
0.135851
0.133079
0.126077
0.121218
0.112283
0.106824
0.106814
0.108725
0.115186
0.131403
0.167799
0.263318
0.386943
0.432971
0.43075
0.411794
0.375171
0.340159
0.311898
0.292626
0.275689
0.258614
0.241906
0.230951
0.222853
0.210273
0.199705
0.18585
0.169991
0.148993
0.11961
0.0871487
0.0674814
0.066498
0.0712086
0.0737723
0.0746478
0.0922735
0.152291
0.200421
0.232606
0.259348
0.273585
0.28133
0.282247
0.273091
0.265351
0.266077
0.265105
0.25634
0.186519
0.123284
0.100146
0.100835
0.122123
0.195617
0.268892
0.280143
0.271251
0.241133
0.229107
0.222792
0.221115
0.235113
0.247549
0.277971
0.263319
0.190271
0.183974
0.248005
0.367138
0.364152
0.360138
0.381236
0.332115
0.276468
0.216263
0.182186
0.186818
0.0827894
0.0819934
0.0513766
0.0552937
0.0437203
0.0459856
0.0445202
0.0453334
0.0513209
0.0625553
0.108406
0.135018
0.144673
0.155052
0.149394
0.144797
0.12524
0.101527
0.0747416
0.059843
0.0493816
0.0423958
0.0413642
0.0438626
0.0540479
0.0735022
0.0831811
0.0901168
0.0932564
0.092919
0.0932226
0.0950803
0.0967167
0.0990509
0.102518
0.105677
0.103453
0.0881426
0.0730942
0.0626485
0.0603041
0.0596471
0.0601252
0.0575957
0.0565223
0.0574829
0.0588269
0.0592594
0.0596481
0.00306676
0.00306311
0.00310965
0.00318596
0.00338628
0.00370788
0.0041745
0.00462819
0.00512159
0.00553377
0.00585675
0.00602038
0.00608237
0.00608051
0.00605479
0.00605451
0.00605193
0.00609674
0.00622011
0.00642386
0.00707377
0.0078608
0.00892804
0.00992827
0.0109222
0.0117626
0.0124737
0.0131039
0.0134782
0.0138323
0.0138829
0.0138285
0.0136998
0.0134985
0.0132968
0.0130945
0.0126783
0.0122665
0.0118129
0.010792
0.00981157
0.00889568
0.00788178
0.0071898
0.00665536
0.00627866
0.00622622
0.00627092
0.00642987
0.006937
0.00755382
0.00884715
0.0102535
0.0122029
0.0161161
0.0194298
0.0259155
0.0349389
0.0461193
0.0634393
0.0836908
0.109416
0.139379
0.171842
0.203299
0.230102
0.25625
0.27537
0.280443
0.280054
0.275962
0.264137
0.252484
0.232451
0.21593
0.200331
0.185683
0.182087
0.183406
0.18945
0.205822
0.240717
0.340156
0.440077
0.465913
0.46031
0.440904
0.394558
0.352646
0.327368
0.313223
0.303475
0.288177
0.264203
0.247819
0.230885
0.214554
0.206866
0.197751
0.184053
0.175722
0.163195
0.131857
0.0946709
0.082142
0.080447
0.0775102
0.0719155
0.0694019
0.0774773
0.128835
0.1845
0.223717
0.255338
0.2744
0.283835
0.287558
0.28609
0.281318
0.277503
0.255898
0.170897
0.117786
0.100667
0.104803
0.137426
0.25466
0.328289
0.326244
0.309008
0.27312
0.228775
0.21366
0.214464
0.229521
0.242591
0.248746
0.264338
0.260535
0.215192
0.221567
0.335665
0.39101
0.399454
0.429323
0.405833
0.336812
0.261377
0.214561
0.194049
0.125601
0.0918417
0.0997799
0.0612427
0.061607
0.0456391
0.0516966
0.0458315
0.0508794
0.0796926
0.0796226
0.121551
0.150023
0.14744
0.158753
0.168366
0.161348
0.132775
0.113189
0.086914
0.0656754
0.0545381
0.0479439
0.0463765
0.0526501
0.0670839
0.0850548
0.0950373
0.0997707
0.101294
0.100399
0.100535
0.102838
0.108031
0.110109
0.106941
0.104669
0.1011
0.086771
0.0708002
0.0615551
0.0591721