/*--------------------------------*- C++ -*----------------------------------*\
| =========                 |                                                 |
| \\      /  F ield         | OpenFOAM: The Open Source CFD Toolbox           |
|  \\    /   O peration     | Version:  2.4.0                                 |
|   \\  /    A nd           | Web:      www.OpenFOAM.org                      |
|    \\/     M anipulation  |                                                 |
\*---------------------------------------------------------------------------*/
FoamFile
{
    version     2.0;
    format      ascii;
    class       volScalarField;
    location    "21";
    object      p;
}
// * * * * * * * * * * * * * * * * * * * * * * * * * * * * * * * * * * * * * //

dimensions      [0 2 -2 0 0 0 0];

internalField   nonuniform List<scalar> 
4400
(
-0.100056
-0.106569
-0.11543
-0.102806
-0.0995023
-0.112446
-0.110106
-0.109035
-0.113969
-0.109878
-0.108882
-0.119133
-0.115317
-0.112029
-0.119811
-0.118794
-0.116212
-0.125509
-0.126454
-0.131907
-0.0999826
-0.106421
-0.1158
-0.102914
-0.0989285
-0.112671
-0.11026
-0.108797
-0.114168
-0.109894
-0.108551
-0.119333
-0.115477
-0.111669
-0.119947
-0.118959
-0.115843
-0.125636
-0.126548
-0.130639
-0.0998826
-0.106279
-0.116298
-0.102935
-0.0984596
-0.113093
-0.110361
-0.108541
-0.114449
-0.109852
-0.108221
-0.119654
-0.115589
-0.111325
-0.120174
-0.119073
-0.11548
-0.125738
-0.126471
-0.128552
-0.0998262
-0.106178
-0.116634
-0.102896
-0.0982226
-0.113503
-0.110303
-0.108329
-0.114704
-0.109804
-0.107983
-0.119911
-0.115572
-0.111071
-0.120391
-0.119011
-0.114943
-0.125567
-0.126517
-0.125899
-0.0998808
-0.106131
-0.116655
-0.102925
-0.0984208
-0.11376
-0.110063
-0.108214
-0.114888
-0.10984
-0.107945
-0.119978
-0.115433
-0.111002
-0.120558
-0.118714
-0.114892
-0.125046
-0.12651
-0.123531
-0.100118
-0.106126
-0.116268
-0.103223
-0.0991621
-0.113777
-0.109729
-0.108234
-0.114903
-0.110033
-0.108177
-0.11974
-0.115292
-0.111141
-0.120647
-0.118254
-0.115128
-0.124215
-0.126205
-0.121759
-0.10062
-0.106119
-0.115297
-0.103932
-0.100482
-0.113455
-0.109417
-0.108416
-0.114648
-0.110401
-0.108725
-0.119093
-0.115242
-0.111568
-0.120564
-0.11773
-0.115635
-0.123164
-0.125328
-0.120641
-0.101426
-0.106079
-0.113602
-0.105025
-0.102347
-0.112705
-0.109196
-0.108785
-0.114039
-0.110904
-0.109618
-0.117992
-0.115265
-0.11232
-0.120141
-0.117218
-0.116372
-0.121957
-0.123867
-0.120107
-0.102501
-0.105976
-0.111178
-0.106371
-0.10464
-0.111505
-0.109081
-0.109324
-0.113081
-0.111485
-0.110831
-0.11648
-0.115273
-0.11338
-0.119299
-0.116765
-0.117274
-0.120632
-0.121975
-0.120001
-0.103739
-0.105784
-0.108209
-0.107775
-0.107165
-0.109933
-0.109034
-0.109968
-0.111858
-0.112083
-0.112261
-0.114684
-0.115173
-0.114667
-0.118081
-0.11639
-0.118239
-0.119225
-0.119883
-0.120096
-0.104993
-0.1055
-0.105019
-0.109036
-0.109666
-0.108124
-0.108987
-0.110613
-0.110514
-0.112647
-0.113741
-0.112795
-0.114903
-0.116027
-0.116577
-0.116078
-0.119183
-0.117782
-0.117821
-0.120166
-0.106128
-0.105143
-0.101964
-0.110015
-0.111899
-0.106381
-0.108876
-0.111158
-0.109224
-0.113134
-0.115106
-0.111018
-0.114459
-0.117268
-0.11474
-0.115798
-0.119997
-0.11638
-0.115968
-0.120048
-0.107053
-0.10476
-0.0993505
-0.110647
-0.113693
-0.104938
-0.10867
-0.111537
-0.108157
-0.113508
-0.11622
-0.109535
-0.113898
-0.118252
-0.113024
-0.11552
-0.120579
-0.115113
-0.114417
-0.119687
-0.107722
-0.104416
-0.0973803
-0.110933
-0.114974
-0.103918
-0.10837
-0.111735
-0.107423
-0.113752
-0.117006
-0.10847
-0.113319
-0.118914
-0.112002
-0.115238
-0.120867
-0.114061
-0.113191
-0.119127
-0.10813
-0.104173
-0.0961345
-0.110948
-0.115749
-0.103347
-0.108018
-0.111791
-0.107052
-0.113866
-0.117456
-0.10785
-0.112806
-0.119243
-0.111401
-0.114971
-0.120891
-0.113276
-0.112272
-0.118456
-0.108315
-0.104056
-0.09555
-0.110805
-0.116087
-0.103169
-0.107696
-0.111775
-0.106993
-0.113877
-0.117616
-0.107613
-0.112421
-0.119299
-0.111159
-0.114751
-0.120722
-0.112857
-0.111642
-0.117761
-0.108341
-0.103997
-0.0954953
-0.110601
-0.116067
-0.103283
-0.10748
-0.111691
-0.107142
-0.113835
-0.117537
-0.107649
-0.112204
-0.119153
-0.111183
-0.114619
-0.120438
-0.112684
-0.111298
-0.117115
-0.108262
-0.103898
-0.0957864
-0.110385
-0.115719
-0.103562
-0.107399
-0.111507
-0.107396
-0.113773
-0.117261
-0.107851
-0.112152
-0.118835
-0.111349
-0.114595
-0.120059
-0.112666
-0.111228
-0.116567
-0.108149
-0.103732
-0.0962144
-0.110224
-0.115185
-0.10387
-0.107442
-0.111262
-0.107655
-0.113732
-0.116891
-0.108103
-0.112231
-0.118421
-0.111537
-0.114671
-0.119668
-0.112714
-0.111359
-0.116162
-0.108083
-0.103562
-0.0965615
-0.110212
-0.114602
-0.104052
-0.10755
-0.110986
-0.107835
-0.113746
-0.116531
-0.108263
-0.112368
-0.118126
-0.11164
-0.114796
-0.119398
-0.112743
-0.111572
-0.115968
-0.121947
-0.112164
-0.164065
-0.180182
-0.123095
-0.0187208
0.00932876
-0.132298
-0.220769
-0.188337
-0.167562
-0.182488
-0.152743
-0.102341
-0.097712
-0.153221
-0.210195
-0.253091
-0.254656
-0.173619
-0.0688341
-0.00581255
0.011595
0.0153665
0.0191395
0.0237199
0.027219
0.0291421
0.0299182
0.0300664
0.0299244
0.0296622
0.0293527
0.0290239
0.0286859
0.0283426
0.0279954
0.027645
0.0272917
0.0269357
0.026577
0.0262157
0.0258518
0.0254854
0.0251164
0.0247448
0.0243705
0.0239935
0.0236138
0.0232314
0.0228463
0.0224585
0.0220681
0.021675
0.0212791
0.0208805
0.020479
0.0200747
0.0196677
0.0192578
0.018845
0.0184295
0.018011
0.0175897
0.0171654
0.0167381
0.0163078
0.0158745
0.0154381
0.0149986
0.014556
0.0141103
0.0136614
0.0132094
0.0127541
0.0122957
0.011834
0.0113692
0.0109009
0.0104295
0.00995461
0.00947659
0.00899505
0.00851014
0.00802201
0.00753004
0.0070352
0.00653622
0.00603432
0.00552854
0.00501922
0.00450662
0.00398997
0.00347006
0.00294638
0.00241887
0.00188789
0.00135307
0.000814435
0.000272111
-0.122683
-0.112738
-0.162971
-0.178617
-0.121489
-0.0195244
0.0101957
-0.123262
-0.210884
-0.183948
-0.158681
-0.164632
-0.134841
-0.0934823
-0.0970075
-0.158508
-0.219993
-0.264648
-0.265166
-0.180176
-0.0702587
-0.00296712
0.015967
0.0191967
0.0217747
0.0252759
0.0280637
0.0295685
0.0301226
0.0301607
0.0299657
0.0296785
0.0293577
0.0290241
0.0286844
0.0283408
0.0279938
0.0276438
0.0272908
0.0269351
0.0265766
0.0262154
0.0258517
0.0254853
0.0251163
0.0247448
0.0243705
0.0239935
0.0236138
0.0232314
0.0228463
0.0224585
0.0220681
0.021675
0.0212791
0.0208805
0.020479
0.0200747
0.0196677
0.0192578
0.018845
0.0184295
0.018011
0.0175897
0.0171654
0.0167381
0.0163078
0.0158745
0.0154381
0.0149986
0.014556
0.0141103
0.0136614
0.0132094
0.0127541
0.0122957
0.011834
0.0113692
0.0109009
0.0104295
0.00995461
0.0094766
0.00899505
0.00851015
0.00802201
0.00753003
0.0070352
0.00653622
0.00603431
0.00552855
0.00501922
0.00450662
0.00398997
0.00347005
0.00294638
0.00241887
0.00188789
0.00135306
0.000814443
0.000272108
-0.123908
-0.113864
-0.158795
-0.17429
-0.119896
-0.0220808
0.00747342
-0.11518
-0.200456
-0.178143
-0.148985
-0.146272
-0.116937
-0.0837762
-0.0949182
-0.162008
-0.228159
-0.274584
-0.273829
-0.185101
-0.0706357
0.000418911
0.020712
0.0232993
0.0245536
0.026902
0.0289311
0.0299986
0.030325
0.0302525
0.0300053
0.0296939
0.0293622
0.0290241
0.0286829
0.0283389
0.0279922
0.0276425
0.0272899
0.0269344
0.0265762
0.0262152
0.0258515
0.0254852
0.0251163
0.0247447
0.0243705
0.0239935
0.0236138
0.0232314
0.0228463
0.0224585
0.0220681
0.021675
0.0212791
0.0208805
0.020479
0.0200747
0.0196677
0.0192578
0.018845
0.0184295
0.018011
0.0175897
0.0171654
0.0167381
0.0163078
0.0158745
0.0154381
0.0149986
0.014556
0.0141103
0.0136614
0.0132094
0.0127541
0.0122957
0.011834
0.0113692
0.0109009
0.0104295
0.00995461
0.0094766
0.00899505
0.00851014
0.00802201
0.00753003
0.0070352
0.00653622
0.00603431
0.00552855
0.00501922
0.00450662
0.00398997
0.00347005
0.00294638
0.00241887
0.00188789
0.00135306
0.000814444
0.000272108
-0.125202
-0.115324
-0.151087
-0.16744
-0.11848
-0.026851
0.00219784
-0.107885
-0.189577
-0.170719
-0.138472
-0.128254
-0.0996362
-0.0736861
-0.0916902
-0.163871
-0.23464
-0.282769
-0.280545
-0.188332
-0.0699218
0.00430965
0.0257388
0.0275894
0.0274384
0.0285709
0.0298081
0.0304267
0.030523
0.0303407
0.0300427
0.0297082
0.0293663
0.0290239
0.0286813
0.0283371
0.0279906
0.0276413
0.027289
0.0269338
0.0265758
0.0262149
0.0258513
0.0254851
0.0251162
0.0247447
0.0243704
0.0239935
0.0236138
0.0232314
0.0228463
0.0224585
0.0220681
0.021675
0.0212791
0.0208805
0.020479
0.0200748
0.0196677
0.0192578
0.0188451
0.0184295
0.018011
0.0175897
0.0171654
0.0167381
0.0163078
0.0158745
0.0154381
0.0149986
0.014556
0.0141103
0.0136614
0.0132094
0.0127541
0.0122957
0.011834
0.0113692
0.0109009
0.0104295
0.00995461
0.00947659
0.00899505
0.00851014
0.00802201
0.00753003
0.0070352
0.00653622
0.00603431
0.00552855
0.00501922
0.00450662
0.00398997
0.00347005
0.00294638
0.00241887
0.00188789
0.00135306
0.000814443
0.000272108
-0.125762
-0.117009
-0.142801
-0.158998
-0.117122
-0.0337937
-0.00501303
-0.10113
-0.177512
-0.161366
-0.127207
-0.111251
-0.0835234
-0.0636844
-0.0875902
-0.164213
-0.239385
-0.289072
-0.285227
-0.189841
-0.068098
0.00865157
0.0309444
0.031975
0.0303747
0.0302541
0.0306816
0.0308474
0.0307144
0.0304243
0.0300774
0.029721
0.0293696
0.0290234
0.0286795
0.0283352
0.027989
0.02764
0.0272881
0.0269332
0.0265754
0.0262147
0.0258512
0.025485
0.0251161
0.0247446
0.0243704
0.0239934
0.0236138
0.0232314
0.0228463
0.0224585
0.0220681
0.021675
0.0212791
0.0208805
0.020479
0.0200748
0.0196677
0.0192578
0.0188451
0.0184295
0.018011
0.0175897
0.0171654
0.0167381
0.0163078
0.0158745
0.0154381
0.0149986
0.014556
0.0141103
0.0136614
0.0132094
0.0127541
0.0122957
0.011834
0.0113692
0.0109009
0.0104295
0.00995461
0.00947659
0.00899505
0.00851014
0.00802201
0.00753003
0.0070352
0.00653622
0.00603431
0.00552855
0.00501922
0.00450662
0.00398997
0.00347005
0.00294638
0.00241887
0.00188789
0.00135306
0.000814441
0.000272108
-0.12543
-0.118967
-0.134984
-0.149871
-0.11567
-0.0423889
-0.0136397
-0.0943238
-0.163598
-0.149956
-0.115469
-0.0957938
-0.0691098
-0.0542295
-0.0829239
-0.163092
-0.242329
-0.29337
-0.287815
-0.189634
-0.0651742
0.0133723
0.0362194
0.0363607
0.0333044
0.0319235
0.0315392
0.0312555
0.0308972
0.0305024
0.0301089
0.0297322
0.0293721
0.0290226
0.0286776
0.0283333
0.0279873
0.0276388
0.0272873
0.0269326
0.026575
0.0262144
0.025851
0.0254849
0.0251161
0.0247446
0.0243703
0.0239934
0.0236137
0.0232314
0.0228463
0.0224585
0.0220681
0.021675
0.0212791
0.0208805
0.020479
0.0200748
0.0196677
0.0192578
0.0188451
0.0184295
0.018011
0.0175897
0.0171654
0.0167381
0.0163078
0.0158745
0.0154381
0.0149986
0.014556
0.0141103
0.0136614
0.0132094
0.0127541
0.0122957
0.011834
0.0113692
0.0109009
0.0104295
0.00995461
0.00947659
0.00899505
0.00851014
0.00802201
0.00753003
0.0070352
0.00653622
0.00603431
0.00552855
0.00501922
0.00450662
0.00398997
0.00347005
0.00294638
0.00241887
0.0018879
0.00135306
0.000814439
0.000272108
-0.124297
-0.120062
-0.128469
-0.140952
-0.113995
-0.0517341
-0.0231018
-0.0870228
-0.14769
-0.136773
-0.103709
-0.0822863
-0.0567937
-0.0457386
-0.0780261
-0.160601
-0.243404
-0.295553
-0.288271
-0.187765
-0.061193
0.0183834
0.0414528
0.0406534
0.0361708
0.0335525
0.0323696
0.0316465
0.0310696
0.0305743
0.0301369
0.0297414
0.0293736
0.0290212
0.0286755
0.0283313
0.0279857
0.0276376
0.0272864
0.026932
0.0265746
0.0262142
0.0258509
0.0254848
0.025116
0.0247445
0.0243703
0.0239934
0.0236137
0.0232314
0.0228463
0.0224585
0.0220681
0.021675
0.0212791
0.0208805
0.020479
0.0200748
0.0196677
0.0192578
0.0188451
0.0184295
0.018011
0.0175897
0.0171654
0.0167381
0.0163078
0.0158745
0.0154381
0.0149986
0.014556
0.0141103
0.0136614
0.0132094
0.0127541
0.0122957
0.011834
0.0113692
0.0109009
0.0104295
0.00995461
0.00947659
0.00899505
0.00851014
0.00802201
0.00753003
0.0070352
0.00653622
0.00603431
0.00552855
0.00501922
0.00450663
0.00398997
0.00347005
0.00294639
0.00241886
0.0018879
0.00135306
0.000814438
0.000272108
-0.122643
-0.120211
-0.123446
-0.132849
-0.111992
-0.0608722
-0.0327315
-0.0795764
-0.130541
-0.122365
-0.0924201
-0.0710193
-0.0468544
-0.0385786
-0.0732405
-0.156967
-0.242562
-0.295547
-0.286594
-0.184315
-0.0562295
0.0235832
0.0465364
0.0447667
0.0389208
0.0351156
0.0331627
0.0320167
0.0312302
0.0306394
0.030161
0.0297486
0.0293742
0.0290195
0.0286732
0.0283292
0.0279841
0.0276364
0.0272855
0.0269315
0.0265742
0.0262139
0.0258507
0.0254847
0.025116
0.0247445
0.0243703
0.0239934
0.0236137
0.0232314
0.0228463
0.0224585
0.0220681
0.021675
0.0212791
0.0208805
0.020479
0.0200748
0.0196677
0.0192578
0.0188451
0.0184295
0.018011
0.0175897
0.0171654
0.0167381
0.0163078
0.0158745
0.0154381
0.0149986
0.014556
0.0141103
0.0136614
0.0132094
0.0127541
0.0122957
0.011834
0.0113692
0.0109009
0.0104295
0.00995461
0.00947659
0.00899505
0.00851014
0.00802201
0.00753003
0.0070352
0.00653622
0.00603431
0.00552855
0.00501922
0.00450663
0.00398997
0.00347005
0.00294639
0.00241886
0.0018879
0.00135306
0.000814436
0.000272108
-0.120763
-0.119285
-0.119792
-0.125893
-0.109646
-0.0691301
-0.0420669
-0.0727082
-0.113042
-0.107407
-0.0820419
-0.0621594
-0.0394415
-0.0330402
-0.0688875
-0.152502
-0.239888
-0.29336
-0.282796
-0.179423
-0.0504091
0.0288572
0.0513694
0.048624
0.041508
0.036591
0.0339097
0.0323627
0.0313778
0.0306972
0.0301811
0.0297537
0.0293736
0.0290171
0.0286707
0.028327
0.0279824
0.0276352
0.0272847
0.0269309
0.0265738
0.0262137
0.0258506
0.0254846
0.0251159
0.0247444
0.0243703
0.0239934
0.0236137
0.0232314
0.0228463
0.0224585
0.0220681
0.021675
0.0212791
0.0208805
0.020479
0.0200748
0.0196677
0.0192578
0.0188451
0.0184295
0.018011
0.0175897
0.0171654
0.0167381
0.0163078
0.0158745
0.0154381
0.0149986
0.014556
0.0141103
0.0136614
0.0132094
0.0127541
0.0122957
0.011834
0.0113692
0.0109009
0.0104295
0.00995461
0.00947659
0.00899505
0.00851014
0.00802201
0.00753003
0.0070352
0.00653622
0.00603432
0.00552855
0.00501922
0.00450663
0.00398997
0.00347005
0.00294639
0.00241886
0.0018879
0.00135307
0.000814434
0.000272108
-0.118865
-0.117449
-0.11718
-0.120218
-0.107065
-0.0761698
-0.0508716
-0.0667897
-0.0960024
-0.0926356
-0.0729268
-0.0556962
-0.0345385
-0.0293264
-0.0652364
-0.147475
-0.235611
-0.289087
-0.276916
-0.173196
-0.0439097
0.0340871
0.0558629
0.0521614
0.0438943
0.0379605
0.0346033
0.0326816
0.0315112
0.0307474
0.030197
0.0297565
0.029372
0.0290143
0.028668
0.0283248
0.0279807
0.027634
0.0272839
0.0269303
0.0265735
0.0262135
0.0258505
0.0254846
0.0251158
0.0247444
0.0243702
0.0239933
0.0236137
0.0232314
0.0228463
0.0224585
0.0220681
0.021675
0.0212791
0.0208805
0.020479
0.0200748
0.0196677
0.0192578
0.0188451
0.0184295
0.018011
0.0175897
0.0171654
0.0167381
0.0163078
0.0158745
0.0154381
0.0149986
0.014556
0.0141103
0.0136614
0.0132094
0.0127541
0.0122957
0.011834
0.0113692
0.0109009
0.0104295
0.00995461
0.00947659
0.00899505
0.00851014
0.00802201
0.00753003
0.0070352
0.00653622
0.00603432
0.00552855
0.00501921
0.00450663
0.00398997
0.00347005
0.00294639
0.00241886
0.0018879
0.00135307
0.000814432
0.000272107
-0.117118
-0.115047
-0.115201
-0.115787
-0.104473
-0.0818996
-0.0588401
-0.0618857
-0.0801591
-0.0787898
-0.0653018
-0.0514332
-0.0319368
-0.0275316
-0.0624726
-0.142029
-0.229897
-0.282988
-0.268978
-0.165711
-0.0370066
0.0391531
0.0599415
0.0553301
0.0460506
0.0392102
0.0352377
0.0329711
0.0316296
0.0307895
0.0302086
0.0297571
0.0293692
0.029011
0.028665
0.0283225
0.027979
0.0276328
0.0272831
0.0269298
0.0265732
0.0262133
0.0258503
0.0254845
0.0251158
0.0247444
0.0243702
0.0239933
0.0236137
0.0232313
0.0228463
0.0224586
0.0220681
0.021675
0.0212791
0.0208805
0.020479
0.0200748
0.0196677
0.0192578
0.0188451
0.0184295
0.0180111
0.0175897
0.0171654
0.0167381
0.0163078
0.0158745
0.0154381
0.0149986
0.014556
0.0141103
0.0136614
0.0132094
0.0127541
0.0122957
0.011834
0.0113692
0.0109009
0.0104295
0.00995461
0.00947659
0.00899505
0.00851014
0.00802201
0.00753003
0.0070352
0.00653622
0.00603432
0.00552855
0.00501921
0.00450663
0.00398996
0.00347005
0.00294639
0.00241886
0.0018879
0.00135307
0.00081443
0.000272107
-0.115609
-0.112506
-0.113528
-0.112442
-0.102117
-0.0863461
-0.0656646
-0.0579816
-0.0661581
-0.0665023
-0.0592633
-0.0490373
-0.0312606
-0.0275823
-0.0607078
-0.136221
-0.222939
-0.275152
-0.259455
-0.15681
-0.0300377
0.0439517
0.063547
0.0580973
0.0479573
0.0403303
0.0358083
0.0332291
0.0317321
0.0308235
0.030216
0.0297555
0.0293653
0.0290071
0.0286619
0.0283201
0.0279773
0.0276316
0.0272823
0.0269293
0.0265729
0.0262131
0.0258502
0.0254844
0.0251158
0.0247443
0.0243702
0.0239933
0.0236137
0.0232313
0.0228463
0.0224586
0.0220681
0.021675
0.0212791
0.0208805
0.020479
0.0200748
0.0196677
0.0192578
0.0188451
0.0184295
0.0180111
0.0175897
0.0171654
0.0167381
0.0163078
0.0158745
0.0154381
0.0149986
0.014556
0.0141103
0.0136614
0.0132094
0.0127541
0.0122957
0.011834
0.0113692
0.0109009
0.0104295
0.00995461
0.00947659
0.00899505
0.00851014
0.00802201
0.00753003
0.0070352
0.00653621
0.00603432
0.00552855
0.00501921
0.00450664
0.00398996
0.00347005
0.00294639
0.00241885
0.0018879
0.00135307
0.000814428
0.000272106
-0.114329
-0.110163
-0.111997
-0.109983
-0.100169
-0.0896223
-0.0711978
-0.0549892
-0.0545033
-0.0562369
-0.0548016
-0.0480695
-0.0320368
-0.0292386
-0.0598888
-0.130202
-0.214983
-0.265902
-0.248582
-0.146605
-0.0233348
0.0483924
0.0666386
0.0604465
0.0496048
0.0413148
0.0363116
0.0334536
0.0318179
0.030849
0.0302191
0.0297519
0.0293605
0.0290029
0.0286586
0.0283177
0.0279757
0.0276305
0.0272816
0.0269289
0.0265726
0.0262129
0.0258501
0.0254843
0.0251157
0.0247443
0.0243702
0.0239933
0.0236137
0.0232313
0.0228463
0.0224586
0.0220681
0.021675
0.0212791
0.0208805
0.020479
0.0200748
0.0196677
0.0192578
0.0188451
0.0184295
0.0180111
0.0175897
0.0171654
0.0167381
0.0163078
0.0158745
0.0154381
0.0149986
0.014556
0.0141103
0.0136614
0.0132094
0.0127541
0.0122957
0.011834
0.0113692
0.0109009
0.0104295
0.00995461
0.00947659
0.00899505
0.00851014
0.00802201
0.00753003
0.0070352
0.00653621
0.00603432
0.00552855
0.00501921
0.00450664
0.00398996
0.00347006
0.00294639
0.00241885
0.0018879
0.00135307
0.000814426
0.000272106
-0.113298
-0.108208
-0.110571
-0.108216
-0.0987034
-0.0918993
-0.075409
-0.0527466
-0.0454885
-0.0482956
-0.0517608
-0.0479781
-0.0340272
-0.0321399
-0.059835
-0.124105
-0.206261
-0.255671
-0.23686
-0.135839
-0.0167612
0.0523908
0.0691943
0.0623775
0.0509921
0.0421611
0.036745
0.033643
0.0318863
0.0308662
0.0302182
0.0297465
0.029355
0.0289985
0.0286553
0.0283154
0.0279741
0.0276295
0.0272809
0.0269284
0.0265723
0.0262128
0.02585
0.0254843
0.0251157
0.0247443
0.0243702
0.0239933
0.0236137
0.0232313
0.0228463
0.0224586
0.0220681
0.021675
0.0212791
0.0208805
0.020479
0.0200748
0.0196677
0.0192578
0.0188451
0.0184295
0.0180111
0.0175897
0.0171654
0.0167381
0.0163078
0.0158745
0.0154381
0.0149986
0.014556
0.0141103
0.0136614
0.0132094
0.0127541
0.0122957
0.011834
0.0113692
0.0109009
0.0104295
0.00995461
0.00947659
0.00899505
0.00851014
0.00802201
0.00753003
0.0070352
0.00653621
0.00603432
0.00552855
0.00501921
0.00450664
0.00398996
0.00347006
0.0029464
0.00241885
0.0018879
0.00135307
0.000814424
0.000272105
-0.112513
-0.10672
-0.109295
-0.106952
-0.0977146
-0.0933639
-0.078301
-0.0511411
-0.039231
-0.0428105
-0.0498532
-0.0481489
-0.0359085
-0.0357547
-0.0602807
-0.118059
-0.197065
-0.244942
-0.2249
-0.125155
-0.0105708
0.0558687
0.0712112
0.0639044
0.052126
0.0428694
0.0371069
0.0337964
0.0319377
0.0308757
0.0302142
0.0297398
0.0293491
0.028994
0.0286522
0.0283132
0.0279726
0.0276285
0.0272803
0.0269281
0.0265721
0.0262126
0.0258499
0.0254842
0.0251156
0.0247443
0.0243701
0.0239933
0.0236137
0.0232313
0.0228463
0.0224586
0.0220681
0.021675
0.0212791
0.0208805
0.020479
0.0200748
0.0196677
0.0192578
0.0188451
0.0184295
0.0180111
0.0175897
0.0171654
0.0167381
0.0163078
0.0158745
0.0154381
0.0149986
0.014556
0.0141103
0.0136614
0.0132094
0.0127541
0.0122957
0.011834
0.0113692
0.0109009
0.0104295
0.00995461
0.00947659
0.00899505
0.00851014
0.00802201
0.00753003
0.0070352
0.00653621
0.00603432
0.00552855
0.00501921
0.00450664
0.00398995
0.00347006
0.0029464
0.00241884
0.00188791
0.00135307
0.000814422
0.000272105
-0.111953
-0.105719
-0.10824
-0.106023
-0.0971425
-0.0941706
-0.0799424
-0.0501742
-0.0356539
-0.0396192
-0.0487008
-0.048134
-0.0375041
-0.0394246
-0.0609647
-0.112185
-0.187797
-0.234249
-0.213372
-0.115169
-0.00508547
0.0587633
0.0727067
0.0650531
0.0530188
0.0434417
0.0373971
0.033915
0.0319739
0.0308795
0.0302084
0.029733
0.0293436
0.02899
0.0286494
0.0283114
0.0279714
0.0276277
0.0272798
0.0269277
0.0265719
0.0262125
0.0258499
0.0254842
0.0251156
0.0247442
0.0243701
0.0239933
0.0236137
0.0232313
0.0228463
0.0224586
0.0220681
0.021675
0.0212791
0.0208805
0.020479
0.0200748
0.0196677
0.0192578
0.0188451
0.0184295
0.0180111
0.0175897
0.0171654
0.0167381
0.0163078
0.0158745
0.0154381
0.0149986
0.014556
0.0141103
0.0136614
0.0132094
0.0127541
0.0122957
0.011834
0.0113692
0.0109009
0.0104295
0.00995461
0.00947659
0.00899505
0.00851014
0.00802201
0.00753003
0.0070352
0.00653621
0.00603432
0.00552855
0.00501921
0.00450664
0.00398995
0.00347006
0.0029464
0.00241884
0.00188791
0.00135307
0.000814419
0.000272104
-0.111564
-0.105184
-0.107449
-0.10531
-0.0968927
-0.0944401
-0.0804853
-0.0498921
-0.0343267
-0.0382405
-0.0479594
-0.0476891
-0.038461
-0.0424253
-0.0616474
-0.106756
-0.178963
-0.224184
-0.202967
-0.106438
-0.000513361
0.060938
0.0737088
0.0658586
0.0536861
0.0438807
0.037618
0.0340032
0.0319997
0.0308812
0.0302033
0.0297273
0.0293391
0.0289868
0.0286472
0.0283099
0.0279705
0.0276271
0.0272794
0.0269275
0.0265717
0.0262124
0.0258498
0.0254842
0.0251156
0.0247442
0.0243701
0.0239933
0.0236137
0.0232313
0.0228463
0.0224586
0.0220681
0.021675
0.0212791
0.0208805
0.020479
0.0200748
0.0196677
0.0192578
0.0188451
0.0184295
0.0180111
0.0175897
0.0171654
0.0167381
0.0163078
0.0158745
0.0154381
0.0149986
0.014556
0.0141103
0.0136614
0.0132094
0.0127541
0.0122957
0.011834
0.0113692
0.0109009
0.0104295
0.00995461
0.00947659
0.00899505
0.00851014
0.00802201
0.00753003
0.0070352
0.00653621
0.00603432
0.00552855
0.00501921
0.00450665
0.00398995
0.00347006
0.0029464
0.00241884
0.00188791
0.00135307
0.000814419
0.000272104
-0.111297
-0.105057
-0.106927
-0.104769
-0.0968443
-0.0943367
-0.0803072
-0.0501831
-0.0345015
-0.0379983
-0.0474527
-0.0469188
-0.0386793
-0.0441371
-0.0621778
-0.102312
-0.171284
-0.21542
-0.194327
-0.099451
0.00296111
0.0623833
0.0742779
0.0663623
0.054138
0.0441885
0.0377753
0.0340684
0.0320209
0.0308845
0.0302009
0.029724
0.0293363
0.0289848
0.0286458
0.028309
0.0279699
0.0276267
0.0272792
0.0269274
0.0265716
0.0262124
0.0258498
0.0254841
0.0251156
0.0247442
0.0243701
0.0239933
0.0236137
0.0232313
0.0228463
0.0224586
0.0220682
0.021675
0.0212791
0.0208805
0.020479
0.0200748
0.0196677
0.0192578
0.0188451
0.0184295
0.0180111
0.0175897
0.0171654
0.0167381
0.0163078
0.0158745
0.0154381
0.0149986
0.014556
0.0141103
0.0136614
0.0132094
0.0127541
0.0122957
0.011834
0.0113692
0.0109009
0.0104295
0.00995461
0.00947659
0.00899505
0.00851014
0.00802201
0.00753004
0.0070352
0.00653621
0.00603432
0.00552854
0.00501921
0.00450664
0.00398995
0.00347006
0.0029464
0.00241884
0.00188791
0.00135307
0.000814418
0.000272104
-0.111123
-0.105194
-0.106666
-0.104403
-0.0968801
-0.094093
-0.0798461
-0.0506151
-0.0356905
-0.0382149
-0.0471201
-0.0461462
-0.0384065
-0.0446907
-0.0625061
-0.0995696
-0.16585
-0.208826
-0.188107
-0.0946152
0.00520146
0.0631366
0.0744796
0.066594
0.0543828
0.0443682
0.0378726
0.0341132
0.0320385
0.0308897
0.0302013
0.0297231
0.0293352
0.0289838
0.0286451
0.0283085
0.0279695
0.0276265
0.027279
0.0269273
0.0265716
0.0262123
0.0258498
0.0254841
0.0251156
0.0247442
0.0243701
0.0239933
0.0236137
0.0232313
0.0228463
0.0224586
0.0220682
0.021675
0.0212791
0.0208805
0.020479
0.0200748
0.0196677
0.0192578
0.0188451
0.0184295
0.0180111
0.0175897
0.0171654
0.0167381
0.0163078
0.0158745
0.0154381
0.0149986
0.014556
0.0141103
0.0136614
0.0132094
0.0127541
0.0122957
0.011834
0.0113692
0.0109009
0.0104295
0.00995461
0.00947659
0.00899505
0.00851014
0.008022
0.00753004
0.0070352
0.00653621
0.00603432
0.00552854
0.00501921
0.00450664
0.00398995
0.00347006
0.0029464
0.00241884
0.00188791
0.00135307
0.000814419
0.000272104
-0.111024
-0.105468
-0.106641
-0.104258
-0.0969275
-0.0939411
-0.0794586
-0.0507932
-0.0360942
-0.0384432
-0.0469685
-0.0456003
-0.0379041
-0.0446372
-0.0631851
-0.0989264
-0.16364
-0.205503
-0.184615
-0.0921453
0.00630096
0.0634389
0.0744921
0.0666378
0.0544412
0.0444225
0.037904
0.0341284
0.0320447
0.0308914
0.0302011
0.0297224
0.0293345
0.0289833
0.0286448
0.0283083
0.0279694
0.0276264
0.027279
0.0269272
0.0265716
0.0262123
0.0258498
0.0254841
0.0251156
0.0247442
0.0243701
0.0239933
0.0236137
0.0232313
0.0228463
0.0224586
0.0220682
0.021675
0.0212791
0.0208805
0.020479
0.0200748
0.0196677
0.0192578
0.0188451
0.0184295
0.0180111
0.0175897
0.0171654
0.0167381
0.0163078
0.0158745
0.0154381
0.0149986
0.014556
0.0141103
0.0136614
0.0132094
0.0127541
0.0122957
0.011834
0.0113692
0.0109009
0.0104295
0.00995461
0.00947659
0.00899505
0.00851015
0.008022
0.00753004
0.0070352
0.00653621
0.00603432
0.00552854
0.00501922
0.00450664
0.00398995
0.00347006
0.00294639
0.00241884
0.00188791
0.00135307
0.000814419
0.000272105
-0.110523
-0.10844
-0.111513
-0.112446
-0.122449
-0.119022
-0.100624
-0.1183
-0.15304
-0.164117
-0.192988
-0.242277
-0.16867
0.0165131
0.128521
0.127935
0.0808626
0.035056
0.00613516
-0.00634356
-0.00936716
-0.00842867
-0.00569427
-0.000675315
0.00654982
0.014226
0.0206778
0.0251354
0.0277411
0.0290237
0.0294997
0.0295358
0.0293515
0.0290644
0.0287324
0.0283822
0.0280253
0.0276661
0.0273059
0.026945
0.026583
0.0262195
0.0258542
0.0254868
0.0251172
0.0247452
0.0243707
0.0239936
0.0236138
0.0232314
0.0228464
0.0224586
0.0220682
0.021675
0.0212791
0.0208805
0.020479
0.0200748
0.0196677
0.0192578
0.0188451
0.0184295
0.0180111
0.0175897
0.0171654
0.0167381
0.0163078
0.0158745
0.0154381
0.0149986
0.014556
0.0141103
0.0136614
0.0132094
0.0127541
0.0122957
0.011834
0.0113692
0.0109009
0.0104295
0.00995461
0.00947659
0.00899505
0.00851014
0.008022
0.00753004
0.0070352
0.00653621
0.00603433
0.00552853
0.00501922
0.00450664
0.00398995
0.00347006
0.00294639
0.00241885
0.0018879
0.00135308
0.000814413
0.000272107
-0.110718
-0.108779
-0.111859
-0.11265
-0.122671
-0.119023
-0.100279
-0.117753
-0.154531
-0.165427
-0.193487
-0.246495
-0.175392
0.0101263
0.126319
0.126419
0.0795807
0.0341293
0.0055034
-0.00654659
-0.00935993
-0.00840524
-0.00571296
-0.000746491
0.00649803
0.0142117
0.0206868
0.0251498
0.0277527
0.0290306
0.029503
0.029537
0.0293518
0.0290643
0.0287322
0.028382
0.0280251
0.027666
0.0273059
0.026945
0.0265829
0.0262194
0.0258542
0.0254868
0.0251172
0.0247452
0.0243707
0.0239936
0.0236138
0.0232314
0.0228464
0.0224586
0.0220682
0.021675
0.0212791
0.0208805
0.020479
0.0200748
0.0196677
0.0192578
0.0188451
0.0184295
0.0180111
0.0175897
0.0171654
0.0167381
0.0163078
0.0158745
0.0154381
0.0149986
0.014556
0.0141103
0.0136614
0.0132094
0.0127541
0.0122957
0.011834
0.0113692
0.0109009
0.0104295
0.00995461
0.00947659
0.00899505
0.00851014
0.008022
0.00753004
0.0070352
0.00653621
0.00603433
0.00552854
0.00501922
0.00450664
0.00398995
0.00347006
0.00294639
0.00241885
0.0018879
0.00135308
0.000814412
0.000272107
-0.111027
-0.109312
-0.112258
-0.113133
-0.123184
-0.118697
-0.0989361
-0.120879
-0.161096
-0.168951
-0.193521
-0.252865
-0.185199
0.000417568
0.120919
0.122697
0.0765134
0.0316391
0.00355121
-0.00756208
-0.00962699
-0.00840525
-0.0057335
-0.000799135
0.00646885
0.0142307
0.0207299
0.025191
0.0277812
0.0290466
0.0295104
0.0295399
0.0293525
0.0290642
0.0287318
0.0283816
0.0280248
0.0276658
0.0273057
0.0269449
0.0265829
0.0262194
0.0258542
0.0254868
0.0251172
0.0247452
0.0243707
0.0239936
0.0236138
0.0232314
0.0228464
0.0224586
0.0220682
0.021675
0.0212791
0.0208805
0.020479
0.0200748
0.0196677
0.0192578
0.0188451
0.0184295
0.0180111
0.0175897
0.0171654
0.0167381
0.0163078
0.0158745
0.0154381
0.0149986
0.014556
0.0141103
0.0136614
0.0132094
0.0127541
0.0122957
0.011834
0.0113692
0.0109009
0.0104295
0.00995461
0.00947659
0.00899505
0.00851014
0.00802201
0.00753004
0.0070352
0.00653621
0.00603432
0.00552854
0.00501921
0.00450664
0.00398995
0.00347006
0.00294639
0.00241885
0.0018879
0.00135308
0.000814412
0.000272107
-0.11146
-0.109986
-0.112721
-0.114095
-0.123877
-0.11873
-0.0973598
-0.127603
-0.171555
-0.174415
-0.192859
-0.258947
-0.196111
-0.0104018
0.112185
0.115946
0.0711191
0.0272312
0.000105686
-0.00941389
-0.0101187
-0.00836909
-0.00571128
-0.000832681
0.00646164
0.0142745
0.0207933
0.0252443
0.0278145
0.0290629
0.0295165
0.029541
0.0293518
0.029063
0.0287308
0.0283808
0.0280243
0.0276654
0.0273055
0.0269447
0.0265828
0.0262194
0.0258541
0.0254868
0.0251172
0.0247452
0.0243707
0.0239936
0.0236138
0.0232314
0.0228464
0.0224586
0.0220682
0.021675
0.0212791
0.0208805
0.020479
0.0200748
0.0196677
0.0192578
0.0188451
0.0184295
0.0180111
0.0175897
0.0171654
0.0167381
0.0163078
0.0158745
0.0154381
0.0149986
0.014556
0.0141103
0.0136614
0.0132094
0.0127541
0.0122957
0.011834
0.0113692
0.0109009
0.0104295
0.00995461
0.00947659
0.00899505
0.00851014
0.00802201
0.00753003
0.0070352
0.00653621
0.00603432
0.00552854
0.00501921
0.00450664
0.00398995
0.00347006
0.00294639
0.00241885
0.0018879
0.00135308
0.000814412
0.000272107
-0.111963
-0.110673
-0.113344
-0.115639
-0.124848
-0.119228
-0.0961788
-0.137856
-0.184004
-0.181025
-0.19212
-0.264607
-0.206978
-0.0209414
0.100561
0.106256
0.0630278
0.0205212
-0.00513302
-0.0121837
-0.0108463
-0.00830364
-0.00565525
-0.000851273
0.00646918
0.0143371
0.0208727
0.0253063
0.0278497
0.0290775
0.0295197
0.0295394
0.029349
0.0290604
0.0287287
0.0283794
0.0280233
0.0276648
0.0273051
0.0269445
0.0265826
0.0262193
0.0258541
0.0254867
0.0251172
0.0247452
0.0243707
0.0239936
0.0236138
0.0232314
0.0228464
0.0224586
0.0220682
0.021675
0.0212791
0.0208805
0.020479
0.0200748
0.0196677
0.0192578
0.0188451
0.0184295
0.0180111
0.0175897