/*--------------------------------*- C++ -*----------------------------------*\
| =========                 |                                                 |
| \\      /  F ield         | OpenFOAM: The Open Source CFD Toolbox           |
|  \\    /   O peration     | Version:  2.4.0                                 |
|   \\  /    A nd           | Web:      www.OpenFOAM.org                      |
|    \\/     M anipulation  |                                                 |
\*---------------------------------------------------------------------------*/
FoamFile
{
    version     2.0;
    format      ascii;
    class       volVectorField;
    location    "51";
    object      U;
}
// * * * * * * * * * * * * * * * * * * * * * * * * * * * * * * * * * * * * * //

dimensions      [0 1 -1 0 0 0 0];

internalField   nonuniform List<vector> 
4400
(
(0.0938713 -0.000173331 0)
(0.086562 0.00129136 0)
(0.100758 -0.00216785 0)
(0.107695 -0.000285194 0)
(0.0927402 0.0023824 0)
(0.0992712 -0.00216479 0)
(0.103926 0.000647216 0)
(0.0916693 0.00150491 0)
(0.104182 -0.00203862 0)
(0.0974789 0.00138326 0)
(0.0975154 0.00055471 0)
(0.1006 -0.00187169 0)
(0.106083 0.0014635 0)
(0.0960999 -0.00046921 0)
(0.107383 -0.000534303 0)
(0.0980613 0.000861216 0)
(0.10708 -0.000762371 0)
(0.105239 -0.000654286 0)
(0.117096 0.00135197 0)
(0.0911321 -0.00358675 0)
(0.269691 -5.68419e-05 0)
(0.26289 0.00416923 0)
(0.291219 -0.00769312 0)
(0.276638 -0.000165818 0)
(0.278435 0.00724622 0)
(0.281027 -0.00724152 0)
(0.278732 0.00239115 0)
(0.271644 0.00377843 0)
(0.290695 -0.00647035 0)
(0.264104 0.00417762 0)
(0.293864 0.000966098 0)
(0.271651 -0.00576429 0)
(0.292785 0.00475051 0)
(0.274111 -0.00202094 0)
(0.291083 -0.00114894 0)
(0.277603 0.00184669 0)
(0.292169 -0.00219229 0)
(0.292403 -0.00220469 0)
(0.294594 0.00183551 0)
(0.298443 -0.00433259 0)
(0.427688 0.000500608 0)
(0.420559 0.00653099 0)
(0.468461 -0.01356 0)
(0.418579 0.00141593 0)
(0.453217 0.0113162 0)
(0.442652 -0.0125552 0)
(0.433684 0.00532423 0)
(0.437746 0.00460736 0)
(0.459572 -0.0101878 0)
(0.409803 0.00695959 0)
(0.473801 9.04816e-05 0)
(0.424979 -0.00880824 0)
(0.454249 0.00783513 0)
(0.447473 -0.00336911 0)
(0.440976 -0.00187576 0)
(0.453347 0.00328326 0)
(0.443286 -0.00501112 0)
(0.464569 -0.00250612 0)
(0.449281 0.00113604 0)
(0.464281 -0.00597101 0)
(0.567505 0.0014152 0)
(0.547728 0.00721002 0)
(0.636873 -0.0179466 0)
(0.537568 0.00359248 0)
(0.603842 0.0137624 0)
(0.595402 -0.0159156 0)
(0.563414 0.0083873 0)
(0.586168 0.00447929 0)
(0.612665 -0.0120189 0)
(0.537613 0.00971866 0)
(0.62602 -0.00154495 0)
(0.571478 -0.00967538 0)
(0.580792 0.00890005 0)
(0.612449 -0.0034087 0)
(0.567702 -0.00248577 0)
(0.606146 0.00425183 0)
(0.582698 -0.00634249 0)
(0.606443 -0.00399309 0)
(0.590027 0.0018172 0)
(0.604291 -0.00893727 0)
(0.696505 0.00436121 0)
(0.637559 0.00464284 0)
(0.780898 -0.0230633 0)
(0.650905 0.00936815 0)
(0.711939 0.0119702 0)
(0.735896 -0.0181712 0)
(0.673059 0.0134137 0)
(0.702037 0.00101485 0)
(0.745145 -0.0124709 0)
(0.651211 0.0139588 0)
(0.740129 -0.00628712 0)
(0.706477 -0.0078827 0)
(0.680287 0.009186 0)
(0.743637 -0.00532938 0)
(0.683261 -0.000884392 0)
(0.723765 0.00366978 0)
(0.703889 -0.00725185 0)
(0.724849 -0.00476209 0)
(0.706691 0.00267321 0)
(0.719919 -0.0128951 0)
(0.812991 0.00936701 0)
(0.712457 0.00208199 0)
(0.877428 -0.0334288 0)
(0.762265 0.0189241 0)
(0.788667 0.00834189 0)
(0.844023 -0.0230223 0)
(0.771792 0.0215835 0)
(0.78808 -0.00471696 0)
(0.844832 -0.0145491 0)
(0.752478 0.0206309 0)
(0.821967 -0.013383 0)
(0.814409 -0.00604422 0)
(0.767318 0.0110216 0)
(0.83694 -0.00962181 0)
(0.781777 0.00164035 0)
(0.814257 0.00306853 0)
(0.798582 -0.00877047 0)
(0.819047 -0.00535517 0)
(0.80042 0.00414077 0)
(0.811767 -0.0168009 0)
(0.904202 0.0141038 0)
(0.792224 0.00299124 0)
(0.937327 -0.0469746 0)
(0.855593 0.0292972 0)
(0.853644 0.00590649 0)
(0.919397 -0.0303048 0)
(0.855378 0.0313483 0)
(0.859682 -0.0097716 0)
(0.91578 -0.0181565 0)
(0.837875 0.0285003 0)
(0.885995 -0.0204267 0)
(0.893167 -0.00515952 0)
(0.844247 0.0144762 0)
(0.904256 -0.0146839 0)
(0.861364 0.00437076 0)
(0.884775 0.00284452 0)
(0.872102 -0.0105851 0)
(0.891438 -0.00562846 0)
(0.872746 0.0053184 0)
(0.88452 -0.0197389 0)
(0.965325 0.0173202 0)
(0.870011 0.00610022 0)
(0.977344 -0.0595655 0)
(0.924721 0.0387202 0)
(0.910773 0.00464703 0)
(0.969165 -0.0380563 0)
(0.919314 0.0405998 0)
(0.919391 -0.0134241 0)
(0.964054 -0.0218322 0)
(0.90559 0.0361296 0)
(0.936899 -0.0260646 0)
(0.947056 -0.00518944 0)
(0.908059 0.0184708 0)
(0.951394 -0.0195574 0)
(0.9223 0.00684357 0)
(0.937546 0.0029923 0)
(0.927651 -0.0124275 0)
(0.944993 -0.00533695 0)
(0.925932 0.00563853 0)
(0.940288 -0.0210754 0)
(0.9989 0.0190401 0)
(0.934794 0.00937214 0)
(1.00096 -0.0689767 0)
(0.969943 0.0463648 0)
(0.956594 0.00403859 0)
(0.996247 -0.0443114 0)
(0.962764 0.0479811 0)
(0.963511 -0.0159028 0)
(0.990568 -0.0246039 0)
(0.954347 0.0422009 0)
(0.972423 -0.029675 0)
(0.978672 -0.00571826 0)
(0.955472 0.0220919 0)
(0.979608 -0.02358 0)
(0.963739 0.0088092 0)
(0.972418 0.0033251 0)
(0.964838 -0.0142378 0)
(0.979763 -0.0043166 0)
(0.960966 0.0049217 0)
(0.978349 -0.0209645 0)
(1.00844 0.0195627 0)
(0.981372 0.0117723 0)
(1.00662 -0.0739696 0)
(0.992395 0.0513512 0)
(0.987325 0.00408635 0)
(1.00159 -0.0474488 0)
(0.986541 0.0524107 0)
(0.989174 -0.0168876 0)
(0.996247 -0.025963 0)
(0.983427 0.0455039 0)
(0.990285 -0.0308744 0)
(0.989789 -0.00639804 0)
(0.984289 0.0247627 0)
(0.989804 -0.0260861 0)
(0.984941 0.0101607 0)
(0.989614 0.00358027 0)
(0.982919 -0.0157646 0)
(0.995302 -0.00282987 0)
(0.978414 0.00329264 0)
(0.996744 -0.0197394 0)
(0.996703 0.0191802 0)
(1.00763 0.0123657 0)
(0.99276 -0.0736598 0)
(0.993387 0.0528229 0)
(0.99992 0.0043443 0)
(0.985715 -0.0466244 0)
(0.991638 0.0529821 0)
(0.994679 -0.0163009 0)
(0.982771 -0.0255366 0)
(0.992573 0.045439 0)
(0.989587 -0.0296128 0)
(0.981696 -0.00696744 0)
(0.993505 0.0258085 0)
(0.982666 -0.0266733 0)
(0.98551 0.0107312 0)
(0.989848 0.00360837 0)
(0.981165 -0.016495 0)
(0.991953 -0.00133458 0)
(0.978411 0.00117053 0)
(0.994122 -0.0176462 0)
(0.966221 0.018061 0)
(1.01207 0.0110211 0)
(0.958103 -0.0679952 0)
(0.974271 0.0502811 0)
(0.991683 0.00440094 0)
(0.949439 -0.0422034 0)
(0.978504 0.0493972 0)
(0.979059 -0.0145074 0)
(0.951557 -0.0234887 0)
(0.981721 0.0420372 0)
(0.969914 -0.0264661 0)
(0.954915 -0.00716727 0)
(0.983051 0.0246927 0)
(0.957822 -0.025148 0)
(0.965751 0.0103702 0)
(0.973268 0.00332762 0)
(0.95884 -0.0161008 0)
(0.970787 -0.000288981 0)
(0.960108 -0.000854397 0)
(0.970513 -0.0149837 0)
(0.91989 0.0160861 0)
(0.992558 0.008517 0)
(0.901562 -0.0580209 0)
(0.93672 0.0441217 0)
(0.959859 0.00435775 0)
(0.894294 -0.0354467 0)
(0.947512 0.0422665 0)
(0.941775 -0.0117903 0)
(0.903524 -0.0202819 0)
(0.95148 0.0360431 0)
(0.93022 -0.0219329 0)
(0.910328 -0.00707719 0)
(0.953289 0.0216782 0)
(0.914105 -0.0215903 0)
(0.927629 0.00897673 0)
(0.93883 0.00278903 0)
(0.916325 -0.0146105 0)
(0.932878 -6.76759e-05 0)
(0.922397 -0.00231852 0)
(0.927081 -0.012182 0)
(0.861131 0.0130209 0)
(0.945155 0.00606669 0)
(0.822875 -0.0453976 0)
(0.883797 0.0350393 0)
(0.902266 0.00505335 0)
(0.823454 -0.0278938 0)
(0.900598 0.0326211 0)
(0.882209 -0.00815536 0)
(0.840538 -0.0167104 0)
(0.903251 0.0284387 0)
(0.869081 -0.0164117 0)
(0.851257 -0.00720169 0)
(0.904213 0.0176094 0)
(0.851473 -0.0167251 0)
(0.874213 0.00647596 0)
(0.884784 0.00224352 0)
(0.855538 -0.0123558 0)
(0.878436 -0.000725601 0)
(0.864702 -0.00285491 0)
(0.865374 -0.00961891 0)
(0.791909 0.00878287 0)
(0.862925 0.00529868 0)
(0.726721 -0.0326821 0)
(0.82037 0.023572 0)
(0.817625 0.00681774 0)
(0.742978 -0.0213654 0)
(0.838636 0.021818 0)
(0.798718 -0.00350665 0)
(0.766351 -0.0140817 0)
(0.83613 0.0205212 0)
(0.786705 -0.0104451 0)
(0.781295 -0.0080699 0)
(0.833304 0.0134783 0)
(0.771419 -0.0116351 0)
(0.805554 0.00321469 0)
(0.808699 0.00218003 0)
(0.777938 -0.00990817 0)
(0.805599 -0.00187764 0)
(0.786236 -0.00237542 0)
(0.78628 -0.00763409 0)
(0.706126 0.00430023 0)
(0.742547 0.00725431 0)
(0.627961 -0.0235036 0)
(0.740192 0.0118492 0)
(0.704738 0.00952728 0)
(0.657835 -0.0174882 0)
(0.750142 0.0126487 0)
(0.690675 0.00166798 0)
(0.681492 -0.0131025 0)
(0.741801 0.0141263 0)
(0.68507 -0.00506289 0)
(0.696051 -0.00942231 0)
(0.733819 0.0104691 0)
(0.673907 -0.00715299 0)
(0.71533 0.000213929 0)
(0.707513 0.0028212 0)
(0.682622 -0.00779204 0)
(0.709737 -0.00278553 0)
(0.685564 -0.00124712 0)
(0.688309 -0.00628967 0)
(0.591147 0.00165735 0)
(0.600291 0.00910188 0)
(0.531285 -0.0186459 0)
(0.619814 0.00478912 0)
(0.571701 0.0118577 0)
(0.559326 -0.0153868 0)
(0.619168 0.00789908 0)
(0.566314 0.00523659 0)
(0.575595 -0.0125352 0)
(0.611724 0.0104186 0)
(0.566426 -0.00141069 0)
(0.583363 -0.00971385 0)
(0.602326 0.00891076 0)
(0.558259 -0.0040027 0)
(0.596561 -0.00173778 0)
(0.581437 0.00357009 0)
(0.56733 -0.00620288 0)
(0.586243 -0.002855 0)
(0.56262 -9.07315e-05 0)
(0.567789 -0.00512545 0)
(0.447103 0.000763782 0)
(0.452599 0.00787318 0)
(0.413436 -0.0139698 0)
(0.459191 0.00229244 0)
(0.431776 0.0106179 0)
(0.430078 -0.0120456 0)
(0.456826 0.00557674 0)
(0.431917 0.00531422 0)
(0.437318 -0.010131 0)
(0.455409 0.00769477 0)
(0.43117 0.000132433 0)
(0.439779 -0.00799205 0)
(0.448657 0.00710682 0)
(0.42479 -0.00236352 0)
(0.44949 -0.00228101 0)
(0.435721 0.0035282 0)
(0.429947 -0.00467877 0)
(0.43702 -0.00213639 0)
(0.420725 0.000483547 0)
(0.424286 -0.00375646 0)
(0.281771 0.000180888 0)
(0.292963 0.00508171 0)
(0.265914 -0.0080374 0)
(0.279436 0.000218576 0)
(0.278966 0.00709494 0)
(0.272275 -0.00718156 0)
(0.281281 0.0026641 0)
(0.279706 0.00397515 0)
(0.274131 -0.00628353 0)
(0.284497 0.00429222 0)
(0.277177 0.00104794 0)
(0.274604 -0.00529371 0)
(0.280451 0.00422481 0)
(0.2717 -0.00107526 0)
(0.280547 -0.0019306 0)
(0.274539 0.00266643 0)
(0.271677 -0.00278286 0)
(0.269897 -0.00131931 0)
(0.26244 0.000725486 0)
(0.261926 -0.00204401 0)
(0.097814 4.13339e-05 0)
(0.112082 0.00161433 0)
(0.0962769 -0.00245081 0)
(0.0889522 -0.000329938 0)
(0.104138 0.00235354 0)
(0.0967195 -0.00225619 0)
(0.0934755 0.000650893 0)
(0.104489 0.00144766 0)
(0.0955907 -0.00203291 0)
(0.0978721 0.00126624 0)
(0.103458 0.000580732 0)
(0.0946896 -0.00178465 0)
(0.0967314 0.0013293 0)
(0.0987042 -0.000298417 0)
(0.0964256 -0.000732568 0)
(0.0972776 0.000983474 0)
(0.0964989 -0.000877176 0)
(0.0910534 -0.00037316 0)
(0.0897863 0.000408346 0)
(0.088799 -0.000539287 0)
(0.168389 -0.00585837 0)
(0.144636 0.00589041 0)
(0.216619 -0.0193873 0)
(0.188825 -0.00820481 0)
(0.271389 0.0186197 0)
(0.183337 0.00831461 0)
(0.30434 0.0239794 0)
(0.463806 -0.0203878 0)
(0.466321 -0.106268 0)
(0.506864 -0.0616635 0)
(0.456373 0.0217665 0)
(0.546714 -0.0345443 0)
(0.620152 -0.0864338 0)
(0.663282 -0.0849685 0)
(0.670253 -0.121478 0)
(0.845627 -0.251072 0)
(0.973963 -0.364286 0)
(0.955942 -0.378156 0)
(0.83624 -0.280092 0)
(0.780673 -0.00117921 0)
(0.785959 0.153329 0)
(0.815624 0.0707568 0)
(0.938375 0.0436131 0)
(0.973485 -0.0435604 0)
(0.939221 -0.0905992 0)
(0.945234 0.0689503 0)
(0.85034 0.115633 0)
(0.799294 0.0154928 0)
(0.715174 -0.0413246 0)
(0.527956 -0.15361 0)
(0.512575 -0.247965 0)
(0.55298 -0.197152 0)
(0.548652 -0.0296952 0)
(0.627649 0.197676 0)
(0.605445 0.337556 0)
(0.512193 0.350522 0)
(0.517963 0.275039 0)
(0.476612 0.1945 0)
(0.529862 0.0197677 0)
(0.588209 -0.182682 0)
(0.55259 -0.258995 0)
(0.554199 -0.171101 0)
(0.615128 -0.0113584 0)
(0.573471 0.112232 0)
(0.517294 0.122585 0)
(0.533772 0.0511455 0)
(0.497072 0.0241686 0)
(0.4901 -0.0101372 0)
(0.563937 -0.102924 0)
(0.587984 -0.1764 0)
(0.552631 -0.175484 0)
(0.552861 -0.0809584 0)
(0.575852 0.0412566 0)
(0.56203 0.102879 0)
(0.529802 0.0957601 0)
(0.505517 0.057237 0)
(0.489562 0.0191341 0)
(0.476129 -0.00468032 0)
(0.463106 -0.0140237 0)
(0.450616 -0.0144072 0)
(0.439199 -0.011243 0)
(0.429387 -0.00769528 0)
(0.421426 -0.00495317 0)
(0.41532 -0.00314374 0)
(0.410879 -0.00202718 0)
(0.407811 -0.00133943 0)
(0.405801 -0.000897568 0)
(0.40454 -0.000598832 0)
(0.40379 -0.000391083 0)
(0.403358 -0.000247156 0)
(0.403122 -0.000150226 0)
(0.402997 -8.75728e-05 0)
(0.402932 -4.89499e-05 0)
(0.402901 -2.62434e-05 0)
(0.402885 -1.35135e-05 0)
(0.402879 -6.69008e-06 0)
(0.402875 -3.18888e-06 0)
(0.402873 -1.46548e-06 0)
(0.402873 -6.51277e-07 0)
(0.402873 -2.78561e-07 0)
(0.402873 -1.19206e-07 0)
(0.402873 -4.85796e-08 0)
(0.402873 -1.85039e-08 0)
(0.402873 -7.54967e-09 0)
(0.402873 -1.9257e-10 0)
(0.402873 -1.38536e-09 0)
(0.402873 1.12927e-09 0)
(0.402873 -4.22436e-10 0)
(0.402873 3.05721e-09 0)
(0.402873 -5.03012e-09 0)
(0.402873 1.04401e-08 0)
(0.402873 -1.04473e-08 0)
(0.402873 9.12839e-09 0)
(0.402873 -6.15763e-09 0)
(0.402873 4.24616e-09 0)
(0.402873 -3.01447e-09 0)
(0.402873 5.35193e-09 0)
(0.402873 -8.84003e-09 0)
(0.402873 7.39496e-09 0)
(0.402873 -2.24554e-09 0)
(0.32584 -0.0103712 0)
(0.292473 0.00407504 0)
(0.384538 -0.0182726 0)
(0.295693 -0.0156651 0)
(0.410792 0.0160264 0)
(0.359462 0.00799065 0)
(0.380429 0.000678935 0)
(0.593269 -0.0404317 0)
(0.591223 -0.10338 0)
(0.608089 -0.0697767 0)
(0.609002 0.0113913 0)
(0.663376 -0.0338413 0)
(0.719139 -0.0897053 0)
(0.756964 -0.0995087 0)
(0.763416 -0.139337 0)
(0.905234 -0.265957 0)
(0.987839 -0.36806 0)
(0.928314 -0.367015 0)
(0.788458 -0.262493 0)
(0.733214 0.00350844 0)
(0.77481 0.146516 0)
(0.796647 0.0597613 0)
(0.931406 0.0287666 0)
(0.953097 -0.0446025 0)
(0.901981 -0.081117 0)
(0.915933 0.0764526 0)
(0.826992 0.124284 0)
(0.778189 0.0311006 0)
(0.683162 -0.0212653 0)
(0.49635 -0.140828 0)
(0.476708 -0.250646 0)
(0.520383 -0.197809 0)
(0.516501 -0.0302434 0)
(0.597379 0.194403 0)
(0.587022 0.341159 0)
(0.510428 0.354132 0)
(0.530991 0.276424 0)
(0.494982 0.195346 0)
(0.55561 0.015615 0)
(0.602632 -0.185574 0)
(0.559302 -0.259187 0)
(0.555526 -0.173769 0)
(0.615986 -0.0123999 0)
(0.577009 0.118232 0)
(0.528503 0.125986 0)
(0.551232 0.0524212 0)
(0.509062 0.0269136 0)
(0.508018 -0.0137012 0)
(0.577781 -0.109054 0)
(0.588023 -0.17663 0)
(0.54305 -0.172355 0)
(0.536753 -0.0804384 0)
(0.559873 0.0407772 0)
(0.552042 0.104602 0)
(0.526813 0.0989042 0)
(0.50793 0.0600586 0)
(0.494798 0.021273 0)
(0.481857 -0.00281289 0)
(0.467989 -0.012203 0)
(0.45425 -0.0126817 0)
(0.441702 -0.00971951 0)
(0.431058 -0.00643618 0)
(0.422546 -0.00396973 0)
(0.416089 -0.00241405 0)
(0.411419 -0.00151169 0)
(0.40819 -0.000992361 0)
(0.406062 -0.000674499 0)
(0.404712 -0.000461732 0)
(0.403898 -0.000310324 0)
(0.403421 -0.000201446 0)
(0.403155 -0.000125327 0)
(0.403011 -7.44729e-05 0)
(0.402935 -4.22969e-05 0)
(0.402898 -2.29646e-05 0)
(0.402878 -1.19449e-05 0)
(0.40287 -5.96654e-06 0)
(0.402865 -2.85569e-06 0)
(0.402863 -1.32258e-06 0)
(0.402863 -5.88479e-07 0)
(0.402862 -2.49983e-07 0)
(0.402862 -1.12177e-07 0)
(0.402862 -4.00578e-08 0)
(0.402862 -2.01926e-08 0)
(0.402862 -7.13117e-09 0)
(0.402862 7.56158e-10 0)
(0.402862 -4.24632e-09 0)
(0.402862 3.83609e-09 0)
(0.402862 1.21089e-11 0)
(0.402862 6.55536e-11 0)
(0.402862 6.8636e-11 0)
(0.402862 2.54324e-09 0)
(0.402862 -2.69847e-09 0)
(0.402862 3.93517e-09 0)
(0.402862 -2.97507e-09 0)
(0.402862 2.3634e-09 0)
(0.402862 -2.20526e-09 0)
(0.402862 2.629e-09 0)
(0.402862 -4.05183e-09 0)
(0.402862 4.74171e-09 0)
(0.402862 -1.07316e-09 0)
(0.490807 -0.0108738 0)
(0.43763 -0.000581565 0)
(0.550022 -0.0176359 0)
(0.446604 -0.0156956 0)
(0.535505 0.00540463 0)
(0.548257 0.00733832 0)
(0.516118 -0.0101425 0)
(0.704734 -0.0635052 0)
(0.710797 -0.101075 0)
(0.697078 -0.0739669 0)
(0.72551 -0.00473526 0)
(0.761103 -0.0344241 0)
(0.806371 -0.0892532 0)
(0.833033 -0.109551 0)
(0.83049 -0.154439 0)
(0.942879 -0.276209 0)
(0.980144 -0.36466 0)
(0.881001 -0.35009 0)
(0.728809 -0.241222 0)
(0.677341 0.00497601 0)
(0.748267 0.134736 0)
(0.768788 0.0490376 0)
(0.909346 0.0143428 0)
(0.912382 -0.0438127 0)
(0.84912 -0.0697272 0)
(0.871974 0.0827039 0)
(0.791015 0.131195 0)
(0.747228 0.0475415 0)
(0.642571 -0.000485706 0)
(0.460818 -0.128282 0)
(0.436875 -0.252979 0)
(0.483153 -0.198693 0)
(0.480196 -0.0309902 0)
(0.562903 0.189901 0)
(0.564081 0.34227 0)
(0.504879 0.354608 0)
(0.539422 0.276246 0)
(0.510803 0.195059 0)
(0.579249 0.0115447 0)
(0.614571 -0.187055 0)
(0.561151 -0.258189 0)
(0.553964 -0.175571 0)
(0.612401 -0.0133376 0)
(0.574536 0.123201 0)
(0.536056 0.127905 0)
(0.563783 0.0537713 0)
(0.518481 0.0297206 0)
(0.524857 -0.0174747 0)
(0.58743 -0.113882 0)
(0.582667 -0.175081 0)
(0.528642 -0.16786 0)
(0.51635 -0.0793432 0)
(0.539297 0.0398759 0)
(0.537385 0.105288 0)
(0.519519 0.101061 0)
(0.506515 0.0622619 0)
(0.496621 0.0231842 0)
(0.484548 -0.000930903 0)
(0.470235 -0.0102599 0)
(0.455677 -0.0108217 0)
(0.442429 -0.00809137 0)
(0.431352 -0.00510946 0)
(0.422638 -0.00294742 0)
(0.416121 -0.00166288 0)
(0.41145 -0.00098347 0)
(0.408231 -0.000636447 0)
(0.406106 -0.000444442 0)
(0.404749 -0.000318939 0)
(0.403921 -0.000225097 0)
(0.403429 -0.000152445 0)
(0.403151 -9.81631e-05 0)
(0.402997 -5.99111e-05 0)
(0.402915 -3.47554e-05 0)
(0.402874 -1.91737e-05 0)
(0.402851 -1.00953e-05 0)
(0.402842 -5.09618e-06 0)
(0.402837 -2.44906e-06 0)
(0.402834 -1.14441e-06 0)
(0.402834 -5.09071e-07 0)
(0.402833 -2.1374e-07 0)
(0.402833 -1.02157e-07 0)
(0.402833 -2.99763e-08 0)
(0.402833 -2.09197e-08 0)
(0.402833 -6.32351e-09 0)
(0.402833 1.33216e-09 0)
(0.402833 -7.18966e-09 0)
(0.402833 5.90939e-09 0)
(0.402833 2.5163e-10 0)
(0.402833 -2.65378e-09 0)
(0.402833 5.11845e-09 0)
(0.402833 -4.01717e-09 0)
(0.402833 4.17584e-09 0)
(0.402833 1.825e-10 0)
(0.402833 -5.06926e-10 0)
(0.402833 9.11331e-10 0)
(0.402833 -6.10624e-10 0)
(0.402833 -1.09591e-09 0)
(0.402833 1.61956e-09 0)
(0.402833 1.28582e-09 0)
(0.402833 2.71657e-10 0)
(0.632573 -0.0098898 0)
(0.570123 -0.00399825 0)
(0.683001 -0.0205283 0)
(0.593632 -0.0111416 0)
(0.648359 -0.00694267 0)
(0.695351 0.000146822 0)
(0.65877 -0.0121294 0)
(0.807279 -0.0804137 0)
(0.801364 -0.0997027 0)
(0.780033 -0.074432 0)
(0.812168 -0.0210363 0)
(0.831427 -0.036488 0)
(0.871024 -0.0858993 0)
(0.880473 -0.116505 0)
(0.876593 -0.169196 0)
(0.962269 -0.281015 0)
(0.950835 -0.353403 0)
(0.816821 -0.328317 0)
(0.65898 -0.218492 0)
(0.617775 0.00248306 0)
(0.710555 0.119016 0)
(0.734252 0.0382857 0)
(0.868968 0.00187075 0)
(0.85108 -0.0408021 0)
(0.783144 -0.0573194 0)
(0.814482 0.0873973 0)
(0.743363 0.136137 0)
(0.707159 0.0641912 0)
(0.594769 0.0208227 0)
(0.42217 -0.116423 0)
(0.394245 -0.255246 0)
(0.441699 -0.199787 0)
(0.439992 -0.0323127 0)
(0.524178 0.184733 0)
(0.535963 0.341491 0)
(0.495532 0.352402 0)
(0.542922 0.274564 0)
(0.523612 0.193421 0)
(0.600404 0.00756146 0)
(0.624407 -0.186834 0)
(0.558361 -0.25598 0)
(0.548872 -0.176593 0)
(0.604115 -0.0139372 0)
(0.566104 0.127013 0)
(0.539698 0.128269 0)
(0.570756 0.0551697 0)
(0.524963 0.0322501 0)
(0.539395 -0.0213755 0)
(0.592162 -0.117135 0)
(0.571903 -0.171714 0)
(0.509618 -0.162144 0)
(0.491922 -0.0777905 0)
(0.514382 0.0385567 0)
(0.518229 0.104932 0)
(0.50797 0.102178 0)
(0.501211 0.0637883 0)
(0.494882 0.0248072 0)
(0.484018 0.000898246 0)
(0.469668 -0.00825558 0)
(0.454753 -0.00888928 0)
(0.441275 -0.00641776 0)
(0.430197 -0.00376772 0)
(0.421655 -0.00193047 0)
(0.415381 -0.000925693 0)
(0.410946 -0.000469516 0)
(0.407913 -0.00029116 0)
(0.405912 -0.000220696 0)
(0.404628 -0.000179064 0)
(0.403838 -0.000140702 0)
(0.403363 -0.000103263 0)
(0.403089 -7.04839e-05 0)
(0.402936 -4.48315e-05 0)
(0.402853 -2.68158e-05 0)
(0.402811 -1.51175e-05 0)
(0.402787 -8.08658e-06 0)
(0.402777 -4.13586e-06 0)
(0.402772 -1.9959e-06 0)
(0.402769 -9.4296e-07 0)
(0.402769 -4.19906e-07 0)
(0.402768 -1.72125e-07 0)
(0.402768 -9.01252e-08 0)
(0.402768 -2.00353e-08 0)
(0.402768 -2.02793e-08 0)
(0.402768 -5.18574e-09 0)
(0.402768 3.2005e-09 0)
(0.402768 -8.98662e-09 0)
(0.402768 7.09092e-09 0)
(0.402768 -1.68928e-10 0)
(0.402768 -2.58415e-09 0)
(0.402768 4.93338e-09 0)
(0.402768 -4.50995e-09 0)
(0.402768 2.86205e-09 0)
(0.402768 2.04553e-09 0)
(0.402768 -2.19934e-09 0)
(0.402768 1.31613e-09 0)
(0.402768 -5.48634e-10 0)
(0.402768 -2.16789e-09 0)
(0.402768 3.31391e-09 0)
(0.402768 1.46278e-09 0)
(0.402768 5.21356e-10 0)
(0.750529 -0.00826168 0)
(0.685361 -0.00523869 0)
(0.787683 -0.0267873 0)
(0.714649 -0.00553869 0)
(0.751128 -0.016043 0)
(0.804625 -0.0101178 0)
(0.77064 -0.0119837 0)
(0.890073 -0.0910743 0)
(0.871235 -0.0989498 0)
(0.849162 -0.072107 0)
(0.875037 -0.0346934 0)
(0.883761 -0.0385526 0)
(0.915421 -0.0801971 0)
(0.909829 -0.120748 0)
(0.910925 -0.18131 0)
(0.960921 -0.279892 0)
(0.899706 -0.335401 0)
(0.738503 -0.302585 0)
(0.582429 -0.197216 0)
(0.561432 -0.00477875 0)
(0.667061 0.0998286 0)
(0.689736 0.028401 0)
(0.806632 -0.00730101 0)
(0.771903 -0.0361458 0)
(0.70851 -0.0450402 0)
(0.745723 0.0903423 0)
(0.685749 0.139163 0)
(0.659099 0.0804734 0)
(0.541436 0.0421631 0)
(0.381885 -0.105446 0)
(0.35021 -0.257186 0)
(0.396827 -0.201011 0)
(0.395881 -0.0335177 0)
(0.481802 0.178414 0)
(0.503355 0.338062 0)
(0.483102 0.347154 0)
(0.541677 0.271327 0)
(0.533183 0.190151 0)
(0.618446 0.00385571 0)
(0.631919 -0.184735 0)
(0.551234 -0.252367 0)
(0.539297 -0.176901 0)
(0.59054 -0.0140482 0)
(0.551883 0.129552 0)
(0.539202 0.127092 0)
(0.571799 0.0565637 0)
(0.528207 0.0342114 0)
(0.550611 -0.0252792 0)
(0.591511 -0.118604 0)
(0.555874 -0.166575 0)
(0.486289 -0.155377 0)
(0.463801 -0.0756975 0)
(0.485464 0.036903 0)
(0.494821 0.103559 0)
(0.492303 0.102223 0)
(0.492037 0.064588 0)
(0.489513 0.0260959 0)
(0.48016 0.0026518 0)
(0.466185 -0.0062474 0)
(0.451399 -0.00694959 0)
(0.438191 -0.00476183 0)
(0.427568 -0.00246669 0)
(0.419581 -0.000964946 0)
(0.413857 -0.000238644 0)
(0.409889 3.10377e-06 0)
(0.40721 2.41922e-05 0)
(0.40545 -1.63749e-05 0)
(0.404317 -5.05951e-05 0)
(0.403614 -6.2388e-05 0)
(0.403185 -5.70095e-05 0)
(0.402934 -4.40543e-05 0)
(0.402791 -3.02002e-05 0)
(0.402712 -1.89888e-05 0)
(0.402671 -1.10571e-05 0)
(0.402648 -6.04596e-06 0)
(0.402639 -3.14759e-06 0)
(0.402633 -1.52441e-06 0)
(0.40263 -7.3103e-07 0)
(0.40263 -3.24774e-07 0)
(0.402629 -1.28243e-07 0)
(0.402629 -7.67453e-08 0)
(0.402629 -9.20151e-09 0)
(0.402629 -1.92794e-08 0)
(0.402629 -4.01941e-09 0)
(0.402629 5.06846e-09 0)
(0.402629 -1.11242e-08 0)
(0.402629 8.65874e-09 0)
(0.402629 -9.05415e-10 0)
(0.402629 -2.85732e-09 0)
(0.402629 5.65236e-09 0)
(0.402629 -5.59618e-09 0)
(0.402629 3.22943e-09 0)
(0.402629 2.96497e-09 0)
(0.402629 -2.98815e-09 0)
(0.402629 1.77178e-09 0)
(0.402629 -7.13189e-10 0)
(0.402629 -2.20085e-09 0)
(0.402629 3.68314e-09 0)
(0.402629 1.933e-09 0)
(0.402629 5.43242e-10 0)
(0.841482 -0.00764043 0)
(0.781841 -0.00403003 0)
(0.869659 -0.0337927 0)
(0.807915 -0.000710746 0)
(0.838107 -0.0218601 0)
(0.884162 -0.0211999 0)
(0.856214 -0.0109061 0)
(0.949493 -0.096261 0)
(0.922209 -0.0996385 0)
(0.901842 -0.0677593 0)
(0.917011 -0.0451202 0)
(0.921441 -0.0408299 0)
(0.940641 -0.0729828 0)
(0.928388 -0.122009 0)
(0.929135 -0.19018 0)
(0.935721 -0.272905 0)
(0.829518 -0.311204 0)
(0.650557 -0.274034 0)
(0.502066 -0.178128 0)
(0.506219 -0.0154717 0)
(0.610225 0.0796635 0)
(0.626678 0.0203851 0)
(0.723037 -0.0130463 0)
(0.681353 -0.0309593 0)
(0.630148 -0.0340162 0)
(0.668816 0.0914729 0)
(0.620707 0.140547 0)
(0.604463 0.0961252 0)
(0.484348 0.0625887 0)
(0.341512 -0.0955958 0)
(0.305421 -0.258754 0)
(0.348467 -0.202262 0)
(0.348373 -0.0349721 0)
(0.435505 0.171842 0)
(0.465405 0.332557 0)
(0.467429 0.339336 0)
(0.535738 0.26652 0)
(0.539283 0.185375 0)
(0.632615 7.59469e-06 0)
(0.636627 -0.180787 0)
(0.540202 -0.247195 0)
(0.524195 -0.17638 0)
(0.570866 -0.0135747 0)
(0.53212 0.1307 0)
(0.534385 0.12446 0)
(0.566816 0.057899 0)
(0.528065 0.0353575 0)
(0.557768 -0.0290284 0)
(0.58525 -0.118175 0)
(0.534864 -0.159774 0)
(0.459043 -0.147682 0)
(0.432358 -0.07305 0)
(0.452918 0.0349931 0)
(0.467467 0.101209 0)
(0.472724 0.101181 0)
(0.47909 0.0646265 0)
(0.480523 0.0270165 0)
(0.472943 0.00428411 0)
(0.459759 -0.00429817 0)
(0.445613 -0.00507175 0)
(0.433192 -0.00318943 0)
(0.423486 -0.00126332 0)
(0.416433 -9.68507e-05 0)
(0.41155 0.000363078 0)
(0.408264 0.000408694 0)
(0.406089 0.000291622 0)
(0.404673 0.000156439 0)
(0.403758 5.86726e-05 0)
(0.403184 5.01186e-06 0)
(0.402827 -1.65677e-05 0)
(0.402615 -2.05332e-05 0)
(0.402491 -1.69391e-05 0)
(0.402421 -1.17687e-05 0)
(0.402384 -7.24935e-06 0)
(0.402363 -4.10358e-06 0)
(0.402354 -2.19494e-06 0)
(0.402349 -1.06437e-06 0)
(0.402346 -5.22374e-07 0)
(0.402346 -2.30336e-07 0)
(0.402345 -8.48672e-08 0)
(0.402345 -6.32642e-08 0)
(0.402345 2.00096e-09 0)
(0.402345 -1.85415e-08 0)
(0.402345 -2.74082e-09 0)
(0.402345 6.88793e-09 0)
(0.402345 -1.32081e-08 0)
(0.402345 1.03554e-08 0)
(0.402345 -1.5355e-09 0)
(0.402345 -3.36811e-09 0)
(0.402345 6.5836e-09 0)
(0.402345 -6.75645e-09 0)
(0.402345 3.44208e-09 0)
(0.402345 3.61252e-09 0)
(0.402345 -3.80597e-09 0)
(0.402345 1.93563e-09 0)
(0.402345 -5.62097e-10 0)
(0.402345 -2.26091e-09 0)
(0.402345 4.01231e-09 0)
(0.402345 2.31318e-09 0)
(0.402345 5.1291e-10 0)
(0.907655 -0.00805288 0)
(0.859251 -0.00172048 0)
(0.931001 -0.0395989 0)
(0.876964 0.00227322 0)
(0.907981 -0.0240755 0)
(0.937849 -0.0321391 0)
(0.919684 -0.0102223 0)
(0.98958 -0.0968422 0)
(0.957278 -0.100917 0)
(0.938701 -0.0625909 0)
(0.942469 -0.0523668 0)
(0.944076 -0.0429403 0)
(0.949883 -0.0644696 0)
(0.93576 -0.121577 0)
(0.927601 -0.194169 0)
(0.88797 -0.259141 0)
(0.743583 -0.281912 0)
(0.555804 -0.243918 0)
(0.41815 -0.160963 0)
(0.434666 -0.0263001 0)
(0.522178 0.0617416 0)
(0.542674 0.0136257 0)
(0.625558 -0.0170604 0)
(0.586764 -0.026824 0)
(0.551153 -0.0247745 0)
(0.586409 0.0913673 0)
(0.550662 0.140709 0)
(0.544586 0.110706 0)
(0.425083 0.0817485 0)
(0.303196 -0.0865496 0)
(0.259823 -0.259623 0)
(0.296289 -0.203418 0)
(0.297604 -0.0369369 0)
(0.386206 0.164173 0)
(0.423035 0.324218 0)
(0.449255 0.328766 0)
(0.525614 0.260091 0)
(0.542066 0.178763 0)
(0.642221 -0.00401944 0)
(0.637849 -0.175137 0)
(0.52579 -0.240303 0)
(0.502662 -0.174741 0)
(0.544236 -0.012493 0)
(0.50712 0.130304 0)
(0.525115 0.120496 0)
(0.555871 0.0590797 0)
(0.524542 0.0355683 0)
(0.560395 -0.03241 0)
(0.573351 -0.115792 0)
(0.509276 -0.151435 0)
(0.428339 -0.139237 0)
(0.397967 -0.06995 0)
(0.417144 0.0328631 0)
(0.436528 0.097922 0)
(0.449511 0.0990566 0)
(0.462537 0.0638893 0)
(0.467989 0.027538 0)
(0.462415 0.00572878 0)
(0.450453 -0.00247179 0)
(0.437478 -0.00332628 0)
(0.426365 -0.00176713 0)
(0.418026 -0.000213523 0)
(0.412257 0.000630384 0)
(0.408469 0.000847621 0)
(0.406042 0.000724898 0)
(0.40449 0.000495987 0)
(0.403495 0.000287794 0)
(0.402848 0.000142381 0)
(0.402434 5.75481e-05 0)
(0.402168 1.56783e-05 0)
(0.402006 -1.31733e-06 0)
(0.401908 -5.84167e-06 0)
(0.401851 -5.59208e-06 0)
(0.40182 -3.9277e-06 0)
(0.401803 -2.38007e-06 0)
(0.401795 -1.33827e-06 0)
(0.40179 -6.45227e-07 0)
(0.401788 -3.31224e-07 0)
(0.401788 -1.43076e-07 0)
(0.401787 -4.47452e-08 0)
(0.401787 -5.08912e-08 0)
(0.401787 1.28452e-08 0)
(0.401786 -1.83437e-08 0)
(0.401787 -1.21306e-09 0)
(0.401786 8.68813e-09 0)
(0.401787 -1.52203e-08 0)
(0.401787 1.21162e-08 0)
(0.401786 -2.30695e-09 0)
(0.401787 -3.96744e-09 0)
(0.401787 7.65072e-09 0)
(0.401787 -7.81539e-09 0)
(0.401787 3.62402e-09 0)
(0.401787 4.1565e-09 0)
(0.401787 -4.62035e-09 0)
(0.401787 2.08383e-09 0)
(0.401787 -2.30034e-10 0)
(0.401787 -2.40293e-09 0)
(0.401787 4.13728e-09 0)
(0.401787 2.49948e-09 0)
(0.401787 4.42527e-10 0)
(0.952109 -0.00907112 0)
(0.918841 0.000337634 0)
(0.972364 -0.0431853 0)
(0.924993 0.00288077 0)
(0.959345 -0.0235389 0)
(0.96952 -0.0411953 0)
(0.963253 -0.0104086 0)
(1.01177 -0.0936181 0)
(0.976566 -0.102076 0)
(0.959025 -0.0576276 0)
(0.952662 -0.0566523 0)
(0.951236 -0.0440083 0)
(0.943788 -0.0557577 0)
(0.931033 -0.119323 0)
(0.905019 -0.19154 0)
(0.818282 -0.238713 0)
(0.645972 -0.24929 0)
(0.457646 -0.213558 0)
(0.327203 -0.144017 0)
(0.331597 -0.0333572 0)
(0.403341 0.046047 0)
(0.450189 0.00577958 0)
(0.523514 -0.0209364 0)
(0.492626 -0.0243675 0)
(0.471821 -0.0170702 0)
(0.500503 0.0905939 0)
(0.477953 0.139854 0)
(0.481145 0.123954 0)
(0.365364 0.0989895 0)
(0.268475 -0.0781318 0)
(0.212916 -0.259373 0)
(0.239445 -0.204357 0)
(0.24392 -0.0390739 0)
(0.333371 0.156523 0)
(0.375528 0.313525 0)
(0.428058 0.315668 0)
(0.511307 0.252211 0)
(0.541839 0.170363 0)
(0.646699 -0.0080836 0)
(0.634956 -0.16795 0)
(0.5086 -0.231543 0)
(0.474118 -0.171689 0)
(0.509903 -0.0109235 0)
(0.477287 0.128187 0)
(0.51129 0.115363 0)
(0.539172 0.0599229 0)
(0.517837 0.0348136 0)
(0.558235 -0.0352038 0)
(0.555945 -0.111462 0)
(0.479602 -0.141736 0)
(0.39469 -0.130227 0)
(0.36101 -0.066483 0)
(0.378552 0.0305555 0)
(0.402414 0.0937524 0)
(0.423003 0.0958686 0)
(0.442609 0.0623762 0)
(0.452058 0.0276389 0)
(0.448709 0.00694516 0)
(0.438425 -0.000837403 0)
(0.42717 -0.0017865 0)
(0.417875 -0.000560025 0)
(0.411307 0.000631227 0)
(0.407111 0.0011794 0)
(0.404609 0.00118957 0)
(0.403156 0.000935218 0)
(0.402293 0.000626876 0)
(0.401759 0.000371197 0)
(0.401402 0.000196486 0)
(0.401163 9.27002e-05 0)
(0.400998 3.81698e-05 0)
(0.400891 1.26449e-05 0)
(0.400824 2.5277e-06 0)
(0.400782 -7.84957e-07 0)
(0.400759 -1.27423e-06 0)
(0.400745 -9.73308e-07 0)
(0.400739 -6.28726e-07 0)
(0.400736 -2.92736e-07 0)
(0.400734 -1.7004e-07 0)
(0.400734 -6.87858e-08 0)
(0.400733 -1.04896e-08 0)
(0.400733 -4.08037e-08 0)
(0.400733 2.27145e-08 0)
(0.400733 -1.8798e-08 0)
(0.400733 4.2513e-10 0)
(0.400733 1.03351e-08 0)
(0.400733 -1.71476e-08 0)
(0.400733 1.38891e-08 0)
(0.400733 -3.16158e-09 0)
(0.400733 -4.58269e-09 0)
(0.400733 8.77755e-09 0)
(0.400733 -8.69987e-09 0)
(0.400733 3.7525e-09 0)
(0.400733 4.61193e-09 0)
(0.400733 -5.40927e-09 0)
(0.400733 2.22865e-09 0)
(0.400733 2.44576e-10 0)
(0.400733 -2.5654e-09 0)
(0.400733 4.06392e-09 0)
(0.400733 2.56872e-09 0)
(0.400733 3.40018e-10 0)
(0.976888 -0.0101597 0)
(0.960712 0.0014302 0)
(0.994385 -0.0440333 0)
(0.954663 0.00129613 0)
(0.991008 -0.0215917 0)
(0.982781 -0.0474649 0)
(0.987284 -0.0120102 0)
(1.01729 -0.0878961 0)
(0.979966 -0.102113 0)
(0.961171 -0.053222 0)
(0.947942 -0.0579791 0)
(0.94049 -0.0434858 0)