/*--------------------------------*- C++ -*----------------------------------*\
| =========                 |                                                 |
| \\      /  F ield         | OpenFOAM: The Open Source CFD Toolbox           |
|  \\    /   O peration     | Version:  2.4.0                                 |
|   \\  /    A nd           | Web:      www.OpenFOAM.org                      |
|    \\/     M anipulation  |                                                 |
\*---------------------------------------------------------------------------*/
FoamFile
{
    version     2.0;
    format      ascii;
    class       surfaceScalarField;
    location    "1.52";
    object      phi;
}
// * * * * * * * * * * * * * * * * * * * * * * * * * * * * * * * * * * * * * //

dimensions      [0 3 -1 0 0 0 0];

internalField   nonuniform List<scalar> 
8640
(
0.0487275
0.0012725
0.0505395
-0.00181196
0.0492526
0.00128689
0.0494122
-0.000159642
0.0476391
0.00177314
0.048102
-0.000462889
0.0460074
0.00209461
0.0454106
0.000596747
0.0472712
-0.00186056
0.0433085
0.00396268
0.0471394
-0.0038309
0.0446885
0.00245092
0.0434597
0.00122875
0.0445958
-0.00113608
0.0415559
0.00303985
0.0402222
0.00133372
0.041292
-0.00106981
0.0405502
0.000741811
0.0370261
0.00352409
-0.00437374
0.0413999
0.0497657
0.00150684
0.0516486
-0.0036949
0.0492463
0.00368915
0.0506488
-0.00156207
0.0503057
0.00211621
0.0499219
-7.90735e-05
0.0517597
0.000256742
0.0489444
0.0034121
0.0510297
-0.00394584
0.0463172
0.0086751
0.0475781
-0.00509177
0.0497619
0.000267116
0.0478601
0.00313059
0.0544235
-0.00769946
0.0529183
0.00454498
0.0487755
0.00547659
0.0506573
-0.00295159
0.050807
0.000592031
0.0410306
0.0133006
-0.010099
0.0467558
0.0494629
0.00204394
0.0509079
-0.00513987
0.048861
0.00573607
0.0508625
-0.00356362
0.0524298
0.000548952
0.0477693
0.00458145
0.0504919
-0.00246586
0.0483844
0.00551957
0.0494138
-0.00497528
0.0495372
0.00855174
0.0501007
-0.00565531
0.051856
-0.00148816
0.0482793
0.00670724
0.0529496
-0.0123697
0.0532373
0.00425726
0.0505127
0.00820126
0.0527384
-0.00517736
0.0562548
-0.00292436
0.04526
0.0242954
-0.0140428
0.0492038
0.0489819
0.00306205
0.052319
-0.00847695
0.0495169
0.00853808
0.048864
-0.00291062
0.0527884
-0.00337551
0.0481248
0.00924505
0.0497962
-0.00413725
0.0505644
0.00475136
0.0498968
-0.00430772
0.0508902
0.00755841
0.0522958
-0.00706092
0.053754
-0.00294639
0.0500728
0.0103884
0.051997
-0.0142939
0.0528711
0.00338324
0.0507496
0.0103227
0.0513798
-0.00580752
0.0560595
-0.00760404
0.0492321
0.0311228
-0.0163788
0.051568
0.0490667
0.00399535
0.0517049
-0.0111152
0.0500471
0.0101959
0.0495141
-0.00237769
0.0521706
-0.00603199
0.0488852
0.0125305
0.0494017
-0.00465375
0.0522138
0.00193926
0.0498232
-0.00191712
0.0506552
0.00672641
0.0531275
-0.00953326
0.052727
-0.00254581
0.0493405
0.0137748
0.0514667
-0.0164201
0.052171
0.00267903
0.0507328
0.0117609
0.0506407
-0.00571541
0.0543994
-0.0113628
0.0526043
0.0329179
-0.0153911
0.0516166
0.0491781
0.00481724
0.0499296
-0.0118666
0.0506644
0.00946109
0.050108
-0.00182129
0.0511689
-0.00709289
0.0503826
0.0133168
0.0491686
-0.00343977
0.0516341
-0.000526213
0.0493985
0.000318456
0.0498178
0.00630717
0.0524044
-0.0121199
0.0507179
-0.000859323
0.0491027
0.0153901
0.0520421
-0.0193596
0.0505038
0.00421737
0.0496525
0.0126122
0.0516358
-0.00769877
0.0521184
-0.0118454
0.0529552
0.0320811
-0.0126301
0.0501942
0.0495067
0.00531054
0.049469
-0.0118289
0.0511258
0.00780425
0.0501538
-0.000849249
0.0502158
-0.00715489
0.051147
0.0123856
0.0493145
-0.00160734
0.0515758
-0.00278746
0.0505796
0.00131469
0.0503458
0.00654098
0.0520658
-0.01384
0.0500916
0.00111491
0.0493951
0.0160866
0.0522585
-0.0222229
0.0496516
0.00682426
0.0494138
0.01285
0.0526194
-0.0109044
0.0510025
-0.0102285
0.0520122
0.0310714
-0.00904024
0.0484224
0.0502537
0.00505683
0.0491281
-0.0107033
0.0506353
0.006297
0.0502888
-0.000502693
0.049516
-0.00638213
0.0516137
0.010288
0.0504208
-0.000414519
0.0509628
-0.00332947
0.0511605
0.00111706
0.0511347
0.00656676
0.0507784
-0.0134837
0.0501313
0.00176194
0.0504771
0.0157408
0.0514631
-0.0232089
0.0493458
0.00894161
0.0501487
0.012047
0.0521268
-0.0128824
0.0497251
-0.0078268
0.0511281
0.0296683
-0.00586697
0.0479549
0.050482
0.00457482
0.0493876
-0.00960889
0.0504671
0.00521751
0.0503099
-0.000345539
0.0493694
-0.00544157
0.051215
0.00844236
0.0509032
-0.000102694
0.0504567
-0.00288298
0.0508983
0.000675436
0.0515824
0.00588264
0.0496763
-0.0115776
0.0504363
0.00100198
0.0514162
0.0147609
0.0501672
-0.0219599
0.0497609
0.00934791
0.0512148
0.0105931
0.0510349
-0.0127026
0.0488513
-0.00564321
0.0513081
0.0272115
-0.0037326
0.0491737
0.0507305
0.00384429
0.0495553
-0.00843364
0.0500244
0.00474841
0.050143
-0.000464137
0.0492208
-0.00451934
0.0505246
0.00713851
0.0509601
-0.000538197
0.0499859
-0.00190881
0.0504215
0.000239868
0.0516666
0.00463758
0.0488854
-0.00879636
0.0504129
-0.000525565
0.0518035
0.0133702
0.0492279
-0.0193843
0.0500712
0.00850459
0.0518399
0.0088245
0.0505663
-0.011429
0.0483526
-0.00342955
0.0519432
0.023621
-0.00250626
0.0507168
0.0505222
0.0033221
0.0493168
-0.0072283
0.049974
0.00409125
0.0501303
-0.000620451
0.0494267
-0.00381577
0.0504571
0.00610815
0.0508715
-0.000952568
0.0498727
-0.000910046
0.0503879
-0.000275363
0.0515158
0.00350967
0.0489636
-0.00624412
0.0506979
-0.0022599
0.0519409
0.0121273
0.0491347
-0.0165781
0.0505755
0.00706382
0.0521342
0.00726584
0.050239
-0.00953381
0.0485649
-0.00175548
0.0526247
0.0195612
-0.00137472
0.0514931
0.050432
0.00289013
0.0498006
-0.00659688
0.0500025
0.00388932
0.0503008
-0.00091877
0.0496852
-0.00320014
0.050397
0.00539632
0.0510368
-0.00159238
0.0501253
1.46725e-06
0.050571
-0.000721084
0.0516019
0.00247882
0.0493514
-0.00399366
0.0507152
-0.00362367
0.0519635
0.010879
0.0493072
-0.0139218
0.0508357
0.00553531
0.0522355
0.00586605
0.0501605
-0.00745881
0.0493998
-0.000994782
0.05329
0.015671
0.00036953
0.0515458
0.0505769
0.00231319
0.0494994
-0.0055193
0.0498534
0.00353524
0.0503817
-0.00144704
0.0495794
-0.00239784
0.0505362
0.00443956
0.0508468
-0.00190297
0.0500512
0.000797041
0.0503095
-0.000979436
0.0511595
0.00162885
0.0494935
-0.00232761
0.0503544
-0.00448458
0.0517277
0.00950566
0.0493821
-0.0115762
0.0504807
0.00443671
0.0521683
0.00417847
0.0498686
-0.00515914
0.0493798
-0.000505986
0.0540331
0.0110177
0.00300214
0.0514005
0.0503757
0.00193753
0.0496147
-0.00475835
0.0501429
0.00300708
0.0502734
-0.00157759
0.0496854
-0.00180986
0.0505519
0.00357313
0.0505911
-0.00194224
0.0502134
0.0011748
0.0503754
-0.00114151
0.0511152
0.000889101
0.0499186
-0.00113104
0.050288
-0.00485391
0.0515242
0.0082694
0.0498585
-0.00991052
0.0499921
0.00430314
0.0517618
0.00240878
0.0504569
-0.00385424
0.0490954
0.0008555
0.0531626
0.00695046
0.00361127
0.0525535
0.0505491
0.0013884
0.0496375
-0.00384676
0.049913
0.00273164
0.0503979
-0.00206248
0.0495325
-0.000944463
0.0506397
0.00246587
0.0506133
-0.00191583
0.0502201
0.00156799
0.0505519
-0.00147324
0.0508623
0.000578687
0.0499782
-0.000246989
0.0505281
-0.00540378
0.0509384
0.00785913
0.0498666
-0.00883874
0.0503945
0.00377527
0.0509299
0.00187337
0.0501787
-0.00310303
0.0499893
0.00104488
0.0517818
0.00515795
0.0031153
0.0522778
0.0504007
0.000987658
0.0494462
-0.00289219
0.0501557
0.00202206
0.0503386
-0.0022453
0.0495614
-0.000167281
0.0508772
0.00115008
0.0503104
-0.00134908
0.0502387
0.00163967
0.0504732
-0.00170773
0.0508122
0.000239675
0.0498457
0.000719519
0.0504602
-0.0060183
0.0512353
0.00708403
0.0497103
-0.0073137
0.050725
0.00276057
0.051513
0.00108542
0.0499898
-0.00157987
0.0502721
0.000762565
0.0524186
0.00301143
0.00347616
0.0520578
0.0503643
0.000623344
0.0496475
-0.00217532
0.0502239
0.0014456
0.0502905
-0.00231188
0.0498591
0.000264155
0.0507128
0.00029637
0.0503995
-0.00103576
0.0505054
0.00153369
0.0502179
-0.00142015
0.0509406
-0.000483046
0.0502932
0.00136688
0.0502028
-0.00592793
0.0518473
0.00543958
0.0503515
-0.0058179
0.0509355
0.00217651
0.0519286
9.23696e-05
0.0508642
-0.000515479
0.0503584
0.00126833
0.0529125
0.000457362
0.00360853
0.0527801
0.050306
0.000317295
0.0496148
-0.00148409
0.0504765
0.000583932
0.0501174
-0.00195283
0.0500849
0.00029669
0.0506405
-0.000259255
0.0502935
-0.000688731
0.050511
0.00131613
0.0504536
-0.00136267
0.0507181
-0.000747574
0.0507579
0.00132703
0.0501653
-0.00533532
0.0519878
0.00361711
0.0500499
-0.00387997
0.0511068
0.00111953
0.0516891
-0.000489902
0.0508761
0.000297563
0.0505169
0.00162746
0.0526971
-0.00172279
0.00347059
0.052835
0.0502813
3.59699e-05
0.049844
-0.0010468
0.0506016
-0.000173581
0.0497395
-0.0010908
0.0502235
-0.000187256
0.0501716
-0.000207342
0.0501628
-0.000679945
0.0506782
0.000800662
0.0504462
-0.00113063
0.0505549
-0.000856303
0.0510172
0.000864715
0.0491092
-0.00342729
0.0513612
0.00136513
0.0487611
-0.00127988
0.0499881
-0.000107401
0.0502317
-0.000733544
0.0496866
0.000842667
0.0506089
0.000705158
0.0513528
-0.00246671
0.00270039
0.052123
0.050036
0.0489892
0.0488156
0.0477248
0.0475375
0.0473302
0.0466502
0.0474509
0.0463203
0.045464
0.0463287
0.0429014
0.0442665
0.0429867
0.0428793
0.0421457
0.0429884
0.0436935
0.0412268
0.0439272
0.0348916
-0.0056608
0.0121691
0.0322292
0.0528196
-0.0501572
0.0321607
0.0717665
-0.071698
0.0304937
0.0155517
-0.0138848
0.0363262
0.0106992
-0.0165317
0.0467381
-0.0382035
0.0277916
0.0493551
-0.0650341
0.0624171
0.0470979
-0.045099
0.0473562
0.0496535
-0.0553446
0.0527889
0.0510585
-0.0879399
0.086535
0.0493703
-0.0972757
0.0989639
0.0448458
-0.076352
0.0808765
0.0393038
-0.0513523
0.0568943
0.035717
-0.0336216
0.0372084
0.0330033
-0.0222733
0.024987
0.0312858
-0.0153603
0.0170778
0.0296807
-0.0098184
0.0114235
0.027903
-0.0076142
0.00939192
0.0272253
-0.00642102
0.00709867
0.0272256
-0.00361876
0.00361851
0.0270044
-0.000562652
0.000783867
0.0266723
0.00154842
-0.00121633
0.0266058
0.00262999
-0.00256346
0.0267807
0.00258813
-0.00276308
0.0269506
0.00148192
-0.00165179
0.0269394
-0.000164744
0.000175936
0.0267487
-0.00174562
0.00193636
0.0264765
-0.00287984
0.00315197
0.0262126
-0.0034177
0.00368161
0.0260023
-0.00339071
0.00360104
0.0258528
-0.00295515
0.00310464
0.0257533
-0.00232628
0.00242584
0.0256893
-0.00169115
0.00175515
0.0256492
-0.00115778
0.00119788
0.0256247
-0.000758622
0.000783092
0.0256102
-0.000481787
0.000496255
0.025602
-0.000299379
0.000307627
0.0255975
-0.000183218
0.000187747
0.0255951
-0.000110908
0.000113306
0.0255938
-6.65812e-05
6.78115e-05
0.0255932
-3.97061e-05
4.03209e-05
0.0255929
-2.35434e-05
2.38461e-05
0.0255928
-1.38895e-05
1.40371e-05
0.0255927
-8.15954e-06
8.23055e-06
0.0255927
-4.7688e-06
4.80345e-06
0.0255926
-2.77895e-06
2.79694e-06
0.0255926
-1.61111e-06
1.62038e-06
0.0255926
-9.31658e-07
9.36004e-07
0.0255926
-5.38351e-07
5.40326e-07
0.0255926
-3.0672e-07
3.08055e-07
0.0255926
-1.7633e-07
1.77699e-07
0.0255926
-1.00394e-07
1.01057e-07
0.0255926
-5.53364e-08
5.54241e-08
0.0255926
-3.37891e-08
3.44125e-08
0.0255926
-1.70313e-08
1.74694e-08
0.0255926
-1.00934e-08
9.40511e-09
0.0255926
-8.20132e-09
7.27757e-09
0.0255926
-1.50721e-09
1.57855e-09
0.0255926
-2.33437e-09
3.29774e-09
0.0255926
-1.96131e-09
2.6596e-09
0.0255926
9.94516e-10
-1.34037e-09
0.0255926
-2.40934e-09
1.59583e-09
0.0255926
-1.79925e-10
4.65179e-12
0.0255926
1.7829e-09
-1.38271e-09
0.0255926
-1.79375e-09
1.77842e-09
0.0255926
-8.39442e-11
-5.89586e-10
0.0255926
1.00239e-09
-1.51061e-09
0.0255926
-2.07388e-09
2.28657e-09
0.0255926
1.20474e-09
-5.8362e-10
0.0255926
1.29553e-09
-1.09855e-09
0.0255926
-1.45721e-09
7.96506e-10
0.0255926
-1.3421e-09
5.74348e-10
0.0255926
2.96031e-09
-2.80367e-09
0.0255926
-4.97371e-10
1.51948e-09
0.0255926
-1.29212e-09
2.09834e-09
0.0255926
2.52807e-09
-2.41177e-09
0.0255926
2.37152e-10
-8.29429e-10
0.0255926
-2.17116e-09
1.86951e-09
0.0255926
6.37848e-10
-6.5209e-10
0.0255926
2.64664e-09
-1.92356e-09
0.0255926
-1.82385e-09
2.06209e-09
0.0255926
1.50605e-10
-2.16344e-10
0.0255926
-5.90047e-10
-1.18994e-10
0.0255926
1.19692e-09
-2.29749e-09
0.0255926
-7.62057e-10
1.11315e-09
0.0255926
-1.79463e-09
1.17457e-09
0.0255926
2.25492e-09
-3.31855e-10
0.0255926
3.18848e-10
-9.75204e-10
0.0255926
4.00741e-10
-5.09766e-10
0.0255926
-1.08622e-09
2.02487e-09
0.0255926
-2.44842e-09
-1.53097e-10
0.0255926
5.15972e-09
-1.77459e-09
0.0255926
-7.95994e-10
-2.89681e-10
0.0255926
-4.53804e-09
2.99967e-09
0.0255926
1.24971e-09
1.71949e-09
0.0255926
-1.99475e-09
-1.47411e-09
0.0255926
6.13851e-10
-3.90118e-10
0.0255926
1.58e-09
8.72123e-10
0.0255926
-2.60369e-09
1.18593e-09
-1.29472e-09
6.39339e-10
0.0460315
-0.00493652
0.0388255
0.0600256
0.0410524
0.0695396
0.0415456
0.0150586
0.048959
0.00328573
0.0603625
-0.049607
0.058107
-0.0627786
0.0526761
-0.0396681
0.0537636
-0.0564321
0.0541828
-0.0883592
0.0511835
-0.0942763
0.0460875
-0.071256
0.0401232
-0.045388
0.035612
-0.0291105
0.0330972
-0.0197584
0.0316908
-0.013954
0.0304014
-0.00852891
0.0284143
-0.00562719
0.027117
-0.0051237
0.0270145
-0.00351625
0.0270915
-0.000639639
0.0269383
0.00170158
0.0268012
0.00276718
0.0267952
0.00259409
0.0267937
0.00148338
0.0267099
-8.08979e-05
0.0265547
-0.00159042
0.0263672
-0.0026924
0.026182
-0.00323249
0.0260193
-0.00322799
0.0258873
-0.00282316
0.0257869
-0.00222587
0.025715
-0.00161923
0.0256664
-0.00110924
0.0256355
-0.000727653
0.0256167
-0.000462991
0.0256058
-0.000288463
0.0255997
-0.000177111
0.0255963
-0.000107588
0.0255946
-6.48181e-05
0.0255936
-3.87816e-05
0.0255932
-2.30583e-05
0.0255929
-1.36367e-05
0.0255928
-8.02754e-06
0.0255927
-4.69886e-06
0.0255927
-2.73875e-06
0.0255926
-1.58983e-06
0.0255926
-9.20642e-07
0.0255926
-5.32847e-07
0.0255926
-3.03273e-07
0.0255926
-1.72221e-07
0.0255926
-9.87594e-08
0.0255926
-5.59149e-08
0.0255926
-3.15563e-08
0.0255926
-1.69173e-08
0.0255926
-1.1512e-08
0.0255926
-8.34495e-09
0.0255926
-2.82507e-09
0.0255926
-3.76138e-10
0.0255926
-1.63214e-11
0.0255926
-1.28595e-09
0.0255926
-2.66257e-09
0.0255926
-6.54303e-11
0.0255926
1.41264e-09
0.0255926
-6.00129e-10
0.0255926
-1.47627e-09
0.0255926
-1.1132e-09
0.0255926
1.49941e-10
0.0255926
1.95059e-09
0.0255926
7.0256e-10
0.0255926
-2.175e-09
0.0255926
-1.73218e-09
0.0255926
8.51587e-10
0.0255926
2.44804e-09
0.0255926
1.75215e-09
0.0255926
2.74623e-10
0.0255926
-1.2588e-09
0.0255926
-7.42808e-10
0.0255926
-3.11895e-11
0.0255926
2.00754e-09
0.0255926
5.0732e-10
0.0255926
-3.3894e-10
0.0255926
-1.49013e-09
0.0255926
-2.43321e-09
0.0255926
1.61393e-10
0.0255926
-1.09838e-09
0.0255926
4.51067e-09
0.0255926
-8.31186e-10
0.0255926
-5.89359e-10
0.0255926
1.31117e-09
0.0255926
-4.53948e-09
0.0255926
7.47494e-09
0.0255926
-2.12633e-09
0.0255926
-4.36023e-09
0.0255926
4.56261e-09
0.0255926
-7.42613e-09
0.0255926
1.99737e-10
0.0255926
4.76642e-09
0.0255926
-3.35971e-09
-1.57851e-09
0.0507121
-0.00644478
0.0435184
0.0672193
0.047949
0.065109
0.051315
0.0116926
0.0577732
-0.00317253
0.0632907
-0.0551244
0.0598579
-0.0593458
0.0562264
-0.0360366
0.0571449
-0.0573506
0.0561038
-0.0873181
0.0514025
-0.0895749
0.045423
-0.0652766
0.0403824
-0.0403474
0.0360993
-0.0248274
0.0336078
-0.0172669
0.0322195
-0.0125656
0.0310149
-0.00732437
0.0290819
-0.00369416
0.0273204
-0.0033622
0.026843
-0.00303886
0.0271207
-0.000917281
0.0272559
0.0015663
0.0271176
0.00290549
0.0269047
0.00280702
0.0267339
0.00165417
0.026603
5.00627e-05
0.0264646
-0.00145204
0.0263182
-0.00254603
0.0261705
-0.00308479
0.0260328
-0.00309031
0.0259122
-0.00270248
0.0258126
-0.00212636
0.0257361
-0.00154273
0.0256816
-0.00105472
0.0256454
-0.000691475
0.0256229
-0.000440412
0.0256095
-0.000275069
0.0256018
-0.000169477
0.0255976
-0.00010336
0.0255953
-6.25215e-05
0.0255941
-3.75465e-05
0.0255934
-2.2395e-05
0.0255931
-1.32792e-05
0.0255929
-7.83326e-06
0.0255928
-4.59225e-06
0.0255927
-2.67907e-06
0.0255927
-1.55696e-06
0.0255926
-9.02267e-07
0.0255926
-5.22272e-07
0.0255926
-2.97664e-07
0.0255926
-1.68172e-07
0.0255926
-9.66847e-08
0.0255926
-5.53109e-08
0.0255926
-3.02979e-08
0.0255926
-1.6716e-08
0.0255926
-1.18314e-08
0.0255926
-8.17655e-09
0.0255926
-3.04586e-09
0.0255926
1.48483e-10
0.0255926
4.86081e-10
0.0255926
-1.80422e-09
0.0255926
-2.74544e-09
0.0255926
-5.71866e-11
0.0255926
1.20981e-09
0.0255926
-3.22344e-10
0.0255926
-1.78181e-09
0.0255926
-1.7071e-09
0.0255926
6.45192e-10
0.0255926
2.18233e-09
0.0255926
3.14152e-10
0.0255926
-2.01553e-09
0.0255926
-1.89001e-09
0.0255926
3.72312e-10
0.0255926
3.21711e-09
0.0255926
2.41931e-09
0.0255926
-1.51417e-10
0.0255926
-1.59876e-09
0.0255926
-2.15997e-10
0.0255926
-1.78764e-10
0.0255926
1.85928e-09
0.0255926
6.61062e-10
0.0255926
8.7412e-11
0.0255926
-1.91916e-09
0.0255926
-3.47648e-09
0.0255926
7.77244e-10
0.0255926
-1.57494e-09
0.0255926
5.9773e-09
0.0255926
-2.03406e-09
0.0255926
-5.95369e-10
0.0255926
2.93428e-09
0.0255926
-6.98792e-09
0.0255926
1.01093e-08
0.0255926
-3.4858e-09
0.0255926
-5.59763e-09
0.0255926
7.83911e-09
0.0255926
-1.07226e-08
0.0255926
1.8031e-10
0.0255926
7.26614e-09
0.0255926
-4.62698e-09
-2.33502e-09
0.0519186
-0.00679539
0.0481095
0.0710284
0.0536119
0.0596067
0.0536579
0.0116466
0.0578114
-0.00732605
0.0586287
-0.0559418
0.0572436
-0.0579607
0.0584944
-0.0372874
0.0580695
-0.0569257
0.0558784
-0.0851271
0.0520246
-0.0857211
0.0459715
-0.0592236
0.0413377
-0.0357135
0.0368436
-0.0203333
0.0333823
-0.0138056
0.0319037
-0.011087
0.0311682
-0.00658892
0.0295807
-0.00210661
0.0276363
-0.00141778
0.0267001
-0.00210269
0.0268122
-0.00102943
0.0271859
0.00119268
0.0273393
0.00275207
0.0272759
0.00287044
0.0270943
0.00183575
0.0268565
0.00028782
0.0266261
-0.00122156
0.0264155
-0.00233543
0.0262332
-0.00290252
0.0260781
-0.00293518
0.0259468
-0.00257127
0.0258388
-0.00201833
0.0257548
-0.00145875
0.0256942
-0.000994116
0.0256536
-0.000650819
0.025628
-0.000414781
0.0256126
-0.000259704
0.0256037
-0.00016061
0.0255987
-9.83777e-05
0.025596
-5.97671e-05
0.0255945
-3.60358e-05
0.0255936
-2.15674e-05
0.0255932
-1.28239e-05
0.0255929
-7.58054e-06
0.0255928
-4.45104e-06
0.0255927
-2.59986e-06
0.0255927
-1.51262e-06
0.0255926
-8.76888e-07
0.0255926
-5.07528e-07
0.0255926
-2.89587e-07
0.0255926
-1.63523e-07
0.0255926
-9.39907e-08
0.0255926
-5.40233e-08
0.0255926
-2.94932e-08
0.0255926
-1.63968e-08
0.0255926
-1.1552e-08
0.0255926
-7.7341e-09
0.0255926
-2.85297e-09
0.0255926
-3.47174e-12
0.0255926
3.76081e-10
0.0255926
-1.65468e-09
0.0255926
-2.56853e-09
0.0255926
-8.47994e-11
0.0255926
1.00465e-09
0.0255926
-3.94337e-10
0.0255926
-1.69412e-09
0.0255926
-1.65633e-09
0.0255926
6.4235e-10
0.0255926
2.03086e-09
0.0255926
1.87844e-10
0.0255926
-1.8262e-09
0.0255926
-1.66737e-09
0.0255926
3.05522e-10
0.0255926
3.11359e-09
0.0255926
2.26512e-09
0.0255926
-1.13303e-10
0.0255926
-1.43641e-09
0.0255926
1.08402e-10
0.0255926
-4.20777e-10
0.0255926
1.79049e-09
0.0255926
4.11015e-10
0.0255926
3.08734e-10
0.0255926
-1.83189e-09
0.0255926
-3.7339e-09
0.0255926
1.41776e-09
0.0255926
-2.62609e-09
0.0255926
7.1042e-09
0.0255926
-3.11927e-09
0.0255926
-3.60087e-10
0.0255926
4.33936e-09
0.0255926
-9.37955e-09
0.0255926
1.28221e-08
0.0255926
-5.05434e-09
0.0255926
-6.99995e-09
0.0255926
1.1176e-08
0.0255926
-1.34969e-08
0.0255926
4.91295e-10
0.0255926
9.52027e-09
0.0255926
-6.17431e-09
-3.18421e-09
0.0494252
-0.004604
0.0513453
0.0691084
0.0578314
0.0531206
0.0561425
0.0133355
0.0596388
-0.0108224
0.0587246
-0.0550275
0.0580872
-0.0573233
0.059268
-0.0384682
0.0572205
-0.0548782
0.0554539
-0.0833605
0.0527792
-0.0830463
0.0459964
-0.0524408
0.0403867
-0.0301038
0.0370564
-0.017003
0.033857
-0.0106062
0.0314318
-0.00866182
0.030807
-0.00596403
0.0302751
-0.00157473
0.0287298
0.000127536
0.0273501
-0.000723011
0.0270085
-0.000687824
0.0272276
0.000973588
0.0273767
0.00260292
0.0272927
0.0029545
0.0270916
0.00203684
0.0268817
0.000497724
0.026668
-0.00100795
0.0264624
-0.00212983
0.0262763
-0.00271635
0.0261172
-0.00277615
0.0259819
-0.00243595
0.0258678
-0.00190424
0.0257765
-0.00136736
0.0257089
-0.000926527
0.0256628
-0.00060475
0.0256335
-0.00038548
0.0256158
-0.000242055
0.0256056
-0.000150389
0.0255999
-9.26071e-05
0.0255966
-5.65547e-05
0.0255949
-3.42573e-05
0.0255939
-2.05821e-05
0.0255933
-1.22748e-05
0.025593
-7.27221e-06
0.0255928
-4.27704e-06
0.0255927
-2.50146e-06
0.0255927
-1.45711e-06
0.0255927
-8.4485e-07
0.0255926
-4.88859e-07
0.0255926
-2.79253e-07
0.0255926
-1.57781e-07
0.0255926
-9.07831e-08
0.0255926
-5.2393e-08
0.0255926
-2.84939e-08
0.0255926
-1.57848e-08
0.0255926
-1.12229e-08
0.0255926
-7.27738e-09
0.0255926
-2.59207e-09
0.0255926
-1.00709e-10
0.0255926
2.98038e-10
0.0255926
-1.51987e-09
0.0255926
-2.43313e-09
0.0255926
-1.54648e-10
0.0255926
8.82154e-10
0.0255926
-4.3616e-10
0.0255926
-1.61079e-09
0.0255926
-1.54693e-09
0.0255926
5.77524e-10
0.0255926
1.86299e-09
0.0255926
1.60503e-10
0.0255926
-1.69423e-09
0.0255926
-1.47904e-09
0.0255926
3.25865e-10
0.0255926
2.92029e-09
0.0255926
2.04802e-09
0.0255926
1.46574e-11
0.0255926
-1.33228e-09
0.0255926
3.38897e-10
0.0255926
-5.93131e-10
0.0255926
1.7862e-09
0.0255926
9.77014e-11
0.0255926
5.15582e-10
0.0255926
-1.70806e-09
0.0255926
-3.89368e-09
0.0255926
2.00974e-09
0.0255926
-3.69767e-09
0.0255926
8.26205e-09
0.0255926
-4.26378e-09
0.0255926
-5.01487e-12
0.0255926
5.54215e-09
0.0255926
-1.17447e-08
0.0255926
1.56732e-08
0.0255926
-6.84118e-09
0.0255926
-8.16229e-09
0.0255926
1.44326e-08
0.0255926
-1.63033e-08
0.0255926
1.00366e-09
0.0255926
1.16187e-08
0.0255926
-7.76412e-09
-3.99176e-09
0.0470632
-0.00147295
0.0537034
0.0624681
0.0607424
0.0460816
0.059817
0.0142609
0.0629787
-0.0139841
0.0604309
-0.0524797
0.0583135
-0.0552059
0.0581195
-0.0382742
0.0561251
-0.0528838
0.0548045
-0.0820399
0.0529372
-0.081179
0.047753
-0.0472567
0.0415422
-0.023893
0.036785
-0.0122457
0.0338347
-0.00765592
0.0314427
-0.00626987
0.030061
-0.00458232
0.0298485
-0.00136219
0.0290985
0.000877556
0.0277643
0.000611164
0.0270903
-1.3811e-05
0.0272855
0.000778377
0.027599
0.00228939
0.027662
0.00289147
0.0275501
0.00214879
0.0273269
0.000720905
0.0270186
-0.000699633
0.0266742
-0.0017854
0.0263717
-0.00241389
0.0261464
-0.00255086
0.0259863
-0.00227587
0.0258684
-0.0017863
0.0257789
-0.00127793
0.0257129
-0.000860487
0.0256669
-0.000558763
0.0256368
-0.000355409
0.0256182
-0.00022345
0.0256072
-0.000139354
0.0256008
-8.62503e-05
0.0255972
-5.29555e-05
0.0255952
-3.22358e-05
0.0255941
-1.94483e-05
0.0255935
-1.16364e-05
0.0255931
-6.91068e-06
0.0255929
-4.07167e-06
0.0255928
-2.38471e-06
0.0255927
-1.39077e-06
0.0255927
-8.06455e-07
0.0255926
-4.6647e-07
0.0255926
-2.66771e-07
0.0255926
-1.50972e-07
0.0255926
-8.69882e-08
0.0255926
-5.03908e-08
0.0255926
-2.73238e-08
0.0255926
-1.50756e-08
0.0255926
-1.07037e-08
0.0255926
-6.69597e-09
0.0255926
-2.29968e-09
0.0255926
-2.4677e-10
0.0255926
1.49012e-10
0.0255926
-1.35985e-09
0.0255926
-2.25302e-09
0.0255926
-1.97259e-10
0.0255926
7.52765e-10
0.0255926
-5.07217e-10
0.0255926
-1.50945e-09
0.0255926
-1.38896e-09
0.0255926
5.0282e-10
0.0255926
1.68101e-09
0.0255926
1.17555e-10
0.0255926
-1.55892e-09
0.0255926
-1.24714e-09
0.0255926
3.63703e-10
0.0255926
2.67529e-09
0.0255926
1.77145e-09
0.0255926
1.5166e-10
0.0255926
-1.19122e-09
0.0255926
5.70872e-10
0.0255926
-7.94997e-10
0.0255926
1.79118e-09
0.0255926
-2.52958e-10
0.0255926
7.51131e-10
0.0255926
-1.60981e-09
0.0255926
-3.96813e-09
0.0255926
2.61596e-09
0.0255926
-4.79556e-09
0.0255926
9.43632e-09
0.0255926
-5.55517e-09
0.0255926
5.39466e-10
0.0255926
6.5815e-09
0.0255926
-1.40259e-08
0.0255926
1.85625e-08
0.0255926
-8.87419e-09
0.0255926
-8.99208e-09
0.0255926
1.75745e-08
0.0255926
-1.91583e-08
0.0255926
1.68139e-09
0.0255926
1.35687e-08
0.0255926
-9.35602e-09
-4.73238e-09
0.0478895
-0.000940116
0.056795
0.0535627
0.0615806
0.041296
0.0616082
0.0142333
0.0637939
-0.0161697
0.0593265
-0.0480123
0.0563672
-0.0522466
0.0554739
-0.0373809
0.0541115
-0.0515214
0.0553802
-0.0833086
0.0544776
-0.0802763
0.0484071
-0.0411862
0.0427833
-0.0182692
0.0384424
-0.00790491
0.0346673
-0.0038808
0.0320078
-0.0036103
0.0300882
-0.0026628
0.0296215
-0.000895423
0.0297487
0.000750363
0.0288755
0.00148428
0.0274249
0.00143681
0.0267262
0.00147714
0.0270803
0.00193522
0.0279401
0.00203171
0.0286898
0.00139909
0.0289019
0.000508761
0.0285007
-0.000298448
0.0277717
-0.00105633
0.0270593
-0.00170151
0.0265305
-0.00202204
0.0261838
-0.00192913
0.0259633
-0.00156581
0.0258221
-0.00113677
0.0257319
-0.00077028
0.0256754
-0.000502216
0.0256409
-0.000320907
0.0256204
-0.000202966
0.0256085
-0.000127447
0.0256016
-7.94244e-05
0.0255978
-4.90698e-05
0.0255955
-3.0029e-05
0.0255943
-1.81939e-05
0.0255936
-1.0921e-05
0.0255932
-6.50124e-06
0.0255929
-3.83724e-06
0.0255928
-2.25057e-06
0.0255927
-1.31407e-06
0.0255927
-7.61993e-07
0.0255926
-4.4058e-07
0.0255926
-2.5226e-07
0.0255926
-1.4307e-07
0.0255926
-8.26964e-08
0.0255926
-4.8028e-08
0.0255926
-2.59133e-08
0.0255926
-1.41434e-08
0.0255926
-1.01101e-08
0.0255926
-6.14984e-09
0.0255926
-2.0069e-09
0.0255926
-3.20183e-10
0.0255926
8.52397e-11
0.0255926
-1.25317e-09
0.0255926
-2.12367e-09
0.0255926
-2.35437e-10
0.0255926
6.49817e-10
0.0255926
-5.24077e-10
0.0255926
-1.42541e-09
0.0255926
-1.27597e-09
0.0255926
4.67505e-10
0.0255926
1.51436e-09
0.0255926
1.00206e-10
0.0255926
-1.43982e-09
0.0255926
-1.0807e-09
0.0255926
3.91623e-10
0.0255926
2.46699e-09
0.0255926
1.5302e-09
0.0255926
2.92001e-10
0.0255926
-1.11501e-09
0.0255926
7.48531e-10
0.0255926
-9.72462e-10
0.0255926
1.84702e-09
0.0255926
-5.94355e-10
0.0255926
1.00808e-09
0.0255926
-1.56619e-09
0.0255926
-4.00984e-09
0.0255926
3.17492e-09
0.0255926
-5.86189e-09
0.0255926
1.06842e-08
0.0255926
-6.97881e-09
0.0255926
1.27954e-09
0.0255926
7.37185e-09
0.0255926
-1.62408e-08
0.0255926
2.15688e-08
0.0255926
-1.11829e-08
0.0255926
-9.41586e-09
0.0255926
2.05602e-08
0.0255926
-2.21488e-08
0.0255926
2.58707e-09
0.0255926
1.53403e-08
0.0255926
-1.09393e-08
-5.39381e-09
0.0506471
-0.00363235
0.058966
0.0452437
0.0615089
0.0387531
0.0612674
0.0144748
0.0621413
-0.0170436
0.0579445
-0.0438156
0.0535784
-0.0478805
0.052982
-0.0367846
0.0531971
-0.0517365
0.0555382
-0.0856497
0.0556248
-0.0803629
0.04912
-0.0346814
0.0422622
-0.0114114
0.0381052
-0.00374791
0.0349263
-0.000701972
0.0321274
-0.000811349
0.0299131
-0.000448463
0.0288015
0.000216113
0.0289483
0.000603577
0.029306
0.00112661
0.0288564
0.00188637
0.0278569
0.00247668
0.0271129
0.00267923
0.0268649
0.00227965
0.0268475
0.00141655
0.0267982
0.000558004
0.0266581
-0.000158322
0.0264787
-0.000876943
0.0263065
-0.00152933
0.0261576
-0.0018731
0.0260266
-0.00179816
0.0259101
-0.00144932
0.0258113
-0.00103795
0.0257346
-0.000693607
0.0256804
-0.000447969
0.0256448
-0.000285386
0.0256229
-0.000181066
0.02561
-0.000114494
0.0256025
-7.19539e-05
0.0255983
-4.48134e-05
0.0255958
-2.7611e-05
0.0255945
-1.68171e-05
0.0255937
-1.01331e-05
0.0255932
-6.04828e-06
0.025593
-3.57665e-06
0.0255928
-2.10074e-06
0.0255927
-1.22789e-06
0.0255927
-7.11923e-07
0.0255927
-4.11461e-07
0.0255926
-2.35875e-07
0.0255926
-1.34187e-07
0.0255926
-7.78217e-08
0.0255926
-4.52693e-08
0.0255926
-2.43041e-08
0.0255926
-1.31189e-08
0.0255926
-9.40057e-09
0.0255926
-5.52908e-09
0.0255926
-1.70789e-09
0.0255926
-4.16189e-10
0.0255926
2.55677e-12
0.0255926
-1.14995e-09
0.0255926
-1.97619e-09
0.0255926
-2.42364e-10
0.0255926
5.46225e-10
0.0255926
-5.45997e-10
0.0255926
-1.32878e-09
0.0255926
-1.13947e-09
0.0255926
4.21712e-10
0.0255926
1.35092e-09
0.0255926
7.12822e-11
0.0255926
-1.32185e-09
0.0255926
-8.96721e-10
0.0255926
4.34031e-10
0.0255926
2.23701e-09
0.0255926
1.25287e-09
0.0255926
4.29618e-10
0.0255926
-1.03256e-09
0.0255926
9.28975e-10
0.0255926
-1.16834e-09
0.0255926
1.93101e-09
0.0255926
-9.76676e-10
0.0255926
1.2989e-09
0.0255926
-1.56857e-09
0.0255926
-3.96396e-09
0.0255926
3.71056e-09
0.0255926
-6.91826e-09
0.0255926
1.19691e-08
0.0255926
-8.57852e-09
0.0255926
2.26697e-09
0.0255926
7.8996e-09
0.0255926
-1.83127e-08
0.0255926
2.46377e-08
0.0255926
-1.38203e-08
0.0255926
-9.38087e-09
0.0255926
2.33327e-08
0.0255926
-2.51988e-08
0.0255926
3.7146e-09
0.0255926
1.69168e-08
0.0255926
-1.25075e-08
-5.97017e-09
0.0523205
-0.00677911
0.0584323
0.039132
0.0604993
0.0366862
0.0606288
0.0143453
0.0607759
-0.0171908
0.0561185
-0.0391581
0.0521841
-0.0439461
0.0523978
-0.0369983
0.0531872
-0.0525258
0.0575434
-0.0900058
0.057734
-0.0805536
0.0509099
-0.0278573
0.0438826
-0.00438406
0.0386736
0.00146111
0.0355389
0.00243264
0.0324485
0.00227913
0.029667
0.00233295
0.0287878
0.00109535
0.0290916
0.000299752
0.0290441
0.00117413
0.0284422
0.00248833
0.0279454
0.00297345
0.0278369
0.00278774
0.0280428
0.00207368
0.0283413
0.0011181
0.0284501
0.000449173
0.0282071
8.47332e-05
0.0276784
-0.000348269
0.0270784
-0.000929311
0.0265752
-0.00136987
0.0262167
-0.00143965
0.0259811
-0.00121382
0.0258315
-0.000888288
0.0257379
-0.000600055
0.0256801
-0.000390169
0.0256448
-0.000250037
0.0256234
-0.000159709
0.0256107
-0.000101739
0.0256031
-6.44156e-05
0.0255987
-4.03968e-05
0.0255961
-2.50396e-05
0.0255947
-1.53259e-05
0.0255938
-9.26971e-06
0.0255933
-5.54883e-06
0.025593
-3.28848e-06
0.0255928
-1.93474e-06
0.0255927
-1.13218e-06
0.0255927
-6.56415e-07
0.0255927
-3.79314e-07
0.0255926
-2.17734e-07
0.0255926
-1.24299e-07
0.0255926
-7.2416e-08
0.0255926
-4.21341e-08
0.0255926
-2.24717e-08
0.0255926
-1.1955e-08
0.0255926
-8.6133e-09
0.0255926
-4.94236e-09
0.0255926
-1.43524e-09
0.0255926
-4.67509e-10
0.0255926
-1.91054e-11
0.0255926
-1.06825e-09
0.0255926
-1.86532e-09
0.0255926
-2.31488e-10
0.0255926
4.65372e-10
0.0255926
-5.45372e-10
0.0255926
-1.22698e-09
0.0255926
-1.03846e-09
0.0255926
3.98112e-10
0.0255926
1.20878e-09
0.0255926
5.17496e-11
0.0255926
-1.20633e-09
0.0255926
-7.4982e-10
0.0255926
4.43314e-10
0.0255926
2.03474e-09
0.0255926
1.00753e-09
0.0255926
5.5823e-10
0.0255926
-9.84334e-10
0.0255926
1.06879e-09
0.0255926
-1.3608e-09
0.0255926
2.05555e-09
0.0255926
-1.356e-09
0.0255926
1.62695e-09
0.0255926
-1.63681e-09
0.0255926
-3.85354e-09
0.0255926
4.18696e-09
0.0255926
-7.94488e-09
0.0255926
1.3315e-08
0.0255926
-1.03424e-08
0.0255926
3.52799e-09
0.0255926
8.09711e-09
0.0255926
-2.02409e-08
0.0255926
2.77917e-08
0.0255926