/*--------------------------------*- C++ -*----------------------------------*\
| =========                 |                                                 |
| \\      /  F ield         | OpenFOAM: The Open Source CFD Toolbox           |
|  \\    /   O peration     | Version:  2.4.0                                 |
|   \\  /    A nd           | Web:      www.OpenFOAM.org                      |
|    \\/     M anipulation  |                                                 |
\*---------------------------------------------------------------------------*/
FoamFile
{
    version     2.0;
    format      ascii;
    class       volVectorField;
    location    "0.54";
    object      U;
}
// * * * * * * * * * * * * * * * * * * * * * * * * * * * * * * * * * * * * * //

dimensions      [0 1 -1 0 0 0 0];

internalField   nonuniform List<vector> 
4400
(
(9.64613 -0.0526678 0)
(10.346 0.130137 0)
(9.21715 -0.0929284 0)
(10.3095 0.130413 0)
(8.91845 -0.0593037 0)
(10.1635 0.0525569 0)
(8.69272 0.0274981 0)
(10.0824 -0.00500263 0)
(8.09851 0.0212908 0)
(10.7637 0.096756 0)
(5.98855 -0.0389779 0)
(12.2775 0.0878698 0)
(3.41776 0.0338223 0)
(13.2368 0.157345 0)
(3.09151 -0.228571 0)
(10.1965 0.230618 0)
(9.40149 0.270044 0)
(2.90931 -0.0346941 0)
(9.21214 -0.26783 0)
(10.1181 0.134733 0)
(9.0435 0.0436303 0)
(11.2692 -0.0261196 0)
(8.94256 0.073863 0)
(11.0307 -0.0402268 0)
(9.3704 0.0658496 0)
(10.6215 0.0134891 0)
(9.35852 -0.0289963 0)
(11.2711 0.143645 0)
(7.73426 -0.133395 0)
(13.2387 0.276827 0)
(4.78945 -0.170648 0)
(15.1294 0.341309 0)
(2.74559 -0.103752 0)
(15.0663 -0.209985 0)
(7.24507 0.932086 0)
(6.86788 -1.41393 0)
(13.1178 0.733525 0)
(5.55954 0.347713 0)
(10.4623 -1.31535 0)
(8.91397 0.118374 0)
(9.7098 -0.108829 0)
(10.4238 0.149129 0)
(9.64252 -0.0537497 0)
(10.4313 0.0608858 0)
(9.72515 0.0122622 0)
(10.4135 0.0565672 0)
(9.61994 -0.113915 0)
(10.8909 0.319075 0)
(8.52464 -0.4 0)
(12.8128 0.588451 0)
(6.1361 -0.389904 0)
(14.6964 0.301914 0)
(7.25386 0.242194 0)
(11.2163 -0.900669 0)
(11.3563 1.16489 0)
(8.75195 -0.783114 0)
(10.9919 0.323949 0)
(10.6466 0.713994 0)
(10.7621 -0.828856 0)
(9.30288 0.353816 0)
(9.54583 -0.00391964 0)
(10.5827 0.013407 0)
(9.56865 0.0408522 0)
(10.4307 -0.0170774 0)
(9.8206 0.0403863 0)
(10.3022 0.0565457 0)
(9.74915 -0.139762 0)
(10.687 0.364571 0)
(9.19329 -0.47686 0)
(11.6839 0.678675 0)
(8.89543 -0.422339 0)
(12.1322 0.101916 0)
(10.1936 0.675033 0)
(10.2544 -1.23191 0)
(10.8999 1.49127 0)
(11.3793 -0.787491 0)
(10.2902 0.00235045 0)
(11.4974 0.906962 0)
(11.9338 -1.11519 0)
(9.07841 -0.0761848 0)
(9.90415 -0.114434 0)
(10.1329 0.121801 0)
(9.8963 -0.0232273 0)
(10.1744 0.0173742 0)
(9.89416 0.0380192 0)
(10.2742 0.064461 0)
(9.85763 -0.184627 0)
(10.3069 0.435919 0)
(9.99822 -0.555995 0)
(10.5483 0.646774 0)
(10.0815 -0.340044 0)
(10.7288 -0.111521 0)
(10.6816 0.772711 0)
(9.98956 -1.14348 0)
(10.8612 1.18267 0)
(11.1731 -0.52032 0)
(9.76522 -0.121224 0)
(11.5348 0.520037 0)
(11.5384 -0.390015 0)
(8.74066 0.269706 0)
(9.83958 -0.0334262 0)
(10.1792 0.0434801 0)
(9.8803 0.00183469 0)
(10.1142 0.0175919 0)
(10.0095 0.00317701 0)
(10.0998 0.0742548 0)
(10.0295 -0.146094 0)
(10.093 0.33052 0)
(10.2156 -0.453366 0)
(9.92438 0.560399 0)
(10.5846 -0.351154 0)
(9.65165 -0.103151 0)
(10.7238 0.833301 0)
(10.3672 -1.1755 0)
(9.74958 1.09979 0)
(11.6897 -0.343122 0)
(9.36849 -0.402784 0)
(11.303 0.933989 0)
(10.6479 -0.67423 0)
(9.67239 -0.0806441 0)
(9.93904 -0.0945423 0)
(10.0753 0.0841092 0)
(9.93117 -0.00431643 0)
(10.1145 -0.00716822 0)
(9.93079 0.0424445 0)
(10.2177 0.0501897 0)
(9.91313 -0.168555 0)
(10.1529 0.368479 0)
(10.2033 -0.473898 0)
(9.84281 0.464038 0)
(10.484 -0.197427 0)
(9.75328 -0.239361 0)
(10.283 0.777725 0)
(10.6243 -1.03051 0)
(9.40407 0.847222 0)
(11.2693 -0.272068 0)
(9.28956 -0.332582 0)
(10.5871 0.537978 0)
(10.9438 -0.25032 0)
(9.75726 -0.0392991 0)
(9.967 -0.0543228 0)
(10.006 0.0655322 0)
(10.0117 -0.0293849 0)
(9.99025 0.0407399 0)
(10.0607 -0.0177893 0)
(10.0843 0.0713437 0)
(10.0053 -0.121423 0)
(10.0987 0.248803 0)
(10.2217 -0.346469 0)
(9.8183 0.401174 0)
(10.5478 -0.23532 0)
(9.6508 -0.142062 0)
(10.3375 0.68777 0)
(10.5299 -0.976182 0)
(9.16384 0.800172 0)
(10.983 -0.114894 0)
(9.71732 -0.478007 0)
(9.66929 0.748942 0)
(11.0088 -0.457645 0)
(9.76785 -0.119441 0)
(9.96757 -0.0681122 0)
(10.0277 0.0494325 0)
(9.96917 0.00510642 0)
(10.0491 -0.014685 0)
(9.99412 0.0263923 0)
(10.1285 0.0496945 0)
(9.99192 -0.151377 0)
(10.066 0.291456 0)
(10.2542 -0.353398 0)
(9.77259 0.304606 0)
(10.5205 -0.0753748 0)
(9.64983 -0.261158 0)
(10.3919 0.618247 0)
(10.3217 -0.79403 0)
(9.55471 0.62378 0)
(10.6182 -0.166476 0)
(10.0873 -0.351054 0)
(9.59326 0.588764 0)
(10.9075 -0.439191 0)
(9.81924 -0.0875023 0)
(9.99723 -0.0631244 0)
(9.97618 0.0710639 0)
(10.0192 -0.0441315 0)
(9.99234 0.0423748 0)
(10.0333 -0.0215535 0)
(10.1141 0.050514 0)
(9.9724 -0.0846077 0)
(10.1151 0.165624 0)
(10.1753 -0.234814 0)
(9.88173 0.259431 0)
(10.3804 -0.118922 0)
(9.81078 -0.192437 0)
(10.2553 0.596998 0)
(10.4303 -0.808436 0)
(9.5698 0.63147 0)
(10.6836 -0.0589217 0)
(10.227 -0.447526 0)
(9.52149 0.649743 0)
(11.0299 -0.414902 0)
(9.74851 -0.0909545 0)
(9.99328 -0.0488882 0)
(9.9874 0.0288602 0)
(10.0062 0.000562177 0)
(9.99938 -0.00963277 0)
(10.0412 0.00900071 0)
(10.0814 0.0480143 0)
(10.0139 -0.127477 0)
(10.0794 0.213243 0)
(10.1799 -0.2414 0)
(9.91946 0.172428 0)
(10.3257 0.0130907 0)
(9.89738 -0.275834 0)
(10.2122 0.501626 0)
(10.402 -0.60006 0)
(9.62091 0.470738 0)
(10.7031 -0.102648 0)
(9.92562 -0.309652 0)
(9.90454 0.593831 0)
(10.889 -0.477966 0)
(9.52994 -0.0149133 0)
(10.0046 -0.0585412 0)
(9.97287 0.0572331 0)
(10.0156 -0.0408372 0)
(9.99613 0.0293825 0)
(10.0305 -0.0196773 0)
(10.1031 0.0302041 0)
(9.99404 -0.0608239 0)
(10.0814 0.107072 0)
(10.1919 -0.157049 0)
(9.90879 0.156381 0)
(10.2998 -0.037757 0)
(9.95462 -0.218851 0)
(10.1534 0.501439 0)
(10.3986 -0.629012 0)
(9.68616 0.43481 0)
(10.5541 0.0259705 0)
(10.1587 -0.431512 0)
(9.8023 0.541505 0)
(10.7275 -0.332323 0)
(10.1325 -0.0677999 0)
(10.0036 -0.0393187 0)
(9.97561 0.0214507 0)
(10.0147 -0.0101356 0)
(9.99088 -0.0049677 0)
(10.0486 -0.00269469 0)
(10.0755 0.0360234 0)
(10.0152 -0.0949933 0)
(10.086 0.136898 0)
(10.1534 -0.148415 0)
(9.97206 0.0759992 0)
(10.2419 0.0598149 0)
(9.99254 -0.265229 0)
(10.1504 0.406093 0)
(10.3754 -0.46092 0)
(9.73487 0.339228 0)
(10.5281 -0.0485607 0)
(10.1085 -0.292678 0)
(9.92819 0.537587 0)
(10.736 -0.439222 0)
(9.74839 -0.0145393 0)
(10.0077 -0.0458279 0)
(9.97266 0.0354168 0)
(10.0158 -0.0340645 0)
(9.99608 0.0147534 0)
(10.0388 -0.0168578 0)
(10.0886 0.0145818 0)
(10.0124 -0.04369 0)
(10.072 0.063109 0)
(10.1798 -0.0994103 0)
(9.96057 0.0774819 0)
(10.216 0.011189 0)
(10.06 -0.214784 0)
(10.0884 0.391797 0)
(10.3803 -0.459683 0)
(9.79005 0.279592 0)
(10.4469 0.0640287 0)
(10.2164 -0.376623 0)
(9.85268 0.423782 0)
(10.6724 -0.228832 0)
(10.1167 -0.0725876 0)
(10.0071 -0.0330269 0)
(9.97497 0.0133047 0)
(10.0157 -0.0175491 0)
(9.99439 -0.0047126 0)
(10.0496 -0.0103108 0)
(10.0758 0.0193628 0)
(10.0209 -0.0671028 0)
(10.082 0.0747193 0)
(10.1536 -0.0851638 0)
(9.99612 0.0155297 0)
(10.194 0.0699657 0)
(10.0615 -0.226492 0)
(10.1028 0.302974 0)
(10.3546 -0.337402 0)
(9.82344 0.227176 0)
(10.3957 -0.0184563 0)
(10.2378 -0.265185 0)
(9.91101 0.436899 0)
(10.5791 -0.355509 0)
(10.0141 -0.0173003 0)
(10.0084 -0.0340776 0)
(9.97564 0.0156218 0)
(10.0163 -0.0289355 0)
(9.99981 0.00377469 0)
(10.045 -0.0152918 0)
(10.0825 0.00119404 0)
(10.0232 -0.0299017 0)
(10.0733 0.0294539 0)
(10.1687 -0.0601516 0)
(9.99665 0.0261663 0)
(10.1702 0.0254592 0)
(10.1074 -0.172918 0)
(10.074 0.267608 0)
(10.3402 -0.309573 0)
(9.88132 0.166148 0)
(10.3521 0.0527683 0)
(10.2661 -0.282705 0)
(9.90746 0.300934 0)
(10.5665 -0.165732 0)
(10.1263 -0.0641733 0)
(10.0081 -0.0263444 0)
(9.97814 0.00168489 0)
(10.0174 -0.0217698 0)
(10.0009 -0.00876121 0)
(10.0515 -0.0172023 0)
(10.0786 0.00373613 0)
(10.0277 -0.046236 0)
(10.0811 0.029622 0)
(10.1558 -0.0488733 0)
(10.0168 -0.0152497 0)
(10.1611 0.0501882 0)
(10.1089 -0.158033 0)
(10.0778 0.183443 0)
(10.3327 -0.221991 0)
(9.90079 0.135407 0)
(10.3112 -0.0136814 0)
(10.3085 -0.205388 0)
(9.91798 0.297179 0)
(10.4972 -0.243316 0)
(10.1694 -0.0212497 0)
(10.0069 -0.0247837 0)
(9.9816 -0.000300398 0)
(10.0184 -0.0238769 0)
(10.0054 -0.0054816 0)
(10.0522 -0.0157676 0)
(10.0804 -0.0100211 0)
(10.0328 -0.0196983 0)
(10.0761 0.00418218 0)
(10.1652 -0.0387055 0)
(10.0159 0.00190362 0)
(10.1539 0.00692926 0)
(10.1182 -0.102233 0)
(10.0815 0.138591 0)
(10.299 -0.184438 0)
(9.93466 0.0884879 0)
(10.2934 0.00828586 0)
(10.276 -0.162422 0)
(9.94721 0.178486 0)
(10.4538 -0.129766 0)
(10.1624 -0.0286355 0)
(9.99549 -0.0238029 0)
(9.9942 -0.014089 0)
(10.0159 -0.0249025 0)
(10.0034 -0.0152187 0)
(10.0548 -0.0241237 0)
(10.0548 -0.0118705 0)
(10.0307 -0.0319929 0)
(10.0485 -0.00052867 0)
(10.1455 -0.032396 0)
(9.95685 -0.0267318 0)
(10.153 0.0127262 0)
(9.98354 -0.0766994 0)
(10.126 0.063513 0)
(10.1432 -0.110881 0)
(9.88322 0.0552601 0)
(10.2483 -0.0329949 0)
(10.0216 -0.106765 0)
(9.97853 0.141857 0)
(10.2683 -0.136266 0)
(9.97996 -0.0165117 0)
(9.94199 -0.0123191 0)
(9.85285 -0.0115846 0)
(9.77496 -0.0157539 0)
(9.66864 -0.0129583 0)
(9.62353 -0.0137884 0)
(9.51828 -0.0170017 0)
(9.40052 -0.0108599 0)
(9.35116 -0.0144507 0)
(9.33513 -0.0203007 0)
(9.07286 -0.00798762 0)
(9.13658 -0.0200319 0)
(8.90745 -0.0204288 0)
(9.00572 0.0112789 0)
(8.8578 -0.0498743 0)
(8.58864 0.00665798 0)
(8.84424 -0.0141329 0)
(8.42791 -0.0383594 0)
(8.44704 0.0192112 0)
(8.6438 -0.0346423 0)
(8.13425 -0.0131884 0)
(6.27874 1.4597 0)
(9.22369 -0.291778 0)
(9.22248 -1.75313 0)
(10.8534 -1.53195 0)
(11.3505 -1.03744 0)
(10.6147 -1.36507 0)
(8.61861 -2.35193 0)
(6.85202 -2.84685 0)
(6.25463 -2.49641 0)
(5.84746 -1.92654 0)
(5.49267 -1.42394 0)
(5.3047 -1.00423 0)
(5.21006 -0.681396 0)
(5.15006 -0.451897 0)
(5.10948 -0.296335 0)
(5.0837 -0.193334 0)
(5.06833 -0.12572 0)
(5.05955 -0.0814691 0)
(5.0547 -0.0525842 0)
(5.05207 -0.0337983 0)
(5.05068 -0.0216335 0)
(5.04993 -0.0137936 0)
(5.04952 -0.00876318 0)
(5.0493 -0.00554801 0)
(5.04917 -0.00350072 0)
(5.0491 -0.00220144 0)
(5.04906 -0.00137994 0)
(5.04903 -0.000861906 0)
(5.04902 -0.000536729 0)
(5.04901 -0.000332993 0)
(5.049 -0.000205953 0)
(5.049 -0.000126929 0)
(5.049 -7.79333e-05 0)
(5.04899 -4.77256e-05 0)
(5.04899 -2.91117e-05 0)
(5.04899 -1.76604e-05 0)
(5.04899 -1.07487e-05 0)
(5.04899 -6.46588e-06 0)
(5.04899 -3.91525e-06 0)
(5.04899 -2.35945e-06 0)
(5.04899 -1.36549e-06 0)
(5.04899 -8.77097e-07 0)
(5.04899 -4.61944e-07 0)
(5.04899 -2.88506e-07 0)
(5.04899 -2.02828e-07 0)
(5.04899 -8.02095e-08 0)
(5.04899 -4.50732e-08 0)
(5.04899 -7.57621e-08 0)
(5.04899 7.73196e-09 0)
(5.04899 1.51231e-08 0)
(5.04899 -1.11669e-07 0)
(5.04899 1.26287e-07 0)
(5.04899 -9.46796e-08 0)
(5.04899 3.0772e-08 0)
(5.04899 9.98956e-09 0)
(5.04899 -5.09679e-08 0)
(5.04899 7.2745e-08 0)
(5.04899 -8.82088e-08 0)
(5.04899 9.26138e-08 0)
(5.04899 -3.29107e-08 0)
(5.04899 -5.61285e-08 0)
(5.04899 1.30075e-07 0)
(5.04899 -1.09356e-07 0)
(5.04899 1.30234e-08 0)
(5.04899 1.0497e-07 0)
(5.04899 -1.23837e-07 0)
(5.04899 4.45324e-08 0)
(5.04899 7.63695e-08 0)
(5.04899 -1.28454e-07 0)
(5.04899 8.14786e-08 0)
(5.04899 3.96363e-08 0)
(5.04899 -1.45418e-07 0)
(5.04899 9.41004e-08 0)
(5.04899 7.95377e-08 0)
(5.04899 -1.68096e-07 0)
(5.04899 3.03284e-08 0)
(5.04899 1.67276e-07 0)
(5.04899 -1.12232e-07 0)
(5.04899 -9.74212e-08 0)
(5.04899 1.31338e-07 0)
(5.04899 5.22288e-08 0)
(5.04899 -1.26429e-07 0)
(5.04899 -4.15201e-08 0)
(5.04899 7.27238e-08 0)
(5.04899 2.0047e-08 0)
(5.04899 -7.60049e-08 0)
(5.04899 -6.95889e-08 0)
(5.04899 1.24588e-08 0)
(5.04899 8.08892e-08 0)
(5.049 2.83171e-09 0)
(5.04899 -1.1529e-07 0)
(5.049 -3.48973e-08 0)
(5.04898 7.61756e-08 0)
(5.04901 8.99301e-08 0)
(5.04898 -1.1408e-08 0)
(5.049 -3.2755e-08 0)
(5.04899 -1.73683e-08 0)
(5.04899 1.0005e-08 0)
(5.049 1.88248e-08 0)
(5.04899 -2.40249e-09 0)
(8.74539 2.27844 0)
(11.3484 -0.7446 0)
(10.7675 -2.37223 0)
(11.8407 -1.98261 0)
(11.9881 -1.32462 0)
(10.5967 -1.59501 0)
(8.58332 -2.30366 0)
(6.8417 -2.71198 0)
(6.17321 -2.43808 0)
(5.90043 -1.85057 0)
(5.60553 -1.36578 0)
(5.39388 -0.976919 0)
(5.27101 -0.664158 0)
(5.19096 -0.438717 0)
(5.13568 -0.287725 0)
(5.10008 -0.188403 0)
(5.07868 -0.122994 0)
(5.0662 -0.0799491 0)
(5.059 -0.0517306 0)
(5.05485 -0.0333185 0)
(5.05246 -0.0213637 0)
(5.05107 -0.0136407 0)
(5.05025 -0.0086753 0)
(5.04976 -0.00549693 0)
(5.04946 -0.0034704 0)
(5.04928 -0.00218339 0)
(5.04917 -0.00136895 0)
(5.0491 -0.000855315 0)
(5.04906 -0.000532636 0)
(5.04903 -0.000330515 0)
(5.04902 -0.0002044 0)
(5.04901 -0.000126026 0)
(5.049 -7.74077e-05 0)
(5.049 -4.73529e-05 0)
(5.049 -2.88593e-05 0)
(5.04899 -1.75693e-05 0)
(5.04899 -1.06759e-05 0)
(5.04899 -6.43422e-06 0)
(5.04899 -3.85965e-06 0)
(5.04899 -2.25527e-06 0)
(5.04899 -1.37681e-06 0)
(5.04899 -8.63483e-07 0)
(5.04899 -4.92636e-07 0)
(5.04899 -3.4001e-07 0)
(5.04899 -1.48621e-07 0)
(5.04899 -6.58619e-08 0)
(5.04899 -1.10494e-07 0)
(5.04899 -2.19533e-08 0)
(5.04899 1.67085e-08 0)
(5.04899 -3.38249e-08 0)
(5.04899 -1.81263e-08 0)
(5.04899 2.088e-08 0)
(5.04899 -4.30732e-08 0)
(5.04899 4.42768e-08 0)
(5.04899 1.15679e-08 0)
(5.04899 -4.96762e-08 0)
(5.04899 1.58218e-08 0)
(5.04899 -1.21704e-08 0)
(5.04899 2.1711e-08 0)
(5.04899 1.25566e-08 0)
(5.04899 -2.56706e-08 0)
(5.04899 9.61334e-09 0)
(5.04899 -9.25691e-09 0)
(5.04899 1.95681e-08 0)
(5.04899 4.24377e-08 0)
(5.04899 -2.46241e-08 0)
(5.04899 -8.70091e-09 0)
(5.04899 1.10825e-08 0)
(5.04899 -2.46126e-08 0)
(5.04899 2.52131e-08 0)
(5.04899 1.31676e-08 0)
(5.04899 -3.95137e-08 0)
(5.04899 9.0155e-10 0)
(5.04899 5.68843e-09 0)
(5.04899 -2.76635e-08 0)
(5.04899 1.15144e-08 0)
(5.04899 3.79739e-08 0)
(5.04899 -1.03283e-08 0)
(5.04899 -9.29013e-09 0)
(5.04899 8.52942e-09 0)
(5.04899 -5.90791e-09 0)
(5.04899 -1.45391e-08 0)
(5.04899 2.00808e-10 0)
(5.04899 2.89994e-09 0)
(5.04899 -2.57654e-08 0)
(5.04899 -4.21135e-08 0)
(5.04899 -2.1675e-08 0)
(5.04899 3.86589e-09 0)
(5.04899 1.84115e-08 0)
(5.049 4.25406e-09 0)
(5.04899 -2.50587e-08 0)
(5.049 -1.45376e-09 0)
(5.04898 1.77293e-08 0)
(5.04901 2.37464e-08 0)
(5.04898 2.39968e-08 0)
(5.049 1.20528e-08 0)
(5.04899 9.41397e-09 0)
(5.04899 2.20312e-08 0)
(5.049 -2.93722e-09 0)
(5.04899 -1.47917e-08 0)
(11.1732 1.57813 0)
(11.3548 -0.922102 0)
(10.0273 -2.22032 0)
(10.5614 -1.55051 0)
(10.9224 -0.748692 0)
(10.1567 -0.899669 0)
(8.96974 -1.74819 0)
(7.392 -2.34963 0)
(6.33581 -2.30374 0)
(5.95194 -1.80324 0)
(5.69105 -1.30527 0)
(5.47687 -0.934379 0)
(5.32939 -0.643909 0)
(5.22982 -0.426426 0)
(5.16153 -0.278344 0)
(5.11678 -0.181851 0)
(5.08921 -0.118958 0)
(5.07283 -0.0776321 0)
(5.06322 -0.0504259 0)
(5.05756 -0.0325773 0)
(5.05421 -0.0209356 0)
(5.05219 -0.0133891 0)
(5.05096 -0.00852543 0)
(5.05021 -0.00540653 0)
(5.04975 -0.00341543 0)
(5.04946 -0.00214974 0)
(5.04929 -0.00134809 0)
(5.04917 -0.000842727 0)
(5.04911 -0.000524723 0)
(5.04906 -0.000325467 0)
(5.04904 -0.000201521 0)
(5.04902 -0.000124283 0)
(5.04901 -7.61528e-05 0)
(5.049 -4.66184e-05 0)
(5.049 -2.8561e-05 0)
(5.049 -1.73012e-05 0)
(5.04899 -1.03483e-05 0)
(5.04899 -6.33048e-06 0)
(5.04899 -3.82656e-06 0)
(5.04899 -2.09783e-06 0)
(5.04899 -1.23396e-06 0)
(5.04899 -8.5784e-07 0)
(5.04899 -5.9917e-07 0)
(5.04899 -3.65888e-07 0)
(5.04899 -3.82943e-08 0)
(5.04899 -3.06958e-08 0)
(5.04899 -1.87393e-07 0)
(5.04899 4.14359e-08 0)
(5.04899 9.2311e-08 0)
(5.04899 -9.29141e-08 0)
(5.04899 -1.09301e-07 0)
(5.04899 -1.00547e-07 0)
(5.04899 -1.56538e-08 0)
(5.04899 1.31414e-07 0)
(5.04899 3.51481e-08 0)
(5.04899 -1.60767e-07 0)
(5.04899 -3.83868e-08 0)
(5.04899 5.9189e-08 0)
(5.04899 6.37446e-08 0)
(5.04899 4.288e-08 0)
(5.04899 -9.49468e-08 0)
(5.04899 -7.51447e-08 0)
(5.04899 7.81973e-08 0)
(5.04899 1.45106e-07 0)
(5.04899 9.92028e-08 0)
(5.04899 -3.62863e-08 0)
(5.04899 -1.24248e-07 0)
(5.04899 -6.26212e-08 0)
(5.04899 3.93701e-08 0)
(5.04899 8.28415e-08 0)
(5.04899 4.32722e-08 0)
(5.04899 -5.99456e-08 0)
(5.04899 -1.14692e-07 0)
(5.04899 -6.86378e-08 0)
(5.04899 6.47583e-09 0)
(5.04899 5.46062e-08 0)
(5.04899 7.49349e-08 0)
(5.04899 6.10675e-08 0)
(5.04899 1.03351e-09 0)
(5.04899 -6.51515e-08 0)
(5.04899 -5.73775e-08 0)
(5.04899 1.67746e-08 0)
(5.04899 5.69074e-08 0)
(5.04899 1.02435e-08 0)
(5.04899 -6.3734e-08 0)
(5.04899 -9.09881e-08 0)
(5.04899 -6.7799e-08 0)
(5.04899 -1.21401e-09 0)
(5.04899 3.31075e-08 0)
(5.049 4.83611e-08 0)
(5.04899 2.32165e-08 0)
(5.049 1.30756e-08 0)
(5.04898 9.26626e-09 0)
(5.04901 2.12049e-08 0)
(5.04898 2.77918e-08 0)
(5.049 -2.56133e-08 0)
(5.04899 -3.27247e-08 0)
(5.04899 -2.13768e-08 0)
(5.049 1.92698e-08 0)
(5.04899 2.87354e-08 0)
(11.1288 1.71587 0)
(14.4034 -0.2146 0)
(12.8643 -2.19317 0)
(11.5632 -1.98092 0)
(11.014 -1.0162 0)
(9.56643 -1.07501 0)
(8.56808 -1.82483 0)
(7.66715 -2.25576 0)
(6.57828 -2.14111 0)
(6.01805 -1.73915 0)
(5.74869 -1.27708 0)
(5.54629 -0.891903 0)
(5.38564 -0.606962 0)
(5.26554 -0.40553 0)
(5.18369 -0.267833 0)
(5.13151 -0.17598 0)
(5.09919 -0.115277 0)
(5.07943 -0.0752758 0)
(5.06747 -0.0489518 0)
(5.06027 -0.0316728 0)
(5.05593 -0.0203837 0)
(5.05329 -0.0130517 0)
(5.05166 -0.00831836 0)
(5.05066 -0.00527882 0)
(5.05003 -0.00333655 0)
(5.04964 -0.00210076 0)
(5.0494 -0.00131791 0)
(5.04924 -0.000823789 0)
(5.04915 -0.000513004 0)
(5.04909 -0.000318406 0)
(5.04905 -0.000197024 0)
(5.04903 -0.000121382 0)
(5.04901 -7.45658e-05 0)
(5.04901 -4.56571e-05 0)
(5.049 -2.77642e-05 0)
(5.049 -1.68742e-05 0)
(5.049 -1.02669e-05 0)
(5.04899 -6.22757e-06 0)
(5.04899 -3.70213e-06 0)
(5.04899 -2.15796e-06 0)
(5.04899 -1.37991e-06 0)
(5.04899 -8.77726e-07 0)
(5.04899 -4.8173e-07 0)
(5.04899 -3.37098e-07 0)
(5.04899 -1.20745e-07 0)
(5.04899 -4.46171e-08 0)
(5.04899 -1.36051e-07 0)
(5.04899 -4.56833e-09 0)
(5.04899 3.46383e-08 0)
(5.04899 -7.32677e-08 0)
(5.04899 -2.26761e-08 0)
(5.04899 -9.19427e-11 0)
(5.04899 -4.58001e-08 0)
(5.04899 5.38122e-08 0)
(5.04899 2.32566e-08 0)
(5.04899 -7.26872e-08 0)
(5.04899 4.86355e-09 0)
(5.04899 1.1265e-08 0)
(5.04899 1.11691e-08 0)
(5.04899 2.56449e-08 0)
(5.04899 -2.28354e-08 0)
(5.04899 -1.8303e-08 0)
(5.04899 1.75396e-08 0)
(5.04899 4.56057e-08 0)
(5.04899 4.06607e-08 0)
(5.04899 -1.52174e-08 0)
(5.04899 -2.792e-08 0)
(5.04899 -1.32729e-08 0)
(5.04899 8.60315e-10 0)
(5.04899 2.13628e-08 0)
(5.04899 7.61078e-09 0)
(5.04899 -3.48528e-08 0)
(5.04899 -2.7133e-08 0)
(5.04899 -9.08444e-09 0)
(5.04899 -7.26613e-09 0)
(5.04899 2.04051e-08 0)
(5.04899 2.96282e-08 0)
(5.04899 1.14061e-08 0)
(5.04899 -4.41328e-10 0)
(5.04899 -1.36107e-08 0)
(5.04899 -1.68485e-08 0)
(5.04899 3.60639e-09 0)
(5.04899 1.45602e-08 0)
(5.04899 -1.24462e-08 0)
(5.04899 -4.54828e-08 0)
(5.04899 -5.19148e-08 0)
(5.04899 -2.5287e-08 0)
(5.04899 1.5861e-08 0)
(5.04899 1.88288e-08 0)
(5.049 1.25982e-08 0)
(5.04899 -1.32126e-08 0)
(5.049 -1.10541e-10 0)
(5.04898 1.19092e-08 0)
(5.04901 1.81816e-08 0)
(5.04898 4.59105e-08 0)
(5.049 7.27871e-09 0)
(5.04899 2.29525e-09 0)
(5.04899 3.66214e-08 0)
(5.049 -1.24186e-08 0)
(5.04899 -2.37934e-08 0)
(11.4252 0.806862 0)
(12.3931 -0.986627 0)
(9.69399 -1.85244 0)
(9.54108 -1.25206 0)
(9.55996 -0.416925 0)
(8.72445 -0.608497 0)
(8.36591 -1.45345 0)
(8.06112 -2.00399 0)
(7.07376 -1.9564 0)
(6.20265 -1.59618 0)
(5.81377 -1.22307 0)
(5.59856 -0.878131 0)
(5.43708 -0.584613 0)
(5.30505 -0.377734 0)
(5.20705 -0.246445 0)
(5.14415 -0.163083 0)
(5.10673 -0.108206 0)
(5.0845 -0.0714271 0)
(5.07101 -0.0467971 0)
(5.0627 -0.030429 0)
(5.05755 -0.0196485 0)
(5.05434 -0.0126096 0)
(5.05234 -0.00804862 0)
(5.05109 -0.00511282 0)
(5.0503 -0.0032337 0)
(5.04981 -0.00203694 0)
(5.0495 -0.00127809 0)
(5.04931 -0.000799078 0)
(5.04919 -0.000497761 0)
(5.04912 -0.000308787 0)
(5.04907 -0.000191098 0)
(5.04904 -0.000117895 0)
(5.04902 -7.22935e-05 0)
(5.04901 -4.41632e-05 0)
(5.049 -2.70162e-05 0)
(5.049 -1.64921e-05 0)
(5.049 -9.89516e-06 0)
(5.04899 -6.00219e-06 0)
(5.04899 -3.62987e-06 0)
(5.04899 -2.03008e-06 0)
(5.04899 -1.2323e-06 0)
(5.04899 -7.97523e-07 0)
(5.04899 -5.03868e-07 0)
(5.04899 -3.5482e-07 0)
(5.04899 -6.49992e-08 0)
(5.04899 -1.83844e-08 0)
(5.04899 -1.67873e-07 0)
(5.04899 3.81769e-08 0)
(5.04899 8.08878e-08 0)
(5.04899 -1.01825e-07 0)
(5.04899 -7.45251e-08 0)
(5.04899 -6.84005e-08 0)
(5.04899 -2.9001e-08 0)
(5.04899 9.66819e-08 0)
(5.04899 3.36405e-08 0)
(5.04899 -1.24413e-07 0)
(5.04899 -3.67525e-08 0)
(5.04899 5.31456e-08 0)
(5.04899 3.46385e-08 0)
(5.04899 3.52344e-08 0)
(5.04899 -6.00324e-08 0)
(5.04899 -6.56145e-08 0)
(5.04899 6.49385e-08 0)
(5.04899 1.16027e-07 0)
(5.04899 7.84939e-08 0)
(5.04899 -2.0245e-08 0)
(5.04899 -9.70622e-08 0)
(5.04899 -4.60267e-08 0)
(5.04899 3.10127e-08 0)
(5.04899 5.63781e-08 0)
(5.04899 2.96948e-08 0)
(5.04899 -4.72497e-08 0)
(5.04899 -9.50752e-08 0)
(5.04899 -5.22822e-08 0)
(5.04899 4.25107e-09 0)
(5.04899 3.48334e-08 0)
(5.04899 6.42995e-08 0)
(5.04899 5.77491e-08 0)
(5.04899 7.28403e-10 0)
(5.04899 -4.92987e-08 0)
(5.04899 -4.446e-08 0)
(5.04899 1.39939e-08 0)
(5.04899 4.21047e-08 0)
(5.04899 1.4639e-09 0)
(5.04899 -5.81139e-08 0)
(5.04899 -7.73969e-08 0)
(5.04899 -5.09479e-08 0)
(5.04899 4.85044e-09 0)
(5.04899 2.94314e-08 0)
(5.049 3.96167e-08 0)
(5.04899 8.11582e-09 0)
(5.049 8.36103e-09 0)
(5.04898 9.23838e-09 0)
(5.04901 1.6041e-08 0)
(5.04898 4.97032e-08 0)
(5.049 -2.89429e-08 0)
(5.04899 -3.26429e-08 0)
(5.04899 2.24325e-09 0)
(5.049 -7.34282e-10 0)
(5.04899 8.2683e-09 0)
(11.3853 0.946295 0)
(11.6113 -0.363811 0)
(9.89068 -1.86033 0)
(8.57967 -1.59523 0)
(8.57628 -0.626728 0)
(8.88927 -0.844574 0)
(8.441 -1.68929 0)
(7.98215 -1.97999 0)
(7.48421 -1.83033 0)
(6.52081 -1.48999 0)
(5.93051 -1.11714 0)
(5.65008 -0.816268 0)
(5.46469 -0.570251 0)
(5.33156 -0.378565 0)
(5.23395 -0.246027 0)
(5.16465 -0.160231 0)
(5.11938 -0.104948 0)
(5.09167 -0.0688179 0)
(5.07512 -0.0449684 0)
(5.06518 -0.0292136 0)
(5.05911 -0.0188611 0)
(5.05535 -0.012107 0)
(5.05299 -0.00773103 0)
(5.0515 -0.00491328 0)
(5.05057 -0.00310868 0)
(5.04998 -0.00195875 0)
(5.04961 -0.00122932 0)
(5.04938 -0.000768687 0)
(5.04923 -0.000478751 0)
(5.04914 -0.000297082 0)
(5.04908 -0.000183946 0)
(5.04905 -0.000113311 0)
(5.04903 -6.94757e-05 0)
(5.04901 -4.25942e-05 0)
(5.04901 -2.59912e-05 0)
(5.049 -1.57759e-05 0)
(5.049 -9.52866e-06 0)
(5.049 -5.7674e-06 0)
(5.04899 -3.42229e-06 0)
(5.04899 -1.97605e-06 0)
(5.04899 -1.29852e-06 0)
(5.04899 -8.19694e-07 0)
(5.04899 -4.13095e-07 0)
(5.04899 -3.0431e-07 0)
(5.04899 -1.14289e-07 0)
(5.04899 -2.84293e-08 0)
(5.04899 -1.42543e-07 0)
(5.04899 -3.3272e-10 0)
(5.04899 4.04557e-08 0)
(5.04899 -9.72096e-08 0)
(5.04899 -2.68846e-08 0)
(5.04899 1.0311e-08 0)
(5.04899 -5.20304e-08 0)
(5.04899 3.80675e-08 0)
(5.04899 3.1179e-08 0)
(5.04899 -7.18965e-08 0)
(5.04899 3.65782e-09 0)
(5.04899 2.24154e-08 0)
(5.04899 1.14175e-09 0)
(5.04899 2.44747e-08 0)
(5.04899 -1.21554e-08 0)
(5.04899 -1.60336e-08 0)
(5.04899 2.3711e-08 0)
(5.04899 4.99202e-08 0)
(5.04899 3.78709e-08 0)
(5.04899 -1.78073e-08 0)
(5.04899 -3.1702e-08 0)
(5.04899 -9.42583e-09 0)
(5.04899 5.50701e-09 0)
(5.04899 1.74602e-08 0)
(5.04899 4.58242e-09 0)
(5.04899 -3.97441e-08 0)
(5.04899 -3.23365e-08 0)
(5.04899 -8.22833e-09 0)
(5.04899 -4.63516e-09 0)
(5.04899 2.19509e-08 0)
(5.04899 3.57308e-08 0)
(5.04899 1.64583e-08 0)
(5.04899 -1.00999e-09 0)
(5.04899 -1.47644e-08 0)
(5.04899 -1.50816e-08 0)
(5.04899 4.06541e-09 0)
(5.04899 1.34199e-08 0)
(5.04899 -1.56822e-08 0)
(5.04899 -5.38893e-08 0)
(5.04899 -5.51676e-08 0)
(5.04899 -2.23335e-08 0)
(5.04899 2.9316e-08 0)
(5.04899 2.61319e-08 0)
(5.049 1.49236e-08 0)
(5.04899 -2.55987e-08 0)
(5.049 -2.73831e-09 0)
(5.04898 1.10948e-08 0)
(5.04901 8.05024e-09 0)
(5.04898 6.07215e-08 0)
(5.049 -6.59295e-09 0)
(5.04899 -5.23709e-09 0)
(5.04899 5.50246e-08 0)
(5.049 -2.31428e-08 0)
(5.04899 -3.64357e-08 0)
(10.6446 0.53433 0)
(11.5862 -0.339287 0)
(11.0207 -1.22692 0)
(9.39575 -1.02523 0)
(9.1102 -0.46544 0)
(9.69125 -0.639117 0)
(9.01288 -1.41633 0)
(7.75608 -1.84718 0)
(7.52317 -1.61192 0)
(6.91873 -1.33311 0)
(6.15093 -1.06825 0)
(5.76521 -0.743115 0)
(5.52484 -0.473954 0)
(5.33881 -0.304771 0)
(5.22395 -0.203442 0)
(5.15988 -0.138322 0)
(5.12104 -0.0937976 0)
(5.09544 -0.0629778 0)
(5.0785 -0.0418065 0)
(5.06758 -0.0274401 0)
(5.06068 -0.0178289 0)
(5.05634 -0.0114872 0)
(5.05362 -0.00735083 0)
(5.0519 -0.00467719 0)
(5.05082 -0.00296131 0)
(5.05014 -0.00186668 0)
(5.04971 -0.00117177 0)
(5.04944 -0.000732705 0)
(5.04927 -0.000456433 0)
(5.04917 -0.000283279 0)
(5.0491 -0.000175279 0)
(5.04906 -0.000107979 0)
(5.04903 -6.6282e-05 0)
(5.04902 -4.05674e-05 0)
(5.04901 -2.47193e-05 0)
(5.049 -1.50766e-05 0)
(5.049 -9.06645e-06 0)
(5.049 -5.46813e-06 0)
(5.04899 -3.3218e-06 0)
(5.04899 -1.91106e-06 0)
(5.04899 -1.20878e-06 0)
(5.04899 -7.36282e-07 0)
(5.04899 -3.90679e-07 0)
(5.04899 -3.14902e-07 0)
(5.04899 -8.45681e-08 0)
(5.04899 -1.08171e-08 0)
(5.04899 -1.5644e-07 0)
(5.04899 2.82398e-08 0)
(5.04899 7.66619e-08 0)
(5.04899 -1.06427e-07 0)
(5.04899 -5.27735e-08 0)
(5.04899 -3.60462e-08 0)
(5.04899 -4.07929e-08 0)
(5.04899 6.87568e-08 0)
(5.04899 3.30526e-08 0)
(5.04899 -9.52432e-08 0)
(5.04899 -3.35574e-08 0)
(5.04899 4.58637e-08 0)
(5.04899 1.66686e-08 0)
(5.04899 2.34603e-08 0)
(5.04899 -3.18649e-08 0)
(5.04899 -5.38383e-08 0)
(5.04899 4.83864e-08 0)
(5.04899 9.3589e-08 0)
(5.04899 6.08886e-08 0)
(5.04899 -1.10722e-08 0)
(5.04899 -7.08879e-08 0)
(5.04899 -3.40131e-08 0)
(5.04899 2.32518e-08 0)
(5.04899 3.69467e-08 0)
(5.04899 1.80203e-08 0)
(5.04899 -3.60184e-08 0)
(5.04899 -7.56995e-08 0)
(5.04899 -3.97328e-08 0)
(5.04899 2.15676e-09 0)
(5.04899 2.23897e-08 0)
(5.04899 5.30562e-08 0)
(5.04899 5.09476e-08 0)
(5.04899 1.41337e-09 0)
(5.04899 -3.67812e-08 0)
(5.04899 -3.30191e-08 0)
(5.04899 1.10411e-08 0)
(5.04899 3.06126e-08 0)
(5.04899 -5.30407e-09 0)
(5.04899 -5.36281e-08 0)
(5.04899 -6.34066e-08 0)
(5.04899 -3.69286e-08 0)
(5.04899 1.0901e-08 0)
(5.04899 2.31764e-08 0)
(5.049 3.24808e-08 0)
(5.04899 -5.62303e-09 0)
(5.049 7.30192e-09 0)
(5.04898 1.12104e-08 0)
(5.04901 8.04033e-09 0)
(5.04898 6.79343e-08 0)
(5.049 -3.5212e-08 0)
(5.04899 -2.97238e-08 0)
(5.04899 2.48727e-08 0)
(5.049 -2.56011e-08 0)
(5.04899 -1.44979e-08 0)
(10.5071 0.707294 0)
(10.8859 -0.517283 0)
(9.94504 -1.5954 0)
(9.45393 -1.1439 0)
(9.51086 -0.594112 0)
(9.39001 -0.701867 0)
(9.00007 -1.2237 0)
(7.60422 -1.78589 0)
(6.84493 -1.68279 0)
(6.8661 -1.1712 0)
(6.32114 -0.939231 0)
(5.82527 -0.781591 0)
(5.61131 -0.550212 0)
(5.4462 -0.34964 0)
(5.29382 -0.220161 0)
(5.19012 -0.142048 0)
(5.13162 -0.0929753 0)
(5.09947 -0.0609945 0)
(5.08077 -0.0399079 0)
(5.06923 -0.0259881 0)
(5.06189 -0.0168266 0)
(5.05719 -0.0108298 0)
(5.05419 -0.00693011 0)
(5.05227 -0.00441095 0)
(5.05106 -0.00279375 0)
(5.05029 -0.0017615 0)
(5.0498 -0.00110588 0)
(5.0495 -0.000691566 0)
(5.04931 -0.000430839 0)
(5.04919 -0.00026734 0)
(5.04911 -0.000165417 0)
(5.04907 -0.000101912 0)
(5.04904 -6.2497e-05 0)
(5.04902 -3.82651e-05 0)
(5.04901 -2.33576e-05 0)
(5.049 -1.42055e-05 0)
(5.049 -8.543e-06 0)
(5.049 -5.17268e-06 0)
(5.04899 -3.11908e-06 0)
(5.04899 -1.79074e-06 0)
(5.04899 -1.17098e-06 0)
(5.04899 -7.20483e-07 0)
(5.04899 -3.23333e-07 0)
(5.04899 -2.61818e-07 0)
(5.04899 -1.10997e-07 0)
(5.04899 -1.61893e-08 0)
(5.04899 -1.4288e-07 0)
(5.04899 3.39361e-09 0)
(5.04899 4.99672e-08 0)
(5.04899 -1.14292e-07 0)
(5.04899 -3.21091e-08 0)
(5.04899 2.2522e-08 0)
(5.04899 -5.08589e-08 0)
(5.04899 2.28895e-08 0)
(5.04899 3.61416e-08 0)
(5.04899 -6.58951e-08 0)
(5.04899 -1.46059e-09 0)
(5.04899 3.21728e-08 0)
(5.04899 -4.58684e-09 0)
(5.04899 1.7697e-08 0)
(5.04899 -3.16069e-09 0)
(5.04899 -1.29009e-08 0)
(5.04899 2.71663e-08 0)
(5.04899 5.15204e-08 0)
(5.04899 3.45557e-08 0)
(5.04899 -1.93016e-08 0)
(5.04899 -3.42371e-08 0)
(5.04899 -4.98381e-09 0)
(5.04899 8.79356e-09 0)
(5.04899 1.16712e-08 0)
(5.04899 2.64077e-09 0)
(5.04899 -3.91558e-08 0)
(5.04899 -3.63428e-08 0)
(5.04899 -7.65083e-09 0)
(5.04899 -1.85034e-09 0)
(5.04899 1.95728e-08 0)
(5.04899 3.92078e-08 0)
(5.04899 2.15955e-08 0)
(5.04899 -2.97153e-09 0)
(5.04899 -1.66882e-08 0)
(5.04899 -1.24283e-08 0)
(5.04899 4.96916e-09 0)
(5.04899 1.12944e-08 0)
(5.04899 -1.90529e-08 0)
(5.04899 -5.64417e-08 0)
(5.04899 -5.33905e-08 0)
(5.04899 -1.8309e-08 0)
(5.04899 3.60776e-08 0)
(5.04899 2.70674e-08 0)
(5.049 1.73666e-08 0)
(5.04899 -3.4389e-08 0)
(5.049 -1.31024e-09 0)
(5.04898 1.00557e-08 0)
(5.04901 -3.58144e-09 0)
(5.04898 7.7441e-08 0)
(5.049 -2.58091e-08 0)
(5.04899 -9.57507e-09 0)
(5.04899 7.61114e-08 0)
(5.049 -3.55386e-08 0)
(5.04899 -4.7877e-08 0)
(10.0694 0.501196 0)
(11.2158 -0.335169 0)
(9.99611 -1.12653 0)
(9.2049 -0.885678 0)
(9.22948 -0.412818 0)
(8.64417 -0.680796 0)
(8.70931 -1.14496 0)
(8.3937 -1.34277 0)
(6.81831 -1.52714 0)
(6.40341 -1.25307 0)
(6.41295 -0.763236 0)
(5.92105 -0.484356 0)
(5.48616 -0.327809 0)
(5.31183 -0.221404 0)
(5.24186 -0.152791 0)
(5.18822 -0.108333 0)
(5.1421 -0.0766989 0)
(5.10814 -0.0531672 0)
(5.08589 -0.0359762 0)
(5.07203 -0.0238554 0)
(5.06346 -0.0155827 0)
(5.05812 -0.0100704 0)
(5.05475 -0.00645652 0)
(5.05263 -0.0041134 0)
(5.05128 -0.00260659 0)
(5.05043 -0.00164392 0)
(5.04989 -0.00103218 0)
(5.04956 -0.00064549 0)
(5.04934 -0.000402113 0)
(5.04921 -0.000249518 0)
(5.04913 -0.000154375 0)
(5.04908 -9.50459e-05 0)
(5.04904 -5.82823e-05 0)
(5.04902 -3.5728e-05 0)
(5.04901 -2.17771e-05 0)
(5.049 -1.32397e-05 0)
(5.049 -7.95574e-06 0)
(5.049 -4.79651e-06 0)
(5.04899 -2.9285e-06 0)
(5.04899 -1.69893e-06 0)
(5.04899 -1.10035e-06 0)
(5.04899 -6.47546e-07 0)
(5.04899 -2.74405e-07 0)
(5.04899 -2.58149e-07 0)
(5.04899 -9.81546e-08 0)
(5.04899 -5.79212e-09 0)
(5.04899 -1.47191e-07 0)
(5.04899 1.52023e-08 0)
(5.04899 7.64714e-08 0)
(5.04899 -1.06556e-07 0)
(5.04899 -4.18142e-08 0)
(5.04899 -8.75444e-09 0)
(5.04899 -4.80722e-08 0)
(5.04899 4.31197e-08 0)
(5.04899 3.42948e-08 0)
(5.04899 -7.24477e-08 0)
(5.04899 -3.05474e-08 0)
(5.04899 3.91866e-08 0)
(5.04899 6.94591e-09 0)
(5.04899 1.32814e-08 0)
(5.04899 -1.29655e-08 0)