/*--------------------------------*- C++ -*----------------------------------*\
| =========                 |                                                 |
| \\      /  F ield         | OpenFOAM: The Open Source CFD Toolbox           |
|  \\    /   O peration     | Version:  2.4.0                                 |
|   \\  /    A nd           | Web:      www.OpenFOAM.org                      |
|    \\/     M anipulation  |                                                 |
\*---------------------------------------------------------------------------*/
FoamFile
{
    version     2.0;
    format      ascii;
    class       volScalarField;
    location    "29";
    object      p;
}
// * * * * * * * * * * * * * * * * * * * * * * * * * * * * * * * * * * * * * //

dimensions      [0 2 -2 0 0 0 0];

internalField   nonuniform List<scalar> 
4400
(
-0.097165
-0.10082
-0.109276
-0.0995333
-0.0963941
-0.109233
-0.104831
-0.102116
-0.107619
-0.109453
-0.107948
-0.108047
-0.114428
-0.106723
-0.111806
-0.116532
-0.109723
-0.115286
-0.11902
-0.120109
-0.0971264
-0.100657
-0.109582
-0.0996521
-0.0958367
-0.109471
-0.10502
-0.101713
-0.107697
-0.109547
-0.107919
-0.107884
-0.114652
-0.106692
-0.111665
-0.117009
-0.10958
-0.11521
-0.119468
-0.120272
-0.0970602
-0.100477
-0.110028
-0.099707
-0.0953273
-0.109895
-0.10519
-0.101432
-0.107846
-0.109627
-0.107878
-0.107682
-0.114985
-0.106573
-0.111531
-0.117466
-0.109378
-0.115253
-0.119856
-0.12078
-0.0970024
-0.100343
-0.11039
-0.099691
-0.094988
-0.11029
-0.105258
-0.10125
-0.108017
-0.109631
-0.107842
-0.107519
-0.115346
-0.106418
-0.111496
-0.117842
-0.109128
-0.115431
-0.119843
-0.121735
-0.0970049
-0.100281
-0.110474
-0.0996839
-0.095035
-0.11049
-0.105211
-0.101267
-0.108167
-0.10951
-0.107828
-0.107456
-0.115494
-0.106349
-0.111559
-0.118075
-0.108882
-0.115818
-0.119374
-0.122669
-0.0971373
-0.100307
-0.11021
-0.0998461
-0.0956074
-0.110385
-0.105112
-0.101547
-0.108256
-0.109278
-0.107867
-0.107533
-0.115406
-0.106488
-0.111705
-0.11818
-0.108791
-0.116376
-0.118619
-0.123164
-0.0974772
-0.10041
-0.109418
-0.10032
-0.0967677
-0.109863
-0.105024
-0.102124
-0.108239
-0.108944
-0.108006
-0.107762
-0.114972
-0.106959
-0.111927
-0.118072
-0.109046
-0.116961
-0.117872
-0.123099
-0.0980524
-0.100574
-0.107973
-0.101118
-0.0984943
-0.108848
-0.104977
-0.102987
-0.108076
-0.108501
-0.108267
-0.10813
-0.114129
-0.10782
-0.112201
-0.117619
-0.109759
-0.117382
-0.117125
-0.122582
-0.0988183
-0.100782
-0.105875
-0.10215
-0.100662
-0.107349
-0.104971
-0.104078
-0.107763
-0.107947
-0.108635
-0.108597
-0.112902
-0.109033
-0.112465
-0.116696
-0.110905
-0.117548
-0.116366
-0.12178
-0.0996767
-0.101007
-0.10329
-0.103258
-0.103045
-0.105472
-0.104973
-0.105289
-0.107335
-0.1073
-0.109068
-0.109091
-0.111412
-0.110474
-0.112632
-0.115289
-0.112359
-0.117458
-0.115593
-0.120873
-0.100513
-0.101214
-0.100502
-0.104261
-0.105348
-0.103405
-0.10494
-0.106487
-0.106863
-0.106593
-0.109514
-0.109527
-0.109849
-0.111967
-0.112629
-0.113535
-0.113877
-0.11715
-0.114814
-0.12
-0.101236
-0.10136
-0.0978375
-0.105024
-0.107285
-0.1014
-0.104845
-0.107564
-0.106423
-0.105882
-0.109913
-0.109836
-0.108411
-0.113332
-0.112454
-0.111686
-0.115238
-0.116715
-0.114048
-0.119214
-0.101794
-0.101417
-0.0955924
-0.105486
-0.108695
-0.0997056
-0.104679
-0.10845
-0.106069
-0.105227
-0.110218
-0.109987
-0.107249
-0.114423
-0.112192
-0.110008
-0.116293
-0.116267
-0.113336
-0.118504
-0.102173
-0.101392
-0.0939597
-0.105664
-0.10956
-0.0984371
-0.104452
-0.109113
-0.105833
-0.104735
-0.110404
-0.110014
-0.106438
-0.115149
-0.111965
-0.108694
-0.116896
-0.115899
-0.112731
-0.117851
-0.10239
-0.101326
-0.0929941
-0.10563
-0.109969
-0.0977783
-0.104194
-0.109552
-0.105719
-0.104417
-0.110465
-0.109985
-0.105989
-0.115492
-0.111854
-0.107832
-0.117171
-0.115652
-0.112269
-0.117267
-0.10248
-0.101267
-0.0926039
-0.10547
-0.110049
-0.0975926
-0.103965
-0.10979
-0.105703
-0.104268
-0.110419
-0.109958
-0.105859
-0.115521
-0.111867
-0.107411
-0.11718
-0.115521
-0.111969
-0.116782
-0.102486
-0.101193
-0.0926369
-0.105271
-0.10989
-0.0977448
-0.103827
-0.10984
-0.105743
-0.10427
-0.110295
-0.109929
-0.105973
-0.115346
-0.11192
-0.107354
-0.117022
-0.115439
-0.11184
-0.116416
-0.102442
-0.101051
-0.0929263
-0.105083
-0.109509
-0.0980791
-0.103799
-0.109691
-0.105797
-0.104392
-0.110131
-0.109862
-0.106242
-0.115076
-0.111906
-0.107552
-0.116782
-0.115326
-0.111883
-0.116167
-0.102387
-0.100844
-0.0933102
-0.104963
-0.109006
-0.0984359
-0.103863
-0.109433
-0.105843
-0.104577
-0.109973
-0.10975
-0.106559
-0.114812
-0.111795
-0.107869
-0.116546
-0.115164
-0.112039
-0.116024
-0.102363
-0.100654
-0.093594
-0.104973
-0.108491
-0.0986542
-0.103982
-0.109013
-0.10586
-0.10477
-0.10988
-0.109641
-0.1068
-0.114676
-0.111654
-0.108317
-0.116427
-0.115011
-0.112331
-0.115981
-0.131284
-0.15704
-0.148954
-0.0898304
-0.101757
-0.14549
-0.158922
-0.201025
-0.187131
-0.0792777
-0.117745
-0.191626
-0.209933
-0.211809
-0.179794
-0.134253
-0.109387
-0.0729957
-0.0196587
0.0228376
8.46586e-05
-0.0941875
-0.15806
-0.188638
-0.188854
-0.12986
-0.0565215
-0.0188265
-0.0124367
-0.0129761
-0.0140658
-0.0122369
-0.00443201
0.00602266
0.0144207
0.0192646
0.0216363
0.0227234
0.0231452
0.0232076
0.0230817
0.0228599
0.022589
0.022292
0.0219806
0.0216608
0.0213357
0.0210068
0.020675
0.0203405
0.0200035
0.0196642
0.0193225
0.0189783
0.0186318
0.0182829
0.0179315
0.0175776
0.0172212
0.0168624
0.016501
0.0161371
0.0157706
0.0154015
0.0150299
0.0146556
0.0142787
0.0138992
0.0135169
0.0131321
0.0127445
0.0123542
0.0119611
0.0115653
0.0111667
0.0107653
0.0103611
0.00995398
0.0095442
0.00913121
0.00871573
0.00829691
0.00787549
0.00745091
0.00702336
0.00659297
0.00615928
0.00572283
0.00528312
0.00484035
0.0043946
0.00394552
0.00349343
0.00303814
0.00257956
0.00211787
0.0016529
0.00118462
0.000713101
0.000238259
-0.130653
-0.156481
-0.148489
-0.0888439
-0.101109
-0.145799
-0.155129
-0.19406
-0.187434
-0.0890099
-0.115017
-0.185224
-0.208421
-0.20938
-0.179808
-0.137145
-0.108975
-0.0713265
-0.0186606
0.0256407
0.00142094
-0.0979421
-0.165653
-0.197283
-0.19707
-0.133877
-0.0548223
-0.0133407
-0.00687411
-0.00884004
-0.0111359
-0.0102042
-0.00325963
0.00643457
0.0143069
0.0189178
0.0212736
0.0224422
0.022958
0.0230934
0.0230155
0.022823
0.022569
0.0222815
0.0219752
0.0216582
0.0213345
0.0210063
0.0206747
0.0203404
0.0200035
0.0196642
0.0193225
0.0189783
0.0186318
0.0182829
0.0179315
0.0175776
0.0172212
0.0168624
0.016501
0.0161371
0.0157706
0.0154015
0.0150299
0.0146556
0.0142787
0.0138992
0.0135169
0.0131321
0.0127445
0.0123542
0.0119611
0.0115653
0.0111667
0.0107653
0.0103611
0.00995398
0.0095442
0.00913121
0.00871573
0.00829691
0.00787549
0.0074509
0.00702336
0.00659297
0.00615928
0.00572283
0.00528312
0.00484035
0.0043946
0.00394551
0.00349343
0.00303814
0.00257955
0.00211788
0.0016529
0.00118462
0.000713101
0.000238259
-0.12999
-0.154171
-0.14806
-0.0901668
-0.101269
-0.144902
-0.151622
-0.186219
-0.185548
-0.0992394
-0.11404
-0.179706
-0.2071
-0.206854
-0.179887
-0.140953
-0.109789
-0.0705337
-0.0181479
0.0279053
0.00268276
-0.100471
-0.171794
-0.204534
-0.203632
-0.136532
-0.0523795
-0.00747529
-0.000940726
-0.00433511
-0.00789869
-0.00794223
-0.00195511
0.00688775
0.014185
0.0185532
0.0208991
0.0221557
0.0227695
0.0229795
0.0229502
0.0227868
0.0225495
0.0222713
0.02197
0.0216556
0.0213333
0.0210057
0.0206745
0.0203403
0.0200035
0.0196642
0.0193225
0.0189784
0.0186318
0.0182829
0.0179315
0.0175776
0.0172212
0.0168624
0.016501
0.0161371
0.0157706
0.0154015
0.0150299
0.0146556
0.0142787
0.0138992
0.0135169
0.0131321
0.0127445
0.0123542
0.0119611
0.0115653
0.0111667
0.0107653
0.0103611
0.00995398
0.0095442
0.00913121
0.00871573
0.00829691
0.00787549
0.0074509
0.00702336
0.00659297
0.00615928
0.00572283
0.00528312
0.00484035
0.0043946
0.00394551
0.00349343
0.00303814
0.00257956
0.00211788
0.0016529
0.00118462
0.000713101
0.00023826
-0.12893
-0.150054
-0.147299
-0.0931677
-0.101647
-0.142559
-0.148098
-0.177475
-0.180754
-0.108717
-0.11483
-0.175458
-0.206024
-0.204337
-0.180182
-0.145552
-0.11183
-0.0708003
-0.0182724
0.0293915
0.00365066
-0.101886
-0.176458
-0.210087
-0.208483
-0.137791
-0.0492012
-0.00130076
0.00527343
0.000476368
-0.00439742
-0.00548722
-0.000544656
0.00736763
0.0140505
0.0181728
0.0205167
0.0218672
0.0225816
0.0228671
0.0228863
0.0227518
0.0225308
0.0222615
0.0219651
0.0216532
0.0213321
0.0210052
0.0206743
0.0203403
0.0200035
0.0196642
0.0193225
0.0189784
0.0186318
0.0182829
0.0179315
0.0175776
0.0172212
0.0168624
0.016501
0.0161371
0.0157706
0.0154015
0.0150299
0.0146556
0.0142787
0.0138992
0.0135169
0.0131321
0.0127445
0.0123542
0.0119611
0.0115653
0.0111667
0.0107653
0.0103611
0.00995398
0.0095442
0.00913121
0.00871573
0.00829691
0.00787549
0.0074509
0.00702336
0.00659297
0.00615928
0.00572283
0.00528312
0.00484035
0.0043946
0.00394551
0.00349343
0.00303814
0.00257956
0.00211788
0.0016529
0.00118462
0.000713101
0.00023826
-0.127796
-0.144661
-0.146008
-0.09721
-0.102023
-0.139079
-0.144353
-0.168089
-0.173399
-0.116466
-0.117176
-0.172658
-0.205192
-0.201922
-0.180758
-0.150733
-0.115004
-0.0722103
-0.0191408
0.0299113
0.00413958
-0.102305
-0.179666
-0.214078
-0.211622
-0.137661
-0.0453057
0.00511137
0.0116745
0.0055208
-0.000685084
-0.00288078
0.000942258
0.00785805
0.0138983
0.0177784
0.0201306
0.0215802
0.0223966
0.0227575
0.0228247
0.0227183
0.0225131
0.0222524
0.0219605
0.021651
0.0213311
0.0210048
0.0206741
0.0203402
0.0200035
0.0196642
0.0193225
0.0189784
0.0186318
0.0182829
0.0179315
0.0175776
0.0172212
0.0168624
0.016501
0.0161371
0.0157706
0.0154015
0.0150299
0.0146556
0.0142787
0.0138992
0.0135169
0.0131321
0.0127445
0.0123542
0.0119611
0.0115653
0.0111667
0.0107653
0.0103611
0.00995398
0.0095442
0.00913121
0.00871573
0.00829691
0.00787549
0.0074509
0.00702336
0.00659297
0.00615928
0.00572283
0.00528312
0.00484035
0.0043946
0.00394551
0.00349343
0.00303814
0.00257956
0.00211788
0.0016529
0.00118462
0.000713101
0.00023826
-0.12687
-0.139037
-0.143988
-0.101648
-0.102393
-0.134848
-0.140228
-0.158466
-0.164285
-0.121963
-0.120653
-0.171283
-0.204552
-0.199726
-0.18165
-0.156234
-0.119132
-0.0747355
-0.0208481
0.0293243
0.00412223
-0.101822
-0.181445
-0.216523
-0.213092
-0.136185
-0.0407227
0.0116875
0.0181678
0.0107184
0.00317923
-0.000169687
0.0024737
0.00834189
0.013723
0.0173718
0.0197446
0.0212981
0.0222168
0.022652
0.0227659
0.0226867
0.0224965
0.0222439
0.0219563
0.0216489
0.0213301
0.0210044
0.020674
0.0203402
0.0200035
0.0196642
0.0193225
0.0189784
0.0186319
0.0182829
0.0179315
0.0175776
0.0172212
0.0168624
0.016501
0.0161371
0.0157706
0.0154015
0.0150299
0.0146556
0.0142787
0.0138992
0.0135169
0.0131321
0.0127445
0.0123542
0.0119611
0.0115653
0.0111667
0.0107653
0.0103611
0.00995398
0.0095442
0.00913121
0.00871573
0.00829691
0.00787549
0.0074509
0.00702336
0.00659297
0.00615928
0.00572283
0.00528312
0.00484035
0.0043946
0.00394551
0.00349343
0.00303814
0.00257956
0.00211788
0.0016529
0.00118462
0.000713101
0.00023826
-0.12625
-0.133783
-0.141094
-0.10595
-0.102868
-0.130129
-0.135695
-0.148966
-0.154102
-0.125069
-0.124742
-0.171128
-0.203978
-0.197862
-0.182884
-0.161767
-0.123989
-0.0782315
-0.0233228
0.0275442
0.0036682
-0.100525
-0.181794
-0.217452
-0.212967
-0.133437
-0.035495
0.0183532
0.0246605
0.0159866
0.0071309
0.00259638
0.00401714
0.00880184
0.013519
0.0169544
0.0193627
0.0210245
0.0220445
0.022552
0.0227108
0.0226573
0.0224813
0.0222362
0.0219525
0.0216471
0.0213293
0.021004
0.0206738
0.0203401
0.0200035
0.0196642
0.0193225
0.0189784
0.0186319
0.0182829
0.0179315
0.0175776
0.0172212
0.0168624
0.016501
0.0161371
0.0157706
0.0154015
0.0150299
0.0146556
0.0142787
0.0138992
0.0135169
0.0131321
0.0127445
0.0123542
0.0119611
0.0115653
0.0111667
0.0107653
0.0103611
0.00995398
0.0095442
0.00913121
0.00871573
0.0082969
0.00787549
0.0074509
0.00702336
0.00659297
0.00615928
0.00572283
0.00528312
0.00484035
0.0043946
0.00394551
0.00349343
0.00303814
0.00257956
0.00211788
0.0016529
0.00118462
0.000713101
0.00023826
-0.125752
-0.129254
-0.137489
-0.109717
-0.103495
-0.125197
-0.130875
-0.13979
-0.143379
-0.125929
-0.12891
-0.171795
-0.203292
-0.196419
-0.184422
-0.167075
-0.129296
-0.0824922
-0.0264151
0.0245527
0.00276021
-0.0984609
-0.180671
-0.216894
-0.211331
-0.129518
-0.0296771
0.0250319
0.031062
0.0212408
0.0111021
0.00536705
0.00554117
0.00922133
0.0132807
0.0165279
0.0189887
0.0207626
0.0218819
0.0224587
0.0226601
0.0226307
0.0224676
0.0222293
0.0219491
0.0216455
0.0213286
0.0210037
0.0206738
0.0203401
0.0200035
0.0196643
0.0193225
0.0189784
0.0186319
0.0182829
0.0179315
0.0175776
0.0172212
0.0168624
0.016501
0.0161371
0.0157706
0.0154015
0.0150299
0.0146556
0.0142787
0.0138992
0.0135169
0.0131321
0.0127445
0.0123542
0.0119611
0.0115653
0.0111667
0.0107653
0.0103611
0.00995398
0.0095442
0.00913121
0.00871573
0.0082969
0.00787549
0.0074509
0.00702336
0.00659297
0.00615928
0.00572284
0.00528312
0.00484035
0.0043946
0.00394551
0.00349343
0.00303814
0.00257956
0.00211788
0.0016529
0.00118462
0.000713102
0.00023826
-0.125194
-0.125588
-0.133482
-0.112675
-0.104281
-0.120341
-0.125894
-0.131078
-0.132575
-0.124792
-0.132597
-0.172736
-0.202321
-0.195411
-0.186165
-0.171885
-0.134706
-0.086975
-0.0299346
0.0204219
0.00133804
-0.0955417
-0.178047
-0.214887
-0.208271
-0.124556
-0.0233391
0.0316405
0.0372856
0.0263987
0.0150256
0.00809226
0.00701622
0.00958499
0.0130039
0.0160942
0.018626
0.0205155
0.021731
0.0223734
0.0226144
0.022607
0.0224557
0.0222235
0.0219463
0.0216442
0.021328
0.0210035
0.0206737
0.0203401
0.0200035
0.0196643
0.0193226
0.0189784
0.0186319
0.0182829
0.0179315
0.0175776
0.0172212
0.0168624
0.016501
0.0161371
0.0157706
0.0154015
0.0150299
0.0146556
0.0142787
0.0138992
0.0135169
0.0131321
0.0127445
0.0123542
0.0119611
0.0115653
0.0111667
0.0107653
0.0103611
0.00995398
0.0095442
0.00913121
0.00871573
0.0082969
0.00787549
0.0074509
0.00702336
0.00659297
0.00615928
0.00572284
0.00528312
0.00484035
0.0043946
0.00394551
0.00349343
0.00303814
0.00257956
0.00211788
0.0016529
0.00118462
0.000713102
0.00023826
-0.124424
-0.122737
-0.129419
-0.11471
-0.105188
-0.115814
-0.120911
-0.122967
-0.122147
-0.121975
-0.135282
-0.173375
-0.200958
-0.194758
-0.187932
-0.175872
-0.139666
-0.0913187
-0.0335764
0.0153339
-0.000528539
-0.0916766
-0.173925
-0.211497
-0.203858
-0.118698
-0.0165665
0.0380968
0.0432525
0.0313833
0.0188358
0.0107252
0.00841645
0.00987975
0.0126864
0.0156563
0.0182784
0.020286
0.0215938
0.0222971
0.0225742
0.0225867
0.0224457
0.0222187
0.0219441
0.0216432
0.0213276
0.0210034
0.0206737
0.0203401
0.0200035
0.0196643
0.0193226
0.0189784
0.0186319
0.0182829
0.0179315
0.0175776
0.0172212
0.0168624
0.016501
0.0161371
0.0157706
0.0154015
0.0150299
0.0146556
0.0142787
0.0138992
0.0135169
0.0131321
0.0127445
0.0123542
0.0119611
0.0115653
0.0111667
0.0107653
0.0103611
0.00995398
0.0095442
0.00913121
0.00871573
0.0082969
0.00787549
0.0074509
0.00702336
0.00659297
0.00615928
0.00572284
0.00528312
0.00484035
0.0043946
0.00394551
0.00349343
0.00303814
0.00257956
0.00211788
0.0016529
0.00118462
0.000713102
0.00023826
-0.123403
-0.12061
-0.125597
-0.115829
-0.1062
-0.111829
-0.116101
-0.115607
-0.112586
-0.117945
-0.136628
-0.173311
-0.199184
-0.194305
-0.189456
-0.178808
-0.143967
-0.0950516
-0.036944
0.00954419
-0.00269821
-0.0870686
-0.168255
-0.206835
-0.198119
-0.112108
-0.00947338
0.0443151
0.048892
0.0361223
0.0224706
0.0132247
0.00972074
0.0100966
0.0123301
0.0152199
0.0179502
0.020077
0.0214719
0.0222307
0.02254
0.0225698
0.0224377
0.0222149
0.0219424
0.0216425
0.0213274
0.0210033
0.0206737
0.0203402
0.0200036
0.0196643
0.0193226
0.0189784
0.0186319
0.0182829
0.0179315
0.0175776
0.0172212
0.0168624
0.016501
0.0161371
0.0157706
0.0154015
0.0150299
0.0146556
0.0142787
0.0138992
0.0135169
0.0131321
0.0127445
0.0123542
0.0119611
0.0115653
0.0111667
0.0107653
0.0103611
0.00995398
0.0095442
0.00913121
0.00871573
0.0082969
0.00787549
0.0074509
0.00702336
0.00659297
0.00615928
0.00572284
0.00528312
0.00484035
0.0043946
0.00394551
0.00349343
0.00303814
0.00257955
0.00211788
0.0016529
0.00118462
0.000713102
0.00023826
-0.122201
-0.119052
-0.122225
-0.116153
-0.107194
-0.108536
-0.111631
-0.1092
-0.104367
-0.113361
-0.136635
-0.172476
-0.197072
-0.193848
-0.190459
-0.180628
-0.147299
-0.0976967
-0.0396222
0.00339782
-0.00494714
-0.0818828
-0.161227
-0.201122
-0.191158
-0.104958
-0.00222034
0.0502049
0.0541444
0.0405496
0.025873
0.0155576
0.0109133
0.0102326
0.0119442
0.0147942
0.0176469
0.0198909
0.0213664
0.0221746
0.022512
0.0225565
0.0224316
0.0222123
0.0219413
0.0216422
0.0213273
0.0210033
0.0206737
0.0203402
0.0200036
0.0196644
0.0193226
0.0189784
0.0186319
0.0182829
0.0179315
0.0175776
0.0172212
0.0168624
0.016501
0.0161371
0.0157706
0.0154015
0.0150299
0.0146556
0.0142787
0.0138992
0.0135169
0.0131321
0.0127445
0.0123542
0.0119611
0.0115653
0.0111667
0.0107653
0.0103611
0.00995398
0.0095442
0.00913121
0.00871573
0.0082969
0.00787549
0.0074509
0.00702336
0.00659297
0.00615928
0.00572284
0.00528312
0.00484035
0.0043946
0.00394551
0.00349343
0.00303814
0.00257955
0.00211788
0.0016529
0.00118462
0.000713102
0.00023826
-0.120944
-0.117907
-0.119422
-0.115894
-0.108077
-0.105999
-0.107674
-0.103976
-0.0978736
-0.108953
-0.135608
-0.171026
-0.194713
-0.193163
-0.190797
-0.181366
-0.149425
-0.0988947
-0.0412313
-0.00269002
-0.0074027
-0.0757644
-0.153096
-0.194407
-0.183192
-0.0973125
0.00496407
0.055684
0.0589575
0.0446113
0.0289899
0.0176988
0.0119828
0.0102943
0.0115475
0.0143934
0.0173752
0.0197305
0.0212779
0.022129
0.02249
0.0225466
0.0224273
0.0222106
0.0219407
0.021642
0.0213273
0.0210034
0.0206738
0.0203403
0.0200037
0.0196644
0.0193226
0.0189785
0.0186319
0.0182829
0.0179315
0.0175776
0.0172212
0.0168624
0.016501
0.0161371
0.0157706
0.0154015
0.0150299
0.0146556
0.0142787
0.0138992
0.0135169
0.0131321
0.0127445
0.0123542
0.0119611
0.0115653
0.0111667
0.0107653
0.0103611
0.00995398
0.0095442
0.00913121
0.00871573
0.0082969
0.00787549
0.0074509
0.00702336
0.00659297
0.00615927
0.00572284
0.00528312
0.00484035
0.0043946
0.00394551
0.00349343
0.00303814
0.00257955
0.00211788
0.0016529
0.00118462
0.000713102
0.00023826
-0.119777
-0.117046
-0.117224
-0.115295
-0.108786
-0.104184
-0.104404
-0.100098
-0.0933333
-0.105325
-0.13402
-0.169207
-0.192176
-0.192109
-0.19048
-0.181068
-0.150232
-0.0984866
-0.0414556
-0.00818268
-0.00968715
-0.0688859
-0.144141
-0.186818
-0.174583
-0.0890029
0.0117807
0.0606694
0.0632818
0.0482638
0.031777
0.019633
0.0129234
0.0103021
0.0111699
0.0140364
0.0171425
0.0195976
0.0212066
0.0220932
0.0224735
0.0225395
0.0224246
0.0222097
0.0219405
0.0216421
0.0213274
0.0210035
0.0206739
0.0203403
0.0200037
0.0196644
0.0193226
0.0189785
0.0186319
0.0182829
0.0179315
0.0175776
0.0172212
0.0168624
0.016501
0.0161371
0.0157706
0.0154015
0.0150299
0.0146556
0.0142787
0.0138992
0.0135169
0.0131321
0.0127445
0.0123542
0.0119611
0.0115653
0.0111667
0.0107653
0.0103611
0.00995398
0.0095442
0.00913121
0.00871573
0.0082969
0.00787549
0.0074509
0.00702336
0.00659297
0.00615927
0.00572284
0.00528311
0.00484035
0.0043946
0.00394551
0.00349344
0.00303814
0.00257955
0.00211788
0.0016529
0.00118461
0.000713102
0.00023826
-0.118799
-0.116376
-0.115603
-0.114581
-0.109284
-0.103
-0.101968
-0.0975509
-0.0907254
-0.102831
-0.132328
-0.167232
-0.189536
-0.190753
-0.189654
-0.179987
-0.149771
-0.0965369
-0.0401776
-0.0125274
-0.0114999
-0.0615079
-0.134685
-0.178622
-0.165625
-0.0802602
0.01789
0.0651041
0.0670705
0.0514609
0.0341707
0.0213518
0.0137345
0.0102913
0.0108503
0.0137438
0.0169556
0.0194928
0.0211512
0.0220659
0.0224611
0.0225344
0.0224227
0.0222091
0.0219405
0.0216422
0.0213276
0.0210037
0.020674
0.0203404
0.0200038
0.0196644
0.0193227
0.0189785
0.0186319
0.0182829
0.0179315
0.0175776
0.0172212
0.0168624
0.016501
0.0161371
0.0157706
0.0154015
0.0150299
0.0146556
0.0142787
0.0138992
0.0135169
0.0131321
0.0127445
0.0123542
0.0119611
0.0115653
0.0111667
0.0107653
0.0103611
0.00995398
0.0095442
0.00913121
0.00871573
0.0082969
0.00787549
0.0074509
0.00702336
0.00659297
0.00615927
0.00572284
0.00528311
0.00484036
0.0043946
0.0039455
0.00349344
0.00303814
0.00257955
0.00211788
0.0016529
0.00118461
0.000713102
0.000238261
-0.118052
-0.115855
-0.114495
-0.113925
-0.109571
-0.102357
-0.100443
-0.0961766
-0.0897342
-0.101531
-0.130806
-0.16525
-0.186892
-0.189357
-0.188551
-0.178519
-0.148113
-0.0932332
-0.0375256
-0.0153723
-0.0126961
-0.0540373
-0.125169
-0.170155
-0.156762
-0.0718376
0.0234272
0.0689224
0.0703057
0.0541388
0.0361603
0.0228348
0.0144177
0.0103058
0.010627
0.0135322
0.0168176
0.0194143
0.0211091
0.0220447
0.0224513
0.0225303
0.0224212
0.0222087
0.0219405
0.0216423
0.0213277
0.0210038
0.0206741
0.0203405
0.0200038
0.0196645
0.0193227
0.0189785
0.0186319
0.0182829
0.0179315
0.0175776
0.0172212
0.0168624
0.016501
0.0161371
0.0157706
0.0154015
0.0150299
0.0146556
0.0142787
0.0138992
0.0135169
0.0131321
0.0127445
0.0123542
0.0119611
0.0115653
0.0111667
0.0107653
0.0103611
0.00995398
0.0095442
0.00913121
0.00871573
0.0082969
0.00787549
0.0074509
0.00702336
0.00659297
0.00615927
0.00572284
0.00528311
0.00484036
0.0043946
0.0039455
0.00349344
0.00303814
0.00257955
0.00211788
0.0016529
0.00118461
0.000713102
0.000238261
-0.117519
-0.115479
-0.113831
-0.113423
-0.109684
-0.10219
-0.0997588
-0.0956834
-0.0898897
-0.101251
-0.129611
-0.163403
-0.184404
-0.188118
-0.187462
-0.176881
-0.145605
-0.0886942
-0.0340458
-0.0166618
-0.0135234
-0.0468766
-0.116183
-0.161913
-0.148568
-0.0643044
0.0281587
0.0720566
0.072975
0.0562078
0.0377444
0.0240319
0.0149692
0.010377
0.0105193
0.0134069
0.0167262
0.0193583
0.0210768
0.0220272
0.0224425
0.0225262
0.0224195
0.0222081
0.0219403
0.0216423
0.0213277
0.0210038
0.0206741
0.0203405
0.0200038
0.0196645
0.0193227
0.0189785
0.0186319
0.0182829
0.0179315
0.0175776
0.0172212
0.0168624
0.016501
0.0161371
0.0157706
0.0154015
0.0150299
0.0146556
0.0142787
0.0138992
0.0135169
0.0131321
0.0127445
0.0123542
0.0119611
0.0115653
0.0111667
0.0107653
0.0103611
0.00995398
0.0095442
0.00913121
0.00871573
0.0082969
0.00787549
0.0074509
0.00702336
0.00659297
0.00615927
0.00572284
0.00528311
0.00484036
0.0043946
0.0039455
0.00349344
0.00303814
0.00257955
0.00211788
0.0016529
0.00118461
0.000713102
0.000238261
-0.117162
-0.115259
-0.113524
-0.113098
-0.109686
-0.102369
-0.0996363
-0.0956707
-0.0906775
-0.101657
-0.128846
-0.161901
-0.182347
-0.187144
-0.186505
-0.175162
-0.142454
-0.0838623
-0.0302253
-0.0165572
-0.013693
-0.0413261
-0.108544
-0.154582
-0.141627
-0.058189
0.0318598
0.0745022
0.074978
0.0576264
0.0389037
0.0248739
0.0153746
0.0105009
0.0105147
0.0133587
0.0166736
0.0193198
0.0210517
0.0220121
0.0224342
0.022522
0.0224174
0.0222071
0.0219399
0.0216421
0.0213277
0.0210038
0.0206741
0.0203405
0.0200038
0.0196645
0.0193227
0.0189785
0.0186319
0.0182829
0.0179315
0.0175776
0.0172212
0.0168624
0.016501
0.0161371
0.0157706
0.0154015
0.0150299
0.0146556
0.0142787
0.0138992
0.0135169
0.0131321
0.0127445
0.0123542
0.0119611
0.0115653
0.0111667
0.0107653
0.0103611
0.00995398
0.0095442
0.00913121
0.00871573
0.0082969
0.0078755
0.0074509
0.00702337
0.00659297
0.00615927
0.00572284
0.00528311
0.00484036
0.0043946
0.00394551
0.00349344
0.00303814
0.00257955
0.00211788
0.0016529
0.00118461
0.000713102
0.000238261
-0.116942
-0.115177
-0.113456
-0.112937
-0.109628
-0.102631
-0.0997241
-0.0957327
-0.0916826
-0.102308
-0.128537
-0.161016
-0.180976
-0.186514
-0.185814
-0.173704
-0.139793
-0.0801079
-0.0273705
-0.0159213
-0.0134589
-0.0383377
-0.1034
-0.149035
-0.136457
-0.0538648
0.0343606
0.0761748
0.0761865
0.0585909
0.0395563
0.0253079
0.0156055
0.0106275
0.010567
0.0133567
0.0166501
0.0192966
0.021034
0.0220003
0.0224272
0.0225182
0.0224155
0.0222062
0.0219394
0.0216419
0.0213276
0.0210038
0.0206741
0.0203405
0.0200038
0.0196645
0.0193227
0.0189785
0.0186319
0.0182829
0.0179315
0.0175776
0.0172212
0.0168624
0.016501
0.0161371
0.0157706
0.0154015
0.0150299
0.0146556
0.0142787
0.0138992
0.0135169
0.0131321
0.0127445
0.0123542
0.0119611
0.0115653
0.0111667
0.0107653
0.0103611
0.00995398
0.0095442
0.00913122
0.00871572
0.0082969
0.0078755
0.0074509
0.00702337
0.00659297
0.00615928
0.00572284
0.00528311
0.00484036
0.0043946
0.00394551
0.00349344
0.00303813
0.00257956
0.00211788
0.00165289
0.00118461
0.000713102
0.00023826
-0.116838
-0.115212
-0.113514
-0.112923
-0.109583
-0.102745
-0.0997668
-0.0956892
-0.0920505
-0.103004
-0.128549
-0.16093
-0.1804
-0.186269
-0.185526
-0.17301
-0.138615
-0.0783079
-0.0260822
-0.0155233
-0.0135394
-0.0384639
-0.101473
-0.146332
-0.133524
-0.0515932
0.0355835
0.0770437
0.0766389
0.0587174
0.0396266
0.0253019
0.0156255
0.0106755
0.0106058
0.0133788
0.0166504
0.019291
0.0210282
0.0219959
0.0224245
0.0225166
0.0224147
0.0222058
0.0219393
0.0216418
0.0213276
0.0210038
0.0206741
0.0203405
0.0200038
0.0196645
0.0193227
0.0189785
0.0186319
0.0182829
0.0179315
0.0175776
0.0172212
0.0168624
0.016501
0.0161371
0.0157706
0.0154015
0.0150299
0.0146556
0.0142787
0.0138992
0.0135169
0.0131321
0.0127445
0.0123542
0.0119611
0.0115653
0.0111667
0.0107653
0.0103611
0.00995399
0.00954419
0.00913122
0.00871572
0.0082969
0.0078755
0.0074509
0.00702337
0.00659297
0.00615928
0.00572284
0.00528311
0.00484036
0.0043946
0.00394551
0.00349344
0.00303813
0.00257956
0.00211788
0.00165289
0.00118462
0.000713102
0.00023826
-0.13097
-0.133902
-0.138654
-0.141629
-0.138183
-0.140922
-0.149183
-0.152069
-0.145962
-0.14391
-0.157894
-0.187255
-0.194444
-0.184032
-0.158554
-0.137337
-0.103612
-0.0431684
-0.00287283
0.0362361
0.0689134
0.0632412
0.0360986
0.0144123
0.00431875
-0.00840941
-0.0252973
-0.034113
-0.0335775
-0.0294024
-0.0234866
-0.0152912
-0.00427006
0.00709667
0.0162559
0.0219415
0.0245769
0.0252861
0.0250506
0.0244778
0.0238635
0.0233108
0.0228351
0.0224199
0.0220441
0.0216908
0.0213491
0.0210123
0.0206769
0.020341
0.0200035
0.019664
0.0193223
0.0189782
0.0186317
0.0182828
0.0179314
0.0175775
0.0172212
0.0168624
0.016501
0.0161371
0.0157706
0.0154015
0.0150299
0.0146556
0.0142787
0.0138992
0.0135169
0.0131321
0.0127445
0.0123542
0.0119611
0.0115653
0.0111667
0.0107653
0.0103611
0.00995398
0.00954419
0.00913122
0.00871572
0.0082969
0.0078755
0.0074509
0.00702337
0.00659297
0.00615927
0.00572285
0.00528311
0.00484036
0.0043946
0.00394551
0.00349344
0.00303813
0.00257956
0.00211788
0.00165289
0.00118462
0.000713102
0.00023826
-0.131146
-0.134092
-0.138827
-0.141651
-0.137933
-0.140797
-0.149171
-0.152209
-0.146806
-0.14445
-0.158669
-0.189733
-0.196964
-0.185595
-0.158395
-0.137519
-0.105149
-0.0438018
-0.00361643
0.0347915
0.0671828
0.0621838
0.0355483
0.014385
0.00459891
-0.00820662
-0.0253934
-0.0343364
-0.0337008
-0.02945
-0.0235673
-0.0153921
-0.00434904
0.00705696
0.0162579
0.0219581
0.0245918
0.0252948
0.0250544
0.0244794
0.0238635
0.0233104
0.0228347
0.0224197
0.0220439
0.0216908
0.021349
0.0210123
0.0206769
0.020341
0.0200035
0.019664
0.0193223
0.0189782
0.0186317
0.0182828
0.0179314
0.0175775
0.0172212
0.0168624
0.016501
0.0161371
0.0157706
0.0154015
0.0150299
0.0146556
0.0142787
0.0138992
0.0135169
0.0131321
0.0127445
0.0123542
0.0119611
0.0115653
0.0111667
0.0107653
0.0103611
0.00995398
0.0095442
0.00913121
0.00871572
0.0082969
0.00787549
0.0074509
0.00702337
0.00659297
0.00615927
0.00572285
0.00528311
0.00484036
0.0043946
0.00394551
0.00349344
0.00303813
0.00257956
0.00211788
0.00165289
0.00118462
0.000713102
0.00023826
-0.131388
-0.13442
-0.139368
-0.142073
-0.13784
-0.140652
-0.149379
-0.153144
-0.148075
-0.143824
-0.161686
-0.195661
-0.201992
-0.187342
-0.158389
-0.137784
-0.10786
-0.0451273
-0.00453812
0.0320984
0.0642069
0.0591338
0.0333739
0.0125373
0.00399382
-0.00839591
-0.0257654
-0.0348208
-0.0339483
-0.0295422
-0.0236637
-0.0155284
-0.0044631
0.00702617
0.016287
0.0219999
0.0246213
0.0253086
0.0250578
0.0244781
0.0238614
0.0233086
0.0228335
0.0224189
0.0220435
0.0216906
0.021349
0.0210123
0.0206769
0.020341
0.0200035
0.019664
0.0193223
0.0189782
0.0186317
0.0182828
0.0179314
0.0175775
0.0172212
0.0168624
0.016501
0.0161371
0.0157706
0.0154015
0.0150299
0.0146556
0.0142787
0.0138992
0.0135169
0.0131321
0.0127445
0.0123542
0.0119611
0.0115653
0.0111667
0.0107653
0.0103611
0.00995398
0.0095442
0.00913121
0.00871573
0.0082969
0.00787549
0.0074509
0.00702336
0.00659298
0.00615927
0.00572285
0.00528311
0.00484036
0.0043946
0.0039455
0.00349344
0.00303813
0.00257956
0.00211788
0.00165289
0.00118462
0.000713102
0.000238261
-0.131691
-0.134902
-0.140259
-0.142819
-0.13789
-0.140547
-0.149949
-0.155171
-0.149497
-0.140795
-0.165253
-0.202176
-0.207956
-0.189104
-0.158597
-0.138206
-0.111386
-0.047311
-0.00596886
0.0286993
0.0602272
0.0540286
0.0297316
0.00874425
0.00213039
-0.0091726
-0.0264509
-0.0354929
-0.0343211
-0.0296722
-0.0238057
-0.0157245
-0.00462842
0.00696717
0.016304
0.0220317
0.0246389
0.025311
0.025053
0.0244726
0.0238564
0.0233055
0.0228317
0.022418
0.0220431
0.0216904
0.0213489
0.0210123
0.0206769
0.020341
0.0200035
0.019664
0.0193223
0.0189782
0.0186317
0.0182828
0.0179314
0.0175775
0.0172212
0.0168624
0.016501
0.0161371
0.0157706
0.0154015
0.0150299
0.0146556
0.0142787
0.0138992
0.0135169
0.0131321
0.0127445
0.0123542
0.0119611
0.0115653
0.0111667
0.0107653
0.0103611
0.00995398
0.0095442
0.00913121
0.00871573
0.0082969
0.00787549
0.0074509
0.00702336
0.00659298
0.00615927
0.00572285
0.00528311
0.00484036
0.0043946
0.0039455
0.00349344
0.00303813
0.00257956
0.00211788
0.00165289
0.00118462
0.000713102
0.000238261
-0.131997
-0.13551
-0.141369
-0.143727
-0.138096
-0.140664
-0.151117
-0.158091
-0.150874
-0.13507
-0.16895
-0.209086
-0.21462
-0.19109
-0.158847
-0.138233
-0.11535
-0.0504357
-0.00754267
0.0249444
0.0553553
0.0475096
0.024271
0.00319892
-0.00149079
-0.0107712
-0.0274726
-0.0363395
-0.0347686
-0.0298305
-0.0239884
-0.015991
-0.00486141
0.00686212
0.0162929
0.0220411
0.0246349
0.0252946
0.0250347
0.0244583
0.0238475
0.0233004
0.0228292
0.0224169
0.0220427
0.0216903
0.0213489
0.0210123
0.020677
0.020341
0.0200036
0.019664
0.0193223
0.0189782
0.0186317
0.0182828