/*--------------------------------*- C++ -*----------------------------------*\
| =========                 |                                                 |
| \\      /  F ield         | OpenFOAM: The Open Source CFD Toolbox           |
|  \\    /   O peration     | Version:  2.4.0                                 |
|   \\  /    A nd           | Web:      www.OpenFOAM.org                      |
|    \\/     M anipulation  |                                                 |
\*---------------------------------------------------------------------------*/
FoamFile
{
    version     2.0;
    format      ascii;
    class       volScalarField;
    location    "0.13";
    object      k_0;
}
// * * * * * * * * * * * * * * * * * * * * * * * * * * * * * * * * * * * * * //

dimensions      [0 2 -2 0 0 0 0];

internalField   nonuniform List<scalar> 
8800
(
8.11802
10.2616
8.80052
6.81438
5.7142
4.96355
4.53101
4.13614
3.91856
3.65177
3.55465
3.34082
3.28806
3.13219
3.06968
2.92856
2.82183
2.71875
2.49167
2.36741
1.4027
4.34796
5.32228
5.28867
5.13364
4.80467
4.57688
4.28407
4.12406
3.86986
3.7829
3.57695
3.51654
3.37385
3.31978
3.20354
3.14764
3.05208
2.95948
2.87305
0.0842958
0.729319
1.55998
1.94842
2.27615
2.43815
2.57733
2.59854
2.62625
2.59647
2.58879
2.54714
2.52905
2.47755
2.4661
2.42684
2.41982
2.38617
2.39353
2.37325
0.00335206
0.0696075
0.252391
0.428454
0.584005
0.702816
0.839544
0.922156
1.03162
1.09167
1.15482
1.22487
1.26618
1.2978
1.354
1.38308
1.42421
1.45625
1.52428
1.59341
0.00012653
0.00495117
0.0213481
0.058684
0.0871682
0.123045
0.165859
0.201735
0.243254
0.289834
0.311051
0.36319
0.388236
0.43359
0.460554
0.51523
0.540656
0.598253
0.644442
0.763954
2.4824e-05
0.000305551
0.00143725
0.00505003
0.00774823
0.0134342
0.0180607
0.0266856
0.0323448
0.0451749
0.0505962
0.0657752
0.0726234
0.0884637
0.0966248
0.117403
0.126563
0.151156
0.168876
0.228463
2.14928e-05
4.22087e-05
0.000118208
0.000396124
0.000582681
0.0010189
0.00136736
0.00207711
0.00258164
0.00392574
0.0045307
0.00657303
0.00760357
0.00999387
0.0115185
0.0155247
0.0176092
0.0224912
0.0267996
0.0405987
2.15598e-05
3.42105e-05
4.58366e-05
7.98569e-05
9.84559e-05
0.000147743
0.000165574
0.000200152
0.000216648
0.00028512
0.000310369
0.000460907
0.000535787
0.000734397
0.00087106
0.00127936
0.0014801
0.00193534
0.00246279
0.00416082
2.06899e-05
2.77199e-05
4.24906e-05
5.48421e-05
7.36759e-05
7.99228e-05
8.37591e-05
8.38764e-05
8.45416e-05
8.99834e-05
9.42971e-05
0.000105502
0.000111853
0.000116617
0.000127387
0.000153858
0.000172006
0.000198374
0.000236836
0.000357723
2.0592e-05
3.00752e-05
4.53468e-05
4.76639e-05
5.12333e-05
6.56715e-05
7.80125e-05
8.03e-05
7.89673e-05
7.48533e-05
7.22723e-05
7.2262e-05
7.50548e-05
8.27991e-05
8.65007e-05
9.0762e-05
9.34748e-05
9.61861e-05
9.86948e-05
0.000106832
2.0646e-05
2.80984e-05
3.59792e-05
5.7814e-05
6.89914e-05
6.91943e-05
6.64622e-05
6.61005e-05
6.84009e-05
7.13507e-05
7.27416e-05
7.78205e-05
8.13955e-05
8.17947e-05
8.17517e-05
8.11952e-05
7.99639e-05
7.93628e-05
7.99411e-05
8.37893e-05
2.07898e-05
2.7807e-05
4.81572e-05
6.54858e-05
6.42805e-05
6.26219e-05
6.56619e-05
8.42505e-05
8.97901e-05
9.11538e-05
9.35024e-05
9.62918e-05
9.68449e-05
0.000102919
0.000105738
0.000109142
0.000113972
0.000134018
0.000144563
0.000153355
2.10403e-05
3.05013e-05
5.47455e-05
6.34109e-05
8.03171e-05
0.000120509
0.000143565
0.000196882
0.000222609
0.000280864
0.000331206
0.000401739
0.000497681
0.000695246
0.000744693
0.00083342
0.000938279
0.00123739
0.00138681
0.00159958
2.16149e-05
4.39693e-05
0.000119483
0.000299293
0.000493865
0.00091064
0.00122894
0.0021522
0.00270699
0.00398282
0.00472995
0.00634707
0.00721816
0.0094761
0.0104838
0.0128125
0.0143004
0.0179522
0.0196352
0.0232025
2.49685e-05
0.000310004
0.00154011
0.0036746
0.00764676
0.013149
0.0171767
0.0276298
0.0332244
0.0450503
0.0512305
0.0642203
0.0705522
0.0856854
0.0921191
0.107022
0.115047
0.134801
0.14347
0.165194
0.000122743
0.0049363
0.0245913
0.0470875
0.0915676
0.126583
0.15485
0.214009
0.240178
0.288586
0.315421
0.361168
0.381869
0.429341
0.44871
0.494123
0.515444
0.56766
0.588111
0.639888
0.00335847
0.0698663
0.260999
0.409861
0.593975
0.700358
0.829168
0.938881
1.02042
1.0959
1.16196
1.21336
1.24847
1.30308
1.32317
1.36669
1.3835
1.42753
1.43992
1.47234
0.0845739
0.73044
1.56633
1.93375
2.28809
2.4266
2.58061
2.59824
2.62701
2.59878
2.58761
2.53857
2.52033
2.46931
2.45402
2.4098
2.39752
2.36696
2.35244
2.32222
1.40709
4.35048
5.3198
5.28678
5.13213
4.79936
4.59063
4.27068
4.13667
3.86965
3.77714
3.58204
3.52383
3.37
3.33739
3.2152
3.19067
3.08384
3.05754
2.97804
8.12392
10.2644
8.79257
6.82051
5.71028
4.96309
4.54091
4.12909
3.93246
3.65173
3.55947
3.3584
3.31564
3.15543
3.13524
2.99184
2.98058
2.83468
2.8126
2.64468
1.58592
0.947857
0.58008
0.376299
0.266661
0.202836
0.160761
0.142278
0.131334
0.131771
0.13443
0.138859
0.141828
0.147669
0.151446
0.150786
0.146957
0.14531
0.147841
0.157889
0.183001
0.237158
0.321367
0.374815
0.381849
0.374845
0.354093
0.313896
0.255794
0.189487
0.165865
0.12871
0.100249
0.102204
0.10257
0.119683
0.296609
0.428481
0.429537
0.324536
0.202687
0.138912
0.103063
0.0837434
0.0767701
0.072399
0.0710444
0.0688829
0.0679718
0.067379
0.0675636
0.0689342
0.0708144
0.0714621
0.0712145
0.0684215
0.0654008
0.0647071
0.0652103
0.066744
0.0719564
0.0883126
0.116291
0.128335
0.132027
0.130068
0.119499
0.0894199
0.0517476
0.0341309
0.0281162
0.0264434
0.0269852
0.0297983
0.037196
0.0479175
0.0595507
0.0701842
0.0755461
0.0752142
0.0730417
0.0713369
0.0696016
0.0674823
0.0643687
0.0553512
0.0485837
0.0433315
0.0356341
0.0283254
0.0274121
0.0277994
0.030862
0.039708
0.0711143
0.153661
0.22092
0.241683
0.23955
0.233958
0.224606
0.219608
0.212406
0.207928
0.203485
0.193735
0.172694
0.117584
0.0803835
0.0822235
0.102241
0.148997
0.159118
0.153979
0.128744
0.0923215
0.0746492
0.0681182
0.0659866
0.0662371
0.0694058
0.0736019
0.0766855
0.0768536
0.0768728
0.0766785
0.0774451
0.0815603
0.0963274
0.102274
0.103217
0.100444
0.0979663
0.0978817
0.0979576
0.0945397
0.0908184
0.0882732
0.0812715
0.0791122
0.0765969
0.0722201
0.0600139
0.0490787
0.0369676
0.0284364
0.0230267
0.0206227
0.0205654
0.0211193
0.0229857
0.0528815
0.110066
0.138395
0.1469
0.154031
0.154483
0.149976
0.117169
0.0812021
0.057817
0.0437718
0.0369676
0.0337308
0.0323618
0.031781
0.0318557
0.0322388
0.0334277
0.0386593
0.049191
0.0593735
0.0686198
0.0724692
0.0767165
0.0899038
0.100709
0.108194
0.108675
0.105896
0.0891812
0.0737477
0.0719793
0.0735039
0.0690968
0.0675491
0.0521888
0.0461922
0.0422898
0.0404567
0.0504361
0.0485835
0.0632498
0.0726525
0.107311
0.117821
0.14364
0.169803
0.221178
0.449813
2.38732
1.92867
1.58505
1.30744
1.06908
0.8782
0.720006
0.585375
0.465952
0.370426
0.307984
0.267342
0.24083
0.225944
0.220734
0.221588
0.228112
0.248838
0.2885
0.343605
0.396671
0.427328
0.428379
0.420905
0.400927
0.375448
0.327097
0.250746
0.187876
0.117816
0.0732408
0.0581853
0.0466667
0.0481475
0.0538111
0.0624972
0.092639
0.274358
0.383408
0.378953
0.28441
0.171949
0.117865
0.0892927
0.0785186
0.0728933
0.0708606
0.0691164
0.0675184
0.0671162
0.067149
0.0681499
0.0685665
0.0687391
0.0679615
0.0653611
0.0645926
0.0649785
0.0668714
0.0732156
0.0926048
0.119482
0.130643
0.132039
0.129088
0.115527
0.0757503
0.043473
0.0300971
0.0263103
0.0262771
0.0286433
0.0361276
0.0520582
0.0762131
0.0981946
0.116369
0.125441
0.125133
0.121002
0.11362
0.103614
0.0946309
0.0887714
0.0823679
0.0673173
0.0600786
0.052569
0.0430586
0.03655
0.0368623
0.0390598
0.0480527
0.0777345
0.188185
0.260787
0.278215
0.269792
0.24853
0.227937
0.209126
0.191209
0.188454
0.189126
0.193315
0.191779
0.187972
0.175404
0.138812
0.0974514
0.0991579
0.115928
0.148824
0.154678
0.148975
0.127828
0.0947892
0.0781006
0.0733821
0.0731481
0.074483
0.0777529
0.0803551
0.0806289
0.081086
0.0822821
0.0887183
0.101386
0.105678
0.105764
0.104946
0.101137
0.0983658
0.0969228
0.0970767
0.0940945
0.0921652
0.0871491
0.0807047
0.0771776
0.0751226
0.0706455
0.0587317
0.0468156
0.035269
0.0272237
0.022845
0.0216483
0.0216599
0.0218465
0.0254987
0.0594303
0.115559
0.132632
0.14619
0.1556
0.157183
0.153453
0.116921
0.0786708
0.0537848
0.0418236
0.0353311
0.0328594
0.0315622
0.0309034
0.030758
0.0310364
0.0317437
0.034268
0.0420079
0.0520234
0.0615821
0.0654161
0.0702553
0.0866243
0.0961944
0.106224
0.107875
0.103457
0.0881281
0.0753204
0.0700325
0.0730763
0.069021
0.0622158
0.0553131
0.0466581
0.05286
0.049472
0.0558076
0.0567901
0.0717806
0.0848714
0.0973894
0.103787
0.0978904
0.116655
0.121439
0.176888
2.12535
1.85511
1.63826
1.48727
1.34686
1.23008
1.12259
1.02546
0.946083
0.869041
0.796009
0.725889
0.65667
0.611908
0.572616
0.548114
0.544079
0.539191
0.524211
0.509636
0.493262
0.470266
0.445275
0.401936
0.357299
0.300403
0.223708
0.143734
0.0838638
0.0551523
0.0372703
0.0297421
0.0249937
0.0235728
0.0254271
0.0281742
0.0374771
0.0718523
0.248325
0.336441
0.328727
0.262167
0.160165
0.108747
0.0856534
0.0757989
0.0715695
0.0700251
0.0681275
0.0672637
0.0672048
0.0674397
0.0673999
0.0672471
0.0662637
0.0661558
0.0668345
0.0699812
0.0786032
0.105044
0.128399
0.135264
0.134472
0.128229
0.109965
0.0624714
0.0367397
0.0273066
0.0250916
0.0260259
0.0316969
0.0481762
0.0799918
0.121544
0.16022
0.190434
0.206354
0.206058
0.200924
0.185085
0.168871
0.145146
0.129827
0.115203
0.0996171
0.0818163
0.0759268
0.0621035
0.0521739
0.0482007
0.0507431
0.0562077
0.0822018
0.193277
0.297629
0.317192
0.30397
0.266965
0.224234
0.189109
0.166973
0.150186
0.143308
0.144085
0.149717
0.165658
0.177284
0.175407
0.167863
0.142236
0.109591
0.11104
0.120915
0.146607
0.14771
0.143375
0.131816
0.109436
0.0986313
0.0924387
0.0891016
0.0892693
0.0903621
0.0925914
0.0951027
0.101562
0.107579
0.109919
0.10934
0.106729
0.10532
0.102637
0.0988193
0.0961982
0.0954879
0.0934213
0.0923433
0.0869716
0.0814252
0.0770546
0.0743263
0.0676032
0.0568211
0.044904
0.0342313
0.0270215
0.0229791
0.0224043
0.0232687
0.0233153
0.0276386
0.0622904
0.115812
0.126716
0.1486
0.157019
0.163954
0.158004
0.117516
0.0773035
0.0520412
0.0412429
0.034682
0.0330957
0.0313726
0.0310291
0.0305042
0.030557
0.0308975
0.0321843
0.0391878
0.0473964
0.0549339
0.0598931
0.0658057
0.0830817
0.0960223
0.102738
0.106801
0.101269
0.0864819
0.0759458
0.0689301
0.0677791
0.0686054
0.0606492
0.0596188
0.0519575
0.0540032
0.0538813
0.0558183
0.0598178
0.073289
0.084793
0.0807582
0.078506
0.0763449
0.0842234
0.0870791
0.0995563
1.48921
1.3587
1.24131
1.18686
1.14348
1.09382
1.03948
0.969393
0.922598
0.872108
0.829181
0.799392
0.768366
0.726361
0.697199
0.659391
0.618906
0.57915
0.537887
0.49085
0.441561
0.387843
0.32098
0.253404
0.194217
0.133235
0.085356
0.0542304
0.0359222
0.024969
0.0189436
0.0140197
0.0130522
0.0125535
0.012942
0.0143945
0.0171272
0.0262155
0.059817
0.208948
0.289194
0.284249
0.253567
0.168819
0.115233
0.0899031
0.0784827
0.0740497
0.071751
0.0700115
0.0691332
0.0687914
0.0687168
0.0688273
0.0695303
0.071689
0.0779646
0.0941683
0.123611
0.139085
0.140465
0.138524
0.12787
0.0976952
0.0529334
0.0319451
0.024694
0.024214
0.026679
0.0371434
0.0644401
0.12297
0.191729
0.251926
0.293706
0.307791
0.30417
0.296474
0.281074
0.259741
0.232734
0.199428
0.162803
0.138762
0.122844
0.104931
0.0880205
0.0703028
0.0646502
0.064809
0.0689269
0.0822694
0.179279
0.319388
0.360888
0.345867
0.292296
0.227778
0.181199
0.154561
0.136046
0.127253
0.118928
0.118172
0.119331
0.124439
0.137421
0.161359
0.162451
0.15743
0.137809
0.11676
0.116708
0.124153
0.140281
0.141491
0.138956
0.131697
0.123383
0.116578
0.113996
0.1108
0.110641
0.111388
0.112297
0.113012
0.113335
0.112428
0.109404
0.106192
0.105266
0.103375
0.0986321
0.0958122
0.0925804
0.0918908
0.0923582
0.0889888
0.0837001
0.0785835
0.0726973
0.0623344
0.0512818
0.04096
0.0314852
0.0274387
0.0240714
0.0236182
0.0245412
0.0242147
0.028354
0.0696165
0.108796
0.125021
0.148005
0.15721
0.172458
0.162906
0.123328
0.0769965
0.0516984
0.0413788
0.0347404
0.0336169
0.0324893
0.0324644
0.0317712
0.0310596
0.0312808
0.0321089
0.0386762
0.0457937
0.0501793
0.055944
0.0660194
0.0806757
0.0962468
0.100017
0.107325
0.101946
0.0818142
0.0718498
0.0697633
0.0672888
0.0698609
0.062136
0.0590406
0.0524361
0.0525451
0.053249
0.0550195
0.0624196
0.0723384
0.0763485
0.0736597
0.0767009
0.0820125
0.085707
0.0813343
0.0746627
0.740428
0.707527
0.650891
0.628143
0.627239
0.631782
0.641533
0.639086
0.616816
0.595214
0.574386
0.560427
0.551059
0.534648
0.519368
0.500467
0.462392
0.416224
0.358525
0.294711
0.227783
0.161974
0.113567
0.0803578
0.058397
0.0420352
0.0290916
0.0199323
0.014939
0.0113848
0.00857075
0.00682114
0.00650463
0.00691803
0.00780423
0.00842122
0.00948676
0.0119646
0.0206936
0.0515037
0.169431
0.247644
0.249873
0.238181
0.203809
0.148819
0.11258
0.094327
0.0867799
0.0822105
0.0791107
0.0788177
0.0793469
0.0814899
0.0879124
0.10176
0.127456
0.144848
0.147943
0.146942
0.140628
0.123366
0.0772493
0.0419389
0.0266598
0.022363
0.0228496
0.0276193
0.0450225
0.0882868
0.181411
0.284698
0.3549
0.371726
0.366408
0.351391
0.332416
0.321856
0.300004
0.285617
0.272397
0.241556
0.200572
0.177268
0.141617
0.117968
0.0998057
0.0906995
0.0819398
0.0826255
0.0857146
0.142323
0.309158
0.402324
0.396575
0.342011
0.2513
0.194138
0.156944
0.134873
0.11916
0.110344
0.103719
0.1016
0.101767
0.103583
0.108362
0.1225
0.145367
0.15098
0.146074
0.131584
0.118876
0.1189
0.122843
0.133456
0.136159
0.134429
0.130448
0.126896
0.124155
0.12186
0.119712
0.118949
0.117123
0.116008
0.114179
0.111233
0.109993
0.106949
0.105278
0.100792
0.0976703
0.0959693
0.0914
0.0897129
0.0901093
0.0895526
0.0873006
0.0800866
0.0686527
0.0571079
0.0453049
0.0358533
0.0288371
0.0267553
0.0245623
0.0245171
0.0249972
0.0248795
0.0288646
0.0737536
0.104964
0.137982
0.144683
0.161515
0.174275
0.166087
0.135745
0.0788663
0.0567557
0.0421272
0.036726
0.0339805
0.0325438
0.0326004
0.0327537
0.0322625
0.0326135
0.0339193
0.0407497
0.0466426
0.0492779
0.0551726
0.0683765
0.0785298
0.0992182
0.101128
0.10567
0.10099
0.0787738
0.0718803
0.07123
0.0675677
0.0683823
0.0626128
0.0572686
0.0523456
0.0516807
0.0525097
0.0541362
0.0637466
0.0705233
0.0716101
0.0687168
0.0650931
0.0586187
0.0572709
0.0576916
0.0603137
0.230978
0.228364
0.214926
0.211469
0.21231
0.22092
0.242965
0.254805
0.256196
0.252953
0.237927
0.22448
0.216795
0.209806
0.203858
0.19405
0.182448
0.167689
0.140521
0.107906
0.0765518
0.0510934
0.0342633
0.0241153
0.0181447
0.0129201
0.00890854
0.00721437
0.00605948
0.00461921
0.00356463
0.00344054
0.00379685
0.00457661
0.00502682
0.0054238
0.00593179
0.00690532
0.00935077
0.0170402
0.0418552
0.124954
0.205189
0.222845
0.219879
0.211012
0.191355
0.166851
0.151068
0.137467
0.130451
0.130733
0.133455
0.141511
0.153712
0.158245
0.158124
0.156552
0.150759
0.136342
0.100892
0.0556453
0.0320013
0.0220051
0.0201731
0.0212892
0.0292485
0.0547444
0.119096
0.263963
0.386489
0.428111
0.421147
0.402866
0.376946
0.349769
0.331252
0.321514
0.300817
0.284291
0.274505
0.260993
0.221545
0.19743
0.16369
0.138483
0.109849
0.0936209
0.086929
0.0912337
0.110163
0.271087
0.416167
0.453275
0.414701
0.316585
0.224233
0.172301
0.137726
0.117079
0.107083
0.0992897
0.0957627
0.0931898
0.0923069
0.0927357
0.0943128
0.0991925
0.109643
0.134162
0.139738
0.135839
0.124998
0.117004
0.116147
0.118556
0.124708
0.130556
0.129842
0.128696
0.126873
0.1252
0.123343
0.121483
0.119602
0.117309
0.116048
0.112768
0.110082
0.103409
0.100806
0.0980676
0.0972011
0.0960602
0.0918961
0.0895731
0.0896302
0.0889365
0.0874386
0.0806148
0.0653932
0.0510345
0.0402967
0.0321152
0.028135
0.0259486
0.0250168
0.0253594
0.0252003
0.0252901
0.0298871
0.0759207
0.110374
0.144621
0.146896
0.165532
0.168285
0.170479
0.143011
0.0837466
0.0631218
0.0438053
0.0425708
0.0379056
0.0372083
0.034762
0.0372033
0.0363215
0.0389165
0.0389348
0.0417608
0.0480252
0.0500568
0.0558354
0.0724846
0.0806861
0.0995914
0.104478
0.100879
0.0994565
0.0797813
0.071779
0.0704328
0.0671456
0.0661749
0.0612617
0.0544906
0.0521815
0.0509856
0.0517884
0.0534239
0.0625202
0.0655736
0.0654287
0.0607248
0.0589255
0.0609645
0.0620962
0.0620937
0.0611428
0.0446808
0.0443312
0.0415657
0.0404937
0.0406711
0.0454277
0.0583613
0.0674943
0.0709847
0.0709395
0.0658167
0.0561303
0.0472491
0.0435122
0.0445072
0.0465346
0.0464133
0.0452708
0.0414272
0.0302509
0.0199195
0.0128386
0.00855619
0.00640283
0.00457574
0.00305025
0.00264195
0.00262332
0.00242831
0.00201109
0.00188764
0.00200774
0.00276836
0.00341633
0.00364382
0.00397486
0.00414764
0.00451269
0.00537082
0.00747544
0.0131438
0.0307148
0.0792233
0.150976
0.188673
0.19916
0.197777
0.193261
0.187925
0.182534
0.17756
0.174993
0.174719
0.173193
0.170046
0.164617
0.153431
0.139249
0.107605
0.0644838
0.0369265
0.023173
0.017738
0.017658
0.0198131
0.0314975
0.0680679
0.156223
0.360735
0.470349
0.479426
0.464702
0.426538
0.373647
0.320666
0.290862
0.285705
0.285075
0.277448
0.273135
0.265309
0.250472
0.236338
0.210642
0.175436
0.152935
0.124121
0.101805
0.100739
0.110179
0.193911
0.400627
0.480918
0.477333
0.414089
0.300269
0.205486
0.156847
0.124505
0.109426
0.102238
0.0963147
0.0940393
0.091262
0.0889885
0.0882415
0.0885138
0.08972
0.0932072
0.102491
0.123775
0.130355
0.127171
0.119227
0.113863
0.112274
0.113467
0.11714
0.122653
0.125116
0.124972
0.124512
0.123411
0.12204
0.11904
0.117165
0.112356
0.107529
0.104425
0.100561
0.0983488
0.0974263
0.0976646
0.0977322
0.0948619
0.0911053
0.0901774
0.0889559
0.0867846
0.0807219
0.0642635
0.0486852
0.0381967
0.0305673
0.0288409
0.0285703
0.0282587
0.0266849
0.0249476
0.0251913
0.0336656
0.0892756
0.13161
0.149601
0.146272
0.165498
0.165905
0.18469
0.15837
0.100952
0.0665871
0.0454257
0.0437443
0.0397506
0.0430944
0.0406673
0.0441549
0.0405645
0.0417879
0.0459023
0.0457599
0.0511738
0.0524435
0.0580402
0.0829385
0.0865537
0.0964504
0.112246
0.102926
0.0968511
0.0810475
0.0709593
0.069254
0.0667215
0.0629728
0.0590334
0.0529512
0.0512274
0.0499807
0.0523032
0.0537496
0.0587002
0.0605853
0.0598878
0.0565772
0.0567426
0.0671328
0.0794648
0.083456
0.0801189
0.0049964
0.00496083
0.00460765
0.00448029
0.00451537
0.00578367
0.00916082
0.0114347
0.0122693
0.0121591
0.00996875
0.00713271
0.00528605
0.00488554
0.00606662
0.00810737
0.00871021
0.00871924
0.0075954
0.00525264
0.00351011
0.00250627
0.0018911
0.00122874
0.000936388
0.000969795
0.00122822
0.00141931
0.00138607
0.00138204
0.00146082
0.00174145
0.00265383
0.00297297
0.00303316
0.0030808
0.00320615
0.00353334
0.00396989
0.00462346
0.00601019
0.00960456
0.0195641
0.0418231
0.0859947
0.127869
0.155699
0.168672
0.172755
0.17244
0.170815
0.168173
0.16424
0.156458
0.142162
0.12507
0.095234
0.061658
0.0371703
0.0233552
0.0163043
0.0148307
0.0153952
0.0191725
0.0342648
0.0829087
0.203818
0.451441
0.54012
0.53143
0.498356
0.421248
0.314803
0.245698
0.217415
0.204013
0.201117
0.204156
0.224623
0.243539
0.24704
0.240539
0.232857
0.214927
0.178571
0.151772
0.124728
0.114402
0.118912
0.142063
0.319067
0.467667
0.504025
0.488481
0.418115
0.294498
0.197804
0.147028
0.118242
0.107184
0.100515
0.0958727
0.0938741
0.0906174
0.0890605
0.0882094
0.0885056
0.088526
0.0892808
0.0920123
0.0993446
0.115457
0.122395
0.120312
0.114797
0.112096
0.109587
0.109761
0.110758
0.113201
0.11457
0.115285
0.114797
0.11366
0.110593
0.108669
0.104795
0.102784
0.101874
0.0994121
0.0977985
0.0979787
0.100353
0.10086
0.100155
0.0963991
0.0943943
0.0898149
0.0848449
0.076241
0.0617703
0.0472599
0.0371628
0.0308524
0.0307823
0.0311357
0.031819
0.0285243
0.0260122
0.0274458
0.0518938
0.125645
0.158116
0.153067
0.134881
0.149635
0.157179
0.190721
0.17266
0.136122
0.0832765
0.0552375
0.0435554
0.0381725
0.0386064
0.0387051
0.0408462
0.0456673
0.0441493
0.0552117
0.0492076
0.0508309
0.0589719
0.0644641
0.0866022
0.09847
0.100558
0.116229
0.110582
0.0946007
0.0802417
0.0708094
0.0669042
0.0654865
0.0603069
0.0581174
0.0527723
0.0505664
0.0497261
0.05245
0.0541008
0.0577662
0.05842
0.0566793
0.0533778
0.0533967
0.0612468
0.082888
0.0950781
0.107502
0.000438665
0.000433035
0.000416159
0.000417807
0.000426436
0.000605837
0.00100846
0.00121188
0.00126183
0.00117424
0.000863662
0.000605328
0.000513008
0.000547041
0.000845187
0.00105107
0.00109988
0.00102952
0.000887371
0.000773589
0.000692304
0.000538814
0.000456528
0.000448218
0.000489345
0.000832077
0.0012014
0.00125476
0.00128071
0.0014703
0.00213104
0.00285573
0.00321856
0.00319645
0.00304604
0.00302893
0.00309187
0.00312586
0.00313567
0.00319279
0.00338224
0.00399025
0.00584376
0.0104994
0.0212105
0.0406009
0.0608125
0.0797224
0.0968607
0.104807
0.104594
0.101266
0.093972
0.0781146
0.0600868
0.0434867
0.029224
0.0197496
0.0138708
0.011885
0.0121678
0.0137759
0.0199265
0.0393902
0.0954555
0.254231
0.525863
0.601972
0.585525
0.52433
0.379849
0.272058
0.221371
0.198767
0.191836
0.186427
0.17807
0.173531
0.177867
0.20482
0.219624
0.223588
0.224607
0.21137
0.180474
0.148932
0.125129
0.122101
0.129005
0.204688
0.404964
0.493573
0.508233
0.501546
0.450443
0.303596
0.196165
0.14294
0.116039
0.107028
0.0998472
0.0986231
0.0971011
0.0936643
0.0919639
0.0900038
0.089867
0.0894906
0.0899251
0.0910385
0.0935756
0.101581
0.111068
0.116893
0.115654
0.113022
0.109978
0.108315
0.107853
0.107414
0.107471
0.107359
0.107018
0.106267
0.104786
0.104113
0.102024
0.10116
0.100759
0.1008
0.100869
0.102736
0.105727
0.105551
0.105625
0.10364
0.0993903
0.0904403
0.0781987
0.06707
0.0555343
0.0437292
0.0362136
0.0323879
0.032931
0.0345531
0.0347456
0.0290057
0.0277662
0.0321134
0.0891877
0.152021
0.171617
0.151505
0.130939
0.130341
0.141773
0.186953
0.172627
0.171204
0.123437
0.0888892
0.0592591
0.0514864
0.0440355
0.0479724
0.0462608
0.0585487
0.0490407
0.0542077
0.0564948
0.0568423
0.0943099
0.0793659
0.0902051
0.116652
0.116489
0.1255
0.114747
0.0925681
0.0775926
0.0715312
0.0652109
0.0634995
0.0596218
0.0583077
0.0528793
0.0505873
0.0499964
0.0516236
0.0538118
0.0570375
0.0570608
0.0561186
0.0526881
0.0517567
0.0536164
0.0692548
0.0826428
0.105451
0.000111769
0.000112284
0.00011422
0.000120541
0.000124313
0.000147952
0.000170324
0.000179022
0.000179171
0.000171323
0.000156496
0.000151655
0.000156635
0.000182505
0.000192655
0.000203358
0.000218721
0.000281611
0.000312367
0.000323368
0.000329128
0.000351304
0.000435223
0.000590596
0.00117773
0.00149195
0.00163363
0.00198796
0.00254169
0.00436052
0.0057746
0.00600269
0.00590516
0.00541302
0.00506664
0.00490388
0.00467452
0.00430213
0.00370284
0.00313011
0.00285565
0.00286293
0.00306976
0.00381417
0.00577942
0.0105775
0.0175111
0.0235036
0.0313562
0.0351315
0.0349498
0.0333659
0.0296597
0.0237888
0.0180704
0.0135439
0.010171
0.00919029
0.00937819
0.0103786
0.0137495
0.0235817
0.0489285
0.112971
0.282156
0.599972
0.672365
0.640368
0.528457
0.340781
0.254185
0.21902
0.20147
0.19222
0.189014
0.185527
0.175477
0.16246
0.160035
0.171924
0.195091
0.207651
0.210323
0.20066
0.176813
0.143505
0.123468
0.123413
0.14149
0.286987
0.434412
0.479605
0.508303
0.52746
0.491399
0.339867
0.207078
0.142808
0.116378
0.108213
0.103389
0.10353
0.102586
0.0999136
0.0962791
0.0947578
0.0932707
0.0928807
0.0923422
0.0928439
0.0944251
0.099638
0.104989
0.113116
0.115607
0.114968
0.113073
0.109584
0.108887
0.107751
0.107576
0.10637
0.105961
0.105182
0.104653
0.10419
0.103004
0.103241
0.103626
0.105278
0.107222
0.113193
0.113323
0.111733
0.110419
0.105955
0.0998958
0.0859172
0.0718536
0.0587082
0.0483322
0.0401166
0.0357735
0.0345211
0.0368288
0.0382411
0.036675
0.0296988
0.030566
0.0444952
0.137865
0.170537
0.176467
0.139533
0.129578
0.121105
0.129206
0.158405
0.167852
0.18033
0.162873
0.127284
0.0996562
0.0872232
0.0586687
0.0733772
0.0507539
0.0645972
0.0669655
0.0652094
0.126017
0.0781147
0.104849
0.100269
0.111214
0.149905
0.144833
0.132043
0.107908
0.088562
0.0780264
0.0726068
0.0656191
0.0631529
0.0614805
0.0602954
0.0534357
0.0511832
0.0515497
0.0517943
0.0522478
0.0539966
0.055914
0.0559048
0.054255
0.051449
0.0513356
0.053684
0.062108
0.0743424
8.84418e-05
9.03215e-05
9.52984e-05
0.000104138
0.000112282
0.000117792
0.000118702
0.000119352
0.000120752
0.000123607
0.000128838
0.000131609
0.000135563
0.000142615
0.000153836
0.000175374
0.000203354
0.00026583
0.000343624
0.000518685
0.000750862
0.00113455
0.00187373
0.00254738
0.00347488
0.00427413
0.00537369
0.00767814
0.0103057
0.0122662
0.0127177
0.013073
0.0131512
0.012958
0.0123736
0.0115759
0.0101253
0.00804537
0.00603972
0.00445199
0.00352857
0.00315594
0.00314683
0.00322491
0.00348092
0.00414721
0.00546198
0.00645844
0.00830353
0.00933339
0.00928845
0.00891489
0.0081057
0.00683067
0.00632277
0.0064121
0.00680806
0.00791696
0.010593
0.0171268
0.0325953
0.0666557
0.14049
0.31626
0.647997
0.739674
0.700229
0.517609
0.3404
0.259106
0.21508
0.202943
0.197113
0.194177
0.193079
0.189246
0.174494
0.15508
0.149303
0.155452
0.180483
0.192525
0.193129
0.18668
0.169446
0.134863
0.120352
0.123897
0.172435
0.340725
0.426672
0.431715
0.478601
0.571346
0.55724
0.399508
0.234895
0.15358
0.123702
0.111771
0.107643
0.110215
0.109135
0.107365
0.102965
0.100623
0.0978596
0.0985075
0.097569
0.0975119
0.0980315
0.10144
0.106428
0.113751
0.118471
0.119087
0.118804
0.115947
0.114035
0.111557
0.110827
0.109174
0.108468
0.107678
0.107774
0.107736
0.10792
0.109705
0.111427
0.116658
0.120144
0.122673
0.120493
0.116709
0.112541
0.105259
0.0906013
0.0756287
0.0610076
0.0512772
0.0444457
0.0389487
0.035434
0.035234
0.0386338
0.0397557
0.0367356
0.0333902
0.0383956
0.0820996
0.165342
0.176617
0.169162
0.125966
0.128444
0.118637
0.128666
0.14257
0.155644
0.183764
0.172786
0.16718
0.170927
0.110807
0.130437
0.0997802
0.112384
0.117663
0.159434
0.0999428
0.156292
0.0913283
0.131263
0.18577
0.170342
0.163945
0.145256
0.12747
0.104866
0.0860599
0.0820469
0.0745511
0.0672483
0.0639695
0.063997
0.0620525
0.0542969
0.0524822
0.0527585
0.052307
0.0515626
0.0519574
0.0552771
0.0556585
0.0554972
0.0533822
0.0497951
0.0491067
0.0494078
0.0510774
0.000152397
0.000153294
0.000160479
0.000169188
0.000170868
0.000169067
0.000164929
0.00016368
0.000165557
0.000176844
0.000200739
0.000237034
0.000329198
0.000405648
0.000557407
0.000768003
0.00102967
0.0016994
0.00219722
0.0031756
0.00446259
0.00629544
0.00817923
0.010309
0.013972
0.0170529
0.0225546
0.0273598
0.0293524
0.0298604
0.0311225
0.0326341
0.0326287
0.0319385
0.0302829
0.0263125
0.0210673
0.015939
0.012013
0.00903091
0.00697688
0.0058213
0.00491023
0.00424941
0.00395709
0.00361575
0.00342844
0.00341174
0.00345764
0.00354445
0.00352382
0.00354101
0.00366755
0.00402234
0.00485732
0.00631352
0.00938056
0.0158388
0.0270365
0.0507549
0.100973
0.188573
0.36529
0.666738
0.795312
0.742667
0.525573
0.371963
0.276326
0.226624
0.194238
0.178743
0.178213
0.180113
0.179656
0.171597
0.161113
0.152527
0.149803
0.154653
0.170121
0.176966
0.178511
0.176864
0.157238
0.127357
0.120391
0.128108
0.219347
0.35681
0.377138
0.353139
0.407257
0.597154
0.646269
0.494566
0.284213
0.173661
0.132891
0.117485
0.112967
0.116668
0.115099
0.119595
0.1166
0.111357
0.108159
0.105711
0.10524
0.107543
0.107784
0.10864
0.111593
0.117636
0.125404
0.128726
0.128784
0.12731
0.125431
0.123846
0.121773
0.118414
0.11737
0.117306
0.118576
0.119545
0.12331
0.125995
0.129333
0.131922
0.132051
0.131001
0.125328
0.120488
0.113206
0.0965088
0.0780782
0.0658238
0.0553278
0.0485152
0.0429743
0.038791
0.0369184
0.0378556
0.0418625
0.0425743
0.0426048
0.0441968
0.0608243
0.14428
0.171592
0.166451
0.131781
0.119229
0.122035
0.115144
0.132027
0.129019
0.145157
0.174244
0.166411
0.21918
0.199302
0.230326
0.228925
0.224449
0.254696
0.180236
0.272141
0.11001
0.234838
0.200193
0.199385
0.201494
0.174183
0.160621
0.143649
0.111375
0.103862
0.0874354
0.0860455
0.077345
0.0712718
0.067067
0.0641397
0.0617322
0.0560015
0.0556393
0.055436
0.0533585
0.0521013
0.0521297
0.0549322
0.055426
0.0551928
0.0523856
0.0490555
0.0475898
0.0474529
0.0476479
0.00162461
0.00166676
0.00175238
0.00178237
0.00180018
0.00179332
0.00179592
0.00182355
0.00189922
0.00213273
0.00241277
0.0028605
0.00388741
0.00455967
0.00575121
0.00752473
0.00888728
0.0122588
0.0144811
0.0188394
0.0230727
0.0279704
0.0351991
0.0407349
0.0509457
0.0600237
0.0689657
0.0736884
0.0748379
0.0776097
0.0775869
0.0767983
0.074815
0.0713031
0.0641783
0.0535146
0.0423528
0.0325073
0.0253894
0.0202267
0.0163794
0.0135708
0.0110659
0.00883542
0.00707703
0.00572178
0.0047635
0.00408699
0.00382281
0.00378243
0.0038304
0.00407711
0.0047859
0.00647273
0.0109497
0.0170737
0.0300773
0.0496355
0.0822121
0.160236
0.261535
0.454755
0.655978
0.810098
0.751351
0.531773
0.427798
0.335188
0.250823
0.196943
0.167821
0.153671
0.151397
0.151566
0.148733
0.140494
0.136859
0.139512
0.147491
0.153615
0.159934
0.166855
0.169704
0.165444
0.142405
0.122718
0.120422
0.139628
0.26341
0.344605
0.307098
0.258506
0.31255
0.578251
0.754875
0.622558
0.370514
0.212805
0.148384
0.128518
0.122551
0.120307
0.120415
0.13354
0.125683
0.123461
0.121907
0.121093
0.121883
0.119374
0.122589
0.12079
0.122719
0.128132
0.134004
0.142179
0.143875
0.145003
0.144856
0.142365
0.141556
0.14025
0.138892
0.137672
0.138059
0.138652
0.141943
0.143385
0.147756
0.147394
0.142579
0.135637
0.130709
0.122959
0.101436
0.0832462
0.0716261
0.0632642
0.0547414
0.0488453
0.0436236
0.040713
0.0404947
0.0420716
0.045666
0.0498443
0.0568119
0.0706283
0.121141
0.178091
0.168674
0.147187
0.115016
0.119498
0.11224
0.116099
0.122188
0.120449
0.145521
0.134772
0.149454
0.167957
0.155487
0.200987
0.201561
0.200907
0.246832
0.162022
0.255597
0.177621
0.218247
0.222215
0.192162
0.191131
0.172472
0.143859
0.134243
0.105581
0.104445
0.0962641
0.0895
0.0780982
0.0714373
0.0694035
0.0648917
0.0632339
0.0619524
0.0635499
0.0628311
0.0575425
0.0546431
0.0540372
0.0547282
0.0545688
0.0520112
0.0487338
0.0475372
0.0469462
0.0477358
0.0491068
0.0231411
0.0233743
0.0234444
0.0232665
0.0232601
0.022969
0.022882
0.0231014
0.0236353
0.0252009
0.026743
0.0291589
0.033784
0.0364632
0.0415766
0.0472507
0.052464
0.0628059
0.0687225
0.0805443
0.0911764
0.101331
0.11695
0.127971
0.145393
0.158851
0.166551
0.174896
0.176564
0.17559
0.172623
0.165807
0.153845
0.138316
0.12063
0.102891
0.0843623
0.0675008
0.0541529