/*--------------------------------*- C++ -*----------------------------------*\
| =========                 |                                                 |
| \\      /  F ield         | OpenFOAM: The Open Source CFD Toolbox           |
|  \\    /   O peration     | Version:  2.4.0                                 |
|   \\  /    A nd           | Web:      www.OpenFOAM.org                      |
|    \\/     M anipulation  |                                                 |
\*---------------------------------------------------------------------------*/
FoamFile
{
    version     2.0;
    format      ascii;
    class       volScalarField;
    location    "0.13";
    object      nuSgs;
}
// * * * * * * * * * * * * * * * * * * * * * * * * * * * * * * * * * * * * * //

dimensions      [0 2 -1 0 0 0 0];

internalField   nonuniform List<scalar> 
8800
(
0.00133917
0.00150557
0.00139428
0.00122692
0.0011235
0.00104713
0.00100045
0.000955841
0.00093042
0.000898072
0.000886158
0.000859077
0.000852212
0.000831799
0.000823463
0.000804294
0.000789438
0.000774877
0.000742047
0.000722662
0.000556703
0.000980013
0.00108428
0.00108086
0.0010649
0.00103024
0.00100551
0.000972762
0.000954534
0.000924507
0.000914116
0.000888954
0.000881352
0.000863302
0.000856357
0.000841201
0.00083381
0.000821068
0.000808536
0.000796634
0.000136472
0.000401437
0.000586975
0.000656021
0.000709116
0.000733872
0.000754585
0.000757615
0.000761698
0.000757342
0.000756182
0.000750104
0.000747459
0.000739799
0.000738078
0.000732197
0.000731145
0.000725992
0.000727071
0.000724099
2.72138e-05
0.000124024
0.000236017
0.000307522
0.000359291
0.000393989
0.00043075
0.000451337
0.000477304
0.000491234
0.000504915
0.00052007
0.000529051
0.000535379
0.000546843
0.000552827
0.000561031
0.000567081
0.000580177
0.000593445
5.28612e-06
3.30772e-05
6.86287e-05
0.000113558
0.000138976
0.000164757
0.000191548
0.000211213
0.000231617
0.000253224
0.000262243
0.000283058
0.000292787
0.000309447
0.000318878
0.000337496
0.000345749
0.000363546
0.000377236
0.000410848
2.34188e-06
8.21894e-06
1.77965e-05
3.32758e-05
4.1315e-05
5.44372e-05
6.32386e-05
7.68902e-05
8.45755e-05
9.99559e-05
0.000105739
0.00012043
0.000126594
0.000139761
0.000146063
0.000161111
0.000167325
0.000182794
0.000193104
0.000224488
2.17927e-06
3.05379e-06
5.09851e-06
9.30922e-06
1.13127e-05
1.49764e-05
1.73961e-05
2.15025e-05
2.39349e-05
2.9501e-05
3.16525e-05
3.80343e-05
4.09441e-05
4.69661e-05
5.04022e-05
5.85597e-05
6.24255e-05
7.05549e-05
7.6944e-05
9.44654e-05
2.18201e-06
2.75458e-06
3.18764e-06
4.18875e-06
4.63292e-06
5.68967e-06
6.0536e-06
6.69324e-06
6.95469e-06
7.96682e-06
8.28835e-06
1.00494e-05
1.08487e-05
1.2711e-05
1.38381e-05
1.68081e-05
1.81188e-05
2.07397e-05
2.33456e-05
3.02124e-05
2.13785e-06
2.47435e-06
3.06924e-06
3.46524e-06
4.01919e-06
4.19921e-06
4.31202e-06
4.31507e-06
4.3286e-06
4.45202e-06
4.5544e-06
4.81765e-06
4.97256e-06
5.07428e-06
5.29077e-06
5.81774e-06
6.17553e-06
6.63403e-06
7.23757e-06
8.85962e-06
2.1325e-06
2.5654e-06
3.18874e-06
3.26753e-06
3.35839e-06
3.76262e-06
4.13667e-06
4.21454e-06
4.18805e-06
4.08301e-06
4.00314e-06
3.99836e-06
4.05805e-06
4.25933e-06
4.36116e-06
4.47128e-06
4.54247e-06
4.61026e-06
4.66883e-06
4.85411e-06
2.13546e-06
2.49966e-06
2.81907e-06
3.54629e-06
3.90392e-06
3.91845e-06
3.84515e-06
3.82829e-06
3.8817e-06
3.96723e-06
4.00321e-06
4.13279e-06
4.23778e-06
4.25308e-06
4.25276e-06
4.24172e-06
4.21015e-06
4.19037e-06
4.20242e-06
4.29249e-06
2.14288e-06
2.47713e-06
3.24422e-06
3.82062e-06
3.79265e-06
3.73179e-06
3.79572e-06
4.27935e-06
4.45261e-06
4.49168e-06
4.5488e-06
4.62271e-06
4.63329e-06
4.77059e-06
4.83725e-06
4.91249e-06
5.00833e-06
5.40659e-06
5.63722e-06
5.82608e-06
2.15551e-06
2.59015e-06
3.50009e-06
3.76324e-06
4.18554e-06
5.12644e-06
5.61307e-06
6.60035e-06
7.02777e-06
7.88803e-06
8.57671e-06
9.4222e-06
1.04168e-05
1.24067e-05
1.28725e-05
1.36082e-05
1.4396e-05
1.64655e-05
1.74652e-05
1.87874e-05
2.18514e-06
3.11695e-06
5.1519e-06
8.09846e-06
1.04026e-05
1.41817e-05
1.64663e-05
2.17763e-05
2.44492e-05
2.96718e-05
3.23441e-05
3.74774e-05
3.99372e-05
4.57574e-05
4.81523e-05
5.32067e-05
5.61704e-05
6.28989e-05
6.57871e-05
7.15715e-05
2.3483e-06
8.27171e-06
1.86008e-05
2.83261e-05
4.09524e-05
5.39955e-05
6.16142e-05
7.80535e-05
8.56571e-05
9.97857e-05
0.00010642
0.000119145
0.000124833
0.000137569
0.000142675
0.000153758
0.000159371
0.000172472
0.000177947
0.000190931
5.20615e-06
3.30188e-05
7.41807e-05
0.000101678
0.000141898
0.000167588
0.000184826
0.00021729
0.000230424
0.000252467
0.000263985
0.000282521
0.000290451
0.000307953
0.000314842
0.000330341
0.000337366
0.000354042
0.000360372
0.000375861
2.72356e-05
0.00012423
0.000240315
0.000300746
0.000362131
0.000393517
0.000427842
0.000455374
0.00047488
0.000491922
0.000506646
0.000517814
0.000525124
0.000536512
0.000540636
0.000549419
0.000552775
0.000561512
0.000563941
0.000570177
0.000136679
0.000401688
0.000588278
0.00065352
0.000710946
0.000732176
0.000754982
0.000757581
0.00076179
0.000757679
0.000756053
0.000748868
0.000746157
0.000738542
0.000736255
0.000729591
0.000727728
0.000723082
0.000720866
0.000716203
0.000557498
0.000980343
0.00108404
0.00108067
0.00106475
0.00102962
0.00100705
0.000971267
0.00095591
0.000924602
0.000913444
0.000889513
0.000882288
0.000862802
0.000858616
0.000842782
0.000839567
0.000825392
0.000821878
0.000811128
0.0013396
0.00150582
0.00139364
0.00122747
0.00112313
0.00104703
0.00100158
0.000955038
0.000932029
0.000898172
0.000886727
0.000861318
0.000855833
0.000834903
0.000832229
0.000812988
0.000811488
0.000791402
0.000788323
0.000764459
0.00032389
0.000250932
0.000196723
0.000158565
0.000133332
0.000116131
0.000103262
9.70735e-05
9.31832e-05
9.33322e-05
9.42902e-05
9.58677e-05
9.68226e-05
9.86867e-05
0.000100088
9.99251e-05
9.86978e-05
9.79212e-05
9.86596e-05
0.000101684
0.000108941
0.000123593
0.000144055
0.000156774
0.000158894
0.000157534
0.000153814
0.000144912
0.000131847
0.000112127
0.000103203
9.23606e-05
8.02889e-05
8.13495e-05
8.14749e-05
8.60082e-05
0.000130631
0.000165618
0.000168155
0.000151323
0.000119655
9.85414e-05
8.43494e-05
7.55316e-05
7.18419e-05
6.95868e-05
6.88758e-05
6.77371e-05
6.72278e-05
6.68176e-05
6.68201e-05
6.72467e-05
6.82333e-05
6.86694e-05
6.86327e-05
6.76363e-05
6.59243e-05
6.53701e-05
6.55435e-05
6.61648e-05
6.83256e-05
7.39953e-05
8.61874e-05
9.13343e-05
9.30641e-05
9.25814e-05
8.92723e-05
7.88967e-05
6.01056e-05
4.85285e-05
4.37966e-05
4.23074e-05
4.26861e-05
4.48146e-05
4.99992e-05
5.71498e-05
6.39425e-05
6.95704e-05
7.26005e-05
7.25787e-05
7.1435e-05
7.01313e-05
6.89081e-05
6.77495e-05
6.62864e-05
6.21096e-05
5.77074e-05
5.46333e-05
4.98841e-05
4.40276e-05
4.28246e-05
4.2937e-05
4.48505e-05
5.00058e-05
6.50156e-05
9.64207e-05
0.00011914
0.000126358
0.000126146
0.000124748
0.000122212
0.000120816
0.00011884
0.00011747
0.000116249
0.000113568
0.000107667
9.01217e-05
7.29854e-05
7.31991e-05
8.01173e-05
9.80373e-05
0.000102175
0.000100795
9.27782e-05
7.87096e-05
7.05542e-05
6.70127e-05
6.53864e-05
6.53395e-05
6.64529e-05
6.86797e-05
7.05067e-05
7.0855e-05
7.10023e-05
7.09719e-05
7.12749e-05
7.24452e-05
7.84931e-05
8.17192e-05
8.24306e-05
8.16403e-05
8.04527e-05
8.02784e-05
8.04297e-05
7.94421e-05
7.78507e-05
7.67944e-05
7.36874e-05
7.2378e-05
7.12642e-05
6.97142e-05
6.42776e-05
5.84831e-05
5.09429e-05
4.45008e-05
3.99881e-05
3.73899e-05
3.70344e-05
3.74254e-05
3.83185e-05
5.19366e-05
8.12299e-05
9.36741e-05
9.7265e-05
0.000100329
0.000100772
0.000100294
9.19288e-05
7.66773e-05
6.42472e-05
5.53754e-05
5.02458e-05
4.75877e-05
4.64227e-05
4.58409e-05
4.58528e-05
4.606e-05
4.67806e-05
4.92902e-05
5.57666e-05
6.19073e-05
6.71624e-05
6.9418e-05
7.13019e-05
7.59035e-05
8.06203e-05
8.42008e-05
8.47043e-05
8.44734e-05
7.87666e-05
7.08858e-05
6.93159e-05
6.97396e-05
6.80743e-05
6.78705e-05
6.00833e-05
5.62143e-05
5.29376e-05
5.15438e-05
5.70408e-05
5.58708e-05
6.27672e-05
6.69362e-05
8.24601e-05
8.67864e-05
9.65999e-05
0.000104582
0.000120042
0.000171434
0.000397666
0.000357218
0.000324035
0.000294694
0.000266619
0.000241524
0.000218494
0.000196931
0.00017562
0.000156315
0.000142367
0.000132671
0.000125821
0.00012173
0.000120143
0.000120299
0.000121803
0.000126755
0.000136455
0.000149085
0.00016075
0.000167523
0.00016811
0.000166768
0.000163119
0.000157969
0.000148638
0.000130634
0.000113192
9.10095e-05
7.05439e-05
6.18553e-05
5.47082e-05
5.48899e-05
5.8193e-05
6.26005e-05
7.40216e-05
0.000125628
0.000157053
0.000157902
0.000141863
0.000110391
9.07904e-05
7.8306e-05
7.28447e-05
6.98529e-05
6.87303e-05
6.78333e-05
6.69439e-05
6.66345e-05
6.65715e-05
6.6942e-05
6.72107e-05
6.73636e-05
6.71501e-05
6.59342e-05
6.53083e-05
6.54135e-05
6.61289e-05
6.87839e-05
7.5965e-05
8.75007e-05
9.22796e-05
9.30958e-05
9.2401e-05
8.80079e-05
7.34232e-05
5.54578e-05
4.56375e-05
4.23067e-05
4.21643e-05
4.38253e-05
4.91639e-05
5.90799e-05
7.17936e-05
8.19714e-05
8.95954e-05
9.34495e-05
9.34212e-05
9.20755e-05
8.90709e-05
8.48859e-05
8.06745e-05
7.76955e-05
7.53349e-05
6.84978e-05
6.40953e-05
6.02514e-05
5.47074e-05
4.96296e-05
4.9535e-05
5.06305e-05
5.53503e-05
6.82958e-05
0.000106666
0.000129703
0.000135983
0.000134167
0.000129238
0.000123629
0.0001187
0.000113162
0.000111957
0.000112072
0.000113181
0.000112801
0.000111763
0.000108226
9.73388e-05
8.02962e-05
8.05514e-05
8.60548e-05
9.85999e-05
0.000100884
9.91121e-05
9.21124e-05
7.84042e-05
7.10806e-05
6.85916e-05
6.83206e-05
6.88855e-05
7.05262e-05
7.2096e-05
7.24545e-05
7.27344e-05
7.32011e-05
7.50198e-05
8.07304e-05
8.31614e-05
8.34286e-05
8.31378e-05
8.20062e-05
8.08119e-05
7.99749e-05
8.00757e-05
7.90919e-05
7.83991e-05
7.65274e-05
7.35689e-05
7.1624e-05
7.0635e-05
6.89419e-05
6.36481e-05
5.72459e-05
4.97616e-05
4.35208e-05
3.97242e-05
3.81041e-05
3.8024e-05
3.83037e-05
3.96922e-05
5.56392e-05
8.40491e-05
9.1606e-05
9.69956e-05
0.000100665
0.000101794
0.000101619
9.20968e-05
7.56557e-05
6.20084e-05
5.4018e-05
4.90319e-05
4.69412e-05
4.5825e-05
4.52317e-05
4.50528e-05
4.5209e-05
4.56193e-05
4.71132e-05
5.14131e-05
5.76053e-05
6.35906e-05
6.58345e-05
6.77905e-05
7.42645e-05
7.87221e-05
8.32965e-05
8.43679e-05
8.36328e-05
7.82759e-05
7.13836e-05
6.84721e-05
6.97212e-05
6.80083e-05
6.54061e-05
6.1381e-05
5.60295e-05
5.87083e-05
5.64984e-05
6.01938e-05
6.04777e-05
6.7169e-05
7.3311e-05
7.99405e-05
8.31559e-05
8.13129e-05
8.85352e-05
9.03515e-05
0.000109198
0.000375422
0.000350754
0.000329098
0.000313642
0.000298763
0.000285602
0.000273028
0.000260765
0.000250252
0.000239808
0.00022931
0.000219096
0.000208283
0.000200805
0.000194332
0.000189752
0.000188977
0.000188289
0.000186085
0.00018332
0.000180507
0.000176256
0.000171782
0.000163384
0.00015386
0.000141934
0.000123365
0.000100088
7.63152e-05
6.13002e-05
5.03082e-05
4.4343e-05
4.07913e-05
3.89893e-05
4.03735e-05
4.23263e-05
4.78954e-05
6.38109e-05
0.000119237
0.00014744
0.000147136
0.000135364
0.000106347
8.69236e-05
7.64627e-05
7.13782e-05
6.90524e-05
6.81942e-05
6.72061e-05
6.66731e-05
6.65607e-05
6.6652e-05
6.66381e-05
6.66105e-05
6.61874e-05
6.6033e-05
6.62741e-05
6.7463e-05
7.09501e-05
8.0884e-05
9.0803e-05
9.41349e-05
9.40145e-05
9.22856e-05
8.65701e-05
6.72807e-05
5.08923e-05
4.33428e-05
4.12776e-05
4.18835e-05
4.59171e-05
5.59737e-05
7.30908e-05
9.05495e-05
0.000104225
0.000114345
0.000119602
0.000119578
0.000118227
0.000113744
0.000108495
0.00010054
9.45391e-05
8.91085e-05
8.32496e-05
7.49269e-05
7.19899e-05
6.58298e-05
5.98583e-05
5.6684e-05
5.78919e-05
6.04427e-05
7.10317e-05
0.000107081
0.000138628
0.00014522
0.000142655
0.000134709
0.000123582
0.000113385
0.00010628
0.000100641
9.7826e-05
9.79459e-05
9.9616e-05
0.000104381
0.000108344
0.000107833
0.000105714
9.80699e-05
8.51184e-05
8.53868e-05
8.87842e-05
9.79529e-05
9.86373e-05
9.72019e-05
9.30533e-05
8.36755e-05
7.86973e-05
7.62645e-05
7.49401e-05
7.5225e-05
7.58631e-05
7.69796e-05
7.8068e-05
8.05788e-05
8.34349e-05
8.48678e-05
8.4806e-05
8.39757e-05
8.33007e-05
8.25902e-05
8.11126e-05
7.98675e-05
7.94303e-05
7.85795e-05
7.83088e-05
7.65122e-05
7.40116e-05
7.1706e-05
7.04789e-05
6.75744e-05
6.2395e-05
5.59105e-05
4.89405e-05
4.33558e-05
3.96637e-05
3.86518e-05
3.93251e-05
3.96154e-05
4.11107e-05
5.76214e-05
8.45367e-05
8.9439e-05
9.76669e-05
0.000100785
0.000104314
0.000103278
9.25069e-05
7.50559e-05
6.10184e-05
5.35709e-05
4.85296e-05
4.70881e-05
4.5684e-05
4.53601e-05
4.48796e-05
4.48895e-05
4.50503e-05
4.57895e-05
4.96677e-05
5.49843e-05
6.0132e-05
6.28775e-05
6.50107e-05
7.24981e-05
7.85996e-05
8.19527e-05
8.39575e-05
8.26224e-05
7.75507e-05
7.18692e-05
6.78227e-05
6.7359e-05
6.77421e-05
6.42239e-05
6.37046e-05
5.8825e-05
5.97247e-05
5.94544e-05
6.03284e-05
6.18843e-05
6.81673e-05
7.41422e-05
7.35953e-05
7.25767e-05
7.11901e-05
7.46825e-05
7.60831e-05
8.19815e-05
0.000314316
0.000300662
0.000286527
0.000279551
0.000274646
0.000268984
0.000262841
0.000253982
0.000247485
0.000240546
0.00023419
0.000229716
0.00022549
0.000219374
0.000214987
0.000209409
0.000203036
0.000196405
0.000189463
0.000181101
0.000171701
0.000161146
0.000146624
0.000129776
0.000113388
9.4393e-05
7.60915e-05
6.07256e-05
4.94705e-05
4.11219e-05
3.60355e-05
3.06793e-05
2.92487e-05
2.85797e-05
2.89092e-05
3.03927e-05
3.29226e-05
3.95977e-05
5.79259e-05
0.000109372
0.000136629
0.000136678
0.000130856
0.000109056
8.92364e-05
7.81157e-05
7.24144e-05
7.00594e-05
6.88425e-05
6.79451e-05
6.74783e-05
6.72878e-05
6.72283e-05
6.7261e-05
6.75387e-05
6.83913e-05
7.08953e-05
7.66504e-05
8.84818e-05
9.49507e-05
9.59262e-05
9.54711e-05
9.23732e-05
8.28248e-05
6.13928e-05
4.73401e-05
4.11773e-05
4.0471e-05
4.2249e-05
4.93878e-05
6.48064e-05
8.95819e-05
0.000113501
0.000130439
0.00014103
0.000144096
0.000143144
0.000141335
0.000137771
0.000133007
0.000126526
0.000117856
0.000106595
9.75925e-05
9.17598e-05
8.49993e-05
7.82979e-05
6.96345e-05
6.58493e-05
6.56458e-05
6.73886e-05
7.24541e-05
0.000102368
0.000142739
0.000154582
0.000152139
0.000141646
0.000125184
0.000111216
0.000102403
9.56298e-05
9.23907e-05
8.9123e-05
8.86646e-05
8.90433e-05
9.07899e-05
9.48919e-05
0.000103181
0.00010385
0.000102382
9.62872e-05
8.78822e-05
8.76923e-05
9.01774e-05
9.6026e-05
9.65491e-05
9.56553e-05
9.28215e-05
8.94236e-05
8.65833e-05
8.55141e-05
8.43967e-05
8.44353e-05
8.47918e-05
8.53938e-05
8.58849e-05
8.62146e-05
8.60346e-05
8.51388e-05
8.37555e-05
8.33078e-05
8.28378e-05
8.11214e-05
7.99616e-05
7.83011e-05
7.77131e-05
7.8034e-05
7.72246e-05
7.51517e-05
7.27186e-05
7.00869e-05
6.50861e-05
5.92333e-05
5.32019e-05
4.65609e-05
4.34845e-05
4.0388e-05
3.96978e-05
4.04652e-05
4.01542e-05
4.17406e-05
6.21711e-05
8.18063e-05
8.90981e-05
9.73068e-05
0.000100731
0.000106876
0.000104919
9.47856e-05
7.49109e-05
6.08384e-05
5.35154e-05
4.85358e-05
4.74063e-05
4.63711e-05
4.63332e-05
4.58597e-05
4.52424e-05
4.53385e-05
4.57336e-05
4.93683e-05
5.422e-05
5.73065e-05
6.03871e-05
6.46721e-05
7.15929e-05
7.8706e-05
8.06652e-05
8.42208e-05
8.28417e-05
7.5718e-05
7.00731e-05
6.81387e-05
6.69451e-05
6.83455e-05
6.47548e-05
6.33937e-05
5.91406e-05
5.90801e-05
5.92282e-05
6.00123e-05
6.29578e-05
6.83109e-05
7.13012e-05
7.01499e-05
7.09442e-05
7.35289e-05
7.60221e-05
7.4684e-05
7.16334e-05
0.000221652
0.000217278
0.000208182
0.000203588
0.000203119
0.00020364
0.000205774
0.000205937
0.000203565
0.000199825
0.000195824
0.000192784
0.000190939
0.000187903
0.000184872
0.000181941
0.000175646
0.00016743
0.000156188
0.000142238
0.000125753
0.00010599
8.82459e-05
7.35194e-05
6.22068e-05
5.28207e-05
4.41377e-05
3.65269e-05
3.15374e-05
2.77801e-05
2.41602e-05
2.14549e-05
2.06019e-05
2.10994e-05
2.25453e-05
2.34348e-05
2.47662e-05
2.74993e-05
3.48793e-05
5.39014e-05
9.86236e-05
0.000125957
0.000127941
0.000125389
0.000117385
0.000100734
8.70518e-05
7.9186e-05
7.55812e-05
7.35433e-05
7.20351e-05
7.17807e-05
7.19593e-05
7.27187e-05
7.51579e-05
7.9991e-05
8.97453e-05
9.66462e-05
9.84009e-05
9.81725e-05
9.65367e-05
9.12893e-05
7.49874e-05
5.50081e-05
4.3329e-05
3.90051e-05
3.9247e-05
4.27182e-05
5.39565e-05
7.56056e-05
0.000108524
0.000137779
0.000153939
0.000157419
0.00015624
0.000153111
0.000148505
0.000146247
0.000141456
0.000137681
0.000134904
0.00012868
0.000117325
0.000110278
9.91523e-05
9.01677e-05
8.2727e-05
7.86672e-05
7.42708e-05
7.43286e-05
7.51058e-05
9.15514e-05
0.000138188
0.00016273
0.000162955
0.00015361
0.000131659
0.000115422
0.000103338
9.54322e-05
8.94907e-05
8.59416e-05
8.31764e-05
8.21523e-05
8.21799e-05
8.28462e-05
8.459e-05
8.96062e-05
9.78402e-05
0.000100172
9.86402e-05
9.3804e-05
8.86696e-05
8.86265e-05
9.0044e-05
9.38296e-05
9.47256e-05
9.40865e-05
9.25969e-05
9.10425e-05
9.00069e-05
8.91588e-05
8.84033e-05
8.82042e-05
8.76867e-05
8.73127e-05
8.68112e-05
8.56836e-05
8.52172e-05
8.41042e-05
8.35072e-05
8.19431e-05
8.05302e-05
7.99699e-05
7.81053e-05
7.69898e-05
7.7066e-05
7.69554e-05
7.63411e-05
7.38568e-05
6.8481e-05
6.25184e-05
5.58373e-05
4.96773e-05
4.43552e-05
4.2638e-05
4.05817e-05
4.04722e-05
4.09301e-05
4.05609e-05
4.23518e-05
6.48282e-05
8.01162e-05
9.41373e-05
9.67245e-05
0.000102427
0.000107139
0.000105774
9.8965e-05
7.57875e-05
6.37562e-05
5.39616e-05
5.01604e-05
4.78028e-05
4.65093e-05
4.63933e-05
4.64815e-05
4.6081e-05
4.62759e-05
4.66936e-05
5.07914e-05
5.49228e-05
5.66197e-05
5.9655e-05
6.56244e-05
7.05168e-05
7.98764e-05
8.10728e-05
8.37757e-05
8.29095e-05
7.39404e-05
6.98943e-05
6.89118e-05
6.71337e-05
6.76858e-05
6.5051e-05
6.23891e-05
5.90778e-05
5.8456e-05
5.88771e-05
5.95587e-05
6.37549e-05
6.78653e-05
6.90088e-05
6.79449e-05
6.64681e-05
6.30046e-05
6.21005e-05
6.16567e-05
6.25459e-05
0.000124015
0.000123482
0.000120177
0.000118471
0.000118516
0.000119786
0.000125467
0.000129732
0.000130699
0.000130473
0.000127458
0.000123154
0.000120402
0.00011783
0.000115761
0.000112872
0.000109109
0.000105118
9.75647e-05
8.65482e-05
7.35637e-05
6.02591e-05
4.89296e-05
4.04425e-05
3.47777e-05
2.94712e-05
2.43042e-05
2.15729e-05
2.00964e-05
1.78229e-05
1.55542e-05
1.50437e-05
1.55805e-05
1.7244e-05
1.82483e-05
1.89757e-05
1.97803e-05
2.11886e-05
2.42439e-05
3.16247e-05
4.91516e-05
8.46905e-05
0.000113844
0.00012067
0.000120111
0.000117828
0.000112713
0.000104905
9.94791e-05
9.48175e-05
9.18647e-05
9.18359e-05
9.26502e-05
9.50287e-05
9.94677e-05
0.000101639
0.000101694
0.000101329
9.98007e-05
9.5586e-05
8.45661e-05
6.3391e-05
4.77243e-05
3.91101e-05
3.69675e-05
3.77909e-05
4.35321e-05
5.90555e-05
8.73816e-05
0.000131063
0.000159963
0.000168734
0.000167382
0.000163608
0.000158159
0.000152159
0.0001476
0.000145636
0.00014135
0.000137189
0.000134653
0.000132104
0.000122951
0.000116
0.000106011
9.75914e-05
8.70311e-05
8.00519e-05
7.62451e-05
7.76423e-05
8.36168e-05
0.000126834
0.000163763
0.000173689
0.000167739
0.000148133
0.000124477
0.000108784
9.6753e-05
8.87966e-05
8.4647e-05
8.13905e-05
7.97795e-05
7.8648e-05
7.82077e-05
7.83706e-05
7.89934e-05
8.09004e-05
8.47827e-05
9.39458e-05
9.63536e-05
9.50475e-05
9.13156e-05
8.82277e-05
8.7749e-05
8.86289e-05
9.09125e-05
9.28298e-05
9.2531e-05
9.20068e-05
9.13064e-05
9.0699e-05
9.00654e-05
8.93822e-05
8.87998e-05
8.7932e-05
8.74997e-05
8.64284e-05
8.56608e-05
8.31697e-05
8.18543e-05
8.06075e-05
8.02424e-05
7.99119e-05
7.84466e-05
7.70336e-05
7.69872e-05
7.67253e-05
7.62082e-05
7.42051e-05
6.74647e-05
5.95712e-05
5.28805e-05
4.68968e-05
4.36606e-05
4.19289e-05
4.09357e-05
4.10962e-05
4.11184e-05
4.08303e-05
4.32503e-05
6.61042e-05
8.28074e-05
9.67427e-05
9.77713e-05
0.000103767
0.000104774
0.000107045
0.000100917
7.82714e-05
6.70596e-05
5.49003e-05
5.37046e-05
5.05479e-05
5.01032e-05
4.80652e-05
4.94132e-05
4.87305e-05
5.02631e-05
5.00355e-05
5.17484e-05
5.5941e-05
5.70862e-05
5.98559e-05
6.73855e-05
7.14251e-05
8.029e-05
8.23986e-05
8.18627e-05
8.25392e-05
7.42887e-05
6.97697e-05
6.8589e-05
6.68255e-05
6.65704e-05
6.45584e-05
6.07172e-05
5.89819e-05
5.81194e-05
5.84213e-05
5.91255e-05
6.35173e-05
6.58867e-05
6.6149e-05
6.41289e-05
6.2502e-05
6.30412e-05
6.37832e-05
6.38718e-05
6.34681e-05
5.49076e-05
5.48459e-05
5.33468e-05
5.21825e-05
5.20685e-05
5.33547e-05
6.01688e-05
6.61303e-05
6.89221e-05
6.92813e-05
6.81107e-05
6.3322e-05
5.76349e-05
5.38739e-05
5.33335e-05
5.43039e-05
5.42873e-05
5.37356e-05
5.22973e-05
4.63968e-05
3.79974e-05
3.04906e-05
2.45575e-05
2.09417e-05
1.77724e-05
1.4358e-05
1.29611e-05
1.29494e-05
1.27904e-05
1.17944e-05
1.12847e-05
1.14793e-05
1.31518e-05
1.49924e-05
1.56175e-05
1.6387e-05
1.67064e-05
1.73191e-05
1.86829e-05
2.1625e-05
2.8035e-05
4.24018e-05
6.76634e-05
9.70573e-05
0.000110272
0.000114132
0.000113844
0.000112629
0.00011101
0.000109423
0.0001079
0.000106957
0.000106878
0.000106637
0.000105753
0.000104374
0.000101055
9.66646e-05
8.70425e-05
6.82899e-05
5.16064e-05
4.05795e-05
3.48907e-05
3.45505e-05
3.61965e-05
4.47641e-05
6.49484e-05
9.92938e-05
0.000152616
0.000176275
0.000178483
0.000175762
0.000168431
0.000156805
0.000144558
0.000136602
0.000135034
0.00013543
0.000134485
0.000133747
0.000132355
0.000129165
0.000125534
0.000119493
0.000109375
0.000102326
9.26765e-05
8.30075e-05
8.16532e-05
8.46224e-05
0.000106275
0.000158718
0.000178066
0.000178358
0.000168438
0.000144483
0.000119406
0.000103695
9.17904e-05
8.57144e-05
8.25814e-05
8.00607e-05
7.902e-05
7.78754e-05
7.68404e-05
7.64244e-05
7.65231e-05
7.70217e-05
7.84041e-05
8.20155e-05
9.02067e-05
9.302e-05
9.19255e-05
8.9062e-05
8.69772e-05
8.6313e-05
8.67766e-05
8.82315e-05
9.02875e-05
9.11084e-05
9.09421e-05
9.07048e-05
9.03186e-05
8.98748e-05
8.88566e-05
8.82745e-05
8.67636e-05
8.47329e-05
8.34648e-05
8.18875e-05
8.07577e-05
8.02507e-05
8.03169e-05
8.0487e-05
7.9802e-05
7.79967e-05
7.74275e-05
7.68544e-05
7.59375e-05
7.40678e-05
6.71704e-05
5.84559e-05
5.16151e-05
4.57913e-05
4.39485e-05
4.37313e-05
4.37108e-05
4.25911e-05
4.09293e-05
4.07368e-05
4.5545e-05
7.21512e-05
9.19627e-05
9.91742e-05
9.78914e-05
0.000103672
0.000104033
0.000111064
0.000105178
8.6211e-05
6.9035e-05
5.61284e-05
5.43055e-05
5.13738e-05
5.34145e-05
5.19499e-05
5.40338e-05
5.16647e-05
5.23295e-05
5.44292e-05
5.45026e-05
5.81593e-05
5.82962e-05
6.07216e-05
7.21608e-05
7.40995e-05
7.90662e-05
8.58406e-05
8.2733e-05
8.18805e-05
7.45586e-05
6.92914e-05
6.80401e-05
6.66014e-05
6.50569e-05
6.32336e-05
5.97195e-05
5.85708e-05
5.7539e-05
5.85071e-05
5.92585e-05
6.19245e-05
6.33707e-05
6.34434e-05
6.15812e-05
6.1176e-05
6.48507e-05
7.14216e-05
7.41107e-05
7.26981e-05
1.84971e-05
1.85213e-05
1.79248e-05
1.74585e-05
1.73581e-05
1.8342e-05
2.32765e-05
2.71252e-05
2.88339e-05
2.90246e-05
2.75286e-05
2.34396e-05
1.97208e-05
1.80832e-05
1.86052e-05
2.19429e-05
2.3267e-05
2.34436e-05
2.27992e-05
1.94349e-05
1.59661e-05
1.33178e-05
1.16301e-05
9.46749e-06
7.90281e-06
7.87938e-06
8.73097e-06
9.75017e-06
9.75287e-06
9.73158e-06
9.94702e-06
1.05406e-05
1.29864e-05
1.41383e-05
1.43661e-05
1.44858e-05
1.467e-05
1.52739e-05
1.62056e-05
1.73827e-05
1.95883e-05
2.42926e-05
3.42457e-05
4.95003e-05
7.28469e-05
9.02931e-05
0.00010063
0.000105065
0.000106557
0.000106512
0.000106081
0.000105308
0.000104195
0.000102177
9.77649e-05
9.23164e-05
8.19401e-05
6.65488e-05
5.17856e-05
4.07853e-05
3.37426e-05
3.16093e-05
3.20816e-05
3.52591e-05
4.62718e-05
7.13597e-05
0.000111284
0.000171289
0.000189135
0.000187813
0.000182071
0.000167539
0.000144192
0.000126873
0.0001193
0.000115455
0.000114064
0.000114283
0.000118935
0.000125205
0.000126997
0.000126041
0.00012432
0.000120394
0.000110286
0.00010209
9.24705e-05
8.7268e-05
8.8468e-05
9.46001e-05
0.000138673
0.000173995
0.00018274
0.000180624
0.000169505
0.000143277
0.000117311
0.000100329
8.93612e-05
8.47499e-05
8.17647e-05
7.98456e-05
7.8966e-05
7.75574e-05
7.68029e-05
7.63707e-05
7.65044e-05
7.65178e-05
7.68067e-05
7.78787e-05
8.08393e-05
8.72537e-05
9.01137e-05
8.9351e-05
8.73046e-05
8.62165e-05
8.53011e-05
8.53953e-05
8.58007e-05
8.69384e-05
8.75089e-05
8.78374e-05
8.76688e-05
8.72373e-05
8.60584e-05
8.52643e-05
8.36645e-05
8.26221e-05
8.22174e-05
8.13629e-05
8.0474e-05
8.04262e-05
8.12913e-05
8.17182e-05
8.17059e-05
8.04848e-05
7.96059e-05
7.76363e-05
7.53691e-05
7.19774e-05
6.54865e-05
5.75302e-05
5.08767e-05
4.57991e-05
4.53195e-05
4.54793e-05
4.62859e-05
4.42969e-05
4.18673e-05
4.2354e-05
5.49495e-05
8.78375e-05
0.000102184
0.000101076
9.4651e-05
9.81359e-05
0.000100597
0.000112241
0.000107597
9.91223e-05
7.77469e-05
6.29278e-05
5.45761e-05
5.05718e-05
5.05618e-05
5.0472e-05
5.17932e-05
5.45684e-05
5.37328e-05
6.04115e-05
5.6759e-05
5.78411e-05
6.11826e-05
6.36702e-05
7.46459e-05
7.90054e-05
8.06084e-05
8.77196e-05
8.59083e-05
8.10841e-05
7.40961e-05
6.90056e-05
6.68629e-05
6.60836e-05
6.3717e-05
6.25336e-05
5.96601e-05
5.81576e-05
5.73235e-05
5.85635e-05
5.94938e-05
6.16387e-05
6.23167e-05
6.18341e-05
5.9648e-05
5.93734e-05
6.19198e-05
7.19921e-05
7.84226e-05
8.32729e-05
5.49917e-06
5.50515e-06
5.36241e-06
5.33995e-06
5.31937e-06
5.77989e-06
7.77919e-06
8.934e-06
9.34375e-06
9.23905e-06
8.219e-06
6.81198e-06
6.00523e-06
5.83723e-06
6.85319e-06
7.98266e-06
8.35173e-06
8.28406e-06
7.77085e-06
7.23269e-06
6.97096e-06
6.24881e-06
5.65809e-06
5.50535e-06
5.66499e-06
6.89643e-06
8.8864e-06
9.32484e-06
9.39671e-06
9.90158e-06
1.16308e-05
1.37406e-05
1.48792e-05
1.48742e-05
1.45082e-05
1.43805e-05
1.44586e-05
1.45502e-05
1.45756e-05
1.46881e-05
1.50553e-05
1.61377e-05
1.91529e-05
2.52297e-05
3.56654e-05
5.02575e-05
6.24493e-05
7.20678e-05
7.97958e-05
8.37732e-05
8.38881e-05
8.28461e-05
8.01857e-05
7.39942e-05
6.50981e-05
5.56335e-05
4.57108e-05
3.74709e-05
3.12339e-05
2.83685e-05
2.857e-05
3.01114e-05
3.5584e-05
4.92216e-05
7.60947e-05
0.000123698
0.000185222
0.000199869
0.000197301
0.000187083
0.000159682
0.000134572
0.000121281
0.000114614
0.000112488
0.0001112
0.000108667
0.00010671
0.000107142
0.00011418
0.000119409
0.000121005
0.000121654
0.000119282
0.000110592
0.000101035
9.19631e-05
9.00511e-05
9.1995e-05
0.000110638
0.000159725
0.000179927
0.000183372
0.000182703
0.000175226
0.000146224
0.000116979
9.8957e-05
8.84847e-05
8.45816e-05
8.14422e-05
8.08948e-05
8.02718e-05
7.88361e-05
7.80295e-05
7.71035e-05
7.70758e-05
7.69144e-05
7.70913e-05
7.75448e-05
7.85472e-05
8.16939e-05
8.56577e-05
8.80404e-05
8.75741e-05
8.65608e-05
8.54261e-05
8.47928e-05
8.45975e-05
8.4515e-05
8.4553e-05
8.45593e-05
8.44431e-05
8.4192e-05
8.34892e-05
8.31948e-05
8.24026e-05
8.18906e-05
8.16428e-05
8.16548e-05
8.16591e-05
8.2186e-05
8.36132e-05
8.36401e-05
8.37528e-05
8.3251e-05
8.17596e-05
7.83482e-05
7.29191e-05
6.75513e-05
6.18089e-05
5.5005e-05
4.98505e-05
4.66957e-05
4.67631e-05
4.79105e-05
4.84888e-05
4.48187e-05
4.31552e-05
4.53315e-05
7.23349e-05
9.82435e-05
0.000106657
0.000101174
9.3599e-05
9.21331e-05
9.50944e-05
0.000110163
0.000107027
0.000108331
9.39335e-05
7.97667e-05
6.4695e-05
5.96284e-05
5.43622e-05
5.63801e-05
5.53551e-05
6.21497e-05
5.6894e-05
6.01092e-05
6.02749e-05
6.02992e-05
7.74894e-05
7.11092e-05
7.62484e-05
8.60416e-05
8.62728e-05
9.10728e-05
8.85531e-05
8.01323e-05
7.25974e-05
6.91364e-05
6.61097e-05
6.51717e-05
6.30712e-05
6.25059e-05
5.97907e-05
5.81347e-05
5.74314e-05
5.8148e-05
5.93703e-05
6.14101e-05
6.15922e-05
6.12831e-05
5.94414e-05
5.84856e-05
5.90432e-05
6.55755e-05
7.21353e-05
8.25188e-05
2.73667e-06
2.74508e-06
2.75957e-06
2.82907e-06
2.85161e-06
3.03265e-06
3.32037e-06
3.46059e-06
3.48804e-06
3.45538e-06
3.28932e-06
3.20364e-06
3.19706e-06
3.40794e-06
3.53609e-06
3.65106e-06
3.74447e-06
4.19514e-06
4.55544e-06
4.70596e-06
4.75663e-06
4.88065e-06
5.35093e-06
6.12224e-06
8.50826e-06
1.01708e-05
1.06611e-05
1.16071e-05
1.29619e-05
1.63894e-05
1.96767e-05
2.04202e-05
2.035e-05
1.95443e-05
1.86868e-05
1.82976e-05
1.78344e-05
1.71756e-05
1.60497e-05
1.47774e-05
1.39382e-05
1.38854e-05
1.4244e-05
1.56285e-05
1.89733e-05
2.53321e-05
3.35424e-05
3.90583e-05
4.53904e-05
4.87953e-05
4.88388e-05
4.791e-05
4.55145e-05
4.09974e-05
3.57673e-05
3.09425e-05
2.66756e-05
2.48947e-05
2.50637e-05
2.61854e-05
2.96756e-05
3.82123e-05
5.46927e-05
8.26199e-05
0.000129283
0.000197206
0.000211374
0.000206748
0.000188769
0.000151503
0.000130175
0.000120427
0.000115511
0.000112787
0.000111823
0.000110956
0.00010834
0.000103816
0.00010243
0.000105056
0.000112288
0.000116471
0.000117836
0.000116021
0.000109395
9.89152e-05
9.11084e-05
9.04592e-05
9.51172e-05
0.000131809
0.000167534
0.000177621
0.000182642
0.000186996
0.000182372
0.000154891
0.000120624
9.89789e-05
8.85297e-05
8.49056e-05
8.2838e-05
8.28686e-05
8.24773e-05
8.14445e-05
7.98638e-05
7.91125e-05
7.85051e-05
7.83119e-05
7.81101e-05
7.83029e-05
7.89214e-05
8.10453e-05
8.31359e-05
8.63861e-05
8.74603e-05
8.72287e-05
8.65474e-05
8.52539e-05
8.49539e-05
8.45641e-05
8.45323e-05
8.4113e-05
8.39202e-05
8.3589e-05
8.33078e-05
8.31794e-05
8.26032e-05
8.26313e-05
8.27193e-05
8.33173e-05
8.3909e-05
8.63543e-05
8.66888e-05
8.62194e-05
8.57977e-05
8.4277e-05
8.20452e-05
7.66635e-05
7.01554e-05
6.34251e-05
5.75603e-05
5.23938e-05
4.91365e-05
4.79472e-05
4.92583e-05
5.04803e-05
4.99236e-05
4.51137e-05
4.50498e-05
5.22773e-05
9.17914e-05
0.000105223
0.000108256
9.7147e-05
9.31406e-05
8.91894e-05
9.17722e-05
0.00010059
0.000104913
0.000109792
0.000104678
9.38856e-05
8.3687e-05
7.73236e-05
6.34629e-05
7.0323e-05
5.78032e-05
6.56306e-05
6.52557e-05
6.4462e-05
9.00186e-05
7.15907e-05
8.31524e-05
7.90578e-05
8.31074e-05
9.87601e-05
9.78307e-05
9.4608e-05
8.63286e-05
7.79228e-05
7.2563e-05
6.96733e-05
6.63521e-05
6.49326e-05
6.38e-05
6.3407e-05
6.01415e-05
5.8284e-05
5.82418e-05
5.84084e-05
5.87528e-05
5.9661e-05
6.0864e-05
6.08962e-05
6.02866e-05
5.8502e-05
5.81838e-05
5.91211e-05
6.25413e-05
6.99504e-05
2.41046e-06
2.43708e-06
2.49261e-06
2.60142e-06
2.69778e-06
2.78419e-06
2.80404e-06
2.81416e-06
2.82745e-06
2.85389e-06
2.92098e-06
2.95726e-06
3.00254e-06
3.07999e-06
3.18639e-06
3.40607e-06
3.66516e-06
4.17381e-06
4.72865e-06
5.75195e-06
6.97507e-06
8.45664e-06
1.10357e-05
1.30147e-05
1.53387e-05
1.70244e-05
1.89144e-05
2.2289e-05
2.5998e-05
2.88277e-05
2.95855e-05
2.99147e-05
2.99342e-05
2.9715e-05
2.90629e-05
2.81254e-05
2.64904e-05
2.38322e-05
2.07625e-05
1.77728e-05
1.56377e-05
1.45836e-05
1.44772e-05
1.46147e-05
1.51404e-05
1.63242e-05
1.90453e-05
2.07107e-05
2.34953e-05
2.52383e-05
2.52484e-05