/*--------------------------------*- C++ -*----------------------------------*\
| =========                 |                                                 |
| \\      /  F ield         | OpenFOAM: The Open Source CFD Toolbox           |
|  \\    /   O peration     | Version:  2.4.0                                 |
|   \\  /    A nd           | Web:      www.OpenFOAM.org                      |
|    \\/     M anipulation  |                                                 |
\*---------------------------------------------------------------------------*/
FoamFile
{
    version     2.0;
    format      ascii;
    class       volScalarField;
    location    "1.9";
    object      nuSgs;
}
// * * * * * * * * * * * * * * * * * * * * * * * * * * * * * * * * * * * * * //

dimensions      [0 2 -1 0 0 0 0];

internalField   nonuniform List<scalar> 
8800
(
0.00133831
0.00150698
0.00139277
0.0012296
0.00111993
0.00105209
0.000995307
0.000961863
0.000924509
0.000906031
0.000878067
0.000869391
0.000846703
0.000841334
0.000821915
0.000817774
0.000800687
0.000795219
0.000789225
0.00076663
0.000553742
0.000982118
0.00108297
0.00108156
0.00106211
0.001036
0.000999788
0.000979161
0.000947982
0.000932417
0.000906371
0.000896855
0.000875572
0.000868798
0.000852822
0.000846942
0.00083367
0.000827642
0.00081615
0.000814934
0.000135538
0.000406095
0.000583658
0.000659739
0.000703342
0.000738815
0.000750468
0.000760834
0.000759836
0.00075935
0.000754777
0.000751516
0.000745193
0.000740703
0.000735998
0.000730111
0.000727574
0.000721571
0.000714383
0.000711761
2.69006e-05
0.000125439
0.000231712
0.000312353
0.000354981
0.000395672
0.000429604
0.000453621
0.000474745
0.000491779
0.000508444
0.000515197
0.00052971
0.000534837
0.000545515
0.00054801
0.000557097
0.000558018
0.000560024
0.000558789
5.12107e-06
3.34573e-05
6.80747e-05
0.000110762
0.000141244
0.000159524
0.00019299
0.000210408
0.000233317
0.000248207
0.000269227
0.000277746
0.00029605
0.000304576
0.000321457
0.00032816
0.000343751
0.000350303
0.000361066
0.000365695
2.39786e-06
8.48238e-06
1.76797e-05
3.04261e-05
4.28626e-05
4.99091e-05
6.41765e-05
7.33547e-05
8.61506e-05
9.57004e-05
0.000110144
0.00011634
0.000126649
0.000136816
0.000146097
0.000153438
0.000162138
0.000173927
0.000179502
0.000188506
2.22418e-06
3.17691e-06
5.13645e-06
8.37615e-06
1.1571e-05
1.32878e-05
1.5907e-05
2.06637e-05
2.32828e-05
2.85054e-05
3.16052e-05
3.72091e-05
4.00819e-05
4.61042e-05
4.90679e-05
5.49868e-05
5.78767e-05
6.5358e-05
6.84648e-05
7.66169e-05
2.15611e-06
2.6258e-06
3.17842e-06
4.02199e-06
4.69034e-06
5.24559e-06
5.48689e-06
6.21682e-06
6.50791e-06
7.68125e-06
8.29238e-06
1.00004e-05
1.05498e-05
1.23329e-05
1.30142e-05
1.51665e-05
1.58312e-05
1.87951e-05
1.99104e-05
2.44924e-05
2.1428e-06
2.52405e-06
3.15365e-06
3.55878e-06
3.63043e-06
3.87448e-06
4.15496e-06
4.36244e-06
4.3415e-06
4.34853e-06
4.3667e-06
4.49981e-06
4.54855e-06
4.80025e-06
4.96387e-06
5.46224e-06
5.55823e-06
5.90472e-06
5.98061e-06
6.95454e-06
2.13534e-06
2.54103e-06
2.87172e-06
3.38435e-06
3.78936e-06
3.86533e-06
3.83427e-06
3.83473e-06
3.86632e-06
3.98516e-06
4.04925e-06
4.07617e-06
4.05917e-06
4.05611e-06
4.07429e-06
4.1628e-06
4.18894e-06
4.22085e-06
4.23247e-06
4.29145e-06
2.13017e-06
2.51985e-06
2.93959e-06
3.59015e-06
3.73761e-06
3.70529e-06
3.68674e-06
3.84341e-06
3.98547e-06
4.06929e-06
4.08716e-06
4.10561e-06
4.04858e-06
4.00675e-06
4.01681e-06
4.05153e-06
4.15921e-06
4.35613e-06
4.36037e-06
4.37727e-06
2.14247e-06
2.57878e-06
2.90339e-06
3.58217e-06
3.95156e-06
3.96539e-06
3.95948e-06
4.04556e-06
4.2374e-06
4.40184e-06
4.52438e-06
4.58888e-06
4.57553e-06
4.64306e-06
4.80123e-06
5.13304e-06
5.46058e-06
5.86015e-06
6.167e-06
6.40013e-06
2.15505e-06
2.58578e-06
3.15385e-06
4.18379e-06
4.44154e-06
4.9345e-06
5.34667e-06
6.43365e-06
6.99135e-06
7.99598e-06
8.53564e-06
9.79015e-06
1.03418e-05
1.18282e-05
1.29166e-05
1.51266e-05
1.63064e-05
1.88393e-05
2.09856e-05
2.28339e-05
2.18561e-06
3.09599e-06
5.18806e-06
8.296e-06
1.01839e-05
1.40852e-05
1.65557e-05
2.17466e-05
2.44862e-05
2.94663e-05
3.19504e-05
3.7494e-05
4.00205e-05
4.58511e-05
4.91935e-05
5.60805e-05
5.96425e-05
6.75638e-05
7.18397e-05
8.01691e-05
2.34773e-06
8.23861e-06
1.84266e-05
3.00376e-05
3.86233e-05
5.45298e-05
6.25196e-05
7.78907e-05
8.5551e-05
9.94432e-05
0.000105891
0.000119532
0.000125304
0.000138013
0.000144273
0.000157631
0.000164032
0.00017885
0.000186222
0.000204369
5.22482e-06
3.2942e-05
7.38293e-05
0.000104864
0.000136381
0.000170795
0.000186805
0.000215275
0.000231142
0.000252243
0.000262504
0.00028337
0.000291578
0.000309093
0.00031702
0.000334501
0.000342242
0.000360757
0.000368978
0.000389531
2.72913e-05
0.000124023
0.000240428
0.000301114
0.000360552
0.000395794
0.00042749
0.000454178
0.000476698
0.000491136
0.000505081
0.000519255
0.000526193
0.000537567
0.000542535
0.000552701
0.000556677
0.000566659
0.000570515
0.000580109
0.000136791
0.00040125
0.000588293
0.000653296
0.000711179
0.000732587
0.000754641
0.000757642
0.000761765
0.000757329
0.000755979
0.000749368
0.000746913
0.000739254
0.000737229
0.000731072
0.00072948
0.000725124
0.000723399
0.000719333
0.000557666
0.000980078
0.001084
0.00108056
0.00106491
0.00102921
0.00100735
0.00097128
0.000955172
0.000924778
0.000913675
0.000888679
0.000881949
0.000862463
0.000857599
0.000840927
0.000837133
0.000821329
0.000816139
0.000802506
0.00133944
0.00150555
0.00139371
0.00122726
0.00112347
0.00104635
0.00100192
0.000954656
0.000931358
0.000897936
0.000886354
0.000859737
0.000854165
0.000832182
0.000828283
0.000806221
0.000801954
0.000777387
0.000768543
0.000737092
0.000350943
0.000294234
0.000257065
0.000233111
0.000219989
0.000212458
0.000207736
0.000204375
0.000201546
0.000198939
0.000196626
0.000194388
0.000192129
0.000189946
0.000187797
0.000186516
0.000184962
0.000184603
0.000183724
0.000183608
0.00018299
0.000182768
0.000181952
0.000181306
0.00017977
0.000178674
0.000177079
0.00017607
0.000175007
0.000174367
0.000173478
0.000173144
0.000172624
0.000172704
0.000173088
0.00017386
0.000175347
0.000177118
0.00017911
0.000181663
0.000186604
0.000193541
0.000195216
0.000193811
0.000187977
0.000168678
0.000143126
0.000124297
0.000110359
0.000100132
9.27759e-05
8.60058e-05
8.12548e-05
7.6995e-05
7.43847e-05
7.21319e-05
7.04058e-05
6.88264e-05
6.79808e-05
6.66119e-05
6.60645e-05
6.58612e-05
6.6136e-05
6.68697e-05
6.94491e-05
7.17258e-05
7.6751e-05
7.91817e-05
8.37944e-05
8.58816e-05
8.93059e-05
9.02563e-05
9.25274e-05
9.34743e-05
9.56266e-05
9.75079e-05
9.93819e-05
0.000103584
0.000106171
0.000110334
0.000114592
0.000118064
0.000122911
0.000125889
0.000127873
0.000129514
0.000129718
0.000129538
0.000129288
0.000128411
0.000127886
0.000126585
0.000124847
0.000120513
0.000117758
0.000111651
0.000108733
0.000103915
0.000102879
0.000101321
0.000101569
0.000101828
0.000102783
0.000103504
0.000104722
0.000105885
0.000106104
0.000105923
0.000105368
0.000104236
0.000102014
9.96031e-05
9.50733e-05
9.03177e-05
8.28491e-05
7.55816e-05
6.45844e-05
5.42666e-05
4.49422e-05
3.71116e-05
3.05506e-05
2.57987e-05
2.20215e-05
1.98356e-05
1.84572e-05
1.8212e-05
1.84262e-05
1.93223e-05
2.21279e-05
2.84681e-05
3.98938e-05
5.69771e-05
8.33202e-05
0.00010738
0.00013958
0.000156573
0.000161912
0.000162435
0.000163031
0.000162127
0.000160318
0.000156158
0.000151968
0.000143336
0.000139125
0.000135606
0.000132991
0.000133451
0.000134331
0.000136188
0.000137963
0.000140255
0.000140475
0.000140785
0.000138382
0.000136047
0.00013047
0.00012376
0.000113708
0.000101904
8.86423e-05
7.54843e-05
6.51181e-05
5.95963e-05
5.51516e-05
5.25753e-05
5.03806e-05
4.70448e-05
4.33953e-05
3.81553e-05
3.44911e-05
3.26607e-05
3.19368e-05
3.11201e-05
3.10398e-05
3.08916e-05
3.12235e-05
3.24452e-05
3.40085e-05
3.42027e-05
3.45688e-05
3.55645e-05
3.86513e-05
5.19835e-05
8.43256e-05
9.7625e-05
0.00010314
0.000105989
0.000106957
0.00010285
8.76741e-05
7.8723e-05
7.65174e-05
7.20183e-05
6.47935e-05
6.51911e-05
6.90432e-05
8.07164e-05
0.000110295
0.000215985
0.000412365
0.000374551
0.000342537
0.000317348
0.000296704
0.000280768
0.000268277
0.000259077
0.000251082
0.000244987
0.000238828
0.000234205
0.000229368
0.000225849
0.000221852
0.000219066
0.000215736
0.000213616
0.000210864
0.000209391
0.000207279
0.000206113
0.000204544
0.000203373
0.000202129
0.000200645
0.000199418
0.000197811
0.000196756
0.000195275
0.000194063
0.000192604
0.000191237
0.000189523
0.000188309
0.000186294
0.000185605
0.000184244
0.000184284
0.000184633
0.000185532
0.000186707
0.000190146
0.000191913
0.000195994
0.000195677
0.000192654
0.000184351
0.000171236
0.000156498
0.000143098
0.000132498
0.000120648
0.000111357
0.000104508
9.85298e-05
9.37836e-05
9.06556e-05
8.81285e-05
8.56512e-05
8.54972e-05
8.5952e-05
8.76337e-05
9.02194e-05
9.61249e-05
0.0001002
0.00010851
0.000111972
0.000119192
0.000121527
0.000126311
0.000127792
0.000130701
0.000132139
0.00013391
0.000134758
0.000136218
0.0001365
0.000137246
0.000137153
0.000136925
0.000136412
0.000135442
0.000134963
0.000133657
0.000132399
0.000130997
0.00012817
0.000124985
0.000122461
0.000115814
0.000112025
0.000104358
9.75505e-05
8.88422e-05
8.33716e-05
7.63065e-05
7.23272e-05
6.77245e-05
6.5277e-05
6.23298e-05
6.21907e-05
6.21601e-05
6.25748e-05
6.35892e-05
6.46053e-05
6.53481e-05
6.53538e-05
6.49847e-05
6.40153e-05
6.20136e-05
5.89334e-05
5.50699e-05
5.02968e-05
4.53719e-05
4.00086e-05
3.51419e-05
3.05012e-05
2.65977e-05
2.33302e-05
2.06242e-05
1.87734e-05
1.74624e-05
1.70435e-05
1.71711e-05
1.76648e-05
1.92389e-05
2.33206e-05
3.12969e-05
4.47419e-05
6.57369e-05
9.42354e-05
0.000124459
0.000146906
0.00016006
0.000164669
0.000163569
0.000159856
0.000154316
0.000148435
0.000137748
0.000125161
0.000114911
0.000107004
0.00010423
0.000100987
9.98539e-05
9.83265e-05
9.88466e-05
0.000100162
0.000103061
0.000108011
0.000114341
0.000122657
0.000127699
0.000129081
0.000128713
0.000125363
0.00012139
0.00011499
0.000104546
9.31274e-05
7.91769e-05
6.75695e-05
6.00471e-05
5.57105e-05
5.23527e-05
5.08597e-05
4.85223e-05
4.48066e-05
3.84162e-05
3.56576e-05
3.49816e-05
3.43196e-05
3.23641e-05
3.13709e-05
3.11581e-05
3.19478e-05
3.20339e-05
3.14667e-05
3.14324e-05
3.20928e-05
3.65576e-05
5.79677e-05
8.61839e-05
9.78753e-05
0.000102462
0.000101838
0.000101035
9.32279e-05
8.09964e-05
7.68179e-05
7.6332e-05
7.38738e-05
6.60077e-05
6.4709e-05
6.78606e-05
7.2638e-05
9.33883e-05
0.000163327
0.00037121
0.000350257
0.000330299
0.000312543
0.000296669
0.000283037
0.000271278
0.000262215
0.000253988
0.000247577
0.000241492
0.000236019
0.000231029
0.0002262
0.00022219
0.000218285
0.000215238
0.000212095
0.000209612
0.000206943
0.000204653
0.000202521
0.000200238
0.000198692
0.000196698
0.000195475
0.000193816
0.000192613
0.000191172
0.000189741
0.000188399
0.000186662
0.000185142
0.000183267
0.000181385
0.000179722
0.000177524
0.000176484
0.000174943
0.000174367
0.00017453
0.000175065
0.000176234
0.000178965
0.000180627
0.000184578
0.000186074
0.000185707
0.000183932
0.000181772
0.000176541
0.000173904
0.00016881
0.000165031
0.00015988
0.000155868
0.000150472
0.000146583
0.000143344
0.000140589
0.000137882
0.00013741
0.000137395
0.000137793
0.000139079
0.000140197
0.000142656
0.000143506
0.000145409
0.000145898
0.000147035
0.000147417
0.00014743
0.000147336
0.000147024
0.000146251
0.000145485
0.000144055
0.000142596
0.000140901
0.000138391
0.000136536
0.00013256
0.000129893
0.00012488
0.000120294
0.000114264
0.000107061
9.89107e-05
9.03479e-05
8.14626e-05
7.23273e-05
6.3936e-05
5.66872e-05
5.11276e-05
4.61074e-05
4.26611e-05
3.94643e-05
3.73125e-05
3.55841e-05
3.43349e-05
3.32586e-05
3.31048e-05
3.29569e-05
3.31745e-05
3.3315e-05
3.36527e-05
3.36578e-05
3.35352e-05
3.31753e-05
3.24004e-05
3.11939e-05
2.95838e-05
2.76138e-05
2.56913e-05
2.35939e-05
2.17809e-05
1.99678e-05
1.84429e-05
1.71453e-05
1.61938e-05
1.57634e-05
1.59196e-05
1.63091e-05
1.73477e-05
1.99756e-05
2.54319e-05
3.52393e-05
5.04317e-05
7.37059e-05
0.000108679
0.000137375
0.000150868
0.000160319
0.00016506
0.000161967
0.000148608
0.000137772
0.000128676
0.000115003
0.000106265
0.00010154
9.90847e-05
9.5943e-05
9.42714e-05
9.21399e-05
9.00522e-05
8.84436e-05
8.8232e-05
8.76189e-05
8.74624e-05
8.75688e-05
8.91615e-05
9.27546e-05
0.000101526
0.000108873
0.000119691
0.000120796
0.000120108
0.000117223
0.000112827
0.000103669
9.35461e-05
8.04163e-05
6.95738e-05
6.18147e-05
5.68134e-05
5.27265e-05
5.08834e-05
4.77837e-05
4.21026e-05
3.84019e-05
3.66213e-05
3.55631e-05
3.3466e-05
3.15336e-05
3.12107e-05
3.21971e-05
3.24396e-05
3.17227e-05
3.13512e-05
3.17186e-05
3.62122e-05
5.95238e-05
8.58987e-05
9.68151e-05
0.000100975
9.99431e-05
9.53557e-05
8.53275e-05
7.73946e-05
7.49902e-05
7.58716e-05
7.41432e-05
6.88741e-05
6.34972e-05
6.6268e-05
6.71357e-05
7.59604e-05
0.000123625
0.000296632
0.000285742
0.000275553
0.000265554
0.000255766
0.000246477
0.000237094
0.000229043
0.000222355
0.00021652
0.000212466
0.000208025
0.000204147
0.000200075
0.000195759
0.000191878
0.000188663
0.000185161
0.000183243
0.000180698
0.00017833
0.000176962
0.000173661
0.000172178
0.000169588
0.000167773
0.000166019
0.000164422
0.000163309
0.000162026
0.000160245
0.000159257
0.000157056
0.000155321
0.000153313
0.000151413
0.000149054
0.000147751
0.000145895
0.000144694
0.000144281
0.000144618
0.000145413
0.000147869
0.000149743
0.000153685
0.000156518
0.000161462
0.000163164
0.000166458
0.000166458
0.000166341
0.000165816
0.00016454
0.000163349
0.000162425
0.000160539
0.000159747
0.00015802
0.00015724
0.000155258
0.00015427
0.00015273
0.000151342
0.000150008
0.00014919
0.000148289
0.000147375
0.000146132
0.000145464
0.000143819
0.000142836
0.000140657
0.000138834
0.000136471
0.000134172
0.000130553
0.000127595
0.000123502
0.000118516
0.000113347
0.000107087
0.000100193
9.27118e-05
8.49066e-05
7.59138e-05
6.80279e-05
6.04534e-05
5.35992e-05
4.76042e-05
4.2163e-05
3.75018e-05
3.35317e-05
3.00249e-05
2.72576e-05
2.50095e-05
2.32299e-05
2.19289e-05
2.09252e-05
1.99666e-05
1.93494e-05
1.88024e-05
1.8388e-05
1.80996e-05
1.80467e-05
1.80872e-05
1.81221e-05
1.81729e-05
1.82632e-05
1.8239e-05
1.81708e-05
1.80336e-05
1.77062e-05
1.72943e-05
1.67337e-05
1.62061e-05
1.54874e-05
1.49644e-05
1.44522e-05
1.43753e-05
1.45402e-05
1.49156e-05
1.58451e-05
1.78917e-05
2.18408e-05
2.86254e-05
3.98767e-05
5.75062e-05
8.30333e-05
0.000122176
0.000145854
0.000153782
0.000158305
0.000162944
0.000155813
0.000133734
0.000124021
0.000118077
0.000105007
9.99991e-05
9.93559e-05
9.85225e-05
9.70074e-05
9.37376e-05
9.21957e-05
8.9261e-05
8.79188e-05
8.72556e-05
8.72454e-05
8.64799e-05
8.57222e-05
8.40958e-05
8.27397e-05
8.26939e-05
8.42012e-05
8.86046e-05
9.88671e-05
0.00010857
0.000114679
0.000114706
0.000112805
0.000108206
0.000101752
9.11227e-05
7.89594e-05
6.79995e-05
6.12838e-05
5.73118e-05
5.41654e-05
5.11991e-05
4.57148e-05
4.09342e-05
3.82152e-05
3.78918e-05
3.73969e-05
3.46942e-05
3.30087e-05
3.31234e-05
3.30945e-05
3.16367e-05
3.10518e-05
3.15321e-05
3.67439e-05
6.01407e-05
8.22648e-05
9.35791e-05
9.80918e-05
9.75278e-05
9.20937e-05
8.08563e-05
7.66428e-05
7.47191e-05
7.60323e-05
7.45228e-05
7.03294e-05
6.3508e-05
6.43568e-05
6.21809e-05
6.43927e-05
9.44202e-05
0.000196708
0.000192194
0.000188389
0.000184345
0.00018073
0.000176251
0.000171832
0.000165598
0.000161176
0.000156122
0.00015265
0.00015106
0.00014848
0.000147337
0.000145237
0.000141939
0.000139669
0.00013561
0.00013391
0.000131638
0.000130391
0.000129786
0.000128108
0.00012722
0.000125225
0.000122779
0.000121169
0.000118754
0.000117678
0.000116029
0.000115256
0.000113886
0.000112996
0.000111047
0.000109655
0.00010814
0.000106253
0.000105187
0.000104037
0.00010317
0.000101367
0.000100762
0.000100908
0.000101615
0.000103076
0.000106591
0.000110096
0.00011539
0.000119865
0.000122589
0.000126832
0.000128762
0.000131209
0.000133357
0.000134359
0.000135704
0.000136392
0.000136366
0.000136111
0.000135387
0.000134653
0.000133142
0.000131877
0.000129867
0.000128247
0.000125253
0.000123614
0.000120362
0.000117419
0.000114738
0.000110846
0.000107403
0.000104047
9.9369e-05
9.55562e-05
9.06614e-05
8.5891e-05
8.0439e-05
7.551e-05
6.9726e-05
6.4882e-05
5.9386e-05
5.43857e-05
4.93235e-05
4.45642e-05
3.99217e-05
3.56651e-05
3.16587e-05
2.80854e-05
2.48801e-05
2.22099e-05
1.98797e-05
1.80671e-05
1.65791e-05
1.54519e-05
1.4673e-05
1.40348e-05
1.35804e-05
1.32748e-05
1.28898e-05
1.26751e-05
1.24388e-05
1.22872e-05
1.20899e-05
1.20482e-05
1.20348e-05
1.20865e-05
1.21487e-05
1.23206e-05
1.24063e-05
1.26152e-05
1.27247e-05
1.27073e-05
1.27133e-05
1.26738e-05
1.26488e-05
1.26365e-05
1.27512e-05
1.31366e-05
1.36494e-05
1.45716e-05
1.64873e-05
2.01449e-05
2.53353e-05
3.3068e-05
4.52334e-05
6.49147e-05
9.38491e-05
0.000135804
0.000151509
0.000157011
0.000157344
0.000155779
0.000144859
0.000117483
0.000115805
0.000114915
0.000107184
9.868e-05
9.84361e-05
9.95464e-05
9.92552e-05
9.65593e-05
9.31381e-05
9.12904e-05
8.79282e-05
8.80834e-05
8.94286e-05
8.92502e-05
8.8262e-05
8.63219e-05
8.39374e-05
8.32648e-05
8.08281e-05
7.94497e-05
8.0366e-05
8.38085e-05
9.2267e-05
0.000101121
0.000108259
0.000108681
0.000107234
0.000102505
9.69689e-05
8.66692e-05
7.5301e-05
6.47898e-05
5.902e-05
5.59573e-05
5.50672e-05
5.29307e-05
4.7066e-05
4.28395e-05
4.11461e-05
3.98797e-05
3.64073e-05
3.55992e-05
3.52098e-05
3.38882e-05
3.09384e-05
2.99061e-05
3.0592e-05
3.72312e-05
5.89588e-05
7.78519e-05
8.52667e-05
9.32242e-05
9.32321e-05
9.02045e-05
7.9154e-05
7.55413e-05
7.47949e-05
7.62361e-05
7.51876e-05
7.16955e-05
6.42306e-05
6.34447e-05
5.98143e-05
5.94764e-05
7.62251e-05
0.000102135
0.000100574
9.8984e-05
9.75864e-05
9.70563e-05
9.61658e-05
9.54788e-05
9.29714e-05
9.07124e-05
8.7821e-05
8.51397e-05
8.43748e-05
8.3002e-05
8.28956e-05
8.27553e-05
8.21687e-05
8.14997e-05
7.86522e-05
7.74552e-05
7.55338e-05
7.44963e-05
7.42119e-05
7.36366e-05
7.36091e-05
7.34545e-05
7.25882e-05
7.13944e-05
6.93628e-05
6.80964e-05
6.68709e-05
6.60847e-05
6.5263e-05
6.49055e-05
6.3961e-05
6.33956e-05
6.23723e-05
6.14178e-05
6.07922e-05
6.01412e-05
6.01981e-05
6.02748e-05
5.96452e-05
5.91076e-05
5.91846e-05
5.96428e-05
6.07167e-05
6.31974e-05
6.57815e-05
7.15984e-05
7.47516e-05
7.94175e-05
8.17925e-05
8.37693e-05
8.57586e-05
8.62007e-05
8.68418e-05
8.6915e-05
8.67943e-05
8.6581e-05
8.61777e-05
8.57004e-05
8.46777e-05
8.37938e-05
8.19835e-05
8.07311e-05
7.79883e-05
7.61653e-05
7.33706e-05
7.06443e-05
6.78818e-05
6.47918e-05
6.16584e-05
5.8646e-05
5.52772e-05
5.21453e-05
4.89853e-05
4.58041e-05
4.28299e-05
3.98304e-05
3.69258e-05
3.41034e-05
3.13355e-05
2.86069e-05
2.60417e-05
2.34925e-05
2.1129e-05
1.88716e-05
1.68838e-05
1.5043e-05
1.35814e-05
1.24506e-05
1.16616e-05
1.12404e-05
1.09643e-05
1.09487e-05
1.09188e-05
1.09165e-05
1.08894e-05
1.08547e-05
1.07985e-05
1.07521e-05
1.06975e-05
1.06478e-05
1.05402e-05
1.04955e-05
1.03793e-05
1.03592e-05
1.03746e-05
1.04201e-05
1.05543e-05
1.06362e-05
1.08332e-05
1.0962e-05
1.10807e-05
1.13643e-05
1.16191e-05
1.20352e-05
1.25748e-05
1.39984e-05
1.60613e-05
1.9078e-05
2.39423e-05
3.08785e-05
3.90495e-05
5.16332e-05
7.2271e-05
0.000106332
0.000145217
0.000157602
0.000159619
0.000156512
0.00014415
0.000118347
0.000102036
0.000103202
0.000112456
0.000109831
0.000100833
9.94907e-05
9.99572e-05
0.000103106
0.000100315
9.56665e-05
9.30443e-05
8.85858e-05
8.75504e-05
8.96467e-05
9.32144e-05
9.30303e-05
9.12682e-05
8.68971e-05
8.47966e-05
8.38787e-05
8.26546e-05
7.99947e-05
8.01933e-05
8.11038e-05
8.63493e-05
9.10617e-05
0.000102439
0.000103803
0.000103815
0.000101717
9.68228e-05
8.99547e-05
8.12121e-05
7.15124e-05
6.19233e-05
5.66988e-05
5.4346e-05
5.40052e-05
5.23035e-05
4.90027e-05
4.36359e-05
4.14276e-05
3.70937e-05
3.60152e-05
3.54348e-05
3.33857e-05
3.07476e-05
2.97013e-05
3.0281e-05
3.78295e-05
5.61545e-05
7.52835e-05
7.93731e-05
8.61104e-05
8.63094e-05
8.46864e-05
7.6233e-05
7.3035e-05
7.35781e-05
7.63818e-05
7.6289e-05
7.43225e-05
6.71421e-05
6.41242e-05
5.9967e-05
5.83043e-05
6.55505e-05
4.15595e-05
4.07938e-05
3.97395e-05
3.94876e-05
3.95815e-05
3.99481e-05
4.031e-05
4.02177e-05
3.95077e-05
3.79585e-05
3.65038e-05
3.58914e-05
3.55034e-05
3.57166e-05
3.61665e-05
3.64925e-05
3.66683e-05
3.60986e-05
3.51342e-05
3.39177e-05
3.33655e-05
3.3325e-05
3.33632e-05
3.3853e-05
3.40563e-05
3.41038e-05
3.37728e-05
3.26354e-05
3.16041e-05
3.10068e-05
3.06703e-05
3.05097e-05
3.0486e-05
3.03778e-05
3.03429e-05
3.00042e-05
2.94224e-05
2.9183e-05
2.91059e-05
2.9249e-05
2.9691e-05
3.05217e-05
3.06733e-05
3.0558e-05
3.0601e-05
3.07673e-05
3.1469e-05
3.24692e-05
3.47772e-05
3.75851e-05
4.17114e-05
4.50029e-05
4.70844e-05
4.9012e-05
4.99007e-05
5.01106e-05
4.99682e-05
4.96012e-05
4.87445e-05
4.79747e-05
4.70534e-05
4.64884e-05
4.57247e-05
4.49223e-05
4.4348e-05
4.31468e-05
4.22623e-05
4.09192e-05
3.94587e-05
3.77994e-05
3.60191e-05
3.38886e-05
3.19943e-05
2.97178e-05
2.77674e-05
2.56886e-05
2.38854e-05
2.20801e-05
2.05444e-05
1.88874e-05
1.76211e-05
1.61121e-05
1.49045e-05
1.36284e-05
1.24973e-05
1.1344e-05
1.04695e-05
9.77369e-06
9.1357e-06
8.97519e-06
9.03536e-06
9.23684e-06
9.6258e-06
9.98562e-06
1.0451e-05
1.07611e-05
1.09484e-05
1.1129e-05
1.12046e-05
1.12013e-05
1.11499e-05
1.1172e-05
1.11578e-05
1.11193e-05
1.10798e-05
1.09937e-05
1.09385e-05
1.09008e-05
1.08368e-05
1.08395e-05
1.08898e-05
1.10044e-05
1.128e-05
1.16433e-05
1.22132e-05
1.32762e-05
1.46287e-05
1.65661e-05
2.00106e-05
2.42373e-05
2.91888e-05
3.65284e-05
4.61488e-05
5.90804e-05
8.0568e-05
0.000117541
0.000155773
0.000164517
0.000162904
0.000153986
0.000123468
9.87309e-05
8.9565e-05
9.10632e-05
0.000104169
0.000114664
0.000105597
0.000101974
0.000103607
0.000105863
0.000104584
0.00010013
9.60189e-05
9.23046e-05
8.81562e-05
9.04768e-05
9.39357e-05
9.94939e-05
9.65477e-05
9.39098e-05
8.92632e-05
8.69419e-05
8.23552e-05
8.21511e-05
7.94059e-05
8.18603e-05
8.18618e-05
8.6806e-05
8.7855e-05
9.48906e-05
9.97513e-05
0.000101078
9.98872e-05
9.54306e-05
9.00148e-05
8.15739e-05
7.4649e-05
6.79722e-05
6.00849e-05
5.52924e-05
5.39437e-05
5.26516e-05
4.98848e-05
4.49004e-05
4.09402e-05
3.73467e-05
3.56369e-05
3.55522e-05
3.39286e-05
3.14204e-05
3.02582e-05
3.06923e-05
3.73823e-05
5.37442e-05
7.0753e-05
7.49048e-05
7.73681e-05
7.88365e-05
7.60972e-05
7.11278e-05
6.92587e-05
7.0241e-05
7.44974e-05
7.79218e-05
7.77296e-05
7.40024e-05
6.97324e-05
6.30188e-05
6.05345e-05
6.3364e-05
1.34174e-05
1.32989e-05
1.32045e-05
1.32138e-05
1.33066e-05
1.35668e-05
1.37703e-05
1.37893e-05
1.34913e-05
1.29769e-05
1.2557e-05
1.24083e-05
1.23871e-05
1.26109e-05
1.29147e-05
1.30429e-05
1.30848e-05
1.27799e-05
1.23574e-05
1.19964e-05
1.18737e-05
1.19033e-05
1.20812e-05
1.23394e-05
1.24126e-05
1.23893e-05
1.20343e-05
1.16113e-05
1.13108e-05
1.12268e-05
1.12655e-05
1.13838e-05
1.15539e-05
1.15484e-05
1.15183e-05
1.12322e-05
1.09698e-05
1.09209e-05
1.09099e-05
1.12822e-05
1.16615e-05
1.24575e-05
1.2788e-05
1.27932e-05
1.26811e-05
1.26653e-05
1.27909e-05
1.31447e-05
1.37939e-05
1.49357e-05
1.82259e-05
2.1113e-05
2.33752e-05
2.51792e-05
2.6021e-05
2.61626e-05
2.60471e-05
2.55995e-05
2.46848e-05
2.37633e-05
2.27975e-05
2.2247e-05
2.19283e-05
2.17422e-05
2.16163e-05
2.14358e-05
2.11955e-05
2.08738e-05
2.02738e-05
1.96537e-05
1.86224e-05
1.75498e-05
1.62324e-05
1.50218e-05
1.36651e-05
1.26024e-05
1.1499e-05
1.07308e-05
1.0006e-05
9.45765e-06
9.08159e-06
8.65856e-06
8.39459e-06
8.15259e-06
8.00097e-06
7.85732e-06
7.85321e-06
7.92097e-06
8.09853e-06
8.46005e-06
9.26852e-06
1.03843e-05
1.15399e-05
1.27899e-05
1.40225e-05
1.47489e-05
1.53405e-05
1.56399e-05
1.56351e-05
1.54979e-05
1.52452e-05
1.50203e-05
1.49055e-05
1.476e-05
1.46964e-05
1.45879e-05
1.45688e-05
1.45922e-05
1.46225e-05
1.47067e-05
1.48779e-05
1.52687e-05
1.57387e-05
1.67707e-05
1.78712e-05
1.94506e-05
2.27229e-05
2.54652e-05
3.02978e-05
3.67203e-05
4.30054e-05
5.44714e-05
6.77681e-05
8.97361e-05
0.000130446
0.000165474
0.000172443
0.000168305
0.000144767
0.000110537
9.07242e-05
8.25866e-05
8.29035e-05
9.0815e-05
0.000116827
0.000115445
0.000106041
0.000104102
0.00010598
0.000109537
0.000106714
0.000103778
9.83941e-05
9.22794e-05
9.02153e-05
9.4793e-05
9.98635e-05
0.00010121
9.62747e-05
9.42318e-05
9.3412e-05
9.05532e-05
8.18682e-05
8.34376e-05
8.07813e-05
8.33988e-05
8.29116e-05
8.6336e-05
8.81339e-05
9.02996e-05
9.55145e-05
9.6214e-05
9.8182e-05
9.47783e-05
9.07554e-05
8.1665e-05
7.4097e-05
7.0689e-05
6.33418e-05
5.81349e-05
5.58622e-05
5.33983e-05
5.17699e-05
4.77187e-05
4.15566e-05
3.91175e-05
3.68433e-05
3.72928e-05
3.62191e-05
3.34312e-05
3.22223e-05
3.21582e-05
3.56684e-05
5.0566e-05
6.47393e-05
7.16646e-05
7.24595e-05
7.41133e-05
7.10237e-05
6.71957e-05
6.56196e-05
6.64856e-05
7.03234e-05
7.769e-05
8.01594e-05
7.92022e-05
7.68083e-05
7.13794e-05
6.59752e-05
6.49611e-05
3.8067e-06
3.81289e-06
3.84767e-06
3.84694e-06
3.90172e-06
3.98463e-06
4.03977e-06
4.09767e-06
4.13671e-06
4.15767e-06
4.12139e-06
4.05418e-06
4.00276e-06
4.00079e-06
4.01464e-06
4.0192e-06
4.02766e-06
4.02287e-06
3.98573e-06
3.92664e-06
3.89253e-06
3.89056e-06
3.89728e-06
3.90599e-06
3.89894e-06
3.88471e-06
3.85937e-06
3.83668e-06
3.80985e-06
3.79633e-06
3.80149e-06
3.80329e-06
3.82042e-06
3.81203e-06
3.80941e-06
3.79063e-06
3.76684e-06
3.77448e-06
3.77204e-06
3.85739e-06
3.93421e-06
4.19236e-06
4.3411e-06
4.41867e-06
4.4951e-06
4.53159e-06
4.60073e-06
4.76025e-06
5.04596e-06
5.36323e-06
6.64348e-06
8.37493e-06
1.00565e-05
1.1306e-05
1.18676e-05
1.19566e-05
1.18772e-05
1.15246e-05
1.07974e-05
1.00818e-05
9.4341e-06
8.89342e-06
8.67391e-06
8.71695e-06
9.03095e-06
9.26518e-06
9.33556e-06
9.33951e-06
9.30337e-06
9.20941e-06
8.83137e-06
8.24699e-06
7.61784e-06
7.0626e-06
6.48564e-06
6.09347e-06
6.02386e-06
6.04332e-06
6.20912e-06
6.41573e-06
6.76943e-06
6.94763e-06
7.29238e-06
7.53184e-06
7.95697e-06
8.34751e-06
9.07369e-06
1.02221e-05
1.13468e-05
1.32015e-05
1.56555e-05
1.75682e-05
1.98898e-05
2.17892e-05
2.34192e-05
2.44656e-05
2.53366e-05
2.55145e-05
2.54259e-05
2.51319e-05
2.45604e-05
2.40537e-05
2.35011e-05
2.31118e-05
2.26938e-05
2.23708e-05
2.22589e-05
2.19842e-05
2.198e-05
2.20519e-05
2.22823e-05
2.28498e-05
2.35758e-05
2.51258e-05
2.66548e-05
2.95743e-05
3.34287e-05
3.76973e-05
4.49619e-05
5.29677e-05
6.33213e-05
8.13471e-05
0.000102752
0.000142936
0.000174723
0.000180619
0.000172313
0.000134933
0.00010293
8.9514e-05
8.27682e-05
8.05227e-05
8.36824e-05
0.000100511
0.000122631
0.000116139
0.000109551
9.97894e-05
0.000113911
0.000114582
0.000114822
0.00011104
0.000100656
9.36199e-05
9.36935e-05
9.79181e-05
0.000101776
0.000100233
9.32703e-05
9.36069e-05
9.25165e-05
8.44408e-05
8.99665e-05
8.11376e-05
8.12921e-05
8.67893e-05
9.41226e-05
9.22497e-05
9.281e-05
8.91821e-05
9.70827e-05
9.32493e-05
9.75462e-05
9.38022e-05
9.10617e-05
8.28377e-05
7.3328e-05
7.10004e-05
6.74139e-05
5.93791e-05
5.85197e-05
5.5953e-05
5.23872e-05
5.05601e-05
4.43275e-05
4.36712e-05
4.15989e-05
4.20565e-05
4.0654e-05
3.67133e-05
3.41006e-05
3.37912e-05
3.53503e-05
4.71422e-05
5.95664e-05
6.93454e-05
7.01038e-05
7.10148e-05
6.88408e-05
6.56542e-05
6.32903e-05
6.35452e-05
6.5777e-05
7.55516e-05
8.09065e-05
8.30982e-05
8.17649e-05
7.96854e-05
7.3672e-05
6.90122e-05
2.37064e-06
2.37793e-06
2.41697e-06
2.43914e-06
2.45426e-06
2.46414e-06
2.47092e-06
2.4839e-06
2.48751e-06
2.48378e-06
2.47719e-06
2.4742e-06
2.46458e-06
2.46289e-06
2.48266e-06
2.52704e-06
2.54996e-06
2.55958e-06
2.57197e-06
2.58393e-06
2.59354e-06
2.58888e-06
2.58054e-06
2.58058e-06
2.59263e-06
2.59833e-06
2.59751e-06
2.59477e-06
2.59047e-06
2.5742e-06
2.5546e-06
2.54878e-06
2.54882e-06
2.56773e-06
2.57384e-06
2.58691e-06
2.61343e-06
2.64097e-06
2.64761e-06
2.65856e-06
2.65613e-06
2.65733e-06
2.67689e-06
2.69347e-06
2.73307e-06
2.75284e-06
2.79346e-06
2.84327e-06
2.89764e-06
2.96994e-06
3.16876e-06
3.50608e-06
4.10027e-06
4.66752e-06
5.03408e-06
5.13391e-06
5.12413e-06
5.03018e-06
4.70304e-06
4.38026e-06
4.14174e-06
3.96792e-06
3.84721e-06
3.82e-06
3.92703e-06
4.25153e-06
4.52274e-06
4.70968e-06
4.90295e-06
5.00981e-06
5.03717e-06
4.94838e-06
4.8828e-06
4.89423e-06
4.96978e-06
5.16386e-06
5.75418e-06
6.17579e-06
7.23487e-06
7.9744e-06
9.20431e-06
9.86949e-06
1.11502e-05
1.2072e-05
1.37422e-05
1.49661e-05
1.72123e-05
1.95394e-05
2.23803e-05
2.55956e-05
2.8759e-05
3.17132e-05
3.4619e-05
3.6861e-05
3.86101e-05
3.98676e-05
4.05553e-05
4.05467e-05
4.03225e-05
3.97778e-05
3.88349e-05
3.77875e-05
3.65968e-05
3.56722e-05
3.45937e-05
3.36727e-05
3.30947e-05
3.25193e-05
3.23425e-05
3.24381e-05
3.27548e-05
3.3429e-05
3.45857e-05
3.68132e-05
3.89088e-05
4.40482e-05
4.87156e-05
5.67014e-05
6.56344e-05
7.68883e-05
9.76256e-05
0.000118792
0.0001568
0.000180556
0.000186343
0.000173703
0.000128821
0.00010096
8.89479e-05
8.50938e-05
8.54032e-05
8.5435e-05
8.79608e-05
0.000103361
0.0001293
0.000118037
0.000103691
0.000101613
0.000120439
0.000126741
0.00012298
0.000118398
0.000103014
9.70527e-05
9.75212e-05
0.000100935
0.000102072
9.65263e-05
9.1124e-05
8.81801e-05
8.48129e-05
8.46926e-05
9.03519e-05
8.06973e-05
8.47109e-05
8.55861e-05
9.82435e-05
0.000104461
0.000112382
8.80542e-05
0.000104195
9.32108e-05
9.51498e-05
9.50801e-05
8.91616e-05
8.73275e-05
7.51057e-05
6.99398e-05
6.7747e-05
5.98867e-05
5.86183e-05
5.81276e-05
5.40042e-05
5.42335e-05
4.93909e-05
4.89816e-05
4.7077e-05
4.64928e-05
4.40787e-05
3.88931e-05
3.64286e-05
3.61508e-05
3.6661e-05
4.28206e-05
5.51173e-05
6.44533e-05
6.68498e-05
6.81568e-05
6.74422e-05
6.55871e-05
6.31559e-05
6.29953e-05
6.39142e-05
7.03884e-05
7.85631e-05
8.45736e-05
8.46325e-05
8.46078e-05
8.3114e-05
7.81151e-05
2.39888e-06
2.41e-06
2.44655e-06
2.4822e-06
2.49848e-06
2.51256e-06
2.54207e-06
2.54562e-06
2.55396e-06
2.55195e-06
2.55561e-06
2.59138e-06
2.60411e-06
2.60325e-06
2.59285e-06
2.61302e-06
2.75383e-06
2.91028e-06
3.02683e-06
3.04449e-06
3.04877e-06
3.00671e-06
2.94575e-06
2.90742e-06
2.90615e-06
3.01041e-06
3.12215e-06
3.19399e-06
3.20507e-06
3.18795e-06
3.0674e-06
2.96527e-06
2.89565e-06
2.90528e-06
3.15308e-06
3.44852e-06
3.64589e-06
3.69107e-06
3.66352e-06
3.46456e-06
3.25875e-06
3.08898e-06
3.03734e-06
3.06197e-06
3.23584e-06
3.38516e-06
3.45689e-06
3.47006e-06
3.3987e-06
3.25938e-06
3.17298e-06