/*--------------------------------*- C++ -*----------------------------------*\
| =========                 |                                                 |
| \\      /  F ield         | OpenFOAM: The Open Source CFD Toolbox           |
|  \\    /   O peration     | Version:  2.4.0                                 |
|   \\  /    A nd           | Web:      www.OpenFOAM.org                      |
|    \\/     M anipulation  |                                                 |
\*---------------------------------------------------------------------------*/
FoamFile
{
    version     2.0;
    format      ascii;
    class       surfaceScalarField;
    location    "1.9";
    object      phi;
}
// * * * * * * * * * * * * * * * * * * * * * * * * * * * * * * * * * * * * * //

dimensions      [0 3 -1 0 0 0 0];

internalField   nonuniform List<scalar> 
17320
(
1.76381e-05
7.36188e-06
1.16191e-05
6.01901e-06
8.6836e-06
2.93551e-06
7.35412e-06
1.32948e-06
6.71731e-06
6.36801e-07
6.34773e-06
3.69588e-07
6.07464e-06
2.73089e-07
5.86554e-06
2.09101e-07
5.71534e-06
1.50199e-07
5.58419e-06
1.31145e-07
5.46801e-06
1.16179e-07
5.40147e-06
6.6545e-08
5.30634e-06
9.51244e-08
5.22528e-06
8.10649e-08
5.13721e-06
8.80654e-08
5.09252e-06
4.46955e-08
4.97593e-06
1.16587e-07
5.01994e-06
-4.40097e-08
4.79229e-06
2.27655e-07
-4.35496e-07
5.22778e-06
2.54623e-05
6.8996e-06
2.32499e-05
8.23144e-06
2.09935e-05
5.19185e-06
1.93156e-05
3.00735e-06
1.80773e-05
1.8751e-06
1.71169e-05
1.33008e-06
1.63605e-05
1.02942e-06
1.57721e-05
7.97511e-07
1.53173e-05
6.0502e-07
1.49339e-05
5.14495e-07
1.4625e-05
4.25102e-07
1.43916e-05
2.99943e-07
1.4144e-05
3.42734e-07
1.39447e-05
2.80409e-07
1.37281e-05
3.04656e-07
1.35868e-05
1.85929e-07
1.33385e-05
3.64957e-07
1.33164e-05
-2.18893e-08
1.31483e-05
3.95715e-07
-4.95186e-07
1.3208e-05
2.66208e-05
5.2788e-06
2.71559e-05
7.69633e-06
2.67885e-05
5.55931e-06
2.62459e-05
3.54989e-06
2.5608e-05
2.51299e-06
2.48786e-05
2.05954e-06
2.41535e-05
1.75453e-06
2.35027e-05
1.44827e-06
2.29442e-05
1.16354e-06
2.24429e-05
1.01579e-06
2.2029e-05
8.38987e-07
2.16942e-05
6.34779e-07
2.1352e-05
6.84856e-07
2.10801e-05
5.52378e-07
2.07917e-05
5.92975e-07
2.05745e-05
4.03148e-07
2.02803e-05
6.59146e-07
2.01605e-05
9.79193e-08
2.01304e-05
4.25881e-07
-8.33053e-07
2.04682e-05
2.63233e-05
3.95553e-06
2.75361e-05
6.4835e-06
2.80974e-05
4.99798e-06
2.84536e-05
3.19373e-06
2.86488e-05
2.31776e-06
2.86354e-05
2.07294e-06
2.84661e-05
1.92381e-06
2.82308e-05
1.68358e-06
2.79789e-05
1.41545e-06
2.76901e-05
1.30459e-06
2.74252e-05
1.10391e-06
2.71869e-05
8.73101e-07
2.69162e-05
9.55543e-07
2.66747e-05
7.93816e-07
2.64361e-05
8.31602e-07
2.61928e-05
6.4645e-07
2.59733e-05
8.7871e-07
2.56821e-05
3.89079e-07
2.55607e-05
5.47229e-07
-4.40173e-07
2.51679e-05
2.60351e-05
2.92041e-06
2.72291e-05
5.28955e-06
2.80529e-05
4.17414e-06
2.85191e-05
2.72751e-06
2.89753e-05
1.86156e-06
2.93403e-05
1.70792e-06
2.95878e-05
1.67631e-06
2.97201e-05
1.55128e-06
2.98446e-05
1.29099e-06
2.99099e-05
1.23933e-06
2.99553e-05
1.0585e-06
2.99668e-05
8.61588e-07
2.99774e-05
9.44955e-07
2.99195e-05
8.51679e-07
2.99008e-05
8.50279e-07
2.97639e-05
7.83356e-07
2.97575e-05
8.85166e-07
2.94265e-05
7.20074e-07
2.93078e-05
6.65904e-07
4.51158e-08
2.88225e-05
2.58391e-05
2.08132e-06
2.69524e-05
4.17625e-06
2.78144e-05
3.31209e-06
2.82504e-05
2.29155e-06
2.87009e-05
1.41106e-06
2.90817e-05
1.3271e-06
2.9486e-05
1.27208e-06
2.96997e-05
1.33752e-06
2.99973e-05
9.9336e-07
3.01467e-05
1.08996e-06
3.04092e-05
7.95999e-07
3.049e-05
7.80773e-07
3.07729e-05
6.62077e-07
3.08301e-05
7.94452e-07
3.10408e-05
6.39595e-07
3.09831e-05
8.41106e-07
3.12333e-05
6.34974e-07
3.09409e-05
1.01245e-06
3.09666e-05
6.40148e-07
7.9001e-07
3.02218e-05
2.56886e-05
1.3927e-06
2.67031e-05
3.16173e-06
2.76001e-05
2.41511e-06
2.80484e-05
1.84326e-06
2.84968e-05
9.62695e-07
2.88179e-05
1.00598e-06
2.9231e-05
8.59023e-07
2.94465e-05
1.12193e-06
2.98106e-05
6.29352e-07
2.99541e-05
9.46426e-07
3.03019e-05
4.48145e-07
3.03188e-05
7.6392e-07
3.06483e-05
3.32581e-07
3.07315e-05
7.11219e-07
3.10567e-05
3.14421e-07
3.10582e-05
8.39654e-07
3.13755e-05
3.17587e-07
3.11067e-05
1.28127e-06
3.10366e-05
7.10312e-07
1.83578e-06
2.99908e-05
2.55419e-05
8.50839e-07
2.65677e-05
2.13591e-06
2.7463e-05
1.51981e-06
2.79893e-05
1.3169e-06
2.83147e-05
6.37365e-07
2.86745e-05
6.46101e-07
2.90478e-05
4.85783e-07
2.93095e-05
8.60247e-07
2.9559e-05
3.79863e-07
2.98576e-05
6.47748e-07
3.00711e-05
2.34656e-07
3.02334e-05
6.01684e-07
3.03954e-05
1.7054e-07
3.06358e-05
4.70793e-07
3.08734e-05
7.68631e-08
3.10429e-05
6.7016e-07
3.10186e-05
3.41892e-07
3.14838e-05
8.16051e-07
3.19205e-05
2.73629e-07
9.77639e-07
3.27786e-05
2.54652e-05
3.85629e-07
2.64858e-05
1.11535e-06
2.73386e-05
6.6698e-07
2.79546e-05
7.00883e-07
2.82351e-05
3.56842e-07
2.85411e-05
3.40103e-07
2.88653e-05
1.61633e-07
2.92322e-05
4.93288e-07
2.95017e-05
1.10371e-07
2.97463e-05
4.03185e-07
2.98947e-05
8.62931e-08
3.01964e-05
2.99983e-07
3.03008e-05
6.61439e-08
3.05251e-05
2.46495e-07
3.06097e-05
-7.76801e-09
3.09209e-05
3.5896e-07
3.10739e-05
1.88833e-07
3.14577e-05
4.3228e-07
3.16366e-05
9.47691e-08
3.52041e-07
3.22622e-05
2.5424e-05
-3.83629e-08
2.64443e-05
9.50041e-08
2.72787e-05
-1.67359e-07
2.78586e-05
1.21006e-07
2.82041e-05
1.13476e-08
2.85591e-05
-1.49031e-08
2.88054e-05
-8.47e-08
2.91551e-05
1.43556e-07
2.94202e-05
-1.54689e-07
2.96919e-05
1.31459e-07
2.98769e-05
-9.8699e-08
3.01376e-05
3.92728e-08
3.02645e-05
-6.07886e-08
3.0433e-05
7.80374e-08
3.06108e-05
-1.85614e-07
3.09189e-05
5.09032e-08
3.10712e-05
3.65684e-08
3.1345e-05
1.58468e-07
3.16486e-05
-2.08836e-07
8.27504e-08
3.19179e-05
2.5405e-05
-4.43381e-07
2.64366e-05
-9.36534e-07
2.72665e-05
-9.97328e-07
2.78918e-05
-5.04219e-07
2.82361e-05
-3.32972e-07
2.85295e-05
-3.08374e-07
2.87673e-05
-3.22477e-07
2.91937e-05
-2.82805e-07
2.9414e-05
-3.75025e-07
2.96898e-05
-1.44283e-07
2.98364e-05
-2.45335e-07
3.0168e-05
-2.92374e-07
3.02563e-05
-1.49039e-07
3.04433e-05
-1.08973e-07
3.0612e-05
-3.5436e-07
3.0851e-05
-1.88085e-07
3.10174e-05
-1.2976e-07
3.14095e-05
-2.33684e-07
3.16453e-05
-4.44629e-07
-8.90399e-08
3.18171e-05
2.54586e-05
-9.01961e-07
2.65136e-05
-1.99151e-06
2.73119e-05
-1.79565e-06
2.7913e-05
-1.10529e-06
2.82601e-05
-6.80138e-07
2.85939e-05
-6.42114e-07
2.88389e-05
-5.67554e-07
2.9216e-05
-6.59829e-07
2.94672e-05
-6.26232e-07
2.97462e-05
-4.23359e-07
2.99484e-05
-4.47497e-07
3.01718e-05
-5.15807e-07
3.03004e-05
-2.77581e-07
3.05397e-05
-3.48313e-07
3.0657e-05
-4.71638e-07
3.08781e-05
-4.09152e-07
3.11609e-05
-4.12636e-07
3.14525e-05
-5.25215e-07
3.16265e-05
-6.1867e-07
-4.16075e-07
3.19536e-05
2.55432e-05
-1.44515e-06
2.65889e-05
-3.03719e-06
2.74166e-05
-2.62342e-06
2.80288e-05
-1.71747e-06
2.83387e-05
-9.90061e-07
2.86684e-05
-9.71826e-07
2.89684e-05
-8.67521e-07
2.93448e-05
-1.03621e-06
2.95672e-05
-8.48599e-07
2.98608e-05
-7.16985e-07
3.00518e-05
-6.38489e-07
3.02536e-05
-7.17603e-07
3.0398e-05
-4.22037e-07
3.06452e-05
-5.95444e-07
3.07685e-05
-5.94943e-07
3.10213e-05
-6.61957e-07
3.12272e-05
-6.18622e-07
3.15199e-05
-8.17847e-07
3.17845e-05
-8.83244e-07
-7.07718e-07
3.20761e-05
2.567e-05
-2.11514e-06
2.67557e-05
-4.12294e-06
2.75938e-05
-3.46145e-06
2.8057e-05
-2.18074e-06
2.84707e-05
-1.40372e-06
2.88564e-05
-1.35749e-06
2.91752e-05
-1.18639e-06
2.94946e-05
-1.35558e-06
2.97538e-05
-1.1078e-06
3.0029e-05
-9.92134e-07
3.02025e-05
-8.12029e-07
3.04082e-05
-9.23331e-07
3.05797e-05
-5.93552e-07
3.08029e-05
-8.18653e-07
3.09282e-05
-7.20188e-07
3.11678e-05
-9.01539e-07
3.13592e-05
-8.10079e-07
3.16864e-05
-1.14502e-06
3.18917e-05
-1.08859e-06
-9.53942e-07
3.2138e-05
2.58405e-05
-2.95563e-06
2.69665e-05
-5.24895e-06
2.77983e-05
-4.29325e-06
2.82252e-05
-2.60765e-06
2.87022e-05
-1.88072e-06
2.90992e-05
-1.7545e-06
2.9453e-05
-1.54013e-06
2.97356e-05
-1.63816e-06
2.99851e-05
-1.3573e-06
3.01752e-05
-1.18223e-06
3.0371e-05
-1.00785e-06
3.05292e-05
-1.08151e-06
3.0702e-05
-7.66411e-07
3.08477e-05
-9.64298e-07
3.09563e-05
-8.2888e-07
3.11062e-05
-1.0514e-06
3.12068e-05
-9.10696e-07
3.14019e-05
-1.34011e-06
3.15156e-05
-1.20229e-06
-1.31127e-06
3.18729e-05
2.60441e-05
-3.99969e-06
2.72444e-05
-6.44933e-06
2.80055e-05
-5.05431e-06
2.84914e-05
-3.09361e-06
2.89856e-05
-2.37489e-06
2.93313e-05
-2.1002e-06
2.96019e-05
-1.81072e-06
2.97305e-05
-1.76673e-06
2.98462e-05
-1.47302e-06
2.98947e-05
-1.23079e-06
2.99511e-05
-1.06424e-06
2.99352e-05
-1.0656e-06
2.99654e-05
-7.96586e-07
2.99088e-05
-9.07727e-07
2.98667e-05
-7.8674e-07
2.97849e-05
-9.69603e-07
2.96976e-05
-8.23399e-07
2.96158e-05
-1.25833e-06
2.95291e-05
-1.11559e-06
-1.42361e-06
2.96415e-05
2.63107e-05
-5.3104e-06
2.75351e-05
-7.67374e-06
2.80598e-05
-5.57895e-06
2.84628e-05
-3.49666e-06
2.86431e-05
-2.55517e-06
2.86193e-05
-2.07638e-06
2.84884e-05
-1.67988e-06
2.82212e-05
-1.49948e-06
2.79572e-05
-1.20901e-06
2.76889e-05
-9.62543e-07
2.74281e-05
-8.03362e-07
2.71416e-05
-7.79145e-07
2.69228e-05
-5.77824e-07
2.66476e-05
-6.32482e-07
2.64154e-05
-5.5455e-07
2.61319e-05
-6.86092e-07
2.58906e-05
-5.82138e-07
2.55498e-05
-9.17455e-07
2.53038e-05
-8.69593e-07
-1.28413e-06
2.51643e-05
2.66065e-05
-6.91691e-06
2.7155e-05
-8.22221e-06
2.67711e-05
-5.19513e-06
2.62581e-05
-2.98356e-06
2.55955e-05
-1.89263e-06
2.4868e-05
-1.34891e-06
2.41697e-05
-9.81515e-07
2.34931e-05
-8.22872e-07
2.29224e-05
-6.38354e-07
2.24467e-05
-4.86864e-07
2.20325e-05
-3.89094e-07
2.16515e-05
-3.98173e-07
2.13562e-05
-2.82535e-07
2.10433e-05
-3.1963e-07
2.0775e-05
-2.8625e-07
2.04623e-05
-3.73295e-07
2.01974e-05
-3.17237e-07
1.97798e-05
-4.99882e-07
1.94062e-05
-4.95976e-07
-4.43959e-07
1.8566e-05
2.54505e-05
-7.36746e-06
2.32451e-05
-6.01675e-06
2.09845e-05
-2.93451e-06
1.93238e-05
-1.32287e-06
1.8071e-05
-6.39854e-07
1.7106e-05
-3.83916e-07
1.63743e-05
-2.49761e-07
1.57675e-05
-2.1607e-07
1.52979e-05
-1.68828e-07
1.49335e-05
-1.22388e-07
1.46349e-05
-9.05498e-08
1.43523e-05
-1.1558e-07
1.41411e-05
-7.13074e-08
1.39129e-05
-9.13831e-08
1.37103e-05
-8.37113e-08
1.34611e-05
-1.24073e-07
1.32423e-05
-9.84456e-08
1.29108e-05
-1.68351e-07
1.2634e-05
-2.19244e-07
-6.04907e-08
1.22506e-05
1.76325e-05
1.16158e-05
8.68128e-06
7.35841e-06
6.71856e-06
6.33464e-06
6.08488e-06
5.86881e-06
5.69998e-06
5.57759e-06
5.48704e-06
5.37146e-06
5.30016e-06
5.20877e-06
5.12506e-06
5.00099e-06
4.90254e-06
4.73419e-06
4.51495e-06
4.45446e-06
5.76704e-06
-2.18764e-07
-3.20499e-07
6.27573e-06
-2.91355e-08
-4.79549e-07
6.58265e-06
5.74805e-08
-3.64403e-07
6.77154e-06
-2.81368e-09
-1.86076e-07
6.91321e-06
-1.1016e-07
-3.15147e-08
7.06906e-06
-1.62093e-07
6.24919e-09
7.23556e-06
-1.82566e-07
1.60691e-08
7.40478e-06
-1.8732e-07
1.80943e-08
7.55256e-06
-1.67227e-07
1.94466e-08
7.70649e-06
-1.26014e-07
-2.79175e-08
7.85763e-06
-8.88254e-08
-6.23093e-08
8.0133e-06
-5.21984e-08
-1.03475e-07
8.16714e-06
-4.75325e-08
-1.06309e-07
8.301e-06
-5.64245e-08
-7.74301e-08
8.42901e-06
-8.51042e-08
-4.2905e-08
8.5298e-06
-1.23261e-07
2.24704e-08
8.61111e-06
-1.52103e-07
7.07886e-08
8.69491e-06
-1.74361e-07
9.05649e-08
8.77243e-06
-1.53052e-07
7.55311e-08
8.85331e-06
-1.29765e-07
4.88783e-08
8.94402e-06
-9.45646e-08
3.85824e-09
9.05214e-06
-3.97061e-08
-6.84177e-08
9.16765e-06
-1.86686e-08
-9.68397e-08
9.30468e-06
2.91612e-08
-1.66186e-07
9.43234e-06
3.23758e-08
-1.60041e-07
9.55308e-06
3.14901e-08
-1.52229e-07
9.67121e-06
3.20817e-08
-1.50214e-07
9.80178e-06
1.73167e-08
-1.4788e-07
9.93397e-06
1.97416e-08
-1.51932e-07
1.00818e-05
-1.07117e-09
-1.46743e-07
1.02545e-05
-3.76434e-08
-1.35077e-07
1.04227e-05
-1.06054e-07
-6.21736e-08
1.05707e-05
-2.23432e-07
7.54129e-08
1.06802e-05
-3.93123e-07
2.83672e-07
1.07176e-05
-5.7403e-07
5.36588e-07
1.06994e-05
-7.86764e-07
8.04961e-07
1.05921e-05
-9.80188e-07
1.08753e-06
1.03578e-05
-1.11722e-06
1.35155e-06
1.00436e-05
-1.19092e-06
1.50509e-06
9.72446e-06
-1.17051e-06
1.48965e-06
9.37869e-06
-1.05372e-06
1.3995e-06
8.96403e-06
-7.74092e-07
1.18875e-06
8.5098e-06
-4.18111e-07
8.7234e-07
8.2279e-06
5.02914e-08
2.31608e-07
8.1649e-06
6.32671e-07
-5.69669e-07
8.59145e-06
1.25204e-06
-1.67858e-06
9.47746e-06
1.84242e-06
-2.72843e-06
1.05334e-05
2.16212e-06
-3.21805e-06
1.14301e-05
2.31789e-06
-3.21455e-06
1.21849e-05
2.31025e-06
-3.06505e-06
1.28355e-05
2.05498e-06
-2.70565e-06
1.33211e-05
2.04906e-06
-2.53464e-06
1.38723e-05
1.87014e-06
-2.42132e-06
1.43221e-05
1.75556e-06
-2.2054e-06
1.47668e-05
1.54441e-06
-1.98911e-06
1.51452e-05
1.39942e-06
-1.77777e-06
1.54444e-05
9.82124e-07
-1.28137e-06
1.57405e-05
7.64172e-07
-1.06029e-06
1.58436e-05
4.15818e-07
-5.1892e-07
1.59259e-05
5.5507e-08
-1.37784e-07
1.5881e-05
-2.90259e-07
3.35156e-07
1.57553e-05
-5.67465e-07
6.9314e-07
1.55347e-05
-8.36669e-07
1.05736e-06
1.52034e-05
-9.79822e-07
1.31107e-06
1.49134e-05
-1.06216e-06
1.35219e-06
1.46343e-05
-9.22386e-07
1.20142e-06
1.44958e-05
-7.93283e-07
9.31865e-07
1.45434e-05
-6.14323e-07
5.66632e-07
1.46543e-05
-4.35537e-07
3.24706e-07
1.49849e-05
-4.22299e-07
9.16542e-08
1.53027e-05
-2.98756e-07
-1.90106e-08
1.56651e-05
-4.77868e-07
1.15438e-07
1.61535e-05
-5.22533e-07
3.41926e-08
1.64852e-05
-7.35736e-07
4.04025e-07
1.702e-05
-9.70188e-07
4.3535e-07
1.74354e-05
-1.15806e-06
7.42688e-07
1.783e-05
-1.49773e-06
1.10312e-06
1.83333e-05
-1.82611e-06
1.32281e-06
1.86837e-05
-2.05925e-06
1.70886e-06
1.91285e-05
-2.49668e-06
2.05183e-06
1.95156e-05
-2.76656e-06
2.37946e-06
1.99095e-05
-3.12856e-06
2.73468e-06
2.03601e-05
-3.49393e-06
3.04337e-06
2.07419e-05
-3.72373e-06
3.34185e-06
2.12522e-05
-4.11439e-06
3.60417e-06
2.17286e-05
-4.33006e-06
3.8536e-06
2.21887e-05
-4.61595e-06
4.15593e-06
2.26916e-05
-4.89891e-06
4.39595e-06
2.3128e-05
-5.08106e-06
4.64464e-06
2.35503e-05
-5.28921e-06
4.86691e-06
2.39945e-05
-5.49767e-06
5.05355e-06
2.43524e-05
-5.47956e-06
5.12166e-06
2.46653e-05
-5.51581e-06
5.20288e-06
2.49233e-05
-5.40276e-06
5.14475e-06
2.50303e-05
-5.11432e-06
5.00733e-06
2.51849e-05
-4.75583e-06
4.60117e-06
2.52282e-05
-4.22583e-06
4.18257e-06
2.53888e-05
-3.65647e-06
3.49588e-06
2.55729e-05
-2.99921e-06
2.8151e-06
2.58145e-05
-2.36892e-06
2.1273e-06
2.60792e-05
-1.83542e-06
1.57079e-06
2.63638e-05
-1.31569e-06
1.03099e-06
2.66382e-05
-8.91098e-07
6.16795e-07
2.69725e-05
-6.85067e-07
3.50718e-07
2.72331e-05
-5.37153e-07
2.76582e-07
2.75829e-05
-5.20511e-07
1.70673e-07
2.78684e-05
-7.47346e-07
4.61888e-07
2.81783e-05
-1.01443e-06
7.04524e-07
2.84549e-05
-1.44045e-06
1.16378e-06
2.87952e-05
-2.00464e-06
1.66434e-06
2.9107e-05
-2.6132e-06
2.30145e-06
2.94386e-05
-3.38154e-06
3.04992e-06
2.9743e-05
-4.16438e-06
3.85997e-06
3.00976e-05
-5.08674e-06
4.73218e-06
3.03317e-05
-5.98692e-06
5.75276e-06
3.07042e-05
-7.02822e-06
6.65574e-06
3.08456e-05
-7.96591e-06
7.82449e-06
3.09969e-05
-8.95293e-06
8.80165e-06
3.1021e-05
-9.92395e-06
9.89983e-06
3.0854e-05
-1.07512e-05
1.09183e-05
3.0568e-05
-1.15235e-05
1.18095e-05
3.00703e-05
-1.2165e-05
1.26628e-05
2.95442e-05
-1.27273e-05
1.32533e-05
2.88713e-05
-1.31494e-05
1.38224e-05
2.82299e-05
-1.35033e-05
1.41447e-05
2.77041e-05
-1.39002e-05
1.4426e-05
2.74452e-05
-1.43236e-05
1.45826e-05
2.73488e-05
-1.47576e-05
1.4854e-05
2.74183e-05
-1.5166e-05
1.50964e-05
2.75047e-05
-1.54883e-05
1.54019e-05
2.75635e-05
-1.577e-05
1.57113e-05
2.74534e-05
-1.58335e-05
1.59435e-05
2.6934e-05
-1.56557e-05
1.61751e-05
2.6082e-05
-1.5264e-05
1.61159e-05
2.47562e-05
-1.46781e-05
1.6004e-05
2.31623e-05
-1.39791e-05
1.5573e-05
2.14282e-05
-1.33292e-05
1.50632e-05
1.9783e-05
-1.2847e-05
1.44922e-05
1.84323e-05
-1.2586e-05
1.39368e-05
1.72772e-05
-1.23379e-05
1.34929e-05
1.65721e-05
-1.22333e-05
1.29384e-05
1.61746e-05
-1.20517e-05
1.24493e-05
1.60716e-05
-1.1728e-05
1.1831e-05
1.62516e-05
-1.12424e-05
1.10624e-05
1.65863e-05
-1.04939e-05
1.01592e-05
1.70053e-05
-9.58742e-06
9.16834e-06
1.75115e-05
-8.37133e-06
7.86516e-06
1.8167e-05
-7.34245e-06
6.68694e-06
1.87774e-05
-5.97264e-06
5.36224e-06
1.96078e-05
-4.69811e-06
3.86778e-06
2.01988e-05
-3.07411e-06
2.48305e-06
2.10925e-05
-1.72717e-06
8.3348e-07
2.1654e-05
1.69392e-07
-7.30885e-07
2.25284e-05
1.47713e-06
-2.35149e-06
2.31827e-05
3.34942e-06
-4.0038e-06
2.39472e-05
4.63735e-06
-5.40185e-06
2.46571e-05
6.36672e-06
-7.07661e-06
2.51724e-05
7.62228e-06
-8.13752e-06
2.56139e-05
9.14841e-06
-9.58991e-06
2.59161e-05
1.0234e-05
-1.05362e-05
2.59349e-05
1.14344e-05
-1.14532e-05
2.55926e-05
1.24656e-05
-1.21234e-05
2.52025e-05
1.32263e-05
-1.28362e-05
2.41783e-05
1.39165e-05
-1.28923e-05
2.32661e-05
1.38412e-05
-1.2929e-05
2.23075e-05
1.38331e-05
-1.28745e-05
2.12269e-05
1.35077e-05
-1.2427e-05
2.04343e-05
1.30278e-05
-1.22352e-05
1.96305e-05
1.2299e-05
-1.14953e-05
1.92963e-05
1.13691e-05
-1.10349e-05
1.87876e-05
1.11258e-05
-1.06171e-05
1.83335e-05
1.0321e-05
-9.86697e-06
1.78231e-05
9.7049e-06
-9.19443e-06
1.73433e-05
8.59299e-06
-8.11319e-06
1.75186e-05
7.56041e-06
-7.73573e-06
1.71723e-05
7.75934e-06
-7.41308e-06
1.65762e-05
7.51625e-06
-6.92014e-06
1.56063e-05
6.94816e-06
-5.97822e-06
1.4635e-05
5.71356e-06
-4.74231e-06
1.42187e-05
4.78477e-06
-4.36844e-06
1.39058e-05
4.31651e-06
-4.00357e-06
1.40772e-05
4.34931e-06
-4.52079e-06
1.40796e-05
4.06537e-06
-4.06771e-06
1.3871e-05
2.95276e-06
-2.74416e-06
1.28697e-05
2.29109e-06
-1.28976e-06
1.15407e-05
2.73566e-06
-1.40671e-06
1.02189e-05
5.1099e-06
-3.7881e-06
9.04271e-06
9.62833e-06
-8.45211e-06
8.61881e-06
1.38884e-05
-1.34645e-05
8.65611e-06
1.68087e-05
-1.6846e-05
9.15303e-06
1.73124e-05
-1.78093e-05
9.44734e-06
1.87944e-05
-1.90887e-05
9.32207e-06
2.0941e-05
-2.08157e-05
9.39776e-06
2.24518e-05
-2.25275e-05
9.38095e-06
2.22966e-05
-2.22798e-05
9.52643e-06
2.18985e-05
-2.2044e-05
9.78541e-06
2.31619e-05
-2.34209e-05
8.88486e-06
2.46391e-05
-2.37385e-05
8.93715e-06
2.38927e-05
-2.3945e-05
2.89095e-05
-3.01335e-05
1.01612e-05
1.33033e-05
-3.14129e-07
1.34207e-05
-1.46445e-07
1.34917e-05
-1.35991e-08
1.35126e-05
-2.36797e-08
1.35108e-05
-1.08395e-07
1.35757e-05
-2.27e-07
1.36849e-05
-2.91742e-07
1.38075e-05
-3.09944e-07
1.39195e-05
-2.79171e-07
1.40164e-05
-2.2292e-07
1.4111e-05
-1.83405e-07
1.41887e-05
-1.29901e-07
1.42797e-05
-1.3852e-07
1.43556e-05
-1.32406e-07
1.4434e-05
-1.6348e-07
1.45077e-05
-1.9693e-07
1.45538e-05
-1.98212e-07
1.46176e-05
-2.38122e-07
1.46634e-05
-1.98912e-07
1.47305e-05
-1.96855e-07
1.47973e-05
-1.61394e-07
1.48679e-05
-1.10229e-07
1.49601e-05
-1.10944e-07
1.50465e-05
-5.71803e-08
1.5141e-05
-6.21465e-08
1.52316e-05
-5.90805e-08
1.53128e-05
-4.91923e-08
1.54128e-05
-8.26153e-08
1.55094e-05
-7.68683e-08
1.56192e-05
-1.10855e-07
1.5741e-05
-1.5946e-07
1.58626e-05
-2.27694e-07
1.59632e-05
-3.24043e-07
1.6046e-05
-4.75835e-07
1.60725e-05
-6.00625e-07
1.60493e-05
-7.63485e-07
1.59624e-05
-8.93292e-07
1.5787e-05
-9.41852e-07
1.55849e-05
-9.88853e-07
1.53089e-05
-8.94475e-07
1.49838e-05
-7.28618e-07
1.47009e-05
-4.91228e-07
1.43969e-05
-1.14025e-07
1.41363e-05
3.10861e-07
1.40085e-05
7.605e-07
1.39856e-05
1.27485e-06
1.41527e-05
1.67539e-06
1.44054e-05
1.90935e-06
1.47088e-05
2.01448e-06
1.49793e-05
2.03974e-06
1.522e-05
1.8143e-06
1.5459e-05
1.81007e-06
1.57017e-05
1.62749e-06
1.59776e-05
1.47961e-06
1.62327e-05
1.28927e-06
1.65128e-05
1.11939e-06
1.66898e-05
8.05095e-07
1.69216e-05
5.32359e-07
1.70803e-05
2.57155e-07
1.71377e-05
-1.91219e-09
1.71795e-05
-3.32071e-07
1.71092e-05
-4.97152e-07
1.70207e-05
-7.48163e-07
1.68846e-05
-8.43772e-07
1.67486e-05
-9.26161e-07
1.67419e-05
-9.15639e-07
1.67853e-05
-8.36699e-07
1.70196e-05
-8.48644e-07
1.73231e-05
-7.38976e-07
1.76662e-05
-7.65465e-07
1.8166e-05
-7.98568e-07
1.85627e-05
-8.74488e-07
1.90957e-05
-1.0556e-06
1.95864e-05
-1.22642e-06
2.00674e-05
-1.45121e-06
2.06344e-05
-1.72505e-06
2.11073e-05
-1.97058e-06
2.1629e-05
-2.34787e-06
2.21559e-05
-2.58609e-06
2.26441e-05
-2.98487e-06
2.31733e-05
-3.29581e-06
2.36699e-05
-3.62517e-06
2.41837e-05
-4.00768e-06
2.47194e-05
-4.2594e-06
2.52003e-05
-4.5953e-06
2.5753e-05
-4.88284e-06
2.62202e-05
-5.08307e-06
2.66701e-05
-5.34886e-06
2.71527e-05
-5.56364e-06
2.74891e-05
-5.62558e-06
2.78154e-05
-5.82405e-06
2.80376e-05
-5.70169e-06
2.81647e-05
-5.64289e-06
2.825e-05
-5.48807e-06
2.82834e-05
-5.14771e-06
2.83101e-05
-4.78261e-06
2.83441e-05
-4.25975e-06
2.83671e-05
-3.67953e-06
2.84608e-05
-3.09289e-06
2.8565e-05
-2.47315e-06
2.86899e-05
-1.96031e-06
2.89004e-05
-1.52613e-06
2.9062e-05
-1.0527e-06
2.93417e-05
-9.64813e-07
2.95118e-05
-7.07221e-07
2.97898e-05
-7.98518e-07
2.99902e-05
-9.47813e-07
3.02279e-05
-1.25206e-06
3.04288e-05
-1.64136e-06
3.0626e-05
-2.2019e-06
3.08361e-05
-2.82325e-06
3.09879e-05
-3.53334e-06
3.11439e-05
-4.32035e-06
3.12645e-05
-5.2074e-06
3.13023e-05
-6.02467e-06
3.13018e-05
-7.02772e-06
3.11673e-05
-7.83149e-06
3.09895e-05
-8.77513e-06
3.0599e-05
-9.53342e-06
3.01485e-05
-1.03007e-05
2.95955e-05
-1.09705e-05
2.90191e-05
-1.15886e-05
2.84092e-05
-1.21173e-05
2.78782e-05
-1.26184e-05
2.75483e-05
-1.31734e-05
2.74181e-05
-1.377e-05
2.7374e-05
-1.42795e-05
2.7387e-05
-1.47706e-05
2.73757e-05
-1.51547e-05
2.72622e-05
-1.53747e-05
2.68092e-05
-1.53171e-05
2.59578e-05
-1.49821e-05
2.46707e-05
-1.43686e-05
2.29459e-05
-1.35391e-05
2.08375e-05
-1.25698e-05
1.85739e-05
-1.17155e-05
1.65937e-05
-1.1349e-05
1.49448e-05
-1.11981e-05
1.37313e-05
-1.13725e-05
1.28773e-05
-1.14839e-05
1.24488e-05
-1.18047e-05
1.25113e-05
-1.21142e-05
1.28249e-05
-1.20417e-05
1.33545e-05
-1.1772e-05
1.39292e-05
-1.10685e-05
1.44187e-05
-1.00769e-05
1.51079e-05
-9.06054e-06
1.55697e-05
-7.80429e-06
1.62104e-05
-6.61331e-06
1.67689e-05
-5.25663e-06
1.73023e-05
-3.60751e-06
1.77577e-05
-2.18258e-06
1.81753e-05
-2.482e-07
1.86295e-05
1.02295e-06
1.92102e-05
2.76872e-06
1.98121e-05
4.03545e-06
2.07715e-05
5.40729e-06
2.15187e-05
6.87514e-06
2.23572e-05
8.30984e-06
2.30507e-05
9.5405e-06
2.35871e-05
1.0898e-05
2.36698e-05
1.23829e-05
2.37222e-05
1.3174e-05
2.33419e-05
1.42967e-05
2.25284e-05
1.46547e-05
2.16144e-05
1.47472e-05
2.04472e-05
1.46749e-05
1.93487e-05
1.41263e-05
1.81231e-05
1.35246e-05
1.70994e-05
1.23928e-05
1.65803e-05
1.16449e-05
1.59046e-05
1.09968e-05
1.53204e-05
1.02891e-05
1.455e-05
9.36338e-06
1.45634e-05
7.54703e-06
1.49564e-05
7.36638e-06
1.51178e-05
7.3548e-06
1.53315e-05
6.73446e-06
1.49506e-05
6.09451e-06
1.46795e-05
5.05585e-06
1.39059e-05
5.09007e-06
1.35163e-05
4.73892e-06
1.30335e-05
4.54815e-06
1.23467e-05
3.63961e-06
1.14249e-05
3.21289e-06
1.01191e-05
4.04142e-06
8.89487e-06
6.33416e-06
7.90211e-06
1.06211e-05
8.06679e-06
1.37238e-05
8.61168e-06
1.62638e-05
9.41856e-06
1.65055e-05
1.02721e-05
1.79408e-05
1.08599e-05
2.03532e-05
1.12282e-05
2.20834e-05
1.18669e-05
2.16579e-05
1.18529e-05
2.19125e-05
1.26542e-05
2.23606e-05
1.28598e-05
2.44335e-05
1.57514e-05
2.10011e-05
2.91352e-05
1.55257e-05
2.02843e-05
-1.30179e-07
2.01234e-05
1.4408e-08
1.99917e-05
1.18109e-07
1.99563e-05
1.17206e-08
1.99707e-05
-1.22756e-07
2.00255e-05
-2.81809e-07
2.00926e-05
-3.58858e-07
2.01682e-05
-3.85493e-07
2.02313e-05
-3.42283e-07
2.02852e-05
-2.76881e-07
2.03408e-05
-2.38961e-07
2.03717e-05
-1.60785e-07
2.04245e-05
-1.91333e-07
2.0461e-05
-1.68902e-07
2.05071e-05
-2.09559e-07
2.05644e-05
-2.54273e-07
2.05828e-05
-2.16599e-07
2.06369e-05
-2.92256e-07
2.06495e-05
-2.11461e-07
2.0691e-05
-2.38377e-07
2.07362e-05
-2.06638e-07
2.07668e-05
-1.40787e-07
2.08388e-05
-1.82919e-07
2.08876e-05
-1.06036e-07
2.09539e-05
-1.28436e-07
2.10216e-05
-1.26768e-07
2.1078e-05
-1.05566e-07
2.11475e-05
-1.5214e-07
2.12182e-05
-1.47578e-07
2.12873e-05
-1.79967e-07
2.13611e-05
-2.33267e-07
2.14386e-05
-3.0519e-07
2.1483e-05
-3.68404e-07
2.15253e-05
-5.18162e-07
2.15107e-05
-5.86026e-07
2.14567e-05
-7.09486e-07
2.13609e-05
-7.97457e-07
2.12038e-05
-7.84786e-07
2.10111e-05
-7.96182e-07
2.07831e-05
-6.6645e-07
2.05399e-05
-4.8542e-07
2.03045e-05
-2.55806e-07
2.00855e-05
1.04927e-07
1.98784e-05
5.18005e-07
1.97549e-05
8.83998e-07
1.97188e-05
1.311e-06
1.97339e-05
1.66023e-06
1.97788e-05
1.86443e-06
1.98272e-05
1.96613e-06
1.98649e-05
2.00207e-06
1.98402e-05
1.83897e-06
1.98745e-05
1.7758e-06
1.98779e-05
1.62405e-06
1.99226e-05
1.43488e-06
1.99749e-05
1.23695e-06
2.00635e-05
1.03087e-06
2.01106e-05
7.57949e-07
2.01744e-05
4.68571e-07
2.02392e-05
1.92363e-07
2.02853e-05
-4.80321e-08
2.03035e-05
-3.50274e-07
2.03632e-05
-5.56825e-07
2.03611e-05
-7.46109e-07
2.04318e-05
-9.14437e-07
2.04913e-05
-9.85617e-07
2.06565e-05
-1.08085e-06
2.08673e-05
-1.04749e-06
2.11463e-05
-1.12765e-06
2.15386e-05
-1.13128e-06
2.19041e-05
-1.13094e-06
2.2383e-05
-1.27752e-06
2.28379e-05
-1.3294e-06
2.33197e-05
-1.53742e-06
2.38248e-05
-1.73145e-06
2.43241e-05
-1.95053e-06
2.48322e-05
-2.23319e-06
2.53604e-05
-2.4988e-06
2.58471e-05
-2.83452e-06
2.63536e-05
-3.09264e-06
2.6866e-05
-3.49724e-06
2.73277e-05
-3.75751e-06
2.78225e-05
-4.11997e-06
2.82704e-05
-4.45554e-06
2.87242e-05
-4.71322e-06
2.91343e-05
-5.00539e-06
2.95396e-05
-5.28821e-06
2.99056e-05
-5.44901e-06
3.02045e-05
-5.64774e-06
3.04827e-05
-5.84189e-06
3.06645e-05
-5.80732e-06
3.07567e-05
-5.91632e-06
3.08231e-05
-5.76808e-06
3.08136e-05
-5.63336e-06
3.07262e-05
-5.40072e-06
3.06558e-05
-5.07726e-06
3.04945e-05
-4.62135e-06
3.03734e-05
-4.13861e-06
3.02358e-05
-3.54196e-06
3.0143e-05
-3.00003e-06
3.01017e-05
-2.43189e-06
3.01202e-05
-1.97881e-06
3.01761e-05
-1.58206e-06
3.02814e-05
-1.158e-06
3.04056e-05
-1.08902e-06
3.05549e-05
-8.56499e-07
3.07201e-05
-9.63698e-07
3.08848e-05
-1.11249e-06
3.10326e-05
-1.39991e-06
3.1178e-05
-1.7867e-06
3.12845e-05
-2.30843e-06
3.13666e-05
-2.90533e-06
3.1399e-05
-3.56571e-06
3.14149e-05
-4.33634e-06
3.12895e-05
-5.082e-06
3.11838e-05
-5.91889e-06
3.09047e-05
-6.74861e-06
3.06048e-05
-7.53168e-06
3.01515e-05
-8.3218e-06
2.96777e-05
-9.0596e-06
2.91509e-05
-9.77388e-06
2.86006e-05
-1.04203e-05
2.81467e-05
-1.11347e-05
2.7739e-05
-1.17096e-05
2.75579e-05
-1.24373e-05
2.74332e-05
-1.30487e-05
2.73526e-05
-1.36895e-05
2.7295e-05
-1.42219e-05
2.71525e-05
-1.46281e-05
2.68386e-05
-1.48408e-05
2.61488e-05
-1.4685e-05
2.5074e-05
-1.42422e-05
2.35164e-05
-1.34246e-05
2.15108e-05
-1.2363e-05
1.89358e-05
-1.09641e-05
1.62934e-05
-9.92732e-06
1.40477e-05
-9.46981e-06
1.24231e-05
-9.72441e-06
1.10644e-05
-9.83941e-06
1.00973e-05
-1.04054e-05
9.69391e-06
-1.10805e-05
9.86029e-06
-1.19711e-05
1.05268e-05
-1.27807e-05
1.1385e-05
-1.28998e-05
1.22365e-05
-1.26235e-05
1.29684e-05
-1.18004e-05
1.35545e-05
-1.0663e-05
1.41039e-05
-9.60995e-06
1.44953e-05
-8.19571e-06
1.50962e-05
-7.21424e-06
1.54348e-05
-5.59517e-06
1.57747e-05
-3.94746e-06
1.58451e-05
-2.25299e-06
1.60448e-05
-4.47844e-07
1.60598e-05
1.00794e-06
1.62934e-05
2.53513e-06
1.64086e-05
3.92025e-06
1.71048e-05
4.71106e-06
1.78309e-05
6.14903e-06
1.89343e-05
7.20645e-06
1.98268e-05
8.64803e-06
2.07531e-05
9.9716e-06
2.13477e-05
1.17884e-05
2.15854e-05
1.29363e-05
2.17074e-05
1.41748e-05
2.13486e-05
1.50135e-05
2.08763e-05
1.52194e-05
2.01245e-05
1.54267e-05
1.94551e-05
1.47956e-05
1.84861e-05
1.44937e-05
1.73783e-05
1.35006e-05
1.69964e-05
1.20268e-05
1.63133e-05
1.16798e-05
1.566e-05
1.09424e-05
1.50814e-05
9.94197e-06
1.43236e-05
8.30483e-06
1.4099e-05
7.59105e-06
1.38947e-05
7.55904e-06
1.41143e-05
6.51483e-06
1.4343e-05
5.86583e-06
1.42167e-05
5.18213e-06
1.37885e-05
5.51828e-06
1.33845e-05
5.14297e-06
1.28827e-05
5.04992e-06
1.18024e-05
4.7199e-06
1.06032e-05
4.41206e-06
9.25589e-06
5.38879e-06
8.30867e-06
7.28137e-06
7.66597e-06
1.12638e-05
8.23552e-06
1.31542e-05
9.06093e-06
1.54384e-05
1.01343e-05
1.54321e-05
1.11647e-05
1.69105e-05
1.24502e-05
1.90677e-05
1.31841e-05
2.13495e-05
1.3982e-05
2.086e-05
1.42702e-05
2.16242e-05
1.56724e-05
2.09584e-05
1.54886e-05
2.46173e-05
1.90919e-05
1.73978e-05
2.82374e-05
1.99898e-05
2.51849e-05
-1.47256e-07
2.527e-05
-7.06416e-08
2.53949e-05
-6.7623e-09
2.54887e-05
-8.20734e-08
2.55604e-05
-1.94458e-07
2.55815e-05
-3.02984e-07
2.55723e-05
-3.49631e-07
2.55765e-05
-3.89737e-07
2.5581e-05
-3.46712e-07
2.56215e-05
-3.17425e-07
2.56761e-05
-2.93552e-07
2.56935e-05
-1.78196e-07
2.57436e-05
-2.41416e-07
2.57343e-05
-1.59598e-07
2.57452e-05
-2.20452e-07
2.57743e-05
-2.83328e-07
2.57697e-05
-2.12082e-07
2.58276e-05
-3.50113e-07
2.5839e-05
-2.22864e-07
2.58709e-05
-2.70257e-07
2.59077e-05
-2.43509e-07
2.59049e-05
-1.37935e-07
2.59484e-05
-2.26477e-07
2.59583e-05
-1.15892e-07
2.59964e-05
-1.66536e-07
2.60364e-05
-1.66752e-07
2.60746e-05
-1.43814e-07
2.61353e-05
-2.12766e-07
2.61745e-05
-1.8681e-07
2.62374e-05
-2.42886e-07
2.62676e-05
-2.63418e-07
2.63137e-05
-3.5132e-07
2.63178e-05
-3.72482e-07
2.63087e-05
-5.09117e-07
2.62608e-05
-5.3814e-07
2.61698e-05
-6.1845e-07
2.60548e-05
-6.82417e-07
2.58838e-05
-6.13864e-07
2.57129e-05
-6.25259e-07
2.55065e-05
-4.60037e-07
2.53306e-05
-3.09496e-07
2.51491e-05
-7.43272e-08
2.49827e-05
2.71364e-07
2.49028e-05
5.97915e-07
2.4786e-05
1.00077e-06
2.47699e-05
1.3271e-06
2.47889e-05
1.64125e-06
2.47938e-05
1.8595e-06
2.48285e-05
1.93146e-06
2.48683e-05
1.96223e-06
2.48112e-05
1.89604e-06
2.48409e-05
1.74613e-06
2.48211e-05
1.64388e-06
2.47913e-05
1.46468e-06
2.48073e-05
1.22091e-06
2.48012e-05
1.03694e-06
2.48124e-05
7.46824e-07
2.48085e-05
4.72484e-07
2.48119e-05
1.88937e-07
2.4865e-05
-1.01188e-07
2.48668e-05
-3.52001e-07
2.49338e-05
-6.23816e-07
2.49769e-05
-7.89268e-07
2.5071e-05
-1.00849e-06
2.51859e-05
-1.1006e-06
2.53642e-05
-1.25908e-06
2.55836e-05
-1.26693e-06
2.58406e-05
-1.38464e-06
2.61692e-05
-1.45991e-06
2.6521e-05
-1.48267e-06
2.6908e-05
-1.66452e-06
2.73201e-05
-1.74152e-06
2.77267e-05
-1.944e-06
2.81524e-05
-2.15721e-06
2.85999e-05
-2.39799e-06
2.89934e-05
-2.62666e-06
2.94588e-05
-2.96423e-06
2.98366e-05
-3.21228e-06
3.02486e-05
-3.50472e-06
3.06316e-05
-3.88023e-06
3.09717e-05
-4.09758e-06
3.13164e-05
-4.46468e-06
3.15933e-05
-4.73243e-06
3.1877e-05
-4.99689e-06
3.2097e-05
-5.22546e-06
3.22858e-05
-5.47698e-06
3.24188e-05
-5.58195e-06
3.25216e-05
-5.75061e-06
3.25035e-05
-5.8238e-06
3.25119e-05
-5.81566e-06
3.23825e-05
-5.78696e-06
3.22597e-05
-5.64523e-06
3.20568e-05
-5.43051e-06
3.18151e-05
-5.15903e-06
3.15461e-05
-4.80829e-06
3.12665e-05
-4.34174e-06
3.10082e-05
-3.88031e-06
3.08007e-05
-3.33442e-06
3.05986e-05
-2.79796e-06
3.05048e-05
-2.33803e-06
3.04006e-05
-1.87468e-06
3.03475e-05
-1.52891e-06
3.04115e-05
-1.22206e-06