/*--------------------------------*- C++ -*----------------------------------*\
| =========                 |                                                 |
| \\      /  F ield         | OpenFOAM: The Open Source CFD Toolbox           |
|  \\    /   O peration     | Version:  2.4.0                                 |
|   \\  /    A nd           | Web:      www.OpenFOAM.org                      |
|    \\/     M anipulation  |                                                 |
\*---------------------------------------------------------------------------*/
FoamFile
{
    version     2.0;
    format      ascii;
    class       surfaceScalarField;
    location    "1.9";
    object      phi_0;
}
// * * * * * * * * * * * * * * * * * * * * * * * * * * * * * * * * * * * * * //

dimensions      [0 3 -1 0 0 0 0];

internalField   nonuniform List<scalar> 
17320
(
1.76381e-05
7.36187e-06
1.16192e-05
6.01894e-06
8.68356e-06
2.93563e-06
7.35397e-06
1.32959e-06
6.71752e-06
6.36447e-07
6.34776e-06
3.6977e-07
6.07419e-06
2.73569e-07
5.86598e-06
2.08205e-07
5.71559e-06
1.50395e-07
5.58342e-06
1.32167e-07
5.46836e-06
1.15059e-07
5.40206e-06
6.62958e-08
5.3056e-06
9.64675e-08
5.22519e-06
8.04033e-08
5.13784e-06
8.7353e-08
5.09218e-06
4.56564e-08
4.97596e-06
1.16221e-07
5.01961e-06
-4.36453e-08
4.79129e-06
2.2832e-07
-4.44915e-07
5.2362e-06
2.54623e-05
6.89955e-06
2.325e-05
8.23123e-06
2.09934e-05
5.19229e-06
1.93155e-05
3.00741e-06
1.80777e-05
1.87433e-06
1.71166e-05
1.33078e-06
1.63602e-05
1.02999e-06
1.57728e-05
7.95682e-07
1.53172e-05
6.05926e-07
1.49333e-05
5.16107e-07
1.46256e-05
4.22727e-07
1.43919e-05
2.99988e-07
1.41432e-05
3.45159e-07
1.39448e-05
2.78794e-07
1.37286e-05
3.03555e-07
1.35865e-05
1.8779e-07
1.33385e-05
3.64238e-07
1.3316e-05
-2.11708e-08
1.31474e-05
3.96958e-07
-5.16564e-07
1.3219e-05
2.66209e-05
5.27862e-06
2.71563e-05
7.69587e-06
2.67881e-05
5.56045e-06
2.62457e-05
3.54988e-06
2.56085e-05
2.5115e-06
2.48782e-05
2.0611e-06
2.41532e-05
1.75496e-06
2.35035e-05
1.44534e-06
2.29439e-05
1.1656e-06
2.24423e-05
1.01765e-06
2.20298e-05
8.35256e-07
2.16942e-05
6.35621e-07
2.13513e-05
6.88045e-07
2.10804e-05
5.49696e-07
2.07921e-05
5.91807e-07
2.05742e-05
4.05694e-07
2.02804e-05
6.581e-07
2.01605e-05
9.87029e-08
2.01281e-05
4.29322e-07
-8.64752e-07
2.04763e-05
2.63233e-05
3.9553e-06
2.75368e-05
6.48235e-06
2.80972e-05
5.00006e-06
2.84529e-05
3.19424e-06
2.86493e-05
2.31509e-06
2.86349e-05
2.07546e-06
2.84655e-05
1.92436e-06
2.8232e-05
1.67891e-06
2.79788e-05
1.41879e-06
2.76895e-05
1.30689e-06
2.74262e-05
1.09861e-06
2.71869e-05
8.74895e-07
2.69154e-05
9.5957e-07
2.66749e-05
7.90206e-07
2.64363e-05
8.30376e-07
2.61929e-05
6.49131e-07
2.59727e-05
8.78297e-07
2.56825e-05
3.88837e-07
2.556e-05
5.51831e-07
-4.74201e-07
2.51695e-05
2.60347e-05
2.92059e-06
2.72301e-05
5.28692e-06
2.80539e-05
4.17625e-06
2.85181e-05
2.73005e-06
2.89753e-05
1.8579e-06
2.93405e-05
1.71031e-06
2.95863e-05
1.67852e-06
2.97201e-05
1.54509e-06
2.98454e-05
1.29353e-06
2.99099e-05
1.24237e-06
2.99558e-05
1.05274e-06
2.99673e-05
8.63354e-07
2.99774e-05
9.49464e-07
2.99187e-05
8.48906e-07
2.98999e-05
8.49212e-07
2.97652e-05
7.83871e-07
2.97564e-05
8.8709e-07
2.9425e-05
7.20189e-07
2.93115e-05
6.65378e-07
1.57319e-08
2.88215e-05
2.58388e-05
2.08182e-06
2.69521e-05
4.17362e-06
2.78156e-05
3.31276e-06
2.82495e-05
2.29608e-06
2.86995e-05
1.40793e-06
2.90833e-05
1.32651e-06
2.94864e-05
1.27542e-06
2.96985e-05
1.33302e-06
2.9997e-05
9.94985e-07
3.01467e-05
1.09269e-06
3.04089e-05
7.90558e-07
3.04914e-05
7.80828e-07
3.07762e-05
6.64669e-07
3.08289e-05
7.96238e-07
3.10373e-05
6.40782e-07
3.09839e-05
8.37281e-07
3.12332e-05
6.37718e-07
3.09387e-05
1.01476e-06
3.09657e-05
6.38397e-07
7.55413e-07
3.0226e-05
2.56867e-05
1.3951e-06
2.67021e-05
3.15826e-06
2.76027e-05
2.41209e-06
2.80489e-05
1.84988e-06
2.84952e-05
9.61663e-07
2.88183e-05
1.00347e-06
2.92312e-05
8.62449e-07
2.94454e-05
1.11886e-06
2.98118e-05
6.28536e-07
2.99566e-05
9.47926e-07
3.02997e-05
4.47482e-07
3.03157e-05
7.64831e-07
3.06513e-05
3.29079e-07
3.07336e-05
7.13906e-07
3.10566e-05
3.17813e-07
3.10573e-05
8.36562e-07
3.13722e-05
3.22751e-07
3.11064e-05
1.28065e-06
3.10298e-05
7.14965e-07
1.80381e-06
2.99814e-05
2.55413e-05
8.53786e-07
2.65696e-05
2.12999e-06
2.74632e-05
1.51848e-06
2.79867e-05
1.32635e-06
2.83155e-05
6.32875e-07
2.86783e-05
6.40692e-07
2.90474e-05
4.93323e-07
2.9305e-05
8.61331e-07
2.95597e-05
3.73829e-07
2.98605e-05
6.47127e-07
3.00683e-05
2.39639e-07
3.02306e-05
6.02551e-07
3.03973e-05
1.62358e-07
3.06436e-05
4.67602e-07
3.08758e-05
8.56499e-08
3.10333e-05
6.79003e-07
3.10151e-05
3.41017e-07
3.14918e-05
8.03912e-07
3.19189e-05
2.87845e-07
9.5453e-07
3.27682e-05
2.54656e-05
3.88179e-07
2.64865e-05
1.10909e-06
2.73397e-05
6.65321e-07
2.79531e-05
7.12962e-07
2.82321e-05
3.53821e-07
2.85415e-05
3.31255e-07
2.88678e-05
1.67075e-07
2.92351e-05
4.94044e-07
2.95002e-05
1.08743e-07
2.97422e-05
4.0508e-07
2.98969e-05
8.496e-08
3.0199e-05
3.00457e-07
3.02983e-05
6.30677e-08
3.05229e-05
2.42983e-07
3.06099e-05
-1.37929e-09
3.0923e-05
3.65964e-07
3.10754e-05
1.88586e-07
3.14577e-05
4.21638e-07
3.16385e-05
1.07049e-07
3.5452e-07
3.22385e-05
2.54247e-05
-3.64787e-08
2.64447e-05
8.90886e-08
2.72764e-05
-1.66373e-07
2.78579e-05
1.31412e-07
2.82076e-05
4.10239e-09
2.85588e-05
-1.9918e-08
2.88025e-05
-7.66723e-08
2.91558e-05
1.40742e-07
2.94204e-05
-1.55845e-07
2.96915e-05
1.34036e-07
2.98791e-05
-1.0265e-07
3.01383e-05
4.12316e-08
3.02604e-05
-5.9039e-08
3.04317e-05
7.17125e-08
3.06166e-05
-1.86307e-07
3.09204e-05
6.22053e-08
3.1067e-05
4.19469e-08
3.13451e-05
1.43532e-07
3.16501e-05
-1.97905e-07
1.12457e-07
3.18921e-05
2.54051e-05
-4.41593e-07
2.64373e-05
-9.43062e-07
2.72663e-05
-9.95436e-07
2.78937e-05
-4.95948e-07
2.8236e-05
-3.38256e-07
2.85254e-05
-3.09314e-07
2.8768e-05
-3.19263e-07
2.91966e-05
-2.87794e-07
2.94123e-05
-3.71564e-07
2.96881e-05
-1.41812e-07
2.98407e-05
-2.5523e-07
3.01701e-05
-2.88157e-07
3.02508e-05
-1.39712e-07
3.04425e-05
-1.19972e-07
3.06126e-05
-3.56485e-07
3.08482e-05
-1.73401e-07
3.10217e-05
-1.31481e-07
3.14139e-05
-2.48654e-07
3.16425e-05
-4.26499e-07
-6.91451e-08
3.18241e-05
2.54599e-05
-9.01525e-07
2.65131e-05
-1.99619e-06
2.73093e-05
-1.79168e-06
2.79144e-05
-1.10109e-06
2.82622e-05
-6.85986e-07
2.85914e-05
-6.38504e-07
2.88376e-05
-5.65554e-07
2.92175e-05
-6.67683e-07
2.94675e-05
-6.21517e-07
2.97472e-05
-4.21532e-07
2.99493e-05
-4.57343e-07
3.01703e-05
-5.09122e-07
3.03006e-05
-2.70029e-07
3.05381e-05
-3.5749e-07
3.06534e-05
-4.7172e-07
3.08825e-05
-4.02571e-07
3.11657e-05
-4.14679e-07
3.14483e-05
-5.31196e-07
3.16314e-05
-6.09605e-07
-3.99359e-07
3.19616e-05
2.55431e-05
-1.44464e-06
2.65882e-05
-3.04126e-06
2.74171e-05
-2.62064e-06
2.80301e-05
-1.71402e-06
2.83373e-05
-9.9323e-07
2.8667e-05
-9.68199e-07
2.89703e-05
-8.68784e-07
2.93453e-05
-1.04276e-06
2.95668e-05
-8.42947e-07
2.98622e-05
-7.16953e-07
3.00504e-05
-6.45609e-07
3.02517e-05
-7.10425e-07
3.03995e-05
-4.17786e-07
3.06449e-05
-6.02848e-07
3.07672e-05
-5.94086e-07
3.10221e-05
-6.57476e-07
3.12275e-05
-6.20015e-07
3.1521e-05
-8.2471e-07
3.17891e-05
-8.77681e-07
-6.77967e-07
3.20677e-05
2.56706e-05
-2.11527e-06
2.67557e-05
-4.12636e-06
2.75926e-05
-3.45746e-06
2.8057e-05
-2.17846e-06
2.84712e-05
-1.40746e-06
2.88564e-05
-1.35335e-06
2.91753e-05
-1.18769e-06
2.94948e-05
-1.36231e-06
2.97548e-05
-1.10293e-06
3.00286e-05
-9.90774e-07
3.02002e-05
-8.17197e-07
3.04082e-05
-9.18419e-07
3.05812e-05
-5.90746e-07
3.08024e-05
-8.24066e-07
3.09274e-05
-7.19074e-07
3.11692e-05
-8.99263e-07
3.13617e-05
-8.1259e-07
3.16857e-05
-1.14871e-06
3.18871e-05
-1.07899e-06
-9.3366e-07
3.21427e-05
2.58409e-05
-2.95619e-06
2.6966e-05
-5.25144e-06
2.77973e-05
-4.28877e-06
2.82254e-05
-2.60655e-06
2.87026e-05
-1.88467e-06
2.90999e-05
-1.75067e-06
2.94543e-05
-1.54203e-06
2.97354e-05
-1.64346e-06
2.99839e-05
-1.35136e-06
3.01743e-05
-1.18116e-06
3.03701e-05
-1.01307e-06
3.05296e-05
-1.07791e-06
3.07031e-05
-7.64253e-07
3.08474e-05
-9.68381e-07
3.09566e-05
-8.28258e-07
3.11073e-05
-1.04998e-06
3.12065e-05
-9.11782e-07
3.13995e-05
-1.34166e-06
3.15179e-05
-1.19736e-06
-1.29586e-06
3.18801e-05
2.60443e-05
-4.00044e-06
2.72429e-05
-6.45004e-06
2.80049e-05
-5.0508e-06
2.84931e-05
-3.09472e-06
2.89864e-05
-2.37801e-06
2.93317e-05
-2.096e-06
2.9602e-05
-1.81229e-06
2.97293e-05
-1.77082e-06
2.98458e-05
-1.46783e-06
2.98947e-05
-1.23005e-06
2.99506e-05
-1.06897e-06
2.99359e-05
-1.06326e-06
2.99661e-05
-7.94444e-07
2.99083e-05
-9.10571e-07
2.98669e-05
-7.86823e-07
2.97853e-05
-9.68386e-07
2.96969e-05
-8.23427e-07
2.96151e-05
-1.25986e-06
2.95308e-05
-1.11297e-06
-1.40786e-06
2.96428e-05
2.63103e-05
-5.31074e-06
2.75343e-05
-7.67401e-06
2.80607e-05
-5.57723e-06
2.84636e-05
-3.49767e-06
2.86424e-05
-2.55678e-06
2.86198e-05
-2.07341e-06
2.84885e-05
-1.68091e-06
2.822e-05
-1.50235e-06
2.79577e-05
-1.20551e-06
2.76894e-05
-9.61777e-07
2.74274e-05
-8.06969e-07
2.7142e-05
-7.77884e-07
2.69233e-05
-5.75768e-07
2.66471e-05
-6.34385e-07
2.64154e-05
-5.55063e-07
2.6132e-05
-6.85009e-07
2.58904e-05
-5.81836e-07
2.55494e-05
-9.18826e-07
2.53039e-05
-8.67536e-07
-1.27265e-06
2.51687e-05
2.66063e-05
-6.91702e-06
2.71546e-05
-8.22236e-06
2.67718e-05
-5.19438e-06
2.62581e-05
-2.98397e-06
2.55949e-05
-1.89361e-06
2.48687e-05
-1.34724e-06
2.41696e-05
-9.81769e-07
2.34921e-05
-8.24878e-07
2.29231e-05
-6.36448e-07
2.24472e-05
-4.859e-07
2.20317e-05
-3.91535e-07
2.16516e-05
-3.9774e-07
2.13567e-05
-2.80817e-07
2.1043e-05
-3.20778e-07
2.07749e-05
-2.86874e-07
2.04623e-05
-3.72465e-07
2.01974e-05
-3.16911e-07
1.97794e-05
-5.00884e-07
1.94066e-05
-4.94644e-07
-4.37074e-07
1.8571e-05
2.54504e-05
-7.36746e-06
2.32449e-05
-6.01685e-06
2.09848e-05
-2.93428e-06
1.93237e-05
-1.32288e-06
1.80705e-05
-6.40387e-07
1.71065e-05
-3.83267e-07
1.63744e-05
-2.49595e-07
1.57667e-05
-2.17175e-07
1.52983e-05
-1.68119e-07
1.49341e-05
-1.21626e-07
1.46343e-05
-9.17598e-08
1.43521e-05
-1.15579e-07
1.41416e-05
-7.03189e-08
1.39127e-05
-9.18791e-08
1.371e-05
-8.41293e-08
1.34612e-05
-1.23636e-07
1.32425e-05
-9.82388e-08
1.29105e-05
-1.68887e-07
1.26344e-05
-2.18543e-07
-5.72416e-08
1.22546e-05
1.76325e-05
1.16157e-05
8.68141e-06
7.35853e-06
6.71814e-06
6.33488e-06
6.08528e-06
5.86811e-06
5.69999e-06
5.57836e-06
5.4866e-06
5.37102e-06
5.3007e-06
5.20883e-06
5.1247e-06
5.00106e-06
4.90282e-06
4.73393e-06
4.51539e-06
4.45815e-06
5.77274e-06
-2.18921e-07
-3.17617e-07
6.27848e-06
-2.31613e-08
-4.82579e-07
6.58167e-06
6.60107e-08
-3.69198e-07
6.76926e-06
8.38103e-10
-1.88434e-07
6.91083e-06
-1.10674e-07
-3.0896e-08
7.06818e-06
-1.65766e-07
8.41942e-09
7.23617e-06
-1.8772e-07
1.97337e-08
7.40688e-06
-1.91843e-07
2.11267e-08
7.5545e-06
-1.68678e-07
2.10583e-08
7.70803e-06
-1.26371e-07
-2.71539e-08
7.85818e-06
-8.77512e-08
-6.23984e-08
8.0138e-06
-5.23269e-08
-1.03297e-07
8.16782e-06
-4.77753e-08
-1.06245e-07
8.3015e-06
-5.59307e-08
-7.77513e-08
8.4304e-06
-8.6156e-08
-4.27365e-08
8.53075e-06
-1.22277e-07
2.19231e-08
8.61275e-06
-1.52902e-07
7.08992e-08
8.6962e-06
-1.73611e-07
9.01593e-08
8.77304e-06
-1.5197e-07
7.51303e-08
8.8546e-06
-1.30865e-07
4.93035e-08
8.9443e-06
-9.34245e-08
3.72558e-09
9.05359e-06
-4.21138e-08
-6.71748e-08
9.16944e-06
-2.00467e-08
-9.58026e-08
9.30631e-06
2.79007e-08
-1.64765e-07
9.43495e-06
2.9306e-08
-1.57953e-07
9.55454e-06
3.1201e-08
-1.50787e-07
9.67287e-06
2.95766e-08
-1.47912e-07
9.80319e-06
1.51931e-08
-1.45509e-07
9.93425e-06
1.75817e-08
-1.48641e-07
1.00819e-05
-6.06271e-09
-1.41549e-07
1.02532e-05
-4.2777e-08
-1.28513e-07
1.04189e-05
-1.12229e-07
-5.35359e-08
1.05658e-05
-2.31376e-07
8.44726e-08
1.06719e-05
-3.99093e-07
2.93012e-07
1.07058e-05
-5.78728e-07
5.44792e-07
1.06842e-05
-7.90174e-07
8.11836e-07
1.05721e-05
-9.77411e-07
1.08952e-06
1.03356e-05
-1.1121e-06
1.34858e-06
1.00208e-05
-1.18069e-06
1.49551e-06
9.70227e-06
-1.15545e-06
1.47395e-06
9.35509e-06
-1.03482e-06
1.382e-06
8.93979e-06
-7.49987e-07
1.16529e-06
8.49245e-06
-3.93466e-07
8.40804e-07
8.22035e-06
7.76492e-08
1.94447e-07
8.17342e-06
6.58056e-07
-6.11124e-07
8.62206e-06
1.27782e-06
-1.72646e-06
9.51638e-06
1.85474e-06
-2.74906e-06
1.05667e-05
2.16452e-06
-3.21484e-06
1.14582e-05
2.32481e-06
-3.21626e-06
1.22131e-05
2.2995e-06
-3.05441e-06
1.28573e-05
2.0469e-06
-2.69118e-06
1.33445e-05
2.04801e-06
-2.53517e-06
1.38957e-05
1.86029e-06
-2.41147e-06
1.43452e-05
1.74709e-06
-2.19661e-06
1.47956e-05
1.54138e-06
-1.99175e-06
1.51739e-05
1.38908e-06
-1.7674e-06
1.54795e-05
9.71443e-07
-1.27709e-06
1.5774e-05
7.57555e-07
-1.052e-06
1.58716e-05
3.96221e-07
-4.93843e-07
1.59509e-05
3.04802e-08
-1.0978e-07
1.58921e-05
-3.22638e-07
3.81472e-07
1.57514e-05
-6.0469e-07
7.45333e-07
1.55079e-05
-8.73411e-07
1.11694e-06
1.51615e-05
-1.01253e-06
1.35896e-06
1.48615e-05
-1.08064e-06
1.38063e-06
1.45765e-05
-9.27321e-07
1.21228e-06
1.44474e-05
-7.95792e-07
9.24907e-07
1.44988e-05
-6.06876e-07
5.55497e-07
1.462e-05
-4.31055e-07
3.09858e-07
1.49604e-05
-4.11551e-07
7.11023e-08
1.52792e-05
-2.89481e-07
-2.93202e-08
1.56567e-05
-4.69913e-07
9.24066e-08
1.61466e-05
-5.08936e-07
1.90655e-08
1.64864e-05
-7.26391e-07
3.86586e-07
1.70332e-05
-9.52337e-07
4.05494e-07
1.74416e-05
-1.14617e-06
7.3786e-07
1.78498e-05
-1.49474e-06
1.0865e-06
1.83517e-05
-1.80987e-06
1.308e-06
1.86995e-05
-2.05339e-06
1.70554e-06
1.91507e-05
-2.49485e-06
2.0437e-06
1.95315e-05
-2.75814e-06
2.37736e-06
1.99296e-05
-3.13697e-06
2.73882e-06
2.03743e-05
-3.49267e-06
3.04799e-06
2.07578e-05
-3.73077e-06
3.34728e-06
2.1274e-05
-4.12653e-06
3.61036e-06
2.17386e-05
-4.33301e-06
3.86838e-06
2.22032e-05
-4.63529e-06
4.17064e-06
2.27031e-05
-4.91323e-06
4.41335e-06
2.31321e-05
-5.09272e-06
4.66369e-06
2.35581e-05
-5.314e-06
4.88809e-06
2.39976e-05
-5.50655e-06
5.067e-06
2.43475e-05
-5.48546e-06
5.1356e-06
2.4655e-05
-5.52838e-06
5.22084e-06
2.4891e-05
-5.39164e-06
5.15562e-06
2.49917e-05
-5.0956e-06
4.99495e-06
2.5137e-05
-4.71996e-06
4.57461e-06
2.51754e-05
-4.17642e-06
4.13808e-06
2.53493e-05
-3.59936e-06
3.42545e-06
2.55405e-05
-2.93236e-06
2.74117e-06
2.57891e-05
-2.30857e-06
2.05995e-06
2.60565e-05
-1.77631e-06
1.50885e-06
2.6343e-05
-1.24953e-06
9.63086e-07
2.66201e-05
-8.48686e-07
5.7161e-07
2.69565e-05
-6.53011e-07
3.16566e-07
2.72186e-05
-5.0568e-07
2.43632e-07
2.75728e-05
-5.23143e-07
1.68884e-07
2.78548e-05
-7.59312e-07
4.77307e-07
2.81652e-05
-1.03293e-06
7.22526e-07
2.84463e-05
-1.48045e-06
1.1994e-06
2.87915e-05
-2.04947e-06
1.70428e-06
2.9105e-05
-2.67139e-06
2.35782e-06
2.94393e-05
-3.44931e-06
3.11504e-06
2.97506e-05
-4.24205e-06
3.93079e-06
3.01045e-05
-5.17027e-06
4.81633e-06
3.0352e-05
-6.08341e-06
5.8359e-06
3.07249e-05
-7.12295e-06
6.75004e-06
3.08603e-05
-8.06485e-06
7.92948e-06
3.10238e-05
-9.05627e-06
8.8927e-06
3.10389e-05
-1.00228e-05
1.00078e-05
3.08668e-05
-1.08411e-05
1.10131e-05
3.058e-05
-1.16101e-05
1.18968e-05
3.00877e-05
-1.22473e-05
1.27397e-05
2.95605e-05
-1.27948e-05
1.3322e-05
2.88878e-05
-1.32076e-05
1.38803e-05
2.82518e-05
-1.3556e-05
1.4192e-05
2.77518e-05
-1.3959e-05
1.4459e-05
2.75105e-05
-1.43772e-05
1.46184e-05
2.74252e-05
-1.48092e-05
1.48945e-05
2.75013e-05
-1.52066e-05
1.51305e-05
2.7594e-05
-1.55284e-05
1.54357e-05
2.76662e-05
-1.58077e-05
1.57355e-05
2.75454e-05
-1.58468e-05
1.59676e-05
2.70199e-05
-1.56652e-05
1.61907e-05
2.61656e-05
-1.52652e-05
1.61194e-05
2.48503e-05
-1.46939e-05
1.60093e-05
2.32968e-05
-1.40194e-05
1.55729e-05
2.16042e-05
-1.33971e-05
1.50896e-05
2.00113e-05
-1.29316e-05
1.45246e-05
1.86826e-05
-1.2644e-05
1.39727e-05
1.75558e-05
-1.23749e-05
1.35017e-05
1.68604e-05
-1.22156e-05
1.2911e-05
1.64444e-05
-1.19683e-05
1.23842e-05
1.63363e-05
-1.15998e-05
1.17079e-05
1.64907e-05
-1.10509e-05
1.08966e-05
1.68119e-05
-1.0282e-05
9.96083e-06
1.72334e-05
-9.35615e-06
8.93461e-06
1.77356e-05
-8.12962e-06
7.62744e-06
1.84035e-05
-7.12152e-06
6.45358e-06
1.90213e-05
-5.74158e-06
5.12379e-06
1.98475e-05
-4.47752e-06
3.65134e-06
2.04425e-05
-2.87259e-06
2.27759e-06
2.13277e-05
-1.52386e-06
6.38623e-07
2.18708e-05
3.46439e-07
-8.89456e-07
2.27287e-05
1.65281e-06
-2.51073e-06
2.33517e-05
3.50143e-06
-4.12446e-06
2.40959e-05
4.76067e-06
-5.50487e-06
2.47592e-05
6.47803e-06
-7.14134e-06
2.52307e-05
7.70754e-06
-8.179e-06
2.56592e-05
9.19232e-06
-9.62084e-06
2.59229e-05
1.024e-05
-1.05037e-05
2.59029e-05
1.14479e-05
-1.14279e-05
2.55509e-05
1.24624e-05
-1.21103e-05
2.51262e-05
1.31911e-05
-1.27665e-05
2.40785e-05
1.38681e-05
-1.28204e-05
2.31862e-05
1.37516e-05
-1.28593e-05
2.22259e-05
1.37757e-05
-1.28153e-05
2.11522e-05
1.34562e-05
-1.23825e-05
2.03659e-05
1.29327e-05
-1.21464e-05
1.95771e-05
1.21967e-05
-1.14079e-05
1.92553e-05
1.12989e-05
-1.09771e-05
1.8742e-05
1.10662e-05
-1.05528e-05
1.82503e-05
1.02367e-05
-9.74493e-06
1.77274e-05
9.58754e-06
-9.06466e-06
1.72757e-05
8.44954e-06
-7.99789e-06
1.74451e-05
7.49185e-06
-7.66122e-06
1.70307e-05
7.77809e-06
-7.36372e-06
1.63881e-05
7.46809e-06
-6.82547e-06
1.54105e-05
6.80741e-06
-5.82984e-06
1.44783e-05
5.5624e-06
-4.63018e-06
1.41125e-05
4.69268e-06
-4.32683e-06
1.38209e-05
4.32388e-06
-4.0323e-06
1.40129e-05
4.33786e-06
-4.52984e-06
1.39661e-05
3.95712e-06
-3.91033e-06
1.36477e-05
2.82812e-06
-2.50975e-06
1.25221e-05
2.33678e-06
-1.21115e-06
1.11344e-05
3.06419e-06
-1.67647e-06
9.81805e-06
5.7314e-06
-4.4151e-06
8.7146e-06
1.03642e-05
-9.2607e-06
8.46436e-06
1.43377e-05
-1.40875e-05
8.63054e-06
1.69308e-05
-1.7097e-05
9.16963e-06
1.72701e-05
-1.78092e-05
9.49548e-06
1.8862e-05
-1.91878e-05
9.4293e-06
2.10428e-05
-2.09766e-05
9.5598e-06
2.23405e-05
-2.2471e-05
9.63172e-06
2.19668e-05
-2.20388e-05
9.70371e-06
2.16677e-05
-2.17397e-05
9.96532e-06
2.28823e-05
-2.31439e-05
9.10304e-06
2.42699e-05
-2.34077e-05
9.08672e-06
2.35053e-05
-2.3489e-05
2.83239e-05
-2.94149e-05
1.01777e-05
1.33127e-05
-3.12587e-07
1.34212e-05
-1.31627e-07
1.34895e-05
-2.31374e-09
1.35085e-05
-1.82238e-08
1.3507e-05
-1.09102e-07
1.35742e-05
-2.32952e-07
1.36854e-05
-2.99003e-07
1.38101e-05
-3.16515e-07
1.39222e-05
-2.80779e-07
1.40195e-05
-2.23682e-07
1.41119e-05
-1.80181e-07
1.41891e-05
-1.29523e-07
1.42806e-05
-1.39186e-07
1.43559e-05
-1.31309e-07
1.44366e-05
-1.66864e-07
1.45084e-05
-1.9399e-07
1.45555e-05
-2.00021e-07
1.4619e-05
-2.37105e-07
1.46635e-05
-1.9647e-07
1.47326e-05
-1.99984e-07
1.47969e-05
-1.57699e-07
1.48695e-05
-1.14728e-07
1.49623e-05
-1.1283e-07
1.50479e-05
-5.77502e-08
1.51449e-05
-6.76845e-08
1.52336e-05
-5.7488e-08
1.53154e-05
-5.22732e-08
1.54151e-05
-8.44958e-08
1.55096e-05
-7.68903e-08
1.56196e-05
-1.16016e-07
1.57403e-05
-1.63552e-07
1.58598e-05
-2.31661e-07
1.596e-05
-3.31615e-07
1.60405e-05
-4.79563e-07
1.60633e-05
-6.01571e-07
1.60389e-05
-7.65773e-07
1.59471e-05
-8.85588e-07
1.57698e-05
-9.34762e-07
1.55669e-05
-9.77812e-07
1.52868e-05
-8.7541e-07
1.49651e-05
-7.13128e-07
1.46848e-05
-4.69625e-07
1.43808e-05
-8.95238e-08
1.41274e-05
3.3107e-07
1.40028e-05
7.82711e-07
1.39861e-05
1.29452e-06
1.41573e-05
1.68349e-06
1.441e-05
1.91181e-06
1.47158e-05
2.01908e-06
1.49838e-05
2.03144e-06
1.52226e-05
1.80812e-06
1.54645e-05
1.8061e-06
1.57086e-05
1.6162e-06
1.59859e-05
1.46977e-06
1.62467e-05
1.28057e-06
1.65282e-05
1.10761e-06
1.67096e-05
7.9004e-07
1.69481e-05
5.19006e-07
1.71021e-05
2.42281e-07
1.71563e-05
-2.37221e-08
1.71883e-05
-3.54687e-07
1.71051e-05
-5.21433e-07
1.70056e-05
-7.7393e-07
1.68561e-05
-8.63037e-07
1.67193e-05
-9.43778e-07
1.67134e-05
-9.21484e-07
1.67627e-05
-8.45095e-07
1.70073e-05
-8.51458e-07
1.73098e-05
-7.33558e-07
1.76639e-05
-7.6565e-07
1.8166e-05
-7.9154e-07
1.85626e-05
-8.66563e-07
1.9105e-05
-1.05135e-06
1.9593e-05
-1.21433e-06
2.00819e-05
-1.44132e-06
2.06506e-05
-1.71485e-06
2.11201e-05
-1.96424e-06
2.16477e-05
-2.33747e-06
2.21737e-05
-2.57936e-06
2.26616e-05
-2.98283e-06
2.31914e-05
-3.2879e-06
2.36853e-05
-3.63084e-06
2.42021e-05
-4.00949e-06
2.47323e-05
-4.26096e-06
2.52156e-05
-4.60988e-06
2.57691e-05
-4.88651e-06
2.62271e-05
-5.09326e-06
2.66841e-05
-5.37024e-06
2.71577e-05
-5.56633e-06
2.7486e-05
-5.64228e-06
2.78083e-05
-5.82889e-06
2.80142e-05
-5.69133e-06
2.81339e-05
-5.64805e-06
2.82139e-05
-5.47167e-06
2.8241e-05
-5.12272e-06
2.82697e-05
-4.74862e-06
2.83002e-05
-4.2069e-06
2.83274e-05
-3.62664e-06
2.84276e-05
-3.03247e-06
2.85326e-05
-2.41358e-06
2.86688e-05
-1.91252e-06
2.88813e-05
-1.46206e-06
2.90491e-05
-1.0165e-06
2.93309e-05
-9.34765e-07
2.95039e-05
-6.78645e-07
2.97847e-05
-8.04013e-07
2.9984e-05
-9.58616e-07
3.02264e-05
-1.27534e-06
3.0425e-05
-1.67901e-06
3.06294e-05
-2.25383e-06
3.08403e-05
-2.8823e-06
3.09938e-05
-3.60281e-06
3.11569e-05
-4.40519e-06
3.12767e-05
-5.29008e-06
3.1313e-05
-6.11969e-06
3.13146e-05
-7.12455e-06
3.11778e-05
-7.92804e-06
3.09975e-05
-8.87597e-06
3.05984e-05
-9.62376e-06
3.01525e-05
-1.03951e-05
2.96027e-05
-1.10603e-05
2.9022e-05
-1.16666e-05
2.84194e-05
-1.21921e-05
2.79004e-05
-1.26887e-05
2.75955e-05
-1.32511e-05
2.74726e-05
-1.38361e-05
2.74358e-05
-1.43403e-05
2.74581e-05
-1.48315e-05
2.74598e-05
-1.52083e-05
2.73416e-05
-1.54102e-05
2.68671e-05
-1.53332e-05
2.60077e-05
-1.49873e-05
2.47065e-05
-1.4364e-05
2.29844e-05
-1.35431e-05
2.08868e-05
-1.25963e-05
1.8665e-05
-1.17975e-05
1.67216e-05
-1.14537e-05
1.50996e-05
-1.13097e-05
1.39013e-05
-1.14456e-05
1.30315e-05
-1.15051e-05
1.25864e-05
-1.17705e-05
1.26119e-05
-1.19938e-05
1.28816e-05
-1.18694e-05
1.33886e-05
-1.15579e-05
1.39473e-05
-1.08407e-05
1.4444e-05
-9.8529e-06
1.51467e-05
-8.8323e-06
1.563e-05
-7.60488e-06
1.62985e-05
-6.41005e-06
1.68771e-05
-5.05613e-06
1.74284e-05
-3.42388e-06
1.78964e-05
-1.9919e-06
1.83188e-05
-7.58947e-08
1.87862e-05
1.18541e-06
1.93674e-05
2.92016e-06
1.99713e-05
4.15684e-06
2.09151e-05
5.53418e-06
2.16288e-05
6.99384e-06
2.24598e-05
8.36131e-06
2.31127e-05
9.58713e-06
2.36115e-05
1.0949e-05
2.36857e-05
1.23881e-05
2.37088e-05
1.3168e-05
2.32949e-05
1.42821e-05
2.2446e-05
1.46005e-05
2.15243e-05
1.46974e-05
2.03531e-05
1.46273e-05
1.92489e-05
1.4037e-05
1.80106e-05
1.3435e-05
1.70044e-05
1.23051e-05
1.65237e-05
1.15468e-05
1.58123e-05
1.09481e-05
1.52037e-05
1.01961e-05
1.4476e-05
9.1772e-06
1.45423e-05
7.4256e-06
1.49466e-05
7.37376e-06
1.51023e-05
7.31242e-06
1.53018e-05
6.60785e-06
1.4906e-05
5.95819e-06
1.46033e-05
4.99537e-06
1.38127e-05
5.11455e-06
1.34243e-05
4.72624e-06
1.28869e-05
4.49456e-06
1.2117e-05
3.59801e-06
1.11183e-05
3.33542e-06
9.77733e-06
4.40519e-06
8.58659e-06
6.92214e-06
7.71976e-06
1.1231e-05
8.04597e-06
1.40115e-05
8.68007e-06
1.62967e-05
9.52128e-06
1.64289e-05
1.04031e-05
1.79802e-05
1.10678e-05
2.03782e-05
1.14654e-05
2.19429e-05
1.20934e-05
2.13389e-05
1.20423e-05
2.17188e-05
1.28006e-05
2.2124e-05
1.2975e-05
2.40955e-05
1.5862e-05
2.06182e-05
2.86584e-05
1.55276e-05
2.03008e-05
-1.37116e-07
2.01303e-05
3.89003e-08
1.99908e-05
1.37226e-07
1.99487e-05
2.38579e-08
1.99613e-05
-1.21677e-07
2.00207e-05
-2.92336e-07
2.00937e-05
-3.72054e-07
2.01729e-05
-3.95739e-07
2.02358e-05
-3.43695e-07
2.02893e-05
-2.77149e-07
2.03407e-05
-2.31591e-07
2.03716e-05
-1.60369e-07
2.04249e-05
-1.92513e-07
2.04607e-05
-1.6712e-07
2.05118e-05
-2.17911e-07
2.05654e-05
-2.47679e-07
2.05855e-05
-2.20113e-07
2.06386e-05
-2.9017e-07
2.06475e-05
-2.05347e-07
2.06931e-05
-2.45654e-07
2.07338e-05
-1.9835e-07
2.07674e-05
-1.48311e-07
2.08406e-05
-1.86053e-07
2.08876e-05
-1.04778e-07
2.0958e-05
-1.38053e-07
2.10239e-05
-1.23423e-07
2.10804e-05
-1.08773e-07
2.11505e-05
-1.54591e-07
2.12185e-05
-1.44858e-07
2.12861e-05
-1.8359e-07
2.13605e-05
-2.37953e-07
2.14344e-05
-3.056e-07
2.1479e-05
-3.76244e-07
2.15201e-05
-5.2063e-07
2.15011e-05
-5.826e-07
2.1448e-05
-7.12588e-07
2.13478e-05
-7.85409e-07
2.11891e-05
-7.76114e-07
2.09965e-05
-7.85219e-07
2.07673e-05
-6.46212e-07
2.05254e-05
-4.71176e-07
2.02914e-05
-2.35641e-07
2.00734e-05
1.28428e-07
1.98687e-05
5.35831e-07
1.97498e-05
9.01599e-07
1.97156e-05
1.32867e-06
1.97309e-05
1.66821e-06
1.97752e-05
1.86757e-06
1.9823e-05
1.97127e-06
1.98586e-05
1.9958e-06
1.98331e-05
1.83361e-06
1.98685e-05
1.77069e-06
1.98724e-05
1.61237e-06
1.99193e-05
1.42284e-06
1.99749e-05
1.22497e-06
2.00654e-05
1.01713e-06
2.01139e-05
7.41477e-07
2.01804e-05
4.52497e-07
2.02464e-05
1.76362e-07
2.02905e-05
-6.79022e-08
2.03082e-05
-3.72382e-07
2.03625e-05
-5.75735e-07
2.03565e-05
-7.67869e-07
2.04248e-05
-9.31366e-07
2.04841e-05
-1.00308e-06
2.06526e-05
-1.08996e-06
2.0863e-05
-1.05549e-06
2.11495e-05
-1.138e-06
2.1541e-05
-1.12505e-06
2.19091e-05
-1.13377e-06
2.23924e-05
-1.27476e-06
2.28454e-05
-1.31965e-06
2.333e-05
-1.53593e-06
2.38375e-05
-1.72178e-06
2.43369e-05
-1.94076e-06
2.48481e-05
-2.22603e-06
2.53754e-05
-2.49149e-06
2.58596e-05
-2.82168e-06
2.63705e-05
-3.09031e-06
2.68792e-05
-3.49151e-06
2.73404e-05
-3.74906e-06
2.7837e-05
-4.12745e-06
2.82804e-05
-4.45295e-06
2.87344e-05
-4.71494e-06
2.91433e-05
-5.01875e-06
2.9549e-05
-5.29225e-06
2.99103e-05
-5.45455e-06
3.02068e-05
-5.66671e-06
3.04831e-05
-5.84261e-06
3.06512e-05
-5.81041e-06
3.07416e-05
-5.91926e-06
3.08032e-05
-5.75294e-06
3.07811e-05
-5.62595e-06
3.0692e-05
-5.38256e-06
3.06132e-05
-5.04399e-06
3.0444e-05
-4.57932e-06
3.0322e-05
-4.08496e-06
3.01818e-05
-3.48639e-06
3.00949e-05
-2.94565e-06
3.00634e-05
-2.38207e-06
3.009e-05
-1.93908e-06
3.01555e-05
-1.52754e-06
3.02701e-05
-1.13117e-06
3.03993e-05
-1.06389e-06
3.05581e-05
-8.37497e-07
3.07286e-05
-9.74479e-07
3.08947e-05
-1.12469e-06
3.10475e-05
-1.42822e-06
3.11942e-05
-1.82565e-06
3.13014e-05
-2.36106e-06
3.13831e-05
-2.96398e-06
3.14202e-05
-3.63992e-06
3.14275e-05
-4.41254e-06
3.13038e-05
-5.16636e-06
3.11954e-05
-6.01129e-06
3.09121e-05
-6.84122e-06
3.06062e-05
-7.62211e-06
3.01497e-05
-8.41952e-06
2.96781e-05
-9.15212e-06
2.91486e-05
-9.86561e-06
2.86042e-05
-1.05159e-05
2.81577e-05
-1.12201e-05
2.7766e-05
-1.18005e-05
2.75993e-05
-1.2522e-05
2.7476e-05
-1.31278e-05
2.74076e-05
-1.37677e-05
2.73595e-05
-1.42923e-05
2.72202e-05
-1.46922e-05
2.68865e-05
-1.48746e-05
2.61789e-05
-1.47027e-05
2.50861e-05
-1.42403e-05
2.35115e-05
-1.34128e-05
2.14828e-05
-1.23353e-05
1.8905e-05
-1.09653e-05
1.63009e-05
-9.99226e-06
1.40984e-05
-9.59498e-06
1.24923e-05
-9.84755e-06
1.11216e-05
-9.939e-06
1.01411e-05
-1.04652e-05
9.7096e-06
-1.10736e-05
9.82555e-06
-1.18864e-05
1.04545e-05
-1.26227e-05
1.12822e-05
-1.26971e-05
1.2128e-05
-1.24037e-05
1.28695e-05
-1.15823e-05
1.34728e-05
-1.04561e-05
1.40492e-05
-9.4087e-06
1.4467e-05
-8.02271e-06
1.50903e-05
-7.03333e-06
1.54502e-05
-5.41599e-06
1.58083e-05
-3.78202e-06
1.59064e-05
-2.09001e-06
1.61232e-05
-2.92694e-07
1.61595e-05
1.14913e-06
1.64057e-05
2.67399e-06
1.65226e-05
4.03989e-06
1.72355e-05
4.82126e-06
1.7965e-05
6.26436e-06
1.90534e-05
7.27298e-06
1.99201e-05
8.72036e-06
2.08226e-05
1.00465e-05
2.13822e-05
1.18286e-05
2.1592e-05
1.29583e-05
2.1701e-05
1.4173e-05
2.13088e-05
1.49928e-05
2.08266e-05
1.51796e-05
2.00872e-05
1.53667e-05
1.94099e-05
1.47143e-05
1.84338e-05
1.44111e-05
1.73823e-05
1.33566e-05
1.7032e-05
1.18971e-05
1.63402e-05
1.16398e-05
1.56872e-05
1.08491e-05
1.51007e-05
9.76379e-06
1.4311e-05
8.21528e-06
1.40846e-05
7.60018e-06
1.38833e-05
7.51366e-06
1.41058e-05
6.38537e-06
1.43082e-05
5.75576e-06
1.41213e-05
5.18234e-06
1.36916e-05
5.54426e-06
1.32774e-05
5.14037e-06
1.27143e-05
5.05771e-06
1.15621e-05
4.75014e-06
1.03346e-05
4.56301e-06
8.99657e-06
5.74317e-06
8.13199e-06
7.78672e-06
7.63828e-06
1.17247e-05
8.31096e-06
1.33388e-05
9.1916e-06
1.5416e-05
1.02989e-05
1.53216e-05
1.13484e-05
1.69306e-05
1.26595e-05
1.9067e-05
1.33946e-05
2.12078e-05
1.40665e-05
2.0667e-05
1.43326e-05
2.14527e-05
1.56917e-05
2.07648e-05
1.54808e-05
2.43064e-05
1.89534e-05
1.71457e-05
2.77872e-05
1.98245e-05
2.51887e-05
-1.56371e-07
2.52781e-05
-5.04419e-08
2.54004e-05
1.49271e-08
2.54868e-05
-6.25656e-08
2.55534e-05
-1.88328e-07
2.55713e-05
-3.10197e-07
2.55679e-05
-3.68653e-07
2.55769e-05
-4.04759e-07
2.55861e-05
-3.52828e-07
2.56336e-05
-3.24683e-07
2.56817e-05
-2.79727e-07
2.56977e-05
-1.76316e-07
2.57422e-05
-2.37091e-07
2.57266e-05
-1.51429e-07
2.57457e-05
-2.37088e-07
2.57722e-05
-2.74177e-07
2.57748e-05
-2.22636e-07
2.58349e-05
-3.50296e-07
2.58407e-05
-2.1117e-07
2.58757e-05
-2.807e-07
2.59041e-05
-2.26666e-07
2.59012e-05
-1.45441e-07
2.59453e-05
-2.30127e-07
2.59534e-05
-1.12872e-07
2.59972e-05
-1.8192e-07
2.60371e-05
-1.63326e-07
2.60787e-05
-1.50369e-07
2.61389e-05
-2.14764e-07
2.61775e-05
-1.83485e-07
2.62381e-05
-2.44184e-07
2.62663e-05
-2.66178e-07
2.63106e-05
-3.49805e-07
2.63111e-05
-3.76766e-07
2.63016e-05
-5.11195e-07
2.62495e-05
-5.30431e-07
2.61587e-05
-6.21769e-07
2.60408e-05
-6.67551e-07
2.58703e-05
-6.05636e-07
2.57004e-05
-6.15305e-07
2.54962e-05
-4.41966e-07
2.53245e-05
-2.99498e-07
2.51417e-05
-5.28538e-08
2.49814e-05
2.88682e-07
2.48985e-05
6.18814e-07
2.47792e-05
1.02081e-06
2.4768e-05
1.33987e-06
2.47828e-05
1.65345e-06
2.47884e-05
1.86194e-06
2.48283e-05
1.93139e-06
2.48626e-05
1.96152e-06
2.48078e-05
1.88839e-06
2.48402e-05
1.73834e-06
2.48132e-05
1.6393e-06
2.47883e-05
1.44775e-06
2.48039e-05
1.20939e-06
2.4797e-05
1.02398e-06
2.4812e-05
7.26485e-07
2.48067e-05
4.57799e-07
2.48142e-05
1.68885e-07
2.48665e-05
-1.20163e-07
2.48669e-05
-3.72822e-07
2.49343e-05
-6.43088e-07
2.49753e-05
-8.08941e-07
2.50687e-05
-1.02471e-06
2.51845e-05
-1.1189e-06
2.53645e-05
-1.26994e-06
2.55832e-05
-1.27424e-06
2.58442e-05
-1.39901e-06
2.61743e-05
-1.4551e-06
2.65279e-05
-1.48741e-06
2.69165e-05
-1.66332e-06
2.73296e-05
-1.73277e-06
2.77368e-05
-1.94306e-06
2.81665e-05
-2.15152e-06
2.86116e-05
-2.38587e-06
2.90081e-05
-2.62257e-06
2.94741e-05
-2.95748e-06
2.98482e-05
-3.1957e-06
3.02641e-05
-3.50624e-06
3.06423e-05
-3.86971e-06
3.09824e-05
-4.08917e-06
3.13248e-05
-4.46988e-06
3.15991e-05
-4.72721e-06
3.18825e-05
-4.99833e-06
3.20987e-05
-5.23494e-06
3.22849e-05
-5.47847e-06
3.2418e-05
-5.58771e-06
3.25132e-05
-5.76186e-06
3.24958e-05
-5.82524e-06
3.24999e-05
-5.81444e-06
3.23636e-05
-5.783e-06
3.22389e-05
-5.62827e-06
3.2026e-05
-5.41299e-06
3.1778e-05
-5.13458e-06
3.1502e-05
-4.768e-06
3.12184e-05
-4.29569e-06
3.09617e-05
-3.82832e-06
3.07506e-05
-3.27533e-06
3.05558e-05
-2.7508e-06
3.04673e-05
-2.29354e-06
3.03642e-05
-1.83601e-06
3.0331e-05
-1.49435e-06
3.03955e-05
-1.19564e-06