/*--------------------------------*- C++ -*----------------------------------*\
| =========                 |                                                 |
| \\      /  F ield         | OpenFOAM: The Open Source CFD Toolbox           |
|  \\    /   O peration     | Version:  2.4.0                                 |
|   \\  /    A nd           | Web:      www.OpenFOAM.org                      |
|    \\/     M anipulation  |                                                 |
\*---------------------------------------------------------------------------*/
FoamFile
{
    version     2.0;
    format      ascii;
    class       volScalarField;
    location    "1.9";
    object      pMean;
}
// * * * * * * * * * * * * * * * * * * * * * * * * * * * * * * * * * * * * * //

dimensions      [0 2 -2 0 0 0 0];

internalField   nonuniform List<scalar> 
8800
(
86.6156
74.1804
66.7767
63.2186
61.3265
59.8962
58.6878
57.5416
56.512
55.4836
54.5326
53.5488
52.6425
51.703
50.8599
49.9908
49.225
48.4424
47.737
46.9575
83.5044
73.826
66.9453
63.3325
61.3865
59.9214
58.6953
57.5419
56.51
55.4812
54.5297
53.5466
52.64
51.7012
50.8582
49.9889
49.2271
48.4363
47.7376
46.916
81.5395
73.9017
67.5472
63.7081
61.5543
60.0005
58.7419
57.5746
56.5343
55.4982
54.5402
53.5512
52.6416
51.6993
50.8575
49.9828
49.2324
48.4279
47.7866
46.9457
80.0041
73.9629
68.1341
64.1315
61.7383
60.088
58.8047
57.6309
56.5831
55.5368
54.5681
53.5683
52.653
51.7026
50.8612
49.9773
49.239
48.4334
47.8823
47.1016
78.7551
73.936
68.61
64.5372
61.9071
60.155
58.8541
57.6882
56.6392
55.5883
54.6039
53.5949
52.6665
51.7119
50.8615
49.9777
49.235
48.4566
47.8988
47.3094
77.7696
73.8391
68.9756
64.8832
62.0579
60.1973
58.883
57.7322
56.6898
55.6377
54.6397
53.6212
52.6786
51.7199
50.8582
49.976
49.2227
48.4727
47.9537
47.6115
77.0133
73.7224
69.2436
65.1628
62.1936
60.2227
58.8922
57.7632
56.7295
55.6793
54.669
53.644
52.6859
51.726
50.8505
49.9728
49.2026
48.475
48.027
47.9897
76.4595
73.6224
69.4241
65.3756
62.3117
60.2426
58.8844
57.7875
56.7563
55.7136
54.6881
53.6654
52.6865
51.7343
50.8373
49.9754
49.1764
48.4672
47.9558
48.337
76.0991
73.552
69.5374
65.5205
62.3969
60.2564
58.8751
57.8037
56.7764
55.7382
54.703
53.6806
52.6903
51.7405
50.8333
49.9764
49.1632
48.4766
48.0237
48.6697
75.92
73.5198
69.5946
65.5976
62.4423
60.2661
58.8701
57.8142
56.7894
55.7542
54.713
53.6912
52.6955
51.7475
50.8355
49.9818
49.1692
48.4954
48.0868
48.7827
75.9132
73.53
69.5949
65.6026
62.4418
60.2699
58.8674
57.8181
56.7894
55.7586
54.7135
53.6965
52.6974
51.755
50.8397
49.9919
49.1772
48.5168
48.1225
48.8793
76.0826
73.5782
69.5388
65.531
62.3973
60.2648
58.8699
57.8123
56.7778
55.7484
54.7059
53.6944
52.6982
51.7601
50.8472
50.0031
49.1914
48.5322
48.1461
48.9132
76.4338
73.6602
69.4235
65.3884
62.3108
60.2556
58.8753
57.8009
56.7567
55.7293
54.6915
53.6883
52.698
51.7671
50.8593
50.0205
49.2129
48.552
48.1496
48.8825
76.9803
73.7659
69.2412
65.1756
62.1874
60.238
58.8787
57.7795
56.7262
55.6993
54.6696
53.6752
52.6953
51.7727
50.8737
50.0423
49.2424
48.5791
48.1374
48.7719
77.7341
73.8819
68.9757
64.8933
62.0483
60.2091
58.8715
57.7462
56.6859
55.6583
54.6407
53.6546
52.6898
51.7741
50.8889
50.0656
49.2813
48.6166
48.1363
48.5762
78.7162
73.9797
68.6124
64.5459
61.8954
60.1641
58.8456
57.701
56.6367
55.609
54.6074
53.6291
52.6827
51.7716
50.9042
50.0871
49.3277
48.6657
48.1654
48.3155
79.9631
74.0068
68.1393
64.1418
61.7258
60.0966
58.7981
57.6447
56.5817
55.5587
54.574
53.604
52.6749
51.7668
50.9173
50.1034
49.3735
48.7132
48.2247
48.0407
81.4979
73.9437
67.5559
63.7199
61.5422
60.0087
58.7366
57.5886
56.5344
55.5199
54.5493
53.5869
52.6695
51.7647
50.9271
50.1158
49.4064
48.7497
48.2839
47.8985
83.4622
73.8649
66.956
63.3456
61.3754
59.9292
58.6903
57.5563
56.5108
55.5031
54.54
53.5829
52.67
51.7679
50.9336
50.1255
49.4218
48.7711
48.2806
47.8219
86.5731
74.2175
66.7872
63.2321
61.3161
59.9039
58.6829
57.5562
56.5128
55.506
54.5428
53.5855
52.6727
51.7703
50.9367
50.1289
49.4254
48.7768
48.2819
47.9423
47.0391
46.9783
46.7709
46.5287
46.317
46.1478
46.0237
45.9375
45.8841
45.8593
45.8579
45.8666
45.8769
45.8797
45.8708
45.8459
45.8049
45.7437
45.6655
45.5681
45.4584
45.3429
45.2305
45.1253
45.035
44.9627
44.9106
44.8737
44.8479
44.8244
44.798
44.7641
44.723
44.6744
44.6183
44.5514
44.4728
44.3758
44.2618
44.1267
43.9761
43.8097
43.6424
43.4813
43.3399
43.2197
43.129
43.0644
43.0273
43.0084
43.0012
42.9909
42.973
42.9375
42.889
42.8177
42.7335
42.6315
42.5216
42.3944
42.2544
42.0936
41.9204
41.7338
41.5495
41.377
41.2338
41.131
41.0777
41.0664
41.0982
41.1591
41.2487
41.349
41.4632
41.5723
41.6822
41.7739
41.8555
41.9124
41.9539
41.9725
41.982
41.9723
41.9625
41.9454
41.936
41.9342
41.9449
41.9714
42.016
42.0799
42.1631
42.2592
42.3688
42.4846
42.6116
42.7399
42.8743
43.0036
43.1328
43.2501
43.3646
43.4564
43.5467
43.6162
43.6863
43.7416
43.8027
43.8487
43.8964
43.9293
43.9616
43.9774
43.9931
43.9969
44.0039
44.0024
44.0078
44.0084
44.0222
44.0371
44.0721
44.1066
44.1646
44.2141
44.2933
44.3616
44.4622
44.5622
44.6914
44.8231
44.9717
45.1161
45.2691
45.4136
45.5657
45.7072
45.8513
45.9846
46.1247
46.2617
46.4098
46.5596
46.7219
46.8841
47.0584
47.2353
47.4187
47.601
47.7843
47.9633
48.1434
48.3165
48.4909
48.6604
48.8383
49.0036
49.1796
49.3424
49.5236
49.6737
49.849
49.9819
50.141
50.2562
50.4015
50.4983
50.6292
50.6963
50.8267
50.8677
51.012
51.0461
51.2175
51.2563
51.4659
51.5129
51.7669
51.841
52.1309
52.2518
52.5786
52.7711
53.1309
53.3948
53.7845
54.0879
54.5003
54.8035
55.1979
55.4208
55.683
55.6358
55.4987
54.7198
53.4757
50.2107
46.0402
25.757
46.8012
46.7767
46.7166
46.568
46.3801
46.2015
46.0654
45.9758
45.9291
45.9123
45.9174
45.9295
45.9416
45.944
45.9351
45.9095
45.8687
45.8096
45.7356
45.6458
45.5464
45.4414
45.3397
45.2444
45.1629
45.0957
45.0458
45.0089
44.9835
44.9616
44.9394
44.9103
44.8746
44.8293
44.7764
44.7108
44.6339
44.5397
44.4306
44.3024
44.1614
44.0082
43.854
43.7042
43.5704
43.455
43.3652
43.2984
43.2555
43.2276
43.2118
43.1947
43.174
43.1382
43.0916
43.0249
42.9456
42.8481
42.7405
42.6168
42.4817
42.3297
42.1669
41.9951
41.8253
41.6665
41.5326
41.4315
41.3735
41.3532
41.3729
41.4203
41.4955
41.5833
41.6828
41.78
41.8742
41.9532
42.0191
42.0637
42.0933
42.1027
42.1027
42.0896
42.0737
42.0552
42.0399
42.0336
42.0368
42.0542
42.088
42.1399
42.2101
42.2935
42.3918
42.4985
42.6155
42.7339
42.8569
42.9761
43.0951
43.2043
43.3079
43.3917
43.4715
43.5347
43.595
43.6424
43.6907
43.7276
43.7625
43.7858
43.8041
43.8089
43.8071
43.7984
43.7877
43.7738
43.7627
43.7499
43.7512
43.755
43.7807
43.8072
43.8577
43.904
43.9767
44.0443
44.1369
44.2314
44.3502
44.472
44.6103
44.7439
44.8872
45.0205
45.1623
45.294
45.4265
45.5487
45.6778
45.8032
45.9385
46.0759
46.2286
46.3763
46.5439
46.7085
46.8871
47.0606
47.2397
47.4126
47.5969
47.7677
47.9517
48.1227
48.3146
48.4799
48.6678
48.8291
49.0142
49.1553
49.329
49.4516
49.6056
49.7085
49.8456
49.9169
50.0404
50.0713
50.1909
50.1914
50.3237
50.3142
50.4767
50.4724
50.6731
50.6841
50.9205
50.9719
51.228
51.3326
51.6112
51.7787
52.0892
52.2982
52.6417
52.8523
53.1994
53.3583
53.6309
53.6224
53.6718
53.2275
52.7176
51.0942
49.3442
43.6377
37.7812
19.0861
46.7865
46.7878
46.7951
46.699
46.5103
46.2918
46.1104
45.9928
45.9431
45.9381
45.959
45.9837
46.0036
46.0083
45.9987
45.9704
45.9274
45.8677
45.7962
45.7124
45.6226
45.5284
45.4381
45.3531
45.2801
45.2186
45.1721
45.1363
45.1115
45.0899
45.0699
45.0437
45.012
44.9698
44.9199
44.8566
44.7822
44.692
44.5892
44.4706
44.3418
44.2035
44.0641
43.9283
43.805
43.6966
43.6093
43.5408
43.493
43.4575
43.4331
43.4085
43.3827
43.3452
43.2984
43.2349
43.1588
43.0661
42.9617
42.843
42.7134
42.5715
42.4218
42.2665
42.1141
41.9712
41.8496
41.7544
41.6946
41.6682
41.6773
41.7136
41.7751
41.8503
41.9353
42.0188
42.0972
42.162
42.2118
42.2436
42.2603
42.2621
42.2528
42.2357
42.2132
42.1909
42.1705
42.1578
42.1522
42.1588
42.18
42.2189
42.2751
42.3476
42.4356
42.5351
42.6424
42.7526
42.8654
42.9749
43.0827
43.1832
43.2749
43.3508
43.4214
43.4797
43.533
43.5764
43.6172
43.6498
43.6763
43.6945
43.7019
43.6976
43.6826
43.6629
43.6392
43.6126
43.5901
43.5666
43.5629
43.5595
43.5816
43.6037
43.6516
43.6995
43.7678
43.8369
43.9237
44.0165
44.1268
44.2406
44.3693
44.4938
44.6282
44.7521
44.8826
45.0044
45.125
45.2359
45.3544
45.4689
45.5944
45.7233
45.8677
46.0086
46.1718
46.328
46.5022
46.663
46.8358
46.9994
47.1847
47.3532
47.5479
47.7218
47.9253
48.0934
48.2931
48.458
48.6429
48.7787
48.9472
49.0574
49.2074
49.2886
49.4215
49.4598
49.5786
49.5751
49.6853
49.6481
49.7742
49.7247
49.8818
49.8425
50.0187
50.0104
50.1992
50.2378
50.4373
50.5186
50.7471
50.8651
51.1351
51.2626
51.56
51.6543
51.9278
51.9135
52.0747
51.7786
51.6713
50.6897
50.0552
47.3091
45.3823
38.3381
31.3024
18.5624
46.5822
46.6139
46.8167
46.8037
46.6078
46.3407
46.1142
45.977
45.9333
45.9497
45.9974
46.0456
46.0811
46.0924
46.0823
46.0496
46.0014
45.9382
45.8667
45.7868
45.7048
45.6209
45.542
45.4679
45.4047
45.3504
45.3087
45.275
45.2506
45.2287
45.209
45.184
45.1545
45.1148
45.067
45.0066
44.936
44.8515
44.7567
44.6494
44.5344
44.4121
44.2894
44.1684
44.057
43.9564
43.8727
43.8033
43.7507
43.7083
43.6759
43.6447
43.6136
43.5744
43.5272
43.4665
43.3939
43.3068
43.2081
43.0971
42.9765
42.8466
42.7112
42.5728
42.4381
42.3117
42.2029
42.1154
42.0561
42.0249
42.0244
42.0485
42.0953
42.1556
42.2244
42.2917
42.3533
42.4029
42.4379
42.4583
42.464
42.4577
42.4401
42.4173
42.3894
42.362
42.3359
42.3145
42.298
42.2916
42.2994
42.3254
42.3699
42.4327
42.5126
42.604
42.7028
42.8035
42.9067
43.0058
43.102
43.1909
43.2701
43.336
43.3985
43.4536
43.504
43.5477
43.5865
43.6186
43.6425
43.6575
43.6577
43.6461
43.624
43.5945
43.5641
43.5283
43.5012
43.4745
43.4696
43.4632
43.4847
43.5065
43.556
43.6048
43.6724
43.7404
43.8276
43.9194
44.0276
44.1368
44.2576
44.3758
44.5018
44.6184
44.7398
44.8508
44.9596
45.0589
45.1679
45.2714
45.391
45.5148
45.6548
45.7967
45.9577
46.1082
46.2765
46.4233
46.59
46.7428
46.9293
47.0932
47.2989
47.478
47.6929
47.8671
48.0794
48.2402
48.4252
48.5508
48.7211
48.803
48.9603
49.0045
49.1426
49.1415
49.262
49.221
49.328
49.2575
49.3817
49.3105
49.445
49.3949
49.5219
49.5063
49.6331
49.6499
49.7933
49.8346
50.0144
50.0636
50.2875
50.3137
50.5652
50.505
50.7478
50.4781
50.6242
49.9027
49.816
48.127
47.4746
43.8814
41.4141
34.7805
27.312
18.7763
47.2653
47.2076
47.0605
46.8164
46.5155
46.2156
46.0025
45.8992
45.892
45.9456
46.0299
46.1091
46.1653
46.1867
46.1779
46.141
46.0866
46.0183
45.9445
45.8666
45.7907
45.7163
45.6487
45.5863
45.5337
45.4882
45.4525
45.4225
45.3994
45.3779
45.3579
45.3338
45.3057
45.2689
45.2245
45.1691
45.1045
45.0283
44.9434
44.8487
44.7481
44.6417
44.5345
44.4277
44.3276
44.2348
44.1543
44.0847
44.0282
43.9809
43.942
43.9056
43.8698
43.829
43.7815
43.724
43.6562
43.5766
43.4864
43.3856
43.2766
43.1601
43.0398
42.9178
42.7998
42.6889
42.5925
42.513
42.456
42.4214
42.412
42.4239
42.4551
42.4984
42.5485
42.5979
42.642
42.6769
42.699
42.7087
42.7054
42.6913
42.6675
42.6381
42.6042
42.569
42.5339
42.5
42.4695
42.4478
42.4422
42.4555
42.4907
42.545
42.6187
42.7037
42.7955
42.8894
42.9839
43.0733
43.1584
43.2349
43.3023
43.3597
43.4167
43.4701
43.5197
43.5664
43.6055
43.6394
43.6632
43.6757
43.6724
43.6556
43.6302
43.5959
43.5647
43.527
43.5015
43.4788
43.4755
43.4741
43.4975
43.5254
43.5756
43.627
43.6953
43.7651
43.8567
43.9474
44.059
44.1644
44.2828
44.393
44.5139
44.6233
44.7413
44.8403
44.9428
45.0307
45.1317
45.2239
45.3417
45.4612
45.6048
45.7495
45.9115
46.0551
46.2199
46.3512
46.5161
46.6577
46.8474
47.0084
47.2241
47.4056
47.6344
47.807
48.0355
48.1807
48.3712
48.4757
48.6517
48.701
48.8699
48.8707
49.016
48.9748
49.0975
49.021
49.1194
49.0349
49.147
49.0804
49.1825
49.1292
49.2156
49.1764
49.2555
49.2276
49.331
49.3073
49.4547
49.4021
49.6013
49.4756
49.7157
49.4329
49.6791
49.0877
49.2345
48.0863
47.9169
45.7802
44.7436
41.1309
37.9364
32.6469
25.6158
19.3038
47.8431
47.7494
47.3183
46.8253
46.3752
46.0312
45.8475
45.8048
45.8597
45.9677
46.0936
46.2011
46.2722
46.2991
46.2883
46.2462
46.1846
46.1103
46.033
45.9558
45.8842
45.8178
45.76
45.7088
45.6663
45.63
45.6009
45.5758
45.555
45.5347
45.5151
45.492
45.4654
45.4318
45.3916
45.3424
45.2852
45.2187
45.1448
45.0631
44.9763
44.8847
44.7917
44.6984
44.6089
44.5244
44.4481
44.38
44.3213
44.2702
44.2258
44.1844
44.144
44.1009
44.0532
43.9985
43.9356
43.8635
43.7824
43.6924
43.5956
43.493
43.3879
43.282
43.18
43.0842
42.9997
42.9285
42.8748
42.8387
42.8228
42.8249
42.842
42.869
42.9006
42.9325
42.9601
42.9806
42.9911
42.9914
42.9802
42.9589
42.9281
42.8903
42.8472
42.8009
42.7536
42.7048
42.6585
42.6199
42.6017
42.6041
42.6311
42.6796
42.7498
42.8305
42.9169
43.0058
43.0931
43.1745
43.25
43.3178
43.377
43.4305
43.4853
43.5387
43.5904
43.6414
43.6838
43.7195
43.7439
43.7537
43.7481
43.7261
43.7005
43.6669
43.6386
43.6077
43.5891
43.5759
43.5797
43.5906
43.6208
43.6598
43.7131
43.7715
43.8415
43.9198
44.0148
44.1129
44.2276
44.333
44.4515
44.5535
44.6717
44.7736
44.8892
44.9786
45.0792
45.1575
45.2501
45.334
45.4515
45.5696
45.7229
45.8706
46.0372
46.1772
46.3359
46.4551
46.6153
46.7507
46.9419
47.0966
47.3268
47.5026
47.749
47.9109
48.1545
48.2775
48.4861
48.5578
48.7492
48.7582
48.9393
48.9001
49.0508
48.9678
49.0919
48.9808
49.0765
48.9855
49.0915
49.0252
49.1192
49.0432
49.1144
49.0307
49.0842
48.9838
49.0679
48.9508
49.0728
48.9024
49.0585
48.7906
48.972
48.5183
48.6555
47.8651
47.8129
46.4709
45.9641
43.8116
42.2988
39.1691
35.7132
31.7066
25.6401
20.413
48.4885
48.2947
47.4794
46.6717
46.0587
45.7083
45.6138
45.6866
45.8412
46.0206
46.1883
46.317
46.3938
46.4177
46.3986
46.347
46.2761
46.1955
46.1147
46.0383
45.9702
45.9111
45.8618
45.8207
45.7875
45.7601
45.7376
45.7179
45.7002
45.6823
45.6634
45.6416
45.6164
45.5858
45.5497
45.5066
45.4569
45.3999
45.3367
45.2672
45.1931
45.1151
45.0349
44.954
44.8744
44.798
44.7265
44.6611
44.6021
44.5491
44.5011
44.4563
44.4125
44.368
44.3206
44.2688
44.2108
44.1461
44.0739
43.9949
43.9103
43.8215
43.7306
43.6399
43.552
43.4695
43.3954
43.3322
43.2825
43.2479
43.2289
43.2245
43.2314
43.2449
43.2608
43.2767
43.2895
43.2979
43.2984
43.29
43.2709
43.2421
43.2027
43.1541
43.0996
43.0412
42.9807
42.9166
42.8543
42.7999
42.7686
42.7627
42.7853
42.8331
42.9033
42.9829
43.0667
43.1521
43.2325
43.3085
43.3766
43.4388
43.4952
43.5515
43.6064
43.6623
43.7187
43.7739
43.8197
43.8565
43.8826
43.8907
43.8835
43.8579
43.8319
43.8021
43.7805
43.7633
43.7561
43.7589
43.7779
43.8081
43.853
43.908
43.9714
44.0397
44.1153
44.2016
44.3014
44.409
44.5243
44.6367
44.7523
44.8559
44.9702
45.0697
45.1813
45.2693
45.365
45.4372
45.5241
45.6064
45.7248
45.8457
46.0049
46.1632
46.3326
46.4749
46.6231
46.7345
46.8875
47.0202
47.2099
47.3527
47.5984
47.7676
48.0234
48.1875
48.4408
48.5399
48.767
48.8128
49.0128
48.996
49.1712
49.1106
49.2507
49.1507
49.253
49.1275
49.2133
49.137
49.2294
49.172
49.2474
49.1682
49.2122
49.0966
49.1068
48.9519
48.979
48.7907
48.8211
48.5707
48.6133
48.2574
48.306
47.7485
47.702
46.8252
46.5491
45.1605
44.4023
42.3984
40.6954
38.1716
34.8587
31.7324
26.6928
22.0583
49.7818
49.3451
47.727
46.3897
45.5662
45.2378
45.2841
45.5265
45.8213
46.0898
46.3006
46.4442
46.5193
46.5337
46.5007
46.4361
46.3545
46.2681
46.1851
46.1108
46.0474
45.9955
45.9542
45.9222
45.8973
45.8778
45.8615
45.8471
45.8327
45.8175
45.8
45.7798
45.7559
45.7281
45.6954
45.6576
45.6141
45.5653
45.5108
45.4516
45.3878
45.3209
45.2512
45.1807
45.1101
45.0415
44.9756
44.9139
44.8562
44.8034
44.7541
44.7082
44.6636
44.6198
44.5742
44.5264
44.4739
44.4169
44.3539
44.2859
44.2126
44.1362
44.0576
43.9797
43.9036
43.8327
43.7681
43.7129
43.668
43.636
43.6154
43.6066
43.6051
43.6078
43.6104
43.6131
43.6133
43.6118
43.6039
43.5876
43.5607
43.5236
43.4745
43.4154
43.3502
43.2803
43.2084
43.1311
43.0548
42.9884
42.9475
42.9379
42.9605
43.0118
43.0827
43.1624
43.2445
43.3267
43.403
43.4748
43.5398
43.6029
43.6622
43.7254
43.7838
43.846
43.9078
43.9654
44.0125
44.0489
44.0751
44.0835
44.0751
44.0504
44.0248
44.0026
43.9927
43.9938
44.0041
44.0304
44.0725
44.129
44.1944
44.2699
44.3474
44.4283
44.5146
44.6099
44.7169
44.8298
44.9457
45.0619
45.175
45.2869
45.4009
45.5026
45.6144
45.7042
45.7927
45.8673
45.9468
46.0336
46.1592
46.2825
46.4556
46.627
46.7987
46.9399
47.0899
47.1863
47.3372
47.4629
47.6542
47.791
48.0426
48.2092
48.4621
48.6286
48.8938
48.9789
49.2127
49.2395
49.4431
49.4147
49.581
49.5227
49.6423
49.5328
49.6062
49.4743
49.5405
49.4861
49.5711
49.5277
49.5844
49.5043
49.5286
49.3713
49.3415
49.1334
49.0963
48.8272
48.7575
48.4198
48.3566
47.9102
47.8638
47.2064
47.0444
46.1036
45.6995
44.3431
43.4833
41.7222
39.9969
37.991
34.9754
32.32
28.1411
23.9498
50.2997
49.8065
47.9016
46.2993
45.3302
44.9826
45.0965
45.4417
45.8299
46.1668
46.417
46.5765
46.6495
46.6513
46.6009
46.521
46.4281
46.3362
46.252
46.1805
46.122
46.0773
46.0436
46.0198
46.0023
45.9897
45.9789
45.9689
45.9576
45.9447
45.9287
45.9101
45.8877
45.8621
45.8322
45.7986
45.7601
45.7176
45.6699
45.6187
45.5631
45.5049
45.4438
45.3818
45.3189
45.2572
45.1966
45.1389
45.0837
45.0325
44.984
44.9391
44.8954
44.8537
44.811
44.7678
44.7213
44.6718
44.6172
44.5591
44.4963
44.4314
44.364
44.2976
44.2327
44.1728
44.1178
44.0709
44.0312
44.002
43.9809
43.9682
43.9587
43.9512
43.9417
43.932
43.9215
43.9117
43.8968
43.8749
43.8427
43.7997
43.7431
43.6752
43.5998
43.5198
43.4375
43.3486
43.2643
43.1901
43.1454
43.1363
43.1634
43.2193
43.2928
43.3723
43.454
43.5341
43.6093
43.6791
43.7467
43.8176
43.8874
43.9595
44.0257
44.0957
44.1616
44.2186
44.2636
44.298
44.3245
44.3334
44.3267
44.3069
44.2889
44.2811
44.2882
44.3098
44.3442
44.3978
44.4687
44.5556
44.6459
44.7454
44.8403
44.9371
45.0359
45.1394
45.2534
45.3667
45.4849
45.6017
45.7158
45.8378
45.9512
46.061
46.1758
46.265
46.3532
46.4306
46.5058
46.6046
46.7421
46.8718
47.0588
47.2463
47.4332
47.5561
47.7348
47.7997
47.964
48.0765
48.2614
48.4052
48.6542
48.808
49.0736
49.2264
49.5142
49.5663
49.837
49.828
50.0504
49.9842
50.1724
50.1022
50.2372
50.0818
50.1475
50.0108
50.08
50.0374
50.114
50.0831
50.1292
50.0453
50.0588
49.8309
49.7878
49.5187
49.4234
49.0627
48.9313
48.4871
48.3446
47.8619
47.7346
47.0742
46.8549
45.8562
45.3964
44.1001
43.1977
41.6892
39.9986
38.3265
35.6356
33.2057
29.6727
25.8944
50.5518
50.1012
48.1162
46.3935
45.3244
44.9139
45.0219
45.4079
45.8507
46.2346
46.5159
46.6898
46.7624
46.7544
46.6899
46.597
46.4949
46.3986
46.314
46.2455
46.1923
46.1544
46.128
46.1116
46.1007
46.0938
46.0873
46.0808
46.072
46.0612
46.0467
46.0296
46.0088
45.9853
45.958
45.9279
45.8934
45.856
45.8141
45.7693
45.7206
45.6696
45.6157
45.5608
45.5044
45.4487
45.3932
45.3402
45.2885
45.2403
45.1942
45.1515
45.1105
45.072
45.0336
44.9956
44.9551
44.9126
44.8659
44.8168
44.7637
44.7089
44.6518
44.5963
44.542
44.4922
44.4467
44.408
44.3743
44.3488
44.3279
44.3107
44.2927
44.2752
44.2556
44.2355
44.216
44.2002
44.1813
44.1569
44.1224
44.0763
44.0162
43.9438
43.8611
43.7711
43.6794
43.5804
43.4911
43.4122
43.3681
43.3614
43.3969
43.4597
43.5389
43.6197
43.7045
43.7837
43.8588
43.9284
44.003
44.0851
44.1698
44.2531
44.3299
44.4056
44.4738
44.5298
44.5738
44.6078
44.6346
44.6441
44.6432
44.634
44.6305
44.6432
44.6739
44.7216
44.7841
44.8673
44.9692
45.0864
45.2059
45.3294
45.445
45.5599
45.6713
45.7808
45.8967
46.0085
46.1276
46.2417
46.362
46.492
46.6112
46.7296
46.8512
46.9427
47.0387
47.1179
47.2006
47.3093
47.4641
47.6035
47.8051
48.0042
48.2216
48.3148
48.5445
48.5566
48.7478
48.8363
49.0386
49.1643
49.4217
49.5434
49.8448
49.9677
50.2978
50.2867
50.632
50.5393
50.8505
50.6866
50.958
50.8532
51.0472
50.7969
50.8877
50.7133
50.8265
50.7791
50.8802
50.8299
50.8863
50.7681
50.79
50.4649
50.4399
50.116
49.9624
49.4861
49.3108
48.7804
48.6478
48.1612
48.0231
47.2827
47.0628
45.9884
45.5078
44.2838
43.3549
42.0581
40.4495
38.9457
36.5567
34.2495
31.1683
27.7767
50.7087
50.2815
48.271
46.4903
45.3693
44.918
45.0165
45.42
45.8917
46.3018
46.6003
46.7821
46.8529
46.8363
46.7617
46.6605
46.5536
46.4562
46.3735
46.3092
46.2616
46.2301
46.2104
46.2
46.1943
46.1915
46.1882
46.184
46.1769
46.1675
46.1544
46.1388
46.1197
46.0984
46.0736
46.0465
46.0159
45.9828
45.9459
45.9064
45.8635
45.8186
45.7709
45.7222
45.6719
45.6221
45.5719
45.5236
45.4764
45.4323
45.3899
45.3507
45.3132
45.2785
45.2446
45.212
45.1778
45.1425
45.1041
45.0638
45.0202
44.9753
44.9289
44.884
44.8395
44.7989
44.7628
44.7322
44.7044
44.6815
44.6596
44.637
44.611
44.5848
44.556
44.5279
44.5027
44.4829
44.463
44.4406
44.4088
44.3643
44.3048
44.2311
44.1454
44.0481
43.9489
43.8426
43.7511
43.6701
43.6328
43.6282
43.6734
43.7425
43.8284
43.9105
44.0021
44.083
44.1613
44.2314
44.3176
44.4121
44.5129
44.6062
44.6925
44.7706
44.8398
44.8947
44.9414
44.9774
45.0072
45.0214
45.0336
45.0381
45.0585
45.0953
45.1588
45.234
45.3315
45.4451
45.5808
45.7242
45.8744
46.0162
46.1586
46.2883
46.4142
46.5266
46.6437
46.7475
46.8655
46.9745
47.107
47.2383
47.374
47.4997
47.6308
47.7329
47.8408
47.9253
48.0271
48.1445
48.3218
48.4687
48.6863
48.8859
49.1384
49.2114
49.4805
49.4387
49.6841
49.7188
49.976
50.0454
50.3407
50.4203
50.7663
50.8445
51.2049
51.1315
51.5511
51.39
51.7795
51.5411
51.9363
51.7662
52.039
51.6816
51.8421
51.5946
51.797
51.6913
51.8496
51.757
51.838
51.6901
51.7203
51.2782
51.2545
50.8759
50.6303
50.1303
49.9269
49.4031
49.3174
48.734
48.5706
47.7431
47.5725
46.4244
45.9142
44.7656
43.8277
42.6686
41.1912
39.7316
37.5754
35.372
32.6058
29.5518
50.7673
50.3395
48.3261
46.5453
45.429
44.9847
45.0937
45.5068
45.9843
46.3941
46.6883
46.8621
46.9231
46.8969
46.8156
46.7114
46.6052
46.5107
46.4329
46.3743
46.333
46.3074
46.2931
46.2869
46.2845
46.2841
46.2826
46.2797
46.2739
46.2655
46.2539
46.2398
46.2228
46.2036
46.1816
46.1575
46.1304
46.1013
46.069
46.0344
45.9968
45.9572
45.9151
45.8719
45.8272
45.7828
45.7383
45.6952
45.6535
45.6142
45.5765
45.5415
45.5085
45.4783
45.4493
45.4218
45.394
45.366
45.3361
45.3047
45.2707
45.2357
45.2004
45.1662
45.1325
45.1019
45.0753
45.0521
45.0287
45.0063
44.9823
44.9541
44.9204
44.884
44.8456
44.8107
44.7821
44.7627
44.7477
44.7324
44.7084
44.6721
44.6196
44.5495
44.4631
44.3615
44.2569
44.148
44.0577
43.9819
43.956
43.9543
44.0089
44.0792
44.1686
44.2476
44.3469
44.4308
44.5168
44.5922
44.6975
44.8063
44.9257
45.0264
45.1178
45.1884
45.2596
45.3101
45.3647
45.4053
45.4438
45.4663
45.4977
45.523
45.5773
45.6428
45.7461
45.851
45.989
46.1316
46.3027
46.4696
46.6517
46.8117
46.9777
47.1173
47.2601
47.3754
47.4969
47.5964
47.7097
47.8144
47.9558
48.0875
48.2386
48.3774
48.5213
48.6388
48.7604
48.8577
48.9765
49.103
49.2947
49.4589
49.6814
49.8788
50.1585
50.2518
50.4786
50.4171
50.7422
50.6981
51.018
51.0168
51.3809
51.426
51.8018
51.8675
52.2016
52.1005
52.575
52.3876
52.8098
52.5567
53.0444
52.8305
53.1395
52.7116
52.9203
52.6197
52.9432
52.795
52.9966
52.8543
52.9592
52.8095
52.7385
52.2764
52.2194
51.7107
51.4921
51.0128
50.7826
50.2489
50.1018
49.4858
49.3253
48.509
48.1829
47.0986
46.5562
45.4885
44.5862
43.447
42.0939
40.6122
38.6422
36.5435
34.0047
31.2257
50.718
50.2818
48.2999
46.5792
45.5235
45.1353
45.2755
45.6863
46.1404
46.5192
46.7836
46.931
46.9721
46.9347
46.8506
46.7493
46.6495
46.5629
46.4935
46.4426
46.4084
46.3881
46.3777
46.3739
46.3731
46.3732
46.3723
46.3698
46.3647
46.3574
46.3473
46.335
46.3202
46.3035
46.2844
46.2635
46.2403
46.2152
46.1874
46.1575
46.1249
46.0903
46.0535
46.0156
45.9767
45.938
45.8997
45.8628
45.8269
45.7929
45.7607
45.7309
45.7033
45.6783
45.6551
45.6334
45.612
45.5908
45.5693
45.5472
45.5231
45.4981
45.4737
45.4505
45.4282
45.4086
45.3917
45.375
45.3558
45.3343
45.3072
45.272
45.2297
45.1841
45.1388
45.1005
45.0718
45.0549
45.0471
45.042
45.0303
45.0078
44.968
44.9057
44.8218
44.7215
44.6165
44.51
44.4226
44.3571
44.343
44.3488
44.41
44.4759
44.5614
44.6387
44.749
44.8371
44.9339
45.0212
45.1527
45.2768
45.4158
45.5195
45.6125
45.6715
45.7397
45.7863
45.8536
45.8974
45.9497
45.9854
46.0444
46.0983
46.1924
46.2908
46.437
46.577
46.7589
46.9313
47.1383
47.3253
47.5333
47.7073
47.8957
48.0429
48.2018
48.3213
48.4505
48.5457
48.6613
48.7677
48.9148
49.0549
49.2223
49.3719
49.53
49.6651
49.7978
49.9091
50.046
50.1837
50.3808
50.564
50.7861
50.9983
51.2647
51.4135
51.5501
51.5177
51.8597
51.7596
52.1315
52.1118
52.5385
52.5675
52.9199
53.0131
53.3036
53.2282
53.6669
53.4869
53.9727
53.7747
54.2453
54.0929
54.3156
53.8782
54.1514
53.7768
54.2135
54.0224
54.2614
54.113
54.2014
54.0151
53.8956
53.4334
53.3063
52.7066
52.5273
52.0075
51.7502
51.3204
51.0702
50.6074
50.1626
49.4471
48.9437
47.9828
47.4103
46.4033
45.5545
44.3649
43.118
41.5681
39.7583
37.7466
35.3813
32.8227
50.515
50.0743
48.1955
46.6175
45.6857
45.394
45.568
45.9519
46.3493
46.6666
46.8769
46.9813
46.9955
46.9475
46.8654
46.7732
46.6858
46.6117
46.5539
46.5125
46.4853
46.4694
46.4612
46.4579
46.4566
46.456
46.4545
46.4517
46.447
46.4404
46.4317
46.4213
46.4088
46.3948
46.379
46.3618
46.3426
46.3218
46.2987
46.2736
46.246
46.2164
46.1847
46.1522
46.1198
46.088
46.0565
46.0257
45.9961
45.9682
45.9419
45.9178
45.8961
45.8772
45.8603
45.8452
45.8316
45.8195
45.8076
45.7943
45.7795
45.7649
45.7517
45.7398
45.7293
45.7205
45.7123
45.702
45.6871
45.6662
45.6366
45.5975
45.5497
45.4968
45.4452
45.4044
45.3787
45.3694
45.3726
45.3809
45.3857
45.3805
45.356
45.3048
45.2266
45.133
45.0303
44.9306
44.8512
44.8026
44.7966
44.8062
44.8676
44.9305
45.0115
45.0994
45.2222
45.3206
45.4334
45.5444
45.6986
45.8341
45.9856
46.0916
46.1842
46.2327
46.2988
46.3455
46.4233
46.4756
46.548
46.6027
46.6924
46.7778
46.9102
47.0438
47.2312
47.4075
47.6289
47.8328
48.0706
48.2798
48.5073
48.6954
48.8998
49.0552
49.2269
49.3563
49.4913
49.5878
49.7094
49.8232
49.9823
50.1328
50.3179
50.4813
50.6522
50.8033
50.9388
51.0671
51.2102
51.3663
51.5633
51.7752
51.9831
52.2166
52.4577
52.6346
52.693
52.7779
53.0224
52.9309
53.3289
53.3397
53.7797
53.8083
54.1421
54.278
54.4688
54.5006
54.8076
54.7154
55.2368
55.1638
55.5542
55.4335
55.5959
55.2179
55.4698
55.2112
55.5562
55.3435
55.5859
55.4727
55.5202
55.3112
55.0748
54.621
54.4679
53.847
53.6278
53.1718
52.8589
52.5788
52.1274
51.8374
51.1154
50.6342
49.8363
49.0604
48.4034
47.5064
46.68
45.4192
44.2438
42.5979
40.9141
38.9497
36.7289
34.3442
50.0511
49.635
48.0213
46.7145
45.9815
45.7951
45.9718
46.288
46.5924
46.8204
46.9575
47.0103
46.9972
46.9421
46.8671
46.7889
46.7179
46.6591
46.6141
46.5819
46.5604
46.5469
46.5389
46.5343
46.5313
46.5289
46.5262
46.5228
46.5183
46.5125
46.5053
46.4968
46.4868
46.4756
46.4631
46.4495
46.4345
46.418
46.3999
46.3795
46.3569
46.3326
46.3071
46.2807
46.2544
46.2292
46.2055
46.1824
46.1597
46.1378
46.1173
46.0996
46.0851
46.0731
46.0632
46.0559
46.0509
46.0477
46.0456
46.0433
46.0398
46.0357
46.0327
46.0315
46.0318
46.0323
46.0316
46.027
46.0164
45.9978
45.9679
45.9257
45.8745
45.8177
45.7627
45.7227
45.7042
45.7065
45.7239
45.7484
45.7709
45.7828
45.7723
45.7323
45.6646
45.5829
45.4865
45.403
45.3351
45.3034
45.3049
45.3258
45.3846
45.4392
45.5183
45.6285
45.7664
45.8838
46.0144
46.1595
46.3267
46.4742
46.6304
46.7402
46.8301
46.8823
46.9443
46.9992
47.0858
47.157
47.2519
47.3364
47.4547
47.5726
47.7342
47.9029
48.1169
48.3305
48.5766
48.8151
49.0703
49.3034
49.5437
49.7525
49.9689
50.1388
50.3188
50.4604
50.6063
50.7086
50.8426
50.9665
51.1328
51.3023
51.4982
51.6711
51.8492
52.0067
52.1466
52.2928
52.4444
52.6203
52.8256
53.0675
53.2597
53.5226
53.7073
53.8686
53.938
54.1084
54.2105
54.3099
54.6235
54.7051
55.111
55.15
55.4285
55.6084
55.7462
55.8525
56.0175
56.1685
56.5973
56.595
56.8695
56.776
56.8857
56.6707
56.8821
56.7699
56.9284
56.8116
56.9236
56.8551
56.7865
56.566
56.3007
55.9497
55.6802
55.1688
54.8681
54.5005
54.0896
53.8919
53.3191
53.0917
52.1228
51.8812
50.8529
50.2935
49.4964
48.7791
47.8683
46.5894
45.4448
43.7152
42.1035
40.152
38.0654
35.8111
49.291
48.9684
47.8323
46.9245
46.4317
46.3214
46.4447
46.6448
46.8256
46.95
47.0117
47.0182
46.9847
46.9284
46.864
46.8017
46.7472
46.7027
46.6684
46.643
46.6246
46.6116
46.6023
46.5956
46.5905
46.5862
46.5824
46.5787
46.5746
46.5697
46.5639
46.557
46.5492
46.5405
46.5309
46.5207
46.5101
46.4983
46.4847
46.4692
46.4518
46.4328
46.413
46.3934
46.3742
46.3558
46.339
46.3239
46.3094
46.2946
46.2808
46.2706
46.2644
46.261
46.2594
46.2604
46.2641
46.27
46.2764
46.2819
46.2877
46.295
46.3035
46.3124
46.3211
46.3286
46.3338
46.3339
46.3271
46.3112
46.283
46.2432
46.1928
46.1361
46.0847
46.0524
46.0457
46.0615
46.0914
46.1283
46.164
46.1885
46.1899
46.1626
46.1104
46.0481
45.9635
45.9073
45.8593
45.8474
45.8535
45.8867
45.938
45.9987
46.0877
46.2159
46.3616
46.5057
46.6623
46.8415
47.0123
47.1726
47.3235
47.4435
47.5338
47.6037
47.6663
47.7406
47.8304
47.9292
48.041
48.1632
48.3022
48.4581
48.6391
48.8452
49.0741
49.3178
49.5733
49.8379
50.0969
50.3561
50.598
50.825
51.0429
51.2385
51.4249
51.5953
51.7438
51.874
52.008
52.1465
52.3102
52.5032
52.6978
52.8929
53.0677
53.2384
53.3865
53.5566
53.7159
53.918
54.1266
54.3797
54.5677
54.8728
54.9815
55.1688
55.1863
55.4193
55.5
55.7822
55.9472
56.1581
56.4133
56.5122
56.7588
56.9819
57.0185
57.2862
57.3588
57.7413
57.8935
57.9893
58.1254
58.1253
58.2124
58.2083
58.2787
58.2426
58.2503
58.2769
58.2209
58.2027
58.019
57.8475
57.4714
57.317
56.8496
56.5776
56.126
55.875
55.3714
55.2598
54.4604
54.2139
53.2051
53.0737
51.8914
51.6295
50.6187
50.0489
48.9593
47.8025
46.6114
44.8592
43.264
41.3368
39.3632
37.1921
48.4562
48.2888
47.7357
47.2647
46.9842
46.8814
46.8924
46.949
47.0046
47.0366
47.038
47.0123
46.9681
46.9152
46.8619
46.8132
46.7715
46.7372
46.7096
46.6877
46.6703
46.6565
46.6455
46.6369
46.6301
46.6247
46.6202
46.6162
46.6124
46.6083
46.6035
46.5978
46.5916
46.5854
46.5789
46.5716
46.564
46.5561
46.5473
46.5365
46.5238
46.5107
46.4975
46.484
46.4711
46.4606
46.4524
46.4452
46.4383
46.4317
46.427
46.4259
46.4281
46.4326
46.4396
46.4491
46.4607
46.474
46.4885
46.5029
46.5161
46.5293
46.5437
46.5596
46.5745
46.5862
46.5941
46.5973
46.5943
46.582
46.5591
46.5269
46.4863
46.4414
46.4023
46.3827
46.3888
46.4158
46.4551
46.4978
46.5378
46.5697
46.5825
46.5722
46.5403
46.5077
46.4505
46.426
46.3971
46.406
46.4217