/*--------------------------------*- C++ -*----------------------------------*\
| =========                 |                                                 |
| \\      /  F ield         | OpenFOAM: The Open Source CFD Toolbox           |
|  \\    /   O peration     | Version:  2.4.0                                 |
|   \\  /    A nd           | Web:      www.OpenFOAM.org                      |
|    \\/     M anipulation  |                                                 |
\*---------------------------------------------------------------------------*/
FoamFile
{
    version     2.0;
    format      ascii;
    class       volVectorField;
    location    "1.9";
    object      U;
}
// * * * * * * * * * * * * * * * * * * * * * * * * * * * * * * * * * * * * * //

dimensions      [0 1 -1 0 0 0 0];

internalField   nonuniform List<vector> 
8800
(
(8.09275 0.387934 0)
(5.45165 0.242696 0)
(3.90919 0.0430251 0)
(3.16132 -0.0155781 0)
(2.79342 -0.0182582 0)
(2.60919 -0.0113845 0)
(2.47248 -0.00511828 0)
(2.39156 -0.00240746 0)
(2.30625 -0.00179598 0)
(2.2655 -0.00068884 0)
(2.19933 0.000177437 0)
(2.18448 -0.0013133 0)
(2.12779 0.000574037 0)
(2.1194 0.000274319 0)
(2.05856 0.000490006 0)
(2.05936 -0.000668706 0)
(2.0007 0.000934145 0)
(2.00006 -0.00296103 0)
(1.99666 0.0116061 0)
(1.77954 -0.0717331 0)
(10.0806 0.838016 0)
(9.66848 0.867847 0)
(8.85851 0.507019 0)
(8.10369 0.262446 0)
(7.46682 0.138143 0)
(7.04095 0.0809384 0)
(6.66006 0.0556564 0)
(6.43658 0.0403983 0)
(6.18774 0.0288526 0)
(6.06695 0.0246236 0)
(5.87734 0.0209029 0)
(5.83469 0.0134713 0)
(5.66579 0.0177135 0)
(5.65404 0.0151881 0)
(5.49729 0.0165902 0)
(5.49551 0.00966902 0)
(5.35805 0.0214235 0)
(5.33729 -0.0070434 0)
(5.3024 0.0310927 0)
(5.14886 -0.0270882 0)
(10.0437 0.630221 0)
(10.6866 0.86453 0)
(10.8358 0.600482 0)
(10.7354 0.374392 0)
(10.4068 0.254819 0)
(10.1477 0.195959 0)
(9.77324 0.156298 0)
(9.5622 0.122304 0)
(9.24828 0.0925593 0)
(9.10842 0.0775159 0)
(8.84352 0.0621273 0)
(8.79181 0.0454416 0)
(8.55006 0.0486606 0)
(8.5356 0.0396624 0)
(8.32588 0.0426129 0)
(8.31404 0.0278047 0)
(8.13666 0.0491898 0)
(8.10604 0.00167936 0)
(8.02104 0.0379268 0)
(7.9534 -0.0724294 0)
(9.9479 0.454764 0)
(10.6309 0.707046 0)
(11.1003 0.544693 0)
(11.4591 0.357064 0)
(11.4707 0.259257 0)
(11.5561 0.224933 0)
(11.3993 0.20377 0)
(11.3946 0.17531 0)
(11.2039 0.146586 0)
(11.1795 0.128813 0)
(10.9742 0.10908 0)
(10.9731 0.0832431 0)
(10.7672 0.0910822 0)
(10.7629 0.0701597 0)
(10.5833 0.0788501 0)
(10.5563 0.0513769 0)
(10.4076 0.0873688 0)
(10.3595 0.0175221 0)
(10.2489 0.0590297 0)
(10.2541 -0.0830076 0)
(9.94091 0.343188 0)
(10.5036 0.573754 0)
(10.9381 0.453536 0)
(11.4202 0.298509 0)
(11.554 0.207153 0)
(11.7761 0.193852 0)
(11.7923 0.184831 0)
(11.9162 0.166801 0)
(11.8892 0.141395 0)
(11.9851 0.13833 0)
(11.95 0.115532 0)
(12.0097 0.094457 0)
(11.9653 0.102395 0)
(11.9994 0.0911531 0)
(11.958 0.0894932 0)
(11.9287 0.0802982 0)
(11.9112 0.0931361 0)
(11.8657 0.0680761 0)
(11.7944 0.0520833 0)
(11.8369 -0.00765781 0)
(9.9664 0.24901 0)
(10.4054 0.457666 0)
(10.8134 0.374123 0)
(11.2545 0.253017 0)
(11.4736 0.161155 0)
(11.6534 0.140108 0)
(11.7589 0.153891 0)
(11.8864 0.142385 0)
(11.9357 0.1218 0)
(12.0382 0.111788 0)
(12.1079 0.101882 0)
(12.1839 0.0769635 0)
(12.2385 0.0904202 0)
(12.3326 0.0770906 0)
(12.3825 0.0829667 0)
(12.3824 0.0736353 0)
(12.4576 0.0897553 0)
(12.4659 0.0811022 0)
(12.4689 0.0876342 0)
(12.5271 0.0122342 0)
(10.0059 0.175409 0)
(10.3145 0.357687 0)
(10.7172 0.280596 0)
(11.1325 0.203957 0)
(11.3878 0.127031 0)
(11.5662 0.119548 0)
(11.6655 0.102141 0)
(11.7984 0.118318 0)
(11.843 0.0804703 0)
(11.9607 0.107958 0)
(12.0441 0.0597046 0)
(12.1418 0.0771777 0)
(12.1587 0.0452594 0)
(12.2982 0.0800852 0)
(12.3498 0.0488556 0)
(12.4175 0.0921934 0)
(12.484 0.0352021 0)
(12.5141 0.120726 0)
(12.5383 0.062805 0)
(12.6203 0.174783 0)
(9.99924 0.105017 0)
(10.2619 0.267464 0)
(10.6678 0.189914 0)
(11.0553 0.169388 0)
(11.2962 0.0695247 0)
(11.4982 0.085154 0)
(11.6219 0.0631938 0)
(11.7375 0.111737 0)
(11.7769 0.0412163 0)
(11.8696 0.0845046 0)
(11.9951 0.0269227 0)
(12.0349 0.0813048 0)
(12.1215 0.0173139 0)
(12.1878 0.0669978 0)
(12.3003 0.00830759 0)
(12.398 0.0816674 0)
(12.392 0.0226985 0)
(12.4405 0.120077 0)
(12.5189 0.0433708 0)
(12.5613 0.197354 0)
(9.98614 0.0682613 0)
(10.2554 0.153671 0)
(10.613 0.106852 0)
(11.0039 0.0961421 0)
(11.2747 0.0626028 0)
(11.4396 0.0452916 0)
(11.572 0.030575 0)
(11.6653 0.0593445 0)
(11.7713 0.0360783 0)
(11.8516 0.04466 0)
(11.9061 0.0206562 0)
(12.0011 0.0379972 0)
(12.1112 0.0183671 0)
(12.151 0.0253799 0)
(12.238 0.0095466 0)
(12.2808 0.047411 0)
(12.38 0.0419125 0)
(12.4221 0.0476095 0)
(12.4695 0.028123 0)
(12.4193 0.0329212 0)
(9.99327 0.0111415 0)
(10.2371 0.0640106 0)
(10.6003 0.0250187 0)
(10.9676 0.045757 0)
(11.2169 0.00901599 0)
(11.4629 0.0200789 0)
(11.5615 0.00262345 0)
(11.6386 0.03791 0)
(11.7303 -0.0129526 0)
(11.8223 0.034288 0)
(11.8908 -0.00279449 0)
(11.9942 0.0205534 0)
(12.0762 -0.00500709 0)
(12.1409 0.0213806 0)
(12.1834 -0.0113088 0)
(12.301 0.0213794 0)
(12.3671 -0.00102514 0)
(12.394 0.0400945 0)
(12.4258 -0.00792161 0)
(12.4108 0.0187554 0)
(10.001 -0.0194761 0)
(10.2174 -0.0439744 0)
(10.6098 -0.0594286 0)
(10.9525 -0.0210128 0)
(11.2517 -0.00708833 0)
(11.4598 -0.0221742 0)
(11.5351 -0.020367 0)
(11.6409 -0.00870277 0)
(11.7454 -0.0182504 0)
(11.8161 -0.00653603 0)
(11.8879 -0.0175944 0)
(11.9864 -0.0128933 0)
(12.1055 -0.00779686 0)
(12.1203 -0.00479962 0)
(12.2051 -0.0267056 0)
(12.2975 -0.0100768 0)
(12.3086 0.0078151 0)
(12.4085 -0.00680892 0)
(12.4537 -0.0361276 0)
(12.3831 -0.00294454 0)
(9.99206 -0.0698676 0)
(10.2499 -0.140791 0)
(10.6331 -0.135844 0)
(10.9709 -0.0814906 0)
(11.2639 -0.05845 0)
(11.4761 -0.0422595 0)
(11.5708 -0.041226 0)
(11.6533 -0.0490075 0)
(11.7598 -0.05598 0)
(11.8354 -0.0240592 0)
(11.9227 -0.0307472 0)
(12.0205 -0.0452482 0)
(12.083 -0.0210421 0)
(12.1598 -0.0183592 0)
(12.2506 -0.0429845 0)
(12.2636 -0.0281707 0)
(12.3697 -0.032466 0)
(12.4508 -0.0419599 0)
(12.4489 -0.0489634 0)
(12.377 -0.0124935 0)
(10.0025 -0.114463 0)
(10.2686 -0.24914 0)
(10.6652 -0.217916 0)
(11.0346 -0.142242 0)
(11.3221 -0.0810283 0)
(11.5018 -0.0822718 0)
(11.5991 -0.0719715 0)
(11.7151 -0.0818067 0)
(11.8023 -0.0707094 0)
(11.8777 -0.0589191 0)
(11.9761 -0.0592531 0)
(12.0573 -0.0576675 0)
(12.1143 -0.0341132 0)
(12.2138 -0.0493517 0)
(12.2785 -0.0510437 0)
(12.3388 -0.0528653 0)
(12.4122 -0.0519342 0)
(12.4682 -0.0647732 0)
(12.4902 -0.0776864 0)
(12.4729 -0.0650099 0)
(10.0227 -0.177595 0)
(10.2921 -0.349553 0)
(10.7661 -0.29579 0)
(11.0977 -0.20114 0)
(11.395 -0.124303 0)
(11.5542 -0.11198 0)
(11.6873 -0.096964 0)
(11.7669 -0.122394 0)
(11.8738 -0.0992963 0)
(11.9512 -0.0856595 0)
(12.0497 -0.0697994 0)
(12.1057 -0.0841456 0)
(12.1992 -0.0514485 0)
(12.2726 -0.0685078 0)
(12.3482 -0.0664101 0)
(12.4043 -0.0771238 0)
(12.4746 -0.0729652 0)
(12.5379 -0.100363 0)
(12.5695 -0.105889 0)
(12.5032 -0.0769225 0)
(10.0638 -0.251519 0)
(10.3155 -0.457008 0)
(10.9033 -0.385121 0)
(11.1671 -0.24047 0)
(11.529 -0.158365 0)
(11.6067 -0.154089 0)
(11.8088 -0.135203 0)
(11.8288 -0.149727 0)
(12.0017 -0.122025 0)
(11.996 -0.113057 0)
(12.1418 -0.0942998 0)
(12.144 -0.103398 0)
(12.277 -0.0676899 0)
(12.2812 -0.0942723 0)
(12.3863 -0.0776735 0)
(12.3824 -0.100084 0)
(12.4692 -0.0875721 0)
(12.453 -0.12795 0)
(12.471 -0.11943 0)
(12.365 -0.122487 0)
(10.0633 -0.349216 0)
(10.3931 -0.566487 0)
(11.0535 -0.463409 0)
(11.2773 -0.287218 0)
(11.6715 -0.214226 0)
(11.6664 -0.193239 0)
(11.8986 -0.17038 0)
(11.8156 -0.177601 0)
(11.9986 -0.151975 0)
(11.8811 -0.12823 0)
(12.0413 -0.110895 0)
(11.9055 -0.116078 0)
(12.0534 -0.0864749 0)
(11.9084 -0.100579 0)
(12.0186 -0.086419 0)
(11.8687 -0.10776 0)
(11.9499 -0.0906204 0)
(11.7823 -0.133974 0)
(11.788 -0.121193 0)
(11.5776 -0.154864 0)
(10.0169 -0.458143 0)
(10.5553 -0.705877 0)
(11.1706 -0.5473 0)
(11.3596 -0.348703 0)
(11.5771 -0.264367 0)
(11.4406 -0.22814 0)
(11.5141 -0.195459 0)
(11.2831 -0.181945 0)
(11.3118 -0.14989 0)
(11.0577 -0.122969 0)
(11.1005 -0.105226 0)
(10.8273 -0.10128 0)
(10.9003 -0.0754683 0)
(10.6256 -0.0831304 0)
(10.6968 -0.0701912 0)
(10.4234 -0.0875692 0)
(10.4889 -0.0695641 0)
(10.1978 -0.113326 0)
(10.2091 -0.0932003 0)
(9.8834 -0.155271 0)
(10.068 -0.632933 0)
(10.6525 -0.862972 0)
(10.8688 -0.601273 0)
(10.6866 -0.371512 0)
(10.4668 -0.257783 0)
(10.0704 -0.197176 0)
(9.85721 -0.150327 0)
(9.47674 -0.125596 0)
(9.32858 -0.0970262 0)
(9.01382 -0.0737474 0)
(8.94975 -0.0586828 0)
(8.66242 -0.0566401 0)
(8.6727 -0.0414637 0)
(8.4009 -0.0449368 0)
(8.43879 -0.0405608 0)
(8.16765 -0.0503025 0)
(8.21386 -0.0449273 0)
(7.91758 -0.0679205 0)
(7.92513 -0.0698235 0)
(7.58652 -0.0849978 0)
(10.0861 -0.838775 0)
(9.65415 -0.867579 0)
(8.87138 -0.506997 0)
(8.08197 -0.260945 0)
(7.49715 -0.13875 0)
(6.99763 -0.0829143 0)
(6.70898 -0.052297 0)
(6.38667 -0.0418039 0)
(6.23454 -0.0315142 0)
(6.00823 -0.0229085 0)
(5.94414 -0.017758 0)
(5.75125 -0.0207009 0)
(5.74287 -0.0138458 0)
(5.56037 -0.017352 0)
(5.57392 -0.0162333 0)
(5.38205 -0.0229325 0)
(5.39757 -0.0201475 0)
(5.17774 -0.0317546 0)
(5.17006 -0.03798 0)
(4.88313 -0.0161877 0)
(8.09147 -0.388053 0)
(5.44854 -0.242411 0)
(3.91093 -0.0429858 0)
(3.15731 0.0156176 0)
(2.80245 0.0181458 0)
(2.5947 0.0107052 0)
(2.48748 0.00629469 0)
(2.37709 0.00208486 0)
(2.32103 0.000991453 0)
(2.24321 0.000983576 0)
(2.22271 0.00117181 0)
(2.1572 -0.000916862 0)
(2.14871 0.000611501 0)
(2.08572 -0.000752497 0)
(2.08327 -0.000393345 0)
(2.00848 -0.00237502 0)
(1.99969 -0.000780226 0)
(1.91087 -0.00375889 0)
(1.87402 -0.00424994 0)
(1.72737 0.01106 0)
(2.26218 -0.101187 0)
(2.37978 0.0205294 0)
(2.54475 0.048425 0)
(2.66413 0.022748 0)
(2.77507 -0.0175063 0)
(2.82544 -0.0336868 0)
(2.8771 -0.0365055 0)
(2.92399 -0.0339583 0)
(2.9901 -0.0291842 0)
(3.04721 -0.0216083 0)
(3.1114 -0.0119048 0)
(3.16665 -0.000847964 0)
(3.22753 0.00211082 0)
(3.28051 -0.00308512 0)
(3.3413 -0.0131989 0)
(3.38206 -0.0285984 0)
(3.43786 -0.0413435 0)
(3.46797 -0.0478529 0)
(3.51305 -0.0420779 0)
(3.53358 -0.0326184 0)
(3.57326 -0.0202573 0)
(3.59994 -1.849e-05 0)
(3.63633 0.0105075 0)
(3.68395 0.0276803 0)
(3.72576 0.0297417 0)
(3.79276 0.0275428 0)
(3.83698 0.0265547 0)
(3.89878 0.0236225 0)
(3.939 0.0252076 0)
(4.00438 0.0210909 0)
(4.0479 0.0125346 0)
(4.12546 -0.00871578 0)
(4.17362 -0.0488918 0)
(4.25219 -0.104259 0)
(4.27721 -0.177273 0)
(4.31817 -0.250921 0)
(4.27703 -0.326059 0)
(4.24277 -0.386403 0)
(4.13357 -0.438034 0)
(3.9739 -0.458276 0)
(3.87749 -0.393025 0)
(3.68739 -0.285396 0)
(3.51287 -0.186309 0)
(3.36655 -0.0321423 0)
(3.24308 0.138903 0)
(3.21811 0.378935 0)
(3.54031 0.621763 0)
(3.89593 0.759591 0)
(4.39812 0.852119 0)
(4.64608 0.826485 0)
(5.13321 0.746932 0)
(5.14354 0.763932 0)
(5.49342 0.694317 0)
(5.60276 0.66318 0)
(5.79935 0.592859 0)
(5.95152 0.552197 0)
(6.1775 0.39356 0)
(6.25344 0.331381 0)
(6.38705 0.194044 0)
(6.37864 0.0368356 0)
(6.47524 -0.073527 0)
(6.33338 -0.209864 0)
(6.3229 -0.30241 0)
(6.19685 -0.388454 0)
(5.98639 -0.405026 0)
(5.95887 -0.323034 0)
(5.69318 -0.293229 0)
(5.89803 -0.157117 0)
(5.66645 -0.105733 0)
(6.00456 -0.0930651 0)
(5.92029 -0.00535958 0)
(6.22155 -0.113852 0)
(6.28864 -0.089204 0)
(6.52674 -0.169783 0)
(6.64066 -0.273243 0)
(6.9198 -0.286337 0)
(6.96557 -0.449034 0)
(7.29217 -0.542608 0)
(7.32806 -0.607417 0)
(7.61894 -0.787399 0)
(7.72565 -0.845408 0)
(7.92028 -0.988209 0)
(8.10616 -1.10474 0)
(8.2314 -1.16149 0)
(8.44638 -1.31427 0)
(8.6279 -1.34443 0)
(8.77117 -1.45436 0)
(9.054 -1.56618 0)
(9.14748 -1.60818 0)
(9.35585 -1.72861 0)
(9.54226 -1.77408 0)
(9.62761 -1.75522 0)
(9.86068 -1.78972 0)
(9.903 -1.75086 0)
(10.0196 -1.70028 0)
(10.0033 -1.58333 0)
(10.1264 -1.44892 0)
(10.0064 -1.22198 0)
(10.2474 -1.01252 0)
(10.1207 -0.762494 0)
(10.4783 -0.579527 0)
(10.3194 -0.386861 0)
(10.7053 -0.255925 0)
(10.6064 -0.187512 0)
(10.9004 -0.11635 0)
(10.9042 -0.148883 0)
(11.1269 -0.187432 0)
(11.1835 -0.296644 0)
(11.3554 -0.4326 0)
(11.4384 -0.616914 0)
(11.6119 -0.797573 0)
(11.7075 -1.06592 0)
(11.8687 -1.29445 0)
(11.9612 -1.61659 0)
(12.1375 -1.90081 0)
(12.2041 -2.22374 0)
(12.3798 -2.56879 0)
(12.3591 -2.88533 0)
(12.4795 -3.23975 0)
(12.3653 -3.56037 0)
(12.354 -3.8373 0)
(12.1142 -4.13506 0)
(11.9468 -4.33262 0)
(11.6749 -4.54 0)
(11.4122 -4.61092 0)
(11.1514 -4.72469 0)
(10.9768 -4.81512 0)
(10.9512 -4.90287 0)
(10.9091 -5.04078 0)
(11.0313 -5.09991 0)
(11.0249 -5.25051 0)
(11.1052 -5.35486 0)
(10.9397 -5.37065 0)
(10.719 -5.33576 0)
(10.2071 -5.19886 0)
(9.65168 -5.00548 0)
(8.78861 -4.7594 0)
(8.28028 -4.5754 0)
(7.53636 -4.41168 0)
(7.15232 -4.26252 0)
(6.66033 -4.15547 0)
(6.49374 -3.98866 0)
(6.39863 -3.85437 0)
(6.32536 -3.64024 0)
(6.64788 -3.33487 0)
(6.50664 -3.0926 0)
(7.02827 -2.61883 0)
(7.00656 -2.28785 0)
(7.43103 -1.85335 0)
(7.61909 -1.39562 0)
(8.01459 -0.895007 0)
(8.21705 -0.430197 0)
(8.63091 0.153543 0)
(8.82832 0.632745 0)
(9.25081 1.2251 0)
(9.35299 1.62393 0)
(9.93399 2.21521 0)
(9.90113 2.57204 0)
(10.2638 3.08409 0)
(10.3246 3.46718 0)
(10.4156 3.79617 0)
(10.3705 4.07348 0)
(10.2417 4.3426 0)
(9.92579 4.48318 0)
(9.42841 4.46316 0)
(9.23641 4.41023 0)
(8.63798 4.31769 0)
(8.33313 4.23442 0)
(7.96644 4.01828 0)
(7.75921 3.80914 0)
(7.64288 3.76634 0)
(7.43504 3.40064 0)
(7.24814 3.10422 0)
(6.94315 2.7027 0)
(6.94615 2.55561 0)
(7.07545 2.56264 0)
(6.71005 2.38341 0)
(6.51911 2.18002 0)
(5.95294 1.70057 0)
(5.77837 1.51601 0)
(5.56883 1.31544 0)
(5.60404 1.45372 0)
(5.68553 1.31359 0)
(5.57796 0.929255 0)
(5.42845 0.610149 0)
(4.82627 0.675931 0)
(4.35933 1.55656 0)
(3.88086 3.1231 0)
(3.53093 4.71447 0)
(3.35224 5.74683 0)
(3.67255 5.94435 0)
(3.61094 6.40002 0)
(3.8578 6.98544 0)
(3.44092 7.50306 0)
(4.04143 7.43048 0)
(3.78845 7.22211 0)
(3.735 7.75407 0)
(3.96082 7.91806 0)
(4.08764 7.90713 0)
(2.42441 9.85567 0)
(5.33335 -0.0813979 0)
(5.36389 -0.0521722 0)
(5.38039 -0.0239194 0)
(5.38155 -0.0252454 0)
(5.40763 -0.0506211 0)
(5.43366 -0.0799232 0)
(5.46795 -0.0931771 0)
(5.50547 -0.0961299 0)
(5.54332 -0.0856943 0)
(5.58473 -0.0664073 0)
(5.62136 -0.0498002 0)
(5.65554 -0.0356064 0)
(5.68741 -0.0352841 0)
(5.71693 -0.0356565 0)
(5.75169 -0.0460251 0)
(5.78344 -0.0565876 0)
(5.81265 -0.0626515 0)
(5.84464 -0.0706333 0)
(5.8617 -0.0633016 0)
(5.89884 -0.0576203 0)
(5.90397 -0.0459415 0)
(5.94825 -0.0287059 0)
(5.95121 -0.0238496 0)
(6.00136 -0.00811547 0)
(6.01698 -0.00731451 0)
(6.06953 -0.00523746 0)
(6.09576 -0.00477369 0)
(6.14799 -0.0123346 0)
(6.17179 -0.0131667 0)
(6.231 -0.021854 0)
(6.24955 -0.0359659 0)
(6.31977 -0.0589822 0)
(6.34471 -0.0905266 0)
(6.40221 -0.147045 0)
(6.43306 -0.188797 0)
(6.44144 -0.255845 0)
(6.44468 -0.305208 0)
(6.38764 -0.335669 0)
(6.32435 -0.3715 0)
(6.22029 -0.32541 0)
(6.10824 -0.295091 0)
(5.94862 -0.217162 0)
(5.85508 -0.0786034 0)
(5.64839 0.0532399 0)
(5.6896 0.235955 0)
(5.45999 0.409896 0)
(5.60298 0.554491 0)
(5.59246 0.630994 0)
(5.82438 0.650874 0)
(5.83073 0.668787 0)
(6.14183 0.574438 0)
(6.06693 0.57752 0)
(6.25402 0.528185 0)
(6.31 0.475612 0)
(6.45037 0.417824 0)
(6.49283 0.373474 0)
(6.70975 0.25692 0)
(6.71843 0.174687 0)
(6.87374 0.0757058 0)
(6.85813 -0.0015337 0)
(6.96773 -0.12386 0)
(6.85695 -0.186764 0)
(6.88181 -0.287585 0)
(6.81583 -0.291604 0)
(6.71692 -0.317548 0)
(6.70321 -0.285964 0)
(6.63767 -0.234436 0)
(6.78601 -0.24664 0)
(6.78584 -0.172385 0)
(6.99915 -0.192573 0)
(7.1086 -0.190954 0)
(7.31472 -0.211327 0)
(7.50886 -0.280499 0)
(7.69968 -0.329392 0)
(7.90451 -0.398381 0)
(8.13543 -0.509021 0)
(8.30607 -0.564844 0)
(8.56277 -0.714214 0)
(8.72755 -0.791515 0)
(8.983 -0.905905 0)
(9.17704 -1.03611 0)
(9.39694 -1.1208 0)
(9.62175 -1.25623 0)
(9.80292 -1.33012 0)
(10.0287 -1.44958 0)
(10.2318 -1.54227 0)
(10.3923 -1.62011 0)
(10.6322 -1.72659 0)
(10.7779 -1.79778 0)
(10.9188 -1.82817 0)
(11.1082 -1.90699 0)
(11.1401 -1.88743 0)
(11.2567 -1.90213 0)
(11.2746 -1.88355 0)
(11.2958 -1.76585 0)
(11.3045 -1.66146 0)
(11.3172 -1.44525 0)
(11.3015 -1.26891 0)
(11.3397 -1.03439 0)
(11.3642 -0.835501 0)
(11.4189 -0.659175 0)
(11.497 -0.502162 0)
(11.5504 -0.340093 0)
(11.6944 -0.295449 0)
(11.7368 -0.222715 0)
(11.8651 -0.20439 0)
(11.9617 -0.299397 0)
(12.0392 -0.35206 0)
(12.1537 -0.505697 0)
(12.2149 -0.668874 0)
(12.3228 -0.887145 0)
(12.3842 -1.10849 0)
(12.4461 -1.39706 0)
(12.5104 -1.66953 0)
(12.5488 -1.96116 0)
(12.5524 -2.31334 0)
(12.5155 -2.60272 0)
(12.471 -2.95039 0)
(12.3477 -3.26123 0)
(12.1658 -3.51577 0)
(11.9552 -3.82353 0)
(11.7379 -4.00021 0)
(11.4533 -4.21701 0)
(11.2557 -4.31804 0)
(11.0303 -4.47973 0)
(10.9761 -4.60257 0)
(10.9069 -4.75513 0)
(10.9605 -4.8928 0)
(10.9156 -5.02777 0)
(11.0007 -5.16429 0)
(10.8584 -5.22789 0)
(10.6846 -5.18032 0)
(10.1847 -5.05932 0)
(9.65977 -4.85913 0)
(8.80625 -4.55197 0)
(7.85934 -4.28601 0)
(6.90969 -4.0612 0)
(6.31405 -3.93548 0)
(5.63902 -3.91247 0)
(5.3367 -3.87011 0)
(4.91289 -3.91461 0)
(4.98678 -3.89915 0)
(4.90933 -3.84445 0)
(5.26272 -3.70393 0)
(5.39609 -3.47358 0)
(5.58045 -3.15428 0)
(6.02649 -2.79449 0)
(5.98759 -2.46267 0)
(6.43699 -1.99159 0)
(6.48719 -1.62188 0)
(6.92547 -1.05319 0)
(6.85647 -0.684088 0)
(7.43548 -0.00973691 0)
(7.19434 0.402377 0)
(7.78039 1.02607 0)
(7.67809 1.4832 0)
(8.28971 1.95524 0)
(8.41567 2.40871 0)
(8.83016 2.90605 0)
(9.12507 3.23052 0)
(9.3575 3.74698 0)
(9.49968 4.1363 0)
(9.54838 4.33976 0)
(9.53774 4.76999 0)
(9.15217 4.77171 0)
(8.90659 4.76033 0)
(8.44727 4.6699 0)
(7.92578 4.45882 0)
(7.51332 4.20727 0)
(6.93821 3.77216 0)
(6.75142 3.66048 0)
(6.48616 3.46357 0)
(6.25959 3.29837 0)
(5.95064 2.93853 0)
(5.69544 2.36232 0)
(5.97654 2.44573 0)
(5.98546 2.48282 0)
(6.14436 2.36472 0)
(6.0677 2.06149 0)
(5.94874 1.66838 0)
(5.74969 1.6055 0)
(5.44432 1.52542 0)
(5.37668 1.44999 0)
(5.04852 1.08492 0)
(4.8014 0.950935 0)
(4.23521 1.17672 0)
(3.88822 1.97795 0)
(3.19763 3.42585 0)
(3.28145 4.69524 0)
(3.16278 5.60445 0)
(3.82344 5.65841 0)
(3.69103 6.16945 0)
(4.41305 6.96403 0)
(4.12499 7.42326 0)
(4.79213 7.33405 0)
(4.95156 7.22089 0)
(4.85724 7.56196 0)
(4.70222 8.045 0)
(6.68641 7.62623 0)
(4.8942 10.3007 0)
(7.99825 -0.0679369 0)
(8.00485 -0.0088875 0)
(8.02163 0.0185907 0)
(8.00738 0.00337586 0)
(7.99173 -0.037319 0)
(8.00002 -0.0877395 0)
(8.01354 -0.111799 0)
(8.05999 -0.117766 0)
(8.07594 -0.105799 0)
(8.11537 -0.0852818 0)
(8.12374 -0.0741277 0)
(8.14462 -0.0508947 0)
(8.15457 -0.0581533 0)
(8.16902 -0.0529397 0)
(8.18737 -0.0626793 0)
(8.20953 -0.0758874 0)
(8.22587 -0.0701485 0)
(8.25397 -0.0896805 0)
(8.25372 -0.0717906 0)
(8.29096 -0.0778576 0)
(8.27757 -0.0655005 0)
(8.31851 -0.048491 0)
(8.31107 -0.0530421 0)
(8.3426 -0.0317915 0)
(8.36118 -0.0357212 0)
(8.37965 -0.0343671 0)
(8.41488 -0.0266216 0)
(8.438 -0.0423693 0)
(8.46386 -0.0365046 0)
(8.50259 -0.0515121 0)
(8.51589 -0.0679026 0)
(8.55547 -0.0872237 0)
(8.57888 -0.121294 0)
(8.59926 -0.159038 0)
(8.62166 -0.201846 0)
(8.6121 -0.239225 0)
(8.60404 -0.277477 0)
(8.5426 -0.291274 0)
(8.50729 -0.284914 0)
(8.37394 -0.270892 0)
(8.33853 -0.194085 0)
(8.14518 -0.126474 0)
(8.14387 -0.00740225 0)
(7.92333 0.152918 0)
(7.9493 0.254366 0)
(7.81316 0.421159 0)
(7.84646 0.547621 0)
(7.81671 0.608149 0)
(7.91346 0.655968 0)
(7.85732 0.661939 0)
(7.97348 0.597607 0)
(7.93572 0.583473 0)
(7.92926 0.516483 0)
(7.95459 0.467308 0)
(7.98083 0.394552 0)
(7.97119 0.32732 0)
(8.06889 0.244837 0)
(8.05649 0.143914 0)
(8.16218 0.0679938 0)
(8.11007 -0.00586171 0)
(8.18741 -0.123056 0)
(8.15029 -0.171793 0)
(8.17075 -0.240953 0)
(8.19634 -0.296923 0)
(8.1787 -0.310269 0)
(8.22551 -0.333185 0)
(8.26944 -0.317167 0)
(8.38555 -0.333774 0)
(8.51814 -0.328367 0)
(8.6362 -0.323452 0)
(8.85954 -0.361998 0)
(8.97422 -0.37181 0)
(9.22459 -0.443996 0)
(9.39958 -0.50441 0)
(9.58822 -0.571915 0)
(9.83592 -0.673241 0)
(10.0087 -0.751079 0)
(10.2362 -0.865668 0)
(10.4414 -0.952536 0)
(10.6501 -1.08105 0)
(10.8622 -1.17407 0)
(11.06 -1.28412 0)
(11.2615 -1.40398 0)
(11.4519 -1.48896 0)
(11.5764 -1.59296 0)
(11.8246 -1.70176 0)
(11.8531 -1.75759 0)
(12.1082 -1.83515 0)
(12.1069 -1.92039 0)
(12.2842 -1.91672 0)
(12.2427 -1.98995 0)
(12.3536 -1.95841 0)
(12.2569 -1.9198 0)
(12.3584 -1.85111 0)
(12.1926 -1.73027 0)
(12.281 -1.58812 0)
(12.0952 -1.43141 0)
(12.1396 -1.22445 0)
(11.999 -1.06575 0)
(12.0628 -0.855773 0)
(11.9593 -0.68705 0)
(12.0956 -0.558286 0)
(12.0159 -0.376726 0)
(12.1688 -0.356568 0)
(12.1561 -0.260604 0)
(12.2849 -0.299826 0)
(12.2918 -0.313198 0)
(12.435 -0.452503 0)
(12.4316 -0.533942 0)
(12.5256 -0.738501 0)
(12.5529 -0.920909 0)
(12.5831 -1.17077 0)
(12.59 -1.38755 0)
(12.5779 -1.70248 0)
(12.5228 -1.94467 0)
(12.4482 -2.27848 0)
(12.3277 -2.53075 0)
(12.174 -2.86155 0)
(11.9977 -3.08471 0)
(11.7475 -3.38752 0)
(11.5783 -3.55689 0)
(11.3008 -3.81912 0)
(11.2029 -3.96283 0)
(10.9844 -4.17182 0)
(11.037 -4.34156 0)
(10.8646 -4.55528 0)
(10.937 -4.72083 0)
(10.8354 -4.91031 0)
(10.8413 -5.02746 0)
(10.6369 -5.05609 0)
(10.3298 -4.97116 0)
(9.84623 -4.78617 0)
(9.06654 -4.50829 0)
(8.30591 -4.0912 0)
(6.95076 -3.71932 0)
(6.01631 -3.42762 0)
(5.13439 -3.41196 0)
(4.77354 -3.43636 0)
(4.12963 -3.54074 0)
(3.91622 -3.66788 0)
(3.83029 -3.80025 0)
(3.96921 -4.02921 0)
(4.33603 -4.0217 0)
(4.77389 -3.94309 0)
(4.84978 -3.75401 0)
(5.4702 -3.37478 0)
(5.40622 -3.07811 0)
(5.76908 -2.59603 0)
(5.88168 -2.2675 0)
(6.06482 -1.73399 0)
(6.2932 -1.23835 0)
(6.21946 -0.685561 0)
(6.58489 -0.136685 0)
(6.32771 0.365215 0)
(6.56414 0.858223 0)
(6.62832 1.25884 0)
(6.64687 1.71611 0)
(7.02092 2.13662 0)
(7.33758 2.6003 0)
(7.7808 3.03147 0)
(8.10795 3.40199 0)
(8.52265 4.02321 0)
(8.62923 4.33204 0)
(8.77076 4.66335 0)
(8.66619 4.95506 0)
(8.45694 5.06032 0)
(8.24828 5.02812 0)
(7.90867 4.94218 0)
(7.70063 4.88449 0)
(7.02816 4.51998 0)
(6.85522 4.03167 0)
(6.6995 3.78406 0)
(6.34634 3.48282 0)
(6.15899 3.20619 0)
(5.8987 2.64033 0)
(5.60692 2.52153 0)
(5.63459 2.51508 0)
(5.50113 2.16967 0)
(5.7317 1.9848 0)
(5.77424 1.66127 0)
(5.59749 1.73375 0)
(5.45666 1.59171 0)
(5.29701 1.57439 0)
(4.95547 1.34497 0)
(4.53585 1.23964 0)
(3.81837 1.56976 0)
(3.67834 2.30679 0)
(2.89381 3.73844 0)
(3.36556 4.51602 0)
(3.22156 5.32311 0)
(4.16036 5.43366 0)
(3.91641 5.85518 0)
(4.93553 6.62107 0)
(4.85748 7.24899 0)
(5.6641 7.02773 0)
(5.53005 7.20951 0)
(6.49769 7.2671 0)
(5.2245 8.16597 0)
(8.02763 6.42584 0)
(6.88017 9.82237 0)
(10.3049 -0.060101 0)
(10.2656 -0.000278667 0)
(10.2198 0.034283 0)
(10.1742 0.0098128 0)
(10.1577 -0.0275909 0)
(10.1924 -0.0762798 0)
(10.1892 -0.109829 0)
(10.2395 -0.131464 0)
(10.2339 -0.125817 0)
(10.2606 -0.103848 0)
(10.2766 -0.0842429 0)
(10.277 -0.0524387 0)
(10.2993 -0.0629384 0)
(10.2793 -0.0530534 0)
(10.2984 -0.0713047 0)
(10.2884 -0.0871834 0)
(10.3033 -0.0708092 0)
(10.3279 -0.10103 0)
(10.3155 -0.0678015 0)
(10.3777 -0.0796222 0)
(10.331 -0.0716701 0)
(10.3943 -0.0472989 0)
(10.3556 -0.0681645 0)
(10.3825 -0.0397001 0)
(10.3875 -0.0496661 0)
(10.3937 -0.0476717 0)
(10.4096 -0.0428706 0)
(10.4468 -0.0529832 0)
(10.4363 -0.0571185 0)
(10.497 -0.0632192 0)
(10.4825 -0.0789689 0)
(10.5193 -0.10889 0)
(10.5252 -0.112231 0)
(10.5317 -0.17463 0)
(10.5233 -0.176263 0)
(10.5167 -0.221966 0)
(10.4706 -0.246226 0)
(10.4285 -0.228571 0)
(10.3657 -0.247185 0)
(10.2685 -0.183127 0)
(10.2151 -0.14064 0)
(10.0967 -0.0455111 0)
(10.0543 0.0674405 0)
(9.94663 0.177807 0)
(9.91434 0.32079 0)
(9.86101 0.425167 0)
(9.85778 0.540609 0)
(9.86128 0.618865 0)
(9.87566 0.637908 0)
(9.91866 0.672499 0)
(9.9028 0.638054 0)
(9.95139 0.597008 0)
(9.91273 0.567921 0)
(9.91124 0.492322 0)
(9.92594 0.422956 0)
(9.90642 0.349294 0)
(9.93318 0.249833 0)
(9.94429 0.165642 0)
(9.97343 0.0586934 0)
(9.96571 -0.029228 0)
(9.97877 -0.11228 0)
(10.0015 -0.200803 0)
(9.9858 -0.25247 0)
(10.0453 -0.32535 0)
(10.0484 -0.359869 0)
(10.1057 -0.400887 0)
(10.1629 -0.400312 0)
(10.2622 -0.430844 0)
(10.3873 -0.451157 0)
(10.4968 -0.450897 0)
(10.6844 -0.501904 0)
(10.7881 -0.527025 0)
(10.9916 -0.580964 0)
(11.152 -0.660392 0)
(11.313 -0.72598 0)
(11.5235 -0.810206 0)
(11.6549 -0.912786 0)
(11.8862 -1.00101 0)
(11.9783 -1.0885 0)
(12.2351 -1.22747 0)
(12.3024 -1.28805 0)
(12.5294 -1.42145 0)
(12.5925 -1.51568 0)
(12.773 -1.61023 0)
(12.7931 -1.69623 0)
(12.9541 -1.79177 0)
(12.9457 -1.83999 0)
(13.0202 -1.90061 0)
(13.0221 -1.96424 0)
(13.0017 -1.96173 0)
(12.9775 -1.97646 0)
(12.8972 -1.93332 0)
(12.8798 -1.85932 0)
(12.7017 -1.77403 0)
(12.7152 -1.67895 0)
(12.4695 -1.51714 0)
(12.5091 -1.37549 0)
(12.2511 -1.18119 0)
(12.3384 -0.993282 0)
(12.1097 -0.806233 0)
(12.2374 -0.669852 0)
(12.055 -0.518724 0)
(12.2207 -0.413818 0)
(12.0664 -0.368818 0)
(12.2611 -0.308104 0)
(12.1507 -0.333034 0)
(12.3002 -0.401954 0)
(12.2587 -0.456549 0)
(12.3756 -0.620479 0)
(12.3043 -0.745762 0)
(12.3908 -0.971545 0)
(12.3391 -1.13494 0)
(12.29 -1.44572 0)
(12.2525 -1.62262 0)
(12.1161 -1.96459 0)
(12.0475 -2.17645 0)
(11.7974 -2.49916 0)
(11.7411 -2.71936 0)
(11.4559 -3.01681 0)
(11.362 -3.22017 0)
(11.1564 -3.4874 0)
(11.0978 -3.68919 0)
(10.9727 -3.89089 0)
(10.9508 -4.13938 0)
(10.8686 -4.32705 0)
(10.7744 -4.54849 0)
(10.7479 -4.73622 0)
(10.5725 -4.839 0)
(10.3987 -4.88308 0)
(10.0241 -4.76412 0)
(9.51019 -4.51664 0)
(8.65509 -4.13425 0)
(7.7167 -3.66097 0)
(6.49105 -3.10982 0)
(5.17881 -2.80874 0)
(4.50019 -2.79538 0)
(3.85421 -2.99548 0)
(3.53026 -3.02194 0)
(2.98019 -3.302 0)
(3.17273 -3.6002 0)
(3.16816 -4.06623 0)
(3.73891 -4.39101 0)
(4.11472 -4.42626 0)
(4.35605 -4.42328 0)
(4.71061 -4.06307 0)
(4.98153 -3.72667 0)
(4.90194 -3.37167 0)
(5.40303 -2.89452 0)
(5.21541 -2.54614 0)
(5.74544 -1.99663 0)
(5.66325 -1.36898 0)
(5.92521 -0.78714 0)
(5.94926 -0.166169 0)
(5.99592 0.355656 0)
(5.79774 0.945394 0)
(5.78259 1.39251 0)
(5.42049 1.45518 0)
(5.68914 1.99263 0)
(5.88894 2.19604 0)
(6.38836 2.77133 0)
(6.67421 3.19707 0)
(7.32616 3.77625 0)
(7.51541 4.23071 0)
(7.79559 4.65135 0)
(7.95161 4.92114 0)
(7.71464 5.03958 0)
(7.55935 5.19287 0)
(7.24711 4.80994 0)
(7.08721 4.67042 0)
(6.81544 4.54546 0)
(6.40448 4.1501 0)
(6.38456 4.1436 0)
(6.31071 3.96278 0)
(6.10385 3.59997 0)
(5.97954 3.03501 0)
(5.36712 2.56037 0)
(5.39613 2.47304 0)
(5.13585 2.1104 0)
(5.16089 1.87925 0)
(5.26978 1.74953 0)
(5.08 1.88749 0)
(5.17452 1.76602 0)
(4.9665 1.72459 0)
(4.72596 1.7276 0)
(4.43078 1.62634 0)
(3.78534 2.02947 0)
(3.57679 2.57823 0)
(2.99675 3.82652 0)
(3.58175 4.30282 0)
(3.24229 4.99175 0)
(4.5804 4.96129 0)
(4.09988 5.52322 0)
(5.47374 6.16545 0)
(5.31822 6.99895 0)
(6.61501 6.86881 0)
(5.77007 7.16309 0)
(7.55676 6.68094 0)
(6.17348 8.48828 0)
(8.26072 5.44172 0)
(8.01088 9.13025 0)
(11.9212 -0.0236437 0)
(11.8486 -0.0331174 0)
(11.7854 -0.0303994 0)
(11.7568 -0.05071 0)
(11.7216 -0.0816155 0)
(11.787 -0.104817 0)
(11.7683 -0.11012 0)
(11.7999 -0.137499 0)
(11.7937 -0.12184 0)
(11.7884 -0.126101 0)
(11.8105 -0.125111 0)
(11.8031 -0.0775111 0)
(11.8388 -0.105549 0)
(11.8149 -0.0589029 0)
(11.8471 -0.0798584 0)
(11.816 -0.101433 0)
(11.8174 -0.0716325 0)
(11.8396 -0.131406 0)
(11.7861 -0.0830903 0)
(11.8867 -0.102481 0)
(11.8043 -0.0934945 0)
(11.8983 -0.0497896 0)
(11.849 -0.0873938 0)
(11.8697 -0.0429375 0)
(11.874 -0.0669281 0)
(11.8563 -0.068603 0)
(11.8697 -0.0551509 0)
(11.8854 -0.0885604 0)
(11.8804 -0.0646373 0)
(11.9232 -0.0922939 0)
(11.904 -0.0910556 0)
(11.9459 -0.117916 0)
(11.9103 -0.129113 0)
(11.9443 -0.161752 0)
(11.8811 -0.177483 0)
(11.8962 -0.194009 0)
(11.8236 -0.214524 0)
(11.7939 -0.189696 0)
(11.7201 -0.187978 0)
(11.6452 -0.136502 0)
(11.5809 -0.0829623 0)
(11.5015 -0.0098998 0)
(11.4455 0.0985752 0)
(11.4035 0.188016 0)
(11.3754 0.319644 0)
(11.4063 0.431985 0)
(11.3903 0.520631 0)
(11.4814 0.607208 0)
(11.4504 0.640179 0)
(11.5452 0.639241 0)
(11.5197 0.645642 0)
(11.5713 0.584852 0)
(11.5701 0.54771 0)
(11.5785 0.501556 0)
(11.6102 0.408874 0)
(11.622 0.354654 0)
(11.6511 0.257362 0)
(11.6828 0.166043 0)
(11.689 0.0718249 0)
(11.7266 -0.0377886 0)
(11.7012 -0.108373 0)
(11.7415 -0.207295 0)
(11.7144 -0.262346 0)
(11.7561 -0.340276 0)
(11.7491 -0.382416 0)
(11.812 -0.444761 0)
(11.8216 -0.4525 0)
(11.9214 -0.499349 0)
(11.9748 -0.530425 0)
(12.0951 -0.543238 0)
(12.1761 -0.612451 0)
(12.3055 -0.632309 0)
(12.4015 -0.700242 0)
(12.5438 -0.763386 0)
(12.6562 -0.851671 0)
(12.7819 -0.909568 0)
(12.9141 -1.03019 0)
(13.015 -1.09765 0)
(13.1216 -1.19663 0)
(13.2343 -1.30855 0)
(13.2929 -1.38289 0)
(13.3978 -1.49605 0)
(13.4094 -1.58172 0)
(13.4863 -1.66549 0)
(13.443 -1.74027 0)
(13.4885 -1.81186 0)
(13.3964 -1.84984 0)
(13.3925 -1.91504 0)
(13.2607 -1.9191 0)
(13.2408 -1.93041 0)
(13.0488 -1.90168 0)
(13.029 -1.83365 0)
(12.8099 -1.77941 0)
(12.7699 -1.67722 0)
(12.5612 -1.55747 0)
(12.5474 -1.3992 0)
(12.3214 -1.23426 0)
(12.3379 -1.05133 0)
(12.1567 -0.8571 0)
(12.1394 -0.741902 0)
(12.0406 -0.563285 0)
(12.0183 -0.489783 0)
(11.9726 -0.392409 0)
(11.9377 -0.339733 0)
(11.9798 -0.328907 0)
(11.926 -0.351237 0)
(11.9458 -0.402471 0)
(12.0087 -0.506347 0)
(11.9258 -0.621185 0)
(12.0035 -0.79305 0)
(11.9412 -0.936402 0)
(11.9234 -1.20152 0)
(11.8691 -1.34988 0)
(11.7842 -1.66188 0)
(11.7103 -1.84092 0)
(11.5525 -2.15327 0)
(11.4991 -2.35763 0)
(11.304 -2.61726 0)
(11.2794 -2.84818 0)
(11.1227 -3.10188 0)
(11.1106 -3.31752 0)
(11.0085 -3.56811 0)
(10.927 -3.8077 0)
(10.866 -4.03347 0)
(10.6896 -4.25492 0)
(10.6072 -4.46068 0)
(10.3295 -4.5724 0)
(10.173 -4.61427 0)
(9.70671 -4.52167 0)
(9.16545 -4.20201 0)
(8.21296 -3.76169 0)
(7.17146 -3.24558 0)
(6.10712 -2.64339 0)
(4.74085 -2.16626 0)
(3.97471 -2.21352 0)
(3.45819 -2.40215 0)
(3.01779 -2.5052 0)
(2.45588 -2.75223 0)
(2.63309 -3.29279 0)
(2.58611 -3.81899 0)
(2.88117 -4.47506 0)
(3.31604 -4.71647 0)
(3.27843 -4.81668 0)
(3.71901 -4.6202 0)
(3.75786 -4.20642 0)
(3.84238 -3.86142 0)
(3.87111 -3.45188 0)
(4.26091 -2.99827 0)
(4.1268 -2.82781 0)
(4.88224 -2.07409 0)
(4.666 -1.65231 0)
(5.25238 -0.838262 0)
(4.97968 -0.323782 0)
(5.41431 0.495648 0)
(5.05225 0.957884 0)
(5.25783 1.68551 0)
(4.34341 1.64707 0)
(4.83686 1.84204 0)
(4.61272 1.97899 0)