/*--------------------------------*- C++ -*----------------------------------*\
| =========                 |                                                 |
| \\      /  F ield         | OpenFOAM: The Open Source CFD Toolbox           |
|  \\    /   O peration     | Version:  2.4.0                                 |
|   \\  /    A nd           | Web:      www.OpenFOAM.org                      |
|    \\/     M anipulation  |                                                 |
\*---------------------------------------------------------------------------*/
FoamFile
{
    version     2.0;
    format      ascii;
    class       volSymmTensorField;
    location    "1.9";
    object      UPrime2Mean;
}
// * * * * * * * * * * * * * * * * * * * * * * * * * * * * * * * * * * * * * //

dimensions      [0 2 -2 0 0 0 0];

internalField   nonuniform List<symmTensor> 
8800
(
(0.000911933 4.81486e-05 0 0.000101779 0 0)
(0.0169929 -0.000659607 0 3.84834e-05 0 0)
(0.0333892 -6.16831e-05 0 1.05621e-05 0 0)
(0.04218 8.54529e-05 0 5.90594e-06 0 0)
(0.0478604 5.67586e-05 0 4.97595e-06 0 0)
(0.0537498 2.06772e-05 0 6.38403e-06 0 0)
(0.0567654 -1.07577e-05 0 7.4788e-06 0 0)
(0.0596579 -5.15492e-05 0 9.7287e-06 0 0)
(0.0622705 -6.99603e-05 0 1.03269e-05 0 0)
(0.0633301 -9.63571e-05 0 1.28156e-05 0 0)
(0.0662576 -0.000110546 0 1.28518e-05 0 0)
(0.0663524 -0.000139439 0 1.59892e-05 0 0)
(0.0696191 -0.000162705 0 1.54938e-05 0 0)
(0.0696467 -0.000185016 0 1.92263e-05 0 0)
(0.0738443 -0.000263601 0 1.84612e-05 0 0)
(0.0741213 -0.000198924 0 2.37971e-05 0 0)
(0.0830717 -0.000720417 0 2.56597e-05 0 0)
(0.0812657 0.000790454 0 6.79684e-05 0 0)
(0.132583 -0.00893493 0 0.000931003 0 0)
(0.139711 0.0158205 0 0.00314605 0 0)
(0.00548673 0.00140207 0 0.000620113 0 0)
(0.00158176 -0.000642226 0 0.000824182 0 0)
(0.0108969 -0.00108032 0 0.000358907 0 0)
(0.0172323 -0.0012945 0 0.000155422 0 0)
(0.0258491 -0.00118107 0 9.86379e-05 0 0)
(0.0381763 -0.00111913 0 8.43663e-05 0 0)
(0.0489295 -0.00141768 0 9.87486e-05 0 0)
(0.0573865 -0.000989883 0 7.6115e-05 0 0)
(0.0734083 -0.00151071 0 0.000100742 0 0)
(0.072914 -0.00112713 0 8.53544e-05 0 0)
(0.0959919 -0.0016757 0 0.000113517 0 0)
(0.0869993 -0.00145735 0 0.000108361 0 0)
(0.116445 -0.00215224 0 0.000148364 0 0)
(0.100824 -0.00189259 0 0.000145451 0 0)
(0.137626 -0.00295449 0 0.000213844 0 0)
(0.114605 -0.0029491 0 0.000244699 0 0)
(0.165476 -0.00327747 0 0.000330364 0 0)
(0.136463 -0.00705138 0 0.000873528 0 0)
(0.229668 -0.00374189 0 0.000663224 0 0)
(0.223616 -0.0294389 0 0.0110963 0 0)
(0.0138017 0.000560267 0 0.000421088 0 0)
(0.0137482 0.000106691 0 0.000996846 0 0)
(0.035359 -8.41202e-05 0 0.000656813 0 0)
(0.0384259 -0.00104638 0 0.000383205 0 0)
(0.0542349 -0.00105073 0 0.000314438 0 0)
(0.0631353 -0.00158555 0 0.000300441 0 0)
(0.0824201 -0.00317763 0 0.00036038 0 0)
(0.0871836 -0.00197735 0 0.000254519 0 0)
(0.122513 -0.00452826 0 0.000344945 0 0)
(0.111202 -0.00291067 0 0.000237337 0 0)
(0.167562 -0.00558733 0 0.000356804 0 0)
(0.135198 -0.00408307 0 0.000283265 0 0)
(0.213802 -0.00744218 0 0.000496107 0 0)
(0.156538 -0.00524311 0 0.000411975 0 0)
(0.263825 -0.010669 0 0.000840497 0 0)
(0.170285 -0.00648138 0 0.000720475 0 0)
(0.322734 -0.0144666 0 0.00146841 0 0)
(0.183448 -0.00868513 0 0.00183675 0 0)
(0.402663 -0.0188781 0 0.00333906 0 0)
(0.228649 -0.0260874 0 0.0136533 0 0)
(0.0677477 -0.0003491 0 0.000344259 0 0)
(0.0792013 -8.85628e-05 0 0.000823583 0 0)
(0.12282 -0.00112015 0 0.000683765 0 0)
(0.128138 -0.00213753 0 0.000484565 0 0)
(0.158571 -0.00141769 0 0.000496955 0 0)
(0.164804 -0.0025997 0 0.000525891 0 0)
(0.199631 -0.00501642 0 0.000703248 0 0)
(0.195994 -0.00259042 0 0.000531797 0 0)
(0.251452 -0.00846315 0 0.000814833 0 0)
(0.224266 -0.00457456 0 0.000537541 0 0)
(0.310371 -0.011298 0 0.0008979 0 0)
(0.251139 -0.00730324 0 0.000654189 0 0)
(0.373733 -0.0154127 0 0.00125822 0 0)
(0.274742 -0.00990914 0 0.0009276 0 0)
(0.443639 -0.0220957 0 0.00209485 0 0)
(0.287144 -0.0123702 0 0.00151744 0 0)
(0.524871 -0.0299404 0 0.00336938 0 0)
(0.285071 -0.015912 0 0.0037609 0 0)
(0.627367 -0.0358849 0 0.00563663 0 0)
(0.281039 -0.0311092 0 0.0210568 0 0)
(0.264526 -0.0011758 0 0.000575998 0 0)
(0.261926 0.000171595 0 0.00110226 0 0)
(0.292816 -0.00392773 0 0.00132009 0 0)
(0.281995 -0.00400633 0 0.000988814 0 0)
(0.305401 -0.00417462 0 0.00108456 0 0)
(0.297742 -0.00566559 0 0.000999235 0 0)
(0.32724 -0.00846414 0 0.00154031 0 0)
(0.312641 -0.00517269 0 0.00113283 0 0)
(0.359231 -0.0131186 0 0.00194629 0 0)
(0.328064 -0.00726683 0 0.00130829 0 0)
(0.394707 -0.0169598 0 0.00227642 0 0)
(0.344444 -0.0107996 0 0.00156588 0 0)
(0.430892 -0.0221718 0 0.0030051 0 0)
(0.361444 -0.014227 0 0.00201 0 0)
(0.468615 -0.0305161 0 0.0043932 0 0)
(0.374463 -0.0178327 0 0.0027561 0 0)
(0.511655 -0.0409339 0 0.00639797 0 0)
(0.377605 -0.0226547 0 0.00518707 0 0)
(0.568169 -0.0507415 0 0.00978291 0 0)
(0.3659 -0.0320066 0 0.0239327 0 0)
(0.331299 -0.00522165 0 0.00188976 0 0)
(0.28399 -0.00103015 0 0.0025723 0 0)
(0.277162 -0.00727019 0 0.0032564 0 0)
(0.237644 -0.00569128 0 0.00210891 0 0)
(0.246067 -0.00800136 0 0.00287898 0 0)
(0.226089 -0.00752784 0 0.00236164 0 0)
(0.231244 -0.0105998 0 0.00341741 0 0)
(0.216695 -0.00706628 0 0.00248073 0 0)
(0.226602 -0.0135178 0 0.00410075 0 0)
(0.214269 -0.0089136 0 0.00275324 0 0)
(0.22477 -0.016259 0 0.00464462 0 0)
(0.216682 -0.0119376 0 0.00329111 0 0)
(0.223186 -0.0192966 0 0.00566356 0 0)
(0.224858 -0.0148673 0 0.00397435 0 0)
(0.219615 -0.0239037 0 0.00763891 0 0)
(0.238319 -0.0184172 0 0.00495918 0 0)
(0.213292 -0.0292965 0 0.0106999 0 0)
(0.257081 -0.0232057 0 0.00749581 0 0)
(0.20643 -0.0336166 0 0.0173705 0 0)
(0.28411 -0.0314707 0 0.0213802 0 0)
(0.153545 -0.00853685 0 0.00352946 0 0)
(0.136375 -0.00731586 0 0.00521768 0 0)
(0.127358 -0.00676554 0 0.0050931 0 0)
(0.117864 -0.00963277 0 0.00432532 0 0)
(0.115107 -0.00865266 0 0.00526482 0 0)
(0.116675 -0.00890019 0 0.00469789 0 0)
(0.112442 -0.00925023 0 0.00529284 0 0)
(0.114482 -0.00896665 0 0.0047984 0 0)
(0.114792 -0.00985009 0 0.00584872 0 0)
(0.116806 -0.00977903 0 0.00517702 0 0)
(0.11506 -0.0112839 0 0.00655345 0 0)
(0.12324 -0.0107893 0 0.00586901 0 0)
(0.118303 -0.0118346 0 0.00772424 0 0)
(0.132594 -0.0121702 0 0.00692193 0 0)
(0.120418 -0.0119951 0 0.00977446 0 0)
(0.146092 -0.0138351 0 0.00840383 0 0)
(0.121865 -0.0107164 0 0.01312 0 0)
(0.166037 -0.0155758 0 0.0121856 0 0)
(0.124316 -0.00471147 0 0.0209698 0 0)
(0.197049 -0.013912 0 0.0320097 0 0)
(0.134861 -0.01001 0 0.00435984 0 0)
(0.164482 -0.0160387 0 0.00872343 0 0)
(0.131809 -0.00733622 0 0.0068538 0 0)
(0.166823 -0.0120412 0 0.00594057 0 0)
(0.144584 -0.0100314 0 0.00689678 0 0)
(0.16436 -0.00984786 0 0.00683935 0 0)
(0.16162 -0.00841529 0 0.00633669 0 0)
(0.168173 -0.00999252 0 0.00693515 0 0)
(0.173874 -0.00789293 0 0.00708271 0 0)
(0.172907 -0.00947615 0 0.00716487 0 0)
(0.185358 -0.00759517 0 0.00766379 0 0)
(0.178677 -0.00899123 0 0.00816248 0 0)
(0.200926 -0.0059399 0 0.00874407 0 0)
(0.187845 -0.00892193 0 0.00936305 0 0)
(0.212619 -0.00315211 0 0.0106781 0 0)
(0.199922 -0.00841868 0 0.0111786 0 0)
(0.228264 0.00183518 0 0.0136979 0 0)
(0.216344 -0.00685939 0 0.0162234 0 0)
(0.244417 0.0128425 0 0.02152 0 0)
(0.240091 -0.000210181 0 0.0374684 0 0)
(0.230799 -0.00714283 0 0.00418431 0 0)
(0.25798 -0.015235 0 0.0111451 0 0)
(0.222731 -0.00475095 0 0.0077944 0 0)
(0.229455 -0.00758495 0 0.00690837 0 0)
(0.253122 -0.00569369 0 0.00687163 0 0)
(0.217944 -0.00571098 0 0.00767634 0 0)
(0.283364 -0.00363789 0 0.00641829 0 0)
(0.216577 -0.00555296 0 0.00773853 0 0)
(0.299 -0.00166201 0 0.0068685 0 0)
(0.220164 -0.00542854 0 0.00825853 0 0)
(0.308976 0.000203787 0 0.00739096 0 0)
(0.228469 -0.00431184 0 0.00907758 0 0)
(0.322192 0.00275254 0 0.00846711 0 0)
(0.23974 -0.00367761 0 0.0103846 0 0)
(0.337474 0.00649418 0 0.00972383 0 0)
(0.253962 -0.00226582 0 0.0121836 0 0)
(0.352231 0.0126021 0 0.0121105 0 0)
(0.274529 0.000516108 0 0.0167955 0 0)
(0.368589 0.0242701 0 0.0182988 0 0)
(0.312414 0.00552819 0 0.0310911 0 0)
(0.258543 -0.00349054 0 0.00304126 0 0)
(0.286857 -0.00707102 0 0.00849734 0 0)
(0.277156 -0.000701895 0 0.00509568 0 0)
(0.23815 -0.00144331 0 0.00522498 0 0)
(0.29786 -0.000630204 0 0.00466588 0 0)
(0.229774 -0.000799278 0 0.00563248 0 0)
(0.308083 0.00118674 0 0.00435621 0 0)
(0.229741 -0.000531418 0 0.00583167 0 0)
(0.308102 0.00318037 0 0.00467969 0 0)
(0.23395 -0.000310564 0 0.00610455 0 0)
(0.314148 0.00420314 0 0.00511185 0 0)
(0.247552 0.000811481 0 0.00655586 0 0)
(0.321575 0.00664841 0 0.00571024 0 0)
(0.263316 0.00158129 0 0.00739358 0 0)
(0.330148 0.0098014 0 0.00631933 0 0)
(0.284559 0.00373165 0 0.00849575 0 0)
(0.341745 0.0147708 0 0.00743481 0 0)
(0.318282 0.00800089 0 0.0112349 0 0)
(0.358649 0.0237145 0 0.0109706 0 0)
(0.386266 0.013325 0 0.0203684 0 0)
(0.175115 -0.00118746 0 0.00227423 0 0)
(0.200511 -0.00113351 0 0.00528032 0 0)
(0.190382 0.00185797 0 0.00360394 0 0)
(0.16989 0.00287317 0 0.00333381 0 0)
(0.198099 0.00183229 0 0.00399256 0 0)
(0.171706 0.00265042 0 0.00404421 0 0)
(0.199243 0.00307848 0 0.00388004 0 0)
(0.174944 0.00367736 0 0.00427662 0 0)
(0.199133 0.00436386 0 0.00405173 0 0)
(0.182848 0.00444812 0 0.00448664 0 0)
(0.19874 0.00545395 0 0.0043556 0 0)
(0.198838 0.0055431 0 0.00470487 0 0)
(0.203298 0.00733032 0 0.00466589 0 0)
(0.212277 0.00707528 0 0.0051306 0 0)
(0.208789 0.00949731 0 0.00502327 0 0)
(0.232005 0.0100271 0 0.00571064 0 0)
(0.214478 0.0125872 0 0.00572008 0 0)
(0.263761 0.0154125 0 0.00705414 0 0)
(0.219508 0.0184235 0 0.00800371 0 0)
(0.323289 0.0227473 0 0.0127723 0 0)
(0.0760328 -0.00029111 0 0.00200515 0 0)
(0.0854778 0.000603131 0 0.00435376 0 0)
(0.0768425 0.00121958 0 0.00337982 0 0)
(0.0807899 0.00233703 0 0.00330804 0 0)
(0.0817691 0.00130737 0 0.00364313 0 0)
(0.0852478 0.00211081 0 0.00386838 0 0)
(0.085321 0.00144127 0 0.00370944 0 0)
(0.0899634 0.00328977 0 0.00410318 0 0)
(0.0861566 0.00215163 0 0.00370492 0 0)
(0.0988372 0.00402519 0 0.00414762 0 0)
(0.0854733 0.00285713 0 0.00382842 0 0)
(0.110019 0.00479747 0 0.00424178 0 0)
(0.0888319 0.00364704 0 0.00393941 0 0)
(0.121062 0.00582324 0 0.00440846 0 0)
(0.0920608 0.00420972 0 0.00397287 0 0)
(0.135898 0.00782948 0 0.00458534 0 0)
(0.093684 0.00519738 0 0.00419883 0 0)
(0.158131 0.0112437 0 0.00530857 0 0)
(0.0949873 0.00815719 0 0.00545954 0 0)
(0.199067 0.016071 0 0.00889172 0 0)
(0.0252152 -9.20866e-05 0 0.00164533 0 0)
(0.0275426 0.000216292 0 0.003602 0 0)
(0.0250368 -0.000281223 0 0.00295201 0 0)
(0.032633 0.000637344 0 0.00272528 0 0)
(0.0300793 0.000243699 0 0.00277158 0 0)
(0.034202 0.000786603 0 0.00292089 0 0)
(0.0329182 9.49802e-05 0 0.00291739 0 0)
(0.0383671 0.00135802 0 0.00322563 0 0)
(0.0341767 0.000206584 0 0.00285551 0 0)
(0.0438236 0.00190413 0 0.00307196 0 0)
(0.0346245 0.000813089 0 0.00280822 0 0)
(0.048392 0.00224909 0 0.00308527 0 0)
(0.0367218 0.00110319 0 0.00290188 0 0)
(0.0540237 0.00263206 0 0.00299948 0 0)
(0.0395348 0.0012736 0 0.00271825 0 0)
(0.060665 0.00361215 0 0.00285473 0 0)
(0.0421426 0.0019422 0 0.00267944 0 0)
(0.0706681 0.00542386 0 0.00310178 0 0)
(0.0469691 0.00419387 0 0.0034071 0 0)
(0.0900224 0.00882288 0 0.00523145 0 0)
(0.00764885 -0.000211085 0 0.00119215 0 0)
(0.00556003 -0.00054424 0 0.00270474 0 0)
(0.00658385 -0.00119286 0 0.00240916 0 0)
(0.00976473 -0.000497758 0 0.00187395 0 0)
(0.00984169 -0.000193996 0 0.00193604 0 0)
(0.011049 -0.000247271 0 0.00187481 0 0)
(0.012442 -0.000276182 0 0.00200487 0 0)
(0.0135905 -0.000268192 0 0.00214998 0 0)
(0.0149297 -0.000566708 0 0.00194402 0 0)
(0.0168608 -2.11816e-06 0 0.0019202 0 0)
(0.0162136 -0.000120104 0 0.00180136 0 0)
(0.0189982 0.00013932 0 0.00185161 0 0)
(0.0180328 -0.000111133 0 0.00185831 0 0)
(0.0222489 2.56234e-06 0 0.00176924 0 0)
(0.0208462 -2.68371e-05 0 0.00164501 0 0)
(0.0261789 0.000440338 0 0.00154615 0 0)
(0.0245156 0.000602781 0 0.00149115 0 0)
(0.0328202 0.00171306 0 0.00166541 0 0)
(0.0320494 0.00274336 0 0.00195122 0 0)
(0.0459119 0.00577284 0 0.00327223 0 0)
(0.00640304 -0.00032023 0 0.000884188 0 0)
(0.00275295 -0.000758488 0 0.00212573 0 0)
(0.00386698 -0.00130271 0 0.00196294 0 0)
(0.00514341 -0.000864997 0 0.00142295 0 0)
(0.00662152 -0.000425533 0 0.00148655 0 0)
(0.00646339 -0.000418778 0 0.00142455 0 0)
(0.00802265 -0.000501252 0 0.00162267 0 0)
(0.00827369 -0.000838277 0 0.00173579 0 0)
(0.0104868 -0.000859522 0 0.00160388 0 0)
(0.0106542 -0.000607013 0 0.00151117 0 0)
(0.0123325 -0.000423081 0 0.00139263 0 0)
(0.0123332 -0.000393624 0 0.0013756 0 0)
(0.0140753 -0.00037386 0 0.00136296 0 0)
(0.0145921 -0.000582345 0 0.00126249 0 0)
(0.0166343 -0.000385009 0 0.00114316 0 0)
(0.0174122 -0.000319314 0 0.00101256 0 0)
(0.0200047 0.000206883 0 0.000916285 0 0)
(0.0224405 0.000748221 0 0.0009372 0 0)
(0.0268853 0.00215936 0 0.00110589 0 0)
(0.0333751 0.00430497 0 0.00181846 0 0)
(0.00783926 -0.00031197 0 0.000526313 0 0)
(0.00440353 -0.000216583 0 0.00140001 0 0)
(0.00454221 -0.000778655 0 0.00134438 0 0)
(0.0054716 -0.000587058 0 0.000998812 0 0)
(0.00722802 -0.000299201 0 0.00112609 0 0)
(0.00669699 -0.000132684 0 0.00102124 0 0)
(0.00864527 -0.000263185 0 0.00112794 0 0)
(0.00784282 -0.00031715 0 0.00121766 0 0)
(0.0095979 -0.000438822 0 0.00115511 0 0)
(0.00828485 -0.000129274 0 0.00107792 0 0)
(0.00994838 -0.000115822 0 0.00095687 0 0)
(0.00833487 7.01346e-05 0 0.00089852 0 0)
(0.0097437 1.35352e-05 0 0.000850574 0 0)
(0.00804029 -6.96835e-06 0 0.000785505 0 0)
(0.00945218 -3.98737e-06 0 0.000692403 0 0)
(0.00798328 2.86949e-05 0 0.000623801 0 0)
(0.00971489 0.000327166 0 0.000520829 0 0)
(0.00947855 0.0005895 0 0.000527577 0 0)
(0.0127018 0.00154951 0 0.000606883 0 0)
(0.0160935 0.00258989 0 0.00100894 0 0)
(0.0067843 -0.00049982 0 0.000327277 0 0)
(0.00358135 8.39033e-07 0 0.000962323 0 0)
(0.00391819 -0.000283944 0 0.000820863 0 0)
(0.00523703 -0.000247305 0 0.000561163 0 0)
(0.006499 -8.28112e-05 0 0.000671813 0 0)
(0.00566312 6.76746e-05 0 0.000638647 0 0)
(0.00639367 0.000128796 0 0.000664257 0 0)
(0.00501872 0.000397199 0 0.000675799 0 0)
(0.00486698 0.000398674 0 0.000614018 0 0)
(0.00394125 0.000684179 0 0.000553613 0 0)
(0.00358219 0.000598523 0 0.000484527 0 0)
(0.00349097 0.000795433 0 0.000447728 0 0)
(0.00284525 0.000652955 0 0.000416133 0 0)
(0.00350971 0.000764001 0 0.000386151 0 0)
(0.00281458 0.000516064 0 0.000334902 0 0)
(0.00414963 0.000650149 0 0.00031407 0 0)
(0.00371923 0.000382493 0 0.000266845 0 0)
(0.00558343 0.000678384 0 0.000271376 0 0)
(0.00630867 0.000656629 0 0.000371836 0 0)
(0.00921935 0.00134328 0 0.000516261 0 0)
(0.00543171 -0.00100515 0 0.000384282 0 0)
(0.00170429 -0.000293593 0 0.000976983 0 0)
(0.00185573 -4.18848e-05 0 0.000636079 0 0)
(0.00251803 0.000122973 0 0.000372995 0 0)
(0.00262109 0.000470732 0 0.000356232 0 0)
(0.00274395 0.000744459 0 0.000319305 0 0)
(0.00427544 0.00090392 0 0.000301735 0 0)
(0.00671806 0.00107151 0 0.000283997 0 0)
(0.0083755 0.000996669 0 0.000244396 0 0)
(0.0124168 0.00103034 0 0.000213916 0 0)
(0.0131764 0.000874679 0 0.000185703 0 0)
(0.0182653 0.000903571 0 0.000172632 0 0)
(0.0177103 0.000735775 0 0.000165944 0 0)
(0.0235464 0.000781177 0 0.000154053 0 0)
(0.0218985 0.00047498 0 0.000137903 0 0)
(0.0278114 0.000598651 0 0.000130393 0 0)
(0.0255506 4.3898e-05 0 0.000117961 0 0)
(0.0299499 0.000451387 0 0.000125819 0 0)
(0.0283758 -0.000317468 0 0.000175598 0 0)
(0.0296562 0.000870198 0 0.000328372 0 0)
(0.00479117 -0.00149883 0 0.000607317 0 0)
(0.000825806 0.000579155 0 0.000813024 0 0)
(0.00450099 0.00114897 0 0.000345275 0 0)
(0.00895838 0.00100932 0 0.000144019 0 0)
(0.014039 0.000987089 0 0.000100131 0 0)
(0.0205667 0.000891858 0 8.03654e-05 0 0)
(0.026751 0.000747767 0 7.33656e-05 0 0)
(0.0334144 0.000642571 0 6.87342e-05 0 0)
(0.037419 0.000514483 0 6.39122e-05 0 0)
(0.0432926 0.000460553 0 6.10062e-05 0 0)
(0.0451096 0.000373678 0 5.84746e-05 0 0)
(0.0506922 0.000372412 0 5.62007e-05 0 0)
(0.0507793 0.000291749 0 5.59571e-05 0 0)
(0.0564396 0.000312189 0 5.11968e-05 0 0)
(0.0550855 0.00014929 0 4.72237e-05 0 0)
(0.0603334 0.000186922 0 4.2513e-05 0 0)
(0.0576536 -0.000153708 0 4.0651e-05 0 0)
(0.0603702 6.96127e-05 0 4.05495e-05 0 0)
(0.0582589 -0.00060123 0 6.00954e-05 0 0)
(0.0542973 0.000358277 0 0.000177633 0 0)
(0.000887772 -5.23835e-05 0 0.000100942 0 0)
(0.0169875 0.00066081 0 3.73263e-05 0 0)
(0.0331458 6.05244e-05 0 9.527e-06 0 0)
(0.0412812 -0.000101023 0 4.41105e-06 0 0)
(0.0473137 -7.4299e-05 0 3.79074e-06 0 0)
(0.0519572 -5.68267e-05 0 4.15681e-06 0 0)
(0.0549181 -3.77353e-05 0 5.02975e-06 0 0)
(0.0574666 -1.64172e-05 0 5.39833e-06 0 0)
(0.0588619 -9.45862e-06 0 5.96847e-06 0 0)
(0.0606913 5.15001e-07 0 6.02103e-06 0 0)
(0.0612779 -3.72607e-06 0 6.1289e-06 0 0)
(0.0628034 5.3219e-06 0 5.80562e-06 0 0)
(0.062885 -6.34134e-06 0 5.64605e-06 0 0)
(0.064295 2.17666e-06 0 4.99106e-06 0 0)
(0.0638252 -2.64685e-05 0 4.58682e-06 0 0)
(0.06482 -2.30942e-05 0 3.81986e-06 0 0)
(0.0633769 -7.7314e-05 0 3.48497e-06 0 0)
(0.0629851 -6.31841e-05 0 3.07127e-06 0 0)
(0.0611802 -0.000227289 0 3.90148e-06 0 0)
(0.0553982 0.000307696 0 2.2134e-05 0 0)
(0.263556 -0.127033 0 0.0792992 0 0)
(0.286737 -0.150418 0 0.111154 0 0)
(0.293106 -0.144009 0 0.13284 0 0)
(0.308594 -0.127045 0 0.148855 0 0)
(0.317363 -0.108393 0 0.158411 0 0)
(0.371396 -0.0949436 0 0.164495 0 0)
(0.402495 -0.0906101 0 0.170054 0 0)
(0.488029 -0.0996699 0 0.178466 0 0)
(0.532823 -0.112757 0 0.188757 0 0)
(0.619952 -0.131565 0 0.199696 0 0)
(0.654035 -0.144295 0 0.211444 0 0)
(0.732519 -0.161103 0 0.226228 0 0)
(0.760865 -0.168806 0 0.241755 0 0)
(0.839964 -0.184588 0 0.256109 0 0)
(0.874244 -0.194321 0 0.266089 0 0)
(0.959382 -0.217185 0 0.274645 0 0)
(0.996257 -0.237167 0 0.285606 0 0)
(1.08821 -0.271252 0 0.302313 0 0)
(1.12532 -0.296268 0 0.325813 0 0)
(1.23798 -0.332593 0 0.355825 0 0)
(1.29121 -0.354402 0 0.383575 0 0)
(1.43069 -0.393304 0 0.413492 0 0)
(1.49154 -0.417176 0 0.442702 0 0)
(1.653 -0.462305 0 0.473269 0 0)
(1.72352 -0.48686 0 0.50217 0 0)
(1.90049 -0.541357 0 0.535429 0 0)
(1.98374 -0.567575 0 0.568178 0 0)
(2.16693 -0.63915 0 0.606186 0 0)
(2.26591 -0.672472 0 0.645965 0 0)
(2.44638 -0.759624 0 0.695113 0 0)
(2.56284 -0.796925 0 0.747967 0 0)
(2.75134 -0.890235 0 0.806249 0 0)
(2.88606 -0.928164 0 0.86326 0 0)
(3.10508 -1.03035 0 0.924757 0 0)
(3.24897 -1.07428 0 0.982618 0 0)
(3.49761 -1.19 0 1.04536 0 0)
(3.61908 -1.23332 0 1.10035 0 0)
(3.88192 -1.3587 0 1.16143 0 0)
(3.96271 -1.39399 0 1.21472 0 0)
(4.22831 -1.52401 0 1.27828 0 0)
(4.25935 -1.53828 0 1.33549 0 0)
(4.5155 -1.66458 0 1.39935 0 0)
(4.4996 -1.65236 0 1.45393 0 0)
(4.76195 -1.77285 0 1.51777 0 0)
(4.71869 -1.74853 0 1.57176 0 0)
(5.01526 -1.87241 0 1.63518 0 0)
(4.96194 -1.84402 0 1.68472 0 0)
(5.31345 -1.97619 0 1.7533 0 0)
(5.25804 -1.95616 0 1.80456 0 0)
(5.67667 -2.10002 0 1.88194 0 0)
(5.60064 -2.09029 0 1.94101 0 0)
(6.08265 -2.2479 0 2.03273 0 0)
(5.944 -2.22992 0 2.10291 0 0)
(6.46921 -2.39466 0 2.20325 0 0)
(6.22908 -2.34079 0 2.27068 0 0)
(6.78212 -2.50995 0 2.36949 0 0)
(6.43681 -2.40942 0 2.41882 0 0)
(7.02179 -2.58479 0 2.50221 0 0)
(6.58029 -2.45486 0 2.53788 0 0)
(7.23029 -2.65066 0 2.61537 0 0)
(6.68592 -2.51761 0 2.65317 0 0)
(7.42617 -2.73682 0 2.73747 0 0)
(6.75258 -2.5961 0 2.7841 0 0)
(7.56589 -2.81947 0 2.87691 0 0)
(6.75451 -2.64292 0 2.91761 0 0)
(7.61702 -2.84377 0 3.0003 0 0)
(6.70691 -2.62288 0 3.00247 0 0)
(7.63639 -2.78253 0 3.04501 0 0)
(6.66267 -2.55273 0 3.02468 0 0)
(7.72306 -2.72409 0 3.07519 0 0)
(6.68134 -2.50075 0 3.0762 0 0)
(7.89944 -2.70654 0 3.13445 0 0)
(6.76472 -2.47194 0 3.13947 0 0)
(8.16556 -2.74647 0 3.21193 0 0)
(6.90325 -2.49339 0 3.25037 0 0)
(8.45893 -2.84655 0 3.37061 0 0)
(7.08247 -2.55852 0 3.44935 0 0)
(8.70548 -2.96045 0 3.6238 0 0)
(7.23512 -2.62852 0 3.7184 0 0)
(8.88215 -3.03098 0 3.91906 0 0)
(7.29573 -2.66635 0 4.00883 0 0)
(8.99169 -3.05691 0 4.19306 0 0)
(7.27202 -2.66446 0 4.24893 0 0)
(9.04205 -3.06023 0 4.41011 0 0)
(7.21276 -2.63221 0 4.43956 0 0)
(8.98299 -3.01265 0 4.5938 0 0)
(7.16553 -2.55445 0 4.617 0 0)
(8.88365 -2.91833 0 4.80119 0 0)
(7.14002 -2.46865 0 4.83684 0 0)
(8.83868 -2.80544 0 5.01828 0 0)
(7.14888 -2.39273 0 5.06242 0 0)
(8.85956 -2.75627 0 5.26865 0 0)
(7.22645 -2.36967 0 5.34573 0 0)
(8.94961 -2.74996 0 5.57442 0 0)
(7.34421 -2.34605 0 5.65232 0 0)
(9.03741 -2.73266 0 5.89837 0 0)
(7.46912 -2.30746 0 5.98383 0 0)
(9.10373 -2.69426 0 6.26816 0 0)
(7.55967 -2.25102 0 6.3615 0 0)
(9.06224 -2.61979 0 6.67668 0 0)
(7.5524 -2.16327 0 6.80982 0 0)
(8.98598 -2.54525 0 7.16276 0 0)
(7.44306 -2.06041 0 7.29602 0 0)
(8.90351 -2.45247 0 7.63826 0 0)
(7.28443 -1.95267 0 7.71377 0 0)
(8.78913 -2.3837 0 8.0493 0 0)
(7.10263 -1.83239 0 8.0945 0 0)
(8.64196 -2.26476 0 8.36415 0 0)
(6.9754 -1.67034 0 8.35467 0 0)
(8.51076 -2.11921 0 8.62991 0 0)
(6.94133 -1.53627 0 8.61143 0 0)
(8.44328 -2.00363 0 8.87258 0 0)
(7.01242 -1.43382 0 8.83577 0 0)
(8.40726 -1.89919 0 9.10448 0 0)
(7.09715 -1.31134 0 9.06878 0 0)
(8.34734 -1.76586 0 9.34084 0 0)
(7.1862 -1.21166 0 9.34984 0 0)
(8.25949 -1.6421 0 9.65725 0 0)
(7.28346 -1.14625 0 9.7168 0 0)
(8.21804 -1.53583 0 10.0461 0 0)
(7.38216 -1.10826 0 10.1461 0 0)
(8.15838 -1.46143 0 10.4578 0 0)
(7.39745 -1.07415 0 10.5798 0 0)
(8.05132 -1.40316 0 10.873 0 0)
(7.36636 -1.04203 0 10.959 0 0)
(7.96353 -1.33194 0 11.1974 0 0)
(7.29722 -0.978687 0 11.2776 0 0)
(7.88804 -1.25547 0 11.494 0 0)
(7.27493 -0.94453 0 11.5717 0 0)
(7.78193 -1.21276 0 11.7574 0 0)
(7.31685 -0.987435 0 11.8909 0 0)
(7.71414 -1.20789 0 12.1026 0 0)
(7.4293 -1.05235 0 12.2658 0 0)
(7.71421 -1.16994 0 12.4358 0 0)
(7.51126 -1.05882 0 12.5905 0 0)
(7.69853 -1.07434 0 12.7591 0 0)
(7.54525 -0.979815 0 12.8938 0 0)
(7.66202 -0.964256 0 13.1213 0 0)
(7.55761 -0.879678 0 13.3266 0 0)
(7.62546 -0.857411 0 13.5181 0 0)
(7.53325 -0.815395 0 13.728 0 0)
(7.54106 -0.748162 0 13.8571 0 0)
(7.51469 -0.745039 0 14.0518 0 0)
(7.41361 -0.637337 0 14.196 0 0)
(7.37028 -0.64771 0 14.4419 0 0)
(7.19528 -0.495193 0 14.5601 0 0)
(7.18925 -0.490849 0 14.6833 0 0)
(6.9983 -0.383277 0 14.7734 0 0)
(7.00906 -0.298001 0 14.9373 0 0)
(6.81967 -0.275338 0 15.002 0 0)
(6.82246 -0.15378 0 15.0523 0 0)
(6.64748 -0.164878 0 14.9956 0 0)
(6.65292 -0.0275696 0 15.0166 0 0)
(6.51831 -0.0701578 0 14.9151 0 0)
(6.53198 0.0907367 0 15.0018 0 0)
(6.41239 -0.001239 0 14.923 0 0)
(6.46133 0.157514 0 15.027 0 0)
(6.36502 0.0561849 0 14.8934 0 0)
(6.41673 0.160291 0 15.0203 0 0)
(6.25757 0.0145119 0 14.8509 0 0)
(6.30994 0.0846298 0 14.9541 0 0)
(6.14097 -0.0492568 0 14.8408 0 0)
(6.20535 0.0202475 0 14.8631 0 0)
(6.08037 -0.138237 0 14.7396 0 0)
(6.17953 -0.053014 0 14.7175 0 0)
(6.05688 -0.249826 0 14.5858 0 0)
(6.18443 -0.174191 0 14.5556 0 0)
(5.99718 -0.435888 0 14.4384 0 0)
(6.15157 -0.288265 0 14.3361 0 0)
(6.01474 -0.612947 0 14.1558 0 0)
(6.06119 -0.470516 0 14.0069 0 0)
(6.09297 -0.838254 0 13.8536 0 0)
(5.92181 -0.629018 0 13.5348 0 0)
(6.21619 -1.08314 0 13.2388 0 0)
(5.87537 -0.68653 0 12.9052 0 0)
(6.24225 -1.14949 0 12.5709 0 0)
(5.92588 -0.719901 0 12.2613 0 0)
(6.28306 -1.14156 0 11.8173 0 0)
(5.94788 -0.773135 0 11.6492 0 0)
(6.33516 -1.08769 0 11.0448 0 0)
(5.93341 -0.844201 0 11.0398 0 0)
(6.29089 -1.00931 0 10.2088 0 0)
(5.79614 -0.985868 0 10.482 0 0)
(6.09529 -0.852748 0 9.38068 0 0)
(5.62164 -1.08633 0 10.0419 0 0)
(5.79871 -0.599008 0 8.65905 0 0)
(5.41382 -1.14192 0 9.74014 0 0)
(5.42277 -0.291949 0 8.15094 0 0)
(5.11368 -1.07969 0 9.68316 0 0)
(5.05976 0.185352 0 7.97321 0 0)
(4.73557 -0.891481 0 9.94193 0 0)
(4.72048 0.761384 0 8.04634 0 0)
(4.33117 -0.546719 0 10.6989 0 0)
(4.25041 1.43404 0 8.63162 0 0)
(3.99385 0.000355381 0 12.2121 0 0)
(3.73619 2.40559 0 10.2019 0 0)
(3.54377 0.401719 0 14.5902 0 0)
(2.97948 3.66348 0 13.1828 0 0)
(3.33226 2.42602 0 20.0594 0 0)
(1.08322 0.713108 0 21.979 0 0)
(0.247132 -0.104951 0 0.0890945 0 0)
(0.220243 -0.11206 0 0.11604 0 0)
(0.235404 -0.100486 0 0.122495 0 0)
(0.206543 -0.0920529 0 0.12653 0 0)
(0.228737 -0.0827587 0 0.127003 0 0)
(0.222754 -0.0820712 0 0.126154 0 0)
(0.260848 -0.0863798 0 0.128479 0 0)
(0.268529 -0.0988615 0 0.135553 0 0)
(0.315719 -0.108885 0 0.144056 0 0)
(0.322828 -0.12374 0 0.15322 0 0)
(0.368493 -0.131731 0 0.163017 0 0)
(0.371443 -0.146763 0 0.175625 0 0)
(0.419793 -0.153776 0 0.188423 0 0)
(0.429512 -0.170208 0 0.201719 0 0)
(0.488424 -0.17877 0 0.213409 0 0)
(0.514347 -0.201991 0 0.226237 0 0)
(0.587011 -0.21902 0 0.240459 0 0)
(0.63153 -0.254916 0 0.258767 0 0)
(0.711648 -0.278677 0 0.278958 0 0)
(0.766495 -0.320278 0 0.303585 0 0)
(0.845558 -0.342584 0 0.328315 0 0)
(0.911628 -0.385748 0 0.355663 0 0)
(0.990521 -0.405342 0 0.382025 0 0)
(1.07344 -0.453614 0 0.411148 0 0)
(1.15448 -0.47125 0 0.439152 0 0)
(1.26006 -0.528307 0 0.472812 0 0)
(1.35098 -0.547041 0 0.506056 0 0)
(1.48345 -0.617288 0 0.546274 0 0)
(1.5896 -0.64308 0 0.585717 0 0)
(1.74511 -0.729013 0 0.63433 0 0)
(1.85948 -0.762249 0 0.68111 0 0)
(2.03213 -0.860126 0 0.736409 0 0)
(2.13832 -0.89401 0 0.787031 0 0)
(2.32607 -1.00042 0 0.845458 0 0)
(2.4067 -1.02915 0 0.896828 0 0)
(2.61062 -1.14369 0 0.955774 0 0)
(2.64451 -1.15853 0 1.00691 0 0)
(2.86329 -1.27936 0 1.06459 0 0)
(2.84037 -1.27564 0 1.1158 0 0)
(3.07975 -1.40423 0 1.17403 0 0)
(3.0071 -1.37902 0 1.22572 0 0)
(3.26861 -1.51138 0 1.28807 0 0)
(3.16295 -1.47134 0 1.33879 0 0)
(3.45819 -1.60605 0 1.40537 0 0)
(3.33752 -1.55983 0 1.45492 0 0)
(3.67542 -1.70211 0 1.52973 0 0)
(3.54876 -1.65771 0 1.58063 0 0)
(3.93393 -1.80985 0 1.66055 0 0)
(3.78952 -1.76461 0 1.71292 0 0)
(4.22501 -1.92804 0 1.79696 0 0)
(4.03248 -1.86899 0 1.85184 0 0)
(4.52238 -2.04718 0 1.94036 0 0)
(4.25171 -1.95533 0 1.99558 0 0)
(4.79182 -2.1472 0 2.08481 0 0)
(4.42854 -2.00803 0 2.13525 0 0)
(5.01758 -2.21779 0 2.21996 0 0)
(4.5735 -2.03535 0 2.26113 0 0)
(5.21245 -2.26856 0 2.34279 0 0)
(4.7137 -2.06732 0 2.37652 0 0)
(5.40208 -2.32282 0 2.46879 0 0)
(4.85198 -2.12932 0 2.50424 0 0)
(5.58724 -2.38774 0 2.60559 0 0)
(4.96546 -2.20334 0 2.63832 0 0)
(5.74014 -2.43046 0 2.7318 0 0)
(5.01588 -2.23121 0 2.74912 0 0)
(5.83525 -2.41501 0 2.81429 0 0)
(5.00355 -2.18552 0 2.80549 0 0)
(5.91455 -2.36154 0 2.85405 0 0)
(5.00021 -2.11939 0 2.84776 0 0)
(6.04061 -2.3356 0 2.91695 0 0)
(5.05765 -2.08036 0 2.91878 0 0)
(6.24291 -2.34709 0 3.00498 0 0)
(5.19137 -2.07309 0 3.01292 0 0)
(6.50706 -2.41206 0 3.12024 0 0)
(5.38444 -2.11157 0 3.15505 0 0)
(6.77896 -2.5206 0 3.30624 0 0)
(5.59294 -2.182 0 3.37762 0 0)
(6.99402 -2.61721 0 3.5736 0 0)
(5.74198 -2.22327 0 3.65242 0 0)
(7.11945 -2.64898 0 3.85825 0 0)
(5.78805 -2.22241 0 3.92696 0 0)
(7.188 -2.64283 0 4.11464 0 0)
(5.79584 -2.19471 0 4.15801 0 0)
(7.20719 -2.60931 0 4.32116 0 0)
(5.81226 -2.16381 0 4.33356 0 0)
(7.19943 -2.53911 0 4.49979 0 0)
(5.83988 -2.12039 0 4.52556 0 0)
(7.20249 -2.45425 0 4.71417 0 0)
(5.90609 -2.05314 0 4.74514 0 0)
(7.26992 -2.3694 0 4.94885 0 0)
(6.00737 -2.01399 0 5.01441 0 0)
(7.39935 -2.36441 0 5.24573 0 0)
(6.15418 -2.00167 0 5.32531 0 0)
(7.58124 -2.37249 0 5.56152 0 0)
(6.34804 -1.98222 0 5.62243 0 0)
(7.77284 -2.38707 0 5.87446 0 0)
(6.55818 -1.95243 0 5.95083 0 0)
(7.94245 -2.36173 0 6.23611 0 0)
(6.742 -1.90098 0 6.32912 0 0)
(8.04443 -2.31226 0 6.66899 0 0)
(6.83645 -1.81341 0 6.78658 0 0)
(8.081 -2.23092 0 7.14637 0 0)
(6.83448 -1.6838 0 7.24066 0 0)
(8.07174 -2.11172 0 7.59755 0 0)
(6.71486 -1.55742 0 7.64748 0 0)
(7.95345 -1.99769 0 8.00398 0 0)
(6.55174 -1.3998 0 8.0217 0 0)
(7.82626 -1.84168 0 8.3367 0 0)
(6.46725 -1.24396 0 8.31133 0 0)
(7.81762 -1.71225 0 8.6063 0 0)
(6.53174 -1.12869 0 8.56832 0 0)
(7.92287 -1.59519 0 8.85691 0 0)
(6.70242 -1.01669 0 8.81065 0 0)
(8.02683 -1.45706 0 9.10741 0 0)
(6.90807 -0.926075 0 9.07799 0 0)
(8.08965 -1.36019 0 9.36029 0 0)
(7.14217 -0.887906 0 9.38157 0 0)
(8.16597 -1.29259 0 9.68237 0 0)
(7.36007 -0.854228 0 9.77414 0 0)
(8.24172 -1.22825 0 10.1063 0 0)
(7.46262 -0.843458 0 10.221 0 0)
(8.2287 -1.19651 0 10.5567 0 0)
(7.43594 -0.838562 0 10.6661 0 0)
(8.17696 -1.17787 0 10.9701 0 0)
(7.38639 -0.804292 0 11.0677 0 0)
(8.14207 -1.14001 0 11.2995 0 0)
(7.39503 -0.786225 0 11.377 0 0)
(8.12417 -1.1193 0 11.5844 0 0)
(7.49508 -0.849693 0 11.6812 0 0)
(8.11769 -1.14929 0 11.8606 0 0)
(7.6072 -0.994313 0 11.9954 0 0)
(8.11753 -1.18633 0 12.1803 0 0)
(7.72513 -1.08567 0 12.3598 0 0)
(8.12822 -1.15477 0 12.5401 0 0)
(7.80763 -1.07169 0 12.7323 0 0)
(8.19392 -1.0573 0 12.8692 0 0)
(7.90608 -1.01296 0 13.0187 0 0)
(8.23418 -0.95334 0 13.2188 0 0)
(7.96226 -0.952839 0 13.4678 0 0)
(8.20079 -0.847723 0 13.6481 0 0)
(7.91567 -0.860847 0 13.912 0 0)
(8.09178 -0.730498 0 14.0172 0 0)
(7.80509 -0.767177 0 14.2162 0 0)
(7.89352 -0.5744 0 14.359 0 0)
(7.56554 -0.611286 0 14.6291 0 0)
(7.64213 -0.388823 0 14.6877 0 0)
(7.28512 -0.447605 0 14.9058 0 0)
(7.39379 -0.243987 0 14.9519 0 0)
(6.97023 -0.284932 0 15.1381 0 0)
(7.09711 -0.0867257 0 15.1815 0 0)
(6.76834 -0.0600701 0 15.27 0 0)
(6.86013 0.0396133 0 15.1473 0 0)
(6.6522 0.0797716 0 15.2077 0 0)
(6.74159 0.0931587 0 15.1722 0 0)
(6.58495 0.137801 0 15.2175 0 0)
(6.66939 0.100832 0 15.1239 0 0)
(6.58699 0.19101 0 15.2383 0 0)
(6.60472 0.133862 0 15.1799 0 0)
(6.54243 0.199053 0 15.2382 0 0)
(6.44039 0.0725474 0 15.2141 0 0)
(6.47634 0.194424 0 15.1986 0 0)
(6.32072 -0.0392866 0 15.0922 0 0)
(6.38513 0.135599 0 15.1358 0 0)
(6.24936 -0.142163 0 14.9851 0 0)
(6.3252 0.0192311 0 14.9878 0 0)
(6.14484 -0.254972 0 14.8903 0 0)
(6.27353 -0.0822483 0 14.948 0 0)
(6.08551 -0.404235 0 14.8193 0 0)
(6.23904 -0.187746 0 14.662 0 0)
(6.08206 -0.58059 0 14.6224 0 0)
(6.11001 -0.294821 0 14.4255 0 0)
(6.0579 -0.825684 0 14.2729 0 0)
(6.02969 -0.384877 0 13.9426 0 0)
(5.96452 -1.02726 0 13.633 0 0)
(6.07567 -0.504279 0 13.2127 0 0)
(5.89542 -1.16355 0 12.7845 0 0)
(6.16918 -0.617389 0 12.5759 0 0)
(5.9313 -1.25596 0 12.017 0 0)
(6.20777 -0.815831 0 11.9915 0 0)
(6.00753 -1.23305 0 11.204 0 0)
(6.16853 -1.05545 0 11.5106 0 0)
(5.95114 -1.11717 0 10.3818 0 0)
(6.04012 -1.34221 0 11.0586 0 0)
(5.7288 -0.952288 0 9.48573 0 0)
(5.85036 -1.60947 0 10.6149 0 0)