/*--------------------------------*- C++ -*----------------------------------*\
| =========                 |                                                 |
| \\      /  F ield         | OpenFOAM: The Open Source CFD Toolbox           |
|  \\    /   O peration     | Version:  2.4.0                                 |
|   \\  /    A nd           | Web:      www.OpenFOAM.org                      |
|    \\/     M anipulation  |                                                 |
\*---------------------------------------------------------------------------*/
FoamFile
{
    version     2.0;
    format      ascii;
    class       volScalarField;
    location    "0.01";
    object      k_0;
}
// * * * * * * * * * * * * * * * * * * * * * * * * * * * * * * * * * * * * * //

dimensions      [0 2 -2 0 0 0 0];

internalField   nonuniform List<scalar> 
8800
(
8.15493
10.2164
8.75664
7.01157
5.83921
5.06353
4.78157
4.79367
4.90175
4.92219
4.89274
4.96388
4.8038
5.10763
4.83697
4.95005
5.37244
4.8566
5.70888
5.2607
1.41672
4.36159
5.23558
5.28544
5.1768
4.9026
4.63808
4.4525
4.43107
4.43504
4.43187
4.46015
4.38084
4.50472
4.38531
4.39893
4.56382
4.39417
4.4403
4.63022
0.0853388
0.789788
1.51872
1.81737
2.27421
2.44736
2.39519
2.22678
2.1
2.06679
2.05085
1.99774
2.02325
1.9523
2.01419
1.98538
1.87774
1.96647
1.87018
1.75808
0.00338425
0.0768311
0.244162
0.347286
0.594243
0.715575
0.702704
0.639412
0.533777
0.48133
0.429678
0.393806
0.391342
0.359492
0.393085
0.363283
0.339816
0.366366
0.337083
0.289107
0.000121637
0.0055093
0.0212732
0.0371341
0.0930241
0.125264
0.119733
0.0973002
0.063187
0.0437393
0.029584
0.0217162
0.0199514
0.0161647
0.020763
0.017855
0.016066
0.0166259
0.0153061
0.0124663
2.53557e-05
0.00034414
0.00132762
0.00263139
0.00863319
0.0124914
0.0114874
0.00750696
0.00358894
0.00177599
0.000813129
0.000358691
0.000271958
0.000141697
0.000306089
0.00022501
0.000146152
0.00013555
0.000111344
0.000101707
2.20419e-05
4.66713e-05
0.000109876
0.000197628
0.000615368
0.000857729
0.000770313
0.000455494
0.00024679
0.000148242
9.05482e-05
5.12825e-05
2.86329e-05
1.27427e-05
8.54511e-06
3.99324e-06
1.52104e-06
8.76202e-07
1.04268e-06
6.17579e-06
2.12447e-05
3.30458e-05
4.46625e-05
5.95011e-05
0.000105329
0.000125462
0.000122655
0.000109839
0.000100658
9.31226e-05
7.56739e-05
4.81893e-05
2.67832e-05
1.31202e-05
6.0132e-06
2.64656e-06
9.30388e-07
4.31519e-07
5.38581e-07
1.37129e-06
2.08349e-05
3.0986e-05
3.86159e-05
4.84907e-05
7.09705e-05
8.41594e-05
8.80408e-05
8.80568e-05
8.75137e-05
8.52199e-05
7.6314e-05
4.95926e-05
2.69777e-05
1.3113e-05
5.78482e-06
2.50674e-06
9.61049e-07
3.61086e-07
3.60084e-07
1.39218e-06
2.06559e-05
2.99631e-05
3.66477e-05
4.53686e-05
6.52283e-05
7.74194e-05
8.22911e-05
8.38048e-05
8.39409e-05
8.2717e-05
7.54654e-05
4.9941e-05
2.7039e-05
1.31291e-05
5.79283e-06
2.48397e-06
9.19422e-07
3.3542e-07
3.50099e-07
1.86562e-06
2.0656e-05
2.99629e-05
3.66492e-05
4.53596e-05
6.52377e-05
7.7402e-05
8.22741e-05
8.38036e-05
8.39331e-05
8.27251e-05
7.54358e-05
4.99396e-05
2.69335e-05
1.30767e-05
5.75456e-06
2.41442e-06
9.27717e-07
3.25066e-07
3.18991e-07
7.20669e-07
2.0835e-05
3.09884e-05
3.86079e-05
4.84961e-05
7.09498e-05
8.42059e-05
8.79913e-05
8.80539e-05
8.74879e-05
8.52052e-05
7.62543e-05
4.95441e-05
2.69043e-05
1.30955e-05
5.75201e-06
2.39536e-06
9.19589e-07
3.16572e-07
2.8742e-07
1.34331e-06
2.12449e-05
3.30418e-05
4.45969e-05
5.96272e-05
0.000105783
0.000125763
0.0001228
0.000109974
0.000100599
9.31409e-05
7.55799e-05
4.82273e-05
2.65751e-05
1.30377e-05
5.76304e-06
2.37456e-06
9.44144e-07
5.71496e-07
8.95771e-07
3.46998e-06
2.20435e-05
4.67623e-05
0.000109429
0.000198546
0.000622108
0.000863413
0.000774467
0.000457435
0.000246328
0.000150317
9.01285e-05
5.23059e-05
2.75163e-05
1.36407e-05
7.40253e-06
4.00634e-06
6.99283e-06
1.26051e-05
2.71163e-05
8.57273e-05
2.53646e-05
0.000346179
0.00132267
0.00263684
0.0086905
0.0125481
0.011539
0.00754254
0.00361078
0.00180073
0.00083154
0.000433375
0.000238496
0.000203165
0.00026848
0.000271083
0.000513339
0.000727139
0.00115148
0.00251233
0.000121682
0.00553231
0.0212511
0.0371609
0.0932745
0.125523
0.120007
0.0974551
0.0637447
0.0436777
0.0302649
0.0231177
0.0194758
0.0187082
0.0203381
0.0204417
0.0252904
0.0287398
0.0348508
0.0522673
0.0033846
0.0769215
0.244116
0.347381
0.594642
0.716055
0.703326
0.63855
0.538287
0.478798
0.433136
0.402602
0.387932
0.384025
0.392789
0.393644
0.415901
0.433568
0.459289
0.526527
0.0853404
0.789779
1.51881
1.81746
2.27431
2.44771
2.3956
2.22614
2.10278
2.07093
2.04708
2.02295
2.01712
2.0171
2.03499
2.03728
2.07486
2.09777
2.13594
2.21878
1.41672
4.36159
5.23545
5.28552
5.17644
4.90347
4.63491
4.45574
4.4278
4.43495
4.43931
4.43427
4.42796
4.43093
4.42113
4.41394
4.40858
4.33981
4.34096
4.24983
8.15489
10.2164
8.75641
7.0115
5.83816
5.06391
4.77797
4.794
4.89379
4.91156
4.89566
4.87685
4.86307
4.85721
4.80008
4.76331
4.68302
4.47139
4.41625
3.93435
3.61773
2.95655
2.7357
2.19426
1.49192
1.3168
1.36975
1.31843
0.911256
0.513407
0.261205
0.118381
0.0800785
0.0639574
0.0442568
0.0332489
0.0300228
0.0325743
0.0348402
0.0322036
0.0246511
0.0175461
0.0111611
0.00628598
0.00324211
0.00160788
0.000795491
0.000405227
0.000217369
0.000123692
7.41073e-05
4.61149e-05
2.9414e-05
1.90468e-05
1.24558e-05
8.20161e-06
5.42921e-06
3.60955e-06
2.40844e-06
1.61193e-06
1.08164e-06
7.27397e-07
4.90078e-07
3.30704e-07
2.23456e-07
1.51158e-07
1.0235e-07
6.93581e-08
4.70341e-08
3.19148e-08
2.16673e-08
1.47171e-08
1.00005e-08
6.79816e-09
4.62293e-09
3.14478e-09
2.13995e-09
1.45664e-09
9.91834e-10
6.7556e-10
4.60293e-10
3.13732e-10
2.13918e-10
1.45918e-10
9.95766e-11
6.79844e-11
4.64396e-11
3.17415e-11
2.171e-11
1.486e-11
1.01799e-11
6.98056e-12
4.79207e-12
3.29397e-12
2.26763e-12
1.56383e-12
1.08071e-12
7.48675e-13
5.20148e-13
3.62603e-13
2.53782e-13
1.7845e-13
1.26165e-13
8.97655e-14
6.43371e-14
4.65022e-14
3.39368e-14
2.50385e-14
1.87007e-14
1.41583e-14
1.08799e-14
8.49598e-15
6.74884e-15
5.45706e-15
4.49456e-15
3.7711e-15
3.22222e-15
2.80331e-15
2.48153e-15
2.23201e-15
2.03765e-15
1.88781e-15
1.7709e-15
1.67794e-15
1.60876e-15
1.55949e-15
1.51976e-15
1.49241e-15
1.48534e-15
1.48704e-15
1.49436e-15
1.51154e-15
1.54464e-15
1.59214e-15
1.65684e-15
1.74157e-15
1.85151e-15
1.99185e-15
2.17245e-15
2.40281e-15
2.70103e-15
3.08501e-15
3.58839e-15
4.24661e-15
5.12182e-15
6.28834e-15
7.86193e-15
1.00038e-14
1.29297e-14
1.69973e-14
2.26107e-14
3.05653e-14
4.16354e-14
5.75669e-14
7.98942e-14
1.12397e-13
1.58231e-13
2.25479e-13
3.2083e-13
4.61329e-13
6.61742e-13
9.5747e-13
1.38167e-12
2.00732e-12
2.90997e-12
4.23881e-12
6.16597e-12
8.99653e-12
1.31216e-11
1.91651e-11
2.80075e-11
4.09381e-11
5.99154e-11
8.76338e-11
1.28396e-10
1.87929e-10
2.75573e-10
4.03677e-10
5.92384e-10
8.68687e-10
1.27555e-09
1.8743e-09
2.74942e-09
4.06668e-09
5.91503e-09
8.92926e-09
1.26404e-08
1.98786e-08
2.74247e-08
4.36945e-08
6.16433e-08
9.25032e-08
1.47808e-07
2.02184e-07
3.24553e-07
5.00044e-07
6.49745e-07
1.40442e-06
1.36605e-06
5.07776e-06
4.53043e-06
3.44818e-05
3.9046e-05
0.000245217
0.000207237
0.000533005
0.000454853
0.00064341
0.000581498
0.00110687
0.00116105
0.00145652
0.00188624
0.00243925
0.00336379
0.00451295
0.00717177
0.0127164
0.0644105
0.928322
3.97069
3.18935
2.4967
2.25402
2.06938
1.91488
1.74589
1.18513
0.517703
0.218521
0.103525
0.046633
0.0328614
0.0409021
0.0393781
0.0324934
0.0279131
0.0265958
0.028314
0.0280117
0.020909
0.0123354
0.00716307
0.00414083
0.00234912
0.00129321
0.000701773
0.000382802
0.00021378
0.000123763
7.45928e-05
4.64901e-05
2.96668e-05
1.92285e-05
1.25861e-05
8.29149e-06
5.48893e-06
3.64839e-06
2.43348e-06
1.6279e-06
1.09171e-06
7.337e-07
4.93995e-07
3.33124e-07
2.24943e-07
1.52069e-07
1.02905e-07
6.9696e-08
4.7239e-08
3.20388e-08
2.17421e-08
1.47622e-08
1.00276e-08
6.81444e-09
4.63268e-09
3.15062e-09
2.14345e-09
1.45874e-09
9.9308e-10
6.76297e-10
4.60727e-10
3.13989e-10
2.1407e-10
1.46009e-10
9.96305e-11
6.8016e-11
4.64575e-11
3.17507e-11
2.17139e-11
1.4861e-11
1.01796e-11
6.97979e-12
4.79123e-12
3.29326e-12
2.26714e-12
1.56356e-12
1.08062e-12
7.48696e-13
5.20219e-13
3.62682e-13
2.53848e-13
1.78495e-13
1.26187e-13
8.97655e-14
6.43192e-14
4.6472e-14
3.38996e-14
2.49985e-14
1.86614e-14
1.41217e-14
1.08474e-14
8.46803e-15
6.72546e-15
5.43846e-15
4.47988e-15
3.76026e-15
3.21437e-15
2.79751e-15
2.47767e-15
2.22864e-15
2.03459e-15
1.88475e-15
1.76702e-15
1.67331e-15
1.60349e-15
1.55363e-15
1.51341e-15
1.48572e-15
1.47848e-15
1.48015e-15
1.48743e-15
1.5046e-15
1.53764e-15
1.58536e-15
1.65e-15
1.73508e-15
1.84465e-15
1.98556e-15
2.16531e-15
2.39653e-15
2.69283e-15
3.07827e-15
3.57823e-15
4.23891e-15
5.10857e-15
6.27888e-15
7.84599e-15
9.99305e-15
1.29144e-14
1.69818e-14
2.26045e-14
3.05385e-14
4.16505e-14
5.74911e-14
7.99453e-14
1.12206e-13
1.58338e-13
2.24986e-13
3.21007e-13
4.60323e-13
6.61961e-13
9.55388e-13
1.38173e-12
2.00356e-12
2.90894e-12
4.23166e-12
6.16103e-12
8.98361e-12
1.31037e-11
1.9139e-11
2.79548e-11
4.08806e-11
5.97713e-11
8.74857e-11
1.28029e-10
1.87525e-10
2.74654e-10
4.02558e-10
5.90154e-10
8.65452e-10
1.27073e-09
1.86334e-09
2.74487e-09
4.01961e-09
5.95025e-09
8.7241e-09
1.28724e-08
1.93061e-08
2.74754e-08
4.36962e-08
6.04651e-08
9.52658e-08
1.45406e-07
1.95754e-07
3.77345e-07
4.45625e-07
1.06028e-06
1.0563e-06
3.79027e-06
4.64165e-06
2.21498e-05
3.46111e-05
0.00013744
0.000158035
0.00039654
0.000592936
0.00149114
0.00128587
0.00274694
0.00182864
0.00204601
0.00176796
0.00257871
0.00361593
0.00465456
0.00519896
0.00843683
0.0134034
0.0755471
0.433117
1.50294
1.19988
0.718306
0.637947
0.820335
0.899657
0.797753
0.37516
0.150603
0.0635591
0.0298839
0.0186091
0.0151992
0.0167521
0.0301622
0.0354071
0.0340446
0.0274651
0.024634
0.0238092
0.0194317
0.0113423
0.00620662
0.00329589
0.00173564
0.000928283
0.000512912
0.000296556
0.000179169
0.000111722
7.09303e-05
4.55602e-05
2.95081e-05
1.92389e-05
1.2624e-05
8.33053e-06
5.5216e-06
3.67214e-06
2.44943e-06
1.63829e-06
1.09837e-06
7.37909e-07
4.96633e-07
3.34765e-07
2.25958e-07
1.52693e-07
1.03288e-07
6.99298e-08
4.73814e-08
3.21254e-08
2.17946e-08
1.47939e-08
1.00468e-08
6.82597e-09
4.6396e-09
3.15476e-09
2.14593e-09
1.46023e-09
9.93981e-10
6.76842e-10
4.61053e-10
3.1418e-10
2.14181e-10
1.46073e-10
9.9667e-11
6.80367e-11
4.64689e-11
3.17571e-11
2.17176e-11
1.48631e-11
1.01809e-11
6.9807e-12
4.79189e-12
3.29373e-12
2.26742e-12
1.56368e-12
1.08059e-12
7.48548e-13
5.19997e-13
3.62429e-13
2.536e-13
1.78272e-13
1.25999e-13
8.96151e-14
6.42032e-14
4.63847e-14
3.38343e-14
2.49499e-14
1.8625e-14
1.40941e-14
1.08256e-14
8.44999e-15
6.70985e-15
5.42376e-15
4.46555e-15
3.74541e-15
3.19894e-15
2.78167e-15
2.46111e-15
2.21212e-15
2.01814e-15
1.86858e-15
1.75174e-15
1.65891e-15
1.58994e-15
1.54083e-15
1.50123e-15
1.47414e-15
1.46728e-15
1.46901e-15
1.47636e-15
1.49412e-15
1.52636e-15
1.57357e-15
1.63887e-15
1.72297e-15
1.83141e-15
1.97256e-15
2.1517e-15
2.38111e-15
2.67685e-15
3.06207e-15
3.5616e-15
4.21921e-15
5.08986e-15
6.25575e-15
7.82737e-15
9.95954e-15
1.28917e-14
1.69239e-14
2.25781e-14
3.04358e-14
4.1623e-14
5.73051e-14
7.99313e-14
1.11884e-13
1.58373e-13
2.24432e-13
3.21152e-13
4.59364e-13
6.62194e-13
9.53684e-13
1.38179e-12
2.00047e-12
2.9077e-12
4.22562e-12
6.15602e-12
8.96984e-12
1.30896e-11
1.91039e-11
2.7918e-11
4.07912e-11
5.96696e-11
8.72667e-11
1.27742e-10
1.8698e-10
2.73888e-10
4.01122e-10
5.88281e-10
8.61132e-10
1.26815e-09
1.84404e-09
2.76372e-09
3.90067e-09
6.13077e-09
8.34271e-09
1.3399e-08
1.83841e-08
2.91839e-08
4.04173e-08
6.45205e-08
9.16603e-08
1.36188e-07
2.28341e-07
3.15245e-07
5.5869e-07
8.31551e-07
1.18446e-06
3.54651e-06
3.66428e-06
1.88166e-05
2.25995e-05
7.55751e-05
7.96998e-05
0.000160885
0.000233406
0.000458684
0.000739118
0.00155463
0.00351227
0.00338346
0.00375784
0.00328932
0.00375272
0.00498214
0.00568648
0.0252565
0.0192866
0.0705974
0.235704
0.226577
0.153705
0.0953515
0.0930399
0.131246
0.138477
0.108283
0.0571089
0.0302535
0.0117713
0.00629607
0.00905982
0.0115048
0.0112164
0.0120694
0.0326851
0.0402728
0.0358142
0.0240504
0.0190093
0.0164248
0.01114
0.00667828
0.00369922
0.00193806
0.000991687
0.000518466
0.000287024
0.000169546
0.000105314
6.74251e-05
4.38782e-05
2.88167e-05
1.90156e-05
1.25758e-05
8.33178e-06
5.53296e-06
3.68472e-06
2.45989e-06
1.6459e-06
1.10355e-06
7.41322e-07
4.98835e-07
3.36165e-07
2.26838e-07
1.53242e-07
1.03628e-07
7.01392e-08
4.75098e-08
3.22038e-08
2.18423e-08
1.48228e-08
1.00643e-08
6.83654e-09
4.64599e-09
3.1586e-09
2.14822e-09
1.46158e-09
9.94786e-10
6.7732e-10
4.61338e-10
3.14349e-10
2.14281e-10
1.4613e-10
9.97001e-11
6.80555e-11
4.64797e-11
3.1763e-11
2.17204e-11
1.48643e-11
1.01812e-11
6.98037e-12
4.79122e-12
3.29289e-12
2.26655e-12
1.56287e-12
1.07989e-12
7.47992e-13
5.19576e-13
3.62117e-13
2.53369e-13
1.78097e-13
1.25862e-13
8.95033e-14
6.41098e-14
4.63049e-14
3.37651e-14
2.48889e-14
1.85703e-14
1.40444e-14
1.07799e-14
8.40784e-15
6.67067e-15
5.38733e-15
4.43186e-15
3.7143e-15
3.17052e-15
2.75567e-15
2.43726e-15
2.19033e-15
1.99788e-15
1.84954e-15
1.73378e-15
1.64163e-15
1.57295e-15
1.52403e-15
1.48453e-15
1.45732e-15
1.45029e-15
1.45197e-15
1.45923e-15
1.47629e-15
1.50908e-15
1.55624e-15
1.62037e-15
1.70442e-15
1.81327e-15
1.95261e-15
2.1316e-15
2.36032e-15
2.65608e-15
3.03737e-15
3.53754e-15
4.19067e-15
5.06209e-15
6.21825e-15
7.79042e-15
9.91125e-15
1.28434e-14
1.68644e-14
2.25089e-14
3.03662e-14
4.15132e-14
5.72364e-14
7.97435e-14
1.11832e-13
1.58006e-13
2.24416e-13
3.20432e-13
4.59361e-13
6.60788e-13
9.53557e-13
1.37921e-12
1.9996e-12
2.90274e-12
4.22284e-12
6.14536e-12
8.96235e-12
1.30638e-11
1.90844e-11
2.78568e-11
4.0732e-11
5.95256e-11
8.70943e-11
1.27385e-10
1.86514e-10
2.72948e-10
3.99881e-10
5.85891e-10
8.57622e-10
1.26234e-09
1.8334e-09
2.75314e-09
3.86142e-09
6.11586e-09
8.28225e-09
1.33244e-08
1.8217e-08
2.92138e-08
3.97786e-08
6.64815e-08
8.84135e-08
1.55777e-07
2.09528e-07
3.45088e-07
6.70558e-07
7.86269e-07
4.18353e-06
3.63542e-06
3.24488e-05
4.15585e-05
0.000151496
0.000259989
0.000573222
0.000844027
0.00165562
0.00118919
0.00160704
0.00174721
0.00241491
0.00509144
0.00571389
0.0117535
0.00900591
0.0309596
0.0186966
0.0774047
0.041199
0.0496482
0.113558
0.00744133
0.0070864
0.00657906
0.00681159
0.00972383
0.00880131
0.00687483
0.00757044
0.00679923
0.00486195
0.00394771
0.00589637
0.00963125
0.010596
0.0102817
0.0138404
0.0364628
0.0370625
0.0260547
0.0176898
0.0133022
0.010726
0.00758532
0.00465465
0.00257608
0.00133931
0.000680501
0.000352002
0.000191675
0.000111499
6.86832e-05
4.39158e-05
2.86467e-05
1.88736e-05
1.24998e-05
8.30396e-06
5.52853e-06
3.68788e-06
2.46491e-06
1.65051e-06
1.10709e-06
7.4381e-07
5.00507e-07
3.37264e-07
2.27547e-07
1.53693e-07
1.03912e-07
7.03163e-08
4.76196e-08
3.22714e-08
2.18837e-08
1.48481e-08
1.00797e-08
6.84588e-09
4.65162e-09
3.162e-09
2.15026e-09
1.46281e-09
9.95515e-10
6.77751e-10
4.61591e-10
3.14497e-10
2.14367e-10
1.46182e-10
9.97304e-11
6.80731e-11
4.64895e-11
3.17679e-11
2.17224e-11
1.48646e-11
1.01807e-11
6.97949e-12
4.79028e-12
3.29204e-12
2.26584e-12
1.56231e-12
1.07945e-12
7.47621e-13
5.19252e-13
3.6183e-13
2.53116e-13
1.77876e-13
1.2567e-13
8.93373e-14
6.39666e-14
4.61812e-14
3.36575e-14
2.4795e-14
1.84882e-14
1.39725e-14
1.07168e-14
8.35216e-15
6.62145e-15
5.34384e-15
4.39294e-15
3.67929e-15
3.13847e-15
2.72595e-15
2.40952e-15
2.16373e-15
1.97247e-15
1.82506e-15
1.70969e-15
1.61794e-15
1.54975e-15
1.50129e-15
1.46214e-15
1.43524e-15
1.42837e-15
1.43007e-15
1.43732e-15
1.45435e-15
1.48698e-15
1.53401e-15
1.59768e-15
1.68132e-15
1.78934e-15
1.92819e-15
2.10575e-15
2.33364e-15
2.62685e-15
3.00752e-15
3.50354e-15
4.15605e-15
5.02028e-15
6.17777e-15
7.73889e-15
9.8616e-15
1.27748e-14
1.68024e-14
2.24205e-14
3.02773e-14
4.13846e-14
5.71059e-14
7.9574e-14
1.11604e-13
1.57746e-13
2.24047e-13
3.2006e-13
4.58698e-13
6.60022e-13
9.52583e-13
1.37738e-12
1.99814e-12
2.89789e-12
4.22036e-12
6.13437e-12
8.95381e-12
1.30428e-11
1.90518e-11
2.78212e-11
4.06218e-11
5.94729e-11
8.67452e-11
1.27334e-10
1.8549e-10
2.72852e-10
3.97403e-10
5.84587e-10
8.53875e-10
1.25195e-09
1.8404e-09
2.68317e-09
3.97538e-09
5.77875e-09
8.5511e-09
1.27654e-08
1.78171e-08
2.93782e-08
3.87623e-08
6.82158e-08
8.43806e-08
1.92298e-07
1.87754e-07
8.05757e-07
6.53304e-07
7.76586e-06
8.88076e-06
9.40368e-05
0.000115052
0.000602365
0.000477007
0.00286112
0.00199159
0.0181172
0.0109368
0.0535299
0.0398236
0.110892
0.0718475
0.152904
0.104349
0.19175
0.113257
0.162704
0.10681
0.121774
0.0935294
0.0758776
0.0971369
0.000201088
0.000268683
0.000524551
0.00159048
0.00137824
0.00192808
0.00216631
0.00205958
0.00197744
0.00500036
0.00640268
0.00452242
0.00386947
0.00952764
0.0134403
0.0126999
0.0148789
0.0192707
0.0199863
0.0164733
0.0111741
0.00711757
0.00495048
0.00346589
0.00219791
0.0012528
0.000671958
0.000357754
0.000197174
0.000114597
7.00329e-05
4.43888e-05
2.87725e-05
1.88912e-05
1.24932e-05
8.29708e-06
5.52589e-06
3.68836e-06
2.46651e-06
1.65246e-06
1.10902e-06
7.45395e-07
5.01675e-07
3.38072e-07
2.28086e-07
1.54045e-07
1.04138e-07
7.04597e-08
4.77096e-08
3.23276e-08
2.19186e-08
1.48697e-08
1.00929e-08
6.85395e-09
4.65653e-09
3.16498e-09
2.15206e-09
1.46389e-09
9.96159e-10
6.78134e-10
4.61819e-10
3.14632e-10
2.14445e-10
1.46224e-10
9.97517e-11
6.80831e-11
4.64936e-11
3.17691e-11
2.17223e-11
1.4864e-11
1.01798e-11
6.9786e-12
4.78943e-12
3.29125e-12
2.26511e-12
1.56164e-12
1.07885e-12
7.47086e-13
5.1878e-13
3.61423e-13
2.52769e-13
1.77582e-13
1.25421e-13
8.91281e-14
6.37903e-14
4.60316e-14
3.35297e-14
2.46855e-14
1.8394e-14
1.38909e-14
1.06454e-14
8.28932e-15
6.56567e-15
5.29369e-15
4.34729e-15
3.63732e-15
3.09952e-15
2.68947e-15
2.37498e-15
2.13101e-15
1.94122e-15
1.795e-15
1.68071e-15
1.58987e-15
1.52245e-15
1.47453e-15
1.43576e-15
1.40913e-15
1.40236e-15
1.40406e-15
1.41127e-15
1.42819e-15
1.46069e-15
1.50736e-15
1.57056e-15
1.65348e-15
1.7609e-15
1.89859e-15
2.07506e-15
2.30097e-15
2.59303e-15
2.97075e-15
3.46492e-15
4.11234e-15
4.97506e-15
6.12512e-15
7.68302e-15
9.79285e-15
1.27039e-14
1.6715e-14
2.23229e-14
3.01541e-14
4.12495e-14
5.69491e-14
7.93625e-14
1.1137e-13
1.57424e-13
2.23735e-13
3.1949e-13
4.58121e-13
6.5913e-13
9.51431e-13
1.37593e-12
1.99504e-12
2.89586e-12
4.21304e-12
6.12873e-12
8.94144e-12
1.3014e-11
1.90586e-11
2.7669e-11
4.07923e-11
5.88017e-11
8.76373e-11
1.24963e-10
1.88412e-10
2.66611e-10
4.03334e-10
5.73105e-10
8.60305e-10
1.23188e-09
1.85582e-09
2.59898e-09
4.09091e-09
5.5385e-09
8.84891e-09
1.21172e-08
1.89551e-08
2.6945e-08
3.84515e-08
6.6957e-08
8.28549e-08
1.89249e-07
2.06494e-07
1.13616e-06
1.35223e-06
2.41785e-05
3.62603e-05
0.000680412
0.000763506
0.00625956
0.00507381
0.0163623
0.0130427
0.0244996
0.0216104
0.0316424
0.0337346
0.0501773
0.0555716
0.0757573
0.0844591
0.112912
0.111169
0.110282
0.109271
0.111656
0.120833
0.116861
0.11875
7.75154e-06
0.000167115
0.000123086
0.000713511
0.000864761
0.00088864
0.00172446
0.00202719
0.00196984
0.0038783
0.00560556
0.0041992
0.00323812
0.0108358
0.0186495
0.016053
0.0128943
0.00999878
0.0101246
0.0122274
0.0111684
0.00633208
0.00338219
0.00184445
0.00101741
0.00057393
0.000337878
0.000209424
0.000135599
9.0106e-05
6.05294e-05
4.07538e-05
2.7405e-05
1.83841e-05
1.23054e-05
8.22696e-06
5.49969e-06
3.67911e-06
2.46398e-06
1.65232e-06
1.1095e-06
7.46027e-07
5.02289e-07
3.38568e-07
2.2845e-07
1.54297e-07
1.04307e-07
7.05698e-08
4.77802e-08
3.23723e-08
2.19467e-08
1.48872e-08
1.01038e-08
6.86065e-09
4.66064e-09
3.16749e-09
2.1536e-09
1.46482e-09
9.96713e-10
6.78456e-10
4.62005e-10
3.14739e-10
2.14508e-10
1.46261e-10
9.97741e-11
6.80957e-11
4.65e-11
3.17719e-11
2.17232e-11
1.48639e-11
1.01791e-11
6.9776e-12
4.78836e-12
3.2902e-12
2.26414e-12
1.56078e-12
1.07811e-12
7.46448e-13
5.18239e-13
3.60967e-13
2.52386e-13
1.77258e-13
1.25147e-13
8.88967e-14
6.35939e-14
4.5864e-14
3.33863e-14
2.45624e-14
1.82877e-14
1.37981e-14
1.0564e-14
8.21729e-15
6.50138e-15
5.2357e-15
4.29453e-15
3.589e-15
3.05496e-15
2.64787e-15
2.33594e-15
2.0942e-15
1.90608e-15
1.76128e-15
1.64825e-15
1.55838e-15
1.49166e-15
1.44425e-15
1.4059e-15
1.37958e-15
1.37292e-15
1.37462e-15
1.3818e-15
1.39866e-15
1.43094e-15
1.47723e-15
1.53983e-15
1.62215e-15
1.72867e-15
1.86528e-15
2.04004e-15
2.26463e-15
2.55426e-15
2.92998e-15
3.41959e-15
4.06502e-15
4.92113e-15
6.06856e-15
7.61361e-15
9.72248e-15
1.26159e-14
1.66249e-14
2.21986e-14
3.00326e-14
4.10886e-14
5.67738e-14
7.91226e-14
1.11095e-13
1.57131e-13
2.23245e-13
3.19054e-13
4.57237e-13
6.58549e-13
9.49772e-13
1.37471e-12
1.99179e-12
2.89431e-12
4.20227e-12
6.13642e-12
8.88556e-12
1.31097e-11
1.87389e-11
2.83078e-11
3.91959e-11
6.16148e-11
8.31932e-11
1.32057e-10
1.79051e-10
2.81552e-10
3.83044e-10
6.02353e-10
8.19127e-10
1.25597e-09
1.80529e-09
2.64098e-09
3.98247e-09
5.47048e-09
8.85469e-09
1.1922e-08
1.89782e-08
2.58533e-08
4.23122e-08
5.66982e-08
9.72667e-08
1.40472e-07
2.67326e-07
7.29911e-07
2.76951e-06
1.5736e-05
6.77725e-05
0.000290743
0.000672136
0.00159054
0.00266618
0.00783871
0.0089769
0.00984184
0.016865
0.0213064
0.0221258
0.0259765
0.0375125
0.0439861
0.0608745
0.0608255
0.0829327
0.0876434
0.102361
0.107283
0.12609
0.1244
0.123082
6.98063e-06
1.4071e-05
0.000325391
0.000322931
0.000930171
0.000965063
0.00134473
0.00112353
0.00109166
0.00125727
0.00145723
0.0030746
0.00351249
0.0051115
0.0108518
0.0142119
0.0139972
0.0102923
0.00886297
0.00967389
0.00949224
0.00605107
0.00326704
0.00185648
0.00107483
0.000604314
0.000342715
0.000204934
0.000130276
8.63719e-05
5.83331e-05
3.95376e-05
2.67319e-05
1.80145e-05
1.21118e-05
8.13204e-06
5.45639e-06
3.66053e-06
2.4565e-06
1.64961e-06
1.10876e-06
7.45997e-07
5.02442e-07
3.38759e-07
2.2863e-07
1.54442e-07
1.04414e-07
7.06447e-08
4.78308e-08
3.24055e-08
2.19681e-08
1.49008e-08
1.01123e-08
6.86598e-09
4.66393e-09
3.1695e-09
2.15482e-09
1.46557e-09
9.97173e-10
6.78743e-10
4.62179e-10
3.14839e-10
2.14563e-10
1.46292e-10
9.97906e-11
6.81042e-11
4.65038e-11
3.17731e-11
2.17229e-11
1.48628e-11
1.01777e-11
6.97622e-12
4.78703e-12
3.28897e-12
2.26307e-12
1.55985e-12
1.0773e-12
7.45758e-13
5.17654e-13
3.60473e-13
2.51966e-13
1.76902e-13
1.24847e-13
8.8643e-14
6.33784e-14
4.56804e-14
3.32296e-14
2.44278e-14
1.81711e-14
1.36965e-14
1.04749e-14
8.13852e-15
6.43108e-15
5.17243e-15
4.23715e-15
3.53659e-15
3.00649e-15
2.60269e-15
2.2936e-15
2.0541e-15
1.86788e-15
1.72464e-15
1.61285e-15
1.52403e-15
1.45812e-15
1.41136e-15
1.37355e-15
1.34755e-15
1.34098e-15
1.34268e-15
1.34983e-15
1.36657e-15
1.3987e-15
1.44436e-15
1.50667e-15
1.588e-15
1.69385e-15
1.82875e-15
2.00229e-15
2.22496e-15
2.51207e-15
2.88505e-15
3.37086e-15
4.01259e-15
4.86365e-15
6.00383e-15
7.54136e-15
9.64337e-15
1.25227e-14
1.65212e-14
2.20645e-14
2.99175e-14
4.0865e-14
5.66823e-14
7.86445e-14
1.11262e-13
1.55962e-13
2.24129e-13
3.16437e-13
4.59333e-13
6.54311e-13
9.51574e-13
1.37096e-12
1.99018e-12
2.88789e-12
4.21428e-12
6.06433e-12
9.06376e-12
1.26062e-11
1.97526e-11
2.66061e-11
4.22701e-11
5.73233e-11
8.9841e-11
1.22305e-10
1.92668e-10
2.6149e-10
4.12071e-10
5.60133e-10
8.81593e-10
1.19791e-09
1.88521e-09
2.55703e-09
4.03128e-09
5.45954e-09
8.66123e-09
1.17497e-08
1.89567e-08
2.51711e-08
4.3029e-08
5.34252e-08
1.12848e-07
1.20188e-07
4.45178e-07
5.48962e-07
4.11392e-06
9.27138e-06
6.15034e-05
9.29495e-05
0.000292013
0.000681144
0.001682
0.00351761
0.00609657
0.00475133
0.00992309
0.00913838
0.0155922
0.014496
0.0239245
0.0202532
0.0320534
0.0304862
0.0518766
0.0538418
0.0825662
0.0836956
0.0946198
0.107824
0.116604
1.00329e-05
1.37276e-05
6.08025e-05
6.25039e-05
9.31955e-05
0.000109167
0.000145065
0.000894748
0.00132373
0.0010947
0.000969033
0.00512177
0.00591932
0.00547575
0.00531918
0.00510347
0.0141259
0.0137242
0.00732923
0.00518844
0.00350418
0.00195374
0.00130023
0.00126321
0.00117427
0.000760107
0.00043482
0.000248932
0.000148783
9.33957e-05
6.07209e-05
4.02403e-05
2.68913e-05
1.80171e-05
1.20788e-05
8.09963e-06
5.4333e-06
3.64662e-06
2.44904e-06
1.64597e-06
1.10715e-06
7.45373e-07
5.02267e-07
3.38755e-07
2.28673e-07
1.54493e-07
1.04459e-07
7.06822e-08
4.78592e-08
3.24259e-08
2.19822e-08
1.49102e-08
1.01185e-08
6.86997e-09
4.66647e-09
3.1711e-09
2.1558e-09
1.46616e-09
9.97528e-10
6.78957e-10
4.62311e-10
3.14923e-10
2.14613e-10
1.46318e-10
9.98026e-11
6.81084e-11
4.65044e-11
3.17721e-11
2.17213e-11
1.4861e-11
1.0176e-11
6.97458e-12
4.78556e-12
3.28769e-12
2.26192e-12
1.55882e-12
1.07639e-12
7.44987e-13
5.17018e-13
3.59948e-13
2.51528e-13
1.76535e-13
1.24537e-13
8.83794e-14
6.31527e-14
4.54865e-14
3.30625e-14
2.42832e-14
1.80458e-14
1.35879e-14
1.03801e-14
8.0551e-15
6.35688e-15
5.10591e-15
4.17706e-15
3.48147e-15
2.95546e-15
2.55515e-15
2.24891e-15
2.01186e-15
1.82766e-15
1.68608e-15
1.57571e-15
1.48804e-15
1.42295e-15
1.37687e-15
1.33962e-15
1.31391e-15
1.30742e-15
1.30913e-15
1.31683e-15
1.33276e-15
1.36915e-15
1.40394e-15
1.47986e-15
1.54162e-15
1.67188e-15
1.77357e-15
1.97781e-15
2.17744e-15
2.45275e-15
2.86389e-15
3.29986e-15
3.94529e-15
4.84192e-15
5.91338e-15
7.44136e-15
9.57875e-15
1.2493e-14
1.623e-14
2.22775e-14
2.89436e-14
4.23925e-14
5.44146e-14
8.18302e-14
1.07558e-13
1.62696e-13
2.15797e-13
3.32311e-13
4.43125e-13
6.86608e-13
9.22003e-13
1.43328e-12
1.95231e-12
2.8426e-12
4.44904e-12
5.92307e-12
8.88267e-12
1.30867e-11
1.92242e-11
2.64134e-11
4.23868e-11
5.69491e-11
8.97531e-11
1.2191e-10
1.91893e-10
2.60497e-10
4.10887e-10
5.5786e-10
8.45686e-10
1.27974e-09
1.71268e-09
2.71952e-09
3.73453e-09
5.83982e-09
7.95714e-09
1.2369e-08
1.77603e-08
2.4228e-08
4.30642e-08
5.16702e-08
1.09169e-07
1.10398e-07
4.0351e-07
3.46305e-07
3.35845e-06
3.69787e-06
3.8331e-05
3.34923e-05
0.000122093
0.000163126
0.000833587
0.000622889
0.00261596
0.00214269
0.0047834
0.00372849
0.00863618
0.00664752
0.0143416
0.011981
0.0173159
0.0184337
0.0402123
0.0353406
0.0438723
0.0448079
0.0591117
0.0929452
0.112492
3.12535e-06
8.20525e-06
1.27154e-05
3.07847e-05
0.000185238
0.000263549
0.000274998
0.000271552
0.000447702
0.00159294
0.00169446
0.00128691
0.00118488
0.00396236
0.00537104
0.00403715
0.00286229
0.00238416
0.00279536
0.00395344
0.00357873
0.00197898
0.00107913
0.000642702
0.000411228
0.000276499
0.000194161
0.000140419
0.000102321
7.38669e-05
5.24659e-05
3.66735e-05
2.53092e-05
1.73079e-05
1.17611e-05
7.95804e-06
5.36989e-06
3.61772e-06
2.43564e-06
1.6397e-06
1.10424e-06
7.44045e-07
5.01685e-07
3.38519e-07
2.28592e-07
1.54476e-07
1.04464e-07
7.06922e-08
4.7869e-08
3.24344e-08
2.19889e-08
1.4915e-08
1.01217e-08
6.87212e-09
4.66789e-09
3.17203e-09
2.1564e-09
1.46653e-09
9.97752e-10
6.79085e-10
4.62385e-10
3.14967e-10
2.14642e-10
1.46337e-10
9.98143e-11
6.81149e-11
4.65073e-11
3.17728e-11
2.17207e-11
1.48598e-11
1.01745e-11
6.973e-12
4.78403e-12
3.28632e-12
2.26074e-12
1.55783e-12
1.07556e-12
7.44276e-13
5.16396e-13
3.59403e-13
2.5106e-13
1.76139e-13
1.24203e-13
8.80975e-14
6.29154e-14
4.52868e-14
3.28933e-14
2.41384e-14
1.79206e-14
1.34787e-14
1.0284e-14
7.96978e-15
6.28065e-15
5.03734e-15
4.11478e-15
3.4245e-15
2.903e-15
2.50645e-15
2.20329e-15
1.96872e-15
1.78656e-15
1.64667e-15
1.53775e-15
1.45121e-15
1.38699e-15
1.34167e-15
1.30498e-15
1.27958e-15
1.27318e-15
1.27487e-15
1.28195e-15
1.29838e-15
1.33019e-15
1.37467e-15
1.43643e-15
1.51525e-15
1.61993e-15
1.75087e-15
1.92246e-15
2.13975e-15
2.4223e-15
2.78883e-15
3.26842e-15
3.89788e-15
4.7435e-15
5.86163e-15
7.39484e-15
9.46043e-15
1.23435e-14
1.62556e-14
2.18832e-14
2.94262e-14
4.09415e-14
5.5214e-14
8.04262e-14
1.06226e-13
1.6289e-13
2.14444e-13
3.30517e-13
4.41688e-13
6.82861e-13
9.17005e-13
1.41157e-12
1.95489e-12
2.85067e-12
4.25287e-12
6.04637e-12
8.88994e-12
1.29848e-11
1.89348e-11
2.73731e-11
4.07254e-11
5.78859e-11
8.76598e-11
1.22179e-10
1.88243e-10
2.62098e-10
3.93245e-10
5.8259e-10
7.98393e-10
1.28655e-09
1.72665e-09
2.70763e-09
3.68753e-09
5.8068e-09
7.86808e-09
1.23648e-08
1.69404e-08
2.54441e-08
3.93667e-08
4.99339e-08
9.6103e-08
1.09606e-07
2.67959e-07
2.71654e-07
1.15201e-06
1.08008e-06
7.72222e-06
5.30626e-06
4.71647e-05
4.11821e-05
0.000173341
0.000291977
0.00140498
0.00125063
0.00257706
0.00243823
0.00436054
0.00475912
0.00722685
0.00817429
0.0149725
0.0174761
0.0262157
0.0223724
0.026569
0.0336621
0.0643354
0.075971
0.0783355
1.51004e-06
4.22721e-06
3.21901e-05
8.30971e-05
8.42251e-05
0.000153124
0.00063662
0.00059059
0.000461957
0.000867774
0.00166607
0.00161857
0.00152081
0.00173096
0.00328634
0.00363608
0.00297449
0.00243074
0.00216979
0.00202877
0.0020265
0.00191523
0.00131115
0.000825984
0.000527894
0.000346482
0.000233701
0.000160817
0.000111696
7.76178e-05
5.37062e-05
3.69415e-05
2.52654e-05
1.71992e-05
1.16662e-05
7.8922e-06
5.3293e-06
3.59457e-06
2.42309e-06
1.63313e-06
1.10088e-06
7.42375e-07
5.00873e-07
3.38136e-07
2.28419e-07
1.54402e-07
1.04437e-07
7.06848e-08
4.78692e-08
3.24359e-08
2.19901e-08
1.49161e-08
1.01227e-08
6.87289e-09
4.66846e-09
3.17241e-09
2.15666e-09
1.46671e-09
9.97865e-10
6.79155e-10
4.62422e-10
3.14984e-10
2.14647e-10
1.46337e-10
9.98133e-11
6.8114e-11
4.65064e-11
3.17716e-11
2.17192e-11
1.48581e-11
1.01728e-11
6.97138e-12
4.78257e-12
3.285e-12
2.25958e-12
1.55681e-12
1.07469e-12
7.43533e-13
5.15761e-13
3.58864e-13
2.50605e-13
1.75755e-13
1.23877e-13
8.78216e-14
6.26817e-14
4.50878e-14
3.27228e-14
2.39917e-14
1.7794e-14
1.33685e-14
1.01873e-14
7.88427e-15
6.2046e-15
4.96903e-15
4.05276e-15
3.3678e-15
2.85074e-15
2.45785e-15
2.15772e-15
1.92568e-15
1.74566e-15
1.60752e-15
1.50001e-15
1.41461e-15
1.35133e-15
1.30678e-15
1.27063e-15
1.2455e-15
1.23917e-15
1.24086e-15
1.24788e-15
1.26434e-15
1.29547e-15
1.34027e-15
1.40045e-15
1.47973e-15
1.58159e-15
1.71316e-15
1.88074e-15
2.0979e-15
2.37617e-15
2.74148e-15
3.21386e-15
3.84564e-15
4.67275e-15
5.80366e-15
7.30214e-15
9.39486e-15
1.22055e-14
1.62036e-14
2.16402e-14
2.94844e-14
4.02912e-14
5.60263e-14
7.79664e-14
1.10052e-13
1.55393e-13
2.21623e-13
3.16455e-13
4.54567e-13
6.54259e-13
9.45309e-13
1.36634e-12
1.98453e-12
2.875e-12
4.19148e-12
6.08521e-12
8.88666e-12
1.29193e-11
1.89075e-11
2.74734e-11
4.03023e-11
5.84976e-11
8.59908e-11
1.24682e-10
1.83254e-10
2.66726e-10
3.87971e-10
5.76376e-10
8.09391e-10
1.25984e-09
1.69876e-09
2.70524e-09
3.64876e-09
5.73102e-09