/*--------------------------------*- C++ -*----------------------------------*\
| =========                 |                                                 |
| \\      /  F ield         | OpenFOAM: The Open Source CFD Toolbox           |
|  \\    /   O peration     | Version:  2.4.0                                 |
|   \\  /    A nd           | Web:      www.OpenFOAM.org                      |
|    \\/     M anipulation  |                                                 |
\*---------------------------------------------------------------------------*/
FoamFile
{
    version     2.0;
    format      ascii;
    class       volScalarField;
    location    "0.91";
    object      pMean;
}
// * * * * * * * * * * * * * * * * * * * * * * * * * * * * * * * * * * * * * //

dimensions      [0 2 -2 0 0 0 0];

internalField   nonuniform List<scalar> 
8800
(
88.5485
76.0978
68.6608
65.0769
63.1534
61.6971
60.4556
59.2827
58.2183
57.1621
56.1757
55.1641
54.2217
53.2536
52.3734
51.477
50.6823
49.8879
49.1865
48.428
85.4405
75.744
68.8291
65.1906
63.213
61.7224
60.4631
59.283
58.2163
57.1597
56.173
55.162
54.2191
53.2518
52.3712
51.4745
50.6833
49.8841
49.1897
48.3952
83.4771
75.8201
69.4294
65.5656
63.3797
61.8015
60.5094
59.3155
58.2402
57.1767
56.183
55.1668
54.2204
53.2499
52.369
51.4663
50.6829
49.8719
49.2535
48.4487
81.9432
75.8817
70.0144
65.9883
63.5627
61.8891
60.5714
59.372
58.2884
57.2158
56.21
55.185
54.2306
53.2545
52.3686
51.4593
50.6722
49.8602
49.3153
48.6901
80.696
75.8552
70.4889
66.3938
63.7309
61.9569
60.6195
59.4301
58.3437
57.268
56.2449
55.2139
54.2427
53.2663
52.3642
51.4589
50.6458
49.8491
49.2375
49.0271
79.7133
75.7587
70.8537
66.7407
63.8819
62.0014
60.647
59.4763
58.3933
57.3187
56.2801
55.243
54.2541
53.2769
52.3582
51.4564
50.621
49.8427
49.2528
49.5013
78.9578
75.6441
71.1206
67.021
64.0182
62.0293
60.6554
59.5092
58.4328
57.3604
56.31
55.2668
54.2633
53.2828
52.3524
51.4505
50.6073
49.8504
49.3424
49.8178
78.407
75.5421
71.3035
67.2322
64.1389
62.0469
60.6517
59.5305
58.4622
57.3924
56.3327
55.2845
54.269
53.2862
52.3471
51.4488
50.6039
49.8741
49.4273
50.0452
78.0481
75.4683
71.419
67.3756
64.2243
62.0581
60.6456
59.5436
58.4826
57.4156
56.3488
55.2974
54.2734
53.2901
52.3458
51.4528
50.6104
49.9028
49.5012
50.213
77.869
75.4314
71.4762
67.4497
64.2683
62.0651
60.6413
59.5512
58.494
57.4299
56.3582
55.306
54.2774
53.2961
52.3497
51.4627
50.6237
49.9322
49.5593
50.325
77.8642
75.4365
71.4765
67.452
64.2682
62.0666
60.64
59.553
58.4943
57.4326
56.3593
55.3098
54.2804
53.3027
52.3574
51.4758
50.6409
49.9587
49.5996
50.3865
78.035
75.4822
71.4205
67.3817
64.224
62.0621
60.6424
59.5488
58.4841
57.4235
56.3525
55.3084
54.2826
53.3099
52.3691
51.492
50.6625
49.9825
49.6213
50.3995
78.3891
75.5614
71.3056
67.2395
64.1378
62.0519
60.6474
59.5374
58.464
57.4038
56.3382
55.3013
54.2832
53.3174
52.384
51.5125
50.689
50.0071
49.6209
50.3561
78.9368
75.6651
71.1223
67.0271
64.0146
62.034
60.6498
59.5161
58.4339
57.3734
56.3159
55.2878
54.2807
53.3238
52.4001
51.5375
50.7218
50.0386
49.6051
50.2372
79.6914
75.78
70.8557
66.7455
63.8763
62.0052
60.6419
59.483
58.394
57.3326
56.2871
55.2675
54.2756
53.3267
52.4168
51.5642
50.7631
50.0806
49.6013
50.0361
80.6734
75.8779
70.4913
66.3988
63.7242
61.9607
60.6155
59.438
58.3449
57.2837
56.2539
55.2427
54.2689
53.3258
52.4333
51.5888
50.8114
50.1326
49.6282
49.7721
81.9197
75.9057
70.0176
65.9952
63.5553
61.894
60.5678
59.3818
58.2899
57.2338
56.2206
55.2184
54.2613
53.3225
52.4474
51.6075
50.8584
50.182
49.6853
49.4969
83.4533
75.8439
69.434
65.5737
63.3722
61.8067
60.5063
59.3259
58.2428
57.1956
56.196
55.2019
54.2562
53.3215
52.4579
51.6216
50.8921
50.2196
49.7425
49.3531
85.4158
75.7667
68.8344
65.1999
63.2057
61.7278
60.4601
59.2938
58.2193
57.179
56.1868
55.198
54.2568
53.3251
52.4648
51.632
50.908
50.2415
49.7398
49.2752
88.5232
76.1196
68.6659
65.0865
63.1465
61.7025
60.4528
59.2937
58.2213
57.1819
56.1896
55.2007
54.2595
53.3276
52.468
51.6355
50.9116
50.2473
49.7413
49.3942
48.3686
48.1849
47.8284
47.4732
47.1943
46.9941
46.8618
46.7743
46.7088
46.6564
46.6096
46.559
46.5029
46.4423
46.3755
46.3022
46.2202
46.1234
46.0134
45.887
45.7512
45.6177
45.4948
45.3871
45.3005
45.2379
45.1984
45.1715
45.1462
45.1095
45.0592
44.9969
44.9321
44.874
44.8269
44.788
44.752
44.7076
44.6515
44.5832
44.5076
44.4275
44.3567
44.3038
44.2801
44.2841
44.3197
44.3768
44.4496
44.5241
44.5874
44.6252
44.6294
44.5947
44.5242
44.4194
44.2942
44.1563
44.018
43.8753
43.7324
43.5826
43.4312
43.2768
43.1262
42.9859
42.8702
42.7956
42.7679
42.7833
42.8386
42.9248
43.0333
43.1553
43.2836
43.4098
43.5252
43.6172
43.678
43.6961
43.6734
43.6085
43.5171
43.396
43.2737
43.1497
43.0404
42.9549
42.8958
42.8819
42.9165
43.0145
43.1717
43.3838
43.6404
43.9318
44.2464
44.5724
44.8992
45.2159
45.5167
45.7938
46.041
46.2399
46.4109
46.54
46.6572
46.7486
46.8483
46.9244
47.0017
47.0628
47.1187
47.1619
47.1959
47.2226
47.2424
47.2567
47.2642
47.2601
47.2492
47.223
47.1993
47.1609
47.1379
47.0903
47.0768
47.0342
47.0387
47.0316
47.0729
47.1114
47.1875
47.2671
47.3803
47.4976
47.6413
47.7837
47.9432
48.0982
48.2689
48.4436
48.6345
48.8315
49.0448
49.2574
49.4847
49.7153
49.9528
50.1956
50.4365
50.6775
50.917
51.15
51.376
51.6004
51.83
52.0465
52.2722
52.4868
52.7128
52.9029
53.1091
53.2684
53.4414
53.5564
53.6904
53.7627
53.8468
53.8755
53.9376
53.9321
53.9925
53.9764
54.0712
54.0534
54.2123
54.2046
54.4177
54.4557
54.6958
54.7844
55.0539
55.1948
55.4881
55.6814
55.9942
56.2028
56.5224
56.7049
56.9881
57.0815
57.2053
57.0109
56.7158
55.788
54.3938
51.0062
46.7856
26.5297
48.1798
48.083
47.8949
47.6036
47.3051
47.0695
46.9189
46.8367
46.7942
46.7646
46.7341
46.6931
46.6421
46.5822
46.5159
46.4413
46.3586
46.2646
46.1604
46.0443
45.9213
45.7996
45.6876
45.5884
45.5076
45.4449
45.4003
45.367
45.3387
45.3053
45.2637
45.2122
45.1574
45.1038
45.0567
45.0131
44.9713
44.9237
44.8688
44.803
44.7321
44.6587
44.5938
44.5434
44.5167
44.5138
44.537
44.5801
44.6361
44.6934
44.7412
44.7678
44.7672
44.7325
44.6672
44.5704
44.4526
44.3184
44.1793
44.0353
43.8899
43.7406
43.5898
43.439
43.2922
43.1571
43.0426
42.9608
42.9193
42.9174
42.9535
43.0199
43.1109
43.2173
43.33
43.4399
43.5369
43.6106
43.6544
43.6595
43.629
43.5618
43.4715
43.3615
43.2475
43.1391
43.0415
42.9712
42.9239
42.917
42.9537
43.0486
43.1967
43.3953
43.6352
43.9103
44.2082
44.5169
44.8301
45.1354
45.4285
45.6979
45.9384
46.1315
46.3007
46.4301
46.5456
46.6345
46.7221
46.7913
46.8527
46.9008
46.9363
46.9565
46.9616
46.9576
46.9434
46.9248
46.9003
46.8642
46.8299
46.7774
46.7387
46.6809
46.6489
46.59
46.5668
46.5192
46.5152
46.502
46.5356
46.5676
46.639
46.7141
46.826
46.9396
47.0827
47.2244
47.3845
47.5396
47.7153
47.8923
48.0889
48.2873
48.5074
48.7204
48.9552
49.187
49.4327
49.6773
49.9218
50.1622
50.4066
50.6336
50.8661
51.0888
51.3321
51.5479
51.7956
52.0153
52.2608
52.4588
52.6822
52.8425
53.0214
53.1336
53.2657
53.3228
53.4009
53.4035
53.4578
53.4105
53.465
53.3978
53.488
53.4169
53.5585
53.5157
53.6898
53.7022
53.8995
53.9564
54.1757
54.2801
54.5217
54.6478
54.9157
55.0278
55.2845
55.3357
55.4928
55.3756
55.3039
54.7368
54.1066
52.3482
50.5241
44.6877
38.8924
20.2057
48.1532
48.1276
48.0784
47.8381
47.4849
47.1627
46.9553
46.8615
46.8423
46.8462
46.8439
46.8202
46.7773
46.7177
46.6488
46.5704
46.486
46.3932
46.2937
46.1865
46.0762
45.967
45.8667
45.7771
45.703
45.6431
45.598
45.5625
45.5333
45.5026
45.468
45.4258
45.3801
45.3322
45.2866
45.2412
45.1958
45.1461
45.0922
45.0314
44.9673
44.9027
44.8449
44.7994
44.7719
44.7641
44.776
44.8041
44.8423
44.881
44.9122
44.9252
44.9162
44.8782
44.8137
44.7212
44.6081
44.4783
44.34
44.1965
44.0501
43.9025
43.7546
43.6095
43.47
43.3423
43.2335
43.1512
43.1017
43.0873
43.108
43.1581
43.2334
43.3242
43.4226
43.5164
43.5966
43.6533
43.6806
43.6741
43.6359
43.5699
43.4821
43.3833
43.2784
43.1821
43.0964
43.0352
42.9946
42.9888
43.0232
43.1105
43.2455
43.4289
43.6515
43.9097
44.1896
44.4823
44.7814
45.0747
45.3588
45.6206
45.8534
46.0433
46.2112
46.3431
46.4575
46.5459
46.6256
46.6905
46.7425
46.7819
46.8015
46.8018
46.7826
46.7509
46.7103
46.658
46.6082
46.5402
46.4896
46.4128
46.3659
46.2925
46.255
46.1924
46.1613
46.1146
46.1026
46.0894
46.1154
46.1449
46.2135
46.2877
46.3986
46.5109
46.6533
46.7947
46.956
47.1122
47.2936
47.4769
47.6821
47.8886
48.1152
48.3348
48.5767
48.813
49.0666
49.3042
49.5472
49.7798
50.0235
50.2412
50.4794
50.7009
50.9475
51.1672
51.431
51.6644
51.9207
52.1342
52.3693
52.5315
52.7158
52.8182
52.9514
52.9838
53.0622
53.0386
53.0866
53.0013
53.0507
52.938
53.02
52.9146
53.0147
52.9517
53.07
53.0556
53.1953
53.2163
53.3836
53.4288
53.6291
53.6642
53.8759
53.8753
54.0467
53.9422
54.0018
53.6017
53.4153
52.2975
51.6181
48.6967
46.7902
39.5995
32.6006
19.8525
48.3153
48.2567
48.1352
47.7997
47.3905
47.0627
46.8827
46.8357
46.8704
46.9248
46.9624
46.9649
46.9349
46.8776
46.8044
46.7198
46.6303
46.5361
46.4399
46.3405
46.2417
46.1451
46.0571
45.9784
45.9127
45.8581
45.8156
45.7809
45.7523
45.7238
45.694
45.6587
45.6197
45.5765
45.5325
45.4865
45.4401
45.3906
45.3393
45.2844
45.2288
45.1735
45.1237
45.0825
45.0542
45.0398
45.0402
45.0516
45.0705
45.0887
45.1014
45.0998
45.0807
45.0384
44.9734
44.8847
44.7767
44.6533
44.5196
44.3803
44.2381
44.0956
43.9544
43.8175
43.6877
43.5698
43.4689
43.3898
43.3375
43.3143
43.3227
43.3581
43.4185
43.4935
43.5764
43.6529
43.7163
43.7568
43.7698
43.7544
43.711
43.6459
43.5611
43.4701
43.3743
43.2868
43.2094
43.1498
43.1077
43.0963
43.1236
43.1996
43.3204
43.487
43.6936
43.933
44.1962
44.4718
44.7587
45.0395
45.3145
45.5672
45.7926
45.9776
46.1434
46.2772
46.3914
46.482
46.5602
46.624
46.6733
46.7043
46.7104
46.6916
46.653
46.5953
46.5363
46.4564
46.3894
46.2973
46.2329
46.1365
46.083
45.9996
45.9608
45.8951
45.8627
45.8132
45.801
45.7891
45.8164
45.8512
45.921
46.0002
46.1126
46.2277
46.3716
46.5133
46.6769
46.8348
47.0229
47.2104
47.4244
47.6394
47.8752
48.1055
48.3569
48.5958
48.8546
49.0782
49.3225
49.5377
49.779
49.9819
50.2267
50.444
50.697
50.9203
51.2024
51.4367
51.7114
51.9248
52.1809
52.3303
52.5331
52.615
52.7598
52.7584
52.8427
52.7821
52.8303
52.7089
52.7586
52.6181
52.6699
52.5537
52.5981
52.5186
52.578
52.5308
52.616
52.5915
52.7123
52.6854
52.8337
52.7653
52.9213
52.7547
52.9177
52.5281
52.6417
51.7725
51.6909
49.8194
49.1687
45.4021
42.9162
36.1749
28.6599
20.1367
49.7884
49.4329
48.3681
47.4801
46.9149
46.6579
46.6296
46.7263
46.8678
46.9964
47.0844
47.1196
47.1068
47.0551
46.9791
46.8883
46.7926
46.695
46.5997
46.5064
46.4178
46.3343
46.2594
46.1931
46.1374
46.0907
46.053
46.0212
45.9942
45.968
45.941
45.9102
45.876
45.8373
45.7965
45.753
45.7083
45.6612
45.6133
45.5636
45.5143
45.4655
45.4203
45.3803
45.3488
45.326
45.313
45.3072
45.3069
45.3065
45.302
45.2873
45.2589
45.2127
45.1478
45.0641
44.9633
44.8492
44.725
44.595
44.4619
44.3286
44.1974
44.0711
43.953
43.8461
43.7548
43.6821
43.6318
43.6053
43.6056
43.6305
43.677
43.7365
43.8009
43.8591
43.9044
43.9297
43.9313
43.9088
43.8619
43.796
43.7139
43.6259
43.5347
43.4488
43.3715
43.3059
43.2555
43.2327
43.2491
43.3101
43.4171
43.5669
43.76
43.9828
44.2314
44.4942
44.7691
45.0391
45.3054
45.549
45.7674
45.9479
46.1116
46.2467
46.3608
46.4561
46.534
46.5979
46.6438
46.6648
46.6582
46.6198
46.5662
46.4888
46.4176
46.3206
46.2399
46.1349
46.0577
45.9569
45.898
45.8184
45.7755
45.7123
45.678
45.6296
45.6243
45.6139
45.654
45.6938
45.7763
45.8606
45.9827
46.101
46.2544
46.3952
46.5672
46.7233
46.9193
47.1031
47.3295
47.5479
47.8008
48.0381
48.3038
48.5412
48.8059
49.0118
49.2594
49.451
49.6923
49.875
50.1257
50.3272
50.5972
50.8149
51.1206
51.3427
51.6451
51.8436
52.1242
52.2559
52.4797
52.5373
52.694
52.6607
52.7471
52.6488
52.6952
52.5475
52.5921
52.4448
52.4671
52.3342
52.3443
52.2253
52.2501
52.1469
52.2095
52.1045
52.2131
52.0682
52.2145
51.9547
52.14
51.6824
51.915
51.1364
51.3101
49.993
49.8071
47.5513
46.4118
42.7163
39.4138
34.0746
26.9646
20.6726
50.7943
50.3
48.6593
47.3326
46.5539
46.2865
46.3638
46.5945
46.8517
47.0664
47.2137
47.2874
47.2955
47.2516
47.1738
47.0764
46.9726
46.8692
46.7721
46.6822
46.6013
46.5289
46.4662
46.4122
46.3671
46.329
46.2975
46.27
46.2454
46.2211
46.1961
46.1682
46.1373
46.1028
46.0657
46.0257
45.9839
45.9401
45.8954
45.8499
45.8044
45.7592
45.7158
45.675
45.639
45.6081
45.5831
45.5626
45.5454
45.5283
45.5085
45.4818
45.4449
45.3953
45.3312
45.2531
45.1611
45.058
44.9456
44.8274
44.706
44.5849
44.4665
44.3534
44.2489
44.1547
44.0749
44.0112
43.9666
43.9418
43.9402
43.9605
43.9977
44.0441
44.0918
44.1336
44.1628
44.1747
44.1661
44.1371
44.0857
44.0164
43.9323
43.8404
43.7458
43.6547
43.5714
43.4959
43.4334
43.3926
43.3955
43.4411
43.5344
43.6703
43.8525
44.0628
44.298
44.5509
44.8153
45.077
45.3351
45.574
45.7872
45.9662
46.1288
46.2636
46.3794
46.4781
46.5571
46.6176
46.6577
46.6648
46.6453
46.5867
46.5235
46.4338
46.3539
46.2497
46.159
46.0514
45.9681
45.8768
45.8172
45.75
45.704
45.6493
45.6125
45.5784
45.5811
45.5888
45.6444
45.694
45.7943
45.883
46.018
46.1386
46.3037
46.4444
46.6266
46.7828
46.9836
47.1662
47.407
47.6255
47.9005
48.1426
48.4254
48.6616
48.9259
49.1186
49.3605
49.5308
49.7686
49.9257
50.1849
50.3615
50.6478
50.852
51.1793
51.3803
51.7188
51.8893
52.2015
52.3059
52.5547
52.5841
52.7573
52.6793
52.7798
52.6395
52.7011
52.5262
52.5816
52.406
52.4419
52.2505
52.2683
52.0711
52.1011
51.8986
51.9776
51.7572
51.8739
51.5883
51.7215
51.2892
51.428
50.7865
50.8945
49.956
49.8486
48.4431
47.7843
45.6138
43.9463
40.7665
37.1833
33.1585
27.0109
21.7724
51.4064
50.905
48.9977
47.394
46.4225
46.0728
46.1736
46.4852
46.8333
47.1268
47.3347
47.4513
47.4844
47.4502
47.3705
47.2656
47.1523
47.0417
46.9406
46.8518
46.7761
46.7125
46.6604
46.6177
46.583
46.5542
46.5297
46.5076
46.4865
46.4647
46.4412
46.415
46.386
46.354
46.3194
46.2824
46.2437
46.2032
46.1616
46.119
46.0759
46.0324
45.9893
45.9471
45.9068
45.8691
45.8343
45.8022
45.7719
45.7416
45.7091
45.6721
45.6282
45.5759
45.5134
45.441
45.358
45.2662
45.1667
45.062
44.9547
44.8476
44.7432
44.6442
44.5532
44.4721
44.4033
44.3495
44.3131
44.2959
44.2988
44.3199
44.3541
44.3918
44.4265
44.4537
44.4696
44.4717
44.4551
44.4187
44.3615
44.2868
44.1962
44.095
43.992
43.8928
43.8006
43.7116
43.6335
43.5736
43.5598
43.5922
43.6761
43.8047
43.9802
44.1824
44.4096
44.6554
44.9101
45.1671
45.4187
45.6538
45.8633
46.0451
46.202
46.3342
46.4506
46.5476
46.6249
46.6775
46.712
46.7064
46.675
46.601
46.5271
46.4301
46.3437
46.2412
46.1469
46.0489
45.9712
45.8992
45.8475
45.796
45.7543
45.7111
45.6795
45.663
45.6791
45.7145
45.7833
45.859
45.9675
46.0726
46.213
46.344
46.5154
46.6663
46.8574
47.0204
47.2268
47.4199
47.6692
47.8953
48.1786
48.4328
48.7285
48.9625
49.2208
49.4019
49.6295
49.7897
50.0137
50.1429
50.4048
50.5584
50.8394
51.0391
51.3792
51.5615
51.932
52.0836
52.4069
52.4999
52.7587
52.7874
52.9632
52.8659
52.9548
52.802
52.8597
52.6902
52.7348
52.5538
52.576
52.3568
52.3478
52.1015
52.0927
51.8323
51.8442
51.5657
51.585
51.2345
51.2364
50.7309
50.6902
49.9952
49.8461
48.9347
48.5205
47.1509
46.245
44.189
42.3763
39.7941
36.3684
33.2235
28.1189
23.4437
51.773
51.3052
49.3038
47.5524
46.4493
45.9984
46.067
46.4112
46.8195
47.1758
47.4362
47.5934
47.6519
47.6293
47.5499
47.4396
47.3186
47.2019
47.0975
47.0091
46.9373
46.881
46.8377
46.805
46.7798
46.7597
46.7424
46.726
46.7088
46.69
46.6683
46.6439
46.6163
46.586
46.5532
46.5184
46.4817
46.4434
46.4035
46.3624
46.32
46.2768
46.2329
46.189
46.1452
46.1023
46.0604
46.0197
45.9794
45.939
45.8972
45.8531
45.8048
45.7518
45.6922
45.6262
45.5528
45.4728
45.3868
45.2966
45.2036
45.1104
45.0193
44.9337
44.8552
44.7871
44.7306
44.6888
44.6628
44.6554
44.6645
44.6888
44.7211
44.7528
44.7776
44.7945
44.8007
44.7964
44.7754
44.7332
44.67
44.5877
44.4876
44.3749
44.2623
44.1521
44.052
43.9506
43.8578
43.7834
43.7562
43.7805
43.8595
43.9865
44.1558
44.3515
44.5723
44.811
45.0609
45.3145
45.5651
45.8004
46.0067
46.1866
46.3343
46.4642
46.5762
46.6641
46.7335
46.7752
46.8024
46.7899
46.7473
46.6648
46.5789
46.4825
46.3957
46.3037
46.2181
46.1405
46.0788
46.0323
45.9973
45.9673
45.9388
45.9128
45.8959
45.9024
45.9391
45.9993
46.085
46.1796
46.2948
46.422
46.5688
46.7171
46.8942
47.0631
47.2624
47.4424
47.6541
47.8643
48.1193
48.3549
48.6473
48.9084
49.2101
49.4397
49.6994
49.8576
50.0703
50.2305
50.4397
50.5517
50.8064
50.9298
51.201
51.3852
51.7348
51.9089
52.2878
52.4519
52.7645
52.8716
53.1376
53.1806
53.3522
53.2398
53.2999
53.1552
53.1835
53.0346
53.062
52.8865
52.8949
52.6576
52.6226
52.3361
52.2753
51.9645
51.885
51.548
51.4586
51.0322
50.9036
50.3228
50.1221
49.4083
49.0989
48.2326
47.6903
46.343
45.3856
43.4953
41.6691
39.5989
36.4948
33.817
29.5846
25.3344
52.0044
51.5672
49.5403
47.714
46.5318
46.006
46.034
46.3861
46.8303
47.2311
47.5311
47.7204
47.801
47.7899
47.7124
47.5992
47.4733
47.3529
47.2465
47.1591
47.0906
47.0401
47.0039
46.9793
46.962
46.9494
46.9383
46.9271
46.9137
46.8977
46.8781
46.8553
46.829
46.8001
46.7684
46.7349
46.699
46.6615
46.6218
46.5808
46.5378
46.494
46.4485
46.4026
46.3557
46.3089
46.2615
46.2145
46.167
46.1201
46.0726
46.0248
45.975
45.9235
45.8682
45.8095
45.7458
45.6776
45.6043
45.528
45.4492
45.3705
45.2932
45.2214
45.1569
45.1031
45.0608
45.0324
45.0179
45.0199
45.0358
45.063
45.0927
45.1196
45.137
45.1458
45.1465
45.1391
45.1151
45.07
45.0034
44.9152
44.8059
44.6809
44.5545
44.4325
44.3229
44.2091
44.111
44.0276
43.9959
44.0182
44.099
44.225
44.3887
44.5748
44.7905
45.0248
45.2757
45.5276
45.781
46.0219
46.2301
46.4046
46.5456
46.6688
46.7689
46.8414
46.8948
46.9245
46.9445
46.9248
46.8763
46.793
46.7053
46.6159
46.5377
46.4608
46.3942
46.3409
46.3052
46.2883
46.2782
46.277
46.2695
46.2665
46.2727
46.3012
46.36
46.4415
46.5473
46.6577
46.7867
46.9332
47.0881
47.2513
47.4394
47.6198
47.8314
48.0295
48.2533
48.4836
48.7455
48.9926
49.2909
49.5617
49.8715
50.085
50.3615
50.4796
50.6843
50.8406
51.0247
51.1259
51.3833
51.4603
51.7458
51.9052
52.2716
52.4322
52.8157
52.9784
53.3041
53.3999
53.7083
53.7722
53.9495
53.7707
53.8055
53.683
53.6995
53.5633
53.5704
53.3973
53.4053
53.1421
53.0867
52.7599
52.66
52.3026
52.1514
51.7583
51.5743
51.0996
50.8516
50.24
49.9225
49.2965
48.9142
48.0944
47.4982
46.1508
45.1305
43.431
41.6033
39.8944
37.1667
34.69
31.0981
27.2518
52.1626
51.7404
49.7045
47.8458
46.6269
46.0647
46.0705
46.4247
46.8881
47.3134
47.6356
47.8425
47.9353
47.9304
47.8543
47.7397
47.6122
47.4911
47.3856
47.3006
47.2359
47.1906
47.1605
47.1425
47.1316
47.125
47.1189
47.1119
47.1018
47.0884
47.0707
47.0495
47.0244
46.9964
46.9653
46.9322
46.8963
46.8586
46.8184
46.7766
46.7325
46.6872
46.6399
46.5917
46.542
46.492
46.4411
46.3906
46.3395
46.2893
46.2391
46.1901
46.1413
46.0932
46.0439
45.9937
45.9403
45.8836
45.8229
45.7603
45.6956
45.6314
45.5685
45.5118
45.4623
45.4234
45.3964
45.3827
45.3809
45.394
45.4179
45.4468
45.4735
45.4963
45.5099
45.5128
45.5088
45.4996
45.4759
45.4319
45.3644
45.2709
45.1545
45.0206
44.882
44.7445
44.6241
44.4996
44.4006
44.3142
44.286
44.3094
44.3996
44.5273
44.6892
44.8671
45.0828
45.3147
45.5648
45.8149
46.0761
46.3246
46.5383
46.7059
46.8379
46.9462
47.0288
47.0826
47.1193
47.1391
47.1532
47.1295
47.0823
47.0047
46.9246
46.8497
46.7885
46.7333
46.6912
46.6643
46.6611
46.675
46.6998
46.7298
46.7522
46.7774
46.8126
46.8598
46.9386
47.0336
47.1583
47.2804
47.4293
47.5875
47.759
47.9312
48.1359
48.3215
48.556
48.7673
49.0105
49.2592
49.5401
49.7961
50.1082
50.377
50.7012
50.8903
51.1835
51.2362
51.4635
51.5867
51.7755
51.8459
52.1043
52.1276
52.4566
52.581
52.9815
53.0998
53.5339
53.6578
54.0538
54.0781
54.4742
54.5417
54.7687
54.4597
54.5243
54.3843
54.4238
54.2845
54.3198
54.1138
54.1417
53.821
53.7771
53.3762
53.287
52.8596
52.7045
52.2403
52.0083
51.453
51.1357
50.5289
50.1817
49.6157
49.2308
48.4053
47.7151
46.3768
45.2268
43.7368
42.0023
40.4856
38.0791
35.6997
32.5502
29.0925
52.2512
51.8336
49.7984
47.9404
46.7231
46.1624
46.171
46.5289
46.9974
47.4264
47.751
47.9589
48.052
48.0468
47.971
47.8578
47.7333
47.6162
47.5156
47.4357
47.3764
47.3365
47.312
47.2992
47.2931
47.2906
47.288
47.2837
47.2758
47.2643
47.2482
47.2283
47.2043
47.1771
47.1466
47.1135
47.0776
47.0394
46.9986
46.9558
46.9106
46.8637
46.8148
46.7648
46.7135
46.6616
46.6091
46.5568
46.5049
46.4544
46.4049
46.3573
46.3112
46.2674
46.2249
46.1835
46.141
46.0966
46.05
46.0022
45.9528
45.904
45.858
45.8179
45.7837
45.7596
45.7489
45.7508
45.7622
45.7852
45.8149
45.8444
45.869
45.8888
45.8987
45.899
45.894
45.8849
45.8636
45.8239
45.7587
45.6633
45.5416
45.3986
45.2502
45.0996
44.97
44.8389
44.7432
44.6581
44.6451
44.6715
44.7755
44.9058
45.0702
45.2407
45.4624
45.6922
45.9433
46.1882
46.4598
46.7119
46.9294
47.0862
47.2045
47.2886
47.3499
47.3838
47.4112
47.4255
47.4363
47.4127
47.3772
47.3103
47.2538
47.1983
47.1681
47.1319
47.1257
47.1253
47.1604
47.2007
47.2659
47.3221
47.3896
47.4419
47.5156
47.5803
47.6807
47.778
47.9213
48.0431
48.2134
48.3704
48.5642
48.7416
48.9669
49.1561
49.4188
49.6425
49.9169
50.1815
50.4921
50.7442
51.0866
51.3335
51.6888
51.8269
52.1428
52.1076
52.3988
52.4555
52.6881
52.6851
52.9702
52.9522
53.3462
53.4183
53.8668
53.9166
54.4096
54.5014
54.9858
54.9482
55.4619
55.4734
55.7482
55.3189
55.4814
55.2878
55.4036
55.1873
55.2839
55.0489
55.085
54.7017
54.6658
54.2102
54.1416
53.6468
53.494
52.9901
52.7125
52.1593
51.8221
51.2043
50.8552
50.2927
49.8634
48.9722
48.0977
46.8194
45.5927
44.2902
42.7457
41.2674
39.0714
36.7754
33.937
30.8215
52.2631
51.842
49.8213
47.9992
46.8221
46.3009
46.3377
46.7028
47.1621
47.5738
47.8808
48.0733
48.1545
48.1425
48.0662
47.9574
47.8404
47.732
47.64
47.568
47.5159
47.4818
47.4621
47.4528
47.4495
47.4489
47.4479
47.4449
47.4384
47.428
47.4131
47.3943
47.3713
47.3448
47.3149
47.2819
47.246
47.2077
47.1668
47.1237
47.0782
47.0305
46.9809
46.9299
46.8777
46.8253
46.7729
46.7215
46.6714
46.6231
46.5764
46.5322
46.4909
46.4532
46.418
46.3852
46.3537
46.3227
46.2913
46.2593
46.2263
46.1945
46.167
46.1449
46.1283
46.1208
46.1267
46.1429
46.1646
46.1935
46.2264
46.2561
46.2782
46.292
46.295
46.2925
46.2886
46.284
46.2701
46.2392
46.1807
46.0903
45.9687
45.821
45.6639
45.5036
45.3658
45.2347
45.145
45.0721
45.0822
45.113
45.2326
45.362
45.5293
45.6886
45.919
46.1458
46.4001
46.6377
46.9228
47.1749
47.3992
47.542
47.6432
47.6889
47.7349
47.7435
47.7706
47.7807
47.7968
47.7777
47.7651
47.7173
47.6993
47.6668
47.6797
47.6674
47.7075
47.7309
47.8093
47.8746
47.9872
48.0682
48.177
48.2544
48.3702
48.4513
48.5768
48.6805
48.8307
48.9517
49.138
49.294
49.5046
49.6929
49.9312
50.1416
50.4285
50.6643
50.9664
51.243
51.576
51.8331
52.1896
52.4053
52.7686
52.8906
53.1518
53.0855
53.4646
53.4175
53.7157
53.6024
53.9376
53.8947
54.3374
54.4059
54.8727
54.896
55.456
55.5165
56.052
56.014
56.5586
56.5497
56.8105
56.3406
56.5683
56.3625
56.5452
56.325
56.451
56.1834
56.2045
55.7934
55.7345
55.2619
55.1631
54.6362
54.4497
53.9521
53.6552
53.1778
52.7428
52.2038
51.8248
51.1721
50.5988
49.6341
48.614
47.4285
46.2575
45.0409
43.6574
42.1405
40.0842
37.884
35.279
32.4432
52.1855
51.7536
49.7732
48.0308
46.9368
46.4953
46.5808
46.9493
47.3806
47.7525
48.0213
48.1811
48.2385
48.2146
48.1382
48.0373
47.9324
47.837
47.7575
47.6963
47.6529
47.6252
47.6097
47.6027
47.6005
47.6003
47.5994
47.5966
47.5904
47.5806
47.5666
47.5486
47.5266
47.5009
47.4717
47.4396
47.4046
47.367
47.3268
47.2841
47.2387
47.1909
47.1412
47.0904
47.0391
46.9883
46.9386
46.8906
46.844
46.7996
46.7578
46.719
46.6841
46.6539
46.6278
46.605
46.5846
46.5663
46.5501
46.5352
46.5197
46.5052
46.4957
46.4918
46.4937
46.5052
46.5275
46.5557
46.5866
46.6211
46.6553
46.682
46.6984
46.7043
46.7013
46.6974
46.6949
46.6944
46.6901
46.6706
46.6232
46.5437
46.4294
46.2833
46.1223
45.9618
45.8223
45.6965
45.6118
45.5591
45.5908
45.6336
45.7642
45.888
46.0505
46.2051
46.4496
46.6695
46.9239
47.1559
47.4586
47.7068
47.941
48.066
48.152
48.1612
48.1917
48.1791
48.2171
48.2206
48.2517
48.2393
48.2555
48.2348
48.2643
48.2625
48.3249
48.3475
48.4412
48.4957
48.624
48.7136
48.8658
48.9661
49.1158
49.2139
49.3707
49.47
49.6216
49.7255
49.8838
50.0045
50.1997
50.3646
50.5946
50.8006
51.0528
51.2913
51.5849
51.8394
52.1611
52.4394
52.7756
53.0428
53.3894
53.5909
53.9016
54.0556
54.2312
54.1786
54.5776
54.4662
54.7535
54.6383
55.0372
54.9804
55.4287
55.533
55.9426
56.006
56.6012
56.7135
57.2617
57.2944
57.7458
57.7823
57.9427
57.4789
57.8093
57.5469
57.7959
57.5685
57.6985
57.4889
57.4526
57.058
56.9112
56.488
56.3457
55.7971
55.5558
55.1028
54.7433
54.3183
53.8931
53.3937
52.8819
52.1575
51.3667
50.3794
49.3098
48.2314
47.1764
45.9508
44.656
43.0532
41.1182
39.0083
36.5903
33.9765
51.9682
51.53
49.6566
48.0683
47.1121
46.7835
46.9178
47.2685
47.6451
47.9531
48.1637
48.2758
48.3018
48.2649
48.1907
48.1016
48.013
47.9345
47.8705
47.8219
47.7879
47.7662
47.7537
47.7475
47.7447
47.7433
47.7412
47.7373
47.7305
47.7204
47.7065
47.6888
47.6673
47.6425
47.6146
47.5841
47.5509
47.5151
47.4768
47.4357
47.3917
47.3451
47.2962
47.2469
47.199
47.1529
47.1079
47.0642
47.0225
46.9838
46.948
46.916
46.889
46.8677
46.8513
46.8398
46.833
46.831
46.8321
46.8327
46.8329
46.8363
46.8453
46.8594
46.8807
46.9101
46.9464
46.9849
47.0238
47.0634
47.099
47.1242
47.1359
47.133
47.1219
47.1147
47.1142
47.1205
47.1266
47.121
47.0907
47.0283
46.927
46.7911
46.6336
46.4812
46.342
46.2278
46.1526
46.1262
46.1663
46.2141
46.3451
46.4637
46.6199
46.7956
47.0576
47.2783
47.5298
47.7675
48.0748
48.3103
48.5437
48.6577
48.7357
48.7202
48.7406
48.7192
48.7669
48.771
48.8186
48.8149
48.8618
48.8741
48.9502
48.9882
49.1025
49.169
49.3157
49.4132
49.5858
49.7055
49.888
50.009
50.1914
50.3105
50.4993
50.6221
50.7933
50.9031
51.0663
51.1923
51.3987
51.5743
51.8262
52.0531
52.3209
52.5865
52.8675
53.1409
53.4581
53.7486
54.0689
54.3564
54.6414
54.8436
55.1046
55.2696
55.3809
55.4726
55.7423
55.6384
55.8548
55.8015
56.1885
56.1876
56.5847
56.804
57.0639
57.24
57.8236
57.9689
58.5195
58.7165
59.0216
59.1028
59.2136
58.7783
59.0831
58.9148
59.0899
58.8487
58.9981
58.8852
58.7866
58.417
58.2031
57.7614
57.5657
57.0351
56.7569
56.3601
55.9309
55.5905
55.0918
54.5807
53.9408
53.2232
52.1463
51.2789
50.1469
49.2312
48.2383
46.9667
45.6897
43.9916
42.1602
40.1222
37.8497
35.4043
51.4978
51.0838
49.4769
48.1655
47.4168
47.2054
47.3547
47.6478
47.9368
48.157
48.2931
48.3502
48.3448
48.2979
48.2296
48.1554
48.0854
48.0251
47.9767
47.94
47.9139
47.8963
47.8849
47.8778
47.873
47.8692
47.8649
47.8592
47.8513
47.8404
47.8263
47.8088
47.788
47.7643
47.738
47.7095
47.6788
47.6459
47.6107
47.5724
47.5309
47.4875
47.4428
47.3979
47.3541
47.3135
47.2764
47.2411
47.2068
47.1739
47.1443
47.1206
47.1039
47.0933
47.0879
47.0894
47.0974
47.111
47.1294
47.1496
47.1697
47.1907
47.2161
47.2473
47.285
47.3279
47.3748
47.4227
47.4694
47.5134
47.5499
47.5726
47.579
47.569
47.5499
47.5369
47.5379
47.5517
47.5701
47.5807
47.5713
47.5315
47.4497
47.3302
47.1872
47.0527
46.918
46.8243
46.7582
46.7504
46.7903
46.85
46.9741
47.0829
47.2382
47.4543
47.728
47.9555
48.2011
48.463
48.7539
48.98
49.1994
49.3118
49.3843
49.3759
49.3811
49.3662
49.4182
49.4395
49.5025
49.5216
49.5891
49.6368
49.7494
49.8444
49.9974
50.1254
50.3075
50.4619
50.6558
50.8157
51.0164
51.166
51.3668
51.5143
51.7188
51.8657
52.0593
52.1771
52.3563
52.4993
52.7105
52.9111
53.1703
53.4114
53.6877
53.9591
54.227
54.5187
54.8177
55.112
55.4246
55.7281
55.9476
56.1646
56.352
56.5069
56.6535
56.8203
56.9205
56.9665
57.0432
57.1482
57.4213
57.4936
57.8198
58.0808
58.2863
58.6287
58.9937
59.3659
59.8831
60.0779
60.3228
60.4601
60.4743
60.2126
60.4612
60.3528
60.3936
60.2344
60.3053
60.2928
60.0495
59.7732
59.4934
59.0974
58.8606
58.3822
58.0411
57.6434
57.1473
56.8675
56.2982
55.754
54.9376
54.2929
52.9961
52.299
51.12
50.3998
49.3558
48.0539
46.7482
44.9832
43.2258
41.2293
39.0679
36.7496
50.7382
50.4173
49.2847
48.3738
47.8715
47.7466
47.8539
48.0401
48.2111
48.3299
48.3902
48.399
48.3702
48.3195
48.2602
48.2016
48.1488
48.1043
48.0683
48.0403
48.019
48.003
47.9911
47.982
47.9748
47.9684
47.962
47.9548
47.9459
47.9345
47.9201
47.9026
47.8825
47.86
47.8353
47.8094
47.7829
47.7546
47.7234
47.6892
47.6525
47.6135
47.5741
47.5365
47.5006
47.4674
47.4384
47.4134
47.3902
47.367
47.3462
47.3335
47.3302
47.3338
47.3425
47.358
47.3811
47.4109
47.4439
47.4772
47.5127
47.5521
47.5953
47.6427
47.6938
47.7466
47.8002
47.8531
47.9044
47.9514
47.9875
48.0081
48.0104
47.9955
47.9715
47.9547
47.9573
47.9769
48.0033
48.0252
48.0321
48.0141
47.9571
47.8618
47.7412
47.6326
47.5062
47.4466
47.3955
47.4039
47.4391
47.5216
47.6298
47.7485
47.9174
48.1568
48.418
48.6613
48.9157
49.204
49.4685
49.6984
49.8923
50.0159
50.0779
50.0956
50.0921
50.108
50.1524
50.2084
50.276
50.34
50.4168
50.5137
50.6422
50.8005
50.9809
51.1733
51.374
51.5813
51.7756
51.9809
52.1756
52.359
52.5594
52.7486
52.9541
53.1528
53.3453
53.5074
53.6819
53.8676
54.0692
54.3062
54.5504
54.8208
55.0807
55.364
55.6175
55.922
56.1911
56.4924
56.7722
57.0599
57.2446
57.5083
57.5995
57.829
57.8865
58.0792
58.1346
58.2868
58.3127
58.5461
58.6469
58.8467
59.0436
59.3629
59.481
60.0112
60.2842
60.9066
61.0731
61.3681
61.5653
61.777
61.7874
61.8028
61.8171
61.7429
61.6376
61.6431
61.5731
61.549
61.2677
61.0745
60.6615
60.5062
60.0289
59.7308
59.3101
58.9089
58.4329
58.1644
57.4368
56.8219
55.9218
55.3233
53.9491
53.4523
52.2051
51.6051
50.3919
49.151
47.7936
46.0132
44.2971
42.3202
40.2506
38.0239
49.9078
49.7393
49.1847
48.7103
48.4251
48.3163
48.3207
48.3707
48.4207
48.4491
48.4493
48.4246
48.3831
48.3337
48.2838
48.2377
48.1975
48.1635
48.1351
48.1116
48.0922
48.0761
48.0629
48.0521
48.0429
48.0347
48.0266
48.018
48.0082
47.9963
47.9816
47.9641
47.9446
47.9242
47.9029
47.8799
47.8562
47.8323
47.8073
47.7787
47.7472
47.7159
47.6855
47.6556
47.6281
47.6067
47.5908
47.578
47.5666
47.5562
47.5508
47.5536
47.5645
47.5816
47.6054
47.6363
47.6733
47.7152
47.7612
47.8091
47.8567
47.9048
47.9563
48.0119
48.0696
48.1269
48.1837
48.2389
48.2912
48.3359
48.3688
48.3891
48.395
48.3847
48.3631
48.3467
48.349
48.3687
48.3993
48.4286
48.4472
48.4458
48.41
48.3413
48.2524
48.1862
48.0885
48.063
48.0226
48.054
48.0954
48.2098
48.3002
48.4463
48.6066
48.8502