/*--------------------------------*- C++ -*----------------------------------*\
| =========                 |                                                 |
| \\      /  F ield         | OpenFOAM: The Open Source CFD Toolbox           |
|  \\    /   O peration     | Version:  2.4.0                                 |
|   \\  /    A nd           | Web:      www.OpenFOAM.org                      |
|    \\/     M anipulation  |                                                 |
\*---------------------------------------------------------------------------*/
FoamFile
{
    version     2.0;
    format      ascii;
    class       volScalarField;
    location    "0.91";
    object      pPrime2Mean;
}
// * * * * * * * * * * * * * * * * * * * * * * * * * * * * * * * * * * * * * //

dimensions      [0 4 -4 0 0 0 0];

internalField   nonuniform List<scalar> 
8800
(
710624
692698
673463
654393
635582
617045
598781
580791
563074
545630
528456
511550
494908
478521
462371
446430
430634
414864
398835
381650
710649
692700
673462
654392
635582
617045
598781
580791
563075
545630
528456
511551
494909
478523
462376
446438
430651
414901
398923
381941
710665
692700
673457
654389
635580
617044
598781
580791
563075
545630
528457
511552
494912
478528
462384
446455
430685
414970
399085
382507
710678
692699
673452
654385
635579
617043
598781
580791
563075
545630
528458
511554
494916
478535
462397
446480
430733
415069
399311
383165
710688
692699
673448
654382
635578
617043
598780
580791
563075
545631
528459
511557
494920
478544
462414
446511
430794
415192
399582
383846
710696
692700
673445
654379
635577
617043
598780
580791
563075
545631
528461
511560
494926
478554
462434
446548
430865
415334
399879
384511
710702
692701
673443
654377
635576
617043
598781
580791
563075
545632
528462
511563
494933
478566
462457
446590
430945
415488
400190
385143
710706
692701
673441
654375
635575
617043
598781
580791
563075
545633
528464
511567
494940
478580
462481
446636
431031
415650
400503
385732
710709
692702
673441
654374
635574
617043
598781
580791
563076
545634
528466
511571
494948
478594
462507
446684
431120
415816
400809
386275
710710
692702
673440
654374
635574
617043
598781
580792
563077
545635
528469
511575
494956
478609
462534
446733
431209
415979
401103
386769
710710
692702
673440
654374
635574
617043
598782
580792
563077
545637
528471
511580
494964
478624
462561
446782
431298
416138
401380
387215
710709
692702
673441
654374
635574
617043
598782
580792
563078
545638
528474
511584
494972
478638
462588
446830
431383
416288
401635
387613
710706
692701
673442
654376
635575
617043
598782
580793
563079
545640
528476
511589
494980
478652
462613
446875
431464
416428
401866
387964
710702
692701
673443
654377
635576
617044
598782
580793
563080
545641
528478
511593
494987
478665
462636
446917
431537
416554
402072
388269
710696
692700
673446
654380
635577
617044
598782
580794
563081
545643
528481
511597
494993
478677
462657
446954
431603
416665
402250
388529
710688
692699
673449
654383
635579
617044
598783
580795
563082
545644
528483
511600
494999
478687
462675
446987
431659
416759
402399
388745
710678
692699
673452
654386
635580
617045
598783
580795
563082
545645
528484
511603
495004
478696
462691
447013
431705
416836
402519
388917
710665
692699
673457
654389
635582
617046
598784
580796
563083
545646
528486
511605
495008
478702
462702
447034
431740
416894
402610
389045
710650
692700
673462
654392
635583
617046
598784
580796
563084
545647
528486
511606
495010
478706
462710
447048
431764
416933
402670
389130
710625
692697
673463
654393
635584
617047
598784
580796
563084
545647
528487
511607
495011
478709
462714
447055
431776
416953
402701
389171
366078
361884
358684
355918
353353
350912
348558
346270
344032
341835
339670
337533
335420
333326
331249
329187
327136
325097
323066
321045
319032
317028
315033
313046
311067
309096
307131
305174
303224
301282
299346
297419
295501
293591
291691
289799
287915
286040
284173
282314
280462
278615
276775
274940
273110
271286
269467
267654
265847
264047
262252
260462
258678
256898
255124
253355
251593
249837
248087
246342
244603
242870
241141
239416
237697
235984
234278
232578
230887
229202
227525
225854
224189
222531
220880
219235
217596
215965
214340
212724
211116
209516
207925
206341
204765
203194
201629
200070
198515
196966
195421
193881
192344
190811
189282
187756
186233
184714
183200
181690
180185
178687
177194
175709
174232
172762
171301
169848
168403
166966
165536
164114
162698
161288
159885
158488
157098
155713
154335
152964
151599
150241
148890
147547
146210
144882
143558
142244
140934
139632
138333
137041
135752
134468
133188
131913
130642
129376
128114
126859
125609
124365
123126
121893
120666
119445
118230
117021
115817
114620
113427
112241
111060
109884
108714
107550
106391
105238
104092
102951
101818
100691
99571.6
98460.5
97355.6
96259.7
95169.6
94089
93015.1
91950.2
90891.7
89842.5
88798.6
87765.1
86734.7
85717.5
84698.8
83697.3
82690.4
81701.6
80708.4
79731.2
78750.3
77781.6
76809.5
75844.4
74874.6
73908.8
72933.7
71958.8
70969.1
69971.5
68952
67912.4
66837.5
65723.6
64547.4
63285.7
61916.8
60265.6
369065
364597
360953
357815
354976
352323
349797
347366
345006
342704
340448
338231
336047
333890
331757
329644
327549
325468
323402
321348
319306
317275
315256
313247
311248
309258
307278
305306
303343
301389
299443
297507
295580
293662
291754
289854
287964
286083
284210
282345
280487
278637
276792
274954
273121
271294
269473
267658
265850
264047
262251
260460
258675
256895
255121
253352
251590
249834
248084
246340
244601
242868
241140
239416
237699
235987
234281
232582
230890
229206
227528
225857
224193
222535
220883
219239
217600
215969
214346
212730
211122
209523
207933
206349
204773
203203
201638
200078
198524
196975
195430
193889
192352
190818
189288
187762
186239
184721
183207
181699
180195
178698
177208
175724
174248
172780
171320
169867
168422
166985
165555
164131
162715
161304
159901
158503
157112
155728
154350
152979
151615
150259
148909
147567
146231
144904
143582
142269
140960
139658
138360
137067
135779
134495
133215
131939
130668
129402
128141
126885
125635
124391
123152
121919
120691
119470
118254
117045
115841
114642
113450
112263
111082
109906
108736
107570
106410
105256
104108
102965
101829
100700
99577.4
98462.6
97354.1
96253.2
95158.6
94071.8
92991.6
91918.9
90851.9
89793.5
88738.9
87694.7
86651.5
85622
84589.2
83571.9
82550.6
81543.1
80533.2
79534.4
78534
77540
76544.7
75551.4
74553.4
73555
72547.4
71532.7
70504.2
69457.6
68388
67285
66143.3
64937.9
63677.6
62254
60751.4
59002.4
371138
366704
362891
359531
356488
353659
350983
348422
345950
343549
341207
338913
336660
334442
332254
330092
327953
325833
323731
321645
319574
317518
315474
313444
311425
309418
307422
305436
303460
301495
299539
297593
295657
293731
291816
289909
288013
286125
284246
282375
280513
278657
276809
274967
273131
271302
269478
267661
265851
264046
262248
260457
258671
256891
255117
253349
251586
249830
248080
246336
244598
242866
241138
239416
237700
235989
234285
232587
230895
229211
227534
225863
224198
222540
220889
219244
217606
215975
214352
212736
211130
209531
207941
206358
204782
203212
201647
200088
198534
196984
195439
193898
192361
190826
189296
187770
186248
184731
183218
181711
180210
178715
177226
175744
174270
172802
171343
169891
168447
167009
165579
164154
162737
161325
159920
158522
157131
155746
154369
152999
151636
150281
148933
147592
146257
144931
143611
142297
140989
139687
138389
137096
135808
134523
133243
131967
130695
129429
128168
126912
125661
124417
123178
121945
120717
119495
118280
117069
115865
114666
113473
112287
111105
109929
108758
107592
106431
105275
104124
102979
101840
100708
99582.7
98464.3
97352.5
96247
95147.7
94055.6
92968.5
91888.3
90812.4
89744.8
88679.2
87624
86568.4
85524.7
84479.9
83445.6
82411.3
81384.6
80359.2
79338
78318.7
77299.9
76281.7
75260.7
74237.3
73205.5
72169.5
71115.8
70052.6
68959
67848.1
66683.1
65498.2
64203.8
62897.8
61387.7
59819.1
58105.7
372716
368400
364539
361056
357870
354903
352101
349426
346853
344361
341938
339572
337254
334978
332738
330529
328346
326188
324052
321935
319836
317754
315688
313636
311599
309575
307563
305564
303575
301598
299632
297677
295733
293800
291876
289963
288060
286166
284282
282406
280538
278678
276825
274980
273141
271309
269483
267664
265852
264046
262247
260454
258667
256887
255113
253345
251583
249827
248077
246334
244596
242864
241138
239417
237702
235993
234289
232592
230902
229218
227541
225870
224205
222547
220896
219251
217612
215981
214358
212744
211137
209540
207950
206368
204792
203222
201657
200098
198545
196995
195450
193908
192370
190836
189306
187781
186260
184743
183233
181727
180228
178735
177248
175768
174295
172830
171371
169920
168475
167037
165606
164180
162762
161349
159943
158544
157153
155768
154392
153022
151661
150307
148959
147619
146287
144961
143642
142329
141021
139718
138420
137126
135837
134552
133270
131994
130722
129455
128193
126937
125686
124442
123203
121969
120742
119520
118304
117093
115889
114690
113498
112311
111129
109953
108782
107613
106450
105292
104138
102990
101849
100714
99585.9
98464
97349
96239.1
95135.6
94038
92944.8
91857
90772.8
89695.7
88619.7
87552.3
86486.2
85427.8
84371.8
83321.1
82273.6
81228.5
80187.1
79144.7
78105.8
77063
76023
74974.1
73928.2
72863.2
71802.8
70709.4
69620.9
68476.7
67342.2
66112.7
64902
63541.4
62188.7
60670.2
59092.6
57439.3
373984
369787
365938
362396
359117
356047
353142
350370
347707
345135
342637
340204
337826
335495
333205
330950
328728
326533
324363
322216
320090
317984
315896
313824
311769
309728
307702
305689
303689
301701
299725
297761
295808
293867
291937
290017
288107
286208
284317
282436
280563
278699
276842
274993
273152
271317
269489
267668
265854
264047
262246
260452
258665
256884
255110
253342
251580
249825
248075
246332
244595
242864
241139
239419
237705
235997
234295
232599
230910
229226
227549
225878
224214
222555
220903
219257
217619
215988
214365
212751
211145
209548
207958
206376
204801
203231
201668
200109
198556
197006
195461
193919
192382
190848
189318
187793
186273
184758
183250
181747
180250
178759
177274
175796
174325
172860
171402
169951
168507
167068
165636
164209
162789
161375
159969
158569
157177
155793
154417
153048
151687
150333
148987
147648
146316
144991
143672
142360
141052
139749
138450
137155
135865
134578
133296
132018
130746
129478
128216
126959
125709
124463
123225
121991
120764
119542
118327
117116
115912
114713
113522
112334
111153
109976
108804
107634
106469
105307
104150
102999
101855
100716
99585.4
98459.9
97341.8
96228.1
95120.6
94017.8
92918.9
91823.8
90732.3
89645.2
88560.7
87480.9
86404.9
85332.9
84265.7
83199.5
82138.8
81075.5
80018.2
78954.3
77898
76829.7
75772.4
74693.1
73629.6
72529.8
71451.2
70316.7
69208.8
68020
66860
65588.8
64339.8
62959.7
61564.5
60073.4
58518.9
56914.4
375051
370957
367137
363571
360233
357087
354101
351249
348509
345864
343300
340806
338372
335989
333653
331356
329095
326865
324664
322489
320337
318207
316098
314007
311934
309878
307837
305811
303800
301801
299816
297843
295883
293934
291997
290070
288155
286249
284353
282467
280590
278721
276861
275008
273163
271326
269496
267673
265858
264049
262248
260453
258665
256884
255110
253342
251580
249825
248076
246333
244597
242866
241142
239423
237710
236003
234302
232608
230919
229235
227558
225887
224221
222562
220909
219263
217624
215993
214371
212757
211151
209554
207965
206384
204809
203240
201677
200119
198566
197018
195473
193932
192394
190861
189332
187808
186289
184776
183269
181768
180273
178785
177302
175826
174355
172891
171434
169983
168538
167099
165665
164237
162817
161402
159995
158595
157203
155818
154442
153073
151713
150359
149014
147675
146343
145018
143700
142387
141080
139775
138476
137180
135889
134600
133318
132039
130766
129497
128235
126977
125726
124481
123243
122009
120783
119561
118347
117136
115933
114734
113544
112355
111174
109995
108822
107649
106483
105317
104159
103004
101857
100714
99580.3
98450.6
97330.2
96212
95101.4
93993.4
92889.8
91786.7
90689.3
89591.8
88500.2
87408.7
86324.3
85238.6
84161.9
83079.1
82007.3
80924.3
79853.4
78767
77695.9
76602.8
75528.9
74423.9
73341.1
72214.4
71112.6
69951.3
68813.4
67600.8
66403.8
65117.7
63830.9
62456
61043.5
59577.2
58049.3
56479.8
375971
371960
368173
364600
361225
358025
354977
352059
349254
346547
343924
341374
338889
336460
334080
331744
329447
327184
324954
322752
320575
318423
316294
314185
312095
310024
307970
305931
303909
301900
299906
297925
295956
294000
292056
290124
288202
286291
284390
282499
280617
278745
276881
275025
273177
271338
269506
267681
265864
264054
262252
260456
258668
256886
255112
253344
251582
249827
248079
246337
244601
242871
241147
239428
237716
236010
234310
232615
230926
229243
227565
225893
224227
222567
220913
219267
217628
215997
214374
212760
211155
209559
207970
206389
204815
203247
201684
200127
198576
197029
195485
193945
192408
190875
189347
187823
186305
184793
183287
181789
180296
178810
177329
175854
174385
172922
171465
170014
168568
167128
165693
164264
162842
161427
160019
158619
157227
155842
154466
153097
151736
150382
149037
147697
146366
145041
143723
142410
141102
139797
138497
137199
135907
134617
133334
132054
130780
129510
128247
126988
125738
124493
123256
122023
120798
119576
118362
117151
115948
114749
113559
112368
111188
110008
108833
107659
106491
105322
104161
103002
101852
100705
99568.5
98435.9
97312.1
96189.9
95075.8
93963.2
92854.9
91744.9
90640.7
89535.1
88435.6
87334.5
86240.8
85144.5
84057
82961
81875.8
80777.4
79690
78586.7
77496
76386.3
75290.4
74169.5
73062.7
71919.7
70790.2
69614.2
68446.1
67220.4
65995.5
64703.1
63394.5
62028.6
60614
59162
57652.6
56108.4
376774
372829
369074
365502
362105
358867
355771
352800
349941
347180
344506
341907
339375
336903
334484
332112
329781
327489
325230
323003
320804
318631
316482
314356
312250
310165
308098
306048
304014
301996
299993
298004
296028
294065
292115
290176
288249
286333
284427
282532
280646
278770
276902
275044
273194
271352
269518
267691
265873
264062
262259
260462
258673
256891
255116
253348
251587
249832
248083
246341
244605
242875
241152
239434
237722
236016
234315
232621
230931
229248
227569
225897
224230
222569
220915
219268
217629
215998
214376
212762
211157
209561
207973
206392
204818
203251
201690
200134
198584
197039
195497
193957
192422
190889
189361
187837
186319
184808
183304
181807
180317
178832
177353
175879
174411
172948
171492
170040
168594
167152
165716
164286
162864
161448
160040
158640
157248
155863
154486
153117
151756
150401
149054
147714
146383
145057
143739
142425
141116
139811
138509
137211
135918
134627
133342
132061
130786
129516
128251
126993
125743
124499
123262
122032
120806
119585
118371
117160
115957
114758
113567
112375
111194
110013
108836
107661
106492
105320
104156
102994
101840
100690
99549.4
98414.7
97286.2
96161.7
95044.1
93927.7
92813.7
91698.8
90588.2
89476.8
88368.6
87259.7
86156.7
85051.8
83952.8
82847.1
81747
80636.9
79532.1
78415.3
77304.6
76182
75066.4
73932.5
72804.5
71649.6
70497.1
69309
68118.9
66883.5
65640.4
64347.5
63026.3
61666.2
60252.3
58806.7
57311.2
55787.4
377479
373587
369861
366295
362885
359619
356486
353473
350569
347762
345043
342401
339829
337318
334863
332457
330096
327776
325491
323240
321020
318828
316661
314518
312398
310299
308220
306159
304115
302088
300077
298080
296097
294128
292172
290228
288295
286374
284464
282565
280675
278796
276925
275064
273211
271367
269531
267704
265884
264071
262267
260470
258680
256897
255122
253353
251592
249836
248088
246345
244609
242879
241155
239437
237724
236018
234317
232622
230932
229248
227569
225896
224229
222568
220914
219267
217628
215997
214374
212761
211156
209560
207973
206393
204820
203254
201693
200139
198590
197046
195506
193968
192432
190900
189371
187848
186331
184820
183317
181821
180332
178848
177371
175898
174430
172968
171512
170060
168612
167170
165733
164302
162879
161463
160056
158655
157263
155878
154501
153131
151769
150413
149065
147723
146390
145064
143746
142431
141122
139814
138512
137213
135919
134627
133342
132060
130785
129514
128250
126992
125742
124499
123263
122033
120808
119588
118373
117162
115958
114759
113567
112374
111193
110010
108831
107657
106484
105311
104144
102981
101821
100670
99523.6
98387.8
97253.7
96127.9
95006.6
93888.6
92767.7
91649.7
90530.9
89415.8
88300.1
87185.7
86073.2
84963.5
83851.5
82740.7
81624.1
80506.7
79384.8
78256.7
77129
75994
74862
73719.4
72573.2
71409.7
70238.5
69040.4
67834.3
66592.9
65336.3
64044
62712.1
61352.7
59940.2
58499.1
57016.8
55510.7
378099
374250
370549
366991
363573
360288
357126
354080
351138
348293
345535
342856
340247
337702
335215
332779
330390
328044
325736
323463
321223
319012
316829
314672
312538
310426
308335
306264
304211
302175
300156
298152
296163
294188
292226
290277
288340
286415
284501
282598
280705
278822
276949
275085
273230
271384
269546
267716
265895
264081
262276
260477
258687
256903
255127
253358
251595
249840
248090
246347
244611
242880
241155
239436
237723
236016
234315
232619
230929
229244
227565
225891
224224
222563
220909
219262
217623
215993
214370
212757
211152
209556
207969
206389
204818
203252
201694
200141
198594
197052
195512
193974
192439
190906
189378
187854
186337
184827
183324
181828
180340
178857
177381
175909
174442
172980
171523
170070
168622
167179
165741
164310
162887
161471
160063
158663
157271
155886
154509
153139
151775
150418
149067
147724
146389
145062
143742
142427
141117
139809
138506
137206
135912
134620
133334
132052
130777
129507
128243
126986
125737
124494
123258
122029
120804
119583
118369
117156
115953
114754
113559
112367
111183
110001
108820
107648
106470
105298
104126
102965
101797
100647
99492.1
98358.3
97216.1
96091.8
94964.2
93847
92716.8
91599.9
90471.7
89354.4
88230.1
87114.1
85991.5
84882.3
83755.9
82644.5
81512
80389.8
79252.6
78113.5
76973.2
75829.4
74683.9
73534
72371
71199.5
70013.4
68806.9
67588
66343.2
65072.9
63779.1
62438.2
61076.2
59667.6
58232.5
56763.7
55273.6
378644
374830
371151
367600
364178
360879
357696
354622
351650
348772
345982
343269
340629
338054
335538
333075
330661
328292
325962
323670
321411
319184
316986
314814
312668
310545
308443
306363
304301
302257
300231
298220
296225
294244
292277
290324
288382
286453
284536
282629
280733
278848
276972
275105
273248
271400
269560
267729
265906
264091
262284
260484
258692
256908
255131
253360
251597
249840
248090
246347
244609
242878
241152
239432
237719
236011
234309
232612
230921
229236
227557
225883
224216
222555
220901
219255
217616
215986
214363
212749
211144
209548
207961
206383
204812
203248
201691
200140
198595
197053
195514
193976
192440
190907
189378
187853
186336
184826
183323
181827
180340
178858
177382
175910
174444
172981
171524
170070
168622
167178
165741
164310
162886
161470
160063
158663
157271
155887
154510
153139
151774
150415
149062
147717
146379
145050
143729
142413
141102
139795
138491
137191
135897
134606
133321
132040
130766
129497
128234
126977
125728
124485
123249
122018
120794
119571
118358
117143
115940
114741
113543
112354
111167
109987
108805
107634
106451
105282
104105
102946
101772
100622
99458.6
98326.4
97173.6
96051.9
94917.1
93803.2
92662.1
91546.9
90409.7
89295.2
88162.9
87046.3
85915.1
84808.2
83669.1
82556.7
81412.4
80284.5
79136.3
77985.9
76837.7
75685.6
74526.9
73376.3
72195.7
71019.1
69818.2
68606.1
67374.3
66126.1
64842.7
63543.1
62197.5
60834
59430.9
58003.5
56547.7
55072.1
379122
375335
371674
368131
364707
361397
358197
355101
352105
349200
346382
343642
340974
338373
335832
333345
330909
328518
326169
323859
321584
319341
317129
314945
312787
310654
308543
306453
304384
302333
300300
298283
296283
294297
292325
290367
288422
286489
284569
282659
280760
278872
276994
275125
273265
271415
269573
267740
265915
264098
262290
260489
258696
256910
255132
253360
251596
249838
248087
246342
244604
242871
241145
239424
237710
236002
234299
232602
230911
229226
227546
225873
224206
222545
220893
219247
217608
215977
214355
212740
211135
209538
207951
206372
204802
203240
201685
200135
198591
197049
195510
193970
192434
190900
189371
187845
186328
184818
183315
181818
180331
178849
177373
175902
174435
172972
171514
170061
168613
167170
165733
164302
162879
161462
160056
158656
157264
155880
154503
153131
151766
150404
149050
147702
146363
145032
143709
142391
141080
139771
138469
137169
135875
134585
133302
132022
130750
129481
128219
126963
125714
124471
123235
122002
120779
119554
118340
117123
115921
114720
113520
112334
111146
109970
108787
107616
106433
105262
104084
102923
101745
100594
99426
98291.9
97133.9
96009.3
94871.3
93756.8
92611.4
91492.9
90351.2
89234.4
88096.3
86980.5
85844.5
84737
83590.3
82474.5
81321.7
80190
79032.9
77876
76718.8
75559
74393.6
73234.3
72040.7
70861.7
69648.2
68431.9
67190.9
65934
64640.6
63335.1
61987.9
60625.9
59228.9
57809.4
56365.6
54902.8
379536
375773
372127
368591
365166
361848
358634
355521
352504
349578
346736
343973
341282
338658
336094
333587
331130
328721
326355
324029
321739
319483
317259
315064
312896
310753
308633
306536
304459
302402
300363
298341
296335
294345
292369
290407
288459
286523
284599
282687
280785
278894
277013
275142
273280
271428
269584
267749
265922
264104
262294
260491
258697
256909
255130
253357
251591
249833
248081
246335
244595
242862
241135
239414
237699
235991
234288
232590
230899
229214
227535
225862
224195
222535
220883
219238
217600
215969
214345
212730
211124
209527
207939
206360
204790
203228
201674
200125
198581
197038
195498
193957
192420
190886
189356
187830
186313
184802
183299
181801
180314
178832
177357
175884
174418
172954
171497
170043
168596
167154
165719
164288
162865
161449
160042
158641
157251
155865
154489
153116
151750
150387
149032
147682
146342
145008
143683
142363
141051
139742
138440
137140
135848
134559
133278
131999
130728
129460
128199
126943
125694
124451
123215
121981
120758
119531
118317
117099
115896
114695
113496
112309
111125
109946
108764
107595
106412
105239
104063
102898
101718
100559
99393.5
98250.4
97092.9
95962.4
94824.4
93707.7
92557.5
91442.9
90296.9
89177.2
88033.8
86912.6
85774.8
84662.2
83514.6
82396
81238.7
80104
78939.9
77777.6
76614.5
75449.7
74274.6
73105.5
71908.9
70721.8
69501.8
68278.7
67031.7
65765
64465.8
63156.8
61809.7
60450.6
59059
57647.3
56214
54762.6
379893
376148
372514
368984
365558
362234
359010
355883
352850
349906
347045
344262
341552
338908
336325
333800
331326
328901
326520
324180
321877
319610
317374
315169
312992
310841
308714
306610
304527
302464
300419
298393
296383
294388
292409
290444
288492
286553
284626
282711
280807
278913
277030
275157
273293
271438
269592
267755
265927
264107
262295
260491
258694
256906
255125
253351
251584
249825
248072
246325
244585
242851
241124
239402
237687
235978
234275
232578
230887
229202
227523
225850
224184
222525
220874
219229
217591
215959
214335
212720
211112
209514
207925
206346
204775
203214
201659
200110
198564
197020
195478
193937
192400
190865
189334
187809
186292
184780
183277
181779
180292
178809
177334
175861
174395
172931
171475
170021
168575
167134
165699
164269
162847
161430
160023
158622
157232
155846
154469
153095
151729
150365
149009
147657
146316
144980
143654
142332
141019
139709
138407
137109
135818
134530
133250
131973
130702
129435
128175
126918
125671
124426
123191
121957
120734
119507
118292
117071
115870
114663
113469
112281
111100
109920
108739
107568
106388
105209
104042
102870
101689
100528
99364.6
98201.2
97051.5
95911.7
94771.3
93655.9
92508.2
91385.9
90243.1
89121.4
87972.2
86841.7
85707.2
84585
83441.2
82321.1
81159.1
80022.9
78855
77689.9
76522.8
75352.9
74171.8
72994.8
71794.5
70595.3
69376.2
68142.3
66893.3
65619.1
64318.1
63007.9
61662.3
60305.5
58918.4
57514
56089.5
54647.9
380196
376465
372840
369313
365887
362558
359326
356189
353143
350185
347309
344510
341783
339123
336525
333984
331495
329056
326662
324310
321997
319719
317474
315261
313076
310918
308784
306674
304586
302518
300469
298438
296424
294426
292443
290475
288520
286578
284649
282731
280825
278929
277044
275168
273302
271445
269598
267759
265928
264106
262293
260487
258690
256900
255118
253343
251576
249815
248061
246314
244574
242840
241112
239391
237675
235966
234263
232566
230875
229190
227512
225840
224174
222516
220864
219220
217582
215950
214325
212709
211101
209501
207911
206331
204759
203196
201640
200090
198541
196996
195453
193912
192375
190840
189309
187784
186267
184754
183250
181754
180267
178785
177310
175837
174370
172907
171450
169997
168553
167111
165677
164248
162825
161408
160001
158600
157209
155823
154446
153072
151704
150339
148983
147630
146288
144951
143624
142301
140986
139676
138374
137077
135786
134499
133220
131944
130675
129408
128149
126893
125645
124400
123165
121930
120707
119478
118265
117046
115838
114631
113442
112250
111072
109889
108711
107538
106361
105180
104014
102831
101664
100493
99322.2
98153.8
97014.5
95867.6
94727.6
93601.6
92454.7
91324.6
90190.1
89058.2
87913.6
86774.5
85646.2
84512.7
83374.1
82243.2
81085.8
79944.5
78778.3
77613.5
76446.3
75271.7
74081.2
72897.8
71693.7
70485.8
69266.4
68024.1
66777.1
65497.9
64197.3
62886.5
61542.7
60187.6
58804.9
57406.6
55988.7
54555.9
380447
376728
373108
369583
366155
362823
359586
356441
353386
350416
347528
344716
341976
339302
336691
334137
331637
329187
326782
324420
322097
319811
317559
315338
313147
310983
308844
306729
304636
302563
300511
298476
296459
294457
292472
290501
288543
286599
284667
282747
280839
278941
277054
275176
273308
271450
269600
267760
265928
264104
262289
260482
258684
256893
255110
253335
251567
249806
248051
246304
244563
242829
241101
239379
237664
235954
234251
232554
230863
229179
227501
225829
224164
222506
220855
219211
217573
215941
214315
212698
211089
209489
207898
206316
204743
203178
201619
200067
198516
196970
195426
193885
192348
190813
189282
187758
186240
184728
183224
181729
180242
178760
177285
175813
174346
172884
171426
169974
168529
167088
165654
164225
162801
161385
159976
158577
157184
155800
154421
153047
151678
150315
148957
147605
146262
144925
143596
142273
140957
139647
138343
137046
135754
134469
133189
131915
130646
129381
128122
126867
125618
124373
123137
121903
120678
119449
118235
117015
115812
114607
113413
112222
111042
109857
108681
107504
106331
105148
103983
102796
101626
100442
99287.1
98117.4
96976.3
95826.9
94682.7
93538
92402.2
91270.7
90137.3
88992.7
87862.5
86721.2
85589.3
84450.7
83315.1
82170.9
81024.2
79871.5
78710.9
77547.1
76378.5
75198.2
74005.1
72817.2
71605.4
70392.2
69173.2
67928.6
66680.1
65400.9
64101.9
62790.2
61448.3
60094.2
58715.9
57321.4
55908.8
54483.4
380647
376936
373319
369794
366366
363032
359791
356641
353579
350601
347703
344881
342130
339446
336825
334261
331751
329292
326878
324508
322178
319885
317627
315401
313204
311035
308892
306772
304676
302600
300544
298506
296486
294482
292494
290521
288561
286615
284681
282759
280849
278949
277061
275182
273312
271452
269601
267759
265926
264102
262285
260478
258678
256887
255103
253327
251559
249797
248043
246295
244554
242820
241092
239370
237654
235944
234241
232544
230853
229169
227491
225819
224155
222497
220846
219202
217564
215932
214307
212689
211079
209478
207886
206302
204727
203160
201599
200044
198492
196945
195399
193859
192320
190787
189256
187734
186215
184705
183200
181707
180218
178738
177262
175791
174324
172862
171404
169953
168506
167067
165632
164204
162779
161364
159954
158554
157161
155778
154397
153024
151654
150292
148933
147583
146239
144903
143572
142249
140931
139621
138316
137018
135725
134440
133159
131886
130617
129354
128093
126840
125589
124346
123107
121874
120647
119421
118205
116991
115784
114579
113386
112192
111007
109824
108649
107469
106295
105113
103945
102753
101588
100409
99259.6
98074.1
96938.6
95777.2
94632.2
93496.4
92362.6
91217.3
90084.6
88939
87813.8
86669.6
85541.5
84400.6
83263.9
82113.5
80971.1
79808
78653.2
77487.5
76323.3
75134.1
73943.2
72746.6
71535.3
70319.2
69097.8
67852.9
66603.8
65327.9
64029.2
62716.8
61376.4
60022.5
58647.4
57255.7
55847.8
54427.8
380797
377091
373475
369951
366522
363187
359944
356790
353723
350738
347834
345004
342246
339554
336925
334354
331837
329370
326951
324575
322239
319941
317678
315448
313247
311074
308928
306805
304705
302627
300568
298528
296506
294500
292510
290535
288574
286626
284691
282768
280856
278955
277065
275185
273315
271454
269602
267759
265925
264100
262283
260475
258675
256883
255099
253322
251553
249791
248037
246289
244547
242812
241084
239362
237646
235936
234233
232536
230845
229160
227482
225811
224147
222490
220839
219195
217557
215925
214299
212681
211071
209470
207877
206292
204714
203145
201581
200025
198470
196924
195377
193838
192298
190767
189236
187714
186195
184687
183181
181689
180199
178720
177242
175773
174305
172845
171386
169936
168488
167050
165614
164187
162761
161347
159935
158536
157141
155758
154377
153006
151636
150275
148916
147567
146222
144887
143554
142233
140912
139603
138294
136996
135700
134415
133132
131860
130590
129328
128067
126815
125563
124320
123079
121847
120617
119397
118178
116967
115758
114554
113357
112162
110976
109791
108614
107431
106260
105077
103906
102721
101557
100374
99227.4
98038.6
96902
95731.9
94597.3
93453.5
92317.1
91172.7
90043.8
88896.9
87772.1
86627.8
85503.1
84356.7
83221.9
82069.1
80927.1
79761.2
78610.2
77440.6
76274.9
75080.9
73898.1
72690.8
71482.4
70263.1
69040.8
67801.5
66548.5
65276.6
63976.7
62665.1
61324.2
59971
58598.1
57208.5
55803.8
54387.2
380892
377191
373578
370055
366627
363291
360046
356889
353818
350830
347921
345087
342323
339626
336992
334416
331894
329423
326999
324620
322280
319979
317713
315479
313275
311100
308951
306827
304725
302645
300585
298543
296519
294512
292521
290544
288582
286633
284697
282773
280860
278959
277068
275187
273316
271454
269602
267759
265924
264099
262282
260473
258673
256880
255096
253319
251550
249787
248032
246284
244543
242807
241079
239356
237640
235930
234226
232529
230838
229154
227476
225805
224140
222483
220833
219189
217551
215919
214294
212676
211067
209465