/*--------------------------------*- C++ -*----------------------------------*\
| =========                 |                                                 |
| \\      /  F ield         | OpenFOAM: The Open Source CFD Toolbox           |
|  \\    /   O peration     | Version:  2.4.0                                 |
|   \\  /    A nd           | Web:      www.OpenFOAM.org                      |
|    \\/     M anipulation  |                                                 |
\*---------------------------------------------------------------------------*/
FoamFile
{
    version     2.0;
    format      ascii;
    class       volScalarField;
    location    "0.02";
    object      k;
}
// * * * * * * * * * * * * * * * * * * * * * * * * * * * * * * * * * * * * * //

dimensions      [0 2 -2 0 0 0 0];

internalField   nonuniform List<scalar> 
8800
(
8.103
10.2866
8.75127
6.87663
5.65038
5.05877
4.40381
4.21589
3.83167
3.65784
3.59188
3.38518
3.40405
3.29207
3.33314
3.2893
3.32291
3.31214
3.37682
3.10044
1.39436
4.37636
5.2909
5.29239
5.07525
4.91207
4.48821
4.34956
4.09521
3.82473
3.79851
3.58528
3.55309
3.49477
3.45535
3.42586
3.44899
3.43793
3.4208
3.47342
0.083921
0.743999
1.55843
1.95056
2.19769
2.50688
2.57439
2.6182
2.62653
2.57646
2.58112
2.53561
2.49415
2.45701
2.39106
2.37917
2.37335
2.34092
2.34528
2.3359
0.00331969
0.0710169
0.270164
0.420361
0.545628
0.689872
0.877759
0.938609
1.02773
1.10834
1.13814
1.21404
1.23867
1.23737
1.21738
1.22223
1.2139
1.1726
1.16865
1.15503
0.000121045
0.00507216
0.0287189
0.0559166
0.0771298
0.102001
0.181818
0.212075
0.256476
0.299956
0.31086
0.35462
0.388043
0.388407
0.385938
0.389811
0.384649
0.359348
0.350011
0.336234
2.57606e-05
0.000326375
0.00225148
0.00495793
0.00646329
0.00872972
0.0208743
0.0272045
0.0401716
0.0506397
0.052456
0.0640266
0.0739383
0.0730774
0.072123
0.0718238
0.069329
0.0615899
0.0540251
0.0477199
2.19124e-05
4.54039e-05
0.000192688
0.000388399
0.000453723
0.000546352
0.00153995
0.00216359
0.00364596
0.00532819
0.00534488
0.00668738
0.00786176
0.00749009
0.00728944
0.00715569
0.00670168
0.00548958
0.00409131
0.00295648
2.10651e-05
2.93285e-05
6.14347e-05
8.70885e-05
9.045e-05
8.97227e-05
0.000145855
0.000189839
0.000291686
0.000445732
0.000420889
0.000504814
0.000555505
0.000503987
0.000481456
0.000468161
0.000437663
0.000358665
0.000266864
0.000209698
2.06638e-05
2.76323e-05
4.90636e-05
6.64672e-05
6.59572e-05
6.25944e-05
6.84075e-05
7.72334e-05
8.90823e-05
0.000102889
9.96362e-05
0.000101047
0.000101659
9.68552e-05
9.48932e-05
9.70174e-05
9.85655e-05
9.79639e-05
9.62519e-05
9.68401e-05
2.05787e-05
2.66102e-05
4.72272e-05
6.09451e-05
6.02646e-05
5.75453e-05
6.08225e-05
6.79813e-05
7.50651e-05
7.89142e-05
7.89297e-05
7.774e-05
7.34473e-05
7.04077e-05
6.96686e-05
7.09528e-05
7.71217e-05
8.14066e-05
8.29025e-05
8.92046e-05
2.05678e-05
2.68652e-05
4.65085e-05
6.11276e-05
6.01193e-05
5.72368e-05
6.15451e-05
6.75885e-05
7.53302e-05
7.85116e-05
7.86174e-05
7.78236e-05
7.28089e-05
7.0062e-05
6.96847e-05
7.06611e-05
7.64857e-05
8.12137e-05
8.269e-05
8.6293e-05
2.07919e-05
2.73587e-05
4.89276e-05
6.65053e-05
6.55047e-05
6.29034e-05
6.81313e-05
7.44885e-05
9.3958e-05
9.63614e-05
0.000100301
0.000102345
9.66712e-05
9.97425e-05
9.89828e-05
9.7676e-05
0.000102648
0.000107827
0.000107814
0.000109676
2.11655e-05
2.95237e-05
5.78436e-05
9.0659e-05
8.96213e-05
9.15528e-05
0.000131169
0.000177258
0.000345302
0.000362909
0.000440169
0.000545329
0.000506369
0.000587741
0.00057258
0.000497594
0.000551331
0.000580261
0.000543524
0.000530084
2.20151e-05
4.51557e-05
0.000175107
0.000419523
0.000446185
0.000576126
0.00137302
0.00205752
0.00410498
0.00445018
0.00544566
0.00746597
0.0075182
0.00850964
0.0084421
0.00761524
0.00803444
0.00823103
0.0076119
0.00750437
2.54001e-05
0.000324694
0.00208444
0.00525243
0.00634061
0.00909705
0.0199979
0.026675
0.0423102
0.0456442
0.0537645
0.0687852
0.0712495
0.0795811
0.0796029
0.0756959
0.0778084
0.079672
0.0776052
0.0795243
0.000119584
0.0051003
0.0273538
0.0585183
0.0745939
0.106033
0.180209
0.207591
0.266198
0.281985
0.319177
0.369622
0.3793
0.408066
0.408886
0.404253
0.410635
0.42504
0.427196
0.447904
0.00331544
0.0712282
0.267275
0.428636
0.531336
0.708133
0.870121
0.930679
1.04775
1.08155
1.1662
1.22602
1.23415
1.26023
1.25294
1.24577
1.2546
1.28296
1.29052
1.33813
0.0840336
0.742518
1.56878
1.93482
2.22154
2.49032
2.57781
2.62465
2.62156
2.59072
2.58293
2.53677
2.50352
2.45571
2.42187
2.39034
2.40435
2.41172
2.41835
2.45339
1.39826
4.37004
5.30412
5.27989
5.12038
4.85279
4.52358
4.34963
4.05083
3.89193
3.73892
3.58695
3.55537
3.44413
3.43513
3.39202
3.39419
3.32519
3.3242
3.25024
8.11559
10.2778
8.77336
6.83566
5.70698
4.98692
4.46707
4.17497
3.82379
3.68502
3.51486
3.40284
3.35682
3.2316
3.23235
3.16042
3.1564
2.99112
2.95555
2.65792
2.18284
1.71401
1.38676
1.13321
0.959923
0.778923
0.585734
0.520662
0.471278
0.362285
0.315688
0.309785
0.293972
0.277724
0.279114
0.326974
0.4141
0.421396
0.40688
0.381335
0.349451
0.280044
0.198378
0.131515
0.0686683
0.0331219
0.0222731
0.0216191
0.0208146
0.0189611
0.0167588
0.0148043
0.0142317
0.0158393
0.0195664
0.0208295
0.0201277
0.0179826
0.0163598
0.0158163
0.0149831
0.0114755
0.007561
0.00466475
0.00271695
0.00151558
0.000822786
0.000444154
0.000243322
0.000137116
7.9944e-05
4.8132e-05
2.97344e-05
1.87312e-05
1.19712e-05
7.73301e-06
5.03575e-06
3.29999e-06
2.17345e-06
1.43741e-06
9.53886e-07
6.3483e-07
4.23511e-07
2.83109e-07
1.89578e-07
1.27133e-07
8.5362e-08
5.73765e-08
3.86011e-08
2.59902e-08
1.75115e-08
1.1806e-08
7.96378e-09
5.3747e-09
3.62902e-09
2.4514e-09
1.65661e-09
1.11997e-09
7.57473e-10
5.12518e-10
3.46927e-10
2.34943e-10
1.59183e-10
1.07909e-10
7.3193e-11
4.96773e-11
3.37407e-11
2.29349e-11
1.5604e-11
1.06273e-11
7.24656e-12
4.94812e-12
3.38415e-12
2.31889e-12
1.5925e-12
1.09654e-12
7.57399e-13
5.25085e-13
3.65617e-13
2.55894e-13
1.80198e-13
1.27807e-13
9.1409e-14
6.60289e-14
4.82559e-14
3.57247e-14
2.68569e-14
2.05677e-14
1.604e-14
1.27806e-14
1.04754e-14
8.7744e-15
7.54728e-15
6.76047e-15
6.17045e-15
5.80455e-15
5.76731e-15
5.82708e-15
6.01136e-15
6.49333e-15
7.03877e-15
8.21633e-15
9.27384e-15
1.15433e-14
1.35322e-14
1.77963e-14
2.15434e-14
2.95902e-14
3.67861e-14
5.22903e-14
6.6441e-14
9.63229e-14
1.28258e-13
1.71853e-13
2.66337e-13
3.45947e-13
5.15894e-13
6.88346e-13
1.06932e-12
1.42611e-12
2.18109e-12
2.99913e-12
4.28599e-12
6.80308e-12
9.12295e-12
1.40404e-11
1.95542e-11
3.06638e-11
4.4972e-11
6.22385e-11
1.08459e-10
1.45867e-10
2.44865e-10
3.48762e-10
5.23017e-10
9.46259e-10
1.27352e-09
2.04808e-09
4.04585e-09
4.92057e-09
2.54929e-08
3.71097e-08
2.37673e-07
5.62225e-07
1.99646e-06
4.8689e-06
1.45548e-05
2.42984e-05
7.11619e-05
9.74035e-05
0.000201186
0.000223357
0.000328181
0.000341567
0.000451253
0.000456695
0.000537864
0.00055982
0.00066643
0.000660608
0.000843091
0.000835332
0.00102702
0.00103585
0.00114168
0.00160204
0.00153456
0.00162955
0.00154927
0.00188388
0.00172204
0.00219017
0.00229739
0.00282331
0.00311057
0.00419989
0.00752375
0.0140135
0.068502
0.95869
2.97344
2.44074
2.05189
1.798
1.62143
1.49449
1.30311
1.15533
1.10588
1.00259
0.828677
0.753016
0.669204
0.613516
0.588693
0.564194
0.53032
0.456294
0.392932
0.346635
0.238859
0.127296
0.0767715
0.0473726
0.0266138
0.0165715
0.0124725
0.011374
0.0127842
0.0170857
0.018235
0.0170855
0.0146915
0.0130965
0.0128635
0.0151213
0.0172288
0.0172768
0.0154358
0.013116
0.011883
0.0101003
0.00738789
0.00480686
0.00290091
0.00167054
0.000936139
0.000518124
0.00028638
0.000159934
9.11168e-05
5.32977e-05
3.21025e-05
1.98598e-05
1.25473e-05
8.04704e-06
5.21559e-06
3.40613e-06
2.23709e-06
1.47583e-06
9.77135e-07
6.48904e-07
4.32027e-07
2.88259e-07
1.92691e-07
1.29013e-07
8.64977e-08
5.8062e-08
3.90148e-08
2.62398e-08
1.76619e-08
1.18967e-08
8.01843e-09
5.40762e-09
3.64884e-09
2.46333e-09
1.66378e-09
1.12428e-09
7.6006e-10
5.14071e-10
3.47857e-10
2.35499e-10
1.59514e-10
1.08104e-10
7.3307e-11
4.97428e-11
3.37779e-11
2.29557e-11
1.56152e-11
1.06331e-11
7.24928e-12
4.94925e-12
3.38449e-12
2.31888e-12
1.59236e-12
1.09634e-12
7.57174e-13
5.2485e-13
3.65379e-13
2.55662e-13
1.79972e-13
1.27591e-13
9.12074e-14
6.58441e-14
4.80885e-14
3.55753e-14
2.67246e-14
2.04525e-14
1.5941e-14
1.26941e-14
1.0401e-14
8.71152e-15
7.49153e-15
6.71064e-15
6.12651e-15
5.76371e-15
5.727e-15
5.78653e-15
5.96985e-15
6.44918e-15
6.99125e-15
8.16234e-15
9.2138e-15
1.14721e-14
1.34501e-14
1.76953e-14
2.14248e-14
2.94451e-14
3.66072e-14
5.20615e-14
6.61161e-14
9.65286e-14
1.24639e-13
1.85514e-13
2.42716e-13
3.66542e-13
4.84371e-13
7.35789e-13
1.00547e-12
1.40114e-12
2.2305e-12
2.95137e-12
4.52423e-12
6.16318e-12
9.7975e-12
1.32581e-11
2.02263e-11
2.92324e-11
4.75529e-11
6.1897e-11
1.12847e-10
1.47307e-10
2.85317e-10
3.59624e-10
7.08507e-10
1.1327e-09
1.52046e-09
6.53774e-09
5.3681e-09
5.76388e-08
7.38489e-08
5.12156e-07
1.79714e-06
7.55101e-06
2.45432e-05
7.3672e-05
0.000151329
0.000378481
0.000451381
0.000783837
0.000907295
0.00135458
0.00152226
0.00214824
0.00214779
0.00235615
0.00230957
0.00254109
0.00231312
0.0022801
0.00203512
0.00199085
0.00154916
0.00155297
0.00144948
0.00158652
0.00158004
0.00166599
0.00186059
0.00198767
0.00201738
0.00206671
0.00238755
0.00292537
0.00419137
0.0052757
0.00900166
0.014178
0.0774472
0.448094
2.11056
1.88882
1.58987
1.38574
1.32896
1.30509
1.21479
1.04597
0.949908
0.930783
0.906976
0.833642
0.769121
0.744345
0.692212
0.630815
0.523853
0.347721
0.213016
0.125602
0.0714137
0.0425945
0.0288025
0.0187265
0.0127167
0.0113853
0.0103638
0.0088742
0.0083067
0.00933425
0.0152138
0.0169584
0.0155862
0.0132473
0.0119487
0.0118
0.0136851
0.015117
0.0149845
0.0128146
0.00982909
0.00744225
0.00549189
0.00385686
0.0025319
0.00156172
0.000918539
0.00052393
0.000295169
0.00016707
9.61361e-05
5.6586e-05
3.40783e-05
2.09524e-05
1.31237e-05
8.35286e-06
5.38261e-06
3.50039e-06
2.29174e-06
1.5081e-06
9.96402e-07
6.60473e-07
4.38994e-07
2.9246e-07
1.95226e-07
1.30543e-07
8.74213e-08
5.86196e-08
3.93515e-08
2.64431e-08
1.77847e-08
1.19708e-08
8.06317e-09
5.43463e-09
3.66515e-09
2.47317e-09
1.66972e-09
1.12785e-09
7.62214e-10
5.15365e-10
3.48633e-10
2.35963e-10
1.5979e-10
1.08269e-10
7.34043e-11
4.97999e-11
3.38106e-11
2.29738e-11
1.56248e-11
1.06377e-11
7.25118e-12
4.9496e-12
3.38398e-12
2.31794e-12
1.59122e-12
1.09517e-12
7.56066e-13
5.23852e-13
3.64518e-13
2.54933e-13
1.79366e-13
1.27095e-13
9.08021e-14
6.55121e-14
4.78147e-14
3.5348e-14
2.65338e-14
2.02882e-14
1.57962e-14
1.25658e-14
1.02835e-14
8.60088e-15
7.38763e-15
6.61027e-15
6.02767e-15
5.66637e-15
5.62963e-15
5.68889e-15
5.90072e-15
6.25647e-15
7.04745e-15
7.8057e-15
9.43909e-15
1.08782e-14
1.39612e-14
1.66624e-14
2.24573e-14
2.75934e-14
3.86405e-14
4.86177e-14
7.01467e-14
8.99276e-14
1.32702e-13
1.72596e-13
2.59008e-13
3.4063e-13
5.1765e-13
6.86687e-13
1.05405e-12
1.40731e-12
2.17908e-12
2.92463e-12
4.56115e-12
6.15322e-12
9.72621e-12
1.31405e-11
2.12889e-11
2.84987e-11
4.88907e-11
6.28719e-11
1.23439e-10
1.43555e-10
3.77501e-10
3.62866e-10
1.55561e-09
1.27827e-09
1.0252e-08
1.23415e-08
6.51151e-08
2.10521e-07
6.56731e-07
2.39831e-06
6.10018e-06
1.47338e-05
3.23302e-05
3.95611e-05
6.88469e-05
8.6392e-05
0.000137474
0.000196645
0.000419657
0.000511463
0.000853386
0.000968525
0.00127499
0.00146468
0.00191558
0.00202063
0.00248385
0.00266716
0.00352803
0.00341628
0.00416252
0.00402564
0.00530476
0.00402265
0.00430664
0.00326324
0.00329584
0.00296911
0.00261395
0.00286035
0.00287629
0.00317185
0.00449332
0.00617163
0.0201243
0.0184027
0.0633911
0.218092
1.06931
1.0027
0.882956
0.721907
0.637773
0.621736
0.629463
0.621358
0.518542
0.453848
0.43368
0.375879
0.317725
0.295526
0.267902
0.243388
0.176625
0.100437
0.0529738
0.0278414
0.0189492
0.015297
0.00971338
0.00658086
0.00682857
0.00930404
0.0096692
0.00839871
0.0078539
0.00803781
0.00916149
0.0120607
0.0136788
0.0135481
0.0123317
0.011668
0.0119863
0.013655
0.0139014
0.0128388
0.00964845
0.0069191
0.00477627
0.00316658
0.0020207
0.00125045
0.000757624
0.000452937
0.000268772
0.000159056
9.45108e-05
5.67513e-05
3.4594e-05
2.14394e-05
1.34888e-05
8.5935e-06
5.53122e-06
3.5897e-06
2.34499e-06
1.53986e-06
1.01541e-06
6.71887e-07
4.45864e-07
2.96601e-07
1.97724e-07
1.3205e-07
8.83305e-08
5.91681e-08
3.96824e-08
2.66427e-08
1.79051e-08
1.20434e-08
8.10694e-09
5.46101e-09
3.68104e-09
2.48274e-09
1.67548e-09
1.13131e-09
7.64291e-10
5.16608e-10
3.49375e-10
2.36404e-10
1.6005e-10
1.0842e-10
7.34902e-11
4.98471e-11
3.38352e-11
2.29855e-11
1.56291e-11
1.06381e-11
7.2496e-12
4.94723e-12
3.38148e-12
2.31559e-12
1.58914e-12
1.0934e-12
7.54576e-13
5.22608e-13
3.63476e-13
2.54055e-13
1.78622e-13
1.26462e-13
9.0261e-14
6.50447e-14
4.74094e-14
3.49949e-14
2.6224e-14
2.00151e-14
1.55544e-14
1.23499e-14
1.00889e-14
8.42447e-15
7.22694e-15
6.46103e-15
5.887e-15
5.53417e-15
5.49984e-15
5.55917e-15
5.77074e-15
6.12335e-15
6.90783e-15
7.66241e-15
9.18739e-15
1.10157e-14
1.2937e-14
1.74283e-14
2.11131e-14
2.87443e-14
3.57853e-14
5.12438e-14
6.51812e-14
9.51016e-14
1.22959e-13
1.83363e-13
2.39902e-13
3.62258e-13
4.79645e-13
7.09482e-13
1.04007e-12
1.37009e-12
2.16132e-12
2.92674e-12
4.52851e-12
6.07374e-12
9.65991e-12
1.30528e-11
2.12631e-11
2.81525e-11
4.92891e-11
6.23982e-11
1.27873e-10
1.46035e-10
4.0934e-10
4.04854e-10
1.86479e-09
1.62789e-09
1.37625e-08
1.22088e-08
1.19992e-07
1.5876e-07
6.47427e-07
1.78033e-06
4.20046e-06
9.68161e-06
2.77039e-05
2.90577e-05
5.3499e-05
5.29685e-05
5.87023e-05
6.22393e-05
0.000101922
0.000130205
0.000208935
0.000235264
0.000355857
0.00051506
0.000683647
0.000815076
0.00123524
0.00148607
0.0018466
0.00206563
0.0031773
0.00324738
0.00394682
0.00438841
0.00668177
0.00823522
0.00714841
0.00644332
0.00439692
0.00384736
0.00718264
0.00565347
0.0271814
0.0159362
0.0787792
0.0504204
0.0588319
0.129301
0.309148
0.295529
0.264719
0.198046
0.162973
0.158091
0.171132
0.173463
0.142311
0.113733
0.105147
0.0859502
0.0613236
0.0516285
0.048767
0.0462018
0.0361707
0.02419
0.0139838
0.00656245
0.00499203
0.00519439
0.00450851
0.00390829
0.0048789
0.00739148
0.00731772
0.00696436
0.00773677
0.00940631
0.00934254
0.00891195
0.0090204
0.0115468
0.0131072
0.0128974
0.0115466
0.0110948
0.0114178
0.0115542
0.0104071
0.00765957
0.00512659
0.0032733
0.0020322
0.00122797
0.000728438
0.000428796
0.000252827
0.000150336
9.05139e-05
5.52659e-05
3.42196e-05
2.14666e-05
1.36195e-05
8.7224e-06
5.62968e-06
3.65711e-06
2.38858e-06
1.56719e-06
1.03226e-06
6.82187e-07
4.52131e-07
3.00406e-07
2.00031e-07
1.33448e-07
8.91768e-08
5.96804e-08
3.99923e-08
2.68301e-08
1.80184e-08
1.21118e-08
8.14829e-09
5.48597e-09
3.69609e-09
2.49181e-09
1.68093e-09
1.13459e-09
7.66251e-10
5.17777e-10
3.50068e-10
2.36811e-10
1.60287e-10
1.08555e-10
7.35656e-11
4.98879e-11
3.38562e-11
2.2995e-11
1.56324e-11
1.06381e-11
7.248e-12
4.94494e-12
3.37895e-12
2.31308e-12
1.58679e-12
1.09126e-12
7.52675e-13
5.20943e-13
3.62034e-13
2.52818e-13
1.77568e-13
1.25567e-13
8.94996e-14
6.44013e-14
4.68658e-14
3.45316e-14
2.58261e-14
1.96717e-14
1.52557e-14
1.20877e-14
9.85479e-15
8.21207e-15
7.0319e-15
6.27758e-15
5.71184e-15
5.36498e-15
5.3316e-15
5.39022e-15
5.59922e-15
5.94643e-15
6.71604e-15
7.46464e-15
8.89316e-15
1.0916e-14
1.27349e-14
1.69912e-14
2.07803e-14
2.85619e-14
3.54285e-14
5.05895e-14
6.45668e-14
9.42542e-14
1.23575e-13
1.70346e-13
2.59719e-13
3.36379e-13
5.03781e-13
6.74091e-13
1.04598e-12
1.38892e-12
2.13584e-12
2.87333e-12
4.50165e-12
6.05457e-12
9.57652e-12
1.28598e-11
2.12039e-11
2.77254e-11
5.06504e-11
6.09935e-11
1.44136e-10
1.47398e-10
5.65814e-10
4.96685e-10
3.89268e-09
3.64827e-09
3.85525e-08
5.41083e-08
3.09564e-07
6.82988e-07
3.96498e-06
5.57206e-06
5.08075e-05
4.14855e-05
0.000401658
0.000273882
0.000941105
0.00108345
0.000812768
0.00239754
0.00198624
0.00222709
0.00235827
0.00277514
0.00229476
0.00385601
0.00304893
0.00368304
0.00335971
0.00457569
0.00384808
0.00468687
0.00462204
0.00529189
0.00591309
0.00575267
0.00840625
0.00942219
0.0153193
0.0143602
0.0267776
0.0207334
0.046885
0.0264671
0.0532577
0.0326174
0.0523738
0.055123
0.0582989
0.0877366
0.04139
0.03937
0.0311096
0.0225983
0.0194567
0.018779
0.0201655
0.0200552
0.0156182
0.0115347
0.0100083
0.00809218
0.00635134
0.00520459
0.00532395
0.00536998
0.00519704
0.00442628
0.00367698
0.00273505
0.00208342
0.00212245
0.00309279
0.0035415
0.00502851
0.00564953
0.00511579
0.00514814
0.0069275
0.0102625
0.0102934
0.00907805
0.0087232
0.00943305
0.0124887
0.0130553
0.0118942
0.0100453
0.00943406
0.00952639
0.00996904
0.00971943
0.00771698
0.00514896
0.00315806
0.00182732
0.00101717
0.000554933
0.000302572
0.000167996
9.62059e-05
5.6988e-05
3.47745e-05
2.1705e-05
1.3764e-05
8.82567e-06
5.70449e-06
3.7094e-06
2.42371e-06
1.59004e-06
1.04678e-06
6.91263e-07
4.57742e-07
3.0385e-07
2.02135e-07
1.3473e-07
8.99566e-08
6.0154e-08
4.02796e-08
2.70043e-08
1.81239e-08
1.21758e-08
8.18697e-09
5.50935e-09
3.71021e-09
2.50032e-09
1.68605e-09
1.13766e-09
7.68087e-10
5.18869e-10
3.50712e-10
2.37188e-10
1.60505e-10
1.08679e-10
7.3635e-11
4.99249e-11
3.38741e-11
2.30021e-11
1.56335e-11
1.06361e-11
7.24454e-12
4.94093e-12
3.37493e-12
2.30933e-12
1.58343e-12
1.08833e-12
7.50168e-13
5.18818e-13
3.60249e-13
2.51323e-13
1.76319e-13
1.24523e-13
8.86231e-14
6.3664e-14
4.62414e-14
3.39983e-14
2.53672e-14
1.92726e-14
1.49051e-14
1.17769e-14
9.57468e-15
7.95717e-15
6.79736e-15
6.0578e-15
5.50239e-15
5.16524e-15
5.13418e-15
5.19248e-15
5.39922e-15
5.74529e-15
6.4202e-15
7.46257e-15
8.41783e-15
1.06284e-14
1.25901e-14
1.66512e-14
2.02297e-14
2.80647e-14
3.50603e-14
5.00539e-14
6.37539e-14
9.35078e-14
1.20958e-13
1.80417e-13
2.36265e-13
3.57276e-13
4.71917e-13
7.20913e-13
9.59324e-13
1.47655e-12
1.97673e-12
3.06107e-12
4.12978e-12
6.39331e-12
8.90386e-12
1.26261e-11
2.12102e-11
2.70689e-11
5.05603e-11
6.02995e-11
1.66809e-10
1.65106e-10
1.11924e-09
1.18247e-09
1.98744e-08
2.98511e-08
5.83083e-07
9.11428e-07
1.54029e-05
1.68395e-05
0.000177634
0.000141976
0.000766252
0.000689672
0.00183233
0.00177428
0.00410121
0.00447816
0.00781923
0.00762308
0.0093537
0.0091167
0.0123059
0.0124057
0.0174101
0.01651
0.024019
0.021209
0.0354658
0.0308305
0.0578726
0.0462656
0.0945515
0.0738847
0.170672
0.118805
0.266957
0.18698
0.322991
0.209199
0.284053
0.194134
0.221691
0.145633
0.137526
0.0837082
0.0808724
0.0708033
0.0650804
0.0736342
0.00221376
0.0019125
0.00158617
0.00130702
0.00110541
0.00100753
0.000946016
0.000810301
0.000619408
0.000487464
0.000474341
0.000506389
0.000473962
0.000681664
0.000919714
0.00122784
0.00148953
0.00156931
0.00182063
0.00235668
0.00212116
0.00183101
0.00283385
0.00391163
0.00375794
0.00348442
0.0037566
0.00487339
0.00633217
0.00728675
0.00772165
0.00836619
0.0092276
0.0100705
0.011204
0.0115963
0.0112945
0.0100371
0.009332
0.00871594
0.00805675
0.00772973
0.00749595
0.00621503
0.00402713
0.00240184
0.00135582
0.000740146
0.000398038
0.000214332
0.00011723
6.59422e-05
3.83941e-05
2.31268e-05
1.43314e-05
9.06747e-06
5.8183e-06
3.76869e-06
2.45739e-06
1.61037e-06
1.05939e-06
6.99136e-07
4.62646e-07
3.06889e-07
2.04009e-07
1.3588e-07
9.06602e-08
6.05833e-08
4.05412e-08
2.71634e-08
1.82206e-08
1.22344e-08
8.22253e-09
5.53088e-09
3.72322e-09
2.50817e-09
1.69078e-09
1.1405e-09
7.69788e-10
5.19883e-10
3.51314e-10
2.37542e-10
1.60709e-10
1.08795e-10
7.3697e-11
4.99557e-11
3.38871e-11
2.30052e-11
1.56316e-11
1.06318e-11
7.23936e-12
4.93569e-12
3.37005e-12
2.30497e-12
1.57963e-12
1.08507e-12
7.474e-13
5.16484e-13
3.58284e-13
2.49671e-13
1.74931e-13
1.23352e-13
8.76362e-14
6.28262e-14
4.55262e-14
3.33869e-14
2.48423e-14
1.88173e-14
1.45069e-14
1.14252e-14
9.26021e-15
7.67239e-15
6.5372e-15
5.81402e-15
5.27057e-15
4.94338e-15
4.91442e-15
4.97201e-15
5.17649e-15
5.51131e-15
6.25067e-15
6.96861e-15
8.52949e-15
9.90788e-15
1.28514e-14
1.54445e-14
2.10228e-14
2.59826e-14
3.66641e-14
4.63485e-14
6.7264e-14
8.6497e-14
1.28135e-13
1.66947e-13
2.51072e-13
3.30336e-13
5.02282e-13
6.65916e-13
1.02087e-12
1.3622e-12
2.10114e-12
2.82214e-12
4.35746e-12
6.00787e-12
8.59757e-12
1.37921e-11
1.84801e-11
2.82607e-11
4.45076e-11
6.36123e-11
1.27956e-10
2.42395e-10
9.46727e-10
3.56463e-09
2.93414e-08
1.52869e-07
1.22623e-06
5.30168e-06
2.95788e-05
7.70564e-05
0.000311965
0.00038937
0.00087919
0.000891387
0.00175256
0.00188094
0.00412719
0.00438331
0.00429794
0.00582644
0.00609978
0.0078624
0.00807104
0.00941803
0.0110801
0.0145124
0.0148146
0.0181499
0.0195475
0.024233
0.0262015
0.0329414
0.0369335
0.0473785
0.0556309
0.0763163
0.0857358
0.116735
0.127664
0.166034
0.169605
0.183715
0.17929
0.167773
0.162015
0.131806
0.125509
0.114326
0.0927075
0.0830112
0.000175181
0.000175384
0.0001791
0.000169755
0.000166701
0.000150412
0.000158073
0.000206106
0.000269955
0.000419738
0.000386093
0.00078417
0.000905484
0.000971085
0.00105736
0.00111241
0.00133306
0.0014696
0.00154204
0.00231288
0.00237732
0.00187611
0.00213262
0.00312227
0.00302479
0.00281067
0.00321978
0.00600923
0.0066799
0.00628673
0.00613772
0.00665354
0.0100847
0.0110899
0.0106159
0.00969352
0.0095409
0.00975899
0.00990043
0.00971655
0.00848419
0.00659802
0.00506171
0.00381313
0.0027736
0.00188542
0.0011845
0.000696852
0.000392801
0.000217447
0.00012085
6.84747e-05
3.98857e-05
2.39299e-05
1.47436e-05
9.27811e-06
5.93021e-06
3.83136e-06
2.49347e-06
1.63138e-06
1.07179e-06
7.06555e-07
4.67134e-07
3.09622e-07
2.0568e-07
1.36903e-07
9.12861e-08
6.09662e-08
4.07751e-08
2.73061e-08
1.83075e-08
1.22873e-08
8.25468e-09
5.55039e-09
3.73506e-09
2.51534e-09
1.69511e-09
1.14311e-09
7.71348e-10
5.2081e-10
3.51859e-10
2.37857e-10
1.60888e-10
1.08892e-10
7.37471e-11
4.99788e-11
3.38952e-11
2.30055e-11
1.56278e-11
1.06264e-11
7.23337e-12
4.92986e-12
3.36468e-12
2.30018e-12
1.57547e-12
1.0815e-12
7.44357e-13
5.1391e-13
3.56113e-13
2.47846e-13
1.73396e-13
1.22062e-13
8.65493e-14
6.1909e-14
4.47496e-14
3.27257e-14
2.42758e-14
1.83279e-14
1.40804e-14
1.10496e-14
8.92344e-15
7.36681e-15
6.25792e-15
5.55264e-15
5.02276e-15
4.70622e-15
4.67926e-15
4.73609e-15
4.90857e-15
5.35543e-15
5.85695e-15
6.94022e-15
7.92008e-15
1.00267e-14
1.18877e-14
1.5885e-14
1.9425e-14
2.70405e-14
3.38891e-14
4.86757e-14
6.21835e-14
9.1411e-14
1.18482e-13
1.77167e-13
2.32123e-13
3.51423e-13
4.64158e-13
7.09218e-13
9.4243e-13
1.45084e-12
1.9365e-12
3.00563e-12
4.01862e-12
6.32779e-12
8.40639e-12
1.37357e-11
1.77342e-11
3.19898e-11
3.86143e-11
9.0468e-11
1.0911e-10
4.39239e-10
9.35421e-10
6.83457e-09
2.91739e-08
2.45234e-07
1.01626e-06
5.71169e-06
1.53333e-05
6.0422e-05
7.8548e-05
0.000204524
0.00053592
0.000894558
0.00258958
0.00247226
0.00211505
0.00334593
0.00331187
0.00391446
0.00438403
0.00510899
0.00671848
0.0078632
0.00723936
0.00855152
0.00959679
0.0123668
0.0138973
0.0168374
0.0188694
0.0242506
0.0287835
0.033402
0.0393105
0.0567105
0.0629011
0.0799175
0.0848568
0.120797
0.127142
0.150185
0.145718
0.153559
0.154825
0.152268
0.147218
0.143867
0.136033
0.114029
9.90239e-05
0.000113437
0.000113215
0.000115438
0.000134382
0.000185395
0.000194544
0.000334804
0.000327134
0.00038539
0.000682993
0.000746554
0.000802212
0.00120433
0.0011746
0.00123529
0.00142521
0.00166617
0.00146055
0.00142055
0.00166728
0.00156234
0.00143333
0.00180179
0.00267342
0.00300773
0.0035722
0.00536117
0.00596898
0.0064673
0.00746958
0.00872282
0.00960069
0.00967501
0.00955584
0.00933775
0.00913878
0.00947432
0.0112269
0.0115742
0.0102567
0.00709735
0.0048534
0.0032682
0.00209328
0.0012677
0.000743554
0.0004302
0.000250031
0.000147681
8.90755e-05
5.48828e-05
3.44353e-05
2.18952e-05
1.40494e-05
9.07188e-06
5.8848e-06
3.83205e-06
2.50421e-06
1.64183e-06
1.07964e-06
7.11914e-07
4.70626e-07
3.11843e-07
2.07073e-07
1.37769e-07
9.18222e-08
6.12967e-08
4.09783e-08
2.74308e-08
1.83839e-08
1.2334e-08
8.28319e-09
5.56776e-09
3.74561e-09
2.52173e-09
1.69898e-09
1.14544e-09
7.72744e-10
5.2164e-10
3.52346e-10
2.38138e-10
1.61046e-10
1.08977e-10
7.37903e-11
4.99977e-11
3.39007e-11
2.30038e-11
1.56226e-11
1.06197e-11
7.22648e-12
4.92329e-12
3.35873e-12
2.29495e-12
1.57095e-12
1.07765e-12
7.41101e-13
5.11172e-13
3.53817e-13
2.45921e-13
1.71783e-13
1.20708e-13
8.54116e-14
6.09502e-14
4.39381e-14
3.20354e-14
2.36844e-14
1.78162e-14
1.36344e-14
1.06584e-14
8.57461e-15
7.05148e-15
5.96921e-15
5.28136e-15
4.76585e-15
4.46199e-15
4.43773e-15
4.49393e-15
4.69245e-15
5.0171e-15
5.73966e-15
6.43526e-15
7.93629e-15
9.26788e-15
1.21251e-14
1.4657e-14
1.9915e-14
2.56718e-14
3.26961e-14
4.87233e-14
6.18099e-14
8.93472e-14
1.16209e-13
1.7609e-13
2.3059e-13
3.47202e-13
4.58436e-13
7.03503e-13
9.34022e-13
1.43581e-12
1.91193e-12
2.97357e-12
3.95894e-12
6.26059e-12
8.22208e-12
1.37199e-11
1.70885e-11
3.33203e-11
3.583e-11
1.0441e-10
9.22396e-11
6.75664e-10
7.44792e-10
1.01464e-08
2.36207e-08
2.10041e-07
6.38876e-07
3.79169e-06
6.38268e-06
2.65689e-05
2.74157e-05
7.70724e-05
0.000232754
0.00077692
0.000504436
0.00129961
0.00122963
0.00203916
0.0018249
0.00238716
0.0032239
0.00442708
0.00359607
0.00541177
0.00462432
0.00576464
0.00618182
0.00774189
0.00669762
0.00985783
0.00890363
0.0126695
0.0115555
0.0179808
0.0157747
0.0273984
0.0230999
0.039936
0.0355883
0.0617887
0.0568399
0.085376
0.0852499
0.115979
0.125157
0.144715
0.146133
0.145464
0.144255
0.135229
9.60509e-05
9.27343e-05
0.000126779
0.000154457
0.000167112
0.000198861
0.000241615
0.000261628
0.000667197
0.000628461
0.000945346
0.000914348
0.00103181
0.00107912
0.00101085
0.000902938
0.000798422
0.000783834
0.000829981
0.000877662
0.000998442
0.00151033
0.00174124
0.00183165
0.00278795
0.0043292
0.00515076
0.00550414
0.00573132
0.00634515
0.0100516
0.0113368
0.0106688
0.00916023
0.00890678
0.0093096
0.00941032
0.00891238
0.00843129
0.00837673
0.00848161
0.00820784
0.00642302
0.00438064
0.00278633
0.00166654
0.000939963
0.000512071
0.000277954
0.000154602
8.95159e-05
5.40051e-05
3.36526e-05
2.14252e-05
1.38137e-05
8.96855e-06
5.84669e-06
3.82317e-06
2.50652e-06
1.64702e-06
1.08456e-06
7.15695e-07
4.73272e-07
3.13602e-07
2.08206e-07
1.38487e-07
9.22706e-08
6.15748e-08
4.11499e-08
2.75364e-08
1.84487e-08
1.23737e-08
8.30747e-09
5.58258e-09
3.75463e-09
2.52721e-09
1.70229e-09
1.14743e-09
7.73936e-10
5.22348e-10
3.52763e-10
2.38379e-10
1.61181e-10
1.0905e-10
7.38263e-11
5.00128e-11
3.39041e-11
2.30009e-11
1.56167e-11
1.06126e-11
7.21927e-12
4.91652e-12
3.35264e-12
2.28961e-12
1.56635e-12
1.07372e-12
7.37769e-13
5.08364e-13
3.5146e-13
2.43947e-13
1.70131e-13
1.19326e-13
8.42529e-14
5.99749e-14
4.31132e-14
3.13351e-14
2.30868e-14
1.73006e-14
1.31846e-14
1.02624e-14
8.22164e-15
6.73446e-15
5.6819e-15
5.01227e-15
4.50942e-15
4.21535e-15
4.19396e-15
4.24974e-15
4.44626e-15
4.76432e-15
5.47248e-15
6.15303e-15
7.62181e-15
8.92619e-15
1.17308e-14
1.42213e-14
1.94892e-14
2.48353e-14
3.2398e-14
4.793e-14
6.06396e-14
8.79866e-14
1.14984e-13
1.74492e-13
2.28008e-13
3.43243e-13
4.53865e-13
6.96964e-13
9.24097e-13
1.41768e-12
1.8937e-12
2.80291e-12
4.17653e-12
5.74852e-12
7.7427e-12
1.37982e-11
1.68343e-11
3.15691e-11
3.40427e-11
9.66036e-11
8.13021e-11
5.40576e-10
4.82661e-10
7.47773e-09
1.2526e-08
1.31626e-07
3.00622e-07
1.98376e-06
2.56189e-06
1.03555e-05
7.79143e-06
2.26703e-05
3.80949e-05
0.00036468
0.000189178
0.000540886
0.000523578
0.00084598
0.000690896
0.0011822
0.00114056
0.00212976
0.00158017
0.00288234
0.00237354
0.00371407
0.00361798
0.00487071
0.00408093
0.00591252
0.00556842
0.00728529
0.00630081
0.00988542
0.00922359
0.014883
0.0124382
0.0204274
0.0204694
0.0349782
0.0335839
0.0522818
0.0511322
0.0695033
0.078303
0.109405
0.123749
0.135164
0.139022
0.135425
8.92791e-05
0.000118367
0.000127533
0.00018775
0.000188943
0.000269176
0.000334641
0.000301335
0.00027159
0.000262923
0.000290559
0.000310195
0.000321854
0.000390622
0.000418325
0.000646132
0.000772712
0.000861894
0.00117994
0.00156783
0.00176711
0.00270657
0.00410406
0.00431707
0.00443072
0.00676235
0.00844526
0.00872836
0.00909987
0.00938725
0.0100821
0.0109222
0.0113586
0.0116538
0.012691
0.0133095
0.0127559
0.00992783
0.00852752
0.00808415
0.00708317
0.0051555
0.00363818
0.00282815
0.00235538
0.00181676
0.00122282
0.00072876
0.000402151
0.000215925
0.000117391
6.61094e-05
3.87853e-05
2.35795e-05
1.47196e-05
9.35624e-06
6.01843e-06
3.90188e-06
2.5436e-06
1.66522e-06
1.09396e-06
7.2082e-07
4.76195e-07
3.15326e-07
2.09245e-07
1.3912e-07
9.26592e-08
6.18136e-08
4.12967e-08
2.76265e-08
1.8504e-08
1.24075e-08
8.32815e-09
5.5952e-09
3.76233e-09
2.53188e-09
1.70511e-09
1.14913e-09
7.74951e-10
5.22946e-10
3.5311e-10
2.38577e-10
1.61291e-10
1.09107e-10
7.38532e-11
5.00224e-11
3.39043e-11
2.29963e-11
1.56099e-11
1.06052e-11
7.212e-12
4.90979e-12
3.34661e-12
2.28432e-12
1.5618e-12
1.06985e-12
7.34501e-13
5.05613e-13
3.4915e-13
2.42014e-13
1.68513e-13
1.17971e-13
8.31183e-14
5.90212e-14
4.2308e-14
3.06517e-14
2.25036e-14
1.68005e-14
1.27532e-14
9.88487e-15
7.88412e-15
6.43004e-15
5.4055e-15
4.75753e-15
4.27236e-15
3.98766e-15
3.96672e-15
4.02089e-15
4.18401e-15
4.6049e-15
5.07655e-15
6.09802e-15
7.02674e-15
9.02484e-15
1.07969e-14
1.46073e-14
1.80086e-14
2.53413e-14
3.19684e-14
4.63143e-14
5.94391e-14
8.79042e-14
1.14243e-13
1.71487e-13
2.24836e-13
3.40858e-13
4.49886e-13
6.86955e-13
9.1531e-13
1.33917e-12
2.01724e-12
2.65146e-12
4.04416e-12
5.73802e-12
7.88752e-12
1.2865e-11
1.60115e-11
2.89275e-11
3.40744e-11
7.57896e-11
7.83162e-11
2.9242e-10
3.52314e-10
2.20748e-09
4.71986e-09
2.79713e-08
7.28747e-08
4.04716e-07
4.57563e-07
2.47628e-06
1.54496e-06
6.18801e-06
1.0183e-05
7.77466e-05
7.30735e-05
0.00023291
0.000248332
0.000309987
0.000311937
0.000497123
0.000581646
0.00114639
0.00108141
0.00159646
0.00157044
0.00210362
0.00264818
0.00312876
0.00330711
0.00419419
0.00460293
0.00502651
0.00534812
0.00709206
0.00759242
0.00930768
0.00891066
0.0123505
0.0138358
0.0243733
0.0214429
0.027228
0.02833
0.0456145
0.0568199
0.0793796
0.0798655
0.0870577
0.0927531
0.104593
0.000112609
0.000124285
0.000127754
0.000154806
0.000176619
0.000170493
0.000185075
0.000194396
0.000345276
0.000418585
0.000661106
0.000635605
0.000792304
0.00126611
0.00157732
0.00168218
0.00189693
0.0025623
0.00308351
0.0042391
0.00542505
0.00601871
0.00803963
0.0101798
0.0112852
0.0137364
0.0147768
0.0150848
0.0174862
0.0219057
0.0212549
0.0174927