/*--------------------------------*- C++ -*----------------------------------*\
| =========                 |                                                 |
| \\      /  F ield         | OpenFOAM: The Open Source CFD Toolbox           |
|  \\    /   O peration     | Version:  2.4.0                                 |
|   \\  /    A nd           | Web:      www.OpenFOAM.org                      |
|    \\/     M anipulation  |                                                 |
\*---------------------------------------------------------------------------*/
FoamFile
{
    version     2.0;
    format      ascii;
    class       volScalarField;
    location    "0.02";
    object      k_0;
}
// * * * * * * * * * * * * * * * * * * * * * * * * * * * * * * * * * * * * * //

dimensions      [0 2 -2 0 0 0 0];

internalField   nonuniform List<scalar> 
8800
(
8.10439
10.2857
8.7515
6.87681
5.65193
5.05669
4.40304
4.2182
3.82757
3.66074
3.59169
3.38652
3.41008
3.29775
3.3412
3.29679
3.33305
3.32217
3.38723
3.10611
1.39538
4.37563
5.2906
5.2919
5.07731
4.91274
4.48551
4.35079
4.09132
3.82805
3.80055
3.58295
3.5566
3.49877
3.45971
3.43255
3.45591
3.44388
3.42716
3.47938
0.0839833
0.74438
1.55858
1.94715
2.20017
2.5102
2.57296
2.61805
2.62546
2.57703
2.58182
2.5337
2.49273
2.45473
2.39
2.37949
2.37281
2.34044
2.34547
2.33607
0.00332137
0.0710741
0.270622
0.417639
0.54505
0.693547
0.878776
0.937221
1.02801
1.10768
1.13781
1.21469
1.23555
1.23343
1.21353
1.21845
1.20866
1.16654
1.16357
1.15076
0.000120932
0.00507685
0.0289071
0.0551012
0.0759939
0.102374
0.184062
0.212336
0.257016
0.298707
0.309839
0.355953
0.386116
0.385694
0.383429
0.386805
0.380814
0.3546
0.345781
0.332296
2.57087e-05
0.000326569
0.00227895
0.00481586
0.00629684
0.00873963
0.0212811
0.0274968
0.0404353
0.0501729
0.0520643
0.0644356
0.073264
0.0721788
0.0713245
0.0708545
0.0681072
0.060077
0.0525589
0.0463565
2.18968e-05
4.54305e-05
0.000194709
0.000374364
0.000438865
0.000544292
0.00158307
0.00220146
0.00371195
0.00526216
0.00527977
0.00671586
0.00773691
0.00734931
0.00717581
0.00702004
0.00653339
0.00526711
0.0038885
0.00278112
2.10595e-05
2.93902e-05
6.19648e-05
8.5697e-05
8.86575e-05
8.89069e-05
0.000149345
0.00019345
0.000299529
0.00044069
0.000415214
0.000503252
0.000543923
0.000492792
0.000474331
0.000460237
0.000428433
0.000345353
0.000256344
0.000202048
2.06618e-05
2.76829e-05
4.95836e-05
6.58514e-05
6.5082e-05
6.21239e-05
6.90565e-05
7.81098e-05
9.0075e-05
0.00010254
9.89845e-05
0.000100504
0.000100817
9.60155e-05
9.46224e-05
9.70923e-05
9.84444e-05
9.77228e-05
9.60537e-05
9.68763e-05
2.05741e-05
2.66574e-05
4.76629e-05
6.03908e-05
5.95128e-05
5.71984e-05
6.135e-05
6.86625e-05
7.5471e-05
7.8882e-05
7.875e-05
7.72101e-05
7.28447e-05
7.01496e-05
6.96311e-05
7.12967e-05
7.78635e-05
8.17294e-05
8.31218e-05
8.97036e-05
2.05645e-05
2.69128e-05
4.69574e-05
6.05693e-05
5.93057e-05
5.69186e-05
6.20926e-05
6.82844e-05
7.57182e-05
7.84773e-05
7.84481e-05
7.73611e-05
7.21384e-05
6.9828e-05
6.96108e-05
7.09727e-05
7.72459e-05
8.15177e-05
8.28995e-05
8.55847e-05
2.0786e-05
2.7405e-05
4.94757e-05
6.58726e-05
6.46142e-05
6.24834e-05
6.86656e-05
7.54515e-05
9.45555e-05
9.6347e-05
9.9907e-05
0.000101441
9.58446e-05
9.90972e-05
9.83293e-05
9.74414e-05
0.000102621
0.000107069
0.000106814
0.000108693
2.11595e-05
2.95731e-05
5.86342e-05
8.90282e-05
8.79498e-05
9.06577e-05
0.000134385
0.000181883
0.000346686
0.000361725
0.000442186
0.000534255
0.000497466
0.000577292
0.000557968
0.000486686
0.000540628
0.000561926
0.000519071
0.000502931
2.20035e-05
4.51886e-05
0.000179462
0.00040252
0.000431624
0.000574772
0.00141542
0.00210539
0.0041043
0.0044276
0.00549199
0.00736988
0.00741536
0.00837548
0.00826579
0.00743467
0.00785975
0.00798711
0.00728051
0.00719283
2.53811e-05
0.000324928
0.00213273
0.00508393
0.00619358
0.00911713
0.0203859
0.027003
0.0421946
0.0454413
0.0540802
0.0684119
0.0707902
0.0788067
0.0785318
0.0744803
0.076688
0.0780862
0.0756473
0.0775333
0.000119538
0.00510464
0.0276457
0.0575172
0.0738229
0.107179
0.181253
0.20801
0.265616
0.281402
0.320365
0.368622
0.377985
0.405892
0.405681
0.400846
0.407595
0.420356
0.422344
0.442953
0.00331689
0.0712945
0.267847
0.425501
0.531167
0.711918
0.870273
0.930029
1.04667
1.08126
1.1685
1.22409
1.2317
1.25689
1.24827
1.24194
1.25078
1.27813
1.28565
1.33382
0.0840815
0.743209
1.56826
1.93181
2.22388
2.49306
2.57685
2.62399
2.62088
2.59162
2.58344
2.535
2.50191
2.45417
2.42029
2.39077
2.40509
2.41206
2.41914
2.45518
1.39897
4.36969
5.3032
5.27964
5.1222
4.85172
4.52436
4.34946
4.04973
3.89283
3.73748
3.5892
3.55797
3.44759
3.44068
3.39814
3.40007
3.33163
3.33075
3.25668
8.11628
10.2773
8.77267
6.83711
5.7075
4.98475
4.46812
4.17451
3.82326
3.68525
3.51383
3.40671
3.36083
3.23744
3.24021
3.16814
3.16362
2.99848
2.96279
2.66379
2.18837
1.72722
1.39702
1.14044
0.964126
0.777763
0.592996
0.53302
0.465769
0.353891
0.316388
0.309772
0.29072
0.278861
0.283682
0.353897
0.426877
0.427051
0.406865
0.380112
0.347164
0.277069
0.199951
0.128652
0.0642096
0.0315521
0.0237046
0.0225194
0.0205203
0.01817
0.0159219
0.0143777
0.0142471
0.0171259
0.0204798
0.0210893
0.0198352
0.017654
0.0162678
0.0158279
0.0146498
0.0106763
0.00694544
0.00422605
0.00243283
0.00134511
0.000727079
0.000392972
0.000216439
0.000122907
7.22385e-05
4.37825e-05
2.71853e-05
1.71897e-05
1.10161e-05
7.13042e-06
4.65054e-06
3.05128e-06
2.01165e-06
1.3315e-06
8.8422e-07
5.88811e-07
3.93007e-07
2.6283e-07
1.76064e-07
1.18107e-07
7.93237e-08
5.33306e-08
3.58868e-08
2.41673e-08
1.6286e-08
1.09814e-08
7.40864e-09
5.0007e-09
3.37692e-09
2.28137e-09
1.54189e-09
1.04252e-09
7.05175e-10
4.77186e-10
3.23048e-10
2.18798e-10
1.48262e-10
1.00519e-10
6.81899e-11
4.62885e-11
3.14442e-11
2.13777e-11
1.45474e-11
9.90987e-12
6.75903e-12
4.61652e-12
3.15838e-12
2.16499e-12
1.48745e-12
1.02473e-12
7.08212e-13
4.91322e-13
3.42382e-13
2.39857e-13
1.69089e-13
1.2008e-13
8.60078e-14
6.22335e-14
4.55694e-14
3.38078e-14
2.54797e-14
1.95657e-14
1.52999e-14
1.22318e-14
1.0059e-14
8.44836e-15
7.29584e-15
6.55655e-15
5.99458e-15
5.66407e-15
5.64033e-15
5.70342e-15
5.89259e-15
6.37972e-15
6.91924e-15
8.08251e-15
9.12531e-15
1.13636e-14
1.33221e-14
1.75203e-14
2.12063e-14
2.91221e-14
3.61986e-14
5.1447e-14
6.53511e-14
9.49295e-14
1.25369e-13
1.70411e-13
2.61553e-13
3.39091e-13
5.067e-13
6.77395e-13
1.05151e-12
1.4e-12
2.14417e-12
2.93226e-12
4.24468e-12
6.65911e-12
8.91413e-12
1.37739e-11
1.91817e-11
3.01564e-11
4.34711e-11
6.11549e-11
1.05596e-10
1.41368e-10
2.3832e-10
3.37077e-10
5.1139e-10
9.12147e-10
1.22088e-09
2.06298e-09
3.64767e-09
4.6158e-09
2.15344e-08
3.0422e-08
1.99519e-07
4.53711e-07
1.68676e-06
4.14706e-06
1.23649e-05
2.09498e-05
6.21702e-05
8.62494e-05
0.000185212
0.000208116
0.000312017
0.00032521
0.000431906
0.000441041
0.000527959
0.000542082
0.000652301
0.000642174
0.000827223
0.000831398
0.0010201
0.00103075
0.0011331
0.00159576
0.00151624
0.00163129
0.00155881
0.00188718
0.00170973
0.00217721
0.00229955
0.00280032
0.00309516
0.00422788
0.00751623
0.0139631
0.0691701
0.969777
2.97705
2.4404
2.0574
1.80653
1.63047
1.49118
1.29548
1.16569
1.11831
0.989857
0.825555
0.751329
0.660505
0.610075
0.586794
0.561455
0.52416
0.448074
0.392597
0.343349
0.227779
0.126006
0.0772901
0.0461565
0.0253915
0.0157519
0.0123077
0.011991
0.0143888
0.0176737
0.0179335
0.0163492
0.0141588
0.0129178
0.0131746
0.0161032
0.0176074
0.0172716
0.0149581
0.0128673
0.0117374
0.00974003
0.00691315
0.00440672
0.0026251
0.0014995
0.00083645
0.000461887
0.000255346
0.000142993
8.18489e-05
4.81748e-05
2.92017e-05
1.81629e-05
1.15208e-05
7.40939e-06
4.81183e-06
3.14702e-06
2.06922e-06
1.3663e-06
9.05287e-07
6.01567e-07
4.00726e-07
2.67498e-07
1.78885e-07
1.19812e-07
8.0353e-08
5.39519e-08
3.62617e-08
2.43934e-08
1.64223e-08
1.10636e-08
7.45817e-09
5.03053e-09
3.39487e-09
2.29218e-09
1.54838e-09
1.04643e-09
7.07518e-10
4.78592e-10
3.23889e-10
2.193e-10
1.48561e-10
1.00695e-10
6.82926e-11
4.63474e-11
3.14775e-11
2.13962e-11
1.45573e-11
9.91496e-12
6.76136e-12
4.61746e-12
3.15863e-12
2.16496e-12
1.4873e-12
1.02452e-12
7.07992e-13
4.91092e-13
3.4215e-13
2.3963e-13
1.68869e-13
1.19869e-13
8.58119e-14
6.20542e-14
4.54072e-14
3.36632e-14
2.5352e-14
1.94548e-14
1.52046e-14
1.21486e-14
9.98765e-15
8.38805e-15
7.24215e-15
6.50867e-15
5.95229e-15
5.62446e-15
5.60106e-15
5.66387e-15
5.85199e-15
6.33635e-15
6.87252e-15
8.02937e-15
9.06621e-15
1.12934e-14
1.32413e-14
1.74211e-14
2.10901e-14
2.89801e-14
3.60232e-14
5.12216e-14
6.50392e-14
9.49408e-14
1.22569e-13
1.82418e-13
2.38626e-13
3.60307e-13
4.76026e-13
7.24422e-13
9.8227e-13
1.38987e-12
2.18568e-12
2.88792e-12
4.44093e-12
6.05859e-12
9.6038e-12
1.29881e-11
1.97783e-11
2.895e-11
4.58053e-11
6.01196e-11
1.09795e-10
1.43548e-10
2.73221e-10
3.44619e-10
6.89632e-10
1.03797e-09
1.46073e-09
5.66246e-09
4.76535e-09
4.77807e-08
5.55048e-08
4.2221e-07
1.38918e-06
5.99724e-06
2.00546e-05
6.20874e-05
0.000134247
0.000342817
0.00041749
0.000752246
0.000867441
0.00129226
0.00145855
0.00209681
0.00211302
0.00233667
0.00228825
0.00250959
0.00225795
0.00225246
0.00199335
0.00192576
0.00152407
0.00155113
0.00145177
0.00156926
0.00156324
0.00166505
0.00187927
0.00198941
0.00199776
0.00204918
0.00238863
0.00293527
0.00426723
0.00540031
0.00906649
0.0142267
0.0782219
0.451737
2.10991
1.87943
1.57096
1.39112
1.34839
1.31652
1.1899
1.02783
0.952927
0.937704
0.911485
0.830487
0.779115
0.75485
0.692789
0.623767
0.496766
0.322206
0.203448
0.122389
0.0693258
0.0416187
0.0284469
0.0182736
0.0126531
0.011186
0.00990085
0.00865248
0.00836757
0.010778
0.016274
0.0168746
0.0150016
0.0128486
0.0118217
0.0119379
0.0143261
0.0153348
0.0148943
0.0122218
0.00936779
0.00708723
0.00520571
0.00361257
0.00233826
0.00142402
0.000829397
0.00047023
0.000264466
0.000149952
8.66219e-05
5.12242e-05
3.09873e-05
1.91304e-05
1.20279e-05
7.67921e-06
4.96013e-06
3.23127e-06
2.11832e-06
1.3954e-06
9.22694e-07
6.12031e-07
4.07031e-07
2.71301e-07
1.8118e-07
1.21197e-07
8.11896e-08
5.44571e-08
3.65667e-08
2.45776e-08
1.65335e-08
1.11308e-08
7.4987e-09
5.055e-09
3.40965e-09
2.3011e-09
1.55376e-09
1.04967e-09
7.09469e-10
4.79764e-10
3.24591e-10
2.1972e-10
1.48811e-10
1.00844e-10
6.83804e-11
4.63988e-11
3.15069e-11
2.14124e-11
1.45658e-11
9.91896e-12
6.76293e-12
4.61764e-12
3.15805e-12
2.16398e-12
1.48617e-12
1.02338e-12
7.06915e-13
4.9013e-13
3.41323e-13
2.38932e-13
1.6829e-13
1.19396e-13
8.54259e-14
6.17378e-14
4.51461e-14
3.34463e-14
2.51694e-14
1.92969e-14
1.50652e-14
1.20247e-14
9.87359e-15
8.28046e-15
7.14097e-15
6.41058e-15
5.85563e-15
5.52928e-15
5.50587e-15
5.56835e-15
5.78852e-15
6.14281e-15
6.92922e-15
7.67854e-15
9.29107e-15
1.07089e-14
1.37465e-14
1.64052e-14
2.21082e-14
2.71601e-14
3.80267e-14
4.78381e-14
6.90104e-14
8.8458e-14
1.30515e-13
1.69729e-13
2.54677e-13
3.34894e-13
5.0888e-13
6.74963e-13
1.03585e-12
1.38282e-12
2.14034e-12
2.87187e-12
4.47622e-12
6.03855e-12
9.5312e-12
1.28841e-11
2.07985e-11
2.79115e-11
4.74315e-11
6.14459e-11
1.18078e-10
1.39615e-10
3.51274e-10
3.45702e-10
1.38512e-09
1.14354e-09
8.70155e-09
9.64183e-09
5.66977e-08
1.65117e-07
5.29999e-07
1.97873e-06
5.1775e-06
1.31575e-05
2.91456e-05
3.77708e-05
6.82421e-05
8.29506e-05
0.000129521
0.000188612
0.000403348
0.000495757
0.000852015
0.000960321
0.00127903
0.00147375
0.00191393
0.00201289
0.0024858
0.00267325
0.00355898
0.00342599
0.00417291
0.00400171
0.00527957
0.00399397
0.00436426
0.003306
0.00330382
0.00293586
0.00260236
0.00287402
0.00292194
0.00323677
0.00453246
0.00618874
0.0200638
0.0185236
0.0634031
0.218473
1.06707
0.998095
0.858518
0.703508
0.638601
0.630991
0.636511
0.615158
0.492256
0.447802
0.42902
0.364383
0.321539
0.30363
0.2791
0.24819
0.163647
0.0904239
0.0479576
0.0265961
0.0194038
0.0150151
0.00926992
0.0067405
0.00751111
0.00953065
0.00943276
0.00797505
0.00775415
0.00810442
0.00987058
0.0128803
0.0139569
0.0133221
0.0120839
0.0116026
0.0123412
0.0139045
0.0139681
0.0123576
0.00910831
0.0064821
0.00444031
0.00292116
0.00185149
0.00114048
0.000688864
0.000411008
0.000243497
0.000144015
8.56562e-05
5.15549e-05
3.15274e-05
1.96034e-05
1.23694e-05
7.8996e-06
5.09488e-06
3.31192e-06
2.16636e-06
1.42406e-06
9.39867e-07
6.22352e-07
4.13247e-07
2.75049e-07
1.83442e-07
1.22562e-07
8.20129e-08
5.49538e-08
3.68664e-08
2.47584e-08
1.66426e-08
1.11965e-08
7.53835e-09
5.07889e-09
3.42404e-09
2.30976e-09
1.55897e-09
1.0528e-09
7.11348e-10
4.80889e-10
3.25263e-10
2.20119e-10
1.49046e-10
1.0098e-10
6.84573e-11
4.64408e-11
3.15285e-11
2.14223e-11
1.45691e-11
9.91888e-12
6.76119e-12
4.61525e-12
3.15559e-12
2.16171e-12
1.48418e-12
1.02169e-12
7.05492e-13
4.88942e-13
3.40328e-13
2.38094e-13
1.67579e-13
1.18791e-13
8.49068e-14
6.12888e-14
4.47564e-14
3.31063e-14
2.48708e-14
1.90335e-14
1.48317e-14
1.18159e-14
9.68527e-15
8.1097e-15
6.98523e-15
6.26566e-15
5.71907e-15
5.4007e-15
5.37915e-15
5.44177e-15
5.66154e-15
6.01265e-15
6.79286e-15
7.53775e-15
9.06233e-15
1.07985e-14
1.27506e-14
1.71976e-14
2.07711e-14
2.82557e-14
3.52206e-14
5.04542e-14
6.41218e-14
9.3534e-14
1.20952e-13
1.8033e-13
2.35879e-13
3.56221e-13
4.71412e-13
7.01477e-13
1.0151e-12
1.34204e-12
2.13388e-12
2.8799e-12
4.43328e-12
5.95545e-12
9.47903e-12
1.28102e-11
2.07423e-11
2.75596e-11
4.77514e-11
6.09563e-11
1.21832e-10
1.41312e-10
3.77334e-10
3.80568e-10
1.63205e-09
1.44758e-09
1.13318e-08
9.93316e-09
9.9121e-08
1.23235e-07
5.6317e-07
1.43977e-06
3.43203e-06
8.37195e-06
2.33942e-05
2.62286e-05
5.23556e-05
5.06245e-05
5.49131e-05
5.87057e-05
9.50379e-05
0.000119509
0.000194077
0.000223639
0.000348501
0.000496776
0.000666604
0.000806333
0.00124295
0.00146064
0.00183537
0.00206605
0.00316521
0.00322316
0.0040003
0.00437914
0.00658398
0.00828121
0.00709336
0.00620877
0.00439126
0.00393092
0.00727155
0.00570275
0.0266331
0.015624
0.0792796
0.0506133
0.0592436
0.130475
0.306795
0.291438
0.250561
0.186648
0.161676
0.161361
0.174699
0.172008
0.130643
0.10986
0.102081
0.0794459
0.0592929
0.0535177
0.0516146
0.0485619
0.0344364
0.022268
0.0120106
0.00586434
0.00527562
0.00544927
0.00443537
0.00392844
0.00555404
0.00769696
0.00734648
0.00702878
0.00799011
0.00932126
0.00921475
0.0088778
0.00935019
0.0122281
0.0131486
0.012659
0.0113745
0.0111832
0.011593
0.0115805
0.00992214
0.00711885
0.00469014
0.0029846
0.00184348
0.00110921
0.000656565
0.000386463
0.000228227
0.000136067
8.21794e-05
5.0338e-05
3.12629e-05
1.9665e-05
1.25049e-05
8.02378e-06
5.18701e-06
3.37405e-06
2.2062e-06
1.44893e-06
9.55164e-07
6.3169e-07
4.18926e-07
2.78496e-07
1.85531e-07
1.23828e-07
8.27796e-08
5.54178e-08
3.71472e-08
2.49282e-08
1.67452e-08
1.12586e-08
7.57581e-09
5.1015e-09
3.43767e-09
2.31797e-09
1.56391e-09
1.05577e-09
7.13122e-10
4.81945e-10
3.25888e-10
2.20486e-10
1.49258e-10
1.01101e-10
6.85246e-11
4.64769e-11
3.15468e-11
2.14305e-11
1.45717e-11
9.91859e-12
6.75946e-12
4.61294e-12
3.1531e-12
2.15927e-12
1.4819e-12
1.01962e-12
7.03663e-13
4.87343e-13
3.38944e-13
2.36907e-13
1.66569e-13
1.17933e-13
8.41773e-14
6.06725e-14
4.42352e-14
3.26617e-14
2.44886e-14
1.87033e-14
1.45441e-14
1.15631e-14
9.45899e-15
7.90404e-15
6.79596e-15
6.08721e-15
5.54849e-15
5.23562e-15
5.21474e-15
5.27664e-15
5.49366e-15
5.83927e-15
6.60454e-15
7.34143e-15
8.7827e-15
1.07094e-14
1.25131e-14
1.67859e-14
2.04909e-14
2.80613e-14
3.48314e-14
4.98295e-14
6.3566e-14
9.2779e-14
1.21028e-13
1.69008e-13
2.54705e-13
3.2955e-13
4.95648e-13
6.64184e-13
1.02803e-12
1.36349e-12
2.0987e-12
2.82463e-12
4.42008e-12
5.9432e-12
9.38297e-12
1.26191e-11
2.06797e-11
2.71746e-11
4.88242e-11
5.95761e-11
1.35411e-10
1.41326e-10
5.0811e-10
4.50949e-10
3.26009e-09
2.98879e-09
3.19032e-08
4.2865e-08
2.54046e-07
5.61981e-07
3.0757e-06
4.69554e-06
4.04662e-05
3.47742e-05
0.00035593
0.000241125
0.000940736
0.000985325
0.00076487
0.0023728
0.00191325
0.00227529
0.00239231
0.00268737
0.00227723
0.00383426
0.00299378
0.00370326
0.00337006
0.00452239
0.00381653
0.00469284
0.00458913
0.00524113
0.00592942
0.00579724
0.00841925
0.00939288
0.0151433
0.01424
0.0269314
0.0209326
0.0466165
0.0261991
0.0536958
0.0326545
0.0526013
0.0555188
0.0586255
0.0877852
0.0403282
0.037522
0.0277685
0.0212182
0.0191432
0.0189382
0.0202015
0.019399
0.0137239
0.0108095
0.00932755
0.00760931
0.00596559
0.00536466
0.0057017
0.00569793
0.00529935
0.00432276
0.00335392
0.0024362
0.00198648
0.00236089
0.00325809
0.00357303
0.00531603
0.0057312
0.00515911
0.00523193
0.00777632
0.0103879
0.0100857
0.00888549
0.00870338
0.00995054
0.0128252
0.0130259
0.0114795
0.00984612
0.0094114
0.00964222
0.00999879
0.00948847
0.00713898
0.00467379
0.00282779
0.00162103
0.00089735
0.00048886
0.000267345
0.000149489
8.6353e-05
5.15703e-05
3.16731e-05
1.98597e-05
1.26337e-05
8.11897e-06
5.25634e-06
3.42235e-06
2.23849e-06
1.46984e-06
9.68404e-07
6.39946e-07
4.24022e-07
2.81622e-07
1.8744e-07
1.2499e-07
8.34865e-08
5.58471e-08
3.74076e-08
2.50861e-08
1.68409e-08
1.13165e-08
7.61085e-09
5.12268e-09
3.45046e-09
2.32568e-09
1.56855e-09
1.05854e-09
7.14781e-10
4.82931e-10
3.2647e-10
2.20825e-10
1.49454e-10
1.01212e-10
6.85865e-11
4.65096e-11
3.15623e-11
2.14363e-11
1.45723e-11
9.91633e-12
6.75594e-12
4.60898e-12
3.14918e-12
2.15564e-12
1.47866e-12
1.01681e-12
7.0126e-13
4.85309e-13
3.37237e-13
2.35478e-13
1.65375e-13
1.16934e-13
8.33388e-14
5.99667e-14
4.36368e-14
3.21499e-14
2.40475e-14
1.8319e-14
1.42061e-14
1.12629e-14
9.18789e-15
7.65705e-15
6.56833e-15
5.87347e-15
5.3447e-15
5.04096e-15
5.02185e-15
5.08349e-15
5.29831e-15
5.64219e-15
6.32689e-15
7.32486e-15
8.2731e-15
1.04897e-14
1.241e-14
1.63799e-14
1.99137e-14
2.76455e-14
3.4514e-14
4.92485e-14
6.27363e-14
9.20066e-14
1.18986e-13
1.77472e-13
2.32389e-13
3.51354e-13
4.64064e-13
7.08918e-13
9.43204e-13
1.45152e-12
1.94282e-12
3.00867e-12
4.05636e-12
6.2908e-12
8.67856e-12
1.25724e-11
2.05473e-11
2.64004e-11
4.86338e-11
5.89197e-11
1.5236e-10
1.53028e-10
9.24586e-10
9.44329e-10
1.50671e-08
2.18337e-08
4.31613e-07
6.82697e-07
1.18746e-05
1.34902e-05
0.00015146
0.000122757
0.000705105
0.000620789
0.00175314
0.001695
0.00387033
0.00419963
0.00781245
0.00761347
0.00930574
0.00916305
0.0123568
0.0122824
0.0174089
0.0165766
0.023946
0.0212073
0.0354478
0.0307251
0.0574909
0.0460473
0.0944068
0.0734744
0.167455
0.117533
0.267436
0.185637
0.318158
0.207414
0.285369
0.195424
0.221888
0.144056
0.136175
0.0844684
0.0818653
0.0713687
0.0650654
0.0733405
0.00206474
0.00175195
0.00148813
0.00120952
0.00105899
0.000983497
0.000904601
0.000736809
0.000555221
0.000453872
0.000457706
0.000472758
0.00045103
0.000782244
0.000969418
0.00132308
0.00151655
0.00158298
0.00194886
0.0022436
0.00193863
0.00181823
0.00322102
0.00388613
0.00365041
0.00346466
0.00400048
0.00503266
0.00656848
0.00755472
0.00793933
0.00854193
0.00927606
0.0102182
0.011386
0.0116662
0.0111231
0.00985234
0.00920247
0.00857216
0.00796856
0.00772579
0.0074161
0.0057794
0.00365514
0.00215027
0.00120349
0.000654035
0.000351373
0.000189552
0.000104184
5.90242e-05
3.46392e-05
2.10172e-05
1.30986e-05
8.32091e-06
5.35378e-06
3.47433e-06
2.2686e-06
1.48822e-06
9.7986e-07
6.47108e-07
4.28482e-07
2.84383e-07
1.89142e-07
1.26034e-07
8.41247e-08
5.62365e-08
3.76448e-08
2.52303e-08
1.69285e-08
1.13696e-08
7.64308e-09
5.14219e-09
3.46225e-09
2.33279e-09
1.57283e-09
1.06111e-09
7.1632e-10
4.83848e-10
3.27013e-10
2.21144e-10
1.49638e-10
1.01315e-10
6.86414e-11
4.65364e-11
3.15731e-11
2.14383e-11
1.45698e-11
9.91187e-12
6.7508e-12
4.60387e-12
3.14447e-12
2.15144e-12
1.47502e-12
1.01369e-12
6.98612e-13
4.83077e-13
3.35358e-13
2.33899e-13
1.64047e-13
1.15814e-13
8.23938e-14
5.91636e-14
4.29507e-14
3.15629e-14
2.3543e-14
1.78808e-14
1.38223e-14
1.09234e-14
8.88381e-15
7.3813e-15
6.3159e-15
5.63637e-15
5.1191e-15
4.82464e-15
4.80711e-15
4.86804e-15
5.08002e-15
5.41295e-15
6.14757e-15
6.85839e-15
8.40219e-15
9.75912e-15
1.26579e-14
1.52124e-14
2.07038e-14
2.55824e-14
3.60942e-14
4.56219e-14
6.61954e-14
8.5112e-14
1.2607e-13
1.6424e-13
2.46978e-13
3.24922e-13
4.94026e-13
6.54907e-13
1.00397e-12
1.33942e-12
2.06602e-12
2.77379e-12
4.28886e-12
5.87146e-12
8.53159e-12
1.34768e-11
1.80125e-11
2.79213e-11
4.29082e-11
6.10229e-11
1.19382e-10
2.1259e-10
7.48365e-10
2.62989e-09
2.08737e-08
1.07798e-07
8.87699e-07
3.97189e-06
2.32292e-05
6.36978e-05
0.000268208
0.000353935
0.000855879
0.000860103
0.00161574
0.00173752
0.00397962
0.00421633
0.00429627
0.00588539
0.00600933
0.00774833
0.00783276
0.00930544
0.0112593
0.0143614
0.0145138
0.0179579
0.019359
0.0242194
0.0261478
0.0327757
0.0366666
0.0470468
0.0553792
0.075854
0.0845455
0.115613
0.127257
0.165423
0.169116
0.183539
0.17859
0.166427
0.160513
0.130861
0.12538
0.114967
0.0939624
0.0831107
0.000170914
0.000174397
0.000168847
0.000165823
0.000159021
0.00014427
0.000163421
0.000192337
0.000303916
0.000385504
0.00040225
0.000863696
0.000876443
0.000968661
0.0010364
0.00112349
0.00137038
0.00147095
0.00165069
0.00237118
0.00222804
0.00179232
0.00241888
0.00318047
0.00296581
0.00277427
0.00362902
0.00631604
0.00656235
0.00615679
0.00609488
0.00704269
0.0105257
0.0110471
0.0104287
0.00962089
0.00954354
0.00977525
0.0098369
0.00955223
0.00805321
0.00625236
0.00478919
0.00360011
0.00259707
0.00173917
0.00107629
0.000625887
0.000350421
0.00019366
0.000107888
6.14337e-05
3.60067e-05
2.17358e-05
1.34624e-05
8.50659e-06
5.4532e-06
3.53041e-06
2.30094e-06
1.50709e-06
9.91023e-07
6.53806e-07
4.32542e-07
2.8686e-07
1.90657e-07
1.26962e-07
8.46926e-08
5.65838e-08
3.78569e-08
2.53597e-08
1.70073e-08
1.14176e-08
7.67222e-09
5.15988e-09
3.47298e-09
2.33929e-09
1.57675e-09
1.06347e-09
7.17731e-10
4.84686e-10
3.27504e-10
2.21427e-10
1.49798e-10
1.01402e-10
6.86853e-11
4.65561e-11
3.15795e-11
2.14377e-11
1.45658e-11
9.90637e-12
6.74492e-12
4.59821e-12
3.13928e-12
2.14684e-12
1.47102e-12
1.01026e-12
6.95699e-13
4.80614e-13
3.33282e-13
2.32153e-13
1.62579e-13
1.14579e-13
8.13534e-14
5.82851e-14
4.22062e-14
3.09284e-14
2.29987e-14
1.74099e-14
1.34114e-14
1.05608e-14
8.55801e-15
7.08537e-15
6.04494e-15
5.38218e-15
4.87793e-15
4.59334e-15
4.57729e-15
4.6376e-15
4.81468e-15
5.26585e-15
5.76202e-15
6.83262e-15
7.79941e-15
9.87802e-15
1.17116e-14
1.5649e-14
1.91331e-14
2.66284e-14
3.33674e-14
4.79172e-14
6.12057e-14
8.99604e-14
1.1659e-13
1.74321e-13
2.2838e-13
3.45736e-13
4.56625e-13
6.97664e-13
9.27055e-13
1.42694e-12
1.90469e-12
2.95459e-12
3.95197e-12
6.21089e-12
8.26565e-12
1.34265e-11
1.74243e-11
3.09261e-11
3.76738e-11
8.46566e-11
1.00507e-10
3.788e-10
7.29317e-10
5.02684e-09
2.08176e-08
1.78312e-07
7.56267e-07
4.47773e-06
1.26849e-05
5.14469e-05
6.91899e-05
0.000192667
0.000443418
0.000794332
0.00252259
0.00235247
0.00209652
0.00336915
0.00331205
0.00385986
0.00424698
0.00500814
0.00678472
0.00776486
0.0071196
0.00858136
0.00970372
0.0121267
0.0136422
0.0166851
0.0188051
0.024223
0.028136
0.0329285
0.0393997
0.0567491
0.0618085
0.078308
0.0845089
0.121328
0.125918
0.147196
0.143611
0.152039
0.154393
0.152127
0.146819
0.143605
0.136015
0.11418
0.000100904
0.000112688
0.00010937
0.000118987
0.00014315
0.000179102
0.000203239
0.000340476
0.000302583
0.000469487
0.000703004
0.000708719
0.00088888
0.00115063
0.00117516
0.00123432
0.0015486
0.00168132
0.00142319
0.00148637
0.00164999
0.00148795
0.00140924
0.00202961
0.00274111
0.00298874
0.0038316
0.00557656
0.00607286
0.00659173
0.00750714
0.00876553
0.00962244
0.00966281
0.00951544
0.00926689
0.00911356
0.00972451
0.0113741
0.0114554
0.00962548
0.00657914
0.00449281
0.00300217
0.00189924
0.00114121
0.000666462
0.000385549
0.000224751
0.000133357
8.08439e-05
5.00528e-05
3.1523e-05
2.00967e-05
1.2919e-05
8.35287e-06
5.42396e-06
3.53521e-06
2.31221e-06
1.51713e-06
9.98354e-07
6.58743e-07
4.35739e-07
2.88885e-07
1.91924e-07
1.27749e-07
8.51797e-08
5.6884e-08
3.80414e-08
2.54729e-08
1.70767e-08
1.146e-08
7.69809e-09
5.17563e-09
3.48254e-09
2.34508e-09
1.58026e-09
1.06558e-09
7.18994e-10
4.85434e-10
3.27943e-10
2.21679e-10
1.49939e-10
1.01477e-10
6.8723e-11
4.6572e-11
3.15834e-11
2.14353e-11
1.45604e-11
9.89978e-12
6.73817e-12
4.59184e-12
3.13354e-12
2.14181e-12
1.46669e-12
1.00658e-12
6.92586e-13
4.77997e-13
3.31087e-13
2.30313e-13
1.61037e-13
1.13284e-13
8.02644e-14
5.73666e-14
4.14282e-14
3.0266e-14
2.24305e-14
1.69175e-14
1.29818e-14
1.01833e-14
8.22066e-15
6.77997e-15
5.76469e-15
5.11833e-15
4.62805e-15
4.35525e-15
4.34121e-15
4.40083e-15
4.60674e-15
4.93001e-15
5.64901e-15
6.33681e-15
7.8192e-15
9.13147e-15
1.19476e-14
1.4439e-14
1.96643e-14
2.51319e-14
3.23697e-14
4.80114e-14
6.07184e-14
8.78177e-14
1.14452e-13
1.73485e-13
2.26845e-13
3.41378e-13
4.51116e-13
6.92522e-13
9.19045e-13
1.41208e-12
1.88116e-12
2.9242e-12
3.89578e-12
6.14334e-12
8.09313e-12
1.33869e-11
1.68344e-11
3.1957e-11
3.51283e-11
9.61932e-11
8.64011e-11
5.57296e-10
5.74348e-10
7.88766e-09
1.69852e-08
1.58699e-07
4.90967e-07
2.99172e-06
5.52516e-06
2.41783e-05
2.38502e-05
6.37878e-05
0.00019786
0.00070329
0.000488415
0.00125858
0.00115773
0.0020596
0.00179262
0.002309
0.00310875
0.00435178
0.00361436
0.0054176
0.00456679
0.00581121
0.00617073
0.00753806
0.00666586
0.00989728
0.00887381
0.0125148
0.0114211
0.0179519
0.0157179
0.0271165
0.0228654
0.0394494
0.035323
0.0613574
0.0561725
0.0846931
0.0848608
0.115913
0.125011
0.143768
0.145376
0.144864
0.14371
0.13437
9.28631e-05
9.31903e-05
0.000131034
0.000152516
0.000166653
0.000205117
0.000214278
0.000344692
0.000629477
0.000624363
0.000963671
0.000872864
0.00106937
0.0010589
0.000978815
0.000852384
0.000770986
0.000770768
0.00082319
0.000868582
0.00107328
0.00152396
0.00166507
0.00182837
0.00316704
0.00443458
0.00506771
0.00543767
0.00572499
0.0067548
0.0105524
0.0111994
0.0102561
0.00895081
0.00883944
0.00928974
0.0092907
0.00872315
0.00838125
0.00839824
0.00850348
0.00797286
0.00592394
0.00398278
0.00249943
0.00147573
0.000825096
0.00044856
0.000244675
0.000137428
8.04649e-05
4.90091e-05
3.07486e-05
1.96613e-05
1.27089e-05
8.2638e-06
5.39282e-06
3.52932e-06
2.31545e-06
1.52239e-06
1.00307e-06
6.62283e-07
4.38184e-07
2.905e-07
1.92961e-07
1.28403e-07
8.55875e-08
5.71367e-08
3.81973e-08
2.55688e-08
1.71355e-08
1.1496e-08
7.72011e-09
5.18907e-09
3.49072e-09
2.35004e-09
1.58325e-09
1.06738e-09
7.20071e-10
4.86074e-10
3.28318e-10
2.21896e-10
1.5006e-10
1.01542e-10
6.87543e-11
4.65846e-11
3.15855e-11
2.14318e-11
1.45542e-11
9.89273e-12
6.73114e-12
4.58529e-12
3.12767e-12
2.13668e-12
1.46228e-12
1.00282e-12
6.89398e-13
4.75312e-13
3.28835e-13
2.28426e-13
1.59457e-13
1.11962e-13
7.91558e-14
5.64328e-14
4.06377e-14
2.95942e-14
2.18564e-14
1.64213e-14
1.25483e-14
9.80107e-15
7.87941e-15
6.47315e-15
5.48592e-15
4.85644e-15
4.37829e-15
4.11474e-15
4.10301e-15
4.16224e-15
4.36592e-15
4.68255e-15
5.38717e-15
6.05997e-15
7.51018e-15
8.79581e-15
1.15608e-14
1.40128e-14
1.92308e-14
2.43444e-14
3.21602e-14
4.71126e-14
5.95194e-14
8.65884e-14
1.13366e-13
1.71814e-13
2.242e-13
3.37665e-13
4.46862e-13
6.86133e-13
9.09338e-13
1.39507e-12
1.86241e-12
2.77421e-12
4.10508e-12
5.58357e-12
7.70137e-12
1.35069e-11
1.65145e-11
3.03197e-11
3.35851e-11
8.97643e-11
7.75429e-11
4.52644e-10
3.87184e-10
5.83994e-09
9.12499e-09
1.02264e-07
2.32656e-07
1.5985e-06
2.24253e-06
9.70857e-06
7.17722e-06
1.91502e-05
3.32203e-05
0.000312886
0.000163649
0.000536332
0.000505325
0.000830023
0.000681
0.00112192
0.00110613
0.00210348
0.00153063
0.00286488
0.00233029
0.00358002
0.00361899
0.00483127
0.00403869
0.00591014
0.00554886
0.00719239
0.00626141
0.00988955
0.00917735
0.0146515
0.0122273
0.0203309
0.0203955
0.0351128
0.0331648
0.0509487
0.0501911
0.0694319
0.0789399
0.109979
0.122466
0.133942
0.137544
0.13402
9.03544e-05
0.000111806
0.000131681
0.000181114
0.000189818
0.000301454
0.000327271
0.000279725
0.000258047
0.000257937
0.000289378
0.000302586
0.000315364
0.000380577
0.000423576
0.000669911
0.000771816
0.000859432
0.00121419
0.00154677
0.00172662
0.00297274
0.00400484
0.00410705
0.0043579
0.0072231
0.00836454
0.00854103
0.00885352
0.00917762
0.0101497
0.0109711
0.0113427
0.0116309
0.0127482
0.0131515
0.0122671
0.00943039
0.00836549
0.00791686
0.00666261
0.0047628
0.00339768
0.00270983
0.00224781
0.00168912
0.00110581
0.000646032
0.000353274
0.000189842
0.000103987
5.91544e-05
3.5036e-05
2.14588e-05
1.3466e-05
8.58955e-06
5.53821e-06
3.59631e-06
2.34723e-06
1.53815e-06
1.01131e-06
6.66824e-07
4.40799e-07
2.92051e-07
1.93899e-07
1.28977e-07
8.59398e-08
5.73533e-08
3.83304e-08
2.56505e-08
1.71856e-08
1.15267e-08
7.73886e-09
5.20051e-09
3.49769e-09
2.35428e-09
1.58581e-09
1.06892e-09
7.20987e-10
4.86613e-10
3.28631e-10
2.22073e-10
1.50157e-10
1.01592e-10
6.87773e-11
4.65921e-11
3.15847e-11
2.14269e-11
1.45475e-11
9.88546e-12
6.72407e-12
4.57878e-12
3.12187e-12
2.13161e-12
1.45792e-12
9.9911e-13
6.86271e-13
4.72682e-13
3.26626e-13
2.26578e-13
1.5791e-13
1.10667e-13
7.80697e-14
5.55191e-14
3.98656e-14
2.89382e-14
2.1296e-14
1.59403e-14
1.21326e-14
9.43636e-15
7.55268e-15
6.17818e-15
5.21769e-15
4.6088e-15
4.14732e-15
3.89204e-15
3.88051e-15
3.93812e-15
4.10563e-15
4.53051e-15
4.99731e-15
6.00746e-15
6.92395e-15
8.89519e-15
1.06411e-14
1.43955e-14
1.77447e-14
2.49644e-14
3.14879e-14
4.56085e-14
5.85242e-14
8.65399e-14
1.12461e-13
1.6879e-13
2.21289e-13
3.35472e-13
4.42803e-13
6.76375e-13
8.997e-13
1.32815e-12
1.97587e-12
2.59855e-12
4.01052e-12
5.61112e-12
7.87182e-12
1.25001e-11
1.57074e-11
2.82103e-11
3.35923e-11
7.15937e-11
7.48963e-11
2.60642e-10
3.00988e-10
1.81386e-09
3.63168e-09
2.20294e-08
5.82194e-08
3.23789e-07
4.03925e-07
2.20704e-06
1.36598e-06
6.05679e-06
8.68143e-06
5.98893e-05
6.2106e-05
0.000234545
0.000242972
0.000297435
0.000302265
0.000488991
0.000563358
0.00111429
0.00103295
0.00151207
0.00156312
0.00212422
0.00262831
0.0030862
0.00322715
0.00427551
0.00457394
0.00498818
0.00529482
0.00724017
0.00765153
0.00892248
0.00881072
0.0127293
0.0142159
0.0237486
0.0206281
0.0262302
0.0282068
0.0483391
0.0587498
0.0764877
0.0762207
0.0829596
0.0900091
0.104519
0.000111842
0.000124509
0.000124234
0.000161815
0.000169504
0.000164608
0.000173114
0.000214454
0.000330111
0.000455511
0.00061425
0.000606112
0.000866619
0.00131903
0.00153472
0.00163501
0.00190443
0.00255739
0.0030986
0.00427082
0.00522021
0.00587771
0.00830134
0.0100723
0.0112005
0.0136255
0.014506
0.0148601
0.0182639