/*--------------------------------*- C++ -*----------------------------------*\
| =========                 |                                                 |
| \\      /  F ield         | OpenFOAM: The Open Source CFD Toolbox           |
|  \\    /   O peration     | Version:  2.4.0                                 |
|   \\  /    A nd           | Web:      www.OpenFOAM.org                      |
|    \\/     M anipulation  |                                                 |
\*---------------------------------------------------------------------------*/
FoamFile
{
    version     2.0;
    format      ascii;
    class       volVectorField;
    location    "0.02";
    object      U_0;
}
// * * * * * * * * * * * * * * * * * * * * * * * * * * * * * * * * * * * * * //

dimensions      [0 1 -1 0 0 0 0];

internalField   nonuniform List<vector> 
8800
(
(8.08855 0.388631 0)
(5.45367 0.241342 0)
(3.90224 0.0445439 0)
(3.16953 -0.0166761 0)
(2.78459 -0.0170323 0)
(2.62172 -0.0128674 0)
(2.44876 -0.00334379 0)
(2.38882 -0.00147346 0)
(2.29787 -0.00797876 0)
(2.26114 0.00514305 0)
(2.23182 -0.00131679 0)
(2.17992 -0.000196245 0)
(2.16556 0.00777977 0)
(2.09925 -0.00259096 0)
(2.14241 -0.00285268 0)
(2.11608 0.00444154 0)
(2.11145 0.00164951 0)
(2.10554 -0.00312311 0)
(2.17901 0.0121882 0)
(1.76686 -0.0847824 0)
(10.0748 0.839013 0)
(9.67736 0.865008 0)
(8.83252 0.510975 0)
(8.13104 0.257286 0)
(7.43594 0.143199 0)
(7.09237 0.0785575 0)
(6.58734 0.0613734 0)
(6.46625 0.0442638 0)
(6.17157 0.0146606 0)
(5.99343 0.0291839 0)
(5.99674 0.0130939 0)
(5.75651 0.00586585 0)
(5.79985 0.0329954 0)
(5.66347 -0.00149157 0)
(5.71253 -0.0110353 0)
(5.65326 0.0135837 0)
(5.69435 0.00789971 0)
(5.66266 -0.030488 0)
(5.7478 0.0486196 0)
(5.53691 -0.106723 0)
(10.0381 0.633665 0)
(10.7157 0.858523 0)
(10.7876 0.608864 0)
(10.7764 0.363201 0)
(10.3355 0.261519 0)
(10.2512 0.194594 0)
(9.67008 0.168304 0)
(9.59824 0.118527 0)
(9.27765 0.0872775 0)
(8.93678 0.0740666 0)
(9.05851 0.0454765 0)
(8.64683 0.0380214 0)
(8.69672 0.0530006 0)
(8.56441 0.0064826 0)
(8.56279 -0.0107774 0)
(8.47926 0.0190939 0)
(8.56047 0.00464207 0)
(8.50751 -0.0342424 0)
(8.5536 0.0332392 0)
(8.45394 -0.0680326 0)
(9.95125 0.450341 0)
(10.673 0.710563 0)
(11.066 0.556917 0)
(11.4982 0.342365 0)
(11.3402 0.263401 0)
(11.6804 0.215547 0)
(11.3182 0.240438 0)
(11.408 0.150654 0)
(11.2874 0.154717 0)
(10.954 0.123921 0)
(11.2125 0.0711422 0)
(10.8382 0.0923245 0)
(10.8598 0.0825377 0)
(10.789 0.0185024 0)
(10.7407 -0.000479442 0)
(10.656 0.0306916 0)
(10.7508 -0.00238325 0)
(10.67 -0.0360551 0)
(10.7281 0.0132069 0)
(10.6385 -0.0269388 0)
(9.96527 0.340919 0)
(10.5144 0.5588 0)
(10.9606 0.487994 0)
(11.429 0.290313 0)
(11.4498 0.208426 0)
(11.8345 0.159386 0)
(11.7511 0.239745 0)
(11.9495 0.124289 0)
(11.9282 0.171486 0)
(11.8399 0.129481 0)
(12.1056 0.0543502 0)
(11.916 0.127802 0)
(12.0089 0.0921938 0)
(12.0278 0.0160909 0)
(11.9376 0.0161792 0)
(11.9637 0.0341056 0)
(12.0352 -0.00652238 0)
(11.9542 -0.0509572 0)
(11.9566 0.0112224 0)
(11.9264 -0.0852446 0)
(10.0125 0.238005 0)
(10.3569 0.458998 0)
(10.8492 0.394763 0)
(11.2603 0.253748 0)
(11.4346 0.172382 0)
(11.674 0.0941249 0)
(11.722 0.213455 0)
(11.9266 0.0970133 0)
(11.9205 0.139195 0)
(11.9763 0.123125 0)
(12.1771 0.0271798 0)
(12.1407 0.114762 0)
(12.2727 0.0806011 0)
(12.327 0.0145323 0)
(12.256 0.00877132 0)
(12.3515 0.022021 0)
(12.3898 -0.0086786 0)
(12.3065 -0.0471808 0)
(12.2927 -0.0198426 0)
(12.2504 -0.0897874 0)
(10.0289 0.177843 0)
(10.2642 0.329246 0)
(10.7579 0.327283 0)
(11.1229 0.191862 0)
(11.4073 0.138782 0)
(11.5548 0.0645711 0)
(11.6377 0.168264 0)
(11.8432 0.070522 0)
(11.806 0.115141 0)
(11.9055 0.0993446 0)
(12.0961 0.0026937 0)
(12.0813 0.10537 0)
(12.2285 0.0622923 0)
(12.2841 -0.0115855 0)
(12.2077 0.0132976 0)
(12.3123 0.0164939 0)
(12.3464 -0.0206815 0)
(12.2621 -0.0577987 0)
(12.247 -0.0245806 0)
(12.1414 -0.0449961 0)
(10.0306 0.108665 0)
(10.2232 0.248917 0)
(10.6729 0.220787 0)
(11.054 0.143837 0)
(11.3353 0.109913 0)
(11.4993 0.0235898 0)
(11.5843 0.136304 0)
(11.7602 0.0492271 0)
(11.7382 0.0585137 0)
(11.8339 0.100489 0)
(12.0234 -0.0137671 0)
(12.0252 0.0679154 0)
(12.1656 0.0585786 0)
(12.2104 -0.0175992 0)
(12.1306 0.00489615 0)
(12.238 0.000651926 0)
(12.2722 -0.0250624 0)
(12.1915 -0.0520354 0)
(12.1717 -0.0380269 0)
(12.1078 -0.0923333 0)
(10.0244 0.0724678 0)
(10.2037 0.129005 0)
(10.626 0.148827 0)
(10.9989 0.0740358 0)
(11.2927 0.071758 0)
(11.4651 0.0139423 0)
(11.5395 0.077184 0)
(11.7206 0.0310375 0)
(11.697 0.0309182 0)
(11.7741 0.075424 0)
(11.9889 -0.0343906 0)
(11.9946 0.0528746 0)
(12.1083 0.0418603 0)
(12.1669 -0.0422375 0)
(12.0937 0.0101051 0)
(12.1822 0.00101051 0)
(12.2142 -0.0475699 0)
(12.1506 -0.0588762 0)
(12.1398 -0.0549937 0)
(12.1147 -0.131953 0)
(10.021 0.0206785 0)
(10.1999 0.0466596 0)
(10.5942 0.0516542 0)
(10.9827 0.0129406 0)
(11.2634 0.0473793 0)
(11.446 -0.0258337 0)
(11.5314 0.0476347 0)
(11.6857 0.0137099 0)
(11.6832 -0.0213026 0)
(11.7516 0.0666342 0)
(11.9613 -0.0422148 0)
(11.9827 0.00856677 0)
(12.0866 0.041243 0)
(12.142 -0.0497087 0)
(12.0707 -0.00209544 0)
(12.1556 -0.00624007 0)
(12.1905 -0.053961 0)
(12.1281 -0.0629192 0)
(12.1253 -0.0713686 0)
(12.1038 -0.142973 0)
(10.0172 -0.0133103 0)
(10.2044 -0.0598642 0)
(10.5927 -0.0306642 0)
(10.9837 -0.0508729 0)
(11.2634 0.00323249 0)
(11.4469 -0.0313366 0)
(11.5316 -0.00628006 0)
(11.6815 -0.00836539 0)
(11.6915 -0.050085 0)
(11.7445 0.0396251 0)
(11.9583 -0.056467 0)
(11.9959 -0.0119174 0)
(12.0732 0.0301379 0)
(12.1392 -0.0725009 0)
(12.0831 -0.00138413 0)
(12.145 -0.00223549 0)
(12.1801 -0.0750256 0)
(12.1323 -0.0752664 0)
(12.127 -0.0874979 0)
(12.0015 -0.117289 0)
(10.0148 -0.0621191 0)
(10.222 -0.148223 0)
(10.6094 -0.121948 0)
(11.0154 -0.115246 0)
(11.2855 -0.0229663 0)
(11.4605 -0.0652537 0)
(11.559 -0.04119 0)
(11.6921 -0.0272769 0)
(11.7198 -0.0929576 0)
(11.7692 0.021114 0)
(11.9689 -0.0631495 0)
(12.0238 -0.048906 0)
(12.0881 0.0201134 0)
(12.1573 -0.076805 0)
(12.1107 -0.0134561 0)
(12.1592 -0.00700864 0)
(12.1979 -0.0819051 0)
(12.1509 -0.0834847 0)
(12.1193 -0.080695 0)
(12.0391 -0.0818561 0)
(10.0128 -0.108371 0)
(10.2503 -0.24945 0)
(10.6547 -0.211826 0)
(11.0698 -0.169801 0)
(11.3313 -0.0649478 0)
(11.4948 -0.0833903 0)
(11.603 -0.0865944 0)
(11.7273 -0.0559948 0)
(11.7737 -0.11779 0)
(11.815 -0.00192343 0)
(12.0007 -0.0779669 0)
(12.0763 -0.071192 0)
(12.1212 0.00651325 0)
(12.1957 -0.0920541 0)
(12.1702 -0.0194933 0)
(12.1981 -0.00333242 0)
(12.2321 -0.0934401 0)
(12.1912 -0.0936408 0)
(12.1599 -0.104368 0)
(12.1001 -0.18379 0)
(10.0095 -0.170153 0)
(10.2968 -0.346089 0)
(10.7302 -0.303265 0)
(11.1501 -0.225636 0)
(11.3964 -0.0974888 0)
(11.5466 -0.114239 0)
(11.6723 -0.126099 0)
(11.7915 -0.0838099 0)
(11.8519 -0.152127 0)
(11.892 -0.0244197 0)
(12.0567 -0.0878099 0)
(12.1456 -0.0948329 0)
(12.1822 -0.0133768 0)
(12.2587 -0.0964528 0)
(12.2527 -0.0291714 0)
(12.2636 -0.00750071 0)
(12.2951 -0.0981778 0)
(12.2571 -0.100305 0)
(12.2127 -0.105511 0)
(12.077 -0.0940731 0)
(9.99966 -0.243735 0)
(10.3694 -0.450483 0)
(10.8509 -0.394633 0)
(11.2493 -0.267417 0)
(11.4634 -0.138661 0)
(11.6378 -0.149518 0)
(11.7645 -0.162639 0)
(11.8891 -0.116915 0)
(11.9402 -0.176464 0)
(11.9848 -0.0489611 0)
(12.1279 -0.107815 0)
(12.1956 -0.112137 0)
(12.2401 -0.0345975 0)
(12.2817 -0.105604 0)
(12.2975 -0.0414556 0)
(12.2932 -0.00626304 0)
(12.3175 -0.0970804 0)
(12.2622 -0.107222 0)
(12.2064 -0.108175 0)
(12.0769 -0.160758 0)
(9.97943 -0.338169 0)
(10.4811 -0.566414 0)
(11.0115 -0.47857 0)
(11.3599 -0.303939 0)
(11.5321 -0.184377 0)
(11.7559 -0.197133 0)
(11.8095 -0.20291 0)
(11.9305 -0.147696 0)
(11.8921 -0.189428 0)
(11.9142 -0.077741 0)
(12.0091 -0.121555 0)
(11.9573 -0.120303 0)
(12.0162 -0.0566759 0)
(11.9321 -0.102203 0)
(11.9527 -0.0486119 0)
(11.898 -0.0107749 0)
(11.9284 -0.0886832 0)
(11.8029 -0.10591 0)
(11.7876 -0.0974962 0)
(11.5739 -0.155673 0)
(9.96755 -0.45158 0)
(10.6342 -0.709852 0)
(11.138 -0.554931 0)
(11.3909 -0.348872 0)
(11.4718 -0.246968 0)
(11.5517 -0.24102 0)
(11.4012 -0.219422 0)
(11.4065 -0.160328 0)
(11.1807 -0.172117 0)
(11.1095 -0.0888989 0)
(11.0614 -0.110572 0)
(10.8594 -0.102027 0)
(10.8932 -0.053653 0)
(10.6685 -0.0753357 0)
(10.6937 -0.0401004 0)
(10.5783 -0.00836827 0)
(10.6209 -0.0704042 0)
(10.4039 -0.0912774 0)
(10.4344 -0.0867375 0)
(10.1267 -0.161741 0)
(10.054 -0.630687 0)
(10.6898 -0.864921 0)
(10.8355 -0.603516 0)
(10.7001 -0.369553 0)
(10.4337 -0.25257 0)
(10.1432 -0.204877 0)
(9.75369 -0.165145 0)
(9.56974 -0.11296 0)
(9.2039 -0.105429 0)
(9.06606 -0.0549078 0)
(8.90347 -0.0588462 0)
(8.69006 -0.0578874 0)
(8.68863 -0.0284045 0)
(8.45549 -0.0388399 0)
(8.49582 -0.0251275 0)
(8.36927 -0.00347611 0)
(8.42027 -0.0488044 0)
(8.16558 -0.0642442 0)
(8.22487 -0.0712808 0)
(7.84212 -0.11997 0)
(10.0825 -0.838255 0)
(9.66741 -0.867607 0)
(8.85493 -0.507794 0)
(8.09235 -0.261404 0)
(7.48836 -0.137242 0)
(7.03044 -0.0840686 0)
(6.63892 -0.0625491 0)
(6.43479 -0.0351488 0)
(6.14599 -0.0316236 0)
(6.04589 -0.0147237 0)
(5.909 -0.0166587 0)
(5.7816 -0.0268521 0)
(5.75607 -0.0102776 0)
(5.60688 -0.0170711 0)
(5.62636 -0.0148137 0)
(5.53175 -0.00127673 0)
(5.56386 -0.0247972 0)
(5.34574 -0.0361567 0)
(5.38933 -0.0463076 0)
(4.98411 -0.06674 0)
(8.09125 -0.388062 0)
(5.45162 -0.242395 0)
(3.90794 -0.0432845 0)
(3.15849 0.0152686 0)
(2.79907 0.0188749 0)
(2.60512 0.0111972 0)
(2.45974 0.00287113 0)
(2.38105 0.00539322 0)
(2.2896 0.00122935 0)
(2.263 0.000929819 0)
(2.21743 -0.000355091 0)
(2.16698 -0.00582767 0)
(2.13588 0.000759647 0)
(2.08487 -0.00287489 0)
(2.07108 -0.00276741 0)
(2.03368 0.00129004 0)
(2.03312 -0.00323703 0)
(1.93118 -0.00733004 0)
(1.89889 -0.00866779 0)
(1.67336 0.0115033 0)
(2.52884 -0.185356 0)
(2.57805 0.0318733 0)
(2.7665 0.0619943 0)
(3.0147 0.133252 0)
(3.3813 0.205284 0)
(3.64123 0.388861 0)
(4.06672 0.644125 0)
(4.73061 0.382587 0)
(5.26766 0.041174 0)
(5.80612 0.657117 0)
(6.67051 1.2314 0)
(7.79206 0.519538 0)
(8.39929 -0.0417665 0)
(8.80758 0.181574 0)
(9.42883 -0.297707 0)
(9.52763 -1.35653 0)
(9.43628 -2.17694 0)
(9.81219 -3.19692 0)
(9.68832 -3.97302 0)
(9.17454 -3.9448 0)
(9.70372 -4.03724 0)
(10.7277 -4.7462 0)
(10.7792 -5.33841 0)
(9.98465 -5.46231 0)
(9.16609 -5.26542 0)
(8.5604 -4.82758 0)
(7.95733 -4.31682 0)
(7.33331 -3.96312 0)
(6.76644 -3.79521 0)
(6.27018 -3.5966 0)
(6.03055 -3.17849 0)
(6.10525 -2.61897 0)
(6.23616 -2.16273 0)
(6.19445 -1.96203 0)
(6.00555 -1.95697 0)
(5.83912 -1.96567 0)
(5.80346 -1.85322 0)
(5.85523 -1.62522 0)
(5.88114 -1.3776 0)
(5.82459 -1.18443 0)
(5.70987 -1.05365 0)
(5.58731 -0.958463 0)
(5.48913 -0.875278 0)
(5.42252 -0.794897 0)
(5.38087 -0.717237 0)
(5.3547 -0.64455 0)
(5.33679 -0.578292 0)
(5.32301 -0.518712 0)
(5.31142 -0.465362 0)
(5.30128 -0.417583 0)
(5.2923 -0.374744 0)
(5.28438 -0.336305 0)
(5.27743 -0.301807 0)
(5.27138 -0.270848 0)
(5.26614 -0.243071 0)
(5.26161 -0.21815 0)
(5.2577 -0.195793 0)
(5.25435 -0.175734 0)
(5.25147 -0.157734 0)
(5.249 -0.141581 0)
(5.24688 -0.127083 0)
(5.24507 -0.114067 0)
(5.24352 -0.102383 0)
(5.24219 -0.0918917 0)
(5.24106 -0.0824716 0)
(5.24008 -0.0740126 0)
(5.23924 -0.0664167 0)
(5.23852 -0.0595955 0)
(5.2379 -0.05347 0)
(5.23737 -0.0479692 0)
(5.23691 -0.0430295 0)
(5.23652 -0.0385936 0)
(5.23617 -0.0346102 0)
(5.23588 -0.0310331 0)
(5.23562 -0.0278209 0)
(5.2354 -0.0249362 0)
(5.23521 -0.0223456 0)
(5.23504 -0.020019 0)
(5.23489 -0.0179292 0)
(5.23476 -0.016052 0)
(5.23465 -0.0143654 0)
(5.23455 -0.0128498 0)
(5.23447 -0.0114875 0)
(5.23439 -0.0102624 0)
(5.23433 -0.00916037 0)
(5.23427 -0.00816842 0)
(5.23422 -0.00727493 0)
(5.23417 -0.00646946 0)
(5.23413 -0.00574246 0)
(5.2341 -0.00508559 0)
(5.23407 -0.004491 0)
(5.23404 -0.00395184 0)
(5.23402 -0.00346181 0)
(5.234 -0.00301514 0)
(5.23398 -0.00260687 0)
(5.23397 -0.00223199 0)
(5.23395 -0.00188643 0)
(5.23394 -0.00156614 0)
(5.23393 -0.00126747 0)
(5.23392 -0.000987145 0)
(5.23392 -0.000721913 0)
(5.23391 -0.000468955 0)
(5.23391 -0.000225485 0)
(5.2339 1.11332e-05 0)
(5.2339 0.000243197 0)
(5.2339 0.000473356 0)
(5.2339 0.000703846 0)
(5.2339 0.000936931 0)
(5.23391 0.0011749 0)
(5.23391 0.00142016 0)
(5.23391 0.00167498 0)
(5.23392 0.00194178 0)
(5.23393 0.00222297 0)
(5.23394 0.00252114 0)
(5.23395 0.0028389 0)
(5.23396 0.00317916 0)
(5.23397 0.00354487 0)
(5.23398 0.00393928 0)
(5.234 0.00436577 0)
(5.23402 0.0048281 0)
(5.23404 0.00533021 0)
(5.23406 0.00587644 0)
(5.23408 0.00647146 0)
(5.23411 0.0071204 0)
(5.23414 0.00782879 0)
(5.23418 0.00860268 0)
(5.23422 0.00944871 0)
(5.23426 0.0103741 0)
(5.23431 0.0113869 0)
(5.23436 0.0124957 0)
(5.23442 0.0137103 0)
(5.23449 0.015041 0)
(5.23456 0.0164997 0)
(5.23465 0.018099 0)
(5.23474 0.0198534 0)
(5.23485 0.0217784 0)
(5.23497 0.0238917 0)
(5.23511 0.0262128 0)
(5.23526 0.0287631 0)
(5.23544 0.0315685 0)
(5.23563 0.0346532 0)
(5.23585 0.0380556 0)
(5.2361 0.0417966 0)
(5.23636 0.0459464 0)
(5.23668 0.0504937 0)
(5.23697 0.0556053 0)
(5.23739 0.0611326 0)
(5.23765 0.0675415 0)
(5.23821 0.0742177 0)
(5.23825 0.0824941 0)
(5.23896 0.0904136 0)
(5.23837 0.10153 0)
(5.23919 0.110622 0)
(5.23683 0.126 0)
(5.23801 0.135976 0)
(5.23016 0.156976 0)
(5.23578 0.166961 0)
(5.20841 0.194142 0)
(5.24165 0.199776 0)
(5.1476 0.236728 0)
(5.28841 0.220322 0)
(5.00456 0.288838 0)
(5.43574 0.207822 0)
(4.73845 0.353107 0)
(5.72043 0.179427 0)
(4.38343 0.383316 0)
(6.05292 0.24767 0)
(4.12823 0.280842 0)
(6.18412 0.498072 0)
(4.18535 0.117848 0)
(6.01683 0.687853 0)
(4.38497 0.260452 0)
(5.87082 0.508717 0)
(4.53709 0.62566 0)
(5.6387 0.549431 0)
(4.94322 0.433394 0)
(5.32076 1.07841 0)
(4.91655 0.483176 0)
(5.71579 0.858389 0)
(4.66765 0.988178 0)
(5.48772 1.23572 0)
(5.20243 0.644082 0)
(5.46027 1.54776 0)
(4.71578 1.48354 0)
(5.75078 1.3352 0)
(4.97143 1.62678 0)
(5.38349 1.86968 0)
(4.95462 2.33852 0)
(5.07974 1.89416 0)
(5.20526 2.91168 0)
(4.54315 2.56856 0)
(5.10715 3.54015 0)
(4.38869 3.7141 0)
(4.82563 3.79973 0)
(4.71769 5.11481 0)
(4.43798 4.95733 0)
(4.6888 5.99987 0)
(4.92908 7.46157 0)
(5.68368 8.20419 0)
(3.57064 11.2627 0)
(5.79917 -0.0599095 0)
(5.80013 -0.0150995 0)
(5.83588 -0.138728 0)
(6.01523 -0.00171203 0)
(6.40185 0.171487 0)
(6.54132 0.107012 0)
(6.66999 0.345808 0)
(7.242 0.458632 0)
(7.38209 0.0132095 0)
(7.15591 0.0824438 0)
(7.81959 0.420269 0)
(8.81397 -0.00858611 0)
(9.0571 -0.322375 0)
(9.45418 -0.195851 0)
(10.4126 -0.533696 0)
(10.813 -1.14276 0)
(10.8321 -1.99928 0)
(11.3591 -3.12859 0)
(11.6334 -3.57588 0)
(11.2522 -3.63139 0)
(11.2595 -4.29879 0)
(11.475 -5.02992 0)
(10.9016 -5.10409 0)
(9.81134 -4.80152 0)
(9.02154 -4.56854 0)
(8.56966 -4.31294 0)
(8.13204 -3.88695 0)
(7.7011 -3.49425 0)
(7.36537 -3.29667 0)
(6.94544 -3.19758 0)
(6.44717 -3.05166 0)
(6.18404 -2.76784 0)
(6.27349 -2.35498 0)
(6.48612 -1.96876 0)
(6.52712 -1.78736 0)
(6.34177 -1.79861 0)
(6.11398 -1.80946 0)
(6.00681 -1.66981 0)
(6.00578 -1.40614 0)
(6.00453 -1.13975 0)
(5.93996 -0.951382 0)
(5.82206 -0.843086 0)
(5.69117 -0.778852 0)
(5.57853 -0.727037 0)
(5.49526 -0.67359 0)
(5.43857 -0.616835 0)
(5.40073 -0.559594 0)
(5.37452 -0.504746 0)
(5.35498 -0.453943 0)
(5.33929 -0.407747 0)
(5.32604 -0.366102 0)
(5.31454 -0.32869 0)
(5.30447 -0.295117 0)
(5.29563 -0.264996 0)
(5.28789 -0.23797 0)
(5.28112 -0.213716 0)
(5.27521 -0.191946 0)
(5.27006 -0.172401 0)
(5.26557 -0.154849 0)
(5.26166 -0.139083 0)
(5.25825 -0.12492 0)
(5.25528 -0.112195 0)
(5.25269 -0.100761 0)
(5.25043 -0.0904854 0)
(5.24845 -0.0812512 0)
(5.24672 -0.0729525 0)
(5.24521 -0.0654948 0)
(5.24388 -0.0587928 0)
(5.24272 -0.0527703 0)
(5.2417 -0.0473586 0)
(5.2408 -0.0424959 0)
(5.24001 -0.0381268 0)
(5.23931 -0.0342013 0)
(5.23869 -0.0306745 0)
(5.23815 -0.0275061 0)
(5.23767 -0.0246595 0)
(5.23725 -0.0221022 0)
(5.23687 -0.0198046 0)
(5.23654 -0.0177402 0)
(5.23624 -0.0158853 0)
(5.23598 -0.0142182 0)
(5.23575 -0.0127198 0)
(5.23554 -0.0113725 0)
(5.23536 -0.0101608 0)
(5.23519 -0.00907049 0)
(5.23505 -0.00808893 0)
(5.23492 -0.00720466 0)
(5.23481 -0.00640721 0)
(5.23471 -0.00568754 0)
(5.23462 -0.00503695 0)
(5.23454 -0.00444814 0)
(5.23447 -0.003914 0)
(5.23441 -0.00342845 0)
(5.23435 -0.00298599 0)
(5.23431 -0.00258123 0)
(5.23426 -0.00220977 0)
(5.23423 -0.00186721 0)
(5.2342 -0.00154967 0)
(5.23417 -0.00125363 0)
(5.23415 -0.000975625 0)
(5.23413 -0.000712598 0)
(5.23412 -0.000461787 0)
(5.23411 -0.000220289 0)
(5.2341 1.44471e-05 0)
(5.23409 0.000244756 0)
(5.23409 0.000473121 0)
(5.23409 0.000701907 0)
(5.2341 0.000933321 0)
(5.23411 0.00116965 0)
(5.23412 0.00141321 0)
(5.23413 0.00166633 0)
(5.23415 0.00193138 0)
(5.23417 0.00221075 0)
(5.23419 0.00250698 0)
(5.23422 0.00282274 0)
(5.23425 0.00316084 0)
(5.23428 0.00352423 0)
(5.23432 0.0039161 0)
(5.23437 0.00433984 0)
(5.23442 0.00479915 0)
(5.23447 0.00529795 0)
(5.23453 0.00584053 0)
(5.2346 0.00643153 0)
(5.23468 0.00707605 0)
(5.23476 0.00777953 0)
(5.23485 0.00854798 0)
(5.23495 0.00938798 0)
(5.23506 0.0103067 0)
(5.23519 0.0113121 0)
(5.23533 0.0124126 0)
(5.23548 0.0136178 0)
(5.23565 0.0149382 0)
(5.23583 0.0163853 0)
(5.23604 0.0179716 0)
(5.23627 0.0197113 0)
(5.23653 0.0216199 0)
(5.23681 0.0237145 0)
(5.23713 0.0260148 0)
(5.23749 0.0285414 0)
(5.23788 0.0313207 0)
(5.23833 0.0343751 0)
(5.23881 0.0377462 0)
(5.23938 0.0414469 0)
(5.23997 0.0455644 0)
(5.2407 0.0500523 0)
(5.24139 0.0551514 0)
(5.24237 0.060567 0)
(5.24308 0.0670619 0)
(5.24448 0.0734595 0)
(5.24497 0.0821786 0)
(5.24699 0.0893061 0)
(5.2469 0.101938 0)
(5.2493 0.108922 0)
(5.24864 0.128347 0)
(5.24861 0.134007 0)
(5.25036 0.162397 0)
(5.2373 0.168852 0)
(5.25288 0.198092 0)
(5.20414 0.22224 0)
(5.2544 0.214103 0)
(5.15124 0.304369 0)
(5.23958 0.183363 0)
(5.11793 0.405305 0)
(5.18712 0.121006 0)
(5.15522 0.467868 0)
(5.10824 0.128307 0)
(5.25796 0.392047 0)
(5.05306 0.347026 0)
(5.32104 0.165435 0)
(5.11787 0.657959 0)
(5.22285 0.122898 0)
(5.21402 0.643425 0)
(5.31153 0.421663 0)
(4.89359 0.570701 0)
(5.74649 0.478003 0)
(4.66482 0.824649 0)
(5.59683 0.551574 0)
(5.05382 0.851464 0)
(5.46725 0.713734 0)
(4.85878 1.2613 0)
(5.61923 0.644881 0)
(5.27635 1.27554 0)
(5.0092 1.26641 0)
(5.54731 1.55679 0)
(5.35139 1.0001 0)
(5.70796 2.07998 0)
(5.07248 1.77933 0)
(5.98334 1.95162 0)
(5.52528 2.26024 0)
(5.96306 2.21636 0)
(5.90571 3.14212 0)
(5.79588 2.5645 0)
(6.46893 3.56649 0)
(5.96416 3.62584 0)
(6.17802 4.00652 0)
(6.14501 5.51124 0)
(5.95226 5.3145 0)
(5.35385 6.71592 0)
(8.43185 7.45065 0)
(5.99618 12.2503 0)
(8.56751 -0.109621 0)
(8.68019 0.0170059 0)
(8.72331 -0.251898 0)
(8.61864 -0.477852 0)
(9.08501 -0.150835 0)
(9.50812 0.122485 0)
(9.29154 0.199119 0)
(9.5602 0.0879412 0)
(9.99203 -0.176558 0)
(9.83067 0.0162301 0)
(10.1871 0.168653 0)
(10.9084 -0.354268 0)
(11.0312 -0.561429 0)
(11.3803 -0.608009 0)
(12.0341 -1.14906 0)
(12.2187 -1.48379 0)
(12.4722 -2.11193 0)
(12.8759 -3.28865 0)
(12.8674 -3.54081 0)
(12.5982 -3.4992 0)
(12.3339 -4.32785 0)
(11.738 -4.7032 0)
(10.6252 -4.30501 0)
(9.53103 -4.23656 0)
(8.87508 -4.38279 0)
(8.52494 -4.16142 0)
(8.18677 -3.7129 0)
(7.85996 -3.35231 0)
(7.72579 -3.07687 0)
(7.61339 -2.7792 0)
(7.23797 -2.56958 0)
(6.72283 -2.53294 0)
(6.41749 -2.48444 0)
(6.45853 -2.23014 0)
(6.62984 -1.86673 0)
(6.61719 -1.63496 0)
(6.36723 -1.58203 0)
(6.07802 -1.54289 0)
(5.9149 -1.38765 0)
(5.87424 -1.14555 0)
(5.86858 -0.9167 0)
(5.83489 -0.761559 0)
(5.76331 -0.678015 0)
(5.67384 -0.63434 0)
(5.58846 -0.601843 0)
(5.51874 -0.566358 0)
(5.46638 -0.525178 0)
(5.42812 -0.480675 0)
(5.39963 -0.436004 0)
(5.37747 -0.393413 0)
(5.35936 -0.354042 0)
(5.34403 -0.318249 0)
(5.33075 -0.285973 0)
(5.31915 -0.256964 0)
(5.30897 -0.230919 0)
(5.30003 -0.207535 0)
(5.29219 -0.186535 0)
(5.2853 -0.167666 0)
(5.27926 -0.150708 0)
(5.27396 -0.135461 0)
(5.26931 -0.12175 0)
(5.26522 -0.109419 0)
(5.26162 -0.098327 0)
(5.25846 -0.0883502 0)
(5.25567 -0.079376 0)
(5.25321 -0.0713041 0)
(5.25104 -0.0640442 0)
(5.24913 -0.057515 0)
(5.24743 -0.0516436 0)
(5.24593 -0.0463641 0)
(5.24461 -0.0416173 0)
(5.24343 -0.0373498 0)
(5.24239 -0.0335136 0)
(5.24146 -0.0300654 0)
(5.24064 -0.0269661 0)
(5.2399 -0.0241805 0)
(5.23925 -0.0216769 0)
(5.23867 -0.0194269 0)
(5.23816 -0.0174046 0)
(5.2377 -0.0155868 0)
(5.23729 -0.0139528 0)
(5.23692 -0.0124836 0)
(5.2366 -0.0111623 0)
(5.23631 -0.0099737 0)
(5.23605 -0.00890398 0)
(5.23582 -0.00794075 0)
(5.23562 -0.00707274 0)
(5.23544 -0.00628997 0)
(5.23527 -0.00558328 0)
(5.23513 -0.0049445 0)
(5.235 -0.00436616 0)
(5.23489 -0.00384152 0)
(5.23479 -0.00336464 0)
(5.2347 -0.00292988 0)
(5.23463 -0.00253223 0)
(5.23456 -0.00216718 0)
(5.2345 -0.00183045 0)
(5.23445 -0.00151834 0)
(5.23441 -0.00122715 0)
(5.23437 -0.000953661 0)
(5.23434 -0.00069489 0)
(5.23432 -0.000447958 0)
(5.2343 -0.000210121 0)
(5.23429 2.11245e-05 0)
(5.23428 0.000248037 0)
(5.23428 0.000473152 0)
(5.23429 0.000698742 0)
(5.23429 0.000926933 0)
(5.23431 0.00116004 0)
(5.23432 0.00140031 0)
(5.23435 0.00165008 0)
(5.23437 0.00191161 0)
(5.23441 0.00218731 0)
(5.23445 0.00247965 0)
(5.23449 0.00279132 0)
(5.23454 0.00312502 0)
(5.2346 0.00348374 0)
(5.23466 0.00387058 0)
(5.23473 0.00428896 0)
(5.23481 0.00474243 0)
(5.2349 0.00523493 0)
(5.235 0.00577064 0)
(5.23511 0.0063542 0)
(5.23523 0.00699052 0)
(5.23537 0.00768501 0)
(5.23552 0.00844358 0)
(5.23568 0.00927269 0)
(5.23586 0.0101794 0)
(5.23606 0.0111714 0)
(5.23628 0.0122571 0)
(5.23652 0.0134459 0)
(5.23679 0.0147481 0)
(5.23709 0.0161747 0)
(5.23742 0.0177384 0)
(5.23778 0.0194527 0)
(5.23819 0.021333 0)
(5.23864 0.0233957 0)
(5.23913 0.0256604 0)
(5.23968 0.0281467 0)
(5.2403 0.0308813 0)
(5.24099 0.0338837 0)
(5.24174 0.0371997 0)
(5.24261 0.0408312 0)
(5.24353 0.0448863 0)
(5.24467 0.0492717 0)
(5.24573 0.0543254 0)
(5.24733 0.0595495 0)
(5.24837 0.0661251 0)
(5.25085 0.0720342 0)
(5.25135 0.0813862 0)
(5.25564 0.0869715 0)
(5.25429 0.10233 0)
(5.26198 0.104116 0)
(5.25648 0.133507 0)
(5.26808 0.122164 0)
(5.25824 0.182781 0)
(5.26294 0.138381 0)
(5.26832 0.257135 0)
(5.2117 0.148773 0)
(5.32266 0.347662 0)
(5.04998 0.14814 0)
(5.48849 0.424668 0)
(4.72693 0.120887 0)
(5.8107 0.471173 0)
(4.30213 0.0819082 0)
(6.18024 0.436232 0)
(4.05447 0.183703 0)
(6.27927 0.249223 0)
(4.22939 0.450198 0)
(6.08941 0.127193 0)
(4.39479 0.597752 0)
(6.18269 0.24381 0)
(4.1625 0.575739 0)
(6.40349 0.493765 0)
(4.17528 0.484969 0)
(6.26192 0.704881 0)
(4.33129 0.682313 0)
(6.35342 0.611671 0)
(4.2266 0.968631 0)
(6.24017 0.934341 0)
(4.58802 0.866361 0)
(6.07768 1.04606 0)
(4.45598 1.60102 0)
(5.96791 1.03758 0)
(4.97616 1.57627 0)
(5.23351 1.53155 0)
(5.2155 2.30329 0)
(4.72096 1.74105 0)
(5.5795 2.54083 0)
(4.52034 2.43967 0)
(5.44215 2.85235 0)
(4.99505 3.58236 0)
(4.81813 3.07567 0)
(5.87054 4.58601 0)
(5.08295 4.25569 0)
(6.01887 4.9575 0)
(7.64874 5.71817 0)
(5.43784 7.33937 0)
(9.94674 4.57005 0)
(8.26446 11.3696 0)
(10.5136 -0.149876 0)
(10.569 -0.0824027 0)
(10.9104 -0.321364 0)
(10.8663 -0.511447 0)
(11.0811 -0.369547 0)
(11.5377 -0.171981 0)
(11.3602 0.177321 0)
(11.4589 0.0771733 0)
(11.8204 -0.40171 0)
(11.6974 -0.174169 0)
(11.986 -0.118019 0)
(12.3974 -0.787066 0)
(12.4233 -0.89294 0)
(13.0453 -0.79342 0)
(13.5252 -1.13679 0)
(13.2511 -1.46409 0)
(13.1841 -2.31931 0)
(12.9612 -3.57581 0)
(12.5308 -3.74487 0)
(12.4028 -3.36882 0)
(11.8869 -3.84334 0)
(10.9387 -4.09601 0)
(10.4162 -3.48954 0)
(10.199 -3.33812 0)
(9.70956 -3.69342 0)
(9.10219 -3.65108 0)
(8.57348 -3.32856 0)
(8.0982 -3.19545 0)
(7.81938 -3.11959 0)
(7.75678 -2.76277 0)
(7.65295 -2.24777 0)
(7.33679 -1.99836 0)
(6.89729 -2.08884 0)
(6.56774 -2.16458 0)
(6.48088 -1.96345 0)
(6.48565 -1.6153 0)
(6.35752 -1.37378 0)
(6.08064 -1.28592 0)
(5.80359 -1.22291 0)
(5.63989 -1.09317 0)
(5.59061 -0.917711 0)
(5.59781 -0.758147 0)
(5.60958 -0.64813 0)
(5.60294 -0.584121 0)
(5.57745 -0.546074 0)
(5.54166 -0.51595 0)
(5.50394 -0.484354 0)
(5.46913 -0.449117 0)
(5.43891 -0.411626 0)
(5.41319 -0.374063 0)
(5.39128 -0.338126 0)
(5.37244 -0.30476 0)
(5.35608 -0.274315 0)
(5.34177 -0.246784 0)
(5.32923 -0.221988 0)
(5.3182 -0.199688 0)
(5.3085 -0.179635 0)
(5.29996 -0.161599 0)
(5.29244 -0.145371 0)
(5.28581 -0.130765 0)
(5.27997 -0.117615 0)
(5.27481 -0.105775 0)
(5.27026 -0.0951134 0)
(5.26623 -0.0855134 0)
(5.26266 -0.0768696 0)
(5.2595 -0.0690876 0)
(5.2567 -0.0620822 0)
(5.25422 -0.0557769 0)
(5.25201 -0.0501026 0)
(5.25005 -0.0449967 0)
(5.24831 -0.0404031 0)
(5.24676 -0.0362709 0)
(5.24538 -0.0325544 0)
(5.24415 -0.029212 0)
(5.24306 -0.0262064 0)
(5.24208 -0.023504 0)
(5.24121 -0.0210743 0)
(5.24043 -0.0188898 0)
(5.23974 -0.0169257 0)
(5.23912 -0.0151598 0)
(5.23857 -0.013572 0)
(5.23807 -0.0121439 0)
(5.23763 -0.0108594 0)
(5.23724 -0.0097036 0)
(5.23689 -0.00866326 0)
(5.23658 -0.00772623 0)
(5.2363 -0.00688176 0)
(5.23605 -0.00612008 0)
(5.23583 -0.00543229 0)
(5.23563 -0.0048105 0)
(5.23546 -0.00424733 0)
(5.2353 -0.00373646 0)
(5.23517 -0.00327191 0)
(5.23505 -0.00284822 0)
(5.23494 -0.00246072 0)
(5.23485 -0.00210474 0)
(5.23477 -0.00177644 0)
(5.2347 -0.00147196 0)
(5.23464 -0.00118783 0)
(5.23459 -0.000920975 0)
(5.23455 -0.000668365 0)
(5.23452 -0.000427257 0)
(5.2345 -0.000194944 0)
(5.23448 3.09358e-05 0)
(5.23447 0.000252735 0)
(5.23447 0.000472844 0)
(5.23447 0.000693435 0)
(5.23448 0.00091673 0)
(5.2345 0.00114496 0)
(5.23453 0.00138032 0)
(5.23456 0.00162504 0)
(5.2346 0.0018814 0)
(5.23464 0.00215176 0)
(5.2347 0.00243855 0)
(5.23476 0.00274433 0)
(5.23483 0.0030718 0)
(5.23491 0.00342385 0)
(5.235 0.00380356 0)
(5.23509 0.0042142 0)
(5.23521 0.00465928 0)
(5.23533 0.00514262 0)
(5.23547 0.00566839 0)
(5.23562 0.00624104 0)
(5.23578 0.0068654 0)
(5.23597 0.00754677 0)
(5.23617 0.00829094 0)
(5.2364 0.00910422 0)
(5.23665 0.00999345 0)
(5.23692 0.0109662 0)
(5.23722 0.0120307 0)
(5.23755 0.013196 0)
(5.23792 0.0144721 0)
(5.23833 0.0158698 0)
(5.23877 0.0174013 0)
(5.23927 0.0190798 0)
(5.23982 0.0209201 0)
(5.24042 0.022938 0)
(5.24109 0.0251527 0)
(5.24184 0.0275824 0)
(5.24266 0.0302538 0)
(5.24359 0.0331838 0)
(5.2446 0.0364207 0)
(5.24578 0.0399557 0)
(5.247 0.0439169 0)
(5.24857 0.0481613 0)
(5.24995 0.0531279 0)
(5.25221 0.0581006 0)
(5.25347 0.0647012 0)
(5.25723 0.0700279 0)
(5.25732 0.0799016 0)
(5.2647 0.0838873 0)
(5.26054 0.101479 0)
(5.27692 0.0987027 0)
(5.25979 0.135621 0)
(5.29874 0.111516 0)
(5.24479 0.195298 0)
(5.3388 0.115951 0)
(5.19029 0.299907 0)
(5.40834 0.101616 0)
(5.06096 0.449116 0)
(5.51982 0.0649386 0)
(4.84084 0.577578 0)
(5.69778 0.0290878 0)
(4.5803 0.583607 0)
(5.92547 0.0965053 0)
(4.40124 0.402326 0)
(6.1449 0.346621 0)
(4.25528 0.189185 0)
(6.45089 0.422934 0)
(4.05576 0.453854 0)
(6.57582 0.136795 0)
(4.26004 0.698498 0)
(6.22597 0.431432 0)
(4.64461 0.325325 0)
(6.20183 0.806236 0)
(4.40189 0.556636 0)
(6.59116 0.533247 0)
(4.40575 0.793968 0)
(6.44918 0.996208 0)
(4.59069 0.630752 0)
(6.91173 0.944923 0)
(4.31152 1.18725 0)
(6.94833 1.3388 0)
(5.06086 0.870379 0)
(7.1921 1.40237 0)
(5.01277 2.06879 0)
(6.95229 1.61424 0)
(6.23068 1.91453 0)
(6.74981 1.75198 0)
(6.85465 2.95841 0)
(5.78966 2.54213 0)
(7.00026 3.34264 0)
(6.22708 3.12806 0)
(6.39534 3.67693 0)
(8.09646 3.68837 0)
(5.19508 5.5045 0)
(9.81261 3.1495 0)
(6.27458 8.60433 0)
(10.2118 2.76525 0)
(8.71296 9.96444 0)
(11.6811 -0.106997 0)
(11.6633 -0.00696081 0)
(12.059 -0.305964 0)
(12.1673 -0.599172 0)
(12.3221 -0.615294 0)
(12.4453 -0.285244 0)
(12.2082 0.26001 0)
(12.4697 -0.0490774 0)
(12.6979 -0.629967 0)
(12.4672 -0.305033 0)
(12.8015 -0.14073 0)
(13.1354 -0.723053 0)
(13.0242 -1.23891 0)
(13.1834 -1.25063 0)
(13.2879 -1.10379 0)
(13.3829 -1.50043 0)
(13.5374 -2.12639 0)
(12.8898 -2.6896 0)
(11.9884 -3.38939 0)
(11.8867 -3.46823 0)
(11.6145 -3.07912 0)
(10.6146 -3.15851 0)
(10.174 -3.41125 0)
(10.3376 -3.47949 0)
(9.93468 -3.40255 0)
(9.20197 -3.09725 0)
(8.80027 -2.78397 0)
(8.47146 -2.74911 0)
(7.99666 -2.82801 0)
(7.59336 -2.69378 0)
(7.40376 -2.29754 0)
(7.35779 -1.89839 0)
(7.24269 -1.73412 0)
(6.91149 -1.75511 0)
(6.52108 -1.70921 0)
(6.27898 -1.48585 0)
(6.15858 -1.2215 0)
(6.02897 -1.06017 0)
(5.84132 -0.996083 0)
(5.64555 -0.946479 0)
(5.50728 -0.866511 0)
(5.44705 -0.767939 0)
(5.44464 -0.676823 0)
(5.46772 -0.605001 0)
(5.491 -0.550201 0)
(5.50189 -0.50547 0)
(5.49838 -0.465233 0)
(5.484 -0.426757 0)
(5.4636 -0.38942 0)
(5.44111 -0.353602 0)
(5.41895 -0.319895 0)
(5.39833 -0.288723 0)
(5.3797 -0.260256 0)
(5.36311 -0.234458 0)
(5.34841 -0.21117 0)
(5.33544 -0.190183 0)
(5.324 -0.171275 0)
(5.31391 -0.154238 0)
(5.305 -0.138883 0)
(5.29712 -0.12504 0)
(5.29015 -0.112558 0)
(5.28399 -0.101304 0)
(5.27852 -0.0911557 0)
(5.27367 -0.082007 0)
(5.26937 -0.0737601 0)
(5.26554 -0.0663278 0)
(5.26214 -0.0596308 0)
(5.25911 -0.0535978 0)
(5.25642 -0.0481642 0)
(5.25402 -0.0432713 0)
(5.25188 -0.0388665 0)
(5.24997 -0.0349017 0)
(5.24827 -0.0313337 0)
(5.24675 -0.0281233 0)
(5.24539 -0.0252351 0)
(5.24418 -0.0226371 0)
(5.2431 -0.0203004 0)
(5.24213 -0.0181988 0)
(5.24127 -0.0163086 0)
(5.24049 -0.0146088 0)
(5.2398 -0.0130798 0)
(5.23918 -0.0117045 0)
(5.23863 -0.010467 0)
(5.23814 -0.00935334 0)
(5.2377 -0.0083506 0)
(5.23731 -0.00744728 0)
(5.23696 -0.00663302 0)
(5.23664 -0.00589833 0)
(5.23637 -0.00523487 0)
(5.23612 -0.00463475 0)
(5.2359 -0.0040913 0)
(5.2357 -0.00359815 0)
(5.23553 -0.0031496 0)
(5.23538 -0.0027406 0)
(5.23525 -0.00236632 0)
(5.23513 -0.00202261 0)
(5.23503 -0.00170548 0)
(5.23494 -0.00141123 0)
(5.23487 -0.00113672 0)
(5.23481 -0.000878647 0)
(5.23476 -0.000634352 0)
(5.23472 -0.000400891 0)
(5.23469 -0.00017594 0)
(5.23466 4.28715e-05 0)
(5.23465 0.000258276 0)
(5.23465 0.000472004 0)
(5.23466 0.000686222 0)
(5.23467 0.000903268 0)
(5.23469 0.0011253 0)
(5.23472 0.00135435 0)
(5.23476 0.00159258 0)
(5.23481 0.0018422 0)
(5.23487 0.00210555 0)
(5.23494 0.00238497 0)
(5.23502 0.00268293 0)
(5.23511 0.00300205 0)
(5.23521 0.00334519 0)
(5.23532 0.00371533 0)
(5.23545 0.00411564 0)
(5.23559 0.00454956 0)
(5.23574 0.00502083 0)
(5.23592 0.00553348 0)
(5.23611 0.00609181 0)
(5.23632 0.00670056 0)
(5.23656 0.00736485 0)
(5.23682 0.00809032 0)
(5.2371 0.00888304 0)