/*--------------------------------*- C++ -*----------------------------------*\
| =========                 |                                                 |
| \\      /  F ield         | OpenFOAM: The Open Source CFD Toolbox           |
|  \\    /   O peration     | Version:  2.4.0                                 |
|   \\  /    A nd           | Web:      www.OpenFOAM.org                      |
|    \\/     M anipulation  |                                                 |
\*---------------------------------------------------------------------------*/
FoamFile
{
    version     2.0;
    format      ascii;
    class       volVectorField;
    location    "0.02";
    object      UMean;
}
// * * * * * * * * * * * * * * * * * * * * * * * * * * * * * * * * * * * * * //

dimensions      [0 1 -1 0 0 0 0];

internalField   nonuniform List<vector> 
8800
(
(8.13172 0.350923 0)
(5.95278 0.230618 0)
(4.65053 0.0511141 0)
(3.99979 -0.00729395 0)
(3.70449 -0.0135824 0)
(3.58328 -0.00957187 0)
(3.52156 -0.00361878 0)
(3.50818 -0.00207209 0)
(3.48338 0.00041204 0)
(3.49752 9.05256e-05 0)
(3.47124 0.000491611 0)
(3.48919 0.000433719 0)
(3.46082 -7.92903e-05 0)
(3.49417 -0.000459569 0)
(3.48287 -0.00269013 0)
(3.52038 0.00241084 0)
(3.58043 -0.0147619 0)
(3.5391 0.0224147 0)
(4.0668 -0.111082 0)
(3.66615 0.103332 0)
(9.87457 0.74025 0)
(9.7367 0.74284 0)
(9.17818 0.423607 0)
(8.57826 0.210732 0)
(8.09504 0.102148 0)
(7.7953 0.0459508 0)
(7.58091 0.0217479 0)
(7.5102 0.00645114 0)
(7.40058 0.00353968 0)
(7.43761 0.00125354 0)
(7.35218 0.00273557 0)
(7.40697 0.00138703 0)
(7.33314 0.00200342 0)
(7.40461 -0.00993138 0)
(7.36051 0.0033334 0)
(7.43914 -0.0311566 0)
(7.48079 0.0171661 0)
(7.5252 -0.111039 0)
(7.87679 -0.0218698 0)
(7.97462 -0.481563 0)
(9.85867 0.561896 0)
(10.5768 0.729299 0)
(10.8114 0.485222 0)
(10.7216 0.286537 0)
(10.4749 0.18269 0)
(10.2704 0.117964 0)
(10.038 0.0745445 0)
(9.96871 0.0396942 0)
(9.80296 0.0214165 0)
(9.84044 0.00917272 0)
(9.73108 0.00972753 0)
(9.76601 0.00377718 0)
(9.71487 0.00346293 0)
(9.73399 -0.0110689 0)
(9.7509 -0.00718276 0)
(9.74693 -0.0232062 0)
(9.859 -0.0353329 0)
(9.85111 -0.0694662 0)
(10.0796 -0.195279 0)
(10.2243 -0.497119 0)
(9.79663 0.409417 0)
(10.5184 0.601052 0)
(11.0239 0.434326 0)
(11.2428 0.267903 0)
(11.2559 0.187855 0)
(11.2442 0.142102 0)
(11.1342 0.104549 0)
(11.1337 0.0636393 0)
(11.0275 0.0445809 0)
(11.0492 0.0162385 0)
(10.9984 0.0262448 0)
(10.9759 0.00300382 0)
(10.9854 0.0159637 0)
(10.9419 -0.0225088 0)
(10.9995 0.00395876 0)
(10.9577 -0.0463513 0)
(11.0634 -0.0329926 0)
(11.0459 -0.119023 0)
(11.1994 -0.235382 0)
(11.2031 -0.519549 0)
(9.80179 0.310179 0)
(10.4002 0.486907 0)
(10.9088 0.370025 0)
(11.1953 0.221717 0)
(11.3122 0.155473 0)
(11.3785 0.123095 0)
(11.3737 0.102519 0)
(11.4127 0.0598741 0)
(11.3906 0.0521036 0)
(11.4253 0.0126466 0)
(11.4158 0.0336931 0)
(11.4103 0.00375011 0)
(11.4159 0.0187004 0)
(11.4022 -0.021485 0)
(11.4148 0.000655979 0)
(11.4267 -0.0490101 0)
(11.4523 -0.0467547 0)
(11.4856 -0.150145 0)
(11.5324 -0.254948 0)
(11.5074 -0.622991 0)
(9.80816 0.227876 0)
(10.3169 0.390417 0)
(10.8024 0.306621 0)
(11.0833 0.185287 0)
(11.2433 0.122466 0)
(11.3036 0.10013 0)
(11.3505 0.0885798 0)
(11.3784 0.0498519 0)
(11.4079 0.0469313 0)
(11.4386 0.0101371 0)
(11.4606 0.0280544 0)
(11.4605 0.00767455 0)
(11.4776 0.0110899 0)
(11.4664 -0.0121014 0)
(11.4838 -0.013348 0)
(11.4912 -0.0381294 0)
(11.5105 -0.0738007 0)
(11.5239 -0.149407 0)
(11.5399 -0.305257 0)
(11.4625 -0.604292 0)
(9.80908 0.162503 0)
(10.2617 0.296546 0)
(10.7187 0.244431 0)
(11.0006 0.143874 0)
(11.1786 0.0986974 0)
(11.2377 0.072046 0)
(11.2975 0.0765043 0)
(11.3211 0.0335897 0)
(11.3619 0.0445738 0)
(11.3982 0.00019262 0)
(11.4268 0.0297153 0)
(11.4316 -1.58502e-05 0)
(11.4527 0.0140752 0)
(11.4432 -0.0199024 0)
(11.4653 -0.00780555 0)
(11.4706 -0.0547106 0)
(11.4878 -0.0739346 0)
(11.4865 -0.180235 0)
(11.4837 -0.307034 0)
(11.3647 -0.602023 0)
(9.80929 0.107905 0)
(10.2246 0.210006 0)
(10.6573 0.173641 0)
(10.9427 0.107498 0)
(11.128 0.0676903 0)
(11.1972 0.0519707 0)
(11.2541 0.0551508 0)
(11.2826 0.0243345 0)
(11.3242 0.0317969 0)
(11.3671 0.00293074 0)
(11.398 0.0164037 0)
(11.4061 0.00454055 0)
(11.4269 0.00311073 0)
(11.421 -0.0138882 0)
(11.4422 -0.0186226 0)
(11.4494 -0.0524243 0)
(11.4588 -0.0881516 0)
(11.4506 -0.185033 0)
(11.4255 -0.314896 0)
(11.2815 -0.581685 0)
(9.80844 0.0626752 0)
(10.2029 0.122341 0)
(10.6166 0.107666 0)
(10.9054 0.0613481 0)
(11.095 0.0448655 0)
(11.1714 0.0259864 0)
(11.2265 0.0385324 0)
(11.2587 0.0100359 0)
(11.2995 0.0238942 0)
(11.347 -0.00275013 0)
(11.3804 0.0108714 0)
(11.3888 -0.000222272 0)
(11.4101 -0.00109743 0)
(11.4064 -0.0172017 0)
(11.4259 -0.0211729 0)
(11.4319 -0.0585201 0)
(11.4351 -0.0948293 0)
(11.4178 -0.186322 0)
(11.374 -0.315828 0)
(11.2103 -0.545148 0)
(9.80815 0.0204567 0)
(10.1925 0.0406509 0)
(10.5963 0.0358118 0)
(10.8877 0.0201535 0)
(11.0775 0.0162329 0)
(11.1603 0.00552727 0)
(11.2123 0.0175147 0)
(11.2469 -0.00188746 0)
(11.2881 0.0110821 0)
(11.3367 -0.00316556 0)
(11.3718 0.000756204 0)
(11.3804 -0.00155193 0)
(11.4009 -0.00647331 0)
(11.3979 -0.0193347 0)
(11.4148 -0.0247767 0)
(11.4189 -0.0632193 0)
(11.4155 -0.0996042 0)
(11.3886 -0.188363 0)
(11.3297 -0.307426 0)
(11.1498 -0.508496 0)
(9.80757 -0.0189502 0)
(10.1935 -0.0432975 0)
(10.5954 -0.0324873 0)
(10.8887 -0.0258569 0)
(11.0766 -0.0083833 0)
(11.1611 -0.0171115 0)
(11.2114 -0.00340081 0)
(11.2474 -0.0144378 0)
(11.2879 -0.000619955 0)
(11.336 -0.00619636 0)
(11.3718 -0.00737802 0)
(11.3798 -0.00476356 0)
(11.3982 -0.0122243 0)
(11.3967 -0.0215301 0)
(11.4088 -0.0272464 0)
(11.4099 -0.0651552 0)
(11.4 -0.102411 0)
(11.3643 -0.183055 0)
(11.2914 -0.292299 0)
(11.099 -0.464688 0)
(9.80728 -0.0610513 0)
(10.2053 -0.125483 0)
(10.6138 -0.103445 0)
(10.909 -0.0682246 0)
(11.0912 -0.0357569 0)
(11.1752 -0.0385531 0)
(11.2235 -0.0235905 0)
(11.2595 -0.0270756 0)
(11.2998 -0.0119094 0)
(11.3448 -0.00881265 0)
(11.3801 -0.0151534 0)
(11.3875 -0.00844062 0)
(11.4029 -0.0161873 0)
(11.4014 -0.0237576 0)
(11.4084 -0.0301719 0)
(11.4055 -0.0657048 0)
(11.389 -0.103909 0)
(11.3444 -0.175389 0)
(11.26 -0.274535 0)
(11.0603 -0.419497 0)
(9.80687 -0.107007 0)
(10.229 -0.211278 0)
(10.6526 -0.172234 0)
(10.9483 -0.110398 0)
(11.1224 -0.0631017 0)
(11.2027 -0.0602291 0)
(11.2494 -0.0442772 0)
(11.2846 -0.0380817 0)
(11.3237 -0.0225054 0)
(11.3639 -0.0117879 0)
(11.3976 -0.0221489 0)
(11.4036 -0.0115921 0)
(11.415 -0.0203434 0)
(11.4132 -0.0248586 0)
(11.4141 -0.0314082 0)
(11.4056 -0.064316 0)
(11.3829 -0.102888 0)
(11.3301 -0.164799 0)
(11.2357 -0.253343 0)
(11.0289 -0.370026 0)
(9.8064 -0.161503 0)
(10.2668 -0.29883 0)
(10.713 -0.241077 0)
(11.0078 -0.149251 0)
(11.1707 -0.0914391 0)
(11.2456 -0.0828783 0)
(11.2909 -0.0635126 0)
(11.324 -0.0495612 0)
(11.361 -0.0318042 0)
(11.3948 -0.0148543 0)
(11.4252 -0.0278171 0)
(11.4294 -0.0147604 0)
(11.4363 -0.0237477 0)
(11.4323 -0.0244784 0)
(11.4267 -0.0329305 0)
(11.4115 -0.060328 0)
(11.3821 -0.0997176 0)
(11.3209 -0.151617 0)
(11.2177 -0.230424 0)
(11.0061 -0.319753 0)
(9.80535 -0.227722 0)
(10.3216 -0.390369 0)
(10.7976 -0.306786 0)
(11.0887 -0.185795 0)
(11.2386 -0.12092 0)
(11.3074 -0.105167 0)
(11.3479 -0.0815427 0)
(11.3783 -0.0603259 0)
(11.4079 -0.039868 0)
(11.4348 -0.0189101 0)
(11.4571 -0.0320988 0)
(11.4572 -0.0169886 0)
(11.4592 -0.0265219 0)
(11.4486 -0.0226929 0)
(11.4386 -0.0333521 0)
(11.414 -0.0534159 0)
(11.3786 -0.0946556 0)
(11.3072 -0.135309 0)
(11.198 -0.20584 0)
(10.9824 -0.271707 0)
(9.80128 -0.310029 0)
(10.4001 -0.487577 0)
(10.9105 -0.369065 0)
(11.1916 -0.223261 0)
(11.3187 -0.153157 0)
(11.3693 -0.127923 0)
(11.3845 -0.0969738 0)
(11.3998 -0.0687215 0)
(11.3994 -0.0453856 0)
(11.4152 -0.0229023 0)
(11.413 -0.0334196 0)
(11.4029 -0.0177839 0)
(11.3966 -0.0268934 0)
(11.3703 -0.018739 0)
(11.3643 -0.0323776 0)
(11.3218 -0.0436952 0)
(11.2907 -0.0863039 0)
(11.1961 -0.114913 0)
(11.0919 -0.17869 0)
(10.8531 -0.224873 0)
(9.79632 -0.409302 0)
(10.518 -0.601205 0)
(11.0269 -0.434326 0)
(11.2358 -0.268141 0)
(11.2679 -0.187257 0)
(11.226 -0.144314 0)
(11.1562 -0.102408 0)
(11.108 -0.0678652 0)
(11.0449 -0.042331 0)
(11.0333 -0.0223417 0)
(10.9904 -0.0276903 0)
(10.9705 -0.0151773 0)
(10.9487 -0.0219324 0)
(10.91 -0.0135736 0)
(10.9109 -0.0283095 0)
(10.8433 -0.0329365 0)
(10.8273 -0.0741589 0)
(10.685 -0.0899425 0)
(10.6022 -0.148773 0)
(10.2999 -0.173541 0)
(9.85938 -0.561761 0)
(10.5754 -0.729812 0)
(10.8145 -0.484685 0)
(10.715 -0.287346 0)
(10.4859 -0.18168 0)
(10.2524 -0.119771 0)
(10.0615 -0.0734691 0)
(9.93588 -0.041293 0)
(9.83301 -0.022406 0)
(9.80302 -0.0104907 0)
(9.74459 -0.0144761 0)
(9.72935 -0.00898594 0)
(9.69621 -0.0130994 0)
(9.66427 -0.0089013 0)
(9.65951 -0.0209113 0)
(9.5811 -0.0222143 0)
(9.57082 -0.0567546 0)
(9.38008 -0.0595235 0)
(9.33146 -0.115147 0)
(8.93411 -0.111521 0)
(9.87504 -0.740164 0)
(9.73606 -0.743087 0)
(9.17968 -0.423305 0)
(8.57479 -0.211304 0)
(8.10061 -0.101305 0)
(7.7851 -0.0474217 0)
(7.59373 -0.0206284 0)
(7.48855 -0.00781689 0)
(7.42053 -0.00402819 0)
(7.40473 -0.00171488 0)
(7.36675 -0.00585052 0)
(7.35879 -0.0048358 0)
(7.32746 -0.00604162 0)
(7.30843 -0.00591165 0)
(7.28971 -0.0108483 0)
(7.22777 -0.0137526 0)
(7.20025 -0.0313468 0)
(7.01432 -0.0318122 0)
(6.99129 -0.070944 0)
(6.51518 -0.0536892 0)
(8.13195 -0.350903 0)
(5.95256 -0.2307 0)
(4.65096 -0.0509917 0)
(3.99857 0.0071005 0)
(3.70607 0.013891 0)
(3.57994 0.00904568 0)
(3.52455 0.00414706 0)
(3.5011 0.00156741 0)
(3.48707 -0.000301421 0)
(3.48498 -0.000200516 0)
(3.47102 -0.00128832 0)
(3.46346 -0.000714632 0)
(3.44656 -0.000815109 0)
(3.43571 -0.00107029 0)
(3.41693 -0.00150921 0)
(3.38641 -0.00260294 0)
(3.34723 -0.0040736 0)
(3.25424 -0.00546305 0)
(3.19884 -0.014636 0)
(2.8661 0.0295486 0)
(5.07769 -1.23644 0)
(5.59883 -1.31631 0)
(6.06447 -1.40419 0)
(6.45856 -1.55567 0)
(6.76852 -1.71799 0)
(7.05628 -1.8679 0)
(7.38224 -2.03858 0)
(7.71687 -2.23504 0)
(8.0093 -2.42684 0)
(8.2238 -2.60715 0)
(8.3317 -2.79329 0)
(8.32234 -2.97371 0)
(8.21354 -3.11502 0)
(8.04173 -3.22306 0)
(7.81577 -3.30639 0)
(7.55855 -3.3462 0)
(7.32329 -3.34712 0)
(7.12876 -3.31387 0)
(6.96692 -3.23585 0)
(6.84185 -3.13112 0)
(6.72937 -3.01668 0)
(6.58006 -2.87105 0)
(6.38663 -2.6788 0)
(6.18109 -2.45774 0)
(5.98889 -2.22963 0)
(5.81615 -2.00698 0)
(5.66539 -1.8011 0)
(5.5438 -1.61883 0)
(5.45239 -1.45744 0)
(5.38815 -1.31183 0)
(5.34817 -1.1817 0)
(5.32389 -1.06942 0)
(5.30517 -0.974811 0)
(5.28796 -0.89308 0)
(5.27319 -0.817352 0)
(5.26168 -0.743095 0)
(5.25174 -0.670377 0)
(5.24051 -0.60226 0)
(5.22683 -0.541347 0)
(5.21201 -0.487931 0)
(5.19819 -0.440704 0)
(5.18672 -0.39824 0)
(5.17776 -0.359677 0)
(5.17084 -0.324616 0)
(5.16533 -0.292835 0)
(5.16077 -0.264115 0)
(5.15688 -0.238203 0)
(5.1535 -0.214841 0)
(5.15055 -0.193775 0)
(5.14798 -0.174779 0)
(5.14573 -0.157647 0)
(5.14378 -0.142196 0)
(5.14209 -0.12826 0)
(5.14063 -0.115691 0)
(5.13936 -0.104355 0)
(5.13826 -0.0941296 0)
(5.13731 -0.0849064 0)
(5.13649 -0.0765867 0)
(5.13578 -0.0690817 0)
(5.13517 -0.0623113 0)
(5.13463 -0.0562034 0)
(5.13417 -0.0506931 0)
(5.13377 -0.0457219 0)
(5.13341 -0.0412369 0)
(5.13311 -0.0371905 0)
(5.13284 -0.0335399 0)
(5.13261 -0.0302462 0)
(5.13241 -0.0272745 0)
(5.13223 -0.0245934 0)
(5.13207 -0.0221742 0)
(5.13193 -0.0199915 0)
(5.13181 -0.0180219 0)
(5.13171 -0.0162447 0)
(5.13161 -0.0146409 0)
(5.13153 -0.0131935 0)
(5.13146 -0.0118871 0)
(5.13139 -0.0107079 0)
(5.13134 -0.00964321 0)
(5.13128 -0.00868185 0)
(5.13124 -0.00781352 0)
(5.1312 -0.00702902 0)
(5.13116 -0.00631997 0)
(5.13113 -0.00567885 0)
(5.1311 -0.00509881 0)
(5.13108 -0.00457371 0)
(5.13106 -0.00409791 0)
(5.13104 -0.00366638 0)
(5.13102 -0.00327449 0)
(5.131 -0.00291809 0)
(5.13099 -0.00259337 0)
(5.13098 -0.00229691 0)
(5.13097 -0.00202555 0)
(5.13096 -0.00177645 0)
(5.13095 -0.00154696 0)
(5.13094 -0.00133471 0)
(5.13094 -0.00113744 0)
(5.13093 -0.000953144 0)
(5.13093 -0.000779861 0)
(5.13092 -0.000615844 0)
(5.13092 -0.000459377 0)
(5.13092 -0.000308893 0)
(5.13092 -0.000162852 0)
(5.13091 -1.98108e-05 0)
(5.13091 0.000121664 0)
(5.13091 0.000262932 0)
(5.13091 0.000405397 0)
(5.13092 0.000550401 0)
(5.13092 0.000699366 0)
(5.13092 0.000853687 0)
(5.13092 0.00101485 0)
(5.13093 0.00118432 0)
(5.13093 0.00136369 0)
(5.13094 0.00155459 0)
(5.13094 0.00175878 0)
(5.13095 0.00197811 0)
(5.13096 0.00221459 0)
(5.13097 0.00247033 0)
(5.13098 0.00274768 0)
(5.13099 0.0030491 0)
(5.131 0.00337734 0)
(5.13101 0.0037353 0)
(5.13103 0.00412625 0)
(5.13104 0.00455364 0)
(5.13106 0.00502132 0)
(5.13108 0.00553343 0)
(5.1311 0.00609458 0)
(5.13113 0.00670973 0)
(5.13116 0.00738443 0)
(5.13119 0.00812464 0)
(5.13122 0.00893702 0)
(5.13126 0.00982878 0)
(5.1313 0.0108079 0)
(5.13134 0.0118832 0)
(5.13139 0.0130643 0)
(5.13145 0.0143616 0)
(5.13151 0.015787 0)
(5.13158 0.0173532 0)
(5.13165 0.0190743 0)
(5.13173 0.020966 0)
(5.13183 0.0230453 0)
(5.13193 0.0253311 0)
(5.13205 0.0278446 0)
(5.13217 0.0306083 0)
(5.13231 0.0336491 0)
(5.13247 0.0369929 0)
(5.13264 0.040676 0)
(5.13284 0.0447244 0)
(5.13305 0.0491946 0)
(5.1333 0.0540982 0)
(5.13354 0.0595425 0)
(5.13384 0.0654803 0)
(5.1341 0.0721488 0)
(5.13447 0.0793284 0)
(5.13469 0.0875596 0)
(5.13513 0.0962184 0)
(5.13513 0.106444 0)
(5.13575 0.116854 0)
(5.13486 0.129541 0)
(5.13649 0.141951 0)
(5.13231 0.157579 0)
(5.1388 0.171845 0)
(5.12383 0.191387 0)
(5.14717 0.205995 0)
(5.10283 0.232058 0)
(5.16962 0.243946 0)
(5.06174 0.279431 0)
(5.21332 0.289682 0)
(4.99925 0.328669 0)
(5.27486 0.353951 0)
(4.92758 0.374426 0)
(5.33838 0.441326 0)
(4.86113 0.428612 0)
(5.39688 0.534723 0)
(4.80081 0.515673 0)
(5.44966 0.628651 0)
(4.75916 0.622679 0)
(5.48134 0.75873 0)
(4.73925 0.738457 0)
(5.51306 0.906507 0)
(4.71672 0.91451 0)
(5.53221 1.06005 0)
(4.74864 1.12545 0)
(5.48308 1.25969 0)
(4.82724 1.40704 0)
(5.38533 1.45284 0)
(4.96344 1.78385 0)
(5.18496 1.7055 0)
(5.16578 2.23245 0)
(4.95879 2.0584 0)
(5.36081 2.73111 0)
(4.86404 2.67444 0)
(5.37448 3.1873 0)
(5.04985 3.67381 0)
(5.05603 3.68523 0)
(5.23635 4.85078 0)
(4.92909 5.00771 0)
(4.99205 5.69259 0)
(5.15199 7.35108 0)
(5.92486 8.29638 0)
(3.77054 11.5949 0)
(8.57392 -1.43219 0)
(8.53896 -1.62868 0)
(8.44766 -1.70448 0)
(8.44295 -1.7842 0)
(8.52472 -1.88747 0)
(8.64532 -2.00125 0)
(8.79068 -2.13221 0)
(8.91173 -2.29865 0)
(8.95422 -2.46505 0)
(8.92794 -2.60585 0)
(8.84578 -2.74825 0)
(8.69772 -2.88859 0)
(8.51243 -2.99645 0)
(8.32572 -3.07996 0)
(8.13198 -3.14558 0)
(7.93786 -3.18206 0)
(7.76945 -3.19142 0)
(7.61573 -3.16259 0)
(7.44326 -3.08542 0)
(7.2493 -2.98158 0)
(7.03298 -2.85491 0)
(6.78095 -2.68406 0)
(6.51113 -2.47594 0)
(6.26295 -2.26052 0)
(6.05526 -2.05486 0)
(5.88421 -1.86112 0)
(5.74641 -1.68475 0)
(5.64383 -1.53137 0)
(5.57048 -1.39665 0)
(5.51603 -1.2737 0)
(5.47788 -1.16017 0)
(5.45432 -1.05577 0)
(5.43699 -0.961067 0)
(5.41672 -0.87683 0)
(5.3907 -0.801196 0)
(5.36269 -0.72946 0)
(5.33728 -0.658426 0)
(5.31509 -0.589507 0)
(5.29385 -0.526684 0)
(5.27215 -0.472454 0)
(5.25081 -0.426336 0)
(5.23151 -0.386244 0)
(5.21536 -0.350258 0)
(5.2025 -0.317326 0)
(5.19237 -0.287068 0)
(5.18428 -0.25938 0)
(5.17764 -0.234186 0)
(5.17202 -0.21136 0)
(5.16718 -0.19073 0)
(5.16294 -0.172107 0)
(5.15922 -0.155303 0)
(5.15595 -0.140142 0)
(5.15306 -0.126461 0)
(5.15053 -0.114117 0)
(5.14829 -0.102977 0)
(5.14632 -0.0929239 0)
(5.14458 -0.0838507 0)
(5.14305 -0.0756616 0)
(5.1417 -0.0682704 0)
(5.14051 -0.0615992 0)
(5.13945 -0.0555778 0)
(5.13852 -0.050143 0)
(5.13769 -0.0452375 0)
(5.13695 -0.04081 0)
(5.1363 -0.0368139 0)
(5.13572 -0.0332072 0)
(5.13521 -0.029952 0)
(5.13475 -0.0270141 0)
(5.13435 -0.0243625 0)
(5.13398 -0.0219694 0)
(5.13366 -0.0198096 0)
(5.13337 -0.0178602 0)
(5.13311 -0.0161008 0)
(5.13288 -0.0145127 0)
(5.13268 -0.0130793 0)
(5.13249 -0.0117852 0)
(5.13233 -0.010617 0)
(5.13218 -0.0095621 0)
(5.13205 -0.00860944 0)
(5.13193 -0.00774889 0)
(5.13182 -0.00697133 0)
(5.13173 -0.0062685 0)
(5.13164 -0.00563293 0)
(5.13156 -0.00505788 0)
(5.13149 -0.00453721 0)
(5.13143 -0.0040654 0)
(5.13138 -0.00363739 0)
(5.13133 -0.00324866 0)
(5.13129 -0.00289507 0)
(5.13125 -0.00257286 0)
(5.13121 -0.00227866 0)
(5.13118 -0.00200933 0)
(5.13116 -0.00176208 0)
(5.13113 -0.0015343 0)
(5.13111 -0.00132361 0)
(5.1311 -0.00112781 0)
(5.13108 -0.000944866 0)
(5.13107 -0.00077288 0)
(5.13106 -0.000610072 0)
(5.13105 -0.000454769 0)
(5.13104 -0.000305396 0)
(5.13104 -0.000160441 0)
(5.13103 -1.84467e-05 0)
(5.13103 0.000121996 0)
(5.13103 0.000262276 0)
(5.13103 0.00040376 0)
(5.13104 0.000547802 0)
(5.13104 0.000695781 0)
(5.13105 0.000849104 0)
(5.13106 0.00100921 0)
(5.13107 0.0011776 0)
(5.13109 0.00135582 0)
(5.1311 0.00154549 0)
(5.13112 0.00174837 0)
(5.13114 0.0019663 0)
(5.13116 0.00220125 0)
(5.13119 0.00245537 0)
(5.13122 0.00273095 0)
(5.13125 0.00303048 0)
(5.13128 0.00335665 0)
(5.13132 0.00371238 0)
(5.13137 0.00410088 0)
(5.13142 0.0045256 0)
(5.13147 0.00499033 0)
(5.13153 0.00549922 0)
(5.13159 0.0060568 0)
(5.13167 0.00666804 0)
(5.13174 0.00733839 0)
(5.13183 0.00807382 0)
(5.13193 0.00888091 0)
(5.13203 0.00976684 0)
(5.13215 0.0107395 0)
(5.13228 0.0118077 0)
(5.13242 0.0129808 0)
(5.13258 0.0142695 0)
(5.13275 0.0156852 0)
(5.13294 0.0172407 0)
(5.13315 0.01895 0)
(5.13339 0.0208285 0)
(5.13364 0.0228932 0)
(5.13393 0.0251628 0)
(5.13424 0.0276584 0)
(5.13459 0.030402 0)
(5.13497 0.033421 0)
(5.13539 0.0367396 0)
(5.13586 0.040397 0)
(5.13638 0.0444128 0)
(5.13695 0.0488558 0)
(5.1376 0.0537132 0)
(5.13827 0.0591403 0)
(5.13909 0.0649996 0)
(5.13986 0.0716991 0)
(5.14089 0.0787176 0)
(5.14175 0.0871282 0)
(5.14294 0.0954429 0)
(5.14398 0.106172 0)
(5.14486 0.115996 0)
(5.14665 0.129501 0)
(5.14566 0.141665 0)
(5.14993 0.157037 0)
(5.14386 0.174407 0)
(5.15381 0.18727 0)
(5.13882 0.216309 0)
(5.15783 0.218477 0)
(5.1319 0.267393 0)
(5.16234 0.253092 0)
(5.12463 0.322385 0)
(5.17068 0.302412 0)
(5.11412 0.371439 0)
(5.1913 0.379352 0)
(5.08881 0.416708 0)
(5.23409 0.474744 0)
(5.04569 0.481704 0)
(5.28629 0.573681 0)
(5.00713 0.569624 0)
(5.33407 0.695327 0)
(4.96253 0.669412 0)
(5.41192 0.842521 0)
(4.88928 0.799213 0)
(5.51055 1.01914 0)
(4.8301 0.952247 0)
(5.61056 1.23149 0)
(4.77685 1.17276 0)
(5.7175 1.4516 0)
(4.79777 1.46449 0)
(5.73641 1.71409 0)
(4.94115 1.86516 0)
(5.62229 1.96248 0)
(5.23612 2.40938 0)
(5.33939 2.26569 0)
(5.61948 3.03245 0)
(5.16428 2.81726 0)
(5.83721 3.57547 0)
(5.56678 3.9732 0)
(5.5935 4.0454 0)
(6.18743 5.46487 0)
(5.96573 5.47566 0)
(5.51821 6.8187 0)
(8.84154 7.21656 0)
(6.54624 12.4481 0)
(10.3214 -1.0619 0)
(10.3039 -1.28783 0)
(10.3237 -1.48139 0)
(10.3339 -1.62685 0)
(10.3271 -1.75109 0)
(10.2853 -1.90106 0)
(10.2051 -2.07304 0)
(10.0689 -2.24364 0)
(9.86178 -2.39202 0)
(9.62974 -2.51753 0)
(9.41833 -2.64178 0)
(9.21986 -2.7541 0)
(9.03194 -2.83985 0)
(8.85811 -2.91332 0)
(8.67529 -2.96773 0)
(8.47942 -2.99326 0)
(8.27343 -2.99978 0)
(8.03134 -2.96655 0)
(7.7462 -2.88082 0)
(7.43985 -2.77071 0)
(7.12264 -2.63355 0)
(6.8068 -2.45359 0)
(6.52458 -2.26058 0)
(6.29808 -2.08117 0)
(6.12344 -1.91119 0)
(5.98835 -1.74854 0)
(5.88386 -1.60073 0)
(5.80599 -1.47005 0)
(5.74682 -1.3505 0)
(5.69407 -1.23846 0)
(5.6438 -1.13566 0)
(5.60001 -1.04046 0)
(5.56357 -0.947944 0)
(5.52905 -0.857892 0)
(5.49022 -0.774791 0)
(5.44669 -0.70063 0)
(5.40423 -0.632555 0)
(5.36829 -0.567713 0)
(5.33924 -0.50698 0)
(5.31428 -0.453152 0)
(5.29114 -0.407537 0)
(5.26946 -0.369078 0)
(5.24991 -0.335662 0)
(5.23311 -0.305509 0)
(5.21916 -0.277667 0)
(5.20772 -0.251828 0)
(5.19826 -0.227965 0)
(5.19032 -0.206096 0)
(5.18352 -0.186183 0)
(5.17761 -0.168129 0)
(5.17242 -0.151801 0)
(5.16785 -0.137049 0)
(5.1638 -0.123728 0)
(5.16021 -0.111701 0)
(5.15703 -0.10084 0)
(5.15421 -0.0910332 0)
(5.15171 -0.082177 0)
(5.14948 -0.0741792 0)
(5.1475 -0.0669563 0)
(5.14575 -0.0604334 0)
(5.14418 -0.0545427 0)
(5.14279 -0.049223 0)
(5.14154 -0.0444193 0)
(5.14044 -0.0400817 0)
(5.13945 -0.0361651 0)
(5.13856 -0.0326287 0)
(5.13777 -0.0294359 0)
(5.13706 -0.0265533 0)
(5.13643 -0.0239508 0)
(5.13587 -0.0216013 0)
(5.13536 -0.0194803 0)
(5.1349 -0.0175655 0)
(5.1345 -0.0158369 0)
(5.13413 -0.0142764 0)
(5.1338 -0.0128675 0)
(5.13351 -0.0115954 0)
(5.13325 -0.0104468 0)
(5.13301 -0.00940945 0)
(5.1328 -0.00847251 0)
(5.1326 -0.00762608 0)
(5.13243 -0.00686117 0)
(5.13228 -0.00616971 0)
(5.13214 -0.00554435 0)
(5.13202 -0.00497848 0)
(5.13191 -0.00446607 0)
(5.13181 -0.00400169 0)
(5.13172 -0.00358039 0)
(5.13164 -0.00319772 0)
(5.13157 -0.00284961 0)
(5.1315 -0.00253239 0)
(5.13145 -0.0022427 0)
(5.1314 -0.00197751 0)
(5.13135 -0.00173403 0)
(5.13132 -0.00150972 0)
(5.13128 -0.00130221 0)
(5.13125 -0.00110937 0)
(5.13123 -0.000929154 0)
(5.13121 -0.000759726 0)
(5.13119 -0.000599303 0)
(5.13117 -0.000446269 0)
(5.13116 -0.000299035 0)
(5.13115 -0.000156138 0)
(5.13115 -1.61198e-05 0)
(5.13115 0.000122372 0)
(5.13115 0.000260728 0)
(5.13115 0.000400281 0)
(5.13116 0.000542388 0)
(5.13117 0.000688389 0)
(5.13118 0.000839692 0)
(5.1312 0.0009977 0)
(5.13122 0.0011639 0)
(5.13124 0.0013398 0)
(5.13126 0.00152705 0)
(5.13129 0.00172733 0)
(5.13133 0.0019425 0)
(5.13137 0.00217448 0)
(5.13141 0.00242541 0)
(5.13145 0.00269753 0)
(5.13151 0.00299332 0)
(5.13157 0.00331541 0)
(5.13163 0.00366672 0)
(5.1317 0.00405035 0)
(5.13178 0.00446976 0)
(5.13187 0.00492865 0)
(5.13197 0.00543114 0)
(5.13208 0.00598169 0)
(5.1322 0.00658521 0)
(5.13233 0.00724707 0)
(5.13247 0.00797318 0)
(5.13263 0.00876999 0)
(5.1328 0.00964464 0)
(5.133 0.0106049 0)
(5.13321 0.0116593 0)
(5.13344 0.0128174 0)
(5.1337 0.0140893 0)
(5.13398 0.0154867 0)
(5.1343 0.0170218 0)
(5.13464 0.0187086 0)
(5.13502 0.0205622 0)
(5.13544 0.0225994 0)
(5.1359 0.0248384 0)
(5.13641 0.0273003 0)
(5.13697 0.0300063 0)
(5.1376 0.0329841 0)
(5.13829 0.0362558 0)
(5.13904 0.0398638 0)
(5.13989 0.0438191 0)
(5.1408 0.048207 0)
(5.14187 0.052979 0)
(5.14294 0.0583617 0)
(5.14432 0.0640741 0)
(5.14551 0.0708077 0)
(5.14737 0.0774922 0)
(5.14856 0.0862629 0)
(5.15112 0.0936413 0)
(5.1521 0.105859 0)
(5.15534 0.112893 0)
(5.15637 0.131239 0)
(5.15852 0.135503 0)
(5.16282 0.164097 0)
(5.15629 0.161489 0)
(5.17587 0.205054 0)
(5.14105 0.190179 0)
(5.20327 0.253615 0)
(5.10581 0.220783 0)
(5.25049 0.307455 0)
(5.05521 0.258748 0)
(5.30766 0.359143 0)
(5.01357 0.316875 0)
(5.35129 0.406435 0)
(4.99833 0.396868 0)
(5.37946 0.462578 0)
(4.99553 0.489606 0)
(5.4056 0.540177 0)
(5.006 0.59051 0)
(5.41074 0.642389 0)
(5.05483 0.712658 0)
(5.38376 0.755005 0)
(5.13827 0.878345 0)
(5.32177 0.884334 0)
(5.27657 1.07037 0)
(5.20041 1.05223 0)
(5.46613 1.31893 0)
(5.05343 1.2397 0)
(5.69249 1.6213 0)
(4.89833 1.52249 0)
(5.91596 1.95993 0)
(4.87589 1.93399 0)
(5.98959 2.31692 0)
(5.14269 2.57868 0)
(5.72086 2.65376 0)
(5.74371 3.43798 0)
(5.25038 3.10662 0)
(6.2556 4.25711 0)
(5.68213 4.15492 0)
(5.80696 5.05554 0)
(8.03128 5.26275 0)
(5.32595 7.76329 0)
(10.1068 4.2338 0)
(8.48861 11.4259 0)
(11.1378 -1.06988 0)
(11.1252 -1.37232 0)
(11.1284 -1.62096 0)
(11.073 -1.76845 0)
(10.965 -1.87128 0)
(10.8109 -1.96841 0)
(10.6245 -2.06768 0)
(10.4286 -2.17253 0)
(10.2279 -2.26853 0)
(10.0437 -2.36014 0)
(9.88215 -2.4661 0)
(9.70806 -2.56901 0)
(9.51323 -2.65365 0)
(9.29801 -2.72937 0)
(9.03978 -2.78327 0)
(8.74531 -2.80625 0)
(8.42496 -2.80086 0)
(8.07572 -2.74861 0)
(7.72357 -2.64702 0)
(7.39141 -2.52362 0)
(7.08357 -2.38377 0)
(6.81951 -2.22326 0)
(6.61216 -2.06811 0)
(6.44559 -1.93257 0)
(6.30499 -1.79994 0)
(6.1891 -1.66518 0)
(6.09267 -1.5383 0)
(6.00936 -1.42066 0)
(5.93499 -1.30521 0)
(5.863 -1.19099 0)
(5.78975 -1.08607 0)
(5.71769 -0.994342 0)
(5.65067 -0.908896 0)
(5.59038 -0.822589 0)
(5.53509 -0.73754 0)
(5.4817 -0.660655 0)
(5.43084 -0.594455 0)
(5.38675 -0.535986 0)
(5.35226 -0.482169 0)
(5.32628 -0.432901 0)
(5.30564 -0.389478 0)
(5.28763 -0.352243 0)
(5.27096 -0.320186 0)
(5.25544 -0.291812 0)
(5.24128 -0.265943 0)
(5.22864 -0.241961 0)
(5.21752 -0.219666 0)
(5.2078 -0.199045 0)
(5.1993 -0.180112 0)
(5.19182 -0.162838 0)
(5.18523 -0.14715 0)
(5.1794 -0.132939 0)
(5.17422 -0.120086 0)
(5.16962 -0.108468 0)
(5.16552 -0.0979675 0)
(5.16188 -0.0884789 0)
(5.15863 -0.0799044 0)
(5.15574 -0.0721558 0)
(5.15316 -0.0651536 0)
(5.15085 -0.0588262 0)
(5.14879 -0.0531088 0)
(5.14695 -0.047943 0)
(5.14531 -0.0432758 0)
(5.14383 -0.0390595 0)
(5.14251 -0.0352508 0)
(5.14133 -0.0318105 0)
(5.14027 -0.0287032 0)
(5.13932 -0.0258969 0)
(5.13847 -0.0233625 0)
(5.13771 -0.0210739 0)
(5.13702 -0.0190072 0)
(5.13641 -0.017141 0)
(5.13585 -0.0154559 0)
(5.13536 -0.0139343 0)
(5.13491 -0.0125604 0)
(5.13451 -0.0113196 0)
(5.13415 -0.0101991 0)
(5.13382 -0.00918697 0)
(5.13353 -0.0082727 0)
(5.13327 -0.00744662 0)
(5.13303 -0.00670002 0)
(5.13282 -0.00602503 0)
(5.13263 -0.0054145 0)
(5.13246 -0.00486198 0)
(5.13231 -0.00436161 0)
(5.13217 -0.00390808 0)
(5.13205 -0.0034966 0)
(5.13194 -0.00312278 0)
(5.13184 -0.00278271 0)
(5.13175 -0.00247278 0)
(5.13168 -0.00218973 0)
(5.13161 -0.0019306 0)
(5.13155 -0.00169267 0)
(5.13149 -0.00147346 0)
(5.13145 -0.00127065 0)
(5.13141 -0.00108215 0)
(5.13137 -0.000905981 0)
(5.13134 -0.000740309 0)
(5.13132 -0.000583435 0)
(5.1313 -0.000433732 0)
(5.13128 -0.000289684 0)
(5.13127 -0.000149823 0)
(5.13126 -1.27575e-05 0)
(5.13126 0.000122868 0)
(5.13126 0.000258376 0)
(5.13127 0.000395084 0)
(5.13128 0.000534314 0)
(5.13129 0.000677406 0)
(5.13131 0.000825713 0)
(5.13133 0.000980625 0)
(5.13136 0.00114358 0)
(5.13139 0.00131609 0)
(5.13142 0.00149973 0)
(5.13147 0.00169618 0)
(5.13151 0.00190724 0)
(5.13156 0.00213482 0)
(5.13162 0.00238099 0)
(5.13169 0.00264796 0)
(5.13176 0.00293815 0)
(5.13185 0.00325417 0)
(5.13194 0.00359882 0)
(5.13204 0.00397521 0)
(5.13215 0.00438668 0)
(5.13227 0.0048369 0)
(5.13241 0.00532987 0)
(5.13256 0.00586999 0)
(5.13272 0.00646207 0)
(5.1329 0.00711137 0)
(5.1331 0.00782367 0)
(5.13332 0.00860532 0)
(5.13356 0.00946328 0)
(5.13383 0.0104052 0)
(5.13412 0.0114394 0)
(5.13445 0.0125752 0)
(5.1348 0.0138226 0)
(5.1352 0.0151929 0)
(5.13563 0.0166981 0)
(5.1361 0.018352 0)
(5.13663 0.0201691 0)
(5.13721 0.022166 0)
(5.13784 0.0243605 0)
(5.13855 0.026773 0)
(5.13932 0.0294242 0)
(5.14018 0.0323416 0)
(5.14113 0.035545 0)
(5.14216 0.03908 0)
(5.14334 0.042948 0)
(5.14458 0.0472515 0)
(5.14606 0.0519035 0)
(5.14751 0.0572043 0)
(5.14947 0.0627258 0)
(5.15102 0.0694363 0)
(5.15383 0.075751 0)
(5.15507 0.0847378 0)
(5.1596 0.0912784 0)
(5.15928 0.104483 0)
(5.16767 0.109462 0)
(5.16221 0.131011 0)
(5.17953 0.130152 0)
(5.16049 0.16724 0)
(5.19755 0.153039 0)
(5.14873 0.213966 0)
(5.22589 0.178506 0)
(5.12189 0.266766 0)
(5.26973 0.21119 0)
(5.08021 0.316514 0)
(5.33086 0.262275 0)
(5.02735 0.356654 0)
(5.41154 0.332751 0)
(4.96249 0.406304 0)
(5.50815 0.399863 0)
(4.90109 0.485472 0)
(5.59361 0.47627 0)
(4.86891 0.564707 0)
(5.66444 0.591334 0)
(4.84823 0.65257 0)
(5.74796 0.711691 0)
(4.84052 0.783428 0)
(5.81524 0.851549 0)
(4.89424 0.92748 0)
(5.85111 1.02207 0)
(5.00685 1.12924 0)
(5.84258 1.1971 0)
(5.25172 1.3759 0)
(5.71743 1.41368 0)
(5.63099 1.72224 0)
(5.50082 1.62198 0)
(6.14688 2.14895 0)
(5.24613 1.92451 0)
(6.603 2.65648 0)
(5.32809 2.38374 0)
(6.64897 3.19257 0)
(6.30928 3.07463 0)
(5.95367 3.98978 0)
(8.27378 3.49025 0)
(5.28165 5.83857 0)
(10.0728 2.73781 0)
(6.77628 8.40522 0)
(10.4111 2.53575 0)
(9.34262 9.64733 0)
(11.3685 -1.00291 0)
(11.3506 -1.18254 0)
(11.3738 -1.32713 0)
(11.3257 -1.43884 0)
(11.2086 -1.53957 0)
(11.0408 -1.6333 0)
(10.857 -1.74011 0)
(10.6797 -1.87073 0)
(10.4956 -2.00107 0)
(10.3096 -2.1305 0)
(10.1143 -2.2664 0)
(9.87702 -2.38549 0)
(9.60235 -2.47149 0)
(9.30283 -2.52509 0)
(8.97924 -2.55269 0)
(8.64432 -2.55592 0)
(8.306 -2.52365 0)
(7.97739 -2.46023 0)
(7.68357 -2.37304 0)
(7.42806 -2.26211 0)
(7.1989 -2.14581 0)
(7.00186 -2.0377 0)
(6.83927 -1.92982 0)
(6.68777 -1.81398 0)
(6.53756 -1.69047 0)
(6.40207 -1.56772 0)
(6.28042 -1.45265 0)
(6.1624 -1.34193 0)
(6.04907 -1.23006 0)
(5.94453 -1.11815 0)
(5.84878 -1.01276 0)
(5.7598 -0.919119 0)
(5.67519 -0.835781 0)
(5.59637 -0.757451 0)
(5.52828 -0.681894 0)
(5.47233 -0.612265 0)
(5.42559 -0.552145 0)
(5.38581 -0.500977 0)
(5.35299 -0.455556 0)
(5.32745 -0.413642 0)
(5.30823 -0.374987 0)
(5.29325 -0.340044 0)
(5.28044 -0.30882 0)
(5.26843 -0.280802 0)
(5.25665 -0.255363 0)
(5.24509 -0.232046 0)
(5.23397 -0.210594 0)
(5.22354 -0.190882 0)
(5.21395 -0.172834 0)
(5.20526 -0.156376 0)
(5.19745 -0.141415 0)
(5.19046 -0.127848 0)
(5.18423 -0.115561 0)
(5.17867 -0.104441 0)
(5.1737 -0.0943814 0)
(5.16927 -0.0852824 0)
(5.16532 -0.0770528 0)
(5.16178 -0.06961 0)
(5.15862 -0.0628792 0)
(5.15579 -0.0567929 0)
(5.15325 -0.0512899 0)
(5.15098 -0.0463149 0)
(5.14895 -0.0418177 0)
(5.14712 -0.0377529 0)
(5.14549 -0.0340795 0)
(5.14402 -0.0307599 0)
(5.1427 -0.0277606 0)
(5.14151 -0.0250508 0)
(5.14045 -0.0226028 0)
(5.1395 -0.0203916 0)
(5.13864 -0.0183942 0)
(5.13786 -0.0165903 0)
(5.13717 -0.0149609 0)
(5.13654 -0.0134894 0)
(5.13598 -0.0121604 0)
(5.13548 -0.01096 0)
(5.13502 -0.00987577 0)
(5.13461 -0.00889632 0)
(5.13425 -0.00801139 0)
(5.13392 -0.00721173 0)
(5.13362 -0.0064889 0)
(5.13335 -0.00583533 0)
(5.13311 -0.0052441 0)
(5.13289 -0.00470899 0)
(5.1327 -0.00422432 0)
(5.13253 -0.00378499 0)
(5.13237 -0.00338633 0)
(5.13223 -0.00302415 0)
(5.13211 -0.00269463 0)
(5.132 -0.0023943 0)
(5.1319 -0.00212001 0)
(5.13181 -0.00186888 0)
(5.13173 -0.00163828 0)
(5.13167 -0.00142579 0)
(5.13161 -0.00122917 0)
(5.13156 -0.00104639 0)
(5.13151 -0.000875525 0)
(5.13147 -0.000714801 0)
(5.13144 -0.00056256 0)
(5.13142 -0.000417232 0)
(5.1314 -0.000277356 0)
(5.13139 -0.000141493 0)
(5.13138 -8.32374e-06 0)
(5.13137 0.000123515 0)
(5.13138 0.000255276 0)
(5.13138 0.000388222 0)
(5.13139 0.000523664 0)
(5.13141 0.000662896 0)
(5.13143 0.000807238 0)
(5.13146 0.000958035 0)
(5.1315 0.0011167 0)
(5.13154 0.00128468 0)
(5.13158 0.00146354 0)
(5.13163 0.00165489 0)
(5.13169 0.00186051 0)
(5.13176 0.00208223 0)
(5.13184 0.00232209 0)
(5.13192 0.00258225 0)
(5.13201 0.00286504 0)
(5.13212 0.00317301 0)