/*--------------------------------*- C++ -*----------------------------------*\
| =========                 |                                                 |
| \\      /  F ield         | OpenFOAM: The Open Source CFD Toolbox           |
|  \\    /   O peration     | Version:  2.4.0                                 |
|   \\  /    A nd           | Web:      www.OpenFOAM.org                      |
|    \\/     M anipulation  |                                                 |
\*---------------------------------------------------------------------------*/
FoamFile
{
    version     2.0;
    format      ascii;
    class       volScalarField;
    location    "1.66";
    object      k_0;
}
// * * * * * * * * * * * * * * * * * * * * * * * * * * * * * * * * * * * * * //

dimensions      [0 2 -2 0 0 0 0];

internalField   nonuniform List<scalar> 
8800
(
8.10811
10.2823
8.77999
6.84475
5.67946
5.007
4.48759
4.19063
3.86353
3.72092
3.49028
3.42045
3.24416
3.21179
3.05293
3.03742
2.90002
2.88354
2.83078
2.64844
1.38807
4.36772
5.30872
5.29476
5.10932
4.85465
4.52707
4.34411
4.06073
3.94198
3.71822
3.63836
3.46883
3.42196
3.28479
3.25185
3.14478
3.10667
3.01486
3.01421
0.0831562
0.747629
1.5434
1.96629
2.24176
2.47254
2.54597
2.62238
2.61588
2.61041
2.57595
2.55736
2.50934
2.4872
2.44815
2.41723
2.39526
2.35355
2.30554
2.29168
0.00327306
0.0713403
0.24534
0.43761
0.568886
0.715375
0.829579
0.927176
1.03315
1.09157
1.16357
1.20845
1.26832
1.2906
1.34628
1.35925
1.4047
1.4073
1.41681
1.40706
0.000117917
0.00509099
0.022615
0.0536979
0.0856394
0.119588
0.168484
0.195784
0.253209
0.279234
0.325384
0.349559
0.397776
0.418131
0.466967
0.486662
0.535074
0.552564
0.590819
0.601735
2.56879e-05
0.000327223
0.00167133
0.00390475
0.00763187
0.0110618
0.0187322
0.0238318
0.0352823
0.0430367
0.052203
0.0624926
0.0748558
0.0811987
0.0965092
0.106231
0.118301
0.135312
0.146443
0.160718
2.24166e-05
4.59431e-05
0.000132859
0.000343812
0.000488574
0.000706168
0.00125459
0.00170593
0.00256758
0.00403685
0.00467867
0.00625391
0.00718159
0.00924873
0.0106703
0.0133867
0.0148736
0.0190839
0.0209799
0.0265765
2.11326e-05
2.97509e-05
4.76517e-05
9.01964e-05
9.63297e-05
0.000105454
0.000119809
0.000157116
0.000195982
0.000313753
0.000343751
0.000451516
0.000492029
0.000658671
0.000733278
0.000981427
0.0010789
0.00154775
0.00174344
0.00281861
2.08281e-05
3.07086e-05
3.83747e-05
5.82659e-05
7.41552e-05
7.80546e-05
7.60748e-05
7.53288e-05
7.72354e-05
9.0541e-05
9.34246e-05
0.000100066
0.000100914
0.000108794
0.000113245
0.000128541
0.000131328
0.000154128
0.000163346
0.000225139
2.07144e-05
2.79495e-05
3.53764e-05
5.88469e-05
6.98841e-05
6.98705e-05
6.6775e-05
6.55716e-05
6.73609e-05
7.5667e-05
7.67378e-05
7.70915e-05
7.61856e-05
7.54103e-05
7.66209e-05
8.16741e-05
8.34099e-05
8.58583e-05
8.86265e-05
9.02244e-05
2.05771e-05
2.96586e-05
4.03205e-05
5.10218e-05
5.82904e-05
6.93849e-05
7.36993e-05
7.27419e-05
6.84289e-05
7.01561e-05
7.10711e-05
7.34636e-05
7.74938e-05
8.25072e-05
8.1694e-05
8.07711e-05
8.10338e-05
8.66857e-05
8.70141e-05
9.02753e-05
2.07513e-05
3.1825e-05
4.16913e-05
5.17482e-05
6.99516e-05
7.71192e-05
7.69702e-05
7.53167e-05
7.7074e-05
8.6459e-05
8.98479e-05
9.67404e-05
0.000106048
0.000110338
0.000112155
0.000119905
0.000140473
0.000153612
0.000168061
0.000191415
2.09987e-05
3.21824e-05
4.50386e-05
7.78294e-05
9.90715e-05
0.000110488
0.000127838
0.000176023
0.000209805
0.000291783
0.000329327
0.000425496
0.00049378
0.00067187
0.00078379
0.00105913
0.00122845
0.00159148
0.00195942
0.00241256
2.16454e-05
4.29585e-05
0.000115108
0.00036296
0.000536433
0.000896114
0.00125617
0.00210308
0.00259984
0.0038569
0.00457958
0.00634654
0.00736066
0.00985172
0.0112053
0.0142918
0.0160641
0.0204363
0.0232748
0.0298035
2.49592e-05
0.000306144
0.00141225
0.00479387
0.00747251
0.0129006
0.0175119
0.0271864
0.032421
0.0446468
0.0507796
0.0648713
0.0717215
0.087161
0.0947681
0.112578
0.121698
0.144148
0.157185
0.191094
0.000124109
0.00492217
0.0214073
0.056707
0.08741
0.122515
0.16294
0.209537
0.235992
0.290433
0.313891
0.363341
0.385717
0.43404
0.455571
0.506141
0.529904
0.589011
0.618037
0.690597
0.00337644
0.0695676
0.254733
0.422692
0.588642
0.695545
0.839977
0.930978
1.02037
1.09921
1.1544
1.21993
1.25678
1.30843
1.33206
1.3824
1.40269
1.45504
1.47668
1.52845
0.0847237
0.727764
1.56436
1.94083
2.28315
2.4259
2.58341
2.5974
2.62511
2.59844
2.58842
2.54149
2.5254
2.47429
2.46028
2.41922
2.40921
2.38222
2.37156
2.34625
1.40829
4.34569
5.32199
5.28576
5.13157
4.79993
4.584
4.27738
4.13004
3.86817
3.77987
3.57675
3.52052
3.36665
3.32875
3.20059
3.17155
3.05239
3.01276
2.91161
8.12322
10.257
8.79899
6.81168
5.7146
4.96197
4.53548
4.13148
3.92574
3.64894
3.55626
3.34534
3.30234
3.13317
3.10288
2.93988
2.90661
2.72772
2.66138
2.44214
1.88104
1.40075
1.09833
0.886364
0.740729
0.644282
0.585584
0.555265
0.535683
0.521265
0.51352
0.508847
0.506702
0.506927
0.505515
0.504303
0.502779
0.498856
0.493579
0.489985
0.481132
0.474757
0.466636
0.452922
0.440362
0.426633
0.399469
0.378366
0.344824
0.304238
0.260723
0.224424
0.194065
0.163415
0.145983
0.137038
0.137933
0.143515
0.156051
0.186974
0.222592
0.252935
0.293171
0.322847
0.341271
0.355717
0.359738
0.363341
0.36469
0.36268
0.354164
0.344899
0.334543
0.31723
0.284203
0.258661
0.226963
0.1863
0.14872
0.114006
0.0833409
0.0615636
0.044822
0.0321094
0.0237215
0.0170851
0.0127587
0.010274
0.00818904
0.00749542
0.00711565
0.00693312
0.00701021
0.00723318
0.00731942
0.00769866
0.0083853
0.0088037
0.0097899
0.0111897
0.0136984
0.0187704
0.026716
0.0314739
0.0411309
0.0507113
0.0536638
0.0531734
0.0505549
0.0463571
0.0404615
0.035282
0.0326883
0.0311043
0.0266404
0.0221639
0.0179829
0.0169651
0.0183304
0.0237889
0.0415062
0.10234
0.295303
0.365427
0.368998
0.387682
0.405034
0.388353
0.309158
0.206917
0.141048
0.105286
0.0871371
0.0747722
0.0660104
0.0610674
0.0592571
0.056487
0.0527167
0.0516687
0.0523404
0.061522
0.0711681
0.0759936
0.0847262
0.0967021
0.105801
0.113274
0.118473
0.119899
0.113566
0.0908334
0.0799211
0.0700987
0.0554397
0.0494697
0.0434541
0.0416022
0.035621
0.0273808
0.0241019
0.0234445
0.0244559
0.0334202
0.0489813
0.0548434
0.054945
0.0545252
0.0564202
0.0607582
0.0620874
0.0627867
0.0643697
0.069663
0.0727016
0.0712941
0.0662014
0.059864
0.0548761
0.0502716
0.0459824
0.0413374
0.0381296
0.0374221
0.0376965
0.0394563
0.0406858
0.0419106
0.0436379
0.043598
0.040755
0.0378428
0.0351697
0.0343307
0.0342445
0.0347212
0.0383174
0.0499769
0.0551864
0.0561146
0.054779
0.0491431
0.0435735
0.0399652
0.0375987
0.0387719
0.0383349
0.0385606
0.0390787
0.0405483
0.043153
0.0470059
0.047845
0.0490083
0.0442204
0.0448905
0.0500783
0.0685741
0.197123
1.53355
2.57314
2.11232
1.78005
1.5364
1.35094
1.20653
1.09494
1.00791
0.941605
0.889671
0.843872
0.809664
0.771914
0.750635
0.725281
0.707428
0.694176
0.678823
0.667304
0.655192
0.642293
0.630036
0.621418
0.61348
0.604593
0.600756
0.591028
0.58268
0.571182
0.557142
0.531366
0.504349
0.489503
0.458323
0.431534
0.414667
0.402853
0.402127
0.399353
0.395651
0.394626
0.391709
0.386245
0.384182
0.380963
0.37304
0.365553
0.35129
0.332242
0.316509
0.288354
0.257719
0.228434
0.192921
0.15398
0.113918
0.0854579
0.0629725
0.0456413
0.0329857
0.023651
0.0171141
0.0126087
0.00928744
0.00714071
0.00574517
0.00486937
0.00451208
0.00430318
0.00432307
0.00456516
0.00534501
0.00559752
0.00577112
0.005902
0.0062184
0.0066925
0.00698418
0.00719871
0.00765693
0.00853363
0.0108938
0.0130858
0.014334
0.0168296
0.0199103
0.0238498
0.0244256
0.024507
0.0238577
0.0228365
0.022204
0.0208449
0.0188798
0.0147805
0.0128123
0.0130729
0.0147752
0.0204171
0.0358187
0.0750165
0.231197
0.378331
0.393754
0.408296
0.450976
0.452865
0.400772
0.264601
0.167329
0.114092
0.0900292
0.0790672
0.069704
0.062435
0.0583586
0.057056
0.0547088
0.0516101
0.0511401
0.0525255
0.0652197
0.07709
0.0838823
0.0916287
0.100657
0.106952
0.112474
0.117527
0.118239
0.110845
0.0874294
0.0757709
0.0696318
0.0545451
0.0473228
0.0403696
0.0369602
0.0324614
0.025707
0.0231255
0.0223306
0.0227625
0.0268371
0.0412456
0.0503379
0.0524777
0.0521853
0.0528886
0.0557634
0.0590764
0.0600066
0.0598482
0.0604695
0.0628357
0.0654442
0.0641484
0.0604687
0.0567535
0.0526818
0.0484998
0.0425832
0.0394068
0.0389448
0.0397416
0.0416074
0.0416453
0.0418164
0.0429181
0.0426534
0.0403144
0.0374895
0.0360066
0.0358351
0.0359711
0.0367004
0.0403765
0.0515155
0.0577867
0.0594194
0.0577525
0.0554275
0.0488229
0.0468224
0.0418344
0.0391355
0.0378611
0.0383011
0.0373836
0.0371841
0.0391409
0.045408
0.0477367
0.0489063
0.0545844
0.0514357
0.0529889
0.0612488
0.170066
0.754835
2.08018
1.84367
1.63429
1.4678
1.33234
1.21859
1.11728
1.03858
0.965317
0.912761
0.863252
0.831191
0.796319
0.766104
0.739982
0.707775
0.688177
0.664413
0.651749
0.639482
0.629896
0.621492
0.607249
0.598577
0.583918
0.574443
0.56737
0.565471
0.562583
0.559441
0.558056
0.551963
0.541784
0.533964
0.514443
0.498341
0.483783
0.461282
0.448227
0.427075
0.403961
0.391142
0.371105
0.338968
0.319457
0.296052
0.25764
0.226233
0.196906
0.165566
0.135633
0.105318
0.0827178
0.0633718
0.0478224
0.035457
0.0262181
0.019083
0.0135791
0.00975661
0.00711933
0.00536894
0.00425696
0.00354853
0.00308551
0.00296181
0.00289026
0.00289613
0.0030539
0.00334214
0.00391796
0.0048802
0.00514918
0.00520314
0.00525297
0.00573587
0.00646835
0.00674903
0.00673306
0.00661628
0.00669091
0.00737241
0.00792627
0.00893934
0.00943317
0.0112464
0.0123721
0.012772
0.0127043
0.0121391
0.0117001
0.0108192
0.0101135
0.00960112
0.00969218
0.0103513
0.0121048
0.0181888
0.0349476
0.0671594
0.140956
0.35009
0.409183
0.41352
0.458664
0.508187
0.495384
0.389952
0.234636
0.143893
0.100429
0.0826613
0.0753556
0.0677232
0.0612953
0.0568
0.0553257
0.0533689
0.0508393
0.0507553
0.0537022
0.0720636
0.0833626
0.0892046
0.0960248
0.101785
0.106808
0.110296
0.115318
0.11535
0.104895
0.0848053
0.0717896
0.0678414
0.0538837
0.0421177
0.0366417
0.032397
0.0294867
0.0244102
0.0227039
0.0219637
0.0220244
0.0237924
0.0337045
0.0457471
0.0502373
0.050818
0.0508991
0.0521376
0.0571918
0.0584044
0.0572046
0.0570079
0.0602028
0.0627856
0.0622515
0.0600456
0.0571756
0.0536773
0.0503357
0.0441447
0.0422035
0.0420821
0.0431528
0.0431135
0.0420191
0.0419766
0.0428094
0.0423975
0.040088
0.0379085
0.0373596
0.0372475
0.0374761
0.0383406
0.0441292
0.0564404
0.0638265
0.0636768
0.0635953
0.0585015
0.0577003
0.0550801
0.0524389
0.0449074
0.0428021
0.0394834
0.0388073
0.0371149
0.0374796
0.042192
0.0475412
0.0505379
0.0548224
0.054703
0.0623114
0.0644169
0.144683
0.409708
1.31999
1.22177
1.11859
1.04173
0.970096
0.921013
0.865029
0.811338
0.755257
0.702793
0.659552
0.624617
0.60258
0.579748
0.563835
0.543828
0.522557
0.501903
0.486545
0.475482
0.469036
0.466993
0.461876
0.456446
0.444699
0.424409
0.412816
0.402602
0.399912
0.400265
0.402483
0.412114
0.415579
0.416002
0.413211
0.406856
0.389245
0.361564
0.33942
0.306578
0.272879
0.246679
0.209827
0.171096
0.140752
0.112597
0.0867565
0.0691504
0.0549403
0.0437667
0.0353159
0.0285525
0.0232343
0.0184152
0.0142651
0.0107653
0.00800238
0.00593002
0.00449376
0.00351777
0.00298693
0.0026482
0.00248403
0.00243181
0.00242565
0.00244463
0.00250893
0.00267585
0.00297811
0.0038117
0.00418629
0.00462992
0.00573109
0.00607611
0.00603836
0.00609541
0.00647234
0.00657931
0.00655998
0.00639353
0.0060904
0.00605496
0.00615735
0.00643741
0.00693343
0.00815265
0.00859293
0.00899241
0.0086896
0.00846823
0.00817239
0.00795837
0.00803785
0.00827802
0.009013
0.0108964
0.0166721
0.0360462
0.0695705
0.112399
0.246739
0.399987
0.414798
0.431797
0.519379
0.556911
0.528779
0.386404
0.220231
0.131011
0.0929909
0.0788646
0.0734335
0.0672954
0.0612967
0.056751
0.0551566
0.0528518
0.0508041
0.0510044
0.0573593
0.0800141
0.0882044
0.0930551
0.0978017
0.100774
0.103713
0.105134
0.108508
0.107021
0.0892847
0.0785007
0.0634308
0.0606413
0.0493917
0.0361111
0.0336728
0.0294883
0.0273832
0.0235693
0.0220372
0.0218752
0.0220832
0.02284
0.0275088
0.0399453
0.0471677
0.049392
0.0496024
0.0503217
0.0521165
0.0521428
0.0520186
0.0559865
0.0594991
0.0600857
0.0598645
0.0584493
0.0562722
0.0547265
0.0529272
0.0468095
0.0456124
0.0450191
0.0449015
0.0434313
0.0420722
0.0424836
0.0425867
0.0420116
0.0398049
0.038618
0.0384652
0.0385492
0.0392097
0.041061
0.0488674
0.0630788
0.0709238
0.0726803
0.0721285
0.0681811
0.0647784
0.0620721
0.0586888
0.0519325
0.0486182
0.0443994
0.0415027
0.0406498
0.0396329
0.0427148
0.0480688
0.0502227
0.0632639
0.0611918
0.103743
0.0786569
0.103552
0.229108
0.580785
0.557835
0.514404
0.490256
0.464956
0.447028
0.440333
0.425867
0.411318
0.388271
0.359065
0.333679
0.30974
0.294203
0.284947
0.281241
0.276117
0.265999
0.25537
0.242623
0.233158
0.231348
0.231009
0.231916
0.236837
0.238084
0.238203
0.227951
0.212815
0.201254
0.192187
0.190619
0.187462
0.188971
0.192563
0.191722
0.187845
0.181754
0.172659
0.155922
0.134907
0.109224
0.0854669
0.0650413
0.0483934
0.0355525
0.0259321
0.0192373
0.0146774
0.0117398
0.00977015
0.00817436
0.00690789
0.00567598
0.00443055
0.00350145
0.0028558
0.00238028
0.0022672
0.00224824
0.00226317
0.00230936
0.00244096
0.00258715
0.00281115
0.00309396
0.00354775
0.00440542
0.00523926
0.00577713
0.00587637
0.00591103
0.00711647
0.00810851
0.00811132
0.00766308
0.00751052
0.00752603
0.00747302
0.00734227
0.00678858
0.00622542
0.00607321
0.00604622
0.00624333
0.00659693
0.00721801
0.00728533
0.00733389
0.007591
0.00755728
0.00768496
0.0079787
0.0087691
0.0108489
0.0164745
0.0325806
0.0761028
0.108313
0.16666
0.325273
0.40657
0.413578
0.479625
0.575178
0.612226
0.571698
0.398853
0.215915
0.126563
0.0903694
0.077426
0.0726202
0.0682999
0.0636619
0.0591595
0.0570745
0.0536588
0.0519268
0.052646
0.0646671
0.0835731
0.0898288
0.0936712
0.0970462
0.0983582
0.0994533
0.0996392
0.101764
0.0986294
0.0783131
0.0682277
0.0573879
0.0502059
0.0453445
0.0343824
0.0312316
0.0279905
0.0269683
0.0237376
0.0220402
0.0217992
0.0221622
0.0223517
0.0242009
0.0328154
0.0422911
0.0467961
0.0483752
0.0486603
0.0481933
0.0475179
0.0484931
0.0532258
0.0527679
0.0518643
0.0523581
0.054254
0.0542674
0.0542326
0.0527709
0.0473544
0.0455825
0.0447996
0.0444199
0.0430702
0.042931
0.043336
0.0431453
0.0417169
0.0402142
0.0399066
0.0401068
0.0406024
0.0417654
0.044336
0.0561398
0.0741258
0.0800757
0.0835823
0.0825631
0.0834702
0.0815482
0.0807166
0.0756576
0.0717405
0.0661943
0.0618387
0.0576382
0.0486841
0.0474782
0.047305
0.0602004
0.0590497
0.100268
0.0851297
0.147696
0.123946
0.115766
0.16576
0.15767
0.153784
0.143124
0.135193
0.128478
0.125895
0.126506
0.126868
0.127522
0.12714
0.120829
0.112149
0.101774
0.0943368
0.0891521
0.0864671
0.0855571
0.0847915
0.0815485
0.0757027
0.0710622
0.0697215
0.069311
0.0703629
0.0765713
0.0804625
0.0842068
0.085128
0.084267
0.076824
0.0666246
0.0607222
0.0545147
0.0503091
0.0478285
0.0474458
0.0489533
0.0494633
0.0490786
0.0473758
0.0449428
0.0381759
0.0292528
0.0211893
0.0147985
0.0102446
0.00725165
0.00535924
0.00423491
0.00359146
0.00310836
0.00275249
0.00239572
0.00208304
0.00183563
0.00175485
0.00175984
0.00182189
0.00203003
0.00239917
0.00290891
0.00362467
0.00466081
0.00536246
0.00601601
0.00746573
0.00882982
0.0098274
0.0103575
0.0104713
0.0104396
0.010421
0.0110562
0.0119394
0.0120681
0.0116638
0.010542
0.00932849
0.00852448
0.00811559
0.00747525
0.00700394
0.00647772
0.00626854
0.00625776
0.00628676
0.00650036
0.00668375
0.00727594
0.00751922
0.00799002
0.00870672
0.00972649
0.0119759
0.0169372
0.0311465
0.0771611
0.111067
0.14081
0.215497
0.368622
0.402581
0.420761
0.522279
0.615838
0.670036
0.634123
0.455617
0.229664
0.127443
0.0899846
0.0771634
0.0725269
0.06954
0.0654375
0.0625399
0.059255
0.0546916
0.0536687
0.0563908
0.0749971
0.0874087
0.0899268
0.0918077
0.0939819
0.094633
0.0969663
0.096786
0.0988914
0.0950418
0.0721369
0.0622289
0.0557078
0.0468054
0.0430928
0.0343949
0.0295615
0.0273403
0.0272355
0.0249183
0.0227133
0.0219964
0.0220044
0.0217651
0.0225736
0.0273815
0.0366269
0.0438288
0.046784
0.0474636
0.0468349
0.0465759
0.0475823
0.0487073
0.0466149
0.045485
0.0457351
0.0475521
0.0494375
0.0512318
0.0495036
0.0457201
0.044662
0.0453081
0.045091
0.0451232
0.0454383
0.0454471
0.044398
0.0421338
0.0417168
0.0417755
0.0421669
0.0429776
0.0453434
0.0495889
0.0725762
0.0846024
0.0972705
0.0974301
0.100767
0.101904
0.102931
0.0975109
0.108982
0.0962913
0.129247
0.108381
0.136481
0.0991155
0.131543
0.0940473
0.140787
0.101658
0.128507
0.103468
0.116055
0.126812
0.122448
0.141093
0.0263461
0.0257288
0.0240306
0.0221433
0.0211156
0.0209862
0.0212968
0.0220862
0.0231411
0.0234651
0.0233498
0.0223841
0.0198752
0.0179547
0.016679
0.0160977
0.0160775
0.0161443
0.0161535
0.0155616
0.0143231
0.0138186
0.0136243
0.0139147
0.016397
0.0185867
0.0204304
0.0208637
0.0206355
0.0182876
0.0150891
0.0124211
0.0102437
0.00838684
0.00732533
0.00721854
0.00939528
0.0124847
0.0139254
0.0139915
0.013519
0.0110344
0.00789684
0.0054205
0.00389595
0.00286567
0.00229546
0.00197395
0.00172879
0.00160758
0.00152418
0.00149084
0.00147578
0.00149089
0.00156332
0.00171676
0.00196218
0.00263818
0.00397411
0.0053317
0.00761198
0.0098995
0.0121978
0.0141966
0.0164399
0.0191762
0.0205266
0.0208178
0.0216459
0.0217242
0.021517
0.0200945
0.018386
0.0178718
0.0175309
0.0172236
0.015737
0.0124567
0.0104436
0.00917202
0.00853519
0.0083455
0.00793765
0.00729495
0.00689668
0.00691928
0.00704088
0.00746744
0.00834198
0.00880816
0.0100246
0.0111474
0.0132394
0.0172763
0.0294155
0.0739733
0.116876
0.1351
0.159328
0.252713
0.39986
0.408974
0.438439
0.536356
0.641906
0.727951
0.727871
0.55584
0.284594
0.146026
0.0947144
0.0789876
0.0740575
0.0704287
0.0658737
0.0638337
0.0602478
0.055556
0.0552531
0.0611594
0.0824042
0.087957
0.088772
0.0886289
0.0891605
0.0880258
0.0931934
0.095209
0.0946855
0.0906847
0.0689392
0.0579034
0.0534031
0.0451344
0.0414078
0.033821
0.029282
0.0264486
0.0270913
0.0260961
0.0249654
0.0231285
0.0221461
0.0215291
0.021746
0.0238033
0.0318643
0.0419523
0.0456295
0.0465503
0.0460786
0.0462835
0.0474774
0.0481434
0.0457248
0.0437609
0.0435691
0.0453687
0.0488836
0.0499932
0.0476446
0.0451755
0.0452634
0.0480311
0.0485498
0.0493663
0.0489254
0.0471709
0.0443168
0.0438555
0.0439393
0.0449994
0.0457568
0.0472526
0.0516987
0.0607523
0.0947442
0.104262
0.12021
0.119614
0.127392
0.129188
0.126589
0.127564
0.17023
0.162217
0.223624
0.211799
0.280595
0.227002
0.281738
0.205536
0.220529
0.163363
0.159509
0.139091
0.142875
0.142401
0.132369
0.137392
0.00288149
0.00283949
0.00269655
0.0024924
0.00237953
0.00236604
0.00239281
0.00247318
0.0026109
0.00267816
0.00267913
0.0026022
0.0024195
0.00223502
0.00215826
0.00211891
0.00212854
0.00215577
0.00215665
0.00207425
0.00187831
0.00178484
0.00175106
0.00180611
0.00214571
0.00239342
0.00256026
0.00255226
0.00236005
0.0020501
0.00181595
0.00161722
0.00145069
0.00131182
0.00126531
0.00164489
0.00252909
0.00303417
0.00311751
0.0030937
0.00273365
0.00209791
0.00171388
0.00146086
0.0013839
0.00134499
0.00133063
0.00127996
0.00128196
0.0013216
0.00141556
0.00165899
0.0019587
0.00229149
0.00302618
0.00393234
0.0049757
0.0085068
0.0115314
0.0157753
0.0213194
0.0260858
0.0309516
0.036197
0.0406299
0.04295
0.0456876
0.0463096
0.0458392
0.0444414
0.0410751
0.037275
0.0338059
0.0294928
0.0275819
0.0259555
0.0225313
0.0183236
0.0143871
0.0120985
0.0112542
0.0107408
0.0100334
0.0090286
0.00859996
0.00858656
0.00869853
0.00938763
0.00990009
0.0109225
0.0126236
0.0142854
0.0174863
0.0268289
0.0675879
0.123563
0.140709
0.148562
0.170538
0.310419
0.409971
0.395015
0.425186
0.533477
0.648123
0.77839
0.846826
0.706385
0.37541
0.180217
0.106547
0.0830844
0.0758449
0.0721483
0.0672941
0.0644114
0.0600745
0.0561784
0.0564274
0.0644323
0.0839541
0.0860391
0.0863994
0.0873587
0.0864087
0.0836468
0.0851266
0.0887454
0.0797079
0.0810861
0.0619245
0.0480256
0.0458473
0.0411746
0.0387828
0.0327075
0.0297707
0.0260529
0.0259231
0.0256865
0.0251091
0.0244856
0.0229102
0.021826
0.0215658
0.0222662
0.0269313
0.0380541
0.0429975
0.0445935
0.0447749
0.0454941
0.04722
0.0472954
0.0448473
0.0436208
0.0441617
0.0483968
0.0512723
0.0512128
0.0482327
0.0476175
0.0510465
0.0531075
0.0529112
0.0525804
0.0499205
0.0463461
0.0455337
0.0461718
0.0470849
0.0483279
0.0494283
0.0526707
0.0632513
0.0864577
0.121177
0.129858
0.142482
0.149963
0.160256
0.153704
0.147573
0.141128
0.187406
0.175488
0.235326
0.240624
0.309813
0.288086
0.412367
0.357639
0.385949
0.306623
0.273862
0.193086
0.168441
0.163692
0.151278
0.144549
0.000226805
0.000228483
0.000231787
0.000233144
0.000232534
0.000230577
0.000230869
0.000236814
0.000243515
0.000265012
0.000277662
0.000289961
0.00029596
0.000292748
0.000279034
0.000260338
0.000252202
0.000250241
0.000250698
0.000249844
0.000242388
0.000238204
0.00023381
0.000233561
0.000232964
0.000232011
0.000238764
0.000269536
0.000296359
0.000309833
0.000310218
0.000279793
0.000240357
0.000224419
0.000250523
0.000420452
0.000552896
0.000590112
0.000627837
0.000676849
0.000723142
0.000784253
0.000947342
0.00105781
0.00111865
0.00116316
0.00127102
0.00146897
0.00199099
0.00257347
0.00317142
0.00464557
0.00561151
0.00732478
0.00966894
0.0124265
0.0160843
0.0263722
0.0324896
0.0421729
0.052876
0.0625371
0.0735445
0.0824579
0.0892475
0.095865
0.0966837
0.0953617
0.0918083
0.0845282
0.0738636
0.0687383
0.0596127
0.0512281
0.042684
0.0368059
0.0335718
0.0279998
0.0233641
0.018654
0.0161588
0.0152643
0.0140978
0.0131784
0.0123363
0.0116409
0.0116918
0.0120025
0.0125032
0.0141826
0.0158617
0.0184627
0.0251076
0.0544132
0.129483
0.150975
0.152354
0.156439
0.184941
0.339062
0.401299
0.375985
0.414957
0.507335
0.613287
0.781755
0.957997
0.922928
0.553925
0.246339
0.12839
0.0896514
0.0783457
0.0742792
0.0699137
0.0651556
0.0599324
0.0569851
0.0579774
0.067999
0.0823571
0.083628
0.082919
0.0868879
0.0848643
0.0831063
0.0779419
0.082494
0.0680328
0.0654605
0.0562405
0.0425744
0.0419354
0.0371296
0.0382727
0.0326431
0.0303769
0.0268594
0.0259034
0.026225
0.0257077
0.0251136
0.0244316
0.022954
0.0218866
0.0221382
0.024379
0.033315
0.0392153
0.041729
0.0429587
0.0439925
0.0451247
0.0446414
0.0434109
0.0436472
0.0475301
0.0507687
0.0516697
0.0506921
0.0498553
0.0518593
0.0545288
0.0542708
0.0534047
0.048885
0.0453173
0.0448895
0.0467909
0.0486879
0.0510457
0.0524099
0.0556601
0.0645671
0.0934295
0.126262
0.161553
0.171056
0.186557
0.185112
0.177059
0.16153
0.132765
0.141074
0.138605
0.15591
0.146814
0.189511
0.169097
0.225952
0.189932
0.298911
0.295668
0.303014
0.28292
0.244801
0.21422
0.183951
0.167803
0.149428
9.22186e-05
9.45262e-05
0.000102643
0.000106317
0.000106309
0.000104442
0.000100905
9.85799e-05
9.80456e-05
9.82219e-05
9.81522e-05
9.80653e-05
0.000100873
0.000109353
0.000118086
0.000121679
0.000123095
0.000120977
0.00011925
0.000119498
0.000127738
0.00013583
0.0001421
0.000145109
0.000146824
0.000146906
0.000142887
0.000137053
0.000130097
0.000125099
0.00012279
0.000132958
0.000176005
0.000216902
0.000244611
0.00024721
0.000248227
0.000249927
0.000300958
0.000538558
0.000771884
0.000890351
0.00110452
0.00129776
0.00176895
0.00227916
0.00350653
0.00447647
0.00651887
0.00849262
0.0105149
0.0148836
0.0176392
0.0229866
0.0281224
0.0375822
0.0488276
0.068736
0.0813931
0.10151
0.123068
0.142156
0.162618
0.176933
0.191845
0.196
0.194429
0.188634
0.174864
0.158155
0.137221
0.113214
0.100057
0.081991
0.0645651
0.0568253
0.0464262
0.0413428
0.0354878
0.0290787
0.0262066
0.0225424
0.0204788
0.0186454
0.0161599
0.0155535
0.0155667
0.0157864
0.017054
0.019449
0.0212994
0.0258604
0.0431192
0.123408
0.164191
0.161602
0.157185
0.165269
0.224377
0.359906
0.367629
0.347062
0.390273
0.443215
0.521213
0.727741
0.994905
1.16394
0.836899
0.3745
0.174479
0.106059
0.0855209
0.0786285
0.0742472
0.0689654
0.0633112
0.0595158
0.059837
0.0681625
0.0774529
0.0804098
0.0814393
0.0852524
0.0840787
0.0846637
0.0756124
0.0781304
0.0667118
0.0568045
0.054476
0.0422851
0.0430841
0.0369609
0.0392274
0.0349422
0.0336504
0.0345577
0.0326982
0.0335616
0.031431
0.0277571
0.026856
0.0255
0.0230817
0.022867
0.0241799
0.0303493
0.0364354
0.0397101
0.0414317
0.0422894
0.0424626
0.0418942
0.0416211
0.0431269
0.0474033
0.0490025
0.0490355
0.0483539
0.0489071
0.0508183
0.0506503
0.0486161
0.0447743
0.0432767
0.0433106
0.0466276
0.0512517
0.0524609
0.0542895
0.0580417
0.0697458
0.105665
0.151717
0.187357
0.200613
0.216771
0.225751
0.209995
0.173761
0.144483
0.131496
0.138525
0.141005
0.149881
0.147173
0.153319
0.158517
0.180182
0.170457
0.213306
0.194422
0.270425
0.252646
0.2444
0.257429
0.239837
0.221155
0.172511
9.09382e-05
9.15178e-05
9.49024e-05
0.000102511
0.000103474
0.000104626
0.000108408
0.000109676
0.000111834
0.00011327
0.000113761
0.000118171
0.000122863
0.000131034
0.000134596
0.000137545
0.000144516
0.000151084
0.000156226
0.00015731
0.000158493
0.000160564
0.000167381
0.000188368
0.000203202
0.000214642
0.000223408
0.00022733
0.000230501
0.000239777
0.000264189
0.000309677
0.000346645
0.000396981
0.00046619
0.000590132
0.000693682
0.000898754
0.00105225
0.00125884
0.00173699
0.0022738
0.00361842
0.00472556
0.00708252
0.00897341
0.0124491
0.0154314
0.0209016
0.0257062
0.0307312
0.0410657
0.0482752
0.0621437
0.0775708
0.0997869
0.128513
0.160148
0.192576
0.230591
0.269103
0.303562
0.335865
0.361301
0.373541
0.372371
0.364174
0.345433
0.315966
0.283049
0.241676
0.199519
0.164554
0.129393
0.103033
0.0793754
0.0688117
0.0616065
0.0495683
0.0443782
0.0376452
0.0317422
0.0282883
0.0242285
0.0220076
0.0215679
0.0215484
0.0219219
0.0238538
0.0253321
0.0280738
0.0372402
0.0971978
0.171195
0.17739
0.163338
0.159097
0.174891
0.273203
0.344784
0.32482
0.315417
0.346091
0.358268
0.373171
0.545638
0.960782
1.2898
1.21909
0.61187
0.263159
0.13634
0.0965425
0.0844188
0.0798174
0.0750455
0.0685486
0.062694
0.061798
0.0672499
0.0733166
0.0764289
0.077559
0.0809442
0.0820239
0.0841234
0.0779316
0.0772525
0.0737357
0.0568111
0.0584822
0.0469203
0.0559892
0.0447968
0.0492095
0.0437578
0.0396923
0.0436183
0.0429406
0.0410833
0.0376362
0.0344967
0.0323602
0.030189
0.025838
0.0247645
0.0254474
0.0277039
0.0325749
0.0368589
0.0396558
0.0406825
0.0406478
0.0402048
0.0403419
0.0422956
0.0435293
0.0435669
0.0431786
0.0431519
0.0436539
0.0435361
0.0420728
0.0406637
0.0406498
0.0418993
0.047816
0.0524605
0.0534899
0.0555723
0.0617385
0.0782995
0.123057
0.18676
0.228446
0.269943
0.265878
0.269579
0.252289
0.209799
0.16917
0.143389
0.146297
0.143347
0.162051
0.153811
0.170428
0.164679
0.170715
0.17292
0.155795
0.171074
0.168721
0.209189
0.203311
0.214046
0.248651
0.252201
0.253953
0.222859
0.000211892
0.000230344
0.000258852
0.000302915
0.000323978
0.000325697
0.000329468
0.000328793
0.000330373
0.000336237
0.000342575
0.000380193
0.000452232
0.000549366
0.000630677
0.000652615
0.000670201
0.000663978
0.000664463
0.000674425
0.00072618
0.000853248
0.000986746
0.00111733
0.00118883
0.00124678
0.00128221
0.00131307
0.00136025
0.00143251
0.00169089
0.00205213
0.0023518
0.00274851
0.00303521
0.00347246
0.00385131
0.00461987
0.00535702
0.00709685
0.00876419
0.0116468
0.0153525
0.0184195
0.0240935
0.0314446
0.0364532
0.0462981
0.0557634
0.066748
0.0814066
0.102681
0.121434
0.151262
0.19223
0.231152
0.286429
0.341758
0.410657
0.462449
0.5031
0.525639
0.530758
0.528783
0.51902
0.50678
0.486703
0.46171
0.442711
0.399954
0.35638
0.310571
0.249729
0.207244
0.162911
0.121236
0.100658
0.0803231
0.0653642
0.0551131
0.0449274
0.0410333
0.0366173
0.0327005
0.0318788
0.0302258
0.0296348
0.0303223
0.0311306
0.0320991
0.0363341
0.0653159
0.1602
0.18971
0.178574
0.160172
0.167203
0.21957
0.298895
0.311514
0.280705
0.279522
0.2927
0.264443
0.211152
0.24595
0.688486
1.31133
1.55599
1.04283
0.443052
0.200559
0.119208
0.094036
0.0852296
0.0808062
0.0749343
0.0669628
0.0645785
0.066022
0.0699098
0.0712742
0.0717472
0.0740479
0.0776572
0.0842964
0.0857232
0.0794759
0.0848384
0.0637523
0.0706187
0.0589584
0.0677584
0.0628189
0.0576012
0.0449529
0.0421079
0.0446094
0.0433037
0.0410914
0.0410131
0.040403
0.0391756
0.0370612
0.0321222
0.0297823
0.0285544
0.0288756
0.0309187
0.0333856
0.0362737
0.0378335
0.0381051
0.0383034
0.0396009
0.0403235
0.0405802
0.0405151
0.0403928
0.0405799
0.0411899
0.0410601
0.0409751
0.0416041
0.0445973
0.0482108
0.0521847
0.0539595
0.0573758
0.0666028
0.0933652
0.161225
0.25091
0.301902
0.33302
0.336741
0.317382
0.305246
0.217323
0.195573
0.157134
0.163668
0.165444
0.153317
0.192928
0.168113
0.204712
0.197807
0.226013
0.19797
0.1738
0.169617
0.163426
0.173228
0.17443
0.191332
0.220932
0.24135
0.279912
0.258044
0.00254804
0.0028354
0.00311402
0.00327682
0.00350231
0.00350485
0.00355967
0.00361418
0.00364462
0.00379529
0.00389623
0.00415325
0.00495745
0.00546543
0.00610768
0.00631085
0.00642887
0.00646397
0.00645422
0.00648418
0.00663244
0.00680537
0.0071708
0.00773078
0.00813153
0.00870409
0.00911467
0.00943027
0.0101826
0.0107236
0.0119715
0.0129363
0.0142373
0.0155276
0.0168709
0.0185491
0.0209033
0.0228811
0.0254974
0.0304712
0.0350297
0.0433557
0.0498047
0.0616329
0.0704867
0.0851952
0.0961255
0.11815
0.134206
0.163799
0.197297
0.232822
0.280818
0.330999
0.398902
0.458792
0.534639
0.577973
0.599437
0.607686
0.60389
0.595683
0.577905
0.56313
0.547837
0.531733
0.509834
0.490128
0.476489
0.447158
0.42024
0.377076
0.329722
0.280048
0.224468
0.183314
0.140268
0.110031
0.0933227
0.0758507
0.0655685
0.0582099
0.0505122
0.0479439
0.0461327
0.0418179
0.0405415
0.0405108
0.0403817
0.0416817
0.051201
0.120518
0.189172
0.189782
0.160767
0.159154
0.188248
0.247494
0.280889
0.264515
0.241533
0.244981
0.240552
0.194502
0.136791
0.133484
0.266082
1.12914
1.659
1.61992
0.802092
0.343189
0.170596
0.113572
0.0950638
0.0875562
0.0807968
0.0732645
0.069332
0.0685805
0.0690008
0.0690609
0.0684873
0.0705447
0.0767741
0.0808669
0.0836192
0.0814963
0.0840888
0.0657123
0.0721715
0.063882
0.0668368
0.0662049
0.054468
0.0445923
0.0434347
0.0454781
0.0424366
0.0416683
0.0426331
0.0434845
0.0468983
0.0494065
0.0482433
0.0454321
0.0375875
0.0332115
0.0331099
0.0336667
0.0356591
0.0368469
0.037078
0.037891
0.0388317
0.0394
0.0400001
0.040173
0.0404233
0.0419884
0.043231
0.0438271
0.0447072
0.0470875
0.0488886