/*--------------------------------*- C++ -*----------------------------------*\
| =========                 |                                                 |
| \\      /  F ield         | OpenFOAM: The Open Source CFD Toolbox           |
|  \\    /   O peration     | Version:  2.4.0                                 |
|   \\  /    A nd           | Web:      www.OpenFOAM.org                      |
|    \\/     M anipulation  |                                                 |
\*---------------------------------------------------------------------------*/
FoamFile
{
    version     2.0;
    format      ascii;
    class       volVectorField;
    location    "1.66";
    object      U;
}
// * * * * * * * * * * * * * * * * * * * * * * * * * * * * * * * * * * * * * //

dimensions      [0 1 -1 0 0 0 0];

internalField   nonuniform List<vector> 
8800
(
(8.09272 0.38791 0)
(5.45214 0.242621 0)
(3.90882 0.0431142 0)
(3.16112 -0.0155367 0)
(2.79435 -0.0183999 0)
(2.6082 -0.0111325 0)
(2.4721 -0.00516142 0)
(2.39369 -0.00306335 0)
(2.30518 -0.000936904 0)
(2.26481 -0.000688919 0)
(2.20089 -0.000933275 0)
(2.18621 -0.00031504 0)
(2.12493 0.000895969 0)
(2.12404 -0.00125618 0)
(2.05919 0.00150395 0)
(2.06568 -0.000779462 0)
(1.99984 0.000309121 0)
(2.01364 -0.00313089 0)
(2.01148 0.0106331 0)
(1.7641 -0.0680985 0)
(10.0805 0.837935 0)
(9.6698 0.868043 0)
(8.85745 0.507195 0)
(8.10356 0.26193 0)
(7.46905 0.137876 0)
(7.03739 0.0819484 0)
(6.66106 0.0553065 0)
(6.44146 0.0388248 0)
(6.18101 0.0313293 0)
(6.07071 0.0242496 0)
(5.87934 0.0177659 0)
(5.83334 0.0167089 0)
(5.6628 0.0180344 0)
(5.66702 0.0107633 0)
(5.48609 0.0193345 0)
(5.51612 0.00945394 0)
(5.34861 0.0188833 0)
(5.36434 -0.00970809 0)
(5.31509 0.0296126 0)
(5.15579 -0.0410849 0)
(10.0438 0.629796 0)
(10.6887 0.864231 0)
(10.834 0.601535 0)
(10.7343 0.374183 0)
(10.4116 0.254782 0)
(10.1426 0.197066 0)
(9.77307 0.154375 0)
(9.57134 0.120681 0)
(9.23658 0.0970963 0)
(9.1151 0.0757655 0)
(8.84638 0.0580427 0)
(8.78789 0.0512576 0)
(8.54504 0.0474109 0)
(8.55748 0.0338553 0)
(8.30094 0.046896 0)
(8.34648 0.0262348 0)
(8.12106 0.0461632 0)
(8.13733 -0.00518298 0)
(8.02333 0.036194 0)
(7.98815 -0.0825955 0)
(9.94726 0.454423 0)
(10.6374 0.708231 0)
(11.0994 0.544907 0)
(11.4517 0.353487 0)
(11.4769 0.259824 0)
(11.5526 0.230003 0)
(11.3945 0.200462 0)
(11.4089 0.17291 0)
(11.1928 0.153116 0)
(11.1848 0.124597 0)
(10.9771 0.103808 0)
(10.9716 0.0928211 0)
(10.7558 0.0866487 0)
(10.7897 0.0634455 0)
(10.553 0.0857254 0)
(10.5889 0.0474902 0)
(10.3943 0.0837407 0)
(10.3885 0.0124085 0)
(10.2479 0.0438774 0)
(10.2629 -0.091288 0)
(9.9359 0.340407 0)
(10.5099 0.573285 0)
(10.9465 0.460728 0)
(11.4113 0.297563 0)
(11.5576 0.203094 0)
(11.7774 0.19677 0)
(11.7763 0.179148 0)
(11.9215 0.165061 0)
(11.8955 0.153491 0)
(11.9916 0.13203 0)
(11.9447 0.108731 0)
(12.0178 0.109271 0)
(11.9542 0.0951786 0)
(12.0142 0.0824309 0)
(11.9304 0.0988629 0)
(11.9599 0.0726699 0)
(11.8962 0.0879905 0)
(11.8866 0.0621266 0)
(11.817 0.0462109 0)
(11.7993 -0.0340884 0)
(9.95772 0.249075 0)
(10.399 0.456348 0)
(10.8346 0.374947 0)
(11.2526 0.249363 0)
(11.464 0.163088 0)
(11.6646 0.153171 0)
(11.7591 0.147098 0)
(11.8648 0.129822 0)
(11.9551 0.131285 0)
(12.0464 0.109596 0)
(12.0949 0.0919686 0)
(12.1822 0.0930811 0)
(12.2596 0.0852387 0)
(12.3218 0.0678233 0)
(12.3559 0.0934698 0)
(12.412 0.0662642 0)
(12.4534 0.0841029 0)
(12.4713 0.0723573 0)
(12.4757 0.068549 0)
(12.5179 0.0106854 0)
(9.98676 0.175627 0)
(10.3314 0.348959 0)
(10.7142 0.290237 0)
(11.1203 0.211448 0)
(11.4201 0.115291 0)
(11.5863 0.117675 0)
(11.6539 0.108265 0)
(11.7544 0.112634 0)
(11.866 0.0877697 0)
(11.978 0.107374 0)
(12.0186 0.055717 0)
(12.1218 0.0847817 0)
(12.221 0.0397361 0)
(12.2633 0.080186 0)
(12.3368 0.0487541 0)
(12.439 0.0792644 0)
(12.4699 0.0324345 0)
(12.5056 0.119308 0)
(12.5519 0.0526907 0)
(12.6102 0.132454 0)
(9.99377 0.105593 0)
(10.2741 0.263515 0)
(10.6428 0.195066 0)
(11.0748 0.155355 0)
(11.3343 0.0679126 0)
(11.4775 0.111571 0)
(11.5937 0.0706725 0)
(11.7214 0.0864479 0)
(11.77 0.0373995 0)
(11.9202 0.095415 0)
(11.9773 0.022897 0)
(12.0403 0.077362 0)
(12.112 0.0172553 0)
(12.2134 0.0738107 0)
(12.3021 0.00898479 0)
(12.3594 0.0757609 0)
(12.3804 0.0209891 0)
(12.4846 0.106366 0)
(12.5404 0.0227367 0)
(12.4944 0.137062 0)
(9.98079 0.0669731 0)
(10.2628 0.1484 0)
(10.6361 0.11606 0)
(10.9721 0.0897845 0)
(11.2475 0.0584783 0)
(11.4579 0.0577031 0)
(11.6112 0.0384255 0)
(11.6728 0.0485006 0)
(11.6969 0.0269359 0)
(11.8824 0.0454172 0)
(11.9401 0.0277745 0)
(11.9638 0.0451635 0)
(12.106 0.00816665 0)
(12.1892 0.0192198 0)
(12.1984 0.0263116 0)
(12.2889 0.0391431 0)
(12.4069 0.0140105 0)
(12.4475 0.0425053 0)
(12.4256 0.0372439 0)
(12.3247 -0.0222678 0)
(9.99554 0.0105656 0)
(10.2508 0.0551763 0)
(10.5948 0.0381629 0)
(10.9231 0.0420545 0)
(11.263 -0.00248112 0)
(11.4426 0.0311253 0)
(11.5605 0.0106349 0)
(11.6555 0.0389554 0)
(11.7055 -0.0216151 0)
(11.8339 0.0200118 0)
(11.9085 0.00760436 0)
(11.9826 0.0268982 0)
(12.1001 -0.022577 0)
(12.1133 0.0363313 0)
(12.1738 -0.00384395 0)
(12.3167 0.00200029 0)
(12.3823 -0.0123341 0)
(12.3496 0.0477956 0)
(12.411 -0.00565354 0)
(12.4118 -0.0404825 0)
(10.0024 -0.0248236 0)
(10.2244 -0.0477517 0)
(10.6065 -0.034853 0)
(10.9546 -0.0386958 0)
(11.254 -0.0195601 0)
(11.4061 0.000106667 0)
(11.5465 -0.0190575 0)
(11.7219 -0.0134642 0)
(11.6988 -0.0264162 0)
(11.7879 -0.0169197 0)
(11.933 -0.00400965 0)
(11.9855 -0.00672654 0)
(12.0401 -0.0134493 0)
(12.1394 -0.00374294 0)
(12.2486 -0.0197075 0)
(12.2814 -0.0246988 0)
(12.3057 -0.00639616 0)
(12.3905 -0.00362429 0)
(12.4851 -0.0336323 0)
(12.3733 -0.072748 0)
(9.99789 -0.0722302 0)
(10.2263 -0.14739 0)
(10.6483 -0.123109 0)
(10.9755 -0.087497 0)
(11.2588 -0.0544871 0)
(11.4609 -0.0333585 0)
(11.5731 -0.0659701 0)
(11.7007 -0.0339559 0)
(11.7386 -0.037897 0)
(11.8262 -0.0579806 0)
(11.9272 -0.029693 0)
(12.0103 -0.012311 0)
(12.0726 -0.0408044 0)
(12.1751 -0.0323201 0)
(12.2586 -0.0278743 0)
(12.2667 -0.0326403 0)
(12.3463 -0.0442063 0)
(12.4562 -0.0406451 0)
(12.4818 -0.0590772 0)
(12.3513 -0.0567442 0)
(9.99784 -0.115759 0)
(10.2645 -0.255632 0)
(10.678 -0.201348 0)
(11.0276 -0.150564 0)
(11.3198 -0.0902769 0)
(11.5132 -0.065821 0)
(11.6038 -0.0829286 0)
(11.684 -0.0789106 0)
(11.8289 -0.0666388 0)
(11.8925 -0.0751011 0)
(11.9274 -0.0462374 0)
(12.0733 -0.0469808 0)
(12.1463 -0.0465515 0)
(12.1792 -0.0530467 0)
(12.2715 -0.0418505 0)
(12.366 -0.0587805 0)
(12.4147 -0.0688983 0)
(12.4467 -0.0703167 0)
(12.5098 -0.0720104 0)
(12.4437 -0.0796337 0)
(10.0207 -0.177684 0)
(10.3037 -0.358805 0)
(10.7487 -0.284144 0)
(11.0994 -0.204007 0)
(11.409 -0.124817 0)
(11.5294 -0.103165 0)
(11.6951 -0.110879 0)
(11.7772 -0.115844 0)
(11.8807 -0.0941677 0)
(11.9471 -0.0960214 0)
(12.0299 -0.0689035 0)
(12.1104 -0.0757165 0)
(12.2112 -0.0540651 0)
(12.2651 -0.0749916 0)
(12.3481 -0.0667104 0)
(12.4238 -0.0815647 0)
(12.4741 -0.0750655 0)
(12.5062 -0.102882 0)
(12.568 -0.1177 0)
(12.4989 -0.111748 0)
(10.0693 -0.255447 0)
(10.3148 -0.459701 0)
(10.8852 -0.367973 0)
(11.1731 -0.25183 0)
(11.5387 -0.161343 0)
(11.5965 -0.142267 0)
(11.8202 -0.151312 0)
(11.8368 -0.144179 0)
(11.9829 -0.116842 0)
(11.9941 -0.122796 0)
(12.1444 -0.0858476 0)
(12.1377 -0.0990246 0)
(12.2898 -0.0766913 0)
(12.2873 -0.0952734 0)
(12.3817 -0.0761069 0)
(12.3792 -0.104773 0)
(12.4627 -0.0909259 0)
(12.4423 -0.13201 0)
(12.4705 -0.126756 0)
(12.3361 -0.139893 0)
(10.0714 -0.351068 0)
(10.3756 -0.567701 0)
(11.0492 -0.455081 0)
(11.2956 -0.297807 0)
(11.6669 -0.210738 0)
(11.6684 -0.18442 0)
(11.8948 -0.186384 0)
(11.8167 -0.168402 0)
(11.9942 -0.144892 0)
(11.8775 -0.139442 0)
(12.0453 -0.108034 0)
(11.9081 -0.113324 0)
(12.056 -0.0905893 0)
(11.9072 -0.101778 0)
(12.016 -0.0861197 0)
(11.8648 -0.110191 0)
(11.941 -0.0929458 0)
(11.7774 -0.137133 0)
(11.7788 -0.128213 0)
(11.5308 -0.173753 0)
(10.0205 -0.459494 0)
(10.5419 -0.705774 0)
(11.1813 -0.542087 0)
(11.3629 -0.355493 0)
(11.5646 -0.262316 0)
(11.4548 -0.221855 0)
(11.5008 -0.205986 0)
(11.2866 -0.176943 0)
(11.3159 -0.145711 0)
(11.05 -0.131172 0)
(11.1058 -0.102198 0)
(10.8292 -0.0980171 0)
(10.8964 -0.0794339 0)
(10.6251 -0.0843748 0)
(10.6935 -0.0692745 0)
(10.4188 -0.0893901 0)
(10.4817 -0.07233 0)
(10.1915 -0.116513 0)
(10.1927 -0.0965646 0)
(9.85386 -0.172843 0)
(10.0702 -0.632997 0)
(10.6449 -0.863722 0)
(10.878 -0.599257 0)
(10.6817 -0.374418 0)
(10.4611 -0.256948 0)
(10.084 -0.193024 0)
(9.84236 -0.156926 0)
(9.48317 -0.12325 0)
(9.3319 -0.0927267 0)
(9.00621 -0.0790796 0)
(8.95429 -0.0580767 0)
(8.66211 -0.054123 0)
(8.66929 -0.0437117 0)
(8.40042 -0.0460017 0)
(8.43488 -0.0401418 0)
(8.16336 -0.0515495 0)
(8.20721 -0.0469977 0)
(7.90848 -0.0695686 0)
(7.90925 -0.0737785 0)
(7.55808 -0.099767 0)
(10.0876 -0.838816 0)
(9.65034 -0.868077 0)
(8.87658 -0.505752 0)
(8.07788 -0.261974 0)
(7.49489 -0.13918 0)
(7.006 -0.0800764 0)
(6.69942 -0.055657 0)
(6.39098 -0.0415365 0)
(6.23589 -0.0282899 0)
(6.00485 -0.0261073 0)
(5.94554 -0.0179136 0)
(5.74999 -0.0185698 0)
(5.74174 -0.0152361 0)
(5.55898 -0.0182117 0)
(5.57005 -0.0158487 0)
(5.37821 -0.0236504 0)
(5.39096 -0.0213772 0)
(5.16801 -0.0327618 0)
(5.15455 -0.0402144 0)
(4.8532 -0.023228 0)
(8.09202 -0.387963 0)
(5.4473 -0.242598 0)
(3.91236 -0.0427117 0)
(3.15669 0.0154584 0)
(2.80076 0.0177917 0)
(2.59755 0.0117662 0)
(2.48586 0.00524586 0)
(2.37652 0.00199702 0)
(2.32147 0.00220714 0)
(2.2441 -6.66269e-05 0)
(2.22101 0.00110263 0)
(2.15635 -0.000234422 0)
(2.14931 0.00017016 0)
(2.08393 -0.00092806 0)
(2.08039 -0.000274571 0)
(2.00564 -0.00258195 0)
(1.99455 -0.00103813 0)
(1.90357 -0.00389122 0)
(1.86303 -0.00467674 0)
(1.70486 0.00977861 0)
(2.29086 -0.169207 0)
(2.39745 -0.0599086 0)
(2.51105 0.00648007 0)
(2.61861 0.0450268 0)
(2.74263 0.0516816 0)
(2.87157 0.0345909 0)
(2.99884 0.011207 0)
(3.1068 -0.0207023 0)
(3.20221 -0.055806 0)
(3.27293 -0.0860049 0)
(3.33552 -0.109397 0)
(3.3661 -0.119216 0)
(3.40223 -0.122506 0)
(3.42065 -0.125225 0)
(3.45888 -0.126753 0)
(3.48699 -0.125682 0)
(3.53393 -0.128718 0)
(3.56427 -0.123855 0)
(3.61317 -0.110424 0)
(3.6361 -0.101209 0)
(3.66825 -0.0837418 0)
(3.68561 -0.0558405 0)
(3.72019 -0.0459361 0)
(3.73216 -0.00819485 0)
(3.77509 0.0471938 0)
(3.80834 0.0908704 0)
(3.86654 0.177885 0)
(3.95841 0.288426 0)
(4.06899 0.381914 0)
(4.27323 0.480441 0)
(4.52497 0.584453 0)
(4.79226 0.672276 0)
(5.14135 0.655202 0)
(5.52102 0.647641 0)
(5.91487 0.583932 0)
(6.22154 0.400851 0)
(6.54905 0.231863 0)
(6.789 0.040618 0)
(6.93343 -0.209944 0)
(7.09461 -0.449441 0)
(7.18554 -0.66422 0)
(7.35564 -0.86028 0)
(7.50145 -0.989177 0)
(7.63989 -1.17861 0)
(7.86149 -1.337 0)
(8.12691 -1.35053 0)
(8.38989 -1.46486 0)
(8.67728 -1.65448 0)
(9.03874 -1.7002 0)
(9.39599 -1.67579 0)
(9.77049 -1.77976 0)
(10.126 -1.95396 0)
(10.4744 -1.95015 0)
(10.9023 -1.97352 0)
(11.2192 -2.18702 0)
(11.5929 -2.19419 0)
(11.937 -2.20899 0)
(12.1672 -2.39581 0)
(12.4967 -2.41784 0)
(12.6952 -2.54972 0)
(12.8487 -2.66337 0)
(13.0267 -2.62034 0)
(13.0351 -2.74771 0)
(13.1543 -2.7658 0)
(13.1239 -2.69923 0)
(12.8146 -2.75649 0)
(12.6817 -2.68861 0)
(12.3168 -2.62575 0)
(11.9034 -2.56378 0)
(11.5452 -2.33232 0)
(10.9086 -2.08279 0)
(10.3991 -1.82968 0)
(10.0434 -1.47014 0)
(9.64181 -1.03586 0)
(9.37648 -0.598831 0)
(9.1765 -0.170272 0)
(9.1024 0.30213 0)
(8.99831 0.675861 0)
(9.08905 0.870857 0)
(9.39846 1.1773 0)
(9.57068 1.43615 0)
(9.88252 1.27987 0)
(9.92687 1.24163 0)
(10.1879 0.993658 0)
(10.3285 0.640472 0)
(10.3422 0.369758 0)
(10.5172 -0.0967216 0)
(10.4439 -0.486835 0)
(10.4591 -1.03851 0)
(10.3528 -1.48253 0)
(10.1854 -1.87971 0)
(10.0468 -2.33885 0)
(9.92065 -2.65707 0)
(9.55216 -2.89694 0)
(9.26643 -3.23619 0)
(9.0655 -3.49633 0)
(8.67186 -3.72694 0)
(8.40963 -4.05239 0)
(8.18808 -4.28347 0)
(7.93743 -4.57449 0)
(7.91644 -5.15806 0)
(7.78785 -5.58087 0)
(6.96184 -5.24233 0)
(5.71765 -4.56362 0)
(4.9332 -4.55467 0)
(4.73542 -5.3934 0)
(4.92013 -6.4668 0)
(5.35153 -7.38881 0)
(5.93235 -7.92531 0)
(6.56243 -7.96813 0)
(7.05933 -7.55641 0)
(7.27714 -6.98738 0)
(7.69884 -6.0134 0)
(7.85395 -5.07417 0)
(7.87811 -4.44409 0)
(8.00409 -3.32428 0)
(8.06878 -2.11277 0)
(8.08607 -1.5789 0)
(8.10781 -1.04735 0)
(7.99307 -0.0573659 0)
(7.90838 1.16259 0)
(7.62291 1.99249 0)
(7.6017 2.01035 0)
(7.85607 1.7988 0)
(7.68187 2.05708 0)
(7.42282 2.84879 0)
(7.11543 4.00209 0)
(6.87957 5.42085 0)
(6.6515 6.43873 0)
(6.3794 6.90083 0)
(6.49879 7.05886 0)
(6.5416 6.89927 0)
(6.36614 6.71097 0)
(6.56012 6.26303 0)
(6.31163 5.77115 0)
(6.29751 5.82512 0)
(6.45254 5.74176 0)
(5.76972 5.61074 0)
(6.24126 5.05316 0)
(5.6984 4.60996 0)
(6.1256 4.53317 0)
(6.03457 4.76573 0)
(6.39892 4.77558 0)
(6.36488 4.80458 0)
(6.31157 4.34846 0)
(6.30771 4.07768 0)
(6.02842 3.56471 0)
(6.02279 3.29856 0)
(6.06765 3.36706 0)
(6.62625 3.66807 0)
(6.83096 3.66473 0)
(7.50276 3.88876 0)
(7.42175 3.71608 0)
(8.01509 3.7357 0)
(8.17551 3.28711 0)
(8.90193 3.34872 0)
(9.1976 3.18694 0)
(9.29955 2.93888 0)
(9.34815 2.25667 0)
(9.29669 2.01455 0)
(9.48683 1.34872 0)
(9.24925 0.747797 0)
(9.5261 0.408942 0)
(9.12633 -0.236314 0)
(9.05943 -0.785428 0)
(8.65502 -1.37491 0)
(8.39796 -1.97701 0)
(8.17649 -2.61735 0)
(7.74745 -2.86421 0)
(7.52373 -2.4682 0)
(7.46324 -2.51946 0)
(7.46593 -2.70938 0)
(7.29123 -2.73559 0)
(7.3036 -3.00476 0)
(7.36092 -3.46865 0)
(7.44269 -3.88413 0)
(7.26835 -4.23282 0)
(7.35812 -3.98877 0)
(7.18392 -3.56258 0)
(7.18182 -3.01722 0)
(7.31702 -2.48589 0)
(6.96218 -2.13191 0)
(7.42903 -1.83785 0)
(7.13869 -1.39701 0)
(7.70478 -0.700565 0)
(7.04394 -0.695634 0)
(7.25707 0.661113 0)
(7.04678 1.05664 0)
(7.01229 1.53558 0)
(6.74984 2.40888 0)
(6.61073 2.48621 0)
(6.6797 3.39224 0)
(6.50009 3.42175 0)
(6.80953 4.81324 0)
(6.6178 5.75559 0)
(6.92354 6.299 0)
(6.8273 7.804 0)
(6.76286 8.61 0)
(7.08455 9.90426 0)
(4.2755 13.7736 0)
(5.33343 -0.100888 0)
(5.37138 -0.0883799 0)
(5.39452 -0.0602249 0)
(5.40091 -0.0300822 0)
(5.43457 -0.0213794 0)
(5.48379 -0.0275636 0)
(5.55231 -0.0435689 0)
(5.61778 -0.0750619 0)
(5.67949 -0.108849 0)
(5.71783 -0.13743 0)
(5.76107 -0.15168 0)
(5.78773 -0.159688 0)
(5.80784 -0.159593 0)
(5.82869 -0.153034 0)
(5.84353 -0.16104 0)
(5.8665 -0.153572 0)
(5.90693 -0.156419 0)
(5.92115 -0.157481 0)
(5.95622 -0.13895 0)
(5.98402 -0.122211 0)
(5.98108 -0.105571 0)
(5.99704 -0.0739421 0)
(6.02385 -0.0492195 0)
(5.99599 -0.0210396 0)
(6.02548 0.0363334 0)
(6.06854 0.0734254 0)
(6.04599 0.144369 0)
(6.13505 0.212311 0)
(6.20208 0.277039 0)
(6.29857 0.36175 0)
(6.43873 0.397567 0)
(6.64294 0.450907 0)
(6.88597 0.453374 0)
(7.06057 0.399518 0)
(7.43681 0.330789 0)
(7.67072 0.228536 0)
(7.89962 0.00956192 0)
(8.20922 -0.194617 0)
(8.39098 -0.320108 0)
(8.65592 -0.608292 0)
(8.84831 -0.85985 0)
(9.01401 -0.971437 0)
(9.30801 -1.18635 0)
(9.55928 -1.41627 0)
(9.71902 -1.4838 0)
(10.0501 -1.58891 0)
(10.3739 -1.75765 0)
(10.6189 -1.84054 0)
(10.9413 -1.89954 0)
(11.209 -1.99357 0)
(11.5022 -2.08051 0)
(11.8681 -2.14011 0)
(12.0533 -2.27024 0)
(12.3699 -2.25278 0)
(12.6474 -2.28072 0)
(12.757 -2.51752 0)
(13.0259 -2.47188 0)
(13.1327 -2.48595 0)
(13.2464 -2.66159 0)
(13.4818 -2.63261 0)
(13.3637 -2.69336 0)
(13.3976 -2.70929 0)
(13.4967 -2.64123 0)
(13.2248 -2.73419 0)
(13.0853 -2.6488 0)
(12.8269 -2.59537 0)
(12.5507 -2.54646 0)
(12.2404 -2.30551 0)
(11.768 -2.14405 0)
(11.3553 -1.87375 0)
(10.9683 -1.59508 0)
(10.561 -1.3352 0)
(10.0505 -0.979043 0)
(9.69313 -0.618143 0)
(9.31205 -0.279941 0)
(8.98827 0.0348533 0)
(8.91876 0.356847 0)
(8.88791 0.653165 0)
(8.92254 0.776216 0)
(8.89177 0.920943 0)
(9.18729 1.02761 0)
(9.38401 1.12539 0)
(9.54856 1.01256 0)
(9.94263 0.754273 0)
(9.81175 0.639516 0)
(10.0434 0.233823 0)
(9.91076 -0.0919282 0)
(9.92193 -0.509514 0)
(9.84425 -1.02896 0)
(9.59359 -1.38704 0)
(9.56184 -1.80801 0)
(9.2973 -2.22944 0)
(9.09651 -2.4415 0)
(8.77378 -2.71684 0)
(8.65665 -3.10221 0)
(8.53669 -3.26506 0)
(8.20016 -3.47958 0)
(8.18116 -3.87372 0)
(8.10117 -4.15754 0)
(7.95509 -4.47228 0)
(7.85122 -4.94438 0)
(7.24005 -4.85644 0)
(5.91757 -4.10997 0)
(4.61129 -3.70565 0)
(3.95501 -4.22512 0)
(3.80487 -5.44331 0)
(4.02696 -6.77192 0)
(4.50077 -7.84528 0)
(5.08187 -8.40701 0)
(5.53174 -8.32134 0)
(5.95755 -7.79265 0)
(6.18898 -7.14487 0)
(6.49379 -6.14085 0)
(6.681 -5.08728 0)
(6.58213 -4.35619 0)
(6.66201 -3.34047 0)
(6.89281 -2.25709 0)
(6.94675 -1.61427 0)
(7.00205 -0.916898 0)
(6.82423 0.161075 0)
(6.61061 1.34838 0)
(6.35722 1.9906 0)
(6.58631 1.9038 0)
(6.80815 1.88368 0)
(6.66377 2.26611 0)
(6.37848 3.16956 0)
(6.0713 4.29269 0)
(5.67866 5.59792 0)
(5.58552 6.58221 0)
(5.41721 6.88834 0)
(5.5022 6.95851 0)
(5.84849 6.88842 0)
(5.6267 6.66421 0)
(5.87994 6.31189 0)
(5.88836 5.87402 0)
(5.56897 5.82825 0)
(6.173 5.82048 0)
(5.45042 5.6596 0)
(5.90469 5.1 0)
(5.56333 4.66138 0)
(5.78708 4.41909 0)
(5.89349 4.66456 0)
(6.1587 4.60398 0)
(6.3223 4.8022 0)
(6.28329 4.36432 0)
(6.49835 4.1814 0)
(6.09682 3.63257 0)
(6.12557 3.31093 0)
(5.95619 3.05362 0)
(6.6309 3.23344 0)
(6.57317 3.35614 0)
(7.52048 3.67171 0)
(7.46582 3.47173 0)
(8.20281 3.36055 0)
(8.07035 2.91241 0)
(8.98975 3.05101 0)
(9.21146 3.07956 0)
(9.52486 2.83212 0)
(9.57538 2.20792 0)
(9.5878 1.95162 0)
(9.72099 1.32678 0)
(9.58485 0.818971 0)
(9.98363 0.430558 0)
(9.44711 -0.111896 0)
(9.52017 -0.594864 0)
(9.06484 -1.13501 0)
(8.99849 -1.64852 0)
(8.6283 -2.34541 0)
(8.22194 -2.6068 0)
(8.11193 -2.34308 0)
(7.85968 -2.59458 0)
(8.00863 -2.48459 0)
(7.61832 -2.88778 0)
(7.83133 -3.12779 0)
(7.64393 -3.69057 0)
(7.88192 -3.89464 0)
(7.77651 -4.25129 0)
(7.85989 -3.89135 0)
(7.52624 -3.6395 0)
(7.60993 -3.13141 0)
(7.45594 -2.40686 0)
(7.65296 -2.03505 0)
(7.47036 -1.75493 0)
(7.62216 -1.46147 0)
(7.27721 -0.935434 0)
(7.434 0.116937 0)
(6.946 -0.10094 0)
(7.55983 1.41816 0)
(7.1167 1.71618 0)
(7.3915 2.17167 0)
(7.12439 2.80214 0)
(7.18363 2.9954 0)
(7.12589 4.32948 0)
(6.98897 4.05099 0)
(7.2675 5.60464 0)
(7.48637 6.94427 0)
(7.48341 7.51041 0)
(7.3508 9.05381 0)
(9.76794 9.70104 0)
(7.03797 14.7601 0)
(8.02542 -0.0668093 0)
(7.99846 -0.0266638 0)
(7.99582 -0.0291854 0)
(7.99271 -0.0388722 0)
(8.02242 -0.0318837 0)
(8.05932 -0.0695248 0)
(8.10549 -0.0814207 0)
(8.15224 -0.104682 0)
(8.19332 -0.133214 0)
(8.22305 -0.133999 0)
(8.23037 -0.168392 0)
(8.25849 -0.156741 0)
(8.23813 -0.16317 0)
(8.26013 -0.178155 0)
(8.26641 -0.174178 0)
(8.25553 -0.191379 0)
(8.30749 -0.18658 0)
(8.29689 -0.174847 0)
(8.33731 -0.153488 0)
(8.35939 -0.123398 0)
(8.36365 -0.0964447 0)
(8.37081 -0.0672043 0)
(8.38039 -0.0514914 0)
(8.36352 -0.0206963 0)
(8.35537 0.0183222 0)
(8.40709 0.0344276 0)
(8.35757 0.116498 0)
(8.47302 0.156937 0)
(8.50076 0.207384 0)
(8.5961 0.283167 0)
(8.7351 0.276192 0)
(8.82198 0.310048 0)
(9.10388 0.283521 0)
(9.18829 0.224608 0)
(9.42921 0.130451 0)
(9.70509 0.0202944 0)
(9.87765 -0.14426 0)
(10.1151 -0.365277 0)
(10.3116 -0.513302 0)
(10.5455 -0.746052 0)
(10.7596 -1.00455 0)
(10.9219 -1.148 0)
(11.1534 -1.33398 0)
(11.4136 -1.56845 0)
(11.5392 -1.66622 0)
(11.7764 -1.79778 0)
(12.0863 -1.93873 0)
(12.2077 -2.03151 0)
(12.4123 -2.17212 0)
(12.7129 -2.13786 0)
(12.8419 -2.25752 0)
(13.03 -2.42537 0)
(13.2462 -2.31406 0)
(13.2016 -2.4092 0)
(13.4298 -2.56113 0)
(13.5386 -2.51532 0)
(13.386 -2.5502 0)
(13.593 -2.6034 0)
(13.6012 -2.65148 0)
(13.4492 -2.67514 0)
(13.4888 -2.6393 0)
(13.4028 -2.65488 0)
(13.252 -2.63261 0)
(13.0696 -2.56319 0)
(12.8717 -2.45042 0)
(12.7021 -2.33926 0)
(12.2709 -2.16102 0)
(12.0316 -1.94292 0)
(11.7065 -1.75889 0)
(11.2966 -1.56273 0)
(10.9071 -1.26907 0)
(10.3865 -0.990288 0)
(9.85544 -0.7711 0)
(9.66588 -0.467813 0)
(9.37357 -0.10293 0)
(9.26197 0.0953741 0)
(9.10106 0.365984 0)
(9.02867 0.653085 0)
(9.01712 0.904688 0)
(8.89136 1.01992 0)
(8.94249 0.985841 0)
(8.93107 0.968609 0)
(9.33285 0.80731 0)
(9.34995 0.796409 0)
(9.46806 0.499972 0)
(9.64396 0.303985 0)
(9.41491 0.0101578 0)
(9.57898 -0.543842 0)
(9.2654 -0.801026 0)
(9.17391 -1.30101 0)
(9.07433 -1.76532 0)
(8.72943 -2.02613 0)
(8.70096 -2.30441 0)
(8.50217 -2.65759 0)
(8.42361 -2.96488 0)
(8.31862 -3.12369 0)
(8.18892 -3.50989 0)
(8.28757 -3.8911 0)
(8.08479 -4.064 0)
(7.79296 -4.37057 0)
(7.37005 -4.51953 0)
(6.19663 -3.94719 0)
(4.62867 -3.00635 0)
(3.48759 -2.91176 0)
(2.98175 -3.98739 0)
(2.89476 -5.54774 0)
(3.10873 -7.12606 0)
(3.44846 -8.32944 0)
(3.91142 -8.80779 0)
(4.36851 -8.60907 0)
(4.7146 -8.01761 0)
(5.06395 -7.23432 0)
(5.30322 -6.31913 0)
(5.5386 -5.20545 0)
(5.56433 -4.33794 0)
(5.56118 -3.41745 0)
(5.73261 -2.38677 0)
(5.6922 -1.68183 0)
(5.77155 -0.832496 0)
(5.59063 0.358046 0)
(5.35557 1.40858 0)
(5.20724 1.82062 0)
(5.56395 1.75045 0)
(5.77865 1.8686 0)
(5.58721 2.4188 0)
(5.29432 3.4542 0)
(5.01062 4.61897 0)
(4.54685 5.73489 0)
(4.50116 6.62283 0)
(4.58339 6.84993 0)
(4.50237 6.7834 0)
(5.104 6.81784 0)
(5.09023 6.59766 0)
(4.90306 6.24888 0)
(5.41324 5.9132 0)
(4.82839 5.76954 0)
(5.62041 5.82083 0)
(5.23871 5.76928 0)
(5.55449 5.02733 0)
(5.37415 4.71678 0)
(5.61053 4.21706 0)
(5.78949 4.47672 0)
(5.99252 4.49189 0)
(6.29152 4.63826 0)
(6.2072 4.31716 0)
(6.56549 4.21593 0)
(6.27179 3.83742 0)
(6.43774 3.48073 0)
(5.9666 3.00077 0)
(6.5571 2.93632 0)
(6.24769 2.93129 0)
(7.48869 3.14536 0)
(7.37674 3.14966 0)
(8.15115 3.16823 0)
(7.96292 2.63666 0)
(8.98862 2.555 0)
(9.08899 2.81027 0)
(9.71148 2.65625 0)
(9.70403 2.14999 0)
(9.89003 1.94701 0)
(9.8316 1.26833 0)
(9.93014 0.689179 0)
(10.1308 0.434666 0)
(9.7574 0.0693548 0)
(9.68487 -0.405578 0)
(9.26306 -0.887104 0)
(9.23543 -1.51204 0)
(8.99158 -2.28269 0)
(8.7692 -2.41083 0)
(8.55644 -2.18051 0)
(8.2965 -2.43318 0)
(8.3748 -2.30673 0)
(8.19928 -2.96283 0)
(8.40515 -2.76754 0)
(8.31814 -3.57452 0)
(8.38288 -3.78825 0)
(8.31108 -4.22217 0)
(8.18597 -3.62475 0)
(8.01938 -3.44866 0)
(7.85978 -2.81291 0)
(7.71243 -2.7716 0)
(7.95332 -1.77826 0)
(7.67144 -2.12631 0)
(7.82409 -0.836243 0)
(7.19656 -0.830681 0)
(7.52837 -0.202766 0)
(7.28491 0.595331 0)
(7.30787 0.721754 0)
(7.82167 2.06262 0)
(7.28602 2.02414 0)
(7.76898 3.06272 0)
(7.39438 3.15378 0)
(7.65971 3.57585 0)
(7.81014 4.95765 0)
(7.5509 4.82296 0)
(8.32408 6.62506 0)
(9.02667 7.47287 0)
(7.37788 8.90812 0)
(11.9588 7.45828 0)
(9.54026 14.795 0)
(10.369 0.000878723 0)
(10.2747 0.0257728 0)
(10.2149 -0.0291093 0)
(10.1724 -0.0581703 0)
(10.171 -0.0989466 0)
(10.2416 -0.108649 0)
(10.2599 -0.0924694 0)
(10.3451 -0.111626 0)
(10.3196 -0.130471 0)
(10.3292 -0.155879 0)
(10.3132 -0.186787 0)
(10.3069 -0.183782 0)
(10.3386 -0.173087 0)
(10.3453 -0.166716 0)
(10.3959 -0.158241 0)
(10.3683 -0.15768 0)
(10.3959 -0.164393 0)
(10.3471 -0.182052 0)
(10.3528 -0.173459 0)
(10.3613 -0.145381 0)
(10.3619 -0.146973 0)
(10.4109 -0.075265 0)
(10.431 -0.0468465 0)
(10.4498 -0.0317872 0)
(10.436 0.0622854 0)
(10.4865 0.0349402 0)
(10.3889 0.09903 0)
(10.5122 0.135076 0)
(10.5168 0.131925 0)
(10.5565 0.193066 0)
(10.7838 0.175913 0)
(10.83 0.192982 0)
(11.0643 0.138682 0)
(11.2276 0.0862701 0)
(11.4024 -0.0209216 0)
(11.6033 -0.14457 0)
(11.7748 -0.292768 0)
(11.9339 -0.512259 0)
(12.0857 -0.668107 0)
(12.2615 -0.866972 0)
(12.3676 -1.13152 0)
(12.4994 -1.29178 0)
(12.636 -1.4246 0)
(12.7508 -1.71775 0)
(12.8676 -1.81663 0)
(12.9692 -1.86258 0)
(13.1257 -2.14045 0)
(13.2767 -2.19703 0)
(13.3055 -2.15196 0)
(13.4332 -2.36373 0)
(13.6549 -2.42507 0)
(13.496 -2.34272 0)
(13.5461 -2.45875 0)
(13.7097 -2.5326 0)
(13.556 -2.44413 0)
(13.4564 -2.5368 0)
(13.5688 -2.58342 0)
(13.4541 -2.56281 0)
(13.3773 -2.62601 0)
(13.3463 -2.61362 0)
(13.3414 -2.58187 0)
(13.1169 -2.58024 0)
(13.0965 -2.46536 0)
(12.908 -2.34985 0)
(12.7153 -2.26033 0)
(12.5082 -2.04856 0)
(12.2883 -1.89641 0)
(12.0353 -1.75107 0)
(11.7115 -1.5303 0)
(11.3241 -1.29356 0)
(10.9352 -0.995683 0)
(10.6515 -0.583224 0)
(10.3594 -0.405721 0)
(9.93677 -0.181196 0)
(9.66268 0.0914598 0)
(9.41492 0.340622 0)
(9.08242 0.586011 0)
(8.9717 0.730974 0)
(8.77632 0.911492 0)
(8.80588 0.970364 0)
(8.79071 0.984301 0)
(8.75395 0.804587 0)
(8.90788 0.682415 0)
(8.93639 0.657583 0)
(9.19307 0.391175 0)
(9.06943 0.324775 0)
(9.22498 -0.0639819 0)
(9.11914 -0.356125 0)
(8.93383 -0.708132 0)
(8.9754 -1.25929 0)
(8.72885 -1.49428 0)
(8.65154 -1.8624 0)
(8.54802 -2.18777 0)
(8.44998 -2.52801 0)
(8.39215 -2.83816 0)
(8.31978 -2.98044 0)
(8.26605 -3.42218 0)
(8.20047 -3.71896 0)
(7.90936 -3.7716 0)
(7.48347 -3.99364 0)
(6.71243 -3.63571 0)
(5.10417 -2.56928 0)
(3.49545 -1.90982 0)
(2.59977 -2.43941 0)
(2.15717 -3.84492 0)
(1.99954 -5.61546 0)
(2.07478 -7.36322 0)
(2.3472 -8.6561 0)
(2.70742 -9.20677 0)
(3.17355 -8.94803 0)
(3.53289 -8.27649 0)
(3.7716 -7.45553 0)
(4.01713 -6.49617 0)
(4.33038 -5.39306 0)
(4.44629 -4.34721 0)
(4.53958 -3.38543 0)
(4.65345 -2.39889 0)
(4.47364 -1.63565 0)
(4.52316 -0.68516 0)
(4.34809 0.530843 0)
(4.13316 1.44066 0)
(4.07374 1.68849 0)
(4.53483 1.63547 0)
(4.59914 1.94432 0)
(4.35274 2.68763 0)
(4.12467 3.75625 0)
(3.86645 4.93224 0)
(3.44232 5.86835 0)
(3.4451 6.64371 0)
(3.68081 6.7385 0)
(3.62908 6.53997 0)
(4.02274 6.60139 0)
(4.55469 6.62597 0)
(3.93017 6.15334 0)
(4.88452 5.79149 0)
(4.38224 5.75153 0)
(5.0606 5.48033 0)
(5.08414 5.73148 0)
(5.35079 4.84466 0)
(5.28375 4.72718 0)
(5.53785 4.0116 0)
(5.70166 4.22185 0)
(5.91785 4.36524 0)
(6.49229 4.43381 0)
(6.23041 4.33762 0)
(6.63855 4.14253 0)
(6.39359 3.78196 0)
(6.73341 3.56057 0)
(6.08733 3.10956 0)
(6.75729 2.75617 0)
(6.31429 2.52743 0)
(7.44276 2.70836 0)
(6.98679 2.97192 0)
(7.89585 2.79673 0)
(7.78803 2.12465 0)
(8.87204 2.0315 0)
(8.82796 2.40497 0)
(9.69054 2.29529 0)
(9.51342 2.0527 0)
(10.0053 1.87202 0)
(9.73746 1.14494 0)
(10.0967 0.657076 0)
(9.9403 0.539877 0)
(9.86584 0.271241 0)
(9.49433 -0.33092 0)
(9.5561 -0.754401 0)
(9.47216 -1.50977 0)
(9.44384 -2.00117 0)
(9.09931 -2.10939 0)
(8.94005 -2.07089 0)
(8.62277 -2.31772 0)
(8.80342 -2.31815 0)
(8.55665 -3.03114 0)
(8.72631 -2.85166 0)
(8.72408 -3.96687 0)
(8.81819 -3.83362 0)
(8.76473 -4.25398 0)
(8.43447 -3.55129 0)
(8.55175 -3.47627 0)
(8.08698 -2.78617 0)
(8.38316 -2.40042 0)
(7.67772 -2.08234 0)
(8.20684 -1.2924 0)
(7.14313 -1.51099 0)
(8.10819 -0.188046 0)
(6.92106 -0.448677 0)
(7.93052 0.538496 0)
(7.08669 0.725311 0)
(7.90151 1.82059 0)
(7.93121 2.38207 0)
(7.68858 2.39721 0)
(8.58147 3.79767 0)
(7.58234 3.7414 0)
(8.47006 4.65285 0)
(8.19217 5.33702 0)
(7.5211 6.36233 0)
(10.9422 6.53154 0)
(7.62599 10.5465 0)
(12.128 4.54307 0)
(10.9171 12.9817 0)
(11.9508 -0.0144113 0)
(11.8581 -0.00128823 0)
(11.7635 -0.0804801 0)
(11.7348 -0.101497 0)
(11.7295 -0.114462 0)
(11.8366 -0.153616 0)
(11.8596 -0.109957 0)
(11.9546 -0.128341 0)
(11.9265 -0.125534 0)
(11.9106 -0.121866 0)
(11.8692 -0.163241 0)
(11.7987 -0.174336 0)
(11.7958 -0.208485 0)
(11.7356 -0.221874 0)
(11.797 -0.230861 0)
(11.7732 -0.215402 0)
(11.8195 -0.193608 0)
(11.845 -0.190014 0)
(11.8369 -0.158626 0)
(11.8671 -0.122723 0)
(11.8815 -0.142208 0)
(11.8844 -0.0833759 0)
(11.919 -0.0546017 0)
(11.9543 -0.0544356 0)
(11.9089 0.0399083 0)
(11.9657 0.0374246 0)
(11.8858 0.0892035 0)
(11.9573 0.0680602 0)
(11.9343 0.0997714 0)
(11.9905 0.10441 0)
(12.1744 0.00129158 0)
(12.2006 0.0775914 0)
(12.4345 -0.00775736 0)
(12.666 -0.117373 0)
(12.7746 -0.120876 0)
(12.9745 -0.246338 0)
(13.2211 -0.454688 0)
(13.2559 -0.529265 0)
(13.3268 -0.720137 0)
(13.5316 -1.01883 0)
(13.4299 -1.1034 0)
(13.4427 -1.32269 0)
(13.5664 -1.618 0)
(13.476 -1.66687 0)
(13.4183 -1.84248 0)
(13.5766 -2.09539 0)
(13.5644 -2.09304 0)
(13.4619 -2.18661 0)
(13.6232 -2.40602 0)
(13.6559 -2.33569 0)
(13.4231 -2.34523 0)
(13.5146 -2.48337 0)
(13.5305 -2.39328 0)
(13.2577 -2.39693 0)
(13.2671 -2.51266 0)
(13.3651 -2.47534 0)
(13.1422 -2.53388 0)
(13.2076 -2.56533 0)
(13.2461 -2.5514 0)
(13.1873 -2.61334 0)
(13.1142 -2.5256 0)
(13.1242 -2.45179 0)
(13.0214 -2.39374 0)
(12.9281 -2.21724 0)
(12.8226 -2.06336 0)
(12.68 -1.94426 0)
(12.497 -1.77973 0)
(12.2564 -1.57018 0)
(11.9342 -1.26125 0)
(11.7579 -0.928155 0)
(11.3559 -0.635427 0)
(11.115 -0.409565 0)
(10.6751 -0.138239 0)
(10.1984 0.123367 0)
(9.86134 0.309635 0)
(9.53371 0.570697 0)
(9.38108 0.715792 0)
(9.19546 0.86304 0)
(8.95214 1.05414 0)
(8.972 1.0504 0)
(8.78162 1.02751 0)
(8.85383 0.84232 0)
(8.72108 0.713011 0)
(8.81089 0.496468 0)
(8.7947 0.416591 0)
(8.78532 0.27195 0)
(8.87577 -0.0567376 0)
(8.67673 -0.274143 0)
(8.88845 -0.716311 0)
(8.66248 -1.10978 0)
(8.6066 -1.44381 0)
(8.55594 -1.79413 0)
(8.38813 -2.13329 0)
(8.44396 -2.49039 0)
(8.1272 -2.62697 0)
(8.09705 -2.93496 0)
(8.11848 -3.42928 0)
(7.88411 -3.49093 0)
(7.55996 -3.41812 0)
(6.8385 -3.38262 0)
(5.629 -2.59389 0)
(4.09009 -1.39824 0)
(2.74574 -1.00791 0)
(1.92201 -1.86764 0)
(1.37727 -3.50298 0)
(1.10923 -5.55923 0)
(1.03824 -7.49215 0)
(1.17959 -8.89595 0)
(1.4773 -9.46618 0)
(1.86459 -9.17617 0)
(2.28597 -8.44894 0)
(2.55212 -7.68264 0)
(2.79933 -6.74183 0)
(3.02736 -5.58998 0)
(3.1816 -4.53539 0)
(3.39951 -3.45985 0)
(3.39186 -2.41715 0)
(3.2424 -1.56058 0)
(3.23499 -0.51648 0)
(3.1249 0.596217 0)
(2.99507 1.33919 0)
(3.04666 1.45395 0)
(3.51195 1.59974 0)
(3.40857 2.04625 0)
(3.18957 2.92946 0)
(2.86132 3.96655 0)
(2.79777 5.21138 0)
(2.5052 5.92662 0)
(2.59361 6.55454 0)
(2.9772 6.54171 0)
(3.20411 6.41523 0)
(3.34555 6.25008 0)
(4.2094 6.3932 0)
(3.60886 6.13827 0)
(4.34299 5.47723 0)
(4.23013 5.7388 0)
(4.63782 5.0522 0)
(4.9027 5.68737 0)
(5.15352 4.68655 0)
(5.36548 4.6427 0)
(5.49828 3.94488 0)
(5.76391 3.97006 0)
(5.83017 4.06529 0)
(6.64227 4.23152 0)
(6.19711 4.31828 0)
(6.84298 4.0979 0)
(6.52593 3.69162 0)
(6.9463 3.66799 0)
(6.27396 3.15916 0)
(7.0727 2.61173 0)
(6.56319 2.33786 0)
(7.31018 2.59134 0)
(6.80593 2.77236 0)
(7.81733 2.42326 0)
(7.68811 1.70045 0)
(8.58018 1.65081 0)
(8.37118 2.07346 0)
(9.33308 2.00653 0)
(9.04974 1.89457 0)
(9.74299 1.67054 0)
(9.41055 1.02864 0)
(9.97879 0.649383 0)
(9.44413 0.60721 0)
(9.80123 0.37867 0)
(9.37051 -0.266274 0)
(9.92415 -0.600614 0)
(9.54867 -1.50555 0)
(9.77638 -1.82248 0)
(9.27455 -2.06983 0)
(9.34164 -1.86328 0)
(8.97639 -2.15756 0)
(9.20892 -2.35753 0)
(8.88316 -2.986 0)
(9.28192 -2.84688 0)
(9.26481 -3.92468 0)
(9.45761 -3.65049 0)
(9.11022 -4.18454 0)