/*--------------------------------*- C++ -*----------------------------------*\
| =========                 |                                                 |
| \\      /  F ield         | OpenFOAM: The Open Source CFD Toolbox           |
|  \\    /   O peration     | Version:  2.4.0                                 |
|   \\  /    A nd           | Web:      www.OpenFOAM.org                      |
|    \\/     M anipulation  |                                                 |
\*---------------------------------------------------------------------------*/
FoamFile
{
    version     2.0;
    format      ascii;
    class       volVectorField;
    location    "1.66";
    object      U_0;
}
// * * * * * * * * * * * * * * * * * * * * * * * * * * * * * * * * * * * * * //

dimensions      [0 1 -1 0 0 0 0];

internalField   nonuniform List<vector> 
8800
(
(8.09272 0.38791 0)
(5.45216 0.24262 0)
(3.90879 0.0431175 0)
(3.16111 -0.0155389 0)
(2.79436 -0.018406 0)
(2.60816 -0.0111171 0)
(2.47214 -0.00517784 0)
(2.39373 -0.0030712 0)
(2.30509 -0.000895938 0)
(2.26484 -0.000729678 0)
(2.20092 -0.000936828 0)
(2.18615 -0.000261496 0)
(2.12491 0.000841221 0)
(2.12407 -0.00124628 0)
(2.05914 0.00154431 0)
(2.06555 -0.000812486 0)
(1.99987 0.0002981 0)
(2.01375 -0.0031261 0)
(2.01062 0.0107646 0)
(1.76308 -0.0681502 0)
(10.0805 0.837934 0)
(9.66986 0.868042 0)
(8.85735 0.507207 0)
(8.1036 0.261922 0)
(7.46905 0.137869 0)
(7.03726 0.0819822 0)
(6.66127 0.0552549 0)
(6.44143 0.0388193 0)
(6.18078 0.0314381 0)
(6.07102 0.0241272 0)
(5.87915 0.0177703 0)
(5.83325 0.0168562 0)
(5.66304 0.0178752 0)
(5.66677 0.0107917 0)
(5.4861 0.0194588 0)
(5.51611 0.00935821 0)
(5.34847 0.0188566 0)
(5.36446 -0.00964661 0)
(5.31392 0.0299493 0)
(5.15467 -0.0411173 0)
(10.0438 0.629781 0)
(10.6889 0.864254 0)
(10.8338 0.601565 0)
(10.7344 0.374135 0)
(10.4116 0.254776 0)
(10.1424 0.197112 0)
(9.7734 0.154282 0)
(9.57136 0.12072 0)
(9.23615 0.097235 0)
(9.11567 0.0755569 0)
(8.84605 0.0581146 0)
(8.78765 0.0514283 0)
(8.54561 0.0471656 0)
(8.55695 0.0339457 0)
(8.30094 0.0470379 0)
(8.34678 0.0261027 0)
(8.12068 0.0461256 0)
(8.13724 -0.00509069 0)
(8.02287 0.0370839 0)
(7.98738 -0.083171 0)
(9.94733 0.454387 0)
(10.6377 0.708236 0)
(11.099 0.544961 0)
(11.4517 0.353466 0)
(11.4771 0.259883 0)
(11.5523 0.23001 0)
(11.3948 0.200252 0)
(11.4091 0.173062 0)
(11.1922 0.153286 0)
(11.1854 0.12423 0)
(10.9769 0.104016 0)
(10.9712 0.0930017 0)
(10.7565 0.0862756 0)
(10.7892 0.0636655 0)
(10.5528 0.085814 0)
(10.5895 0.0473527 0)
(10.3942 0.083858 0)
(10.3876 0.0121339 0)
(10.2471 0.0449329 0)
(10.2658 -0.0883732 0)
(9.93566 0.340307 0)
(10.5104 0.573472 0)
(10.9468 0.460811 0)
(11.4112 0.297264 0)
(11.5573 0.203161 0)
(11.7768 0.19695 0)
(11.7761 0.178826 0)
(11.9224 0.165247 0)
(11.8956 0.153771 0)
(11.9916 0.1315 0)
(11.9447 0.109052 0)
(12.0175 0.109454 0)
(11.9545 0.0946663 0)
(12.0138 0.0828689 0)
(11.93 0.0988456 0)
(11.9603 0.072259 0)
(11.8968 0.0884804 0)
(11.8859 0.0623026 0)
(11.8144 0.0461049 0)
(11.8038 -0.0325015 0)
(9.95724 0.248961 0)
(10.4001 0.456177 0)
(10.8349 0.375229 0)
(11.2517 0.249562 0)
(11.4636 0.163154 0)
(11.6652 0.153103 0)
(11.7585 0.146479 0)
(11.8654 0.129948 0)
(11.9559 0.131821 0)
(12.045 0.109009 0)
(12.0943 0.092363 0)
(12.1835 0.093414 0)
(12.2605 0.0845231 0)
(12.3207 0.0683141 0)
(12.3555 0.0935406 0)
(12.4127 0.0657154 0)
(12.4534 0.0845324 0)
(12.4701 0.0723684 0)
(12.4743 0.0697536 0)
(12.5247 0.0174195 0)
(9.98714 0.175375 0)
(10.3303 0.349028 0)
(10.7135 0.290777 0)
(11.1236 0.211247 0)
(11.4213 0.115016 0)
(11.5828 0.118079 0)
(11.6513 0.107913 0)
(11.7561 0.112371 0)
(11.8687 0.088654 0)
(11.9767 0.107059 0)
(12.0174 0.0552941 0)
(12.1241 0.0847527 0)
(12.22 0.0397863 0)
(12.2615 0.0810186 0)
(12.3391 0.0482576 0)
(12.4392 0.0785569 0)
(12.4672 0.0336626 0)
(12.5058 0.119721 0)
(12.5533 0.0505407 0)
(12.6194 0.136026 0)
(9.99361 0.10568 0)
(10.2731 0.263544 0)
(10.6448 0.194286 0)
(11.077 0.155229 0)
(11.331 0.0695825 0)
(11.4752 0.112348 0)
(11.5957 0.0687426 0)
(11.7212 0.0852841 0)
(11.7716 0.0388016 0)
(11.9222 0.0956547 0)
(11.9745 0.0224687 0)
(12.0386 0.0778012 0)
(12.113 0.0172811 0)
(12.2161 0.0734467 0)
(12.3023 0.00877811 0)
(12.356 0.0764903 0)
(12.3811 0.0213023 0)
(12.4881 0.104992 0)
(12.5381 0.0221158 0)
(12.4923 0.145976 0)
(9.98087 0.0669859 0)
(10.2646 0.147951 0)
(10.6342 0.115818 0)
(10.9699 0.0908525 0)
(11.2485 0.0592818 0)
(11.4611 0.0569363 0)
(11.6113 0.0375458 0)
(11.6676 0.0482192 0)
(11.6995 0.0274174 0)
(11.8864 0.0461328 0)
(11.935 0.0281923 0)
(11.9642 0.0443032 0)
(12.11 0.00700982 0)
(12.1857 0.0203427 0)
(12.1961 0.0274126 0)
(12.2936 0.038069 0)
(12.4093 0.0138523 0)
(12.4428 0.0435899 0)
(12.4185 0.0369034 0)
(12.3288 -0.0193622 0)
(9.99642 0.010229 0)
(10.2508 0.0556891 0)
(10.5915 0.0383134 0)
(10.9244 0.0413199 0)
(11.2655 -0.00218203 0)
(11.4417 0.0320978 0)
(11.5606 0.0107965 0)
(11.6538 0.0371496 0)
(11.7062 -0.0223598 0)
(11.8357 0.0220728 0)
(11.9074 0.00806449 0)
(11.9843 0.0252316 0)
(12.0983 -0.0217263 0)
(12.109 0.0374269 0)
(12.1779 -0.00594599 0)
(12.3212 0.00158597 0)
(12.377 -0.00923132 0)
(12.3464 0.0482314 0)
(12.4159 -0.00887512 0)
(12.419 -0.0410395 0)
(10.0023 -0.0250156 0)
(10.2248 -0.0471347 0)
(10.6062 -0.0354084 0)
(10.9546 -0.0391174 0)
(11.2527 -0.0182658 0)
(11.4051 5.98094e-05 0)
(11.5525 -0.0197495 0)
(11.7203 -0.014069 0)
(11.6928 -0.0267675 0)
(11.7919 -0.0156914 0)
(11.9347 -0.00360089 0)
(11.9821 -0.00736417 0)
(12.04 -0.0131142 0)
(12.1431 -0.00406187 0)
(12.2485 -0.0207731 0)
(12.2768 -0.0235562 0)
(12.3056 -0.00489447 0)
(12.3967 -0.00504191 0)
(12.4853 -0.036361 0)
(12.365 -0.072875 0)
(9.997 -0.0725909 0)
(10.2278 -0.146916 0)
(10.6484 -0.122904 0)
(10.9734 -0.0878231 0)
(11.2598 -0.054067 0)
(11.4612 -0.0342519 0)
(11.5747 -0.0656123 0)
(11.7001 -0.0328092 0)
(11.7359 -0.039914 0)
(11.8273 -0.0579393 0)
(11.9282 -0.0274683 0)
(12.0092 -0.013322 0)
(12.0731 -0.041904 0)
(12.1774 -0.0312923 0)
(12.2555 -0.0276156 0)
(12.2642 -0.0331374 0)
(12.3509 -0.044055 0)
(12.4595 -0.0407934 0)
(12.477 -0.0592685 0)
(12.3421 -0.0515667 0)
(9.99747 -0.116118 0)
(10.2651 -0.255288 0)
(10.6777 -0.200976 0)
(11.0273 -0.151191 0)
(11.3213 -0.0896994 0)
(11.5122 -0.0658548 0)
(11.6013 -0.0833293 0)
(11.6868 -0.0786102 0)
(11.8308 -0.0673526 0)
(11.8881 -0.0748139 0)
(11.9285 -0.0453363 0)
(12.0766 -0.047457 0)
(12.143 -0.0470044 0)
(12.178 -0.0524771 0)
(12.2744 -0.0417765 0)
(12.3664 -0.0596075 0)
(12.4125 -0.0686437 0)
(12.4477 -0.069308 0)
(12.5115 -0.0725943 0)
(12.4404 -0.0800246 0)
(10.0211 -0.178082 0)
(10.3034 -0.358403 0)
(10.748 -0.283746 0)
(11.1003 -0.204634 0)
(11.4081 -0.124297 0)
(11.5293 -0.103104 0)
(11.6967 -0.111403 0)
(11.7773 -0.115863 0)
(11.8804 -0.0942502 0)
(11.9458 -0.0958092 0)
(12.0297 -0.0687141 0)
(12.1117 -0.0754854 0)
(12.211 -0.0542149 0)
(12.2646 -0.0755279 0)
(12.3493 -0.0665693 0)
(12.4237 -0.0810242 0)
(12.4723 -0.0750785 0)
(12.5073 -0.103803 0)
(12.5692 -0.118161 0)
(12.4937 -0.104981 0)
(10.0695 -0.255804 0)
(10.3141 -0.459152 0)
(10.885 -0.367881 0)
(11.1741 -0.252335 0)
(11.5384 -0.160712 0)
(11.5967 -0.142782 0)
(11.8213 -0.151651 0)
(11.8358 -0.143603 0)
(11.982 -0.117102 0)
(11.9945 -0.122594 0)
(12.1439 -0.0856419 0)
(12.1384 -0.0993527 0)
(12.291 -0.0767321 0)
(12.2864 -0.0951866 0)
(12.3811 -0.0760968 0)
(12.3796 -0.104715 0)
(12.4629 -0.0909312 0)
(12.4422 -0.132144 0)
(12.4688 -0.126545 0)
(12.3354 -0.1364 0)
(10.0712 -0.351292 0)
(10.3749 -0.567264 0)
(11.05 -0.455142 0)
(11.2957 -0.298248 0)
(11.6671 -0.210179 0)
(11.6684 -0.184739 0)
(11.8947 -0.186529 0)
(11.8166 -0.167991 0)
(11.9937 -0.145209 0)
(11.8778 -0.139326 0)
(12.0454 -0.107985 0)
(11.9083 -0.113503 0)
(12.0562 -0.0903948 0)
(11.9067 -0.101814 0)
(12.016 -0.0862295 0)
(11.8649 -0.110008 0)
(11.9411 -0.0928516 0)
(11.7772 -0.137341 0)
(11.7772 -0.128684 0)
(11.5358 -0.170947 0)
(10.0201 -0.459603 0)
(10.5417 -0.705539 0)
(11.1821 -0.542156 0)
(11.3624 -0.355738 0)
(11.5651 -0.261879 0)
(11.4547 -0.222109 0)
(11.5005 -0.206185 0)
(11.287 -0.176577 0)
(11.3153 -0.145891 0)
(11.0503 -0.131158 0)
(11.1059 -0.102112 0)
(10.829 -0.0981561 0)
(10.8966 -0.0793486 0)
(10.6249 -0.084336 0)
(10.6935 -0.0693304 0)
(10.419 -0.0893291 0)
(10.4818 -0.0722646 0)
(10.1914 -0.116526 0)
(10.192 -0.0970703 0)
(9.85803 -0.171806 0)
(10.07 -0.633051 0)
(10.6448 -0.863621 0)
(10.8784 -0.599253 0)
(10.6812 -0.374585 0)
(10.4616 -0.256721 0)
(10.0838 -0.193132 0)
(9.84217 -0.157063 0)
(9.48356 -0.123005 0)
(9.33147 -0.0928431 0)
(9.00654 -0.0791117 0)
(8.95426 -0.0579976 0)
(8.66195 -0.054215 0)
(8.66949 -0.0436382 0)
(8.40031 -0.0459684 0)
(8.43491 -0.0402178 0)
(8.16349 -0.0514965 0)
(8.20734 -0.0469085 0)
(7.90851 -0.0696421 0)
(7.90893 -0.0742929 0)
(7.55976 -0.0978294 0)
(10.0874 -0.838833 0)
(9.6503 -0.868042 0)
(8.87679 -0.505736 0)
(8.07752 -0.262073 0)
(7.49525 -0.139062 0)
(7.00585 -0.0801008 0)
(6.69932 -0.0557781 0)
(6.39118 -0.0413887 0)
(6.23568 -0.0283357 0)
(6.00505 -0.0261506 0)
(5.94547 -0.017845 0)
(5.74993 -0.0186298 0)
(5.74185 -0.0152027 0)
(5.55895 -0.0181834 0)
(5.5701 -0.015896 0)
(5.37827 -0.0236191 0)
(5.39111 -0.0213215 0)
(5.1681 -0.0328054 0)
(5.15426 -0.0404678 0)
(4.85435 -0.0222735 0)
(8.09201 -0.387967 0)
(5.44726 -0.242598 0)
(3.91247 -0.0427012 0)
(3.15657 0.0154281 0)
(2.80083 0.0178229 0)
(2.59757 0.0117674 0)
(2.48582 0.00520124 0)
(2.37652 0.00204695 0)
(2.32147 0.00219131 0)
(2.24415 -8.08246e-05 0)
(2.22099 0.00112745 0)
(2.15635 -0.000258726 0)
(2.14931 0.000182747 0)
(2.08396 -0.000919077 0)
(2.08043 -0.000290355 0)
(2.00564 -0.00257303 0)
(1.99467 -0.00101956 0)
(1.90367 -0.00391261 0)
(1.86267 -0.00477008 0)
(1.70565 0.00992117 0)
(2.29071 -0.171092 0)
(2.39821 -0.0617875 0)
(2.51215 0.00688171 0)
(2.61929 0.0475249 0)
(2.74229 0.0545154 0)
(2.87002 0.0369554 0)
(2.99655 0.0123121 0)
(3.10437 -0.0214231 0)
(3.20043 -0.0569031 0)
(3.27208 -0.0869478 0)
(3.33476 -0.109599 0)
(3.36513 -0.118484 0)
(3.40091 -0.121884 0)
(3.4191 -0.124556 0)
(3.45753 -0.125624 0)
(3.48591 -0.124536 0)
(3.53294 -0.127131 0)
(3.56366 -0.120603 0)
(3.61268 -0.106803 0)
(3.63502 -0.097642 0)
(3.66772 -0.0788755 0)
(3.6861 -0.0525333 0)
(3.72124 -0.0436774 0)
(3.73493 -0.00378763 0)
(3.78001 0.0489596 0)
(3.81404 0.0921267 0)
(3.87472 0.181507 0)
(3.96766 0.288182 0)
(4.07991 0.378852 0)
(4.2854 0.477517 0)
(4.53267 0.582009 0)
(4.79881 0.663453 0)
(5.14558 0.645585 0)
(5.52239 0.645027 0)
(5.90959 0.575012 0)
(6.21424 0.391917 0)
(6.54539 0.230175 0)
(6.77616 0.0353136 0)
(6.92368 -0.219688 0)
(7.08956 -0.4564 0)
(7.18478 -0.66553 0)
(7.36157 -0.856973 0)
(7.50143 -0.993661 0)
(7.6427 -1.18651 0)
(7.87382 -1.32535 0)
(8.13484 -1.3421 0)
(8.3914 -1.48084 0)
(8.6865 -1.65958 0)
(9.05107 -1.67911 0)
(9.40414 -1.66712 0)
(9.77277 -1.80112 0)
(10.1219 -1.95565 0)
(10.4875 -1.92675 0)
(10.9047 -1.99139 0)
(11.2171 -2.19781 0)
(11.6103 -2.167 0)
(11.9246 -2.22295 0)
(12.1701 -2.40289 0)
(12.5108 -2.41488 0)
(12.6754 -2.57563 0)
(12.8554 -2.65068 0)
(13.0192 -2.62024 0)
(13.0258 -2.76718 0)
(13.1666 -2.74795 0)
(13.0747 -2.70575 0)
(12.7788 -2.76461 0)
(12.6537 -2.68394 0)
(12.2532 -2.64252 0)
(11.8635 -2.55838 0)
(11.4743 -2.31498 0)
(10.8206 -2.07945 0)
(10.3562 -1.81543 0)
(10.0015 -1.43805 0)
(9.60022 -0.998197 0)
(9.35345 -0.560366 0)
(9.16251 -0.124601 0)
(9.08057 0.341546 0)
(8.98285 0.688709 0)
(9.11958 0.889719 0)
(9.42167 1.22146 0)
(9.59608 1.42942 0)
(9.88939 1.25535 0)
(9.92775 1.22052 0)
(10.2153 0.938095 0)
(10.3198 0.602751 0)
(10.3574 0.322658 0)
(10.5281 -0.153682 0)
(10.4482 -0.547059 0)
(10.4781 -1.10275 0)
(10.3627 -1.5276 0)
(10.2025 -1.9284 0)
(10.0844 -2.3826 0)
(9.93766 -2.68318 0)
(9.56417 -2.93322 0)
(9.29999 -3.28128 0)
(9.09171 -3.54447 0)
(8.70042 -3.7864 0)
(8.44353 -4.1106 0)
(8.21542 -4.34054 0)
(7.97216 -4.65058 0)
(7.95118 -5.22893 0)
(7.78468 -5.60918 0)
(6.92795 -5.23529 0)
(5.69289 -4.56662 0)
(4.95077 -4.60839 0)
(4.7979 -5.45802 0)
(5.01361 -6.50253 0)
(5.45175 -7.37147 0)
(6.02322 -7.85542 0)
(6.65529 -7.86714 0)
(7.12817 -7.46018 0)
(7.35872 -6.87026 0)
(7.78675 -5.88393 0)
(7.89672 -5.01698 0)
(7.94443 -4.36573 0)
(8.07794 -3.16617 0)
(8.11811 -2.04359 0)
(8.1209 -1.59039 0)
(8.11231 -0.980983 0)
(7.99413 0.109496 0)
(7.90287 1.31502 0)
(7.61974 1.98698 0)
(7.63848 1.87893 0)
(7.8408 1.72804 0)
(7.60129 2.13809 0)
(7.33315 3.05803 0)
(7.03616 4.29096 0)
(6.79708 5.6929 0)
(6.59885 6.6051 0)
(6.35545 6.94292 0)
(6.48982 7.03323 0)
(6.55325 6.84833 0)
(6.3516 6.61946 0)
(6.54396 6.16346 0)
(6.27813 5.7305 0)
(6.23737 5.83287 0)
(6.42123 5.73966 0)
(5.71629 5.55086 0)
(6.22028 4.96208 0)
(5.67754 4.5668 0)
(6.12029 4.53452 0)
(6.05253 4.76673 0)
(6.39222 4.75141 0)
(6.34663 4.76016 0)
(6.28348 4.27933 0)
(6.28698 4.01326 0)
(5.98717 3.49633 0)
(6.01064 3.28148 0)
(6.08627 3.36873 0)
(6.67972 3.65959 0)
(6.85926 3.67168 0)
(7.52533 3.89013 0)
(7.42251 3.70097 0)
(8.05792 3.69016 0)
(8.2157 3.26339 0)
(8.98123 3.369 0)
(9.18672 3.19318 0)
(9.28699 2.88614 0)
(9.3207 2.21324 0)
(9.29821 1.97404 0)
(9.46352 1.26139 0)
(9.2453 0.709056 0)
(9.51067 0.350402 0)
(9.06493 -0.328288 0)
(8.99762 -0.877768 0)
(8.57731 -1.49063 0)
(8.34209 -2.11818 0)
(8.10649 -2.7173 0)
(7.67937 -2.84689 0)
(7.48429 -2.43672 0)
(7.45375 -2.54744 0)
(7.42954 -2.76207 0)
(7.28252 -2.78754 0)
(7.29897 -3.11517 0)
(7.3834 -3.58279 0)
(7.42838 -3.99698 0)
(7.2588 -4.25082 0)
(7.34954 -3.94553 0)
(7.16774 -3.48332 0)
(7.19352 -2.93504 0)
(7.2862 -2.43382 0)
(6.96534 -2.10578 0)
(7.45007 -1.7972 0)
(7.17013 -1.31402 0)
(7.6909 -0.683337 0)
(6.98846 -0.609557 0)
(7.25852 0.782309 0)
(7.02792 1.08649 0)
(6.9876 1.59928 0)
(6.74129 2.43898 0)
(6.61942 2.49426 0)
(6.7066 3.3972 0)
(6.52794 3.46882 0)
(6.84344 4.88184 0)
(6.64093 5.78579 0)
(6.94661 6.30258 0)
(6.84228 7.79305 0)
(6.7948 8.6201 0)
(7.10065 9.9626 0)
(4.28855 13.8148 0)
(5.3326 -0.102908 0)
(5.37288 -0.0914065 0)
(5.39703 -0.0598047 0)
(5.40225 -0.0263449 0)
(5.43477 -0.0167776 0)
(5.48208 -0.0225616 0)
(5.54987 -0.0415136 0)
(5.61476 -0.0767033 0)
(5.67634 -0.111459 0)
(5.7157 -0.139413 0)
(5.76026 -0.151828 0)
(5.78625 -0.158667 0)
(5.80623 -0.157393 0)
(5.82657 -0.151895 0)
(5.84098 -0.159982 0)
(5.86612 -0.151937 0)
(5.90563 -0.156295 0)
(5.91969 -0.154932 0)
(5.95647 -0.134885 0)
(5.98163 -0.119488 0)
(5.97834 -0.101151 0)
(5.99793 -0.0698553 0)
(6.02187 -0.0478433 0)
(5.99495 -0.0171929 0)
(6.03189 0.0374831 0)
(6.06986 0.0729924 0)
(6.05098 0.145684 0)
(6.1456 0.208773 0)
(6.20916 0.27507 0)
(6.30721 0.357897 0)
(6.44943 0.393073 0)
(6.65759 0.447326 0)
(6.88852 0.444872 0)
(7.07036 0.395208 0)
(7.44923 0.32985 0)
(7.66532 0.217931 0)
(7.90642 -0.00340965 0)
(8.21407 -0.189842 0)
(8.3941 -0.324659 0)
(8.66357 -0.62935 0)
(8.84528 -0.85686 0)
(9.02444 -0.96621 0)
(9.32723 -1.20315 0)
(9.55652 -1.41515 0)
(9.727 -1.46776 0)
(10.0759 -1.59386 0)
(10.3795 -1.76331 0)
(10.6245 -1.82913 0)
(10.9471 -1.89466 0)
(11.2069 -2.00011 0)
(11.519 -2.07459 0)
(11.8629 -2.14597 0)
(12.0429 -2.26995 0)
(12.3899 -2.22764 0)
(12.6242 -2.30765 0)
(12.7499 -2.5285 0)
(13.0347 -2.44077 0)
(13.1085 -2.50851 0)
(13.2706 -2.66936 0)
(13.4728 -2.62516 0)
(13.3297 -2.70371 0)
(13.4265 -2.69455 0)
(13.4721 -2.65304 0)
(13.187 -2.74071 0)
(13.0701 -2.63592 0)
(12.7898 -2.60727 0)
(12.5293 -2.53102 0)
(12.1856 -2.28758 0)
(11.709 -2.13476 0)
(11.3198 -1.85022 0)
(10.9229 -1.58633 0)
(10.4945 -1.32066 0)
(9.99015 -0.950544 0)
(9.63913 -0.595007 0)
(9.2541 -0.262667 0)
(8.96334 0.0520302 0)
(8.91727 0.374826 0)
(8.88517 0.654353 0)
(8.90709 0.773094 0)
(8.90249 0.928669 0)
(9.22733 1.04048 0)
(9.39876 1.12334 0)
(9.60165 0.970509 0)
(9.94861 0.732815 0)
(9.80683 0.606638 0)
(10.0478 0.176747 0)
(9.89193 -0.142067 0)
(9.92728 -0.582146 0)
(9.82623 -1.09314 0)
(9.59843 -1.43427 0)
(9.57525 -1.86432 0)
(9.3022 -2.26424 0)
(9.10268 -2.46244 0)
(8.79611 -2.76336 0)
(8.69877 -3.14235 0)
(8.55242 -3.2965 0)
(8.22578 -3.53651 0)
(8.21862 -3.93706 0)
(8.12686 -4.21155 0)
(7.985 -4.53848 0)
(7.85903 -4.99252 0)
(7.20265 -4.85443 0)
(5.85898 -4.10967 0)
(4.59239 -3.75914 0)
(3.99295 -4.31973 0)
(3.87649 -5.53416 0)
(4.11446 -6.8123 0)
(4.60057 -7.8217 0)
(5.17436 -8.33896 0)
(5.62798 -8.2286 0)
(6.04962 -7.69948 0)
(6.25941 -7.04199 0)
(6.58834 -6.00351 0)
(6.72543 -5.00922 0)
(6.62202 -4.28691 0)
(6.74569 -3.21214 0)
(6.97025 -2.17552 0)
(7.00086 -1.57755 0)
(7.01652 -0.820742 0)
(6.81805 0.331267 0)
(6.60644 1.47798 0)
(6.38792 1.96612 0)
(6.63684 1.80556 0)
(6.78595 1.86362 0)
(6.58365 2.37318 0)
(6.2811 3.38257 0)
(5.98008 4.56512 0)
(5.59676 5.83821 0)
(5.54101 6.71833 0)
(5.41812 6.91357 0)
(5.4996 6.92185 0)
(5.86476 6.8476 0)
(5.63153 6.59252 0)
(5.83713 6.23518 0)
(5.86528 5.84652 0)
(5.52017 5.81897 0)
(6.15247 5.81119 0)
(5.43295 5.60873 0)
(5.89482 5.00415 0)
(5.55422 4.615 0)
(5.79738 4.39985 0)
(5.92242 4.66421 0)
(6.16854 4.59627 0)
(6.32411 4.76226 0)
(6.2775 4.30043 0)
(6.47932 4.1201 0)
(6.05399 3.5665 0)
(6.11097 3.27035 0)
(5.97094 3.02978 0)
(6.65601 3.23345 0)
(6.59519 3.38311 0)
(7.56921 3.66539 0)
(7.48947 3.43532 0)
(8.22986 3.30386 0)
(8.10528 2.9024 0)
(9.0775 3.1029 0)
(9.20558 3.10199 0)
(9.53924 2.77456 0)
(9.54544 2.16555 0)
(9.59027 1.9074 0)
(9.69887 1.25187 0)
(9.61244 0.782488 0)
(9.9569 0.37934 0)
(9.38323 -0.185975 0)
(9.47297 -0.676751 0)
(8.9974 -1.23907 0)
(8.95026 -1.78638 0)
(8.54305 -2.44972 0)
(8.15944 -2.60564 0)
(8.06247 -2.34562 0)
(7.8388 -2.61792 0)
(7.97312 -2.54895 0)
(7.59492 -2.96988 0)
(7.82213 -3.26055 0)
(7.64868 -3.79548 0)
(7.90193 -3.9862 0)
(7.76603 -4.26939 0)
(7.83756 -3.86717 0)
(7.49524 -3.58631 0)
(7.60756 -3.0291 0)
(7.46706 -2.3123 0)
(7.62939 -2.02075 0)
(7.46628 -1.72828 0)
(7.58641 -1.42631 0)
(7.2598 -0.810603 0)
(7.39081 0.145263 0)
(6.95832 -0.0288222 0)
(7.57789 1.53886 0)
(7.10704 1.725 0)
(7.39576 2.18161 0)
(7.13088 2.8276 0)
(7.18703 3.03616 0)
(7.13772 4.33568 0)
(7.01618 4.05757 0)
(7.31686 5.66818 0)
(7.52381 6.99689 0)
(7.49821 7.49786 0)
(7.36303 9.01435 0)
(9.74163 9.73395 0)
(7.02392 14.8111 0)
(8.02053 -0.0712961 0)
(7.99573 -0.0321496 0)
(7.99935 -0.0302978 0)
(7.99787 -0.0318053 0)
(8.02658 -0.0258161 0)
(8.05824 -0.0658658 0)
(8.10259 -0.0784518 0)
(8.14846 -0.107013 0)
(8.19108 -0.133404 0)
(8.22057 -0.13593 0)
(8.23001 -0.169281 0)
(8.25711 -0.154303 0)
(8.23499 -0.164728 0)
(8.26007 -0.178488 0)
(8.26119 -0.174978 0)
(8.25522 -0.191803 0)
(8.30752 -0.183858 0)
(8.29613 -0.170118 0)
(8.34121 -0.14707 0)
(8.35983 -0.118248 0)
(8.36321 -0.0918615 0)
(8.37063 -0.0655953 0)
(8.37796 -0.0523092 0)
(8.35899 -0.0193931 0)
(8.35909 0.0149942 0)
(8.40473 0.0342362 0)
(8.36319 0.117885 0)
(8.48377 0.151727 0)
(8.5053 0.208607 0)
(8.61128 0.277358 0)
(8.73935 0.269303 0)
(8.83912 0.308818 0)
(9.11312 0.274997 0)
(9.18591 0.218829 0)
(9.44708 0.129128 0)
(9.71044 0.0149475 0)
(9.87757 -0.155393 0)
(10.1194 -0.366702 0)
(10.3183 -0.517246 0)
(10.5542 -0.762817 0)
(10.7607 -1.00685 0)
(10.9276 -1.14572 0)
(11.1733 -1.3465 0)
(11.4188 -1.5683 0)
(11.5417 -1.65921 0)
(11.8072 -1.7995 0)
(12.0977 -1.93532 0)
(12.2025 -2.03699 0)
(12.4387 -2.1553 0)
(12.7241 -2.12317 0)
(12.8326 -2.28544 0)
(13.0474 -2.40484 0)
(13.2179 -2.29178 0)
(13.1886 -2.43893 0)
(13.4531 -2.55668 0)
(13.4905 -2.49959 0)
(13.377 -2.55821 0)
(13.6156 -2.61294 0)
(13.5624 -2.65825 0)
(13.4418 -2.66954 0)
(13.4864 -2.64244 0)
(13.3842 -2.66061 0)
(13.23 -2.62596 0)
(13.0422 -2.55481 0)
(12.8594 -2.44175 0)
(12.6541 -2.33278 0)
(12.2247 -2.14376 0)
(12.0129 -1.92843 0)
(11.6594 -1.75636 0)
(11.2477 -1.54468 0)
(10.8411 -1.24768 0)
(10.298 -0.990798 0)
(9.81445 -0.765158 0)
(9.65052 -0.438607 0)
(9.35786 -0.0892451 0)
(9.25518 0.0997405 0)
(9.08795 0.391788 0)
(9.02534 0.684148 0)
(8.99161 0.922806 0)
(8.8734 1.00954 0)
(8.93649 0.96928 0)
(8.9711 0.942968 0)
(9.37208 0.796504 0)
(9.3484 0.779695 0)
(9.50313 0.464303 0)
(9.62744 0.276171 0)
(9.4102 -0.0643335 0)
(9.57002 -0.60775 0)
(9.23039 -0.859027 0)
(9.17644 -1.38309 0)
(9.05143 -1.81733 0)
(8.71672 -2.05953 0)
(8.71227 -2.34974 0)
(8.50169 -2.70721 0)
(8.43376 -2.99966 0)
(8.32606 -3.1768 0)
(8.21613 -3.58084 0)
(8.31316 -3.94282 0)
(8.08778 -4.12064 0)
(7.80156 -4.42699 0)
(7.33854 -4.54011 0)
(6.12695 -3.92226 0)
(4.57038 -3.00456 0)
(3.47816 -2.9979 0)
(3.01599 -4.11386 0)
(2.95508 -5.65481 0)
(3.1876 -7.1766 0)
(3.54463 -8.30634 0)
(4.02666 -8.72609 0)
(4.46322 -8.5057 0)
(4.81375 -7.90569 0)
(5.1542 -7.12418 0)
(5.39676 -6.18273 0)
(5.60229 -5.09384 0)
(5.59435 -4.26618 0)
(5.61175 -3.31487 0)
(5.79056 -2.30208 0)
(5.74499 -1.61526 0)
(5.80257 -0.711426 0)
(5.60082 0.519155 0)
(5.37481 1.50361 0)
(5.25996 1.79481 0)
(5.61425 1.69529 0)
(5.75033 1.89506 0)
(5.50447 2.55903 0)
(5.20766 3.67605 0)
(4.92865 4.87498 0)
(4.49021 5.94216 0)
(4.48498 6.73486 0)
(4.6011 6.86502 0)
(4.51958 6.74637 0)
(5.10357 6.77561 0)
(5.10431 6.55535 0)
(4.83625 6.18241 0)
(5.40661 5.87393 0)
(4.80547 5.76487 0)
(5.61537 5.78988 0)
(5.26008 5.71296 0)
(5.5607 4.91901 0)
(5.3884 4.66225 0)
(5.65162 4.17576 0)
(5.8235 4.47983 0)
(6.02566 4.49491 0)
(6.32236 4.59481 0)
(6.21342 4.27935 0)
(6.56324 4.17031 0)
(6.25842 3.77795 0)
(6.41957 3.42347 0)
(5.95725 2.9602 0)
(6.56752 2.91609 0)
(6.30561 2.92885 0)
(7.55911 3.1432 0)
(7.37328 3.15697 0)
(8.15786 3.10989 0)
(8.0132 2.57749 0)
(9.07433 2.60389 0)
(9.11232 2.86204 0)
(9.75387 2.61287 0)
(9.67377 2.12397 0)
(9.887 1.8932 0)
(9.81258 1.16562 0)
(9.95818 0.659459 0)
(10.084 0.427249 0)
(9.69036 0.0144326 0)
(9.62248 -0.483243 0)
(9.20432 -1.0026 0)
(9.21314 -1.66818 0)
(8.92996 -2.38143 0)
(8.71147 -2.39451 0)
(8.49442 -2.18464 0)
(8.26649 -2.46414 0)
(8.36006 -2.38745 0)
(8.19216 -3.02639 0)
(8.41612 -2.88498 0)
(8.30079 -3.70574 0)
(8.38777 -3.89296 0)
(8.27694 -4.21422 0)
(8.16786 -3.57285 0)
(7.95749 -3.3906 0)
(7.83194 -2.78574 0)
(7.70505 -2.6861 0)
(7.95648 -1.74646 0)
(7.63106 -2.07024 0)
(7.77654 -0.734659 0)
(7.14553 -0.823839 0)
(7.53126 -0.105605 0)
(7.25225 0.631265 0)
(7.35142 0.795213 0)
(7.82644 2.13367 0)
(7.27316 2.04221 0)
(7.77821 3.06401 0)
(7.41571 3.14845 0)
(7.67593 3.62121 0)
(7.83028 5.00787 0)
(7.5721 4.84876 0)
(8.35314 6.66867 0)
(9.01338 7.49911 0)
(7.3877 8.91178 0)
(11.9283 7.52987 0)
(9.53369 14.8444 0)
(10.362 -0.0046117 0)
(10.2679 0.0114122 0)
(10.2183 -0.0348248 0)
(10.1726 -0.0539541 0)
(10.1771 -0.0916123 0)
(10.2419 -0.095607 0)
(10.2596 -0.0861868 0)
(10.34 -0.114475 0)
(10.3077 -0.134904 0)
(10.3238 -0.163395 0)
(10.3079 -0.189234 0)
(10.3128 -0.179508 0)
(10.3459 -0.168454 0)
(10.355 -0.16149 0)
(10.3992 -0.154824 0)
(10.366 -0.157419 0)
(10.3901 -0.1683 0)
(10.3377 -0.185081 0)
(10.3525 -0.170676 0)
(10.3613 -0.14568 0)
(10.3691 -0.140397 0)
(10.4207 -0.0655274 0)
(10.4358 -0.0477305 0)
(10.4491 -0.0234229 0)
(10.4388 0.0613113 0)
(10.4728 0.0279393 0)
(10.387 0.100344 0)
(10.5201 0.124922 0)
(10.5074 0.128115 0)
(10.5796 0.188806 0)
(10.7983 0.169648 0)
(10.8406 0.190777 0)
(11.0867 0.133276 0)
(11.2358 0.0807556 0)
(11.4098 -0.0243688 0)
(11.6076 -0.146577 0)
(11.7725 -0.305626 0)
(11.9269 -0.516894 0)
(12.086 -0.66692 0)
(12.2549 -0.884688 0)
(12.3581 -1.13966 0)
(12.5018 -1.28041 0)
(12.6382 -1.44218 0)
(12.7554 -1.73001 0)
(12.8768 -1.7896 0)
(12.9854 -1.87736 0)
(13.1554 -2.15647 0)
(13.2874 -2.15699 0)
(13.3111 -2.15372 0)
(13.4792 -2.38257 0)
(13.6489 -2.38949 0)
(13.4629 -2.33212 0)
(13.5811 -2.4767 0)
(13.7018 -2.51068 0)
(13.5105 -2.43581 0)
(13.4651 -2.55583 0)
(13.5712 -2.57939 0)
(13.4279 -2.56711 0)
(13.3707 -2.63558 0)
(13.3512 -2.60853 0)
(13.3167 -2.5851 0)
(13.0936 -2.57294 0)
(13.084 -2.44799 0)
(12.865 -2.34869 0)
(12.6802 -2.24538 0)
(12.4788 -2.03163 0)
(12.2543 -1.89632 0)
(11.9952 -1.74086 0)
(11.6565 -1.51632 0)
(11.2626 -1.27566 0)
(10.8976 -0.954308 0)
(10.6241 -0.568011 0)
(10.3058 -0.417799 0)
(9.88778 -0.170208 0)
(9.63226 0.108868 0)
(9.36496 0.357536 0)
(9.04926 0.594296 0)
(8.94991 0.739476 0)
(8.76188 0.917549 0)
(8.81306 0.96053 0)
(8.78378 0.9527 0)
(8.77179 0.765717 0)
(8.92575 0.676962 0)
(8.97347 0.63733 0)
(9.20841 0.375212 0)
(9.07543 0.296765 0)
(9.23934 -0.119306 0)
(9.09112 -0.404849 0)
(8.93155 -0.789225 0)
(8.96985 -1.32213 0)
(8.70734 -1.537 0)
(8.64565 -1.91837 0)
(8.55031 -2.23784 0)
(8.44821 -2.5813 0)
(8.40542 -2.87936 0)
(8.33756 -3.03599 0)
(8.28872 -3.49759 0)
(8.22435 -3.76972 0)
(7.90924 -3.82752 0)
(7.47384 -4.02826 0)
(6.64287 -3.6063 0)
(4.98346 -2.53915 0)
(3.41993 -1.96116 0)
(2.58015 -2.56951 0)
(2.17332 -4.00142 0)
(2.04393 -5.74399 0)
(2.15054 -7.43396 0)
(2.43811 -8.65663 0)
(2.81443 -9.1346 0)
(3.28115 -8.84221 0)
(3.61966 -8.16733 0)
(3.86571 -7.32978 0)
(4.11639 -6.35591 0)
(4.42338 -5.26027 0)
(4.51332 -4.24519 0)
(4.59643 -3.2902 0)
(4.70337 -2.31437 0)
(4.51778 -1.55237 0)
(4.5653 -0.55559 0)
(4.37815 0.678001 0)
(4.17044 1.5159 0)
(4.13428 1.67389 0)
(4.57089 1.62844 0)
(4.55547 2.01967 0)
(4.28134 2.84912 0)
(4.05157 3.96949 0)
(3.81017 5.16718 0)
(3.42767 6.04406 0)
(3.47172 6.73032 0)
(3.72891 6.73681 0)
(3.70043 6.51984 0)
(4.05035 6.56101 0)
(4.60439 6.5906 0)
(3.94387 6.10021 0)
(4.90959 5.73336 0)
(4.42501 5.74258 0)
(5.09455 5.41942 0)
(5.13731 5.68118 0)
(5.3789 4.74239 0)
(5.33308 4.66315 0)
(5.58912 3.96327 0)
(5.75003 4.2319 0)
(5.98643 4.36427 0)
(6.54378 4.41137 0)
(6.22779 4.32032 0)
(6.66026 4.08887 0)
(6.40013 3.72656 0)
(6.71015 3.52065 0)
(6.0806 3.04898 0)
(6.78522 2.69394 0)
(6.3748 2.51667 0)
(7.45927 2.75764 0)
(6.96614 2.98541 0)
(7.9354 2.68488 0)
(7.85854 2.04463 0)
(8.9365 2.09889 0)
(8.86073 2.46777 0)
(9.7231 2.28722 0)
(9.48665 2.05626 0)
(10.0022 1.79908 0)
(9.71588 1.04123 0)
(10.0966 0.656634 0)
(9.8737 0.558947 0)
(9.80027 0.203726 0)
(9.45673 -0.427764 0)
(9.55057 -0.885507 0)
(9.46525 -1.64434 0)
(9.3853 -2.06398 0)
(9.03755 -2.10769 0)
(8.87173 -2.10237 0)
(8.59742 -2.36296 0)
(8.78648 -2.41437 0)
(8.54499 -3.11396 0)
(8.74472 -2.98901 0)
(8.72203 -4.08554 0)
(8.81279 -3.89707 0)
(8.71419 -4.23858 0)
(8.40909 -3.49562 0)
(8.50305 -3.42204 0)
(8.06825 -2.70703 0)
(8.33014 -2.3635 0)
(7.66042 -2.00599 0)
(8.14224 -1.27041 0)
(7.12494 -1.44445 0)
(8.06771 -0.107867 0)
(6.87199 -0.450444 0)
(7.9339 0.599258 0)
(7.06997 0.792693 0)
(7.94997 1.89249 0)
(7.93113 2.35948 0)
(7.71599 2.43021 0)
(8.58997 3.81562 0)
(7.57744 3.73566 0)
(8.4891 4.64279 0)
(8.20462 5.38698 0)
(7.58701 6.40689 0)
(10.9578 6.57591 0)
(7.62765 10.5027 0)
(12.1087 4.58034 0)
(10.8864 13.0472 0)
(11.9477 -0.0113529 0)
(11.8478 -0.00837365 0)
(11.765 -0.0864813 0)
(11.737 -0.0952819 0)
(11.7418 -0.113124 0)
(11.8448 -0.144997 0)
(11.8644 -0.101371 0)
(11.9533 -0.128916 0)
(11.9115 -0.122621 0)
(11.8987 -0.127455 0)
(11.8508 -0.170422 0)
(11.7906 -0.17986 0)
(11.7898 -0.21446 0)
(11.7409 -0.223039 0)
(11.8073 -0.228061 0)
(11.7794 -0.207747 0)
(11.8335 -0.189313 0)
(11.8479 -0.185575 0)
(11.8416 -0.150378 0)
(11.8763 -0.125134 0)
(11.8852 -0.140081 0)
(11.8916 -0.0750681 0)
(11.93 -0.0580242 0)
(11.9485 -0.0469003 0)
(11.9062 0.0445585 0)
(11.9524 0.0337927 0)
(11.873 0.0812238 0)
(11.9492 0.058492 0)
(11.9208 0.0954608 0)
(12.0094 0.0798828 0)
(12.1804 -0.000614395 0)
(12.2157 0.0825712 0)
(12.4784 -0.0264704 0)
(12.6833 -0.107251 0)
(12.7859 -0.106508 0)
(13.0069 -0.262004 0)
(13.2219 -0.449647 0)
(13.2294 -0.518304 0)
(13.3354 -0.749591 0)
(13.5086 -1.02259 0)
(13.3815 -1.09639 0)
(13.4446 -1.35991 0)
(13.5526 -1.6203 0)
(13.4383 -1.65592 0)
(13.4355 -1.87662 0)
(13.6036 -2.09173 0)
(13.5453 -2.07016 0)
(13.4888 -2.21136 0)
(13.6705 -2.3948 0)
(13.63 -2.29497 0)
(13.4243 -2.35421 0)
(13.5556 -2.469 0)
(13.4996 -2.35957 0)
(13.2376 -2.40975 0)
(13.3077 -2.51291 0)
(13.3507 -2.46944 0)
(13.1273 -2.5452 0)
(13.2356 -2.56441 0)
(13.243 -2.56146 0)
(13.167 -2.61121 0)
(13.1092 -2.50801 0)
(13.1058 -2.45102 0)
(12.9935 -2.37747 0)
(12.9036 -2.19325 0)
(12.7931 -2.05876 0)
(12.648 -1.94037 0)
(12.4556 -1.77024 0)
(12.1997 -1.54817 0)
(11.8998 -1.22652 0)
(11.7187 -0.901546 0)
(11.3151 -0.627455 0)
(11.071 -0.40402 0)
(10.5916 -0.1266 0)
(10.1339 0.124459 0)
(9.81563 0.315784 0)
(9.51096 0.577397 0)
(9.37429 0.716108 0)
(9.16549 0.882924 0)
(8.94786 1.05681 0)
(8.96558 1.03266 0)
(8.77946 0.994844 0)
(8.85687 0.803884 0)
(8.72019 0.681755 0)
(8.82767 0.478673 0)
(8.79512 0.413567 0)
(8.80594 0.237304 0)
(8.87192 -0.0979632 0)
(8.69479 -0.327454 0)
(8.90204 -0.791351 0)
(8.64618 -1.17032 0)
(8.60987 -1.49506 0)
(8.54982 -1.85323 0)
(8.39785 -2.18781 0)
(8.43882 -2.53008 0)
(8.12572 -2.67327 0)
(8.13441 -3.01516 0)
(8.14323 -3.49788 0)
(7.89413 -3.51654 0)
(7.54076 -3.45046 0)
(6.78005 -3.38715 0)
(5.52837 -2.52812 0)
(3.96937 -1.36664 0)
(2.66178 -1.09194 0)
(1.8828 -2.03584 0)
(1.37072 -3.68916 0)
(1.1291 -5.71098 0)
(1.08808 -7.58047 0)
(1.26227 -8.90146 0)
(1.57064 -9.40374 0)
(1.96491 -9.0724 0)
(2.37444 -8.33831 0)
(2.62865 -7.56646 0)
(2.88056 -6.61077 0)
(3.12017 -5.46145 0)
(3.27013 -4.41781 0)
(3.4723 -3.35041 0)
(3.45063 -2.32183 0)
(3.29362 -1.46339 0)
(3.28912 -0.388631 0)
(3.17752 0.723631 0)
(3.04686 1.40263 0)
(3.10744 1.46535 0)
(3.52734 1.63997 0)
(3.36906 2.15444 0)
(3.13492 3.09479 0)
(2.82341 4.15803 0)
(2.77977 5.39991 0)
(2.55919 6.06176 0)
(2.67108 6.60513 0)
(3.08248 6.53432 0)
(3.32757 6.39987 0)
(3.43941 6.22942 0)
(4.27389 6.35413 0)
(3.69252 6.10855 0)
(4.37127 5.41237 0)
(4.29678 5.71846 0)
(4.69088 5.00405 0)
(4.95582 5.64413 0)
(5.19888 4.58251 0)
(5.42955 4.57588 0)
(5.53996 3.89745 0)
(5.82278 3.97079 0)
(5.90741 4.06685 0)
(6.68264 4.24559 0)
(6.20006 4.30426 0)
(6.88751 4.03854 0)
(6.52693 3.65718 0)
(6.91567 3.63799 0)
(6.29133 3.06507 0)
(7.09808 2.5368 0)
(6.58033 2.35365 0)
(7.28857 2.65745 0)
(6.83642 2.7492 0)
(7.87491 2.29133 0)
(7.73434 1.63325 0)
(8.59409 1.73943 0)
(8.40821 2.14472 0)
(9.35119 2.01856 0)
(9.03369 1.89991 0)
(9.74442 1.59371 0)
(9.40667 0.945018 0)
(9.94378 0.669022 0)
(9.38679 0.634476 0)
(9.79035 0.299533 0)
(9.39098 -0.365472 0)
(9.94692 -0.73987 0)
(9.53167 -1.63954 0)
(9.72871 -1.87528 0)
(9.22404 -2.05523 0)
(9.29987 -1.88148 0)
(8.95518 -2.2268 0)
(9.18715 -2.48007 0)
(8.88018 -3.06177 0)
(9.32858 -2.98426 0)
(9.26528 -4.03708 0)