/*--------------------------------*- C++ -*----------------------------------*\
| =========                 |                                                 |
| \\      /  F ield         | OpenFOAM: The Open Source CFD Toolbox           |
|  \\    /   O peration     | Version:  2.4.0                                 |
|   \\  /    A nd           | Web:      www.OpenFOAM.org                      |
|    \\/     M anipulation  |                                                 |
\*---------------------------------------------------------------------------*/
FoamFile
{
    version     2.0;
    format      ascii;
    class       volVectorField;
    location    "1.66";
    object      UMean;
}
// * * * * * * * * * * * * * * * * * * * * * * * * * * * * * * * * * * * * * //

dimensions      [0 1 -1 0 0 0 0];

internalField   nonuniform List<vector> 
8800
(
(8.09337 0.387285 0)
(5.45614 0.242639 0)
(3.9248 0.0429665 0)
(3.15987 -0.0151975 0)
(2.81865 -0.0184584 0)
(2.59923 -0.0108337 0)
(2.50853 -0.00590779 0)
(2.38114 -0.00194689 0)
(2.34988 -0.00182031 0)
(2.2515 -0.00013991 0)
(2.25317 -0.00108319 0)
(2.16796 0.000501459 0)
(2.18528 -0.000601324 0)
(2.1011 0.00101863 0)
(2.12383 -0.000280692 0)
(2.03723 0.0013991 0)
(2.06246 -0.000455807 0)
(1.969 0.000743079 0)
(2.03318 0.00798541 0)
(1.72904 -0.0641968 0)
(10.0892 0.836463 0)
(9.65028 0.866878 0)
(8.89634 0.505783 0)
(8.06556 0.261882 0)
(7.52953 0.137083 0)
(6.98173 0.0822065 0)
(6.74817 0.0526362 0)
(6.36963 0.0407802 0)
(6.2933 0.0280784 0)
(5.99273 0.024825 0)
(6.01026 0.0167461 0)
(5.7469 0.0184956 0)
(5.81773 0.0130029 0)
(5.56391 0.0173045 0)
(5.663 0.0127688 0)
(5.40394 0.0168269 0)
(5.52474 0.0159124 0)
(5.23921 0.00795319 0)
(5.43092 0.0303681 0)
(5.01679 -0.0437391 0)
(10.0857 0.629944 0)
(10.627 0.862184 0)
(10.9153 0.599483 0)
(10.6415 0.373472 0)
(10.5185 0.254122 0)
(10.0233 0.196497 0)
(9.9157 0.150607 0)
(9.42388 0.122743 0)
(9.41338 0.0908003 0)
(8.95809 0.0766467 0)
(9.04656 0.0551583 0)
(8.61987 0.0531164 0)
(8.78266 0.0391349 0)
(8.36196 0.043721 0)
(8.57566 0.0342092 0)
(8.14184 0.0393077 0)
(8.39704 0.0373079 0)
(7.92854 0.0294532 0)
(8.24715 0.0411692 0)
(7.72738 -0.0493274 0)
(10.0676 0.456549 0)
(10.4924 0.703973 0)
(11.2571 0.543675 0)
(11.2793 0.352664 0)
(11.6582 0.259753 0)
(11.3515 0.228016 0)
(11.6066 0.196793 0)
(11.1812 0.176228 0)
(11.429 0.142929 0)
(10.9513 0.126466 0)
(11.2323 0.0992081 0)
(10.7269 0.0939683 0)
(11.0503 0.074666 0)
(10.5187 0.077511 0)
(10.8826 0.0633434 0)
(10.3199 0.0699865 0)
(10.7221 0.0601222 0)
(10.1206 0.065167 0)
(10.5582 0.0463467 0)
(9.93008 0.0260473 0)
(10.1843 0.346238 0)
(10.2648 0.566499 0)
(11.1919 0.457879 0)
(11.161 0.295723 0)
(11.8055 0.205711 0)
(11.5261 0.194865 0)
(12.0366 0.173798 0)
(11.6692 0.171792 0)
(12.1477 0.139148 0)
(11.735 0.135628 0)
(12.2058 0.102486 0)
(11.7589 0.110308 0)
(12.2284 0.0804398 0)
(11.7491 0.100055 0)
(12.218 0.0688324 0)
(11.7075 0.0996019 0)
(12.1745 0.0618899 0)
(11.6335 0.105586 0)
(12.0897 0.0409382 0)
(11.5208 0.0874555 0)
(10.2129 0.249368 0)
(10.1815 0.456356 0)
(11.0366 0.371589 0)
(11.0592 0.250354 0)
(11.6584 0.155698 0)
(11.491 0.154888 0)
(11.9289 0.135976 0)
(11.7118 0.145665 0)
(12.1052 0.112177 0)
(11.8859 0.11742 0)
(12.2577 0.0822827 0)
(12.0383 0.0968349 0)
(12.3892 0.0654733 0)
(12.1666 0.0905218 0)
(12.4943 0.0592291 0)
(12.2669 0.0932735 0)
(12.5678 0.0581969 0)
(12.332 0.101883 0)
(12.5922 0.0480914 0)
(12.3213 0.0564954 0)
(10.0899 0.16871 0)
(10.244 0.359051 0)
(10.8079 0.280335 0)
(11.0726 0.211827 0)
(11.4348 0.108657 0)
(11.5208 0.123725 0)
(11.7142 0.0942262 0)
(11.7398 0.124995 0)
(11.8909 0.0758549 0)
(11.9193 0.103674 0)
(12.055 0.0501057 0)
(12.0875 0.0882449 0)
(12.2079 0.0344956 0)
(12.24 0.0859393 0)
(12.3442 0.0280046 0)
(12.3734 0.0926349 0)
(12.46 0.0252974 0)
(12.4799 0.106147 0)
(12.5306 0.0189878 0)
(12.4897 0.095667 0)
(9.97736 0.103486 0)
(10.2992 0.263666 0)
(10.6394 0.19049 0)
(11.0764 0.165139 0)
(11.2741 0.0673548 0)
(11.5325 0.093793 0)
(11.5659 0.0568991 0)
(11.7432 0.100352 0)
(11.7399 0.0442976 0)
(11.9153 0.0848077 0)
(11.9053 0.024822 0)
(12.0798 0.0737344 0)
(12.0617 0.0126709 0)
(12.2302 0.0724776 0)
(12.2031 0.00748087 0)
(12.363 0.0780975 0)
(12.3263 0.00508414 0)
(12.4716 0.0890811 0)
(12.4092 -0.000467954 0)
(12.4604 0.0810433 0)
(9.90556 0.0554032 0)
(10.3336 0.161733 0)
(10.5294 0.110503 0)
(11.0763 0.104267 0)
(11.1682 0.0356668 0)
(11.5379 0.0592534 0)
(11.4684 0.0295594 0)
(11.7437 0.0652253 0)
(11.6397 0.0226045 0)
(11.9115 0.0550488 0)
(11.8058 0.0103056 0)
(12.075 0.0477986 0)
(11.9638 0.00300984 0)
(12.2257 0.0460605 0)
(12.1065 -0.00024813 0)
(12.3597 0.0477468 0)
(12.2317 -0.0019853 0)
(12.4693 0.050035 0)
(12.3103 -0.0118885 0)
(12.4387 0.0102734 0)
(9.89335 0.00851412 0)
(10.3285 0.0669043 0)
(10.4959 0.0257577 0)
(11.0552 0.0477025 0)
(11.1387 6.01578e-05 0)
(11.5204 0.0329754 0)
(11.446 -0.00249159 0)
(11.7246 0.0364552 0)
(11.6181 -0.00536861 0)
(11.8913 0.0331045 0)
(11.7858 -0.0106103 0)
(12.0557 0.0307058 0)
(11.9458 -0.01436 0)
(12.2082 0.0297658 0)
(12.0904 -0.0176935 0)
(12.3445 0.0287578 0)
(12.2168 -0.0218907 0)
(12.4565 0.0247259 0)
(12.2929 -0.0343243 0)
(12.4241 -0.0050644 0)
(9.91438 -0.0305598 0)
(10.3082 -0.0345643 0)
(10.5174 -0.0546893 0)
(11.039 -0.01788 0)
(11.1625 -0.030422 0)
(11.5072 -0.0022969 0)
(11.4721 -0.0293599 0)
(11.7144 -0.00275563 0)
(11.6456 -0.028278 0)
(11.8844 0.00100442 0)
(11.8151 -0.0258364 0)
(12.0518 0.00337309 0)
(11.9766 -0.0264276 0)
(12.2079 0.00261871 0)
(12.1227 -0.0301317 0)
(12.3481 -0.0013523 0)
(12.251 -0.0370693 0)
(12.4644 -0.00953193 0)
(12.3277 -0.0494633 0)
(12.4332 -0.0290262 0)
(9.9478 -0.0751486 0)
(10.2903 -0.133976 0)
(10.5732 -0.136944 0)
(11.0383 -0.0792439 0)
(11.2185 -0.0623344 0)
(11.5037 -0.0335146 0)
(11.525 -0.0575384 0)
(11.7139 -0.0369982 0)
(11.7011 -0.0521532 0)
(11.8869 -0.0263964 0)
(11.8719 -0.0423288 0)
(12.0562 -0.0191922 0)
(12.0344 -0.0395864 0)
(12.2137 -0.0194909 0)
(12.1818 -0.0435318 0)
(12.3554 -0.0263356 0)
(12.3119 -0.0532046 0)
(12.473 -0.0390714 0)
(12.391 -0.0657122 0)
(12.4423 -0.0487318 0)
(9.97542 -0.122987 0)
(10.2913 -0.238166 0)
(10.6443 -0.216521 0)
(11.0665 -0.141555 0)
(11.2872 -0.0933603 0)
(11.5218 -0.0684897 0)
(11.5856 -0.0849335 0)
(11.7334 -0.072574 0)
(11.7648 -0.0748721 0)
(11.9081 -0.055693 0)
(11.9359 -0.0588299 0)
(12.0768 -0.0437728 0)
(12.0982 -0.0527564 0)
(12.2331 -0.0429949 0)
(12.2457 -0.0572009 0)
(12.3734 -0.0520879 0)
(12.376 -0.0707672 0)
(12.4894 -0.0697753 0)
(12.4577 -0.087651 0)
(12.4605 -0.0689062 0)
(10.0121 -0.182458 0)
(10.3004 -0.34264 0)
(10.7466 -0.298573 0)
(11.1158 -0.197035 0)
(11.3841 -0.127232 0)
(11.5583 -0.107161 0)
(11.6707 -0.113706 0)
(11.7738 -0.108121 0)
(11.8527 -0.0974253 0)
(11.9519 -0.0858219 0)
(12.0225 -0.0752599 0)
(12.1204 -0.0700325 0)
(12.1816 -0.0654367 0)
(12.2747 -0.068271 0)
(12.3246 -0.0690524 0)
(12.4113 -0.0788624 0)
(12.4481 -0.0854352 0)
(12.5215 -0.102285 0)
(12.5231 -0.109026 0)
(12.493 -0.100402 0)
(10.0546 -0.257707 0)
(10.3173 -0.44733 0)
(10.8907 -0.382182 0)
(11.181 -0.243103 0)
(11.5209 -0.166027 0)
(11.6058 -0.146706 0)
(11.7954 -0.145622 0)
(11.8219 -0.139647 0)
(11.9737 -0.122262 0)
(11.9935 -0.112455 0)
(12.1278 -0.0941807 0)
(12.1447 -0.0938765 0)
(12.2606 -0.0803156 0)
(12.2721 -0.0911785 0)
(12.366 -0.0807889 0)
(12.3704 -0.102161 0)
(12.437 -0.0960485 0)
(12.4281 -0.130521 0)
(12.4435 -0.125234 0)
(12.3455 -0.140213 0)
(10.0501 -0.351528 0)
(10.3932 -0.559928 0)
(11.0453 -0.464448 0)
(11.2972 -0.290025 0)
(11.654 -0.213044 0)
(11.6643 -0.188147 0)
(11.8776 -0.181162 0)
(11.8106 -0.166482 0)
(11.9792 -0.147575 0)
(11.8802 -0.131029 0)
(12.0263 -0.112647 0)
(11.9077 -0.107313 0)
(12.0345 -0.0933715 0)
(11.9 -0.100514 0)
(12.0033 -0.0879056 0)
(11.8557 -0.108125 0)
(11.9254 -0.0971055 0)
(11.7634 -0.137124 0)
(11.7665 -0.125738 0)
(11.541 -0.163272 0)
(10.0034 -0.459763 0)
(10.5601 -0.700375 0)
(11.1672 -0.546406 0)
(11.3675 -0.350334 0)
(11.5569 -0.263838 0)
(11.4485 -0.225133 0)
(11.4931 -0.201009 0)
(11.2851 -0.174021 0)
(11.3022 -0.147788 0)
(11.0604 -0.124944 0)
(11.0905 -0.104643 0)
(10.8385 -0.0946585 0)
(10.889 -0.0807948 0)
(10.6291 -0.0834202 0)
(10.6918 -0.07115 0)
(10.4211 -0.0879052 0)
(10.4782 -0.0747207 0)
(10.1893 -0.116121 0)
(10.1946 -0.0961385 0)
(9.8588 -0.161373 0)
(10.0593 -0.633032 0)
(10.6552 -0.859099 0)
(10.8657 -0.600875 0)
(10.6905 -0.37205 0)
(10.4576 -0.256912 0)
(10.0822 -0.194778 0)
(9.84256 -0.153568 0)
(9.48841 -0.120834 0)
(9.32959 -0.0943821 0)
(9.02438 -0.0749132 0)
(8.95246 -0.0594323 0)
(8.68339 -0.052473 0)
(8.67508 -0.0444413 0)
(8.4167 -0.046136 0)
(8.44505 -0.0412784 0)
(8.17717 -0.0505004 0)
(8.2158 -0.0485299 0)
(7.91866 -0.0700048 0)
(7.92057 -0.0713539 0)
(7.57301 -0.0901653 0)
(10.0808 -0.83805 0)
(9.65645 -0.865018 0)
(8.87411 -0.506216 0)
(8.08932 -0.261153 0)
(7.49867 -0.138674 0)
(7.01209 -0.0814734 0)
(6.70693 -0.0540064 0)
(6.40386 -0.0398432 0)
(6.24501 -0.0297782 0)
(6.02665 -0.0240019 0)
(5.95622 -0.0187804 0)
(5.77555 -0.0182517 0)
(5.75601 -0.0155291 0)
(5.58097 -0.0185897 0)
(5.58592 -0.0164682 0)
(5.39739 -0.0229767 0)
(5.40641 -0.0221237 0)
(5.18371 -0.0328606 0)
(5.17203 -0.0386056 0)
(4.87603 -0.0200432 0)
(8.09142 -0.387697 0)
(5.45438 -0.24207 0)
(3.92034 -0.0432358 0)
(3.16772 0.0152834 0)
(2.81015 0.0180229 0)
(2.60757 0.0111487 0)
(2.49527 0.00559958 0)
(2.39064 0.00229403 0)
(2.33413 0.00145272 0)
(2.26049 0.000444381 0)
(2.23476 0.000682843 0)
(2.17405 -0.000238688 0)
(2.16309 0.000169902 0)
(2.10027 -0.00108003 0)
(2.09331 -0.000339826 0)
(2.02048 -0.00226106 0)
(2.00814 -0.00113608 0)
(1.91657 -0.00384669 0)
(1.87836 -0.00430417 0)
(1.7262 0.0112912 0)
(2.28168 -0.113896 0)
(2.32505 -0.0244501 0)
(2.56634 -0.00628558 0)
(2.6222 -0.00982396 0)
(2.85855 -0.0281406 0)
(2.88303 -0.0328477 0)
(3.09748 -0.0422441 0)
(3.08902 -0.0376194 0)
(3.27902 -0.0446183 0)
(3.24535 -0.0428706 0)
(3.42496 -0.0517535 0)
(3.375 -0.0505744 0)
(3.55496 -0.0609334 0)
(3.49808 -0.0597933 0)
(3.68228 -0.0699509 0)
(3.62213 -0.0682482 0)
(3.81412 -0.0782046 0)
(3.75268 -0.0759708 0)
(3.95714 -0.085797 0)
(3.89555 -0.0820584 0)
(4.10769 -0.0943334 0)
(4.04068 -0.0938504 0)
(4.25624 -0.109019 0)
(4.18138 -0.109908 0)
(4.39865 -0.126997 0)
(4.31524 -0.128841 0)
(4.53366 -0.145966 0)
(4.44274 -0.145223 0)
(4.6639 -0.159582 0)
(4.57147 -0.156099 0)
(4.79886 -0.170887 0)
(4.71111 -0.168707 0)
(4.9461 -0.186527 0)
(4.8613 -0.186017 0)
(5.09938 -0.205094 0)
(5.01135 -0.204147 0)
(5.25296 -0.223395 0)
(5.15915 -0.221447 0)
(5.40798 -0.24146 0)
(5.30708 -0.240791 0)
(5.56632 -0.263372 0)
(5.45537 -0.266408 0)
(5.72472 -0.294235 0)
(5.60103 -0.301256 0)
(5.87454 -0.332662 0)
(5.73624 -0.339941 0)
(6.01042 -0.372207 0)
(5.86206 -0.375283 0)
(6.13614 -0.405829 0)
(5.98282 -0.40364 0)
(6.25931 -0.43128 0)
(6.10182 -0.423509 0)
(6.38731 -0.447945 0)
(6.22335 -0.436903 0)
(6.52441 -0.460541 0)
(6.34916 -0.447576 0)
(6.6698 -0.472276 0)
(6.4809 -0.459578 0)
(6.82042 -0.485629 0)
(6.61569 -0.473482 0)
(6.97181 -0.503489 0)
(6.75734 -0.494162 0)
(7.12652 -0.531028 0)
(6.91077 -0.526587 0)
(7.28218 -0.572017 0)
(7.06724 -0.571726 0)
(7.42849 -0.621912 0)
(7.20791 -0.622796 0)
(7.55634 -0.671892 0)
(7.32504 -0.670026 0)
(7.66843 -0.718719 0)
(7.42583 -0.711557 0)
(7.77005 -0.756993 0)
(7.51606 -0.744525 0)
(7.87467 -0.788537 0)
(7.61199 -0.771451 0)
(7.99055 -0.814448 0)
(7.72669 -0.793848 0)
(8.12355 -0.84019 0)
(7.85887 -0.816347 0)
(8.27108 -0.86493 0)
(8.00129 -0.837942 0)
(8.42464 -0.884643 0)
(8.14362 -0.856782 0)
(8.57305 -0.904036 0)
(8.2863 -0.875922 0)
(8.7054 -0.928479 0)
(8.42745 -0.901431 0)
(8.82308 -0.957306 0)
(8.55448 -0.927947 0)
(8.92416 -0.981654 0)
(8.66509 -0.950573 0)
(9.01193 -1.00276 0)
(8.7564 -0.969209 0)
(9.08561 -1.01915 0)
(8.8324 -0.979918 0)
(9.14853 -1.02867 0)
(8.89408 -0.985929 0)
(9.20236 -1.03294 0)
(8.95398 -0.987497 0)
(9.26117 -1.03806 0)
(9.01839 -0.990698 0)
(9.33082 -1.04516 0)
(9.08752 -0.992788 0)
(9.40505 -1.04736 0)
(9.15568 -0.986205 0)
(9.4695 -1.04307 0)
(9.20769 -0.973795 0)
(9.50926 -1.03055 0)
(9.23908 -0.95138 0)
(9.52902 -1.00842 0)
(9.2509 -0.92559 0)
(9.52611 -0.981124 0)
(9.23919 -0.89286 0)
(9.50471 -0.949866 0)
(9.22386 -0.85581 0)
(9.48454 -0.911372 0)
(9.21784 -0.815435 0)
(9.4672 -0.872006 0)
(9.2109 -0.776121 0)
(9.44884 -0.834136 0)
(9.20747 -0.740559 0)
(9.43818 -0.805414 0)
(9.20644 -0.710502 0)
(9.42828 -0.779927 0)
(9.19244 -0.685489 0)
(9.41896 -0.753877 0)
(9.1741 -0.656597 0)
(9.41039 -0.717402 0)
(9.1647 -0.616751 0)
(9.40046 -0.669463 0)
(9.16782 -0.567611 0)
(9.38671 -0.619983 0)
(9.16808 -0.519011 0)
(9.36907 -0.57476 0)
(9.15985 -0.474663 0)
(9.34575 -0.525977 0)
(9.14881 -0.419037 0)
(9.32434 -0.468167 0)
(9.14427 -0.364516 0)
(9.30375 -0.416301 0)
(9.13717 -0.316085 0)
(9.27737 -0.362455 0)
(9.13087 -0.268744 0)
(9.25227 -0.31247 0)
(9.12341 -0.222106 0)
(9.21209 -0.250326 0)
(9.10259 -0.164554 0)
(9.16337 -0.186503 0)
(9.0748 -0.100741 0)
(9.10512 -0.121398 0)
(9.03185 -0.0272011 0)
(9.04463 -0.0388778 0)
(8.9842 0.0576426 0)
(8.98946 0.039944 0)
(8.94451 0.145137 0)
(8.94037 0.13182 0)
(8.88745 0.239962 0)
(8.89792 0.222796 0)
(8.83694 0.339304 0)
(8.85852 0.303805 0)
(8.77531 0.434861 0)
(8.82503 0.391859 0)
(8.70101 0.522836 0)
(8.78298 0.478879 0)
(8.61772 0.615341 0)
(8.74357 0.562372 0)
(8.5375 0.70599 0)
(8.69856 0.649887 0)
(8.45095 0.809966 0)
(8.64168 0.728049 0)
(8.3463 0.909443 0)
(8.58779 0.819549 0)
(8.20377 1.02519 0)
(8.52116 0.915664 0)
(8.05719 1.17223 0)
(8.44539 1.02851 0)
(7.90525 1.32831 0)
(8.3773 1.14699 0)
(7.77238 1.49629 0)
(8.29752 1.28087 0)
(7.65158 1.6716 0)
(8.21022 1.43486 0)
(7.52792 1.85197 0)
(8.09513 1.6044 0)
(7.39935 2.0417 0)
(7.93631 1.80214 0)
(7.2517 2.24955 0)
(7.74677 2.04078 0)
(7.06628 2.48499 0)
(7.52796 2.32217 0)
(6.81916 2.77158 0)
(7.24923 2.68203 0)
(6.50961 3.1802 0)
(6.84605 3.15949 0)
(6.13782 3.85522 0)
(6.33682 3.89774 0)
(5.45918 5.00483 0)
(6.42619 5.54471 0)
(4.10124 8.52178 0)
(5.34844 -0.07624 0)
(5.26022 -0.0416152 0)
(5.3926 -0.043326 0)
(5.32498 -0.0577664 0)
(5.51577 -0.0854525 0)
(5.46498 -0.0944604 0)
(5.66383 -0.104463 0)
(5.58963 -0.0968335 0)
(5.77389 -0.0989886 0)
(5.67326 -0.0915785 0)
(5.85408 -0.0987219 0)
(5.74099 -0.096017 0)
(5.93102 -0.107362 0)
(5.81409 -0.106204 0)
(6.01685 -0.118201 0)
(5.89705 -0.116469 0)
(6.11175 -0.128374 0)
(5.98774 -0.125615 0)
(6.21272 -0.137869 0)
(6.08405 -0.134671 0)
(6.31759 -0.148068 0)
(6.18267 -0.146307 0)
(6.42204 -0.161744 0)
(6.27882 -0.160966 0)
(6.52328 -0.178032 0)
(6.37174 -0.177656 0)
(6.62176 -0.195071 0)
(6.46315 -0.193362 0)
(6.71919 -0.210362 0)
(6.55527 -0.207484 0)
(6.81937 -0.225221 0)
(6.65187 -0.222728 0)
(6.92563 -0.24274 0)
(6.75325 -0.24116 0)
(7.03578 -0.262364 0)
(6.85507 -0.259936 0)
(7.14579 -0.281136 0)
(6.9557 -0.277656 0)
(7.25484 -0.299703 0)
(7.05605 -0.296903 0)
(7.36377 -0.32203 0)
(7.15833 -0.321044 0)
(7.47233 -0.350756 0)
(7.26141 -0.35184 0)
(7.57876 -0.384998 0)
(7.36123 -0.385849 0)
(7.67982 -0.419898 0)
(7.45407 -0.418545 0)
(7.77508 -0.451225 0)
(7.53877 -0.446389 0)
(7.86681 -0.476364 0)
(7.61662 -0.467091 0)
(7.9568 -0.494816 0)
(7.69123 -0.481899 0)
(8.04742 -0.509084 0)
(7.76683 -0.493836 0)
(8.14005 -0.522095 0)
(7.84791 -0.507059 0)
(8.2367 -0.538506 0)
(7.93752 -0.524711 0)
(8.33792 -0.56045 0)
(8.03525 -0.548681 0)
(8.4423 -0.59022 0)
(8.13871 -0.581602 0)
(8.5467 -0.629163 0)
(8.24356 -0.622521 0)
(8.64644 -0.672765 0)
(8.3416 -0.666633 0)
(8.74042 -0.718724 0)
(8.43145 -0.711781 0)
(8.82941 -0.762038 0)
(8.51301 -0.749906 0)
(8.9157 -0.798834 0)
(8.59248 -0.782425 0)
(9.00304 -0.832939 0)
(8.67675 -0.811501 0)
(9.09359 -0.863841 0)
(8.76803 -0.838403 0)
(9.18911 -0.892515 0)
(8.86368 -0.864921 0)
(9.29018 -0.918885 0)
(8.96083 -0.886175 0)
(9.38999 -0.939945 0)
(9.05861 -0.9033 0)
(9.48027 -0.9577 0)
(9.15462 -0.920732 0)
(9.56315 -0.979494 0)
(9.24913 -0.942604 0)
(9.6348 -1.00132 0)
(9.33004 -0.962676 0)
(9.69691 -1.0209 0)
(9.3998 -0.979581 0)
(9.74681 -1.03639 0)
(9.45094 -0.991522 0)
(9.77988 -1.04585 0)
(9.48475 -0.996111 0)
(9.80235 -1.04948 0)
(9.50724 -0.997324 0)
(9.82086 -1.05239 0)
(9.53079 -1.00186 0)
(9.84775 -1.06274 0)
(9.55877 -1.00854 0)
(9.8783 -1.07274 0)
(9.58487 -1.01093 0)
(9.90775 -1.07213 0)
(9.60828 -1.00095 0)
(9.92451 -1.05999 0)
(9.619 -0.979971 0)
(9.92302 -1.04057 0)
(9.61293 -0.952356 0)
(9.90593 -1.01145 0)
(9.58811 -0.913504 0)
(9.86773 -0.974147 0)
(9.54812 -0.874548 0)
(9.82148 -0.94084 0)
(9.51315 -0.839966 0)
(9.77865 -0.907223 0)
(9.48231 -0.802112 0)
(9.74176 -0.868193 0)
(9.45083 -0.764302 0)
(9.7117 -0.832763 0)
(9.42304 -0.730905 0)
(9.68639 -0.803761 0)
(9.39282 -0.696462 0)
(9.6576 -0.773787 0)
(9.35459 -0.666301 0)
(9.62465 -0.747984 0)
(9.3154 -0.639088 0)
(9.58783 -0.713321 0)
(9.28305 -0.601803 0)
(9.55354 -0.671691 0)
(9.2579 -0.555337 0)
(9.52427 -0.620235 0)
(9.23315 -0.506347 0)
(9.49442 -0.570144 0)
(9.19703 -0.457255 0)
(9.45615 -0.521149 0)
(9.16435 -0.408771 0)
(9.42357 -0.467278 0)
(9.14555 -0.357765 0)
(9.3958 -0.414417 0)
(9.12523 -0.306519 0)
(9.3653 -0.36372 0)
(9.10125 -0.254988 0)
(9.33416 -0.30969 0)
(9.06728 -0.199628 0)
(9.29517 -0.243827 0)
(9.03243 -0.140948 0)
(9.25294 -0.178841 0)
(9.00419 -0.0742191 0)
(9.1985 -0.105212 0)
(8.96446 0.000362187 0)
(9.13594 -0.0288066 0)
(8.92296 0.0825389 0)
(9.08397 0.0492389 0)
(8.87729 0.170947 0)
(9.04004 0.139158 0)
(8.82477 0.268384 0)
(9.00833 0.222243 0)
(8.78137 0.373425 0)
(8.98314 0.302359 0)
(8.723 0.471137 0)
(8.96398 0.389741 0)
(8.67283 0.567013 0)
(8.93896 0.471296 0)
(8.62708 0.662748 0)
(8.91488 0.545706 0)
(8.57521 0.764728 0)
(8.87079 0.628149 0)
(8.5103 0.879587 0)
(8.83663 0.705922 0)
(8.41876 0.994712 0)
(8.79443 0.80309 0)
(8.30611 1.128 0)
(8.73116 0.897984 0)
(8.17339 1.26848 0)
(8.68596 1.00083 0)
(8.04159 1.41921 0)
(8.65621 1.11502 0)
(7.91657 1.58578 0)
(8.62756 1.25959 0)
(7.80833 1.7632 0)
(8.57804 1.42559 0)
(7.7106 1.94724 0)
(8.49582 1.6047 0)
(7.60888 2.13693 0)
(8.39642 1.81248 0)
(7.47861 2.34942 0)
(8.27428 2.05388 0)
(7.33727 2.61941 0)
(8.10941 2.34374 0)
(7.19614 2.96937 0)
(7.87726 2.69849 0)
(7.03304 3.4564 0)
(7.61255 3.18993 0)
(6.74548 4.15897 0)
(7.60068 3.99457 0)
(6.08643 5.41745 0)
(8.52619 4.85733 0)
(6.53494 9.00307 0)
(8.03948 -0.0857947 0)
(7.9039 -0.0628656 0)
(8.04813 -0.0746932 0)
(7.92932 -0.0870874 0)
(8.12904 -0.112377 0)
(8.02844 -0.1163 0)
(8.2362 -0.125319 0)
(8.10867 -0.114605 0)
(8.30066 -0.117351 0)
(8.1451 -0.107306 0)
(8.33582 -0.116104 0)
(8.17003 -0.112356 0)
(8.37307 -0.127201 0)
(8.20504 -0.126432 0)
(8.4229 -0.143035 0)
(8.25279 -0.141506 0)
(8.48314 -0.157388 0)
(8.30838 -0.153916 0)
(8.54767 -0.169097 0)
(8.36631 -0.164647 0)
(8.61266 -0.180503 0)
(8.42423 -0.176576 0)
(8.6768 -0.193987 0)
(8.48093 -0.190726 0)
(8.73965 -0.209521 0)
(8.53655 -0.206469 0)
(8.80176 -0.225892 0)
(8.59157 -0.222231 0)
(8.86351 -0.241829 0)
(8.64526 -0.237539 0)
(8.92464 -0.257986 0)
(8.69761 -0.254029 0)
(8.98566 -0.276304 0)
(8.74872 -0.272903 0)
(9.0458 -0.296558 0)
(8.79831 -0.292491 0)
(9.10453 -0.316698 0)
(8.84817 -0.311301 0)
(9.16291 -0.336665 0)
(8.90049 -0.330774 0)
(9.22224 -0.359058 0)
(8.95712 -0.354231 0)
(9.28383 -0.386383 0)
(9.01646 -0.383143 0)
(9.34617 -0.418114 0)
(9.07449 -0.415193 0)
(9.40617 -0.450702 0)
(9.12615 -0.445812 0)
(9.461 -0.479952 0)
(9.16912 -0.471391 0)
(9.51024 -0.503498 0)
(9.20494 -0.490707 0)
(9.55516 -0.521263 0)
(9.23693 -0.505018 0)
(9.59788 -0.535922 0)
(9.27049 -0.517675 0)
(9.64121 -0.551299 0)
(9.31085 -0.533105 0)
(9.68829 -0.571048 0)
(9.35945 -0.553765 0)
(9.73871 -0.595322 0)
(9.4128 -0.579421 0)
(9.79001 -0.624544 0)
(9.46577 -0.611235 0)
(9.84048 -0.660088 0)
(9.5151 -0.64901 0)
(9.88941 -0.701588 0)
(9.56259 -0.691981 0)
(9.94024 -0.747851 0)
(9.60965 -0.736734 0)
(9.98917 -0.791856 0)
(9.65473 -0.775791 0)
(10.0383 -0.829054 0)
(9.70001 -0.809763 0)
(10.0875 -0.863942 0)
(9.74554 -0.840943 0)
(10.1348 -0.895981 0)
(9.79158 -0.86867 0)
(10.1814 -0.925173 0)
(9.84068 -0.895086 0)
(10.2274 -0.950876 0)
(9.88965 -0.915334 0)
(10.2719 -0.97141 0)
(9.94061 -0.930171 0)
(10.3122 -0.987078 0)
(9.99209 -0.945518 0)
(10.349 -1.00384 0)
(10.0347 -0.960304 0)
(10.3747 -1.01967 0)
(10.0673 -0.977203 0)
(10.3938 -1.03619 0)
(10.0891 -0.989106 0)
(10.3971 -1.04619 0)
(10.0923 -0.99366 0)
(10.3828 -1.0486 0)
(10.0803 -0.992996 0)
(10.3535 -1.04956 0)
(10.0604 -0.994225 0)
(10.3298 -1.05686 0)
(10.0482 -1.00254 0)
(10.3123 -1.06994 0)
(10.0355 -1.00951 0)
(10.2909 -1.08005 0)
(10.0179 -1.01054 0)
(10.2666 -1.0763 0)
(9.99643 -0.997134 0)
(10.234 -1.06025 0)
(9.9687 -0.970995 0)
(10.1936 -1.03267 0)
(9.92658 -0.933553 0)
(10.1342 -0.994355 0)
(9.86782 -0.886853 0)
(10.0632 -0.952493 0)
(9.81337 -0.848491 0)
(9.99849 -0.920818 0)
(9.76096 -0.813832 0)
(9.92847 -0.887831 0)
(9.70017 -0.776037 0)
(9.86369 -0.853923 0)
(9.64528 -0.73963 0)
(9.81311 -0.822758 0)
(9.5988 -0.705249 0)
(9.76614 -0.791431 0)
(9.55012 -0.670186 0)
(9.71614 -0.759489 0)
(9.50007 -0.63819 0)
(9.6592 -0.732338 0)
(9.44334 -0.610014 0)
(9.59352 -0.700417 0)
(9.38629 -0.572584 0)
(9.53137 -0.659985 0)
(9.32618 -0.525937 0)
(9.48536 -0.612288 0)
(9.27196 -0.477636 0)
(9.44078 -0.558487 0)
(9.21544 -0.424586 0)
(9.39009 -0.511513 0)
(9.16754 -0.383021 0)
(9.34443 -0.463135 0)
(9.12654 -0.334063 0)
(9.30587 -0.413561 0)
(9.09329 -0.279657 0)
(9.25787 -0.360428 0)
(9.05577 -0.225306 0)
(9.21417 -0.304546 0)
(9.01496 -0.165857 0)
(9.17699 -0.237787 0)
(8.97403 -0.102473 0)
(9.14176 -0.1744 0)
(8.93675 -0.0336192 0)
(9.09544 -0.103224 0)
(8.91558 0.0478128 0)
(9.04537 -0.0343813 0)
(8.88114 0.126512 0)
(9.00349 0.0435604 0)
(8.83101 0.221557 0)
(8.96331 0.125514 0)
(8.78625 0.318299 0)
(8.92952 0.20357 0)
(8.74024 0.421972 0)
(8.90771 0.29399 0)
(8.69497 0.51908 0)
(8.8948 0.372729 0)
(8.67062 0.613316 0)
(8.8842 0.446367 0)
(8.64406 0.708378 0)
(8.86867 0.522456 0)
(8.61072 0.822766 0)
(8.85057 0.610855 0)
(8.55321 0.935895 0)
(8.85455 0.691957 0)
(8.46527 1.06444 0)
(8.84671 0.793788 0)
(8.35079 1.2146 0)
(8.8512 0.900016 0)
(8.21795 1.35931 0)
(8.86285 0.995616 0)
(8.09774 1.50451 0)
(8.8651 1.10245 0)
(7.99018 1.6616 0)
(8.8517 1.23364 0)
(7.90919 1.84244 0)
(8.81948 1.39415 0)
(7.83391 2.03958 0)
(8.7752 1.57499 0)
(7.74666 2.25178 0)
(8.71432 1.7766 0)
(7.66962 2.50035 0)
(8.60942 2.00096 0)
(7.61271 2.78863 0)
(8.48364 2.27956 0)
(7.55415 3.15628 0)
(8.39654 2.6459 0)
(7.42848 3.64056 0)
(8.50019 3.14676 0)
(7.12031 4.39205 0)
(9.03948 3.67268 0)
(6.81645 5.95162 0)
(9.78988 3.74868 0)
(8.19029 8.28405 0)
(10.2952 -0.0986317 0)
(10.1348 -0.134892 0)
(10.2907 -0.169499 0)
(10.1438 -0.166866 0)
(10.349 -0.172465 0)
(10.2173 -0.152786 0)
(10.4258 -0.150867 0)
(10.2663 -0.13009 0)
(10.4596 -0.133019 0)
(10.2755 -0.118529 0)
(10.4682 -0.129979 0)
(10.2757 -0.122937 0)
(10.4791 -0.141571 0)
(10.2852 -0.138293 0)
(10.5016 -0.159374 0)
(10.3061 -0.155445 0)
(10.5329 -0.175698 0)
(10.333 -0.169347 0)
(10.5675 -0.188368 0)
(10.3616 -0.180353 0)
(10.6024 -0.199492 0)
(10.3899 -0.191313 0)
(10.6364 -0.211854 0)
(10.417 -0.204195 0)
(10.6689 -0.226283 0)
(10.4427 -0.218894 0)
(10.6995 -0.241931 0)
(10.4666 -0.234042 0)
(10.7282 -0.257576 0)
(10.4885 -0.249019 0)
(10.7546 -0.273301 0)
(10.5076 -0.264538 0)
(10.7782 -0.290199 0)
(10.524 -0.281711 0)
(10.799 -0.308945 0)
(10.538 -0.300307 0)
(10.8176 -0.328805 0)
(10.5513 -0.319907 0)
(10.8361 -0.350041 0)
(10.5658 -0.341309 0)
(10.856 -0.373817 0)
(10.5823 -0.366376 0)
(10.8779 -0.401938 0)
(10.5995 -0.395748 0)
(10.8994 -0.433502 0)
(10.6145 -0.426948 0)
(10.9177 -0.465137 0)
(10.6246 -0.455801 0)
(10.9311 -0.492637 0)
(10.6297 -0.478906 0)
(10.9396 -0.513771 0)
(10.6315 -0.495674 0)
(10.9448 -0.529246 0)
(10.6328 -0.508178 0)
(10.9492 -0.542634 0)
(10.6376 -0.52093 0)
(10.9559 -0.558532 0)
(10.6472 -0.537431 0)
(10.965 -0.578677 0)
(10.6584 -0.558172 0)
(10.9732 -0.602799 0)
(10.6676 -0.583529 0)
(10.9788 -0.631699 0)
(10.6737 -0.614284 0)
(10.981 -0.665985 0)
(10.6762 -0.651776 0)
(10.9831 -0.70896 0)
(10.679 -0.698018 0)
(10.9876 -0.756597 0)
(10.6808 -0.743367 0)
(10.9913 -0.801233 0)
(10.6793 -0.783412 0)
(10.9929 -0.838933 0)
(10.6787 -0.818018 0)
(10.9926 -0.872588 0)
(10.6748 -0.848498 0)
(10.988 -0.902897 0)
(10.6715 -0.876373 0)
(10.9837 -0.932555 0)
(10.6741 -0.902449 0)
(10.9805 -0.957325 0)
(10.6799 -0.92406 0)
(10.9782 -0.97722 0)
(10.6862 -0.938445 0)
(10.9762 -0.992516 0)
(10.6907 -0.950815 0)
(10.9676 -1.00346 0)
(10.6842 -0.962516 0)
(10.9541 -1.01878 0)
(10.6753 -0.976977 0)
(10.9311 -1.03055 0)
(10.6501 -0.980495 0)
(10.8887 -1.03187 0)
(10.6075 -0.976487 0)
(10.8319 -1.0282 0)
(10.5534 -0.970222 0)
(10.7643 -1.02945 0)
(10.4994 -0.976117 0)
(10.7051 -1.04256 0)
(10.4477 -0.985324 0)
(10.6426 -1.05301 0)
(10.3922 -0.991058 0)
(10.579 -1.06433 0)
(10.3381 -0.992826 0)
(10.518 -1.06088 0)
(10.2821 -0.978855 0)
(10.4515 -1.04304 0)
(10.2186 -0.947728 0)
(10.3745 -1.0084 0)
(10.1423 -0.902353 0)
(10.2782 -0.960665 0)
(10.0548 -0.853892 0)
(10.186 -0.924567 0)
(9.98262 -0.820697 0)
(10.0987 -0.891291 0)
(9.90259 -0.780654 0)
(10.0026 -0.854636 0)
(9.8126 -0.742097 0)
(9.9058 -0.826956 0)
(9.73121 -0.708426 0)
(9.82457 -0.800933 0)
(9.6598 -0.675585 0)
(9.75706 -0.768494 0)
(9.59048 -0.644254 0)
(9.69289 -0.737126 0)
(9.52176 -0.613988 0)
(9.61858 -0.706271 0)
(9.44629 -0.579259 0)
(9.53524 -0.670798 0)
(9.36496 -0.540753 0)
(9.45284 -0.632187 0)
(9.2837 -0.498484 0)
(9.38222 -0.589511 0)
(9.21103 -0.449118 0)
(9.31672 -0.537937 0)
(9.14021 -0.39808 0)
(9.25473 -0.493181 0)
(9.07325 -0.358471 0)
(9.19278 -0.449751 0)
(9.01259 -0.31115 0)
(9.14257 -0.402599 0)
(8.95449 -0.251637 0)
(9.08857 -0.345666 0)
(8.90098 -0.196752 0)
(9.04728 -0.295934 0)
(8.85473 -0.135832 0)
(9.01284 -0.233265 0)
(8.81018 -0.0729841 0)
(8.98613 -0.174438 0)
(8.77185 -0.00504455 0)
(8.95884 -0.113297 0)
(8.74199 0.0764626 0)
(8.9456 -0.0377058 0)
(8.69004 0.159963 0)
(8.92658 0.0434168 0)
(8.6436 0.260793 0)
(8.8903 0.123871 0)
(8.60499 0.36409 0)
(8.86107 0.205698 0)
(8.55133 0.451132 0)
(8.84624 0.278746 0)
(8.5254 0.545997 0)
(8.85187 0.345595 0)
(8.49228 0.639604 0)
(8.88754 0.424424 0)
(8.44652 0.739394 0)
(8.90852 0.498932 0)
(8.39439 0.863503 0)
(8.94014 0.585333 0)
(8.34308 0.984958 0)
(8.97213 0.66712 0)
(8.27034 1.13045 0)
(9.00077 0.762504 0)
(8.17503 1.27816 0)
(9.03841 0.853523 0)
(8.10191 1.41759 0)
(9.05118 0.95249 0)
(8.05063 1.56564 0)
(9.03414 1.06596 0)
(8.01212 1.73016 0)
(9.00458 1.19425 0)
(7.97889 1.92397 0)
(8.98099 1.34505 0)
(7.95353 2.13208 0)
(8.96492 1.51552 0)
(7.93635 2.35866 0)
(8.93412 1.70263 0)
(7.92849 2.61325 0)
(8.92179 1.93697 0)
(7.88812 2.91413 0)
(8.96008 2.21185 0)
(7.80614 3.29834 0)
(9.125 2.53541 0)
(7.64355 3.8373 0)
(9.51739 2.84383 0)
(7.47746 4.75394 0)
(10.1298 2.97158 0)
(7.7932 6.19666 0)
(10.3975 3.16414 0)
(9.19311 7.27453 0)
(11.7912 -0.0846493 0)
(11.6626 -0.156958 0)
(11.8363 -0.213305 0)
(11.7296 -0.20469 0)
(11.9103 -0.203245 0)
(11.7903 -0.166522 0)
(11.9585 -0.160092 0)
(11.8101 -0.130906 0)
(11.9646 -0.137722 0)
(11.798 -0.119968 0)
(11.9516 -0.137696 0)
(11.7795 -0.127559 0)
(11.9418 -0.151728 0)
(11.7707 -0.144414 0)
(11.9438 -0.170354 0)
(11.7731 -0.162078 0)
(11.9549 -0.187112 0)
(11.7816 -0.17638 0)
(11.9693 -0.200114 0)
(11.7914 -0.187546 0)
(11.9835 -0.211227 0)
(11.7997 -0.198175 0)
(11.9953 -0.223079 0)
(11.805 -0.210315 0)
(12.0038 -0.236707 0)
(11.8072 -0.224079 0)
(12.0092 -0.251532 0)
(11.8069 -0.238347 0)
(12.0125 -0.266462 0)
(11.8053 -0.252378 0)
(12.0144 -0.281136 0)
(11.803 -0.266331 0)
(12.0149 -0.29637 0)
(11.8004 -0.281413 0)
(12.014 -0.313063 0)
(11.7971 -0.298258 0)
(12.0117 -0.331728 0)
(11.793 -0.317374 0)
(12.0085 -0.352852 0)
(11.7881 -0.339413 0)
(12.0046 -0.377207 0)
(11.7816 -0.365117 0)
(11.9994 -0.405315 0)
(11.7723 -0.393983 0)
(11.9916 -0.435904 0)
(11.7592 -0.423807 0)
(11.9795 -0.46582 0)
(11.7417 -0.451146 0)
(11.9626 -0.491813 0)
(11.7206 -0.473049 0)
(11.941 -0.511869 0)
(11.6977 -0.489134 0)
(11.9171 -0.527199 0)
(11.6767 -0.502412 0)
(11.8947 -0.541853 0)
(11.6597 -0.516692 0)
(11.8743 -0.558178 0)
(11.6437 -0.533259 0)
(11.8536 -0.576792 0)
(11.6246 -0.553171 0)
(11.8312 -0.599531 0)
(11.6008 -0.577454 0)
(11.8066 -0.626536 0)
(11.5719 -0.605969 0)
(11.78 -0.659371 0)
(11.5413 -0.642782 0)
(11.754 -0.701792 0)
(11.509 -0.687257 0)
(11.7226 -0.747771 0)
(11.4714 -0.73075 0)
(11.6856 -0.790247 0)
(11.429 -0.769489 0)
(11.6441 -0.827937 0)
(11.3866 -0.803413 0)
(11.598 -0.860212 0)
(11.3408 -0.833137 0)
(11.548 -0.890863 0)
(11.298 -0.863407 0)
(11.503 -0.922703 0)
(11.2617 -0.891951 0)
(11.4629 -0.949716 0)
(11.2287 -0.915132 0)
(11.4232 -0.967809 0)
(11.1944 -0.929495 0)
(11.3845 -0.981395 0)
(11.1525 -0.938627 0)
(11.3405 -0.99093 0)
(11.1088 -0.951485 0)
(11.2958 -1.00669 0)
(11.0606 -0.958839 0)
(11.2364 -1.00878 0)
(10.9936 -0.953216 0)
(11.1627 -1.00436 0)
(10.9154 -0.944103 0)
(11.0791 -0.998751 0)
(10.8351 -0.93744 0)
(10.9935 -1.00365 0)
(10.7594 -0.944003 0)
(10.9039 -1.01522 0)
(10.676 -0.950861 0)
(10.8114 -1.02472 0)
(10.5977 -0.958796 0)
(10.7249 -1.03679 0)
(10.5192 -0.960802 0)
(10.636 -1.0309 0)
(10.4342 -0.944392 0)
(10.5372 -1.00875 0)
(10.3393 -0.908674 0)
(10.4242 -0.968546 0)
(10.2327 -0.855514 0)
(10.299 -0.916899 0)
(10.1319 -0.813598 0)
(10.1877 -0.888778 0)
(10.0321 -0.778504 0)
(10.0702 -0.84981 0)
(9.92408 -0.730908 0)
(9.9492 -0.8095 0)
(9.81103 -0.690092 0)
(9.83286 -0.784964 0)
(9.70309 -0.661828 0)
(9.7277 -0.765255 0)
(9.60036 -0.635899 0)
(9.64095 -0.737759 0)
(9.5071 -0.607455 0)
(9.55766 -0.706787 0)
(9.41681 -0.574085 0)
(9.46478 -0.673952 0)
(9.32355 -0.535273 0)
(9.3686 -0.636764 0)
(9.22517 -0.494791 0)
(9.2737 -0.599552 0)
(9.13005 -0.458006 0)
(9.18016 -0.559007 0)
(9.04413 -0.409228 0)
(9.0941 -0.512228 0)
(8.96565 -0.360247 0)
(9.01947 -0.466861 0)
(8.8799 -0.318313 0)
(8.94528 -0.428058 0)
(8.79844 -0.272247 0)
(8.88131 -0.381229 0)
(8.71838 -0.21516 0)
(8.82904 -0.331493 0)
(8.66005 -0.166441 0)
(8.78222 -0.287497 0)