/*--------------------------------*- C++ -*----------------------------------*\
| =========                 |                                                 |
| \\      /  F ield         | OpenFOAM: The Open Source CFD Toolbox           |
|  \\    /   O peration     | Version:  2.4.0                                 |
|   \\  /    A nd           | Web:      www.OpenFOAM.org                      |
|    \\/     M anipulation  |                                                 |
\*---------------------------------------------------------------------------*/
FoamFile
{
    version     2.0;
    format      ascii;
    class       volScalarField;
    location    "1.49";
    object      pMean;
}
// * * * * * * * * * * * * * * * * * * * * * * * * * * * * * * * * * * * * * //

dimensions      [0 2 -2 0 0 0 0];

internalField   nonuniform List<scalar> 
8800
(
87.038
74.5863
67.1806
63.6123
61.721
60.2799
59.0702
57.9106
56.8795
55.8351
54.8837
53.8822
52.9784
52.0187
51.1814
50.2904
49.536
48.7344
48.0511
47.2655
83.9269
74.232
67.3489
63.7261
61.781
60.3052
59.0778
57.911
56.8774
55.8327
54.8808
53.88
52.9757
52.017
51.1793
50.2884
49.5374
48.7291
48.0528
47.222
81.962
74.3084
67.9498
64.1017
61.9485
60.3848
59.1244
57.9436
56.9016
55.8497
54.891
53.8847
52.9771
52.0152
51.178
50.2816
49.5405
48.7184
48.1077
47.2593
80.427
74.3706
68.5351
64.5251
62.1322
60.4732
59.187
58.0004
56.9499
55.8886
54.9182
53.9024
52.9877
52.0194
51.1798
50.2759
49.5405
48.7174
48.1915
47.4435
79.1787
74.3443
69.0091
64.9305
62.3005
60.5415
59.2359
58.0586
57.0052
55.9406
54.9527
53.9301
52.9996
52.0303
51.1773
50.2769
49.5273
48.7289
48.1752
47.6949
78.194
74.2474
69.3725
65.2764
62.4503
60.5849
59.2635
58.1037
57.0544
55.9904
54.9866
53.9575
53.0095
52.0399
51.171
50.276
49.5082
48.7385
48.2132
48.0559
77.4375
74.1304
69.6389
65.5558
62.5847
60.6108
59.2717
58.1354
57.0929
56.0319
55.0144
53.9804
53.0156
52.0463
51.1621
50.2727
49.4878
48.744
48.2863
48.4133
76.8845
74.0292
69.8197
65.7678
62.7024
60.6296
59.2647
58.159
57.1199
56.0655
55.0334
54.0008
53.0166
52.0539
51.1502
50.2754
49.4672
48.7497
48.2648
48.72
76.5247
73.9586
69.9338
65.912
62.7867
60.6426
59.2563
58.1748
57.14
56.0903
55.0481
54.0159
53.0199
52.0607
51.1465
50.2796
49.4598
48.7686
48.331
49.0006
76.3455
73.9272
69.9924
65.9892
62.8318
60.6526
59.2524
58.186
57.1532
56.1074
55.0582
54.0278
53.025
52.0697
51.1499
50.2895
49.469
48.7949
48.3941
49.1202
76.3385
73.9384
69.994
65.9944
62.8314
60.6564
59.2503
58.1904
57.1532
56.1125
55.0588
54.034
53.0272
52.0787
51.1552
50.3029
49.4801
48.8209
48.4317
49.209
76.5069
73.9876
69.9381
65.9232
62.7863
60.6513
59.2519
58.185
57.1413
56.1029
55.051
54.0325
53.0279
52.0849
51.1634
50.3162
49.4962
48.8394
48.454
49.2357
76.8574
74.0706
69.823
65.7811
62.6999
60.6424
59.257
58.1743
57.1205
56.0845
55.0369
54.0272
53.0282
52.0928
51.1766
50.3351
49.5198
48.8606
48.4573
49.2003
77.403
74.1774
69.6408
65.569
62.5769
60.6251
59.2599
58.1534
57.0901
56.055
55.0154
54.0148
53.0262
52.0991
51.1921
50.3579
49.5511
48.8882
48.4454
49.0857
78.1561
74.2942
69.3757
65.2873
62.4382
60.5962
59.2522
58.1202
57.05
56.0144
54.987
53.9947
53.0214
52.1008
51.2083
50.3816
49.5913
48.9257
48.4441
48.8864
79.1376
74.3924
69.0131
64.9408
62.2856
60.5512
59.2258
58.0749
57.0009
55.9655
54.9544
53.9697
53.0151
52.0986
51.2245
50.4034
49.6387
48.9747
48.4727
48.6229
80.3838
74.4198
68.5408
64.5378
62.1162
60.4835
59.1779
58.0185
56.9461
55.9155
54.9217
53.9451
53.0078
52.0941
51.2382
50.4199
49.6851
49.022
48.5315
48.3468
81.9179
74.3568
67.9582
64.1166
61.9327
60.3953
59.1162
57.9623
56.8992
55.8771
54.8974
53.9283
53.0029
52.0921
51.2483
50.4324
49.7183
49.0584
48.5901
48.2037
83.8815
74.2781
67.3591
63.7427
61.7659
60.3156
59.0698
57.9299
56.8757
55.8605
54.8884
53.9243
53.0035
52.0953
51.2549
50.4422
49.7339
49.0798
48.5869
48.1264
86.9914
74.6305
67.1905
63.6293
61.7066
60.2902
59.0624
57.9298
56.8778
55.8634
54.8912
53.927
53.0062
52.0978
51.2581
50.4456
49.7375
49.0855
48.5882
48.2463
47.3121
47.216
46.9808
46.7307
46.5301
46.3839
46.2876
46.225
46.1831
46.1539
46.1328
46.1105
46.0854
46.0538
46.0152
45.9665
45.9098
45.8407
45.7636
45.6755
45.583
45.4908
45.4059
45.3287
45.265
45.2155
45.1807
45.1525
45.1253
45.0888
45.0413
44.9821
44.9185
44.8553
44.7967
44.7388
44.6804
44.6107
44.5302
44.4342
44.3313
44.2214
44.1213
44.0347
43.9745
43.937
43.9269
43.9341
43.9568
43.9827
44.0059
44.0127
44.0014
43.9606
43.8975
43.8021
43.6877
43.548
43.3962
43.2222
43.0341
42.8243
42.6062
42.3799
42.1652
41.9716
41.8169
41.7109
41.662
41.659
41.7015
41.77
41.8639
41.9607
42.0654
42.1545
42.2369
42.2884
42.3204
42.3158
42.2889
42.2311
42.1612
42.068
41.9781
41.8839
41.8057
41.7432
41.703
41.6884
41.7028
41.7479
41.8244
41.9238
42.0472
42.1831
42.3364
42.4944
42.6629
42.8261
42.9898
43.1391
43.2844
43.3986
43.509
43.5897
43.6687
43.7259
43.7888
43.8301
43.872
43.8929
43.9122
43.9097
43.9059
43.8867
43.8723
43.8483
43.834
43.8132
43.8045
43.7898
43.7916
43.7853
43.8018
43.8031
43.8375
43.8556
43.9129
43.9689
44.0629
44.1621
44.289
44.4202
44.5702
44.7184
44.8798
45.0312
45.1893
45.333
45.485
45.6294
45.7842
45.9349
46.095
46.2488
46.4125
46.5756
46.7455
46.9147
47.087
47.2561
47.4298
47.5934
47.7588
47.919
48.0918
48.252
48.4332
48.6052
48.804
48.9754
49.1787
49.3428
49.535
49.6793
49.8584
49.9806
50.1378
50.2294
50.3862
50.4501
50.621
50.6809
50.8781
50.9471
51.1841
51.2658
51.5364
51.6515
51.9423
52.0988
52.4237
52.6389
52.9979
53.2762
53.6682
53.9783
54.3985
54.7079
55.1209
55.3652
55.6555
55.6454
55.5519
54.8314
53.6519
50.4589
46.3633
26.073
47.0909
47.0546
46.9712
46.8007
46.6061
46.4382
46.3246
46.2586
46.2276
46.212
46.2031
46.1887
46.1686
46.1384
46.1011
46.0529
45.9971
45.9304
45.8575
45.7758
45.6915
45.607
45.5298
45.4594
45.4013
45.353
45.3168
45.2857
45.2579
45.2241
45.1835
45.1323
45.0767
45.0171
44.9596
44.899
44.8374
44.766
44.6875
44.5959
44.4993
44.398
44.3044
44.222
44.1609
44.1193
44.1012
44.0991
44.1112
44.1251
44.1381
44.1361
44.1202
44.0779
44.0163
43.9251
43.8151
43.6797
43.5304
43.3608
43.1785
42.9787
42.7713
42.5593
42.3567
42.1734
42.0238
41.9141
41.8547
41.8368
41.8617
41.9128
41.9897
42.0734
42.1631
42.2424
42.3113
42.3554
42.3777
42.3686
42.338
42.2806
42.2118
42.1282
42.045
41.9636
41.8926
41.8392
41.8039
41.792
41.8066
41.8505
41.9237
42.0186
42.1366
42.2687
42.4168
42.5698
42.7322
42.8919
43.0518
43.1993
43.3381
43.4491
43.5521
43.6303
43.7016
43.7531
43.8027
43.8349
43.8623
43.8729
43.8761
43.8609
43.8371
43.8037
43.7681
43.7286
43.6924
43.6515
43.6226
43.5885
43.575
43.5565
43.5637
43.5608
43.5871
43.6039
43.6504
43.6979
43.777
43.8623
43.9755
44.0939
44.2325
44.3667
44.5156
44.6539
44.7982
44.9282
45.0662
45.1959
45.3341
45.4658
45.6096
45.741
45.8902
46.0315
46.189
46.3408
46.5022
46.6566
46.825
46.9742
47.1394
47.2878
47.465
47.6158
47.8031
47.9697
48.1709
48.3347
48.5385
48.6913
48.8796
49.0124
49.1842
49.2868
49.4363
49.5011
49.6492
49.6848
49.8451
49.8761
50.067
50.1099
50.3362
50.4024
50.6539
50.7574
51.0234
51.1634
51.4496
51.6407
51.9577
52.1798
52.5298
52.7439
53.099
53.266
53.5485
53.5637
53.636
53.2259
52.7519
51.1754
49.4776
43.7997
37.9773
19.2997
47.0613
47.069
47.0881
46.9714
46.754
46.5234
46.3552
46.2631
46.237
46.2412
46.2549
46.2577
46.2483
46.2218
46.1847
46.1342
46.0769
46.01
45.9392
45.8621
45.7854
45.7088
45.6397
45.5762
45.5237
45.4782
45.4429
45.4112
45.3837
45.352
45.317
45.2725
45.2243
45.1693
45.1141
45.0532
44.9905
44.9194
44.8439
44.7587
44.6702
44.5786
44.4933
44.4169
44.3571
44.3128
44.2879
44.2756
44.2758
44.2769
44.2779
44.2658
44.2422
44.1963
44.1329
44.0441
43.9363
43.8057
43.6593
43.4956
43.3199
43.1319
42.9383
42.7431
42.557
42.3871
42.2465
42.1386
42.0724
42.0434
42.0527
42.0889
42.1493
42.2197
42.2957
42.3637
42.42
42.4551
42.4679
42.4548
42.4207
42.3671
42.3007
42.2266
42.1496
42.0777
42.0139
41.9659
41.9327
41.9203
41.9323
41.9725
42.0391
42.129
42.2404
42.3688
42.5106
42.6598
42.8164
42.9724
43.1274
43.2724
43.4041
43.5129
43.6106
43.6876
43.7528
43.8007
43.841
43.8678
43.8846
43.8885
43.8776
43.8512
43.811
43.7636
43.7113
43.6541
43.6003
43.5402
43.4968
43.446
43.4221
43.3946
43.3965
43.3941
43.4146
43.433
43.4713
43.5147
43.5811
43.6546
43.7546
43.8603
43.9861
44.1066
44.2407
44.3661
44.4959
44.6126
44.7374
44.8545
44.98
45.0987
45.2297
45.3468
45.4847
45.61
45.7576
45.8895
46.0376
46.1734
46.3312
46.4638
46.6275
46.7664
46.9424
47.0906
47.2825
47.4526
47.6539
47.8153
48.0186
48.1594
48.3447
48.4605
48.6245
48.7002
48.8428
48.8831
49.0217
49.0328
49.1883
49.1929
49.3805
49.4038
49.6081
49.6661
49.8803
49.9747
50.1965
50.3183
50.5645
50.7102
50.9953
51.1377
51.4427
51.5468
51.8169
51.8203
51.9821
51.7127
51.6219
50.6753
50.0703
47.345
45.4736
38.4245
31.3847
18.6786
46.9908
47.0054
47.1239
47.0261
46.7807
46.5118
46.3192
46.2271
46.2218
46.2575
46.3044
46.3342
46.3425
46.3237
46.2867
46.2323
46.1702
46.0998
46.0287
45.9544
45.8835
45.8141
45.753
45.6968
45.6506
45.6095
45.5768
45.5462
45.5197
45.4897
45.4582
45.4187
45.3755
45.3245
45.2713
45.2116
45.1498
45.0813
45.0099
44.9322
44.8533
44.7724
44.6966
44.6264
44.569
44.5223
44.4908
44.4682
44.4557
44.4435
44.4314
44.4093
44.3775
44.3279
44.2623
44.1755
44.0708
43.9462
43.8064
43.6517
43.4867
43.3128
43.1354
42.9584
42.7901
42.6357
42.5054
42.4019
42.3322
42.2942
42.2901
42.3116
42.3562
42.4122
42.474
42.5293
42.5736
42.5997
42.6048
42.5891
42.5538
42.5035
42.4405
42.3731
42.3028
42.2375
42.179
42.1319
42.0969
42.0802
42.0872
42.1214
42.1811
42.2645
42.3703
42.4929
42.6291
42.7728
42.9246
43.0758
43.2257
43.3661
43.4918
43.5966
43.6902
43.7662
43.8284
43.8755
43.9117
43.9363
43.9475
43.9447
43.9221
43.8836
43.8306
43.7682
43.704
43.6307
43.5649
43.4906
43.436
43.3729
43.3422
43.3087
43.3085
43.3052
43.3245
43.3413
43.3788
43.4198
43.4816
43.5484
43.6363
43.7312
43.8432
43.951
44.0701
44.1817
44.2974
44.4014
44.5155
44.6211
44.7385
44.849
44.9717
45.0835
45.2138
45.3282
45.4655
45.5768
45.7116
45.8235
45.9684
46.0806
46.2402
46.3731
46.5486
46.6976
46.8974
47.0643
47.2691
47.4235
47.6321
47.7502
47.9418
48.0305
48.1949
48.2373
48.3773
48.39
48.5239
48.5118
48.6703
48.6627
48.8337
48.8548
49.0184
49.0728
49.2393
49.3169
49.4964
49.587
49.798
49.8844
50.1295
50.1829
50.435
50.3961
50.6317
50.3774
50.531
49.8276
49.7674
48.0928
47.4928
43.8836
41.4545
34.8193
27.3152
18.8073
47.9368
47.7933
47.3629
46.9236
46.5526
46.2823
46.1463
46.122
46.175
46.2599
46.3489
46.4124
46.4429
46.4354
46.4003
46.3424
46.2742
46.1985
46.1244
46.051
45.9843
45.9217
45.8683
45.8203
45.7812
45.7461
45.7175
45.6899
45.6651
45.6372
45.6081
45.5724
45.5331
45.4864
45.4366
45.3805
45.322
45.2578
45.1917
45.1214
45.051
44.979
44.9109
44.8459
44.7897
44.7404
44.7016
44.6691
44.6441
44.6202
44.5963
44.5655
44.5263
44.4737
44.407
44.3235
44.2241
44.1084
43.9791
43.8372
43.6868
43.5292
43.3699
43.2114
43.0614
42.923
42.8045
42.7078
42.6384
42.5952
42.5807
42.5898
42.6196
42.6611
42.7075
42.7496
42.7818
42.7993
42.7986
42.7806
42.7452
42.6965
42.6371
42.5732
42.5071
42.4437
42.3855
42.3346
42.294
42.2697
42.2699
42.2954
42.3483
42.4245
42.5253
42.6422
42.7732
42.9133
43.0607
43.2077
43.3535
43.4892
43.6104
43.7119
43.8029
43.8783
43.9387
43.9874
44.0212
44.0446
44.051
44.0406
44.008
43.9566
43.8934
43.8185
43.7455
43.6615
43.5858
43.5039
43.4405
43.3752
43.3411
43.3095
43.3068
43.3047
43.3226
43.3389
43.3801
43.4187
43.4833
43.5449
43.6277
43.7116
43.8136
43.9079
44.0169
44.1122
44.2201
44.3113
44.4202
44.5138
44.6288
44.7326
44.855
44.964
45.0904
45.1946
45.3245
45.4133
45.5384
45.623
45.7556
45.847
46.0014
46.122
46.3039
46.4436
46.6564
46.8095
47.0235
47.1673
47.3834
47.48
47.6807
47.7377
47.9041
47.9137
48.0509
48.0348
48.1638
48.1418
48.296
48.2963
48.4458
48.4665
48.6038
48.6341
48.7693
48.8048
48.9647
48.9933
49.1929
49.1865
49.4229
49.3247
49.585
49.3049
49.5724
48.9673
49.1483
47.9877
47.8743
45.7298
44.7421
41.1253
37.9172
32.6553
25.5896
19.2924
48.6565
48.4405
47.6252
46.8716
46.3282
46.0236
45.9402
45.9992
46.1307
46.2802
46.4168
46.5133
46.5623
46.5629
46.5275
46.465
46.3893
46.3073
46.2284
46.1543
46.0897
46.0327
45.9858
45.9457
45.9136
45.8853
45.8616
45.8382
45.816
45.7908
45.7639
45.7316
45.6956
45.6535
45.6078
45.5566
45.5026
45.4441
45.3839
45.3206
45.257
45.1922
45.1295
45.0685
45.0127
44.9613
44.9165
44.8761
44.8404
44.806
44.7713
44.732
44.686
44.6302
44.5632
44.4837
44.3912
44.2859
44.1689
44.0415
43.907
43.7675
43.6271
43.4885
43.3573
43.236
43.1307
43.0432
42.9777
42.9338
42.9139
42.9155
42.9341
42.9629
42.9951
43.0246
43.0454
43.0544
43.0482
43.0275
42.991
42.9421
42.883
42.8182
42.7513
42.6858
42.6248
42.568
42.5197
42.4842
42.4758
42.4923
42.5371
42.6065
42.7023
42.8142
42.9399
43.0773
43.2212
43.366
43.509
43.6435
43.7624
43.8637
43.9539
44.0291
44.0897
44.1396
44.1724
44.1922
44.1929
44.1724
44.1299
44.0653
43.9945
43.9115
43.8315
43.7422
43.6596
43.5761
43.5096
43.4514
43.419
43.396
43.3933
43.3961
43.4124
43.4353
43.4785
43.5243
43.5927
43.6532
43.7357
43.8083
43.9028
43.9836
44.0856
44.1681
44.2727
44.3558
44.4611
44.5484
44.6649
44.7629
44.8912
44.9982
45.1235
45.2208
45.3409
45.4094
45.5192
45.5808
45.6976
45.7669
45.9193
46.0192
46.2071
46.3326
46.5562
46.6911
46.9227
47.0454
47.2813
47.3484
47.5654
47.5909
47.7629
47.7308
47.875
47.8253
47.9625
47.933
48.0913
48.0889
48.2452
48.2372
48.3804
48.3584
48.488
48.447
48.6119
48.5479
48.7458
48.6249
48.8476
48.5974
48.8275
48.3606
48.5405
47.7168
47.7099
46.3432
45.8901
43.7395
42.252
39.1527
35.6552
31.6963
25.6248
20.3958
49.2873
49.0009
47.8388
46.7813
46.0635
45.7259
45.7076
45.8688
46.0953
46.318
46.5024
46.6281
46.6901
46.6934
46.6528
46.5824
46.4975
46.4084
46.3244
46.2492
46.1859
46.1336
46.0924
46.0597
46.0342
46.0128
45.9943
45.9759
45.9568
45.9349
45.91
45.8805
45.847
45.8088
45.7668
45.7206
45.6715
45.6191
45.5645
45.5077
45.4498
45.391
45.3327
45.2753
45.2201
45.1676
45.1185
45.0724
45.0287
44.9861
44.9427
44.8965
44.8451
44.7873
44.7211
44.646
44.5609
44.4661
44.3618
44.2495
44.1314
44.01
43.888
43.7686
43.655
43.5503
43.458
43.3809
43.322
43.2827
43.2633
43.2623
43.2748
43.2944
43.3149
43.3328
43.3438
43.346
43.3352
43.3107
43.2718
43.2208
43.1589
43.0896
43.0185
42.9486
42.8824
42.8176
42.7592
42.7116
42.6918
42.6998
42.7383
42.8037
42.8964
43.0055
43.129
43.2654
43.4068
43.5523
43.6943
43.8292
43.9482
44.0529
44.141
44.2154
44.2766
44.3255
44.3563
44.3703
44.3658
44.3357
44.2843
44.2088
44.13
44.0411
43.9557
43.8657
43.7805
43.7021
43.6414
43.5981
43.5758
43.5666
43.5699
43.5796
43.5981
43.628
43.6747
43.7316
43.802
43.871
43.9501
44.0211
44.1073
44.1833
44.2787
44.3596
44.4621
44.5449
44.6486
44.7386
44.8542
44.9522
45.0791
45.1886
45.313
45.4056
45.5123
45.5659
45.6524
45.7015
45.7958
45.8424
45.99
46.0724
46.25
46.3742
46.6015
46.7185
46.9749
47.0787
47.3245
47.3776
47.5954
47.6088
47.779
47.7248
47.859
47.7981
47.9333
47.9158
48.0696
48.0751
48.2252
48.2098
48.3384
48.2822
48.3779
48.2874
48.4007
48.2803
48.3987
48.2091
48.334
47.9979
48.1076
47.5325
47.5317
46.6236
46.3936
44.9867
44.2643
42.2748
40.5782
38.1141
34.7799
31.7032
26.6948
22.0512
50.26
49.8246
48.0977
46.6397
45.7383
45.3812
45.4437
45.7262
46.0636
46.3649
46.5945
46.7439
46.8137
46.8153
46.7661
46.6859
46.5913
46.4961
46.4086
46.3335
46.2723
46.2249
46.189
46.1629
46.1434
46.1283
46.1147
46.1009
46.085
46.0662
46.0433
46.0165
45.9853
45.9502
45.911
45.8689
45.8235
45.7757
45.7254
45.6735
45.6198
45.5655
45.5104
45.4558
45.4016
45.3491
45.2976
45.2482
45.1993
45.1514
45.1024
45.0521
44.9982
44.9406
44.8768
44.8073
44.7301
44.6462
44.5544
44.4571
44.3544
44.2494
44.1435
44.0408
43.9426
43.8532
43.7741
43.709
43.6588
43.6265
43.61
43.6092
43.6179
43.6311
43.6428
43.6522
43.6555
43.653
43.6388
43.6112
43.5688
43.514
43.4467
43.3712
43.2941
43.2178
43.1462
43.0737
43.0051
42.9481
42.9189
42.9217
42.9566
43.0217
43.1115
43.2192
43.3415
43.4773
43.6193
43.7667
43.9116
44.0503
44.1703
44.2771
44.3617
44.4369
44.4968
44.5413
44.5672
44.5737
44.5636
44.5278
44.4682
44.3859
44.2986
44.2079
44.1206
44.0344
43.9543
43.8893
43.8426
43.8199
43.8139
43.8226
43.8367
43.8569
43.8828
43.9222
43.9769
44.0419
44.116
44.1895
44.2657
44.343
44.4254
44.5045
44.5968
44.6838
44.7864
44.8761
44.9801
45.0758
45.1898
45.2907
45.42
45.5276
45.6543
45.7407
45.8425
45.8757
45.9411
45.9852
46.058
46.0913
46.2307
46.2912
46.4605
46.5711
46.8036
46.9064
47.1724
47.2799
47.5232
47.5879
47.7994
47.8226
47.984
47.9174
48.0264
47.9711
48.0877
48.0911
48.2409
48.2606
48.4043
48.3895
48.508
48.4131
48.4701
48.3373
48.3863
48.1983
48.2282
47.962
47.9952
47.5664
47.5969
46.9076
46.7937
45.8234
45.4656
44.1027
43.2715
41.5432
39.8149
37.8881
34.8959
32.2803
28.1432
23.945
50.6818
50.2158
48.2872
46.6272
45.6016
45.2059
45.2984
45.651
46.0611
46.4216
46.6895
46.8595
46.9348
46.9321
46.8723
46.7814
46.6779
46.5778
46.4881
46.4142
46.3557
46.3129
46.2822
46.262
46.2479
46.2382
46.2288
46.2188
46.2056
46.1894
46.1684
46.1438
46.1142
46.0814
46.0445
46.0053
45.9626
45.9181
45.8706
45.8219
45.771
45.7197
45.6667
45.6141
45.5607
45.5083
45.4556
45.4041
45.3521
45.3014
45.2496
45.1979
45.1436
45.0878
45.0277
44.9643
44.8951
44.8214
44.7411
44.6571
44.5685
44.4788
44.3879
44.3006
44.2175
44.1433
44.078
44.0256
43.9851
43.9604
43.9483
43.9486
43.9541
43.9625
43.9673
43.9699
43.968
43.9627
43.946
43.9166
43.8721
43.814
43.741
43.6581
43.5723
43.4888
43.4108
43.3304
43.2577
43.1948
43.162
43.1636
43.1997
43.2653
43.353
43.4572
43.5792
43.7158
43.8622
44.0129
44.1636
44.3101
44.4353
44.5425
44.6265
44.7004
44.755
44.791
44.8074
44.8062
44.7911
44.7496
44.6851
44.6002
44.51
44.4213
44.3379
44.2599
44.1933
44.1466
44.1216
44.1231
44.138
44.1686
44.1978
44.2325
44.2701
44.3194
44.3835
44.4552
44.5344
44.6105
44.6877
44.7718
44.8542
44.938
45.0326
45.1226
45.23
45.3252
45.4324
45.5388
45.6564
45.7626
45.8989
46.0054
46.1449
46.2189
46.3339
46.3319
46.393
46.4218
46.4749
46.5029
46.6377
46.6668
46.8448
46.9325
47.1765
47.267
47.5414
47.6479
47.8947
47.9562
48.1915
48.2148
48.3908
48.2747
48.3708
48.3334
48.4446
48.4639
48.6056
48.6469
48.788
48.7777
48.898
48.7384
48.7767
48.595
48.5971
48.3223
48.3103
47.9427
47.894
47.4376
47.3807
46.6996
46.5113
45.5009
45.0823
43.7969
42.9195
41.4802
39.7948
38.211
35.5806
33.1717
29.669
25.8908
50.9033
50.4678
48.4803
46.7281
45.6226
45.1724
45.2527
45.6326
46.0843
46.4834
46.7784
46.9631
47.0417
47.0344
46.9656
46.8658
46.7555
46.652
46.5617
46.4897
46.4347
46.3966
46.371
46.3561
46.3466
46.341
46.3348
46.3275
46.3163
46.3019
46.2824
46.2593
46.2313
46.2004
46.1654
46.1282
46.0874
46.0452
45.9999
45.9536
45.9047
45.8553
45.8039
45.7525
45.6997
45.6475
45.5944
45.5424
45.4895
45.4379
45.3854
45.334
45.2812
45.2286
45.1734
45.1168
45.0557
44.9916
44.9222
44.8505
44.7749
44.699
44.6223
44.5499
44.4814
44.4216
44.3703
44.3307
44.3009
44.2851
44.2787
44.2804
44.2834
44.2884
44.2896
44.2874
44.2814
44.274
44.2567
44.2276
44.1823
44.1209
44.0433
43.955
43.8612
43.7681
43.6831
43.5959
43.5221
43.4571
43.4261
43.4287
43.4711
43.539
43.6274
43.7289
43.8537
43.9923
44.1424
44.2961
44.4564
44.6119
44.745
44.8516
44.9339
45.0014
45.0477
45.073
45.0799
45.0714
45.0515
45.0052
44.9394
44.8555
44.7685
44.6876
44.615
44.5526
44.5061
44.4824
44.4851
44.5126
44.5546
44.6084
44.6572
44.7093
44.761
44.8188
44.8904
44.9656
45.0497
45.1265
45.21
45.2974
45.386
45.4739
45.5759
45.6649
45.782
45.8821
45.9979
46.1131
46.2417
46.3545
46.5082
46.6093
46.7777
46.8342
46.9711
46.9195
47.0017
46.9955
47.0586
47.0673
47.1987
47.1958
47.3985
47.4629
47.7315
47.7886
48.1034
48.1843
48.4908
48.4873
48.7926
48.7942
49.0217
48.7953
48.9218
48.8666
49.0054
49.0355
49.1985
49.2364
49.3899
49.3645
49.5007
49.2472
49.3083
49.0765
49.0559
48.6734
48.6205
48.1628
48.1071
47.6715
47.5786
46.8367
46.6171
45.5688
45.1205
43.9488
43.036
41.8429
40.2691
38.8402
36.5123
34.2111
31.1484
27.7663
51.038
50.6182
48.6107
46.8179
45.6766
45.199
45.2734
45.6658
46.1379
46.5552
46.862
47.0517
47.1287
47.1152
47.0395
46.9344
46.8217
46.7184
46.6304
46.5619
46.5113
46.4779
46.457
46.4463
46.4403
46.4371
46.4327
46.4267
46.4165
46.403
46.3846
46.3627
46.336
46.3066
46.2732
46.2377
46.1988
46.1584
46.1149
46.0701
46.0228
45.9748
45.9247
45.8745
45.8227
45.7714
45.7189
45.6672
45.6151
45.5643
45.5132
45.4635
45.4134
45.3645
45.3147
45.2651
45.2126
45.1584
45.1004
45.0411
44.9787
44.9165
44.8546
44.7969
44.7425
44.6961
44.6588
44.6323
44.6135
44.6057
44.6044
44.6071
44.6091
44.612
44.6105
44.6061
44.5989
44.591
44.5747
44.5479
44.5037
44.4411
44.3603
44.2665
44.1669
44.0658
43.9754
43.8844
43.8131
43.7492
43.7283
43.7333
43.7855
43.8563
43.9483
44.0475
44.1791
44.3194
44.4739
44.6278
44.7984
44.9594
45.0985
45.2013
45.2784
45.3333
45.3689
45.3826
45.3837
45.3701
45.3463
45.2971
45.2365
45.1571
45.0836
45.0143
44.9641
44.92
44.9045
44.9073
44.944
44.9965
45.0699
45.1428
45.2191
45.2866
45.3578
45.423
45.5016
45.5734
45.664
45.736
45.8304
45.9151
46.0176
46.1081
46.22
46.3115
46.4414
46.5458
46.677
46.7991
46.948
47.0617
47.2403
47.3339
47.5407
47.5703
47.7347
47.6252
47.7557
47.7074
47.8092
47.7734
47.9265
47.8989
48.1374
48.1631
48.4695
48.4819
48.8452
48.903
49.2902
49.2246
49.6313
49.5741
49.8458
49.5095
49.7245
49.5959
49.8107
49.7971
50.0111
50.0335
50.205
50.1853
50.3256
49.9532
50.0234
49.768
49.6618
49.2571
49.1656
48.7444
48.7222
48.1773
48.0344
47.2122
47.0555
45.9792
45.4895
44.446
43.5155
42.4722
41.0487
39.6355
37.5175
35.3123
32.5611
29.5261
51.0871
50.663
48.6527
46.8674
45.7401
45.2792
45.3697
45.7706
46.2435
46.6547
46.9525
47.1314
47.1975
47.175
47.0943
46.9881
46.8779
46.7788
46.6962
46.6332
46.5881
46.5594
46.5425
46.5343
46.5302
46.5279
46.5241
46.5182
46.5084
46.4952
46.4776
46.4566
46.4313
46.4032
46.3715
46.3375
46.3003
46.2614
46.2198
46.1768
46.1313
46.0846
46.0359
45.9867
45.9361
45.8857
45.8348
45.7848
45.7349
45.6864
45.638
45.5912
45.545
45.5008
45.4567
45.4137
45.3699
45.3258
45.2799
45.233
45.1841
45.1358
45.0892
45.0465
45.007
44.9746
44.9513
44.9367
44.9272
44.9252
44.9279
44.932
44.9335
44.933
44.9275
44.921
44.9144
44.9086
44.897
44.8754
44.8357
44.7762
44.6961
44.5996
44.4957
44.3895
44.2955
44.2053
44.1391
44.0838
44.0787
44.0875
44.1508
44.2223
44.3182
44.4121
44.5516
44.692
44.8511
45.0027
45.1844
45.3475
45.4934
45.5898
45.6587
45.6912
45.7187
45.7166
45.7171
45.6994
45.6776
45.6287
45.5802
45.511
45.4624
45.4106
45.3941
45.3737
45.3986
45.4288
45.5047
45.5823
45.6917
45.7825
45.8844
45.9646
46.0587
46.1293
46.2183
46.2904
46.381
46.451
46.5547
46.639
46.7535
46.8525
46.971
47.0747
47.2146
47.3237
47.4659
47.594
47.759
47.884
48.0754
48.173
48.4
48.432
48.5791
48.447
48.647
48.5338
48.6867
48.5952
48.7909
48.7418
49.0179
49.0362
49.3566
49.3454
49.77
49.8118
50.2494
50.1664
50.6255
50.5464
50.8015
50.4124
50.6685
50.5056
50.8145
50.7889
51.0368
51.0312
51.221
51.2284
51.2511
50.8715
50.9253
50.5684
50.4608
50.0943
49.9651
49.5165
49.4129
48.8433
48.7225
47.9274
47.6431
46.6671
46.1513
45.2048
44.3097
43.2703
41.959
40.5024
38.5452
36.4455
33.9271
31.1781
51.0326
50.5977
48.6181
46.8956
45.8338
45.4351
45.5623
45.9625
46.4104
46.7873
47.0523
47.2024
47.2472
47.2127
47.1298
47.0274
46.9249
46.8345
46.7608
46.7057
46.6672
46.6431
46.6291
46.622
46.6181
46.6152
46.6107
46.6041
46.594
46.5808
46.5638
46.5436
46.5197
46.493
46.463
46.4308
46.3959
46.3591
46.3197
46.2786
46.235
46.1898
46.1427
46.095
46.0465
45.9983
45.9502
45.9033
45.8567
45.8113
45.7669
45.7242
45.6831
45.6444
45.6073
45.5717
45.5364
45.5019
45.4676
45.4337
45.3986
45.364
45.332
45.3039
45.2796
45.2623
45.2527
45.2487
45.248
45.252
45.258
45.2619
45.2616
45.2574
45.2492
45.2422
45.2371
45.234
45.2286
45.2142
45.1819
45.1296
45.0549
44.9601
44.8548
44.7494
44.6557
44.5697
44.508
44.466
44.4755
44.4926
44.564
44.633
44.7274
44.8197
44.9695
45.1073
45.2683
45.4178
45.6122
45.7745
45.9278
46.0138
46.0741
46.0842
46.1018
46.0866
46.0943
46.0715
46.0572
46.0116
45.9818
45.9311
45.9159
45.89
45.9145
45.9282
45.9994
46.0615
46.1793
46.28
46.4198
46.5251
46.6535
46.7445
46.862
46.9402
47.0417
47.1111
47.2057
47.2766
47.3882
47.4823
47.6099
47.72
47.8468
47.963
48.1031
48.2192
48.373
48.5047
48.6757
48.8196
49.0137
49.1413
49.3491
49.4231
49.5201
49.4088
49.6225
49.4753
49.6499
49.5629
49.8077
49.7469
50.0305
50.0719
50.3556
50.3713
50.8331
50.9165
51.3741
51.3301
51.7458
51.6994
51.8506
51.4747
51.7783
51.5538
51.9747
51.9304
52.2078
52.2213
52.3876
52.3665
52.3554
51.9844
51.9742
51.5378
51.4714
51.0609
50.8475
50.5111
50.3109
49.9207
49.5259
48.8306
48.423
47.5747
47.043
46.1406
45.2988
44.1841
42.9505
41.4189
39.6082
37.6012
35.268
32.7507
50.8246
50.3847
48.508
46.9295
45.994
45.6954
45.8605
46.2363
46.6279
46.942
47.1513
47.2566
47.2728
47.2266
47.1452
47.0523
46.9628
46.8856
46.8239
46.7784
46.7467
46.7265
46.7139
46.7064
46.701
46.6961
46.6898
46.6817
46.6709
46.6573
46.6405
46.621
46.5983
46.573
46.5452
46.5153
46.483
46.4488
46.4123
46.3736
46.3325
46.2895
46.2445
46.1991
46.1541
46.11
46.0661
46.0228
45.9803
45.9394
45.8998
45.8621
45.827
45.7949
45.7651
45.7379
45.7128
45.6903
45.669
45.647
45.6244
45.6038
45.5865
45.5728
45.564
45.5612
45.5639
45.5696
45.5773
45.5875
45.5972
45.6028
45.602
45.5942
45.5827
45.5749
45.572
45.5738
45.5755
45.5701
45.5489
45.5077
45.4419
45.3539
45.2515
45.1515
45.0587
44.9804
44.9252
44.9001
44.9157
44.9367
45.0091
45.0759
45.1675
45.2737
45.4351
45.5741
45.7342
45.8883
46.0863
46.2412
46.3945
46.4737
46.5294
46.5247
46.5363
46.5154
46.5286
46.5068
46.5046
46.4665
46.4582
46.432
46.4525
46.4617
46.5315
46.5858
46.7025
46.8022
46.9561
47.0818
47.2451
47.3651
47.5139
47.6157
47.7516
47.8432
47.9565
48.0296
48.1307
48.21
48.3342
48.4385
48.5824
48.7069
48.8426
48.9706
49.0983
49.2228
49.3723
49.5174
49.6893
49.8671
50.0469
50.2123
50.3953
50.5072
50.5569
50.5538
50.69
50.5435
50.7131
50.674
50.9101
50.8991
51.1548
51.2575
51.446
51.5534
52.0064
52.142
52.5917
52.6579
52.9656
52.93
53.054
52.7224
53.0021
52.8721
53.2472
53.18
53.48
53.5396
53.6649
53.6281
53.4935
53.1388
53.1398
52.6666
52.5176
52.1674
51.8953
51.7431
51.3185
51.1301
50.4747
50.0239
49.352
48.6532
48.0568
47.2279
46.4114
45.2024
44.0066
42.3908
40.7045
38.7594
36.5846
34.2466
50.3575
49.942
48.331
47.0243
46.2885
46.0967
46.267
46.5773
46.8772
47.1022
47.2377
47.2902
47.2775
47.2229
47.1478
47.0687
46.9957
46.9342
46.8854
46.849
46.8229
46.8047
46.7918
46.7822
46.7741
46.7662
46.7576
46.7476
46.7358
46.7217
46.7052
46.6863
46.6649
46.6413
46.6157
46.5883
46.559
46.5279
46.4948
46.4593
46.4213
46.3816
46.3407
46.2993
46.2581
46.2186
46.1808
46.1439
46.107
46.0707
46.0361
46.0046
45.9771
45.9528
45.9314
45.9138
45.8997
45.8888
45.8805
45.8731
45.8656
45.8587
45.8548
45.8551
45.86
45.8692
45.8822
45.8972
45.9132
45.9294
45.9427
45.9495
45.9479
45.9376
45.923
45.913
45.9121
45.9193
45.9293
45.9342
45.9261
45.899
45.8452
45.7676
45.6744
45.5856
45.4959
45.4306
45.3818
45.369
45.3857
45.4151
45.4847
45.5466
45.6387
45.7702
45.9394
46.0829
46.2395
46.4079
46.5953
46.7445
46.89
46.9686
47.02
47.0194
47.0229
47.0075
47.0248
47.0161
47.0276
47.0095
47.021
47.025
47.0787
47.1359
47.243
47.3464
47.4941
47.6364
47.8086
47.9615
48.1382
48.2798
48.4425
48.5622
48.7086
48.8154
48.9453
49.0267
49.1442
49.2411
49.375
49.4987
49.6494
49.783
49.924
50.052
50.1675
50.302
50.4479
50.6101
50.7946
51.0095
51.175
51.3784
51.5202
51.6497
51.7198
51.7898
51.821
51.7986
51.8899
51.9373
52.1405
52.1627
52.3603
52.5096
52.6648
52.8828
53.2119
53.5114
53.9
54.0118
54.2045
54.1898
54.288
54.0991
54.3671
54.3589
54.5846
54.5972
54.802
54.9079
54.9157
54.8569
54.6917
54.4726
54.3617
53.9286
53.7136
53.4642
53.0899
53.0483
52.5075
52.3899
51.4957
51.3189
50.4171
49.8718
49.1663
48.4617
47.5488
46.3131
45.1304
43.4439
41.8338
39.9244
37.8906
35.6805
49.5959
49.2742
48.1393
47.2312
46.7363
46.6224
46.7415
46.9377
47.1152
47.237
47.2969
47.3023
47.268
47.2111
47.1458
47.0821
47.0254
46.978
46.9399
46.9101
46.887
46.8689
46.8542
46.8418
46.8307
46.8201
46.8094
46.798
46.7854
46.7712
46.7549
46.7367
46.7164
46.6945
46.6709
46.6463
46.6207
46.5937
46.5643
46.5327
46.499
46.4634
46.4271
46.3914
46.3563
46.3225
46.2908
46.2612
46.2324
46.2031
46.1751
46.1516
46.1336
46.1195
46.1082
46.1009
46.0981
46.0992
46.1021
46.1053
46.1099
46.1173
46.1274
46.1408
46.1574
46.1762
46.1966
46.2182
46.2402
46.2612
46.2771
46.285
46.2829
46.2715
46.2552
46.2438
46.2445
46.2559
46.2712
46.2833
46.2856
46.272
46.2335
46.1707
46.0918
46.0194
45.9351
45.8913
45.8527
45.851
45.8661
45.9109
45.9723
46.0417
46.1437
46.2907
46.4525
46.6053
46.7671
46.9523
47.124
47.2747
47.4036
47.4891
47.5358
47.5523
47.5513
47.5563
47.5729
47.5916
47.6138
47.6328
47.6614
47.7086
47.7865
47.8961
48.0306
48.1805
48.3444
48.5212
48.695
48.8776
49.0528
49.2167
49.382
49.5323
49.6852
49.8295
49.9648
50.0794
50.1991
50.326
50.4601
50.6105
50.7562
50.9115
51.044
51.1799
51.2905
51.441
51.5805
51.7687
51.9565
52.1891
52.3571
52.61
52.6867
52.8763
52.8966
53.0129
53.0222
53.1094
53.1457
53.2821
53.3594
53.4565
53.6075
53.8014
53.8986
54.2722
54.5043
54.9624
55.1105
55.3039
55.3958
55.4802
55.575
55.6156
55.7601
55.8121
55.9018
56.0484
56.1101
56.2483
56.1693
56.1497
55.8505
55.8718
55.5072
55.3284
54.9509
54.8187
54.3935
54.4348
53.6617
53.522
52.6165
52.5505
51.4857
51.1895
50.2776
49.6756
48.6001
47.4741
46.2384
44.5355
42.9603
41.0853
39.1594
37.0294
48.761
48.5934
48.0399
47.5679
47.286
47.1814
47.1903
47.2445
47.2976
47.3274
47.3268
47.2995
47.2538
47.1996
47.1447
47.094
47.0496
47.012
46.9804
46.954
46.9316
46.9124
46.8957
46.881
46.8676
46.8552
46.843
46.8306
46.8175
46.8032
46.7872
46.7693
46.7502
46.7303
46.7096
46.6875
46.6646
46.6413
46.6168
46.5896
46.5602
46.5304
46.5007
46.4708
46.442
46.4163
46.3937
46.3726
46.3519
46.3315
46.3139
46.3011
46.2929
46.2884
46.2878
46.2915
46.2989
46.3092
46.3222
46.3365
46.3509
46.3661
46.384
46.4052
46.4286
46.453
46.4782
46.5038
46.5289
46.5509
46.5668
46.5761
46.5777
46.5702
46.5564
46.5459
46.5471
46.559
46.5771
46.5939
46.6036
46.6006
46.5756
46.5296
46.4706
46.4248
46.359
46.3373
46.3071
46.3215
46.3422
46.4079
46.46
46.5476
46.6454
46.7957