/*--------------------------------*- C++ -*----------------------------------*\
| =========                 |                                                 |
| \\      /  F ield         | OpenFOAM: The Open Source CFD Toolbox           |
|  \\    /   O peration     | Version:  2.4.0                                 |
|   \\  /    A nd           | Web:      www.OpenFOAM.org                      |
|    \\/     M anipulation  |                                                 |
\*---------------------------------------------------------------------------*/
FoamFile
{
    version     2.0;
    format      ascii;
    class       volVectorField;
    location    "1.49";
    object      U;
}
// * * * * * * * * * * * * * * * * * * * * * * * * * * * * * * * * * * * * * //

dimensions      [0 1 -1 0 0 0 0];

internalField   nonuniform List<vector> 
8800
(
(8.09235 0.387751 0)
(5.45198 0.242899 0)
(3.91837 0.0425947 0)
(3.14416 -0.0143644 0)
(2.80797 -0.0195596 0)
(2.58864 -0.0102564 0)
(2.50224 -0.00695243 0)
(2.35054 0.00130705 0)
(2.34838 -0.00631327 0)
(2.21922 0.0026832 0)
(2.27477 -0.00409038 0)
(2.09191 0.00701556 0)
(2.2462 -0.0101315 0)
(2.01194 0.00953227 0)
(2.21014 -0.0064655 0)
(1.897 0.00947448 0)
(2.2045 -0.0113594 0)
(1.82136 0.00843927 0)
(2.25319 0.00637559 0)
(1.47283 -0.0857209 0)
(10.0866 0.837677 0)
(9.65458 0.867296 0)
(8.90037 0.507795 0)
(8.04466 0.265565 0)
(7.52391 0.131804 0)
(6.97077 0.0849468 0)
(6.74939 0.0519374 0)
(6.31487 0.0502064 0)
(6.33297 0.0152749 0)
(5.89315 0.0323707 0)
(6.11738 0.0119664 0)
(5.52955 0.0321852 0)
(6.05757 -0.0136169 0)
(5.25114 0.0402218 0)
(6.00223 -0.00257229 0)
(4.95767 0.0340169 0)
(6.02691 -0.0152053 0)
(4.69008 0.0225514 0)
(6.1217 0.0180207 0)
(4.27455 -0.0350495 0)
(10.0766 0.630653 0)
(10.637 0.860407 0)
(10.934 0.605384 0)
(10.6335 0.381383 0)
(10.5146 0.243917 0)
(10.0101 0.200581 0)
(9.94372 0.15193 0)
(9.33366 0.135334 0)
(9.53134 0.0728865 0)
(8.75394 0.0855133 0)
(9.30649 0.0547695 0)
(8.20761 0.0682945 0)
(9.27206 -7.25241e-05 0)
(7.75589 0.0792983 0)
(9.26244 0.0109425 0)
(7.29093 0.0628475 0)
(9.36497 -0.0127531 0)
(6.8387 0.0498692 0)
(9.55316 0.0119482 0)
(6.33369 -0.0541585 0)
(10.0648 0.45794 0)
(10.4966 0.694741 0)
(11.279 0.550785 0)
(11.311 0.367839 0)
(11.6624 0.24824 0)
(11.2984 0.229635 0)
(11.7015 0.203564 0)
(11.0038 0.186721 0)
(11.6931 0.127952 0)
(10.5536 0.128187 0)
(11.7428 0.112971 0)
(10.0192 0.101619 0)
(11.8784 0.0273787 0)
(9.51275 0.120547 0)
(12.0422 0.0456452 0)
(8.9249 0.0869224 0)
(12.2711 0.0134507 0)
(8.36487 0.0610462 0)
(12.5332 0.0295033 0)
(7.93397 -0.054303 0)
(10.2067 0.347846 0)
(10.2896 0.555648 0)
(11.1696 0.456375 0)
(11.2147 0.314404 0)
(11.9103 0.207255 0)
(11.3317 0.186056 0)
(12.2638 0.192778 0)
(11.2771 0.169671 0)
(12.6892 0.139802 0)
(11.0106 0.116393 0)
(13.1003 0.141988 0)
(10.623 0.10623 0)
(13.4994 0.0407902 0)
(10.2378 0.124581 0)
(13.9317 0.0753294 0)
(9.78808 0.0972158 0)
(14.1591 0.024135 0)
(9.59641 0.112258 0)
(14.1753 -0.0294915 0)
(9.74341 0.0827493 0)
(10.2112 0.238027 0)
(10.2584 0.458921 0)
(11.0438 0.368763 0)
(10.9801 0.23884 0)
(12.0112 0.201863 0)
(11.1109 0.134669 0)
(12.3813 0.173563 0)
(11.0019 0.107304 0)
(12.9215 0.142844 0)
(10.8581 0.0729335 0)
(13.4946 0.151936 0)
(10.6383 0.067767 0)
(13.837 0.0345786 0)
(10.5686 0.115191 0)
(14.2613 0.0556756 0)
(10.674 0.142661 0)
(14.0854 -0.0674348 0)
(11.0092 0.205324 0)
(13.7723 -0.142439 0)
(11.4206 0.230708 0)
(9.99158 0.151284 0)
(10.3678 0.344916 0)
(10.9142 0.313822 0)
(10.8165 0.151686 0)
(11.8196 0.177191 0)
(11.2521 0.106537 0)
(12.2536 0.168862 0)
(11.0584 0.0695966 0)
(12.4907 0.106031 0)
(11.119 0.0325092 0)
(13.1137 0.133657 0)
(11.181 0.0995312 0)
(12.9113 -0.036657 0)
(11.2925 0.122894 0)
(13.308 -0.0538117 0)
(11.8299 0.258511 0)
(13.0554 -0.181264 0)
(12.0315 0.317438 0)
(12.5649 -0.242499 0)
(12.2841 0.427039 0)
(9.91442 0.0813515 0)
(10.3908 0.218696 0)
(10.7595 0.274124 0)
(10.7868 0.0987072 0)
(11.4648 0.103464 0)
(11.4987 0.0529333 0)
(11.9013 0.164295 0)
(11.436 0.094381 0)
(11.8977 0.0449023 0)
(11.6445 -0.0158465 0)
(12.4239 0.0614377 0)
(11.935 0.188982 0)
(11.9953 -0.0860662 0)
(11.9422 0.109473 0)
(12.3381 -0.180853 0)
(12.4413 0.289945 0)
(12.5233 -0.219451 0)
(12.5974 0.392787 0)
(12.0014 -0.209808 0)
(12.507 0.413037 0)
(10.0666 0.0306728 0)
(10.1469 0.102448 0)
(10.6757 0.24012 0)
(10.8685 0.027672 0)
(11.2832 0.0323702 0)
(11.4187 0.0190448 0)
(11.5199 0.156636 0)
(11.8695 0.0897994 0)
(11.7358 -0.0146583 0)
(11.8468 -0.0510556 0)
(11.7277 0.0216258 0)
(12.2434 0.248393 0)
(11.9806 -0.0840203 0)
(12.3816 0.0773549 0)
(11.8111 -0.214235 0)
(12.4726 0.225002 0)
(12.2244 -0.208989 0)
(12.8918 0.36754 0)
(12.0458 -0.0939223 0)
(12.7139 0.217024 0)
(10.1557 -0.00531657 0)
(9.87501 0.0250907 0)
(10.7062 0.11182 0)
(10.9683 -0.00449589 0)
(11.1964 0.0100768 0)
(11.1389 0.0130547 0)
(11.5683 0.0329436 0)
(12.176 0.0504706 0)
(11.7893 -0.000621451 0)
(11.5341 0.0231135 0)
(11.3921 -0.0629833 0)
(12.3447 0.152054 0)
(12.5045 -0.110005 0)
(12.3172 0.168591 0)
(11.6217 -0.189007 0)
(12.1615 0.154587 0)
(12.101 -0.257576 0)
(12.8866 0.301764 0)
(12.4359 -0.0202434 0)
(12.8095 0.112839 0)
(10.0271 -0.00687895 0)
(9.97418 -0.0834422 0)
(10.6579 -0.0195793 0)
(10.9903 -0.051185 0)
(11.2674 0.0350907 0)
(11.1871 -0.0536951 0)
(11.6526 -0.125985 0)
(11.9941 0.0314517 0)
(11.8202 0.0879609 0)
(11.601 0.0730082 0)
(11.6543 -0.207128 0)
(12.2948 -0.0311027 0)
(12.3971 -0.0800552 0)
(12.0936 0.277474 0)
(11.9518 -0.165559 0)
(12.2392 0.0453281 0)
(12.3202 -0.343822 0)
(12.6599 0.151778 0)
(12.6899 0.0320322 0)
(12.5914 0.0830232 0)
(9.88496 -0.0315431 0)
(10.2753 -0.185107 0)
(10.5636 -0.127696 0)
(10.9967 -0.118604 0)
(11.2804 0.015159 0)
(11.5326 -0.0725139 0)
(11.5604 -0.180507 0)
(11.6513 0.00295697 0)
(11.7131 0.0617828 0)
(12.022 0.0760831 0)
(12.0006 -0.231588 0)
(12.1223 -0.0523989 0)
(11.7211 -0.0181485 0)
(12.1058 0.240907 0)
(12.399 -0.158494 0)
(12.6493 -0.0348366 0)
(12.4283 -0.267735 0)
(12.3546 0.0707492 0)
(12.4254 0.0907347 0)
(12.4579 0.0196121 0)
(9.90008 -0.0808712 0)
(10.4407 -0.293194 0)
(10.5895 -0.184782 0)
(10.9871 -0.185883 0)
(11.2584 -0.0469212 0)
(11.7325 -0.106251 0)
(11.5588 -0.158688 0)
(11.5776 -0.0174092 0)
(11.6392 -0.0367072 0)
(12.1116 0.0107839 0)
(12.1094 -0.205688 0)
(11.8809 0.0206372 0)
(11.6455 -0.0286084 0)
(12.3872 0.0560654 0)
(12.6557 -0.21242 0)
(12.5686 -0.0465358 0)
(12.2461 -0.176402 0)
(12.0993 0.0269469 0)
(12.3374 0.0463385 0)
(12.5935 -0.067546 0)
(9.99686 -0.158723 0)
(10.4022 -0.392969 0)
(10.6809 -0.23696 0)
(11.0712 -0.237486 0)
(11.4316 -0.124416 0)
(11.6562 -0.149149 0)
(11.5952 -0.145885 0)
(11.7091 -0.0363467 0)
(11.7422 -0.0978107 0)
(12.0014 -0.0459369 0)
(12.1023 -0.172102 0)
(11.9825 0.0223099 0)
(12.1108 -0.0950016 0)
(12.4998 -0.0689872 0)
(12.4928 -0.156713 0)
(12.3374 -0.0190989 0)
(12.2708 -0.110511 0)
(12.2546 -0.0515694 0)
(12.5694 -0.0426613 0)
(12.6967 -0.1178 0)
(10.0997 -0.243124 0)
(10.3269 -0.480165 0)
(10.7963 -0.324165 0)
(11.2742 -0.306016 0)
(11.5793 -0.159531 0)
(11.5787 -0.157918 0)
(11.6452 -0.1751 0)
(11.8166 -0.0717629 0)
(11.9152 -0.129503 0)
(12.0747 -0.0860555 0)
(12.176 -0.173295 0)
(12.1379 -0.0225295 0)
(12.2832 -0.108029 0)
(12.3521 -0.0914513 0)
(12.3524 -0.110556 0)
(12.3032 -0.0510277 0)
(12.364 -0.104465 0)
(12.354 -0.124186 0)
(12.5792 -0.0979951 0)
(12.5051 -0.151244 0)
(10.1248 -0.344265 0)
(10.334 -0.568871 0)
(11.065 -0.439131 0)
(11.393 -0.352602 0)
(11.5855 -0.183537 0)
(11.653 -0.180533 0)
(11.7529 -0.215058 0)
(11.8744 -0.118018 0)
(11.9222 -0.163713 0)
(11.9726 -0.122786 0)
(12.0203 -0.164548 0)
(11.9417 -0.0453742 0)
(12.0113 -0.106259 0)
(11.915 -0.113095 0)
(11.9839 -0.106353 0)
(11.8546 -0.0701386 0)
(11.9253 -0.0960636 0)
(11.7611 -0.149901 0)
(11.858 -0.114547 0)
(11.6186 -0.16011 0)
(10.0513 -0.453193 0)
(10.5113 -0.708722 0)
(11.2562 -0.543828 0)
(11.3583 -0.378325 0)
(11.491 -0.234932 0)
(11.4961 -0.224155 0)
(11.3862 -0.233657 0)
(11.379 -0.14197 0)
(11.2375 -0.154918 0)
(11.1309 -0.122357 0)
(11.032 -0.140234 0)
(10.8786 -0.0510383 0)
(10.8619 -0.0869169 0)
(10.6426 -0.0977025 0)
(10.6735 -0.0807942 0)
(10.4342 -0.061349 0)
(10.4843 -0.0724521 0)
(10.1859 -0.131499 0)
(10.2413 -0.0874518 0)
(9.88433 -0.146366 0)
(10.0842 -0.629052 0)
(10.6386 -0.86784 0)
(10.9234 -0.601477 0)
(10.6365 -0.381055 0)
(10.4476 -0.245123 0)
(10.1216 -0.191886 0)
(9.75408 -0.174429 0)
(9.56415 -0.103044 0)
(9.26566 -0.0960644 0)
(9.07277 -0.0759077 0)
(8.87929 -0.0813861 0)
(8.71687 -0.0244838 0)
(8.64721 -0.045568 0)
(8.4206 -0.0576829 0)
(8.41668 -0.0481716 0)
(8.18228 -0.03281 0)
(8.21621 -0.0451081 0)
(7.90719 -0.0824194 0)
(7.93385 -0.0657243 0)
(7.57843 -0.0731822 0)
(10.0934 -0.837295 0)
(9.65142 -0.870669 0)
(8.8924 -0.506144 0)
(8.04391 -0.263786 0)
(7.49832 -0.135053 0)
(7.02547 -0.0762308 0)
(6.64984 -0.0678542 0)
(6.43596 -0.0324549 0)
(6.19557 -0.0266523 0)
(6.05287 -0.0257489 0)
(5.89025 -0.0306031 0)
(5.78861 -0.00445947 0)
(5.73343 -0.0137758 0)
(5.57979 -0.0264791 0)
(5.55155 -0.0209127 0)
(5.39174 -0.0126266 0)
(5.40315 -0.0188182 0)
(5.17051 -0.0406095 0)
(5.16774 -0.0354076 0)
(4.87991 -0.00803081 0)
(8.093 -0.387645 0)
(5.44972 -0.243133 0)
(3.91352 -0.0420736 0)
(3.14535 0.0149454 0)
(2.80058 0.0177055 0)
(2.60608 0.0140419 0)
(2.47127 0.000872915 0)
(2.38295 0.00458134 0)
(2.31156 0.00271982 0)
(2.26791 1.06061e-05 0)
(2.19808 -0.00275408 0)
(2.16432 0.00258557 0)
(2.1547 0.00146596 0)
(2.0992 -0.00346284 0)
(2.06602 -0.00166283 0)
(2.00714 0.000609204 0)
(2.00758 0.000476824 0)
(1.91102 -0.00624958 0)
(1.8675 -0.00376757 0)
(1.73141 0.0118798 0)
(2.46226 -0.130997 0)
(2.11592 -0.0408963 0)
(2.64804 -0.0426961 0)
(2.24945 0.00020986 0)
(2.85574 -0.0172764 0)
(2.40686 0.0243705 0)
(3.08723 -0.00412355 0)
(2.57767 0.0304194 0)
(3.30539 -0.0159732 0)
(2.71479 0.0169248 0)
(3.47036 -0.0327565 0)
(2.78569 0.00392059 0)
(3.59933 -0.0404409 0)
(2.82417 0.0162607 0)
(3.72518 -0.0142885 0)
(2.87318 0.0673464 0)
(3.88803 0.0471387 0)
(2.96464 0.147046 0)
(4.11558 0.133327 0)
(3.11393 0.24488 0)
(4.43497 0.227375 0)
(3.33085 0.333291 0)
(4.82604 0.287585 0)
(3.61314 0.360067 0)
(5.28053 0.265455 0)
(4.00153 0.271232 0)
(5.78856 0.0926647 0)
(4.4916 0.0182765 0)
(6.27047 -0.241371 0)
(4.98518 -0.396826 0)
(6.63608 -0.716933 0)
(5.40658 -0.897431 0)
(6.81269 -1.22752 0)
(5.5919 -1.37137 0)
(6.71778 -1.63462 0)
(5.61548 -1.6299 0)
(6.65962 -1.59371 0)
(5.62123 -1.42393 0)
(6.37796 -1.32557 0)
(5.26827 -1.20454 0)
(5.62296 -1.18 0)
(4.38575 -1.07888 0)
(4.69083 -0.980907 0)
(3.84045 -0.645555 0)
(4.44702 -0.40964 0)
(4.00775 -0.0164448 0)
(4.73626 0.254303 0)
(4.36503 0.65994 0)
(5.0188 1.02641 0)
(4.52828 1.57436 0)
(5.04115 2.18899 0)
(4.48761 2.89508 0)
(4.93953 3.43567 0)
(4.47341 3.75356 0)
(4.92085 3.69347 0)
(4.58738 3.51423 0)
(5.01218 3.02372 0)
(4.76998 2.66814 0)
(5.17049 2.09291 0)
(5.03564 1.66851 0)
(5.45311 1.02256 0)
(5.53061 0.656782 0)
(6.0841 0.166395 0)
(6.22828 -0.165953 0)
(6.65315 -0.723238 0)
(6.86497 -1.04259 0)
(7.40074 -1.47802 0)
(7.64047 -1.70664 0)
(8.19212 -2.12874 0)
(8.48044 -2.28739 0)
(8.98948 -2.41946 0)
(9.30595 -2.32625 0)
(9.80825 -2.34981 0)
(10.1591 -2.19858 0)
(10.6301 -2.04119 0)
(10.9406 -1.86793 0)
(11.3545 -1.7477 0)
(11.6529 -1.60788 0)
(11.9008 -1.64952 0)
(12.1607 -1.53947 0)
(12.4172 -1.69815 0)
(12.5003 -1.80531 0)
(12.7774 -1.95481 0)
(12.7146 -2.1395 0)
(12.8356 -2.46327 0)
(12.7355 -2.59659 0)
(12.7539 -2.91068 0)
(12.6541 -3.13962 0)
(12.7171 -3.33092 0)
(12.4672 -3.53587 0)
(12.5641 -3.52855 0)
(12.2895 -3.60027 0)
(12.368 -3.60411 0)
(12.2159 -3.42101 0)
(12.2034 -3.203 0)
(12.118 -2.93985 0)
(12.2312 -2.75208 0)
(12.148 -2.41085 0)
(12.3967 -2.07728 0)
(12.2358 -1.72701 0)
(12.3319 -1.34486 0)
(12.3167 -0.982609 0)
(12.3545 -0.62752 0)
(12.32 -0.259177 0)
(12.3665 -0.0642468 0)
(12.2751 0.219079 0)
(12.2181 0.327424 0)
(12.0152 0.318476 0)
(11.7675 0.42289 0)
(11.4793 0.347959 0)
(11.1508 0.186672 0)
(10.8492 0.06745 0)
(10.5839 -0.28633 0)
(10.2107 -0.43927 0)
(9.89074 -0.58914 0)
(9.6414 -0.974765 0)
(9.45321 -1.27952 0)
(9.16038 -1.48021 0)
(8.97308 -1.98199 0)
(8.68997 -2.33363 0)
(8.19126 -2.53205 0)
(7.65341 -2.5382 0)
(7.34481 -2.46879 0)
(7.01514 -2.40371 0)
(6.54411 -2.41695 0)
(6.14003 -2.37924 0)
(5.91785 -2.38076 0)
(5.7555 -2.53646 0)
(5.63743 -2.65388 0)
(5.43501 -2.68577 0)
(5.42855 -3.30504 0)
(5.03894 -4.59897 0)
(5.27187 -4.85766 0)
(5.4193 -3.40114 0)
(4.96546 -1.52615 0)
(4.82949 0.114885 0)
(4.9393 1.78053 0)
(4.68347 3.42018 0)
(4.57415 4.89942 0)
(4.36171 5.95925 0)
(4.44956 6.62162 0)
(4.43216 7.5012 0)
(4.57016 8.38293 0)
(4.54803 9.09467 0)
(4.69133 8.98511 0)
(5.06772 8.42094 0)
(5.38743 7.7289 0)
(5.46376 6.80727 0)
(5.66584 5.34683 0)
(5.73828 4.03939 0)
(6.11838 3.79126 0)
(6.395 3.15103 0)
(6.54668 1.81997 0)
(6.5819 0.339189 0)
(6.56815 -0.547934 0)
(6.85616 -1.57492 0)
(6.96872 -3.20614 0)
(6.91973 -4.26151 0)
(7.09358 -4.44743 0)
(7.08555 -5.09442 0)
(7.0467 -5.73946 0)
(6.61617 -6.4991 0)
(6.5464 -6.18664 0)
(6.0029 -5.48209 0)
(5.46091 -5.58179 0)
(5.19972 -6.40742 0)
(4.9701 -7.52454 0)
(5.21057 -8.35727 0)
(5.25129 -9.04144 0)
(6.47088 -9.20704 0)
(6.30327 -9.25608 0)
(7.41276 -8.61701 0)
(7.93606 -7.63234 0)
(7.88301 -6.51195 0)
(9.12333 -5.32484 0)
(8.93571 -3.73726 0)
(9.86224 -2.05225 0)
(9.85031 -0.271267 0)
(10.5398 1.46013 0)
(10.2486 2.98876 0)
(10.3234 3.97308 0)
(10.6158 5.04013 0)
(10.8366 6.44036 0)
(11.3396 7.62297 0)
(10.5086 8.06697 0)
(10.479 8.18192 0)
(10.6899 8.92205 0)
(10.3134 9.50902 0)
(10.498 9.5867 0)
(9.88827 9.32383 0)
(8.78185 8.2504 0)
(8.4142 7.35695 0)
(7.66965 7.08609 0)
(6.90477 6.42274 0)
(6.82419 6.46797 0)
(6.2686 6.27347 0)
(5.49314 5.92664 0)
(5.27569 6.72468 0)
(5.27229 6.97307 0)
(3.04999 9.01648 0)
(5.7068 -0.113497 0)
(5.03389 -0.0618837 0)
(5.74498 -0.0802742 0)
(4.95983 -0.0358282 0)
(5.82001 -0.0677591 0)
(4.94849 -0.0197258 0)
(5.95748 -0.0611477 0)
(4.98667 -0.0165958 0)
(6.11204 -0.0641691 0)
(5.0042 -0.0140107 0)
(6.23502 -0.0650963 0)
(4.98063 -0.0130578 0)
(6.34556 -0.0690593 0)
(4.94889 -0.00528387 0)
(6.46662 -0.0509023 0)
(4.92937 0.0299367 0)
(6.61871 -0.00317394 0)
(4.94805 0.0898866 0)
(6.81987 0.0599882 0)
(5.02444 0.155194 0)
(7.08646 0.121785 0)
(5.18857 0.200278 0)
(7.41479 0.140969 0)
(5.46305 0.187071 0)
(7.78652 0.0778056 0)
(5.87732 0.0722246 0)
(8.21 -0.107503 0)
(6.3793 -0.184071 0)
(8.62174 -0.430126 0)
(6.87101 -0.564339 0)
(8.94178 -0.85076 0)
(7.22203 -1.01512 0)
(9.09473 -1.25694 0)
(7.40873 -1.35256 0)
(9.08268 -1.51788 0)
(7.39304 -1.47635 0)
(8.71033 -1.51862 0)
(7.04268 -1.38448 0)
(8.32679 -1.42739 0)
(6.90917 -1.16193 0)
(8.00989 -0.8887 0)
(6.43334 -0.454154 0)
(7.02786 -0.430791 0)
(5.31562 -0.343165 0)
(5.9145 -0.365255 0)
(4.68477 -0.072732 0)
(5.57606 0.177981 0)
(4.77789 0.628687 0)
(5.63552 0.982711 0)
(4.9933 1.54773 0)
(5.75204 2.09866 0)
(5.26874 2.8247 0)
(6.02361 3.31079 0)
(5.67592 3.71702 0)
(6.39932 3.62034 0)
(6.11781 3.48506 0)
(6.64542 2.96793 0)
(6.41371 2.58044 0)
(6.82662 1.99427 0)
(6.78361 1.55933 0)
(7.14745 0.863726 0)
(7.23016 0.377498 0)
(7.62445 -0.165385 0)
(7.90075 -0.488898 0)
(8.27836 -1.03921 0)
(8.56586 -1.38544 0)
(9.01367 -1.8619 0)
(9.31913 -2.10134 0)
(9.78495 -2.53901 0)
(10.1051 -2.6799 0)
(10.455 -2.842 0)
(10.8447 -2.69673 0)
(11.1872 -2.74578 0)
(11.4912 -2.55692 0)
(11.7471 -2.35484 0)
(12.0547 -2.1209 0)
(12.1716 -2.02419 0)
(12.4689 -1.72695 0)
(12.4476 -1.76681 0)
(12.6579 -1.66499 0)
(12.68 -1.75171 0)
(12.7121 -1.86842 0)
(12.7249 -2.05145 0)
(12.6913 -2.1495 0)
(12.5962 -2.49566 0)
(12.6273 -2.57112 0)
(12.528 -2.93112 0)
(12.4321 -3.13884 0)
(12.4081 -3.25641 0)
(12.1348 -3.48361 0)
(12.1816 -3.52267 0)
(11.9585 -3.52753 0)
(11.927 -3.48183 0)
(11.7458 -3.297 0)
(11.8361 -3.18532 0)
(11.7566 -2.95175 0)
(11.8717 -2.66493 0)
(11.699 -2.33531 0)
(11.9126 -1.99229 0)
(11.7185 -1.63737 0)
(11.9891 -1.31498 0)
(11.862 -0.999 0)
(12.011 -0.677659 0)
(11.9576 -0.328286 0)
(12.0854 -0.11114 0)
(11.94 0.20703 0)
(12.1519 0.38453 0)
(11.8506 0.459429 0)
(11.8543 0.660194 0)
(11.5948 0.578323 0)
(11.418 0.470544 0)
(11.0238 0.316235 0)
(10.8399 -0.0143317 0)
(10.3777 -0.256035 0)
(10.1735 -0.409885 0)
(9.85229 -0.743923 0)
(9.55745 -1.00978 0)
(9.24989 -1.35466 0)
(8.99905 -1.84862 0)
(8.54637 -2.01901 0)
(8.17617 -1.97355 0)
(7.54408 -2.13313 0)
(7.0982 -2.15475 0)
(6.49794 -2.03163 0)
(6.22656 -2.05767 0)
(5.97935 -2.12728 0)
(5.67809 -2.30534 0)
(5.32662 -2.44554 0)
(5.0764 -2.50963 0)
(4.86405 -2.5695 0)
(4.85501 -3.15051 0)
(4.33671 -4.37025 0)
(4.38773 -4.60088 0)
(4.54225 -3.11727 0)
(3.96064 -1.29842 0)
(3.42823 0.320043 0)
(3.37469 1.93765 0)
(3.61483 3.54489 0)
(3.65788 4.96225 0)
(3.89825 5.90241 0)
(4.21406 6.63883 0)
(4.05709 7.40792 0)
(4.43671 8.28368 0)
(4.4192 9.02651 0)
(4.66771 8.73162 0)
(5.09905 8.04049 0)
(5.46907 7.5934 0)
(5.68425 6.68134 0)
(5.7195 5.13693 0)
(5.93058 3.77055 0)
(6.32056 3.54206 0)
(6.6296 3.0698 0)
(6.75288 1.74923 0)
(6.84006 0.237439 0)
(6.94077 -0.728149 0)
(7.33375 -1.69525 0)
(7.38645 -3.24034 0)
(7.44502 -4.25351 0)
(7.49028 -4.47314 0)
(7.48795 -4.92068 0)
(7.27392 -5.58163 0)
(7.01268 -6.31486 0)
(6.64756 -5.81488 0)
(6.12269 -5.00823 0)
(5.53848 -5.16519 0)
(4.97025 -6.13452 0)
(4.94732 -7.31729 0)
(4.26738 -8.69657 0)
(5.46062 -9.32063 0)
(5.12008 -9.71168 0)
(5.91455 -9.77363 0)
(7.00377 -8.9668 0)
(6.27474 -7.98368 0)
(7.76812 -6.91893 0)
(7.47652 -5.76778 0)
(8.2366 -4.11417 0)
(8.66929 -2.34996 0)
(8.95641 -0.61477 0)
(9.51236 1.33841 0)
(9.63567 2.90476 0)
(9.37715 3.7912 0)
(9.96239 4.86368 0)
(10.0758 6.2635 0)
(10.5283 7.40766 0)
(10.6424 8.02452 0)
(10.1142 8.15565 0)
(10.4868 8.6495 0)
(10.3663 9.19186 0)
(10.2784 9.59236 0)
(10.4801 10.047 0)
(9.56553 9.57412 0)
(8.46643 8.53642 0)
(7.85764 7.6936 0)
(7.07216 6.82846 0)
(6.34996 6.12805 0)
(6.49074 6.34082 0)
(5.60488 6.31802 0)
(4.97345 6.68147 0)
(7.17028 6.52562 0)
(5.36509 9.81308 0)
(8.59515 -0.116291 0)
(7.46592 -0.0323695 0)
(8.65081 -0.0588136 0)
(7.36439 -0.0268504 0)
(8.73674 -0.0817727 0)
(7.33888 -0.0401901 0)
(8.88036 -0.0889003 0)
(7.34995 -0.0345116 0)
(9.01886 -0.0765541 0)
(7.31398 -0.0214954 0)
(9.10375 -0.070426 0)
(7.23788 -0.0280262 0)
(9.16766 -0.0818572 0)
(7.17943 -0.0308476 0)
(9.24625 -0.074506 0)
(7.16469 -0.00240269 0)
(9.34541 -0.0431546 0)
(7.21208 0.0485677 0)
(9.46937 -0.0026326 0)
(7.33558 0.103835 0)
(9.6241 0.0240644 0)
(7.5483 0.127119 0)
(9.8019 -0.00405405 0)
(7.86866 0.0903661 0)
(10.0079 -0.10439 0)
(8.26831 -0.0490499 0)
(10.2692 -0.30254 0)
(8.71732 -0.302745 0)
(10.5203 -0.617756 0)
(9.10348 -0.664499 0)
(10.7236 -0.984747 0)
(9.33017 -1.03592 0)
(10.7627 -1.32609 0)
(9.37191 -1.32993 0)
(10.6476 -1.52678 0)
(9.09336 -1.44023 0)
(10.3387 -1.46481 0)
(8.95392 -1.23515 0)
(10.1111 -1.14499 0)
(8.44929 -0.890518 0)
(9.36816 -0.7764 0)
(7.89962 -0.395165 0)
(8.97506 -0.11875 0)
(7.51256 0.22056 0)
(8.0891 0.203592 0)
(6.28241 0.274092 0)
(6.84084 0.227003 0)
(5.50709 0.582347 0)
(6.42687 0.847905 0)
(5.57464 1.45993 0)
(6.55279 1.92719 0)
(6.00666 2.65657 0)
(6.97741 3.05165 0)
(6.73827 3.48197 0)
(7.561 3.40173 0)
(7.48886 3.29628 0)
(7.97974 2.83182 0)
(8.00521 2.43432 0)
(8.29968 1.86628 0)
(8.53207 1.38166 0)
(8.74781 0.679025 0)
(9.04165 0.185366 0)
(9.21089 -0.370475 0)
(9.6442 -0.718621 0)
(9.87442 -1.25115 0)
(10.3344 -1.63219 0)
(10.5815 -2.10856 0)
(11.1141 -2.3627 0)
(11.3569 -2.7781 0)
(11.8059 -2.8721 0)
(11.9257 -3.03686 0)
(12.3154 -2.89981 0)
(12.4139 -2.86286 0)
(12.6408 -2.65135 0)
(12.5893 -2.45546 0)
(12.7985 -2.16084 0)
(12.6082 -2.07768 0)
(12.7859 -1.77004 0)
(12.5974 -1.80293 0)
(12.6954 -1.69736 0)
(12.5652 -1.73904 0)
(12.6353 -1.85119 0)
(12.4584 -2.02802 0)
(12.5705 -2.01698 0)
(12.358 -2.42889 0)
(12.4437 -2.53364 0)
(12.2337 -2.8114 0)
(12.2165 -3.06624 0)
(12.1316 -3.22911 0)
(11.9605 -3.38931 0)
(11.8822 -3.45697 0)
(11.8298 -3.45783 0)
(11.7553 -3.52362 0)
(11.7612 -3.32651 0)
(11.7663 -3.15617 0)
(11.6642 -2.90425 0)
(11.8566 -2.63274 0)
(11.7957 -2.3606 0)
(12.0039 -1.97969 0)
(11.9307 -1.62316 0)
(12.1359 -1.25201 0)
(11.912 -0.869433 0)
(12.0175 -0.574098 0)
(11.8394 -0.219595 0)
(11.8118 -0.0171996 0)
(11.5797 0.148901 0)
(11.6502 0.415541 0)
(11.3313 0.520357 0)
(11.4496 0.651519 0)
(11.2432 0.706409 0)
(11.2069 0.647739 0)
(11.011 0.494816 0)
(10.8732 0.293804 0)
(10.5437 0.103526 0)
(10.1626 -0.120021 0)
(9.84633 -0.473246 0)
(9.67945 -0.769689 0)
(9.28924 -1.05553 0)
(8.72238 -1.39023 0)
(8.35904 -1.66608 0)
(7.97543 -1.66961 0)
(7.21624 -1.6241 0)
(6.75728 -1.62597 0)
(6.43647 -1.75229 0)
(6.2047 -1.90267 0)
(5.67787 -1.8545 0)
(5.21791 -1.82841 0)
(4.76604 -2.06907 0)
(4.71206 -2.35214 0)
(4.6014 -2.55466 0)
(4.4565 -3.08714 0)
(3.83097 -4.25597 0)
(3.54754 -4.5064 0)
(3.62814 -2.76746 0)
(2.84496 -0.655846 0)
(2.01633 0.760837 0)
(1.93552 1.84051 0)
(2.37683 3.30058 0)
(2.66463 4.63718 0)
(3.50956 5.63824 0)
(3.8075 6.51311 0)
(3.86769 7.29717 0)
(4.17917 8.13047 0)
(4.35643 8.81303 0)
(4.49992 8.45485 0)
(5.17387 7.61685 0)
(5.481 7.34718 0)
(5.93326 6.67536 0)
(5.96742 5.05755 0)
(6.15146 3.50759 0)
(6.45961 3.25308 0)
(6.84406 2.90289 0)
(7.02619 1.66486 0)
(7.17411 0.114323 0)
(7.39732 -0.925338 0)
(7.77676 -1.82026 0)
(7.88919 -3.31742 0)
(7.97271 -4.30928 0)
(7.90081 -4.52344 0)
(7.87679 -4.75647 0)
(7.59763 -5.44012 0)
(7.34368 -5.97974 0)
(6.64496 -5.34521 0)
(6.55292 -4.48045 0)
(5.21951 -4.72419 0)
(5.32309 -5.56051 0)
(4.00769 -7.27352 0)
(4.50734 -8.77704 0)
(4.53539 -9.47298 0)
(4.40074 -10.5101 0)
(6.0808 -9.93617 0)
(5.12258 -9.16975 0)
(6.21373 -8.34619 0)
(6.49283 -7.25984 0)
(6.29337 -6.10641 0)
(7.60997 -4.5605 0)
(7.0454 -2.75028 0)
(8.51449 -0.824882 0)
(7.86912 0.955286 0)
(9.15976 2.89002 0)
(8.26754 3.78016 0)
(8.93435 4.5062 0)
(9.41756 5.9185 0)
(9.66048 7.38158 0)
(10.115 8.17107 0)
(9.95138 8.64315 0)
(9.81834 8.9159 0)
(10.46 9.29252 0)
(9.73032 9.52477 0)
(9.92437 9.43471 0)
(10.3409 9.50807 0)
(9.40297 9.26246 0)
(8.64175 8.27671 0)
(8.30162 7.49443 0)
(6.89132 7.38799 0)
(6.46813 6.91983 0)
(7.26585 6.57954 0)
(4.97383 7.55442 0)
(7.91566 4.67139 0)
(6.60204 9.1841 0)
(11.1703 -0.11875 0)
(9.6075 -0.00233449 0)
(11.1047 -0.0568169 0)
(9.4597 -0.0214699 0)
(11.1253 -0.113407 0)
(9.47552 -0.0558627 0)
(11.2475 -0.129816 0)
(9.54158 -0.0323081 0)
(11.3602 -0.0959394 0)
(9.56601 0.0107734 0)
(11.3869 -0.0758076 0)
(9.55242 0.0216175 0)
(11.3653 -0.101868 0)
(9.54429 0.00932492 0)
(11.3448 -0.11355 0)
(9.56874 0.0167667 0)
(11.336 -0.113019 0)
(9.6533 0.0513033 0)
(11.3724 -0.0928416 0)
(9.78903 0.0732988 0)
(11.4462 -0.0702964 0)
(9.9997 0.0713363 0)
(11.5402 -0.110437 0)
(10.2582 -0.00476815 0)
(11.7032 -0.195413 0)
(10.5398 -0.168439 0)
(11.8777 -0.397659 0)
(10.8267 -0.415416 0)
(12.042 -0.672381 0)
(11.0025 -0.764126 0)
(12.1351 -0.984288 0)
(11.0232 -1.0643 0)
(12.0585 -1.27581 0)
(10.8666 -1.28648 0)
(11.799 -1.4021 0)
(10.5177 -1.30736 0)
(11.4961 -1.29335 0)
(10.0902 -1.10972 0)
(10.9627 -1.09586 0)
(9.59242 -0.788633 0)
(10.5899 -0.547449 0)
(9.2869 -0.123131 0)
(10.1858 0.0201884 0)
(8.92579 0.373645 0)
(9.75591 0.562216 0)
(8.39639 0.887677 0)
(8.75571 0.816695 0)
(7.17288 0.942794 0)
(7.53833 0.904954 0)
(6.48951 1.33402 0)
(7.23747 1.67463 0)
(6.89172 2.38651 0)
(7.74874 2.7939 0)
(7.90754 3.22922 0)
(8.58156 3.21572 0)
(8.9177 3.16419 0)
(9.20806 2.72903 0)
(9.61696 2.30117 0)
(9.67973 1.71271 0)
(10.2073 1.20487 0)
(10.2503 0.476768 0)
(10.6783 -0.0264374 0)
(10.7292 -0.554355 0)
(11.2715 -1.01162 0)
(11.3803 -1.55276 0)
(11.9621 -1.93367 0)
(12.0604 -2.428 0)
(12.7059 -2.73471 0)
(12.7595 -3.05927 0)
(13.1542 -3.12947 0)
(13.0839 -3.19143 0)
(13.3735 -3.07514 0)
(13.1775 -2.94794 0)
(13.2766 -2.65435 0)
(12.9618 -2.44638 0)
(13.118 -2.12325 0)
(12.7602 -2.00111 0)
(12.8939 -1.70874 0)
(12.6269 -1.72982 0)
(12.7242 -1.69411 0)
(12.45 -1.71492 0)
(12.6404 -1.79454 0)
(12.336 -2.05181 0)
(12.4967 -2.07299 0)
(12.2279 -2.44515 0)
(12.3264 -2.55313 0)
(12.1187 -2.83616 0)
(12.1931 -3.04733 0)
(12.0479 -3.18047 0)
(12.0395 -3.32028 0)
(11.9093 -3.44031 0)
(12.0123 -3.33242 0)
(11.7758 -3.38019 0)
(11.9643 -3.23799 0)
(11.9203 -3.12832 0)
(12.0727 -2.97751 0)
(12.2421 -2.74855 0)
(12.3474 -2.39309 0)
(12.4272 -2.12225 0)
(12.5751 -1.70598 0)
(12.5921 -1.30076 0)
(12.5236 -0.890538 0)
(12.5504 -0.560419 0)
(12.3217 -0.123043 0)
(12.1556 0.115559 0)
(11.8229 0.39887 0)
(11.603 0.650034 0)
(11.1834 0.610982 0)
(11.0619 0.766023 0)
(10.7699 0.759622 0)
(10.6899 0.684589 0)
(10.4329 0.625474 0)
(10.298 0.389954 0)
(10.1583 0.254172 0)
(9.8255 0.142437 0)
(9.57278 -0.357507 0)
(9.30061 -0.595349 0)
(8.91935 -0.637608 0)
(8.40155 -1.06297 0)
(8.01832 -1.41727 0)
(7.52873 -1.191 0)
(6.96564 -1.17301 0)
(6.61398 -1.41929 0)
(6.24358 -1.48786 0)
(5.82639 -1.51478 0)
(5.50751 -1.49471 0)
(5.30044 -1.6639 0)
(4.94529 -2.03476 0)
(4.83367 -2.2604 0)
(4.50263 -2.33109 0)
(4.16864 -2.68284 0)
(3.45643 -3.7603 0)
(2.82489 -4.08176 0)
(2.78057 -2.37757 0)
(2.38668 -0.156219 0)
(1.73484 1.04419 0)
(1.42764 1.70311 0)
(1.41329 2.75062 0)
(2.1351 3.95224 0)
(2.94082 5.06324 0)
(3.30917 6.29099 0)
(3.68905 7.15117 0)
(3.84296 7.94595 0)
(4.20542 8.64407 0)
(4.36854 8.04204 0)
(5.22514 7.21142 0)
(5.60219 6.98804 0)
(6.06216 6.48854 0)
(6.33558 4.88675 0)
(6.44806 3.29779 0)
(6.67188 3.00821 0)
(7.07151 2.68017 0)
(7.31894 1.50811 0)
(7.63454 -0.148699 0)
(7.86954 -1.16063 0)
(8.25974 -2.02345 0)
(8.47549 -3.38702 0)
(8.37074 -4.2949 0)
(8.4523 -4.39694 0)
(8.19585 -4.52496 0)
(8.10503 -5.15648 0)
(7.44303 -5.62362 0)
(7.21164 -4.89539 0)
(6.42466 -4.01847 0)
(5.82402 -4.09505 0)
(4.73344 -5.00849 0)
(4.33596 -7.11777 0)
(4.0344 -8.64437 0)
(3.87435 -10.055 0)
(4.69112 -10.7077 0)
(4.45892 -9.9921 0)
(4.58674 -9.57489 0)
(5.90398 -8.26858 0)
(4.70605 -7.46253 0)
(6.1126 -6.4641 0)
(6.1222 -4.6941 0)
(6.29421 -3.124 0)
(7.11255 -1.20168 0)
(7.10112 0.83484 0)
(7.44066 2.44752 0)
(8.02305 3.6661 0)
(7.69971 4.32585 0)
(8.63161 5.45092 0)
(8.99418 6.77792 0)
(9.18705 7.78914 0)
(9.70142 7.96976 0)
(9.42609 8.42576 0)
(10.1881 9.49566 0)
(10.5077 10.2054 0)
(9.64113 10.2683 0)
(9.75594 10.1452 0)
(9.66265 9.59851 0)
(8.66259 9.03041 0)
(8.35107 8.1032 0)
(8.35978 7.41794 0)
(6.50014 7.60487 0)
(8.87133 5.52281 0)
(5.9997 8.2677 0)
(8.5377 4.33381 0)
(7.09258 7.92288 0)
(12.6432 -0.178318 0)
(11.2873 -0.044865 0)
(12.4948 -0.169897 0)
(11.151 -0.0601528 0)
(12.4447 -0.184097 0)
(11.2022 -0.0505845 0)
(12.5223 -0.185629 0)
(11.3031 -0.028884 0)
(12.5842 -0.156382 0)
(11.3598 0.0142408 0)
(12.5598 -0.127997 0)
(11.3897 0.0251464 0)
(12.5092 -0.12986 0)
(11.4295 0.0050019 0)
(12.4786 -0.134237 0)
(11.4907 0.0099793 0)
(12.4664 -0.129132 0)
(11.5911 0.0109826 0)
(12.5104 -0.10428 0)
(11.7247 0.015945 0)
(12.5736 -0.10437 0)
(11.8891 -0.00388712 0)
(12.6582 -0.146545 0)
(12.0622 -0.108907 0)
(12.7727 -0.251367 0)
(12.2298 -0.256436 0)
(12.8791 -0.457743 0)
(12.3367 -0.491532 0)
(12.9458 -0.689255 0)
(12.3443 -0.794147 0)
(12.899 -0.964357 0)
(12.1963 -1.00425 0)
(12.7026 -1.19236 0)
(11.8671 -1.16092 0)
(12.3719 -1.22985 0)
(11.4167 -1.12915 0)
(11.9187 -1.1679 0)
(10.8985 -0.934322 0)
(11.4871 -0.850862 0)
(10.468 -0.541399 0)
(11.0487 -0.410284 0)
(10.0924 -0.0412966 0)
(10.7526 0.117971 0)
(9.95918 0.518632 0)
(10.5436 0.701487 0)
(9.79532 1.06192 0)
(10.1679 1.19287 0)
(9.35164 1.46528 0)
(9.23111 1.39549 0)
(8.38922 1.57362 0)
(8.25879 1.61675 0)
(8.1107 2.04633 0)
(8.30237 2.31137 0)
(8.88929 2.67049 0)
(9.23213 2.69768 0)
(9.97529 2.72822 0)
(10.2041 2.36559 0)
(10.8614 1.9723 0)
(10.9172 1.44365 0)
(11.486 0.917399 0)
(11.6171 0.280731 0)
(12.0584 -0.245151 0)
(12.1333 -0.813139 0)
(12.7435 -1.29291 0)
(12.8835 -1.82649 0)
(13.411 -2.22224 0)
(13.5734 -2.66833 0)
(14.0506 -2.95894 0)
(13.9434 -3.13634 0)
(14.1846 -3.17105 0)
(13.96 -3.19088 0)
(14.048 -2.99781 0)
(13.6259 -2.75902 0)
(13.713 -2.4558 0)
(13.2442 -2.25302 0)
(13.3464 -1.9622 0)
(12.9443 -1.83718 0)
(13.106 -1.65051 0)
(12.7024 -1.60314 0)
(12.8519 -1.60594 0)
(12.518 -1.68339 0)
(12.6771 -1.74452 0)
(12.3292 -1.96035 0)
(12.534 -2.02561 0)
(12.2676 -2.35237 0)
(12.3829 -2.50222 0)
(12.1497 -2.73884 0)
(12.2448 -2.98626 0)
(12.0384 -3.14691 0)
(12.0975 -3.24347 0)
(11.8095 -3.36414 0)
(12.0315 -3.33587 0)
(11.8213 -3.47124 0)
(12.0758 -3.31221 0)
(11.9701 -3.24685 0)
(12.3266 -3.10834 0)
(12.3715 -2.90488 0)
(12.7369 -2.58395 0)
(12.826 -2.27196 0)
(13.0968 -1.8089 0)
(13.1163 -1.35775 0)
(13.1896 -0.852432 0)
(13.0415 -0.461602 0)
(12.9641 0.0750842 0)
(12.6877 0.360298 0)
(12.3561 0.6579 0)
(11.9783 0.98394 0)
(11.5396 1.00073 0)
(11.1346 0.96333 0)
(10.7344 0.999607 0)
(10.381 0.879049 0)
(10.1247 0.770389 0)
(9.79144 0.564645 0)
(9.62497 0.514381 0)
(9.37979 0.327232 0)
(9.12178 -0.0365549 0)
(8.73843 -0.24185 0)
(8.44712 -0.294129 0)
(7.95988 -0.654595 0)
(7.59593 -0.956486 0)
(7.1418 -0.802562 0)
(6.73064 -0.834793 0)
(6.4035 -1.0661 0)
(6.10585 -1.11276 0)
(5.9084 -1.25392 0)
(5.48541 -1.25818 0)
(5.21873 -1.29797 0)
(4.66369 -1.6509 0)
(4.45104 -2.0256 0)
(4.15712 -2.10551 0)
(3.81278 -2.43219 0)
(3.11857 -3.31521 0)
(2.26568 -3.67281 0)
(2.14154 -2.31828 0)
(2.35734 -0.118098 0)
(2.21078 1.24959 0)
(1.83905 1.97408 0)
(1.69029 2.40833 0)
(2.07047 3.33592 0)
(2.47464 4.44169 0)
(2.95184 5.91335 0)
(3.42637 6.84851 0)
(3.66774 7.68468 0)
(3.98481 8.43168 0)
(4.46826 7.50929 0)
(5.19471 6.72072 0)
(5.80991 6.5972 0)
(6.16675 6.26575 0)
(6.65356 4.66651 0)
(6.7518 3.16643 0)
(7.00446 2.80438 0)
(7.34493 2.41594 0)
(7.74855 1.25238 0)
(8.19883 -0.424927 0)
(8.3548 -1.41405 0)
(8.81445 -2.19148 0)
(9.00339 -3.40526 0)
(8.89796 -4.28279 0)
(8.83576 -4.38103 0)
(8.69104 -4.33716 0)
(8.31488 -4.96734 0)
(7.98255 -5.20231 0)
(7.27965 -4.4924 0)
(6.97882 -3.43539 0)
(5.80081 -3.16073 0)
(5.0061 -4.47608 0)
(4.34192 -6.50272 0)
(3.48459 -8.65528 0)
(4.02608 -10.2133 0)
(3.56204 -10.4734 0)
(3.63137 -10.4233 0)
(4.75707 -9.63825 0)
(4.34847 -8.0749 0)
(4.1572 -8.00515 0)
(5.78443 -6.25122 0)
(4.33133 -5.06013 0)
(6.10268 -3.10034 0)