/*--------------------------------*- C++ -*----------------------------------*\
| =========                 |                                                 |
| \\      /  F ield         | OpenFOAM: The Open Source CFD Toolbox           |
|  \\    /   O peration     | Version:  2.4.0                                 |
|   \\  /    A nd           | Web:      www.OpenFOAM.org                      |
|    \\/     M anipulation  |                                                 |
\*---------------------------------------------------------------------------*/
FoamFile
{
    version     2.0;
    format      ascii;
    class       volVectorField;
    location    "1.49";
    object      UMean;
}
// * * * * * * * * * * * * * * * * * * * * * * * * * * * * * * * * * * * * * //

dimensions      [0 1 -1 0 0 0 0];

internalField   nonuniform List<vector> 
8800
(
(8.0934 0.387232 0)
(5.45672 0.242618 0)
(3.9262 0.042974 0)
(3.16049 -0.0151668 0)
(2.82054 -0.0184621 0)
(2.59951 -0.0108076 0)
(2.51108 -0.00594553 0)
(2.38155 -0.00189082 0)
(2.35298 -0.00187441 0)
(2.25186 -5.86534e-05 0)
(2.2567 -0.00115251 0)
(2.1681 0.000598254 0)
(2.18916 -0.000700496 0)
(2.10101 0.00115707 0)
(2.12777 -0.00039619 0)
(2.03685 0.00161515 0)
(2.06511 -0.000526404 0)
(1.9677 0.00107543 0)
(2.02909 0.00752355 0)
(1.73274 -0.0621255 0)
(10.0893 0.836336 0)
(9.64951 0.866647 0)
(8.89834 0.505683 0)
(8.0643 0.261878 0)
(7.53275 0.137012 0)
(6.97977 0.0822067 0)
(6.75277 0.0524335 0)
(6.36763 0.0408413 0)
(6.29942 0.0278529 0)
(5.99052 0.0249953 0)
(6.0178 0.0164799 0)
(5.74426 0.0187877 0)
(5.82638 0.0126051 0)
(5.56108 0.0177984 0)
(5.67203 0.0122116 0)
(5.40156 0.0178027 0)
(5.53149 0.0154049 0)
(5.2375 0.0102548 0)
(5.42686 0.0299007 0)
(5.01617 -0.0423828 0)
(10.0872 0.629956 0)
(10.6244 0.86182 0)
(10.9187 0.599331 0)
(10.6376 0.373433 0)
(10.523 0.25402 0)
(10.0183 0.196454 0)
(9.92191 0.150239 0)
(9.41839 0.122769 0)
(9.42163 0.0903454 0)
(8.95214 0.0768792 0)
(9.05684 0.0545997 0)
(8.61339 0.0535986 0)
(8.79469 0.0383156 0)
(8.3552 0.0446103 0)
(8.5888 0.0329997 0)
(8.13555 0.0410521 0)
(8.409 0.036105 0)
(7.92231 0.0336302 0)
(8.25019 0.0417321 0)
(7.71582 -0.0433701 0)
(10.072 0.456679 0)
(10.4868 0.703529 0)
(11.2632 0.543583 0)
(11.2725 0.352581 0)
(11.6651 0.259692 0)
(11.3435 0.22796 0)
(11.6148 0.196332 0)
(11.1724 0.17627 0)
(11.4389 0.142246 0)
(10.9419 0.126777 0)
(11.2441 0.0983318 0)
(10.7166 0.0946433 0)
(11.0641 0.0733438 0)
(10.5076 0.078824 0)
(10.8985 0.0613095 0)
(10.3083 0.07253 0)
(10.739 0.0576899 0)
(10.1074 0.0714056 0)
(10.5707 0.046663 0)
(9.90645 0.0417538 0)
(10.1927 0.346505 0)
(10.2564 0.565914 0)
(11.2003 0.457917 0)
(11.1531 0.295554 0)
(11.8135 0.205655 0)
(11.5177 0.194804 0)
(12.0449 0.173285 0)
(11.6604 0.171902 0)
(12.1567 0.138285 0)
(11.7254 0.136043 0)
(12.2161 0.101425 0)
(11.7482 0.111094 0)
(12.2402 0.0789107 0)
(11.7369 0.101446 0)
(12.2318 0.0666637 0)
(11.6935 0.101998 0)
(12.1903 0.0595484 0)
(11.6172 0.110904 0)
(12.105 0.0420466 0)
(11.4937 0.101372 0)
(10.2175 0.24953 0)
(10.1776 0.455979 0)
(11.0402 0.371453 0)
(11.0566 0.250321 0)
(11.6612 0.155444 0)
(11.4879 0.154936 0)
(11.9317 0.135362 0)
(11.7082 0.145858 0)
(12.1085 0.111229 0)
(11.8814 0.117834 0)
(12.2618 0.0812853 0)
(12.0321 0.0974931 0)
(12.3945 0.0642309 0)
(12.1584 0.0915467 0)
(12.501 0.0576538 0)
(12.2564 0.0948654 0)
(12.5759 0.0566996 0)
(12.3196 0.104827 0)
(12.6007 0.047895 0)
(12.2983 0.0631503 0)
(10.0891 0.168549 0)
(10.2451 0.358932 0)
(10.8073 0.280205 0)
(11.0739 0.211615 0)
(11.434 0.108676 0)
(11.5213 0.123408 0)
(11.7136 0.0942673 0)
(11.7397 0.124456 0)
(11.8909 0.0758561 0)
(11.9185 0.103089 0)
(12.0558 0.0503391 0)
(12.0852 0.0876283 0)
(12.2093 0.0348239 0)
(12.2365 0.0853672 0)
(12.3462 0.0284163 0)
(12.3683 0.0921287 0)
(12.4622 0.0258224 0)
(12.4736 0.105342 0)
(12.5323 0.0175371 0)
(12.4752 0.0885395 0)
(9.97499 0.103892 0)
(10.3016 0.262853 0)
(10.6375 0.191022 0)
(11.0788 0.163919 0)
(11.2718 0.0681335 0)
(11.5344 0.0926048 0)
(11.5629 0.0579783 0)
(11.7446 0.0986727 0)
(11.7369 0.0454338 0)
(11.9166 0.0830983 0)
(11.9022 0.0261532 0)
(12.0802 0.0720378 0)
(12.058 0.0139791 0)
(12.2302 0.0709331 0)
(12.1989 0.00878409 0)
(12.3623 0.0767427 0)
(12.3212 0.00584437 0)
(12.4697 0.0868262 0)
(12.4012 -0.00299639 0)
(12.4532 0.0731577 0)
(9.89884 0.0551473 0)
(10.3397 0.161794 0)
(10.5229 0.110359 0)
(11.0822 0.103848 0)
(11.1607 0.0357343 0)
(11.5431 0.0591253 0)
(11.4599 0.029848 0)
(11.7486 0.0646521 0)
(11.6304 0.0228359 0)
(11.9161 0.0546803 0)
(11.7958 0.0105238 0)
(12.0792 0.0476117 0)
(11.9526 0.00289462 0)
(12.2294 0.0462787 0)
(12.0943 -0.000661883 0)
(12.363 0.0484693 0)
(12.2185 -0.00338724 0)
(12.4719 0.0504689 0)
(12.2945 -0.0153627 0)
(12.4386 0.0126695 0)
(9.88351 0.00888603 0)
(10.3372 0.0665323 0)
(10.4866 0.0262948 0)
(11.0631 0.0469906 0)
(11.1285 0.000786335 0)
(11.5274 0.0324438 0)
(11.4354 -0.00162001 0)
(11.731 0.0357185 0)
(11.6065 -0.00456202 0)
(11.8971 0.0324899 0)
(11.7741 -0.00992652 0)
(12.0615 0.0303016 0)
(11.9331 -0.0139491 0)
(12.2129 0.0297313 0)
(12.0769 -0.0176753 0)
(12.3494 0.0290718 0)
(12.2028 -0.0226745 0)
(12.461 0.0251869 0)
(12.2768 -0.0363268 0)
(12.4263 -0.00365737 0)
(9.90474 -0.0306593 0)
(10.3171 -0.0343493 0)
(10.5085 -0.0548087 0)
(11.0475 -0.017884 0)
(11.1532 -0.0305492 0)
(11.5148 -0.00222369 0)
(11.4626 -0.0294007 0)
(11.7217 -0.00249137 0)
(11.6357 -0.0285127 0)
(11.8913 0.00123819 0)
(11.8052 -0.0262941 0)
(12.0588 0.00399945 0)
(11.966 -0.0269498 0)
(12.2142 0.00354899 0)
(12.1117 -0.0311283 0)
(12.3547 -0.00018057 0)
(12.2395 -0.0385184 0)
(12.4707 -0.00809725 0)
(12.315 -0.0514737 0)
(12.4383 -0.0266758 0)
(9.94223 -0.0749313 0)
(10.2957 -0.134014 0)
(10.568 -0.136814 0)
(11.0441 -0.0793363 0)
(11.2132 -0.062272 0)
(11.5091 -0.0335465 0)
(11.5192 -0.0574409 0)
(11.7192 -0.0366692 0)
(11.6955 -0.0522839 0)
(11.8924 -0.0261465 0)
(11.8661 -0.0427723 0)
(12.0616 -0.0185927 0)
(12.0282 -0.0400722 0)
(12.2196 -0.0187788 0)
(12.1756 -0.0444186 0)
(12.3613 -0.0254718 0)
(12.305 -0.0542762 0)
(12.4787 -0.0380239 0)
(12.3836 -0.0668015 0)
(12.4476 -0.0467249 0)
(9.97291 -0.123066 0)
(10.2938 -0.237874 0)
(10.6419 -0.216676 0)
(11.0694 -0.141294 0)
(11.2846 -0.0935766 0)
(11.5245 -0.0682328 0)
(11.5824 -0.0850959 0)
(11.736 -0.072001 0)
(11.7618 -0.0752194 0)
(11.9111 -0.0551603 0)
(11.9327 -0.0593972 0)
(12.0796 -0.0430079 0)
(12.095 -0.0534388 0)
(12.2365 -0.0422054 0)
(12.2423 -0.0579917 0)
(12.3763 -0.0511193 0)
(12.3723 -0.0715189 0)
(12.4923 -0.0687164 0)
(12.4539 -0.0879909 0)
(12.463 -0.067086 0)
(10.0107 -0.182481 0)
(10.3016 -0.342334 0)
(10.7453 -0.29872 0)
(11.1173 -0.196744 0)
(11.3826 -0.127482 0)
(11.5594 -0.106915 0)
(11.6687 -0.113892 0)
(11.7748 -0.107572 0)
(11.8506 -0.0977499 0)
(11.9531 -0.0852822 0)
(12.0204 -0.0757492 0)
(12.1214 -0.0693886 0)
(12.1794 -0.0660687 0)
(12.2757 -0.0675903 0)
(12.322 -0.0696273 0)
(12.4119 -0.0781114 0)
(12.4453 -0.0859151 0)
(12.522 -0.101468 0)
(12.5201 -0.108903 0)
(12.4928 -0.0988058 0)
(10.0537 -0.257756 0)
(10.3179 -0.447002 0)
(10.89 -0.382284 0)
(11.1817 -0.242803 0)
(11.5197 -0.166267 0)
(11.6061 -0.146493 0)
(11.7939 -0.1458 0)
(11.8221 -0.139146 0)
(11.972 -0.122511 0)
(11.9937 -0.111953 0)
(12.1259 -0.0945841 0)
(12.1447 -0.0933353 0)
(12.2586 -0.0808415 0)
(12.2717 -0.0906242 0)
(12.3637 -0.0812141 0)
(12.3698 -0.101581 0)
(12.4345 -0.0963292 0)
(12.4274 -0.12982 0)
(12.4408 -0.124856 0)
(12.3444 -0.138616 0)
(10.049 -0.3515 0)
(10.3938 -0.559654 0)
(11.0445 -0.464425 0)
(11.2977 -0.289788 0)
(11.6528 -0.213197 0)
(11.6644 -0.187978 0)
(11.8761 -0.181231 0)
(11.8107 -0.166035 0)
(11.9775 -0.147649 0)
(11.8802 -0.130572 0)
(12.0246 -0.112857 0)
(11.9076 -0.106873 0)
(12.0328 -0.0937021 0)
(11.8997 -0.100077 0)
(12.0017 -0.0881217 0)
(11.8552 -0.107658 0)
(11.924 -0.0971797 0)
(11.7629 -0.136519 0)
(11.7656 -0.125217 0)
(11.5409 -0.161817 0)
(10.0024 -0.459706 0)
(10.5607 -0.700112 0)
(11.1665 -0.546312 0)
(11.368 -0.35016 0)
(11.5559 -0.263914 0)
(11.4488 -0.224973 0)
(11.4918 -0.20098 0)
(11.2856 -0.173642 0)
(11.3011 -0.147761 0)
(11.0611 -0.124594 0)
(11.0897 -0.104751 0)
(10.8393 -0.0943501 0)
(10.8884 -0.081005 0)
(10.6299 -0.0831106 0)
(10.6916 -0.0712702 0)
(10.4219 -0.0875506 0)
(10.4785 -0.0747313 0)
(10.1902 -0.115624 0)
(10.196 -0.095692 0)
(9.86067 -0.160137 0)
(10.0587 -0.632933 0)
(10.6555 -0.858825 0)
(10.8653 -0.600755 0)
(10.6912 -0.371925 0)
(10.4571 -0.256926 0)
(10.0829 -0.194644 0)
(9.84215 -0.153512 0)
(9.48959 -0.120567 0)
(9.32964 -0.0943445 0)
(9.02617 -0.0747032 0)
(8.953 -0.0595081 0)
(8.68548 -0.0523063 0)
(8.67595 -0.044576 0)
(8.41877 -0.0459657 0)
(8.44632 -0.0413337 0)
(8.17929 -0.0502873 0)
(8.21765 -0.0485005 0)
(7.9211 -0.0696875 0)
(7.92348 -0.0709758 0)
(7.57677 -0.0893673 0)
(10.0804 -0.837912 0)
(9.65677 -0.864798 0)
(8.87438 -0.506132 0)
(8.09038 -0.261094 0)
(7.49915 -0.138682 0)
(7.01339 -0.0814103 0)
(6.70762 -0.0539834 0)
(6.40572 -0.0397149 0)
(6.24623 -0.0297795 0)
(6.02907 -0.0239234 0)
(5.95782 -0.0188412 0)
(5.77819 -0.0181892 0)
(5.75778 -0.0156081 0)
(5.58357 -0.0185166 0)
(5.58795 -0.0164894 0)
(5.40007 -0.0228645 0)
(5.40895 -0.0220971 0)
(5.18673 -0.0326893 0)
(5.17558 -0.0383777 0)
(4.88044 -0.0197061 0)
(8.09147 -0.387647 0)
(5.45515 -0.242045 0)
(3.92137 -0.0432623 0)
(3.16898 0.0152694 0)
(2.81122 0.0180085 0)
(2.60892 0.0111524 0)
(2.49646 0.00558871 0)
(2.39231 0.00230517 0)
(2.33561 0.00142935 0)
(2.2624 0.000450146 0)
(2.23635 0.000657133 0)
(2.17599 -0.000226448 0)
(2.16469 0.000147535 0)
(2.10216 -0.00106351 0)
(2.095 -0.000344765 0)
(2.02246 -0.00223363 0)
(2.0101 -0.00113448 0)
(1.91879 -0.00381344 0)
(1.88096 -0.00428815 0)
(1.72912 0.0113479 0)
(2.27015 -0.109176 0)
(2.31935 -0.0215118 0)
(2.56233 -0.00734465 0)
(2.62877 -0.014892 0)
(2.86503 -0.0350413 0)
(2.89571 -0.0400269 0)
(3.10459 -0.0480808 0)
(3.09766 -0.0416972 0)
(3.28022 -0.0468251 0)
(3.24827 -0.0438514 0)
(3.42287 -0.0516041 0)
(3.37652 -0.0499525 0)
(3.55366 -0.0598989 0)
(3.50084 -0.0587613 0)
(3.68262 -0.0686963 0)
(3.62568 -0.0671361 0)
(3.81535 -0.0771397 0)
(3.75607 -0.0755265 0)
(3.9589 -0.0856799 0)
(3.89836 -0.0824256 0)
(4.10928 -0.0950016 0)
(4.04183 -0.0951574 0)
(4.25625 -0.110951 0)
(4.17913 -0.11289 0)
(4.39502 -0.131091 0)
(4.30696 -0.134219 0)
(4.52335 -0.152503 0)
(4.4248 -0.152532 0)
(4.64336 -0.167575 0)
(4.54035 -0.164278 0)
(4.76527 -0.179513 0)
(4.66424 -0.177277 0)
(4.8975 -0.195308 0)
(4.79622 -0.194083 0)
(5.03353 -0.212817 0)
(4.92627 -0.210216 0)
(5.16829 -0.228343 0)
(5.05278 -0.223777 0)
(5.30411 -0.241928 0)
(5.17917 -0.23791 0)
(5.44312 -0.258325 0)
(5.30637 -0.257615 0)
(5.58216 -0.282806 0)
(5.43037 -0.285558 0)
(5.71212 -0.31399 0)
(5.54421 -0.316321 0)
(5.82784 -0.34526 0)
(5.64879 -0.343193 0)
(5.93432 -0.37114 0)
(5.74985 -0.364033 0)
(6.03999 -0.390038 0)
(5.8517 -0.378143 0)
(6.15301 -0.401842 0)
(5.95792 -0.386637 0)
(6.27785 -0.410007 0)
(6.07159 -0.393254 0)
(6.41465 -0.417401 0)
(6.19342 -0.399916 0)
(6.55811 -0.424855 0)
(6.31918 -0.407452 0)
(6.70265 -0.43593 0)
(6.4528 -0.420989 0)
(6.85105 -0.456464 0)
(6.60011 -0.446353 0)
(7.00216 -0.490846 0)
(6.7544 -0.484877 0)
(7.14739 -0.534193 0)
(6.89607 -0.52951 0)
(7.2772 -0.577753 0)
(7.0164 -0.570501 0)
(7.39422 -0.618853 0)
(7.12152 -0.606088 0)
(7.50204 -0.651509 0)
(7.21573 -0.632974 0)
(7.61173 -0.677096 0)
(7.31416 -0.653707 0)
(7.73063 -0.697037 0)
(7.42939 -0.670087 0)
(7.86503 -0.717205 0)
(7.56291 -0.686913 0)
(8.01633 -0.737142 0)
(7.70937 -0.703938 0)
(8.17812 -0.75311 0)
(7.86213 -0.720368 0)
(8.34144 -0.771644 0)
(8.02282 -0.740028 0)
(8.49426 -0.798869 0)
(8.18752 -0.768727 0)
(8.6343 -0.832332 0)
(8.342 -0.80282 0)
(8.76151 -0.866134 0)
(8.47928 -0.83406 0)
(8.87167 -0.895257 0)
(8.59302 -0.861895 0)
(8.96614 -0.923723 0)
(8.69003 -0.887512 0)
(9.04931 -0.949669 0)
(8.77458 -0.911081 0)
(9.12808 -0.973795 0)
(8.86206 -0.933546 0)
(9.21437 -0.9991 0)
(8.95507 -0.956192 0)
(9.31253 -1.02671 0)
(9.05126 -0.978097 0)
(9.41091 -1.04643 0)
(9.13909 -0.98616 0)
(9.49267 -1.05762 0)
(9.20677 -0.990438 0)
(9.54804 -1.0653 0)
(9.25213 -0.990278 0)
(9.57942 -1.06567 0)
(9.27242 -0.985159 0)
(9.58396 -1.05707 0)
(9.2689 -0.969791 0)
(9.57127 -1.04275 0)
(9.26621 -0.949601 0)
(9.56352 -1.02075 0)
(9.27652 -0.923703 0)
(9.56074 -0.994739 0)
(9.28575 -0.893503 0)
(9.55755 -0.962505 0)
(9.29539 -0.859784 0)
(9.55825 -0.93105 0)
(9.30248 -0.826038 0)
(9.55712 -0.900877 0)
(9.29703 -0.796264 0)
(9.5552 -0.869182 0)
(9.28364 -0.759608 0)
(9.54941 -0.82596 0)
(9.27551 -0.712593 0)
(9.53794 -0.772463 0)
(9.27395 -0.658249 0)
(9.51826 -0.715436 0)
(9.27031 -0.603948 0)
(9.49158 -0.663968 0)
(9.26143 -0.554556 0)
(9.46196 -0.609607 0)
(9.24654 -0.497157 0)
(9.43822 -0.549319 0)
(9.23581 -0.442101 0)
(9.41744 -0.496701 0)
(9.22473 -0.394898 0)
(9.38575 -0.443197 0)
(9.21078 -0.348747 0)
(9.34887 -0.395344 0)
(9.19411 -0.304693 0)
(9.30023 -0.335153 0)
(9.16869 -0.245046 0)
(9.24488 -0.270175 0)
(9.14008 -0.178595 0)
(9.18411 -0.200065 0)
(9.09922 -0.099484 0)
(9.12589 -0.109751 0)
(9.0543 -0.00614255 0)
(9.07307 -0.0198154 0)
(9.01578 0.0929383 0)
(9.02964 0.0836464 0)
(8.9618 0.195974 0)
(8.99302 0.186221 0)
(8.91405 0.306626 0)
(8.96178 0.279809 0)
(8.86005 0.410847 0)
(8.93656 0.376895 0)
(8.79384 0.511034 0)
(8.89901 0.470239 0)
(8.71605 0.614283 0)
(8.86602 0.565 0)
(8.63916 0.717217 0)
(8.8281 0.663694 0)
(8.55623 0.83156 0)
(8.76951 0.753538 0)
(8.44458 0.942177 0)
(8.70934 0.853619 0)
(8.29246 1.06498 0)
(8.63872 0.952611 0)
(8.13956 1.21227 0)
(8.56183 1.06266 0)
(7.98323 1.3617 0)
(8.49472 1.17363 0)
(7.85293 1.52379 0)
(8.41303 1.30182 0)
(7.73895 1.69197 0)
(8.32201 1.44933 0)
(7.62162 1.86181 0)
(8.19516 1.60508 0)
(7.49431 2.036 0)
(8.0202 1.78537 0)
(7.34251 2.22644 0)
(7.82308 2.00889 0)
(7.14808 2.44469 0)
(7.60719 2.27969 0)
(6.89044 2.71666 0)
(7.3276 2.62683 0)
(6.56947 3.10882 0)
(6.91765 3.08567 0)
(6.18554 3.77157 0)
(6.39498 3.79988 0)
(5.48909 4.90365 0)
(6.46797 5.42486 0)
(4.13252 8.40168 0)
(5.33757 -0.07195 0)
(5.24863 -0.0369036 0)
(5.38119 -0.0420723 0)
(5.32012 -0.0609947 0)
(5.51477 -0.091211 0)
(5.46819 -0.100415 0)
(5.66618 -0.108926 0)
(5.59088 -0.0995069 0)
(5.77169 -0.100043 0)
(5.6687 -0.0916753 0)
(5.84771 -0.0982072 0)
(5.73317 -0.095287 0)
(5.92358 -0.106458 0)
(5.80531 -0.105223 0)
(6.00954 -0.117065 0)
(5.88734 -0.115324 0)
(6.10403 -0.127268 0)
(5.97619 -0.124705 0)
(6.20381 -0.137229 0)
(6.06995 -0.134285 0)
(6.30693 -0.14804 0)
(6.16534 -0.146696 0)
(6.40891 -0.162674 0)
(6.25719 -0.162476 0)
(6.50672 -0.180227 0)
(6.34448 -0.18042 0)
(6.60057 -0.198357 0)
(6.42849 -0.196797 0)
(6.69168 -0.213911 0)
(6.51114 -0.210631 0)
(6.78372 -0.228096 0)
(6.59636 -0.224721 0)
(6.8799 -0.244166 0)
(6.68433 -0.241061 0)
(6.97737 -0.261226 0)
(6.77031 -0.256505 0)
(7.07223 -0.276109 0)
(6.85295 -0.269666 0)
(7.16439 -0.289851 0)
(6.93406 -0.283511 0)
(7.25523 -0.30672 0)
(7.0165 -0.302181 0)
(7.34572 -0.330058 0)
(7.10054 -0.327039 0)
(7.4349 -0.358076 0)
(7.18295 -0.354374 0)
(7.52065 -0.386214 0)
(7.26007 -0.380135 0)
(7.60256 -0.411034 0)
(7.33092 -0.401701 0)
(7.68284 -0.430713 0)
(7.39673 -0.417569 0)
(7.76365 -0.445087 0)
(7.4608 -0.428415 0)
(7.84663 -0.455709 0)
(7.52796 -0.436645 0)
(7.93371 -0.464873 0)
(7.60286 -0.44518 0)
(8.02659 -0.475991 0)
(7.68824 -0.456774 0)
(8.12526 -0.491658 0)
(7.78335 -0.474266 0)
(8.22843 -0.515092 0)
(7.8857 -0.500714 0)
(8.33277 -0.547756 0)
(7.99125 -0.535446 0)
(8.43468 -0.585267 0)
(8.09258 -0.573629 0)
(8.53353 -0.625549 0)
(8.1874 -0.613258 0)
(8.62895 -0.663419 0)
(8.27356 -0.645408 0)
(8.72044 -0.694393 0)
(8.35637 -0.671492 0)
(8.8107 -0.722325 0)
(8.44292 -0.693965 0)
(8.90361 -0.74722 0)
(8.53677 -0.714922 0)
(9.0021 -0.770773 0)
(8.63633 -0.736702 0)
(9.1094 -0.793722 0)
(8.74143 -0.756079 0)
(9.22076 -0.814329 0)
(8.8538 -0.77345 0)
(9.3289 -0.833259 0)
(8.97093 -0.792829 0)
(9.43237 -0.858037 0)
(9.08777 -0.818546 0)
(9.52673 -0.887198 0)
(9.19474 -0.848136 0)
(9.61212 -0.915526 0)
(9.2879 -0.872086 0)
(9.68297 -0.938528 0)
(9.36241 -0.893219 0)
(9.73932 -0.959873 0)
(9.42133 -0.912334 0)
(9.78608 -0.980397 0)
(9.47107 -0.933297 0)
(9.83363 -1.00537 0)
(9.52195 -0.958951 0)
(9.88575 -1.03551 0)
(9.57619 -0.985399 0)
(9.94293 -1.06621 0)
(9.62548 -1.00509 0)
(9.99179 -1.07922 0)
(9.66509 -1.00692 0)
(10.0233 -1.08118 0)
(9.68999 -1.00243 0)
(10.0342 -1.08171 0)
(9.69419 -0.995106 0)
(10.0239 -1.07252 0)
(9.675 -0.975127 0)
(9.98959 -1.05429 0)
(9.64154 -0.954823 0)
(9.95128 -1.03991 0)
(9.61782 -0.938476 0)
(9.91983 -1.02406 0)
(9.5995 -0.915431 0)
(9.89479 -0.997274 0)
(9.57778 -0.885757 0)
(9.87314 -0.965548 0)
(9.55513 -0.853102 0)
(9.85393 -0.932971 0)
(9.5322 -0.8152 0)
(9.83249 -0.89849 0)
(9.50074 -0.778784 0)
(9.80389 -0.866455 0)
(9.4647 -0.74311 0)
(9.77066 -0.824101 0)
(9.43218 -0.697794 0)
(9.73526 -0.7733 0)
(9.4031 -0.64399 0)
(9.6991 -0.713311 0)
(9.37453 -0.587445 0)
(9.65916 -0.656872 0)
(9.33265 -0.534912 0)
(9.6163 -0.602428 0)
(9.29323 -0.483993 0)
(9.57966 -0.547246 0)
(9.26491 -0.433039 0)
(9.5468 -0.494697 0)
(9.23639 -0.381583 0)
(9.50819 -0.440931 0)
(9.2031 -0.329412 0)
(9.4666 -0.389649 0)
(9.16026 -0.277214 0)
(9.41784 -0.326666 0)
(9.11627 -0.217461 0)
(9.36866 -0.260758 0)
(9.08456 -0.148902 0)
(9.3103 -0.183735 0)
(9.04549 -0.0696336 0)
(9.24672 -0.102001 0)
(9.00628 0.0198522 0)
(9.1981 -0.0133323 0)
(8.96136 0.118189 0)
(9.1602 0.0852711 0)
(8.91048 0.224171 0)
(9.13577 0.181839 0)
(8.86693 0.339142 0)
(9.11748 0.272841 0)
(8.81593 0.448959 0)
(9.10041 0.371487 0)
(8.76923 0.555814 0)
(9.07812 0.460443 0)
(8.72626 0.659385 0)
(9.05196 0.543254 0)
(8.68145 0.773272 0)
(9.00563 0.63588 0)
(8.62333 0.902887 0)
(8.96907 0.731846 0)
(8.51989 1.02901 0)
(8.92998 0.839027 0)
(8.39426 1.16824 0)
(8.86666 0.936503 0)
(8.25982 1.31071 0)
(8.81934 1.03846 0)
(8.13128 1.4568 0)
(8.77931 1.14435 0)
(8.01378 1.61312 0)
(8.74324 1.28231 0)
(7.91311 1.77975 0)
(8.68847 1.44218 0)
(7.82357 1.95317 0)
(8.59998 1.61304 0)
(7.71764 2.12691 0)
(8.49435 1.80703 0)
(7.57293 2.32103 0)
(8.37231 2.03397 0)
(7.41621 2.57452 0)
(8.2064 2.30576 0)
(7.269 2.9144 0)
(7.96915 2.64226 0)
(7.10035 3.39564 0)
(7.6944 3.11524 0)
(6.79997 4.08195 0)
(7.67232 3.90679 0)
(6.12328 5.32277 0)
(8.56808 4.74527 0)
(6.57782 8.8759 0)
(8.03028 -0.0860113 0)
(7.89174 -0.0674412 0)
(8.04014 -0.0820555 0)
(7.92322 -0.0948736 0)
(8.13116 -0.118822 0)
(8.0297 -0.120424 0)
(8.24118 -0.127324 0)
(8.1067 -0.114836 0)
(8.30037 -0.11656 0)
(8.13637 -0.105845 0)
(8.33088 -0.114505 0)
(8.15716 -0.110598 0)
(8.36652 -0.125516 0)
(8.19015 -0.124588 0)
(8.41582 -0.141218 0)
(8.23594 -0.139464 0)
(8.47503 -0.15542 0)
(8.28873 -0.151794 0)
(8.53764 -0.167214 0)
(8.34296 -0.162763 0)
(8.6 -0.17906 0)
(8.39648 -0.175283 0)
(8.661 -0.193296 0)
(8.44819 -0.190226 0)
(8.72024 -0.209709 0)
(8.49823 -0.206722 0)
(8.7782 -0.226736 0)
(8.54687 -0.22272 0)
(8.8349 -0.24259 0)
(8.59308 -0.23734 0)
(8.88981 -0.25767 0)
(8.63681 -0.252143 0)
(8.94338 -0.273898 0)
(8.67817 -0.268213 0)
(8.99485 -0.290764 0)
(8.71687 -0.283568 0)
(9.04395 -0.306044 0)
(8.75511 -0.296779 0)
(9.09179 -0.32016 0)
(8.79537 -0.30998 0)
(9.14021 -0.336293 0)
(8.8401 -0.327048 0)
(9.19088 -0.357601 0)
(8.8879 -0.35004 0)
(9.24281 -0.383709 0)
(8.93534 -0.376378 0)
(9.29407 -0.410753 0)
(8.97829 -0.40142 0)
(9.34203 -0.434822 0)
(9.01417 -0.422058 0)
(9.38602 -0.453932 0)
(9.0439 -0.437364 0)
(9.42686 -0.468459 0)
(9.07062 -0.448599 0)
(9.46587 -0.480415 0)
(9.09965 -0.458446 0)
(9.50647 -0.492934 0)
(9.13716 -0.470348 0)
(9.5524 -0.508632 0)
(9.1854 -0.486045 0)
(9.60367 -0.527194 0)
(9.24032 -0.505268 0)
(9.65771 -0.549644 0)
(9.29629 -0.53036 0)
(9.71184 -0.578672 0)
(9.34882 -0.561865 0)
(9.76461 -0.614556 0)
(9.39964 -0.59966 0)
(9.81944 -0.656213 0)
(9.44949 -0.639644 0)
(9.87119 -0.695459 0)
(9.49604 -0.67313 0)
(9.9215 -0.72671 0)
(9.54176 -0.700496 0)
(9.97184 -0.755077 0)
(9.58854 -0.724654 0)
(10.0216 -0.780745 0)
(9.63841 -0.746567 0)
(10.0734 -0.806102 0)
(9.69533 -0.770264 0)
(10.1303 -0.830939 0)
(9.75898 -0.790904 0)
(10.1909 -0.852604 0)
(9.82785 -0.806719 0)
(10.2495 -0.870105 0)
(9.89854 -0.824541 0)
(10.304 -0.890361 0)
(9.96155 -0.845786 0)
(10.3505 -0.915605 0)
(10.0147 -0.871306 0)
(10.3873 -0.938982 0)
(10.0557 -0.889955 0)
(10.4096 -0.957891 0)
(10.0824 -0.906017 0)
(10.42 -0.974368 0)
(10.1 -0.921349 0)
(10.421 -0.993602 0)
(10.112 -0.941968 0)
(10.4259 -1.02022 0)
(10.1251 -0.968367 0)
(10.4319 -1.0524 0)
(10.1362 -0.995462 0)
(10.4307 -1.08189 0)
(10.1348 -1.01117 0)
(10.4183 -1.09011 0)
(10.1256 -1.00884 0)
(10.397 -1.08721 0)
(10.1092 -0.998084 0)
(10.3648 -1.07752 0)
(10.0747 -0.978019 0)
(10.3105 -1.0574 0)
(10.0215 -0.949071 0)
(10.2431 -1.03545 0)
(9.97357 -0.931535 0)
(10.1854 -1.02504 0)
(9.92909 -0.916587 0)
(10.1235 -1.0099 0)
(9.87622 -0.893627 0)
(10.0649 -0.986299 0)
(9.82622 -0.863409 0)
(10.0158 -0.957207 0)
(9.78025 -0.829073 0)
(9.96983 -0.924336 0)
(9.73613 -0.790613 0)
(9.92272 -0.887788 0)
(9.68981 -0.751578 0)
(9.86991 -0.853772 0)
(9.63593 -0.715003 0)
(9.80729 -0.812475 0)
(9.57766 -0.667383 0)
(9.74328 -0.760486 0)
(9.51397 -0.611627 0)
(9.69067 -0.703348 0)
(9.45454 -0.55445 0)
(9.63792 -0.643255 0)
(9.38847 -0.499491 0)
(9.58269 -0.593071 0)
(9.3313 -0.454908 0)
(9.52978 -0.541983 0)
(9.27973 -0.405081 0)
(9.48041 -0.492939 0)
(9.23484 -0.349085 0)
(9.42306 -0.436646 0)
(9.18652 -0.293743 0)
(9.3728 -0.383345 0)
(9.13678 -0.23617 0)
(9.32433 -0.318736 0)
(9.0858 -0.173008 0)
(9.27945 -0.256115 0)
(9.04461 -0.103827 0)
(9.22902 -0.182806 0)
(9.0211 -0.0197184 0)
(9.17997 -0.110688 0)
(8.98709 0.0641128 0)
(9.14238 -0.0226417 0)
(8.94049 0.169704 0)
(9.10522 0.0676738 0)
(8.89623 0.275452 0)
(9.07336 0.160145 0)
(8.85048 0.387377 0)
(9.05008 0.25811 0)
(8.80619 0.496989 0)
(9.03574 0.350098 0)
(8.78024 0.602116 0)
(9.02374 0.43492 0)
(8.75467 0.710126 0)
(9.00343 0.520792 0)
(8.72217 0.832338 0)
(8.9853 0.620627 0)
(8.66321 0.964463 0)
(8.98485 0.720942 0)
(8.56985 1.10435 0)
(8.97783 0.832333 0)
(8.45333 1.25634 0)
(8.97735 0.938105 0)
(8.32266 1.39534 0)
(8.9833 1.03248 0)
(8.20898 1.53364 0)
(8.97782 1.13699 0)
(8.10566 1.67873 0)
(8.96057 1.26391 0)
(8.03032 1.84984 0)
(8.92495 1.41945 0)
(7.95899 2.03862 0)
(8.87679 1.59363 0)
(7.86693 2.23832 0)
(8.81222 1.7797 0)
(7.77845 2.47064 0)
(8.70174 1.98456 0)
(7.71506 2.74731 0)
(8.56418 2.24427 0)
(7.65142 3.10555 0)
(8.46974 2.59388 0)
(7.51488 3.57517 0)
(8.57523 3.08501 0)
(7.19 4.31213 0)
(9.10889 3.58842 0)
(6.88131 5.86156 0)
(9.8248 3.65446 0)
(8.24727 8.1497 0)
(10.2817 -0.102933 0)
(10.1167 -0.151842 0)
(10.2882 -0.189894 0)
(10.14 -0.183349 0)
(10.3583 -0.183076 0)
(10.2179 -0.157635 0)
(10.4344 -0.152354 0)
(10.2611 -0.129177 0)
(10.4623 -0.131402 0)
(10.2638 -0.116132 0)
(10.4669 -0.127833 0)
(10.2603 -0.12035 0)
(10.4766 -0.139373 0)
(10.268 -0.135552 0)
(10.4987 -0.157001 0)
(10.2869 -0.152389 0)
(10.5288 -0.173042 0)
(10.3109 -0.16596 0)
(10.5612 -0.185561 0)
(10.3357 -0.176891 0)
(10.5934 -0.196874 0)
(10.3599 -0.188143 0)
(10.6244 -0.209751 0)
(10.3825 -0.201529 0)
(10.6534 -0.2248 0)
(10.4032 -0.216663 0)
(10.6801 -0.240819 0)
(10.4216 -0.231784 0)
(10.7042 -0.256142 0)
(10.4371 -0.245902 0)
(10.725 -0.270572 0)
(10.4493 -0.259539 0)
(10.7424 -0.285123 0)
(10.4583 -0.273747 0)
(10.7568 -0.300396 0)
(10.465 -0.288176 0)
(10.7691 -0.315629 0)
(10.4713 -0.30254 0)
(10.7818 -0.33133 0)
(10.48 -0.317938 0)
(10.7973 -0.349063 0)
(10.492 -0.336852 0)
(10.8159 -0.371254 0)
(10.5058 -0.360274 0)
(10.8354 -0.397236 0)
(10.5184 -0.385941 0)
(10.8528 -0.423693 0)
(10.5277 -0.409622 0)
(10.8668 -0.446306 0)
(10.5335 -0.427936 0)
(10.8773 -0.463127 0)
(10.5367 -0.440737 0)
(10.8843 -0.475282 0)
(10.5388 -0.450366 0)
(10.8897 -0.486263 0)
(10.5437 -0.46073 0)
(10.8967 -0.499903 0)
(10.5534 -0.474508 0)
(10.9062 -0.516757 0)
(10.5653 -0.49117 0)
(10.9159 -0.536066 0)
(10.5765 -0.510739 0)
(10.9241 -0.558787 0)
(10.5857 -0.534839 0)
(10.9297 -0.586423 0)
(10.5919 -0.565667 0)
(10.9354 -0.623366 0)
(10.5975 -0.606111 0)
(10.942 -0.665614 0)
(10.6001 -0.645775 0)
(10.9458 -0.704774 0)
(10.5974 -0.679844 0)
(10.9464 -0.736296 0)
(10.5958 -0.708227 0)
(10.9464 -0.764155 0)
(10.5933 -0.733099 0)
(10.9454 -0.789624 0)
(10.5965 -0.757344 0)
(10.9509 -0.818072 0)
(10.6126 -0.783589 0)
(10.9631 -0.843979 0)
(10.6365 -0.806087 0)
(10.9775 -0.864657 0)
(10.6604 -0.821417 0)
(10.9917 -0.88205 0)
(10.6814 -0.836939 0)
(11.0006 -0.898888 0)
(10.6943 -0.857545 0)
(11.0045 -0.922441 0)
(10.7011 -0.878329 0)
(10.9969 -0.940784 0)
(10.6945 -0.890103 0)
(10.9754 -0.953953 0)
(10.6773 -0.900908 0)
(10.9462 -0.968054 0)
(10.6555 -0.91366 0)
(10.91 -0.987992 0)
(10.6315 -0.935595 0)
(10.8746 -1.01639 0)
(10.6045 -0.961172 0)
(10.8361 -1.04578 0)
(10.5701 -0.984272 0)
(10.7871 -1.07118 0)
(10.5274 -0.996996 0)
(10.7339 -1.07886 0)
(10.4799 -0.994498 0)
(10.6752 -1.07426 0)
(10.4241 -0.977789 0)
(10.6038 -1.05612 0)
(10.3534 -0.94909 0)
(10.512 -1.02592 0)
(10.2712 -0.918493 0)
(10.4256 -1.01057 0)
(10.2064 -0.906939 0)
(10.3424 -0.998955 0)
(10.1309 -0.886482 0)
(10.2487 -0.979052 0)
(10.0428 -0.860922 0)
(10.151 -0.959636 0)
(9.96081 -0.831292 0)
(10.0674 -0.93506 0)
(9.88682 -0.798786 0)
(9.99757 -0.902784 0)
(9.81694 -0.764432 0)
(9.9332 -0.867683 0)
(9.74899 -0.728691 0)
(9.86177 -0.829279 0)
(9.67383 -0.684907 0)
(9.77814 -0.782385 0)
(9.59121 -0.634484 0)
(9.69222 -0.731599 0)
(9.50731 -0.581536 0)
(9.61574 -0.67838 0)
(9.42808 -0.523484 0)
(9.54387 -0.618426 0)
(9.34716 -0.469308 0)
(9.4752 -0.570944 0)
(9.26886 -0.425783 0)
(9.40404 -0.523376 0)
(9.19487 -0.376477 0)
(9.33976 -0.475887 0)
(9.12113 -0.31543 0)
(9.27642 -0.419009 0)
(9.05607 -0.260708 0)
(9.23146 -0.371789 0)
(8.99985 -0.200724 0)
(9.18487 -0.310093 0)
(8.94764 -0.139104 0)
(9.14953 -0.253786 0)
(8.90165 -0.0734851 0)
(9.12123 -0.192219 0)
(8.8673 0.00839332 0)
(9.1097 -0.113655 0)
(8.81713 0.0961499 0)
(9.09266 -0.0241325 0)
(8.77431 0.205919 0)
(9.05719 0.0669061 0)
(8.73351 0.321629 0)
(9.02322 0.163611 0)
(8.67824 0.421281 0)
(9.00408 0.246599 0)
(8.64284 0.527885 0)
(9.00862 0.323424 0)
(8.60013 0.629415 0)
(9.03636 0.409114 0)
(8.55086 0.741487 0)
(9.05091 0.497236 0)
(8.49798 0.868319 0)
(9.07882 0.597096 0)
(8.43955 1.01105 0)
(9.10576 0.694857 0)
(8.36988 1.16773 0)
(9.1315 0.80098 0)
(8.28393 1.31896 0)
(9.16639 0.898805 0)
(8.2142 1.45274 0)
(9.17019 0.997502 0)
(8.16974 1.58846 0)
(9.14808 1.10832 0)
(8.13911 1.73919 0)
(9.11279 1.23 0)
(8.11931 1.92198 0)
(9.08693 1.37571 0)
(8.09873 2.12498 0)
(9.06586 1.54056 0)
(8.0812 2.34323 0)
(9.03014 1.71506 0)
(8.07122 2.58323 0)
(9.00918 1.93065 0)
(8.02621 2.86891 0)
(9.04162 2.18822 0)
(7.92949 3.24153 0)
(9.20848 2.50073 0)
(7.74227 3.76879 0)
(9.59899 2.78934 0)
(7.56144 4.68396 0)
(10.1943 2.89596 0)
(7.87608 6.10365 0)
(10.4339 3.0941 0)
(9.25243 7.14592 0)
(11.7723 -0.0890963 0)
(11.6387 -0.171525 0)
(11.8364 -0.231061 0)
(11.7281 -0.218438 0)
(11.9238 -0.212225 0)
(11.7908 -0.169633 0)
(11.9678 -0.160551 0)
(11.8027 -0.128465 0)
(11.9671 -0.135222 0)
(11.7843 -0.116053 0)
(11.9507 -0.134588 0)
(11.7631 -0.123255 0)
(11.9401 -0.148408 0)
(11.7532 -0.139818 0)
(11.942 -0.166823 0)
(11.7544 -0.157161 0)
(11.9524 -0.183322 0)
(11.7611 -0.171113 0)
(11.9655 -0.196114 0)
(11.7684 -0.182093 0)
(11.9779 -0.207263 0)
(11.7738 -0.192843 0)
(11.9875 -0.219454 0)
(11.7759 -0.205313 0)
(11.9933 -0.23351 0)
(11.7743 -0.219326 0)
(11.9957 -0.248504 0)
(11.7698 -0.233383 0)
(11.9953 -0.262975 0)
(11.7636 -0.246426 0)
(11.9931 -0.276267 0)
(11.7566 -0.258446 0)
(11.9894 -0.289161 0)
(11.7495 -0.270609 0)
(11.9846 -0.302588 0)
(11.7424 -0.283626 0)
(11.9791 -0.317117 0)
(11.7356 -0.298166 0)
(11.9739 -0.333434 0)
(11.7293 -0.315125 0)
(11.9696 -0.352725 0)
(11.723 -0.335642 0)
(11.9656 -0.375778 0)
(11.7152 -0.359486 0)
(11.9603 -0.401541 0)
(11.7048 -0.384521 0)
(11.952 -0.42697 0)
(11.691 -0.407363 0)
(11.9397 -0.448663 0)
(11.6746 -0.424975 0)
(11.9235 -0.464562 0)
(11.657 -0.436898 0)
(11.9049 -0.476108 0)
(11.6408 -0.446635 0)
(11.8864 -0.487602 0)
(11.6273 -0.457837 0)
(11.8686 -0.500901 0)
(11.6134 -0.47103 0)
(11.8492 -0.515765 0)
(11.5955 -0.486569 0)
(11.8278 -0.533778 0)
(11.5726 -0.505417 0)
(11.8042 -0.554991 0)
(11.5446 -0.527496 0)
(11.779 -0.581375 0)
(11.5151 -0.557689 0)
(11.7546 -0.617577 0)
(11.4832 -0.595787 0)
(11.7235 -0.657376 0)
(11.4449 -0.632696 0)
(11.6858 -0.693395 0)
(11.4016 -0.664848 0)
(11.6444 -0.724968 0)
(11.3602 -0.693008 0)
(11.6006 -0.752364 0)
(11.3192 -0.718984 0)
(11.5579 -0.780978 0)
(11.2878 -0.749165 0)
(11.5274 -0.8145 0)
(11.2679 -0.779551 0)
(11.5029 -0.842835 0)
(11.251 -0.803757 0)
(11.4786 -0.862541 0)
(11.2332 -0.820443 0)
(11.4562 -0.879368 0)
(11.21 -0.834345 0)
(11.4331 -0.895486 0)
(11.1851 -0.853191 0)
(11.4051 -0.915976 0)
(11.154 -0.866043 0)
(11.3647 -0.926465 0)
(11.1092 -0.872292 0)
(11.3169 -0.937972 0)
(11.0603 -0.881313 0)
(11.2646 -0.952646 0)
(11.0104 -0.893108 0)
(11.2055 -0.973292 0)
(10.9597 -0.913142 0)
(11.1383 -1.00011 0)
(10.9033 -0.937362 0)
(11.0681 -1.02629 0)
(10.8419 -0.957442 0)
(10.9942 -1.04859 0)
(10.7752 -0.968513 0)
(10.9141 -1.05239 0)
(10.6975 -0.963028 0)
(10.8201 -1.04269 0)
(10.6076 -0.940726 0)
(10.7091 -1.01822 0)
(10.5033 -0.904243 0)
(10.5844 -0.984555 0)
(10.408 -0.881275 0)
(10.4785 -0.976692 0)
(10.3128 -0.865968 0)
(10.3613 -0.957842 0)
(10.2041 -0.836996 0)
(10.2362 -0.933615 0)
(10.0851 -0.808058 0)
(10.1129 -0.91704 0)
(9.9714 -0.784011 0)
(10.0034 -0.899676 0)
(9.86586 -0.757771 0)
(9.91315 -0.872142 0)
(9.76909 -0.726729 0)
(9.82912 -0.837809 0)
(9.67525 -0.688544 0)
(9.73433 -0.797512 0)
(9.57919 -0.640601 0)
(9.63499 -0.748743 0)
(9.47816 -0.587982 0)
(9.53552 -0.698518 0)
(9.38066 -0.538563 0)
(9.43663 -0.645418 0)
(9.28747 -0.479651 0)
(9.34471 -0.589815 0)
(9.19827 -0.426842 0)
(9.26082 -0.541155 0)
(9.10068 -0.380335 0)
(9.17432 -0.497998 0)
(9.00324 -0.33002 0)
(9.0953 -0.450114 0)
(8.90552 -0.272927 0)
(9.03404 -0.40349 0)
(8.83802 -0.227625 0)